/*--------------------------------*- C++ -*----------------------------------*\
| =========                 |                                                 |
| \\      /  F ield         | OpenFOAM: The Open Source CFD Toolbox           |
|  \\    /   O peration     | Version:  4.1                                   |
|   \\  /    A nd           | Web:      www.OpenFOAM.org                      |
|    \\/     M anipulation  |                                                 |
\*---------------------------------------------------------------------------*/
FoamFile
{
    version     2.0;
    format      ascii;
    class       volScalarField;
    location    "0.16";
    object      Ma;
}
// * * * * * * * * * * * * * * * * * * * * * * * * * * * * * * * * * * * * * //

dimensions      [0 0 0 0 0 0 0];

internalField   nonuniform List<scalar> 
52500
(
3.01896
3.11403
3.0426
2.96089
2.8363
2.59273
2.23569
1.99903
1.87127
1.79899
1.73577
1.68639
1.61029
1.57545
1.61133
1.65672
1.71294
1.706
1.60813
1.2271
0.416636
0.211259
0.100505
0.0537285
0.2334
3.01895
3.114
3.04257
2.96085
2.83625
2.59264
2.23559
1.99896
1.87123
1.79899
1.73579
1.68642
1.61031
1.57549
1.61131
1.65674
1.71325
1.70701
1.61332
1.24293
0.441986
0.205911
0.11
0.0711387
0.242245
3.01898
3.114
3.04256
2.96084
2.83623
2.59262
2.23555
1.99891
1.87119
1.79896
1.73579
1.68643
1.61033
1.57559
1.61127
1.65682
1.71391
1.70912
1.62384
1.27469
0.496355
0.197236
0.129867
0.0952968
0.26013
3.01886
3.11379
3.04234
2.96062
2.83608
2.59264
2.23581
1.99939
1.87172
1.79944
1.73616
1.68664
1.61037
1.57573
1.61116
1.65695
1.71485
1.71233
1.6387
1.31821
0.57648
0.189974
0.158383
0.118785
0.284199
3.01901
3.11383
3.04238
2.96074
2.83632
2.59313
2.23627
1.99976
1.87206
1.79976
1.73643
1.68683
1.61048
1.57591
1.61106
1.65729
1.716
1.71686
1.65706
1.37059
0.681572
0.190341
0.197886
0.143737
0.313316
3.01866
3.11387
3.04235
2.96035
2.83543
2.59164
2.23424
1.997
1.86897
1.79676
1.73407
1.68558
1.61006
1.5755
1.61098
1.65771
1.71638
1.72318
1.67753
1.42874
0.807692
0.206213
0.252033
0.17561
0.3451
3.01861
3.11371
3.04217
2.96022
2.83542
2.59189
2.23467
1.99755
1.86955
1.79727
1.73447
1.68586
1.61043
1.57513
1.61142
1.65799
1.71574
1.73242
1.69838
1.48979
0.946234
0.255944
0.323546
0.218378
0.374068
3.01893
3.11359
3.0421
2.96046
2.83613
2.59312
2.23659
2.0004
1.87279
1.80046
1.73697
1.68723
1.61125
1.57483
1.61204
1.65816
1.71517
1.74105
1.71915
1.55258
1.0912
0.362566
0.410091
0.28634
0.406177
3.01859
3.11367
3.04212
2.96016
2.83535
2.59181
2.23461
1.99752
1.86953
1.79726
1.73444
1.68593
1.61106
1.57402
1.61232
1.65845
1.71447
1.7484
1.74162
1.62058
1.24517
0.53752
0.500712
0.379104
0.455287
3.0186
3.11367
3.04213
2.96015
2.83532
2.59175
2.23452
1.99742
1.86944
1.7972
1.73441
1.68596
1.61134
1.57369
1.61235
1.65937
1.71299
1.7572
1.76037
1.68912
1.4108
0.775502
0.595763
0.49101
0.581189
3.01886
3.11378
3.04231
2.96059
2.83603
2.59254
2.2357
1.99928
1.87164
1.79942
1.73616
1.68666
1.61047
1.57554
1.61138
1.65674
1.71295
1.70599
1.60808
1.22697
0.416379
0.210989
0.099917
0.0526543
0.233158
3.01901
3.11397
3.04254
2.96085
2.83633
2.59288
2.23587
1.9993
1.87157
1.79932
1.73605
1.68658
1.61038
1.57553
1.61133
1.65674
1.71325
1.70699
1.61326
1.2428
0.441734
0.205654
0.109502
0.0703295
0.24202
3.01858
3.11371
3.04219
2.96023
2.83541
2.59185
2.23461
1.99746
1.86945
1.79716
1.73439
1.68576
1.61018
1.5755
1.61123
1.6568
1.7139
1.7091
1.62379
1.27458
0.496125
0.196958
0.129436
0.0947391
0.259838
3.01904
3.11405
3.04262
2.96093
2.83641
2.59295
2.2359
1.99927
1.87149
1.79921
1.73595
1.68651
1.61027
1.57565
1.61112
1.65692
1.71482
1.71229
1.63865
1.3181
0.576253
0.189698
0.158047
0.118344
0.283925
3.01858
3.11371
3.04219
2.96023
2.83542
2.59187
2.23464
1.99749
1.86948
1.79718
1.73441
1.68576
1.61011
1.57569
1.61094
1.65721
1.71596
1.71682
1.65701
1.3705
0.68137
0.19009
0.197624
0.143386
0.313072
3.01902
3.11399
3.04256
2.96089
2.8364
2.59301
2.236
1.99942
1.87165
1.79936
1.73608
1.68659
1.61036
1.5756
1.611
1.65768
1.71634
1.72314
1.67747
1.42866
0.807523
0.205992
0.251808
0.175324
0.344876
3.01887
3.11379
3.04234
2.96063
2.83609
2.59266
2.23581
1.99937
1.8717
1.79943
1.73617
1.68668
1.61066
1.5752
1.61141
1.65795
1.71569
1.73237
1.69832
1.48972
0.946099
0.255748
0.323358
0.218139
0.37391
3.01895
3.114
3.04257
2.96085
2.83625
2.59264
2.2356
1.999
1.87126
1.79901
1.7358
1.68649
1.6108
1.57456
1.61187
1.65804
1.71508
1.74098
1.71909
1.55251
1.09109
0.362404
0.409948
0.286166
0.406053
3.01895
3.114
3.04256
2.96085
2.83624
2.59264
2.23558
1.99895
1.87121
1.79895
1.73575
1.68651
1.61113
1.574
1.61226
1.65838
1.7144
1.74834
1.74156
1.62051
1.24506
0.537407
0.500599
0.37899
0.455171
3.01895
3.11402
3.04259
2.96088
2.8363
2.59273
2.23568
1.99902
1.87126
1.79897
1.73573
1.68652
1.61137
1.57364
1.61227
1.65929
1.71292
1.75714
1.7603
1.68905
1.4107
0.775424
0.595647
0.490945
0.581098
3.01895
3.11402
3.04259
2.96088
2.8363
2.59274
2.23569
1.99904
1.87128
1.799
1.73579
1.6864
1.6103
1.57543
1.61131
1.65669
1.71292
1.70597
1.60806
1.22696
0.416369
0.210992
0.0999165
0.0526545
0.233158
3.01895
3.114
3.04257
2.96085
2.83625
2.59266
2.23561
1.99899
1.87125
1.79901
1.7358
1.68642
1.61031
1.57547
1.61129
1.65672
1.71323
1.70698
1.61325
1.24279
0.441727
0.205656
0.109501
0.0703298
0.24202
3.01896
3.11401
3.04258
2.96086
2.83627
2.59268
2.23564
1.99904
1.8713
1.79905
1.73583
1.68643
1.61028
1.57553
1.61122
1.65677
1.71387
1.70908
1.62377
1.27456
0.496112
0.196961
0.129436
0.0947393
0.259838
3.01887
3.11382
3.04237
2.96067
2.83617
2.59278
2.23594
1.99947
1.87177
1.79947
1.73618
1.68663
1.61037
1.5757
1.61113
1.65692
1.71482
1.71229
1.63865
1.3181
0.57625
0.189699
0.158047
0.118344
0.283925
3.01904
3.11403
3.04261
2.96095
2.83646
2.59305
2.23604
1.99943
1.87165
1.79935
1.73606
1.68656
1.61026
1.57575
1.61095
1.6572
1.71594
1.71681
1.65699
1.37048
0.68136
0.190091
0.197624
0.143386
0.313072
3.01863
3.11391
3.04241
2.96042
2.8355
2.59173
2.23424
1.9969
1.86883
1.79657
1.73392
1.68547
1.61001
1.57543
1.61092
1.65765
1.71633
1.72314
1.67747
1.42866
0.807524
0.205992
0.251808
0.175325
0.344876
3.01904
3.11403
3.04261
2.96094
2.83645
2.59304
2.23603
1.99941
1.87163
1.79933
1.73604
1.6866
1.61057
1.57515
1.61138
1.65794
1.71568
1.73237
1.69831
1.48971
0.946096
0.255747
0.323358
0.218139
0.37391
3.01886
3.11379
3.04233
2.96062
2.83608
2.59264
2.23579
1.99936
1.8717
1.79943
1.73616
1.68672
1.61096
1.57464
1.61192
1.65807
1.7151
1.74099
1.7191
1.55251
1.09109
0.362405
0.409947
0.286166
0.406053
3.01896
3.11402
3.04258
2.96086
2.83627
2.59266
2.23562
1.99903
1.87128
1.79902
1.7358
1.68654
1.61113
1.574
1.61227
1.65838
1.7144
1.74834
1.74156
1.62051
1.24506
0.537408
0.500599
0.37899
0.455171
3.01886
3.11379
3.04233
2.96062
2.83608
2.59264
2.23579
1.99936
1.8717
1.79942
1.73613
1.68678
1.61154
1.57374
1.61233
1.65933
1.71294
1.75715
1.76032
1.68906
1.4107
0.775427
0.595648
0.490945
0.581098
3.01895
3.11402
3.0426
2.96089
2.83632
2.59277
2.23573
1.9991
1.87133
1.79905
1.73582
1.68642
1.61031
1.57543
1.61131
1.65669
1.71292
1.70597
1.60806
1.22696
0.416368
0.210991
0.0999165
0.0526551
0.233158
3.01895
3.11402
3.0426
2.96089
2.83632
2.59277
2.23573
1.9991
1.87133
1.79905
1.73582
1.68642
1.6103
1.57546
1.61128
1.65671
1.71322
1.70697
1.61325
1.24279
0.441725
0.205656
0.109501
0.0703301
0.24202
3.01895
3.11402
3.0426
2.96089
2.83632
2.59277
2.23573
1.9991
1.87133
1.79905
1.73583
1.68642
1.61027
1.57552
1.61121
1.65676
1.71386
1.70908
1.62376
1.27456
0.496111
0.196961
0.129436
0.0947394
0.259838
3.01895
3.11402
3.04259
2.96089
2.83632
2.59277
2.23573
1.9991
1.87133
1.79905
1.73583
1.68641
1.61023
1.57562
1.61108
1.65689
1.7148
1.71228
1.63864
1.31809
0.576246
0.1897
0.158047
0.118345
0.283925
3.01895
3.11402
3.0426
2.96089
2.83632
2.59277
2.23573
1.9991
1.87133
1.79904
1.73583
1.68641
1.61019
1.57571
1.61092
1.65718
1.71592
1.7168
1.65698
1.37048
0.681357
0.190091
0.197624
0.143386
0.313072
3.01895
3.11402
3.0426
2.96089
2.83632
2.59277
2.23573
1.9991
1.87133
1.79904
1.73583
1.68643
1.61028
1.57555
1.61096
1.65766
1.71632
1.72312
1.67746
1.42865
0.807517
0.205992
0.251808
0.175324
0.344876
3.01895
3.11402
3.0426
2.96089
2.83632
2.59277
2.23573
1.9991
1.87133
1.79904
1.73582
1.68645
1.61051
1.57511
1.61135
1.65791
1.71566
1.73236
1.69831
1.48971
0.946091
0.255747
0.323358
0.218139
0.37391
3.01895
3.11402
3.04259
2.96089
2.83632
2.59277
2.23573
1.9991
1.87133
1.79904
1.73581
1.68649
1.6108
1.57455
1.61186
1.65803
1.71507
1.74097
1.71908
1.5525
1.09108
0.362403
0.409948
0.286166
0.406053
3.01895
3.11402
3.0426
2.96089
2.83632
2.59277
2.23573
1.9991
1.87133
1.79903
1.7358
1.68652
1.61113
1.57399
1.61225
1.65837
1.71439
1.74833
1.74155
1.62051
1.24506
0.537406
0.500599
0.37899
0.455171
3.01895
3.11402
3.04259
2.96089
2.83632
2.59277
2.23573
1.9991
1.87133
1.79903
1.73578
1.68655
1.61139
1.57364
1.61227
1.65929
1.71291
1.75714
1.7603
1.68905
1.4107
0.775424
0.595647
0.490945
0.581098
3.01899
3.11405
3.04263
2.96093
2.83636
2.59286
2.23579
1.99909
1.87131
1.79901
1.7358
1.68642
1.61035
1.57547
1.61134
1.65672
1.71294
1.70598
1.60807
1.22696
0.41637
0.211007
0.0998819
0.0526888
0.233141
3.01899
3.11405
3.04262
2.96092
2.83636
2.59286
2.23579
1.9991
1.87131
1.79901
1.7358
1.68642
1.61034
1.5755
1.61131
1.65673
1.71324
1.70699
1.61326
1.24279
0.441735
0.205655
0.109444
0.0703631
0.242003
3.01897
3.11404
3.04261
2.96091
2.83633
2.59278
2.23575
1.99914
1.87138
1.7991
1.73586
1.68644
1.61028
1.57553
1.61122
1.65677
1.71386
1.70908
1.62376
1.27456
0.496113
0.196974
0.129426
0.0947048
0.259925
3.01897
3.11403
3.04261
2.9609
2.83633
2.59278
2.23575
1.99914
1.87138
1.7991
1.73587
1.68643
1.61023
1.57562
1.61109
1.6569
1.7148
1.71228
1.63864
1.31808
0.576239
0.189723
0.158063
0.118301
0.284025
3.01899
3.11404
3.04262
2.96092
2.83636
2.59285
2.23579
1.9991
1.87132
1.79901
1.73581
1.68642
1.61023
1.57574
1.61095
1.6572
1.71594
1.71681
1.65699
1.37048
0.681361
0.190113
0.197628
0.143368
0.313082
3.01897
3.11403
3.04261
2.96091
2.83634
2.59282
2.23576
1.99908
1.8713
1.79899
1.73579
1.68641
1.6103
1.57558
1.61099
1.65768
1.71634
1.72314
1.67747
1.42865
0.807523
0.206001
0.251819
0.175308
0.34486
3.01899
3.11405
3.04263
2.96092
2.83636
2.59285
2.23579
1.9991
1.87132
1.799
1.73578
1.68644
1.61052
1.57514
1.61138
1.65794
1.71569
1.73237
1.69832
1.48972
0.946096
0.255751
0.323374
0.218127
0.373895
3.01896
3.11403
3.04261
2.9609
2.83633
2.59277
2.23574
1.99913
1.87136
1.79907
1.73583
1.68649
1.6108
1.57455
1.61187
1.65804
1.71508
1.74098
1.71909
1.55251
1.09109
0.362408
0.40996
0.286159
0.406044
3.01898
3.11404
3.04262
2.96092
2.83635
2.59284
2.23577
1.99907
1.87129
1.79898
1.73576
1.68652
1.61116
1.57403
1.61229
1.65839
1.71441
1.74835
1.74157
1.62052
1.24507
0.537413
0.500605
0.378986
0.455166
3.01898
3.11403
3.04261
2.96091
2.83634
2.59282
2.23575
1.99904
1.87126
1.79896
1.73573
1.68654
1.61142
1.57368
1.6123
1.65931
1.71293
1.75715
1.76031
1.68906
1.41071
0.775434
0.595648
0.490943
0.581095
3.01895
3.11402
3.04259
2.96089
2.83631
2.59277
2.23573
1.99909
1.87133
1.79904
1.73582
1.68642
1.61031
1.57543
1.61131
1.65669
1.71292
1.70597
1.60806
1.22696
0.416376
0.210988
0.0999176
0.0526529
0.233158
3.01895
3.11402
3.04259
2.96089
2.83631
2.59277
2.23573
1.99909
1.87133
1.79905
1.73583
1.68642
1.6103
1.57546
1.61128
1.65671
1.71322
1.70697
1.61325
1.24279
0.441732
0.205653
0.109502
0.0703287
0.24202
3.01895
3.11402
3.04259
2.96089
2.83632
2.59277
2.23573
1.9991
1.87133
1.79905
1.73583
1.68642
1.61027
1.57552
1.61121
1.65676
1.71386
1.70908
1.62377
1.27457
0.496116
0.196958
0.129436
0.0947384
0.259837
3.01895
3.11402
3.04259
2.96088
2.83631
2.59276
2.23572
1.99909
1.87133
1.79904
1.73582
1.6864
1.61022
1.57561
1.61109
1.6569
1.7148
1.71228
1.63864
1.31809
0.576251
0.189697
0.158047
0.118344
0.283924
3.01895
3.11402
3.04259
2.96089
2.83632
2.59277
2.23573
1.9991
1.87133
1.79904
1.73583
1.68641
1.61019
1.57571
1.61092
1.65718
1.71592
1.7168
1.65698
1.37048
0.681359
0.190089
0.197623
0.143385
0.31307
3.01895
3.11402
3.04259
2.96088
2.83631
2.59276
2.23572
1.99909
1.87133
1.79903
1.73582
1.68642
1.61027
1.57554
1.61096
1.65766
1.71632
1.72313
1.67746
1.42865
0.807518
0.20599
0.251808
0.175325
0.344873
3.01895
3.11402
3.04259
2.96089
2.83632
2.59277
2.23573
1.99909
1.87133
1.79904
1.73582
1.68645
1.6105
1.57511
1.61135
1.65791
1.71566
1.73236
1.69831
1.48971
0.946092
0.255747
0.323359
0.218141
0.373911
3.01895
3.11402
3.04259
2.96089
2.83631
2.59276
2.23572
1.99909
1.87132
1.79903
1.7358
1.68648
1.6108
1.57455
1.61186
1.65803
1.71507
1.74097
1.71908
1.5525
1.09108
0.362403
0.409948
0.286167
0.406057
3.01895
3.11402
3.04259
2.96089
2.83631
2.59276
2.23571
1.99907
1.87131
1.79901
1.73578
1.68651
1.61113
1.57399
1.61225
1.65837
1.71439
1.74833
1.74155
1.62051
1.24506
0.537406
0.5006
0.37899
0.455173
3.01895
3.11402
3.04259
2.96089
2.83631
2.59275
2.2357
1.99906
1.87129
1.799
1.73576
1.68654
1.61138
1.57365
1.61227
1.65929
1.71292
1.75714
1.7603
1.68905
1.4107
0.775425
0.595648
0.490945
0.5811
3.01895
3.11402
3.0426
2.96089
2.83632
2.59277
2.23573
1.9991
1.87133
1.79905
1.73582
1.68642
1.61031
1.57543
1.61131
1.65669
1.71292
1.70597
1.60806
1.22696
0.416368
0.210991
0.0999165
0.0526551
0.233158
3.01895
3.11402
3.0426
2.96089
2.83632
2.59277
2.23573
1.9991
1.87133
1.79905
1.73582
1.68642
1.6103
1.57546
1.61128
1.65671
1.71322
1.70697
1.61325
1.24279
0.441725
0.205656
0.109501
0.0703302
0.24202
3.01895
3.11402
3.0426
2.96089
2.83632
2.59277
2.23573
1.9991
1.87133
1.79905
1.73583
1.68642
1.61027
1.57552
1.61121
1.65676
1.71386
1.70908
1.62376
1.27456
0.496111
0.196961
0.129436
0.0947395
0.259838
3.01895
3.11402
3.04259
2.96089
2.83632
2.59277
2.23573
1.9991
1.87133
1.79905
1.73583
1.68641
1.61023
1.57562
1.61108
1.65689
1.7148
1.71228
1.63864
1.31809
0.576246
0.1897
0.158047
0.118345
0.283925
3.01895
3.11402
3.0426
2.96089
2.83632
2.59277
2.23573
1.9991
1.87133
1.79904
1.73583
1.68641
1.61019
1.57571
1.61092
1.65718
1.71592
1.7168
1.65698
1.37048
0.681357
0.190091
0.197624
0.143386
0.313072
3.01895
3.11402
3.0426
2.96089
2.83632
2.59277
2.23573
1.9991
1.87133
1.79904
1.73583
1.68643
1.61028
1.57555
1.61096
1.65766
1.71632
1.72312
1.67746
1.42865
0.807516
0.205992
0.251808
0.175324
0.344876
3.01895
3.11402
3.0426
2.96089
2.83632
2.59277
2.23573
1.9991
1.87133
1.79904
1.73582
1.68645
1.61051
1.57511
1.61135
1.65791
1.71566
1.73236
1.69831
1.48971
0.946091
0.255747
0.323358
0.218139
0.37391
3.01895
3.11402
3.04259
2.96089
2.83632
2.59277
2.23573
1.9991
1.87133
1.79903
1.73581
1.68649
1.6108
1.57455
1.61186
1.65803
1.71507
1.74097
1.71908
1.5525
1.09108
0.362403
0.409948
0.286166
0.406053
3.01895
3.11402
3.0426
2.96089
2.83632
2.59277
2.23573
1.9991
1.87133
1.79903
1.7358
1.68652
1.61113
1.57399
1.61225
1.65837
1.71439
1.74833
1.74155
1.62051
1.24506
0.537406
0.500599
0.37899
0.455171
3.01895
3.11402
3.04259
2.96089
2.83632
2.59277
2.23573
1.9991
1.87133
1.79903
1.73578
1.68655
1.61139
1.57364
1.61227
1.65929
1.71291
1.75714
1.7603
1.68905
1.4107
0.775423
0.595647
0.490945
0.581098
3.01895
3.11402
3.04259
2.96088
2.8363
2.59274
2.23569
1.99904
1.87128
1.799
1.73579
1.6864
1.6103
1.57543
1.61131
1.65669
1.71292
1.70597
1.60806
1.22696
0.416369
0.210992
0.0999165
0.0526545
0.233158
3.01895
3.114
3.04257
2.96085
2.83625
2.59266
2.23561
1.99899
1.87125
1.79901
1.7358
1.68642
1.61031
1.57547
1.61129
1.65672
1.71323
1.70698
1.61325
1.24279
0.441727
0.205656
0.109501
0.0703298
0.24202
3.01896
3.11401
3.04258
2.96086
2.83627
2.59268
2.23564
1.99904
1.8713
1.79905
1.73583
1.68643
1.61028
1.57553
1.61122
1.65677
1.71387
1.70908
1.62377
1.27456
0.496112
0.196961
0.129436
0.0947393
0.259838
3.01887
3.11382
3.04237
2.96067
2.83617
2.59278
2.23594
1.99947
1.87177
1.79947
1.73618
1.68663
1.61037
1.5757
1.61113
1.65692
1.71482
1.71229
1.63865
1.3181
0.57625
0.189699
0.158047
0.118344
0.283925
3.01904
3.11403
3.04261
2.96095
2.83646
2.59305
2.23604
1.99943
1.87165
1.79935
1.73606
1.68656
1.61026
1.57575
1.61095
1.6572
1.71594
1.71681
1.65699
1.37048
0.68136
0.190091
0.197624
0.143386
0.313072
3.01863
3.11391
3.04241
2.96042
2.8355
2.59173
2.23424
1.9969
1.86883
1.79657
1.73392
1.68547
1.61001
1.57543
1.61092
1.65765
1.71633
1.72314
1.67747
1.42866
0.807524
0.205992
0.251808
0.175325
0.344876
3.01904
3.11403
3.04261
2.96094
2.83645
2.59304
2.23603
1.99941
1.87163
1.79933
1.73604
1.6866
1.61057
1.57515
1.61138
1.65794
1.71568
1.73237
1.69831
1.48971
0.946096
0.255747
0.323358
0.218139
0.37391
3.01886
3.11379
3.04233
2.96062
2.83608
2.59264
2.23579
1.99936
1.8717
1.79943
1.73616
1.68672
1.61096
1.57464
1.61192
1.65807
1.7151
1.74099
1.7191
1.55251
1.09109
0.362405
0.409947
0.286166
0.406053
3.01896
3.11402
3.04258
2.96086
2.83627
2.59266
2.23562
1.99903
1.87128
1.79902
1.7358
1.68654
1.61113
1.574
1.61227
1.65838
1.7144
1.74834
1.74156
1.62051
1.24506
0.537408
0.500599
0.37899
0.455171
3.01886
3.11379
3.04233
2.96062
2.83608
2.59264
2.23579
1.99936
1.8717
1.79942
1.73613
1.68678
1.61154
1.57374
1.61233
1.65933
1.71294
1.75715
1.76032
1.68906
1.4107
0.775427
0.595648
0.490945
0.581098
3.01886
3.11378
3.04231
2.96059
2.83603
2.59254
2.2357
1.99928
1.87164
1.79942
1.73616
1.68666
1.61047
1.57554
1.61138
1.65674
1.71295
1.70599
1.60808
1.22697
0.416379
0.210989
0.099917
0.0526543
0.233158
3.01901
3.11397
3.04254
2.96085
2.83633
2.59288
2.23587
1.9993
1.87157
1.79932
1.73605
1.68658
1.61038
1.57553
1.61133
1.65674
1.71325
1.70699
1.61326
1.2428
0.441735
0.205654
0.109502
0.0703294
0.24202
3.01858
3.11371
3.04219
2.96023
2.83541
2.59185
2.23461
1.99746
1.86945
1.79716
1.73439
1.68576
1.61018
1.5755
1.61123
1.6568
1.7139
1.7091
1.62379
1.27458
0.496125
0.196958
0.129436
0.0947391
0.259838
3.01904
3.11405
3.04262
2.96093
2.83641
2.59295
2.2359
1.99927
1.87149
1.79921
1.73595
1.68651
1.61027
1.57565
1.61112
1.65692
1.71482
1.71229
1.63865
1.3181
0.576254
0.189698
0.158047
0.118344
0.283925
3.01858
3.11371
3.04219
2.96023
2.83542
2.59187
2.23464
1.99749
1.86949
1.79718
1.73441
1.68576
1.61011
1.57569
1.61094
1.65721
1.71596
1.71682
1.65701
1.3705
0.68137
0.19009
0.197624
0.143386
0.313072
3.01902
3.11399
3.04256
2.96089
2.8364
2.593
2.236
1.99942
1.87165
1.79936
1.73608
1.68659
1.61036
1.5756
1.611
1.65768
1.71634
1.72314
1.67747
1.42866
0.807523
0.205992
0.251808
0.175324
0.344876
3.01887
3.11379
3.04234
2.96063
2.83609
2.59266
2.23581
1.99937
1.8717
1.79943
1.73617
1.68668
1.61066
1.5752
1.61141
1.65795
1.71569
1.73237
1.69832
1.48972
0.946099
0.255748
0.323358
0.218139
0.37391
3.01895
3.11401
3.04257
2.96085
2.83625
2.59265
2.23561
1.999
1.87126
1.79901
1.7358
1.68649
1.6108
1.57456
1.61187
1.65804
1.71508
1.74098
1.71909
1.55251
1.09109
0.362405
0.409948
0.286166
0.406053
3.01895
3.114
3.04256
2.96085
2.83624
2.59264
2.23558
1.99895
1.87121
1.79895
1.73575
1.68651
1.61113
1.574
1.61226
1.65838
1.7144
1.74834
1.74156
1.62051
1.24506
0.537408
0.500599
0.37899
0.455171
3.01895
3.11402
3.04259
2.96088
2.8363
2.59273
2.23568
1.99902
1.87126
1.79897
1.73573
1.68653
1.61137
1.57364
1.61227
1.65929
1.71292
1.75714
1.7603
1.68905
1.4107
0.775424
0.595647
0.490945
0.581098
3.01896
3.114
3.04256
2.96083
2.83621
2.59255
2.23553
1.99894
1.87123
1.79901
1.7358
1.68643
1.61031
1.57547
1.61136
1.65673
1.71295
1.70601
1.60813
1.22709
0.416635
0.211288
0.100521
0.0536276
0.233491
3.01892
3.11384
3.04239
2.9607
2.8362
2.59283
2.23596
1.99942
1.87171
1.79941
1.73613
1.68664
1.61048
1.57559
1.61138
1.65678
1.71329
1.70703
1.61333
1.24294
0.441998
0.205909
0.109956
0.071137
0.24223
3.01904
3.11402
3.04259
2.96091
2.83639
2.59293
2.23589
1.99927
1.87153
1.79928
1.73601
1.68656
1.61035
1.57561
1.61128
1.65682
1.71391
1.70913
1.62384
1.27469
0.496359
0.197245
0.129848
0.0952963
0.260117
3.01868
3.11391
3.04241
2.9604
2.83546
2.59169
2.23414
1.99669
1.86863
1.7964
1.73382
1.68546
1.61006
1.57561
1.61114
1.65697
1.71488
1.71235
1.63873
1.31822
0.576485
0.189982
0.158387
0.11878
0.284195
3.01895
3.11382
3.04236
2.9607
2.83624
2.59295
2.23616
1.99975
1.87206
1.79976
1.73641
1.6868
1.61042
1.57587
1.61103
1.65727
1.71599
1.71686
1.65705
1.37058
0.681568
0.190348
0.197894
0.143734
0.313315
3.01892
3.11363
3.04214
2.96048
2.8361
2.59303
2.23643
2.00014
1.87252
1.8002
1.73678
1.68706
1.6107
1.57583
1.61115
1.6578
1.71643
1.72321
1.67754
1.42875
0.807694
0.206216
0.252039
0.175609
0.3451
3.01868
3.11389
3.04237
2.96039
2.83551
2.59178
2.23436
1.9971
1.86905
1.79682
1.73412
1.68565
1.6103
1.57506
1.61137
1.65796
1.71572
1.73241
1.69836
1.48979
0.946233
0.255945
0.32355
0.218378
0.374067
3.01863
3.11368
3.04213
2.96015
2.83531
2.5917
2.23448
1.99742
1.86949
1.7973
1.73453
1.68596
1.61078
1.57461
1.61195
1.65812
1.71515
1.74104
1.71916
1.55259
1.09121
0.362568
0.410092
0.28634
0.406176
3.01898
3.11381
3.04236
2.96071
2.8363
2.59309
2.23632
1.99994
1.87224
1.79991
1.73649
1.68698
1.61138
1.57416
1.61238
1.65846
1.71446
1.74839
1.74161
1.62057
1.24517
0.537521
0.500711
0.379104
0.455285
3.01857
3.11349
3.04193
2.95999
2.83525
2.59195
2.23488
1.9978
1.86987
1.79754
1.73469
1.68616
1.61155
1.57384
1.61246
1.65945
1.71305
1.75724
1.7604
1.68914
1.41081
0.775509
0.595761
0.49101
0.581189
3.01897
3.11377
3.0423
2.96062
2.83615
2.59282
2.23599
1.99958
1.87195
1.79971
1.73636
1.68698
1.61169
1.57404
1.61152
1.66148
1.71077
1.76416
1.77777
1.74784
1.57
1.07057
0.721084
0.612809
0.78157
3.01856
3.11365
3.0421
2.96011
2.83523
2.59155
2.23431
1.9972
1.86926
1.79703
1.73426
1.68585
1.6111
1.57454
1.6104
1.66258
1.71151
1.76301
1.79392
1.78982
1.69193
1.36356
0.918662
0.744377
0.919089
3.01891
3.11372
3.04225
2.96054
2.83602
2.59257
2.23577
1.99942
1.87182
1.79963
1.7363
1.68691
1.61136
1.57485
1.61047
1.66214
1.71348
1.76081
1.80733
1.81626
1.78344
1.59837
1.18327
0.932159
1.04043
3.01886
3.11354
3.04205
2.96038
2.83596
2.59276
2.23614
1.99993
1.87238
1.80013
1.73671
1.68716
1.61154
1.57484
1.61078
1.66175
1.714
1.76203
1.80684
1.83936
1.84112
1.7707
1.52565
1.18394
1.152
3.01856
3.11362
3.04206
2.96006
2.83518
2.59151
2.23431
1.99728
1.86934
1.79713
1.73434
1.68589
1.61107
1.57461
1.61063
1.66185
1.7137
1.76291
1.80698
1.84658
1.87065
1.86215
1.77269
1.50583
1.31625
3.01866
3.11365
3.0421
2.96015
2.83537
2.5919
2.23469
1.99762
1.86966
1.79742
1.73457
1.68604
1.61114
1.57467
1.61067
1.66185
1.71383
1.76278
1.80773
1.84715
1.88101
1.89998
1.88908
1.80306
1.60426
3.01858
3.11348
3.04191
2.96
2.83533
2.5921
2.2351
1.99816
1.87021
1.79789
1.73492
1.68625
1.61127
1.57472
1.6107
1.66187
1.71382
1.76287
1.80767
1.84782
1.8822
1.91055
1.92672
1.92036
1.86163
3.01858
3.11345
3.04188
2.95996
2.83528
2.59203
2.23503
1.99811
1.87019
1.7979
1.73496
1.68629
1.6113
1.57474
1.61071
1.66187
1.71382
1.76286
1.80775
1.8478
1.88279
1.91199
1.93518
1.94942
1.94879
3.01864
3.11362
3.04206
2.9601
2.83531
2.5918
2.23463
1.9976
1.86967
1.79746
1.7346
1.68607
1.61116
1.57468
1.61068
1.66186
1.71382
1.76286
1.80774
1.84785
1.88281
1.91242
1.93649
1.95487
1.9667
3.0185
3.11343
3.04185
2.95988
2.83509
2.59163
2.23462
1.99774
1.86986
1.79763
1.73476
1.68617
1.61124
1.57471
1.61069
1.66186
1.71382
1.76286
1.80774
1.84785
1.88283
1.91247
1.93675
1.95582
1.96986
3.01891
3.11354
3.04202
2.96036
2.83598
2.59288
2.23631
2.00012
1.87257
1.80032
1.73685
1.68725
1.61159
1.57488
1.61077
1.66189
1.71383
1.76286
1.80774
1.84785
1.88283
1.91248
1.9368
1.95598
1.97043
3.01857
3.11362
3.04206
2.96006
2.83518
2.5915
2.23425
1.99718
1.86927
1.7971
1.73434
1.68591
1.61108
1.57464
1.61066
1.66184
1.71381
1.76285
1.80774
1.84785
1.88283
1.91248
1.93681
1.95602
1.97052
3.01858
3.11362
3.04206
2.96007
2.83519
2.59153
2.23428
1.99721
1.8693
1.79713
1.73437
1.68594
1.6111
1.57464
1.61066
1.66184
1.7138
1.76285
1.80774
1.84785
1.88283
1.91248
1.93681
1.95602
1.97054
3.01892
3.11354
3.04203
2.96037
2.83599
2.59289
2.23633
2.00015
1.8726
1.80034
1.73686
1.68725
1.61158
1.57488
1.61077
1.66189
1.71382
1.76286
1.80774
1.84785
1.88283
1.91248
1.93681
1.95602
1.97054
3.01851
3.11345
3.04188
2.95991
2.83514
2.59173
2.23472
1.9978
1.86989
1.79761
1.73471
1.68611
1.6112
1.57468
1.61068
1.66185
1.71381
1.76286
1.80774
1.84785
1.88283
1.91248
1.93681
1.95602
1.97054
3.01866
3.11365
3.0421
2.96015
2.83538
2.5919
2.23468
1.99759
1.86964
1.79741
1.73457
1.68606
1.61116
1.57467
1.61068
1.66185
1.71381
1.76285
1.80774
1.84785
1.88283
1.91248
1.93681
1.95602
1.97054
3.01866
3.11364
3.04209
2.96015
2.83537
2.59189
2.23467
1.99758
1.86963
1.79741
1.73457
1.68606
1.61116
1.57467
1.61068
1.66185
1.71381
1.76285
1.80774
1.84785
1.88283
1.91248
1.93681
1.95602
1.97054
3.01851
3.11344
3.04186
2.95988
2.83509
2.59164
2.2346
1.99768
1.86981
1.7976
1.73474
1.68616
1.61124
1.57471
1.61069
1.66186
1.71382
1.76286
1.80774
1.84785
1.88283
1.91248
1.93681
1.95602
1.97054
3.0189
3.11352
3.042
2.96033
2.83594
2.59282
2.23628
2.00015
1.87261
1.80037
1.73689
1.68728
1.6116
1.57489
1.61078
1.66189
1.71383
1.76286
1.80774
1.84785
1.88283
1.91248
1.93681
1.95602
1.97054
3.0185
3.11341
3.04183
2.95984
2.83504
2.59155
2.23451
1.99763
1.86979
1.79759
1.73475
1.68617
1.61125
1.57472
1.6107
1.66186
1.71382
1.76286
1.80774
1.84785
1.88283
1.91248
1.93681
1.95602
1.97054
3.01866
3.11365
3.0421
2.96015
2.83538
2.59191
2.23471
1.99763
1.86967
1.79742
1.73455
1.68604
1.61113
1.57466
1.61068
1.66185
1.71381
1.76286
1.80774
1.84785
1.88283
1.91248
1.93681
1.95602
1.97054
3.01857
3.11343
3.04186
2.95992
2.83521
2.59191
2.23489
1.99795
1.87006
1.79781
1.7349
1.68627
1.6113
1.57475
1.61072
1.66187
1.71383
1.76286
1.80775
1.84786
1.88283
1.91248
1.93681
1.95602
1.97054
3.01866
3.11365
3.0421
2.96015
2.83538
2.59191
2.23471
1.99762
1.86966
1.79742
1.73455
1.68604
1.61113
1.57466
1.61068
1.66185
1.71381
1.76286
1.80774
1.84785
1.88283
1.91248
1.93681
1.95602
1.97054
3.0185
3.11341
3.04183
2.95984
2.83502
2.59153
2.23449
1.99761
1.86977
1.79758
1.73475
1.68617
1.61125
1.57472
1.6107
1.66186
1.71382
1.76286
1.80774
1.84785
1.88283
1.91248
1.93681
1.95602
1.97054
3.0189
3.11351
3.04199
2.96033
2.83594
2.59282
2.23628
2.00015
1.87261
1.80038
1.7369
1.68729
1.61161
1.57489
1.61078
1.66189
1.71383
1.76286
1.80774
1.84785
1.88283
1.91248
1.93681
1.95602
1.97054
3.01849
3.11341
3.04182
2.95983
2.83501
2.59151
2.23448
1.99761
1.86976
1.79757
1.73472
1.68615
1.61123
1.57472
1.6107
1.66187
1.71382
1.76286
1.80775
1.84786
1.88283
1.91248
1.93681
1.95602
1.97054
3.01867
3.11365
3.0421
2.96016
2.83539
2.59193
2.23472
1.99764
1.86968
1.79745
1.73459
1.68607
1.61115
1.57467
1.61068
1.66185
1.71381
1.76286
1.80774
1.84785
1.88283
1.91248
1.93681
1.95602
1.97054
3.01856
3.11342
3.04185
2.95992
2.8352
2.5919
2.23489
1.99798
1.87008
1.79782
1.73489
1.68625
1.61128
1.57474
1.61072
1.66187
1.71383
1.76287
1.80775
1.84786
1.88284
1.91248
1.93681
1.95602
1.97054
3.01866
3.11366
3.04211
2.96016
2.83539
2.59193
2.23473
1.99766
1.86969
1.79744
1.73457
1.68604
1.61113
1.57466
1.61067
1.66185
1.71381
1.76286
1.80774
1.84785
1.88283
1.91248
1.93681
1.95602
1.97054
3.01851
3.11343
3.04186
2.95988
2.83509
2.59164
2.23463
1.99774
1.86986
1.79762
1.73475
1.68616
1.61124
1.57471
1.61069
1.66186
1.71381
1.76286
1.80774
1.84785
1.88283
1.91248
1.93681
1.95602
1.97054
3.01892
3.11354
3.04203
2.96037
2.836
2.59292
2.23635
2.00017
1.87262
1.80036
1.73689
1.68728
1.6116
1.57488
1.61077
1.66189
1.71382
1.76286
1.80774
1.84785
1.88283
1.91248
1.93681
1.95602
1.97054
3.01858
3.11363
3.04207
2.96008
2.83521
2.59155
2.23429
1.99722
1.8693
1.79714
1.73438
1.68595
1.61111
1.57464
1.61066
1.66184
1.7138
1.76285
1.80774
1.84785
1.88283
1.91248
1.93681
1.95602
1.97054
3.01859
3.11364
3.04209
2.96011
2.83527
2.59167
2.23443
1.99734
1.86939
1.79717
1.73438
1.68593
1.61109
1.57462
1.61065
1.66183
1.7138
1.76284
1.80773
1.84785
1.88283
1.91248
1.93681
1.95602
1.97054
3.01893
3.11357
3.04206
2.96041
2.83604
2.59294
2.23637
2.00017
1.87261
1.80033
1.73686
1.68725
1.61159
1.57487
1.61076
1.66188
1.71382
1.76285
1.80773
1.84785
1.88283
1.91248
1.93681
1.95602
1.97054
3.0186
3.11367
3.04212
2.96016
2.83534
2.59179
2.23456
1.99744
1.86945
1.7972
1.73438
1.68592
1.61107
1.57461
1.61063
1.66182
1.71379
1.76284
1.80773
1.84784
1.88283
1.91248
1.93681
1.95602
1.97054
3.01859
3.11365
3.0421
2.96011
2.83524
2.5916
2.23436
1.99727
1.86934
1.79713
1.73435
1.68591
1.61108
1.57463
1.61065
1.66183
1.7138
1.76285
1.80773
1.84785
1.88283
1.91248
1.93681
1.95602
1.97054
3.01897
3.11376
3.04229
2.96061
2.83614
2.5928
2.23601
1.99964
1.872
1.79977
1.7364
1.68696
1.6114
1.57477
1.61071
1.66185
1.7138
1.76284
1.80773
1.84784
1.88282
1.91248
1.93681
1.95602
1.97054
3.01851
3.11345
3.04189
2.95994
2.8352
2.59183
2.23483
1.99792
1.87001
1.79772
1.73481
1.68617
1.61124
1.57469
1.61068
1.66184
1.71381
1.76285
1.80774
1.84785
1.88283
1.91248
1.93681
1.95602
1.97054
3.01898
3.11376
3.0423
2.96063
2.83617
2.59288
2.23605
1.9996
1.87194
1.79969
1.73634
1.68694
1.61143
1.5748
1.61072
1.66186
1.71381
1.76285
1.80773
1.84784
1.88283
1.91248
1.93681
1.95602
1.97054
3.01861
3.11368
3.04213
2.96016
2.83531
2.59172
2.23448
1.99738
1.86941
1.79717
1.73436
1.6859
1.61107
1.57462
1.61064
1.66183
1.7138
1.76285
1.80773
1.84785
1.88283
1.91248
1.93681
1.95602
1.97054
3.01895
3.114
3.04257
2.96085
2.83625
2.59265
2.23559
1.99896
1.87122
1.79896
1.73573
1.68654
1.61143
1.57385
1.61139
1.66138
1.71069
1.7641
1.77772
1.74779
1.56993
1.07047
0.72097
0.61277
0.781515
3.01896
3.11401
3.04257
2.96086
2.83626
2.59266
2.23562
1.99901
1.87127
1.799
1.73575
1.68652
1.61119
1.57452
1.61034
1.66251
1.71144
1.76295
1.79387
1.78977
1.69187
1.3635
0.918563
0.744335
0.91905
3.01887
3.11381
3.04237
2.96067
2.83616
2.59276
2.23591
1.99944
1.87174
1.79943
1.7361
1.68672
1.61125
1.57474
1.61038
1.66207
1.71342
1.76076
1.80729
1.81622
1.78339
1.59831
1.18316
0.932106
1.0404
3.01904
3.11401
3.04258
2.9609
2.83639
2.59295
2.23591
1.9993
1.87156
1.79928
1.73598
1.68667
1.61122
1.57463
1.61064
1.66165
1.71392
1.76197
1.80679
1.83931
1.84108
1.77065
1.52557
1.18387
1.15196
3.01861
3.11389
3.04238
2.96038
2.83546
2.59164
2.23418
1.99688
1.86882
1.79657
1.73388
1.68557
1.61087
1.57446
1.61052
1.66177
1.71363
1.76285
1.80693
1.84654
1.87061
1.86211
1.77263
1.50575
1.31619
3.01896
3.11383
3.04238