/*--------------------------------*- C++ -*----------------------------------*\
| =========                 |                                                 |
| \\      /  F ield         | OpenFOAM: The Open Source CFD Toolbox           |
|  \\    /   O peration     | Version:  4.1                                   |
|   \\  /    A nd           | Web:      www.OpenFOAM.org                      |
|    \\/     M anipulation  |                                                 |
\*---------------------------------------------------------------------------*/
FoamFile
{
    version     2.0;
    format      ascii;
    class       volScalarField;
    location    "0.16";
    object      p;
}
// * * * * * * * * * * * * * * * * * * * * * * * * * * * * * * * * * * * * * //

dimensions      [1 -1 -2 0 0 0 0];

internalField   nonuniform List<scalar> 
52500
(
0.0944298
0.0731232
0.0741307
0.0766633
0.0818626
0.0927619
0.115201
0.152564
0.185909
0.208113
0.237043
0.291614
0.379456
0.460996
0.523746
0.588321
0.650879
0.740051
0.944538
1.53292
3.66498
9.86322
9.65371
6.43229
7.61596
0.0944301
0.0731252
0.0741331
0.0766666
0.081868
0.0927715
0.11522
0.152591
0.185936
0.208134
0.237059
0.291613
0.379463
0.460961
0.523793
0.588213
0.651093
0.738828
0.938979
1.50924
3.54608
9.66502
9.65923
6.40989
7.55907
0.0944289
0.0731258
0.0741338
0.0766679
0.0818704
0.0927768
0.115232
0.152605
0.185943
0.208139
0.237053
0.291596
0.379476
0.460894
0.523893
0.588001
0.651504
0.736338
0.927876
1.46285
3.3213
9.21697
9.66884
6.36316
7.43071
0.0944335
0.0731344
0.0741432
0.0766787
0.0818836
0.0927936
0.115257
0.152585
0.185888
0.20808
0.236987
0.291532
0.379482
0.460791
0.524026
0.587693
0.652022
0.732755
0.912524
1.4011
3.0394
8.52185
9.70406
6.30639
7.24196
0.0944283
0.0731318
0.0741408
0.0766765
0.0818812
0.0927926
0.115259
0.152598
0.185896
0.208087
0.236996
0.291523
0.3795
0.460731
0.52418
0.587324
0.652524
0.728294
0.894168
1.32958
2.73096
7.59611
9.76218
6.24635
7.00829
0.0944408
0.0731339
0.0741417
0.0766745
0.0818724
0.09277
0.115202
0.152545
0.185813
0.207984
0.237028
0.291552
0.379394
0.460886
0.524159
0.586935
0.653262
0.723658
0.873768
1.25314
2.42033
6.48783
9.78374
6.19028
6.75299
0.0944429
0.0731392
0.0741473
0.0766806
0.0818789
0.0927773
0.115212
0.152519
0.185752
0.207924
0.236939
0.291534
0.379134
0.461246
0.523755
0.586999
0.654018
0.717858
0.852344
1.18049
2.1354
5.35186
9.63085
6.14868
6.5016
0.0944314
0.0731429
0.0741532
0.0766916
0.0819012
0.0928219
0.11531
0.152589
0.185833
0.208016
0.236883
0.291575
0.378875
0.461742
0.52317
0.587602
0.653108
0.715567
0.834838
1.11144
1.883
4.33429
9.05865
6.20823
6.24291
0.0944437
0.0731421
0.0741506
0.0766847
0.0818844
0.0927851
0.115224
0.152526
0.185756
0.207933
0.236919
0.291688
0.378556
0.462249
0.52269
0.58815
0.651695
0.717488
0.815528
1.03889
1.64499
3.49998
8.0011
6.23502
5.97604
0.0944431
0.0731423
0.0741511
0.0766861
0.0818879
0.0927936
0.115243
0.152565
0.185806
0.207988
0.236957
0.291806
0.378339
0.462572
0.52255
0.588165
0.651021
0.718663
0.796148
0.966731
1.41026
2.74459
6.61636
6.15396
5.61387
0.0944334
0.0731361
0.0741453
0.0766816
0.0818883
0.0928021
0.115274
0.152615
0.185922
0.208108
0.236995
0.291557
0.379397
0.460956
0.523724
0.588311
0.650873
0.740061
0.944586
1.53309
3.66569
9.86397
9.65289
6.43213
7.61588
0.0944281
0.0731264
0.0741346
0.0766687
0.0818708
0.0927764
0.11523
0.152583
0.185908
0.208097
0.237024
0.29158
0.379443
0.460949
0.523787
0.588211
0.651091
0.738839
0.939025
1.50941
3.54675
9.66593
9.65837
6.40958
7.55909
0.0944441
0.0731382
0.0741462
0.0766791
0.0818768
0.0927738
0.115204
0.152516
0.185758
0.207936
0.236945
0.291496
0.379362
0.460857
0.523875
0.587989
0.651494
0.73634
0.927908
1.46298
3.32185
9.218
9.66819
6.36279
7.43076
0.094427
0.0731223
0.0741299
0.0766626
0.0818619
0.0927613
0.115202
0.152545
0.185873
0.208069
0.237008
0.29155
0.379507
0.460808
0.524029
0.587691
0.652019
0.732759
0.912552
1.40121
3.03986
8.523
9.70357
6.30589
7.2421
0.0944441
0.073138
0.0741459
0.0766787
0.0818761
0.0927724
0.115202
0.152505
0.185744
0.207924
0.23693
0.291458
0.379411
0.4607
0.524165
0.58731
0.652511
0.728288
0.894181
1.32966
2.73132
7.5973
9.76178
6.24587
7.00849
0.0944279
0.0731246
0.0741323
0.0766654
0.0818651
0.0927654
0.115208
0.152544
0.185864
0.208061
0.236984
0.291533
0.379421
0.460874
0.524137
0.586912
0.653243
0.723644
0.87377
1.25319
2.42056
6.48878
9.78348
6.18986
6.75326
0.0944333
0.0731345
0.0741433
0.076679
0.081884
0.0927946
0.115259
0.152592
0.185899
0.208097
0.236973
0.291568
0.379185
0.461246
0.52374
0.586982
0.654002
0.717847
0.852342
1.18052
2.13555
5.35252
9.63082
6.14842
6.50192
0.09443
0.0731249
0.0741326
0.0766657
0.0818663
0.092768
0.115213
0.152569
0.185905
0.208109
0.237
0.291669
0.378935
0.461767
0.523172
0.587594
0.653097
0.715556
0.834838
1.11147
1.8831
4.33466
9.0589
6.20805
6.2431
0.0944303
0.0731253
0.0741331
0.0766666
0.0818679
0.0927713
0.11522
0.15259
0.185936
0.208148
0.23702
0.291782
0.37865
0.462273
0.522687
0.588136
0.65168
0.717475
0.815525
1.03891
1.64507
3.50022
8.00139
6.23502
5.97621
0.0944301
0.0731237
0.0741312
0.0766638
0.0818631
0.0927625
0.115202
0.152562
0.185905
0.208125
0.23698
0.291841
0.378401
0.462574
0.52253
0.588139
0.650996
0.718641
0.796134
0.966735
1.41031
2.74479
6.61664
6.15401
5.61399
0.0944301
0.0731236
0.0741311
0.0766636
0.0818628
0.0927618
0.115201
0.152558
0.185899
0.208103
0.237018
0.291585
0.379424
0.460971
0.523725
0.588303
0.650864
0.74005
0.944573
1.53308
3.66569
9.86395
9.65287
6.43213
7.61588
0.0944303
0.073125
0.0741328
0.0766661
0.0818669
0.0927693
0.115215
0.152578
0.185918
0.208117
0.237025
0.29158
0.37943
0.460936
0.523771
0.588195
0.651077
0.738825
0.939011
1.50939
3.54674
9.66592
9.65836
6.40959
7.5591
0.0944299
0.0731242
0.0741319
0.0766647
0.0818645
0.0927648
0.115207
0.152557
0.185889
0.208087
0.236995
0.291549
0.379443
0.460869
0.523869
0.587979
0.651486
0.736331
0.927899
1.46297
3.32185
9.218
9.66817
6.36279
7.43077
0.0944331
0.0731325
0.074141
0.0766755
0.0818782
0.0927836
0.115237
0.152555
0.185859
0.208058
0.236943
0.291492
0.379443
0.460766
0.524
0.58767
0.652002
0.732744
0.91254
1.4012
3.03986
8.523
9.70356
6.30589
7.24211
0.0944271
0.0731221
0.0741296
0.0766621
0.0818608
0.0927592
0.115198
0.152535
0.185856
0.208054
0.236984
0.291515
0.379507
0.460727
0.524169
0.58731
0.652509
0.728285
0.894177
1.32966
2.73132
7.59731
9.76178
6.24587
7.00849
0.0944422
0.0731296
0.0741366
0.0766676
0.0818617
0.0927509
0.115164
0.152509
0.185793
0.207983
0.237
0.291535
0.379368
0.46087
0.524139
0.586913
0.653242
0.723644
0.873769
1.25319
2.42056
6.4888
9.78348
6.18986
6.75326
0.0944272
0.0731222
0.0741297
0.0766622
0.081861
0.0927596
0.115199
0.152539
0.185862
0.208063
0.236985
0.291581
0.379212
0.461262
0.523747
0.586984
0.654003
0.717847
0.852343
1.18052
2.13555
5.35253
9.63083
6.14842
6.50192
0.0944334
0.0731351
0.0741441
0.0766799
0.0818854
0.0927969
0.115263
0.152594
0.1859
0.208101
0.236954
0.291629
0.378894
0.461743
0.523157
0.587585
0.653092
0.715554
0.834836
1.11147
1.8831
4.33466
9.05891
6.20805
6.2431
0.0944297
0.0731237
0.0741312
0.0766638
0.0818634
0.092763
0.115204
0.152552
0.185883
0.208089
0.236962
0.291732
0.378616
0.462245
0.522668
0.588124
0.651672
0.71747
0.815521
1.0389
1.64507
3.50022
8.0014
6.23502
5.97622
0.0944334
0.0731351
0.0741441
0.0766799
0.0818854
0.0927969
0.115264
0.152594
0.1859
0.208108
0.236917
0.291779
0.378343
0.462534
0.522505
0.588124
0.650988
0.718637
0.796131
0.966734
1.41031
2.7448
6.61665
6.15401
5.614
0.0944301
0.0731232
0.0741307
0.076663
0.0818617
0.0927595
0.115196
0.152543
0.185878
0.20808
0.236982
0.291551
0.379392
0.460946
0.523705
0.588286
0.65085
0.740037
0.944562
1.53307
3.66568
9.86395
9.65288
6.43213
7.61589
0.0944301
0.0731232
0.0741307
0.076663
0.0818617
0.0927595
0.115196
0.152543
0.185878
0.208081
0.236983
0.291547
0.379405
0.460918
0.523756
0.588181
0.651066
0.738814
0.939001
1.50939
3.54674
9.66591
9.65837
6.40959
7.5591
0.0944301
0.0731232
0.0741307
0.076663
0.0818617
0.0927595
0.115196
0.152543
0.185878
0.208081
0.236985
0.29154
0.379433
0.46086
0.52386
0.587969
0.651477
0.736323
0.927892
1.46297
3.32184
9.21799
9.66818
6.3628
7.43077
0.0944301
0.0731232
0.0741307
0.076663
0.0818617
0.0927595
0.115196
0.152543
0.185878
0.208081
0.236989
0.291529
0.379471
0.460781
0.524003
0.587667
0.651999
0.732741
0.912536
1.4012
3.03985
8.52299
9.70356
6.3059
7.24211
0.0944301
0.0731232
0.0741307
0.076663
0.0818617
0.0927595
0.115196
0.152543
0.185878
0.208082
0.236993
0.29152
0.379498
0.460715
0.524158
0.587299
0.652501
0.728278
0.89417
1.32966
2.73131
7.5973
9.76178
6.24587
7.0085
0.0944301
0.0731232
0.0741307
0.076663
0.0818617
0.0927595
0.115196
0.152543
0.185878
0.208084
0.236991
0.291536
0.379406
0.460862
0.524123
0.586898
0.65323
0.723632
0.873759
1.25318
2.42056
6.48879
9.78348
6.18986
6.75326
0.0944301
0.0731232
0.0741307
0.076663
0.0818617
0.0927595
0.115196
0.152543
0.185878
0.208086
0.236982
0.291579
0.379194
0.461246
0.523731
0.58697
0.65399
0.717835
0.852332
1.18052
2.13554
5.35252
9.63082
6.14842
6.50192
0.0944301
0.0731232
0.0741307
0.076663
0.0818617
0.0927595
0.115196
0.152543
0.185878
0.208089
0.236968
0.291643
0.378909
0.461747
0.523152
0.587575
0.65308
0.715543
0.834826
1.11146
1.88309
4.33466
9.05891
6.20805
6.2431
0.0944301
0.0731232
0.0741307
0.076663
0.0818617
0.0927595
0.115196
0.152543
0.185878
0.208092
0.23695
0.291721
0.378601
0.462236
0.522655
0.58811
0.651658
0.717458
0.81551
1.03889
1.64507
3.50021
8.00139
6.23502
5.97622
0.0944301
0.0731232
0.0741307
0.076663
0.0818617
0.0927596
0.115196
0.152543
0.185878
0.208097
0.236931
0.291794
0.378356
0.462539
0.522501
0.588115
0.650977
0.718627
0.796122
0.966724
1.4103
2.74479
6.61665
6.15401
5.614
0.0944289
0.0731218
0.0741292
0.0766614
0.0818598
0.0927575
0.115193
0.152546
0.185878
0.208082
0.236983
0.29155
0.379383
0.460943
0.523705
0.588289
0.65085
0.740037
0.944562
1.53307
3.6657
9.86385
9.65294
6.43209
7.61606
0.0944289
0.0731219
0.0741292
0.0766614
0.0818598
0.0927575
0.115194
0.152544
0.185877
0.20808
0.236981
0.291545
0.379399
0.460917
0.523758
0.588185
0.651069
0.738817
0.939002
1.50938
3.54673
9.6658
9.65842
6.40969
7.55916
0.0944296
0.0731222
0.0741295
0.0766616
0.0818599
0.0927569
0.115192
0.152536
0.185868
0.20807
0.236975
0.291533
0.379433
0.46086
0.523863
0.587975
0.651483
0.736329
0.927897
1.46297
3.32187
9.21787
9.66807
6.36295
7.43082
0.0944296
0.0731223
0.0741297
0.0766618
0.0818602
0.0927575
0.115193
0.152537
0.185869
0.20807
0.236979
0.291522
0.379472
0.460781
0.524006
0.587674
0.652006
0.732748
0.912544
1.40121
3.03989
8.52292
9.70331
6.30614
7.24215
0.094429
0.0731221
0.0741295
0.0766617
0.0818601
0.0927579
0.115194
0.152544
0.185876
0.20808
0.23699
0.291517
0.379492
0.460714
0.524161
0.587306
0.652506
0.728283
0.894176
1.32966
2.73132
7.59719
9.76154
6.24608
7.00849
0.0944295
0.0731227
0.0741301
0.0766624
0.0818609
0.0927585
0.115194
0.152544
0.185877
0.208083
0.236991
0.291535
0.379402
0.460859
0.524125
0.586901
0.653233
0.723635
0.873761
1.25318
2.42054
6.48864
9.78338
6.18993
6.75329
0.0944289
0.0731218
0.0741291
0.0766613
0.0818596
0.092757
0.115193
0.152543
0.185876
0.208085
0.236981
0.291579
0.37919
0.461243
0.523732
0.586972
0.653991
0.717835
0.85233
1.18051
2.13553
5.35245
9.6308
6.1484
6.50195
0.0944298
0.0731224
0.0741298
0.0766619
0.0818604
0.0927576
0.115193
0.152539
0.185873
0.208084
0.236968
0.291644
0.378914
0.461749
0.523154
0.587578
0.653082
0.715543
0.834824
1.11145
1.88308
4.33462
9.05888
6.20804
6.2431
0.094429
0.0731222
0.0741296
0.076662
0.0818606
0.092759
0.115196
0.152551
0.185886
0.208103
0.236965
0.291735
0.378608
0.462244
0.522665
0.588119
0.651666
0.717463
0.815512
1.03889
1.64505
3.50017
8.00135
6.23504
5.97621
0.0944292
0.0731227
0.0741302
0.0766626
0.0818616
0.0927605
0.115199
0.152556
0.185892
0.208111
0.236955
0.291814
0.378367
0.462551
0.522514
0.588129
0.650989
0.718636
0.796128
0.966725
1.41029
2.74475
6.61658
6.15402
5.614
0.0944301
0.0731233
0.0741307
0.0766631
0.0818618
0.0927597
0.115196
0.152544
0.185878
0.208081
0.236983
0.291551
0.379392
0.460946
0.523705
0.588286
0.65085
0.740037
0.94456
1.53306
3.66564
9.86391
9.65293
6.43216
7.61591
0.0944301
0.0731233
0.0741308
0.0766631
0.0818619
0.0927598
0.115197
0.152544
0.185879
0.208081
0.236984
0.291548
0.379405
0.460918
0.523756
0.588181
0.651066
0.738814
0.938999
1.50938
3.54671
9.66587
9.65842
6.40961
7.55911
0.0944301
0.0731233
0.0741307
0.0766631
0.0818618
0.0927597
0.115196
0.152543
0.185878
0.208081
0.236986
0.29154
0.379433
0.460859
0.523859
0.587969
0.651477
0.736323
0.92789
1.46296
3.32182
9.21795
9.66821
6.36281
7.43077
0.0944303
0.0731234
0.0741309
0.0766632
0.0818619
0.0927597
0.115196
0.152543
0.185877
0.20808
0.236989
0.291529
0.379472
0.46078
0.524002
0.587667
0.651999
0.73274
0.912535
1.40119
3.03984
8.52296
9.70358
6.30591
7.24209
0.0944301
0.0731233
0.0741307
0.0766631
0.0818618
0.0927596
0.115196
0.152544
0.185878
0.208082
0.236993
0.291521
0.379498
0.460715
0.524158
0.587299
0.652501
0.728278
0.89417
1.32965
2.73131
7.59728
9.76179
6.24588
7.00847
0.0944303
0.0731234
0.0741309
0.0766632
0.0818619
0.0927597
0.115196
0.152543
0.185878
0.208083
0.236992
0.291537
0.379408
0.460862
0.524123
0.586898
0.65323
0.723632
0.873759
1.25318
2.42055
6.48879
9.78348
6.18986
6.75324
0.0944301
0.0731233
0.0741307
0.0766631
0.0818618
0.0927597
0.115196
0.152544
0.185879
0.208087
0.236985
0.291582
0.379198
0.461249
0.523733
0.586971
0.653991
0.717836
0.852332
1.18051
2.13554
5.35252
9.63082
6.14842
6.5019
0.0944302
0.0731234
0.0741308
0.0766632
0.081862
0.09276
0.115197
0.152545
0.185881
0.208093
0.236975
0.29165
0.378916
0.461753
0.523156
0.587579
0.653083
0.715545
0.834828
1.11146
1.88309
4.33466
9.05891
6.20806
6.24307
0.0944301
0.0731234
0.0741308
0.0766633
0.0818622
0.0927605
0.115198
0.152549
0.185887
0.208102
0.236966
0.291737
0.378615
0.462248
0.522665
0.588118
0.651665
0.717462
0.815514
1.0389
1.64507
3.50021
8.0014
6.23503
5.9762
0.0944301
0.0731235
0.074131
0.0766634
0.0818625
0.0927611
0.115199
0.152552
0.185891
0.20811
0.236953
0.291814
0.378374
0.462552
0.522512
0.588124
0.650984
0.718633
0.796127
0.966729
1.4103
2.74479
6.61665
6.15401
5.61399
0.0944301
0.0731232
0.0741307
0.076663
0.0818617
0.0927595
0.115196
0.152544
0.185878
0.20808
0.236982
0.291551
0.379392
0.460946
0.523705
0.588286
0.65085
0.740037
0.944562
1.53307
3.66568
9.86395
9.65288
6.43213
7.61589
0.0944301
0.0731232
0.0741307
0.076663
0.0818617
0.0927595
0.115196
0.152543
0.185878
0.208081
0.236983
0.291547
0.379405
0.460918
0.523756
0.588181
0.651066
0.738814
0.939001
1.50939
3.54674
9.66591
9.65837
6.40959
7.5591
0.0944301
0.0731232
0.0741307
0.076663
0.0818617
0.0927595
0.115196
0.152543
0.185878
0.208081
0.236985
0.29154
0.379433
0.46086
0.52386
0.587969
0.651477
0.736323
0.927892
1.46297
3.32184
9.21799
9.66818
6.36279
7.43077
0.0944301
0.0731232
0.0741307
0.076663
0.0818617
0.0927595
0.115196
0.152543
0.185878
0.208081
0.236989
0.291529
0.379471
0.460781
0.524003
0.587667
0.651999
0.732741
0.912536
1.4012
3.03985
8.52299
9.70356
6.30589
7.24211
0.0944301
0.0731232
0.0741307
0.076663
0.0818617
0.0927595
0.115196
0.152543
0.185878
0.208082
0.236993
0.29152
0.379498
0.460715
0.524158
0.587299
0.652501
0.728278
0.894171
1.32966
2.73132
7.5973
9.76178
6.24587
7.0085
0.0944301
0.0731232
0.0741307
0.076663
0.0818617
0.0927595
0.115196
0.152543
0.185878
0.208084
0.236991
0.291536
0.379406
0.460862
0.524123
0.586898
0.65323
0.723632
0.873759
1.25318
2.42056
6.48879
9.78348
6.18986
6.75326
0.0944301
0.0731232
0.0741307
0.076663
0.0818617
0.0927595
0.115196
0.152543
0.185878
0.208086
0.236982
0.291579
0.379194
0.461246
0.523731
0.58697
0.65399
0.717835
0.852332
1.18052
2.13554
5.35252
9.63082
6.14842
6.50192
0.0944301
0.0731232
0.0741307
0.076663
0.0818617
0.0927595
0.115196
0.152543
0.185878
0.208089
0.236968
0.291643
0.378909
0.461747
0.523152
0.587576
0.65308
0.715543
0.834826
1.11146
1.88309
4.33466
9.05891
6.20805
6.2431
0.0944301
0.0731232
0.0741307
0.076663
0.0818617
0.0927595
0.115196
0.152543
0.185878
0.208092
0.23695
0.291721
0.378601
0.462236
0.522655
0.58811
0.651658
0.717458
0.81551
1.03889
1.64507
3.50021
8.00139
6.23502
5.97622
0.0944301
0.0731232
0.0741307
0.076663
0.0818617
0.0927596
0.115196
0.152543
0.185878
0.208097
0.236931
0.291794
0.378356
0.462539
0.522501
0.588115
0.650977
0.718627
0.796122
0.966725
1.4103
2.74479
6.61665
6.15401
5.614
0.0944301
0.0731236
0.0741311
0.0766636
0.0818628
0.0927618
0.115201
0.152558
0.185899
0.208103
0.237018
0.291585
0.379424
0.460971
0.523725
0.588303
0.650864
0.74005
0.944573
1.53308
3.66569
9.86395
9.65287
6.43213
7.61588
0.0944303
0.073125
0.0741328
0.0766661
0.0818669
0.0927693
0.115215
0.152578
0.185918
0.208117
0.237025
0.29158
0.37943
0.460936
0.523771
0.588195
0.651077
0.738825
0.939011
1.50939
3.54674
9.66592
9.65836
6.40959
7.5591
0.0944299
0.0731242
0.0741319
0.0766647
0.0818645
0.0927648
0.115207
0.152557
0.185889
0.208087
0.236995
0.291549
0.379443
0.460869
0.523869
0.587979
0.651486
0.736331
0.927899
1.46297
3.32185
9.218
9.66817
6.36279
7.43077
0.0944331
0.0731325
0.074141
0.0766755
0.0818782
0.0927836
0.115237
0.152555
0.185859
0.208058
0.236943
0.291492
0.379443
0.460766
0.524
0.58767
0.652002
0.732744
0.91254
1.4012
3.03986
8.523
9.70356
6.30589
7.24211
0.0944271
0.0731221
0.0741296
0.0766621
0.0818608
0.0927592
0.115198
0.152535
0.185856
0.208054
0.236984
0.291515
0.379507
0.460727
0.524169
0.58731
0.652509
0.728285
0.894177
1.32966
2.73132
7.59731
9.76178
6.24587
7.00849
0.0944422
0.0731296
0.0741366
0.0766676
0.0818617
0.0927509
0.115164
0.152509
0.185793
0.207983
0.237
0.291535
0.379368
0.46087
0.524139
0.586913
0.653242
0.723644
0.873769
1.25319
2.42056
6.4888
9.78348
6.18986
6.75326
0.0944272
0.0731222
0.0741297
0.0766622
0.081861
0.0927596
0.115199
0.152539
0.185862
0.208063
0.236985
0.291581
0.379212
0.461262
0.523747
0.586984
0.654003
0.717847
0.852343
1.18052
2.13555
5.35253
9.63083
6.14842
6.50192
0.0944334
0.0731351
0.0741441
0.0766799
0.0818854
0.0927969
0.115263
0.152594
0.1859
0.208101
0.236954
0.291629
0.378894
0.461743
0.523157
0.587585
0.653092
0.715554
0.834836
1.11147
1.8831
4.33466
9.05891
6.20805
6.2431
0.0944297
0.0731237
0.0741312
0.0766638
0.0818634
0.092763
0.115204
0.152552
0.185883
0.208089
0.236962
0.291732
0.378616
0.462245
0.522668
0.588124
0.651672
0.71747
0.815521
1.0389
1.64507
3.50022
8.0014
6.23502
5.97622
0.0944334
0.0731351
0.0741441
0.0766799
0.0818854
0.0927969
0.115264
0.152594
0.1859
0.208108
0.236917
0.291779
0.378343
0.462534
0.522505
0.588124
0.650988
0.718637
0.796131
0.966734
1.41031
2.7448
6.61665
6.15401
5.614
0.0944334
0.0731361
0.0741453
0.0766816
0.0818883
0.0928022
0.115274
0.152615
0.185922
0.208108
0.236995
0.291557
0.379397
0.460956
0.523724
0.588311
0.650873
0.740061
0.944586
1.53309
3.66569
9.86397
9.65289
6.43213
7.61588
0.0944281
0.0731264
0.0741346
0.0766687
0.0818708
0.0927764
0.11523
0.152583
0.185908
0.208097
0.237024
0.29158
0.379443
0.460949
0.523787
0.588211
0.651091
0.738839
0.939024
1.50941
3.54675
9.66593
9.65837
6.40958
7.55909
0.0944441
0.0731382
0.0741462
0.0766791
0.0818768
0.0927738
0.115204
0.152516
0.185758
0.207936
0.236945
0.291497
0.379362
0.460857
0.523875
0.587989
0.651494
0.73634
0.927908
1.46298
3.32185
9.218
9.66819
6.36279
7.43076
0.094427
0.0731223
0.0741299
0.0766626
0.0818618
0.0927612
0.115202
0.152545
0.185873
0.208069
0.237008
0.29155
0.379507
0.460808
0.524029
0.587691
0.652019
0.732759
0.912552
1.40121
3.03986
8.523
9.70357
6.30589
7.2421
0.0944441
0.073138
0.0741459
0.0766787
0.0818761
0.0927724
0.115202
0.152505
0.185744
0.207924
0.23693
0.291458
0.379411
0.4607
0.524165
0.58731
0.652511
0.728288
0.894181
1.32966
2.73132
7.5973
9.76178
6.24587
7.00849
0.0944279
0.0731246
0.0741324
0.0766654
0.0818651
0.0927654
0.115208
0.152544
0.185863
0.208061
0.236984
0.291533
0.379421
0.460874
0.524137
0.586912
0.653243
0.723644
0.87377
1.25319
2.42056
6.48878
9.78348
6.18986
6.75326
0.0944333
0.0731345
0.0741433
0.076679
0.081884
0.0927946
0.115259
0.152592
0.185899
0.208097
0.236973
0.291568
0.379185
0.461246
0.52374
0.586982
0.654002
0.717847
0.852342
1.18052
2.13555
5.35252
9.63082
6.14842
6.50192
0.09443
0.0731249
0.0741326
0.0766657
0.0818662
0.092768
0.115213
0.152569
0.185905
0.208109
0.237
0.29167
0.378935
0.461767
0.523172
0.587594
0.653097
0.715556
0.834838
1.11147
1.8831
4.33466
9.0589
6.20805
6.2431
0.0944303
0.0731253
0.0741332
0.0766666
0.0818679
0.0927713
0.11522
0.15259
0.185936
0.208148
0.23702
0.291782
0.37865
0.462273
0.522687
0.588136
0.65168
0.717475
0.815525
1.03891
1.64507
3.50021
8.00139
6.23502
5.97621
0.0944301
0.0731237
0.0741312
0.0766638
0.0818631
0.0927625
0.115202
0.152562
0.185904
0.208125
0.236979
0.291841
0.378401
0.462574
0.52253
0.588139
0.650996
0.718641
0.796134
0.966735
1.41031
2.74479
6.61664
6.15401
5.61399
0.0944298
0.0731254
0.0741334
0.0766671
0.081869
0.0927737
0.115225
0.152594
0.185932
0.208126
0.237052
0.291615
0.379457
0.460993
0.523747
0.588326
0.650884
0.740058
0.944548
1.53293
3.66505
9.86303
9.65342
6.43246
7.61608
0.0944316
0.0731316
0.0741401
0.0766749
0.0818782
0.0927856
0.115243
0.15258
0.185891
0.20809
0.23699
0.291558
0.379417
0.460941
0.523788
0.588214
0.651094
0.738829
0.938982
1.50925
3.54607
9.6649
9.65909
6.41008
7.5591
0.094427
0.0731238
0.0741317
0.0766653
0.0818664
0.09277
0.115219
0.152585
0.185923
0.208116
0.237053
0.291601
0.379497
0.460904
0.523898
0.588004
0.651505
0.736339
0.927876
1.46285
3.32131
9.21689
9.66883
6.36316
7.43082
0.0944399
0.0731309
0.0741385
0.0766709
0.0818683
0.0927662
0.115197
0.152571
0.18585
0.208031
0.237054
0.291568
0.379447
0.460801
0.52404
0.587704
0.652027
0.732757
0.912525
1.40109
3.0394
8.52183
9.7041
6.30636
7.24205
0.0944304
0.0731331
0.074142
0.0766774
0.0818817
0.0927909
0.115254
0.152563
0.185849
0.208036
0.236965
0.291498
0.379495
0.460727
0.524176
0.587319
0.652518
0.728288
0.89416
1.32957
2.73095
7.5961
9.76222
6.24633
7.00831
0.0944318
0.0731409
0.0741508
0.0766887
0.0818974
0.092817
0.115302
0.152601
0.18586
0.208046
0.23693
0.291491
0.379379
0.460858
0.524141
0.586926
0.653258
0.723654
0.873765
1.25313
2.42031
6.48782
9.78378
6.19028
6.75299
0.0944404
0.0731318
0.0741392
0.0766708
0.0818662
0.092758
0.115177
0.152509
0.185772
0.207944
0.236988
0.291572
0.379171
0.461269
0.523772
0.587013
0.654029
0.717867
0.852349
1.18049
2.13539
5.35183
9.63087
6.14869
6.5016
0.0944422
0.0731418
0.0741507
0.0766859
0.0818884
0.0927959
0.115249
0.152581
0.185824
0.207991
0.236974
0.291635
0.378879
0.461766
0.523195
0.587626
0.653129
0.715585
0.834854
1.11145
1.883
4.33426
9.05863
6.20824
6.24291
0.0944294
0.073133
0.0741419
0.0766773
0.0818813
0.0927906
0.115255
0.152553
0.185827
0.20802
0.236905
0.291691
0.378601
0.462253
0.522691
0.588152
0.651701
0.717491
0.815531
1.03889
1.64499
3.49996
8.00106
6.23502
5.97603
0.0944446
0.0731493
0.0741588
0.0766954
0.0818997
0.0928111
0.115271
0.152579
0.185779
0.207958
0.236875
0.291725
0.378259
0.462527
0.522528
0.588159
0.65102
0.718666
0.79615
0.96673
1.41025
2.74457
6.6163
6.15395
5.61386
0.0944297
0.0731371
0.0741468
0.0766845
0.0818934
0.0928134
0.115298
0.152653
0.185954
0.20815
0.236993
0.291901
0.378361
0.462481
0.523078
0.587225
0.651566
0.718653
0.77987
0.905795
1.20771
2.05238
4.64203
5.80722
4.68852
0.0944447
0.0731436
0.0741524
0.0766877
0.0818904
0.0927977
0.11525
0.152593
0.185845
0.208031
0.236982
0.291892
0.37848
0.462015
0.52383
0.586302
0.652219
0.716802
0.77938
0.867419
1.06617
1.56751
2.89249
5.18795
4.40687
0.0944314
0.0731399
0.0741499
0.0766883
0.0818993
0.0928232
0.115317
0.152674
0.185975
0.208169
0.237003
0.291906
0.378613
0.461875
0.523982
0.586244
0.652053
0.715812
0.779422
0.839851
0.967099
1.26979
2.08871
4.13244
3.9634
0.0944337
0.073147
0.0741578
0.0766979
0.0819116
0.0928407
0.115346
0.152673
0.185943
0.208135
0.23695
0.29186
0.378569
0.461905
0.523814
0.586543
0.651544
0.716104
0.777518
0.833671
0.905758
1.06568
1.47127
2.56812
3.45457
0.0944444
0.0731461
0.0741553
0.0766915
0.081896
0.0928066
0.115267
0.152592
0.185832
0.208013
0.236963
0.291863
0.378532
0.46191
0.523834
0.586511
0.651578
0.715963
0.776566
0.832585
0.880499
0.959711
1.14022
1.58955
2.58154
0.0944411
0.0731438
0.074153
0.0766888
0.0818922
0.092802
0.11526
0.152591
0.185822
0.207997
0.236961
0.29186
0.378539
0.461911
0.523833
0.586525
0.651549
0.715931
0.776562
0.830883
0.879102
0.919634
0.99383
1.15817
1.52755
0.0944445
0.07315
0.0741596
0.0766959
0.0818993
0.0928083
0.115266
0.152543
0.185736
0.207912
0.236857
0.291781
0.37848
0.461882
0.523814
0.586516
0.651538
0.715909
0.776491
0.830767
0.877145
0.916125
0.949907
1.00573
1.12432
0.0944444
0.0731517
0.0741616
0.0766988
0.0819041
0.0928174
0.115284
0.152567
0.18576
0.207934
0.236871
0.291788
0.378481
0.461882
0.523815
0.586518
0.651539
0.715911
0.776472
0.830705
0.876882
0.914486
0.944164
0.970452
1.00552
0.0944417
0.0731459
0.0741553
0.0766918
0.0818967
0.0928094
0.115275
0.152598
0.185822
0.207991
0.23695
0.291847
0.378527
0.461905
0.523828
0.586527
0.651546
0.715916
0.776475
0.830687
0.87683
0.914164
0.942939
0.964602
0.982619
0.0944467
0.0731544
0.0741646
0.0767028
0.0819108
0.0928288
0.115306
0.152601
0.185809
0.207985
0.236914
0.291823
0.378501
0.461895
0.523825
0.586527
0.651547
0.715916
0.776476
0.830684
0.876815
0.914107
0.942685
0.963601
0.978459
0.0944319
0.0731476
0.0741586
0.0766991
0.081913
0.0928429
0.11535
0.152673
0.185934
0.20812
0.236952
0.291863
0.37858
0.461916
0.523834
0.586534
0.651552
0.715921
0.776479
0.830685
0.876815
0.914093
0.94265
0.963392
0.97777
0.0944441
0.0731467
0.0741561
0.0766927
0.0818983
0.092812
0.115278
0.152636
0.185886
0.208061
0.237017
0.291904
0.378565
0.461929
0.523847
0.586542
0.651558
0.715925
0.776482
0.830686
0.876816
0.914091
0.942641
0.963359
0.977641
0.0944438
0.0731465
0.0741559
0.0766925
0.081898
0.0928115
0.115277
0.152631
0.18588
0.208056
0.237009
0.291897
0.378559
0.461928
0.523845
0.58654
0.651556
0.715923
0.77648
0.830684
0.876814
0.91409
0.942639
0.963353
0.97762
0.0944319
0.0731472
0.0741581
0.0766984
0.0819119
0.0928413
0.115348
0.152664
0.185924
0.208112
0.236939
0.291856
0.378575
0.461915
0.523832
0.586531
0.651549
0.715918
0.776476
0.830682
0.876812
0.914088
0.942638
0.963351
0.977616
0.0944467
0.0731525
0.0741623
0.0766995
0.0819051
0.0928178
0.115283
0.152572
0.185779
0.207961
0.2369
0.291821
0.37851
0.461902
0.52383
0.586529
0.651547
0.715914
0.776473
0.830679
0.87681
0.914087
0.942637
0.96335
0.977615
0.0944411
0.0731439
0.0741531
0.0766891
0.081893
0.0928042
0.115266
0.1526
0.185836
0.208013
0.236982
0.291881
0.378557
0.461931
0.523847
0.58654
0.651554
0.71592
0.776477
0.830683
0.876813
0.914089
0.942638
0.963351
0.977615
0.0944412
0.0731443
0.0741535
0.0766897
0.0818938
0.0928056
0.115269
0.152604
0.185839
0.208014
0.236983
0.291878
0.378552
0.461926
0.523844
0.586538
0.651554
0.71592
0.776478
0.830683
0.876814
0.914089
0.942639
0.963351
0.977616
0.0944465
0.0731541
0.0741642
0.0767024
0.0819102
0.0928278
0.115303
0.152613
0.185826
0.208001
0.236928
0.291836
0.378513
0.461903
0.523831
0.586532
0.65155
0.715918
0.776477
0.830682
0.876813
0.914089
0.942638
0.963351
0.977615
0.0944323
0.0731488
0.0741599
0.0767005
0.0819149
0.0928458
0.115356
0.152665
0.185917
0.208099
0.236926
0.291839
0.378561
0.461904
0.523827
0.586528
0.651548
0.715917
0.776476
0.830682
0.876813
0.914089
0.942638
0.963351
0.977616
0.0944466
0.0731558
0.0741663
0.0767053
0.081915
0.0928366
0.115321
0.152635
0.185847
0.208019
0.236939
0.291841
0.378512
0.461901
0.52383
0.586532
0.651551
0.715919
0.776477
0.830683
0.876814
0.914089
0.942639
0.963351
0.977616
0.0944414
0.0731435
0.0741525
0.076688
0.0818907
0.092799
0.115254
0.15258
0.185811
0.207986
0.236966
0.291869
0.378555
0.461929
0.523847
0.586542
0.651556
0.715922
0.776479
0.830684
0.876814
0.914089
0.942639
0.963351
0.977616
0.0944447
0.073154
0.0741643
0.0767029
0.081911
0.0928305
0.11531
0.15262
0.185827
0.208001
0.236943
0.291848
0.378524
0.461914
0.52384
0.586538
0.651555
0.715922
0.77648
0.830685
0.876815
0.91409
0.942639
0.963351
0.977616
0.0944414
0.0731435
0.0741525
0.076688
0.0818907
0.0927991
0.115255
0.152582
0.185814
0.207988
0.23697
0.291871
0.378556
0.46193
0.523848
0.586543
0.651558
0.715924
0.776481
0.830685
0.876815
0.91409
0.942639
0.963351
0.977616
0.0944468
0.0731561
0.0741667
0.0767058
0.0819158
0.0928382
0.115324
0.152642
0.185856
0.208028
0.23695
0.29185
0.37852
0.461907
0.523835
0.586536
0.651555
0.715923
0.776481
0.830686
0.876816
0.91409
0.94264
0.963352
0.977616
0.0944322
0.073149
0.0741601
0.0767009
0.0819155
0.0928467
0.115357
0.152667
0.185919
0.2081
0.236932
0.291842
0.378563
0.461907
0.523829
0.586531
0.651551
0.715921
0.776479
0.830685
0.876815
0.91409
0.942639
0.963352
0.977616
0.0944471
0.0731563
0.0741669
0.076706
0.0819159
0.0928379
0.115323
0.15264
0.185853
0.208024
0.236946
0.291847
0.378518
0.461903
0.523832
0.586534
0.651554
0.715922
0.77648
0.830686
0.876816
0.914091
0.94264
0.963352
0.977616
0.094441
0.0731433
0.0741523
0.0766879
0.0818906
0.0927992
0.115255
0.152582
0.185813
0.207988
0.236964
0.291864
0.378548
0.461925
0.523844
0.58654
0.651555
0.715922
0.776479
0.830684
0.876814
0.91409
0.942639
0.963351
0.977616
0.0944451
0.0731541
0.0741644
0.0767028
0.0819106
0.0928292
0.115307
0.15261
0.185812
0.207985
0.236924
0.291832
0.378512
0.461903
0.523831
0.586531
0.65155
0.715918
0.776477
0.830683
0.876814
0.914089
0.942639
0.963351
0.977616
0.0944412
0.073143
0.074152
0.0766874
0.0818898
0.0927973
0.115252
0.152571
0.185798
0.207973
0.236947
0.291854
0.378543
0.461919
0.523839
0.586534
0.65155
0.715918
0.776476
0.830682
0.876812
0.914088
0.942638
0.963351
0.977616
0.0944466
0.0731542
0.0741644
0.0767025
0.0819103
0.092828
0.115304
0.1526
0.185809
0.207986
0.236911
0.291822
0.378501
0.461895
0.523824
0.586526
0.651545
0.715914
0.776473
0.83068
0.876811
0.914088
0.942638
0.963351
0.977615
0.0944317
0.0731472
0.0741581
0.0766983
0.0819116
0.0928402
0.115345
0.152657
0.185912
0.208098
0.236924
0.291837