/*--------------------------------*- C++ -*----------------------------------*\
| =========                 |                                                 |
| \\      /  F ield         | OpenFOAM: The Open Source CFD Toolbox           |
|  \\    /   O peration     | Version:  4.1                                   |
|   \\  /    A nd           | Web:      www.OpenFOAM.org                      |
|    \\/     M anipulation  |                                                 |
\*---------------------------------------------------------------------------*/
FoamFile
{
    version     2.0;
    format      ascii;
    class       surfaceScalarField;
    location    "0.16";
    object      phi;
}
// * * * * * * * * * * * * * * * * * * * * * * * * * * * * * * * * * * * * * //

dimensions      [1 0 -1 0 0 0 0];

internalField   nonuniform List<scalar> 
150500
(
0.00204122
1.94481e-10
-1.56642e-11
0.00206394
-3.83193e-09
-5.43774e-11
0.00207722
-6.34765e-09
-6.11358e-11
0.00210387
-9.67702e-09
-7.69628e-11
0.00214933
-1.80551e-08
-1.07499e-10
0.00212695
-3.94501e-08
-1.68889e-10
0.00227054
-8.73872e-08
-3.02747e-10
0.00254069
-1.56967e-07
-2.14215e-10
0.00284847
-2.14427e-07
-5.52961e-11
0.00316608
-2.4353e-07
2.20727e-11
0.00370175
-2.41448e-07
2.07036e-10
0.00434859
-1.95769e-07
2.42969e-10
0.00464312
-1.70845e-07
2.5544e-10
0.00495743
-7.34479e-08
1.69386e-10
0.00548423
-1.65758e-07
9.45521e-11
0.00613674
8.91954e-08
3.96563e-11
0.00692015
-3.50294e-07
2.21483e-11
0.0074858
1.98457e-06
-3.96818e-11
0.00775098
1.15896e-05
-2.0171e-10
0.00706174
5.59979e-05
-7.64837e-10
0.00123476
0.000350259
-3.34207e-09
-0.00603999
0.00180569
-3.5768e-09
9.61649e-05
0.00143208
3.84485e-09
0.00240882
0.000957924
7.78775e-10
0.00141735
4.1188e-10
0.00204123
-2.87753e-09
8.48444e-12
0.00206395
-1.30289e-08
-5.0509e-12
0.00207724
-2.59377e-08
-6.26277e-12
0.00210392
-4.33061e-08
-8.68556e-12
0.00214944
-7.21759e-08
-1.1839e-11
0.00212712
-1.23296e-07
-2.03262e-11
0.00227078
-2.09007e-07
-4.44342e-11
0.00254095
-3.1913e-07
3.16924e-11
0.00284872
-3.80188e-07
1.17657e-10
0.00316631
-3.84759e-07
1.60535e-10
0.00370186
-3.2933e-07
1.48369e-10
0.00434867
-2.46109e-07
1.44469e-10
0.00464308
-2.34985e-07
8.62047e-11
0.00495751
-6.76371e-08
5.23642e-11
0.00548405
-2.88832e-07
2.36145e-11
0.00613739
2.22672e-07
6.06921e-12
0.00691755
-6.57444e-07
5.38136e-12
0.00749238
4.14937e-06
-4.73404e-11
0.00777728
2.35438e-05
-1.92169e-10
0.00714858
0.000110038
-7.17897e-10
0.00181414
0.000647238
-3.15491e-09
-0.0058028
0.0034831
-4.33923e-09
0.000146307
0.00293562
3.97375e-09
0.00244993
0.00184705
1.41494e-09
0.0027527
-8.40943e-11
0.00204124
-1.12359e-08
-6.53182e-11
0.00206396
-3.2241e-08
-5.2375e-11
0.00207725
-5.70323e-08
-5.1751e-11
0.00210394
-9.03514e-08
-4.71565e-11
0.00214949
-1.43186e-07
-2.66865e-11
0.00212722
-2.24904e-07
1.28015e-11
0.0022709
-3.40729e-07
1.14281e-10
0.00254098
-3.80209e-07
3.76997e-10
0.00284866
-3.85281e-07
7.91893e-10
0.00316614
-3.60609e-07
8.70551e-10
0.00370165
-2.82369e-07
4.6606e-10
0.00434866
-2.1277e-07
4.28029e-10
0.00464301
-2.51091e-07
4.89994e-10
0.00495778
-5.19777e-08
1.57188e-10
0.00548386
-3.66491e-07
7.63164e-11
0.00613882
3.68367e-07
4.73515e-11
0.00691235
-8.3402e-07
4.20818e-11
0.00750598
6.29925e-06
-7.12884e-12
0.00783074
3.44122e-05
-1.37078e-10
0.00732015
0.000154673
-5.91331e-10
0.00282131
0.000853793
-2.53358e-09
-0.00540588
0.00487118
-4.85258e-09
0.000240268
0.00462331
3.02294e-09
0.00253091
0.00264101
1.71817e-09
0.00394999
-2.53551e-10
0.0020412
-6.92749e-09
2.8194e-11
0.00206392
-1.85543e-08
5.08793e-11
0.00207726
-4.49157e-08
5.58075e-11
0.00210408
-9.38818e-08
6.74096e-11
0.00214989
-1.59377e-07
9.08819e-11
0.00212784
-2.06035e-07
1.35736e-10
0.00227143
-1.98534e-07
2.30674e-10
0.00254131
-1.10162e-07
1.7236e-10
0.00284893
4.97172e-08
6.26147e-11
0.00316636
9.20619e-08
4.95678e-11
0.00370171
1.57037e-08
-8.89691e-11
0.00434886
-6.45354e-09
-7.92001e-11
0.00464283
-9.22836e-08
-1.05995e-10
0.00495793
-6.67259e-08
-7.11392e-11
0.00548332
-2.96574e-07
-1.41613e-11
0.00614063
4.32305e-07
8.58081e-12
0.00690468
-8.5574e-07
1.61865e-11
0.00752541
8.09576e-06
-1.82624e-11
0.0079023
4.32315e-05
-1.17918e-10
0.00753925
0.000187932
-4.94895e-10
0.00397892
0.000973529
-2.09408e-09
-0.00463318
0.00587547
-5.38752e-09
0.000365892
0.00666124
2.25041e-09
0.00261507
0.0034164
2.33227e-09
0.00506362
-6.87474e-10
0.00204121
-3.46347e-08
-6.78264e-11
0.00206389
-4.12237e-08
-2.58895e-11
0.00207726
-8.92982e-08
-2.15081e-11
0.00210419
-1.71705e-07
-9.32955e-12
0.00215024
-2.58683e-07
2.1468e-11
0.00212846
-2.86665e-07
8.47906e-11
0.00227212
-1.80246e-07
2.37454e-10
0.00254199
5.73186e-08
3.90603e-10
0.00284963
4.66394e-07
6.52098e-10
0.00316712
6.03663e-07
6.99542e-10
0.00370239
2.88339e-07
2.85989e-10
0.00434949
2.38398e-07
2.78613e-10
0.0046432
2.877e-07
3.79499e-10
0.00495855
-2.54033e-07
1.28919e-10
0.00548309
1.68508e-07
6.76547e-11
0.00614298
1.35147e-07
5.78755e-11
0.00689537
-7.5991e-07
5.55326e-11
0.00755483
8.95704e-06
2.5142e-11
0.00798754
4.82796e-05
-5.5593e-11
0.00778567
0.000206659
-3.469e-10
0.00515764
0.00101219
-1.59463e-09
-0.00321456
0.00626448
-5.57172e-09
0.000530868
0.00927814
1.79537e-09
0.0026749
0.00430535
2.22796e-09
0.00612509
-9.55777e-10
0.00204122
-1.21959e-08
5.55868e-11
0.00206402
-3.42265e-08
3.92073e-11
0.0020772
-6.2289e-08
3.90649e-11
0.00210356
-9.94397e-08
3.81051e-11
0.00214841
-1.54082e-07
3.07448e-11
0.00212533
-2.33022e-07
1.9605e-11
0.00226779
-3.3792e-07
-2.69314e-11
0.00253578
-3.90549e-07
3.60286e-12
0.00284183
-3.88616e-07
-2.14659e-10
0.00315977
-3.4857e-07
-3.28166e-10
0.00369704
-2.35657e-07
1.89443e-10
0.0043461
-2.57346e-07
8.09525e-11
0.00464233
1.67518e-07
-1.15073e-10
0.00495791
-7.32669e-07
5.30151e-11
0.00548241
6.86608e-07
9.06263e-11
0.00614515
-7.3683e-07
9.44694e-11
0.00688587
3.99034e-07
8.14834e-11
0.0075896
8.04185e-06
6.07718e-11
0.00805641
4.67617e-05
-1.02106e-11
0.0080369
0.000213066
-2.20729e-10
0.00628889
0.00100135
-1.05174e-09
-0.000982085
0.00600458
-4.44206e-09
0.000752822
0.012544
1.1682e-09
0.00267586
0.00544489
1.93229e-09
0.00711802
-1.22367e-09
0.00204119
1.28456e-08
4.13754e-11
0.00206397
-4.20935e-09
2.00199e-11
0.00207718
-7.31371e-10
1.67342e-11
0.00210367
9.7911e-09
6.84425e-12
0.00214877
1.0786e-08
-2.15875e-11
0.00212593
-5.96591e-08
-7.25309e-11
0.00226832
-2.69772e-07
-1.98311e-10
0.00253609
-5.02999e-07
-3.08168e-10
0.00284206
-7.55843e-07
-6.28999e-10
0.00315984
-8.10748e-07
-7.44385e-10
0.0036973
-4.69354e-07
-1.49149e-10
0.00434547
-5.90622e-07
-1.48964e-10
0.00464344
8.54773e-08
-2.16472e-10
0.00495752
-1.01747e-06
-3.98514e-12
0.00548257
9.01627e-07
6.22409e-11
0.00614725
-1.34634e-06
7.29435e-11
0.00687512
2.71112e-06
6.5217e-11
0.00760722
1.94319e-06
4.63354e-11
0.00814606
4.44346e-05
6.71575e-12
0.00829938
0.000225515
-1.28019e-10
0.00728193
0.000986065
-6.58654e-10
0.00153164
0.00536852
-3.06582e-09
0.00107966
0.0159176
1.19789e-10
0.00258336
0.00685604
1.18573e-09
0.00818419
-1.46501e-09
0.0020412
-2.01262e-08
5.89871e-12
0.00206385
-1.43454e-08
7.58739e-11
0.00207727
-3.24163e-08
8.6134e-11
0.0021044
-6.47522e-08
1.08496e-10
0.00215082
-9.52235e-08
1.46204e-10
0.00212938
-9.26843e-08
2.26433e-10
0.00227304
-2.84888e-08
4.06363e-10
0.00254262
1.13584e-07
8.18807e-11
0.00285017
3.08805e-07
-3.05231e-10
0.00316745
3.47862e-07
-4.01369e-10
0.00370335
1.04547e-07
-5.012e-10
0.00434777
-6.13296e-08
-4.04953e-10
0.00464603
5.63913e-07
-2.59508e-10
0.00495731
-8.33601e-07
-1.06767e-10
0.00548352
9.02077e-07
-7.84997e-12
0.00614717
-1.04649e-06
3.44194e-11
0.00686874
3.14528e-06
4.43989e-11
0.0076658
-1.5313e-06
4.60969e-11
0.00822541
4.75343e-05
1.80184e-12
0.00844291
0.000232711
-1.03236e-10
0.00793199
0.000959982
-4.20677e-10
0.00437324
0.0046416
-1.67278e-09
0.00264063
0.0175044
-1.13976e-09
0.00275616
0.00928358
8.30033e-10
0.00987745
-8.53981e-10
0.00204119
4.6342e-09
5.76967e-11
0.00206399
1.14328e-08
7.07244e-11
0.00207722
2.25849e-08
7.32129e-11
0.00210373
3.68748e-08
7.58281e-11
0.00214889
5.66284e-08
6.91062e-11
0.00212607
8.08939e-08
5.79016e-11
0.00226841
1.00189e-07
1.91964e-11
0.00253613
8.20512e-08
-2.68266e-10
0.0028421
2.65309e-08
-7.68967e-10
0.0031598
-6.3423e-08
-9.24065e-10
0.0036981
-1.54523e-07
-4.32804e-10
0.00434352
-3.54664e-07
-4.03791e-10
0.00464613
2.38566e-07
-4.03971e-10
0.00495615
-7.20922e-07
-1.04282e-10
0.00548417
3.09038e-07
1.61337e-11
0.00614595
-1.29423e-07
6.06862e-11
0.00687257
1.93554e-06
6.08746e-11
0.00765237
1.52478e-07
5.17934e-11
0.00824121
4.57159e-05
1.24894e-11
0.00853451
0.00021374
-7.6755e-11
0.00824908
0.000853113
-3.5979e-10
0.00609268
0.00380847
-1.03692e-09
0.00427091
0.0175362
-1.27162e-09
0.00353184
0.0127436
4.0226e-11
0.0125204
-7.89937e-10
0.0020412
5.58862e-11
2.46551e-08
0.00206398
7.8265e-11
3.16698e-08
0.00207722
8.32278e-11
6.00058e-08
0.00210376
9.32079e-11
1.0264e-07
0.00214896
1.03521e-10
1.46444e-07
0.00212624
1.30491e-10
1.60006e-07
0.00226875
1.7179e-10
9.34762e-08
0.00253658
1.33223e-11
-9.99238e-08
0.00284263
-4.21107e-10
-4.30705e-07
0.00316029
-5.87717e-10
-5.99966e-07
0.00369899
-9.8601e-11
-4.64864e-07
0.00434304
-1.49508e-10
-6.27999e-07
0.00464727
-2.6474e-10
-2.5342e-07
0.00495597
-6.96498e-12
-2.26521e-07
0.00548474
8.65436e-11
-7.26999e-07
0.00614457
1.09012e-10
1.31011e-06
0.00687846
1.02652e-10
-6.48082e-08
0.00763173
9.35737e-11
3.14076e-06
0.00827654
5.93327e-11
3.46336e-05
0.00869387
-1.71898e-11
0.00016449
0.00861699
-2.14876e-10
0.00065689
0.00731556
-8.78078e-10
0.00279625
0.00561198
-1.25165e-09
0.0151472
0.00453548
-1.81744e-10
0.0160804
-5.61858e-10
0.0170104
0.00204121
-4.25077e-09
1.65688e-11
0.00206393
-3.8637e-09
6.22907e-11
0.00207728
-1.47437e-08
7.02759e-11
0.00210412
-3.98609e-08
8.92303e-11
0.00214995
-6.41042e-08
1.26536e-10
0.00212796
-4.90647e-08
2.01557e-10
0.00227166
6.69292e-08
3.63291e-10
0.00254161
2.46947e-07
2.94378e-10
0.00284924
4.59508e-07
1.29377e-10
0.00316657
5.58012e-07
3.62598e-11
0.00370194
4.55566e-07
-1.00279e-10
0.00434864
3.86832e-07
-1.2058e-10
0.00464321
2.40328e-07
-1.1615e-10
0.00495751
1.88967e-07
-6.32771e-11
0.0054843
1.35278e-08
-5.11503e-12
0.0061368
2.17367e-07
3.90523e-11
0.00692023
-2.51025e-07
5.22818e-11
0.00748585
2.06333e-06
5.81645e-11
0.00775094
1.1665e-05
5.2442e-11
0.00706142
5.60965e-05
5.50922e-11
0.00123236
0.000350541
1.04716e-13
-0.00603917
0.00180633
8.22513e-11
9.57306e-05
0.00143215
5.25946e-11
0.00240846
0.000957424
-9.94538e-12
0.0014172
-2.55164e-11
0.00204123
-2.35921e-08
-1.0964e-11
0.00206394
-2.94126e-08
7.80741e-12
0.00207726
-5.63377e-08
9.77411e-12
0.00210403
-1.02314e-07
1.41576e-11
0.00214973
-1.457e-07
2.15506e-11
0.00212755
-1.43355e-07
3.90039e-11
0.00227119
-5.49423e-08
8.14306e-11
0.00254126
1.7175e-07
2.42312e-11
0.00284899
5.01102e-07
-4.12046e-11
0.00316666
6.44685e-07
-8.43446e-11
0.00370219
5.34201e-07
-2.41115e-12
0.00434891
5.35684e-07
-2.73765e-12
0.00464322
3.78805e-07
4.2758e-11
0.00495761
3.13465e-07
6.42315e-11
0.00548413
-3.14732e-08
8.76095e-11
0.00613744
4.24246e-07
8.9356e-11
0.00691761
-4.99562e-07
7.51717e-11
0.00749238
4.27719e-06
7.2419e-11
0.00777719
2.36654e-05
5.78253e-11
0.00714821
0.000110204
5.6276e-11
0.00181179
0.000647771
1.92463e-11
-0.00580289
0.00348462
5.83262e-11
0.000145655
0.00293577
4.95177e-11
0.00244966
0.00184582
-8.57777e-12
0.00275247
-2.31427e-11
0.00204118
9.61259e-09
7.12729e-11
0.00206396
1.43577e-08
7.04962e-11
0.00207716
2.03446e-08
7.21547e-11
0.00210362
2.7388e-08
7.35244e-11
0.00214868
3.62223e-08
6.29637e-11
0.00212582
4.55517e-08
3.66103e-11
0.00226817
6.29233e-08
-1.15197e-11
0.00253595
8.8367e-08
-1.74978e-10
0.00284193
9.99971e-08
-6.28428e-10
0.00315969
1.09038e-07
-7.25374e-10
0.00369685
1.2394e-07
-2.17401e-10
0.00434619
1.31713e-07
-2.35918e-10
0.00464238
3.02408e-08
-3.76483e-10
0.0049576
1.66925e-07
-4.98538e-11
0.00548379
-1.60093e-07
2.13744e-11
0.0061388
5.41461e-07
5.0387e-11
0.00691236
-6.90978e-07
3.82348e-11
0.00750598
6.41704e-06
4.60014e-11
0.00783068
3.4528e-05
3.88181e-11
0.00731989
0.000154834
3.88734e-11
0.00281986
0.00085426
5.48798e-12
-0.00540483
0.00487251
3.55089e-11
0.00024097
0.00462401
6.22427e-11
0.00253067
0.00264038
-5.66692e-12
0.0039495
-2.70526e-11
0.00204124
-9.22169e-09
-2.89348e-11
0.00206394
-1.19487e-08
-4.27298e-11
0.00207723
-1.6194e-08
-4.62725e-11
0.00210393
-2.09605e-08
-5.40331e-11
0.00214951
-2.60507e-08
-6.83428e-11
0.00212718
-2.99036e-08
-9.38658e-11
0.00227065
-2.81313e-08
-1.4767e-10
0.00254065
-1.92433e-08
-4.51995e-11
0.0028484
2.60544e-08
6.8132e-11
0.00316611
5.63253e-08
5.47032e-11
0.00370173
8.2566e-08
3.31863e-10
0.00434894
1.47799e-07
2.95722e-10
0.00464278
1.40148e-07
3.30662e-10
0.00495782
1.31912e-07
2.16456e-10
0.00548318
-8.10413e-08
1.57169e-10
0.00614048
6.12667e-07
1.15529e-10
0.00690456
-7.07341e-07
8.60892e-11
0.00752525
8.22101e-06
7.53466e-11
0.00790209
4.33523e-05
5.1082e-11
0.00753886
0.000188096
3.91474e-11
0.00397761
0.00097399
1.66447e-11
-0.00463316
0.00587726
-1.01557e-12
0.00036647
0.00666137
3.88425e-11
0.00261473
0.00341594
-3.28108e-12
0.00506334
-2.64693e-11
0.00204118
2.42958e-08
8.51936e-11
0.00206396
3.33991e-08
8.27997e-11
0.00207716
6.28634e-08
8.50123e-11
0.00210362
1.12343e-07
8.78533e-11
0.00214867
1.63129e-07
7.94582e-11
0.0021258
1.80949e-07
4.86065e-11
0.0022681
1.28009e-07
1.45523e-11
0.00253584
-3.56846e-08
-1.24194e-10
0.00284181
-3.15384e-07
-5.62927e-10
0.00315951
-4.22816e-07
-6.56134e-10
0.00369656
-2.94868e-07
-2.64357e-10
0.00434625
-2.97252e-07
-2.95058e-10
0.00464197
-3.27592e-08
-4.75807e-10
0.00495791
-3.49597e-07
-1.17587e-10
0.00548269
2.08609e-07
-2.04813e-11
0.00614269
2.40066e-07
3.51197e-12
0.00689516
-6.44545e-07
7.41094e-12
0.00755464
9.05637e-06
9.83039e-12
0.00798731
4.83725e-05
1.68068e-11
0.00778528
0.000206785
7.06102e-12
0.0051566
0.00101259
-1.13485e-11
-0.00321536
0.00626672
-4.16666e-11
0.000531295
0.0092773
3.89749e-11
0.00267465
0.00430526
-5.59679e-13
0.00612494
-2.14909e-11
0.00204123
7.7613e-09
-6.476e-11
0.00206393
1.55198e-08
-2.13756e-11
0.00207724
3.89286e-08
-1.80162e-11
0.00210399
8.05714e-08
-9.14399e-12
0.00214966
1.29781e-07
2.21797e-11
0.0021274
1.53517e-07
7.79429e-11
0.00227087
1.10383e-07
2.22017e-10
0.00254085
-6.68372e-09
1.76767e-10
0.00284859
-1.88768e-07
3.06435e-10
0.00316617
-2.89331e-07
3.3625e-10
0.00370172
-2.25336e-07
-7.13694e-11
0.00434863
-2.5895e-07
6.86107e-12
0.004643
2.11671e-07
2.60497e-10
0.00495788
-6.57039e-07
1.65259e-11
0.00548213
7.9899e-07
-8.18653e-12
0.00614478
-6.17591e-07
-1.95283e-12
0.00688551
5.08899e-07
2.88512e-12
0.00758925
8.13613e-06
5.79544e-13
0.00805613
4.68415e-05
6.87379e-12
0.00803652
0.000213155
7.7751e-12
0.00628815
0.00100158
-9.8862e-12
-0.000982993
0.00600604
-4.95878e-11
0.00075328
0.0125431
6.45738e-12
0.0026756
0.00544572
-2.64548e-12
0.00711816
-1.79513e-11
0.00204121
6.18845e-09
3.39393e-11
0.00206392
2.14647e-08
6.64614e-11
0.00207726
3.65084e-08
7.34538e-11
0.0021041
5.66146e-08
8.99065e-11
0.00214993
8.92432e-08
1.21286e-10
0.00212789
1.4128e-07
1.81183e-10
0.00227149
2.1651e-07
3.05037e-10
0.00254141
2.44098e-07
2.36874e-10
0.00284908
2.30246e-07
1.58166e-10
0.00316631
1.96843e-07
1.49046e-10
0.00370186
1.10383e-07
-5.81785e-11
0.00434778
-2.46054e-08
-4.65966e-11
0.00464398
4.89228e-07
-1.51776e-10
0.00495741
-7.52258e-07
-7.41265e-11
0.00548221
1.10091e-06
-3.13756e-11
0.00614684
-1.18661e-06
-1.146e-11
0.00687472
2.8395e-06
-8.14578e-13
0.00760685
2.03025e-06
5.14602e-13
0.0081457
4.451e-05
-1.36383e-12
0.00829903
0.00022559
-3.81148e-12
0.0072813
0.000986216
-8.42248e-12
0.00152986
0.00536952
-3.63814e-11
0.0010794
0.0159172
-2.06962e-11
0.00258312
0.00685598
-6.82929e-12
0.00818429
-1.5929e-11
0.00204123
3.56363e-09
-1.59097e-11
0.00206395
1.20083e-08
-4.29305e-11
0.00207723
2.38736e-08
-4.80054e-11
0.00210389
3.95366e-08
-5.94551e-11
0.00214938
6.38878e-08
-8.01154e-11
0.002127
1.02629e-07
-1.21362e-10
0.00227058
1.60688e-07
-2.10268e-10
0.00254066
2.16169e-07
-1.05124e-10
0.00284842
2.40986e-07
2.02937e-11
0.0031658
2.23974e-07
3.79915e-11
0.00370191
1.85591e-07
1.97488e-10
0.0043466
-3.23753e-09
1.73651e-10
0.00464501
5.97107e-07
1.87829e-10
0.00495646
-7.53487e-07
1.2012e-10
0.00548282
9.90522e-07
7.57742e-11
0.0061466
-9.61501e-07
3.12907e-11
0.00686827
3.21691e-06
1.97475e-11
0.00766542
-1.46556e-06
8.08621e-12
0.0082251
4.75814e-05
6.69943e-12
0.00844262
0.000232768
1.58499e-12
0.00793169
0.000960107
-7.51447e-12
0.00437198
0.00464236
-2.33145e-11
0.00263972
0.0175044
-4.6224e-11
0.00275611
0.009283
-1.59394e-11
0.00987731
-1.54629e-11
0.00204123
2.52113e-10
2.691e-12
0.00206395
2.16945e-09
6.70422e-12
0.00207724
3.39164e-09
8.01553e-12
0.00210392
5.08494e-09
1.15966e-11
0.00214943
8.5066e-09
1.63405e-11
0.00212711
1.64015e-08
4.16151e-11
0.00227076
3.41536e-08
8.36252e-11
0.00254093
5.84263e-08
1.64256e-10
0.00284876
7.55323e-08
2.25784e-10
0.00316607
8.38285e-08
2.54908e-10
0.00370261
1.02467e-07
2.79613e-10
0.00434575
-6.54666e-08
2.20212e-10
0.00464648
5.01081e-07
1.48882e-10
0.00495586
-5.19359e-07
1.47836e-10
0.00548367
4.58247e-07
9.08254e-11
0.00614542
-2.22369e-09
4.25901e-11
0.00687208
2.00626e-06
2.80687e-11
0.00765196
1.90387e-07
2.07504e-11
0.00824085
4.57552e-05
1.54134e-11
0.00853421
0.000213789
1.07275e-11
0.00824886
0.000853231
1.54017e-12
0.00609257
0.00380915
-1.35581e-11
0.00427064
0.0175359
-3.90702e-11
0.00353219
0.0127442
-1.852e-11
0.0125203
-1.54073e-11
0.00204122
-1.42423e-11
-2.02286e-10
0.00206395
-4.79284e-11
-1.58094e-09
0.00207723
-5.38744e-11
-2.31238e-09
0.00210388
-6.75354e-11
-3.31442e-09
0.00214936
-9.31109e-11
-5.47169e-09
0.00212697
-1.48242e-10
-1.06292e-08
0.00227052
-2.71788e-10
-2.22365e-08
0.00254063
-1.57151e-10
-3.24742e-08
0.00284847
2.06069e-11
-3.73058e-08
0.00316572
7.16403e-11
-3.69543e-08
0.00370275
3.33091e-10
-7.74988e-09
0.00434477
3.09455e-10
-1.25379e-07
0.0046473
2.91434e-10
1.76962e-07
0.00495546
2.1522e-10
2.90187e-08
0.00548409
1.16058e-10
-5.74018e-07
0.00614393
5.42502e-11
1.40424e-06
0.00687788
3.24666e-11
-1.0582e-08
0.00763124
1.45571e-11
3.17049e-06
0.00827612
1.10267e-11
3.46488e-05
0.00869353
4.92957e-12
0.000164508
0.00861678
-3.28419e-12
0.000656952
0.00731523
-1.70031e-11
0.00279665
0.00561216
-4.15394e-11
0.015148
0.00453575
-2.12751e-11
0.0160822
-1.4037e-11
0.0170103
0.00204122
-3.67151e-10
1.05782e-13
0.00206394
-2.77753e-09
1.41729e-12
0.00207722
-4.52894e-09
1.69575e-12
0.00210388
-6.97458e-09
2.54756e-12
0.00214935
-1.18405e-08
4.75149e-12
0.00212696
-2.27962e-08
9.77441e-12
0.00227049
-4.68756e-08
1.93148e-11
0.00254059
-7.74715e-08
5.12349e-11
0.00284834
-1.00947e-07
1.05517e-10
0.00316586
-1.09571e-07
1.23235e-10
0.00370147
-9.8514e-08
1.90612e-10
0.00434836
-7.03023e-08
1.82555e-10
0.00464295
-7.13333e-08
1.6925e-10
0.00495723
5.21571e-09
1.3243e-10
0.00548402
-1.02965e-07
1.09172e-10
0.00613654
1.4071e-07
9.17534e-11
0.00692
-3.08444e-07
7.11346e-11
0.00748563
2.02001e-06
6.41281e-11
0.00775074
1.16272e-05
5.2798e-11
0.00706126
5.60613e-05
4.40605e-11
0.00123215
0.000350513
5.02607e-11
-0.00603921
0.00180631
3.34313e-11
9.57371e-05
0.00143216
-4.21332e-11
0.00240846
0.000957428
-1.79169e-11
0.0014172
-1.43019e-11
0.00204123
-3.24473e-09
7.48358e-13
0.00206395
-1.03326e-08
7.67131e-12
0.00207724
-2.07045e-08
9.53741e-12
0.00210391
-3.44335e-08
1.49595e-11
0.00214942
-5.52873e-08
2.68092e-11
0.00212708
-8.67043e-08
5.20966e-11
0.00227067
-1.29227e-07
1.03222e-10
0.00254079
-1.61861e-07
1.85449e-10
0.00284853
-1.67667e-07
2.13712e-10
0.003166
-1.40144e-07
1.91734e-10
0.0037015
-8.56815e-08
2.27173e-10
0.00434838
-3.13663e-08
1.80303e-10
0.00464286
-6.61254e-08
1.38144e-10
0.00495729
6.72568e-08
9.9229e-11
0.00548384
-1.75797e-07
8.1074e-11
0.00613719
3.20913e-07
7.36129e-11
0.0069174
-5.75864e-07
5.99767e-11
0.0074922
4.21981e-06
5.59666e-11
0.00777704
2.36193e-05
4.97028e-11
0.0071481
0.000110165
3.64328e-11
0.00181165
0.00064774
2.78968e-11
-0.00580293
0.00348461
3.86197e-11
0.000145661
0.00293579
-3.99268e-11
0.00244966
0.00184583
-1.88146e-11
0.00275248
-1.13995e-11
0.00204123
-4.95367e-09
-7.50018e-13
0.00206395
-1.61603e-08
4.20443e-12
0.00207722
-2.72702e-08
4.96905e-12
0.00210387
-4.21821e-08
7.01601e-12
0.00214935
-6.61513e-08
1.09413e-11
0.00212695
-1.02793e-07
2.73733e-11
0.00227048
-1.51401e-07
5.87102e-11
0.00254053
-1.42666e-07
5.8236e-11
0.00284824
-1.02062e-07
4.81483e-11
0.0031657
-5.81319e-08
2.43989e-11
0.00370121
-1.30028e-08
4.26074e-11
0.00434831
2.95544e-08
3.77032e-11
0.00464262
-4.18759e-08
4.46163e-11
0.00495736
1.09526e-07
4.75283e-11
0.00548345
-2.29542e-07
4.97577e-11
0.00613845
4.8255e-07
5.18613e-11
0.00691206
-7.40438e-07
4.39125e-11
0.0075057
6.37815e-06
4.15988e-11
0.00783044
3.44941e-05
3.84453e-11
0.00731969
0.000154804
3.51357e-11
0.00281966
0.00085424
2.31024e-11
-0.0054049
0.0048725
3.62436e-11
0.000240973
0.00462399
-3.0107e-11
0.00253068
0.00264039
-2.00675e-11
0.00394951
-8.40232e-12
0.0020412
-4.25258e-09
1.37421e-11
0.00206391
-4.24395e-09
4.58666e-11
0.00207725
-1.47057e-08
5.10839e-11
0.00210406
-3.89117e-08
6.2641e-11
0.00214984
-6.3638e-08
8.29561e-11
0.00212774
-5.45907e-08
1.22133e-10
0.00227119
3.80394e-08
2.06606e-10
0.00254102
1.84454e-07
6.48128e-11
0.00284866
3.5366e-07
-9.24063e-11
0.00316594
4.12721e-07
-1.18008e-10
0.00370126
2.73913e-07
-2.13231e-10
0.00434855
2.22272e-07
-1.63677e-10
0.00464262
1.02492e-07
-1.22305e-10
0.00495767
8.99477e-08
-6.50507e-11
0.00548302
-1.45359e-07
-1.42202e-11
0.00614035
5.51132e-07
9.50232e-12
0.00690445
-7.58618e-07
9.98667e-12
0.00752517
8.17751e-06
1.67216e-11
0.00790204
4.33176e-05
2.21371e-11
0.00753883
0.000188069
2.43962e-11
0.00397756
0.000973977
1.62479e-11
-0.00463318
0.00587727
2.91415e-11
0.000366476
0.00666138
-1.60297e-11
0.00261474
0.00341594
-2.05417e-11
0.00506334
-9.58651e-12
0.00204123
-1.99107e-08
-1.27763e-11
0.00206392
-1.9243e-08
-4.77753e-12
0.00207721
-3.8055e-08
-4.45343e-12
0.00210394
-7.00903e-08
-3.87314e-12
0.00214956
-9.10999e-08
-3.90417e-12
0.00212727
-8.0691e-08
-1.13349e-12
0.00227076
-2.20341e-10
1.11748e-11
0.00254074
1.75858e-07
-3.36309e-11
0.00284848
4.056e-07
-8.85052e-11
0.00316612
4.62078e-07
-1.05266e-10
0.00370157
2.34286e-07
-3.24587e-11
0.00434889
2.15144e-07
-2.2438e-11
0.00464257
3.3109e-07
4.05934e-11
0.00495793
-2.02915e-07
5.37864e-11
0.00548254
2.33855e-07
6.02766e-11
0.00614249
2.02746e-07
5.23463e-11
0.00689497
-6.84679e-07
4.01324e-11
0.00755443
9.02101e-06
3.76592e-11
0.00798714
4.83415e-05
3.46058e-11
0.00778517
0.000206761
3.27838e-11
0.00515649
0.00101257
2.95342e-11
-0.00321544
0.00626672
4.60171e-11
0.000531301
0.00927728
-3.35636e-12
0.00267465
0.00430526
-1.92147e-11
0.00612495
-1.01003e-11
0.0020412
1.9433e-08
6.03498e-11
0.002064
1.67799e-08
3.24367e-11
0.00207714
3.39465e-08
3.02576e-11
0.00210342
6.4659e-08
2.32944e-11
0.00214815
8.20457e-08
-6.7437e-14
0.00212492
6.25752e-08
-4.04102e-11
0.00226716
-5.33375e-08
-1.52681e-10
0.00253519
-2.66868e-07
-1.83086e-10
0.00284132
-5.41077e-07
-4.47679e-10
0.00315909
-6.30352e-07
-5.27717e-10
0.00369637
-4.11623e-07
5.20324e-11
0.00434568
-4.95434e-07
-1.73901e-11
0.00464206
9.81484e-09
-1.72106e-10
0.00495757
-8.01584e-07
4.76369e-11
0.00548203
6.9033e-07
8.60593e-11
0.00614477
-7.0978e-07
7.88483e-11
0.00688554
4.32715e-07
6.07147e-11
0.0075893
8.07417e-06
5.86498e-11
0.00805614
4.67922e-05
4.82423e-11
0.00803654
0.000213117
4.09647e-11
0.00628817
0.00100155
3.27351e-11
-0.000982976
0.00600604
3.60892e-11
0.000753291
0.0125431
1.43806e-11
0.0026756
0.00544572
-1.45055e-11
0.00711817
-1.12007e-11
0.00204123
4.06184e-09
-1.26043e-11
0.00206392
1.99512e-09
-4.38321e-12
0.00207721
1.16386e-08
-4.02496e-12
0.00210394
3.32939e-08
-3.29425e-12
0.00214956
5.35848e-08
-2.90564e-12
0.00212728
3.69859e-08
2.51257e-13
0.00227078
-9.19948e-08
1.00872e-11
0.00254079
-3.02215e-07
-1.68144e-11
0.00284854
-5.08275e-07
-6.67616e-11
0.00316616
-5.94407e-07
-1.05571e-10
0.00370194
-4.39757e-07
1.29299e-11
0.0043479
-4.72718e-07
8.72905e-12
0.00464396
1.93017e-07
8.81594e-11
0.00495735
-9.4062e-07
8.24476e-11
0.00548216
9.61655e-07
8.44657e-11
0.00614679
-1.29777e-06
7.68468e-11
0.00687468
2.74833e-06
6.74859e-11
0.00760682
1.96694e-06
6.28562e-11
0.00814568
4.44519e-05
5.61308e-11
0.00829901
0.000225541
4.67779e-11
0.00728129
0.000986175
3.70264e-11
0.00152985
0.0053695
3.05908e-11
0.00107941
0.0159172
3.28744e-11
0.00258313
0.00685598
-1.19704e-11
0.0081843
-1.42484e-11
0.00204121
5.39423e-11
1.72621e-11
0.00206393
2.29302e-09
6.00159e-11
0.00207728
1.16424e-09
6.76287e-11
0.00210412
1.90922e-10
8.55957e-11
0.00214995
2.34569e-10
1.20392e-10
0.00212793
2.27598e-09
1.90816e-10
0.00227153
6.42055e-09
3.42108e-10
0.00254143
-1.79064e-08
2.69328e-10
0.00284909
-3.99387e-08
1.25684e-10
0.00316619
-5.16754e-08
7.05324e-11
0.0037021
-7.57431e-08
-6.13608e-11
0.00434674
-2.26608e-07
-6.01676e-11
0.00464521
4.22758e-07
-6.62968e-11
0.0049566
-8.49738e-07
-1.77718e-11
0.00548291
9.2054e-07
3.04644e-11
0.00614666
-1.02199e-06
5.22643e-11
0.00686832
3.16365e-06
6.0533e-11
0.00766546
-1.51819e-06
5.49357e-11
0.00822514
4.75462e-05
5.30891e-11
0.00844266
0.000232739
5.23793e-11
0.00793173
0.000960082
4.47135e-11
0.00437202
0.00464234
2.73974e-11
0.00263975
0.0175044
3.60198e-11
0.00275612
0.009283
-8.8995e-12
0.00987731
-1.88677e-11
0.00204123
-5.59003e-11
-1.89632e-12
0.00206395
-2.28819e-09
1.87851e-12
0.00207721
-1.15455e-09
2.1644e-12
0.00210385
-1.76184e-10
2.93051e-12
0.00214929
-2.06906e-10
5.79763e-12
0.00212687
-2.2259e-09
1.19251e-11
0.00227039
-6.4134e-09
3.70478e-11
0.00254044
1.86806e-08
3.11763e-11
0.00284819
3.947e-08
2.16647e-11
0.00316552
4.75928e-08
-1.56963e-11
0.00370213
1.10169e-07
5.53117e-11
0.00434539
-6.19903e-08
5.06289e-11
0.00464618
5.14464e-07
8.43634e-11
0.00495567
-5.25713e-07
5.07096e-11
0.00548355
4.41858e-07
6.96685e-11
0.00614535
-2.62951e-08
7.55242e-11
0.00687204
1.99178e-06
7.59933e-11
0.00765193
1.80344e-07
6.21945e-11
0.00824085
4.57428e-05
5.90782e-11
0.00853423
0.000213778
5.52942e-11
0.00824889
0.000853221
3.76836e-11
0.00609261
0.00380915
2.80371e-11
0.00427067
0.0175359
2.85175e-11
0.0035322
0.0127443
-1.0203e-11
0.0125203
-1.91233e-11
0.00204121
1.76148e-11
-4.0615e-09
0.00206393
5.92447e-11
-1.98724e-09
0.00207728
6.66942e-11
-1.16291e-08
0.00210412
8.42186e-11
-3.32797e-08
0.00214995
1.18126e-10
-5.35643e-08
0.00212793
1.86327e-10
-3.69671e-08
0.00227153
3.3302e-10
9.19712e-08
0.00254142
2.57531e-10
3.02603e-07
0.00284912
1.20027e-10
5.08009e-07
0.00316602
6.67863e-11
5.89729e-07
0.00370279
-6.20148e-11
4.65082e-07
0.00434476
-6.67051e-11
2.66112e-07
0.00464737
-5.90333e-11
4.17481e-07
0.00495552
-2.40299e-11
1.89773e-07
0.00548414
2.3649e-11
-4.75486e-07
0.00614398
4.82174e-11
1.46884e-06
0.00687793
5.70233e-11
3.50762e-08
0.00763129
5.34305e-11
3.20816e-06
0.00827618
5.06141e-11
3.46744e-05
0.00869359
4.8606e-11
0.000164529
0.00861684
4.32327e-11
0.000656969
0.00731527
2.82279e-11
0.00279666
0.00561219
3.07277e-11
0.015148
0.00453576
-6.38789e-12
0.0160822
-2.3114e-11
0.0170103
0.00204122
2.04043e-11
6.20669e-12
0.00206394
1.02377e-11
7.06361e-12
0.00207722
-6.18544e-12
7.43579e-12
0.00210387
-6.77951e-11
8.12555e-12
0.00214934
-1.18938e-10
9.94255e-12
0.00212693
-1.72527e-10
1.05736e-11
0.00227039
-2.25516e-10
1.15409e-11
0.00254042
-1.06248e-09
-9.53248e-12
0.00284813
-4.06877e-09
-3.23454e-12
0.00316555
-5.31386e-09
-8.12372e-12
0.00370111
-6.22886e-09
-5.67853e-12
0.00434807
1.75728e-09
3.95223e-12
0.00464273
-2.42027e-08
2.91649e-11
0.00495704
3.51691e-08
1.3409e-11
0.00548386
-7.90092e-08
-1.19032e-12
0.00613641
1.61883e-07
-1.00083e-11
0.00691989
-2.88412e-07
-1.94916e-12
0.00748555
2.03713e-06
-2.28813e-14
0.00775069
1.16432e-05
1.76733e-12
0.00706124
5.60764e-05
-2.59944e-12
0.00123214
0.000350526
-1.05339e-10
-0.00603922
0.00180632
5.44056e-10
9.57453e-05
0.00143217
-3.59641e-10
0.00240847
0.000957426
2.32466e-10
0.0014172
-9.92015e-10
0.00204122
4.69015e-12
6.2834e-12
0.00206394
-1.86876e-12
7.28822e-12
0.00207722
-1.43597e-11
7.69532e-12
0.00210387
-3.97002e-11
8.38359e-12
0.00214934
-6.70131e-11
9.36099e-12
0.00212693
-7.50314e-11
7.21778e-12
0.00227039
-8.4669e-11
1.09456e-11
0.00254042
-8.20723e-10
-5.07624e-12
0.00284815
-2.30009e-09
5.27995e-12
0.00316557
-3.38048e-09
1.42746e-12
0.0037011
-6.57918e-09
8.80253e-12
0.00434812
1.11676e-08
8.95228e-12
0.00464268
-4.43383e-08
2.33355e-11
0.00495713
8.20415e-08
6.65425e-12
0.00548369
-1.59599e-07
-8.02949e-12
0.00613706
3.39975e-07
-1.88774e-11
0.00691729
-5.55235e-07
-1.18316e-11
0.00749212
4.23861e-06
-9.0806e-12
0.00777698
2.36363e-05
-4.30967e-12
0.00714806
0.00011018
4.41063e-12
0.00181162
0.000647755
3.57831e-11
-0.00580293
0.00348462
6.3235e-10
0.000145668
0.00293579
-3.2164e-10
0.00244967
0.00184582
-5.94263e-10
0.00275248
-3.68472e-10
0.00204122
-1.76373e-12
2.57484e-12
0.00206394
-8.6133e-12
5.5797e-12
0.00207722
-1.36273e-11
6.13012e-12
0.00210387
-1.80424e-11
7.41495e-12
0.00214934
-2.31965e-11
9.49126e-12
0.00212693
-2.78325e-11
1.37702e-11
0.00227039
-4.49065e-11
1.96789e-11
0.00254042
-2.72265e-10
4.03251e-11
0.00284815
-7.58767e-10
5.2777e-11
0.00316558
-1.69451e-09
5.98741e-11
0.00370107
-7.79933e-09
5.49486e-11
0.00434821
2.18484e-08
3.52014e-11
0.00464255
-5.93086e-08
-1.45658e-12
0.00495726
1.12681e-07
-2.46301e-12
0.00548334
-2.18582e-07
-1.31826e-11
0.00613835
5.00462e-07
-2.56742e-11
0.00691197
-7.21803e-07
-2.3518e-11
0.00750563
6.39426e-06
-2.3012e-11
0.00783039
3.45084e-05
-2.19938e-11
0.00731966
0.000154817
-2.51029e-11
0.00281964
0.000854251
-1.21961e-10
-0.00540491
0.00487251
6.81956e-10
0.000240981
0.00462401
6.18411e-10
0.00253068
0.00264039
-9.11999e-10
0.00394951
-2.80902e-10
0.00204122
1.08484e-11
1.88136e-12
0.00206394
3.0234e-11
3.81772e-12
0.00207722
5.22888e-11
4.15531e-12
0.00210387
8.14037e-11
4.92561e-12
0.00214934
1.19652e-10
6.09656e-12
0.00212693
1.7259e-10
8.65467e-12
0.00227039
2.64695e-10
1.24646e-11
0.00254042
3.74929e-10
3.4644e-11
0.00284815
2.65119e-10
3.87988e-11
0.00316559
-1.03576e-09