/*--------------------------------*- C++ -*----------------------------------*\
| =========                 |                                                 |
| \\      /  F ield         | OpenFOAM: The Open Source CFD Toolbox           |
|  \\    /   O peration     | Version:  4.1                                   |
|   \\  /    A nd           | Web:      www.OpenFOAM.org                      |
|    \\/     M anipulation  |                                                 |
\*---------------------------------------------------------------------------*/
FoamFile
{
    version     2.0;
    format      ascii;
    class       volScalarField;
    location    "0.16";
    object      T;
}
// * * * * * * * * * * * * * * * * * * * * * * * * * * * * * * * * * * * * * //

dimensions      [0 0 0 1 0 0 0];

internalField   nonuniform List<scalar> 
52500
(
0.354682
0.33762
0.347943
0.358932
0.37653
0.419524
0.50007
0.542887
0.540198
0.512409
0.501964
0.529379
0.63505
0.764787
0.840036
0.893403
0.919042
0.974653
1.05784
1.32342
1.90492
2.5196
2.44476
2.2746
2.13095
0.354683
0.337624
0.347948
0.358939
0.37654
0.419541
0.500094
0.54291
0.540218
0.512418
0.50197
0.52938
0.635057
0.764748
0.840083
0.893354
0.918915
0.974495
1.05487
1.31223
1.88226
2.50372
2.44442
2.27389
2.12756
0.354678
0.337624
0.347949
0.358942
0.376546
0.419548
0.500112
0.542941
0.540247
0.512442
0.501987
0.529384
0.63507
0.764653
0.840168
0.893226
0.918637
0.97413
1.0489
1.29006
1.83702
2.46304
2.44167
2.2714
2.11678
0.354696
0.337652
0.34798
0.358972
0.376564
0.419526
0.500037
0.542824
0.540127
0.512344
0.501904
0.529327
0.635086
0.764525
0.840342
0.893018
0.918262
0.973489
1.0406
1.2605
1.77583
2.39973
2.43671
2.26891
2.10102
0.354668
0.337647
0.347974
0.35896
0.376535
0.419438
0.499964
0.542801
0.540107
0.512309
0.50186
0.529283
0.635072
0.764373
0.840543
0.892614
0.917849
0.972209
1.0306
1.22621
1.70124
2.31182
2.42919
2.26573
2.08196
0.354737
0.337646
0.347983
0.359014
0.376653
0.419666
0.500341
0.54342
0.540759
0.512854
0.502334
0.529533
0.63502
0.764571
0.840573
0.89199
0.918304
0.969523
1.01975
1.18956
1.61605
2.20092
2.41326
2.26248
2.05858
0.354742
0.337667
0.348007
0.359033
0.376653
0.419604
0.50024
0.543307
0.540647
0.512767
0.502246
0.529489
0.634729
0.765018
0.840116
0.891711
0.919784
0.963502
1.0096
1.154
1.5269
2.08333
2.37937
2.25165
2.04648
0.354677
0.337679
0.348014
0.359002
0.376565
0.419429
0.499892
0.542664
0.539953
0.512168
0.501721
0.529244
0.634383
0.765628
0.839509
0.891859
0.92048
0.958025
1.0019
1.12098
1.43579
1.96984
2.30646
2.24459
2.02586
0.354746
0.337673
0.348014
0.359042
0.376663
0.419616
0.500252
0.543314
0.540652
0.512776
0.502241
0.529552
0.634098
0.766249
0.839048
0.891804
0.920949
0.95434
0.993932
1.08578
1.33974
1.85
2.21126
2.20172
2.02678
0.354743
0.337673
0.348014
0.359044
0.376669
0.419632
0.500275
0.543352
0.540692
0.512811
0.50226
0.529597
0.633851
0.766605
0.83906
0.891056
0.922396
0.949131
0.989351
1.05051
1.23477
1.70927
2.07498
2.11979
1.98229
0.354695
0.337655
0.347984
0.358979
0.376575
0.419549
0.500065
0.542851
0.54015
0.512356
0.501906
0.529335
0.634995
0.764742
0.840009
0.89339
0.919037
0.974655
1.05787
1.32351
1.90508
2.51972
2.44479
2.2746
2.13103
0.354672
0.337628
0.347953
0.358941
0.376532
0.4195
0.500053
0.542862
0.540157
0.512333
0.501889
0.529321
0.635023
0.764725
0.840069
0.893348
0.918914
0.974499
1.0549
1.31232
1.88242
2.50385
2.44445
2.27389
2.12764
0.354748
0.337667
0.348005
0.35903
0.376652
0.419606
0.500241
0.543321
0.540671
0.512812
0.502278
0.529484
0.634951
0.764574
0.840119
0.893197
0.918617
0.974125
1.04892
1.29012
1.83717
2.46314
2.44172
2.27104
2.1171
0.354667
0.337617
0.34794
0.358928
0.376519
0.419488
0.500048
0.542861
0.540159
0.512335
0.50189
0.529308
0.635095
0.764543
0.840356
0.893028
0.918271
0.973499
1.04063
1.26057
1.77598
2.39985
2.43679
2.26845
2.1014
0.354748
0.337666
0.348004
0.35903
0.37665
0.419604
0.500235
0.543311
0.540661
0.512806
0.50227
0.529466
0.63502
0.764344
0.840528
0.892604
0.917842
0.972211
1.03061
1.22626
1.70138
2.31194
2.42929
2.26533
2.08232
0.35467
0.337625
0.347948
0.358934
0.376519
0.419473
0.500024
0.542829
0.540127
0.512315
0.501869
0.529293
0.635015
0.764588
0.8406
0.892016
0.918327
0.969542
1.01977
1.18961
1.61618
2.20098
2.41338
2.26197
2.05897
0.354694
0.337653
0.34798
0.358973
0.376563
0.419524
0.500042
0.542831
0.540135
0.512358
0.501899
0.529334
0.634764
0.765064
0.84016
0.891748
0.919815
0.963527
1.00963
1.15404
1.52699
2.08342
2.3795
2.25147
2.04678
0.354683
0.337623
0.347948
0.358939
0.37654
0.419541
0.500092
0.542892
0.540196
0.512402
0.501939
0.529392
0.634503
0.765725
0.839574
0.8919
0.920508
0.958044
1.00192
1.12101
1.43586
1.96988
2.30657
2.24453
2.02598
0.354684
0.337625
0.347948
0.35894
0.376541
0.419541
0.500096
0.542912
0.54022
0.512433
0.501956
0.529442
0.634183
0.766332
0.839117
0.891854
0.920987
0.954367
0.99396
1.08582
1.33982
1.84996
2.21145
2.20165
2.02686
0.354683
0.337622
0.347944
0.358933
0.376531
0.419523
0.500074
0.542889
0.540199
0.512423
0.501936
0.529459
0.633925
0.76668
0.83912
0.891099
0.922429
0.949152
0.989373
1.05053
1.23483
1.70919
2.07529
2.1196
1.98234
0.354683
0.337622
0.347944
0.358933
0.376531
0.419521
0.50007
0.542886
0.540197
0.512407
0.501951
0.529361
0.635019
0.76477
0.840028
0.893401
0.919043
0.974659
1.05787
1.32351
1.90508
2.51971
2.44479
2.2746
2.13103
0.354684
0.337624
0.347948
0.358939
0.376539
0.419536
0.50009
0.5429
0.540207
0.512411
0.501955
0.529362
0.635031
0.764733
0.840075
0.89335
0.918914
0.9745
1.0549
1.31232
1.88242
2.50385
2.44445
2.27389
2.12764
0.354682
0.337622
0.347946
0.358937
0.376537
0.419535
0.500083
0.542881
0.540184
0.512387
0.501935
0.529343
0.635054
0.764657
0.840179
0.893238
0.918649
0.974143
1.04893
1.29014
1.83718
2.46314
2.44172
2.27104
2.1171
0.354693
0.337649
0.347975
0.358965
0.376551
0.419499
0.500012
0.542802
0.540109
0.512339
0.501882
0.529298
0.635043
0.764505
0.840333
0.893013
0.91826
0.973493
1.04062
1.26056
1.77598
2.39985
2.43679
2.26845
2.1014
0.354667
0.337619
0.347942
0.358926
0.376511
0.419467
0.500013
0.542822
0.540123
0.512316
0.50187
0.529286
0.635107
0.764418
0.840582
0.892643
0.917871
0.972227
1.03062
1.22627
1.70138
2.31194
2.42929
2.26533
2.08232
0.354745
0.33764
0.347973
0.359002
0.376637
0.419644
0.500332
0.543427
0.540777
0.512901
0.502357
0.529534
0.634988
0.764563
0.840576
0.891994
0.918308
0.969531
1.01976
1.1896
1.61617
2.20098
2.41338
2.26197
2.05897
0.354667
0.337619
0.347942
0.358927
0.376512
0.419469
0.500014
0.542826
0.540128
0.512321
0.501872
0.529312
0.634779
0.76508
0.84017
0.891754
0.919818
0.963529
1.00963
1.15404
1.52699
2.08342
2.3795
2.25147
2.04678
0.354695
0.337654
0.347981
0.358974
0.376566
0.419528
0.500046
0.542832
0.540136
0.512364
0.501893
0.529357
0.63445
0.765685
0.839548
0.891885
0.920498
0.958039
1.00192
1.121
1.43586
1.96988
2.30657
2.24453
2.02598
0.354681
0.33762
0.347945
0.358936
0.376537
0.41954
0.500088
0.542879
0.540179
0.512383
0.501914
0.52941
0.634172
0.766322
0.839108
0.891848
0.920983
0.954365
0.993958
1.08582
1.33981
1.84996
2.21145
2.20165
2.02686
0.354695
0.337654
0.347981
0.358974
0.376566
0.419528
0.500046
0.542832
0.540135
0.512373
0.501879
0.529415
0.633868
0.766633
0.839089
0.891079
0.922417
0.949147
0.989368
1.05053
1.23483
1.70919
2.07529
2.1196
1.98234
0.354683
0.337621
0.347943
0.358932
0.376528
0.419514
0.500062
0.542872
0.540181
0.512394
0.501934
0.529343
0.634998
0.764755
0.840018
0.893393
0.919037
0.974655
1.05787
1.32351
1.90508
2.51971
2.44479
2.2746
2.13103
0.354683
0.337621
0.347943
0.358932
0.376528
0.419514
0.500063
0.542871
0.540179
0.512393
0.501934
0.529341
0.63501
0.764721
0.840067
0.893345
0.91891
0.974497
1.0549
1.31231
1.88242
2.50385
2.44445
2.27389
2.12764
0.354683
0.337621
0.347943
0.358932
0.376528
0.419514
0.500063
0.542871
0.540179
0.512393
0.501934
0.529339
0.63504
0.764649
0.840175
0.893235
0.918646
0.974141
1.04893
1.29013
1.83717
2.46314
2.44172
2.27104
2.1171
0.354683
0.337621
0.347943
0.358932
0.376528
0.419514
0.500063
0.542871
0.54018
0.512393
0.501936
0.529335
0.635084
0.764538
0.840353
0.893024
0.918267
0.973497
1.04063
1.26056
1.77598
2.39985
2.43679
2.26845
2.1014
0.354683
0.337621
0.347943
0.358932
0.376528
0.419514
0.500063
0.542871
0.54018
0.512393
0.501937
0.529331
0.635121
0.764427
0.840588
0.892646
0.917874
0.972228
1.03062
1.22627
1.70138
2.31194
2.42929
2.26533
2.08232
0.354683
0.337621
0.347943
0.358932
0.376528
0.419514
0.500063
0.542871
0.54018
0.512394
0.501936
0.529336
0.635022
0.764597
0.840606
0.892018
0.918328
0.969542
1.01977
1.18961
1.61618
2.20098
2.41338
2.26197
2.05897
0.354683
0.337621
0.347943
0.358932
0.376528
0.419514
0.500064
0.542871
0.54018
0.512397
0.501933
0.529352
0.634787
0.765087
0.840174
0.891756
0.919818
0.963528
1.00963
1.15404
1.52699
2.08342
2.3795
2.25147
2.04678
0.354683
0.337621
0.347943
0.358932
0.376528
0.419514
0.500064
0.542871
0.54018
0.5124
0.501928
0.529377
0.634477
0.76571
0.839564
0.891893
0.920502
0.95804
1.00192
1.121
1.43586
1.96988
2.30657
2.24453
2.02598
0.354683
0.337621
0.347943
0.358932
0.376528
0.419514
0.500064
0.542871
0.54018
0.512404
0.501921
0.529407
0.634146
0.766309
0.839101
0.891843
0.920979
0.954361
0.993956
1.08581
1.33981
1.84996
2.21145
2.20165
2.02686
0.354683
0.337621
0.347943
0.358932
0.376528
0.419514
0.500064
0.54287
0.540179
0.512409
0.501914
0.529435
0.633894
0.766659
0.839106
0.891089
0.922421
0.949147
0.98937
1.05053
1.23483
1.70919
2.07529
2.1196
1.98234
0.354677
0.337617
0.347939
0.358927
0.376523
0.419497
0.500054
0.542895
0.54021
0.512425
0.501957
0.529354
0.634982
0.764732
0.839996
0.893375
0.919021
0.974643
1.05786
1.3235
1.90508
2.51971
2.44478
2.2746
2.13104
0.354677
0.337617
0.347939
0.358928
0.376523
0.419497
0.500054
0.542892
0.540206
0.512421
0.501954
0.529351
0.634997
0.7647
0.840046
0.893328
0.918896
0.974486
1.05489
1.31231
1.88241
2.50383
2.44443
2.27389
2.12765
0.354681
0.337619
0.347941
0.35893
0.376525
0.419515
0.50006
0.542859
0.540164
0.512374
0.50192
0.529331
0.635046
0.76465
0.840173
0.893233
0.918644
0.974139
1.04893
1.29014
1.83716
2.46316
2.44169
2.27141
2.11686
0.354681
0.337619
0.347941
0.35893
0.376526
0.419515
0.50006
0.542859
0.540165
0.512375
0.501921
0.529328
0.63509
0.76454
0.840351
0.893023
0.918266
0.973495
1.04062
1.26057
1.77597
2.39989
2.43676
2.26902
2.10105
0.354678
0.337618
0.34794
0.358928
0.376523
0.419498
0.500055
0.542891
0.540205
0.51242
0.501957
0.529341
0.63511
0.764407
0.840567
0.89263
0.91786
0.972218
1.03062
1.22626
1.70137
2.31193
2.42924
2.26548
2.08222
0.35468
0.337619
0.347941
0.35893
0.376525
0.419505
0.500063
0.542893
0.540207
0.512424
0.501964
0.529356
0.635022
0.764582
0.840585
0.891999
0.918311
0.96953
1.01976
1.1896
1.61617
2.20096
2.41335
2.26198
2.05898
0.354678
0.337617
0.347939
0.358928
0.376523
0.419499
0.500053
0.542887
0.540202
0.512425
0.501958
0.529371
0.634785
0.765069
0.840151
0.891735
0.919801
0.963515
1.00961
1.15403
1.52698
2.08341
2.37949
2.25143
2.0468
0.354682
0.337619
0.347941
0.35893
0.376527
0.419516
0.500061
0.542861
0.540168
0.512388
0.501923
0.529379
0.63449
0.765714
0.839562
0.891889
0.920497
0.958035
1.00191
1.121
1.43585
1.96988
2.30657
2.24451
2.02599
0.354678
0.337618
0.34794
0.358929
0.376524
0.419501
0.500058
0.542898
0.540213
0.512438
0.501951
0.529426
0.634142
0.766295
0.839084
0.891829
0.920967
0.954352
0.993947
1.08581
1.3398
1.84995
2.21145
2.20165
2.02686
0.354679
0.337619
0.347941
0.35893
0.376526
0.419504
0.500063
0.542904
0.540219
0.512446
0.501949
0.529459
0.633895
0.766648
0.839092
0.891076
0.922412
0.949139
0.989364
1.05052
1.23482
1.70918
2.07529
2.1196
1.98234
0.354683
0.337621
0.347943
0.358933
0.376529
0.419515
0.500063
0.542872
0.540181
0.512394
0.501934
0.529343
0.634998
0.764755
0.840018
0.893393
0.919036
0.974655
1.05787
1.3235
1.90508
2.51971
2.44479
2.27461
2.13103
0.354683
0.337621
0.347944
0.358933
0.376528
0.419515
0.500064
0.542871
0.540179
0.512393
0.501934
0.529342
0.635011
0.764721
0.840067
0.893344
0.91891
0.974497
1.0549
1.31231
1.88241
2.50384
2.44445
2.2739
2.12764
0.354683
0.337621
0.347944
0.358932
0.376528
0.419515
0.500064
0.54287
0.540179
0.512393
0.501934
0.529339
0.63504
0.764649
0.840175
0.893235
0.918645
0.974141
1.04893
1.29013
1.83717
2.46314
2.44172
2.27104
2.1171
0.354684
0.337622
0.347944
0.358933
0.376529
0.419517
0.500063
0.542868
0.540177
0.512393
0.501939
0.52934
0.635091
0.764541
0.840353
0.893023
0.918266
0.973496
1.04062
1.26056
1.77598
2.39985
2.43679
2.26845
2.1014
0.354683
0.337621
0.347944
0.358932
0.376528
0.419515
0.500064
0.542871
0.54018
0.512393
0.501937
0.529331
0.635122
0.764427
0.840588
0.892646
0.917874
0.972228
1.03062
1.22627
1.70138
2.31194
2.42929
2.26533
2.08231
0.354684
0.337622
0.347944
0.358933
0.376529
0.419517
0.500064
0.542868
0.540178
0.512395
0.50194
0.529342
0.63503
0.7646
0.840606
0.892017
0.918327
0.969541
1.01977
1.1896
1.61618
2.20099
2.41338
2.26197
2.05899
0.354683
0.337621
0.347944
0.358932
0.376528
0.419515
0.500064
0.542871
0.54018
0.512397
0.501934
0.529354
0.634789
0.765088
0.840175
0.891756
0.919819
0.963528
1.00963
1.15404
1.52699
2.08341
2.3795
2.25147
2.04677
0.354683
0.337621
0.347944
0.358933
0.376529
0.419515
0.500065
0.542872
0.540182
0.512402
0.501931
0.52938
0.634481
0.765714
0.839567
0.891895
0.920503
0.95804
1.00192
1.121
1.43586
1.96988
2.30658
2.24453
2.02594
0.354683
0.337621
0.347944
0.358933
0.376529
0.419517
0.500067
0.542877
0.540186
0.51241
0.501929
0.529415
0.634155
0.766316
0.839106
0.891847
0.920982
0.954363
0.993957
1.08581
1.33981
1.84996
2.21145
2.20165
2.02683
0.354683
0.337622
0.347944
0.358933
0.37653
0.419519
0.500069
0.54288
0.540189
0.512415
0.501924
0.529446
0.633907
0.766667
0.839111
0.891092
0.922424
0.949149
0.989372
1.05053
1.23483
1.70919
2.07529
2.11961
1.98232
0.354683
0.337621
0.347943
0.358932
0.376528
0.419514
0.500062
0.542872
0.540181
0.512394
0.501934
0.529343
0.634998
0.764755
0.840018
0.893393
0.919036
0.974655
1.05787
1.32351
1.90508
2.51971
2.44479
2.2746
2.13103
0.354683
0.337621
0.347943
0.358932
0.376528
0.419514
0.500063
0.542871
0.540179
0.512393
0.501934
0.529341
0.63501
0.764721
0.840067
0.893345
0.91891
0.974497
1.0549
1.31231
1.88242
2.50385
2.44445
2.27389
2.12764
0.354683
0.337621
0.347943
0.358932
0.376528
0.419514
0.500063
0.542871
0.540179
0.512393
0.501934
0.529339
0.63504
0.764649
0.840175
0.893235
0.918646
0.974141
1.04893
1.29013
1.83717
2.46314
2.44172
2.27104
2.1171
0.354683
0.337621
0.347943
0.358932
0.376528
0.419514
0.500063
0.542871
0.54018
0.512393
0.501936
0.529335
0.635084
0.764538
0.840353
0.893024
0.918267
0.973497
1.04063
1.26056
1.77598
2.39985
2.43679
2.26845
2.1014
0.354683
0.337621
0.347943
0.358932
0.376528
0.419514
0.500063
0.542871
0.54018
0.512393
0.501937
0.529331
0.635121
0.764427
0.840588
0.892646
0.917874
0.972228
1.03062
1.22627
1.70138
2.31194
2.42929
2.26533
2.08232
0.354683
0.337621
0.347943
0.358932
0.376528
0.419514
0.500063
0.542871
0.54018
0.512394
0.501936
0.529336
0.635022
0.764597
0.840606
0.892018
0.918328
0.969542
1.01977
1.18961
1.61618
2.20098
2.41338
2.26197
2.05897
0.354683
0.337621
0.347943
0.358932
0.376528
0.419514
0.500064
0.542871
0.54018
0.512397
0.501933
0.529352
0.634787
0.765087
0.840174
0.891756
0.919818
0.963528
1.00963
1.15404
1.52699
2.08342
2.3795
2.25147
2.04678
0.354683
0.337621
0.347943
0.358932
0.376528
0.419514
0.500064
0.542871
0.54018
0.5124
0.501928
0.529377
0.634477
0.76571
0.839564
0.891893
0.920502
0.95804
1.00192
1.121
1.43586
1.96988
2.30657
2.24453
2.02598
0.354683
0.337621
0.347943
0.358932
0.376528
0.419514
0.500064
0.542871
0.54018
0.512404
0.501921
0.529407
0.634146
0.766309
0.839101
0.891843
0.920979
0.954361
0.993956
1.08581
1.33981
1.84996
2.21145
2.20165
2.02686
0.354683
0.337621
0.347943
0.358932
0.376528
0.419514
0.500064
0.54287
0.540179
0.512409
0.501914
0.529435
0.633894
0.766659
0.839106
0.891089
0.922421
0.949147
0.98937
1.05053
1.23483
1.70919
2.07529
2.1196
1.98234
0.354683
0.337622
0.347944
0.358933
0.376531
0.419521
0.50007
0.542886
0.540197
0.512407
0.501951
0.529361
0.635019
0.76477
0.840028
0.893401
0.919043
0.974659
1.05787
1.32351
1.90508
2.51971
2.44479
2.2746
2.13103
0.354684
0.337624
0.347948
0.358939
0.376539
0.419536
0.50009
0.5429
0.540207
0.512411
0.501955
0.529362
0.635031
0.764733
0.840075
0.89335
0.918914
0.9745
1.0549
1.31232
1.88242
2.50385
2.44445
2.27389
2.12764
0.354682
0.337622
0.347946
0.358937
0.376537
0.419535
0.500083
0.542881
0.540184
0.512387
0.501935
0.529343
0.635054
0.764657
0.840179
0.893238
0.918649
0.974143
1.04893
1.29014
1.83718
2.46314
2.44172
2.27104
2.1171
0.354693
0.337649
0.347975
0.358965
0.376551
0.419499
0.500012
0.542802
0.540109
0.512339
0.501882
0.529298
0.635043
0.764505
0.840333
0.893013
0.91826
0.973493
1.04062
1.26056
1.77598
2.39985
2.43679
2.26845
2.1014
0.354667
0.337619
0.347942
0.358926
0.376511
0.419467
0.500013
0.542822
0.540123
0.512316
0.50187
0.529286
0.635107
0.764418
0.840582
0.892643
0.917871
0.972227
1.03062
1.22627
1.70138
2.31194
2.42929
2.26533
2.08232
0.354745
0.33764
0.347973
0.359002
0.376637
0.419644
0.500332
0.543427
0.540777
0.512901
0.502357
0.529534
0.634988
0.764563
0.840576
0.891994
0.918308
0.969531
1.01976
1.1896
1.61617
2.20098
2.41338
2.26197
2.05897
0.354667
0.337619
0.347942
0.358927
0.376512
0.419469
0.500014
0.542826
0.540128
0.512321
0.501872
0.529313
0.634779
0.76508
0.84017
0.891754
0.919818
0.963529
1.00963
1.15404
1.52699
2.08342
2.3795
2.25147
2.04678
0.354695
0.337654
0.347981
0.358974
0.376566
0.419528
0.500046
0.542832
0.540136
0.512364
0.501893
0.529357
0.63445
0.765685
0.839548
0.891885
0.920498
0.958039
1.00192
1.121
1.43586
1.96988
2.30657
2.24453
2.02598
0.354681
0.33762
0.347945
0.358936
0.376537
0.41954
0.500088
0.542879
0.540179
0.512383
0.501914
0.52941
0.634172
0.766322
0.839108
0.891848
0.920983
0.954365
0.993958
1.08582
1.33981
1.84996
2.21145
2.20165
2.02686
0.354695
0.337654
0.347981
0.358974
0.376566
0.419528
0.500046
0.542832
0.540135
0.512373
0.501879
0.529415
0.633868
0.766633
0.839089
0.891079
0.922417
0.949147
0.989368
1.05053
1.23483
1.70919
2.07529
2.1196
1.98234
0.354695
0.337655
0.347984
0.358979
0.376575
0.419549
0.500065
0.542851
0.54015
0.512356
0.501906
0.529335
0.634995
0.764742
0.840009
0.89339
0.919037
0.974655
1.05787
1.32351
1.90508
2.51972
2.44479
2.2746
2.13103
0.354672
0.337628
0.347953
0.358941
0.376532
0.4195
0.500053
0.542862
0.540157
0.512333
0.501889
0.529321
0.635023
0.764725
0.840069
0.893348
0.918914
0.974499
1.0549
1.31232
1.88242
2.50385
2.44445
2.27389
2.12764
0.354748
0.337667
0.348005
0.35903
0.376652
0.419606
0.500241
0.543321
0.540671
0.512812
0.502278
0.529484
0.634951
0.764574
0.840119
0.893197
0.918617
0.974125
1.04892
1.29012
1.83717
2.46314
2.44172
2.27104
2.1171
0.354667
0.337617
0.34794
0.358928
0.376519
0.419488
0.500048
0.542861
0.540159
0.512335
0.50189
0.529308
0.635095
0.764543
0.840356
0.893028
0.918271
0.973499
1.04063
1.26057
1.77598
2.39985
2.43679
2.26845
2.1014
0.354748
0.337666
0.348004
0.35903
0.37665
0.419604
0.500235
0.543311
0.540661
0.512806
0.50227
0.529466
0.63502
0.764344
0.840528
0.892604
0.917842
0.972211
1.03061
1.22626
1.70138
2.31194
2.42929
2.26533
2.08232
0.354671
0.337625
0.347948
0.358934
0.376519
0.419474
0.500024
0.542829
0.540126
0.512315
0.501869
0.529293
0.635015
0.764588
0.8406
0.892016
0.918327
0.969542
1.01977
1.18961
1.61618
2.20098
2.41338
2.26197
2.05897
0.354694
0.337653
0.34798
0.358973
0.376563
0.419524
0.500042
0.542831
0.540135
0.512358
0.501899
0.529334
0.634764
0.765064
0.84016
0.891748
0.919815
0.963527
1.00963
1.15404
1.52699
2.08342
2.3795
2.25147
2.04678
0.354683
0.337623
0.347947
0.358939
0.37654
0.419541
0.500091
0.542892
0.540196
0.512401
0.501938
0.529392
0.634503
0.765725
0.839574
0.8919
0.920508
0.958044
1.00192
1.12101
1.43586
1.96988
2.30657
2.24453
2.02598
0.354684
0.337625
0.347948
0.35894
0.376541
0.419541
0.500097
0.542912
0.54022
0.512434
0.501957
0.529442
0.634183
0.766332
0.839117
0.891854
0.920987
0.954367
0.99396
1.08582
1.33982
1.84996
2.21145
2.20165
2.02686
0.354683
0.337622
0.347944
0.358933
0.376531
0.419523
0.500074
0.542889
0.540199
0.512422
0.501936
0.529459
0.633925
0.76668
0.83912
0.891099
0.922429
0.949152
0.989373
1.05053
1.23483
1.70919
2.07529
2.1196
1.98234
0.354682
0.337624
0.347949
0.358942
0.376547
0.419561
0.500107
0.542906
0.540208
0.512401
0.501962
0.529384
0.635065
0.764791
0.840035
0.893402
0.919041
0.974652
1.05784
1.32343
1.90492
2.51962
2.44473
2.27505
2.13066
0.354686
0.337645
0.347972
0.358961
0.376548
0.419491
0.500011
0.54284
0.540154
0.512379
0.501924
0.529341
0.63499
0.764689
0.84004
0.893325
0.918892
0.974481
1.05486
1.31223
1.88225
2.5037
2.44438
2.27395
2.12751
0.354667
0.337621
0.347945
0.358932
0.376523
0.419492
0.500047
0.542866
0.540165
0.512345
0.501908
0.529338
0.63508
0.764664
0.840178
0.893234
0.918643
0.974133
1.0489
1.29006
1.83702
2.46303
2.44165
2.27137
2.11682
0.354734
0.337639
0.347974
0.359007
0.37665
0.419652
0.50036
0.543532
0.540891
0.513004
0.502447
0.529593
0.635046
0.764468
0.840283
0.892965
0.918216
0.973459
1.04058
1.26048
1.77582
2.39973
2.43671
2.26891
2.10103
0.354679
0.337649
0.347976
0.358964
0.376544
0.419473
0.49998
0.542767
0.540063
0.51226
0.501831
0.529267
0.63509
0.764396
0.840563
0.892629
0.91786
0.972214
1.0306
1.22621
1.70124
2.31182
2.42919
2.26573
2.08196
0.35468
0.337674
0.348008
0.358998
0.376567
0.419443
0.499918
0.542724
0.540024
0.512247
0.501802
0.529255
0.634946
0.764513
0.840538
0.891972
0.918294
0.969515
1.01974
1.18956
1.61605
2.20092
2.41326
2.26248
2.05858
0.354735
0.337642
0.347979
0.359007
0.376639
0.419639
0.500316
0.543393
0.540728
0.512817
0.502296
0.529521
0.634771
0.765056
0.840143
0.89173
0.919798
0.963511
1.00961
1.154
1.5269
2.08333
2.37937
2.25165
2.04648
0.354739
0.337671
0.348014
0.359045
0.376673
0.419645
0.500285
0.543349
0.540683
0.512789
0.502254
0.529527
0.634434
0.765649
0.839511
0.891853
0.920473
0.958018
1.00189
1.12097
1.43578
1.96983
2.30646
2.24459
2.02586
0.354673
0.337649
0.347976
0.358962
0.376536
0.419448
0.499957
0.542741
0.54003
0.512222
0.501771
0.529318
0.634116
0.766275
0.839077
0.891828
0.92097
0.954354
0.993943
1.08579
1.33974
1.85
2.21125
2.20172
2.02678
0.354746
0.337696
0.348041
0.359069
0.376681
0.419572
0.500181
0.543311
0.540671
0.512845
0.502277
0.5296
0.633774
0.766513
0.838978
0.890992
0.922349
0.9491
0.989327
1.05049
1.23476
1.70927
2.07497
2.11978
1.98229
0.354675
0.337656
0.347987
0.358978
0.376563
0.419501
0.500026
0.542831
0.540122
0.512311
0.501838
0.529428
0.633888
0.766379
0.840167
0.888943
0.924884
0.945139
0.983175
1.0216
1.14003
1.52978
1.80164
2.04502
1.91738
0.354752
0.337676
0.348018
0.35905
0.376683
0.419668
0.50031
0.543382
0.540725
0.512858
0.502305
0.529662
0.634128
0.765604
0.841358
0.887739
0.92451
0.946891
0.974151
1.00536
1.07745
1.32052
1.53325
1.99644
1.88429
0.354684
0.337662
0.347994
0.358989
0.376583
0.419549
0.500067
0.542856
0.540144
0.512335
0.501863
0.529444
0.634246
0.765466
0.841417
0.88827
0.922821
0.94943
0.965884
0.99883
1.03311
1.15723
1.39809
1.86431
1.76783
0.35469
0.337687
0.348022
0.359014
0.376591
0.419499
0.499981
0.542761
0.540051
0.512265
0.501794
0.529394
0.63417
0.765536
0.84108
0.888784
0.922282
0.9487
0.967598
0.985557
1.00963
1.06351
1.22022
1.53554
1.63489
0.35475
0.33768
0.348024
0.359058
0.376692
0.419678
0.500317
0.543376
0.540712
0.512832
0.50228
0.529638
0.634179
0.765533
0.841111
0.888623
0.922582
0.947987
0.967889
0.982101
0.997212
1.01967
1.08162
1.26203
1.46142
0.354731
0.337675
0.348019
0.359047
0.376666
0.419606
0.50025
0.54333
0.540664
0.512768
0.502221
0.529596
0.634161
0.765512
0.841093
0.88865
0.922475
0.948142
0.967424
0.982035
0.992281
1.00351
1.02257
1.08053
1.21145
0.354743
0.337698
0.348044
0.359068
0.376668
0.419549
0.500149
0.543216
0.540553
0.512688
0.50214
0.529533
0.634094
0.76547
0.841064
0.888631
0.922488
0.948057
0.967518
0.981645
0.991822
0.99852
1.0059
1.01934
1.05905
0.354742
0.337701
0.348048
0.359074
0.376678
0.419564
0.50017
0.543238
0.540571
0.512695
0.502141
0.52953
0.634084
0.765464
0.841064
0.888633
0.922485
0.948079
0.967455
0.981716
0.991467
0.997955
1.00178
1.00582
1.01381
0.354734
0.33768
0.348025
0.359054
0.376676
0.419623
0.500265
0.543333
0.540662
0.512757
0.502212
0.52959
0.63416
0.765512
0.841088
0.888646
0.922492
0.948078
0.967465
0.981678
0.991495
0.997694
1.00124
1.00311
1.00484
0.354756
0.337706
0.348053
0.359086
0.376706
0.419641
0.500247
0.543299
0.540634
0.512766
0.502211
0.529585
0.63412
0.765488
0.841079
0.888644
0.922493
0.94808
0.967466
0.981679
0.991483
0.997677
1.0011
1.00264
1.00321
0.354679
0.337687
0.348026
0.359018
0.376591
0.419478
0.499954
0.542738
0.540023
0.512221
0.501758
0.529372
0.634165
0.765525
0.84111
0.888669
0.922511
0.948093
0.967475
0.981684
0.991486
0.997675
1.00108
1.00256
1.00289
0.354748
0.33768
0.348024
0.359058
0.376693
0.419681
0.500331
0.543409
0.540743
0.512848
0.502299
0.529658
0.634207
0.765543
0.841109
0.88866
0.922502
0.948085
0.967469
0.98168
0.991482
0.997672
1.00108
1.00254
1.00283
0.354746
0.33768
0.348025
0.359058
0.376691
0.419675
0.500328
0.543408
0.540741
0.512842
0.502287
0.529644
0.634189
0.765536
0.841108
0.888661
0.922503
0.948086
0.96747
0.981681
0.991483
0.997672
1.00108
1.00254
1.00282
0.354679
0.337686
0.348025
0.359017
0.376589
0.419476
0.49995
0.54273
0.540015
0.512218
0.501753
0.529368
0.634159
0.765523
0.841109
0.888668
0.92251
0.948092
0.967474
0.981683
0.991485
0.997673
1.00108
1.00254
1.00282
0.354756
0.337702
0.348048
0.359079
0.376695
0.41962
0.500222
0.543276
0.540615
0.512758
0.50221
0.529588
0.634133
0.765496
0.841082
0.888644
0.922491
0.948078
0.967464
0.981677
0.99148
0.99767
1.00108
1.00254
1.00282
0.354732
0.337676
0.348019
0.359046
0.376666
0.419606
0.500256
0.543346
0.540679
0.512776
0.502225
0.529596
0.634157
0.765518
0.841098
0.888655
0.922499
0.948083
0.967468
0.981679
0.991482
0.997671
1.00108
1.00254
1.00282
0.354732
0.337677
0.34802
0.359047
0.376667
0.419608
0.500259
0.543349
0.540682
0.512775
0.502225
0.529595
0.634156
0.765517
0.841097
0.888654
0.922499
0.948083
0.967468
0.981679
0.991482
0.997671
1.00108
1.00254
1.00282
0.354755
0.337705
0.348052
0.359085
0.376705
0.419639
0.500252
0.543313
0.540648
0.512774
0.502218
0.529591
0.634129
0.765494
0.841083
0.888646
0.922494
0.948081
0.967467
0.981678
0.991481
0.997671
1.00108
1.00254
1.00282
0.354681
0.337689
0.348029
0.359022
0.376596
0.419491
0.499959
0.542727
0.540008
0.512202
0.501742
0.529359
0.634156
0.765519
0.841106
0.888666
0.922509
0.948091
0.967474
0.981683
0.991485
0.997673
1.00108
1.00254
1.00282
0.354756
0.337708
0.348057
0.359092
0.376715
0.419657
0.500273
0.543328
0.54066
0.512782
0.502225
0.529597
0.634132
0.765494
0.841082
0.888645
0.922493
0.94808
0.967466
0.981678
0.991481
0.997671
1.00108
1.00254
1.00282
0.354733
0.337675
0.348018
0.359045
0.376664
0.419604
0.500244
0.543324
0.540657
0.512756
0.502217
0.529597
0.634173
0.765524
0.841098
0.888653
0.922497
0.948081
0.967466
0.981678
0.991481
0.99767
1.00108
1.00254
1.00282
0.354744
0.337706
0.348053
0.359081
0.37669
0.419586
0.500203
0.543287
0.540623
0.512741
0.502185
0.529567
0.634109
0.765481
0.841076
0.888643
0.922492
0.948079
0.967466
0.981678
0.991481
0.997671
1.00108
1.00254
1.00282
0.354733
0.337675
0.348018
0.359045
0.376664
0.419604
0.500244
0.543326
0.540659
0.512757
0.502219
0.529598
0.634174
0.765525
0.841099
0.888654
0.922498
0.948082
0.967467
0.981678
0.991481
0.997671
1.00108
1.00254
1.00282
0.354756
0.337709
0.348058
0.359093
0.376717
0.41966
0.500277
0.543334
0.540667
0.512788
0.502231
0.529603
0.634138
0.765497
0.841084
0.888647
0.922495
0.948081
0.967467
0.981679
0.991482
0.997671
1.00108
1.00254
1.00282
0.354681
0.33769
0.34803
0.359023
0.376597
0.419491
0.49996
0.54273
0.54001
0.512199
0.50174
0.529357
0.634154
0.765519
0.841107
0.888668
0.922512
0.948093
0.967476
0.981685
0.991485
0.997673
1.00108
1.00254
1.00282
0.354758
0.337709
0.348058
0.359093
0.376718
0.419664
0.500277
0.543329
0.540662
0.512789
0.502236
0.529612
0.634151
0.765501
0.841083
0.888644
0.922492
0.948079
0.967465
0.981678
0.991481
0.997671
1.00108
1.00254
1.00282
0.354731
0.337675
0.348018
0.359045
0.376663
0.4196
0.500244
0.543329
0.54066
0.512753
0.502208
0.529585
0.634157
0.765517
0.841096
0.888654
0.922499
0.948083
0.967468
0.981679
0.991482
0.997671
1.00108
1.00254
1.00282
0.354746
0.337706
0.348053
0.359082
0.37669
0.419587
0.500198
0.543272
0.540609
0.512735
0.502184
0.529569
0.634115
0.765481
0.841072
0.888637
0.922487
0.948075
0.967463
0.981676
0.99148
0.99767
1.00108
1.00254
1.00282
0.354732
0.337674
0.348017
0.359044
0.376662
0.4196
0.500239
0.543315
0.540647
0.512749
0.502208
0.529588
0.634164
0.765518
0.841094
0.88865
0.922495
0.94808
0.967465
0.981677
0.991481
0.99767
1.00108
1.00254
1.00282
0.354756
0.337705
0.348053
0.359085
0.376704
0.419638
0.500246
0.543299
0.540635
0.512768
0.502211
0.529584
0.634118
0.765488
0.841079
0.888644
0.922492
0.948079
0.967466
0.981678
0.991481
0.997671
1.00108
1.00254
1.00282
0.354679
0.337686
0.348024
0.359016
0.376587
0.41947
0.499946
0.542725
0.540009
0.512207
0.501741
0.529353
0.634143
0.765513
0.841104
0.888665
0.922509
0.948091
0.967474
0.981683
0.991485
0.997673
1.00108
1.00254
1.00282
0.354746
0.337679
0.348023
0.359056
0.376689
0.419672
0.500327
0.543406
0.540739
0.512841
0.502281
0.529636
0.634177
0.765529
0.841103
0.888658
0.922501
0.948084
0.967469
0.98168
0.991482
0.997671
1.00108
1.00254
1.00282
0.354745
0.337676
0.348019
0.35905
0.376678
0.419646
0.500296
0.543373
0.54071
0.51282
0.502265
0.529622
0.634168
0.765527
0.841103
0.888657
0.9225
0.948083
0.967468
0.981679
0.991482
0.997671
1.00108
1.00254
1.00282
0.354677
0.337683
0.34802
0.35901
0.376581
0.419466
0.499939
0.542728
0.540017
0.512228
0.501753
0.52936
0.63414
0.765514
0.841106
0.888666
0.922509
0.948091
0.967473
0.981683
0.991484
0.997673
1.00108
1.00254
1.00282
0.354744
0.337673
0.348014
0.359043
0.376665
0.419621
0.500268
0.543347
0.540685
0.512806
0.50225
0.529609
0.634158
0.765523
0.841102