/*--------------------------------*- C++ -*----------------------------------*\
| =========                 |                                                 |
| \\      /  F ield         | OpenFOAM: The Open Source CFD Toolbox           |
|  \\    /   O peration     | Version:  4.1                                   |
|   \\  /    A nd           | Web:      www.OpenFOAM.org                      |
|    \\/     M anipulation  |                                                 |
\*---------------------------------------------------------------------------*/
FoamFile
{
    version     2.0;
    format      ascii;
    class       volVectorField;
    location    "0.16";
    object      U;
}
// * * * * * * * * * * * * * * * * * * * * * * * * * * * * * * * * * * * * * //

dimensions      [0 1 -1 0 0 0 0];

internalField   nonuniform List<vector> 
52500
(
(1.79794 -3.03853e-07 -0.00227402)
(1.8094 -2.32273e-06 -0.00211225)
(1.79472 -4.2472e-06 -0.00217061)
(1.77389 -6.72532e-06 -0.0022363)
(1.74041 -1.11544e-05 -0.00234492)
(1.67932 -2.04495e-05 -0.00262213)
(1.58097 -3.86641e-05 -0.00311628)
(1.4729 -5.56506e-05 -0.00341853)
(1.37534 -6.23623e-05 -0.00343552)
(1.28776 -6.04246e-05 -0.00327956)
(1.22977 -5.20625e-05 -0.00321057)
(1.22698 -3.77877e-05 -0.00338351)
(1.28323 -2.96673e-05 -0.00406572)
(1.37775 -1.48121e-05 -0.00486709)
(1.47683 -2.35752e-05 -0.00530579)
(1.56591 7.76517e-06 -0.00560436)
(1.64213 -3.83387e-05 -0.00573133)
(1.68422 0.000192532 -0.00607118)
(1.65397 0.000953121 -0.00668982)
(1.41162 0.00351167 -0.00865905)
(0.574733 0.0129312 -0.0134342)
(-0.333328 0.0319734 -0.0178819)
(-0.154104 0.0256731 -0.0169776)
(0.0756734 0.0241859 -0.015961)
(0.339228 0.0279133 -0.015132)
(1.79794 7.32195e-07 -0.00227396)
(1.8094 -1.56772e-06 -0.00211211)
(1.79472 -2.82208e-06 -0.00217045)
(1.77388 -4.24701e-06 -0.00223611)
(1.7404 -9.37742e-06 -0.00234465)
(1.6793 -2.48569e-05 -0.00262173)
(1.58094 -5.96428e-05 -0.00311559)
(1.47288 -9.1089e-05 -0.00341801)
(1.37534 -0.000103183 -0.00343526)
(1.28777 -0.000102007 -0.00327934)
(1.2298 -8.71403e-05 -0.00321069)
(1.22701 -6.18876e-05 -0.00338363)
(1.28325 -5.38886e-05 -0.00406596)
(1.37775 -2.07261e-05 -0.00486696)
(1.47685 -5.71809e-05 -0.00530619)
(1.56589 3.27034e-05 -0.00560392)
(1.64231 -0.000107703 -0.00573114)
(1.68509 0.0005979 -0.00606813)
(1.65697 0.00291787 -0.00666496)
(1.42374 0.0106411 -0.00856655)
(0.605005 0.0386907 -0.0131818)
(-0.310434 0.097338 -0.0176509)
(-0.1523 0.0780829 -0.016894)
(0.0787241 0.0711186 -0.0158783)
(0.34303 0.0833932 -0.0150239)
(1.79794 -5.56343e-06 -0.00227414)
(1.8094 -2.07207e-05 -0.00211227)
(1.79472 -3.95123e-05 -0.00217062)
(1.77389 -6.41878e-05 -0.00223625)
(1.7404 -0.000100473 -0.00234472)
(1.6793 -0.000155519 -0.00262165)
(1.58094 -0.000227643 -0.00311517)
(1.47288 -0.000238267 -0.00341727)
(1.37535 -0.000207425 -0.00343397)
(1.28778 -0.000161762 -0.00327819)
(1.22982 -0.000105715 -0.00321029)
(1.22702 -6.29803e-05 -0.00338324)
(1.28328 -5.90464e-05 -0.00406555)
(1.37775 -1.04097e-05 -0.00486618)
(1.47689 -7.58083e-05 -0.00530673)
(1.56585 6.73545e-05 -0.00560274)
(1.64269 -0.000155855 -0.00573056)
(1.68686 0.00102499 -0.00606184)
(1.66304 0.00486685 -0.00661618)
(1.44767 0.0173478 -0.00838985)
(0.669795 0.0615989 -0.0127311)
(-0.262596 0.16298 -0.0172626)
(-0.1485 0.137278 -0.016792)
(0.0832311 0.115978 -0.0157868)
(0.351989 0.138271 -0.0148711)
(1.79792 -2.39843e-06 -0.00227399)
(1.80935 -1.38147e-05 -0.0021121)
(1.79466 -2.73063e-05 -0.00217044)
(1.77383 -4.51858e-05 -0.00223603)
(1.74035 -7.34836e-05 -0.0023444)
(1.67927 -0.000119417 -0.00262106)
(1.58101 -0.000179605 -0.00311436)
(1.47307 -0.00019056 -0.00341705)
(1.37558 -0.000170278 -0.00343471)
(1.288 -0.000141508 -0.003279)
(1.22998 -0.000105708 -0.0032106)
(1.2271 -7.28156e-05 -0.00338351)
(1.28333 -7.40424e-05 -0.00406641)
(1.37776 -2.61341e-05 -0.0048656)
(1.47694 -9.43928e-05 -0.00530801)
(1.5658 9.16725e-05 -0.00560107)
(1.64326 -0.000183374 -0.00572991)
(1.68946 0.00142827 -0.00605234)
(1.67161 0.00662602 -0.00654934)
(1.47977 0.0229838 -0.00815793)
(0.764029 0.0791673 -0.0121568)
(-0.192259 0.222178 -0.0167318)
(-0.138487 0.204129 -0.0166783)
(0.0834471 0.157494 -0.0156958)
(0.365541 0.189367 -0.0146865)
(1.79794 -1.0387e-05 -0.00227409)
(1.80936 -1.84976e-05 -0.00211233)
(1.79468 -4.44186e-05 -0.00217067)
(1.77387 -9.23308e-05 -0.00223621)
(1.74043 -0.000139819 -0.00234442)
(1.67941 -0.000141418 -0.00262065)
(1.58122 -4.75639e-05 -0.00311384)
(1.47331 0.000104534 -0.0034163)
(1.3758 0.000237749 -0.00343324)
(1.28818 0.000235741 -0.00327752)
(1.23012 0.000119125 -0.0032097)
(1.22719 7.27786e-05 -0.00338271)
(1.28341 4.49576e-05 -0.0040657)
(1.37778 -2.47677e-05 -0.00486436)
(1.47703 -1.70662e-05 -0.00530924)
(1.56576 8.59258e-05 -0.00559814)
(1.64399 -0.000204875 -0.00572915)
(1.69282 0.0017286 -0.0060374)
(1.68218 0.00794984 -0.00646933)
(1.51744 0.02716 -0.00789148)
(0.884184 0.0915273 -0.0114914)
(-0.0984752 0.271662 -0.0160584)
(-0.116878 0.284938 -0.016553)
(0.0756102 0.202115 -0.0155926)
(0.382645 0.240317 -0.0144794)
(1.7979 -1.91097e-05 -0.00227417)
(1.80938 -4.20554e-05 -0.00211209)
(1.79468 -8.90857e-05 -0.00217052)
(1.77377 -0.00016503 -0.00223641)
(1.74016 -0.00024824 -0.00234523)
(1.6789 -0.000292434 -0.00262252)
(1.58038 -0.000239616 -0.00311733)
(1.47212 -7.44636e-05 -0.00342164)
(1.37437 0.000100803 -0.00343973)
(1.28672 0.000152823 -0.00328322)
(1.22903 9.72647e-05 -0.00321313)
(1.22658 6.53801e-05 -0.00338474)
(1.28302 0.000108808 -0.004066)
(1.3776 -9.1577e-05 -0.0048658)
(1.47698 0.000120872 -0.0053094)
(1.56561 -4.73702e-05 -0.00559398)
(1.64476 -6.4629e-05 -0.00573338)
(1.6967 0.00173677 -0.00601429)
(1.69397 0.00832646 -0.00638512)
(1.55798 0.0295733 -0.00760901)
(1.02192 0.0990507 -0.0107615)
(0.0231364 0.304668 -0.0152579)
(-0.0756894 0.383789 -0.0163799)
(0.0567667 0.257508 -0.0154739)
(0.399675 0.291927 -0.0142445)
(1.79789 7.75606e-06 -0.00227424)
(1.80934 2.03667e-07 -0.0021123)
(1.79464 8.71967e-06 -0.00217075)
(1.77374 3.42947e-05 -0.00223664)
(1.74015 4.58665e-05 -0.0023454)
(1.67894 -1.39086e-05 -0.00262243)
(1.58052 -0.000198311 -0.00311724)
(1.47237 -0.00037073 -0.00342166)
(1.37465 -0.00048012 -0.00343979)
(1.28698 -0.000444477 -0.00328335)
(1.2292 -0.000280304 -0.00321299)
(1.22673 -0.000227736 -0.00338481)
(1.28302 -4.19668e-05 -0.00406407)
(1.37768 -0.000262849 -0.00486882)
(1.47698 0.000165746 -0.00530636)
(1.56563 -0.000253396 -0.00559222)
(1.64547 0.000323439 -0.00574329)
(1.7005 0.000896813 -0.00597431)
(1.70647 0.00796585 -0.00630158)
(1.60007 0.03175 -0.00733205)
(1.1645 0.104618 -0.0100234)
(0.178542 0.323096 -0.0143052)
(-0.00450622 0.498799 -0.0159964)
(0.028859 0.326054 -0.0152941)
(0.407889 0.346098 -0.0140783)
(1.79791 -9.55735e-07 -0.00227394)
(1.80931 -4.55284e-06 -0.0021122)
(1.79461 -8.49725e-06 -0.00217056)
(1.7738 -1.33238e-05 -0.00223607)
(1.74038 -2.03154e-05 -0.00234417)
(1.67938 -3.12246e-05 -0.00262011)
(1.58133 -4.5733e-05 -0.00311291)
(1.4736 -4.99773e-05 -0.00341616)
(1.37615 -4.85621e-05 -0.00343416)
(1.28851 -4.67941e-05 -0.00327852)
(1.23033 -3.90594e-05 -0.00320988)
(1.22744 -7.12504e-05 -0.00338358)
(1.28332 9.01155e-05 -0.00406157)
(1.37797 -0.000222876 -0.00487296)
(1.47702 0.000219482 -0.00530227)
(1.56592 -0.000268743 -0.00559373)
(1.64555 0.000622214 -0.00574672)
(1.7041 -9.39129e-05 -0.00593648)
(1.72075 0.0081286 -0.00623539)
(1.64343 0.0344789 -0.00708427)
(1.30286 0.110009 -0.00931613)
(0.385073 0.332393 -0.0132592)
(0.0895208 0.616148 -0.0153152)
(0.0242045 0.428044 -0.0150563)
(0.394985 0.421924 -0.0138116)
(1.79788 -1.24275e-05 -0.00227422)
(1.80933 -1.90503e-05 -0.00211216)
(1.79463 -4.51974e-05 -0.0021706)
(1.77372 -9.43532e-05 -0.00223645)
(1.74013 -0.000141274 -0.00234515)
(1.67891 -0.000137114 -0.00262207)
(1.5805 -3.02898e-05 -0.00311667)
(1.47236 0.000111854 -0.00342165)
(1.37464 0.000232991 -0.00344017)
(1.28698 0.000229697 -0.00328378)
(1.22917 0.000122994 -0.00321333)
(1.22685 4.15528e-05 -0.00338587)
(1.28288 0.000169525 -0.00405978)
(1.37782 -0.000151976 -0.00487721)
(1.47687 0.000170461 -0.00529909)
(1.56615 -0.000133844 -0.0055942)
(1.64529 0.000544853 -0.00574742)
(1.708 -0.000187368 -0.00591994)
(1.73629 0.00846184 -0.00617204)
(1.68828 0.0350531 -0.00682678)
(1.43701 0.110125 -0.00861797)
(0.652366 0.329822 -0.0122597)
(0.213008 0.713305 -0.0145008)
(0.0575053 0.559386 -0.0144871)
(0.359297 0.539296 -0.0136168)
(1.79788 1.81148e-05 -0.00227421)
(1.80934 3.81073e-05 -0.00211214)
(1.79463 8.17002e-05 -0.00217057)
(1.77373 0.000153258 -0.0022364)
(1.74013 0.000230703 -0.00234507)
(1.6789 0.000265485 -0.00262192)
(1.58047 0.000190381 -0.00311631)
(1.47234 -4.63037e-06 -0.00342117)
(1.37463 -0.000201064 -0.00343968)
(1.28698 -0.000269081 -0.0032834)
(1.22917 -0.000219843 -0.00321286)
(1.22693 -0.000229848 -0.00338594)
(1.28286 -7.06158e-05 -0.00405787)
(1.37785 -0.000162137 -0.00487951)
(1.4769 -7.07446e-05 -0.00529888)
(1.56636 0.00011733 -0.00559015)
(1.64517 0.000168055 -0.00575409)
(1.71191 0.00029968 -0.00589501)
(1.75094 0.00754321 -0.00612547)
(1.73095 0.0310745 -0.00656323)
(1.56454 0.0988073 -0.00786784)
(0.966973 0.304627 -0.0111627)
(0.391511 0.763553 -0.0135152)
(0.126618 0.703448 -0.0136933)
(0.334922 0.746482 -0.0129928)
(1.79792 6.66296e-06 -4.50751e-09)
(1.80935 2.08947e-05 -5.33615e-09)
(1.79466 3.8954e-05 -5.48285e-09)
(1.77383 6.32649e-05 -5.24107e-09)
(1.74034 9.85978e-05 -3.15782e-09)
(1.67925 0.000152902 1.51965e-09)
(1.58097 0.000229832 8.91588e-09)
(1.47304 0.000267718 6.99178e-08)
(1.37556 0.000255787 9.09672e-08)
(1.288 0.000206365 8.47334e-08)
(1.22999 0.000130473 1.68337e-07)
(1.22713 7.67587e-05 1.65496e-07)
(1.28332 3.76248e-05 1.73478e-07)
(1.3778 2.75783e-05 1.31089e-07)
(1.47686 5.6518e-06 1.06807e-07)
(1.56593 2.96515e-05 8.25716e-08)
(1.64214 -2.165e-05 6.58983e-08)
(1.68423 0.000205313 5.27515e-09)
(1.65395 0.000963142 -1.24518e-07)
(1.41155 0.00352015 -4.5731e-07)
(0.574559 0.0129407 -1.29876e-06)
(-0.333384 0.031979 -6.63191e-07)
(-0.154105 0.0256646 7.34862e-07)
(0.0756443 0.0241699 2.02463e-07)
(0.339216 0.0279236 8.04394e-08)
(1.79795 -1.52916e-05 -2.57144e-09)
(1.80939 -3.12639e-05 3.04491e-09)
(1.79471 -6.96313e-05 4.18122e-09)
(1.77389 -0.000135195 7.33432e-09)
(1.74043 -0.000206835 1.51004e-08)
(1.67937 -0.000238432 3.17608e-08)
(1.58108 -0.000167438 6.08654e-08)
(1.47306 1.06587e-05 1.48062e-07)
(1.37551 0.000192733 1.65175e-07)
(1.2879 0.000249208 1.39656e-07)
(1.22989 0.000192163 2.30115e-07)
(1.22706 0.000163905 1.91631e-07)
(1.28329 0.000108711 1.74593e-07)
(1.37777 7.89872e-05 1.32342e-07)
(1.47687 4.45103e-06 1.09946e-07)
(1.5659 7.33518e-05 8.57266e-08)
(1.64231 -8.01334e-05 6.75273e-08)
(1.68508 0.000617572 1.02938e-08)
(1.65695 0.00293338 -1.1241e-07)
(1.42366 0.0106571 -4.29235e-07)
(0.604826 0.0387188 -1.244e-06)
(-0.310506 0.0973773 -8.2378e-07)
(-0.152348 0.078105 7.58178e-07)
(0.0787067 0.0710803 3.71549e-07)
(0.343032 0.0833771 -2.32439e-08)
(1.79788 1.47717e-06 -1.21077e-08)
(1.80934 6.91519e-06 2.19751e-08)
(1.79464 1.29669e-05 2.87041e-08)
(1.77374 2.04792e-05 4.64503e-08)
(1.74014 3.21026e-05 8.38174e-08)
(1.67892 5.28844e-05 1.6907e-07)
(1.58049 8.9252e-05 3.32165e-07)
(1.47233 0.000119337 5.35581e-07)
(1.37461 0.000125994 4.97243e-07)
(1.28696 0.000114345 4.1119e-07)
(1.22918 8.86165e-05 3.92479e-07)
(1.22665 6.94909e-05 2.75234e-07)
(1.28305 3.08445e-05 1.71978e-07)
(1.37762 5.47552e-05 1.32602e-07)
(1.47682 -2.39397e-05 1.21495e-07)
(1.56582 0.000109516 1.04237e-07)
(1.64267 -0.000122746 8.12562e-08)
(1.68684 0.0010512 2.85049e-08)
(1.66302 0.00488858 -8.2722e-08)
(1.44761 0.0173701 -3.63403e-07)
(0.669627 0.0616366 -1.04462e-06)
(-0.262626 0.163028 -9.56694e-07)
(-0.148498 0.137317 5.79941e-07)
(0.0833374 0.115924 4.5522e-07)
(0.351883 0.138259 -5.94867e-08)
(1.79795 3.85346e-09 4.58846e-09)
(1.80941 2.02029e-07 2.79959e-08)
(1.79473 4.03407e-07 3.32992e-08)
(1.77391 6.94947e-07 4.66026e-08)
(1.74045 1.24841e-06 7.70898e-08)
(1.67939 2.53721e-06 1.40924e-07)
(1.58109 4.97754e-06 2.68192e-07)
(1.47304 1.2439e-05 3.36756e-07)
(1.37545 1.86519e-05 2.67723e-07)
(1.28783 2.32311e-05 1.76828e-07)
(1.22982 2.60148e-05 3.03814e-07)
(1.22699 3.26025e-05 2.30506e-07)
(1.28326 9.23758e-06 2.10974e-07)
(1.37772 4.2437e-05 1.34045e-07)
(1.47692 -3.95284e-05 1.33148e-07)
(1.56579 0.000134698 1.12928e-07)
(1.64325 -0.000150836 8.83716e-08)
(1.68945 0.00145344 4.18173e-08)
(1.67159 0.00664671 -5.73183e-08)
(1.47971 0.0230052 -3.05711e-07)
(0.763853 0.0792026 -9.06573e-07)
(-0.192293 0.222222 -1.12827e-06)
(-0.13852 0.204158 4.27741e-07)
(0.0835608 0.157442 6.23949e-07)
(0.365422 0.189386 -1.54151e-07)
(1.79788 -1.21151e-06 1.42605e-08)
(1.80935 -4.84365e-06 1.40582e-07)
(1.79464 -9.17255e-06 1.63298e-07)
(1.77374 -1.43701e-05 2.10467e-07)
(1.74014 -2.16787e-05 2.93075e-07)
(1.67892 -3.24282e-05 4.71594e-07)
(1.5805 -4.58243e-05 8.14594e-07)
(1.47234 -4.93099e-05 7.0633e-07)
(1.37462 -4.18559e-05 3.67831e-07)
(1.28697 -2.59642e-05 2.55707e-07)
(1.22919 -3.40739e-06 8.11452e-08)
(1.22663 1.0648e-05 4.62132e-08)
(1.28306 2.76105e-05 -4.16443e-08)
(1.37757 -7.73308e-06 1.90101e-08)
(1.47691 1.24211e-05 5.63232e-08)
(1.56569 0.000116106 6.94508e-08)
(1.64395 -0.000179251 6.58965e-08)
(1.6928 0.00174972 3.58426e-08)
(1.68215 0.00796733 -3.47917e-08)
(1.51739 0.0271786 -2.3359e-07)
(0.884026 0.0915629 -7.47202e-07)
(-0.0985049 0.271728 -1.27157e-06)
(-0.116941 0.284957 3.39418e-07)
(0.0757299 0.202086 6.01582e-07)
(0.382535 0.240339 -2.16075e-07)
(1.79795 1.55716e-05 -1.7002e-08)
(1.8094 3.3215e-05 6.12565e-08)
(1.79472 7.30697e-05 7.35083e-08)
(1.7739 0.000140267 1.00895e-07)
(1.74045 0.000214705 1.54373e-07)
(1.6794 0.000252815 2.69964e-07)
(1.58113 0.000197099 5.13011e-07)
(1.47311 3.14355e-05 4.03624e-07)
(1.37554 -0.000145487 1.88613e-07)
(1.28791 -0.000200112 1.48154e-08)
(1.22988 -0.000144666 1.86173e-07)
(1.22703 -0.000131622 9.75246e-08)
(1.28326 -2.3911e-05 1.4058e-07)
(1.37772 -0.000148153 8.59099e-08)
(1.47703 0.000110063 9.84425e-08)
(1.56562 -3.81373e-05 1.04671e-07)
(1.64476 -4.89686e-05 8.82724e-08)
(1.69669 0.00175296 6.11775e-08)
(1.69395 0.00834104 -1.82254e-09)
(1.55794 0.0295882 -1.5061e-07)
(1.0218 0.0990793 -5.29366e-07)
(0.0231109 0.304728 -1.13515e-06)
(-0.0757512 0.38378 2.15309e-07)
(0.0568842 0.257475 5.25045e-07)
(0.399552 0.291976 -2.81728e-07)
(1.79792 -1.37036e-06 1.89545e-07)
(1.80935 -7.05792e-07 2.45942e-07)
(1.79467 -6.65439e-07 2.57954e-07)
(1.77384 -1.28269e-06 2.68579e-07)
(1.74036 -1.40326e-06 2.56124e-07)
(1.67928 -1.64086e-06 2.5038e-07)
(1.58102 -7.48477e-06 1.74762e-07)
(1.47307 -2.70961e-05 -2.26186e-07)
(1.37558 -3.89432e-05 -1.01719e-06)
(1.28801 -3.56952e-05 -1.09127e-06)
(1.22998 -1.97286e-05 -3.16459e-07)
(1.22715 -3.14902e-05 -2.72621e-07)
(1.28324 0.000101122 -4.16544e-07)
(1.37779 -0.000167902 -8.71212e-08)
(1.47702 0.00022976 3.68653e-08)
(1.56564 -0.000209128 6.95315e-08)
(1.64546 0.00035447 6.74121e-08)
(1.70048 0.000918658 4.68044e-08)
(1.70645 0.00798114 4.72045e-09)
(1.60003 0.0317623 -9.59542e-08)
(1.16441 0.104636 -3.56052e-07)
(0.178472 0.323137 -9.00286e-07)
(-0.00461154 0.498778 1.81831e-08)
(0.0289211 0.326034 3.2144e-07)
(0.407838 0.346156 -3.46961e-07)
(1.79794 5.15729e-06 -2.4431e-08)
(1.8094 1.97994e-05 1.13167e-07)
(1.79472 3.76152e-05 1.33154e-07)
(1.77388 6.10044e-05 1.70853e-07)
(1.7404 9.58615e-05 2.26047e-07)
(1.6793 0.000149623 3.5366e-07)
(1.58095 0.000221512 6.33585e-07)
(1.47289 0.000236562 -6.15427e-08)
(1.37534 0.000209033 -6.15696e-07)
(1.28777 0.000160287 -6.66147e-07)
(1.22977 0.000100899 -4.78947e-07)
(1.22708 2.12945e-05 -3.12694e-07)
(1.28309 0.000152726 -1.00018e-07)
(1.37782 -0.000177088 -3.64274e-09)
(1.47692 0.00025492 6.38505e-08)
(1.56585 -0.000240801 8.03682e-08)
(1.64549 0.000643777 7.03965e-08)
(1.70406 -7.78636e-05 5.39835e-08)
(1.72072 0.00814072 7.59384e-09)
(1.64339 0.0344899 -7.63112e-08)
(1.30278 0.110025 -2.43457e-07)
(0.384982 0.332425 -5.7421e-07)
(0.0894148 0.616148 -2.24614e-07)
(0.0242433 0.42804 2.19219e-07)
(0.394964 0.421953 -2.0991e-07)
(1.79794 1.27425e-07 1.68792e-07)
(1.8094 1.51349e-06 2.65984e-07)
(1.79472 2.69139e-06 2.8367e-07)
(1.77388 4.02605e-06 3.04572e-07)
(1.7404 6.4932e-06 3.01325e-07)
(1.6793 1.21876e-05 3.12922e-07)
(1.58094 2.43961e-05 2.71467e-07)
(1.47287 3.16381e-05 -2.88969e-07)
(1.37533 3.25711e-05 -1.17347e-06)
(1.28777 3.07408e-05 -1.22647e-06)
(1.22975 3.12119e-05 -2.9063e-07)
(1.22715 -1.9242e-05 -2.51513e-07)
(1.28303 0.000133543 -3.18085e-07)
(1.37788 -0.000160935 1.97794e-08)
(1.47688 0.000174852 1.14951e-07)
(1.56613 -0.00012545 1.25642e-07)
(1.64527 0.00055317 9.81184e-08)
(1.70798 -0.000180683 7.36417e-08)
(1.73626 0.00846825 2.76328e-08)
(1.68824 0.0350612 -5.13852e-08)
(1.43695 0.11014 -2.17127e-07)
(0.652288 0.329846 -4.13494e-07)
(0.212899 0.713344 -2.69403e-07)
(0.0575571 0.559389 5.35894e-09)
(0.359279 0.539298 -2.0324e-07)
(1.79794 -8.94507e-09 1.16401e-07)
(1.8094 8.14505e-08 1.04214e-07)
(1.79472 1.65108e-07 1.0251e-07)
(1.77389 2.86623e-07 8.94402e-08)
(1.74041 5.3742e-07 3.5601e-08)
(1.67932 1.19371e-06 -4.67763e-08)
(1.58097 2.81233e-06 -2.75265e-07)
(1.4729 6.10684e-06 -3.24774e-07)
(1.37534 8.38522e-06 -8.65341e-07)
(1.28777 9.38119e-06 -9.45988e-07)
(1.22972 1.57026e-05 2.68188e-07)
(1.22718 -2.32988e-05 1.59194e-07)
(1.28296 8.88489e-05 -1.73147e-08)
(1.37788 -6.04885e-05 2.04557e-07)
(1.47689 -1.04456e-05 2.29628e-07)
(1.56634 0.00015205 1.95418e-07)
(1.64514 0.000187466 1.47502e-07)
(1.71188 0.000310126 1.06274e-07)
(1.75091 0.00754947 6.50738e-08)
(1.73092 0.0310807 -9.91915e-09)
(1.56449 0.0988199 -1.42211e-07)
(0.966899 0.304648 -4.15512e-07)
(0.391397 0.763616 -3.01461e-07)
(0.126661 0.703445 -5.20802e-08)
(0.334907 0.746473 -1.51285e-07)
(1.79794 -2.12511e-07 3.95717e-08)
(1.8094 -1.65364e-06 1.86333e-07)
(1.79472 -3.02728e-06 2.13943e-07)
(1.77389 -4.88727e-06 2.71764e-07)
(1.74041 -8.29271e-06 3.80776e-07)
(1.67932 -1.5513e-05 6.02883e-07)
(1.58098 -2.98573e-05 1.04958e-06)
(1.47291 -4.28315e-05 8.01749e-07)
(1.37535 -4.78396e-05 4.06494e-07)
(1.28777 -4.54124e-05 2.20261e-07)
(1.22977 -3.69518e-05 8.75272e-08)
(1.22697 -2.57737e-05 3.94774e-08)
(1.28322 -2.03184e-05 2.71903e-08)
(1.37773 -7.16945e-06 5.40109e-08)
(1.47681 -1.73144e-05 9.73698e-08)
(1.5659 1.26321e-05 1.19802e-07)
(1.64211 -3.46956e-05 1.02861e-07)
(1.68421 0.000195434 9.63379e-08)
(1.65394 0.000955855 8.36203e-08)
(1.41153 0.00351524 6.38066e-08)
(0.574545 0.0129383 1.69605e-08)
(-0.333389 0.0319786 2.19541e-08)
(-0.154105 0.0256648 1.97248e-09)
(0.0756447 0.02417 -7.33719e-09)
(0.339216 0.0279237 -8.28999e-09)
(1.79794 -2.31143e-08 -2.41949e-08)
(1.8094 -9.05234e-07 4.59775e-08)
(1.79472 -1.58625e-06 5.71457e-08)
(1.77389 -2.29887e-06 8.24732e-08)
(1.7404 -3.71474e-06 1.30268e-07)
(1.67931 -7.31163e-06 2.37926e-07)
(1.58095 -1.55786e-05 4.64124e-07)
(1.47289 -1.90886e-05 4.50144e-07)
(1.37534 -1.97691e-05 2.80219e-07)
(1.28778 -1.88944e-05 1.2986e-07)
(1.22979 -1.4218e-05 2.76994e-07)
(1.22699 -6.83763e-06 1.87568e-07)
(1.28323 -1.42006e-05 2.01478e-07)
(1.37773 1.0001e-05 1.63458e-07)
(1.47683 -3.2674e-05 1.57946e-07)
(1.56588 5.22606e-05 1.44525e-07)
(1.6423 -9.28506e-05 1.123e-07)
(1.68507 0.00060958 1.01349e-07)
(1.65694 0.0029281 8.33719e-08)
(1.42365 0.0106535 6.13517e-08)
(0.604815 0.0387169 2.06829e-08)
(-0.31051 0.0973769 1.86555e-08)
(-0.152347 0.0781054 1.80738e-09)
(0.0787071 0.0710806 -7.23684e-09)
(0.343032 0.0833773 -8.01958e-09)
(1.79794 -4.86194e-06 1.6837e-07)
(1.8094 -1.76479e-05 2.1634e-07)
(1.79472 -3.36459e-05 2.26787e-07)
(1.77389 -5.46168e-05 2.35177e-07)
(1.7404 -8.50649e-05 2.15937e-07)
(1.67931 -0.000129461 2.01318e-07)
(1.58096 -0.00018245 1.11853e-07)
(1.4729 -0.000179723 -3.0913e-07)
(1.37535 -0.000145339 -1.11065e-06)
(1.28778 -9.86605e-05 -1.14067e-06)
(1.22979 -4.34907e-05 -2.75633e-07)
(1.22697 -8.9438e-06 -2.52718e-07)
(1.28323 -1.48235e-05 -3.82717e-07)
(1.37771 2.39139e-05 -1.23711e-08)
(1.47686 -4.7804e-05 7.64943e-08)
(1.56583 9.00664e-05 9.65274e-08)
(1.64267 -0.000138163 7.34169e-08)
(1.68683 0.00103943 6.78885e-08)
(1.66301 0.00488009 5.83245e-08)
(1.4476 0.0173646 4.38927e-08)
(0.669611 0.0616341 1.18137e-08)
(-0.262633 0.163028 1.42504e-08)
(-0.148497 0.137317 6.04076e-09)
(0.0833377 0.115925 -6.84073e-09)
(0.351883 0.138259 -7.51629e-09)
(1.79792 2.21242e-06 -3.77929e-08)
(1.80936 4.32672e-06 -1.35061e-08)
(1.79467 7.48091e-06 -1.11606e-08)
(1.77384 1.18386e-05 -5.46986e-09)
(1.74037 1.68899e-05 2.31394e-09)
(1.67931 2.33985e-05 2.46255e-08)
(1.58106 3.39741e-05 7.63199e-08)
(1.47311 5.1364e-05 1.66611e-08)
(1.3756 5.86184e-05 -4.52097e-08)
(1.28802 4.91813e-05 -1.01131e-07)
(1.22997 2.66211e-05 1.2885e-07)
(1.22707 1.71091e-05 1.21493e-07)
(1.2833 -1.47643e-05 1.9068e-07)
(1.37772 1.76746e-05 1.41574e-07)
(1.47691 -6.03939e-05 1.33082e-07)
(1.56578 0.000118608 1.13973e-07)
(1.64324 -0.000162146 8.44141e-08)
(1.68944 0.00144544 7.43542e-08)
(1.67158 0.00664125 5.77711e-08)
(1.47971 0.0230017 3.9699e-08)
(0.763848 0.0792012 1.4354e-08)
(-0.192295 0.222222 7.70512e-09)
(-0.13852 0.204158 4.26252e-09)
(0.0835615 0.157442 -6.38223e-09)
(0.365422 0.189386 -7.42972e-09)
(1.79795 -1.11e-05 1.68131e-07)
(1.8094 -1.58142e-05 2.13118e-07)
(1.79473 -3.88583e-05 2.22865e-07)
(1.77391 -8.37691e-05 2.29461e-07)
(1.74046 -0.000126728 2.06238e-07)
(1.67942 -0.000119388 1.82305e-07)
(1.58114 -6.37538e-06 7.71584e-08)
(1.47311 0.000152107 -4.26034e-07)
(1.37553 0.000286231 -1.24199e-06)
(1.2879 0.00028732 -1.24799e-06)
(1.22987 0.000173314 -4.27111e-07)
(1.227 0.000123735 -3.6092e-07)
(1.28327 9.06148e-05 -4.63685e-07)
(1.37769 1.36458e-05 -7.6373e-08)
(1.47697 1.40497e-05 3.47839e-08)
(1.56572 0.000111246 5.24725e-08)
(1.64396 -0.000184873 4.19436e-08)
(1.69279 0.00174455 4.12399e-08)
(1.68215 0.00796357 3.69678e-08)
(1.51738 0.0271765 2.35387e-08)
(0.884015 0.0915626 6.33487e-09)
(-0.0985102 0.271728 9.85501e-10)
(-0.11694 0.284957 6.59069e-09)
(0.0757303 0.202086 -5.34072e-09)
(0.382535 0.240339 -6.78214e-09)
(1.7979 -2.34114e-08 -2.67262e-08)
(1.80939 -1.3333e-07 1.918e-08)
(1.79469 -2.6586e-07 2.45639e-08)
(1.77378 -4.53785e-07 3.49193e-08)
(1.74016 -7.79656e-07 4.90132e-08)
(1.67891 -1.39907e-06 8.31092e-08)
(1.58037 -2.6979e-06 1.64219e-07)
(1.47206 -7.28819e-06 9.48049e-09)
(1.37429 -1.07932e-05 -1.3353e-07)
(1.28665 -1.39521e-05 -1.80716e-07)
(1.22895 -1.57065e-05 -4.82487e-08)
(1.2265 -2.6692e-05 -1.62737e-08)
(1.28295 4.60647e-05 7.81304e-08)
(1.37754 -0.000120177 6.30188e-08)
(1.47693 0.00011372 7.17966e-08)
(1.56557 -4.46478e-05 6.96786e-08)
(1.64473 -5.8312e-05 5.40222e-08)
(1.69668 0.0017438 4.77735e-08)
(1.69394 0.00833347 4.07349e-08)
(1.55794 0.0295831 2.84803e-08)
(1.0218 0.0990766 8.74362e-09)
(0.0231112 0.304727 -3.41142e-09)
(-0.0757504 0.383779 3.81952e-09)
(0.0568849 0.257475 -4.66665e-09)
(0.399553 0.291976 -6.61468e-09)
(1.79795 1.0706e-05 3.8664e-08)
(1.8094 1.28294e-05 1.62126e-07)
(1.79473 3.33933e-05 1.85474e-07)
(1.77391 7.50485e-05 2.33282e-07)
(1.74046 0.000112165 3.20058e-07)
(1.67942 9.21035e-05 4.9539e-07)
(1.58113 -4.74001e-05 8.48134e-07)
(1.4731 -0.000231937 5.45257e-07)
(1.37552 -0.000378493 1.9752e-07)
(1.28789 -0.000380824 8.91538e-08)
(1.22986 -0.000255902 -6.08658e-08)
(1.22706 -0.000214841 -5.93917e-08)
(1.28319 -3.10472e-05 -5.08831e-08)
(1.37777 -0.00024927 1.57235e-09)
(1.477 0.000179661 4.40094e-08)
(1.56563 -0.000241485 5.69011e-08)
(1.64546 0.000332881 5.54468e-08)
(1.70048 0.000903884 5.07063e-08)
(1.70645 0.0079712 3.84296e-08)
(1.60002 0.031756 2.44536e-08)
(1.16441 0.104632 1.1647e-08)
(0.178471 0.323136 -1.68049e-09)
(-0.00461082 0.498778 1.66409e-09)
(0.0289219 0.326034 -5.12595e-09)
(0.407838 0.346157 -7.07012e-09)
(1.79792 -2.05067e-06 -8.99457e-10)
(1.80935 -3.64481e-06 2.34709e-08)
(1.79467 -6.10684e-06 2.81119e-08)
(1.77383 -9.35342e-06 3.9455e-08)
(1.74035 -1.26472e-05 6.50813e-08)
(1.67927 -1.65971e-05 1.1911e-07)
(1.58101 -2.45712e-05 2.29361e-07)
(1.47307 -3.94561e-05 2.93273e-07)
(1.37558 -4.99871e-05 2.47493e-07)
(1.28802 -5.10741e-05 1.62074e-07)
(1.22997 -3.68145e-05 2.1468e-07)
(1.2272 -6.33972e-05 1.5342e-07)
(1.28317 0.000104644 1.40731e-07)
(1.37786 -0.000206701 1.06252e-07)
(1.47694 0.000232935 1.00603e-07)
(1.56587 -0.00025925 8.65936e-08)
(1.6455 0.000628017 7.32562e-08)
(1.70407 -9.06516e-05 5.11879e-08)
(1.72072 0.00813088 4.32216e-08)
(1.64339 0.0344826 3.20829e-08)
(1.30278 0.11002 1.84035e-08)
(0.384984 0.332423 1.46157e-09)
(0.0894157 0.616148 -1.05333e-09)
(0.0242443 0.42804 -6.68859e-09)
(0.394965 0.421953 -7.62646e-09)
(1.79794 -9.73575e-10 2.22124e-09)
(1.8094 -2.21432e-10 2.95613e-08)
(1.79472 1.69399e-10 3.60491e-08)
(1.77389 9.35688e-10 5.25265e-08)
(1.7404 3.89941e-09 8.87363e-08)
(1.67931 8.47406e-09 1.66368e-07)
(1.58096 -1.32023e-08 3.14586e-07)
(1.47289 2.07927e-07 5.22353e-07)
(1.37533 -1.77243e-07 5.34711e-07)
(1.28775 -8.00999e-07 4.38532e-07)
(1.22974 5.37902e-06 4.7388e-07)
(1.22713 -3.80873e-05 3.54804e-07)
(1.28302 0.000119598 2.66994e-07)
(1.37788 -0.000170831 1.97364e-07)
(1.47688 0.000166638 1.59041e-07)
(1.56613 -0.000132652 1.23534e-07)
(1.64527 0.00054683 9.71925e-08)
(1.70798 -0.000185985 7.12148e-08)
(1.73627 0.00846415 5.86575e-08)
(1.68825 0.0350582 4.22766e-08)
(1.43695 0.110138 2.46305e-08)
(0.65229 0.329845 5.69923e-09)
(0.212901 0.713343 -2.16902e-09)
(0.057558 0.559389 -7.90119e-09)
(0.359279 0.539298 -8.71427e-09)
(1.79792 2.05036e-06 2.13458e-10)
(1.80935 3.65237e-06 6.28059e-09)
(1.79467 6.12058e-06 7.59009e-09)
(1.77383 9.37268e-06 1.12678e-08)
(1.74035 1.26783e-05 2.05725e-08)
(1.67927 1.66493e-05 4.15099e-08)
(1.58101 2.46135e-05 7.83059e-08)
(1.47307 3.98373e-05 2.11025e-07)
(1.37558 4.9834e-05 2.48824e-07)
(1.28803 4.95634e-05 2.21406e-07)
(1.22993 4.58671e-05 3.25921e-07)
(1.22732 -4.96157e-06 2.71105e-07)
(1.28304 9.62722e-05 2.39141e-07)
(1.37792 -5.97096e-05 1.83498e-07)
(1.47692 -1.11126e-05 1.46692e-07)
(1.56635 0.000151665 1.14513e-07)
(1.64515 0.00018819 8.73039e-08)
(1.71189 0.00031103 5.7135e-08)
(1.75091 0.00755009 4.80421e-08)
(1.73093 0.0310811 3.51949e-08)
(1.56449 0.09882 2.12876e-08)
(0.966903 0.304647 6.53896e-09)
(0.391399 0.763616 -2.52037e-09)
(0.126662 0.703446 -7.09632e-09)
(0.334907 0.746473 -8.54491e-09)
(1.79794 9.31425e-09 1.4987e-08)
(1.8094 6.51567e-09 2.50949e-08)
(1.79472 -3.72203e-09 2.75334e-08)
(1.77389 -3.96677e-08 3.23017e-08)
(1.74041 -7.29345e-08 4.39996e-08)
(1.67933 -9.69841e-08 6.13525e-08)
(1.581 -1.1602e-07 9.70799e-08)
(1.47293 -5.3955e-07 1.3929e-07)
(1.37537 -1.45731e-06 1.89047e-07)
(1.28778 -1.6372e-06 1.61101e-07)
(1.22978 -1.51597e-06 2.36726e-07)
(1.22697 -3.19133e-07 2.07884e-07)
(1.2832 -3.43696e-06 2.16175e-07)
(1.37772 3.97349e-06 1.48756e-07)
(1.4768 -9.72444e-06 1.0206e-07)
(1.56589 1.81947e-05 7.07464e-08)
(1.64211 -3.05319e-05 5.8186e-08)
(1.6842 0.000198505 5.21303e-08)
(1.65393 0.000958055 4.13478e-08)
(1.41153 0.0035167 2.6634e-08)
(0.574544 0.012939 -2.40172e-08)
(-0.333388 0.0319787 9.06336e-08)
(-0.154105 0.0256649 -5.48683e-08)
(0.0756456 0.0241699 4.80663e-08)
(0.339217 0.0279237 -1.72575e-07)
(1.79794 8.79761e-09 1.68315e-08)
(1.8094 5.4767e-09 4.51798e-08)
(1.79472 -5.49628e-09 5.20799e-08)
(1.77389 -4.16661e-08 6.7824e-08)
(1.74041 -7.36902e-08 1.02226e-07)
(1.67933 -9.06792e-08 1.66631e-07)
(1.581 -1.00578e-07 2.9508e-07)
(1.47293 -6.20375e-07 3.72605e-07)
(1.37537 -1.68174e-06 3.80717e-07)
(1.28778 -1.94514e-06 2.87132e-07)
(1.22978 -2.28214e-06 2.94715e-07)
(1.22696 1.40785e-06 2.0339e-07)
(1.28321 -8.78714e-06 1.69601e-07)
(1.37771 1.42901e-05 1.04027e-07)
(1.47682 -2.86016e-05 6.66085e-08)
(1.56587 5.64646e-05 4.43149e-08)
(1.64229 -8.88229e-05 3.79976e-08)
(1.68506 0.000613007 3.56493e-08)
(1.65693 0.00293083 3.13811e-08)
(1.42365 0.0106556 2.89467e-08)
(0.604813 0.0387182 2.56043e-08)
(-0.31051 0.0973773 1.04216e-07)
(-0.152347 0.0781057 -5.05426e-08)
(0.0787078 0.0710805 -1.3573e-07)
(0.343032 0.0833772 -6.48832e-08)
(1.79794 -1.9287e-09 4.3041e-09)
(1.8094 -8.55571e-09 2.96177e-08)
(1.79472 -1.54095e-08 3.42476e-08)
(1.77389 -2.18971e-08 4.46709e-08)
(1.74041 -2.91428e-08 6.60985e-08)
(1.67933 -3.68939e-08 1.11591e-07)
(1.581 -5.67638e-08 2.02128e-07)
(1.47293 -2.25063e-07 2.36722e-07)
(1.37537 -4.66029e-07 1.92319e-07)
(1.28778 -6.99084e-07 1.32954e-07)
(1.22978 -2.06434e-06 1.35234e-07)
(1.22696 4.66943e-06 9.06935e-08)
(1.28321 -1.29822e-05 5.37521e-08)
(1.3777 2.44803e-05 4.61812e-08)
(1.47685 -4.50553e-05 3.03802e-08)
(1.56582 9.43425e-05 1.67989e-08)
(1.64266 -0.000133428 1.16369e-08)
(1.68683 0.00104366 9.69639e-09)
(1.663 0.00488348 7.12756e-09)
(1.44759 0.0173671 1.80899e-09)
(0.669608 0.0616356 -4.0849e-08)
(-0.262633 0.163028 1.18347e-07)
(-0.148497 0.137318 9.29232e-08)
(0.0833382 0.115924 -2.0071e-07)
(0.351883 0.138259 -5.48072e-08)
(1.79794 3.23871e-10 4.21786e-08)
(1.8094 9.2383e-10 1.46397e-07)
(1.79472 1.78262e-09 1.64949e-07)
(1.77389 3.45946e-09 1.99937e-07)
(1.74041 6.36483e-09 2.56924e-07)
(1.67933 1.17579e-08 3.69711e-07)
(1.581 1.92267e-08 5.93803e-07)
(1.47293 -2.55657e-08 2.09181e-07)
(1.37537 -1.49902e-07 -9.37883e-08)
(1.28778 -5.43301e-07 -1.0101e-07)
(1.22979 -2.60087e-06 -2.46619e-07)
(1.22695 6.06695e-06 -1.76435e-07)
(1.28322 -1.2898e-05 -1.54612e-07)
(1.37768 2.50329e-05 -8.05537e-08)
(1.47689 -5.21508e-05 -3.20287e-08)
(1.56576 0.000125384 -2.03843e-08)
(1.64323 -0.000157143 -1.47015e-08)
(1.68943 0.00144898 -1.30096e-08)
(1.67157 0.00664358 -1.14219e-08)
(1.4797 0.0230032 -1.87569e-08)
(0.763843 0.079202 -6.54073e-08)
(-0.192296 0.222222 7.89718e-08)
(-0.138519 0.204158 2.16161e-07)
(0.0835617 0.157442 -3.08973e-07)
(0.365422 0.189386 -3.97591e-08)
(1.79794 1.60108e-08 -2.18565e-08)
(1.8094 3.7819e-08 2.69408e-10)
(1.79472 6.71773e-08 2.19315e-09)
(1.77389 1.03794e-07 5.63235e-09)
(1.74041 1.47742e-07 9.37479e-09)
(1.67933 2.06531e-07 1.8849e-08)
(1.581 3.01598e-07 5.64113e-08)
(1.47293 4.14735e-07 -1.07855e-07)
(1.37537 3.60137e-07 -1.79294e-07)
(1.28778 -2.22941e-07 -2.05716e-07)
(1.22979 -1.56981e-06 -3.7422e-08)