/*--------------------------------*- C++ -*----------------------------------*\
| =========                 |                                                 |
| \\      /  F ield         | OpenFOAM: The Open Source CFD Toolbox           |
|  \\    /   O peration     | Version:  4.1                                   |
|   \\  /    A nd           | Web:      www.OpenFOAM.org                      |
|    \\/     M anipulation  |                                                 |
\*---------------------------------------------------------------------------*/
FoamFile
{
    version     2.0;
    format      ascii;
    class       volVectorField;
    location    "9";
    object      U;
}
// * * * * * * * * * * * * * * * * * * * * * * * * * * * * * * * * * * * * * //

dimensions      [0 1 -1 0 0 0 0];

internalField   nonuniform List<vector> 
500
(
(3.00001 -6.15262e-08 4.38078e-17)
(3 -5.26364e-08 8.52792e-20)
(3 -1.97663e-08 9.95168e-18)
(3 -1.18914e-08 1.33758e-24)
(3 -4.48998e-09 1.23406e-23)
(3.00001 -2.08229e-07 4.35811e-17)
(3 -1.80096e-07 1.72344e-19)
(3 -6.92157e-08 1.00384e-17)
(3 -3.87748e-08 1.51734e-17)
(3 -1.34424e-08 1.2359e-23)
(3.00002 -4.40187e-07 8.67024e-17)
(3.00001 -3.8474e-07 2.633e-19)
(3 -1.50153e-07 1.03732e-17)
(3 -7.94015e-08 2.9786e-17)
(3 -2.61077e-08 1.31657e-23)
(3.00002 -7.59372e-07 8.63164e-17)
(3.00001 -6.70462e-07 1.5442e-17)
(3.00001 -2.64558e-07 3.02677e-17)
(3.00001 -1.32847e-07 2.88397e-17)
(3.00001 -4.21148e-08 2.28982e-23)
(3.00003 -1.16821e-06 4.31267e-17)
(3.00001 -1.04074e-06 3.02205e-17)
(3.00001 -4.14313e-07 1.07637e-17)
(3.00001 -1.98892e-07 2.7905e-17)
(3.00001 -6.13401e-08 2.45075e-23)
(3.00003 -1.6694e-06 4.30542e-17)
(3.00001 -1.49891e-06 3.02222e-17)
(3.00001 -6.01163e-07 3.0396e-17)
(3.00001 -2.77548e-07 2.65619e-17)
(3.00001 -8.37875e-08 -1.27224e-17)
(3.00004 -2.26576e-06 4.29805e-17)
(3.00002 -2.04826e-06 3.022e-17)
(3.00001 -8.26772e-07 3.00305e-17)
(3.00001 -3.68938e-07 1.05181e-17)
(3.00001 -1.09543e-07 -1.27224e-17)
(3.00004 -2.96025e-06 4.29051e-17)
(3.00002 -2.69197e-06 3.02142e-17)
(3.00001 -1.09272e-06 2.96494e-17)
(3.00001 -4.73289e-07 9.71883e-18)
(3.00001 -1.38731e-07 -1.27223e-17)
(3.00004 -3.75593e-06 9.35408e-19)
(3.00002 -3.43316e-06 3.03931e-17)
(3.00001 -1.40051e-06 4.79697e-17)
(3.00001 -5.90863e-07 -5.59671e-18)
(3.00001 -1.71511e-07 -1.27223e-17)
(3.00005 -4.65588e-06 4.27538e-17)
(3.00002 -4.27485e-06 3.05629e-17)
(3.00002 -1.75159e-06 4.69105e-17)
(3.00001 -7.21962e-07 -6.29604e-18)
(3.00001 -2.08056e-07 -2.51519e-17)
(3.00005 -5.66327e-06 1.2969e-18)
(3.00003 -5.21998e-06 3.05261e-17)
(3.00002 -2.14729e-06 2.70771e-17)
(3.00002 -8.66881e-07 -7.43419e-18)
(3.00002 -2.48556e-07 -3.75057e-17)
(3.00006 -6.78121e-06 1.48232e-18)
(3.00003 -6.27141e-06 3.02848e-17)
(3.00002 -2.5889e-06 8.01569e-18)
(3.00002 -1.02591e-06 5.68057e-18)
(3.00002 -2.93205e-07 -3.75055e-17)
(3.00007 -8.01289e-06 8.33705e-17)
(3.00003 -7.43189e-06 3.00371e-17)
(3.00002 -3.07758e-06 7.64073e-18)
(3.00002 -1.19933e-06 -1.00884e-17)
(3.00002 -3.42201e-07 -3.75054e-17)
(3.00007 -9.36137e-06 8.31988e-17)
(3.00003 -8.70403e-06 5.76078e-17)
(3.00002 -3.61444e-06 -1.14159e-17)
(3.00002 -1.38736e-06 -2.4709e-17)
(3.00002 -3.95746e-07 -2.53853e-17)
(3.00008 -1.08298e-05 1.63448e-16)
(3.00004 -1.00903e-05 2.89782e-17)
(3.00003 -4.20041e-06 -1.17027e-17)
(3.00002 -1.59022e-06 -2.47355e-17)
(3.00002 -4.54037e-07 -2.53852e-17)
(3.00008 -1.2421e-05 1.62517e-16)
(3.00004 -1.15931e-05 2.84996e-17)
(3.00003 -4.83638e-06 -1.2293e-17)
(3.00002 -1.80806e-06 -3.85825e-17)
(3.00002 -5.17277e-07 -2.53851e-17)
(3.00009 -1.41381e-05 1.61569e-16)
(3.00004 -1.32146e-05 2.77978e-17)
(3.00003 -5.52305e-06 -3.08502e-17)
(3.00003 -2.041e-06 -3.80422e-17)
(3.00003 -5.85654e-07 -2.5385e-17)
(3.00009 -1.59837e-05 1.60606e-16)
(3.00005 -1.49567e-05 2.70889e-17)
(3.00003 -6.26103e-06 -3.10022e-17)
(3.00003 -2.28909e-06 -3.7514e-17)
(3.00003 -6.59365e-07 -2.53849e-17)
(3.0001 -1.79606e-05 1.59625e-16)
(3.00005 -1.68212e-05 2.65907e-17)
(3.00003 -7.05076e-06 -1.34305e-17)
(3.00003 -2.55238e-06 -3.69983e-17)
(3.00003 -7.38588e-07 -2.53848e-17)
(3.0001 -2.00713e-05 1.58825e-16)
(3.00005 -1.88096e-05 5.27047e-17)
(3.00004 -7.89253e-06 -3.18569e-17)
(3.00003 -2.8308e-06 -4.93809e-17)
(3.00003 -8.23505e-07 -1.37614e-17)
(3.00011 -2.23181e-05 2.34996e-16)
(3.00006 -2.09232e-05 2.51969e-17)
(3.00004 -8.78648e-06 -1.51285e-17)
(3.00004 -3.12427e-06 -6.10872e-17)
(3.00003 -9.14285e-07 -1.37613e-17)
(3.00011 -2.47031e-05 3.10163e-16)
(3.00006 -2.31629e-05 5.13106e-17)
(3.00004 -9.73253e-06 7.61405e-19)
(3.00004 -3.43263e-06 -7.21253e-17)
(3.00004 -1.01109e-06 -1.37613e-17)
(3.00012 -2.72283e-05 3.08111e-16)
(3.00006 -2.55294e-05 5.06157e-17)
(3.00004 -1.07305e-05 -1.0019e-18)
(3.00004 -3.75568e-06 -6.94517e-17)
(3.00004 -1.11408e-06 -1.37612e-17)
(3.00012 -2.98953e-05 3.81406e-16)
(3.00007 -2.8023e-05 4.96632e-17)
(3.00005 -1.17799e-05 -1.9723e-17)
(3.00004 -4.09315e-06 -6.79048e-17)
(3.00004 -1.22338e-06 -3.63037e-17)
(3.00013 -3.27056e-05 3.03911e-16)
(3.00007 -3.06438e-05 4.86985e-17)
(3.00005 -1.28802e-05 -2.02436e-17)
(3.00004 -4.44471e-06 -3.96945e-17)
(3.00004 -1.33915e-06 -1.39421e-17)
(3.00013 -3.56602e-05 3.75691e-16)
(3.00007 -3.33912e-05 2.21568e-17)
(3.00005 -1.40305e-05 -2.0109e-17)
(3.00005 -4.80998e-06 -1.51823e-17)
(3.00005 -1.46148e-06 -5.82986e-17)
(3.00014 -3.87598e-05 3.72454e-16)
(3.00008 -3.62645e-05 -3.80203e-18)
(3.00006 -1.52299e-05 -2.00624e-17)
(3.00005 -5.1885e-06 -1.8391e-17)
(3.00005 -1.5905e-06 -8.02915e-17)
(3.00014 -4.2005e-05 3.69181e-16)
(3.00008 -3.92624e-05 -4.03983e-18)
(3.00006 -1.64769e-05 -2.01018e-17)
(3.00005 -5.57978e-06 -2.14972e-17)
(3.00005 -1.72629e-06 -8.02911e-17)
(3.00015 -4.53958e-05 3.65873e-16)
(3.00008 -4.23833e-05 -4.29128e-18)
(3.00006 -1.77702e-05 -2.095e-17)
(3.00006 -5.98322e-06 -5.03047e-17)
(3.00005 -1.86893e-06 -1.01908e-16)
(3.00015 -4.89317e-05 3.62533e-16)
(3.00009 -4.5625e-05 -4.06859e-18)
(3.00006 -1.9108e-05 1.03986e-17)
(3.00006 -6.39821e-06 -5.18741e-17)
(3.00006 -2.01849e-06 -8.04811e-17)
(3.00016 -5.26123e-05 2.8824e-16)
(3.00009 -4.89848e-05 -3.87395e-18)
(3.00007 -2.04884e-05 8.54019e-18)
(3.00006 -6.82406e-06 -5.33886e-17)
(3.00006 -2.17501e-06 -8.04808e-17)
(3.00016 -5.6436e-05 2.85501e-16)
(3.00009 -5.24598e-05 -4.20464e-18)
(3.00007 -2.19092e-05 -2.49226e-17)
(3.00007 -7.26002e-06 -5.37148e-17)
(3.00006 -2.33851e-06 -5.9442e-17)
(3.00017 -6.04015e-05 3.52331e-16)
(3.0001 -5.60462e-05 -4.06021e-18)
(3.00008 -2.33679e-05 4.81937e-18)
(3.00007 -7.7053e-06 -7.66054e-17)
(3.00007 -2.50901e-06 -3.86004e-17)
(3.00017 -6.45064e-05 3.48412e-16)
(3.0001 -5.97398e-05 -5.09523e-17)
(3.00008 -2.48619e-05 3.33324e-17)
(3.00007 -8.159e-06 -7.56374e-17)
(3.00007 -2.6865e-06 -5.92466e-17)
(3.00018 -6.87483e-05 3.44008e-16)
(3.00011 -6.3536e-05 -9.66226e-17)
(3.00008 -2.63883e-05 3.06758e-17)
(3.00008 -8.62028e-06 -5.14906e-17)
(3.00007 -2.87095e-06 -5.92509e-17)
(3.00018 -7.31241e-05 2.72035e-16)
(3.00011 -6.74297e-05 -9.45046e-17)
(3.00009 -2.7944e-05 2.80786e-17)
(3.00008 -9.0881e-06 -5.0774e-17)
(3.00008 -3.0623e-06 -3.90164e-17)
(3.00019 -7.76301e-05 2.68298e-16)
(3.00012 -7.14149e-05 -9.24211e-17)
(3.00009 -2.95256e-05 2.48045e-17)
(3.00008 -9.56154e-06 -7.28001e-17)
(3.00008 -3.26049e-06 -3.90285e-17)
(3.00019 -8.22624e-05 2.64554e-16)
(3.00012 -7.54855e-05 -9.03732e-17)
(3.00009 -3.11295e-05 2.09054e-17)
(3.00009 -1.00395e-05 -9.32433e-17)
(3.00009 -3.46541e-06 -3.90447e-17)
(3.0002 -8.7016e-05 2.60322e-16)
(3.00012 -7.96346e-05 -1.33977e-16)
(3.0001 -3.27519e-05 -1.21962e-17)
(3.00009 -1.05209e-05 -8.9957e-17)
(3.00009 -3.67698e-06 -3.90638e-17)
(3.0002 -9.18862e-05 2.55121e-16)
(3.00013 -8.38549e-05 -2.20887e-16)
(3.0001 -3.4389e-05 -1.3998e-17)
(3.0001 -1.10047e-05 -6.48828e-17)
(3.00009 -3.89502e-06 -3.90832e-17)
(3.0002 -9.68669e-05 1.22353e-16)
(3.00013 -8.81387e-05 -1.73383e-16)
(3.00011 -3.60365e-05 -4.29276e-17)
(3.0001 -1.14897e-05 -2.06447e-17)
(3.0001 -4.1194e-06 -3.91001e-17)
(3.00021 -0.000101952 2.45916e-16)
(3.00014 -9.24774e-05 -1.70294e-16)
(3.00011 -3.769e-05 -1.45662e-17)
(3.0001 -1.19747e-05 -4.40191e-17)
(3.0001 -4.34993e-06 -5.81102e-17)
(3.00021 -0.000107136 2.41519e-16)
(3.00014 -9.68626e-05 -1.66704e-16)
(3.00012 -3.93452e-05 1.24083e-17)
(3.00011 -1.24586e-05 -4.47144e-17)
(3.00011 -4.58641e-06 -5.81147e-17)
(3.00022 -0.00011241 2.37613e-16)
(3.00015 -0.000101285 -1.21096e-16)
(3.00012 -4.09975e-05 -1.58802e-17)
(3.00011 -1.29403e-05 -3.73605e-18)
(3.00011 -4.82862e-06 -5.81122e-17)
(3.00022 -0.000117767 3.55838e-16)
(3.00015 -0.000105735 -1.20054e-16)
(3.00013 -4.26421e-05 -7.02938e-17)
(3.00012 -1.34185e-05 -7.32821e-18)
(3.00012 -5.07631e-06 -5.81032e-17)
(3.00023 -0.0001232 4.70382e-16)
(3.00016 -0.000110202 -1.61144e-16)
(3.00013 -4.42744e-05 -9.50645e-17)
(3.00012 -1.3892e-05 -1.07623e-17)
(3.00012 -5.32923e-06 -5.8089e-17)
(3.00023 -0.0001287 5.81806e-16)
(3.00016 -0.000114677 -1.59747e-16)
(3.00014 -4.58895e-05 -9.05034e-17)
(3.00013 -1.43599e-05 2.34242e-17)
(3.00013 -5.58708e-06 -9.39182e-17)
(3.00024 -0.000134258 6.89439e-16)
(3.00017 -0.000119149 -1.98819e-16)
(3.00014 -4.74826e-05 -8.54905e-17)
(3.00013 -1.48209e-05 3.73823e-17)
(3.00013 -5.8496e-06 -5.84857e-17)
(3.00024 -0.000139865 6.77002e-16)
(3.00017 -0.000123608 -2.36416e-16)
(3.00015 -4.90489e-05 -8.08594e-17)
(3.00014 -1.52738e-05 3.05848e-17)
(3.00014 -6.11643e-06 -5.84622e-17)
(3.00024 -0.000145511 6.6484e-16)
(3.00018 -0.000128042 -2.33016e-16)
(3.00015 -5.05838e-05 -7.64991e-17)
(3.00014 -1.57178e-05 2.67022e-17)
(3.00014 -6.38727e-06 -2.39076e-17)
(3.00025 -0.000151187 6.53135e-16)
(3.00018 -0.00013244 -2.28976e-16)
(3.00016 -5.20824e-05 -4.70912e-17)
(3.00015 -1.61518e-05 2.30101e-17)
(3.00015 -6.6618e-06 -2.38854e-17)
(3.00025 -0.000156884 5.29178e-16)
(3.00019 -0.000136792 -3.01838e-16)
(3.00016 -5.35401e-05 -4.44108e-17)
(3.00016 -1.65748e-05 1.69858e-17)
(3.00015 -6.93961e-06 -5.7511e-17)
(3.00026 -0.000162592 4.08375e-16)
(3.0002 -0.000141087 -2.9598e-16)
(3.00017 -5.49526e-05 -4.20435e-17)
(3.00016 -1.6986e-05 1.13151e-17)
(3.00016 -7.22042e-06 -5.74998e-17)
(3.00026 -0.0001683 3.99009e-16)
(3.0002 -0.000145314 -2.91226e-16)
(3.00018 -5.63156e-05 -8.85062e-17)
(3.00017 -1.73845e-05 5.9881e-18)
(3.00017 -7.5038e-06 -5.74998e-17)
(3.00027 -0.000174 6.02288e-16)
(3.00021 -0.000149463 -2.8637e-16)
(3.00018 -5.7625e-05 -8.30181e-17)
(3.00017 -1.77697e-05 3.68276e-17)
(3.00017 -7.78942e-06 -5.75135e-17)
(3.00027 -0.00017968 5.89834e-16)
(3.00021 -0.000153523 -2.81422e-16)
(3.00019 -5.8877e-05 -7.81376e-17)
(3.00018 -1.8141e-05 2.67432e-17)
(3.00018 -8.07691e-06 -8.93922e-17)
(3.00028 -0.000185331 5.76847e-16)
(3.00022 -0.000157484 -3.46893e-16)
(3.0002 -6.00683e-05 -2.55924e-17)
(3.00019 -1.84977e-05 5.71551e-17)
(3.00019 -8.36587e-06 -2.66192e-17)
(3.00028 -0.000190944 6.65484e-16)
(3.00023 -0.000161337 -4.08869e-16)
(3.0002 -6.11955e-05 -2.22299e-17)
(3.00019 -1.88395e-05 4.77096e-17)
(3.00019 -8.65599e-06 -5.75981e-17)
(3.00028 -0.000196508 6.49754e-16)
(3.00023 -0.000165072 -3.98874e-16)
(3.00021 -6.22558e-05 -2.09448e-17)
(3.0002 -1.9166e-05 5.25805e-18)
(3.0002 -8.94689e-06 -5.76113e-17)
(3.00029 -0.000202015 6.33097e-16)
(3.00024 -0.000168682 -4.56764e-16)
(3.00022 -6.32468e-05 2.43876e-17)
(3.00021 -1.9477e-05 -5.79836e-20)
(3.00021 -9.2382e-06 -5.7603e-17)
(3.00029 -0.000207457 6.16586e-16)
(3.00024 -0.000172157 -4.44528e-16)
(3.00022 -6.41663e-05 2.45599e-17)
(3.00021 -1.97723e-05 2.75932e-17)
(3.00021 -9.52965e-06 -5.75697e-17)
(3.0003 -0.000212823 6.0021e-16)
(3.00025 -0.000175491 -4.32358e-16)
(3.00023 -6.50126e-05 2.44936e-17)
(3.00022 -2.0052e-05 2.27418e-17)
(3.00022 -9.82083e-06 -2.83723e-17)
(3.0003 -0.000218107 5.83963e-16)
(3.00026 -0.000178676 -4.21426e-16)
(3.00024 -6.57843e-05 -1.65962e-17)
(3.00023 -2.0316e-05 4.72179e-17)
(3.00023 -1.01115e-05 -5.69929e-17)
(3.00031 -0.000223301 7.5521e-16)
(3.00026 -0.000181708 -4.1061e-16)
(3.00024 -6.64808e-05 -1.39767e-17)
(3.00024 -2.05648e-05 3.53822e-17)
(3.00023 -1.04013e-05 -8.5164e-17)
(3.00031 -0.000228396 7.35275e-16)
(3.00027 -0.000184579 -4.6202e-16)
(3.00025 -6.7101e-05 -1.04746e-17)
(3.00024 -2.07981e-05 5.48657e-17)
(3.00024 -1.069e-05 -8.51189e-17)
(3.00032 -0.000233389 7.15621e-16)
(3.00028 -0.000187286 -4.5018e-16)
(3.00026 -6.76459e-05 -9.32327e-18)
(3.00025 -2.1017e-05 1.21037e-17)
(3.00025 -1.09774e-05 -8.51047e-17)
(3.00032 -0.00023827 6.96268e-16)
(3.00029 -0.000189826 -4.3823e-16)
(3.00027 -6.81146e-05 -8.69826e-18)
(3.00026 -2.12213e-05 3.04518e-18)
(3.00026 -1.12632e-05 -8.51196e-17)
(3.00033 -0.000243036 8.53397e-16)
(3.00029 -0.000192194 -3.66063e-16)
(3.00027 -6.85087e-05 -8.54436e-18)
(3.00027 -2.1412e-05 -5.27405e-18)
(3.00026 -1.15471e-05 -8.51519e-17)
(3.00034 -0.000247681 8.32561e-16)
(3.0003 -0.000194391 -3.54674e-16)
(3.00028 -6.88297e-05 2.92594e-17)
(3.00027 -2.15896e-05 -1.29185e-17)
(3.00027 -1.18291e-05 -8.51858e-17)
(3.00034 -0.0002522 8.12982e-16)
(3.00031 -0.000196411 -2.84437e-16)
(3.00029 -6.90774e-05 6.39247e-17)
(3.00028 -2.17543e-05 -1.99433e-17)
(3.00028 -1.21088e-05 -8.52092e-17)
(3.00035 -0.000256593 6.28448e-16)
(3.00032 -0.00019826 -2.1839e-16)
(3.0003 -6.92565e-05 2.21941e-17)
(3.00029 -2.19079e-05 -2.63851e-17)
(3.00029 -1.23863e-05 -8.52181e-17)
(3.00035 -0.000260849 6.13205e-16)
(3.00032 -0.00019993 -2.11159e-16)
(3.00031 -6.93659e-05 2.18424e-17)
(3.0003 -2.20498e-05 1.6241e-17)
(3.0003 -1.26612e-05 -1.345e-16)
(3.00036 -0.000264974 5.98136e-16)
(3.00033 -0.00020143 -2.04081e-16)
(3.00031 -6.94112e-05 2.06516e-17)
(3.00031 -2.21822e-05 1.00419e-18)
(3.00031 -1.29337e-05 -1.3448e-16)
(3.00037 -0.00026896 5.83287e-16)
(3.00034 -0.000202756 -1.97267e-16)
(3.00032 -6.93934e-05 1.57643e-17)
(3.00031 -2.2305e-05 -6.42139e-17)
(3.00031 -1.32035e-05 -1.34442e-16)
(3.00037 -0.000272805 5.68699e-16)
(3.00035 -0.00020391 -1.90725e-16)
(3.00033 -6.9315e-05 1.06785e-17)
(3.00032 -2.2419e-05 -7.14747e-17)
(3.00032 -1.34704e-05 -1.34388e-16)
(3.00038 -0.000276514 7.04727e-16)
(3.00035 -0.000204902 -2.36288e-16)
(3.00034 -6.91826e-05 5.43755e-18)
(3.00033 -2.25263e-05 -7.80571e-17)
(3.00033 -1.37349e-05 -1.34334e-16)
(3.00039 -0.000280074 6.868e-16)
(3.00036 -0.000205723 -2.28578e-16)
(3.00035 -6.89933e-05 2.69241e-18)
(3.00034 -2.26254e-05 -4.04737e-17)
(3.00034 -1.39961e-05 -1.79192e-16)
(3.00039 -0.000283501 8.14705e-16)
(3.00037 -0.000206392 -2.19051e-16)
(3.00036 -6.87587e-05 6.32157e-17)
(3.00035 -2.27203e-05 -5.53823e-17)
(3.00035 -1.4255e-05 -1.79185e-16)
(3.0004 -0.000286779 7.94535e-16)
(3.00038 -0.000206898 -2.07911e-16)
(3.00036 -6.84746e-05 1.17839e-16)
(3.00036 -2.28087e-05 -6.88549e-17)
(3.00036 -1.45107e-05 -1.79201e-16)
(3.00041 -0.000289915 7.74684e-16)
(3.00039 -0.000207253 -1.97414e-16)
(3.00037 -6.81487e-05 1.05456e-16)
(3.00037 -2.2893e-05 -8.10093e-17)
(3.00037 -1.47636e-05 -1.79226e-16)
(3.00042 -0.000292917 7.55185e-16)
(3.0004 -0.00020747 -1.85515e-16)
(3.00038 -6.77875e-05 1.53179e-16)
(3.00038 -2.29752e-05 -9.19555e-17)
(3.00037 -1.50141e-05 -1.79249e-16)
(3.00042 -0.000295761 7.36036e-16)
(3.00041 -0.000207529 -1.74433e-16)
(3.00039 -6.73833e-05 1.36905e-16)
(3.00038 -2.30514e-05 -1.01797e-16)
(3.00038 -1.5261e-05 -1.79266e-16)
(3.00043 -0.000298483 4.56342e-16)
(3.00041 -0.00020747 -2.53958e-16)
(3.0004 -6.69566e-05 1.21206e-16)
(3.00039 -2.31289e-05 -1.06097e-16)
(3.00039 -1.5506e-05 -1.3949e-16)
(3.00044 -0.000301052 4.39651e-16)
(3.00042 -0.000207267 -2.39337e-16)
(3.00041 -6.64954e-05 1.59477e-16)
(3.0004 -2.32025e-05 -1.5593e-16)
(3.0004 -1.57478e-05 -1.77951e-16)
(3.00045 -0.00030348 4.26891e-16)
(3.00043 -0.000206936 -1.37863e-16)
(3.00042 -6.60078e-05 1.91213e-16)
(3.00041 -2.32742e-05 -1.943e-16)
(3.00041 -1.59867e-05 -1.40542e-16)
(3.00045 -0.000305788 4.16751e-16)
(3.00044 -0.000206505 -4.3617e-17)
(3.00042 -6.55084e-05 1.65793e-16)
(3.00042 -2.33492e-05 -1.88122e-16)
(3.00042 -1.62238e-05 -1.40574e-16)
(3.00046 -0.000307928 4.0677e-16)
(3.00044 -0.000205927 -3.47923e-17)
(3.00043 -6.49748e-05 1.95089e-16)
(3.00043 -2.3418e-05 -1.73887e-16)
(3.00043 -1.64569e-05 -6.74811e-17)
(3.00046 -0.000309957 3.96893e-16)
(3.00045 -0.000205267 -2.88555e-17)
(3.00044 -6.44389e-05 1.21464e-16)
(3.00043 -2.3492e-05 -1.23309e-16)
(3.00043 -1.66886e-05 -6.75313e-17)
(3.00047 -0.000311847 3.87134e-16)
(3.00046 -0.000204497 -2.56087e-17)
(3.00044 -6.38862e-05 5.46653e-17)
(3.00044 -2.35651e-05 -1.16551e-16)
(3.00044 -1.69174e-05 -6.76139e-17)
(3.00047 -0.000313568 3.75811e-16)
(3.00046 -0.000203597 -9.79429e-17)
(3.00045 -6.33108e-05 8.9698e-17)
(3.00044 -2.36345e-05 -1.4601e-16)
(3.00044 -1.71425e-05 -6.76589e-17)
(3.00048 -0.000315221 3.64809e-16)
(3.00046 -0.000202668 -8.93801e-17)
(3.00045 -6.2753e-05 1.21458e-16)
(3.00045 -2.3713e-05 -1.36479e-16)
(3.00045 -1.7367e-05 -6.76586e-17)
(3.00048 -0.000316656 3.5415e-16)
(3.00047 -0.000201571 -8.15367e-17)
(3.00045 -6.21615e-05 1.08476e-16)
(3.00045 -2.3785e-05 -6.01522e-17)
(3.00045 -1.75871e-05 -6.76388e-17)
(3.00047 -0.000317963 3.42179e-16)
(3.00046 -0.000200394 -1.45829e-16)
(3.00045 -6.15607e-05 9.10682e-17)
(3.00045 -2.38534e-05 -1.35533e-16)
(3.00045 -1.78028e-05 -1.31316e-16)
(3.00047 -0.000319137 3.30643e-16)
(3.00046 -0.00019914 -1.36711e-16)
(3.00045 -6.09633e-05 7.47647e-17)
(3.00045 -2.39269e-05 -1.34667e-16)
(3.00044 -1.80168e-05 -1.31303e-16)
(3.00047 -0.00032017 3.19505e-16)
(3.00046 -0.000197814 -1.29064e-16)
(3.00045 -6.03699e-05 5.41426e-17)
(3.00044 -2.40021e-05 -2.05782e-16)
(3.00044 -1.82273e-05 -1.92005e-16)
(3.00046 -0.000321031 3.10266e-16)
(3.00045 -0.000196385 -5.95506e-17)
(3.00044 -5.9763e-05 -4.94385e-17)
(3.00044 -2.40732e-05 -2.04049e-16)
(3.00043 -1.84332e-05 -1.91952e-16)
(3.00045 -0.000321746 1.11079e-16)
(3.00044 -0.000194921 -6.32679e-17)
(3.00043 -5.92001e-05 -1.44456e-16)
(3.00043 -2.41624e-05 -2.10055e-16)
(3.00043 -1.86388e-05 -2.49676e-16)
(3.00045 -0.000322318 2.89955e-16)
(3.00044 -0.000193423 -6.71792e-17)
(3.00043 -5.86662e-05 -1.54494e-16)
(3.00043 -2.42571e-05 -2.74084e-16)
(3.00043 -1.88384e-05 -2.49513e-16)
(3.00046 -0.000322763 4.61735e-16)
(3.00045 -0.000191893 -7.12291e-17)
(3.00044 -5.81359e-05 -1.63429e-16)
(3.00044 -2.43382e-05 -2.70587e-16)
(3.00044 -1.90225e-05 -2.49308e-16)
(3.00041 -0.000323137 2.72922e-16)
(3.00041 -0.000190339 -7.20326e-17)
(3.0004 -5.75526e-05 -9.10625e-17)
(3.00039 -2.43997e-05 -2.19083e-16)
(3.00039 -1.92071e-05 -3.0267e-16)
)
;

boundaryField
{
    axis
    {
        type            empty;
    }
    inlet
    {
        type            fixedValue;
        value           uniform (3 0 0);
    }
    wall
    {
        type            zeroGradient;
    }
    outlet
    {
        type            zeroGradient;
    }
    front
    {
        type            wedge;
    }
    back
    {
        type            wedge;
    }
}


// ************************************************************************* //
