/*--------------------------------*- C++ -*----------------------------------*\
| =========                 |                                                 |
| \\      /  F ield         | OpenFOAM: The Open Source CFD Toolbox           |
|  \\    /   O peration     | Version:  4.1                                   |
|   \\  /    A nd           | Web:      www.OpenFOAM.org                      |
|    \\/     M anipulation  |                                                 |
\*---------------------------------------------------------------------------*/
FoamFile
{
    version     2.0;
    format      ascii;
    class       volScalarField;
    location    "2.46";
    object      T;
}
// * * * * * * * * * * * * * * * * * * * * * * * * * * * * * * * * * * * * * //

dimensions      [0 0 0 1 0 0 0];

internalField   nonuniform List<scalar> 
52500
(
0.999995
1.00002
1.00004
1.00015
1.00027
1.00089
1.00165
1.00488
1.01029
1.02644
1.0718
1.15807
1.49795
2.26753
2.64082
2.73226
2.72638
2.72444
2.73966
2.75406
2.76916
2.78069
2.78412
2.78076
2.78961
0.999995
1.00002
1.00004
1.00015
1.00027
1.00088
1.00163
1.00482
1.01014
1.0261
1.07068
1.15602
1.48941
2.25319
2.63687
2.73209
2.72605
2.72376
2.73887
2.75298
2.76783
2.77909
2.78201
2.77816
2.78684
0.999995
1.00002
1.00004
1.00014
1.00026
1.00085
1.00158
1.0047
1.00982
1.02543
1.06833
1.15179
1.47098
2.22114
2.62636
2.73042
2.72419
2.7212
2.73624
2.75033
2.76523
2.77647
2.77894
2.77498
2.78305
0.999995
1.00002
1.00004
1.00014
1.00025
1.00082
1.00151
1.00451
1.00936
1.02438
1.06481
1.1454
1.44328
2.17082
2.60957
2.72702
2.72063
2.71644
2.73151
2.74517
2.75819
2.76973
2.77443
2.77029
2.77852
0.999995
1.00001
1.00003
1.00013
1.00024
1.00079
1.00143
1.00442
1.00871
1.02372
1.05894
1.13694
1.40392
2.09791
2.5854
2.72152
2.71456
2.70722
2.72218
2.73629
2.75189
2.76242
2.76529
2.76345
2.769
0.999995
1.00001
1.00003
1.00012
1.00022
1.00073
1.00133
1.00417
1.00799
1.02257
1.05247
1.12686
1.35938
2.00675
2.55208
2.71347
2.70665
2.69803
2.71441
2.72483
2.73866
2.75307
2.75587
2.75025
2.759
0.999995
1.00001
1.00003
1.00011
1.0002
1.00067
1.00122
1.00381
1.00727
1.02081
1.04658
1.11679
1.3143
1.91117
2.50434
2.69623
2.68701
2.67978
2.69777
2.71217
2.72536
2.73643
2.74308
2.73813
2.73904
0.999995
1.00001
1.00002
1.0001
1.00018
1.00061
1.00111
1.00346
1.00657
1.01894
1.04202
1.10585
1.28316
1.81875
2.48874
2.68778
2.6782
2.66691
2.68208
2.69256
2.70785
2.71561
2.71605
2.70975
2.71461
0.999994
1.00001
1.00002
1.00009
1.00016
1.00054
1.00098
1.00307
1.00586
1.01658
1.03812
1.09187
1.26034
1.69452
2.45199
2.67396
2.65965
2.66119
2.66626
2.67505
2.68603
2.69603
2.6954
2.68305
2.66034
0.999994
1.00001
1.00002
1.00007
1.00014
1.00044
1.00084
1.00236
1.00522
1.01291
1.03533
1.07752
1.24041
1.59099
2.3557
2.6409
2.65533
2.6534
2.65315
2.65877
2.65972
2.65958
2.65256
2.62781
2.5782
1
1.00002
1.00005
1.00016
1.00028
1.0009
1.00166
1.00489
1.0103
1.02645
1.07181
1.15811
1.49797
2.26763
2.64088
2.73232
2.72645
2.7245
2.73973
2.75413
2.76922
2.78076
2.7842
2.78085
2.78969
1
1.00002
1.00005
1.00015
1.00028
1.00089
1.00164
1.00483
1.01015
1.02612
1.07069
1.15606
1.48942
2.25328
2.63693
2.73215
2.72611
2.72383
2.73894
2.75304
2.76789
2.77916
2.7821
2.77825
2.78693
1
1.00002
1.00005
1.00015
1.00027
1.00086
1.00159
1.00471
1.00983
1.02544
1.06834
1.15183
1.471
2.22123
2.62642
2.73048
2.72426
2.72126
2.7363
2.75039
2.76528
2.77654
2.77902
2.77507
2.78314
1
1.00002
1.00004
1.00014
1.00026
1.00083
1.00152
1.00452
1.00937
1.0244
1.06483
1.14544
1.4433
2.1709
2.60964
2.72708
2.72069
2.7165
2.73157
2.74523
2.75825
2.76979
2.77451
2.77038
2.7786
1
1.00002
1.00004
1.00014
1.00025
1.00079
1.00144
1.00443
1.00872
1.02374
1.05894
1.13697
1.4039
2.09796
2.58545
2.72159
2.71463
2.70728
2.72224
2.73634
2.75194
2.76249
2.76537
2.76354
2.76908
1
1.00002
1.00004
1.00013
1.00023
1.00074
1.00134
1.00418
1.008
1.02258
1.05248
1.12688
1.35938
2.00681
2.55213
2.71353
2.70672
2.69809
2.71448
2.72489
2.73871
2.75313
2.75595
2.75033
2.75908
1
1.00002
1.00004
1.00012
1.00021
1.00068
1.00123
1.00382
1.00728
1.02082
1.04659
1.11682
1.31431
1.91122
2.5044
2.69629
2.68707
2.67983
2.69782
2.71223
2.72541
2.73649
2.74316
2.73821
2.73912
1
1.00002
1.00003
1.00011
1.00019
1.00061
1.00111
1.00347
1.00658
1.01895
1.04203
1.10587
1.28316
1.81881
2.48879
2.68784
2.67826
2.66697
2.68214
2.69261
2.7079
2.71567
2.71613
2.70983
2.71469
1
1.00001
1.00003
1.00009
1.00017
1.00055
1.00099
1.00308
1.00587
1.01659
1.03812
1.09189
1.26032
1.69457
2.45203
2.67402
2.65971
2.66125
2.66632
2.6751
2.68608
2.6961
2.69547
2.68313
2.6604
1
1.00001
1.00002
1.00008
1.00014
1.00044
1.00084
1.00237
1.00523
1.01292
1.03534
1.07754
1.24041
1.59103
2.35576
2.64096
2.65538
2.65345
2.6532
2.65882
2.65977
2.65963
2.65263
2.62788
2.57825
1
1.00002
1.00005
1.00016
1.00028
1.0009
1.00166
1.00489
1.0103
1.02645
1.07181
1.15811
1.49797
2.26763
2.64088
2.73232
2.72645
2.7245
2.73973
2.75413
2.76922
2.78076
2.7842
2.78085
2.78969
1
1.00002
1.00005
1.00015
1.00028
1.00089
1.00164
1.00483
1.01015
1.02612
1.07069
1.15606
1.48943
2.25329
2.63693
2.73215
2.72611
2.72383
2.73894
2.75304
2.76789
2.77916
2.7821
2.77825
2.78693
1
1.00002
1.00005
1.00015
1.00027
1.00086
1.00159
1.00471
1.00983
1.02544
1.06834
1.15183
1.471
2.22123
2.62642
2.73048
2.72426
2.72126
2.7363
2.75039
2.76528
2.77654
2.77902
2.77507
2.78314
1
1.00002
1.00004
1.00014
1.00026
1.00083
1.00152
1.00452
1.00937
1.0244
1.06483
1.14544
1.4433
2.17091
2.60964
2.72708
2.72069
2.7165
2.73157
2.74523
2.75825
2.76979
2.77451
2.77038
2.7786
1
1.00002
1.00004
1.00014
1.00025
1.00079
1.00144
1.00443
1.00872
1.02374
1.05894
1.13697
1.4039
2.09796
2.58545
2.72159
2.71463
2.70728
2.72224
2.73634
2.75194
2.76249
2.76537
2.76354
2.76908
1
1.00002
1.00004
1.00013
1.00023
1.00074
1.00134
1.00418
1.008
1.02258
1.05248
1.12688
1.35938
2.00681
2.55213
2.71353
2.70672
2.69809
2.71448
2.72489
2.73871
2.75313
2.75595
2.75033
2.75908
1
1.00002
1.00004
1.00012
1.00021
1.00068
1.00123
1.00382
1.00728
1.02082
1.04659
1.11682
1.31431
1.91122
2.5044
2.69629
2.68707
2.67983
2.69782
2.71223
2.72541
2.73649
2.74316
2.73821
2.73912
1
1.00002
1.00003
1.00011
1.00019
1.00061
1.00111
1.00347
1.00658
1.01896
1.04203
1.10588
1.28316
1.81881
2.48879
2.68784
2.67827
2.66697
2.68214
2.69261
2.7079
2.71567
2.71613
2.70983
2.71469
1
1.00001
1.00003
1.00009
1.00017
1.00055
1.00099
1.00308
1.00587
1.01659
1.03812
1.09189
1.26032
1.69458
2.45203
2.67402
2.65971
2.66125
2.66632
2.6751
2.68608
2.6961
2.69547
2.68313
2.6604
1
1.00001
1.00002
1.00008
1.00014
1.00044
1.00084
1.00237
1.00523
1.01292
1.03534
1.07754
1.24042
1.59103
2.35576
2.64096
2.65538
2.65345
2.6532
2.65882
2.65977
2.65963
2.65263
2.62788
2.57825
1
1.00002
1.00005
1.00016
1.00028
1.0009
1.00166
1.00489
1.0103
1.02645
1.07181
1.15811
1.49797
2.26763
2.64088
2.73232
2.72645
2.7245
2.73973
2.75413
2.76922
2.78076
2.7842
2.78085
2.78969
1
1.00002
1.00005
1.00015
1.00028
1.00089
1.00164
1.00483
1.01015
1.02612
1.07069
1.15606
1.48943
2.25329
2.63693
2.73215
2.72611
2.72383
2.73894
2.75304
2.76789
2.77916
2.7821
2.77825
2.78693
1
1.00002
1.00005
1.00015
1.00027
1.00086
1.00159
1.00471
1.00983
1.02544
1.06834
1.15183
1.471
2.22123
2.62642
2.73048
2.72426
2.72126
2.7363
2.75039
2.76528
2.77654
2.77902
2.77507
2.78314
1
1.00002
1.00004
1.00014
1.00026
1.00083
1.00152
1.00452
1.00937
1.0244
1.06483
1.14544
1.4433
2.17091
2.60964
2.72708
2.72069
2.7165
2.73157
2.74523
2.75825
2.76979
2.77451
2.77038
2.7786
1
1.00002
1.00004
1.00014
1.00025
1.00079
1.00144
1.00443
1.00872
1.02374
1.05894
1.13697
1.4039
2.09796
2.58545
2.72159
2.71463
2.70728
2.72224
2.73634
2.75194
2.76249
2.76537
2.76354
2.76908
1
1.00002
1.00004
1.00013
1.00023
1.00074
1.00134
1.00418
1.008
1.02258
1.05248
1.12688
1.35938
2.00681
2.55213
2.71353
2.70672
2.69809
2.71448
2.72489
2.73871
2.75313
2.75595
2.75033
2.75908
1
1.00002
1.00004
1.00012
1.00021
1.00068
1.00123
1.00382
1.00728
1.02082
1.04659
1.11682
1.31431
1.91122
2.5044
2.69629
2.68707
2.67983
2.69782
2.71223
2.72541
2.73649
2.74316
2.73821
2.73912
1
1.00002
1.00003
1.00011
1.00019
1.00061
1.00111
1.00347
1.00658
1.01896
1.04203
1.10588
1.28316
1.81881
2.48879
2.68784
2.67826
2.66697
2.68214
2.69261
2.7079
2.71567
2.71613
2.70983
2.71469
1
1.00001
1.00003
1.00009
1.00017
1.00055
1.00099
1.00308
1.00587
1.01659
1.03812
1.09189
1.26032
1.69458
2.45203
2.67402
2.65971
2.66125
2.66632
2.6751
2.68608
2.6961
2.69547
2.68313
2.6604
1
1.00001
1.00002
1.00008
1.00014
1.00044
1.00084
1.00237
1.00523
1.01292
1.03534
1.07754
1.24042
1.59103
2.35576
2.64096
2.65538
2.65345
2.6532
2.65882
2.65977
2.65963
2.65263
2.62788
2.57825
1
1.00002
1.00005
1.00016
1.00028
1.0009
1.00166
1.00489
1.0103
1.02645
1.07181
1.15811
1.49797
2.26763
2.64088
2.73232
2.72645
2.7245
2.73973
2.75413
2.76922
2.78076
2.7842
2.78085
2.78969
1
1.00002
1.00005
1.00015
1.00028
1.00089
1.00164
1.00483
1.01015
1.02612
1.07069
1.15606
1.48943
2.25329
2.63693
2.73215
2.72611
2.72383
2.73894
2.75304
2.76789
2.77916
2.7821
2.77825
2.78693
1
1.00002
1.00005
1.00015
1.00027
1.00086
1.00159
1.00471
1.00983
1.02544
1.06834
1.15183
1.471
2.22123
2.62642
2.73048
2.72426
2.72126
2.7363
2.75038
2.76528
2.77654
2.77902
2.77507
2.78314
1
1.00002
1.00004
1.00014
1.00026
1.00083
1.00152
1.00452
1.00937
1.0244
1.06483
1.14544
1.4433
2.17091
2.60964
2.72708
2.72069
2.7165
2.73157
2.74523
2.75825
2.76979
2.77451
2.77038
2.7786
1
1.00002
1.00004
1.00014
1.00025
1.00079
1.00144
1.00443
1.00872
1.02374
1.05894
1.13697
1.4039
2.09796
2.58545
2.72159
2.71463
2.70728
2.72224
2.73634
2.75194
2.76249
2.76537
2.76354
2.76908
1
1.00002
1.00004
1.00013
1.00023
1.00074
1.00134
1.00418
1.008
1.02258
1.05248
1.12688
1.35938
2.00681
2.55213
2.71353
2.70672
2.69809
2.71448
2.72489
2.73871
2.75313
2.75595
2.75033
2.75908
1
1.00002
1.00004
1.00012
1.00021
1.00068
1.00123
1.00382
1.00728
1.02082
1.04659
1.11682
1.31431
1.91122
2.5044
2.69629
2.68707
2.67983
2.69782
2.71223
2.72541
2.73649
2.74316
2.73821
2.73912
1
1.00002
1.00003
1.00011
1.00019
1.00061
1.00111
1.00347
1.00658
1.01896
1.04203
1.10588
1.28316
1.81881
2.48879
2.68784
2.67826
2.66697
2.68214
2.69261
2.7079
2.71567
2.71613
2.70983
2.71469
1
1.00001
1.00003
1.00009
1.00017
1.00055
1.00099
1.00308
1.00587
1.01659
1.03812
1.09189
1.26032
1.69458
2.45203
2.67402
2.65971
2.66125
2.66632
2.6751
2.68608
2.6961
2.69547
2.68313
2.6604
1
1.00001
1.00002
1.00008
1.00014
1.00044
1.00084
1.00237
1.00523
1.01292
1.03534
1.07754
1.24042
1.59103
2.35576
2.64096
2.65538
2.65345
2.6532
2.65882
2.65977
2.65963
2.65263
2.62788
2.57825
1
1.00002
1.00005
1.00016
1.00028
1.0009
1.00166
1.00489
1.0103
1.02645
1.07181
1.15811
1.49797
2.26763
2.64088
2.73232
2.72645
2.7245
2.73973
2.75413
2.76922
2.78076
2.7842
2.78085
2.78969
1
1.00002
1.00005
1.00015
1.00028
1.00089
1.00164
1.00483
1.01015
1.02612
1.07069
1.15606
1.48943
2.25329
2.63693
2.73215
2.72611
2.72383
2.73894
2.75304
2.76789
2.77916
2.7821
2.77825
2.78693
1
1.00002
1.00005
1.00015
1.00027
1.00086
1.00159
1.00471
1.00983
1.02544
1.06834
1.15183
1.471
2.22123
2.62642
2.73048
2.72426
2.72126
2.7363
2.75039
2.76528
2.77654
2.77902
2.77507
2.78314
1
1.00002
1.00004
1.00014
1.00026
1.00083
1.00152
1.00452
1.00937
1.0244
1.06483
1.14544
1.4433
2.17091
2.60964
2.72708
2.72069
2.7165
2.73157
2.74523
2.75825
2.76979
2.77451
2.77038
2.7786
1
1.00002
1.00004
1.00014
1.00025
1.00079
1.00144
1.00443
1.00872
1.02374
1.05894
1.13697
1.4039
2.09796
2.58545
2.72159
2.71463
2.70728
2.72224
2.73634
2.75194
2.76249
2.76537
2.76354
2.76908
1
1.00002
1.00004
1.00013
1.00023
1.00074
1.00134
1.00418
1.008
1.02258
1.05248
1.12688
1.35938
2.00681
2.55213
2.71353
2.70672
2.69809
2.71448
2.72489
2.73871
2.75313
2.75595
2.75033
2.75908
1
1.00002
1.00004
1.00012
1.00021
1.00068
1.00123
1.00382
1.00728
1.02082
1.04659
1.11682
1.31431
1.91122
2.5044
2.69629
2.68707
2.67983
2.69782
2.71223
2.72541
2.73649
2.74316
2.73821
2.73912
1
1.00002
1.00003
1.00011
1.00019
1.00061
1.00111
1.00347
1.00658
1.01896
1.04203
1.10588
1.28316
1.81881
2.48879
2.68784
2.67826
2.66697
2.68214
2.69261
2.7079
2.71567
2.71613
2.70983
2.71469
1
1.00001
1.00003
1.00009
1.00017
1.00055
1.00099
1.00308
1.00587
1.01659
1.03812
1.09189
1.26032
1.69458
2.45203
2.67402
2.65971
2.66125
2.66632
2.6751
2.68608
2.6961
2.69547
2.68313
2.6604
1
1.00001
1.00002
1.00008
1.00014
1.00044
1.00084
1.00237
1.00523
1.01292
1.03534
1.07754
1.24042
1.59103
2.35576
2.64096
2.65538
2.65345
2.6532
2.65882
2.65977
2.65963
2.65263
2.62788
2.57825
1
1.00002
1.00005
1.00016
1.00028
1.0009
1.00166
1.00489
1.0103
1.02645
1.07181
1.15811
1.49797
2.26763
2.64088
2.73232
2.72645
2.7245
2.73973
2.75413
2.76922
2.78076
2.7842
2.78085
2.78969
1
1.00002
1.00005
1.00015
1.00028
1.00089
1.00164
1.00483
1.01015
1.02612
1.07069
1.15606
1.48943
2.25329
2.63693
2.73215
2.72611
2.72383
2.73894
2.75304
2.76789
2.77916
2.7821
2.77825
2.78693
1
1.00002
1.00005
1.00015
1.00027
1.00086
1.00159
1.00471
1.00983
1.02544
1.06834
1.15183
1.471
2.22123
2.62642
2.73048
2.72426
2.72126
2.7363
2.75039
2.76528
2.77654
2.77902
2.77507
2.78314
1
1.00002
1.00004
1.00014
1.00026
1.00083
1.00152
1.00452
1.00937
1.0244
1.06483
1.14544
1.4433
2.17091
2.60964
2.72708
2.72069
2.7165
2.73157
2.74523
2.75825
2.76979
2.77451
2.77038
2.7786
1
1.00002
1.00004
1.00014
1.00025
1.00079
1.00144
1.00443
1.00872
1.02374
1.05894
1.13697
1.4039
2.09796
2.58545
2.72159
2.71463
2.70728
2.72224
2.73634
2.75194
2.76249
2.76537
2.76354
2.76908
1
1.00002
1.00004
1.00013
1.00023
1.00074
1.00134
1.00418
1.008
1.02258
1.05248
1.12688
1.35938
2.00681
2.55213
2.71353
2.70672
2.69809
2.71448
2.72489
2.73871
2.75313
2.75595
2.75033
2.75908
1
1.00002
1.00004
1.00012
1.00021
1.00068
1.00123
1.00382
1.00728
1.02082
1.04659
1.11682
1.31431
1.91122
2.5044
2.69629
2.68707
2.67983
2.69782
2.71223
2.72541
2.73649
2.74316
2.73821
2.73912
1
1.00002
1.00003
1.00011
1.00019
1.00061
1.00111
1.00347
1.00658
1.01896
1.04203
1.10588
1.28316
1.81881
2.48879
2.68784
2.67827
2.66697
2.68214
2.69261
2.7079
2.71567
2.71613
2.70983
2.71469
1
1.00001
1.00003
1.00009
1.00017
1.00055
1.00099
1.00308
1.00587
1.01659
1.03812
1.09189
1.26032
1.69458
2.45203
2.67402
2.65971
2.66125
2.66632
2.6751
2.68608
2.6961
2.69547
2.68313
2.6604
1
1.00001
1.00002
1.00008
1.00014
1.00044
1.00084
1.00237
1.00523
1.01292
1.03534
1.07754
1.24042
1.59103
2.35576
2.64096
2.65538
2.65345
2.6532
2.65882
2.65977
2.65963
2.65263
2.62788
2.57825
1
1.00002
1.00005
1.00016
1.00028
1.0009
1.00166
1.00489
1.0103
1.02645
1.07181
1.15811
1.49797
2.26763
2.64088
2.73232
2.72645
2.7245
2.73973
2.75413
2.76922
2.78076
2.7842
2.78085
2.78969
1
1.00002
1.00005
1.00015
1.00028
1.00089
1.00164
1.00483
1.01015
1.02612
1.07069
1.15606
1.48943
2.25329
2.63693
2.73215
2.72611
2.72383
2.73894
2.75304
2.76789
2.77916
2.7821
2.77825
2.78693
1
1.00002
1.00005
1.00015
1.00027
1.00086
1.00159
1.00471
1.00983
1.02544
1.06834
1.15183
1.471
2.22123
2.62642
2.73048
2.72426
2.72126
2.7363
2.75039
2.76528
2.77654
2.77902
2.77507
2.78314
1
1.00002
1.00004
1.00014
1.00026
1.00083
1.00152
1.00452
1.00937
1.0244
1.06483
1.14544
1.4433
2.17091
2.60964
2.72708
2.72069
2.7165
2.73157
2.74523
2.75825
2.76979
2.77451
2.77038
2.7786
1
1.00002
1.00004
1.00014
1.00025
1.00079
1.00144
1.00443
1.00872
1.02374
1.05894
1.13697
1.4039
2.09796
2.58545
2.72159
2.71463
2.70728
2.72224
2.73634
2.75194
2.76249
2.76537
2.76354
2.76908
1
1.00002
1.00004
1.00013
1.00023
1.00074
1.00134
1.00418
1.008
1.02258
1.05248
1.12688
1.35938
2.00681
2.55213
2.71353
2.70672
2.69809
2.71448
2.72489
2.73871
2.75313
2.75595
2.75033
2.75908
1
1.00002
1.00004
1.00012
1.00021
1.00068
1.00123
1.00382
1.00728
1.02082
1.04659
1.11682
1.31431
1.91122
2.5044
2.69629
2.68707
2.67983
2.69782
2.71223
2.72541
2.73649
2.74316
2.73821
2.73912
1
1.00002
1.00003
1.00011
1.00019
1.00061
1.00111
1.00347
1.00658
1.01896
1.04203
1.10588
1.28316
1.81881
2.48879
2.68784
2.67827
2.66697
2.68214
2.69261
2.7079
2.71567
2.71613
2.70983
2.71469
1
1.00001
1.00003
1.00009
1.00017
1.00055
1.00099
1.00308
1.00587
1.01659
1.03812
1.09189
1.26032
1.69458
2.45203
2.67402
2.65971
2.66125
2.66632
2.6751
2.68608
2.6961
2.69547
2.68313
2.6604
1
1.00001
1.00002
1.00008
1.00014
1.00044
1.00084
1.00237
1.00523
1.01292
1.03534
1.07754
1.24042
1.59103
2.35576
2.64096
2.65538
2.65345
2.6532
2.65882
2.65977
2.65963
2.65263
2.62788
2.57825
1
1.00002
1.00005
1.00016
1.00028
1.0009
1.00166
1.00489
1.0103
1.02645
1.07181
1.15811
1.49797
2.26763
2.64088
2.73232
2.72645
2.7245
2.73973
2.75413
2.76922
2.78076
2.7842
2.78085
2.78969
1
1.00002
1.00005
1.00015
1.00028
1.00089
1.00164
1.00483
1.01015
1.02612
1.07069
1.15606
1.48942
2.25328
2.63693
2.73215
2.72611
2.72383
2.73894
2.75304
2.76789
2.77916
2.7821
2.77825
2.78693
1
1.00002
1.00005
1.00015
1.00027
1.00086
1.00159
1.00471
1.00983
1.02544
1.06834
1.15183
1.471
2.22123
2.62642
2.73048
2.72426
2.72126
2.7363
2.75039
2.76528
2.77654
2.77902
2.77507
2.78314
1
1.00002
1.00004
1.00014
1.00026
1.00083
1.00152
1.00452
1.00937
1.0244
1.06483
1.14544
1.4433
2.1709
2.60964
2.72708
2.72069
2.7165
2.73157
2.74523
2.75825
2.76979
2.77451
2.77038
2.7786
1
1.00002
1.00004
1.00014
1.00025
1.00079
1.00144
1.00443
1.00872
1.02374
1.05894
1.13697
1.4039
2.09796
2.58545
2.72159
2.71463
2.70728
2.72224
2.73634
2.75194
2.76249
2.76537
2.76354
2.76908
1
1.00002
1.00004
1.00013
1.00023
1.00074
1.00134
1.00418
1.008
1.02258
1.05248
1.12688
1.35938
2.00681
2.55213
2.71353
2.70672
2.69809
2.71448
2.72489
2.73871
2.75313
2.75595
2.75033
2.75908
1
1.00002
1.00004
1.00012
1.00021
1.00068
1.00123
1.00382
1.00728
1.02082
1.04659
1.11682
1.31431
1.91122
2.5044
2.69629
2.68707
2.67983
2.69782
2.71223
2.72541
2.73649
2.74316
2.73821
2.73912
1
1.00002
1.00003
1.00011
1.00019
1.00061
1.00111
1.00347
1.00658
1.01895
1.04203
1.10587
1.28316
1.81881
2.48879
2.68784
2.67826
2.66697
2.68214
2.69261
2.7079
2.71567
2.71613
2.70983
2.71469
1
1.00001
1.00003
1.00009
1.00017
1.00055
1.00099
1.00308
1.00587
1.01659
1.03812
1.09189
1.26032
1.69457
2.45203
2.67402
2.65971
2.66125
2.66632
2.6751
2.68608
2.6961
2.69547
2.68313
2.6604
1
1.00001
1.00002
1.00008
1.00014
1.00044
1.00084
1.00237
1.00523
1.01292
1.03534
1.07754
1.24041
1.59103
2.35576
2.64096
2.65538
2.65345
2.6532
2.65882
2.65977
2.65963
2.65263
2.62788
2.57825
0.999995
1.00002
1.00004
1.00015
1.00027
1.00089
1.00165
1.00488
1.01029
1.02644
1.0718
1.15807
1.49795
2.26753
2.64082
2.73226
2.72638
2.72444
2.73966
2.75406
2.76916
2.78069
2.78412
2.78076
2.78961
0.999995
1.00002
1.00004
1.00015
1.00027
1.00088
1.00163
1.00482
1.01014
1.0261
1.07068
1.15602
1.48941
2.25319
2.63687
2.73209
2.72605
2.72376
2.73887
2.75298
2.76783
2.77909
2.78201
2.77816
2.78684
0.999995
1.00002
1.00004
1.00014
1.00026
1.00085
1.00158
1.0047
1.00982
1.02543
1.06833
1.15179
1.47098
2.22114
2.62636
2.73042
2.7242
2.7212
2.73624
2.75033
2.76523
2.77647
2.77894
2.77498
2.78305
0.999995
1.00002
1.00004
1.00014
1.00025
1.00082
1.00151
1.00451
1.00936
1.02438
1.06481
1.1454
1.44328
2.17082
2.60957
2.72702
2.72063
2.71644
2.73151
2.74517
2.75819
2.76973
2.77443
2.77029
2.77852
0.999995
1.00001
1.00003
1.00013
1.00024
1.00079
1.00143
1.00442
1.00871
1.02372
1.05894
1.13694
1.40392
2.09791
2.5854
2.72152
2.71456
2.70722
2.72218
2.73629
2.75189
2.76242
2.76529
2.76345
2.769
0.999995
1.00001
1.00003
1.00012
1.00022
1.00073
1.00133
1.00417
1.00799
1.02257
1.05247
1.12686
1.35938
2.00675
2.55208
2.71347
2.70665
2.69803
2.71441
2.72483
2.73866
2.75307
2.75587
2.75025
2.759
0.999995
1.00001
1.00003
1.00011
1.0002
1.00067
1.00122
1.00381
1.00727
1.02081
1.04658
1.11679
1.3143
1.91117
2.50434
2.69623
2.68701
2.67978
2.69777
2.71217
2.72536
2.73643
2.74308
2.73813
2.73904
0.999995
1.00001
1.00002
1.0001
1.00018
1.00061
1.00111
1.00346
1.00657
1.01894
1.04202
1.10585
1.28316
1.81875
2.48874
2.68778
2.6782
2.66691
2.68208
2.69256
2.70785
2.71561
2.71605
2.70975
2.71461
0.999994
1.00001
1.00002
1.00009
1.00016
1.00054
1.00098
1.00307
1.00586
1.01658
1.03812
1.09187
1.26034
1.69452
2.45199
2.67396
2.65965
2.66119
2.66626
2.67505
2.68604
2.69603
2.6954
2.68305
2.66034
0.999994
1.00001
1.00002
1.00007
1.00014
1.00044
1.00084
1.00236
1.00522
1.01291
1.03533
1.07752
1.24041
1.59098
2.3557
2.6409
2.65533
2.6534
2.65315
2.65877
2.65972
2.65958
2.65256
2.62781
2.5782
0.999996
1
1.00002
1.00005
1.00016
1.00031
1.00096
1.00185
1.00521
1.01161
1.02886
1.08051
1.17566
1.54531
2.32807
2.57866
2.64052
2.6361
2.63609
2.64121
2.64074
2.63373
2.61289
2.55824
2.36006
0.999996
0.999999
1.00002
1.00004
1.00014
1.00026
1.00085
1.00157
1.00466
1.00973
1.02517
1.06746
1.15012
1.4615
2.19577
2.5319
2.63265
2.62432
2.61389
2.61204
2.60747
2.59238
2.55895
2.49385
2.29397
0.999995
0.999998
1.00001
1.00003
1.00012
1.00023
1.00074
1.00134
1.0042
1.00804
1.02264
1.05306
1.12686
1.36217
1.99638
2.45442
2.6159
2.60923
2.60105
2.59277
2.58473
2.56477
2.52099
2.45632
2.29486
0.999995
0.999997
1.00001
1.00003
1.0001
1.00019
1.00061
1.00111
1.00346
1.00654
1.01899
1.04098
1.10669
1.26946
1.80753
2.34531
2.57653
2.57405
2.57113
2.56082
2.54628
2.52448
2.47984
2.42885
2.3096
0.999994
0.999996
1.00001
1.00002
1.00008
1.00015
1.00048
1.00088
1.0027
1.0053
1.01444
1.03448
1.08149
1.22924
1.60811
2.27209
2.53758
2.55463
2.55271
2.5456
2.527
2.50083
2.44428
2.39333
2.30858
0.999994
0.999997
1
1.00002
1.00004
1.00015
1.00029
1.00088
1.00172
1.00474
1.01076
1.02614
1.07365
1.15782
1.50065
2.20744
2.45153
2.51901
2.51269
2.51022
2.50116
2.48227
2.43536
2.37607
2.30381
0.999994
0.999996
0.999999
1.00001
1.00003
1.00013
1.00023
1.00076
1.00137
1.00428
1.00822
1.0228
1.05442
1.12821
1.36812
1.99573
2.38656
2.5051
2.49968
2.48793
2.46345
2.44465
2.41421
2.36009
2.29797
0.999993
0.999995
0.999997
1.00001
1.00002
1.00009
1.00018
1.00057
1.00105
1.00324
1.00622
1.01775
1.03873
1.10028
1.25031
1.75611
2.23243
2.46237
2.47173
2.46693
2.45078
2.42219
2.39239
2.34424
2.28563
0.999993
0.999993
0.999997
1
1.00002
1.00005
1.00017
1.00032
1.001
1.0019
1.00541
1.01166
1.02938
1.07939
1.17392
1.52077
2.1926
2.40361
2.43691
2.4292
2.42048
2.39793
2.37357
2.33506
2.28204
0.999992
0.999993
0.999995
0.999999
1.00002
1.00004
1.00013
1.00024
1.00077
1.00143
1.00423
1.00866
1.02267
1.05833
1.13248
1.38697
2.02083
2.33355
2.41834
2.41326
2.39679
2.37148
2.34208
2.31235
2.27063
0.999992
0.999992
0.999993
0.999998
1
1.00003
1.00007
1.00022
1.00041
1.00126
1.00248
1.00666
1.01561
1.03715
1.10425
1.23288
1.6618
2.17529
2.38171
2.38776
2.38016
2.36041
2.32823
2.2962
2.26145
0.999991
0.999992
0.999993
0.999996
1
1.00002
1.00005
1.00016
1.0003
1.00094
1.00177
1.0051
1.01081
1.02737
1.07327
1.15992
1.4787
2.09518
2.32067
2.35596
2.34868
2.33459
2.30805
2.27542
2.24191
0.999991
0.999992
0.999992
0.999994
1
1.00001
1.00004
1.00008
1.00026
1.00051
1.00145
1.0031
1.00779
1.02021
1.0457
1.13344
1.29815
1.83218
2.2167
2.33216
2.3303
2.3178
2.29761
2.2664
2.23359
0.999991
0.999991
0.999992
0.999993
0.999997
1
1.00003
1.00006
1.0002
1.00036
1.00114
1.0021
1.00632
1.0126
1.03343
1.08195
1.19672
1.50954
2.09913
2.27266
2.29342
2.28836
2.2732
2.24744
2.21596
0.999991
0.999991
0.999991
0.999993
0.999994
1
1.00001
1.00005
1.0001
1.00031
1.00059
1.00177
1.00348
1.00937
1.02196
1.05225
1.1457
1.33899
1.85342
2.19274
2.27338
2.27181
2.26121
2.23961
2.20763
0.999991
0.999991
0.999991
0.999992
0.999993
0.999998
1
1.00003
1.00006
1.00021
1.0004
1.00124
1.00229
1.00679
1.01361
1.03586
1.08574
1.21289
1.51263
2.03782
2.22103
2.23661
2.23447
2.222
2.19679
0.999991
0.999991
0.999991
0.999991
0.999993
0.999994
1
1.00001
1.00005
1.00011
1.00034
1.00063
1.00191
1.00368
1.01032
1.02256
1.05545
1.14477
1.35831
1.84198
2.1477
2.21464
2.21347
2.20437
2.18752
0.999991
0.999991
0.999991
0.999991
0.999992
0.999993
0.999998
1
1.00003
1.00007
1.00022
1.00041
1.00125
1.00234
1.00673
1.014
1.03541
1.0922
1.20534
1.55017
1.98372
2.17187
2.18598
2.18328
2.16864
0.999991
0.999991
0.999991
0.999991
0.999991
0.999993
0.999994
1
1.00001
1.00005
1.00011
1.00034
1.00064
1.0019
1.00371
1.01025
1.02249
1.05557
1.13932
1.36629
1.79903
2.08465
2.15825
2.16221
2.15549
0.999991
0.999991
0.999991
0.999991
0.999991
0.999992
0.999994
0.999996
1.00001
1.00002
1.00008
1.00016
1.00051
1.00096
1.00284
1.00556
1.01519
1.03343
1.08356
1.20349
1.56609
1.93537
2.11015
2.12991
2.12914
0.999991
0.999991
0.999991
0.999991
0.999991
0.999991
0.999993
0.999994
1
1.00001
1.00005
1.0001
1.00033
1.00061
1.00185
1.00346
1.00996
1.02061
1.05257
1.12786
1.32766
1.74106
2.02937
2.10425
2.10764
0.999991
0.999991
0.999991
0.999991
0.999991
0.999991
0.999992
0.999994
0.999996
1.00001
1.00002
1.00008
1.00015
1.00047
1.00089
1.0026
1.00509
1.01391
1.02988
1.07691
1.1782
1.51265
1.86554
2.05666
2.07888
0.999991
0.999991
0.999991
0.999991
0.999991
0.999991
0.999991
0.999992
0.999994
1
1.00001
1.00005
1.00009
1.0003
1.00054
1.00167
1.00308
1.00897
1.01817
1.04649
1.11346
1.27564
1.66499
1.95967
2.05046
0.999991
0.999991
0.999991
0.999991
0.999991
0.999991
0.999991
0.999992
0.999993
0.999997
1
1.00002
1.00005
1.00017
1.00032
1.001
1.00182
1.00542
1.01048
1.02813
1.06411
1.15389
1.38441
1.81562
1.98846
0.999991
0.999991
0.999991
0.999991
0.999991
0.999991
0.999991
0.999991
0.999992
0.999994
0.999997
1.00001
1.00003
1.0001
1.00019
1.00059
1.00108
1.00324
1.00617
1.01699
1.03735
1.08982
1.22952
1.60685
1.86498
0.999991
0.999991
0.999991
0.999991
0.999991
0.999991
0.999991
0.999991
0.999992
0.999992
0.999995
1
1.00002
1.00004
1.00014
1.00026
1.00078
1.00148
1.00414
1.00866
1.02163
1.0548
1.11957
1.33216
1.7408
0.999991
0.999991
0.999991
0.999991
0.999991
0.999991
0.999991
0.999991
0.999991
0.999992
0.999993
0.999997
1
1.00003
1.00006
1.00019
1.00036
1.00105
1.00202
1.00561
1.01162
1.02934
1.06875
1.16854
1.39399
0.999991
0.999991
0.999991
0.999991
0.999991
0.999991
0.999991
0.999991
0.999991
0.999991
0.999992
0.999994
1
1.00001
1.00004
1.00008
1.00026
1.00049
1.00144
1.00275
1.0077
1.01595
1.04006
1.09578
1.23315
0.999991
0.999991
0.999991
0.999991
0.999991
0.999991
0.999991
0.999991
0.999991
0.999991
0.999992
0.999992
0.999996
1
1.00002
1.00004
1.00014
1.00027
1.00083
1.00153
1.00449
1.00864
1.02318
1.05239
1.12199
0.999991
0.999991
0.999991
0.999991
0.999991
0.999991
0.999991
0.999991
0.999991
0.999991
0.999991
0.999992
0.999993
0.999997
1
1.00003
1.00006
1.00018
1.00035
1.00103
1.00197
1.00545
1.01115
1.02854
1.06406
0.999991
0.999991
0.999991
0.999991
0.999991
0.999991
0.999991
0.999991
0.999991
0.999991
0.999991
0.999991
0.999992
0.999994
0.999999
1.00001
1.00004
1.00008
1.00024
1.00046
1.00135
1.00259
1.00713
1.01475
1.03693
0.999991
0.999991
0.999991
0.999991
0.999991
0.999991
0.999991
0.999991
0.999991
0.999991
0.999991
0.999991
0.999991
0.999993
0.999994
1
1.00001
1.00005
1.0001
1.00031
1.0006
1.00172
1.00335
1.00915
1.01882
0.999991
0.999991
0.999991
0.999991
0.999991
0.999991
0.999991
0.999991
0.999991
0.999991
0.999991
0.999991
0.999991
0.999992
0.999993
0.999997
1
1.00002
1.00005
1.00017
1.00031
1.00094
1.00175
1.00496
1.00974
0.999991
0.999991
0.999991
0.999991
0.999991
0.999991
0.999991
0.999991
0.999991
0.999991
0.999991
0.999991
0.999991
0.999991
0.999992
0.999993
0.999998
1
1.00003
1.00006
1.0002
1.00039
1.00112
1.00214
1.00593
0.999991
0.999991
0.999991
0.999991
0.999991
0.999991
0.999991
0.999991
0.999991
0.999991
0.999991
0.999991
0.999991
0.999991
0.999991
0.999992
0.999994
1
1.00001
1.00004
1.00008
1.00025
1.00048
1.00138
1.00269
0.999991
0.999991
0.999991
0.999991
0.999991
0.999991
0.999991
0.999991
0.999991
0.999991
0.999991
0.999991
0.999991
0.999991
0.999991
0.999991
0.999993
0.999995
1
1.00001
1.00005
1.0001
1.00031
1.0006
1.0017
0.999991
0.999991
0.999991
0.999991
0.999991
0.999991
0.999991
0.999991
0.999991
0.999991
0.999991
0.999991
0.999991
0.999991
0.999991
0.999991
0.999992
0.999993
0.999996
1
1.00002
1.00007
1.00013
1.00039
1.00074
0.999991
0.999991
0.999991
0.999991
0.999991
0.999991
0.999991
0.999991
0.999991
0.999991
0.999991
0.999991
0.999991
0.999991
0.999991
0.999991
0.999991
0.999992
0.999993
0.999999
1.00001
1.00003
1.00007
1.00022
1.00041
0.999991
0.999991
0.999991
0.999991
0.999991
0.999991
0.999991
0.999991
0.999991
0.999991
0.999991
0.999991
0.999991
0.999991
0.999991
0.999991
0.999991
0.999991
0.999993
0.999995
1
1.00001
1.00006
1.00011
1.00036
0.999991
0.999991
0.999991
0.999991
0.999991
0.999991
0.999991
0.999991
0.999991
0.999991
0.999991
0.999991
0.999991
0.999991
0.999991
0.999991
0.999991
0.999991
0.999993
0.999994
1
1.00001
1.00005
1.00009
1.00031
1
1.00001
1.00003
1.00005
1.00017
1.00031
1.00097
1.00186
1.00522
1.01162
1.02888
1.08052
1.1757
1.54532
2.32815
2.57872
2.64057
2.63615
2.63614
2.64126
2.64079
2.63378
2.61294
2.5583
2.3601
1
1.00001
1.00003
1.00005
1.00015
1.00027
1.00086
1.00158
1.00467
1.00974
1.02519
1.06747
1.15015
1.46151
2.19585
2.53197
2.6327
2.62438
2.61393
2.61209
2.60752
2.59242
2.55899
2.4939
2.29401
1
1.00001
1.00002
1.00004
1.00013
1.00023
1.00075
1.00135
1.00421
1.00805
1.02265
1.05307
1.12688
1.36218
1.99645
2.45448
2.61596
2.60929
2.6011
2.59281
2.58477
2.56482
2.52103
2.45636
2.2949
1
1.00001
1.00002
1.00003
1.00011
1.00019
1.00062
1.00112
1.00347
1.00655
1.019
1.04099
1.10671
1.26948
1.80758
2.34536
2.57659
2.57411
2.57118
2.56086
2.54632
2.52452
2.47988
2.4289
2.30963
1
1
1.00001
1.00003
1.00009
1.00016
1.00049
1.00089
1.00271
1.00531
1.01446
1.03448
1.08151
1.22922
1.60816
2.27214
2.53763
2.55468
2.55276
2.54564
2.52704
2.50086
2.4443
2.39334
2.30861
1
1
1.00001
1.00003
1.00005
1.00016
1.00029
1.00089
1.00173
1.00475
1.01077
1.02615
1.07366
1.15785
1.50066
2.20751
2.45158
2.51906
2.51273
2.51027
2.5012
2.48232
2.43539
2.37609
2.30382
1
1
1.00001
1.00002
1.00004
1.00013
1.00024
1.00076
1.00138
1.00429
1.00823
1.02282
1.05442
1.12824
1.3681
1.99578
2.38661
2.50515
2.49972
2.48797
2.46349
2.44467
2.41424
2.36013
2.29799
1
1
1.00001
1.00002
1.00003
1.0001
1.00019
1.00058
1.00106
1.00325
1.00623
1.01776
1.03874
1.1003
1.25032
1.75614
2.23248
2.46242
2.47178
2.46698
2.45083
2.42222
2.39241
2.34426
2.28565
1
1
1.00001
1.00001
1.00003
1.00006
1.00018
1.00033
1.00101
1.00191
1.00542
1.01167
1.0294
1.0794
1.17395
1.5208
2.19268
2.40365
2.43695
2.42923
2.42053
2.39798