/*--------------------------------*- C++ -*----------------------------------*\
| =========                 |                                                 |
| \\      /  F ield         | OpenFOAM: The Open Source CFD Toolbox           |
|  \\    /   O peration     | Version:  4.1                                   |
|   \\  /    A nd           | Web:      www.OpenFOAM.org                      |
|    \\/     M anipulation  |                                                 |
\*---------------------------------------------------------------------------*/
FoamFile
{
    version     2.0;
    format      ascii;
    class       volScalarField;
    location    "7.18";
    object      Ma;
}
// * * * * * * * * * * * * * * * * * * * * * * * * * * * * * * * * * * * * * //

dimensions      [0 0 0 0 0 0 0];

internalField   nonuniform List<scalar> 
52500
(
3.00001
2.99996
2.99989
2.99962
2.99924
2.99768
2.99548
2.9868
2.97311
2.92653
2.82662
2.58738
1.99674
1.11154
0.463144
0.31084
0.339904
0.345508
0.314934
0.262556
0.210668
0.168198
0.12636
0.07974
0.045802
3.00001
2.99996
2.9999
2.99963
2.99925
2.99771
2.99553
2.98696
2.97343
2.92736
2.82835
2.59192
2.00439
1.1221
0.469586
0.311302
0.341126
0.347285
0.316896
0.265209
0.214618
0.173717
0.134233
0.0931486
0.069216
3.00001
2.99996
2.9999
2.99964
2.99927
2.99778
2.99565
2.98735
2.97409
2.92933
2.83173
2.60128
2.0208
1.14554
0.484306
0.313471
0.34513
0.352891
0.323465
0.27391
0.22661
0.189568
0.155503
0.123535
0.108456
3.00001
2.99997
2.9999
2.99965
2.9993
2.99787
2.99583
2.98794
2.97506
2.93238
2.83701
2.61548
2.04698
1.18336
0.507268
0.317069
0.351747
0.362174
0.33441
0.288119
0.245263
0.213331
0.185469
0.161451
0.151516
3.00002
2.99997
2.99991
2.99967
2.99934
2.99799
2.99606
2.98864
2.97631
2.93619
2.84507
2.63484
2.08197
1.23535
0.536466
0.320437
0.359607
0.37386
0.348426
0.306396
0.268763
0.242343
0.220687
0.202997
0.196796
3.00002
2.99997
2.99992
2.9997
2.99938
2.99812
2.99631
2.98939
2.97784
2.94036
2.85524
2.65765
2.13385
1.30721
0.576725
0.327954
0.371332
0.389702
0.366558
0.329122
0.296838
0.276078
0.260588
0.249248
0.246721
3.00002
2.99998
2.99993
2.99972
2.99943
2.99825
2.99658
2.99006
2.9796
2.94447
2.86806
2.68363
2.20612
1.4036
0.630119
0.343225
0.389382
0.411588
0.390352
0.357336
0.330373
0.31523
0.306126
0.301515
0.304926
3.00002
2.99998
2.99993
2.99974
2.99948
2.99839
2.99686
2.99072
2.98149
2.9484
2.88421
2.71381
2.29376
1.52491
0.696881
0.371224
0.417323
0.440826
0.420608
0.391563
0.369285
0.359948
0.358045
0.362593
0.376567
3.00002
2.99998
2.99994
2.99977
2.99953
2.99857
2.9972
2.99174
2.98354
2.95393
2.89917
2.74502
2.38651
1.66615
0.773918
0.414464
0.457003
0.47723
0.458464
0.433449
0.415587
0.411345
0.417605
0.436139
0.473765
3.00002
2.99999
2.99995
2.99981
2.99959
2.99875
2.99753
2.9928
2.98547
2.95967
2.91059
2.77474
2.45017
1.77466
0.847363
0.459916
0.490122
0.505443
0.495121
0.477041
0.466042
0.46811
0.487546
0.53301
0.634597
2.99999
2.99994
2.99988
2.9996
2.99922
2.99766
2.99545
2.98678
2.97309
2.9265
2.8266
2.58732
1.99669
1.11144
0.462996
0.31065
0.339725
0.345327
0.314734
0.262314
0.210361
0.167806
0.125829
0.0788779
0.0442539
2.99999
2.99994
2.99988
2.99961
2.99923
2.99769
2.99551
2.98694
2.97341
2.92733
2.82833
2.59186
2.00434
1.122
0.46944
0.311116
0.340952
0.347112
0.316705
0.264977
0.214325
0.173346
0.133741
0.0924223
0.0682209
3
2.99995
2.99988
2.99962
2.99925
2.99775
2.99563
2.98732
2.97406
2.92929
2.83171
2.60122
2.02077
1.14544
0.484175
0.313298
0.344966
0.352727
0.323282
0.273689
0.226335
0.189232
0.155084
0.122998
0.10784
3
2.99995
2.99989
2.99963
2.99928
2.99785
2.99581
2.98792
2.97503
2.93235
2.83698
2.61541
2.04692
1.18324
0.507126
0.316884
0.351576
0.362006
0.334228
0.287905
0.245008
0.213033
0.185122
0.16105
0.151089
3
2.99995
2.99989
2.99965
2.99932
2.99797
2.99604
2.98862
2.97629
2.93616
2.84504
2.63478
2.08191
1.23523
0.53633
0.320252
0.359435
0.373692
0.348246
0.306191
0.268528
0.242082
0.2204
0.202686
0.196479
3
2.99996
2.9999
2.99968
2.99937
2.9981
2.99629
2.98936
2.97782
2.94033
2.85521
2.65758
2.13379
1.30709
0.576596
0.32777
0.371162
0.389537
0.366384
0.328928
0.296625
0.275849
0.260348
0.249001
0.246477
3
2.99996
2.99991
2.9997
2.99941
2.99823
2.99656
2.99003
2.97958
2.94442
2.86805
2.68357
2.2061
1.4035
0.630019
0.343061
0.389227
0.411437
0.390192
0.35716
0.330183
0.315032
0.305925
0.301316
0.304736
3
2.99996
2.99992
2.99972
2.99946
2.99837
2.99684
2.9907
2.98146
2.94837
2.88418
2.71376
2.29372
1.5248
0.696785
0.371067
0.417178
0.440688
0.420462
0.391405
0.369117
0.359778
0.357876
0.362433
0.376419
3
2.99997
2.99993
2.99975
2.99952
2.99855
2.99718
2.99172
2.98352
2.9539
2.89914
2.74497
2.38646
1.66607
0.77383
0.414319
0.456873
0.477109
0.458335
0.43331
0.415441
0.411199
0.417465
0.43601
0.473654
3
2.99997
2.99994
2.99979
2.99957
2.99873
2.99751
2.99278
2.98544
2.95964
2.91056
2.77469
2.45013
1.77458
0.84727
0.459773
0.490004
0.505336
0.495005
0.476919
0.465916
0.467985
0.48743
0.532909
0.634521
2.99999
2.99994
2.99988
2.9996
2.99922
2.99766
2.99545
2.98678
2.97309
2.9265
2.8266
2.58732
1.99669
1.11143
0.462993
0.310651
0.339725
0.345327
0.314734
0.262314
0.210361
0.167806
0.125829
0.078878
0.0442539
2.99999
2.99994
2.99988
2.99961
2.99923
2.99769
2.99551
2.98694
2.97341
2.92733
2.82833
2.59186
2.00434
1.12199
0.469437
0.311117
0.340952
0.347112
0.316705
0.264978
0.214326
0.173346
0.133741
0.0924224
0.068221
3
2.99995
2.99988
2.99962
2.99925
2.99775
2.99563
2.98732
2.97406
2.92929
2.83171
2.60122
2.02077
1.14544
0.484172
0.313299
0.344966
0.352726
0.323282
0.27369
0.226335
0.189232
0.155085
0.122998
0.10784
3
2.99995
2.99989
2.99963
2.99928
2.99785
2.99581
2.98792
2.97503
2.93234
2.83697
2.61541
2.04691
1.18324
0.507123
0.316886
0.351577
0.362006
0.334228
0.287905
0.245008
0.213033
0.185122
0.16105
0.151089
3
2.99995
2.99989
2.99965
2.99932
2.99797
2.99604
2.98862
2.97629
2.93616
2.84504
2.63478
2.0819
1.23523
0.536328
0.320253
0.359436
0.373692
0.348246
0.306192
0.268528
0.242082
0.2204
0.202686
0.19648
3
2.99996
2.9999
2.99968
2.99937
2.9981
2.99629
2.98936
2.97782
2.94033
2.85521
2.65758
2.13378
1.30708
0.576593
0.327771
0.371162
0.389537
0.366384
0.328928
0.296625
0.275849
0.260348
0.249002
0.246477
3
2.99996
2.99991
2.9997
2.99941
2.99823
2.99656
2.99003
2.97958
2.94442
2.86805
2.68357
2.20609
1.40349
0.630015
0.343061
0.389227
0.411436
0.390191
0.35716
0.330183
0.315032
0.305925
0.301316
0.304736
3
2.99996
2.99992
2.99972
2.99946
2.99837
2.99684
2.9907
2.98146
2.94837
2.88418
2.71375
2.29371
1.52479
0.696781
0.371065
0.417177
0.440687
0.420461
0.391404
0.369116
0.359778
0.357876
0.362433
0.376419
3
2.99997
2.99993
2.99975
2.99952
2.99855
2.99718
2.99172
2.98352
2.9539
2.89914
2.74497
2.38646
1.66606
0.773827
0.414317
0.456872
0.477109
0.458334
0.433309
0.415441
0.411199
0.417465
0.43601
0.473654
3
2.99997
2.99994
2.99979
2.99957
2.99873
2.99751
2.99278
2.98544
2.95964
2.91056
2.77469
2.45013
1.77457
0.847265
0.45977
0.490003
0.505336
0.495004
0.476918
0.465915
0.467985
0.48743
0.532909
0.634521
2.99999
2.99994
2.99988
2.9996
2.99922
2.99766
2.99545
2.98678
2.97309
2.9265
2.8266
2.58732
1.99669
1.11143
0.462993
0.310652
0.339725
0.345327
0.314734
0.262314
0.210361
0.167806
0.125829
0.078878
0.0442539
2.99999
2.99994
2.99988
2.99961
2.99923
2.99769
2.99551
2.98694
2.97341
2.92733
2.82833
2.59186
2.00434
1.12199
0.469437
0.311117
0.340952
0.347112
0.316705
0.264978
0.214326
0.173346
0.133741
0.0924224
0.068221
3
2.99995
2.99988
2.99962
2.99925
2.99775
2.99563
2.98732
2.97406
2.92929
2.83171
2.60122
2.02077
1.14543
0.484172
0.313299
0.344966
0.352726
0.323282
0.27369
0.226335
0.189232
0.155085
0.122998
0.10784
3
2.99995
2.99989
2.99963
2.99928
2.99785
2.99581
2.98792
2.97503
2.93234
2.83697
2.61541
2.04691
1.18324
0.507123
0.316886
0.351577
0.362006
0.334228
0.287905
0.245008
0.213033
0.185122
0.16105
0.151089
3
2.99995
2.99989
2.99965
2.99932
2.99797
2.99604
2.98862
2.97629
2.93616
2.84504
2.63478
2.0819
1.23523
0.536327
0.320253
0.359436
0.373692
0.348246
0.306192
0.268528
0.242082
0.2204
0.202686
0.19648
3
2.99996
2.9999
2.99968
2.99937
2.9981
2.99629
2.98936
2.97782
2.94033
2.85521
2.65758
2.13378
1.30708
0.576592
0.327771
0.371162
0.389537
0.366384
0.328928
0.296625
0.275849
0.260348
0.249002
0.246477
3
2.99996
2.99991
2.9997
2.99941
2.99823
2.99656
2.99003
2.97958
2.94442
2.86805
2.68357
2.20609
1.40349
0.630015
0.343061
0.389227
0.411436
0.390191
0.35716
0.330183
0.315032
0.305925
0.301316
0.304736
3
2.99996
2.99992
2.99972
2.99946
2.99837
2.99684
2.9907
2.98146
2.94837
2.88418
2.71375
2.29371
1.52479
0.69678
0.371065
0.417177
0.440687
0.420461
0.391404
0.369116
0.359778
0.357876
0.362433
0.376419
3
2.99997
2.99993
2.99975
2.99952
2.99855
2.99718
2.99172
2.98352
2.9539
2.89914
2.74497
2.38646
1.66606
0.773826
0.414317
0.456872
0.477109
0.458334
0.433309
0.415441
0.411199
0.417465
0.43601
0.473654
3
2.99997
2.99994
2.99979
2.99957
2.99873
2.99751
2.99278
2.98544
2.95964
2.91056
2.77469
2.45013
1.77457
0.847265
0.45977
0.490003
0.505336
0.495004
0.476918
0.465915
0.467985
0.48743
0.532909
0.634521
2.99999
2.99994
2.99988
2.9996
2.99922
2.99766
2.99545
2.98678
2.97309
2.9265
2.8266
2.58732
1.99669
1.11143
0.462992
0.310652
0.339725
0.345327
0.314734
0.262314
0.210361
0.167806
0.125829
0.078878
0.0442539
2.99999
2.99994
2.99988
2.99961
2.99923
2.99769
2.99551
2.98694
2.97341
2.92733
2.82833
2.59186
2.00433
1.12199
0.469436
0.311118
0.340953
0.347112
0.316705
0.264978
0.214326
0.173347
0.133741
0.0924224
0.068221
3
2.99995
2.99988
2.99962
2.99925
2.99775
2.99563
2.98732
2.97406
2.92929
2.83171
2.60122
2.02077
1.14543
0.484171
0.313299
0.344966
0.352726
0.323282
0.27369
0.226335
0.189232
0.155085
0.122998
0.10784
3
2.99995
2.99989
2.99963
2.99928
2.99785
2.99581
2.98792
2.97503
2.93234
2.83697
2.61541
2.04691
1.18323
0.507122
0.316886
0.351577
0.362006
0.334228
0.287905
0.245008
0.213033
0.185122
0.16105
0.151089
3
2.99995
2.99989
2.99965
2.99932
2.99797
2.99604
2.98862
2.97629
2.93616
2.84504
2.63478
2.0819
1.23523
0.536327
0.320254
0.359436
0.373692
0.348246
0.306192
0.268528
0.242082
0.2204
0.202686
0.19648
3
2.99996
2.9999
2.99968
2.99937
2.9981
2.99629
2.98936
2.97782
2.94033
2.85521
2.65758
2.13378
1.30708
0.576592
0.327771
0.371162
0.389537
0.366384
0.328928
0.296625
0.275849
0.260348
0.249002
0.246477
3
2.99996
2.99991
2.9997
2.99941
2.99823
2.99656
2.99003
2.97958
2.94442
2.86805
2.68357
2.20609
1.40348
0.630014
0.34306
0.389226
0.411436
0.390191
0.35716
0.330183
0.315033
0.305925
0.301316
0.304736
3
2.99996
2.99992
2.99972
2.99946
2.99837
2.99684
2.9907
2.98146
2.94837
2.88418
2.71375
2.29371
1.52479
0.696779
0.371065
0.417176
0.440686
0.420461
0.391404
0.369116
0.359778
0.357877
0.362433
0.376419
3
2.99997
2.99993
2.99975
2.99952
2.99855
2.99718
2.99172
2.98352
2.9539
2.89914
2.74497
2.38645
1.66606
0.773825
0.414317
0.456872
0.477109
0.458333
0.433309
0.415441
0.411199
0.417465
0.43601
0.473654
3
2.99997
2.99994
2.99979
2.99957
2.99873
2.99751
2.99278
2.98544
2.95964
2.91056
2.77469
2.45013
1.77457
0.847264
0.459769
0.490003
0.505336
0.495004
0.476918
0.465915
0.467985
0.48743
0.532909
0.634521
2.99999
2.99994
2.99988
2.9996
2.99922
2.99766
2.99545
2.98678
2.97309
2.9265
2.8266
2.58732
1.99669
1.11143
0.462992
0.310652
0.339725
0.345327
0.314734
0.262314
0.210361
0.167806
0.125829
0.078878
0.0442539
2.99999
2.99994
2.99988
2.99961
2.99923
2.99769
2.99551
2.98694
2.97341
2.92733
2.82833
2.59186
2.00433
1.12199
0.469436
0.311118
0.340953
0.347112
0.316705
0.264978
0.214326
0.173347
0.133741
0.0924224
0.068221
3
2.99995
2.99988
2.99962
2.99925
2.99775
2.99563
2.98732
2.97406
2.92929
2.83171
2.60122
2.02077
1.14543
0.484171
0.313299
0.344966
0.352726
0.323282
0.27369
0.226335
0.189232
0.155085
0.122998
0.10784
3
2.99995
2.99989
2.99963
2.99928
2.99785
2.99581
2.98792
2.97503
2.93234
2.83697
2.61541
2.04691
1.18323
0.507122
0.316886
0.351577
0.362006
0.334228
0.287905
0.245008
0.213033
0.185122
0.16105
0.151089
3
2.99995
2.99989
2.99965
2.99932
2.99797
2.99604
2.98862
2.97629
2.93616
2.84503
2.63478
2.0819
1.23522
0.536327
0.320254
0.359436
0.373692
0.348246
0.306192
0.268528
0.242082
0.2204
0.202686
0.19648
3
2.99996
2.9999
2.99968
2.99937
2.9981
2.99629
2.98936
2.97782
2.94033
2.85521
2.65758
2.13378
1.30708
0.576591
0.327771
0.371162
0.389537
0.366384
0.328928
0.296625
0.275849
0.260348
0.249002
0.246477
3
2.99996
2.99991
2.9997
2.99941
2.99823
2.99656
2.99003
2.97958
2.94442
2.86805
2.68357
2.20609
1.40348
0.630013
0.34306
0.389226
0.411436
0.390191
0.35716
0.330183
0.315033
0.305925
0.301316
0.304736
3
2.99996
2.99992
2.99972
2.99946
2.99837
2.99684
2.9907
2.98146
2.94837
2.88418
2.71375
2.29371
1.52479
0.696779
0.371065
0.417176
0.440686
0.420461
0.391404
0.369116
0.359778
0.357877
0.362433
0.376419
3
2.99997
2.99993
2.99975
2.99952
2.99855
2.99718
2.99172
2.98352
2.9539
2.89914
2.74497
2.38645
1.66606
0.773825
0.414317
0.456871
0.477108
0.458333
0.433309
0.415441
0.411199
0.417465
0.43601
0.473654
3
2.99997
2.99994
2.99979
2.99957
2.99873
2.99751
2.99278
2.98544
2.95964
2.91056
2.77469
2.45013
1.77457
0.847264
0.459769
0.490003
0.505336
0.495004
0.476918
0.465915
0.467985
0.48743
0.532909
0.634521
2.99999
2.99994
2.99988
2.9996
2.99922
2.99766
2.99545
2.98678
2.97309
2.9265
2.8266
2.58732
1.99669
1.11143
0.462992
0.310652
0.339725
0.345327
0.314734
0.262314
0.210361
0.167806
0.125829
0.078878
0.0442539
2.99999
2.99994
2.99988
2.99961
2.99923
2.99769
2.99551
2.98694
2.97341
2.92733
2.82833
2.59186
2.00434
1.12199
0.469436
0.311118
0.340952
0.347112
0.316705
0.264978
0.214326
0.173346
0.133741
0.0924224
0.068221
3
2.99995
2.99988
2.99962
2.99925
2.99775
2.99563
2.98732
2.97406
2.92929
2.83171
2.60122
2.02077
1.14543
0.484171
0.313299
0.344966
0.352726
0.323282
0.27369
0.226335
0.189232
0.155085
0.122998
0.10784
3
2.99995
2.99989
2.99963
2.99928
2.99785
2.99581
2.98792
2.97503
2.93234
2.83697
2.61541
2.04691
1.18324
0.507123
0.316886
0.351577
0.362006
0.334228
0.287905
0.245008
0.213033
0.185122
0.16105
0.151089
3
2.99995
2.99989
2.99965
2.99932
2.99797
2.99604
2.98862
2.97629
2.93616
2.84504
2.63478
2.0819
1.23523
0.536327
0.320253
0.359436
0.373692
0.348246
0.306192
0.268528
0.242082
0.2204
0.202686
0.19648
3
2.99996
2.9999
2.99968
2.99937
2.9981
2.99629
2.98936
2.97782
2.94033
2.85521
2.65758
2.13378
1.30708
0.576592
0.327771
0.371162
0.389537
0.366384
0.328928
0.296625
0.275849
0.260348
0.249002
0.246477
3
2.99996
2.99991
2.9997
2.99941
2.99823
2.99656
2.99003
2.97958
2.94442
2.86805
2.68357
2.20609
1.40349
0.630014
0.343061
0.389227
0.411436
0.390191
0.35716
0.330183
0.315032
0.305925
0.301316
0.304736
3
2.99996
2.99992
2.99972
2.99946
2.99837
2.99684
2.9907
2.98146
2.94837
2.88418
2.71375
2.29371
1.52479
0.69678
0.371065
0.417176
0.440687
0.420461
0.391404
0.369116
0.359778
0.357877
0.362433
0.376419
3
2.99997
2.99993
2.99975
2.99952
2.99855
2.99718
2.99172
2.98352
2.9539
2.89914
2.74497
2.38646
1.66606
0.773826
0.414317
0.456872
0.477109
0.458334
0.433309
0.415441
0.411199
0.417465
0.43601
0.473654
3
2.99997
2.99994
2.99979
2.99957
2.99873
2.99751
2.99278
2.98544
2.95964
2.91056
2.77469
2.45013
1.77457
0.847265
0.45977
0.490003
0.505336
0.495004
0.476918
0.465915
0.467985
0.48743
0.532909
0.634521
2.99999
2.99994
2.99988
2.9996
2.99922
2.99766
2.99545
2.98678
2.97309
2.9265
2.8266
2.58732
1.99669
1.11143
0.462993
0.310651
0.339725
0.345327
0.314734
0.262314
0.210361
0.167806
0.125829
0.078878
0.0442539
2.99999
2.99994
2.99988
2.99961
2.99923
2.99769
2.99551
2.98694
2.97341
2.92733
2.82833
2.59186
2.00434
1.12199
0.469437
0.311117
0.340952
0.347112
0.316705
0.264978
0.214326
0.173346
0.133741
0.0924224
0.068221
3
2.99995
2.99988
2.99962
2.99925
2.99775
2.99563
2.98732
2.97406
2.92929
2.83171
2.60122
2.02077
1.14544
0.484172
0.313299
0.344966
0.352726
0.323282
0.27369
0.226335
0.189232
0.155085
0.122998
0.10784
3
2.99995
2.99989
2.99963
2.99928
2.99785
2.99581
2.98792
2.97503
2.93234
2.83697
2.61541
2.04691
1.18324
0.507123
0.316886
0.351577
0.362006
0.334228
0.287905
0.245008
0.213033
0.185122
0.16105
0.151089
3
2.99995
2.99989
2.99965
2.99932
2.99797
2.99604
2.98862
2.97629
2.93616
2.84504
2.63478
2.0819
1.23523
0.536327
0.320253
0.359436
0.373692
0.348246
0.306192
0.268528
0.242082
0.2204
0.202686
0.19648
3
2.99996
2.9999
2.99968
2.99937
2.9981
2.99629
2.98936
2.97782
2.94033
2.85521
2.65758
2.13378
1.30708
0.576593
0.327771
0.371162
0.389537
0.366384
0.328928
0.296625
0.275849
0.260348
0.249002
0.246477
3
2.99996
2.99991
2.9997
2.99941
2.99823
2.99656
2.99003
2.97958
2.94442
2.86805
2.68357
2.20609
1.40349
0.630015
0.343061
0.389227
0.411436
0.390191
0.35716
0.330183
0.315032
0.305925
0.301316
0.304736
3
2.99996
2.99992
2.99972
2.99946
2.99837
2.99684
2.9907
2.98146
2.94837
2.88418
2.71375
2.29371
1.52479
0.69678
0.371065
0.417177
0.440687
0.420461
0.391404
0.369116
0.359778
0.357876
0.362433
0.376419
3
2.99997
2.99993
2.99975
2.99952
2.99855
2.99718
2.99172
2.98352
2.9539
2.89914
2.74497
2.38646
1.66606
0.773826
0.414317
0.456872
0.477109
0.458334
0.433309
0.415441
0.411199
0.417465
0.43601
0.473654
3
2.99997
2.99994
2.99979
2.99957
2.99873
2.99751
2.99278
2.98544
2.95964
2.91056
2.77469
2.45013
1.77457
0.847265
0.45977
0.490003
0.505336
0.495004
0.476918
0.465915
0.467985
0.48743
0.532909
0.634521
2.99999
2.99994
2.99988
2.9996
2.99922
2.99766
2.99545
2.98678
2.97309
2.9265
2.8266
2.58732
1.99669
1.11144
0.462996
0.31065
0.339725
0.345327
0.314734
0.262314
0.210361
0.167806
0.125829
0.0788779
0.0442539
2.99999
2.99994
2.99988
2.99961
2.99923
2.99769
2.99551
2.98694
2.97341
2.92733
2.82833
2.59186
2.00434
1.122
0.46944
0.311116
0.340952
0.347112
0.316705
0.264977
0.214325
0.173346
0.133741
0.0924223
0.0682209
3
2.99995
2.99988
2.99962
2.99925
2.99775
2.99563
2.98732
2.97406
2.92929
2.83171
2.60122
2.02077
1.14544
0.484175
0.313298
0.344966
0.352727
0.323282
0.273689
0.226335
0.189232
0.155084
0.122998
0.10784
3
2.99995
2.99989
2.99963
2.99928
2.99785
2.99581
2.98792
2.97503
2.93235
2.83698
2.61541
2.04692
1.18324
0.507126
0.316884
0.351576
0.362006
0.334228
0.287905
0.245008
0.213033
0.185122
0.16105
0.151089
3
2.99995
2.99989
2.99965
2.99932
2.99797
2.99604
2.98862
2.97629
2.93616
2.84504
2.63478
2.08191
1.23523
0.53633
0.320252
0.359435
0.373692
0.348246
0.306191
0.268528
0.242082
0.2204
0.202686
0.196479
3
2.99996
2.9999
2.99968
2.99937
2.9981
2.99629
2.98936
2.97782
2.94033
2.85521
2.65758
2.13379
1.30709
0.576596
0.32777
0.371162
0.389537
0.366384
0.328928
0.296625
0.275849
0.260348
0.249001
0.246477
3
2.99996
2.99991
2.9997
2.99941
2.99823
2.99656
2.99003
2.97958
2.94442
2.86805
2.68357
2.2061
1.4035
0.630019
0.343061
0.389227
0.411437
0.390192
0.35716
0.330183
0.315032
0.305925
0.301316
0.304736
3
2.99996
2.99992
2.99972
2.99946
2.99837
2.99684
2.9907
2.98146
2.94837
2.88418
2.71376
2.29372
1.5248
0.696785
0.371067
0.417178
0.440688
0.420462
0.391405
0.369117
0.359778
0.357876
0.362433
0.376419
3
2.99997
2.99993
2.99975
2.99952
2.99855
2.99718
2.99172
2.98352
2.9539
2.89914
2.74497
2.38646
1.66607
0.77383
0.414319
0.456873
0.477109
0.458335
0.43331
0.415441
0.411199
0.417465
0.43601
0.473654
3
2.99997
2.99994
2.99979
2.99957
2.99873
2.99751
2.99278
2.98544
2.95964
2.91056
2.77469
2.45013
1.77458
0.84727
0.459773
0.490004
0.505336
0.495005
0.476919
0.465916
0.467985
0.48743
0.532909
0.634521
3.00001
2.99996
2.99989
2.99962
2.99924
2.99768
2.99548
2.9868
2.97311
2.92653
2.82662
2.58738
1.99674
1.11154
0.463144
0.31084
0.339904
0.345508
0.314934
0.262556
0.210668
0.168198
0.12636
0.07974
0.045802
3.00001
2.99996
2.9999
2.99963
2.99925
2.99771
2.99553
2.98696
2.97343
2.92736
2.82835
2.59192
2.00439
1.1221
0.469586
0.311302
0.341126
0.347285
0.316896
0.265209
0.214618
0.173717
0.134233
0.0931486
0.069216
3.00001
2.99996
2.9999
2.99964
2.99927
2.99778
2.99565
2.98735
2.97409
2.92933
2.83173
2.60128
2.02081
1.14554
0.484306
0.313471
0.34513
0.352891
0.323465
0.27391
0.22661
0.189568
0.155503
0.123535
0.108456
3.00001
2.99997
2.9999
2.99965
2.9993
2.99787
2.99583
2.98794
2.97506
2.93238
2.83701
2.61548
2.04698
1.18336
0.507268
0.317069
0.351747
0.362174
0.33441
0.288119
0.245263
0.213331
0.185469
0.161451
0.151516
3.00002
2.99997
2.99991
2.99967
2.99934
2.99799
2.99606
2.98864
2.97631
2.93619
2.84507
2.63484
2.08197
1.23535
0.536466
0.320437
0.359607
0.37386
0.348426
0.306396
0.268763
0.242343
0.220687
0.202997
0.196796
3.00002
2.99997
2.99992
2.9997
2.99938
2.99812
2.99631
2.98939
2.97784
2.94036
2.85524
2.65765
2.13385
1.30721
0.576725
0.327954
0.371332
0.389702
0.366558
0.329122
0.296838
0.276077
0.260588
0.249248
0.246721
3.00002
2.99998
2.99993
2.99972
2.99943
2.99825
2.99658
2.99006
2.9796
2.94447
2.86806
2.68363
2.20612
1.4036
0.63012
0.343225
0.389382
0.411588
0.390352
0.357336
0.330373
0.31523
0.306125
0.301515
0.304926
3.00002
2.99998
2.99993
2.99974
2.99948
2.99839
2.99686
2.99072
2.98149
2.9484
2.88421
2.71381
2.29376
1.52491
0.696881
0.371224
0.417323
0.440826
0.420608
0.391563
0.369285
0.359948
0.358044
0.362593
0.376567
3.00002
2.99998
2.99994
2.99977
2.99953
2.99857
2.9972
2.99174
2.98354
2.95393
2.89917
2.74502
2.38651
1.66615
0.773919
0.414464
0.457003
0.47723
0.458464
0.433449
0.415587
0.411345
0.417605
0.436139
0.473765
3.00002
2.99999
2.99995
2.99981
2.99959
2.99875
2.99753
2.9928
2.98547
2.95967
2.91059
2.77474
2.45017
1.77466
0.847363
0.459917
0.490122
0.505443
0.495121
0.477041
0.466042
0.46811
0.487547
0.53301
0.634597
3.00002
3
2.99995
2.99987
2.99957
2.99912
2.9974
2.99482
2.9853
2.96896
2.91736
2.80016
2.5291
1.89553
1.00271
0.540266
0.521509
0.531095
0.531645
0.521042
0.517532
0.528921
0.566509
0.648969
0.816646
3.00002
3
2.99996
2.99989
2.99962
2.99924
2.99768
2.99548
2.98679
2.97325
2.92684
2.82898
2.59094
2.01417
1.15004
0.623445
0.541641
0.554501
0.564274
0.56343
0.568026
0.58999
0.641977
0.739598
0.90562
3.00002
3.00001
2.99997
2.99991
2.99968
2.99936
2.99807
2.99621
2.98918
2.97734
2.93945
2.85273
2.65386
2.12481
1.31096
0.711413
0.558658
0.57509
0.594051
0.603371
0.615832
0.64558
0.703381
0.796318
0.932047
3.00002
3.00001
2.99998
2.99993
2.99973
2.99946
2.99836
2.99679
2.99061
2.98105
2.94802
2.87943
2.70822
2.27156
1.51198
0.817026
0.587402
0.602734
0.623932
0.641643
0.661043
0.69438
0.750245
0.831711
0.943946
3.00002
3.00001
2.99999
2.99995
2.99979
2.99956
2.99867
2.99737
2.99231
2.98454
2.95705
2.90578
2.7606
2.43215
1.73594
0.945769
0.643048
0.645984
0.661693
0.680409
0.701951
0.73652
0.789833
0.859608
0.953372
3.00002
3.00001
3
2.99995
2.99987
2.99957
2.99914
2.99746
2.99494
2.9857
2.96983
2.91997
2.80673
2.54754
1.94152
1.09504
0.709658
0.689943
0.703174
0.720131
0.740197
0.77212
0.822695
0.886216
0.963963
3.00002
3.00002
3
2.99996
2.9999
2.99966
2.99931
2.99792
2.99594
2.98824
2.97598
2.93479
2.8456
2.63521
2.10367
1.29192
0.807414
0.718736
0.731902
0.750354
0.774476
0.804236
0.848257
0.908328
0.977259
3.00002
3.00002
3.00001
2.99998
2.99993
2.99974
2.99947
2.99839
2.99682
2.99084
2.98113
2.94896
2.87939
2.71016
2.27997
1.52323
0.927926
0.752044
0.756565
0.775587
0.804274
0.835383
0.873094
0.925075
0.988828
3.00002
3.00002
3.00001
3
2.99994
2.99985
2.99952
2.99903
2.99718
2.99428
2.98444
2.96516
2.91171
2.77715
2.49801
1.85049
1.10212
0.815511
0.796359
0.808065
0.832487
0.864162
0.900827
0.944021
0.999584
3.00002
3.00002
3.00002
3
2.99996
2.99989
2.99963
2.99926
2.9978
2.99564
2.98763
2.97407
2.93095
2.83302
2.6107
2.05573
1.26196
0.882974
0.831639
0.842781
0.862859
0.891377
0.925844
0.9653
1.01246
3.00003
3.00002
3.00002
3.00001
2.99999
2.99991
2.9998
2.99936
2.9987
2.99638
2.99217
2.97949
2.95004
2.87909
2.68253
2.30429
1.48837
1.00099
0.867323
0.870294
0.890294
0.917748
0.949656
0.986018
1.02655
3.00003
3.00003
3.00002
3.00001
3
2.99994
2.99985
2.99951
2.99902
2.99711
2.99428
2.98395
2.96571
2.91112
2.78017
2.50439
1.85591
1.17918
0.928842
0.907932
0.919462
0.94461
0.975202
1.00811
1.04386
3.00003
3.00003
3.00002
3.00002
3
2.99997
2.99987
2.99972
2.99913
2.99826
2.99495
2.98978
2.97195
2.93781
2.84521
2.61893
2.13738
1.3547
1.00347
0.941395
0.949149
0.969611
0.998041
1.02904
1.0617
3.00003
3.00003
3.00003
3.00002
3.00001
2.99999
2.99991
2.9998
2.99937
2.99876
2.99636
2.99274
2.97994
2.95633
2.8884
2.72122
2.37675
1.64409
1.14179
0.987541
0.981253
0.994089
1.01773
1.04775
1.07854
3.00003
3.00003
3.00003
3.00002
3.00002
2.99999
2.99996
2.99983
2.99965
2.99893
2.99786
2.99389
2.98753
2.96608
2.92616
2.81061
2.57167
1.98516
1.323
1.05832
1.01686
1.02275
1.04065
1.06697
1.09607
3.00003
3.00003
3.00003
3.00002
3.00002
3
2.99998
2.99989
2.99976
2.99926
2.99853
2.99572
2.99151
2.9764
2.94951
2.87179
2.68898
2.2958
1.55863
1.16568
1.05812
1.05235
1.06259
1.0841
1.11224
3.00003
3.00003
3.00003
3.00003
3.00002
3.00002
2.99999
2.99995
2.99981
2.9996
2.9988
2.9976
2.99317
2.98611
2.96248
2.91741
2.794
2.52141
1.92115
1.32202
1.11288
1.08593
1.0912
1.10737
1.1304
3.00003
3.00003
3.00003
3.00003
3.00002
3.00002
3
2.99998
2.99988
2.99974
2.99918
2.99839
2.99532
2.99072
2.97422
2.94524
2.8614
2.67087
2.24413
1.53897
1.19689
1.11898
1.11622
1.12739
1.14671
3.00003
3.00003
3.00003
3.00003
3.00003
3.00002
3.00001
2.99999
2.99995
2.99979
2.99957
2.99872
2.99743
2.99274
2.98512
2.9601
2.91118
2.78045
2.48702
1.8618
1.34476
1.16928
1.14621
1.15166
1.16681
3.00003
3.00003
3.00003
3.00003
3.00003
3.00003
3.00002
3.00001
2.99996
2.9999
2.99967
2.99932
2.99802
2.99605
2.98904
2.97707
2.94024
2.85785
2.67538
2.21572
1.55699
1.2479
1.18118
1.17719
1.18564
3.00003
3.00003
3.00003
3.00003
3.00003
3.00003
3.00002
3.00001
2.99999
2.99994
2.99979
2.99956
2.99867
2.99739
2.9925
2.98506
2.95914
2.91157
2.78051
2.48809
1.87808
1.39188
1.22598
1.20294
1.20386
3.00003
3.00003
3.00003
3.00003
3.00003
3.00003
3.00003
3.00002
3.00001
2.99996
2.9999
2.99967
2.99933
2.99805
2.99613
2.98927
2.97766
2.94175
2.86236
2.68483
2.24297
1.60685
1.30701
1.23566
1.2253
3.00003
3.00003
3.00003
3.00003
3.00003
3.00003
3.00003
3.00002
3.00001
2.99999
2.99995
2.99979
2.99958
2.99873
2.99751
2.99284
2.98588
2.96131
2.91724
2.79525
2.52384
1.95693
1.45338
1.27652
1.24364
3.00003
3.00003
3.00003
3.00003
3.00003
3.00003
3.00003
3.00002
3.00002
3
2.99998
2.99988
2.99975
2.99922
2.99846
2.99556
2.99126
2.97587
2.94932
2.87209
2.7024
2.3166
1.67949
1.35807
1.26075
3.00003
3.00003
3.00003
3.00003
3.00003
3.00003
3.00003
3.00003
3.00002
3.00001
3
2.99994
2.99985
2.99953
2.99906
2.99729
2.99468
2.98526
2.96951
2.92254
2.82135
2.58802
2.08229
1.52434
1.28978
3.00003
3.00003
3.00003
3.00003
3.00003
3.00003
3.00003
3.00003
3.00003
3.00002
3.00001
2.99998
2.9999
2.99977
2.9993
2.99858
2.99599
2.99192
2.97812
2.95296
2.88292
2.72413
2.3627
1.74471
1.34323
3.00003
3.00003
3.00003
3.00003
3.00003
3.00003
3.00003
3.00003
3.00003
3.00002
3.00002
2.99999
2.99996
2.99982
2.99962
2.99889
2.99777
2.99374
2.98722
2.96581
2.92574
2.8127
2.58015
2.02516
1.43895
3.00003
3.00003
3.00003
3.00003
3.00003
3.00003
3.00003
3.00003
3.00003
3.00003
3.00002
3.00001
2.99997
2.99991
2.99967
2.99933
2.99804
2.99613
2.98905
2.97754
2.94024
2.86138
2.6737
2.21899
1.50428
3.00003
3.00003
3.00003
3.00003
3.00003
3.00003
3.00003
3.00003
3.00003
3.00003
3.00002
3.00001
2.99998
2.99993
2.99974
2.99946
2.99836
2.99675
2.99059
2.98087
2.94737
2.88205
2.70536
2.29694
1.52977
3.00003
3.00003
3.00003
3.00003
3.00003
3.00003
3.00003
3.00003
3.00003
3.00003
3.00002
3.00001
2.99999
2.99993
2.99983
2.99947
2.99888
2.99691
2.99305
2.98197
2.95506
2.89134
2.70804
2.35435
1.533
3.00003
3.00003
3.00003
3.00003
3.00003
3.00003
3.00003
3.00003
3.00003
3.00003
3.00002
3.00002
2.99999
2.99995
2.99979
2.99956
2.99865
2.99724
2.9922
2.98301
2.95455
2.8879
2.7292
2.31769
1.54349
3.00003
3.00003
3.00003
3.00003
3.00003
3.00003
3.00003
3.00003
3.00003
3.00003
3.00002
3.00001
3
2.99993
2.99984
2.99949
2.99895
2.99696
2.99355
2.98261
2.9581
2.89569
2.72382
2.38045
1.57796
3.00003
3.00003
3.00003
3.00003
3.00003
3.00003
3.00003
3.00003
3.00003
3.00003
3.00002
3.00001
3
2.99994
2.99985
2.9995
2.99898
2.99702
2.99374
2.98298
2.95957
2.89843
2.73243
2.3968
1.6168
3.00003
3.00003
3.00003
3.00003
3.00003
3.00003
3.00003
3.00003
3.00003
3.00003
3.00002
3.00002
2.99999
2.99995
2.99981
2.99959
2.99875
2.99743
2.99277
2.98407
2.9576
2.8946
2.74546
2.3556
1.60847
3.00003
3.00003
3.00003
3.00003
3.00003
3.00003
3.00003
3.00003
3.00003
3.00003
3.00002
3.00001
3
2.99994
2.99986
2.99954
2.99903
2.99729
2.99392
2.98409
2.96043
2.90296
2.74128
2.41906
1.66379
3.00003
3.00003
3.00003
3.00003
3.00003
3.00003
3.00003
3.00003
3.00003
3.00003
3.00002
3.00002
2.99999
2.99995
2.99981
2.9996
2.99878
2.99749
2.99295
2.9845
2.95892
2.89807
2.75457
2.37647
1.65011
3.00003
3.00003
3.00003
3.00003
3.00003
3.00003
3.00003
3.00003
3.00003
3.00003
3.00002
3.00001
3
2.99994
2.99985
2.99951
2.99901
2.99709
2.994
2.98355
2.96206
2.90352
2.74993
2.43341
1.69469
3.00003
3.00003
3.00003
3.00003
3.00003
3.00003
3.00003
3.00003
3.00003
3.00003
3.00002
3.00001
3
2.99994
2.99985
2.99951
2.99901
2.99707
2.994
2.98351
2.9623
2.90384
2.75182
2.43664
1.70482
3.00003
3.00003
3.00003
3.00003
3.00003
3.00003
3.00003
3.00003
3.00003
3.00003
3.00002
3.00002
2.99999
2.99995
2.9998
2.99959
2.99872
2.99746
2.99257
2.98479
2.95819
2.90304
2.76002
2.40031
1.68727
3.00003
3.00003
3.00003
3.00003
3.00003
3.00003
3.00003
3.00003
3.00003
3.00003
3.00002
3.00002
2.99999
2.99995
2.9998
2.99958
2.99868
2.99742
2.99233
2.98468
2.9568
2.90479
2.75802
2.40794
1.69373
3
2.99998
2.99993
2.99985
2.99955
2.99911
2.99738
2.9948
2.98527
2.96894
2.91733
2.80013
2.52904
1.89548
1.00259
0.540141
0.521407
0.530995
0.531542
0.520934
0.517423
0.528816
0.566413
0.648891
0.816597
3
2.99999
2.99994
2.99987
2.9996
2.99922
2.99766
2.99546
2.98677
2.97323
2.92681
2.82895
2.59088
2.01412
1.14994
0.623334
0.541544
0.554407
0.56418
0.563334
0.56793
0.589899
0.641896
0.739533
0.905575
3
2.99999
2.99995
2.99989
2.99966
2.99934
2.99805
2.99619
2.98916
2.97731
2.93941
2.8527
2.65379
2.12475
1.31085
0.711308
0.558561
0.574998
0.593962
0.603283
0.615747
0.6455
0.703309
0.796259
0.932002
3
2.99999
2.99996
2.99991
2.99972
2.99944
2.99834
2.99677
2.99059
2.98103
2.94798