/*--------------------------------*- C++ -*----------------------------------*\
| =========                 |                                                 |
| \\      /  F ield         | OpenFOAM: The Open Source CFD Toolbox           |
|  \\    /   O peration     | Version:  4.1                                   |
|   \\  /    A nd           | Web:      www.OpenFOAM.org                      |
|    \\/     M anipulation  |                                                 |
\*---------------------------------------------------------------------------*/
FoamFile
{
    version     2.0;
    format      ascii;
    class       volScalarField;
    location    "7.72";
    object      Ma;
}
// * * * * * * * * * * * * * * * * * * * * * * * * * * * * * * * * * * * * * //

dimensions      [0 0 0 0 0 0 0];

internalField   nonuniform List<scalar> 
52500
(
3.00001
2.99996
2.99989
2.99961
2.99921
2.99761
2.99533
2.98638
2.97228
2.92433
2.82195
2.57505
1.9756
1.08243
0.449342
0.316299
0.341985
0.345563
0.314981
0.262796
0.211082
0.168526
0.126618
0.0799792
0.0459297
3.00001
2.99996
2.99989
2.99961
2.99922
2.99764
2.99539
2.98654
2.97259
2.92514
2.82364
2.57952
1.983
1.09247
0.455631
0.316831
0.343191
0.347336
0.317015
0.26558
0.215166
0.174183
0.134601
0.0934479
0.0694048
3.00001
2.99996
2.99989
2.99962
2.99924
2.99769
2.99549
2.98685
2.97322
2.92681
2.82722
2.58887
1.99927
1.11507
0.470399
0.31947
0.347394
0.353088
0.32377
0.274464
0.227252
0.190091
0.15593
0.123879
0.108754
3.00001
2.99996
2.9999
2.99964
2.99927
2.99778
2.99567
2.9874
2.97419
2.92963
2.8324
2.60291
2.02431
1.15074
0.492885
0.32328
0.353992
0.362388
0.334822
0.28883
0.246023
0.213896
0.185975
0.161917
0.151937
3.00002
2.99997
2.99991
2.99966
2.99931
2.99791
2.9959
2.98816
2.97546
2.93358
2.83962
2.62169
2.05868
1.201
0.522707
0.327862
0.362484
0.374534
0.349288
0.307419
0.269802
0.243202
0.221356
0.203602
0.197372
3.00002
2.99997
2.99991
2.99968
2.99936
2.99805
2.99617
2.98901
2.97698
2.93826
2.84954
2.64565
2.10261
1.26643
0.559286
0.332971
0.372613
0.389249
0.36682
0.329726
0.297731
0.276999
0.261518
0.250063
0.247459
3.00002
2.99997
2.99992
2.99971
2.99941
2.99819
2.99645
2.98978
2.97876
2.94264
2.86154
2.6709
2.17031
1.35639
0.609864
0.345352
0.388189
0.40897
0.388885
0.3567
0.330516
0.315791
0.306884
0.3024
0.305796
3.00002
2.99998
2.99993
2.99973
2.99945
2.99832
2.99673
2.99035
2.98066
2.94654
2.8774
2.70071
2.25615
1.47177
0.674012
0.368959
0.412662
0.435667
0.416745
0.388864
0.367973
0.35979
0.358587
0.363374
0.3774
3.00002
2.99998
2.99994
2.99976
2.99951
2.9985
2.99706
2.99135
2.98274
2.95178
2.89348
2.73302
2.34995
1.61018
0.748845
0.407074
0.448297
0.470114
0.452105
0.428366
0.412254
0.409596
0.417178
0.436548
0.474235
3.00002
2.99999
2.99995
2.9998
2.99957
2.9987
2.99742
2.99247
2.98479
2.95779
2.90674
2.76364
2.43108
1.7308
0.830815
0.454757
0.486546
0.502448
0.489478
0.47169
0.461721
0.465181
0.48592
0.53229
0.634023
2.99999
2.99994
2.99987
2.99959
2.99919
2.99759
2.99531
2.98636
2.97226
2.92429
2.82192
2.57498
1.97554
1.0823
0.449175
0.316117
0.341808
0.345382
0.314779
0.26255
0.21077
0.168128
0.126079
0.0791091
0.0443749
2.99999
2.99994
2.99987
2.99959
2.9992
2.99762
2.99536
2.98652
2.97256
2.92511
2.82361
2.57945
1.98293
1.09234
0.455468
0.316651
0.343016
0.347158
0.316817
0.265339
0.214863
0.173803
0.1341
0.0927146
0.0684002
2.99999
2.99994
2.99988
2.9996
2.99922
2.99767
2.99547
2.98683
2.9732
2.92677
2.82719
2.5888
1.9992
1.11493
0.47024
0.319293
0.347223
0.352914
0.323578
0.274235
0.22697
0.189749
0.155506
0.123336
0.108125
3
2.99995
2.99988
2.99962
2.99925
2.99776
2.99565
2.98738
2.97417
2.92959
2.83238
2.60284
2.02425
1.15061
0.492742
0.323117
0.353832
0.362225
0.334644
0.288619
0.245771
0.213599
0.185627
0.16151
0.151496
3
2.99995
2.99989
2.99964
2.99929
2.99789
2.99588
2.98813
2.97543
2.93354
2.83959
2.62161
2.0586
1.20085
0.522559
0.327693
0.362324
0.374375
0.349117
0.307224
0.269576
0.242947
0.221071
0.203286
0.19704
3
2.99995
2.9999
2.99966
2.99934
2.99803
2.99615
2.98899
2.97696
2.93822
2.8495
2.64558
2.10252
1.26628
0.559144
0.332803
0.372453
0.389092
0.366655
0.329543
0.297528
0.276779
0.261282
0.249813
0.247202
3
2.99996
2.9999
2.99969
2.99939
2.99817
2.99643
2.98976
2.97874
2.9426
2.8615
2.67082
2.17021
1.35623
0.609727
0.345185
0.388032
0.408817
0.388726
0.35653
0.330333
0.3156
0.306687
0.302199
0.305596
3
2.99996
2.99991
2.99971
2.99944
2.9983
2.99671
2.99033
2.98064
2.9465
2.87737
2.70064
2.25608
1.47162
0.673896
0.368807
0.412515
0.435524
0.416597
0.388707
0.367809
0.359624
0.358423
0.363213
0.377245
3
2.99997
2.99992
2.99974
2.99949
2.99848
2.99704
2.99133
2.98272
2.95175
2.89344
2.73295
2.34986
1.61002
0.748729
0.406924
0.448155
0.46998
0.451967
0.428224
0.412109
0.409453
0.41704
0.436419
0.474119
3
2.99997
2.99993
2.99978
2.99956
2.99868
2.9974
2.99244
2.98477
2.95776
2.9067
2.76358
2.43103
1.73066
0.83072
0.454628
0.486428
0.502332
0.489358
0.471564
0.461594
0.465057
0.485805
0.532189
0.633944
2.99999
2.99994
2.99987
2.99959
2.99919
2.99759
2.99531
2.98636
2.97226
2.92429
2.82192
2.57497
1.97553
1.08229
0.449172
0.316118
0.341808
0.345382
0.314779
0.26255
0.21077
0.168128
0.126079
0.0791091
0.0443749
2.99999
2.99994
2.99987
2.99959
2.9992
2.99762
2.99536
2.98652
2.97256
2.92511
2.82361
2.57945
1.98293
1.09234
0.455465
0.316652
0.343017
0.347158
0.316817
0.265339
0.214863
0.173803
0.1341
0.0927146
0.0684002
2.99999
2.99994
2.99988
2.9996
2.99922
2.99767
2.99547
2.98683
2.9732
2.92677
2.82719
2.58879
1.9992
1.11493
0.470236
0.319294
0.347224
0.352914
0.323578
0.274235
0.22697
0.189749
0.155506
0.123336
0.108125
3
2.99995
2.99988
2.99962
2.99925
2.99776
2.99565
2.98738
2.97417
2.92959
2.83238
2.60284
2.02425
1.1506
0.492739
0.323118
0.353833
0.362225
0.334644
0.288619
0.245771
0.213599
0.185627
0.16151
0.151496
3
2.99995
2.99989
2.99964
2.99929
2.99789
2.99588
2.98813
2.97543
2.93354
2.83959
2.62161
2.0586
1.20085
0.522556
0.327695
0.362325
0.374375
0.349118
0.307224
0.269576
0.242947
0.221071
0.203286
0.19704
3
2.99995
2.9999
2.99966
2.99934
2.99803
2.99615
2.98899
2.97696
2.93822
2.8495
2.64557
2.10252
1.26628
0.559141
0.332804
0.372454
0.389092
0.366655
0.329543
0.297528
0.276779
0.261282
0.249814
0.247202
3
2.99996
2.9999
2.99969
2.99939
2.99817
2.99643
2.98976
2.97874
2.9426
2.8615
2.67082
2.1702
1.35622
0.609723
0.345186
0.388032
0.408817
0.388726
0.35653
0.330333
0.3156
0.306687
0.302199
0.305596
3
2.99996
2.99991
2.99971
2.99944
2.9983
2.99671
2.99033
2.98064
2.9465
2.87737
2.70064
2.25608
1.47161
0.673891
0.368807
0.412515
0.435523
0.416596
0.388707
0.367809
0.359624
0.358423
0.363213
0.377245
3
2.99997
2.99992
2.99974
2.99949
2.99848
2.99704
2.99133
2.98272
2.95175
2.89344
2.73295
2.34985
1.61
0.748724
0.406922
0.448154
0.469979
0.451966
0.428223
0.412108
0.409452
0.41704
0.436419
0.474119
3
2.99997
2.99993
2.99978
2.99956
2.99868
2.9974
2.99244
2.98477
2.95776
2.9067
2.76358
2.43102
1.73065
0.830716
0.454628
0.486427
0.502331
0.489357
0.471563
0.461593
0.465057
0.485805
0.532189
0.633943
2.99999
2.99994
2.99987
2.99959
2.99919
2.99759
2.99531
2.98636
2.97226
2.92429
2.82192
2.57497
1.97553
1.08229
0.449172
0.316118
0.341808
0.345382
0.314779
0.26255
0.21077
0.168128
0.126079
0.0791091
0.0443749
2.99999
2.99994
2.99987
2.99959
2.9992
2.99762
2.99536
2.98652
2.97256
2.92511
2.82361
2.57945
1.98293
1.09234
0.455464
0.316653
0.343017
0.347158
0.316817
0.265339
0.214863
0.173803
0.1341
0.0927146
0.0684002
2.99999
2.99994
2.99988
2.9996
2.99922
2.99767
2.99547
2.98683
2.9732
2.92677
2.82719
2.58879
1.9992
1.11493
0.470236
0.319294
0.347224
0.352914
0.323578
0.274235
0.22697
0.189749
0.155506
0.123336
0.108125
3
2.99995
2.99988
2.99962
2.99925
2.99776
2.99565
2.98738
2.97417
2.92959
2.83238
2.60284
2.02425
1.1506
0.492739
0.323119
0.353833
0.362225
0.334644
0.288619
0.245771
0.213599
0.185627
0.16151
0.151496
3
2.99995
2.99989
2.99964
2.99929
2.99789
2.99588
2.98813
2.97543
2.93354
2.83959
2.62161
2.0586
1.20085
0.522556
0.327695
0.362325
0.374375
0.349118
0.307224
0.269576
0.242947
0.221071
0.203286
0.19704
3
2.99995
2.9999
2.99966
2.99934
2.99803
2.99615
2.98899
2.97696
2.93822
2.8495
2.64557
2.10252
1.26627
0.55914
0.332804
0.372454
0.389092
0.366655
0.329543
0.297528
0.276779
0.261282
0.249814
0.247202
3
2.99996
2.9999
2.99969
2.99939
2.99817
2.99643
2.98976
2.97874
2.9426
2.8615
2.67082
2.1702
1.35622
0.609723
0.345186
0.388032
0.408817
0.388726
0.35653
0.330333
0.3156
0.306687
0.302199
0.305596
3
2.99996
2.99991
2.99971
2.99944
2.9983
2.99671
2.99033
2.98064
2.9465
2.87737
2.70064
2.25608
1.47161
0.673891
0.368807
0.412514
0.435523
0.416596
0.388707
0.367809
0.359624
0.358423
0.363213
0.377245
3
2.99997
2.99992
2.99974
2.99949
2.99848
2.99704
2.99133
2.98272
2.95175
2.89344
2.73295
2.34985
1.61
0.748724
0.406922
0.448154
0.469979
0.451966
0.428223
0.412108
0.409452
0.41704
0.436419
0.474119
3
2.99997
2.99993
2.99978
2.99956
2.99868
2.9974
2.99244
2.98477
2.95776
2.9067
2.76358
2.43102
1.73065
0.830716
0.454627
0.486427
0.502331
0.489356
0.471563
0.461593
0.465057
0.485805
0.532189
0.633943
2.99999
2.99994
2.99987
2.99959
2.99919
2.99759
2.99531
2.98636
2.97226
2.92429
2.82192
2.57497
1.97553
1.08229
0.449171
0.316119
0.341808
0.345382
0.314779
0.26255
0.21077
0.168128
0.126079
0.0791091
0.0443749
2.99999
2.99994
2.99987
2.99959
2.9992
2.99762
2.99536
2.98652
2.97256
2.92511
2.82361
2.57945
1.98293
1.09233
0.455464
0.316653
0.343017
0.347158
0.316817
0.265339
0.214863
0.173803
0.1341
0.0927146
0.0684002
2.99999
2.99994
2.99988
2.9996
2.99922
2.99767
2.99547
2.98683
2.9732
2.92677
2.82719
2.58879
1.99919
1.11492
0.470236
0.319295
0.347224
0.352914
0.323578
0.274235
0.22697
0.189749
0.155506
0.123336
0.108125
3
2.99995
2.99988
2.99962
2.99925
2.99776
2.99565
2.98738
2.97417
2.92959
2.83238
2.60284
2.02425
1.1506
0.492738
0.323119
0.353833
0.362225
0.334644
0.288619
0.245771
0.213599
0.185627
0.16151
0.151496
3
2.99995
2.99989
2.99964
2.99929
2.99789
2.99588
2.98813
2.97543
2.93354
2.83959
2.62161
2.0586
1.20084
0.522555
0.327695
0.362325
0.374375
0.349118
0.307224
0.269576
0.242947
0.221071
0.203286
0.19704
3
2.99995
2.9999
2.99966
2.99934
2.99803
2.99615
2.98899
2.97696
2.93822
2.8495
2.64557
2.10252
1.26627
0.55914
0.332805
0.372454
0.389092
0.366655
0.329543
0.297528
0.276779
0.261282
0.249814
0.247202
3
2.99996
2.9999
2.99969
2.99939
2.99817
2.99643
2.98976
2.97874
2.9426
2.8615
2.67082
2.1702
1.35622
0.609722
0.345186
0.388032
0.408816
0.388726
0.35653
0.330333
0.3156
0.306687
0.302199
0.305596
3
2.99996
2.99991
2.99971
2.99944
2.9983
2.99671
2.99033
2.98064
2.9465
2.87737
2.70064
2.25607
1.47161
0.67389
0.368807
0.412514
0.435523
0.416596
0.388707
0.367809
0.359624
0.358423
0.363213
0.377245
3
2.99997
2.99992
2.99974
2.99949
2.99848
2.99704
2.99133
2.98272
2.95175
2.89344
2.73295
2.34985
1.61
0.748723
0.406922
0.448153
0.469978
0.451966
0.428223
0.412108
0.409452
0.41704
0.436419
0.474119
3
2.99997
2.99993
2.99978
2.99956
2.99868
2.9974
2.99244
2.98477
2.95776
2.9067
2.76358
2.43102
1.73065
0.830715
0.454627
0.486427
0.502331
0.489356
0.471563
0.461593
0.465057
0.485805
0.532189
0.633943
2.99999
2.99994
2.99987
2.99959
2.99919
2.99759
2.99531
2.98636
2.97226
2.92429
2.82192
2.57497
1.97553
1.08229
0.449171
0.316119
0.341809
0.345382
0.314779
0.26255
0.21077
0.168128
0.126079
0.0791091
0.0443749
2.99999
2.99994
2.99987
2.99959
2.9992
2.99762
2.99536
2.98652
2.97256
2.92511
2.82361
2.57945
1.98293
1.09233
0.455464
0.316653
0.343017
0.347158
0.316817
0.265339
0.214863
0.173803
0.1341
0.0927146
0.0684002
2.99999
2.99994
2.99988
2.9996
2.99922
2.99767
2.99547
2.98683
2.9732
2.92677
2.82719
2.58879
1.99919
1.11492
0.470235
0.319295
0.347224
0.352914
0.323578
0.274235
0.22697
0.189749
0.155506
0.123336
0.108125
3
2.99995
2.99988
2.99962
2.99925
2.99776
2.99565
2.98738
2.97417
2.92959
2.83238
2.60284
2.02425
1.1506
0.492738
0.323119
0.353833
0.362225
0.334644
0.288619
0.245771
0.213599
0.185627
0.16151
0.151496
3
2.99995
2.99989
2.99964
2.99929
2.99789
2.99588
2.98813
2.97543
2.93354
2.83959
2.62161
2.0586
1.20084
0.522555
0.327695
0.362325
0.374375
0.349118
0.307224
0.269576
0.242947
0.221071
0.203286
0.19704
3
2.99995
2.9999
2.99966
2.99934
2.99803
2.99615
2.98899
2.97696
2.93822
2.8495
2.64557
2.10252
1.26627
0.559139
0.332805
0.372454
0.389092
0.366655
0.329543
0.297528
0.276779
0.261282
0.249814
0.247202
3
2.99996
2.9999
2.99969
2.99939
2.99817
2.99643
2.98976
2.97874
2.9426
2.8615
2.67082
2.1702
1.35622
0.609722
0.345186
0.388032
0.408816
0.388726
0.35653
0.330333
0.3156
0.306687
0.302199
0.305596
3
2.99996
2.99991
2.99971
2.99944
2.9983
2.99671
2.99033
2.98064
2.9465
2.87737
2.70064
2.25607
1.47161
0.67389
0.368807
0.412514
0.435523
0.416596
0.388707
0.367809
0.359624
0.358423
0.363213
0.377245
3
2.99997
2.99992
2.99974
2.99949
2.99848
2.99704
2.99133
2.98272
2.95175
2.89344
2.73295
2.34985
1.61
0.748723
0.406922
0.448153
0.469978
0.451966
0.428223
0.412108
0.409452
0.41704
0.436419
0.474119
3
2.99997
2.99993
2.99978
2.99956
2.99868
2.9974
2.99244
2.98477
2.95776
2.9067
2.76358
2.43102
1.73065
0.830715
0.454627
0.486427
0.502331
0.489356
0.471563
0.461593
0.465057
0.485804
0.532189
0.633943
2.99999
2.99994
2.99987
2.99959
2.99919
2.99759
2.99531
2.98636
2.97226
2.92429
2.82192
2.57497
1.97553
1.08229
0.449172
0.316119
0.341808
0.345382
0.314779
0.26255
0.21077
0.168128
0.126079
0.0791091
0.0443749
2.99999
2.99994
2.99987
2.99959
2.9992
2.99762
2.99536
2.98652
2.97256
2.92511
2.82361
2.57945
1.98293
1.09233
0.455464
0.316653
0.343017
0.347158
0.316817
0.265339
0.214863
0.173803
0.1341
0.0927146
0.0684002
2.99999
2.99994
2.99988
2.9996
2.99922
2.99767
2.99547
2.98683
2.9732
2.92677
2.82719
2.58879
1.9992
1.11493
0.470236
0.319295
0.347224
0.352914
0.323578
0.274235
0.22697
0.189749
0.155506
0.123336
0.108125
3
2.99995
2.99988
2.99962
2.99925
2.99776
2.99565
2.98738
2.97417
2.92959
2.83238
2.60284
2.02425
1.1506
0.492738
0.323119
0.353833
0.362225
0.334644
0.288619
0.245771
0.213599
0.185627
0.16151
0.151496
3
2.99995
2.99989
2.99964
2.99929
2.99789
2.99588
2.98813
2.97543
2.93354
2.83959
2.62161
2.0586
1.20085
0.522555
0.327695
0.362325
0.374375
0.349118
0.307224
0.269576
0.242947
0.221071
0.203286
0.19704
3
2.99995
2.9999
2.99966
2.99934
2.99803
2.99615
2.98899
2.97696
2.93822
2.8495
2.64557
2.10252
1.26627
0.55914
0.332804
0.372454
0.389092
0.366655
0.329543
0.297528
0.276779
0.261282
0.249814
0.247202
3
2.99996
2.9999
2.99969
2.99939
2.99817
2.99643
2.98976
2.97874
2.9426
2.8615
2.67082
2.1702
1.35622
0.609722
0.345186
0.388032
0.408816
0.388726
0.35653
0.330333
0.3156
0.306687
0.302199
0.305596
3
2.99996
2.99991
2.99971
2.99944
2.9983
2.99671
2.99033
2.98064
2.9465
2.87737
2.70064
2.25607
1.47161
0.673891
0.368807
0.412514
0.435523
0.416596
0.388707
0.367809
0.359624
0.358423
0.363213
0.377245
3
2.99997
2.99992
2.99974
2.99949
2.99848
2.99704
2.99133
2.98272
2.95175
2.89344
2.73295
2.34985
1.61
0.748724
0.406922
0.448153
0.469978
0.451966
0.428223
0.412108
0.409452
0.41704
0.436419
0.474119
3
2.99997
2.99993
2.99978
2.99956
2.99868
2.9974
2.99244
2.98477
2.95776
2.9067
2.76358
2.43102
1.73065
0.830715
0.454627
0.486427
0.502331
0.489356
0.471563
0.461593
0.465057
0.485805
0.532189
0.633943
2.99999
2.99994
2.99987
2.99959
2.99919
2.99759
2.99531
2.98636
2.97226
2.92429
2.82192
2.57497
1.97553
1.08229
0.449172
0.316118
0.341808
0.345382
0.314779
0.26255
0.21077
0.168128
0.126079
0.0791091
0.0443749
2.99999
2.99994
2.99987
2.99959
2.9992
2.99762
2.99536
2.98652
2.97256
2.92511
2.82361
2.57945
1.98293
1.09234
0.455465
0.316652
0.343017
0.347158
0.316817
0.265339
0.214863
0.173803
0.1341
0.0927146
0.0684002
2.99999
2.99994
2.99988
2.9996
2.99922
2.99767
2.99547
2.98683
2.9732
2.92677
2.82719
2.58879
1.9992
1.11493
0.470236
0.319294
0.347224
0.352914
0.323578
0.274235
0.22697
0.189749
0.155506
0.123336
0.108125
3
2.99995
2.99988
2.99962
2.99925
2.99776
2.99565
2.98738
2.97417
2.92959
2.83238
2.60284
2.02425
1.1506
0.492739
0.323118
0.353833
0.362225
0.334644
0.288619
0.245771
0.213599
0.185627
0.16151
0.151496
3
2.99995
2.99989
2.99964
2.99929
2.99789
2.99588
2.98813
2.97543
2.93354
2.83959
2.62161
2.0586
1.20085
0.522556
0.327695
0.362325
0.374375
0.349118
0.307224
0.269576
0.242947
0.221071
0.203286
0.19704
3
2.99995
2.9999
2.99966
2.99934
2.99803
2.99615
2.98899
2.97696
2.93822
2.8495
2.64557
2.10252
1.26628
0.55914
0.332804
0.372454
0.389092
0.366655
0.329543
0.297528
0.276779
0.261282
0.249814
0.247202
3
2.99996
2.9999
2.99969
2.99939
2.99817
2.99643
2.98976
2.97874
2.9426
2.8615
2.67082
2.1702
1.35622
0.609723
0.345186
0.388032
0.408817
0.388726
0.35653
0.330333
0.3156
0.306687
0.302199
0.305596
3
2.99996
2.99991
2.99971
2.99944
2.9983
2.99671
2.99033
2.98064
2.9465
2.87737
2.70064
2.25608
1.47161
0.673891
0.368807
0.412515
0.435523
0.416596
0.388707
0.367809
0.359624
0.358423
0.363213
0.377245
3
2.99997
2.99992
2.99974
2.99949
2.99848
2.99704
2.99133
2.98272
2.95175
2.89344
2.73295
2.34985
1.61
0.748724
0.406922
0.448154
0.469979
0.451966
0.428223
0.412108
0.409452
0.41704
0.436419
0.474119
3
2.99997
2.99993
2.99978
2.99956
2.99868
2.9974
2.99244
2.98477
2.95776
2.9067
2.76358
2.43102
1.73065
0.830716
0.454628
0.486427
0.502331
0.489357
0.471563
0.461593
0.465057
0.485805
0.532189
0.633943
2.99999
2.99994
2.99987
2.99959
2.99919
2.99759
2.99531
2.98636
2.97226
2.92429
2.82192
2.57498
1.97554
1.0823
0.449175
0.316117
0.341808
0.345382
0.314779
0.26255
0.21077
0.168128
0.126079
0.0791091
0.0443749
2.99999
2.99994
2.99987
2.99959
2.9992
2.99762
2.99536
2.98652
2.97256
2.92511
2.82361
2.57945
1.98293
1.09234
0.455468
0.316651
0.343016
0.347158
0.316817
0.265339
0.214863
0.173803
0.1341
0.0927146
0.0684002
2.99999
2.99994
2.99988
2.9996
2.99922
2.99767
2.99547
2.98683
2.9732
2.92677
2.82719
2.5888
1.9992
1.11493
0.47024
0.319293
0.347223
0.352914
0.323578
0.274235
0.22697
0.189749
0.155506
0.123336
0.108125
3
2.99995
2.99988
2.99962
2.99925
2.99776
2.99565
2.98738
2.97417
2.92959
2.83238
2.60284
2.02425
1.15061
0.492742
0.323117
0.353832
0.362225
0.334644
0.288619
0.245771
0.213599
0.185627
0.16151
0.151496
3
2.99995
2.99989
2.99964
2.99929
2.99789
2.99588
2.98813
2.97543
2.93354
2.83959
2.62161
2.0586
1.20085
0.522559
0.327693
0.362324
0.374375
0.349117
0.307224
0.269576
0.242947
0.221071
0.203286
0.19704
3
2.99995
2.9999
2.99966
2.99934
2.99803
2.99615
2.98899
2.97696
2.93822
2.8495
2.64558
2.10252
1.26628
0.559144
0.332803
0.372453
0.389092
0.366655
0.329543
0.297528
0.276779
0.261282
0.249813
0.247202
3
2.99996
2.9999
2.99969
2.99939
2.99817
2.99643
2.98976
2.97874
2.9426
2.8615
2.67082
2.17021
1.35623
0.609727
0.345185
0.388032
0.408817
0.388726
0.35653
0.330333
0.3156
0.306687
0.302199
0.305596
3
2.99996
2.99991
2.99971
2.99944
2.9983
2.99671
2.99033
2.98064
2.9465
2.87737
2.70064
2.25608
1.47162
0.673896
0.368807
0.412515
0.435524
0.416597
0.388707
0.367809
0.359624
0.358423
0.363213
0.377245
3
2.99997
2.99992
2.99974
2.99949
2.99848
2.99704
2.99133
2.98272
2.95175
2.89344
2.73295
2.34986
1.61002
0.748729
0.406924
0.448156
0.46998
0.451967
0.428224
0.412109
0.409453
0.41704
0.436419
0.474119
3
2.99997
2.99993
2.99978
2.99956
2.99868
2.9974
2.99244
2.98477
2.95776
2.9067
2.76358
2.43103
1.73066
0.83072
0.454628
0.486428
0.502332
0.489358
0.471564
0.461594
0.465057
0.485805
0.532189
0.633944
3.00001
2.99996
2.99989
2.99961
2.99921
2.99761
2.99533
2.98638
2.97228
2.92433
2.82195
2.57505
1.9756
1.08243
0.449342
0.316299
0.341985
0.345563
0.314981
0.262796
0.211082
0.168526
0.126618
0.0799792
0.0459297
3.00001
2.99996
2.99989
2.99961
2.99922
2.99764
2.99539
2.98654
2.97259
2.92514
2.82364
2.57952
1.983
1.09247
0.455631
0.31683
0.34319
0.347336
0.317015
0.26558
0.215166
0.174183
0.134601
0.0934479
0.0694048
3.00001
2.99996
2.99989
2.99962
2.99924
2.99769
2.99549
2.98685
2.97322
2.92681
2.82722
2.58887
1.99927
1.11507
0.470399
0.31947
0.347394
0.353088
0.32377
0.274464
0.227252
0.190091
0.15593
0.123879
0.108754
3.00001
2.99996
2.9999
2.99964
2.99927
2.99778
2.99567
2.9874
2.97419
2.92963
2.8324
2.60291
2.02431
1.15074
0.492885
0.32328
0.353992
0.362388
0.334822
0.28883
0.246023
0.213896
0.185975
0.161917
0.151937
3.00002
2.99997
2.99991
2.99966
2.99931
2.99791
2.9959
2.98816
2.97546
2.93358
2.83962
2.62169
2.05868
1.201
0.522707
0.327861
0.362484
0.374534
0.349288
0.307419
0.269802
0.243202
0.221356
0.203602
0.197372
3.00002
2.99997
2.99991
2.99968
2.99936
2.99805
2.99617
2.98901
2.97698
2.93826
2.84954
2.64565
2.10261
1.26644
0.559286
0.332971
0.372613
0.389249
0.36682
0.329726
0.297731
0.276999
0.261518
0.250063
0.247459
3.00002
2.99997
2.99992
2.99971
2.99941
2.99819
2.99645
2.98978
2.97876
2.94264
2.86154
2.6709
2.17031
1.3564
0.609864
0.345351
0.388189
0.40897
0.388885
0.3567
0.330516
0.315791
0.306884
0.3024
0.305796
3.00002
2.99998
2.99993
2.99973
2.99945
2.99832
2.99673
2.99035
2.98066
2.94654
2.8774
2.70071
2.25615
1.47177
0.674013
0.368959
0.412662
0.435667
0.416745
0.388864
0.367973
0.35979
0.358587
0.363374
0.3774
3.00002
2.99998
2.99994
2.99976
2.99951
2.9985
2.99706
2.99135
2.98274
2.95178
2.89348
2.73302
2.34995
1.61018
0.748845
0.407074
0.448297
0.470115
0.452105
0.428366
0.412254
0.409596
0.417178
0.436548
0.474235
3.00002
2.99999
2.99995
2.9998
2.99957
2.9987
2.99742
2.99247
2.98479
2.95779
2.90674
2.76364
2.43108
1.7308
0.830815
0.454757
0.486546
0.502448
0.489479
0.47169
0.461721
0.465181
0.48592
0.53229
0.634023
3.00002
3
2.99994
2.99986
2.99955
2.99909
2.9973
2.99461
2.98481
2.96766
2.91454
2.79139
2.51261
1.86485
0.966931
0.525813
0.522012
0.530628
0.528375
0.516696
0.513131
0.525287
0.563905
0.646988
0.81406
3.00002
3
2.99995
2.99988
2.9996
2.9992
2.99758
2.99529
2.98621
2.9721
2.92375
2.82246
2.57374
1.98528
1.11149
0.607469
0.544273
0.556083
0.563298
0.560596
0.564278
0.586088
0.638482
0.736139
0.900914
3.00002
3.00001
2.99996
2.99991
2.99967
2.99933
2.99797
2.99603
2.98858
2.97631
2.9362
2.84615
2.63775
2.09653
1.2687
0.693387
0.561633
0.577348
0.594425
0.601644
0.612877
0.642001
0.699644
0.792054
0.926203
3.00002
3.00001
2.99997
2.99993
2.99972
2.99944
2.99831
2.99668
2.99043
2.98019
2.94657
2.87176
2.69503
2.23144
1.46017
0.791755
0.585552
0.602223
0.622969
0.639738
0.658068
0.690814
0.746219
0.827041
0.937943
3.00002
3.00001
2.99998
2.99994
2.99978
2.99954
2.99859
2.99722
2.99186
2.98362
2.9545
2.89955
2.74615
2.39305
1.66893
0.917062
0.635821
0.640496
0.65687
0.676314
0.698452
0.732778
0.785561
0.85472
0.94748
3.00002
3.00001
3
2.99994
2.99986
2.99955
2.9991
2.99734
2.99469
2.98509
2.96827
2.91655
2.79698
2.52701
1.90979
1.06821
0.702954
0.685621
0.697764
0.715423
0.73597
0.768088
0.818382
0.881269
0.958231
3.00002
3.00001
3
2.99996
2.99989
2.99964
2.99927
2.99779
2.99571
2.98746
2.97471
2.93085
2.83911
2.61697
2.07219
1.25038
0.79008
0.716831
0.729885
0.748131
0.771216
0.800619
0.844276
0.903589
0.971779
3.00002
3.00002
3.00001
2.99998
2.99993
2.99973
2.99945
2.99834
2.9967
2.99069
2.98023
2.94753
2.87212
2.69775
2.23746
1.47634
0.90152
0.74725
0.75499
0.774238
0.802114
0.832452
0.869662
0.920792
0.983594
3.00002
3.00002
3.00001
3
2.99994
2.99985
2.9995
2.99899
2.99714
2.99396
2.9839
2.96192
2.90614
2.75737
2.45997
1.75399
1.06764
0.80381
0.790693
0.804149
0.829858
0.861663
0.897597
0.939808
0.994222
3.00002
3.00002
3.00001
3
2.99995
2.99989
2.99961
2.99922
2.99765
2.99538
2.98679
2.97251
2.92654
2.82339
2.58868
2.01924
1.22776
0.872492
0.829244
0.839495
0.860345
0.889068
0.923029
0.961502
1.00687
3.00003
3.00002
3.00002
3.00001
2.99998
2.9999
2.99978
2.99932
2.99862
2.99615
2.99167
2.97819
2.94691
2.87167
2.66374
2.26683
1.43586
0.980379
0.863289
0.867861
0.887368
0.915059
0.945674
0.981814
1.0219
3.00003
3.00003
3.00002
3.00001
2.99999
2.99993
2.99984
2.99947
2.99895
2.99689
2.99384
2.98278
2.96292
2.90429
2.76152
2.46455
1.77946
1.14474
0.919732
0.903461
0.915605
0.939696
0.968886
1.00104
1.03733
3.00003
3.00003
3.00002
3.00002
3
2.99997
2.99986
2.99969
2.99905
2.99811
2.99454
2.98894
2.96956
2.93355
2.8309
2.60268
2.07106
1.32155
0.993375
0.937565
0.944869
0.964302
0.991582
1.02134
1.05399
3.00003
3.00003
3.00002
3.00002
3.00001
2.99999
2.9999
2.99979
2.99933
2.99866
2.99609
2.99222
2.97851
2.95323
2.88097
2.70398
2.33832
1.5871
1.12166
0.979979
0.975112
0.986613
1.01016
1.03953
1.06968
3.00003
3.00003
3.00003
3.00002
3.00002
2.99999
2.99996
2.99982
2.99962
2.99886
2.99771
2.99348
2.98672
2.964
2.92108
2.8005
2.54249
1.94354
1.28858
1.04301
1.00984
1.01547
1.03319
1.05904
1.08665
3.00003
3.00003
3.00003
3.00002
3.00002
3
2.99998
2.99988
2.99974
2.9992
2.99842
2.99539
2.99086
2.9746
2.94559
2.86268
2.66725
2.2464
1.49992
1.13074
1.04487
1.04292
1.05545
1.07692
1.10255
3.00003
3.00003
3.00003
3.00003
3.00002
3.00001
2.99999
2.99995
2.99979
2.99956
2.99868
2.99738
2.99253
2.98481
2.95899
2.90883
2.77521
2.46842
1.83581
1.27483
1.0925
1.07305
1.08077
1.09839
1.12075
3.00003
3.00003
3.00003
3.00003
3.00002
3.00002
3
2.99997
2.99986
2.99971
2.9991
2.99822
2.99484
2.98974
2.97156
2.9398
2.8446
2.64758
2.16195
1.48692
1.17262
1.10592
1.10422
1.11571
1.13303
3.00003
3.00003
3.00003
3.00003
3.00003
3.00002
3.00001
2.99998
2.99994
2.99977
2.99952
2.99858
2.99717
2.99198
2.98364
2.95616
2.90112
2.76007
2.42977
1.77877
1.30597
1.15286
1.13176
1.13541
1.14503
3.00003
3.00003
3.00003
3.00003
3.00003
3.00002
3.00002
3
2.99996
2.99989
2.99963
2.99924
2.9978
2.99563
2.98786
2.9747
2.93401
2.84406
2.64255
2.15973
1.50193
1.22259
1.16317
1.15507
1.15339
3.00003
3.00003
3.00003
3.00003
3.00003
3.00003
3.00002
3.00001
2.99998
2.99994
2.99976
2.99951
2.99853
2.99711
2.9917
2.98345
2.95489
2.90146
2.75883
2.42937
1.79261
1.3443
1.19529
1.16824
1.15244
3.00003
3.00003
3.00003
3.00003
3.00003
3.00003
3.00002
3.00002
3
2.99996
2.99989
2.99963
2.99924
2.9978
2.99564
2.98784
2.97491
2.9344
2.84767
2.64529
2.18082
1.53717
1.25729
1.17943
1.13716
3.00003
3.00003
3.00003
3.00003
3.00003
3.00003
3.00003
3.00002
3.00001
2.99998
2.99994
2.99976
2.99951
2.99854
2.99715
2.99182
2.98382
2.95582
2.90428
2.76685
2.44762
1.8412
1.36467
1.17836
1.08732
3.00003
3.00003
3.00003
3.00003
3.00003
3.00003
3.00003
3.00002
3.00002
3
2.99997
2.99985
2.99969
2.99906
2.99815
2.99465
2.98946
2.97083
2.93869
2.84302
2.64414
2.17077
1.51596
1.17541
0.993889
3.00003
3.00003
3.00003
3.00003
3.00003
3.00003
3.00003
3.00003
3.00002
3.00001
2.99999
2.99991
2.9998
2.99938
2.99876
2.99641
2.99291
2.98021
2.95837
2.8947
2.74831
2.4288
1.78514
1.16032
0.867651
3.00003
3.00003
3.00003
3.00003
3.00003
3.00003
3.00003
3.00003
3.00002
3.00002
2.99999
2.99996
2.99983
2.99963
2.99889
2.99776
2.99357
2.98675
2.96405
2.91713
2.79643
2.49662
1.89373
1.07711
0.704223
3.00003
3.00003
3.00003
3.00003
3.00003
3.00003
3.00003
3.00003
3.00003
3.00002
3.00001
2.99996
2.9999
2.99965
2.99927
2.99786
2.99555
2.98767
2.97182
2.92656
2.8138
2.56322
1.94317
1.08197
0.556139
3.00003
3.00003
3.00003
3.00003
3.00003
3.00003
3.00003
3.00003
3.00003
3.00002
3.00001
2.99998
2.99989
2.99975
2.99922
2.99839
2.99539
2.98973
2.97232
2.93096
2.83082
2.54898
2.0067
1.03715
0.468556
3.00003
3.00003
3.00003
3.00003
3.00003
3.00003
3.00003
3.00003
3.00003
3.00002
3.00001
2.99999
2.99991
2.99978
2.99932
2.99854
2.9959
2.99036
2.97446
2.9349
2.83947
2.56618
2.03283
1.04555
0.442822
3.00003
3.00003
3.00003
3.00003
3.00003
3.00003
3.00003
3.00003
3.00003
3.00002
3.00001
2.99998
2.99993
2.99976
2.99945
2.99845
2.9963
2.99025
2.97539
2.93773
2.8353
2.61464
2.00751
1.1373
0.463106
3.00003
3.00003
3.00003
3.00003
3.00003
3.00003
3.00003
3.00003
3.00003
3.00002
3.00001
2.99999
2.99993
2.99981
2.99944
2.99865
2.99648
2.99099
2.97757
2.9397
2.8557
2.59299
2.10184
1.12316
0.477886
3.00003
3.00003
3.00003
3.00003
3.00003
3.00003
3.00003
3.00003
3.00003
3.00002
3.00001
2.99998
2.99994
2.99975
2.99948
2.99844
2.99664
2.99084
2.97794
2.94328
2.8511
2.64898
2.07378
1.23133
0.500433
3.00003
3.00003
3.00003
3.00003
3.00003
3.00003
3.00003
3.00003
3.00003
3.00002
3.00001
2.99998
2.99994
2.99976
2.9995
2.99846
2.99681
2.99113
2.97943
2.94669
2.86014
2.67047
2.11844
1.28438
0.514976
3.00003
3.00003
3.00003
3.00003
3.00003
3.00003
3.00003
3.00003
3.00003
3.00002
3.00001
3
2.99993
2.99984
2.9995
2.99884
2.99693
2.99231
2.98069
2.94888
2.87714
2.65476
2.23208
1.31419
0.556076
3.00003
3.00003
3.00003
3.00003
3.00003
3.00003
3.00003
3.00003
3.00003
3.00002
3.00001
2.99999
2.99994
2.99978
2.99953
2.99861
2.99705
2.99198
2.98119
2.95187
2.87469
2.70534
2.21645
1.41647
0.566765
3.00003
3.00003
3.00003
3.00003
3.00003
3.00003
3.00003
3.00003
3.00003
3.00002
3.00001
3
2.99994
2.99984
2.9995
2.99893
2.99708
2.9931
2.98244
2.95477
2.89074
2.69779
2.32389
1.46496
0.616378
3.00003
3.00003
3.00003
3.00003
3.00003
3.00003
3.00003
3.00003
3.00003
3.00002
3.00001
2.99999
2.99995
2.99978
2.99954
2.99859
2.99718
2.99173
2.98293
2.953
2.88927
2.7272
2.31237
1.5338
0.606602
3.00003
3.00003
3.00003
3.00003
3.00003
3.00003
3.00003
3.00003
3.00003
3.00002
3.00002
2.99999
2.99995
2.99979
2.99955
2.99862
2.99726
2.99192
2.98347
2.95419
2.89378
2.73527
2.34029
1.56886
0.616267
3.00003
3.00003
3.00003
3.00003
3.00003
3.00003
3.00003
3.00003
3.00003
3.00002
3.00001
3
2.99993
2.99984
2.99948
2.99895
2.99694
2.99359
2.98269
2.95894
2.89734
2.73019
2.3933
1.61558
0.677021
3.00003
3.00003
3.00003
3.00003
3.00003
3.00003
3.00003
3.00003
3.00003
3.00002
3.00001
3
2.99993
2.99984
2.99946
2.99893
2.99676
2.9936
2.98174
2.96057
2.89656
2.73863
2.4001
1.63451
0.68062
3
2.99998
2.99993
2.99985
2.99953
2.99907
2.99728
2.99459
2.98478
2.96764
2.91451
2.79135
2.51254
1.86475
0.966777
0.525672
0.521906
0.530526
0.528269
0.516586
0.513021
0.525181
0.56381
0.64691
0.81401
3
2.99999
2.99994
2.99987
2.99958
2.99918
2.99756
2.99526
2.98618
2.97207
2.92371
2.82243
2.57366
1.9852
1.11135
0.607344
0.544178
0.555989
0.563203
0.560498
0.56418
0.585996
0.638401
0.736073
0.900868
3
2.99999
2.99995
2.99989
2.99965
2.99931
2.99795
2.99601
2.98856
2.97629
2.93617
2.84611
2.63767
2.09645
1.26856
0.693269
0.561542
0.577259
0.594337
0.601555
0.61279
0.641919
0.699573
0.791995
0.926157
3
2.99999
2.99996
2.99991
2.99971
2.99942
2.99828
2.99666
2.99041
2.98017