/*--------------------------------*- C++ -*----------------------------------*\
| =========                 |                                                 |
| \\      /  F ield         | OpenFOAM: The Open Source CFD Toolbox           |
|  \\    /   O peration     | Version:  4.1                                   |
|   \\  /    A nd           | Web:      www.OpenFOAM.org                      |
|    \\/     M anipulation  |                                                 |
\*---------------------------------------------------------------------------*/
FoamFile
{
    version     2.0;
    format      ascii;
    class       volScalarField;
    location    "3.86";
    object      p;
}
// * * * * * * * * * * * * * * * * * * * * * * * * * * * * * * * * * * * * * //

dimensions      [1 -1 -2 0 0 0 0];

internalField   nonuniform List<scalar> 
52500
(
1.00001
1.00003
1.0001
1.00022
1.00064
1.00131
1.00377
1.00741
1.02292
1.04086
1.1491
1.26155
2.01444
3.36171
8.08814
11.585
11.2162
10.9736
11.0518
11.2767
11.5134
11.6597
11.7681
11.8551
11.9217
1.00001
1.00003
1.0001
1.00022
1.00063
1.0013
1.00372
1.00731
1.0226
1.04033
1.14696
1.25775
1.99771
3.32299
7.98387
11.5937
11.2133
10.9628
11.0422
11.2682
11.5048
11.6511
11.7611
11.8494
11.9176
1.00001
1.00003
1.0001
1.00021
1.00062
1.00126
1.00362
1.00713
1.02194
1.03926
1.14251
1.24995
1.96211
3.23956
7.7498
11.6109
11.2035
10.931
11.0096
11.2341
11.4678
11.6117
11.721
11.8086
11.8767
1.00001
1.00003
1.00009
1.0002
1.00059
1.00121
1.00347
1.00684
1.02096
1.03763
1.13579
1.23824
1.90865
3.1139
7.38815
11.6389
11.1901
10.8792
10.9544
11.1734
11.4027
11.5416
11.6472
11.7325
11.8013
1.00001
1.00002
1.00009
1.00019
1.00056
1.00116
1.0033
1.00661
1.01962
1.03671
1.12496
1.22591
1.83502
2.95017
6.90025
11.6683
11.1749
10.8101
10.879
11.0878
11.3115
11.4436
11.5436
11.6252
11.6951
1.00001
1.00002
1.00008
1.00018
1.00053
1.00109
1.00308
1.00622
1.01807
1.03512
1.11267
1.21063
1.7506
2.7588
6.30851
11.6687
11.1517
10.7259
10.7848
10.9762
11.1909
11.3117
11.4008
11.4746
11.5461
1
1.00002
1.00008
1.00017
1.00048
1.001
1.00282
1.0057
1.01646
1.03237
1.10098
1.19325
1.66366
2.55543
5.6488
11.5786
11.0897
10.6244
10.671
10.8363
11.0349
11.1387
11.2094
11.2654
11.3307
1
1.00002
1.00007
1.00015
1.00044
1.0009
1.00256
1.00518
1.01493
1.02943
1.09133
1.17515
1.59677
2.3956
5.21499
11.1999
10.9163
10.5096
10.5376
10.6615
10.8346
10.9125
10.9516
10.971
11.0102
1
1.00002
1.00006
1.00013
1.00039
1.0008
1.00228
1.00462
1.01335
1.02612
1.08245
1.15299
1.53784
2.23511
4.78584
10.5204
10.6115
10.4323
10.3961
10.4588
10.5872
10.6251
10.6124
10.5544
10.4954
1
1.00001
1.00005
1.00011
1.00033
1.00067
1.00192
1.00373
1.01169
1.02039
1.07488
1.12579
1.48488
2.06727
4.34804
9.67023
10.452
10.3339
10.2219
10.2438
10.2957
10.2762
10.1813
9.95428
9.59393
1.00001
1.00003
1.00011
1.00023
1.00065
1.00132
1.00378
1.00742
1.02293
1.04088
1.14912
1.26161
2.01453
3.362
8.08874
11.5849
11.2162
10.9737
11.0519
11.2768
11.5135
11.6597
11.7682
11.8552
11.9217
1.00001
1.00003
1.0001
1.00022
1.00064
1.0013
1.00373
1.00733
1.02261
1.04035
1.14698
1.25781
1.99779
3.32327
7.98447
11.5936
11.2133
10.9628
11.0422
11.2683
11.5048
11.6511
11.7611
11.8495
11.9176
1.00001
1.00003
1.0001
1.00022
1.00062
1.00127
1.00363
1.00714
1.02195
1.03928
1.14253
1.25
1.96219
3.23984
7.75039
11.6108
11.2035
10.9311
11.0097
11.2342
11.4679
11.6117
11.7211
11.8087
11.8767
1.00001
1.00003
1.0001
1.00021
1.0006
1.00122
1.00347
1.00685
1.02097
1.03765
1.13582
1.23829
1.90873
3.11417
7.38874
11.6388
11.1901
10.8793
10.9545
11.1734
11.4027
11.5417
11.6473
11.7325
11.8014
1.00001
1.00003
1.00009
1.0002
1.00057
1.00117
1.00331
1.00662
1.01963
1.03674
1.12496
1.22599
1.83505
2.9504
6.90078
11.6682
11.1749
10.8102
10.8791
11.0878
11.3116
11.4437
11.5437
11.6252
11.6952
1.00001
1.00003
1.00009
1.00019
1.00053
1.00109
1.00309
1.00623
1.01808
1.03514
1.11268
1.21069
1.75065
2.759
6.30899
11.6687
11.1518
10.726
10.7848
10.9763
11.191
11.3118
11.4008
11.4746
11.5462
1.00001
1.00002
1.00008
1.00017
1.00049
1.001
1.00283
1.00571
1.01647
1.03238
1.101
1.19329
1.6637
2.55558
5.64908
11.5788
11.0898
10.6244
10.6711
10.8363
11.0349
11.1387
11.2095
11.2655
11.3307
1
1.00002
1.00007
1.00016
1.00044
1.00091
1.00257
1.00519
1.01494
1.02944
1.09135
1.17519
1.5968
2.39573
5.21523
11.2002
10.9164
10.5096
10.5377
10.6616
10.8346
10.9126
10.9517
10.9711
11.0102
1
1.00002
1.00006
1.00014
1.0004
1.00081
1.00229
1.00462
1.01336
1.02614
1.08246
1.15304
1.53786
2.23525
4.78605
10.5208
10.6115
10.4323
10.3962
10.4588
10.5872
10.6251
10.6125
10.5544
10.4955
1
1.00002
1.00005
1.00012
1.00033
1.00067
1.00193
1.00374
1.0117
1.02041
1.0749
1.12583
1.4849
2.06741
4.3482
9.67064
10.4521
10.3339
10.2219
10.2438
10.2957
10.2763
10.1813
9.95432
9.59397
1.00001
1.00003
1.00011
1.00023
1.00065
1.00132
1.00378
1.00742
1.02293
1.04088
1.14913
1.26161
2.01453
3.36202
8.08877
11.5848
11.2162
10.9737
11.0519
11.2768
11.5135
11.6597
11.7682
11.8552
11.9217
1.00001
1.00003
1.0001
1.00022
1.00064
1.0013
1.00373
1.00733
1.02261
1.04035
1.14698
1.25781
1.9978
3.32329
7.9845
11.5936
11.2133
10.9628
11.0422
11.2683
11.5048
11.6511
11.7611
11.8495
11.9176
1.00001
1.00003
1.0001
1.00022
1.00062
1.00127
1.00363
1.00714
1.02195
1.03928
1.14253
1.25001
1.96219
3.23985
7.75043
11.6108
11.2035
10.9311
11.0097
11.2342
11.4679
11.6117
11.7211
11.8087
11.8767
1.00001
1.00003
1.0001
1.00021
1.0006
1.00122
1.00347
1.00685
1.02097
1.03765
1.13582
1.2383
1.90874
3.11418
7.38878
11.6388
11.1901
10.8793
10.9545
11.1734
11.4027
11.5417
11.6473
11.7325
11.8014
1.00001
1.00003
1.00009
1.0002
1.00057
1.00117
1.00331
1.00662
1.01963
1.03674
1.12496
1.22599
1.83506
2.95042
6.90081
11.6682
11.1749
10.8102
10.8791
11.0878
11.3116
11.4437
11.5437
11.6252
11.6952
1.00001
1.00003
1.00009
1.00019
1.00053
1.00109
1.00309
1.00623
1.01808
1.03514
1.11268
1.21069
1.75065
2.75901
6.30903
11.6687
11.1518
10.726
10.7848
10.9763
11.191
11.3118
11.4008
11.4746
11.5462
1.00001
1.00002
1.00008
1.00017
1.00049
1.001
1.00283
1.00571
1.01647
1.03238
1.101
1.19329
1.6637
2.55559
5.64909
11.5788
11.0898
10.6244
10.6711
10.8363
11.0349
11.1387
11.2095
11.2655
11.3307
1
1.00002
1.00007
1.00016
1.00044
1.00091
1.00257
1.00519
1.01494
1.02944
1.09135
1.17519
1.5968
2.39573
5.21525
11.2002
10.9164
10.5096
10.5377
10.6616
10.8346
10.9126
10.9517
10.9711
11.0102
1
1.00002
1.00006
1.00014
1.0004
1.00081
1.00229
1.00462
1.01336
1.02614
1.08246
1.15304
1.53786
2.23525
4.78606
10.5208
10.6115
10.4323
10.3962
10.4588
10.5872
10.6251
10.6125
10.5544
10.4955
1
1.00002
1.00005
1.00012
1.00033
1.00067
1.00193
1.00374
1.0117
1.02041
1.0749
1.12583
1.4849
2.06742
4.34822
9.67067
10.4521
10.3339
10.2219
10.2438
10.2957
10.2763
10.1813
9.95432
9.59397
1.00001
1.00003
1.00011
1.00023
1.00065
1.00132
1.00378
1.00742
1.02293
1.04088
1.14913
1.26161
2.01453
3.36202
8.08878
11.5848
11.2162
10.9737
11.0519
11.2768
11.5135
11.6597
11.7682
11.8552
11.9217
1.00001
1.00003
1.0001
1.00022
1.00064
1.0013
1.00373
1.00733
1.02261
1.04035
1.14698
1.25781
1.9978
3.32329
7.9845
11.5936
11.2133
10.9628
11.0422
11.2683
11.5048
11.6511
11.7611
11.8495
11.9176
1.00001
1.00003
1.0001
1.00022
1.00062
1.00127
1.00363
1.00714
1.02195
1.03928
1.14253
1.25001
1.96219
3.23985
7.75043
11.6108
11.2035
10.9311
11.0097
11.2342
11.4679
11.6117
11.7211
11.8087
11.8767
1.00001
1.00003
1.0001
1.00021
1.0006
1.00122
1.00347
1.00685
1.02097
1.03765
1.13582
1.2383
1.90874
3.11418
7.38878
11.6388
11.1901
10.8793
10.9545
11.1734
11.4027
11.5417
11.6473
11.7325
11.8014
1.00001
1.00003
1.00009
1.0002
1.00057
1.00117
1.00331
1.00662
1.01963
1.03674
1.12496
1.22599
1.83506
2.95042
6.90081
11.6682
11.1749
10.8102
10.8791
11.0878
11.3116
11.4437
11.5437
11.6252
11.6952
1.00001
1.00003
1.00009
1.00019
1.00053
1.00109
1.00309
1.00623
1.01808
1.03514
1.11268
1.21069
1.75065
2.75901
6.30903
11.6687
11.1518
10.726
10.7848
10.9763
11.191
11.3118
11.4008
11.4746
11.5462
1.00001
1.00002
1.00008
1.00017
1.00049
1.001
1.00283
1.00571
1.01647
1.03238
1.101
1.19329
1.66371
2.55559
5.6491
11.5788
11.0898
10.6244
10.6711
10.8363
11.0349
11.1387
11.2095
11.2655
11.3307
1
1.00002
1.00007
1.00016
1.00044
1.00091
1.00257
1.00519
1.01494
1.02944
1.09135
1.17519
1.5968
2.39573
5.21525
11.2002
10.9164
10.5096
10.5377
10.6616
10.8346
10.9126
10.9517
10.9711
11.0102
1
1.00002
1.00006
1.00014
1.0004
1.00081
1.00229
1.00462
1.01336
1.02614
1.08246
1.15304
1.53786
2.23525
4.78606
10.5208
10.6115
10.4323
10.3962
10.4588
10.5872
10.6251
10.6125
10.5544
10.4955
1
1.00002
1.00005
1.00012
1.00033
1.00067
1.00193
1.00374
1.0117
1.02041
1.0749
1.12583
1.4849
2.06742
4.34822
9.67067
10.4521
10.3339
10.2219
10.2438
10.2957
10.2763
10.1813
9.95432
9.59397
1.00001
1.00003
1.00011
1.00023
1.00065
1.00132
1.00378
1.00742
1.02293
1.04088
1.14913
1.26161
2.01453
3.36202
8.08878
11.5848
11.2162
10.9737
11.0519
11.2768
11.5135
11.6597
11.7682
11.8552
11.9217
1.00001
1.00003
1.0001
1.00022
1.00064
1.0013
1.00373
1.00733
1.02261
1.04035
1.14698
1.25781
1.9978
3.32329
7.9845
11.5936
11.2133
10.9628
11.0422
11.2683
11.5048
11.6511
11.7611
11.8495
11.9176
1.00001
1.00003
1.0001
1.00022
1.00062
1.00127
1.00363
1.00714
1.02195
1.03928
1.14253
1.25001
1.96219
3.23985
7.75043
11.6108
11.2035
10.9311
11.0097
11.2342
11.4679
11.6117
11.7211
11.8087
11.8767
1.00001
1.00003
1.0001
1.00021
1.0006
1.00122
1.00347
1.00685
1.02097
1.03765
1.13582
1.2383
1.90874
3.11418
7.38878
11.6388
11.1901
10.8793
10.9545
11.1734
11.4027
11.5417
11.6473
11.7325
11.8014
1.00001
1.00003
1.00009
1.0002
1.00057
1.00117
1.00331
1.00662
1.01963
1.03674
1.12496
1.22599
1.83506
2.95042
6.90081
11.6682
11.1749
10.8102
10.8791
11.0878
11.3116
11.4437
11.5437
11.6252
11.6952
1.00001
1.00003
1.00009
1.00019
1.00053
1.00109
1.00309
1.00623
1.01808
1.03514
1.11268
1.21069
1.75065
2.75901
6.30903
11.6687
11.1518
10.726
10.7848
10.9763
11.191
11.3118
11.4008
11.4746
11.5462
1.00001
1.00002
1.00008
1.00017
1.00049
1.001
1.00283
1.00571
1.01647
1.03238
1.101
1.19329
1.66371
2.55559
5.6491
11.5788
11.0898
10.6244
10.6711
10.8363
11.0349
11.1387
11.2095
11.2655
11.3307
1
1.00002
1.00007
1.00016
1.00044
1.00091
1.00257
1.00519
1.01494
1.02944
1.09135
1.17519
1.5968
2.39573
5.21525
11.2002
10.9164
10.5096
10.5377
10.6616
10.8346
10.9126
10.9517
10.9711
11.0102
1
1.00002
1.00006
1.00014
1.0004
1.00081
1.00229
1.00462
1.01336
1.02614
1.08246
1.15304
1.53786
2.23525
4.78606
10.5208
10.6115
10.4323
10.3962
10.4588
10.5872
10.6251
10.6125
10.5544
10.4955
1
1.00002
1.00005
1.00012
1.00033
1.00067
1.00193
1.00374
1.0117
1.02041
1.0749
1.12583
1.4849
2.06742
4.34822
9.67067
10.4521
10.3339
10.2219
10.2438
10.2957
10.2763
10.1813
9.95432
9.59397
1.00001
1.00003
1.00011
1.00023
1.00065
1.00132
1.00378
1.00742
1.02293
1.04088
1.14913
1.26161
2.01453
3.36202
8.08878
11.5848
11.2162
10.9737
11.0519
11.2768
11.5135
11.6597
11.7682
11.8552
11.9217
1.00001
1.00003
1.0001
1.00022
1.00064
1.0013
1.00373
1.00733
1.02261
1.04035
1.14698
1.25781
1.9978
3.32329
7.9845
11.5936
11.2133
10.9628
11.0422
11.2683
11.5048
11.6511
11.7611
11.8495
11.9176
1.00001
1.00003
1.0001
1.00022
1.00062
1.00127
1.00363
1.00714
1.02195
1.03928
1.14253
1.25001
1.96219
3.23985
7.75043
11.6108
11.2035
10.9311
11.0097
11.2342
11.4679
11.6117
11.7211
11.8087
11.8767
1.00001
1.00003
1.0001
1.00021
1.0006
1.00122
1.00347
1.00685
1.02097
1.03765
1.13582
1.2383
1.90874
3.11418
7.38878
11.6388
11.1901
10.8793
10.9545
11.1734
11.4027
11.5417
11.6473
11.7325
11.8014
1.00001
1.00003
1.00009
1.0002
1.00057
1.00117
1.00331
1.00662
1.01963
1.03674
1.12496
1.22599
1.83506
2.95042
6.90081
11.6682
11.1749
10.8102
10.8791
11.0878
11.3116
11.4437
11.5437
11.6252
11.6952
1.00001
1.00003
1.00009
1.00019
1.00053
1.00109
1.00309
1.00623
1.01808
1.03514
1.11268
1.21069
1.75065
2.75901
6.30903
11.6687
11.1518
10.726
10.7848
10.9763
11.191
11.3118
11.4008
11.4746
11.5462
1.00001
1.00002
1.00008
1.00017
1.00049
1.001
1.00283
1.00571
1.01647
1.03238
1.101
1.19329
1.66371
2.55559
5.6491
11.5788
11.0898
10.6244
10.6711
10.8363
11.0349
11.1387
11.2095
11.2655
11.3307
1
1.00002
1.00007
1.00016
1.00044
1.00091
1.00257
1.00519
1.01494
1.02944
1.09135
1.17519
1.5968
2.39573
5.21525
11.2002
10.9164
10.5096
10.5377
10.6616
10.8346
10.9126
10.9517
10.9711
11.0102
1
1.00002
1.00006
1.00014
1.0004
1.00081
1.00229
1.00462
1.01336
1.02614
1.08246
1.15304
1.53786
2.23525
4.78606
10.5208
10.6115
10.4323
10.3962
10.4588
10.5872
10.6251
10.6125
10.5544
10.4955
1
1.00002
1.00005
1.00012
1.00033
1.00067
1.00193
1.00374
1.0117
1.02041
1.0749
1.12583
1.4849
2.06742
4.34822
9.67067
10.4521
10.3339
10.2219
10.2438
10.2957
10.2763
10.1813
9.95432
9.59397
1.00001
1.00003
1.00011
1.00023
1.00065
1.00132
1.00378
1.00742
1.02293
1.04088
1.14913
1.26161
2.01453
3.36202
8.08878
11.5848
11.2162
10.9737
11.0519
11.2768
11.5135
11.6597
11.7682
11.8552
11.9217
1.00001
1.00003
1.0001
1.00022
1.00064
1.0013
1.00373
1.00733
1.02261
1.04035
1.14698
1.25781
1.9978
3.32329
7.9845
11.5936
11.2133
10.9628
11.0422
11.2683
11.5048
11.6511
11.7611
11.8495
11.9176
1.00001
1.00003
1.0001
1.00022
1.00062
1.00127
1.00363
1.00714
1.02195
1.03928
1.14253
1.25001
1.96219
3.23985
7.75043
11.6108
11.2035
10.9311
11.0097
11.2342
11.4679
11.6117
11.7211
11.8087
11.8767
1.00001
1.00003
1.0001
1.00021
1.0006
1.00122
1.00347
1.00685
1.02097
1.03765
1.13582
1.2383
1.90874
3.11418
7.38878
11.6388
11.1901
10.8793
10.9545
11.1734
11.4027
11.5417
11.6473
11.7325
11.8014
1.00001
1.00003
1.00009
1.0002
1.00057
1.00117
1.00331
1.00662
1.01963
1.03674
1.12496
1.22599
1.83506
2.95042
6.90081
11.6682
11.1749
10.8102
10.8791
11.0878
11.3116
11.4437
11.5437
11.6252
11.6952
1.00001
1.00003
1.00009
1.00019
1.00053
1.00109
1.00309
1.00623
1.01808
1.03514
1.11268
1.21069
1.75065
2.75901
6.30903
11.6687
11.1518
10.726
10.7848
10.9763
11.191
11.3118
11.4008
11.4746
11.5462
1.00001
1.00002
1.00008
1.00017
1.00049
1.001
1.00283
1.00571
1.01647
1.03238
1.101
1.19329
1.66371
2.55559
5.6491
11.5788
11.0898
10.6244
10.6711
10.8363
11.0349
11.1387
11.2095
11.2655
11.3307
1
1.00002
1.00007
1.00016
1.00044
1.00091
1.00257
1.00519
1.01494
1.02944
1.09135
1.17519
1.5968
2.39573
5.21525
11.2002
10.9164
10.5096
10.5377
10.6616
10.8346
10.9126
10.9517
10.9711
11.0102
1
1.00002
1.00006
1.00014
1.0004
1.00081
1.00229
1.00462
1.01336
1.02614
1.08246
1.15304
1.53786
2.23525
4.78606
10.5208
10.6115
10.4323
10.3962
10.4588
10.5872
10.6251
10.6125
10.5544
10.4955
1
1.00002
1.00005
1.00012
1.00033
1.00067
1.00193
1.00374
1.0117
1.02041
1.0749
1.12583
1.4849
2.06742
4.34822
9.67067
10.4521
10.3339
10.2219
10.2438
10.2957
10.2763
10.1813
9.95432
9.59397
1.00001
1.00003
1.00011
1.00023
1.00065
1.00132
1.00378
1.00742
1.02293
1.04088
1.14913
1.26161
2.01453
3.36202
8.08877
11.5848
11.2162
10.9737
11.0519
11.2768
11.5135
11.6597
11.7682
11.8552
11.9217
1.00001
1.00003
1.0001
1.00022
1.00064
1.0013
1.00373
1.00733
1.02261
1.04035
1.14698
1.25781
1.9978
3.32329
7.9845
11.5936
11.2133
10.9628
11.0422
11.2683
11.5048
11.6511
11.7611
11.8495
11.9176
1.00001
1.00003
1.0001
1.00022
1.00062
1.00127
1.00363
1.00714
1.02195
1.03928
1.14253
1.25001
1.96219
3.23985
7.75043
11.6108
11.2035
10.9311
11.0097
11.2342
11.4679
11.6117
11.7211
11.8087
11.8767
1.00001
1.00003
1.0001
1.00021
1.0006
1.00122
1.00347
1.00685
1.02097
1.03765
1.13582
1.2383
1.90874
3.11418
7.38878
11.6388
11.1901
10.8793
10.9545
11.1734
11.4027
11.5417
11.6473
11.7325
11.8014
1.00001
1.00003
1.00009
1.0002
1.00057
1.00117
1.00331
1.00662
1.01963
1.03674
1.12496
1.22599
1.83506
2.95042
6.90081
11.6682
11.1749
10.8102
10.8791
11.0878
11.3116
11.4437
11.5437
11.6252
11.6952
1.00001
1.00003
1.00009
1.00019
1.00053
1.00109
1.00309
1.00623
1.01808
1.03514
1.11268
1.21069
1.75065
2.75901
6.30903
11.6687
11.1518
10.726
10.7848
10.9763
11.191
11.3118
11.4008
11.4746
11.5462
1.00001
1.00002
1.00008
1.00017
1.00049
1.001
1.00283
1.00571
1.01647
1.03238
1.101
1.19329
1.6637
2.55559
5.64909
11.5788
11.0898
10.6244
10.6711
10.8363
11.0349
11.1387
11.2095
11.2655
11.3307
1
1.00002
1.00007
1.00016
1.00044
1.00091
1.00257
1.00519
1.01494
1.02944
1.09135
1.17519
1.5968
2.39573
5.21525
11.2002
10.9164
10.5096
10.5377
10.6616
10.8346
10.9126
10.9517
10.9711
11.0102
1
1.00002
1.00006
1.00014
1.0004
1.00081
1.00229
1.00462
1.01336
1.02614
1.08246
1.15304
1.53786
2.23525
4.78606
10.5208
10.6115
10.4323
10.3962
10.4588
10.5872
10.6251
10.6125
10.5544
10.4955
1
1.00002
1.00005
1.00012
1.00033
1.00067
1.00193
1.00374
1.0117
1.02041
1.0749
1.12583
1.4849
2.06742
4.34822
9.67067
10.4521
10.3339
10.2219
10.2438
10.2957
10.2763
10.1813
9.95432
9.59397
1.00001
1.00003
1.00011
1.00023
1.00065
1.00132
1.00378
1.00742
1.02293
1.04088
1.14912
1.26161
2.01453
3.362
8.08874
11.5849
11.2162
10.9737
11.0519
11.2768
11.5135
11.6597
11.7682
11.8552
11.9217
1.00001
1.00003
1.0001
1.00022
1.00064
1.0013
1.00373
1.00733
1.02261
1.04035
1.14698
1.25781
1.99779
3.32327
7.98447
11.5936
11.2133
10.9628
11.0422
11.2683
11.5048
11.6511
11.7611
11.8495
11.9176
1.00001
1.00003
1.0001
1.00022
1.00062
1.00127
1.00363
1.00714
1.02195
1.03928
1.14253
1.25
1.96219
3.23984
7.75039
11.6108
11.2035
10.9311
11.0097
11.2342
11.4679
11.6117
11.7211
11.8087
11.8767
1.00001
1.00003
1.0001
1.00021
1.0006
1.00122
1.00347
1.00685
1.02097
1.03765
1.13582
1.23829
1.90873
3.11417
7.38874
11.6388
11.1901
10.8793
10.9545
11.1734
11.4027
11.5417
11.6473
11.7325
11.8014
1.00001
1.00003
1.00009
1.0002
1.00057
1.00117
1.00331
1.00662
1.01963
1.03674
1.12496
1.22599
1.83505
2.9504
6.90078
11.6682
11.1749
10.8102
10.8791
11.0878
11.3116
11.4437
11.5437
11.6252
11.6952
1.00001
1.00003
1.00009
1.00019
1.00053
1.00109
1.00309
1.00623
1.01808
1.03514
1.11268
1.21069
1.75065
2.759
6.30899
11.6687
11.1518
10.726
10.7848
10.9763
11.191
11.3118
11.4008
11.4746
11.5462
1.00001
1.00002
1.00008
1.00017
1.00049
1.001
1.00283
1.00571
1.01647
1.03238
1.101
1.19329
1.6637
2.55558
5.64908
11.5788
11.0898
10.6244
10.6711
10.8363
11.0349
11.1387
11.2095
11.2655
11.3307
1
1.00002
1.00007
1.00016
1.00044
1.00091
1.00257
1.00519
1.01494
1.02944
1.09134
1.17519
1.5968
2.39573
5.21523
11.2002
10.9164
10.5096
10.5377
10.6616
10.8346
10.9126
10.9517
10.9711
11.0102
1
1.00002
1.00006
1.00014
1.0004
1.00081
1.00229
1.00462
1.01336
1.02614
1.08246
1.15304
1.53786
2.23525
4.78605
10.5208
10.6115
10.4323
10.3962
10.4588
10.5872
10.6251
10.6125
10.5544
10.4955
1
1.00002
1.00005
1.00012
1.00033
1.00067
1.00193
1.00374
1.0117
1.02041
1.0749
1.12583
1.4849
2.06741
4.3482
9.67064
10.4521
10.3339
10.2219
10.2438
10.2957
10.2763
10.1813
9.95432
9.59397
1.00001
1.00003
1.0001
1.00022
1.00064
1.00131
1.00377
1.00741
1.02292
1.04086
1.1491
1.26155
2.01444
3.36171
8.08814
11.585
11.2162
10.9736
11.0518
11.2767
11.5134
11.6597
11.7681
11.8551
11.9217
1.00001
1.00003
1.0001
1.00022
1.00063
1.0013
1.00372
1.00731
1.0226
1.04033
1.14696
1.25775
1.99771
3.32299
7.98387
11.5937
11.2133
10.9628
11.0422
11.2682
11.5048
11.6511
11.7611
11.8494
11.9176
1.00001
1.00003
1.0001
1.00021
1.00062
1.00126
1.00362
1.00713
1.02194
1.03926
1.14251
1.24995
1.96211
3.23956
7.7498
11.6109
11.2035
10.931
11.0096
11.2341
11.4678
11.6117
11.721
11.8086
11.8767
1.00001
1.00003
1.00009
1.0002
1.00059
1.00121
1.00347
1.00684
1.02096
1.03763
1.13579
1.23824
1.90866
3.1139
7.38815
11.6389
11.1901
10.8792
10.9544
11.1734
11.4027
11.5416
11.6472
11.7325
11.8013
1.00001
1.00002
1.00009
1.00019
1.00056
1.00116
1.0033
1.00661
1.01962
1.03671
1.12496
1.22591
1.83502
2.95017
6.90025
11.6683
11.1748
10.8101
10.879
11.0878
11.3115
11.4436
11.5436
11.6252
11.6951
1.00001
1.00002
1.00008
1.00018
1.00053
1.00109
1.00308
1.00622
1.01807
1.03512
1.11267
1.21063
1.7506
2.7588
6.30851
11.6687
11.1517
10.7259
10.7848
10.9762
11.1909
11.3117
11.4008
11.4746
11.5461
1
1.00002
1.00008
1.00017
1.00048
1.001
1.00282
1.0057
1.01646
1.03237
1.10098
1.19325
1.66366
2.55543
5.6488
11.5786
11.0897
10.6244
10.671
10.8363
11.0349
11.1387
11.2094
11.2654
11.3307
1
1.00002
1.00007
1.00015
1.00044
1.0009
1.00256
1.00518
1.01493
1.02943
1.09133
1.17515
1.59677
2.3956
5.21499
11.1999
10.9163
10.5096
10.5376
10.6615
10.8346
10.9125
10.9516
10.971
11.0102
1
1.00002
1.00006
1.00013
1.00039
1.0008
1.00228
1.00462
1.01335
1.02612
1.08245
1.15299
1.53784
2.23511
4.78584
10.5204
10.6115
10.4323
10.3961
10.4588
10.5872
10.6251
10.6124
10.5544
10.4954
1
1.00001
1.00005
1.00011
1.00033
1.00067
1.00192
1.00373
1.01169
1.02039
1.07488
1.12579
1.48488
2.06727
4.34804
9.67023
10.452
10.3339
10.2219
10.2438
10.2957
10.2762
10.1813
9.95428
9.59393
1
1.00001
1.00004
1.00012
1.00025
1.00072
1.00146
1.00422
1.00825
1.02583
1.04582
1.16685
1.30001
2.12908
3.68695
8.672
10.3544
10.2462
10.0434
10.0095
9.98261
9.88501
9.62159
9.01112
7.47366
1
1.00001
1.00003
1.0001
1.00022
1.00062
1.00127
1.00364
1.00716
1.02201
1.03936
1.14237
1.25036
1.95567
3.21193
7.49191
10.2697
10.15
9.87955
9.76377
9.6727
9.47568
9.05842
8.22487
6.62612
1
1.00001
1.00003
1.00009
1.00019
1.00054
1.00111
1.00313
1.00632
1.0184
1.03539
1.1153
1.21308
1.76427
2.77312
6.22468
10.1814
10.0535
9.73342
9.52118
9.36554
9.08686
8.57633
7.72101
6.41792
1
1.00001
1.00002
1.00007
1.00015
1.00045
1.00092
1.00259
1.00523
1.01502
1.0297
1.09063
1.17771
1.58308
2.35721
4.92119
9.91965
9.87689
9.61119
9.29683
9.07241
8.74994
8.22215
7.43125
6.37612
1
1.00001
1.00002
1.00006
1.00012
1.00036
1.00073
1.00208
1.0042
1.01212
1.02355
1.07453
1.13755
1.47754
2.08185
4.24026
9.11698
9.58721
9.42558
9.0901
8.8121
8.46612
7.96388
7.25617
6.36773
1
1
1.00002
1.00004
1.00011
1.00024
1.00068
1.00138
1.00395
1.00764
1.02411
1.04211
1.1543
1.27185
2.03865
3.38934
7.70408
9.30363
9.2052
8.93666
8.59646
8.23105
7.7594
7.12802
6.36396
1
1
1.00001
1.00003
1.00009
1.00019
1.00056
1.00114
1.00322
1.00646
1.01897
1.03578
1.11938
1.21728
1.78292
2.79895
6.15775
9.12474
9.06415
8.82752
8.42839
8.04411
7.59338
7.0246
6.35495
0.999998
1
1.00001
1.00002
1.00007
1.00015
1.00043
1.00088
1.00248
1.00501
1.01438
1.02841
1.08656
1.16977
1.55062
2.26935
4.56289
8.77334
8.92356
8.73967
8.32965
7.89791
7.45754
6.94186
6.34729
0.999996
0.999998
1
1.00002
1.00004
1.00013
1.00027
1.00077
1.00157
1.00444
1.00875
1.02659
1.04803
1.16872
1.3074
2.09986
3.57845
7.84687
8.69859
8.56961
8.23696
7.7795
7.34416
6.87095
6.33795
0.999995
0.999996
0.999999
1.00001
1.00003
1.00009
1.0002
1.00058
1.00117
1.00333
1.00656
1.01999
1.03582
1.12732
1.2237
1.82693
2.86881
6.23994
8.41881
8.36961
8.15045
7.69936
7.26106
6.81664
6.33165
0.999994
0.999994
0.999998
1
1.00002
1.00005
1.00017
1.00035
1.00099
1.00197
1.00582
1.01074
1.03597
1.06086
1.22349
1.43653
2.39834
4.44883
7.99482
8.22743
8.07197
7.6879
7.21344
6.77647
6.32728
0.999993
0.999993
0.999996
1
1.00001
1.00004
1.00012
1.00026
1.00073
1.00149
1.0042
1.0083
1.02498
1.04537
1.15768
1.28502
2.01076
3.31311
7.02048
8.02785
7.93345
7.65821
7.20035
6.75642
6.32823
0.999992
0.999993
0.999994
0.999998
1
1.00003
1.00007
1.00021
1.00042
1.00121
1.00237
1.00721
1.01274
1.0452
1.07437
1.28017
1.55226
2.76525
5.35331
7.71333
7.72815
7.5851
7.21979
6.75926
6.33268
0.999992
0.999992
0.999993
0.999996
1
1.00002
1.00005
1.00015
1.00031
1.00088
1.00179
1.00502
1.01007
1.02924
1.05595
1.17756
1.35561
2.11248
3.58276
7.09328
7.61472
7.51008
7.22532
6.7771
6.34664
0.999991
0.999992
0.999992
0.999994
0.999999
1.00001
1.00004
1.00008
1.00025
1.00051
1.00143
1.00288
1.00821
1.01591
1.04958
1.08894
1.30745
1.63282
2.91001
5.6444
7.36941
7.35611
7.20358
6.83637
6.37957
0.999991
0.999991
0.999992
0.999993
0.999996
1
1.00002
1.00005
1.00016
1.00035
1.00097
1.00197
1.00549
1.01084
1.03233
1.05884
1.19883
1.38075
2.20461
3.82586
6.85719
7.24961
7.15134
6.88435
6.43778
0.999991
0.999991
0.999991
0.999992
0.999994
0.999999
1.00001
1.00004
1.00009
1.00027
1.00055
1.00155
1.00313
1.00882
1.01743
1.05197
1.09904
1.31412
1.69384
2.92987
5.6664
7.02511
7.01437
6.87244
6.53902
0.999991
0.999991
0.999991
0.999992
0.999993
0.999996
1
1.00002
1.00006
1.00017
1.00036
1.00101
1.00206
1.00573
1.01133
1.03358
1.06133
1.20501
1.39579
2.23046
3.87384
6.52738
6.89969
6.8186
6.58712
0.999991
0.999991
0.999991
0.999991
0.999992
0.999994
0.999999
1.00001
1.00004
1.00009
1.00027
1.00056
1.00158
1.00319
1.00896
1.01777
1.05188
1.10328
1.30866
1.69045
2.86405
5.39793
6.66498
6.67515
6.56784
0.999991
0.99999
0.999991
0.999991
0.999991
0.999993
0.999995
1
1.00002
1.00007
1.00015
1.00042
1.00086
1.00238
1.0048
1.01346
1.02653
1.07858
1.15328
1.46974
2.04308
3.66079
6.15122
6.56189
6.50749
0.999991
0.99999
0.99999
0.999991
0.999991
0.999992
0.999994
0.999999
1.00001
1.00004
1.00009
1.00026
1.00054
1.00151
1.00305
1.00846
1.01686
1.04848
1.0959
1.28542
1.62844
2.69832
4.99369
6.31721
6.38296
0.999991
0.99999
0.99999
0.99999
0.999991
0.999991
0.999993
0.999995
1
1.00002
1.00006
1.00014
1.00038
1.00079
1.00217
1.00437
1.01216
1.02407
1.06954
1.13913
1.40624
1.90259
3.23901
5.77115
6.27096
0.999991
0.99999
0.99999
0.99999
0.99999
0.999991
0.999992
0.999993
0.999998
1.00001
1.00003
1.00008
1.00024
1.00049
1.00134
1.00273
1.00751
1.01502
1.04268
1.08385
1.2495
1.53985
2.47673
4.51224
5.97793
0.999991
0.99999
0.99999
0.99999
0.99999
0.999991
0.999991
0.999992
0.999995
1
1.00002
1.00005
1.00014
1.00029
1.0008
1.00164
1.00447
1.00899
1.02499
1.0497
1.14356
1.29617
1.83733
2.89547
5.31164
0.999991
0.99999
0.99999
0.99999
0.99999
0.99999
0.999991
0.999991
0.999993
0.999996
1.00001
1.00002
1.00008
1.00017
1.00048
1.00099
1.0027
1.00544
1.0151
1.02966
1.08819
1.1668
1.52548
2.1315
3.86319
0.999991
0.99999
0.99999
0.99999
0.99999
0.99999
0.99999
0.999991
0.999992
0.999994
0.999999
1.00001
1.00004
1.00011
1.00024
1.00066
1.00135
1.00368
1.00733
1.0209
1.0391
1.1237
1.22838
1.71467
2.53892
0.999991
0.99999
0.99999
0.99999
0.99999
0.99999
0.99999
0.999991
0.999991
0.999992
0.999996
1
1.00002
1.00005
1.00016
1.00033
1.0009
1.00182
1.00499
1.00982
1.02849
1.05207
1.16686
1.3135
1.92511
0.999991
0.99999
0.99999
0.99999
0.99999
0.99999
0.99999
0.99999
0.999991
0.999992
0.999993
0.999998
1.00001
1.00003
1.00008
1.00022
1.00046
1.00124
1.00251
1.0069
1.0136
1.03926
1.07488
1.22568
1.46913
0.999991
0.99999
0.99999
0.99999
0.99999
0.99999
0.99999
0.99999
0.99999
0.999991
0.999992
0.999995
0.999999
1.00001
1.00004
1.00012
1.00026
1.00071
1.00144
1.0039
1.00783
1.02162
1.04222
1.1236
1.2426
0.999991
0.99999
0.99999
0.99999
0.99999
0.99999
0.99999
0.99999
0.99999
0.999991
0.999991
0.999992
0.999996
1
1.00002
1.00005
1.00016
1.00034
1.00092
1.00187
1.00506
1.01007
1.02833
1.05342
1.16216
0.999991
0.99999
0.99999
0.99999
0.99999
0.99999
0.99999
0.99999
0.99999
0.99999
0.999991
0.999992
0.999993
0.999998
1.00001
1.00003
1.00008
1.00022
1.00045
1.00122
1.00247
1.00671
1.0134
1.03718
1.07522
0.999991
0.99999
0.99999
0.99999
0.99999
0.99999
0.99999
0.99999
0.99999
0.99999
0.999991
0.999991
0.999992
0.999994
1
1.00001
1.00004
1.0001
1.00028
1.00058
1.00158
1.00318
1.00863
1.01738
1.04742
0.999991
0.99999
0.99999
0.99999
0.99999
0.99999
0.99999
0.99999
0.99999
0.99999
0.99999
0.999991
0.999991
0.999992
0.999996
1
1.00002
1.00005
1.00015
1.00032
1.00086
1.00174
1.00466
1.00935
1.0253
0.999991
0.99999
0.99999
0.99999
0.99999
0.99999
0.99999
0.99999
0.99999
0.99999
0.99999
0.99999
0.999991
0.999992
0.999993
0.999998
1.00001
1.00003
1.00007
1.0002
1.00042
1.00114
1.00231
1.00618
1.01244
0.999991
0.99999
0.99999
0.99999
0.99999
0.99999
0.99999
0.99999
0.99999
0.99999
0.99999
0.99999
0.999991
0.999991
0.999992
0.999994
1
1.00001
1.00005
1.00011
1.00031
1.00063
1.00172
1.00348
1.00954
0.999991
0.99999
0.99999
0.99999
0.99999
0.99999
0.99999
0.99999
0.99999
0.99999
0.99999
0.99999
0.99999
0.999991
0.999991
0.999994
0.999997
1.00001
1.00003
1.00009
1.0002
1.00056
1.00114
1.00317
1.00636
0.999991
0.99999
0.99999
0.99999
0.99999
0.99999
0.99999
0.99999
0.99999
0.99999
0.99999
0.99999
0.99999
0.999991
0.999991
0.999993
0.999997
1
1.00003
1.00007
1.0002
1.00041
1.00117
1.00233
1.00685
0.999991
0.99999
0.99999
0.99999
0.99999
0.99999
0.99999
0.99999
0.99999
0.99999
0.99999
0.99999
0.99999
0.999991
0.999991
0.999992
0.999996
1
1.00002
1.00006
1.00018
1.00038
1.0011
1.00218
1.00657
0.999991
0.99999
0.99999
0.99999
0.99999
0.99999
0.99999
0.99999
0.99999
0.99999
0.99999
0.99999
0.99999
0.999991
0.999991
0.999993
0.999995
1
1.00002
1.00007
1.00016
1.00047
1.00097
1.00277
1.00559
0.999991
0.99999
0.99999
0.99999
0.99999
0.99999
0.99999
0.99999
0.99999
0.99999
0.99999
0.99999
0.99999
0.999991
0.999991
0.999993
0.999995
1
1.00002
1.00007
1.00016
1.00048
1.00098
1.00281
1.00568
1
1.00002
1.00004
1.00012
1.00026
1.00073
1.00147
1.00423
1.00826
1.02584
1.04584
1.16688
1.30006
2.12914
3.68718
8.67242
10.3544
10.2462
10.0434
10.0095
9.98265
9.88505
9.62162
9.01115
7.47369
1
1.00002
1.00004
1.00011
1.00022
1.00063
1.00128
1.00365
1.00717
1.02202
1.03937
1.1424
1.25041
1.95573
3.21215
7.49235
10.2697
10.15
9.87959
9.76381
9.67274
9.47571
9.05845
8.2249
6.62615
1
1.00001
1.00003
1.00009
1.00019
1.00055
1.00111
1.00314
1.00633
1.01841
1.03542
1.11531
1.21314
1.7643
2.77332
6.22511
10.1814
10.0535
9.73346
9.52122
9.36557
9.08688
8.57636
7.72103
6.41795
1
1.00001
1.00003
1.00008
1.00016
1.00045
1.00092
1.00259
1.00524
1.01503
1.02971
1.09065
1.17775
1.58311
2.35734
4.92142
9.91985
9.877
9.61122
9.29685
9.07243
8.74997
8.22218
7.43127
6.37614
1
1.00001
1.00002
1.00006
1.00013
1.00036
1.00074
1.00209
1.00421
1.01213
1.02358
1.07453
1.1376
1.47755
2.08197
4.24043
9.11735
9.58729
9.42562
9.09011
8.81212
8.46615
7.9639
7.25619
6.36775
1
1.00001
1.00002
1.00004
1.00012
1.00024
1.00069
1.00138
1.00396
1.00766
1.02412
1.04214
1.15433
1.2719
2.0387
3.38955
7.70446
9.30367
9.20522
8.93667
8.59647
8.23107
7.75942
7.12804
6.36398
1
1
1.00002
1.00003
1.0001
1.0002
1.00056
1.00115
1.00323
1.00648
1.01899
1.03581
1.11938
1.21735
1.78293
2.79913
6.15811
9.12476
9.06416
8.82752
8.42841
8.04413
7.5934
7.02462
6.35497
1
1
1.00001
1.00003
1.00008
1.00016
1.00044
1.00089
1.00249
1.00502
1.01439
1.02843
1.08658
1.16981
1.55066
2.2695
4.56328
8.7734
8.92355
8.73967
8.32965
7.89792
7.45755
6.94188
6.34731
1
1
1.00001
1.00002
1.00005
1.00014
1.00028
1.00078
1.00157
1.00445
1.00876
1.0266
1.04805
1.16874
1.30745
2.09993