/*--------------------------------*- C++ -*----------------------------------*\
| =========                 |                                                 |
| \\      /  F ield         | OpenFOAM: The Open Source CFD Toolbox           |
|  \\    /   O peration     | Version:  4.1                                   |
|   \\  /    A nd           | Web:      www.OpenFOAM.org                      |
|    \\/     M anipulation  |                                                 |
\*---------------------------------------------------------------------------*/
FoamFile
{
    version     2.0;
    format      ascii;
    class       volScalarField;
    location    "0.32";
    object      Ma;
}
// * * * * * * * * * * * * * * * * * * * * * * * * * * * * * * * * * * * * * //

dimensions      [0 0 0 0 0 0 0];

internalField   nonuniform List<scalar> 
52500
(
3.12505
3.26385
3.25533
3.24688
3.22979
3.2039
3.16954
3.10006
3.00163
2.85216
2.54881
2.04876
1.17451
0.0566738
0.498393
0.447469
0.398669
0.411556
0.412105
0.382255
0.331282
0.264804
0.187438
0.14942
0.0338264
3.12505
3.26384
3.25532
3.24687
3.22977
3.2039
3.16952
3.1
3.00166
2.85364
2.55276
2.06248
1.20755
0.0616577
0.495381
0.450581
0.397746
0.410925
0.413002
0.384532
0.335486
0.271622
0.197636
0.163763
0.0774694
3.12505
3.26384
3.25532
3.24687
3.22977
3.20391
3.16951
3.10001
3.00165
2.85655
2.56061
2.0904
1.27676
0.101944
0.492953
0.462713
0.399422
0.412957
0.417465
0.391569
0.346286
0.287374
0.219937
0.193142
0.131749
3.12504
3.26384
3.25531
3.24685
3.22974
3.20388
3.16949
3.10032
3.00134
2.86006
2.57174
2.12982
1.37883
0.198529
0.488564
0.481201
0.40265
0.416914
0.424512
0.402793
0.363433
0.311324
0.251712
0.232986
0.189598
3.12504
3.26384
3.25532
3.24685
3.22973
3.20389
3.16952
3.10084
3.00133
2.86341
2.58459
2.17428
1.49688
0.353116
0.476139
0.505495
0.410079
0.423496
0.434499
0.417277
0.385649
0.341767
0.290142
0.279941
0.250106
3.12504
3.26383
3.25531
3.24687
3.22969
3.20409
3.16951
3.10103
3.0004
2.86466
2.59419
2.21435
1.61281
0.550721
0.450727
0.533612
0.423064
0.432731
0.448395
0.435774
0.412581
0.378831
0.335142
0.333818
0.316197
3.12504
3.26383
3.25531
3.24687
3.22964
3.20422
3.16952
3.10143
2.999
2.86464
2.60617
2.24664
1.7261
0.78202
0.394408
0.559125
0.443876
0.444233
0.465611
0.459037
0.443483
0.421396
0.386028
0.39499
0.390913
3.12504
3.26383
3.25531
3.24687
3.22963
3.20421
3.1695
3.10172
2.99785
2.86446
2.61418
2.27014
1.82857
1.0426
0.311968
0.576904
0.475065
0.457004
0.485084
0.48705
0.478342
0.469285
0.44357
0.464945
0.480119
3.12504
3.26383
3.25531
3.24687
3.22959
3.20429
3.16952
3.10148
2.99798
2.86413
2.61256
2.29152
1.91872
1.28718
0.312119
0.582684
0.518348
0.471145
0.505942
0.519087
0.516656
0.522399
0.509643
0.542912
0.595419
3.12504
3.26382
3.25531
3.24686
3.22957
3.20425
3.16949
3.10122
2.9983
2.86477
2.61214
2.30146
1.98595
1.48747
0.553116
0.554519
0.570524
0.489298
0.526708
0.554148
0.559441
0.579471
0.587481
0.636392
0.776631
3.12503
3.26383
3.25531
3.24685
3.22973
3.20386
3.16947
3.09993
3.00159
2.85215
2.54891
2.04878
1.17412
0.0564741
0.49832
0.447236
0.39849
0.411497
0.412071
0.382215
0.331215
0.264696
0.18727
0.149189
0.0327363
3.12504
3.26384
3.25532
3.24686
3.22976
3.2039
3.16951
3.09997
3.00169
2.85372
2.55291
2.06256
1.20741
0.0605398
0.495
0.450235
0.397586
0.410879
0.412976
0.3845
0.335428
0.271527
0.197489
0.163546
0.0770152
3.12504
3.26383
3.25531
3.24684
3.2297
3.20391
3.16946
3.09982
3.00149
2.85631
2.56006
2.08937
1.27456
0.100439
0.49394
0.463119
0.399665
0.41302
0.417456
0.391535
0.346222
0.287275
0.219793
0.192942
0.13149
3.12504
3.26384
3.25533
3.24687
3.22977
3.20392
3.16954
3.10039
3.00144
2.86014
2.57175
2.12961
1.37802
0.197546
0.488486
0.48115
0.402783
0.416954
0.424485
0.402743
0.363359
0.311224
0.251583
0.232815
0.189424
3.12504
3.26383
3.25531
3.24684
3.2297
3.20392
3.16951
3.10072
3.00129
2.86318
2.58389
2.17304
1.49456
0.349467
0.477496
0.505676
0.410306
0.423486
0.434435
0.417197
0.385561
0.341667
0.29003
0.279797
0.249981
3.12505
3.26385
3.25533
3.2469
3.22976
3.20411
3.1696
3.10131
3.00064
2.86507
2.59495
2.21508
1.61338
0.551317
0.450499
0.533011
0.422653
0.432504
0.448272
0.435665
0.41248
0.378734
0.335045
0.333698
0.316102
3.12504
3.26384
3.25532
3.24688
3.22969
3.2042
3.16956
3.10165
2.99909
2.8649
2.60685
2.24734
1.72695
0.783318
0.393605
0.558391
0.443497
0.443889
0.465425
0.458905
0.443376
0.421302
0.385944
0.394893
0.390839
3.12505
3.26385
3.25533
3.2469
3.22971
3.20426
3.16963
3.10196
2.998
2.86452
2.61413
2.27003
1.82825
1.04198
0.311918
0.57688
0.474889
0.456732
0.484891
0.48692
0.47824
0.469198
0.443496
0.464869
0.480062
3.12505
3.26384
3.25533
3.2469
3.22967
3.20429
3.16961
3.10178
2.99814
2.8644
2.61317
2.29224
1.9194
1.28776
0.312395
0.582555
0.518088
0.470869
0.505749
0.518959
0.516565
0.522317
0.509577
0.54286
0.595376
3.12505
3.26385
3.25534
3.24691
3.22969
3.20429
3.16964
3.10163
2.9986
2.86518
2.61289
2.30223
1.9867
1.48825
0.554088
0.554063
0.570249
0.488986
0.526489
0.554033
0.559363
0.579405
0.587421
0.636366
0.776591
3.12505
3.26385
3.25533
3.24688
3.22979
3.20391
3.16955
3.10008
3.00171
2.85222
2.54888
2.04863
1.17375
0.0568691
0.498612
0.447376
0.398604
0.411507
0.412039
0.382185
0.331197
0.264685
0.187264
0.149184
0.0327365
3.12504
3.26384
3.25532
3.24687
3.22978
3.20391
3.16953
3.10003
3.00173
2.85372
2.55285
2.0624
1.207
0.0614761
0.495364
0.450405
0.397599
0.41084
0.412929
0.384463
0.335407
0.271515
0.197483
0.163541
0.0770148
3.12505
3.26385
3.25533
3.24688
3.22979
3.20393
3.16955
3.10009
3.00176
2.85666
2.56071
2.09035
1.27627
0.101502
0.493019
0.462597
0.399282
0.412867
0.417388
0.391493
0.3462
0.287263
0.219787
0.192938
0.13149
3.12504
3.26384
3.25532
3.24686
3.22975
3.2039
3.16952
3.10037
3.00144
2.86016
2.57182
2.12979
1.37856
0.198147
0.488456
0.481056
0.4025
0.416814
0.424431
0.402711
0.363342
0.311215
0.25158
0.232813
0.189424
3.12505
3.26385
3.25533
3.24688
3.22979
3.20393
3.1696
3.10104
3.00142
2.8635
2.58467
2.17416
1.4963
0.35197
0.476275
0.505451
0.410024
0.423423
0.434425
0.417192
0.385558
0.341667
0.290031
0.279797
0.249981
3.12505
3.26383
3.25532
3.24688
3.22972
3.20411
3.16956
3.1011
3.00051
2.86477
2.59419
2.21425
1.6124
0.549943
0.451181
0.533616
0.422931
0.432625
0.448319
0.435693
0.412493
0.378742
0.33505
0.333699
0.316103
3.12505
3.26385
3.25534
3.24691
3.22974
3.20425
3.16964
3.10178
2.99926
2.86507
2.60698
2.24746
1.72677
0.782568
0.39408
0.558735
0.443702
0.444055
0.4655
0.458947
0.443399
0.421314
0.385951
0.394896
0.390841
3.12504
3.26384
3.25532
3.24688
3.22968
3.20422
3.16956
3.10186
2.99791
2.86448
2.61417
2.27006
1.82826
1.04189
0.312215
0.57692
0.474879
0.456823
0.484946
0.486956
0.478264
0.469212
0.443505
0.464873
0.480064
3.12506
3.26385
3.25534
3.24691
3.2297
3.20432
3.16966
3.10187
2.99828
2.8646
2.61346
2.29244
1.91943
1.28755
0.31243
0.582563
0.517972
0.470875
0.505777
0.518984
0.516586
0.522331
0.509586
0.542865
0.595378
3.12504
3.26384
3.25532
3.24688
3.22965
3.20424
3.16957
3.10153
2.99853
2.86518
2.61305
2.30234
1.98685
1.48843
0.554268
0.554012
0.57013
0.48896
0.526506
0.554053
0.559381
0.579419
0.58743
0.636371
0.776594
3.12505
3.26385
3.25533
3.24688
3.2298
3.20392
3.16957
3.10012
3.00177
2.8523
2.54896
2.04867
1.17368
0.0569258
0.498598
0.447357
0.398588
0.4115
0.412036
0.382184
0.3312
0.264688
0.187268
0.149185
0.032736
3.12505
3.26385
3.25533
3.24688
3.2298
3.20393
3.16957
3.10009
3.00181
2.85381
2.55294
2.06245
1.20697
0.0614472
0.495339
0.450383
0.397587
0.410832
0.412925
0.38446
0.335409
0.271517
0.197486
0.163542
0.0770149
3.12505
3.26385
3.25533
3.24688
3.22979
3.20393
3.16956
3.10011
3.00179
2.85669
2.56074
2.09036
1.2762
0.101405
0.49305
0.462636
0.399308
0.412867
0.417382
0.391488
0.346199
0.287264
0.219789
0.192939
0.13149
3.12505
3.26385
3.25533
3.24688
3.22979
3.20393
3.16957
3.10045
3.00153
2.86023
2.57186
2.12975
1.37819
0.197493
0.488691
0.481193
0.402602
0.416815
0.424416
0.402697
0.363337
0.311214
0.25158
0.232813
0.189425
3.12505
3.26385
3.25533
3.24688
3.22979
3.20393
3.1696
3.10106
3.00142
2.86346
2.5846
2.17401
1.49586
0.351272
0.476849
0.505564
0.410077
0.423372
0.434389
0.417165
0.385546
0.341662
0.29003
0.279797
0.249982
3.12505
3.26385
3.25533
3.2469
3.22978
3.20411
3.16962
3.10136
3.00067
2.8651
2.59498
2.21518
1.6136
0.551643
0.450284
0.533148
0.422694
0.432481
0.44826
0.435653
0.412476
0.378734
0.335048
0.333699
0.316105
3.12505
3.26385
3.25534
3.24691
3.22974
3.20424
3.16964
3.1018
2.99924
2.86504
2.60697
2.24743
1.72692
0.783059
0.393631
0.558556
0.443564
0.443933
0.465445
0.458911
0.443381
0.421306
0.385949
0.394896
0.390843
3.12505
3.26385
3.25534
3.24691
3.22973
3.20428
3.16966
3.10201
2.99806
2.86461
2.61424
2.27008
1.82823
1.04181
0.311918
0.577012
0.474933
0.45679
0.484922
0.486933
0.478249
0.469205
0.443503
0.464872
0.480066
3.12506
3.26386
3.25534
3.24692
3.22971
3.20432
3.16966
3.10188
2.99829
2.8646
2.61345
2.2924
1.91942
1.28759
0.312335
0.582626
0.51808
0.470897
0.505771
0.51897
0.516575
0.522324
0.509583
0.542865
0.59538
3.12506
3.26386
3.25534
3.24692
3.22971
3.2043
3.16966
3.10168
2.99867
2.8653
2.61311
2.30235
1.98674
1.48815
0.553949
0.554116
0.570219
0.488982
0.526495
0.554037
0.559369
0.579411
0.587426
0.636371
0.776594
3.12505
3.26385
3.25534
3.24689
3.2298
3.20394
3.16959
3.10013
3.00179
2.85234
2.54902
2.04874
1.17376
0.0568739
0.498588
0.447374
0.398593
0.41149
0.412024
0.382169
0.331182
0.264671
0.187245
0.149176
0.0327231
3.12505
3.26385
3.25534
3.24689
3.2298
3.20394
3.16958
3.1001
3.00184
2.85385
2.55299
2.0625
1.20703
0.0614285
0.49535
0.450406
0.397599
0.410823
0.412909
0.38444
0.335384
0.271491
0.197455
0.163543
0.0769982
3.12505
3.26385
3.25534
3.24689
3.2298
3.20394
3.16957
3.10013
3.00182
2.85672
2.56078
2.09041
1.27626
0.101418
0.493027
0.462641
0.399322
0.412864
0.417371
0.391473
0.346185
0.287252
0.219781
0.192961
0.131482
3.12505
3.26385
3.25533
3.24688
3.2298
3.20394
3.16958
3.10047
3.00155
2.86025
2.5719
2.12979
1.37825
0.197532
0.488678
0.481201
0.402615
0.416815
0.424408
0.402689
0.363333
0.311212
0.251582
0.232834
0.189425
3.12505
3.26385
3.25534
3.24688
3.2298
3.20394
3.16962
3.10107
3.00145
2.86351
2.58465
2.17405
1.49593
0.351381
0.476826
0.50557
0.410083
0.423371
0.43438
0.417158
0.385544
0.341661
0.290028
0.279806
0.249979
3.12505
3.26385
3.25534
3.24691
3.22978
3.20412
3.16963
3.10137
3.00069
2.86513
2.59502
2.2152
1.61365
0.551734
0.450244
0.533161
0.4227
0.432476
0.44825
0.435646
0.412474
0.378732
0.335041
0.333697
0.316098
3.12505
3.26386
3.25534
3.24691
3.22975
3.20426
3.16965
3.10181
2.99925
2.86506
2.607
2.24743
1.72696
0.783156
0.393588
0.55857
0.443581
0.443934
0.465438
0.458905
0.443378
0.421304
0.385941
0.394886
0.390838
3.12505
3.26386
3.25534
3.24691
3.22973
3.20428
3.16966
3.10202
2.99806
2.8646
2.61422
2.27008
1.82827
1.04192
0.311891
0.577023
0.474968
0.456802
0.484922
0.486931
0.478246
0.469205
0.443499
0.464863
0.480064
3.12506
3.26386
3.25534
3.24692
3.2297
3.20432
3.16966
3.10187
2.99827
2.86459
2.61342
2.29238
1.91946
1.28772
0.312405
0.582641
0.518131
0.470924
0.505779
0.518974
0.516573
0.522326
0.509584
0.542854
0.595372
3.12506
3.26385
3.25534
3.24692
3.22971
3.2043
3.16966
3.10167
2.99867
2.86531
2.61312
2.3024
1.98681
1.48825
0.554013
0.554129
0.570269
0.489019
0.526512
0.554046
0.559371
0.579415
0.587432
0.63636
0.776589
3.12505
3.26385
3.25533
3.24688
3.2298
3.20392
3.16957
3.10011
3.00177
2.8523
2.54896
2.04867
1.17368
0.0569332
0.498601
0.447356
0.398587
0.411498
0.412033
0.382181
0.331198
0.264687
0.187267
0.149184
0.0327356
3.12505
3.26385
3.25533
3.24688
3.2298
3.20393
3.16956
3.10009
3.00181
2.85381
2.55294
2.06244
1.20696
0.0614502
0.49534
0.450382
0.397585
0.410829
0.412921
0.384457
0.335406
0.271516
0.197484
0.163541
0.0770144
3.12505
3.26385
3.25533
3.24688
3.22979
3.20393
3.16956
3.10011
3.00179
2.85669
2.56074
2.09036
1.27619
0.101399
0.493046
0.462631
0.399304
0.412863
0.417377
0.391483
0.346196
0.287261
0.219787
0.192937
0.131489
3.12505
3.26385
3.25533
3.24688
3.22979
3.20393
3.16957
3.10045
3.00152
2.86022
2.57185
2.12973
1.37818
0.197486
0.48869
0.481188
0.402596
0.416808
0.424409
0.402691
0.363333
0.31121
0.251578
0.232811
0.189423
3.12505
3.26385
3.25533
3.24688
3.22979
3.20393
3.1696
3.10106
3.00141
2.86346
2.58459
2.174
1.49586
0.351299
0.476835
0.505554
0.410066
0.423364
0.43438
0.417158
0.385541
0.341658
0.290027
0.279794
0.24998
3.12505
3.26385
3.25533
3.2469
3.22978
3.20411
3.16962
3.10136
3.00066
2.86509
2.59497
2.21516
1.61359
0.551684
0.450254
0.53314
0.422683
0.43247
0.448252
0.435646
0.41247
0.37873
0.335045
0.333696
0.316102
3.12505
3.26385
3.25534
3.24691
3.22974
3.20424
3.16964
3.10179
2.99923
2.86503
2.60694
2.24739
1.72691
0.783118
0.39359
0.558549
0.443559
0.443925
0.46544
0.458907
0.443376
0.421302
0.385946
0.394893
0.390839
3.12505
3.26385
3.25534
3.24691
3.22973
3.20428
3.16965
3.102
2.99805
2.86458
2.61418
2.27004
1.82824
1.04189
0.311886
0.577012
0.474947
0.456792
0.484923
0.486934
0.478247
0.469203
0.4435
0.46487
0.480063
3.12506
3.26385
3.25534
3.24691
3.2297
3.20431
3.16965
3.10186
2.99825
2.86455
2.61336
2.29234
1.91941
1.28766
0.312385
0.582634
0.518111
0.470915
0.505779
0.518976
0.516576
0.522323
0.509582
0.542863
0.595376
3.12506
3.26385
3.25534
3.24691
3.2297
3.20429
3.16965
3.10166
2.99864
2.86526
2.61305
2.30236
1.98676
1.48819
0.553977
0.554131
0.570255
0.489012
0.526511
0.554046
0.559373
0.579413
0.587426
0.636369
0.776591
3.12505
3.26385
3.25533
3.24688
3.2298
3.20392
3.16957
3.10012
3.00177
2.8523
2.54896
2.04867
1.17368
0.0569256
0.498598
0.447356
0.398588
0.4115
0.412036
0.382184
0.3312
0.264688
0.187268
0.149185
0.032736
3.12505
3.26385
3.25533
3.24688
3.2298
3.20393
3.16957
3.10009
3.00181
2.85381
2.55294
2.06245
1.20697
0.0614471
0.495339
0.450383
0.397587
0.410832
0.412925
0.38446
0.335409
0.271517
0.197486
0.163542
0.077015
3.12505
3.26385
3.25533
3.24688
3.22979
3.20393
3.16956
3.10011
3.00179
2.85669
2.56074
2.09036
1.2762
0.101405
0.49305
0.462635
0.399308
0.412867
0.417382
0.391488
0.346199
0.287264
0.219789
0.192939
0.13149
3.12505
3.26385
3.25533
3.24688
3.22979
3.20393
3.16957
3.10045
3.00153
2.86023
2.57186
2.12975
1.37819
0.197493
0.488691
0.481193
0.402602
0.416815
0.424416
0.402697
0.363337
0.311214
0.25158
0.232813
0.189425
3.12505
3.26385
3.25533
3.24688
3.22979
3.20393
3.1696
3.10106
3.00142
2.86346
2.5846
2.17401
1.49586
0.351271
0.476849
0.505564
0.410077
0.423372
0.434389
0.417165
0.385546
0.341662
0.29003
0.279797
0.249982
3.12505
3.26385
3.25533
3.2469
3.22978
3.20411
3.16962
3.10136
3.00067
2.8651
2.59498
2.21518
1.6136
0.551643
0.450284
0.533148
0.422694
0.432481
0.44826
0.435653
0.412476
0.378734
0.335048
0.333699
0.316105
3.12505
3.26385
3.25534
3.24691
3.22974
3.20424
3.16964
3.1018
2.99924
2.86504
2.60697
2.24743
1.72692
0.783059
0.393631
0.558556
0.443564
0.443933
0.465445
0.458911
0.443381
0.421306
0.385949
0.394896
0.390843
3.12505
3.26385
3.25534
3.24691
3.22973
3.20428
3.16966
3.10201
2.99806
2.86461
2.61424
2.27008
1.82823
1.04181
0.311918
0.577012
0.474933
0.45679
0.484922
0.486933
0.478249
0.469205
0.443503
0.464872
0.480066
3.12506
3.26386
3.25534
3.24692
3.22971
3.20432
3.16966
3.10188
2.99829
2.8646
2.61345
2.2924
1.91942
1.28759
0.312335
0.582626
0.51808
0.470897
0.505771
0.51897
0.516575
0.522324
0.509583
0.542865
0.59538
3.12506
3.26386
3.25534
3.24692
3.22971
3.2043
3.16966
3.10168
2.99867
2.8653
2.61311
2.30235
1.98674
1.48815
0.553949
0.554116
0.570219
0.488982
0.526495
0.554037
0.559369
0.579411
0.587426
0.636371
0.776594
3.12505
3.26385
3.25533
3.24688
3.22979
3.20391
3.16955
3.10008
3.00171
2.85222
2.54888
2.04863
1.17375
0.0568691
0.498612
0.447376
0.398604
0.411507
0.412039
0.382185
0.331197
0.264685
0.187264
0.149184
0.0327365
3.12504
3.26384
3.25532
3.24687
3.22978
3.20391
3.16953
3.10003
3.00173
2.85372
2.55285
2.0624
1.207
0.0614761
0.495364
0.450405
0.397599
0.41084
0.412929
0.384463
0.335407
0.271515
0.197483
0.163541
0.0770148
3.12505
3.26385
3.25533
3.24688
3.22979
3.20393
3.16955
3.10009
3.00176
2.85666
2.56071
2.09035
1.27627
0.101502
0.493019
0.462597
0.399282
0.412867
0.417388
0.391493
0.3462
0.287263
0.219787
0.192938
0.13149
3.12504
3.26384
3.25532
3.24686
3.22975
3.2039
3.16952
3.10037
3.00144
2.86016
2.57182
2.12979
1.37856
0.198147
0.488456
0.481056
0.4025
0.416814
0.424431
0.402711
0.363342
0.311215
0.25158
0.232813
0.189424
3.12505
3.26385
3.25533
3.24688
3.22979
3.20393
3.1696
3.10104
3.00142
2.8635
2.58467
2.17416
1.4963
0.35197
0.476275
0.505451
0.410024
0.423423
0.434425
0.417192
0.385558
0.341667
0.290031
0.279797
0.249981
3.12505
3.26383
3.25532
3.24688
3.22972
3.20411
3.16956
3.1011
3.00051
2.86477
2.59419
2.21425
1.6124
0.549943
0.451181
0.533616
0.422931
0.432625
0.448319
0.435693
0.412493
0.378742
0.33505
0.333699
0.316103
3.12505
3.26385
3.25534
3.24691
3.22974
3.20425
3.16964
3.10178
2.99926
2.86507
2.60698
2.24746
1.72677
0.782568
0.39408
0.558735
0.443702
0.444055
0.4655
0.458947
0.443399
0.421314
0.385951
0.394896
0.390841
3.12504
3.26384
3.25532
3.24688
3.22968
3.20422
3.16956
3.10186
2.99791
2.86448
2.61417
2.27006
1.82826
1.04189
0.312215
0.57692
0.474879
0.456823
0.484946
0.486956
0.478264
0.469212
0.443505
0.464873
0.480064
3.12506
3.26385
3.25534
3.24691
3.2297
3.20432
3.16966
3.10187
2.99828
2.8646
2.61346
2.29244
1.91943
1.28755
0.31243
0.582563
0.517972
0.470875
0.505777
0.518984
0.516586
0.522331
0.509586
0.542865
0.595378
3.12504
3.26384
3.25532
3.24688
3.22965
3.20424
3.16957
3.10153
2.99853
2.86518
2.61305
2.30234
1.98685
1.48843
0.554268
0.554012
0.57013
0.48896
0.526506
0.554053
0.559381
0.579419
0.58743
0.636371
0.776594
3.12503
3.26383
3.25531
3.24685
3.22973
3.20386
3.16947
3.09993
3.00159
2.85215
2.54891
2.04878
1.17412
0.0564744
0.498321
0.447236
0.39849
0.411497
0.412071
0.382215
0.331215
0.264696
0.18727
0.149189
0.0327363
3.12504
3.26384
3.25532
3.24686
3.22976
3.2039
3.16951
3.09997
3.00169
2.85372
2.55291
2.06256
1.20741
0.0605398
0.495
0.450235
0.397586
0.410879
0.412976
0.3845
0.335428
0.271527
0.197489
0.163546
0.0770152
3.12504
3.26383
3.25531
3.24684
3.2297
3.20391
3.16946
3.09982
3.00149
2.85631
2.56006
2.08937
1.27456
0.100439
0.49394
0.46312
0.399665
0.41302
0.417456
0.391535
0.346222
0.287275
0.219793
0.192942
0.13149
3.12504
3.26384
3.25533
3.24687
3.22977
3.20392
3.16954
3.10039
3.00144
2.86014
2.57175
2.12961
1.37803
0.197547
0.488486
0.48115
0.402783
0.416954
0.424485
0.402743
0.363359
0.311224
0.251583
0.232815
0.189424
3.12504
3.26383
3.25531
3.24684
3.2297
3.20392
3.16951
3.10072
3.00129
2.86318
2.58389
2.17304
1.49456
0.349468
0.477496
0.505676
0.410306
0.423486
0.434435
0.417197
0.385561
0.341667
0.290031
0.279797
0.249981
3.12505
3.26385
3.25533
3.2469
3.22976
3.20411
3.1696
3.10131
3.00064
2.86507
2.59495
2.21508
1.61338
0.551318
0.450499
0.533012
0.422653
0.432504
0.448272
0.435665
0.41248
0.378734
0.335045
0.333698
0.316102
3.12504
3.26384
3.25532
3.24688
3.22969
3.2042
3.16956
3.10165
2.99909
2.8649
2.60685
2.24734
1.72695
0.783319
0.393605
0.558392
0.443497
0.443889
0.465425
0.458905
0.443376
0.421302
0.385944
0.394893
0.390839
3.12505
3.26385
3.25533
3.2469
3.22971
3.20426
3.16963
3.10196
2.998
2.86452
2.61413
2.27003
1.82825
1.04198
0.311918
0.57688
0.474889
0.456732
0.484891
0.48692
0.47824
0.469198
0.443496
0.464869
0.480062
3.12505
3.26384
3.25533
3.2469
3.22967
3.20429
3.16961
3.10178
2.99814
2.8644
2.61317
2.29224
1.9194
1.28776
0.312395
0.582556
0.518088
0.470869
0.505749
0.518959
0.516565
0.522317
0.509577
0.54286
0.595376
3.12505
3.26385
3.25534
3.24691
3.22969
3.20429
3.16964
3.10163
2.9986
2.86518
2.61289
2.30223
1.9867
1.48825
0.554088
0.554064
0.570249
0.488986
0.526489
0.554033
0.559363
0.579405
0.587421
0.636366
0.776591
3.12505
3.26384
3.25532
3.24687
3.22977
3.2039
3.16952
3.10003
3.00162
2.85215
2.54883
2.04878
1.17444
0.0568667
0.498509
0.447564
0.398734
0.411585
0.412129
0.38228
0.331313
0.264843
0.18748
0.149451
0.0338397
3.12505
3.26384
3.25532
3.24686
3.22975
3.20389
3.1695
3.09996
3.00165
2.85368
2.55283
2.06268
1.20816
0.0615486
0.495034
0.450421
0.397676
0.4109
0.413003
0.384533
0.335488
0.271622
0.197625
0.163768
0.0774695
3.12505
3.26384
3.25532
3.24687
3.22977
3.20391
3.16952
3.10001
3.00164
2.85658
2.56071
2.09062
1.27728
0.101546
0.492575
0.462714
0.399482
0.412983
0.417482
0.391571
0.346282
0.287368
0.21992
0.193137
0.131755
3.12504
3.26383
3.25532
3.24686
3.22971
3.20393
3.16949
3.10015
3.00122
2.8598
2.5711
2.12883
1.37704
0.196092
0.489734
0.48184
0.403128
0.417015
0.424544
0.402797
0.36343
0.311319
0.251702
0.232981
0.189602
3.12504
3.26384
3.25532
3.24686
3.22974
3.2039
3.16953
3.1009
3.00138
2.86344
2.58457
2.17409
1.4963
0.352305
0.476938
0.505641
0.410313
0.423533
0.434517
0.417274
0.385645
0.341762
0.290135
0.279936
0.250112
3.12504
3.26383
3.25531
3.24687
3.22969
3.20406
3.16949
3.1011
3.00046
2.86491
2.59491
2.21536
1.61458
0.553635
0.44948
0.532958
0.422701
0.43258
0.448382
0.435766
0.41258
0.37883
0.33514
0.333815
0.3162
3.12505
3.26384
3.25532
3.24689
3.22967
3.20425
3.16957
3.10152
2.99905
2.86469
2.60629
2.24686
1.72657
0.782893
0.393685
0.558988
0.443857
0.444126
0.465593
0.459033
0.443492
0.4214
0.386029
0.394989
0.390913
3.12504
3.26382
3.2553
3.24686
3.22961
3.20423
3.16949
3.10158
2.99771
2.86413
2.61345
2.26938
1.82762
1.04106
0.312077
0.577639
0.47535
0.457018
0.485113
0.487056
0.478356
0.469294
0.443575
0.464946
0.480119
3.12505
3.26385
3.25533
3.2469
3.22965
3.2043
3.16959
3.10172
2.99821
2.86458
2.61348
2.29256
1.91974
1.28802
0.312659
0.582685
0.518357
0.471094
0.505955
0.519087
0.516665
0.522407
0.50965
0.542915
0.595421
3.12504
3.26382
3.25531
3.24686
3.22956
3.20425
3.16948
3.10122
2.99832
2.8649
2.61248
2.3016
1.98616
1.48781
0.553632
0.554384
0.570457
0.489197
0.526683
0.554135
0.559442
0.579476
0.587488
0.636397
0.776636
3.12503
3.26382
3.2553
3.24685
3.22961
3.20417
3.16949
3.10117
2.99858
2.8649
2.61158
2.3031
2.03694
1.64304
0.900858
0.467016
0.615875
0.517548
0.546059
0.590224
0.605416
0.63351
0.673137
0.733947
0.9725
3.12502
3.26381
3.25528
3.24683
3.22961
3.20413
3.16945
3.10106
2.99816
2.86397
2.61102
2.30347
2.0676
1.74571
1.1915
0.377543
0.636344
0.559247
0.563993
0.624621
0.654302
0.682624
0.753956
0.815396
1.04327
3.12502
3.26381
3.25528
3.24684
3.22965
3.20408
3.16945
3.10127
2.99821
2.8644
2.61505
2.30093
2.08064
1.81639
1.40881
0.595861
0.60433
0.61357
0.581337
0.652966
0.7027
0.729591
0.811967
0.869112
1.04134
3.12502
3.26381
3.25528
3.24683
3.22962
3.20408
3.16942
3.10125
2.99825
2.86475
2.61686
2.29837
2.08348
1.85646
1.55366
0.985017
0.517599
0.657524
0.601305
0.671231
0.743784
0.769025
0.852776
0.908715
1.03311
3.12502
3.26381
3.25528
3.24683
3.22962
3.20412
3.16944
3.10117
2.99817
2.86457
2.6163
2.2964
2.0829
1.86542
1.63779
1.25602
0.514976
0.668801
0.632784
0.684143
0.770555
0.795707
0.876732
0.935621
1.02408
3.12502
3.26381
3.25528
3.24683
3.22961
3.20413
3.16943
3.10115
2.99816
2.86457
2.616
2.29656
2.08352
1.86902
1.69423
1.43858
0.854825
0.628421
0.671544
0.695615
0.782678
0.811461
0.887652
0.949653
1.02113
3.12502
3.26381
3.25528
3.24683
3.2296
3.20413
3.16942
3.10114
2.99821
2.86463
2.61608
2.29667
2.08385
1.87174
1.71342
1.54397
1.21475
0.625029
0.70358
0.711463
0.786515
0.821897
0.889036
0.956036
1.02358
3.12502
3.2638
3.25528
3.24682
3.22959
3.20412
3.16941
3.10111
2.99818
2.86461
2.61622
2.29652
2.08388
1.87237
1.71731
1.60453
1.41863
0.9044
0.70649
0.729377
0.790045
0.831954
0.892457
0.960571
1.02407
3.12502
3.2638
3.25528
3.24683
3.2296
3.20412
3.16942
3.10113
2.99817
2.86458
2.61623
2.29652
2.08387
1.8721
1.71861
1.63441
1.52851
1.28075
0.789841
0.748954
0.798094
0.844489
0.903067
0.964373
1.02468
3.12502
3.2638
3.25527
3.24682
3.22958
3.2041
3.16939
3.10109
2.99813
2.86453
2.61618
2.2964
2.08379
1.87218
1.71893
1.64042
1.58282
1.47213
1.10924
0.78241
0.807825
0.860541
0.917773
0.97259
1.02885
3.12501
3.26381
3.25528
3.24682
3.22961
3.20407
3.1694
3.10122
2.99821
2.86477
2.61683
2.2973
2.08496
1.87367
1.72029
1.64357
1.60212
1.55858
1.4239
1.01413
0.832148
0.88044
0.935924
0.985948
1.0379
3.12502
3.2638
3.25527
3.24682
3.22959
3.2041
3.1694
3.1011
2.99808
2.86444
2.61602
2.29641
2.08378
1.87214
1.71857
1.64212
1.60471
1.59278
1.54527
1.38163
1.00274
0.895564
0.954542
1.00328
1.05019
3.12502
3.2638
3.25527
3.24682
3.22959
3.2041
3.16941
3.10111
2.9981
2.86446
2.61604
2.29639
2.08375
1.8721
1.71854
1.64213
1.605
1.59743
1.58731
1.54075
1.36424
1.04393
0.957625
1.01084
1.05865
3.12501
3.26381
3.25528
3.24683
3.22961
3.20407
3.1694
3.10122
2.99821
2.86474
2.61675
2.29713
2.08476
1.87352
1.72018
1.64396
1.60695
1.59952
1.597
1.58096
1.52406
1.36773
1.13417
1.01868
1.04961
3.12502
3.2638
3.25528
3.24682
3.22959
3.2041
3.1694
3.10112
2.99813
2.8645
2.61606
2.29622
2.08361
1.87213
1.71863
1.6423
1.60527
1.59787
1.59597
1.58476
1.55179
1.48077
1.38723
1.25329
1.12682
3.12502
3.2638
3.25528
3.24683
3.2296
3.20412
3.16941
3.10111
2.99812
2.86449
2.61604
2.29634
2.08375
1.87224
1.7187
1.64232
1.60525
1.59783
1.59603
1.58552
1.55593
1.49699
1.44874
1.4124
1.36512
3.12502
3.2638
3.25528
3.24683
3.2296
3.20412
3.16942
3.10111
2.99814
2.86452
2.61612
2.29645
2.08385
1.87228
1.7187
1.64229
1.60522
1.59779
1.596
1.5856
1.55635
1.49861
1.45563
1.43693
1.43443
3.12501
3.2638
3.25527
3.24681
3.22958
3.20409
3.16938
3.10107
2.99809
2.86448
2.6161
2.29633
2.08373
1.87221
1.71864
1.64227
1.60524
1.59782
1.59605
1.58565
1.55644
1.49881
1.45627
1.43912
1.44159
3.12501
3.26381
3.25528
3.24683
3.22961
3.20407
3.16941
3.10124
2.99824
2.86481
2.61689
2.29726
2.08484
1.87349
1.72008
1.64384
1.60684
1.59943
1.59759
1.58706
1.55745
1.49957
1.45687
1.43965
1.44244
3.12501
3.26379
3.25526
3.24681
3.22956
3.20408
3.16936
3.10104
2.99805
2.86445
2.61611
2.29635
2.08376
1.87225
1.71868
1.64231
1.60527
1.59784
1.59606
1.58566
1.55644
1.49883
1.45633
1.43932
1.44226
3.12502
3.26381
3.25528
3.24683
3.22961
3.20413
3.16944
3.10114
2.99817
2.86454
2.6161
2.29641
2.0838
1.87223
1.71868
1.6423
1.60523
1.59781
1.59601
1.58562
1.55638
1.49876
1.45628
1.43929
1.44223
3.12501
3.26379
3.25526
3.2468
3.22956
3.20408
3.16935
3.10101
2.99804
2.86443
2.61606
2.29636
2.0839
1.87258
1.71901
1.64262
1.60555
1.5981
1.5963
1.58587
1.5566
1.49895
1.45641
1.43935
1.44224
3.12502
3.26381
3.25528
3.24683
3.22961
3.20413
3.16944
3.10114
2.99817
2.86455
2.6161
2.29642
2.08383
1.87226
1.71871
1.64232
1.60525
1.59782
1.59602
1.58562
1.55638
1.49876
1.45628
1.43928
1.44222
3.12501
3.26379
3.25526
3.2468
3.22956
3.20407
3.16934
3.10101
2.99801
2.8644
2.61605
2.29634
2.08378
1.87231
1.71874
1.64237
1.60533
1.59789
1.59611
1.58569
1.55646
1.49884
1.45633
1.43931
1.44225
3.12501
3.26381
3.25528
3.24683
3.22961
3.20408
3.16941
3.10124
2.99826
2.86483
2.61693
2.29732
2.08491
1.87354
1.72012
1.64387
1.60686
1.59944
1.59759
1.58706
1.55745
1.49956
1.45687
1.43966
1.44249
3.12501
3.26379
3.25526
3.2468
3.22956
3.20407
3.16935
3.10102
2.99802
2.86441
2.61607
2.29636
2.0838
1.8723
1.71872
1.64234
1.60529
1.59785
1.59606
1.58566
1.55643
1.49882
1.45632
1.43931
1.44225
3.12502
3.26381
3.25528
3.24683
3.22961
3.20414
3.16944
3.10114
2.99819
2.86458
2.61615
2.29648
2.08387
1.87228
1.71871
1.64231
1.60523
1.59781
1.59602
1.58563
1.55639
1.49877
1.45629
1.43929
1.44223
3.12501
3.26379
3.25527
3.24681
3.22956
3.20409
3.16937
3.10103
2.99808
2.86448
2.61612
2.29638
2.08389
1.87253
1.71895
1.64255
1.60549
1.59804
1.59626
1.58583
1.55656
1.49893
1.4564
1.43935
1.44226
3.12502
3.26381
3.25528
3.24684
3.22961
3.20414
3.16944
3.10115
2.99819
2.86457
2.61616
2.29644
2.08381
1.87221
1.71867
1.64229
1.60522
1.59781
1.59601
1.58562
1.55639
1.49876
1.45629
1.43929
1.44223
3.12501
3.2638
3.25527
3.24681
3.22958
3.20409
3.16938
3.10108
2.99811
2.8645
2.61613
2.29631
2.08371
1.87221
1.71865
1.6423
1.60526
1.59785
1.59607
1.58568
1.55647
1.49884
1.45634
1.43932
1.44226
3.12502
3.26381
3.25528
3.24683
3.22962
3.20408
3.16942
3.10126
2.99828
2.86486
2.61695
2.29733
2.08492
1.87355
1.72013
1.64388
1.60686
1.59943
1.59758
1.58706
1.55745
1.49956
1.45687
1.43965
1.44248
3.12502
3.2638
3.25528
3.24683
3.2296
3.20411
3.16941
3.10112
2.99811
2.86448
2.61607
2.29638
2.08372
1.87206
1.7185
1.64209
1.60503
1.5976
1.5958
1.58544
1.55626
1.49867
1.45622
1.43926
1.44222
3.12502
3.26381
3.25528
3.24684
3.22962
3.20413
3.16944
3.10118
2.99818
2.86457
2.61615
2.29644
2.08374
1.87204
1.71848
1.64208
1.60501
1.59759
1.59579
1.58542
1.55624
1.49865
1.4562
1.43924
1.44221
3.12502
3.26381
3.25528
3.24683
3.22962
3.20409
3.16942
3.10125
2.99824
2.86479
2.6168
2.29718
2.08483
1.8736
1.72024
1.64398
1.60696
1.59951
1.59765
1.58711
1.55749
1.4996
1.4569
1.43965
1.44245
3.12503
3.26381
3.25529
3.24684
3.22963
3.20414
3.16947
3.10122
2.9982
2.86458
2.61612
2.29633
2.08363
1.87197
1.71845
1.64208
1.60502
1.59761
1.59581
1.58545
1.55628
1.49867
1.45622
1.43925
1.44221
3.12502
3.26381
3.25528
3.24683
3.22961
3.20412
3.16944
3.10117
2.99816
2.86454
2.61614
2.29641
2.08372
1.87203
1.71846
1.64206
1.60498
1.59755
1.59575
1.58539
1.55622
1.49865
1.45621
1.43925
1.44223
3.12502
3.26382
3.25529
3.24685
3.22966
3.20411
3.16948
3.10136
2.9983
2.86483
2.61684
2.29723
2.08472
1.8732
1.71981
1.64354
1.60652
1.5991
1.59724
1.58676
1.55721
1.49936
1.45674
1.43958
1.44244
3.12503
3.26381
3.25529
3.24684
3.22961
3.20413
3.16944
3.10118
2.99824
2.86465
2.61629
2.29634
2.08367
1.87211
1.71858
1.64224
1.6052
1.59781
1.59604
1.58566
1.55646
1.49884
1.45634
1.43933
1.44228
3.12502
3.26382
3.2553
3.24685
3.22966
3.20412
3.16948
3.10135
2.9983
2.86484
2.61687
2.29723
2.08474
1.87327
1.71987
1.64358
1.60654
1.5991
1.59724
1.58675
1.55722
1.49939
1.45676
1.43959
1.44244
3.12503
3.26381
3.25529
3.24684
3.22963
3.20414
3.16946
3.10122
2.9982
2.86459
2.61619
2.29642
2.08372
1.87202
1.71845
1.64205
1.60497
1.59755
1.59575
1.5854
1.55623
1.49865
1.45621
1.43925
1.44223
3.12504
3.26384
3.25532
3.24689
3.22969
3.20423
3.16961
3.10142
2.99876
2.86506
2.61168
2.303
2.03661
1.64259
0.900656
0.466789
0.615826
0.517326
0.54591
0.590111
0.605346
0.633441
0.673078
0.733942
0.972465
3.12504
3.26384
3.25532