/*--------------------------------*- C++ -*----------------------------------*\
| =========                 |                                                 |
| \\      /  F ield         | OpenFOAM: The Open Source CFD Toolbox           |
|  \\    /   O peration     | Version:  4.1                                   |
|   \\  /    A nd           | Web:      www.OpenFOAM.org                      |
|    \\/     M anipulation  |                                                 |
\*---------------------------------------------------------------------------*/
FoamFile
{
    version     2.0;
    format      ascii;
    class       volScalarField;
    location    "0.32";
    object      p;
}
// * * * * * * * * * * * * * * * * * * * * * * * * * * * * * * * * * * * * * //

dimensions      [1 -1 -2 0 0 0 0];

internalField   nonuniform List<scalar> 
52500
(
0.0909059
0.0636056
0.0636536
0.0638453
0.0642802
0.0651514
0.0666658
0.0690581
0.0724464
0.0795737
0.0963926
0.143235
0.310849
1.26014
2.92755
2.45589
2.37061
2.34868
2.23181
2.13655
2.08754
2.0659
2.05741
2.0491
2.07845
0.0909061
0.0636057
0.0636538
0.0638455
0.0642805
0.0651517
0.0666671
0.0690568
0.0724314
0.0794836
0.0959845
0.141599
0.302793
1.20419
2.93592
2.46159
2.37626
2.35172
2.23456
2.1349
2.08399
2.06154
2.05237
2.04295
2.07304
0.0909062
0.0636059
0.0636539
0.0638457
0.0642807
0.065152
0.0666681
0.0690544
0.0724132
0.07931
0.0951542
0.138248
0.286624
1.09036
2.93811
2.46819
2.37975
2.34933
2.23338
2.12595
2.07128
2.0469
2.03606
2.0242
2.05566
0.0909063
0.063606
0.0636541
0.0638461
0.0642816
0.0651548
0.0666598
0.0690547
0.0724045
0.0790518
0.0939375
0.133608
0.263793
0.926236
2.90682
2.48769
2.38674
2.34272
2.23068
2.11017
2.04929
2.02121
2.00774
1.99222
2.02474
0.0909063
0.0636062
0.0636543
0.0638464
0.064282
0.0651562
0.0666522
0.0690596
0.0723607
0.0787483
0.0926466
0.128573
0.239196
0.747407
2.78713
2.5416
2.40002
2.33375
2.22773
2.09219
2.022
1.98806
1.97101
1.95064
1.98489
0.0909064
0.0636063
0.0636543
0.063846
0.0642773
0.0651372
0.0667068
0.068987
0.0723434
0.0789415
0.0919528
0.123631
0.216027
0.594476
2.51032
2.64604
2.4183
2.32108
2.22184
2.07581
1.99057
1.94728
1.92541
1.89926
1.93593
0.0909064
0.0636061
0.0636541
0.0638463
0.0642795
0.0651187
0.0667356
0.0689386
0.0723675
0.0790356
0.0913806
0.119696
0.19499
0.468765
2.05712
2.81876
2.43922
2.30427
2.21188
2.05901
1.95714
1.90064
1.87218
1.83724
1.87445
0.0909066
0.0636062
0.0636542
0.0638464
0.06428
0.0651137
0.0667399
0.0689328
0.072392
0.0789324
0.0917398
0.116523
0.176267
0.374371
1.47894
3.01107
2.45282
2.28738
2.19729
2.03982
1.92362
1.84952
1.81242
1.76347
1.79351
0.0909064
0.0636062
0.0636543
0.0638469
0.0642815
0.0651105
0.0667489
0.0689262
0.0724023
0.0789365
0.0922323
0.112861
0.160859
0.305491
1.00214
3.03666
2.46333
2.2822
2.17837
2.01918
1.89002
1.79345
1.74461
1.67543
1.67622
0.0909065
0.0636066
0.0636547
0.0638474
0.0642818
0.0651141
0.0667472
0.0689388
0.0723965
0.0788639
0.0920157
0.112005
0.151115
0.254693
0.665606
2.73349
2.58938
2.29401
2.15518
1.99632
1.85675
1.73383
1.66852
1.56994
1.51722
0.0909067
0.0636062
0.0636543
0.0638462
0.0642813
0.0651534
0.0666648
0.069059
0.0724465
0.079574
0.0963958
0.143254
0.310971
1.26108
2.92775
2.45572
2.37038
2.34845
2.23155
2.13635
2.08737
2.06574
2.05726
2.04894
2.07827
0.0909064
0.063606
0.0636541
0.063846
0.0642811
0.0651529
0.0666663
0.0690572
0.0724314
0.0794836
0.0959856
0.141609
0.302862
1.20473
2.93615
2.46109
2.37596
2.35151
2.23431
2.1347
2.08382
2.06138
2.05222
2.0428
2.07285
0.0909065
0.0636063
0.0636544
0.0638465
0.0642816
0.0651533
0.0666692
0.0690563
0.0724172
0.0793181
0.0951726
0.138316
0.287015
1.09385
2.93655
2.46748
2.3793
2.34908
2.23314
2.12577
2.07112
2.04675
2.03591
2.02405
2.05546
0.0909063
0.0636058
0.0636538
0.0638457
0.064281
0.0651536
0.0666605
0.0690535
0.0724028
0.0790516
0.0939422
0.133635
0.263961
0.927718
2.90677
2.48627
2.38622
2.34249
2.23046
2.11002
2.04916
2.02107
2.0076
1.99208
2.02453
0.0909065
0.0636062
0.0636544
0.0638465
0.064282
0.0651559
0.0666542
0.0690598
0.0723594
0.0787511
0.0926611
0.128633
0.239474
0.750123
2.78642
2.54047
2.39965
2.33351
2.22758
2.09209
2.0219
1.98794
1.97088
1.9505
1.98468
0.0909062
0.0636055
0.0636533
0.0638445
0.0642755
0.0651348
0.0667014
0.0689815
0.072336
0.0789257
0.0919358
0.123616
0.216052
0.5948
2.51225
2.6467
2.4182
2.32097
2.22174
2.07577
1.99051
1.94718
1.92529
1.89914
1.93571
0.0909065
0.0636057
0.0636536
0.0638453
0.0642779
0.0651178
0.0667307
0.0689369
0.0723637
0.0790168
0.0913573
0.119664
0.194933
0.468456
2.0553
2.81962
2.43897
2.30434
2.21199
2.05903
1.95713
1.90057
1.87207
1.83713
1.87422
0.0909062
0.0636052
0.0636531
0.0638449
0.0642781
0.0651107
0.0667355
0.068933
0.072381
0.078919
0.091723
0.116495
0.17621
0.37419
1.47831
3.01075
2.45302
2.28759
2.19744
2.03988
1.92365
1.84948
1.81233
1.76336
1.79328
0.0909062
0.0636055
0.0636534
0.0638455
0.0642796
0.0651084
0.0667431
0.0689268
0.072394
0.0789192
0.0921963
0.11282
0.160817
0.305436
1.00179
3.03659
2.46387
2.28248
2.1786
2.01929
1.89007
1.79344
1.74454
1.67533
1.676
0.0909059
0.0636052
0.0636531
0.0638451
0.0642787
0.0651104
0.0667386
0.068936
0.0723826
0.0788375
0.0919679
0.111968
0.151066
0.25459
0.665139
2.73304
2.59069
2.29443
2.15537
1.99649
1.85683
1.73384
1.66848
1.56985
1.51704
0.0909061
0.0636055
0.0636535
0.0638452
0.0642799
0.0651511
0.0666645
0.0690563
0.0724435
0.0795703
0.0963919
0.143252
0.310996
1.26152
2.92689
2.45584
2.37055
2.34858
2.2317
2.13643
2.08741
2.06576
2.05726
2.04895
2.07826
0.0909062
0.0636056
0.0636537
0.0638454
0.0642803
0.0651514
0.0666658
0.0690552
0.0724288
0.0794801
0.0959815
0.141607
0.302897
1.20518
2.9357
2.46134
2.37614
2.35163
2.23445
2.13478
2.08386
2.0614
2.05223
2.0428
2.07284
0.0909062
0.0636055
0.0636534
0.0638451
0.0642799
0.0651506
0.0666663
0.069051
0.0724086
0.079304
0.0951483
0.13825
0.2867
1.09121
2.93807
2.46794
2.37959
2.34925
2.23327
2.12584
2.07116
2.04677
2.03592
2.02405
2.05545
0.0909063
0.0636057
0.0636538
0.0638456
0.0642809
0.0651536
0.0666587
0.0690523
0.0724008
0.0790477
0.0939334
0.133606
0.263822
0.926612
2.90704
2.48732
2.38653
2.34263
2.23056
2.11007
2.04918
2.02108
2.0076
1.99207
2.02451
0.0909061
0.0636054
0.0636534
0.0638452
0.0642806
0.0651543
0.0666487
0.0690564
0.0723575
0.0787389
0.092632
0.128563
0.239236
0.748071
2.78717
2.54105
2.3997
2.3336
2.22761
2.09211
2.0219
1.98793
1.97087
1.95049
1.98466
0.0909063
0.0636058
0.0636538
0.0638452
0.0642764
0.065136
0.0667039
0.0689869
0.0723373
0.0789304
0.0919428
0.12363
0.216065
0.594846
2.51132
2.6459
2.41828
2.32101
2.22171
2.07574
1.99049
1.94716
1.92527
1.89912
1.93568
0.0909061
0.0636051
0.0636529
0.0638445
0.0642769
0.0651163
0.0667289
0.068936
0.0723586
0.0790085
0.0913475
0.119657
0.194958
0.46873
2.05697
2.81827
2.43911
2.30432
2.21186
2.05896
1.95709
1.90054
1.87204
1.8371
1.87419
0.0909065
0.0636056
0.0636535
0.0638454
0.0642786
0.0651121
0.0667362
0.0689333
0.072385
0.0789219
0.091722
0.116502
0.176239
0.374316
1.479
3.01035
2.45312
2.28755
2.1973
2.03981
1.92359
1.84944
1.81229
1.76333
1.79324
0.0909059
0.0636049
0.0636528
0.0638448
0.0642785
0.0651072
0.0667409
0.068922
0.0723898
0.0789089
0.0921727
0.112801
0.160814
0.305489
1.00214
3.0365
2.46397
2.28244
2.1785
2.01922
1.89001
1.79339
1.7445
1.67529
1.67596
0.0909063
0.0636056
0.0636535
0.0638456
0.0642791
0.0651121
0.066739
0.0689346
0.0723861
0.0788379
0.0919603
0.111967
0.151073
0.254618
0.665218
2.73343
2.59096
2.29441
2.15531
1.99643
1.85676
1.73379
1.66843
1.56981
1.517
0.090906
0.0636052
0.0636532
0.0638448
0.0642795
0.0651504
0.0666633
0.0690545
0.072441
0.0795668
0.0963874
0.143246
0.310993
1.26157
2.92681
2.45583
2.37056
2.34859
2.23171
2.13641
2.08738
2.06572
2.05722
2.0489
2.07822
0.090906
0.0636052
0.0636532
0.0638449
0.0642796
0.0651504
0.0666644
0.0690529
0.0724257
0.079476
0.095976
0.141599
0.302884
1.20518
2.93569
2.4613
2.37615
2.35166
2.23447
2.13477
2.08383
2.06136
2.05219
2.04276
2.0728
0.090906
0.0636053
0.0636532
0.0638449
0.0642795
0.0651499
0.0666662
0.0690501
0.0724074
0.0793022
0.0951453
0.138245
0.286703
1.09137
2.93806
2.46784
2.3796
2.3493
2.2333
2.12583
2.07114
2.04673
2.03588
2.02401
2.05541
0.090906
0.0636053
0.0636533
0.063845
0.06428
0.065152
0.0666589
0.0690506
0.0723978
0.0790436
0.0939278
0.1336
0.263849
0.92713
2.90678
2.48712
2.38657
2.3427
2.23061
2.11008
2.04917
2.02106
2.00756
1.99203
2.02447
0.090906
0.0636053
0.0636533
0.063845
0.0642803
0.0651539
0.0666481
0.0690559
0.0723571
0.0787369
0.0926291
0.128565
0.239279
0.748689
2.78675
2.54124
2.39986
2.33366
2.22771
2.09214
2.0219
1.98792
1.97084
1.95046
1.98462
0.090906
0.0636051
0.0636529
0.063844
0.0642749
0.065134
0.0666993
0.0689821
0.0723325
0.0789164
0.0919213
0.123587
0.21596
0.594343
2.51079
2.64661
2.4182
2.32105
2.22185
2.07581
1.99051
1.94715
1.92525
1.89909
1.93565
0.090906
0.063605
0.0636528
0.0638443
0.0642766
0.065116
0.066728
0.0689355
0.0723576
0.079006
0.0913431
0.119642
0.194894
0.468407
2.05543
2.82014
2.43909
2.30441
2.21204
2.05904
1.95711
1.90053
1.87202
1.83707
1.87416
0.090906
0.0636048
0.0636527
0.0638444
0.0642774
0.0651097
0.0667341
0.0689319
0.072378
0.078914
0.0917135
0.116487
0.176206
0.374208
1.47865
3.01098
2.45318
2.28763
2.19744
2.03987
1.92362
1.84944
1.81228
1.76331
1.79321
0.0909058
0.0636048
0.0636526
0.0638446
0.0642783
0.0651068
0.0667401
0.0689228
0.0723879
0.0789074
0.0921725
0.1128
0.160809
0.305467
1.00209
3.03663
2.46393
2.28251
2.1786
2.01928
1.89004
1.7934
1.74449
1.67527
1.67594
0.0909058
0.0636048
0.0636527
0.0638446
0.064278
0.0651099
0.0667367
0.0689337
0.0723795
0.0788302
0.0919512
0.111954
0.151058
0.2546
0.665244
2.73313
2.59059
2.29447
2.1554
1.99648
1.85679
1.7338
1.66842
1.56979
1.51698
0.090906
0.063605
0.063653
0.0638446
0.0642793
0.0651501
0.0666628
0.0690537
0.07244
0.0795653
0.0963845
0.143239
0.310973
1.26147
2.92688
2.45586
2.37058
2.34861
2.23171
2.13641
2.08739
2.06573
2.05724
2.04894
2.07829
0.090906
0.0636051
0.063653
0.0638447
0.0642794
0.0651501
0.0666639
0.0690521
0.0724248
0.0794746
0.0959734
0.141593
0.302868
1.20511
2.93571
2.46135
2.37618
2.35168
2.23448
2.13477
2.08384
2.06138
2.05221
2.04279
2.07287
0.090906
0.0636051
0.0636531
0.0638447
0.0642793
0.0651496
0.0666657
0.0690493
0.0724063
0.0793006
0.0951426
0.138239
0.286683
1.09125
2.93806
2.46788
2.37964
2.34932
2.23331
2.12584
2.07115
2.04675
2.03591
2.02405
2.05549
0.090906
0.0636052
0.0636532
0.0638449
0.0642798
0.0651517
0.0666585
0.0690499
0.0723967
0.0790421
0.0939252
0.133595
0.263833
0.927036
2.90674
2.48717
2.38661
2.34271
2.23063
2.11009
2.04919
2.02108
2.0076
1.99207
2.02456
0.090906
0.0636051
0.0636531
0.0638449
0.0642801
0.0651535
0.0666479
0.0690551
0.0723553
0.0787357
0.0926278
0.128561
0.239265
0.748591
2.78667
2.5413
2.3999
2.33367
2.22771
2.09215
2.02192
1.98795
1.97088
1.95049
1.98472
0.090906
0.063605
0.0636528
0.0638439
0.0642747
0.0651337
0.0666993
0.0689811
0.0723316
0.0789163
0.0919205
0.123583
0.21595
0.594289
2.51064
2.64668
2.41824
2.32105
2.22184
2.07581
1.99053
1.94719
1.92529
1.89913
1.93576
0.090906
0.0636048
0.0636527
0.0638442
0.0642765
0.0651157
0.0667279
0.0689351
0.0723569
0.0790054
0.0913435
0.119642
0.19489
0.46837
2.05526
2.8202
2.4391
2.30439
2.21202
2.05903
1.95712
1.90056
1.87207
1.83711
1.87427
0.0909059
0.0636048
0.0636526
0.0638443
0.0642774
0.0651096
0.0667341
0.0689318
0.0723778
0.0789142
0.0917152
0.116486
0.176197
0.374172
1.47846
3.01096
2.45312
2.28758
2.19741
2.03986
1.92362
1.84946
1.81231
1.76335
1.79331
0.0909058
0.0636048
0.0636526
0.0638446
0.0642784
0.0651068
0.0667405
0.0689231
0.0723883
0.0789092
0.0921777
0.112803
0.160805
0.305436
1.0019
3.03658
2.46385
2.28245
2.17856
2.01926
1.89003
1.79341
1.74452
1.67532
1.67603
0.0909058
0.0636048
0.0636527
0.0638447
0.0642781
0.0651098
0.066737
0.0689335
0.0723796
0.0788305
0.091952
0.111951
0.15105
0.254578
0.66517
2.73294
2.59052
2.2944
2.15535
1.99645
1.85678
1.7338
1.66844
1.56983
1.51705
0.090906
0.0636052
0.0636532
0.0638448
0.0642795
0.0651505
0.0666633
0.0690546
0.072441
0.0795668
0.0963875
0.143246
0.310996
1.26159
2.92683
2.45585
2.37058
2.34861
2.23173
2.13643
2.08739
2.06573
2.05723
2.04891
2.07822
0.090906
0.0636052
0.0636532
0.0638449
0.0642796
0.0651505
0.0666644
0.0690529
0.0724258
0.0794761
0.0959763
0.141599
0.302887
1.2052
2.93572
2.46132
2.37617
2.35168
2.23449
2.13478
2.08384
2.06137
2.05219
2.04276
2.07281
0.090906
0.0636053
0.0636532
0.0638449
0.0642795
0.06515
0.0666662
0.0690502
0.0724075
0.0793023
0.0951455
0.138246
0.286705
1.09139
2.93809
2.46786
2.37963
2.34932
2.23332
2.12585
2.07115
2.04674
2.03589
2.02402
2.05542
0.0909061
0.0636053
0.0636533
0.063845
0.06428
0.065152
0.066659
0.0690507
0.0723979
0.0790437
0.0939281
0.133601
0.263852
0.927143
2.9068
2.48715
2.3866
2.34272
2.23063
2.1101
2.04918
2.02107
2.00757
1.99204
2.02448
0.0909061
0.0636053
0.0636533
0.0638451
0.0642803
0.0651539
0.0666482
0.069056
0.0723572
0.0787373
0.0926299
0.128566
0.23928
0.748675
2.78677
2.54129
2.39989
2.33368
2.22773
2.09216
2.02192
1.98793
1.97085
1.95047
1.98463
0.090906
0.0636052
0.063653
0.0638441
0.0642749
0.0651341
0.0666995
0.0689823
0.0723327
0.078917
0.0919223
0.123588
0.215961
0.594328
2.51074
2.64666
2.41823
2.32107
2.22186
2.07583
1.99052
1.94716
1.92526
1.8991
1.93566
0.090906
0.063605
0.0636528
0.0638443
0.0642767
0.0651161
0.0667282
0.068936
0.0723579
0.0790067
0.0913455
0.119646
0.194897
0.468392
2.05531
2.82019
2.4391
2.30441
2.21205
2.05905
1.95713
1.90054
1.87203
1.83708
1.87417
0.090906
0.0636049
0.0636527
0.0638445
0.0642776
0.0651099
0.0667345
0.0689325
0.0723786
0.0789156
0.0917173
0.11649
0.176205
0.37419
1.4785
3.01098
2.45314
2.28761
2.19744
2.03988
1.92363
1.84945
1.81229
1.76332
1.79322
0.0909059
0.0636049
0.0636528
0.0638448
0.0642786
0.0651071
0.0667408
0.0689241
0.0723891
0.0789109
0.0921811
0.112807
0.160811
0.30545
1.00196
3.0366
2.46387
2.28248
2.17859
2.01927
1.89004
1.7934
1.7445
1.67528
1.67595
0.0909059
0.063605
0.0636529
0.0638448
0.0642783
0.0651102
0.0667374
0.0689344
0.0723806
0.0788323
0.0919559
0.111954
0.151056
0.254589
0.665204
2.73303
2.59051
2.29441
2.15537
1.99646
1.85679
1.7338
1.66843
1.5698
1.51699
0.090906
0.0636052
0.0636532
0.0638448
0.0642795
0.0651504
0.0666633
0.0690545
0.072441
0.0795668
0.0963874
0.143246
0.310993
1.26157
2.92681
2.45583
2.37056
2.3486
2.23171
2.13641
2.08738
2.06572
2.05722
2.0489
2.07822
0.090906
0.0636052
0.0636532
0.0638449
0.0642796
0.0651504
0.0666644
0.0690529
0.0724257
0.079476
0.095976
0.141599
0.302884
1.20518
2.93569
2.4613
2.37615
2.35166
2.23447
2.13477
2.08383
2.06136
2.05219
2.04276
2.0728
0.090906
0.0636053
0.0636532
0.0638449
0.0642795
0.0651499
0.0666662
0.0690501
0.0724074
0.0793022
0.0951453
0.138245
0.286703
1.09137
2.93806
2.46784
2.3796
2.3493
2.2333
2.12583
2.07114
2.04673
2.03588
2.02401
2.05541
0.090906
0.0636053
0.0636533
0.063845
0.06428
0.065152
0.0666589
0.0690506
0.0723978
0.0790436
0.0939278
0.1336
0.263849
0.92713
2.90678
2.48712
2.38657
2.3427
2.23061
2.11008
2.04917
2.02106
2.00756
1.99203
2.02447
0.090906
0.0636053
0.0636533
0.063845
0.0642803
0.0651539
0.0666481
0.0690559
0.0723571
0.0787369
0.0926291
0.128565
0.239279
0.748689
2.78675
2.54124
2.39986
2.33366
2.22771
2.09214
2.0219
1.98792
1.97084
1.95046
1.98462
0.090906
0.0636051
0.0636529
0.063844
0.0642749
0.065134
0.0666993
0.0689821
0.0723325
0.0789164
0.0919213
0.123587
0.21596
0.594344
2.5108
2.64661
2.4182
2.32105
2.22185
2.07581
1.99051
1.94715
1.92525
1.89909
1.93565
0.090906
0.063605
0.0636528
0.0638443
0.0642766
0.065116
0.066728
0.0689355
0.0723576
0.079006
0.0913431
0.119642
0.194894
0.468407
2.05543
2.82014
2.43909
2.30441
2.21204
2.05904
1.95711
1.90053
1.87202
1.83707
1.87416
0.090906
0.0636048
0.0636527
0.0638444
0.0642774
0.0651097
0.0667341
0.0689319
0.072378
0.078914
0.0917135
0.116487
0.176206
0.374208
1.47865
3.01098
2.45318
2.28763
2.19744
2.03987
1.92362
1.84944
1.81228
1.76331
1.79321
0.0909058
0.0636048
0.0636526
0.0638446
0.0642783
0.0651068
0.0667401
0.0689228
0.0723879
0.0789074
0.0921725
0.1128
0.160809
0.305468
1.00209
3.03663
2.46393
2.28251
2.1786
2.01928
1.89004
1.7934
1.74449
1.67527
1.67594
0.0909058
0.0636048
0.0636527
0.0638446
0.064278
0.0651099
0.0667367
0.0689337
0.0723795
0.0788302
0.0919512
0.111954
0.151058
0.2546
0.665244
2.73313
2.59059
2.29447
2.1554
1.99648
1.85679
1.7338
1.66842
1.56979
1.51698
0.0909061
0.0636055
0.0636535
0.0638452
0.0642799
0.0651511
0.0666645
0.0690563
0.0724435
0.0795703
0.0963919
0.143252
0.310996
1.26152
2.92689
2.45584
2.37055
2.34858
2.2317
2.13643
2.08741
2.06576
2.05726
2.04895
2.07826
0.0909062
0.0636056
0.0636537
0.0638454
0.0642803
0.0651514
0.0666658
0.0690552
0.0724288
0.0794801
0.0959815
0.141607
0.302897
1.20518
2.9357
2.46134
2.37614
2.35163
2.23445
2.13478
2.08386
2.0614
2.05223
2.0428
2.07284
0.0909062
0.0636055
0.0636534
0.0638451
0.0642799
0.0651506
0.0666663
0.069051
0.0724086
0.079304
0.0951483
0.13825
0.2867
1.09121
2.93807
2.46794
2.37959
2.34925
2.23327
2.12584
2.07116
2.04677
2.03592
2.02405
2.05545
0.0909063
0.0636057
0.0636538
0.0638456
0.0642809
0.0651536
0.0666587
0.0690523
0.0724008
0.0790477
0.0939334
0.133606
0.263822
0.926613
2.90704
2.48732
2.38653
2.34263
2.23056
2.11007
2.04918
2.02108
2.0076
1.99207
2.02451
0.0909061
0.0636054
0.0636534
0.0638452
0.0642806
0.0651543
0.0666487
0.0690564
0.0723575
0.0787389
0.092632
0.128563
0.239236
0.748071
2.78717
2.54105
2.3997
2.3336
2.22761
2.09211
2.0219
1.98793
1.97087
1.95049
1.98466
0.0909063
0.0636058
0.0636538
0.0638452
0.0642764
0.065136
0.0667039
0.0689869
0.0723373
0.0789304
0.0919428
0.12363
0.216065
0.594846
2.51132
2.64589
2.41828
2.32101
2.22171
2.07574
1.99049
1.94716
1.92527
1.89912
1.93568
0.0909061
0.0636051
0.0636529
0.0638445
0.0642769
0.0651163
0.0667289
0.068936
0.0723586
0.0790085
0.0913475
0.119657
0.194958
0.46873
2.05697
2.81827
2.43911
2.30432
2.21186
2.05896
1.95709
1.90054
1.87204
1.8371
1.87419
0.0909065
0.0636056
0.0636535
0.0638454
0.0642786
0.0651121
0.0667362
0.0689333
0.072385
0.0789219
0.091722
0.116502
0.176239
0.374316
1.479
3.01035
2.45312
2.28755
2.1973
2.03981
1.92359
1.84944
1.81229
1.76333
1.79324
0.0909059
0.0636049
0.0636528
0.0638448
0.0642785
0.0651072
0.0667409
0.068922
0.0723898
0.0789089
0.0921727
0.112801
0.160814
0.305489
1.00214
3.0365
2.46397
2.28244
2.1785
2.01922
1.89001
1.79339
1.7445
1.67529
1.67596
0.0909063
0.0636056
0.0636535
0.0638456
0.0642791
0.0651121
0.066739
0.0689346
0.0723861
0.0788379
0.0919603
0.111967
0.151073
0.254618
0.665218
2.73343
2.59096
2.29441
2.15531
1.99643
1.85676
1.73379
1.66843
1.56981
1.517
0.0909067
0.0636062
0.0636543
0.0638462
0.0642813
0.0651534
0.0666648
0.069059
0.0724465
0.079574
0.0963958
0.143254
0.310971
1.26108
2.92775
2.45572
2.37038
2.34845
2.23155
2.13635
2.08737
2.06574
2.05726
2.04894
2.07827
0.0909064
0.063606
0.0636541
0.063846
0.0642811
0.0651529
0.0666663
0.0690572
0.0724314
0.0794836
0.0959856
0.141609
0.302862
1.20473
2.93615
2.46109
2.37595
2.35151
2.23431
2.1347
2.08382
2.06138
2.05222
2.0428
2.07285
0.0909065
0.0636063
0.0636544
0.0638465
0.0642816
0.0651533
0.0666692
0.0690563
0.0724172
0.0793181
0.0951726
0.138316
0.287015
1.09385
2.93655
2.46748
2.3793
2.34908
2.23314
2.12577
2.07112
2.04675
2.03591
2.02405
2.05546
0.0909063
0.0636058
0.0636538
0.0638457
0.064281
0.0651536
0.0666605
0.0690535
0.0724028
0.0790516
0.0939422
0.133635
0.263961
0.927718
2.90677
2.48627
2.38622
2.34249
2.23046
2.11002
2.04916
2.02107
2.0076
1.99208
2.02453
0.0909065
0.0636062
0.0636544
0.0638465
0.064282
0.0651559
0.0666542
0.0690598
0.0723594
0.0787511
0.0926611
0.128633
0.239473
0.750122
2.78641
2.54047
2.39965
2.33351
2.22758
2.09209
2.0219
1.98794
1.97088
1.9505
1.98468
0.0909062
0.0636055
0.0636533
0.0638445
0.0642755
0.0651348
0.0667014
0.0689815
0.072336
0.0789258
0.0919358
0.123616
0.216052
0.594799
2.51225
2.6467
2.4182
2.32097
2.22174
2.07577
1.99051
1.94718
1.92529
1.89914
1.93571
0.0909065
0.0636057
0.0636536
0.0638453
0.0642779
0.0651178
0.0667307
0.0689369
0.0723637
0.0790168
0.0913573
0.119664
0.194932
0.468456
2.0553
2.81962
2.43896
2.30434
2.21199
2.05903
1.95713
1.90057
1.87207
1.83712
1.87422
0.0909062
0.0636052
0.0636531
0.0638449
0.0642781
0.0651107
0.0667356
0.068933
0.072381
0.078919
0.091723
0.116495
0.17621
0.37419
1.47831
3.01075
2.45302
2.28759
2.19744
2.03988
1.92365
1.84948
1.81233
1.76336
1.79328
0.0909062
0.0636055
0.0636534
0.0638455
0.0642796
0.0651084
0.0667431
0.0689268
0.072394
0.0789192
0.0921962
0.11282
0.160817
0.305436
1.00179
3.03659
2.46387
2.28248
2.1786
2.01929
1.89007
1.79344
1.74454
1.67533
1.676
0.0909059
0.0636052
0.0636531
0.0638451
0.0642787
0.0651104
0.0667386
0.068936
0.0723826
0.0788375
0.0919679
0.111968
0.151066
0.25459
0.66514
2.73304
2.59069
2.29443
2.15537
1.99649
1.85683
1.73384
1.66848
1.56985
1.51704
0.0909061
0.0636058
0.0636538
0.0638456
0.0642806
0.0651521
0.0666656
0.0690585
0.0724466
0.0795738
0.0963932
0.143238
0.310864
1.26024
2.92727
2.45584
2.37052
2.34858
2.23174
2.13651
2.08752
2.06589
2.05742
2.04911
2.07852
0.0909061
0.0636058
0.0636538
0.0638457
0.0642807
0.0651523
0.0666662
0.0690565
0.0724315
0.0794841
0.0959842
0.141589
0.302702
1.20335
2.93658
2.46154
2.37618
2.35165
2.23451
2.13486
2.08397
2.06153
2.05238
2.04296
2.0731
0.0909061
0.0636059
0.0636539
0.0638458
0.0642808
0.065152
0.0666686
0.0690547
0.0724138
0.0793102
0.0951515
0.138233
0.286534
1.08957
2.93892
2.46782
2.37955
2.34925
2.23331
2.12591
2.07126
2.04689
2.03606
2.02422
2.05571
0.0909063
0.0636062
0.0636543
0.0638465
0.064282
0.0651551
0.0666634
0.0690578
0.0724099
0.0790608
0.0939535
0.133651
0.264006
0.928304
2.90539
2.48707
2.38642
2.34255
2.23059
2.11012
2.04926
2.0212
2.00773
1.99223
2.02479
0.0909063
0.063606
0.0636541
0.0638461
0.0642817
0.0651557
0.0666514
0.0690575
0.0723579
0.0787475
0.09265
0.12859
0.239294
0.748438
2.78676
2.54131
2.39964
2.33344
2.22768
2.09216
2.02198
1.98805
1.971
1.95065
1.98493
0.0909066
0.0636062
0.0636542
0.0638457
0.0642769
0.0651365
0.0667053
0.068981
0.0723415
0.0789471
0.0919492
0.123596
0.215895
0.593663
2.5095
2.64781
2.41793
2.32086
2.22187
2.0758
1.99056
1.94727
1.9254
1.89926
1.93595
0.0909062
0.0636058
0.0636537
0.0638458
0.0642789
0.0651176
0.066735
0.068937
0.0723657
0.0790318
0.0913726
0.119665
0.194867
0.468174
2.05417
2.82039
2.43883
2.30431
2.21208
2.05901
1.95711
1.90062
1.87216
1.83723
1.87445
0.0909066
0.0636064
0.0636545
0.0638469
0.0642809
0.0651137
0.0667431
0.0689351
0.0723951
0.0789417
0.0917601
0.116534
0.176251
0.374286
1.4796
3.01087
2.45296
2.28748
2.19741
2.03981
1.92359
1.8495
1.8124
1.76346
1.7935
0.090906
0.0636054
0.0636534
0.0638457
0.0642797
0.0651089
0.0667438
0.0689217
0.0723957
0.0789177
0.0921874
0.112819
0.160837
0.305533
1.00231
3.03668
2.4635
2.2823
2.17847
2.01919
1.89
1.79344
1.7446
1.67542
1.67621
0.0909065
0.0636063
0.0636545
0.0638471
0.0642813
0.0651139
0.0667457
0.0689354
0.0723944
0.0788572
0.0919945
0.111999
0.151106
0.254675
0.665468
2.73297
2.58991
2.29428
2.15533
1.99634
1.85675
1.73383
1.66852
1.56993
1.51721
0.0909068
0.0636071
0.0636551
0.0638474
0.0642811
0.0651199
0.0667377
0.0689563
0.0723782
0.0788813
0.0920454
0.112628
0.143107
0.220266
0.472825
1.82948
2.87364
2.32827
2.12103
1.97108
1.82313
1.67414
1.57309
1.43322
1.17247
0.090907
0.0636074
0.0636555
0.0638477
0.0642811
0.0651235
0.0667348
0.0689662
0.0723898
0.0789656
0.0924008
0.111599
0.140273
0.199651
0.361865
1.08798
2.97112
2.35183
2.08794
1.94706
1.79329
1.624
1.47784
1.30939
1.05213
0.0909071
0.0636073
0.0636553
0.0638473
0.0642802
0.0651237
0.0667325
0.0689651
0.0723927
0.0789007
0.0921687
0.112005
0.140519
0.182884
0.292031
0.692339
2.73332
2.45392
2.0782
1.91152
1.7585
1.58922
1.42144
1.24663
1.05306
0.0909072
0.0636074
0.0636554
0.0638474
0.0642805
0.0651227
0.0667343
0.0689613
0.0723907
0.0788481
0.0918843
0.113085
0.138573
0.177326
0.255755
0.479049
1.61765
2.6727
2.08883
1.84795
1.71819
1.57028
1.40843
1.24699
1.06704
0.0909071
0.0636074
0.0636555
0.0638477
0.0642813
0.065122
0.0667375
0.0689613
0.0723916
0.0788486
0.0917894
0.113624
0.137038
0.182039
0.233183
0.363922
0.873176
2.63612
2.13437
1.77888
1.67341
1.54901
1.41185
1.25685
1.10101
0.0909071
0.0636076
0.0636557
0.063848
0.0642817
0.0651222
0.0667387
0.0689615
0.0723915
0.0788553
0.0918278
0.113571
0.136948
0.184112
0.21709
0.297546
0.570387
2.08446
2.2993
1.75843
1.63021
1.52728
1.42106
1.28726
1.16459
0.0909071
0.0636074
0.0636555
0.0638478
0.0642815
0.0651222
0.0667377
0.0689598
0.0723892
0.0788533
0.0918463
0.113482
0.137238
0.182838
0.215878
0.266536
0.401353
0.974196
2.26026
1.77779
1.59968
1.50442
1.42338
1.32048
1.21863
0.0909072
0.0636076
0.0636557
0.063848
0.0642817
0.0651226
0.0667383
0.0689597
0.0723913
0.0788527
0.0918365
0.113503
0.137263
0.182231
0.218802
0.247192
0.318698
0.576166
1.88135
1.83174
1.59597
1.48993
1.41647
1.33862
1.25943
0.0909072
0.0636077
0.0636558
0.0638481
0.0642819
0.0651227
0.066739
0.0689606
0.0723927
0.0788534
0.0918285
0.113524
0.137163
0.182386
0.218798
0.239549
0.280789
0.393529
0.873974
1.76304
1.60506
1.48282
1.40991
1.3507
1.29142
0.0909073
0.0636078
0.0636559
0.0638482
0.0642819
0.065123
0.0667385
0.0689608
0.0723925
0.0788536
0.0918287
0.113533
0.137165
0.182449
0.218475
0.240976
0.261598
0.314285
0.495452
1.32883
1.56509
1.47796
1.40525
1.35486
1.32082
0.0909074
0.0636077
0.0636558
0.0638479
0.0642813
0.0651229
0.0667365
0.0689608
0.0723917
0.0788479
0.0918126
0.113519
0.13713
0.182392
0.218549
0.240602
0.258292
0.283106
0.348422
0.602892
1.34469
1.43327
1.39345
1.35452
1.3309
0.0909073
0.0636079
0.063656
0.0638483
0.0642821
0.0651229
0.0667398
0.0689636
0.0723946
0.0788572
0.0918356
0.113531
0.137149
0.182388
0.218517
0.240406
0.258297
0.270145
0.29549
0.371503
0.668661
1.24129
1.3329
1.33823
1.32933
0.0909073
0.0636078
0.0636559
0.0638483
0.064282
0.0651227
0.0667395
0.0689632
0.072394
0.0788563
0.0918343
0.113532
0.137157
0.182402
0.218532
0.240407
0.258197
0.27024
0.278546
0.300512
0.372267
0.624085
1.09036
1.24796
1.30118
0.0909073
0.0636077
0.0636558
0.0638479
0.0642813
0.0651229
0.0667366
0.0689614
0.0723919
0.0788496
0.0918178
0.113534
0.137158
0.182436
0.218596
0.240449
0.25824
0.270072
0.277467
0.283174
0.298126
0.347995
0.507882
0.873758
1.16136
0.0909072
0.0636076
0.0636557
0.063848
0.0642817
0.0651227
0.0667383
0.0689616
0.0723927
0.0788554
0.0918352
0.113548
0.137197
0.182458
0.218586
0.240419
0.258206
0.270047
0.277191
0.282255
0.284132
0.291142
0.320683
0.408376
0.633062
0.0909072
0.0636078
0.0636559
0.0638483
0.0642821
0.065123
0.0667396
0.0689632
0.0723946
0.0788582
0.0918398
0.113542
0.13718
0.182419
0.218535
0.240391
0.2582
0.27005
0.277212
0.281941
0.281913
0.282508
0.287828
0.307023
0.359538
0.0909072
0.0636078
0.0636559
0.0638483
0.0642821
0.0651229
0.0667394
0.0689626
0.0723932
0.0788561
0.0918349
0.113534
0.13716
0.182405
0.218541
0.240408
0.258225
0.270079
0.277244
0.281893
0.281664
0.281621
0.283807
0.292246
0.316756
0.0909074
0.0636078
0.063656
0.0638483
0.0642821
0.0651232
0.0667392
0.0689617
0.0723943
0.0788568
0.0918347
0.113543
0.137176
0.182443
0.218604
0.240466
0.258266
0.270113
0.277264
0.281899
0.281656
0.281536
0.283441
0.290809
0.312454
0.0909074
0.0636076
0.0636557
0.0638478
0.0642811
0.0651227
0.066736
0.0689594
0.0723906
0.0788459
0.0918084
0.113523
0.137139
0.18244
0.218634
0.240512
0.258323
0.270155
0.277337
0.28195
0.281686
0.281573
0.283439
0.290691
0.312038
0.0909075
0.0636081
0.0636562
0.0638486
0.0642825
0.0651238
0.0667398
0.0689622
0.0723963
0.0788582
0.0918345
0.113541
0.13717
0.182438
0.218601
0.240464
0.258264
0.27011
0.277261
0.281894
0.281649
0.281522
0.283401
0.29067
0.312086
0.0909071
0.0636076
0.0636557
0.0638481
0.0642819
0.0651224
0.0667392
0.068962
0.0723929
0.0788558
0.0918357
0.113539
0.13717
0.182413
0.218535
0.240389
0.258201
0.270051
0.277217
0.28186
0.281617
0.281496
0.283381
0.290664
0.312115
0.0909075
0.0636083
0.0636564
0.0638489
0.0642829
0.0651243
0.0667405
0.068964
0.072397
0.0788616
0.0918446
0.113546
0.137183
0.182405
0.218536
0.240385
0.258179
0.270029
0.277183
0.281835
0.281594
0.281475
0.283363
0.290655
0.312134
0.0909071
0.0636076
0.0636557
0.0638481
0.0642819
0.0651225
0.0667391
0.068962
0.0723928
0.0788555
0.0918349
0.113536
0.137167
0.182403
0.21852
0.240373
0.258185
0.270034
0.277202
0.281848
0.281605
0.281485
0.283372
0.290659
0.312121
0.0909076
0.0636082
0.0636564
0.0638488
0.0642827
0.0651242
0.0667405
0.0689632
0.0723982
0.078861
0.0918395
0.113544
0.137171
0.182426
0.218579
0.240438
0.258232
0.270075
0.277224
0.281862
0.281618
0.281493
0.283376
0.290652
0.312093
0.0909074
0.0636076
0.0636556
0.0638477
0.064281
0.0651225
0.0667358
0.0689585
0.0723896
0.0788443
0.0918055
0.113518
0.137131
0.182427
0.218622
0.240503
0.258318
0.270151
0.277332
0.281943
0.281677
0.281563
0.283427
0.290671
0.312007
0.0909076
0.0636082
0.0636563
0.0638488
0.0642827
0.0651241
0.0667403
0.068963
0.0723976
0.07886
0.0918373
0.113541
0.137165
0.182423
0.218582
0.240445
0.258246
0.270093
0.277241
0.281875
0.28163
0.281504
0.283385
0.290658
0.312089
0.0909071
0.0636076
0.0636557
0.063848
0.0642818
0.0651224
0.0667389
0.0689616
0.0723919
0.0788545
0.0918333
0.113532
0.137158
0.182401
0.21853
0.24039
0.258206
0.270058
0.277225
0.281868
0.281623
0.281502
0.283385
0.290665
0.312109
0.0909075
0.0636081
0.0636562
0.0638487
0.0642825
0.0651237
0.0667398
0.0689626
0.0723951
0.0788582
0.0918379
0.113542
0.137176
0.182413
0.218558
0.240411
0.258207
0.270058
0.277212
0.281858
0.281615
0.281493
0.283378
0.290661
0.312117
0.0909071
0.0636075
0.0636556
0.0638479
0.0642816
0.0651223
0.0667386
0.0689614
0.0723919
0.0788541
0.0918326
0.113535
0.137166
0.182414
0.218533
0.240387
0.258198
0.270049
0.277217
0.281862
0.281618
0.281498
0.283384
0.290667
0.312111
0.0909074
0.0636078
0.0636559
0.0638483
0.064282
0.0651233
0.0667388
0.0689618
0.0723933
0.0788552
0.0918325
0.113541
0.137178
0.182442
0.218594
0.240448
0.258244
0.270087
0.27724
0.281879
0.281637
0.281513
0.283396
0.290671
0.312088
0.0909072
0.0636074
0.0636555
0.0638475
0.0642808
0.0651223