/*--------------------------------*- C++ -*----------------------------------*\
| =========                 |                                                 |
| \\      /  F ield         | OpenFOAM: The Open Source CFD Toolbox           |
|  \\    /   O peration     | Version:  4.1                                   |
|   \\  /    A nd           | Web:      www.OpenFOAM.org                      |
|    \\/     M anipulation  |                                                 |
\*---------------------------------------------------------------------------*/
FoamFile
{
    version     2.0;
    format      ascii;
    class       surfaceScalarField;
    location    "0.32";
    object      phi;
}
// * * * * * * * * * * * * * * * * * * * * * * * * * * * * * * * * * * * * * //

dimensions      [1 0 -1 0 0 0 0];

internalField   nonuniform List<scalar> 
150500
(
0.00202811
-5.18292e-10
-3.15174e-12
0.00203233
-8.75996e-10
-2.58109e-12
0.00203693
-1.54081e-09
-2.83498e-12
0.00204219
-2.52225e-09
-3.68353e-12
0.00204515
-3.94173e-09
-4.80295e-12
0.00205464
-6.12213e-09
-8.11247e-12
0.00206326
-7.66568e-09
4.41794e-12
0.00206407
-6.70093e-09
-3.86818e-12
0.00208506
-2.53771e-08
-6.04503e-13
0.00210854
-1.21758e-08
-1.34912e-12
0.00202869
5.58777e-07
-1.34345e-11
0.00194565
3.95539e-06
-8.27721e-11
0.00137655
2.54921e-05
-5.5172e-10
-0.00335215
0.000302744
-4.44583e-09
-0.00450264
0.000942815
-9.12798e-10
-0.00407338
0.000609099
7.84489e-10
-0.00397653
0.000541557
1.02596e-09
-0.00405684
0.000581164
1.08044e-09
-0.00378202
0.000582314
1.19898e-09
-0.00332761
0.000571566
9.28742e-10
-0.0027631
0.000555715
7.87616e-10
-0.00213993
0.000549639
7.47011e-10
-0.00145216
0.000548297
6.93683e-10
-0.000777314
0.000564543
7.22365e-10
0.000608149
8.78218e-10
0.00202811
-6.09465e-10
-1.67132e-12
0.00203233
-1.14045e-09
-1.31191e-12
0.00203693
-2.14629e-09
-1.43891e-12
0.00204219
-3.6307e-09
-1.89483e-12
0.00204515
-5.70914e-09
-2.59364e-12
0.00205465
-8.94883e-09
-4.67517e-12
0.00206321
-1.11949e-08
3.33743e-12
0.00206383
-1.13731e-08
-1.53768e-12
0.0020864
-3.24539e-08
-2.29775e-13
0.00211242
9.90997e-08
1.75886e-13
0.00203637
1.14726e-06
-4.65017e-12
0.00195832
7.54249e-06
-4.09222e-11
0.00141228
4.71785e-05
-3.14045e-10
-0.00304888
0.000525618
-2.58748e-09
-0.00454425
0.00186918
-1.06197e-09
-0.00405682
0.00125899
2.25763e-09
-0.00393147
0.00108761
1.40065e-09
-0.00401666
0.00115514
9.45589e-10
-0.00374493
0.00116025
1.14076e-09
-0.00329084
0.00114189
8.92152e-10
-0.00273261
0.00111552
7.68595e-10
-0.00211622
0.00110456
7.37099e-10
-0.00143715
0.00110243
6.87044e-10
-0.000769234
0.00113243
7.09656e-10
0.00122115
8.84152e-10
0.00202811
-7.43998e-10
-1.58344e-12
0.00203233
-1.41831e-09
-1.71215e-12
0.00203693
-2.75492e-09
-2.04442e-12
0.00204219
-4.76359e-09
-3.19603e-12
0.00204516
-7.98226e-09
-3.77038e-12
0.00205467
-1.45722e-08
-5.52666e-12
0.0020632
-3.60073e-09
-4.80499e-12
0.00206353
-2.28357e-08
-7.88969e-12
0.00208893
6.34646e-10
-1.65265e-11
0.0021193
3.80301e-07
-3.37769e-11
0.00205114
1.43193e-06
-7.79117e-11
0.00198491
9.34242e-06
-2.93536e-10
0.00148068
6.07507e-05
-1.76076e-09
-0.00247268
0.000649744
-1.64083e-08
-0.00474012
0.00280954
7.23245e-09
-0.00403386
0.00190923
3.19276e-09
-0.00384281
0.00163871
2.02214e-09
-0.00393729
0.00172769
1.14017e-09
-0.0036756
0.00174024
1.10427e-09
-0.00322391
0.00171329
8.07518e-10
-0.00267613
0.00168113
7.11795e-10
-0.00206929
0.00166597
7.00421e-10
-0.00140249
0.00166262
6.73695e-10
-0.000751031
0.00170879
6.95217e-10
0.00184642
9.29461e-10
0.00202811
-4.11475e-10
1.4172e-13
0.00203233
-1.03794e-09
9.4109e-13
0.00203692
-2.02629e-09
1.1112e-12
0.00204218
-3.44556e-09
1.60749e-12
0.00204512
-5.28084e-09
2.51007e-12
0.00205456
-5.96004e-09
4.9842e-12
0.00206326
-1.77463e-08
-2.94785e-12
0.00206329
1.35996e-08
4.78038e-12
0.00209023
8.26586e-09
7.03766e-12
0.00212443
4.04793e-07
1.14266e-12
0.00207206
8.30583e-07
-1.98545e-11
0.00203099
8.99787e-06
-1.14908e-10
0.00160884
6.31127e-05
-7.48056e-10
-0.00165148
0.000617346
-7.00271e-09
-0.00514473
0.00363543
2.08439e-10
-0.00399344
0.00265053
6.32973e-09
-0.00370962
0.00220194
2.32609e-09
-0.0038142
0.00229048
1.03446e-09
-0.00357203
0.00232049
9.7277e-10
-0.00312845
0.00228564
6.75878e-10
-0.00259396
0.00225228
6.12783e-10
-0.00199879
0.00223441
6.32461e-10
-0.00134731
0.00222763
6.52699e-10
-0.000718693
0.00229306
6.63496e-10
0.00248729
9.73475e-10
0.00202811
-7.70343e-10
-7.59327e-13
0.00203233
-1.28693e-09
-2.4492e-13
0.00203693
-1.9508e-09
-3.30915e-13
0.00204218
-2.53513e-09
-6.78477e-13
0.00204512
-3.82021e-10
-1.94107e-13
0.0020545
1.97857e-08
1.16498e-12
0.00206353
-9.19702e-08
-8.27206e-12
0.00206282
1.28749e-07
-5.92309e-13
0.00208931
-1.02085e-07
5.37949e-12
0.00213054
-4.087e-07
-1.18446e-11
0.00210403
-5.23403e-07
-6.08527e-11
0.00208747
8.27325e-06
-2.5532e-10
0.00179657
5.96963e-05
-1.22974e-09
-0.00081071
0.000497434
-1.27258e-08
-0.00556377
0.00409947
3.30919e-09
-0.0039347
0.00356941
5.01833e-09
-0.00355197
0.00278606
1.65097e-09
-0.00365577
0.00284431
1.06228e-09
-0.00343854
0.00290985
6.54237e-10
-0.00300629
0.00285239
4.69072e-10
-0.00248235
0.00282847
4.5115e-10
-0.00190177
0.00280981
5.54251e-10
-0.00127138
0.00279786
6.08934e-10
-0.000673304
0.00288402
6.1361e-10
0.00314202
1.00512e-09
0.00202811
-4.74269e-10
1.03954e-12
0.00203233
-7.7837e-10
3.6436e-12
0.00203695
-1.71593e-09
4.23155e-12
0.00204221
-3.30323e-09
6.05181e-12
0.00204542
-6.02198e-09
7.77998e-12
0.00205511
1.92985e-08
1.00711e-11
0.00206333
-6.23922e-08
2.25368e-11
0.00206143
9.15056e-08
2.30429e-11
0.00209233
-1.01812e-07
3.07248e-11
0.00214764
-3.52968e-07
6.57794e-11
0.00213682
-1.32912e-06
7.13169e-11
0.00213781
6.89985e-06
6.37917e-11
0.00195258
5.24791e-05
-1.10234e-10
-3.16894e-05
0.000377309
-1.52627e-09
-0.00569715
0.003998
-8.99924e-09
-0.00385918
0.00471452
-2.93093e-09
-0.00337769
0.00339391
4.54357e-10
-0.00345468
0.00336624
4.8404e-10
-0.00326051
0.00350397
4.40957e-10
-0.00285369
0.00343173
1.63285e-10
-0.00233707
0.00340146
2.65133e-10
-0.00177781
0.00338872
4.39014e-10
-0.00117324
0.00337521
5.42132e-10
-0.000612173
0.00348185
5.48573e-10
0.00382709
1.03187e-09
0.00202811
-3.80957e-10
-3.74885e-13
0.00203233
-7.70916e-10
1.67251e-12
0.00203695
-1.70127e-09
2.18758e-12
0.00204215
-2.96129e-09
3.90831e-12
0.00204532
-4.7749e-09
6.44483e-12
0.00205532
3.70938e-09
3.94e-12
0.00206328
-2.37441e-08
2.0361e-11
0.00206069
1.73555e-08
7.18604e-12
0.00209332
-3.67181e-08
1.57445e-11
0.00214702
-1.00352e-07
7.88236e-11
0.00217755
-1.79797e-06
9.73998e-11
0.002214
5.56355e-06
1.37009e-10
0.00207845
4.10279e-05
2.49826e-10
0.000787247
0.00026898
1.42414e-09
-0.00542439
0.00323535
8.42787e-09
-0.00372708
0.00621665
-3.79384e-09
-0.0032073
0.00401682
1.12922e-09
-0.00321888
0.00385514
-3.05881e-10
-0.00304819
0.00408342
-4.7087e-10
-0.00266269
0.0040195
-9.53678e-11
-0.00215418
0.00396435
4.93197e-11
-0.00161641
0.00396216
2.97243e-10
-0.00104267
0.00395207
4.68821e-10
-0.000528481
0.00408988
5.00522e-10
0.00456294
1.04967e-09
0.00202811
-1.1248e-10
1.77626e-12
0.00203233
-5.43259e-10
4.0396e-12
0.00203695
-1.20537e-09
4.56708e-12
0.00204214
-2.73742e-09
6.08647e-12
0.00204526
-5.54626e-09
7.64633e-12
0.00205528
-3.82532e-09
1.23298e-11
0.00206342
-2.44115e-08
1.8231e-11
0.00206044
-8.38609e-09
-1.13241e-12
0.00209196
-4.22587e-08
4.55986e-11
0.00215308
-8.56343e-08
5.58322e-11
0.00222594
-6.54816e-07
7.00588e-11
0.00224487
3.41565e-06
1.18473e-10
0.00216742
2.51264e-05
2.47098e-10
0.00142286
0.000182248
8.20084e-10
-0.00325295
0.00210002
2.92264e-09
-0.00357579
0.00786855
1.40363e-09
-0.00306044
0.00464952
-8.81853e-10
-0.00293171
0.0043096
-9.29977e-10
-0.00279904
0.00462622
-6.48137e-10
-0.00243036
0.00459989
-2.58609e-10
-0.00193026
0.00452467
-1.20566e-10
-0.00140779
0.00453365
1.68782e-10
-0.000868818
0.00453828
3.86483e-10
-0.000403219
0.00470065
4.65546e-10
0.00539502
1.04103e-09
0.00202811
-3.77316e-10
9.04959e-13
0.00203232
-1.18801e-09
3.14473e-12
0.00203696
-2.09961e-09
3.79995e-12
0.00204213
-3.29399e-09
5.88881e-12
0.00204526
-4.9262e-09
8.24365e-12
0.00205543
-1.29985e-08
8.64471e-12
0.00206332
-5.96131e-09
2.45046e-11
0.00206045
-3.6125e-08
-2.21281e-12
0.0020922
-6.04829e-09
3.44952e-11
0.00215231
1.40673e-08
7.23249e-11
0.00219798
2.50213e-07
1.50844e-10
0.0022731
1.67735e-07
1.7035e-10
0.00229443
1.36506e-05
1.78227e-10
0.00181025
0.000121185
2.46687e-10
-0.00154766
0.00115921
1.60109e-09
-0.0038214
0.00911935
2.99966e-10
-0.0029006
0.00544598
-2.39643e-09
-0.0025937
0.00475645
-1.25931e-09
-0.00250536
0.00511758
-1.04803e-09
-0.00215947
0.00517062
-4.94572e-10
-0.00167267
0.00508061
-2.46197e-10
-0.00114634
0.00509127
5.03281e-11
-0.000636147
0.00514197
2.9864e-10
-0.000194568
0.00529472
4.24877e-10
0.00639692
9.47633e-10
0.00202811
2.35391e-12
-5.95818e-10
0.00203232
5.66784e-12
-1.60478e-09
0.00203696
6.57395e-12
-2.56327e-09
0.00204214
9.35447e-12
-3.23879e-09
0.00204528
1.26867e-11
-4.01221e-09
0.00205544
1.5428e-11
-1.36848e-08
0.00206331
3.57212e-11
6.2898e-09
0.00206053
1.1632e-11
-4.33283e-08
0.00209174
5.79724e-11
1.80195e-08
0.00215399
1.09997e-10
-1.60533e-08
0.00219259
1.99936e-10
-7.49786e-08
0.00235894
1.53824e-10
4.04604e-08
0.00240616
2.12226e-10
7.98714e-06
0.00215769
4.54722e-10
7.51313e-05
0.000168522
2.18354e-09
0.000597531
-0.00415875
2.06017e-09
0.00666862
-0.00271996
-5.68525e-09
0.00758483
-0.00222665
-1.84453e-09
0.00533028
-0.00216621
-8.42421e-10
0.0055244
-0.0018536
-7.58796e-10
0.00570578
-0.00137099
-3.2924e-10
0.00563266
-0.000813315
-5.85368e-11
0.00560108
-0.000340658
1.99395e-10
0.00576709
9.55804e-05
3.66529e-10
0.00583761
7.89246e-10
0.00761454
0.00202811
7.62545e-10
2.6991e-12
0.00203233
1.01365e-09
3.66749e-12
0.00203693
1.71358e-09
4.07703e-12
0.00204218
2.64614e-09
5.31625e-12
0.00204512
3.61738e-09
7.1517e-12
0.0020546
4.57338e-09
1.18745e-11
0.00206315
3.39879e-09
1.08376e-12
0.002064
1.07565e-08
1.4566e-11
0.00208498
-3.36159e-09
1.62428e-11
0.00210846
5.1269e-09
2.06154e-11
0.00202871
5.52127e-07
2.25117e-11
0.00194556
3.88202e-06
1.20448e-11
0.00137602
2.5256e-05
-9.61838e-11
-0.00335607
0.000302301
-1.83473e-09
-0.00450037
0.000942002
4.85323e-09
-0.00407165
0.000610539
-6.0501e-10
-0.00397611
0.000542311
-8.5552e-10
-0.00405672
0.000581263
-6.43011e-10
-0.003782
0.000582329
-7.04479e-10
-0.00332779
0.000571546
-3.69896e-10
-0.00276334
0.000555692
-1.92285e-10
-0.00214018
0.00054962
-1.06736e-10
-0.00145236
0.000548281
-3.69682e-11
-0.00077735
0.000564457
-6.26259e-12
0.000608206
2.43016e-11
0.00202811
2.35655e-10
1.03635e-12
0.00203233
3.91506e-10
2.13549e-12
0.00203693
7.94634e-10
2.40324e-12
0.00204219
1.2233e-09
3.21835e-12
0.00204515
1.68283e-09
4.48426e-12
0.00205465
1.67714e-09
7.59782e-12
0.00206318
2.03782e-09
1.97785e-12
0.00206384
5.87107e-09
1.0333e-11
0.00208644
-6.39191e-09
1.40485e-11
0.00211248
1.16972e-07
1.88589e-11
0.00203644
1.11584e-06
2.26859e-11
0.00195831
7.36372e-06
1.17269e-11
0.00141238
4.63404e-05
-1.82671e-10
-0.00304764
0.000519102
-2.75244e-09
-0.00453662
0.00186906
2.45399e-09
-0.00405481
0.00126581
-1.10755e-09
-0.0039311
0.0010897
-8.94157e-10
-0.00401659
0.00115551
-6.41524e-10
-0.003745
0.00116021
-6.91314e-10
-0.0032911
0.00114181
-3.5484e-10
-0.0027329
0.00111546
-1.87808e-10
-0.00211653
0.00110453
-1.03952e-10
-0.00143738
0.00110234
-3.20104e-11
-0.000769205
0.00113215
-6.91098e-13
0.00122128
2.93658e-11
0.00202811
6.16982e-10
1.98064e-12
0.00203232
1.1131e-09
4.24188e-12
0.00203693
1.86805e-09
4.93066e-12
0.00204218
2.96565e-09
7.10067e-12
0.00204516
3.94431e-09
9.10842e-12
0.00205469
4.22929e-09
1.41068e-11
0.00206311
1.79305e-08
1.47214e-11
0.00206343
1.35414e-08
2.80434e-11
0.00208888
5.33954e-08
4.49393e-11
0.00211917
4.70193e-07
7.3149e-11
0.00205053
1.54492e-06
1.25339e-10
0.00198343
9.52688e-06
3.3746e-10
0.00147604
6.12269e-05
1.60445e-09
-0.00249301
0.00065482
1.39943e-08
-0.0047437
0.00280038
-8.27603e-09
-0.00403689
0.00190683
-2.2978e-09
-0.00384455
0.00163791
-1.49213e-09
-0.00393786
0.00172692
-9.19829e-10
-0.00367586
0.00173977
-6.27071e-10
-0.00322416
0.001713
-2.99877e-10
-0.00267634
0.00168097
-1.63492e-10
-0.00206946
0.0016659
-8.79762e-11
-0.00140257
0.0016625
-1.93464e-11
-0.000750981
0.00170848
1.18556e-11
0.00184653
4.12177e-11
0.00202811
-5.87893e-11
-2.95677e-13
0.00203233
5.18157e-11
3.15051e-13
0.00203693
2.53592e-10
3.36981e-13
0.00204219
5.21675e-10
3.65075e-13
0.00204515
1.65657e-09
4.1373e-13
0.0020546
5.41363e-09
5.48731e-14
0.00206332
-4.73379e-09
9.32817e-12
0.00206335
3.42878e-08
4.30936e-12
0.00209028
6.58647e-08
6.87106e-12
0.00212445
5.10557e-07
2.05023e-11
0.00207192
9.78085e-07
4.70362e-11
0.00203056
9.16205e-06
1.45761e-10
0.00160729
6.33204e-05
6.87705e-10
-0.00165653
0.000617558
5.4016e-09
-0.00513276
0.00363521
-1.11185e-09
-0.00399575
0.00265233
-5.34707e-09
-0.00371132
0.00220028
-1.51799e-09
-0.00381495
0.0022892
-7.33978e-10
-0.00357238
0.0023195
-4.64795e-10
-0.00312871
0.00228514
-2.11842e-10
-0.00259414
0.00225204
-1.05759e-10
-0.00199891
0.00223431
-4.06636e-11
-0.00134733
0.00222756
6.14059e-12
-0.0007186
0.00229284
3.25762e-11
0.00248716
5.98059e-11
0.00202811
3.67105e-10
2.29686e-12
0.00203232
1.05588e-09
4.33106e-12
0.00203692
1.79771e-09
4.96637e-12
0.00204217
3.41677e-09
6.90745e-12
0.00204513
9.66867e-09
7.93291e-12
0.00205454
3.61237e-08
9.28162e-12
0.00206348
-5.98748e-08
2.84512e-11
0.00206272
1.71536e-07
1.72705e-11
0.00208922
-1.88907e-08
1.18044e-11
0.00213016
-2.07713e-07
6.70831e-11
0.00210307
-1.97257e-07
1.52959e-10
0.00208593
8.90145e-06
3.53063e-10
0.00179159
6.11616e-05
1.175e-09
-0.000845901
0.000505462
1.01647e-08
-0.00556988
0.00411417
-3.44604e-09
-0.00394056
0.00355257
-2.9559e-09
-0.00355407
0.00277928
-2.48044e-10
-0.00365642
0.00284202
-3.78816e-10
-0.00343894
0.00290862
-1.4057e-10
-0.00300648
0.00285169
-7.57654e-11
-0.00248247
0.00282813
-4.18793e-12
-0.00190185
0.00280968
2.56014e-11
-0.00127137
0.00279782
4.50968e-11
-0.000673147
0.00288386
6.1274e-11
0.00314169
8.47254e-11
0.00202811
-9.2825e-11
-3.38991e-13
0.00203233
2.03185e-10
-1.51393e-12
0.00203694
4.73981e-10
-1.86185e-12
0.00204221
8.28584e-10
-2.98726e-12
0.00204538
1.81341e-09
-3.84187e-12
0.00205503
2.91529e-08
-5.05498e-12
0.00206336
-4.65816e-08
-1.05311e-11
0.00206152
1.07903e-07
-2.31009e-11
0.00209229
-5.80776e-08
-5.58658e-12
0.00214787
-2.69074e-07
-1.95898e-11
0.00213715
-1.21336e-06
-2.91871e-11
0.00213807
7.07945e-06
-5.60115e-11
0.00195373
5.29193e-05
-5.62012e-11
-2.82261e-05
0.000378816
-2.2006e-10
-0.00568612
0.00400337
4.58193e-09
-0.00385544
0.00471129
3.84228e-09
-0.00337675
0.00338952
-3.44752e-10
-0.0034545
0.00336424
-1.87461e-10
-0.00326044
0.0035028
1.93706e-10
-0.00285365
0.00343117
1.71646e-10
-0.00233714
0.00340115
1.39704e-10
-0.00177783
0.00338859
9.56276e-11
-0.00117319
0.00337518
8.67943e-11
-0.000611966
0.00348177
9.27252e-11
0.00382659
1.12647e-10
0.00202811
6.06354e-10
2.45012e-12
0.00203233
1.09724e-09
3.4283e-12
0.00203694
1.78186e-09
3.71786e-12
0.00204215
2.61468e-09
4.43842e-12
0.0020453
3.13448e-09
5.27546e-12
0.00205522
1.67286e-08
7.90121e-12
0.00206333
-1.17294e-08
6.47795e-12
0.00206076
3.07983e-08
4.53898e-12
0.00209312
-9.27807e-09
2.7565e-11
0.00214705
-8.0123e-08
2.87426e-11
0.00217791
-1.80654e-06
3.34855e-11
0.00221448
5.50146e-06
2.60061e-11
0.00207971
4.09062e-05
-1.1216e-10
0.000795541
0.000268684
-1.26576e-09
-0.00540602
0.00323043
-7.76611e-09
-0.00372056
0.00621881
5.99923e-09
-0.00320592
0.00401773
-6.30793e-10
-0.00321793
0.00385412
8.74919e-11
-0.00304773
0.00408274
5.72034e-10
-0.00266245
0.00401906
3.47413e-10
-0.00215414
0.00396412
2.36864e-10
-0.00161639
0.00396206
1.4809e-10
-0.0010426
0.00395204
1.11164e-10
-0.000528257
0.00408988
1.23613e-10
0.00456226
1.40741e-10
0.00202811
5.23361e-10
-1.41075e-12
0.00203233
6.97515e-10
-1.60374e-12
0.00203694
1.20087e-09
-1.72134e-12
0.00204214
1.62839e-09
-1.97902e-12
0.00204527
1.71655e-09
-1.82787e-12
0.00205526
6.35806e-09
-5.83713e-12
0.00206356
-3.70714e-09
-2.57903e-12
0.00206047
1.75763e-08
-1.02468e-12
0.00209172
8.20919e-09
-1.67247e-11
0.0021526
-9.7723e-10
-1.18977e-11
0.00222532
-5.15996e-07
4.34173e-12
0.00224398
3.65368e-06
-3.08081e-11
0.00216606
2.53847e-05
-1.26639e-10
0.00142119
0.000182609
-5.69057e-10
-0.0032587
0.00210039
-3.4999e-09
-0.00357629
0.0078677
2.0171e-09
-0.00305989
0.00464904
-3.9203e-10
-0.00293061
0.00430805
1.76456e-10
-0.00279839
0.0046257
6.4452e-10
-0.00243002
0.00459966
3.63539e-10
-0.00193014
0.00452461
2.70428e-10
-0.00140772
0.00453359
2.44008e-10
-0.000868723
0.00453822
1.36475e-10
-0.000402997
0.00470076
1.27118e-10
0.00539417
1.63187e-10
0.00202811
3.47009e-10
1.26308e-12
0.00203233
2.89004e-10
2.98097e-12
0.00203695
3.37687e-10
3.13508e-12
0.00204213
3.58507e-10
3.14726e-12
0.00204525
2.27554e-10
4.35727e-12
0.00205534
-3.79515e-09
4.05877e-12
0.00206346
6.16828e-09
9.22177e-12
0.00206055
-1.58913e-08
2.49708e-11
0.002092
2.6722e-08
1.43425e-11
0.00215207
8.04495e-08
4.23935e-11
0.00219811
3.71874e-07
1.22181e-10
0.00227335
3.83705e-07
7.45816e-11
0.00229483
1.38137e-05
1.27622e-11
0.00181123
0.000121324
-2.56193e-10
-0.00154304
0.00115892
-1.89535e-09
-0.00382376
0.00912332
4.00685e-10
-0.00289954
0.00544424
-4.29095e-10
-0.00259263
0.00475468
1.73883e-10
-0.00250463
0.00511717
4.33963e-10
-0.00215909
0.00517049
3.05195e-10
-0.00167248
0.00508072
3.00437e-10
-0.00114623
0.00509125
2.92844e-10
-0.000636034
0.00514183
2.40969e-10
-0.000194402
0.00529498
1.4257e-10
0.00639585
1.75476e-10
0.00202811
-1.7055e-12
-4.26704e-10
0.00203233
-1.66376e-12
-8.32922e-10
0.00203695
-1.78529e-12
-1.0369e-09
0.00204214
-2.03698e-12
-9.87503e-10
0.00204526
-1.65348e-12
-6.50089e-10
0.00205532
-6.8443e-12
-8.60261e-09
0.00206344
-1.57745e-12
1.0305e-08
0.00206063
5.06929e-12
-3.14315e-08
0.00209148
-1.45344e-11
2.38106e-08
0.00215356
-1.80052e-12
-7.31277e-09
0.00219278
3.21446e-11
-6.04613e-08
0.00235933
6.23632e-12
6.08147e-08
0.00240662
-3.15432e-11
7.97823e-06
0.002159
-1.22423e-10
7.49289e-05
0.000172986
-3.67305e-10
0.000596623
-0.00415493
-1.78167e-09
0.00666292
-0.00271752
-9.38997e-10
0.00759186
-0.00222494
5.95273e-11
0.00533009
-0.00216523
2.98894e-10
0.00552403
-0.00185308
2.70717e-10
0.00570595
-0.00137071
3.22249e-10
0.00563284
-0.000813178
3.17638e-10
0.00560113
-0.000340556
2.86187e-10
0.00576693
9.56553e-05
1.63039e-10
0.00583794
1.68874e-10
0.00761327
0.00202811
-2.40803e-10
4.82315e-13
0.00203233
-3.44163e-10
9.86561e-13
0.00203693
-5.45179e-10
1.06249e-12
0.00204219
-8.85556e-10
1.25454e-12
0.00204514
-1.4391e-09
1.57645e-12
0.00205462
-2.31802e-09
2.24531e-12
0.00206322
-2.79372e-09
6.69798e-12
0.00206405
6.89277e-10
6.97528e-12
0.00208498
-1.33933e-08
1.25727e-11
0.00210835
7.87833e-09
1.74523e-11
0.00202845
5.921e-07
2.28376e-11
0.00194516
4.01601e-06
3.10058e-11
0.00137513
2.5682e-05
1.8458e-11
-0.00336136
0.000304365
-2.02316e-10
-0.0045032
0.00094349
3.82201e-10
-0.00407358
0.000607921
6.58034e-11
-0.00397678
0.000540921
-6.39688e-11
-0.00405671
0.000580792
-8.64402e-11
-0.00378188
0.000582128
-6.03099e-11
-0.00332765
0.000571464
6.58195e-11
-0.00276323
0.000555659
1.61764e-10
-0.00214009
0.000549607
2.1617e-10
-0.00145229
0.000548274
2.48775e-10
-0.000777312
0.000564454
2.51881e-10
0.000608199
2.50874e-10
0.00202811
-1.22481e-10
1.21655e-12
0.00203233
-1.6503e-10
2.12879e-12
0.00203693
-3.68499e-10
2.30179e-12
0.00204219
-7.38088e-10
2.75468e-12
0.00204514
-1.34337e-09
3.46727e-12
0.00205463
-2.44409e-09
4.84591e-12
0.00206319
-1.64595e-09
7.64411e-12
0.00206382
5.96053e-10
1.24577e-11
0.00208635
-8.82785e-09
1.61857e-11
0.00211229
1.34524e-07
2.18942e-11
0.00203615
1.19895e-06
2.98921e-11
0.00195783
7.60946e-06
4.70408e-11
0.00141129
4.72949e-05
6.68799e-11
-0.00305248
0.000526532
-1.84844e-11
-0.00454125
0.00187048
4.79007e-11
-0.00405633
0.00125865
1.63967e-10
-0.00393119
0.00108692
-5.14169e-11
-0.00401635
0.00115486
-1.21446e-10
-0.00374478
0.00116006
-9.06182e-11
-0.00329092
0.00114175
4.65639e-11
-0.00273278
0.00111545
1.3985e-10
-0.00211644
0.00110452
2.01734e-10
-0.00143731
0.00110233
2.39061e-10
-0.000769167
0.00113215
2.43653e-10
0.00122127
2.45158e-10
0.00202811
-7.73239e-11
4.75049e-13
0.00203233
-2.44453e-10
6.6243e-13
0.00203693
-5.28492e-10
7.60928e-13
0.00204219
-1.05694e-09
1.09374e-12
0.00204515
-2.14914e-09
1.52647e-12
0.00205465
-5.45445e-09
2.38266e-12
0.00206318
8.59638e-09
6.08227e-13
0.00206351
-4.07341e-09
3.49932e-12
0.00208886
2.50838e-08
4.88547e-12
0.00211914
4.16114e-07
7.56764e-12
0.00205091
1.4891e-06
1.26596e-11
0.00198444
9.41075e-06
2.00816e-11
0.00147957
6.08712e-05
-1.32686e-11
-0.00247646
0.000650963
-7.41613e-10
-0.00473852
0.00280934
2.93814e-11
-0.00403308
0.00190881
4.69996e-10
-0.00384257
0.00163809
-3.95759e-11
-0.00393707
0.00172741
-1.82864e-10
-0.00367547
0.00173998
-1.13049e-10
-0.00322394
0.0017131
1.23461e-11
-0.0026762
0.00168103
9.67479e-11
-0.00206936
0.00166592
1.72207e-10
-0.0014025
0.00166251
2.19102e-10
-0.000750943
0.00170848
2.27933e-10
0.00184651
2.21546e-10
0.00202811
3.06764e-10
1.51642e-12
0.00203233
3.50649e-10
2.24642e-12
0.00203692
5.7285e-10
2.51548e-12
0.00204217
9.47408e-10
3.34598e-12
0.00204511
1.71623e-09
4.73316e-12
0.00205455
4.19805e-09
8.40879e-12
0.00206324
-7.2895e-09
-9.89299e-13
0.00206329
2.71062e-08
9.18774e-12
0.00209021
4.45747e-08
1.60886e-11
0.00212435
4.62031e-07
2.12817e-11
0.00207188
8.99202e-07
2.85063e-11
0.00203063
9.06008e-06
2.18762e-11
0.00160822
6.31202e-05
-1.16311e-10
-0.00165279
0.000617225
-2.44251e-09
-0.00514137
0.00363507
1.18612e-09
-0.0039922
0.00265235
9.18432e-10
-0.00370934
0.00220222
-1.72754e-10
-0.00381404
0.00229029
-2.50101e-10
-0.00357193
0.0023202
-1.72989e-10
-0.00312847
0.00228545
-4.84955e-11
-0.002594
0.00225219
4.74835e-11
-0.00199881
0.00223438
1.28104e-10
-0.00134727
0.00222758
1.88842e-10
-0.000718564
0.00229284
2.09207e-10
0.00248714
1.94579e-10
0.00202811
-1.48969e-10
1.73156e-13
0.00203233
-2.21924e-10
4.45932e-13
0.00203693
-4.07464e-11
5.24241e-13
0.00204218
4.02191e-10
7.78681e-13
0.00204511
4.8411e-09
1.06165e-12
0.00205447
2.73929e-08
1.52146e-12
0.00206358
-7.81607e-08
2.31202e-12
0.00206287
1.45879e-07
1.96736e-12
0.00208913
-6.07617e-08
1.69005e-12
0.00213006
-3.25769e-07
7.30064e-12
0.00210337
-4.40485e-07
1.23473e-11
0.00208686
8.41249e-06
-8.34581e-12
0.00179504
6.00055e-05
-1.88631e-10
-0.000819599
0.000498924
-2.89523e-09
-0.00556443
0.00410024
1.91137e-09
-0.00393456
0.00356718
-8.25276e-10
-0.00355216
0.00278532
-9.53892e-10
-0.00365574
0.0028438
-3.69846e-10
-0.00343855
0.00290962
-5.57402e-10
-0.00300631
0.00285216
-2.00058e-10
-0.00248237
0.00282835
-1.77399e-11
-0.00190178
0.00280977
7.86313e-11
-0.00127132
0.00279786
1.59672e-10
-0.000673118
0.00288387
1.89885e-10
0.00314167
1.77931e-10
0.00202811
-1.46469e-10
1.28797e-12
0.00203232
1.89369e-11
3.53309e-12
0.00203694
-2.35394e-10
4.17489e-12
0.0020422
-4.75241e-10
6.19922e-12
0.00204541
-4.27397e-10
7.95597e-12
0.00205508
2.85781e-08
1.03666e-11
0.00206334
-4.56719e-08
2.30525e-11
0.00206143
1.10932e-07
2.36881e-11
0.00209222
-5.99331e-08
2.61075e-11
0.00214747
-2.7525e-07
7.32748e-11
0.00213652
-1.18808e-06
1.13978e-10
0.00213734
7.13567e-06
2.29428e-10
0.00195165
5.29849e-05
5.77689e-10
-3.47404e-05
0.000379204
3.05221e-09
-0.00569912
0.00400612
4.32777e-09
-0.00385975
0.00470868
-3.9842e-09
-0.00337733
0.00339198
3.78145e-10
-0.00345468
0.00336553
-2.65453e-10
-0.00326047
0.0035035
-7.83155e-10
-0.00285365
0.00343153
-3.68132e-10
-0.00233712
0.00340132
-1.01858e-10
-0.0017778
0.00338868
4.83817e-11
-0.00117317
0.00337521
1.34694e-10
-0.000611948
0.00348176
1.68301e-10
0.00382656
1.62761e-10
0.00202811
-6.21261e-10
2.34849e-13
0.00203233
-7.00229e-10
5.45934e-13
0.00203694
-1.21846e-09
6.33347e-13
0.00204216
-2.1169e-09
8.05302e-13
0.00204532
-3.47749e-09
1.17584e-12
0.00205524
7.39001e-09
1.13567e-12
0.00206339
-2.04993e-08
2.85381e-12
0.00206081
2.33565e-08
1.84874e-12
0.00209311
-2.49803e-08
4.14873e-12
0.00214699
-9.80286e-08
8.38528e-12
0.00217773
-1.77073e-06
1.58603e-11
0.00221427
5.60796e-06
8.4499e-11
0.00207915
4.11651e-05
3.47082e-10
0.00079131
0.000269438
1.78517e-09
-0.0054115
0.00323537
8.50888e-09
-0.00372477
0.00621557
-1.03247e-08
-0.00320721
0.00401672
6.62435e-11
-0.00321864
0.00385436
-4.99309e-10
-0.00304805
0.00408287
-9.66756e-10
-0.00266253
0.0040192
-3.95066e-10
-0.00215418
0.00396424
-1.2127e-10
-0.0016164
0.00396212
2.08955e-11
-0.0010426
0.00395206
1.11317e-10
-0.000528252
0.00408986
1.46178e-10
0.00456222
1.47342e-10
0.00202811
3.91731e-10
2.88408e-12
0.00203233
5.74156e-10
4.05078e-12
0.00203694
5.98564e-10
4.38329e-12
0.00204213
1.99112e-10
5.21056e-12
0.00204525
-6.33235e-10
5.86156e-12
0.00205524
3.12413e-09
1.21717e-11
0.00206349
-8.4284e-09
1.04098e-11
0.00206044
1.10712e-08
7.37409e-12
0.00209173
-3.72799e-09
3.65297e-11
0.00215266
-1.34805e-08
4.08461e-11
0.00222548
-5.02265e-07
4.47907e-11
0.00224413
3.70331e-06
7.83991e-11
0.00216629
2.55163e-05
1.72361e-10
0.00142123
0.000183044
5.8105e-10
-0.00325977
0.00210269
1.85949e-09
-0.00357736
0.00786712
-3.4805e-09
-0.00306068
0.0046468
-3.42576e-10
-0.00293125
0.00430772
-4.60957e-10
-0.00279871
0.00462559
-7.48472e-10
-0.00243015
0.0045997
-3.30962e-10
-0.00193021
0.00452466
-1.18896e-10
-0.00140776
0.0045336
1.05998e-12
-0.000868745
0.0045382
8.76767e-11
-0.000403005
0.00470071
1.27418e-10
0.0053941
1.29598e-10
0.00202811
1.47291e-11
2.88582e-13
0.00203233
-2.51998e-10
4.06905e-13
0.00203694
-4.73072e-10
4.4295e-13
0.00204213
-8.74023e-10
6.32793e-13
0.00204524
-1.45279e-09
8.04373e-13
0.00205533
-7.82773e-09
1.24702e-12
0.00206342
2.35591e-09
2.67051e-12
0.00206054
-2.0482e-08
-3.33322e-12
0.00209196
1.4181e-08
9.18908e-12
0.00215199
6.69502e-08
6.2295e-12
0.00219804
3.5707e-07
7.37353e-13
0.00227328
3.84805e-07
3.32822e-12
0.00229479
1.38275e-05
2.19162e-11
0.00181106
0.000121417
1.10518e-10
-0.00154411
0.00115995
2.58315e-10
-0.00382281
0.00912762
-5.11158e-10
-0.00289958
0.00544116
1.95181e-10
-0.00259291
0.00475435
-3.56785e-10
-0.00250482
0.00511715
-4.93343e-10
-0.0021592
0.00517052
-2.58059e-10
-0.00167257
0.00508072
-1.29773e-10
-0.0011463
0.00509122
-2.1546e-11
-0.000636073
0.00514178
5.35906e-11
-0.000194424
0.00529492
1.06857e-10
0.00639574
1.07532e-10
0.00202811
2.83642e-12
5.06446e-10
0.00203233
4.03557e-12
4.01088e-10
0.00203694
4.37004e-12
8.85586e-10
0.00204213
5.23164e-12
1.83384e-09
0.00204525
6.03859e-12
2.86264e-09
0.0020553
1.10903e-11
-2.84766e-09
0.00206334
1.15864e-11
1.53962e-08
0.00206058
5.20499e-12
-2.20741e-08
0.00209148
3.39242e-11
3.56263e-08
0.00215371
4.1545e-11
-2.06655e-08
0.00219293
4.75214e-11
-1.35793e-07
0.00235956
6.92939e-11
-4.32462e-08
0.00240699
8.12962e-11
7.80099e-06
0.00215966
9.80313e-11
7.46815e-05
0.000173997
-1.656e-10
0.000596434
-0.00415267
1.62091e-09
0.00666623
-0.00271665
2.04891e-09
0.00759275
-0.00222478
-2.63788e-10
0.0053311
-0.00216532
-4.69543e-10
0.0055243
-0.00185319
-2.33562e-10
0.00570596
-0.00137081
-1.45051e-10
0.00563277
-0.000813271
-5.35097e-11
0.00560106
-0.000340618
1.55508e-11
0.00576684
9.56259e-05
8.07932e-11
0.00583785
9.24775e-11
0.00761312
0.00202811
-4.8666e-12
4.04038e-13
0.00203233
-4.60101e-11
8.77007e-13
0.00203692
-8.29229e-11
9.08655e-13
0.00204218
-1.59079e-10
9.45398e-13
0.00204513
-3.36319e-10
1.20039e-12
0.00205461
-5.9927e-10
1.6445e-12
0.0020632
-1.36265e-09
2.61464e-12
0.00206404
3.46537e-09
3.92028e-12
0.00208494
-9.30509e-09
4.52904e-12
0.00210828
1.12626e-08
7.21302e-12
0.00202837
5.90402e-07
1.59844e-11
0.00194503
3.99879e-06
3.75905e-11
0.00137498
2.56331e-05
1.04925e-10
-0.00336168
0.000304412
4.87465e-10
-0.00450298
0.000943659
-3.18324e-10
-0.00407346
0.000608226
-1.60137e-10
-0.00397669
0.000540978
-1.3836e-10
-0.00405663
0.000580773
-1.09195e-10
-0.00378181
0.000582096
-9.08924e-12
-0.00332762
0.000571432
-5.07918e-13
-0.00276321
0.000555637
-1.49873e-11
-0.00214009
0.000549592
-5.72391e-11
-0.00145229
0.000548263
-9.7873e-11
-0.00077731
0.000564446
-1.62582e-10
0.000608192
-3.85381e-10
0.00202811
-1.64725e-11
3.52256e-13
0.00203233
-7.06229e-11
8.16693e-13
0.00203692
-1.12345e-10
8.28891e-13
0.00204218
-1.72114e-10
7.49096e-13
0.00204514
-3.04832e-10
8.35875e-13
0.00205462
-6.77093e-10
1.02271e-12
0.00206318
-3.66985e-10
2.73128e-12
0.00206382
3.43648e-09
3.23261e-12
0.00208632
-5.36089e-09
3.31497e-12
0.00211223
1.34247e-07
5.28367e-12
0.00203605
1.18529e-06
1.27276e-11
0.0019577
7.57225e-06
3.11492e-11
0.00141118
4.72131e-05
9.16301e-11
-0.00305249
0.000526196
4.00997e-10
-0.00454059
0.00187044
-6.90383e-11
-0.00405619
0.00125959
-2.6296e-10
-0.00393113
0.00108707
-1.84351e-10
-0.0040163
0.00115481
-1.05009e-10
-0.00374472
0.00115997
-2.29522e-11
-0.00329088
0.00114169
-2.25077e-11
-0.00273276
0.0011154
-2.6681e-11
-0.00211643
0.00110449
-6.74255e-11
-0.00143731
0.00110231
-1.06003e-10
-0.000769163
0.00113213
-1.64352e-10
0.00122125
-3.72775e-10
0.00202811
-2.00941e-11
3.64474e-13
0.00203233
-7.79643e-11
7.6446e-13
0.00203692
-1.36544e-10
8.25375e-13
0.00204218
-2.72843e-10
9.79784e-13
0.00204515
-8.39521e-10
1.22982e-12
0.00205464
-3.20563e-09
1.72763e-12
0.00206318
9.51556e-09
2.47854e-12
0.00206351
-1.49646e-09
4.28989e-12
0.00208884
2.9282e-08
5.73432e-12
0.00211912
4.24056e-07
8.54873e-12
0.00205084
1.49425e-06
1.46463e-11
0.00198428
9.41403e-06
3.23995e-11
0.00147925
6.0839e-05
1.05564e-10
-0.00247736
0.000650527
5.5733e-10
-0.00473735
0.0028086
2.15951e-11
-0.00403349
0.00191039
-2.06187e-10
-0.00384279
0.00163796
-2.04248e-10
-0.00393711
0.00172715
-8.95413e-11
-0.00367545
0.00173977
-5.82312e-11
-0.0032239
0.00171298
-4.61135e-11
-0.00267618
0.00168096
-4.47966e-11
-0.00206934
0.00166587
-8.73676e-11
-0.00140249
0.00166247
-1.25428e-10
-0.000750937
0.00170846
-1.69043e-10
0.00184649
-4.3342e-10
0.00202811
-1.26234e-11
2.03512e-13
0.00203233
2.14261e-11
4.87521e-13
0.00203692
6.31842e-11
5.02959e-13
0.00204218
1.89689e-10
5.51751e-13
0.00204513
9.88976e-10
6.94527e-13
0.00205457
4.01048e-09
1.04707e-12
0.00206329
-4.21065e-09
1.99674e-12
0.0020633