/*--------------------------------*- C++ -*----------------------------------*\
| =========                 |                                                 |
| \\      /  F ield         | OpenFOAM: The Open Source CFD Toolbox           |
|  \\    /   O peration     | Version:  4.1                                   |
|   \\  /    A nd           | Web:      www.OpenFOAM.org                      |
|    \\/     M anipulation  |                                                 |
\*---------------------------------------------------------------------------*/
FoamFile
{
    version     2.0;
    format      ascii;
    class       volScalarField;
    location    "0.32";
    object      T;
}
// * * * * * * * * * * * * * * * * * * * * * * * * * * * * * * * * * * * * * //

dimensions      [0 0 0 1 0 0 0];

internalField   nonuniform List<scalar> 
52500
(
0.338521
0.319225
0.320359
0.321204
0.323299
0.326464
0.330347
0.340189
0.353416
0.372924
0.425587
0.530732
0.769009
1.31037
1.53663
1.5381
1.7087
1.7116
1.6365
1.61518
1.61073
1.60126
1.59011
1.57189
1.47679
0.338521
0.319225
0.320359
0.321204
0.3233
0.326464
0.330351
0.340199
0.353404
0.372603
0.424801
0.526999
0.758515
1.28784
1.54058
1.53017
1.70769
1.71371
1.63676
1.61443
1.60918
1.60016
1.58929
1.57165
1.47492
0.338522
0.319225
0.320359
0.321205
0.323302
0.326462
0.330352
0.340194
0.353415
0.371995
0.423242
0.519408
0.736448
1.23795
1.54545
1.51815
1.70277
1.71421
1.63621
1.61186
1.60582
1.59749
1.58724
1.57009
1.47155
0.338522
0.319226
0.32036
0.321207
0.323305
0.326466
0.330355
0.340125
0.353532
0.37127
0.420815
0.508664
0.703624
1.15329
1.5473
1.50126
1.69209
1.71277
1.63359
1.60563
1.59855
1.59135
1.58231
1.56591
1.46457
0.338523
0.319226
0.32036
0.321206
0.323307
0.326465
0.330349
0.340021
0.353623
0.370555
0.417786
0.49692
0.666461
1.04675
1.53809
1.48264
1.67457
1.70881
1.63115
1.5978
1.5888
1.58377
1.57585
1.55972
1.45765
0.338523
0.319227
0.320361
0.321203
0.323317
0.326415
0.330365
0.339977
0.353738
0.370148
0.415737
0.487167
0.630515
0.946983
1.50332
1.47222
1.65019
1.70349
1.62892
1.58801
1.57557
1.57094
1.56436
1.55227
1.4479
0.338523
0.319227
0.32036
0.321203
0.32333
0.326381
0.330372
0.339884
0.354012
0.369998
0.41279
0.480896
0.595296
0.856006
1.42265
1.47564
1.61352
1.69057
1.62891
1.57702
1.56136
1.55773
1.55168
1.54269
1.43047
0.338524
0.319226
0.32036
0.321203
0.323332
0.32638
0.330374
0.339821
0.354273
0.36981
0.411031
0.477248
0.563315
0.767697
1.27676
1.49207
1.56334
1.6721
1.63013
1.56514
1.54517
1.54341
1.53804
1.53114
1.41696
0.338522
0.319227
0.320359
0.321202
0.323341
0.326364
0.330372
0.339871
0.354232
0.369844
0.41193
0.471588
0.534636
0.689654
1.09945
1.49373
1.5017
1.6489
1.63034
1.55464
1.53002
1.52298
1.51424
1.51882
1.37871
0.338523
0.319228
0.32036
0.321203
0.323342
0.32637
0.330374
0.339928
0.354161
0.369728
0.411983
0.469325
0.514897
0.625969
0.926007
1.46268
1.4576
1.61867
1.6284
1.5476
1.51399
1.49891
1.48442
1.49464
1.33846
0.338524
0.319227
0.320361
0.321207
0.323306
0.326468
0.330356
0.340208
0.353413
0.372917
0.425557
0.530736
0.769198
1.31083
1.53675
1.53819
1.7087
1.71155
1.63647
1.61516
1.61071
1.60123
1.59007
1.57184
1.47682
0.338523
0.319226
0.32036
0.321205
0.323303
0.326464
0.330352
0.340204
0.353396
0.372589
0.424771
0.526993
0.758622
1.28797
1.54047
1.53001
1.70769
1.7137
1.63672
1.61441
1.60917
1.60014
1.58926
1.57161
1.47493
0.338523
0.319227
0.320361
0.321207
0.323312
0.326458
0.330359
0.340227
0.353432
0.372021
0.423349
0.51967
0.737104
1.24023
1.54554
1.51868
1.70278
1.71412
1.63617
1.61184
1.60581
1.59747
1.5872
1.57004
1.47157
0.338522
0.319225
0.320359
0.321205
0.323301
0.326461
0.330348
0.340117
0.353518
0.371263
0.420826
0.508736
0.703904
1.15412
1.54711
1.50107
1.69203
1.71269
1.63356
1.60562
1.59854
1.5913
1.58222
1.56581
1.46468
0.338523
0.319227
0.320361
0.321208
0.323311
0.32646
0.33035
0.340045
0.353622
0.370587
0.417935
0.497211
0.667048
1.04902
1.53852
1.48324
1.67483
1.70873
1.63112
1.59781
1.5888
1.5837
1.57573
1.5596
1.4578
0.338522
0.319225
0.320358
0.3212
0.323307
0.326416
0.330355
0.339928
0.353712
0.370101
0.415595
0.487032
0.630455
0.947097
1.50323
1.47241
1.65041
1.7035
1.62888
1.58804
1.57557
1.57087
1.56424
1.55214
1.44805
0.338523
0.319226
0.32036
0.321202
0.323322
0.326388
0.330367
0.339844
0.354011
0.36997
0.412645
0.480756
0.595134
0.855722
1.42171
1.47527
1.61293
1.69066
1.62898
1.57706
1.56138
1.55767
1.55156
1.54253
1.43062
0.338522
0.319225
0.320358
0.321199
0.32332
0.326377
0.330356
0.339786
0.354265
0.369818
0.411058
0.47727
0.563363
0.767756
1.27668
1.49179
1.56323
1.6722
1.63023
1.56518
1.54519
1.54336
1.53794
1.53098
1.4171
0.338522
0.319225
0.320358
0.321199
0.323328
0.326369
0.330359
0.339822
0.354227
0.369822
0.411809
0.471424
0.534519
0.689604
1.09918
1.4936
1.50185
1.64905
1.63043
1.55469
1.53004
1.52297
1.51419
1.51864
1.37884
0.338521
0.319224
0.320357
0.321198
0.323324
0.326372
0.330354
0.339862
0.354137
0.369691
0.411842
0.469168
0.514771
0.625843
0.925655
1.46227
1.45762
1.61882
1.62862
1.54763
1.514
1.49887
1.48438
1.49447
1.33858
0.338522
0.319225
0.320359
0.321204
0.323299
0.326463
0.330346
0.340187
0.353403
0.372917
0.425576
0.530782
0.769278
1.31109
1.53661
1.53834
1.70876
1.71157
1.63649
1.61517
1.61072
1.60124
1.59007
1.57184
1.47682
0.338522
0.319225
0.320359
0.321205
0.3233
0.326463
0.330349
0.340195
0.353393
0.372594
0.424788
0.527035
0.75872
1.28834
1.54048
1.53024
1.70773
1.71371
1.63675
1.61443
1.60918
1.60014
1.58926
1.57161
1.47493
0.338522
0.319225
0.320359
0.321204
0.323299
0.32646
0.330348
0.340183
0.353398
0.371983
0.423232
0.519438
0.736622
1.23846
1.54539
1.51823
1.70283
1.71422
1.6362
1.61186
1.60581
1.59748
1.5872
1.57004
1.47157
0.338522
0.319225
0.32036
0.321206
0.323303
0.326465
0.330352
0.340118
0.353517
0.371258
0.420813
0.508684
0.703709
1.15349
1.54721
1.5011
1.69208
1.71279
1.63359
1.60563
1.59854
1.5913
1.58222
1.56581
1.46468
0.338522
0.319224
0.320358
0.321204
0.323298
0.326462
0.330339
0.339988
0.353623
0.370557
0.417783
0.496954
0.666615
1.04738
1.538
1.48255
1.67464
1.70882
1.63115
1.59781
1.5888
1.5837
1.57573
1.5596
1.45779
0.338522
0.319226
0.32036
0.321202
0.323314
0.326413
0.330359
0.339969
0.353722
0.370136
0.415749
0.487189
0.63062
0.947266
1.50361
1.47248
1.6505
1.70353
1.62889
1.58803
1.57556
1.57087
1.56423
1.55213
1.44804
0.338521
0.319224
0.320358
0.321198
0.323315
0.326382
0.330356
0.339828
0.353991
0.36995
0.412636
0.480734
0.595207
0.85602
1.42226
1.47544
1.61335
1.69067
1.62893
1.57705
1.56137
1.55766
1.55155
1.54252
1.43061
0.338523
0.319226
0.32036
0.321201
0.323325
0.326382
0.330365
0.339798
0.354275
0.369819
0.411036
0.477261
0.563381
0.767831
1.27685
1.49189
1.56351
1.67219
1.63017
1.56516
1.54518
1.54335
1.53794
1.53097
1.41709
0.33852
0.319224
0.320357
0.321197
0.323324
0.326365
0.330354
0.339808
0.354206
0.369797
0.411757
0.471388
0.534541
0.68971
1.09933
1.4935
1.50193
1.64904
1.63039
1.55468
1.53003
1.52296
1.51418
1.51862
1.37883
0.338522
0.319226
0.320359
0.321201
0.323329
0.326377
0.330363
0.339872
0.354142
0.369685
0.411796
0.469143
0.51476
0.625834
0.925653
1.46228
1.45763
1.61884
1.6286
1.54761
1.51398
1.49886
1.48437
1.49446
1.33857
0.338521
0.319224
0.320358
0.321203
0.323297
0.326461
0.330344
0.340182
0.353393
0.372907
0.425564
0.530781
0.769308
1.31111
1.53657
1.53834
1.70877
1.71158
1.6365
1.61517
1.61072
1.60123
1.59006
1.57183
1.47681
0.338521
0.319224
0.320358
0.321203
0.323297
0.326461
0.330345
0.340186
0.353381
0.372583
0.424779
0.527032
0.758733
1.28834
1.54044
1.53022
1.70774
1.71373
1.63676
1.61443
1.60917
1.60014
1.58926
1.5716
1.47492
0.338521
0.319224
0.320358
0.321203
0.323298
0.326459
0.330346
0.340181
0.353394
0.371978
0.423228
0.519439
0.73665
1.23857
1.54538
1.51824
1.70283
1.71424
1.63621
1.61186
1.60581
1.59747
1.5872
1.57002
1.47156
0.338521
0.319224
0.320359
0.321204
0.323298
0.326461
0.330345
0.340107
0.353507
0.371254
0.420812
0.508704
0.70383
1.15398
1.54716
1.50109
1.6921
1.7128
1.6336
1.60563
1.59854
1.59129
1.58222
1.5658
1.46467
0.338521
0.319224
0.320358
0.321204
0.323298
0.326463
0.330338
0.339985
0.353624
0.370567
0.417799
0.496985
0.666725
1.04794
1.53819
1.48294
1.67481
1.70884
1.63115
1.59782
1.5888
1.5837
1.57572
1.55959
1.45779
0.338521
0.319224
0.320358
0.321199
0.323305
0.326416
0.330351
0.339921
0.353711
0.370099
0.415591
0.486999
0.630361
0.946869
1.50296
1.47227
1.65033
1.70359
1.62892
1.58805
1.57557
1.57086
1.56423
1.55212
1.44803
0.338521
0.319224
0.320358
0.321198
0.323315
0.326383
0.330355
0.339823
0.353995
0.369956
0.412634
0.480738
0.595136
0.855782
1.42188
1.47529
1.61309
1.69072
1.62899
1.57707
1.56137
1.55766
1.55155
1.54252
1.4306
0.338521
0.319224
0.320357
0.321198
0.323318
0.326375
0.330352
0.339778
0.354258
0.369808
0.411038
0.477267
0.563379
0.767802
1.27688
1.49193
1.56345
1.67226
1.63023
1.56518
1.54519
1.54335
1.53793
1.53096
1.41709
0.33852
0.319224
0.320357
0.321197
0.323323
0.326366
0.330353
0.339806
0.354206
0.369796
0.41176
0.4714
0.534536
0.689677
1.09931
1.49362
1.50196
1.64909
1.63043
1.55469
1.53004
1.52296
1.51418
1.51862
1.37882
0.33852
0.319224
0.320356
0.321197
0.323322
0.326371
0.330351
0.339852
0.354127
0.369675
0.411799
0.469149
0.514783
0.625888
0.925714
1.46222
1.45763
1.61885
1.62862
1.54763
1.51399
1.49886
1.48437
1.49445
1.33856
0.338521
0.319224
0.320358
0.321202
0.323297
0.326459
0.330342
0.34018
0.35339
0.3729
0.425553
0.530768
0.769295
1.31109
1.53661
1.53831
1.70874
1.71157
1.6365
1.61517
1.61071
1.60123
1.59006
1.57184
1.47682
0.338521
0.319224
0.320358
0.321202
0.323297
0.326459
0.330344
0.340185
0.353378
0.372577
0.424769
0.527022
0.758723
1.28833
1.54049
1.53021
1.7077
1.71372
1.63676
1.61443
1.60916
1.60013
1.58925
1.5716
1.47494
0.338521
0.319224
0.320358
0.321203
0.323297
0.326458
0.330345
0.340178
0.353391
0.371974
0.423221
0.519429
0.736633
1.23852
1.54539
1.51822
1.70281
1.71422
1.6362
1.61185
1.6058
1.59746
1.5872
1.57005
1.47158
0.338521
0.319224
0.320358
0.321203
0.323297
0.32646
0.330343
0.340104
0.353504
0.371251
0.420806
0.508695
0.703816
1.15394
1.54715
1.5011
1.69211
1.71279
1.63359
1.60562
1.59854
1.59133
1.58229
1.56587
1.46455
0.338521
0.319224
0.320358
0.321203
0.323297
0.326461
0.330337
0.339985
0.353618
0.370559
0.417791
0.49698
0.666711
1.04787
1.53819
1.48294
1.67479
1.70882
1.63114
1.59782
1.58882
1.58378
1.57586
1.55971
1.45759
0.338521
0.319224
0.320358
0.321199
0.323304
0.326415
0.33035
0.33992
0.353708
0.370095
0.415584
0.486999
0.630352
0.94683
1.50295
1.47226
1.65029
1.70357
1.62891
1.58804
1.57559
1.57095
1.56436
1.55225
1.44788
0.338521
0.319224
0.320357
0.321198
0.323314
0.326382
0.330354
0.339822
0.353994
0.369953
0.412626
0.480747
0.595132
0.855744
1.42188
1.47532
1.61302
1.69068
1.62898
1.57705
1.56138
1.55772
1.55165
1.54265
1.43052
0.338521
0.319223
0.320357
0.321198
0.323318
0.326375
0.330352
0.339778
0.354259
0.369809
0.411042
0.477266
0.563364
0.767766
1.27684
1.49193
1.56336
1.67221
1.63021
1.56516
1.54518
1.54338
1.53798
1.53104
1.41703
0.33852
0.319224
0.320356
0.321197
0.323324
0.326365
0.330352
0.339808
0.354208
0.369798
0.411764
0.471407
0.534525
0.689635
1.09926
1.49365
1.50191
1.64905
1.63041
1.55468
1.53003
1.52296
1.51418
1.51865
1.37881
0.33852
0.319224
0.320356
0.321197
0.323323
0.32637
0.330351
0.339855
0.354127
0.369673
0.411796
0.46914
0.514771
0.625869
0.9257
1.46227
1.45761
1.61881
1.6286
1.54762
1.51398
1.49885
1.48436
1.49445
1.33856
0.338521
0.319224
0.320358
0.321203
0.323298
0.326461
0.330344
0.340182
0.353392
0.372907
0.425564
0.530781
0.76931
1.31112
1.53657
1.53835
1.70877
1.71158
1.6365
1.61517
1.61072
1.60123
1.59006
1.57183
1.47681
0.338521
0.319224
0.320358
0.321203
0.323298
0.326461
0.330345
0.340186
0.353382
0.372584
0.424779
0.527034
0.758736
1.28835
1.54045
1.53023
1.70774
1.71373
1.63676
1.61443
1.60917
1.60014
1.58926
1.5716
1.47492
0.338521
0.319224
0.320358
0.321203
0.323298
0.326459
0.330346
0.340181
0.353394
0.371978
0.423229
0.51944
0.736652
1.23857
1.54538
1.51824
1.70284
1.71424
1.63621
1.61186
1.60581
1.59747
1.5872
1.57003
1.47156
0.338521
0.319224
0.320359
0.321204
0.323298
0.326461
0.330345
0.340107
0.353508
0.371256
0.420813
0.508706
0.703832
1.15399
1.54716
1.5011
1.69211
1.71281
1.6336
1.60563
1.59854
1.5913
1.58222
1.5658
1.46467
0.338521
0.319224
0.320359
0.321204
0.323298
0.326463
0.330338
0.339985
0.353625
0.370568
0.417801
0.496988
0.666724
1.04791
1.53818
1.48294
1.67481
1.70884
1.63116
1.59782
1.5888
1.5837
1.57572
1.55959
1.45779
0.338521
0.319224
0.320358
0.321199
0.323305
0.326417
0.330351
0.339921
0.353713
0.370101
0.415593
0.487004
0.630358
0.946844
1.50293
1.47226
1.65033
1.70359
1.62892
1.58805
1.57557
1.57087
1.56423
1.55212
1.44803
0.338521
0.319224
0.320358
0.321198
0.323315
0.326384
0.330356
0.339824
0.353998
0.369959
0.412639
0.480748
0.595133
0.855751
1.42184
1.47529
1.61308
1.69072
1.62899
1.57707
1.56138
1.55766
1.55155
1.54252
1.4306
0.338521
0.319224
0.320358
0.321198
0.323318
0.326375
0.330353
0.33978
0.35426
0.369811
0.41105
0.477271
0.563369
0.76777
1.27682
1.49192
1.56342
1.67225
1.63023
1.56518
1.54519
1.54336
1.53794
1.53097
1.41709
0.33852
0.319224
0.320357
0.321198
0.323324
0.326366
0.330354
0.339809
0.354212
0.369804
0.411778
0.471412
0.534529
0.689644
1.09926
1.49362
1.50193
1.64908
1.63043
1.55469
1.53004
1.52296
1.51418
1.51862
1.37883
0.33852
0.319224
0.320357
0.321198
0.323323
0.326371
0.330352
0.339855
0.354131
0.36968
0.411811
0.469143
0.514774
0.625877
0.925709
1.46223
1.45761
1.61884
1.62862
1.54763
1.51399
1.49886
1.48438
1.49445
1.33857
0.338521
0.319224
0.320358
0.321203
0.323297
0.326461
0.330344
0.340182
0.353392
0.372907
0.425564
0.530781
0.769308
1.31111
1.53657
1.53834
1.70877
1.71158
1.6365
1.61517
1.61072
1.60123
1.59006
1.57183
1.47681
0.338521
0.319224
0.320358
0.321203
0.323297
0.326461
0.330345
0.340186
0.353381
0.372583
0.424779
0.527032
0.758733
1.28834
1.54044
1.53022
1.70774
1.71373
1.63676
1.61443
1.60917
1.60014
1.58926
1.5716
1.47492
0.338521
0.319224
0.320358
0.321203
0.323298
0.326459
0.330346
0.340181
0.353394
0.371978
0.423228
0.519439
0.73665
1.23857
1.54538
1.51824
1.70283
1.71424
1.63621
1.61186
1.60581
1.59747
1.5872
1.57002
1.47156
0.338521
0.319224
0.320359
0.321204
0.323298
0.326461
0.330345
0.340107
0.353507
0.371254
0.420812
0.508704
0.70383
1.15398
1.54716
1.50109
1.6921
1.7128
1.6336
1.60563
1.59854
1.59129
1.58222
1.5658
1.46467
0.338521
0.319224
0.320358
0.321204
0.323298
0.326463
0.330338
0.339985
0.353624
0.370567
0.417799
0.496985
0.666725
1.04794
1.53819
1.48294
1.67481
1.70884
1.63115
1.59782
1.5888
1.5837
1.57572
1.55959
1.45779
0.338521
0.319224
0.320358
0.321199
0.323305
0.326416
0.330351
0.339921
0.353711
0.370099
0.415591
0.486999
0.630361
0.946869
1.50296
1.47227
1.65033
1.70359
1.62892
1.58805
1.57557
1.57086
1.56423
1.55212
1.44803
0.338521
0.319224
0.320358
0.321198
0.323315
0.326383
0.330355
0.339823
0.353995
0.369956
0.412634
0.480738
0.595136
0.855782
1.42188
1.47529
1.61309
1.69072
1.62899
1.57707
1.56137
1.55766
1.55155
1.54252
1.4306
0.338521
0.319224
0.320357
0.321198
0.323318
0.326375
0.330352
0.339778
0.354258
0.369808
0.411038
0.477267
0.563379
0.767803
1.27688
1.49193
1.56345
1.67226
1.63023
1.56518
1.54519
1.54335
1.53793
1.53096
1.41709
0.33852
0.319224
0.320357
0.321197
0.323323
0.326366
0.330353
0.339806
0.354206
0.369796
0.41176
0.4714
0.534536
0.689677
1.09931
1.49362
1.50196
1.64909
1.63043
1.55469
1.53004
1.52296
1.51418
1.51862
1.37882
0.33852
0.319224
0.320356
0.321197
0.323322
0.326371
0.330351
0.339852
0.354127
0.369675
0.411799
0.469149
0.514783
0.625888
0.925714
1.46222
1.45763
1.61885
1.62862
1.54763
1.51399
1.49886
1.48437
1.49445
1.33856
0.338522
0.319225
0.320359
0.321204
0.323299
0.326463
0.330346
0.340187
0.353403
0.372917
0.425576
0.530782
0.769278
1.31109
1.53661
1.53834
1.70876
1.71157
1.63649
1.61517
1.61072
1.60124
1.59007
1.57184
1.47682
0.338522
0.319225
0.320359
0.321205
0.3233
0.326463
0.330349
0.340195
0.353393
0.372594
0.424788
0.527035
0.75872
1.28834
1.54048
1.53024
1.70773
1.71371
1.63675
1.61443
1.60918
1.60014
1.58926
1.57161
1.47493
0.338522
0.319225
0.320359
0.321204
0.323299
0.32646
0.330348
0.340183
0.353398
0.371983
0.423232
0.519438
0.736622
1.23846
1.54539
1.51823
1.70283
1.71422
1.6362
1.61186
1.60581
1.59748
1.5872
1.57004
1.47157
0.338522
0.319225
0.32036
0.321206
0.323303
0.326465
0.330352
0.340118
0.353517
0.371258
0.420813
0.508684
0.703709
1.15349
1.54721
1.5011
1.69208
1.71279
1.63359
1.60563
1.59854
1.5913
1.58222
1.56581
1.46468
0.338522
0.319224
0.320358
0.321204
0.323298
0.326462
0.330339
0.339988
0.353623
0.370557
0.417783
0.496954
0.666615
1.04738
1.538
1.48255
1.67464
1.70882
1.63115
1.59781
1.5888
1.5837
1.57573
1.5596
1.45779
0.338522
0.319226
0.32036
0.321202
0.323314
0.326413
0.330359
0.339969
0.353722
0.370136
0.415749
0.487189
0.63062
0.947266
1.50361
1.47248
1.6505
1.70353
1.62889
1.58803
1.57556
1.57087
1.56423
1.55213
1.44804
0.338521
0.319224
0.320358
0.321198
0.323315
0.326382
0.330356
0.339828
0.353991
0.36995
0.412636
0.480734
0.595207
0.85602
1.42226
1.47544
1.61335
1.69067
1.62893
1.57705
1.56137
1.55766
1.55155
1.54252
1.43061
0.338523
0.319226
0.32036
0.321201
0.323325
0.326382
0.330365
0.339798
0.354275
0.369819
0.411036
0.477261
0.563381
0.767831
1.27685
1.49189
1.56351
1.67219
1.63017
1.56516
1.54518
1.54335
1.53794
1.53097
1.41709
0.33852
0.319224
0.320357
0.321197
0.323324
0.326365
0.330354
0.339808
0.354206
0.369797
0.411757
0.471388
0.534541
0.68971
1.09933
1.4935
1.50193
1.64904
1.63039
1.55468
1.53003
1.52296
1.51418
1.51862
1.37883
0.338522
0.319226
0.320359
0.321201
0.323329
0.326377
0.330363
0.339872
0.354142
0.369685
0.411796
0.469143
0.51476
0.625834
0.925653
1.46228
1.45763
1.61884
1.6286
1.54761
1.51398
1.49886
1.48437
1.49446
1.33857
0.338524
0.319227
0.320361
0.321207
0.323306
0.326468
0.330356
0.340208
0.353413
0.372917
0.425557
0.530736
0.769198
1.31083
1.53675
1.53819
1.7087
1.71155
1.63647
1.61516
1.61071
1.60123
1.59007
1.57184
1.47682
0.338523
0.319226
0.32036
0.321205
0.323303
0.326464
0.330352
0.340204
0.353396
0.372589
0.424771
0.526993
0.758622
1.28797
1.54047
1.53001
1.70769
1.7137
1.63672
1.61441
1.60917
1.60014
1.58926
1.57161
1.47493
0.338523
0.319227
0.320361
0.321207
0.323312
0.326458
0.330359
0.340227
0.353432
0.372021
0.423349
0.51967
0.737104
1.24023
1.54554
1.51868
1.70278
1.71412
1.63617
1.61184
1.60581
1.59747
1.5872
1.57004
1.47157
0.338522
0.319225
0.320359
0.321205
0.323301
0.326461
0.330348
0.340117
0.353518
0.371263
0.420826
0.508735
0.703903
1.15412
1.54711
1.50107
1.69203
1.71269
1.63356
1.60562
1.59854
1.5913
1.58222
1.56581
1.46468
0.338523
0.319227
0.320361
0.321208
0.323311
0.32646
0.33035
0.340045
0.353622
0.370587
0.417935
0.497211
0.667048
1.04902
1.53852
1.48324
1.67483
1.70873
1.63112
1.59781
1.5888
1.5837
1.57573
1.5596
1.4578
0.338522
0.319225
0.320358
0.3212
0.323307
0.326416
0.330355
0.339928
0.353712
0.370101
0.415595
0.487032
0.630455
0.947097
1.50323
1.47241
1.65041
1.7035
1.62888
1.58804
1.57557
1.57087
1.56424
1.55214
1.44805
0.338523
0.319226
0.32036
0.321202
0.323322
0.326388
0.330367
0.339844
0.354011
0.36997
0.412645
0.480756
0.595134
0.855722
1.42171
1.47527
1.61293
1.69066
1.62898
1.57706
1.56138
1.55767
1.55156
1.54253
1.43061
0.338522
0.319225
0.320358
0.321199
0.32332
0.326377
0.330356
0.339786
0.354265
0.369818
0.411058
0.47727
0.563363
0.767756
1.27668
1.49179
1.56323
1.6722
1.63023
1.56518
1.54519
1.54336
1.53794
1.53098
1.4171
0.338522
0.319225
0.320358
0.321199
0.323328
0.326369
0.330359
0.339822
0.354227
0.369822
0.411809
0.471424
0.534519
0.689604
1.09918
1.4936
1.50185
1.64905
1.63043
1.55469
1.53004
1.52297
1.51419
1.51864
1.37884
0.338521
0.319224
0.320357
0.321198
0.323324
0.326372
0.330354
0.339862
0.354137
0.369691
0.411842
0.469168
0.514771
0.625843
0.925655
1.46227
1.45762
1.61882
1.62862
1.54763
1.514
1.49887
1.48438
1.49447
1.33858
0.338522
0.319225
0.320359
0.321204
0.3233
0.326465
0.330349
0.340194
0.353415
0.372924
0.425578
0.530728
0.769045
1.3105
1.53666
1.53818
1.70866
1.71155
1.63647
1.61517
1.61076
1.60133
1.59024
1.572
1.4766
0.338522
0.319225
0.320359
0.321205
0.323303
0.326464
0.330354
0.340205
0.353404
0.372592
0.424787
0.526947
0.758336
1.28725
1.54072
1.53005
1.70763
1.71369
1.63674
1.61443
1.6092
1.6002
1.58937
1.57172
1.47479
0.338522
0.319225
0.320359
0.321204
0.323302
0.326461
0.330352
0.340196
0.353416
0.371987
0.42322
0.519352
0.736304
1.23744
1.54542
1.51789
1.70268
1.7142
1.63618
1.61184
1.60581
1.5975
1.58726
1.57011
1.47152
0.338522
0.319227
0.32036
0.321206
0.32331
0.326456
0.330354
0.340159
0.353546
0.371304
0.420942
0.508896
0.704101
1.15505
1.5475
1.50146
1.69203
1.71268
1.63356
1.6056
1.59852
1.59132
1.58228
1.5659
1.46461
0.338522
0.319225
0.32036
0.321206
0.323304
0.326465
0.330348
0.340011
0.353616
0.370555
0.417795
0.496978
0.666643
1.04755
1.53847
1.48329
1.67477
1.70871
1.6311
1.59778
1.58879
1.58375
1.57584
1.55973
1.45768
0.338524
0.319226
0.32036
0.321204
0.323317
0.326419
0.33037
0.339958
0.353727
0.37011
0.415585
0.486965
0.630102
0.946198
1.50246
1.47188
1.6498
1.70349
1.62891
1.58801
1.57556
1.57093
1.56435
1.55227
1.44791
0.338522
0.319226
0.320359
0.321201
0.323326
0.326378
0.330366
0.339872
0.354008
0.369995
0.412769
0.480854
0.595161
0.855664
1.422
1.47517
1.61266
1.6906
1.62899
1.57703
1.56135
1.55772
1.55167
1.54269
1.43048
0.338524
0.319228
0.320361
0.321204
0.323337
0.326375
0.330375
0.339847
0.354291
0.369855
0.411178
0.477407
0.563494
0.767905
1.27766
1.49227
1.56362
1.67225
1.63014
1.56514
1.54516
1.5434
1.53803
1.53114
1.41696
0.338521
0.319225
0.320357
0.321199
0.323331
0.326365
0.330363
0.339832
0.354205
0.369787
0.411747
0.471367
0.534489
0.689639
1.09942
1.49391
1.50208
1.64902
1.63034
1.55465
1.53003
1.52298
1.51424
1.51882
1.37871
0.338523
0.319228
0.320359
0.321204
0.323344
0.32637
0.330376
0.339926
0.354156
0.369706
0.411898
0.469317
0.514888
0.625911
0.925878
1.46263
1.45779
1.61865
1.62841
1.5476
1.51399
1.49891
1.48441
1.49464
1.33846
0.338525
0.319228
0.320362
0.321205
0.323333
0.326388
0.330373
0.339944
0.35411
0.369704
0.412243
0.469911
0.49901
0.576462
0.79665
1.29025
1.44629
1.5743
1.61636
1.54291
1.49788
1.47737
1.44447
1.47488
1.2382
0.338525
0.31923
0.320365
0.321208
0.323332
0.326396
0.330376
0.33996
0.354187
0.369843
0.412591
0.469879
0.489571
0.545855
0.701589
1.07538
1.43119
1.50836
1.58948
1.54161
1.48427
1.45835
1.39957
1.45297
1.2492
0.338526
0.319229
0.320364
0.321207
0.323325
0.326407
0.330376
0.339915
0.354197
0.369793
0.411296
0.471466
0.487149
0.522869
0.628402
0.905347
1.40329
1.45098
1.55497
1.53863
1.4768
1.4389
1.36704
1.41317
1.29576
0.338526
0.319229
0.320364
0.321208
0.323329
0.326406
0.33038
0.339916
0.354187
0.369736
0.410547
0.473038
0.485844
0.509884
0.584167
0.767698
1.1895
1.41765
1.51366
1.52374
1.47184
1.43034
1.34615
1.36816
1.31573
0.338526
0.31923
0.320364
0.321208
0.323332
0.326398
0.330378
0.339933
0.354195
0.369764
0.410573
0.473848
0.484757
0.510421
0.560016
0.674845
0.951819
1.36089
1.46358
1.49572
1.46024
1.4339
1.34809
1.33787
1.31243
0.338526
0.31923
0.320364
0.321208
0.323333
0.326395
0.330379
0.339939
0.354194
0.369757
0.410681
0.473745
0.484339
0.511705
0.541511
0.610425
0.799321
1.26353
1.41866
1.46667
1.4451
1.43683
1.35998
1.32307
1.30397
0.338526
0.319229
0.320364
0.321208
0.323334
0.326395
0.330381
0.33994
0.354183
0.369745
0.410679
0.473672
0.484483
0.50984
0.5377
0.578805
0.677069
0.949861
1.33327
1.42476
1.431
1.43395
1.38134
1.32756
1.30037
0.338526
0.31923
0.320364
0.321209
0.323336
0.326396
0.330383
0.339944
0.354186
0.369748
0.410628
0.473743
0.484525
0.509114
0.539502
0.558829
0.605682
0.767519
1.20709
1.36697
1.40812
1.42643
1.39553
1.33729
1.3038
0.338526
0.31923
0.320364
0.321208
0.323334
0.326396
0.330381
0.33994
0.35419
0.369755
0.41062
0.473761
0.48448
0.509334
0.539508
0.548413
0.570586
0.640606
0.880285
1.26488
1.36437
1.41201
1.39504
1.35042
1.30863
0.338527
0.319231
0.320365
0.32121
0.323336
0.326399
0.330385
0.339945
0.354195
0.36976
0.410623
0.473793
0.484486
0.50932
0.539226
0.548332
0.551896
0.575656
0.690222
1.07207
1.28528
1.37978
1.38344
1.35149
1.31366
0.338527
0.31923
0.320365
0.321209
0.323331
0.326405
0.330383
0.339921
0.354189
0.369731
0.410487
0.473599
0.484298
0.509051
0.539223
0.547259
0.546739
0.548647
0.583426
0.749832
1.14563
1.3058
1.34867
1.33604
1.31071
0.338527
0.319231
0.320365
0.321209
0.323335
0.326399
0.330383
0.339945
0.354207
0.369777
0.410658
0.473772
0.484479
0.509298
0.539474
0.547246
0.546037
0.535412
0.543701
0.597622
0.819429
1.18136
1.27476
1.29766
1.29241
0.338527
0.319231
0.320365
0.321209
0.323335
0.326399
0.330382
0.339943
0.354204
0.369774
0.410656
0.473778
0.484487
0.509309
0.539489
0.54724
0.545869
0.534837
0.528558
0.543132
0.619634
0.860777
1.1549
1.23777
1.26116
0.338527
0.31923
0.320365
0.321209
0.323331
0.326405
0.330383
0.339921
0.354191
0.369736
0.410502
0.473641
0.484331
0.509071
0.539267
0.547025
0.545644
0.534533
0.525816
0.530049
0.561071
0.650705
0.834203
1.09259
1.20414
0.338526
0.31923
0.320365
0.321209
0.323335
0.326399
0.330383
0.339942
0.354199
0.369768
0.410649
0.47383
0.484515
0.509281
0.539492
0.54725
0.545876
0.534817
0.525839
0.528969
0.551364
0.605576
0.677536
0.785765
0.972261
0.338526
0.31923
0.320365
0.321209
0.323335
0.326396
0.330381
0.339945
0.3542
0.369768
0.410655
0.473797
0.484487
0.509271
0.539465
0.54722
0.545847
0.534798
0.52581
0.528745
0.549739
0.598917
0.649727
0.697113
0.756541
0.338526
0.31923
0.320365
0.321209
0.323335
0.326396
0.330381
0.339945
0.354196
0.369763
0.410641
0.473775
0.484472
0.509267
0.539475
0.547235
0.545863
0.534814
0.525821
0.528706
0.549546
0.598247
0.646482
0.68473
0.721969
0.338527
0.319231
0.320366
0.32121
0.323337
0.3264
0.330386
0.339948
0.354201
0.369768
0.410635
0.473806
0.484499
0.509267
0.539503
0.54728
0.54591
0.534861
0.525845
0.528712
0.549521
0.598167
0.646187
0.683563
0.718905
0.338527
0.31923
0.320365
0.321208
0.323331
0.326405
0.330382
0.339918
0.354184
0.369726
0.410474
0.473618
0.484324
0.50909
0.53931
0.547072
0.545689
0.534596
0.525556
0.528417
0.549349
0.598021
0.646026
0.683374
0.718546
0.338528
0.319232
0.320366
0.321211
0.323339
0.326402
0.330389
0.339952
0.354206
0.369771
0.410631
0.473797
0.484491
0.509257
0.539496
0.54728
0.545912
0.534868
0.525847
0.52871
0.549516
0.59815
0.64615
0.683447
0.718639
0.338526
0.31923
0.320364
0.321208
0.323333
0.326394
0.330379
0.339941
0.354193
0.369762
0.410647
0.473787
0.484483
0.509284
0.539477
0.547222
0.545846
0.534791
0.525803
0.528689
0.549526
0.598181
0.646164
0.683458
0.718673
0.338528
0.319232
0.320366
0.321211
0.32334
0.326401
0.330389
0.339958
0.354207
0.36977
0.410642
0.473796
0.484464
0.509179
0.539425
0.547221
0.545856
0.534808
0.525782
0.528647
0.549463
0.59808
0.646074
0.683405
0.718662
0.338526
0.31923
0.320364
0.321208
0.323333
0.326395
0.330379
0.339941
0.354193
0.369761
0.410648
0.473783
0.484477
0.509276
0.539467
0.547213
0.545836
0.53478
0.525795
0.528681
0.54952
0.598173
0.646155
0.683452
0.718678
0.338528
0.319232
0.320367
0.321211
0.32334
0.326403
0.330391
0.339956
0.354211
0.369777
0.41064
0.473795
0.484484
0.509243
0.539478
0.54726
0.545893
0.534851
0.525831
0.528694
0.549502
0.598129
0.646125
0.683431
0.718645
0.338527
0.319229
0.320365
0.321208
0.323331
0.326404
0.330382
0.339917
0.35418
0.369722
0.410469
0.473603
0.484313
0.509088
0.539305
0.547067
0.545683
0.534589
0.525549
0.528408
0.54934
0.59801
0.646015
0.683358
0.718524
0.338528
0.319232
0.320367
0.321211
0.323339
0.326403
0.33039
0.339954
0.354211
0.369776
0.410635
0.473791
0.484483
0.509244
0.539482
0.547268
0.545902
0.534862
0.525844
0.528707
0.549515
0.598143
0.646139
0.683439
0.718643
0.338526
0.31923
0.320364
0.321208
0.323333
0.326394
0.330379
0.339941
0.354189
0.369756
0.410638
0.473773
0.484472
0.509276
0.539476
0.547226
0.545849
0.534792
0.525802
0.528685
0.549519
0.598174
0.646161
0.683457
0.718668
0.338527
0.319231
0.320366
0.321211
0.323339
0.3264
0.330388
0.339954
0.354202
0.369764
0.410629
0.473796
0.484468
0.50919
0.539443
0.54724
0.545874
0.534827
0.5258
0.528664
0.54948
0.598102
0.646096
0.683415
0.71865
0.338526
0.31923
0.320364
0.321208
0.323332
0.326394
0.330378
0.339938
0.35419
0.369758
0.410637
0.473782
0.484483
0.50929
0.539478
0.547222
0.545846
0.53479
0.525802
0.528688
0.549526
0.598186
0.646169
0.68346
0.718669
0.338527
0.319231
0.320366
0.32121
0.323336
0.3264
0.330386
0.339946
0.354199
0.369765
0.410631
0.473813
0.484502
0.509261
0.539494
0.54727
0.545901
0.534851
0.525833
0.528701
0.549511
0.598154
0.646152
0.683449
0.718641
0.338527
0.319229
0.320364
0.321208
0.32333
0.326404
0.330381
0.339915
0.354178
0.369719
0.410467
0.473601
0.484311
0.509083
0.539298
0.54706
0.545677
0.534586
0.525549
0.52841
0.549341
0.598009
0.646014
0.683361
0.718533
0.338526
0.319231
0.320365
0.321209
0.323334
0.326398
0.330381
0.339941
0.354202
0.369772
0.410648
0.473785
0.484493
0.509309
0.539496
0.547249
0.545877
0.53484
0.525863
0.528744
0.54956
0.59821
0.6462
0.68348
0.718666
0.338525
0.31923
0.320364
0.321208
0.323332
0.326396
0.330377
0.339933
0.354193
0.369762
0.410637
0.473777
0.48449
0.509328
0.539505
0.547242
0.545866
0.534819
0.525849
0.528736
0.549561
0.598221
0.646208
0.683488
0.718678
0.338526
0.319229
0.320364
0.321208
0.32333
0.326404
0.33038
0.339917
0.354186
0.36973
0.410496
0.47363
0.484319
0.509049
0.539245
0.547014
0.545637
0.534553
0.525521
0.528391
0.549326
0.597985
0.645979
0.683345
0.718566
0.338525
0.319229
0.320363
0.321207
0.323329
0.326395
0.330374
0.339926
0.354193
0.369764
0.410646
0.473803
0.484509
0.509332
0.539499
0.547231
0.545854
0.534803
0.525836
0.528729
0.54956
0.598231
0.646214
0.683491
0.71868
0.338526
0.31923
0.320364
0.321208
0.323332
0.326396
0.330378
0.339935
0.354197
0.369766
0.410636
0.473783
0.484497
0.509319
0.539498
0.547249
0.545878
0.534844
0.525874
0.528759
0.549576
0.598231
0.646219
0.683492
0.718663
0.338526
0.319228
0.320363
0.321206
0.323325
0.326402
0.330373
0.3399
0.354183
0.369731
0.410493
0.473615
0.484338