/*--------------------------------*- C++ -*----------------------------------*\
| =========                 |                                                 |
| \\      /  F ield         | OpenFOAM: The Open Source CFD Toolbox           |
|  \\    /   O peration     | Version:  4.1                                   |
|   \\  /    A nd           | Web:      www.OpenFOAM.org                      |
|    \\/     M anipulation  |                                                 |
\*---------------------------------------------------------------------------*/
FoamFile
{
    version     2.0;
    format      ascii;
    class       volVectorField;
    location    "0.32";
    object      U;
}
// * * * * * * * * * * * * * * * * * * * * * * * * * * * * * * * * * * * * * //

dimensions      [0 1 -1 0 0 0 0];

internalField   nonuniform List<vector> 
52500
(
(1.81823 -2.03537e-07 -0.00217371)
(1.84407 -4.78215e-07 -0.00197969)
(1.84252 -8.59266e-07 -0.0019854)
(1.84016 -1.40846e-06 -0.00199005)
(1.83643 -2.20382e-06 -0.00200274)
(1.83061 -3.43221e-06 -0.0020221)
(1.82171 -4.46151e-06 -0.00204801)
(1.80813 -4.83257e-06 -0.00211058)
(1.78443 -1.38726e-05 -0.00219254)
(1.74174 -1.55743e-05 -0.00232212)
(1.66276 0.000173375 -0.00268153)
(1.49254 0.00106957 -0.00342242)
(1.02994 0.00450967 -0.0052209)
(-0.0601819 0.0223637 -0.0093155)
(-0.616628 0.0366883 -0.0106209)
(-0.553882 0.0327852 -0.0104864)
(-0.519883 0.0340462 -0.0116287)
(-0.537041 0.0368503 -0.0116493)
(-0.525751 0.0372681 -0.0111256)
(-0.484265 0.0370642 -0.0109979)
(-0.418726 0.0363327 -0.0110139)
(-0.333024 0.0354317 -0.0110162)
(-0.233529 0.0347573 -0.0110169)
(-0.183648 0.0353206 -0.0109747)
(0.0177941 0.0355678 -0.0103957)
(1.81823 -2.89404e-07 -0.00217371)
(1.84407 -6.99154e-07 -0.00197969)
(1.84252 -1.27727e-06 -0.0019854)
(1.84016 -2.12368e-06 -0.00199005)
(1.83643 -3.31619e-06 -0.00200274)
(1.83061 -5.0924e-06 -0.00202208)
(1.82171 -6.58209e-06 -0.00204804)
(1.80812 -5.41279e-06 -0.00211065)
(1.78442 -2.23473e-05 -0.00219223)
(1.74189 6.16926e-06 -0.00231945)
(1.6638 0.000568973 -0.00267449)
(1.49724 0.0032251 -0.00339403)
(1.05159 0.0134999 -0.00513558)
(-0.0252533 0.064614 -0.00912159)
(-0.605998 0.103512 -0.0105978)
(-0.550641 0.0856975 -0.0103717)
(-0.5123 0.0870316 -0.0115609)
(-0.529828 0.0923156 -0.0116004)
(-0.520092 0.0925385 -0.0110662)
(-0.479519 0.0930537 -0.0109302)
(-0.415286 0.0923635 -0.01094)
(-0.331027 0.0914195 -0.0109442)
(-0.231865 0.0905319 -0.0109457)
(-0.183244 0.0919333 -0.0109048)
(0.0187722 0.0916124 -0.0103172)
(1.81823 -4.40838e-07 -0.00217371)
(1.84407 -1.0875e-06 -0.0019797)
(1.84252 -2.05189e-06 -0.0019854)
(1.84015 -3.49212e-06 -0.00199006)
(1.83643 -5.68925e-06 -0.00200275)
(1.83061 -9.69746e-06 -0.00202208)
(1.82171 -6.09457e-06 -0.00204808)
(1.80811 -1.44048e-05 -0.00211068)
(1.78444 -1.82627e-05 -0.00219193)
(1.74224 0.000140348 -0.00231457)
(1.66585 0.000896315 -0.002661)
(1.50653 0.00482209 -0.00333793)
(1.09546 0.0208741 -0.00496751)
(0.0511004 0.100884 -0.0087599)
(-0.586719 0.17662 -0.010596)
(-0.55141 0.144504 -0.0102202)
(-0.499892 0.147079 -0.0114688)
(-0.517596 0.155849 -0.0115454)
(-0.510421 0.156533 -0.0110055)
(-0.471032 0.158588 -0.0108531)
(-0.409096 0.15837 -0.0108556)
(-0.327173 0.157375 -0.0108625)
(-0.228576 0.156246 -0.0108665)
(-0.182219 0.158899 -0.0108257)
(0.020886 0.15812 -0.0102275)
(1.81823 -2.80877e-07 -0.00217371)
(1.84406 -9.25555e-07 -0.00197969)
(1.84252 -1.9313e-06 -0.0019854)
(1.84015 -3.41563e-06 -0.00199005)
(1.83642 -5.58705e-06 -0.00200275)
(1.8306 -9.86087e-06 -0.00202208)
(1.82171 -2.31416e-06 -0.00204805)
(1.80811 -1.56367e-05 -0.00211029)
(1.78455 2.61634e-05 -0.00219224)
(1.74269 0.000372441 -0.00230909)
(1.66829 0.000870504 -0.00264012)
(1.51899 0.00529657 -0.00325638)
(1.15632 0.0247823 -0.00471126)
(0.176715 0.118999 -0.00815164)
(-0.554435 0.248639 -0.0105977)
(-0.553099 0.203965 -0.0100196)
(-0.481557 0.205685 -0.0113436)
(-0.499621 0.218985 -0.0114839)
(-0.495558 0.220659 -0.010937)
(-0.457963 0.225065 -0.0107552)
(-0.399748 0.226334 -0.0107468)
(-0.321222 0.225692 -0.0107578)
(-0.22305 0.224468 -0.0107681)
(-0.18006 0.22905 -0.0107278)
(0.0245181 0.227912 -0.0101117)
(1.81823 -2.64204e-07 -0.00217372)
(1.84406 -7.57249e-07 -0.00197969)
(1.84251 -1.24479e-06 -0.0019854)
(1.84015 -1.76432e-06 -0.00199006)
(1.83642 -7.83471e-07 -0.00200277)
(1.83061 6.25106e-06 -0.0020221)
(1.82171 -3.91191e-05 -0.00204797)
(1.80814 5.11977e-05 -0.00210982)
(1.78477 -2.34319e-05 -0.00219269)
(1.74304 8.11897e-06 -0.0023033)
(1.67058 9.47382e-05 -0.00261447)
(1.53269 0.00492694 -0.00316723)
(1.22173 0.0254949 -0.00441979)
(0.342138 0.115786 -0.00742016)
(-0.49978 0.314332 -0.0105608)
(-0.555266 0.26539 -0.00981084)
(-0.460639 0.263228 -0.0111801)
(-0.476895 0.280913 -0.0114099)
(-0.476405 0.284362 -0.010873)
(-0.440225 0.290337 -0.0106512)
(-0.386491 0.294627 -0.0106236)
(-0.312462 0.295371 -0.0106445)
(-0.214186 0.294396 -0.0106597)
(-0.176573 0.301562 -0.0106155)
(0.0293939 0.30036 -0.00999446)
(1.81823 -4.36046e-07 -0.00217371)
(1.84406 -8.56208e-07 -0.00197969)
(1.84251 -1.36547e-06 -0.00198539)
(1.84015 -2.03616e-06 -0.00199002)
(1.83643 -1.63493e-06 -0.00200274)
(1.83058 1.63896e-05 -0.00202165)
(1.82175 -6.2176e-05 -0.00204818)
(1.80813 8.86432e-05 -0.0021094)
(1.78451 -9.30979e-05 -0.00219272)
(1.74285 -0.000369315 -0.00229905)
(1.67267 -0.000730523 -0.0025961)
(1.54555 0.0043544 -0.00308967)
(1.28041 0.0243697 -0.00413984)
(0.525982 0.10252 -0.0067073)
(-0.415345 0.364397 -0.0103748)
(-0.556045 0.331543 -0.00968419)
(-0.439331 0.319721 -0.0109782)
(-0.449592 0.341651 -0.0113328)
(-0.45324 0.349232 -0.010814)
(-0.417927 0.356072 -0.0105399)
(-0.368072 0.364156 -0.0104817)
(-0.300057 0.367837 -0.010499)
(-0.200849 0.367773 -0.0105183)
(-0.171105 0.378931 -0.0104931)
(0.0360105 0.378639 -0.00985461)
(1.81823 -2.16138e-07 -0.00217372)
(1.84406 -6.13203e-07 -0.00197969)
(1.84251 -1.59373e-06 -0.00198539)
(1.84015 -3.06994e-06 -0.00199003)
(1.83644 -5.04253e-06 -0.00200283)
(1.83056 7.87446e-06 -0.0020214)
(1.82177 -2.98182e-05 -0.00204835)
(1.80812 3.63062e-05 -0.00210887)
(1.78436 -3.74632e-05 -0.00219421)
(1.74248 -0.000148022 -0.00229863)
(1.67443 -0.00110743 -0.0025718)
(1.55796 0.00384688 -0.0030283)
(1.3316 0.0216304 -0.00387541)
(0.718162 0.0877472 -0.00593936)
(-0.276305 0.380608 -0.00982954)
(-0.544325 0.406115 -0.00966792)
(-0.421589 0.374234 -0.0107082)
(-0.417117 0.399385 -0.0112112)
(-0.425148 0.415051 -0.0107733)
(-0.391534 0.422957 -0.0104248)
(-0.344129 0.434225 -0.0103392)
(-0.283043 0.44316 -0.010354)
(-0.181152 0.445312 -0.0103708)
(-0.162301 0.462856 -0.0103547)
(0.044815 0.465287 -0.00965852)
(1.81823 -8.02361e-08 -0.00217372)
(1.84406 -3.66415e-07 -0.00197968)
(1.84251 -8.64412e-07 -0.00198538)
(1.84015 -1.77749e-06 -0.00199002)
(1.83644 -3.36247e-06 -0.00200285)
(1.83055 1.84634e-07 -0.00202135)
(1.82176 -1.59024e-05 -0.00204837)
(1.80812 1.26576e-06 -0.00210858)
(1.78434 -2.21106e-05 -0.0021958)
(1.74193 -5.52732e-05 -0.00229651)
(1.67599 -0.000796239 -0.00255602)
(1.56827 0.00271631 -0.00299784)
(1.37232 0.0156818 -0.00364222)
(0.910907 0.0686234 -0.00522561)
(-0.0711731 0.345129 -0.00887748)
(-0.508818 0.487433 -0.00985063)
(-0.414417 0.42541 -0.010359)
(-0.379921 0.452503 -0.0110575)
(-0.390524 0.480577 -0.0107475)
(-0.361568 0.490345 -0.0103089)
(-0.314186 0.504712 -0.01019)
(-0.259977 0.521737 -0.0102051)
(-0.152534 0.528434 -0.0102184)
(-0.147971 0.555871 -0.0102022)
(0.0566979 0.568616 -0.00947459)
(1.81823 -1.6519e-07 -0.00217371)
(1.84406 -6.35779e-07 -0.00197969)
(1.84251 -1.07818e-06 -0.00198538)
(1.84015 -1.91275e-06 -0.00199003)
(1.83644 -3.6899e-06 -0.0020029)
(1.83055 -6.90509e-06 -0.00202124)
(1.82177 -1.34176e-05 -0.00204839)
(1.80811 -1.91044e-05 -0.00210882)
(1.78431 -2.88361e-05 -0.00219563)
(1.74181 -3.80013e-05 -0.00229674)
(1.67678 -3.01121e-05 -0.00256694)
(1.57363 0.000614468 -0.00295096)
(1.40291 0.00894804 -0.00342551)
(1.06774 0.0503817 -0.00462445)
(0.196433 0.26165 -0.00771158)
(-0.43856 0.560995 -0.00989659)
(-0.419909 0.476509 -0.00989557)
(-0.338487 0.501324 -0.0108826)
(-0.34814 0.544068 -0.0107249)
(-0.327569 0.558114 -0.0102073)
(-0.276954 0.575854 -0.0100522)
(-0.229347 0.602428 -0.0100218)
(-0.111565 0.617054 -0.0100033)
(-0.12131 0.657919 -0.0100447)
(0.0767238 0.694848 -0.00911212)
(1.81823 -1.7142e-07 -0.00217371)
(1.84406 -9.74099e-07 -0.00197969)
(1.84251 -1.83799e-06 -0.00198537)
(1.84015 -2.70068e-06 -0.00199002)
(1.83643 -3.55984e-06 -0.00200289)
(1.83054 -9.91901e-06 -0.00202126)
(1.82176 3.1347e-06 -0.00204836)
(1.80811 -2.58906e-05 -0.00210911)
(1.78433 1.81663e-05 -0.0021952)
(1.74192 3.33119e-05 -0.00229551)
(1.67662 0.000153735 -0.00256704)
(1.57666 -0.0001168 -0.00292199)
(1.42503 0.00520268 -0.00327619)
(1.1763 0.0357556 -0.00413346)
(0.503069 0.173716 -0.00650746)
(-0.316418 0.591219 -0.00993261)
(-0.425926 0.541239 -0.0094807)
(-0.297533 0.546706 -0.0106617)
(-0.297441 0.602632 -0.0106995)
(-0.288468 0.626034 -0.0101345)
(-0.232565 0.647806 -0.00991391)
(-0.190789 0.683238 -0.00982526)
(-0.0555032 0.713544 -0.00975315)
(-0.0678444 0.774997 -0.00980426)
(0.106364 0.892137 -0.00869107)
(1.81823 5.82168e-07 -2.31578e-09)
(1.84406 1.23529e-06 1.4497e-09)
(1.84251 2.19525e-06 1.74976e-09)
(1.84015 3.54527e-06 2.36502e-09)
(1.83642 5.35984e-06 3.77198e-09)
(1.8306 7.90721e-06 5.92777e-09)
(1.8217 1.06826e-05 2.02844e-08)
(1.8081 1.83829e-05 2.70766e-08)
(1.7844 2.07354e-05 4.33546e-08)
(1.74172 3.25667e-05 4.94286e-08)
(1.66277 0.000231267 1.06916e-08)
(1.49257 0.00113007 -1.95529e-07)
(1.02974 0.0045732 -1.23138e-06)
(-0.0606182 0.0224962 -5.10514e-06)
(-0.61665 0.0367626 1.1918e-06)
(-0.553704 0.0328464 9.376e-08)
(-0.519779 0.0340597 1.4741e-07)
(-0.537082 0.0368495 2.63296e-07)
(-0.52582 0.037268 2.88807e-07)
(-0.484335 0.0370637 3.1439e-07)
(-0.418784 0.0363309 3.41875e-07)
(-0.333066 0.0354289 3.69346e-07)
(-0.233571 0.0347541 3.7775e-07)
(-0.183677 0.0353175 4.08842e-07)
(0.0177909 0.0355828 4.77284e-07)
(1.81823 3.85504e-08 -2.2417e-09)
(1.84407 -3.69559e-08 1.35823e-09)
(1.84252 -5.44807e-08 1.67672e-09)
(1.84015 -2.03567e-07 2.37934e-09)
(1.83643 -6.71324e-07 3.51363e-09)
(1.83061 -2.06162e-06 5.01824e-09)
(1.82171 -6.08325e-06 2.04338e-08)
(1.80812 -4.87452e-06 2.38414e-08)
(1.78442 -2.82778e-05 3.89646e-08)
(1.74191 -2.31659e-05 5.14184e-08)
(1.66384 0.000491065 4.15927e-08)
(1.4973 0.00305327 -9.42514e-08)
(1.05155 0.0131554 -8.83875e-07)
(-0.0253199 0.06387 -3.7471e-06)
(-0.605613 0.103367 3.86715e-07)
(-0.550229 0.0860098 5.32502e-07)
(-0.51219 0.0871919 3.07056e-07)
(-0.529885 0.0923552 2.05905e-07)
(-0.520169 0.0925505 2.7044e-07)
(-0.479597 0.0930598 3.02371e-07)
(-0.415352 0.0923689 3.33771e-07)
(-0.33108 0.091425 3.65756e-07)
(-0.231922 0.09053 3.77516e-07)
(-0.183269 0.0919149 4.05927e-07)
(0.0187818 0.091627 4.83743e-07)
(1.81823 3.60312e-07 2.91495e-11)
(1.84406 9.19887e-07 6.26982e-09)
(1.84251 1.70328e-06 7.12251e-09)
(1.84015 2.74536e-06 9.37107e-09)
(1.83642 3.98434e-06 1.30911e-08)
(1.8306 5.20384e-06 2.11518e-08)
(1.8217 1.1541e-05 2.64241e-08)
(1.80809 1.41738e-05 5.25826e-08)
(1.78439 2.45654e-05 7.01453e-08)
(1.74216 0.000196337 8.70758e-08)
(1.66571 0.000959577 8.20505e-08)
(1.50617 0.00487209 -1.77397e-08)
(1.09407 0.0208652 -6.59405e-07)
(0.0483358 0.100872 -3.40472e-06)
(-0.588109 0.176638 8.72e-08)
(-0.552047 0.144805 5.19144e-07)
(-0.500326 0.147173 3.68624e-07)
(-0.517796 0.155854 1.89671e-07)
(-0.510524 0.156522 2.80225e-07)
(-0.471111 0.158584 2.86422e-07)
(-0.409152 0.158373 3.16373e-07)
(-0.327208 0.157383 3.55732e-07)
(-0.22861 0.156247 3.7965e-07)
(-0.182223 0.158877 4.08185e-07)
(0.0208706 0.158137 5.17182e-07)
(1.81823 5.64477e-08 -4.26567e-10)
(1.84407 1.51731e-07 4.69073e-09)
(1.84252 2.74541e-07 5.42299e-09)
(1.84016 4.19444e-07 7.38367e-09)
(1.83643 4.49234e-07 1.09416e-08)
(1.83061 -4.29714e-07 1.87865e-08)
(1.82172 8.90652e-06 1.71619e-08)
(1.80813 3.46738e-06 3.64588e-08)
(1.78458 5.72003e-05 5.46101e-08)
(1.74272 0.00041852 6.05429e-08)
(1.66832 0.000932074 5.7365e-08)
(1.51895 0.00535927 1.70275e-08)
(1.15588 0.0248431 -2.6059e-07)
(0.175583 0.119204 -1.65591e-06)
(-0.554562 0.248249 -4.01937e-07)
(-0.553026 0.204123 7.30198e-07)
(-0.481896 0.20562 4.91156e-07)
(-0.499827 0.218914 2.13942e-07)
(-0.495659 0.220608 2.90249e-07)
(-0.458027 0.225041 2.62758e-07)
(-0.399787 0.226326 2.94351e-07)
(-0.321239 0.225694 3.46761e-07)
(-0.223069 0.224466 3.86433e-07)
(-0.180048 0.229029 4.07188e-07)
(0.0244803 0.227937 5.56332e-07)
(1.81823 1.05567e-08 2.87727e-09)
(1.84406 2.49128e-07 1.17818e-08)
(1.84251 5.12299e-07 1.33544e-08)
(1.84015 1.04627e-06 1.77146e-08)
(1.83642 3.7302e-06 2.22642e-08)
(1.8306 1.3788e-05 3.05072e-08)
(1.82171 -2.40326e-05 5.47484e-08)
(1.80813 7.20525e-05 4.9421e-08)
(1.78475 1.62556e-05 4.88359e-08)
(1.74298 9.45192e-05 1.37293e-07)
(1.67042 0.00024788 2.05072e-07)
(1.53227 0.00516968 1.25634e-07)
(1.22037 0.0258494 -3.72828e-07)
(0.338407 0.116593 -3.28541e-06)
(-0.501682 0.3148 -6.64066e-08)
(-0.555922 0.265003 1.05372e-06)
(-0.461377 0.262846 7.28339e-07)
(-0.477104 0.280738 3.72326e-07)
(-0.476484 0.284269 2.84531e-07)
(-0.440267 0.290289 2.23534e-07)
(-0.386511 0.294609 2.61378e-07)
(-0.312464 0.295366 3.4378e-07)
(-0.214198 0.29439 3.89159e-07)
(-0.176547 0.30154 4.01611e-07)
(0.0293492 0.300394 5.95758e-07)
(1.81823 1.5698e-07 1.941e-09)
(1.84407 6.49278e-07 7.95273e-09)
(1.84252 1.2068e-06 8.87386e-09)
(1.84016 2.2359e-06 1.14712e-08)
(1.83644 5.56672e-06 1.47389e-08)
(1.83059 2.86695e-05 1.87037e-08)
(1.82177 -3.90571e-05 4.42389e-08)
(1.80816 0.000119628 1.67952e-09)
(1.78459 -3.09581e-05 9.14716e-08)
(1.74298 -0.000238943 1.61119e-07)
(1.67287 -0.000508672 1.4189e-07)
(1.54584 0.00472124 2.28593e-08)
(1.2808 0.0249733 -3.62544e-07)
(0.526409 0.103744 -2.08465e-06)
(-0.414229 0.365365 -2.0747e-06)
(-0.555612 0.331068 2.60069e-07)
(-0.439195 0.319262 5.61734e-08)
(-0.449543 0.341419 1.62938e-07)
(-0.453255 0.349111 3.28092e-07)
(-0.417933 0.356015 1.7407e-07)
(-0.368067 0.364133 2.21924e-07)
(-0.300046 0.367826 3.2099e-07)
(-0.200858 0.367762 3.8029e-07)
(-0.171065 0.37891 3.90069e-07)
(0.0359653 0.378676 6.37169e-07)
(1.81823 -1.08014e-07 4.21528e-09)
(1.84407 -5.86227e-08 1.6207e-08)
(1.84252 -4.03306e-08 1.90681e-08)
(1.84015 -9.63503e-08 2.7886e-08)
(1.83644 -6.15256e-07 4.0662e-08)
(1.83057 1.41971e-05 3.77167e-08)
(1.82178 -2.42522e-05 1.038e-07)
(1.80814 4.02264e-05 3.95923e-08)
(1.78442 -2.73937e-05 1.3552e-07)
(1.74258 -0.000156763 3.94396e-07)
(1.67457 -0.00116125 4.65849e-07)
(1.55822 0.00373635 4.87345e-07)
(1.33208 0.0215019 3.13158e-07)
(0.719274 0.0877598 2.17336e-07)
(-0.274382 0.38075 3.41164e-07)
(-0.543298 0.405972 8.38442e-07)
(-0.42113 0.374025 2.45108e-07)
(-0.416879 0.399166 -1.19221e-07)
(-0.425075 0.414944 5.54276e-08)
(-0.391496 0.422906 1.19773e-07)
(-0.344103 0.434201 1.40934e-07)
(-0.283018 0.443146 2.69972e-07)
(-0.181158 0.445297 3.67665e-07)
(-0.162253 0.462835 3.90017e-07)
(0.0447713 0.465326 6.76219e-07)
(1.81823 5.20695e-07 1.01273e-09)
(1.84407 1.13494e-06 9.09614e-09)
(1.84252 1.97254e-06 1.06565e-08)
(1.84016 2.951e-06 1.53749e-08)
(1.83645 3.79742e-06 2.17762e-08)
(1.83057 1.12498e-05 2.42157e-08)
(1.82179 -8.68172e-07 5.76448e-08)
(1.80816 2.09584e-05 -7.91174e-09)
(1.78441 1.29502e-05 1.05164e-07)
(1.74199 -1.07978e-05 1.53152e-07)
(1.67601 -0.000740715 2.48058e-07)
(1.56824 0.00276698 2.67509e-07)
(1.37215 0.0157253 2.86816e-07)
(0.910414 0.0686474 3.86619e-07)
(-0.0718521 0.345034 -1.98692e-07)
(-0.508822 0.487392 1.17104e-06)
(-0.414322 0.425294 -6.37838e-07)
(-0.379775 0.452323 -4.0988e-07)
(-0.390401 0.480502 -4.37551e-09)
(-0.361509 0.490306 4.41155e-08)
(-0.314144 0.504696 6.52307e-08)
(-0.259942 0.521723 2.20982e-07)
(-0.152542 0.528419 3.50197e-07)
(-0.147917 0.555849 3.99134e-07)
(0.0566595 0.568659 7.0819e-07)
(1.81823 2.30185e-07 5.46679e-09)
(1.84407 3.16588e-07 2.08624e-08)
(1.84252 3.97162e-07 2.4114e-08)
(1.84016 3.24597e-07 3.39384e-08)
(1.83645 -5.81536e-08 4.71726e-08)
(1.83056 -7.65038e-07 5.04282e-08)
(1.82179 -1.52096e-06 1.23668e-07)
(1.80815 -1.94088e-06 6.55326e-08)
(1.7844 5.04813e-06 1.89171e-07)
(1.74192 3.72529e-05 4.02561e-07)
(1.67693 0.000110654 8.29625e-07)
(1.57385 0.000814296 7.79621e-07)
(1.40325 0.00919756 4.72623e-07)
(1.06818 0.0506185 1.7878e-08)
(0.196916 0.261712 -2.56752e-08)
(-0.438343 0.561015 2.57619e-07)
(-0.419855 0.476274 -1.2845e-06)
(-0.338328 0.501155 -5.83607e-07)
(-0.347982 0.544005 -3.41898e-07)
(-0.327493 0.558081 -1.08501e-07)
(-0.2769 0.575847 1.22922e-08)
(-0.229305 0.602416 1.74803e-07)
(-0.111576 0.617038 3.22833e-07)
(-0.121253 0.657901 4.0527e-07)
(0.0766916 0.694892 6.87628e-07)
(1.81823 -1.91832e-08 1.79655e-09)
(1.84407 -1.79594e-07 1.49523e-08)
(1.84252 -2.29134e-07 1.79322e-08)
(1.84016 -1.80971e-07 2.73905e-08)
(1.83645 -6.39672e-08 4.12931e-08)
(1.83057 -5.14627e-06 3.20142e-08)
(1.82179 7.1004e-06 1.25742e-07)
(1.80817 -1.7596e-05 6.46642e-08)
(1.78444 2.22828e-05 1.5815e-07)
(1.74209 2.98097e-05 3.77392e-07)
(1.67682 0.000136479 7.73478e-07)
(1.57693 -0.000160614 4.9898e-07)
(1.4254 0.00510346 4.58145e-07)
(1.17682 0.0356129 6.11051e-07)
(0.504046 0.173566 1.90022e-06)
(-0.315591 0.591014 1.10187e-07)
(-0.425673 0.541105 -2.87689e-06)
(-0.297213 0.546567 -9.3714e-07)
(-0.29722 0.602574 -3.05538e-07)
(-0.288372 0.626011 -2.81536e-07)
(-0.232499 0.647805 -2.20824e-08)
(-0.190745 0.683227 1.25295e-07)
(-0.0555127 0.713528 2.78376e-07)
(-0.067794 0.774986 3.96027e-07)
(0.106337 0.892174 6.29158e-07)
(1.81823 -1.7154e-07 7.79663e-09)
(1.84407 -4.27784e-07 1.55844e-08)
(1.84252 -7.76408e-07 1.7218e-08)
(1.84016 -1.27137e-06 2.18445e-08)
(1.83643 -1.99828e-06 2.88277e-08)
(1.83061 -3.13637e-06 4.57897e-08)
(1.82172 -4.09861e-06 2.31479e-08)
(1.80813 -4.60839e-06 6.89814e-08)
(1.78444 -1.35855e-05 8.38408e-08)
(1.74176 -1.49525e-05 1.04325e-07)
(1.66279 0.000175321 1.1653e-07)
(1.49252 0.00107429 1.01134e-07)
(1.02947 0.00452854 -1.82911e-07)
(-0.0611135 0.0224793 -1.79589e-06)
(-0.616985 0.0367573 1.69627e-06)
(-0.553913 0.0327348 -2.4139e-07)
(-0.519942 0.0339976 -4.37197e-07)
(-0.5371 0.0368234 -3.69344e-07)
(-0.525784 0.0372538 -3.98355e-07)
(-0.4843 0.0370575 -1.7106e-07)
(-0.418762 0.0363281 -2.9257e-08)
(-0.333053 0.0354277 4.06263e-08)
(-0.233564 0.0347535 9.32837e-08)
(-0.183671 0.0353172 1.13159e-07)
(0.0177922 0.0355824 1.29952e-07)
(1.81823 -3.50563e-09 5.02138e-09)
(1.84407 9.33764e-08 1.26447e-08)
(1.84252 1.93154e-07 1.40023e-08)
(1.84016 2.77106e-07 1.78103e-08)
(1.83643 3.47879e-07 2.3835e-08)
(1.83061 4.88396e-07 3.77168e-08)
(1.82172 6.85289e-07 3.0063e-08)
(1.80813 6.07789e-06 6.56132e-08)
(1.78443 -4.68559e-06 8.59862e-08)
(1.74192 3.29188e-05 1.10496e-07)
(1.66384 0.000607565 1.33838e-07)
(1.49724 0.00327692 1.19969e-07)
(1.05126 0.0135772 -1.8643e-07)
(-0.0258474 0.0648145 -1.68569e-06)
(-0.606035 0.103593 8.18676e-07)
(-0.550544 0.0856295 -4.36906e-07)
(-0.512251 0.086963 -4.69505e-07)
(-0.529848 0.092283 -3.83422e-07)
(-0.520116 0.0925226 -4.00764e-07)
(-0.479554 0.0930481 -1.73478e-07)
(-0.415327 0.0923643 -3.50996e-08)
(-0.331066 0.0914229 3.65993e-08)
(-0.231915 0.0905288 9.24362e-08)
(-0.183263 0.0919144 1.13188e-07)
(0.0187831 0.0916262 1.29977e-07)
(1.81823 -2.16217e-07 5.88683e-09)
(1.84407 -5.14357e-07 1.55757e-08)
(1.84252 -1.01469e-06 1.80066e-08)
(1.84016 -1.81216e-06 2.54568e-08)
(1.83643 -3.10272e-06 3.31645e-08)
(1.83061 -5.66966e-06 5.21654e-08)
(1.82172 -1.42753e-06 4.63814e-08)
(1.80813 -6.54956e-06 9.43287e-08)
(1.78446 -6.28091e-06 1.47922e-07)
(1.74228 0.000156597 2.31424e-07)
(1.6659 0.000918346 3.82027e-07)
(1.50654 0.00484594 8.61481e-07)
(1.09518 0.0209024 2.70543e-06)
(0.0505139 0.101033 9.94811e-06)
(-0.586873 0.17667 -2.72135e-06)
(-0.551378 0.144491 -7.29459e-07)
(-0.499856 0.147034 -7.29211e-07)
(-0.517612 0.155823 -5.38936e-07)
(-0.510441 0.156513 -3.89131e-07)
(-0.471058 0.15858 -1.62228e-07)
(-0.409123 0.158371 -3.90422e-08)
(-0.327192 0.157382 3.36614e-08)
(-0.228602 0.156246 9.2125e-08)
(-0.182217 0.158876 1.14249e-07)
(0.0208717 0.158136 1.31642e-07)
(1.81823 2.11358e-07 2.46805e-09)
(1.84407 3.90248e-07 7.72432e-09)
(1.84252 5.89594e-07 8.62147e-09)
(1.84015 8.14678e-07 1.11614e-08)
(1.83643 9.11242e-07 1.54363e-08)
(1.83061 -1.81216e-07 2.48431e-08)
(1.82171 1.16231e-05 2.43841e-08)
(1.80812 2.81008e-06 4.47324e-08)
(1.78457 5.66472e-05 7.52117e-08)
(1.74272 0.000417914 1.16009e-07)
(1.66834 0.000928827 2.02627e-07)
(1.519 0.00535414 4.16206e-07)
(1.15617 0.0248296 1.00328e-06)
(0.176383 0.119069 2.58674e-06)
(-0.554395 0.24858 -1.60755e-08)
(-0.552939 0.204044 -1.70706e-06)
(-0.481477 0.205687 -8.26945e-07)
(-0.499621 0.218968 -5.02926e-07)
(-0.495574 0.220641 -3.54871e-07)
(-0.457976 0.225056 -1.47413e-07)
(-0.399759 0.226335 -3.38312e-08)
(-0.321224 0.225698 4.18101e-08)
(-0.223061 0.224468 9.51803e-08)
(-0.180042 0.229029 1.18035e-07)
(0.0244812 0.227937 1.35828e-07)
(1.81823 -4.68493e-08 5.46089e-09)
(1.84407 -1.87081e-07 1.43617e-08)
(1.84252 -1.42274e-07 1.65568e-08)
(1.84016 8.76014e-08 2.31692e-08)
(1.83643 2.02647e-06 2.69633e-08)
(1.83062 1.01724e-05 3.22995e-08)
(1.82173 -3.27759e-05 9.37798e-08)
(1.80817 5.72291e-05 5.87925e-08)
(1.78482 -9.85463e-06 3.54206e-08)
(1.7431 2.76309e-05 2.0774e-07)
(1.67063 0.000113175 4.50932e-07)
(1.53266 0.00493016 8.37777e-07)
(1.22141 0.0254749 1.79683e-06)
(0.341086 0.115813 7.10312e-06)
(-0.500143 0.314216 -6.38796e-07)
(-0.555282 0.265374 -1.48561e-06)
(-0.460725 0.263193 -4.85564e-07)
(-0.476938 0.280887 -3.53914e-07)
(-0.476425 0.284352 -3.06551e-07)
(-0.440233 0.290329 -1.30945e-07)
(-0.386492 0.294628 -1.43829e-08)
(-0.312454 0.295376 5.86407e-08)
(-0.214192 0.294394 1.05797e-07)
(-0.176542 0.301542 1.26599e-07)
(0.0293496 0.300394 1.43581e-07)
(1.81823 1.07829e-08 1.79904e-09)
(1.84407 1.78141e-07 4.96614e-09)
(1.84252 3.68953e-07 5.64136e-09)
(1.84016 7.88772e-07 7.6093e-09)
(1.83644 3.11228e-06 9.46215e-09)
(1.83058 2.42604e-05 1.20398e-08)
(1.82176 -4.84345e-05 3.13383e-08)
(1.80815 0.000107152 -8.76254e-09)
(1.78454 -5.36334e-05 5.29599e-08)
(1.74289 -0.000290984 1.36346e-07)
(1.67269 -0.000606184 2.0572e-07)
(1.54551 0.00454656 3.73248e-07)
(1.28019 0.0246593 8.81802e-07)
(0.525246 0.102972 2.57224e-06)
(-0.415942 0.364792 3.01484e-06)
(-0.556187 0.331565 1.62729e-07)
(-0.439399 0.319614 -8.83069e-09)
(-0.449614 0.341593 -2.08419e-07)
(-0.453256 0.349212 -2.46775e-07)
(-0.417934 0.356065 -8.87327e-08)
(-0.368064 0.364157 1.63935e-08)
(-0.300044 0.36784 8.22982e-08)
(-0.200856 0.367769 1.19499e-07)
(-0.171063 0.378912 1.37624e-07)
(0.0359651 0.378676 1.53326e-07)
(1.81823 -3.09345e-07 5.90466e-09)
(1.84407 -5.17994e-07 1.21315e-08)
(1.84252 -1.12236e-06 1.33118e-08)
(1.84016 -1.98575e-06 1.65339e-08)
(1.83645 -3.14399e-06 2.10824e-08)
(1.83058 1.10762e-05 2.79974e-08)
(1.8218 -2.57089e-05 4.12605e-08)
(1.80817 4.03152e-05 2.13743e-08)
(1.78447 -2.86434e-05 9.33075e-08)
(1.74263 -0.000134277 1.56233e-07)
(1.67463 -0.00109188 1.99373e-07)
(1.55827 0.0038764 2.7665e-07)
(1.33202 0.021719 3.85973e-07)
(0.718672 0.0880095 3.14112e-07)
(-0.275326 0.380879 -3.1751e-07)
(-0.543803 0.40606 -8.95282e-07)
(-0.421443 0.374176 -2.77663e-07)
(-0.417064 0.399289 -1.69404e-07)
(-0.425133 0.415011 -1.22072e-07)
(-0.391528 0.422945 -1.79149e-08)
(-0.344116 0.434225 4.44561e-08)
(-0.283023 0.443159 1.00431e-07)
(-0.181162 0.445305 1.33199e-07)
(-0.162253 0.462837 1.49827e-07)
(0.0447704 0.465327 1.63649e-07)
(1.81823 -1.2873e-08 2.53728e-09)
(1.84407 1.12835e-07 6.23038e-09)
(1.84252 1.65038e-07 6.80301e-09)
(1.84015 -2.03218e-08 8.28998e-09)
(1.83644 -7.20874e-07 1.07408e-08)
(1.83056 4.31946e-06 1.5017e-08)
(1.82178 -9.6976e-06 2.19155e-08)
(1.80814 1.00907e-05 1.70365e-08)
(1.78438 -8.4534e-06 4.64952e-08)
(1.74196 -3.40811e-05 7.27046e-08)
(1.676 -0.000748066 1.32534e-07)
(1.56824 0.00277992 1.00576e-07)
(1.37217 0.0157764 3.89821e-08)
(0.910371 0.0687808 -1.24484e-07)
(-0.071958 0.345379 -1.04335e-06)
(-0.508928 0.487384 -3.73202e-07)
(-0.414411 0.425262 -3.4187e-07)
(-0.379916 0.452357 -1.17821e-07)
(-0.390469 0.480524 -6.02551e-09)
(-0.361544 0.49033 2.25478e-08)
(-0.314164 0.504715 6.62296e-08)
(-0.259953 0.521735 1.16823e-07)
(-0.15255 0.528426 1.48076e-07)
(-0.147919 0.555851 1.62688e-07)
(0.0566581 0.56866 1.72188e-07)
(1.81823 1.36265e-07 3.95181e-09)
(1.84407 1.63292e-07 1.08836e-08)
(1.84252 1.2466e-07 1.19101e-08)
(1.84016 -1.3481e-07 1.46649e-08)
(1.83645 -7.2726e-07 2.01134e-08)
(1.83057 -1.93672e-06 2.39998e-08)
(1.8218 -2.44455e-06 4.49681e-08)
(1.80817 -2.59055e-06 6.1424e-08)
(1.78443 2.09739e-06 9.20784e-08)
(1.74198 3.5915e-05 1.72211e-07)
(1.67701 0.000121322 3.30745e-07)
(1.57393 0.000838513 2.5959e-07)
(1.40331 0.00925091 8.5603e-08)
(1.06809 0.0507251 -2.39902e-07)
(0.196678 0.261964 -1.14273e-06)
(-0.438267 0.561056 -5.17003e-08)
(-0.419797 0.476162 -1.1526e-07)
(-0.338374 0.501131 -7.96259e-08)
(-0.348026 0.544011 -5.46224e-09)
(-0.327519 0.558097 3.48573e-08)
(-0.276923 0.575863 8.24313e-08)
(-0.22932 0.602427 1.29382e-07)
(-0.111589 0.617045 1.57377e-07)
(-0.121257 0.657904 1.74178e-07)
(0.0766897 0.694893 1.73276e-07)
(1.81823 9.35099e-08 1.73463e-09)
(1.84407 -1.45578e-07 6.04459e-09)
(1.84252 -3.14027e-07 6.62567e-09)
(1.84015 -4.34221e-07 8.29287e-09)
(1.83644 -5.55114e-07 1.20476e-08)
(1.83056 -5.72317e-06 8.55482e-09)
(1.82178 5.822e-06 2.90003e-08)
(1.80814 -1.87919e-05 3.6237e-08)
(1.78441 2.14007e-05 4.67708e-08)
(1.74207 2.39703e-05 1.06985e-07)
(1.67682 0.000119893 2.3388e-07)
(1.57696 -0.000172744 1.89186e-07)
(1.42549 0.00509811 8.16754e-08)
(1.17695 0.0356191 -8.39235e-08)
(0.5042 0.173646 -5.11501e-07)
(-0.315352 0.591073 -1.72613e-07)
(-0.425549 0.541023 1.79966e-07)
(-0.297147 0.546569 -9.72705e-08)
(-0.297225 0.602592 -6.45667e-08)
(-0.288392 0.626023 2.87564e-08)
(-0.232522 0.647816 8.96839e-08)
(-0.190762 0.683237 1.28532e-07)
(-0.0555286 0.713534 1.5665e-07)
(-0.0678023 0.774989 1.79508e-07)
(0.106335 0.892175 1.68531e-07)
(1.81823 -9.04364e-10 2.24185e-09)
(1.84407 -1.67564e-08 7.03734e-09)
(1.84252 -3.19978e-08 7.49419e-09)
(1.84016 -6.62347e-08 8.45378e-09)
(1.83643 -1.62266e-07 1.05939e-08)
(1.83062 -3.67653e-07 1.44183e-08)
(1.82172 -3.55551e-07 2.68901e-08)
(1.80814 1.35257e-06 3.91957e-08)
(1.78445 -4.46851e-06 5.26256e-08)
(1.74178 -1.84302e-06 7.25435e-08)
(1.66282 0.000191138 1.02895e-07)
(1.49255 0.00109006 1.50372e-07)
(1.02943 0.00454355 1.88889e-07)
(-0.0611725 0.022508 1.98627e-07)
(-0.616958 0.0367818 2.72372e-08)
(-0.553887 0.0327533 -2.92892e-08)
(-0.519922 0.0339988 -8.95021e-08)
(-0.537092 0.036822 -9.10099e-08)
(-0.52578 0.0372521 -3.78683e-08)
(-0.484298 0.0370562 3.67416e-08)
(-0.418765 0.0363275 7.25574e-08)
(-0.333056 0.0354274 6.91798e-08)
(-0.233568 0.0347534 5.82516e-08)
(-0.183672 0.0353173 2.39125e-08)
(0.0177901 0.0355825 -6.95196e-08)
(1.81823 -5.60894e-09 3.51069e-09)
(1.84407 -4.38269e-08 8.8653e-09)
(1.84252 -7.53639e-08 9.5041e-09)
(1.84016 -1.27966e-07 1.09853e-08)
(1.83643 -2.18799e-07 1.39711e-08)
(1.83061 -2.70078e-07 1.97729e-08)
(1.82172 -1.61143e-06 3.00394e-08)
(1.80814 3.02332e-06 4.7488e-08)
(1.78445 -9.51427e-06 6.02671e-08)
(1.74195 2.27911e-05 8.02728e-08)
(1.66388 0.000586471 1.1278e-07)
(1.49727 0.00323917 1.6862e-07)
(1.05125 0.0135245 2.45206e-07)
(-0.0258774 0.0647671 2.65055e-07)
(-0.605995 0.103593 -8.22608e-09)
(-0.550505 0.0856775 -2.87813e-08)
(-0.512236 0.0869755 -1.02951e-07)
(-0.529841 0.0922808 -1.21207e-07)
(-0.520113 0.0925177 -6.52806e-08)
(-0.479552 0.0930437 1.6948e-08)
(-0.41533 0.0923619 5.74978e-08)
(-0.331068 0.0914217 5.77005e-08)
(-0.231919 0.0905284 4.97928e-08)
(-0.183264 0.0919143 1.94822e-08)
(0.018781 0.0916265 -6.57344e-08)
(1.81823 -1.03427e-08 2.24914e-09)
(1.84407 -5.9092e-08 5.14284e-09)
(1.84252 -1.03409e-07 5.64133e-09)
(1.84016 -1.86872e-07 6.97675e-09)
(1.83643 -4.54017e-07 9.53882e-09)
(1.83061 -1.40413e-06 1.5444e-08)
(1.82173 2.57505e-06 9.84769e-09)
(1.80813 4.57211e-07 2.51992e-08)
(1.78447 4.46287e-06 3.40977e-08)
(1.74229 0.00016839 4.98344e-08)
(1.66591 0.00092783 8.01766e-08)
(1.50656 0.0048503 1.29195e-07)
(1.09514 0.0209012 1.49888e-07)
(0.0503767 0.100986 -1.57108e-07)
(-0.586915 0.176658 1.98752e-08)
(-0.551395 0.144613 1.20957e-07)
(-0.499891 0.147036 -1.0495e-07)
(-0.51762 0.155808 -1.51637e-07)
(-0.510438 0.156497 -9.45032e-08)
(-0.471054 0.15857 -1.19439e-08)
(-0.409123 0.158366 2.94452e-08)
(-0.327193 0.157379 3.40154e-08)
(-0.228605 0.156245 3.05776e-08)
(-0.182217 0.158876 1.13834e-08)
(0.0208699 0.158137 -9.62812e-08)
(1.81823 -1.05301e-08 3.97768e-09)
(1.84407 -3.61484e-08 8.53192e-09)
(1.84252 -6.47288e-08 9.50143e-09)
(1.84016 -1.33969e-07 1.23133e-08)
(1.83643 -4.96883e-07 1.70516e-08)
(1.83062 -2.32656e-06 2.90747e-08)
(1.82173 8.9222e-06 3.46514e-09)
(1.80814 -2.00584e-06 3.66363e-08)
(1.7846 5.04499e-05 6.26022e-08)
(1.74275 0.000411093 8.21699e-08)
(1.66836 0.000922272 1.15042e-07)
(1.519 0.00533995 1.35653e-07)
(1.15596 0.024795 -9.27097e-08)
(0.17563 0.119009 -1.86058e-06)
(-0.554744 0.248493 5.42065e-07)
(-0.553096 0.204092 3.0818e-07)
(-0.481663 0.205595 -1.83375e-07)
(-0.499647 0.218916 -1.93083e-07)
(-0.495569 0.220608 -1.56934e-07)
(-0.457967 0.225039 -5.58633e-08)
(-0.399756 0.226326 -1.56958e-08)
(-0.321223 0.225694 -5.85571e-09)
(-0.223063 0.224466 -1.35474e-09)
(-0.180041 0.229028 7.42449e-09)
(0.0244797 0.227937 -1.26695e-07)
(1.81823 6.19561e-10 1.28821e-09)
(1.84407 8.95607e-08 4.05048e-09)
(1.84252 2.19061e-07 4.45039e-09)
(1.84016 6.07892e-07 5.54662e-09)
(1.83643 3.04704e-06 7.59365e-09)
(1.83062 1.255e-05 1.19435e-08)
(1.82173 -2.5219e-05 1.22318e-08)
(1.80817 6.71639e-05 1.95312e-08)
(1.78483 1.23926e-05 3.32939e-08)
(1.74311 8.69722e-05 4.76628e-08)
(1.67062 0.000227428 6.01719e-08)
(1.5326 0.00512654 2.28863e-08)
(1.22114 0.0257823 -2.65485e-07)
(0.340232 0.116398 -2.57645e-06)
(-0.500696 0.314744 9.34004e-07)
(-0.555633 0.265143 -4.73763e-07)
(-0.460968 0.262961 -4.56338e-07)
(-0.476918 0.280799 -1.84244e-07)
(-0.476403 0.2843 -2.46813e-07)