/*--------------------------------*- C++ -*----------------------------------*\
| =========                 |                                                 |
| \\      /  F ield         | OpenFOAM: The Open Source CFD Toolbox           |
|  \\    /   O peration     | Version:  4.1                                   |
|   \\  /    A nd           | Web:      www.OpenFOAM.org                      |
|    \\/     M anipulation  |                                                 |
\*---------------------------------------------------------------------------*/
FoamFile
{
    version     2.0;
    format      ascii;
    class       volScalarField;
    location    "6.26";
    object      Ma;
}
// * * * * * * * * * * * * * * * * * * * * * * * * * * * * * * * * * * * * * //

dimensions      [0 0 0 0 0 0 0];

internalField   nonuniform List<scalar> 
52500
(
3.00001
2.99997
2.9999
2.99965
2.99929
2.99785
2.99578
2.98779
2.97479
2.93158
2.83531
2.61151
2.03962
1.17292
0.491449
0.299898
0.337018
0.347005
0.316399
0.263419
0.211082
0.168605
0.12695
0.080375
0.0462264
3.00001
2.99997
2.9999
2.99965
2.9993
2.99788
2.99584
2.98796
2.97509
2.93249
2.83723
2.6161
2.04788
1.18455
0.497984
0.300072
0.33812
0.348633
0.318131
0.26582
0.214802
0.173907
0.134579
0.0935498
0.0696799
3.00002
2.99997
2.99991
2.99966
2.99932
2.99794
2.99595
2.98831
2.97573
2.93439
2.84126
2.62564
2.06514
1.21021
0.512518
0.301512
0.34181
0.353906
0.324244
0.274043
0.22636
0.189372
0.155525
0.123735
0.108971
3.00002
2.99997
2.99991
2.99968
2.99935
2.99803
2.99612
2.98885
2.97668
2.9373
2.84741
2.64042
2.09233
1.2507
0.534745
0.303519
0.347474
0.362405
0.334396
0.287504
0.244455
0.212644
0.185115
0.161441
0.151981
3.00002
2.99997
2.99992
2.9997
2.99939
2.99813
2.99632
2.98942
2.97792
2.94054
2.85576
2.65869
2.13668
1.31089
0.568429
0.310072
0.357632
0.375855
0.349659
0.306478
0.268167
0.241654
0.22024
0.202895
0.197099
3.00002
2.99998
2.99992
2.99972
2.99943
2.99824
2.99656
2.99002
2.97943
2.94416
2.86653
2.68091
2.1981
1.39274
0.613805
0.322925
0.373438
0.39527
0.37066
0.331652
0.297863
0.276233
0.260502
0.249152
0.24694
3.00002
2.99998
2.99993
2.99974
2.99947
2.99835
2.99679
2.99052
2.98108
2.94741
2.88102
2.70746
2.27596
1.49874
0.672544
0.346998
0.397814
0.421783
0.39828
0.362835
0.333735
0.317039
0.307015
0.301945
0.30534
3.00002
2.99998
2.99994
2.99976
2.99952
2.99851
2.99709
2.99144
2.98292
2.95229
2.89488
2.73599
2.35894
1.62412
0.741103
0.385644
0.433915
0.456299
0.433682
0.401454
0.37608
0.364258
0.360568
0.363978
0.377736
3.00002
2.99999
2.99995
2.99979
2.99957
2.99867
2.9974
2.99232
2.98473
2.95709
2.90666
2.76238
2.42938
1.73527
0.80799
0.425881
0.467438
0.486458
0.469564
0.444509
0.424732
0.418334
0.42247
0.43937
0.476636
3.00002
2.99999
2.99996
2.99982
2.99963
2.99886
2.99774
2.99342
2.98666
2.96339
2.91621
2.79285
2.48047
1.85141
0.899917
0.487425
0.494217
0.505582
0.502313
0.486251
0.47567
0.476774
0.494566
0.538893
0.640659
3
2.99995
2.99988
2.99963
2.99927
2.99783
2.99576
2.98777
2.97476
2.93154
2.83529
2.61144
2.03955
1.17278
0.491296
0.299704
0.336833
0.346818
0.316192
0.263169
0.210767
0.168205
0.126413
0.0795107
0.044684
3
2.99995
2.99989
2.99963
2.99928
2.99786
2.99582
2.98794
2.97507
2.93245
2.83719
2.61603
2.0478
1.18442
0.497838
0.299884
0.337941
0.348452
0.317929
0.265576
0.214496
0.173525
0.134078
0.0928183
0.0686815
3
2.99995
2.99989
2.99964
2.9993
2.99792
2.99593
2.98829
2.9757
2.93436
2.84122
2.62557
2.06507
1.21008
0.512377
0.301325
0.341633
0.353728
0.324047
0.273809
0.226073
0.189025
0.155097
0.123191
0.108345
3
2.99995
2.99989
2.99966
2.99933
2.99801
2.9961
2.98882
2.97665
2.93726
2.84738
2.64035
2.09226
1.25057
0.53461
0.303332
0.347299
0.362232
0.334207
0.287283
0.244192
0.21234
0.184762
0.161031
0.15154
3
2.99996
2.9999
2.99968
2.99937
2.99811
2.9963
2.98939
2.9779
2.94051
2.85573
2.65862
2.13661
1.31076
0.568301
0.309885
0.35746
0.375686
0.349477
0.306271
0.26793
0.241389
0.219947
0.202574
0.196766
3
2.99996
2.99991
2.9997
2.99941
2.99822
2.99653
2.99
2.97941
2.94412
2.86652
2.68085
2.19808
1.39264
0.613707
0.322761
0.373283
0.395118
0.370494
0.331465
0.297654
0.276005
0.260258
0.248896
0.246679
3
2.99996
2.99991
2.99972
2.99945
2.99833
2.99677
2.99049
2.98105
2.94737
2.88101
2.70741
2.27593
1.49864
0.672455
0.346846
0.397673
0.421646
0.398132
0.36267
0.333554
0.316845
0.306813
0.301738
0.305135
3
2.99997
2.99992
2.99975
2.9995
2.99849
2.99707
2.99142
2.9829
2.95226
2.89485
2.73594
2.35889
1.62401
0.741012
0.385496
0.433782
0.456173
0.43355
0.401309
0.375923
0.364094
0.360401
0.363812
0.377575
3
2.99997
2.99993
2.99977
2.99955
2.99865
2.99738
2.9923
2.98471
2.95706
2.90664
2.76234
2.42935
1.73518
0.807913
0.425746
0.467318
0.486344
0.469445
0.444382
0.424598
0.418197
0.422332
0.439238
0.476516
3
2.99998
2.99994
2.99981
2.99961
2.99884
2.99772
2.99339
2.98663
2.96336
2.9162
2.7928
2.48047
1.85133
0.899842
0.4873
0.49411
0.505478
0.502206
0.486138
0.475554
0.476658
0.494454
0.538791
0.640576
3
2.99995
2.99988
2.99963
2.99927
2.99783
2.99576
2.98777
2.97476
2.93154
2.83529
2.61144
2.03955
1.17278
0.491294
0.299705
0.336833
0.346818
0.316192
0.263169
0.210767
0.168205
0.126413
0.0795107
0.044684
3
2.99995
2.99989
2.99963
2.99928
2.99786
2.99582
2.98794
2.97507
2.93245
2.83719
2.61603
2.0478
1.18441
0.497837
0.299885
0.337942
0.348452
0.317929
0.265576
0.214496
0.173525
0.134078
0.0928183
0.0686816
3
2.99995
2.99989
2.99964
2.9993
2.99792
2.99593
2.98829
2.9757
2.93436
2.84122
2.62557
2.06506
1.21008
0.512375
0.301326
0.341634
0.353728
0.324048
0.273809
0.226073
0.189025
0.155098
0.123191
0.108345
3
2.99995
2.99989
2.99966
2.99933
2.99801
2.9961
2.98882
2.97665
2.93726
2.84738
2.64035
2.09225
1.25056
0.534609
0.303334
0.3473
0.362232
0.334207
0.287283
0.244192
0.21234
0.184762
0.161031
0.15154
3
2.99996
2.9999
2.99968
2.99937
2.99811
2.9963
2.98939
2.9779
2.94051
2.85573
2.65862
2.13661
1.31075
0.568298
0.309886
0.35746
0.375686
0.349477
0.306271
0.26793
0.241389
0.219947
0.202574
0.196766
3
2.99996
2.99991
2.9997
2.99941
2.99822
2.99653
2.99
2.97941
2.94412
2.86651
2.68085
2.19807
1.39263
0.613705
0.322761
0.373283
0.395117
0.370494
0.331465
0.297654
0.276005
0.260258
0.248896
0.246679
3
2.99996
2.99991
2.99972
2.99945
2.99833
2.99677
2.99049
2.98105
2.94737
2.881
2.7074
2.27593
1.49863
0.672452
0.346846
0.397673
0.421645
0.398131
0.36267
0.333553
0.316845
0.306813
0.301738
0.305135
3
2.99997
2.99992
2.99975
2.9995
2.99849
2.99707
2.99142
2.9829
2.95226
2.89485
2.73594
2.35889
1.62401
0.741009
0.385495
0.433781
0.456172
0.433549
0.401308
0.375923
0.364093
0.360401
0.363812
0.377575
3
2.99997
2.99993
2.99977
2.99955
2.99865
2.99738
2.9923
2.98471
2.95706
2.90664
2.76233
2.42934
1.73518
0.807912
0.425746
0.467318
0.486343
0.469444
0.444382
0.424598
0.418196
0.422332
0.439238
0.476516
3
2.99998
2.99994
2.99981
2.99961
2.99884
2.99772
2.99339
2.98663
2.96336
2.9162
2.7928
2.48047
1.85132
0.899839
0.487299
0.494111
0.505478
0.502206
0.486138
0.475554
0.476657
0.494454
0.53879
0.640576
3
2.99995
2.99988
2.99963
2.99927
2.99783
2.99576
2.98777
2.97476
2.93154
2.83529
2.61144
2.03955
1.17278
0.491294
0.299705
0.336833
0.346818
0.316192
0.263169
0.210767
0.168205
0.126413
0.0795107
0.044684
3
2.99995
2.99989
2.99963
2.99928
2.99786
2.99582
2.98794
2.97507
2.93245
2.83719
2.61603
2.0478
1.18441
0.497837
0.299885
0.337942
0.348452
0.317929
0.265576
0.214496
0.173525
0.134078
0.0928183
0.0686816
3
2.99995
2.99989
2.99964
2.9993
2.99792
2.99593
2.98829
2.9757
2.93436
2.84122
2.62557
2.06506
1.21008
0.512375
0.301326
0.341634
0.353728
0.324048
0.273809
0.226073
0.189025
0.155098
0.123191
0.108345
3
2.99995
2.99989
2.99966
2.99933
2.99801
2.9961
2.98882
2.97665
2.93726
2.84738
2.64035
2.09225
1.25056
0.534609
0.303334
0.3473
0.362232
0.334207
0.287283
0.244192
0.21234
0.184762
0.161031
0.15154
3
2.99996
2.9999
2.99968
2.99937
2.99811
2.9963
2.98939
2.9779
2.94051
2.85573
2.65862
2.13661
1.31075
0.568298
0.309886
0.35746
0.375686
0.349477
0.306271
0.26793
0.241389
0.219947
0.202574
0.196766
3
2.99996
2.99991
2.9997
2.99941
2.99822
2.99653
2.99
2.97941
2.94412
2.86651
2.68085
2.19807
1.39263
0.613705
0.322761
0.373283
0.395117
0.370494
0.331465
0.297654
0.276005
0.260258
0.248896
0.246679
3
2.99996
2.99991
2.99972
2.99945
2.99833
2.99677
2.99049
2.98105
2.94737
2.881
2.7074
2.27593
1.49863
0.672452
0.346846
0.397673
0.421645
0.398131
0.36267
0.333553
0.316845
0.306813
0.301738
0.305135
3
2.99997
2.99992
2.99975
2.9995
2.99849
2.99707
2.99142
2.9829
2.95226
2.89485
2.73594
2.35889
1.62401
0.741009
0.385495
0.433781
0.456172
0.433549
0.401308
0.375923
0.364093
0.360401
0.363812
0.377575
3
2.99997
2.99993
2.99977
2.99955
2.99865
2.99738
2.9923
2.98471
2.95706
2.90664
2.76233
2.42934
1.73518
0.807912
0.425746
0.467318
0.486343
0.469444
0.444382
0.424598
0.418196
0.422332
0.439238
0.476516
3
2.99998
2.99994
2.99981
2.99961
2.99884
2.99772
2.99339
2.98663
2.96336
2.9162
2.7928
2.48047
1.85132
0.899839
0.487299
0.494111
0.505478
0.502206
0.486138
0.475554
0.476657
0.494454
0.53879
0.640576
3
2.99995
2.99988
2.99963
2.99927
2.99783
2.99576
2.98777
2.97476
2.93154
2.83529
2.61144
2.03955
1.17278
0.491293
0.299705
0.336833
0.346818
0.316192
0.263169
0.210767
0.168205
0.126413
0.0795107
0.044684
3
2.99995
2.99989
2.99963
2.99928
2.99786
2.99582
2.98794
2.97507
2.93245
2.83719
2.61603
2.0478
1.18441
0.497836
0.299886
0.337942
0.348452
0.317929
0.265576
0.214496
0.173525
0.134078
0.0928183
0.0686816
3
2.99995
2.99989
2.99964
2.9993
2.99792
2.99593
2.98829
2.9757
2.93436
2.84122
2.62557
2.06506
1.21008
0.512375
0.301327
0.341634
0.353728
0.324048
0.273809
0.226073
0.189025
0.155098
0.123191
0.108345
3
2.99995
2.99989
2.99966
2.99933
2.99801
2.9961
2.98882
2.97665
2.93726
2.84738
2.64035
2.09225
1.25056
0.534608
0.303334
0.3473
0.362232
0.334207
0.287283
0.244192
0.21234
0.184762
0.161031
0.15154
3
2.99996
2.9999
2.99968
2.99937
2.99811
2.9963
2.98939
2.9779
2.94051
2.85573
2.65862
2.13661
1.31075
0.568298
0.309886
0.35746
0.375686
0.349477
0.306271
0.26793
0.241389
0.219947
0.202574
0.196766
3
2.99996
2.99991
2.9997
2.99941
2.99822
2.99653
2.99
2.97941
2.94412
2.86651
2.68085
2.19807
1.39263
0.613704
0.322761
0.373283
0.395117
0.370494
0.331465
0.297654
0.276005
0.260258
0.248896
0.246679
3
2.99996
2.99991
2.99972
2.99945
2.99833
2.99677
2.99049
2.98105
2.94737
2.881
2.7074
2.27593
1.49863
0.672451
0.346846
0.397673
0.421645
0.398131
0.362669
0.333553
0.316845
0.306813
0.301738
0.305135
3
2.99997
2.99992
2.99975
2.9995
2.99849
2.99707
2.99142
2.9829
2.95226
2.89485
2.73594
2.35889
1.624
0.741008
0.385495
0.43378
0.456172
0.433549
0.401308
0.375923
0.364093
0.360401
0.363812
0.377575
3
2.99997
2.99993
2.99977
2.99955
2.99865
2.99738
2.9923
2.98471
2.95706
2.90664
2.76233
2.42934
1.73518
0.807911
0.425746
0.467318
0.486343
0.469444
0.444382
0.424597
0.418196
0.422332
0.439238
0.476516
3
2.99998
2.99994
2.99981
2.99961
2.99884
2.99772
2.99339
2.98663
2.96336
2.9162
2.7928
2.48047
1.85132
0.899838
0.487298
0.494111
0.505478
0.502206
0.486137
0.475554
0.476657
0.494453
0.53879
0.640576
3
2.99995
2.99988
2.99963
2.99927
2.99783
2.99576
2.98777
2.97476
2.93154
2.83529
2.61144
2.03955
1.17278
0.491293
0.299705
0.336833
0.346818
0.316192
0.263169
0.210767
0.168205
0.126413
0.0795107
0.044684
3
2.99995
2.99989
2.99963
2.99928
2.99786
2.99582
2.98794
2.97507
2.93245
2.83719
2.61603
2.0478
1.18441
0.497836
0.299886
0.337942
0.348452
0.317929
0.265576
0.214496
0.173525
0.134078
0.0928183
0.0686816
3
2.99995
2.99989
2.99964
2.9993
2.99792
2.99593
2.98829
2.9757
2.93436
2.84122
2.62557
2.06506
1.21008
0.512374
0.301327
0.341634
0.353728
0.324048
0.273809
0.226073
0.189025
0.155097
0.123191
0.108345
3
2.99995
2.99989
2.99966
2.99933
2.99801
2.9961
2.98882
2.97665
2.93726
2.84738
2.64035
2.09225
1.25056
0.534608
0.303334
0.3473
0.362232
0.334207
0.287283
0.244192
0.21234
0.184762
0.161031
0.15154
3
2.99996
2.9999
2.99968
2.99937
2.99811
2.9963
2.98939
2.9779
2.94051
2.85573
2.65862
2.13661
1.31075
0.568298
0.309886
0.35746
0.375686
0.349477
0.306271
0.26793
0.241389
0.219947
0.202574
0.196766
3
2.99996
2.99991
2.9997
2.99941
2.99822
2.99653
2.99
2.97941
2.94412
2.86651
2.68085
2.19807
1.39263
0.613704
0.322761
0.373283
0.395117
0.370494
0.331465
0.297654
0.276005
0.260258
0.248896
0.246679
3
2.99996
2.99991
2.99972
2.99945
2.99833
2.99677
2.99049
2.98105
2.94737
2.881
2.7074
2.27593
1.49863
0.672451
0.346846
0.397673
0.421645
0.398131
0.362669
0.333553
0.316845
0.306813
0.301738
0.305135
3
2.99997
2.99992
2.99975
2.9995
2.99849
2.99707
2.99142
2.9829
2.95226
2.89485
2.73594
2.35889
1.624
0.741008
0.385495
0.43378
0.456172
0.433549
0.401308
0.375923
0.364093
0.360401
0.363812
0.377575
3
2.99997
2.99993
2.99977
2.99955
2.99865
2.99738
2.9923
2.98471
2.95706
2.90664
2.76233
2.42934
1.73518
0.807911
0.425746
0.467318
0.486343
0.469444
0.444381
0.424597
0.418196
0.422332
0.439238
0.476516
3
2.99998
2.99994
2.99981
2.99961
2.99884
2.99772
2.99339
2.98663
2.96336
2.9162
2.7928
2.48047
1.85132
0.899838
0.487298
0.494111
0.505478
0.502206
0.486137
0.475554
0.476657
0.494453
0.53879
0.640576
3
2.99995
2.99988
2.99963
2.99927
2.99783
2.99576
2.98777
2.97476
2.93154
2.83529
2.61144
2.03955
1.17278
0.491294
0.299705
0.336833
0.346818
0.316192
0.263169
0.210767
0.168205
0.126413
0.0795107
0.044684
3
2.99995
2.99989
2.99963
2.99928
2.99786
2.99582
2.98794
2.97507
2.93245
2.83719
2.61603
2.0478
1.18441
0.497837
0.299886
0.337942
0.348452
0.317929
0.265576
0.214496
0.173525
0.134078
0.0928183
0.0686816
3
2.99995
2.99989
2.99964
2.9993
2.99792
2.99593
2.98829
2.9757
2.93436
2.84122
2.62557
2.06506
1.21008
0.512375
0.301326
0.341634
0.353728
0.324048
0.273809
0.226073
0.189025
0.155098
0.123191
0.108345
3
2.99995
2.99989
2.99966
2.99933
2.99801
2.9961
2.98882
2.97665
2.93726
2.84738
2.64035
2.09225
1.25056
0.534608
0.303334
0.3473
0.362232
0.334207
0.287283
0.244192
0.21234
0.184762
0.161031
0.15154
3
2.99996
2.9999
2.99968
2.99937
2.99811
2.9963
2.98939
2.9779
2.94051
2.85573
2.65862
2.13661
1.31075
0.568298
0.309886
0.35746
0.375686
0.349477
0.306271
0.26793
0.241389
0.219947
0.202574
0.196766
3
2.99996
2.99991
2.9997
2.99941
2.99822
2.99653
2.99
2.97941
2.94412
2.86651
2.68085
2.19807
1.39263
0.613704
0.322761
0.373283
0.395117
0.370494
0.331465
0.297654
0.276005
0.260258
0.248896
0.246679
3
2.99996
2.99991
2.99972
2.99945
2.99833
2.99677
2.99049
2.98105
2.94737
2.881
2.7074
2.27593
1.49863
0.672452
0.346846
0.397673
0.421645
0.398131
0.36267
0.333553
0.316845
0.306813
0.301738
0.305135
3
2.99997
2.99992
2.99975
2.9995
2.99849
2.99707
2.99142
2.9829
2.95226
2.89485
2.73594
2.35889
1.62401
0.741008
0.385495
0.433781
0.456172
0.433549
0.401308
0.375923
0.364093
0.360401
0.363812
0.377575
3
2.99997
2.99993
2.99977
2.99955
2.99865
2.99738
2.9923
2.98471
2.95706
2.90664
2.76233
2.42934
1.73518
0.807911
0.425746
0.467318
0.486343
0.469444
0.444382
0.424598
0.418196
0.422332
0.439238
0.476516
3
2.99998
2.99994
2.99981
2.99961
2.99884
2.99772
2.99339
2.98663
2.96336
2.9162
2.7928
2.48047
1.85132
0.899838
0.487298
0.494111
0.505478
0.502206
0.486138
0.475554
0.476657
0.494453
0.53879
0.640576
3
2.99995
2.99988
2.99963
2.99927
2.99783
2.99576
2.98777
2.97476
2.93154
2.83529
2.61144
2.03955
1.17278
0.491294
0.299705
0.336833
0.346818
0.316192
0.263169
0.210767
0.168205
0.126413
0.0795107
0.044684
3
2.99995
2.99989
2.99963
2.99928
2.99786
2.99582
2.98794
2.97507
2.93245
2.83719
2.61603
2.0478
1.18441
0.497837
0.299885
0.337942
0.348452
0.317929
0.265576
0.214496
0.173525
0.134078
0.0928183
0.0686816
3
2.99995
2.99989
2.99964
2.9993
2.99792
2.99593
2.98829
2.9757
2.93436
2.84122
2.62557
2.06506
1.21008
0.512375
0.301326
0.341634
0.353728
0.324048
0.273809
0.226073
0.189025
0.155098
0.123191
0.108345
3
2.99995
2.99989
2.99966
2.99933
2.99801
2.9961
2.98882
2.97665
2.93726
2.84738
2.64035
2.09225
1.25056
0.534609
0.303334
0.3473
0.362232
0.334207
0.287283
0.244192
0.21234
0.184762
0.161031
0.15154
3
2.99996
2.9999
2.99968
2.99937
2.99811
2.9963
2.98939
2.9779
2.94051
2.85573
2.65862
2.13661
1.31075
0.568298
0.309886
0.35746
0.375686
0.349477
0.306271
0.26793
0.241389
0.219947
0.202574
0.196766
3
2.99996
2.99991
2.9997
2.99941
2.99822
2.99653
2.99
2.97941
2.94412
2.86651
2.68085
2.19807
1.39263
0.613705
0.322761
0.373283
0.395117
0.370494
0.331465
0.297654
0.276005
0.260258
0.248896
0.246679
3
2.99996
2.99991
2.99972
2.99945
2.99833
2.99677
2.99049
2.98105
2.94737
2.881
2.7074
2.27593
1.49863
0.672452
0.346846
0.397673
0.421645
0.398131
0.36267
0.333553
0.316845
0.306813
0.301738
0.305135
3
2.99997
2.99992
2.99975
2.9995
2.99849
2.99707
2.99142
2.9829
2.95226
2.89485
2.73594
2.35889
1.62401
0.741009
0.385495
0.433781
0.456172
0.433549
0.401308
0.375923
0.364093
0.360401
0.363812
0.377575
3
2.99997
2.99993
2.99977
2.99955
2.99865
2.99738
2.9923
2.98471
2.95706
2.90664
2.76233
2.42934
1.73518
0.807912
0.425746
0.467318
0.486343
0.469444
0.444382
0.424598
0.418196
0.422332
0.439238
0.476516
3
2.99998
2.99994
2.99981
2.99961
2.99884
2.99772
2.99339
2.98663
2.96336
2.9162
2.7928
2.48047
1.85132
0.899839
0.487299
0.494111
0.505478
0.502206
0.486138
0.475554
0.476657
0.494454
0.53879
0.640576
3
2.99995
2.99988
2.99963
2.99927
2.99783
2.99576
2.98777
2.97476
2.93154
2.83529
2.61144
2.03955
1.17278
0.491296
0.299704
0.336833
0.346818
0.316192
0.263169
0.210767
0.168205
0.126413
0.0795107
0.044684
3
2.99995
2.99989
2.99963
2.99928
2.99786
2.99582
2.98794
2.97507
2.93245
2.83719
2.61603
2.0478
1.18442
0.497838
0.299884
0.337941
0.348452
0.317929
0.265576
0.214496
0.173525
0.134078
0.0928183
0.0686815
3
2.99995
2.99989
2.99964
2.9993
2.99792
2.99593
2.98829
2.9757
2.93436
2.84122
2.62557
2.06507
1.21008
0.512377
0.301325
0.341633
0.353728
0.324047
0.273809
0.226073
0.189025
0.155097
0.123191
0.108345
3
2.99995
2.99989
2.99966
2.99933
2.99801
2.9961
2.98882
2.97665
2.93726
2.84738
2.64035
2.09226
1.25057
0.53461
0.303332
0.347299
0.362232
0.334207
0.287283
0.244192
0.21234
0.184762
0.161031
0.15154
3
2.99996
2.9999
2.99968
2.99937
2.99811
2.9963
2.98939
2.9779
2.94051
2.85573
2.65862
2.13661
1.31076
0.568301
0.309885
0.35746
0.375686
0.349477
0.306271
0.26793
0.241389
0.219947
0.202574
0.196766
3
2.99996
2.99991
2.9997
2.99941
2.99822
2.99653
2.99
2.97941
2.94412
2.86652
2.68085
2.19808
1.39264
0.613707
0.322761
0.373283
0.395118
0.370494
0.331465
0.297654
0.276005
0.260258
0.248896
0.246679
3
2.99996
2.99991
2.99972
2.99945
2.99833
2.99677
2.99049
2.98105
2.94737
2.88101
2.70741
2.27593
1.49864
0.672455
0.346846
0.397673
0.421646
0.398132
0.36267
0.333554
0.316845
0.306813
0.301738
0.305135
3
2.99997
2.99992
2.99975
2.9995
2.99849
2.99707
2.99142
2.9829
2.95226
2.89485
2.73594
2.35889
1.62401
0.741012
0.385496
0.433782
0.456173
0.43355
0.401309
0.375923
0.364094
0.360401
0.363812
0.377575
3
2.99997
2.99993
2.99977
2.99955
2.99865
2.99738
2.9923
2.98471
2.95706
2.90664
2.76234
2.42935
1.73518
0.807913
0.425746
0.467318
0.486344
0.469445
0.444382
0.424598
0.418197
0.422332
0.439238
0.476516
3
2.99998
2.99994
2.99981
2.99961
2.99884
2.99772
2.99339
2.98663
2.96336
2.9162
2.7928
2.48047
1.85133
0.899842
0.4873
0.49411
0.505478
0.502206
0.486138
0.475554
0.476658
0.494454
0.538791
0.640576
3.00001
2.99997
2.9999
2.99965
2.99929
2.99785
2.99578
2.98779
2.97479
2.93158
2.83531
2.61151
2.03962
1.17292
0.49145
0.299898
0.337018
0.347005
0.316399
0.263419
0.211082
0.168605
0.12695
0.080375
0.0462263
3.00001
2.99997
2.9999
2.99965
2.9993
2.99788
2.99584
2.98796
2.97509
2.93249
2.83723
2.6161
2.04788
1.18455
0.497985
0.300072
0.33812
0.348633
0.318131
0.26582
0.214802
0.173907
0.134579
0.0935498
0.0696799
3.00002
2.99997
2.99991
2.99966
2.99932
2.99794
2.99595
2.98831
2.97573
2.93439
2.84126
2.62564
2.06514
1.21021
0.512518
0.301512
0.34181
0.353906
0.324244
0.274043
0.22636
0.189372
0.155525
0.123735
0.108971
3.00002
2.99997
2.99991
2.99968
2.99935
2.99803
2.99612
2.98885
2.97668
2.9373
2.84741
2.64042
2.09233
1.2507
0.534745
0.303519
0.347474
0.362405
0.334396
0.287504
0.244455
0.212644
0.185115
0.161441
0.151981
3.00002
2.99997
2.99992
2.9997
2.99939
2.99813
2.99632
2.98942
2.97792
2.94054
2.85576
2.65869
2.13668
1.31089
0.568429
0.310071
0.357632
0.375855
0.349659
0.306478
0.268167
0.241654
0.22024
0.202895
0.197099
3.00002
2.99998
2.99992
2.99972
2.99943
2.99824
2.99656
2.99002
2.97943
2.94416
2.86653
2.68091
2.1981
1.39274
0.613806
0.322925
0.373438
0.39527
0.37066
0.331652
0.297863
0.276233
0.260502
0.249152
0.24694
3.00002
2.99998
2.99993
2.99974
2.99947
2.99835
2.99679
2.99052
2.98108
2.94741
2.88102
2.70746
2.27596
1.49874
0.672544
0.346998
0.397815
0.421783
0.39828
0.362835
0.333735
0.317039
0.307015
0.301945
0.30534
3.00002
2.99998
2.99994
2.99976
2.99952
2.99851
2.99709
2.99144
2.98292
2.95229
2.89488
2.73599
2.35894
1.62412
0.741104
0.385645
0.433916
0.456299
0.433683
0.401454
0.37608
0.364258
0.360568
0.363978
0.377736
3.00002
2.99999
2.99995
2.99979
2.99957
2.99867
2.9974
2.99232
2.98473
2.95709
2.90666
2.76238
2.42938
1.73527
0.807991
0.425881
0.467438
0.486458
0.469564
0.444509
0.424732
0.418334
0.42247
0.43937
0.476636
3.00002
2.99999
2.99996
2.99982
2.99963
2.99886
2.99774
2.99342
2.98666
2.96339
2.91621
2.79285
2.48047
1.85141
0.899918
0.487425
0.494217
0.505582
0.502313
0.486251
0.47567
0.476774
0.494566
0.538893
0.640659
3.00002
3
2.99995
2.99988
2.9996
2.99919
2.99759
2.99519
2.98638
2.9711
2.92304
2.81223
2.56091
1.94688
1.06466
0.570486
0.518523
0.52905
0.534835
0.528217
0.526568
0.538407
0.575576
0.658077
0.829285
3.00002
3.00001
2.99996
2.9999
2.99965
2.9993
2.99786
2.99583
2.98788
2.97521
2.93249
2.83954
2.62013
2.06493
1.21975
0.656408
0.538455
0.552607
0.566152
0.569035
0.575782
0.599118
0.652229
0.751884
0.925115
3.00002
3.00001
2.99997
2.99992
2.99971
2.99941
2.99821
2.99648
2.9899
2.979
2.94354
2.86386
2.67753
2.18715
1.3939
0.751633
0.562385
0.578384
0.597864
0.608782
0.623097
0.654618
0.714376
0.810432
0.955161
3.00002
3.00001
2.99998
2.99994
2.99975
2.9995
2.99847
2.99701
2.9912
2.98246
2.95109
2.89155
2.73067
2.34002
1.60914
0.865034
0.604221
0.614655
0.631758
0.649266
0.668797
0.70402
0.762579
0.846783
0.967069
3.00002
3.00001
2.99999
2.99995
2.99981
2.9996
2.99877
2.99756
2.99288
2.9857
2.96018
2.91345
2.77714
2.4805
1.80809
0.998807
0.66841
0.658899
0.671183
0.689203
0.711031
0.746066
0.802926
0.875828
0.976071
3.00002
3.00001
3
2.99995
2.99988
2.99961
2.99921
2.99767
2.99535
2.98688
2.97233
2.92654
2.82179
2.58585
2.00182
1.1675
0.7471
0.699356
0.711179
0.727573
0.749291
0.782164
0.834453
0.901048
0.985686
3.00002
3.00002
3.00001
2.99997
2.99991
2.99969
2.99938
2.99811
2.9963
2.98941
2.97799
2.94109
2.85807
2.66621
2.16236
1.3776
0.849928
0.728875
0.740479
0.758308
0.783668
0.815272
0.861198
0.922036
0.99552
3.00002
3.00002
3.00001
2.99998
2.99994
2.99976
2.99951
2.9985
2.99705
2.99138
2.98268
2.95206
2.89306
2.73378
2.35541
1.62442
0.982805
0.772965
0.770321
0.785734
0.813817
0.846527
0.88724
0.941313
1.00631
3.00002
3.00002
3.00001
3
2.99994
2.99986
2.99955
2.9991
2.99735
2.99471
2.98514
2.96854
2.91754
2.80136
2.53545
1.94683
1.15961
0.842998
0.812383
0.82199
0.845282
0.877589
0.913066
0.959413
1.01643
3.00003
3.00002
3.00002
3.00001
2.99997
2.99991
2.99967
2.99934
2.99802
2.99606
2.98894
2.9765
2.93817
2.84897
2.64897
2.12846
1.35297
0.925628
0.846781
0.855815
0.875879
0.905792
0.940588
0.98012
1.02854
3.00003
3.00002
3.00002
3.00001
2.99999
2.99992
2.99982
2.99943
2.99883
2.99674
2.99298
2.98159
2.95543
2.8918
2.71733
2.37699
1.60774
1.06565
0.89222
0.887159
0.90116
0.928183
0.963356
1.00135
1.04343
3.00003
3.00003
3.00002
3.00001
3
2.99995
2.99987
2.99956
2.99912
2.99737
2.99484
2.98515
2.96963
2.91905
2.81166
2.55118
1.98837
1.24655
0.963391
0.92747
0.934138
0.956196
0.98823
1.0229
1.06113
3.00003
3.00003
3.00002
3.00002
3
2.99998
2.99989
2.99976
2.99925
2.9985
2.99571
2.99115
2.97623
2.94512
2.86464
2.65735
2.2444
1.45364
1.05474
0.961367
0.963424
0.981816
1.01068
1.04314
1.07755
3.00003
3.00003
3.00003
3.00002
3.00001
2.99999
2.99993
2.99983
2.99946
2.99892
2.99681
2.9937
2.98237
2.96255
2.90305
2.76225
2.46393
1.79546
1.2154
1.01682
0.999675
1.01026
1.03404
1.0649
1.09668
3.00003
3.00003
3.00003
3.00002
3.00002
3
2.99997
2.99986
2.9997
2.99908
2.99815
2.9947
2.98925
2.97057
2.93617
2.83676
2.62505
2.10871
1.40862
1.09598
1.03573
1.03913
1.05651
1.08437
1.1152
3.00003
3.00003
3.00003
3.00003
3.00002
3.00001
2.99999
2.99991
2.9998
2.99937
2.99875
2.99633
2.99274
2.97981
2.95708
2.88994
2.73294
2.39627
1.70163
1.23161
1.08496
1.07234
1.08136
1.10308
1.13288
3.00003
3.00003
3.00003
3.00003
3.00002
3.00002
3
2.99996
2.99984
2.99966
2.99898
2.99795
2.99419
2.98817
2.96801
2.9307
2.82291
2.60179
2.05216
1.41831
1.15644
1.11
1.11177
1.12731
1.15158
3.00003
3.00003
3.00003
3.00003
3.00003
3.00002
3.00001
2.99999
2.9999
2.99978
2.99932
2.99865
2.99607
2.99225
2.97836
2.95457
2.88392
2.72426
2.36867
1.68947
1.27516
1.15236
1.14051
1.14839
1.16775
3.00003
3.00003
3.00003
3.00003
3.00003
3.00002
3.00002
2.99999
2.99996
2.99984
2.99965
2.99896
2.99789
2.99409
2.98787
2.96755
2.92928
2.82035
2.59822
2.04192
1.46235
1.2211
1.17832
1.17569
1.18896
3.00003
3.00003
3.00003
3.00003
3.00003
3.00003
3.00002
3.00001
2.99998
2.99993
2.99973
2.99945
2.9984
2.99681
2.99122
2.98143
2.95208
2.88516
2.73609
2.34157
1.70868
1.31827
1.21652
1.20455
1.21129
3.00003
3.00003
3.00003
3.00003
3.00003
3.00003
3.00002
3.00002
2.99999
2.99996
2.99983
2.99965
2.99895
2.99793
2.99406
2.98815
2.96759
2.93133
2.82411
2.60863
2.07515
1.50715
1.27595
1.23739
1.23571
3.00003
3.00003
3.00003
3.00003
3.00003
3.00003
3.00003
3.00002
3.00001
2.99998
2.99993
2.99975
2.99948
2.99846
2.99694
2.99155
2.98232
2.95409
2.89122
2.7483
2.3793
1.76542
1.37579
1.27103
1.26041
3.00003
3.00003
3.00003
3.00003
3.00003
3.00003
3.00003
3.00002
3.00002
3
2.99996
2.99984
2.99967
2.99901
2.99805
2.99441
2.98893
2.96964
2.93651
2.83658
2.63948
2.14194
1.57252
1.33398
1.2906
3.00003
3.00003
3.00003
3.00003
3.00003
3.00003
3.00003
3.00003
3.00002
3.00001
2.99999
2.99991
2.99981
2.99939
2.99881
2.99653
2.99323
2.98103
2.96116
2.9
2.76877
2.47147
1.86937
1.46199
1.33057
3.00003
3.00003
3.00003
3.00003
3.00003
3.00003
3.00003
3.00003
3.00002
3.00002
3
2.99996
2.99989
2.99965
2.99929
2.99792
2.99593
2.98852
2.97702
2.93913
2.86395
2.6805
2.25733
1.66675
1.40722
3.00003
3.00003
3.00003
3.00003
3.00003
3.00003
3.00003
3.00003
3.00003
3.00002
3.00001
2.99999
2.99993
2.99984
2.9995
2.99899
2.99714
2.99428
2.98444
2.96725
2.91684
2.80512
2.55448
2.0272
1.56143
3.00003
3.00003
3.00003
3.00003
3.00003
3.00003
3.00003
3.00003
3.00003
3.00002
3.00002
3
2.99998
2.99989
2.99976
2.99928
2.99855
2.99594
2.99174
2.97796
2.95282
2.88023
2.73393
2.35009
1.80745
3.00003
3.00003
3.00003
3.00003
3.00003
3.00003
3.00003
3.00003
3.00003
3.00003
3.00002
3.00002
2.99999
2.99996
2.99984
2.99966
2.99899
2.99798
2.99439
2.98863
2.9699
2.935
2.83983
2.63879
2.16657
3.00003
3.00003
3.00003
3.00003
3.00003
3.00003
3.00003
3.00003
3.00003
3.00003
3.00003
3.00002
3.00001
2.99999
2.99991
2.9998
2.99939
2.99879
2.99655
2.99317
2.98149
2.96095
2.90362
2.77548
2.49281
3.00003
3.00003
3.00003
3.00003
3.00003
3.00003
3.00003
3.00003
3.00003
3.00003
3.00003
3.00002
3.00002
3
2.99997
2.99986
2.99969
2.99909
2.99817
2.99488
2.98964
2.97229
2.94057
2.8508
2.66503
3.00003
3.00003
3.00003
3.00003
3.00003
3.00003
3.00003
3.00003
3.00003
3.00003
3.00003
3.00003
3.00002
3.00001
2.99998
2.99992
2.99973
2.99944
2.99837
2.99675
2.9908
2.98124
2.94969
2.88635
2.72514
3.00003
3.00003
3.00003
3.00003
3.00003
3.00003
3.00003
3.00003
3.00003
3.00003
3.00003
3.00003
3.00002
3.00001
2.99999
2.99992
2.99982
2.99943
2.99887
2.99668
2.99333
2.98163
2.95946
2.89702
2.73872
3.00003
3.00003
3.00003
3.00003
3.00003
3.00003
3.00003
3.00003
3.00003
3.00003
3.00003
3.00003
3.00002
3.00001
3
2.99994
2.99985
2.99949
2.99898
2.99698
2.99388
2.98311
2.96206
2.90273
2.75056
3.00003
3.00003
3.00003
3.00003
3.00003
3.00003
3.00003
3.00003
3.00003
3.00003
3.00003
3.00003
3.00002
3.00002
2.99999
2.99996
2.99981
2.9996
2.99878
2.99752
2.99297
2.98482
2.95957
2.90082
2.76065
3.00003
3.00003
3.00003
3.00003
3.00003
3.00003
3.00003
3.00003
3.00003
3.00003
3.00003
3.00003
3.00002
3.00001
3
2.99995
2.99987
2.99956
2.99907
2.99738
2.99422
2.98477
2.96251
2.90741
2.75613
3.00003
3.00003
3.00003
3.00003
3.00003
3.00003
3.00003
3.00003
3.00003
3.00003
3.00003
3.00003
3.00002
3.00002
2.99999
2.99996
2.99982
2.99962
2.99883
2.99761
2.99326
2.98529
2.96092
2.90328
2.76709
3.00003
3.00003
3.00003
3.00003
3.00003
3.00003
3.00003
3.00003
3.00003
3.00003
3.00003
3.00003
3.00002
3.00001
3
2.99994
2.99986
2.99953
2.99905
2.99716
2.99424
2.98394
2.96418
2.90705
2.76274
3.00003
3.00003
3.00003
3.00003
3.00003
3.00003
3.00003
3.00003
3.00003
3.00003
3.00003
3.00003
3.00002
3.00001
3
2.99994
2.99986
2.99953
2.99904
2.99714
2.99423
2.98389
2.96433
2.90719
2.76375
3.00003
3.00003
3.00003
3.00003
3.00003
3.00003
3.00003
3.00003
3.00003
3.00003
3.00003
3.00003
3.00002
3.00002
2.99999
2.99996
2.99981
2.99961
2.99878
2.99758
2.99284
2.98546
2.9596
2.90779
2.77008
3.00003
3.00003
3.00003
3.00003
3.00003
3.00003
3.00003
3.00003
3.00003
3.00003
3.00003
3.00003
3.00002
3.00002
2.99999
2.99995
2.99981
2.9996
2.99874
2.99753
2.99264
2.98532
2.95846
2.90891
2.76731
3
2.99999
2.99994
2.99986
2.99958
2.99917
2.99757
2.99516
2.98636
2.97108
2.92301
2.8122
2.56085
1.94683
1.06456
0.570372
0.518422
0.528953
0.534738
0.528118
0.526467
0.538308
0.575485
0.658
0.829232
3
2.99999
2.99994
2.99988
2.99963
2.99928
2.99784
2.99581
2.98785
2.97519
2.93245
2.83952
2.62008
2.0649
1.21966
0.65631
0.538359
0.552514
0.566062
0.568945
0.575693
0.599033
0.652151
0.75182
0.925067
3
2.99999
2.99995
2.9999
2.99969
2.99939
2.99819
2.99646
2.98988
2.97898
2.94351
2.86383
2.67747
2.1871
1.39381
0.751541
0.562288
0.578292
0.597778
0.608699
0.623017
0.654543
0.714309
0.810375
0.955115
3
2.99999
2.99996
2.99992
2.99973
2.99948
2.99845
2.99699
2.99118
2.98243
2.95106
2.89153
2.73062
2.33997
1.60904
0.864952
0.604125
0.614565
0.631674
0.649189
0.668724
0.703951
0.762516
0.846729
0.967024
3
3