/*--------------------------------*- C++ -*----------------------------------*\
| =========                 |                                                 |
| \\      /  F ield         | OpenFOAM: The Open Source CFD Toolbox           |
|  \\    /   O peration     | Version:  4.1                                   |
|   \\  /    A nd           | Web:      www.OpenFOAM.org                      |
|    \\/     M anipulation  |                                                 |
\*---------------------------------------------------------------------------*/
FoamFile
{
    version     2.0;
    format      ascii;
    class       volScalarField;
    location    "0.88";
    object      Ma;
}
// * * * * * * * * * * * * * * * * * * * * * * * * * * * * * * * * * * * * * //

dimensions      [0 0 0 0 0 0 0];

internalField   nonuniform List<scalar> 
18000
(
5.14099e-12
5.08456e-12
5.01639e-12
4.96088e-12
4.90577e-12
4.85134e-12
4.79742e-12
4.74466e-12
4.69265e-12
4.64256e-12
6.39587e-12
6.17729e-12
5.95519e-12
5.75166e-12
5.55686e-12
5.36982e-12
5.19019e-12
5.01807e-12
4.85219e-12
4.69708e-12
8.04842e-12
7.57359e-12
7.11948e-12
6.70466e-12
6.31815e-12
5.95852e-12
5.6242e-12
5.31147e-12
5.02018e-12
4.75281e-12
1.02515e-11
9.37317e-12
8.57386e-12
7.85593e-12
7.21055e-12
6.62862e-12
6.10262e-12
5.62664e-12
5.19493e-12
4.80946e-12
1.32308e-11
1.17187e-11
1.04029e-11
9.25678e-12
8.26128e-12
7.39247e-12
6.63215e-12
5.96521e-12
5.37751e-12
4.86731e-12
1.73186e-11
1.48122e-11
1.27263e-11
1.09723e-11
9.5035e-12
8.26608e-12
7.21916e-12
6.32909e-12
5.56801e-12
4.92612e-12
2.30057e-11
1.89507e-11
1.57041e-11
1.30884e-11
1.09802e-11
9.26913e-12
7.87065e-12
6.72025e-12
5.76745e-12
4.98585e-12
3.12071e-11
2.47618e-11
1.98248e-11
1.60328e-11
1.31127e-11
1.08443e-11
9.06746e-12
7.66527e-12
6.54979e-12
5.69413e-12
5.73737e-09
5.86802e-09
5.53984e-09
5.23896e-09
4.96592e-09
4.71766e-09
4.49135e-09
4.28449e-09
4.09547e-09
4.03013e-09
6.3855e-07
6.76295e-08
5.78451e-08
5.06881e-08
4.46429e-08
3.95153e-08
3.51503e-08
3.14242e-08
2.81277e-08
1.15974e-07
5.54779e-12
5.48311e-12
5.41087e-12
5.34775e-12
5.28587e-12
5.22512e-12
5.16417e-12
5.10542e-12
5.04729e-12
4.9907e-12
6.96344e-12
6.71332e-12
6.46929e-12
6.23836e-12
6.01805e-12
5.8067e-12
5.60529e-12
5.41197e-12
5.22705e-12
5.05203e-12
8.84351e-12
8.29582e-12
7.7912e-12
7.31686e-12
6.87805e-12
6.47096e-12
6.09419e-12
5.74318e-12
5.41663e-12
5.11581e-12
1.13874e-11
1.0367e-11
9.463e-12
8.63585e-12
7.89671e-12
7.23393e-12
6.63862e-12
6.10248e-12
5.61695e-12
5.1801e-12
1.48877e-11
1.31118e-11
1.15962e-11
1.02607e-11
9.10944e-12
8.11287e-12
7.24641e-12
6.4908e-12
5.82844e-12
5.24729e-12
1.97919e-11
1.67995e-11
1.43488e-11
1.22763e-11
1.05597e-11
9.12763e-12
7.92686e-12
6.9133e-12
6.05258e-12
5.31678e-12
2.67855e-11
2.18411e-11
1.7941e-11
1.47986e-11
1.2305e-11
1.03052e-11
8.68854e-12
7.37208e-12
6.28881e-12
5.3884e-12
3.70135e-11
2.88412e-11
2.26901e-11
1.79887e-11
1.44237e-11
1.16832e-11
9.55339e-12
7.87873e-12
6.54655e-12
5.47082e-12
2.45041e-10
5.66977e-10
4.69235e-10
3.89425e-10
3.26602e-10
2.7644e-10
2.35962e-10
2.02975e-10
1.75895e-10
1.56335e-10
4.51383e-07
6.56952e-08
5.75647e-08
5.0652e-08
4.48879e-08
4.00397e-08
3.59276e-08
3.24132e-08
2.94015e-08
2.84463e-08
5.68865e-13
5.48199e-13
4.41053e-13
4.26355e-13
4.12532e-13
4.00074e-13
3.88657e-13
3.78762e-13
3.69731e-13
3.59899e-13
7.88429e-13
7.19283e-13
6.51509e-13
6.00298e-13
5.53768e-13
5.12215e-13
4.7461e-13
4.41721e-13
4.13999e-13
3.73598e-13
1.01475e-12
8.95503e-13
8.6339e-13
7.75264e-13
6.96616e-13
6.27598e-13
5.67963e-13
5.16767e-13
4.70741e-13
3.92339e-13
1.38761e-12
1.21387e-12
1.18463e-12
1.03358e-12
9.0283e-13
7.9222e-13
6.98703e-13
6.19757e-13
5.50458e-13
4.18702e-13
1.98076e-12
1.72981e-12
1.64624e-12
1.39158e-12
1.17899e-12
1.00563e-12
8.63333e-13
7.46199e-13
6.45848e-13
4.52339e-13
2.93196e-12
2.54591e-12
2.30859e-12
1.88162e-12
1.54295e-12
1.2764e-12
1.06538e-12
8.97052e-13
7.56015e-13
4.9202e-13
4.47653e-12
3.82148e-12
3.26447e-12
2.55446e-12
2.01954e-12
1.6167e-12
1.3091e-12
1.07217e-12
8.80713e-13
5.3795e-13
7.13077e-12
5.83045e-12
4.65653e-12
3.4823e-12
2.64526e-12
2.04303e-12
1.60198e-12
1.27419e-12
1.0196e-12
5.88948e-13
3.857e-10
2.56327e-11
2.06418e-11
1.5036e-11
1.11926e-11
8.4906e-12
6.55326e-12
5.14093e-12
4.0933e-12
3.24042e-12
3.85845e-07
6.52236e-09
4.84246e-09
3.73188e-09
2.92053e-09
2.31693e-09
1.86084e-09
1.51137e-09
1.24077e-09
1.06071e-09
3.82749e-13
3.59941e-13
1.72137e-13
1.5168e-13
1.3138e-13
1.12285e-13
9.44409e-14
7.80398e-14
6.35581e-14
3.80985e-14
5.31104e-13
4.59556e-13
3.85952e-13
3.36334e-13
2.89695e-13
2.48073e-13
2.11358e-13
1.79577e-13
1.52991e-13
7.99041e-14
5.95721e-13
4.9008e-13
5.236e-13
4.56443e-13
3.96091e-13
3.44782e-13
3.02195e-13
2.68182e-13
2.3912e-13
1.19717e-13
7.30944e-13
6.36938e-13
7.60853e-13
6.59178e-13
5.69918e-13
4.96206e-13
4.35508e-13
3.86227e-13
3.43226e-13
1.71041e-13
9.62368e-13
9.4732e-13
1.10847e-12
9.43999e-13
8.04016e-13
6.90137e-13
5.97466e-13
5.22305e-13
4.56361e-13
2.24296e-13
1.35207e-12
1.49079e-12
1.61211e-12
1.33778e-12
1.11201e-12
9.33644e-13
7.90955e-13
6.77478e-13
5.79383e-13
2.80783e-13
1.99929e-12
2.37032e-12
2.34238e-12
1.87931e-12
1.5158e-12
1.23771e-12
1.0215e-12
8.53019e-13
7.12355e-13
3.40474e-13
3.25971e-12
3.77397e-12
3.40485e-12
2.62579e-12
2.04429e-12
1.61681e-12
1.29573e-12
1.05199e-12
8.564e-13
4.03334e-13
4.35178e-10
7.74371e-12
4.8077e-12
3.56719e-12
2.68844e-12
2.06358e-12
1.60862e-12
1.27323e-12
1.01184e-12
4.72125e-13
3.82918e-07
2.06014e-09
2.14768e-10
1.43577e-10
9.86189e-11
6.92213e-11
4.95428e-11
3.6101e-11
2.67588e-11
2.0299e-11
3.82412e-13
3.59146e-13
1.71871e-13
1.51248e-13
1.30844e-13
1.11679e-13
9.41138e-14
7.76359e-14
6.27697e-14
3.69091e-14
5.30858e-13
4.59263e-13
3.85932e-13
3.36424e-13
2.89806e-13
2.47841e-13
2.11094e-13
1.79634e-13
1.52796e-13
7.92136e-14
5.95336e-13
4.89769e-13
5.24008e-13
4.56791e-13
3.96119e-13
3.44937e-13
3.02234e-13
2.67958e-13
2.38743e-13
1.19181e-13
7.30119e-13
6.36741e-13
7.614e-13
6.598e-13
5.70411e-13
4.96556e-13
4.35874e-13
3.86477e-13
3.43255e-13
1.70202e-13
9.6018e-13
9.47229e-13
1.11006e-12
9.45283e-13
8.05122e-13
6.91344e-13
5.98066e-13
5.2231e-13
4.56666e-13
2.24233e-13
1.34606e-12
1.49118e-12
1.61426e-12
1.34035e-12
1.11414e-12
9.35536e-13
7.92664e-13
6.7854e-13
5.80309e-13
2.80977e-13
1.98435e-12
2.37183e-12
2.34722e-12
1.88379e-12
1.51999e-12
1.24135e-12
1.02436e-12
8.55184e-13
7.14489e-13
3.4148e-13
3.23938e-12
3.77782e-12
3.41381e-12
2.63418e-12
2.05177e-12
1.62316e-12
1.30087e-12
1.05623e-12
8.59733e-13
4.0539e-13
4.62457e-10
8.67503e-12
4.98989e-12
3.67173e-12
2.74957e-12
2.09924e-12
1.62905e-12
1.28456e-12
1.01776e-12
4.72524e-13
4.06585e-07
2.25288e-09
1.96206e-11
6.84861e-12
4.59161e-12
3.22135e-12
2.33207e-12
1.73522e-12
1.30982e-12
6.54739e-13
3.82444e-13
3.58806e-13
1.72366e-13
1.51781e-13
1.31177e-13
1.11902e-13
9.41219e-14
7.79477e-14
6.31706e-14
3.68091e-14
5.31741e-13
4.59716e-13
3.87141e-13
3.37454e-13
2.90759e-13
2.48542e-13
2.11486e-13
1.79871e-13
1.53408e-13
7.97529e-14
5.97204e-13
4.91556e-13
5.26356e-13
4.58664e-13
3.97876e-13
3.46159e-13
3.03124e-13
2.68591e-13
2.39258e-13
1.19748e-13
7.33967e-13
6.40781e-13
7.65255e-13
6.62895e-13
5.72968e-13
4.98466e-13
4.37182e-13
3.87622e-13
3.43973e-13
1.70675e-13
9.67566e-13
9.54743e-13
1.11624e-12
9.50287e-13
8.09066e-13
6.94679e-13
6.00728e-13
5.24423e-13
4.58118e-13
2.25153e-13
1.35971e-12
1.50452e-12
1.625e-12
1.34849e-12
1.12048e-12
9.40813e-13
7.96886e-13
6.81533e-13
5.82801e-13
2.82659e-13
2.00973e-12
2.39482e-12
2.3655e-12
1.89769e-12
1.53062e-12
1.24992e-12
1.03109e-12
8.60314e-13
7.18379e-13
3.44176e-13
3.29406e-12
3.81919e-12
3.44537e-12
2.65751e-12
2.06921e-12
1.63666e-12
1.31157e-12
1.06432e-12
8.65783e-13
4.0938e-13
4.92485e-10
9.01799e-12
5.05141e-12
3.7134e-12
2.77931e-12
2.12122e-12
1.6454e-12
1.29666e-12
1.02702e-12
4.78742e-13
4.43178e-07
2.42685e-09
1.93322e-11
5.17975e-12
3.69883e-12
2.72526e-12
2.04773e-12
1.56728e-12
1.20787e-12
5.59692e-13
3.82394e-13
3.58545e-13
1.72915e-13
1.52425e-13
1.31769e-13
1.125e-13
9.46194e-14
7.8251e-14
6.45242e-14
5.25565e-14
5.32713e-13
4.60326e-13
3.88787e-13
3.38722e-13
2.91872e-13
2.49623e-13
2.12436e-13
1.80554e-13
1.53853e-13
8.47635e-14
5.99445e-13
4.93597e-13
5.29041e-13
4.6103e-13
3.99755e-13
3.47744e-13
3.04196e-13
2.69481e-13
2.40241e-13
1.22557e-13
7.38486e-13
6.45399e-13
7.69522e-13
6.66625e-13
5.76127e-13
5.01045e-13
4.39016e-13
3.88823e-13
3.45531e-13
1.73156e-13
9.7621e-13
9.63353e-13
1.12328e-12
9.56023e-13
8.1368e-13
6.98692e-13
6.04107e-13
5.27046e-13
4.60267e-13
2.2792e-13
1.3761e-12
1.51934e-12
1.63714e-12
1.35828e-12
1.12798e-12
9.47072e-13
8.02333e-13
6.85874e-13
5.8601e-13
2.86111e-13
2.03973e-12
2.42079e-12
2.38573e-12
1.91371e-12
1.54305e-12
1.26004e-12
1.03949e-12
8.67049e-13
7.236e-13
3.48862e-13
3.32947e-12
3.86482e-12
3.48064e-12
2.68408e-12
2.08943e-12
1.65236e-12
1.32464e-12
1.07505e-12
8.73884e-13
4.15593e-13
4.94149e-10
8.80467e-12
5.11099e-12
3.75821e-12
2.81249e-12
2.1465e-12
1.66564e-12
1.31188e-12
1.03899e-12
4.87687e-13
4.63747e-07
2.37799e-09
1.79828e-11
5.22767e-12
3.74344e-12
2.75974e-12
2.07517e-12
1.58808e-12
1.2241e-12
5.71004e-13
3.82356e-13
3.57378e-13
1.73074e-13
1.52667e-13
1.32786e-13
1.15832e-13
1.06194e-13
1.86657e-13
6.55205e-13
1.79063e-12
5.32976e-13
4.5966e-13
3.89265e-13
3.39443e-13
2.93072e-13
2.51961e-13
2.17658e-13
2.14418e-13
4.18714e-13
1.17835e-12
6.00257e-13
4.93333e-13
5.29775e-13
4.61888e-13
4.01123e-13
3.50296e-13
3.09462e-13
2.85039e-13
3.54867e-13
7.87319e-13
7.404e-13
6.45447e-13
7.70416e-13
6.67738e-13
5.77601e-13
5.036e-13
4.44572e-13
3.99725e-13
3.98878e-13
5.71099e-13
9.79464e-13
9.63462e-13
1.12413e-12
9.57287e-13
8.15489e-13
7.01161e-13
6.09537e-13
5.37169e-13
4.92902e-13
4.65009e-13
1.38052e-12
1.51925e-12
1.63793e-12
1.36002e-12
1.13056e-12
9.50785e-13
8.08985e-13
6.97474e-13
6.11348e-13
4.32567e-13
2.04496e-12
2.42043e-12
2.38689e-12
1.91649e-12
1.54696e-12
1.26557e-12
1.04779e-12
8.80005e-13
7.46731e-13
4.4646e-13
3.21144e-12
3.86372e-12
3.48309e-12
2.6894e-12
2.09609e-12
1.66e-12
1.33452e-12
1.09069e-12
8.98078e-13
4.87195e-13
3.27528e-10
6.96486e-12
5.10525e-12
3.76762e-12
2.8232e-12
2.15813e-12
1.67992e-12
1.33166e-12
1.06443e-12
5.45163e-13
3.61056e-07
1.18703e-09
1.04176e-11
5.20405e-12
3.75764e-12
2.77596e-12
2.09432e-12
1.61231e-12
1.25261e-12
6.21559e-13
4.10798e-13
4.49101e-13
2.50367e-13
1.55828e-13
2.48638e-13
6.91723e-13
1.59017e-12
6.38522e-12
2.4319e-11
5.35226e-11
5.89432e-13
6.21563e-13
4.91327e-13
3.66326e-13
3.04056e-13
5.97301e-13
1.21806e-12
3.99853e-12
1.44847e-11
3.54565e-11
7.11956e-13
7.77761e-13
6.94521e-13
5.3501e-13
3.95085e-13
5.06037e-13
1.06093e-12
2.73241e-12
9.30765e-12
2.35286e-11
9.26272e-13
1.05295e-12
9.94438e-13
7.86402e-13
5.906e-13
5.36493e-13
9.821e-13
2.03327e-12
6.43188e-12
1.61112e-11
1.2676e-12
1.48115e-12
1.40584e-12
1.1201e-12
8.59972e-13
6.8637e-13
8.95942e-13
1.71269e-12
4.73126e-12
1.13801e-11
1.80291e-12
2.1359e-12
1.97578e-12
1.56106e-12
1.20318e-12
9.30838e-13
9.24387e-13
1.60955e-12
3.66831e-12
8.27172e-12
2.63545e-12
3.13978e-12
2.77627e-12
2.14848e-12
1.64146e-12
1.25068e-12
1.06493e-12
1.46596e-12
2.97581e-12
6.17184e-12
3.84994e-12
4.67971e-12
3.91424e-12
2.93915e-12
2.20072e-12
1.65052e-12
1.30433e-12
1.4219e-12
2.51139e-12
4.71843e-12
2.19209e-10
6.4993e-12
5.54703e-12
4.0181e-12
2.9221e-12
2.14285e-12
1.62445e-12
1.49162e-12
2.19308e-12
3.69186e-12
1.01752e-07
2.69782e-09
1.17268e-11
5.38264e-12
3.83408e-12
2.74027e-12
2.01358e-12
1.6586e-12
2.00086e-12
2.96336e-12
2.50223e-12
2.34508e-12
1.49634e-12
1.70945e-13
2.74338e-12
9.19659e-12
3.00912e-11
1.30207e-10
3.62792e-10
4.74188e-10
3.52644e-12
3.39291e-12
2.50437e-12
1.12253e-12
1.36959e-12
6.49593e-12
2.09973e-11
7.92893e-11
2.22055e-10
3.02715e-10
4.79272e-12
4.64376e-12
3.66285e-12
2.26514e-12
2.2852e-13
4.21604e-12
1.46965e-11
5.1553e-11
1.42628e-10
2.07961e-10
6.4562e-12
6.21406e-12
5.04901e-12
3.53172e-12
1.36951e-12
2.34894e-12
1.02274e-11
3.51131e-11
9.55336e-11
1.48002e-10
8.69068e-12
8.21924e-12
6.73437e-12
4.99437e-12
2.76465e-12
7.75312e-13
7.01664e-12
2.44585e-11
6.61814e-11
1.07891e-10
1.17477e-11
1.08255e-11
8.81989e-12
6.69974e-12
4.25289e-12
1.10309e-12
4.50298e-12
1.71769e-11
4.70982e-11
8.02041e-11
1.60168e-11
1.429e-11
1.145e-11
8.72825e-12
5.91964e-12
2.63331e-12
2.45647e-12
1.2231e-11
3.42516e-11
6.05955e-11
2.21466e-11
1.89846e-11
1.48194e-11
1.1183e-11
7.79747e-12
4.22706e-12
9.95268e-13
8.58703e-12
2.52934e-11
4.64268e-11
6.59841e-10
2.57134e-11
1.92219e-11
1.42056e-11
9.95878e-12
5.93373e-12
1.65052e-12
5.78357e-12
1.88703e-11
3.5979e-11
9.79191e-07
3.85528e-09
2.73161e-11
1.79939e-11
1.24678e-11
7.76678e-12
3.16811e-12
3.58806e-12
1.41254e-11
2.8136e-11
3.29e-12
2.95935e-12
1.94513e-12
1.97608e-12
8.59038e-12
3.16684e-11
1.46592e-10
5.11441e-10
8.99883e-10
1.02046e-09
4.35197e-12
4.05549e-12
3.08534e-12
1.63243e-12
5.3398e-12
2.11883e-11
8.82964e-11
3.04563e-10
5.55053e-10
6.13638e-10
5.63928e-12
5.3215e-12
4.36929e-12
2.68465e-12
2.87249e-12
1.39202e-11
5.61051e-11
1.90174e-10
3.64749e-10
3.98467e-10
7.28273e-12
6.84902e-12
5.81477e-12
4.15119e-12
1.93826e-12
8.69926e-12
3.67793e-11
1.23593e-10
2.47641e-10
2.68642e-10
9.43111e-12
8.74241e-12
7.49495e-12
5.76622e-12
3.04333e-12
4.98239e-12
2.42855e-11
8.25429e-11
1.72156e-10
1.85979e-10
1.23114e-11
1.11449e-11
9.50144e-12
7.55241e-12
4.79645e-12
2.56538e-12
1.57599e-11
5.60661e-11
1.21935e-10
1.31524e-10
1.62643e-11
1.42644e-11
1.19587e-11
9.5891e-12
6.68942e-12
2.68476e-12
9.84996e-12
3.85654e-11
8.7389e-11
9.45744e-11
2.18356e-11
1.84046e-11
1.50387e-11
1.19695e-11
8.71538e-12
4.47952e-12
5.56819e-12
2.65437e-11
6.32589e-11
6.89202e-11
3.09367e-10
2.49793e-11
1.89838e-11
1.48204e-11
1.095e-11
6.55376e-12
2.83158e-12
1.80292e-11
4.60914e-11
5.06986e-11
2.13814e-07
9.62954e-09
6.53391e-11
1.82767e-11
1.34505e-11
8.67448e-12
2.9179e-12
1.18091e-11
3.36545e-11
3.75056e-11
1.03573e-12
1.28622e-12
1.54117e-12
3.18924e-12
8.33883e-12
2.43198e-11
8.48132e-11
2.36154e-10
3.47456e-10
3.35138e-10
1.13521e-12
1.30229e-12
1.42741e-12
2.43451e-12
5.98775e-12
1.71407e-11
5.68341e-11
1.5306e-10
2.11364e-10
1.54444e-10
1.24028e-12
1.36144e-12
1.44183e-12
1.9808e-12
4.31536e-12
1.21296e-11
3.88365e-11
1.01962e-10
1.34977e-10
6.57575e-11
1.35215e-12
1.45133e-12
1.53345e-12
1.81659e-12
3.19632e-12
8.6032e-12
2.70671e-11
6.96012e-11
8.9381e-11
2.82037e-11
1.47255e-12
1.56163e-12
1.66361e-12
1.83608e-12
2.53334e-12
6.11495e-12
1.90223e-11
4.85998e-11
6.06498e-11
1.50171e-11
1.61218e-12
1.69005e-12
1.81095e-12
1.94469e-12
2.24681e-12
4.44491e-12
1.34385e-11
3.45513e-11
4.18931e-11
1.22907e-11
1.77841e-12
1.83985e-12
1.96781e-12
2.09436e-12
2.21071e-12
3.35949e-12
9.51265e-12
2.47022e-11
2.92793e-11
1.18178e-11
2.07811e-12
2.01508e-12
2.139e-12
2.26058e-12
2.30163e-12
2.77161e-12
6.80655e-12
1.77809e-11
2.06245e-11
1.13324e-11
7.71057e-10
1.40089e-11
2.32218e-12
2.43616e-12
2.45176e-12
2.54688e-12
4.96178e-12
1.28679e-11
1.4586e-11
1.06619e-11
3.62565e-07
1.16247e-08
4.4047e-11
2.79693e-12
2.62231e-12
2.53831e-12
3.74467e-12
9.33411e-12
1.02843e-11
9.74628e-12
7.76606e-13
1.47976e-12
1.60383e-12
2.51483e-12
4.13047e-12
6.83299e-12
1.4593e-11
5.61333e-11
2.05602e-10
5.54816e-10
7.12859e-13
1.32916e-12
1.38732e-12
2.14009e-12
3.47366e-12
5.7568e-12
1.10261e-11
3.49118e-11
1.25191e-10
3.29253e-10
6.50104e-13
1.18776e-12
1.19467e-12
1.81243e-12
2.91354e-12
4.80193e-12
8.72982e-12
2.30584e-11
7.99631e-11
2.04932e-10
5.97246e-13
1.06645e-12
1.03374e-12
1.55156e-12
2.45533e-12
4.01689e-12
7.05062e-12
1.61281e-11
5.30524e-11
1.32875e-10
5.51229e-13
9.62428e-13
8.96759e-13
1.32752e-12
2.07734e-12
3.38638e-12
5.77091e-12
1.18653e-11
3.6275e-11
8.90178e-11
5.12062e-13
8.73342e-13
7.8175e-13
1.14697e-12
1.78011e-12
2.8618e-12
4.78199e-12
9.08014e-12
2.54249e-11
6.12926e-11
4.78361e-13
7.97042e-13
6.8389e-13
9.93507e-13
1.5236e-12
2.42699e-12
4.0168e-12
7.16356e-12
1.8213e-11
4.3211e-11
8.79091e-13
7.32211e-13
6.01931e-13
8.6394e-13
1.31367e-12
2.0769e-12
3.39966e-12
5.79131e-12
1.32929e-11
3.1096e-11
1.14046e-09
3.96332e-11
6.07019e-13
7.52833e-13
1.13915e-12
1.78763e-12
2.89468e-12
4.77384e-12
9.87213e-12
2.28036e-11
3.60375e-07
3.59423e-08
2.48382e-10
2.75001e-12
9.51808e-13
1.5366e-12
2.46746e-12
3.98591e-12
7.42909e-12
1.69814e-11
1.04766e-12
1.83541e-12
1.63333e-12
2.16736e-12
3.01372e-12
4.36053e-12
6.71008e-12
1.24605e-11
4.98271e-11
1.76104e-10
9.7507e-13
1.68287e-12
1.46389e-12
1.93559e-12
2.6663e-12
3.79866e-12
5.69089e-12
9.96567e-12
3.503e-11
1.06311e-10
9.05002e-13
1.53661e-12
1.30075e-12
1.71184e-12
2.34268e-12
3.30887e-12
4.83614e-12
7.90242e-12
2.47455e-11
6.79949e-11
8.43546e-13
1.40874e-12
1.1618e-12
1.51782e-12
2.06701e-12
2.89427e-12
4.16701e-12
6.3782e-12
1.78448e-11
4.55161e-11
7.90105e-13
1.29713e-12
1.04204e-12
1.35124e-12
1.83477e-12
2.54883e-12
3.62983e-12
5.29628e-12
1.30177e-11
3.15365e-11
7.43542e-13
1.19952e-12
9.37975e-13
1.20877e-12
1.62989e-12
2.25198e-12
3.19127e-12
4.50554e-12
9.59371e-12
2.24481e-11
7.02516e-13
1.11333e-12
8.47848e-13
1.08482e-12
1.45405e-12
2.00224e-12
2.82065e-12
3.89884e-12
7.12862e-12
1.63216e-11
1.2432e-12
1.03956e-12
7.69881e-13
9.76735e-13
1.30106e-12
1.78291e-12
2.50032e-12
3.41327e-12
5.34469e-12
1.20662e-11
1.63951e-09
7.00609e-11
7.9555e-13
8.80557e-13
1.16816e-12
1.59194e-12
2.22677e-12
3.00826e-12
4.05045e-12
9.02566e-12
4.41943e-07
6.2968e-08
6.04473e-10
3.22871e-12
9.84498e-13
1.4253e-12
1.98672e-12
2.66086e-12
3.08023e-12
6.8126e-12
1.44458e-12
2.31104e-12
1.64921e-12
1.89382e-12
2.27247e-12
2.81943e-12
3.77878e-12
5.74901e-12
1.33489e-11
2.84342e-11
1.36633e-12
2.16294e-12
1.53175e-12
1.76402e-12
2.1137e-12
2.59681e-12
3.34694e-12
4.72835e-12
1.0707e-11
2.09263e-11
1.28764e-12
2.01538e-12
1.40814e-12
1.62396e-12
1.94623e-12
2.37787e-12
2.99805e-12
3.9722e-12
8.35685e-12
1.55876e-11
1.21808e-12
1.88358e-12
1.29656e-12
1.49566e-12
1.79331e-12
2.18634e-12
2.72288e-12
3.43641e-12
6.46989e-12
1.18084e-11
1.15641e-12
1.7656e-12
1.19638e-12
1.37871e-12
1.65506e-12
2.01547e-12
2.49683e-12
3.04675e-12
4.99358e-12
9.06401e-12
1.10145e-12
1.65919e-12
1.10643e-12
1.27385e-12
1.52689e-12
1.85988e-12
2.29785e-12
2.75002e-12
3.84265e-12
7.01012e-12
1.05271e-12
1.56372e-12
1.02563e-12
1.17853e-12
1.4109e-12
1.71918e-12
2.12575e-12
2.50818e-12
2.95222e-12
5.44581e-12
1.64934e-12
1.48055e-12
9.52913e-13
1.09183e-12
1.30538e-12
1.59083e-12
1.96863e-12
2.30844e-12
2.26183e-12
4.24886e-12
2.01278e-09
1.01407e-10
1.04444e-12
1.01182e-12
1.20857e-12
1.47282e-12
1.82419e-12
2.13448e-12
1.72564e-12
3.32303e-12
3.60416e-07
8.64132e-08
9.53552e-10
3.40885e-12
1.04001e-12
1.36141e-12
1.68762e-12
1.97391e-12
1.30327e-12
2.59262e-12
2.01886e-12
2.91176e-12
1.61405e-12
1.5981e-12
1.65896e-12
1.799e-12
2.1367e-12
2.91538e-12
6.2115e-12
8.54018e-12
1.93621e-12
2.778e-12
1.5544e-12
1.55647e-12
1.6256e-12
1.74494e-12
1.98037e-12
2.47803e-12
5.06399e-12
7.05017e-12
1.85319e-12
2.63999e-12
1.47731e-12
1.49461e-12
1.57246e-12
1.68448e-12
1.86168e-12
2.16569e-12
4.01955e-12
5.73457e-12
1.778e-12
2.5128e-12
1.40228e-12
1.43012e-12
1.51521e-12
1.62673e-12
1.77452e-12
1.95779e-12
3.16889e-12
4.66367e-12
1.70969e-12
2.39507e-12
1.32995e-12
1.36639e-12
1.4573e-12
1.56995e-12
1.70354e-12
1.81896e-12
2.47938e-12
3.78913e-12
1.64825e-12
2.28684e-12
1.26164e-12
1.30312e-12
1.39725e-12
1.5136e-12
1.64561e-12
1.719e-12
1.92329e-12
3.0745e-12
1.59224e-12
2.18692e-12
1.19744e-12
1.24186e-12
1.33706e-12
1.45606e-12
1.59025e-12
1.64396e-12
1.46895e-12
2.49064e-12
2.17543e-12
2.0991e-12
1.13695e-12
1.18311e-12
1.27886e-12
1.39811e-12
1.53394e-12
1.58332e-12
1.10183e-12
2.01041e-12
2.28972e-09
1.26791e-10
1.65022e-12
1.12649e-12
1.22165e-12
1.34125e-12
1.47817e-12
1.53003e-12
8.07242e-13
1.61396e-12
1.16424e-07
9.64953e-08
2.11941e-09
1.38086e-11
1.08938e-12
1.27968e-12
1.42036e-12
1.47456e-12
5.59532e-13
1.28205e-12
2.79097e-12
3.59191e-12
1.46141e-12
1.21344e-12
1.06493e-12
1.00358e-12
1.13235e-12
1.51661e-12
3.20104e-12
3.72228e-12
2.71069e-12
3.48752e-12
1.45886e-12
1.24679e-12
1.11745e-12
1.03604e-12
1.07385e-12
1.29678e-12
2.74046e-12
3.27394e-12
2.62844e-12
3.37455e-12
1.43517e-12
1.256e-12
1.14861e-12
1.06568e-12
1.04952e-12
1.14251e-12
2.2554e-12
2.79501e-12
2.55256e-12
3.26624e-12
1.40362e-12
1.25301e-12
1.16649e-12
1.09207e-12
1.04968e-12
1.05115e-12
1.83879e-12
2.38261e-12
2.48257e-12
3.16379e-12
1.36893e-12
1.2425e-12
1.17457e-12
1.11179e-12
1.05994e-12
1.0075e-12
1.48071e-12
2.02629e-12
2.41751e-12
3.06575e-12
1.33113e-12
1.22546e-12
1.17446e-12
1.12556e-12
1.07617e-12
9.92484e-13
1.17236e-12
1.717e-12
2.35748e-12
2.97355e-12
1.29202e-12
1.20371e-12
1.16803e-12
1.13322e-12
1.09176e-12
9.93067e-13
9.09392e-13
1.44916e-12
2.91728e-12
2.89163e-12
1.25272e-12
1.17961e-12
1.15601e-12
1.13402e-12
1.10344e-12
1.00285e-12
6.84812e-13
1.21917e-12
2.61117e-09
1.41561e-10
2.15855e-12
1.15454e-12
1.14047e-12
1.12975e-12
1.10949e-12
1.01474e-12
4.93248e-13
1.02152e-12
1.65603e-07
8.85264e-08
1.9984e-09
2.14953e-11
1.08599e-12
1.11713e-12
1.11032e-12
1.02332e-12
3.24783e-13
8.55234e-13
3.70562e-12
4.2544e-12
1.14976e-12
7.62448e-13
4.95486e-13
3.50671e-13
4.84249e-13
7.90391e-13
1.94923e-12
1.98556e-12
3.63324e-12
4.18973e-12
1.19307e-12
8.43734e-13
6.00064e-13
4.21212e-13
4.28132e-13
6.36154e-13
1.78583e-12
1.86293e-12
3.5604e-12
4.1183e-12
1.21402e-12
9.00993e-13
6.83864e-13
5.00051e-13
4.24142e-13
5.16596e-13
1.55122e-12
1.66837e-12
3.49117e-12
4.04515e-12
1.22412e-12
9.4377e-13
7.50115e-13
5.7435e-13
4.56585e-13
4.404e-13
1.34245e-12
1.49329e-12
3.42567e-12
3.9729e-12
1.22528e-12
9.73974e-13
8.0318e-13
6.40049e-13
5.05488e-13
4.11322e-13
1.15559e-12
1.33547e-12
3.36468e-12
3.90187e-12
1.21995e-12
9.95479e-13
8.46176e-13
6.97957e-13
5.60162e-13
4.20588e-13
9.90576e-13
1.1943e-12
3.30675e-12
3.8323e-12
1.20988e-12
1.0094e-12
8.79095e-13
7.4669e-13
6.13922e-13
4.53725e-13
8.46833e-13
1.06939e-12
3.83231e-12
3.77186e-12
1.19639e-12
1.017e-12
9.03994e-13
7.87317e-13
6.63811e-13
4.98626e-13
7.24045e-13
9.59446e-13
2.90242e-09
1.41886e-10
2.65272e-12
1.02354e-12
9.23871e-13
8.20925e-13
7.07309e-13
5.46818e-13
6.21871e-13
8.64667e-13
4.73905e-07
5.82016e-08
1.72785e-09
2.70232e-11
9.87253e-13
8.46139e-13
7.44841e-13
5.91063e-13
5.40772e-13
7.86446e-13
4.58617e-12
4.76866e-12
7.36879e-13
4.96368e-13
2.72379e-13
1.50461e-13
2.65484e-13
4.82224e-13
1.40957e-12
1.24768e-12
4.52479e-12
4.74774e-12
7.82673e-13
5.34967e-13
3.11533e-13
1.2461e-13
1.62633e-13
3.79081e-13
1.39775e-12
1.2585e-12
4.46525e-12
4.72227e-12
8.16339e-13
5.71985e-13
3.60929e-13
1.63137e-13
7.5709e-14
2.7902e-13
1.29476e-12
1.18462e-12
4.40717e-12
4.69192e-12
8.43148e-13
6.04897e-13
4.10471e-13
2.2141e-13
4.62214e-14
1.8581e-13
1.2016e-12
1.11662e-12
4.3519e-12
4.65842e-12
8.63084e-13
6.35141e-13
4.5715e-13
2.81416e-13
1.09101e-13
1.01218e-13
1.11608e-12
1.0539e-12
4.29836e-12
4.62217e-12
8.78234e-13
6.61084e-13
4.99661e-13
3.37619e-13
1.76674e-13
3.31999e-14
1.03824e-12
9.96749e-13
4.24759e-12
4.58549e-12
8.89042e-13
6.83501e-13
5.37607e-13
3.89404e-13
2.38915e-13
6.05346e-14
9.69354e-13
9.45319e-13
4.74212e-12
4.55555e-12
8.95468e-13
7.01461e-13
5.70925e-13
4.35677e-13
2.95548e-13
1.239e-13
9.08244e-13
8.993e-13
3.10891e-09
1.30327e-10
2.73894e-12
7.2037e-13
5.99625e-13
4.76298e-13
3.47101e-13
1.84311e-13
8.54992e-13
8.57788e-13
7.52947e-07
2.22314e-08
9.72234e-10
1.95389e-11
6.99817e-13
5.13348e-13
3.93784e-13
2.41069e-13
8.09087e-13
8.31947e-13
5.15011e-12
5.03111e-12
4.03327e-13
5.89994e-13
5.09381e-13
4.39602e-13
4.01386e-13
4.39028e-13
1.18586e-12
9.38575e-13
5.09586e-12
5.03778e-12
3.6795e-13
5.30522e-13
4.5617e-13
3.92048e-13
3.55708e-13
4.02589e-13
1.24626e-12
1.00828e-12
5.04589e-12
5.04458e-12
3.474e-13
4.78674e-13
4.09132e-13
3.46693e-13
3.12805e-13
3.60937e-13
1.20517e-12
9.86427e-13
4.99676e-12
5.04492e-12
3.40183e-13
4.34241e-13
3.68561e-13
3.08872e-13
2.74151e-13
3.22247e-13
1.16612e-12
9.64734e-13
4.94881e-12
5.04019e-12
3.44497e-13
3.99222e-13
3.37359e-13
2.78475e-13
2.41349e-13
2.86555e-13
1.12877e-12
9.44535e-13
4.90319e-12
5.03242e-12
3.55466e-13
3.71848e-13
3.11961e-13
2.53863e-13
2.14061e-13
2.55271e-13
1.09378e-12
9.25378e-13
4.8589e-12
5.02184e-12
3.69869e-13
3.51347e-13
2.94348e-13
2.36766e-13
1.93952e-13
2.26917e-13
1.06022e-12
9.07846e-13
5.33622e-12
5.01758e-12
3.85839e-13
3.35991e-13
2.82088e-13
2.2563e-13
1.78693e-13
2.03777e-13
1.02923e-12
8.90062e-13
3.21154e-09
1.19223e-10
2.53082e-12
3.25179e-13
2.74097e-13
2.19997e-13
1.71856e-13
1.85487e-13
9.98277e-13
8.7333e-13
9.24622e-07
2.992e-08
8.33098e-10
1.53514e-11
2.85436e-13
2.21161e-13
1.74824e-13
1.78074e-13
9.69857e-13
9.1e-13
5.1535e-12
5.00216e-12
3.74976e-13
6.13965e-13
5.39006e-13
4.65576e-13
4.13192e-13
4.30651e-13
1.12117e-12
8.96554e-13
5.09919e-12
5.01099e-12
3.12309e-13
5.45681e-13
4.81967e-13
4.1734e-13
3.72896e-13
4.02612e-13
1.1906e-12
9.69735e-13
5.04955e-12
5.02087e-12
2.67311e-13
4.83468e-13
4.28698e-13
3.716e-13
3.32864e-13
3.65932e-13
1.15716e-12
9.51157e-13
5.00082e-12
5.02358e-12
2.41669e-13
4.28172e-13
3.80674e-13
3.302e-13
2.96084e-13
3.32417e-13
1.12516e-12
9.32661e-13
4.95405e-12
5.0222e-12
2.35592e-13
3.82009e-13
3.39995e-13
2.94163e-13
2.63002e-13
3.00542e-13
1.09443e-12
9.15698e-13
4.90879e-12
5.01668e-12
2.43795e-13
3.4348e-13
3.05963e-13
2.63068e-13
2.33267e-13
2.71221e-13
1.06536e-12
8.99552e-13
4.86517e-12
5.0083e-12
2.60535e-13
3.11379e-13
2.77576e-13
2.37676e-13
2.08413e-13
2.44438e-13
1.03735e-12
8.84753e-13
5.34224e-12
5.00606e-12
2.81599e-13
2.86168e-13
2.55251e-13
2.17179e-13
1.86884e-13
2.20509e-13
1.01074e-12
8.69877e-13
3.21154e-09
1.19223e-10
2.51125e-12
2.65602e-13
2.36462e-13
2.01175e-13
1.71436e-13
2.00166e-13
9.84782e-13
8.55788e-13
9.24622e-07
2.992e-08
8.3308e-10
1.53288e-11
2.21129e-13
1.92792e-13
1.65842e-13
1.88543e-13
9.59492e-13
9.07946e-13
4.58908e-12
4.68855e-12
6.42872e-13
5.09002e-13
3.33372e-13
2.26445e-13
2.61433e-13
4.21051e-13
1.18603e-12
1.10822e-12
4.52942e-12
4.67584e-12
6.74319e-13
5.17474e-13
3.36096e-13
1.93928e-13
1.82288e-13
3.40243e-13
1.20555e-12
1.13014e-12
4.4723e-12
4.65948e-12
7.02556e-13
5.33391e-13
3.56672e-13
1.97606e-13
1.18822e-13
2.562e-13
1.12992e-12
1.06794e-12
4.41672e-12
4.63796e-12
7.26586e-13
5.51821e-13
3.85034e-13
2.25363e-13
9.09366e-14
1.7846e-13
1.06133e-12
1.0109e-12
4.36324e-12
4.61237e-12
7.48321e-13
5.71637e-13
4.1687e-13
2.64104e-13
1.15599e-13
1.11763e-13
9.98591e-13
9.58726e-13
4.3121e-12
4.58403e-12
7.65865e-13
5.91353e-13
4.49333e-13
3.06301e-13
1.62389e-13
6.59608e-14
9.42193e-13
9.12497e-13
4.26283e-12
4.55396e-12
7.80064e-13
6.09666e-13
4.80358e-13
3.48179e-13
2.12783e-13
7.3976e-14
8.91808e-13
8.7091e-13
4.75821e-12
4.5304e-12
7.90979e-13
6.26235e-13
5.09149e-13
3.87245e-13
2.61279e-13
1.17303e-13
8.47914e-13
8.3413e-13
3.10891e-09
1.30328e-10
2.69549e-12
6.43084e-13
5.34952e-13
4.24054e-13
3.07217e-13
1.6721e-13
8.10032e-13
8.02465e-13
7.52947e-07
2.22314e-08
9.72192e-10
1.94922e-11
6.25239e-13
4.57539e-13
3.49884e-13
2.17119e-13
7.77608e-13
7.96175e-13
3.70464e-12
4.15372e-12
1.00373e-12
6.56584e-13
3.95769e-13
2.1914e-13
3.31849e-13
6.06904e-13
1.45905e-12
1.67622e-12
3.63827e-12
4.10507e-12
1.05374e-12
7.34398e-13
4.98852e-13
3.08459e-13
2.9064e-13
4.83187e-13
1.3672e-12
1.58582e-12
3.57118e-12
4.04786e-12
1.08451e-12
7.94322e-13
5.83652e-13
3.97757e-13
3.03259e-13
3.83772e-13
1.19598e-12
1.42256e-12
3.50644e-12
3.9883e-12
1.10373e-12
8.39853e-13
6.52343e-13
4.77712e-13
3.49695e-13
3.23316e-13
1.04143e-12
1.27494e-12
3.4451e-12
3.9273e-12
1.11501e-12
8.76277e-13
7.09054e-13
5.47705e-13
4.08567e-13
3.08822e-13
9.03575e-13
1.14257e-12
3.3872e-12
3.86676e-12
1.11878e-12
9.02716e-13
7.55347e-13
6.09281e-13
4.70291e-13
3.29802e-13
7.8274e-13
1.02439e-12
3.33192e-12
3.8066e-12
1.11789e-12
9.22648e-13
7.92421e-13
6.61351e-13
5.28414e-13
3.7256e-13
6.79021e-13
9.21714e-13
3.85725e-12
3.75451e-12
1.11204e-12
9.36198e-13
8.23072e-13
7.05498e-13
5.82017e-13
4.2321e-13
5.93351e-13
8.3146e-13
2.90242e-09
1.41889e-10
2.60683e-12
9.4854e-13
8.46958e-13
7.426e-13
6.29285e-13
4.75186e-13
5.24558e-13
7.55555e-13
4.73905e-07
5.82016e-08
1.72783e-09
2.69864e-11
9.13918e-13
7.71746e-13
6.69719e-13
5.22902e-13
4.74344e-13
6.98546e-13
2.79353e-12
3.50082e-12
1.29914e-12
1.03648e-12
8.75042e-13
7.8959e-13
8.61032e-13
1.1378e-12
2.14192e-12
2.97789e-12
2.72269e-12
3.41794e-12
1.31865e-12
1.08911e-12
9.44713e-13
8.45261e-13
8.45688e-13
9.96446e-13
1.86388e-12
2.6427e-12
2.6481e-12
3.32348e-12
1.3146e-12
1.11729e-12
9.93443e-13
8.94941e-13
8.52748e-13
9.00533e-13
1.53543e-12
2.26059e-12
2.57756e-12
3.23101e-12
1.30147e-12
1.13101e-12
1.02715e-12
9.37526e-13
8.74767e-13
8.51993e-13
1.24471e-12
1.92753e-12
2.51208e-12
3.14126e-12
1.28149e-12
1.13606e-12
1.04991e-12
9.72154e-13
9.04709e-13
8.36289e-13
9.94138e-13
1.63724e-12
2.45036e-12
3.05484e-12
1.25739e-12
1.13272e-12
1.06358e-12
9.99353e-13
9.36064e-13
8.41976e-13
7.77244e-13
1.38501e-12
2.39302e-12
2.9714e-12
1.23043e-12
1.12442e-12
1.06967e-12
1.01794e-12
9.63607e-13
8.59011e-13
5.89157e-13
1.16726e-12
2.94879e-12
2.89787e-12
1.20119e-12
1.11071e-12
1.07014e-12
1.031e-12
9.85057e-13
8.81132e-13
4.26067e-13
9.80046e-13
2.61118e-09
1.41565e-10
2.12484e-12
1.09626e-12
1.0649e-12
1.03679e-12
1.00176e-12
9.036e-13
2.87845e-13
8.20718e-13
1.65603e-07
8.85264e-08
1.99838e-09
2.14659e-11
1.02186e-12
1.03482e-12
1.01212e-12
9.2121e-13
1.62457e-13
6.8815e-13
2.03657e-12
2.85123e-12
1.45835e-12
1.38167e-12
1.38217e-12
1.44538e-12
1.64071e-12
2.09466e-12
3.68396e-12
6.28273e-12
1.96345e-12
2.74206e-12
1.43108e-12
1.37723e-12
1.38951e-12
1.44411e-12
1.57793e-12
1.86083e-12
3.0565e-12
5.26745e-12
1.88629e-12
2.62257e-12
1.3813e-12
1.3474e-12
1.37247e-12
1.42652e-12
1.52698e-12
1.69336e-12
2.44446e-12
4.30696e-12
1.81533e-12
2.50951e-12
1.32846e-12
1.31051e-12
1.34586e-12
1.40508e-12
1.49238e-12
1.58186e-12
1.93722e-12
3.51304e-12
1.75006e-12
2.40344e-12
1.27442e-12
1.26973e-12
1.31445e-12
1.37919e-12
1.46414e-12
1.50959e-12
1.52282e-12
2.8641e-12
1.68981e-12
2.30404e-12