/*--------------------------------*- C++ -*----------------------------------*\
| =========                 |                                                 |
| \\      /  F ield         | OpenFOAM: The Open Source CFD Toolbox           |
|  \\    /   O peration     | Version:  4.1                                   |
|   \\  /    A nd           | Web:      www.OpenFOAM.org                      |
|    \\/     M anipulation  |                                                 |
\*---------------------------------------------------------------------------*/
FoamFile
{
    version     2.0;
    format      ascii;
    class       volVectorField;
    location    "0.88";
    object      U;
}
// * * * * * * * * * * * * * * * * * * * * * * * * * * * * * * * * * * * * * //

dimensions      [0 1 -1 0 0 0 0];

internalField   nonuniform List<vector> 
18000
(
(8.84126e-14 3.84574e-13 -5.80295e-12)
(9.3214e-14 3.84259e-13 -5.7389e-12)
(8.39642e-14 -9.71222e-15 -5.67476e-12)
(7.49434e-14 -1.42322e-14 -5.61207e-12)
(6.61663e-14 -1.39541e-14 -5.54981e-12)
(5.76427e-14 -1.3565e-14 -5.48833e-12)
(4.94159e-14 -1.35941e-14 -5.42741e-12)
(4.15624e-14 -1.36067e-14 -5.36777e-12)
(3.3908e-14 -1.3375e-14 -5.30899e-12)
(2.65913e-14 -9.7278e-15 -5.25236e-12)
(1.34767e-13 3.94824e-13 -7.22404e-12)
(1.46808e-13 3.81575e-13 -6.97681e-12)
(1.28388e-13 -4.79223e-14 -6.73612e-12)
(1.10918e-13 -5.10157e-14 -6.50609e-12)
(9.47476e-14 -4.92699e-14 -6.28595e-12)
(7.97345e-14 -4.72988e-14 -6.07453e-12)
(6.56336e-14 -4.54577e-14 -5.87148e-12)
(5.27099e-14 -4.38786e-14 -5.67686e-12)
(4.05612e-14 -4.216e-14 -5.48929e-12)
(2.93282e-14 -3.02718e-14 -5.31396e-12)
(1.50471e-13 3.96651e-13 -9.09583e-12)
(1.57744e-13 3.64997e-13 -8.55929e-12)
(1.30402e-13 -1.03619e-13 -8.05303e-12)
(1.0585e-13 -1.02054e-13 -7.58402e-12)
(8.41941e-14 -9.51965e-14 -7.14702e-12)
(6.50114e-14 -8.92888e-14 -6.74037e-12)
(4.79599e-14 -8.37889e-14 -6.36231e-12)
(3.28366e-14 -7.86562e-14 -6.00862e-12)
(1.94318e-14 -7.39918e-14 -5.67916e-12)
(7.61271e-15 -5.1832e-14 -5.37692e-12)
(2.04477e-13 3.83569e-13 -1.15901e-11)
(2.02022e-13 3.25411e-13 -1.05976e-11)
(1.6144e-13 -1.83927e-13 -9.6971e-12)
(1.26845e-13 -1.71841e-13 -8.88538e-12)
(9.77798e-14 -1.55868e-13 -8.15571e-12)
(7.32095e-14 -1.41745e-13 -7.49771e-12)
(5.25933e-14 -1.29219e-13 -6.9029e-12)
(3.49843e-14 -1.18078e-13 -6.36461e-12)
(2.01853e-14 -1.0773e-13 -5.87636e-12)
(7.77541e-15 -7.3928e-14 -5.44076e-12)
(2.84173e-13 3.43283e-13 -1.49623e-11)
(2.63203e-13 2.47631e-13 -1.32532e-11)
(2.02487e-13 -3.0048e-13 -1.1764e-11)
(1.53408e-13 -2.6835e-13 -1.04683e-11)
(1.14317e-13 -2.35082e-13 -9.34288e-12)
(8.30046e-14 -2.06966e-13 -8.36063e-12)
(5.77791e-14 -1.83222e-13 -7.50094e-12)
(3.74443e-14 -1.62883e-13 -6.74677e-12)
(2.10413e-14 -1.44669e-13 -6.08219e-12)
(7.85526e-15 -9.71137e-14 -5.50585e-12)
(4.04801e-13 2.55655e-13 -1.95878e-11)
(3.49962e-13 1.05624e-13 -1.6754e-11)
(2.57622e-13 -4.7114e-13 -1.43881e-11)
(1.87367e-13 -4.019e-13 -1.24058e-11)
(1.34599e-13 -3.39277e-13 -1.07458e-11)
(9.43892e-14 -2.88823e-13 -9.34704e-12)
(6.36569e-14 -2.47609e-13 -8.16352e-12)
(4.00748e-14 -2.13459e-13 -7.15723e-12)
(2.19163e-14 -1.84507e-13 -6.29673e-12)
(7.95025e-15 -1.21281e-13 -5.57192e-12)
(5.90903e-13 8.53053e-14 -2.6021e-11)
(4.73403e-13 -1.45088e-13 -2.14345e-11)
(3.31053e-13 -7.2525e-13 -1.77492e-11)
(2.29649e-13 -5.88903e-13 -1.47943e-11)
(1.57904e-13 -4.76964e-13 -1.24125e-11)
(1.06296e-13 -3.9126e-13 -1.0479e-11)
(6.88563e-14 -3.2417e-13 -8.89843e-12)
(4.156e-14 -2.71107e-13 -7.59813e-12)
(2.15204e-14 -2.27919e-13 -6.52108e-12)
(6.74588e-15 -1.46483e-13 -5.63892e-12)
(-3.295e-12 -2.34167e-13 -3.51518e-11)
(-3.58554e-12 -5.83801e-13 -2.77782e-11)
(-3.59294e-12 -1.10688e-12 -2.21118e-11)
(-3.53815e-12 -8.52446e-13 -1.77702e-11)
(-3.45148e-12 -6.59772e-13 -1.44131e-11)
(-3.34826e-12 -5.19909e-13 -1.17917e-11)
(-3.23795e-12 -4.15451e-13 -9.72536e-12)
(-3.12594e-12 -3.36115e-13 -8.08227e-12)
(-3.01592e-12 -2.74698e-13 -6.76315e-12)
(-2.96706e-12 -1.72836e-13 -5.7156e-12)
(-6.49039e-09 -1.70554e-12 -9.38584e-11)
(-6.63843e-09 -1.52855e-12 -7.73885e-11)
(-6.26727e-09 -1.13485e-12 -6.4313e-11)
(-5.92694e-09 -7.02633e-13 -5.41871e-11)
(-5.61809e-09 -4.20968e-13 -4.62372e-11)
(-5.33726e-09 -2.35556e-13 -3.98969e-11)
(-5.08125e-09 -1.12006e-13 -3.47712e-11)
(-4.84723e-09 -3.00371e-14 -3.05755e-11)
(-4.6334e-09 -1.27084e-13 -2.71015e-11)
(-4.5595e-09 -3.40626e-13 -2.45907e-11)
(7.18435e-07 -1.76687e-09 -7.59046e-08)
(3.70343e-08 -4.99806e-10 -6.69522e-08)
(2.81485e-08 8.81831e-10 -5.90748e-08)
(2.32199e-08 8.16846e-10 -5.24294e-08)
(1.90185e-08 7.46468e-10 -4.67842e-08)
(1.5404e-08 6.82493e-10 -4.19632e-08)
(1.22729e-08 6.24939e-10 -3.78217e-08)
(9.54095e-09 5.71506e-10 -3.42435e-08)
(6.55771e-09 1.99004e-10 -3.11392e-08)
(-1.27913e-07 -3.4448e-10 -2.92233e-08)
(2.53148e-13 3.6437e-13 -6.26088e-12)
(2.3785e-13 3.44649e-13 -6.18926e-12)
(2.08895e-13 -4.90303e-14 -6.11792e-12)
(1.80942e-13 -5.30431e-14 -6.04733e-12)
(1.54099e-13 -5.25238e-14 -5.97804e-12)
(1.28188e-13 -5.18429e-14 -5.90992e-12)
(1.03253e-13 -5.1367e-14 -5.84144e-12)
(7.93155e-14 -5.07553e-14 -5.77535e-12)
(5.60812e-14 -4.95482e-14 -5.70985e-12)
(3.43084e-14 -2.8823e-14 -5.64614e-12)
(5.04936e-13 3.19929e-13 -7.8555e-12)
(4.66943e-13 2.37128e-13 -7.57716e-12)
(4.00759e-13 -1.8858e-13 -7.30573e-12)
(3.38743e-13 -1.8648e-13 -7.04727e-12)
(2.80861e-13 -1.80114e-13 -6.80045e-12)
(2.2685e-13 -1.73947e-13 -6.56329e-12)
(1.76427e-13 -1.67883e-13 -6.33696e-12)
(1.29269e-13 -1.62454e-13 -6.11941e-12)
(8.51621e-14 -1.55238e-13 -5.91107e-12)
(4.46385e-14 -8.83454e-14 -5.71484e-12)
(6.1695e-13 2.40749e-13 -9.98332e-12)
(5.50663e-13 6.98639e-14 -9.36919e-12)
(4.56586e-13 -3.83814e-13 -8.79451e-12)
(3.71738e-13 -3.65753e-13 -8.26162e-12)
(2.96101e-13 -3.44016e-13 -7.76835e-12)
(2.28544e-13 -3.23641e-13 -7.31031e-12)
(1.68098e-13 -3.05149e-13 -6.88597e-12)
(1.14023e-13 -2.8796e-13 -6.49027e-12)
(6.57692e-14 -2.69404e-13 -6.12192e-12)
(2.31764e-14 -1.51205e-13 -5.78584e-12)
(7.98362e-13 1.07193e-13 -1.28581e-11)
(6.87807e-13 -1.85564e-13 -1.17073e-11)
(5.53833e-13 -6.56055e-13 -1.06716e-11)
(4.38111e-13 -6.05163e-13 -9.74171e-12)
(3.39553e-13 -5.53288e-13 -8.91047e-12)
(2.55118e-13 -5.07238e-13 -8.16452e-12)
(1.82864e-13 -4.65856e-13 -7.49403e-12)
(1.21057e-13 -4.28554e-13 -6.88977e-12)
(6.8064e-14 -3.91374e-13 -6.34241e-12)
(2.35721e-14 -2.16275e-13 -5.85656e-12)
(1.04889e-12 -1.12181e-13 -1.68104e-11)
(8.6943e-13 -5.73894e-13 -1.47977e-11)
(6.77739e-13 -1.03599e-12 -1.3061e-11)
(5.19891e-13 -9.24523e-13 -1.15601e-11)
(3.91129e-13 -8.20696e-13 -1.02659e-11)
(2.85743e-13 -7.31441e-13 -9.14499e-12)
(1.99449e-13 -6.53805e-13 -8.16981e-12)
(1.28712e-13 -5.86346e-13 -7.3189e-12)
(7.06154e-14 -5.22665e-13 -6.57298e-12)
(2.3898e-14 -2.84256e-13 -5.92976e-12)
(1.39978e-12 -4.66168e-13 -2.23432e-11)
(1.11458e-12 -1.16139e-12 -1.89381e-11)
(8.37543e-13 -1.56856e-12 -1.6136e-11)
(6.21197e-13 -1.35207e-12 -1.38091e-11)
(4.52757e-13 -1.16282e-12 -1.18816e-11)
(3.21044e-13 -1.00577e-12 -1.02726e-11)
(2.17858e-13 -8.73981e-13 -8.92285e-12)
(1.36856e-13 -7.6321e-13 -7.78295e-12)
(7.33055e-14 -6.63524e-13 -6.81508e-12)
(2.41875e-14 -3.5479e-13 -6.00471e-12)
(1.90356e-12 -1.0291e-12 -3.02269e-11)
(1.44869e-12 -2.05032e-12 -2.45825e-11)
(1.04547e-12 -2.32309e-12 -2.01373e-11)
(7.47314e-13 -1.92634e-12 -1.66147e-11)
(5.26426e-13 -1.60136e-12 -1.3819e-11)
(3.61685e-13 -1.34185e-12 -1.15759e-11)
(2.38238e-13 -1.13211e-12 -9.76162e-12)
(1.45622e-13 -9.61547e-13 -8.28365e-12)
(7.59661e-14 -8.14974e-13 -7.06772e-12)
(2.44884e-14 -4.28642e-13 -6.08112e-12)
(2.5355e-12 -1.94302e-12 -4.17538e-11)
(1.60668e-12 -3.41232e-12 -3.24113e-11)
(1.05266e-12 -3.39631e-12 -2.54234e-11)
(6.71163e-13 -2.7021e-12 -2.01605e-11)
(4.0537e-13 -2.16491e-12 -1.61691e-11)
(2.18526e-13 -1.75403e-12 -1.30993e-11)
(8.65345e-14 -1.43468e-12 -1.07124e-11)
(-6.77956e-15 -1.18415e-12 -8.83474e-12)
(-7.29221e-14 -9.7761e-13 -7.34139e-12)
(-1.19748e-13 -5.05131e-13 -6.1677e-12)
(-2.55116e-10 -4.87425e-12 -1.08394e-10)
(-6.35417e-10 -6.72684e-12 -8.75777e-11)
(-5.26002e-10 -5.45872e-12 -7.15712e-11)
(-4.36528e-10 -4.23021e-12 -5.94893e-11)
(-3.66062e-10 -3.33265e-12 -5.02305e-11)
(-3.09776e-10 -2.66923e-12 -4.29864e-11)
(-2.64343e-10 -2.16859e-12 -3.7222e-11)
(-2.27312e-10 -1.78575e-12 -3.25652e-11)
(-1.96908e-10 -1.4827e-12 -2.87497e-11)
(-1.74949e-10 -9.17883e-13 -2.59954e-11)
(5.03661e-07 -2.79999e-09 -8.43309e-08)
(-8.90066e-09 -2.20939e-09 -7.37575e-08)
(-1.04821e-08 -7.86053e-10 -6.4273e-08)
(-9.82075e-09 -7.2212e-10 -5.64536e-08)
(-9.1718e-09 -6.7202e-10 -4.99451e-08)
(-8.56554e-09 -6.23409e-10 -4.4478e-08)
(-8.00988e-09 -5.77799e-10 -3.98461e-08)
(-7.50737e-09 -5.35684e-10 -3.58906e-08)
(-7.10219e-09 -5.05654e-10 -3.24929e-08)
(-1.06427e-08 -5.41942e-10 -3.03678e-08)
(2.32204e-13 3.67615e-13 -4.74507e-13)
(2.19026e-13 3.45458e-13 -4.66211e-13)
(1.92014e-13 -4.84401e-14 -4.58015e-13)
(1.66275e-13 -5.24781e-14 -4.49749e-13)
(1.41602e-13 -5.15548e-14 -4.41729e-13)
(1.1778e-13 -5.11667e-14 -4.34033e-13)
(9.52939e-14 -5.07038e-14 -4.26258e-13)
(7.3537e-14 -4.98407e-14 -4.1921e-13)
(5.27049e-14 -4.89697e-14 -4.12069e-13)
(3.32389e-14 -2.58107e-14 -4.04998e-13)
(5.041e-13 3.31589e-13 -6.56963e-13)
(4.65236e-13 2.38291e-13 -6.23698e-13)
(3.9868e-13 -1.87472e-13 -5.90948e-13)
(3.36362e-13 -1.8485e-13 -5.60309e-13)
(2.78509e-13 -1.78427e-13 -5.32088e-13)
(2.24609e-13 -1.71879e-13 -5.05799e-13)
(1.7463e-13 -1.65607e-13 -4.80004e-13)
(1.27898e-13 -1.60036e-13 -4.55828e-13)
(8.42724e-14 -1.52832e-13 -4.34656e-13)
(4.46214e-14 -7.97713e-14 -4.12675e-13)
(6.23563e-13 2.62217e-13 -9.27598e-13)
(5.54109e-13 6.80865e-14 -8.4545e-13)
(4.58122e-13 -3.8453e-13 -7.72284e-13)
(3.71741e-13 -3.65582e-13 -7.05321e-13)
(2.95194e-13 -3.42504e-13 -6.45522e-13)
(2.27269e-13 -3.21392e-13 -5.90948e-13)
(1.6675e-13 -3.02123e-13 -5.4205e-13)
(1.13013e-13 -2.84674e-13 -4.98004e-13)
(6.49258e-14 -2.6531e-13 -4.57207e-13)
(2.30898e-14 -1.36175e-13 -4.21844e-13)
(8.17954e-13 1.41627e-13 -1.33246e-12)
(7.00186e-13 -1.96731e-13 -1.16494e-12)
(5.61051e-13 -6.63397e-13 -1.02049e-12)
(4.41822e-13 -6.09553e-13 -8.94784e-13)
(3.4084e-13 -5.54707e-13 -7.87053e-13)
(2.55134e-13 -5.06185e-13 -6.94279e-13)
(1.82222e-13 -4.62849e-13 -6.14362e-13)
(1.20214e-13 -4.24844e-13 -5.44702e-13)
(6.74627e-14 -3.86601e-13 -4.83561e-13)
(2.34608e-14 -1.95739e-13 -4.30736e-13)
(1.09184e-12 -6.28235e-14 -1.95598e-12)
(8.96281e-13 -6.06784e-13 -1.63051e-12)
(6.94088e-13 -1.05866e-12 -1.36617e-12)
(5.28837e-13 -9.39466e-13 -1.14736e-12)
(3.95489e-13 -8.28625e-13 -9.67565e-13)
(2.87419e-13 -7.34165e-13 -8.20268e-13)
(1.99687e-13 -6.53048e-13 -6.98347e-13)
(1.28264e-13 -5.83048e-13 -5.96925e-13)
(7.03075e-14 -5.16785e-13 -5.11762e-13)
(2.40591e-14 -2.57339e-13 -4.41699e-13)
(1.48344e-12 -4.03352e-13 -2.9394e-12)
(1.16561e-12 -1.24056e-12 -2.32353e-12)
(8.68077e-13 -1.62199e-12 -1.85403e-12)
(6.37731e-13 -1.38741e-12 -1.4833e-12)
(4.61292e-13 -1.1831e-12 -1.19781e-12)
(3.24791e-13 -1.01553e-12 -9.73937e-13)
(2.19072e-13 -8.76682e-13 -7.97664e-13)
(1.37097e-13 -7.6116e-13 -6.57155e-13)
(7.31624e-14 -6.57338e-13 -5.42352e-13)
(2.45111e-14 -3.22658e-13 -4.52942e-13)
(2.05947e-12 -9.58837e-13 -4.52652e-12)
(1.54028e-12 -2.22011e-12 -3.3751e-12)
(1.09822e-12 -2.43512e-12 -2.55044e-12)
(7.75718e-13 -1.99848e-12 -1.9382e-12)
(5.41053e-13 -1.64278e-12 -1.493e-12)
(3.68498e-13 -1.36394e-12 -1.16164e-12)
(2.41015e-13 -1.14088e-12 -9.13187e-13)
(1.46492e-13 -9.62158e-13 -7.24013e-13)
(7.60438e-14 -8.09169e-13 -5.76451e-13)
(2.49291e-14 -3.90628e-13 -4.66054e-13)
(3.16568e-12 -1.88757e-12 -7.17639e-12)
(2.07526e-12 -3.75809e-12 -5.00822e-12)
(1.40702e-12 -3.6141e-12 -3.56554e-12)
(9.50723e-13 -2.83686e-12 -2.56322e-12)
(6.36433e-13 -2.24181e-12 -1.87772e-12)
(4.17183e-13 -1.79515e-12 -1.395e-12)
(2.62944e-13 -1.45335e-12 -1.0505e-12)
(1.53889e-13 -1.18954e-12 -7.99661e-13)
(7.64069e-14 -9.72952e-13 -6.14962e-13)
(2.25478e-14 -4.61951e-13 -4.79658e-13)
(4.36064e-10 -4.22291e-12 -1.57184e-11)
(-2.5997e-11 -6.92727e-12 -1.08244e-11)
(-2.13773e-11 -5.45049e-12 -7.66082e-12)
(-1.55484e-11 -4.07406e-12 -5.57081e-12)
(-1.15467e-11 -3.09009e-12 -4.18038e-12)
(-8.72799e-12 -2.38632e-12 -3.22532e-12)
(-6.70476e-12 -1.87015e-12 -2.5531e-12)
(-5.22857e-12 -1.48677e-12 -2.06897e-12)
(-4.13642e-12 -1.18617e-12 -1.71157e-12)
(-3.31546e-12 -5.70071e-13 -1.45707e-12)
(4.36434e-07 -1.63001e-09 -9.11328e-09)
(1.03026e-09 -1.46994e-09 -7.15754e-09)
(-7.06289e-10 -1.85745e-10 -5.42971e-09)
(-5.82169e-10 -1.38216e-10 -4.17951e-09)
(-4.76498e-10 -1.10209e-10 -3.2678e-09)
(-3.94201e-10 -8.8738e-11 -2.58997e-09)
(-3.28922e-10 -7.21508e-11 -2.07819e-09)
(-2.76832e-10 -5.92114e-11 -1.68632e-09)
(-2.36927e-10 -4.9015e-11 -1.38276e-09)
(-2.79554e-10 -4.30594e-11 -1.16624e-09)
(2.268e-13 3.68243e-13 -2.17723e-14)
(2.14229e-13 3.45697e-13 -2.07918e-14)
(1.87827e-13 -4.80728e-14 -1.83852e-14)
(1.62581e-13 -5.21241e-14 -1.73004e-14)
(1.38556e-13 -5.14821e-14 -1.56707e-14)
(1.15525e-13 -5.08075e-14 -1.45169e-14)
(9.3385e-14 -5.01767e-14 -1.33381e-14)
(7.21967e-14 -4.94108e-14 -1.19013e-14)
(5.20225e-14 -4.83093e-14 -1.14269e-14)
(3.3019e-14 -2.51804e-14 -1.15583e-14)
(4.98029e-13 3.34556e-13 -3.30046e-14)
(4.60049e-13 2.40392e-13 -2.9846e-14)
(3.94296e-13 -1.85596e-13 -2.74228e-14)
(3.3277e-13 -1.82971e-13 -2.40695e-14)
(2.75631e-13 -1.76075e-13 -2.11161e-14)
(2.22417e-13 -1.70067e-13 -1.94635e-14)
(1.7299e-13 -1.64214e-13 -1.69819e-14)
(1.26869e-13 -1.57963e-13 -1.51438e-14)
(8.37674e-14 -1.5083e-13 -1.38962e-14)
(4.45662e-14 -7.7575e-14 -1.29736e-14)
(6.15557e-13 2.69406e-13 -5.25263e-14)
(5.47661e-13 7.29913e-14 -4.65403e-14)
(4.52817e-13 -3.79819e-13 -4.01728e-14)
(3.67542e-13 -3.61096e-13 -3.45961e-14)
(2.9193e-13 -3.38663e-13 -2.99906e-14)
(2.24748e-13 -3.17767e-13 -2.58974e-14)
(1.65149e-13 -2.9855e-13 -2.20325e-14)
(1.12054e-13 -2.81285e-13 -1.95354e-14)
(6.45801e-14 -2.62141e-13 -1.7306e-14)
(2.32502e-14 -1.32485e-13 -1.58814e-14)
(8.07603e-13 1.56091e-13 -8.53641e-14)
(6.91957e-13 -1.87236e-13 -7.36083e-14)
(5.54698e-13 -6.55364e-13 -6.15789e-14)
(4.36885e-13 -6.02217e-13 -5.14109e-14)
(3.37161e-13 -5.47939e-13 -4.28448e-14)
(2.52554e-13 -5.0005e-13 -3.64291e-14)
(1.80587e-13 -4.57425e-13 -3.03904e-14)
(1.194e-13 -4.19559e-13 -2.55448e-14)
(6.73459e-14 -3.81767e-13 -2.25035e-14)
(2.38793e-14 -1.91043e-13 -1.94551e-14)
(1.0785e-12 -3.70142e-14 -1.44702e-13)
(8.86105e-13 -5.91089e-13 -1.18819e-13)
(6.8652e-13 -1.04513e-12 -9.55396e-14)
(5.2319e-13 -9.27939e-13 -7.64623e-14)
(3.91575e-13 -8.18694e-13 -6.2039e-14)
(2.84808e-13 -7.25285e-13 -4.99221e-14)
(1.9818e-13 -6.44962e-13 -4.07729e-14)
(1.27771e-13 -5.75875e-13 -3.50513e-14)
(7.01363e-14 -5.10615e-13 -3.05242e-14)
(2.4524e-14 -2.51281e-13 -2.5522e-14)
(1.46606e-12 -3.57459e-13 -2.50694e-13)
(1.15299e-12 -1.2156e-12 -1.94022e-13)
(8.58952e-13 -1.60193e-12 -1.5037e-13)
(6.31385e-13 -1.37069e-12 -1.15308e-13)
(4.5708e-13 -1.16865e-12 -9.0196e-14)
(3.22238e-13 -1.00338e-12 -7.17324e-14)
(2.17825e-13 -8.66053e-13 -5.72866e-14)
(1.36651e-13 -7.52732e-13 -4.69798e-14)
(7.32757e-14 -6.50289e-13 -3.78102e-14)
(2.5099e-14 -3.15072e-13 -3.18399e-14)
(2.03723e-12 -8.78964e-13 -4.39822e-13)
(1.52438e-12 -2.18266e-12 -3.2215e-13)
(1.0874e-12 -2.4053e-12 -2.34781e-13)
(7.68632e-13 -1.97473e-12 -1.74169e-13)
(5.36654e-13 -1.62354e-12 -1.30666e-13)
(3.66042e-13 -1.34792e-12 -9.99695e-14)
(2.39822e-13 -1.12784e-12 -7.80992e-14)
(1.46113e-13 -9.51932e-13 -6.2068e-14)
(7.66646e-14 -8.00741e-13 -4.96691e-14)
(2.57165e-14 -3.8224e-13 -4.01419e-14)
(3.14918e-12 -1.74903e-12 -7.9017e-13)
(2.05586e-12 -3.70345e-12 -5.37232e-13)
(1.39474e-12 -3.57155e-12 -3.71149e-13)
(9.44138e-13 -2.80463e-12 -2.60595e-13)
(6.33798e-13 -2.21631e-12 -1.88419e-13)
(4.17223e-13 -1.77557e-12 -1.38807e-13)
(2.64638e-13 -1.4381e-12 -1.04112e-13)
(1.56702e-13 -1.17711e-12 -8.01182e-14)
(7.99567e-14 -9.63505e-13 -6.35497e-14)
(2.65149e-14 -4.52779e-13 -5.01523e-14)
(4.92327e-10 -3.89052e-12 -1.75905e-12)
(5.48627e-12 -6.77013e-12 -9.06099e-13)
(1.06817e-12 -5.30058e-12 -5.90472e-13)
(6.92822e-13 -3.95521e-12 -4.05044e-13)
(4.47188e-13 -2.99482e-12 -2.87215e-13)
(2.74314e-13 -2.30884e-12 -2.11399e-13)
(1.54727e-13 -1.80629e-12 -1.59865e-13)
(7.22455e-14 -1.43329e-12 -1.24388e-13)
(1.54739e-14 -1.14037e-12 -9.89751e-14)
(-2.11817e-14 -5.27548e-13 -8.09795e-14)
(4.33217e-07 -1.40713e-09 -1.06361e-09)
(1.89697e-09 -1.30275e-09 -3.69941e-10)
(-2.55311e-11 -2.97307e-11 -2.39801e-10)
(-2.23866e-11 -1.35859e-11 -1.60314e-10)
(-1.60532e-11 -9.59108e-12 -1.09996e-10)
(-1.17583e-11 -6.94155e-12 -7.71152e-11)
(-8.75497e-12 -5.11176e-12 -5.51267e-11)
(-6.62103e-12 -3.82978e-12 -4.01209e-11)
(-5.13078e-12 -2.90111e-12 -2.96947e-11)
(-5.06989e-12 -1.82828e-12 -2.23243e-11)
(2.26951e-13 3.68165e-13 -1.1516e-14)
(2.14284e-13 3.45072e-13 -1.04221e-14)
(1.88041e-13 -4.88759e-14 -7.89268e-15)
(1.62726e-13 -5.26246e-14 -5.66139e-15)
(1.38622e-13 -5.17447e-14 -4.48671e-15)
(1.15463e-13 -5.1195e-14 -3.4031e-15)
(9.35062e-14 -5.08607e-14 -2.68435e-15)
(7.23815e-14 -4.97335e-14 -1.56408e-15)
(5.21051e-14 -4.82496e-14 -4.97193e-16)
(3.31354e-14 -2.5407e-14 -4.94727e-16)
(4.9869e-13 3.34298e-13 -1.63729e-14)
(4.60617e-13 2.39994e-13 -1.46207e-14)
(3.94852e-13 -1.86035e-13 -1.14045e-14)
(3.33149e-13 -1.83816e-13 -9.75504e-15)
(2.75974e-13 -1.76908e-13 -6.74177e-15)
(2.22673e-13 -1.70343e-13 -4.82832e-15)
(1.73263e-13 -1.64316e-13 -4.22982e-15)
(1.27242e-13 -1.58428e-13 -3.66783e-15)
(8.41289e-14 -1.50995e-13 -2.54924e-15)
(4.4954e-14 -7.75107e-14 -1.71078e-15)
(6.16818e-13 2.69195e-13 -2.7046e-14)
(5.48856e-13 7.22179e-14 -2.404e-14)
(4.53776e-13 -3.81016e-13 -1.95042e-14)
(3.68379e-13 -3.62132e-13 -1.5445e-14)
(2.92703e-13 -3.39143e-13 -1.23004e-14)
(2.25522e-13 -3.1834e-13 -9.74078e-15)
(1.6572e-13 -2.98993e-13 -7.84641e-15)
(1.12595e-13 -2.81396e-13 -6.64573e-15)
(6.51422e-14 -2.62061e-13 -6.16569e-15)
(2.37482e-14 -1.32615e-13 -5.52953e-15)
(8.09878e-13 1.55828e-13 -4.6322e-14)
(6.94143e-13 -1.88394e-13 -4.04008e-14)
(5.56487e-13 -6.56691e-13 -3.36171e-14)
(4.38441e-13 -6.0353e-13 -2.73546e-14)
(3.38531e-13 -5.48968e-13 -2.23687e-14)
(2.53658e-13 -5.00927e-13 -1.83006e-14)
(1.81576e-13 -4.58227e-13 -1.54668e-14)
(1.20373e-13 -4.20145e-13 -1.321e-14)
(6.83105e-14 -3.82126e-13 -1.12825e-14)
(2.45967e-14 -1.90686e-13 -1.06439e-14)
(1.08262e-12 -3.71173e-14 -8.14268e-14)
(8.89666e-13 -5.93281e-13 -7.05493e-14)
(6.89525e-13 -1.0481e-12 -5.73252e-14)
(5.25673e-13 -9.30211e-13 -4.61043e-14)
(3.9366e-13 -8.20536e-13 -3.8364e-14)
(2.8661e-13 -7.2708e-13 -3.14728e-14)
(1.99733e-13 -6.45971e-13 -2.56691e-14)
(1.29087e-13 -5.76219e-13 -2.23682e-14)
(7.14107e-14 -5.11322e-13 -1.96138e-14)
(2.56061e-14 -2.51831e-13 -1.68551e-14)
(1.47303e-12 -3.58647e-13 -1.44099e-13)
(1.15886e-12 -1.22021e-12 -1.19802e-13)
(8.63629e-13 -1.60637e-12 -9.56773e-14)
(6.35296e-13 -1.37481e-12 -7.64428e-14)
(4.60209e-13 -1.17186e-12 -6.16558e-14)
(3.24907e-13 -1.00603e-12 -5.11887e-14)
(2.20044e-13 -8.68401e-13 -4.12411e-14)
(1.38492e-13 -7.54292e-13 -3.45392e-14)
(7.47705e-14 -6.51575e-13 -3.01242e-14)
(2.63924e-14 -3.15757e-13 -2.55657e-14)
(2.04894e-12 -8.80921e-13 -2.56874e-13)
(1.53405e-12 -2.19204e-12 -2.05786e-13)
(1.09461e-12 -2.41428e-12 -1.58574e-13)
(7.74248e-13 -1.98185e-12 -1.2278e-13)
(5.41145e-13 -1.62938e-12 -9.7725e-14)
(3.69527e-13 -1.3527e-12 -7.78098e-14)
(2.42678e-13 -1.1315e-12 -6.2695e-14)
(1.48523e-13 -9.54662e-13 -5.16877e-14)
(7.85555e-14 -8.03356e-13 -4.33231e-14)
(2.73647e-14 -3.83648e-13 -3.6378e-14)
(3.18517e-12 -1.7532e-12 -4.61173e-13)
(2.07063e-12 -3.72255e-12 -3.50825e-13)
(1.4056e-12 -3.58821e-12 -2.57214e-13)
(9.52503e-13 -2.81729e-12 -1.93319e-13)
(6.4018e-13 -2.22636e-12 -1.48196e-13)
(4.22179e-13 -1.78347e-12 -1.15458e-13)
(2.68497e-13 -1.44418e-12 -9.12372e-14)
(1.59677e-13 -1.182e-12 -7.32309e-14)
(8.22367e-14 -9.67362e-13 -5.95331e-14)
(2.83713e-14 -4.55019e-13 -5.00864e-14)
(5.23192e-10 -3.94861e-12 -1.14745e-12)
(7.00363e-12 -6.85022e-12 -5.92438e-13)
(1.81703e-12 -5.3289e-12 -4.14488e-13)
(1.16549e-12 -3.97589e-12 -3.00477e-13)
(7.50693e-13 -3.01065e-12 -2.22167e-13)
(4.75795e-13 -2.32082e-12 -1.67694e-13)
(2.91584e-13 -1.81535e-12 -1.27871e-13)
(1.67183e-13 -1.44017e-12 -1.00302e-13)
(8.23369e-14 -1.14577e-12 -7.93271e-14)
(2.59924e-14 -5.30094e-13 -6.41902e-14)
(4.59994e-07 -1.48795e-09 -7.89767e-10)
(2.15457e-09 -1.36159e-09 -2.21224e-11)
(6.91684e-12 -1.93409e-11 -8.41692e-12)
(4.60364e-13 -5.93602e-12 -4.95861e-12)
(3.20357e-13 -4.22583e-12 -3.00427e-12)
(2.29969e-13 -3.10508e-12 -1.89426e-12)
(1.58391e-13 -2.32844e-12 -1.23069e-12)
(1.04996e-13 -1.77996e-12 -8.2145e-13)
(6.47647e-14 -1.37055e-12 -5.59821e-13)
(2.54822e-14 -6.31537e-13 -3.86294e-13)
(2.27446e-13 3.67822e-13 -1.38529e-14)
(2.14737e-13 3.44299e-13 -1.16137e-14)
(1.88258e-13 -4.99207e-14 -9.76141e-15)
(1.63057e-13 -5.34357e-14 -6.68826e-15)
(1.38778e-13 -5.2342e-14 -5.12254e-15)
(1.15623e-13 -5.14843e-14 -2.98975e-15)
(9.35262e-14 -5.08705e-14 -2.10342e-15)
(7.24551e-14 -5.02491e-14 -1.52111e-15)
(5.22986e-14 -4.87041e-14 -7.81303e-16)
(3.3195e-14 -2.51077e-14 -1.40356e-15)
(4.99997e-13 3.33931e-13 -2.02205e-14)
(4.61799e-13 2.38599e-13 -1.80035e-14)
(3.95719e-13 -1.87307e-13 -1.28446e-14)
(3.34001e-13 -1.84638e-13 -1.05759e-14)
(2.76614e-13 -1.77853e-13 -8.00919e-15)
(2.23211e-13 -1.70918e-13 -5.77782e-15)
(1.73652e-13 -1.6455e-13 -4.18973e-15)
(1.27565e-13 -1.58517e-13 -3.4229e-15)
(8.45935e-14 -1.51513e-13 -3.32907e-15)
(4.53261e-14 -7.79717e-14 -2.71742e-15)
(6.19209e-13 2.68417e-13 -3.23276e-14)
(5.50893e-13 7.04765e-14 -2.88287e-14)
(4.55637e-13 -3.8273e-13 -2.31484e-14)
(3.69802e-13 -3.63551e-13 -1.879e-14)
(2.93975e-13 -3.40585e-13 -1.45132e-14)
(2.26553e-13 -3.19251e-13 -1.13489e-14)
(1.66697e-13 -2.99561e-13 -9.31618e-15)
(1.13413e-13 -2.81791e-13 -8.4479e-15)
(6.58657e-14 -2.6245e-13 -7.3568e-15)
(2.46056e-14 -1.33062e-13 -6.60377e-15)
(8.14011e-13 1.54139e-13 -5.63002e-14)
(6.976e-13 -1.91216e-13 -4.85386e-14)
(5.59418e-13 -6.59574e-13 -3.99816e-14)
(4.40809e-13 -6.05896e-13 -3.23118e-14)
(3.40588e-13 -5.50933e-13 -2.61648e-14)
(2.55482e-13 -5.02318e-13 -2.10552e-14)
(1.83073e-13 -4.59128e-13 -1.81089e-14)
(1.21669e-13 -4.21019e-13 -1.61138e-14)
(6.93389e-14 -3.82657e-13 -1.454e-14)
(2.56002e-14 -1.90977e-13 -1.25971e-14)
(1.08945e-12 -4.05264e-14 -9.8871e-14)
(8.95397e-13 -5.9833e-13 -8.38062e-14)
(6.94077e-13 -1.05281e-12 -6.8622e-14)
(5.294e-13 -9.34081e-13 -5.58602e-14)
(3.96733e-13 -8.23605e-13 -4.63225e-14)
(2.89285e-13 -7.29732e-13 -3.87651e-14)
(2.01792e-13 -6.48214e-13 -3.18656e-14)
(1.30842e-13 -5.78071e-13 -2.71514e-14)
(7.29188e-14 -5.12632e-13 -2.29383e-14)
(2.67916e-14 -2.52467e-13 -2.07518e-14)
(1.48444e-12 -3.6492e-13 -1.72464e-13)
(1.16814e-12 -1.22962e-12 -1.44425e-13)
(8.70844e-13 -1.61507e-12 -1.14663e-13)
(6.40834e-13 -1.38151e-12 -9.13534e-14)
(4.64722e-13 -1.17707e-12 -7.44633e-14)
(3.28463e-13 -1.01056e-12 -6.19235e-14)
(2.22971e-13 -8.72106e-13 -5.04613e-14)
(1.40854e-13 -7.56924e-13 -4.20251e-14)
(7.6784e-14 -6.53878e-13 -3.61432e-14)
(2.8067e-14 -3.1698e-13 -3.16618e-14)
(2.06822e-12 -8.93927e-13 -3.05421e-13)
(1.54885e-12 -2.20957e-12 -2.44643e-13)
(1.10571e-12 -2.42972e-12 -1.90204e-13)
(7.82653e-13 -1.99374e-12 -1.48273e-13)
(5.47616e-13 -1.63856e-12 -1.18409e-13)
(3.74562e-13 -1.36029e-12 -9.5088e-14)
(2.4672e-13 -1.13755e-12 -7.70172e-14)
(1.51633e-13 -9.59428e-13 -6.22858e-14)
(8.10047e-14 -8.07005e-13 -5.23932e-14)
(2.94409e-14 -3.85683e-13 -4.47864e-14)
(3.22924e-12 -1.77911e-12 -5.43842e-13)
(2.09451e-12 -3.75629e-12 -4.16621e-13)
(1.42247e-12 -3.6159e-12 -3.10013e-13)
(9.64804e-13 -2.83794e-12 -2.34515e-13)
(6.49187e-13 -2.24194e-12 -1.80935e-13)
(4.28962e-13 -1.79569e-12 -1.42023e-13)
(2.7357e-13 -1.45404e-12 -1.13082e-13)
(1.63609e-13 -1.18964e-12 -8.91285e-14)
(8.52525e-14 -9.73125e-13 -7.22369e-14)
(3.07381e-14 -4.5812e-13 -6.08065e-14)
(5.57166e-10 -3.99204e-12 -8.38398e-13)
(7.44137e-12 -6.94445e-12 -7.03443e-13)
(1.86392e-12 -5.37895e-12 -5.04029e-13)
(1.1938e-12 -4.01143e-12 -3.65445e-13)
(7.69168e-13 -3.03676e-12 -2.71799e-13)
(4.88294e-13 -2.34067e-12 -2.05555e-13)
(3.00364e-13 -1.83038e-12 -1.57686e-13)
(1.73468e-13 -1.45155e-12 -1.22549e-13)
(8.68816e-14 -1.1546e-12 -9.72355e-14)
(2.92995e-14 -5.35036e-13 -7.90212e-14)
(5.01394e-07 -1.55439e-09 -4.38254e-10)
(2.33267e-09 -1.4482e-09 -1.31926e-12)
(9.09717e-12 -1.98648e-11 -1.00341e-12)
(1.17201e-12 -5.7026e-12 -6.69791e-13)
(7.70814e-13 -4.0876e-12 -4.57611e-13)
(5.17832e-13 -3.02213e-12 -3.24269e-13)
(3.48631e-13 -2.2781e-12 -2.3667e-13)
(2.33406e-13 -1.749e-12 -1.7512e-13)
(1.53941e-13 -1.35132e-12 -1.3293e-13)
(9.96327e-14 -6.16667e-13 -1.03728e-13)
(2.28121e-13 3.67253e-13 -1.58987e-14)
(2.15406e-13 3.43445e-13 -1.39385e-14)
(1.88616e-13 -5.08236e-14 -1.05969e-14)
(1.63404e-13 -5.44641e-14 -8.4369e-15)
(1.39113e-13 -5.32147e-14 -6.35586e-15)
(1.15912e-13 -5.23969e-14 -4.35444e-15)
(9.38315e-14 -5.14462e-14 -2.91697e-15)
(7.27126e-14 -5.02813e-14 -4.72662e-15)
(5.26069e-14 -4.83927e-14 -1.48239e-14)
(3.34481e-14 -2.54546e-14 -4.20579e-14)
(5.01584e-13 3.33279e-13 -2.40589e-14)
(4.63243e-13 2.37134e-13 -2.01028e-14)
(3.96903e-13 -1.88913e-13 -1.60648e-14)
(3.34978e-13 -1.85709e-13 -1.26087e-14)
(2.77426e-13 -1.78807e-13 -1.02259e-14)
(2.23963e-13 -1.71871e-13 -7.71596e-15)
(1.74375e-13 -1.65277e-13 -6.45624e-15)
(1.28316e-13 -1.58819e-13 -6.23407e-15)
(8.51878e-14 -1.51435e-13 -1.04314e-14)
(4.58253e-14 -7.85938e-14 -3.03251e-14)
(6.22051e-13 2.67467e-13 -3.81976e-14)
(5.5326e-13 6.87048e-14 -3.22154e-14)
(4.57706e-13 -3.84817e-13 -2.59055e-14)
(3.71564e-13 -3.65452e-13 -2.10979e-14)
(2.95392e-13 -3.42046e-13 -1.72015e-14)
(2.27816e-13 -3.20433e-13 -1.43804e-14)
(1.67823e-13 -3.00222e-13 -1.21243e-14)
(1.14537e-13 -2.82307e-13 -1.17122e-14)
(6.6892e-14 -2.63051e-13 -1.43244e-14)
(2.53096e-14 -1.33937e-13 -2.54182e-14)
(8.18972e-13 1.52074e-13 -6.49366e-14)
(7.01696e-13 -1.94481e-13 -5.4485e-14)
(5.62813e-13 -6.6273e-13 -4.46889e-14)
(4.43686e-13 -6.08772e-13 -3.68023e-14)
(3.43103e-13 -5.53353e-13 -3.06345e-14)
(2.57677e-13 -5.04219e-13 -2.65233e-14)
(1.84937e-13 -4.60395e-13 -2.31112e-14)
(1.23197e-13 -4.21801e-13 -2.04836e-14)
(7.07093e-14 -3.83905e-13 -2.09336e-14)
(2.67941e-14 -1.92221e-13 -2.66675e-14)
(1.09766e-12 -4.44926e-14 -1.13882e-13)
(9.02204e-13 -6.04201e-13 -9.41517e-14)
(6.99517e-13 -1.05826e-12 -7.62952e-14)
(5.33799e-13 -9.38597e-13 -6.31067e-14)
(4.00459e-13 -8.27211e-13 -5.29889e-14)
(2.925e-13 -7.32958e-13 -4.55049e-14)
(2.04516e-13 -6.50941e-13 -3.97002e-14)
(1.32978e-13 -5.80229e-13 -3.46906e-14)
(7.4696e-14 -5.14406e-13 -3.11252e-14)
(2.85471e-14 -2.53985e-13 -3.41902e-14)
(1.49823e-12 -3.72651e-13 -2.0078e-13)
(1.17894e-12 -1.2404e-12 -1.62024e-13)
(8.79278e-13 -1.62508e-12 -1.29102e-13)
(6.47609e-13 -1.38963e-12 -1.05003e-13)
(4.70104e-13 -1.18327e-12 -8.63538e-14)
(3.32886e-13 -1.0158e-12 -7.35953e-14)
(2.26606e-13 -8.76824e-13 -6.17212e-14)
(1.43712e-13 -7.60734e-13 -5.26184e-14)
(7.92217e-14 -6.56596e-13 -4.65332e-14)
(3.0083e-14 -3.19129e-13 -4.50737e-14)
(2.09131e-12 -9.09552e-13 -3.52923e-13)
(1.56613e-12 -2.23003e-12 -2.74259e-13)
(1.1187e-12 -2.44705e-12 -2.14025e-13)
(7.92699e-13 -2.0076e-12 -1.69927e-13)
(5.55374e-13 -1.64945e-12 -1.36268e-13)
(3.80642e-13 -1.36922e-12 -1.12282e-13)
(2.51612e-13 -1.14515e-12 -9.16575e-14)
(1.55441e-13 -9.65506e-13 -7.68304e-14)
(8.39823e-14 -8.11673e-13 -6.5842e-14)
(3.1827e-14 -3.88889e-13 -5.94428e-14)
(3.24401e-12 -1.80995e-12 -6.24245e-13)
(2.12169e-12 -3.79492e-12 -4.6481e-13)
(1.44259e-12 -3.64737e-12 -3.50083e-13)
(9.79471e-13 -2.86189e-12 -2.67759e-13)
(6.60122e-13 -2.26029e-12 -2.08331e-13)
(4.37185e-13 -1.80998e-12 -1.66206e-13)
(2.79897e-13 -1.46608e-12 -1.35005e-13)
(1.68446e-13 -1.19966e-12 -1.08498e-13)
(8.89408e-14 -9.80564e-13 -8.98827e-14)
(3.35991e-14 -4.62602e-13 -7.71202e-14)
(5.59051e-10 -3.76401e-12 9.50029e-13)
(7.0948e-12 -6.95116e-12 -7.57087e-13)
(1.89224e-12 -5.43397e-12 -5.72417e-13)
(1.21596e-12 -4.05285e-12 -4.17939e-13)
(7.84891e-13 -3.06755e-12 -3.14577e-13)
(4.99618e-13 -2.36422e-12 -2.41612e-13)
(3.08582e-13 -1.84925e-12 -1.90269e-13)
(1.79458e-13 -1.46599e-12 -1.46923e-13)
(9.13263e-14 -1.16581e-12 -1.19672e-13)
(3.25296e-14 -5.4176e-13 -9.93468e-14)
(5.24662e-07 -1.21678e-09 2.26667e-09)
(2.26672e-09 -1.44879e-09 3.36381e-11)
(7.47268e-12 -1.89091e-11 -7.30364e-13)
(1.20202e-12 -5.75491e-12 -6.45433e-13)
(7.94491e-13 -4.13375e-12 -4.66769e-13)
(5.3354e-13 -3.05694e-12 -3.4506e-13)
(3.59465e-13 -2.30532e-12 -2.61413e-13)
(2.4114e-13 -1.76967e-12 -1.95577e-13)
(1.593e-13 -1.3671e-12 -1.53793e-13)
(1.03641e-13 -6.25546e-13 -1.2364e-13)
(2.28574e-13 3.67059e-13 -1.23046e-14)
(2.15185e-13 3.42299e-13 -2.57529e-15)
(1.88756e-13 -5.20195e-14 -2.55381e-15)
(1.63619e-13 -5.50875e-14 -5.23725e-15)
(1.3961e-13 -5.40111e-14 -1.26857e-14)
(1.16782e-13 -5.30279e-14 -2.6904e-14)
(9.51426e-14 -5.11204e-14 -5.26249e-14)
(7.55953e-14 -4.70151e-14 -1.91497e-13)
(5.84043e-14 -3.96611e-14 -7.37908e-13)
(3.75941e-14 -4.35726e-14 -2.02504e-12)
(5.02778e-13 3.32518e-13 -1.56938e-14)
(4.6338e-13 2.36063e-13 3.34895e-16)
(3.9737e-13 -1.89855e-13 -2.38769e-15)
(3.35565e-13 -1.86698e-13 -4.80954e-15)
(2.78312e-13 -1.79811e-13 -1.22543e-14)
(2.25219e-13 -1.72834e-13 -2.57767e-14)
(1.75904e-13 -1.66103e-13 -4.59041e-14)
(1.30501e-13 -1.59892e-13 -1.27484e-13)
(8.85088e-14 -1.52332e-13 -4.39741e-13)
(4.68168e-14 -1.10788e-13 -1.32771e-12)
(6.2413e-13 2.66422e-13 -2.5951e-14)
(5.54077e-13 6.71923e-14 -2.2387e-15)
(4.58592e-13 -3.85912e-13 -3.20133e-15)
(3.72676e-13 -3.66245e-13 -7.21323e-15)
(2.96809e-13 -3.43018e-13 -1.39315e-14)
(2.29682e-13 -3.21775e-13 -2.77835e-14)
(1.69963e-13 -3.0212e-13 -4.91606e-14)
(1.16874e-13 -2.84419e-13 -9.7171e-14)
(7.00357e-14 -2.68232e-13 -2.90409e-13)
(2.66908e-14 -1.69091e-13 -8.74144e-13)
(8.22698e-13 1.50881e-13 -4.56606e-14)
(7.03424e-13 -1.95818e-13 -9.87196e-15)
(5.64614e-13 -6.6395e-13 -1.04932e-14)
(4.45701e-13 -6.09791e-13 -1.48564e-14)