/*--------------------------------*- C++ -*----------------------------------*\
| =========                 |                                                 |
| \\      /  F ield         | OpenFOAM: The Open Source CFD Toolbox           |
|  \\    /   O peration     | Version:  4.1                                   |
|   \\  /    A nd           | Web:      www.OpenFOAM.org                      |
|    \\/     M anipulation  |                                                 |
\*---------------------------------------------------------------------------*/
FoamFile
{
    version     2.0;
    format      ascii;
    class       volScalarField;
    location    "9.38";
    object      T;
}
// * * * * * * * * * * * * * * * * * * * * * * * * * * * * * * * * * * * * * //

dimensions      [0 0 0 1 0 0 0];

internalField   nonuniform List<scalar> 
52500
(
0.999997
1.00003
1.00005
1.0002
1.00036
1.00118
1.00215
1.00657
1.01317
1.03544
1.08982
1.21265
1.6066
2.4791
2.69953
2.7273
2.72499
2.72559
2.73944
2.75164
2.76495
2.77336
2.78055
2.78551
2.78953
0.999997
1.00002
1.00005
1.0002
1.00036
1.00116
1.00213
1.00652
1.01304
1.03513
1.08889
1.21041
1.60135
2.47129
2.69643
2.7268
2.72433
2.72483
2.73864
2.75069
2.76397
2.77191
2.77913
2.78322
2.78651
0.999996
1.00002
1.00005
1.00019
1.00035
1.00114
1.00209
1.00638
1.01276
1.03439
1.08726
1.20525
1.59163
2.45499
2.68963
2.72567
2.72269
2.72303
2.73676
2.74819
2.76144
2.76959
2.77595
2.78017
2.78234
0.999996
1.00002
1.00005
1.00018
1.00034
1.0011
1.00202
1.00616
1.01235
1.03324
1.08485
1.19738
1.57686
2.42868
2.67908
2.72376
2.71964
2.71965
2.73231
2.74464
2.75579
2.76399
2.77132
2.7756
2.77769
0.999996
1.00002
1.00005
1.00018
1.00032
1.00105
1.00193
1.00588
1.0118
1.0317
1.08159
1.18701
1.55646
2.39041
2.66436
2.72138
2.71596
2.71497
2.72641
2.73857
2.75124
2.75638
2.76175
2.76561
2.76691
0.999996
1.00002
1.00004
1.00016
1.0003
1.00098
1.00181
1.0054
1.01116
1.02923
1.07786
1.17459
1.53064
2.33792
2.6448
2.71823
2.71225
2.70826
2.72068
2.72736
2.74112
2.74874
2.75335
2.75607
2.75735
0.999995
1.00002
1.00004
1.00015
1.00028
1.0009
1.00167
1.00492
1.01039
1.02665
1.07233
1.1591
1.50074
2.27387
2.61958
2.71439
2.70755
2.70186
2.71414
2.7214
2.72788
2.73362
2.73762
2.73869
2.7366
0.999995
1.00002
1.00004
1.00014
1.00025
1.00083
1.00153
1.00455
1.00944
1.02457
1.06539
1.14654
1.44726
2.17773
2.58612
2.70642
2.69849
2.68994
2.70026
2.71054
2.71842
2.71911
2.72057
2.71879
2.71452
0.999995
1.00001
1.00003
1.00013
1.00023
1.00076
1.00138
1.00433
1.00834
1.02325
1.05569
1.13194
1.38218
2.05207
2.54351
2.69731
2.68993
2.67837
2.68723
2.69161
2.69946
2.69951
2.6956
2.68666
2.66347
0.999995
1.00001
1.00003
1.00011
1.0002
1.00066
1.00122
1.00374
1.00729
1.02037
1.04743
1.11627
1.31938
1.93078
2.4754
2.66879
2.66662
2.66057
2.67412
2.67561
2.67897
2.67613
2.66519
2.64261
2.59148
1.00001
1.00003
1.00006
1.00021
1.00037
1.00118
1.00216
1.00658
1.01318
1.03545
1.08985
1.2127
1.60671
2.47929
2.69966
2.72739
2.72508
2.72569
2.73954
2.75173
2.76504
2.77345
2.78064
2.7856
2.78962
1.00001
1.00003
1.00006
1.0002
1.00037
1.00117
1.00214
1.00653
1.01305
1.03515
1.08891
1.21046
1.60145
2.47147
2.69655
2.72689
2.72441
2.72491
2.73873
2.75077
2.76405
2.77199
2.77921
2.7833
2.7866
1.00001
1.00003
1.00006
1.0002
1.00036
1.00115
1.0021
1.00639
1.01277
1.03441
1.08728
1.20531
1.59169
2.45516
2.68975
2.72574
2.72277
2.72311
2.73684
2.74828
2.76152
2.76967
2.77604
2.78025
2.78242
1.00001
1.00003
1.00006
1.00019
1.00035
1.00111
1.00203
1.00617
1.01236
1.03326
1.08487
1.19744
1.57692
2.42885
2.67919
2.72384
2.71972
2.71973
2.73239
2.74472
2.75587
2.76407
2.7714
2.77569
2.77778
1
1.00003
1.00006
1.00018
1.00033
1.00106
1.00194
1.00589
1.01181
1.03172
1.0816
1.18707
1.55652
2.39059
2.66446
2.72145
2.71603
2.71505
2.72648
2.73865
2.75132
2.75647
2.76182
2.7657
2.76699
1
1.00003
1.00005
1.00017
1.00031
1.00099
1.00182
1.00541
1.01117
1.02925
1.07788
1.17465
1.53071
2.33811
2.64491
2.7183
2.71232
2.70833
2.72076
2.72743
2.74118
2.74881
2.75343
2.75616
2.75743
1
1.00003
1.00005
1.00016
1.00029
1.00091
1.00168
1.00493
1.0104
1.02667
1.07235
1.15916
1.50081
2.27407
2.61969
2.71446
2.70762
2.70193
2.71421
2.72148
2.72795
2.7337
2.7377
2.73877
2.73668
1
1.00002
1.00004
1.00015
1.00026
1.00083
1.00154
1.00456
1.00945
1.02458
1.06541
1.14659
1.44735
2.17796
2.58623
2.70649
2.69855
2.69001
2.70033
2.7106
2.71849
2.71919
2.72064
2.71886
2.71459
1
1.00002
1.00004
1.00013
1.00024
1.00077
1.00139
1.00434
1.00835
1.02327
1.0557
1.13199
1.38225
2.05229
2.54363
2.69738
2.69
2.67844
2.68731
2.69168
2.69952
2.69958
2.69567
2.68674
2.66354
1
1.00002
1.00004
1.00012
1.00021
1.00066
1.00122
1.00375
1.00731
1.02039
1.04745
1.11632
1.31946
1.93102
2.47552
2.66887
2.6667
2.66064
2.67419
2.67568
2.67903
2.67619
2.66525
2.64268
2.59154
1.00001
1.00003
1.00006
1.00021
1.00037
1.00118
1.00216
1.00658
1.01318
1.03545
1.08985
1.2127
1.60672
2.4793
2.69967
2.72739
2.72508
2.72569
2.73954
2.75174
2.76504
2.77345
2.78064
2.7856
2.78962
1.00001
1.00003
1.00006
1.0002
1.00037
1.00117
1.00214
1.00653
1.01305
1.03515
1.08891
1.21047
1.60145
2.47148
2.69656
2.72689
2.72441
2.72491
2.73873
2.75077
2.76405
2.77199
2.77921
2.78331
2.7866
1.00001
1.00003
1.00006
1.0002
1.00036
1.00115
1.0021
1.00639
1.01277
1.03441
1.08728
1.20531
1.5917
2.45517
2.68976
2.72574
2.72277
2.72311
2.73684
2.74828
2.76152
2.76967
2.77604
2.78025
2.78242
1.00001
1.00003
1.00006
1.00019
1.00035
1.00111
1.00203
1.00618
1.01236
1.03326
1.08487
1.19744
1.57693
2.42887
2.67919
2.72384
2.71972
2.71973
2.73239
2.74472
2.75587
2.76407
2.7714
2.77569
2.77778
1
1.00003
1.00006
1.00018
1.00033
1.00106
1.00194
1.00589
1.01181
1.03172
1.0816
1.18707
1.55652
2.3906
2.66447
2.72145
2.71603
2.71505
2.72648
2.73865
2.75132
2.75647
2.76182
2.7657
2.76699
1
1.00003
1.00005
1.00017
1.00031
1.00099
1.00182
1.00541
1.01117
1.02925
1.07788
1.17465
1.53071
2.33812
2.64491
2.7183
2.71232
2.70833
2.72076
2.72743
2.74118
2.74881
2.75343
2.75616
2.75743
1
1.00003
1.00005
1.00016
1.00029
1.00091
1.00168
1.00493
1.0104
1.02667
1.07235
1.15916
1.50082
2.27409
2.61969
2.71446
2.70762
2.70193
2.71421
2.72149
2.72796
2.7337
2.7377
2.73877
2.73668
1
1.00002
1.00004
1.00015
1.00026
1.00083
1.00154
1.00456
1.00945
1.02458
1.06541
1.14659
1.44737
2.17798
2.58623
2.70649
2.69856
2.69001
2.70033
2.7106
2.7185
2.71919
2.72064
2.71886
2.71459
1
1.00002
1.00004
1.00013
1.00024
1.00077
1.00139
1.00434
1.00835
1.02327
1.0557
1.13199
1.38226
2.05231
2.54363
2.69739
2.69
2.67844
2.68731
2.69168
2.69952
2.69958
2.69567
2.68674
2.66354
1
1.00002
1.00004
1.00012
1.00021
1.00066
1.00122
1.00375
1.00731
1.02039
1.04745
1.11632
1.31947
1.93105
2.47553
2.66887
2.6667
2.66064
2.67419
2.67568
2.67903
2.67619
2.66526
2.64268
2.59155
1.00001
1.00003
1.00006
1.00021
1.00037
1.00118
1.00216
1.00658
1.01318
1.03545
1.08985
1.2127
1.60672
2.47931
2.69967
2.72739
2.72508
2.72569
2.73954
2.75174
2.76504
2.77345
2.78064
2.7856
2.78962
1.00001
1.00003
1.00006
1.0002
1.00037
1.00117
1.00214
1.00653
1.01305
1.03515
1.08891
1.21047
1.60146
2.47149
2.69656
2.72689
2.72441
2.72491
2.73873
2.75077
2.76405
2.77199
2.77921
2.78331
2.7866
1.00001
1.00003
1.00006
1.0002
1.00036
1.00115
1.0021
1.00639
1.01277
1.03441
1.08728
1.20531
1.5917
2.45517
2.68976
2.72574
2.72277
2.72311
2.73684
2.74828
2.76152
2.76967
2.77604
2.78025
2.78243
1.00001
1.00003
1.00006
1.00019
1.00035
1.00111
1.00203
1.00618
1.01236
1.03326
1.08487
1.19744
1.57693
2.42887
2.67919
2.72384
2.71972
2.71973
2.73239
2.74472
2.75587
2.76407
2.7714
2.77569
2.77778
1
1.00003
1.00006
1.00018
1.00033
1.00106
1.00194
1.00589
1.01181
1.03172
1.0816
1.18707
1.55653
2.3906
2.66447
2.72145
2.71603
2.71505
2.72648
2.73865
2.75132
2.75647
2.76182
2.7657
2.76699
1
1.00003
1.00005
1.00017
1.00031
1.00099
1.00182
1.00541
1.01117
1.02925
1.07788
1.17465
1.53071
2.33813
2.64491
2.7183
2.71232
2.70833
2.72076
2.72743
2.74118
2.74881
2.75343
2.75616
2.75743
1
1.00003
1.00005
1.00016
1.00029
1.00091
1.00168
1.00493
1.0104
1.02667
1.07235
1.15917
1.50082
2.27409
2.61969
2.71446
2.70762
2.70193
2.71421
2.72149
2.72796
2.7337
2.7377
2.73877
2.73668
1
1.00002
1.00004
1.00015
1.00026
1.00083
1.00154
1.00456
1.00945
1.02458
1.06541
1.14659
1.44737
2.17799
2.58624
2.70649
2.69856
2.69001
2.70033
2.7106
2.7185
2.71919
2.72064
2.71886
2.71459
1
1.00002
1.00004
1.00013
1.00024
1.00077
1.00139
1.00434
1.00835
1.02327
1.0557
1.13199
1.38226
2.05232
2.54364
2.69739
2.69
2.67844
2.68731
2.69168
2.69952
2.69958
2.69567
2.68674
2.66354
1
1.00002
1.00004
1.00012
1.00021
1.00066
1.00122
1.00375
1.00731
1.02039
1.04745
1.11632
1.31947
1.93105
2.47553
2.66887
2.6667
2.66064
2.67419
2.67568
2.67904
2.67619
2.66526
2.64268
2.59155
1.00001
1.00003
1.00006
1.00021
1.00037
1.00118
1.00216
1.00658
1.01318
1.03545
1.08985
1.2127
1.60672
2.47931
2.69967
2.72739
2.72508
2.72569
2.73954
2.75174
2.76504
2.77345
2.78064
2.7856
2.78962
1.00001
1.00003
1.00006
1.0002
1.00037
1.00117
1.00214
1.00653
1.01305
1.03515
1.08891
1.21047
1.60146
2.47149
2.69656
2.72689
2.72441
2.72491
2.73873
2.75077
2.76405
2.77199
2.77921
2.78331
2.7866
1.00001
1.00003
1.00006
1.0002
1.00036
1.00115
1.0021
1.00639
1.01277
1.03441
1.08728
1.20531
1.5917
2.45517
2.68976
2.72574
2.72277
2.72311
2.73684
2.74828
2.76152
2.76967
2.77604
2.78025
2.78243
1.00001
1.00003
1.00006
1.00019
1.00035
1.00111
1.00203
1.00618
1.01236
1.03326
1.08487
1.19744
1.57693
2.42887
2.67919
2.72384
2.71972
2.71973
2.73239
2.74472
2.75587
2.76407
2.7714
2.77569
2.77778
1
1.00003
1.00006
1.00018
1.00033
1.00106
1.00194
1.00589
1.01181
1.03172
1.0816
1.18707
1.55653
2.3906
2.66447
2.72145
2.71603
2.71505
2.72648
2.73865
2.75132
2.75647
2.76182
2.7657
2.76699
1
1.00003
1.00005
1.00017
1.00031
1.00099
1.00182
1.00541
1.01117
1.02925
1.07788
1.17465
1.53071
2.33813
2.64492
2.7183
2.71232
2.70833
2.72076
2.72743
2.74118
2.74881
2.75343
2.75616
2.75743
1
1.00003
1.00005
1.00016
1.00029
1.00091
1.00168
1.00493
1.0104
1.02667
1.07235
1.15917
1.50082
2.27409
2.61969
2.71446
2.70762
2.70193
2.71421
2.72149
2.72796
2.7337
2.7377
2.73877
2.73668
1
1.00002
1.00004
1.00015
1.00026
1.00083
1.00154
1.00456
1.00945
1.02458
1.06541
1.14659
1.44737
2.17799
2.58624
2.70649
2.69856
2.69001
2.70033
2.7106
2.7185
2.71919
2.72064
2.71886
2.71459
1
1.00002
1.00004
1.00013
1.00024
1.00077
1.00139
1.00434
1.00835
1.02327
1.0557
1.13199
1.38226
2.05232
2.54364
2.69739
2.69
2.67844
2.68731
2.69168
2.69952
2.69958
2.69567
2.68674
2.66354
1
1.00002
1.00004
1.00012
1.00021
1.00066
1.00122
1.00375
1.00731
1.02039
1.04745
1.11632
1.31947
1.93105
2.47553
2.66887
2.6667
2.66064
2.67419
2.67568
2.67904
2.67619
2.66526
2.64268
2.59155
1.00001
1.00003
1.00006
1.00021
1.00037
1.00118
1.00216
1.00658
1.01318
1.03545
1.08985
1.2127
1.60672
2.47931
2.69967
2.72739
2.72508
2.72569
2.73954
2.75174
2.76504
2.77345
2.78064
2.7856
2.78962
1.00001
1.00003
1.00006
1.0002
1.00037
1.00117
1.00214
1.00653
1.01305
1.03515
1.08891
1.21047
1.60146
2.47149
2.69656
2.72689
2.72441
2.72491
2.73873
2.75077
2.76405
2.77199
2.77921
2.78331
2.7866
1.00001
1.00003
1.00006
1.0002
1.00036
1.00115
1.0021
1.00639
1.01277
1.03441
1.08728
1.20531
1.5917
2.45517
2.68976
2.72574
2.72277
2.72311
2.73684
2.74828
2.76152
2.76967
2.77604
2.78025
2.78243
1.00001
1.00003
1.00006
1.00019
1.00035
1.00111
1.00203
1.00618
1.01236
1.03326
1.08487
1.19744
1.57693
2.42887
2.67919
2.72384
2.71972
2.71973
2.73239
2.74472
2.75587
2.76407
2.7714
2.77569
2.77778
1
1.00003
1.00006
1.00018
1.00033
1.00106
1.00194
1.00589
1.01181
1.03172
1.0816
1.18707
1.55653
2.3906
2.66447
2.72145
2.71603
2.71505
2.72648
2.73865
2.75132
2.75647
2.76182
2.7657
2.76699
1
1.00003
1.00005
1.00017
1.00031
1.00099
1.00182
1.00541
1.01117
1.02925
1.07788
1.17465
1.53071
2.33813
2.64492
2.7183
2.71232
2.70833
2.72076
2.72743
2.74118
2.74881
2.75343
2.75616
2.75743
1
1.00003
1.00005
1.00016
1.00029
1.00091
1.00168
1.00493
1.0104
1.02667
1.07235
1.15917
1.50082
2.27409
2.61969
2.71446
2.70762
2.70193
2.71421
2.72149
2.72796
2.7337
2.7377
2.73877
2.73668
1
1.00002
1.00004
1.00015
1.00026
1.00083
1.00154
1.00456
1.00945
1.02458
1.06541
1.14659
1.44737
2.17799
2.58624
2.70649
2.69856
2.69001
2.70033
2.7106
2.7185
2.71919
2.72064
2.71886
2.71459
1
1.00002
1.00004
1.00013
1.00024
1.00077
1.00139
1.00434
1.00835
1.02327
1.0557
1.13199
1.38226
2.05232
2.54364
2.69739
2.69
2.67844
2.68731
2.69168
2.69952
2.69958
2.69567
2.68674
2.66354
1
1.00002
1.00004
1.00012
1.00021
1.00066
1.00122
1.00375
1.00731
1.02039
1.04745
1.11632
1.31947
1.93105
2.47553
2.66887
2.6667
2.66064
2.67419
2.67568
2.67904
2.67619
2.66526
2.64268
2.59155
1.00001
1.00003
1.00006
1.00021
1.00037
1.00118
1.00216
1.00658
1.01318
1.03545
1.08985
1.2127
1.60672
2.47931
2.69967
2.72739
2.72508
2.72569
2.73954
2.75174
2.76504
2.77345
2.78064
2.7856
2.78962
1.00001
1.00003
1.00006
1.0002
1.00037
1.00117
1.00214
1.00653
1.01305
1.03515
1.08891
1.21047
1.60146
2.47149
2.69656
2.72689
2.72441
2.72491
2.73873
2.75077
2.76405
2.77199
2.77921
2.78331
2.7866
1.00001
1.00003
1.00006
1.0002
1.00036
1.00115
1.0021
1.00639
1.01277
1.03441
1.08728
1.20531
1.5917
2.45517
2.68976
2.72574
2.72277
2.72311
2.73684
2.74828
2.76152
2.76967
2.77604
2.78025
2.78243
1.00001
1.00003
1.00006
1.00019
1.00035
1.00111
1.00203
1.00618
1.01236
1.03326
1.08487
1.19744
1.57693
2.42887
2.67919
2.72384
2.71972
2.71973
2.73239
2.74472
2.75587
2.76407
2.7714
2.77569
2.77778
1
1.00003
1.00006
1.00018
1.00033
1.00106
1.00194
1.00589
1.01181
1.03172
1.0816
1.18707
1.55653
2.3906
2.66447
2.72145
2.71603
2.71505
2.72648
2.73865
2.75132
2.75647
2.76182
2.7657
2.76699
1
1.00003
1.00005
1.00017
1.00031
1.00099
1.00182
1.00541
1.01117
1.02925
1.07788
1.17465
1.53071
2.33813
2.64492
2.7183
2.71232
2.70833
2.72076
2.72743
2.74118
2.74881
2.75343
2.75616
2.75743
1
1.00003
1.00005
1.00016
1.00029
1.00091
1.00168
1.00493
1.0104
1.02667
1.07235
1.15917
1.50082
2.27409
2.61969
2.71446
2.70762
2.70193
2.71421
2.72149
2.72796
2.7337
2.7377
2.73877
2.73668
1
1.00002
1.00004
1.00015
1.00026
1.00083
1.00154
1.00456
1.00945
1.02458
1.06541
1.14659
1.44737
2.17799
2.58624
2.70649
2.69856
2.69001
2.70033
2.7106
2.7185
2.71919
2.72064
2.71886
2.71459
1
1.00002
1.00004
1.00013
1.00024
1.00077
1.00139
1.00434
1.00835
1.02327
1.0557
1.13199
1.38226
2.05232
2.54364
2.69739
2.69
2.67844
2.68731
2.69168
2.69952
2.69958
2.69567
2.68674
2.66354
1
1.00002
1.00004
1.00012
1.00021
1.00066
1.00122
1.00375
1.00731
1.02039
1.04745
1.11632
1.31947
1.93105
2.47553
2.66887
2.6667
2.66064
2.67419
2.67568
2.67904
2.67619
2.66526
2.64268
2.59155
1.00001
1.00003
1.00006
1.00021
1.00037
1.00118
1.00216
1.00658
1.01318
1.03545
1.08985
1.2127
1.60672
2.4793
2.69967
2.72739
2.72508
2.72569
2.73954
2.75174
2.76504
2.77345
2.78064
2.7856
2.78962
1.00001
1.00003
1.00006
1.0002
1.00037
1.00117
1.00214
1.00653
1.01305
1.03515
1.08891
1.21047
1.60145
2.47148
2.69656
2.72689
2.72441
2.72491
2.73873
2.75077
2.76405
2.77199
2.77921
2.78331
2.7866
1.00001
1.00003
1.00006
1.0002
1.00036
1.00115
1.0021
1.00639
1.01277
1.03441
1.08728
1.20531
1.5917
2.45517
2.68976
2.72574
2.72277
2.72311
2.73684
2.74828
2.76152
2.76967
2.77604
2.78025
2.78242
1.00001
1.00003
1.00006
1.00019
1.00035
1.00111
1.00203
1.00618
1.01236
1.03326
1.08487
1.19744
1.57693
2.42887
2.67919
2.72384
2.71972
2.71973
2.73239
2.74472
2.75587
2.76407
2.7714
2.77569
2.77778
1
1.00003
1.00006
1.00018
1.00033
1.00106
1.00194
1.00589
1.01181
1.03172
1.0816
1.18707
1.55652
2.3906
2.66447
2.72145
2.71603
2.71505
2.72648
2.73865
2.75132
2.75647
2.76182
2.7657
2.76699
1
1.00003
1.00005
1.00017
1.00031
1.00099
1.00182
1.00541
1.01117
1.02925
1.07788
1.17465
1.53071
2.33812
2.64491
2.7183
2.71232
2.70833
2.72076
2.72743
2.74118
2.74881
2.75343
2.75616
2.75743
1
1.00003
1.00005
1.00016
1.00029
1.00091
1.00168
1.00493
1.0104
1.02667
1.07235
1.15916
1.50082
2.27409
2.61969
2.71446
2.70762
2.70193
2.71421
2.72149
2.72796
2.7337
2.7377
2.73877
2.73668
1
1.00002
1.00004
1.00015
1.00026
1.00083
1.00154
1.00456
1.00945
1.02458
1.06541
1.14659
1.44737
2.17798
2.58623
2.70649
2.69856
2.69001
2.70033
2.7106
2.7185
2.71919
2.72064
2.71886
2.71459
1
1.00002
1.00004
1.00013
1.00024
1.00077
1.00139
1.00434
1.00835
1.02327
1.0557
1.13199
1.38226
2.05232
2.54363
2.69739
2.69
2.67844
2.68731
2.69168
2.69952
2.69958
2.69567
2.68674
2.66354
1
1.00002
1.00004
1.00012
1.00021
1.00066
1.00122
1.00375
1.00731
1.02039
1.04745
1.11632
1.31947
1.93105
2.47553
2.66887
2.6667
2.66064
2.67419
2.67568
2.67903
2.67619
2.66526
2.64268
2.59155
1.00001
1.00003
1.00006
1.00021
1.00037
1.00118
1.00216
1.00658
1.01318
1.03545
1.08985
1.2127
1.60671
2.47929
2.69966
2.72739
2.72508
2.72569
2.73954
2.75173
2.76504
2.77345
2.78064
2.7856
2.78962
1.00001
1.00003
1.00006
1.0002
1.00037
1.00117
1.00214
1.00653
1.01305
1.03515
1.08891
1.21046
1.60145
2.47147
2.69655
2.72689
2.72441
2.72491
2.73873
2.75077
2.76405
2.77199
2.77921
2.7833
2.7866
1.00001
1.00003
1.00006
1.0002
1.00036
1.00115
1.0021
1.00639
1.01277
1.03441
1.08728
1.20531
1.59169
2.45516
2.68975
2.72574
2.72277
2.72311
2.73684
2.74828
2.76152
2.76967
2.77604
2.78025
2.78242
1.00001
1.00003
1.00006
1.00019
1.00035
1.00111
1.00203
1.00617
1.01236
1.03326
1.08487
1.19744
1.57692
2.42885
2.67919
2.72384
2.71972
2.71973
2.73239
2.74472
2.75587
2.76407
2.7714
2.77569
2.77778
1
1.00003
1.00006
1.00018
1.00033
1.00106
1.00194
1.00589
1.01181
1.03172
1.0816
1.18707
1.55652
2.39059
2.66446
2.72145
2.71603
2.71505
2.72648
2.73865
2.75132
2.75647
2.76182
2.7657
2.76699
1
1.00003
1.00005
1.00017
1.00031
1.00099
1.00182
1.00541
1.01117
1.02925
1.07788
1.17465
1.53071
2.33811
2.64491
2.7183
2.71232
2.70833
2.72076
2.72743
2.74118
2.74881
2.75343
2.75616
2.75743
1
1.00003
1.00005
1.00016
1.00029
1.00091
1.00168
1.00493
1.0104
1.02667
1.07235
1.15916
1.50081
2.27407
2.61969
2.71446
2.70762
2.70193
2.71421
2.72148
2.72795
2.7337
2.7377
2.73877
2.73668
1
1.00002
1.00004
1.00015
1.00026
1.00083
1.00154
1.00456
1.00945
1.02458
1.06541
1.14659
1.44735
2.17796
2.58623
2.70649
2.69855
2.69001
2.70033
2.7106
2.71849
2.71919
2.72064
2.71886
2.71459
1
1.00002
1.00004
1.00013
1.00024
1.00077
1.00139
1.00434
1.00835
1.02327
1.0557
1.13199
1.38225
2.05229
2.54363
2.69738
2.69
2.67844
2.68731
2.69168
2.69952
2.69958
2.69567
2.68674
2.66354
1
1.00002
1.00004
1.00012
1.00021
1.00066
1.00122
1.00375
1.00731
1.02039
1.04745
1.11632
1.31946
1.93102
2.47552
2.66887
2.6667
2.66064
2.67419
2.67568
2.67903
2.67619
2.66525
2.64268
2.59154
0.999997
1.00003
1.00005
1.0002
1.00036
1.00118
1.00215
1.00657
1.01317
1.03544
1.08982
1.21265
1.6066
2.4791
2.69953
2.7273
2.72499
2.72559
2.73944
2.75164
2.76495
2.77336
2.78055
2.78551
2.78953
0.999997
1.00002
1.00005
1.0002
1.00036
1.00116
1.00213
1.00652
1.01304
1.03513
1.08889
1.21041
1.60135
2.47129
2.69642
2.7268
2.72433
2.72483
2.73864
2.75069
2.76397
2.77191
2.77913
2.78322
2.78651
0.999996
1.00002
1.00005
1.00019
1.00035
1.00114
1.00209
1.00638
1.01276
1.03439
1.08726
1.20525
1.59163
2.45499
2.68963
2.72567
2.72269
2.72303
2.73676
2.74819
2.76144
2.76959
2.77595
2.78017
2.78234
0.999996
1.00002
1.00005
1.00018
1.00034
1.0011
1.00202
1.00616
1.01235
1.03324
1.08485
1.19738
1.57686
2.42868
2.67907
2.72376
2.71964
2.71965
2.73231
2.74464
2.75579
2.76399
2.77132
2.7756
2.77769
0.999996
1.00002
1.00005
1.00018
1.00032
1.00105
1.00193
1.00588
1.0118
1.0317
1.08159
1.18701
1.55646
2.39041
2.66436
2.72138
2.71596
2.71497
2.72641
2.73857
2.75124
2.75638
2.76175
2.76561
2.76691
0.999996
1.00002
1.00004
1.00016
1.0003
1.00098
1.00181
1.0054
1.01116
1.02923
1.07786
1.17459
1.53064
2.33792
2.6448
2.71823
2.71225
2.70826
2.72068
2.72736
2.74112
2.74874
2.75335
2.75607
2.75735
0.999995
1.00002
1.00004
1.00015
1.00028
1.0009
1.00167
1.00492
1.01039
1.02665
1.07233
1.1591
1.50074
2.27387
2.61958
2.71439
2.70755
2.70186
2.71414
2.7214
2.72788
2.73362
2.73762
2.73869
2.7366
0.999995
1.00002
1.00004
1.00014
1.00025
1.00083
1.00153
1.00455
1.00944
1.02457
1.06539
1.14654
1.44726
2.17773
2.58612
2.70642
2.69849
2.68994
2.70026
2.71054
2.71842
2.71911
2.72057
2.71879
2.71452
0.999995
1.00001
1.00003
1.00013
1.00023
1.00076
1.00138
1.00433
1.00834
1.02325
1.05569
1.13194
1.38218
2.05207
2.54351
2.69731
2.68993
2.67837
2.68723
2.69161
2.69946
2.69951
2.69559
2.68666
2.66347
0.999995
1.00001
1.00003
1.00011
1.0002
1.00066
1.00122
1.00374
1.00729
1.02037
1.04743
1.11627
1.31938
1.93078
2.4754
2.66879
2.66662
2.66057
2.67412
2.67561
2.67897
2.67613
2.66519
2.64261
2.59148
0.999997
1
1.00003
1.00007
1.00023
1.00042
1.00131
1.00255
1.00703
1.01615
1.0393
1.1112
1.25262
1.69374
2.4959
2.64978
2.63588
2.63661
2.64591
2.65379
2.65352
2.64626
2.6252
2.57445
2.41311
0.999996
1
1.00003
1.00006
1.00021
1.00038
1.00122
1.00222
1.00681
1.01356
1.03659
1.09177
1.22008
1.61272
2.4468
2.6272
2.62598
2.62055
2.62138
2.62923
2.62803
2.61476
2.58252
2.52404
2.36524
0.999996
1
1.00002
1.00005
1.00018
1.00032
1.00104
1.00191
1.00583
1.0116
1.03132
1.07947
1.18349
1.53877
2.33574
2.58216
2.62053
2.61399
2.59983
2.60065
2.59852
2.584
2.54453
2.49086
2.36916
0.999996
0.999999
1.00002
1.00004
1.00014
1.00027
1.00086
1.00159
1.00466
1.00986
1.02514
1.06804
1.14927
1.46743
2.17884
2.52978
2.61817
2.60689
2.59441
2.57652
2.56742
2.55147
2.51695
2.47278
2.37755
0.999995
0.999998
1.00001
1.00003
1.00012
1.00022
1.00073
1.00134
1.00412
1.00805
1.0223
1.05325
1.12767
1.36007
2.0243
2.42428
2.59623
2.59017
2.58331
2.56778
2.54348
2.52342
2.48258
2.45245
2.38594
0.999994
0.999999
1
1.00003
1.00007
1.00023
1.00043
1.00129
1.00257
1.00688
1.01641
1.03894
1.1111
1.25054
1.67672
2.37183
2.55378
2.55346
2.55425
2.54867
2.53084
2.50923
2.46356
2.4214
2.38099
0.999994
0.999998
1
1.00003
1.00005
1.00019
1.00035
1.00114
1.00208
1.00639
1.01259
1.03416
1.08504
1.20087
1.56772
2.31772
2.52224
2.53094
2.52539
2.52104
2.51024
2.49602
2.46247
2.41229
2.36854
0.999994
0.999997
1
1.00002
1.00004
1.00014
1.00027
1.00085
1.00162
1.00456
1.01015
1.02505
1.06986
1.15103
1.47785
2.1863
2.46431
2.52403
2.50792
2.50171
2.4863
2.47108
2.45455
2.41642
2.36991
0.999994
0.999995
1
1.00001
1.00004
1.00008
1.00026
1.00051
1.00142
1.00316
1.00776
1.02097
1.04643
1.14024
1.31494
1.90848
2.35776
2.50736
2.50132
2.4907
2.47858
2.45547
2.4384
2.41562
2.37579
0.999993
0.999994
0.999998
1
1.00003
1.00006
1.00021
1.0004
1.00126
1.00234
1.00697
1.01438
1.03754
1.09564
1.23188
1.59819
2.28518
2.45878
2.47395
2.46819
2.46143
2.44725
2.42717
2.41172
2.3873
0.999992
0.999994
0.999995
1
1.00001
1.00006
1.00012
1.00037
1.00072
1.00202
1.00442
1.01099
1.02941
1.06555
1.19661
1.46185
2.12127
2.42739
2.46803
2.45849
2.44622
2.43705
2.42013
2.40811
2.39404
0.999992
0.999993
0.999994
1
1.00001
1.00005
1.00009
1.0003
1.00055
1.00171
1.00328
1.00913
1.02081
1.05034
1.14278
1.33325
1.84885
2.32617
2.45562
2.45295
2.44239
2.4322
2.421
2.41364
2.40627
0.999992
0.999992
0.999994
0.999997
1.00001
1.00002
1.00009
1.00017
1.00053
1.001
1.00302
1.00595
1.01663
1.03661
1.09568
1.23104
1.70295
2.15237
2.41107
2.43884
2.44119
2.4359
2.42761
2.42553
2.42044
0.999992
0.999992
0.999993
0.999995
1
1.00001
1.00006
1.00012
1.0004
1.00073
1.00225
1.00432
1.01206
1.02724
1.06583
1.18001
1.455
2.03728
2.34638
2.42586
2.4351
2.44364
2.44454
2.44396
2.44046
0.999991
0.999992
0.999992
0.999995
0.999998
1.00001
1.00003
1.00012
1.00022
1.0007
1.0013
1.0039
1.00781
1.02085
1.05112
1.11904
1.33306
1.8857
2.26115
2.41704
2.44027
2.45127
2.46164
2.46296
2.45911
0.999991
0.999991
0.999992
0.999994
0.999996
1.00001
1.00002
1.00008
1.00016
1.00052
1.00096
1.00294
1.00564
1.01618
1.03432
1.09216
1.21682
1.67912
2.11768
2.39172
2.45094
2.46635
2.473
2.4799
2.47224
0.999991
0.999991
0.999992
0.999992
0.999996
1
1.00002
1.00004
1.00015
1.00028
1.00087
1.00167
1.00464
1.01031
1.02523
1.06977
1.14954
1.46811
2.10176
2.35688
2.46984
2.48148
2.48967
2.48561
2.47325
0.999991
0.999991
0.999991
0.999992
0.999995
0.999998
1.00001
1.00003
1.00011
1.00021
1.00069
1.00127
1.00391
1.00757
1.02132
1.04835
1.12083
1.32074
1.91986
2.32337
2.49982
2.51466
2.51082
2.49992
2.47844
0.999991
0.999991
0.999991
0.999992
0.999993
0.999997
1
1.00003
1.00006
1.00021
1.00039
1.00121
1.00235
1.00667
1.01461
1.03707
1.09806
1.23593
1.61992
2.36809
2.53208
2.54492
2.52557
2.50612
2.47795
0.999991
0.999991
0.999991
0.999991
0.999993
0.999995
1
1.00001
1.00006
1.00012
1.0004
1.00077
1.00216
1.00481
1.01189
1.03248
1.07187
1.22157
1.52814
2.25026
2.60213
2.62032
2.57379
2.52783
2.48278
0.999991
0.999991
0.999991
0.999991
0.999993
0.999994
1
1.00001
1.00005
1.0001
1.00033
1.00063
1.0018
1.00397
1.00989
1.02701
1.06015
1.18701
1.43537
2.10198
2.56799
2.67209
2.62388
2.58023
2.52031
0.999991
0.999991
0.999991
0.999991
0.999992
0.999995
0.999998
1.00001
1.00003
1.00012
1.00023
1.00072
1.0014
1.00398
1.00881
1.02206
1.06054
1.13464
1.40986
2.07199
2.54668
2.69986
2.65413
2.60278
2.55222
0.999991
0.999991
0.999991
0.999991
0.999992
0.999994
0.999997
1.00001
1.00003
1.00011
1.00021
1.00068
1.00124
1.00391
1.00748
1.02149
1.04871
1.12238
1.33364
1.96025
2.52954
2.70368
2.66313
2.60998
2.56937
0.999991
0.999991
0.999991
0.999991
0.999992
0.999994
0.999997
1.00001
1.00002
1.0001
1.00019
1.00062
1.00113
1.00356
1.00678
1.01963
1.04372
1.11132
1.29679
1.87287
2.49839
2.71555
2.68311
2.6342
2.59455
0.999991
0.999991
0.999991
0.999991
0.999992
0.999994
0.999996
1.00001
1.00002
1.00009
1.00016
1.00054
1.001
1.0031
1.00611
1.01707
1.04087
1.0994
1.27805
1.80087
2.47787
2.71594
2.68112
2.65707
2.62222
0.999991
0.999991
0.999991
0.999991
0.999992
0.999993
0.999997
1
1.00003
1.00006
1.00019
1.00037
1.00114
1.00229
1.00622
1.01477
1.03588
1.10255
1.23304
1.66893
2.52408
2.70556
2.69399
2.66733
2.63501
0.999991
0.999991
0.999991
0.999991
0.999991
0.999993
0.999995
1
1.00001
1.00006
1.00013
1.00037
1.00083
1.00208
1.00553
1.01257
1.03673
1.07765
1.25236
1.61546
2.41404
2.70555
2.70892
2.68661
2.65468
0.999991
0.999991
0.999991
0.999991
0.999992
0.999992
0.999996
1
1.00002
1.00005
1.00017
1.00032
1.00101
1.00196
1.00562
1.01243
1.03156
1.08781
1.1963
1.59609
2.41994
2.68043
2.71024
2.68966
2.66176
0.999991
0.999991
0.999991
0.999991
0.999992
0.999992
0.999996
1
1.00002
1.00004
1.00015
1.00029
1.00092
1.00178
1.00508
1.01141
1.0287
1.081
1.17885
1.55819
2.37816
2.67588
2.71789
2.6948
2.66391
0.999991
0.999991
0.999991
0.999991
0.999991
0.999992
0.999994
1
1.00001
1.00005
1.0001
1.00029
1.00066
1.00163
1.00444
1.00988
1.02949
1.06136
1.20468
1.46791
2.24374
2.67511
2.73704
2.7126
2.67545
0.999991
0.999991
0.999991
0.999991
0.999991
0.999992
0.999995
0.999998
1.00001
1.00003
1.00012
1.00024
1.00067
1.00157
1.00384
1.01053
1.02362
1.07188
1.14918
1.50273
2.24605
2.65128
2.73329
2.70936
2.67038
0.999991
0.999991
0.999991
0.999991
0.999991
0.999992
0.999994
1
1.00001
1.00004
1.00009
1.00029
1.00057
1.00158
1.00369
1.00894
1.02517
1.05499
1.17512
1.40072
2.10972
2.66035
2.74611
2.71823
2.67191
0.999991
0.999991
0.999991
0.999991
0.999991
0.999992
0.999993
0.999999
1.00001
1.00004
1.00008
1.00027
1.00052
1.00148
1.00335
1.00828
1.02304
1.05115
1.16061
1.36938
2.02336
2.64585
2.75242
2.72194
2.67256
0.999991
0.999991
0.999991
0.999991
0.999991
0.999992
0.999994
0.999997
1.00001
1.00003
1.0001
1.0002
1.00064
1.00129
1.00348
1.00835
1.02002
1.05747
1.12507
1.39332
2.04066
2.64075
2.74759
2.7176
2.66731
0.999991
0.999991
0.999991
0.999991
0.999991
0.999992
0.999993
0.999998
1
1.00003
1.00007
1.00023
1.00047
1.00127
1.00309
1.00728
1.02062
1.04479
1.1407
1.31925
1.91249
2.62125
2.75848
2.73005
2.67733
0.999991
0.999991
0.999991
0.999991
0.999991
0.999992
0.999994
0.999997
1.00001
1.00003
1.0001
1.00019
1.0006
1.00119
1.00334
1.00752
1.01887
1.05185
1.11729
1.3457
1.97558
2.58094
2.75621
2.73524
2.69103
0.999991
0.999991
0.999991
0.999991
0.999991
0.999992
0.999993
0.999998
1
1.00003
1.00007
1.00024
1.00046
1.00136
1.00284
1.00739
1.01893
1.04369
1.13024
1.2975
1.8133
2.60785
2.77025
2.74621
2.69618
0.999991
0.999991
0.999991
0.999991
0.999991
0.999992
0.999993
0.999998
1
1.00003
1.00007
1.00024
1.00045
1.00137
1.0028
1.00741
1.01847
1.04313
1.12766
1.29163
1.7841
2.61119
2.77797
2.75257
2.70032
0.999991
0.999991
0.999991
0.999991
0.999991
0.999992
0.999994
0.999997
1.00001
1.00003
1.0001
1.00019
1.00062
1.00116
1.00357
1.00707
1.01957
1.04712
1.114
1.31998
1.93584
2.54846
2.76607
2.74515
2.69735
0.999991
0.999991
0.999991
0.999991
0.999991
0.999992
0.999994
0.999997
1.00001
1.00003
1.0001
1.00019
1.00064
1.00117
1.00367
1.00704
1.02027
1.04575
1.11553
1.31342
1.9265
2.54699
2.76526
2.74439
2.69631
1.00001
1.00001
1.00004
1.00007
1.00024
1.00043
1.00132
1.00256
1.00705
1.01616
1.03931
1.11123
1.25268
1.69383
2.49594
2.64986
2.63596
2.63669
2.64598
2.65385
2.65358
2.64633
2.62526
2.5745
2.41316
1
1.00001
1.00004
1.00007
1.00021
1.00039
1.00123
1.00223
1.00682
1.01357
1.03661
1.0918
1.22013
1.61282
2.44693
2.62728
2.62605
2.62063
2.62145
2.6293
2.62809
2.61482
2.58258
2.5241
2.36529
1
1.00001
1.00003
1.00006
1.00018
1.00033
1.00105
1.00191
1.00584
1.01161
1.03134
1.07948
1.18355
1.53884
2.33593
2.58225
2.62059
2.61405
2.5999
2.60073
2.59859
2.58406
2.54459
2.49092
2.36921
1
1.00001
1.00003
1.00005
1.00015
1.00028
1.00087
1.0016
1.00467
1.00987
1.02516
1.06806
1.14932
1.46752
2.17905
2.52988
2.61823
2.60695
2.59448
2.57659
2.5675
2.55154
2.51701
2.47283
2.3776
1
1.00001
1.00002
1.00004
1.00013
1.00023
1.00073
1.00135
1.00413
1.00806
1.02231
1.05327
1.12771
1.36014
2.02451
2.42438
2.59632
2.59025
2.58338
2.56785
2.54355
2.52349
2.48264
2.45252
2.386
1
1.00001
1.00001
1.00004
1.00008
1.00023
1.00043
1.0013
1.00258
1.0069
1.01642
1.03896
1.11112
1.25059
1.67689
2.37192
2.55384
2.55352
2.55432
2.54873
2.5309
2.5093
2.46364
2.42147
2.38105
1
1.00001
1.00001
1.00003
1.00006
1.0002
1.00036
1.00115
1.00209
1.0064
1.0126
1.03418
1.08505
1.20094
1.56778
2.31785
2.52235
2.53102
2.52546
2.52112
2.51031
2.4961
2.46255
2.41237
2.36862
1
1
1.00001
1.00003
1.00005
1.00015
1.00028
1.00086
1.00163
1.00458
1.01016
1.02507
1.06988
1.15109
1.47792
2.18651
2.46439
2.52409
2.50799
2.50179
2.48638
2.47116
2.45463
2.41652
2.36999
1
1
1.00001
1.00002
1.00005
1.00009
1.00027
1.00052
1.00143
1.00317
1.00778
1.02098
1.04645