/*--------------------------------*- C++ -*----------------------------------*\
| =========                 |                                                 |
| \\      /  F ield         | OpenFOAM: The Open Source CFD Toolbox           |
|  \\    /   O peration     | Version:  4.1                                   |
|   \\  /    A nd           | Web:      www.OpenFOAM.org                      |
|    \\/     M anipulation  |                                                 |
\*---------------------------------------------------------------------------*/
FoamFile
{
    version     2.0;
    format      ascii;
    class       volScalarField;
    location    "0.62";
    object      Ma;
}
// * * * * * * * * * * * * * * * * * * * * * * * * * * * * * * * * * * * * * //

dimensions      [0 0 0 0 0 0 0];

internalField   nonuniform List<scalar> 
52500
(
2.80598
2.7482
2.2492
0.946235
0.058194
0.229889
0.293396
0.115805
0.037553
0.0718437
0.0990611
0.0872178
0.109616
0.126158
0.137175
0.143257
0.146082
0.142394
0.132319
0.115649
0.096859
0.0704893
0.0490217
0.0283916
0.0310581
2.80814
2.75423
2.26228
0.967353
0.0728805
0.238943
0.289716
0.123735
0.0584664
0.0775114
0.107123
0.0951923
0.116587
0.132909
0.144066
0.150285
0.153214
0.150195
0.14103
0.125676
0.108642
0.0860632
0.0697401
0.0578786
0.0596823
2.81421
2.76774
2.29138
1.01718
0.0963908
0.253156
0.285756
0.143636
0.0862877
0.0928614
0.125387
0.112939
0.13216
0.147129
0.157897
0.164899
0.168703
0.167325
0.160256
0.147772
0.13436
0.117558
0.106944
0.101055
0.103558
2.82474
2.78752
2.33476
1.09471
0.124428
0.272713
0.278676
0.169939
0.115839
0.112481
0.147535
0.13464
0.1514
0.165197
0.176126
0.183959
0.188654
0.189539
0.185044
0.175553
0.165576
0.153308
0.146966
0.144806
0.148714
2.84204
2.81231
2.3906
1.19757
0.156666
0.29548
0.265543
0.200604
0.145502
0.134762
0.171067
0.159227
0.173691
0.186226
0.197249
0.205969
0.211847
0.215253
0.213503
0.207092
0.200309
0.192179
0.189947
0.19097
0.196883
2.86651
2.84173
2.45832
1.32619
0.196485
0.319562
0.245838
0.2345
0.175333
0.159838
0.19498
0.186213
0.198016
0.209332
0.220739
0.230157
0.237458
0.243409
0.244651
0.241489
0.238149
0.234438
0.236703
0.241807
0.250405
2.89602
2.87672
2.53678
1.47902
0.249402
0.342193
0.222219
0.271594
0.204807
0.189817
0.218776
0.215202
0.223868
0.23419
0.245979
0.255855
0.264778
0.273176
0.277842
0.278252
0.279119
0.280903
0.288321
0.299453
0.312877
2.92626
2.9157
2.62039
1.65139
0.32254
0.360644
0.205884
0.31085
0.232572
0.223872
0.241935
0.24546
0.250918
0.26047
0.272534
0.282641
0.293248
0.304031
0.312531
0.316959
0.322881
0.331689
0.34577
0.366376
0.391952
2.95635
2.95488
2.70685
1.83842
0.423418
0.374644
0.215869
0.348785
0.259281
0.25888
0.265315
0.2763
0.279071
0.288093
0.300207
0.310195
0.322504
0.335409
0.348126
0.357113
0.369164
0.385976
0.410657
0.444802
0.497571
2.9849
2.99273
2.79073
2.02746
0.576074
0.388214
0.260726
0.38178
0.287066
0.292026
0.290616
0.30693
0.308432
0.31699
0.328453
0.338352
0.352075
0.36685
0.384131
0.398591
0.416958
0.442965
0.483732
0.546097
0.666455
2.80593
2.74809
2.24899
0.945912
0.0577111
0.229818
0.293182
0.115284
0.0368498
0.0714028
0.0988024
0.0869787
0.109457
0.125992
0.13697
0.143031
0.145857
0.142168
0.132084
0.115388
0.0965669
0.0701038
0.0484673
0.0274495
0.0302415
2.8081
2.75415
2.26214
0.967207
0.07229
0.238451
0.289888
0.123612
0.057512
0.0774521
0.107248
0.0952383
0.116595
0.132804
0.143888
0.150084
0.153016
0.14999
0.140812
0.125436
0.108379
0.0857426
0.0693441
0.0574135
0.0592571
2.81415
2.76764
2.29122
1.01696
0.0959334
0.252922
0.285735
0.14333
0.0857772
0.092626
0.125205
0.112731
0.131996
0.146974
0.157718
0.164703
0.168514
0.167129
0.160057
0.147563
0.134144
0.117317
0.106677
0.100776
0.103308
2.82467
2.7874
2.33454
1.09435
0.124058
0.272559
0.278614
0.169651
0.115516
0.112226
0.147269
0.134383
0.151168
0.164975
0.175888
0.183735
0.188459
0.189348
0.184863
0.175372
0.165394
0.153117
0.146765
0.1446
0.148532
2.84195
2.81219
2.39037
1.19718
0.156403
0.295321
0.265495
0.200341
0.145268
0.134543
0.170765
0.158903
0.17336
0.185905
0.196931
0.205699
0.211629
0.215067
0.213334
0.206929
0.200152
0.192023
0.189788
0.190806
0.196733
2.86641
2.84161
2.45808
1.32578
0.196261
0.319392
0.24582
0.234279
0.175197
0.159645
0.194738
0.185907
0.197664
0.208985
0.220398
0.22988
0.237236
0.243227
0.244486
0.241338
0.238011
0.234307
0.236574
0.241673
0.25028
2.89591
2.87659
2.53653
1.47858
0.249169
0.342046
0.222223
0.271409
0.204751
0.189695
0.218663
0.214948
0.223578
0.233885
0.245673
0.255604
0.264567
0.273004
0.27768
0.278108
0.278994
0.280784
0.288208
0.299341
0.312777
2.92616
2.91558
2.62016
1.65094
0.322289
0.360531
0.205874
0.310714
0.232577
0.223836
0.241861
0.245278
0.250711
0.260231
0.272298
0.282428
0.293053
0.303859
0.312373
0.316822
0.322761
0.331577
0.345666
0.36628
0.391871
2.95626
2.95477
2.70663
1.83797
0.42311
0.374559
0.215795
0.348694
0.259316
0.25891
0.265275
0.276188
0.278931
0.287908
0.300015
0.310002
0.322323
0.335241
0.347976
0.356984
0.369051
0.385873
0.410564
0.444719
0.497498
2.98483
2.99263
2.79053
2.02705
0.575667
0.388151
0.260587
0.381723
0.287109
0.292077
0.290628
0.306879
0.308354
0.31687
0.328308
0.338189
0.351915
0.366695
0.383992
0.398471
0.416851
0.442874
0.483654
0.546026
0.666391
2.80595
2.74814
2.24908
0.946051
0.0576044
0.229739
0.293257
0.115426
0.0367508
0.0712769
0.0986097
0.0867847
0.109267
0.125842
0.136882
0.142992
0.145844
0.142166
0.132082
0.115377
0.0965404
0.0700644
0.0484301
0.0274552
0.0302403
2.80811
2.75417
2.26218
0.967215
0.0723749
0.238696
0.289687
0.123491
0.0578321
0.0771311
0.106865
0.0949158
0.116346
0.132677
0.143833
0.150057
0.152999
0.149984
0.140808
0.125424
0.108355
0.0857103
0.0693199
0.0574193
0.0592597
2.81417
2.76768
2.29129
1.01703
0.096004
0.252955
0.285718
0.143409
0.0858824
0.0925752
0.125198
0.112722
0.131958
0.146925
0.157689
0.164696
0.168511
0.167136
0.16006
0.147556
0.134125
0.117295
0.106664
0.100783
0.103315
2.8247
2.78746
2.33465
1.09452
0.12412
0.272547
0.278634
0.169749
0.115563
0.112259
0.1474
0.134476
0.151242
0.165051
0.175972
0.183794
0.188486
0.189369
0.184873
0.175371
0.165383
0.153103
0.146758
0.144609
0.148542
2.84199
2.81225
2.39048
1.19737
0.156425
0.295321
0.26551
0.200443
0.14529
0.13459
0.170949
0.159087
0.173556
0.186084
0.197083
0.205802
0.211684
0.215103
0.213356
0.206937
0.200148
0.192013
0.189784
0.190816
0.196746
2.86646
2.84167
2.45819
1.32598
0.19628
0.319404
0.245803
0.23436
0.175172
0.159681
0.194894
0.18611
0.197877
0.209175
0.220571
0.229997
0.23731
0.243276
0.244521
0.241354
0.238011
0.2343
0.236573
0.241685
0.250296
2.89596
2.87665
2.53664
1.47879
0.249208
0.342049
0.222165
0.271462
0.204671
0.189678
0.218761
0.215108
0.223743
0.234052
0.245827
0.25571
0.264643
0.273057
0.277723
0.27813
0.278998
0.280784
0.288212
0.299355
0.312795
2.9262
2.91563
2.62026
1.65114
0.322353
0.360518
0.205793
0.310732
0.232452
0.223756
0.241902
0.245375
0.250815
0.260355
0.272404
0.282508
0.293121
0.30392
0.31242
0.316848
0.322772
0.331584
0.345675
0.366296
0.39189
2.9563
2.95481
2.70672
1.83817
0.423214
0.374531
0.215734
0.348687
0.259182
0.258799
0.265269
0.276228
0.278986
0.287991
0.300091
0.310076
0.322385
0.335299
0.348021
0.357011
0.369067
0.385882
0.410574
0.444736
0.497518
2.98485
2.99266
2.7906
2.02721
0.575822
0.388113
0.260563
0.381702
0.286987
0.291976
0.29059
0.30688
0.308368
0.316904
0.328346
0.338237
0.351964
0.366745
0.384035
0.398497
0.416867
0.442882
0.483662
0.546041
0.666407
2.80595
2.74813
2.24905
0.946012
0.0576234
0.229748
0.293242
0.115402
0.0367753
0.0712849
0.0986118
0.0867917
0.109268
0.125836
0.136867
0.14297
0.145819
0.142137
0.132049
0.115338
0.0965037
0.0700281
0.0483994
0.0274561
0.030238
2.80811
2.75416
2.26216
0.967187
0.0723809
0.238684
0.289694
0.123488
0.0578165
0.077156
0.10688
0.0949278
0.11635
0.13267
0.143817
0.150036
0.152976
0.149959
0.140778
0.125389
0.108322
0.08568
0.0692971
0.0574184
0.0592572
2.81417
2.76767
2.29127
1.01701
0.0960121
0.252954
0.285724
0.143405
0.0858737
0.0925983
0.125215
0.112744
0.131977
0.146943
0.157689
0.164681
0.168492
0.16711
0.160031
0.147525
0.134097
0.11727
0.106646
0.100781
0.103311
2.8247
2.78745
2.33464
1.0945
0.124122
0.272541
0.278643
0.169746
0.115554
0.112273
0.147404
0.134472
0.151226
0.165012
0.175924
0.183758
0.18846
0.189345
0.184848
0.175344
0.165358
0.153082
0.146744
0.144606
0.148539
2.84199
2.81224
2.39047
1.19735
0.156424
0.295325
0.265506
0.200426
0.14529
0.134596
0.170915
0.159028
0.173475
0.185995
0.197012
0.205751
0.211653
0.215079
0.213332
0.206911
0.200125
0.191996
0.189774
0.190814
0.196743
2.86645
2.84166
2.45818
1.32596
0.196285
0.319415
0.245798
0.234342
0.17519
0.15969
0.194852
0.186037
0.197794
0.2091
0.220505
0.229952
0.23728
0.243252
0.244496
0.241329
0.237992
0.234287
0.236567
0.241683
0.250294
2.89596
2.87665
2.53664
1.47878
0.249223
0.342063
0.222171
0.271455
0.204712
0.189716
0.218735
0.215066
0.223699
0.234005
0.245786
0.255683
0.264622
0.273038
0.277699
0.278107
0.278981
0.280771
0.288206
0.299355
0.312796
2.9262
2.91563
2.62026
1.65115
0.322372
0.360532
0.205812
0.310741
0.23251
0.223822
0.241895
0.245367
0.250806
0.26034
0.272404
0.282504
0.29311
0.303898
0.312398
0.316827
0.322755
0.331568
0.345666
0.366298
0.391896
2.9563
2.95481
2.70673
1.83819
0.423239
0.374547
0.215759
0.348705
0.25924
0.258865
0.265277
0.276243
0.278995
0.287996
0.300104
0.310071
0.322377
0.335279
0.348002
0.356992
0.369048
0.385867
0.410565
0.444739
0.497524
2.98485
2.99267
2.79062
2.02725
0.575862
0.388132
0.260588
0.381719
0.287034
0.292017
0.290606
0.306904
0.308389
0.316931
0.328373
0.338242
0.35196
0.366729
0.384017
0.39848
0.41685
0.442869
0.483654
0.546044
0.666413
2.80596
2.74817
2.24916
0.94621
0.057551
0.229773
0.293204
0.115417
0.0367785
0.0712811
0.0986021
0.0867794
0.109264
0.125839
0.136876
0.142982
0.145828
0.142143
0.132053
0.115342
0.0965073
0.0700331
0.0484075
0.0274581
0.0302333
2.80812
2.7542
2.26227
0.967376
0.0723275
0.238708
0.28965
0.123499
0.0578326
0.0771467
0.106862
0.0949073
0.116338
0.132665
0.14382
0.150043
0.152984
0.149966
0.140783
0.125395
0.108328
0.0856885
0.0693086
0.0574266
0.0592568
2.81419
2.76771
2.29137
1.01719
0.0959841
0.252978
0.285678
0.143422
0.0858906
0.0925906
0.125204
0.11273
0.131966
0.146935
0.157687
0.164683
0.168497
0.167116
0.160036
0.14753
0.134103
0.117279
0.106659
0.100794
0.10331
2.82472
2.78749
2.33473
1.09469
0.124115
0.272556
0.278603
0.16977
0.115573
0.11227
0.147389
0.134459
0.151214
0.165
0.175917
0.183756
0.188463
0.18935
0.184852
0.175347
0.165363
0.15309
0.146756
0.144622
0.148541
2.84201
2.81228
2.39056
1.19754
0.156429
0.295336
0.265462
0.200455
0.145312
0.134583
0.170922
0.15903
0.173467
0.185984
0.197004
0.205749
0.211655
0.215082
0.213334
0.206913
0.200129
0.192002
0.189784
0.19083
0.196752
2.86648
2.8417
2.45827
1.32614
0.19631
0.319425
0.24575
0.234376
0.175205
0.159697
0.194845
0.18601
0.19778
0.209087
0.220497
0.229948
0.237281
0.243254
0.244498
0.241332
0.237995
0.234292
0.236574
0.241698
0.250306
2.89599
2.87668
2.53672
1.47896
0.249274
0.342063
0.222132
0.271499
0.204729
0.189744
0.218666
0.215046
0.223689
0.233993
0.245778
0.255681
0.264624
0.273042
0.277702
0.278111
0.278985
0.280777
0.288213
0.299368
0.312804
2.92623
2.91567
2.62034
1.65132
0.322443
0.36052
0.20579
0.310785
0.232534
0.223866
0.241857
0.245366
0.250804
0.260331
0.272398
0.282505
0.293115
0.303904
0.312403
0.316833
0.32276
0.331576
0.345672
0.366309
0.391902
2.95632
2.95484
2.7068
1.83835
0.423335
0.374529
0.215761
0.348741
0.259262
0.2589
0.265273
0.276252
0.278998
0.28799
0.300099
0.310071
0.322384
0.335287
0.34801
0.357
0.369054
0.385872
0.41057
0.444747
0.497534
2.98487
2.9927
2.79068
2.02738
0.575991
0.388111
0.260611
0.381745
0.28705
0.292031
0.290601
0.306913
0.308391
0.316925
0.328369
0.338246
0.35197
0.366741
0.384027
0.39849
0.416859
0.442872
0.483655
0.546048
0.666424
2.80596
2.74815
2.24912
0.946138
0.0575774
0.229768
0.293209
0.115403
0.0367889
0.0712787
0.0985934
0.0867786
0.109261
0.125836
0.136872
0.142976
0.145823
0.142137
0.132046
0.115334
0.0964988
0.0700236
0.0483984
0.0274572
0.0302396
2.80812
2.75419
2.26223
0.967311
0.0723449
0.238697
0.289666
0.123496
0.0578279
0.0771552
0.106866
0.0949162
0.116343
0.132669
0.143821
0.150041
0.152979
0.149959
0.140775
0.125385
0.108318
0.0856773
0.0692982
0.0574211
0.0592603
2.81418
2.7677
2.29133
1.01713
0.0959931
0.252969
0.285696
0.143417
0.0858884
0.0925991
0.125209
0.112737
0.13197
0.146939
0.157688
0.164683
0.168493
0.16711
0.16003
0.147522
0.134095
0.11727
0.106649
0.100784
0.103315
2.82471
2.78747
2.3347
1.09462
0.124117
0.272552
0.278619
0.169765
0.115573
0.112276
0.147393
0.134465
0.151218
0.165004
0.17592
0.183757
0.18846
0.189346
0.184847
0.175342
0.165357
0.153083
0.146747
0.144611
0.148543
2.84201
2.81226
2.39053
1.19747
0.156427
0.295334
0.265481
0.20045
0.145313
0.134587
0.170924
0.159034
0.17347
0.185987
0.197005
0.20575
0.211654
0.21508
0.213332
0.206911
0.200126
0.191998
0.189778
0.190819
0.196749
2.86647
2.84169
2.45824
1.32607
0.196302
0.319424
0.245771
0.234371
0.175206
0.1597
0.194848
0.186012
0.197782
0.209088
0.220498
0.229948
0.23728
0.243253
0.244497
0.241331
0.237994
0.23429
0.236572
0.241689
0.250301
2.89598
2.87667
2.53669
1.4789
0.249257
0.342066
0.222151
0.271493
0.204731
0.189745
0.218669
0.215047
0.223691
0.233994
0.245778
0.25568
0.264623
0.273041
0.277702
0.27811
0.278984
0.280775
0.288212
0.299362
0.312803
2.92622
2.91566
2.62031
1.65126
0.322417
0.360526
0.205803
0.310779
0.232537
0.223867
0.24186
0.245367
0.250806
0.260332
0.272398
0.282503
0.293113
0.303902
0.312403
0.316832
0.322759
0.331575
0.345674
0.366306
0.391903
2.95631
2.95483
2.70678
1.83829
0.423299
0.374537
0.215763
0.348737
0.259266
0.258902
0.265276
0.276253
0.279
0.287991
0.300099
0.310069
0.322381
0.335284
0.348008
0.356998
0.369054
0.385875
0.410574
0.444748
0.497533
2.98487
2.99269
2.79066
2.02733
0.575942
0.388119
0.260603
0.381743
0.287053
0.292034
0.290605
0.306915
0.308393
0.316926
0.328369
0.338243
0.351967
0.366738
0.384025
0.398487
0.416857
0.442877
0.483664
0.546054
0.666422
2.80595
2.74813
2.24905
0.946011
0.0576236
0.229747
0.293242
0.115402
0.0367749
0.0712853
0.0986122
0.086792
0.109268
0.125836
0.136867
0.142971
0.145819
0.142137
0.132049
0.115338
0.0965036
0.070028
0.0483993
0.0274561
0.030238
2.80811
2.75416
2.26216
0.967187
0.0723811
0.238684
0.289694
0.123488
0.0578164
0.0771561
0.10688
0.094928
0.11635
0.13267
0.143817
0.150036
0.152976
0.149959
0.140778
0.125389
0.108322
0.0856799
0.069297
0.0574184
0.0592572
2.81417
2.76767
2.29127
1.01701
0.0960122
0.252954
0.285724
0.143405
0.0858737
0.0925983
0.125216
0.112744
0.131977
0.146943
0.157689
0.164681
0.168492
0.16711
0.160031
0.147524
0.134097
0.11727
0.106646
0.100781
0.103311
2.8247
2.78745
2.33464
1.0945
0.124122
0.272541
0.278643
0.169746
0.115554
0.112273
0.147404
0.134472
0.151226
0.165012
0.175924
0.183758
0.18846
0.189345
0.184848
0.175343
0.165358
0.153082
0.146744
0.144606
0.148539
2.84199
2.81224
2.39047
1.19735
0.156424
0.295325
0.265506
0.200426
0.14529
0.134596
0.170915
0.159028
0.173475
0.185995
0.197012
0.205751
0.211653
0.215079
0.213332
0.206911
0.200125
0.191996
0.189774
0.190814
0.196743
2.86645
2.84166
2.45818
1.32596
0.196285
0.319415
0.245798
0.234342
0.17519
0.15969
0.194852
0.186037
0.197794
0.2091
0.220505
0.229952
0.23728
0.243252
0.244496
0.241329
0.237992
0.234287
0.236567
0.241683
0.250294
2.89596
2.87665
2.53664
1.47878
0.249222
0.342063
0.222171
0.271455
0.204712
0.189716
0.218735
0.215066
0.223699
0.234005
0.245786
0.255683
0.264622
0.273038
0.277699
0.278107
0.278981
0.280771
0.288205
0.299355
0.312796
2.9262
2.91563
2.62026
1.65115
0.322372
0.360532
0.205812
0.310741
0.23251
0.223822
0.241895
0.245367
0.250806
0.26034
0.272404
0.282504
0.29311
0.303898
0.312398
0.316827
0.322755
0.331568
0.345666
0.366298
0.391896
2.9563
2.95481
2.70673
1.83819
0.423238
0.374547
0.215759
0.348705
0.25924
0.258865
0.265277
0.276243
0.278995
0.287996
0.300104
0.310071
0.322377
0.335279
0.348002
0.356992
0.369048
0.385867
0.410565
0.444739
0.497524
2.98485
2.99267
2.79062
2.02725
0.575861
0.388132
0.260588
0.381719
0.287034
0.292017
0.290606
0.306904
0.308389
0.316931
0.328373
0.338242
0.35196
0.366729
0.384017
0.39848
0.416849
0.442869
0.483654
0.546044
0.666413
2.80595
2.74814
2.24908
0.946051
0.0576044
0.229739
0.293257
0.115426
0.0367508
0.0712769
0.0986097
0.0867847
0.109267
0.125842
0.136882
0.142992
0.145844
0.142166
0.132082
0.115377
0.0965404
0.0700644
0.0484301
0.0274551
0.0302403
2.80811
2.75417
2.26218
0.967215
0.0723749
0.238696
0.289687
0.123491
0.0578321
0.0771311
0.106865
0.0949158
0.116346
0.132677
0.143833
0.150057
0.152999
0.149984
0.140808
0.125424
0.108355
0.0857104
0.0693199
0.0574193
0.0592597
2.81417
2.76768
2.29129
1.01703
0.096004
0.252955
0.285718
0.143409
0.0858824
0.0925752
0.125198
0.112722
0.131958
0.146925
0.157689
0.164696
0.168511
0.167136
0.16006
0.147556
0.134125
0.117295
0.106664
0.100783
0.103315
2.8247
2.78746
2.33465
1.09452
0.12412
0.272547
0.278634
0.169749
0.115563
0.112259
0.1474
0.134476
0.151242
0.165051
0.175972
0.183794
0.188486
0.189369
0.184873
0.175371
0.165383
0.153103
0.146758
0.144609
0.148542
2.84199
2.81225
2.39049
1.19737
0.156425
0.295321
0.26551
0.200443
0.14529
0.13459
0.170949
0.159087
0.173556
0.186084
0.197083
0.205802
0.211684
0.215103
0.213356
0.206937
0.200148
0.192013
0.189784
0.190816
0.196746
2.86646
2.84167
2.45819
1.32598
0.19628
0.319404
0.245803
0.23436
0.175172
0.159681
0.194894
0.18611
0.197877
0.209175
0.220571
0.229997
0.23731
0.243276
0.244521
0.241354
0.238011
0.2343
0.236573
0.241685
0.250296
2.89596
2.87665
2.53664
1.47879
0.249208
0.342049
0.222165
0.271462
0.204671
0.189678
0.218761
0.215108
0.223743
0.234052
0.245827
0.25571
0.264643
0.273057
0.277723
0.27813
0.278998
0.280784
0.288212
0.299355
0.312795
2.9262
2.91563
2.62026
1.65114
0.322353
0.360518
0.205793
0.310732
0.232452
0.223756
0.241902
0.245375
0.250815
0.260355
0.272404
0.282508
0.293121
0.30392
0.31242
0.316848
0.322772
0.331584
0.345675
0.366295
0.39189
2.9563
2.95481
2.70672
1.83817
0.423214
0.374531
0.215734
0.348687
0.259182
0.258799
0.265269
0.276228
0.278986
0.287991
0.300091
0.310076
0.322385
0.335299
0.348021
0.357011
0.369067
0.385882
0.410574
0.444736
0.497518
2.98485
2.99266
2.7906
2.02721
0.575822
0.388113
0.260563
0.381702
0.286987
0.291976
0.29059
0.30688
0.308368
0.316904
0.328346
0.338237
0.351964
0.366745
0.384035
0.398497
0.416867
0.442882
0.483662
0.546041
0.666407
2.80593
2.74809
2.24899
0.945913
0.0577111
0.229818
0.293182
0.115285
0.0368496
0.0714027
0.0988027
0.0869788
0.109457
0.125992
0.13697
0.143031
0.145857
0.142168
0.132084
0.115389
0.0965675
0.0701044
0.0484678
0.0274495
0.0302415
2.8081
2.75415
2.26214
0.967207
0.07229
0.238451
0.289888
0.123613
0.0575118
0.077452
0.107249
0.0952384
0.116595
0.132804
0.143888
0.150084
0.153016
0.14999
0.140812
0.125436
0.108379
0.0857431
0.0693445
0.0574135
0.0592571
2.81415
2.76764
2.29122
1.01696
0.0959333
0.252923
0.285735
0.14333
0.0857772
0.092626
0.125205
0.112731
0.131996
0.146974
0.157718
0.164704
0.168514
0.16713
0.160057
0.147564
0.134144
0.117317
0.106677
0.100776
0.103308
2.82467
2.7874
2.33455
1.09435
0.124058
0.272559
0.278613
0.169651
0.115516
0.112226
0.147269
0.134383
0.151168
0.164975
0.175889
0.183736
0.188459
0.189348
0.184863
0.175372
0.165394
0.153117
0.146765
0.1446
0.148532
2.84195
2.81219
2.39037
1.19718
0.156403
0.295321
0.265495
0.200341
0.145268
0.134543
0.170765
0.158904
0.17336
0.185905
0.196931
0.205699
0.211629
0.215067
0.213334
0.206929
0.200152
0.192023
0.189788
0.190806
0.196733
2.86641
2.84161
2.45808
1.32578
0.196261
0.319393
0.24582
0.234279
0.175197
0.159646
0.194738
0.185908
0.197664
0.208985
0.220398
0.22988
0.237237
0.243227
0.244487
0.241338
0.238011
0.234307
0.236574
0.241673
0.25028
2.89591
2.87659
2.53653
1.47858
0.249169
0.342046
0.222222
0.27141
0.204751
0.189695
0.218664
0.214948
0.223578
0.233885
0.245673
0.255605
0.264567
0.273004
0.27768
0.278108
0.278994
0.280785
0.288208
0.299341
0.312776
2.92616
2.91558
2.62016
1.65094
0.322289
0.360531
0.205874
0.310714
0.232576
0.223837
0.241862
0.245278
0.250711
0.260232
0.272298
0.282428
0.293053
0.303859
0.312374
0.316822
0.322761
0.331577
0.345666
0.366279
0.391871
2.95626
2.95477
2.70663
1.83797
0.423111
0.374558
0.215795
0.348695
0.259316
0.25891
0.265275
0.276188
0.278931
0.287909
0.300015
0.310002
0.322323
0.335241
0.347976
0.356984
0.369051
0.385873
0.410564
0.444718
0.497497
2.98483
2.99263
2.79053
2.02705
0.575668
0.38815
0.260587
0.381723
0.287108
0.292077
0.290628
0.306879
0.308354
0.31687
0.328308
0.338189
0.351915
0.366695
0.383993
0.398471
0.416851
0.442874
0.483654
0.546026
0.666391
2.80598
2.74819
2.24915
0.946132
0.0582725
0.229961
0.293286
0.115727
0.0378156
0.0715922
0.098877
0.0870754
0.109525
0.126101
0.137145
0.143243
0.14607
0.142381
0.132314
0.115648
0.0968654
0.0704968
0.0490306
0.0283721
0.0310664
2.80814
2.75423
2.26226
0.967294
0.0729345
0.238924
0.289739
0.123798
0.0584313
0.0775439
0.107243
0.095325
0.116721
0.133018
0.144143
0.150335
0.153238
0.150203
0.14104
0.12569
0.108663
0.086085
0.0697559
0.0578605
0.0596894
2.81421
2.76775
2.29138
1.01716
0.0964055
0.253094
0.285867
0.14374
0.0861573
0.0930236
0.1257
0.113222
0.132385
0.147283
0.157994
0.16496
0.168736
0.167343
0.160273
0.147792
0.134385
0.11758
0.106954
0.101034
0.103556
2.82474
2.78752
2.33475
1.09467
0.124388
0.272675
0.278738
0.16998
0.115733
0.112558
0.147714
0.134749
0.151467
0.165213
0.176134
0.18398
0.188676
0.189558
0.185065
0.175576
0.1656
0.153327
0.146972
0.144785
0.148701
2.84204
2.8123
2.39057
1.19749
0.156608
0.29548
0.265533
0.200567
0.145419
0.134756
0.171075
0.159155
0.173601
0.186129
0.19718
0.205936
0.211846
0.215266
0.213519
0.207109
0.200326
0.192192
0.189947
0.190951
0.196863
2.8665
2.84172
2.45827
1.32609
0.196443
0.319571
0.245806
0.234442
0.17529
0.159824
0.194918
0.186084
0.197896
0.209236
0.220673
0.230139
0.237462
0.243417
0.244657
0.241499
0.238158
0.234444
0.2367
0.241789
0.250389
2.896
2.8767
2.53673
1.47892
0.249373
0.342197
0.222204
0.271555
0.204809
0.189855
0.218713
0.215123
0.223819
0.234157
0.245967
0.255855
0.264782
0.273183
0.277839
0.278252
0.27912
0.280902
0.288313
0.299434
0.312864
2.92625
2.91568
2.62035
1.6513
0.322509
0.360646
0.205887
0.310845
0.232609
0.223968
0.2419
0.245448
0.250925
0.260478
0.272563
0.282655
0.293256
0.304026
0.31252
0.316951
0.322874
0.331681
0.345757
0.366354
0.391933
2.95634
2.95486
2.70682
1.83834
0.423372
0.374646
0.21587
0.3488
0.259327
0.258974
0.265315
0.276329
0.279104
0.28812
0.300246
0.310208
0.322507
0.335385
0.348106
0.357098
0.369151
0.385961
0.410641
0.444776
0.497541
2.98488
2.99271
2.79069
2.02739
0.57601
0.388217
0.260713
0.381794
0.287102
0.292072
0.290632
0.306975
0.308472
0.317032
0.328482
0.33835
0.352069
0.36682
0.384105
0.398571
0.416938
0.442946
0.483712
0.546067
0.66642
3.01089
3.02921
2.86955
2.20856
0.792324
0.399342
0.327833
0.403856
0.31665
0.323342
0.31874
0.337181
0.338867
0.346905
0.357255
0.366722
0.381538
0.39801
0.41962
0.439449
0.465231
0.501682
0.56232
0.658185
0.854283
3.03338
3.0658
2.94245
2.38332
1.06369
0.402574
0.39771
0.410583
0.348403
0.354142
0.350553
0.36655
0.36992
0.377135
0.385785
0.395771
0.410336
0.428735
0.45332
0.479565
0.51257
0.558195
0.632447
0.743702
0.942028
3.05262
3.10262
3.00668
2.55105
1.37312
0.402309
0.456004
0.396736
0.383883
0.384953
0.384534
0.394379
0.401373
0.407898
0.41494
0.425128
0.438151
0.458281
0.485118
0.517814
0.555259
0.605731
0.685099
0.79188
0.965545
3.06972
3.13559
3.06166
2.70237
1.69134
0.426564
0.496183
0.375184
0.422266
0.413804
0.417525
0.420003
0.433105
0.439458
0.444609
0.455123
0.464996
0.486076
0.514041
0.551437
0.592965
0.645052
0.720738
0.819985
0.962205
3.08465
3.16471
3.10824
2.83176
1.97877
0.544314
0.529753
0.380141
0.458367
0.439621
0.446806
0.446044
0.465578
0.470422
0.474028
0.483737
0.49254
0.512027
0.540299
0.578733
0.624351
0.676483
0.749865
0.840785
0.95477
3.09746
3.19012
3.14775
2.94133
2.24091
0.808101
0.561479
0.431736
0.48382
0.463307
0.473219
0.475936
0.496184
0.502008
0.505121
0.512239
0.522193
0.536496
0.564006
0.599811
0.649355
0.70154
0.770516
0.852681
0.939715
3.1083
3.21164
3.18033
3.03021
2.49656
1.225
0.569718
0.508134
0.493385
0.486399
0.499348
0.509085
0.523535
0.532546
0.536054
0.539949
0.55186
0.561333
0.584653
0.617743
0.665254
0.716917
0.778979
0.849422
0.924759
3.11743
3.22968
3.20612
3.09535
2.70233
1.66445
0.568119
0.570093
0.497696
0.513808
0.526547
0.540531
0.545556
0.563182
0.567352
0.570178
0.579827
0.587425
0.603115
0.632919
0.672496
0.723121
0.778798
0.841906
0.91199
3.12494
3.24481
3.22702
3.14516
2.85777
2.01364
0.675036
0.620872
0.522625
0.547921
0.553079
0.567328
0.568976
0.590855
0.599591
0.600291
0.606131
0.6166
0.622861
0.646174
0.680779
0.724352
0.776313
0.836655
0.902477
3.13094
3.25701
3.24372
3.18507
2.98425
2.32537
0.964384
0.671802
0.574372
0.579359
0.578151
0.590952
0.597067
0.615668
0.630779
0.630467
0.633654
0.642078
0.647038
0.658906
0.688779
0.726736
0.772483
0.828353
0.892082
3.13549
3.26616
3.256
3.21505
3.08174
2.62946
1.44236
0.70914
0.627911
0.605495
0.607442
0.615937
0.627105
0.640649
0.661611
0.661936
0.660814
0.664001
0.673116
0.675543
0.696501
0.730009
0.771039
0.818637
0.876351
3.13851
3.27267
3.26463
3.23582
3.1461
2.84933
1.97897
0.821874
0.669553
0.644204
0.643682
0.645581
0.65795
0.665928
0.690219
0.693202
0.688504
0.688605
0.694633
0.70014
0.706361
0.732974
0.769167
0.812169
0.861065
3.13974
3.27675
3.27071
3.25137
3.19137
2.99497
2.36091
1.08178
0.733889
0.691706
0.68009
0.679909
0.689639
0.691785
0.706436
0.721731
0.717514
0.712984
0.714143
0.722364
0.725382
0.738487
0.767972
0.80648
0.850764
3.13916
3.27888
3.27505
3.26305
3.22451
3.10067
2.68346
1.55199
0.817663
0.735485
0.722116
0.718777
0.723364
0.720337
0.718785
0.743861
0.74691
0.739745
0.737526
0.740007
0.747413
0.74982
0.769192
0.801924
0.842509
3.13721
3.28002
3.27824
3.27032
3.24512
3.16958
2.92372
2.14773
1.02621
0.777287
0.771723
0.758897
0.756832
0.752019
0.742209
0.755753
0.769369
0.768035
0.761352
0.761392
0.766052
0.77342
0.776793
0.800151
0.835673
3.13532
3.28077
3.2797
3.27501
3.25996
3.21477
3.07071
2.58612
1.43184
0.863673
0.820393
0.80151
0.79131
0.787061
0.773465
0.767797
0.790024
0.79422
0.78851
0.783199
0.78524
0.793265
0.802094
0.80647
0.832669
3.13448
3.28065
3.28116
3.27882
3.27019
3.24376
3.16224
2.89247
2.05195
1.05213
0.864618
0.851359
0.832692
0.824137
0.812209
0.79725
0.803258
0.814977
0.816988
0.809508
0.807395
0.811961
0.823952
0.836124
0.841888
3.13416
3.28013
3.28263
3.28151
3.27667
3.26164
3.2165
3.07272
2.58335
1.47454
0.942871
0.90492
0.883886
0.866444
0.854247
0.836116
0.823639
0.840619
0.843554
0.839101
0.831463
0.834303
0.843065
0.860256
0.877776
3.13406
3.27976
3.28367
3.28318
3.28063
3.27252
3.24812
3.17303
2.92302
2.13152
1.16099
0.960512
0.941353
0.916595
0.899435
0.883011
0.861431
0.858461
0.870782
0.869145
0.860832
0.856821
0.866061
0.881432
0.904444
3.13406
3.27952
3.28435
3.28417
3.283
3.27885
3.26613
3.22807
3.10716
2.69165
1.66433
1.05174
0.997749
0.978437
0.950211
0.932411
0.909855
0.889375
0.898293
0.90114
0.8905
0.883919
0.886558
0.904732
0.927143
3.13406
3.27942
3.28481
3.28476
3.28429
3.28225
3.27595
3.2571
3.19947
3.00748
2.35767
1.35555
1.06552
1.03934
1.01339
0.9854
0.963781
0.935453
0.920708
0.932562
0.926297
0.912018
0.910817
0.923661
0.950402
3.13405
3.27946
3.28502
3.28503
3.28486
3.2841
3.28123
3.27231
3.24526
3.1598
2.86767
2.00276
1.22233
1.09966
1.08154
1.04721
1.02002
0.992696
0.961727
0.957893
0.960193
0.946592
0.934561
0.945532
0.969671
3.13404
3.27952
3.28501
3.28525
3.28524
3.28499
3.28383
3.27988
3.26764
3.23029
3.10872
2.68194
1.71006
1.18983
1.14295
1.12102
1.08071
1.05197
1.01636
0.987787
0.99231
0.984258
0.96894
0.965841
0.990549
3.13404
3.27954
3.285
3.28536
3.28543
3.28534
3.28502
3.28344
3.27819
3.26193
3.21178
3.04354
2.45579
1.53202
1.21404
1.18822
1.15533
1.11248
1.07935
1.03701
1.01919
1.01979
1.00778
0.996989
1.00823
3.13405
3.27953
3.285
3.28538
3.2855
3.28553
3.28549
3.28501
3.28285
3.27589
3.25501
3.19042
2.97066
2.25686
1.46005
1.25562
1.22851
1.18525
1.14121
1.09995
1.05731
1.05036
1.04652
1.03742
1.03584
3.13405
3.27953
3.28501
3.28538
3.28554
3.28561
3.28565
3.28563
3.28474
3.28164
3.27278
3.24758
3.16959
2.90092
2.12367
1.43177
1.30298
1.2622
1.20941
1.1635
1.11279
1.08365
1.08401
1.08
1.07803
3.13405
3.27953
3.28501
3.28538
3.28554
3.28563
3.2857
3.28583
3.2854
3.28365
3.27946
3.26901
3.24011
3.15129
2.84307
2.05032
1.45532
1.34739
1.28875
1.22725
1.17655
1.1248
1.12123
1.12421
1.12346
3.13405
3.27953
3.28501
3.28538
3.28554
3.28563
3.28571
3.28585
3.28553
3.28402
3.28168
3.27635
3.26383
3.23193
3.13744
2.81275
2.03912
1.52281
1.37208
1.29741
1.2385
1.1822
1.16384
1.17032
1.17071
3.13405
3.27953
3.28501
3.28538
3.28554
3.28563
3.28571
3.28585
3.28554
3.28402
3.28209
3.27804
3.27081
3.2564
3.22245
3.12717
2.81568
2.10712
1.57831
1.36755
1.29947
1.24143
1.21441
1.21895
1.2181
3.13405
3.27953
3.28501
3.28538
3.28554
3.28563
3.28571
3.28585
3.28554
3.28402
3.2821
3.2781
3.27154
3.26258
3.24376
3.20538
3.11201
2.83757
2.2179
1.60501
1.36105
1.30837
1.27048
1.26419
1.25911
3.13405
3.27953
3.28501
3.28538
3.28554
3.28563
3.28571
3.28585
3.28554
3.28402
3.2821
3.27811
3.27153
3.2629
3.24589
3.2213
3.17206
3.06727
2.833
2.32714
1.72774
1.43785
1.34052
1.30391
1.28401
3.13405
3.27953
3.28501
3.28538
3.28554
3.28563
3.28571
3.28585
3.28554
3.28402
3.2821
3.27812
3.27152
3.26291
3.24583
3.22214
3.1785
3.09377
2.96074
2.69945
2.26545
1.88646
1.64458
1.51079
1.4084
3.13405
3.27953
3.28501
3.28538
3.28554
3.28563
3.28571
3.28585
3.28554
3.28402
3.2821
3.27812
3.27152
3.26291
3.24583
3.22218
3.17874
3.09449
2.97016
2.73476
2.36985
2.05247
1.81634
1.68675
1.60582
3.13405
3.27953
3.28501
3.28538
3.28554
3.28563
3.28571
3.28585
3.28554
3.28402
3.2821
3.27812
3.27153
3.26291
3.24582
3.22219
3.17875
3.09449
2.9705
2.73588
2.37609
2.06711
1.83964
1.71729