/*--------------------------------*- C++ -*----------------------------------*\
| =========                 |                                                 |
| \\      /  F ield         | OpenFOAM: The Open Source CFD Toolbox           |
|  \\    /   O peration     | Version:  4.1                                   |
|   \\  /    A nd           | Web:      www.OpenFOAM.org                      |
|    \\/     M anipulation  |                                                 |
\*---------------------------------------------------------------------------*/
FoamFile
{
    version     2.0;
    format      ascii;
    class       volScalarField;
    location    "0.62";
    object      p;
}
// * * * * * * * * * * * * * * * * * * * * * * * * * * * * * * * * * * * * * //

dimensions      [1 -1 -2 0 0 0 0];

internalField   nonuniform List<scalar> 
52500
(
0.101226
0.105936
0.147967
0.351627
1.34328
1.40056
0.776322
0.930891
1.03984
0.870363
0.817014
0.773994
0.724111
0.676675
0.631388
0.586185
0.544192
0.507476
0.479633
0.463088
0.459423
0.462693
0.476017
0.493114
0.500405
0.101054
0.10552
0.14649
0.346011
1.32433
1.41311
0.778427
0.929357
1.04353
0.87207
0.817967
0.775802
0.725528
0.677767
0.632429
0.587294
0.545564
0.509008
0.481071
0.464392
0.460541
0.463794
0.476949
0.493426
0.500091
0.100642
0.104593
0.143295
0.333794
1.2797
1.44087
0.783005
0.92374
1.04814
0.875072
0.817912
0.777274
0.726236
0.678002
0.632769
0.587906
0.54665
0.510297
0.482038
0.465053
0.460744
0.463779
0.476555
0.492412
0.498364
0.0999847
0.103207
0.138659
0.316185
1.20749
1.48423
0.790639
0.914268
1.05336
0.880091
0.81817
0.779395
0.727647
0.67869
0.633509
0.588985
0.548386
0.512145
0.48344
0.465935
0.460987
0.463642
0.475685
0.490405
0.495477
0.0990336
0.101395
0.132865
0.294717
1.11197
1.53751
0.802889
0.902569
1.05636
0.888168
0.818827
0.782001
0.729476
0.679659
0.634482
0.590469
0.550474
0.514312
0.48515
0.466866
0.460979
0.463153
0.474042
0.487584
0.49181
0.0978647
0.0991201
0.126062
0.270195
0.995917
1.59457
0.822178
0.889669
1.05667
0.900239
0.820234
0.785152
0.73163
0.680934
0.635482
0.592326
0.552634
0.516706
0.486958
0.46766
0.460648
0.461967
0.470965
0.482961
0.486661
0.0967745
0.096031
0.118607
0.243604
0.864739
1.64775
0.853378
0.874099
1.05312
0.915092
0.823305
0.788653
0.733847
0.682364
0.636622
0.594323
0.554705
0.519259
0.488738
0.468123
0.459587
0.45953
0.465767
0.475333
0.478361
0.0958532
0.0923322
0.111362
0.216423
0.724418
1.68756
0.904106
0.851544
1.03869
0.931429
0.830049
0.792415
0.736193
0.684154
0.637943
0.596373
0.556864
0.521635
0.490398
0.468079
0.457424
0.454877
0.458076
0.463496
0.46455
0.0949598
0.0886786
0.104327
0.189786
0.591252
1.69701
0.977795
0.825481
1.01902
0.947172
0.83931
0.796211
0.739031
0.686536
0.639554
0.598432
0.558992
0.523841
0.491912
0.467776
0.454025
0.44785
0.447417
0.446199
0.441163
0.0941342
0.0852253
0.097892
0.165332
0.476992
1.65238
1.07837
0.801597
0.996134
0.959817
0.850214
0.799194
0.742497
0.689461
0.641794
0.600644
0.561204
0.525885
0.493251
0.467122
0.449813
0.439223
0.432916
0.423067
0.405689
0.101229
0.105943
0.147989
0.3517
1.34346
1.40036
0.776262
0.931019
1.0399
0.870174
0.81699
0.773977
0.724086
0.676625
0.631327
0.586129
0.544143
0.507435
0.479602
0.463069
0.459417
0.462697
0.47604
0.493155
0.50046
0.101057
0.105525
0.146506
0.346058
1.32441
1.413
0.778496
0.929348
1.04338
0.872141
0.817974
0.775788
0.725522
0.67773
0.632372
0.587236
0.545515
0.508966
0.481039
0.464372
0.460533
0.463796
0.47697
0.493462
0.50014
0.100645
0.104599
0.143312
0.333847
1.27983
1.44077
0.782944
0.923805
1.04809
0.875016
0.817922
0.777257
0.726222
0.677986
0.632722
0.587852
0.546604
0.510256
0.482006
0.465031
0.460735
0.463778
0.476573
0.492444
0.498407
0.0999887
0.103214
0.138681
0.316258
1.20775
1.48406
0.79056
0.914362
1.0534
0.879995
0.818144
0.779372
0.727622
0.678685
0.633477
0.588941
0.548341
0.512106
0.483408
0.465914
0.460977
0.463641
0.475699
0.490429
0.495509
0.0990384
0.101403
0.132888
0.294796
1.11229
1.53727
0.802818
0.902634
1.05644
0.888084
0.818759
0.781979
0.729443
0.67965
0.634452
0.590428
0.550439
0.514276
0.48512
0.466846
0.460968
0.463149
0.474051
0.487599
0.491831
0.0978693
0.0991292
0.126085
0.27027
0.996235
1.5943
0.822106
0.889713
1.0567
0.900128
0.820161
0.785108
0.731601
0.680917
0.635461
0.592288
0.552612
0.516669
0.486929
0.467641
0.460636
0.46196
0.470966
0.482965
0.486668
0.0967779
0.0960425
0.118629
0.243677
0.865061
1.64751
0.853258
0.87415
1.05314
0.914979
0.823223
0.788575
0.733801
0.682337
0.636611
0.594307
0.554691
0.519228
0.488712
0.468104
0.459574
0.459519
0.46576
0.475327
0.478352
0.0958563
0.092343
0.111382
0.21649
0.724725
1.68739
0.903905
0.851612
1.03871
0.931328
0.829952
0.792321
0.736134
0.684114
0.63792
0.596353
0.55685
0.521611
0.490376
0.468061
0.45741
0.454864
0.458065
0.463483
0.464528
0.0949624
0.0886881
0.104344
0.189847
0.591519
1.69689
0.977522
0.825549
1.01899
0.947063
0.839236
0.796119
0.738971
0.686495
0.639526
0.598409
0.558975
0.523821
0.491894
0.46776
0.45401
0.447835
0.447401
0.446178
0.441131
0.0941363
0.0852333
0.0979061
0.165382
0.477188
1.65246
1.07801
0.801655
0.996114
0.95967
0.85015
0.799111
0.742443
0.689425
0.641764
0.600616
0.56118
0.525865
0.493237
0.467111
0.449799
0.439207
0.432897
0.423042
0.405657
0.101228
0.10594
0.14798
0.351669
1.34338
1.40045
0.776295
0.930915
1.03982
0.870306
0.816986
0.773953
0.724075
0.676635
0.631349
0.586152
0.544158
0.507447
0.479611
0.463072
0.459413
0.46269
0.476028
0.493129
0.500427
0.101056
0.105523
0.146501
0.346045
1.32441
1.41302
0.778427
0.929349
1.04346
0.872069
0.817953
0.775773
0.725493
0.677728
0.632391
0.58726
0.54553
0.508979
0.481048
0.464376
0.460531
0.46379
0.476958
0.493437
0.500107
0.100644
0.104597
0.143305
0.333827
1.27979
1.4408
0.782972
0.923747
1.04808
0.875043
0.817902
0.777255
0.726207
0.677969
0.632735
0.587873
0.546619
0.51027
0.482017
0.465037
0.460734
0.463774
0.476562
0.49242
0.498374
0.0999868
0.103211
0.13867
0.316223
1.20762
1.48414
0.790589
0.914293
1.05333
0.880039
0.818156
0.779386
0.727639
0.678674
0.633483
0.588956
0.548357
0.512121
0.48342
0.465921
0.460978
0.463638
0.475689
0.490406
0.495477
0.099036
0.101399
0.132876
0.294757
1.11212
1.5374
0.802831
0.902594
1.05635
0.888116
0.818795
0.781991
0.729469
0.679644
0.634457
0.590441
0.55045
0.51429
0.485133
0.466854
0.46097
0.463148
0.474044
0.487578
0.491799
0.0978671
0.0991248
0.126074
0.270233
0.996075
1.59446
0.822112
0.889691
1.05667
0.900173
0.820193
0.785138
0.731624
0.680926
0.635466
0.592305
0.552613
0.516687
0.486942
0.467649
0.46064
0.461961
0.470962
0.482947
0.486638
0.0967764
0.0960371
0.118619
0.243642
0.864903
1.64764
0.853288
0.874129
1.05312
0.915037
0.823249
0.788621
0.733828
0.682353
0.636613
0.594311
0.554691
0.519243
0.488726
0.468114
0.45958
0.459523
0.465759
0.475312
0.478323
0.0958551
0.0923383
0.111373
0.21646
0.724582
1.68748
0.903978
0.851586
1.0387
0.931384
0.829977
0.792362
0.736156
0.684132
0.637931
0.596362
0.556855
0.521624
0.490387
0.46807
0.457418
0.454867
0.458064
0.46347
0.4645
0.0949615
0.0886843
0.104337
0.18982
0.591399
1.69695
0.977631
0.825522
1.01901
0.947119
0.839259
0.796154
0.738988
0.686509
0.639537
0.598418
0.558984
0.523833
0.491904
0.467768
0.454017
0.447837
0.4474
0.446167
0.441107
0.0941357
0.0852303
0.0979007
0.165361
0.477104
1.65241
1.07815
0.801631
0.996128
0.959749
0.850164
0.79914
0.742456
0.689434
0.641775
0.600627
0.56119
0.525877
0.493244
0.467117
0.449805
0.43921
0.432896
0.423033
0.405636
0.101228
0.105941
0.147982
0.351678
1.34341
1.40043
0.776299
0.930925
1.03982
0.870281
0.816977
0.773947
0.724072
0.67663
0.631344
0.586147
0.544153
0.507445
0.479615
0.463084
0.459432
0.462713
0.476055
0.493152
0.500446
0.101056
0.105524
0.146503
0.346053
1.32444
1.413
0.778436
0.929352
1.04344
0.872058
0.817951
0.775771
0.725492
0.677724
0.632386
0.587254
0.545526
0.508977
0.481053
0.464388
0.460549
0.463813
0.476985
0.493459
0.500124
0.100644
0.104597
0.143307
0.333834
1.27981
1.44079
0.782972
0.923754
1.04805
0.875037
0.817905
0.777257
0.726207
0.67797
0.632732
0.58787
0.546616
0.510269
0.482022
0.465048
0.460751
0.463795
0.476588
0.492441
0.498389
0.099987
0.103211
0.138671
0.316228
1.20764
1.48413
0.790586
0.914297
1.05332
0.880039
0.818158
0.779384
0.727636
0.678674
0.633483
0.588955
0.548357
0.512123
0.483426
0.465932
0.460994
0.463658
0.475713
0.490424
0.495489
0.0990363
0.101399
0.132878
0.294761
1.11214
1.53738
0.80283
0.902598
1.05638
0.888102
0.818789
0.781983
0.729457
0.679645
0.634457
0.59044
0.550453
0.514294
0.485139
0.466866
0.460985
0.463166
0.474065
0.487593
0.491808
0.0978674
0.0991253
0.126075
0.270237
0.99609
1.59443
0.822115
0.88969
1.05669
0.900154
0.820177
0.785117
0.731614
0.680924
0.635469
0.592304
0.552622
0.51669
0.48695
0.467661
0.460655
0.461977
0.470978
0.482958
0.486642
0.0967765
0.0960374
0.118619
0.243644
0.864908
1.64761
0.85329
0.874124
1.05314
0.915021
0.823229
0.788598
0.733818
0.68235
0.636619
0.594318
0.554702
0.519249
0.488733
0.468125
0.459593
0.459535
0.465771
0.475319
0.478322
0.0958551
0.0923383
0.111373
0.216458
0.724573
1.68745
0.903976
0.851581
1.0387
0.931376
0.829973
0.792351
0.736153
0.684133
0.637931
0.596364
0.556861
0.52163
0.490396
0.468081
0.457429
0.454877
0.458073
0.463475
0.464493
0.0949614
0.0886839
0.104336
0.189817
0.591378
1.69692
0.977629
0.825519
1.019
0.947117
0.839268
0.796148
0.738993
0.686517
0.639538
0.59842
0.558987
0.523839
0.491913
0.467779
0.454028
0.447846
0.447408
0.446169
0.441097
0.0941356
0.0852298
0.0978997
0.165357
0.477083
1.65238
1.07815
0.801632
0.996115
0.959738
0.850182
0.799138
0.742467
0.689445
0.641777
0.600629
0.561193
0.525881
0.493253
0.467128
0.449815
0.439218
0.432902
0.423035
0.405626
0.101227
0.105938
0.14797
0.351627
1.34322
1.40055
0.776328
0.930911
1.03983
0.870284
0.816979
0.773957
0.724086
0.676649
0.631364
0.586163
0.544162
0.507448
0.479614
0.463079
0.459423
0.4627
0.476036
0.493128
0.500419
0.101055
0.105521
0.146492
0.346004
1.32424
1.41312
0.778462
0.929337
1.04345
0.872059
0.817951
0.775778
0.725502
0.67774
0.632404
0.587269
0.545535
0.50898
0.481052
0.464382
0.46054
0.4638
0.476966
0.493436
0.500098
0.100643
0.104594
0.143297
0.33379
1.27962
1.44089
0.783
0.923735
1.04806
0.875044
0.817907
0.777257
0.726211
0.677981
0.632746
0.587883
0.546626
0.510274
0.482022
0.465044
0.460743
0.463783
0.47657
0.492419
0.498365
0.0999858
0.103208
0.138661
0.316186
1.20744
1.48423
0.790617
0.914272
1.05331
0.880054
0.81816
0.779377
0.727627
0.678675
0.633492
0.588966
0.548367
0.51213
0.483427
0.465928
0.460986
0.463646
0.475696
0.490403
0.495467
0.0990349
0.101396
0.132868
0.294722
1.11195
1.53747
0.802862
0.90257
1.05636
0.888118
0.818803
0.781977
0.729444
0.679637
0.634459
0.590449
0.550463
0.514302
0.485141
0.466863
0.460978
0.463156
0.474048
0.487573
0.491787
0.0978662
0.0991223
0.126066
0.270203
0.995911
1.5945
0.82215
0.889666
1.05667
0.900187
0.820191
0.785115
0.7316
0.680911
0.635465
0.592308
0.552631
0.516697
0.486953
0.467659
0.460648
0.461967
0.470964
0.48294
0.486623
0.0967757
0.0960338
0.118612
0.243613
0.864748
1.64766
0.853337
0.874096
1.05312
0.915043
0.823253
0.788608
0.733813
0.682338
0.636611
0.59432
0.554709
0.519256
0.488737
0.468124
0.459587
0.459527
0.465758
0.475304
0.478305
0.0958543
0.092335
0.111366
0.216433
0.724434
1.68747
0.904041
0.851547
1.03868
0.931381
0.830014
0.792375
0.736159
0.684127
0.637923
0.596363
0.556866
0.521637
0.4904
0.468081
0.457424
0.454869
0.458062
0.463462
0.464482
0.0949608
0.0886811
0.10433
0.189795
0.591266
1.69692
0.977708
0.825486
1.01898
0.947131
0.839291
0.79618
0.739007
0.686516
0.639532
0.598421
0.558992
0.523845
0.491917
0.46778
0.454025
0.44784
0.447398
0.446159
0.441088
0.0941351
0.0852275
0.0978954
0.165341
0.477011
1.65232
1.07825
0.801604
0.996093
0.959752
0.850207
0.799167
0.742483
0.689447
0.641774
0.600631
0.561199
0.525888
0.493259
0.467129
0.449813
0.439213
0.432895
0.423026
0.40562
0.101228
0.105939
0.147975
0.351645
1.34328
1.4005
0.77632
0.930916
1.03982
0.870272
0.816972
0.773947
0.724077
0.676642
0.631357
0.586158
0.544158
0.507446
0.479614
0.463081
0.459428
0.462707
0.476047
0.493139
0.500431
0.101056
0.105522
0.146496
0.346021
1.32431
1.41308
0.778457
0.92934
1.04344
0.872052
0.817946
0.775768
0.725494
0.677732
0.632398
0.587264
0.545532
0.508979
0.481052
0.464385
0.460545
0.463807
0.476977
0.493447
0.50011
0.100643
0.104595
0.1433
0.333805
1.27969
1.44085
0.782991
0.923738
1.04804
0.875036
0.817902
0.777248
0.726202
0.677973
0.63274
0.587879
0.546623
0.510272
0.482022
0.465047
0.460748
0.46379
0.47658
0.49243
0.498377
0.0999863
0.103209
0.138665
0.316201
1.20751
1.48419
0.790605
0.914276
1.0533
0.880044
0.818155
0.779368
0.727619
0.678667
0.633486
0.588962
0.548364
0.512128
0.483427
0.465931
0.460991
0.463653
0.475706
0.490414
0.495478
0.0990355
0.101397
0.132872
0.294737
1.11202
1.53744
0.802848
0.902573
1.05635
0.888108
0.818797
0.781968
0.729436
0.679629
0.634454
0.590445
0.55046
0.5143
0.485141
0.466866
0.460983
0.463162
0.474059
0.487585
0.491799
0.0978666
0.0991234
0.126069
0.270215
0.995976
1.59447
0.822136
0.889669
1.05666
0.900176
0.820185
0.785106
0.731592
0.680903
0.635459
0.592305
0.552628
0.516697
0.486953
0.467662
0.460653
0.461974
0.470973
0.482951
0.486635
0.0967759
0.0960351
0.118615
0.243624
0.864807
1.64764
0.853318
0.8741
1.05311
0.915032
0.823247
0.788599
0.733805
0.682331
0.636606
0.594316
0.554707
0.519256
0.488738
0.468127
0.459592
0.459533
0.465767
0.475314
0.478317
0.0958546
0.0923361
0.111369
0.216442
0.724485
1.68746
0.904016
0.851553
1.03867
0.931371
0.830007
0.792367
0.736151
0.68412
0.637918
0.59636
0.556864
0.521637
0.490401
0.468084
0.457429
0.454875
0.45807
0.463471
0.46449
0.094961
0.088682
0.104332
0.189803
0.591308
1.69693
0.977679
0.825492
1.01897
0.947122
0.839284
0.796171
0.739
0.68651
0.639527
0.598417
0.558991
0.523846
0.491919
0.467783
0.454029
0.447845
0.447406
0.446166
0.441094
0.0941352
0.0852282
0.0978968
0.165347
0.477038
1.65235
1.07822
0.801609
0.996092
0.959743
0.8502
0.799159
0.742475
0.689441
0.64177
0.600628
0.561197
0.525888
0.49326
0.467132
0.449817
0.439218
0.432901
0.423033
0.405625
0.101228
0.105941
0.147982
0.351678
1.34341
1.40043
0.776299
0.930925
1.03982
0.870281
0.816977
0.773947
0.724072
0.67663
0.631344
0.586147
0.544153
0.507445
0.479615
0.463084
0.459432
0.462713
0.476056
0.493152
0.500446
0.101056
0.105524
0.146503
0.346053
1.32444
1.413
0.778435
0.929353
1.04344
0.872058
0.81795
0.775771
0.725491
0.677724
0.632386
0.587254
0.545526
0.508977
0.481053
0.464388
0.460549
0.463813
0.476985
0.493459
0.500124
0.100644
0.104597
0.143307
0.333834
1.27981
1.44079
0.782972
0.923754
1.04805
0.875037
0.817905
0.777257
0.726207
0.67797
0.632732
0.58787
0.546616
0.510269
0.482022
0.465049
0.460751
0.463795
0.476588
0.492441
0.498389
0.099987
0.103211
0.138672
0.316229
1.20764
1.48413
0.790586
0.914297
1.05332
0.880039
0.818158
0.779383
0.727636
0.678674
0.633483
0.588955
0.548357
0.512123
0.483426
0.465932
0.460994
0.463658
0.475714
0.490424
0.495489
0.0990363
0.101399
0.132878
0.294762
1.11215
1.53738
0.80283
0.902598
1.05638
0.888102
0.818789
0.781983
0.729457
0.679644
0.634457
0.59044
0.550453
0.514294
0.485139
0.466866
0.460985
0.463166
0.474065
0.487593
0.491808
0.0978674
0.0991253
0.126075
0.270237
0.996091
1.59443
0.822115
0.88969
1.05669
0.900154
0.820177
0.785117
0.731614
0.680924
0.635469
0.592304
0.552622
0.51669
0.48695
0.467661
0.460655
0.461977
0.470979
0.482958
0.486642
0.0967765
0.0960375
0.118619
0.243644
0.864909
1.64761
0.85329
0.874124
1.05314
0.915021
0.823229
0.788598
0.733818
0.68235
0.636619
0.594318
0.554702
0.519249
0.488733
0.468125
0.459593
0.459535
0.465771
0.475319
0.478322
0.0958551
0.0923383
0.111373
0.216459
0.724573
1.68745
0.903976
0.851581
1.0387
0.931376
0.829973
0.792351
0.736153
0.684133
0.63793
0.596364
0.556861
0.52163
0.490396
0.468081
0.457429
0.454877
0.458073
0.463475
0.464494
0.0949614
0.088684
0.104336
0.189817
0.591378
1.69692
0.977629
0.82552
1.019
0.947117
0.839268
0.796148
0.738993
0.686516
0.639538
0.59842
0.558987
0.523839
0.491913
0.467779
0.454028
0.447847
0.447408
0.44617
0.441097
0.0941356
0.0852298
0.0978997
0.165357
0.477083
1.65238
1.07815
0.801632
0.996115
0.959738
0.850182
0.799138
0.742467
0.689445
0.641777
0.600629
0.561193
0.525881
0.493253
0.467128
0.449815
0.439218
0.432902
0.423035
0.405627
0.101228
0.10594
0.14798
0.351669
1.34338
1.40045
0.776295
0.930915
1.03982
0.870306
0.816986
0.773953
0.724075
0.676635
0.631349
0.586152
0.544158
0.507448
0.479611
0.463072
0.459413
0.46269
0.476028
0.493129
0.500427
0.101056
0.105523
0.146501
0.346045
1.32441
1.41302
0.778427
0.929349
1.04346
0.872069
0.817953
0.775773
0.725493
0.677728
0.632391
0.58726
0.54553
0.508979
0.481048
0.464376
0.460531
0.46379
0.476958
0.493437
0.500107
0.100644
0.104597
0.143305
0.333827
1.27979
1.4408
0.782972
0.923747
1.04808
0.875043
0.817902
0.777255
0.726207
0.677969
0.632735
0.587873
0.546619
0.51027
0.482017
0.465037
0.460734
0.463774
0.476562
0.49242
0.498374
0.0999868
0.103211
0.13867
0.316223
1.20762
1.48414
0.790589
0.914293
1.05333
0.880039
0.818156
0.779386
0.727639
0.678674
0.633483
0.588956
0.548357
0.512121
0.48342
0.465921
0.460978
0.463638
0.47569
0.490406
0.495477
0.099036
0.101399
0.132876
0.294757
1.11212
1.5374
0.802832
0.902594
1.05635
0.888116
0.818795
0.781991
0.729469
0.679644
0.634457
0.590441
0.55045
0.51429
0.485133
0.466854
0.46097
0.463148
0.474044
0.487578
0.491799
0.0978671
0.0991248
0.126074
0.270233
0.996075
1.59446
0.822112
0.889691
1.05667
0.900173
0.820193
0.785138
0.731624
0.680926
0.635466
0.592305
0.552613
0.516687
0.486942
0.467649
0.46064
0.461961
0.470962
0.482947
0.486638
0.0967764
0.0960371
0.118619
0.243642
0.864903
1.64764
0.853288
0.874129
1.05312
0.915037
0.823249
0.788621
0.733828
0.682353
0.636613
0.594311
0.554691
0.519243
0.488726
0.468114
0.45958
0.459523
0.465759
0.475312
0.478323
0.0958551
0.0923383
0.111373
0.21646
0.724582
1.68748
0.903978
0.851586
1.0387
0.931384
0.829977
0.792362
0.736156
0.684132
0.637931
0.596362
0.556855
0.521624
0.490387
0.46807
0.457418
0.454867
0.458064
0.46347
0.4645
0.0949615
0.0886843
0.104337
0.18982
0.591399
1.69695
0.977631
0.825522
1.01901
0.947119
0.839259
0.796154
0.738988
0.686509
0.639537
0.598418
0.558984
0.523833
0.491904
0.467768
0.454017
0.447837
0.4474
0.446167
0.441107
0.0941357
0.0852303
0.0979007
0.165361
0.477104
1.65241
1.07815
0.801631
0.996128
0.959749
0.850164
0.79914
0.742456
0.689434
0.641775
0.600627
0.56119
0.525877
0.493244
0.467117
0.449805
0.43921
0.432896
0.423033
0.405636
0.101229
0.105943
0.147989
0.3517
1.34346
1.40036
0.776262
0.931018
1.0399
0.870174
0.81699
0.773977
0.724086
0.676625
0.631327
0.586129
0.544143
0.507435
0.479602
0.463068
0.459417
0.462696
0.47604
0.493155
0.50046
0.101057
0.105525
0.146506
0.346057
1.32441
1.413
0.778496
0.929348
1.04338
0.872142
0.817974
0.775788
0.725522
0.67773
0.632372
0.587236
0.545515
0.508966
0.481039
0.464371
0.460533
0.463796
0.47697
0.493462
0.50014
0.100645
0.104599
0.143312
0.333847
1.27983
1.44077
0.782944
0.923805
1.04809
0.875016
0.817922
0.777257
0.726222
0.677986
0.632722
0.587852
0.546604
0.510256
0.482006
0.465031
0.460735
0.463778
0.476573
0.492444
0.498406
0.0999887
0.103214
0.138681
0.316258
1.20775
1.48406
0.79056
0.914362
1.0534
0.879995
0.818144
0.779372
0.727622
0.678685
0.633477
0.588941
0.548341
0.512106
0.483408
0.465914
0.460977
0.463641
0.475698
0.490429
0.495509
0.0990384
0.101403
0.132888
0.294796
1.11229
1.53727
0.802818
0.902633
1.05644
0.888084
0.818759
0.781979
0.729443
0.67965
0.634452
0.590428
0.550439
0.514276
0.485119
0.466846
0.460968
0.463149
0.47405
0.487598
0.491831
0.0978693
0.0991292
0.126085
0.27027
0.996235
1.59431
0.822106
0.889713
1.0567
0.900128
0.820161
0.785108
0.731601
0.680917
0.635461
0.592288
0.552612
0.516669
0.486929
0.467641
0.460636
0.46196
0.470965
0.482965
0.486668
0.0967779
0.0960425
0.118629
0.243677
0.86506
1.64751
0.853258
0.874149
1.05314
0.914979
0.823223
0.788575
0.733801
0.682337
0.636611
0.594307
0.554692
0.519228
0.488712
0.468104
0.459574
0.459519
0.46576
0.475327
0.478352
0.0958563
0.092343
0.111382
0.21649
0.724724
1.68739
0.903905
0.851611
1.03871
0.931329
0.829952
0.792321
0.736134
0.684114
0.63792
0.596353
0.55685
0.521611
0.490375
0.468061
0.45741
0.454864
0.458064
0.463483
0.464528
0.0949624
0.0886881
0.104344
0.189847
0.591518
1.69689
0.977523
0.825548
1.01899
0.947063
0.839236
0.796119
0.738971
0.686495
0.639526
0.598409
0.558975
0.523821
0.491894
0.46776
0.45401
0.447835
0.447401
0.446178
0.441131
0.0941363
0.0852333
0.0979061
0.165382
0.477188
1.65246
1.07801
0.801655
0.996114
0.959671
0.85015
0.799111
0.742443
0.689425
0.641764
0.600616
0.56118
0.525865
0.493237
0.467111
0.449799
0.439207
0.432897
0.423042
0.405656
0.101226
0.105937
0.147972
0.351651
1.34339
1.40052
0.776316
0.930916
1.03993
0.870311
0.816962
0.773968
0.724108
0.676677
0.631388
0.586184
0.544185
0.507464
0.47962
0.463076
0.459413
0.462683
0.476006
0.493109
0.500408
0.101054
0.10552
0.146493
0.346027
1.32443
1.4131
0.778433
0.929351
1.0435
0.872073
0.817945
0.775804
0.72554
0.677765
0.632423
0.587291
0.545559
0.508999
0.481059
0.46438
0.460531
0.463783
0.476937
0.493421
0.500091
0.100641
0.104593
0.143296
0.333803
1.27976
1.44092
0.782993
0.923723
1.04803
0.875139
0.817932
0.777315
0.726257
0.678004
0.632766
0.587905
0.546652
0.510292
0.48203
0.465042
0.460734
0.463767
0.476542
0.492406
0.49836
0.0999845
0.103207
0.13866
0.316195
1.20756
1.48428
0.790606
0.914283
1.05336
0.880102
0.81819
0.779434
0.727668
0.678691
0.633515
0.58899
0.54839
0.512143
0.483434
0.465927
0.460977
0.463631
0.47567
0.490397
0.495473
0.0990339
0.101395
0.132868
0.294732
1.11207
1.53753
0.802863
0.902595
1.05648
0.888114
0.818812
0.78201
0.729479
0.679668
0.634489
0.590471
0.550479
0.514313
0.485148
0.466859
0.460968
0.463141
0.474027
0.487575
0.491806
0.0978653
0.0991214
0.126066
0.270213
0.996022
1.59455
0.822169
0.889676
1.05678
0.900172
0.820172
0.785129
0.731631
0.680949
0.635509
0.592329
0.552652
0.516704
0.486957
0.467655
0.460638
0.461955
0.470949
0.482949
0.486655
0.0967749
0.0960329
0.118612
0.243621
0.864834
1.64771
0.853367
0.874085
1.05319
0.915059
0.823236
0.788619
0.733839
0.682374
0.636646
0.594336
0.554722
0.519259
0.488736
0.468118
0.459577
0.459517
0.465749
0.475318
0.478352
0.0958537
0.092334
0.111366
0.216437
0.724493
1.68754
0.904081
0.851528
1.03869
0.931436
0.830042
0.792409
0.736196
0.684168
0.637956
0.596383
0.556873
0.521636
0.490395
0.468074
0.457415
0.454862
0.458058
0.463478
0.464539
0.0949602
0.0886802
0.10433
0.189797
0.591308
1.697
0.977753
0.825472
1.01898
0.947199
0.83934
0.796211
0.739042
0.686552
0.639559
0.598436
0.559
0.523841
0.49191
0.467771
0.454015
0.447835
0.447399
0.44618
0.441151
0.0941346
0.0852267
0.0978944
0.165341
0.477027
1.6524
1.07831
0.80159
0.996103
0.959819
0.850244
0.799198
0.742515
0.689473
0.641797
0.600647
0.5612
0.525881
0.493248
0.467117
0.449803
0.439209
0.432898
0.423049
0.405678
0.0934078
0.082007
0.0921197
0.144511
0.388493
1.50213
1.19853
0.789266
0.967069
0.972279
0.861023
0.802639
0.746777
0.693198
0.644859
0.602988
0.563783
0.527527
0.494732
0.466099
0.444927
0.428994
0.414115
0.386678
0.323437
0.0928197
0.0789883
0.086879
0.126981
0.317596
1.27123
1.33667
0.789769
0.933967
0.984058
0.874623
0.806168
0.751311
0.697814
0.64901
0.605689
0.566653
0.529489
0.496318
0.465369
0.440014
0.41847
0.395383
0.359113
0.292727
0.0923558
0.0761422
0.0822782
0.112474
0.257358
0.990122
1.48082
0.803885
0.905113
0.990477
0.891257
0.809695
0.756412
0.703514
0.654106
0.608998
0.569996
0.532132
0.49823
0.46539
0.436393
0.410208
0.382238
0.344157
0.292435
0.0919445
0.0736456
0.078382
0.100993
0.206631
0.709568
1.5927
0.851493
0.885517
0.98282
0.904249
0.814755
0.763352
0.710479
0.66002
0.613481
0.573833
0.535541
0.500356
0.466041
0.435222
0.405748
0.375693
0.340515
0.294706
0.0915868
0.0714754
0.0751064
0.0920484
0.168401
0.513985
1.61816
0.947693
0.858901
0.95981
0.910102
0.824913
0.772393
0.718667
0.667159
0.620183
0.578027
0.539698
0.502981
0.468161
0.435842
0.405784
0.375611
0.341463
0.30064
0.0912822
0.069604
0.0723451
0.0848563
0.13882
0.392303
1.54774
1.08143
0.842519
0.937576
0.910563
0.843132
0.783119
0.72702
0.675024
0.627758
0.582954
0.544634
0.507333
0.472717
0.438234
0.407104
0.37695
0.344877
0.31251
0.0910243
0.0680402
0.0700764
0.0790809
0.115307
0.286913
1.20577
1.2189
0.851592
0.912255
0.913138
0.862816
0.792426
0.735466
0.684426
0.636079
0.590426
0.550069
0.513105
0.477598
0.443772
0.411266
0.381451
0.352677
0.325872
0.0908088
0.0667373
0.0682691
0.074863
0.0997232
0.209308
0.723013
1.33716
0.877038
0.899791
0.916749
0.877112
0.79857
0.744147
0.694579
0.645063
0.599611
0.556683
0.520158
0.484543
0.452305
0.420125
0.391267
0.365397
0.340075
0.0906354
0.0656388
0.0667812
0.0716402
0.0893648
0.163062
0.481153
1.35065
0.943588
0.896428
0.915181
0.882738
0.808619
0.755396
0.705139
0.655231
0.609257
0.565705
0.527886
0.492832
0.460364
0.430481
0.402693
0.377498
0.353238
0.0904999
0.0647494
0.0655633
0.0690181
0.0813336
0.130487
0.356853
1.28609
1.06038
0.892497
0.899982
0.879428
0.823073
0.76712
0.715484
0.666033
0.619611
0.577209
0.536628
0.502333
0.469737
0.440577
0.413575
0.389009
0.365977
0.0904026
0.0640633
0.0646303
0.0670167
0.0751524
0.105156
0.246356
1.02858
1.1303
0.907891
0.892602
0.875108
0.833305
0.777299
0.725592
0.677453
0.631425
0.58904
0.54827
0.51232
0.480343
0.451104
0.424834
0.401194
0.3794
0.0903488
0.0635352
0.0639314
0.065618
0.0711331
0.0899199
0.167162
0.515673
1.14309
0.939136
0.895245
0.876373
0.841987
0.784058
0.735729
0.690268
0.644628
0.601621
0.561937
0.523947
0.492055
0.462869
0.437059
0.413996
0.393465
0.0903475
0.0631475
0.0634092
0.06457
0.0683352
0.0806571
0.127502
0.333672
1.07382
0.995951
0.906252
0.88118
0.846171
0.791185
0.746996
0.703738
0.65849
0.615451
0.576037
0.53853
0.50431
0.475682
0.450173
0.427747
0.40782
0.0903957
0.0628904
0.0630499
0.0638098
0.0662515
0.0739992
0.10164
0.226999
0.868716
1.01466
0.938027
0.888664
0.850432
0.800969
0.759202
0.718687
0.674955
0.631094
0.590805
0.553768
0.518938
0.489212
0.464072
0.442073
0.422866
0.0904706
0.0627436
0.0628449
0.0633435
0.0648956
0.0695904
0.0852082
0.14823
0.434185
0.998322
0.950628
0.896963
0.855742
0.812456
0.77038
0.734865
0.689817
0.646669
0.606791
0.569505
0.535124
0.504001
0.478709
0.457258
0.438628
0.0905139
0.0627759
0.0626882
0.0629277
0.0638492
0.0667121
0.0758303
0.108937
0.257059
0.854721
0.948049
0.914952
0.865997
0.826784
0.784542
0.748541
0.705032
0.663105
0.623218
0.586236
0.552178
0.521495
0.494604
0.473538
0.455494
0.090521
0.0628835
0.0624593
0.0626039
0.0631524
0.0648555
0.0700361
0.0874685
0.159418
0.484463
0.929502
0.91844
0.887825
0.843001
0.799158
0.758796
0.722023
0.68103
0.640591
0.603394
0.569596
0.539905
0.513536
0.491187
0.473886
0.090519
0.0629622
0.0623016
0.0623821
0.0626995
0.0636832
0.0666038
0.0758149
0.109417
0.259519
0.788021
0.912418
0.897474
0.862737
0.81575
0.772391
0.735647
0.697635
0.659119
0.621789
0.588143
0.558483
0.533497
0.511572
0.49309
0.090515
0.0630094
0.0622019
0.0622451
0.0624197
0.0629624
0.0645744
0.0694154
0.0856596
0.151773
0.426191
0.871141
0.89538
0.875578
0.833136
0.788428
0.748181
0.715275
0.677824
0.641602
0.608365
0.579006
0.554377
0.533266
0.515267
0.0905114
0.0630344
0.0621431
0.062164
0.0622538
0.0625421
0.0633933
0.0658957
0.0737131
0.10165
0.22378
0.670861
0.876867
0.873416
0.851396
0.805766
0.764388
0.729231
0.696304
0.661547
0.628575
0.600278
0.576776
0.556726
0.540048
0.0905108
0.0630435
0.0621101
0.0621196
0.0621645
0.0623089
0.0627397
0.064
0.0677707
0.0802599
0.129639
0.332127
0.778056
0.862936
0.852123
0.825855
0.783492
0.745145
0.715154
0.681951
0.650357
0.622746
0.600675
0.583082
0.566031
0.0905118
0.06304
0.0621026
0.0620995
0.0621151
0.0621779
0.0623819
0.0629883
0.0647982
0.0703717
0.0896023
0.170093
0.473814
0.813922
0.844955
0.831688
0.804113
0.764743
0.730824
0.704222
0.674269
0.647457
0.6263
0.610386
0.59607
0.0905125
0.0630356
0.0621094
0.0620789
0.062085
0.0621121
0.062202
0.0624815
0.0633098
0.0657872
0.0737161
0.102862
0.224922
0.614302
0.812812
0.825848
0.812851
0.786399
0.752033
0.726843
0.69945
0.674862
0.655131
0.641152
0.628959
0.0905126
0.0630342
0.0621125
0.0620696
0.0620718
0.0620822
0.0621194
0.062239
0.0625977
0.0636779
0.0669592
0.0779955
0.121356
0.29013
0.682581
0.803056
0.808576
0.796773
0.773947
0.746828
0.729342
0.705411
0.687575
0.676571
0.667278
0.0905126
0.0630343
0.0621122
0.0620685
0.0620659
0.0620688
0.0620821
0.0621296
0.0622776
0.0627223
0.0640718
0.0682723
0.0828382
0.141065
0.346768
0.706886
0.789999
0.793271
0.784182
0.767178
0.753096
0.738383
0.722802
0.715696
0.710841
0.0905126
0.0630344
0.0621119
0.0620693
0.0620626
0.0620636
0.0620685
0.0620867
0.0621445
0.0623199
0.0628445
0.0644462
0.0695299
0.0874462
0.15857
0.400497
0.708133
0.775701
0.781138
0.775441
0.768345
0.765272
0.759265
0.758131
0.757168
0.0905126
0.0630344
0.0621118
0.0620695
0.0620621
0.0620625
0.0620646
0.0620732
0.0620983
0.0621689
0.0623683
0.0629648
0.0647641
0.07055
0.0912971
0.171816
0.426316
0.694857
0.762622
0.772592
0.772074
0.776709
0.792237
0.802183
0.806232
0.0905126
0.0630344
0.0621118
0.0620695
0.0620621
0.0620624
0.0620643
0.0620715
0.0620901
0.0621295
0.0622216
0.0624583
0.0631005
0.0650052
0.0711432
0.0932356
0.174908
0.416784
0.675443
0.751319
0.765708
0.776973
0.805682
0.828024
0.845244
0.0905126
0.0630344
0.0621118
0.0620695
0.0620621
0.0620624
0.0620642
0.0620714
0.0620897
0.0621266
0.062203
0.0623399
0.0626164
0.0632822
0.0651791
0.0711854
0.0922033
0.165373
0.381571
0.650572
0.730729
0.767339
0.804861
0.832214
0.856414
0.0905126
0.0630344
0.0621118
0.0620695
0.0620621
0.0620624
0.0620642
0.0620714
0.0620896
0.0621262
0.062201
0.0623461
0.0625437
0.0629246
0.0636586
0.0654607
0.0708993
0.0886728
0.147591
0.326071
0.591688
0.707346
0.77985
0.819628
0.852205
0.0905126
0.0630344
0.0621118
0.0620695
0.0620621
0.0620624
0.0620642
0.0620714
0.0620896
0.0621262
0.0622007
0.0623467