/*--------------------------------*- C++ -*----------------------------------*\
| =========                 |                                                 |
| \\      /  F ield         | OpenFOAM: The Open Source CFD Toolbox           |
|  \\    /   O peration     | Version:  4.1                                   |
|   \\  /    A nd           | Web:      www.OpenFOAM.org                      |
|    \\/     M anipulation  |                                                 |
\*---------------------------------------------------------------------------*/
FoamFile
{
    version     2.0;
    format      ascii;
    class       volScalarField;
    location    "0.62";
    object      T;
}
// * * * * * * * * * * * * * * * * * * * * * * * * * * * * * * * * * * * * * //

dimensions      [0 0 0 1 0 0 0];

internalField   nonuniform List<scalar> 
52500
(
0.389123
0.401957
0.514307
0.938935
1.47216
1.50793
1.3067
1.40545
1.42241
1.26785
1.13565
1.09838
1.09878
1.1324
1.16512
1.15508
1.11441
1.07049
1.05437
1.05198
1.04752
1.04249
1.0417
1.03479
0.988058
0.388706
0.400893
0.511157
0.931226
1.46846
1.51163
1.3072
1.40418
1.424
1.26881
1.13562
1.09796
1.09768
1.12998
1.16398
1.15491
1.1153
1.07068
1.05405
1.05161
1.0471
1.04212
1.04112
1.03375
0.986108
0.387544
0.398516
0.504207
0.913902
1.45452
1.51773
1.31059
1.40256
1.42798
1.27512
1.13739
1.09699
1.09496
1.12456
1.16181
1.1549
1.11758
1.07165
1.05409
1.05165
1.04721
1.04225
1.04085
1.03323
0.984556
0.385533
0.395128
0.494048
0.886965
1.43019
1.52564
1.31362
1.39779
1.43255
1.2865
1.14214
1.09668
1.09246
1.1192
1.15936
1.155
1.12101
1.07336
1.05442
1.0519
1.04749
1.04268
1.04106
1.03301
0.983597
0.382255
0.391055
0.481234
0.851421
1.3959
1.5355
1.31953
1.39053
1.43554
1.29908
1.14811
1.09577
1.08798
1.10997
1.15479
1.15407
1.12488
1.07549
1.05479
1.05192
1.04761
1.04284
1.0406
1.0331
0.981675
0.377747
0.386332
0.466006
0.807059
1.34991
1.5459
1.32883
1.38257
1.43757
1.31553
1.15662
1.09486
1.08253
1.09974
1.14833
1.1524
1.12873
1.07805
1.05509
1.05157
1.04738
1.0428
1.03986
1.0316
0.978754
0.372581
0.380584
0.448783
0.75482
1.29184
1.55405
1.34325
1.37426
1.43798
1.33097
1.16997
1.09482
1.07628
1.08795
1.13787
1.14933
1.13167
1.08141
1.05532
1.05063
1.04653
1.04208
1.03795
1.02843
0.973948
0.3675
0.374078
0.431331
0.697256
1.22284
1.55677
1.36478
1.36168
1.43424
1.34753
1.18914
1.09633
1.06997
1.07585
1.12449
1.14535
1.13348
1.08561
1.05484
1.04858
1.04471
1.04
1.03404
1.02317
0.965875
0.362553
0.367704
0.414079
0.635829
1.15208
1.54998
1.39123
1.34697
1.42753
1.3613
1.21396
1.09963
1.0638
1.06451
1.10719
1.1394
1.13305
1.09108
1.05479
1.04673
1.04052
1.03503
1.02829
1.0141
0.948166
0.35798
0.361712
0.398105
0.577411
1.07556
1.53334
1.41966
1.33308
1.4188
1.37202
1.24274
1.10564
1.05754
1.05325
1.08793
1.13038
1.13025
1.09877
1.05522
1.0415
1.03574
1.0288
1.01855
0.999464
0.926353
0.389132
0.401977
0.514355
0.939036
1.47226
1.50792
1.30669
1.40554
1.42242
1.26772
1.1357
1.09843
1.09881
1.13237
1.16509
1.15504
1.11438
1.07047
1.05436
1.05197
1.04751
1.04247
1.0417
1.0348
0.988133
0.388712
0.400907
0.51119
0.931291
1.46835
1.51145
1.30716
1.40417
1.42423
1.26948
1.13592
1.09796
1.0976
1.12976
1.1639
1.15488
1.11529
1.07066
1.05403
1.0516
1.0471
1.04211
1.04112
1.03376
0.98617
0.387554
0.398532
0.504243
0.91398
1.45452
1.51761
1.31046
1.40258
1.42812
1.27536
1.13756
1.09716
1.09516
1.12483
1.16188
1.15489
1.11752
1.07162
1.05408
1.05165
1.04721
1.04224
1.04085
1.03324
0.984609
0.385547
0.395146
0.494097
0.887085
1.4303
1.52561
1.31355
1.39779
1.43244
1.2863
1.14213
1.09677
1.09261
1.11943
1.15948
1.15501
1.12092
1.07332
1.05441
1.05189
1.04749
1.04267
1.04106
1.03302
0.98364
0.382272
0.391074
0.481286
0.851554
1.39602
1.53542
1.31947
1.39053
1.43547
1.29863
1.14766
1.09575
1.08801
1.1101
1.15479
1.15404
1.12483
1.07547
1.05478
1.05192
1.0476
1.04283
1.0406
1.0331
0.981712
0.377766
0.386352
0.46606
0.807198
1.35003
1.54578
1.32876
1.38253
1.4374
1.31504
1.15662
1.09498
1.08292
1.10029
1.14859
1.15242
1.12862
1.07801
1.05508
1.05156
1.04737
1.04278
1.03984
1.03159
0.978796
0.372598
0.380605
0.448835
0.754969
1.29198
1.55396
1.34315
1.37421
1.43783
1.33052
1.16937
1.095
1.07689
1.08873
1.13852
1.14957
1.13167
1.08133
1.0553
1.05063
1.04652
1.04205
1.03792
1.02841
0.973991
0.367516
0.374098
0.431378
0.697407
1.22298
1.55673
1.36466
1.36168
1.43421
1.34734
1.18842
1.0965
1.07037
1.0763
1.12483
1.14545
1.13347
1.08552
1.05481
1.04858
1.0447
1.03997
1.03398
1.02313
0.965917
0.362567
0.367721
0.414122
0.635974
1.15223
1.54995
1.39113
1.34701
1.42755
1.36126
1.21352
1.09978
1.06389
1.06458
1.10717
1.13936
1.13301
1.09101
1.05477
1.04671
1.04049
1.035
1.02824
1.01406
0.948207
0.357991
0.361726
0.398141
0.577529
1.07572
1.53336
1.41955
1.33314
1.41884
1.37203
1.24251
1.10572
1.05745
1.05308
1.08767
1.13027
1.13018
1.09874
1.0552
1.04148
1.03572
1.02875
1.01848
0.999405
0.926391
0.389129
0.401969
0.514335
0.938996
1.4722
1.50791
1.30667
1.40544
1.42229
1.26758
1.13561
1.0985
1.09895
1.13258
1.16517
1.15507
1.11435
1.07047
1.05436
1.05197
1.04751
1.04247
1.04169
1.03479
0.988113
0.388711
0.400902
0.511181
0.931277
1.46846
1.51157
1.30717
1.40415
1.42396
1.26879
1.13568
1.09807
1.09781
1.1301
1.16401
1.1549
1.11525
1.07066
1.05404
1.0516
1.04709
1.0421
1.04111
1.03374
0.986151
0.38755
0.398525
0.504229
0.913953
1.45453
1.51768
1.31053
1.40253
1.42798
1.27521
1.13746
1.09705
1.09502
1.12461
1.16183
1.1549
1.11755
1.07164
1.05409
1.05165
1.04721
1.04224
1.04084
1.03323
0.98459
0.38554
0.395137
0.494073
0.887028
1.43024
1.52562
1.31358
1.39778
1.43252
1.28655
1.14225
1.09674
1.09256
1.11939
1.15942
1.15502
1.12095
1.07333
1.05441
1.05189
1.04749
1.04267
1.04106
1.03301
0.983621
0.382264
0.391065
0.481261
0.851489
1.39596
1.53547
1.3195
1.39054
1.43559
1.29912
1.14798
1.09573
1.08786
1.1098
1.1547
1.15404
1.12488
1.07549
1.05478
1.05192
1.0476
1.04283
1.04059
1.03309
0.981693
0.377757
0.386342
0.466034
0.807131
1.34997
1.54586
1.32879
1.38255
1.43754
1.31553
1.15705
1.09483
1.08246
1.09968
1.1483
1.15238
1.12871
1.07805
1.05508
1.05156
1.04737
1.04278
1.03984
1.03158
0.978777
0.37259
0.380595
0.448811
0.754899
1.29192
1.55403
1.3432
1.37425
1.43796
1.33088
1.16972
1.0948
1.07638
1.08811
1.13805
1.1494
1.13168
1.08139
1.05531
1.05063
1.04652
1.04206
1.03792
1.0284
0.973973
0.367509
0.37409
0.431357
0.697339
1.22292
1.55676
1.36473
1.36172
1.4343
1.34754
1.18858
1.09632
1.07008
1.07599
1.12465
1.14547
1.13353
1.08559
1.05483
1.04858
1.0447
1.03998
1.03398
1.02313
0.9659
0.362562
0.367714
0.414104
0.635912
1.15216
1.54998
1.39119
1.34704
1.42763
1.36139
1.21354
1.09964
1.06385
1.06456
1.10722
1.13939
1.13305
1.09106
1.05479
1.04672
1.04049
1.035
1.02823
1.01405
0.948189
0.357987
0.361721
0.398128
0.577481
1.07565
1.53336
1.4196
1.33315
1.4189
1.3721
1.24245
1.10566
1.05755
1.05326
1.08794
1.13037
1.13024
1.09876
1.05521
1.04149
1.03572
1.02875
1.01848
0.999399
0.926376
0.389129
0.401971
0.51434
0.939008
1.47222
1.50791
1.30667
1.40545
1.42229
1.26756
1.13561
1.0985
1.09895
1.13259
1.16517
1.15507
1.11434
1.07046
1.05436
1.05198
1.04752
1.04249
1.04171
1.0348
0.988123
0.388711
0.400904
0.511185
0.931287
1.46846
1.51156
1.30717
1.40415
1.42396
1.26881
1.13568
1.09807
1.0978
1.1301
1.16401
1.1549
1.11525
1.07066
1.05404
1.05161
1.04711
1.04212
1.04112
1.03375
0.98616
0.387551
0.398527
0.504233
0.913962
1.45454
1.51767
1.31053
1.40254
1.428
1.27527
1.13751
1.0971
1.09507
1.1247
1.16186
1.1549
1.11753
1.07163
1.05409
1.05166
1.04722
1.04225
1.04086
1.03324
0.984598
0.385541
0.395138
0.494077
0.887036
1.43024
1.52561
1.31356
1.39776
1.43252
1.2866
1.14227
1.09671
1.0925
1.11925
1.15942
1.15502
1.12096
1.07334
1.05441
1.0519
1.0475
1.04268
1.04107
1.03302
0.983628
0.382265
0.391066
0.481264
0.851497
1.39597
1.53547
1.31949
1.39053
1.43555
1.29896
1.14783
1.09569
1.08786
1.10986
1.1547
1.15404
1.12488
1.07549
1.05479
1.05193
1.04761
1.04285
1.04061
1.03309
0.981698
0.377758
0.386343
0.466036
0.807138
1.34998
1.54585
1.3288
1.38256
1.4375
1.31533
1.15683
1.0949
1.08271
1.1
1.14846
1.15241
1.12868
1.07804
1.05509
1.05157
1.04738
1.04279
1.03985
1.03158
0.978779
0.372591
0.380596
0.448812
0.754902
1.29192
1.55402
1.3432
1.37425
1.43793
1.33076
1.16961
1.0949
1.07661
1.08838
1.13832
1.14954
1.13172
1.08137
1.05531
1.05064
1.04653
1.04207
1.03792
1.0284
0.973972
0.367509
0.37409
0.431357
0.697336
1.22291
1.55675
1.36472
1.36171
1.43429
1.3475
1.18862
1.0964
1.0701
1.07599
1.1246
1.14543
1.1335
1.08558
1.05483
1.04859
1.04471
1.03998
1.03399
1.02313
0.965896
0.362562
0.367714
0.414103
0.635903
1.15215
1.54996
1.39118
1.34703
1.42761
1.3614
1.21367
1.09968
1.06371
1.06438
1.10699
1.13932
1.13302
1.09107
1.05479
1.04673
1.0405
1.03501
1.02824
1.01405
0.948181
0.357987
0.36172
0.398125
0.577471
1.07563
1.53334
1.4196
1.33315
1.4189
1.37213
1.24262
1.10566
1.05738
1.05301
1.08762
1.13028
1.13021
1.09879
1.05522
1.04149
1.03573
1.02876
1.01849
0.999399
0.92637
0.389127
0.401963
0.514313
0.938938
1.47215
1.50792
1.30668
1.40544
1.42231
1.26759
1.13562
1.0985
1.09895
1.13257
1.16516
1.15506
1.11435
1.07046
1.05436
1.05197
1.04751
1.04247
1.04169
1.03479
0.988104
0.388709
0.400897
0.51116
0.931218
1.4684
1.51157
1.30717
1.40414
1.42397
1.26882
1.13569
1.09807
1.0978
1.13009
1.164
1.1549
1.11526
1.07066
1.05403
1.05161
1.0471
1.04211
1.04111
1.03374
0.986146
0.387548
0.39852
0.50421
0.913897
1.45448
1.51769
1.31053
1.40253
1.428
1.27528
1.13752
1.0971
1.09508
1.12469
1.16184
1.1549
1.11754
1.07163
1.05408
1.05165
1.04721
1.04224
1.04084
1.03322
0.984586
0.385537
0.395132
0.494054
0.886968
1.43017
1.52562
1.31356
1.39775
1.43253
1.2866
1.14223
1.09671
1.09249
1.11923
1.15941
1.15501
1.12096
1.07334
1.05441
1.05189
1.04748
1.04266
1.04105
1.033
0.983623
0.38226
0.39106
0.481242
0.851431
1.39589
1.53547
1.31949
1.3905
1.43552
1.29898
1.14807
1.0957
1.08786
1.10986
1.1547
1.15403
1.12488
1.07549
1.05478
1.05192
1.0476
1.04282
1.04059
1.03308
0.981693
0.377753
0.386338
0.466016
0.807075
1.3499
1.54587
1.32881
1.38256
1.43753
1.31534
1.15638
1.09488
1.0827
1.09999
1.14844
1.1524
1.12867
1.07804
1.05508
1.05156
1.04737
1.04278
1.03984
1.03158
0.978756
0.372586
0.38059
0.448794
0.75484
1.29184
1.55402
1.34322
1.37425
1.43794
1.33082
1.16976
1.09491
1.0766
1.08836
1.13831
1.14955
1.13171
1.08136
1.05531
1.05064
1.04652
1.04206
1.03794
1.0284
0.973933
0.367505
0.374084
0.431341
0.697277
1.22284
1.55674
1.36474
1.36167
1.43421
1.34748
1.18913
1.09643
1.0701
1.07598
1.12458
1.1454
1.13348
1.08557
1.05483
1.0486
1.04471
1.03999
1.03402
1.02314
0.965846
0.362558
0.367709
0.414089
0.635851
1.15209
1.54995
1.39119
1.34698
1.4275
1.3613
1.21409
1.09972
1.06371
1.06437
1.10697
1.13932
1.13302
1.09107
1.0548
1.04673
1.04052
1.03504
1.02829
1.01407
0.948114
0.357984
0.361716
0.398114
0.577432
1.07558
1.53332
1.41962
1.33311
1.41879
1.37204
1.24293
1.10569
1.05739
1.05301
1.0876
1.13026
1.13019
1.09878
1.05522
1.0415
1.03574
1.02881
1.01855
0.999434
0.926301
0.389128
0.401966
0.514323
0.938963
1.47217
1.50791
1.30668
1.40544
1.42228
1.26755
1.1356
1.0985
1.09895
1.1326
1.16518
1.15507
1.11434
1.07046
1.05436
1.05198
1.04752
1.04248
1.0417
1.03479
0.988114
0.38871
0.400899
0.511169
0.931242
1.46842
1.51157
1.30717
1.40414
1.42396
1.2688
1.13568
1.09807
1.0978
1.13011
1.16402
1.15491
1.11525
1.07066
1.05404
1.05161
1.0471
1.04211
1.04112
1.03375
0.986152
0.387549
0.398522
0.504218
0.913919
1.4545
1.51768
1.31053
1.40253
1.42799
1.27527
1.1375
1.09709
1.09507
1.1247
1.16186
1.15491
1.11753
1.07163
1.05409
1.05166
1.04722
1.04225
1.04085
1.03323
0.984591
0.385539
0.395135
0.494062
0.886993
1.43019
1.52561
1.31355
1.39775
1.43252
1.28658
1.14221
1.0967
1.09249
1.11925
1.15942
1.15502
1.12096
1.07334
1.05441
1.0519
1.0475
1.04268
1.04107
1.03301
0.983621
0.382262
0.391062
0.48125
0.851455
1.39592
1.53547
1.31948
1.3905
1.43551
1.29896
1.14806
1.09569
1.08786
1.10986
1.1547
1.15404
1.12489
1.07549
1.05479
1.05193
1.04761
1.04284
1.0406
1.03309
0.981692
0.377754
0.38634
0.466024
0.807098
1.34993
1.54586
1.3288
1.38256
1.43751
1.31532
1.15637
1.09487
1.0827
1.09999
1.14845
1.15241
1.12869
1.07805
1.05509
1.05157
1.04738
1.04279
1.03984
1.03158
0.978775
0.372588
0.380592
0.4488
0.754863
1.29187
1.55402
1.34322
1.37425
1.43793
1.3308
1.16974
1.0949
1.0766
1.08836
1.13831
1.14954
1.13172
1.08137
1.05531
1.05064
1.04653
1.04206
1.03792
1.0284
0.973969
0.367506
0.374086
0.431347
0.697298
1.22287
1.55675
1.36473
1.36167
1.4342
1.34746
1.1891
1.09642
1.07009
1.07597
1.12459
1.14541
1.1335
1.08558
1.05483
1.04859
1.04471
1.03998
1.03398
1.02313
0.965894
0.362559
0.36771
0.414094
0.63587
1.15211
1.54996
1.39119
1.34698
1.4275
1.36128
1.21407
1.09971
1.0637
1.06436
1.10697
1.13933
1.13303
1.09108
1.05479
1.04673
1.0405
1.03501
1.02824
1.01405
0.94818
0.357985
0.361718
0.398118
0.577446
1.0756
1.53334
1.41961
1.33311
1.41879
1.37203
1.24291
1.10567
1.05737
1.053
1.0876
1.13028
1.13021
1.0988
1.05523
1.0415
1.03573
1.02876
1.01848
0.999397
0.926369
0.389129
0.401971
0.51434
0.939009
1.47222
1.50791
1.30667
1.40545
1.42229
1.26756
1.13561
1.0985
1.09895
1.13259
1.16517
1.15507
1.11434
1.07046
1.05436
1.05198
1.04752
1.04249
1.04171
1.0348
0.988123
0.388711
0.400904
0.511185
0.931288
1.46846
1.51156
1.30717
1.40415
1.42396
1.26881
1.13568
1.09807
1.0978
1.1301
1.16401
1.1549
1.11525
1.07066
1.05404
1.05161
1.04711
1.04212
1.04112
1.03375
0.98616
0.387551
0.398527
0.504233
0.913962
1.45454
1.51767
1.31053
1.40254
1.428
1.27527
1.13751
1.0971
1.09507
1.1247
1.16186
1.1549
1.11753
1.07163
1.05409
1.05166
1.04722
1.04225
1.04086
1.03324
0.984598
0.385541
0.395138
0.494077
0.887037
1.43024
1.52561
1.31356
1.39776
1.43252
1.2866
1.14227
1.09671
1.0925
1.11925
1.15942
1.15502
1.12096
1.07334
1.05441
1.0519
1.0475
1.04268
1.04107
1.03302
0.983628
0.382265
0.391066
0.481264
0.851497
1.39597
1.53547
1.31949
1.39053
1.43555
1.29896
1.14783
1.09569
1.08786
1.10986
1.1547
1.15404
1.12488
1.07549
1.05479
1.05193
1.04761
1.04285
1.04061
1.03309
0.981698
0.377758
0.386343
0.466037
0.807138
1.34998
1.54585
1.3288
1.38256
1.4375
1.31533
1.15683
1.0949
1.08271
1.1
1.14846
1.15241
1.12868
1.07804
1.05509
1.05157
1.04738
1.04279
1.03985
1.03158
0.978779
0.372591
0.380596
0.448812
0.754903
1.29192
1.55402
1.3432
1.37425
1.43793
1.33076
1.16961
1.0949
1.07661
1.08838
1.13832
1.14954
1.13172
1.08137
1.05531
1.05064
1.04653
1.04207
1.03792
1.0284
0.973972
0.367509
0.37409
0.431357
0.697336
1.22291
1.55675
1.36472
1.36171
1.43429
1.3475
1.18862
1.0964
1.0701
1.07599
1.1246
1.14543
1.1335
1.08558
1.05483
1.04859
1.04471
1.03998
1.03399
1.02313
0.965896
0.362562
0.367714
0.414103
0.635903
1.15215
1.54996
1.39118
1.34703
1.42761
1.3614
1.21367
1.09968
1.06371
1.06438
1.10699
1.13932
1.13302
1.09107
1.05479
1.04673
1.0405
1.03501
1.02824
1.01405
0.948181
0.357987
0.36172
0.398125
0.577471
1.07563
1.53334
1.4196
1.33315
1.4189
1.37213
1.24262
1.10566
1.05738
1.05301
1.08762
1.13028
1.13021
1.09879
1.05522
1.04149
1.03573
1.02876
1.01849
0.999399
0.92637
0.389129
0.401969
0.514335
0.938996
1.4722
1.50791
1.30667
1.40544
1.42229
1.26758
1.13561
1.0985
1.09895
1.13258
1.16517
1.15507
1.11435
1.07047
1.05436
1.05197
1.04751
1.04247
1.04169
1.03479
0.988113
0.388711
0.400902
0.511181
0.931277
1.46846
1.51157
1.30717
1.40415
1.42396
1.26879
1.13568
1.09807
1.09781
1.1301
1.16401
1.1549
1.11525
1.07066
1.05404
1.0516
1.04709
1.0421
1.04111
1.03374
0.986151
0.38755
0.398525
0.504229
0.913953
1.45453
1.51768
1.31053
1.40253
1.42798
1.27521
1.13746
1.09705
1.09502
1.12461
1.16183
1.1549
1.11755
1.07164
1.05409
1.05165
1.04721
1.04224
1.04084
1.03323
0.98459
0.38554
0.395137
0.494073
0.887028
1.43024
1.52562
1.31358
1.39778
1.43252
1.28655
1.14225
1.09674
1.09256
1.11939
1.15942
1.15502
1.12095
1.07333
1.05441
1.05189
1.04749
1.04267
1.04106
1.03301
0.983621
0.382264
0.391065
0.481261
0.851489
1.39596
1.53547
1.3195
1.39054
1.43559
1.29912
1.14798
1.09573
1.08786
1.1098
1.1547
1.15404
1.12488
1.07549
1.05478
1.05192
1.0476
1.04283
1.04059
1.03309
0.981693
0.377757
0.386342
0.466034
0.807131
1.34997
1.54586
1.32879
1.38255
1.43754
1.31553
1.15705
1.09483
1.08246
1.09968
1.1483
1.15238
1.12871
1.07805
1.05508
1.05156
1.04737
1.04278
1.03984
1.03158
0.978777
0.37259
0.380595
0.448811
0.754899
1.29192
1.55403
1.3432
1.37425
1.43796
1.33088
1.16972
1.0948
1.07638
1.08811
1.13805
1.1494
1.13168
1.08139
1.05531
1.05063
1.04652
1.04206
1.03792
1.0284
0.973973
0.367509
0.37409
0.431357
0.697339
1.22292
1.55676
1.36473
1.36172
1.4343
1.34754
1.18858
1.09632
1.07008
1.07599
1.12465
1.14547
1.13353
1.08559
1.05483
1.04858
1.0447
1.03998
1.03398
1.02313
0.9659
0.362562
0.367714
0.414104
0.635912
1.15216
1.54998
1.39119
1.34704
1.42763
1.36139
1.21354
1.09964
1.06385
1.06456
1.10722
1.13939
1.13305
1.09106
1.05479
1.04672
1.04049
1.035
1.02823
1.01405
0.948189
0.357987
0.361721
0.398128
0.577481
1.07565
1.53336
1.4196
1.33315
1.4189
1.3721
1.24245
1.10566
1.05755
1.05326
1.08794
1.13037
1.13024
1.09876
1.05521
1.04149
1.03572
1.02875
1.01848
0.999399
0.926376
0.389132
0.401977
0.514355
0.939035
1.47226
1.50792
1.30669
1.40554
1.42242
1.26772
1.1357
1.09843
1.09881
1.13237
1.16509
1.15504
1.11438
1.07047
1.05436
1.05197
1.04751
1.04247
1.0417
1.0348
0.988133
0.388712
0.400907
0.51119
0.931291
1.46835
1.51145
1.30716
1.40417
1.42423
1.26948
1.13592
1.09796
1.0976
1.12976
1.1639
1.15488
1.11529
1.07066
1.05403
1.0516
1.0471
1.04211
1.04112
1.03376
0.98617
0.387554
0.398532
0.504243
0.913979
1.45452
1.51761
1.31046
1.40258
1.42812
1.27536
1.13756
1.09716
1.09516
1.12483
1.16188
1.15489
1.11752
1.07162
1.05408
1.05165
1.04721
1.04224
1.04085
1.03324
0.984609
0.385547
0.395146
0.494097
0.887085
1.4303
1.52561
1.31355
1.39779
1.43244
1.2863
1.14213
1.09677
1.09261
1.11943
1.15948
1.15501
1.12092
1.07332
1.05441
1.05189
1.04749
1.04267
1.04106
1.03302
0.98364
0.382272
0.391074
0.481286
0.851554
1.39602
1.53542
1.31947
1.39053
1.43547
1.29863
1.14766
1.09575
1.08801
1.1101
1.15479
1.15404
1.12483
1.07547
1.05478
1.05192
1.0476
1.04283
1.0406
1.0331
0.981712
0.377766
0.386352
0.466059
0.807197
1.35003
1.54578
1.32876
1.38253
1.4374
1.31504
1.15662
1.09498
1.08292
1.10029
1.14859
1.15242
1.12862
1.07801
1.05507
1.05156
1.04737
1.04278
1.03984
1.03159
0.978795
0.372598
0.380605
0.448835
0.754968
1.29198
1.55396
1.34315
1.37421
1.43783
1.33052
1.16937
1.095
1.07689
1.08873
1.13852
1.14957
1.13167
1.08133
1.0553
1.05063
1.04652
1.04205
1.03792
1.02841
0.973991
0.367516
0.374098
0.431378
0.697406
1.22298
1.55673
1.36466
1.36168
1.43421
1.34734
1.18842
1.0965
1.07037
1.0763
1.12483
1.14545
1.13347
1.08552
1.05481
1.04858
1.0447
1.03997
1.03398
1.02313
0.965917
0.362567
0.367721
0.414122
0.635974
1.15223
1.54995
1.39113
1.34701
1.42755
1.36126
1.21352
1.09978
1.06389
1.06458
1.10717
1.13936
1.13301
1.09101
1.05477
1.04671
1.04049
1.035
1.02824
1.01406
0.948207
0.357991
0.361726
0.398141
0.577529
1.07572
1.53336
1.41955
1.33314
1.41884
1.37203
1.24251
1.10572
1.05745
1.05308
1.08767
1.13027
1.13018
1.09874
1.0552
1.04148
1.03572
1.02875
1.01848
0.999405
0.926391
0.389124
0.401959
0.514318
0.938969
1.47223
1.50796
1.30672
1.40546
1.42232
1.2675
1.13551
1.0984
1.09884
1.13248
1.16513
1.15506
1.11437
1.07048
1.05438
1.052
1.04756
1.04254
1.04178
1.03481
0.987928
0.388706
0.400893
0.511163
0.931249
1.4685
1.51164
1.30722
1.40419
1.42401
1.26888
1.1357
1.09802
1.09772
1.12996
1.16395
1.15489
1.11529
1.07068
1.05406
1.05163
1.04714
1.04217
1.04119
1.03376
0.985985
0.387543
0.398514
0.504208
0.913913
1.45453
1.51773
1.31054
1.40253
1.42819
1.27593
1.13778
1.09697
1.09482
1.12435
1.16173
1.15488
1.11759
1.07165
1.05411
1.05167
1.04725
1.0423
1.04092
1.03324
0.984439
0.385533
0.395127
0.494051
0.88698
1.43022
1.52564
1.31356
1.39773
1.43265
1.28684
1.14231
1.09649
1.09216
1.11883
1.15929
1.15498
1.12103
1.07337
1.05442
1.05191
1.04751
1.04271
1.04111
1.03302
0.983498
0.382256
0.391056
0.481241
0.851448
1.39596
1.53553
1.31954
1.39053
1.43554
1.29881
1.14787
1.09569
1.08799
1.10999
1.15466
1.15402
1.1249
1.07551
1.05479
1.05193
1.04761
1.04285
1.04063
1.0331
0.981611
0.377749
0.386335
0.466016
0.807094
1.34997
1.54593
1.32887
1.3826
1.43753
1.31509
1.15615
1.09507
1.08317
1.10055
1.14884
1.15249
1.12865
1.07802
1.05509
1.05156
1.04737
1.04279
1.03986
1.03159
0.978723
0.372583
0.380587
0.448793
0.754857
1.29189
1.55406
1.34326
1.37426
1.43795
1.33069
1.16974
1.09512
1.07684
1.0886
1.1384
1.14956
1.13169
1.08133
1.0553
1.05062
1.04651
1.04206
1.03793
1.02842
0.973938
0.367502
0.374081
0.431339
0.697287
1.22287
1.55677
1.36476
1.36164
1.43418
1.34744
1.18923
1.09656
1.07009
1.07591
1.12447
1.14541
1.13349
1.08554
1.05481
1.04857
1.04469
1.03998
1.03401
1.02315
0.965875
0.362555
0.367706
0.414087
0.635856
1.15211
1.54997
1.3912
1.34693
1.42746
1.3613
1.21419
1.09976
1.06357
1.06419
1.1067
1.13916
1.13293
1.09107
1.05478
1.04672
1.0405
1.03501
1.02827
1.01409
0.948177
0.357982
0.361714
0.398112
0.577431
1.07558
1.53335
1.41963
1.33307
1.41878
1.37205
1.2429
1.10562
1.05728
1.05287
1.0874
1.13014
1.1301
1.09879
1.05522
1.04149
1.03573
1.02878
1.01853
0.999447
0.92636
0.353957
0.356046
0.38372
0.527034
0.99165
1.49058
1.44494
1.32587
1.40736
1.38207
1.27254
1.11701
1.05353
1.04178
1.06405
1.11963
1.12572
1.10689
1.05708
1.03868
1.03079
1.02177
1.00728
0.981517
0.856355
0.350662
0.350302
0.370867
0.483298
0.89544
1.42286
1.4711
1.32051
1.39489
1.39222
1.30059
1.13593
1.05347
1.03251
1.04393
1.10256
1.11968
1.1105
1.06303
1.0357
1.02285
1.01176
0.993567
0.967521
0.859054
0.347981
0.344404
0.359992
0.445436
0.788184
1.32573
1.49698
1.31783
1.38469
1.39969
1.32481
1.16306
1.05724
1.02294
1.02497
1.07708
1.11039
1.10891
1.06949
1.0331
1.01584
1.00528
0.98348
0.96286
0.875923
0.345621
0.339222
0.35099
0.414441
0.681937
1.20524
1.50975
1.33078
1.37854
1.40042
1.34005
1.20096
1.06727
1.0126
1.00735
1.03945
1.0977
1.10463
1.07993
1.03513
1.00991
0.997088
0.977108
0.958414
0.908127
0.343576
0.334717
0.343567
0.390005
0.591493
1.0969
1.50698
1.3601
1.36828
1.39406
1.34911
1.24451
1.08384
1.01252
0.995685
1.00885
1.07583
1.09723
1.0867
1.04226
1.00946
0.993573
0.969096
0.953942
0.923877
0.341836
0.330837
0.337396
0.370616
0.518356
0.990323
1.49541
1.39049
1.36071
1.3906
1.35565
1.28412
1.11677
1.01812
0.981642
0.985102
1.03505
1.08261
1.08294
1.05654
1.01216
0.993565
0.96957
0.948421
0.935643
0.340372
0.32759
0.332388
0.355708
0.456547
0.837204
1.40505
1.40554
1.36108
1.38779
1.36443
1.3137
1.1609
1.03181
0.974789
0.970941
0.991067
1.05702
1.07479
1.06433
1.02061
0.995485
0.97199
0.95002
0.937553
0.339145
0.324896
0.328478
0.345272
0.413595
0.688575
1.18241
1.42304
1.35435
1.38819
1.37592
1.33587
1.21677
1.0506
0.977766
0.954075
0.959293
1.0185
1.06019
1.05996
1.03751
1.00239
0.976679
0.95382
0.938607
0.338142
0.322639
0.325331
0.337544
0.384733
0.580648
1.03521
1.43006
1.35134
1.38796
1.38531
1.35135
1.26503
1.08928
0.987873
0.946012
0.940848
0.965591
1.03226
1.04976
1.04082
1.01643
0.988539
0.961052
0.941749
0.337343
0.320821
0.322821
0.331455
0.362938
0.496987
0.923393
1.43139
1.36514
1.37956
1.3875
1.36195
1.29939
1.14625
1.01049
0.94905
0.925316
0.931405
0.986449
1.03351
1.0349
1.02252
1.00399
0.977238
0.949961
0.33674
0.319461
0.320975
0.326917
0.347025
0.427861
0.757668
1.35572
1.36312
1.36735
1.38494
1.37271
1.32792
1.21139
1.04192
0.957848
0.919605
0.917401
0.937316
1.00151
1.0223
1.01881
1.007
0.99275
0.968615
0.336349
0.318481
0.319666
0.323806
0.337002
0.385715
0.591094
1.03111
1.36232
1.34969
1.37974
1.38159
1.35419
1.27359
1.08019
0.973656
0.922794
0.903853
0.909279
0.946316
0.999729
1.00932
1.005
0.995897
0.984622
0.336214
0.317845
0.31872
0.32147
0.330187
0.360873
0.488208
0.867316
1.36176
1.34039
1.36643
1.38301
1.37079
1.32063
1.15899
1.00327
0.931874
0.900678
0.896414
0.906071
0.953533
0.989979
0.997402
0.994279
0.988468
0.33634
0.31748
0.318016
0.319712
0.325305
0.344072
0.417534
0.718588
1.28165
1.31024
1.3556
1.37783
1.37359
1.3506
1.25952
1.05592
0.951595
0.905352
0.885251
0.888462
0.906594
0.958096
0.983071
0.988676
0.987146
0.336658
0.317234
0.3175
0.318703
0.322436
0.333633
0.373129
0.544643
0.952862
1.30111
1.33252
1.35863
1.37118
1.36327
1.32063
1.14781
1.00154
0.919894
0.886851
0.873623
0.879174
0.902563
0.955153
0.976499
0.98267
0.336933
0.317072
0.317359
0.318099
0.320307
0.326891
0.348896
0.437821
0.750257
1.26506
1.27945
1.33683
1.36364
1.3628
1.34923
1.25604
1.06576
0.95239
0.895832
0.8714
0.862604
0.86758
0.893453
0.948527
0.970775
0.337032
0.317103
0.31719
0.317556
0.318814
0.322646
0.334718
0.378628
0.571283
1.00517
1.24578
1.29608
1.34733
1.35993
1.35351
1.31118
1.16195
1.0136
0.918191
0.875906
0.853876
0.848287
0.853259
0.879225
0.937494
0.337056
0.317212
0.316985
0.31716
0.317871
0.32005
0.326632
0.348631
0.438966
0.741777
1.20516
1.24256
1.30822
1.3485
1.35041
1.33281
1.25435
1.07651
0.960707
0.890106
0.85676
0.834968
0.831689
0.837596
0.862201
0.337055
0.317293
0.316834
0.316915
0.317295
0.318473
0.322017
0.333142
0.373565
0.550015
0.942869
1.20331
1.24945
1.32005
1.34108
1.33244
1.29758
1.17299
1.01744
0.919918
0.865809
0.836273
0.815709
0.814134
0.821127
0.337047
0.317348
0.316731
0.316765
0.316945
0.317557
0.31941
0.324968
0.343329
0.416964
0.681691
1.12318
1.1957
1.25499
1.32011
1.32578
1.30881
1.24608
1.08484
0.960709
0.890523
0.8437
0.817114
0.797263
0.79754
0.337046
0.317372
0.316657
0.316674
0.316756
0.317072
0.318
0.320747
0.329236
0.359473
0.49236
0.826756
1.14426
1.19426
1.2618
1.30952
1.3044
1.27697
1.17803
1.01495
0.916815
0.863489
0.823721
0.798886
0.782558
0.33705
0.317365
0.31662
0.316638
0.316682
0.316805
0.317234
0.318534
0.32248
0.335276
0.383735
0.58356
0.968392
1.14046
1.19009
1.26535
1.29198
1.27773
1.23186
1.09251
0.959563
0.885832
0.845187
0.80662
0.783154
0.337052
0.317354
0.316624
0.316607
0.316623
0.316675
0.316856
0.317437
0.319217
0.324687
0.343252
0.419773
0.673856
1.0521
1.13228
1.18751
1.26087
1.27018
1.25004
1.17469
1.01758
0.914881
0.860975
0.828726
0.791268
0.337053
0.31735
0.316629
0.316589
0.316594
0.316626
0.316683
0.316919
0.317679
0.320045
0.327442
0.353803
0.469914
0.762282
1.06782
1.12198
1.18949
1.2503
1.24594
1.21614
1.09802
0.958962
0.880941
0.845214
0.815316
0.337052
0.317351
0.316628
0.316585
0.316584
0.316596
0.316615
0.316687
0.316998
0.318
0.321043
0.330654
0.36604
0.518026
0.826544
1.05859
1.11731
1.19195
1.23355
1.22059
1.16434
1.02186
0.911513
0.858115
0.835757
0.337052
0.317351
0.316627
0.316586
0.316577
0.316583
0.316592
0.316595
0.316718
0.317157
0.318422
0.322073
0.333756
0.378175
0.551367
0.878785
1.0412
1.11841
1.19328
1.21265
1.18915
1.08546
0.951022
0.877484
0.844726
0.337052
0.317351
0.316627
0.316587
0.316576
0.316581
0.316584
0.316564
0.316619
0.316861
0.31743
0.318879
0.32303
0.336403
0.388597
0.573975
0.885425
1.0252
1.11987
1.18867
1.18432
1.13113
0.995154
0.901276
0.856151
0.337052
0.317351
0.316627
0.316587
0.316576
0.316581
0.316583
0.31656
0.316599
0.31681
0.317089
0.317777
0.31948
0.324
0.338212
0.393872
0.582656
0.841945
1.02665
1.13496
1.16797
1.13319
1.02682
0.920387
0.864422
0.337052
0.317351
0.316627
0.316587
0.316576
0.316581
0.316583
0.31656
0.316597
0.316812
0.317023
0.317526
0.318423
0.320273
0.324941
0.339143
0.392503
0.559714
0.80879
1.05772
1.12926
1.11183
1.03151
0.927621
0.864942
0.337052
0.317351
0.316627
0.316587
0.316576
0.316581
0.316583
0.31656
0.316597
0.316812
0.31702
0.317521
0.31832
0.31929
0.321664
0.32676
0.340326
0.386397
0.521503
0.807597
1.04702
1.04365
1.00289
0.923691
0.860897
0.337052
0.317351
0.316627
0.316587
0.316576
0.316581
0.316583
0.31656
0.316597
0.316811
0.31702
0.317519
0.318323
0.319245
0.321365
0.324184
0.330529
0.345469
0.382758
0.486152
0.706388
0.869026
0.904563
0.881639
0.842773
0.337052
0.317351
0.316627
0.316587
0.316576
0.316581
0.316583
0.31656
0.316597
0.316811
0.31702
0.317518
0.318325
0.319241
0.321385
0.324038
0.329491
0.341196
0.358749
0.40011
0.486217
0.562989
0.623746
0.657653
0.690286
0.337052
0.317351
0.316627
0.316587
0.316576
0.316581
0.316583
0.31656
0.316597
0.316811
0.31702
0.317518
0.318325
0.319241
0.321386
0.324031
0.329451
0.341132
0.356941
0.392848
0.458201
0.500506
0.532276
0.544438
0.552995
0.337052
0.317351
0.316627
0.316587
0.316576
0.316581
0.316583
0.31656
0.316597
0.316811
0.31702
0.317518
0.318324
0.319241
0.321387
0.32403
0.32945
0.341135
0.35687
0.392688
0.456586
0.495649
0.522275
0.530096
0.531758
0.337052
0.317351
0.316627
0.316587
0.316576
0.316581
0.316583
0.31656
0.316597
0.316811
0.31702
0.317517
0.318325
0.319241
0.321385
0.324029
0.329449
0.34113
0.356866
0.392688
0.456497
0.495429
0.521602
0.5289
0.529647
0.337052
0.317351
0.316627
0.316587
0.316576
0.316581
0.316583
0.31656
0.316597
0.316811
0.31702
0.317518
0.318325
0.319241
0.321386
0.32403
0.329449
0.341132
0.356869
0.392692
0.4565
0.495423
0.521555
0.528793
0.529434
0.337052
0.317351
0.316627
0.316587
0.316576
0.316581
0.316583
0.31656
0.316597
0.316811
0.31702
0.317518
0.318324
0.31924
0.321386
0.324029
0.329447
0.34113
0.356862
0.392669
0.456473
0.495363
0.521483
0.528715
0.529336
0.337052
0.317351
0.316627
0.316587
0.316576
0.316581
0.316583
0.31656
0.316597
0.316811
0.31702
0.317518
0.318324
0.31924
0.321387
0.32403
0.329449
0.341133
0.35687
0.392695
0.456504
0.495409
0.521534
0.528767
0.529394
0.337052
0.317351
0.316627
0.316587
0.316576
0.316581
0.316583
0.31656
0.316597
0.316811
0.31702
0.317518
0.318324
0.31924
0.321386
0.324029
0.329448
0.341131
0.356862
0.392674
0.456474
0.495356
0.521474
0.528712
0.529335
0.337052
0.317351
0.316627
0.316587
0.316576
0.316581
0.316583
0.31656
0.316597
0.316811
0.31702
0.317517
0.318325
0.319241
0.321385
0.324029
0.329449
0.34113
0.356867
0.392694
0.456496
0.495413
0.521542
0.528781
0.529415
0.353965
0.356058
0.383748
0.52713
0.991823
1.49066
1.44487
1.32592
1.4074
1.38206
1.27262
1.11696
1.05336
1.04153
1.06372
1.11942
1.12562
1.10689
1.05709
1.03869
1.03079
1.02172
1.00719
0.981433
0.856372
0.350667
0.350314
0.370889
0.483372
0.895621
1.42296
1.47101
1.32058
1.39492
1.39221
1.30066
1.13596
1.05334
1.03226
1.0436
1.10226
1.11956
1.11047
1.06306
1.0357
1.02285
1.01172