/*--------------------------------*- C++ -*----------------------------------*\
| =========                 |                                                 |
| \\      /  F ield         | OpenFOAM: The Open Source CFD Toolbox           |
|  \\    /   O peration     | Version:  4.1                                   |
|   \\  /    A nd           | Web:      www.OpenFOAM.org                      |
|    \\/     M anipulation  |                                                 |
\*---------------------------------------------------------------------------*/
FoamFile
{
    version     2.0;
    format      ascii;
    class       volVectorField;
    location    "0.62";
    object      U;
}
// * * * * * * * * * * * * * * * * * * * * * * * * * * * * * * * * * * * * * //

dimensions      [0 1 -1 0 0 0 0];

internalField   nonuniform List<vector> 
52500
(
(1.75036 0.000176487 -0.0024895)
(1.74236 0.000593771 -0.00258342)
(1.61301 0.00177138 -0.00336771)
(0.916846 0.0058227 -0.00639951)
(-0.0667458 0.0205162 -0.0104689)
(-0.281192 0.0226378 -0.0105187)
(0.334886 0.0157801 -0.00917876)
(0.135589 0.0190878 -0.00997285)
(-0.0363425 0.0241524 -0.010089)
(0.0778094 0.0202326 -0.00896294)
(0.103205 0.0207008 -0.00802751)
(0.0890086 0.0193025 -0.00775569)
(0.113142 0.0184773 -0.0077474)
(0.132715 0.018607 -0.00797524)
(0.146572 0.0193234 -0.00819724)
(0.152373 0.0205314 -0.00812179)
(0.152507 0.0214847 -0.00783653)
(0.145412 0.0224416 -0.00753401)
(0.133646 0.0233196 -0.00742852)
(0.115864 0.0242952 -0.00742312)
(0.0955922 0.025194 -0.007406)
(0.0666698 0.0260843 -0.00738698)
(0.0416958 0.0266466 -0.00739907)
(-0.00266093 0.0278008 -0.00735931)
(0.0113414 0.0278396 -0.00702932)
(1.75076 0.000565134 -0.0024862)
(1.74386 0.00190022 -0.00257584)
(1.61741 0.00558407 -0.00334446)
(0.933291 0.0183873 -0.00633275)
(-0.0599038 0.064057 -0.0103947)
(-0.286816 0.0626907 -0.0105055)
(0.328936 0.037904 -0.00916189)
(0.138415 0.0473407 -0.00993114)
(-0.0374426 0.0580041 -0.010062)
(0.0751054 0.0436138 -0.00894481)
(0.104589 0.0450407 -0.00800284)
(0.0900022 0.0422975 -0.00773001)
(0.114813 0.0409709 -0.00771728)
(0.134811 0.0415195 -0.00793466)
(0.149314 0.0423891 -0.00816378)
(0.155175 0.0440366 -0.00809441)
(0.155091 0.0454626 -0.00781678)
(0.147875 0.047218 -0.00750967)
(0.136014 0.0490891 -0.00740002)
(0.117993 0.0513103 -0.00739324)
(0.0972266 0.0534 -0.00737487)
(0.067761 0.055436 -0.0073554)
(0.0423111 0.0567378 -0.00736516)
(-0.00269622 0.0583274 -0.00732138)
(0.0111548 0.0577861 -0.0069864)
(1.75192 0.000957962 -0.00247757)
(1.74721 0.0032443 -0.00255937)
(1.62702 0.00939203 -0.00329481)
(0.97189 0.0309022 -0.00619275)
(-0.037623 0.109515 -0.0102548)
(-0.292676 0.107227 -0.0105126)
(0.320843 0.0631959 -0.00916122)
(0.149845 0.0799079 -0.00988394)
(-0.032158 0.0974521 -0.0100498)
(0.0738132 0.073939 -0.00895889)
(0.109773 0.0759477 -0.00798938)
(0.0929649 0.0727364 -0.00769933)
(0.118226 0.0713342 -0.00767481)
(0.137926 0.0725097 -0.00787275)
(0.152929 0.0742426 -0.00812275)
(0.159403 0.0769997 -0.00806757)
(0.159631 0.079144 -0.00780567)
(0.152372 0.0820376 -0.00748973)
(0.140389 0.0854839 -0.00737304)
(0.1222 0.0893156 -0.00736493)
(0.100938 0.0930716 -0.00734603)
(0.0708586 0.0965872 -0.00732576)
(0.0445827 0.099312 -0.00733191)
(-0.00149194 0.10245 -0.00728626)
(0.0114041 0.101884 -0.00694606)
(1.75391 0.00127909 -0.00246308)
(1.7522 0.00445972 -0.00253593)
(1.64101 0.0125801 -0.00322295)
(1.03015 0.041053 -0.00598415)
(-0.0031657 0.148431 -0.0100506)
(-0.299233 0.154317 -0.0105379)
(0.306831 0.0882409 -0.00915822)
(0.166807 0.111564 -0.00981195)
(-0.0233375 0.136298 -0.0100406)
(0.0712006 0.105481 -0.00900698)
(0.117052 0.105334 -0.0079964)
(0.0972824 0.101773 -0.00767251)
(0.122596 0.0997645 -0.00763326)
(0.142417 0.10099 -0.00781038)
(0.158548 0.103734 -0.00807888)
(0.165518 0.107821 -0.00804077)
(0.165937 0.110911 -0.00780153)
(0.158989 0.115008 -0.00747383)
(0.146953 0.12023 -0.00734704)
(0.128483 0.125923 -0.00733692)
(0.106545 0.131574 -0.0073171)
(0.0757155 0.136822 -0.00729679)
(0.0488473 0.141586 -0.00730007)
(0.00144136 0.14699 -0.00725088)
(0.0121307 0.146827 -0.00690825)
(1.75714 0.00147836 -0.00244021)
(1.75864 0.00555362 -0.00250747)
(1.65831 0.0150689 -0.00313355)
(1.10394 0.0487292 -0.00571833)
(0.0444664 0.17941 -0.00978607)
(-0.303687 0.204264 -0.0105829)
(0.283074 0.113264 -0.00917501)
(0.189045 0.141861 -0.0097213)
(-0.0108446 0.173706 -0.0100196)
(0.0666668 0.138079 -0.00906187)
(0.125278 0.133563 -0.00801225)
(0.103004 0.130817 -0.00764102)
(0.1277 0.128289 -0.00757775)
(0.147285 0.129388 -0.0077213)
(0.164873 0.132974 -0.00801987)
(0.172795 0.137975 -0.00800643)
(0.173786 0.1422 -0.00779971)
(0.167427 0.147459 -0.00745995)
(0.155592 0.154332 -0.00732034)
(0.136964 0.162177 -0.00730629)
(0.114337 0.170022 -0.00728528)
(0.0829709 0.177702 -0.00726407)
(0.0555028 0.185503 -0.00726096)
(0.00621413 0.193871 -0.00721458)
(0.0135205 0.19448 -0.0068607)
(1.76178 0.00151156 -0.00240915)
(1.76628 0.0065006 -0.00247495)
(1.67807 0.0167385 -0.00302936)
(1.19017 0.0538498 -0.00539683)
(0.107527 0.201156 -0.00945157)
(-0.302601 0.257267 -0.010634)
(0.246553 0.139413 -0.00920865)
(0.216344 0.170676 -0.00962835)
(0.00308751 0.209961 -0.00999482)
(0.0611357 0.172593 -0.00913948)
(0.134377 0.160777 -0.00804523)
(0.110729 0.160142 -0.00760849)
(0.133404 0.156821 -0.00751543)
(0.152803 0.157427 -0.00762527)
(0.172109 0.162076 -0.00794793)
(0.181196 0.167779 -0.00796676)
(0.183121 0.173351 -0.00779675)
(0.177617 0.179634 -0.00744822)
(0.166343 0.188223 -0.0072922)
(0.14783 0.198539 -0.00727174)
(0.124731 0.209264 -0.00724925)
(0.0933756 0.220322 -0.00722745)
(0.065406 0.232231 -0.00721641)
(0.0136228 0.245114 -0.00716243)
(0.0157931 0.247132 -0.00680172)
(1.76771 0.00145864 -0.00237542)
(1.77467 0.00712753 -0.00243621)
(1.69932 0.0174673 -0.00290726)
(1.28375 0.0560469 -0.00502361)
(0.188967 0.2111 -0.00904537)
(-0.290519 0.312182 -0.0106729)
(0.194271 0.168832 -0.00926342)
(0.249205 0.197927 -0.00953549)
(0.0189874 0.244658 -0.00996369)
(0.0551107 0.211738 -0.00920461)
(0.14329 0.188149 -0.00810945)
(0.120859 0.189838 -0.0075815)
(0.13964 0.185431 -0.00744739)
(0.159004 0.185282 -0.00751868)
(0.179809 0.190931 -0.00784892)
(0.190449 0.197239 -0.00791715)
(0.193823 0.204231 -0.00778719)
(0.189507 0.211498 -0.00744106)
(0.179428 0.221854 -0.00726259)
(0.161611 0.234891 -0.00723173)
(0.138539 0.249573 -0.00720685)
(0.107843 0.265602 -0.0071822)
(0.0799241 0.282568 -0.00715939)
(0.0248443 0.302578 -0.00709301)
(0.0196404 0.308075 -0.00672276)
(1.77394 0.00139749 -0.00234496)
(1.78328 0.00728528 -0.00238856)
(1.72087 0.0174251 -0.00278523)
(1.37782 0.0554742 -0.0046148)
(0.289571 0.20806 -0.00857142)
(-0.261455 0.366068 -0.0106737)
(0.125627 0.204892 -0.00935528)
(0.286704 0.222007 -0.00941736)
(0.0396109 0.275517 -0.00990641)
(0.049869 0.254879 -0.00927673)
(0.149903 0.216943 -0.0082114)
(0.13327 0.219626 -0.00756515)
(0.146476 0.214139 -0.00737878)
(0.166022 0.213007 -0.00741028)
(0.187966 0.219386 -0.0077303)
(0.200553 0.226305 -0.00786109)
(0.205773 0.234669 -0.00776946)
(0.203161 0.242937 -0.00743871)
(0.194852 0.254974 -0.00722727)
(0.178791 0.270787 -0.00718276)
(0.157078 0.290151 -0.00715591)
(0.127479 0.313235 -0.00712296)
(0.100923 0.336734 -0.00708311)
(0.0431292 0.36801 -0.00700156)
(0.0268375 0.384212 -0.00660988)
(1.78008 0.00130097 -0.00231538)
(1.79177 0.00712419 -0.00234138)
(1.74175 0.0168012 -0.00266476)
(1.465 0.0522097 -0.00418822)
(0.410865 0.194091 -0.00802963)
(-0.211053 0.415806 -0.0105809)
(0.0438449 0.250636 -0.00946653)
(0.324508 0.241802 -0.00928312)
(0.0670011 0.302295 -0.00982748)
(0.0483062 0.298013 -0.00932978)
(0.152964 0.248968 -0.00834782)
(0.147475 0.24928 -0.00756092)
(0.154181 0.242949 -0.00731096)
(0.174012 0.240868 -0.00730721)
(0.196348 0.247332 -0.00758592)
(0.211231 0.254861 -0.00779181)
(0.218658 0.264528 -0.00773652)
(0.218506 0.273761 -0.0074443)
(0.212665 0.287321 -0.00719419)
(0.199508 0.305996 -0.00713384)
(0.181304 0.329972 -0.00708661)
(0.154067 0.361122 -0.00704042)
(0.131257 0.395136 -0.00698674)
(0.0757664 0.441419 -0.00687285)
(0.0430107 0.482547 -0.00641488)
(1.7859 0.00115723 -0.0022881)
(1.79988 0.00681719 -0.00229665)
(1.76075 0.0157908 -0.00255305)
(1.53989 0.0470629 -0.00378614)
(0.572042 0.172184 -0.00739347)
(-0.144533 0.458356 -0.0104587)
(-0.0442836 0.307331 -0.0095982)
(0.357105 0.258255 -0.00915646)
(0.101038 0.326519 -0.00973902)
(0.0515773 0.338018 -0.00935884)
(0.154021 0.284892 -0.00850633)
(0.162203 0.27891 -0.00757416)
(0.163185 0.271886 -0.00724229)
(0.182878 0.268954 -0.00720505)
(0.204758 0.274564 -0.00742913)
(0.222273 0.282741 -0.00770239)
(0.232258 0.293427 -0.00768794)
(0.235434 0.303949 -0.00746418)
(0.232847 0.318488 -0.00716361)
(0.223599 0.339736 -0.00706211)
(0.211009 0.368093 -0.00701195)
(0.190051 0.407063 -0.00694764)
(0.174352 0.455951 -0.00685682)
(0.132115 0.52968 -0.006694)
(0.0772952 0.636739 -0.0061621)
(1.75035 0.000177479 -2.42029e-08)
(1.74233 0.000596898 -4.95121e-08)
(1.61294 0.00178054 -1.42221e-07)
(0.916604 0.00585432 -3.77331e-07)
(-0.0669045 0.0206696 -3.82631e-07)
(-0.281296 0.0226971 4.01141e-07)
(0.33476 0.0158773 1.61311e-07)
(0.135324 0.019173 -1.26861e-07)
(-0.0366541 0.0242485 7.06485e-08)
(0.0778258 0.0201591 2.96695e-07)
(0.103253 0.020624 1.38512e-07)
(0.0890981 0.0192729 2.10006e-07)
(0.113236 0.0184988 1.88673e-07)
(0.132766 0.0186585 2.32228e-07)
(0.146572 0.0193573 2.54562e-07)
(0.15234 0.0205393 2.30079e-07)
(0.152466 0.0214836 2.39082e-07)
(0.145369 0.0224432 2.12843e-07)
(0.133606 0.0233216 1.68968e-07)
(0.115828 0.0242961 1.26997e-07)
(0.0955695 0.0251927 7.95681e-08)
(0.0666563 0.0260805 2.43447e-08)
(0.0416805 0.0266411 -7.9718e-08)
(-0.00266848 0.0277952 -1.15948e-07)
(0.0113442 0.0278388 -1.56309e-07)
(1.75076 0.000565637 -2.12521e-08)
(1.74384 0.00190201 -4.29103e-08)
(1.61736 0.00559007 -1.21117e-07)
(0.933204 0.0184093 -3.14182e-07)
(-0.0596859 0.0641165 -3.05813e-07)
(-0.286391 0.0626029 3.21626e-07)
(0.32926 0.037877 -7.01606e-10)
(0.138638 0.0472761 4.29096e-08)
(-0.0368534 0.0579018 3.25026e-07)
(0.0756525 0.0434973 7.06427e-09)
(0.105095 0.0449505 6.67613e-08)
(0.0904108 0.0422454 1.4283e-07)
(0.11508 0.0409601 1.87431e-07)
(0.134912 0.0415203 2.246e-07)
(0.149327 0.0424095 2.42037e-07)
(0.155152 0.0440662 2.38812e-07)
(0.15506 0.0454955 2.39678e-07)
(0.147834 0.0472411 2.16575e-07)
(0.135971 0.0491017 1.71787e-07)
(0.117952 0.0513161 1.2881e-07)
(0.0971986 0.0533995 8.24683e-08)
(0.0677413 0.0554296 2.98495e-08)
(0.0422908 0.0567254 -6.70967e-08)
(-0.00270966 0.0583114 -8.47313e-08)
(0.0111579 0.0577782 -1.12939e-07)
(1.75191 0.000956975 -2.2793e-08)
(1.74719 0.0032411 -4.25114e-08)
(1.62697 0.00938349 -1.15914e-07)
(0.97174 0.0308735 -3.0561e-07)
(-0.0377052 0.109382 -3.54931e-07)
(-0.29258 0.107134 2.6511e-07)
(0.320944 0.0631424 1.98401e-07)
(0.149781 0.0798697 -3.80233e-08)
(-0.0320955 0.0973527 2.73544e-07)
(0.073964 0.0739685 1.50415e-07)
(0.109812 0.0759859 4.99622e-08)
(0.0929722 0.0727939 9.42573e-08)
(0.118248 0.0714028 1.52812e-07)
(0.137957 0.0725636 1.95772e-07)
(0.152913 0.0742907 2.19924e-07)
(0.159353 0.0770429 2.25295e-07)
(0.15957 0.0791913 2.25182e-07)
(0.152308 0.0820659 1.98177e-07)
(0.140334 0.0854986 1.62312e-07)
(0.122152 0.0893212 1.23867e-07)
(0.100906 0.0930691 8.28034e-08)
(0.0708361 0.0965748 3.54994e-08)
(0.0445611 0.0992924 -5.5993e-08)
(-0.00150405 0.102426 -6.22835e-08)
(0.0114072 0.101873 -6.89627e-08)
(1.7539 0.00127864 -2.63999e-08)
(1.75217 0.00445707 -4.69383e-08)
(1.64095 0.0125738 -1.30362e-07)
(1.0299 0.0410302 -3.58436e-07)
(-0.00332508 0.14833 -5.51421e-07)
(-0.299225 0.154266 3.06275e-07)
(0.306889 0.0882257 2.86334e-07)
(0.166669 0.111587 -1.33016e-07)
(-0.0234974 0.136243 1.54878e-07)
(0.0711756 0.105521 2.68038e-07)
(0.116886 0.105396 6.69151e-08)
(0.0970975 0.101874 4.53573e-08)
(0.122439 0.0998825 4.51551e-08)
(0.142283 0.101107 9.21187e-08)
(0.158405 0.103818 1.647e-07)
(0.165395 0.10787 1.99202e-07)
(0.165839 0.110943 2.07662e-07)
(0.158903 0.115026 1.75921e-07)
(0.146886 0.12024 1.49962e-07)
(0.128428 0.125926 1.12538e-07)
(0.106507 0.131568 7.57511e-08)
(0.0756892 0.136807 3.80555e-08)
(0.0488258 0.141564 -3.65844e-08)
(0.00143307 0.146961 -1.3331e-08)
(0.0121339 0.146811 2.06402e-09)
(1.75712 0.00147885 -3.01471e-08)
(1.75861 0.00555278 -5.06871e-08)
(1.65824 0.0150693 -1.3781e-07)
(1.10367 0.0487307 -3.81079e-07)
(0.0443265 0.179399 -6.77002e-07)
(-0.303658 0.204212 3.59273e-07)
(0.283145 0.113289 3.29098e-07)
(0.188883 0.141893 -1.35234e-07)
(-0.0110497 0.173696 2.27676e-08)
(0.0665705 0.138115 2.66303e-07)
(0.12495 0.133618 1.58122e-07)
(0.102663 0.130875 4.91649e-08)
(0.127404 0.128322 3.5573e-08)
(0.147041 0.129401 8.53425e-08)
(0.164634 0.132966 1.58164e-07)
(0.172607 0.137972 1.88696e-07)
(0.173658 0.142197 1.70185e-07)
(0.167332 0.147459 1.61337e-07)
(0.15552 0.15433 1.32678e-07)
(0.136904 0.162172 9.30498e-08)
(0.114295 0.170012 7.18085e-08)
(0.082943 0.177686 4.31793e-08)
(0.0554796 0.185482 -1.01009e-08)
(0.00620606 0.193838 4.31522e-08)
(0.0135211 0.194455 7.31936e-08)
(1.76176 0.00151245 -2.95165e-08)
(1.76625 0.00650076 -5.86368e-08)
(1.67801 0.0167418 -1.43835e-07)
(1.18991 0.0538582 -3.81229e-07)
(0.107378 0.201173 -7.50938e-07)
(-0.302549 0.257198 3.90258e-07)
(0.246668 0.139456 3.66418e-07)
(0.216173 0.170738 -1.18457e-07)
(0.00290974 0.210026 -1.86673e-08)
(0.0609822 0.172618 3.35494e-07)
(0.134069 0.160896 2.04651e-07)
(0.110361 0.160202 6.73959e-08)
(0.133117 0.156814 3.01254e-08)
(0.152609 0.157368 4.46353e-08)
(0.171917 0.16198 1.01634e-07)
(0.181039 0.167702 1.41062e-07)
(0.182998 0.173296 1.43465e-07)
(0.177523 0.17961 1.40299e-07)
(0.166268 0.188203 1.15201e-07)
(0.147769 0.198521 8.20549e-08)
(0.12469 0.209249 6.5684e-08)
(0.093347 0.220306 4.74594e-08)
(0.0653807 0.232211 2.69394e-08)
(0.0136109 0.245082 1.05493e-07)
(0.0157891 0.247108 1.60967e-07)
(1.76769 0.00145951 -2.34609e-08)
(1.77464 0.00712898 -7.79233e-08)
(1.69926 0.0174722 -1.3955e-07)
(1.2835 0.056059 -3.93942e-07)
(0.188771 0.211135 -8.61073e-07)
(-0.290504 0.312111 3.40441e-07)
(0.194445 0.168878 4.86776e-07)
(0.249029 0.198022 -1.64484e-07)
(0.0188397 0.244791 -4.54397e-08)
(0.0550391 0.211774 2.78549e-07)
(0.142986 0.188326 2.79347e-07)
(0.120515 0.189915 1.50128e-07)
(0.139429 0.185445 9.20583e-08)
(0.158878 0.185238 6.33139e-08)
(0.179696 0.190853 5.6179e-08)
(0.190356 0.197153 8.56173e-08)
(0.193743 0.204146 9.89441e-08)
(0.189432 0.211441 1.13982e-07)
(0.179358 0.221811 9.44324e-08)
(0.161558 0.234858 6.93469e-08)
(0.138502 0.24955 5.92246e-08)
(0.107816 0.265576 6.09023e-08)
(0.0798971 0.282541 6.28986e-08)
(0.0248303 0.302545 1.5809e-07)
(0.0196343 0.308056 2.63173e-07)
(1.77393 0.00139833 -2.2338e-08)
(1.78325 0.00728801 -7.77347e-08)
(1.72081 0.0174316 -1.34815e-07)
(1.37759 0.055493 -3.89524e-07)
(0.289339 0.208119 -9.706e-07)
(-0.261487 0.366021 2.68372e-07)
(0.125861 0.204936 6.64805e-07)
(0.286559 0.222136 -2.31815e-07)
(0.0395124 0.275713 -1.53072e-08)
(0.0499014 0.25498 2.2262e-07)
(0.149697 0.217047 3.52055e-07)
(0.133056 0.219687 2.56081e-07)
(0.14635 0.21415 1.85653e-07)
(0.165933 0.212964 1.23017e-07)
(0.187875 0.219328 7.51434e-08)
(0.20047 0.226228 6.7408e-08)
(0.205706 0.234579 6.47054e-08)
(0.203102 0.242849 7.84024e-08)
(0.1948 0.254908 7.80544e-08)
(0.178752 0.27074 6.52493e-08)
(0.157046 0.290116 5.23299e-08)
(0.127452 0.313198 8.07563e-08)
(0.100897 0.336696 9.92592e-08)
(0.0431191 0.367974 1.93299e-07)
(0.0268332 0.384198 3.57537e-07)
(1.78007 0.00130186 -2.06645e-08)
(1.79175 0.0071273 -7.42843e-08)
(1.7417 0.0168087 -1.27247e-07)
(1.46481 0.0522332 -3.7924e-07)
(0.410574 0.19417 -9.96002e-07)
(-0.21111 0.415789 1.93641e-07)
(0.0441134 0.25067 7.94807e-07)
(0.324401 0.241957 -2.2836e-07)
(0.0669696 0.302506 2.84826e-08)
(0.0484102 0.298174 2.61655e-07)
(0.152885 0.249042 2.56176e-07)
(0.147404 0.249324 2.69864e-07)
(0.154128 0.242935 2.12684e-07)
(0.173955 0.240797 1.44411e-07)
(0.196277 0.247245 9.76229e-08)
(0.211169 0.254757 9.10529e-08)
(0.218611 0.264423 5.38555e-08)
(0.218467 0.273653 5.95741e-08)
(0.212635 0.287237 6.12619e-08)
(0.199484 0.305935 5.99604e-08)
(0.18128 0.329925 6.08557e-08)
(0.154043 0.36108 9.602e-08)
(0.131234 0.395094 1.30754e-07)
(0.0757619 0.441377 2.44167e-07)
(0.0430099 0.482529 4.08267e-07)
(1.78589 0.00115807 -1.77144e-08)
(1.79986 0.00682032 -6.79568e-08)
(1.76071 0.0157983 -1.12987e-07)
(1.53974 0.0470876 -3.32515e-07)
(0.57167 0.172269 -8.66591e-07)
(-0.144594 0.458376 -1.0765e-07)
(-0.044004 0.307341 9.64338e-07)
(0.357037 0.258416 -1.94153e-07)
(0.101051 0.326719 2.94766e-08)
(0.0517211 0.338187 3.28289e-07)
(0.154047 0.284987 2.50101e-07)
(0.162219 0.278954 2.53977e-07)
(0.163194 0.271867 2.00653e-07)
(0.182868 0.268876 1.41548e-07)
(0.20472 0.274455 1.0872e-07)
(0.222248 0.282623 1.07201e-07)
(0.232242 0.293306 9.84846e-08)
(0.235425 0.303838 6.05429e-08)
(0.232842 0.318392 4.78563e-08)
(0.223594 0.339662 3.95175e-08)
(0.210997 0.368037 6.14364e-08)
(0.190034 0.407016 1.08602e-07)
(0.174331 0.455908 1.58348e-07)
(0.132108 0.529635 2.63977e-07)
(0.0772942 0.63672 4.05198e-07)
(1.75035 0.000176799 1.31106e-08)
(1.74234 0.000594806 2.73255e-08)
(1.61297 0.0017743 7.72325e-08)
(0.916719 0.00583235 1.94915e-07)
(-0.066802 0.020558 1.96252e-07)
(-0.281202 0.0226516 -2.524e-07)
(0.334848 0.0158157 -2.1448e-07)
(0.135496 0.0191232 5.04064e-07)
(-0.0365408 0.0242021 3.96444e-07)
(0.0776595 0.0202182 -5.52238e-07)
(0.103029 0.0206761 6.53144e-08)
(0.0888932 0.0192724 1.47458e-07)
(0.113051 0.0184391 7.26804e-08)
(0.132629 0.0185773 -3.11502e-08)
(0.146488 0.0193025 -1.07801e-07)
(0.152303 0.0205168 -1.28963e-07)
(0.152452 0.021471 -7.53107e-08)
(0.145368 0.0224337 -7.48801e-08)
(0.133605 0.0233152 -1.03316e-07)
(0.115816 0.0242932 -1.24854e-07)
(0.0955415 0.025192 -1.23087e-07)
(0.0666128 0.0260811 -1.28169e-07)
(0.0416344 0.0266425 -1.17194e-07)
(-0.00270458 0.0277973 1.97567e-08)
(0.0113354 0.0278408 1.00712e-07)
(1.75076 0.000565465 6.60928e-09)
(1.74385 0.00190134 1.51991e-08)
(1.61738 0.00558749 3.61681e-08)
(0.933204 0.0183986 4.57492e-08)
(-0.0598712 0.0640889 -1.1827e-07)
(-0.286696 0.0626732 -1.02308e-08)
(0.329024 0.0379277 3.54072e-07)
(0.138457 0.0473584 -2.35833e-08)
(-0.037351 0.0580291 -2.93399e-07)
(0.075156 0.0435868 4.26491e-07)
(0.104605 0.0450232 1.15267e-07)
(0.0900276 0.0422794 8.43387e-08)
(0.114821 0.0409444 1.59633e-07)
(0.134799 0.041503 3.87136e-08)
(0.149282 0.0423738 -8.99243e-08)
(0.155134 0.044025 -1.26278e-07)
(0.15505 0.0454524 -8.03889e-08)
(0.147837 0.0472118 -7.75339e-08)
(0.135974 0.0490853 -1.05259e-07)
(0.117943 0.0513077 -1.27147e-07)
(0.0971724 0.0533962 -1.25155e-07)
(0.0676991 0.0554289 -1.29161e-07)
(0.0422458 0.0567278 -1.15417e-07)
(-0.00274505 0.0583152 2.53216e-08)
(0.0111492 0.057782 1.10086e-07)
(1.75192 0.000957898 1.30193e-08)
(1.7472 0.00324401 2.38213e-08)
(1.62699 0.00939149 5.83306e-08)
(0.9718 0.0308996 1.2508e-07)
(-0.0376488 0.109492 8.38601e-08)
(-0.292604 0.107206 -6.01033e-08)
(0.320917 0.0632132 -1.63501e-07)
(0.149849 0.0799345 2.74584e-07)
(-0.032083 0.0974837 1.71832e-07)
(0.0739007 0.0739422 -1.1026e-07)
(0.109821 0.0759497 8.19429e-08)
(0.0930079 0.0727257 -7.3155e-10)
(0.118247 0.0713097 7.67209e-08)
(0.137924 0.0724825 9.20413e-08)
(0.152909 0.0742196 -6.42921e-08)
(0.159374 0.0769823 -1.19095e-07)
(0.159598 0.0791328 -8.94122e-08)
(0.152338 0.0820287 -9.79306e-08)
(0.140351 0.085477 -1.20493e-07)
(0.122151 0.0893103 -1.36181e-07)
(0.100884 0.093065 -1.29638e-07)
(0.0707974 0.0965757 -1.31004e-07)
(0.0445186 0.0992968 -1.13978e-07)
(-0.00153852 0.102432 2.67882e-08)
(0.0113985 0.10188 1.19965e-07)
(1.75391 0.00127906 2.10882e-08)
(1.75218 0.00445907 3.81922e-08)
(1.64098 0.0125789 1.06451e-07)
(1.03003 0.0410483 2.82803e-07)
(-0.00322779 0.148403 4.78346e-07)
(-0.299193 0.154301 -2.52072e-07)
(0.306908 0.0882591 -1.5192e-07)
(0.166798 0.111603 3.46001e-07)
(-0.0232772 0.136342 4.01935e-07)
(0.0712928 0.1055 -2.2385e-07)
(0.117117 0.10536 -7.16065e-08)
(0.0973386 0.101775 -5.62053e-08)
(0.122635 0.0997595 -6.93878e-08)
(0.142456 0.100996 5.9352e-08)
(0.158559 0.103738 -3.72701e-08)
(0.165506 0.107816 -9.43941e-08)
(0.16591 0.110895 -1.14237e-07)
(0.158955 0.114993 -1.30564e-07)
(0.146916 0.12022 -1.36041e-07)
(0.128436 0.125916 -1.43333e-07)
(0.106492 0.131567 -1.34875e-07)
(0.0756548 0.13681 -1.31781e-07)
(0.0487852 0.14157 -1.11568e-07)
(0.00140003 0.146969 3.50909e-08)
(0.0121254 0.14682 1.36701e-07)
(1.75713 0.00147857 2.53589e-08)
(1.75863 0.00555313 4.38735e-08)
(1.65828 0.0150689 1.21638e-07)
(1.10381 0.0487298 3.36072e-07)
(0.0444004 0.179404 6.27941e-07)
(-0.303646 0.20424 -3.99612e-07)
(0.283169 0.113283 -6.78592e-08)
(0.189031 0.141899 1.9176e-07)
(-0.010791 0.173745 2.82794e-07)
(0.0667745 0.138108 -9.20016e-08)
(0.125327 0.13357 -1.46782e-07)
(0.103032 0.130826 -2.01523e-08)
(0.12771 0.12829 -7.32902e-08)
(0.147262 0.129395 3.14979e-08)
(0.164831 0.13297 -3.29577e-08)
(0.172755 0.137964 -8.50669e-08)
(0.173755 0.14218 -1.00679e-07)
(0.167401 0.14744 -1.30505e-07)
(0.155562 0.15432 -1.46627e-07)
(0.136921 0.162168 -1.53346e-07)
(0.114285 0.170015 -1.38187e-07)
(0.082911 0.17769 -1.32772e-07)
(0.0554415 0.185489 -1.07373e-07)
(0.00617513 0.193849 4.3396e-08)
(0.0135131 0.194467 1.58484e-07)
(1.76177 0.00151183 2.37831e-08)
(1.76626 0.00650012 4.98973e-08)
(1.67804 0.0167389 1.2515e-07)
(1.19004 0.0538508 3.34204e-07)
(0.10745 0.201154 6.8895e-07)
(-0.302556 0.257228 -4.15841e-07)
(0.246666 0.139425 -5.11621e-08)
(0.216317 0.170711 1.22762e-07)
(0.00311296 0.210003 8.0191e-08)
(0.0611885 0.172624 -1.3259e-07)
(0.13446 0.160839 -7.92199e-08)
(0.110746 0.160177 -4.53421e-08)
(0.133395 0.156812 -6.43456e-08)
(0.152783 0.157394 -3.83636e-08)
(0.172083 0.16203 -4.57683e-08)
(0.181168 0.16774 -1.04635e-07)
(0.183095 0.173322 -6.70369e-08)
(0.177596 0.179617 -1.49416e-07)
(0.166315 0.18821 -1.54604e-07)
(0.147789 0.198527 -1.58346e-07)
(0.124681 0.209254 -1.42514e-07)
(0.093317 0.220311 -1.32393e-07)
(0.0653454 0.23222 -9.87667e-08)
(0.0135829 0.245094 5.35245e-08)
(0.0157818 0.247122 1.82825e-07)
(1.76769 0.00145887 1.70011e-08)
(1.77466 0.00712747 6.45057e-08)
(1.69929 0.0174681 1.17977e-07)
(1.28362 0.0560487 3.43038e-07)
(0.188863 0.211103 7.98358e-07)
(-0.290501 0.312131 -3.18901e-07)
(0.1944 0.168833 -1.71929e-07)
(0.249165 0.197957 1.38454e-07)
(0.0189782 0.244695 -2.07007e-08)
(0.0551672 0.211751 -2.11186e-07)
(0.143273 0.188285 -2.90132e-08)
(0.120804 0.189906 -1.11116e-07)
(0.139622 0.185446 -8.81435e-08)
(0.159006 0.185265 -7.10892e-08)
(0.179814 0.190892 -5.06322e-08)
(0.190447 0.197195 -7.41243e-08)
(0.193813 0.204191 -7.3031e-08)
(0.189491 0.211475 -1.45599e-07)
(0.179401 0.221835 -1.58924e-07)
(0.161575 0.234874 -1.58866e-07)
(0.138492 0.249561 -1.45746e-07)
(0.107787 0.265588 -1.26701e-07)
(0.0798644 0.282555 -8.2561e-08)
(0.024805 0.302559 6.1565e-08)
(0.0196278 0.308072 2.13599e-07)
(1.77393 0.00139774 1.46503e-08)
(1.78326 0.00728591 6.12473e-08)
(1.72084 0.0174268 1.10425e-07)
(1.37769 0.0554797 3.36905e-07)
(0.289445 0.208077 8.99994e-07)
(-0.261468 0.366021 -1.94637e-07)
(0.125773 0.204886 -3.70473e-07)
(0.286664 0.222045 1.67294e-07)
(0.0395788 0.275561 8.68047e-09)
(0.0499315 0.254898 -2.39321e-07)
(0.149851 0.217016 -1.04838e-07)
(0.133214 0.219685 -1.4634e-07)
(0.146455 0.214167 -9.66393e-08)
(0.166022 0.213008 -1.05516e-07)
(0.187966 0.219366 -6.48167e-08)
(0.200553 0.226272 -7.0721e-08)
(0.20577 0.234629 -7.24343e-08)
(0.203152 0.242902 -1.35959e-07)
(0.194832 0.254947 -1.48611e-07)
(0.17876 0.270766 -1.54969e-07)
(0.157033 0.290136 -1.47353e-07)
(0.127424 0.313218 -1.03069e-07)
(0.100864 0.336715 -6.4951e-08)
(0.0430939 0.367991 6.00661e-08)
(0.0268264 0.384214 2.44866e-07)
(1.78007 0.00130133 1.20592e-08)
(1.79176 0.00712521 5.49977e-08)
(1.74172 0.0168038 1.00367e-07)
(1.46489 0.0522188 3.28436e-07)
(0.410706 0.194122 9.57005e-07)
(-0.211082 0.41577 -9.59032e-08)
(0.0440014 0.250622 -5.18433e-07)
(0.324472 0.241854 1.64364e-07)
(0.066973 0.30235 -3.52137e-08)
(0.0483611 0.298064 -2.67507e-07)
(0.152934 0.249007 -1.56289e-07)
(0.147453 0.249323 -1.38524e-07)
(0.154167 0.242971 -1.08734e-07)
(0.174007 0.240862 -1.13899e-07)
(0.196341 0.247305 -7.24338e-08)
(0.211221 0.254823 -7.47204e-08)
(0.218649 0.264486 -8.78215e-08)
(0.218498 0.273717 -1.26343e-07)
(0.212651 0.287287 -1.35578e-07)
(0.199484 0.305969 -1.44997e-07)
(0.181263 0.329952 -1.37741e-07)
(0.154013 0.361103 -9.06512e-08)
(0.131199 0.395115 -4.8611e-08)
(0.0757354 0.441397 6.48736e-08)
(0.0430011 0.482544 2.53892e-07)
(1.78589 0.00115762 8.80321e-09)
(1.79987 0.00681842 4.65415e-08)
(1.76072 0.0157939 8.39046e-08)
(1.5398 0.0470737 2.7821e-07)
(0.571833 0.172222 8.16621e-07)
(-0.144564 0.458337 2.4341e-07)
(-0.0441219 0.307301 -6.40101e-07)
(0.357083 0.258313 1.31461e-07)
(0.101025 0.326582 -4.77711e-09)
(0.0516311 0.33809 -3.28602e-07)
(0.154026 0.28494 -1.59539e-07)
(0.162205 0.278953 -1.26678e-07)
(0.163184 0.271909 -1.1711e-07)
(0.182881 0.268944 -1.02387e-07)
(0.204759 0.274528 -7.50366e-08)
(0.222273 0.282689 -8.43883e-08)
(0.232258 0.293374 -8.51186e-08)
(0.235435 0.3039 -1.16202e-07)
(0.232843 0.318448 -1.17782e-07)
(0.223582 0.339704 -1.27111e-07)
(0.210975 0.368068 -1.24952e-07)
(0.19 0.407041 -8.31378e-08)
(0.174295 0.45593 -4.11945e-08)
(0.13208 0.529656 6.06952e-08)
(0.0772815 0.636732 2.2961e-07)
(1.75035 0.000176865 9.93419e-09)
(1.74234 0.000595028 2.85407e-08)
(1.61296 0.00177496 1.10358e-07)
(0.916688 0.00583468 3.80529e-07)
(-0.0668233 0.0205681 6.15287e-07)
(-0.281211 0.0226555 -3.5706e-07)
(0.33483 0.0158226 -1.94867e-07)
(0.135466 0.0191314 2.26202e-08)
(-0.0365703 0.0242104 -2.86063e-08)
(0.0776676 0.020221 1.12648e-07)
(0.10303 0.0206817 3.40081e-08)
(0.0888984 0.019282 -2.14464e-08)
(0.11305 0.018451 -5.683e-08)
(0.132622 0.0185891 -7.86014e-08)
(0.146471 0.0193081 -9.44889e-08)
(0.15228 0.0205185 -7.27152e-08)
(0.152425 0.0214698 -2.38498e-08)
(0.145337 0.0224337 -5.39444e-09)
(0.133571 0.0233154 -2.17571e-08)
(0.115776 0.0242936 -5.29667e-08)
(0.0955032 0.0251922 -7.68301e-08)
(0.0665736 0.0260808 -8.33836e-08)
(0.041598 0.0266419 -6.66835e-08)
(-0.00272439 0.0277965 7.48276e-09)
(0.011332 0.0278399 5.96375e-08)
(1.75076 0.00056554 1.02989e-08)
(1.74385 0.00190161 2.80298e-08)
(1.61737 0.00558836 1.07219e-07)
(0.933183 0.0184017 3.74607e-07)
(-0.0598721 0.0640981 6.60726e-07)
(-0.28668 0.0626698 -3.77703e-07)
(0.329032 0.0379284 -2.09065e-07)
(0.138454 0.0473588 5.99899e-08)
(-0.0373277 0.0580221 3.96323e-08)
(0.0751967 0.0435743 5.27365e-08)
(0.10463 0.0450083 7.76497e-09)
(0.0900478 0.0422653 -2.12572e-08)
(0.114829 0.0409346 -4.7583e-08)
(0.134793 0.0414961 -6.53847e-08)
(0.149265 0.0423741 -8.33666e-08)
(0.155111 0.0440265 -6.3668e-08)
(0.155024 0.0454564 -3.42593e-08)
(0.147808 0.0472157 -1.236e-08)
(0.13594 0.0490881 -2.42356e-08)
(0.117903 0.0513101 -5.28074e-08)
(0.0971335 0.0533978 -7.42718e-08)
(0.0676593 0.0554295 -8.04532e-08)
(0.042209 0.056727 -6.36568e-08)
(-0.00276529 0.0583137 8.89677e-09)
(0.0111457 0.0577804 6.25801e-08)
(1.75192 0.00095793 1.11871e-08)
(1.7472 0.00324412 2.75507e-08)
(1.62699 0.00939193 1.00813e-07)
(0.97178 0.0309014 3.47258e-07)
(-0.0376639 0.109498 6.63385e-07)
(-0.292602 0.107206 -3.36128e-07)
(0.320924 0.0632183 -1.67581e-07)
(0.149842 0.0799406 6.53666e-08)
(-0.0320591 0.0974815 9.4204e-08)
(0.0739445 0.0739387 -5.92264e-09)
(0.109844 0.0759542 -2.67239e-08)
(0.093027 0.0727423 -7.6628e-09)
(0.11826 0.0713332 -1.87591e-08)
(0.137936 0.0725152 -7.19462e-08)
(0.152902 0.0742385 -7.25532e-08)
(0.159353 0.0769889 -6.65245e-08)
(0.159572 0.0791364 -4.92369e-08)
(0.152306 0.0820297 -3.25807e-08)
(0.140315 0.0854794 -3.35762e-08)
(0.12211 0.089313 -5.32526e-08)
(0.100844 0.0930669 -6.96482e-08)
(0.0707562 0.0965754 -7.45901e-08)
(0.0444805 0.0992952 -6.02454e-08)
(-0.00155915 0.10243 1.18498e-08)
(0.0113952 0.101877 6.36693e-08)
(1.75391 0.00127905 1.25623e-08)
(1.75218 0.00445901 2.81964e-08)
(1.64098 0.012579 1.01588e-07)
(1.03001 0.0410491 3.51494e-07)
(-0.00323503 0.148405 7.48131e-07)
(-0.299183 0.154303 -3.02034e-07)
(0.306915 0.0882614 -1.61689e-07)
(0.166789 0.111606 1.13798e-07)
(-0.0232718 0.136332 6.18342e-08)
(0.0713101 0.105512 -7.8336e-08)
(0.117098 0.10539 -1.59416e-08)
(0.0972937 0.101811 4.67875e-08)
(0.12258 0.0997924 6.22926e-08)
(0.142377 0.101019 -9.59171e-09)
(0.158492 0.103747 -5.31242e-08)
(0.165459 0.107817 -6.73585e-08)
(0.165877 0.110895 -6.94425e-08)
(0.158926 0.114993 -6.43121e-08)
(0.146883 0.120222 -4.92863e-08)
(0.128395 0.125919 -5.76572e-08)
(0.10645 0.131568 -6.63671e-08)
(0.0756121 0.13681 -6.96533e-08)
(0.0487467 0.141569 -5.0476e-08)
(0.00137881 0.146967 2.49715e-08)
(0.0121219 0.146818 6.64772e-08)
(1.75713 0.00147857 1.34443e-08)
(1.75863 0.00555307 2.76945e-08)
(1.65827 0.015069 9.59258e-08)
(1.10379 0.0487306 3.31984e-07)
(0.0443884 0.179407 7.85083e-07)
(-0.303649 0.204244 -2.45293e-07)
(0.283163 0.113285 -1.76779e-07)
(0.189002 0.141903 1.28228e-07)
(-0.0108399 0.173741 -2.12795e-08)
(0.0667149 0.138134 -9.94508e-09)
(0.125205 0.133619 -3.83952e-08)
(0.102898 0.13085 6.8709e-08)
(0.127592 0.128287 1.3112e-07)
(0.147174 0.129362 4.25135e-08)
(0.164758 0.132938 -1.70896e-08)
(0.172701 0.137945 -5.18353e-08)
(0.173718 0.142173 -9.30747e-08)
(0.167369 0.14744 -8.43052e-08)
(0.155527 0.154321 -6.38581e-08)
(0.136879 0.16217 -6.42893e-08)
(0.114242 0.170016 -6.51011e-08)
(0.0828683 0.177692 -6.13679e-08)
(0.055402 0.185491 -3.64675e-08)
(0.00615266 0.193847 3.88191e-08)
(0.0135094 0.194465 8.6364e-08)
(1.76177 0.00151196 1.2263e-08)
(1.76626 0.00650046 3.03673e-08)
(1.67804 0.0167399 9.16888e-08)
(1.19003 0.0538541 3.0449e-07)
(0.107443 0.201166 7.79091e-07)
(-0.302564 0.257239 -1.57332e-07)
(0.246654 0.139438 -2.12345e-07)
(0.216277 0.170731 1.35806e-07)
(0.00304455 0.210023 6.64963e-09)
(0.0610994 0.172653 -6.81651e-08)
(0.134311 0.16088 6.20067e-09)
(0.110598 0.160193 1.10895e-07)
(0.133306 0.156804 1.25228e-07)