/*--------------------------------*- C++ -*----------------------------------*\
| =========                 |                                                 |
| \\      /  F ield         | OpenFOAM: The Open Source CFD Toolbox           |
|  \\    /   O peration     | Version:  4.1                                   |
|   \\  /    A nd           | Web:      www.OpenFOAM.org                      |
|    \\/     M anipulation  |                                                 |
\*---------------------------------------------------------------------------*/
FoamFile
{
    version     2.0;
    format      ascii;
    class       surfaceScalarField;
    location    "4.34";
    object      phi;
}
// * * * * * * * * * * * * * * * * * * * * * * * * * * * * * * * * * * * * * //

dimensions      [1 0 -1 0 0 0 0];

internalField   nonuniform List<scalar> 
150500
(
0.0168001
1.80806e-10
-3.38927e-12
0.0168001
9.97911e-10
-1.16462e-11
0.0168001
3.72313e-09
-1.34672e-11
0.0168
9.52272e-09
-2.17017e-11
0.0168
2.64432e-08
-2.13325e-11
0.0168
6.04064e-08
-2.92342e-11
0.0167998
1.6059e-07
-2.92283e-11
0.0167995
3.54166e-07
-4.0337e-11
0.0167984
9.82758e-07
-4.17896e-11
0.0167964
2.10638e-06
-7.78569e-11
0.0167895
6.63814e-06
-9.47604e-11
0.0167745
1.54687e-05
-2.32843e-10
0.0167113
6.25788e-05
-2.71186e-10
0.0165297
0.000181696
-1.13621e-09
0.0154592
0.00106984
-2.35786e-09
0.0141776
0.00128171
5.17595e-10
0.0129357
0.00124158
-4.57508e-11
0.0116446
0.00129079
-3.37869e-10
0.0102852
0.00135863
-3.35187e-10
0.0088405
0.00144478
-3.16451e-10
0.00728895
0.00155099
-3.06127e-10
0.00562644
0.00166235
-3.21983e-10
0.00386159
0.00176503
-3.32619e-10
0.00199136
0.00186972
-3.44612e-10
0.00199078
-3.60182e-10
0.0168001
3.47579e-10
-3.38089e-12
0.0168001
1.91749e-09
-1.16473e-11
0.0168001
7.17068e-09
-1.34647e-11
0.0168
1.82991e-08
-2.16929e-11
0.0168
5.09344e-08
-2.13259e-11
0.0168
1.15789e-07
-2.92048e-11
0.0167998
3.121e-07
-2.91767e-11
0.0167995
6.69121e-07
-4.01561e-11
0.0167985
1.97471e-06
-4.16666e-11
0.0167967
4.01554e-06
-7.69134e-11
0.0167895
1.34896e-05
-9.419e-11
0.0167752
3.02134e-05
-2.28304e-10
0.0167055
0.000131725
-2.7618e-10
0.0165184
0.000368945
-1.12065e-09
0.0154457
0.00214185
-2.35747e-09
0.0141319
0.00259576
5.23041e-10
0.012909
0.00246417
-4.14813e-11
0.0116397
0.00255995
-3.38556e-10
0.0102923
0.00270542
-3.35469e-10
0.00883724
0.00289996
-3.14823e-10
0.00726874
0.00311901
-3.01387e-10
0.00559159
0.00333942
-3.16044e-10
0.00380792
0.00354893
-3.26053e-10
0.00192721
0.00374989
-3.3765e-10
0.00391751
-3.53177e-10
0.0168001
5.04679e-10
-3.36838e-12
0.0168001
2.76511e-09
-1.16423e-11
0.0168001
1.0334e-08
-1.34854e-11
0.0168
2.62564e-08
-2.16059e-11
0.0168
7.33708e-08
-2.14285e-11
0.0168
1.66347e-07
-2.90851e-11
0.0167998
4.51064e-07
-2.91713e-11
0.0167995
9.64682e-07
-3.98114e-11
0.0167986
2.85572e-06
-4.16392e-11
0.0167969
5.8246e-06
-7.54964e-11
0.0167902
1.9873e-05
-9.31515e-11
0.0167759
4.49446e-05
-2.22257e-10
0.0167115
0.000195564
-2.73401e-10
0.0165334
0.000547153
-1.08462e-09
0.0155476
0.00312689
-2.33373e-09
0.0142093
0.00393436
5.33911e-10
0.0129817
0.00369152
-3.47915e-11
0.0117227
0.00381875
-3.40847e-10
0.0103867
0.00404076
-3.39001e-10
0.00893222
0.00435458
-3.17176e-10
0.00735841
0.0046924
-2.98565e-10
0.00566488
0.00503285
-3.10177e-10
0.00385437
0.00535974
-3.18265e-10
0.00194938
0.00565438
-3.2717e-10
0.00586643
-3.39845e-10
0.0168001
5.74952e-10
-3.34846e-12
0.0168001
3.1954e-09
-1.16371e-11
0.0168001
1.19536e-08
-1.3503e-11
0.0168001
3.04513e-08
-2.15041e-11
0.0168
8.45208e-08
-2.1515e-11
0.0168
1.89744e-07
-2.89041e-11
0.0167999
5.27693e-07
-2.90313e-11
0.0167999
1.01901e-06
-3.90038e-11
0.016799
3.71409e-06
-4.11403e-11
0.0167992
5.67301e-06
-7.14653e-11
0.0167903
2.85177e-05
-8.88504e-11
0.0167819
5.37786e-05
-2.10113e-10
0.0167192
0.000257658
-2.6312e-10
0.0165671
0.000699342
-1.03214e-09
0.0157473
0.00394577
-2.33235e-09
0.0143902
0.00529183
4.80972e-10
0.0131543
0.00492717
-5.58939e-11
0.0119019
0.00507095
-3.37934e-10
0.0105763
0.00536578
-3.35716e-10
0.00912907
0.00580186
-3.13514e-10
0.00755429
0.00626674
-2.95359e-10
0.00585447
0.00673259
-3.03746e-10
0.00401131
0.0072032
-3.08627e-10
0.00203242
0.0076328
-3.13155e-10
0.00789842
-3.2156e-10
0.0168001
7.50545e-10
-3.34062e-12
0.0168001
4.14644e-09
-1.16052e-11
0.0168001
1.54491e-08
-1.35965e-11
0.0168
3.94701e-08
-2.13797e-11
0.0168
1.09278e-07
-2.18634e-11
0.0168
2.48097e-07
-2.90555e-11
0.0167998
6.70065e-07
-2.98225e-11
0.0167995
1.38901e-06
-4.28143e-11
0.0167987
4.47936e-06
-3.80248e-11
0.0167972
7.23453e-06
-1.13636e-10
0.0167917
3.37458e-05
-2.52823e-12
0.016782
6.38069e-05
-3.10007e-10
0.0167439
0.000295154
-7.67228e-11
0.0166441
0.000799292
-9.23229e-10
0.0161651
0.00442372
-2.07244e-09
0.0147851
0.00667224
3.36317e-10
0.0134933
0.00621881
-1.84287e-10
0.0122207
0.00634336
-3.68792e-10
0.0109068
0.00667901
-3.49881e-10
0.00946487
0.00724396
-3.14165e-10
0.00788548
0.00784558
-3.0276e-10
0.00615413
0.00846376
-3.06271e-10
0.00426062
0.00909702
-3.05505e-10
0.00219805
0.00969495
-3.03787e-10
0.010096
-3.06495e-10
0.0168001
9.13789e-10
-3.31486e-12
0.0168001
5.02232e-09
-1.15787e-11
0.0168001
1.87129e-08
-1.35683e-11
0.0168
4.78378e-08
-2.12563e-11
0.0168
1.3266e-07
-2.15614e-11
0.0168
3.0312e-07
-2.83176e-11
0.0167998
8.0176e-07
-2.83321e-11
0.0167995
1.77374e-06
-3.64288e-11
0.016799
4.90751e-06
-3.87265e-11
0.0167962
1.00365e-05
-6.86943e-11
0.0167955
3.43129e-05
-4.88956e-11
0.0167897
6.99018e-05
-2.17592e-10
0.0167823
0.000302028
-1.61659e-10
0.0167689
0.000812832
-8.17157e-10
0.016871
0.00432036
-1.90704e-09
0.0154644
0.00807923
2.24794e-10
0.0140349
0.00764826
-1.97637e-10
0.0127094
0.0076687
-3.47897e-10
0.0113834
0.00800444
-3.34023e-10
0.00996537
0.00866197
-3.06517e-10
0.00837405
0.00943681
-3.04762e-10
0.00661954
0.0102184
-3.07435e-10
0.00465187
0.0110651
-3.02861e-10
0.00242817
0.0119183
-2.97427e-10
0.0125238
-2.97322e-10
0.0168001
9.56623e-10
-3.27792e-12
0.0168001
5.29211e-09
-1.15848e-11
0.0168001
1.9699e-08
-1.35454e-11
0.0168001
5.0543e-08
-2.1231e-11
0.0168
1.39049e-07
-2.14755e-11
0.0168
3.18054e-07
-2.81738e-11
0.0168
8.29318e-07
-2.79356e-11
0.0167999
1.84385e-06
-3.56447e-11
0.0167999
4.88146e-06
-3.81757e-11
0.0167994
1.06473e-05
-5.56417e-11
0.0168023
3.12329e-05
-6.29844e-11
0.0168031
6.9316e-05
-1.77207e-10
0.0168502
0.000254443
-1.91407e-10
0.0169812
0.000681975
-7.44208e-10
0.0180688
0.00323136
-1.85223e-09
0.0166479
0.00950043
5.88547e-12
0.0148662
0.00943004
-2.08468e-10
0.0134573
0.00907755
-2.9104e-10
0.012104
0.00935712
-2.9261e-10
0.0106614
0.0101048
-2.88195e-10
0.00906216
0.0110352
-2.89561e-10
0.00725475
0.0120257
-2.96643e-10
0.00520991
0.0131103
-2.94468e-10
0.00282987
0.0142981
-2.89166e-10
0.0153533
-2.87078e-10
0.0168001
1.03141e-09
-3.24497e-12
0.0168001
5.73342e-09
-1.15935e-11
0.0168001
2.13893e-08
-1.35421e-11
0.0168001
5.51362e-08
-2.12243e-11
0.0168
1.51568e-07
-2.14438e-11
0.0168
3.48012e-07
-2.81055e-11
0.0167999
9.03764e-07
-2.77289e-11
0.0167997
2.03239e-06
-3.51749e-11
0.0167994
5.25467e-06
-3.69117e-11
0.0167982
1.18549e-05
-5.28231e-11
0.0167981
3.11629e-05
-5.40292e-11
0.0167909
7.67947e-05
-1.63633e-10
0.016812
0.000232775
-1.1593e-10
0.0168433
0.000650927
-5.31694e-10
0.0172643
0.00280943
-9.50607e-10
0.0167041
0.0100601
-7.94845e-10
0.0151775
0.0109563
-3.84424e-10
0.0140256
0.0102295
-2.9362e-10
0.0127864
0.0105959
-2.88548e-10
0.0114242
0.0114672
-2.81266e-10
0.00987825
0.0125811
-2.79789e-10
0.00810196
0.0138017
-2.83947e-10
0.00601218
0.0152004
-2.80969e-10
0.00342704
0.0168832
-2.7548e-10
0.01878
-2.72798e-10
0.0168001
1.39586e-09
-3.21885e-12
0.0168001
6.23219e-09
-1.15935e-11
0.0168001
2.54262e-08
-1.35558e-11
0.0168
6.1153e-08
-2.12234e-11
0.0168
1.78591e-07
-2.14744e-11
0.0168
3.90262e-07
-2.81651e-11
0.0167998
1.04464e-06
-2.79426e-11
0.0167995
2.36476e-06
-3.57581e-11
0.0167993
5.47854e-06
-3.72268e-11
0.0167974
1.38041e-05
-5.97379e-11
0.0167966
3.17805e-05
-4.26576e-11
0.0168001
7.34737e-05
-1.82161e-10
0.0167945
0.000237891
-5.87409e-11
0.0168057
0.000640079
-4.97987e-10
0.017016
0.00259846
-7.25544e-10
0.0163254
0.0107498
-1.26834e-09
0.0157375
0.0115437
-3.31698e-10
0.0145324
0.0114341
-2.67514e-10
0.0133117
0.0118158
-2.65108e-10
0.0121554
0.0126235
-2.66866e-10
0.0107606
0.0139759
-2.68585e-10
0.00914242
0.0154197
-2.67742e-10
0.00719718
0.0171459
-2.63999e-10
0.00450815
0.0195721
-2.523e-10
0.023288
-2.48561e-10
0.0168001
-3.24091e-12
2.00009e-09
0.0168001
-1.16276e-11
1.47282e-09
0.0168001
-1.36235e-11
2.64687e-08
0.0168001
-2.18661e-11
2.25894e-08
0.0168001
-2.11787e-11
1.74349e-07
0.0168003
-2.91053e-11
1.47012e-07
0.0168003
-2.8077e-11
1.05909e-06
0.016802
-3.7385e-11
7.39283e-07
0.0168003
-3.60665e-11
7.15576e-06
0.0168113
-5.93192e-11
2.96116e-06
0.0167893
-6.00188e-11
5.37904e-05
0.016852
-1.34076e-10
1.08981e-05
0.0167086
-6.12858e-11
0.000380818
0.0169906
-5.23288e-10
0.000358167
0.0169407
-5.51076e-10
0.00264798
0.0165506
-1.46287e-09
0.0111389
0.0157045
-2.33824e-10
0.0123893
0.0148393
-1.98144e-10
0.0122989
0.0139204
-2.37849e-10
0.0127341
0.0129167
-2.44971e-10
0.0136269
0.0118425
-2.48862e-10
0.0150498
0.010562
-2.46227e-10
0.0167001
0.00880092
-2.3882e-10
0.0189071
0.00621804
-2.20363e-10
0.0221549
-2.01636e-10
0.0295057
0.0168001
1.84925e-10
-5.09516e-16
0.0168001
1.00069e-09
-2.71254e-15
0.0168001
3.72775e-09
-5.90315e-15
0.0168
9.53052e-09
-1.25145e-14
0.0168
2.64579e-08
-2.26129e-14
0.0168
6.04272e-08
-4.27653e-14
0.0167998
1.60641e-07
-8.64848e-14
0.0167995
3.543e-07
-1.70614e-13
0.0167984
9.82948e-07
-3.87606e-13
0.0167964
2.10704e-06
-8.09623e-13
0.0167894
6.63909e-06
-2.20874e-12
0.0167745
1.5472e-05
-5.18334e-12
0.0167113
6.25795e-05
-1.28463e-11
0.0165297
0.00018171
-4.2919e-11
0.0154592
0.00106988
-1.1266e-10
0.0141776
0.00128168
2.69634e-11
0.0129357
0.00124158
-1.34246e-12
0.0116446
0.00129078
-1.24122e-11
0.0102852
0.00135862
-1.12121e-11
0.00884051
0.00144476
-9.59655e-12
0.00728899
0.00155097
-1.14218e-11
0.00562649
0.00166234
-1.34565e-11
0.00386164
0.00176503
-1.47026e-11
0.0019914
0.00186973
-1.5956e-11
0.00199082
-1.71476e-11
0.0168001
3.53843e-10
-4.94241e-16
0.0168001
1.92577e-09
-2.64804e-15
0.0168001
7.16802e-09
-5.67577e-15
0.0168
1.83448e-08
-1.20199e-14
0.0168
5.09135e-08
-2.11318e-14
0.0168
1.15853e-07
-3.92936e-14
0.0167998
3.12156e-07
-7.96021e-14
0.0167995
6.69382e-07
-1.40354e-13
0.0167985
1.97501e-06
-3.91285e-13
0.0167967
4.01668e-06
-6.36759e-13
0.0167895
1.34917e-05
-2.27918e-12
0.0167752
3.0219e-05
-4.25286e-12
0.0167054
0.000131736
-1.70004e-11
0.0165184
0.000368982
-4.28836e-11
0.0154456
0.00214198
-1.18985e-10
0.0141317
0.00259572
3.03241e-11
0.0129089
0.00246415
2.08047e-12
0.0116396
0.00255992
-1.1339e-11
0.0102922
0.00270538
-1.07279e-11
0.0088372
0.00289992
-9.51652e-12
0.00726873
0.00311897
-1.0757e-11
0.0055916
0.00333939
-1.25007e-11
0.00380794
0.00354892
-1.37502e-11
0.00192723
0.0037499
-1.50145e-11
0.00391756
-1.61652e-11
0.0168001
5.14061e-10
-4.92274e-16
0.0168001
2.77503e-09
-2.63906e-15
0.0168001
1.03346e-08
-5.65527e-15
0.0168
2.63041e-08
-1.19672e-14
0.0168
7.33559e-08
-2.10792e-14
0.0168
1.664e-07
-3.92018e-14
0.0167998
4.51112e-07
-7.98628e-14
0.0167995
9.64836e-07
-1.41599e-13
0.0167986
2.85573e-06
-3.96583e-13
0.0167969
5.82439e-06
-6.51074e-13
0.0167902
1.98753e-05
-2.35599e-12
0.0167759
4.49536e-05
-4.41039e-12
0.0167115
0.000195585
-1.77115e-11
0.0165334
0.000547233
-4.457e-11
0.0155474
0.00312715
-1.25206e-10
0.0142091
0.00393432
3.50162e-11
0.0129816
0.00369147
4.92225e-12
0.0117226
0.0038187
-1.09003e-11
0.0103866
0.0040407
-1.0719e-11
0.00893213
0.00435451
-9.74948e-12
0.00735835
0.00469232
-1.00982e-11
0.00566485
0.00503279
-1.12471e-11
0.00385436
0.0053597
-1.23256e-11
0.00194938
0.00565437
-1.33981e-11
0.00586648
-1.43514e-11
0.0168001
5.79843e-10
-4.91899e-16
0.0168001
3.21713e-09
-2.63698e-15
0.0168001
1.19289e-08
-5.65854e-15
0.0168001
3.05122e-08
-1.1966e-14
0.0168
8.44175e-08
-2.11719e-14
0.0168
1.89705e-07
-3.94359e-14
0.0167999
5.2743e-07
-8.07929e-14
0.0167999
1.01783e-06
-1.44881e-13
0.016799
3.71566e-06
-4.02702e-13
0.0167993
5.65854e-06
-6.73699e-13
0.0167903
2.85564e-05
-2.42071e-12
0.0167819
5.37399e-05
-4.49351e-12
0.0167191
0.000257777
-1.80914e-11
0.016567
0.000699466
-4.53431e-11
0.0157469
0.00394632
-1.30053e-10
0.0143897
0.00529181
3.82256e-11
0.013154
0.00492701
6.13814e-12
0.0119017
0.00507084
-1.08984e-11
0.010576
0.00536567
-1.07918e-11
0.00912887
0.00580176
-9.8132e-12
0.00755414
0.00626662
-9.59644e-12
0.00585437
0.00673248
-9.93673e-12
0.00401125
0.00720312
-1.07337e-11
0.00203239
0.00763276
-1.15155e-11
0.00789844
-1.22341e-11
0.0168001
7.63391e-10
-4.73556e-16
0.0168001
4.17012e-09
-2.58141e-15
0.0168001
1.54826e-08
-5.44691e-15
0.0168
3.95523e-08
-1.12406e-14
0.0168
1.09492e-07
-1.97977e-14
0.0168
2.48575e-07
-3.53471e-14
0.0167998
6.71093e-07
-7.29334e-14
0.0167994
1.39281e-06
-1.06456e-13
0.0167986
4.48087e-06
-4.23341e-13
0.0167971
7.25549e-06
-3.22667e-13
0.0167917
3.37344e-05
-3.81169e-12
0.016782
6.38585e-05
-3.6353e-12
0.016744
0.000295133
-1.9379e-11
0.0166442
0.000799388
-4.57553e-11
0.0161653
0.00442415
-1.36469e-10
0.0147853
0.00667222
3.93804e-11
0.0134934
0.00621877
8.10123e-12
0.0122207
0.00634333
-1.02357e-11
0.0109068
0.00667895
-1.05312e-11
0.00946479
0.00724388
-9.66858e-12
0.00788538
0.00784547
-8.93468e-12
0.00615404
0.00846364
-8.74447e-12
0.00426055
0.00909691
-9.27559e-12
0.00219802
0.00969488
-9.68331e-12
0.010096
-1.00988e-11
0.0168001
9.3193e-10
-4.89372e-16
0.0168001
5.03416e-09
-2.63882e-15
0.0168001
1.87407e-08
-5.6805e-15
0.0168
4.78786e-08
-1.17939e-14
0.0168
1.32756e-07
-2.14287e-14
0.0168
3.03315e-07
-3.95084e-14
0.0167998
8.02226e-07
-8.03342e-14
0.0167995
1.77484e-06
-1.50501e-13
0.016799
4.90935e-06
-3.95334e-13
0.0167963
1.00459e-05
-6.32124e-13
0.0167955
3.43159e-05
-2.5996e-12
0.0167897
6.99276e-05
-4.09205e-12
0.0167823
0.000302041
-1.80717e-11
0.0167689
0.000812914
-4.41603e-11
0.016871
0.00432085
-1.3605e-10
0.0154645
0.00807906
3.52308e-11
0.014035
0.00764819
8.98e-12
0.0127095
0.00766868
-9.3873e-12
0.0113834
0.00800443
-1.03142e-11
0.00996538
0.00866191
-1.0517e-11
0.00837403
0.00943673
-8.61965e-12
0.0066195
0.0102183
-7.85402e-12
0.00465182
0.011065
-7.78385e-12
0.00242814
0.0119182
-7.88505e-12
0.0125238
-7.98479e-12
0.0168001
9.73069e-10
-4.83194e-16
0.0168001
5.30131e-09
-2.60918e-15
0.0168001
1.9713e-08
-5.59112e-15
0.0168001
5.05613e-08
-1.15899e-14
0.0168
1.39085e-07
-2.0875e-14
0.0168
3.18123e-07
-3.82739e-14
0.0168
8.29482e-07
-7.70502e-14
0.0167999
1.84421e-06
-1.43465e-13
0.0167999
4.88236e-06
-3.64165e-13
0.0167994
1.06493e-05
-6.64065e-13
0.0168023
3.12394e-05
-2.28946e-12
0.0168031
6.93272e-05
-3.82971e-12
0.0168502
0.000254498
-1.64899e-11
0.0169811
0.000682139
-4.08106e-11
0.0180683
0.00323233
-1.33357e-10
0.0166475
0.00950017
2.26443e-11
0.0148661
0.00942969
5.38267e-12
0.0134572
0.00907744
-8.63786e-12
0.012104
0.00935705
-1.00008e-11
0.0106613
0.0101047
-1.04865e-11
0.00906215
0.0110351
-7.91785e-12
0.00725473
0.0120256
-7.13321e-12
0.00520988
0.0131102
-6.59823e-12
0.00282985
0.014298
-6.23413e-12
0.0153532
-5.88789e-12
0.0168001
1.04282e-09
-4.70076e-16
0.0168001
5.73805e-09
-2.54933e-15
0.0168001
2.13827e-08
-5.39596e-15
0.0168001
5.51074e-08
-1.11683e-14
0.0168
1.51486e-07
-1.95956e-14
0.0168
3.47899e-07
-3.56651e-14
0.0167999
9.035e-07
-6.87424e-14
0.0167997
2.03187e-06
-1.27743e-13
0.0167994
5.25403e-06
-3.00984e-13
0.0167982
1.18518e-05
-5.85034e-13
0.0167981
3.11673e-05
-1.54462e-12
0.0167909
7.67861e-05
-3.65306e-12
0.0168121
0.000232814
-9.67372e-12
0.0168435
0.00065098
-2.51246e-11
0.0172651
0.00280984
-6.49331e-11
0.0167045
0.0100602
-4.52234e-11
0.0151775
0.0109563
-1.49494e-11
0.0140256
0.0102294
-1.2613e-11
0.0127864
0.0105959
-1.2778e-11
0.0114242
0.0114671
-1.22015e-11
0.00987826
0.012581
-9.34106e-12
0.00810196
0.0138016
-7.62663e-12
0.00601217
0.0152003
-6.36278e-12
0.00342702
0.0168831
-5.26373e-12
0.0187799
-4.13715e-12
0.0168001
1.37223e-09
-4.67073e-16
0.0168001
6.33912e-09
-2.52949e-15
0.0168001
2.54659e-08
-5.35669e-15
0.0168
6.09147e-08
-1.10825e-14
0.0168
1.78615e-07
-1.94746e-14
0.0168
3.89852e-07
-3.55423e-14
0.0167998
1.04444e-06
-6.85693e-14
0.0167995
2.36407e-06
-1.31336e-13
0.0167993
5.47833e-06
-2.82382e-13
0.0167973
1.38047e-05
-6.78414e-13
0.0167966
3.17748e-05
-1.1026e-12
0.0168001
7.34913e-05
-4.03517e-12
0.0167945
0.000237894
-6.73168e-12
0.0168057
0.000640107
-2.12751e-11
0.0170163
0.00259866
-5.17072e-11
0.0163256
0.0107498
-8.08708e-11
0.0157377
0.0115436
-1.5659e-11
0.0145326
0.0114341
-1.24083e-11
0.0133118
0.0118158
-1.28569e-11
0.0121554
0.0126235
-1.23867e-11
0.0107607
0.0139758
-1.05625e-11
0.00914246
0.0154196
-8.39389e-12
0.0071972
0.0171458
-7.08005e-12
0.00450816
0.0195721
-4.68521e-12
0.0232879
-3.21417e-12
0.0168001
-4.55545e-16
1.8645e-09
0.0168001
-2.45115e-15
1.83834e-09
0.0168001
-5.08695e-15
2.52718e-08
0.0168001
-1.0738e-14
2.31062e-08
0.0168001
-1.74363e-14
1.72944e-07
0.0168003
-3.2043e-14
1.47661e-07
0.0168003
-5.66764e-14
1.05802e-06
0.016802
-1.05086e-13
7.40399e-07
0.0168003
-2.2369e-13
7.15457e-06
0.0168113
-4.33329e-13
2.96694e-06
0.0167893
-1.12019e-12
5.37876e-05
0.016852
-2.47741e-12
1.09189e-05
0.0167087
-5.60885e-12
0.000380783
0.0169905
-2.12953e-11
0.000358272
0.0169409
-4.31811e-11
0.00264795
0.0165507
-9.68511e-11
0.011139
0.0157047
-1.13708e-11
0.0123892
0.0148395
-9.31403e-12
0.0122989
0.0139205
-1.19471e-11
0.0127342
0.0129168
-1.19364e-11
0.0136269
0.0118426
-1.05828e-11
0.0150498
0.0105621
-9.43147e-12
0.0167001
0.00880097
-7.41395e-12
0.018907
0.00621808
-4.83077e-12
0.0221548
-2.81465e-12
0.0295057
0.0168001
1.84932e-10
1.75711e-16
0.0168001
1.00073e-09
1.58548e-16
0.0168001
3.72788e-09
-7.27415e-17
0.0168
9.53084e-09
-1.56948e-16
0.0168
2.64589e-08
-4.06898e-16
0.0168
6.04295e-08
-8.36893e-16
0.0167998
1.60646e-07
-2.0143e-15
0.0167995
3.54318e-07
-4.47461e-15
0.0167984
9.82957e-07
-8.85506e-15
0.0167964
2.10713e-06
-2.18834e-14
0.0167894
6.63911e-06
-4.41111e-14
0.0167745
1.54725e-05
-1.14152e-13
0.0167113
6.25772e-05
-1.43338e-13
0.0165297
0.000181709
-5.54365e-13
0.0154592
0.00106987
-8.43164e-13
0.0141777
0.00128167
6.91942e-13
0.0129357
0.00124158
-6.05169e-13
0.0116446
0.00129078
-9.24668e-13
0.0102852
0.00135862
-8.82791e-13
0.00884054
0.00144476
-8.77568e-13
0.00728901
0.00155097
-1.08839e-12
0.00562651
0.00166235
-1.24948e-12
0.00386165
0.00176504
-1.33553e-12
0.00199141
0.00186973
-1.4323e-12
0.00199082
-1.50797e-12
0.0168001
3.53844e-10
1.7385e-16
0.0168001
1.92577e-09
1.67634e-16
0.0168001
7.16805e-09
-6.50055e-17
0.0168
1.83449e-08
-1.40195e-16
0.0168
5.09137e-08
-3.60617e-16
0.0168
1.15853e-07
-7.30078e-16
0.0167998
3.12157e-07
-1.8299e-15
0.0167995
6.69383e-07
-3.59541e-15
0.0167985
1.97502e-06
-9.28979e-15
0.0167967
4.01667e-06
-1.73041e-14
0.0167895
1.34917e-05
-4.86736e-14
0.0167752
3.02189e-05
-9.51901e-14
0.0167054
0.000131735
-2.68864e-13
0.0165184
0.00036898
-6.12955e-13
0.0154456
0.00214197
-1.19329e-12
0.0141317
0.00259571
8.14557e-13
0.0129089
0.00246415
-3.75063e-13
0.0116396
0.00255992
-8.74418e-13
0.0102922
0.00270538
-8.64651e-13
0.00883721
0.00289992
-8.77643e-13
0.00726874
0.00311897
-1.02823e-12
0.00559161
0.00333939
-1.17143e-12
0.00380795
0.00354892
-1.26473e-12
0.00192723
0.00374991
-1.3515e-12
0.00391757
-1.42037e-12
0.0168001
5.14062e-10
1.73487e-16
0.0168001
2.77503e-09
1.68361e-16
0.0168001
1.03346e-08
-6.56484e-17
0.0168
2.63042e-08
-1.41643e-16
0.0168
7.3356e-08
-3.68706e-16
0.0168
1.66401e-07
-7.47124e-16
0.0167998
4.51112e-07
-1.90601e-15
0.0167995
9.64838e-07
-3.75383e-15
0.0167986
2.85573e-06
-9.95172e-15
0.0167969
5.8244e-06
-1.85024e-14
0.0167902
1.98753e-05
-5.43666e-14
0.0167759
4.49536e-05
-1.0637e-13
0.0167115
0.000195585
-3.18854e-13
0.0165334
0.000547233
-7.37877e-13
0.0155474
0.00312714
-1.57757e-12
0.0142091
0.00393431
1.00781e-12
0.0129816
0.00369147
-2.48513e-13
0.0117226
0.0038187
-8.75424e-13
0.0103866
0.0040407
-8.82784e-13
0.00893213
0.00435451
-8.99189e-13
0.00735835
0.00469232
-9.51788e-13
0.00566485
0.0050328
-1.05456e-12
0.00385437
0.00535971
-1.08777e-12
0.00194939
0.00565438
-1.17378e-12
0.00586649
-1.24542e-12
0.0168001
5.7985e-10
1.73261e-16
0.0168001
3.21715e-09
1.68005e-16
0.0168001
1.1929e-08
-6.73501e-17
0.0168001
3.05125e-08
-1.45273e-16
0.0168
8.44182e-08
-3.81476e-16
0.0168
1.89707e-07
-7.73202e-16
0.0167999
5.27434e-07
-1.99809e-15
0.0167999
1.01785e-06
-3.92938e-15
0.016799
3.71565e-06
-1.06399e-14
0.0167993
5.65868e-06
-1.96301e-14
0.0167903
2.85561e-05
-5.94481e-14
0.0167819
5.37403e-05
-1.14602e-13
0.0167191
0.000257776
-3.61366e-13
0.016567
0.000699467
-8.39373e-13
0.0157469
0.00394632
-1.92512e-12
0.0143897
0.0052918
1.1299e-12
0.013154
0.00492701
-2.32648e-13
0.0119017
0.00507084
-9.02099e-13
0.010576
0.00536567
-8.9655e-13
0.00912887
0.00580176
-9.29252e-13
0.00755415
0.00626662
-7.7922e-13
0.00585437
0.00673249
-1.07633e-12
0.00401125
0.00720313
-9.96296e-13
0.0020324
0.00763277
-1.04066e-12
0.00789846
-1.07228e-12
0.0168001
7.63383e-10
1.70221e-16
0.0168001
4.1701e-09
1.73894e-16
0.0168001
1.54824e-08
-6.52571e-17
0.0168
3.9552e-08
-1.40713e-16
0.0168
1.09491e-07
-3.71499e-16
0.0168
2.48572e-07
-7.5055e-16
0.0167998
6.71089e-07
-1.98886e-15
0.0167994
1.39279e-06
-3.71638e-15
0.0167986
4.48088e-06
-1.13702e-14
0.0167971
7.25537e-06
-1.79972e-14
0.0167917
3.37346e-05
-6.89421e-14
0.016782
6.38583e-05
-1.181e-13
0.016744
0.000295134
-4.12322e-13
0.0166442
0.000799391
-9.51809e-13
0.0161653
0.00442417
-2.38161e-12
0.0147853
0.0066722
1.15831e-12
0.0134934
0.00621876
-1.82864e-13
0.0122207
0.00634333
-9.51303e-13
0.0109067
0.00667895
-8.78453e-13
0.00946479
0.00724388
-1.07726e-12
0.00788538
0.00784547
-6.29416e-13
0.00615404
0.00846364
-9.18053e-13
0.00426055
0.00909692
-7.43069e-13
0.00219802
0.00969489
-8.26474e-13
0.010096
-8.63829e-13
0.0168001
9.31932e-10
1.72597e-16
0.0168001
5.03418e-09
1.67233e-16
0.0168001
1.87407e-08
-6.9588e-17
0.0168
4.78787e-08
-1.50314e-16
0.0168
1.32756e-07
-3.98934e-16
0.0168
3.03315e-07
-8.1107e-16
0.0167998
8.02228e-07
-2.12193e-15
0.0167995
1.77485e-06
-4.24224e-15
0.016799
4.90937e-06
-1.14966e-14
0.0167963
1.00459e-05
-2.1499e-14
0.0167955
3.43161e-05
-6.74703e-14
0.0167897
6.99279e-05
-1.2872e-13
0.0167823
0.000302043
-4.23199e-13
0.0167689
0.00081292
-1.01122e-12
0.0168709
0.00432089
-2.69755e-12
0.0154645
0.00807905
1.0781e-12
0.014035
0.00764818
-1.08782e-13
0.0127095
0.00766867
-8.53356e-13
0.0113834
0.00800442
-8.16222e-13
0.00996537
0.00866191
-7.1736e-13
0.00837402
0.00943673
-5.21831e-13
0.0066195
0.0102183
-6.85298e-13
0.00465182
0.011065
-6.50031e-13
0.00242814
0.0119182
-6.42907e-13
0.0125238
-6.39552e-13
0.0168001
9.73075e-10
1.71745e-16
0.0168001
5.30135e-09
1.70978e-16
0.0168001
1.97132e-08
-6.70825e-17
0.0168001
5.05616e-08
-1.44786e-16
0.0168
1.39086e-07
-3.86121e-16
0.0168
3.18125e-07
-7.83448e-16
0.0168
8.29488e-07
-2.0674e-15
0.0167999
1.84422e-06
-4.11476e-15
0.0167999
4.8824e-06
-1.12428e-14
0.0167994
1.06494e-05
-2.15469e-14
0.0168023
3.12398e-05
-6.63019e-14
0.0168031
6.93277e-05
-1.27055e-13
0.0168502
0.000254503
-4.30265e-13
0.0169811
0.000682152
-1.05102e-12
0.0180682
0.0032324
-3.10266e-12
0.0166474
0.00950016
6.14633e-13
0.014866
0.00942966
-1.20121e-13
0.0134572
0.00907743
-7.36371e-13
0.0121039
0.00935704
-8.11591e-13
0.0106613
0.0101047
-9.35093e-13
0.00906214
0.0110351
-8.0502e-13
0.00725472
0.0120256
-5.50746e-13
0.00520988
0.0131102
-5.40228e-13
0.00282984
0.014298
-4.95378e-13
0.0153532
-4.37472e-13
0.0168001
1.04282e-09
1.70072e-16
0.0168001
5.73806e-09
1.7902e-16
0.0168001
2.13828e-08
-6.00436e-17
0.0168001
5.51076e-08
-1.29566e-16
0.0168
1.51487e-07
-3.43546e-16
0.0168
3.479e-07
-6.96934e-16
0.0167999
9.03502e-07
-1.8182e-15
0.0167997
2.03188e-06
-3.63573e-15
0.0167994
5.25405e-06
-9.57787e-15
0.0167982
1.18518e-05
-1.92398e-14
0.0167981
3.11676e-05
-4.86486e-14
0.0167909
7.67861e-05
-1.232e-13
0.0168121
0.000232817
-2.77794e-13
0.0168435
0.000650985
-7.25377e-13
0.0172651
0.00280987
-1.72178e-12
0.0167045
0.0100602
-1.1231e-12
0.0151775
0.0109563
-6.10363e-13
0.0140256
0.0102294
-8.77009e-13
0.0127864
0.0105959
-8.61111e-13
0.0114242
0.0114671
-8.2593e-13
0.00987825
0.0125809
-6.53855e-13
0.00810195
0.0138016
-4.5959e-13
0.00601217
0.0152003
-4.18464e-13
0.00342702
0.0168831
-3.68497e-13
0.0187799
-2.8935e-13
0.0168001
1.37223e-09
1.69604e-16
0.0168001
6.33918e-09
1.81279e-16
0.0168001
2.54661e-08
-5.94998e-17
0.0168
6.0915e-08
-1.28588e-16
0.0168
1.78617e-07
-3.47583e-16
0.0168
3.89854e-07
-7.10991e-16
0.0167998
1.04444e-06
-1.87735e-15
0.0167995
2.36409e-06
-3.9046e-15
0.0167993
5.47837e-06
-9.34981e-15
0.0167973
1.38048e-05
-2.36102e-14
0.0167966
3.1775e-05
-3.68375e-14
0.0168001
7.34921e-05
-1.40837e-13
0.0167945
0.000237895
-2.11338e-13
0.0168057
0.000640109
-6.80633e-13
0.0170163
0.00259868
-1.57476e-12
0.0163257
0.0107498
-2.39871e-12
0.0157377
0.0115436
-7.00595e-13
0.0145326
0.0114341
-6.81573e-13
0.0133118
0.0118158
-8.31331e-13
0.0121554
0.0126235
-7.75327e-13
0.0107607
0.0139758
-6.80382e-13
0.00914246
0.0154196
-3.74353e-13
0.00719719
0.0171458
-3.28436e-13
0.00450816
0.0195721
-2.2253e-13
0.0232879
-1.34347e-13
0.0168001
1.68732e-16
1.86448e-09
0.0168001
1.92425e-16
1.83841e-09
0.0168001
-4.70493e-17
2.52718e-08
0.0168001
-1.01705e-16
2.31066e-08
0.0168001
-2.71422e-16
1.72945e-07
0.0168003
-5.56626e-16
1.47663e-07
0.0168003
-1.4325e-15
1.05802e-06
0.016802
-2.98554e-15
7.4041e-07
0.0168003
-7.39268e-15
7.15461e-06
0.0168113
-1.52379e-14
2.96701e-06
0.0167893
-4.05017e-14
5.37878e-05
0.016852
-9.03919e-14
1.09192e-05
0.0167087
-1.99241e-13
0.000380784
0.0169905
-7.4793e-13
0.000358275
0.0169409
-1.44905e-12
0.00264796
0.0165507
-3.1967e-12
0.011139
0.0157047
-5.30524e-13
0.0123892
0.0148395
-5.2168e-13
0.0122989
0.0139205
-7.94858e-13
0.0127342
0.0129168
-6.80924e-13
0.0136269
0.0118426
-6.02141e-13
0.0150498
0.0105621
-4.85652e-13
0.0167001
0.00880097
-3.3536e-13
0.018907
0.00621808
-8.97185e-14
0.0221548
-5.59024e-14
0.0295057
0.0168001
1.84932e-10
5.75305e-18
0.0168001
1.00073e-09
2.35873e-17
0.0168001
3.72789e-09
6.79617e-17
0.0168
9.53085e-09
1.26263e-16
0.0168
2.64589e-08
2.93208e-16
0.0168
6.04296e-08
5.05705e-16
0.0167998
1.60646e-07
1.28627e-15
0.0167995
3.54318e-07
2.33613e-15
0.0167984
9.82957e-07
7.71135e-15
0.0167964
2.10714e-06
1.4012e-14
0.0167894
6.63911e-06
5.735e-14
0.0167745
1.54725e-05
1.26937e-13
0.0167113
6.25772e-05
4.69142e-13
0.0165297
0.000181709
1.52589e-12
0.0154592
0.00106987
4.93887e-12
0.0141777
0.00128167
1.51847e-13
0.0129357
0.00124158
1.83145e-13
0.0116446
0.00129078
2.93244e-13
0.0102852
0.00135862
2.76639e-13
0.00884054
0.00144476
2.23768e-13
0.00728901
0.00155097
8.47551e-14
0.00562651
0.00166235
3.1826e-14
0.00386165
0.00176504
-9.71167e-15
0.00199141
0.00186973
-5.87737e-14
0.00199082
-8.14363e-14
0.0168001
3.53844e-10
5.24737e-18
0.0168001
1.92577e-09
2.16087e-17
0.0168001
7.16805e-09
6.23052e-17
0.0168
1.83449e-08
1.16191e-16
0.0168
5.09137e-08
2.68172e-16
0.0168
1.15853e-07
4.53589e-16
0.0167998
3.12157e-07
1.18273e-15
0.0167995
6.69383e-07
1.89381e-15
0.0167985
1.97501e-06
7.65373e-15
0.0167967
4.01667e-06
1.11203e-14
0.0167895
1.34917e-05
5.75169e-14
0.0167752
3.02189e-05
1.06563e-13
0.0167054
0.000131735
5.46515e-13
0.0165184
0.00036898
1.49311e-12
0.0154456
0.00214197
4.96355e-12
0.0141317
0.00259571
1.01482e-13
0.0129089
0.00246415
1.58007e-13
0.0116396
0.00255992
2.83869e-13
0.0102922
0.00270538
2.68955e-13
0.00883721
0.00289992
2.18767e-13
0.00726874
0.00311897
8.09883e-14
0.00559161
0.00333939
2.47553e-14
0.00380795
0.00354893
-1.69857e-14
0.00192723
0.00374991
-6.8664e-14
0.00391757
-9.05354e-14
0.0168001
5.14062e-10
5.23382e-18
0.0168001
2.77503e-09
2.18712e-17
0.0168001
1.03346e-08
6.27567e-17
0.0168
2.63042e-08
1.17008e-16
0.0168
7.3356e-08
2.6998e-16
0.0168
1.66401e-07
4.55583e-16
0.0167998
4.51112e-07
1.18257e-15
0.0167995
9.64838e-07
1.90169e-15
0.0167986
2.85573e-06
7.60816e-15
0.0167969
5.8244e-06
1.11477e-14
0.0167902
1.98753e-05
5.77031e-14
0.0167759
4.49535e-05
1.06767e-13
0.0167115
0.000195585
5.4795e-13
0.0165334
0.000547233
1.48827e-12
0.0155474
0.00312714
4.98709e-12
0.0142091
0.00393431
1.35307e-14
0.0129816
0.00369147
1.23463e-13
0.0117226
0.0038187
2.696e-13
0.0103866
0.00404069
2.57438e-13
0.00893213
0.00435451
2.10563e-13
0.00735835
0.00469232
7.32609e-14
0.00566485
0.0050328
1.03896e-14
0.00385437
0.00535971
-3.01629e-14
0.00194939
0.00565439
-8.63085e-14
0.0058665
-1.07477e-13
0.0168001
5.7985e-10
5.39306e-18
0.0168001
3.21715e-09
2.23134e-17
0.0168001
1.1929e-08
6.42458e-17
0.0168001
3.05125e-08
1.19283e-16
0.0168
8.44182e-08
2.75058e-16
0.0168
1.89707e-07
4.64042e-16
0.0167999
5.27434e-07
1.19654e-15
0.0167999
1.01785e-06
1.95535e-15
0.016799
3.71565e-06
7.59932e-15
0.0167993
5.65868e-06
1.142e-14
0.0167903
2.85561e-05
5.79427e-14
0.0167819
5.37403e-05
1.05711e-13
0.0167191
0.000257776
5.44186e-13
0.016567
0.000699467
1.46738e-12
0.0157469
0.00394632
4.99954e-12
0.0143897
0.0052918
-2.82223e-14
0.013154
0.00492701
8.34206e-14
0.0119017
0.00507084
2.55971e-13
0.010576
0.00536567
2.44838e-13
0.00912887
0.00580176
2.04079e-13
0.00755415
0.00626662
6.4571e-14
0.00585437
0.00673249
-2.02454e-14
0.00401125
0.00720313
-6.05184e-14
0.0020324
0.00763277
-1.12847e-13
0.00789846
-1.29492e-13
0.0168001
7.63383e-10
5.02629e-18
0.0168001
4.17009e-09
2.12605e-17
0.0168001
1.54824e-08
5.97912e-17
0.0168
3.9552e-08
1.09362e-16
0.0168
1.09491e-07
2.45389e-16
0.0168
2.48572e-07
3.89396e-16
0.0167998
6.71088e-07
1.02887e-15
0.0167994
1.39279e-06
1.01889e-15
0.0167986
4.48088e-06
8.12954e-15
0.0167971
7.25537e-06
1.36277e-15
0.0167917
3.37346e-05
7.59568e-14
0.016782
6.38583e-05
7.54571e-14
0.016744
0.000295134
5.67965e-13
0.0166442
0.000799391
1.42373e-12
0.0161653
0.00442417
4.98186e-12
0.0147853
0.0066722
-5.61127e-14
0.0134934
0.00621876
4.502e-14
0.0122207
0.00634332
2.47587e-13
0.0109067
0.00667895
2.39319e-13
0.00946478
0.00724388
1.94919e-13
0.00788538
0.00784547