/*--------------------------------*- C++ -*----------------------------------*\
| =========                 |                                                 |
| \\      /  F ield         | OpenFOAM: The Open Source CFD Toolbox           |
|  \\    /   O peration     | Version:  4.1                                   |
|   \\  /    A nd           | Web:      www.OpenFOAM.org                      |
|    \\/     M anipulation  |                                                 |
\*---------------------------------------------------------------------------*/
FoamFile
{
    version     2.0;
    format      ascii;
    class       volScalarField;
    location    "2.56";
    object      Ma;
}
// * * * * * * * * * * * * * * * * * * * * * * * * * * * * * * * * * * * * * //

dimensions      [0 0 0 0 0 0 0];

internalField   nonuniform List<scalar> 
52500
(
3.00002
2.99997
2.99992
2.99969
2.99937
2.99807
2.99621
2.98911
2.97722
2.9388
2.85102
2.64865
2.11065
1.27725
0.53285
0.276173
0.328558
0.343942
0.310962
0.255615
0.202774
0.160145
0.117813
0.0724534
0.0407256
3.00002
2.99997
2.99992
2.99969
2.99938
2.9981
2.99627
2.98925
2.97754
2.93959
2.85319
2.65322
2.12254
1.2922
0.540854
0.276834
0.330454
0.34659
0.313844
0.25937
0.207994
0.167114
0.127372
0.0870905
0.0626799
3.00002
2.99997
2.99992
2.9997
2.99939
2.99815
2.99637
2.98953
2.97821
2.9412
2.85773
2.66281
2.14844
1.32589
0.559739
0.280778
0.336624
0.354583
0.32277
0.270556
0.22231
0.185024
0.150215
0.117505
0.099492
3.00002
2.99998
2.99992
2.99971
2.99942
2.99823
2.99652
2.98996
2.9792
2.94369
2.86455
2.67732
2.18809
1.37884
0.58872
0.28798
0.346909
0.367797
0.337603
0.288589
0.244342
0.211335
0.181604
0.154987
0.140411
3.00002
2.99998
2.99993
2.99973
2.99945
2.9983
2.99669
2.99026
2.9804
2.94598
2.87526
2.69669
2.24502
1.45456
0.630136
0.302984
0.363543
0.387449
0.358899
0.313407
0.272756
0.243855
0.218792
0.196799
0.184564
3.00002
2.99998
2.99993
2.99975
2.99949
2.99842
2.99691
2.99089
2.98183
2.94936
2.8871
2.71966
2.31168
1.55033
0.682961
0.328993
0.38839
0.414005
0.386886
0.344934
0.307993
0.282679
0.262005
0.244472
0.234682
3.00002
2.99998
2.99994
2.99977
2.99953
2.99855
2.99717
2.99168
2.98341
2.9536
2.89842
2.74338
2.38202
1.65772
0.745349
0.368467
0.423287
0.447389
0.421772
0.383295
0.349906
0.328258
0.311942
0.29962
0.294874
3.00002
2.99999
2.99995
2.99979
2.99958
2.99869
2.99744
2.99244
2.98496
2.95777
2.90799
2.76624
2.43532
1.7489
0.80118
0.404358
0.451271
0.472647
0.453983
0.42358
0.395895
0.379966
0.370009
0.365687
0.370966
3.00002
2.99999
2.99996
2.99982
2.99963
2.99884
2.99773
2.99327
2.98662
2.96256
2.91724
2.79284
2.48132
1.86232
0.884106
0.463748
0.474409
0.48749
0.482758
0.462604
0.444193
0.435629
0.434986
0.445224
0.475811
3.00002
3
2.99997
2.99986
2.99969
2.99905
2.99809
2.99464
2.98843
2.96954
2.92514
2.82037
2.52501
1.97411
0.997985
0.537297
0.491334
0.504414
0.510067
0.500428
0.493327
0.495051
0.51073
0.550948
0.649293
3
2.99995
2.9999
2.99967
2.99935
2.99805
2.99619
2.98909
2.9772
2.93876
2.85099
2.64859
2.1106
1.27715
0.532726
0.275958
0.328369
0.343756
0.310754
0.255358
0.202446
0.159725
0.117234
0.0714937
0.0389637
3
2.99995
2.9999
2.99967
2.99936
2.99808
2.99624
2.98923
2.97752
2.93956
2.85316
2.65316
2.12249
1.2921
0.540733
0.27662
0.330266
0.346407
0.31364
0.259119
0.207677
0.166715
0.126841
0.0863038
0.061566
3
2.99996
2.9999
2.99968
2.99938
2.99813
2.99635
2.98951
2.97819
2.94117
2.8577
2.66275
2.14839
1.3258
0.559623
0.280566
0.336439
0.354403
0.322571
0.270316
0.222016
0.184666
0.149771
0.116931
0.098805
3
2.99996
2.99991
2.99969
2.9994
2.99821
2.9965
2.98994
2.97918
2.94366
2.86452
2.67727
2.18805
1.37874
0.588607
0.28777
0.346728
0.367626
0.337416
0.288369
0.244078
0.211028
0.181243
0.15456
0.139934
3
2.99996
2.99991
2.99971
2.99943
2.99828
2.99667
2.99024
2.98038
2.94594
2.87525
2.69664
2.24502
1.45449
0.630053
0.302803
0.363384
0.387298
0.358733
0.313213
0.272528
0.243595
0.218498
0.19647
0.184209
3
2.99996
2.99992
2.99973
2.99947
2.9984
2.99689
2.99087
2.98181
2.94933
2.88708
2.71961
2.31166
1.55026
0.68288
0.328821
0.388243
0.413868
0.386738
0.344764
0.307797
0.282461
0.261767
0.244214
0.234411
3
2.99997
2.99992
2.99975
2.99951
2.99853
2.99715
2.99165
2.98339
2.95358
2.89839
2.74334
2.38199
1.65766
0.745272
0.368309
0.423153
0.447266
0.421641
0.383145
0.349738
0.328076
0.311748
0.299416
0.294666
3
2.99997
2.99993
2.99978
2.99956
2.99867
2.99742
2.99242
2.98494
2.95774
2.90797
2.7662
2.4353
1.74884
0.801102
0.404208
0.451146
0.472531
0.453862
0.423447
0.39575
0.379813
0.369852
0.365527
0.370809
3
2.99998
2.99994
2.9998
2.99961
2.99882
2.99771
2.99325
2.9866
2.96253
2.91721
2.7928
2.48131
1.86225
0.884037
0.463617
0.474293
0.487379
0.482645
0.462484
0.444067
0.4355
0.434857
0.445099
0.475697
3
2.99998
2.99995
2.99984
2.99967
2.99903
2.99807
2.99462
2.98841
2.96951
2.92512
2.82033
2.52498
1.97405
0.997921
0.537183
0.491224
0.504306
0.509961
0.500319
0.493216
0.494942
0.510625
0.550854
0.649218
3
2.99995
2.9999
2.99967
2.99935
2.99805
2.99619
2.98909
2.9772
2.93876
2.85099
2.64859
2.1106
1.27715
0.532725
0.275958
0.328369
0.343757
0.310754
0.255358
0.202447
0.159725
0.117234
0.0714939
0.0389639
3
2.99995
2.9999
2.99967
2.99936
2.99808
2.99624
2.98923
2.97752
2.93956
2.85316
2.65316
2.12249
1.2921
0.540732
0.27662
0.330266
0.346407
0.31364
0.259119
0.207677
0.166715
0.126842
0.086304
0.0615662
3
2.99996
2.9999
2.99968
2.99938
2.99813
2.99635
2.98951
2.97819
2.94117
2.8577
2.66275
2.14839
1.3258
0.559622
0.280566
0.336439
0.354403
0.322571
0.270317
0.222016
0.184667
0.149771
0.116931
0.0988053
3
2.99996
2.99991
2.99969
2.9994
2.99821
2.9965
2.98994
2.97918
2.94366
2.86452
2.67727
2.18804
1.37874
0.588607
0.287771
0.346728
0.367626
0.337416
0.288369
0.244079
0.211028
0.181243
0.15456
0.139934
3
2.99996
2.99991
2.99971
2.99943
2.99828
2.99667
2.99024
2.98038
2.94594
2.87525
2.69664
2.24502
1.45449
0.630052
0.302803
0.363383
0.387298
0.358733
0.313213
0.272528
0.243595
0.218498
0.19647
0.18421
3
2.99996
2.99992
2.99973
2.99947
2.9984
2.99689
2.99087
2.98181
2.94933
2.88708
2.71961
2.31165
1.55026
0.682879
0.328821
0.388243
0.413868
0.386738
0.344764
0.307797
0.282461
0.261767
0.244214
0.234411
3
2.99997
2.99992
2.99975
2.99951
2.99853
2.99715
2.99165
2.98339
2.95358
2.89839
2.74334
2.38199
1.65766
0.745271
0.368309
0.423153
0.447265
0.421641
0.383145
0.349738
0.328075
0.311748
0.299416
0.294666
3
2.99997
2.99993
2.99978
2.99956
2.99867
2.99742
2.99242
2.98494
2.95774
2.90797
2.7662
2.4353
1.74884
0.801101
0.404207
0.451146
0.472531
0.453861
0.423447
0.39575
0.379813
0.369852
0.365527
0.370809
3
2.99998
2.99994
2.9998
2.99961
2.99882
2.99771
2.99325
2.9866
2.96253
2.91721
2.7928
2.4813
1.86224
0.884035
0.463616
0.474293
0.487379
0.482645
0.462484
0.444067
0.4355
0.434857
0.445099
0.475697
3
2.99998
2.99995
2.99984
2.99967
2.99903
2.99807
2.99462
2.98841
2.96951
2.92512
2.82033
2.52498
1.97405
0.99792
0.537182
0.491224
0.504307
0.509961
0.500319
0.493216
0.494942
0.510625
0.550854
0.649218
3
2.99995
2.9999
2.99967
2.99935
2.99805
2.99619
2.98909
2.9772
2.93876
2.85099
2.64859
2.1106
1.27715
0.532725
0.275958
0.328369
0.343757
0.310754
0.255358
0.202447
0.159725
0.117234
0.0714939
0.0389639
3
2.99995
2.9999
2.99967
2.99936
2.99808
2.99624
2.98923
2.97752
2.93956
2.85316
2.65316
2.12249
1.2921
0.540732
0.27662
0.330266
0.346407
0.31364
0.259119
0.207677
0.166715
0.126842
0.0863041
0.0615662
3
2.99996
2.9999
2.99968
2.99938
2.99813
2.99635
2.98951
2.97819
2.94117
2.8577
2.66275
2.14839
1.3258
0.559622
0.280566
0.33644
0.354403
0.322571
0.270317
0.222016
0.184667
0.149771
0.116931
0.0988053
3
2.99996
2.99991
2.99969
2.9994
2.99821
2.9965
2.98994
2.97918
2.94366
2.86452
2.67727
2.18804
1.37874
0.588607
0.287771
0.346728
0.367626
0.337416
0.288369
0.244079
0.211028
0.181243
0.15456
0.139934
3
2.99996
2.99991
2.99971
2.99943
2.99828
2.99667
2.99024
2.98038
2.94594
2.87525
2.69664
2.24502
1.45449
0.630052
0.302803
0.363383
0.387298
0.358733
0.313213
0.272528
0.243595
0.218498
0.19647
0.18421
3
2.99996
2.99992
2.99973
2.99947
2.9984
2.99689
2.99087
2.98181
2.94933
2.88708
2.71961
2.31165
1.55026
0.682879
0.328821
0.388243
0.413868
0.386738
0.344764
0.307797
0.282461
0.261767
0.244214
0.234411
3
2.99997
2.99992
2.99975
2.99951
2.99853
2.99715
2.99165
2.98339
2.95358
2.89839
2.74334
2.38199
1.65766
0.745271
0.368309
0.423153
0.447265
0.421641
0.383145
0.349738
0.328075
0.311748
0.299417
0.294666
3
2.99997
2.99993
2.99978
2.99956
2.99867
2.99742
2.99242
2.98494
2.95774
2.90797
2.7662
2.4353
1.74884
0.801101
0.404207
0.451146
0.472531
0.453861
0.423447
0.39575
0.379813
0.369852
0.365527
0.370809
3
2.99998
2.99994
2.9998
2.99961
2.99882
2.99771
2.99325
2.9866
2.96253
2.91721
2.7928
2.4813
1.86224
0.884035
0.463616
0.474293
0.487379
0.482645
0.462484
0.444067
0.4355
0.434857
0.445099
0.475697
3
2.99998
2.99995
2.99984
2.99967
2.99903
2.99807
2.99462
2.98841
2.96951
2.92512
2.82033
2.52498
1.97405
0.99792
0.537182
0.491224
0.504307
0.509961
0.500319
0.493216
0.494942
0.510625
0.550854
0.649218
3
2.99995
2.9999
2.99967
2.99935
2.99805
2.99619
2.98909
2.9772
2.93876
2.85099
2.64859
2.1106
1.27715
0.532725
0.275958
0.328369
0.343757
0.310754
0.255358
0.202447
0.159725
0.117234
0.071494
0.0389639
3
2.99995
2.9999
2.99967
2.99936
2.99808
2.99624
2.98923
2.97752
2.93956
2.85316
2.65316
2.12249
1.2921
0.540732
0.27662
0.330266
0.346407
0.31364
0.25912
0.207677
0.166716
0.126842
0.0863041
0.0615663
3
2.99996
2.9999
2.99968
2.99938
2.99813
2.99635
2.98951
2.97819
2.94117
2.8577
2.66275
2.14839
1.3258
0.559622
0.280566
0.33644
0.354404
0.322571
0.270317
0.222016
0.184667
0.149771
0.116931
0.0988054
3
2.99996
2.99991
2.99969
2.9994
2.99821
2.9965
2.98994
2.97918
2.94366
2.86452
2.67727
2.18804
1.37874
0.588607
0.287771
0.346728
0.367626
0.337416
0.288369
0.244079
0.211028
0.181243
0.15456
0.139934
3
2.99996
2.99991
2.99971
2.99943
2.99828
2.99667
2.99024
2.98038
2.94594
2.87525
2.69664
2.24502
1.45449
0.630052
0.302803
0.363383
0.387298
0.358733
0.313213
0.272528
0.243595
0.218498
0.19647
0.18421
3
2.99996
2.99992
2.99973
2.99947
2.9984
2.99689
2.99087
2.98181
2.94933
2.88708
2.71961
2.31165
1.55026
0.682879
0.328821
0.388243
0.413868
0.386738
0.344764
0.307797
0.282461
0.261767
0.244214
0.234411
3
2.99997
2.99992
2.99975
2.99951
2.99853
2.99715
2.99165
2.98339
2.95358
2.89839
2.74334
2.38199
1.65766
0.745271
0.368309
0.423153
0.447265
0.42164
0.383145
0.349738
0.328075
0.311748
0.299417
0.294666
3
2.99997
2.99993
2.99978
2.99956
2.99867
2.99742
2.99242
2.98494
2.95774
2.90797
2.7662
2.4353
1.74884
0.801101
0.404207
0.451146
0.472531
0.453861
0.423447
0.39575
0.379813
0.369852
0.365527
0.370809
3
2.99998
2.99994
2.9998
2.99961
2.99882
2.99771
2.99325
2.9866
2.96253
2.91721
2.7928
2.4813
1.86224
0.884035
0.463616
0.474293
0.487379
0.482645
0.462484
0.444067
0.4355
0.434857
0.445099
0.475697
3
2.99998
2.99995
2.99984
2.99967
2.99903
2.99807
2.99462
2.98841
2.96951
2.92512
2.82033
2.52498
1.97405
0.997919
0.537182
0.491224
0.504307
0.509961
0.500319
0.493216
0.494942
0.510625
0.550854
0.649218
3
2.99995
2.9999
2.99967
2.99935
2.99805
2.99619
2.98909
2.9772
2.93876
2.85099
2.64859
2.1106
1.27715
0.532725
0.275958
0.328369
0.343757
0.310754
0.255358
0.202447
0.159725
0.117234
0.0714939
0.0389639
3
2.99995
2.9999
2.99967
2.99936
2.99808
2.99624
2.98923
2.97752
2.93956
2.85316
2.65316
2.12249
1.2921
0.540732
0.27662
0.330266
0.346407
0.31364
0.259119
0.207677
0.166715
0.126842
0.0863041
0.0615663
3
2.99996
2.9999
2.99968
2.99938
2.99813
2.99635
2.98951
2.97819
2.94117
2.8577
2.66275
2.14839
1.3258
0.559622
0.280566
0.33644
0.354403
0.322571
0.270317
0.222016
0.184667
0.149771
0.116931
0.0988054
3
2.99996
2.99991
2.99969
2.9994
2.99821
2.9965
2.98994
2.97918
2.94366
2.86452
2.67727
2.18804
1.37874
0.588607
0.287771
0.346728
0.367626
0.337416
0.288369
0.244079
0.211028
0.181243
0.15456
0.139934
3
2.99996
2.99991
2.99971
2.99943
2.99828
2.99667
2.99024
2.98038
2.94594
2.87525
2.69664
2.24502
1.45449
0.630052
0.302803
0.363383
0.387298
0.358733
0.313213
0.272528
0.243595
0.218498
0.19647
0.18421
3
2.99996
2.99992
2.99973
2.99947
2.9984
2.99689
2.99087
2.98181
2.94933
2.88708
2.71961
2.31165
1.55026
0.682879
0.328821
0.388243
0.413868
0.386738
0.344764
0.307797
0.282461
0.261767
0.244214
0.234411
3
2.99997
2.99992
2.99975
2.99951
2.99853
2.99715
2.99165
2.98339
2.95358
2.89839
2.74334
2.38199
1.65766
0.745271
0.368309
0.423153
0.447265
0.421641
0.383145
0.349738
0.328075
0.311748
0.299417
0.294666
3
2.99997
2.99993
2.99978
2.99956
2.99867
2.99742
2.99242
2.98494
2.95774
2.90797
2.7662
2.4353
1.74884
0.801101
0.404207
0.451146
0.472531
0.453861
0.423447
0.39575
0.379813
0.369852
0.365527
0.370809
3
2.99998
2.99994
2.9998
2.99961
2.99882
2.99771
2.99325
2.9866
2.96253
2.91721
2.7928
2.4813
1.86224
0.884035
0.463616
0.474293
0.487379
0.482645
0.462484
0.444067
0.4355
0.434857
0.445099
0.475697
3
2.99998
2.99995
2.99984
2.99967
2.99903
2.99807
2.99462
2.98841
2.96951
2.92512
2.82033
2.52498
1.97405
0.99792
0.537182
0.491224
0.504307
0.509961
0.500319
0.493216
0.494942
0.510625
0.550854
0.649218
3
2.99995
2.9999
2.99967
2.99935
2.99805
2.99619
2.98909
2.9772
2.93876
2.85099
2.64859
2.1106
1.27715
0.532725
0.275958
0.328369
0.343757
0.310754
0.255358
0.202447
0.159725
0.117234
0.0714939
0.0389639
3
2.99995
2.9999
2.99967
2.99936
2.99808
2.99624
2.98923
2.97752
2.93956
2.85316
2.65316
2.12249
1.2921
0.540732
0.27662
0.330266
0.346407
0.31364
0.259119
0.207677
0.166715
0.126842
0.0863041
0.0615662
3
2.99996
2.9999
2.99968
2.99938
2.99813
2.99635
2.98951
2.97819
2.94117
2.8577
2.66275
2.14839
1.3258
0.559622
0.280566
0.33644
0.354403
0.322571
0.270317
0.222016
0.184667
0.149771
0.116931
0.0988053
3
2.99996
2.99991
2.99969
2.9994
2.99821
2.9965
2.98994
2.97918
2.94366
2.86452
2.67727
2.18804
1.37874
0.588607
0.287771
0.346728
0.367626
0.337416
0.288369
0.244079
0.211028
0.181243
0.15456
0.139934
3
2.99996
2.99991
2.99971
2.99943
2.99828
2.99667
2.99024
2.98038
2.94594
2.87525
2.69664
2.24502
1.45449
0.630052
0.302803
0.363383
0.387298
0.358733
0.313213
0.272528
0.243595
0.218498
0.19647
0.18421
3
2.99996
2.99992
2.99973
2.99947
2.9984
2.99689
2.99087
2.98181
2.94933
2.88708
2.71961
2.31165
1.55026
0.682879
0.328821
0.388243
0.413868
0.386738
0.344764
0.307797
0.282461
0.261767
0.244214
0.234411
3
2.99997
2.99992
2.99975
2.99951
2.99853
2.99715
2.99165
2.98339
2.95358
2.89839
2.74334
2.38199
1.65766
0.745271
0.368309
0.423153
0.447265
0.421641
0.383145
0.349738
0.328075
0.311748
0.299416
0.294666
3
2.99997
2.99993
2.99978
2.99956
2.99867
2.99742
2.99242
2.98494
2.95774
2.90797
2.7662
2.4353
1.74884
0.801101
0.404207
0.451146
0.472531
0.453861
0.423447
0.39575
0.379813
0.369852
0.365527
0.370809
3
2.99998
2.99994
2.9998
2.99961
2.99882
2.99771
2.99325
2.9866
2.96253
2.91721
2.7928
2.4813
1.86224
0.884035
0.463616
0.474293
0.487379
0.482645
0.462484
0.444067
0.4355
0.434857
0.445099
0.475697
3
2.99998
2.99995
2.99984
2.99967
2.99903
2.99807
2.99462
2.98841
2.96951
2.92512
2.82033
2.52498
1.97405
0.99792
0.537182
0.491224
0.504307
0.509961
0.500319
0.493216
0.494942
0.510625
0.550854
0.649218
3
2.99995
2.9999
2.99967
2.99935
2.99805
2.99619
2.98909
2.9772
2.93876
2.85099
2.64859
2.1106
1.27715
0.532725
0.275958
0.328369
0.343757
0.310754
0.255358
0.202447
0.159725
0.117234
0.0714939
0.0389639
3
2.99995
2.9999
2.99967
2.99936
2.99808
2.99624
2.98923
2.97752
2.93956
2.85316
2.65316
2.12249
1.2921
0.540732
0.27662
0.330266
0.346407
0.31364
0.259119
0.207677
0.166715
0.126842
0.086304
0.0615662
3
2.99996
2.9999
2.99968
2.99938
2.99813
2.99635
2.98951
2.97819
2.94117
2.8577
2.66275
2.14839
1.3258
0.559622
0.280566
0.336439
0.354403
0.322571
0.270317
0.222016
0.184667
0.149771
0.116931
0.0988053
3
2.99996
2.99991
2.99969
2.9994
2.99821
2.9965
2.98994
2.97918
2.94366
2.86452
2.67727
2.18804
1.37874
0.588607
0.287771
0.346728
0.367626
0.337416
0.288369
0.244079
0.211028
0.181243
0.15456
0.139934
3
2.99996
2.99991
2.99971
2.99943
2.99828
2.99667
2.99024
2.98038
2.94594
2.87525
2.69664
2.24502
1.45449
0.630052
0.302803
0.363383
0.387298
0.358733
0.313213
0.272528
0.243595
0.218498
0.19647
0.18421
3
2.99996
2.99992
2.99973
2.99947
2.9984
2.99689
2.99087
2.98181
2.94933
2.88708
2.71961
2.31165
1.55026
0.682879
0.328821
0.388243
0.413868
0.386738
0.344764
0.307797
0.282461
0.261767
0.244214
0.234411
3
2.99997
2.99992
2.99975
2.99951
2.99853
2.99715
2.99165
2.98339
2.95358
2.89839
2.74334
2.38199
1.65766
0.745271
0.368309
0.423153
0.447265
0.421641
0.383145
0.349738
0.328075
0.311748
0.299416
0.294666
3
2.99997
2.99993
2.99978
2.99956
2.99867
2.99742
2.99242
2.98494
2.95774
2.90797
2.7662
2.4353
1.74884
0.801101
0.404207
0.451146
0.472531
0.453861
0.423447
0.39575
0.379813
0.369852
0.365527
0.370809
3
2.99998
2.99994
2.9998
2.99961
2.99882
2.99771
2.99325
2.9866
2.96253
2.91721
2.7928
2.4813
1.86224
0.884035
0.463616
0.474293
0.487379
0.482645
0.462484
0.444067
0.4355
0.434857
0.445099
0.475697
3
2.99998
2.99995
2.99984
2.99967
2.99903
2.99807
2.99462
2.98841
2.96951
2.92512
2.82033
2.52498
1.97405
0.99792
0.537182
0.491224
0.504307
0.509961
0.500319
0.493216
0.494942
0.510625
0.550854
0.649218
3
2.99995
2.9999
2.99967
2.99935
2.99805
2.99619
2.98909
2.9772
2.93876
2.85099
2.64859
2.1106
1.27715
0.532726
0.275958
0.328369
0.343756
0.310754
0.255358
0.202446
0.159725
0.117234
0.0714937
0.0389637
3
2.99995
2.9999
2.99967
2.99936
2.99808
2.99624
2.98923
2.97752
2.93956
2.85316
2.65316
2.12249
1.2921
0.540733
0.27662
0.330266
0.346407
0.31364
0.259119
0.207677
0.166715
0.126841
0.0863038
0.061566
3
2.99996
2.9999
2.99968
2.99938
2.99813
2.99635
2.98951
2.97819
2.94117
2.8577
2.66275
2.14839
1.3258
0.559623
0.280566
0.336439
0.354403
0.322571
0.270316
0.222016
0.184666
0.149771
0.116931
0.098805
3
2.99996
2.99991
2.99969
2.9994
2.99821
2.9965
2.98994
2.97918
2.94366
2.86452
2.67727
2.18805
1.37874
0.588607
0.28777
0.346728
0.367626
0.337416
0.288369
0.244078
0.211028
0.181243
0.15456
0.139934
3
2.99996
2.99991
2.99971
2.99943
2.99828
2.99667
2.99024
2.98038
2.94594
2.87525
2.69664
2.24502
1.45449
0.630053
0.302803
0.363384
0.387298
0.358733
0.313213
0.272528
0.243595
0.218498
0.19647
0.184209
3
2.99996
2.99992
2.99973
2.99947
2.9984
2.99689
2.99087
2.98181
2.94933
2.88708
2.71961
2.31166
1.55026
0.68288
0.328821
0.388243
0.413868
0.386738
0.344764
0.307797
0.282461
0.261767
0.244214
0.234411
3
2.99997
2.99992
2.99975
2.99951
2.99853
2.99715
2.99165
2.98339
2.95358
2.89839
2.74334
2.38199
1.65766
0.745272
0.368309
0.423153
0.447266
0.421641
0.383145
0.349738
0.328076
0.311748
0.299416
0.294666
3
2.99997
2.99993
2.99978
2.99956
2.99867
2.99742
2.99242
2.98494
2.95774
2.90797
2.7662
2.4353
1.74884
0.801102
0.404208
0.451146
0.472531
0.453862
0.423447
0.39575
0.379813
0.369852
0.365527
0.370809
3
2.99998
2.99994
2.9998
2.99961
2.99882
2.99771
2.99325
2.9866
2.96253
2.91721
2.7928
2.48131
1.86225
0.884037
0.463617
0.474293
0.487379
0.482645
0.462484
0.444067
0.4355
0.434857
0.445099
0.475697
3
2.99998
2.99995
2.99984
2.99967
2.99903
2.99807
2.99462
2.98841
2.96951
2.92512
2.82033
2.52498
1.97405
0.997921
0.537183
0.491224
0.504306
0.509961
0.500319
0.493216
0.494942
0.510625
0.550854
0.649218
3.00002
2.99997
2.99992
2.99969
2.99937
2.99807
2.99621
2.98911
2.97722
2.9388
2.85102
2.64865
2.11065
1.27725
0.532849
0.276173
0.328558
0.343942
0.310961
0.255615
0.202774
0.160145
0.117813
0.0724533
0.0407256
3.00002
2.99997
2.99992
2.99969
2.99938
2.9981
2.99627
2.98925
2.97754
2.93959
2.85319
2.65322
2.12254
1.2922
0.540854
0.276834
0.330454
0.34659
0.313844
0.25937
0.207994
0.167114
0.127372
0.0870904
0.0626799
3.00002
2.99997
2.99992
2.9997
2.99939
2.99815
2.99637
2.98953
2.97821
2.9412
2.85773
2.66281
2.14844
1.32589
0.559739
0.280778
0.336624
0.354583
0.32277
0.270556
0.22231
0.185023
0.150215
0.117504
0.0994919
3.00002
2.99998
2.99992
2.99971
2.99942
2.99823
2.99652
2.98996
2.9792
2.94369
2.86455
2.67732
2.18809
1.37884
0.588719
0.28798
0.346909
0.367797
0.337603
0.288589
0.244342
0.211335
0.181604
0.154987
0.140411
3.00002
2.99998
2.99993
2.99973
2.99945
2.9983
2.99669
2.99026
2.9804
2.94598
2.87526
2.69669
2.24502
1.45456
0.630136
0.302984
0.363543
0.387449
0.358899
0.313407
0.272756
0.243855
0.218792
0.196799
0.184564
3.00002
2.99998
2.99993
2.99975
2.99949
2.99842
2.99691
2.99089
2.98183
2.94936
2.8871
2.71966
2.31168
1.55033
0.682961
0.328993
0.38839
0.414005
0.386886
0.344934
0.307993
0.282679
0.262005
0.244471
0.234682
3.00002
2.99998
2.99994
2.99977
2.99953
2.99855
2.99717
2.99168
2.98341
2.9536
2.89842
2.74338
2.38202
1.65772
0.745349
0.368467
0.423287
0.447389
0.421772
0.383295
0.349906
0.328258
0.311942
0.29962
0.294874
3.00002
2.99999
2.99995
2.99979
2.99958
2.99869
2.99744
2.99244
2.98496
2.95777
2.90799
2.76624
2.43532
1.7489
0.80118
0.404358
0.451271
0.472647
0.453983
0.42358
0.395895
0.379966
0.370009
0.365687
0.370966
3.00002
2.99999
2.99996
2.99982
2.99963
2.99884
2.99773
2.99327
2.98662
2.96256
2.91724
2.79284
2.48132
1.86232
0.884106
0.463748
0.474409
0.48749
0.482758
0.462604
0.444193
0.435629
0.434986
0.445224
0.475811
3.00002
3
2.99997
2.99986
2.99969
2.99905
2.99809
2.99464
2.98843
2.96954
2.92514
2.82037
2.52501
1.97411
0.997985
0.537297
0.491335
0.504414
0.510067
0.500428
0.493327
0.495051
0.51073
0.550948
0.649293
3.00002
3.00001
2.99996
2.9999
2.99965
2.99929
2.9979
2.99577
2.98816
2.97436
2.93265
2.83291
2.61196
2.03493
1.17842
0.627672
0.514871
0.527787
0.539683
0.538881
0.541101
0.555683
0.594002
0.676827
0.854529
3.00002
3.00001
2.99997
2.99992
2.9997
2.99939
2.99816
2.99638
2.98959
2.97831
2.94163
2.85865
2.66556
2.15748
1.34839
0.720786
0.539318
0.553776
0.571288
0.578758
0.589545
0.616842
0.673448
0.777413
0.965727
3.00002
3.00001
2.99998
2.99993
2.99974
2.99948
2.9984
2.99688
2.9908
2.98167
2.94898
2.88557
2.71808
2.30479
1.55333
0.830989
0.578215
0.589998
0.6069
0.620011
0.636834
0.672198
0.737315
0.841123
1.00365
3.00002
3.00001
2.99999
2.99995
2.99979
2.99957
2.99869
2.99743
2.99243
2.98498
2.95782
2.90919
2.76688
2.45383
1.77601
0.954438
0.637238
0.637661
0.650528
0.666571
0.686336
0.723622
0.787823
0.881065
1.01704
3.00002
3.00002
2.99999
2.99996
2.99984
2.99966
2.99896
2.99795
2.99401
2.98794
2.96691
2.92526
2.81483
2.53693
1.97076
1.0808
0.705541
0.677033
0.690177
0.707402
0.730237
0.767504
0.829492
0.91259
1.02622
3.00002
3.00002
3.00001
2.99997
2.99991
2.99968
2.99934
2.99806
2.99608
2.98918
2.97627
2.93863
2.8467
2.64555
2.10507
1.29885
0.811864
0.712509
0.723746
0.74198
0.768376
0.804519
0.860532
0.937083
1.03464
3.00002
3.00002
3.00001
2.99998
2.99993
2.99974
2.99947
2.99836
2.99682
2.99062
2.9813
2.94839
2.88272
2.71443
2.29452
1.55045
0.935279
0.750471
0.75337
0.772381
0.803553
0.839774
0.889213
0.956982
1.04196
3.00002
3.00002
3.00001
2.99999
2.99995
2.9998
2.99959
2.99876
2.99756
2.99288
2.98572
2.96035
2.91394
2.78006
2.48716
1.83608
1.09508
0.81416
0.795432
0.808343
0.835483
0.872419
0.917934
0.977711
1.05155
3.00002
3.00002
3.00002
3
2.99996
2.99989
2.99963
2.99926
2.99781
2.99563
2.98774
2.97402
2.9316
2.83373
2.61624
2.06653
1.27712
0.889858
0.835302
0.846168
0.868823
0.902906
0.943653
0.995939
1.06061
3.00003
3.00002
3.00002
3.00001
2.99998
2.99993
2.99973
2.99945
2.99834
2.99671
2.99063
2.98053
2.94783
2.87551
2.70403
2.26577
1.5202
1.00764
0.875165
0.877209
0.897769
0.931186
0.970678
1.01611
1.07196
3.00003
3.00003
3.00002
3.00001
3
2.99994
2.99985
2.99953
2.99904
2.99723
2.99435
2.98468
2.9655
2.91313
2.78062
2.50819
1.85982
1.19365
0.940814
0.917823
0.929324
0.957237
0.995063
1.03709
1.08513
3.00003
3.00003
3.00002
3.00002
3.00001
2.99996
2.9999
2.99966
2.99931
2.99793
2.99591
2.98845
2.97579
2.93607
2.84564
2.64368
2.12549
1.38238
1.01816
0.957011
0.964493
0.986625
1.0203
1.059
1.10252
3.00003
3.00003
3.00003
3.00002
3.00001
2.99999
2.99992
2.99982
2.99942
2.99883
2.99672
2.99304
2.9816
2.95625
2.89297
2.7246
2.39237
1.64798
1.15756
1.00525
0.99858
1.01223
1.04069
1.07793
1.11812
3.00003
3.00003
3.00003
3.00002
3.00001
3
2.99995
2.99987
2.99958
2.99916
2.9975
2.99511
2.98594
2.97141
2.92384
2.82417
2.58257
2.05054
1.3481
1.08124
1.0416
1.04679
1.06731
1.09923
1.13631
3.00003
3.00003
3.00003
3.00002
3.00002
3.00001
2.99998
2.9999
2.99978
2.99932
2.99863
2.99605
2.99202
2.97826
2.95186
2.87888
2.69994
2.32961
1.59799
1.19255
1.08216
1.07748
1.08973
1.11674
1.15246
3.00003
3.00003
3.00003
3.00003
3.00002
3.00001
3
2.99994
2.99986
2.99954
2.99908
2.99729
2.99467
2.98502
2.96898
2.9189
2.81084
2.55927
2.01365
1.38049
1.14747
1.11634
1.12018
1.13988
1.16963
3.00003
3.00003
3.00003
3.00003
3.00002
3.00002
3
2.99998
2.99989
2.99976
2.99926
2.99852
2.99575
2.99147
2.97658
2.94946
2.87328
2.6944
2.3031
1.60314
1.24103
1.15281
1.14887
1.16055
1.18476
3.00003
3.00003
3.00003
3.00003
3.00003
3.00002
3.00001
3
2.99994
2.99985
2.99952
2.99905
2.99723
2.99455
2.98479
2.96839
2.91796
2.80385
2.55986
1.98282
1.42187
1.2114
1.1832
1.18667
1.20561
3.00003
3.00003
3.00003
3.00003
3.00003
3.00002
3.00002
3
2.99998
2.99989
2.99976
2.99926
2.99851
2.99576
2.99139
2.97666
2.94936
2.873
2.70113
2.29809
1.65204
1.3105
1.22308
1.21561
1.22504
3.00003
3.00003
3.00003
3.00003
3.00003
3.00003
3.00002
3.00002
2.99999
2.99996
2.99982
2.99962
2.99887
2.99774
2.99363
2.9871
2.9654
2.92443
2.81307
2.56907
2.02501
1.47903
1.27939
1.24945
1.25174
3.00003
3.00003
3.00003
3.00003
3.00003
3.00003
3.00002
3.00002
3
2.99998
2.99989
2.99977
2.99928
2.99858
2.9959
2.99191
2.97761
2.95311
2.88086
2.72343
2.3592
1.72654
1.37891
1.28719
1.27872
3.00003
3.00003
3.00003
3.00003
3.00003
3.00003
3.00003
3.00002
3.00002
2.99999
2.99996
2.99984
2.99965
2.99896
2.99792
2.99419
2.98819
2.96851
2.9319
2.82956
2.61692
2.1072
1.5634
1.34691
1.31233
3.00003
3.00003
3.00003
3.00003
3.00003
3.00003
3.00003
3.00003
3.00002
3.00001
2.99999
2.99991
2.99979
2.99935
2.99872
2.9963
2.99278
2.97988
2.95861
2.89424
2.7553
2.44077
1.82804
1.45836
1.34957
3.00003
3.00003
3.00003
3.00003
3.00003
3.00003
3.00003
3.00003
3.00002
3.00002
3
2.99996
2.99989
2.99962
2.99924
2.99779
2.9957
2.98791
2.97577
2.93614
2.85853
2.66573
2.23904
1.66386
1.42498
3.00003
3.00003
3.00003
3.00003
3.00003
3.00003
3.00003
3.00003
3.00003
3.00002
3.00001
2.99998
2.99994
2.99979
2.99956
2.99869
2.99744
2.99275
2.98558
2.96116
2.91588
2.7965
2.51985
1.97166
1.56436
3.00003
3.00003
3.00003
3.00003
3.00003
3.00003
3.00003
3.00003
3.00003
3.00003
3.00002
3.00001
2.99997
2.99991
2.9997
2.99939
2.99825
2.99651
2.99047
2.98018
2.94895
2.88079
2.7277
2.34887
1.7847
3.00003
3.00003
3.00003
3.00003
3.00003
3.00003
3.00003
3.00003
3.00003
3.00003
3.00002
3.00001
3
2.99995
2.99987
2.99959
2.99916
2.99764
2.99526
2.98716
2.97319
2.93242
2.84526
2.63958
2.21373
3.00003
3.00003
3.00003
3.00003
3.00003
3.00003
3.00003
3.00003
3.00003
3.00003
3.00003
3.00002
3.00001
2.99999
2.99992
2.99981
2.99943
2.99885
2.99675
2.9935
2.98248
2.96295
2.90808
2.78688
2.51243
3.00003
3.00003
3.00003
3.00003
3.00003
3.00003
3.00003
3.00003
3.00003
3.00003
3.00003
3.00003
3.00002
3.00001
2.99997
2.99991
2.99968
2.99936
2.99814
2.99637
2.98986
2.97974
2.94665
2.88285
2.72497
3.00003
3.00003
3.00003
3.00003
3.00003
3.00003
3.00003
3.00003
3.00003
3.00003
3.00003
3.00003
3.00002
3.00001
3
2.99995
2.99987
2.99959
2.99917
2.99767
2.99533
2.98741
2.974
2.93373
2.853
3.00003
3.00003
3.00003
3.00003
3.00003
3.00003
3.00003
3.00003
3.00003
3.00003
3.00003
3.00003
3.00003
3.00002
3.00001
2.99999
2.99992
2.99982
2.99945
2.9989
2.99692
2.99383
2.98337
2.96553
2.9124
3.00003
3.00003
3.00003
3.00003
3.00003
3.00003
3.00003
3.00003
3.00003
3.00003
3.00003
3.00003
3.00003
3.00002
3.00002
3
2.99998
2.99989
2.99976
2.99929
2.99857
2.99607
2.99203
2.979
2.95555
3.00003
3.00003
3.00003
3.00003
3.00003
3.00003
3.00003
3.00003
3.00003
3.00003
3.00003
3.00003
3.00003
3.00003
3.00002
3.00002
3
2.99995
2.99988
2.99963
2.99925
2.99789
2.99582
2.98873
2.97695
3.00003
3.00003
3.00003
3.00003
3.00003
3.00003
3.00003
3.00003
3.00003
3.00003
3.00003
3.00003
3.00003
3.00003
3.00003
3.00002
3.00001
3
2.99994
2.99985
2.99954
2.99907
2.99742
2.99482
2.98623
3.00003
3.00003
3.00003
3.00003
3.00003
3.00003
3.00003
3.00003
3.00003
3.00003
3.00003
3.00003
3.00003
3.00003
3.00003
3.00003
3.00002
3.00001
2.99999
2.99992
2.99981
2.99942
2.99883
2.99679
2.9935
3.00003
3.00003
3.00003
3.00003
3.00003
3.00003
3.00003
3.00003
3.00003
3.00003
3.00003
3.00003
3.00003
3.00003
3.00003
3.00003
3.00002
3.00002
3
2.99998
2.99989
2.99975
2.99928
2.99854
2.99604
3.00003
3.00003
3.00003
3.00003
3.00003
3.00003
3.00003
3.00003
3.00003
3.00003
3.00003
3.00003
3.00003
3.00003
3.00003
3.00003
3.00003
3.00002
3.00002
3
2.99996
2.99985
2.99968
2.99909
2.99818
3.00003
3.00003
3.00003
3.00003
3.00003
3.00003
3.00003
3.00003
3.00003
3.00003
3.00003
3.00003
3.00003
3.00003
3.00003
3.00003
3.00003
3.00003
3.00002
3.00001
2.99999
2.99993
2.99983
2.99947
2.99895
3.00003
3.00003
3.00003
3.00003
3.00003
3.00003
3.00003
3.00003
3.00003
3.00003
3.00003
3.00003
3.00003
3.00003
3.00003
3.00003
3.00003
3.00003
3.00002
3.00002
3
2.99997
2.99986
2.9997
2.99911
3.00003
3.00003
3.00003
3.00003
3.00003
3.00003
3.00003
3.00003
3.00003
3.00003
3.00003
3.00003
3.00003
3.00003
3.00003
3.00003
3.00003
3.00003
3.00002
3.00002
3
2.99998
2.99989
2.99975
2.99923
3
2.99999
2.99994
2.99988
2.99963
2.99928
2.99788
2.99575
2.98814
2.97433
2.93262
2.83288
2.6119
2.03489
1.17834
0.627572
0.514765
0.527684
0.539583
0.538781
0.541003
0.555588
0.593917
0.676757
0.854485
3
2.99999
2.99995
2.9999
2.99968
2.99937
2.99814
2.99636
2.98957
2.97828
2.94159
2.85862
2.66551
2.15745
1.34831
0.720698
0.539214
0.553676
0.571192
0.578666
0.589456
0.61676
0.673377
0.777357
0.96569
3
2.99999
2.99996
2.99991
2.99972
2.99946
2.99838
2.99686
2.99078
2.98165
2.94894
2.88555
2.71804
2.30478
1.55326
0.83092
0.578119
0.589903
0.60681
0.619925
0.636753
0.672124
0.737252
0.841074
1.00362
3
3
2.99997
2.99993
2.99977
2.99955
2.99867
2.99741
2.99241
2.98496
2.9578
2.90916
2.76684
2.4538
1.77596
0.954379
0.63715
0.637576
0.650447
0.666493
0.686262
0.723555
0.787764
0.881019
1.01701
3
3
2.99998
2.99994
2.99982