/*--------------------------------*- C++ -*----------------------------------*\
| =========                 |                                                 |
| \\      /  F ield         | OpenFOAM: The Open Source CFD Toolbox           |
|  \\    /   O peration     | Version:  4.1                                   |
|   \\  /    A nd           | Web:      www.OpenFOAM.org                      |
|    \\/     M anipulation  |                                                 |
\*---------------------------------------------------------------------------*/
FoamFile
{
    version     2.0;
    format      ascii;
    class       volScalarField;
    location    "0.36";
    object      Ma;
}
// * * * * * * * * * * * * * * * * * * * * * * * * * * * * * * * * * * * * * //

dimensions      [0 0 0 0 0 0 0];

internalField   nonuniform List<scalar> 
52500
(
3.1346
3.27648
3.27159
3.26512
3.25705
3.24123
3.21569
3.16608
3.05958
2.78355
2.00506
0.490054
0.486787
0.563118
0.432987
0.371316
0.346362
0.331096
0.316324
0.296263
0.266071
0.220778
0.169344
0.135469
0.0350189
3.1346
3.27648
3.27159
3.26511
3.25705
3.24127
3.21594
3.16701
3.06245
2.79343
2.03554
0.53242
0.480162
0.565946
0.433942
0.371132
0.346261
0.331656
0.317946
0.299586
0.272243
0.230407
0.182918
0.154389
0.0832845
3.13459
3.27648
3.27159
3.26509
3.25704
3.24139
3.21638
3.16883
3.0682
2.81306
2.09745
0.622877
0.468395
0.574912
0.43909
0.374426
0.349566
0.336323
0.324712
0.309386
0.286974
0.25163
0.211431
0.191313
0.142319
3.13459
3.27647
3.27158
3.26504
3.25699
3.24168
3.21661
3.17135
3.0763
2.84046
2.18539
0.758024
0.443029
0.586542
0.448454
0.380201
0.355089
0.343728
0.335129
0.32409
0.308549
0.281607
0.249717
0.238237
0.203695
3.13459
3.27646
3.27158
3.26499
3.25695
3.24199
3.21667
3.17445
3.08592
2.87199
2.29018
0.940133
0.400872
0.598862
0.463557
0.389871
0.363305
0.353994
0.349476
0.343336
0.334981
0.317004
0.293395
0.290632
0.266621
3.13459
3.27649
3.27155
3.26508
3.25703
3.24177
3.21709
3.17816
3.09591
2.90309
2.39821
1.17405
0.340039
0.608715
0.487193
0.403995
0.373859
0.366894
0.367694
0.367317
0.366169
0.357757
0.342286
0.348779
0.335324
3.13459
3.2765
3.27153
3.26514
3.2571
3.24176
3.21709
3.18139
3.1055
2.9339
2.50515
1.43841
0.273479
0.613029
0.519792
0.422406
0.38674
0.382218
0.389006
0.395405
0.401311
0.402992
0.395798
0.413293
0.413646
3.13458
3.27649
3.27151
3.26516
3.2571
3.2419
3.21666
3.18419
3.11411
2.96194
2.60632
1.7197
0.318024
0.606783
0.560621
0.445173
0.402308
0.40027
0.413068
0.426947
0.440046
0.452475
0.453817
0.485931
0.505477
3.13458
3.2765
3.2715
3.26516
3.25709
3.2419
3.21661
3.18646
3.12128
2.98532
2.69178
1.98177
0.594197
0.577572
0.605999
0.473961
0.422783
0.421638
0.439345
0.461109
0.481426
0.506764
0.519119
0.564896
0.621652
3.13458
3.27649
3.2715
3.26516
3.25708
3.24192
3.2167
3.1876
3.12799
3.00429
2.7585
2.19949
0.970347
0.501017
0.643615
0.510134
0.448491
0.445758
0.466119
0.497032
0.525135
0.565049
0.595094
0.658539
0.799564
3.13458
3.27647
3.27157
3.2651
3.25703
3.2412
3.21565
3.16602
3.05946
2.78328
2.00436
0.489011
0.486828
0.562797
0.432674
0.371145
0.346288
0.331047
0.31627
0.296197
0.26598
0.220651
0.169167
0.135228
0.034085
3.13459
3.27647
3.27158
3.2651
3.25704
3.24127
3.21593
3.16699
3.06239
2.79325
2.03502
0.53164
0.47954
0.565313
0.433496
0.370934
0.346195
0.331621
0.317906
0.299527
0.272159
0.230293
0.18276
0.154173
0.0829076
3.13458
3.27647
3.27157
3.26508
3.25703
3.24135
3.21635
3.16877
3.068
2.81244
2.09565
0.620177
0.469715
0.575406
0.439547
0.374675
0.349654
0.336341
0.324687
0.309327
0.286886
0.251517
0.211286
0.191127
0.142104
3.13459
3.27647
3.27158
3.26505
3.257
3.24168
3.21664
3.17135
3.07626
2.84019
2.18427
0.75618
0.443079
0.586442
0.448663
0.380411
0.355149
0.343725
0.335095
0.324018
0.308452
0.281495
0.24959
0.238083
0.203548
3.13458
3.27646
3.27157
3.26499
3.25695
3.24195
3.21668
3.17442
3.08577
2.87145
2.28839
0.936706
0.402724
0.599653
0.464017
0.390135
0.363317
0.35393
0.349394
0.343235
0.334868
0.316892
0.293284
0.290502
0.266514
3.13459
3.27649
3.27156
3.26509
3.25704
3.24184
3.21711
3.17818
3.09595
2.90313
2.39782
1.17278
0.341151
0.608708
0.486974
0.403855
0.373627
0.366699
0.367544
0.367177
0.366042
0.357644
0.342185
0.348669
0.335242
3.13459
3.27649
3.27153
3.26514
3.25709
3.24182
3.21708
3.18137
3.10556
2.93412
2.50549
1.43892
0.27411
0.612545
0.519247
0.421991
0.386399
0.381905
0.388785
0.395229
0.401171
0.402877
0.395707
0.413203
0.413579
3.13459
3.2765
3.27153
3.26517
3.25712
3.24198
3.21666
3.18423
3.11426
2.96222
2.60665
1.72004
0.318097
0.606828
0.560463
0.444855
0.401977
0.399944
0.412829
0.42676
0.439903
0.452364
0.453731
0.485856
0.505421
3.13458
3.2765
3.27152
3.26517
3.2571
3.24198
3.2166
3.18649
3.12144
2.9856
2.69213
1.98218
0.594535
0.577549
0.605923
0.473702
0.422456
0.42134
0.439115
0.460925
0.481287
0.506651
0.519039
0.564835
0.621605
3.13459
3.2765
3.27153
3.26519
3.25712
3.24202
3.21673
3.18768
3.12821
3.00468
2.75899
2.20012
0.97126
0.500877
0.643459
0.509945
0.448214
0.445485
0.465896
0.496874
0.525011
0.564955
0.595024
0.658502
0.799516
3.13459
3.27648
3.27159
3.26511
3.25705
3.24123
3.21569
3.16607
3.05953
2.78333
2.00424
0.48886
0.487121
0.563113
0.433061
0.37133
0.34632
0.331026
0.316233
0.296155
0.265944
0.220628
0.169154
0.135221
0.0340859
3.13459
3.27648
3.27159
3.2651
3.25705
3.24128
3.21594
3.16701
3.06242
2.79328
2.03495
0.531454
0.480211
0.565789
0.433848
0.371052
0.346171
0.331569
0.317855
0.299483
0.272126
0.230272
0.182749
0.154168
0.0829091
3.13459
3.27648
3.27159
3.26509
3.25704
3.2414
3.2164
3.16885
3.0682
2.81297
2.09696
0.621995
0.468611
0.574842
0.439017
0.374335
0.349468
0.336234
0.324621
0.309282
0.286858
0.251502
0.211279
0.191125
0.142107
3.13459
3.27647
3.27158
3.26505
3.257
3.24168
3.21663
3.17136
3.07631
2.84041
2.18505
0.757343
0.443047
0.586397
0.448342
0.380102
0.354975
0.343623
0.335033
0.323985
0.308436
0.281488
0.249589
0.238084
0.203553
3.13459
3.27646
3.27159
3.265
3.25696
3.24204
3.21669
3.17448
3.08596
2.872
2.28978
0.939123
0.401155
0.598977
0.463594
0.389862
0.363204
0.353876
0.349364
0.343226
0.334869
0.316896
0.293288
0.290507
0.266519
3.13459
3.27649
3.27156
3.26508
3.25704
3.2418
3.2171
3.17817
3.09592
2.90306
2.39785
1.17293
0.340614
0.608989
0.487271
0.403997
0.373721
0.366747
0.367564
0.367198
0.36606
0.357657
0.342195
0.348677
0.335249
3.13459
3.2765
3.27155
3.26515
3.25711
3.24185
3.21711
3.18141
3.10563
2.93418
2.5054
1.43835
0.273801
0.612897
0.519632
0.422281
0.386571
0.382012
0.388841
0.39527
0.4012
0.402897
0.395721
0.413213
0.413587
3.13458
3.2765
3.27153
3.26516
3.25711
3.24196
3.21664
3.1842
3.11418
2.96209
2.60642
1.7195
0.317865
0.60699
0.560613
0.445028
0.402091
0.400036
0.412884
0.426802
0.439935
0.452385
0.453747
0.485867
0.505429
3.13459
3.27651
3.27153
3.26518
3.25712
3.242
3.21664
3.18653
3.1215
2.98567
2.69217
1.98197
0.594216
0.577723
0.605951
0.473755
0.42249
0.421392
0.439155
0.460957
0.481313
0.506671
0.519055
0.564847
0.621612
3.13458
3.2765
3.27152
3.26518
3.25711
3.242
3.21672
3.18765
3.12816
3.00461
2.75892
2.20002
0.971112
0.501012
0.643392
0.509908
0.448207
0.445507
0.465927
0.496898
0.525031
0.564971
0.595037
0.658513
0.799523
3.13459
3.27648
3.27159
3.26512
3.25706
3.24124
3.2157
3.16609
3.05955
2.78335
2.00424
0.488814
0.48713
0.563103
0.433054
0.371338
0.346328
0.331024
0.316223
0.296142
0.265934
0.220622
0.169152
0.13522
0.0340856
3.13459
3.27648
3.27159
3.26511
3.25706
3.24129
3.21596
3.16703
3.06245
2.79332
2.03495
0.531391
0.480188
0.565758
0.433834
0.37106
0.346178
0.331566
0.317844
0.299467
0.272114
0.230265
0.182747
0.154166
0.0829083
3.13459
3.27648
3.27159
3.2651
3.25705
3.2414
3.21641
3.16886
3.06821
2.81296
2.09685
0.621795
0.468624
0.574845
0.439061
0.37438
0.349486
0.336231
0.324606
0.309261
0.286842
0.251492
0.211274
0.191122
0.142106
3.13459
3.27647
3.27159
3.26506
3.25701
3.2417
3.21666
3.17139
3.07635
2.84042
2.18485
0.756909
0.443221
0.586619
0.448558
0.380243
0.355011
0.343618
0.335013
0.323956
0.308414
0.281475
0.249582
0.23808
0.203551
3.13459
3.27646
3.2716
3.265
3.25696
3.24204
3.21669
3.17447
3.08594
2.87191
2.2894
0.938279
0.401997
0.599387
0.463785
0.389931
0.363191
0.353849
0.349336
0.34319
0.33484
0.316878
0.29328
0.290503
0.266517
3.1346
3.27649
3.27157
3.26509
3.25705
3.24186
3.21711
3.17819
3.09602
2.90333
2.39835
1.17379
0.340555
0.608638
0.486966
0.403765
0.373589
0.36667
0.367518
0.367155
0.366027
0.357637
0.342185
0.348672
0.335247
3.13459
3.2765
3.27155
3.26515
3.25711
3.24186
3.2171
3.18141
3.10566
2.9343
2.50575
1.4392
0.273581
0.61265
0.519455
0.422089
0.386435
0.381927
0.38879
0.395227
0.401167
0.402877
0.39571
0.413208
0.413585
3.13459
3.27651
3.27154
3.26518
3.25713
3.24199
3.21667
3.18425
3.11429
2.96228
2.6067
1.71995
0.31778
0.60687
0.56066
0.445008
0.40205
0.399986
0.412847
0.426768
0.439907
0.452367
0.453736
0.485862
0.505426
3.13459
3.27651
3.27153
3.26518
3.25712
3.24201
3.21663
3.18653
3.12151
2.98571
2.69223
1.98209
0.594322
0.577673
0.60604
0.473821
0.422515
0.421376
0.439132
0.460932
0.481292
0.506655
0.519045
0.564841
0.62161
3.13459
3.27651
3.27154
3.26519
3.25713
3.24204
3.21675
3.1877
3.12825
3.00475
2.75906
2.20007
0.970953
0.500974
0.643511
0.510011
0.448249
0.445506
0.465903
0.496873
0.525011
0.564957
0.595028
0.658507
0.799519
3.1346
3.27648
3.27159
3.26512
3.25706
3.24125
3.21571
3.1661
3.05957
2.78338
2.00429
0.488853
0.487124
0.563104
0.433054
0.371337
0.346321
0.331011
0.31621
0.296133
0.265929
0.220615
0.169143
0.135222
0.0340724
3.1346
3.27648
3.27159
3.26512
3.25707
3.2413
3.21597
3.16705
3.06247
2.79334
2.03499
0.531418
0.480205
0.565777
0.433849
0.371066
0.346174
0.331552
0.317827
0.299452
0.272101
0.23025
0.182733
0.154175
0.0828958
3.13459
3.27648
3.27159
3.2651
3.25705
3.24141
3.21641
3.16887
3.06823
2.81299
2.0969
0.621841
0.46862
0.574851
0.439063
0.374385
0.349486
0.336224
0.324595
0.309253
0.286835
0.251485
0.211273
0.191143
0.142098
3.13459
3.27647
3.2716
3.26506
3.25702
3.2417
3.21666
3.1714
3.07636
2.84045
2.1849
0.756975
0.44322
0.586628
0.448561
0.380245
0.355013
0.343617
0.335009
0.323955
0.308415
0.281474
0.249583
0.238099
0.20355
3.13459
3.27647
3.2716
3.265
3.25697
3.24204
3.2167
3.17448
3.08596
2.87195
2.28948
0.938408
0.401963
0.599382
0.463785
0.389933
0.363194
0.353852
0.349337
0.343193
0.334845
0.316877
0.293275
0.290512
0.266517
3.1346
3.27649
3.27157
3.26509
3.25705
3.24186
3.21712
3.1782
3.09603
2.90335
2.39842
1.17395
0.340503
0.608627
0.486968
0.403771
0.373594
0.366675
0.367522
0.367161
0.366034
0.357637
0.342177
0.348671
0.335242
3.1346
3.2765
3.27155
3.26516
3.25712
3.24186
3.21711
3.18142
3.10567
2.93432
2.50581
1.43935
0.273533
0.612633
0.519464
0.422096
0.386445
0.381937
0.388799
0.395236
0.401175
0.40288
0.395702
0.413196
0.413581
3.13459
3.27651
3.27154
3.26518
3.25713
3.242
3.21667
3.18425
3.1143
2.96229
2.60674
1.7201
0.317849
0.606845
0.560671
0.445022
0.402068
0.400002
0.41286
0.426779
0.439917
0.452375
0.453733
0.485849
0.505425
3.13459
3.27651
3.27153
3.26518
3.25712
3.242
3.21663
3.18653
3.12151
2.9857
2.69224
1.9822
0.594462
0.577628
0.606049
0.473837
0.422539
0.421396
0.439149
0.460947
0.481304
0.506668
0.519048
0.564828
0.621606
3.13459
3.27651
3.27154
3.26519
3.25713
3.24203
3.21675
3.18771
3.12825
3.00474
2.75907
2.20014
0.971083
0.500919
0.643518
0.510025
0.448273
0.445528
0.465924
0.496892
0.525025
0.564971
0.595036
0.658499
0.799521
3.13459
3.27648
3.27159
3.26512
3.25706
3.24124
3.2157
3.16609
3.05955
2.78335
2.00422
0.48878
0.487141
0.563103
0.433056
0.371337
0.346326
0.33102
0.316219
0.296137
0.26593
0.220619
0.16915
0.135219
0.0340851
3.13459
3.27648
3.27159
3.26511
3.25706
3.24129
3.21596
3.16703
3.06245
2.79331
2.03493
0.531357
0.480199
0.565759
0.433836
0.371059
0.346175
0.331562
0.317839
0.299462
0.27211
0.230262
0.182745
0.154165
0.0829077
3.13459
3.27648
3.27159
3.2651
3.25705
3.2414
3.21641
3.16886
3.06821
2.81295
2.09684
0.621772
0.468632
0.574845
0.439061
0.374378
0.349481
0.336226
0.3246
0.309256
0.286837
0.251488
0.211271
0.19112
0.142104
3.13459
3.27647
3.27159
3.26506
3.25701
3.2417
3.21665
3.17139
3.07634
2.84042
2.18484
0.756896
0.443234
0.586622
0.448559
0.38024
0.355006
0.343612
0.335007
0.32395
0.308409
0.281471
0.249579
0.238078
0.203549
3.13459
3.27646
3.2716
3.265
3.25696
3.24204
3.21669
3.17447
3.08594
2.87191
2.28941
0.938302
0.401997
0.599383
0.46378
0.389925
0.363185
0.353845
0.349331
0.343185
0.334835
0.316874
0.293277
0.2905
0.266515
3.1346
3.27649
3.27157
3.26509
3.25705
3.24186
3.21711
3.17819
3.09602
2.90333
2.39837
1.17386
0.34054
0.608629
0.486958
0.403757
0.373584
0.366668
0.367516
0.367152
0.366024
0.357634
0.342183
0.34867
0.335245
3.13459
3.2765
3.27155
3.26515
3.25711
3.24186
3.2171
3.1814
3.10566
2.9343
2.50577
1.43928
0.273565
0.612633
0.519451
0.422081
0.386433
0.381929
0.388794
0.395228
0.401166
0.402875
0.395708
0.413206
0.413583
3.13459
3.27651
3.27154
3.26518
3.25713
3.24199
3.21667
3.18424
3.11429
2.96227
2.60671
1.72006
0.317852
0.606839
0.560659
0.445008
0.402055
0.399994
0.412855
0.426773
0.439909
0.452368
0.453736
0.48586
0.505424
3.13459
3.2765
3.27153
3.26518
3.25712
3.242
3.21662
3.18652
3.1215
2.98568
2.69222
1.98216
0.594443
0.577625
0.606042
0.473828
0.422528
0.42139
0.439145
0.460942
0.481298
0.506658
0.519045
0.56484
0.621607
3.13459
3.27651
3.27153
3.26519
3.25712
3.24203
3.21674
3.1877
3.12824
3.00473
2.75904
2.2001
0.971057
0.500915
0.643516
0.510022
0.448265
0.445525
0.465922
0.496889
0.525022
0.564963
0.595031
0.658507
0.799518
3.13459
3.27648
3.27159
3.26512
3.25706
3.24124
3.2157
3.16609
3.05955
2.78335
2.00424
0.488814
0.487129
0.563103
0.433054
0.371337
0.346328
0.331024
0.316223
0.296142
0.265934
0.220622
0.169152
0.13522
0.0340856
3.13459
3.27648
3.27159
3.26511
3.25706
3.24129
3.21596
3.16703
3.06245
2.79332
2.03495
0.53139
0.480188
0.565758
0.433834
0.37106
0.346178
0.331566
0.317844
0.299467
0.272114
0.230265
0.182747
0.154166
0.0829083
3.13459
3.27648
3.27159
3.2651
3.25705
3.2414
3.21641
3.16886
3.06821
2.81296
2.09685
0.621794
0.468624
0.574845
0.439061
0.37438
0.349486
0.336231
0.324606
0.309261
0.286842
0.251492
0.211274
0.191122
0.142106
3.13459
3.27647
3.27159
3.26506
3.25701
3.2417
3.21666
3.17139
3.07635
2.84042
2.18485
0.756909
0.443221
0.586619
0.448558
0.380243
0.355011
0.343618
0.335013
0.323956
0.308414
0.281475
0.249582
0.23808
0.203551
3.13459
3.27646
3.2716
3.265
3.25696
3.24204
3.21669
3.17447
3.08594
2.87191
2.2894
0.938279
0.401997
0.599387
0.463784
0.389931
0.363191
0.353849
0.349336
0.343189
0.33484
0.316878
0.29328
0.290503
0.266517
3.1346
3.27649
3.27157
3.26509
3.25705
3.24186
3.21711
3.17819
3.09602
2.90333
2.39835
1.17379
0.340555
0.608638
0.486966
0.403765
0.373589
0.36667
0.367518
0.367155
0.366027
0.357637
0.342185
0.348672
0.335247
3.13459
3.2765
3.27155
3.26515
3.25711
3.24186
3.2171
3.18141
3.10566
2.9343
2.50575
1.4392
0.273581
0.61265
0.519455
0.422088
0.386435
0.381926
0.38879
0.395227
0.401167
0.402877
0.39571
0.413208
0.413585
3.13459
3.27651
3.27154
3.26518
3.25713
3.24199
3.21667
3.18425
3.11429
2.96228
2.6067
1.71995
0.31778
0.60687
0.56066
0.445008
0.40205
0.399986
0.412847
0.426768
0.439907
0.452367
0.453736
0.485862
0.505426
3.13459
3.27651
3.27153
3.26518
3.25712
3.24201
3.21663
3.18653
3.12151
2.98571
2.69223
1.98209
0.594322
0.577673
0.60604
0.473821
0.422515
0.421376
0.439132
0.460932
0.481292
0.506655
0.519045
0.564841
0.62161
3.13459
3.27651
3.27154
3.26519
3.25713
3.24204
3.21675
3.1877
3.12825
3.00475
2.75906
2.20007
0.970953
0.500974
0.643511
0.510011
0.448249
0.445506
0.465903
0.496873
0.525011
0.564957
0.595028
0.658507
0.799519
3.13459
3.27648
3.27159
3.26511
3.25705
3.24123
3.21569
3.16607
3.05953
2.78333
2.00424
0.48886
0.487121
0.563113
0.433061
0.37133
0.34632
0.331026
0.316233
0.296155
0.265944
0.220628
0.169154
0.135221
0.0340859
3.13459
3.27648
3.27159
3.2651
3.25705
3.24128
3.21594
3.16701
3.06242
2.79328
2.03495
0.531454
0.480211
0.565789
0.433848
0.371052
0.346171
0.331569
0.317855
0.299483
0.272126
0.230272
0.182749
0.154168
0.0829091
3.13459
3.27648
3.27159
3.26509
3.25704
3.2414
3.2164
3.16885
3.0682
2.81297
2.09696
0.621995
0.468611
0.574842
0.439017
0.374335
0.349468
0.336234
0.324621
0.309282
0.286858
0.251502
0.211279
0.191125
0.142107
3.13459
3.27647
3.27158
3.26505
3.257
3.24168
3.21663
3.17136
3.07631
2.84041
2.18505
0.757343
0.443047
0.586396
0.448342
0.380102
0.354975
0.343623
0.335033
0.323985
0.308436
0.281488
0.249589
0.238084
0.203553
3.13459
3.27646
3.27159
3.265
3.25696
3.24204
3.21669
3.17448
3.08596
2.872
2.28978
0.939123
0.401155
0.598977
0.463594
0.389862
0.363204
0.353876
0.349364
0.343226
0.334869
0.316896
0.293288
0.290507
0.266519
3.13459
3.27649
3.27156
3.26508
3.25704
3.2418
3.2171
3.17817
3.09592
2.90306
2.39785
1.17293
0.340614
0.608989
0.487271
0.403997
0.373721
0.366747
0.367564
0.367198
0.36606
0.357657
0.342195
0.348677
0.335249
3.13459
3.2765
3.27155
3.26515
3.25711
3.24185
3.21711
3.18141
3.10563
2.93418
2.5054
1.43835
0.273801
0.612897
0.519632
0.422281
0.386571
0.382012
0.388841
0.39527
0.4012
0.402897
0.395721
0.413213
0.413587
3.13458
3.2765
3.27153
3.26516
3.25711
3.24196
3.21664
3.1842
3.11418
2.96209
2.60642
1.7195
0.317865
0.60699
0.560613
0.445028
0.402091
0.400036
0.412884
0.426802
0.439935
0.452385
0.453747
0.485867
0.505429
3.13459
3.27651
3.27153
3.26518
3.25712
3.242
3.21664
3.18653
3.1215
2.98567
2.69217
1.98197
0.594216
0.577723
0.605951
0.473755
0.42249
0.421392
0.439155
0.460957
0.481313
0.506671
0.519054
0.564847
0.621612
3.13458
3.2765
3.27152
3.26518
3.25711
3.242
3.21672
3.18765
3.12816
3.00461
2.75892
2.20002
0.971112
0.501012
0.643392
0.509908
0.448207
0.445507
0.465927
0.496898
0.525031
0.564971
0.595037
0.658513
0.799523
3.13458
3.27647
3.27157
3.2651
3.25703
3.2412
3.21565
3.16602
3.05946
2.78328
2.00436
0.489011
0.486828
0.562798
0.432674
0.371145
0.346288
0.331047
0.31627
0.296197
0.26598
0.220651
0.169167
0.135228
0.034085
3.13459
3.27647
3.27158
3.2651
3.25704
3.24127
3.21593
3.16699
3.06239
2.79325
2.03502
0.53164
0.47954
0.565313
0.433496
0.370934
0.346195
0.331621
0.317906
0.299527
0.272159
0.230293
0.18276
0.154173
0.0829076
3.13458
3.27647
3.27157
3.26508
3.25703
3.24135
3.21635
3.16877
3.068
2.81244
2.09565
0.620177
0.469715
0.575406
0.439547
0.374675
0.349654
0.336341
0.324687
0.309327
0.286886
0.251517
0.211286
0.191127
0.142104
3.13459
3.27647
3.27158
3.26505
3.257
3.24168
3.21664
3.17135
3.07626
2.84019
2.18427
0.756181
0.443079
0.586442
0.448663
0.380411
0.355149
0.343725
0.335095
0.324018
0.308452
0.281495
0.24959
0.238083
0.203548
3.13458
3.27646
3.27157
3.26499
3.25695
3.24195
3.21668
3.17442
3.08577
2.87145
2.28839
0.936708
0.402722
0.599653
0.464017
0.390135
0.363317
0.35393
0.349395
0.343235
0.334868
0.316892
0.293284
0.290503
0.266514
3.13459
3.27649
3.27156
3.26509
3.25704
3.24184
3.21711
3.17818
3.09595
2.90313
2.39782
1.17278
0.34115
0.608708
0.486975
0.403855
0.373627
0.3667
0.367544
0.367177
0.366042
0.357644
0.342185
0.34867
0.335242
3.13459
3.27649
3.27153
3.26514
3.25709
3.24182
3.21708
3.18137
3.10556
2.93412
2.50549
1.43892
0.274109
0.612545
0.519247
0.421992
0.386399
0.381905
0.388785
0.395229
0.401171
0.402877
0.395707
0.413203
0.413579
3.13459
3.2765
3.27153
3.26517
3.25712
3.24198
3.21666
3.18423
3.11426
2.96222
2.60665
1.72004
0.318096
0.606828
0.560463
0.444855
0.401977
0.399944
0.412829
0.42676
0.439903
0.452364
0.453731
0.485856
0.505421
3.13458
3.2765
3.27152
3.26517
3.2571
3.24198
3.2166
3.18649
3.12144
2.9856
2.69213
1.98218
0.594534
0.577549
0.605923
0.473702
0.422456
0.42134
0.439115
0.460925
0.481287
0.506651
0.519039
0.564835
0.621605
3.13459
3.27651
3.27153
3.26519
3.25712
3.24202
3.21673
3.18768
3.12821
3.00468
2.75899
2.20012
0.971259
0.500877
0.643459
0.509945
0.448214
0.445485
0.465895
0.496874
0.525011
0.564955
0.595024
0.658502
0.799516
3.1346
3.27648
3.27159
3.26511
3.25705
3.24122
3.21568
3.16607
3.05956
2.78354
2.00506
0.490051
0.486974
0.563247
0.433055
0.371376
0.346431
0.331152
0.316374
0.296314
0.26612
0.220821
0.169377
0.135489
0.0350156
3.13459
3.27648
3.27159
3.2651
3.25705
3.24127
3.21593
3.16701
3.06246
2.79349
2.03587
0.532957
0.479737
0.565578
0.433627
0.371007
0.346249
0.331678
0.317977
0.299614
0.272264
0.230416
0.182913
0.154391
0.0832848
3.13459
3.27648
3.27158
3.26509
3.25704
3.24139
3.21638
3.16884
3.06823
2.81315
2.09777
0.623428
0.467659
0.574611
0.438876
0.374408
0.349607
0.336371
0.324757
0.309414
0.286991
0.251635
0.211422
0.191306
0.142323
3.13459
3.27647
3.27158
3.26505
3.257
3.24164
3.21663
3.17135
3.07622
2.84014
2.18446
0.756539
0.443905
0.587388
0.449139
0.380633
0.355274
0.343805
0.335188
0.32412
0.308568
0.281616
0.249718
0.238235
0.203695
3.13459
3.27646
3.27158
3.26499
3.25695
3.242
3.21667
3.17444
3.08587
2.87181
2.28941
0.938585
0.402245
0.599507
0.463959
0.39012
0.363392
0.354038
0.349515
0.343356
0.334992
0.317012
0.293397
0.290632
0.266627
3.13459
3.27648
3.27155
3.26508
3.25703
3.24178
3.21709
3.17817
3.09594
2.90323
2.39869
1.17529
0.340038
0.608105
0.486724
0.403746
0.373725
0.366838
0.367688
0.367312
0.366171
0.357763
0.342291
0.348783
0.335331
3.13459
3.2765
3.27153
3.26515
3.25711
3.24178
3.21711
3.18143
3.1056
2.93412
2.50574
1.43975
0.272942
0.612502
0.519539
0.422221
0.386662
0.382132
0.388971
0.395382
0.401303
0.402996
0.395805
0.413299
0.413654
3.13458
3.27649
3.27151
3.26516
3.2571
3.24188
3.21665
3.18419
3.11408
2.96187
2.60621
1.71943
0.317111
0.607088
0.560944
0.445267
0.402338
0.400228
0.413047
0.426925
0.440037
0.452477
0.453824
0.485937
0.505485
3.13459
3.2765
3.27152
3.26517
3.25711
3.24195
3.21664
3.18651
3.1214
2.98552
2.692
1.98181
0.594123
0.577706
0.606115
0.474005
0.422777
0.421604
0.439332
0.461089
0.481415
0.506763
0.519123
0.564901
0.621658
3.13458
3.2765
3.2715
3.26517
3.25709
3.24192
3.21672
3.18761
3.12801
3.00432
2.75856
2.19957
0.97036
0.501165
0.643574
0.510115
0.448447
0.445719
0.466096
0.497008
0.52512
0.565044
0.595095
0.658543
0.799569
3.13458
3.27648
3.27151
3.26515
3.25707
3.24201
3.21669
3.18819
3.13331
3.01768
2.80892
2.3674
1.37845
0.397063
0.658102
0.55551
0.478747
0.471537
0.493933
0.534114
0.569712
0.622467
0.677048
0.758109
0.994054
3.13458
3.27648
3.27152
3.26513
3.25705
3.24208
3.2165
3.18836
3.13595
3.02403
2.84666
2.49253
1.72991
0.495447
0.638508
0.611449
0.512321
0.498009
0.524432
0.572108
0.613827
0.672552
0.753899
0.839388
1.06943
3.13458
3.27648
3.27152
3.26513
3.25704
3.24212
3.2166
3.1884
3.13721
3.02766
2.87391
2.57938
1.99818
0.911638
0.560557
0.661459
0.54988
0.525834
0.555694
0.609237
0.657745
0.712322
0.808942
0.885346
1.07121
3.13458
3.27648
3.27152
3.26513
3.25704
3.24207
3.21673
3.18838
3.1375
3.02779
2.88972
2.64134
2.17688
1.35628
0.465351
0.675889
0.59545
0.556131
0.587029
0.641524
0.699417
0.746534
0.848565
0.918675
1.05563
3.13458
3.27649
3.27151
3.26514
3.25705
3.24202
3.21679
3.18836
3.13748
3.02565
2.89656
2.68298
2.28666
1.66992
0.654735
0.631983
0.647511
0.592043
0.61985
0.67046
0.731607
0.777079
0.876745
0.944375
1.036
3.13458
3.27648
3.27151
3.26514
3.25705
3.24201
3.21679
3.18836
3.1375
3.02598
2.89831
2.70353
2.34604
1.88661
1.12518
0.552505
0.684142
0.632772
0.650186
0.694643
0.754637
0.79907
0.891757
0.956724
1.02345
3.13458
3.27648
3.27151
3.26514
3.25705
3.24201
3.2168
3.18836
3.13747
3.02579
2.89712
2.7094
2.36907
2.01359
1.47486
0.618192
0.675232
0.677969
0.678622
0.712724
0.774005
0.813564
0.895448
0.956615
1.01641
3.13457
3.27648
3.27151
3.26513
3.25705
3.242
3.21681
3.18835
3.13745
3.02587
2.89577
2.71134
2.37031
2.08959
1.70506
1.02204
0.626489
0.711511
0.706801
0.730321
0.788267
0.827783
0.891473
0.958267
1.0131
3.13458
3.27648
3.27151
3.26513
3.25705
3.242
3.21681
3.18835
3.13749
3.02625
2.89594
2.71059
2.37287
2.10858
1.83356
1.40217
0.708867
0.720685
0.739936
0.75063
0.795606
0.841245
0.892277
0.95771
1.01333
3.13457
3.27648
3.27151
3.26513
3.25704
3.24199
3.2168
3.18833
3.13746
3.02627
2.89555
2.70914
2.37074
2.11267
1.8961
1.61385
1.08314
0.705682
0.764058
0.777015
0.805898
0.849087
0.900524
0.956222
1.01083
3.13457
3.27648
3.27151
3.26513
3.25704
3.24202
3.21678
3.18832
3.1375
3.02639
2.89578
2.70967
2.37182
2.11345
1.91381
1.72074
1.41889
0.879546
0.772493
0.808941
0.831216
0.858431
0.909322
0.957713
1.01106
3.13458
3.27648
3.27151
3.26513
3.25704
3.242
3.21678
3.18833
3.13746
3.02625
2.8957
2.70949
2.37216
2.11001
1.91621
1.7524
1.57841
1.2621
0.846843
0.839074
0.869463
0.880586
0.919758
0.96711
1.01539
3.13458
3.27648
3.27151
3.26513
3.25705
3.242
3.21678
3.18833
3.13747
3.02626
2.89571
2.70949
2.37214
2.10989
1.91657
1.75686
1.64591
1.49299
1.18051
0.895554
0.909227
0.917552
0.939182
0.981556
1.02568
3.13457
3.27648
3.27151
3.26513
3.25704
3.24203
3.21677
3.18832
3.1375
3.02637
2.8958
2.70978
2.37274
2.1105
1.91788
1.75936
1.65755
1.58146
1.45734
1.17577
0.960816
0.956711
0.973088
1.00337
1.04285
3.13458
3.27648
3.27151
3.26513
3.25705
3.242
3.21679
3.18833
3.13746
3.02623
2.89566
2.70945
2.37202
2.10967
1.9168
1.75808
1.6575
1.60359
1.5562
1.45707
1.21238
1.01483
0.999458
1.02616
1.05971
3.13457
3.27648
3.27151
3.26513
3.25705
3.242
3.21679
3.18834
3.13747
3.02623
2.89568
2.70949
2.37215
2.10982
1.91686
1.75804
1.65736
1.6063
1.57979
1.55663
1.48241
1.2726
1.06389
1.03607
1.06917
3.13457
3.27648
3.27151
3.26513
3.25705
3.242
3.2168
3.18834
3.13748
3.02626
2.89572
2.70954
2.37226
2.10985
1.91685
1.758
1.65729
1.60652
1.58201
1.58102
1.5657
1.51143
1.33798
1.12307
1.06232
3.13457
3.27648
3.2715
3.26513
3.25704
3.24199
3.21679
3.18832
3.13744
3.02621
2.89565
2.70945
2.37213
2.10965
1.91674
1.75802
1.65732
1.60661
1.58227
1.58345
1.58182
1.57046
1.51451
1.38451
1.22836
3.13457
3.27648
3.27151
3.26513
3.25704
3.24203
3.21679
3.18833
3.13751
3.02641
2.89585
2.70984
2.37284
2.11046
1.91779
1.75929
1.65875
1.60814
1.58386
1.58532
1.58506
1.58019
1.54834
1.48194
1.41272
3.13457
3.27648
3.2715
3.26512
3.25704
3.24198
3.21679
3.18831
3.13742
3.02619
2.89563
2.70945
2.37215
2.10966
1.91676
1.75806
1.65736
1.60664
1.58231
1.58376
1.58386
1.58063
1.55229
1.49471
1.45114
3.13458
3.27648
3.27151
3.26514
3.25705
3.242
3.21681
3.18835
3.13749
3.02627
2.89573
2.70954
2.37222
2.10987
1.91688
1.75804
1.65733
1.60658
1.58223
1.58367
1.5838
1.58079
1.55275
1.49611
1.45559
3.13457
3.27647
3.2715
3.26512
3.25703
3.24197
3.21678
3.1883
3.13741
3.02614
2.89559
2.70948
2.37223
2.10986
1.91707
1.7584
1.65764
1.60689
1.58251
1.58393
1.58407
1.58103
1.55302
1.49649
1.45617
3.13458
3.27648
3.27151
3.26514
3.25705
3.242
3.21681
3.18836
3.13749
3.02627
2.89574
2.70956
2.37224
2.10991
1.91692
1.75807
1.65735
1.6066
1.58224
1.58367
1.5838
1.58081
1.5528
1.4963
1.45608
3.13457
3.27647
3.2715
3.26512
3.25703
3.24197
3.21678
3.18829
3.1374
3.02615
2.89559
2.70943
2.37216
2.10971
1.91683
1.75813
1.65742
1.6067
1.58235
1.58378
1.58393
1.5809
1.55292
1.49642
1.45615
3.13457
3.27648
3.27151
3.26513
3.25704
3.24203
3.2168
3.18834
3.13752
3.02643
2.89588
2.70988
2.37289
2.11053
1.91784
1.75932
1.65877
1.60815
1.58387
1.58537
1.58549
1.58224
1.554
1.49724
1.45675
3.13457
3.27648
3.2715
3.26512
3.25703
3.24197
3.21678
3.1883
3.1374
3.02616
2.8956
2.70944
2.37218
2.10971
1.91681
1.75809
1.65738
1.60665
1.58231
1.58375
1.5839
1.58088
1.5529
1.4964
1.45615
3.13458
3.27648
3.27151
3.26514
3.25705
3.242
3.21681
3.18836
3.1375
3.02629
2.89576
2.70959
2.3723
2.10992
1.91691
1.75805
1.65733
1.60658
1.58223
1.58367
1.58382
1.58083
1.55282
1.49633
1.4561
3.13457
3.27648
3.2715
3.26512
3.25704
3.24198
3.21679
3.18831
3.13743
3.02618
2.89563
2.70951
2.37224
2.10981
1.917
1.75834
1.65759
1.60684
1.58248
1.5839
1.58405
1.58101
1.55301
1.4965
1.45621
3.13458
3.27648
3.27151
3.26514
3.25705
3.24201
3.21681
3.18836
3.1375
3.02629
2.89576
2.70957
2.37225
2.1099
1.9169
1.75805
1.65735
1.60659
1.58224
1.58367
1.58381
1.58082
1.55281
1.49631
1.4561
3.13457
3.27648
3.27151
3.26513
3.25704
3.24199
3.21679
3.18832
3.13745
3.02623
2.89567
2.70948
2.37213
2.10967
1.91678
1.75808
1.65739
1.60666
1.58232
1.58376
1.58391
1.58091
1.55292
1.49642
1.45616
3.13457
3.27648
3.27151
3.26513
3.25705
3.24203
3.21679
3.18834
3.13753
3.02645
2.89591
2.70991
2.37292
2.11055
1.91785
1.75933
1.65877
1.60815
1.58385
1.58535
1.58546
1.58222
1.55399
1.49723
1.45674
3.13458
3.27648
3.27151
3.26513
3.25705
3.242
3.21679
3.18834
3.13748
3.02627
2.89572
2.7095
2.37219
2.10975
1.91667
1.75778
1.6571
1.60637
1.58204
1.58349
1.58364
1.58067
1.55271
1.49624
1.45605
3.13458
3.27649
3.27151
3.26514
3.25706
3.24202
3.2168
3.18836
3.13751
3.02634
2.8958
2.70957
2.37222
2.10982
1.91671
1.75778
1.6571
1.60636
1.58202
1.58346
1.5836
1.58065
1.55267
1.49621
1.45602
3.13457
3.27648
3.27151
3.26513
3.25705
3.24204
3.21679
3.18834
3.13752
3.02641
2.89586
2.70986
2.37283
2.11058
1.91794
1.75946
1.65887
1.60821
1.58388
1.58534
1.58545
1.58221
1.55397
1.49722
1.45673
3.13458
3.27649
3.27152
3.26514
3.25706
3.24203
3.21681
3.18837
3.13753
3.02635
2.89581
2.70956
2.37212
2.10979
1.91672
1.75782
1.65715
1.60639
1.58204
1.58348
1.58361
1.58067
1.55268
1.49621
1.45603
3.13458
3.27649
3.27151
3.26514
3.25706
3.24202
3.2168
3.18835
3.13751
3.02633
2.89578
2.70956
2.37221
2.10976
1.91665
1.75774
1.65706
1.60633
1.582
1.58345
1.58359
1.58064
1.55268
1.49622
1.45604
3.13458
3.27648
3.27152
3.26514
3.25706
3.24206
3.2168
3.18836
3.13758
3.02653
2.89598
2.7099
2.37283
2.11051
1.91763
1.75894
1.65843
1.6078
1.58351
1.585
1.5851
1.58193
1.55371
1.497
1.4566
3.13458
3.27649
3.27152
3.26514
3.25706
3.24202
3.21682
3.18837
3.13752
3.02634
2.89579
2.70958
2.37214
2.10966
1.91674
1.75803
1.65734
1.60662
1.58229
1.58374
1.58389
1.5809
1.55292
1.49641
1.45617
3.13458
3.27648
3.27152
3.26514
3.25706
3.24206
3.2168
3.18837
3.13758
3.02652
2.89597
2.70992
2.37287
2.11054
1.91769
1.75903
1.65846
1.6078
1.58349
1.58495
1.58506
1.5819
1.5537
1.49702
1.45661
3.13458
3.27649
3.27152
3.26514
3.25706
3.24203
3.21681
3.18837
3.13753
3.02637
2.89583
2.7096
2.37223
2.1098
1.91666
1.75773
1.65705
1.60631
1.58198
1.58343
1.58357
1.58063
1.55266
1.49621
1.45603
3.13459
3.2765
3.27153
3.26517
3.25709
3.24208
3.21673
3.18825
3.13346