/*--------------------------------*- C++ -*----------------------------------*\
| =========                 |                                                 |
| \\      /  F ield         | OpenFOAM: The Open Source CFD Toolbox           |
|  \\    /   O peration     | Version:  4.1                                   |
|   \\  /    A nd           | Web:      www.OpenFOAM.org                      |
|    \\/     M anipulation  |                                                 |
\*---------------------------------------------------------------------------*/
FoamFile
{
    version     2.0;
    format      ascii;
    class       volScalarField;
    location    "0.36";
    object      p;
}
// * * * * * * * * * * * * * * * * * * * * * * * * * * * * * * * * * * * * * //

dimensions      [1 -1 -2 0 0 0 0];

internalField   nonuniform List<scalar> 
52500
(
0.0905748
0.0629557
0.0629618
0.0630528
0.0632758
0.0637481
0.0647533
0.0670499
0.0729358
0.090347
0.159288
0.545
2.28832
2.15232
2.05185
2.00756
1.94748
1.8159
1.6989
1.58894
1.50329
1.44682
1.40969
1.38969
1.39573
0.0905748
0.0629558
0.0629619
0.0630531
0.0632763
0.0637464
0.0647382
0.0669863
0.0727317
0.0896122
0.155677
0.522348
2.25588
2.16733
2.05656
2.01267
1.95237
1.82019
1.70221
1.59071
1.50263
1.44501
1.4075
1.38676
1.39311
0.0905748
0.062956
0.0629623
0.0630538
0.0632781
0.0637467
0.064707
0.0668615
0.0723229
0.088165
0.148635
0.477894
2.16989
2.19992
2.06093
2.01349
1.95438
1.82231
1.70236
1.58919
1.49739
1.43706
1.39845
1.37592
1.38298
0.0905749
0.0629566
0.0629631
0.0630552
0.0632809
0.0637517
0.0646658
0.0666869
0.071762
0.0861651
0.139192
0.420208
2.01749
2.25808
2.06829
2.0136
1.95691
1.82479
1.70199
1.5858
1.48788
1.42296
1.3822
1.35688
1.36449
0.090575
0.0629572
0.062964
0.0630572
0.0632848
0.0637647
0.0646192
0.0664807
0.0711029
0.0838912
0.128655
0.355992
1.78203
2.35147
2.07845
2.01057
1.95932
1.82885
1.70077
1.58048
1.47692
1.40599
1.36178
1.33218
1.33986
0.0905749
0.0629558
0.0629623
0.0630551
0.063283
0.0637666
0.0645642
0.0662678
0.0704378
0.0815928
0.11852
0.293792
1.4532
2.47186
2.08792
2.00683
1.96017
1.83544
1.6997
1.57337
1.46376
1.38559
1.33687
1.301
1.30701
0.090575
0.0629553
0.0629616
0.0630539
0.0632804
0.0637627
0.0645415
0.0661087
0.069794
0.079289
0.109102
0.242687
1.08692
2.55201
2.09693
2.00534
1.95883
1.84564
1.70054
1.56486
1.44844
1.36166
1.30729
1.2621
1.26305
0.0905753
0.0629554
0.0629616
0.0630536
0.063279
0.0637587
0.064559
0.0659746
0.0692126
0.0771833
0.100599
0.195899
0.754681
2.53105
2.12416
2.00984
1.95786
1.85829
1.70272
1.55602
1.43168
1.3343
1.27389
1.21374
1.20646
0.0905752
0.0629557
0.062962
0.0630542
0.0632804
0.063763
0.0645512
0.0659009
0.0687513
0.0753582
0.0935094
0.159572
0.499907
2.26784
2.23911
2.02449
1.9569
1.8716
1.70668
1.54893
1.41431
1.30322
1.23531
1.15465
1.1283
0.0905752
0.0629558
0.0629619
0.0630541
0.0632805
0.0637658
0.064529
0.0658972
0.0683377
0.0737577
0.0880213
0.134355
0.345853
1.68728
2.42296
2.04648
1.95433
1.88041
1.71282
1.54484
1.39818
1.26772
1.18777
1.08669
1.02391
0.0905752
0.0629562
0.0629623
0.0630533
0.0632763
0.0637487
0.0647541
0.0670515
0.07294
0.0903617
0.159366
0.545541
2.28961
2.15228
2.05151
2.00726
1.9472
1.8157
1.69875
1.58878
1.50315
1.44667
1.40953
1.38953
1.39556
0.0905752
0.0629561
0.0629623
0.0630534
0.0632766
0.0637468
0.0647388
0.0669877
0.0727357
0.0896258
0.155746
0.522777
2.2574
2.16704
2.05622
2.01246
1.95212
1.81999
1.70204
1.59055
1.50248
1.44486
1.40734
1.3866
1.39294
0.0905752
0.0629564
0.0629626
0.0630541
0.0632784
0.0637469
0.0647083
0.0668645
0.0723338
0.0882032
0.148812
0.479047
2.17134
2.19862
2.06072
2.0133
1.95417
1.8221
1.70218
1.58904
1.49725
1.43692
1.3983
1.37576
1.38282
0.0905751
0.0629564
0.0629629
0.063055
0.0632806
0.0637512
0.0646658
0.0666885
0.0717685
0.0861905
0.139319
0.420972
2.01979
2.25623
2.06788
2.01353
1.9568
1.82461
1.70181
1.58565
1.48776
1.42283
1.38206
1.35674
1.36434
0.0905752
0.0629572
0.062964
0.0630571
0.0632846
0.0637641
0.0646193
0.0664829
0.0711123
0.0839253
0.128812
0.357037
1.78498
2.3484
2.07846
2.01055
1.95924
1.82871
1.70062
1.58036
1.47682
1.40587
1.36165
1.33205
1.33973
0.090575
0.0629554
0.0629619
0.0630546
0.0632823
0.0637657
0.0645635
0.0662678
0.0704394
0.0816013
0.118569
0.294137
1.4553
2.46951
2.08776
2.00681
1.96015
1.83536
1.69962
1.57331
1.46369
1.3855
1.33676
1.30089
1.30689
0.0905752
0.0629551
0.0629614
0.0630536
0.0632798
0.0637617
0.0645422
0.0661094
0.0697908
0.0792797
0.109082
0.24264
1.08651
2.55203
2.09658
2.0053
1.95882
1.84571
1.70056
1.56485
1.4484
1.3616
1.30719
1.262
1.26295
0.0905751
0.0629547
0.0629609
0.0630528
0.0632778
0.0637569
0.0645598
0.065973
0.0692072
0.077172
0.100576
0.195824
0.754258
2.5309
2.12406
2.00987
1.95792
1.85844
1.70281
1.55608
1.43168
1.33427
1.27382
1.21366
1.20638
0.0905752
0.0629551
0.0629613
0.0630534
0.0632792
0.063761
0.0645512
0.0658981
0.0687463
0.0753508
0.0934929
0.159526
0.49973
2.26789
2.23941
2.02475
1.95706
1.87177
1.70681
1.54905
1.41436
1.30321
1.23525
1.15459
1.12824
0.0905751
0.0629547
0.0629608
0.0630527
0.0632785
0.0637629
0.0645266
0.0658924
0.0683314
0.0737483
0.0879999
0.134298
0.345636
1.68619
2.42367
2.04665
1.95449
1.88054
1.71301
1.54501
1.39827
1.26774
1.18774
1.08664
1.02386
0.090575
0.0629557
0.0629618
0.0630527
0.0632756
0.0637478
0.0647531
0.0670506
0.0729394
0.0903636
0.159383
0.545646
2.28901
2.15169
2.05154
2.00734
1.94734
1.81582
1.69883
1.58887
1.50321
1.44671
1.40955
1.38954
1.39557
0.090575
0.0629558
0.0629619
0.063053
0.0632761
0.0637461
0.064738
0.0669866
0.0727341
0.0896238
0.155747
0.522827
2.25669
2.16678
2.05628
2.01247
1.95224
1.82011
1.70213
1.59063
1.50254
1.4449
1.40736
1.38661
1.39296
0.090575
0.0629558
0.062962
0.0630535
0.0632777
0.063746
0.0647064
0.0668612
0.0723241
0.0881738
0.148689
0.478289
2.17068
2.19944
2.06067
2.01333
1.95427
1.82222
1.70227
1.58911
1.4973
1.43695
1.39832
1.37577
1.38283
0.0905751
0.0629564
0.0629629
0.063055
0.0632805
0.0637511
0.0646652
0.0666865
0.0717625
0.0861703
0.139229
0.420471
2.01842
2.25753
2.06798
2.0135
1.95686
1.82471
1.70191
1.58571
1.48779
1.42285
1.38206
1.35674
1.36435
0.090575
0.0629567
0.0629636
0.0630567
0.063284
0.0637636
0.0646184
0.0664804
0.071104
0.0838977
0.128694
0.356315
1.78295
2.35055
2.07816
2.01044
1.95928
1.82882
1.70072
1.5804
1.47683
1.40588
1.36165
1.33205
1.33972
0.090575
0.0629555
0.0629621
0.0630548
0.0632825
0.0637659
0.0645637
0.0662678
0.0704388
0.0815978
0.118551
0.294009
1.45456
2.47053
2.08777
2.00676
1.96021
1.83546
1.69969
1.57332
1.46368
1.38549
1.33675
1.30088
1.30688
0.090575
0.0629547
0.062961
0.0630532
0.0632793
0.063761
0.0645419
0.0661093
0.0697908
0.0792814
0.109095
0.242728
1.08725
2.55129
2.09664
2.00534
1.95892
1.84575
1.7006
1.56484
1.44838
1.36158
1.30717
1.26198
1.26294
0.0905753
0.0629549
0.0629611
0.0630531
0.0632781
0.0637573
0.0645596
0.0659735
0.0692087
0.0771764
0.10059
0.195905
0.754922
2.53022
2.12396
2.00996
1.95797
1.85845
1.70282
1.55605
1.43164
1.33423
1.27379
1.21363
1.20636
0.090575
0.0629548
0.0629609
0.0630529
0.0632786
0.0637602
0.0645497
0.065896
0.0687441
0.07535
0.093497
0.15956
0.499965
2.26814
2.23908
2.02477
1.95701
1.87176
1.7068
1.549
1.41431
1.30318
1.23521
1.15456
1.12822
0.0905753
0.0629549
0.062961
0.0630528
0.0632786
0.0637628
0.0645261
0.0658925
0.0683317
0.0737493
0.0880034
0.13431
0.345701
1.68655
2.42353
2.04659
1.95439
1.88051
1.71299
1.54495
1.39822
1.2677
1.1877
1.0866
1.02383
0.0905749
0.0629555
0.0629616
0.0630525
0.0632753
0.0637474
0.0647525
0.0670499
0.0729384
0.0903624
0.159383
0.545669
2.28906
2.15165
2.05149
2.00731
1.94734
1.81585
1.69886
1.58889
1.50321
1.4467
1.40953
1.38952
1.39554
0.0905749
0.0629555
0.0629617
0.0630527
0.0632757
0.0637456
0.0647373
0.0669858
0.072733
0.0896227
0.155749
0.522863
2.25679
2.1667
2.05621
2.01245
1.95225
1.82013
1.70216
1.59066
1.50254
1.44489
1.40734
1.38659
1.39293
0.0905749
0.0629556
0.0629619
0.0630533
0.0632774
0.0637457
0.064706
0.0668608
0.0723239
0.088175
0.148701
0.47838
2.17088
2.1992
2.06059
2.01334
1.95428
1.82225
1.70231
1.58914
1.49731
1.43694
1.3983
1.37575
1.3828
0.0905749
0.0629561
0.0629625
0.0630545
0.06328
0.0637504
0.0646645
0.0666859
0.0717622
0.0861732
0.139253
0.420633
2.0187
2.25684
2.06788
2.01351
1.95687
1.82474
1.70194
1.58575
1.48781
1.42284
1.38205
1.35672
1.36432
0.0905749
0.0629566
0.0629634
0.0630566
0.0632838
0.0637633
0.0646182
0.0664806
0.0711052
0.0839032
0.128725
0.356555
1.78362
2.34976
2.07851
2.01053
1.95933
1.82885
1.70075
1.58045
1.47686
1.40588
1.36164
1.33203
1.3397
0.0905748
0.0629552
0.0629617
0.0630544
0.0632819
0.0637651
0.0645628
0.0662666
0.0704357
0.0815879
0.118519
0.293888
1.45392
2.47078
2.08782
2.00683
1.96026
1.83551
1.69973
1.57337
1.46372
1.3855
1.33674
1.30087
1.30686
0.0905749
0.0629546
0.0629609
0.063053
0.063279
0.0637607
0.064542
0.0661089
0.0697879
0.079272
0.109063
0.242574
1.08617
2.55239
2.09666
2.00536
1.95895
1.84582
1.70065
1.5649
1.44842
1.3616
1.30717
1.26197
1.26292
0.090575
0.0629545
0.0629607
0.0630525
0.0632774
0.0637563
0.0645595
0.0659723
0.0692057
0.0771696
0.100573
0.195829
0.754434
2.53103
2.12394
2.00986
1.958
1.85851
1.70288
1.55612
1.4317
1.33426
1.2738
1.21363
1.20635
0.090575
0.0629547
0.0629608
0.0630528
0.0632784
0.0637599
0.0645497
0.0658957
0.0687433
0.075348
0.0934912
0.159538
0.499846
2.26748
2.23899
2.02465
1.95706
1.87183
1.70688
1.54908
1.41437
1.30321
1.23523
1.15456
1.12821
0.090575
0.0629544
0.0629605
0.0630523
0.063278
0.063762
0.0645255
0.0658909
0.0683296
0.0737466
0.0879982
0.134304
0.345712
1.68659
2.42323
2.04654
1.95447
1.88061
1.71308
1.54505
1.39828
1.26773
1.18771
1.08661
1.02383
0.0905748
0.0629554
0.0629615
0.0630524
0.0632752
0.0637472
0.0647522
0.0670495
0.0729377
0.0903608
0.159378
0.54565
2.28907
2.15168
2.0515
2.00732
1.94734
1.81584
1.69887
1.5889
1.50323
1.44673
1.40958
1.38957
1.3956
0.0905748
0.0629554
0.0629616
0.0630526
0.0632756
0.0637454
0.064737
0.0669854
0.0727324
0.0896213
0.155745
0.52285
2.25678
2.16673
2.05623
2.01246
1.95224
1.82013
1.70217
1.59067
1.50257
1.44492
1.40739
1.38664
1.39298
0.0905749
0.0629555
0.0629618
0.0630532
0.0632773
0.0637455
0.0647057
0.0668604
0.0723231
0.0881733
0.148696
0.478359
2.17086
2.19923
2.0606
2.01334
1.95427
1.82224
1.70231
1.58916
1.49733
1.43698
1.39834
1.37579
1.38285
0.0905749
0.062956
0.0629624
0.0630544
0.0632799
0.0637502
0.0646643
0.0666855
0.0717615
0.0861716
0.139247
0.420607
2.01863
2.25688
2.06789
2.0135
1.95685
1.82473
1.70195
1.58576
1.48783
1.42288
1.3821
1.35676
1.36437
0.0905748
0.0629565
0.0629633
0.0630564
0.0632837
0.0637631
0.0646179
0.0664801
0.0711042
0.0839012
0.128719
0.356517
1.78349
2.34983
2.07851
2.01051
1.95931
1.82883
1.70075
1.58046
1.47688
1.40592
1.36168
1.33207
1.33974
0.0905748
0.0629551
0.0629616
0.0630543
0.0632818
0.063765
0.0645625
0.0662661
0.0704349
0.0815861
0.118513
0.293855
1.45371
2.47086
2.08781
2.0068
1.96023
1.83549
1.69972
1.57338
1.46374
1.38554
1.33679
1.3009
1.3069
0.0905749
0.0629545
0.0629608
0.0630529
0.0632789
0.0637605
0.0645419
0.0661087
0.0697875
0.0792709
0.109058
0.242549
1.08597
2.55243
2.09666
2.00533
1.9589
1.84579
1.70063
1.5649
1.44844
1.36163
1.30721
1.26201
1.26295
0.090575
0.0629545
0.0629606
0.0630525
0.0632774
0.0637562
0.0645595
0.0659722
0.0692055
0.0771688
0.100569
0.195808
0.754254
2.53102
2.12396
2.00983
1.95796
1.85847
1.70286
1.55612
1.43171
1.33428
1.27384
1.21366
1.20637
0.090575
0.0629547
0.0629609
0.0630529
0.0632785
0.0637601
0.0645499
0.065896
0.0687435
0.0753477
0.093489
0.159525
0.499765
2.26731
2.23909
2.02463
1.95702
1.8718
1.70685
1.54907
1.41437
1.30322
1.23526
1.15458
1.12823
0.090575
0.0629545
0.0629605
0.0630524
0.063278
0.0637621
0.0645255
0.0658909
0.0683295
0.073746
0.0879966
0.134297
0.345674
1.6864
2.42334
2.04653
1.95443
1.88057
1.71304
1.54503
1.39828
1.26774
1.18774
1.08663
1.02385
0.0905749
0.0629555
0.0629616
0.0630525
0.0632753
0.0637474
0.0647526
0.06705
0.0729386
0.0903629
0.159386
0.545689
2.28911
2.15166
2.05151
2.00733
1.94736
1.81587
1.69888
1.58891
1.50323
1.44671
1.40954
1.38953
1.39555
0.0905749
0.0629555
0.0629617
0.0630527
0.0632757
0.0637457
0.0647373
0.0669859
0.0727332
0.0896232
0.155751
0.52288
2.25683
2.16671
2.05623
2.01248
1.95227
1.82016
1.70218
1.59068
1.50256
1.4449
1.40735
1.3866
1.39294
0.0905749
0.0629556
0.0629619
0.0630533
0.0632774
0.0637457
0.0647061
0.0668609
0.072324
0.0881754
0.148703
0.478392
2.17091
2.1992
2.0606
2.01336
1.9543
1.82227
1.70233
1.58916
1.49732
1.43695
1.39831
1.37576
1.38281
0.0905749
0.0629561
0.0629625
0.0630545
0.06328
0.0637505
0.0646646
0.066686
0.0717623
0.0861735
0.139254
0.420638
2.01871
2.25683
2.0679
2.01353
1.95688
1.82476
1.70196
1.58577
1.48782
1.42285
1.38206
1.35673
1.36433
0.0905749
0.0629566
0.0629634
0.0630566
0.0632838
0.0637633
0.0646182
0.0664806
0.0711052
0.0839032
0.128725
0.356548
1.78359
2.34977
2.07852
2.01054
1.95934
1.82886
1.70076
1.58046
1.47687
1.40589
1.36165
1.33204
1.33971
0.0905749
0.0629552
0.0629617
0.0630544
0.0632819
0.0637652
0.0645629
0.0662667
0.0704359
0.0815877
0.118517
0.293874
1.45382
2.47081
2.08783
2.00683
1.96026
1.83551
1.69973
1.57338
1.46373
1.38551
1.33675
1.30088
1.30687
0.090575
0.0629546
0.0629609
0.063053
0.0632791
0.0637607
0.0645422
0.0661092
0.0697881
0.0792719
0.109061
0.242559
1.08604
2.55242
2.09667
2.00536
1.95894
1.84581
1.70064
1.5649
1.44843
1.36161
1.30718
1.26198
1.26293
0.090575
0.0629545
0.0629607
0.0630526
0.0632775
0.0637564
0.0645597
0.0659726
0.069206
0.0771697
0.100571
0.195813
0.754277
2.53104
2.12398
2.00986
1.95799
1.8585
1.70287
1.55612
1.4317
1.33426
1.2738
1.21364
1.20636
0.090575
0.0629548
0.062961
0.063053
0.0632786
0.0637602
0.0645502
0.0658964
0.0687441
0.0753486
0.0934907
0.159529
0.499775
2.26734
2.23911
2.02465
1.95704
1.87182
1.70686
1.54907
1.41436
1.3032
1.23523
1.15456
1.12822
0.090575
0.0629545
0.0629606
0.0630525
0.0632781
0.0637623
0.0645258
0.0658914
0.0683302
0.0737469
0.0879982
0.1343
0.345681
1.68641
2.42334
2.04655
1.95446
1.8806
1.71305
1.54503
1.39827
1.26772
1.18771
1.08661
1.02383
0.0905749
0.0629555
0.0629616
0.0630525
0.0632753
0.0637474
0.0647525
0.0670499
0.0729384
0.0903624
0.159383
0.545669
2.28906
2.15165
2.05149
2.00731
1.94734
1.81585
1.69886
1.58889
1.50321
1.4467
1.40953
1.38952
1.39554
0.0905749
0.0629555
0.0629617
0.0630527
0.0632757
0.0637456
0.0647373
0.0669858
0.072733
0.0896227
0.155749
0.522863
2.25679
2.1667
2.05621
2.01245
1.95225
1.82013
1.70216
1.59066
1.50254
1.44488
1.40734
1.38659
1.39293
0.0905749
0.0629556
0.0629619
0.0630533
0.0632774
0.0637457
0.064706
0.0668608
0.0723239
0.088175
0.148701
0.47838
2.17088
2.1992
2.06059
2.01334
1.95428
1.82225
1.70231
1.58914
1.49731
1.43694
1.3983
1.37575
1.3828
0.0905749
0.0629561
0.0629625
0.0630545
0.06328
0.0637504
0.0646645
0.0666859
0.0717622
0.0861732
0.139253
0.420633
2.0187
2.25684
2.06788
2.01351
1.95687
1.82474
1.70195
1.58575
1.48781
1.42284
1.38205
1.35672
1.36432
0.0905749
0.0629566
0.0629634
0.0630566
0.0632838
0.0637633
0.0646182
0.0664806
0.0711052
0.0839032
0.128725
0.356555
1.78362
2.34976
2.07851
2.01053
1.95933
1.82885
1.70075
1.58045
1.47686
1.40588
1.36164
1.33203
1.3397
0.0905748
0.0629552
0.0629617
0.0630544
0.0632819
0.0637651
0.0645628
0.0662666
0.0704357
0.0815879
0.118519
0.293888
1.45392
2.47078
2.08782
2.00683
1.96026
1.83551
1.69973
1.57337
1.46372
1.3855
1.33674
1.30087
1.30686
0.0905749
0.0629546
0.0629609
0.063053
0.063279
0.0637607
0.064542
0.0661089
0.0697879
0.079272
0.109063
0.242574
1.08617
2.55239
2.09666
2.00536
1.95895
1.84582
1.70065
1.5649
1.44842
1.3616
1.30717
1.26197
1.26292
0.090575
0.0629545
0.0629607
0.0630525
0.0632774
0.0637563
0.0645595
0.0659723
0.0692057
0.0771696
0.100573
0.195829
0.754434
2.53103
2.12394
2.00986
1.958
1.85851
1.70288
1.55612
1.4317
1.33426
1.2738
1.21363
1.20635
0.090575
0.0629547
0.0629608
0.0630528
0.0632784
0.0637599
0.0645497
0.0658957
0.0687433
0.075348
0.0934912
0.159538
0.499846
2.26748
2.23899
2.02465
1.95706
1.87183
1.70688
1.54908
1.41437
1.30321
1.23523
1.15456
1.12821
0.090575
0.0629544
0.0629605
0.0630523
0.063278
0.063762
0.0645255
0.0658909
0.0683296
0.0737466
0.0879982
0.134304
0.345712
1.68659
2.42323
2.04654
1.95447
1.88061
1.71308
1.54505
1.39828
1.26773
1.18771
1.08661
1.02383
0.090575
0.0629557
0.0629618
0.0630527
0.0632756
0.0637478
0.0647531
0.0670506
0.0729394
0.0903636
0.159383
0.545646
2.28901
2.15169
2.05154
2.00734
1.94734
1.81582
1.69883
1.58887
1.50321
1.44671
1.40955
1.38954
1.39557
0.090575
0.0629558
0.0629619
0.063053
0.0632761
0.0637461
0.064738
0.0669866
0.0727341
0.0896238
0.155747
0.522827
2.25669
2.16678
2.05628
2.01247
1.95224
1.82011
1.70213
1.59063
1.50254
1.4449
1.40736
1.38661
1.39296
0.090575
0.0629558
0.062962
0.0630535
0.0632777
0.063746
0.0647064
0.0668612
0.0723241
0.0881738
0.148689
0.478289
2.17068
2.19944
2.06067
2.01333
1.95427
1.82222
1.70227
1.58911
1.4973
1.43695
1.39832
1.37577
1.38283
0.0905751
0.0629564
0.0629629
0.063055
0.0632805
0.0637511
0.0646652
0.0666865
0.0717625
0.0861703
0.139229
0.420471
2.01842
2.25753
2.06798
2.0135
1.95686
1.82471
1.70191
1.58571
1.48779
1.42285
1.38206
1.35674
1.36435
0.090575
0.0629567
0.0629636
0.0630567
0.063284
0.0637636
0.0646184
0.0664804
0.071104
0.0838977
0.128694
0.356315
1.78295
2.35055
2.07816
2.01044
1.95928
1.82882
1.70072
1.5804
1.47683
1.40588
1.36165
1.33205
1.33972
0.090575
0.0629555
0.0629621
0.0630548
0.0632825
0.0637659
0.0645637
0.0662678
0.0704389
0.0815978
0.118551
0.294009
1.45456
2.47053
2.08777
2.00676
1.96021
1.83546
1.69969
1.57332
1.46368
1.38549
1.33675
1.30088
1.30688
0.090575
0.0629547
0.062961
0.0630532
0.0632793
0.063761
0.0645419
0.0661093
0.0697908
0.0792814
0.109095
0.242728
1.08725
2.55129
2.09664
2.00534
1.95892
1.84575
1.7006
1.56484
1.44838
1.36158
1.30717
1.26198
1.26294
0.0905753
0.0629549
0.0629611
0.0630531
0.0632781
0.0637573
0.0645596
0.0659735
0.0692087
0.0771764
0.10059
0.195905
0.754922
2.53022
2.12396
2.00996
1.95797
1.85845
1.70282
1.55605
1.43164
1.33423
1.27379
1.21363
1.20636
0.090575
0.0629548
0.0629609
0.0630529
0.0632786
0.0637602
0.0645497
0.065896
0.0687441
0.07535
0.093497
0.15956
0.499965
2.26814
2.23908
2.02477
1.95701
1.87176
1.7068
1.549
1.41431
1.30318
1.23521
1.15456
1.12822
0.0905753
0.0629549
0.062961
0.0630528
0.0632786
0.0637628
0.0645261
0.0658925
0.0683317
0.0737493
0.0880034
0.13431
0.345701
1.68655
2.42353
2.04659
1.95439
1.88051
1.71299
1.54495
1.39822
1.2677
1.1877
1.0866
1.02383
0.0905752
0.0629562
0.0629623
0.0630533
0.0632763
0.0637487
0.0647541
0.0670515
0.07294
0.0903617
0.159366
0.54554
2.28961
2.15228
2.05151
2.00726
1.9472
1.8157
1.69875
1.58878
1.50315
1.44667
1.40953
1.38953
1.39556
0.0905752
0.0629561
0.0629623
0.0630534
0.0632766
0.0637468
0.0647388
0.0669877
0.0727357
0.0896258
0.155746
0.522776
2.2574
2.16704
2.05622
2.01245
1.95212
1.81999
1.70204
1.59055
1.50248
1.44486
1.40734
1.3866
1.39294
0.0905752
0.0629564
0.0629626
0.0630541
0.0632784
0.0637469
0.0647083
0.0668645
0.0723337
0.0882032
0.148812
0.479047
2.17133
2.19862
2.06072
2.0133
1.95417
1.8221
1.70218
1.58904
1.49725
1.43692
1.3983
1.37576
1.38282
0.0905751
0.0629564
0.0629629
0.063055
0.0632806
0.0637512
0.0646658
0.0666885
0.0717685
0.0861905
0.139319
0.420972
2.01979
2.25623
2.06788
2.01353
1.9568
1.82461
1.70181
1.58565
1.48776
1.42283
1.38206
1.35674
1.36434
0.0905752
0.0629572
0.062964
0.0630571
0.0632846
0.0637641
0.0646193
0.0664829
0.0711123
0.0839253
0.128812
0.357037
1.78498
2.3484
2.07846
2.01055
1.95924
1.82871
1.70062
1.58036
1.47682
1.40587
1.36165
1.33205
1.33973
0.090575
0.0629554
0.0629619
0.0630546
0.0632823
0.0637657
0.0645635
0.0662678
0.0704394
0.0816013
0.118569
0.294136
1.45529
2.46951
2.08776
2.00681
1.96015
1.83536
1.69962
1.57331
1.46369
1.3855
1.33676
1.30089
1.30689
0.0905752
0.0629551
0.0629614
0.0630536
0.0632798
0.0637617
0.0645422
0.0661094
0.0697908
0.0792797
0.109082
0.24264
1.08651
2.55203
2.09658
2.0053
1.95882
1.84571
1.70056
1.56485
1.4484
1.3616
1.30719
1.262
1.26295
0.0905751
0.0629547
0.0629609
0.0630528
0.0632778
0.0637569
0.0645598
0.065973
0.0692072
0.0771719
0.100576
0.195824
0.754258
2.5309
2.12406
2.00986
1.95792
1.85844
1.70281
1.55608
1.43168
1.33426
1.27382
1.21366
1.20638
0.0905752
0.0629551
0.0629613
0.0630534
0.0632792
0.063761
0.0645512
0.0658981
0.0687463
0.0753508
0.0934929
0.159526
0.49973
2.26789
2.23941
2.02475
1.95706
1.87177
1.70681
1.54905
1.41436
1.30321
1.23525
1.15459
1.12824
0.0905751
0.0629547
0.0629608
0.0630527
0.0632785
0.0637629
0.0645266
0.0658924
0.0683314
0.0737483
0.0879999
0.134298
0.345636
1.6862
2.42367
2.04665
1.95449
1.88054
1.71301
1.54501
1.39827
1.26774
1.18774
1.08663
1.02386
0.0905748
0.0629558
0.0629619
0.0630529
0.0632759
0.0637482
0.0647534
0.0670501
0.0729359
0.0903466
0.159285
0.544988
2.28812
2.15242
2.05174
2.00735
1.94729
1.81577
1.69882
1.58889
1.50328
1.44683
1.40971
1.38969
1.39574
0.0905749
0.0629559
0.0629621
0.0630532
0.0632764
0.0637465
0.0647382
0.0669859
0.0727303
0.0896058
0.155641
0.522094
2.25594
2.1676
2.0564
2.01253
1.95219
1.82005
1.70212
1.59066
1.50261
1.44502
1.40751
1.38676
1.39312
0.0905749
0.062956
0.0629623
0.0630538
0.0632782
0.0637467
0.0647069
0.0668611
0.0723215
0.0881595
0.148606
0.477676
2.1699
2.20008
2.06063
2.0134
1.95422
1.82216
1.70226
1.58914
1.49737
1.43707
1.39846
1.37592
1.38298
0.0905748
0.0629566
0.062963
0.0630551
0.0632808
0.0637515
0.0646659
0.0666882
0.0717674
0.0861837
0.139275
0.420685
2.01832
2.25642
2.06841
2.01355
1.95681
1.82465
1.70187
1.58574
1.48786
1.42295
1.38221
1.35689
1.3645
0.0905749
0.062957
0.0629639
0.0630571
0.0632845
0.0637643
0.0646191
0.0664815
0.0711064
0.0839057
0.128726
0.356494
1.7834
2.34979
2.07881
2.01054
1.95924
1.82875
1.70065
1.58042
1.47689
1.40598
1.36179
1.33219
1.33986
0.0905751
0.0629558
0.0629624
0.0630551
0.063283
0.0637666
0.0645638
0.0662668
0.0704346
0.0815834
0.118485
0.293637
1.45231
2.47217
2.08784
2.00683
1.96012
1.83537
1.69961
1.57333
1.46374
1.38558
1.33687
1.30101
1.30701
0.0905749
0.0629551
0.0629614
0.0630536
0.06328
0.0637621
0.0645409
0.0661072
0.0697894
0.0792756
0.109056
0.242462
1.08527
2.55406
2.09678
2.00528
1.95868
1.84562
1.70049
1.56484
1.44844
1.36166
1.30728
1.2621
1.26306
0.0905752
0.0629555
0.0629617
0.0630538
0.0632793
0.0637591
0.0645594
0.0659748
0.0692123
0.0771812
0.100593
0.195886
0.754937
2.53162
2.12391
2.00971
1.95778
1.85825
1.70269
1.55605
1.4317
1.3343
1.27389
1.21374
1.20646
0.090575
0.0629552
0.0629614
0.0630535
0.0632794
0.0637616
0.0645495
0.0658979
0.0687478
0.0753554
0.0935086
0.159592
0.500101
2.26792
2.23901
2.02447
1.95678
1.87155
1.70668
1.549
1.41434
1.30322
1.2353
1.15465
1.1283
0.0905752
0.0629556
0.0629617
0.0630538
0.0632801
0.0637652
0.0645276
0.0658957
0.0683358
0.073755
0.0880171
0.134349
0.345872
1.68748
2.4231
2.04642
1.95419
1.88039
1.71288
1.54493
1.39823
1.26773
1.18777
1.08668
1.0239
0.0905755
0.0629557
0.0629619
0.063054
0.0632803
0.0637674
0.0645145
0.0658822
0.0680206
0.0725541
0.0839515
0.117247
0.251207
1.05887
2.55323
2.07622
1.94542
1.88258
1.72327
1.54573
1.38391
1.22862
1.12761
0.995472
0.799047
0.0905754
0.0629557
0.062962
0.0630542
0.0632802
0.0637657
0.0645305
0.0658228
0.0680367
0.0718602
0.0807203
0.105192
0.189415
0.615092
2.47691
2.17477
1.94727
1.87878
1.73722
1.54816
1.37574
1.19215
1.06951
0.914859
0.720888
0.0905755
0.0629557
0.062962
0.0630542
0.0632801
0.0637655
0.0645321
0.0657745
0.0681263
0.0713391
0.0785184
0.0970774
0.151431
0.382488
1.82388
2.39425
1.96509
1.85595
1.7463
1.55378
1.3762
1.17919
1.03369
0.87953
0.723276
0.0905756
0.0629557
0.062962
0.0630542
0.0632802
0.0637658
0.0645275
0.0657788
0.0680997
0.0712986
0.0773182
0.09148
0.129416
0.264854
0.972815
2.47432
2.0093
1.82789
1.74581
1.56754
1.38151
1.18166
1.02932
0.882034
0.736607
0.0905754
0.0629557
0.062962
0.0630541
0.0632803
0.0637656
0.0645265
0.0657902
0.0680666
0.0714842
0.0766411
0.0880546
0.115947
0.201583
0.553859
2.3022
2.19032
1.82066
1.74169
1.5909
1.39763
1.1916
1.03439
0.892183
0.766972
0.0905755
0.0629559
0.0629621
0.0630543
0.0632805
0.0637659
0.0645259
0.065797
0.0680471
0.0715291
0.0763979
0.0863913
0.107906
0.165115
0.35595
1.38173
2.30436
1.82361
1.71578
1.60876
1.43209
1.21645
1.05094
0.915169
0.810701
0.0905755
0.0629559
0.0629621
0.0630542
0.0632804
0.0637658
0.0645257
0.0657935
0.0680587
0.0715142
0.0764446
0.0862727
0.10526
0.146264
0.258497
0.703363
2.23173
1.90403
1.66974
1.61184
1.47709
1.26714
1.08765
0.957712
0.856599
0.0905756
0.0629559
0.0629622
0.0630543
0.0632805
0.063766
0.0645247
0.0657943
0.0680577
0.0715121
0.0765103
0.0863441
0.105987
0.134488
0.205199
0.435066
1.59415
2.00395
1.6634
1.61768
1.49941
1.31882
1.14402
1.00739
0.906185
0.0905755
0.0629559
0.0629622
0.0630543
0.0632805
0.0637661
0.0645243
0.0657971
0.0680463
0.0715287
0.0764425
0.0862606
0.106503
0.132565
0.178099
0.300022
0.758194
1.90545
1.70609
1.60212
1.5153
1.35579
1.19568
1.05743
0.955363
0.0905756
0.062956
0.0629622
0.0630544
0.0632806
0.0637662
0.0645247
0.0657973
0.0680464
0.0715256
0.0764539
0.0864609
0.107402
0.129967
0.171817
0.243001
0.444427
1.33353
1.69861
1.60487
1.51903
1.38312
1.2351
1.10552
1.00411
0.0905757
0.062956
0.0629622
0.0630544
0.0632806
0.0637663
0.064526
0.0657956
0.0680463
0.0715236
0.0764448
0.0864243
0.107341
0.129633
0.174198
0.212776
0.309645
0.638176
1.52807
1.58861
1.51889
1.40325
1.26742
1.15023
1.05125
0.0905755
0.062956
0.0629623
0.0630544
0.0632807
0.0637662
0.064526
0.0657973
0.0680473
0.0715265
0.0764481
0.0863956
0.107157
0.130533
0.172148
0.21152
0.259266
0.383482
0.85156
1.47161
1.49211
1.41875
1.29555
1.18434
1.09405
0.0905755
0.062956
0.0629622
0.0630544
0.0632806
0.0637662
0.0645259
0.0657971
0.0680471
0.0715263
0.0764482
0.086396
0.107151
0.130605
0.171745
0.213671
0.237698
0.292064
0.446476
0.966854
1.38471
1.39144
1.32007
1.21461
1.12918
0.0905757
0.062956
0.0629622
0.0630544
0.0632806
0.0637663
0.0645265
0.0657959
0.0680468
0.0715248
0.0764472
0.0863925
0.107142
0.130628
0.171774
0.212987
0.239532
0.260848
0.314736
0.47887
0.97661
1.29502
1.29379
1.23231
1.15199
0.0905756
0.0629559
0.0629622
0.0630544
0.0632806
0.0637662
0.0645254
0.0657971
0.0680471
0.0715279
0.0764501
0.0864003
0.107154
0.130651
0.171791
0.21301
0.23942
0.255216
0.275303
0.327041
0.480719
0.923312
1.19839
1.20379
1.15565
0.0905756
0.062956
0.0629623
0.0630545
0.0632807
0.0637664
0.0645256
0.0657977
0.0680477
0.0715284
0.0764505
0.0863991
0.107151
0.130635
0.171775
0.213019
0.239518
0.254832
0.268306
0.284835
0.327042
0.452592
0.809856
1.09216
1.11692
0.0905756
0.062956
0.0629623
0.0630544
0.0632807
0.0637662
0.0645254
0.0657975
0.0680468
0.0715268
0.0764484
0.086395
0.107145
0.130625
0.171774
0.213037
0.239548
0.254829
0.268019
0.276384
0.287574
0.317538
0.402613
0.638746
0.938772
0.0905756
0.0629561
0.0629623
0.0630545
0.0632807
0.0637664
0.0645249
0.0657979
0.0680475
0.0715283
0.0764507
0.086399
0.107153
0.130649
0.171801
0.213054
0.239556
0.254824
0.267914
0.276025
0.281622
0.28815
0.304332
0.347252
0.454995
0.0905757
0.0629559
0.0629622
0.0630543
0.0632805
0.0637662
0.0645255
0.0657956
0.0680456
0.0715231
0.0764443
0.0863894
0.107137
0.130629
0.17178
0.213046
0.239562
0.254831
0.267901
0.275995
0.281104
0.284712
0.286299
0.29194
0.309924
0.0905757
0.0629562
0.0629624
0.0630546
0.0632809
0.0637667
0.0645247
0.0657983
0.068048
0.0715288
0.0764509
0.0863986
0.107152
0.130648
0.171798
0.213051
0.239552
0.254822
0.267888
0.276
0.281101
0.283541
0.283211
0.283664
0.286181
0.0905755
0.0629559
0.0629622
0.0630543
0.0632806
0.0637662
0.0645251
0.0657974
0.068047
0.0715273
0.0764492
0.0863968
0.107148
0.130627
0.171766
0.213011
0.239509
0.254797
0.267878
0.275995
0.281113
0.283375
0.282816
0.282732
0.283228
0.0905758
0.0629563
0.0629626
0.0630548
0.0632811
0.0637669
0.0645254
0.065799
0.0680489
0.0715307
0.0764526
0.0864003
0.107148
0.130643
0.171766
0.212998
0.239509
0.254794
0.267863
0.275988
0.281102
0.283346
0.282776
0.282584
0.282915
0.0905755
0.0629559
0.0629622
0.0630543
0.0632806
0.0637661
0.0645251
0.0657972
0.0680469
0.0715269
0.0764484
0.0863956
0.107145
0.130623
0.171757
0.213002
0.239499
0.254789
0.267872
0.275993
0.281114
0.283354
0.282781
0.282581
0.282892
0.0905757
0.0629563
0.0629625
0.0630547
0.0632811
0.0637669
0.0645249
0.0657988
0.068049
0.0715302
0.0764524
0.0864002
0.107153
0.130644
0.171785
0.21303
0.239529
0.254803
0.267869
0.275986
0.281095
0.283337
0.282767
0.282565
0.282878
0.0905756
0.0629559
0.0629621
0.0630543
0.0632804
0.0637661
0.0645251
0.0657953
0.0680451
0.0715222
0.0764431
0.0863874
0.107134
0.130622
0.171769
0.213037
0.239558
0.254829
0.267895
0.275988
0.281093
0.283343
0.282762
0.282568
0.282884
0.0905757
0.0629562
0.0629625
0.0630547
0.063281
0.0637668
0.0645249
0.0657986
0.0680487
0.0715295
0.0764518
0.0863989
0.107151
0.130642
0.171786
0.213038
0.239545
0.254821
0.267889
0.276003
0.281107
0.283346
0.282775
0.282572
0.282885
0.0905755
0.0629559
0.0629621
0.0630543
0.0632806
0.0637661
0.064525
0.0657973
0.0680464
0.0715263
0.0764476
0.0863937
0.107143
0.130618
0.171757
0.213011
0.239514
0.254806
0.267889
0.276007
0.281123
0.283362
0.282789
0.282587
0.282896
0.0905757
0.0629562
0.0629625
0.0630546
0.0632809
0.0637666
0.064525
0.0657984
0.0680478
0.0715291
0.0764507
0.0863978
0.107146
0.130644
0.171777
0.213014
0.239525
0.254804
0.267872
0.275995
0.281107
0.283349
0.282778
0.282574
0.282886
0.0905755
0.0629559
0.0629621
0.0630542
0.0632805
0.063766
0.0645251
0.065797
0.0680465
0.0715264
0.0764478
0.0863946
0.107144
0.130623
0.17176
0.213002
0.239492
0.254778
0.267861
0.27598
0.281104
0.283349
0.282776
0.282578
0.282888
0.0905756
0.062956
0.0629623
0.0630544
0.0632807
0.0637663
0.0645252
0.0657975
0.0680469
0.0715273
0.0764493
0.0863973
0.10715
0.130645
0.171791
0.213029
0.239522
0.254789
0.267855
0.27597
0.281086
0.283334
0.282764
0.282565
0.282879
0.0905756
0.0629558
0.062962
0.0630542
0.0632803
0.0637659
0.0645254
0.0657949
0.0680446
0.0715213
0.0764417
0.0863852
0.10713
0.130614
0.171765
0.213036
0.239553
0.25483
0.2679
0.275996
0.281105
0.283354
0.282774
0.282579
0.282895
0.0905755