/*--------------------------------*- C++ -*----------------------------------*\
| =========                 |                                                 |
| \\      /  F ield         | OpenFOAM: The Open Source CFD Toolbox           |
|  \\    /   O peration     | Version:  4.1                                   |
|   \\  /    A nd           | Web:      www.OpenFOAM.org                      |
|    \\/     M anipulation  |                                                 |
\*---------------------------------------------------------------------------*/
FoamFile
{
    version     2.0;
    format      ascii;
    class       surfaceScalarField;
    location    "0.36";
    object      phi;
}
// * * * * * * * * * * * * * * * * * * * * * * * * * * * * * * * * * * * * * //

dimensions      [1 0 -1 0 0 0 0];

internalField   nonuniform List<scalar> 
150500
(
0.0020281
-2.41391e-10
-1.98912e-12
0.00203103
-5.03207e-10
-2.07593e-12
0.00203304
-9.3207e-10
-2.107e-12
0.00203558
-1.64296e-09
-2.16162e-12
0.00203922
-3.18541e-09
-2.2329e-12
0.00204174
-5.93926e-09
-2.43392e-12
0.00204255
1.93839e-08
-3.30252e-12
0.00203271
1.20008e-07
-6.89013e-12
0.00198921
4.73839e-07
-1.78617e-11
0.00185528
1.90289e-06
-6.27703e-11
0.00150683
9.73548e-06
-3.41734e-10
-0.000443612
8.24746e-05
-2.5518e-09
-0.00571527
0.000710952
-6.14781e-09
-0.00435596
0.000599126
1.6361e-10
-0.00356639
0.000511834
1.51613e-09
-0.00308372
0.000448002
1.3516e-09
-0.00277469
0.000444582
1.27734e-09
-0.0025268
0.000444072
8.9679e-10
-0.00224519
0.000446407
6.94662e-10
-0.00196987
0.000442941
7.19081e-10
-0.0016657
0.000440972
6.80626e-10
-0.00131193
0.000439842
7.06088e-10
-0.000911558
0.000439316
7.57876e-10
-0.000503199
0.000455956
7.81762e-10
0.00047654
8.25507e-10
0.0020281
-2.70794e-10
-1.44445e-12
0.00203103
-8.65879e-10
-1.34771e-12
0.00203304
-1.74714e-09
-1.36553e-12
0.00203557
-3.44794e-09
-1.39377e-12
0.00203924
-7.46986e-09
-1.43237e-12
0.00204199
-1.78766e-08
-1.57068e-12
0.0020429
4.33586e-08
-2.55681e-12
0.00203356
2.33879e-07
-5.79914e-12
0.00199142
9.29416e-07
-1.67554e-11
0.00186064
3.66841e-06
-5.81362e-11
0.00152651
1.82048e-05
-3.04398e-10
-0.000338344
0.000144619
-2.01776e-09
-0.00568401
0.00135943
-7.16036e-09
-0.00432277
0.00122254
1.32398e-09
-0.0035492
0.00102969
1.5565e-09
-0.00305323
0.000903702
9.68728e-10
-0.00274435
0.000887578
1.11819e-09
-0.00249571
0.000886347
9.00551e-10
-0.00221624
0.000891774
7.50361e-10
-0.00194409
0.000884867
7.18978e-10
-0.00164497
0.00088188
6.66868e-10
-0.00129705
0.000880007
6.89767e-10
-0.000904133
0.000880508
7.39989e-10
-0.000498735
0.000908262
7.58678e-10
0.000952085
7.98986e-10
0.0020281
-4.47023e-10
-1.53115e-12
0.00203103
-1.55852e-09
-1.54079e-12
0.00203303
-3.02346e-09
-1.46741e-12
0.00203556
-6.10239e-09
-1.35608e-12
0.0020392
-1.3007e-08
-1.32715e-12
0.00204258
-3.41309e-08
-8.93525e-13
0.00204304
5.40971e-08
-5.21116e-12
0.00203516
3.23679e-07
-1.23339e-11
0.00199629
1.26441e-06
-4.57407e-11
0.00187217
5.03116e-06
-1.62616e-10
0.001563
2.43476e-05
-7.80391e-10
-0.000137496
0.000183376
-5.43661e-09
-0.00566217
0.00188313
-6.80828e-09
-0.00427174
0.00190006
5.82078e-09
-0.00351254
0.00155214
9.74876e-10
-0.00299583
0.00136363
8.64386e-10
-0.00268752
0.00132908
9.37299e-10
-0.0024347
0.00132805
9.69742e-10
-0.00216221
0.00133994
7.99916e-10
-0.0018933
0.00132548
6.99692e-10
-0.0016032
0.0013201
6.2702e-10
-0.00126586
0.00131796
6.52415e-10
-0.000882975
0.00131913
7.04156e-10
-0.000488625
0.00135812
7.09378e-10
0.00142597
7.55894e-10
0.0020281
-2.64328e-10
-5.57087e-13
0.00203103
-5.385e-10
4.93888e-13
0.00203301
-1.11194e-09
5.84456e-13
0.00203555
-3.02807e-09
7.98433e-13
0.00203916
-7.85024e-09
1.10599e-12
0.00204289
-2.64365e-08
2.08243e-12
0.00204322
7.23914e-08
-1.27735e-13
0.00203771
3.37383e-07
-6.55307e-12
0.00200325
1.39579e-06
-2.70459e-11
0.00188988
5.64336e-06
-1.08224e-10
0.00160866
2.66747e-05
-5.52811e-10
0.000138619
0.000190269
-3.58517e-09
-0.00565539
0.00219407
-1.08017e-08
-0.00419491
0.00268366
8.23182e-09
-0.00346343
0.00209282
1.85274e-09
-0.00291609
0.00183178
3.36545e-10
-0.00260271
0.00176812
5.17349e-10
-0.00234181
0.00176802
8.06069e-10
-0.00207811
0.00178995
7.98977e-10
-0.00181594
0.00176498
6.48549e-10
-0.00153997
0.00175471
5.54783e-10
-0.00121753
0.00175168
5.94548e-10
-0.000848682
0.00175367
6.53369e-10
-0.000470887
0.00180614
6.40541e-10
0.00190343
6.98794e-10
0.0020281
1.54881e-10
-6.14258e-13
0.00203102
2.27706e-09
-5.28279e-16
0.00203298
4.05826e-09
1.46929e-13
0.00203553
7.27034e-09
4.58649e-13
0.0020392
1.29475e-08
7.3385e-13
0.00204249
2.6294e-08
2.37693e-12
0.00204361
7.14315e-08
-1.76696e-13
0.00204072
2.40469e-07
-9.44154e-12
0.00201159
1.27852e-06
-3.94377e-11
0.00191191
5.65443e-06
-1.44861e-10
0.00166795
2.60578e-05
-6.83321e-10
0.000480518
0.000173911
-4.82018e-09
-0.00529192
0.00220537
-1.37683e-08
-0.00410475
0.00360379
1.36134e-08
-0.00341707
0.00265033
-6.95643e-11
-0.00282025
0.00230835
8.34715e-11
-0.00249505
0.00219899
3.64429e-10
-0.00221892
0.00220321
6.09188e-10
-0.00197105
0.00224225
6.66234e-10
-0.0017156
0.00220533
5.17635e-10
-0.00145335
0.00218623
4.50819e-10
-0.00115047
0.00218168
5.12303e-10
-0.000800776
0.00218438
5.99115e-10
-0.000445588
0.00225436
5.71254e-10
0.00238923
6.26142e-10
0.0020281
-3.69757e-10
-3.32337e-13
0.00203102
6.5302e-10
1.5701e-12
0.00203298
1.81832e-09
1.63662e-12
0.00203556
4.7312e-09
1.89196e-12
0.00203908
1.21022e-08
2.81596e-12
0.0020417
3.38882e-08
3.69448e-12
0.0020449
2.39303e-08
2.86051e-12
0.00204688
1.28685e-07
8.13989e-14
0.00202368
1.17034e-06
-6.57985e-12
0.00193428
5.3911e-06
-3.6013e-11
0.00172775
2.40762e-05
-2.14332e-10
0.000974239
0.000149173
-1.55932e-09
-0.00413586
0.0018875
-9.73527e-09
-0.003998
0.00464008
1.05047e-08
-0.0033832
0.00322211
6.90722e-10
-0.00270023
0.00279633
1.18543e-10
-0.00236202
0.00262307
1.08474e-10
-0.00206592
0.00263312
3.77252e-10
-0.00183716
0.00269223
3.76976e-10
-0.00159381
0.00264707
2.99783e-10
-0.00134386
0.00261536
3.40668e-10
-0.00106257
0.00261197
4.19537e-10
-0.000735305
0.00261603
5.20401e-10
-0.000407065
0.00270536
4.96739e-10
0.00289876
5.5987e-10
0.0020281
-5.36719e-10
-8.04744e-13
0.00203102
-6.45531e-10
1.133e-12
0.00203299
-7.61928e-10
1.14597e-12
0.00203559
-2.11437e-10
1.3683e-12
0.0020391
2.1161e-09
2.62157e-12
0.00204122
9.43452e-09
3.87031e-12
0.00204751
-1.24222e-08
-2.94671e-12
0.00205328
6.78809e-08
-2.91898e-12
0.00203591
1.01638e-06
1.31978e-11
0.00195974
4.78782e-06
3.918e-11
0.00177861
2.08484e-05
8.93603e-11
0.00118838
0.000121687
2.07901e-10
-0.00262025
0.00135153
1.92164e-09
-0.00398212
0.00569898
-9.01956e-11
-0.00335845
0.00381407
1.53825e-09
-0.00256641
0.00329928
1.79449e-10
-0.00220281
0.00303554
4.77078e-11
-0.00188588
0.00306031
-3.22609e-10
-0.00167433
0.00312726
-8.47414e-11
-0.00144567
0.00308666
3.98984e-11
-0.00120639
0.00304132
1.84078e-10
-0.000947234
0.00303921
2.83913e-10
-0.000644625
0.00304401
4.36979e-10
-0.000347606
0.00316099
4.30538e-10
0.00344727
4.65109e-10
0.0020281
4.19536e-10
1.10667e-12
0.00203102
-6.08053e-10
2.81051e-12
0.00203299
-1.34826e-09
2.89135e-12
0.00203559
-2.28746e-09
3.26185e-12
0.00203914
-4.04937e-09
4.8096e-12
0.00204123
-8.76402e-09
7.43609e-12
0.00204679
1.47717e-09
-3.38324e-12
0.00205806
2.50611e-08
6.57949e-12
0.00204871
8.24839e-07
2.24411e-11
0.00198664
4.02138e-06
4.77986e-11
0.00183143
1.67754e-05
9.99678e-11
0.0013866
8.88082e-05
3.31151e-10
-0.00149499
0.000810997
1.94591e-09
-0.00443861
0.0062797
6.80398e-10
-0.00330908
0.00465558
4.41575e-10
-0.00242654
0.00385918
-1.02034e-10
-0.00201894
0.00347425
-2.69696e-10
-0.00167844
0.00349352
-6.51896e-10
-0.00147878
0.00355383
-3.85637e-10
-0.00126683
0.00352305
-2.46515e-10
-0.00103655
0.00346245
-2.97122e-11
-0.000796212
0.00345935
1.53005e-10
-0.000525628
0.00346822
3.36959e-10
-0.000254926
0.00361216
3.60982e-10
0.00404948
3.74847e-10
0.00202811
-3.0426e-10
-2.17448e-13
0.00203102
-6.23491e-10
2.52072e-12
0.00203299
-1.14472e-09
2.67515e-12
0.00203559
-1.62455e-09
3.25335e-12
0.00203911
-2.10799e-09
5.20635e-12
0.0020411
-5.55748e-09
7.99026e-12
0.00204642
2.04353e-08
-1.08569e-13
0.00206432
1.99835e-08
1.17291e-11
0.00205816
6.13865e-07
2.09007e-11
0.00200341
3.09442e-06
3.13109e-11
0.00188264
1.27756e-05
7.03214e-11
0.00158064
6.16761e-05
2.01481e-10
-1.78079e-05
0.000456
8.32661e-10
-0.00463825
0.0049291
-2.16727e-10
-0.00321683
0.00602299
-1.33853e-09
-0.0023044
0.00444676
-1.14634e-09
-0.00181105
0.00395693
-7.47538e-10
-0.00144629
0.00392686
-7.38513e-10
-0.00124897
0.00395293
-5.86088e-10
-0.00105231
0.00395292
-5.14465e-10
-0.000834243
0.00387528
-2.28958e-10
-0.000605219
0.00387107
5.37424e-12
-0.000368783
0.00390476
2.58144e-10
-0.000106004
0.0040284
2.85714e-10
0.00475133
2.80829e-10
0.00202811
6.02543e-13
-1.21183e-09
0.00203103
4.28544e-12
-9.23126e-10
0.002033
4.6012e-12
-1.5022e-09
0.00203559
5.6091e-12
-2.21561e-09
0.00203906
8.35386e-12
-2.25859e-09
0.00204087
1.22768e-11
-5.50758e-09
0.00204673
1.01714e-11
1.46796e-08
0.0020654
2.01957e-11
5.17565e-08
0.00206074
2.64107e-11
2.97138e-07
0.00201697
3.93899e-11
2.00975e-06
0.00193513
9.07519e-11
9.30089e-06
0.00172122
2.48424e-10
4.17969e-05
0.000874036
9.84873e-10
0.000266532
-0.00383593
4.96377e-09
0.00327828
-0.00312515
-3.10496e-09
0.00753123
-0.00221543
-7.43872e-10
0.00502703
-0.00158993
-7.0626e-10
0.00445237
-0.00119803
-6.17471e-10
0.00434834
-0.000984563
-8.62361e-10
0.00432461
-0.000800812
-7.51841e-10
0.00436415
-0.000594305
-3.8389e-10
0.00427329
-0.00035201
-8.33638e-11
0.00425369
-0.000140816
1.69342e-10
0.00433994
9.60656e-05
2.26374e-10
0.00442848
2.23145e-10
0.00559191
0.0020281
3.30868e-10
1.24443e-12
0.00203103
4.08732e-10
2.57819e-12
0.00203304
5.58395e-10
2.71524e-12
0.00203558
6.25577e-10
3.0413e-12
0.00203922
1.23123e-10
3.64024e-12
0.00204173
-1.10373e-09
4.45791e-12
0.00204253
2.57463e-08
5.1338e-12
0.00203267
1.28398e-07
4.62733e-12
0.0019891
4.83621e-07
2.53495e-12
0.00185506
1.91425e-06
-8.24549e-12
0.00150628
9.73915e-06
-6.6031e-11
-0.000445946
8.2393e-05
-4.67145e-10
-0.0057136
0.000708644
2.85576e-09
-0.00435216
0.000598281
3.62713e-09
-0.00356466
0.000513
-1.20206e-10
-0.00308356
0.000448589
-3.81034e-10
-0.00277482
0.000444887
-6.38371e-10
-0.00252698
0.000444235
-6.30374e-10
-0.00224536
0.000446408
-4.27887e-10
-0.00197001
0.000442882
-4.20535e-10
-0.00166583
0.000440917
-2.86678e-10
-0.00131201
0.000439794
-1.75727e-10
-0.000911589
0.000439265
-1.02433e-10
-0.000503128
0.000455874
-6.99048e-11
0.000476519
-6.06459e-11
0.0020281
1.68969e-10
6.12451e-13
0.00203103
3.37034e-11
1.70766e-12
0.00203304
-8.31411e-11
1.81338e-12
0.00203558
-7.96068e-10
2.0763e-12
0.00203925
-3.30392e-09
2.59343e-12
0.002042
-1.0927e-08
3.3391e-12
0.0020429
5.11321e-08
4.36152e-12
0.00203356
2.40201e-07
5.45305e-12
0.00199139
9.2685e-07
7.49567e-12
0.00186055
3.62968e-06
8.77168e-12
0.00152634
1.79672e-05
-1.74543e-12
-0.000338816
0.000142599
-2.38714e-10
-0.0056761
0.0013501
3.35465e-09
-0.00431691
0.00122754
1.75468e-09
-0.00354721
0.00103317
-2.43939e-10
-0.00305304
0.000905777
-6.51285e-11
-0.00274451
0.000888244
-5.20703e-10
-0.002496
0.000886591
-5.98418e-10
-0.00221648
0.000891733
-4.45506e-10
-0.00194427
0.000884741
-3.91843e-10
-0.00164512
0.000881767
-2.60931e-10
-0.00129717
0.00087991
-1.57494e-10
-0.000904179
0.000880371
-9.10265e-11
-0.000498637
0.000908044
-6.17258e-11
0.000952075
-5.43272e-11
0.0020281
2.36386e-10
1.20986e-12
0.00203103
-1.08185e-10
2.99699e-12
0.00203303
-4.7052e-10
3.05285e-12
0.00203557
-2.00228e-09
3.2754e-12
0.0020392
-6.65325e-09
4.00433e-12
0.00204254
-2.47466e-08
4.58611e-12
0.00204303
6.83302e-08
9.50126e-12
0.00203511
3.43294e-07
1.64709e-11
0.0019961
1.29646e-06
4.70139e-11
0.00187172
5.09351e-06
1.41092e-10
0.00156179
2.45262e-05
5.90844e-10
-0.000144559
0.000184538
3.82113e-09
-0.0056684
0.00188605
3.06536e-09
-0.00427789
0.00189624
-3.97294e-09
-0.00351506
0.00155268
2.02715e-10
-0.00299728
0.00136315
-1.57309e-10
-0.00268842
0.00132889
-4.35646e-10
-0.00243531
0.00132782
-5.85137e-10
-0.00216252
0.00133965
-4.63563e-10
-0.00189346
0.0013252
-3.51246e-10
-0.0016033
0.0013199
-2.07317e-10
-0.0012659
0.0013178
-1.17762e-10
-0.000882966
0.00131894
-6.60047e-11
-0.000488535
0.00135784
-4.32459e-11
0.00142594
-3.91988e-11
0.0020281
5.63984e-11
-1.34419e-13
0.00203103
2.76187e-10
1.1755e-13
0.00203301
5.67032e-10
1.29622e-13
0.00203555
8.56508e-11
1.6657e-13
0.00203917
-3.12142e-09
3.25405e-13
0.00204289
-1.98092e-08
4.04152e-13
0.00204323
8.20555e-08
2.90868e-12
0.00203771
3.52883e-07
1.0072e-11
0.0020032
1.41394e-06
2.94262e-11
0.00188969
5.66669e-06
9.55474e-11
0.00160817
2.66963e-05
4.16801e-10
0.000136095
0.000190175
2.43407e-09
-0.0056471
0.00219431
6.61704e-09
-0.00419637
0.00268506
-5.94914e-09
-0.00346625
0.00209402
-4.5025e-10
-0.00291798
0.00183118
2.53996e-10
-0.00260375
0.00176675
-2.81474e-10
-0.00234258
0.00176707
-5.1703e-10
-0.00207847
0.00178918
-4.80121e-10
-0.00181609
0.00176451
-2.64298e-10
-0.00154003
0.0017544
-1.36964e-10
-0.00121754
0.00175147
-7.03218e-11
-0.000848651
0.00175348
-3.35658e-11
-0.000470797
0.00180587
-1.74123e-11
0.00190329
-1.62214e-11
0.0020281
1.52515e-10
1.14657e-12
0.00203102
3.20738e-09
2.33009e-12
0.00203298
5.92116e-09
2.25922e-12
0.00203553
1.01629e-08
2.22671e-12
0.00203919
1.7309e-08
2.95591e-12
0.00204247
3.16661e-08
1.72201e-12
0.0020436
8.18762e-08
4.58532e-12
0.00204067
2.6486e-07
1.23349e-11
0.00201142
1.3312e-06
3.97521e-11
0.00191142
5.7732e-06
1.30717e-10
0.0016666
2.64396e-05
5.52999e-10
0.000468202
0.000176158
3.45886e-09
-0.00530759
0.00222334
1.01282e-08
-0.00411433
0.00359967
-1.00786e-08
-0.0034218
0.00264506
1.6045e-09
-0.00282245
0.00230419
5.90311e-10
-0.0024961
0.00219607
-2.6451e-10
-0.00221961
0.00220153
-5.74698e-10
-0.00197134
0.00224109
-4.97961e-10
-0.00171567
0.00220463
-1.69364e-10
-0.00145336
0.0021858
-5.65032e-11
-0.00115046
0.00218144
-1.90743e-11
-0.00080073
0.0021842
4.06465e-12
-0.000445479
0.00225412
1.21195e-11
0.00238896
1.07551e-11
0.0020281
-1.65799e-10
4.64129e-14
0.00203101
1.19289e-09
-5.91581e-13
0.00203298
2.90733e-09
-5.87838e-13
0.00203555
6.41542e-09
-6.35962e-13
0.00203908
1.46837e-08
-9.5578e-13
0.00204172
3.7841e-08
-8.33101e-13
0.00204489
2.98125e-08
-7.91117e-13
0.00204683
1.43253e-07
7.34019e-16
0.00202363
1.19978e-06
2.17719e-12
0.00193417
5.45803e-06
1.3731e-11
0.00172752
2.42941e-05
9.22098e-11
0.000973555
0.000150367
6.07996e-10
-0.00412982
0.00189762
3.44316e-09
-0.00399795
0.00464462
-4.58473e-09
-0.00338333
0.00321636
-2.6284e-11
-0.00270084
0.00279213
2.64012e-10
-0.00236222
0.00261977
-3.70497e-10
-0.00206629
0.00263095
-5.74563e-10
-0.00183721
0.00269063
-3.65943e-10
-0.00159373
0.00264626
-6.47394e-11
-0.00134378
0.00261488
2.29551e-11
-0.00106249
0.0026117
3.7419e-11
-0.000735216
0.00261587
4.5191e-11
-0.000406924
0.00270515
4.4067e-11
0.00289841
3.9449e-11
0.0020281
4.05436e-10
1.24334e-12
0.00203101
6.34224e-10
1.96248e-12
0.00203298
1.22301e-09
2.02004e-12
0.00203558
2.74989e-09
2.17899e-12
0.0020391
6.63282e-09
2.58788e-12
0.00204124
1.66904e-08
3.38962e-12
0.00204757
-1.29232e-09
1.22604e-12
0.00205317
8.1228e-08
1.23274e-13
0.00203579
1.03163e-06
3.83019e-13
0.0019597
4.81026e-06
-6.96725e-12
0.00177868
2.08824e-05
-5.78549e-11
0.00118913
0.000121749
-3.92465e-10
-0.00261048
0.00135106
-3.45273e-09
-0.00397455
0.00570742
3.66414e-09
-0.0033549
0.00381474
-3.04452e-10
-0.00256568
0.00329764
-2.17961e-10
-0.00220235
0.00303302
-5.7469e-10
-0.00188556
0.00305832
-1.50562e-10
-0.00167403
0.00312611
-1.29115e-10
-0.00144541
0.00308586
4.02186e-11
-0.00120619
0.00304087
1.31659e-10
-0.000947083
0.00303897
8.89548e-11
-0.000644496
0.00304386
7.09482e-11
-0.000347449
0.00316085
7.6277e-11
0.00344683
6.75193e-11
0.0020281
2.39522e-10
-8.1737e-13
0.00203102
1.0221e-10
-8.99991e-13
0.00203299
2.36411e-10
-9.164e-13
0.00203558
5.79726e-10
-9.7349e-13
0.00203914
1.11225e-09
-1.22904e-12
0.00204125
1.05097e-09
-1.84629e-12
0.00204676
1.65339e-08
8.47505e-13
0.00205794
4.33661e-08
-1.7093e-12
0.00204861
8.42534e-07
-6.46884e-12
0.00198662
4.04599e-06
-1.87026e-11
0.00183134
1.68207e-05
-6.10604e-11
0.00138656
8.88817e-05
-3.57115e-10
-0.0014935
0.000810937
-3.34727e-09
-0.0044388
0.00628302
3.48254e-09
-0.00330832
0.0046568
6.89572e-10
-0.00242555
0.00385796
-5.17447e-10
-0.00201799
0.00347258
-1.73619e-10
-0.00167764
0.0034918
-5.60897e-11
-0.00147822
0.00355281
-5.36004e-11
-0.0012664
0.00352241
1.19297e-10
-0.00103625
0.00346209
1.97991e-10
-0.000795985
0.00345911
1.93702e-10
-0.000525457
0.00346806
1.04489e-10
-0.000254756
0.00361208
8.67433e-11
0.00404896
7.14183e-11
0.0020281
6.70979e-11
1.20382e-12
0.00203102
3.23424e-10
1.79077e-12
0.00203299
4.83438e-10
1.94356e-12
0.00203558
9.23225e-10
2.26124e-12
0.00203911
1.98175e-09
2.32932e-12
0.00204111
2.85573e-10
3.24503e-12
0.00204637
3.15835e-08
7.84876e-12
0.00206419
3.3624e-08
1.02214e-11
0.00205831
6.33363e-07
7.77321e-12
0.00200352
3.12688e-06
3.13455e-12
0.00188263
1.28315e-05
-1.76115e-11
0.00158074
6.17644e-05
-1.48028e-10
-1.71103e-05
0.000456137
-1.24097e-09
-0.00463802
0.00493007
-1.3531e-09
-0.00321693
0.00602459
1.83579e-09
-0.00230336
0.00444599
-8.76761e-11
-0.00180995
0.00395585
2.21945e-10
-0.00144532
0.00392548
2.43782e-11
-0.00124821
0.00395251
3.32589e-11
-0.00105171
0.00395251
1.96924e-10
-0.000833817
0.00387505
2.18376e-10
-0.000604907
0.00387089
2.16079e-10
-0.000368561
0.00390461
1.92199e-10
-0.000105842
0.00402841
1.05317e-10
0.00475072
8.89338e-11
0.0020281
-7.51953e-13
-5.58169e-10
0.00203102
-6.81226e-13
-3.03605e-10
0.002033
-6.03531e-13
-3.72928e-10
0.00203558
-4.24596e-13
-6.55936e-10
0.00203904
-2.92078e-13
-6.42359e-10
0.00204087
1.41457e-13
-4.81996e-09
0.00204667
2.20405e-12
1.76341e-08
0.00206537
-2.8143e-13
6.02408e-08
0.00206092
-1.34215e-12
3.10206e-07
0.00201712
-4.40287e-12
2.01822e-06
0.0019351
-1.46626e-11
9.29862e-06
0.00172141
-4.99016e-11
4.17698e-05
0.000875761
-2.96716e-10
0.000266313
-0.00383158
-1.63231e-09
0.003275
-0.0031236
6.10323e-10
0.00753551
-0.00221424
2.50883e-10
0.00502758
-0.00158849
4.2428e-10
0.00445165
-0.00119687
1.64449e-10
0.00434754
-0.000983657
1.22138e-10
0.00432448
-0.000800099
2.62667e-10
0.00436401
-0.000593802
2.28602e-10
0.00427324
-0.000351634
2.06765e-10
0.00425362
-0.000140542
2.12251e-10
0.00433979
9.62196e-05
1.6884e-10
0.00442861
9.71838e-11
0.00559123
0.0020281
-1.13145e-10
3.19183e-13
0.00203103
-2.3411e-10
6.3327e-13
0.00203304
-4.22612e-10
6.76985e-13
0.00203558
-8.50103e-10
7.92038e-13
0.00203921
-1.96517e-09
1.02356e-12
0.00204172
-4.08263e-09
1.39049e-12
0.00204253
2.21735e-08
1.93438e-12
0.00203267
1.25183e-07
2.63295e-12
0.00198911
4.82616e-07
5.14916e-12
0.00185507
1.92454e-06
6.83099e-12
0.00150619
9.81812e-06
-2.46677e-12
-0.000446692
8.31246e-05
-1.00765e-10
-0.00571486
0.000712886
-2.50673e-10
-0.00435666
0.000598506
1.81827e-10
-0.00356696
0.000511143
3.00568e-10
-0.00308425
0.000447517
1.72732e-10
-0.00277492
0.00044433
-2.58136e-12
-0.00252688
0.000443984
-1.02074e-10
-0.00224517
0.000446352
-1.07638e-10
-0.00196979
0.000442923
-8.22855e-11
-0.00166566
0.000440962
-1.60608e-11
-0.0013119
0.000439824
5.98448e-11
-0.000911522
0.000439283
1.10222e-10
-0.000503093
0.000455889
1.27043e-10
0.000476531
1.42854e-10
0.0020281
-4.85682e-11
6.6947e-13
0.00203103
-2.92305e-10
1.2427e-12
0.00203303
-6.89383e-10
1.316e-12
0.00203557
-1.7568e-09
1.5075e-12
0.00203924
-4.84796e-09
1.9029e-12
0.00204198
-1.37776e-08
2.54659e-12
0.00204288
4.90426e-08
3.2498e-12
0.00203353
2.42514e-07
3.98244e-12
0.00199134
9.42697e-07
5.16332e-12
0.00186048
3.69246e-06
4.74369e-12
0.00152605
1.8269e-05
-9.97443e-12
-0.000340207
0.000144988
-2.02742e-10
-0.00568143
0.00136135
-5.09204e-10
-0.00432198
0.00122267
3.13553e-10
-0.00354888
0.00102934
3.18131e-10
-0.0030533
0.000903361
7.58888e-11
-0.00274436
0.000887354
-3.41208e-11
-0.00249574
0.000886265
-8.821e-11
-0.00221623
0.000891718
-1.19998e-10
-0.00194404
0.000884846
-9.63646e-11
-0.00164495
0.000881858
-2.56654e-11
-0.00129706
0.000879969
5.36187e-11
-0.000904114
0.000880408
1.04655e-10
-0.000498604
0.000908074
1.22273e-10
0.0009521
1.38306e-10
0.0020281
-1.86645e-10
1.70258e-13
0.00203103
-1.00305e-09
4.71324e-13
0.00203303
-1.95751e-09
4.96848e-13
0.00203556
-4.37857e-09
6.40725e-13
0.0020392
-1.04216e-08
8.1013e-13
0.00204256
-3.0369e-08
1.06582e-12
0.00204303
6.00267e-08
1.4096e-12
0.00203512
3.33637e-07
1.71252e-12
0.00199621
1.27926e-06
8.49894e-13
0.00187203
5.05949e-06
-5.23154e-12
0.00156265
2.44286e-05
-5.03419e-11
-0.00013933
0.000183875
-4.31444e-10
-0.00566071
0.00188525
-9.27078e-10
-0.00427128
0.00189968
1.07255e-09
-0.00351218
0.00155203
5.16137e-10
-0.00299578
0.00136313
-1.62819e-11
-0.0026875
0.00132875
-5.73324e-11
-0.00243474
0.00132789
-1.19817e-10
-0.00216217
0.00133984
-1.29896e-10
-0.0018932
0.00132542
-1.15755e-10
-0.00160313
0.00132005
-4.86621e-11
-0.0012658
0.00131789
3.74426e-11
-0.000882905
0.001319
9.15105e-11
-0.000488503
0.00135789
1.11703e-10
0.00142598
1.28154e-10
0.0020281
2.9314e-10
1.04205e-12
0.00203103
2.54731e-10
1.89212e-12
0.00203301
3.03801e-10
1.99749e-12
0.00203555
-5.45331e-10
2.23869e-12
0.00203916
-4.4772e-09
2.65716e-12
0.00204288
-2.20072e-08
3.59478e-12
0.00204321
7.89419e-08
3.71966e-12
0.00203768
3.47604e-07
2.18621e-12
0.00200319
1.41063e-06
9.78659e-13
0.00188977
5.66581e-06
-1.24689e-11
0.00160842
2.67093e-05
-1.02823e-10
0.000137646
0.00019028
-7.61802e-10
-0.00565264
0.00219466
-1.34799e-09
-0.00419338
0.00268451
3.13913e-09
-0.00346307
0.00209393
5.1075e-10
-0.00291603
0.00183183
-7.73656e-11
-0.00260268
0.0017676
-5.22427e-11
-0.00234182
0.00176765
-9.84642e-11
-0.00207805
0.00178971
-1.45255e-10
-0.00181584
0.00176486
-2.35846e-10
-0.00153988
0.00175461
-7.30759e-11
-0.00121745
0.0017516
1.07336e-11
-0.000848598
0.00175356
7.18539e-11
-0.000470769
0.00180592
9.75501e-11
0.00190333
1.13506e-10
0.0020281
1.57206e-10
2.02632e-13
0.00203102
2.59579e-09
4.00304e-13
0.00203298
4.86064e-09
4.7474e-13
0.00203553
8.65708e-09
5.26609e-13
0.0020392
1.50405e-08
7.2417e-13
0.0020425
2.91494e-08
1.47727e-12
0.00204361
7.60028e-08
8.46517e-13
0.00204071
2.52086e-07
-6.67056e-13
0.00201158
1.29265e-06
-5.00524e-12
0.00191178
5.68078e-06
-2.34139e-11
0.00166749
2.61257e-05
-1.36621e-10
0.000477433
0.000174305
-1.1069e-09
-0.00529486
0.00220834
-3.11435e-09
-0.00410574
0.00360393
3.49447e-09
-0.00341794
0.00265082
-1.92641e-09
-0.00282065
0.00230776
-4.54329e-10
-0.00249511
0.00219805
-2.8445e-10
-0.00221886
0.00220266
-1.0732e-10
-0.00197095
0.00224189
-1.12937e-10
-0.00171548
0.00220509
-2.79758e-10
-0.00145324
0.00218606
-1.68939e-10
-0.00115039
0.00218159
-2.13266e-11
-0.00080069
0.00218429
4.79573e-11
-0.000445457
0.00225417
8.44441e-11
0.00238901
1.03538e-10
0.0020281
-2.30312e-10
5.77378e-13
0.00203102
1.46401e-09
2.01369e-12
0.00203298
3.21704e-09
2.05573e-12
0.00203555
6.78204e-09
2.30871e-12
0.00203908
1.52464e-08
3.42037e-12
0.0020417
3.80658e-08
4.09288e-12
0.0020449
2.73686e-08
4.5313e-12
0.00204686
1.4033e-07
6.51329e-12
0.0020236
1.19546e-06
1.71166e-11
0.00193408
5.44254e-06
5.51153e-11
0.00172736
2.42155e-05
1.81221e-10
0.00097256
0.000149829
6.98078e-10
-0.00414065
0.00189383
3.96792e-09
-0.00400027
0.00463906
-1.11384e-09
-0.00338418
0.00322014
-3.44661e-10
-0.00270069
0.00279444
-4.17561e-10
-0.00236191
0.00262167
-3.23568e-10
-0.00206589
0.00263221
-2.7255e-10
-0.00183699
0.00269152
-2.18997e-10
-0.00159365
0.00264672
-3.10163e-10
-0.00134372
0.00261514
-2.17978e-10
-0.00106245
0.00261184
-4.80302e-11
-0.000735194
0.00261595
2.03483e-11
-0.000406911
0.0027052
6.60947e-11
0.00289845
8.29284e-11
0.0020281
-2.89068e-10
2.21462e-13
0.00203101
-1.86787e-10
4.42475e-13
0.00203298
1.39607e-10
4.62576e-13
0.00203558
1.00183e-09
5.36485e-13
0.00203911
3.84357e-09
8.32307e-13
0.00204126
1.25586e-08
1.39003e-12
0.0020476
-4.01788e-09
-4.44649e-13
0.00205316
7.69023e-08
2.1274e-12
0.00203576
1.02289e-06
1.52945e-11
0.00195965
4.79709e-06
4.91951e-11
0.00177857
2.08778e-05
1.71139e-10
0.00118856
0.000121828
8.53696e-10
-0.00261691
0.00135257
6.17574e-09
-0.00397908
0.00570127
-5.93628e-09
-0.00335778
0.00381427
-2.33274e-10
-0.0025668
0.0032982
-1.0943e-10
-0.00220274
0.00303393
-1.81191e-10
-0.00188561
0.00305917
-3.95721e-10
-0.00167401
0.00312668
-2.97656e-10
-0.00144542
0.00308623
-3.38964e-10
-0.0012062
0.00304107
-2.61727e-10
-0.000947081
0.00303908
-1.18534e-10
-0.000644493
0.00304393
-8.21587e-12
-0.000347446
0.00316088
4.37377e-11
0.00344686
6.70785e-11
0.0020281
5.00665e-10
1.50774e-12
0.00203102
2.17571e-10
2.39922e-12
0.00203299
2.2343e-10
2.48878e-12
0.00203558
4.88166e-10
2.74632e-12
0.00203914
7.69557e-10
3.55229e-12
0.00204124
7.34176e-10
5.20752e-12
0.00204675
1.605e-08
7.54326e-13
0.00205792
4.22086e-08
6.38181e-12
0.00204857
8.45365e-07
1.57154e-11
0.00198653
4.05615e-06
3.45964e-11
0.0018312
1.68499e-05
8.8857e-11
0.00138598
8.90188e-05
3.94888e-10
-0.00149739
0.00081229
2.6273e-09
-0.00443859
0.00628283
-3.65487e-09
-0.00331066
0.00465539
9.59231e-11
-0.00242671
0.00385743
5.66231e-10
-0.00201856
0.00347241
-1.85679e-10
-0.00167788
0.00349232
-3.50225e-10
-0.00147832
0.00355322
-3.38305e-10
-0.00126649
0.00352261
-3.83815e-10
-0.00103631
0.00346219
-2.99455e-10
-0.000796015
0.00345917
-1.50337e-10
-0.00052547
0.0034681
-3.64252e-11
-0.000254763
0.00361209
2.59645e-11
0.00404895
4.82658e-11
0.0020281
-2.32213e-10
-3.32486e-16
0.00203102
-1.1336e-10
3.33612e-13
0.00203299
-5.73375e-11
3.52892e-13
0.00203558
2.35569e-10
4.25176e-13
0.0020391
1.19746e-09
6.26689e-13
0.00204111
-2.13246e-10
9.73201e-13
0.00204636
2.9952e-08
7.45492e-14
0.00206415
2.94943e-08
1.22537e-12
0.0020583
6.28432e-07
2.73873e-12
0.00200354
3.11687e-06
1.06955e-11
0.0018826
1.28244e-05
3.08062e-11
0.00158057
6.18052e-05
1.11913e-10
-1.78478e-05
0.00045669
6.08346e-10
-0.00463747
0.00493555
3.41738e-09
-0.00321814
0.00602379
3.89898e-10
-0.00230387
0.004445
6.68961e-10
-0.00181019
0.00395537
-1.9323e-10
-0.00144552
0.00392593
-3.84689e-10
-0.00124834
0.00395273
-4.19469e-10
-0.00105184
0.00395258
-4.39301e-10
-0.000833906
0.00387506
-3.1336e-10
-0.000604961
0.0038709
-1.61907e-10
-0.000368589
0.00390461
-6.84277e-11
-0.000105861
0.0040284
4.26134e-12
0.00475068
2.56429e-11
0.0020281
1.54644e-12
-8.14388e-11
0.00203102
2.41612e-12
1.29581e-10
0.00203299
2.47588e-12
1.31493e-10
0.00203558
2.65733e-12
2.35418e-11
0.00203903
3.2788e-12
1.78338e-10
0.00204085
4.22228e-12
-3.55754e-09
0.00204665
3.08408e-12
1.89485e-08
0.00206534
8.35234e-12
6.13017e-08
0.00206087
1.09652e-11
3.11324e-07
0.0020171
1.48252e-11
2.02724e-06
0.00193509
2.76682e-11
9.31127e-06
0.00172138
3.10109e-11
4.17776e-05
0.000875872
-4.30494e-11
0.000266368
-0.00382958
-4.66798e-10
0.00327566
-0.0031233
1.54266e-09
0.00753416
-0.00221373
2.70605e-10
0.00502697
-0.0015883
-3.82726e-10
0.00445227
-0.00119694
-5.44925e-10
0.00434816
-0.000983812
-5.26222e-10
0.00432457
-0.000800251
-5.2006e-10
0.00436398
-0.0005939
-3.29302e-10
0.00427321
-0.000351704
-1.65792e-10
0.00425359
-0.00014059
-8.32942e-11
0.00433974
9.61913e-05
-1.94032e-11
0.00442856
7.92842e-12
0.00559114
0.0020281
-3.28103e-11
3.14954e-13
0.00203103
-8.80336e-11
4.90424e-13
0.00203304
-1.96241e-10
5.3062e-13
0.00203557
-5.08532e-10
6.21178e-13
0.00203921
-1.46671e-09
7.7637e-13
0.00204171
-3.35572e-09
1.09172e-12
0.00204252
2.30817e-08
1.5783e-12
0.00203266
1.26328e-07
2.31492e-12
0.00198909
4.84086e-07
3.97322e-12
0.00185505
1.92587e-06
8.64597e-12
0.00150615
9.81567e-06
2.52133e-11
-0.0004468
8.3078e-05
9.12634e-11
-0.00571469
0.000712477
-2.03522e-11
-0.0043564
0.00059838
-1.29939e-10
-0.0035669
0.000511309
-6.82339e-11
-0.00308435
0.000447552
-6.17642e-11
-0.00277496
0.00044428
1.26099e-11
-0.00252684
0.000443935
7.43558e-12
-0.00224509
0.000446293
-3.6693e-11
-0.0019697
0.000442877
-6.06769e-11
-0.00166559
0.000440932
-1.29417e-10
-0.00131186
0.000439801
-1.9941e-10
-0.000911497
0.000439265
-2.6491e-10
-0.00050308
0.000455874
-2.92176e-10
0.000476517
-3.0179e-10
0.0020281
-5.16169e-11
2.9427e-13
0.00203103
-2.77058e-10
4.29749e-13
0.00203303
-6.39712e-10
4.72413e-13
0.00203557
-1.63454e-09
5.63759e-13
0.00203923
-4.58912e-09
7.05381e-13
0.00204198
-1.32242e-08
1.05089e-12
0.00204287
4.96728e-08
1.34181e-12
0.00203352
2.42522e-07
2.24297e-12
0.00199133
9.4113e-07
3.32705e-12
0.00186047
3.68693e-06
7.5688e-12
0.00152602
1.82455e-05
1.84167e-11
-0.000340296
0.00014481
5.77155e-11
-0.0056809
0.0013603
4.78059e-11
-0.00432146
0.00122293
-1.05497e-10
-0.00354886
0.00102987
-6.24097e-11
-0.00305341
0.000903472
-5.17077e-11
-0.00274439
0.000887258
2.78073e-11
-0.00249571
0.000886169
1.40176e-11
-0.00221615
0.000891597
-3.66165e-11
-0.00194395
0.000884752
-6.78718e-11
-0.00164488
0.000881799
-1.38346e-10
-0.00129702
0.000879925
-2.02212e-10
-0.000904087
0.000880374
-2.60976e-10
-0.00049859
0.000908045
-2.79169e-10
0.000952073
-2.81273e-10
0.0020281
-3.43846e-11
2.6257e-13
0.00203103
-7.3446e-10
4.95141e-13
0.00203303
-1.59648e-09
5.27118e-13
0.00203556
-3.85533e-09
6.08272e-13
0.00203919
-9.57522e-09
7.75246e-13
0.00204255
-2.89682e-08
1.0824e-12
0.00204302
6.16522e-08
1.465e-12
0.00203511
3.35218e-07
2.23293e-12
0.00199619
1.28067e-06
3.86337e-12
0.00187199
5.05747e-06
7.62957e-12
0.00156256
2.44042e-05
2.29761e-11
-0.000139726
0.00018366
1.01838e-10
-0.00565967
0.00188386
1.14682e-10
-0.00427103
0.00190081
-1.30454e-10
-0.00351257
0.00155313
-5.57036e-11
-0.00299604
0.00136315
2.13484e-12
-0.0026876
0.00132856
4.66578e-11
-0.00243475
0.00132772
3.01392e-11
-0.00216209
0.00133966
-2.12424e-11
-0.0018931
0.00132528
-5.4154e-11
-0.00160305
0.00131996
-1.44224e-10
-0.00126575
0.00131783
-2.0852e-10
-0.000882874
0.00131895
-2.548e-10
-0.000488487
0.00135785
-2.47417e-10
0.00142594
-2.6339e-10
0.0020281
3.58871e-11
1.48348e-13
0.00203102
1.43017e-10
2.84179e-13
0.00203301
2.2367e-10
3.03428e-13
0.00203555
-7.08907e-10
3.52591e-13
0.00203915
-4.78467e-09
4.54474e-13
0.00204288
-2.27518e-08
6.78983e-13
0.0020432
7.88097e-08
1.07749e-12
0.00203767
3.49534e-07
2.06581e-12
0.00200317