/*--------------------------------*- C++ -*----------------------------------*\
| =========                 |                                                 |
| \\      /  F ield         | OpenFOAM: The Open Source CFD Toolbox           |
|  \\    /   O peration     | Version:  4.1                                   |
|   \\  /    A nd           | Web:      www.OpenFOAM.org                      |
|    \\/     M anipulation  |                                                 |
\*---------------------------------------------------------------------------*/
FoamFile
{
    version     2.0;
    format      ascii;
    class       volScalarField;
    location    "0.36";
    object      T;
}
// * * * * * * * * * * * * * * * * * * * * * * * * * * * * * * * * * * * * * //

dimensions      [0 0 0 1 0 0 0];

internalField   nonuniform List<scalar> 
52500
(
0.337089
0.317612
0.318256
0.31905
0.319894
0.321845
0.324996
0.331558
0.346789
0.392436
0.572634
1.15248
1.65779
1.39854
1.42747
1.58275
1.62853
1.56548
1.5091
1.48918
1.46724
1.4428
1.42199
1.39462
1.31698
0.337089
0.317612
0.318256
0.319051
0.319894
0.321838
0.324958
0.331412
0.346326
0.390607
0.56375
1.12963
1.6614
1.40092
1.42342
1.57863
1.62946
1.56763
1.50921
1.48905
1.46642
1.44216
1.42146
1.39449
1.31512
0.337089
0.317613
0.318256
0.319055
0.319896
0.321821
0.324897
0.331129
0.3454
0.386999
0.54618
1.0829
1.6637
1.4061
1.41654
1.56956
1.62882
1.57001
1.50879
1.48841
1.4651
1.4409
1.42042
1.39357
1.31261
0.33709
0.317614
0.318256
0.319062
0.319901
0.32177
0.324889
0.330738
0.344095
0.382013
0.522219
1.01908
1.65878
1.41571
1.4076
1.55419
1.62561
1.5726
1.50678
1.48589
1.46152
1.43716
1.41725
1.39047
1.3067
0.33709
0.317616
0.318256
0.319072
0.319905
0.321718
0.324924
0.33024
0.342537
0.376377
0.495165
0.938539
1.6368
1.43593
1.39477
1.52794
1.61847
1.57535
1.50382
1.4816
1.45723
1.43369
1.41346
1.38547
1.3002
0.337089
0.317611
0.318262
0.319055
0.319893
0.321767
0.324858
0.3296
0.340926
0.371005
0.469326
0.844022
1.57034
1.47241
1.38088
1.49689
1.6091
1.57939
1.49986
1.47448
1.44982
1.42635
1.40692
1.37997
1.29287
0.33709
0.317609
0.318268
0.319044
0.319884
0.321771
0.324867
0.329057
0.339408
0.365738
0.445334
0.750752
1.44631
1.51308
1.36453
1.45935
1.59456
1.5839
1.49756
1.46574
1.44164
1.4176
1.3973
1.37197
1.27526
0.337092
0.31761
0.318271
0.319041
0.319884
0.32174
0.324961
0.328589
0.338059
0.361022
0.423933
0.654034
1.26804
1.54991
1.35144
1.41948
1.57504
1.58597
1.49753
1.45537
1.43191
1.41078
1.38962
1.3601
1.26157
0.337091
0.317609
0.318272
0.319041
0.319884
0.321741
0.324974
0.328213
0.336956
0.357169
0.406686
0.570868
1.06611
1.55764
1.35714
1.3792
1.54296
1.58336
1.50135
1.44617
1.42156
1.39968
1.37561
1.3514
1.22503
0.337091
0.317609
0.318273
0.31904
0.319885
0.32174
0.324958
0.328042
0.335851
0.354064
0.393861
0.510067
0.899496
1.48318
1.38613
1.34614
1.49227
1.57331
1.51158
1.43892
1.40902
1.38385
1.35684
1.33464
1.19116
0.337091
0.317614
0.318258
0.319053
0.319897
0.321848
0.324999
0.331565
0.346806
0.392486
0.572838
1.15302
1.658
1.39864
1.42754
1.58274
1.62847
1.56544
1.50908
1.48916
1.46721
1.44275
1.42193
1.39455
1.31699
0.33709
0.317613
0.318257
0.319053
0.319895
0.321839
0.324959
0.331415
0.346335
0.390642
0.563906
1.12999
1.66156
1.40086
1.42329
1.57856
1.62945
1.5676
1.50919
1.48903
1.4664
1.44212
1.42141
1.39444
1.31511
0.337091
0.317613
0.318259
0.319055
0.319896
0.321828
0.3249
0.331135
0.34543
0.387113
0.546674
1.08426
1.66386
1.40613
1.41704
1.56994
1.62878
1.56993
1.50876
1.48839
1.46508
1.44087
1.42037
1.39351
1.31261
0.33709
0.317614
0.318256
0.319061
0.3199
0.321771
0.324886
0.330738
0.344103
0.382066
0.522527
1.01995
1.65884
1.4154
1.40755
1.55421
1.62558
1.57253
1.50675
1.48586
1.46149
1.43711
1.41717
1.3904
1.30676
0.337091
0.317616
0.318257
0.319071
0.319905
0.321724
0.32492
0.330244
0.342561
0.376474
0.495608
0.940077
1.6376
1.4358
1.39543
1.52851
1.61855
1.57526
1.5038
1.48159
1.4572
1.43361
1.41334
1.38539
1.30032
0.337089
0.317611
0.318261
0.319055
0.319892
0.321757
0.324857
0.329602
0.340924
0.371002
0.469427
0.844547
1.57065
1.47215
1.3812
1.49728
1.60928
1.5793
1.49984
1.47449
1.44979
1.42626
1.4068
1.37988
1.293
0.337091
0.31761
0.318267
0.319045
0.319885
0.32176
0.324873
0.329066
0.339402
0.365699
0.445263
0.750615
1.44576
1.51292
1.36409
1.45881
1.5944
1.58396
1.49759
1.46576
1.44162
1.41751
1.39716
1.37187
1.27541
0.33709
0.317609
0.318267
0.31904
0.319882
0.321729
0.324965
0.328589
0.33804
0.360977
0.423872
0.653952
1.26795
1.54966
1.35111
1.41906
1.57492
1.58607
1.49758
1.4554
1.4319
1.4107
1.3895
1.35999
1.26171
0.337091
0.317609
0.31827
0.31904
0.319883
0.321729
0.32498
0.328214
0.336932
0.357123
0.406628
0.570777
1.06599
1.55792
1.35702
1.37913
1.54306
1.58347
1.50142
1.44623
1.42158
1.39966
1.37551
1.35127
1.22517
0.33709
0.317608
0.318268
0.319038
0.319882
0.321725
0.324959
0.328036
0.335819
0.354003
0.393783
0.509944
0.899236
1.48305
1.38617
1.34589
1.49218
1.57344
1.51174
1.43893
1.40903
1.38381
1.35676
1.33449
1.1913
0.337089
0.317612
0.318256
0.31905
0.319894
0.321845
0.324996
0.33156
0.346797
0.392479
0.572878
1.15317
1.65783
1.39861
1.4276
1.58285
1.62851
1.56545
1.5091
1.48918
1.46723
1.44277
1.42194
1.39456
1.317
0.33709
0.317613
0.318256
0.319052
0.319894
0.321838
0.324958
0.331413
0.346332
0.390637
0.563925
1.13016
1.66146
1.4009
1.42344
1.57868
1.62945
1.56762
1.50921
1.48905
1.46641
1.44213
1.42141
1.39445
1.31512
0.337089
0.317613
0.318256
0.319054
0.319895
0.32182
0.324894
0.331127
0.345402
0.387019
0.546323
1.08337
1.6638
1.40602
1.41655
1.56967
1.62883
1.57
1.50878
1.48841
1.46509
1.44087
1.42038
1.39352
1.31262
0.33709
0.317614
0.318256
0.319062
0.3199
0.32177
0.324887
0.330736
0.344095
0.382025
0.522313
1.01941
1.65888
1.41558
1.40748
1.55414
1.62564
1.5726
1.50678
1.48587
1.4615
1.43711
1.41717
1.3904
1.30676
0.337089
0.317615
0.318254
0.31907
0.319904
0.321711
0.324922
0.33024
0.342534
0.37638
0.495271
0.939072
1.637
1.43575
1.39462
1.52788
1.61852
1.57537
1.50383
1.4816
1.4572
1.43361
1.41334
1.38539
1.30032
0.33709
0.317611
0.318262
0.319055
0.319892
0.321763
0.324857
0.329601
0.340927
0.371013
0.469412
0.84445
1.5709
1.47223
1.3811
1.49725
1.60929
1.57938
1.49987
1.47449
1.44978
1.42626
1.4068
1.37988
1.293
0.33709
0.317609
0.318265
0.319043
0.319883
0.321756
0.324869
0.329063
0.339395
0.365691
0.445287
0.750825
1.44633
1.51296
1.36443
1.45926
1.59457
1.58398
1.49759
1.46576
1.44161
1.41751
1.39716
1.37187
1.2754
0.337091
0.317609
0.318269
0.319041
0.319883
0.321732
0.324966
0.328592
0.33805
0.360996
0.423914
0.654123
1.26838
1.54955
1.35136
1.41947
1.57508
1.58606
1.49757
1.4554
1.43189
1.41069
1.38949
1.35998
1.26171
0.33709
0.317608
0.318269
0.319038
0.319882
0.321727
0.324975
0.328208
0.336925
0.357113
0.406624
0.570855
1.06623
1.55791
1.35709
1.37925
1.54313
1.58345
1.5014
1.44623
1.42156
1.39965
1.3755
1.35126
1.22516
0.337091
0.317609
0.31827
0.319038
0.319884
0.321729
0.324957
0.328038
0.335825
0.354013
0.393794
0.509964
0.899287
1.48304
1.38609
1.34589
1.49225
1.57346
1.51171
1.43891
1.40902
1.3838
1.35675
1.33448
1.19129
0.337089
0.317612
0.318255
0.31905
0.319894
0.321843
0.324994
0.331558
0.346795
0.392476
0.572881
1.1532
1.65783
1.39858
1.42758
1.58285
1.62852
1.56546
1.5091
1.48919
1.46723
1.44276
1.42193
1.39455
1.31699
0.337089
0.317612
0.318255
0.319051
0.319893
0.321836
0.324956
0.33141
0.346328
0.390631
0.563929
1.13021
1.66148
1.40087
1.42341
1.57868
1.62946
1.56763
1.50921
1.48906
1.46642
1.44213
1.42141
1.39444
1.31511
0.337089
0.317612
0.318255
0.319053
0.319894
0.32182
0.324894
0.331126
0.345401
0.387021
0.546354
1.08348
1.66384
1.40601
1.41656
1.56969
1.62883
1.57
1.50879
1.48842
1.4651
1.44087
1.42037
1.39351
1.31261
0.337089
0.317613
0.318255
0.31906
0.319899
0.321769
0.324884
0.330733
0.34409
0.382025
0.522374
1.01963
1.6589
1.41543
1.40745
1.55412
1.62563
1.57261
1.50678
1.48588
1.46151
1.43711
1.41717
1.39039
1.30675
0.337089
0.317615
0.318254
0.31907
0.319904
0.32171
0.324922
0.330242
0.342538
0.376395
0.495364
0.939443
1.63734
1.43587
1.39504
1.52823
1.61861
1.57535
1.50383
1.48161
1.45721
1.43361
1.41333
1.38539
1.30032
0.337089
0.317611
0.31826
0.319054
0.319891
0.321753
0.324858
0.329601
0.340915
0.370968
0.469304
0.844186
1.57039
1.47228
1.38091
1.49714
1.6093
1.57941
1.49987
1.4745
1.4498
1.42627
1.4068
1.37988
1.293
0.337089
0.317609
0.318265
0.319043
0.319883
0.321754
0.324871
0.329063
0.33939
0.36567
0.44521
0.750536
1.44589
1.51305
1.36402
1.45877
1.59449
1.58403
1.49761
1.46577
1.44162
1.41752
1.39716
1.37186
1.2754
0.33709
0.317608
0.318267
0.319039
0.319881
0.321726
0.324964
0.328587
0.338036
0.360968
0.423864
0.653987
1.2682
1.54993
1.35116
1.4192
1.57505
1.58611
1.4976
1.45541
1.4319
1.4107
1.3895
1.35998
1.26171
0.33709
0.317608
0.318268
0.319038
0.319881
0.321725
0.324976
0.328209
0.336922
0.357108
0.406614
0.570818
1.06616
1.55768
1.35703
1.37924
1.54318
1.58351
1.50143
1.44624
1.42158
1.39966
1.37551
1.35126
1.22516
0.33709
0.317607
0.318267
0.319036
0.319881
0.321723
0.324956
0.328033
0.335813
0.353993
0.393775
0.509965
0.899381
1.48316
1.3861
1.34592
1.49227
1.57347
1.51175
1.43894
1.40904
1.38381
1.35675
1.33448
1.19129
0.337089
0.317612
0.318255
0.319049
0.319893
0.321843
0.324993
0.331556
0.346792
0.392471
0.572869
1.15319
1.65787
1.3986
1.42758
1.58281
1.62849
1.56546
1.5091
1.48919
1.46723
1.44277
1.42194
1.39457
1.317
0.337089
0.317612
0.318255
0.31905
0.319893
0.321836
0.324955
0.331408
0.346325
0.390627
0.56392
1.13021
1.66151
1.4009
1.42342
1.57865
1.62943
1.56763
1.50921
1.48906
1.46641
1.44213
1.42141
1.39445
1.31513
0.337089
0.317612
0.318255
0.319053
0.319894
0.321819
0.324893
0.331124
0.345398
0.387016
0.546342
1.08346
1.66386
1.40602
1.41656
1.56965
1.62881
1.57
1.50878
1.48841
1.46509
1.44087
1.42038
1.39353
1.31263
0.337089
0.317613
0.318254
0.31906
0.319898
0.321768
0.324883
0.330731
0.344088
0.38202
0.52236
1.01961
1.65891
1.41545
1.40745
1.55412
1.62562
1.57259
1.50678
1.48588
1.46151
1.43714
1.41722
1.39043
1.3067
0.337089
0.317615
0.318254
0.31907
0.319903
0.32171
0.324921
0.33024
0.342535
0.37639
0.495346
0.93939
1.63733
1.43588
1.39504
1.52821
1.61858
1.57533
1.50383
1.48162
1.45724
1.43369
1.41344
1.38544
1.30015
0.337089
0.31761
0.31826
0.319054
0.319891
0.321753
0.324857
0.3296
0.340913
0.370964
0.469289
0.844128
1.57033
1.4723
1.3809
1.4971
1.60926
1.57939
1.49987
1.47451
1.44984
1.42637
1.40692
1.37994
1.29283
0.337089
0.317608
0.318265
0.319043
0.319882
0.321754
0.32487
0.329062
0.339388
0.365667
0.445199
0.750484
1.44581
1.51308
1.36403
1.45875
1.59444
1.584
1.4976
1.46578
1.44166
1.41761
1.39729
1.37197
1.27527
0.33709
0.317608
0.318266
0.319039
0.31988
0.321726
0.324964
0.328587
0.338035
0.360966
0.423855
0.65394
1.26807
1.54996
1.35117
1.41915
1.57499
1.58608
1.49759
1.45541
1.43193
1.41076
1.38959
1.36007
1.2616
0.33709
0.317608
0.318268
0.319038
0.319881
0.321726
0.324976
0.328209
0.336922
0.357109
0.406611
0.570784
1.06608
1.55769
1.35705
1.3792
1.54312
1.58347
1.50141
1.44624
1.42159
1.39968
1.37556
1.35133
1.2251
0.33709
0.317607
0.318268
0.319036
0.319881
0.321724
0.324955
0.328032
0.335813
0.353994
0.393773
0.509946
0.899327
1.48315
1.38615
1.34593
1.4922
1.57344
1.51173
1.43893
1.40904
1.38381
1.35677
1.33451
1.19125
0.337089
0.317612
0.318256
0.31905
0.319894
0.321844
0.324994
0.331558
0.346795
0.392477
0.572888
1.15322
1.65784
1.39858
1.42759
1.58286
1.62852
1.56546
1.50911
1.48919
1.46723
1.44277
1.42193
1.39455
1.31699
0.337089
0.317612
0.318255
0.319051
0.319893
0.321836
0.324956
0.33141
0.346328
0.390632
0.563935
1.13023
1.66148
1.40087
1.42342
1.57869
1.62947
1.56764
1.50922
1.48906
1.46642
1.44213
1.42141
1.39444
1.31511
0.337089
0.317612
0.318256
0.319053
0.319894
0.32182
0.324894
0.331126
0.345401
0.387022
0.546358
1.08349
1.66384
1.406
1.41656
1.56969
1.62884
1.57001
1.50879
1.48842
1.4651
1.44088
1.42037
1.39351
1.31261
0.337089
0.317613
0.318255
0.31906
0.319899
0.321769
0.324884
0.330733
0.34409
0.382025
0.522376
1.01964
1.6589
1.41543
1.40745
1.55412
1.62564
1.57262
1.50679
1.48589
1.46151
1.43712
1.41717
1.3904
1.30676
0.337089
0.317615
0.318254
0.31907
0.319904
0.32171
0.324922
0.330242
0.342538
0.376395
0.495362
0.939432
1.63732
1.43586
1.39504
1.52822
1.6186
1.57535
1.50384
1.48161
1.45722
1.43362
1.41334
1.38539
1.30032
0.337089
0.317611
0.31826
0.319054
0.319891
0.321753
0.324859
0.329602
0.340916
0.370968
0.469299
0.844161
1.57034
1.47228
1.3809
1.49713
1.60929
1.57941
1.49987
1.47451
1.4498
1.42627
1.4068
1.37988
1.293
0.33709
0.317609
0.318265
0.319043
0.319883
0.321754
0.324872
0.329064
0.33939
0.36567
0.445205
0.750504
1.44581
1.51304
1.36401
1.45876
1.59449
1.58403
1.49761
1.46577
1.44162
1.41752
1.39716
1.37186
1.2754
0.33709
0.317608
0.318267
0.319039
0.319881
0.321727
0.324965
0.328588
0.338036
0.360969
0.42386
0.653949
1.26807
1.54993
1.35115
1.41917
1.57504
1.58611
1.49759
1.45541
1.4319
1.4107
1.3895
1.35998
1.26171
0.33709
0.317608
0.318268
0.319039
0.319882
0.321726
0.324977
0.32821
0.336924
0.357111
0.406616
0.570794
1.06608
1.55766
1.35703
1.37922
1.54316
1.5835
1.50142
1.44624
1.42158
1.39966
1.37551
1.35126
1.22516
0.33709
0.317608
0.318268
0.319037
0.319882
0.321724
0.324957
0.328034
0.335815
0.353996
0.393777
0.509955
0.899332
1.48313
1.38612
1.34592
1.49225
1.57347
1.51174
1.43894
1.40903
1.3838
1.35675
1.33448
1.19129
0.337089
0.317612
0.318255
0.31905
0.319894
0.321843
0.324994
0.331558
0.346795
0.392476
0.572881
1.1532
1.65783
1.39858
1.42758
1.58285
1.62852
1.56546
1.5091
1.48919
1.46723
1.44276
1.42193
1.39455
1.31699
0.337089
0.317612
0.318255
0.319051
0.319893
0.321836
0.324956
0.33141
0.346328
0.390631
0.563929
1.13021
1.66148
1.40087
1.42341
1.57868
1.62946
1.56763
1.50922
1.48906
1.46642
1.44213
1.42141
1.39444
1.31511
0.337089
0.317612
0.318255
0.319053
0.319894
0.32182
0.324894
0.331126
0.345401
0.387021
0.546354
1.08348
1.66384
1.40601
1.41656
1.56969
1.62883
1.57
1.50879
1.48842
1.4651
1.44087
1.42037
1.39351
1.31261
0.337089
0.317613
0.318255
0.31906
0.319899
0.321769
0.324884
0.330733
0.34409
0.382025
0.522374
1.01963
1.6589
1.41543
1.40745
1.55412
1.62563
1.57261
1.50678
1.48588
1.46151
1.43711
1.41717
1.39039
1.30675
0.337089
0.317615
0.318254
0.31907
0.319904
0.32171
0.324922
0.330242
0.342538
0.376395
0.495364
0.939443
1.63734
1.43587
1.39504
1.52823
1.61861
1.57535
1.50383
1.48161
1.45721
1.43361
1.41333
1.38539
1.30032
0.337089
0.317611
0.31826
0.319054
0.319891
0.321753
0.324858
0.329601
0.340915
0.370968
0.469304
0.844186
1.57039
1.47228
1.38091
1.49714
1.6093
1.57941
1.49987
1.4745
1.4498
1.42627
1.4068
1.37988
1.293
0.337089
0.317609
0.318265
0.319043
0.319883
0.321754
0.324871
0.329063
0.33939
0.36567
0.44521
0.750537
1.44589
1.51305
1.36402
1.45877
1.59449
1.58403
1.49761
1.46577
1.44162
1.41752
1.39716
1.37186
1.2754
0.33709
0.317608
0.318267
0.319039
0.319881
0.321726
0.324964
0.328587
0.338036
0.360968
0.423864
0.653987
1.2682
1.54993
1.35116
1.4192
1.57505
1.58611
1.4976
1.45541
1.4319
1.4107
1.3895
1.35998
1.26171
0.33709
0.317608
0.318268
0.319038
0.319881
0.321725
0.324976
0.328209
0.336922
0.357108
0.406614
0.570818
1.06616
1.55768
1.35703
1.37924
1.54318
1.58351
1.50143
1.44624
1.42158
1.39966
1.37551
1.35126
1.22516
0.33709
0.317607
0.318267
0.319036
0.319881
0.321723
0.324956
0.328033
0.335813
0.353993
0.393775
0.509965
0.899381
1.48316
1.3861
1.34592
1.49227
1.57347
1.51175
1.43894
1.40904
1.38381
1.35675
1.33448
1.19129
0.337089
0.317612
0.318256
0.31905
0.319894
0.321845
0.324996
0.33156
0.346797
0.392479
0.572878
1.15317
1.65783
1.39861
1.4276
1.58285
1.62851
1.56545
1.5091
1.48918
1.46723
1.44277
1.42194
1.39456
1.317
0.33709
0.317613
0.318256
0.319052
0.319894
0.321838
0.324958
0.331413
0.346332
0.390637
0.563925
1.13016
1.66146
1.4009
1.42344
1.57868
1.62945
1.56762
1.50921
1.48905
1.46641
1.44213
1.42141
1.39445
1.31512
0.337089
0.317613
0.318256
0.319054
0.319895
0.32182
0.324894
0.331127
0.345402
0.387019
0.546323
1.08337
1.6638
1.40602
1.41655
1.56967
1.62883
1.57
1.50878
1.48841
1.46509
1.44087
1.42038
1.39352
1.31262
0.33709
0.317614
0.318256
0.319062
0.3199
0.32177
0.324887
0.330737
0.344095
0.382025
0.522313
1.01941
1.65888
1.41558
1.40748
1.55414
1.62564
1.5726
1.50678
1.48587
1.4615
1.43711
1.41717
1.3904
1.30676
0.337089
0.317615
0.318254
0.31907
0.319904
0.321711
0.324922
0.33024
0.342534
0.37638
0.495271
0.939072
1.637
1.43575
1.39462
1.52788
1.61852
1.57537
1.50383
1.4816
1.4572
1.43361
1.41334
1.38539
1.30032
0.33709
0.317611
0.318262
0.319055
0.319892
0.321763
0.324857
0.329601
0.340927
0.371013
0.469412
0.84445
1.5709
1.47223
1.3811
1.49725
1.60929
1.57938
1.49987
1.47449
1.44978
1.42626
1.4068
1.37988
1.293
0.33709
0.317609
0.318265
0.319043
0.319883
0.321756
0.324869
0.329063
0.339395
0.365691
0.445287
0.750825
1.44633
1.51296
1.36443
1.45926
1.59457
1.58398
1.49759
1.46576
1.44161
1.41751
1.39716
1.37187
1.2754
0.337091
0.317609
0.318269
0.319041
0.319883
0.321732
0.324966
0.328592
0.33805
0.360996
0.423914
0.654123
1.26838
1.54955
1.35136
1.41947
1.57508
1.58606
1.49757
1.4554
1.43189
1.41069
1.38949
1.35998
1.26171
0.33709
0.317608
0.318269
0.319038
0.319882
0.321727
0.324975
0.328208
0.336925
0.357113
0.406624
0.570855
1.06623
1.55791
1.35709
1.37925
1.54313
1.58345
1.5014
1.44623
1.42156
1.39965
1.3755
1.35126
1.22516
0.337091
0.317609
0.31827
0.319038
0.319884
0.321729
0.324957
0.328038
0.335825
0.354013
0.393794
0.509964
0.899287
1.48304
1.38609
1.34589
1.49225
1.57346
1.51171
1.43891
1.40902
1.3838
1.35675
1.33448
1.19129
0.337091
0.317614
0.318258
0.319053
0.319897
0.321848
0.324999
0.331565
0.346806
0.392486
0.572838
1.15302
1.658
1.39864
1.42754
1.58274
1.62847
1.56544
1.50908
1.48916
1.46721
1.44275
1.42193
1.39455
1.31699
0.33709
0.317613
0.318257
0.319053
0.319895
0.321839
0.324959
0.331415
0.346335
0.390642
0.563906
1.12999
1.66156
1.40086
1.42329
1.57856
1.62945
1.5676
1.50919
1.48903
1.4664
1.44212
1.42141
1.39444
1.31511
0.337091
0.317613
0.318259
0.319055
0.319896
0.321828
0.3249
0.331135
0.34543
0.387113
0.546674
1.08426
1.66386
1.40613
1.41704
1.56994
1.62878
1.56993
1.50876
1.48839
1.46508
1.44087
1.42037
1.39351
1.31261
0.33709
0.317614
0.318256
0.319061
0.3199
0.321771
0.324886
0.330738
0.344103
0.382066
0.522527
1.01995
1.65884
1.4154
1.40755
1.55421
1.62558
1.57253
1.50675
1.48586
1.46149
1.43711
1.41717
1.3904
1.30676
0.337091
0.317616
0.318257
0.319071
0.319905
0.321724
0.32492
0.330244
0.342561
0.376474
0.495608
0.940076
1.6376
1.4358
1.39543
1.52851
1.61855
1.57526
1.5038
1.48159
1.4572
1.43361
1.41334
1.38539
1.30032
0.337089
0.317611
0.318261
0.319055
0.319892
0.321757
0.324857
0.329602
0.340924
0.371002
0.469427
0.844546
1.57065
1.47215
1.3812
1.49728
1.60928
1.5793
1.49984
1.47449
1.44979
1.42626
1.4068
1.37988
1.293
0.337091
0.31761
0.318267
0.319045
0.319885
0.32176
0.324873
0.329066
0.339402
0.365699
0.445263
0.750615
1.44576
1.51292
1.36409
1.45881
1.5944
1.58396
1.49759
1.46576
1.44162
1.41751
1.39716
1.37187
1.27541
0.33709
0.317609
0.318267
0.31904
0.319882
0.321729
0.324965
0.328589
0.33804
0.360977
0.423872
0.653952
1.26795
1.54966
1.35111
1.41906
1.57492
1.58607
1.49758
1.4554
1.4319
1.4107
1.3895
1.35999
1.26171
0.337091
0.317609
0.31827
0.31904
0.319883
0.321729
0.32498
0.328214
0.336932
0.357123
0.406628
0.570777
1.066
1.55792
1.35703
1.37913
1.54306
1.58347
1.50142
1.44623
1.42158
1.39966
1.37551
1.35127
1.22517
0.33709
0.317608
0.318268
0.319038
0.319882
0.321725
0.324959
0.328036
0.335819
0.354003
0.393783
0.509944
0.899237
1.48305
1.38617
1.34589
1.49218
1.57344
1.51174
1.43893
1.40903
1.38381
1.35676
1.33449
1.1913
0.337089
0.317612
0.318256
0.319051
0.319895
0.321845
0.324996
0.331559
0.346791
0.392439
0.572632
1.15249
1.6578
1.3986
1.42751
1.58275
1.62846
1.56542
1.50908
1.48919
1.46729
1.44289
1.42212
1.39466
1.31679
0.337089
0.317612
0.318257
0.319052
0.319894
0.321839
0.324958
0.331412
0.346325
0.390596
0.563656
1.1293
1.66151
1.40096
1.42339
1.57852
1.6294
1.5676
1.5092
1.48906
1.46646
1.44222
1.42155
1.39453
1.31498
0.337089
0.317613
0.318256
0.319054
0.319896
0.321821
0.324896
0.331127
0.345396
0.386984
0.546095
1.0826
1.6636
1.40593
1.41627
1.56941
1.62876
1.56997
1.50876
1.4884
1.46511
1.44093
1.42047
1.39358
1.31254
0.337089
0.317613
0.318257
0.31906
0.319899
0.321778
0.324884
0.330735
0.344105
0.382072
0.522465
1.01972
1.65893
1.41556
1.40787
1.55422
1.62555
1.57254
1.50674
1.48585
1.46149
1.43714
1.41723
1.39047
1.30672
0.33709
0.317615
0.318255
0.319071
0.319905
0.321717
0.324923
0.330243
0.342545
0.37641
0.495358
0.939264
1.63731
1.43623
1.39561
1.52857
1.61858
1.57523
1.50378
1.48158
1.45721
1.43366
1.41344
1.38548
1.30023
0.33709
0.317612
0.318263
0.319056
0.319893
0.321766
0.324858
0.329599
0.340922
0.370981
0.469218
0.843607
1.56939
1.47249
1.38065
1.49667
1.60909
1.57934
1.49982
1.47447
1.4498
1.42634
1.40692
1.37997
1.29289
0.33709
0.317609
0.318267
0.319043
0.319883
0.321769
0.324865
0.329052
0.339394
0.365702
0.445211
0.750304
1.44562
1.51329
1.3638
1.45829
1.59417
1.58394
1.49756
1.46573
1.44163
1.41759
1.39729
1.37198
1.27527
0.337091
0.317609
0.318271
0.319041
0.319883
0.321744
0.32496
0.328588
0.338063
0.361034
0.423949
0.654101
1.26863
1.55009
1.35134
1.41939
1.57504
1.58601
1.49752
1.45538
1.43192
1.41078
1.38962
1.36011
1.26157
0.33709
0.317609
0.31827
0.319039
0.319883
0.321733
0.324971
0.328209
0.336939
0.357138
0.406653
0.570885
1.06624
1.55783
1.3573
1.37942
1.54323
1.58344
1.50133
1.4462
1.42158
1.39968
1.3756
1.3514
1.22503
0.337091
0.317609
0.318273
0.319039
0.319885
0.32174
0.324955
0.32804
0.335847
0.35406
0.393854
0.510052
0.899513
1.48333
1.38629
1.34629
1.49243
1.57331
1.51157
1.43894
1.40904
1.38386
1.35684
1.33464
1.19116
0.337092
0.317611
0.31827
0.319043
0.319889
0.321724
0.324968
0.327951
0.334928
0.351993
0.384526
0.468609
0.750402
1.3016
1.43254
1.31919
1.4234
1.55326
1.52421
1.43537
1.39733
1.36519
1.33352
1.31302
1.1039
0.337092
0.317611
0.318269
0.319045
0.319891
0.321709
0.325011
0.327902
0.334477
0.351252
0.377454
0.440054
0.633182
1.07103
1.46665
1.31213
1.35414
1.5218
1.52883
1.43646
1.38472
1.3519
1.302
1.29614
1.11411
0.337092
0.317611
0.318268
0.319046
0.319892
0.321701
0.325
0.327889
0.334252
0.350806
0.37222
0.421198
0.549548
0.877207
1.39232
1.34046
1.30195
1.4664
1.52385
1.44282
1.37935
1.3391
1.27666
1.28572
1.15744
0.337092
0.317611
0.318269
0.319045
0.319892
0.321711
0.324974
0.3279
0.33417
0.350925
0.369192
0.407357
0.501095
0.725895
1.13698
1.37155
1.2725
1.39046
1.50169
1.4559
1.38137
1.33325
1.25065
1.26042
1.19502
0.337092
0.317611
0.318269
0.319044
0.31989
0.321721
0.324959
0.32791
0.334146
0.351442
0.367756
0.397707
0.474716
0.624701
0.928027
1.38399
1.28369
1.30997
1.46336
1.46219
1.39179
1.33537
1.23985
1.23675
1.21541
0.337092
0.317611
0.31827
0.319044
0.31989
0.321723
0.324957
0.327913
0.334137
0.351388
0.367558
0.393076
0.460749
0.55537
0.755521
1.20172
1.30641
1.2443
1.40483
1.45872
1.40714
1.34423
1.24402
1.21879
1.21081
0.337092
0.317611
0.31827
0.319044
0.31989
0.321723
0.324956
0.32791
0.334144
0.351423
0.367782
0.391598
0.456802
0.518564
0.643176
0.928411
1.32449
1.21332
1.31854
1.43964
1.41505
1.36617
1.26003
1.22058
1.20325
0.337092
0.317611
0.318271
0.319044
0.319891
0.321725
0.324954
0.327911
0.334147
0.351392
0.368088
0.391019
0.458613
0.496048
0.567919
0.75489
1.23895
1.21507
1.24115
1.39157
1.40932
1.38272
1.3015
1.23029
1.20479
0.337092
0.317611
0.31827
0.319044
0.319891
0.321725
0.324952
0.327913
0.334137
0.351318
0.36814
0.391032
0.457853
0.49371
0.527122
0.630022
0.914659
1.22099
1.17149
1.31404
1.39194
1.38318
1.34149
1.25802
1.21281
0.337092
0.317611
0.318271
0.319045
0.319891
0.321725
0.324955
0.327916
0.334142
0.351309
0.368221
0.391255
0.459256
0.491888
0.507186
0.566253
0.726393
1.13423
1.11702
1.21695
1.34622
1.37639
1.35394
1.29153
1.23515
0.337093
0.317612
0.31827
0.319046
0.319892
0.321719
0.32496
0.327919
0.334135
0.351288
0.368183
0.391176
0.458948
0.491541
0.504313
0.532259
0.614132
0.828641
1.08762
1.1163
1.25223
1.35069
1.34948
1.31587
1.25637
0.337092
0.317611
0.318271
0.319045
0.319891
0.321724
0.324959
0.327917
0.33414
0.351313
0.368185
0.391209
0.458551
0.4934
0.50207
0.524576
0.565544
0.661257
0.906152
1.03282
1.13091
1.2842
1.33009
1.31382
1.26936
0.337092
0.317611
0.31827
0.319045
0.319891
0.321724
0.324958
0.327917
0.33414
0.351311
0.368184
0.39121
0.458551
0.493496
0.501648
0.525597
0.543067
0.582869
0.682939
0.894567
1.00854
1.16801
1.27695
1.29114
1.26757
0.337093
0.317612
0.31827
0.319046
0.319892
0.321719
0.324961
0.32792
0.334136
0.351292
0.368177
0.391163
0.458403
0.493418
0.501463
0.524437
0.543013
0.55421
0.584819
0.677418
0.868622
1.03136
1.16995
1.23684
1.24113
0.337092
0.317611
0.31827
0.319045
0.319891
0.321724
0.324957
0.327917
0.334141
0.351317
0.368191
0.391215
0.458574
0.493562
0.501615
0.524665
0.543018
0.547077
0.550942
0.575677
0.661833
0.864383
1.05212
1.15938
1.19877
0.337092
0.317611
0.318271
0.319045
0.319891
0.321725
0.324956
0.327916
0.33414
0.351317
0.368188
0.391208
0.458543
0.493531
0.501614
0.524681
0.543172
0.546073
0.543456
0.542134
0.562797
0.646718
0.86736
1.06322
1.14442
0.337092
0.317611
0.318271
0.319045
0.319891
0.321725
0.324956
0.327915
0.334139
0.351313
0.368183
0.3912
0.458515
0.493536
0.501623
0.524694
0.543205
0.54597
0.543146
0.533044
0.534996
0.556037
0.641269
0.852316
1.05737
0.337093
0.317611
0.318271
0.319045
0.319892
0.321726
0.324956
0.327918
0.334144
0.35132
0.368195
0.391212
0.458534
0.493587
0.501637
0.524662
0.5432
0.545976
0.543086
0.532445
0.529741
0.536069
0.570394
0.65283
0.785946
0.337093
0.317612
0.31827
0.319046
0.319892
0.321719
0.324958
0.327918
0.334135
0.351284
0.368171
0.391154
0.458377
0.493451
0.501481
0.52447
0.543004
0.545776
0.54286
0.532105
0.528982
0.533278
0.557967
0.61047
0.666825
0.337093
0.317612
0.318271
0.319046
0.319892
0.321727
0.324956
0.327919
0.334147
0.351322
0.368198
0.391211
0.458524
0.493588
0.501633
0.52465
0.543194
0.545976
0.543077
0.532374
0.529261
0.532883
0.555911
0.604582
0.648661
0.337092
0.317611
0.31827
0.319044
0.31989
0.321725
0.324954
0.327913
0.334137
0.351312
0.368182
0.391202
0.458529
0.493528
0.501618
0.524691
0.543185
0.545942
0.543032
0.532329
0.529241
0.532776
0.555671
0.603933
0.646518
0.337093
0.317612
0.318272
0.319046
0.319892
0.321728
0.324957
0.327919
0.334148
0.351332
0.368203
0.391201
0.45851
0.493537
0.501573
0.524583
0.543155
0.545952
0.543059
0.532351
0.529223
0.532744
0.555579
0.603738
0.646211
0.337092
0.317611
0.31827
0.319044
0.31989
0.321724
0.324954
0.327913
0.334137
0.351311
0.36818
0.391199
0.458527
0.493519
0.50161
0.524685
0.543179
0.545938
0.543028
0.532326
0.529239
0.532765
0.555648
0.603825
0.646265
0.337093
0.317612
0.318272
0.319046
0.319893
0.321728
0.324957
0.32792
0.334149
0.351328
0.368202
0.391213
0.45852
0.493572
0.501618
0.524634
0.543178
0.545963
0.543069
0.532369
0.52925
0.532766
0.555603
0.603767
0.646225
0.337092
0.317612
0.31827
0.319046
0.319892
0.321719
0.324957
0.327917
0.334133
0.351282
0.368166
0.391149
0.458366
0.49344
0.501475
0.524472
0.543004
0.545774
0.542854
0.532085
0.528913
0.532481
0.555364
0.603562
0.646072
0.337093
0.317612
0.318272
0.319046
0.319893
0.321728
0.324957
0.32792
0.334149
0.351325
0.368201
0.391212
0.458513
0.493578
0.501624
0.524642
0.54319
0.545975
0.543079
0.53238
0.529262
0.532777
0.555613
0.603778
0.646237
0.337092
0.317611
0.31827
0.319044
0.31989
0.321724
0.324954
0.327913
0.334137
0.351309
0.368177
0.391195
0.45851
0.493525
0.501615
0.52469
0.543189
0.545948
0.543037
0.532332
0.52924
0.532762
0.555639
0.603819
0.646265
0.337093
0.317612
0.318272
0.319046
0.319892
0.321727
0.324956
0.327918
0.334146
0.351325
0.368197
0.391199
0.45851
0.493555
0.501588
0.524594
0.543165
0.54596
0.543065
0.532357
0.529231
0.532749
0.555585
0.603741
0.6462
0.337092
0.317611
0.31827
0.319044
0.31989
0.321724
0.324954
0.327913
0.334136
0.351308
0.368178
0.391198
0.458524
0.493522
0.501613
0.524687
0.543176
0.545932
0.543022
0.53232
0.529235
0.53276
0.555646
0.603827
0.646266
0.337093
0.317611
0.318271
0.319045
0.319892
0.321725
0.324957
0.327918
0.334143
0.351316
0.368192
0.391209
0.458538
0.49358
0.501626
0.524642
0.543176
0.545957
0.543056
0.532352
0.529241
0.532758
0.555607
0.60378
0.646233
0.337092
0.317612
0.318269
0.319045
0.319892
0.321718
0.324958
0.327917
0.334132
0.351278
0.368161
0.391145
0.458364
0.493434
0.501469
0.524468
0.543003
0.545775
0.542857
0.53209
0.528921
0.532488
0.555371
0.603567
0.646076
0.337092
0.317611
0.31827
0.319045
0.319891
0.321724
0.324958
0.327916
0.334138
0.351309
0.368184
0.391209
0.458528
0.493558
0.501652
0.524728
0.543216
0.545973
0.543064
0.532373
0.529292
0.532806
0.555672
0.603853
0.646301
0.337092
0.317611
0.318269
0.319044
0.31989
0.321722
0.324956
0.327914
0.334134
0.351299
0.368171
0.391202
0.458535
0.493538
0.501644
0.524742
0.543216
0.545965
0.543051
0.532356
0.529283
0.532801
0.555683
0.603869
0.64631
0.337092
0.317612
0.318269
0.319045
0.319891
0.321718
0.324959
0.327918
0.334133
0.351286
0.368167
0.391151
0.458388
0.493409
0.501441
0.524425
0.542966
0.545755
0.542845
0.532088
0.528927
0.532498
0.555386
0.603564
0.646059
0.337091
0.31761
0.318269
0.319044
0.319889
0.32172
0.324955
0.327913
0.334132
0.351297
0.368169
0.391205
0.458571
0.493533
0.501634
0.524722
0.54319
0.545938
0.543023
0.53233
0.529267
0.532788
0.555686
0.603874
0.646304
0.337092
0.31761
0.31827
0.319044
0.31989
0.321722
0.324956
0.327914
0.334134
0.3513
0.368175
0.391203
0.458534
0.493554
0.501655
0.524739
0.543219
0.545972
0.54306
0.53237
0.529297
0.532811
0.555684
0.603869
0.646314
0.337092
0.317611
0.318268
0.319044
0.31989
0.321714
0.324959
0.327915
0.334125
0.351265
0.36815
0.391153
0.458402
0.493421
0.501503
0.524554
0.543019
0.545765
0.542837
0.53209
0.52897
0.532538
0.555467
0.603675
0.646157
0.337092
0.31761
0.318269
0.319044
0.31989
0.321722
0.324954
0.327913
0.334134
0.351299
0.368175
0.3912
0.458551
0.49358
0.501633
0.524658
0.543181
0.545953
0.543046
0.532338
0.529236
0.532754
0.555618
0.603801
0.64625
0.337092
0.317611
0.318268
0.319044