/*--------------------------------*- C++ -*----------------------------------*\
| =========                 |                                                 |
| \\      /  F ield         | OpenFOAM: The Open Source CFD Toolbox           |
|  \\    /   O peration     | Version:  4.1                                   |
|   \\  /    A nd           | Web:      www.OpenFOAM.org                      |
|    \\/     M anipulation  |                                                 |
\*---------------------------------------------------------------------------*/
FoamFile
{
    version     2.0;
    format      ascii;
    class       volVectorField;
    location    "0.36";
    object      U;
}
// * * * * * * * * * * * * * * * * * * * * * * * * * * * * * * * * * * * * * //

dimensions      [0 1 -1 0 0 0 0];

internalField   nonuniform List<vector> 
52500
(
(1.81992 -8.54363e-08 -0.00216464)
(1.84652 -2.40015e-07 -0.0019685)
(1.84563 -4.53872e-07 -0.00197173)
(1.84428 -7.95032e-07 -0.00197605)
(1.84216 -1.44355e-06 -0.00198104)
(1.83879 -2.49334e-06 -0.00199317)
(1.83321 6.49064e-06 -0.00201403)
(1.82306 4.29676e-05 -0.00206003)
(1.80174 0.000165786 -0.00217144)
(1.74374 0.000606401 -0.00250251)
(1.51727 0.00252371 -0.00378206)
(0.52588 0.0123475 -0.00822095)
(-0.625554 0.0370915 -0.011721)
(-0.66513 0.031462 -0.00941511)
(-0.516306 0.0308495 -0.00970623)
(-0.465946 0.0316025 -0.0107961)
(-0.440596 0.0334467 -0.0111424)
(-0.412661 0.0347816 -0.010738)
(-0.386788 0.0358945 -0.0103712)
(-0.359507 0.0368407 -0.0102522)
(-0.319961 0.0373309 -0.0101253)
(-0.262368 0.037271 -0.00999296)
(-0.198231 0.0372207 -0.00989634)
(-0.15507 0.0381001 -0.00976157)
(0.00964633 0.037893 -0.00927871)
(1.81992 -1.43314e-07 -0.00216464)
(1.84652 -5.00764e-07 -0.0019685)
(1.84563 -9.586e-07 -0.00197173)
(1.84428 -1.79146e-06 -0.00197605)
(1.84216 -3.68058e-06 -0.00198103)
(1.83879 -8.10387e-06 -0.0019931)
(1.83324 2.37972e-05 -0.0020137)
(1.82319 0.00013122 -0.00205887)
(1.80223 0.000499676 -0.0021678)
(1.74585 0.00180795 -0.00248885)
(1.52833 0.00748079 -0.00371617)
(0.564672 0.0360362 -0.00804059)
(-0.60953 0.106677 -0.0116696)
(-0.664442 0.0844617 -0.00938303)
(-0.511652 0.078451 -0.00963522)
(-0.459493 0.0786703 -0.0107183)
(-0.434236 0.0817379 -0.0110953)
(-0.406593 0.083663 -0.010699)
(-0.380784 0.086383 -0.0103184)
(-0.354312 0.0894609 -0.0101952)
(-0.316384 0.0921136 -0.0100611)
(-0.260282 0.0933528 -0.0099283)
(-0.196555 0.093967 -0.00983099)
(-0.154643 0.0960755 -0.00969707)
(0.0102902 0.0945059 -0.00920546)
(1.81992 -2.05102e-07 -0.00216464)
(1.84652 -9.44194e-07 -0.00196851)
(1.84563 -1.88127e-06 -0.00197174)
(1.84428 -3.74487e-06 -0.00197607)
(1.84215 -7.92184e-06 -0.00198105)
(1.83881 -1.98025e-05 -0.00199293)
(1.83332 3.56193e-05 -0.00201328)
(1.82346 0.000207714 -0.00205668)
(1.8032 0.000787444 -0.00216061)
(1.74998 0.00286323 -0.00246251)
(1.55005 0.011721 -0.00358996)
(0.645738 0.0556694 -0.00770228)
(-0.576219 0.181218 -0.011623)
(-0.666113 0.144759 -0.00936746)
(-0.505515 0.132173 -0.0095488)
(-0.449677 0.133121 -0.0106105)
(-0.424004 0.138321 -0.0110416)
(-0.396822 0.141446 -0.0106647)
(-0.370946 0.146206 -0.0102655)
(-0.345384 0.151911 -0.0101383)
(-0.309577 0.15722 -0.00999685)
(-0.255942 0.160096 -0.00986183)
(-0.193054 0.161653 -0.00976384)
(-0.153596 0.16529 -0.00962824)
(0.011552 0.162387 -0.00912835)
(1.81992 -2.39574e-07 -0.00216464)
(1.84652 -1.1666e-06 -0.00196851)
(1.84563 -2.37454e-06 -0.00197173)
(1.84427 -5.11519e-06 -0.00197611)
(1.84214 -1.15137e-05 -0.00198109)
(1.83883 -3.19294e-05 -0.00199262)
(1.83343 4.55978e-05 -0.00201311)
(1.82383 0.000254134 -0.00205349)
(1.80454 0.000966901 -0.00215039)
(1.7556 0.00356739 -0.00242535)
(1.57919 0.0143902 -0.00341789)
(0.762184 0.0677214 -0.00719651)
(-0.513366 0.248791 -0.0115461)
(-0.666141 0.207881 -0.00937925)
(-0.498567 0.185534 -0.00945142)
(-0.435809 0.186067 -0.0104646)
(-0.409239 0.19332 -0.0109757)
(-0.382406 0.198624 -0.0106362)
(-0.355931 0.206004 -0.0102067)
(-0.33147 0.214695 -0.0100733)
(-0.298908 0.222925 -0.00992122)
(-0.248978 0.227781 -0.00978111)
(-0.18731 0.230649 -0.00968368)
(-0.151586 0.236324 -0.00954493)
(0.0138617 0.232257 -0.00902756)
(1.81992 2.50934e-08 -0.00216465)
(1.84652 8.28447e-07 -0.00196852)
(1.84563 1.48078e-06 -0.00197174)
(1.84427 2.18658e-06 -0.00197617)
(1.84213 2.80972e-06 -0.00198112)
(1.83886 9.54171e-07 -0.00199244)
(1.83356 5.63835e-05 -0.00201305)
(1.82424 0.000216265 -0.00204958)
(1.80608 0.000963572 -0.00213835)
(1.76195 0.00379195 -0.00238347)
(1.61147 0.0151786 -0.00322469)
(0.907958 0.0713688 -0.00654157)
(-0.414159 0.30228 -0.0113618)
(-0.662447 0.275765 -0.00948465)
(-0.492552 0.238785 -0.00933313)
(-0.41917 0.237561 -0.0102501)
(-0.390723 0.246656 -0.0108886)
(-0.363785 0.254865 -0.010613)
(-0.336621 0.265046 -0.0101456)
(-0.313445 0.276227 -0.00999991)
(-0.28439 0.287304 -0.00984446)
(-0.238812 0.294868 -0.00970491)
(-0.178526 0.299511 -0.00960108)
(-0.148504 0.308032 -0.00944897)
(0.016958 0.303413 -0.00892145)
(1.81992 4.49173e-08 -0.00216464)
(1.84652 1.50654e-06 -0.00196849)
(1.84563 3.06369e-06 -0.00197176)
(1.84427 6.21417e-06 -0.00197607)
(1.84214 1.29818e-05 -0.00198106)
(1.83887 3.1573e-05 -0.0019928)
(1.83362 3.61715e-05 -0.0020123)
(1.8246 0.000128264 -0.0020444)
(1.80766 0.000874336 -0.00212529)
(1.76827 0.00373391 -0.00234235)
(1.64288 0.0147907 -0.00303825)
(1.07641 0.0685183 -0.00575433)
(-0.266568 0.332256 -0.0108909)
(-0.650104 0.350494 -0.0097552)
(-0.492513 0.29173 -0.00920875)
(-0.40191 0.287538 -0.0100057)
(-0.368554 0.298252 -0.0107918)
(-0.340696 0.310509 -0.0106029)
(-0.312972 0.323612 -0.0100831)
(-0.291215 0.33769 -0.00991199)
(-0.265485 0.351872 -0.00975068)
(-0.224715 0.363275 -0.00960582)
(-0.16572 0.370514 -0.00950164)
(-0.143474 0.383661 -0.00934874)
(0.0214898 0.380569 -0.00880582)
(1.81992 -4.17213e-07 -0.00216465)
(1.84652 -3.30361e-07 -0.00196848)
(1.84563 -7.35093e-08 -0.00197179)
(1.84428 1.01729e-06 -0.001976)
(1.84215 4.3558e-06 -0.001981)
(1.83888 1.52198e-05 -0.00199287)
(1.83364 1.32589e-06 -0.00201193)
(1.82495 6.93778e-05 -0.00204007)
(1.80922 0.000789875 -0.00211291)
(1.7743 0.00350652 -0.00230148)
(1.67171 0.0136968 -0.00286643)
(1.24476 0.0620639 -0.00505502)
(-0.0559094 0.32395 -0.0100601)
(-0.619292 0.430112 -0.0100689)
(-0.500214 0.344059 -0.00906167)
(-0.384045 0.335859 -0.00972273)
(-0.342729 0.347731 -0.0106659)
(-0.31292 0.365185 -0.0106013)
(-0.284896 0.381249 -0.0100375)
(-0.26451 0.39887 -0.00981803)
(-0.241552 0.416814 -0.0096556)
(-0.205593 0.433429 -0.00950057)
(-0.146858 0.444116 -0.00938455)
(-0.134454 0.464956 -0.00923113)
(0.0287424 0.466154 -0.00861728)
(1.81992 1.21477e-08 -0.00216465)
(1.84652 -4.63087e-07 -0.00196847)
(1.84563 -8.72379e-07 -0.0019718)
(1.84428 -1.25225e-06 -0.00197598)
(1.84215 -1.74743e-06 -0.00198098)
(1.83887 -2.78349e-06 -0.00199268)
(1.83366 -6.71582e-06 -0.0020126)
(1.82526 2.67249e-05 -0.00203641)
(1.81063 0.000667337 -0.00210142)
(1.77968 0.00307599 -0.00226432)
(1.69693 0.0118301 -0.00271285)
(1.38979 0.0518983 -0.00434915)
(0.23747 0.267913 -0.00889111)
(-0.558996 0.508003 -0.0103278)
(-0.514909 0.399425 -0.00888874)
(-0.366261 0.383502 -0.00942876)
(-0.313617 0.395543 -0.0105082)
(-0.280576 0.418641 -0.0105876)
(-0.252164 0.437982 -0.0100116)
(-0.232814 0.45934 -0.00971913)
(-0.211681 0.482053 -0.00955542)
(-0.18061 0.506088 -0.00941118)
(-0.119537 0.521359 -0.00928304)
(-0.119154 0.553965 -0.00908763)
(0.0398532 0.566284 -0.00844519)
(1.81992 2.5262e-07 -0.00216465)
(1.84652 -2.35115e-07 -0.00196847)
(1.84563 -7.85227e-07 -0.00197181)
(1.84428 -1.42309e-06 -0.00197598)
(1.84215 -2.61959e-06 -0.00198099)
(1.83887 -6.63402e-06 -0.00199272)
(1.83367 7.2204e-06 -0.00201267)
(1.82551 1.25725e-05 -0.00203328)
(1.81183 0.000520959 -0.00209208)
(1.78413 0.00251331 -0.00223474)
(1.71657 0.00958514 -0.00258708)
(1.4968 0.0398154 -0.00374717)
(0.582971 0.191041 -0.00751065)
(-0.450473 0.562647 -0.0106038)
(-0.529991 0.466281 -0.00884192)
(-0.351853 0.431203 -0.00914137)
(-0.282691 0.442466 -0.0102673)
(-0.244479 0.470751 -0.0105484)
(-0.215066 0.493399 -0.0100165)
(-0.195914 0.518662 -0.00963394)
(-0.174397 0.546784 -0.00945721)
(-0.148514 0.580782 -0.00929846)
(-0.0804076 0.603451 -0.00914232)
(-0.0916426 0.650199 -0.00896588)
(0.0593024 0.685439 -0.0081132)
(1.81992 -5.67925e-07 -0.00216465)
(1.84652 -7.71563e-07 -0.00196847)
(1.84563 -1.13735e-06 -0.0019718)
(1.84428 -1.48224e-06 -0.00197597)
(1.84215 -1.18191e-06 -0.00198099)
(1.83888 -2.5877e-06 -0.00199274)
(1.83368 1.71631e-05 -0.00201242)
(1.82569 3.34689e-05 -0.00203214)
(1.81275 0.000323265 -0.00208461)
(1.78764 0.00182726 -0.00221)
(1.73117 0.00738896 -0.00249045)
(1.57058 0.0292215 -0.00331108)
(0.910319 0.134976 -0.00614944)
(-0.256904 0.553353 -0.0101573)
(-0.524225 0.547078 -0.00902944)
(-0.348506 0.478306 -0.0089051)
(-0.25113 0.486823 -0.00990869)
(-0.206249 0.519584 -0.0104647)
(-0.173918 0.545954 -0.0100675)
(-0.153586 0.576011 -0.00956914)
(-0.128821 0.609818 -0.00935309)
(-0.108011 0.655809 -0.00916315)
(-0.0264642 0.69262 -0.00897567)
(-0.0417452 0.75959 -0.00878393)
(0.0887936 0.868078 -0.00775708)
(1.81992 1.66611e-07 -2.41089e-09)
(1.84652 4.14218e-07 1.36559e-10)
(1.84563 7.69598e-07 4.13843e-10)
(1.84428 1.24096e-06 1.14051e-09)
(1.84215 1.76493e-06 2.52738e-09)
(1.83878 2.39013e-06 4.00147e-09)
(1.8332 1.35702e-05 2.81063e-09)
(1.82305 5.31215e-05 -1.10589e-08)
(1.80172 0.000180225 -5.42526e-08)
(1.74368 0.000628214 -2.30127e-07)
(1.51701 0.0025602 -1.11859e-06)
(0.524946 0.0124421 -4.86393e-06)
(-0.625748 0.0372188 -1.77317e-06)
(-0.664838 0.0315573 1.37657e-06)
(-0.516029 0.0309458 7.22699e-07)
(-0.465853 0.0316412 5.69378e-07)
(-0.440635 0.0334573 4.02075e-07)
(-0.412733 0.0347874 2.15837e-07)
(-0.386858 0.0358936 2.05853e-07)
(-0.359569 0.0368373 2.32839e-07)
(-0.320007 0.0373269 2.86156e-07)
(-0.262401 0.037267 3.93618e-07)
(-0.198259 0.037217 4.92068e-07)
(-0.155081 0.0380982 5.31681e-07)
(0.00965349 0.037906 5.3717e-07)
(1.81992 1.22037e-07 -2.44445e-09)
(1.84652 1.66603e-08 4.72733e-11)
(1.84563 -1.45489e-07 2.8315e-10)
(1.84428 -5.56754e-07 9.29616e-10)
(1.84216 -1.87144e-06 2.2376e-09)
(1.83879 -5.2407e-06 3.80511e-09)
(1.83324 2.60204e-05 3.18473e-09)
(1.82319 0.000131141 -5.09854e-09)
(1.80222 0.000493248 -3.52951e-08)
(1.74581 0.00178288 -1.60499e-07)
(1.52815 0.00738387 -8.29386e-07)
(0.564013 0.0356139 -3.68508e-06)
(-0.608995 0.105897 -2.08211e-06)
(-0.663735 0.0844913 1.18996e-06)
(-0.511154 0.0786395 6.75946e-07)
(-0.459331 0.0788118 5.27313e-07)
(-0.434276 0.0818186 3.71784e-07)
(-0.406677 0.0837024 2.33504e-07)
(-0.380868 0.0863907 2.30529e-07)
(-0.354382 0.0894594 2.48039e-07)
(-0.316436 0.0921115 2.94831e-07)
(-0.260323 0.0933503 3.95357e-07)
(-0.196592 0.0939588 4.87781e-07)
(-0.154652 0.096059 5.21606e-07)
(0.0103083 0.0945164 5.23215e-07)
(1.81992 1.39935e-07 -1.27762e-09)
(1.84652 1.1825e-07 3.29199e-09)
(1.84563 9.16157e-08 3.70727e-09)
(1.84428 -5.15843e-07 4.73782e-09)
(1.84215 -2.84708e-06 6.92084e-09)
(1.83881 -1.18452e-05 1.03698e-08)
(1.83331 4.63677e-05 9.57816e-09)
(1.82344 0.000221346 4.8871e-09)
(1.80316 0.000804203 -1.86366e-08)
(1.74985 0.00288064 -1.22161e-07)
(1.54942 0.0117193 -6.61147e-07)
(0.643381 0.0555426 -3.17608e-06)
(-0.578236 0.180949 -2.12945e-06)
(-0.666739 0.144975 1.0149e-06)
(-0.5062 0.132416 6.02394e-07)
(-0.450153 0.133234 4.10191e-07)
(-0.424246 0.138363 3.13106e-07)
(-0.39697 0.141466 2.77971e-07)
(-0.371054 0.146199 2.51041e-07)
(-0.345456 0.1519 2.58799e-07)
(-0.30962 0.157213 3.05619e-07)
(-0.255969 0.160092 3.98973e-07)
(-0.193077 0.161643 4.82406e-07)
(-0.153593 0.165268 5.02133e-07)
(0.0115537 0.162397 5.06289e-07)
(1.81992 2.72313e-08 -1.91483e-09)
(1.84652 -4.09783e-07 2.29516e-09)
(1.84563 -1.02713e-06 2.68558e-09)
(1.84428 -2.95305e-06 3.63316e-09)
(1.84215 -8.11802e-06 5.38383e-09)
(1.83883 -2.65405e-05 9.33824e-09)
(1.83344 5.29454e-05 9.06474e-09)
(1.82383 0.000264501 6.07905e-09)
(1.80454 0.000982425 -6.64585e-09)
(1.75555 0.00359151 -7.38806e-08)
(1.57885 0.0144364 -4.53828e-07)
(0.760663 0.067831 -2.2406e-06)
(-0.513682 0.248577 -2.65117e-06)
(-0.666006 0.207868 1.13548e-06)
(-0.498868 0.185655 7.10076e-07)
(-0.436219 0.18608 2.81921e-07)
(-0.409497 0.193256 1.54602e-07)
(-0.382567 0.198574 2.19703e-07)
(-0.356047 0.205962 2.42157e-07)
(-0.331535 0.214664 2.74985e-07)
(-0.298936 0.222905 3.05437e-07)
(-0.248989 0.227771 3.94037e-07)
(-0.187322 0.230637 4.72973e-07)
(-0.151574 0.236299 4.75239e-07)
(0.0138453 0.232271 4.86533e-07)
(1.81992 9.85851e-08 8.7742e-10)
(1.84652 1.37661e-06 6.82934e-09)
(1.84563 2.62253e-06 7.19012e-09)
(1.84427 4.00603e-06 8.33568e-09)
(1.84213 5.49976e-06 1.16266e-08)
(1.83886 4.50335e-06 1.63234e-08)
(1.83356 6.3427e-05 1.34954e-08)
(1.82423 0.000230252 4.02065e-09)
(1.80605 0.000988283 -1.66693e-08)
(1.76184 0.00383856 -9.2863e-08)
(1.61093 0.0152874 -4.93508e-07)
(0.905371 0.0716967 -2.96458e-06)
(-0.416853 0.303031 -2.93346e-06)
(-0.66345 0.275903 1.8471e-06)
(-0.493461 0.238637 6.57855e-07)
(-0.419926 0.237294 3.17398e-07)
(-0.391062 0.246409 9.2035e-08)
(-0.36393 0.254716 8.33814e-08)
(-0.33672 0.264949 1.53598e-07)
(-0.313492 0.276167 2.44788e-07)
(-0.284399 0.287267 2.89538e-07)
(-0.238806 0.294846 3.74293e-07)
(-0.178528 0.299492 4.65922e-07)
(-0.148483 0.308006 4.5153e-07)
(0.016933 0.303437 4.6004e-07)
(1.81992 -5.24315e-08 -8.75038e-10)
(1.84653 1.93453e-06 3.67308e-09)
(1.84564 4.1651e-06 3.94447e-09)
(1.84428 8.08285e-06 4.72867e-09)
(1.84215 1.59796e-05 6.99619e-09)
(1.83888 3.54047e-05 1.07429e-08)
(1.83363 4.41642e-05 7.7482e-09)
(1.82462 0.000146483 3.03927e-10)
(1.80768 0.000910358 -1.5863e-08)
(1.76828 0.00381127 -7.26607e-08)
(1.64279 0.0149985 -4.00912e-07)
(1.07555 0.0692715 -2.12448e-06)
(-0.266583 0.334262 -5.08334e-06)
(-0.649824 0.35099 2.62001e-06)
(-0.492526 0.291478 3.26918e-07)
(-0.402152 0.287187 1.93013e-07)
(-0.368651 0.297902 -1.01684e-07)
(-0.340739 0.310262 -4.92423e-08)
(-0.313024 0.323459 4.91455e-08)
(-0.291225 0.337604 1.68519e-07)
(-0.265469 0.351821 2.68024e-07)
(-0.224692 0.363241 3.50062e-07)
(-0.165713 0.370488 4.42964e-07)
(-0.143441 0.383636 4.26905e-07)
(0.0214645 0.380599 4.41278e-07)
(1.81992 1.62827e-10 5.80712e-10)
(1.84652 3.95271e-07 1.00409e-08)
(1.84564 9.62177e-07 1.02737e-08)
(1.84428 2.49413e-06 1.16199e-08)
(1.84215 6.55496e-06 1.78576e-08)
(1.83888 1.84398e-05 2.52462e-08)
(1.83365 4.72956e-06 -6.4445e-09)
(1.82496 7.44155e-05 -9.29752e-09)
(1.80924 0.000797989 4.91702e-08)
(1.77434 0.00352367 1.10678e-07)
(1.6718 0.0137468 9.59633e-08)
(1.24509 0.0622992 -4.29453e-07)
(-0.0548383 0.324994 -1.52759e-06)
(-0.618313 0.430523 1.42602e-06)
(-0.499508 0.343908 6.14777e-07)
(-0.383648 0.335549 5.32428e-09)
(-0.342589 0.347394 -2.37955e-07)
(-0.312844 0.364898 -3.20589e-07)
(-0.28486 0.381077 -1.56464e-07)
(-0.264467 0.39877 5.58433e-08)
(-0.241507 0.416754 2.11599e-07)
(-0.205551 0.433387 2.94796e-07)
(-0.14684 0.444084 4.17519e-07)
(-0.134411 0.464932 4.10006e-07)
(0.0287179 0.466186 4.00297e-07)
(1.81992 2.58726e-07 8.01104e-10)
(1.84653 2.74901e-07 7.17158e-09)
(1.84564 5.06949e-07 7.42809e-09)
(1.84428 1.09204e-06 8.61522e-09)
(1.84216 2.17227e-06 1.34671e-08)
(1.83888 3.94034e-06 2.09879e-08)
(1.83368 3.46454e-06 -9.49693e-09)
(1.82528 3.87249e-05 1.805e-08)
(1.81066 0.00068063 5.80732e-08)
(1.77973 0.00309434 1.01312e-07)
(1.69702 0.0118571 1.22415e-07)
(1.38998 0.0519359 -6.46402e-08)
(0.237661 0.267982 -1.41717e-06)
(-0.558917 0.50819 1.70444e-06)
(-0.514683 0.399386 4.03107e-07)
(-0.366029 0.383206 -2.76117e-07)
(-0.313462 0.395253 -2.85983e-07)
(-0.280436 0.418395 -4.49615e-07)
(-0.252059 0.43783 -2.8747e-07)
(-0.232726 0.459239 -8.85449e-08)
(-0.211607 0.481991 1.09643e-07)
(-0.180549 0.506039 2.37052e-07)
(-0.119509 0.521321 3.76806e-07)
(-0.119099 0.553939 3.87597e-07)
(0.0398317 0.566319 3.63004e-07)
(1.81992 1.3481e-07 2.05106e-09)
(1.84653 1.26498e-07 1.53671e-08)
(1.84564 1.71926e-07 1.64081e-08)
(1.84428 3.81516e-07 1.96412e-08)
(1.84216 6.94729e-07 2.87845e-08)
(1.83888 -5.8158e-07 4.30543e-08)
(1.83368 1.71494e-05 2.25434e-08)
(1.82553 2.43433e-05 7.54375e-08)
(1.81186 0.000536249 1.09154e-07)
(1.78418 0.00253869 1.21532e-07)
(1.71667 0.00963308 1.71015e-07)
(1.497 0.0398965 1.43148e-07)
(0.583324 0.191131 -4.3084e-07)
(-0.450396 0.562854 -7.03037e-07)
(-0.529911 0.466276 5.29389e-08)
(-0.351744 0.430979 -6.25303e-07)
(-0.282539 0.44222 -3.08344e-07)
(-0.244306 0.470555 -4.49532e-07)
(-0.21492 0.493268 -3.61882e-07)
(-0.195796 0.518572 -2.20612e-07)
(-0.174298 0.546725 -7.91606e-09)
(-0.148436 0.580733 1.44924e-07)
(-0.0803672 0.603411 3.40949e-07)
(-0.0915783 0.650168 3.59556e-07)
(0.0592838 0.685477 3.15981e-07)
(1.81992 -1.30445e-07 -4.13727e-10)
(1.84653 6.20235e-08 1.35293e-08)
(1.84564 1.67623e-07 1.50359e-08)
(1.84428 3.65506e-07 1.95185e-08)
(1.84216 1.11665e-06 3.03214e-08)
(1.8389 -2.86259e-08 4.66215e-08)
(1.8337 2.12516e-05 4.6498e-08)
(1.82572 4.02144e-05 7.3761e-08)
(1.81279 0.00033251 9.1679e-08)
(1.78772 0.00183637 1.25021e-07)
(1.73131 0.00739436 2.53767e-07)
(1.57084 0.0292167 5.63031e-07)
(0.911084 0.134956 1.34969e-06)
(-0.25648 0.553426 2.18807e-06)
(-0.523976 0.54715 -1.06021e-06)
(-0.348304 0.478199 -2.4116e-07)
(-0.250919 0.486632 -1.60186e-07)
(-0.206028 0.519433 -2.82031e-07)
(-0.173736 0.545848 -4.86122e-07)
(-0.153444 0.575936 -3.39027e-07)
(-0.128702 0.609766 -1.16448e-07)
(-0.107919 0.655764 7.75261e-08)
(-0.026417 0.692578 2.82003e-07)
(-0.041669 0.759558 3.37402e-07)
(0.0887777 0.868114 2.91322e-07)
(1.81992 -8.64257e-08 4.09997e-09)
(1.84652 -2.40747e-07 1.08137e-08)
(1.84564 -4.51031e-07 1.14323e-08)
(1.84428 -7.88932e-07 1.29138e-08)
(1.84216 -1.43706e-06 1.5645e-08)
(1.83879 -2.52078e-06 1.95238e-08)
(1.83321 6.55573e-06 2.37036e-08)
(1.82306 4.34058e-05 2.50044e-08)
(1.80173 0.000166942 2.37396e-08)
(1.7437 0.000610483 -9.73121e-09)
(1.51698 0.00254155 -2.05767e-07)
(0.524816 0.0124443 -9.69417e-07)
(-0.626093 0.0372215 1.40336e-06)
(-0.665207 0.0314744 1.38568e-06)
(-0.516511 0.0308303 6.4669e-08)
(-0.466106 0.0315635 -1.222e-07)
(-0.440683 0.033419 -3.94363e-07)
(-0.41271 0.0347666 -4.25927e-07)
(-0.386816 0.0358862 -3.39848e-07)
(-0.359521 0.0368371 -3.35919e-07)
(-0.319965 0.0373278 -2.19898e-07)
(-0.262373 0.0372678 -8.60031e-08)
(-0.198244 0.0372175 5.84689e-09)
(-0.155073 0.0380987 4.26761e-08)
(0.00965653 0.0379063 5.77356e-08)
(1.81992 1.00059e-08 3.05647e-09)
(1.84652 -2.35752e-08 9.02854e-09)
(1.84563 -8.14521e-08 9.58848e-09)
(1.84428 -3.89896e-07 1.09668e-08)
(1.84216 -1.53673e-06 1.36267e-08)
(1.8388 -4.85489e-06 1.76116e-08)
(1.83325 2.84541e-05 2.29361e-08)
(1.82319 0.000138146 2.87999e-08)
(1.80223 0.000510325 4.01346e-08)
(1.74582 0.00182684 4.3879e-08)
(1.52812 0.0075255 -3.17513e-08)
(0.563822 0.0361983 -6.60239e-07)
(-0.609686 0.106854 1.55695e-06)
(-0.664315 0.0844705 7.23475e-07)
(-0.511641 0.0784133 2.12867e-08)
(-0.459532 0.0786235 6.27983e-09)
(-0.434266 0.0817078 -3.43864e-07)
(-0.406624 0.0836528 -4.17122e-07)
(-0.38081 0.0863786 -3.62605e-07)
(-0.354328 0.0894624 -3.33822e-07)
(-0.316394 0.0921171 -2.08149e-07)
(-0.260296 0.0933542 -7.71544e-08)
(-0.196577 0.0939612 1.02431e-08)
(-0.154644 0.0960612 4.53136e-08)
(0.0103112 0.0945179 5.90052e-08)
(1.81992 -1.11919e-07 3.43369e-09)
(1.84652 -6.08785e-07 1.12288e-08)
(1.84564 -1.24994e-06 1.15678e-08)
(1.84428 -2.72861e-06 1.26128e-08)
(1.84216 -6.36679e-06 1.54697e-08)
(1.83881 -1.74016e-05 1.86946e-08)
(1.83333 3.89436e-05 3.46772e-08)
(1.82347 0.000212397 5.66462e-08)
(1.80321 0.000794665 1.47012e-07)
(1.74996 0.00287621 3.93062e-07)
(1.54989 0.0117535 1.34483e-06)
(0.644993 0.0557965 5.36489e-06)
(-0.57659 0.1814 1.21698e-06)
(-0.666067 0.14478 -1.24796e-06)
(-0.505521 0.132163 3.02634e-07)
(-0.449706 0.133099 -1.01289e-07)
(-0.424027 0.138297 -3.03723e-07)
(-0.396849 0.141434 -4.20622e-07)
(-0.370969 0.146201 -3.82817e-07)
(-0.345393 0.151913 -3.28307e-07)
(-0.309578 0.157225 -1.86396e-07)
(-0.255944 0.1601 -5.99359e-08)
(-0.193062 0.161649 1.92807e-08)
(-0.153585 0.165272 5.16027e-08)
(0.0115563 0.1624 6.28394e-08)
(1.81992 1.63444e-08 1.88153e-09)
(1.84652 -5.13166e-07 5.9844e-09)
(1.84563 -1.19687e-06 6.3466e-09)
(1.84427 -3.23583e-06 7.18823e-09)
(1.84214 -8.63466e-06 8.97705e-09)
(1.83883 -2.78245e-05 1.20163e-08)
(1.83344 5.19315e-05 2.02901e-08)
(1.82383 0.000263864 4.01918e-08)
(1.80455 0.000981323 9.33934e-08)
(1.7556 0.00358961 2.42657e-07)
(1.57909 0.0144296 8.08806e-07)
(0.761644 0.0678037 2.89985e-06)
(-0.5135 0.248876 3.11576e-06)
(-0.665976 0.207938 -1.26979e-06)
(-0.49847 0.185594 -5.45977e-09)
(-0.435792 0.186072 4.42097e-08)
(-0.409244 0.193289 -2.04025e-07)
(-0.382422 0.198596 -3.78636e-07)
(-0.355945 0.205993 -3.90625e-07)
(-0.33147 0.214694 -3.09936e-07)
(-0.298898 0.222926 -1.65195e-07)
(-0.248967 0.227784 -4.47895e-08)
(-0.187309 0.230645 2.92175e-08)
(-0.151567 0.236306 6.03283e-08)
(0.0138474 0.232275 6.9344e-08)
(1.81992 1.83691e-07 3.18987e-09)
(1.84652 1.17469e-06 8.7543e-09)
(1.84563 2.05619e-06 8.67278e-09)
(1.84427 3.03675e-06 8.9951e-09)
(1.84213 3.99001e-06 1.21681e-08)
(1.83886 2.39849e-06 1.2289e-08)
(1.83357 5.88923e-05 1.73242e-08)
(1.82425 0.000220482 3.64493e-08)
(1.8061 0.000969596 1.06811e-07)
(1.76196 0.00380056 3.13228e-07)
(1.61137 0.015191 1.07923e-06)
(0.907257 0.0713901 4.42192e-06)
(-0.414803 0.302278 4.32958e-06)
(-0.662599 0.275807 -2.75799e-06)
(-0.492642 0.238817 -1.04152e-07)
(-0.419296 0.237519 4.5971e-08)
(-0.390776 0.246583 -2.67281e-07)
(-0.363798 0.254817 -3.88323e-07)
(-0.336622 0.265021 -3.77787e-07)
(-0.313436 0.276216 -2.64307e-07)
(-0.28437 0.287298 -1.39185e-07)
(-0.238791 0.294865 -3.06587e-08)
(-0.178519 0.299504 4.01839e-08)
(-0.148477 0.308015 7.02373e-08)
(0.0169344 0.303443 7.72392e-08)
(1.81992 1.17283e-08 1.35427e-09)
(1.84653 1.86566e-06 3.78921e-09)
(1.84564 3.91033e-06 3.93866e-09)
(1.84428 7.63568e-06 4.5434e-09)
(1.84214 1.52616e-05 6.70413e-09)
(1.83888 3.47721e-05 9.08869e-09)
(1.83362 4.0705e-05 1.11147e-08)
(1.82461 0.000138473 1.93497e-08)
(1.80767 0.000893415 5.50961e-08)
(1.76827 0.00376976 1.92272e-07)
(1.64278 0.0148705 6.47724e-07)
(1.07565 0.0687598 2.43286e-06)
(-0.267344 0.332836 5.15401e-06)
(-0.650396 0.350691 -2.52122e-06)
(-0.492755 0.291736 -1.24889e-07)
(-0.402149 0.287485 -5.357e-08)
(-0.368621 0.298132 -3.19118e-07)
(-0.340691 0.31042 -4.33067e-07)
(-0.312962 0.32356 -3.13419e-07)
(-0.291194 0.337664 -2.05019e-07)
(-0.265456 0.351857 -1.06996e-07)
(-0.224685 0.363264 -1.49636e-08)
(-0.165709 0.370503 5.13296e-08)
(-0.143438 0.383646 8.12093e-08)
(0.0214651 0.380607 8.57522e-08)
(1.81992 -3.25576e-07 3.50147e-09)
(1.84653 -3.20423e-08 7.80254e-09)
(1.84564 4.23934e-07 8.06992e-09)
(1.84428 1.75728e-06 8.91329e-09)
(1.84216 5.55099e-06 1.17358e-08)
(1.83889 1.6915e-05 1.6697e-08)
(1.83366 3.36206e-06 3.70343e-09)
(1.82498 7.37995e-05 7.35e-09)
(1.80926 0.000797648 4.49098e-08)
(1.77436 0.0035219 1.11353e-07)
(1.67179 0.0137382 2.46637e-07)
(1.24478 0.0622233 6.93936e-07)
(-0.0556208 0.324549 1.56884e-06)
(-0.618995 0.430318 -7.04644e-07)
(-0.500021 0.344086 -1.77645e-07)
(-0.384025 0.335768 -1.46228e-07)
(-0.342745 0.34758 -3.55796e-07)
(-0.312881 0.365048 -3.11617e-07)
(-0.284849 0.381172 -2.49118e-07)
(-0.264467 0.398829 -1.5556e-07)
(-0.241511 0.416791 -7.69701e-08)
(-0.205553 0.433411 3.26993e-09)
(-0.146841 0.4441 6.34067e-08)
(-0.13441 0.464943 9.32923e-08)
(0.0287175 0.466194 9.3616e-08)
(1.81992 1.65861e-07 1.13614e-09)
(1.84653 3.71921e-08 3.88672e-09)
(1.84564 3.18317e-08 4.10331e-09)
(1.84428 2.79279e-07 4.68203e-09)
(1.84216 8.93764e-07 6.1984e-09)
(1.83888 2.12408e-06 8.96811e-09)
(1.83367 1.05003e-06 5.21902e-09)
(1.82527 3.55773e-05 1.1824e-08)
(1.81065 0.000676388 2.2189e-08)
(1.77971 0.00308917 3.41045e-08)
(1.69696 0.0118578 4.05247e-08)
(1.38972 0.0519747 -5.9575e-08)
(0.237097 0.268215 -1.03953e-06)
(-0.559169 0.508172 -2.52221e-07)
(-0.514937 0.399438 2.38955e-07)
(-0.366338 0.383302 9.89121e-09)
(-0.313626 0.395337 -2.13324e-07)
(-0.2805 0.41849 -2.12284e-07)
(-0.252075 0.437896 -2.07112e-07)
(-0.232745 0.459286 -1.2979e-07)
(-0.211625 0.482022 -4.82776e-08)
(-0.18056 0.50606 2.15955e-08)
(-0.119516 0.521337 7.40181e-08)
(-0.119101 0.553949 1.04629e-07)
(0.0398303 0.566326 1.00909e-07)
(1.81992 1.20848e-07 2.65227e-09)
(1.84653 1.08742e-07 7.40769e-09)
(1.84564 1.47808e-07 7.94002e-09)
(1.84428 3.9359e-07 9.28683e-09)
(1.84216 8.65541e-07 1.20626e-08)
(1.83889 1.15366e-07 1.74356e-08)
(1.83369 1.75467e-05 2.32295e-08)
(1.82554 2.46017e-05 3.64997e-08)
(1.81188 0.000536775 4.48158e-08)
(1.7842 0.0025409 4.07618e-08)
(1.71669 0.00964374 2.37882e-08)
(1.49694 0.0399462 -1.37976e-07)
(0.582968 0.191377 -8.74692e-07)
(-0.450512 0.563036 9.60579e-07)
(-0.529973 0.46628 8.33131e-07)
(-0.351884 0.430977 2.20778e-07)
(-0.28262 0.442232 1.68465e-08)
(-0.24434 0.470607 -1.76995e-07)
(-0.214941 0.493309 -1.97517e-07)
(-0.195823 0.518602 -1.12885e-07)
(-0.174323 0.546748 -3.0579e-08)
(-0.148451 0.58075 3.32015e-08)
(-0.080379 0.603425 8.16179e-08)
(-0.0915828 0.650178 1.12478e-07)
(0.0592814 0.685483 1.04325e-07)
(1.81992 -2.10334e-07 1.39747e-09)
(1.84653 -1.24368e-07 4.76187e-09)
(1.84564 -1.19204e-07 5.22724e-09)
(1.84428 -3.65462e-08 6.42594e-09)
(1.84216 5.28509e-07 8.78805e-09)
(1.83889 -7.8961e-07 1.31929e-08)
(1.83369 1.99557e-05 1.74125e-08)
(1.82571 3.76201e-05 2.32858e-08)
(1.81278 0.0003305 2.65527e-08)
(1.7877 0.00183637 2.53975e-08)
(1.73129 0.00739714 2.36945e-08)
(1.5708 0.0292345 -7.04757e-08)
(0.910951 0.135068 -6.77628e-07)
(-0.256379 0.553652 -1.1825e-06)
(-0.523876 0.547107 8.1718e-07)
(-0.34827 0.478171 2.22426e-07)
(-0.25088 0.486655 4.49255e-08)
(-0.206015 0.519472 -1.76481e-07)
(-0.173754 0.545878 -2.0332e-07)
(-0.153475 0.575953 -1.1975e-07)
(-0.12873 0.609782 -3.65658e-08)
(-0.107935 0.655778 3.05606e-08)
(-0.0264319 0.69259 7.97975e-08)
(-0.0416774 0.759567 1.13759e-07)
(0.0887743 0.868119 1.02888e-07)
(1.81992 -9.05965e-09 1.67462e-09)
(1.84652 -3.49136e-08 4.3202e-09)
(1.84564 -7.70009e-08 4.65036e-09)
(1.84428 -1.85954e-07 5.46004e-09)
(1.84216 -5.09101e-07 7.00001e-09)
(1.83879 -1.12e-06 9.55273e-09)
(1.83321 8.58948e-06 1.31617e-08)
(1.82306 4.63239e-05 1.74354e-08)
(1.80174 0.000171105 2.5876e-08)
(1.74371 0.00061655 3.96912e-08)
(1.51698 0.0025501 5.44328e-08)
(0.524775 0.0124547 -3.23328e-08)
(-0.626106 0.0372282 -1.46004e-07)
(-0.665189 0.0314875 2.5086e-08)
(-0.516498 0.0308476 9.1577e-08)
(-0.466117 0.0315689 6.51017e-08)
(-0.440694 0.033415 6.2402e-09)
(-0.412709 0.0347626 -6.16374e-08)
(-0.386804 0.035882 -1.10764e-07)
(-0.359506 0.036834 -1.15024e-07)
(-0.319953 0.0373261 -8.56685e-08)
(-0.262366 0.0372667 -8.10585e-08)
(-0.198241 0.0372168 -9.064e-08)
(-0.155071 0.0380983 -9.63859e-08)
(0.00965572 0.037906 -8.5754e-08)
(1.81992 -2.46935e-08 2.14157e-09)
(1.84652 -1.17564e-07 5.3024e-09)
(1.84564 -2.57096e-07 5.67003e-09)
(1.84428 -6.67325e-07 6.56053e-09)
(1.84216 -1.93741e-06 8.21906e-09)
(1.8388 -5.37686e-06 1.10501e-08)
(1.83325 2.7502e-05 1.44803e-08)
(1.8232 0.000136312 1.91155e-08)
(1.80224 0.000506922 2.53541e-08)
(1.74583 0.00182044 3.51303e-08)
(1.52813 0.00751065 2.09513e-08)
(0.56377 0.0361515 -1.76142e-07)
(-0.609674 0.106766 -2.52479e-07)
(-0.664271 0.0844598 1.1975e-07)
(-0.511614 0.0784397 1.14778e-07)
(-0.459541 0.0786326 2.05943e-08)
(-0.434278 0.0817026 -3.92091e-09)
(-0.406623 0.0836446 -6.44317e-08)
(-0.380799 0.0863683 -1.22206e-07)
(-0.354312 0.0894538 -1.33242e-07)
(-0.316381 0.0921115 -9.74825e-08)
(-0.260288 0.0933504 -8.69904e-08)
(-0.196574 0.0939587 -9.20572e-08)
(-0.154642 0.0960595 -9.18002e-08)
(0.0103105 0.0945168 -7.69359e-08)
(1.81992 -2.69143e-08 1.04671e-09)
(1.84652 -3.82413e-07 3.60082e-09)
(1.84564 -8.43629e-07 3.88546e-09)
(1.84428 -2.04609e-06 4.55193e-09)
(1.84216 -5.23297e-06 5.82678e-09)
(1.83882 -1.55065e-05 8.11001e-09)
(1.83333 4.14875e-05 9.92617e-09)
(1.82347 0.000215337 1.28463e-08)
(1.80321 0.000797794 1.44588e-08)
(1.74996 0.00287832 6.64073e-09)
(1.54986 0.0117468 -7.51978e-08)
(0.644822 0.0557356 -5.62532e-07)
(-0.576653 0.181276 -4.6232e-07)
(-0.666049 0.144869 4.4892e-07)
(-0.505553 0.132254 1.70479e-07)
(-0.449764 0.133117 -8.80614e-09)
(-0.424056 0.138282 -6.61982e-09)
(-0.396852 0.141418 -5.74978e-08)
(-0.370958 0.146181 -1.20276e-07)
(-0.345374 0.151896 -1.45219e-07)
(-0.309562 0.157215 -1.16752e-07)
(-0.255934 0.160093 -1.02088e-07)
(-0.193058 0.161644 -9.76318e-08)
(-0.153583 0.165269 -7.9669e-08)
(0.0115559 0.162398 -7.34873e-08)
(1.81992 -2.47314e-09 2.75351e-09)
(1.84652 -6.08584e-07 6.8426e-09)
(1.84563 -1.41729e-06 7.25092e-09)
(1.84428 -3.64003e-06 8.18334e-09)
(1.84215 -9.29216e-06 9.83031e-09)
(1.83884 -2.89028e-05 1.35038e-08)
(1.83344 5.04607e-05 1.47837e-08)
(1.82384 0.000261921 1.59887e-08)
(1.80455 0.000978132 1.4271e-08)
(1.7556 0.00358268 -1.78281e-08)
(1.57904 0.0144099 -2.19729e-07)
(0.761295 0.06772 -1.16424e-06)
(-0.513857 0.24866 -6.09827e-07)
(-0.66621 0.207953 1.3572e-06)
(-0.498745 0.18557 1.98608e-07)
(-0.436001 0.186021 -1.64541e-08)
(-0.409319 0.193234 9.91223e-09)
(-0.382433 0.198563 -4.84912e-08)
(-0.355935 0.205964 -1.08368e-07)
(-0.331446 0.214669 -1.68901e-07)
(-0.298877 0.22291 -1.36739e-07)
(-0.248954 0.227774 -1.1851e-07)
(-0.187303 0.230639 -1.08055e-07)
(-0.151564 0.236302 -6.49933e-08)
(0.0138474 0.232273 -7.46926e-08)
(1.81992 4.57469e-08 1.22502e-09)
(1.84652 1.1562e-06 3.32009e-09)
(1.84563 2.21589e-06 3.55273e-09)
(1.84427 3.36154e-06 4.13175e-09)
(1.84214 4.51923e-06 5.31346e-09)
(1.83886 2.90254e-06 7.90842e-09)
(1.83357 6.09131e-05 7.62976e-09)
(1.82425 0.000226639 5.23291e-09)
(1.80609 0.000983056 -3.68763e-09)
(1.76194 0.00383096 -4.95585e-08)
(1.61125 0.0152712 -3.10438e-07)
(0.906597 0.0716495 -1.85614e-06)
(-0.415715 0.302945 -1.70651e-06)
(-0.663108 0.275939 1.4659e-06)
(-0.493067 0.238647 -7.86795e-07)
(-0.41956 0.23734 -1.70353e-07)
(-0.390844 0.246467 -7.06423e-08)
(-0.363793 0.254758 -3.07066e-08)
(-0.336609 0.264981 -8.42426e-08)
(-0.313406 0.276185 -1.76192e-07)
(-0.284342 0.287278 -1.60975e-07)