/*--------------------------------*- C++ -*----------------------------------*\
| =========                 |                                                 |
| \\      /  F ield         | OpenFOAM: The Open Source CFD Toolbox           |
|  \\    /   O peration     | Version:  4.1                                   |
|   \\  /    A nd           | Web:      www.OpenFOAM.org                      |
|    \\/     M anipulation  |                                                 |
\*---------------------------------------------------------------------------*/
FoamFile
{
    version     2.0;
    format      ascii;
    class       volScalarField;
    location    "0.52";
    object      p;
}
// * * * * * * * * * * * * * * * * * * * * * * * * * * * * * * * * * * * * * //

dimensions      [1 -1 -2 0 0 0 0];

internalField   nonuniform List<scalar> 
52500
(
0.999994
0.999995
1
1.00001
1.00005
1.00012
1.00039
1.00082
1.00259
1.00535
1.01678
1.03364
1.11236
1.2296
1.82096
3.14273
7.97709
13.2886
11.8844
11.633
11.747
11.8963
11.847
11.8101
11.8846
0.999994
0.999995
1
1.00001
1.00005
1.00011
1.00038
1.00081
1.00255
1.00526
1.01649
1.03314
1.11024
1.22583
1.80339
3.09042
7.80156
13.2997
11.9016
11.6387
11.7443
11.8859
11.8412
11.8075
11.8842
0.999994
0.999995
1
1.00001
1.00005
1.00011
1.00036
1.00077
1.00245
1.00507
1.01591
1.0321
1.10602
1.21788
1.7684
2.97934
7.4154
13.3054
11.9274
11.6301
11.716
11.8375
11.805
11.7748
11.8588
0.999994
0.999995
0.999999
1.00001
1.00004
1.0001
1.00034
1.00072
1.0023
1.00477
1.01506
1.0305
1.10043
1.20563
1.7238
2.825
6.86336
13.2833
11.9621
11.6048
11.6558
11.7422
11.7382
11.7097
11.807
0.999994
0.999994
0.999999
1.00001
1.00004
1.00009
1.00031
1.00065
1.0021
1.00436
1.01395
1.02825
1.09401
1.18993
1.6775
2.66657
6.28145
13.1788
11.9723
11.5473
11.5519
11.6087
11.6443
11.6198
11.7308
0.999993
0.999994
0.999998
1
1.00003
1.00008
1.00027
1.00057
1.00187
1.00383
1.01263
1.02505
1.08695
1.17069
1.62744
2.523
5.82624
12.8009
11.9293
11.4636
11.4055
11.4375
11.5008
11.4888
11.6191
0.999993
0.999994
0.999997
1
1.00003
1.00007
1.00024
1.0005
1.00163
1.00328
1.01119
1.02115
1.07891
1.14753
1.5694
2.36327
5.36709
12.2505
11.8568
11.3108
11.2091
11.2224
11.3044
11.3027
11.4347
0.999993
0.999993
0.999996
1
1.00002
1.00006
1.00021
1.00044
1.00141
1.00281
1.00965
1.01769
1.06911
1.12483
1.4984
2.19151
4.86652
11.5214
11.6879
11.2509
11.0136
10.9702
11.0535
11.0354
11.1398
0.999992
0.999993
0.999995
1
1.00002
1.00005
1.00018
1.00037
1.00119
1.00242
1.00808
1.01481
1.05842
1.10157
1.42484
1.98509
4.33719
10.441
11.6735
11.157
10.7862
10.6775
10.7184
10.6332
10.64
0.999991
0.999992
0.999993
0.999995
1.00001
1.00003
1.00012
1.00026
1.00089
1.0017
1.00637
1.01082
1.04708
1.0788
1.34713
1.77908
3.73928
9.02366
11.7115
11.0897
10.5483
10.3423
10.2709
10.039
9.72007
1
1
1.00001
1.00002
1.00006
1.00012
1.0004
1.00083
1.0026
1.00536
1.01679
1.03366
1.11239
1.22968
1.82114
3.14349
7.97906
13.288
11.884
11.6327
11.7468
11.8964
11.8472
11.8102
11.8845
1
1
1.00001
1.00002
1.00006
1.00012
1.00039
1.00082
1.00256
1.00527
1.01651
1.03316
1.11027
1.2259
1.80355
3.09116
7.80349
13.2992
11.9012
11.6384
11.7442
11.886
11.8413
11.8076
11.884
1
1
1.00001
1.00002
1.00006
1.00012
1.00037
1.00078
1.00246
1.00508
1.01592
1.03212
1.10605
1.21797
1.76851
2.98004
7.4172
13.3049
11.9271
11.6298
11.7158
11.8376
11.8052
11.7748
11.8587
1
1
1.00001
1.00002
1.00005
1.00011
1.00035
1.00073
1.00231
1.00478
1.01507
1.03052
1.10046
1.20572
1.72387
2.8256
6.86488
13.283
11.9617
11.6046
11.6557
11.7423
11.7383
11.7097
11.8068
1
1
1.00001
1.00001
1.00005
1.0001
1.00032
1.00066
1.00211
1.00437
1.01397
1.02827
1.09403
1.19
1.67757
2.66693
6.28233
13.1789
11.9721
11.5472
11.5519
11.6088
11.6444
11.6198
11.7306
1
1
1.00001
1.00001
1.00004
1.00009
1.00028
1.00058
1.00188
1.00384
1.01264
1.02508
1.08696
1.17077
1.6275
2.52327
5.82688
12.8015
11.9293
11.4635
11.4056
11.4376
11.5009
11.4888
11.6189
1
1
1.00001
1.00001
1.00004
1.00008
1.00025
1.00051
1.00164
1.00329
1.01121
1.02117
1.07893
1.1476
1.56947
2.36354
5.36766
12.2511
11.8566
11.3108
11.2092
11.2224
11.3044
11.3027
11.4345
1
1
1
1.00001
1.00003
1.00007
1.00022
1.00045
1.00142
1.00283
1.00966
1.01772
1.06913
1.1249
1.49848
2.19178
4.8671
11.5223
11.6877
11.2507
11.0136
10.9702
11.0535
11.0354
11.1396
1
1
1
1.00001
1.00003
1.00006
1.00019
1.00038
1.0012
1.00243
1.00809
1.01483
1.05844
1.10163
1.42491
1.9854
4.33773
10.4422
11.6731
11.1569
10.7862
10.6774
10.7183
10.6331
10.6398
1
1
1
1
1.00002
1.00004
1.00013
1.00027
1.0009
1.00171
1.00638
1.01084
1.04711
1.07885
1.34722
1.77937
3.73998
9.02542
11.711
11.0895
10.5482
10.3422
10.2708
10.0389
9.71992
1
1
1.00001
1.00002
1.00006
1.00012
1.0004
1.00083
1.0026
1.00536
1.01679
1.03366
1.11239
1.22967
1.82112
3.14343
7.97888
13.2881
11.884
11.6328
11.7469
11.8964
11.8472
11.8102
11.8845
1
1
1.00001
1.00002
1.00006
1.00012
1.00039
1.00082
1.00256
1.00527
1.01651
1.03315
1.11027
1.2259
1.80353
3.09111
7.80331
13.2992
11.9012
11.6385
11.7442
11.886
11.8414
11.8076
11.884
1
1
1.00001
1.00002
1.00006
1.00012
1.00037
1.00078
1.00246
1.00508
1.01592
1.03212
1.10605
1.21796
1.7685
2.97999
7.41706
13.305
11.9271
11.6298
11.7159
11.8376
11.8052
11.7748
11.8587
1
1
1.00001
1.00002
1.00005
1.00011
1.00035
1.00073
1.00231
1.00478
1.01507
1.03052
1.10045
1.20572
1.72387
2.82556
6.86478
13.283
11.9618
11.6046
11.6558
11.7424
11.7383
11.7097
11.8068
1
1
1.00001
1.00001
1.00005
1.0001
1.00032
1.00066
1.00211
1.00437
1.01397
1.02827
1.09403
1.19
1.67756
2.6669
6.28227
13.1789
11.9721
11.5472
11.552
11.6088
11.6444
11.6198
11.7306
1
1
1.00001
1.00001
1.00004
1.00009
1.00028
1.00058
1.00188
1.00384
1.01264
1.02508
1.08696
1.17077
1.62749
2.52325
5.82683
12.8014
11.9293
11.4636
11.4056
11.4377
11.5009
11.4888
11.6189
1
1
1.00001
1.00001
1.00004
1.00008
1.00025
1.00051
1.00164
1.00329
1.01121
1.02117
1.07893
1.1476
1.56946
2.36352
5.36762
12.251
11.8566
11.3108
11.2092
11.2225
11.3045
11.3027
11.4345
1
1
1
1.00001
1.00003
1.00007
1.00022
1.00045
1.00142
1.00283
1.00966
1.01772
1.06913
1.12489
1.49847
2.19176
4.86706
11.5222
11.6877
11.2508
11.0137
10.9702
11.0536
11.0354
11.1396
1
1
1
1.00001
1.00003
1.00006
1.00019
1.00038
1.0012
1.00243
1.00809
1.01483
1.05844
1.10163
1.42491
1.98537
4.3377
10.4421
11.6732
11.157
10.7863
10.6775
10.7184
10.6331
10.6398
1
1
1
1
1.00002
1.00004
1.00013
1.00027
1.0009
1.00171
1.00638
1.01084
1.04711
1.07885
1.34721
1.77934
3.73994
9.02526
11.711
11.0896
10.5483
10.3423
10.2708
10.0389
9.7199
1
1
1.00001
1.00002
1.00006
1.00012
1.0004
1.00083
1.0026
1.00536
1.01679
1.03366
1.1124
1.22968
1.82116
3.14355
7.97927
13.2879
11.8839
11.6327
11.7468
11.8964
11.8472
11.8102
11.8845
1
1
1.00001
1.00002
1.00006
1.00012
1.00039
1.00082
1.00256
1.00527
1.01651
1.03316
1.11028
1.22591
1.80356
3.09123
7.80369
13.2991
11.9011
11.6384
11.7441
11.886
11.8413
11.8076
11.884
1
1
1.00001
1.00002
1.00006
1.00012
1.00037
1.00078
1.00246
1.00508
1.01592
1.03212
1.10606
1.21797
1.76853
2.9801
7.41741
13.3049
11.927
11.6298
11.7158
11.8376
11.8052
11.7748
11.8587
1
1
1.00001
1.00002
1.00005
1.00011
1.00035
1.00073
1.00231
1.00478
1.01507
1.03052
1.10046
1.20572
1.72389
2.82565
6.86508
13.2829
11.9617
11.6046
11.6557
11.7423
11.7383
11.7097
11.8068
1
1
1.00001
1.00001
1.00005
1.0001
1.00032
1.00066
1.00211
1.00437
1.01397
1.02827
1.09404
1.19
1.67758
2.66696
6.28244
13.1789
11.972
11.5472
11.5519
11.6088
11.6444
11.6198
11.7306
1
1
1.00001
1.00001
1.00004
1.00009
1.00028
1.00058
1.00188
1.00384
1.01264
1.02508
1.08696
1.17078
1.62751
2.52329
5.82694
12.8015
11.9292
11.4635
11.4056
11.4376
11.5009
11.4888
11.6189
1
1
1.00001
1.00001
1.00004
1.00008
1.00025
1.00051
1.00164
1.00329
1.01121
1.02117
1.07893
1.1476
1.56948
2.36356
5.36771
12.2511
11.8565
11.3108
11.2092
11.2225
11.3045
11.3027
11.4345
1
1
1
1.00001
1.00003
1.00007
1.00022
1.00045
1.00142
1.00283
1.00966
1.01772
1.06913
1.1249
1.49849
2.1918
4.86715
11.5223
11.6876
11.2507
11.0137
10.9702
11.0535
11.0354
11.1396
1
1
1
1.00001
1.00003
1.00006
1.00019
1.00038
1.0012
1.00243
1.00809
1.01483
1.05844
1.10163
1.42492
1.98542
4.33778
10.4423
11.6731
11.1569
10.7863
10.6775
10.7184
10.6331
10.6397
1
1
1
1
1.00002
1.00004
1.00013
1.00027
1.0009
1.00171
1.00638
1.01084
1.04711
1.07885
1.34722
1.77939
3.74002
9.02553
11.7109
11.0895
10.5482
10.3422
10.2708
10.0389
9.71989
1
1
1.00001
1.00002
1.00006
1.00012
1.0004
1.00083
1.0026
1.00536
1.01679
1.03366
1.11239
1.22968
1.82111
3.14343
7.9788
13.2881
11.884
11.6328
11.7469
11.8964
11.8472
11.8102
11.8845
1
1
1.00001
1.00002
1.00006
1.00012
1.00039
1.00082
1.00256
1.00527
1.01651
1.03316
1.11027
1.2259
1.80352
3.09111
7.80324
13.2993
11.9012
11.6385
11.7442
11.886
11.8414
11.8076
11.8841
1
1
1.00001
1.00002
1.00006
1.00012
1.00037
1.00078
1.00246
1.00508
1.01592
1.03212
1.10605
1.21796
1.76849
2.97999
7.417
13.305
11.9271
11.6299
11.7159
11.8377
11.8052
11.7749
11.8587
1
1
1.00001
1.00002
1.00005
1.00011
1.00035
1.00073
1.00231
1.00478
1.01507
1.03052
1.10045
1.20572
1.72387
2.82556
6.86475
13.283
11.9618
11.6046
11.6558
11.7424
11.7384
11.7097
11.8069
1
1
1.00001
1.00001
1.00005
1.0001
1.00032
1.00066
1.00211
1.00437
1.01397
1.02827
1.09403
1.19
1.67756
2.6669
6.28227
13.1789
11.9721
11.5472
11.552
11.6088
11.6444
11.6198
11.7307
1
1
1.00001
1.00001
1.00004
1.00009
1.00028
1.00058
1.00188
1.00384
1.01264
1.02508
1.08696
1.17077
1.6275
2.52325
5.82684
12.8014
11.9293
11.4636
11.4056
11.4377
11.501
11.4888
11.619
1
1
1.00001
1.00001
1.00004
1.00008
1.00025
1.00051
1.00164
1.00329
1.01121
1.02117
1.07893
1.1476
1.56946
2.36353
5.36762
12.251
11.8566
11.3108
11.2092
11.2225
11.3045
11.3028
11.4345
1
1
1
1.00001
1.00003
1.00007
1.00022
1.00045
1.00142
1.00283
1.00966
1.01772
1.06913
1.12489
1.49847
2.19177
4.86706
11.5222
11.6877
11.2508
11.0137
10.9702
11.0536
11.0354
11.1396
1
1
1
1.00001
1.00003
1.00006
1.00019
1.00038
1.0012
1.00243
1.00809
1.01483
1.05844
1.10163
1.42491
1.98538
4.33769
10.4421
11.6732
11.157
10.7863
10.6775
10.7184
10.6332
10.6398
1
1
1
1
1.00002
1.00004
1.00013
1.00027
1.0009
1.00171
1.00638
1.01084
1.04711
1.07885
1.34721
1.77935
3.73994
9.02529
11.711
11.0896
10.5483
10.3422
10.2709
10.0389
9.71994
1
1
1.00001
1.00002
1.00006
1.00012
1.0004
1.00083
1.0026
1.00536
1.01679
1.03366
1.11239
1.22968
1.82113
3.14347
7.97899
13.288
11.884
11.6328
11.7468
11.8964
11.8472
11.8102
11.8845
1
1
1.00001
1.00002
1.00006
1.00012
1.00039
1.00082
1.00256
1.00527
1.01651
1.03316
1.11027
1.2259
1.80354
3.09115
7.80342
13.2992
11.9012
11.6385
11.7442
11.886
11.8414
11.8076
11.8841
1
1
1.00001
1.00002
1.00006
1.00012
1.00037
1.00078
1.00246
1.00508
1.01592
1.03212
1.10605
1.21796
1.76851
2.98003
7.41716
13.3049
11.9271
11.6298
11.7159
11.8377
11.8052
11.7748
11.8587
1
1
1.00001
1.00002
1.00005
1.00011
1.00035
1.00073
1.00231
1.00478
1.01507
1.03052
1.10046
1.20572
1.72387
2.82559
6.86486
13.2829
11.9617
11.6046
11.6558
11.7424
11.7384
11.7097
11.8068
1
1
1.00001
1.00001
1.00005
1.0001
1.00032
1.00066
1.00211
1.00437
1.01397
1.02827
1.09403
1.19
1.67757
2.66692
6.28232
13.1789
11.9721
11.5472
11.552
11.6088
11.6444
11.6198
11.7306
1
1
1.00001
1.00001
1.00004
1.00009
1.00028
1.00058
1.00188
1.00384
1.01264
1.02508
1.08696
1.17077
1.6275
2.52327
5.82686
12.8014
11.9293
11.4636
11.4056
11.4377
11.5009
11.4888
11.6189
1
1
1.00001
1.00001
1.00004
1.00008
1.00025
1.00051
1.00164
1.00329
1.01121
1.02117
1.07893
1.1476
1.56947
2.36354
5.36765
12.251
11.8566
11.3108
11.2092
11.2225
11.3045
11.3027
11.4345
1
1
1
1.00001
1.00003
1.00007
1.00022
1.00045
1.00142
1.00283
1.00966
1.01772
1.06913
1.1249
1.49848
2.19178
4.86709
11.5222
11.6877
11.2508
11.0137
10.9702
11.0536
11.0354
11.1396
1
1
1
1.00001
1.00003
1.00006
1.00019
1.00038
1.0012
1.00243
1.00809
1.01483
1.05844
1.10163
1.42491
1.98539
4.33772
10.4422
11.6731
11.157
10.7863
10.6775
10.7184
10.6331
10.6398
1
1
1
1
1.00002
1.00004
1.00013
1.00027
1.0009
1.00171
1.00638
1.01084
1.04711
1.07885
1.34722
1.77936
3.73997
9.02535
11.711
11.0896
10.5483
10.3422
10.2708
10.0389
9.71991
1
1
1.00001
1.00002
1.00006
1.00012
1.0004
1.00083
1.0026
1.00536
1.01679
1.03366
1.1124
1.22968
1.82116
3.14355
7.97926
13.2879
11.8839
11.6327
11.7468
11.8964
11.8472
11.8102
11.8845
1
1
1.00001
1.00002
1.00006
1.00012
1.00039
1.00082
1.00256
1.00527
1.01651
1.03316
1.11028
1.22591
1.80356
3.09122
7.80369
13.2991
11.9011
11.6384
11.7441
11.886
11.8413
11.8076
11.884
1
1
1.00001
1.00002
1.00006
1.00012
1.00037
1.00078
1.00246
1.00508
1.01592
1.03212
1.10606
1.21797
1.76853
2.9801
7.41741
13.3049
11.927
11.6298
11.7158
11.8376
11.8052
11.7748
11.8587
1
1
1.00001
1.00002
1.00005
1.00011
1.00035
1.00073
1.00231
1.00478
1.01507
1.03052
1.10046
1.20572
1.72389
2.82565
6.86508
13.2829
11.9617
11.6046
11.6557
11.7423
11.7383
11.7097
11.8068
1
1
1.00001
1.00001
1.00005
1.0001
1.00032
1.00066
1.00211
1.00437
1.01397
1.02827
1.09404
1.19
1.67758
2.66696
6.28244
13.1789
11.972
11.5472
11.5519
11.6088
11.6444
11.6198
11.7306
1
1
1.00001
1.00001
1.00004
1.00009
1.00028
1.00058
1.00188
1.00384
1.01264
1.02508
1.08696
1.17078
1.62751
2.52329
5.82694
12.8015
11.9292
11.4635
11.4056
11.4376
11.5009
11.4888
11.6189
1
1
1.00001
1.00001
1.00004
1.00008
1.00025
1.00051
1.00164
1.00329
1.01121
1.02117
1.07893
1.1476
1.56948
2.36356
5.36771
12.2511
11.8565
11.3108
11.2092
11.2225
11.3045
11.3027
11.4345
1
1
1
1.00001
1.00003
1.00007
1.00022
1.00045
1.00142
1.00283
1.00966
1.01772
1.06913
1.1249
1.49849
2.1918
4.86715
11.5223
11.6876
11.2507
11.0137
10.9702
11.0535
11.0354
11.1396
1
1
1
1.00001
1.00003
1.00006
1.00019
1.00038
1.0012
1.00243
1.00809
1.01483
1.05844
1.10163
1.42492
1.98542
4.33778
10.4423
11.6731
11.1569
10.7863
10.6775
10.7184
10.6331
10.6397
1
1
1
1
1.00002
1.00004
1.00013
1.00027
1.0009
1.00171
1.00638
1.01084
1.04711
1.07885
1.34722
1.77939
3.74002
9.02553
11.7109
11.0895
10.5482
10.3422
10.2708
10.0389
9.71989
1
1
1.00001
1.00002
1.00006
1.00012
1.0004
1.00083
1.0026
1.00536
1.01679
1.03366
1.11239
1.22967
1.82112
3.14343
7.97888
13.2881
11.884
11.6328
11.7469
11.8964
11.8472
11.8102
11.8845
1
1
1.00001
1.00002
1.00006
1.00012
1.00039
1.00082
1.00256
1.00527
1.01651
1.03315
1.11027
1.2259
1.80353
3.09111
7.80331
13.2992
11.9012
11.6385
11.7442
11.886
11.8414
11.8076
11.884
1
1
1.00001
1.00002
1.00006
1.00012
1.00037
1.00078
1.00246
1.00508
1.01592
1.03212
1.10605
1.21796
1.7685
2.97999
7.41706
13.305
11.9271
11.6298
11.7159
11.8376
11.8052
11.7748
11.8587
1
1
1.00001
1.00002
1.00005
1.00011
1.00035
1.00073
1.00231
1.00478
1.01507
1.03052
1.10045
1.20572
1.72387
2.82556
6.86478
13.283
11.9618
11.6046
11.6558
11.7424
11.7383
11.7097
11.8068
1
1
1.00001
1.00001
1.00005
1.0001
1.00032
1.00066
1.00211
1.00437
1.01397
1.02827
1.09403
1.19
1.67756
2.6669
6.28227
13.1789
11.9721
11.5472
11.552
11.6088
11.6444
11.6198
11.7306
1
1
1.00001
1.00001
1.00004
1.00009
1.00028
1.00058
1.00188
1.00384
1.01264
1.02508
1.08696
1.17077
1.62749
2.52325
5.82683
12.8014
11.9293
11.4636
11.4056
11.4377
11.5009
11.4888
11.6189
1
1
1.00001
1.00001
1.00004
1.00008
1.00025
1.00051
1.00164
1.00329
1.01121
1.02117
1.07893
1.1476
1.56946
2.36352
5.36762
12.251
11.8566
11.3108
11.2092
11.2225
11.3045
11.3027
11.4345
1
1
1
1.00001
1.00003
1.00007
1.00022
1.00045
1.00142
1.00283
1.00966
1.01772
1.06913
1.12489
1.49847
2.19176
4.86706
11.5222
11.6877
11.2508
11.0137
10.9702
11.0536
11.0354
11.1396
1
1
1
1.00001
1.00003
1.00006
1.00019
1.00038
1.0012
1.00243
1.00809
1.01483
1.05844
1.10163
1.42491
1.98537
4.3377
10.4421
11.6732
11.157
10.7863
10.6775
10.7184
10.6331
10.6398
1
1
1
1
1.00002
1.00004
1.00013
1.00027
1.0009
1.00171
1.00638
1.01084
1.04711
1.07885
1.34721
1.77934
3.73994
9.02526
11.711
11.0896
10.5483
10.3423
10.2708
10.0389
9.7199
1
1
1.00001
1.00002
1.00006
1.00012
1.0004
1.00083
1.0026
1.00536
1.01679
1.03366
1.11239
1.22968
1.82114
3.14348
7.97906
13.288
11.884
11.6327
11.7468
11.8964
11.8472
11.8102
11.8845
1
1
1.00001
1.00002
1.00006
1.00012
1.00039
1.00082
1.00256
1.00527
1.01651
1.03316
1.11027
1.2259
1.80355
3.09116
7.80349
13.2992
11.9012
11.6384
11.7442
11.886
11.8413
11.8076
11.884
1
1
1.00001
1.00002
1.00006
1.00012
1.00037
1.00078
1.00246
1.00508
1.01592
1.03212
1.10605
1.21796
1.76851
2.98004
7.4172
13.3049
11.9271
11.6298
11.7158
11.8376
11.8052
11.7748
11.8587
1
1
1.00001
1.00002
1.00005
1.00011
1.00035
1.00073
1.00231
1.00478
1.01507
1.03052
1.10046
1.20572
1.72387
2.8256
6.86488
13.283
11.9617
11.6046
11.6557
11.7423
11.7383
11.7097
11.8068
1
1
1.00001
1.00001
1.00005
1.0001
1.00032
1.00066
1.00211
1.00437
1.01397
1.02827
1.09403
1.19
1.67757
2.66693
6.28233
13.1789
11.9721
11.5472
11.5519
11.6088
11.6444
11.6198
11.7306
1
1
1.00001
1.00001
1.00004
1.00009
1.00028
1.00058
1.00188
1.00384
1.01264
1.02508
1.08696
1.17077
1.6275
2.52327
5.82688
12.8015
11.9293
11.4635
11.4056
11.4376
11.5009
11.4888
11.6189
1
1
1.00001
1.00001
1.00004
1.00008
1.00025
1.00051
1.00164
1.00329
1.01121
1.02117
1.07893
1.1476
1.56947
2.36354
5.36766
12.2511
11.8566
11.3108
11.2092
11.2224
11.3044
11.3027
11.4345
1
1
1
1.00001
1.00003
1.00007
1.00022
1.00045
1.00142
1.00283
1.00966
1.01772
1.06913
1.1249
1.49848
2.19178
4.8671
11.5223
11.6877
11.2507
11.0136
10.9702
11.0535
11.0354
11.1396
1
1
1
1.00001
1.00003
1.00006
1.00019
1.00038
1.0012
1.00243
1.00809
1.01483
1.05844
1.10163
1.42491
1.9854
4.33773
10.4422
11.6731
11.157
10.7862
10.6774
10.7183
10.6331
10.6398
1
1
1
1
1.00002
1.00004
1.00013
1.00027
1.0009
1.00171
1.00638
1.01084
1.04711
1.07885
1.34722
1.77937
3.73998
9.02542
11.711
11.0895
10.5482
10.3422
10.2708
10.0389
9.71992
0.999994
0.999995
1
1.00001
1.00005
1.00011
1.00039
1.00082
1.00259
1.00535
1.01678
1.03364
1.11236
1.2296
1.82098
3.14277
7.97726
13.2886
11.8843
11.633
11.7469
11.8962
11.847
11.8102
11.8848
0.999994
0.999995
1
1.00001
1.00005
1.00011
1.00038
1.00081
1.00255
1.00526
1.01649
1.03314
1.11024
1.22583
1.8034
3.09046
7.80172
13.2997
11.9015
11.6387
11.7443
11.8859
11.8412
11.8076
11.8843
0.999994
0.999995
1
1.00001
1.00005
1.00011
1.00036
1.00077
1.00245
1.00507
1.01591
1.0321
1.10602
1.21788
1.76841
2.97937
7.41555
13.3054
11.9274
11.63
11.7159
11.8375
11.805
11.7748
11.8589
0.999994
0.999995
0.999999
1.00001
1.00004
1.0001
1.00034
1.00072
1.0023
1.00477
1.01506
1.0305
1.10043
1.20563
1.72381
2.82503
6.86347
13.2833
11.962
11.6048
11.6558
11.7422
11.7382
11.7097
11.807
0.999994
0.999994
0.999999
1.00001
1.00004
1.00009
1.00031
1.00065
1.0021
1.00436
1.01395
1.02825
1.09401
1.18993
1.6775
2.66659
6.28151
13.1788
11.9723
11.5473
11.5519
11.6086
11.6443
11.6198
11.7308
0.999993
0.999994
0.999998
1
1.00003
1.00008
1.00027
1.00057
1.00187
1.00383
1.01263
1.02505
1.08695
1.17068
1.62745
2.523
5.8263
12.8009
11.9293
11.4637
11.4055
11.4375
11.5008
11.4888
11.6191
0.999993
0.999994
0.999997
1
1.00003
1.00007
1.00024
1.0005
1.00163
1.00328
1.01119
1.02115
1.07891
1.14753
1.56939
2.36328
5.36712
12.2505
11.8568
11.3108
11.2091
11.2223
11.3043
11.3027
11.4347
0.999993
0.999993
0.999996
1
1.00002
1.00006
1.00021
1.00044
1.00141
1.00281
1.00965
1.01769
1.06911
1.12483
1.4984
2.19152
4.86653
11.5215
11.688
11.2509
11.0136
10.9702
11.0534
11.0354
11.1398
0.999992
0.999993
0.999995
1
1.00002
1.00005
1.00018
1.00037
1.00119
1.00242
1.00808
1.01481
1.05842
1.10158
1.42483
1.98511
4.33716
10.4411
11.6736
11.1571
10.7862
10.6774
10.7183
10.6331
10.64
0.999991
0.999992
0.999993
0.999995
1.00001
1.00003
1.00012
1.00026
1.00089
1.0017
1.00637
1.01082
1.04708
1.0788
1.34712
1.77909
3.73924
9.02366
11.7115
11.0897
10.5483
10.3422
10.2708
10.0389
9.72008
0.999991
0.999991
0.999992
0.999996
0.999999
1.00003
1.00005
1.00027
1.00046
1.00198
1.00351
1.01392
1.02468
1.09918
1.18433
1.74004
2.90772
7.28211
11.6718
11.0089
10.2896
9.98577
9.69753
9.08675
7.54622
0.999992
0.999992
0.999993
0.999996
1
1.00003
1.00007
1.00023
1.0005
1.00163
1.00336
1.01102
1.02194
1.07671
1.14941
1.5636
2.3817
5.36261
11.2913
10.8186
10.0223
9.58746
9.09934
8.30519
6.68358
0.999991
0.999992
0.999992
0.999995
1
1.00002
1.00005
1.00019
1.0004
1.00128
1.00264
1.00866
1.01712
1.06025
1.11533
1.43442
2.04811
4.36022
10.1447
10.36
9.90977
9.26025
8.64382
7.78919
6.45317
0.999991
0.999991
0.999992
0.999994
0.999998
1.00001
1.00004
1.00014
1.0003
1.00097
1.002
1.00652
1.01287
1.04546
1.08539
1.32601
1.76841
3.52718
8.28898
10.1222
9.78096
9.04704
8.33098
7.46021
6.43948
0.999991
0.999991
0.999992
0.999993
0.999996
1.00001
1.00002
1.00009
1.00019
1.00065
1.00124
1.00454
1.00789
1.03266
1.05447
1.23558
1.48334
2.76567
5.90337
9.85634
9.61379
8.93607
8.14543
7.3189
6.44063
0.999991
0.999991
0.999991
0.999992
0.999994
0.999996
1.00002
1.00003
1.00017
1.00032
1.00124
1.00244
1.0086
1.01648
1.06099
1.11448
1.43868
2.0635
4.31972
9.12554
9.26129
8.8799
8.06722
7.24938
6.43527
0.999991
0.999991
0.999991
0.999992
0.999994
0.999997
1.00001
1.00003
1.00012
1.00026
1.00086
1.00179
1.00583
1.01191
1.04016
1.08088
1.28908
1.70317
3.29363
7.47939
9.00018
8.74018
8.06846
7.25776
6.4484
0.999991
0.999991
0.999991
0.999991
0.999993
0.999995
1
1.00002
1.00007
1.00015
1.00052
1.00102
1.00362
1.00656
1.02604
1.04521
1.18854
1.37154
2.38699
4.46115
8.52251
8.47221
8.08087
7.29298
6.48718
0.999991
0.999991
0.999991
0.999991
0.999992
0.999994
0.999996
1.00001
1.00002
1.00011
1.00019
1.00086
1.00146
1.00624
1.01118
1.04436
1.0822
1.31768
1.74565
3.37355
7.21078
8.20883
7.99634
7.407
6.56746
0.999991
0.999991
0.999991
0.999991
0.999992
0.999993
0.999996
1.00001
1.00002
1.00008
1.00017
1.00053
1.00108
1.00365
1.00686
1.02603
1.04655
1.18621
1.37833
2.34858
4.41403
7.67705
7.74005
7.42248
6.72742
0.999991
0.999991
0.999991
0.999991
0.999991
0.999992
0.999995
0.999997
1.00001
1.00002
1.00011
1.00018
1.00079
1.00134
1.00574
1.01046
1.04031
1.07864
1.2856
1.68859
3.09119
6.39421
7.43681
7.32816
6.91576
0.999991
0.999991
0.999991
0.999991
0.999991
0.999992
0.999994
0.999997
1.00001
1.00002
1.00007
1.00016
1.00049
1.001
1.0032
1.00612
1.02246
1.0396
1.16148
1.31408
2.12394
3.64256
6.79692
7.10448
6.8927
0.999991
0.999991
0.999991
0.999991
0.999991
0.999992
0.999994
0.999996
1
1.00001
1.00003
1.00011
1.00018
1.00066
1.00106
1.00447
1.00752
1.03159
1.05854
1.22143
1.51695
2.57177
5.10432
6.69554
6.72405
0.999991
0.999991
0.999991
0.999991
0.999991
0.999992
0.999994
0.999996
1
1.00001
1.00003
1.00008
1.00015
1.00041
1.00083
1.00246
1.00491
1.01638
1.03048
1.11655
1.23134
1.82821
2.92738
5.7412
6.47323
0.999991
0.999991
0.999991
0.999991
0.999991
0.999992
0.999994
0.999996
1
1.00001
1.00003
1.00006
1.00012
1.00021
1.00056
1.00097
1.00315
1.00534
1.02112
1.03575
1.14853
1.29126
1.9971
3.35543
5.79727
0.999991
0.999991
0.999991
0.999991
0.999991
0.999992
0.999993
0.999996
1
1.00001
1.00003
1.00005
1.0001
1.00017
1.00038
1.00067
1.00177
1.00346
1.01014
1.02076
1.0654
1.14536
1.45223
2.13381
4.01627
0.999991
0.999991
0.999991
0.999991
0.999991
0.999992
0.999993
0.999996
1
1.00001
1.00002
1.00005
1.0001
1.00017
1.00032
1.00056
1.00091
1.0023
1.00407
1.01204
1.02294
1.07829
1.1594
1.5465
2.27564
0.999991
0.999991
0.999991
0.999991
0.999991
0.999992
0.999993
0.999996
1
1.00001
1.00002
1.00005
1.0001
1.00017
1.00032
1.00051
1.00083
1.0015
1.00251
1.00626
1.01139
1.03383
1.07025
1.22518
1.52391
0.999991
0.999991
0.999991
0.999991
0.999991
0.999992
0.999993
0.999996
1
1.00001
1.00003
1.00005
1.0001
1.00017
1.00031
1.0005
1.00083
1.00136
1.00221
1.00342
1.00748
1.01249
1.03779
1.0738
1.23705
0.999991
0.999991
0.999991
0.999991
0.999991
0.999992
0.999993
0.999996
1
1.00001
1.00002
1.00005
1.0001
1.00017
1.00029
1.00052
1.00081
1.0014
1.00208
1.00345
1.00514
1.0092
1.01494
1.04122
1.07624
0.999991
0.999991
0.999991
0.999991
0.999991
0.999992
0.999993
0.999996
1
1.00001
1.00002
1.00005
1.00009
1.00017
1.00028
1.00052
1.00081
1.0014
1.00206
1.00341
1.00504
1.00812
1.01163
1.02144
1.03482
0.999991
0.999991
0.999991
0.999991
0.999991
0.999992
0.999993
0.999996
1
1.00001
1.00002
1.00005
1.00009
1.00016
1.00028
1.00051
1.0008
1.00133
1.0021
1.00333
1.00508
1.0079
1.01161
1.0175
1.0266
0.999991
0.999991
0.999991
0.999991
0.999991
0.999992
0.999993
0.999996
1
1.00001
1.00002
1.00005
1.00009
1.00016
1.00028
1.00049
1.00081
1.00131
1.00211
1.00333
1.0051
1.00788
1.01156
1.01742
1.02495
0.999991
0.999991
0.999991
0.999991
0.999991
0.999992
0.999993
0.999996
1
1.00001
1.00002
1.00005
1.00009
1.00016
1.00029
1.00049
1.00081
1.00132
1.00211
1.00332
1.00511
1.00783
1.01163
1.01727
1.02503
0.999991
0.999991
0.999991
0.999991
0.999991
0.999992
0.999993
0.999996
1
1.00001
1.00002
1.00005
1.00009
1.00016
1.00028
1.00049
1.00081
1.00132
1.00211
1.00331
1.00512
1.00781
1.01166
1.01724
1.02504
0.999991
0.999991
0.999991
0.999991
0.999991
0.999992
0.999993
0.999996
1
1.00001
1.00002
1.00005
1.00009
1.00016
1.00028
1.00049
1.00081
1.00132
1.00211
1.00331
1.00512
1.00781
1.01167
1.01723
1.02505
0.999991
0.999991
0.999991
0.999991
0.999991
0.999992
0.999993
0.999996
1
1.00001
1.00002
1.00005
1.00009
1.00016
1.00028
1.00049
1.00081
1.00132
1.00211
1.00331
1.00512
1.0078
1.01167
1.01722
1.02506
0.999991
0.999991
0.999991
0.999991
0.999991
0.999992
0.999993
0.999996
1
1.00001
1.00002
1.00005
1.00009
1.00016
1.00028
1.00049
1.00081
1.00132
1.00211
1.00331
1.00512
1.0078
1.01167
1.01722
1.02506
0.999991
0.999991
0.999991
0.999991
0.999991
0.999992
0.999993
0.999996
1
1.00001
1.00002
1.00005
1.00009
1.00016
1.00028
1.00049
1.00081
1.00132
1.00211
1.00331
1.00512
1.0078
1.01167
1.01722
1.02506
0.999991
0.999991
0.999991
0.999991
0.999991
0.999992
0.999993
0.999996
1
1.00001
1.00002
1.00005
1.00009
1.00016
1.00028
1.00049
1.00081
1.00132
1.00211
1.00331
1.00512
1.0078
1.01167
1.01722
1.02506
0.999991
0.999991
0.999991
0.999991
0.999991
0.999992
0.999993
0.999996
1
1.00001
1.00002
1.00005
1.00009
1.00016
1.00028
1.00049
1.00081
1.00132
1.00211
1.00331
1.00512
1.0078
1.01167
1.01722
1.02506
0.999991
0.999991
0.999991
0.999991
0.999991
0.999992
0.999993
0.999996
1
1.00001
1.00002
1.00005
1.00009
1.00016
1.00028
1.00049
1.00081
1.00132
1.00211
1.00331
1.00512
1.0078
1.01167
1.01722
1.02506
0.999991
0.999991
0.999991
0.999991
0.999991
0.999992
0.999993
0.999996
1
1.00001
1.00002
1.00005
1.00009
1.00016
1.00028
1.00049
1.00081
1.00132
1.00211
1.00331
1.00512
1.0078
1.01167
1.01722
1.02506
0.999991
0.999991
0.999991
0.999991
0.999991
0.999992
0.999993
0.999996
1
1.00001
1.00002
1.00005
1.00009
1.00016
1.00028
1.00049
1.00081
1.00132
1.00211
1.00331
1.00512
1.0078
1.01167
1.01722
1.02506
0.999991
0.999991
0.999991
0.999991
0.999991
0.999992
0.999993
0.999996
1
1.00001
1.00002
1.00005
1.00009
1.00016
1.00028
1.00049
1.00081
1.00132
1.00211
1.00331
1.00512
1.0078
1.01167
1.01722
1.02506
0.999991
0.999991
0.999991
0.999991
0.999991
0.999992
0.999993
0.999996
1
1.00001
1.00002
1.00005
1.00009
1.00016
1.00028
1.00049
1.00081
1.00132
1.00211
1.00331
1.00512
1.0078
1.01167
1.01722
1.02506
0.999991
0.999991
0.999991
0.999991
0.999991
0.999992
0.999993
0.999996
1
1.00001
1.00002
1.00005
1.00009
1.00016
1.00028
1.00049
1.00081
1.00132
1.00211
1.00331
1.00512
1.0078
1.01167
1.01722
1.02506
0.999991
0.999991
0.999991
0.999991
0.999991
0.999992
0.999993
0.999996
1
1.00001
1.00002
1.00005
1.00009
1.00016
1.00028
1.00049
1.00081
1.00132
1.00211
1.00331
1.00512
1.0078
1.01167
1.01722
1.02506
0.999991
0.999991
0.999991
0.999991
0.999991
0.999992
0.999993
0.999996
1
1.00001
1.00002
1.00005
1.00009
1.00016
1.00028
1.00049
1.00081
1.00132
1.00211
1.00331
1.00512
1.0078
1.01167
1.01722
1.02506
0.999991
0.999991
0.999991
0.999991
0.999991
0.999992
0.999993
0.999996
1
1.00001
1.00002
1.00005
1.00009
1.00016
1.00028
1.00049
1.00081
1.00132
1.00211
1.00331
1.00512
1.0078
1.01167
1.01722
1.02506
1
1
1
1
1.00001
1.00004
1.00006
1.00028
1.00047
1.00199
1.00353
1.01393
1.02471
1.0992
1.18443
1.74024
2.90857
7.28446
11.6715
11.0088
10.2896
9.98559
9.69742
9.08665
7.54615
1
1
1
1.00001
1.00001
1.00004
1.00008
1.00024
1.00051
1.00164
1.00337
1.01103
1.02196
1.07673
1.14947
1.56371
2.38208
5.36368
11.2917
10.8186
10.0222
9.58727
9.09918
8.30506
6.6835
1
1
1
1
1.00001
1.00003
1.00006
1.0002
1.00041
1.00129
1.00265
1.00867
1.01714
1.06026
1.11537
1.4345
2.04837
4.36095
10.146
10.3601
9.90977
9.26009
8.64363
7.78905
6.45309
1
1
1
1
1.00001
1.00002
1.00005
1.00015
1.00031
1.00098
1.00201
1.00653
1.01289
1.04548
1.08544
1.32607
1.76862
3.52771
8.29024
10.1221
9.78083
9.04686
8.33084
7.46012
6.43945
1
1
1
1
1.00001
1.00002
1.00003
1.0001
1.0002
1.00066
1.00125
1.00455
1.00791
1.03267
1.05451
1.23563
1.48354
2.76611
5.90511
9.85638
9.6137
8.9359
8.14531
7.31882
6.44061
1
1
1
1
1
1.00001
1.00002
1.00004
1.00018
1.00033
1.00125
1.00245
1.00861
1.01649
1.06101
1.11453
1.43876
2.06376
4.32036
9.12609
9.26123
8.87979
8.06713
7.24932
6.43526
1
1
1
1
1
1.00001
1.00002
1.00004
1.00013
1.00027
1.00087
1.0018
1.00584
1.01193
1.04018
1.08091
1.28917
1.70337
3.29423
7.48064
9.00026
8.74018
8.06835
7.25769
6.4484
1
1
1
1
1
1
1.00001
1.00003
1.00008
1.00016
1.00053
1.00103
1.00363
1.00657
1.02606
1.04525
1.18858
1.3717
2.38729
4.46237
8.52264
8.47236
8.08084
7.29288
6.48717
1
1
1
1
1
1
1
1.00002
1.00003
1.00012
1.00019
1.00087
1.00147
1.00625
1.0112
1.04438
1.08225
1.31776
1.74589
3.37406
7.21151
8.209
7.99638
7.40688
6.56745
1
1
1
1
1
1
1.00001
1.00001
1.00003
1.00009
1.00017
1.00054
1.00109
1.00366
1.00687
1.02605
1.04659
1.18625
1.37852
2.34894
4.41563
7.67731
7.74014
7.42253
6.72739
1
1
1
1
1
1
1
1.00001
1.00002
1.00003
1.00012
1.00019
1.0008
1.00135
1.00575
1.01048
1.04033
1.07868
1.28568
1.68881
3.09175
6.3949
7.43702
7.32827
6.9158
1
1
1
1
1
1
1
1.00001
1.00002
1.00003
1.00008
1.00017
1.0005
1.00101
1.00321
1.00613
1.02248
1.03963
1.16153
1.3142
2.12419
3.64356
6.79729
7.10465
6.89279
1
1
1
1
1
1
1
1.00001
1.00001
1.00002
1.00004
1.00012
1.00019
1.00067
1.00107
1.00448
1.00754
1.03161
1.05858
1.22149
1.51716
2.57222
5.10542
6.69588
6.72416
1
1
1
1
1
1
1
1.00001
1.00001
1.00002
1.00004
1.00009
1.00016
1.00042
1.00084
1.00247
1.00492
1.01639
1.0305
1.11659
1.23146
1.82837
2.92784
5.7418
6.47342
1
1
1
1
1
1
1
1.00001
1.00001
1.00002
1.00003
1.00006
1.00012
1.00022
1.00057
1.00098
1.00316
1.00536
1.02114
1.03577
1.14858
1.29137
1.99739
3.35636
5.79763
1
1
1
1
1
1
1