/*--------------------------------*- C++ -*----------------------------------*\
| =========                 |                                                 |
| \\      /  F ield         | OpenFOAM: The Open Source CFD Toolbox           |
|  \\    /   O peration     | Version:  4.1                                   |
|   \\  /    A nd           | Web:      www.OpenFOAM.org                      |
|    \\/     M anipulation  |                                                 |
\*---------------------------------------------------------------------------*/
FoamFile
{
    version     2.0;
    format      ascii;
    class       volScalarField;
    location    "6.32";
    object      T;
}
// * * * * * * * * * * * * * * * * * * * * * * * * * * * * * * * * * * * * * //

dimensions      [0 0 0 1 0 0 0];

internalField   nonuniform List<scalar> 
52500
(
0.999996
1.00002
1.00005
1.00017
1.00031
1.001
1.00184
1.00553
1.01137
1.02991
1.07932
1.17845
1.53963
2.35649
2.66398
2.7306
2.72531
2.72282
2.73727
2.74906
2.76269
2.77172
2.77824
2.78468
2.78932
0.999996
1.00002
1.00004
1.00016
1.0003
1.00099
1.00182
1.00544
1.01124
1.02947
1.07844
1.17594
1.53442
2.34619
2.66076
2.73049
2.72504
2.7224
2.73676
2.74837
2.76186
2.7704
2.77689
2.78246
2.7863
0.999996
1.00002
1.00004
1.00016
1.0003
1.00096
1.00177
1.00528
1.01096
1.02857
1.07652
1.17065
1.52439
2.32471
2.65276
2.72939
2.7236
2.72062
2.73489
2.74628
2.75951
2.7682
2.77379
2.77969
2.78225
0.999995
1.00002
1.00004
1.00015
1.00028
1.00092
1.0017
1.00502
1.01055
1.02721
1.0736
1.16257
1.50852
2.2907
2.64009
2.72742
2.72123
2.71719
2.73105
2.74251
2.75447
2.76229
2.76924
2.77467
2.77759
0.999995
1.00002
1.00004
1.00014
1.00027
1.00087
1.00161
1.00476
1.00998
1.02577
1.06943
1.15381
1.47919
2.23584
2.62162
2.72364
2.71662
2.71154
2.72451
2.73654
2.7495
2.75588
2.75932
2.76557
2.76704
0.999995
1.00002
1.00004
1.00014
1.00025
1.00081
1.00151
1.0045
1.00927
1.02428
1.06396
1.14418
1.43694
2.15892
2.59555
2.71815
2.71148
2.70268
2.71674
2.72391
2.73808
2.74782
2.75163
2.75466
2.75743
0.999995
1.00001
1.00003
1.00013
1.00023
1.00077
1.00139
1.00436
1.0084
1.0234
1.05594
1.13268
1.38393
2.05834
2.55998
2.70947
2.70313
2.69348
2.70856
2.71663
2.72356
2.73069
2.73492
2.7388
2.73703
0.999995
1.00001
1.00003
1.00011
1.00021
1.00069
1.00126
1.00394
1.00753
1.02145
1.04868
1.12031
1.33067
1.94313
2.5132
2.69267
2.68334
2.67435
2.68882
2.70354
2.71259
2.71643
2.71773
2.7168
2.71423
0.999995
1.00001
1.00003
1.0001
1.00019
1.00062
1.00113
1.00354
1.00672
1.01937
1.0428
1.1085
1.28727
1.83948
2.47281
2.68116
2.6739
2.65969
2.67365
2.67811
2.68847
2.69226
2.69119
2.68513
2.66314
0.999995
1.00001
1.00002
1.00009
1.00016
1.00053
1.00099
1.00302
1.00594
1.01623
1.03896
1.09254
1.26136
1.71858
2.42727
2.65645
2.65109
2.65314
2.65864
2.66674
2.66728
2.66622
2.65702
2.63601
2.58737
1
1.00003
1.00005
1.00018
1.00032
1.00101
1.00185
1.00554
1.01138
1.02993
1.07933
1.17848
1.53965
2.3566
2.66406
2.73067
2.72539
2.7229
2.73734
2.74913
2.76277
2.7718
2.77832
2.78476
2.7894
1
1.00003
1.00005
1.00017
1.00031
1.00099
1.00183
1.00546
1.01125
1.02949
1.07846
1.17599
1.53446
2.34631
2.66085
2.73056
2.72511
2.72247
2.73683
2.74845
2.76194
2.77048
2.77697
2.78254
2.78638
1
1.00003
1.00005
1.00017
1.0003
1.00097
1.00178
1.00529
1.01097
1.02859
1.07654
1.1707
1.52442
2.32484
2.65284
2.72946
2.72367
2.72069
2.73496
2.74635
2.75959
2.76828
2.77387
2.77977
2.78233
1
1.00003
1.00005
1.00016
1.00029
1.00092
1.00171
1.00503
1.01056
1.02722
1.07361
1.16261
1.50856
2.29082
2.64016
2.72748
2.7213
2.71727
2.73113
2.74259
2.75455
2.76237
2.76932
2.77475
2.77767
1
1.00002
1.00005
1.00015
1.00028
1.00088
1.00162
1.00477
1.00999
1.02579
1.06945
1.15385
1.47923
2.23597
2.6217
2.72371
2.71669
2.71161
2.72458
2.73661
2.74958
2.75595
2.7594
2.76565
2.76712
1
1.00002
1.00004
1.00014
1.00026
1.00082
1.00151
1.00451
1.00928
1.02431
1.06396
1.14421
1.43693
2.15901
2.59561
2.71822
2.71155
2.70275
2.71681
2.72398
2.73814
2.7479
2.7517
2.75474
2.75751
1
1.00002
1.00004
1.00013
1.00024
1.00078
1.0014
1.00437
1.00841
1.02342
1.05595
1.13271
1.38393
2.05843
2.56005
2.70953
2.7032
2.69355
2.70862
2.71669
2.72362
2.73076
2.73499
2.73887
2.7371
1
1.00002
1.00004
1.00012
1.00022
1.0007
1.00127
1.00395
1.00754
1.02146
1.04869
1.12034
1.33069
1.94322
2.51327
2.69274
2.68341
2.67442
2.68888
2.70361
2.71265
2.7165
2.7178
2.71687
2.7143
1
1.00002
1.00003
1.00011
1.0002
1.00063
1.00114
1.00355
1.00673
1.01938
1.04281
1.10853
1.28728
1.83957
2.47284
2.68122
2.67397
2.65976
2.67371
2.67818
2.68854
2.69232
2.69125
2.6852
2.66321
1
1.00001
1.00003
1.00009
1.00017
1.00054
1.00099
1.00303
1.00595
1.01625
1.03896
1.09257
1.26135
1.71867
2.42732
2.65652
2.65114
2.6532
2.65871
2.66681
2.66734
2.66628
2.65708
2.63607
2.58742
1
1.00003
1.00005
1.00018
1.00032
1.00101
1.00185
1.00554
1.01138
1.02993
1.07933
1.17848
1.53965
2.35661
2.66406
2.73067
2.72539
2.7229
2.73734
2.74913
2.76277
2.7718
2.77832
2.78476
2.7894
1
1.00003
1.00005
1.00017
1.00031
1.00099
1.00183
1.00546
1.01125
1.02949
1.07846
1.17599
1.53446
2.34631
2.66085
2.73056
2.72511
2.72247
2.73683
2.74845
2.76194
2.77048
2.77697
2.78254
2.78638
1
1.00003
1.00005
1.00017
1.0003
1.00097
1.00178
1.00529
1.01097
1.02859
1.07654
1.1707
1.52442
2.32484
2.65284
2.72946
2.72367
2.72069
2.73496
2.74635
2.75959
2.76828
2.77387
2.77977
2.78233
1
1.00003
1.00005
1.00016
1.00029
1.00092
1.00171
1.00503
1.01056
1.02722
1.07361
1.16261
1.50856
2.29083
2.64016
2.72748
2.7213
2.71727
2.73113
2.74259
2.75455
2.76237
2.76932
2.77475
2.77767
1
1.00002
1.00005
1.00015
1.00028
1.00088
1.00162
1.00477
1.00999
1.02579
1.06945
1.15385
1.47923
2.23598
2.6217
2.72371
2.71669
2.71162
2.72458
2.73661
2.74958
2.75595
2.7594
2.76565
2.76712
1
1.00002
1.00004
1.00014
1.00026
1.00082
1.00151
1.00451
1.00928
1.02431
1.06396
1.14422
1.43694
2.15901
2.59562
2.71822
2.71155
2.70275
2.71681
2.72398
2.73814
2.7479
2.7517
2.75474
2.75751
1
1.00002
1.00004
1.00013
1.00024
1.00078
1.0014
1.00437
1.00841
1.02342
1.05595
1.13272
1.38394
2.05844
2.56005
2.70953
2.7032
2.69355
2.70862
2.71669
2.72362
2.73076
2.73499
2.73887
2.7371
1
1.00002
1.00004
1.00012
1.00022
1.0007
1.00127
1.00395
1.00754
1.02146
1.0487
1.12034
1.33069
1.94323
2.51327
2.69275
2.68341
2.67442
2.68888
2.70361
2.71265
2.7165
2.7178
2.71687
2.7143
1
1.00002
1.00003
1.00011
1.0002
1.00063
1.00114
1.00355
1.00673
1.01938
1.04281
1.10853
1.28729
1.83958
2.47284
2.68122
2.67397
2.65976
2.67371
2.67818
2.68854
2.69232
2.69125
2.6852
2.66321
1
1.00001
1.00003
1.00009
1.00017
1.00054
1.00099
1.00303
1.00595
1.01625
1.03896
1.09257
1.26135
1.71868
2.42733
2.65652
2.65114
2.6532
2.65871
2.66681
2.66735
2.66628
2.65708
2.63607
2.58742
1
1.00003
1.00005
1.00018
1.00032
1.00101
1.00185
1.00554
1.01138
1.02993
1.07933
1.17848
1.53965
2.35661
2.66406
2.73067
2.72539
2.7229
2.73734
2.74913
2.76277
2.7718
2.77832
2.78476
2.7894
1
1.00003
1.00005
1.00017
1.00031
1.00099
1.00183
1.00546
1.01125
1.02949
1.07846
1.17599
1.53446
2.34631
2.66085
2.73056
2.72511
2.72247
2.73683
2.74845
2.76194
2.77048
2.77697
2.78254
2.78638
1
1.00003
1.00005
1.00017
1.0003
1.00097
1.00178
1.00529
1.01097
1.02859
1.07654
1.1707
1.52442
2.32484
2.65284
2.72946
2.72367
2.72069
2.73496
2.74635
2.75959
2.76828
2.77387
2.77977
2.78233
1
1.00003
1.00005
1.00016
1.00029
1.00092
1.00171
1.00503
1.01056
1.02722
1.07361
1.16261
1.50856
2.29083
2.64016
2.72748
2.7213
2.71727
2.73113
2.74259
2.75455
2.76237
2.76932
2.77475
2.77767
1
1.00002
1.00005
1.00015
1.00028
1.00088
1.00162
1.00477
1.00999
1.02579
1.06945
1.15385
1.47923
2.23598
2.6217
2.72371
2.71669
2.71162
2.72458
2.73661
2.74958
2.75595
2.7594
2.76565
2.76712
1
1.00002
1.00004
1.00014
1.00026
1.00082
1.00151
1.00451
1.00928
1.02431
1.06396
1.14422
1.43694
2.15901
2.59562
2.71822
2.71155
2.70275
2.71681
2.72398
2.73814
2.7479
2.7517
2.75474
2.75751
1
1.00002
1.00004
1.00013
1.00024
1.00078
1.0014
1.00437
1.00841
1.02342
1.05595
1.13272
1.38394
2.05844
2.56005
2.70953
2.7032
2.69355
2.70862
2.71669
2.72362
2.73076
2.73499
2.73887
2.7371
1
1.00002
1.00004
1.00012
1.00022
1.0007
1.00127
1.00395
1.00754
1.02146
1.0487
1.12034
1.33069
1.94323
2.51327
2.69275
2.68341
2.67442
2.68888
2.70361
2.71265
2.7165
2.7178
2.71687
2.7143
1
1.00002
1.00003
1.00011
1.0002
1.00063
1.00114
1.00355
1.00673
1.01938
1.04281
1.10853
1.28729
1.83958
2.47284
2.68122
2.67397
2.65976
2.67371
2.67818
2.68854
2.69232
2.69125
2.6852
2.66321
1
1.00001
1.00003
1.00009
1.00017
1.00054
1.00099
1.00303
1.00595
1.01625
1.03896
1.09257
1.26135
1.71868
2.42733
2.65652
2.65114
2.6532
2.65871
2.66681
2.66735
2.66628
2.65708
2.63607
2.58742
1
1.00003
1.00005
1.00018
1.00032
1.00101
1.00185
1.00554
1.01138
1.02993
1.07933
1.17848
1.53965
2.35661
2.66406
2.73067
2.72539
2.7229
2.73734
2.74913
2.76277
2.7718
2.77832
2.78476
2.7894
1
1.00003
1.00005
1.00017
1.00031
1.00099
1.00183
1.00546
1.01125
1.02949
1.07846
1.17599
1.53446
2.34632
2.66085
2.73056
2.72511
2.72247
2.73683
2.74845
2.76194
2.77048
2.77697
2.78254
2.78638
1
1.00003
1.00005
1.00017
1.0003
1.00097
1.00178
1.00529
1.01097
1.02859
1.07654
1.1707
1.52442
2.32484
2.65284
2.72946
2.72367
2.72069
2.73496
2.74635
2.75959
2.76828
2.77387
2.77977
2.78233
1
1.00003
1.00005
1.00016
1.00029
1.00092
1.00171
1.00503
1.01056
1.02722
1.07361
1.16261
1.50856
2.29083
2.64016
2.72748
2.7213
2.71727
2.73113
2.74259
2.75455
2.76237
2.76932
2.77475
2.77767
1
1.00002
1.00005
1.00015
1.00028
1.00088
1.00162
1.00477
1.00999
1.02579
1.06945
1.15385
1.47923
2.23598
2.6217
2.72371
2.71669
2.71162
2.72458
2.73661
2.74958
2.75595
2.7594
2.76565
2.76712
1
1.00002
1.00004
1.00014
1.00026
1.00082
1.00151
1.00451
1.00928
1.02431
1.06396
1.14422
1.43694
2.15901
2.59562
2.71822
2.71155
2.70275
2.71681
2.72398
2.73814
2.7479
2.7517
2.75474
2.75751
1
1.00002
1.00004
1.00013
1.00024
1.00078
1.0014
1.00437
1.00841
1.02342
1.05595
1.13272
1.38394
2.05844
2.56005
2.70953
2.7032
2.69355
2.70862
2.71669
2.72362
2.73076
2.73499
2.73887
2.7371
1
1.00002
1.00004
1.00012
1.00022
1.0007
1.00127
1.00395
1.00754
1.02147
1.0487
1.12034
1.33069
1.94323
2.51327
2.69275
2.68341
2.67442
2.68888
2.70361
2.71265
2.7165
2.7178
2.71687
2.7143
1
1.00002
1.00003
1.00011
1.0002
1.00063
1.00114
1.00355
1.00673
1.01938
1.04281
1.10853
1.28729
1.83958
2.47284
2.68122
2.67397
2.65976
2.67371
2.67818
2.68854
2.69232
2.69125
2.6852
2.66321
1
1.00001
1.00003
1.00009
1.00017
1.00054
1.00099
1.00303
1.00595
1.01625
1.03896
1.09257
1.26135
1.71868
2.42733
2.65652
2.65114
2.6532
2.65871
2.66681
2.66735
2.66628
2.65708
2.63607
2.58742
1
1.00003
1.00005
1.00018
1.00032
1.00101
1.00185
1.00554
1.01138
1.02993
1.07933
1.17848
1.53965
2.35661
2.66406
2.73067
2.72539
2.7229
2.73734
2.74913
2.76277
2.7718
2.77832
2.78476
2.7894
1
1.00003
1.00005
1.00017
1.00031
1.00099
1.00183
1.00546
1.01125
1.02949
1.07846
1.17599
1.53446
2.34632
2.66085
2.73056
2.72511
2.72247
2.73683
2.74845
2.76194
2.77048
2.77697
2.78254
2.78638
1
1.00003
1.00005
1.00017
1.0003
1.00097
1.00178
1.00529
1.01097
1.02859
1.07654
1.1707
1.52442
2.32484
2.65284
2.72946
2.72367
2.72069
2.73497
2.74635
2.75959
2.76828
2.77387
2.77977
2.78233
1
1.00003
1.00005
1.00016
1.00029
1.00092
1.00171
1.00503
1.01056
1.02722
1.07361
1.16261
1.50856
2.29083
2.64016
2.72748
2.7213
2.71727
2.73113
2.74259
2.75455
2.76237
2.76932
2.77475
2.77767
1
1.00002
1.00005
1.00015
1.00028
1.00088
1.00162
1.00477
1.00999
1.02579
1.06945
1.15385
1.47923
2.23598
2.6217
2.72371
2.71669
2.71162
2.72458
2.73661
2.74958
2.75595
2.7594
2.76565
2.76712
1
1.00002
1.00004
1.00014
1.00026
1.00082
1.00151
1.00451
1.00928
1.02431
1.06396
1.14422
1.43694
2.15901
2.59562
2.71822
2.71155
2.70275
2.71681
2.72398
2.73814
2.7479
2.7517
2.75474
2.75751
1
1.00002
1.00004
1.00013
1.00024
1.00078
1.0014
1.00437
1.00841
1.02342
1.05595
1.13272
1.38394
2.05844
2.56005
2.70953
2.7032
2.69355
2.70862
2.71669
2.72362
2.73076
2.73499
2.73887
2.7371
1
1.00002
1.00004
1.00012
1.00022
1.0007
1.00127
1.00395
1.00754
1.02147
1.0487
1.12034
1.33069
1.94323
2.51327
2.69275
2.68341
2.67442
2.68888
2.70361
2.71265
2.7165
2.7178
2.71687
2.7143
1
1.00002
1.00003
1.00011
1.0002
1.00063
1.00114
1.00355
1.00673
1.01938
1.04281
1.10853
1.28729
1.83958
2.47284
2.68122
2.67397
2.65976
2.67371
2.67818
2.68854
2.69232
2.69125
2.6852
2.66321
1
1.00001
1.00003
1.00009
1.00017
1.00054
1.00099
1.00303
1.00595
1.01625
1.03896
1.09257
1.26135
1.71868
2.42733
2.65652
2.65114
2.6532
2.65871
2.66681
2.66735
2.66628
2.65708
2.63607
2.58742
1
1.00003
1.00005
1.00018
1.00032
1.00101
1.00185
1.00554
1.01138
1.02993
1.07933
1.17848
1.53965
2.35661
2.66406
2.73067
2.72539
2.7229
2.73734
2.74913
2.76277
2.7718
2.77832
2.78476
2.7894
1
1.00003
1.00005
1.00017
1.00031
1.00099
1.00183
1.00546
1.01125
1.02949
1.07846
1.17599
1.53446
2.34632
2.66085
2.73056
2.72511
2.72247
2.73683
2.74845
2.76194
2.77048
2.77697
2.78254
2.78638
1
1.00003
1.00005
1.00017
1.0003
1.00097
1.00178
1.00529
1.01097
1.02859
1.07654
1.1707
1.52442
2.32484
2.65284
2.72946
2.72367
2.72069
2.73496
2.74635
2.75959
2.76828
2.77387
2.77977
2.78233
1
1.00003
1.00005
1.00016
1.00029
1.00092
1.00171
1.00503
1.01056
1.02722
1.07361
1.16261
1.50856
2.29083
2.64016
2.72748
2.7213
2.71727
2.73113
2.74259
2.75455
2.76237
2.76932
2.77475
2.77767
1
1.00002
1.00005
1.00015
1.00028
1.00088
1.00162
1.00477
1.00999
1.02579
1.06945
1.15385
1.47923
2.23598
2.6217
2.72371
2.71669
2.71162
2.72458
2.73661
2.74958
2.75595
2.7594
2.76565
2.76712
1
1.00002
1.00004
1.00014
1.00026
1.00082
1.00151
1.00451
1.00928
1.02431
1.06396
1.14422
1.43694
2.15901
2.59562
2.71822
2.71155
2.70275
2.71681
2.72398
2.73814
2.7479
2.7517
2.75474
2.75751
1
1.00002
1.00004
1.00013
1.00024
1.00078
1.0014
1.00437
1.00841
1.02342
1.05595
1.13272
1.38394
2.05844
2.56005
2.70953
2.7032
2.69355
2.70862
2.71669
2.72362
2.73076
2.73499
2.73887
2.7371
1
1.00002
1.00004
1.00012
1.00022
1.0007
1.00127
1.00395
1.00754
1.02146
1.0487
1.12034
1.33069
1.94323
2.51327
2.69275
2.68341
2.67442
2.68888
2.70361
2.71265
2.7165
2.7178
2.71687
2.7143
1
1.00002
1.00003
1.00011
1.0002
1.00063
1.00114
1.00355
1.00673
1.01938
1.04281
1.10853
1.28729
1.83958
2.47284
2.68122
2.67397
2.65976
2.67371
2.67818
2.68854
2.69232
2.69125
2.6852
2.66321
1
1.00001
1.00003
1.00009
1.00017
1.00054
1.00099
1.00303
1.00595
1.01625
1.03896
1.09257
1.26135
1.71868
2.42733
2.65652
2.65114
2.6532
2.65871
2.66681
2.66735
2.66628
2.65708
2.63607
2.58742
1
1.00003
1.00005
1.00018
1.00032
1.00101
1.00185
1.00554
1.01138
1.02993
1.07933
1.17848
1.53965
2.35661
2.66406
2.73067
2.72539
2.7229
2.73734
2.74913
2.76277
2.7718
2.77832
2.78476
2.7894
1
1.00003
1.00005
1.00017
1.00031
1.00099
1.00183
1.00546
1.01125
1.02949
1.07846
1.17599
1.53446
2.34631
2.66085
2.73056
2.72511
2.72247
2.73683
2.74845
2.76194
2.77048
2.77697
2.78254
2.78638
1
1.00003
1.00005
1.00017
1.0003
1.00097
1.00178
1.00529
1.01097
1.02859
1.07654
1.1707
1.52442
2.32484
2.65284
2.72946
2.72367
2.72069
2.73496
2.74635
2.75959
2.76828
2.77387
2.77977
2.78233
1
1.00003
1.00005
1.00016
1.00029
1.00092
1.00171
1.00503
1.01056
1.02722
1.07361
1.16261
1.50856
2.29083
2.64016
2.72748
2.7213
2.71727
2.73113
2.74259
2.75455
2.76237
2.76932
2.77475
2.77767
1
1.00002
1.00005
1.00015
1.00028
1.00088
1.00162
1.00477
1.00999
1.02579
1.06945
1.15385
1.47923
2.23598
2.6217
2.72371
2.71669
2.71162
2.72458
2.73661
2.74958
2.75595
2.7594
2.76565
2.76712
1
1.00002
1.00004
1.00014
1.00026
1.00082
1.00151
1.00451
1.00928
1.02431
1.06396
1.14422
1.43694
2.15901
2.59562
2.71822
2.71155
2.70275
2.71681
2.72398
2.73814
2.7479
2.7517
2.75474
2.75751
1
1.00002
1.00004
1.00013
1.00024
1.00078
1.0014
1.00437
1.00841
1.02342
1.05595
1.13272
1.38394
2.05844
2.56005
2.70953
2.7032
2.69355
2.70862
2.71669
2.72362
2.73076
2.73499
2.73887
2.7371
1
1.00002
1.00004
1.00012
1.00022
1.0007
1.00127
1.00395
1.00754
1.02146
1.0487
1.12034
1.33069
1.94323
2.51327
2.69275
2.68341
2.67442
2.68888
2.70361
2.71265
2.7165
2.7178
2.71687
2.7143
1
1.00002
1.00003
1.00011
1.0002
1.00063
1.00114
1.00355
1.00673
1.01938
1.04281
1.10853
1.28729
1.83958
2.47284
2.68122
2.67397
2.65976
2.67371
2.67818
2.68854
2.69232
2.69125
2.6852
2.66321
1
1.00001
1.00003
1.00009
1.00017
1.00054
1.00099
1.00303
1.00595
1.01625
1.03896
1.09257
1.26135
1.71868
2.42733
2.65652
2.65114
2.6532
2.65871
2.66681
2.66735
2.66628
2.65708
2.63607
2.58742
1
1.00003
1.00005
1.00018
1.00032
1.00101
1.00185
1.00554
1.01138
1.02993
1.07933
1.17848
1.53965
2.3566
2.66406
2.73067
2.72539
2.7229
2.73734
2.74913
2.76277
2.7718
2.77832
2.78476
2.7894
1
1.00003
1.00005
1.00017
1.00031
1.00099
1.00183
1.00546
1.01125
1.02949
1.07846
1.17599
1.53446
2.34631
2.66085
2.73056
2.72511
2.72247
2.73683
2.74845
2.76194
2.77048
2.77697
2.78254
2.78638
1
1.00003
1.00005
1.00017
1.0003
1.00097
1.00178
1.00529
1.01097
1.02859
1.07654
1.1707
1.52442
2.32484
2.65284
2.72946
2.72367
2.72069
2.73496
2.74635
2.75959
2.76828
2.77387
2.77977
2.78233
1
1.00003
1.00005
1.00016
1.00029
1.00092
1.00171
1.00503
1.01056
1.02722
1.07361
1.16261
1.50856
2.29082
2.64016
2.72748
2.7213
2.71727
2.73113
2.74259
2.75455
2.76237
2.76932
2.77475
2.77767
1
1.00002
1.00005
1.00015
1.00028
1.00088
1.00162
1.00477
1.00999
1.02579
1.06945
1.15385
1.47923
2.23597
2.6217
2.72371
2.71669
2.71161
2.72458
2.73661
2.74958
2.75595
2.7594
2.76565
2.76712
1
1.00002
1.00004
1.00014
1.00026
1.00082
1.00151
1.00451
1.00928
1.02431
1.06396
1.14421
1.43693
2.15901
2.59561
2.71822
2.71155
2.70275
2.71681
2.72398
2.73814
2.7479
2.7517
2.75474
2.75751
1
1.00002
1.00004
1.00013
1.00024
1.00078
1.0014
1.00437
1.00841
1.02342
1.05595
1.13271
1.38393
2.05843
2.56005
2.70953
2.7032
2.69355
2.70862
2.71669
2.72362
2.73076
2.73499
2.73887
2.7371
1
1.00002
1.00004
1.00012
1.00022
1.0007
1.00127
1.00395
1.00754
1.02146
1.04869
1.12034
1.33069
1.94322
2.51327
2.69274
2.68341
2.67442
2.68888
2.70361
2.71265
2.7165
2.7178
2.71687
2.7143
1
1.00002
1.00003
1.00011
1.0002
1.00063
1.00114
1.00355
1.00673
1.01938
1.04281
1.10853
1.28728
1.83957
2.47284
2.68122
2.67397
2.65976
2.67371
2.67818
2.68854
2.69232
2.69125
2.6852
2.66321
1
1.00001
1.00003
1.00009
1.00017
1.00054
1.00099
1.00303
1.00595
1.01625
1.03896
1.09257
1.26135
1.71867
2.42732
2.65652
2.65114
2.6532
2.65871
2.66681
2.66734
2.66628
2.65708
2.63607
2.58742
0.999996
1.00002
1.00005
1.00017
1.00031
1.001
1.00184
1.00553
1.01137
1.02991
1.07932
1.17845
1.53963
2.35649
2.66398
2.7306
2.72531
2.72282
2.73727
2.74906
2.76269
2.77172
2.77824
2.78468
2.78932
0.999996
1.00002
1.00004
1.00016
1.0003
1.00099
1.00182
1.00544
1.01124
1.02947
1.07844
1.17594
1.53442
2.34619
2.66076
2.73049
2.72504
2.7224
2.73676
2.74837
2.76186
2.7704
2.77689
2.78246
2.7863
0.999996
1.00002
1.00004
1.00016
1.0003
1.00096
1.00177
1.00528
1.01096
1.02857
1.07652
1.17065
1.52438
2.32471
2.65276
2.72939
2.7236
2.72062
2.73489
2.74628
2.75951
2.7682
2.77379
2.7797
2.78225
0.999995
1.00002
1.00004
1.00015
1.00028
1.00092
1.0017
1.00502
1.01055
1.02721
1.0736
1.16257
1.50852
2.2907
2.64009
2.72742
2.72123
2.71719
2.73105
2.74251
2.75447
2.76229
2.76924
2.77467
2.77759
0.999995
1.00002
1.00004
1.00014
1.00027
1.00087
1.00161
1.00476
1.00998
1.02577
1.06943
1.15381
1.47919
2.23584
2.62162
2.72364
2.71662
2.71154
2.72451
2.73654
2.7495
2.75588
2.75932
2.76557
2.76704
0.999995
1.00002
1.00004
1.00014
1.00025
1.00081
1.00151
1.0045
1.00927
1.02428
1.06396
1.14418
1.43694
2.15892
2.59555
2.71815
2.71148
2.70268
2.71674
2.72391
2.73808
2.74782
2.75163
2.75466
2.75743
0.999995
1.00001
1.00003
1.00013
1.00023
1.00077
1.00139
1.00436
1.0084
1.0234
1.05594
1.13268
1.38393
2.05834
2.55998
2.70947
2.70313
2.69348
2.70856
2.71663
2.72356
2.73069
2.73492
2.7388
2.73703
0.999995
1.00001
1.00003
1.00011
1.00021
1.00069
1.00126
1.00394
1.00753
1.02145
1.04868
1.12031
1.33067
1.94313
2.5132
2.69267
2.68334
2.67435
2.68882
2.70354
2.71259
2.71643
2.71773
2.7168
2.71423
0.999995
1.00001
1.00003
1.0001
1.00019
1.00062
1.00113
1.00354
1.00672
1.01937
1.0428
1.1085
1.28727
1.83948
2.47281
2.68116
2.6739
2.65969
2.67365
2.67811
2.68847
2.69226
2.69119
2.68513
2.66314
0.999995
1.00001
1.00002
1.00009
1.00016
1.00053
1.00099
1.00302
1.00594
1.01623
1.03896
1.09254
1.26136
1.71858
2.42727
2.65645
2.65109
2.65314
2.65864
2.66674
2.66728
2.66622
2.65702
2.63601
2.58737
0.999996
1
1.00003
1.00005
1.00019
1.00035
1.00111
1.00211
1.0061
1.01311
1.03356
1.09101
1.20581
1.60302
2.42063
2.61268
2.62854
2.63269
2.63412
2.6433
2.64274
2.63548
2.61496
2.56507
2.39532
0.999996
1
1.00002
1.00005
1.00017
1.00031
1.00099
1.00182
1.00552
1.01114
1.0297
1.07695
1.17469
1.52194
2.3081
2.58089
2.62882
2.61917
2.61489
2.61749
2.61562
2.60213
2.56821
2.50737
2.3313
0.999995
0.999999
1.00002
1.00004
1.00014
1.00026
1.00083
1.00154
1.00455
1.00949
1.0245
1.06532
1.1453
1.44507
2.15109
2.51595
2.62262
2.6126
2.59425
2.58966
2.58549
2.57088
2.53196
2.47364
2.33187
0.999995
0.999998
1.00001
1.00003
1.00012
1.00022
1.00071
1.0013
1.00405
1.00774
1.02192
1.05049
1.12215
1.34338
1.95016
2.43311
2.60517
2.59775
2.58703
2.56472
2.55036
2.53155
2.49694
2.45288
2.3418
0.999995
0.999997
1.00001
1.00002
1.00009
1.00018
1.00057
1.00106
1.00327
1.00629
1.01799
1.03935
1.10257
1.25656
1.79298
2.30186
2.55684
2.56604
2.56799
2.5563
2.53
2.50488
2.45522
2.42153
2.34253
0.999994
0.999998
1
1.00003
1.00005
1.00018
1.00034
1.00108
1.00204
1.00589
1.01254
1.03207
1.08622
1.1925
1.56736
2.30768
2.49993
2.525
2.52535
2.52634
2.51523
2.4926
2.43967
2.39341
2.33562
0.999994
0.999997
1
1.00002
1.00004
1.00015
1.00027
1.00087
1.00162
1.00477
1.00995
1.02559
1.06823
1.15067
1.46307
2.16447
2.45173
2.51722
2.50244
2.4972
2.48519
2.47011
2.43319
2.3807
2.32769
0.999994
0.999996
0.999999
1.00001
1.00003
1.00012
1.00022
1.0007
1.00128
1.00396
1.00766
1.02146
1.04973
1.12134
1.33347
1.94868
2.3389
2.49354
2.48913
2.47924
2.45852
2.43946
2.41595
2.36984
2.31746
0.999993
0.999994
0.999998
1
1.00003
1.00006
1.00021
1.00039
1.00122
1.00232
1.00666
1.01427
1.03625
1.09506
1.22455
1.59103
2.26441
2.44554
2.45779
2.45332
2.44116
2.41416
2.39754
2.36297
2.31486
0.999993
0.999993
0.999996
1
1.00002
1.00004
1.00016
1.00029
1.00092
1.00173
1.00495
1.01068
1.02682
1.07288
1.15935
1.4848
2.1579
2.397
2.43769
2.42574
2.41496
2.39134
2.36389
2.34195
2.30786
0.999992
0.999993
0.999994
1
1.00001
1.00004
1.00008
1.00027
1.00052
1.00145
1.00319
1.00786
1.02102
1.04668
1.13952
1.31239
1.88364
2.29579
2.4186
2.41348
2.40033
2.38142
2.35142
2.32131
2.29379
0.999992
0.999992
0.999993
0.999998
1
1.00003
1.00006
1.00021
1.00039
1.00122
1.00225
1.00678
1.01364
1.03614
1.08903
1.21813
1.55512
2.19409
2.36325
2.38035
2.37442
2.35903
2.3329
2.30335
2.27367
0.999991
0.999992
0.999993
0.999995
1
1.00001
1.00005
1.00011
1.00035
1.00066
1.00195
1.00397
1.01039
1.02564
1.05937
1.16988
1.4002
1.98189
2.31074
2.36468
2.36029
2.3436
2.32038
2.29212
2.26381
0.999991
0.999991
0.999992
0.999994
0.999999
1.00001
1.00004
1.00008
1.00026
1.00047
1.00147
1.00278
1.00791
1.01714
1.04266
1.1157
1.26531
1.69272
2.16649
2.33213
2.33342
2.32387
2.30407
2.27666
2.24889
0.999991
0.999991
0.999992
0.999993
0.999995
1
1.00002
1.00007
1.00014
1.00043
1.00081
1.00243
1.00475
1.0133
1.02881
1.07489
1.17872
1.52357
2.00314
2.26823
2.30979
2.30658
2.29368
2.26817
2.23893
0.999991
0.999991
0.999991
0.999993
0.999994
1
1.00001
1.00005
1.00009
1.0003
1.00055
1.0017
1.0032
1.00909
1.01961
1.04877
1.12941
1.30718
1.76667
2.14764
2.26893
2.27692
2.27199
2.25871
2.23252
0.999991
0.999991
0.999991
0.999992
0.999994
0.999996
1.00001
1.00002
1.00008
1.00015
1.00047
1.0009
1.00266
1.00522
1.01446
1.03114
1.08177
1.19008
1.56979
1.98252
2.21289
2.24416
2.24312
2.23434
2.21651
0.999991
0.999991
0.999991
0.999991
0.999993
0.999994
1
1.00001
1.00005
1.0001
1.00032
1.00059
1.00182
1.0034
1.00982
1.02062
1.05191
1.13213
1.32723
1.77668
2.11288
2.21434
2.22325
2.21783
2.20557
0.999991
0.999991
0.999991
0.999991
0.999992
0.999994
0.999996
1.00001
1.00002
1.00008
1.00016
1.00048
1.00092
1.0027
1.00536
1.01463
1.03187
1.08284
1.19263
1.58009
1.93987
2.15059
2.18286
2.19322
2.18662
0.999991
0.999991
0.999991
0.999991
0.999992
0.999992
0.999995
0.999999
1.00002
1.00004
1.00013
1.00024
1.00074
1.00141
1.00393
1.00844
1.0208
1.05495
1.11794
1.35202
1.82723
2.07628
2.14845
2.16071
2.15785
0.999991
0.999991
0.999991
0.999991
0.999991
0.999992
0.999994
0.999996
1.00001
1.00002
1.00008
1.00015
1.00049
1.00091
1.00274
1.00521
1.01477
1.0308
1.08134
1.18686
1.55972
1.92021
2.11285
2.13317
2.13674
0.999991
0.999991
0.999991
0.999991
0.999991
0.999991
0.999992
0.999995
0.999999
1.00001
1.00003
1.00012
1.00023
1.00071
1.00135
1.0038
1.00802
1.02002
1.05188
1.1131
1.32817
1.78273
2.03566
2.11291
2.11452
0.999991
0.999991
0.999991
0.999991
0.999991
0.999991
0.999992
0.999993
0.999996
1.00001
1.00002
1.00008
1.00015
1.00047
1.00085
1.00258
1.00486
1.01389
1.02829
1.07564
1.17017
1.50489
1.87525
2.07443
2.09816
0.999991
0.999991
0.999991
0.999991
0.999991
0.999991
0.999991
0.999992
0.999994
1
1.00001
1.00004
1.00009
1.00029
1.00052
1.00161
1.00297
1.0087
1.01754
1.04509
1.11016
1.26592
1.64803
1.96796
2.07221
0.999991
0.999991
0.999991
0.999991
0.999991
0.999991
0.999991
0.999992
0.999993
0.999997
1
1.00002
1.00005
1.00017
1.00031
1.00097
1.00178
1.00529
1.01027
1.02745
1.06372
1.1503
1.38677
1.83597
2.0136
0.999991
0.999991
0.999991
0.999991
0.999991
0.999991
0.999991
0.999991
0.999992
0.999993
0.999999
1.00001
1.00004
1.00007
1.00024
1.00045
1.00133
1.00254
1.00709
1.01492
1.03733
1.09264
1.21934
1.53836
1.89482
0.999991
0.999991
0.999991
0.999991
0.999991
0.999991
0.999991
0.999991
0.999991
0.999993
0.999995
1
1.00001
1.00005
1.00011
1.00034
1.00064
1.00187
1.00367
1.01004
1.02113
1.05529
1.12371
1.35795
1.69076
0.999991
0.999991
0.999991
0.999991
0.999991
0.999991
0.999991
0.999991
0.999991
0.999992
0.999994
0.999996
1.00001
1.00002
1.00008
1.00015
1.00047
1.00089
1.0026
1.00506
1.01373
1.02957
1.07405
1.17374
1.48325
0.999991
0.999991
0.999991
0.999991
0.999991
0.999991
0.999991
0.999991
0.999991
0.999991
0.999992
0.999994
1
1.00001
1.00005
1.00009
1.00029
1.00054
1.00161
1.00305
1.00848
1.01812
1.0436
1.10945
1.2594
0.999991
0.999991
0.999991
0.999991
0.999991
0.999991
0.999991
0.999991
0.999991
0.999991
0.999992
0.999993
0.999996
1.00001
1.00002
1.00007
1.00014
1.00044
1.00083
1.00242
1.00473
1.01297
1.02779
1.07108
1.16572
0.999991
0.999991
0.999991
0.999991
0.999991
0.999991
0.999991
0.999991
0.999991
0.999991
0.999991
0.999992
0.999995
0.999999
1.00002
1.00004
1.00013
1.00026
1.00079
1.00149
1.00439
1.0088
1.02342
1.05651
1.1326
0.999991
0.999991
0.999991
0.999991
0.999991
0.999991
0.999991
0.999991
0.999991
0.999991
0.999991
0.999992
0.999994
1
1.00001
1.00004
1.00008
1.00027
1.00052
1.00155
1.00313
1.00824
1.02026
1.04699
1.13729
0.999991
0.999991
0.999991
0.999991
0.999991
0.999991
0.999991
0.999991
0.999991
0.999991
0.999991
0.999992
0.999993
0.999999
1.00001
1.00004
1.00007
1.00025
1.00047
1.0014
1.0029
1.00755
1.01915
1.04428
1.13159
0.999991
0.999991
0.999991
0.999991
0.999991
0.999991
0.999991
0.999991
0.999991
0.999991
0.999991
0.999992
0.999994
0.999997
1.00001
1.00002
1.0001
1.00019
1.00059
1.00116
1.00327
1.00735
1.01848
1.05055
1.11503
0.999991
0.999991
0.999991
0.999991
0.999991
0.999991
0.999991
0.999991
0.999991
0.999991
0.999991
0.999992
0.999993
0.999998
1
1.00003
1.00007
1.00022
1.00044
1.0012
1.00282
1.00679
1.01884
1.04177
1.12785
0.999991
0.999991
0.999991
0.999991
0.999991
0.999991
0.999991
0.999991
0.999991
0.999991
0.999991
0.999992
0.999994
0.999996
1.00001
1.00002
1.00009
1.00018
1.00057
1.00112
1.00314
1.00711
1.01776
1.04892
1.11065
0.999991
0.999991
0.999991
0.999991
0.999991
0.999991
0.999991
0.999991
0.999991
0.999991
0.999991
0.999992
0.999993
0.999998
1
1.00003
1.00007
1.00023
1.00044
1.00133
1.00271
1.00718
1.01786
1.04189
1.12376
0.999991
0.999991
0.999991
0.999991
0.999991
0.999991
0.999991
0.999991
0.999991
0.999991
0.999991
0.999992
0.999993
0.999998
1
1.00003
1.00007
1.00023
1.00044
1.00135
1.0027
1.00725
1.01764
1.04181
1.12261
0.999991
0.999991
0.999991
0.999991
0.999991
0.999991
0.999991
0.999991
0.999991
0.999991
0.999991
0.999992
0.999994
0.999996
1.00001
1.00002
1.0001
1.00018
1.0006
1.00111
1.00342
1.00683
1.01868
1.04572
1.10914
0.999991
0.999991
0.999991
0.999991
0.999991
0.999991
0.999991
0.999991
0.999991
0.999991
0.999991
0.999992
0.999994
0.999997
1.00001
1.00002
1.0001
1.00019
1.00062
1.00113
1.00355
1.0068
1.01958
1.04427
1.1111
1
1.00001
1.00003
1.00006
1.0002
1.00036
1.00112
1.00212
1.00611
1.01312
1.03357
1.09102
1.20585
1.60305
2.42072
2.61275
2.62859
2.63274
2.63417
2.64336
2.6428
2.63554
2.61502
2.56511
2.39537
1
1.00001
1.00003
1.00005
1.00018
1.00032
1.001
1.00183
1.00553
1.01115
1.02972
1.07695
1.17472
1.52194
2.30818
2.58095
2.62888
2.61922
2.61494
2.61755
2.61568
2.60219
2.56827
2.50742
2.33134
1
1.00001
1.00003
1.00005
1.00015
1.00027
1.00084
1.00155
1.00456
1.0095
1.02451
1.06533
1.14534
1.44509
2.15118
2.51602
2.62268
2.61266
2.5943
2.58972
2.58555
2.57093
2.53201
2.47369
2.33192
1
1.00001
1.00002
1.00004
1.00013
1.00023
1.00072
1.00131
1.00406
1.00775
1.02193
1.0505
1.12218
1.3434
1.95023
2.43318
2.60523
2.59781
2.58709
2.56477
2.5504
2.5316
2.49699
2.45293
2.34184
1
1
1.00002
1.00003
1.0001
1.00019
1.00058
1.00107
1.00328
1.0063
1.018
1.03936
1.10259
1.25658
1.79306
2.3019
2.5569
2.5661
2.56805
2.55635
2.53003
2.50491
2.45527
2.42159
2.34259
1
1.00001
1.00001
1.00003
1.00006
1.00019
1.00035
1.00109
1.00205
1.0059
1.01255
1.03209
1.08624
1.19254
1.56739
2.30776
2.49999
2.52505
2.52541
2.52639
2.51528
2.49263
2.43969
2.39343
2.33568
1
1
1.00001
1.00003
1.00005
1.00016
1.00028
1.00088
1.00163
1.00478
1.00996
1.0256
1.06825
1.1507
1.4631
2.16457
2.45179
2.51728
2.50249
2.49725
2.48524
2.47016
2.43323
2.38073
2.32772
1
1
1.00001
1.00002
1.00004
1.00012
1.00023
1.00071
1.00129
1.00397
1.00767
1.02147
1.04974
1.12137
1.33349
1.94876
2.33898
2.49359
2.48919
2.47929
2.45857
2.4395
2.416
2.36988
2.31749
1
1
1.00001
1.00001
1.00004
1.00007
1.00022
1.0004
1.00123
1.00233
1.00667
1.01428
1.03627
1.09508
1.22457
1.59107
2.26444
2.4456
2.45785
2.45337
2.44121
2.4142
2.39758