/*--------------------------------*- C++ -*----------------------------------*\
| =========                 |                                                 |
| \\      /  F ield         | OpenFOAM: The Open Source CFD Toolbox           |
|  \\    /   O peration     | Version:  4.1                                   |
|   \\  /    A nd           | Web:      www.OpenFOAM.org                      |
|    \\/     M anipulation  |                                                 |
\*---------------------------------------------------------------------------*/
FoamFile
{
    version     2.0;
    format      ascii;
    class       volScalarField;
    location    "8.06";
    object      Ma;
}
// * * * * * * * * * * * * * * * * * * * * * * * * * * * * * * * * * * * * * //

dimensions      [0 0 0 0 0 0 0];

internalField   nonuniform List<scalar> 
52500
(
3.00001
2.99996
2.99989
2.9996
2.9992
2.99757
2.99526
2.98617
2.97185
2.9232
2.81954
2.56868
1.96476
1.06762
0.441948
0.318644
0.342777
0.345328
0.314662
0.262558
0.211033
0.168529
0.126575
0.0799508
0.0459521
3.00001
2.99996
2.99989
2.99961
2.99921
2.9976
2.99531
2.98632
2.97216
2.92401
2.82122
2.57314
1.97206
1.07747
0.448217
0.319247
0.343993
0.347093
0.316706
0.265366
0.215128
0.174189
0.134558
0.0934235
0.0694152
3.00001
2.99996
2.99989
2.99961
2.99923
2.99765
2.99542
2.98664
2.97279
2.92567
2.82477
2.58244
1.9881
1.09955
0.462831
0.321884
0.348109
0.352738
0.323407
0.274233
0.2272
0.190087
0.15591
0.123883
0.108766
3.00001
2.99996
2.9999
2.99963
2.99926
2.99774
2.99558
2.98711
2.97375
2.92818
2.8302
2.59659
2.01312
1.13458
0.48533
0.325888
0.354728
0.362032
0.334502
0.28864
0.246045
0.213924
0.185989
0.161945
0.151958
3.00001
2.99997
2.9999
2.99965
2.9993
2.99787
2.99582
2.98792
2.97502
2.93229
2.83689
2.61519
2.04714
1.18385
0.515363
0.330876
0.363437
0.374343
0.349177
0.307368
0.269869
0.243339
0.221416
0.203675
0.197419
3.00002
2.99997
2.99991
2.99968
2.99935
2.99801
2.9961
2.98877
2.97655
2.93694
2.84676
2.63899
2.09027
1.24804
0.55173
0.335985
0.373476
0.389043
0.366723
0.32995
0.297926
0.277213
0.261691
0.250183
0.247563
3.00002
2.99997
2.99992
2.9997
2.9994
2.99816
2.99639
2.98959
2.97833
2.94158
2.85867
2.66488
2.15411
1.33454
0.600449
0.346759
0.38806
0.407956
0.388149
0.356391
0.330581
0.315962
0.307096
0.302629
0.305955
3.00002
2.99998
2.99993
2.99973
2.99944
2.99829
2.99667
2.99023
2.98027
2.94574
2.87399
2.69444
2.23799
1.44701
0.662914
0.368001
0.410752
0.433458
0.415237
0.387847
0.367573
0.359713
0.358665
0.363538
0.377575
3.00002
2.99998
2.99994
2.99976
2.9995
2.99846
2.997
2.99116
2.98235
2.95073
2.89071
2.72717
2.33262
1.58392
0.736902
0.403147
0.443925
0.466045
0.448947
0.426206
0.411018
0.409025
0.417049
0.436647
0.47434
3.00002
2.99999
2.99995
2.99979
2.99956
2.99867
2.99736
2.99231
2.98446
2.95689
2.9048
2.75829
2.42126
1.70953
0.822129
0.452382
0.484544
0.499912
0.486701
0.469188
0.459827
0.463959
0.485293
0.532067
0.633882
2.99999
2.99994
2.99987
2.99958
2.99918
2.99755
2.99524
2.98615
2.97183
2.92317
2.81951
2.56861
1.96469
1.06748
0.441775
0.318465
0.342601
0.345147
0.31446
0.262312
0.210721
0.168132
0.126037
0.0790824
0.044399
2.99999
2.99994
2.99987
2.99959
2.99919
2.99758
2.99529
2.9863
2.97213
2.92397
2.82119
2.57306
1.972
1.07734
0.448048
0.31907
0.343819
0.346915
0.316507
0.265126
0.214826
0.173809
0.134059
0.0926918
0.0684124
2.99999
2.99994
2.99987
2.9996
2.99921
2.99763
2.9954
2.98661
2.97276
2.92563
2.82474
2.58236
1.98803
1.09941
0.462666
0.32171
0.347939
0.352564
0.323215
0.274003
0.226918
0.189744
0.155486
0.123341
0.108139
3
2.99994
2.99988
2.99961
2.99924
2.99772
2.99556
2.98709
2.97372
2.92814
2.83017
2.59652
2.01306
1.13445
0.485182
0.325727
0.354569
0.361869
0.334322
0.288428
0.245791
0.213626
0.18564
0.161539
0.151517
3
2.99995
2.99989
2.99963
2.99928
2.99785
2.9958
2.98789
2.975
2.93225
2.83685
2.61512
2.04705
1.1837
0.515211
0.33071
0.363278
0.374183
0.349006
0.307171
0.269642
0.243084
0.22113
0.203359
0.197088
3
2.99995
2.99989
2.99966
2.99933
2.99799
2.99607
2.98875
2.97653
2.9369
2.84672
2.63891
2.09018
1.24788
0.551584
0.33582
0.373318
0.388887
0.366559
0.329769
0.297723
0.276994
0.261456
0.249933
0.247306
3
2.99996
2.9999
2.99968
2.99938
2.99814
2.99636
2.98957
2.97831
2.94154
2.85863
2.6648
2.15401
1.33437
0.600308
0.346594
0.387903
0.407803
0.38799
0.356221
0.3304
0.315773
0.306901
0.302429
0.305754
3
2.99996
2.99991
2.99971
2.99943
2.99827
2.99665
2.99021
2.98024
2.9457
2.87397
2.69437
2.23792
1.44686
0.662796
0.367851
0.410605
0.433316
0.41509
0.387692
0.367411
0.35955
0.358503
0.363377
0.377419
3
2.99996
2.99992
2.99974
2.99948
2.99844
2.99698
2.99114
2.98232
2.9507
2.89068
2.72711
2.33252
1.58376
0.736783
0.402996
0.443783
0.465911
0.44881
0.426065
0.410875
0.408883
0.416914
0.436519
0.474224
3
2.99997
2.99993
2.99977
2.99955
2.99865
2.99734
2.99228
2.98444
2.95686
2.90477
2.75823
2.4212
1.70939
0.822031
0.452251
0.484424
0.499795
0.486579
0.469063
0.459701
0.463837
0.485181
0.531968
0.633804
2.99999
2.99994
2.99987
2.99958
2.99918
2.99755
2.99524
2.98615
2.97183
2.92317
2.81951
2.56861
1.96468
1.06748
0.441772
0.318466
0.342601
0.345147
0.31446
0.262312
0.210721
0.168132
0.126037
0.0790824
0.0443991
2.99999
2.99994
2.99987
2.99959
2.99919
2.99758
2.99529
2.9863
2.97213
2.92397
2.82119
2.57306
1.97199
1.07733
0.448045
0.319071
0.34382
0.346915
0.316507
0.265126
0.214826
0.17381
0.134059
0.0926918
0.0684124
2.99999
2.99994
2.99987
2.9996
2.99921
2.99763
2.9954
2.98661
2.97276
2.92563
2.82474
2.58236
1.98802
1.0994
0.462663
0.321711
0.347939
0.352564
0.323215
0.274003
0.226918
0.189744
0.155486
0.123341
0.108139
3
2.99994
2.99988
2.99961
2.99924
2.99772
2.99556
2.98709
2.97372
2.92814
2.83017
2.59652
2.01306
1.13444
0.485179
0.325728
0.35457
0.361869
0.334322
0.288428
0.245791
0.213626
0.18564
0.161539
0.151517
3
2.99995
2.99989
2.99963
2.99928
2.99785
2.9958
2.98789
2.975
2.93225
2.83685
2.61511
2.04705
1.1837
0.515207
0.330711
0.363278
0.374183
0.349006
0.307171
0.269642
0.243084
0.22113
0.203359
0.197088
3
2.99995
2.99989
2.99966
2.99933
2.99799
2.99607
2.98875
2.97653
2.9369
2.84672
2.63891
2.09018
1.24787
0.55158
0.335821
0.373318
0.388887
0.366559
0.329769
0.297723
0.276994
0.261456
0.249933
0.247306
3
2.99996
2.9999
2.99968
2.99938
2.99814
2.99636
2.98957
2.97831
2.94154
2.85863
2.6648
2.154
1.33436
0.600304
0.346595
0.387903
0.407802
0.38799
0.356221
0.3304
0.315773
0.306901
0.30243
0.305754
3
2.99996
2.99991
2.99971
2.99943
2.99827
2.99665
2.99021
2.98024
2.94569
2.87397
2.69436
2.23791
1.44685
0.662791
0.367851
0.410605
0.433315
0.415089
0.387692
0.367411
0.35955
0.358503
0.363378
0.377419
3
2.99996
2.99992
2.99974
2.99948
2.99844
2.99698
2.99114
2.98232
2.9507
2.89067
2.72711
2.33252
1.58375
0.736778
0.402994
0.443782
0.465909
0.448808
0.426064
0.410874
0.408883
0.416914
0.43652
0.474224
3
2.99997
2.99993
2.99977
2.99955
2.99865
2.99734
2.99228
2.98444
2.95686
2.90477
2.75823
2.42119
1.70938
0.822027
0.45225
0.484423
0.499793
0.486578
0.469062
0.459701
0.463837
0.485181
0.531968
0.633804
2.99999
2.99994
2.99987
2.99958
2.99918
2.99755
2.99524
2.98615
2.97183
2.92317
2.81951
2.5686
1.96468
1.06748
0.441772
0.318466
0.342601
0.345147
0.31446
0.262312
0.210721
0.168132
0.126037
0.0790824
0.0443991
2.99999
2.99994
2.99987
2.99959
2.99919
2.99758
2.99529
2.9863
2.97213
2.92397
2.82119
2.57306
1.97199
1.07733
0.448045
0.319071
0.34382
0.346915
0.316507
0.265126
0.214826
0.17381
0.134059
0.0926918
0.0684124
2.99999
2.99994
2.99987
2.9996
2.99921
2.99763
2.9954
2.98661
2.97276
2.92563
2.82474
2.58236
1.98802
1.0994
0.462662
0.321711
0.347939
0.352564
0.323215
0.274003
0.226918
0.189744
0.155486
0.123341
0.108139
3
2.99994
2.99988
2.99961
2.99924
2.99772
2.99556
2.98709
2.97372
2.92814
2.83017
2.59652
2.01306
1.13444
0.485178
0.325728
0.35457
0.361869
0.334322
0.288428
0.245791
0.213626
0.18564
0.161539
0.151517
3
2.99995
2.99989
2.99963
2.99928
2.99785
2.9958
2.98789
2.975
2.93225
2.83685
2.61511
2.04705
1.1837
0.515207
0.330711
0.363278
0.374183
0.349006
0.307171
0.269642
0.243084
0.22113
0.203359
0.197088
3
2.99995
2.99989
2.99966
2.99933
2.99799
2.99607
2.98875
2.97653
2.9369
2.84672
2.63891
2.09018
1.24787
0.55158
0.335821
0.373318
0.388887
0.366559
0.329769
0.297723
0.276994
0.261456
0.249933
0.247306
3
2.99996
2.9999
2.99968
2.99938
2.99814
2.99636
2.98957
2.97831
2.94154
2.85863
2.6648
2.154
1.33436
0.600304
0.346595
0.387903
0.407802
0.38799
0.356221
0.3304
0.315773
0.306901
0.30243
0.305754
3
2.99996
2.99991
2.99971
2.99943
2.99827
2.99665
2.99021
2.98024
2.94569
2.87396
2.69436
2.23791
1.44684
0.662791
0.367851
0.410605
0.433315
0.415089
0.387692
0.367411
0.35955
0.358503
0.363378
0.377419
3
2.99996
2.99992
2.99974
2.99948
2.99844
2.99698
2.99114
2.98232
2.9507
2.89067
2.72711
2.33252
1.58375
0.736778
0.402994
0.443782
0.465909
0.448808
0.426064
0.410874
0.408883
0.416914
0.43652
0.474224
3
2.99997
2.99993
2.99977
2.99955
2.99865
2.99734
2.99228
2.98444
2.95686
2.90477
2.75823
2.42119
1.70938
0.822027
0.45225
0.484423
0.499793
0.486578
0.469062
0.459701
0.463837
0.485181
0.531968
0.633804
2.99999
2.99994
2.99987
2.99958
2.99918
2.99755
2.99524
2.98615
2.97183
2.92317
2.81951
2.5686
1.96468
1.06748
0.441771
0.318466
0.342602
0.345147
0.31446
0.262312
0.210721
0.168132
0.126037
0.0790824
0.0443991
2.99999
2.99994
2.99987
2.99959
2.99919
2.99758
2.99529
2.9863
2.97213
2.92397
2.82119
2.57306
1.97199
1.07733
0.448044
0.319071
0.34382
0.346915
0.316507
0.265126
0.214826
0.17381
0.134059
0.0926918
0.0684124
2.99999
2.99994
2.99987
2.9996
2.99921
2.99763
2.9954
2.98661
2.97276
2.92563
2.82474
2.58236
1.98802
1.0994
0.462662
0.321711
0.347939
0.352564
0.323215
0.274003
0.226918
0.189744
0.155486
0.123341
0.108139
3
2.99994
2.99988
2.99961
2.99924
2.99772
2.99556
2.98709
2.97372
2.92814
2.83017
2.59652
2.01306
1.13444
0.485178
0.325729
0.35457
0.361869
0.334322
0.288428
0.245791
0.213626
0.18564
0.161539
0.151517
3
2.99995
2.99989
2.99963
2.99928
2.99785
2.9958
2.98789
2.975
2.93225
2.83685
2.61511
2.04705
1.18369
0.515206
0.330712
0.363279
0.374183
0.349006
0.307171
0.269642
0.243084
0.22113
0.203359
0.197088
3
2.99995
2.99989
2.99966
2.99933
2.99799
2.99607
2.98875
2.97653
2.9369
2.84672
2.63891
2.09018
1.24787
0.551579
0.335822
0.373318
0.388887
0.366559
0.329769
0.297723
0.276994
0.261456
0.249933
0.247306
3
2.99996
2.9999
2.99968
2.99938
2.99814
2.99636
2.98957
2.97831
2.94154
2.85863
2.6648
2.154
1.33436
0.600303
0.346595
0.387903
0.407802
0.38799
0.356221
0.3304
0.315773
0.306901
0.30243
0.305754
3
2.99996
2.99991
2.99971
2.99943
2.99827
2.99665
2.99021
2.98024
2.94569
2.87396
2.69436
2.23791
1.44684
0.66279
0.367851
0.410604
0.433315
0.415089
0.387692
0.367411
0.35955
0.358503
0.363378
0.377419
3
2.99996
2.99992
2.99974
2.99948
2.99844
2.99698
2.99114
2.98232
2.9507
2.89067
2.7271
2.33251
1.58375
0.736777
0.402994
0.443781
0.465909
0.448808
0.426064
0.410874
0.408883
0.416914
0.43652
0.474224
3
2.99997
2.99993
2.99977
2.99955
2.99865
2.99734
2.99228
2.98444
2.95686
2.90477
2.75823
2.42119
1.70938
0.822026
0.45225
0.484423
0.499793
0.486578
0.469062
0.4597
0.463837
0.485181
0.531968
0.633804
2.99999
2.99994
2.99987
2.99958
2.99918
2.99755
2.99524
2.98615
2.97183
2.92317
2.81951
2.5686
1.96468
1.06748
0.441771
0.318466
0.342602
0.345147
0.31446
0.262312
0.210721
0.168132
0.126037
0.0790824
0.0443991
2.99999
2.99994
2.99987
2.99959
2.99919
2.99758
2.99529
2.9863
2.97213
2.92397
2.82119
2.57306
1.97199
1.07733
0.448044
0.319071
0.34382
0.346915
0.316507
0.265126
0.214826
0.17381
0.134059
0.0926918
0.0684124
2.99999
2.99994
2.99987
2.9996
2.99921
2.99763
2.9954
2.98661
2.97276
2.92563
2.82474
2.58236
1.98802
1.0994
0.462662
0.321711
0.347939
0.352564
0.323215
0.274003
0.226918
0.189744
0.155486
0.123341
0.108139
3
2.99994
2.99988
2.99961
2.99924
2.99772
2.99556
2.98709
2.97372
2.92814
2.83017
2.59652
2.01306
1.13444
0.485178
0.325729
0.35457
0.361869
0.334322
0.288428
0.245791
0.213626
0.18564
0.161539
0.151517
3
2.99995
2.99989
2.99963
2.99928
2.99785
2.9958
2.98789
2.975
2.93225
2.83685
2.61511
2.04705
1.18369
0.515206
0.330712
0.363279
0.374183
0.349006
0.307171
0.269642
0.243084
0.22113
0.203359
0.197088
3
2.99995
2.99989
2.99966
2.99933
2.99799
2.99607
2.98875
2.97653
2.9369
2.84672
2.63891
2.09018
1.24787
0.551579
0.335822
0.373318
0.388887
0.366559
0.329769
0.297723
0.276994
0.261456
0.249933
0.247306
3
2.99996
2.9999
2.99968
2.99938
2.99814
2.99636
2.98957
2.97831
2.94154
2.85863
2.6648
2.154
1.33436
0.600303
0.346595
0.387903
0.407802
0.38799
0.356221
0.3304
0.315773
0.306901
0.30243
0.305754
3
2.99996
2.99991
2.99971
2.99943
2.99827
2.99665
2.99021
2.98024
2.94569
2.87396
2.69436
2.23791
1.44684
0.66279
0.367851
0.410604
0.433314
0.415089
0.387692
0.367411
0.35955
0.358503
0.363378
0.377419
3
2.99996
2.99992
2.99974
2.99948
2.99844
2.99698
2.99114
2.98232
2.9507
2.89067
2.7271
2.33251
1.58375
0.736776
0.402994
0.443781
0.465909
0.448808
0.426064
0.410874
0.408883
0.416914
0.43652
0.474224
3
2.99997
2.99993
2.99977
2.99955
2.99865
2.99734
2.99228
2.98444
2.95686
2.90477
2.75823
2.42119
1.70938
0.822026
0.45225
0.484423
0.499793
0.486578
0.469062
0.4597
0.463837
0.485181
0.531968
0.633804
2.99999
2.99994
2.99987
2.99958
2.99918
2.99755
2.99524
2.98615
2.97183
2.92317
2.81951
2.5686
1.96468
1.06748
0.441771
0.318466
0.342602
0.345147
0.31446
0.262312
0.210721
0.168132
0.126037
0.0790824
0.0443991
2.99999
2.99994
2.99987
2.99959
2.99919
2.99758
2.99529
2.9863
2.97213
2.92397
2.82119
2.57306
1.97199
1.07733
0.448044
0.319071
0.34382
0.346915
0.316507
0.265126
0.214826
0.17381
0.134059
0.0926918
0.0684124
2.99999
2.99994
2.99987
2.9996
2.99921
2.99763
2.9954
2.98661
2.97276
2.92563
2.82474
2.58236
1.98802
1.0994
0.462662
0.321711
0.347939
0.352564
0.323215
0.274003
0.226918
0.189744
0.155486
0.123341
0.108139
3
2.99994
2.99988
2.99961
2.99924
2.99772
2.99556
2.98709
2.97372
2.92814
2.83017
2.59652
2.01306
1.13444
0.485178
0.325728
0.35457
0.361869
0.334322
0.288428
0.245791
0.213626
0.18564
0.161539
0.151517
3
2.99995
2.99989
2.99963
2.99928
2.99785
2.9958
2.98789
2.975
2.93225
2.83685
2.61511
2.04705
1.18369
0.515206
0.330711
0.363278
0.374183
0.349006
0.307171
0.269642
0.243084
0.22113
0.203359
0.197088
3
2.99995
2.99989
2.99966
2.99933
2.99799
2.99607
2.98875
2.97653
2.9369
2.84672
2.63891
2.09018
1.24787
0.551579
0.335822
0.373318
0.388887
0.366559
0.329769
0.297723
0.276994
0.261456
0.249933
0.247306
3
2.99996
2.9999
2.99968
2.99938
2.99814
2.99636
2.98957
2.97831
2.94154
2.85863
2.6648
2.154
1.33436
0.600303
0.346595
0.387903
0.407802
0.38799
0.356221
0.3304
0.315773
0.306901
0.30243
0.305754
3
2.99996
2.99991
2.99971
2.99943
2.99827
2.99665
2.99021
2.98024
2.94569
2.87396
2.69436
2.23791
1.44684
0.66279
0.367851
0.410605
0.433315
0.415089
0.387692
0.367411
0.35955
0.358503
0.363378
0.377419
3
2.99996
2.99992
2.99974
2.99948
2.99844
2.99698
2.99114
2.98232
2.9507
2.89067
2.72711
2.33252
1.58375
0.736777
0.402994
0.443781
0.465909
0.448808
0.426064
0.410874
0.408883
0.416914
0.43652
0.474224
3
2.99997
2.99993
2.99977
2.99955
2.99865
2.99734
2.99228
2.98444
2.95686
2.90477
2.75823
2.42119
1.70938
0.822026
0.45225
0.484423
0.499793
0.486578
0.469062
0.4597
0.463837
0.485181
0.531968
0.633804
2.99999
2.99994
2.99987
2.99958
2.99918
2.99755
2.99524
2.98615
2.97183
2.92317
2.81951
2.56861
1.96468
1.06748
0.441772
0.318466
0.342601
0.345147
0.31446
0.262312
0.210721
0.168132
0.126037
0.0790824
0.0443991
2.99999
2.99994
2.99987
2.99959
2.99919
2.99758
2.99529
2.9863
2.97213
2.92397
2.82119
2.57306
1.97199
1.07733
0.448045
0.319071
0.34382
0.346915
0.316507
0.265126
0.214826
0.17381
0.134059
0.0926918
0.0684124
2.99999
2.99994
2.99987
2.9996
2.99921
2.99763
2.9954
2.98661
2.97276
2.92563
2.82474
2.58236
1.98802
1.0994
0.462662
0.321711
0.347939
0.352564
0.323215
0.274003
0.226918
0.189744
0.155486
0.123341
0.108139
3
2.99994
2.99988
2.99961
2.99924
2.99772
2.99556
2.98709
2.97372
2.92814
2.83017
2.59652
2.01306
1.13444
0.485179
0.325728
0.35457
0.361869
0.334322
0.288428
0.245791
0.213626
0.18564
0.161539
0.151517
3
2.99995
2.99989
2.99963
2.99928
2.99785
2.9958
2.98789
2.975
2.93225
2.83685
2.61511
2.04705
1.1837
0.515207
0.330711
0.363278
0.374183
0.349006
0.307171
0.269642
0.243084
0.22113
0.203359
0.197088
3
2.99995
2.99989
2.99966
2.99933
2.99799
2.99607
2.98875
2.97653
2.9369
2.84672
2.63891
2.09018
1.24787
0.55158
0.335821
0.373318
0.388887
0.366559
0.329769
0.297723
0.276994
0.261456
0.249933
0.247306
3
2.99996
2.9999
2.99968
2.99938
2.99814
2.99636
2.98957
2.97831
2.94154
2.85863
2.6648
2.154
1.33436
0.600304
0.346595
0.387903
0.407802
0.38799
0.356221
0.3304
0.315773
0.306901
0.30243
0.305754
3
2.99996
2.99991
2.99971
2.99943
2.99827
2.99665
2.99021
2.98024
2.94569
2.87397
2.69436
2.23791
1.44685
0.662791
0.367851
0.410605
0.433315
0.415089
0.387692
0.367411
0.35955
0.358503
0.363378
0.377419
3
2.99996
2.99992
2.99974
2.99948
2.99844
2.99698
2.99114
2.98232
2.9507
2.89067
2.72711
2.33252
1.58375
0.736778
0.402994
0.443782
0.465909
0.448808
0.426064
0.410874
0.408883
0.416914
0.43652
0.474224
3
2.99997
2.99993
2.99977
2.99955
2.99865
2.99734
2.99228
2.98444
2.95686
2.90477
2.75823
2.42119
1.70938
0.822027
0.45225
0.484423
0.499793
0.486578
0.469062
0.459701
0.463837
0.485181
0.531968
0.633804
2.99999
2.99994
2.99987
2.99958
2.99918
2.99755
2.99524
2.98615
2.97183
2.92317
2.81951
2.56861
1.96469
1.06748
0.441775
0.318465
0.342601
0.345147
0.31446
0.262312
0.210721
0.168132
0.126037
0.0790824
0.044399
2.99999
2.99994
2.99987
2.99959
2.99919
2.99758
2.99529
2.9863
2.97213
2.92397
2.82119
2.57306
1.972
1.07734
0.448049
0.31907
0.343819
0.346915
0.316507
0.265126
0.214826
0.173809
0.134059
0.0926918
0.0684124
2.99999
2.99994
2.99987
2.9996
2.99921
2.99763
2.9954
2.98661
2.97276
2.92563
2.82474
2.58236
1.98803
1.09941
0.462666
0.321709
0.347939
0.352564
0.323215
0.274003
0.226918
0.189744
0.155486
0.123341
0.108139
3
2.99994
2.99988
2.99961
2.99924
2.99772
2.99556
2.98709
2.97372
2.92814
2.83017
2.59652
2.01306
1.13445
0.485182
0.325727
0.354569
0.361869
0.334322
0.288428
0.245791
0.213626
0.18564
0.161539
0.151517
3
2.99995
2.99989
2.99963
2.99928
2.99785
2.9958
2.98789
2.975
2.93225
2.83685
2.61512
2.04705
1.1837
0.515211
0.33071
0.363278
0.374183
0.349006
0.307171
0.269642
0.243084
0.22113
0.203359
0.197088
3
2.99995
2.99989
2.99966
2.99933
2.99799
2.99607
2.98875
2.97653
2.9369
2.84672
2.63891
2.09018
1.24788
0.551584
0.33582
0.373318
0.388887
0.366559
0.329769
0.297723
0.276994
0.261456
0.249933
0.247306
3
2.99996
2.9999
2.99968
2.99938
2.99814
2.99636
2.98957
2.97831
2.94154
2.85863
2.6648
2.15401
1.33437
0.600308
0.346594
0.387903
0.407803
0.38799
0.356221
0.3304
0.315773
0.306901
0.302429
0.305754
3
2.99996
2.99991
2.99971
2.99943
2.99827
2.99665
2.99021
2.98024
2.9457
2.87397
2.69437
2.23792
1.44686
0.662796
0.367851
0.410605
0.433316
0.41509
0.387692
0.367411
0.35955
0.358503
0.363377
0.377419
3
2.99996
2.99992
2.99974
2.99948
2.99844
2.99698
2.99114
2.98232
2.9507
2.89068
2.72711
2.33252
1.58376
0.736783
0.402996
0.443783
0.465911
0.44881
0.426065
0.410875
0.408883
0.416914
0.436519
0.474224
3
2.99997
2.99993
2.99977
2.99955
2.99865
2.99734
2.99228
2.98444
2.95686
2.90477
2.75823
2.4212
1.70939
0.822031
0.452251
0.484424
0.499795
0.486579
0.469063
0.459701
0.463837
0.485181
0.531968
0.633804
3.00001
2.99996
2.99989
2.9996
2.9992
2.99757
2.99526
2.98617
2.97185
2.9232
2.81954
2.56868
1.96476
1.06762
0.441948
0.318644
0.342777
0.345328
0.314662
0.262558
0.211033
0.168529
0.126575
0.0799508
0.0459521
3.00001
2.99996
2.99989
2.99961
2.99921
2.9976
2.99531
2.98632
2.97216
2.92401
2.82122
2.57314
1.97206
1.07747
0.448217
0.319247
0.343993
0.347093
0.316706
0.265366
0.215128
0.174189
0.134558
0.0934235
0.0694152
3.00001
2.99996
2.99989
2.99961
2.99923
2.99765
2.99542
2.98664
2.97279
2.92567
2.82477
2.58244
1.9881
1.09955
0.462831
0.321884
0.348109
0.352738
0.323407
0.274233
0.2272
0.190087
0.15591
0.123883
0.108766
3.00001
2.99996
2.9999
2.99963
2.99926
2.99774
2.99558
2.98711
2.97375
2.92818
2.8302
2.59659
2.01312
1.13458
0.48533
0.325888
0.354728
0.362032
0.334502
0.28864
0.246045
0.213924
0.185989
0.161945
0.151958
3.00001
2.99997
2.9999
2.99965
2.9993
2.99787
2.99582
2.98792
2.97502
2.93229
2.83689
2.61519
2.04714
1.18385
0.515364
0.330876
0.363437
0.374343
0.349177
0.307368
0.269869
0.243339
0.221416
0.203675
0.197419
3.00002
2.99997
2.99991
2.99968
2.99935
2.99801
2.9961
2.98877
2.97655
2.93694
2.84676
2.63899
2.09028
1.24804
0.55173
0.335985
0.373476
0.389043
0.366723
0.32995
0.297926
0.277213
0.261691
0.250183
0.247563
3.00002
2.99997
2.99992
2.9997
2.9994
2.99816
2.99639
2.98959
2.97833
2.94158
2.85867
2.66488
2.15411
1.33454
0.60045
0.346759
0.38806
0.407956
0.388149
0.356391
0.330581
0.315962
0.307096
0.302629
0.305955
3.00002
2.99998
2.99993
2.99973
2.99944
2.99829
2.99667
2.99023
2.98027
2.94574
2.87399
2.69444
2.23799
1.44701
0.662914
0.368001
0.410752
0.433458
0.415237
0.387847
0.367573
0.359713
0.358665
0.363538
0.377575
3.00002
2.99998
2.99994
2.99976
2.9995
2.99846
2.997
2.99116
2.98235
2.95073
2.89071
2.72717
2.33262
1.58392
0.736903
0.403147
0.443925
0.466045
0.448947
0.426206
0.411018
0.409025
0.417049
0.436647
0.47434
3.00002
2.99999
2.99995
2.99979
2.99956
2.99867
2.99736
2.99231
2.98446
2.95689
2.9048
2.75829
2.42126
1.70953
0.82213
0.452383
0.484544
0.499912
0.486701
0.469188
0.459827
0.463959
0.485293
0.532067
0.633882
3.00002
3
2.99994
2.99986
2.99954
2.99907
2.99726
2.99452
2.98462
2.96703
2.9133
2.78671
2.50504
1.84942
0.949581
0.518709
0.521417
0.529765
0.526618
0.514647
0.511153
0.523744
0.562866
0.646273
0.813384
3.00002
3
2.99995
2.99988
2.99959
2.99918
2.99753
2.99519
2.98592
2.97153
2.92223
2.81919
2.56532
1.97083
1.09307
0.599371
0.544814
0.556275
0.562625
0.559124
0.562497
0.584366
0.637102
0.734899
0.899477
3.00002
3.00001
2.99996
2.9999
2.99966
2.99932
2.99793
2.99594
2.98829
2.97581
2.93465
2.84291
2.62994
2.08273
1.24859
0.684228
0.562369
0.577897
0.594234
0.600746
0.611505
0.640363
0.697994
0.790422
0.924205
3.00002
3.00001
2.99997
2.99992
2.99972
2.99943
2.99827
2.9966
2.99024
2.97973
2.94546
2.86869
2.68862
2.21371
1.43565
0.779845
0.58428
0.601497
0.622284
0.638648
0.656851
0.689335
0.744477
0.825113
0.93576
3.00002
3.00001
2.99998
2.99994
2.99977
2.99952
2.99855
2.99714
2.99165
2.98318
2.95334
2.89655
2.73946
2.37427
1.6388
0.902261
0.63117
0.637529
0.654597
0.674487
0.696799
0.731217
0.783747
0.852621
0.944928
3.00002
3.00001
3
2.99994
2.99986
2.99954
2.99908
2.99729
2.99458
2.98485
2.96748
2.91501
2.79125
2.51733
1.89174
1.05333
0.697914
0.682671
0.695108
0.713442
0.734164
0.766304
0.816456
0.879128
0.955632
3.00002
3.00001
3
2.99996
2.99989
2.99963
2.99925
2.99774
2.9956
2.98714
2.97406
2.92912
2.83522
2.60747
2.05411
1.22864
0.779935
0.715296
0.728653
0.74685
0.769745
0.798919
0.84239
0.901298
0.969244
3.00002
3.00002
3.00001
2.99997
2.99992
2.99972
2.99943
2.9983
2.99662
2.99046
2.97967
2.94621
2.8684
2.68986
2.21636
1.44742
0.888147
0.744778
0.75418
0.773146
0.800436
0.83075
0.867758
0.91859
0.980639
3.00002
3.00002
3.00001
2.99999
2.99993
2.99984
2.99949
2.99897
2.99708
2.99376
2.98349
2.96035
2.90293
2.7476
2.43967
1.71431
1.04804
0.797602
0.78743
0.801664
0.827557
0.859346
0.895111
0.937156
0.991098
3.00002
3.00002
3.00001
3
2.99995
2.99988
2.9996
2.99919
2.99757
2.99521
2.9863
2.97156
2.92402
2.81857
2.57484
2.00024
1.20882
0.866997
0.827108
0.83727
0.858309
0.886674
0.920059
0.957926
1.0031
3.00003
3.00002
3.00002
3
2.99998
2.9999
2.99977
2.9993
2.99857
2.99602
2.9914
2.97748
2.94519
2.86758
2.65347
2.24646
1.4085
0.968572
0.860253
0.865812
0.885272
0.912681
0.942539
0.977589
1.01723
3.00003
3.00002
3.00002
3.00001
2.99999
2.99993
2.99983
2.99945
2.99891
2.99677
2.99359
2.98212
2.9614
2.90041
2.75134
2.4418
1.74129
1.12583
0.913895
0.899968
0.912487
0.935818
0.964711
0.995645
1.03099
3.00003
3.00003
3.00002
3.00002
3
2.99997
2.99985
2.99968
2.99902
2.99804
2.99434
2.9885
2.96841
2.93113
2.82353
2.59251
2.0361
1.30314
0.98647
0.934019
0.940725
0.959651
0.986564
1.01498
1.04602
3.00003
3.00003
3.00002
3.00002
3.00001
2.99998
2.9999
2.99978
2.9993
2.99861
2.99595
2.99193
2.97775
2.9515
2.8769
2.69406
2.31651
1.55562
1.10979
0.974506
0.969334
0.98098
1.00412
1.03206
1.06038
3.00003
3.00003
3.00003
3.00002
3.00002
2.99999
2.99995
2.99981
2.99961
2.99882
2.99764
2.99326
2.98628
2.96286
2.91825
2.79509
2.52469
1.92051
1.26843
1.03348
1.00366
1.00891
1.02576
1.04995
1.07446
3.00003
3.00003
3.00003
3.00002
3.00002
3
2.99998
2.99988
2.99973
2.99917
2.99836
2.99522
2.99051
2.97365
2.94343
2.85767
2.6548
2.21913
1.46786
1.11167
1.0359
1.0349
1.04756
1.06639
1.08629
3.00003
3.00003
3.00003
3.00003
3.00002
3.00001
2.99998
2.99994
2.99978
2.99954
2.99862
2.99726
2.99218
2.98413
2.95718
2.90386
2.7653
2.43858
1.79234
1.24802
1.0787
1.06194
1.06933
1.08313
1.09702
3.00003
3.00003
3.00003
3.00003
3.00002
3.00002
3
2.99997
2.99985
2.99969
2.99905
2.99812
2.99459
2.98919
2.9701
2.93689
2.83515
2.63367
2.11474
1.45635
1.15429
1.09145
1.08749
1.09256
1.09756
3.00003
3.00003
3.00003
3.00003
3.00003
3.00002
3.00001
2.99998
2.99993
2.99976
2.99949
2.99851
2.99702
2.99156
2.98278
2.95395
2.89497
2.74806
2.39538
1.73049
1.27804
1.13068
1.10699
1.09931
1.08938
3.00003
3.00003
3.00003
3.00003
3.00003
3.00002
3.00002
3
2.99995
2.99988
2.9996
2.9992
2.99767
2.99536
2.9871
2.97307
2.92998
2.83473
2.61942
2.12103
1.45991
1.18938
1.12526
1.09917
1.07176
3.00003
3.00003
3.00003
3.00003
3.00003
3.00003
3.00002
3.00001
2.99998
2.99993
2.99974
2.99947
2.99842
2.9969
2.99109
2.98221
2.95161
2.89319
2.74143
2.38019
1.72549
1.28802
1.1358
1.07835
1.03014
3.00003
3.00003
3.00003
3.00003
3.00003
3.00003
3.00002
3.00002
3
2.99995
2.99987
2.99959
2.99916
2.99757
2.99518
2.98651
2.97217
2.92726
2.8322
2.60353
2.11226
1.45201
1.15571
1.03812
0.962734
3.00003
3.00003
3.00003
3.00003
3.00003
3.00003
3.00003
3.00002
3.00001
2.99997
2.99992
2.99972
2.99943
2.9983
2.9967
2.99049
2.98112
2.9485
2.8864
2.72643
2.34156
1.68237
1.18015
0.962514
0.86821
3.00003
3.00003
3.00003
3.00003
3.00003
3.00003
3.00003
3.00002
3.00002
2.99999
2.99995
2.99981
2.99961
2.99879
2.99764
2.99313
2.98644
2.9621
2.91956
2.79344
2.52675
1.93085
1.212
0.856554
0.750523
3.00003
3.00003
3.00003
3.00003
3.00003
3.00003
3.00003
3.00002
3.00002
3
2.99997
2.99987
2.99972
2.99913
2.99825
2.99503
2.98957
2.97212
2.93371
2.83791
2.58191
2.0884
1.21821
0.725613
0.606538
3.00003
3.00003
3.00003
3.00003
3.00003
3.00003
3.00003
3.00003
3.00002
3.00001
2.99997
2.99992
2.99972
2.99941
2.99827
2.99636
2.99024
2.97714
2.9422
2.85085
2.65375
2.10735
1.28972
0.6122
0.454941
3.00003
3.00003
3.00003
3.00003
3.00003
3.00003
3.00003
3.00003
3.00002
3.00001
2.99999
2.99992
2.99981
2.99943
2.99874
2.99664
2.99179
2.97946
2.94645
2.87212
2.64389
2.21537
1.29185
0.560839
0.336614
3.00003
3.00003
3.00003
3.00003
3.00003
3.00003
3.00003
3.00003
3.00002
3.00001
2.99998
2.99994
2.99976
2.99949
2.99845
2.99686
2.99106
2.98048
2.94816
2.86936
2.68857
2.19019
1.37167
0.536512
0.2579
3.00003
3.00003
3.00003
3.00003
3.00003
3.00003
3.00003
3.00003
3.00002
3.00001
2.99998
2.99994
2.99977
2.99952
2.99852
2.99703
2.99132
2.98167
2.95024
2.87722
2.70342
2.23301
1.41569
0.545225
0.223762
3.00003
3.00003
3.00003
3.00003
3.00003
3.00003
3.00003
3.00003
3.00002
3.00001
3
2.99994
2.99984
2.9995
2.99893
2.99708
2.99312
2.98247
2.95489
2.89105
2.69897
2.32655
1.4644
0.612326
0.254918
3.00003
3.00003
3.00003
3.00003
3.00003
3.00003
3.00003
3.00003
3.00002
3.00002
2.99999
2.99995
2.9998
2.99957
2.9987
2.99731
2.99244
2.98329
2.9556
2.88879
2.73216
2.31575
1.5425
0.61773
0.235861
3.00003
3.00003
3.00003
3.00003
3.00003
3.00003
3.00003
3.00003
3.00002
3.00001
3
2.99994
2.99985
2.9995
2.99897
2.99702
2.9937
2.98295
2.95927
2.89809
2.73123
2.39533
1.6139
0.685416
0.268801
3.00003
3.00003
3.00003
3.00003
3.00003
3.00003
3.00003
3.00003
3.00002
3.00001
3
2.99994
2.99985
2.9995
2.999
2.99705
2.9939
2.98333
2.96121
2.90168
2.74374
2.41988
1.66888
0.716014
0.282993
3.00003
3.00003
3.00003
3.00003
3.00003
3.00003
3.00003
3.00003
3.00002
3.00002
2.99999
2.99996
2.99981
2.9996
2.9988
2.99753
2.99306
2.98473
2.95955
2.8995
2.75818
2.3847
1.66831
0.697782
0.269651
3.00003
3.00003
3.00003
3.00003
3.00003
3.00003
3.00003
3.00003
3.00002
3.00001
3
2.99995
2.99986
2.99955
2.99906
2.99737
2.99417
2.98468
2.96225
2.907
2.75483
2.44787
1.71864
0.770704
0.314257
3.00003
3.00003
3.00003
3.00003
3.00003
3.00003
3.00003
3.00003
3.00002
3.00002
2.99999
2.99996
2.99982
2.99962
2.99883
2.99761
2.9933
2.9853
2.9612
2.9038
2.7694
2.40988
1.72038
0.740408
0.296164
3.00003
3.00003
3.00003
3.00003
3.00003
3.00003
3.00003
3.00003
3.00002
3.00001
3
2.99994
2.99986
2.99952
2.99904
2.99714
2.99423
2.9839
2.96447
2.90742
2.76556
2.4612
1.75341
0.814195
0.34238
3.00003
3.00003
3.00003
3.00003
3.00003
3.00003
3.00003
3.00003
3.00002
3.00001
3
2.99994
2.99986
2.99952
2.99904
2.99714
2.99425
2.9839
2.96478
2.90793
2.76841
2.46554
1.76579
0.829085
0.354182
3.00003
3.00003
3.00003
3.00003
3.00003
3.00003
3.00003
3.00003
3.00002
3.00002
2.99999
2.99996
2.99982
2.99961
2.9988
2.99761
2.99302
2.98571
2.96067
2.90876
2.77459
2.43492
1.75665
0.778997
0.32643
3.00003
3.00003
3.00003
3.00003
3.00003
3.00003
3.00003
3.00003
3.00002
3.00002
2.99999
2.99995
2.99981
2.9996
2.99875
2.99756
2.99275
2.98557
2.95922
2.91073
2.77288
2.44392
1.76319
0.785325
0.3321
3
2.99998
2.99993
2.99984
2.99952
2.99906
2.99724
2.9945
2.98459
2.967
2.91327
2.78666
2.50498
1.84931
0.949421
0.518562
0.52131
0.529662
0.526511
0.514537
0.511043
0.523639
0.562773
0.646198
0.813335
3
2.99998
2.99993
2.99986
2.99957
2.99916
2.99751
2.99517
2.98589
2.9715
2.9222
2.81916
2.56524
1.97074
1.09292
0.599239
0.54472
0.556183
0.562532
0.559027
0.5624
0.584275
0.637022
0.734835
0.899433
3
2.99999
2.99994
2.99988
2.99964
2.9993
2.9979
2.99592
2.98827
2.97578
2.93461
2.84287
2.62986
2.08264
1.24843
0.684103
0.562279
0.577811
0.594148
0.600659
0.611419
0.640283
0.697925
0.790365
0.924162
3
2.99999
2.99996
2.9999
2.9997
2.99941
2.99825
2.99658
2.99021
2.97971