/*--------------------------------*- C++ -*----------------------------------*\
| =========                 |                                                 |
| \\      /  F ield         | OpenFOAM: The Open Source CFD Toolbox           |
|  \\    /   O peration     | Version:  4.1                                   |
|   \\  /    A nd           | Web:      www.OpenFOAM.org                      |
|    \\/     M anipulation  |                                                 |
\*---------------------------------------------------------------------------*/
FoamFile
{
    version     2.0;
    format      ascii;
    class       volScalarField;
    location    "8.06";
    object      T;
}
// * * * * * * * * * * * * * * * * * * * * * * * * * * * * * * * * * * * * * //

dimensions      [0 0 0 1 0 0 0];

internalField   nonuniform List<scalar> 
52500
(
0.999996
1.00002
1.00005
1.00019
1.00035
1.00112
1.00206
1.00629
1.01258
1.03388
1.08616
1.2016
1.58456
2.44287
2.68749
2.72792
2.72444
2.72461
2.73846
2.75067
2.76417
2.77317
2.78045
2.78566
2.79024
0.999996
1.00002
1.00005
1.00019
1.00034
1.00111
1.00204
1.00622
1.01245
1.0335
1.0854
1.19905
1.58009
2.43481
2.68466
2.72782
2.72407
2.7242
2.7379
2.74988
2.76328
2.77173
2.77906
2.78338
2.78722
0.999996
1.00002
1.00005
1.00018
1.00034
1.00109
1.00199
1.00607
1.01217
1.03272
1.08378
1.19382
1.57013
2.41662
2.67747
2.72669
2.72234
2.72236
2.73586
2.74768
2.76089
2.76953
2.77542
2.78066
2.78327
0.999996
1.00002
1.00005
1.00018
1.00032
1.00105
1.00192
1.00585
1.01175
1.03156
1.08129
1.18598
1.55453
2.38701
2.6662
2.72472
2.71974
2.71862
2.73184
2.74327
2.75529
2.76499
2.77155
2.77398
2.77838
0.999996
1.00002
1.00004
1.00017
1.0003
1.00099
1.00182
1.00545
1.01124
1.02947
1.07837
1.17596
1.5334
2.34418
2.65034
2.72208
2.71625
2.71371
2.72601
2.73788
2.74919
2.75509
2.76267
2.76757
2.76778
0.999995
1.00002
1.00004
1.00015
1.00028
1.00092
1.00171
1.00504
1.01058
1.02728
1.07368
1.16279
1.50829
2.29023
2.6297
2.71892
2.71233
2.70732
2.71952
2.72793
2.74176
2.7482
2.75208
2.75475
2.75808
0.999995
1.00002
1.00004
1.00014
1.00026
1.00085
1.00158
1.00468
1.00976
1.02527
1.0677
1.15072
1.46503
2.2109
2.60108
2.71314
2.70643
2.69977
2.71219
2.71965
2.72683
2.73397
2.73874
2.73993
2.73747
0.999995
1.00001
1.00003
1.00013
1.00024
1.00079
1.00145
1.00445
1.00878
1.02386
1.05947
1.13787
1.40725
2.10339
2.5643
2.70328
2.69505
2.68637
2.69861
2.70924
2.71726
2.71786
2.71924
2.71794
2.71518
0.999995
1.00001
1.00003
1.00012
1.00022
1.00071
1.0013
1.00405
1.00776
1.02202
1.05058
1.12363
1.34538
1.97487
2.51557
2.69169
2.68493
2.67111
2.68156
2.68679
2.69724
2.69958
2.69616
2.68697
2.66413
0.999995
1.00001
1.00003
1.0001
1.00019
1.00062
1.00114
1.00352
1.00683
1.01929
1.0436
1.11002
1.29079
1.87127
2.44061
2.66455
2.6636
2.65883
2.67096
2.67162
2.6737
2.67243
2.66322
2.64164
2.59129
1.00001
1.00003
1.00006
1.0002
1.00036
1.00113
1.00207
1.0063
1.01259
1.0339
1.08617
1.20164
1.58459
2.443
2.68758
2.72799
2.72451
2.72469
2.73854
2.75075
2.76425
2.77325
2.78053
2.78575
2.79033
1.00001
1.00003
1.00006
1.00019
1.00035
1.00112
1.00205
1.00623
1.01246
1.03352
1.08541
1.1991
1.58012
2.43493
2.68474
2.72789
2.72415
2.72427
2.73798
2.74996
2.76336
2.77181
2.77914
2.78347
2.78731
1
1.00003
1.00006
1.00019
1.00034
1.00109
1.002
1.00608
1.01218
1.03274
1.08379
1.19387
1.57017
2.41675
2.67755
2.72676
2.72241
2.72243
2.73594
2.74776
2.76097
2.76961
2.7755
2.78074
2.78335
1
1.00003
1.00006
1.00018
1.00033
1.00106
1.00193
1.00586
1.01176
1.03158
1.0813
1.18602
1.55456
2.38713
2.66629
2.72479
2.71981
2.7187
2.73192
2.74335
2.75537
2.76507
2.77163
2.77406
2.77847
1
1.00003
1.00005
1.00017
1.00031
1.00099
1.00183
1.00546
1.01125
1.02949
1.07839
1.17601
1.53345
2.34431
2.65042
2.72215
2.71632
2.71379
2.72608
2.73796
2.74927
2.75517
2.76275
2.76766
2.76786
1
1.00003
1.00005
1.00016
1.00029
1.00093
1.00171
1.00505
1.01059
1.02729
1.0737
1.16284
1.50833
2.29037
2.62978
2.71899
2.7124
2.70739
2.71959
2.72799
2.74183
2.74828
2.75216
2.75483
2.75816
1
1.00002
1.00005
1.00015
1.00027
1.00086
1.00159
1.00469
1.00977
1.02529
1.06771
1.15077
1.46509
2.21107
2.60116
2.71321
2.7065
2.69984
2.71226
2.71973
2.7269
2.73404
2.73881
2.74001
2.73754
1
1.00002
1.00004
1.00014
1.00025
1.0008
1.00145
1.00446
1.00879
1.02388
1.05948
1.13791
1.40728
2.10353
2.56438
2.70334
2.69512
2.68644
2.69867
2.70931
2.71733
2.71793
2.71931
2.71802
2.71525
1
1.00002
1.00004
1.00012
1.00023
1.00072
1.00131
1.00406
1.00777
1.02204
1.05059
1.12366
1.34543
1.975
2.51567
2.69176
2.685
2.67118
2.68162
2.68685
2.69731
2.69965
2.69622
2.68703
2.66419
1
1.00002
1.00003
1.00011
1.0002
1.00063
1.00115
1.00353
1.00684
1.0193
1.04361
1.11006
1.29082
1.87142
2.44064
2.6646
2.66366
2.6589
2.67102
2.67168
2.67376
2.67249
2.66328
2.6417
2.59135
1.00001
1.00003
1.00006
1.0002
1.00036
1.00113
1.00207
1.0063
1.01259
1.0339
1.08617
1.20164
1.58459
2.443
2.68758
2.72799
2.72451
2.72469
2.73854
2.75075
2.76425
2.77325
2.78053
2.78575
2.79033
1.00001
1.00003
1.00006
1.00019
1.00035
1.00112
1.00205
1.00623
1.01246
1.03352
1.08541
1.1991
1.58012
2.43494
2.68475
2.72789
2.72415
2.72427
2.73798
2.74996
2.76336
2.77181
2.77914
2.78347
2.78731
1
1.00003
1.00006
1.00019
1.00034
1.00109
1.002
1.00608
1.01218
1.03274
1.08379
1.19387
1.57017
2.41676
2.67755
2.72676
2.72241
2.72243
2.73594
2.74776
2.76097
2.76961
2.7755
2.78074
2.78335
1
1.00003
1.00006
1.00018
1.00033
1.00106
1.00193
1.00586
1.01176
1.03158
1.0813
1.18602
1.55456
2.38714
2.66629
2.72479
2.71981
2.7187
2.73192
2.74335
2.75537
2.76507
2.77163
2.77406
2.77847
1
1.00003
1.00005
1.00017
1.00031
1.00099
1.00183
1.00546
1.01125
1.02949
1.07839
1.17601
1.53345
2.34432
2.65043
2.72215
2.71632
2.71379
2.72608
2.73796
2.74927
2.75517
2.76275
2.76766
2.76786
1
1.00003
1.00005
1.00016
1.00029
1.00093
1.00171
1.00505
1.01059
1.02729
1.0737
1.16284
1.50834
2.29038
2.62978
2.71899
2.7124
2.70739
2.71959
2.72799
2.74183
2.74828
2.75216
2.75483
2.75816
1
1.00002
1.00005
1.00015
1.00027
1.00086
1.00159
1.00469
1.00977
1.02529
1.06771
1.15077
1.46509
2.21108
2.60116
2.71321
2.7065
2.69984
2.71227
2.71973
2.7269
2.73404
2.73881
2.74001
2.73754
1
1.00002
1.00004
1.00014
1.00025
1.0008
1.00145
1.00446
1.00879
1.02388
1.05948
1.13791
1.40728
2.10354
2.56438
2.70334
2.69512
2.68644
2.69867
2.70931
2.71733
2.71793
2.71931
2.71802
2.71525
1
1.00002
1.00004
1.00012
1.00023
1.00072
1.00131
1.00406
1.00777
1.02204
1.05059
1.12366
1.34544
1.97501
2.51567
2.69177
2.685
2.67118
2.68162
2.68685
2.69731
2.69965
2.69622
2.68703
2.66419
1
1.00002
1.00003
1.00011
1.0002
1.00063
1.00115
1.00353
1.00684
1.0193
1.04361
1.11006
1.29082
1.87143
2.44063
2.6646
2.66366
2.6589
2.67102
2.67168
2.67376
2.67249
2.66328
2.6417
2.59135
1.00001
1.00003
1.00006
1.0002
1.00036
1.00113
1.00207
1.0063
1.01259
1.0339
1.08617
1.20164
1.58459
2.443
2.68758
2.72799
2.72451
2.72469
2.73854
2.75075
2.76425
2.77325
2.78053
2.78575
2.79033
1.00001
1.00003
1.00006
1.00019
1.00035
1.00112
1.00205
1.00623
1.01246
1.03352
1.08541
1.1991
1.58012
2.43494
2.68475
2.72789
2.72415
2.72427
2.73798
2.74996
2.76336
2.77181
2.77914
2.78347
2.78731
1
1.00003
1.00006
1.00019
1.00034
1.00109
1.002
1.00608
1.01218
1.03274
1.08379
1.19387
1.57017
2.41676
2.67756
2.72676
2.72241
2.72243
2.73594
2.74776
2.76097
2.76961
2.7755
2.78074
2.78335
1
1.00003
1.00006
1.00018
1.00033
1.00106
1.00193
1.00586
1.01176
1.03158
1.0813
1.18602
1.55456
2.38714
2.66629
2.72479
2.71981
2.7187
2.73192
2.74335
2.75537
2.76507
2.77163
2.77406
2.77847
1
1.00003
1.00005
1.00017
1.00031
1.00099
1.00183
1.00546
1.01125
1.02949
1.07839
1.17601
1.53345
2.34432
2.65043
2.72215
2.71632
2.71379
2.72608
2.73796
2.74927
2.75517
2.76275
2.76766
2.76786
1
1.00003
1.00005
1.00016
1.00029
1.00093
1.00171
1.00505
1.01059
1.02729
1.0737
1.16284
1.50834
2.29038
2.62978
2.71899
2.7124
2.70739
2.71959
2.72799
2.74183
2.74828
2.75216
2.75483
2.75816
1
1.00002
1.00005
1.00015
1.00027
1.00086
1.00159
1.00469
1.00977
1.02529
1.06771
1.15077
1.46509
2.21108
2.60116
2.71321
2.7065
2.69984
2.71227
2.71973
2.7269
2.73404
2.73881
2.74001
2.73754
1
1.00002
1.00004
1.00014
1.00025
1.0008
1.00145
1.00446
1.00879
1.02388
1.05948
1.13791
1.40728
2.10355
2.56438
2.70334
2.69512
2.68644
2.69867
2.70931
2.71733
2.71793
2.71931
2.71802
2.71525
1
1.00002
1.00004
1.00012
1.00023
1.00072
1.00131
1.00406
1.00777
1.02204
1.05059
1.12366
1.34544
1.97501
2.51567
2.69177
2.685
2.67118
2.68162
2.68685
2.69731
2.69965
2.69622
2.68703
2.66419
1
1.00002
1.00003
1.00011
1.0002
1.00063
1.00115
1.00353
1.00684
1.0193
1.04361
1.11006
1.29082
1.87143
2.44063
2.6646
2.66366
2.6589
2.67102
2.67168
2.67376
2.67249
2.66328
2.6417
2.59135
1.00001
1.00003
1.00006
1.0002
1.00036
1.00113
1.00207
1.0063
1.01259
1.0339
1.08617
1.20164
1.5846
2.443
2.68758
2.72799
2.72451
2.72469
2.73854
2.75075
2.76425
2.77325
2.78053
2.78575
2.79033
1.00001
1.00003
1.00006
1.00019
1.00035
1.00112
1.00205
1.00623
1.01246
1.03352
1.08541
1.1991
1.58012
2.43494
2.68475
2.72789
2.72415
2.72427
2.73798
2.74996
2.76336
2.77181
2.77914
2.78347
2.78731
1
1.00003
1.00006
1.00019
1.00034
1.00109
1.002
1.00608
1.01218
1.03274
1.08379
1.19387
1.57017
2.41676
2.67756
2.72676
2.72241
2.72243
2.73594
2.74776
2.76097
2.76961
2.7755
2.78074
2.78335
1
1.00003
1.00006
1.00018
1.00033
1.00106
1.00193
1.00586
1.01176
1.03158
1.0813
1.18602
1.55456
2.38714
2.66629
2.72479
2.71981
2.7187
2.73192
2.74335
2.75537
2.76507
2.77163
2.77406
2.77847
1
1.00003
1.00005
1.00017
1.00031
1.00099
1.00183
1.00546
1.01125
1.02949
1.07839
1.17601
1.53345
2.34432
2.65043
2.72215
2.71632
2.71379
2.72608
2.73796
2.74927
2.75517
2.76275
2.76766
2.76786
1
1.00003
1.00005
1.00016
1.00029
1.00093
1.00171
1.00505
1.01059
1.02729
1.0737
1.16284
1.50834
2.29038
2.62978
2.71899
2.7124
2.70739
2.71959
2.72799
2.74183
2.74828
2.75216
2.75483
2.75816
1
1.00002
1.00005
1.00015
1.00027
1.00086
1.00159
1.00469
1.00977
1.02529
1.06771
1.15077
1.46509
2.21108
2.60116
2.71321
2.7065
2.69984
2.71227
2.71973
2.7269
2.73404
2.73881
2.74001
2.73754
1
1.00002
1.00004
1.00014
1.00025
1.0008
1.00145
1.00446
1.00879
1.02388
1.05948
1.13791
1.40728
2.10355
2.56438
2.70334
2.69512
2.68644
2.69867
2.70931
2.71733
2.71793
2.71931
2.71802
2.71525
1
1.00002
1.00004
1.00012
1.00023
1.00072
1.00131
1.00406
1.00777
1.02204
1.05059
1.12366
1.34544
1.97502
2.51567
2.69177
2.685
2.67118
2.68162
2.68685
2.69731
2.69965
2.69622
2.68703
2.66419
1
1.00002
1.00003
1.00011
1.0002
1.00063
1.00115
1.00353
1.00684
1.0193
1.04361
1.11006
1.29082
1.87143
2.44063
2.6646
2.66366
2.6589
2.67102
2.67168
2.67376
2.67249
2.66328
2.6417
2.59135
1.00001
1.00003
1.00006
1.0002
1.00036
1.00113
1.00207
1.0063
1.01259
1.0339
1.08617
1.20164
1.5846
2.443
2.68758
2.72799
2.72451
2.72469
2.73854
2.75075
2.76425
2.77325
2.78053
2.78575
2.79033
1.00001
1.00003
1.00006
1.00019
1.00035
1.00112
1.00205
1.00623
1.01246
1.03352
1.08541
1.1991
1.58012
2.43494
2.68475
2.72789
2.72415
2.72427
2.73798
2.74996
2.76336
2.77181
2.77914
2.78347
2.78731
1
1.00003
1.00006
1.00019
1.00034
1.00109
1.002
1.00608
1.01218
1.03274
1.08379
1.19387
1.57017
2.41676
2.67756
2.72676
2.72241
2.72243
2.73594
2.74776
2.76097
2.76961
2.7755
2.78074
2.78335
1
1.00003
1.00006
1.00018
1.00033
1.00106
1.00193
1.00586
1.01176
1.03158
1.0813
1.18602
1.55456
2.38714
2.66629
2.72479
2.71981
2.7187
2.73192
2.74335
2.75537
2.76507
2.77163
2.77406
2.77847
1
1.00003
1.00005
1.00017
1.00031
1.00099
1.00183
1.00546
1.01125
1.02949
1.07839
1.17601
1.53345
2.34432
2.65043
2.72215
2.71632
2.71379
2.72608
2.73796
2.74927
2.75517
2.76275
2.76766
2.76786
1
1.00003
1.00005
1.00016
1.00029
1.00093
1.00171
1.00505
1.01059
1.02729
1.0737
1.16284
1.50834
2.29038
2.62978
2.71899
2.7124
2.70739
2.71959
2.72799
2.74183
2.74828
2.75216
2.75483
2.75816
1
1.00002
1.00005
1.00015
1.00027
1.00086
1.00159
1.00469
1.00977
1.02529
1.06771
1.15077
1.46509
2.21108
2.60116
2.71321
2.7065
2.69984
2.71227
2.71973
2.7269
2.73404
2.73881
2.74001
2.73754
1
1.00002
1.00004
1.00014
1.00025
1.0008
1.00145
1.00446
1.00879
1.02388
1.05948
1.13791
1.40728
2.10355
2.56438
2.70334
2.69512
2.68644
2.69867
2.70931
2.71733
2.71793
2.71931
2.71802
2.71525
1
1.00002
1.00004
1.00012
1.00023
1.00072
1.00131
1.00406
1.00777
1.02204
1.05059
1.12366
1.34544
1.97502
2.51567
2.69177
2.685
2.67118
2.68162
2.68685
2.69731
2.69965
2.69622
2.68703
2.66419
1
1.00002
1.00003
1.00011
1.0002
1.00063
1.00115
1.00353
1.00684
1.0193
1.04361
1.11006
1.29082
1.87143
2.44063
2.6646
2.66367
2.6589
2.67102
2.67168
2.67376
2.67249
2.66328
2.6417
2.59135
1.00001
1.00003
1.00006
1.0002
1.00036
1.00113
1.00207
1.0063
1.01259
1.0339
1.08617
1.20164
1.5846
2.443
2.68758
2.72799
2.72451
2.72469
2.73854
2.75075
2.76425
2.77325
2.78053
2.78575
2.79033
1.00001
1.00003
1.00006
1.00019
1.00035
1.00112
1.00205
1.00623
1.01246
1.03352
1.08541
1.1991
1.58012
2.43494
2.68475
2.72789
2.72415
2.72427
2.73798
2.74996
2.76336
2.77181
2.77914
2.78347
2.78731
1
1.00003
1.00006
1.00019
1.00034
1.00109
1.002
1.00608
1.01218
1.03274
1.08379
1.19387
1.57017
2.41676
2.67756
2.72676
2.72241
2.72243
2.73594
2.74776
2.76097
2.76961
2.7755
2.78074
2.78335
1
1.00003
1.00006
1.00018
1.00033
1.00106
1.00193
1.00586
1.01176
1.03158
1.0813
1.18602
1.55456
2.38714
2.66629
2.72479
2.71981
2.7187
2.73192
2.74335
2.75537
2.76507
2.77163
2.77406
2.77847
1
1.00003
1.00005
1.00017
1.00031
1.00099
1.00183
1.00546
1.01125
1.02949
1.07839
1.17601
1.53345
2.34432
2.65043
2.72215
2.71632
2.71379
2.72608
2.73796
2.74927
2.75517
2.76275
2.76766
2.76786
1
1.00003
1.00005
1.00016
1.00029
1.00093
1.00171
1.00505
1.01059
1.02729
1.0737
1.16284
1.50834
2.29038
2.62978
2.71899
2.7124
2.70739
2.71959
2.72799
2.74183
2.74828
2.75216
2.75483
2.75816
1
1.00002
1.00005
1.00015
1.00027
1.00086
1.00159
1.00469
1.00977
1.02529
1.06771
1.15077
1.46509
2.21108
2.60116
2.71321
2.7065
2.69984
2.71227
2.71973
2.7269
2.73404
2.73881
2.74001
2.73754
1
1.00002
1.00004
1.00014
1.00025
1.0008
1.00145
1.00446
1.00879
1.02388
1.05948
1.13791
1.40728
2.10355
2.56438
2.70334
2.69512
2.68644
2.69867
2.70931
2.71733
2.71793
2.71931
2.71802
2.71525
1
1.00002
1.00004
1.00012
1.00023
1.00072
1.00131
1.00406
1.00777
1.02204
1.05059
1.12366
1.34544
1.97502
2.51567
2.69177
2.685
2.67118
2.68162
2.68685
2.69731
2.69965
2.69622
2.68703
2.66419
1
1.00002
1.00003
1.00011
1.0002
1.00063
1.00115
1.00353
1.00684
1.0193
1.04361
1.11006
1.29082
1.87143
2.44063
2.6646
2.66366
2.6589
2.67102
2.67168
2.67376
2.67249
2.66328
2.6417
2.59135
1.00001
1.00003
1.00006
1.0002
1.00036
1.00113
1.00207
1.0063
1.01259
1.0339
1.08617
1.20164
1.58459
2.443
2.68758
2.72799
2.72451
2.72469
2.73854
2.75075
2.76425
2.77325
2.78053
2.78575
2.79033
1.00001
1.00003
1.00006
1.00019
1.00035
1.00112
1.00205
1.00623
1.01246
1.03352
1.08541
1.1991
1.58012
2.43494
2.68475
2.72789
2.72415
2.72427
2.73798
2.74996
2.76336
2.77181
2.77914
2.78347
2.78731
1
1.00003
1.00006
1.00019
1.00034
1.00109
1.002
1.00608
1.01218
1.03274
1.08379
1.19387
1.57017
2.41676
2.67755
2.72676
2.72241
2.72243
2.73594
2.74776
2.76097
2.76961
2.7755
2.78074
2.78335
1
1.00003
1.00006
1.00018
1.00033
1.00106
1.00193
1.00586
1.01176
1.03158
1.0813
1.18602
1.55456
2.38714
2.66629
2.72479
2.71981
2.7187
2.73192
2.74335
2.75537
2.76507
2.77163
2.77406
2.77847
1
1.00003
1.00005
1.00017
1.00031
1.00099
1.00183
1.00546
1.01125
1.02949
1.07839
1.17601
1.53345
2.34432
2.65043
2.72215
2.71632
2.71379
2.72608
2.73796
2.74927
2.75517
2.76275
2.76766
2.76786
1
1.00003
1.00005
1.00016
1.00029
1.00093
1.00171
1.00505
1.01059
1.02729
1.0737
1.16284
1.50834
2.29038
2.62978
2.71899
2.7124
2.70739
2.71959
2.72799
2.74183
2.74828
2.75216
2.75483
2.75816
1
1.00002
1.00005
1.00015
1.00027
1.00086
1.00159
1.00469
1.00977
1.02529
1.06771
1.15077
1.46509
2.21108
2.60116
2.71321
2.7065
2.69984
2.71227
2.71973
2.7269
2.73404
2.73881
2.74001
2.73754
1
1.00002
1.00004
1.00014
1.00025
1.0008
1.00145
1.00446
1.00879
1.02388
1.05948
1.13791
1.40728
2.10355
2.56438
2.70334
2.69512
2.68644
2.69867
2.70931
2.71733
2.71793
2.71931
2.71802
2.71525
1
1.00002
1.00004
1.00012
1.00023
1.00072
1.00131
1.00406
1.00777
1.02204
1.05059
1.12366
1.34544
1.97501
2.51567
2.69177
2.685
2.67118
2.68162
2.68685
2.69731
2.69965
2.69622
2.68703
2.66419
1
1.00002
1.00003
1.00011
1.0002
1.00063
1.00115
1.00353
1.00684
1.0193
1.04361
1.11006
1.29082
1.87143
2.44063
2.6646
2.66366
2.6589
2.67102
2.67168
2.67376
2.67249
2.66328
2.6417
2.59135
1.00001
1.00003
1.00006
1.0002
1.00036
1.00113
1.00207
1.0063
1.01259
1.0339
1.08617
1.20164
1.58459
2.443
2.68758
2.72799
2.72451
2.72469
2.73854
2.75075
2.76425
2.77325
2.78053
2.78575
2.79033
1.00001
1.00003
1.00006
1.00019
1.00035
1.00112
1.00205
1.00623
1.01246
1.03352
1.08541
1.1991
1.58012
2.43493
2.68474
2.72789
2.72415
2.72427
2.73798
2.74996
2.76336
2.77181
2.77914
2.78347
2.78731
1
1.00003
1.00006
1.00019
1.00034
1.00109
1.002
1.00608
1.01218
1.03274
1.08379
1.19387
1.57017
2.41675
2.67755
2.72676
2.72241
2.72243
2.73594
2.74776
2.76097
2.76961
2.7755
2.78074
2.78335
1
1.00003
1.00006
1.00018
1.00033
1.00106
1.00193
1.00586
1.01176
1.03158
1.0813
1.18602
1.55456
2.38713
2.66629
2.72479
2.71981
2.7187
2.73192
2.74335
2.75537
2.76507
2.77163
2.77406
2.77847
1
1.00003
1.00005
1.00017
1.00031
1.00099
1.00183
1.00546
1.01125
1.02949
1.07839
1.17601
1.53345
2.34431
2.65042
2.72215
2.71632
2.71379
2.72608
2.73796
2.74927
2.75517
2.76275
2.76766
2.76786
1
1.00003
1.00005
1.00016
1.00029
1.00093
1.00171
1.00505
1.01059
1.02729
1.0737
1.16284
1.50833
2.29037
2.62978
2.71899
2.7124
2.70739
2.71959
2.72799
2.74183
2.74828
2.75216
2.75483
2.75816
1
1.00002
1.00005
1.00015
1.00027
1.00086
1.00159
1.00469
1.00977
1.02529
1.06771
1.15077
1.46509
2.21107
2.60116
2.71321
2.7065
2.69984
2.71226
2.71973
2.7269
2.73404
2.73881
2.74001
2.73754
1
1.00002
1.00004
1.00014
1.00025
1.0008
1.00145
1.00446
1.00879
1.02388
1.05948
1.13791
1.40728
2.10353
2.56438
2.70334
2.69512
2.68644
2.69867
2.70931
2.71733
2.71793
2.71931
2.71802
2.71525
1
1.00002
1.00004
1.00012
1.00023
1.00072
1.00131
1.00406
1.00777
1.02204
1.05059
1.12366
1.34543
1.975
2.51567
2.69176
2.685
2.67118
2.68162
2.68685
2.69731
2.69965
2.69622
2.68703
2.66419
1
1.00002
1.00003
1.00011
1.0002
1.00063
1.00115
1.00353
1.00684
1.0193
1.04361
1.11006
1.29082
1.87142
2.44064
2.6646
2.66366
2.6589
2.67102
2.67168
2.67376
2.67249
2.66328
2.6417
2.59135
0.999996
1.00002
1.00005
1.00019
1.00035
1.00112
1.00206
1.00629
1.01258
1.03388
1.08616
1.2016
1.58456
2.44287
2.68749
2.72792
2.72444
2.72461
2.73846
2.75067
2.76417
2.77317
2.78045
2.78566
2.79024
0.999996
1.00002
1.00005
1.00019
1.00034
1.00111
1.00204
1.00622
1.01245
1.0335
1.0854
1.19905
1.58009
2.43481
2.68466
2.72782
2.72407
2.7242
2.7379
2.74988
2.76328
2.77173
2.77906
2.78338
2.78722
0.999996
1.00002
1.00005
1.00018
1.00034
1.00109
1.00199
1.00607
1.01217
1.03272
1.08378
1.19382
1.57013
2.41662
2.67747
2.72669
2.72234
2.72236
2.73586
2.74768
2.76089
2.76953
2.77542
2.78066
2.78327
0.999996
1.00002
1.00005
1.00018
1.00032
1.00105
1.00192
1.00585
1.01175
1.03156
1.08129
1.18598
1.55453
2.38701
2.6662
2.72472
2.71974
2.71862
2.73184
2.74327
2.75529
2.76499
2.77155
2.77398
2.77838
0.999996
1.00002
1.00004
1.00017
1.0003
1.00099
1.00182
1.00545
1.01124
1.02947
1.07837
1.17596
1.5334
2.34418
2.65034
2.72208
2.71625
2.71371
2.72601
2.73788
2.74919
2.75509
2.76267
2.76757
2.76778
0.999995
1.00002
1.00004
1.00015
1.00028
1.00092
1.00171
1.00504
1.01058
1.02728
1.07368
1.16279
1.50829
2.29023
2.6297
2.71892
2.71233
2.70732
2.71952
2.72793
2.74176
2.7482
2.75208
2.75475
2.75808
0.999995
1.00002
1.00004
1.00014
1.00026
1.00085
1.00158
1.00468
1.00976
1.02527
1.0677
1.15072
1.46503
2.2109
2.60108
2.71314
2.70643
2.69977
2.71219
2.71965
2.72683
2.73397
2.73874
2.73993
2.73747
0.999995
1.00001
1.00003
1.00013
1.00024
1.00079
1.00145
1.00445
1.00878
1.02386
1.05947
1.13787
1.40725
2.10339
2.5643
2.70328
2.69505
2.68637
2.69861
2.70924
2.71726
2.71786
2.71924
2.71794
2.71518
0.999995
1.00001
1.00003
1.00012
1.00022
1.00071
1.0013
1.00405
1.00776
1.02202
1.05058
1.12363
1.34538
1.97487
2.51557
2.69169
2.68493
2.67111
2.68156
2.68679
2.69724
2.69958
2.69616
2.68697
2.66413
0.999995
1.00001
1.00003
1.0001
1.00019
1.00062
1.00114
1.00352
1.00683
1.01929
1.0436
1.11002
1.29079
1.87126
2.44061
2.66455
2.6636
2.65883
2.67096
2.67162
2.6737
2.67243
2.66322
2.64164
2.59129
0.999997
1
1.00003
1.00006
1.00022
1.0004
1.00126
1.0024
1.00684
1.01497
1.03772
1.10309
1.23718
1.66262
2.48275
2.63307
2.62688
2.63152
2.64198
2.65197
2.65066
2.64293
2.62254
2.57297
2.41297
0.999996
1
1.00003
1.00005
1.00019
1.00035
1.00114
1.00209
1.00642
1.01269
1.03447
1.08584
1.20467
1.57812
2.40955
2.60937
2.62351
2.61655
2.6175
2.62598
2.62447
2.6105
2.57703
2.51925
2.35918
0.999996
1
1.00002
1.00004
1.00016
1.0003
1.00096
1.00177
1.00528
1.01088
1.02842
1.07536
1.16864
1.51013
2.27754
2.55945
2.61942
2.61081
2.59488
2.59502
2.59417
2.58056
2.54031
2.48475
2.36137
0.999995
0.999999
1.00002
1.00004
1.00013
1.00025
1.0008
1.00148
1.00439
1.00912
1.02359
1.06268
1.13962
1.42585
2.10278
2.50059
2.61446
2.60271
2.58846
2.56962
2.55748
2.54389
2.5119
2.46639
2.36772
0.999995
0.999998
1.00001
1.00003
1.00011
1.00021
1.00067
1.00124
1.00382
1.0074
1.02087
1.04758
1.1187
1.31888
1.9402
2.37983
2.57861
2.57923
2.5751
2.56068
2.53581
2.50992
2.47261
2.44217
2.37274
0.999994
0.999999
1
1.00003
1.00006
1.00021
1.0004
1.00124
1.00238
1.00674
1.01476
1.03702
1.10038
1.23191
1.63024
2.36236
2.53454
2.53566
2.53939
2.53592
2.52198
2.49782
2.44672
2.40572
2.36455
0.999994
0.999998
1
1.00002
1.00005
1.00018
1.00032
1.00105
1.00191
1.00586
1.01156
1.03133
1.0783
1.18177
1.52502
2.27445
2.49966
2.52272
2.51182
2.50635
2.49499
2.48092
2.44491
2.38616
2.34155
0.999994
0.999996
1
1.00002
1.00004
1.00013
1.00025
1.00078
1.00148
1.00424
1.0092
1.02314
1.06296
1.13861
1.4252
2.09083
2.43413
2.51488
2.49893
2.4879
2.46579
2.44511
2.42969
2.38608
2.33228
0.999993
0.999994
0.999999
1.00001
1.00004
1.00007
1.00024
1.00046
1.0013
1.00282
1.00703
1.01855
1.04175
1.12284
1.27467
1.79571
2.29086
2.48896
2.48604
2.47549
2.45701
2.42565
2.3985
2.37617
2.3303
0.999993
0.999994
0.999998
1
1.00003
1.00005
1.00019
1.00035
1.00112
1.00209
1.00618
1.01278
1.03331
1.08678
1.19983
1.55829
2.24763
2.42527
2.44922
2.44306
2.43383
2.41509
2.38205
2.35614
2.32435
0.999992
0.999993
0.999995
1
1.00001
1.00005
1.0001
1.00032
1.00063
1.00176
1.0039
1.00956
1.0258
1.05695
1.17288
1.38981
2.03238
2.38001
2.43755
2.42941
2.41315
2.39356
2.36924
2.33865
2.3098
0.999992
0.999993
0.999994
0.999999
1.00001
1.00004
1.00008
1.00026
1.00047
1.00148
1.00281
1.00793
1.01762
1.04328
1.12078
1.27472
1.72772
2.24127
2.41102
2.40962
2.39683
2.37983
2.35575
2.32992
2.30047
0.999992
0.999992
0.999994
0.999996
1.00001
1.00002
1.00007
1.00014
1.00045
1.00085
1.00258
1.00505
1.01417
1.03096
1.08038
1.1947
1.57657
2.08391
2.35583
2.38726
2.38041
2.36497
2.34068
2.31554
2.28884
0.999991
0.999992
0.999993
0.999994
1
1.00001
1.00005
1.0001
1.00033
1.0006
1.00185
1.00355
1.00985
1.02219
1.05384
1.14923
1.35257
1.88002
2.24084
2.35837
2.36193
2.35376
2.33531
2.30902
2.28268
0.999991
0.999991
0.999992
0.999994
0.999997
1.00001
1.00002
1.00009
1.00017
1.00055
1.00103
1.00306
1.00603
1.0166
1.03703
1.09344
1.23187
1.66321
2.10617
2.3
2.32522
2.32488
2.31842
2.30127
2.27813
0.999991
0.999991
0.999992
0.999993
0.999995
1
1.00001
1.00006
1.00012
1.00039
1.00071
1.00219
1.00415
1.01181
1.02569
1.06316
1.16617
1.42267
1.9542
2.24369
2.29701
2.30137
2.29527
2.28836
2.27356
0.999991
0.999991
0.999991
0.999992
0.999994
0.999998
1.00001
1.00003
1.00011
1.0002
1.00064
1.00119
1.00356
1.00701
1.019
1.04432
1.10617
1.28324
1.76148
2.13117
2.26975
2.27616
2.26959
2.26435
2.25802
0.999991
0.999991
0.999991
0.999992
0.999993
0.999995
1.00001
1.00002
1.00007
1.00014
1.00044
1.00081
1.00248
1.00471
1.01355
1.02798
1.07577
1.17222
1.52492
1.94677
2.21006
2.26042
2.26116
2.2596
2.2574
0.999991
0.999991
0.999991
0.999991
0.999992
0.999995
0.999998
1.00001
1.00003
1.00012
1.00022
1.00069
1.0013
1.00383
1.00764
1.02032
1.04888
1.11383
1.31042
1.82211
2.08848
2.21661
2.23559
2.24771
2.26106
0.999991
0.999991
0.999991
0.999991
0.999992
0.999993
0.999997
1
1.00003
1.00006
1.00019
1.00035
1.00107
1.00203
1.00579
1.01209
1.03075
1.07813
1.17848
1.47426
2.00742
2.18011
2.22657
2.24475
2.27137
0.999991
0.999991
0.999991
0.999991
0.999991
0.999992
0.999995
0.999998
1.00001
1.00003
1.00012
1.00023
1.00073
1.00134
1.00407
1.00782
1.0216
1.04939
1.11711
1.31844
1.83061
2.09981
2.22126
2.26571
2.30197
0.999991
0.999991
0.999991
0.999991
0.999991
0.999992
0.999993
0.999997
1
1.00003
1.00006
1.00019
1.00037
1.00112
1.0021
1.0061
1.01243
1.03226
1.07841
1.18897
1.47655
2.01587
2.21281
2.30652
2.36225
0.999991
0.999991
0.999991
0.999991
0.999991
0.999992
0.999992
0.999995
0.999999
1.00002
1.00004
1.00013
1.00025
1.00079
1.00143
1.00436
1.00831
1.02301
1.05275
1.12402
1.34311
1.86426
2.18657
2.38173
2.45649
0.999991
0.999991
0.999991
0.999991
0.999991
0.999991
0.999992
0.999994
0.999996
1.00001
1.00002
1.00009
1.00017
1.00056
1.00102
1.00316
1.00593
1.0172
1.03621
1.09505
1.23062
1.66734
2.16937
2.46309
2.54652
0.999991
0.999991
0.999991
0.999991
0.999991
0.999991
0.999991
0.999993
0.999995
1
1.00001
1.00006
1.00013
1.00041
1.00077
1.00223
1.0047
1.01202
1.03118
1.07085
1.21009
1.51153
2.18699
2.56408
2.64864
0.999991
0.999991
0.999991
0.999991
0.999991
0.999991
0.999991
0.999992
0.999995
0.999999
1.00002
1.00004
1.00013
1.00026
1.00078
1.00163
1.00422
1.01061
1.02457
1.07255
1.15414
1.50595
2.23663
2.66295
2.71796
0.999991
0.999991
0.999991
0.999991
0.999991
0.999991
0.999991
0.999992
0.999994
0.999999
1.00001
1.00004
1.00009
1.00026
1.00058
1.00142
1.00384
1.00859
1.02559
1.05397
1.17937
1.41302
2.13052
2.74932
2.77768
0.999991
0.999991
0.999991
0.999991
0.999991
0.999991
0.999991
0.999992
0.999994
0.999998
1.00001
1.00003
1.00012
1.00022
1.00071
1.00138
1.00398
1.00892
1.02222
1.06303
1.13893
1.44573
2.15679
2.74545
2.77202
0.999991
0.999991
0.999991
0.999991
0.999991
0.999991
0.999991
0.999992
0.999994
0.999997
1.00001
1.00003
1.00011
1.00021
1.00069
1.0013
1.00391
1.00829
1.02154
1.05889
1.13259
1.41473
2.1259
2.73428
2.76819
0.999991
0.999991
0.999991
0.999991
0.999991
0.999991
0.999991
0.999992
0.999993
0.999998
1
1.00003
1.00007
1.00023
1.00048
1.00126
1.00319
1.00734
1.02144
1.04608
1.14932
1.34331
1.99134
2.69229
2.77799
0.999991
0.999991
0.999991
0.999991
0.999991
0.999991
0.999991
0.999992
0.999994
0.999997
1.00001
1.00002
1.0001
1.00019
1.0006
1.00119
1.00334
1.00762
1.01903
1.05311
1.11984
1.36035
2.02231
2.62388
2.76904
0.999991
0.999991
0.999991
0.999991
0.999991
0.999991
0.999991
0.999992
0.999993
0.999998
1
1.00003
1.00007
1.00024
1.00045
1.00134
1.00284
1.00731
1.01908
1.04376
1.13182
1.30207
1.8406
2.61316
2.7799
0.999991
0.999991
0.999991
0.999991
0.999991
0.999991
0.999991
0.999992
0.999993
0.999998
1
1.00003
1.00007
1.00023
1.00044
1.00133
1.00273
1.00721
1.01806
1.04229
1.12532
1.28747
1.77753
2.61778
2.78593
0.999991
0.999991
0.999991
0.999991
0.999991
0.999991
0.999991
0.999992
0.999994
0.999996
1.00001
1.00002
1.00009
1.00018
1.00055
1.00109
1.00306
1.00694
1.01733
1.04773
1.1077
1.31752
1.89451
2.55275
2.77015
0.999991
0.999991
0.999991
0.999991
0.999991
0.999991
0.999991
0.999992
0.999993
0.999997
1
1.00003
1.00006
1.00021
1.00042
1.00116
1.00266
1.00647
1.01775
1.03975
1.12009
1.26922
1.74781
2.60013
2.7677
0.999991
0.999991
0.999991
0.999991
0.999991
0.999991
0.999991
0.999992
0.999994
0.999996
1.00001
1.00002
1.00009
1.00017
1.00054
1.00106
1.00296
1.00668
1.0166
1.04563
1.1022
1.30294
1.83874
2.54262
2.76169
0.999991
0.999991
0.999991
0.999991
0.999991
0.999991
0.999991
0.999992
0.999993
0.999998
1
1.00003
1.00006
1.00022
1.00042
1.00131
1.00254
1.0071
1.01629
1.04003
1.11413
1.26241
1.72463
2.58738
2.75453
0.999991
0.999991
0.999991
0.999991
0.999991
0.999991
0.999991
0.999992
0.999993
0.999998
1
1.00003
1.00006
1.00022
1.00042
1.00131
1.00253
1.00712
1.01611
1.03989
1.11255
1.26006
1.71667
2.58393
2.75065
0.999991
0.999991
0.999991
0.999991
0.999991
0.999991
0.999991
0.999992
0.999994
0.999996
1.00001
1.00002
1.00009
1.00017
1.00056
1.00104
1.00317
1.00636
1.01727
1.04258
1.10071
1.28655
1.8067
2.51863
2.74641
0.999991
0.999991
0.999991
0.999991
0.999991
0.999991
0.999991
0.999992
0.999994
0.999996
1.00001
1.00002
1.00009
1.00018
1.00058
1.00106
1.00333
1.00634
1.01831
1.04099
1.10248
1.2795
1.80266
2.51113
2.74384
1.00001
1.00001
1.00004
1.00007
1.00022
1.00041
1.00127
1.00241
1.00685
1.01498
1.03773
1.1031
1.23722
1.66268
2.48283
2.63316
2.62692
2.63158
2.64205
2.65204
2.65073
2.64299
2.6226
2.57302
2.41301
1
1.00001
1.00003
1.00006
1.0002
1.00036
1.00115
1.0021
1.00643
1.0127
1.03449
1.08585
1.20472
1.57817
2.40966
2.60947
2.62356
2.6166
2.61756
2.62605
2.62454
2.61056
2.57708
2.5193
2.35922
1
1.00001
1.00003
1.00005
1.00017
1.00031
1.00097
1.00178
1.00529
1.01089
1.02844
1.07537
1.16869
1.51018
2.27767
2.55954
2.61948
2.61087
2.59494
2.59508
2.59423
2.58062
2.54036
2.4848
2.36141
1
1.00001
1.00002
1.00004
1.00014
1.00026
1.00081
1.00149
1.0044
1.00913
1.02361
1.0627
1.13966
1.42591
2.10295
2.50068
2.61452
2.60276
2.58852
2.56967
2.55753
2.54394
2.51195
2.46644
2.36776
1
1.00001
1.00002
1.00004
1.00012
1.00022
1.00068
1.00125
1.00383
1.00741
1.02088
1.0476
1.11873
1.31895
1.94028
2.38001
2.57875
2.5793
2.57516
2.56073
2.53587
2.50997
2.47265
2.44221
2.37278
1
1.00001
1.00001
1.00004
1.00007
1.00022
1.00041
1.00125
1.00239
1.00675
1.01477
1.03703
1.10041
1.23196
1.6303
2.36242
2.53459
2.53571
2.53945
2.53598
2.52203
2.49787
2.44677
2.40576
2.36458
1
1.00001
1.00001
1.00003
1.00006
1.00019
1.00033
1.00106
1.00192
1.00588
1.01157
1.03135
1.07832
1.18181
1.52509
2.27451
2.4997
2.52276
2.51187
2.5064
2.49504
2.48097
2.44495
2.3862
2.34159
1
1
1.00001
1.00002
1.00004
1.00014
1.00026
1.00079
1.00149
1.00426
1.00921
1.02315
1.06298
1.13865
1.42526
2.09098
2.4342
2.51492
2.49896
2.48795
2.46584
2.44515
2.42973
2.38612
2.33232
1
1
1.00001
1.00001
1.00004
1.00008
1.00024
1.00046
1.00131
1.00283
1.00705
1.01856
1.04177
1.12287