/*--------------------------------*- C++ -*----------------------------------*\
| =========                 |                                                 |
| \\      /  F ield         | OpenFOAM: The Open Source CFD Toolbox           |
|  \\    /   O peration     | Version:  4.1                                   |
|   \\  /    A nd           | Web:      www.OpenFOAM.org                      |
|    \\/     M anipulation  |                                                 |
\*---------------------------------------------------------------------------*/
FoamFile
{
    version     2.0;
    format      ascii;
    class       volScalarField;
    location    "2.86";
    object      T;
}
// * * * * * * * * * * * * * * * * * * * * * * * * * * * * * * * * * * * * * //

dimensions      [0 0 0 1 0 0 0];

internalField   nonuniform List<scalar> 
52500
(
0.999995
1.00002
1.00004
1.00015
1.00027
1.00087
1.00162
1.0048
1.01007
1.02599
1.07005
1.15507
1.48344
2.24412
2.63435
2.731
2.7247
2.71956
2.73431
2.74609
2.76142
2.76718
2.77981
2.78915
2.79216
0.999995
1.00002
1.00004
1.00014
1.00027
1.00086
1.0016
1.00474
1.00992
1.02566
1.06896
1.15306
1.47512
2.22968
2.63036
2.73079
2.72435
2.71888
2.7335
2.74516
2.7602
2.76583
2.7783
2.78643
2.78916
0.999995
1.00002
1.00004
1.00014
1.00026
1.00084
1.00156
1.00463
1.00962
1.02499
1.06668
1.1489
1.45722
2.19764
2.61986
2.72906
2.7225
2.7164
2.73098
2.74279
2.75747
2.76271
2.77501
2.78401
2.78572
0.999995
1.00002
1.00004
1.00013
1.00025
1.00081
1.00149
1.0045
1.00915
1.02423
1.06278
1.14266
1.42901
2.1466
2.60274
2.72559
2.71883
2.7115
2.72601
2.73814
2.75314
2.75852
2.76986
2.77725
2.781
0.999995
1.00001
1.00003
1.00013
1.00024
1.00078
1.00141
1.00441
1.00853
1.02357
1.05709
1.13442
1.39117
2.07424
2.57881
2.71961
2.71301
2.70304
2.71792
2.72798
2.74397
2.74985
2.76294
2.77123
2.77105
0.999995
1.00001
1.00003
1.00012
1.00022
1.00072
1.00132
1.0041
1.00786
1.02225
1.0512
1.12477
1.34955
1.98577
2.54566
2.71149
2.70447
2.6939
2.71045
2.72002
2.73366
2.73828
2.74845
2.75651
2.7611
0.999995
1.00001
1.00003
1.00011
1.0002
1.00066
1.00121
1.00377
1.00718
1.0206
1.04584
1.1157
1.30827
1.90242
2.4968
2.69554
2.6867
2.6769
2.69493
2.70596
2.72103
2.72535
2.73597
2.74369
2.74101
0.999995
1.00001
1.00002
1.0001
1.00018
1.0006
1.0011
1.00343
1.00651
1.01876
1.04158
1.10462
1.27993
1.80734
2.48712
2.68539
2.67528
2.66353
2.67856
2.68812
2.70266
2.70542
2.70981
2.7155
2.71655
0.999994
1.00001
1.00002
1.00009
1.00016
1.00053
1.00097
1.00304
1.00582
1.01619
1.03812
1.09038
1.25949
1.68047
2.45139
2.67206
2.65998
2.65966
2.66365
2.66962
2.68272
2.68421
2.68833
2.68642
2.66367
0.999994
1
1.00002
1.00007
1.00013
1.00043
1.00083
1.00234
1.00519
1.0128
1.03508
1.07683
1.23923
1.58415
2.35094
2.63988
2.65574
2.65266
2.65082
2.65427
2.6563
2.65354
2.64514
2.62802
2.58231
1
1.00002
1.00005
1.00015
1.00028
1.00088
1.00163
1.00481
1.01008
1.02601
1.07006
1.15511
1.48347
2.24424
2.63442
2.73107
2.72478
2.71963
2.73438
2.74616
2.7615
2.76726
2.77988
2.78922
2.79225
1
1.00002
1.00005
1.00015
1.00027
1.00087
1.00161
1.00476
1.00993
1.02568
1.06897
1.1531
1.47516
2.2298
2.63043
2.73086
2.72442
2.71895
2.73358
2.74523
2.76028
2.76591
2.77836
2.7865
2.78924
1
1.00002
1.00004
1.00015
1.00027
1.00085
1.00156
1.00464
1.00963
1.02501
1.06669
1.14894
1.45725
2.19776
2.61993
2.72913
2.72257
2.71647
2.73105
2.74285
2.75755
2.76279
2.77508
2.78409
2.7858
1
1.00002
1.00004
1.00014
1.00026
1.00082
1.0015
1.00451
1.00916
1.02426
1.06278
1.14269
1.42899
2.14667
2.60281
2.72565
2.7189
2.71156
2.72608
2.73821
2.75321
2.7586
2.76993
2.77732
2.78108
1
1.00002
1.00004
1.00014
1.00025
1.00079
1.00142
1.00442
1.00854
1.02359
1.05709
1.13445
1.39116
2.07432
2.57887
2.71968
2.71308
2.70311
2.718
2.72804
2.74404
2.74993
2.76301
2.7713
2.77113
1
1.00002
1.00004
1.00013
1.00023
1.00073
1.00133
1.00411
1.00787
1.02226
1.05121
1.12479
1.34956
1.98585
2.54572
2.71156
2.70454
2.69396
2.71052
2.72009
2.73374
2.73836
2.74852
2.75657
2.76118
1
1.00002
1.00004
1.00012
1.00021
1.00067
1.00122
1.00378
1.00719
1.02061
1.04585
1.11572
1.30829
1.90249
2.49687
2.69561
2.68677
2.67696
2.695
2.70603
2.7211
2.72542
2.73603
2.74375
2.74108
1
1.00002
1.00003
1.00011
1.00019
1.00061
1.0011
1.00344
1.00652
1.01877
1.04159
1.10464
1.27994
1.80741
2.48718
2.68545
2.67535
2.6636
2.67863
2.68818
2.70272
2.70549
2.70987
2.71555
2.71662
1
1.00001
1.00003
1.00009
1.00017
1.00054
1.00098
1.00305
1.00583
1.01621
1.03813
1.0904
1.25947
1.68054
2.45144
2.67213
2.66003
2.65972
2.66372
2.66969
2.68278
2.68427
2.68839
2.68647
2.66373
1
1.00001
1.00002
1.00008
1.00014
1.00044
1.00084
1.00235
1.0052
1.01281
1.03509
1.07685
1.23924
1.58421
2.35101
2.63995
2.65579
2.65272
2.65089
2.65433
2.65636
2.65361
2.64519
2.62806
2.58236
1
1.00002
1.00005
1.00015
1.00028
1.00088
1.00163
1.00481
1.01008
1.02601
1.07006
1.15511
1.48348
2.24425
2.63442
2.73107
2.72478
2.71963
2.73438
2.74616
2.7615
2.76726
2.77988
2.78922
2.79225
1
1.00002
1.00005
1.00015
1.00027
1.00087
1.00161
1.00476
1.00993
1.02568
1.06897
1.1531
1.47516
2.22981
2.63043
2.73086
2.72442
2.71895
2.73358
2.74523
2.76028
2.76591
2.77836
2.7865
2.78924
1
1.00002
1.00004
1.00015
1.00027
1.00085
1.00156
1.00464
1.00963
1.02501
1.06669
1.14894
1.45725
2.19776
2.61993
2.72913
2.72257
2.71647
2.73105
2.74285
2.75755
2.76279
2.77508
2.78409
2.7858
1
1.00002
1.00004
1.00014
1.00026
1.00082
1.0015
1.00451
1.00916
1.02426
1.06278
1.14269
1.429
2.14668
2.60281
2.72565
2.7189
2.71156
2.72609
2.73821
2.75321
2.7586
2.76993
2.77732
2.78108
1
1.00002
1.00004
1.00014
1.00025
1.00079
1.00142
1.00442
1.00854
1.02359
1.05709
1.13445
1.39117
2.07432
2.57888
2.71968
2.71308
2.70311
2.718
2.72804
2.74404
2.74993
2.76301
2.7713
2.77113
1
1.00002
1.00004
1.00013
1.00023
1.00073
1.00133
1.00411
1.00787
1.02226
1.05121
1.12479
1.34956
1.98585
2.54573
2.71156
2.70454
2.69396
2.71053
2.72009
2.73374
2.73836
2.74852
2.75657
2.76118
1
1.00002
1.00004
1.00012
1.00021
1.00067
1.00122
1.00378
1.00719
1.02061
1.04585
1.11572
1.30829
1.90249
2.49687
2.69561
2.68677
2.67696
2.695
2.70603
2.7211
2.72542
2.73603
2.74375
2.74108
1
1.00002
1.00003
1.00011
1.00019
1.00061
1.0011
1.00344
1.00652
1.01877
1.04159
1.10464
1.27994
1.80741
2.48718
2.68546
2.67535
2.6636
2.67863
2.68818
2.70272
2.70549
2.70987
2.71555
2.71662
1
1.00001
1.00003
1.00009
1.00017
1.00054
1.00098
1.00305
1.00583
1.01621
1.03813
1.0904
1.25947
1.68054
2.45144
2.67213
2.66003
2.65972
2.66372
2.66969
2.68278
2.68427
2.68839
2.68647
2.66373
1
1.00001
1.00002
1.00008
1.00014
1.00044
1.00084
1.00235
1.0052
1.01281
1.03509
1.07685
1.23924
1.58421
2.35101
2.63995
2.65579
2.65272
2.65089
2.65434
2.65636
2.65361
2.64519
2.62806
2.58236
1
1.00002
1.00005
1.00015
1.00028
1.00088
1.00163
1.00481
1.01008
1.02601
1.07006
1.15511
1.48348
2.24425
2.63442
2.73107
2.72478
2.71963
2.73438
2.74616
2.7615
2.76726
2.77988
2.78922
2.79225
1
1.00002
1.00005
1.00015
1.00027
1.00087
1.00161
1.00476
1.00993
1.02568
1.06897
1.1531
1.47516
2.22981
2.63044
2.73086
2.72442
2.71895
2.73358
2.74523
2.76028
2.76591
2.77836
2.7865
2.78924
1
1.00002
1.00004
1.00015
1.00027
1.00085
1.00156
1.00464
1.00963
1.02501
1.06669
1.14894
1.45725
2.19776
2.61993
2.72913
2.72257
2.71647
2.73105
2.74285
2.75755
2.76279
2.77508
2.78409
2.7858
1
1.00002
1.00004
1.00014
1.00026
1.00082
1.0015
1.00451
1.00916
1.02426
1.06278
1.14269
1.429
2.14668
2.60281
2.72565
2.7189
2.71156
2.72609
2.73821
2.75321
2.7586
2.76993
2.77732
2.78108
1
1.00002
1.00004
1.00014
1.00025
1.00079
1.00142
1.00442
1.00854
1.02359
1.05709
1.13445
1.39117
2.07432
2.57888
2.71968
2.71308
2.70311
2.718
2.72804
2.74404
2.74993
2.76301
2.7713
2.77113
1
1.00002
1.00004
1.00013
1.00023
1.00073
1.00133
1.00411
1.00787
1.02226
1.05121
1.12479
1.34956
1.98585
2.54573
2.71156
2.70454
2.69396
2.71053
2.72009
2.73374
2.73836
2.74852
2.75657
2.76118
1
1.00002
1.00004
1.00012
1.00021
1.00067
1.00122
1.00378
1.00719
1.02061
1.04585
1.11572
1.30829
1.90249
2.49687
2.69561
2.68677
2.67696
2.695
2.70603
2.7211
2.72542
2.73603
2.74375
2.74108
1
1.00002
1.00003
1.00011
1.00019
1.00061
1.0011
1.00344
1.00652
1.01877
1.04159
1.10464
1.27994
1.80741
2.48718
2.68546
2.67535
2.6636
2.67863
2.68818
2.70272
2.70549
2.70987
2.71555
2.71662
1
1.00001
1.00003
1.00009
1.00017
1.00054
1.00098
1.00305
1.00583
1.01621
1.03813
1.0904
1.25947
1.68054
2.45144
2.67213
2.66003
2.65972
2.66372
2.66969
2.68278
2.68427
2.68839
2.68647
2.66373
1
1.00001
1.00002
1.00008
1.00014
1.00044
1.00084
1.00235
1.0052
1.01281
1.03509
1.07685
1.23924
1.58421
2.35101
2.63995
2.65579
2.65272
2.65089
2.65434
2.65636
2.65361
2.64519
2.62806
2.58236
1
1.00002
1.00005
1.00015
1.00028
1.00088
1.00163
1.00481
1.01008
1.02601
1.07006
1.15511
1.48348
2.24425
2.63442
2.73107
2.72478
2.71963
2.73438
2.74616
2.7615
2.76726
2.77988
2.78922
2.79225
1
1.00002
1.00005
1.00015
1.00027
1.00087
1.00161
1.00476
1.00993
1.02568
1.06897
1.1531
1.47516
2.22981
2.63044
2.73086
2.72442
2.71895
2.73358
2.74523
2.76028
2.76591
2.77836
2.7865
2.78924
1
1.00002
1.00004
1.00015
1.00027
1.00085
1.00156
1.00464
1.00963
1.02501
1.06669
1.14894
1.45725
2.19776
2.61993
2.72913
2.72257
2.71647
2.73105
2.74285
2.75755
2.76279
2.77508
2.78409
2.7858
1
1.00002
1.00004
1.00014
1.00026
1.00082
1.0015
1.00451
1.00916
1.02426
1.06278
1.14269
1.429
2.14668
2.60281
2.72565
2.7189
2.71156
2.72609
2.73821
2.75321
2.7586
2.76993
2.77732
2.78108
1
1.00002
1.00004
1.00014
1.00025
1.00079
1.00142
1.00442
1.00854
1.02359
1.05709
1.13445
1.39117
2.07432
2.57888
2.71968
2.71308
2.70311
2.718
2.72804
2.74404
2.74993
2.76301
2.7713
2.77113
1
1.00002
1.00004
1.00013
1.00023
1.00073
1.00133
1.00411
1.00787
1.02226
1.05121
1.12479
1.34956
1.98585
2.54573
2.71156
2.70454
2.69396
2.71053
2.72009
2.73374
2.73836
2.74852
2.75657
2.76118
1
1.00002
1.00004
1.00012
1.00021
1.00067
1.00122
1.00378
1.00719
1.02061
1.04585
1.11572
1.30829
1.90249
2.49687
2.69561
2.68677
2.67696
2.695
2.70603
2.7211
2.72542
2.73603
2.74375
2.74108
1
1.00002
1.00003
1.00011
1.00019
1.00061
1.0011
1.00344
1.00652
1.01877
1.04159
1.10464
1.27994
1.80741
2.48718
2.68546
2.67535
2.6636
2.67863
2.68818
2.70272
2.70549
2.70987
2.71555
2.71662
1
1.00001
1.00003
1.00009
1.00017
1.00054
1.00098
1.00305
1.00583
1.01621
1.03813
1.0904
1.25947
1.68054
2.45144
2.67213
2.66003
2.65972
2.66372
2.66969
2.68278
2.68427
2.68839
2.68647
2.66373
1
1.00001
1.00002
1.00008
1.00014
1.00044
1.00084
1.00235
1.0052
1.01281
1.03509
1.07685
1.23924
1.58421
2.35101
2.63995
2.65579
2.65272
2.65089
2.65434
2.65636
2.65361
2.64519
2.62806
2.58236
1
1.00002
1.00005
1.00015
1.00028
1.00088
1.00163
1.00481
1.01008
1.02601
1.07006
1.15511
1.48348
2.24425
2.63442
2.73107
2.72478
2.71963
2.73438
2.74616
2.7615
2.76726
2.77988
2.78922
2.79225
1
1.00002
1.00005
1.00015
1.00027
1.00087
1.00161
1.00476
1.00993
1.02568
1.06897
1.1531
1.47516
2.22981
2.63044
2.73086
2.72442
2.71895
2.73358
2.74523
2.76028
2.76591
2.77836
2.7865
2.78924
1
1.00002
1.00004
1.00015
1.00027
1.00085
1.00156
1.00464
1.00963
1.02501
1.06669
1.14894
1.45725
2.19776
2.61993
2.72913
2.72257
2.71647
2.73105
2.74285
2.75755
2.76279
2.77508
2.78409
2.7858
1
1.00002
1.00004
1.00014
1.00026
1.00082
1.0015
1.00451
1.00916
1.02426
1.06278
1.14269
1.429
2.14668
2.60281
2.72565
2.7189
2.71156
2.72609
2.73821
2.75321
2.7586
2.76993
2.77732
2.78108
1
1.00002
1.00004
1.00014
1.00025
1.00079
1.00142
1.00442
1.00854
1.02359
1.05709
1.13445
1.39117
2.07432
2.57888
2.71968
2.71308
2.70311
2.718
2.72804
2.74404
2.74993
2.76301
2.7713
2.77113
1
1.00002
1.00004
1.00013
1.00023
1.00073
1.00133
1.00411
1.00787
1.02226
1.05121
1.12479
1.34956
1.98585
2.54573
2.71156
2.70454
2.69396
2.71053
2.72009
2.73374
2.73836
2.74852
2.75657
2.76118
1
1.00002
1.00004
1.00012
1.00021
1.00067
1.00122
1.00378
1.00719
1.02061
1.04585
1.11572
1.30829
1.90249
2.49687
2.69561
2.68677
2.67696
2.695
2.70603
2.7211
2.72542
2.73603
2.74375
2.74108
1
1.00002
1.00003
1.00011
1.00019
1.00061
1.0011
1.00344
1.00652
1.01877
1.04159
1.10464
1.27994
1.80741
2.48718
2.68546
2.67535
2.6636
2.67863
2.68818
2.70272
2.70549
2.70987
2.71555
2.71662
1
1.00001
1.00003
1.00009
1.00017
1.00054
1.00098
1.00305
1.00583
1.01621
1.03813
1.0904
1.25947
1.68054
2.45144
2.67213
2.66003
2.65972
2.66372
2.66969
2.68278
2.68427
2.68839
2.68647
2.66373
1
1.00001
1.00002
1.00008
1.00014
1.00044
1.00084
1.00235
1.0052
1.01281
1.03509
1.07685
1.23924
1.58421
2.35101
2.63995
2.65579
2.65272
2.65089
2.65434
2.65636
2.65361
2.64519
2.62806
2.58236
1
1.00002
1.00005
1.00015
1.00028
1.00088
1.00163
1.00481
1.01008
1.02601
1.07006
1.15511
1.48348
2.24425
2.63442
2.73107
2.72478
2.71963
2.73438
2.74616
2.7615
2.76726
2.77988
2.78922
2.79225
1
1.00002
1.00005
1.00015
1.00027
1.00087
1.00161
1.00476
1.00993
1.02568
1.06897
1.1531
1.47516
2.22981
2.63044
2.73086
2.72442
2.71895
2.73358
2.74523
2.76028
2.76591
2.77836
2.7865
2.78924
1
1.00002
1.00004
1.00015
1.00027
1.00085
1.00156
1.00464
1.00963
1.02501
1.06669
1.14894
1.45725
2.19776
2.61993
2.72913
2.72257
2.71647
2.73105
2.74285
2.75755
2.76279
2.77508
2.78409
2.7858
1
1.00002
1.00004
1.00014
1.00026
1.00082
1.0015
1.00451
1.00916
1.02426
1.06278
1.14269
1.429
2.14668
2.60281
2.72565
2.7189
2.71156
2.72609
2.73821
2.75321
2.7586
2.76993
2.77732
2.78108
1
1.00002
1.00004
1.00014
1.00025
1.00079
1.00142
1.00442
1.00854
1.02359
1.05709
1.13445
1.39117
2.07432
2.57888
2.71968
2.71308
2.70311
2.718
2.72804
2.74404
2.74993
2.76301
2.7713
2.77113
1
1.00002
1.00004
1.00013
1.00023
1.00073
1.00133
1.00411
1.00787
1.02226
1.05121
1.12479
1.34956
1.98585
2.54573
2.71156
2.70454
2.69396
2.71053
2.72009
2.73374
2.73836
2.74852
2.75657
2.76118
1
1.00002
1.00004
1.00012
1.00021
1.00067
1.00122
1.00378
1.00719
1.02061
1.04585
1.11572
1.30829
1.90249
2.49687
2.69561
2.68677
2.67696
2.695
2.70603
2.7211
2.72542
2.73603
2.74375
2.74108
1
1.00002
1.00003
1.00011
1.00019
1.00061
1.0011
1.00344
1.00652
1.01877
1.04159
1.10464
1.27994
1.80741
2.48718
2.68546
2.67535
2.6636
2.67863
2.68818
2.70272
2.70549
2.70987
2.71555
2.71662
1
1.00001
1.00003
1.00009
1.00017
1.00054
1.00098
1.00305
1.00583
1.01621
1.03813
1.0904
1.25947
1.68054
2.45144
2.67213
2.66003
2.65972
2.66372
2.66969
2.68278
2.68427
2.68839
2.68647
2.66373
1
1.00001
1.00002
1.00008
1.00014
1.00044
1.00084
1.00235
1.0052
1.01281
1.03509
1.07685
1.23924
1.58421
2.35101
2.63995
2.65579
2.65272
2.65089
2.65434
2.65636
2.65361
2.64519
2.62806
2.58236
1
1.00002
1.00005
1.00015
1.00028
1.00088
1.00163
1.00481
1.01008
1.02601
1.07006
1.15511
1.48348
2.24425
2.63442
2.73107
2.72478
2.71963
2.73438
2.74616
2.7615
2.76726
2.77988
2.78922
2.79225
1
1.00002
1.00005
1.00015
1.00027
1.00087
1.00161
1.00476
1.00993
1.02568
1.06897
1.1531
1.47516
2.22981
2.63043
2.73086
2.72442
2.71895
2.73358
2.74523
2.76028
2.76591
2.77836
2.7865
2.78924
1
1.00002
1.00004
1.00015
1.00027
1.00085
1.00156
1.00464
1.00963
1.02501
1.06669
1.14894
1.45725
2.19776
2.61993
2.72913
2.72257
2.71647
2.73105
2.74285
2.75755
2.76279
2.77508
2.78409
2.7858
1
1.00002
1.00004
1.00014
1.00026
1.00082
1.0015
1.00451
1.00916
1.02426
1.06278
1.14269
1.429
2.14668
2.60281
2.72565
2.7189
2.71156
2.72609
2.73821
2.75321
2.7586
2.76993
2.77732
2.78108
1
1.00002
1.00004
1.00014
1.00025
1.00079
1.00142
1.00442
1.00854
1.02359
1.05709
1.13445
1.39117
2.07432
2.57888
2.71968
2.71308
2.70311
2.718
2.72804
2.74404
2.74993
2.76301
2.7713
2.77113
1
1.00002
1.00004
1.00013
1.00023
1.00073
1.00133
1.00411
1.00787
1.02226
1.05121
1.12479
1.34956
1.98585
2.54573
2.71156
2.70454
2.69396
2.71053
2.72009
2.73374
2.73836
2.74852
2.75657
2.76118
1
1.00002
1.00004
1.00012
1.00021
1.00067
1.00122
1.00378
1.00719
1.02061
1.04585
1.11572
1.30829
1.90249
2.49687
2.69561
2.68677
2.67696
2.695
2.70603
2.7211
2.72542
2.73603
2.74375
2.74108
1
1.00002
1.00003
1.00011
1.00019
1.00061
1.0011
1.00344
1.00652
1.01877
1.04159
1.10464
1.27994
1.80741
2.48718
2.68546
2.67535
2.6636
2.67863
2.68818
2.70272
2.70549
2.70987
2.71555
2.71662
1
1.00001
1.00003
1.00009
1.00017
1.00054
1.00098
1.00305
1.00583
1.01621
1.03813
1.0904
1.25947
1.68054
2.45144
2.67213
2.66003
2.65972
2.66372
2.66969
2.68278
2.68427
2.68839
2.68647
2.66373
1
1.00001
1.00002
1.00008
1.00014
1.00044
1.00084
1.00235
1.0052
1.01281
1.03509
1.07685
1.23924
1.58421
2.35101
2.63995
2.65579
2.65272
2.65089
2.65434
2.65636
2.65361
2.64519
2.62806
2.58236
1
1.00002
1.00005
1.00015
1.00028
1.00088
1.00163
1.00481
1.01008
1.02601
1.07006
1.15511
1.48347
2.24424
2.63442
2.73107
2.72478
2.71963
2.73438
2.74616
2.7615
2.76726
2.77988
2.78922
2.79225
1
1.00002
1.00005
1.00015
1.00027
1.00087
1.00161
1.00476
1.00993
1.02568
1.06897
1.1531
1.47516
2.2298
2.63043
2.73086
2.72442
2.71895
2.73358
2.74523
2.76028
2.76591
2.77836
2.7865
2.78924
1
1.00002
1.00004
1.00015
1.00027
1.00085
1.00156
1.00464
1.00963
1.02501
1.06669
1.14894
1.45725
2.19776
2.61993
2.72913
2.72257
2.71647
2.73105
2.74285
2.75755
2.76279
2.77508
2.78409
2.7858
1
1.00002
1.00004
1.00014
1.00026
1.00082
1.0015
1.00451
1.00916
1.02426
1.06278
1.14269
1.42899
2.14667
2.60281
2.72565
2.7189
2.71156
2.72608
2.73821
2.75321
2.7586
2.76993
2.77732
2.78108
1
1.00002
1.00004
1.00014
1.00025
1.00079
1.00142
1.00442
1.00854
1.02359
1.05709
1.13445
1.39116
2.07432
2.57887
2.71968
2.71308
2.70311
2.718
2.72804
2.74404
2.74993
2.76301
2.7713
2.77113
1
1.00002
1.00004
1.00013
1.00023
1.00073
1.00133
1.00411
1.00787
1.02226
1.05121
1.12479
1.34956
1.98585
2.54572
2.71156
2.70454
2.69396
2.71052
2.72009
2.73374
2.73836
2.74852
2.75657
2.76118
1
1.00002
1.00004
1.00012
1.00021
1.00067
1.00122
1.00378
1.00719
1.02061
1.04585
1.11572
1.30829
1.90249
2.49687
2.69561
2.68677
2.67696
2.695
2.70603
2.7211
2.72542
2.73603
2.74375
2.74108
1
1.00002
1.00003
1.00011
1.00019
1.00061
1.0011
1.00344
1.00652
1.01877
1.04159
1.10464
1.27994
1.80741
2.48718
2.68545
2.67535
2.6636
2.67863
2.68818
2.70272
2.70549
2.70987
2.71555
2.71662
1
1.00001
1.00003
1.00009
1.00017
1.00054
1.00098
1.00305
1.00583
1.01621
1.03813
1.0904
1.25947
1.68054
2.45144
2.67213
2.66003
2.65972
2.66372
2.66969
2.68278
2.68427
2.68839
2.68647
2.66373
1
1.00001
1.00002
1.00008
1.00014
1.00044
1.00084
1.00235
1.0052
1.01281
1.03509
1.07685
1.23924
1.58421
2.35101
2.63995
2.65579
2.65272
2.65089
2.65433
2.65636
2.65361
2.64519
2.62806
2.58236
0.999995
1.00002
1.00004
1.00015
1.00027
1.00087
1.00162
1.0048
1.01007
1.02599
1.07005
1.15507
1.48344
2.24412
2.63435
2.731
2.7247
2.71956
2.7343
2.74609
2.76142
2.76718
2.77981
2.78915
2.79216
0.999995
1.00002
1.00004
1.00014
1.00027
1.00086
1.0016
1.00474
1.00992
1.02566
1.06896
1.15306
1.47512
2.22968
2.63036
2.73079
2.72435
2.71888
2.7335
2.74516
2.7602
2.76583
2.7783
2.78643
2.78916
0.999995
1.00002
1.00004
1.00014
1.00026
1.00084
1.00156
1.00463
1.00962
1.02499
1.06668
1.1489
1.45722
2.19764
2.61986
2.72906
2.7225
2.7164
2.73098
2.74279
2.75747
2.76271
2.77501
2.78401
2.78572
0.999995
1.00002
1.00004
1.00013
1.00025
1.00081
1.00149
1.0045
1.00915
1.02423
1.06278
1.14266
1.42901
2.1466
2.60274
2.72559
2.71883
2.7115
2.72601
2.73814
2.75314
2.75852
2.76986
2.77725
2.781
0.999995
1.00001
1.00003
1.00013
1.00024
1.00078
1.00141
1.00441
1.00853
1.02357
1.05709
1.13442
1.39117
2.07424
2.57881
2.71961
2.71301
2.70304
2.71792
2.72798
2.74397
2.74985
2.76294
2.77123
2.77105
0.999995
1.00001
1.00003
1.00012
1.00022
1.00072
1.00132
1.0041
1.00786
1.02225
1.0512
1.12477
1.34955
1.98577
2.54566
2.71149
2.70447
2.6939
2.71045
2.72002
2.73366
2.73828
2.74845
2.75651
2.7611
0.999995
1.00001
1.00003
1.00011
1.0002
1.00066
1.00121
1.00377
1.00718
1.0206
1.04584
1.1157
1.30827
1.90242
2.4968
2.69554
2.6867
2.6769
2.69493
2.70596
2.72103
2.72535
2.73597
2.74369
2.74101
0.999995
1.00001
1.00002
1.0001
1.00018
1.0006
1.0011
1.00343
1.00651
1.01876
1.04158
1.10462
1.27993
1.80734
2.48712
2.68539
2.67528
2.66353
2.67856
2.68812
2.70266
2.70542
2.70981
2.7155
2.71655
0.999994
1.00001
1.00002
1.00009
1.00016
1.00053
1.00097
1.00304
1.00582
1.01619
1.03812
1.09038
1.25949
1.68047
2.45139
2.67206
2.65998
2.65966
2.66365
2.66962
2.68272
2.68421
2.68833
2.68642
2.66367
0.999994
1
1.00002
1.00007
1.00013
1.00043
1.00083
1.00234
1.00519
1.0128
1.03508
1.07683
1.23923
1.58416
2.35095
2.63988
2.65574
2.65266
2.65082
2.65427
2.6563
2.65354
2.64514
2.62802
2.58231
0.999996
1
1.00002
1.00005
1.00016
1.00031
1.00095
1.00184
1.00518
1.01157
1.02868
1.08007
1.17435
1.54259
2.32262
2.57602
2.64056
2.63586
2.63354
2.63641
2.63539
2.62726
2.60559
2.55453
2.36454
0.999996
0.999999
1.00002
1.00004
1.00014
1.00026
1.00085
1.00157
1.00465
1.0097
1.02509
1.06711
1.14946
1.45822
2.18987
2.52901
2.63241
2.62481
2.61188
2.6088
2.60313
2.58682
2.55161
2.48873
2.29654
0.999995
0.999998
1.00001
1.00003
1.00012
1.00023
1.00074
1.00134
1.00419
1.00802
1.02261
1.05276
1.12652
1.35952
1.99225
2.45087
2.61497
2.60913
2.59993
2.58883
2.57957
2.5593
2.5126
2.44791
2.29196
0.999995
0.999997
1.00001
1.00003
1.0001
1.00019
1.00061
1.00111
1.00346
1.00654
1.01897
1.04089
1.10652
1.26852
1.80568
2.3436
2.57556
2.57301
2.57044
2.55922
2.54284
2.51803
2.47541
2.42248
2.3029
0.999994
0.999997
1.00001
1.00002
1.00008
1.00015
1.00048
1.00089
1.00271
1.00531
1.01442
1.03451
1.08132
1.2291
1.60552
2.2721
2.53658
2.55363
2.55173
2.5443
2.52411
2.49606
2.43494
2.38929
2.30195
0.999994
0.999997
1
1.00002
1.00004
1.00015
1.00029
1.00089
1.00172
1.00475
1.01078
1.02618
1.0737
1.15792
1.50044
2.20773
2.45095
2.51874
2.51177
2.50919
2.4998
2.47949
2.4286
2.36552
2.2942
0.999994
0.999996
0.999999
1.00002
1.00003
1.00013
1.00023
1.00076
1.00138
1.00429
1.00825
1.02285
1.0546
1.1285
1.36885
1.99739
2.38628
2.50501
2.4991
2.48691
2.46118
2.4425
2.4131
2.35737
2.29067
0.999993
0.999995
0.999997
1.00001
1.00002
1.00009
1.00018
1.00057
1.00106
1.00326
1.00625
1.01782
1.03891
1.10054
1.25142
1.75764
2.23401
2.4629
2.47138
2.46642
2.45011
2.41777
2.3851
2.33852
2.28066
0.999993
0.999993
0.999997
1
1.00002
1.00005
1.00017
1.00032
1.00101
1.00192
1.00548
1.01174
1.02968
1.07985
1.17541
1.52261
2.19595
2.404
2.43657
2.42758
2.42041
2.40124
2.37232
2.33077
2.27742
0.999992
0.999993
0.999996
0.999999
1.00002
1.00004
1.00013
1.00024
1.00077
1.00144
1.00421
1.00875
1.02265
1.05915
1.13338
1.39144
2.02732
2.33537
2.41744
2.41125
2.3926
2.36863
2.34184
2.31141
2.26859
0.999992
0.999992
0.999993
0.999998
1
1.00003
1.00007
1.00022
1.00042
1.00126
1.00252
1.0067
1.01593
1.03763
1.10603
1.23649
1.67282
2.17965
2.38327
2.38855
2.37921
2.35724
2.32657
2.2939
2.25973
0.999992
0.999992
0.999993
0.999996
1
1.00002
1.00005
1.00016
1.0003
1.00096
1.00179
1.0052
1.01095
1.02785
1.07412
1.1624
1.48202
2.0992
2.32117
2.35624
2.34964
2.33354
2.30615
2.27346
2.23932
0.999991
0.999992
0.999993
0.999994
1
1.00001
1.00004
1.00008
1.00027
1.00052
1.00147
1.00315
1.00791
1.02053
1.04634
1.13531
1.30205
1.84139
2.21816
2.33217
2.33083
2.3199
2.29763
2.26548
2.23181
0.999991
0.999991
0.999992
0.999993
0.999997
1
1.00003
1.00006
1.0002
1.00037
1.00116
1.00214
1.00644
1.01281
1.03398
1.08278
1.20022
1.51251
2.10228
2.27129
2.2914
2.28797
2.27531
2.24891
2.21809
0.999991
0.999991
0.999991
0.999993
0.999994
1
1.00001
1.00005
1.0001
1.00032
1.0006
1.00182
1.00356
1.00962
1.02228
1.05315
1.14693
1.34493
1.85841
2.19758
2.2726
2.2704
2.26012
2.2402
2.20759
0.999991
0.999991
0.999991
0.999992
0.999993
0.999998
1
1.00003
1.00006
1.00022
1.00041
1.00126
1.00234
1.00685
1.01396
1.03602
1.09038
1.21157
1.53957
2.03278
2.22558
2.23851
2.23508
2.22136
2.19597
0.999991
0.999991
0.999991
0.999991
0.999993
0.999995
1
1.00001
1.00005
1.00011
1.00035
1.00065
1.00197
1.00378
1.01059
1.02315
1.05678
1.14697
1.3694
1.85171
2.15168
2.2166
2.21519
2.2047
2.18656
0.999991
0.999991
0.999991
0.999991
0.999992
0.999993
0.999998
1
1.00003
1.00007
1.00023
1.00042
1.0013
1.00241
1.00693
1.01445
1.03646
1.09513
1.21217
1.56636
1.99082
2.17216
2.18782
2.18454
2.17041
0.999991
0.999991
0.999991
0.999991
0.999991
0.999993
0.999995
1
1.00001
1.00006
1.00011
1.00035
1.00066
1.00196
1.00384
1.0106
1.02311
1.0578
1.14175
1.38202
1.81032
2.08555
2.15656
2.16136
2.15524
0.999991
0.999991
0.999991
0.999991
0.999991
0.999992
0.999994
0.999997
1.00001
1.00002
1.00009
1.00017
1.00053
1.001
1.00295
1.00577
1.01575
1.03477
1.08619
1.21214
1.58579
1.94391
2.10861
2.12885
2.12789
0.999991
0.999991
0.999991
0.999991
0.999991
0.999991
0.999993
0.999994
1
1.00001
1.00005
1.00011
1.00034
1.00063
1.00191
1.00359
1.01024
1.02136
1.05401
1.1315
1.33848
1.7546
2.03129
2.10169
2.10626
0.999991
0.999991
0.999991
0.999991
0.999991
0.999991
0.999992
0.999994
0.999996
1.00001
1.00002
1.00008
1.00016
1.00049
1.00092
1.00269
1.00525
1.01431
1.03095
1.0785
1.18441
1.52097
1.8738
2.05788
2.0762
0.999991
0.999991
0.999991
0.999991
0.999991
0.999991
0.999991
0.999993
0.999994
1
1.00001
1.00005
1.00009
1.00031
1.00056
1.00173
1.00319
1.00924
1.01886
1.04761
1.11718
1.2827
1.68343
1.97039
2.05243
0.999991
0.999991
0.999991
0.999991
0.999991
0.999991
0.999991
0.999992
0.999993
0.999997
1
1.00003
1.00005
1.00018
1.00034
1.00103
1.0019
1.00558
1.01086
1.02899
1.06564
1.15943
1.39088
1.82076
1.99461
0.999991
0.999991
0.999991
0.999991
0.999991
0.999991
0.999991
0.999991
0.999992
0.999994
0.999998
1.00001
1.00003
1.00011
1.0002
1.00062
1.00114
1.00339
1.00646
1.01774
1.03928
1.09349
1.24242
1.63193
1.87931
0.999991
0.999991
0.999991
0.999991
0.999991
0.999991
0.999991
0.999991
0.999992
0.999992
0.999996
1
1.00002
1.00004
1.00014
1.00027
1.00082
1.00156
1.00437
1.00908
1.02282
1.05729
1.12608
1.3437
1.75656
0.999991
0.999991
0.999991
0.999991
0.999991
0.999991
0.999991
0.999991
0.999991
0.999992
0.999993
0.999998
1
1.00003
1.00006
1.0002
1.00038
1.00111
1.00212
1.00589
1.01221
1.03062
1.0753
1.17106
1.43398
0.999991
0.999991
0.999991
0.999991
0.999991
0.999991
0.999991
0.999991
0.999991
0.999991
0.999992
0.999994
1
1.00001
1.00004
1.00009
1.00028
1.00052
1.00153
1.00293
1.00805
1.01708
1.0415
1.10133
1.24341
0.999991
0.999991
0.999991
0.999991
0.999991
0.999991
0.999991
0.999991
0.999991
0.999991
0.999992
0.999993
0.999996
1
1.00002
1.00005
1.00016
1.00029
1.00088
1.00163
1.00475
1.00924
1.02438
1.05565
1.12978
0.999991
0.999991
0.999991
0.999991
0.999991
0.999991
0.999991
0.999991
0.999991
0.999991
0.999991
0.999992
0.999993
0.999998
1
1.00003
1.00006
1.0002
1.00038
1.00111
1.00211
1.00586
1.01209
1.03016
1.07361
0.999991
0.999991
0.999991
0.999991
0.999991
0.999991
0.999991
0.999991
0.999991
0.999991
0.999991
0.999991
0.999992
0.999994
1
1.00001
1.00004
1.00009
1.00026
1.0005
1.00146
1.00283
1.00768
1.01619
1.04043
0.999991
0.999991
0.999991
0.999991
0.999991
0.999991
0.999991
0.999991
0.999991
0.999991
0.999991
0.999991
0.999991
0.999993
0.999995
1
1.00001
1.00006
1.00011
1.00034
1.00065
1.00187
1.00365
1.00988
1.02049
0.999991
0.999991
0.999991
0.999991
0.999991
0.999991
0.999991
0.999991
0.999991
0.999991
0.999991
0.999991
0.999991
0.999992
0.999993
0.999997
1
1.00003
1.00006
1.00018
1.00035
1.00102
1.00191
1.00535
1.01061
0.999991
0.999991
0.999991
0.999991
0.999991
0.999991
0.999991
0.999991
0.999991
0.999991
0.999991
0.999991
0.999991
0.999991
0.999992
0.999994
0.999999
1.00001
1.00004
1.00007
1.00023
1.00044
1.00125
1.00243
1.00651
0.999991
0.999991
0.999991
0.999991
0.999991
0.999991
0.999991
0.999991
0.999991
0.999991
0.999991
0.999991
0.999991
0.999991
0.999991
0.999993
0.999994
1
1.00001
1.00005
1.0001
1.00029
1.00056
1.00158
1.00307
0.999991
0.999991
0.999991
0.999991
0.999991
0.999991
0.999991
0.999991
0.999991
0.999991
0.999991
0.999991
0.999991
0.999991
0.999991
0.999992
0.999993
0.999995
1
1.00002
1.00006
1.00012
1.00037
1.00071
1.002
0.999991
0.999991
0.999991
0.999991
0.999991
0.999991
0.999991
0.999991
0.999991
0.999991
0.999991
0.999991
0.999991
0.999991
0.999991
0.999991
0.999992
0.999994
0.999997
1.00001
1.00002
1.00009
1.00017
1.00051
1.00097
0.999991
0.999991
0.999991
0.999991
0.999991
0.999991
0.999991
0.999991
0.999991
0.999991
0.999991
0.999991
0.999991
0.999991
0.999991
0.999991
0.999991
0.999993
0.999995
1
1.00001
1.00006
1.00012
1.00037
1.00068
0.999991
0.999991
0.999991
0.999991
0.999991
0.999991
0.999991
0.999991
0.999991
0.999991
0.999991
0.999991
0.999991
0.999991
0.999991
0.999991
0.999991
0.999992
0.999995
0.999999
1.00002
1.00004
1.00013
1.00025
1.00078
0.999991
0.999991
0.999991
0.999991
0.999991
0.999991
0.999991
0.999991
0.999991
0.999991
0.999991
0.999991
0.999991
0.999991
0.999991
0.999991
0.999991
0.999992
0.999995
0.999998
1.00001
1.00003
1.00012
1.00023
1.00076
1
1.00001
1.00003
1.00005
1.00017
1.00031
1.00096
1.00185
1.00519
1.01157
1.02869
1.08009
1.17438
1.5426
2.3227
2.57609
2.64061
2.63591
2.6336
2.63647
2.63545
2.62732
2.60565
2.55457
2.36457
1
1.00001
1.00003
1.00005
1.00015
1.00027
1.00086
1.00158
1.00466
1.00971
1.0251
1.06712
1.1495
1.45824
2.18996
2.52908
2.63247
2.62486
2.61193
2.60885
2.60318
2.58687
2.55166
2.48877
2.29657
1
1.00001
1.00002
1.00004
1.00013
1.00023
1.00075
1.00135
1.0042
1.00803
1.02262
1.05276
1.12655
1.35953
1.99233
2.45094
2.61503
2.60919
2.59998
2.58888
2.57962
2.55935
2.51264
2.44795
2.29199
1
1.00001
1.00002
1.00003
1.00011
1.00019
1.00062
1.00112
1.00347
1.00655
1.01898
1.0409
1.10654
1.26854
1.80573
2.34365
2.57561
2.57307
2.57049
2.55926
2.54289
2.51808
2.47546
2.42253
2.30293
1
1
1.00001
1.00003
1.00009
1.00016
1.00049
1.00089
1.00272
1.00532
1.01444
1.03451
1.08135
1.22909
1.60557
2.27215
2.53664
2.55369
2.55178
2.54435
2.52415
2.4961
2.43498
2.38934
2.30198
1
1
1.00001
1.00003
1.00005
1.00016
1.0003
1.0009
1.00173
1.00476
1.01079
1.0262
1.07371
1.15795
1.50045
2.2078
2.451
2.51879
2.51182
2.50924
2.49985
2.47953
2.42864
2.36555
2.29423
1
1
1.00001
1.00002
1.00004
1.00013
1.00024
1.00077
1.00139
1.0043
1.00826
1.02287
1.05461
1.12853
1.36884
1.99744
2.38634
2.50506
2.49915
2.48696
2.46122
2.44255
2.41315
2.35741
2.29071
1
1
1.00001
1.00002
1.00003
1.0001
1.00019
1.00058
1.00107
1.00327
1.00626
1.01783
1.03892
1.10056
1.25143
1.75768
2.23406
2.46295
2.47143
2.46647
2.45016
2.41781
2.38514
2.33855
2.28069
1
1
1.00001
1.00001
1.00003
1.00006
1.00018
1.00033
1.00102
1.00193
1.00549
1.01175
1.02969
1.07986
1.17544
1.52264
2.19602
2.40405
2.43661
2.42762
2.42045
2.40129
2.37236