/*--------------------------------*- C++ -*----------------------------------*\
| =========                 |                                                 |
| \\      /  F ield         | OpenFOAM: The Open Source CFD Toolbox           |
|  \\    /   O peration     | Version:  4.1                                   |
|   \\  /    A nd           | Web:      www.OpenFOAM.org                      |
|    \\/     M anipulation  |                                                 |
\*---------------------------------------------------------------------------*/
FoamFile
{
    version     2.0;
    format      ascii;
    class       volVectorField;
    location    "2.86";
    object      U;
}
// * * * * * * * * * * * * * * * * * * * * * * * * * * * * * * * * * * * * * //

dimensions      [0 1 -1 0 0 0 0];

internalField   nonuniform List<vector> 
52500
(
(3 1.27311e-08 -0.00571425)
(2.99998 7.04677e-08 -0.00571438)
(2.99996 2.63304e-07 -0.00571458)
(2.9999 6.73383e-07 -0.00571518)
(2.99977 1.8708e-06 -0.00571629)
(2.99941 4.26003e-06 -0.00571966)
(2.9987 1.14074e-05 -0.00572628)
(2.99645 2.46199e-05 -0.00574392)
(2.9926 7.07861e-05 -0.00578834)
(2.97781 0.000144709 -0.00587441)
(2.95228 0.000458936 -0.00621613)
(2.85337 0.00097525 -0.00667866)
(2.59131 0.00359269 -0.00904535)
(1.94527 0.00858305 -0.0135165)
(0.875894 0.0247893 -0.0174609)
(0.446478 0.0233536 -0.0185066)
(0.540086 0.0238311 -0.0185139)
(0.56842 0.0258479 -0.0185402)
(0.516121 0.027857 -0.0187272)
(0.425769 0.0298798 -0.0189099)
(0.33846 0.0322896 -0.0191211)
(0.268541 0.0352575 -0.0192698)
(0.199079 0.0384968 -0.0194722)
(0.118319 0.0420368 -0.019659)
(0.05003 0.0455713 -0.0198092)
(3 3.79103e-08 -0.00571425)
(2.99998 2.09377e-07 -0.00571438)
(2.99996 7.84108e-07 -0.00571457)
(2.9999 2.0038e-06 -0.00571517)
(2.99978 5.58511e-06 -0.00571626)
(2.99941 1.272e-05 -0.00571959)
(2.99872 3.42369e-05 -0.0057261)
(2.9965 7.38588e-05 -0.00574354)
(2.9927 0.000214341 -0.00578719)
(2.97813 0.000437563 -0.00587224)
(2.95299 0.00140586 -0.00620806)
(2.85575 0.00298287 -0.0066647)
(2.59839 0.0111307 -0.0089844)
(1.96142 0.0266815 -0.0133985)
(0.885275 0.0757494 -0.0173347)
(0.443115 0.0678073 -0.0184266)
(0.539729 0.0661696 -0.0184342)
(0.569057 0.0697235 -0.0184517)
(0.516351 0.07318 -0.0186312)
(0.425906 0.0766472 -0.0188069)
(0.338608 0.0806164 -0.0190101)
(0.268208 0.0851853 -0.0191513)
(0.197845 0.0895372 -0.0193453)
(0.11617 0.0934775 -0.0195167)
(0.0478231 0.0958118 -0.0196583)
(3 5.93756e-08 -0.00571425)
(2.99999 3.27635e-07 -0.00571438)
(2.99996 1.22668e-06 -0.00571456)
(2.9999 3.12593e-06 -0.00571514)
(2.99978 8.71779e-06 -0.00571621)
(2.99943 1.97386e-05 -0.00571944)
(2.99875 5.38725e-05 -0.00572576)
(2.9966 0.000111996 -0.00574277)
(2.99291 0.000350617 -0.0057849)
(2.97878 0.000657213 -0.00586793)
(2.95446 0.00241803 -0.00619158)
(2.86079 0.00488079 -0.00663709)
(2.6136 0.0189698 -0.008859)
(1.99723 0.0454606 -0.0131629)
(0.907762 0.130357 -0.0171428)
(0.440042 0.115338 -0.0183305)
(0.542524 0.111179 -0.0183389)
(0.574253 0.117231 -0.0183457)
(0.521265 0.123619 -0.0185182)
(0.43109 0.130637 -0.0186872)
(0.344064 0.138155 -0.0188807)
(0.273153 0.146339 -0.0190124)
(0.201607 0.154314 -0.0191984)
(0.118322 0.161199 -0.0193703)
(0.0481606 0.164321 -0.0195033)
(3 7.58657e-08 -0.00571425)
(2.99999 4.18741e-07 -0.00571437)
(2.99997 1.56226e-06 -0.00571455)
(2.99991 3.96406e-06 -0.00571511)
(2.99979 1.10131e-05 -0.00571614)
(2.99945 2.4691e-05 -0.00571926)
(2.99879 6.8462e-05 -0.00572529)
(2.99675 0.00013325 -0.00574197)
(2.99316 0.000470347 -0.0057814)
(2.97982 0.000741879 -0.00586336)
(2.9566 0.00345643 -0.00616355)
(2.8684 0.00642146 -0.00659779)
(2.63688 0.0262417 -0.00866361)
(2.05254 0.0626256 -0.0128057)
(0.944332 0.182497 -0.0168848)
(0.439106 0.163096 -0.018216)
(0.549382 0.156147 -0.0182239)
(0.584862 0.164396 -0.0182159)
(0.531741 0.173776 -0.018382)
(0.442005 0.184877 -0.0185449)
(0.355076 0.196332 -0.0187323)
(0.283558 0.208536 -0.0188573)
(0.210566 0.220758 -0.0190292)
(0.12452 0.231442 -0.0191855)
(0.0504118 0.236132 -0.0193339)
(3 9.97098e-08 -0.00571425)
(2.99999 5.51069e-07 -0.00571436)
(2.99997 2.05485e-06 -0.00571454)
(2.99991 5.24756e-06 -0.00571507)
(2.9998 1.45356e-05 -0.00571605)
(2.99948 3.29628e-05 -0.00571905)
(2.99884 8.91322e-05 -0.00572472)
(2.99694 0.000183957 -0.00574131)
(2.99342 0.000590292 -0.00577677)
(2.98123 0.000966791 -0.00585963)
(2.95931 0.00425856 -0.00612268)
(2.87828 0.00786379 -0.00654807)
(2.66736 0.0315432 -0.0084027)
(2.12631 0.0758124 -0.0123205)
(0.998537 0.226919 -0.0165603)
(0.447857 0.21139 -0.0180716)
(0.563539 0.203079 -0.0180803)
(0.602917 0.212162 -0.0180508)
(0.549615 0.223591 -0.018215)
(0.460224 0.23861 -0.0183566)
(0.372735 0.25428 -0.0185421)
(0.299968 0.271112 -0.0186624)
(0.224821 0.288391 -0.0188379)
(0.134833 0.303883 -0.018994)
(0.054944 0.311107 -0.019118)
(3 1.23259e-07 -0.00571425)
(2.99999 6.81551e-07 -0.00571436)
(2.99997 2.54242e-06 -0.00571451)
(2.99992 6.52588e-06 -0.00571501)
(2.99981 1.80451e-05 -0.00571592)
(2.99951 4.13263e-05 -0.00571871)
(2.99892 0.000108871 -0.00572398)
(2.99717 0.00024013 -0.00573942)
(2.99382 0.000668778 -0.00577175)
(2.98283 0.00130846 -0.00585155)
(2.96249 0.00454704 -0.00608066)
(2.88953 0.00874148 -0.00648855)
(2.70167 0.0332964 -0.00811821)
(2.21354 0.0810641 -0.0117454)
(1.07249 0.248903 -0.0161693)
(0.475384 0.257219 -0.0178918)
(0.587628 0.254004 -0.0178971)
(0.62896 0.2628 -0.0178665)
(0.575845 0.275053 -0.0180401)
(0.487153 0.293451 -0.0181709)
(0.398756 0.313704 -0.018332)
(0.324169 0.335905 -0.0184346)
(0.246172 0.359561 -0.0185814)
(0.150598 0.38214 -0.0187291)
(0.0620859 0.394448 -0.0188857)
(3 1.34946e-07 -0.00571425)
(2.99999 7.45783e-07 -0.00571435)
(2.99997 2.77698e-06 -0.00571449)
(2.99992 7.12009e-06 -0.00571495)
(2.99983 1.96168e-05 -0.00571579)
(2.99955 4.48399e-05 -0.00571834)
(2.99901 0.000117152 -0.00572318)
(2.9974 0.000259831 -0.00573737)
(2.99431 0.00068988 -0.00576677)
(2.98443 0.00148027 -0.00584116)
(2.96563 0.00435948 -0.00604287)
(2.90072 0.00909187 -0.006432)
(2.73527 0.0306589 -0.00784022)
(2.30032 0.0748587 -0.0112074)
(1.16377 0.228065 -0.015735)
(0.527854 0.292276 -0.0176444)
(0.620459 0.307336 -0.0176337)
(0.659631 0.315059 -0.0176211)
(0.608609 0.327657 -0.0178035)
(0.522691 0.349816 -0.0179343)
(0.434036 0.375642 -0.0180934)
(0.357549 0.404448 -0.0181828)
(0.276615 0.436305 -0.0183196)
(0.174745 0.469225 -0.018452)
(0.0744085 0.49188 -0.0185576)
(3 1.46772e-07 -0.00571425)
(2.99999 8.09471e-07 -0.00571434)
(2.99997 3.01371e-06 -0.00571447)
(2.99993 7.71917e-06 -0.00571488)
(2.99984 2.12768e-05 -0.00571564)
(2.99959 4.86201e-05 -0.00571796)
(2.9991 0.000126816 -0.00572234)
(2.99764 0.000283265 -0.00573526)
(2.99483 0.000726965 -0.00576187)
(2.98586 0.00167839 -0.0058297)
(2.96894 0.0041597 -0.00601266)
(2.91022 0.0101476 -0.00636282)
(2.76183 0.0277703 -0.00764941)
(2.36533 0.0691958 -0.0106491)
(1.25887 0.199787 -0.0156292)
(0.574927 0.333462 -0.017494)
(0.635989 0.367836 -0.0174479)
(0.673742 0.366674 -0.0174287)
(0.634793 0.379061 -0.0175736)
(0.55926 0.405633 -0.0176763)
(0.475071 0.438895 -0.0178125)
(0.399641 0.476372 -0.0178726)
(0.318118 0.519279 -0.0179492)
(0.211356 0.568091 -0.0180458)
(0.0952926 0.612511 -0.0181562)
(3 1.74152e-07 -0.00571425)
(2.99999 9.5355e-07 -0.00571432)
(2.99998 3.55157e-06 -0.00571444)
(2.99994 9.14068e-06 -0.00571481)
(2.99986 2.52096e-05 -0.00571548)
(2.99964 5.8304e-05 -0.00571754)
(2.9992 0.000149176 -0.0057214)
(2.9979 0.000353042 -0.00573281)
(2.99548 0.000808193 -0.00575673)
(2.98726 0.00209065 -0.00581369)
(2.97279 0.00436577 -0.00598773)
(2.91947 0.0113312 -0.00627186)
(2.78774 0.0272408 -0.00750646)
(2.42962 0.0710391 -0.00991546)
(1.38125 0.197724 -0.0153126)
(0.656451 0.384328 -0.0172823)
(0.645298 0.416084 -0.01725)
(0.672868 0.412612 -0.017297)
(0.655032 0.428687 -0.0173615)
(0.595397 0.458502 -0.0174254)
(0.520547 0.5009 -0.0175235)
(0.450328 0.549382 -0.0175463)
(0.373524 0.60656 -0.0175843)
(0.269443 0.680868 -0.0175841)
(0.134162 0.771805 -0.0174916)
(3 2.61417e-07 -0.00571424)
(2.99999 4.45125e-07 -0.00571431)
(2.99998 3.78042e-06 -0.00571441)
(2.99995 5.49318e-06 -0.00571471)
(2.99988 2.55074e-05 -0.00571528)
(2.9997 3.53136e-05 -0.00571693)
(2.99934 0.000152132 -0.00572033)
(2.99819 0.000193937 -0.00572866)
(2.99629 0.000933286 -0.00575196)
(2.98881 0.000827886 -0.00579244)
(2.97674 0.00632699 -0.00596511)
(2.92846 0.00344864 -0.00618514)
(2.81453 0.0405203 -0.00736401)
(2.49492 0.0508538 -0.0093295)
(1.52595 0.217371 -0.0146125)
(0.758643 0.438172 -0.0169008)
(0.654653 0.450692 -0.0171512)
(0.679597 0.451199 -0.0171719)
(0.675966 0.473367 -0.017169)
(0.632184 0.50713 -0.0171971)
(0.57172 0.557948 -0.0171957)
(0.511239 0.618294 -0.0171522)
(0.449095 0.696737 -0.0170617)
(0.366514 0.816225 -0.016888)
(0.207726 1.0273 -0.0164989)
(3 1.29933e-08 -2.51219e-09)
(2.99998 7.0679e-08 -8.66151e-09)
(2.99996 2.63276e-07 -1.00349e-08)
(2.9999 6.74369e-07 -1.60876e-08)
(2.99977 1.87e-06 -1.59271e-08)
(2.9994 4.26046e-06 -2.16439e-08)
(2.9987 1.14065e-05 -2.16496e-08)
(2.99645 2.46215e-05 -2.95335e-08)
(2.9926 7.07843e-05 -3.05903e-08)
(2.9778 0.000144721 -5.49741e-08)
(2.95227 0.000458977 -6.66381e-08)
(2.85335 0.000975403 -1.46277e-07)
(2.59127 0.00359317 -1.71576e-07)
(1.94518 0.00858463 -5.63588e-07)
(0.875861 0.0247926 -6.47911e-07)
(0.446505 0.023356 6.60594e-08)
(0.540091 0.0238329 -2.01303e-08)
(0.568416 0.0258491 -7.63768e-08)
(0.516117 0.0278576 -7.61616e-08)
(0.425768 0.0298799 -7.13219e-08)
(0.338462 0.0322895 -5.91743e-08)
(0.268541 0.0352574 -5.77856e-08)
(0.199079 0.0384968 -6.02322e-08)
(0.118322 0.042037 -5.78653e-08)
(0.0500322 0.0455726 -5.80667e-08)
(3 3.86428e-08 -2.50695e-09)
(2.99998 2.10094e-07 -8.66181e-09)
(2.99996 7.83915e-07 -1.004e-08)
(2.9999 2.00719e-06 -1.60682e-08)
(2.99977 5.58297e-06 -1.59577e-08)
(2.99941 1.27232e-05 -2.1625e-08)
(2.99871 3.42392e-05 -2.167e-08)
(2.9965 7.3883e-05 -2.94872e-08)
(2.9927 0.000214367 -3.06442e-08)
(2.97812 0.00043772 -5.47099e-08)
(2.95298 0.0014062 -6.60804e-08)
(2.85573 0.00298369 -1.44203e-07)
(2.59835 0.0111327 -1.66473e-07)
(1.96133 0.0266866 -5.47958e-07)
(0.885242 0.0757567 -6.38504e-07)
(0.443138 0.0678095 6.23386e-08)
(0.539731 0.0661695 -2.19906e-08)
(0.569051 0.069723 -7.75872e-08)
(0.516345 0.0731794 -7.72386e-08)
(0.425904 0.0766468 -7.17969e-08)
(0.338608 0.080616 -5.94181e-08)
(0.268207 0.0851851 -5.79347e-08)
(0.197845 0.0895371 -6.01006e-08)
(0.116172 0.0934779 -5.76368e-08)
(0.0478244 0.0958136 -5.76225e-08)
(3 6.02417e-08 -2.49753e-09)
(2.99998 3.28637e-07 -8.65987e-09)
(2.99996 1.22378e-06 -1.00532e-08)
(2.9999 3.12871e-06 -1.60193e-08)
(2.99978 8.69826e-06 -1.60208e-08)
(2.99943 1.97094e-05 -2.15551e-08)
(2.99875 5.37938e-05 -2.16505e-08)
(2.9966 0.000111717 -2.91176e-08)
(2.99291 0.000350478 -3.05223e-08)
(2.97878 0.000655175 -5.25122e-08)
(2.95445 0.0024203 -6.29662e-08)
(2.86077 0.00487834 -1.3749e-07)
(2.61356 0.0189789 -1.54111e-07)
(1.99714 0.0454752 -5.20155e-07)
(0.90772 0.130383 -6.37691e-07)
(0.440047 0.115349 4.18735e-08)
(0.542517 0.11118 -3.04516e-08)
(0.574241 0.11723 -7.83837e-08)
(0.521255 0.123617 -7.73465e-08)
(0.431083 0.130636 -7.12162e-08)
(0.344061 0.138154 -5.97895e-08)
(0.27315 0.146337 -5.86939e-08)
(0.201605 0.154314 -6.07637e-08)
(0.118323 0.161199 -5.80363e-08)
(0.0481611 0.164323 -5.72524e-08)
(3 7.6636e-08 -2.48968e-09)
(2.99999 4.21529e-07 -8.6564e-09)
(2.99996 1.56093e-06 -1.01151e-08)
(2.99991 3.97085e-06 -1.59626e-08)
(2.99979 1.10092e-05 -1.63592e-08)
(2.99945 2.46951e-05 -2.18545e-08)
(2.99879 6.84599e-05 -2.25941e-08)
(2.99675 0.000133188 -3.3366e-08)
(2.99316 0.000470475 -2.81989e-08)
(2.97982 0.00074086 -9.03506e-08)
(2.95659 0.0034589 8.05135e-09)
(2.86839 0.00642114 -2.18206e-07)
(2.63686 0.0262498 -1.02182e-08)
(2.05248 0.062641 -4.53295e-07)
(0.944331 0.182528 -5.56713e-07)
(0.439148 0.163111 2.26117e-09)
(0.549402 0.15615 -6.64123e-08)
(0.584873 0.164396 -8.69472e-08)
(0.531749 0.173775 -8.09593e-08)
(0.442011 0.184876 -7.179e-08)
(0.355079 0.19633 -6.42061e-08)
(0.283557 0.208535 -6.29872e-08)
(0.210565 0.220757 -6.35166e-08)
(0.12452 0.231442 -5.96668e-08)
(0.0504119 0.236134 -5.79762e-08)
(3 1.01356e-07 -2.48216e-09)
(2.99999 5.54528e-07 -8.6178e-09)
(2.99997 2.05963e-06 -1.01272e-08)
(2.99991 5.26066e-06 -1.58714e-08)
(2.9998 1.45668e-05 -1.62004e-08)
(2.99948 3.30381e-05 -2.14284e-08)
(2.99884 8.9297e-05 -2.17325e-08)
(2.99694 0.000184471 -3.02779e-08)
(2.99341 0.000590819 -2.69495e-08)
(2.98123 0.000969598 -7.41289e-08)
(2.95931 0.00425896 -1.68806e-09)
(2.87827 0.00786947 -1.79109e-07)
(2.66735 0.031543 -2.48825e-08)
(2.12626 0.0758192 -3.95529e-07)
(0.998535 0.226937 -5.04927e-07)
(0.447894 0.211397 -3.43695e-08)
(0.563564 0.203082 -8.54522e-08)
(0.602939 0.212165 -8.67377e-08)
(0.549634 0.223595 -7.9168e-08)
(0.460239 0.238613 -6.92799e-08)
(0.372745 0.254281 -6.70359e-08)
(0.299971 0.271112 -6.65841e-08)
(0.224822 0.288392 -6.63492e-08)
(0.134835 0.303884 -6.19751e-08)
(0.0549445 0.311109 -5.93332e-08)
(3 1.25758e-07 -2.45671e-09)
(2.99999 6.83654e-07 -8.6168e-09)
(2.99997 2.54748e-06 -1.0087e-08)
(2.99992 6.53525e-06 -1.58047e-08)
(2.99981 1.80677e-05 -1.59997e-08)
(2.99951 4.13766e-05 -2.09857e-08)
(2.99892 0.000108982 -2.0828e-08)
(2.99717 0.000240459 -2.65652e-08)
(2.99381 0.000669094 -2.7433e-08)
(2.98283 0.00131068 -4.75015e-08)
(2.96248 0.004547 -3.02669e-08)
(2.88952 0.008746 -1.30119e-07)
(2.70165 0.0332965 -7.11442e-08)
(2.21349 0.0810712 -3.58373e-07)
(1.07247 0.248928 -4.99652e-07)
(0.475392 0.257223 -6.46952e-08)
(0.587641 0.254007 -8.35276e-08)
(0.628977 0.262806 -7.63861e-08)
(0.575864 0.27506 -7.14818e-08)
(0.48717 0.293458 -6.59471e-08)
(0.398769 0.31371 -6.72469e-08)
(0.324176 0.335909 -6.72832e-08)
(0.246176 0.359564 -6.71654e-08)
(0.150601 0.382141 -6.31786e-08)
(0.0620869 0.39445 -6.13178e-08)
(3 1.37329e-07 -2.43219e-09)
(2.99999 7.4733e-07 -8.61915e-09)
(2.99997 2.77933e-06 -1.0075e-08)
(2.99992 7.12343e-06 -1.57847e-08)
(2.99983 1.96234e-05 -1.59398e-08)
(2.99955 4.48525e-05 -2.08777e-08)
(2.99901 0.000117181 -2.05299e-08)
(2.9974 0.000259897 -2.59807e-08)
(2.99431 0.000689985 -2.68692e-08)
(2.98442 0.0014809 -3.79537e-08)
(2.96563 0.00435972 -3.7777e-08)
(2.90072 0.00909389 -1.02574e-07)
(2.73525 0.0306609 -7.05242e-08)
(2.30028 0.0748669 -2.88135e-07)
(1.16375 0.228092 -3.33059e-07)
(0.527849 0.292276 -1.59969e-07)
(0.62047 0.307335 -9.30139e-08)
(0.659647 0.315063 -6.58088e-08)
(0.608626 0.327665 -6.34681e-08)
(0.522708 0.349824 -6.12537e-08)
(0.43405 0.375651 -6.41108e-08)
(0.357558 0.404455 -6.48428e-08)
(0.276621 0.43631 -6.59406e-08)
(0.17475 0.469228 -6.32718e-08)
(0.0744105 0.491884 -6.18781e-08)
(3 1.48961e-07 -2.40912e-09)
(2.99999 8.1082e-07 -8.62618e-09)
(2.99997 3.01448e-06 -1.00768e-08)
(2.99993 7.71961e-06 -1.57861e-08)
(2.99984 2.12739e-05 -1.59363e-08)
(2.99959 4.86111e-05 -2.08654e-08)
(2.9991 0.000126782 -2.04928e-08)
(2.99764 0.000283172 -2.58437e-08)
(2.99483 0.000726899 -2.6629e-08)
(2.98586 0.00167693 -3.72712e-08)
(2.96893 0.00416047 -3.5815e-08)
(2.91022 0.0101453 -9.92606e-08)
(2.76182 0.0277736 -5.92046e-08)
(2.3653 0.0692002 -2.54581e-07)
(1.25883 0.199801 -3.24037e-07)
(0.574908 0.33346 -2.44932e-07)
(0.635998 0.367837 -1.07407e-07)
(0.673758 0.366678 -5.74843e-08)
(0.634809 0.379069 -5.60974e-08)
(0.559275 0.405642 -5.62184e-08)
(0.475085 0.438905 -6.04449e-08)
(0.399652 0.476381 -6.06287e-08)
(0.318126 0.519287 -6.21248e-08)
(0.211363 0.568097 -6.12356e-08)
(0.0952959 0.612516 -6.10665e-08)
(3 1.74211e-07 -2.38843e-09)
(2.99999 9.51897e-07 -8.62801e-09)
(2.99998 3.54676e-06 -1.00912e-08)
(2.99994 9.11088e-06 -1.57956e-08)
(2.99986 2.51923e-05 -1.60078e-08)
(2.99964 5.82423e-05 -2.10093e-08)
(2.9992 0.0001491 -2.10322e-08)
(2.9979 0.000352867 -2.7219e-08)
(2.99547 0.000808025 -2.63901e-08)
(2.98726 0.00209017 -6.54975e-08)
(2.97279 0.00436495 6.88762e-10)
(2.91947 0.011331 -1.54918e-07)
(2.78774 0.0272414 1.70955e-08)
(2.4296 0.0710379 -2.59265e-07)
(1.38123 0.197732 -2.6339e-07)
(0.656436 0.384326 -2.95423e-07)
(0.645312 0.416089 -7.08006e-08)
(0.672884 0.412619 -5.46586e-08)
(0.655048 0.428695 -5.15076e-08)
(0.595412 0.458512 -5.31964e-08)
(0.520561 0.500911 -5.6132e-08)
(0.450341 0.549392 -5.55564e-08)
(0.373533 0.60657 -5.67005e-08)
(0.269451 0.680876 -5.67514e-08)
(0.134167 0.771814 -5.70244e-08)
(3 2.4716e-07 -2.40798e-09)
(2.99999 5.01677e-07 -8.65716e-09)
(2.99998 3.67534e-06 -1.01401e-08)
(2.99995 5.53444e-06 -1.62774e-08)
(2.99988 2.53812e-05 -1.57624e-08)
(2.9997 3.53614e-05 -2.16607e-08)
(2.99934 0.00015203 -2.08702e-08)
(2.99819 0.000194071 -2.77218e-08)
(2.99628 0.00093314 -2.66394e-08)
(2.9888 0.000829625 -4.32339e-08)
(2.97673 0.00632543 -4.27603e-08)
(2.92846 0.00345283 -9.10109e-08)
(2.81451 0.0405145 -3.41175e-08)
(2.49489 0.0508592 -2.83015e-07)
(1.52592 0.217365 -2.22118e-07)
(0.758619 0.438169 -3.3508e-07)
(0.654667 0.450696 -5.1182e-08)
(0.679612 0.451207 -4.24478e-08)
(0.67598 0.473376 -4.77729e-08)
(0.632198 0.50714 -4.92835e-08)
(0.571735 0.557959 -5.11014e-08)
(0.511253 0.618306 -5.03693e-08)
(0.449106 0.696749 -4.96796e-08)
(0.366524 0.816235 -4.89466e-08)
(0.207733 1.02731 -4.73828e-08)
(3 1.29934e-08 -3.39316e-13)
(2.99998 7.06793e-08 -1.84153e-12)
(2.99996 2.63277e-07 -3.82131e-12)
(2.9999 6.74371e-07 -8.07071e-12)
(2.99977 1.87001e-06 -1.34715e-11)
(2.9994 4.26047e-06 -2.46738e-11)
(2.9987 1.14065e-05 -4.77169e-11)
(2.99645 2.46216e-05 -8.23546e-11)
(2.9926 7.07845e-05 -2.31152e-10)
(2.9778 0.000144722 -3.63655e-10)
(2.95227 0.000458977 -1.35556e-09)
(2.85335 0.000975403 -2.30929e-09)
(2.59127 0.00359318 -9.01999e-09)
(1.94518 0.00858463 -1.9164e-08)
(0.875859 0.0247925 -2.88918e-08)
(0.446506 0.023356 3.60519e-09)
(0.540091 0.0238329 9.55852e-12)
(0.568416 0.0258491 -2.01086e-09)
(0.516117 0.0278576 -1.9419e-09)
(0.425768 0.0298799 -1.73422e-09)
(0.338462 0.0322895 -1.53281e-09)
(0.268541 0.0352574 -1.57335e-09)
(0.199079 0.0384968 -1.77193e-09)
(0.118322 0.042037 -1.79027e-09)
(0.0500323 0.0455727 -1.96048e-09)
(3 3.8643e-08 -3.38326e-13)
(2.99998 2.10095e-07 -1.83731e-12)
(2.99996 7.83918e-07 -3.8086e-12)
(2.9999 2.0072e-06 -8.04113e-12)
(2.99977 5.58299e-06 -1.34004e-11)
(2.99941 1.27233e-05 -2.45275e-11)
(2.99871 3.42393e-05 -4.7368e-11)
(2.9965 7.38831e-05 -8.17448e-11)
(2.9927 0.000214367 -2.2953e-10)
(2.97812 0.000437721 -3.61355e-10)
(2.95298 0.0014062 -1.35179e-09)
(2.85573 0.00298369 -2.30404e-09)
(2.59835 0.0111327 -9.00698e-09)
(1.96133 0.0266866 -1.9189e-08)
(0.88524 0.0757567 -2.92624e-08)
(0.443139 0.0678094 3.63679e-09)
(0.539731 0.0661695 2.94265e-11)
(0.569051 0.069723 -1.98874e-09)
(0.516345 0.0731794 -1.91878e-09)
(0.425904 0.0766468 -1.71428e-09)
(0.338608 0.080616 -1.50138e-09)
(0.268207 0.0851851 -1.54171e-09)
(0.197845 0.0895372 -1.74665e-09)
(0.116172 0.093478 -1.77268e-09)
(0.0478245 0.0958137 -1.94121e-09)
(3 6.02425e-08 -3.36213e-13)
(2.99998 3.28641e-07 -1.82804e-12)
(2.99996 1.2238e-06 -3.78245e-12)
(2.9999 3.12876e-06 -7.97994e-12)
(2.99978 8.69837e-06 -1.32779e-11)
(2.99943 1.97097e-05 -2.43085e-11)
(2.99875 5.37945e-05 -4.68667e-11)
(2.9966 0.00011172 -8.17408e-11)
(2.99291 0.00035048 -2.26812e-10)
(2.97878 0.00065519 -3.64813e-10)
(2.95445 0.00242029 -1.3528e-09)
(2.86077 0.00487837 -2.30163e-09)
(2.61356 0.0189789 -8.98517e-09)
(1.99714 0.0454752 -1.9232e-08)
(0.907718 0.130383 -3.01481e-08)
(0.440048 0.115349 3.72366e-09)
(0.542517 0.11118 1.13755e-10)
(0.574241 0.11723 -1.95347e-09)
(0.521255 0.123617 -1.89422e-09)
(0.431083 0.130636 -1.70769e-09)
(0.344061 0.138154 -1.4618e-09)
(0.27315 0.146337 -1.491e-09)
(0.201606 0.154314 -1.70402e-09)
(0.118323 0.161199 -1.72762e-09)
(0.0481612 0.164323 -1.86162e-09)
(3 7.66366e-08 -3.21232e-13)
(2.99999 4.21531e-07 -1.78138e-12)
(2.99996 1.56094e-06 -3.6032e-12)
(2.99991 3.97088e-06 -7.39057e-12)
(2.99979 1.10093e-05 -1.21067e-11)
(2.99945 2.46953e-05 -2.09092e-11)
(2.99879 6.84603e-05 -4.00887e-11)
(2.99675 0.000133189 -5.07328e-11)
(2.99316 0.000470476 -2.35168e-10)
(2.97982 0.000740871 -1.10858e-10)
(2.95659 0.0034589 -1.7452e-09)
(2.86839 0.00642117 -1.71303e-09)
(2.63686 0.0262498 -9.63186e-09)
(2.05248 0.0626411 -1.92576e-08)
(0.944329 0.182528 -3.18699e-08)
(0.439149 0.16311 3.65286e-09)
(0.549402 0.15615 3.4088e-10)
(0.584872 0.164396 -1.86562e-09)
(0.531749 0.173775 -1.84842e-09)
(0.442011 0.184876 -1.70019e-09)
(0.355079 0.19633 -1.41965e-09)
(0.283557 0.208535 -1.43463e-09)
(0.210565 0.220757 -1.63141e-09)
(0.124521 0.231442 -1.63957e-09)
(0.050412 0.236134 -1.74081e-09)
(3 1.01355e-07 -3.24253e-13)
(2.99999 5.54527e-07 -1.79013e-12)
(2.99997 2.05962e-06 -3.65087e-12)
(2.99991 5.26064e-06 -7.50453e-12)
(2.9998 1.45667e-05 -1.24743e-11)
(2.99948 3.30379e-05 -2.19213e-11)
(2.99884 8.92967e-05 -4.1836e-11)
(2.99694 0.000184469 -6.24001e-11)
(2.99341 0.00059082 -2.2689e-10)
(2.98123 0.000969588 -1.80394e-10)
(2.95931 0.00425897 -1.59694e-09)
(2.87827 0.00786948 -1.78843e-09)
(2.66734 0.0315432 -9.02824e-09)
(2.12626 0.0758195 -1.86293e-08)
(0.998532 0.226937 -3.30455e-08)
(0.447894 0.211397 2.79886e-09)
(0.563564 0.203082 3.85303e-10)
(0.602938 0.212165 -1.77952e-09)
(0.549634 0.223595 -1.81791e-09)
(0.460239 0.238613 -1.6989e-09)
(0.372744 0.254281 -1.38491e-09)
(0.299971 0.271112 -1.37018e-09)
(0.224822 0.288392 -1.54166e-09)
(0.134835 0.303884 -1.53944e-09)
(0.0549445 0.311109 -1.59579e-09)
(3 1.25759e-07 -3.28171e-13)
(2.99999 6.83656e-07 -1.80178e-12)
(2.99997 2.54748e-06 -3.7073e-12)
(2.99992 6.53526e-06 -7.65087e-12)
(2.99981 1.80678e-05 -1.28732e-11)
(2.99951 4.13766e-05 -2.31122e-11)
(2.99892 0.000108982 -4.28325e-11)
(2.99717 0.000240459 -7.79139e-11)
(2.99381 0.000669097 -1.96894e-10)
(2.98283 0.00131068 -2.94543e-10)
(2.96248 0.00454704 -1.27634e-09)
(2.88952 0.00874606 -1.78545e-09)
(2.70165 0.0332968 -7.87374e-09)
(2.21349 0.0810719 -1.70306e-08)
(1.07247 0.24893 -3.31236e-08)
(0.475392 0.257223 4.06521e-10)
(0.58764 0.254007 -3.77868e-10)
(0.628976 0.262806 -1.76844e-09)
(0.575863 0.27506 -1.83369e-09)
(0.487169 0.293457 -1.7971e-09)
(0.398769 0.31371 -1.4515e-09)
(0.324176 0.335908 -1.3538e-09)
(0.246175 0.359564 -1.4742e-09)
(0.150601 0.382142 -1.42543e-09)
(0.062087 0.39445 -1.44609e-09)
(3 1.37329e-07 -3.21037e-13)
(2.99999 7.47333e-07 -1.76916e-12)
(2.99997 2.77934e-06 -3.5986e-12)
(2.99992 7.12345e-06 -7.41346e-12)
(2.99983 1.96235e-05 -1.21224e-11)
(2.99955 4.48527e-05 -2.15352e-11)
(2.99901 0.000117181 -3.77198e-11)
(2.9974 0.000259898 -6.75974e-11)
(2.99431 0.000689989 -1.54008e-10)
(2.98442 0.00148091 -2.69079e-10)
(2.96563 0.00435976 -9.15011e-10)
(2.90071 0.00909395 -1.23196e-09)
(2.73525 0.0306612 -5.53853e-09)
(2.30028 0.0748676 -1.17854e-08)
(1.16375 0.228094 -1.97831e-08)
(0.527848 0.292277 -7.00028e-09)
(0.62047 0.307335 -2.51764e-09)
(0.659646 0.315063 -1.83252e-09)
(0.608626 0.327664 -1.86897e-09)
(0.522707 0.349824 -1.85062e-09)
(0.43405 0.37565 -1.53277e-09)
(0.357558 0.404455 -1.37929e-09)
(0.27662 0.43631 -1.44923e-09)
(0.17475 0.469229 -1.34417e-09)
(0.0744105 0.491884 -1.27787e-09)
(3 1.4896e-07 -3.18521e-13)
(2.99999 8.1082e-07 -1.75658e-12)
(2.99997 3.01448e-06 -3.56245e-12)
(2.99993 7.71961e-06 -7.33188e-12)
(2.99984 2.12739e-05 -1.18877e-11)
(2.99959 4.8611e-05 -2.10378e-11)
(2.9991 0.000126782 -3.62273e-11)
(2.99764 0.000283171 -6.4695e-11)
(2.99483 0.000726899 -1.42023e-10)
(2.98586 0.00167692 -2.6201e-10)
(2.96893 0.00416049 -7.29494e-10)
(2.91022 0.0101453 -1.37056e-09)
(2.76182 0.0277738 -4.21632e-09)
(2.3653 0.0692005 -9.39292e-09)
(1.25883 0.199802 -1.8448e-08)
(0.574907 0.33346 -1.31574e-08)
(0.635998 0.367837 -4.929e-09)
(0.673759 0.366678 -1.76254e-09)
(0.634808 0.379068 -1.77655e-09)
(0.559275 0.405642 -1.84665e-09)
(0.475084 0.438905 -1.70427e-09)
(0.399652 0.476381 -1.4926e-09)
(0.318126 0.519286 -1.47203e-09)
(0.211363 0.568097 -1.31039e-09)
(0.0952958 0.612516 -1.13301e-09)
(3 1.74211e-07 -3.23429e-13)
(2.99999 9.51897e-07 -1.77323e-12)
(2.99998 3.54677e-06 -3.64199e-12)
(2.99994 9.11088e-06 -7.48783e-12)
(2.99986 2.51923e-05 -1.25333e-11)
(2.99964 5.82423e-05 -2.23243e-11)
(2.9992 0.0001491 -4.09449e-11)
(2.9979 0.000352867 -7.7431e-11)
(2.99547 0.000808026 -1.41123e-10)
(2.98726 0.00209017 -5.18937e-10)
(2.97279 0.00436496 -3.40975e-10)
(2.91947 0.011331 -2.17999e-09)
(2.78774 0.0272415 -2.88721e-09)
(2.42959 0.0710381 -8.82487e-09)
(1.38123 0.197732 -1.65259e-08)
(0.656434 0.384326 -1.52659e-08)
(0.645312 0.41609 -2.22602e-09)
(0.672885 0.412619 -1.49127e-09)
(0.655048 0.428695 -1.67975e-09)
(0.595412 0.458512 -1.77765e-09)
(0.520561 0.50091 -1.80874e-09)
(0.450341 0.549392 -1.55981e-09)
(0.373533 0.606569 -1.49452e-09)
(0.269451 0.680876 -1.28343e-09)
(0.134167 0.771814 -1.02986e-09)
(3 2.47158e-07 -3.20673e-13)
(2.99999 5.01688e-07 -1.74179e-12)
(2.99998 3.67533e-06 -3.52183e-12)
(2.99995 5.53449e-06 -7.42099e-12)
(2.99988 2.53812e-05 -1.1436e-11)
(2.9997 3.53616e-05 -2.06687e-11)
(2.99934 0.00015203 -3.40379e-11)
(2.99819 0.000194072 -6.08943e-11)
(2.99628 0.000933143 -1.24946e-10)
(2.9888 0.000829642 -2.34045e-10)
(2.97673 0.00632543 -5.98585e-10)
(2.92846 0.00345289 -1.26849e-09)
(2.81451 0.0405146 -2.72802e-09)
(2.49489 0.0508594 -9.07754e-09)
(1.52592 0.217365 -1.43758e-08)
(0.758617 0.438169 -1.77075e-08)
(0.654667 0.450696 -1.57859e-09)
(0.679612 0.451207 -1.18978e-09)
(0.675981 0.473376 -1.71811e-09)
(0.632198 0.50714 -1.78006e-09)
(0.571734 0.557959 -1.79179e-09)
(0.511253 0.618306 -1.66615e-09)
(0.449106 0.696748 -1.47481e-09)
(0.366524 0.816235 -1.22698e-09)
(0.207732 1.02731 -9.03091e-10)
(3 1.29934e-08 2.00189e-15)
(2.99998 7.06793e-08 9.20273e-15)
(2.99996 2.63277e-07 2.78646e-14)
(2.9999 6.74371e-07 6.01199e-14)
(2.99977 1.87001e-06 1.4646e-13)
(2.9994 4.26047e-06 2.98324e-13)
(2.9987 1.14065e-05 6.4e-13)
(2.99645 2.46216e-05 1.32788e-12)
(2.9926 7.07845e-05 2.01013e-12)
(2.9778 0.000144722 4.67857e-12)
(2.95227 0.000458977 -6.5735e-13)
(2.85335 0.000975403 -1.98205e-12)
(2.59127 0.00359318 -1.17213e-10)
(1.94518 0.00858463 -3.77663e-10)
(0.875859 0.0247925 -9.25817e-10)
(0.446506 0.023356 -5.59604e-10)
(0.540091 0.0238329 -3.49253e-10)
(0.568415 0.0258491 -3.39791e-10)
(0.516117 0.0278575 -3.58021e-10)
(0.425768 0.0298799 -4.03027e-10)
(0.338462 0.0322895 -3.52458e-10)
(0.268541 0.0352574 -3.54981e-10)
(0.199079 0.0384968 -4.68425e-10)
(0.118322 0.042037 -4.34888e-10)
(0.0500323 0.0455727 -5.24622e-10)
(3 3.8643e-08 1.95542e-15)
(2.99998 2.10095e-07 8.95427e-15)
(2.99996 7.83917e-07 2.7149e-14)
(2.9999 2.0072e-06 5.86047e-14)
(2.99977 5.58299e-06 1.43013e-13)
(2.99941 1.27233e-05 2.91423e-13)
(2.99871 3.42393e-05 6.26394e-13)
(2.9965 7.38831e-05 1.30293e-12)
(2.9927 0.000214367 1.96901e-12)
(2.97812 0.000437721 4.6221e-12)
(2.95298 0.0014062 -6.26762e-13)
(2.85573 0.00298369 -1.60857e-12)
(2.59835 0.0111327 -1.15588e-10)
(1.96133 0.0266866 -3.72584e-10)
(0.88524 0.0757567 -9.23185e-10)
(0.443139 0.0678094 -5.52686e-10)
(0.539731 0.0661695 -3.42174e-10)
(0.569051 0.069723 -3.36978e-10)
(0.516345 0.0731794 -3.55503e-10)
(0.425904 0.0766468 -4.0021e-10)
(0.338608 0.080616 -3.46322e-10)
(0.268207 0.0851851 -3.50938e-10)
(0.197845 0.0895371 -4.66462e-10)
(0.116172 0.093478 -4.38182e-10)
(0.0478245 0.0958137 -5.2569e-10)
(3 6.02425e-08 1.85539e-15)
(2.99998 3.2864e-07 8.52124e-15)
(2.99996 1.2238e-06 2.59487e-14)
(2.9999 3.12876e-06 5.6028e-14)
(2.99978 8.69837e-06 1.37957e-13)
(2.99943 1.97097e-05 2.81808e-13)
(2.99875 5.37944e-05 6.097e-13)
(2.9966 0.00011172 1.28532e-12)
(2.99291 0.00035048 1.9239e-12)
(2.97878 0.00065519 4.65691e-12)
(2.95445 0.00242029 -4.83922e-13)
(2.86077 0.00487837 -7.00023e-13)
(2.61356 0.0189789 -1.12406e-10)
(1.99714 0.0454752 -3.63729e-10)
(0.907718 0.130383 -9.2546e-10)
(0.440048 0.115349 -5.43037e-10)
(0.542517 0.11118 -3.32125e-10)
(0.574241 0.11723 -3.34604e-10)
(0.521255 0.123617 -3.54365e-10)
(0.431083 0.130636 -4.02404e-10)
(0.344061 0.138154 -3.44319e-10)
(0.27315 0.146337 -3.51343e-10)
(0.201606 0.154314 -4.71985e-10)
(0.118323 0.161199 -4.42226e-10)
(0.0481612 0.164323 -5.14499e-10)
(3 7.66366e-08 1.46302e-15)
(2.99999 4.21531e-07 6.75039e-15)
(2.99996 1.56094e-06 2.0555e-14)
(2.99991 3.97088e-06 4.47479e-14)
(2.99979 1.10093e-05 1.10219e-13)
(2.99945 2.46953e-05 2.27093e-13)
(2.99879 6.84603e-05 5.09531e-13)
(2.99675 0.000133189 1.03157e-12)
(2.99316 0.000470476 1.7517e-12)
(2.97982 0.000740871 4.61825e-12)
(2.95659 0.0034589 -2.23852e-12)
(2.86839 0.00642117 2.98957e-12)
(2.63686 0.0262498 -1.04277e-10)
(2.05248 0.0626411 -3.3851e-10)
(0.944329 0.182528 -9.0061e-10)
(0.439149 0.16311 -5.28717e-10)
(0.549402 0.15615 -3.29846e-10)
(0.584872 0.164396 -3.36303e-10)
(0.531749 0.173775 -3.54303e-10)
(0.442011 0.184876 -4.03332e-10)
(0.355079 0.19633 -3.51625e-10)
(0.283557 0.208535 -3.60571e-10)
(0.210565 0.220757 -4.77189e-10)
(0.124521 0.231442 -4.42272e-10)
(0.050412 0.236134 -4.99441e-10)
(3 1.01355e-07 1.46818e-15)
(2.99999 5.54527e-07 6.67166e-15)
(2.99997 2.05962e-06 2.05577e-14)
(2.99991 5.26064e-06 4.47899e-14)
(2.9998 1.45667e-05 1.10618e-13)
(2.99948 3.30379e-05 2.29337e-13)
(2.99884 8.92967e-05 5.01824e-13)
(2.99694 0.000184469 1.11448e-12)
(2.99341 0.00059082 1.44813e-12)
(2.98123 0.000969588 5.62427e-12)
(2.95931 0.00425897 -4.35908e-12)
(2.87827 0.00786948 6.69993e-12)
(2.66734 0.0315432 -1.00269e-10)
(2.12626 0.0758195 -3.09073e-10)
(0.998532 0.226937 -8.71824e-10)
(0.447894 0.211397 -5.14044e-10)
(0.563564 0.203082 -3.3205e-10)
(0.602938 0.212165 -3.40335e-10)
(0.549634 0.223595 -3.55011e-10)
(0.460239 0.238613 -3.96366e-10)
(0.372744 0.254281 -3.59556e-10)
(0.299971 0.271112 -3.70153e-10)
(0.224822 0.288392 -4.78527e-10)
(0.134835 0.303884 -4.40752e-10)
(0.0549445 0.311109 -4.83981e-10)
(3 1.25759e-07 1.32814e-15)
(2.99999 6.83656e-07 6.1031e-15)
(2.99997 2.54748e-06 1.84888e-14)
(2.99992 6.53526e-06 4.01147e-14)
(2.99981 1.80678e-05 9.67646e-14)
(2.99951 4.13766e-05 1.96036e-13)
(2.99892 0.000108982 4.22508e-13)
(2.99717 0.000240459 8.65569e-13)
(2.99381 0.000669097 1.17791e-12)
(2.98283 0.00131068 4.47813e-12)
(2.96248 0.00454704 -4.42422e-12)