/*--------------------------------*- C++ -*----------------------------------*\
| =========                 |                                                 |
| \\      /  F ield         | OpenFOAM: The Open Source CFD Toolbox           |
|  \\    /   O peration     | Version:  4.1                                   |
|   \\  /    A nd           | Web:      www.OpenFOAM.org                      |
|    \\/     M anipulation  |                                                 |
\*---------------------------------------------------------------------------*/
FoamFile
{
    version     2.0;
    format      ascii;
    class       volVectorField;
    location    "2.24";
    object      U;
}
// * * * * * * * * * * * * * * * * * * * * * * * * * * * * * * * * * * * * * //

dimensions      [0 1 -1 0 0 0 0];

internalField   nonuniform List<vector> 
52500
(
(3 1.30585e-08 -0.00571425)
(2.99999 7.2126e-08 -0.00571438)
(2.99996 2.6988e-07 -0.00571456)
(2.9999 6.89834e-07 -0.00571515)
(2.99978 1.92252e-06 -0.00571622)
(2.99943 4.38165e-06 -0.00571948)
(2.99874 1.17812e-05 -0.00572593)
(2.99656 2.54717e-05 -0.00574306)
(2.99283 7.3489e-05 -0.00578664)
(2.97834 0.000150544 -0.0058705)
(2.95343 0.000478365 -0.00620742)
(2.85605 0.00101875 -0.00666102)
(2.59802 0.00374892 -0.00900835)
(1.95599 0.00895696 -0.0134262)
(0.873387 0.0261787 -0.0175756)
(0.424403 0.0247682 -0.0185927)
(0.52863 0.0252037 -0.0186053)
(0.557734 0.0271594 -0.0186498)
(0.500079 0.0290386 -0.0188508)
(0.405411 0.0308997 -0.0190483)
(0.319375 0.0327447 -0.0192225)
(0.251667 0.0345392 -0.0193678)
(0.184325 0.0364075 -0.0194789)
(0.111111 0.0390562 -0.019599)
(0.0505446 0.0438589 -0.0198747)
(3 3.88276e-08 -0.00571425)
(2.99999 2.13941e-07 -0.00571437)
(2.99996 8.02725e-07 -0.00571456)
(2.9999 2.05156e-06 -0.00571513)
(2.99978 5.74128e-06 -0.00571619)
(2.99943 1.31011e-05 -0.00571941)
(2.99876 3.54207e-05 -0.00572575)
(2.99661 7.6711e-05 -0.00574265)
(2.99293 0.000222996 -0.00578544)
(2.97867 0.000457014 -0.00586823)
(2.95417 0.0014687 -0.00619901)
(2.85853 0.00312048 -0.00664642)
(2.6054 0.0116277 -0.00894501)
(1.97286 0.0278655 -0.0133025)
(0.883138 0.0799726 -0.0174438)
(0.420815 0.0716865 -0.0185077)
(0.528707 0.0693495 -0.0185201)
(0.559488 0.0724435 -0.0185538)
(0.502461 0.0754695 -0.0187454)
(0.408912 0.0786374 -0.0189338)
(0.323613 0.0812735 -0.0191018)
(0.255606 0.0834157 -0.0192397)
(0.186859 0.085285 -0.0193456)
(0.111073 0.0875713 -0.0194613)
(0.04838 0.0908854 -0.0197297)
(3 5.7316e-08 -0.00571425)
(2.99999 3.14795e-07 -0.00571437)
(2.99997 1.18222e-06 -0.00571455)
(2.99991 3.00197e-06 -0.00571511)
(2.99979 8.42683e-06 -0.00571614)
(2.99945 1.90372e-05 -0.00571925)
(2.9988 5.28062e-05 -0.0057254)
(2.99672 0.000107799 -0.00574185)
(2.99314 0.000353508 -0.00578306)
(2.97936 0.000643253 -0.00586372)
(2.95571 0.00249627 -0.00618184)
(2.8638 0.00501017 -0.00661762)
(2.62126 0.0197767 -0.00881444)
(2.01039 0.0474427 -0.0130554)
(0.907036 0.137736 -0.0172429)
(0.419114 0.121993 -0.0184027)
(0.533741 0.116011 -0.0184156)
(0.568012 0.121033 -0.0184339)
(0.512153 0.126603 -0.0186178)
(0.420034 0.133174 -0.0187941)
(0.335046 0.138563 -0.0189586)
(0.266111 0.143404 -0.0190966)
(0.195353 0.14815 -0.0192002)
(0.116364 0.153103 -0.0193121)
(0.049714 0.157665 -0.0195752)
(3 7.47599e-08 -0.00571425)
(2.99999 4.11804e-07 -0.00571436)
(2.99997 1.5385e-06 -0.00571454)
(2.99991 3.89991e-06 -0.00571508)
(2.9998 1.08687e-05 -0.00571607)
(2.99947 2.43517e-05 -0.00571909)
(2.99884 6.79777e-05 -0.00572494)
(2.99686 0.000131603 -0.0057412)
(2.99338 0.000473315 -0.0057795)
(2.98043 0.000735393 -0.0058595)
(2.9579 0.00351756 -0.00615238)
(2.87173 0.006528 -0.00657674)
(2.6457 0.0269038 -0.00860844)
(2.06908 0.0644234 -0.0126707)
(0.947901 0.190501 -0.0169699)
(0.423149 0.171206 -0.018273)
(0.545254 0.161873 -0.0182801)
(0.584385 0.168585 -0.0182807)
(0.530163 0.176766 -0.0184589)
(0.439577 0.187323 -0.0186379)
(0.354243 0.196342 -0.0187936)
(0.283641 0.205101 -0.0189218)
(0.209859 0.214114 -0.019026)
(0.126073 0.222927 -0.019141)
(0.0534402 0.229435 -0.0194067)
(3 9.94445e-08 -0.00571425)
(2.99999 5.49085e-07 -0.00571436)
(2.99997 2.0496e-06 -0.00571452)
(2.99991 5.23953e-06 -0.00571503)
(2.99981 1.45397e-05 -0.00571598)
(2.9995 3.30402e-05 -0.00571887)
(2.99889 8.9195e-05 -0.00572435)
(2.99705 0.000186398 -0.00574042)
(2.99365 0.000587851 -0.0057748)
(2.98186 0.000981156 -0.00585549)
(2.96066 0.00424054 -0.00611122)
(2.88177 0.00784886 -0.00652633)
(2.67667 0.0315914 -0.00834351)
(2.14513 0.0764239 -0.0121772)
(1.00584 0.232883 -0.0166214)
(0.438368 0.219924 -0.018119)
(0.564905 0.209642 -0.0181268)
(0.609163 0.216771 -0.01811)
(0.556828 0.226496 -0.0182852)
(0.467688 0.240775 -0.0184363)
(0.380958 0.254196 -0.0185846)
(0.307658 0.267913 -0.018703)
(0.229857 0.282484 -0.0187981)
(0.139753 0.296568 -0.0189252)
(0.0592867 0.306238 -0.0191954)
(3 1.17264e-07 -0.00571425)
(2.99999 6.46691e-07 -0.00571435)
(2.99997 2.41656e-06 -0.0057145)
(2.99992 6.19754e-06 -0.00571498)
(2.99982 1.71844e-05 -0.00571585)
(2.99953 3.93713e-05 -0.00571853)
(2.99896 0.000103955 -0.00572363)
(2.99728 0.000230073 -0.00573853)
(2.99404 0.0006384 -0.00576988)
(2.98343 0.00126211 -0.00584735)
(2.96376 0.00433051 -0.00606988)
(2.89296 0.0084162 -0.00646734)
(2.71096 0.0317857 -0.00805868)
(2.23435 0.0780313 -0.0115859)
(1.08624 0.241572 -0.0162215)
(0.477694 0.259221 -0.0179124)
(0.596146 0.257764 -0.0178965)
(0.641331 0.265492 -0.0178623)
(0.589892 0.276526 -0.0180468)
(0.501902 0.294858 -0.018195)
(0.413263 0.314117 -0.0183418)
(0.336931 0.334357 -0.0184823)
(0.255007 0.356017 -0.018574)
(0.15791 0.377488 -0.0186636)
(0.0676426 0.392944 -0.0189469)
(3 1.27367e-07 -0.00571425)
(2.99999 7.02179e-07 -0.00571434)
(2.99997 2.61706e-06 -0.00571448)
(2.99993 6.70201e-06 -0.00571492)
(2.99984 1.84914e-05 -0.00571572)
(2.99957 4.22409e-05 -0.00571819)
(2.99905 0.000110533 -0.00572287)
(2.9975 0.000244967 -0.00573661)
(2.99451 0.000650701 -0.00576519)
(2.9849 0.00140093 -0.00583749)
(2.96674 0.0040902 -0.00603499)
(2.90329 0.00861641 -0.00641325)
(2.74181 0.0287126 -0.00780374)
(2.31324 0.0704705 -0.0110985)
(1.17323 0.214695 -0.0157944)
(0.521919 0.293226 -0.017722)
(0.6187 0.312461 -0.0177111)
(0.663019 0.317282 -0.0176814)
(0.616905 0.327689 -0.0178384)
(0.534733 0.350107 -0.0179787)
(0.447389 0.376331 -0.0180969)
(0.370158 0.404591 -0.0181919)
(0.285703 0.435682 -0.0182827)
(0.182097 0.468067 -0.0183805)
(0.0802447 0.494414 -0.0186044)
(3 1.46775e-07 -0.00571425)
(2.99999 8.07265e-07 -0.00571433)
(2.99998 3.0158e-06 -0.00571446)
(2.99993 7.73435e-06 -0.00571486)
(2.99985 2.1426e-05 -0.00571559)
(2.99961 4.9197e-05 -0.00571783)
(2.99913 0.000128054 -0.00572207)
(2.99773 0.000293473 -0.00573462)
(2.99501 0.000718412 -0.00576048)
(2.98627 0.00177595 -0.00582668)
(2.96987 0.00399192 -0.00600573)
(2.9124 0.0101708 -0.00634731)
(2.76727 0.0267233 -0.00761668)
(2.37717 0.0671901 -0.0105592)
(1.27454 0.194197 -0.0156218)
(0.576634 0.338115 -0.0175642)
(0.62994 0.371441 -0.0175068)
(0.667268 0.36673 -0.0175105)
(0.634449 0.377868 -0.0176564)
(0.564343 0.403868 -0.0177528)
(0.482442 0.438907 -0.0178605)
(0.407624 0.477205 -0.017932)
(0.324204 0.520932 -0.0179576)
(0.216707 0.570153 -0.017977)
(0.100431 0.618842 -0.0181919)
(3 1.68538e-07 -0.00571425)
(2.99999 9.20595e-07 -0.00571432)
(2.99998 3.43378e-06 -0.00571443)
(2.99994 8.83689e-06 -0.00571478)
(2.99987 2.44364e-05 -0.00571541)
(2.99966 5.66071e-05 -0.00571735)
(2.99925 0.000145079 -0.00572107)
(2.99799 0.000344844 -0.00573153)
(2.99575 0.00078715 -0.00575557)
(2.98761 0.00204758 -0.00580693)
(2.97383 0.00426625 -0.00598663)
(2.9214 0.0110885 -0.00625101)
(2.79224 0.0265053 -0.00749597)
(2.44042 0.0701785 -0.00980572)
(1.3989 0.194156 -0.015258)
(0.662559 0.387589 -0.017329)
(0.637183 0.414411 -0.0173631)
(0.664536 0.408906 -0.0173929)
(0.650144 0.425697 -0.0174421)
(0.594657 0.454895 -0.0175241)
(0.522182 0.499282 -0.0175676)
(0.452694 0.550005 -0.0175887)
(0.375114 0.609286 -0.0175886)
(0.271197 0.685003 -0.0175306)
(0.137582 0.78053 -0.0175008)
(3 2.46207e-07 -0.00571424)
(2.99999 4.02689e-07 -0.00571431)
(2.99998 3.54304e-06 -0.0057144)
(2.99995 5.0395e-06 -0.00571469)
(2.99989 2.3853e-05 -0.00571523)
(2.99971 3.2216e-05 -0.00571682)
(2.99937 0.000143166 -0.0057201)
(2.99826 0.000169974 -0.00572808)
(2.99643 0.00090742 -0.00575083)
(2.98915 0.000649607 -0.00578981)
(2.9775 0.00628189 -0.00595902)
(2.93013 0.0029382 -0.00617258)
(2.81949 0.0402216 -0.00733804)
(2.50533 0.0490803 -0.00924574)
(1.54415 0.215365 -0.0145343)
(0.767487 0.441031 -0.0169021)
(0.64531 0.449162 -0.0172464)
(0.671268 0.447434 -0.0172723)
(0.669849 0.469742 -0.0172676)
(0.627793 0.503724 -0.0173138)
(0.568901 0.55519 -0.0172934)
(0.508699 0.618083 -0.0172288)
(0.446108 0.699398 -0.0170922)
(0.364337 0.821447 -0.0168413)
(0.208574 1.03687 -0.0165072)
(3 1.33083e-08 -2.49918e-09)
(2.99998 7.23766e-08 -8.68422e-09)
(2.99996 2.69857e-07 -1.00159e-08)
(2.9999 6.90961e-07 -1.61921e-08)
(2.99978 1.92193e-06 -1.59015e-08)
(2.99942 4.38265e-06 -2.18493e-08)
(2.99874 1.17811e-05 -2.19369e-08)
(2.99656 2.54751e-05 -3.02474e-08)
(2.99282 7.34871e-05 -3.22037e-08)
(2.97834 0.000150555 -5.80958e-08)
(2.95342 0.000478372 -7.50667e-08)
(2.85603 0.00101881 -1.61395e-07)
(2.59798 0.00374896 -2.1043e-07)
(1.95588 0.0089574 -6.39729e-07)
(0.873352 0.0261782 -7.43517e-07)
(0.42445 0.0247672 1.04557e-07)
(0.528649 0.0252021 -3.11364e-08)
(0.557748 0.0271582 -7.12682e-08)
(0.500103 0.0290386 -5.71254e-08)
(0.405439 0.0309013 -3.30352e-08)
(0.319395 0.0327482 -3.04637e-08)
(0.251678 0.0345436 -4.19763e-08)
(0.184327 0.0364108 -5.60859e-08)
(0.111108 0.0390568 -7.10608e-08)
(0.0505444 0.043857 -7.85846e-08)
(3 3.95239e-08 -2.49415e-09)
(2.99998 2.14767e-07 -8.68366e-09)
(2.99996 8.02634e-07 -1.00215e-08)
(2.9999 2.05479e-06 -1.61708e-08)
(2.99978 5.7396e-06 -1.59315e-08)
(2.99943 1.31043e-05 -2.18261e-08)
(2.99876 3.5422e-05 -2.19592e-08)
(2.99661 7.67302e-05 -3.01997e-08)
(2.99293 0.000222999 -3.23309e-08)
(2.97867 0.000457116 -5.79294e-08)
(2.95416 0.00146884 -7.51895e-08)
(2.85852 0.00312084 -1.60414e-07)
(2.60535 0.0116281 -2.10084e-07)
(1.97276 0.0278673 -6.32196e-07)
(0.883102 0.0799732 -7.42981e-07)
(0.42086 0.0716851 1.1332e-07)
(0.528726 0.0693453 -2.5258e-08)
(0.559503 0.0724404 -6.71885e-08)
(0.502483 0.0754698 -5.5183e-08)
(0.408936 0.0786411 -3.52623e-08)
(0.323628 0.0812811 -3.2428e-08)
(0.255612 0.083425 -3.98178e-08)
(0.186859 0.0852919 -5.02229e-08)
(0.11107 0.0875729 -6.45426e-08)
(0.0483801 0.0908821 -7.32567e-08)
(3 5.80063e-08 -2.48516e-09)
(2.99999 3.16236e-07 -8.68019e-09)
(2.99996 1.17888e-06 -1.00338e-08)
(2.99991 3.00882e-06 -1.61267e-08)
(2.99979 8.40853e-06 -1.59817e-08)
(2.99945 1.90195e-05 -2.17597e-08)
(2.9988 5.27448e-05 -2.19379e-08)
(2.99671 0.000107583 -2.98491e-08)
(2.99314 0.000353396 -3.23923e-08)
(2.97936 0.000641459 -5.60707e-08)
(2.9557 0.00249818 -7.36256e-08)
(2.86378 0.00500749 -1.56426e-07)
(2.62122 0.0197821 -2.04799e-07)
(2.01029 0.0474494 -6.1382e-07)
(0.907003 0.137738 -7.3826e-07)
(0.41917 0.121988 1.25258e-07)
(0.533767 0.116005 -2.18814e-08)
(0.56803 0.121031 -6.43411e-08)
(0.512172 0.126607 -5.49222e-08)
(0.42005 0.133183 -3.95299e-08)
(0.335054 0.138576 -3.36305e-08)
(0.266111 0.143417 -3.38914e-08)
(0.195349 0.148159 -3.89032e-08)
(0.116359 0.153104 -5.35041e-08)
(0.0497136 0.157659 -6.6794e-08)
(3 7.54985e-08 -2.47987e-09)
(2.99999 4.14594e-07 -8.66828e-09)
(2.99997 1.53688e-06 -1.01141e-08)
(2.99991 3.91089e-06 -1.59856e-08)
(2.9998 1.08658e-05 -1.63957e-08)
(2.99947 2.43689e-05 -2.19178e-08)
(2.99883 6.79886e-05 -2.28547e-08)
(2.99686 0.000131644 -3.35112e-08)
(2.99337 0.00047341 -3.08042e-08)
(2.98042 0.000734506 -9.08164e-08)
(2.95789 0.00351948 -1.12668e-08)
(2.87171 0.00652703 -2.34473e-07)
(2.64567 0.0269073 -9.44462e-08)
(2.06899 0.0644283 -5.85039e-07)
(0.947888 0.190496 -7.21217e-07)
(0.423209 0.171194 1.14643e-07)
(0.545277 0.161867 -2.77224e-08)
(0.584396 0.168587 -6.35612e-08)
(0.53017 0.176775 -5.57983e-08)
(0.439579 0.187338 -4.27933e-08)
(0.354238 0.19636 -3.19808e-08)
(0.283633 0.205117 -2.73617e-08)
(0.209851 0.214123 -2.85584e-08)
(0.126065 0.222926 -4.25743e-08)
(0.0534392 0.229426 -5.82596e-08)
(3 1.01114e-07 -2.47072e-09)
(2.99999 5.51948e-07 -8.63757e-09)
(2.99997 2.05371e-06 -1.01166e-08)
(2.99991 5.25019e-06 -1.58987e-08)
(2.99981 1.45655e-05 -1.62263e-08)
(2.9995 3.3102e-05 -2.14508e-08)
(2.99889 8.93335e-05 -2.20747e-08)
(2.99705 0.000186832 -2.94419e-08)
(2.99364 0.00058827 -3.13822e-08)
(2.98185 0.000983818 -7.54081e-08)
(2.96065 0.00424042 -2.41074e-08)
(2.88175 0.00785423 -2.00881e-07)
(2.67664 0.0315886 -1.25014e-07)
(2.14503 0.076425 -5.62731e-07)
(1.00581 0.232875 -7.44219e-07)
(0.438399 0.219909 1.11169e-07)
(0.564908 0.209638 -1.02678e-08)
(0.609156 0.216779 -5.42503e-08)
(0.556818 0.226511 -5.21025e-08)
(0.467676 0.240795 -4.45323e-08)
(0.380945 0.254216 -3.11496e-08)
(0.307645 0.267929 -2.23655e-08)
(0.229847 0.282491 -2.16781e-08)
(0.139745 0.296565 -3.51376e-08)
(0.0592855 0.306226 -5.17569e-08)
(3 1.1954e-07 -2.44692e-09)
(2.99999 6.48475e-07 -8.63912e-09)
(2.99997 2.42017e-06 -1.00888e-08)
(2.99992 6.204e-06 -1.58577e-08)
(2.99982 1.72001e-05 -1.60851e-08)
(2.99953 3.94046e-05 -2.11828e-08)
(2.99896 0.000104039 -2.1274e-08)
(2.99727 0.000230276 -2.75496e-08)
(2.99404 0.000638694 -3.00218e-08)
(2.98343 0.00126405 -4.95595e-08)
(2.96375 0.00433085 -5.35308e-08)
(2.89295 0.00842039 -1.43205e-07)
(2.71092 0.0317895 -1.8811e-07)
(2.23425 0.0780462 -5.36269e-07)
(1.08618 0.241617 -8.04177e-07)
(0.47768 0.259228 6.54222e-08)
(0.596132 0.257766 -2.76999e-10)
(0.641316 0.265502 -4.01729e-08)
(0.589879 0.276544 -4.38822e-08)
(0.501889 0.294878 -4.72776e-08)
(0.413252 0.314135 -3.24925e-08)
(0.336923 0.33437 -2.35079e-08)
(0.255001 0.356021 -2.22275e-08)
(0.157905 0.377482 -3.41616e-08)
(0.0676423 0.392929 -5.07952e-08)
(3 1.29456e-07 -2.42477e-09)
(2.99999 7.03548e-07 -8.64044e-09)
(2.99997 2.6183e-06 -1.00842e-08)
(2.99993 6.704e-06 -1.58398e-08)
(2.99983 1.84952e-05 -1.6041e-08)
(2.99957 4.22494e-05 -2.10874e-08)
(2.99904 0.000110555 -2.10594e-08)
(2.9975 0.000245022 -2.70447e-08)
(2.99451 0.000650824 -2.95972e-08)
(2.9849 0.00140132 -4.38157e-08)
(2.96673 0.00409115 -4.9696e-08)
(2.90328 0.00861784 -1.39802e-07)
(2.74178 0.0287207 -1.23974e-07)
(2.31318 0.0704892 -4.09488e-07)
(1.17319 0.214763 -4.76517e-07)
(0.521937 0.293233 -1.0984e-07)
(0.618717 0.312449 -5.20844e-08)
(0.663032 0.317288 -2.4769e-08)
(0.61691 0.327706 -3.35065e-08)
(0.534734 0.350124 -5.31528e-08)
(0.447391 0.376345 -4.10453e-08)
(0.370161 0.404601 -2.98664e-08)
(0.285705 0.435684 -2.85722e-08)
(0.182096 0.46806 -3.88986e-08)
(0.0802462 0.494399 -5.39358e-08)
(3 1.49094e-07 -2.40476e-09)
(2.99999 8.07424e-07 -8.64558e-09)
(2.99997 3.01524e-06 -1.00938e-08)
(2.99993 7.73005e-06 -1.58414e-08)
(2.99985 2.14134e-05 -1.6043e-08)
(2.99961 4.91641e-05 -2.10726e-08)
(2.99913 0.000127981 -2.09961e-08)
(2.99772 0.000293227 -2.68258e-08)
(2.99501 0.000718269 -2.90489e-08)
(2.98627 0.00177429 -4.21454e-08)
(2.96986 0.00399276 -4.5554e-08)
(2.91239 0.0101692 -1.31405e-07)
(2.76725 0.026729 -9.06659e-08)
(2.37711 0.0672005 -3.49618e-07)
(1.27449 0.194229 -4.52604e-07)
(0.576613 0.338111 -3.0489e-07)
(0.629966 0.371438 -1.33009e-07)
(0.66731 0.366737 4.394e-08)
(0.634473 0.377881 2.383e-09)
(0.564357 0.403885 -5.53163e-08)
(0.482458 0.43892 -4.88591e-08)
(0.407639 0.477214 -3.78857e-08)
(0.324216 0.520934 -3.51022e-08)
(0.216712 0.570147 -4.67952e-08)
(0.100435 0.618829 -6.06362e-08)
(3 1.68393e-07 -2.37776e-09)
(2.99999 9.18584e-07 -8.6731e-09)
(2.99998 3.42871e-06 -1.01041e-08)
(2.99994 8.80717e-06 -1.59097e-08)
(2.99987 2.442e-05 -1.62005e-08)
(2.99966 5.65472e-05 -2.14853e-08)
(2.99925 0.000145008 -2.186e-08)
(2.99799 0.000344679 -3.05611e-08)
(2.99575 0.000787025 -2.7805e-08)
(2.98761 0.0020472 -7.41208e-08)
(2.97382 0.00426563 -6.20213e-09)
(2.92139 0.0110895 -1.81582e-07)
(2.79222 0.0265073 -1.34045e-08)
(2.44038 0.0701826 -3.35333e-07)
(1.39886 0.194173 -3.93036e-07)
(0.66254 0.38759 -3.67473e-07)
(0.637222 0.414429 -1.84665e-09)
(0.66458 0.408919 3.88112e-08)
(0.650179 0.425708 -9.16512e-09)
(0.594684 0.454911 -2.99932e-08)
(0.522206 0.499297 -5.24e-08)
(0.452718 0.550015 -4.28957e-08)
(0.375134 0.60929 -4.30306e-08)
(0.271208 0.685 -4.90847e-08)
(0.137589 0.780523 -6.51739e-08)
(3 2.3212e-07 -2.40716e-09)
(2.99999 4.61556e-07 -8.6783e-09)
(2.99998 3.43938e-06 -1.01537e-08)
(2.99995 5.08534e-06 -1.6323e-08)
(2.99989 2.37337e-05 -1.58482e-08)
(2.99971 3.22784e-05 -2.18402e-08)
(2.99937 0.000143084 -2.12811e-08)
(2.99826 0.000170258 -2.86113e-08)
(2.99643 0.000907043 -2.84333e-08)
(2.98915 0.000651787 -4.69532e-08)
(2.97749 0.00628025 -5.11765e-08)
(2.93012 0.00294314 -1.06347e-07)
(2.81947 0.0402169 -6.39502e-08)
(2.50529 0.0490893 -3.61048e-07)
(1.54411 0.215366 -3.29607e-07)
(0.767456 0.44103 -4.1884e-07)
(0.645348 0.449177 4.98232e-08)
(0.671307 0.447449 4.73042e-08)
(0.669884 0.469755 -8.33821e-09)
(0.627824 0.503738 -2.21263e-08)
(0.56893 0.555205 -4.26219e-08)
(0.508728 0.618095 -4.2068e-08)
(0.446133 0.699405 -4.40295e-08)
(0.364353 0.821449 -4.90714e-08)
(0.208584 1.03687 -6.40205e-08)
(3 1.33084e-08 -3.97971e-13)
(2.99998 7.23768e-08 -2.10342e-12)
(2.99996 2.69858e-07 -4.65619e-12)
(2.9999 6.90963e-07 -9.86705e-12)
(2.99978 1.92193e-06 -1.82774e-11)
(2.99942 4.38265e-06 -3.44081e-11)
(2.99874 1.17811e-05 -7.3487e-11)
(2.99656 2.54751e-05 -1.32968e-10)
(2.99282 7.34869e-05 -3.72097e-10)
(2.97834 0.000150555 -6.21037e-10)
(2.95342 0.00047837 -2.15487e-09)
(2.85603 0.00101881 -3.76708e-09)
(2.59797 0.00374894 -1.3348e-08)
(1.95588 0.00895736 -2.79482e-08)
(0.87335 0.026178 -4.0399e-08)
(0.424452 0.0247671 7.69188e-09)
(0.528649 0.0252021 -4.1401e-11)
(0.557748 0.0271582 -2.31113e-09)
(0.500103 0.0290387 -1.53576e-09)
(0.405439 0.0309014 -8.89426e-11)
(0.319395 0.0327483 5.92226e-10)
(0.251678 0.0345437 4.31276e-10)
(0.184327 0.0364108 7.18966e-11)
(0.111108 0.0390568 -3.24746e-10)
(0.0505447 0.0438569 -5.57693e-10)
(3 3.9524e-08 -3.97409e-13)
(2.99998 2.14768e-07 -2.10108e-12)
(2.99996 8.02637e-07 -4.65395e-12)
(2.9999 2.0548e-06 -9.86099e-12)
(2.99978 5.73961e-06 -1.83141e-11)
(2.99943 1.31043e-05 -3.4491e-11)
(2.99876 3.5422e-05 -7.40104e-11)
(2.99661 7.67301e-05 -1.34091e-10)
(2.99293 0.000222999 -3.76714e-10)
(2.97867 0.000457114 -6.29634e-10)
(2.95416 0.00146883 -2.19046e-09)
(2.85852 0.00312083 -3.8241e-09)
(2.60535 0.0116281 -1.35478e-08)
(1.97275 0.0278672 -2.83015e-08)
(0.8831 0.0799727 -4.11307e-08)
(0.420862 0.0716849 8.56126e-09)
(0.528726 0.0693454 6.37431e-10)
(0.559503 0.0724405 -2.0019e-09)
(0.502483 0.07547 -1.37682e-09)
(0.408936 0.0786413 -1.5778e-10)
(0.323628 0.0812813 5.45365e-10)
(0.255612 0.0834252 4.98655e-10)
(0.186859 0.085292 2.39151e-10)
(0.11107 0.0875729 -1.2663e-10)
(0.0483804 0.090882 -3.71455e-10)
(3 5.80072e-08 -3.96336e-13)
(2.99999 3.1624e-07 -2.09771e-12)
(2.99996 1.17889e-06 -4.65314e-12)
(2.99991 3.00887e-06 -9.86315e-12)
(2.99979 8.40863e-06 -1.84449e-11)
(2.99945 1.90198e-05 -3.48507e-11)
(2.9988 5.27454e-05 -7.54166e-11)
(2.99671 0.000107585 -1.38434e-10)
(2.99314 0.000353397 -3.85554e-10)
(2.97936 0.000641474 -6.57748e-10)
(2.9557 0.00249816 -2.26522e-09)
(2.86378 0.00500751 -3.93228e-09)
(2.62122 0.019782 -1.39457e-08)
(2.01028 0.0474492 -2.90569e-08)
(0.907001 0.137738 -4.32109e-08)
(0.419172 0.121988 1.0048e-08)
(0.533767 0.116005 1.88517e-09)
(0.56803 0.121031 -1.45141e-09)
(0.512172 0.126607 -1.08774e-09)
(0.42005 0.133183 -2.3065e-10)
(0.335053 0.138576 5.52255e-10)
(0.266111 0.143418 6.82512e-10)
(0.195349 0.148159 5.52523e-10)
(0.116358 0.153104 1.93024e-10)
(0.0497138 0.157659 -1.69476e-10)
(3 7.54988e-08 -3.78404e-13)
(2.99999 4.14595e-07 -2.03863e-12)
(2.99997 1.53688e-06 -4.43097e-12)
(2.99991 3.91091e-06 -9.16612e-12)
(2.9998 1.08658e-05 -1.69474e-11)
(2.99947 2.4369e-05 -3.05949e-11)
(2.99883 6.79889e-05 -6.68966e-11)
(2.99686 0.000131645 -9.73261e-11)
(2.99337 0.000473411 -4.01665e-10)
(2.98042 0.000734514 -3.13591e-10)
(2.95789 0.00351948 -2.82889e-09)
(2.87171 0.00652705 -3.14315e-09)
(2.64567 0.0269073 -1.51302e-08)
(2.06899 0.0644283 -2.94543e-08)
(0.947885 0.190495 -4.61634e-08)
(0.423211 0.171194 1.12867e-08)
(0.545277 0.161867 3.03213e-09)
(0.584396 0.168587 -9.86939e-10)
(0.530169 0.176775 -8.31818e-10)
(0.439579 0.187338 -2.90211e-10)
(0.354238 0.19636 5.73505e-10)
(0.283632 0.205118 8.10964e-10)
(0.20985 0.214123 7.83864e-10)
(0.126065 0.222926 4.66922e-10)
(0.0534393 0.229426 6.81776e-11)
(3 1.01114e-07 -3.89413e-13)
(2.99999 5.51948e-07 -2.07766e-12)
(2.99997 2.05371e-06 -4.59412e-12)
(2.99991 5.25019e-06 -9.57106e-12)
(2.99981 1.45655e-05 -1.81077e-11)
(2.9995 3.3102e-05 -3.37553e-11)
(2.99889 8.93335e-05 -7.16236e-11)
(2.99705 0.000186831 -1.32359e-10)
(2.99364 0.000588273 -3.78744e-10)
(2.98185 0.00098381 -4.71032e-10)
(2.96065 0.00424045 -2.56464e-09)
(2.88175 0.00785427 -3.38153e-09)
(2.67663 0.0315888 -1.42234e-08)
(2.14503 0.0764254 -2.87587e-08)
(1.00581 0.232876 -4.81617e-08)
(0.4384 0.219909 1.09274e-08)
(0.564907 0.209638 3.63965e-09)
(0.609155 0.216779 -5.80573e-10)
(0.556817 0.226512 -6.3429e-10)
(0.467675 0.240795 -3.93071e-10)
(0.380944 0.254216 4.1077e-10)
(0.307645 0.267929 7.70763e-10)
(0.229846 0.282491 8.51141e-10)
(0.139745 0.296565 5.56228e-10)
(0.0592856 0.306226 1.77617e-10)
(3 1.19541e-07 -3.79724e-13)
(2.99999 6.48481e-07 -2.03319e-12)
(2.99997 2.42019e-06 -4.45573e-12)
(2.99992 6.20405e-06 -9.26433e-12)
(2.99982 1.72002e-05 -1.73093e-11)
(2.99953 3.94049e-05 -3.20471e-11)
(2.99896 0.00010404 -6.74589e-11)
(2.99727 0.000230278 -1.25414e-10)
(2.99404 0.0006387 -3.41719e-10)
(2.98343 0.00126405 -5.07478e-10)
(2.96375 0.00433091 -2.20078e-09)
(2.89295 0.00842046 -2.819e-09)
(2.71092 0.0317899 -1.29467e-08)
(2.23425 0.0780473 -2.58841e-08)
(1.08618 0.24162 -4.83209e-08)
(0.477679 0.259229 7.29422e-09)
(0.596131 0.257766 2.90267e-09)
(0.641315 0.265502 -3.19252e-10)
(0.589878 0.276544 -4.75452e-10)
(0.501888 0.294878 -6.33776e-10)
(0.413252 0.314135 7.66721e-11)
(0.336923 0.33437 4.49355e-10)
(0.255001 0.356021 6.18617e-10)
(0.157904 0.377482 3.52621e-10)
(0.0676424 0.392929 -3.55275e-12)
(3 1.29457e-07 -3.66292e-13)
(2.99999 7.03554e-07 -1.96998e-12)
(2.99997 2.61832e-06 -4.2582e-12)
(2.99993 6.70405e-06 -8.83271e-12)
(2.99983 1.84953e-05 -1.61e-11)
(2.99957 4.22497e-05 -2.9652e-11)
(2.99904 0.000110556 -6.00882e-11)
(2.9975 0.000245024 -1.13407e-10)
(2.99451 0.00065083 -2.75017e-10)
(2.9849 0.00140133 -5.40618e-10)
(2.96673 0.00409121 -1.40052e-09)
(2.90327 0.00861789 -3.1797e-09)
(2.74178 0.0287211 -7.64774e-09)
(2.31318 0.0704903 -1.70481e-08)
(1.17319 0.214767 -2.60424e-08)
(0.521938 0.293233 -4.09578e-09)
(0.618718 0.312449 -1.38358e-09)
(0.663032 0.317288 8.31799e-11)
(0.616911 0.327707 -1.99524e-10)
(0.534734 0.350124 -1.04472e-09)
(0.447391 0.376345 -5.91323e-10)
(0.370161 0.404601 -9.85018e-11)
(0.285705 0.435684 1.42941e-10)
(0.182096 0.468059 -8.67403e-11)
(0.0802464 0.494398 -3.63978e-10)
(3 1.49095e-07 -3.54004e-13)
(2.99999 8.07429e-07 -1.9134e-12)
(2.99997 3.01526e-06 -4.07584e-12)
(2.99993 7.73009e-06 -8.4282e-12)
(2.99985 2.14136e-05 -1.49511e-11)
(2.99961 4.91643e-05 -2.72514e-11)
(2.99913 0.000127981 -5.3358e-11)
(2.99772 0.000293228 -9.93161e-11)
(2.99501 0.000718274 -2.35971e-10)
(2.98627 0.0017743 -4.6031e-10)
(2.96986 0.00399279 -1.12853e-09)
(2.91239 0.0101692 -2.80061e-09)
(2.76725 0.0267292 -5.6008e-09)
(2.37711 0.067201 -1.36286e-08)
(1.27449 0.194231 -2.40174e-08)
(0.576612 0.33811 -1.58495e-08)
(0.629967 0.371438 -6.70994e-09)
(0.667312 0.366737 3.56086e-09)
(0.634473 0.377881 1.55601e-09)
(0.564358 0.403885 -1.30697e-09)
(0.482458 0.438921 -1.14247e-09)
(0.407639 0.477214 -6.66286e-10)
(0.324216 0.520934 -2.88984e-10)
(0.216712 0.570147 -7.21618e-10)
(0.100435 0.618829 -9.67596e-10)
(3 1.68393e-07 -3.43146e-13)
(2.99999 9.18586e-07 -1.86408e-12)
(2.99998 3.42872e-06 -3.91517e-12)
(2.99994 8.80719e-06 -8.07649e-12)
(2.99987 2.44201e-05 -1.40478e-11)
(2.99966 5.65474e-05 -2.55612e-11)
(2.99925 0.000145009 -4.91878e-11)
(2.99799 0.000344681 -9.82608e-11)
(2.99575 0.000787029 -1.98793e-10)
(2.98761 0.00204721 -5.38045e-10)
(2.97382 0.00426565 -8.25156e-10)
(2.92139 0.0110896 -2.646e-09)
(2.79222 0.0265075 -4.97719e-09)
(2.44037 0.0701829 -1.21247e-08)
(1.39886 0.194174 -2.26853e-08)
(0.662539 0.38759 -1.82074e-08)
(0.637223 0.41443 1.26211e-09)
(0.664581 0.40892 3.48152e-09)
(0.65018 0.425708 1.01114e-09)
(0.594684 0.454911 -1.24571e-10)
(0.522206 0.499297 -1.40491e-09)
(0.452718 0.550015 -9.58526e-10)
(0.375134 0.60929 -8.76583e-10)
(0.271208 0.685 -1.01348e-09)
(0.137589 0.780522 -1.46891e-09)
(3 2.32118e-07 -3.43377e-13)
(2.99999 4.61564e-07 -1.84396e-12)
(2.99998 3.43936e-06 -3.84095e-12)
(2.99995 5.08536e-06 -8.10043e-12)
(2.99989 2.37337e-05 -1.32442e-11)
(2.99971 3.22784e-05 -2.43663e-11)
(2.99937 0.000143085 -4.36961e-11)
(2.99826 0.000170258 -8.12012e-11)
(2.99643 0.000907043 -1.76356e-10)
(2.98915 0.000651794 -3.35934e-10)
(2.97749 0.00628026 -8.90506e-10)
(2.93012 0.00294318 -1.8177e-09)
(2.81947 0.040217 -4.06326e-09)
(2.50529 0.0490896 -1.22392e-08)
(1.5441 0.215367 -1.94883e-08)
(0.767455 0.441031 -2.12365e-08)
(0.645349 0.449178 3.71353e-09)
(0.671308 0.447449 3.73795e-09)
(0.669885 0.469756 9.68075e-10)
(0.627825 0.503738 1.89372e-10)
(0.568931 0.555206 -1.00236e-09)
(0.508728 0.618095 -1.03938e-09)
(0.446133 0.699405 -1.10853e-09)
(0.364353 0.821448 -1.35154e-09)
(0.208585 1.03687 -1.73035e-09)
(3 1.33084e-08 -4.99233e-14)
(2.99998 7.23769e-08 -2.23995e-13)
(2.99996 2.69858e-07 -7.25439e-13)
(2.9999 6.90964e-07 -1.5641e-12)
(2.99978 1.92193e-06 -4.33861e-12)
(2.99942 4.38265e-06 -8.7876e-12)
(2.99874 1.17811e-05 -2.46379e-11)
(2.99656 2.54751e-05 -4.70337e-11)
(2.99282 7.34869e-05 -1.47485e-10)
(2.97834 0.000150555 -2.51915e-10)
(2.95342 0.000478369 -8.99581e-10)
(2.85603 0.00101881 -1.58282e-09)
(2.59797 0.00374894 -5.5487e-09)
(1.95588 0.00895735 -1.1493e-08)
(0.87335 0.026178 -1.62032e-08)
(0.424453 0.0247671 4.11806e-09)
(0.528649 0.0252021 5.98112e-10)
(0.557748 0.0271582 -3.74069e-10)
(0.500103 0.0290387 -1.13445e-12)
(0.405439 0.0309014 7.40154e-10)
(0.319395 0.0327483 1.13069e-09)
(0.251677 0.0345437 1.20916e-09)
(0.184327 0.0364108 1.17453e-09)
(0.111108 0.0390568 1.10078e-09)
(0.0505447 0.0438569 1.12569e-09)
(3 3.95241e-08 -4.97097e-14)
(2.99998 2.14768e-07 -2.23035e-13)
(2.99996 8.02638e-07 -7.24497e-13)
(2.9999 2.0548e-06 -1.56226e-12)
(2.99978 5.73962e-06 -4.35658e-12)
(2.99943 1.31043e-05 -8.82872e-12)
(2.99876 3.54219e-05 -2.48888e-11)
(2.99661 7.67301e-05 -4.7563e-11)
(2.99293 0.000222999 -1.49686e-10)
(2.97867 0.000457114 -2.55962e-10)
(2.95416 0.00146883 -9.16457e-10)
(2.85852 0.00312083 -1.61027e-09)
(2.60535 0.0116281 -5.64623e-09)
(1.97275 0.0278672 -1.16704e-08)
(0.883099 0.0799726 -1.65489e-08)
(0.420862 0.0716849 4.49033e-09)
(0.528726 0.0693454 8.93996e-10)
(0.559503 0.0724406 -2.38905e-10)
(0.502483 0.0754701 6.73547e-11)
(0.408936 0.0786413 7.09159e-10)
(0.323628 0.0812814 1.10929e-09)
(0.255612 0.0834252 1.22839e-09)
(0.186859 0.085292 1.22992e-09)
(0.11107 0.0875729 1.17084e-09)
(0.0483804 0.0908819 1.19494e-09)
(3 5.80073e-08 -4.93025e-14)
(2.99999 3.1624e-07 -2.21748e-13)
(2.99996 1.17889e-06 -7.24535e-13)
(2.99991 3.00888e-06 -1.56598e-12)
(2.99979 8.40866e-06 -4.42011e-12)
(2.99945 1.90198e-05 -9.00062e-12)
(2.9988 5.27456e-05 -2.55581e-11)
(2.99671 0.000107585 -4.95507e-11)
(2.99314 0.000353397 -1.5393e-10)
(2.97936 0.000641477 -2.68775e-10)
(2.9557 0.00249816 -9.51558e-10)
(2.86378 0.00500752 -1.66248e-09)
(2.62122 0.019782 -5.8414e-09)
(2.01028 0.0474492 -1.205e-08)
(0.907 0.137737 -1.7518e-08)
(0.419173 0.121988 5.1265e-09)
(0.533767 0.116005 1.44411e-09)
(0.56803 0.121031 7.41446e-12)
(0.512172 0.126608 1.97969e-10)
(0.42005 0.133183 6.81452e-10)
(0.335053 0.138576 1.11293e-09)
(0.266111 0.143418 1.2957e-09)
(0.195348 0.148159 1.3437e-09)
(0.116358 0.153104 1.28331e-09)
(0.0497138 0.157659 1.25803e-09)
(3 7.54989e-08 -4.22314e-14)
(2.99999 4.14595e-07 -1.91983e-13)
(2.99997 1.53688e-06 -6.18921e-13)
(2.99991 3.91092e-06 -1.32228e-12)
(2.9998 1.08658e-05 -3.70203e-12)
(2.99947 2.4369e-05 -7.28067e-12)
(2.99883 6.79889e-05 -2.19585e-11)
(2.99686 0.000131645 -3.26544e-11)
(2.99337 0.000473411 -1.60267e-10)
(2.98042 0.000734516 -1.28837e-10)
(2.95789 0.00351948 -1.18269e-09)
(2.87171 0.00652705 -1.34377e-09)
(2.64567 0.0269073 -6.36068e-09)
(2.06898 0.0644283 -1.2292e-08)
(0.947884 0.190495 -1.88871e-08)
(0.423211 0.171194 5.65138e-09)
(0.545277 0.161867 1.95382e-09)
(0.584396 0.168587 2.19172e-10)
(0.530169 0.176775 3.11558e-10)
(0.439579 0.187338 6.60491e-10)
(0.354238 0.19636 1.12482e-09)
(0.283632 0.205118 1.34198e-09)
(0.20985 0.214123 1.41955e-09)
(0.126064 0.222926 1.36445e-09)
(0.0534394 0.229426 1.31056e-09)
(3 1.01114e-07 -4.71683e-14)
(2.99999 5.51948e-07 -2.10785e-13)
(2.99997 2.05371e-06 -6.91897e-13)
(2.99991 5.25019e-06 -1.5022e-12)
(2.99981 1.45655e-05 -4.21235e-12)
(2.9995 3.3102e-05 -8.63204e-12)
(2.99889 8.93335e-05 -2.4078e-11)
(2.99705 0.000186831 -4.71209e-11)
(2.99364 0.000588273 -1.515e-10)
(2.98185 0.000983809 -1.96539e-10)
(2.96065 0.00424045 -1.07058e-09)
(2.88175 0.00785428 -1.45082e-09)
(2.67663 0.0315889 -5.98813e-09)
(2.14503 0.0764255 -1.20563e-08)
(1.00581 0.232876 -1.98551e-08)
(0.4384 0.219909 5.47099e-09)
(0.564907 0.209638 2.2278e-09)
(0.609155 0.216779 4.02866e-10)
(0.556816 0.226512 3.95541e-10)
(0.467674 0.240795 6.00192e-10)
(0.380943 0.254217 1.04149e-09)
(0.307644 0.267929 1.3063e-09)
(0.229846 0.282491 1.41015e-09)
(0.139745 0.296564 1.35476e-09)
(0.0592857 0.306226 1.28655e-09)
(3 1.19541e-07 -4.26586e-14)
(2.99999 6.48482e-07 -1.91137e-13)
(2.99997 2.42019e-06 -6.27001e-13)
(2.99992 6.20406e-06 -1.35813e-12)
(2.99982 1.72003e-05 -3.82659e-12)
(2.99953 3.9405e-05 -7.79719e-12)
(2.99896 0.00010404 -2.20208e-11)
(2.99727 0.000230278 -4.33057e-11)
(2.99404 0.000638701 -1.35476e-10)
(2.98343 0.00126405 -2.01029e-10)
(2.96375 0.00433093 -9.27457e-10)