/*--------------------------------*- C++ -*----------------------------------*\
| =========                 |                                                 |
| \\      /  F ield         | OpenFOAM: The Open Source CFD Toolbox           |
|  \\    /   O peration     | Version:  4.1                                   |
|   \\  /    A nd           | Web:      www.OpenFOAM.org                      |
|    \\/     M anipulation  |                                                 |
\*---------------------------------------------------------------------------*/
FoamFile
{
    version     2.0;
    format      ascii;
    class       volScalarField;
    location    "1.96";
    object      Ma;
}
// * * * * * * * * * * * * * * * * * * * * * * * * * * * * * * * * * * * * * //

dimensions      [0 0 0 0 0 0 0];

internalField   nonuniform List<scalar> 
52500
(
3.00002
2.99998
2.99994
2.99975
2.99949
2.99842
2.99691
2.99084
2.98161
2.94902
2.88284
2.71241
2.27892
1.4979
0.593302
0.21315
0.316905
0.348666
0.314562
0.257856
0.20595
0.165296
0.125667
0.0801953
0.0447189
3.00002
2.99998
2.99994
2.99975
2.99949
2.99844
2.99695
2.99096
2.98188
2.94963
2.8851
2.71684
2.29167
1.51652
0.60419
0.220394
0.322666
0.354953
0.321069
0.264854
0.213421
0.173418
0.135207
0.0943082
0.0684341
3.00002
2.99998
2.99994
2.99976
2.99951
2.99848
2.99703
2.99121
2.98242
2.95089
2.88957
2.72566
2.31827
1.55695
0.629411
0.238774
0.335877
0.368105
0.334474
0.279617
0.229897
0.192399
0.158456
0.125679
0.108476
3.00002
2.99998
2.99994
2.99977
2.99953
2.99854
2.99714
2.99155
2.9831
2.95269
2.89526
2.73632
2.35517
1.61
0.665328
0.265247
0.353498
0.384399
0.351533
0.299709
0.253159
0.219413
0.190728
0.165139
0.152979
3.00002
2.99999
2.99995
2.99978
2.99955
2.99861
2.99727
2.99194
2.98392
2.95483
2.90084
2.74819
2.39012
1.66137
0.705895
0.294228
0.370507
0.399275
0.369217
0.322547
0.280734
0.251681
0.228422
0.208815
0.200246
3.00002
2.99999
2.99995
2.9998
2.99958
2.99869
2.99743
2.99241
2.98486
2.95742
2.90667
2.76294
2.42277
1.72312
0.754672
0.331547
0.388882
0.412071
0.387476
0.348649
0.312539
0.288572
0.271169
0.257536
0.252889
3.00002
2.99999
2.99996
2.99981
2.99961
2.99879
2.99763
2.99294
2.98598
2.96032
2.91326
2.77971
2.45746
1.79494
0.815843
0.380024
0.409047
0.423153
0.407457
0.377669
0.348285
0.330446
0.319834
0.31308
0.314646
3.00002
2.99999
2.99996
2.99984
2.99966
2.99893
2.99789
2.99382
2.9874
2.96541
2.91916
2.80207
2.48909
1.89241
0.890873
0.438079
0.42607
0.436528
0.431073
0.409403
0.387237
0.376402
0.374554
0.377777
0.390648
3.00002
3
2.99997
2.99986
2.9997
2.99906
2.99814
2.99463
2.98877
2.9696
2.92672
2.82123
2.52964
1.98642
0.984066
0.505495
0.441998
0.453396
0.457054
0.443341
0.430164
0.427802
0.435931
0.455107
0.493793
3.00002
3
2.99998
2.99988
2.99975
2.99921
2.9984
2.99552
2.99015
2.97414
2.93557
2.84441
2.58008
2.09161
1.11743
0.591188
0.463518
0.475791
0.486132
0.47977
0.475735
0.482717
0.507375
0.556953
0.663452
3
2.99996
2.99992
2.99973
2.99947
2.9984
2.99689
2.99082
2.98159
2.94898
2.8828
2.71232
2.27876
1.49762
0.593127
0.212882
0.316696
0.348461
0.314332
0.257581
0.205613
0.164877
0.125114
0.0793192
0.0431008
3
2.99996
2.99992
2.99973
2.99948
2.99842
2.99693
2.99094
2.98186
2.94959
2.88506
2.71675
2.2915
1.51623
0.604012
0.220125
0.322457
0.354752
0.320848
0.264592
0.213102
0.173025
0.1347
0.0935741
0.0674017
3
2.99997
2.99992
2.99974
2.99949
2.99846
2.99701
2.99119
2.98239
2.95086
2.88952
2.72558
2.3181
1.55666
0.62923
0.238514
0.335676
0.367918
0.33427
0.279377
0.229608
0.192052
0.15803
0.125136
0.107836
3
2.99997
2.99992
2.99975
2.99951
2.99852
2.99712
2.99153
2.98308
2.95266
2.89522
2.73625
2.35502
1.60976
0.665151
0.265016
0.353322
0.384238
0.351354
0.299497
0.252905
0.219115
0.190381
0.164733
0.152531
3
2.99997
2.99993
2.99976
2.99953
2.99859
2.99725
2.99192
2.98389
2.9548
2.9008
2.74812
2.39002
1.66119
0.705752
0.294016
0.370352
0.399139
0.36906
0.322359
0.280512
0.251428
0.228139
0.2085
0.19991
3
2.99997
2.99993
2.99978
2.99956
2.99867
2.99741
2.99239
2.98484
2.95739
2.90664
2.76288
2.4227
1.72297
0.754527
0.331336
0.388735
0.411949
0.387333
0.348479
0.312345
0.288357
0.270936
0.257286
0.252629
3
2.99997
2.99994
2.99979
2.99959
2.99877
2.99761
2.99292
2.98595
2.96029
2.91323
2.77964
2.45741
1.79477
0.815703
0.379823
0.408915
0.423045
0.407324
0.377515
0.348116
0.330264
0.319642
0.31288
0.314442
3
2.99998
2.99995
2.99982
2.99964
2.99891
2.99787
2.99379
2.98738
2.96538
2.91913
2.80202
2.48906
1.89228
0.890746
0.437909
0.425957
0.43642
0.430952
0.409268
0.387091
0.376249
0.374396
0.377618
0.39049
3
2.99998
2.99995
2.99984
2.99968
2.99904
2.99812
2.99461
2.98875
2.96957
2.92669
2.82117
2.52958
1.98629
0.983929
0.505335
0.441887
0.453289
0.456943
0.443222
0.430039
0.427673
0.435801
0.454983
0.493677
3
2.99999
2.99996
2.99987
2.99973
2.99919
2.99838
2.99549
2.99012
2.97412
2.93554
2.84436
2.58
2.09147
1.11727
0.591031
0.463402
0.475681
0.486023
0.479661
0.475626
0.482608
0.507272
0.556859
0.663375
3
2.99996
2.99992
2.99973
2.99947
2.9984
2.99689
2.99082
2.98159
2.94898
2.8828
2.71231
2.27875
1.49761
0.593124
0.212883
0.316696
0.348461
0.314332
0.257581
0.205613
0.164877
0.125114
0.079319
0.0431011
3
2.99996
2.99992
2.99973
2.99948
2.99842
2.99693
2.99094
2.98186
2.94959
2.88506
2.71675
2.2915
1.51623
0.604009
0.220126
0.322457
0.354751
0.320847
0.264591
0.213102
0.173025
0.1347
0.0935739
0.0674019
3
2.99997
2.99992
2.99974
2.99949
2.99846
2.99701
2.99119
2.98239
2.95086
2.88952
2.72557
2.3181
1.55666
0.629227
0.238514
0.335676
0.367917
0.33427
0.279377
0.229608
0.192052
0.15803
0.125136
0.107836
3
2.99997
2.99992
2.99975
2.99951
2.99852
2.99712
2.99153
2.98308
2.95266
2.89521
2.73625
2.35501
1.60976
0.665148
0.265016
0.353322
0.384238
0.351354
0.299497
0.252905
0.219115
0.190381
0.164732
0.152531
3
2.99997
2.99993
2.99976
2.99953
2.99859
2.99725
2.99192
2.98389
2.9548
2.9008
2.74812
2.39002
1.66118
0.70575
0.294016
0.370352
0.399139
0.36906
0.322359
0.280512
0.251428
0.228139
0.2085
0.19991
3
2.99997
2.99993
2.99978
2.99956
2.99867
2.99741
2.99239
2.98484
2.95739
2.90664
2.76288
2.4227
1.72296
0.754524
0.331335
0.388735
0.411949
0.387334
0.348479
0.312345
0.288357
0.270936
0.257286
0.252629
3
2.99997
2.99994
2.99979
2.99959
2.99877
2.99761
2.99292
2.98595
2.96029
2.91323
2.77964
2.4574
1.79477
0.815701
0.379822
0.408915
0.423046
0.407324
0.377515
0.348116
0.330264
0.319642
0.31288
0.314442
3
2.99998
2.99995
2.99982
2.99964
2.99891
2.99787
2.99379
2.98738
2.96538
2.91913
2.80201
2.48906
1.89228
0.890743
0.437908
0.425958
0.436421
0.430952
0.409268
0.387091
0.376249
0.374396
0.377618
0.39049
3
2.99998
2.99995
2.99984
2.99968
2.99904
2.99812
2.99461
2.98875
2.96957
2.92669
2.82117
2.52958
1.98629
0.983925
0.505333
0.441888
0.453289
0.456943
0.443222
0.430039
0.427673
0.435801
0.454983
0.493677
3
2.99999
2.99996
2.99987
2.99973
2.99919
2.99838
2.99549
2.99012
2.97412
2.93554
2.84436
2.58
2.09146
1.11727
0.591029
0.463403
0.475682
0.486023
0.479661
0.475626
0.482608
0.507272
0.556859
0.663375
3
2.99996
2.99992
2.99973
2.99947
2.9984
2.99689
2.99082
2.98159
2.94898
2.8828
2.71231
2.27875
1.49761
0.593124
0.212883
0.316696
0.34846
0.314331
0.25758
0.205613
0.164877
0.125114
0.0793189
0.0431012
3
2.99996
2.99992
2.99973
2.99948
2.99842
2.99693
2.99094
2.98186
2.94959
2.88506
2.71675
2.2915
1.51623
0.604009
0.220126
0.322457
0.354751
0.320847
0.264591
0.213102
0.173025
0.1347
0.0935738
0.0674018
3
2.99997
2.99992
2.99974
2.99949
2.99846
2.99701
2.99119
2.98239
2.95086
2.88952
2.72557
2.3181
1.55666
0.629227
0.238514
0.335675
0.367917
0.33427
0.279377
0.229608
0.192051
0.15803
0.125136
0.107836
3
2.99997
2.99992
2.99975
2.99951
2.99852
2.99712
2.99153
2.98308
2.95266
2.89521
2.73625
2.35501
1.60975
0.665147
0.265016
0.353322
0.384238
0.351354
0.299497
0.252905
0.219115
0.190381
0.164732
0.152531
3
2.99997
2.99993
2.99976
2.99953
2.99859
2.99725
2.99192
2.98389
2.9548
2.9008
2.74812
2.39002
1.66118
0.70575
0.294016
0.370352
0.399139
0.36906
0.322359
0.280512
0.251428
0.228138
0.2085
0.19991
3
2.99997
2.99993
2.99978
2.99956
2.99867
2.99741
2.99239
2.98484
2.95739
2.90664
2.76288
2.4227
1.72296
0.754524
0.331335
0.388735
0.41195
0.387334
0.348479
0.312345
0.288357
0.270936
0.257286
0.252629
3
2.99997
2.99994
2.99979
2.99959
2.99877
2.99761
2.99292
2.98595
2.96029
2.91323
2.77964
2.4574
1.79477
0.8157
0.379822
0.408915
0.423046
0.407324
0.377515
0.348116
0.330264
0.319642
0.31288
0.314442
3
2.99998
2.99995
2.99982
2.99964
2.99891
2.99787
2.99379
2.98738
2.96538
2.91913
2.80201
2.48906
1.89228
0.890742
0.437908
0.425958
0.436421
0.430952
0.409268
0.387091
0.376249
0.374396
0.377618
0.39049
3
2.99998
2.99995
2.99984
2.99968
2.99904
2.99812
2.99461
2.98875
2.96957
2.92669
2.82117
2.52958
1.98629
0.983925
0.505333
0.441888
0.453289
0.456943
0.443222
0.430039
0.427673
0.435801
0.454983
0.493677
3
2.99999
2.99996
2.99987
2.99973
2.99919
2.99838
2.99549
2.99012
2.97412
2.93554
2.84436
2.58
2.09146
1.11727
0.591028
0.463403
0.475682
0.486023
0.479661
0.475626
0.482609
0.507272
0.556859
0.663375
3
2.99996
2.99992
2.99973
2.99947
2.9984
2.99689
2.99082
2.98159
2.94898
2.8828
2.71231
2.27875
1.4976
0.593123
0.212883
0.316696
0.34846
0.314331
0.25758
0.205613
0.164877
0.125114
0.079319
0.043101
3
2.99996
2.99992
2.99973
2.99948
2.99842
2.99693
2.99094
2.98186
2.94959
2.88506
2.71675
2.2915
1.51622
0.604008
0.220126
0.322457
0.354751
0.320847
0.264591
0.213102
0.173025
0.1347
0.0935739
0.0674018
3
2.99997
2.99992
2.99974
2.99949
2.99846
2.99701
2.99119
2.98239
2.95086
2.88952
2.72557
2.31809
1.55665
0.629226
0.238514
0.335675
0.367917
0.33427
0.279377
0.229608
0.192051
0.15803
0.125136
0.107836
3
2.99997
2.99992
2.99975
2.99951
2.99852
2.99712
2.99153
2.98308
2.95266
2.89521
2.73625
2.35501
1.60975
0.665146
0.265016
0.353322
0.384238
0.351354
0.299496
0.252905
0.219115
0.190381
0.164732
0.152531
3
2.99997
2.99993
2.99976
2.99953
2.99859
2.99725
2.99192
2.98389
2.9548
2.9008
2.74812
2.39002
1.66118
0.705749
0.294016
0.370352
0.399139
0.36906
0.322359
0.280512
0.251428
0.228138
0.2085
0.19991
3
2.99997
2.99993
2.99978
2.99956
2.99867
2.99741
2.99239
2.98484
2.95739
2.90664
2.76288
2.4227
1.72296
0.754523
0.331334
0.388735
0.41195
0.387334
0.348479
0.312345
0.288357
0.270936
0.257286
0.252629
3
2.99997
2.99994
2.99979
2.99959
2.99877
2.99761
2.99292
2.98595
2.96029
2.91323
2.77964
2.4574
1.79476
0.815699
0.379821
0.408915
0.423046
0.407324
0.377515
0.348116
0.330264
0.319642
0.31288
0.314442
3
2.99998
2.99995
2.99982
2.99964
2.99891
2.99787
2.99379
2.98738
2.96538
2.91913
2.80201
2.48906
1.89228
0.890741
0.437907
0.425958
0.436421
0.430952
0.409268
0.387091
0.376249
0.374396
0.377618
0.39049
3
2.99998
2.99995
2.99984
2.99968
2.99904
2.99812
2.99461
2.98875
2.96957
2.92669
2.82117
2.52958
1.98629
0.983924
0.505332
0.441888
0.453289
0.456943
0.443222
0.430039
0.427673
0.435801
0.454983
0.493677
3
2.99999
2.99996
2.99987
2.99973
2.99919
2.99838
2.99549
2.99012
2.97412
2.93554
2.84436
2.58
2.09146
1.11726
0.591028
0.463403
0.475682
0.486023
0.479661
0.475626
0.482609
0.507272
0.556859
0.663375
3
2.99996
2.99992
2.99973
2.99947
2.9984
2.99689
2.99082
2.98159
2.94898
2.8828
2.71231
2.27875
1.49761
0.593123
0.212883
0.316696
0.34846
0.314332
0.257581
0.205613
0.164877
0.125114
0.079319
0.0431012
3
2.99996
2.99992
2.99973
2.99948
2.99842
2.99693
2.99094
2.98186
2.94959
2.88506
2.71675
2.2915
1.51623
0.604008
0.220126
0.322457
0.354751
0.320847
0.264591
0.213102
0.173025
0.1347
0.0935739
0.0674019
3
2.99997
2.99992
2.99974
2.99949
2.99846
2.99701
2.99119
2.98239
2.95086
2.88952
2.72557
2.3181
1.55666
0.629226
0.238514
0.335675
0.367917
0.33427
0.279377
0.229608
0.192052
0.15803
0.125136
0.107836
3
2.99997
2.99992
2.99975
2.99951
2.99852
2.99712
2.99153
2.98308
2.95266
2.89521
2.73625
2.35501
1.60975
0.665147
0.265016
0.353322
0.384238
0.351354
0.299497
0.252905
0.219115
0.190381
0.164732
0.152531
3
2.99997
2.99993
2.99976
2.99953
2.99859
2.99725
2.99192
2.98389
2.9548
2.9008
2.74812
2.39002
1.66118
0.70575
0.294016
0.370352
0.399139
0.36906
0.322359
0.280512
0.251428
0.228138
0.2085
0.19991
3
2.99997
2.99993
2.99978
2.99956
2.99867
2.99741
2.99239
2.98484
2.95739
2.90664
2.76288
2.4227
1.72296
0.754523
0.331335
0.388735
0.41195
0.387334
0.348479
0.312345
0.288357
0.270936
0.257286
0.252629
3
2.99997
2.99994
2.99979
2.99959
2.99877
2.99761
2.99292
2.98595
2.96029
2.91323
2.77964
2.4574
1.79476
0.8157
0.379821
0.408915
0.423046
0.407324
0.377515
0.348116
0.330264
0.319642
0.31288
0.314442
3
2.99998
2.99995
2.99982
2.99964
2.99891
2.99787
2.99379
2.98738
2.96538
2.91913
2.80201
2.48906
1.89228
0.890742
0.437907
0.425958
0.436421
0.430952
0.409268
0.387091
0.376249
0.374396
0.377618
0.39049
3
2.99998
2.99995
2.99984
2.99968
2.99904
2.99812
2.99461
2.98875
2.96957
2.92669
2.82117
2.52958
1.98629
0.983924
0.505333
0.441888
0.453289
0.456943
0.443222
0.430039
0.427673
0.435801
0.454983
0.493677
3
2.99999
2.99996
2.99987
2.99973
2.99919
2.99838
2.99549
2.99012
2.97412
2.93554
2.84436
2.58
2.09146
1.11727
0.591028
0.463403
0.475682
0.486023
0.479661
0.475626
0.482609
0.507272
0.556859
0.663375
3
2.99996
2.99992
2.99973
2.99947
2.9984
2.99689
2.99082
2.98159
2.94898
2.8828
2.71231
2.27875
1.49761
0.593124
0.212883
0.316696
0.34846
0.314331
0.257581
0.205613
0.164877
0.125114
0.0793189
0.0431012
3
2.99996
2.99992
2.99973
2.99948
2.99842
2.99693
2.99094
2.98186
2.94959
2.88506
2.71675
2.2915
1.51623
0.604009
0.220126
0.322457
0.354751
0.320847
0.264591
0.213102
0.173025
0.1347
0.0935738
0.0674018
3
2.99997
2.99992
2.99974
2.99949
2.99846
2.99701
2.99119
2.98239
2.95086
2.88952
2.72557
2.3181
1.55666
0.629227
0.238514
0.335675
0.367917
0.33427
0.279377
0.229608
0.192051
0.15803
0.125136
0.107836
3
2.99997
2.99992
2.99975
2.99951
2.99852
2.99712
2.99153
2.98308
2.95266
2.89521
2.73625
2.35501
1.60975
0.665147
0.265016
0.353322
0.384238
0.351354
0.299497
0.252905
0.219115
0.190381
0.164732
0.152531
3
2.99997
2.99993
2.99976
2.99953
2.99859
2.99725
2.99192
2.98389
2.9548
2.9008
2.74812
2.39002
1.66118
0.70575
0.294016
0.370352
0.399139
0.36906
0.322359
0.280512
0.251428
0.228138
0.2085
0.19991
3
2.99997
2.99993
2.99978
2.99956
2.99867
2.99741
2.99239
2.98484
2.95739
2.90664
2.76288
2.4227
1.72296
0.754524
0.331335
0.388735
0.41195
0.387334
0.348479
0.312345
0.288357
0.270936
0.257286
0.252629
3
2.99997
2.99994
2.99979
2.99959
2.99877
2.99761
2.99292
2.98595
2.96029
2.91323
2.77964
2.4574
1.79477
0.8157
0.379822
0.408915
0.423046
0.407324
0.377515
0.348116
0.330264
0.319642
0.31288
0.314442
3
2.99998
2.99995
2.99982
2.99964
2.99891
2.99787
2.99379
2.98738
2.96538
2.91913
2.80201
2.48906
1.89228
0.890742
0.437908
0.425958
0.436421
0.430952
0.409268
0.387091
0.376249
0.374396
0.377618
0.39049
3
2.99998
2.99995
2.99984
2.99968
2.99904
2.99812
2.99461
2.98875
2.96957
2.92669
2.82117
2.52958
1.98629
0.983925
0.505333
0.441888
0.453289
0.456943
0.443222
0.430039
0.427673
0.435801
0.454983
0.493677
3
2.99999
2.99996
2.99987
2.99973
2.99919
2.99838
2.99549
2.99012
2.97412
2.93554
2.84436
2.58
2.09146
1.11727
0.591029
0.463403
0.475682
0.486023
0.479661
0.475626
0.482609
0.507272
0.556859
0.663375
3
2.99996
2.99992
2.99973
2.99947
2.9984
2.99689
2.99082
2.98159
2.94898
2.8828
2.71231
2.27875
1.49761
0.593124
0.212883
0.316696
0.348461
0.314332
0.257581
0.205613
0.164877
0.125114
0.079319
0.0431011
3
2.99996
2.99992
2.99973
2.99948
2.99842
2.99693
2.99094
2.98186
2.94959
2.88506
2.71675
2.2915
1.51623
0.604009
0.220126
0.322457
0.354751
0.320847
0.264591
0.213102
0.173025
0.1347
0.0935739
0.0674019
3
2.99997
2.99992
2.99974
2.99949
2.99846
2.99701
2.99119
2.98239
2.95086
2.88952
2.72557
2.3181
1.55666
0.629227
0.238514
0.335676
0.367917
0.33427
0.279377
0.229608
0.192052
0.15803
0.125136
0.107836
3
2.99997
2.99992
2.99975
2.99951
2.99852
2.99712
2.99153
2.98308
2.95266
2.89521
2.73625
2.35501
1.60976
0.665148
0.265016
0.353322
0.384238
0.351354
0.299497
0.252905
0.219115
0.190381
0.164732
0.152531
3
2.99997
2.99993
2.99976
2.99953
2.99859
2.99725
2.99192
2.98389
2.9548
2.9008
2.74812
2.39002
1.66118
0.70575
0.294016
0.370352
0.399139
0.36906
0.322359
0.280512
0.251428
0.228139
0.2085
0.19991
3
2.99997
2.99993
2.99978
2.99956
2.99867
2.99741
2.99239
2.98484
2.95739
2.90664
2.76288
2.4227
1.72296
0.754524
0.331335
0.388735
0.411949
0.387334
0.348479
0.312345
0.288357
0.270936
0.257286
0.252629
3
2.99997
2.99994
2.99979
2.99959
2.99877
2.99761
2.99292
2.98595
2.96029
2.91323
2.77964
2.4574
1.79477
0.815701
0.379822
0.408915
0.423046
0.407324
0.377515
0.348116
0.330264
0.319642
0.31288
0.314442
3
2.99998
2.99995
2.99982
2.99964
2.99891
2.99787
2.99379
2.98738
2.96538
2.91913
2.80201
2.48906
1.89228
0.890743
0.437908
0.425958
0.436421
0.430952
0.409268
0.387091
0.376249
0.374396
0.377618
0.39049
3
2.99998
2.99995
2.99984
2.99968
2.99904
2.99812
2.99461
2.98875
2.96957
2.92669
2.82117
2.52958
1.98629
0.983926
0.505333
0.441888
0.453289
0.456943
0.443222
0.430039
0.427673
0.435801
0.454983
0.493677
3
2.99999
2.99996
2.99987
2.99973
2.99919
2.99838
2.99549
2.99012
2.97412
2.93554
2.84436
2.58
2.09146
1.11727
0.591029
0.463403
0.475682
0.486023
0.479661
0.475626
0.482608
0.507272
0.556859
0.663375
3
2.99996
2.99992
2.99973
2.99947
2.9984
2.99689
2.99082
2.98159
2.94898
2.8828
2.71232
2.27876
1.49762
0.593127
0.212882
0.316696
0.348461
0.314332
0.257581
0.205613
0.164877
0.125114
0.0793192
0.0431008
3
2.99996
2.99992
2.99973
2.99948
2.99842
2.99693
2.99094
2.98186
2.94959
2.88506
2.71675
2.2915
1.51623
0.604012
0.220125
0.322457
0.354752
0.320848
0.264592
0.213102
0.173026
0.1347
0.0935741
0.0674017
3
2.99997
2.99992
2.99974
2.99949
2.99846
2.99701
2.99119
2.98239
2.95086
2.88952
2.72558
2.3181
1.55667
0.62923
0.238514
0.335676
0.367918
0.33427
0.279377
0.229608
0.192052
0.15803
0.125136
0.107836
3
2.99997
2.99992
2.99975
2.99951
2.99852
2.99712
2.99153
2.98308
2.95266
2.89522
2.73625
2.35502
1.60976
0.665151
0.265016
0.353322
0.384238
0.351354
0.299497
0.252905
0.219115
0.190381
0.164733
0.152531
3
2.99997
2.99993
2.99976
2.99953
2.99859
2.99725
2.99192
2.98389
2.9548
2.9008
2.74812
2.39002
1.66119
0.705752
0.294016
0.370352
0.399139
0.36906
0.322359
0.280512
0.251428
0.228139
0.2085
0.19991
3
2.99997
2.99993
2.99978
2.99956
2.99867
2.99741
2.99239
2.98484
2.95739
2.90664
2.76288
2.4227
1.72297
0.754527
0.331336
0.388735
0.411949
0.387333
0.348479
0.312345
0.288357
0.270936
0.257286
0.252629
3
2.99997
2.99994
2.99979
2.99959
2.99877
2.99761
2.99292
2.98595
2.96029
2.91323
2.77964
2.45741
1.79477
0.815703
0.379823
0.408915
0.423045
0.407324
0.377515
0.348116
0.330264
0.319642
0.31288
0.314442
3
2.99998
2.99995
2.99982
2.99964
2.99891
2.99787
2.99379
2.98738
2.96538
2.91913
2.80202
2.48906
1.89228
0.890746
0.437909
0.425957
0.43642
0.430952
0.409268
0.387091
0.376249
0.374396
0.377618
0.39049
3
2.99998
2.99995
2.99984
2.99968
2.99904
2.99812
2.99461
2.98875
2.96957
2.92669
2.82117
2.52958
1.98629
0.983929
0.505335
0.441887
0.453289
0.456943
0.443222
0.430039
0.427673
0.435801
0.454983
0.493677
3
2.99999
2.99996
2.99987
2.99973
2.99919
2.99838
2.99549
2.99012
2.97412
2.93554
2.84436
2.58
2.09147
1.11727
0.591031
0.463402
0.475681
0.486023
0.479661
0.475626
0.482608
0.507272
0.556859
0.663375
3.00002
2.99998
2.99994
2.99975
2.99949
2.99842
2.99691
2.99084
2.98161
2.94902
2.88285
2.71241
2.27892
1.4979
0.593303
0.213149
0.316905
0.348667
0.314562
0.257856
0.205951
0.165296
0.125667
0.0801952
0.0447192
3.00002
2.99998
2.99994
2.99975
2.99949
2.99844
2.99695
2.99096
2.98188
2.94963
2.8851
2.71684
2.29167
1.51652
0.604191
0.220393
0.322666
0.354954
0.32107
0.264854
0.213421
0.173418
0.135207
0.0943081
0.0684343
3.00002
2.99998
2.99994
2.99976
2.99951
2.99848
2.99703
2.99121
2.98242
2.95089
2.88957
2.72567
2.31827
1.55695
0.629413
0.238774
0.335877
0.368106
0.334474
0.279617
0.229898
0.192399
0.158456
0.125679
0.108476
3.00002
2.99998
2.99994
2.99977
2.99953
2.99854
2.99714
2.99155
2.9831
2.95269
2.89526
2.73633
2.35517
1.61
0.665329
0.265247
0.353498
0.384399
0.351533
0.299709
0.253159
0.219414
0.190729
0.165139
0.152979
3.00002
2.99999
2.99995
2.99978
2.99955
2.99861
2.99727
2.99194
2.98392
2.95483
2.90084
2.74819
2.39012
1.66137
0.705896
0.294228
0.370506
0.399275
0.369217
0.322547
0.280734
0.251681
0.228422
0.208815
0.200246
3.00002
2.99999
2.99995
2.9998
2.99958
2.99869
2.99743
2.99241
2.98486
2.95742
2.90667
2.76294
2.42277
1.72312
0.754673
0.331547
0.388882
0.412071
0.387476
0.348649
0.312539
0.288572
0.271169
0.257536
0.252889
3.00002
2.99999
2.99996
2.99981
2.99961
2.99879
2.99763
2.99294
2.98598
2.96032
2.91326
2.77971
2.45746
1.79495
0.815844
0.380025
0.409047
0.423153
0.407457
0.377669
0.348285
0.330446
0.319834
0.31308
0.314646
3.00002
2.99999
2.99996
2.99984
2.99966
2.99893
2.99789
2.99382
2.9874
2.96541
2.91916
2.80207
2.48909
1.89241
0.890874
0.438079
0.42607
0.436528
0.431073
0.409403
0.387237
0.376402
0.374554
0.377777
0.390648
3.00002
3
2.99997
2.99986
2.9997
2.99906
2.99814
2.99463
2.98877
2.9696
2.92672
2.82123
2.52964
1.98642
0.984068
0.505496
0.441998
0.453396
0.457054
0.443341
0.430164
0.427802
0.435931
0.455108
0.493793
3.00002
3
2.99998
2.99988
2.99975
2.99921
2.9984
2.99552
2.99015
2.97414
2.93557
2.84441
2.58008
2.09161
1.11743
0.591189
0.463517
0.475791
0.486132
0.47977
0.475735
0.482717
0.507375
0.556953
0.663452
3.00002
3.00001
2.99997
2.99992
2.99971
2.99941
2.99824
2.99642
2.99004
2.97799
2.94257
2.85569
2.66253
2.14003
1.315
0.685704
0.493234
0.506546
0.521227
0.520884
0.523711
0.541592
0.586992
0.679249
0.863934
3.00002
3.00001
2.99998
2.99993
2.99974
2.99948
2.9984
2.99687
2.99072
2.98145
2.94832
2.88273
2.71112
2.28456
1.51339
0.787865
0.531018
0.545348
0.561484
0.566031
0.574638
0.602862
0.663945
0.775745
0.971198
3.00002
3.00001
2.99999
2.99995
2.99979
2.99957
2.99866
2.99738
2.99225
2.98457
2.95662
2.90585
2.75916
2.4289
1.73578
0.903931
0.586705
0.596963
0.609207
0.616574
0.628227
0.661581
0.728873
0.837984
1.00679
3.00002
3.00002
2.99999
2.99996
2.99983
2.99965
2.99891
2.99786
2.99366
2.98743
2.96463
2.92262
2.80498
2.51566
1.92918
1.00727
0.645824
0.638214
0.65193
0.665894
0.681886
0.716291
0.780203
0.877444
1.01987
3.00002
3.00002
3
2.99998
2.99988
2.99974
2.99918
2.99835
2.99535
2.99001
2.97356
2.93552
2.84341
2.58723
2.10182
1.18737
0.744273
0.668584
0.683116
0.702233
0.727236
0.763635
0.823542
0.907041
1.02558
3.00002
3.00002
3.00001
2.99998
2.99993
2.99973
2.99945
2.99835
2.99667
2.9907
2.97979
2.9469
2.86863
2.69066
2.22054
1.438
0.865567
0.705482
0.715535
0.735405
0.764913
0.802874
0.860092
0.935027
1.03336
3.00002
3.00002
3.00001
2.99998
2.99995
2.99978
2.99956
2.99863
2.99733
2.99211
2.98427
2.95596
2.90332
2.75632
2.41261
1.72216
1.00145
0.758761
0.754764
0.77112
0.801755
0.838457
0.889355
0.957883
1.04302
3.00002
3.00002
3.00002
3
2.99996
2.99984
2.99966
2.99896
2.99794
2.99396
2.9879
2.96612
2.92661
2.81149
2.55256
1.96653
1.16638
0.832201
0.798347
0.811247
0.837995
0.874769
0.918733
0.978045
1.05244
3.00003
3.00002
3.00002
3.00001
2.99997
2.99992
2.9997
2.99939
2.99818
2.99633
2.98986
2.97787
2.94271
2.85743
2.66997
2.165
1.39746
0.937364
0.838678
0.846717
0.86876
0.903495
0.945733
0.998062
1.0628
3.00003
3.00003
3.00002
3.00001
2.99998
2.99994
2.99977
2.99953
2.99856
2.99717
2.99172
2.98334
2.95383
2.89782
2.74352
2.38625
1.67165
1.08109
0.892899
0.884508
0.898562
0.928038
0.968908
1.01658
1.07383
3.00003
3.00003
3.00002
3.00002
3
2.99995
2.99988
2.9996
2.99918
2.99758
2.99518
2.98637
2.97145
2.92444
2.82035
2.57677
2.02639
1.27475
0.970486
0.928422
0.934832
0.958186
0.994393
1.03573
1.08564
3.00003
3.00003
3.00003
3.00002
3.00001
2.99997
2.99992
2.99972
2.99942
2.99827
2.99658
2.99035
2.97973
2.94636
2.87044
2.69618
2.24066
1.51473
1.0733
0.968878
0.967994
0.986419
1.01864
1.05858
1.10179
3.00003
3.00003
3.00003
3.00002
3.00001
3
2.99994
2.99985
2.99952
2.99903
2.99719
2.9943
2.98451
2.96542
2.91253
2.78018
2.50592
1.86215
1.25229
1.03081
1.00708
1.0164
1.04249
1.07996
1.12031
3.00003
3.00003
3.00003
3.00003
3.00002
3.00001
2.99997
2.99991
2.99967
2.99933
2.99801
2.99607
2.98887
2.97679
2.93855
2.85245
2.65903
2.16336
1.45397
1.10993
1.04719
1.05015
1.06979
1.10189
1.1394
3.00003
3.00003
3.00003
3.00003
3.00002
3.00001
2.99999
2.99993
2.99983
2.99946
2.99891
2.99686
2.99356
2.98266
2.96054
2.90137
2.7509
2.44514
1.75433
1.25924
1.09805
1.08501
1.09603
1.12254
1.15828
3.00003
3.00003
3.00003
3.00003
3.00002
3.00002
3
2.99996
2.99989
2.99963
2.99926
2.99778
2.99566
2.98755
2.97476
2.93244
2.84368
2.63306
2.13667
1.46116
1.17474
1.12494
1.1275
1.14755
1.1782
3.00003
3.00003
3.00003
3.00003
3.00003
3.00002
3.00001
2.99999
2.99992
2.99981
2.99942
2.99883
2.99661
2.99317
2.98139
2.95929
2.89653
2.74452
2.42735
1.75129
1.31304
1.1726
1.15922
1.1691
1.19362
3.00003
3.00003
3.00003
3.00003
3.00003
3.00002
3.00002
3
2.99996
2.99989
2.99962
2.99923
2.99773
2.99557
2.9873
2.97443
2.93172
2.84519
2.63281
2.1538
1.50881
1.24963
1.20313
1.2005
1.21578
3.00003
3.00003
3.00003
3.00003
3.00003
3.00003
3.00002
3.00001
2.99999
2.99992
2.99981
2.99942
2.99883
2.99664
2.99324
2.9815
2.96021
2.89924
2.75797
2.44341
1.82302
1.38147
1.24687
1.23274
1.24006
3.00003
3.00003
3.00003
3.00003
3.00003
3.00003
3.00002
3.00002
3
2.99997
2.99986
2.9997
2.99911
2.99821
2.99495
2.98972
2.97233
2.9403
2.848
2.65897
2.17899
1.59062
1.32477
1.27117
1.26813
3.00003
3.00003
3.00003
3.00003
3.00003
3.00003
3.00003
3.00002
3.00001
2.99999
2.99992
2.99983
2.99945
2.99891
2.99682
2.99375
2.9825
2.964
2.90696
2.7855
2.50145
1.92732
1.47509
1.32157
1.29982
3.00003
3.00003
3.00003
3.00003
3.00003
3.00003
3.00003
3.00002
3.00002
3
2.99998
2.99988
2.99974
2.9992
2.9984
2.9955
2.99084
2.97537
2.94739
2.86495
2.70136
2.26695
1.69904
1.41053
1.33962
3.00003
3.00003
3.00003
3.00003
3.00003
3.00003
3.00003
3.00003
3.00002
3.00001
3
2.99994
2.99985
2.99953
2.99906
2.99726
2.99467
2.98508
2.96968
2.92138
2.81839
2.5896
2.06185
1.58678
1.39764
3.00003
3.00003
3.00003
3.00003
3.00003
3.00003
3.00003
3.00003
3.00003
3.00002
3.00001
2.99997
2.99992
2.99973
2.99945
2.99839
2.99686
2.99118
2.98215
2.95314
2.89152
2.75222
2.38521
1.82404
1.49204
3.00003
3.00003
3.00003
3.00003
3.00003
3.00003
3.00003
3.00003
3.00003
3.00002
3.00002
3
2.99997
2.99985
2.99969
2.99906
2.99814
2.99473
2.9895
2.97153
2.94014
2.84762
2.66339
2.19559
1.69572
3.00003
3.00003
3.00003
3.00003
3.00003
3.00003
3.00003
3.00003
3.00003
3.00003
3.00002
3.00001
2.99999
2.99994
2.99979
2.99956
2.99873
2.99746
2.99293
2.98566
2.96207
2.91573
2.79928
2.52354
1.98713
3.00003
3.00003
3.00003
3.00003
3.00003
3.00003
3.00003
3.00003
3.00003
3.00003
3.00003
3.00002
3.00001
2.99997
2.99992
2.99971
2.99941
2.9983
2.9966
2.99072
2.98069
2.9504
2.8843
2.73681
2.36996
3.00003
3.00003
3.00003
3.00003
3.00003
3.00003
3.00003
3.00003
3.00003
3.00003
3.00003
3.00002
3.00002
3
2.99995
2.99988
2.99961
2.9992
2.99774
2.99549
2.98775
2.97459
2.9356
2.85197
2.66156
3.00003
3.00003
3.00003
3.00003
3.00003
3.00003
3.00003
3.00003
3.00003
3.00003
3.00003
3.00003
3.00002
3.00001
2.99998
2.99994
2.99979
2.99956
2.9987
2.99746
2.99285
2.98584
2.96208
2.91793
2.80494
3.00003
3.00003
3.00003
3.00003
3.00003
3.00003
3.00003
3.00003
3.00003
3.00003
3.00003
3.00003
3.00003
3.00002
3.00001
2.99997
2.99992
2.99972
2.99943
2.99836
2.99674
2.99109
2.9817
2.95271
2.8918
3.00003
3.00003
3.00003
3.00003
3.00003
3.00003
3.00003
3.00003
3.00003
3.00003
3.00003
3.00003
3.00003
3.00002
3.00002
3
2.99996
2.99989
2.99964
2.99926
2.99792
2.99582
2.98876
2.97661
2.94095
3.00003
3.00003
3.00003
3.00003
3.00003
3.00003
3.00003
3.00003
3.00003
3.00003
3.00003
3.00003
3.00003
3.00003
3.00002
3.00001
3
2.99994
2.99985
2.99953
2.99905
2.99734
2.99471
2.98567
2.9705
3.00003
3.00003
3.00003
3.00003
3.00003
3.00003
3.00003
3.00003
3.00003
3.00003
3.00003
3.00003
3.00003
3.00003
3.00003
3.00002
3.00001
2.99998
2.99993
2.99976
2.9995
2.99856
2.99719
2.99218
2.98444
3.00003
3.00003
3.00003
3.00003
3.00003
3.00003
3.00003
3.00003
3.00003
3.00003
3.00003
3.00003
3.00003
3.00003
3.00003
3.00003
3.00002
3.00001
2.99997
2.99991
2.9997
2.99938
2.99826
2.99653
2.9906
3.00003
3.00003
3.00003
3.00003
3.00003
3.00003
3.00003
3.00003
3.00003
3.00003
3.00003
3.00003
3.00003
3.00003
3.00003
3.00003
3.00002
3.00002
3
2.99996
2.99988
2.99963
2.99925
2.99792
2.99581
3.00003
3.00003
3.00003
3.00003
3.00003
3.00003
3.00003
3.00003
3.00003
3.00003
3.00003
3.00003
3.00003
3.00003
3.00003
3.00003
3.00003
3.00002
3.00001
3
2.99994
2.99985
2.99955
2.99909
2.9975
3.00003
3.00003
3.00003
3.00003
3.00003
3.00003
3.00003
3.00003
3.00003
3.00003
3.00003
3.00003
3.00003
3.00003
3.00003
3.00003
3.00003
3.00003
3.00002
3.00001
2.99999
2.99992
2.99982
2.99946
2.9989
3.00003
3.00003
3.00003
3.00003
3.00003
3.00003
3.00003
3.00003
3.00003
3.00003
3.00003
3.00003
3.00003
3.00003
3.00003
3.00003
3.00003
3.00003
3.00003
3.00002
3.00001
2.99997
2.99992
2.99972
2.99944
3.00003
3.00003
3.00003
3.00003
3.00003
3.00003
3.00003
3.00003
3.00003
3.00003
3.00003
3.00003
3.00003
3.00003
3.00003
3.00003
3.00003
3.00003
3.00003
3.00002
3.00002
3
2.99996
2.99989
2.99964
3.00003
3.00003
3.00003
3.00003
3.00003
3.00003
3.00003
3.00003
3.00003
3.00003
3.00003
3.00003
3.00003
3.00003
3.00003
3.00003
3.00003
3.00003
3.00003
3.00003
3.00002
3.00001
2.99998
2.99993
2.99974
3
2.99999
2.99995
2.9999
2.99969
2.99939
2.99822
2.9964
2.99001
2.97797
2.94253
2.85565
2.66245
2.13992
1.31482
0.685562
0.493117
0.506432
0.52112
0.520781
0.523612
0.541499
0.586909
0.679181
0.863891
3
2.99999
2.99996
2.99991
2.99972
2.99946
2.99838
2.99685
2.9907
2.98143
2.94829
2.88269
2.71104
2.28446
1.51321
0.787742
0.530899
0.545234
0.561382
0.565936
0.574549
0.602782
0.663875
0.77569
0.971162
3
3
2.99997
2.99993
2.99977
2.99955
2.99864
2.99735
2.99223
2.98455
2.95659
2.90581
2.7591
2.42881
1.73566
0.903821
0.586589
0.596865
0.60912
0.616487
0.628146
0.661508
0.728812
0.837935
1.00676
3
3
2.99997
2.99994
2.99981
2.99963
2.99889
2.99784
2.99364
2.98741
2.9646
2.92259
2.80492
2.51561
1.92902
1.00715
0.645704
0.638132
0.651855
0.665822
0.681816
0.716227
0.780148
0.877397
1.01983
3
3
2.99998