/*--------------------------------*- C++ -*----------------------------------*\
| =========                 |                                                 |
| \\      /  F ield         | OpenFOAM: The Open Source CFD Toolbox           |
|  \\    /   O peration     | Version:  4.1                                   |
|   \\  /    A nd           | Web:      www.OpenFOAM.org                      |
|    \\/     M anipulation  |                                                 |
\*---------------------------------------------------------------------------*/
FoamFile
{
    version     2.0;
    format      ascii;
    class       volScalarField;
    location    "4.26";
    object      p;
}
// * * * * * * * * * * * * * * * * * * * * * * * * * * * * * * * * * * * * * //

dimensions      [1 -1 -2 0 0 0 0];

internalField   nonuniform List<scalar> 
52500
(
1.00001
1.00003
1.0001
1.00022
1.00065
1.00132
1.00379
1.00745
1.02304
1.04109
1.14986
1.26312
2.01948
3.37572
8.12404
11.5743
11.2133
10.974
11.0518
11.2759
11.5126
11.6582
11.7675
11.854
11.9206
1.00001
1.00003
1.0001
1.00022
1.00064
1.0013
1.00374
1.00735
1.02272
1.04052
1.14773
1.25909
2.00373
3.33688
8.02103
11.5824
11.2098
10.963
11.0421
11.2673
11.5038
11.6495
11.7603
11.8482
11.9165
1.00001
1.00003
1.0001
1.00021
1.00062
1.00127
1.00364
1.00716
1.02206
1.03945
1.14329
1.25131
1.96823
3.25371
7.7883
11.5988
11.1996
10.9311
11.0094
11.2332
11.4668
11.61
11.7202
11.8073
11.8755
1.00001
1.00003
1.00009
1.00021
1.00059
1.00122
1.00349
1.00688
1.02108
1.03783
1.13658
1.23961
1.91478
3.1281
7.42782
11.6264
11.186
10.8793
10.9542
11.1724
11.4016
11.5397
11.6462
11.731
11.8
1.00001
1.00003
1.00009
1.0002
1.00057
1.00116
1.00332
1.00663
1.01974
1.03679
1.12594
1.22699
1.84143
2.96419
6.94114
11.6562
11.1702
10.8099
10.8786
11.0869
11.3105
11.4417
11.5425
11.6236
11.6936
1.00001
1.00002
1.00008
1.00018
1.00053
1.00109
1.0031
1.00625
1.01818
1.03529
1.11347
1.21181
1.75639
2.7721
6.34921
11.6603
11.1473
10.7253
10.7843
10.9754
11.1898
11.3097
11.3995
11.4729
11.5444
1
1.00002
1.00008
1.00017
1.00049
1.001
1.00284
1.00573
1.01655
1.03254
1.10163
1.19419
1.66844
2.56638
5.6821
11.5779
11.0875
10.6238
10.6706
10.8358
11.034
11.1368
11.2081
11.2638
11.3289
1
1.00002
1.00007
1.00015
1.00044
1.00091
1.00257
1.0052
1.01501
1.02958
1.09177
1.17612
1.5997
2.40271
5.23376
11.2152
10.9198
10.5098
10.5378
10.6615
10.8342
10.911
10.9505
10.9695
11.0084
1
1.00002
1.00006
1.00013
1.00039
1.00081
1.0023
1.00464
1.01342
1.02631
1.08276
1.15415
1.53989
2.24128
4.80099
10.5435
10.613
10.4324
10.3963
10.4588
10.5872
10.624
10.6115
10.5532
10.4939
1
1.00001
1.00005
1.00011
1.00033
1.00067
1.00193
1.00375
1.01175
1.0205
1.0752
1.12648
1.48658
2.0733
4.36059
9.6971
10.4524
10.3334
10.2221
10.244
10.2958
10.2757
10.1805
9.95334
9.59269
1.00001
1.00003
1.00011
1.00023
1.00065
1.00133
1.0038
1.00746
1.02305
1.04111
1.14988
1.26317
2.01955
3.376
8.12461
11.5742
11.2133
10.9741
11.0519
11.2759
11.5126
11.6583
11.7676
11.854
11.9207
1.00001
1.00003
1.0001
1.00023
1.00064
1.00131
1.00374
1.00736
1.02273
1.04054
1.14775
1.25915
2.00381
3.33716
8.0216
11.5823
11.2098
10.9631
11.0421
11.2674
11.5039
11.6496
11.7604
11.8483
11.9166
1.00001
1.00003
1.0001
1.00022
1.00063
1.00128
1.00364
1.00717
1.02207
1.03947
1.14331
1.25137
1.96831
3.25398
7.78886
11.5987
11.1996
10.9312
11.0095
11.2332
11.4669
11.61
11.7202
11.8074
11.8755
1.00001
1.00003
1.0001
1.00021
1.0006
1.00123
1.00349
1.00689
1.02109
1.03785
1.1366
1.23966
1.91485
3.12836
7.42839
11.6263
11.186
10.8794
10.9543
11.1725
11.4017
11.5398
11.6463
11.7311
11.8
1.00001
1.00003
1.00009
1.0002
1.00057
1.00117
1.00332
1.00665
1.01975
1.03682
1.12594
1.22707
1.84146
2.96442
6.94166
11.6561
11.1703
10.81
10.8787
11.0869
11.3105
11.4417
11.5425
11.6236
11.6937
1.00001
1.00003
1.00009
1.00019
1.00054
1.0011
1.00311
1.00626
1.01819
1.03531
1.11349
1.21186
1.75644
2.7723
6.34969
11.6603
11.1473
10.7253
10.7843
10.9755
11.1899
11.3097
11.3996
11.4729
11.5445
1.00001
1.00002
1.00008
1.00017
1.00049
1.00101
1.00284
1.00574
1.01656
1.03255
1.10165
1.19424
1.66849
2.56657
5.68257
11.5779
11.0875
10.6238
10.6707
10.8359
11.0341
11.1369
11.2082
11.2638
11.3289
1
1.00002
1.00007
1.00016
1.00045
1.00091
1.00258
1.00521
1.01502
1.02959
1.09179
1.17616
1.59973
2.40284
5.234
11.2154
10.9198
10.5099
10.5379
10.6615
10.8342
10.9111
10.9506
10.9696
11.0084
1
1.00002
1.00006
1.00014
1.0004
1.00082
1.0023
1.00465
1.01343
1.02632
1.08277
1.15419
1.5399
2.2414
4.80117
10.5438
10.6131
10.4324
10.3964
10.4589
10.5873
10.6241
10.6115
10.5533
10.4939
1
1.00002
1.00005
1.00012
1.00033
1.00068
1.00194
1.00376
1.01175
1.02052
1.07521
1.12652
1.4866
2.07343
4.36073
9.69746
10.4524
10.3334
10.2222
10.2441
10.2958
10.2758
10.1805
9.95339
9.59273
1.00001
1.00003
1.00011
1.00023
1.00065
1.00133
1.0038
1.00746
1.02305
1.04111
1.14988
1.26317
2.01956
3.37601
8.12464
11.5742
11.2133
10.9741
11.0519
11.2759
11.5127
11.6583
11.7676
11.854
11.9207
1.00001
1.00003
1.0001
1.00023
1.00064
1.00131
1.00374
1.00736
1.02273
1.04054
1.14775
1.25915
2.00381
3.33717
8.02163
11.5822
11.2098
10.9631
11.0421
11.2674
11.5039
11.6496
11.7604
11.8483
11.9166
1.00001
1.00003
1.0001
1.00022
1.00063
1.00128
1.00364
1.00717
1.02207
1.03947
1.14331
1.25137
1.96831
3.254
7.7889
11.5987
11.1996
10.9312
11.0095
11.2332
11.4669
11.61
11.7202
11.8074
11.8755
1.00001
1.00003
1.0001
1.00021
1.0006
1.00123
1.00349
1.00689
1.02109
1.03785
1.13661
1.23966
1.91486
3.12837
7.42842
11.6263
11.186
10.8794
10.9543
11.1725
11.4017
11.5398
11.6463
11.7311
11.8
1.00001
1.00003
1.00009
1.0002
1.00057
1.00117
1.00332
1.00665
1.01975
1.03682
1.12594
1.22707
1.84146
2.96443
6.9417
11.6561
11.1703
10.81
10.8787
11.0869
11.3105
11.4417
11.5425
11.6236
11.6937
1.00001
1.00003
1.00009
1.00019
1.00054
1.0011
1.00311
1.00626
1.01819
1.03531
1.11349
1.21186
1.75645
2.77232
6.34973
11.6603
11.1473
10.7253
10.7843
10.9755
11.1899
11.3097
11.3996
11.4729
11.5445
1.00001
1.00002
1.00008
1.00017
1.00049
1.00101
1.00284
1.00574
1.01656
1.03255
1.10165
1.19424
1.6685
2.56658
5.6826
11.5778
11.0875
10.6238
10.6707
10.8359
11.0341
11.1369
11.2082
11.2638
11.3289
1
1.00002
1.00007
1.00016
1.00045
1.00091
1.00258
1.00521
1.01502
1.02959
1.09179
1.17616
1.59973
2.40285
5.23402
11.2154
10.9198
10.5099
10.5379
10.6615
10.8342
10.9111
10.9506
10.9696
11.0084
1
1.00002
1.00006
1.00014
1.0004
1.00082
1.0023
1.00465
1.01343
1.02633
1.08277
1.1542
1.53991
2.24141
4.80119
10.5439
10.6131
10.4324
10.3964
10.4589
10.5873
10.6241
10.6115
10.5533
10.4939
1
1.00002
1.00005
1.00012
1.00033
1.00068
1.00194
1.00376
1.01175
1.02052
1.07521
1.12652
1.4866
2.07343
4.36074
9.69748
10.4524
10.3335
10.2222
10.2441
10.2958
10.2758
10.1805
9.95339
9.59273
1.00001
1.00003
1.00011
1.00023
1.00065
1.00133
1.0038
1.00746
1.02305
1.04111
1.14988
1.26317
2.01956
3.37601
8.12464
11.5742
11.2133
10.9741
11.0519
11.2759
11.5127
11.6583
11.7676
11.854
11.9207
1.00001
1.00003
1.0001
1.00023
1.00064
1.00131
1.00374
1.00736
1.02273
1.04054
1.14775
1.25915
2.00382
3.33717
8.02163
11.5822
11.2098
10.9631
11.0421
11.2674
11.5039
11.6496
11.7604
11.8483
11.9166
1.00001
1.00003
1.0001
1.00022
1.00063
1.00128
1.00364
1.00717
1.02207
1.03947
1.14331
1.25137
1.96831
3.254
7.7889
11.5987
11.1996
10.9312
11.0095
11.2332
11.4669
11.61
11.7202
11.8074
11.8755
1.00001
1.00003
1.0001
1.00021
1.0006
1.00123
1.00349
1.00689
1.02109
1.03785
1.13661
1.23966
1.91486
3.12837
7.42842
11.6263
11.186
10.8794
10.9543
11.1725
11.4017
11.5398
11.6463
11.7311
11.8
1.00001
1.00003
1.00009
1.0002
1.00057
1.00117
1.00332
1.00665
1.01975
1.03682
1.12594
1.22707
1.84146
2.96443
6.9417
11.6561
11.1703
10.81
10.8787
11.0869
11.3105
11.4417
11.5425
11.6236
11.6937
1.00001
1.00003
1.00009
1.00019
1.00054
1.0011
1.00311
1.00626
1.01819
1.03531
1.11349
1.21186
1.75645
2.77232
6.34973
11.6603
11.1473
10.7253
10.7843
10.9755
11.1899
11.3097
11.3996
11.4729
11.5445
1.00001
1.00002
1.00008
1.00017
1.00049
1.00101
1.00284
1.00574
1.01656
1.03255
1.10165
1.19424
1.6685
2.56658
5.68261
11.5778
11.0875
10.6238
10.6707
10.8359
11.0341
11.1369
11.2082
11.2638
11.3289
1
1.00002
1.00007
1.00016
1.00045
1.00091
1.00258
1.00521
1.01502
1.02959
1.09179
1.17616
1.59973
2.40285
5.23402
11.2154
10.9198
10.5099
10.5379
10.6615
10.8342
10.9111
10.9506
10.9696
11.0084
1
1.00002
1.00006
1.00014
1.0004
1.00082
1.0023
1.00465
1.01343
1.02633
1.08277
1.1542
1.53991
2.24141
4.80119
10.5439
10.6131
10.4324
10.3964
10.4589
10.5873
10.6241
10.6115
10.5533
10.4939
1
1.00002
1.00005
1.00012
1.00033
1.00068
1.00194
1.00376
1.01175
1.02052
1.07521
1.12652
1.4866
2.07343
4.36074
9.69748
10.4524
10.3335
10.2222
10.2441
10.2958
10.2758
10.1805
9.95339
9.59273
1.00001
1.00003
1.00011
1.00023
1.00065
1.00133
1.0038
1.00746
1.02305
1.04111
1.14988
1.26317
2.01956
3.37601
8.12464
11.5742
11.2133
10.9741
11.0519
11.2759
11.5127
11.6583
11.7676
11.854
11.9207
1.00001
1.00003
1.0001
1.00023
1.00064
1.00131
1.00374
1.00736
1.02273
1.04054
1.14775
1.25915
2.00382
3.33717
8.02163
11.5822
11.2098
10.9631
11.0421
11.2674
11.5039
11.6496
11.7604
11.8483
11.9166
1.00001
1.00003
1.0001
1.00022
1.00063
1.00128
1.00364
1.00717
1.02207
1.03947
1.14331
1.25137
1.96831
3.254
7.7889
11.5987
11.1996
10.9312
11.0095
11.2332
11.4669
11.61
11.7202
11.8074
11.8755
1.00001
1.00003
1.0001
1.00021
1.0006
1.00123
1.00349
1.00689
1.02109
1.03785
1.13661
1.23966
1.91486
3.12837
7.42842
11.6263
11.186
10.8794
10.9543
11.1725
11.4017
11.5398
11.6463
11.7311
11.8
1.00001
1.00003
1.00009
1.0002
1.00057
1.00117
1.00332
1.00665
1.01975
1.03682
1.12594
1.22707
1.84146
2.96443
6.9417
11.6561
11.1703
10.81
10.8787
11.0869
11.3105
11.4417
11.5425
11.6236
11.6937
1.00001
1.00003
1.00009
1.00019
1.00054
1.0011
1.00311
1.00626
1.01819
1.03531
1.11349
1.21186
1.75645
2.77232
6.34973
11.6603
11.1473
10.7253
10.7843
10.9755
11.1899
11.3097
11.3996
11.4729
11.5445
1.00001
1.00002
1.00008
1.00017
1.00049
1.00101
1.00284
1.00574
1.01656
1.03255
1.10165
1.19424
1.6685
2.56658
5.68261
11.5778
11.0875
10.6238
10.6707
10.8359
11.0341
11.1369
11.2082
11.2638
11.3289
1
1.00002
1.00007
1.00016
1.00045
1.00091
1.00258
1.00521
1.01502
1.02959
1.09179
1.17616
1.59973
2.40285
5.23402
11.2154
10.9198
10.5099
10.5379
10.6615
10.8342
10.9111
10.9506
10.9696
11.0084
1
1.00002
1.00006
1.00014
1.0004
1.00082
1.0023
1.00465
1.01343
1.02633
1.08277
1.1542
1.53991
2.24141
4.80119
10.5439
10.6131
10.4324
10.3964
10.4589
10.5873
10.6241
10.6115
10.5533
10.4939
1
1.00002
1.00005
1.00012
1.00033
1.00068
1.00194
1.00376
1.01175
1.02052
1.07521
1.12652
1.4866
2.07343
4.36074
9.69748
10.4524
10.3335
10.2222
10.2441
10.2958
10.2758
10.1805
9.95339
9.59273
1.00001
1.00003
1.00011
1.00023
1.00065
1.00133
1.0038
1.00746
1.02305
1.04111
1.14988
1.26317
2.01956
3.37601
8.12464
11.5742
11.2133
10.9741
11.0519
11.2759
11.5127
11.6583
11.7676
11.854
11.9207
1.00001
1.00003
1.0001
1.00023
1.00064
1.00131
1.00374
1.00736
1.02273
1.04054
1.14775
1.25915
2.00382
3.33717
8.02163
11.5822
11.2098
10.9631
11.0421
11.2674
11.5039
11.6496
11.7604
11.8483
11.9166
1.00001
1.00003
1.0001
1.00022
1.00063
1.00128
1.00364
1.00717
1.02207
1.03947
1.14331
1.25137
1.96831
3.254
7.7889
11.5987
11.1996
10.9312
11.0095
11.2332
11.4669
11.61
11.7202
11.8074
11.8755
1.00001
1.00003
1.0001
1.00021
1.0006
1.00123
1.00349
1.00689
1.02109
1.03785
1.13661
1.23966
1.91486
3.12837
7.42842
11.6263
11.186
10.8794
10.9543
11.1725
11.4017
11.5398
11.6463
11.7311
11.8
1.00001
1.00003
1.00009
1.0002
1.00057
1.00117
1.00332
1.00665
1.01975
1.03682
1.12594
1.22707
1.84146
2.96443
6.9417
11.6561
11.1703
10.81
10.8787
11.0869
11.3105
11.4417
11.5425
11.6236
11.6937
1.00001
1.00003
1.00009
1.00019
1.00054
1.0011
1.00311
1.00626
1.01819
1.03531
1.11349
1.21186
1.75645
2.77232
6.34973
11.6603
11.1473
10.7253
10.7843
10.9755
11.1899
11.3097
11.3996
11.4729
11.5445
1.00001
1.00002
1.00008
1.00017
1.00049
1.00101
1.00284
1.00574
1.01656
1.03255
1.10165
1.19424
1.6685
2.56658
5.6826
11.5778
11.0875
10.6238
10.6707
10.8359
11.0341
11.1369
11.2082
11.2638
11.3289
1
1.00002
1.00007
1.00016
1.00045
1.00091
1.00258
1.00521
1.01502
1.02959
1.09179
1.17616
1.59973
2.40285
5.23402
11.2154
10.9198
10.5099
10.5379
10.6615
10.8342
10.9111
10.9506
10.9696
11.0084
1
1.00002
1.00006
1.00014
1.0004
1.00082
1.0023
1.00465
1.01343
1.02633
1.08277
1.1542
1.53991
2.24141
4.80119
10.5439
10.6131
10.4324
10.3964
10.4589
10.5873
10.6241
10.6115
10.5533
10.4939
1
1.00002
1.00005
1.00012
1.00033
1.00068
1.00194
1.00376
1.01175
1.02052
1.07521
1.12652
1.4866
2.07343
4.36074
9.69748
10.4524
10.3335
10.2222
10.2441
10.2958
10.2758
10.1805
9.95339
9.59273
1.00001
1.00003
1.00011
1.00023
1.00065
1.00133
1.0038
1.00746
1.02305
1.04111
1.14988
1.26317
2.01956
3.37601
8.12464
11.5742
11.2133
10.9741
11.0519
11.2759
11.5127
11.6583
11.7676
11.854
11.9207
1.00001
1.00003
1.0001
1.00023
1.00064
1.00131
1.00374
1.00736
1.02273
1.04054
1.14775
1.25915
2.00382
3.33717
8.02163
11.5822
11.2098
10.9631
11.0421
11.2674
11.5039
11.6496
11.7604
11.8483
11.9166
1.00001
1.00003
1.0001
1.00022
1.00063
1.00128
1.00364
1.00717
1.02207
1.03947
1.14331
1.25137
1.96831
3.254
7.7889
11.5987
11.1996
10.9312
11.0095
11.2332
11.4669
11.61
11.7202
11.8074
11.8755
1.00001
1.00003
1.0001
1.00021
1.0006
1.00123
1.00349
1.00689
1.02109
1.03785
1.13661
1.23966
1.91486
3.12837
7.42842
11.6263
11.186
10.8794
10.9543
11.1725
11.4017
11.5398
11.6463
11.7311
11.8
1.00001
1.00003
1.00009
1.0002
1.00057
1.00117
1.00332
1.00665
1.01975
1.03682
1.12594
1.22707
1.84146
2.96443
6.9417
11.6561
11.1703
10.81
10.8787
11.0869
11.3105
11.4417
11.5425
11.6236
11.6937
1.00001
1.00003
1.00009
1.00019
1.00054
1.0011
1.00311
1.00626
1.01819
1.03531
1.11349
1.21186
1.75645
2.77232
6.34973
11.6603
11.1473
10.7253
10.7843
10.9755
11.1899
11.3097
11.3996
11.4729
11.5445
1.00001
1.00002
1.00008
1.00017
1.00049
1.00101
1.00284
1.00574
1.01656
1.03255
1.10165
1.19424
1.6685
2.56658
5.68261
11.5778
11.0875
10.6238
10.6707
10.8359
11.0341
11.1369
11.2082
11.2638
11.3289
1
1.00002
1.00007
1.00016
1.00045
1.00091
1.00258
1.00521
1.01502
1.02959
1.09179
1.17616
1.59973
2.40285
5.23402
11.2154
10.9198
10.5099
10.5379
10.6615
10.8342
10.9111
10.9506
10.9696
11.0084
1
1.00002
1.00006
1.00014
1.0004
1.00082
1.0023
1.00465
1.01343
1.02633
1.08277
1.1542
1.53991
2.24141
4.80119
10.5439
10.6131
10.4324
10.3964
10.4589
10.5873
10.6241
10.6115
10.5533
10.4939
1
1.00002
1.00005
1.00012
1.00033
1.00068
1.00194
1.00376
1.01175
1.02052
1.07521
1.12652
1.4866
2.07343
4.36074
9.69748
10.4524
10.3335
10.2222
10.2441
10.2958
10.2758
10.1805
9.95339
9.59273
1.00001
1.00003
1.00011
1.00023
1.00065
1.00133
1.0038
1.00746
1.02305
1.04111
1.14988
1.26317
2.01956
3.37601
8.12464
11.5742
11.2133
10.9741
11.0519
11.2759
11.5127
11.6583
11.7676
11.854
11.9207
1.00001
1.00003
1.0001
1.00023
1.00064
1.00131
1.00374
1.00736
1.02273
1.04054
1.14775
1.25915
2.00381
3.33717
8.02163
11.5822
11.2098
10.9631
11.0421
11.2674
11.5039
11.6496
11.7604
11.8483
11.9166
1.00001
1.00003
1.0001
1.00022
1.00063
1.00128
1.00364
1.00717
1.02207
1.03947
1.14331
1.25137
1.96831
3.254
7.7889
11.5987
11.1996
10.9312
11.0095
11.2332
11.4669
11.61
11.7202
11.8074
11.8755
1.00001
1.00003
1.0001
1.00021
1.0006
1.00123
1.00349
1.00689
1.02109
1.03785
1.13661
1.23966
1.91486
3.12837
7.42842
11.6263
11.186
10.8794
10.9543
11.1725
11.4017
11.5398
11.6463
11.7311
11.8
1.00001
1.00003
1.00009
1.0002
1.00057
1.00117
1.00332
1.00665
1.01975
1.03682
1.12594
1.22707
1.84146
2.96443
6.9417
11.6561
11.1703
10.81
10.8787
11.0869
11.3105
11.4417
11.5425
11.6236
11.6937
1.00001
1.00003
1.00009
1.00019
1.00054
1.0011
1.00311
1.00626
1.01819
1.03531
1.11349
1.21186
1.75645
2.77232
6.34973
11.6603
11.1473
10.7253
10.7843
10.9755
11.1899
11.3097
11.3996
11.4729
11.5445
1.00001
1.00002
1.00008
1.00017
1.00049
1.00101
1.00284
1.00574
1.01656
1.03255
1.10165
1.19424
1.6685
2.56658
5.6826
11.5778
11.0875
10.6238
10.6707
10.8359
11.0341
11.1369
11.2082
11.2638
11.3289
1
1.00002
1.00007
1.00016
1.00045
1.00091
1.00258
1.00521
1.01502
1.02959
1.09179
1.17616
1.59973
2.40285
5.23402
11.2154
10.9198
10.5099
10.5379
10.6615
10.8342
10.9111
10.9506
10.9696
11.0084
1
1.00002
1.00006
1.00014
1.0004
1.00082
1.0023
1.00465
1.01343
1.02633
1.08277
1.1542
1.53991
2.24141
4.80119
10.5439
10.6131
10.4324
10.3964
10.4589
10.5873
10.6241
10.6115
10.5533
10.4939
1
1.00002
1.00005
1.00012
1.00033
1.00068
1.00194
1.00376
1.01175
1.02052
1.07521
1.12652
1.4866
2.07343
4.36074
9.69748
10.4524
10.3335
10.2222
10.2441
10.2958
10.2758
10.1805
9.95339
9.59273
1.00001
1.00003
1.00011
1.00023
1.00065
1.00133
1.0038
1.00746
1.02305
1.04111
1.14988
1.26317
2.01955
3.376
8.12461
11.5742
11.2133
10.9741
11.0519
11.2759
11.5126
11.6583
11.7676
11.854
11.9207
1.00001
1.00003
1.0001
1.00023
1.00064
1.00131
1.00374
1.00736
1.02273
1.04054
1.14775
1.25915
2.00381
3.33716
8.0216
11.5823
11.2098
10.9631
11.0421
11.2674
11.5039
11.6496
11.7604
11.8483
11.9166
1.00001
1.00003
1.0001
1.00022
1.00063
1.00128
1.00364
1.00717
1.02207
1.03947
1.14331
1.25137
1.96831
3.25398
7.78886
11.5987
11.1996
10.9312
11.0095
11.2332
11.4669
11.61
11.7202
11.8074
11.8755
1.00001
1.00003
1.0001
1.00021
1.0006
1.00123
1.00349
1.00689
1.02109
1.03785
1.1366
1.23966
1.91485
3.12836
7.42839
11.6263
11.186
10.8794
10.9543
11.1725
11.4017
11.5398
11.6463
11.7311
11.8
1.00001
1.00003
1.00009
1.0002
1.00057
1.00117
1.00332
1.00665
1.01975
1.03682
1.12594
1.22707
1.84145
2.96442
6.94166
11.6561
11.1703
10.81
10.8787
11.0869
11.3105
11.4417
11.5425
11.6236
11.6937
1.00001
1.00003
1.00009
1.00019
1.00054
1.0011
1.00311
1.00626
1.01819
1.03531
1.11349
1.21186
1.75644
2.7723
6.34969
11.6603
11.1473
10.7253
10.7843
10.9755
11.1899
11.3097
11.3996
11.4729
11.5445
1.00001
1.00002
1.00008
1.00017
1.00049
1.00101
1.00284
1.00574
1.01656
1.03255
1.10165
1.19424
1.66849
2.56657
5.68257
11.5779
11.0875
10.6238
10.6707
10.8359
11.0341
11.1369
11.2082
11.2638
11.3289
1
1.00002
1.00007
1.00016
1.00045
1.00091
1.00258
1.00521
1.01502
1.02959
1.09179
1.17616
1.59973
2.40284
5.234
11.2154
10.9198
10.5099
10.5379
10.6615
10.8342
10.9111
10.9506
10.9696
11.0084
1
1.00002
1.00006
1.00014
1.0004
1.00082
1.0023
1.00465
1.01343
1.02632
1.08277
1.15419
1.5399
2.2414
4.80117
10.5438
10.6131
10.4324
10.3964
10.4589
10.5873
10.6241
10.6115
10.5533
10.4939
1
1.00002
1.00005
1.00012
1.00033
1.00068
1.00194
1.00376
1.01175
1.02052
1.07521
1.12652
1.4866
2.07343
4.36073
9.69746
10.4524
10.3334
10.2222
10.2441
10.2958
10.2758
10.1805
9.95339
9.59273
1.00001
1.00003
1.0001
1.00022
1.00065
1.00132
1.00379
1.00745
1.02304
1.04109
1.14986
1.26312
2.01948
3.37572
8.12405
11.5743
11.2133
10.974
11.0518
11.2759
11.5126
11.6582
11.7675
11.854
11.9206
1.00001
1.00003
1.0001
1.00022
1.00064
1.0013
1.00374
1.00735
1.02272
1.04052
1.14773
1.25909
2.00373
3.33688
8.02103
11.5824
11.2098
10.963
11.0421
11.2673
11.5038
11.6495
11.7603
11.8482
11.9165
1.00001
1.00003
1.0001
1.00021
1.00062
1.00127
1.00364
1.00716
1.02206
1.03945
1.14329
1.25131
1.96823
3.25371
7.7883
11.5988
11.1996
10.9311
11.0094
11.2332
11.4668
11.61
11.7202
11.8073
11.8755
1.00001
1.00003
1.00009
1.00021
1.00059
1.00122
1.00349
1.00688
1.02108
1.03783
1.13658
1.23961
1.91478
3.1281
7.42782
11.6264
11.186
10.8793
10.9542
11.1724
11.4016
11.5397
11.6462
11.731
11.8
1.00001
1.00003
1.00009
1.0002
1.00057
1.00116
1.00332
1.00663
1.01974
1.03679
1.12594
1.22699
1.84143
2.96419
6.94114
11.6562
11.1702
10.8099
10.8786
11.0869
11.3105
11.4417
11.5425
11.6236
11.6936
1.00001
1.00002
1.00008
1.00018
1.00053
1.00109
1.0031
1.00625
1.01818
1.03529
1.11347
1.21181
1.75639
2.7721
6.34921
11.6603
11.1473
10.7253
10.7843
10.9754
11.1898
11.3097
11.3995
11.4729
11.5444
1
1.00002
1.00008
1.00017
1.00049
1.001
1.00284
1.00573
1.01655
1.03254
1.10163
1.19419
1.66844
2.56638
5.6821
11.5779
11.0875
10.6238
10.6706
10.8358
11.034
11.1368
11.2081
11.2638
11.3289
1
1.00002
1.00007
1.00015
1.00044
1.00091
1.00257
1.0052
1.01501
1.02958
1.09177
1.17612
1.5997
2.40271
5.23376
11.2152
10.9198
10.5098
10.5378
10.6615
10.8342
10.911
10.9505
10.9695
11.0084
1
1.00002
1.00006
1.00013
1.00039
1.00081
1.0023
1.00464
1.01342
1.02631
1.08276
1.15415
1.53989
2.24128
4.80099
10.5435
10.613
10.4324
10.3963
10.4588
10.5872
10.624
10.6115
10.5532
10.4939
1
1.00001
1.00005
1.00011
1.00033
1.00067
1.00193
1.00375
1.01175
1.0205
1.0752
1.12648
1.48658
2.0733
4.36059
9.6971
10.4524
10.3334
10.2221
10.244
10.2958
10.2757
10.1805
9.95334
9.59269
1
1.00001
1.00004
1.00012
1.00025
1.00072
1.00147
1.00424
1.00829
1.02594
1.04605
1.16756
1.30149
2.13361
3.69917
8.70102
10.3536
10.2454
10.0439
10.0098
9.98263
9.8846
9.62084
9.01036
7.47322
1
1.00001
1.00003
1.0001
1.00022
1.00063
1.00128
1.00365
1.00719
1.0221
1.03951
1.143
1.25144
1.96054
3.2231
7.52211
10.2681
10.1492
9.8802
9.76396
9.67251
9.47509
9.05753
8.22438
6.62636
1
1.00001
1.00003
1.00009
1.00019
1.00054
1.00111
1.00314
1.00634
1.01849
1.03547
1.11601
1.2139
1.76895
2.78351
6.2562
10.1835
10.0547
9.73318
9.52066
9.36479
9.08598
8.57549
7.72073
6.41784
1
1.00001
1.00002
1.00007
1.00016
1.00045
1.00092
1.0026
1.00525
1.01508
1.02982
1.09108
1.17832
1.5862
2.36407
4.93802
9.93404
9.88365
9.6101
9.29529
9.07122
8.749
8.2213
7.43074
6.37571
1
1.00001
1.00002
1.00006
1.00012
1.00036
1.00074
1.00209
1.00422
1.01218
1.02378
1.07476
1.13862
1.47958
2.08781
4.25599
9.14678
9.59105
9.42647
9.08718
8.81032
8.46515
7.96285
7.25563
6.36774
1
1
1.00002
1.00004
1.00011
1.00024
1.00068
1.00138
1.00397
1.00769
1.02423
1.04238
1.15508
1.27356
2.04337
3.40371
7.73782
9.30477
9.20452
8.93334
8.59453
8.23006
7.75841
7.12719
6.36393
1
1
1.00001
1.00003
1.00009
1.00019
1.00056
1.00114
1.00323
1.00648
1.01909
1.03584
1.1203
1.21819
1.78877
2.81133
6.19273
9.12231
9.06091
8.82381
8.42634
8.0426
7.59253
7.02373
6.35496
0.999998
1
1.00001
1.00002
1.00007
1.00015
1.00043
1.00088
1.0025
1.00505
1.01448
1.02861
1.08727
1.17096
1.55591
2.2818
4.603
8.77684
8.91923
8.73593
8.3273
7.89624
7.45646
6.94119
6.34692
0.999996
0.999998
1
1.00002
1.00004
1.00013
1.00027
1.00077
1.00157
1.00447
1.00881
1.02675
1.04834
1.16976
1.30979
2.10545
3.594
7.86858
8.69912
8.56898
8.23481
7.77772
7.34317
6.87061
6.3379
0.999995
0.999996
0.999999
1.00001
1.00003
1.0001
1.0002
1.00058
1.00118
1.00335
1.00659
1.0201
1.03597
1.128
1.22491
1.83238
2.88027
6.26833
8.41954
8.36919
8.14899
7.69703
7.26029
6.81669
6.33226
0.999994
0.999994
0.999998
1
1.00002
1.00006
1.00017
1.00035
1.00099
1.00197
1.00586
1.0107
1.03634
1.06104
1.22535
1.44037
2.41034
4.48201
7.99973
8.22491
8.06965
7.68612
7.21319
6.77704
6.3284
0.999993
0.999993
0.999996
1
1.00001
1.00004
1.00012
1.00026
1.00073
1.00149
1.00422
1.00835
1.02513
1.0457
1.15859
1.28708
2.01567
3.32567
7.03857
8.02868
7.93351
7.65748
7.20113
6.75765
6.3294
0.999992
0.999993
0.999994
0.999998
1
1.00003
1.00007
1.00021
1.00043
1.00122
1.00238
1.00725
1.0128
1.04546
1.07477
1.28183
1.55547
2.7759
5.37778
7.71932
7.72964
7.58645
7.221
6.76056
6.33395
0.999992
0.999992
0.999993
0.999996
1
1.00002
1.00005
1.00015
1.00031
1.00088
1.0018
1.00505
1.01013
1.02939
1.05637
1.17823
1.35841
2.11691
3.59658
7.10954
7.61851
7.51324
7.22782
6.77838
6.34796
0.999991
0.999992
0.999992
0.999994
0.999999
1.00001
1.00004
1.00008
1.00025
1.00051
1.00144
1.0029
1.00826
1.01602
1.04986
1.08959
1.30913
1.63792
2.92111
5.67491
7.37608
7.36152
7.2067
6.83681
6.38068
0.999991
0.999991
0.999992
0.999993
0.999996
1
1.00002
1.00005
1.00017
1.00035
1.00097
1.00198
1.00554
1.01093
1.0326
1.05936
1.20043
1.38491
2.21637
3.85832
6.86832
7.25371
7.15437
6.88507
6.43768
0.999991
0.999991
0.999991
0.999992
0.999994
0.999999
1.00001
1.00004
1.00009
1.00027
1.00056
1.00156
1.00315
1.00888
1.01756
1.05233
1.0999
1.3161
1.70051
2.94117
5.68969
7.02924
7.01715
6.87312
6.53661
0.999991
0.999991
0.999991
0.999992
0.999993
0.999996
1
1.00002
1.00006
1.00018
1.00037
1.00102
1.00208
1.00578
1.01143
1.03387
1.06194
1.20663
1.40036
2.24156
3.90347
6.53481
6.90183
6.8192
6.58519
0.999991
0.999991
0.999991
0.999991
0.999992
0.999994
1
1.00001
1.00004
1.00009
1.00028
1.00057
1.00159
1.00321
1.00903
1.01792
1.05225
1.10438
1.31074
1.69598
2.87563
5.41672
6.66861
6.67477
6.56655
0.999991
0.99999
0.999991
0.999991
0.999991
0.999993
0.999995
1
1.00002
1.00007
1.00015
1.00042
1.00087
1.0024
1.00484
1.01357
1.02674
1.07931
1.15433
1.47448
2.05272
3.68737
6.15947
6.56237
6.50706
0.999991
0.99999
0.99999
0.999991
0.999991
0.999992
0.999994
0.999999
1.00001
1.00004
1.00009
1.00027
1.00055
1.00152
1.00308
1.00854
1.017
1.04885
1.09695
1.28746
1.63374
2.70951
5.01231
6.32032
6.38296
0.999991
0.99999
0.99999
0.99999
0.999991
0.999991
0.999993
0.999995
1
1.00002
1.00006
1.00014
1.00039
1.00079
1.00218
1.00441
1.01226
1.02428
1.07026
1.14033
1.41098
1.91257
3.26558
5.7811
6.272
0.999991
0.99999
0.99999
0.99999
0.99999
0.999991
0.999992
0.999993
0.999998
1.00001
1.00004
1.00008
1.00024
1.00049
1.00135
1.00274
1.00757
1.01492
1.04376
1.08145
1.25828
1.53005
2.50367
4.52622
5.9813
0.999991
0.99999
0.99999
0.99999
0.99999
0.999991
0.999991
0.999992
0.999995
1
1.00002
1.00005
1.00014
1.00029
1.00081
1.00165
1.0045
1.00903
1.02518
1.04982
1.14485
1.2973
1.84389
2.90755
5.32627
0.999991
0.99999
0.99999
0.99999
0.99999
0.99999
0.999991
0.999991
0.999993
0.999996
1.00001
1.00002
1.00008
1.00017
1.00049
1.001
1.00272
1.00548
1.0152
1.02984
1.08891
1.16765
1.53049
2.1408
3.88984
0.999991
0.99999
0.99999
0.99999
0.99999
0.99999
0.99999
0.999991
0.999992
0.999994
0.999999
1.00001
1.00004
1.00011
1.00024
1.00067
1.00136
1.00371
1.00739
1.02105
1.0394
1.1245
1.23032
1.71897
2.54964
0.999991
0.99999
0.99999
0.99999
0.99999
0.99999
0.99999
0.999991
0.999991
0.999992
0.999996
1
1.00002
1.00005
1.00016
1.00033
1.00091
1.00184
1.00503
1.00991
1.02876
1.05254
1.1685
1.31657
1.93479
0.999991
0.99999
0.99999
0.99999
0.99999
0.99999
0.99999
0.99999
0.999991
0.999992
0.999993
0.999998
1.00001
1.00003
1.00008
1.00022
1.00046
1.00125
1.00253
1.00696
1.01374
1.03961
1.07566
1.22721
1.47712
0.999991
0.99999
0.99999
0.99999
0.99999
0.99999
0.99999
0.99999
0.999991
0.999991
0.999992
0.999995
0.999999
1.00001
1.00004
1.00012
1.00026
1.00071
1.00145
1.00393
1.0079
1.02179
1.0427
1.12442
1.24562
0.999991
0.99999
0.99999
0.99999
0.99999
0.99999
0.99999
0.99999
0.99999
0.999991
0.999991
0.999992
0.999996
1
1.00002
1.00006
1.00016
1.00034
1.00093
1.00189
1.00511
1.01019
1.02859
1.05415
1.16349
0.999991
0.99999
0.99999
0.99999
0.99999
0.99999
0.99999
0.99999
0.99999
0.99999
0.999991
0.999992
0.999993
0.999998
1.00001
1.00003
1.00008
1.00022
1.00045
1.00124
1.0025
1.0068
1.01358
1.03762
1.07636
0.999991
0.99999
0.99999
0.99999
0.99999
0.99999
0.99999
0.99999
0.99999
0.99999
0.999991
0.999991
0.999992
0.999994
1
1.00001
1.00005
1.0001
1.00029
1.0006
1.00162
1.00326
1.00884
1.01776
1.04871
0.999991
0.99999
0.99999
0.99999
0.99999
0.99999
0.99999
0.99999
0.99999
0.99999
0.99999
0.999991
0.999991
0.999992
0.999996
1
1.00002
1.00005
1.00016
1.00034
1.00092
1.00186
1.005
1.01008
1.02725
0.999991
0.99999
0.99999
0.99999
0.99999
0.99999
0.99999
0.99999
0.99999
0.99999
0.99999
0.99999
0.999991
0.999992
0.999993
0.999999
1.00001
1.00004
1.00008
1.00024
1.00049
1.00134
1.00272
1.00743
1.01482
0.999991
0.99999
0.99999
0.99999
0.99999
0.99999
0.99999
0.99999
0.99999
0.99999
0.99999
0.99999
0.999991
0.999991
0.999993
0.999995
1
1.00002
1.00007
1.00015
1.00043
1.00088
1.00245
1.00494
1.01413
0.999991
0.99999
0.99999
0.99999
0.99999
0.99999
0.99999
0.99999
0.99999
0.99999
0.99999
0.99999
0.999991
0.999991
0.999992
0.999995
1
1.00002
1.00005
1.00015
1.00031
1.00088
1.00179
1.00515
1.01009
0.999991
0.99999
0.99999
0.99999
0.99999
0.99999
0.99999
0.99999
0.99999
0.99999
0.99999
0.99999
0.999991
0.999991
0.999992
0.999994
1
1.00001
1.00005
1.00011
1.00033
1.00068
1.00199
1.00388
1.01219
0.999991
0.99999
0.99999
0.99999
0.99999
0.99999
0.99999
0.99999
0.99999
0.99999
0.99999
0.99999
0.999991
0.999991
0.999992
0.999994
1
1.00001
1.00005
1.00011
1.00032
1.00066
1.00192
1.00372
1.01189
0.999991
0.99999
0.99999
0.99999
0.99999
0.99999
0.99999
0.99999
0.99999
0.99999
0.99999
0.99999
0.99999
0.999991
0.999992
0.999994
0.999999
1.00001
1.00004
1.00013
1.00028
1.00081
1.00164
1.00479
1.0094
0.999991
0.99999
0.99999
0.99999
0.99999
0.99999
0.99999
0.99999
0.99999
0.99999
0.99999
0.99999
0.99999
0.999991
0.999992
0.999995
0.999999
1.00002
1.00004
1.00013
1.00029
1.00083
1.00169
1.00487
1.00974
1
1.00002
1.00004
1.00012
1.00026
1.00073
1.00148
1.00425
1.0083
1.02595
1.04607
1.16759
1.30154
2.13366
3.69937
8.70139
10.3536
10.2455
10.044
10.0098
9.98268
9.88465
9.62089
9.0104
7.47325
1
1.00002
1.00004
1.00011
1.00022
1.00063
1.00129
1.00366
1.0072
1.02211
1.03953
1.14302
1.25149
1.96059
3.22329
7.5225
10.2681
10.1492
9.88025
9.76401
9.67256
9.47513
9.05757
8.22442
6.6264
1
1.00001
1.00003
1.00009
1.0002
1.00055
1.00112
1.00315
1.00635
1.0185
1.0355
1.11601
1.21397
1.76897
2.78368
6.25657
10.1836
10.0548
9.73322
9.5207
9.36483
9.08602
8.57553
7.72077
6.41788
1
1.00001
1.00003
1.00008
1.00016
1.00045
1.00093
1.00261
1.00526
1.01509
1.02983
1.09109
1.17835
1.58623
2.36418
4.93821
9.93422
9.88376
9.61014
9.29532
9.07125
8.74903
8.22133
7.43078
6.37574
1
1.00001
1.00002
1.00006
1.00013
1.00037
1.00075
1.0021
1.00423
1.01219
1.0238
1.07476
1.13867
1.47958
2.08792
4.25613
9.14711
9.59113
9.42653
9.0872
8.81035
8.46519
7.96288
7.25566
6.36777
1
1.00001
1.00002
1.00004
1.00012
1.00025
1.00069
1.00139
1.00398
1.00771
1.02424
1.0424
1.1551
1.2736
2.0434
3.40389
7.73814
9.30482
9.20455
8.93336
8.59456
8.23009
7.75844
7.12722
6.36396
1
1
1.00002
1.00003
1.0001
1.0002
1.00057
1.00115
1.00324
1.0065
1.0191
1.03587
1.1203
1.21826
1.78877
2.81149
6.19303
9.12234
9.06093
8.82382
8.42636
8.04263
7.59256
7.02376
6.35499
1
1
1.00001
1.00003
1.00008
1.00016
1.00044
1.00089
1.00251
1.00506
1.0145
1.02862
1.08729
1.171
1.55594
2.28194
4.60333
8.7769
8.91923
8.73594
8.32732
7.89627
7.45648
6.94122
6.34694
1
1
1.00001
1.00002
1.00005
1.00014
1.00028
1.00078
1.00158
1.00448
1.00882
1.02676
1.04836
1.16979
1.30984
2.10551
3.59416
7.86876
8.69915
8.56901
8.23483
7.77773
7.34319
6.87063