/*--------------------------------*- C++ -*----------------------------------*\
| =========                 |                                                 |
| \\      /  F ield         | OpenFOAM: The Open Source CFD Toolbox           |
|  \\    /   O peration     | Version:  4.1                                   |
|   \\  /    A nd           | Web:      www.OpenFOAM.org                      |
|    \\/     M anipulation  |                                                 |
\*---------------------------------------------------------------------------*/
FoamFile
{
    version     2.0;
    format      ascii;
    class       volScalarField;
    location    "0.26";
    object      T;
}
// * * * * * * * * * * * * * * * * * * * * * * * * * * * * * * * * * * * * * //

dimensions      [0 0 0 1 0 0 0];

internalField   nonuniform List<scalar> 
52500
(
1.00002
1.00008
1.0002
1.00044
1.00095
1.00206
1.0033
1.00637
1.01004
1.0179
1.02743
1.03853
1.06271
1.08693
1.11546
1.14311
1.19411
1.27998
1.47195
1.86154
2.42555
2.59779
2.68083
2.98362
2.91953
1.00002
1.00008
1.0002
1.00044
1.00095
1.00207
1.0033
1.00638
1.01005
1.01788
1.02743
1.03853
1.06262
1.0871
1.11529
1.14306
1.19328
1.27781
1.46752
1.84947
2.42041
2.59904
2.67826
2.97665
2.92051
1.00002
1.00008
1.0002
1.00045
1.00094
1.00209
1.00331
1.0064
1.01007
1.01778
1.02753
1.03852
1.06231
1.08774
1.11444
1.14353
1.19115
1.27336
1.45716
1.8249
2.4063
2.60131
2.6729
2.96086
2.92011
1.00002
1.00008
1.0002
1.00045
1.00094
1.0021
1.00331
1.00643
1.0101
1.01757
1.02778
1.03852
1.06184
1.08872
1.11294
1.1444
1.18791
1.267
1.4413
1.78856
2.3814
2.60544
2.66282
2.93282
2.91798
1.00002
1.00008
1.0002
1.00045
1.00094
1.00212
1.00331
1.00645
1.01021
1.01716
1.02822
1.0386
1.06175
1.08916
1.11134
1.14557
1.18419
1.25898
1.41922
1.74701
2.34349
2.61043
2.64692
2.89441
2.9137
1.00002
1.00008
1.0002
1.00045
1.00094
1.00211
1.00331
1.0064
1.01031
1.01684
1.02847
1.03871
1.06144
1.08951
1.11084
1.14583
1.18117
1.24999
1.39474
1.70426
2.27753
2.6173
2.63055
2.84215
2.90168
1.00002
1.00008
1.0002
1.00045
1.00094
1.00209
1.00331
1.00635
1.01031
1.01665
1.02862
1.03874
1.06089
1.09004
1.1107
1.14556
1.17892
1.2425
1.3675
1.65672
2.17462
2.62677
2.61558
2.77071
2.8761
1.00002
1.00008
1.0002
1.00044
1.00095
1.00207
1.0033
1.00613
1.01056
1.01652
1.0286
1.03883
1.06034
1.09082
1.1102
1.1457
1.17659
1.23361
1.33792
1.61256
2.01581
2.61657
2.599
2.68957
2.82817
1.00002
1.00008
1.0002
1.00044
1.00095
1.00204
1.00332
1.00585
1.01088
1.0167
1.02827
1.03904
1.05945
1.0917
1.11063
1.14358
1.17711
1.22186
1.30877
1.53141
1.87362
2.55973
2.57145
2.62416
2.76477
1.00002
1.00008
1.0002
1.00044
1.00095
1.00197
1.00345
1.00574
1.01101
1.01674
1.02803
1.03917
1.05912
1.09146
1.1119
1.14161
1.1767
1.21269
1.28444
1.4481
1.76018
2.43748
2.54066
2.54934
2.65675
1.00003
1.00008
1.00021
1.00045
1.00096
1.00207
1.00331
1.00638
1.01005
1.0179
1.02744
1.03853
1.06269
1.08693
1.11546
1.14313
1.1941
1.28
1.47197
1.86175
2.4257
2.59783
2.68089
2.98375
2.91962
1.00003
1.00008
1.00021
1.00045
1.00096
1.00208
1.00332
1.00639
1.01006
1.01789
1.02745
1.03854
1.06261
1.08709
1.11531
1.14305
1.19329
1.27783
1.46759
1.8496
2.42058
2.59905
2.6783
2.9768
2.9206
1.00003
1.00008
1.00021
1.00046
1.00095
1.0021
1.00332
1.0064
1.01007
1.01778
1.02756
1.03853
1.06227
1.08783
1.11436
1.14352
1.19104
1.27336
1.45719
1.82518
2.40611
2.60175
2.67331
2.96096
2.92024
1.00003
1.00008
1.00021
1.00046
1.00095
1.00211
1.00332
1.00644
1.0101
1.01758
1.02779
1.03853
1.06184
1.08873
1.11295
1.1444
1.18793
1.26702
1.44138
1.78863
2.38153
2.6055
2.66292
2.93282
2.91814
1.00003
1.00008
1.0002
1.00046
1.00095
1.00213
1.00332
1.00645
1.01021
1.01719
1.02821
1.0386
1.06176
1.08925
1.11132
1.1455
1.18419
1.25899
1.41931
1.7471
2.34332
2.61086
2.64765
2.8946
2.91386
1.00003
1.00008
1.00021
1.00046
1.00095
1.00212
1.00332
1.00641
1.01032
1.01685
1.02848
1.03872
1.06147
1.08947
1.11087
1.14592
1.18122
1.25003
1.39477
1.70442
2.27753
2.61748
2.6309
2.84235
2.90186
1.00003
1.00008
1.00021
1.00046
1.00095
1.00211
1.00332
1.00637
1.01032
1.01666
1.02863
1.03875
1.06092
1.09001
1.11072
1.14563
1.179
1.24252
1.36753
1.65659
2.17511
2.6267
2.61511
2.77043
2.87627
1.00003
1.00008
1.00021
1.00045
1.00096
1.00208
1.00331
1.00614
1.01057
1.01654
1.02861
1.03883
1.06038
1.09085
1.1102
1.14571
1.17664
1.23367
1.33798
1.61239
2.01612
2.61653
2.59876
2.68938
2.82834
1.00003
1.00008
1.00021
1.00045
1.00096
1.00205
1.00333
1.00586
1.01089
1.01671
1.02828
1.03905
1.05949
1.0917
1.11062
1.14365
1.17723
1.22185
1.30881
1.53142
1.87379
2.55986
2.57134
2.62432
2.765
1.00003
1.00008
1.00021
1.00045
1.00096
1.00199
1.00345
1.00575
1.01103
1.01674
1.02803
1.03918
1.05918
1.09145
1.11188
1.14172
1.17679
1.21273
1.28447
1.44811
1.76027
2.43776
2.54035
2.54887
2.65685
1.00003
1.00008
1.00021
1.00045
1.00096
1.00207
1.00331
1.00638
1.01005
1.0179
1.02744
1.03854
1.06271
1.08695
1.11545
1.14314
1.19411
1.28001
1.47197
1.8617
2.42561
2.5978
2.6809
2.98377
2.91965
1.00003
1.00008
1.00021
1.00045
1.00096
1.00208
1.00332
1.00639
1.01006
1.01789
1.02744
1.03853
1.06263
1.08711
1.11528
1.14307
1.19329
1.27784
1.46756
1.84958
2.42048
2.59905
2.67833
2.97682
2.92062
1.00003
1.00008
1.00021
1.00046
1.00096
1.0021
1.00332
1.0064
1.01007
1.01779
1.02754
1.03853
1.06232
1.08774
1.11444
1.14354
1.19117
1.27339
1.45722
1.82496
2.4064
2.6013
2.67296
2.96096
2.92027
1.00003
1.00008
1.00021
1.00046
1.00095
1.00212
1.00332
1.00644
1.0101
1.01758
1.02778
1.03853
1.06186
1.08873
1.11295
1.14441
1.18793
1.26703
1.44135
1.78863
2.38149
2.60544
2.66293
2.93288
2.91816
1.00003
1.00008
1.0002
1.00046
1.00095
1.00213
1.00332
1.00646
1.01021
1.01717
1.02822
1.03861
1.06178
1.08918
1.11134
1.14558
1.18422
1.25901
1.41928
1.747
2.34367
2.61042
2.6469
2.89441
2.91388
1.00003
1.00008
1.00021
1.00046
1.00095
1.00212
1.00332
1.00641
1.01031
1.01686
1.02847
1.03871
1.06146
1.08953
1.11084
1.14584
1.18119
1.25001
1.39479
1.70436
2.27756
2.61731
2.63092
2.84245
2.90188
1.00003
1.00008
1.00021
1.00046
1.00096
1.00211
1.00332
1.00637
1.01032
1.01666
1.02863
1.03875
1.06091
1.09001
1.11072
1.14563
1.17899
1.24252
1.36753
1.65668
2.17492
2.62676
2.61538
2.77056
2.87627
1.00003
1.00008
1.00021
1.00045
1.00096
1.00208
1.00331
1.00614
1.01058
1.01654
1.02861
1.03883
1.06037
1.09084
1.1102
1.1457
1.17663
1.23366
1.33799
1.61248
2.01608
2.61656
2.5989
2.68947
2.82835
1.00003
1.00008
1.00021
1.00045
1.00096
1.00205
1.00333
1.00586
1.01089
1.01671
1.02827
1.03905
1.05948
1.09169
1.11062
1.14365
1.17723
1.22184
1.30882
1.53144
1.8738
2.55984
2.57139
2.62426
2.76498
1.00003
1.00008
1.00021
1.00045
1.00096
1.00199
1.00345
1.00575
1.01103
1.01674
1.02803
1.03918
1.05917
1.09144
1.11188
1.14171
1.17678
1.21272
1.28447
1.44812
1.76028
2.43773
2.54034
2.54905
2.65689
1.00003
1.00008
1.00021
1.00045
1.00096
1.00207
1.00331
1.00638
1.01005
1.0179
1.02744
1.03853
1.06271
1.08695
1.11545
1.14315
1.19411
1.28001
1.47196
1.86167
2.4256
2.59778
2.68089
2.98378
2.91967
1.00003
1.00008
1.00021
1.00045
1.00096
1.00208
1.00332
1.00639
1.01006
1.01789
1.02744
1.03853
1.06263
1.08711
1.11528
1.14307
1.19329
1.27784
1.46756
1.84956
2.42047
2.59903
2.67833
2.97683
2.92064
1.00003
1.00008
1.00021
1.00046
1.00096
1.0021
1.00332
1.0064
1.01007
1.01779
1.02754
1.03853
1.06232
1.08774
1.11443
1.14354
1.19117
1.27339
1.45722
1.82496
2.40638
2.60128
2.67297
2.96098
2.92029
1.00003
1.00008
1.00021
1.00046
1.00095
1.00212
1.00332
1.00644
1.0101
1.01759
1.02778
1.03852
1.06187
1.08873
1.11294
1.1444
1.18794
1.26703
1.44139
1.78855
2.38149
2.60539
2.66286
2.93287
2.91817
1.00003
1.00008
1.0002
1.00046
1.00095
1.00213
1.00332
1.00646
1.01021
1.01718
1.02821
1.03861
1.0618
1.08918
1.11133
1.14558
1.18422
1.25902
1.41927
1.7471
2.34344
2.6105
2.64719
2.89453
2.9139
1.00003
1.00008
1.00021
1.00046
1.00095
1.00212
1.00332
1.00641
1.01032
1.01685
1.02846
1.03871
1.06149
1.08947
1.11085
1.14592
1.18123
1.25004
1.39477
1.7043
2.2777
2.61718
2.63059
2.84233
2.90191
1.00003
1.00008
1.00021
1.00046
1.00095
1.00211
1.00332
1.00637
1.01032
1.01666
1.02862
1.03875
1.06093
1.09002
1.11071
1.14563
1.17901
1.24253
1.36753
1.65653
2.17512
2.62654
2.61502
2.77047
2.87631
1.00003
1.00008
1.00021
1.00045
1.00096
1.00208
1.00331
1.00613
1.01057
1.01654
1.02861
1.03883
1.06038
1.09085
1.11019
1.1457
1.17664
1.23368
1.33798
1.61239
2.01609
2.61642
2.59876
2.68941
2.82838
1.00003
1.00008
1.00021
1.00045
1.00096
1.00205
1.00333
1.00586
1.01089
1.01671
1.02827
1.03904
1.05949
1.0917
1.11062
1.14365
1.17723
1.22185
1.30882
1.53143
1.87376
2.55979
2.57136
2.62434
2.76504
1.00003
1.00008
1.00021
1.00045
1.00096
1.00199
1.00345
1.00575
1.01103
1.01674
1.02803
1.03918
1.05918
1.09145
1.11187
1.14172
1.17679
1.21274
1.28448
1.44811
1.76024
2.43771
2.54035
2.54889
2.65688
1.00003
1.00008
1.00021
1.00045
1.00096
1.00207
1.00331
1.00638
1.01005
1.0179
1.02744
1.03853
1.06271
1.08693
1.1155
1.14312
1.19413
1.28
1.47201
1.86162
2.4256
2.59783
2.68092
2.98377
2.91966
1.00003
1.00008
1.00021
1.00045
1.00096
1.00208
1.00332
1.00639
1.01006
1.01789
1.02744
1.03853
1.06263
1.08711
1.11532
1.14306
1.1933
1.27784
1.46758
1.84954
2.42045
2.59908
2.67836
2.97679
2.92064
1.00003
1.00008
1.00021
1.00046
1.00096
1.0021
1.00332
1.0064
1.01007
1.01779
1.02754
1.03853
1.06233
1.08775
1.11444
1.14354
1.19117
1.27339
1.4572
1.82499
2.40637
2.60131
2.67298
2.96099
2.92024
1.00003
1.00008
1.00021
1.00046
1.00095
1.00212
1.00332
1.00644
1.0101
1.01759
1.02778
1.03853
1.06187
1.08873
1.11295
1.14441
1.18794
1.26703
1.44138
1.78856
2.3815
2.60541
2.66284
2.93301
2.9181
1.00003
1.00008
1.00021
1.00046
1.00095
1.00213
1.00332
1.00646
1.01022
1.01717
1.02821
1.03861
1.0618
1.08918
1.11135
1.14559
1.18422
1.25901
1.41926
1.74711
2.34343
2.61052
2.64718
2.89465
2.91383
1.00003
1.00008
1.00021
1.00046
1.00095
1.00213
1.00332
1.00641
1.01033
1.01685
1.02846
1.03872
1.06149
1.08948
1.11087
1.14593
1.18123
1.25004
1.39476
1.70432
2.27765
2.6172
2.63061
2.84237
2.90185
1.00003
1.00008
1.00021
1.00046
1.00095
1.00211
1.00332
1.00637
1.01033
1.01666
1.02863
1.03875
1.06093
1.09002
1.11073
1.14564
1.17901
1.24252
1.36752
1.65653
2.17509
2.62655
2.61506
2.77051
2.87627
1.00003
1.00008
1.00021
1.00045
1.00096
1.00208
1.00331
1.00613
1.01058
1.01655
1.02861
1.03883
1.06039
1.09085
1.1102
1.14571
1.17664
1.23367
1.33797
1.61239
2.01608
2.61643
2.59878
2.68942
2.82835
1.00003
1.00008
1.00021
1.00045
1.00096
1.00205
1.00333
1.00586
1.01089
1.01671
1.02828
1.03905
1.05949
1.09171
1.11063
1.14366
1.17723
1.22184
1.30881
1.53141
1.87376
2.55981
2.57137
2.62434
2.76501
1.00003
1.00008
1.00021
1.00045
1.00096
1.00199
1.00345
1.00575
1.01103
1.01674
1.02803
1.03918
1.05918
1.09146
1.11189
1.14172
1.17678
1.21273
1.28447
1.4481
1.76025
2.43772
2.54037
2.54891
2.65686
1.00003
1.00008
1.00021
1.00045
1.00096
1.00207
1.00331
1.00638
1.01005
1.0179
1.02744
1.03853
1.06271
1.08695
1.11544
1.14315
1.19411
1.28001
1.47197
1.86168
2.4256
2.59779
2.6809
2.98378
2.91968
1.00003
1.00008
1.00021
1.00045
1.00096
1.00208
1.00332
1.00639
1.01006
1.01789
1.02744
1.03853
1.06263
1.08711
1.11528
1.14307
1.19329
1.27784
1.46757
1.84957
2.42047
2.59904
2.67833
2.97683
2.92065
1.00003
1.00008
1.00021
1.00046
1.00096
1.0021
1.00332
1.0064
1.01007
1.01779
1.02754
1.03853
1.06233
1.08774
1.11443
1.14354
1.19117
1.2734
1.45722
1.82496
2.40637
2.60128
2.67297
2.96098
2.92029
1.00003
1.00008
1.00021
1.00046
1.00095
1.00212
1.00332
1.00644
1.0101
1.01759
1.02778
1.03852
1.06187
1.08873
1.11294
1.14441
1.18794
1.26704
1.44138
1.78855
2.38147
2.60539
2.66286
2.93287
2.91818
1.00003
1.00008
1.0002
1.00046
1.00095
1.00213
1.00332
1.00646
1.01021
1.01718
1.02821
1.03861
1.0618
1.08918
1.11134
1.14558
1.18423
1.25902
1.41927
1.74709
2.34343
2.61049
2.64719
2.89453
2.9139
1.00003
1.00008
1.00021
1.00046
1.00095
1.00212
1.00332
1.00641
1.01032
1.01685
1.02847
1.03871
1.06149
1.08947
1.11086
1.14592
1.18123
1.25004
1.39477
1.70429
2.27768
2.61717
2.63059
2.84233
2.9019
1.00003
1.00008
1.00021
1.00046
1.00095
1.00211
1.00332
1.00637
1.01032
1.01666
1.02862
1.03875
1.06093
1.09002
1.11072
1.14563
1.17901
1.24253
1.36753
1.65652
2.17512
2.62654
2.61502
2.77047
2.87631
1.00003
1.00008
1.00021
1.00045
1.00096
1.00208
1.00331
1.00613
1.01057
1.01654
1.02861
1.03883
1.06039
1.09085
1.11019
1.1457
1.17664
1.23367
1.33798
1.61238
2.01609
2.61642
2.59875
2.68941
2.82838
1.00003
1.00008
1.00021
1.00045
1.00096
1.00205
1.00333
1.00586
1.01089
1.01671
1.02827
1.03904
1.05949
1.0917
1.11062
1.14365
1.17723
1.22185
1.30881
1.53142
1.87376
2.5598
2.57136
2.62434
2.76503
1.00003
1.00008
1.00021
1.00045
1.00096
1.00199
1.00345
1.00575
1.01103
1.01674
1.02803
1.03918
1.05918
1.09145
1.11187
1.14171
1.17679
1.21273
1.28447
1.44811
1.76025
2.43772
2.54034
2.54889
2.65687
1.00003
1.00008
1.00021
1.00045
1.00096
1.00207
1.00331
1.00638
1.01005
1.0179
1.02744
1.03853
1.06271
1.08695
1.11545
1.14314
1.19411
1.28001
1.47197
1.86167
2.4256
2.59778
2.68089
2.98378
2.91967
1.00003
1.00008
1.00021
1.00045
1.00096
1.00208
1.00332
1.00639
1.01006
1.01789
1.02744
1.03853
1.06263
1.08711
1.11528
1.14307
1.19329
1.27784
1.46756
1.84956
2.42047
2.59903
2.67833
2.97683
2.92064
1.00003
1.00008
1.00021
1.00046
1.00096
1.0021
1.00332
1.0064
1.01007
1.01779
1.02754
1.03853
1.06232
1.08774
1.11443
1.14353
1.19117
1.27339
1.45722
1.82496
2.40638
2.60127
2.67297
2.96098
2.92029
1.00003
1.00008
1.00021
1.00046
1.00095
1.00212
1.00332
1.00644
1.0101
1.01759
1.02778
1.03852
1.06187
1.08873
1.11294
1.1444
1.18794
1.26703
1.44139
1.78855
2.38149
2.60539
2.66286
2.93287
2.91817
1.00003
1.00008
1.0002
1.00046
1.00095
1.00213
1.00332
1.00646
1.01021
1.01718
1.02821
1.03861
1.0618
1.08918
1.11133
1.14558
1.18422
1.25902
1.41927
1.7471
2.34344
2.6105
2.64719
2.89453
2.9139
1.00003
1.00008
1.00021
1.00046
1.00095
1.00212
1.00332
1.00641
1.01032
1.01685
1.02846
1.03871
1.06149
1.08947
1.11085
1.14592
1.18123
1.25004
1.39477
1.7043
2.2777
2.61718
2.63059
2.84233
2.90191
1.00003
1.00008
1.00021
1.00046
1.00095
1.00211
1.00332
1.00637
1.01032
1.01666
1.02862
1.03875
1.06093
1.09002
1.11071
1.14563
1.17901
1.24253
1.36753
1.65653
2.17512
2.62654
2.61502
2.77047
2.87631
1.00003
1.00008
1.00021
1.00045
1.00096
1.00208
1.00331
1.00613
1.01057
1.01654
1.02861
1.03883
1.06038
1.09085
1.11019
1.1457
1.17664
1.23368
1.33798
1.61239
2.01609
2.61642
2.59876
2.68941
2.82838
1.00003
1.00008
1.00021
1.00045
1.00096
1.00205
1.00333
1.00586
1.01089
1.01671
1.02827
1.03904
1.05949
1.0917
1.11062
1.14365
1.17723
1.22185
1.30882
1.53143
1.87376
2.55979
2.57136
2.62434
2.76504
1.00003
1.00008
1.00021
1.00045
1.00096
1.00199
1.00345
1.00575
1.01103
1.01674
1.02803
1.03918
1.05918
1.09145
1.11187
1.14172
1.17679
1.21274
1.28448
1.44811
1.76024
2.43771
2.54035
2.54889
2.65688
1.00003
1.00008
1.00021
1.00045
1.00096
1.00207
1.00331
1.00638
1.01005
1.0179
1.02744
1.03854
1.06271
1.08695
1.11545
1.14314
1.19411
1.28001
1.47197
1.8617
2.42561
2.5978
2.6809
2.98377
2.91965
1.00003
1.00008
1.00021
1.00045
1.00096
1.00208
1.00332
1.00639
1.01006
1.01789
1.02744
1.03853
1.06263
1.08711
1.11528
1.14307
1.19329
1.27784
1.46756
1.84958
2.42048
2.59905
2.67833
2.97682
2.92062
1.00003
1.00008
1.00021
1.00046
1.00096
1.0021
1.00332
1.0064
1.01007
1.01779
1.02754
1.03853
1.06232
1.08774
1.11444
1.14354
1.19117
1.27339
1.45722
1.82496
2.4064
2.6013
2.67296
2.96096
2.92027
1.00003
1.00008
1.00021
1.00046
1.00095
1.00212
1.00332
1.00644
1.0101
1.01758
1.02778
1.03853
1.06186
1.08873
1.11295
1.14441
1.18793
1.26703
1.44135
1.78863
2.38149
2.60544
2.66293
2.93288
2.91816
1.00003
1.00008
1.0002
1.00046
1.00095
1.00213
1.00332
1.00646
1.01021
1.01717
1.02822
1.03861
1.06178
1.08918
1.11134
1.14558
1.18422
1.25901
1.41928
1.747
2.34367
2.61042
2.6469
2.89441
2.91388
1.00003
1.00008
1.00021
1.00046
1.00095
1.00212
1.00332
1.00641
1.01031
1.01686
1.02847
1.03871
1.06146
1.08953
1.11084
1.14584
1.18119
1.25001
1.39479
1.70436
2.27756
2.61731
2.63092
2.84245
2.90188
1.00003
1.00008
1.00021
1.00046
1.00096
1.00211
1.00332
1.00637
1.01032
1.01666
1.02863
1.03875
1.06091
1.09001
1.11072
1.14563
1.17899
1.24252
1.36753
1.65668
2.17492
2.62676
2.61538
2.77056
2.87627
1.00003
1.00008
1.00021
1.00045
1.00096
1.00208
1.00331
1.00614
1.01058
1.01654
1.02861
1.03883
1.06037
1.09084
1.1102
1.1457
1.17663
1.23366
1.33799
1.61248
2.01608
2.61656
2.5989
2.68947
2.82835
1.00003
1.00008
1.00021
1.00045
1.00096
1.00205
1.00333
1.00586
1.01089
1.01671
1.02827
1.03905
1.05948
1.09169
1.11062
1.14365
1.17723
1.22184
1.30882
1.53144
1.8738
2.55984
2.57139
2.62426
2.76498
1.00003
1.00008
1.00021
1.00045
1.00096
1.00199
1.00345
1.00575
1.01103
1.01674
1.02803
1.03918
1.05917
1.09144
1.11188
1.14171
1.17678
1.21272
1.28447
1.44812
1.76028
2.43773
2.54034
2.54905
2.65689
1.00003
1.00008
1.00021
1.00045
1.00096
1.00207
1.00331
1.00638
1.01005
1.0179
1.02744
1.03853
1.06269
1.08693
1.11546
1.14313
1.1941
1.28
1.47197
1.86175
2.4257
2.59783
2.68089
2.98375
2.91962
1.00003
1.00008
1.00021
1.00045
1.00096
1.00208
1.00332
1.00639
1.01006
1.01789
1.02745
1.03854
1.06261
1.08709
1.11531
1.14305
1.19329
1.27783
1.46759
1.8496
2.42058
2.59905
2.6783
2.9768
2.9206
1.00003
1.00008
1.00021
1.00046
1.00095
1.0021
1.00332
1.0064
1.01007
1.01778
1.02756
1.03853
1.06227
1.08783
1.11436
1.14352
1.19104
1.27336
1.45719
1.82518
2.40611
2.60175
2.67331
2.96096
2.92024
1.00003
1.00008
1.00021
1.00046
1.00095
1.00211
1.00332
1.00644
1.0101
1.01758
1.02779
1.03853
1.06184
1.08873
1.11295
1.1444
1.18793
1.26702
1.44138
1.78863
2.38153
2.6055
2.66292
2.93282
2.91814
1.00003
1.00008
1.0002
1.00046
1.00095
1.00213
1.00332
1.00645
1.01021
1.01719
1.02821
1.0386
1.06176
1.08925
1.11132
1.1455
1.18419
1.25899
1.41931
1.7471
2.34332
2.61086
2.64765
2.8946
2.91386
1.00003
1.00008
1.00021
1.00046
1.00095
1.00212
1.00332
1.00641
1.01032
1.01685
1.02848
1.03872
1.06147
1.08947
1.11087
1.14592
1.18122
1.25003
1.39477
1.70442
2.27753
2.61748
2.6309
2.84235
2.90186
1.00003
1.00008
1.00021
1.00046
1.00095
1.00211
1.00332
1.00637
1.01032
1.01666
1.02863
1.03875
1.06092
1.09001
1.11072
1.14563
1.179
1.24252
1.36753
1.65659
2.17511
2.6267
2.61511
2.77043
2.87627
1.00003
1.00008
1.00021
1.00045
1.00096
1.00208
1.00331
1.00614
1.01057
1.01654
1.02861
1.03883
1.06038
1.09085
1.1102
1.14571
1.17664
1.23367
1.33798
1.61239
2.01612
2.61653
2.59876
2.68938
2.82834
1.00003
1.00008
1.00021
1.00045
1.00096
1.00205
1.00333
1.00586
1.01089
1.01671
1.02828
1.03905
1.05949
1.0917
1.11062
1.14365
1.17723
1.22185
1.30881
1.53142
1.87379
2.55986
2.57134
2.62432
2.765
1.00003
1.00008
1.00021
1.00045
1.00096
1.00199
1.00345
1.00575
1.01103
1.01674
1.02803
1.03918
1.05918
1.09145
1.11188
1.14172
1.17679
1.21273
1.28447
1.44811
1.76027
2.43776
2.54035
2.54887
2.65685
1.00002
1.00008
1.0002
1.00044
1.00095
1.00206
1.0033
1.00638
1.01004
1.0179
1.02743
1.03853
1.0627
1.08692
1.11547
1.14311
1.19411
1.27997
1.47193
1.86155
2.42556
2.59779
2.68081
2.98373
2.91942
1.00002
1.00008
1.0002
1.00044
1.00095
1.00207
1.0033
1.00638
1.01005
1.01788
1.02743
1.03853
1.06261
1.08709
1.11532
1.14304
1.19328
1.2778
1.46753
1.84947
2.42041
2.59907
2.67826
2.97666
2.92042
1.00002
1.00008
1.0002
1.00045
1.00094
1.00209
1.00331
1.0064
1.01007
1.01778
1.02754
1.03852
1.0623
1.08773
1.11444
1.14352
1.19115
1.27336
1.45717
1.82487
2.40642
2.6012
2.67278
2.96077
2.92007
1.00002
1.00008
1.0002
1.00045
1.00094
1.0021
1.00331
1.00643
1.01009
1.01758
1.02778
1.03851
1.06183
1.08878
1.11293
1.14432
1.18787
1.26697
1.4414
1.78851
2.3811
2.60579
2.6632
2.93282
2.91795
1.00002
1.00008
1.0002
1.00045
1.00094
1.00212
1.00331
1.00646
1.01021
1.01715
1.02821
1.0386
1.06177
1.08917
1.11134
1.14557
1.18419
1.25897
1.41922
1.74718
2.34316
2.61087
2.64743
2.89445
2.91366
1.00002
1.00008
1.0002
1.00045
1.00094
1.00212
1.00331
1.00642
1.01034
1.0168
1.02846
1.03871
1.06145
1.08945
1.11086
1.1459
1.18118
1.24998
1.39471
1.70431
2.27769
2.61736
2.63039
2.84213
2.90167
1.00002
1.00008
1.0002
1.00045
1.00094
1.0021
1.00331
1.00635
1.01032
1.01664
1.02862
1.03874
1.0609
1.09004
1.1107
1.14555
1.17893
1.24249
1.3675
1.65656
2.17497
2.62673
2.61494
2.77025
2.87607
1.00002
1.00008
1.0002
1.00044
1.00095
1.00206
1.0033
1.00611
1.01058
1.01654
1.0286
1.03882
1.06033
1.09088
1.11019
1.14561
1.17654
1.23363
1.33795
1.61261
2.01562
2.61655
2.59924
2.68967
2.82818
1.00002
1.00008
1.0002
1.00044
1.00095
1.00204
1.00332
1.00585
1.01088
1.01669
1.02826
1.03906
1.05944
1.09166
1.11064
1.14364
1.17718
1.2218
1.30876
1.53139
1.87374
2.55974
2.57165
2.62463
2.76485
1.00002
1.00008
1.0002
1.00044
1.00095
1.00197
1.00345
1.00574
1.011
1.01674
1.02803
1.03917
1.05911
1.09146
1.11192
1.1416
1.17669
1.21268
1.28444
1.44811
1.76021
2.43758
2.54066
2.54933
2.65679
1.00002
1.00008
1.0002
1.00045
1.00097
1.0019
1.0035
1.00576
1.01088
1.01693
1.02762
1.03967
1.05891
1.09099
1.11311
1.13969
1.17763
1.20607
1.26174
1.38786
1.64584
2.28785
2.45467
2.43652
2.36742
1.00002
1.00008
1.0002
1.00045
1.001
1.00186
1.00354
1.00576
1.01064
1.01741
1.02708
1.04003
1.05908
1.09026
1.11421
1.1383
1.1773
1.20306
1.243
1.33278
1.52987
2.02971
2.3173
2.33386
2.21448
1.00002
1.00008
1.0002
1.00045
1.001
1.00188
1.00347
1.00594
1.01011
1.01822
1.02644
1.0402
1.0595
1.08929
1.115
1.13828
1.1755
1.20196
1.22775
1.28357
1.4123
1.71476
2.10997
2.26024
2.13652
1.00002
1.00008
1.0002
1.00045
1.00099
1.00192
1.00338
1.0061
1.01003
1.01818
1.02671
1.03978
1.06024
1.08835
1.11535
1.13882
1.1735
1.20272
1.22021
1.25634
1.33492
1.54544
1.8645
2.1465
2.10604
1.00002
1.00008
1.0002
1.00045
1.00099
1.00191
1.00339
1.00607
1.01003
1.01797
1.02732
1.03878
1.06104
1.08806
1.11509
1.13963
1.172
1.20244
1.21709
1.23646
1.28123
1.39728
1.61999
1.95906
2.03884
1.00002
1.00008
1.0002
1.00045
1.00099
1.0019
1.00342
1.00602
1.0101
1.01782
1.02755
1.0386
1.061
1.08842
1.11436
1.14054
1.17125
1.20162
1.21723
1.22762
1.25356
1.30919
1.47709
1.68176
1.90047
1.00002
1.00008
1.0002
1.00045
1.00099
1.0019
1.00342
1.00604
1.01004
1.01796
1.02726
1.03905
1.06033
1.08926
1.11358
1.14096
1.17129
1.20072
1.21708
1.22401
1.2377
1.26816
1.33232
1.50515
1.65333
1.00002
1.00008
1.0002
1.00045
1.00099
1.0019
1.00342
1.00604
1.01005
1.01794
1.02732
1.03892
1.06056
1.08885
1.11423
1.14007
1.17221
1.19987
1.21692
1.22303
1.23174
1.25031
1.28258
1.34843
1.49516
1.00002
1.00008
1.0002
1.00045
1.00099
1.0019
1.00341
1.00604
1.01005
1.01793
1.02734
1.0389
1.06059
1.08884
1.1142
1.1402
1.17185
1.20043
1.21598
1.22299
1.22938
1.2441
1.26218
1.28964
1.34758
1.00002
1.00008
1.0002
1.00045
1.00099
1.0019
1.00341
1.00604
1.01005
1.01793
1.02734
1.03889
1.0606
1.08883
1.11421
1.14018
1.17183
1.20043
1.21604
1.22221
1.22919
1.24088
1.25599
1.2675
1.28745
1.00002
1.00008
1.0002
1.00045
1.00099
1.0019
1.00341
1.00604
1.01005
1.01793
1.02734
1.03889
1.0606
1.0888
1.11418
1.14029
1.17186
1.2004
1.21594
1.22208
1.22896
1.24065
1.25259
1.26084
1.266
1.00002
1.00008
1.0002
1.00045
1.00099
1.0019
1.00341
1.00604
1.01005
1.01793
1.02734
1.03888
1.0606
1.08885
1.11418
1.14022
1.17177
1.20046
1.21604
1.22194
1.22869
1.24019
1.25152
1.25746
1.25915
1.00002
1.00008
1.0002
1.00045
1.00099
1.0019
1.00341
1.00604
1.01005
1.01793
1.02735
1.03888
1.0606
1.08885
1.11418
1.14022
1.17176
1.20046
1.21606
1.22188
1.22865
1.24013
1.25116
1.25617
1.25633
1.00002
1.00008
1.0002
1.00045
1.00099
1.0019
1.00341
1.00604
1.01006
1.01793
1.02734
1.03889
1.06061
1.08881
1.11416
1.14033
1.17182
1.2004
1.21598
1.22189
1.22878
1.24036
1.25112
1.2556
1.25541
1.00002
1.00008
1.0002
1.00045
1.00099
1.0019
1.00341
1.00604
1.01005
1.01793
1.02734
1.03889
1.0606
1.08885
1.11418
1.14024
1.17175
1.20043
1.21606
1.22187
1.2286
1.24015
1.25098
1.25544
1.25524
1.00002
1.00008
1.0002
1.00045
1.00099
1.0019
1.00341
1.00604
1.01005
1.01793
1.02734
1.03889
1.0606
1.08885
1.11419
1.14024
1.17175
1.20044
1.21607
1.22188
1.2286
1.24015
1.25097
1.25539
1.25517
1.00002
1.00008
1.0002
1.00045
1.00099
1.0019
1.00341
1.00604
1.01005
1.01793
1.02734
1.03889
1.06059
1.08884
1.11419
1.14024
1.17175
1.20044
1.21608
1.22188
1.2286
1.24015
1.25098
1.25538
1.25515
1.00002
1.00008
1.0002
1.00045
1.00099
1.0019
1.00341
1.00604
1.01005
1.01793
1.02734
1.03888
1.06059
1.08885
1.11418
1.14024
1.17176
1.20044
1.21608
1.22188
1.22861
1.24016
1.25098
1.25538
1.25514
1.00002
1.00008
1.0002
1.00045
1.00099
1.0019
1.00341
1.00604
1.01006
1.01792
1.02734
1.03889
1.06061
1.08881
1.11417
1.14033
1.17183
1.20041
1.21599
1.2219
1.22878
1.24037
1.25109
1.25533
1.25504
1.00002
1.00008
1.0002
1.00045
1.00099
1.0019
1.00341
1.00604
1.01005
1.01793
1.02734
1.03889
1.06059
1.08885
1.11418
1.14023
1.17175
1.20044
1.21607
1.22188
1.22861
1.24016
1.25098
1.25538
1.25514
1.00002
1.00008
1.0002
1.00045
1.00099
1.0019
1.00341
1.00604
1.01005
1.01793
1.02734
1.03889
1.0606
1.08884
1.11418
1.14024
1.17175
1.20043
1.21607
1.22188
1.2286
1.24015
1.25098
1.25538
1.25515
1.00002
1.00008
1.0002
1.00045
1.00099
1.0019
1.00341
1.00604
1.01005
1.01793
1.02734
1.03889
1.06059
1.08884
1.11419
1.14024
1.17174
1.20042
1.21608
1.22189
1.22862
1.24016
1.25099
1.25539
1.25515
1.00002
1.00008
1.0002
1.00045
1.00099
1.0019
1.00341
1.00604
1.01005
1.01793
1.02734
1.03889
1.06059
1.08884
1.11418
1.14024
1.17175
1.20043
1.21607
1.22188
1.2286
1.24015
1.25098
1.25538
1.25515
1.00002
1.00008
1.0002
1.00045
1.00099
1.0019
1.00341
1.00604
1.01005
1.01793
1.02734
1.03889
1.06059
1.08884
1.11418
1.14023
1.17175
1.20043
1.21607
1.22188
1.22861
1.24016
1.25098
1.25538
1.25514
1.00002
1.00008
1.0002
1.00045
1.00099
1.0019
1.00341
1.00604
1.01006
1.01793
1.02734
1.03889
1.06061
1.08881
1.11416
1.14033
1.17182
1.2004
1.21599
1.2219
1.22878
1.24037
1.25109
1.25534
1.25504
1.00002
1.00008
1.0002
1.00045
1.00099
1.0019
1.00341
1.00604
1.01005
1.01793
1.02734
1.03889
1.06059
1.08884
1.11418
1.14023
1.17175
1.20044
1.21607
1.22188
1.22861
1.24016
1.25098
1.25537
1.25514
1.00002
1.00008
1.0002
1.00045
1.00099
1.0019
1.00341
1.00604
1.01005
1.01793
1.02734
1.03889
1.06059
1.08884
1.11418
1.14024
1.17175
1.20044
1.21608
1.22189
1.22861
1.24016
1.25098
1.25539
1.25515
1.00002
1.00008
1.0002
1.00045
1.00099
1.0019
1.00341
1.00604
1.01005
1.01793
1.02734
1.03889
1.06059
1.08884
1.11419
1.14024
1.17174
1.20043
1.21608
1.22189
1.22861
1.24016
1.25099
1.25538
1.25515
1.00002
1.00008
1.0002
1.00045
1.00099
1.0019
1.00341
1.00604
1.01005
1.01793
1.02734
1.03889
1.06059
1.08884
1.11418
1.14024
1.17175
1.20044
1.21607
1.22188
1.2286
1.24015
1.25098
1.25538
1.25515
1.00002
1.00008
1.0002
1.00045
1.00099
1.0019
1.00341
1.00604
1.01005
1.01793
1.02734
1.03888
1.06059
1.08885
1.11418
1.14023
1.17175
1.20044
1.21607
1.22188
1.22861
1.24016
1.25098
1.25538
1.25515
1.00002
1.00008
1.0002
1.00045
1.00099
1.0019
1.00341
1.00604
1.01005
1.01793
1.02734
1.03889
1.06061
1.08881
1.11416
1.14033
1.17183
1.20041
1.21599
1.2219
1.22878
1.24037
1.2511
1.25534
1.25505
1.00002
1.00008
1.0002
1.00045
1.00099
1.0019
1.00341
1.00604
1.01005
1.01793
1.02734
1.03888
1.0606
1.08885
1.11418
1.14023
1.17176
1.20046
1.21608
1.22187
1.2286
1.24016
1.25098
1.25538
1.25515
1.00002
1.00008
1.0002
1.00045
1.00099
1.0019
1.00341
1.00604
1.01005
1.01793
1.02735
1.03888
1.0606
1.08886
1.11418
1.14023
1.17177
1.20046
1.21608
1.22187
1.2286
1.24016
1.25098
1.25539
1.25515
1.00002
1.00008
1.0002
1.00045
1.00099
1.0019
1.00341
1.00604
1.01006
1.01793
1.02734
1.03889
1.06061
1.08881
1.11416
1.14032
1.17182
1.20041
1.21599
1.22189
1.22877
1.24038
1.25111
1.25535
1.25506
1.00002
1.00008
1.0002
1.00045
1.00099
1.0019
1.00341
1.00604
1.01005
1.01793
1.02735
1.03888
1.0606
1.08886
1.11418
1.14023
1.17177
1.20046
1.21607
1.22186
1.22859
1.24015
1.25098
1.25539
1.25516
1.00002
1.00008
1.0002
1.00045
1.00099
1.0019
1.00341
1.00604
1.01005
1.01793
1.02735
1.03888
1.0606
1.08886
1.11418
1.14023
1.17177
1.20046
1.21607
1.22187
1.2286
1.24015
1.25097
1.25538
1.25514
1.00002
1.00008
1.0002
1.00045
1.00099
1.0019
1.00341
1.00604
1.01006
1.01793
1.02734
1.03888
1.06062
1.08882
1.11416
1.14033
1.17184
1.20043
1.21599
1.22188
1.22876
1.24036
1.25109
1.25533
1.25505
1.00002
1.00008
1.0002
1.00045
1.00099
1.0019
1.00341
1.00604
1.01005
1.01793
1.02735
1.03888
1.0606
1.08886
1.11418
1.14023
1.17176
1.20046
1.21608
1.22187
1.2286
1.24016
1.25099
1.25539
1.25515
1.00002
1.00008
1.0002
1.00045
1.00099
1.0019
1.00341
1.00604
1.01006
1.01793
1.02735
1.03888
1.06061
1.08882
1.11416
1.14033
1.17184
1.20042
1.21599
1.22189
1.22877
1.24036
1.25109
1.25534
1.25505
1.00002
1.00008
1.0002
1.00045
1.00099
1.0019
1.00341
1.00604
1.01005
1.01793
1.02735
1.03888
1.0606
1.08886
1.11418
1.14023
1.17178
1.20046
1.21608
1.22187
1.2286
1.24016
1.25098
1.25538
1.25515
1.00003
1.00009
1.00021
1.00046
1.00099
1.00192
1.00351
1.00576
1.01089
1.01695
1.02762
1.03965
1.05897
1.09104
1.1131
1.13971
1.17769
1.20612
1.26178
1.38789
1.64586
2.28805
2.45439
2.43632
2.36742
1.00003
1.00009
1.00021
1.00046
1.00101
1.00187
1.00355
1.00577
1.01067
1.01741
1.02708
1.04005
1.05912
1.09026
1.11421
1.13839
1.17741
1.20307
1.24301
1.33278
1.52993
2.03024
2.31689
2.33358
2.2144
1.00003
1.00009
1.00021
1.00046
1.00101
1.00189
1.00348
1.00595
1.01012
1.01824
1.02645
1.0402
1.05953
1.08934
1.115
1.13829
1.17555
1.202
1.22778
1.2836
1.41231
1.71498
2.10993
2.25998
2.13628
1.00003
1.00008
1.00021
1.00046
1.001
1.00193
1.00338
1.00611
1.01004
1.01819
1.02671
1.03977
1.06028
1.08839
1.11536
1.13883
1.17356
1.20277
1.22024
1.25636
1.33493
1.54538
1.86459
2.14648
2.10594
1.00003
1.00008
1.00021
1.00046
1.001
1.00192
1.0034
1.00608
1.01004
1.01798
1.02734
1.03878
1.06107
1.0881
1.11509
1.13962
1.17206
1.2025
1.21711
1.23648
1.28124
1.39732
1.62005
1.95907
2.039
1.00003
1.00008
1.00021
1.00046
1.00101
1.00191
1.00343
1.00602
1.01012
1.01782
1.02756
1.0386
1.06104
1.0884
1.11436
1.14061
1.17137
1.20165
1.21719
1.22762
1.25364
1.30936
1.47731
1.68181
1.90034
1.00003
1.00008
1.00021
1.00046
1.00101
1.00191
1.00342
1.00605
1.01005
1.01797
1.02726
1.03906
1.06036
1.08927
1.11354
1.14104
1.1714
1.20078
1.21703
1.22401
1.23778
1.26839
1.33252
1.50539
1.65323
1.00003
1.00008
1.00021
1.00046
1.00101
1.00191
1.00342
1.00605
1.01006
1.01795
1.02734
1.0389
1.06059
1.0889
1.11422
1.14004
1.17227