/*--------------------------------*- C++ -*----------------------------------*\
| =========                 |                                                 |
| \\      /  F ield         | OpenFOAM: The Open Source CFD Toolbox           |
|  \\    /   O peration     | Version:  4.1                                   |
|   \\  /    A nd           | Web:      www.OpenFOAM.org                      |
|    \\/     M anipulation  |                                                 |
\*---------------------------------------------------------------------------*/
FoamFile
{
    version     2.0;
    format      ascii;
    class       volScalarField;
    location    "4.24";
    object      p;
}
// * * * * * * * * * * * * * * * * * * * * * * * * * * * * * * * * * * * * * //

dimensions      [1 -1 -2 0 0 0 0];

internalField   nonuniform List<scalar> 
52500
(
1.00001
1.00003
1.0001
1.00022
1.00065
1.00132
1.00379
1.00745
1.02304
1.04108
1.14984
1.26307
2.01938
3.3754
8.12336
11.5747
11.2134
10.974
11.0518
11.2759
11.5125
11.6581
11.7674
11.8539
11.9205
1.00001
1.00003
1.0001
1.00022
1.00064
1.0013
1.00374
1.00735
1.02271
1.04051
1.14771
1.25906
2.00358
3.33656
8.02027
11.5828
11.21
10.963
11.0421
11.2674
11.5038
11.6495
11.7603
11.8481
11.9164
1.00001
1.00003
1.0001
1.00021
1.00062
1.00127
1.00364
1.00716
1.02205
1.03944
1.14326
1.25128
1.96807
3.25337
7.78746
11.5993
11.1998
10.9311
11.0094
11.2332
11.4668
11.6099
11.7201
11.8072
11.8754
1.00001
1.00003
1.00009
1.00021
1.00059
1.00122
1.00348
1.00688
1.02107
1.03782
1.13656
1.23957
1.91462
3.12773
7.42691
11.627
11.1861
10.8793
10.9542
11.1725
11.4016
11.5397
11.6462
11.731
11.7999
1.00001
1.00003
1.00009
1.0002
1.00057
1.00116
1.00332
1.00663
1.01974
1.03679
1.12591
1.22696
1.84125
2.96381
6.94014
11.6567
11.1704
10.8099
10.8786
11.0869
11.3104
11.4417
11.5425
11.6235
11.6936
1.00001
1.00002
1.00008
1.00018
1.00053
1.00109
1.0031
1.00625
1.01817
1.03528
1.11345
1.21177
1.75623
2.77172
6.34817
11.6608
11.1474
10.7253
10.7843
10.9754
11.1898
11.3097
11.3995
11.4729
11.5444
1
1.00002
1.00008
1.00017
1.00049
1.001
1.00284
1.00573
1.01655
1.03253
1.10161
1.19415
1.66829
2.56602
5.68102
11.5782
11.0876
10.6238
10.6706
10.8358
11.034
11.1368
11.2082
11.2638
11.3289
1
1.00002
1.00007
1.00015
1.00044
1.00091
1.00257
1.0052
1.01501
1.02957
1.09176
1.17608
1.59961
2.40249
5.23324
11.215
10.9197
10.5098
10.5377
10.6614
10.8341
10.911
10.9505
10.9695
11.0084
1
1.00002
1.00006
1.00013
1.00039
1.00081
1.0023
1.00464
1.01342
1.0263
1.08275
1.15411
1.53983
2.24109
4.80056
10.543
10.613
10.4323
10.3962
10.4588
10.5872
10.624
10.6115
10.5532
10.4939
1
1.00001
1.00005
1.00011
1.00033
1.00067
1.00193
1.00375
1.01174
1.0205
1.07519
1.12646
1.48653
2.07311
4.36022
9.69636
10.4523
10.3334
10.2221
10.244
10.2957
10.2757
10.1805
9.95333
9.5926
1.00001
1.00003
1.00011
1.00023
1.00065
1.00133
1.0038
1.00746
1.02305
1.0411
1.14986
1.26313
2.01945
3.37569
8.12394
11.5746
11.2134
10.9741
11.0519
11.276
11.5126
11.6582
11.7675
11.8539
11.9206
1.00001
1.00003
1.0001
1.00023
1.00064
1.00131
1.00374
1.00736
1.02272
1.04053
1.14773
1.25911
2.00366
3.33684
8.02085
11.5827
11.21
10.9631
11.0421
11.2674
11.5039
11.6495
11.7603
11.8482
11.9165
1.00001
1.00003
1.0001
1.00022
1.00062
1.00128
1.00364
1.00717
1.02207
1.03946
1.14329
1.25133
1.96815
3.25364
7.78803
11.5992
11.1998
10.9312
11.0095
11.2333
11.4669
11.61
11.7202
11.8073
11.8755
1.00001
1.00003
1.0001
1.00021
1.0006
1.00123
1.00349
1.00689
1.02108
1.03784
1.13658
1.23962
1.91469
3.128
7.42749
11.6268
11.1861
10.8794
10.9543
11.1725
11.4016
11.5398
11.6462
11.731
11.8
1.00001
1.00003
1.00009
1.0002
1.00057
1.00117
1.00332
1.00664
1.01975
1.03681
1.12591
1.22704
1.84128
2.96405
6.94067
11.6566
11.1704
10.81
10.8787
11.087
11.3105
11.4417
11.5425
11.6236
11.6936
1.00001
1.00003
1.00009
1.00019
1.00054
1.0011
1.0031
1.00626
1.01818
1.0353
1.11346
1.21182
1.75627
2.77193
6.34866
11.6607
11.1475
10.7253
10.7843
10.9755
11.1899
11.3098
11.3996
11.4729
11.5445
1.00001
1.00002
1.00008
1.00017
1.00049
1.00101
1.00284
1.00574
1.01656
1.03254
1.10162
1.1942
1.66834
2.56621
5.6815
11.5782
11.0877
10.6238
10.6707
10.8359
11.0341
11.1369
11.2082
11.2638
11.3289
1
1.00002
1.00007
1.00016
1.00045
1.00091
1.00258
1.00521
1.01502
1.02959
1.09177
1.17613
1.59964
2.40262
5.23348
11.2152
10.9198
10.5098
10.5378
10.6615
10.8342
10.9111
10.9506
10.9696
11.0084
1
1.00002
1.00006
1.00014
1.0004
1.00082
1.0023
1.00465
1.01343
1.02632
1.08276
1.15416
1.53984
2.24121
4.80075
10.5433
10.6131
10.4324
10.3963
10.4589
10.5872
10.6241
10.6115
10.5533
10.4939
1
1.00002
1.00005
1.00012
1.00033
1.00068
1.00194
1.00376
1.01175
1.02052
1.0752
1.12649
1.48654
2.07324
4.36036
9.69672
10.4524
10.3334
10.2221
10.244
10.2958
10.2758
10.1805
9.95338
9.59264
1.00001
1.00003
1.00011
1.00023
1.00065
1.00133
1.0038
1.00746
1.02305
1.0411
1.14986
1.26313
2.01946
3.3757
8.12397
11.5746
11.2134
10.9741
11.0519
11.276
11.5126
11.6582
11.7675
11.8539
11.9206
1.00001
1.00003
1.0001
1.00023
1.00064
1.00131
1.00374
1.00736
1.02272
1.04053
1.14773
1.25912
2.00367
3.33686
8.02088
11.5827
11.21
10.9631
11.0421
11.2674
11.5039
11.6495
11.7603
11.8482
11.9165
1.00001
1.00003
1.0001
1.00022
1.00062
1.00128
1.00364
1.00717
1.02207
1.03946
1.14329
1.25133
1.96816
3.25365
7.78807
11.5991
11.1998
10.9312
11.0095
11.2333
11.4669
11.61
11.7202
11.8073
11.8755
1.00001
1.00003
1.0001
1.00021
1.0006
1.00123
1.00349
1.00689
1.02108
1.03784
1.13658
1.23962
1.9147
3.12801
7.42752
11.6268
11.1861
10.8794
10.9543
11.1725
11.4016
11.5398
11.6462
11.731
11.8
1.00001
1.00003
1.00009
1.0002
1.00057
1.00117
1.00332
1.00664
1.01975
1.03681
1.12591
1.22704
1.84128
2.96406
6.94071
11.6566
11.1704
10.81
10.8787
11.087
11.3105
11.4417
11.5425
11.6236
11.6936
1.00001
1.00003
1.00009
1.00019
1.00054
1.0011
1.0031
1.00626
1.01818
1.0353
1.11346
1.21182
1.75628
2.77195
6.3487
11.6607
11.1475
10.7253
10.7843
10.9755
11.1899
11.3098
11.3996
11.4729
11.5445
1.00001
1.00002
1.00008
1.00017
1.00049
1.00101
1.00284
1.00574
1.01656
1.03254
1.10162
1.1942
1.66834
2.56622
5.68153
11.5782
11.0877
10.6238
10.6707
10.8359
11.0341
11.1369
11.2082
11.2638
11.3289
1
1.00002
1.00007
1.00016
1.00045
1.00091
1.00258
1.00521
1.01502
1.02959
1.09177
1.17613
1.59964
2.40263
5.2335
11.2152
10.9198
10.5098
10.5378
10.6615
10.8342
10.9111
10.9506
10.9696
11.0084
1
1.00002
1.00006
1.00014
1.0004
1.00082
1.0023
1.00465
1.01343
1.02632
1.08276
1.15416
1.53984
2.24122
4.80076
10.5433
10.6131
10.4324
10.3963
10.4589
10.5872
10.6241
10.6115
10.5533
10.4939
1
1.00002
1.00005
1.00012
1.00033
1.00068
1.00194
1.00376
1.01175
1.02052
1.0752
1.12649
1.48655
2.07325
4.36037
9.69674
10.4524
10.3334
10.2221
10.244
10.2958
10.2758
10.1805
9.95338
9.59264
1.00001
1.00003
1.00011
1.00023
1.00065
1.00133
1.0038
1.00746
1.02305
1.0411
1.14986
1.26313
2.01946
3.3757
8.12397
11.5746
11.2134
10.9741
11.0519
11.276
11.5126
11.6582
11.7675
11.8539
11.9206
1.00001
1.00003
1.0001
1.00023
1.00064
1.00131
1.00374
1.00736
1.02272
1.04053
1.14773
1.25912
2.00367
3.33686
8.02088
11.5827
11.21
10.9631
11.0421
11.2674
11.5039
11.6495
11.7603
11.8482
11.9165
1.00001
1.00003
1.0001
1.00022
1.00062
1.00128
1.00364
1.00717
1.02207
1.03946
1.14329
1.25133
1.96816
3.25365
7.78807
11.5991
11.1998
10.9312
11.0095
11.2333
11.4669
11.61
11.7202
11.8073
11.8755
1.00001
1.00003
1.0001
1.00021
1.0006
1.00123
1.00349
1.00689
1.02108
1.03784
1.13658
1.23962
1.9147
3.12801
7.42753
11.6268
11.1861
10.8794
10.9543
11.1725
11.4016
11.5398
11.6462
11.731
11.8
1.00001
1.00003
1.00009
1.0002
1.00057
1.00117
1.00332
1.00664
1.01975
1.03681
1.12591
1.22704
1.84128
2.96406
6.94071
11.6566
11.1704
10.81
10.8787
11.087
11.3105
11.4417
11.5425
11.6236
11.6936
1.00001
1.00003
1.00009
1.00019
1.00054
1.0011
1.0031
1.00626
1.01818
1.0353
1.11346
1.21182
1.75628
2.77195
6.3487
11.6607
11.1475
10.7253
10.7843
10.9755
11.1899
11.3098
11.3996
11.4729
11.5445
1.00001
1.00002
1.00008
1.00017
1.00049
1.00101
1.00284
1.00574
1.01656
1.03254
1.10162
1.1942
1.66834
2.56622
5.68153
11.5782
11.0877
10.6238
10.6707
10.8359
11.0341
11.1369
11.2082
11.2638
11.3289
1
1.00002
1.00007
1.00016
1.00045
1.00091
1.00258
1.00521
1.01502
1.02959
1.09177
1.17613
1.59964
2.40263
5.2335
11.2152
10.9198
10.5098
10.5378
10.6615
10.8342
10.9111
10.9506
10.9696
11.0084
1
1.00002
1.00006
1.00014
1.0004
1.00082
1.0023
1.00465
1.01343
1.02632
1.08276
1.15416
1.53984
2.24122
4.80076
10.5433
10.6131
10.4324
10.3963
10.4589
10.5872
10.6241
10.6115
10.5533
10.4939
1
1.00002
1.00005
1.00012
1.00033
1.00068
1.00194
1.00376
1.01175
1.02052
1.0752
1.12649
1.48655
2.07325
4.36037
9.69674
10.4524
10.3334
10.2221
10.244
10.2958
10.2758
10.1805
9.95338
9.59264
1.00001
1.00003
1.00011
1.00023
1.00065
1.00133
1.0038
1.00746
1.02305
1.0411
1.14986
1.26313
2.01946
3.3757
8.12397
11.5746
11.2134
10.9741
11.0519
11.276
11.5126
11.6582
11.7675
11.8539
11.9206
1.00001
1.00003
1.0001
1.00023
1.00064
1.00131
1.00374
1.00736
1.02272
1.04053
1.14773
1.25912
2.00367
3.33686
8.02088
11.5827
11.21
10.9631
11.0421
11.2674
11.5039
11.6495
11.7603
11.8482
11.9165
1.00001
1.00003
1.0001
1.00022
1.00062
1.00128
1.00364
1.00717
1.02207
1.03946
1.14329
1.25133
1.96816
3.25365
7.78807
11.5991
11.1998
10.9312
11.0095
11.2333
11.4669
11.61
11.7202
11.8073
11.8755
1.00001
1.00003
1.0001
1.00021
1.0006
1.00123
1.00349
1.00689
1.02108
1.03784
1.13658
1.23962
1.9147
3.12801
7.42753
11.6268
11.1861
10.8794
10.9543
11.1725
11.4016
11.5398
11.6462
11.731
11.8
1.00001
1.00003
1.00009
1.0002
1.00057
1.00117
1.00332
1.00664
1.01975
1.03681
1.12591
1.22704
1.84128
2.96406
6.94071
11.6566
11.1704
10.81
10.8787
11.087
11.3105
11.4417
11.5425
11.6236
11.6936
1.00001
1.00003
1.00009
1.00019
1.00054
1.0011
1.0031
1.00626
1.01818
1.0353
1.11346
1.21182
1.75628
2.77195
6.3487
11.6607
11.1475
10.7253
10.7843
10.9755
11.1899
11.3098
11.3996
11.4729
11.5445
1.00001
1.00002
1.00008
1.00017
1.00049
1.00101
1.00284
1.00574
1.01656
1.03254
1.10162
1.1942
1.66834
2.56622
5.68153
11.5782
11.0877
10.6238
10.6707
10.8359
11.0341
11.1369
11.2082
11.2638
11.3289
1
1.00002
1.00007
1.00016
1.00045
1.00091
1.00258
1.00521
1.01502
1.02959
1.09177
1.17613
1.59964
2.40263
5.2335
11.2152
10.9198
10.5098
10.5378
10.6615
10.8342
10.9111
10.9506
10.9696
11.0084
1
1.00002
1.00006
1.00014
1.0004
1.00082
1.0023
1.00465
1.01343
1.02632
1.08276
1.15416
1.53984
2.24122
4.80076
10.5433
10.6131
10.4324
10.3963
10.4589
10.5872
10.6241
10.6115
10.5533
10.4939
1
1.00002
1.00005
1.00012
1.00033
1.00068
1.00194
1.00376
1.01175
1.02052
1.0752
1.12649
1.48655
2.07325
4.36037
9.69674
10.4524
10.3334
10.2221
10.244
10.2958
10.2758
10.1805
9.95338
9.59264
1.00001
1.00003
1.00011
1.00023
1.00065
1.00133
1.0038
1.00746
1.02305
1.0411
1.14986
1.26313
2.01946
3.3757
8.12397
11.5746
11.2134
10.9741
11.0519
11.276
11.5126
11.6582
11.7675
11.8539
11.9206
1.00001
1.00003
1.0001
1.00023
1.00064
1.00131
1.00374
1.00736
1.02272
1.04053
1.14773
1.25912
2.00367
3.33686
8.02088
11.5827
11.21
10.9631
11.0421
11.2674
11.5039
11.6495
11.7603
11.8482
11.9165
1.00001
1.00003
1.0001
1.00022
1.00062
1.00128
1.00364
1.00717
1.02207
1.03946
1.14329
1.25133
1.96816
3.25365
7.78807
11.5991
11.1998
10.9312
11.0095
11.2333
11.4669
11.61
11.7202
11.8073
11.8755
1.00001
1.00003
1.0001
1.00021
1.0006
1.00123
1.00349
1.00689
1.02108
1.03784
1.13658
1.23962
1.9147
3.12801
7.42753
11.6268
11.1861
10.8794
10.9543
11.1725
11.4016
11.5398
11.6462
11.731
11.8
1.00001
1.00003
1.00009
1.0002
1.00057
1.00117
1.00332
1.00664
1.01975
1.03681
1.12591
1.22704
1.84128
2.96406
6.94071
11.6566
11.1704
10.81
10.8787
11.087
11.3105
11.4417
11.5425
11.6236
11.6936
1.00001
1.00003
1.00009
1.00019
1.00054
1.0011
1.0031
1.00626
1.01818
1.0353
1.11346
1.21182
1.75628
2.77195
6.3487
11.6607
11.1475
10.7253
10.7843
10.9755
11.1899
11.3098
11.3996
11.4729
11.5445
1.00001
1.00002
1.00008
1.00017
1.00049
1.00101
1.00284
1.00574
1.01656
1.03254
1.10162
1.1942
1.66834
2.56622
5.68153
11.5782
11.0877
10.6238
10.6707
10.8359
11.0341
11.1369
11.2082
11.2638
11.3289
1
1.00002
1.00007
1.00016
1.00045
1.00091
1.00258
1.00521
1.01502
1.02959
1.09177
1.17613
1.59964
2.40263
5.2335
11.2152
10.9198
10.5098
10.5378
10.6615
10.8342
10.9111
10.9506
10.9696
11.0084
1
1.00002
1.00006
1.00014
1.0004
1.00082
1.0023
1.00465
1.01343
1.02632
1.08276
1.15416
1.53984
2.24122
4.80076
10.5433
10.6131
10.4324
10.3963
10.4589
10.5872
10.6241
10.6115
10.5533
10.4939
1
1.00002
1.00005
1.00012
1.00033
1.00068
1.00194
1.00376
1.01175
1.02052
1.0752
1.12649
1.48655
2.07325
4.36037
9.69674
10.4524
10.3334
10.2221
10.244
10.2958
10.2758
10.1805
9.95338
9.59264
1.00001
1.00003
1.00011
1.00023
1.00065
1.00133
1.0038
1.00746
1.02305
1.0411
1.14986
1.26313
2.01946
3.3757
8.12397
11.5746
11.2134
10.9741
11.0519
11.276
11.5126
11.6582
11.7675
11.8539
11.9206
1.00001
1.00003
1.0001
1.00023
1.00064
1.00131
1.00374
1.00736
1.02272
1.04053
1.14773
1.25912
2.00367
3.33686
8.02088
11.5827
11.21
10.9631
11.0421
11.2674
11.5039
11.6495
11.7603
11.8482
11.9165
1.00001
1.00003
1.0001
1.00022
1.00062
1.00128
1.00364
1.00717
1.02207
1.03946
1.14329
1.25133
1.96816
3.25365
7.78807
11.5991
11.1998
10.9312
11.0095
11.2333
11.4669
11.61
11.7202
11.8073
11.8755
1.00001
1.00003
1.0001
1.00021
1.0006
1.00123
1.00349
1.00689
1.02108
1.03784
1.13658
1.23962
1.9147
3.12801
7.42753
11.6268
11.1861
10.8794
10.9543
11.1725
11.4016
11.5398
11.6462
11.731
11.8
1.00001
1.00003
1.00009
1.0002
1.00057
1.00117
1.00332
1.00664
1.01975
1.03681
1.12591
1.22704
1.84128
2.96406
6.94071
11.6566
11.1704
10.81
10.8787
11.087
11.3105
11.4417
11.5425
11.6236
11.6936
1.00001
1.00003
1.00009
1.00019
1.00054
1.0011
1.0031
1.00626
1.01818
1.0353
1.11346
1.21182
1.75628
2.77195
6.3487
11.6607
11.1475
10.7253
10.7843
10.9755
11.1899
11.3098
11.3996
11.4729
11.5445
1.00001
1.00002
1.00008
1.00017
1.00049
1.00101
1.00284
1.00574
1.01656
1.03254
1.10162
1.1942
1.66834
2.56622
5.68153
11.5782
11.0877
10.6238
10.6707
10.8359
11.0341
11.1369
11.2082
11.2638
11.3289
1
1.00002
1.00007
1.00016
1.00045
1.00091
1.00258
1.00521
1.01502
1.02959
1.09177
1.17613
1.59964
2.40263
5.2335
11.2152
10.9198
10.5098
10.5378
10.6615
10.8342
10.9111
10.9506
10.9696
11.0084
1
1.00002
1.00006
1.00014
1.0004
1.00082
1.0023
1.00465
1.01343
1.02632
1.08276
1.15416
1.53984
2.24122
4.80076
10.5433
10.6131
10.4324
10.3963
10.4589
10.5872
10.6241
10.6115
10.5533
10.4939
1
1.00002
1.00005
1.00012
1.00033
1.00068
1.00194
1.00376
1.01175
1.02052
1.0752
1.12649
1.48655
2.07325
4.36037
9.69674
10.4524
10.3334
10.2221
10.244
10.2958
10.2758
10.1805
9.95338
9.59264
1.00001
1.00003
1.00011
1.00023
1.00065
1.00133
1.0038
1.00746
1.02305
1.0411
1.14986
1.26313
2.01946
3.3757
8.12397
11.5746
11.2134
10.9741
11.0519
11.276
11.5126
11.6582
11.7675
11.8539
11.9206
1.00001
1.00003
1.0001
1.00023
1.00064
1.00131
1.00374
1.00736
1.02272
1.04053
1.14773
1.25912
2.00367
3.33686
8.02088
11.5827
11.21
10.9631
11.0421
11.2674
11.5039
11.6495
11.7603
11.8482
11.9165
1.00001
1.00003
1.0001
1.00022
1.00062
1.00128
1.00364
1.00717
1.02207
1.03946
1.14329
1.25133
1.96816
3.25365
7.78807
11.5991
11.1998
10.9312
11.0095
11.2333
11.4669
11.61
11.7202
11.8073
11.8755
1.00001
1.00003
1.0001
1.00021
1.0006
1.00123
1.00349
1.00689
1.02108
1.03784
1.13658
1.23962
1.9147
3.12801
7.42752
11.6268
11.1861
10.8794
10.9543
11.1725
11.4016
11.5398
11.6462
11.731
11.8
1.00001
1.00003
1.00009
1.0002
1.00057
1.00117
1.00332
1.00664
1.01975
1.03681
1.12591
1.22704
1.84128
2.96406
6.9407
11.6566
11.1704
10.81
10.8787
11.087
11.3105
11.4417
11.5425
11.6236
11.6936
1.00001
1.00003
1.00009
1.00019
1.00054
1.0011
1.0031
1.00626
1.01818
1.0353
1.11346
1.21182
1.75628
2.77195
6.3487
11.6607
11.1475
10.7253
10.7843
10.9755
11.1899
11.3098
11.3996
11.4729
11.5445
1.00001
1.00002
1.00008
1.00017
1.00049
1.00101
1.00284
1.00574
1.01656
1.03254
1.10162
1.1942
1.66834
2.56622
5.68153
11.5782
11.0877
10.6238
10.6707
10.8359
11.0341
11.1369
11.2082
11.2638
11.3289
1
1.00002
1.00007
1.00016
1.00045
1.00091
1.00258
1.00521
1.01502
1.02959
1.09177
1.17613
1.59964
2.40263
5.2335
11.2152
10.9198
10.5098
10.5378
10.6615
10.8342
10.9111
10.9506
10.9696
11.0084
1
1.00002
1.00006
1.00014
1.0004
1.00082
1.0023
1.00465
1.01343
1.02632
1.08276
1.15416
1.53984
2.24122
4.80076
10.5433
10.6131
10.4324
10.3963
10.4589
10.5872
10.6241
10.6115
10.5533
10.4939
1
1.00002
1.00005
1.00012
1.00033
1.00068
1.00194
1.00376
1.01175
1.02052
1.0752
1.12649
1.48655
2.07325
4.36037
9.69674
10.4524
10.3334
10.2221
10.244
10.2958
10.2758
10.1805
9.95338
9.59264
1.00001
1.00003
1.00011
1.00023
1.00065
1.00133
1.0038
1.00746
1.02305
1.0411
1.14986
1.26313
2.01945
3.37569
8.12394
11.5746
11.2134
10.9741
11.0519
11.276
11.5126
11.6582
11.7675
11.8539
11.9206
1.00001
1.00003
1.0001
1.00023
1.00064
1.00131
1.00374
1.00736
1.02272
1.04053
1.14773
1.25911
2.00366
3.33684
8.02085
11.5827
11.21
10.9631
11.0421
11.2674
11.5039
11.6495
11.7603
11.8482
11.9165
1.00001
1.00003
1.0001
1.00022
1.00062
1.00128
1.00364
1.00717
1.02207
1.03946
1.14329
1.25133
1.96815
3.25364
7.78803
11.5992
11.1998
10.9312
11.0095
11.2333
11.4669
11.61
11.7202
11.8073
11.8755
1.00001
1.00003
1.0001
1.00021
1.0006
1.00123
1.00349
1.00689
1.02108
1.03784
1.13658
1.23962
1.91469
3.128
7.42749
11.6268
11.1861
10.8794
10.9543
11.1725
11.4016
11.5398
11.6462
11.731
11.8
1.00001
1.00003
1.00009
1.0002
1.00057
1.00117
1.00332
1.00664
1.01975
1.03681
1.12591
1.22704
1.84128
2.96405
6.94067
11.6566
11.1704
10.81
10.8787
11.087
11.3105
11.4417
11.5425
11.6236
11.6936
1.00001
1.00003
1.00009
1.00019
1.00054
1.0011
1.0031
1.00626
1.01818
1.0353
1.11346
1.21182
1.75627
2.77193
6.34866
11.6607
11.1475
10.7253
10.7843
10.9755
11.1899
11.3098
11.3996
11.4729
11.5445
1.00001
1.00002
1.00008
1.00017
1.00049
1.00101
1.00284
1.00574
1.01656
1.03254
1.10162
1.1942
1.66834
2.56621
5.6815
11.5782
11.0877
10.6238
10.6707
10.8359
11.0341
11.1369
11.2082
11.2638
11.3289
1
1.00002
1.00007
1.00016
1.00045
1.00091
1.00258
1.00521
1.01502
1.02959
1.09177
1.17613
1.59964
2.40262
5.23348
11.2152
10.9198
10.5098
10.5378
10.6615
10.8342
10.9111
10.9506
10.9696
11.0084
1
1.00002
1.00006
1.00014
1.0004
1.00082
1.0023
1.00465
1.01343
1.02632
1.08276
1.15416
1.53984
2.24121
4.80075
10.5433
10.6131
10.4324
10.3963
10.4589
10.5872
10.6241
10.6115
10.5533
10.4939
1
1.00002
1.00005
1.00012
1.00033
1.00068
1.00194
1.00376
1.01175
1.02052
1.0752
1.12649
1.48654
2.07324
4.36036
9.69672
10.4524
10.3334
10.2221
10.244
10.2958
10.2758
10.1805
9.95338
9.59264
1.00001
1.00003
1.0001
1.00022
1.00065
1.00132
1.00379
1.00745
1.02304
1.04108
1.14984
1.26307
2.01938
3.3754
8.12336
11.5747
11.2134
10.974
11.0518
11.2759
11.5125
11.6581
11.7674
11.8539
11.9205
1.00001
1.00003
1.0001
1.00022
1.00064
1.0013
1.00374
1.00735
1.02271
1.04051
1.14771
1.25906
2.00358
3.33656
8.02027
11.5828
11.21
10.963
11.0421
11.2674
11.5038
11.6495
11.7603
11.8481
11.9164
1.00001
1.00003
1.0001
1.00021
1.00062
1.00127
1.00364
1.00716
1.02205
1.03944
1.14326
1.25128
1.96807
3.25337
7.78746
11.5993
11.1998
10.9311
11.0094
11.2332
11.4668
11.6099
11.7201
11.8072
11.8754
1.00001
1.00003
1.00009
1.00021
1.00059
1.00122
1.00348
1.00688
1.02107
1.03782
1.13656
1.23957
1.91462
3.12774
7.42691
11.627
11.1861
10.8793
10.9542
11.1725
11.4016
11.5397
11.6462
11.731
11.7999
1.00001
1.00003
1.00009
1.0002
1.00057
1.00116
1.00332
1.00663
1.01974
1.03679
1.12591
1.22696
1.84125
2.96381
6.94014
11.6567
11.1704
10.8099
10.8786
11.0869
11.3104
11.4417
11.5425
11.6235
11.6936
1.00001
1.00002
1.00008
1.00018
1.00053
1.00109
1.0031
1.00625
1.01817
1.03528
1.11345
1.21177
1.75623
2.77172
6.34817
11.6608
11.1474
10.7253
10.7843
10.9754
11.1898
11.3097
11.3995
11.4729
11.5444
1
1.00002
1.00008
1.00017
1.00049
1.001
1.00284
1.00573
1.01655
1.03253
1.10161
1.19415
1.66829
2.56602
5.68102
11.5782
11.0876
10.6238
10.6706
10.8358
11.034
11.1368
11.2082
11.2638
11.3289
1
1.00002
1.00007
1.00015
1.00044
1.00091
1.00257
1.0052
1.01501
1.02957
1.09176
1.17608
1.59961
2.40249
5.23324
11.215
10.9197
10.5098
10.5377
10.6614
10.8341
10.911
10.9505
10.9695
11.0084
1
1.00002
1.00006
1.00013
1.00039
1.00081
1.0023
1.00464
1.01342
1.0263
1.08275
1.15411
1.53983
2.24109
4.80056
10.543
10.613
10.4323
10.3962
10.4588
10.5872
10.624
10.6115
10.5532
10.4939
1
1.00001
1.00005
1.00011
1.00033
1.00067
1.00193
1.00375
1.01174
1.0205
1.07519
1.12646
1.48653
2.07311
4.36022
9.69636
10.4523
10.3334
10.2221
10.244
10.2957
10.2757
10.1805
9.95333
9.5926
1
1.00001
1.00004
1.00012
1.00025
1.00072
1.00147
1.00424
1.00829
1.02594
1.04605
1.16754
1.30144
2.13347
3.69879
8.70018
10.3536
10.2454
10.0439
10.0097
9.9826
9.88458
9.62082
9.0103
7.47319
1
1.00001
1.00003
1.0001
1.00022
1.00063
1.00128
1.00365
1.00718
1.0221
1.03951
1.14298
1.25141
1.96039
3.22274
7.52119
10.2682
10.1492
9.88016
9.76393
9.67249
9.47508
9.0575
8.22442
6.62575
1
1.00001
1.00003
1.00009
1.00019
1.00054
1.00111
1.00314
1.00634
1.01848
1.03547
1.11599
1.21387
1.7688
2.78317
6.25519
10.1835
10.0547
9.73318
9.52067
9.36479
9.08597
8.57546
7.72061
6.41765
1
1.00001
1.00002
1.00007
1.00016
1.00045
1.00092
1.0026
1.00525
1.01508
1.02981
1.09106
1.1783
1.58609
2.36383
4.93745
9.93356
9.88344
9.61016
9.29535
9.07126
8.74898
8.22127
7.43069
6.37597
1
1.00001
1.00002
1.00006
1.00012
1.00036
1.00074
1.00209
1.00422
1.01218
1.02377
1.07475
1.13858
1.4795
2.0876
4.25544
9.14576
9.59096
9.42648
9.08731
8.8104
8.46509
7.96296
7.25559
6.36765
1
1
1.00002
1.00004
1.00011
1.00024
1.00068
1.00138
1.00397
1.00769
1.02422
1.04237
1.15505
1.27349
2.0432
3.40318
7.73662
9.3048
9.2046
8.9335
8.59463
8.22999
7.75854
7.12727
6.36385
1
1
1.00001
1.00003
1.00009
1.00019
1.00056
1.00114
1.00323
1.00648
1.01909
1.03584
1.12027
1.21816
1.78854
2.81087
6.19146
9.12251
9.06112
8.82402
8.42639
8.0427
7.59254
7.02387
6.35467
0.999998
1
1.00001
1.00002
1.00007
1.00015
1.00043
1.00088
1.0025
1.00504
1.01448
1.0286
1.08725
1.17091
1.5557
2.28132
4.60148
8.77682
8.91947
8.73614
8.32737
7.89633
7.45645
6.94105
6.34705
0.999996
0.999998
1
1.00002
1.00004
1.00013
1.00027
1.00077
1.00157
1.00447
1.0088
1.02674
1.04832
1.16972
1.30969
2.10524
3.59342
7.86786
8.69915
8.56902
8.2348
7.77786
7.3432
6.87043
6.33791
0.999995
0.999996
0.999999
1.00001
1.00003
1.0001
1.0002
1.00058
1.00118
1.00335
1.00659
1.02009
1.03596
1.12797
1.22486
1.83217
2.87983
6.26732
8.41957
8.36924
8.14905
7.69709
7.26026
6.8167
6.33223
0.999994
0.999994
0.999998
1
1.00002
1.00006
1.00017
1.00035
1.00099
1.00197
1.00586
1.0107
1.03632
1.06102
1.22528
1.44022
2.40987
4.48075
7.99962
8.22504
8.06977
7.68615
7.21315
6.77698
6.32834
0.999993
0.999993
0.999996
1
1.00001
1.00004
1.00012
1.00026
1.00073
1.00149
1.00422
1.00835
1.02512
1.04568
1.15855
1.287
2.01548
3.32519
7.03794
8.02869
7.93352
7.65751
7.20109
6.75758
6.32932
0.999992
0.999993
0.999994
0.999998
1
1.00003
1.00007
1.00021
1.00043
1.00122
1.00238
1.00725
1.01279
1.04545
1.07476
1.28176
1.55534
2.77549
5.37686
7.71912
7.72958
7.58641
7.22098
6.76047
6.33384
0.999992
0.999992
0.999993
0.999996
1
1.00002
1.00005
1.00015
1.00031
1.00088
1.0018
1.00505
1.01013
1.02938
1.05635
1.1782
1.35829
2.11674
3.59602
7.10891
7.61836
7.51312
7.22773
6.77826
6.34784
0.999991
0.999992
0.999992
0.999994
0.999999
1.00001
1.00004
1.00008
1.00025
1.00051
1.00144
1.0029
1.00826
1.01601
1.04985
1.08956
1.30906
1.63771
2.92065
5.67368
7.37583
7.36131
7.20656
6.83672
6.38056
0.999991
0.999991
0.999992
0.999993
0.999996
1
1.00002
1.00005
1.00017
1.00035
1.00097
1.00198
1.00554
1.01093
1.03259
1.05934
1.20036
1.38474
2.21586
3.85694
6.86789
7.25356
7.15424
6.88506
6.43766
0.999991
0.999991
0.999991
0.999992
0.999994
0.999999
1.00001
1.00004
1.00009
1.00027
1.00056
1.00156
1.00315
1.00888
1.01755
1.05232
1.09986
1.316
1.70024
2.94067
5.68876
7.0291
7.01706
6.8731
6.53671
0.999991
0.999991
0.999991
0.999992
0.999993
0.999996
1
1.00002
1.00006
1.00018
1.00037
1.00102
1.00208
1.00578
1.01142
1.03386
1.06191
1.20655
1.40016
2.24106
3.90217
6.53454
6.90179
6.8192
6.58527
0.999991
0.999991
0.999991
0.999991
0.999992
0.999994
1
1.00001
1.00004
1.00009
1.00028
1.00057
1.00159
1.00321
1.00903
1.01792
1.05223
1.10434
1.31064
1.69574
2.87514
5.41599
6.66862
6.67484
6.56662
0.999991
0.99999
0.999991
0.999991
0.999991
0.999993
0.999995
1
1.00002
1.00007
1.00015
1.00042
1.00087
1.0024
1.00483
1.01357
1.02673
1.07928
1.15427
1.47426
2.05225
3.68614
6.15959
6.56221
6.50705
0.999991
0.99999
0.99999
0.999991
0.999991
0.999992
0.999994
0.999999
1.00001
1.00004
1.00009
1.00027
1.00055
1.00152
1.00308
1.00853
1.017
1.04882
1.09696
1.28726
1.63364
2.70939
5.01315
6.31974
6.38281
0.999991
0.99999
0.99999
0.99999
0.999991
0.999991
0.999993
0.999995
1
1.00002
1.00006
1.00014
1.00039
1.00079
1.00218
1.0044
1.01225
1.0242
1.07034
1.13949
1.41171
1.91143
3.26751
5.77916
6.27162
0.999991
0.99999
0.99999
0.99999
0.99999
0.999991
0.999992
0.999993
0.999998
1.00001
1.00004
1.00008
1.00024
1.0005
1.00136
1.00276
1.00757
1.01508
1.04309
1.08351
1.25419
1.52996
2.50015
4.52949
5.98225
0.999991
0.99999
0.99999
0.99999
0.99999
0.999991
0.999991
0.999992
0.999995
1
1.00002
1.00005
1.00014
1.00029
1.00081
1.00165
1.0045
1.00903
1.02512
1.04993
1.1442
1.29712
1.84088
2.90691
5.32475
0.999991
0.99999
0.99999
0.99999
0.99999
0.99999
0.999991
0.999991
0.999993
0.999996
1.00001
1.00002
1.00008
1.00017
1.00049
1.001
1.00272
1.00548
1.0152
1.02983
1.08886
1.16738
1.5297
2.13866
3.88503
0.999991
0.99999
0.99999
0.99999
0.99999
0.99999
0.99999
0.999991
0.999992
0.999994
0.999999
1.00001
1.00004
1.00011
1.00024
1.00067
1.00136
1.00371
1.00739
1.02106
1.03937
1.12458
1.23013
1.71923
2.54898
0.999991
0.99999
0.99999
0.99999
0.99999
0.99999
0.99999
0.999991
0.999991
0.999992
0.999996
1
1.00002
1.00005
1.00016
1.00033
1.00091
1.00184
1.00503
1.0099
1.02875
1.05254
1.16848
1.31721
1.93313
0.999991
0.99999
0.99999
0.99999
0.99999
0.99999
0.99999
0.99999
0.999991
0.999992
0.999993
0.999998
1.00001
1.00003
1.00008
1.00022
1.00046
1.00126
1.00254
1.00696
1.01388
1.03897
1.07805
1.22169
1.48677
0.999991
0.99999
0.99999
0.99999
0.99999
0.99999
0.99999
0.99999
0.999991
0.999991
0.999992
0.999995
0.999999
1.00001
1.00004
1.00012
1.00026
1.00071
1.00145
1.00393
1.0079
1.02177
1.04277
1.12405
1.24604
0.999991
0.99999
0.99999
0.99999
0.99999
0.99999
0.99999
0.99999
0.99999
0.999991
0.999991
0.999992
0.999996
1
1.00002
1.00006
1.00016
1.00034
1.00093
1.00189
1.00511
1.01018
1.02857
1.05425
1.16319
0.999991
0.99999
0.99999
0.99999
0.99999
0.99999
0.99999
0.99999
0.99999
0.99999
0.999991
0.999992
0.999993
0.999998
1.00001
1.00003
1.00008
1.00022
1.00045
1.00123
1.0025
1.00679
1.01357
1.0376
1.07628
0.999991
0.99999
0.99999
0.99999
0.99999
0.99999
0.99999
0.99999
0.99999
0.99999
0.999991
0.999991
0.999992
0.999994
1
1.00001
1.00005
1.0001
1.00029
1.0006
1.00161
1.00325
1.00882
1.01771
1.04862
0.999991
0.99999
0.99999
0.99999
0.99999
0.99999
0.99999
0.99999
0.99999
0.99999
0.99999
0.999991
0.999991
0.999992
0.999996
1
1.00002
1.00005
1.00016
1.00034
1.00091
1.00185
1.00497
1.01001
1.02708
0.999991
0.99999
0.99999
0.99999
0.99999
0.99999
0.99999
0.99999
0.99999
0.99999
0.99999
0.99999
0.999991
0.999992
0.999993
0.999998
1.00001
1.00003
1.00008
1.00023
1.00048
1.00132
1.00268
1.00733
1.01463
0.999991
0.99999
0.99999
0.99999
0.99999
0.99999
0.99999
0.99999
0.99999
0.99999
0.99999
0.99999
0.999991
0.999991
0.999993
0.999995
1
1.00002
1.00007
1.00015
1.00042
1.00087
1.00241
1.00487
1.01387
0.999991
0.99999
0.99999
0.99999
0.99999
0.99999
0.99999
0.99999
0.99999
0.99999
0.99999
0.99999
0.999991
0.999991
0.999992
0.999995
1
1.00002
1.00004
1.00014
1.0003
1.00086
1.00174
1.00502
1.00982
0.999991
0.99999
0.99999
0.99999
0.99999
0.99999
0.99999
0.99999
0.99999
0.99999
0.99999
0.99999
0.999991
0.999991
0.999992
0.999994
1
1.00001
1.00005
1.00011
1.00032
1.00067
1.00194
1.00378
1.01192
0.999991
0.99999
0.99999
0.99999
0.99999
0.99999
0.99999
0.99999
0.99999
0.99999
0.99999
0.99999
0.99999
0.999991
0.999992
0.999994
1
1.00001
1.00005
1.0001
1.00031
1.00064
1.00187
1.00362
1.01163
0.999991
0.99999
0.99999
0.99999
0.99999
0.99999
0.99999
0.99999
0.99999
0.99999
0.99999
0.99999
0.99999
0.999991
0.999992
0.999994
0.999999
1.00001
1.00004
1.00013
1.00027
1.00079
1.0016
1.00467
1.00916
0.999991
0.99999
0.99999
0.99999
0.99999
0.99999
0.99999
0.99999
0.99999
0.99999
0.99999
0.99999
0.99999
0.999991
0.999992
0.999994
0.999999
1.00001
1.00004
1.00013
1.00028
1.00081
1.00165
1.00476
1.00951
1
1.00002
1.00004
1.00012
1.00026
1.00073
1.00148
1.00425
1.0083
1.02595
1.04607
1.16756
1.30149
2.13352
3.69899
8.70054
10.3537
10.2455
10.0439
10.0098
9.98265
9.88463
9.62086
9.01034
7.47322
1
1.00002
1.00004
1.00011
1.00022
1.00063
1.00129
1.00366
1.00719
1.02211
1.03953
1.143
1.25145
1.96043
3.22294
7.52158
10.2682
10.1492
9.88021
9.76398
9.67254
9.47512
9.05754
8.22446
6.62579
1
1.00001
1.00003
1.00009
1.00019
1.00055
1.00112
1.00315
1.00635
1.01849
1.03549
1.11599
1.21393
1.76881
2.78334
6.25556
10.1835
10.0547
9.73323
9.52071
9.36482
9.08601
8.5755
7.72064
6.41769
1
1.00001
1.00003
1.00008
1.00016
1.00045
1.00093
1.00261
1.00526
1.01509
1.02982
1.09108
1.17833
1.58612
2.36395
4.93764
9.93374
9.88355
9.6102
9.29538
9.07129
8.74901
8.2213
7.43073
6.376
1
1.00001
1.00002
1.00006
1.00013
1.00037
1.00075
1.0021
1.00423
1.01219
1.02379
1.07476
1.13863
1.4795
2.0877
4.25558
9.14609
9.59103
9.42653
9.08733
8.81043
8.46513
7.96299
7.25562
6.36768
1
1.00001
1.00002
1.00004
1.00012
1.00025
1.00069
1.00139
1.00398
1.0077
1.02423
1.04239
1.15507
1.27354
2.04323
3.40336
7.73695
9.30484
9.20464
8.93351
8.59466
8.23002
7.75857
7.1273
6.36388
1
1
1.00002
1.00003
1.0001
1.0002
1.00057
1.00115
1.00324
1.0065
1.0191
1.03587
1.12027
1.21823
1.78854
2.81103
6.19177
9.12253
9.06114
8.82404
8.42641
8.04273
7.59257
7.0239
6.3547
1
1
1.00001
1.00003
1.00008
1.00016
1.00044
1.00089
1.00251
1.00505
1.01449
1.02862
1.08726
1.17095
1.55574
2.28145
4.60181
8.77688
8.91947
8.73615
8.32739
7.89635
7.45647
6.94108
6.34708
1
1
1.00001
1.00002
1.00005
1.00014
1.00028
1.00078
1.00158
1.00448
1.00882
1.02675
1.04834
1.16974
1.30974
2.1053
3.59358
7.86804
8.69918
8.56905
8.23482
7.77788
7.34322
6.87045
6.33794
1