/*--------------------------------*- C++ -*----------------------------------*\
| =========                 |                                                 |
| \\      /  F ield         | OpenFOAM: The Open Source CFD Toolbox           |
|  \\    /   O peration     | Version:  4.1                                   |
|   \\  /    A nd           | Web:      www.OpenFOAM.org                      |
|    \\/     M anipulation  |                                                 |
\*---------------------------------------------------------------------------*/
FoamFile
{
    version     2.0;
    format      ascii;
    class       volScalarField;
    location    "3.36";
    object      p;
}
// * * * * * * * * * * * * * * * * * * * * * * * * * * * * * * * * * * * * * //

dimensions      [1 -1 -2 0 0 0 0];

internalField   nonuniform List<scalar> 
52500
(
1.00001
1.00003
1.0001
1.00022
1.00064
1.00131
1.00376
1.00738
1.02285
1.04073
1.14864
1.26073
2.01116
3.35424
8.06936
11.5908
11.2158
10.9707
11.0493
11.2738
11.51
11.6529
11.7614
11.8476
11.9124
1.00001
1.00003
1.0001
1.00022
1.00063
1.00129
1.00371
1.00729
1.02252
1.04019
1.14649
1.25692
1.99437
3.31539
7.9646
11.5996
11.2129
10.9599
11.0397
11.2654
11.5014
11.6445
11.7545
11.842
11.9084
1.00001
1.00003
1.0001
1.00021
1.00061
1.00126
1.0036
1.0071
1.02186
1.03912
1.14202
1.24909
1.95866
3.23168
7.72939
11.6169
11.2032
10.9282
11.0072
11.2314
11.4646
11.6053
11.7147
11.8016
11.8679
1.00001
1.00003
1.00009
1.0002
1.00059
1.00121
1.00345
1.00682
1.02088
1.03749
1.13529
1.23734
1.90506
3.10565
7.36596
11.6449
11.19
10.8766
10.9521
11.1707
11.3997
11.5356
11.6415
11.7261
11.7934
1.00001
1.00002
1.00009
1.00019
1.00056
1.00116
1.00329
1.00659
1.01954
1.0366
1.12437
1.22509
1.83119
2.94164
6.87623
11.6733
11.1752
10.8077
10.8767
11.0851
11.3089
11.4384
11.5387
11.6199
11.6884
1.00001
1.00002
1.00008
1.00018
1.00053
1.00108
1.00307
1.00619
1.01799
1.03499
1.11212
1.20978
1.74687
2.75022
6.28271
11.6702
11.1518
10.7239
10.7827
10.9733
11.1883
11.307
11.3966
11.4705
11.5407
1
1.00002
1.00008
1.00017
1.00048
1.00099
1.00281
1.00568
1.01639
1.03225
1.10054
1.19269
1.66065
2.549
5.63261
11.5697
11.0875
10.6224
10.6688
10.833
11.0322
11.1345
11.2059
11.2625
11.3267
1
1.00002
1.00007
1.00015
1.00044
1.0009
1.00255
1.00515
1.01487
1.0293
1.09095
1.17442
1.59434
2.38996
5.1994
11.1811
10.911
10.5079
10.5356
10.6582
10.8314
10.9083
10.9483
10.969
11.0075
1
1.00002
1.00006
1.00013
1.00039
1.0008
1.00227
1.00459
1.01327
1.02593
1.08214
1.15186
1.53592
2.22929
4.7713
10.4967
10.6099
10.4316
10.3941
10.4559
10.5836
10.6211
10.6092
10.5527
10.4935
1
1.00001
1.00005
1.00011
1.00032
1.00066
1.00191
1.00371
1.01163
1.02027
1.07453
1.12506
1.48304
2.06114
4.33492
9.64187
10.4518
10.3338
10.2196
10.2408
10.2919
10.2724
10.1781
9.95252
9.59228
1.00001
1.00003
1.0001
1.00023
1.00064
1.00132
1.00376
1.00739
1.02286
1.04075
1.14866
1.26078
2.01123
3.35451
8.06992
11.5907
11.2158
10.9707
11.0493
11.2738
11.5101
11.653
11.7615
11.8476
11.9125
1.00001
1.00003
1.0001
1.00022
1.00064
1.0013
1.00371
1.0073
1.02253
1.04021
1.14651
1.25697
1.99445
3.31565
7.96516
11.5995
11.213
10.96
11.0398
11.2655
11.5015
11.6445
11.7545
11.8421
11.9085
1.00001
1.00003
1.0001
1.00022
1.00062
1.00126
1.00361
1.00711
1.02187
1.03914
1.14205
1.24914
1.95873
3.23194
7.72993
11.6169
11.2033
10.9283
11.0073
11.2315
11.4647
11.6054
11.7148
11.8016
11.868
1.00001
1.00003
1.0001
1.00021
1.00059
1.00121
1.00346
1.00683
1.02089
1.03751
1.13531
1.23739
1.90512
3.10589
7.3665
11.6448
11.19
10.8766
10.9522
11.1708
11.3998
11.5357
11.6416
11.7262
11.7934
1.00001
1.00003
1.00009
1.0002
1.00057
1.00116
1.00329
1.0066
1.01955
1.03663
1.12437
1.22516
1.83121
2.94184
6.87668
11.6733
11.1753
10.8077
10.8768
11.0852
11.309
11.4384
11.5388
11.6199
11.6884
1.00001
1.00003
1.00009
1.00019
1.00053
1.00109
1.00307
1.0062
1.018
1.035
1.11213
1.20983
1.7469
2.75039
6.2831
11.6703
11.1519
10.724
10.7827
10.9734
11.1884
11.3071
11.3967
11.4705
11.5408
1.00001
1.00002
1.00008
1.00017
1.00049
1.001
1.00282
1.00569
1.0164
1.03227
1.10055
1.19273
1.66068
2.54913
5.63284
11.5699
11.0876
10.6224
10.6689
10.8331
11.0323
11.1346
11.206
11.2626
11.3267
1
1.00002
1.00007
1.00016
1.00044
1.00091
1.00256
1.00516
1.01488
1.02932
1.09097
1.17446
1.59436
2.39007
5.19961
11.1814
10.9111
10.508
10.5356
10.6582
10.8314
10.9084
10.9484
10.969
11.0076
1
1.00002
1.00006
1.00014
1.00039
1.00081
1.00227
1.00459
1.01328
1.02595
1.08215
1.1519
1.53593
2.2294
4.77147
10.497
10.61
10.4316
10.3942
10.4559
10.5836
10.6212
10.6092
10.5527
10.4936
1
1.00002
1.00005
1.00012
1.00033
1.00067
1.00192
1.00372
1.01164
1.02029
1.07455
1.12509
1.48305
2.06126
4.33505
9.64221
10.4518
10.3339
10.2197
10.2408
10.292
10.2725
10.1781
9.95258
9.59235
1.00001
1.00003
1.0001
1.00023
1.00064
1.00132
1.00376
1.00739
1.02286
1.04075
1.14866
1.26079
2.01124
3.35452
8.06994
11.5907
11.2158
10.9707
11.0493
11.2738
11.5101
11.653
11.7615
11.8476
11.9125
1.00001
1.00003
1.0001
1.00022
1.00064
1.0013
1.00371
1.0073
1.02253
1.04021
1.14651
1.25697
1.99445
3.31566
7.96519
11.5995
11.213
10.96
11.0398
11.2655
11.5015
11.6445
11.7545
11.8421
11.9085
1.00001
1.00003
1.0001
1.00022
1.00062
1.00126
1.00361
1.00711
1.02187
1.03914
1.14205
1.24914
1.95874
3.23195
7.72996
11.6169
11.2033
10.9283
11.0073
11.2315
11.4647
11.6054
11.7148
11.8016
11.868
1.00001
1.00003
1.0001
1.00021
1.00059
1.00121
1.00346
1.00683
1.02089
1.03751
1.13531
1.23739
1.90513
3.1059
7.36653
11.6448
11.19
10.8766
10.9522
11.1708
11.3998
11.5357
11.6416
11.7262
11.7935
1.00001
1.00003
1.00009
1.0002
1.00057
1.00116
1.00329
1.0066
1.01955
1.03663
1.12437
1.22516
1.83121
2.94185
6.87671
11.6733
11.1753
10.8077
10.8768
11.0852
11.309
11.4384
11.5388
11.6199
11.6884
1.00001
1.00003
1.00009
1.00019
1.00053
1.00109
1.00307
1.0062
1.018
1.035
1.11213
1.20983
1.74691
2.7504
6.28313
11.6703
11.1519
10.724
10.7827
10.9734
11.1884
11.3071
11.3967
11.4705
11.5408
1.00001
1.00002
1.00008
1.00017
1.00049
1.001
1.00282
1.00569
1.0164
1.03227
1.10055
1.19273
1.66068
2.54913
5.63286
11.5699
11.0876
10.6224
10.6689
10.8331
11.0323
11.1346
11.206
11.2626
11.3267
1
1.00002
1.00007
1.00016
1.00044
1.00091
1.00256
1.00516
1.01488
1.02932
1.09097
1.17446
1.59437
2.39008
5.19962
11.1814
10.9111
10.508
10.5356
10.6582
10.8314
10.9084
10.9484
10.969
11.0076
1
1.00002
1.00006
1.00014
1.00039
1.00081
1.00227
1.00459
1.01328
1.02595
1.08215
1.1519
1.53594
2.22941
4.77148
10.497
10.61
10.4316
10.3942
10.4559
10.5836
10.6212
10.6092
10.5527
10.4936
1
1.00002
1.00005
1.00012
1.00033
1.00067
1.00192
1.00372
1.01164
1.02029
1.07455
1.12509
1.48305
2.06126
4.33506
9.64223
10.4518
10.3339
10.2197
10.2408
10.292
10.2725
10.1781
9.95258
9.59235
1.00001
1.00003
1.0001
1.00023
1.00064
1.00132
1.00376
1.00739
1.02286
1.04075
1.14866
1.26079
2.01124
3.35452
8.06995
11.5907
11.2158
10.9707
11.0493
11.2738
11.5101
11.653
11.7615
11.8476
11.9125
1.00001
1.00003
1.0001
1.00022
1.00064
1.0013
1.00371
1.0073
1.02253
1.04021
1.14651
1.25697
1.99445
3.31566
7.96519
11.5995
11.213
10.96
11.0398
11.2655
11.5015
11.6445
11.7545
11.8421
11.9085
1.00001
1.00003
1.0001
1.00022
1.00062
1.00126
1.00361
1.00711
1.02187
1.03914
1.14205
1.24914
1.95874
3.23195
7.72996
11.6169
11.2033
10.9283
11.0073
11.2315
11.4647
11.6054
11.7148
11.8016
11.868
1.00001
1.00003
1.0001
1.00021
1.00059
1.00121
1.00346
1.00683
1.02089
1.03751
1.13531
1.23739
1.90513
3.1059
7.36653
11.6448
11.19
10.8766
10.9522
11.1708
11.3998
11.5357
11.6416
11.7262
11.7935
1.00001
1.00003
1.00009
1.0002
1.00057
1.00116
1.00329
1.0066
1.01955
1.03663
1.12437
1.22516
1.83121
2.94185
6.87672
11.6733
11.1753
10.8077
10.8768
11.0852
11.309
11.4384
11.5388
11.6199
11.6884
1.00001
1.00003
1.00009
1.00019
1.00053
1.00109
1.00307
1.0062
1.018
1.035
1.11213
1.20983
1.74691
2.7504
6.28313
11.6703
11.1519
10.724
10.7827
10.9734
11.1884
11.3071
11.3967
11.4705
11.5408
1.00001
1.00002
1.00008
1.00017
1.00049
1.001
1.00282
1.00569
1.0164
1.03227
1.10055
1.19273
1.66068
2.54913
5.63286
11.5699
11.0876
10.6224
10.6689
10.8331
11.0323
11.1346
11.206
11.2626
11.3267
1
1.00002
1.00007
1.00016
1.00044
1.00091
1.00256
1.00516
1.01488
1.02932
1.09097
1.17446
1.59437
2.39008
5.19962
11.1814
10.9111
10.508
10.5356
10.6582
10.8314
10.9084
10.9484
10.969
11.0076
1
1.00002
1.00006
1.00014
1.00039
1.00081
1.00227
1.00459
1.01328
1.02595
1.08215
1.1519
1.53594
2.22941
4.77148
10.497
10.61
10.4316
10.3942
10.4559
10.5836
10.6212
10.6092
10.5527
10.4936
1
1.00002
1.00005
1.00012
1.00033
1.00067
1.00192
1.00372
1.01164
1.02029
1.07455
1.12509
1.48305
2.06126
4.33506
9.64223
10.4518
10.3339
10.2197
10.2408
10.292
10.2725
10.1781
9.95258
9.59235
1.00001
1.00003
1.0001
1.00023
1.00064
1.00132
1.00376
1.00739
1.02286
1.04075
1.14866
1.26079
2.01124
3.35452
8.06995
11.5907
11.2158
10.9707
11.0493
11.2738
11.5101
11.653
11.7615
11.8476
11.9125
1.00001
1.00003
1.0001
1.00022
1.00064
1.0013
1.00371
1.0073
1.02253
1.04021
1.14651
1.25697
1.99445
3.31566
7.96519
11.5995
11.213
10.96
11.0398
11.2655
11.5015
11.6445
11.7545
11.8421
11.9085
1.00001
1.00003
1.0001
1.00022
1.00062
1.00126
1.00361
1.00711
1.02187
1.03914
1.14205
1.24914
1.95874
3.23195
7.72996
11.6169
11.2033
10.9283
11.0073
11.2315
11.4647
11.6054
11.7148
11.8016
11.868
1.00001
1.00003
1.0001
1.00021
1.00059
1.00121
1.00346
1.00683
1.02089
1.03751
1.13531
1.23739
1.90513
3.1059
7.36653
11.6448
11.19
10.8766
10.9522
11.1708
11.3998
11.5357
11.6416
11.7262
11.7935
1.00001
1.00003
1.00009
1.0002
1.00057
1.00116
1.00329
1.0066
1.01955
1.03663
1.12437
1.22516
1.83121
2.94186
6.87672
11.6733
11.1753
10.8077
10.8768
11.0852
11.309
11.4384
11.5388
11.6199
11.6884
1.00001
1.00003
1.00009
1.00019
1.00053
1.00109
1.00307
1.0062
1.018
1.035
1.11213
1.20983
1.74691
2.7504
6.28313
11.6703
11.1519
10.724
10.7827
10.9734
11.1884
11.3071
11.3967
11.4705
11.5408
1.00001
1.00002
1.00008
1.00017
1.00049
1.001
1.00282
1.00569
1.0164
1.03227
1.10055
1.19273
1.66069
2.54914
5.63286
11.5699
11.0876
10.6224
10.6689
10.8331
11.0323
11.1346
11.206
11.2626
11.3267
1
1.00002
1.00007
1.00016
1.00044
1.00091
1.00256
1.00516
1.01488
1.02932
1.09097
1.17446
1.59437
2.39008
5.19962
11.1814
10.9111
10.508
10.5356
10.6582
10.8314
10.9084
10.9484
10.969
11.0076
1
1.00002
1.00006
1.00014
1.00039
1.00081
1.00227
1.00459
1.01328
1.02595
1.08215
1.1519
1.53594
2.22941
4.77148
10.497
10.61
10.4316
10.3942
10.4559
10.5836
10.6212
10.6092
10.5527
10.4936
1
1.00002
1.00005
1.00012
1.00033
1.00067
1.00192
1.00372
1.01164
1.02029
1.07455
1.12509
1.48305
2.06126
4.33506
9.64224
10.4518
10.3339
10.2197
10.2408
10.292
10.2725
10.1781
9.95258
9.59235
1.00001
1.00003
1.0001
1.00023
1.00064
1.00132
1.00376
1.00739
1.02286
1.04075
1.14866
1.26079
2.01124
3.35452
8.06995
11.5907
11.2158
10.9707
11.0493
11.2738
11.5101
11.653
11.7615
11.8476
11.9125
1.00001
1.00003
1.0001
1.00022
1.00064
1.0013
1.00371
1.0073
1.02253
1.04021
1.14651
1.25697
1.99445
3.31566
7.96519
11.5995
11.213
10.96
11.0398
11.2655
11.5015
11.6445
11.7545
11.8421
11.9085
1.00001
1.00003
1.0001
1.00022
1.00062
1.00126
1.00361
1.00711
1.02187
1.03914
1.14205
1.24914
1.95874
3.23195
7.72996
11.6169
11.2033
10.9283
11.0073
11.2315
11.4647
11.6054
11.7148
11.8016
11.868
1.00001
1.00003
1.0001
1.00021
1.00059
1.00121
1.00346
1.00683
1.02089
1.03751
1.13531
1.23739
1.90513
3.1059
7.36653
11.6448
11.19
10.8766
10.9522
11.1708
11.3998
11.5357
11.6416
11.7262
11.7935
1.00001
1.00003
1.00009
1.0002
1.00057
1.00116
1.00329
1.0066
1.01955
1.03663
1.12437
1.22516
1.83121
2.94185
6.87672
11.6733
11.1753
10.8077
10.8768
11.0852
11.309
11.4384
11.5388
11.6199
11.6884
1.00001
1.00003
1.00009
1.00019
1.00053
1.00109
1.00307
1.0062
1.018
1.035
1.11213
1.20983
1.74691
2.7504
6.28313
11.6703
11.1519
10.724
10.7827
10.9734
11.1884
11.3071
11.3967
11.4705
11.5408
1.00001
1.00002
1.00008
1.00017
1.00049
1.001
1.00282
1.00569
1.0164
1.03227
1.10055
1.19273
1.66068
2.54913
5.63286
11.5699
11.0876
10.6224
10.6689
10.8331
11.0323
11.1346
11.206
11.2626
11.3267
1
1.00002
1.00007
1.00016
1.00044
1.00091
1.00256
1.00516
1.01488
1.02932
1.09097
1.17446
1.59437
2.39008
5.19962
11.1814
10.9111
10.508
10.5356
10.6582
10.8314
10.9084
10.9484
10.969
11.0076
1
1.00002
1.00006
1.00014
1.00039
1.00081
1.00227
1.00459
1.01328
1.02595
1.08215
1.1519
1.53594
2.22941
4.77148
10.497
10.61
10.4316
10.3942
10.4559
10.5836
10.6212
10.6092
10.5527
10.4936
1
1.00002
1.00005
1.00012
1.00033
1.00067
1.00192
1.00372
1.01164
1.02029
1.07455
1.12509
1.48305
2.06126
4.33506
9.64223
10.4518
10.3339
10.2197
10.2408
10.292
10.2725
10.1781
9.95258
9.59235
1.00001
1.00003
1.0001
1.00023
1.00064
1.00132
1.00376
1.00739
1.02286
1.04075
1.14866
1.26079
2.01124
3.35452
8.06995
11.5907
11.2158
10.9707
11.0493
11.2738
11.5101
11.653
11.7615
11.8476
11.9125
1.00001
1.00003
1.0001
1.00022
1.00064
1.0013
1.00371
1.0073
1.02253
1.04021
1.14651
1.25697
1.99445
3.31566
7.96519
11.5995
11.213
10.96
11.0398
11.2655
11.5015
11.6445
11.7545
11.8421
11.9085
1.00001
1.00003
1.0001
1.00022
1.00062
1.00126
1.00361
1.00711
1.02187
1.03914
1.14205
1.24914
1.95874
3.23195
7.72996
11.6169
11.2033
10.9283
11.0073
11.2315
11.4647
11.6054
11.7148
11.8016
11.868
1.00001
1.00003
1.0001
1.00021
1.00059
1.00121
1.00346
1.00683
1.02089
1.03751
1.13531
1.23739
1.90513
3.1059
7.36653
11.6448
11.19
10.8766
10.9522
11.1708
11.3998
11.5357
11.6416
11.7262
11.7935
1.00001
1.00003
1.00009
1.0002
1.00057
1.00116
1.00329
1.0066
1.01955
1.03663
1.12437
1.22516
1.83121
2.94185
6.87671
11.6733
11.1753
10.8077
10.8768
11.0852
11.309
11.4384
11.5388
11.6199
11.6884
1.00001
1.00003
1.00009
1.00019
1.00053
1.00109
1.00307
1.0062
1.018
1.035
1.11213
1.20983
1.74691
2.7504
6.28313
11.6703
11.1519
10.724
10.7827
10.9734
11.1884
11.3071
11.3967
11.4705
11.5408
1.00001
1.00002
1.00008
1.00017
1.00049
1.001
1.00282
1.00569
1.0164
1.03227
1.10055
1.19273
1.66068
2.54913
5.63286
11.5699
11.0876
10.6224
10.6689
10.8331
11.0323
11.1346
11.206
11.2626
11.3267
1
1.00002
1.00007
1.00016
1.00044
1.00091
1.00256
1.00516
1.01488
1.02932
1.09097
1.17446
1.59437
2.39008
5.19962
11.1814
10.9111
10.508
10.5356
10.6582
10.8314
10.9084
10.9484
10.969
11.0076
1
1.00002
1.00006
1.00014
1.00039
1.00081
1.00227
1.00459
1.01328
1.02595
1.08215
1.1519
1.53594
2.22941
4.77148
10.497
10.61
10.4316
10.3942
10.4559
10.5836
10.6212
10.6092
10.5527
10.4936
1
1.00002
1.00005
1.00012
1.00033
1.00067
1.00192
1.00372
1.01164
1.02029
1.07455
1.12509
1.48305
2.06126
4.33506
9.64223
10.4518
10.3339
10.2197
10.2408
10.292
10.2725
10.1781
9.95258
9.59235
1.00001
1.00003
1.0001
1.00023
1.00064
1.00132
1.00376
1.00739
1.02286
1.04075
1.14866
1.26079
2.01124
3.35452
8.06994
11.5907
11.2158
10.9707
11.0493
11.2738
11.5101
11.653
11.7615
11.8476
11.9125
1.00001
1.00003
1.0001
1.00022
1.00064
1.0013
1.00371
1.0073
1.02253
1.04021
1.14651
1.25697
1.99445
3.31566
7.96519
11.5995
11.213
10.96
11.0398
11.2655
11.5015
11.6445
11.7545
11.8421
11.9085
1.00001
1.00003
1.0001
1.00022
1.00062
1.00126
1.00361
1.00711
1.02187
1.03914
1.14205
1.24914
1.95874
3.23195
7.72996
11.6169
11.2033
10.9283
11.0073
11.2315
11.4647
11.6054
11.7148
11.8016
11.868
1.00001
1.00003
1.0001
1.00021
1.00059
1.00121
1.00346
1.00683
1.02089
1.03751
1.13531
1.23739
1.90513
3.1059
7.36653
11.6448
11.19
10.8766
10.9522
11.1708
11.3998
11.5357
11.6416
11.7262
11.7935
1.00001
1.00003
1.00009
1.0002
1.00057
1.00116
1.00329
1.0066
1.01955
1.03663
1.12437
1.22516
1.83121
2.94185
6.87671
11.6733
11.1753
10.8077
10.8768
11.0852
11.309
11.4384
11.5388
11.6199
11.6884
1.00001
1.00003
1.00009
1.00019
1.00053
1.00109
1.00307
1.0062
1.018
1.035
1.11213
1.20983
1.74691
2.7504
6.28313
11.6703
11.1519
10.724
10.7827
10.9734
11.1884
11.3071
11.3967
11.4705
11.5408
1.00001
1.00002
1.00008
1.00017
1.00049
1.001
1.00282
1.00569
1.0164
1.03227
1.10055
1.19273
1.66068
2.54913
5.63286
11.5699
11.0876
10.6224
10.6689
10.8331
11.0323
11.1346
11.206
11.2626
11.3267
1
1.00002
1.00007
1.00016
1.00044
1.00091
1.00256
1.00516
1.01488
1.02932
1.09097
1.17446
1.59437
2.39008
5.19962
11.1814
10.9111
10.508
10.5356
10.6582
10.8314
10.9084
10.9484
10.969
11.0076
1
1.00002
1.00006
1.00014
1.00039
1.00081
1.00227
1.00459
1.01328
1.02595
1.08215
1.1519
1.53594
2.22941
4.77148
10.497
10.61
10.4316
10.3942
10.4559
10.5836
10.6212
10.6092
10.5527
10.4936
1
1.00002
1.00005
1.00012
1.00033
1.00067
1.00192
1.00372
1.01164
1.02029
1.07455
1.12509
1.48305
2.06126
4.33506
9.64223
10.4518
10.3339
10.2197
10.2408
10.292
10.2725
10.1781
9.95258
9.59235
1.00001
1.00003
1.0001
1.00023
1.00064
1.00132
1.00376
1.00739
1.02286
1.04075
1.14866
1.26078
2.01123
3.35451
8.06992
11.5907
11.2158
10.9707
11.0493
11.2738
11.5101
11.653
11.7615
11.8476
11.9125
1.00001
1.00003
1.0001
1.00022
1.00064
1.0013
1.00371
1.0073
1.02253
1.04021
1.14651
1.25697
1.99445
3.31565
7.96516
11.5995
11.213
10.96
11.0398
11.2655
11.5015
11.6445
11.7545
11.8421
11.9085
1.00001
1.00003
1.0001
1.00022
1.00062
1.00126
1.00361
1.00711
1.02187
1.03914
1.14205
1.24914
1.95873
3.23194
7.72993
11.6169
11.2033
10.9283
11.0073
11.2315
11.4647
11.6054
11.7148
11.8016
11.868
1.00001
1.00003
1.0001
1.00021
1.00059
1.00121
1.00346
1.00683
1.02089
1.03751
1.13531
1.23739
1.90512
3.10589
7.3665
11.6448
11.19
10.8766
10.9522
11.1708
11.3998
11.5357
11.6416
11.7262
11.7934
1.00001
1.00003
1.00009
1.0002
1.00057
1.00116
1.00329
1.0066
1.01955
1.03663
1.12437
1.22516
1.83121
2.94184
6.87668
11.6733
11.1753
10.8077
10.8768
11.0852
11.309
11.4384
11.5388
11.6199
11.6884
1.00001
1.00003
1.00009
1.00019
1.00053
1.00109
1.00307
1.0062
1.018
1.035
1.11213
1.20983
1.7469
2.75039
6.2831
11.6703
11.1519
10.724
10.7827
10.9734
11.1884
11.3071
11.3967
11.4705
11.5408
1.00001
1.00002
1.00008
1.00017
1.00049
1.001
1.00282
1.00569
1.0164
1.03227
1.10055
1.19273
1.66068
2.54913
5.63284
11.5699
11.0876
10.6224
10.6689
10.8331
11.0323
11.1346
11.206
11.2626
11.3267
1
1.00002
1.00007
1.00016
1.00044
1.00091
1.00256
1.00516
1.01488
1.02932
1.09097
1.17446
1.59436
2.39007
5.19961
11.1814
10.9111
10.508
10.5356
10.6582
10.8314
10.9084
10.9484
10.969
11.0076
1
1.00002
1.00006
1.00014
1.00039
1.00081
1.00227
1.00459
1.01328
1.02595
1.08215
1.1519
1.53593
2.2294
4.77147
10.497
10.61
10.4316
10.3942
10.4559
10.5836
10.6212
10.6092
10.5527
10.4936
1
1.00002
1.00005
1.00012
1.00033
1.00067
1.00192
1.00372
1.01164
1.02029
1.07455
1.12509
1.48305
2.06126
4.33505
9.64221
10.4518
10.3339
10.2197
10.2408
10.292
10.2725
10.1781
9.95258
9.59235
1.00001
1.00003
1.0001
1.00022
1.00064
1.00131
1.00376
1.00738
1.02285
1.04073
1.14864
1.26073
2.01116
3.35424
8.06936
11.5908
11.2158
10.9707
11.0493
11.2738
11.51
11.6529
11.7614
11.8476
11.9124
1.00001
1.00003
1.0001
1.00022
1.00063
1.00129
1.00371
1.00729
1.02252
1.04019
1.14649
1.25692
1.99437
3.31539
7.9646
11.5996
11.2129
10.9599
11.0397
11.2654
11.5014
11.6445
11.7545
11.842
11.9084
1.00001
1.00003
1.0001
1.00021
1.00061
1.00126
1.0036
1.0071
1.02186
1.03912
1.14202
1.24909
1.95866
3.23168
7.72939
11.6169
11.2032
10.9282
11.0072
11.2314
11.4646
11.6053
11.7147
11.8016
11.8679
1.00001
1.00003
1.00009
1.0002
1.00059
1.00121
1.00345
1.00682
1.02088
1.03749
1.13529
1.23734
1.90506
3.10566
7.36596
11.6449
11.19
10.8766
10.9521
11.1707
11.3997
11.5356
11.6415
11.7261
11.7934
1.00001
1.00002
1.00009
1.00019
1.00056
1.00116
1.00329
1.00659
1.01954
1.0366
1.12437
1.22509
1.83119
2.94164
6.87623
11.6733
11.1752
10.8077
10.8767
11.0851
11.3089
11.4384
11.5387
11.6199
11.6884
1.00001
1.00002
1.00008
1.00018
1.00053
1.00108
1.00307
1.00619
1.01799
1.03499
1.11212
1.20978
1.74687
2.75022
6.28271
11.6702
11.1518
10.7239
10.7827
10.9733
11.1883
11.307
11.3966
11.4705
11.5407
1
1.00002
1.00008
1.00017
1.00048
1.00099
1.00281
1.00568
1.01639
1.03225
1.10054
1.19269
1.66065
2.549
5.63261
11.5697
11.0875
10.6224
10.6688
10.833
11.0322
11.1345
11.2059
11.2625
11.3267
1
1.00002
1.00007
1.00015
1.00044
1.0009
1.00255
1.00515
1.01487
1.0293
1.09095
1.17442
1.59434
2.38996
5.1994
11.1811
10.911
10.5079
10.5356
10.6582
10.8314
10.9083
10.9483
10.969
11.0075
1
1.00002
1.00006
1.00013
1.00039
1.0008
1.00227
1.00459
1.01327
1.02593
1.08214
1.15186
1.53592
2.22929
4.7713
10.4967
10.6099
10.4316
10.3941
10.4559
10.5836
10.6211
10.6092
10.5527
10.4935
1
1.00001
1.00005
1.00011
1.00032
1.00066
1.00191
1.00371
1.01163
1.02027
1.07453
1.12506
1.48304
2.06114
4.33492
9.64186
10.4518
10.3338
10.2196
10.2408
10.2919
10.2724
10.1781
9.95252
9.59228
1
1.00001
1.00004
1.00012
1.00025
1.00072
1.00145
1.0042
1.00819
1.0257
1.04552
1.16603
1.29823
2.12425
3.67323
8.63995
10.355
10.2462
10.0407
10.0061
9.97925
9.88174
9.61852
9.00856
7.47178
1
1.00001
1.00003
1.0001
1.00022
1.00062
1.00126
1.00362
1.00712
1.02188
1.03915
1.1416
1.24904
1.9499
3.19892
7.45728
10.2711
10.1499
9.87677
9.76088
9.66996
9.47311
9.05593
8.22221
6.62447
1
1.00001
1.00003
1.00009
1.00019
1.00054
1.0011
1.00311
1.00628
1.01828
1.03526
1.11441
1.21195
1.7585
2.76036
6.18671
10.1778
10.0509
9.73224
9.51978
9.3639
9.08512
8.57438
7.7189
6.41671
1
1.00001
1.00002
1.00007
1.00015
1.00044
1.00091
1.00257
1.0052
1.01492
1.02952
1.09002
1.17688
1.57892
2.34832
4.89949
9.90023
9.86735
9.61176
9.29742
9.07196
8.74888
8.22096
7.43015
6.37534
1
1.00001
1.00002
1.00006
1.00012
1.00035
1.00073
1.00206
1.00416
1.01203
1.02322
1.07419
1.13602
1.47475
2.07374
4.21897
9.07674
9.58182
9.42397
9.0933
8.81322
8.46592
7.96362
7.25581
6.36794
1
1
1.00002
1.00004
1.00011
1.00023
1.00067
1.00136
1.00391
1.00756
1.02392
1.04169
1.15314
1.26928
2.03192
3.36885
7.65645
9.30187
9.20612
8.94147
8.59879
8.23174
7.76004
7.12843
6.3642
1
1
1.00001
1.00003
1.00009
1.00019
1.00055
1.00113
1.00319
1.00643
1.01879
1.03566
1.11793
1.21584
1.77409
2.78059
6.10659
9.12706
9.06897
8.83472
8.43238
8.04642
7.59448
7.02511
6.35538
0.999998
1
1.00001
1.00002
1.00007
1.00015
1.00042
1.00087
1.00245
1.00495
1.01421
1.02808
1.0854
1.16783
1.54224
2.24983
4.50074
8.77021
8.93257
8.74761
8.33508
7.90117
7.45936
6.94289
6.34745
0.999996
0.999998
1
1.00002
1.00004
1.00013
1.00027
1.00076
1.00155
1.00439
1.00864
1.02631
1.04744
1.16702
1.30353
2.09125
3.55525
7.81752
8.70043
8.57316
8.2424
7.78333
7.34605
6.87113
6.33684
0.999995
0.999996
0.999999
1.00001
1.00003
1.00009
1.0002
1.00057
1.00116
1.0033
1.0065
1.01978
1.0355
1.12609
1.22166
1.81828
2.85093
6.1979
8.42053
8.37288
8.15486
7.70411
7.26194
6.81555
6.3297
0.999994
0.999994
0.999997
1
1.00002
1.00005
1.00017
1.00034
1.00098
1.00196
1.00574
1.01066
1.03544
1.06024
1.22044
1.43015
2.37864
4.39505
7.9898
8.23433
8.07807
7.69167
7.21313
6.7739
6.32373
0.999993
0.999993
0.999996
1
1.00001
1.00004
1.00012
1.00025
1.00072
1.00147
1.00415
1.00818
1.02471
1.04476
1.15606
1.28142
2.0026
3.29285
6.99329
8.02866
7.93496
7.65982
7.19784
6.75226
6.32426
0.999992
0.999993
0.999994
0.999998
1
1.00003
1.00007
1.0002
1.00042
1.00119
1.00234
1.00713
1.0126
1.04469
1.07357
1.27717
1.54653
2.74698
5.31256
7.70432
7.72565
7.58245
7.2165
6.75492
6.32827
0.999992
0.999992
0.999993
0.999996
1
1.00002
1.00005
1.00015
1.00031
1.00087
1.00177
1.00496
1.00995
1.02894
1.05511
1.17627
1.35035
2.1046
3.55812
7.06478
7.60777
7.50396
7.21977
6.7728
6.34209
0.999991
0.999992
0.999992
0.999994
0.999999
1.00001
1.00004
1.00008
1.00024
1.0005
1.00141
1.00284
1.0081
1.01568
1.04898
1.08765
1.3041
1.62313
2.88894
5.5879
7.35709
7.34592
7.19724
6.83412
6.37582
0.999991
0.999991
0.999992
0.999993
0.999996
1
1.00002
1.00005
1.00016
1.00034
1.00095
1.00193
1.00539
1.01065
1.03175
1.05773
1.1954
1.37244
2.18074
3.7613
6.83635
7.2428
7.14638
6.8844
6.43896
0.999991
0.999991
0.999991
0.999992
0.999994
0.999999
1.00001
1.00004
1.00009
1.00026
1.00054
1.00152
1.00308
1.00867
1.01714
1.05114
1.09718
1.30988
1.68007
2.90694
5.621
7.01952
7.01182
6.87385
6.54655
0.999991
0.999991
0.999991
0.999992
0.999993
0.999996
1
1.00002
1.00006
1.00017
1.00036
1.00099
1.00201
1.00561
1.01108
1.03291
1.05995
1.20133
1.38586
2.20644
3.81067
6.51603
6.89989
6.82215
6.59686
0.999991
0.999991
0.999991
0.999991
0.999992
0.999994
0.999999
1.00001
1.00004
1.00009
1.00027
1.00055
1.00154
1.00312
1.00878
1.01742
1.05102
1.10071
1.3042
1.67846
2.84035
5.36248
6.66388
6.68346
6.5772
0.999991
0.99999
0.999991
0.999991
0.999991
0.999993
0.999995
1
1.00002
1.00007
1.00014
1.00041
1.00084
1.00233
1.0047
1.01319
1.02602
1.07691
1.15076
1.45933
2.02196
3.60355
6.14217
6.56856
6.51571
0.999991
0.99999
0.99999
0.999991
0.999991
0.999992
0.999993
0.999999
1.00001
1.00004
1.00009
1.00026
1.00053
1.00147
1.00299
1.0083
1.01652
1.04765
1.09351
1.28115
1.61737
2.67681
4.95959
6.31661
6.38992
0.999991
0.99999
0.99999
0.99999
0.999991
0.999991
0.999993
0.999995
1
1.00002
1.00006
1.00013
1.00038
1.00077
1.00213
1.00429
1.01195
1.02365
1.06837
1.13705
1.39973
1.88905
3.21159
5.75236
6.27219
0.999991
0.99999
0.99999
0.99999
0.99999
0.999991
0.999992
0.999993
0.999998
1.00001
1.00003
1.00008
1.00023
1.00048
1.00133
1.0027
1.00739
1.01484
1.04177
1.08304
1.24517
1.52599
2.46046
4.46716
5.96771
0.999991
0.99999
0.99999
0.99999
0.99999
0.999991
0.999991
0.999992
0.999995
1
1.00002
1.00004
1.00014
1.00029
1.00079
1.00162
1.0044
1.00885
1.02462
1.04881
1.14181
1.28996
1.82825
2.87221
5.27974
0.999991
0.99999
0.99999
0.99999
0.99999
0.99999
0.999991
0.999991
0.999993
0.999996
1.00001
1.00002
1.00008
1.00017
1.00047
1.00097
1.00265
1.00535
1.01483
1.02914
1.08646
1.16402
1.51418
2.1085
3.8
0.999991
0.99999
0.99999
0.99999
0.99999
0.99999
0.99999
0.999991
0.999992
0.999994
0.999998
1.00001
1.00003
1.00011
1.00023
1.00065
1.00132
1.0036
1.00715
1.02054
1.038
1.12203
1.22283
1.70375
2.51094
0.999991
0.99999
0.99999
0.99999
0.99999
0.99999
0.99999
0.999991
0.999991
0.999992
0.999996
1
1.00002
1.00005
1.00015
1.00032
1.00088
1.00178
1.00486
1.00957
1.0278
1.05075
1.16256
1.30565
1.89886
0.999991
0.99999
0.99999
0.99999
0.99999
0.99999
0.99999
0.99999
0.999991
0.999992
0.999993
0.999998
1.00001
1.00003
1.00007
1.00021
1.00044
1.00121
1.00244
1.00675
1.01319
1.03883
1.07146
1.22424
1.4525
0.999991
0.99999
0.99999
0.99999
0.99999
0.99999
0.99999
0.99999
0.99999
0.999991
0.999992
0.999995
0.999999
1.00001
1.00004
1.00012
1.00025
1.00069
1.0014
1.0038
1.00764
1.02113
1.04118
1.12143
1.23579
0.999991
0.99999
0.99999
0.99999
0.99999
0.99999
0.99999
0.99999
0.99999
0.999991
0.999991
0.999992
0.999996
1
1.00002
1.00005
1.00016
1.00033
1.00089
1.00182
1.00491
1.00976
1.02757
1.05152
1.1585
0.999991
0.99999
0.99999
0.99999
0.99999
0.99999
0.99999
0.99999
0.99999
0.99999
0.999991
0.999992
0.999993
0.999998
1.00001
1.00003
1.00007
1.00021
1.00044
1.00119
1.0024
1.00653
1.013
1.03624
1.07278
0.999991
0.99999
0.99999
0.99999
0.99999
0.99999
0.99999
0.99999
0.99999
0.99999
0.999991
0.999991
0.999992
0.999994
1
1.00001
1.00004
1.0001
1.00027
1.00057
1.00153
1.00309
1.00838
1.01688
1.04606
0.999991
0.99999
0.99999
0.99999
0.99999
0.99999
0.99999
0.99999
0.99999
0.99999
0.99999
0.999991
0.999991
0.999992
0.999996
1
1.00002
1.00005
1.00015
1.0003
1.00082
1.00167
1.00447
1.00899
1.02423
0.999991
0.99999
0.99999
0.99999
0.99999
0.99999
0.99999
0.99999
0.99999
0.99999
0.99999
0.99999
0.999991
0.999991
0.999993
0.999997
1
1.00003
1.00006
1.00019
1.00039
1.00105
1.00212
1.00567
1.01141
0.999991
0.99999
0.99999
0.99999
0.99999
0.99999
0.99999
0.99999
0.99999
0.99999
0.99999
0.99999
0.999991
0.999991
0.999992
0.999994
0.999999
1.00001
1.00004
1.00009
1.00025
1.00051
1.00138
1.00279
1.00751
0.999991
0.99999
0.99999
0.99999
0.99999
0.99999
0.99999
0.99999
0.99999
0.99999
0.99999
0.99999
0.99999
0.999991
0.999991
0.999993
0.999995
1
1.00002
1.00006
1.00013
1.00036
1.00074
1.00202
1.00407
0.999991
0.99999
0.99999
0.99999
0.99999
0.99999
0.99999
0.99999
0.99999
0.99999
0.99999
0.99999
0.99999
0.99999
0.999991
0.999992
0.999994
0.999998
1.00001
1.00003
1.00011
1.00023
1.00065
1.00133
1.00368
0.999991
0.99999
0.99999
0.99999
0.99999
0.99999
0.99999
0.99999
0.99999
0.99999
0.99999
0.99999
0.99999
0.99999
0.999991
0.999991
0.999993
0.999997
1.00001
1.00003
1.00009
1.00019
1.00056
1.00114
1.00325
0.999991
0.99999
0.99999
0.99999
0.99999
0.99999
0.99999
0.99999
0.99999
0.99999
0.99999
0.99999
0.99999
0.99999
0.999991
0.999991
0.999993
0.999997
1
1.00003
1.00007
1.0002
1.00042
1.00121
1.00236
0.999991
0.99999
0.99999
0.99999
0.99999
0.99999
0.99999
0.99999
0.99999
0.99999
0.99999
0.99999
0.99999
0.99999
0.999991
0.999991
0.999993
0.999997
1
1.00003
1.00007
1.0002
1.00042
1.00122
1.00244
1
1.00002
1.00004
1.00012
1.00026
1.00072
1.00146
1.00421
1.0082
1.02571
1.04554
1.16605
1.29828
2.12429
3.67342
8.6403
10.355
10.2463
10.0407
10.0062
9.9793
9.88179
9.61857
9.00861
7.47183
1
1.00002
1.00004
1.00011
1.00022
1.00063
1.00127
1.00362
1.00713
1.02189
1.03917
1.14162
1.24908
1.94994
3.1991
7.45764
10.2711
10.1499
9.87682
9.76092
9.67
9.47316
9.05597
8.22226
6.62451
1
1.00001
1.00003
1.00009
1.00019
1.00054
1.00111
1.00312
1.00629
1.01829
1.03528
1.11441
1.21201
1.75851
2.76052
6.18705
10.1778
10.051
9.73229
9.51982
9.36395
9.08516
8.57443
7.71894
6.41675
1
1.00001
1.00003
1.00008
1.00016
1.00045
1.00092
1.00258
1.00521
1.01493
1.02954
1.09003
1.17692
1.57895
2.34842
4.89967
9.90039
9.86745
9.6118
9.29746
9.07201
8.74892
8.221
7.43019
6.37537
1
1.00001
1.00002
1.00006
1.00013
1.00036
1.00074
1.00207
1.00417
1.01204
1.02325
1.0742
1.13607
1.47475
2.07384
4.21909
9.07704
9.5819
9.42403
9.09333
8.81326
8.46597
7.96367
7.25585
6.36798
1
1.00001
1.00002
1.00004
1.00012
1.00024
1.00068
1.00137
1.00392
1.00758
1.02393
1.04171
1.15316
1.26932
2.03194
3.36901
7.65672
9.30193
9.20616
8.94151
8.59883
8.23178
7.76008
7.12846
6.36423
1
1
1.00002
1.00003
1.0001
1.0002
1.00056
1.00114
1.0032
1.00644
1.0188
1.03569
1.11793
1.2159
1.77408
2.78073
6.10686
9.12713
9.06902
8.83475
8.43242
8.04645
7.59451
7.02514
6.35541
1
1
1.00001
1.00003
1.00008
1.00015
1.00043
1.00088
1.00246
1.00496
1.01422
1.0281
1.08541
1.16786
1.54227
2.24994
4.50103
8.77032
8.93261
8.74764
8.33511
7.9012
7.45938
6.94292
6.34747
1
1
1.00001
1.00002
1.00005
1.00014
1.00028
1.00077
1.00156
1.0044
1.00865
1.02632
1.04745
1.16705
1.30357
2.09131
3.5554
7.81774
8.70047
8.5732
8.24242
7.78334
7.34607
6.87115
6.33686
1
1
1.00001
1.00002
1.00004
1.0001