/*--------------------------------*- C++ -*----------------------------------*\
| =========                 |                                                 |
| \\      /  F ield         | OpenFOAM: The Open Source CFD Toolbox           |
|  \\    /   O peration     | Version:  4.1                                   |
|   \\  /    A nd           | Web:      www.OpenFOAM.org                      |
|    \\/     M anipulation  |                                                 |
\*---------------------------------------------------------------------------*/
FoamFile
{
    version     2.0;
    format      ascii;
    class       surfaceScalarField;
    location    "3.36";
    object      phi;
}
// * * * * * * * * * * * * * * * * * * * * * * * * * * * * * * * * * * * * * //

dimensions      [1 0 -1 0 0 0 0];

internalField   nonuniform List<scalar> 
150500
(
0.0168001
1.7488e-10
-3.3834e-12
0.0168001
9.67612e-10
-1.16471e-11
0.0168001
3.61133e-09
-1.34587e-11
0.0168
9.23362e-09
-2.17023e-11
0.0168
2.56246e-08
-2.12945e-11
0.0168
5.83463e-08
-2.91936e-11
0.0167998
1.56232e-07
-2.9104e-11
0.0167995
3.37428e-07
-4.007e-11
0.0167984
9.76962e-07
-4.13274e-11
0.0167965
2.0167e-06
-7.65297e-11
0.0167893
6.63835e-06
-9.30099e-11
0.0167745
1.50045e-05
-2.2702e-10
0.0167081
6.50242e-05
-2.74716e-10
0.0165242
0.000182986
-1.13763e-09
0.0154363
0.00107989
-2.46568e-09
0.0141454
0.00129424
3.95379e-10
0.0128979
0.00124722
-8.09491e-11
0.0116026
0.00129477
-3.54313e-10
0.0102396
0.00136155
-3.57867e-10
0.00879459
0.00144558
-3.35449e-10
0.0072458
0.00155037
-2.86669e-10
0.00558957
0.00165745
-2.81712e-10
0.00383597
0.00175734
-2.81633e-10
0.0019754
0.00186024
-2.87066e-10
0.00197259
-2.90661e-10
0.0168001
3.4728e-10
-3.376e-12
0.0168001
1.91411e-09
-1.16468e-11
0.0168001
7.15946e-09
-1.34632e-11
0.0168
1.82633e-08
-2.16694e-11
0.0168
5.08827e-08
-2.13228e-11
0.0168
1.15676e-07
-2.91364e-11
0.0167998
3.12146e-07
-2.90646e-11
0.0167995
6.69801e-07
-3.98567e-11
0.0167984
1.97709e-06
-4.1164e-11
0.0167964
4.02957e-06
-7.55829e-11
0.016789
1.35424e-05
-9.19339e-11
0.0167738
3.03363e-05
-2.23019e-10
0.0167052
0.000132283
-2.71498e-10
0.0165167
0.000370637
-1.11581e-09
0.0154405
0.00214793
-2.44156e-09
0.0141192
0.00261889
3.89883e-10
0.0128863
0.00247982
-8.3705e-11
0.0116102
0.0025703
-3.58255e-10
0.0102569
0.00271341
-3.62599e-10
0.00879934
0.00290375
-3.40723e-10
0.00723176
0.00311954
-2.91569e-10
0.00555912
0.0033313
-2.86304e-10
0.00378508
0.00353516
-2.83225e-10
0.00191457
0.00373059
-2.85397e-10
0.00388419
-2.86832e-10
0.0168001
5.04056e-10
-3.36342e-12
0.0168001
2.7586e-09
-1.16416e-11
0.0168001
1.03086e-08
-1.34826e-11
0.0168
2.6174e-08
-2.15822e-11
0.0168
7.31922e-08
-2.14181e-11
0.0168
1.65882e-07
-2.9009e-11
0.0167998
4.50385e-07
-2.90316e-11
0.0167995
9.62115e-07
-3.94636e-11
0.0167986
2.85346e-06
-4.09921e-11
0.0167968
5.80752e-06
-7.39131e-11
0.01679
1.99103e-05
-9.01012e-11
0.0167754
4.50435e-05
-2.15517e-10
0.0167105
0.00019582
-2.63486e-10
0.0165325
0.000547719
-1.06814e-09
0.015546
0.00312608
-2.39251e-09
0.0141994
0.00396886
3.70355e-10
0.0129633
0.00371557
-8.67504e-11
0.0116981
0.00383504
-3.58807e-10
0.0103562
0.00405392
-3.63583e-10
0.00889861
0.00436203
-3.43063e-10
0.00732433
0.00469537
-2.96238e-10
0.00563506
0.00502175
-2.92223e-10
0.00383355
0.00534079
-2.86748e-10
0.00193671
0.00562704
-2.85742e-10
0.00581861
-2.83453e-10
0.0168001
5.63245e-10
-3.3432e-12
0.0168001
3.13564e-09
-1.16362e-11
0.0168001
1.17351e-08
-1.34969e-11
0.0168001
2.99107e-08
-2.14814e-11
0.0168
8.29783e-08
-2.14869e-11
0.0168
1.86142e-07
-2.88117e-11
0.0167999
5.19434e-07
-2.88305e-11
0.0167999
9.91166e-07
-3.85417e-11
0.016799
3.71533e-06
-4.01932e-11
0.0167994
5.43607e-06
-6.92484e-11
0.0167899
2.89238e-05
-8.41351e-11
0.016782
5.29905e-05
-1.9913e-10
0.0167183
0.000258184
-2.45082e-10
0.0165674
0.000697744
-9.89437e-10
0.0157541
0.00393051
-2.32101e-09
0.0143879
0.00533843
2.78387e-10
0.0131446
0.00495877
-1.29899e-10
0.0118854
0.00509378
-3.53459e-10
0.0105551
0.00538285
-3.52965e-10
0.00910427
0.00581363
-3.36788e-10
0.00752893
0.00627222
-3.14851e-10
0.00583102
0.00672119
-3.18144e-10
0.00399429
0.00718113
-3.09219e-10
0.00202347
0.0075978
-3.02868e-10
0.00783971
-2.95401e-10
0.0168001
7.59689e-10
-3.33775e-12
0.0168001
4.1862e-09
-1.15987e-11
0.0168001
1.55887e-08
-1.35935e-11
0.0168
3.981e-08
-2.13567e-11
0.0168
1.10299e-07
-2.18122e-11
0.0167999
2.50784e-07
-2.89353e-11
0.0167998
6.74368e-07
-2.95365e-11
0.0167994
1.42066e-06
-4.20815e-11
0.0167985
4.44768e-06
-3.68157e-11
0.0167966
7.41133e-06
-1.09994e-10
0.0167918
3.32846e-05
2.44448e-12
0.0167813
6.36925e-05
-2.93953e-10
0.0167463
0.000291817
-4.77149e-11
0.0166513
0.000792048
-8.46653e-10
0.0162035
0.0043691
-1.9326e-09
0.0148167
0.0067285
3.90868e-11
0.0135122
0.00626369
-2.94908e-10
0.0122324
0.00637378
-3.798e-10
0.0109089
0.00670556
-3.57286e-10
0.0094615
0.00726187
-3.23158e-10
0.00787609
0.00785934
-3.30893e-10
0.00614428
0.00845449
-3.42759e-10
0.00425353
0.00907546
-3.35392e-10
0.00219188
0.00965972
-3.28977e-10
0.0100294
-3.21083e-10
0.0168001
9.01687e-10
-3.30923e-12
0.0168001
4.96013e-09
-1.15796e-11
0.0168001
1.84864e-08
-1.35558e-11
0.0168
4.72846e-08
-2.12404e-11
0.0168
1.31058e-07
-2.15087e-11
0.0168
2.99533e-07
-2.82148e-11
0.0167998
7.91438e-07
-2.80589e-11
0.0167995
1.75214e-06
-3.58662e-11
0.0167991
4.82801e-06
-3.73353e-11
0.0167965
9.95278e-06
-6.57434e-11
0.0167957
3.3685e-05
-4.18307e-11
0.0167913
6.82487e-05
-2.00296e-10
0.0167862
0.000295573
-1.18477e-10
0.0167842
0.000793385
-7.10568e-10
0.0169522
0.00419191
-1.67743e-09
0.0155395
0.00814286
-1.95904e-10
0.0140877
0.00771566
-3.56571e-10
0.0127536
0.00770815
-3.46873e-10
0.0114198
0.0080385
-3.26939e-10
0.00999193
0.00869093
-3.05664e-10
0.00839457
0.0094585
-3.33902e-10
0.00662951
0.0102217
-3.53562e-10
0.00465798
0.011051
-3.51646e-10
0.00243106
0.0118874
-3.52195e-10
0.0124582
-3.52812e-10
0.0168001
9.4999e-10
-3.2736e-12
0.0168001
5.25604e-09
-1.15845e-11
0.0168001
1.95664e-08
-1.35357e-11
0.0168001
5.02108e-08
-2.12142e-11
0.0168
1.38118e-07
-2.14224e-11
0.0168
3.15976e-07
-2.8066e-11
0.0168
8.23554e-07
-2.76299e-11
0.0167999
1.83215e-06
-3.50243e-11
0.0167998
4.8376e-06
-3.64011e-11
0.0167992
1.05904e-05
-5.2014e-11
0.016802
3.06126e-05
-5.24185e-11
0.0168011
6.91555e-05
-1.52308e-10
0.0168484
0.000247349
-1.12912e-10
0.0169773
0.000662904
-5.33008e-10
0.0180447
0.00312042
-9.73896e-10
0.0166878
0.00949779
-7.89637e-10
0.0149106
0.00949214
-4.62564e-10
0.0135007
0.00911779
-2.96877e-10
0.0121449
0.00939317
-2.83998e-10
0.0107039
0.0101314
-2.79712e-10
0.00909764
0.0110665
-3.12438e-10
0.00728257
0.0120379
-3.40752e-10
0.00522984
0.013108
-3.51373e-10
0.00283866
0.0142798
-3.63624e-10
0.0152947
-3.75806e-10
0.0168001
1.0354e-09
-3.24154e-12
0.0168001
5.74747e-09
-1.15939e-11
0.0168001
2.14429e-08
-1.35361e-11
0.0168001
5.52313e-08
-2.12133e-11
0.0168
1.52008e-07
-2.14088e-11
0.0168
3.48961e-07
-2.80333e-11
0.0167999
9.07353e-07
-2.75319e-11
0.0167997
2.04197e-06
-3.47688e-11
0.0167992
5.26309e-06
-3.58454e-11
0.0167978
1.19769e-05
-5.04867e-11
0.0167975
3.07096e-05
-4.93456e-11
0.016789
7.76345e-05
-1.45981e-10
0.0168068
0.00022851
-9.27296e-11
0.0168249
0.000644638
-4.6156e-10
0.0171873
0.00275306
-8.64928e-10
0.0166384
0.0100413
-1.25231e-09
0.0151708
0.010958
-5.40583e-10
0.0140392
0.0102498
-2.37738e-10
0.0128086
0.0106236
-2.3725e-10
0.0114545
0.0114857
-2.54551e-10
0.00991423
0.0126074
-2.89325e-10
0.00813515
0.0138182
-3.1697e-10
0.00603951
0.0152073
-3.31529e-10
0.00344187
0.0168789
-3.55198e-10
0.0187348
-3.82678e-10
0.0168001
1.37601e-09
-3.21481e-12
0.0168001
6.15079e-09
-1.15962e-11
0.0168001
2.50173e-08
-1.35491e-11
0.0168
6.03774e-08
-2.12174e-11
0.0168
1.75807e-07
-2.14526e-11
0.0168
3.85264e-07
-2.81271e-11
0.0167999
1.02659e-06
-2.78454e-11
0.0167996
2.33354e-06
-3.55789e-11
0.0167994
5.40378e-06
-3.66866e-11
0.0167978
1.35602e-05
-5.88693e-11
0.0167967
3.15768e-05
-3.9714e-11
0.0168022
7.20079e-05
-1.74952e-10
0.0167943
0.000235231
-4.55784e-11
0.0168042
0.000635693
-4.67019e-10
0.0169907
0.00256245
-6.96145e-10
0.0163033
0.010722
-1.39231e-09
0.0157127
0.0115479
-2.92295e-10
0.0145265
0.0114359
-1.93581e-10
0.0133182
0.011832
-2.07665e-10
0.0121656
0.0126378
-2.27491e-10
0.010781
0.013993
-2.65045e-10
0.00916543
0.0154347
-2.87091e-10
0.00722252
0.0171531
-2.98398e-10
0.00452713
0.0195761
-3.24447e-10
0.0232604
-3.60526e-10
0.0168001
-3.23901e-12
1.97464e-09
0.0168001
-1.16317e-11
1.43516e-09
0.0168001
-1.3623e-11
2.61178e-08
0.0168001
-2.18685e-11
2.21542e-08
0.0168001
-2.11721e-11
1.71993e-07
0.0168003
-2.90921e-11
1.44112e-07
0.0168003
-2.80234e-11
1.04581e-06
0.0168019
-3.72888e-11
7.21181e-07
0.0168002
-3.57256e-11
7.08536e-06
0.0168111
-5.86924e-11
2.8273e-06
0.0167892
-5.83292e-11
5.336e-05
0.016851
-1.3004e-10
1.01966e-05
0.0167067
-5.34381e-11
0.000378564
0.01699
-4.96923e-10
0.000351708
0.0169197
-5.20011e-10
0.0026305
0.0165345
-1.48453e-09
0.0110995
0.0156881
-1.964e-10
0.012394
0.0148246
-1.50321e-10
0.0122994
0.0139163
-1.9848e-10
0.01274
0.0129166
-2.14438e-10
0.0136374
0.0118508
-2.43151e-10
0.0150593
0.0105775
-2.49844e-10
0.0167091
0.00882093
-2.62604e-10
0.0189117
0.00623784
-2.77159e-10
0.0221613
-2.99808e-10
0.0294968
0.0168001
1.78573e-10
-4.86599e-16
0.0168001
9.7077e-10
-2.61143e-15
0.0168001
3.61286e-09
-5.57068e-15
0.0168
9.25129e-09
-1.179e-14
0.0168
2.56268e-08
-2.06387e-14
0.0168
5.83775e-08
-3.82895e-14
0.0167998
1.56281e-07
-7.80492e-14
0.0167995
3.37583e-07
-1.37126e-13
0.0167984
9.77196e-07
-3.92745e-13
0.0167964
2.01742e-06
-6.3493e-13
0.0167893
6.63968e-06
-2.36687e-12
0.0167745
1.50079e-05
-4.43114e-12
0.0167081
6.50314e-05
-1.83421e-11
0.0165242
0.000183011
-4.65822e-11
0.0154361
0.00107999
-1.30922e-10
0.0141452
0.00129427
3.34537e-11
0.0128977
0.00124724
4.89546e-12
0.0116023
0.00129478
-9.10111e-12
0.0102394
0.00136154
-8.36823e-12
0.00879436
0.00144557
-6.5056e-12
0.0072456
0.00155034
-6.54954e-12
0.00558942
0.00165741
-7.69673e-12
0.00383587
0.0017573
-8.26398e-12
0.00197536
0.00186019
-9.06658e-12
0.00197255
-9.78928e-12
0.0168001
3.53585e-10
-4.8639e-16
0.0168001
1.92243e-09
-2.61072e-15
0.0168001
7.15764e-09
-5.57006e-15
0.0168
1.83092e-08
-1.17862e-14
0.0168
5.08685e-08
-2.0641e-14
0.0168
1.15747e-07
-3.82979e-14
0.0167998
3.12227e-07
-7.80737e-14
0.0167995
6.70112e-07
-1.374e-13
0.0167984
1.97753e-06
-3.9257e-13
0.0167964
4.03098e-06
-6.36441e-13
0.016789
1.35452e-05
-2.36726e-12
0.0167738
3.03436e-05
-4.4288e-12
0.0167052
0.0001323
-1.82854e-11
0.0165166
0.000370692
-4.64103e-11
0.0154403
0.00214815
-1.31172e-10
0.0141189
0.00261895
3.36353e-11
0.012886
0.00247987
4.84621e-12
0.0116099
0.00257032
-9.01568e-12
0.0102566
0.00271341
-8.24251e-12
0.00879908
0.00290372
-6.35542e-12
0.00723152
0.00311948
-6.38356e-12
0.00555893
0.00333121
-7.4736e-12
0.00378496
0.00353505
-8.02434e-12
0.00191452
0.00373049
-8.81552e-12
0.00388411
-9.56624e-12
0.0168001
5.13434e-10
-4.85026e-16
0.0168001
2.76871e-09
-2.60543e-15
0.0168001
1.03109e-08
-5.55504e-15
0.0168
2.62225e-08
-1.17472e-14
0.0168
7.31868e-08
-2.05589e-14
0.0168
1.65951e-07
-3.81334e-14
0.0167998
4.50479e-07
-7.76508e-14
0.0167995
9.6236e-07
-1.36971e-13
0.0167986
2.85375e-06
-3.89991e-13
0.0167968
5.80773e-06
-6.34714e-13
0.01679
1.99143e-05
-2.35998e-12
0.0167754
4.50559e-05
-4.40453e-12
0.0167105
0.000195851
-1.81642e-11
0.0165324
0.000547829
-4.60863e-11
0.0155456
0.00312652
-1.32328e-10
0.0141989
0.00396903
3.37813e-11
0.0129629
0.00371561
4.90086e-12
0.0116977
0.00383506
-8.86271e-12
0.0103558
0.00405391
-8.09864e-12
0.0088982
0.004362
-6.21198e-12
0.00732397
0.00469527
-6.09509e-12
0.00563477
0.00502159
-7.00358e-12
0.00383334
0.0053406
-7.44844e-12
0.0019366
0.00562684
-8.20381e-12
0.00581843
-8.9281e-12
0.0168001
5.67437e-10
-4.82677e-16
0.0168001
3.1591e-09
-2.5947e-15
0.0168001
1.1711e-08
-5.5282e-15
0.0168001
2.99722e-08
-1.16822e-14
0.0168
8.28919e-08
-2.04479e-14
0.0168
1.8613e-07
-3.79547e-14
0.0167999
5.19243e-07
-7.72228e-14
0.0167999
9.90241e-07
-1.37627e-13
0.016799
3.71711e-06
-3.86294e-13
0.0167994
5.42378e-06
-6.40517e-13
0.0167899
2.89618e-05
-2.35072e-12
0.0167821
5.29539e-05
-4.35843e-12
0.0167182
0.000258316
-1.7907e-11
0.0165673
0.000697903
-4.538e-11
0.0157537
0.00393123
-1.33596e-10
0.0143875
0.00533855
3.2552e-11
0.0131444
0.00495869
5.26162e-12
0.0118853
0.00509375
-8.5979e-12
0.010555
0.00538284
-7.95396e-12
0.00910405
0.00581363
-6.168e-12
0.0075287
0.00627214
-5.65932e-12
0.0058308
0.00672103
-6.36532e-12
0.00399411
0.00718091
-6.59676e-12
0.00202337
0.00759754
-7.17675e-12
0.00783943
-7.74011e-12
0.0168001
7.73704e-10
-4.62051e-16
0.0168001
4.20629e-09
-2.52748e-15
0.0168001
1.56247e-08
-5.28199e-15
0.0168
3.98885e-08
-1.08862e-14
0.0168
1.10505e-07
-1.88746e-14
0.0167999
2.51241e-07
-3.35467e-14
0.0167998
6.75366e-07
-6.7891e-14
0.0167993
1.42418e-06
-9.97356e-14
0.0167985
4.44929e-06
-3.88669e-13
0.0167966
7.43419e-06
-3.00971e-13
0.0167918
3.32736e-05
-3.30989e-12
0.0167812
6.37447e-05
-3.38592e-12
0.0167463
0.000291807
-1.50926e-11
0.0166514
0.000792178
-4.34771e-11
0.0162037
0.00436972
-1.3289e-10
0.0148169
0.00672853
3.41896e-11
0.0135124
0.00626368
6.23474e-12
0.0122326
0.00637379
-7.67715e-12
0.010909
0.00670558
-7.60236e-12
0.0094616
0.00726191
-6.1638e-12
0.00787611
0.00785934
-4.97117e-12
0.00614422
0.00845441
-5.33357e-12
0.00425345
0.00907527
-5.40997e-12
0.00219181
0.00965944
-5.84643e-12
0.0100291
-6.27602e-12
0.0168001
9.19293e-10
-4.69178e-16
0.0168001
4.97215e-09
-2.54769e-15
0.0168001
1.85121e-08
-5.38692e-15
0.0168
4.73242e-08
-1.11574e-14
0.0168
1.31151e-07
-1.96794e-14
0.0168
2.99722e-07
-3.59258e-14
0.0167998
7.91902e-07
-7.06301e-14
0.0167995
1.75321e-06
-1.30946e-13
0.0167991
4.82997e-06
-3.4098e-13
0.0167966
9.96231e-06
-5.27679e-13
0.0167957
3.36894e-05
-2.27628e-12
0.0167913
6.82777e-05
-3.46211e-12
0.0167862
0.000295604
-1.60988e-11
0.0167842
0.000793514
-3.97843e-11
0.016952
0.00419269
-1.27416e-10
0.0155396
0.00814266
1.00206e-11
0.0140878
0.00771552
2.38216e-12
0.0127538
0.00770813
-6.64149e-12
0.01142
0.00803854
-7.18012e-12
0.00999211
0.00869097
-6.88867e-12
0.00839471
0.00945853
-5.05232e-12
0.0066296
0.0102217
-4.87632e-12
0.004658
0.0110509
-4.53095e-12
0.00243105
0.0118872
-4.57034e-12
0.0124579
-4.68327e-12
0.0168001
9.65991e-10
-4.54398e-16
0.0168001
5.2646e-09
-2.48154e-15
0.0168001
1.9578e-08
-5.16533e-15
0.0168001
5.02243e-08
-1.06749e-14
0.0168
1.38141e-07
-1.81954e-14
0.0168
3.16016e-07
-3.28192e-14
0.0168
8.23639e-07
-6.09097e-14
0.0167999
1.83235e-06
-1.11166e-13
0.0167998
4.838e-06
-2.64383e-13
0.0167992
1.05915e-05
-4.65763e-13
0.016802
3.06153e-05
-1.65613e-12
0.0168012
6.91607e-05
-2.28965e-12
0.0168484
0.000247369
-1.14967e-11
0.0169774
0.000662969
-2.70824e-11
0.0180452
0.00312074
-7.08116e-11
0.016688
0.00949794
-4.0423e-11
0.0149107
0.00949202
-1.08383e-11
0.0135009
0.00911773
-6.79644e-12
0.0121451
0.0093932
-7.14127e-12
0.0107041
0.0101314
-7.47556e-12
0.00909783
0.0110665
-5.42517e-12
0.00728272
0.0120379
-4.67635e-12
0.00522993
0.0131079
-4.08958e-12
0.0028387
0.0142796
-3.65061e-12
0.0152944
-3.32367e-12
0.0168001
1.04717e-09
-4.49753e-16
0.0168001
5.75088e-09
-2.45811e-15
0.0168001
2.14353e-08
-5.09902e-15
0.0168001
5.51997e-08
-1.05264e-14
0.0168
1.51913e-07
-1.77991e-14
0.0168
3.48821e-07
-3.19963e-14
0.0167999
9.07009e-07
-5.86046e-14
0.0167997
2.04127e-06
-1.07098e-13
0.0167992
5.26201e-06
-2.45682e-13
0.0167979
1.19726e-05
-4.61644e-13
0.0167975
3.07121e-05
-1.32083e-12
0.0167891
7.76194e-05
-2.65672e-12
0.0168068
0.000228533
-8.64461e-12
0.0168249
0.000644646
-2.17199e-11
0.0171875
0.00275328
-6.25774e-11
0.0166387
0.0100414
-8.26713e-11
0.015171
0.0109581
-2.59296e-11
0.0140394
0.0102497
-5.48236e-12
0.0128087
0.0106236
-6.13211e-12
0.0114547
0.0114857
-7.64589e-12
0.00991441
0.0126074
-6.75695e-12
0.00813532
0.0138182
-5.46129e-12
0.00603964
0.0152073
-4.35625e-12
0.00344194
0.0168788
-3.2945e-12
0.0187345
-2.43709e-12
0.0168001
1.35118e-09
-4.5591e-16
0.0168001
6.25699e-09
-2.47842e-15
0.0168001
2.50698e-08
-5.19592e-15
0.0168
6.01333e-08
-1.07315e-14
0.0168
1.75838e-07
-1.8555e-14
0.0168
3.84828e-07
-3.36555e-14
0.0167999
1.02631e-06
-6.38434e-14
0.0167996
2.33274e-06
-1.21733e-13
0.0167994
5.40333e-06
-2.59887e-13
0.0167978
1.35602e-05
-6.27766e-13
0.0167967
3.15699e-05
-1.02061e-12
0.0168022
7.20216e-05
-3.74116e-12
0.0167943
0.000235226
-6.47226e-12
0.0168042
0.000635704
-2.07291e-11
0.0169907
0.00256258
-5.34548e-11
0.0163033
0.0107221
-9.43792e-11
0.0157129
0.0115478
-8.56167e-12
0.0145267
0.0114359
-2.45966e-12
0.0133183
0.011832
-5.47998e-12
0.0121657
0.0126379
-6.58094e-12
0.0107811
0.0139931
-7.66826e-12
0.00916559
0.0154347
-5.8967e-12
0.00722266
0.017153
-4.86251e-12
0.00452723
0.019576
-3.19002e-12
0.0232603
-2.10514e-12
0.0168001
-4.49354e-16
1.83986e-09
0.0168001
-2.42287e-15
1.80217e-09
0.0168001
-4.99775e-15
2.49255e-08
0.0168001
-1.05436e-14
2.26734e-08
0.0168001
-1.69253e-14
1.7059e-07
0.0168003
-3.09868e-14
1.44756e-07
0.0168003
-5.41069e-14
1.04472e-06
0.0168019
-9.95366e-14
7.22264e-07
0.0168002
-2.12213e-13
7.08402e-06
0.0168111
-4.06923e-13
2.83288e-06
0.0167891
-1.07266e-12
5.33564e-05
0.0168509
-2.35233e-12
1.0216e-05
0.0167067
-5.53085e-12
0.000378524
0.0169899
-2.07428e-11
0.000351806
0.0169198
-4.42408e-11
0.00263044
0.0165345
-1.03578e-10
0.0110996
0.0156882
-3.54457e-12
0.0123939
0.0148247
-9.76259e-13
0.0122994
0.0139164
-6.13857e-12
0.0127399
0.0129167
-6.92072e-12
0.0136373
0.011851
-7.73825e-12
0.0150593
0.0105777
-6.78375e-12
0.0167091
0.00882108
-5.18648e-12
0.0189117
0.00623795
-3.08536e-12
0.0221612
-2.15596e-12
0.0294968
0.0168001
1.78573e-10
1.72102e-16
0.0168001
9.70771e-10
1.6348e-16
0.0168001
3.61286e-09
-8.12364e-17
0.0168
9.2513e-09
-1.75374e-16
0.0168
2.56268e-08
-4.84073e-16
0.0168
5.83775e-08
-9.79209e-16
0.0167998
1.56281e-07
-2.7517e-15
0.0167995
3.37583e-07
-5.19464e-15
0.0167984
9.77196e-07
-1.67447e-14
0.0167964
2.01742e-06
-2.8277e-14
0.0167893
6.63968e-06
-1.05556e-13
0.0167745
1.50079e-05
-1.99529e-13
0.0167081
6.50315e-05
-7.91814e-13
0.0165242
0.000183011
-1.9624e-12
0.0154361
0.00107999
-5.19964e-12
0.0141452
0.00129426
2.18497e-12
0.0128977
0.00124724
5.55411e-13
0.0116023
0.00129478
-1.20683e-13
0.0102394
0.00136154
-4.37967e-14
0.00879437
0.00144557
1.17295e-13
0.00724561
0.00155034
1.50057e-13
0.00558942
0.00165741
7.19438e-14
0.00383587
0.0017573
1.12597e-13
0.00197536
0.0018602
4.95412e-14
0.00197255
3.92883e-14
0.0168001
3.53586e-10
1.72091e-16
0.0168001
1.92243e-09
1.63456e-16
0.0168001
7.15766e-09
-8.13414e-17
0.0168
1.83093e-08
-1.75686e-16
0.0168
5.08685e-08
-4.85155e-16
0.0168
1.15747e-07
-9.81704e-16
0.0167998
3.12227e-07
-2.7583e-15
0.0167995
6.70112e-07
-5.21751e-15
0.0167984
1.97753e-06
-1.6765e-14
0.0167964
4.03098e-06
-2.83994e-14
0.016789
1.35453e-05
-1.05724e-13
0.0167738
3.03436e-05
-1.99794e-13
0.0167052
0.0001323
-7.90258e-13
0.0165166
0.000370692
-1.95786e-12
0.0154403
0.00214816
-5.21996e-12
0.0141189
0.00261895
2.19332e-12
0.012886
0.00247986
5.49947e-13
0.0116099
0.00257032
-1.14091e-13
0.0102567
0.00271341
-3.45562e-14
0.00879908
0.00290372
1.27575e-13
0.00723153
0.00311948
1.57854e-13
0.00555894
0.00333122
8.19912e-14
0.00378497
0.00353506
1.29471e-13
0.00191452
0.00373049
7.15796e-14
0.00388411
5.01355e-14
0.0168001
5.13436e-10
1.71828e-16
0.0168001
2.76872e-09
1.64219e-16
0.0168001
1.03109e-08
-8.09924e-17
0.0168
2.62226e-08
-1.74726e-16
0.0168
7.31871e-08
-4.83217e-16
0.0168
1.65951e-07
-9.7814e-16
0.0167998
4.5048e-07
-2.74986e-15
0.0167995
9.62364e-07
-5.21805e-15
0.0167986
2.85376e-06
-1.67065e-14
0.0167968
5.80776e-06
-2.84289e-14
0.01679
1.99143e-05
-1.05698e-13
0.0167754
4.50559e-05
-1.99422e-13
0.0167105
0.000195851
-7.86857e-13
0.0165324
0.00054783
-1.94986e-12
0.0155456
0.00312653
-5.2894e-12
0.0141989
0.00396902
2.20376e-12
0.0129629
0.00371561
5.49624e-13
0.0116977
0.00383506
-9.8402e-14
0.0103558
0.00405391
-1.73639e-14
0.00889821
0.004362
1.46335e-13
0.00732397
0.00469527
1.79533e-13
0.00563477
0.0050216
1.11767e-13
0.00383334
0.0053406
1.69213e-13
0.00193661
0.00562685
1.1004e-13
0.00581844
8.03319e-14
0.0168001
5.67445e-10
1.71534e-16
0.0168001
3.15913e-09
1.65636e-16
0.0168001
1.17111e-08
-8.00768e-17
0.0168001
2.99726e-08
-1.72838e-16
0.0168
8.28928e-08
-4.80227e-16
0.0168
1.86132e-07
-9.74079e-16
0.0167999
5.19248e-07
-2.74264e-15
0.0167999
9.90258e-07
-5.26122e-15
0.016799
3.71712e-06
-1.66182e-14
0.0167994
5.42391e-06
-2.87583e-14
0.0167899
2.89616e-05
-1.05682e-13
0.0167821
5.29544e-05
-1.98401e-13
0.0167182
0.000258316
-7.79043e-13
0.0165673
0.000697905
-1.9306e-12
0.0157536
0.00393125
-5.3872e-12
0.0143875
0.00533854
2.1527e-12
0.0131444
0.00495868
5.71134e-13
0.0118853
0.00509375
-6.88806e-14
0.010555
0.00538284
6.76032e-15
0.00910405
0.00581363
1.66665e-13
0.0075287
0.00627214
2.17024e-13
0.0058308
0.00672103
1.65974e-13
0.00399412
0.00718091
2.25188e-13
0.00202337
0.00759755
1.74298e-13
0.00783944
1.56268e-13
0.0168001
7.73701e-10
1.68782e-16
0.0168001
4.20628e-09
1.75835e-16
0.0168001
1.56246e-08
-6.88553e-17
0.0168
3.98884e-08
-1.47676e-16
0.0168
1.10505e-07
-4.08067e-16
0.0167999
2.5124e-07
-8.12144e-16
0.0167998
6.75366e-07
-2.37748e-15
0.0167993
1.42417e-06
-3.8657e-15
0.0167985
4.44932e-06
-1.65576e-14
0.0167966
7.43411e-06
-1.65572e-14
0.0167918
3.32739e-05
-1.22086e-13
0.0167812
6.37449e-05
-1.62877e-13
0.0167463
0.000291809
-7.90699e-13
0.0166514
0.000792184
-1.86315e-12
0.0162036
0.00436976
-5.41767e-12
0.0148169
0.00672851
1.91187e-12
0.0135124
0.00626367
6.40547e-13
0.0122326
0.00637378
2.76758e-15
0.010909
0.00670557
4.9131e-14
0.0094616
0.0072619
1.87389e-13
0.00787611
0.00785934
2.63902e-13
0.00614422
0.00845442
2.31513e-13
0.00425345
0.00907528
2.90915e-13
0.00219181
0.00965945
2.519e-13
0.0100291
2.41517e-13
0.0168001
9.193e-10
1.69822e-16
0.0168001
4.97218e-09
1.73276e-16
0.0168001
1.85122e-08
-7.1908e-17
0.0168
4.73245e-08
-1.55754e-16
0.0168
1.31152e-07
-4.31765e-16
0.0168
2.99724e-07
-8.84289e-16
0.0167998
7.91907e-07
-2.44128e-15
0.0167995
1.75322e-06
-4.89506e-15
0.0167991
4.83001e-06
-1.46466e-14
0.0167966
9.96236e-06
-2.41908e-14
0.0167957
3.36897e-05
-1.01172e-13
0.0167913
6.82785e-05
-1.62939e-13
0.0167861
0.000295607
-7.06174e-13
0.0167842
0.000793525
-1.7251e-12
0.0169519
0.00419276
-5.29983e-12
0.0155395
0.00814264
1.14561e-12
0.0140878
0.00771549
5.09667e-13
0.0127537
0.00770812
9.88769e-14
0.0114199
0.00803853
1.05796e-13
0.0099921
0.00869096
1.79154e-13
0.0083947
0.00945853
2.78667e-13
0.00662959
0.0102217
2.72325e-13
0.004658
0.0110509
3.55996e-13
0.00243105
0.0118872
3.19763e-13
0.0124579
3.26222e-13
0.0168001
9.65993e-10
1.68081e-16
0.0168001
5.26462e-09
1.83571e-16
0.0168001
1.9578e-08
-5.98878e-17
0.0168001
5.02244e-08
-1.296e-16
0.0168
1.38141e-07
-3.52094e-16
0.0168
3.16017e-07
-7.18193e-16
0.0168
8.23641e-07
-1.93206e-15
0.0167999
1.83235e-06
-3.8489e-15
0.0167998
4.83802e-06
-1.09355e-14
0.0167992
1.05915e-05
-1.98991e-14
0.016802
3.06155e-05
-7.42349e-14
0.0168012
6.91607e-05
-1.01144e-13
0.0168484
0.000247371
-5.10168e-13
0.0169774
0.000662976
-1.16585e-12
0.0180453
0.00312077
-2.89602e-12
0.016688
0.00949797
-1.12698e-12
0.0149107
0.00949201
-3.23336e-14
0.0135008
0.00911773
1.44735e-13
0.0121451
0.0093932
1.51989e-13
0.0107041
0.0101314
1.76258e-13
0.00909782
0.0110665
2.74189e-13
0.00728271
0.0120379
2.88932e-13
0.00522993
0.0131079
3.93361e-13
0.0028387
0.0142796
3.66751e-13
0.0152944
3.63499e-13
0.0168001
1.04717e-09
1.67573e-16
0.0168001
5.75088e-09
1.87062e-16
0.0168001
2.14353e-08
-5.59906e-17
0.0168001
5.51997e-08
-1.2111e-16
0.0168
1.51913e-07
-3.29782e-16
0.0168
3.48821e-07
-6.72049e-16
0.0167999
9.07007e-07
-1.81015e-15
0.0167997
2.04126e-06
-3.62924e-15
0.0167992
5.26201e-06
-1.00281e-14
0.0167979
1.19726e-05
-1.96559e-14
0.0167975
3.07122e-05
-5.83263e-14
0.0167891
7.7619e-05
-1.20495e-13
0.0168068
0.000228535
-3.77911e-13
0.016825
0.000644648
-9.37799e-13
0.0171875
0.0027533
-2.5925e-12
0.0166387
0.0100414
-3.07305e-12
0.015171
0.0109581
-6.39879e-13
0.0140394
0.0102497
2.7558e-13
0.0128087
0.0106236
2.41648e-13
0.0114547
0.0114857
1.73327e-13
0.0099144
0.0126074
2.13548e-13
0.00813531
0.0138182
2.46952e-13
0.00603964
0.0152073
3.45094e-13
0.00344193
0.0168788
3.72863e-13
0.0187345
3.67558e-13
0.0168001
1.35118e-09
1.68352e-16
0.0168001
6.25703e-09
1.83904e-16
0.0168001
2.50699e-08
-6.0745e-17
0.0168
6.01334e-08
-1.31294e-16
0.0168
1.75839e-07
-3.67528e-16
0.0168
3.8483e-07
-7.55147e-16
0.0167999
1.02632e-06
-2.07254e-15
0.0167996
2.33275e-06
-4.36493e-15
0.0167994
5.40335e-06
-1.07164e-14
0.0167978
1.35602e-05
-2.80062e-14
0.0167967
3.157e-05
-4.33417e-14
0.0168022
7.20222e-05
-1.73474e-13
0.0167943
0.000235227
-2.72406e-13
0.0168042
0.000635706
-8.97944e-13
0.0169908
0.0025626
-2.20562e-12
0.0163033
0.0107221
-3.60106e-12
0.0157129
0.0115478
2.23008e-13
0.0145267
0.0114359
4.77711e-13
0.0133183
0.011832
2.99279e-13
0.0121657
0.0126379
2.35001e-13
0.0107811
0.0139931
1.60572e-13
0.00916558
0.0154347
2.04827e-13
0.00722266
0.017153
2.61298e-13
0.00452722
0.019576
3.34034e-13
0.0232603
3.28065e-13
0.0168001
1.68247e-16
1.83984e-09
0.0168001
1.93432e-16
1.80224e-09
0.0168001
-4.75075e-17
2.49254e-08
0.0168001
-1.02815e-16
2.26738e-08
0.0168001
-2.80161e-16
1.7059e-07
0.0168003
-5.76253e-16
1.44757e-07
0.0168003
-1.5192e-15
1.04472e-06
0.0168019
-3.17803e-15
7.22272e-07
0.0168002
-8.09744e-15
7.08404e-06
0.0168111
-1.6665e-14
2.83294e-06
0.0167891
-4.61342e-14
5.33566e-05
0.0168509
-1.02711e-13
1.02163e-05
0.0167067
-2.38692e-13
0.000378525
0.0169899
-8.84782e-13
0.000351809
0.0169198
-1.81676e-12
0.00263045
0.0165345
-4.00519e-12
0.0110996
0.0156882
5.11819e-13
0.0123939
0.0148247
6.92092e-13
0.0122994
0.0139164
2.67648e-13
0.0127399
0.0129167
2.0448e-13
0.0136373
0.011851
1.27095e-13
0.0150593
0.0105777
1.42578e-13
0.0167091
0.00882108
1.81145e-13
0.0189117
0.00623795
2.77334e-13
0.0221612
2.48335e-13
0.0294968
0.0168001
1.78573e-10
-1.2332e-17
0.0168001
9.70771e-10
-5.11007e-17
0.0168001
3.61286e-09
-1.45513e-16
0.0168
9.2513e-09
-2.81042e-16
0.0168
2.56268e-08
-6.70656e-16
0.0168
5.83775e-08
-1.24619e-15
0.0167998
1.56281e-07
-3.20489e-15
0.0167995
3.37583e-07
-5.88338e-15
0.0167984
9.77196e-07
-1.82493e-14
0.0167964
2.01742e-06
-3.07658e-14
0.0167893
6.63968e-06
-1.12566e-13
0.0167745
1.50079e-05
-2.1236e-13
0.0167081
6.50315e-05
-8.36199e-13
0.0165242
0.000183011
-2.04807e-12
0.0154361
0.00107999
-5.47502e-12
0.0141452
0.00129426
2.63843e-12
0.0128977
0.00124724
7.71813e-13
0.0116023
0.00129478
1.67723e-14
0.0102394
0.00136154
6.41684e-14
0.00879437
0.00144557
2.84708e-13
0.00724561
0.00155034
2.92664e-13
0.00558942
0.00165741
2.34397e-13
0.00383587
0.0017573
2.80249e-13
0.00197536
0.0018602
1.95687e-13
0.00197255
1.52126e-13
0.0168001
3.53586e-10
-1.242e-17
0.0168001
1.92243e-09
-5.11786e-17
0.0168001
7.15766e-09
-1.46067e-16
0.0168
1.83093e-08
-2.81894e-16
0.0168
5.08685e-08
-6.73129e-16
0.0168
1.15747e-07
-1.25114e-15
0.0167998
3.12228e-07
-3.21821e-15
0.0167995
6.70112e-07
-5.91978e-15
0.0167984
1.97753e-06
-1.83099e-14
0.0167964
4.03098e-06
-3.09666e-14
0.016789
1.35453e-05
-1.13014e-13
0.0167738
3.03436e-05
-2.13189e-13
0.0167052
0.0001323
-8.36594e-13
0.0165166
0.000370692
-2.04807e-12
0.0154403
0.00214816
-5.50629e-12
0.0141189
0.00261895
2.64021e-12
0.012886
0.00247986
7.62392e-13
0.0116099
0.00257032
2.0929e-14
0.0102567
0.00271341
7.33169e-14
0.00879908
0.00290372
2.93177e-13
0.00723153
0.00311948
3.00663e-13
0.00555894
0.00333122
2.48708e-13
0.00378497
0.00353506
2.96868e-13
0.00191452
0.00373049
2.20021e-13
0.00388411
1.70039e-13
0.0168001
5.13436e-10
-1.23226e-17
0.0168001
2.76872e-09
-5.11515e-17
0.0168001
1.03109e-08
-1.45702e-16
0.0168
2.62226e-08
-2.81394e-16
0.0168
7.31871e-08
-6.72582e-16
0.0168
1.65951e-07
-1.25047e-15
0.0167998
4.5048e-07
-3.21917e-15
0.0167995
9.62364e-07
-5.93887e-15
0.0167986
2.85376e-06
-1.83178e-14
0.0167968
5.80776e-06
-3.11159e-14
0.01679
1.99143e-05
-1.13512e-13
0.0167754
4.50559e-05
-2.13839e-13
0.0167105
0.000195851
-8.37495e-13
0.0165324
0.00054783
-2.05085e-12
0.0155456
0.00312653
-5.61139e-12
0.0141989
0.00396902
2.64014e-12
0.0129629
0.00371561
7.57319e-13
0.0116977
0.00383506
3.04488e-14
0.0103558
0.00405391
8.69303e-14
0.00889821
0.004362
3.06816e-13
0.00732397
0.00469527
3.18122e-13
0.00563477
0.0050216
2.85622e-13
0.00383335
0.0053406
3.42302e-13
0.00193661
0.00562685
2.67482e-13
0.00581844
2.17053e-13
0.0168001
5.67446e-10
-1.22642e-17
0.0168001
3.15914e-09
-5.07009e-17
0.0168001
1.17111e-08
-1.45054e-16
0.0168001
2.99726e-08
-2.79955e-16
0.0168
8.28928e-08
-6.7226e-16
0.0168
1.86132e-07
-1.25191e-15
0.0167999
5.19248e-07
-3.22932e-15
0.0167999
9.90258e-07
-6.022e-15
0.016799
3.71712e-06
-1.83418e-14
0.0167994
5.42392e-06
-3.16981e-14
0.0167899
2.89616e-05
-1.14379e-13
0.0167821
5.29544e-05
-2.14556e-13
0.0167182
0.000258316
-8.36349e-13
0.0165673
0.000697905
-2.04903e-12
0.0157536
0.00393125
-5.77269e-12
0.0143875
0.00533854
2.56778e-12
0.0131444
0.00495868
7.80812e-13
0.0118853
0.00509375
4.87083e-14
0.010555
0.00538284
1.02778e-13
0.00910405
0.00581363
3.12569e-13
0.0075287
0.00627214
3.57863e-13
0.0058308
0.00672103
3.40606e-13
0.00399412
0.00718091
4.08786e-13
0.00202337
0.00759755
3.46553e-13
0.00783944
3.11275e-13
0.0168001
7.73701e-10
-1.05303e-17
0.0168001
4.20628e-09
-4.41779e-17
0.0168001
1.56246e-08
-1.26537e-16
0.0168
3.98884e-08
-2.43662e-16
0.0168
1.10505e-07
-5.82641e-16
0.0167999
2.5124e-07
-1.06218e-15
0.0167998
6.75366e-07
-2.82696e-15
0.0167993
1.42417e-06
-4.46682e-15
0.0167985
4.44932e-06
-1.8399e-14
0.0167966
7.43411e-06
-1.83626e-14
0.0167918
3.32739e-05
-1.33351e-13
0.0167812
6.37449e-05
-1.77753e-13
0.0167463
0.000291809
-8.60033e-13
0.0166514
0.000792184
-2.0015e-12
0.0162036
0.00436976
-5.88479e-12
0.0148169
0.00672851
2.28252e-12
0.0135124
0.00626367
8.67994e-13
0.0122326
0.00637378
1.27346e-13
0.010909
0.00670557
1.3669e-13
0.0094616
0.0072619
3.02624e-13
0.00787611
0.00785934
4.10648e-13
0.00614422
0.00845442