/*--------------------------------*- C++ -*----------------------------------*\
| =========                 |                                                 |
| \\      /  F ield         | OpenFOAM: The Open Source CFD Toolbox           |
|  \\    /   O peration     | Version:  4.1                                   |
|   \\  /    A nd           | Web:      www.OpenFOAM.org                      |
|    \\/     M anipulation  |                                                 |
\*---------------------------------------------------------------------------*/
FoamFile
{
    version     2.0;
    format      ascii;
    class       volScalarField;
    location    "9.06";
    object      T;
}
// * * * * * * * * * * * * * * * * * * * * * * * * * * * * * * * * * * * * * //

dimensions      [0 0 0 1 0 0 0];

internalField   nonuniform List<scalar> 
52500
(
0.999997
1.00002
1.00005
1.0002
1.00036
1.00116
1.00213
1.0065
1.01299
1.03502
1.08855
1.20956
1.59903
2.46778
2.69517
2.72678
2.7241
2.72448
2.73838
2.7505
2.76412
2.77275
2.78008
2.78512
2.78932
0.999996
1.00002
1.00005
1.00019
1.00036
1.00115
1.00211
1.00643
1.01286
1.03465
1.0878
1.20701
1.5947
2.46032
2.69242
2.72664
2.7237
2.72402
2.73773
2.74965
2.76317
2.77135
2.7787
2.78275
2.78624
0.999996
1.00002
1.00005
1.00019
1.00035
1.00112
1.00206
1.00629
1.01259
1.03389
1.08622
1.20178
1.58509
2.4435
2.68553
2.7255
2.72201
2.72219
2.73589
2.74704
2.76063
2.76897
2.7754
2.78013
2.7823
0.999996
1.00002
1.00005
1.00018
1.00034
1.00109
1.00199
1.00607
1.01217
1.03274
1.08378
1.19391
1.57008
2.41617
2.67473
2.72361
2.71916
2.71873
2.73131
2.74386
2.75464
2.76381
2.77107
2.77382
2.77745
0.999996
1.00002
1.00005
1.00017
1.00032
1.00103
1.0019
1.00576
1.01162
1.03108
1.08059
1.18363
1.54939
2.37646
2.65956
2.72113
2.71542
2.71397
2.72541
2.73765
2.75044
2.75494
2.76234
2.76632
2.76672
0.999996
1.00002
1.00004
1.00016
1.0003
1.00096
1.00178
1.00529
1.01099
1.02864
1.07658
1.17095
1.5238
2.32332
2.63969
2.71799
2.71171
2.70717
2.71961
2.72638
2.74099
2.74786
2.75181
2.75511
2.75713
0.999995
1.00002
1.00004
1.00015
1.00027
1.00088
1.00164
1.00485
1.0102
1.02621
1.07091
1.15636
1.49002
2.25469
2.6131
2.71371
2.70687
2.70068
2.71309
2.72004
2.72663
2.73341
2.73777
2.73888
2.73645
0.999995
1.00002
1.00004
1.00014
1.00025
1.00081
1.0015
1.00451
1.00924
1.02429
1.06363
1.14381
1.43461
2.15456
2.57838
2.70503
2.69692
2.68814
2.69899
2.70989
2.71736
2.71791
2.71931
2.71814
2.71439
0.999995
1.00001
1.00003
1.00012
1.00023
1.00075
1.00136
1.00425
1.00815
1.02294
1.05392
1.12916
1.36979
2.02637
2.53415
2.69548
2.68825
2.67551
2.68458
2.68933
2.6983
2.69934
2.69532
2.6861
2.66334
0.999995
1.00001
1.00003
1.0001
1.0002
1.00064
1.00119
1.00366
1.00713
1.01999
1.04593
1.11384
1.30829
1.90667
2.46234
2.66576
2.66422
2.65903
2.67211
2.67327
2.67639
2.67439
2.66439
2.64209
2.59118
1.00001
1.00003
1.00006
1.0002
1.00037
1.00117
1.00214
1.00651
1.013
1.03504
1.08856
1.20961
1.59907
2.46792
2.69526
2.72685
2.72418
2.72456
2.73847
2.75059
2.7642
2.77284
2.78017
2.78521
2.78941
1.00001
1.00003
1.00006
1.0002
1.00036
1.00116
1.00211
1.00644
1.01287
1.03467
1.08781
1.20706
1.59474
2.46046
2.69251
2.72671
2.72377
2.72409
2.73782
2.74973
2.76325
2.77144
2.77879
2.78284
2.78632
1.00001
1.00003
1.00006
1.0002
1.00036
1.00113
1.00207
1.0063
1.0126
1.03391
1.08623
1.20183
1.58513
2.44363
2.68561
2.72557
2.72208
2.72227
2.73598
2.74712
2.76071
2.76905
2.77548
2.78022
2.78238
1
1.00003
1.00006
1.00019
1.00034
1.0011
1.002
1.00608
1.01218
1.03276
1.08379
1.19396
1.57012
2.41632
2.67482
2.72367
2.71923
2.7188
2.73139
2.74394
2.75472
2.76389
2.77115
2.77391
2.77754
1
1.00003
1.00005
1.00018
1.00033
1.00104
1.00191
1.00577
1.01163
1.0311
1.08059
1.18368
1.54942
2.3766
2.65964
2.7212
2.71549
2.71404
2.72548
2.73773
2.75052
2.75502
2.76242
2.76639
2.76681
1
1.00003
1.00005
1.00017
1.00031
1.00097
1.00179
1.0053
1.011
1.02866
1.0766
1.171
1.52385
2.32348
2.63978
2.71805
2.71178
2.70725
2.71969
2.72645
2.74106
2.74794
2.7519
2.75519
2.75721
1
1.00002
1.00005
1.00016
1.00028
1.00089
1.00165
1.00486
1.01021
1.02623
1.07092
1.1564
1.49009
2.25487
2.61318
2.71378
2.70694
2.70075
2.71317
2.72011
2.72671
2.73348
2.73784
2.73896
2.73653
1
1.00002
1.00004
1.00014
1.00026
1.00082
1.00151
1.00452
1.00925
1.02431
1.06364
1.14386
1.43464
2.15471
2.57847
2.7051
2.697
2.68821
2.69906
2.70996
2.71744
2.71798
2.71939
2.71822
2.71447
1
1.00002
1.00004
1.00013
1.00024
1.00075
1.00137
1.00426
1.00816
1.02295
1.05393
1.1292
1.36984
2.02655
2.53424
2.69555
2.68832
2.67559
2.68466
2.6894
2.69837
2.6994
2.69538
2.68617
2.66341
1
1.00002
1.00003
1.00011
1.00021
1.00065
1.0012
1.00367
1.00714
1.02
1.04594
1.11387
1.30834
1.90678
2.46246
2.66583
2.66429
2.65909
2.67218
2.67334
2.67647
2.67447
2.66446
2.64216
2.59124
1.00001
1.00003
1.00006
1.0002
1.00037
1.00117
1.00214
1.00651
1.013
1.03504
1.08856
1.20961
1.59908
2.46792
2.69526
2.72685
2.72418
2.72456
2.73847
2.75059
2.76421
2.77284
2.78017
2.78521
2.78941
1.00001
1.00003
1.00006
1.0002
1.00036
1.00116
1.00211
1.00644
1.01287
1.03467
1.08782
1.20707
1.59474
2.46046
2.69251
2.72671
2.72377
2.72409
2.73782
2.74973
2.76325
2.77144
2.77879
2.78284
2.78632
1.00001
1.00003
1.00006
1.0002
1.00036
1.00113
1.00207
1.0063
1.0126
1.03391
1.08623
1.20183
1.58513
2.44364
2.68562
2.72556
2.72208
2.72227
2.73598
2.74712
2.76071
2.76906
2.77548
2.78022
2.78238
1
1.00003
1.00006
1.00019
1.00034
1.0011
1.002
1.00608
1.01218
1.03276
1.08379
1.19396
1.57012
2.41632
2.67482
2.72367
2.71923
2.7188
2.73139
2.74394
2.75472
2.76389
2.77115
2.77391
2.77754
1
1.00003
1.00005
1.00018
1.00033
1.00104
1.00191
1.00577
1.01163
1.0311
1.08059
1.18368
1.54942
2.3766
2.65964
2.72119
2.71549
2.71404
2.72549
2.73773
2.75052
2.75503
2.76242
2.76639
2.76681
1
1.00003
1.00005
1.00017
1.00031
1.00097
1.00179
1.0053
1.011
1.02866
1.0766
1.17101
1.52385
2.32349
2.63978
2.71805
2.71178
2.70725
2.71969
2.72645
2.74106
2.74794
2.7519
2.75519
2.75721
1
1.00002
1.00005
1.00016
1.00028
1.00089
1.00165
1.00486
1.01021
1.02623
1.07093
1.15641
1.49009
2.25489
2.61319
2.71378
2.70694
2.70075
2.71317
2.72011
2.72671
2.73348
2.73784
2.73896
2.73653
1
1.00002
1.00004
1.00014
1.00026
1.00082
1.00151
1.00452
1.00925
1.02431
1.06364
1.14386
1.43465
2.15473
2.57847
2.7051
2.697
2.68821
2.69906
2.70996
2.71744
2.71799
2.71939
2.71822
2.71447
1
1.00002
1.00004
1.00013
1.00024
1.00075
1.00137
1.00426
1.00816
1.02296
1.05393
1.1292
1.36985
2.02656
2.53424
2.69555
2.68832
2.67559
2.68467
2.6894
2.69837
2.6994
2.69538
2.68617
2.66341
1
1.00002
1.00003
1.00011
1.00021
1.00065
1.0012
1.00367
1.00714
1.02
1.04595
1.11388
1.30834
1.90679
2.46246
2.66584
2.66429
2.65909
2.67218
2.67334
2.67647
2.67447
2.66446
2.64216
2.59124
1.00001
1.00003
1.00006
1.0002
1.00037
1.00117
1.00214
1.00651
1.013
1.03504
1.08856
1.20961
1.59908
2.46793
2.69526
2.72685
2.72418
2.72456
2.73847
2.75059
2.76421
2.77284
2.78017
2.78521
2.78941
1.00001
1.00003
1.00006
1.0002
1.00036
1.00116
1.00211
1.00644
1.01287
1.03467
1.08782
1.20707
1.59474
2.46046
2.69251
2.72671
2.72377
2.72409
2.73782
2.74973
2.76325
2.77144
2.77879
2.78284
2.78632
1.00001
1.00003
1.00006
1.0002
1.00036
1.00113
1.00207
1.0063
1.0126
1.03391
1.08623
1.20183
1.58513
2.44364
2.68562
2.72556
2.72208
2.72227
2.73598
2.74712
2.76071
2.76906
2.77548
2.78022
2.78238
1
1.00003
1.00006
1.00019
1.00034
1.0011
1.002
1.00608
1.01218
1.03276
1.08379
1.19396
1.57012
2.41632
2.67482
2.72367
2.71923
2.7188
2.73139
2.74394
2.75472
2.76389
2.77115
2.77391
2.77754
1
1.00003
1.00005
1.00018
1.00033
1.00104
1.00191
1.00577
1.01163
1.0311
1.08059
1.18368
1.54942
2.37661
2.65964
2.72119
2.71549
2.71404
2.72549
2.73773
2.75052
2.75503
2.76242
2.76639
2.76681
1
1.00003
1.00005
1.00017
1.00031
1.00097
1.00179
1.0053
1.011
1.02866
1.0766
1.17101
1.52385
2.32349
2.63978
2.71805
2.71178
2.70725
2.71969
2.72645
2.74106
2.74794
2.7519
2.75519
2.75721
1
1.00002
1.00005
1.00016
1.00028
1.00089
1.00165
1.00486
1.01021
1.02623
1.07093
1.15641
1.49009
2.25489
2.61319
2.71378
2.70694
2.70075
2.71317
2.72012
2.72671
2.73348
2.73784
2.73896
2.73653
1
1.00002
1.00004
1.00014
1.00026
1.00082
1.00151
1.00452
1.00925
1.02431
1.06364
1.14386
1.43465
2.15473
2.57847
2.7051
2.697
2.68821
2.69906
2.70996
2.71744
2.71799
2.71939
2.71822
2.71447
1
1.00002
1.00004
1.00013
1.00024
1.00075
1.00137
1.00426
1.00816
1.02296
1.05393
1.1292
1.36985
2.02657
2.53424
2.69555
2.68832
2.67559
2.68467
2.6894
2.69837
2.6994
2.69538
2.68617
2.66341
1
1.00002
1.00003
1.00011
1.00021
1.00065
1.0012
1.00367
1.00714
1.02
1.04595
1.11388
1.30834
1.90679
2.46246
2.66584
2.66429
2.65909
2.67218
2.67334
2.67647
2.67447
2.66446
2.64216
2.59124
1.00001
1.00003
1.00006
1.0002
1.00037
1.00117
1.00214
1.00651
1.013
1.03504
1.08856
1.20961
1.59908
2.46793
2.69526
2.72685
2.72418
2.72456
2.73847
2.75059
2.76421
2.77284
2.78017
2.78521
2.78941
1.00001
1.00003
1.00006
1.0002
1.00036
1.00116
1.00211
1.00644
1.01287
1.03467
1.08782
1.20707
1.59474
2.46046
2.69251
2.72671
2.72377
2.72409
2.73782
2.74973
2.76325
2.77144
2.77879
2.78284
2.78632
1.00001
1.00003
1.00006
1.0002
1.00036
1.00113
1.00207
1.0063
1.0126
1.03391
1.08623
1.20183
1.58513
2.44364
2.68562
2.72556
2.72208
2.72227
2.73598
2.74712
2.76071
2.76906
2.77548
2.78022
2.78238
1
1.00003
1.00006
1.00019
1.00034
1.0011
1.002
1.00608
1.01218
1.03276
1.08379
1.19396
1.57012
2.41632
2.67482
2.72367
2.71923
2.7188
2.73139
2.74394
2.75472
2.76389
2.77115
2.77391
2.77754
1
1.00003
1.00005
1.00018
1.00033
1.00104
1.00191
1.00577
1.01163
1.0311
1.08059
1.18368
1.54942
2.37661
2.65964
2.72119
2.71549
2.71404
2.72549
2.73773
2.75052
2.75503
2.76242
2.76639
2.76681
1
1.00003
1.00005
1.00017
1.00031
1.00097
1.00179
1.0053
1.011
1.02866
1.0766
1.17101
1.52385
2.32349
2.63978
2.71805
2.71178
2.70725
2.71969
2.72645
2.74106
2.74794
2.7519
2.75519
2.75721
1
1.00002
1.00005
1.00016
1.00028
1.00089
1.00165
1.00486
1.01021
1.02623
1.07093
1.15641
1.49009
2.25489
2.61319
2.71378
2.70694
2.70075
2.71317
2.72012
2.72671
2.73348
2.73783
2.73896
2.73653
1
1.00002
1.00004
1.00014
1.00026
1.00082
1.00151
1.00452
1.00925
1.02431
1.06364
1.14386
1.43465
2.15473
2.57847
2.7051
2.697
2.68821
2.69906
2.70996
2.71744
2.71799
2.71939
2.71822
2.71447
1
1.00002
1.00004
1.00013
1.00024
1.00075
1.00137
1.00426
1.00816
1.02296
1.05393
1.1292
1.36985
2.02657
2.53424
2.69555
2.68832
2.67559
2.68467
2.6894
2.69837
2.6994
2.69538
2.68617
2.66341
1
1.00002
1.00003
1.00011
1.00021
1.00065
1.0012
1.00367
1.00714
1.02
1.04595
1.11388
1.30834
1.90679
2.46247
2.66584
2.66429
2.65909
2.67218
2.67334
2.67647
2.67447
2.66446
2.64216
2.59124
1.00001
1.00003
1.00006
1.0002
1.00037
1.00117
1.00214
1.00651
1.013
1.03504
1.08856
1.20961
1.59908
2.46793
2.69526
2.72685
2.72418
2.72456
2.73847
2.75059
2.76421
2.77284
2.78017
2.78521
2.78941
1.00001
1.00003
1.00006
1.0002
1.00036
1.00116
1.00211
1.00644
1.01287
1.03467
1.08782
1.20707
1.59474
2.46047
2.69251
2.72671
2.72377
2.72409
2.73782
2.74973
2.76325
2.77144
2.77879
2.78284
2.78632
1.00001
1.00003
1.00006
1.0002
1.00036
1.00113
1.00207
1.0063
1.0126
1.03391
1.08623
1.20183
1.58513
2.44364
2.68562
2.72556
2.72208
2.72227
2.73598
2.74712
2.76071
2.76906
2.77548
2.78022
2.78238
1
1.00003
1.00006
1.00019
1.00034
1.0011
1.002
1.00608
1.01218
1.03276
1.08379
1.19396
1.57012
2.41633
2.67482
2.72367
2.71923
2.7188
2.73139
2.74394
2.75472
2.76389
2.77115
2.77391
2.77754
1
1.00003
1.00005
1.00018
1.00033
1.00104
1.00191
1.00577
1.01163
1.0311
1.08059
1.18368
1.54942
2.37661
2.65964
2.72119
2.71549
2.71404
2.72549
2.73773
2.75052
2.75503
2.76242
2.76639
2.76681
1
1.00003
1.00005
1.00017
1.00031
1.00097
1.00179
1.0053
1.011
1.02866
1.0766
1.17101
1.52385
2.32349
2.63978
2.71805
2.71178
2.70725
2.71969
2.72645
2.74106
2.74794
2.7519
2.75519
2.75721
1
1.00002
1.00005
1.00016
1.00028
1.00089
1.00165
1.00486
1.01021
1.02623
1.07093
1.15641
1.49009
2.25489
2.61319
2.71378
2.70694
2.70075
2.71317
2.72012
2.72671
2.73348
2.73783
2.73896
2.73653
1
1.00002
1.00004
1.00014
1.00026
1.00082
1.00151
1.00452
1.00925
1.02431
1.06364
1.14386
1.43465
2.15473
2.57847
2.7051
2.697
2.68821
2.69906
2.70996
2.71744
2.71799
2.71939
2.71822
2.71447
1
1.00002
1.00004
1.00013
1.00024
1.00075
1.00137
1.00426
1.00816
1.02296
1.05393
1.1292
1.36985
2.02657
2.53424
2.69555
2.68832
2.67559
2.68467
2.6894
2.69837
2.6994
2.69538
2.68617
2.66341
1
1.00002
1.00003
1.00011
1.00021
1.00065
1.0012
1.00367
1.00714
1.02
1.04595
1.11388
1.30834
1.90679
2.46247
2.66584
2.66429
2.65909
2.67218
2.67334
2.67647
2.67447
2.66446
2.64216
2.59124
1.00001
1.00003
1.00006
1.0002
1.00037
1.00117
1.00214
1.00651
1.013
1.03504
1.08856
1.20961
1.59908
2.46793
2.69526
2.72685
2.72418
2.72456
2.73847
2.75059
2.76421
2.77284
2.78017
2.78521
2.78941
1.00001
1.00003
1.00006
1.0002
1.00036
1.00116
1.00211
1.00644
1.01287
1.03467
1.08782
1.20707
1.59474
2.46046
2.69251
2.72671
2.72377
2.72409
2.73782
2.74973
2.76325
2.77144
2.77879
2.78284
2.78632
1.00001
1.00003
1.00006
1.0002
1.00036
1.00113
1.00207
1.0063
1.0126
1.03391
1.08623
1.20183
1.58513
2.44364
2.68562
2.72556
2.72208
2.72227
2.73598
2.74712
2.76071
2.76906
2.77548
2.78022
2.78238
1
1.00003
1.00006
1.00019
1.00034
1.0011
1.002
1.00608
1.01218
1.03276
1.08379
1.19396
1.57012
2.41632
2.67482
2.72367
2.71923
2.7188
2.73139
2.74394
2.75472
2.76389
2.77115
2.77391
2.77754
1
1.00003
1.00005
1.00018
1.00033
1.00104
1.00191
1.00577
1.01163
1.0311
1.08059
1.18368
1.54942
2.37661
2.65964
2.72119
2.71549
2.71404
2.72549
2.73773
2.75052
2.75503
2.76242
2.76639
2.76681
1
1.00003
1.00005
1.00017
1.00031
1.00097
1.00179
1.0053
1.011
1.02866
1.0766
1.17101
1.52385
2.32349
2.63978
2.71805
2.71178
2.70725
2.71969
2.72645
2.74106
2.74794
2.7519
2.75519
2.75721
1
1.00002
1.00005
1.00016
1.00028
1.00089
1.00165
1.00486
1.01021
1.02623
1.07093
1.15641
1.49009
2.25489
2.61319
2.71378
2.70694
2.70075
2.71317
2.72012
2.72671
2.73348
2.73783
2.73896
2.73653
1
1.00002
1.00004
1.00014
1.00026
1.00082
1.00151
1.00452
1.00925
1.02431
1.06364
1.14386
1.43465
2.15473
2.57847
2.7051
2.697
2.68821
2.69906
2.70996
2.71744
2.71799
2.71939
2.71822
2.71447
1
1.00002
1.00004
1.00013
1.00024
1.00075
1.00137
1.00426
1.00816
1.02296
1.05393
1.1292
1.36985
2.02657
2.53424
2.69555
2.68832
2.67559
2.68467
2.6894
2.69837
2.6994
2.69538
2.68617
2.66341
1
1.00002
1.00003
1.00011
1.00021
1.00065
1.0012
1.00367
1.00714
1.02
1.04595
1.11388
1.30834
1.90679
2.46247
2.66584
2.66429
2.65909
2.67218
2.67334
2.67647
2.67447
2.66446
2.64216
2.59124
1.00001
1.00003
1.00006
1.0002
1.00037
1.00117
1.00214
1.00651
1.013
1.03504
1.08856
1.20961
1.59908
2.46793
2.69526
2.72685
2.72418
2.72456
2.73847
2.75059
2.76421
2.77284
2.78017
2.78521
2.78941
1.00001
1.00003
1.00006
1.0002
1.00036
1.00116
1.00211
1.00644
1.01287
1.03467
1.08782
1.20707
1.59474
2.46046
2.69251
2.72671
2.72377
2.72409
2.73782
2.74973
2.76325
2.77144
2.77879
2.78284
2.78632
1.00001
1.00003
1.00006
1.0002
1.00036
1.00113
1.00207
1.0063
1.0126
1.03391
1.08623
1.20183
1.58513
2.44364
2.68562
2.72556
2.72208
2.72227
2.73598
2.74712
2.76071
2.76906
2.77548
2.78022
2.78238
1
1.00003
1.00006
1.00019
1.00034
1.0011
1.002
1.00608
1.01218
1.03276
1.08379
1.19396
1.57012
2.41632
2.67482
2.72367
2.71923
2.7188
2.73139
2.74394
2.75472
2.76389
2.77115
2.77391
2.77754
1
1.00003
1.00005
1.00018
1.00033
1.00104
1.00191
1.00577
1.01163
1.0311
1.08059
1.18368
1.54942
2.3766
2.65964
2.72119
2.71549
2.71404
2.72549
2.73773
2.75052
2.75503
2.76242
2.76639
2.76681
1
1.00003
1.00005
1.00017
1.00031
1.00097
1.00179
1.0053
1.011
1.02866
1.0766
1.17101
1.52385
2.32349
2.63978
2.71805
2.71178
2.70725
2.71969
2.72645
2.74106
2.74794
2.7519
2.75519
2.75721
1
1.00002
1.00005
1.00016
1.00028
1.00089
1.00165
1.00486
1.01021
1.02623
1.07093
1.15641
1.49009
2.25489
2.61319
2.71378
2.70694
2.70075
2.71317
2.72011
2.72671
2.73348
2.73784
2.73896
2.73653
1
1.00002
1.00004
1.00014
1.00026
1.00082
1.00151
1.00452
1.00925
1.02431
1.06364
1.14386
1.43465
2.15473
2.57847
2.7051
2.697
2.68821
2.69906
2.70996
2.71744
2.71799
2.71939
2.71822
2.71447
1
1.00002
1.00004
1.00013
1.00024
1.00075
1.00137
1.00426
1.00816
1.02296
1.05393
1.1292
1.36985
2.02656
2.53424
2.69555
2.68832
2.67559
2.68467
2.6894
2.69837
2.6994
2.69538
2.68617
2.66341
1
1.00002
1.00003
1.00011
1.00021
1.00065
1.0012
1.00367
1.00714
1.02
1.04595
1.11388
1.30834
1.90679
2.46246
2.66584
2.66429
2.65909
2.67218
2.67334
2.67647
2.67447
2.66446
2.64216
2.59124
1.00001
1.00003
1.00006
1.0002
1.00037
1.00117
1.00214
1.00651
1.013
1.03504
1.08856
1.20961
1.59907
2.46792
2.69526
2.72685
2.72418
2.72456
2.73847
2.75059
2.7642
2.77284
2.78017
2.78521
2.78941
1.00001
1.00003
1.00006
1.0002
1.00036
1.00116
1.00211
1.00644
1.01287
1.03467
1.08781
1.20706
1.59474
2.46046
2.69251
2.72671
2.72377
2.72409
2.73782
2.74973
2.76325
2.77144
2.77879
2.78284
2.78632
1.00001
1.00003
1.00006
1.0002
1.00036
1.00113
1.00207
1.0063
1.0126
1.03391
1.08623
1.20183
1.58513
2.44363
2.68561
2.72557
2.72208
2.72227
2.73598
2.74712
2.76071
2.76905
2.77548
2.78022
2.78238
1
1.00003
1.00006
1.00019
1.00034
1.0011
1.002
1.00608
1.01218
1.03276
1.08379
1.19396
1.57012
2.41632
2.67482
2.72367
2.71923
2.7188
2.73139
2.74394
2.75472
2.76389
2.77115
2.77391
2.77754
1
1.00003
1.00005
1.00018
1.00033
1.00104
1.00191
1.00577
1.01163
1.0311
1.08059
1.18368
1.54942
2.3766
2.65964
2.7212
2.71549
2.71404
2.72548
2.73773
2.75052
2.75502
2.76242
2.76639
2.76681
1
1.00003
1.00005
1.00017
1.00031
1.00097
1.00179
1.0053
1.011
1.02866
1.0766
1.171
1.52385
2.32348
2.63978
2.71805
2.71178
2.70725
2.71969
2.72645
2.74106
2.74794
2.7519
2.75519
2.75721
1
1.00002
1.00005
1.00016
1.00028
1.00089
1.00165
1.00486
1.01021
1.02623
1.07092
1.1564
1.49009
2.25487
2.61318
2.71378
2.70694
2.70075
2.71317
2.72011
2.72671
2.73348
2.73784
2.73896
2.73653
1
1.00002
1.00004
1.00014
1.00026
1.00082
1.00151
1.00452
1.00925
1.02431
1.06364
1.14386
1.43464
2.15471
2.57847
2.7051
2.697
2.68821
2.69906
2.70996
2.71744
2.71798
2.71939
2.71822
2.71447
1
1.00002
1.00004
1.00013
1.00024
1.00075
1.00137
1.00426
1.00816
1.02295
1.05393
1.1292
1.36984
2.02655
2.53424
2.69555
2.68832
2.67559
2.68466
2.6894
2.69837
2.6994
2.69538
2.68617
2.66341
1
1.00002
1.00003
1.00011
1.00021
1.00065
1.0012
1.00367
1.00714
1.02
1.04594
1.11387
1.30834
1.90678
2.46246
2.66583
2.66429
2.65909
2.67218
2.67334
2.67647
2.67447
2.66446
2.64216
2.59124
0.999997
1.00002
1.00005
1.0002
1.00036
1.00116
1.00213
1.0065
1.01299
1.03502
1.08855
1.20956
1.59903
2.46778
2.69517
2.72678
2.7241
2.72448
2.73838
2.7505
2.76412
2.77275
2.78008
2.78512
2.78932
0.999996
1.00002
1.00005
1.00019
1.00036
1.00115
1.00211
1.00643
1.01286
1.03465
1.0878
1.20701
1.5947
2.46032
2.69242
2.72664
2.7237
2.72402
2.73773
2.74965
2.76317
2.77135
2.7787
2.78275
2.78624
0.999996
1.00002
1.00005
1.00019
1.00035
1.00112
1.00206
1.00629
1.01259
1.03389
1.08622
1.20178
1.58509
2.44349
2.68553
2.7255
2.72201
2.72219
2.73589
2.74704
2.76063
2.76897
2.7754
2.78013
2.7823
0.999996
1.00002
1.00005
1.00018
1.00034
1.00109
1.00199
1.00607
1.01217
1.03274
1.08378
1.19391
1.57008
2.41617
2.67473
2.72361
2.71916
2.71873
2.73131
2.74386
2.75464
2.76381
2.77107
2.77382
2.77745
0.999996
1.00002
1.00005
1.00017
1.00032
1.00103
1.0019
1.00576
1.01162
1.03108
1.08059
1.18363
1.54939
2.37646
2.65956
2.72113
2.71542
2.71397
2.72541
2.73765
2.75044
2.75494
2.76234
2.76632
2.76672
0.999996
1.00002
1.00004
1.00016
1.0003
1.00096
1.00178
1.00529
1.01099
1.02864
1.07658
1.17095
1.5238
2.32332
2.63969
2.71799
2.71171
2.70717
2.71961
2.72638
2.74099
2.74786
2.75181
2.75511
2.75713
0.999995
1.00002
1.00004
1.00015
1.00027
1.00088
1.00164
1.00485
1.0102
1.02621
1.07091
1.15636
1.49002
2.25469
2.6131
2.71371
2.70687
2.70068
2.71309
2.72004
2.72663
2.73341
2.73777
2.73888
2.73645
0.999995
1.00002
1.00004
1.00014
1.00025
1.00081
1.0015
1.00451
1.00924
1.02429
1.06363
1.14381
1.43461
2.15456
2.57838
2.70503
2.69692
2.68814
2.69899
2.70989
2.71736
2.71791
2.71931
2.71814
2.71439
0.999995
1.00001
1.00003
1.00012
1.00023
1.00075
1.00136
1.00425
1.00815
1.02294
1.05391
1.12916
1.36979
2.02637
2.53415
2.69548
2.68825
2.67551
2.68458
2.68933
2.6983
2.69934
2.69532
2.6861
2.66334
0.999995
1.00001
1.00003
1.0001
1.0002
1.00064
1.00119
1.00366
1.00713
1.01999
1.04593
1.11384
1.30829
1.90667
2.46234
2.66576
2.66422
2.65903
2.67211
2.67327
2.67639
2.67439
2.66439
2.64209
2.59118
0.999997
1
1.00003
1.00007
1.00022
1.00042
1.00129
1.0025
1.00697
1.01573
1.03872
1.10861
1.24703
1.68372
2.49281
2.64608
2.6319
2.63415
2.64346
2.65217
2.65149
2.6441
2.62369
2.57395
2.41454
0.999996
1
1.00003
1.00006
1.0002
1.00037
1.00119
1.00218
1.00669
1.01328
1.03594
1.08968
1.2151
1.60086
2.43465
2.62215
2.62389
2.61843
2.61921
2.62753
2.62634
2.61282
2.57985
2.52191
2.36357
0.999996
1
1.00002
1.00005
1.00017
1.00032
1.00102
1.00186
1.00568
1.01135
1.03053
1.07801
1.17847
1.52887
2.31611
2.57449
2.61903
2.61177
2.59691
2.59728
2.59604
2.58226
2.54286
2.48867
2.36685
0.999996
0.999999
1.00002
1.00004
1.00014
1.00026
1.00084
1.00156
1.00458
1.00963
1.02465
1.0663
1.14614
1.45372
2.15426
2.52004
2.6159
2.60432
2.591
2.57302
2.56248
2.54774
2.51437
2.46985
2.37477
0.999995
0.999998
1.00001
1.00003
1.00012
1.00022
1.00071
1.00131
1.00403
1.00785
1.02186
1.05138
1.12481
1.34651
1.9968
2.41063
2.58915
2.58464
2.5786
2.56345
2.53946
2.51693
2.47868
2.44826
2.38009
0.999994
0.999999
1
1.00003
1.00007
1.00022
1.00042
1.00129
1.00251
1.00688
1.01579
1.03833
1.1076
1.24572
1.65535
2.36663
2.54913
2.54856
2.54836
2.54258
2.52536
2.50276
2.45461
2.41515
2.37372
0.999994
0.999998
1
1.00003
1.00005
1.00019
1.00034
1.00111
1.00202
1.00621
1.01225
1.03317
1.08292
1.19396
1.55429
2.30143
2.51159
2.52613
2.51912
2.51428
2.50227
2.48799
2.45308
2.39905
2.35683
0.999994
0.999996
1
1.00002
1.00004
1.00014
1.00026
1.00083
1.00158
1.00446
1.00983
1.02442
1.06753
1.14685
1.45992
2.15452
2.45284
2.51863
2.50167
2.49431
2.477
2.45843
2.44182
2.40078
2.35158
0.999994
0.999995
1
1.00001
1.00004
1.00008
1.00025
1.00049
1.00138
1.00305
1.00751
1.02017
1.04484
1.13435
1.30114
1.87249
2.33209
2.49797
2.49291
2.48163
2.46785
2.44073
2.42026
2.3971
2.35338
0.999993
0.999994
0.999998
1
1.00003
1.00006
1.00021
1.00038
1.00121
1.00226
1.00673
1.0138
1.03625
1.09192
1.22112
1.58232
2.2721
2.44091
2.46026
2.45402
2.44615
2.42963
2.40451
2.38706
2.35673
0.999992
0.999993
0.999995
1
1.00001
1.00006
1.00011
1.00035
1.00068
1.00192
1.00423
1.01044
1.02805
1.06217
1.18789
1.43194
2.08811
2.40646
2.45172
2.44138
2.42749
2.4157
2.39454
2.37957
2.35851
0.999992
0.999993
0.999994
1
1.00001
1.00004
1.00008
1.00028
1.00052
1.00163
1.0031
1.00867
1.01959
1.04766
1.13449
1.31068
1.80216
2.29208
2.43307
2.43038
2.41595
2.40518
2.38572
2.37209
2.36257
0.999992
0.999992
0.999994
0.999996
1.00001
1.00002
1.00008
1.00016
1.0005
1.00094
1.00285
1.00559
1.01563
1.03428
1.08948
1.21547
1.65103
2.12174
2.38423
2.41277
2.40955
2.39877
2.38674
2.37442
2.37103
0.999991
0.999992
0.999993
0.999995
1
1.00001
1.00006
1.00011
1.00037
1.00068
1.00208
1.00399
1.01115
1.02505
1.06073
1.16618
1.40913
1.9673
2.29583
2.38958
2.39756
2.3972
2.39201
2.38626
2.38667
0.999991
0.999992
0.999992
0.999994
0.999997
1.00001
1.00003
1.0001
1.0002
1.00063
1.00119
1.00355
1.00702
1.01913
1.04445
1.10806
1.28563
1.79034
2.18684
2.35444
2.38169
2.3885
2.4033
2.40711
2.41082
0.999991
0.999991
0.999992
0.999993
0.999996
1.00001
1.00002
1.00007
1.00014
1.00046
1.00085
1.00259
1.00494
1.01418
1.0301
1.07885
1.19021
1.55607
2.04631
2.30986
2.36897
2.39035
2.40954
2.42488
2.43794
0.999991
0.999991
0.999992
0.999992
0.999995
0.999999
1.00001
1.00004
1.00013
1.00024
1.00074
1.00142
1.00403
1.0086
1.02167
1.05728
1.12668
1.37129
1.92593
2.24208
2.37708
2.40875
2.42318
2.43753
2.44695
0.999991
0.999991
0.999991
0.999992
0.999994
0.999996
1.00001
1.00002
1.00009
1.00017
1.00055
1.00102
1.00313
1.00599
1.01713
1.03646
1.0968
1.22957
1.70595
2.11637
2.3667
2.43402
2.45252
2.46062
2.46893
0.999991
0.999991
0.999991
0.999992
0.999992
0.999996
1
1.00002
1.00004
1.00015
1.00029
1.00088
1.00175
1.0047
1.01098
1.02625
1.0737
1.15728
1.48463
2.12161
2.37828
2.47342
2.4795
2.47814
2.47323
0.999991
0.999991
0.999991
0.999991
0.999992
0.999994
1
1.00001
1.00004
1.00008
1.00028
1.00053
1.00151
1.00328
1.00814
1.02153
1.04815
1.14267
1.31888
1.9039
2.36253
2.54759
2.54186
2.52076
2.49833
0.999991
0.999991
0.999991
0.999991
0.999992
0.999993
0.999998
1
1.00003
1.00007
1.00023
1.00043
1.00135
1.00254
1.00748
1.01579
1.04067
1.10599
1.25817
1.65894
2.40004
2.59052
2.58564
2.54804
2.51423
0.999991
0.999991
0.999991
0.999991
0.999992
0.999993
0.999995
1
1.00002
1.00007
1.00014
1.00045
1.00086
1.00248
1.0054
1.01372
1.03682
1.08265
1.24685
1.62893
2.358
2.66589
2.6638
2.60981
2.5583
0.999991
0.999991
0.999991
0.999991
0.999991
0.999993
0.999995
1
1.00001
1.00006
1.00012
1.0004
1.00075
1.00227
1.00464
1.01247
1.03172
1.07371
1.22313
1.5463
2.3032
2.67362
2.70998
2.65695
2.60297
0.999991
0.999991
0.999991
0.999991
0.999991
0.999993
0.999994
1
1.00001
1.00005
1.0001
1.00035
1.00066
1.00196
1.0042
1.01073
1.02914
1.06543
1.2066
1.47999
2.24275
2.69296
2.74163
2.69134
2.63346
0.999991
0.999991
0.999991
0.999991
0.999991
0.999992
0.999994
1
1.00001
1.00004
1.00009
1.0003
1.00059
1.00163
1.00383
1.00928
1.02651
1.05809
1.18856
1.43739
2.1672
2.696
2.75677
2.71653
2.65825
0.999991
0.999991
0.999991
0.999991
0.999991
0.999992
0.999994
0.999997
1.00001
1.00003
1.00011
1.00022
1.00064
1.00143
1.00352
1.00955
1.0215
1.06533
1.13702
1.46105
2.16173
2.69691
2.75646
2.71883
2.66131
0.999991
0.999991
0.999991
0.999991
0.999991
0.999992
0.999993
0.999998
1
1.00003
1.00007
1.00023
1.00051
1.00128
1.00338
1.00768
1.02258
1.0483
1.15742
1.36079
2.01049
2.68869
2.76421
2.72873
2.67116
0.999991
0.999991
0.999991
0.999991
0.999991
0.999992
0.999994
0.999997
1.00001
1.00003
1.0001
1.0002
1.00065
1.00123
1.00376
1.00766
1.02061
1.05265
1.12265
1.36349
2.01198
2.63101
2.75512
2.73097
2.68998
0.999991
0.999991
0.999991
0.999991
0.999991
0.999992
0.999994
0.999996
1.00001
1.00002
1.0001
1.00019
1.00062
1.00115
1.00357
1.0071
1.0198
1.04768
1.11637
1.32836
1.96372
2.56848
2.75587
2.73782
2.69487
0.999991
0.999991
0.999991
0.999991
0.999991
0.999992
0.999993
0.999997
1
1.00003
1.00006
1.00021
1.00043
1.00117
1.00273
1.00662
1.01831
1.04088
1.12443
1.28173
1.76741
2.60341
2.77066
2.74687
2.69594
0.999991
0.999991
0.999991
0.999991
0.999991
0.999992
0.999993
0.999996
1.00001
1.00002
1.00009
1.00017
1.00053
1.00105
1.00295
1.00664
1.01662
1.04558
1.10275
1.30292
1.84568
2.53553
2.76237
2.7418
2.70011
0.999991
0.999991
0.999991
0.999991
0.999991
0.999992
0.999993
0.999997
1
1.00003
1.00006
1.00022
1.00041
1.00128
1.00249
1.00697
1.01598
1.0394
1.11236
1.25785
1.71858
2.57907
2.75274
2.72562
2.70303
0.999991
0.999991
0.999991
0.999991
0.999991
0.999992
0.999993
0.999997
1
1.00003
1.00006
1.00021
1.0004
1.00125
1.0024
1.00689
1.01528
1.03851
1.10695
1.24871
1.6966
2.56997
2.7486
2.72286
2.70973
0.999991
0.999991
0.999991
0.999991
0.999991
0.999991
0.999993
0.999995
1.00001
1.00002
1.00007
1.00015
1.00046
1.00094
1.00255
1.00609
1.01464
1.04131
1.09016
1.27743
1.73043
2.49092
2.74154
2.72535
2.71122
0.999991
0.999991
0.999991
0.999991
0.999991
0.999992
0.999993
0.999997
1
1.00003
1.00006
1.0002
1.00038
1.00115
1.00232
1.00628
1.01489
1.03622
1.1031
1.23513
1.67054
2.53478
2.72064
2.71649
2.69878
0.999991
0.999991
0.999991
0.999991
0.999991
0.999991
0.999993
0.999995
1
1.00002
1.00007
1.00014
1.00043
1.0009
1.00236
1.0059
1.01376
1.03951
1.084
1.26749
1.67099
2.46902
2.7281
2.72435
2.70443
0.999991
0.999991
0.999991
0.999991
0.999991
0.999992
0.999993
0.999997
1
1.00003
1.00006
1.0002
1.00037
1.00117
1.00224
1.00649
1.01406
1.03615
1.09771
1.22833
1.64601
2.51268
2.70793
2.71014
2.69535
0.999991
0.999991
0.999991
0.999991
0.999991
0.999992
0.999993
0.999997
1
1.00003
1.00006
1.0002
1.00037
1.00116
1.00221
1.00639
1.01392
1.03557
1.0969
1.22534
1.6396
2.51098
2.7033
2.70717
2.6916
0.999991
0.999991
0.999991
0.999991
0.999991
0.999991
0.999993
0.999995
1
1.00002
1.00007
1.00014
1.00045
1.00088
1.00248
1.00555
1.01371
1.03786
1.0827
1.25819
1.64286
2.43961
2.71343
2.71584
2.6982
0.999991
0.999991
0.999991
0.999991
0.999991
0.999991
0.999993
0.999995
1.00001
1.00002
1.00008
1.00014
1.00048
1.00088
1.00266
1.00545
1.01437
1.03716
1.08444
1.25457
1.63859
2.43648
2.71243
2.71555
2.69715
1.00001
1.00001
1.00004
1.00007
1.00023
1.00043
1.0013
1.00251
1.00698
1.01575
1.03873
1.10864
1.24708
1.6838
2.49292
2.64616
2.63198
2.63422
2.64352
2.65222
2.65155
2.64416
2.62376
2.57401
2.41458
1
1.00001
1.00004
1.00007
1.00021
1.00038
1.0012
1.00219
1.0067
1.01329
1.03595
1.0897
1.21515
1.60095
2.43479
2.62225
2.62394
2.61849
2.61927
2.62759
2.6264
2.61288
2.57991
2.52197
2.36362
1
1.00001
1.00003
1.00006
1.00018
1.00032
1.00103
1.00187
1.0057
1.01136
1.03055
1.07801
1.17852
1.52892
2.31626
2.5746
2.61909
2.61184
2.59698
2.59735
2.5961
2.58231
2.54291
2.48872
2.36691
1
1.00001
1.00003
1.00005
1.00015
1.00027
1.00085
1.00157
1.00459
1.00964
1.02467
1.06632
1.14619
1.4538
2.15444
2.52014
2.61596
2.60439
2.59106
2.57309
2.56256
2.54781
2.51442
2.4699
2.37482
1
1.00001
1.00002
1.00004
1.00013
1.00023
1.00072
1.00132
1.00404
1.00786
1.02188
1.0514
1.12485
1.34658
1.99698
2.41076
2.58924
2.58473
2.57867
2.56352
2.53953
2.517
2.47874
2.44831
2.38014
1
1.00001
1.00001
1.00004
1.00007
1.00023
1.00043
1.0013
1.00252
1.00689
1.0158
1.03835
1.10763
1.24577
1.65543
2.36663
2.5492
2.54863
2.54844
2.54266
2.52543
2.50283
2.45468
2.41522
2.37377
1
1.00001
1.00001
1.00003
1.00006
1.0002
1.00035
1.00112
1.00203
1.00622
1.01226
1.03319
1.08294
1.19401
1.55436
2.30154
2.51167
2.52618
2.51918
2.51435
2.50234
2.48806
2.45315
2.39913
2.35691
1
1
1.00001
1.00003
1.00005
1.00015
1.00027
1.00084
1.00159
1.00447
1.00984
1.02444
1.06755
1.1469
1.46
2.15472
2.45294
2.51868
2.50172
2.49437
2.47707
2.4585
2.44189
2.40085
2.35167
1
1
1.00001
1.00001
1.00005
1.00009
1.00026
1.0005
1.00139
1.00306
1.00753
1.02018
1.04486
1.13439
1.30123
1.8727
2.33224
2.49803
2.49297
2.48168
2.46791
2.44081
2.42034
2.39719
2.35347
1
1
1.00001
1.00001
1.00004
1.00007