/*--------------------------------*- C++ -*----------------------------------*\
| =========                 |                                                 |
| \\      /  F ield         | OpenFOAM: The Open Source CFD Toolbox           |
|  \\    /   O peration     | Version:  4.1                                   |
|   \\  /    A nd           | Web:      www.OpenFOAM.org                      |
|    \\/     M anipulation  |                                                 |
\*---------------------------------------------------------------------------*/
FoamFile
{
    version     2.0;
    format      ascii;
    class       volScalarField;
    location    "0.96";
    object      Ma;
}
// * * * * * * * * * * * * * * * * * * * * * * * * * * * * * * * * * * * * * //

dimensions      [0 0 0 0 0 0 0];

internalField   nonuniform List<scalar> 
18000
(
5.07154e-12
5.01629e-12
4.94905e-12
4.89465e-12
4.84053e-12
4.78712e-12
4.73417e-12
4.68238e-12
4.63136e-12
4.58228e-12
6.30043e-12
6.08668e-12
5.86893e-12
5.66957e-12
5.47876e-12
5.29547e-12
5.11937e-12
4.95059e-12
4.78779e-12
4.6359e-12
7.91517e-12
7.45199e-12
7.00807e-12
6.60245e-12
6.22429e-12
5.8722e-12
5.54479e-12
5.23828e-12
4.95269e-12
4.69066e-12
1.00626e-11
9.20789e-12
8.42861e-12
7.72773e-12
7.09718e-12
6.52819e-12
6.01336e-12
5.54721e-12
5.12405e-12
4.74638e-12
1.29583e-11
1.14908e-11
1.02114e-11
9.09466e-12
8.1236e-12
7.27509e-12
6.53168e-12
5.87887e-12
5.30313e-12
4.80333e-12
1.69177e-11
1.4493e-11
1.24709e-11
1.07657e-11
9.33536e-12
8.12843e-12
7.10584e-12
6.23532e-12
5.48989e-12
4.8612e-12
2.24021e-11
1.84974e-11
1.53596e-11
1.28229e-11
1.07738e-11
9.10719e-12
7.74262e-12
6.61813e-12
5.68537e-12
4.91998e-12
3.03434e-11
2.42078e-11
1.94758e-11
1.58294e-11
1.30171e-11
1.08307e-11
9.11778e-12
7.76645e-12
6.69211e-12
5.88132e-12
6.15717e-09
6.34922e-09
6.00067e-09
5.67947e-09
5.38724e-09
5.12097e-09
4.87781e-09
4.65522e-09
4.45169e-09
4.39306e-09
6.92671e-07
7.20834e-08
6.16968e-08
5.41747e-08
4.78024e-08
4.2385e-08
3.77655e-08
3.38171e-08
3.03206e-08
1.26709e-07
5.50974e-12
5.44578e-12
5.37406e-12
5.31155e-12
5.25024e-12
5.19008e-12
5.12962e-12
5.07145e-12
5.01387e-12
4.95782e-12
6.91041e-12
6.66326e-12
6.42165e-12
6.19314e-12
5.97509e-12
5.76582e-12
5.56644e-12
5.37505e-12
5.19186e-12
5.01866e-12
8.76869e-12
8.22793e-12
7.72918e-12
7.26011e-12
6.82606e-12
6.42329e-12
6.05051e-12
5.70299e-12
5.37959e-12
5.08202e-12
1.12799e-11
1.02738e-11
9.38131e-12
8.56406e-12
7.83347e-12
7.1782e-12
6.5893e-12
6.05869e-12
5.57794e-12
5.14574e-12
1.47301e-11
1.29814e-11
1.14872e-11
1.01691e-11
9.03206e-12
8.04728e-12
7.1906e-12
6.44301e-12
5.7873e-12
5.21247e-12
1.95558e-11
1.66137e-11
1.42014e-11
1.21582e-11
1.04643e-11
9.05007e-12
7.86347e-12
6.86108e-12
6.00925e-12
5.28149e-12
2.64223e-11
2.15724e-11
1.77392e-11
1.46449e-11
1.21865e-11
1.02132e-11
8.61639e-12
7.3149e-12
6.24313e-12
5.35252e-12
3.64466e-11
2.84455e-11
2.24104e-11
1.77878e-11
1.42776e-11
1.15758e-11
9.47358e-12
7.81884e-12
6.50111e-12
5.43755e-12
2.8195e-10
6.63192e-10
5.50382e-10
4.57521e-10
3.84258e-10
3.25629e-10
2.78228e-10
2.3954e-10
2.07745e-10
1.85282e-10
4.93858e-07
7.098e-08
6.22901e-08
5.48666e-08
4.86645e-08
4.34397e-08
3.90024e-08
3.5206e-08
3.19517e-08
3.1106e-08
5.93791e-13
5.73346e-13
4.7116e-13
4.56458e-13
4.42617e-13
4.30006e-13
4.18384e-13
4.08285e-13
3.98957e-13
3.8891e-13
8.22593e-13
7.53323e-13
6.85299e-13
6.33477e-13
5.8617e-13
5.43897e-13
5.05486e-13
4.71681e-13
4.43075e-13
4.02497e-13
1.06671e-12
9.44839e-13
9.06437e-13
8.15607e-13
7.34313e-13
6.62749e-13
6.00765e-13
5.47317e-13
4.99025e-13
4.21146e-13
1.46439e-12
1.28166e-12
1.23857e-12
1.08171e-12
9.45662e-13
8.30403e-13
7.32846e-13
6.50124e-13
5.77456e-13
4.46819e-13
2.09365e-12
1.82099e-12
1.7146e-12
1.44963e-12
1.22806e-12
1.04735e-12
8.98846e-13
7.76474e-13
6.71539e-13
4.79521e-13
3.09908e-12
2.66875e-12
2.39657e-12
1.95215e-12
1.59969e-12
1.32226e-12
1.10267e-12
9.2739e-13
7.805e-13
5.18183e-13
4.72683e-12
3.98894e-12
3.37953e-12
2.64155e-12
2.08591e-12
1.66761e-12
1.34848e-12
1.10281e-12
9.04315e-13
5.63118e-13
7.53306e-12
6.06493e-12
4.80986e-12
3.59144e-12
2.72385e-12
2.10022e-12
1.64411e-12
1.30535e-12
1.04255e-12
6.13184e-13
4.45809e-10
3.25992e-11
2.62885e-11
1.91625e-11
1.42655e-11
1.08158e-11
8.33891e-12
6.53115e-12
5.19157e-12
4.14598e-12
4.22412e-07
7.63939e-09
5.68107e-09
4.38586e-09
3.43752e-09
2.73051e-09
2.19536e-09
1.7847e-09
1.46647e-09
1.25958e-09
3.8225e-13
3.59741e-13
1.72254e-13
1.51895e-13
1.31605e-13
1.12536e-13
9.47154e-14
7.8312e-14
6.38697e-14
3.86178e-14
5.30901e-13
4.59587e-13
3.86036e-13
3.36539e-13
2.89896e-13
2.48261e-13
2.11548e-13
1.79764e-13
1.53134e-13
8.0162e-14
5.95879e-13
4.90506e-13
5.23729e-13
4.56796e-13
3.964e-13
3.45052e-13
3.02409e-13
2.68396e-13
2.39202e-13
1.19844e-13
7.31722e-13
6.37767e-13
7.61072e-13
6.59718e-13
5.70326e-13
4.9652e-13
4.35775e-13
3.86465e-13
3.43222e-13
1.71113e-13
9.64347e-13
9.4864e-13
1.10889e-12
9.44776e-13
8.04592e-13
6.90539e-13
5.97805e-13
5.22589e-13
4.56346e-13
2.24298e-13
1.35617e-12
1.49288e-12
1.613e-12
1.33899e-12
1.1128e-12
9.34174e-13
7.91353e-13
6.77879e-13
5.79366e-13
2.80737e-13
2.00741e-12
2.37343e-12
2.34423e-12
1.88119e-12
1.51691e-12
1.23847e-12
1.02203e-12
8.53502e-13
7.12337e-13
3.40407e-13
3.32335e-12
3.77958e-12
3.40826e-12
2.62872e-12
2.04593e-12
1.61783e-12
1.29645e-12
1.05259e-12
8.56365e-13
4.03233e-13
5.07285e-10
8.17769e-12
4.77623e-12
3.54952e-12
2.67937e-12
2.05978e-12
1.60776e-12
1.27411e-12
1.01299e-12
4.74539e-13
4.19005e-07
2.44356e-09
2.74227e-10
1.83835e-10
1.26515e-10
8.89441e-11
6.37401e-11
4.64885e-11
3.44862e-11
2.62918e-11
3.81772e-13
3.58811e-13
1.71765e-13
1.5123e-13
1.3083e-13
1.11674e-13
9.41288e-14
7.76491e-14
6.27419e-14
3.69208e-14
5.30426e-13
4.59096e-13
3.85768e-13
3.3642e-13
2.89794e-13
2.47834e-13
2.11097e-13
1.79656e-13
1.5273e-13
7.91521e-14
5.95037e-13
4.8975e-13
5.23767e-13
4.56857e-13
3.96162e-13
3.44948e-13
3.0224e-13
2.67963e-13
2.38634e-13
1.19071e-13
7.29957e-13
6.36762e-13
7.61089e-13
6.59888e-13
5.70469e-13
4.96578e-13
4.35915e-13
3.8652e-13
3.43115e-13
1.70035e-13
9.60185e-13
9.47179e-13
1.10971e-12
9.45445e-13
8.0524e-13
6.91419e-13
5.98094e-13
5.22331e-13
4.56457e-13
2.24021e-13
1.34611e-12
1.49099e-12
1.61383e-12
1.34067e-12
1.11428e-12
9.35615e-13
7.92708e-13
6.78652e-13
5.80086e-13
2.80675e-13
1.98437e-12
2.37123e-12
2.34701e-12
1.88433e-12
1.52021e-12
1.24147e-12
1.02442e-12
8.55302e-13
7.14241e-13
3.4114e-13
3.29442e-12
3.77732e-12
3.41392e-12
2.63507e-12
2.05208e-12
1.62337e-12
1.30102e-12
1.0564e-12
8.59411e-13
4.05007e-13
5.41325e-10
9.49722e-12
4.99205e-12
3.67154e-12
2.74945e-12
2.09929e-12
1.62918e-12
1.28479e-12
1.01743e-12
4.72065e-13
4.45193e-07
2.67684e-09
2.34896e-11
8.04374e-12
5.25001e-12
3.59809e-12
2.55298e-12
1.86798e-12
1.39118e-12
7.26087e-13
3.81807e-13
3.58468e-13
1.7225e-13
1.51764e-13
1.31157e-13
1.11885e-13
9.41286e-14
7.7967e-14
6.31661e-14
3.68131e-14
5.31313e-13
4.59548e-13
3.86958e-13
3.37437e-13
2.90741e-13
2.48536e-13
2.11488e-13
1.79872e-13
1.53339e-13
7.97238e-14
5.96906e-13
4.91529e-13
5.26136e-13
4.58711e-13
3.97917e-13
3.46163e-13
3.03132e-13
2.68606e-13
2.39142e-13
1.19647e-13
7.3379e-13
6.4078e-13
7.64965e-13
6.62989e-13
5.73032e-13
4.98478e-13
4.37195e-13
3.87691e-13
3.43821e-13
1.70474e-13
9.67514e-13
9.54618e-13
1.11586e-12
9.50465e-13
8.09165e-13
6.94759e-13
6.00769e-13
5.24454e-13
4.57903e-13
2.24944e-13
1.35964e-12
1.50424e-12
1.62452e-12
1.34879e-12
1.12059e-12
9.40889e-13
7.96928e-13
6.81614e-13
5.82586e-13
2.82334e-13
2.00936e-12
2.39404e-12
2.36519e-12
1.89816e-12
1.53082e-12
1.25004e-12
1.03113e-12
8.60448e-13
7.18104e-13
3.43814e-13
3.34971e-12
3.81832e-12
3.44534e-12
2.6583e-12
2.06945e-12
1.63685e-12
1.31175e-12
1.0645e-12
8.65422e-13
4.08932e-13
5.76305e-10
9.93603e-12
5.05629e-12
3.71428e-12
2.7797e-12
2.12149e-12
1.64563e-12
1.29692e-12
1.02666e-12
4.78231e-13
4.84707e-07
2.87845e-09
2.2688e-11
5.20306e-12
3.70369e-12
2.72773e-12
2.04919e-12
1.56827e-12
1.20792e-12
5.5948e-13
3.81733e-13
3.58202e-13
1.72784e-13
1.52404e-13
1.31747e-13
1.12496e-13
9.4627e-14
7.83073e-14
6.53073e-14
5.96316e-14
5.3228e-13
4.60135e-13
3.88614e-13
3.38698e-13
2.91848e-13
2.49619e-13
2.12455e-13
1.80571e-13
1.53914e-13
8.70119e-14
5.99125e-13
4.93543e-13
5.28796e-13
4.61088e-13
3.99795e-13
3.47745e-13
3.04189e-13
2.69514e-13
2.40236e-13
1.23406e-13
7.38258e-13
6.45317e-13
7.69169e-13
6.66708e-13
5.76183e-13
5.01083e-13
4.39032e-13
3.88866e-13
3.45476e-13
1.73519e-13
9.7604e-13
9.63074e-13
1.12277e-12
9.56124e-13
8.13739e-13
6.98766e-13
6.04184e-13
5.27097e-13
4.60119e-13
2.28113e-13
1.37572e-12
1.51878e-12
1.63645e-12
1.35846e-12
1.12802e-12
9.4712e-13
8.02425e-13
6.85955e-13
5.85828e-13
2.86148e-13
2.03864e-12
2.41937e-12
2.38504e-12
1.91394e-12
1.54306e-12
1.26012e-12
1.03955e-12
8.67192e-13
7.23392e-13
3.48766e-13
3.37407e-12
3.86253e-12
3.47986e-12
2.68442e-12
2.08938e-12
1.65233e-12
1.32481e-12
1.07534e-12
8.73615e-13
4.15358e-13
5.7333e-10
9.55674e-12
5.11372e-12
3.75848e-12
2.81246e-12
2.14651e-12
1.66584e-12
1.31218e-12
1.03872e-12
4.87413e-13
5.03565e-07
2.78659e-09
2.06454e-11
5.23796e-12
3.74387e-12
2.75987e-12
2.07555e-12
1.58847e-12
1.22385e-12
5.70688e-13
3.81669e-13
3.57009e-13
1.72877e-13
1.52609e-13
1.3288e-13
1.16655e-13
1.10111e-13
2.17053e-13
7.79284e-13
2.04971e-12
5.32406e-13
4.59368e-13
3.88955e-13
3.39337e-13
2.93045e-13
2.52248e-13
2.18994e-13
2.2611e-13
4.89203e-13
1.35129e-12
5.99692e-13
4.93079e-13
5.2929e-13
4.61739e-13
4.01089e-13
3.50474e-13
3.10343e-13
2.89839e-13
3.91939e-13
9.02346e-13
7.39691e-13
6.44908e-13
7.6963e-13
6.67464e-13
5.77417e-13
5.0362e-13
4.45271e-13
4.02221e-13
4.16716e-13
6.4847e-13
9.7827e-13
9.62271e-13
1.12281e-12
9.56739e-13
8.15138e-13
7.01025e-13
6.09964e-13
5.38973e-13
5.02268e-13
5.15957e-13
1.378e-12
1.51695e-12
1.63578e-12
1.35908e-12
1.12981e-12
9.50417e-13
8.0928e-13
6.99096e-13
6.17067e-13
4.65103e-13
2.03956e-12
2.41586e-12
2.38365e-12
1.91487e-12
1.54571e-12
1.26491e-12
1.0478e-12
8.81236e-13
7.50666e-13
4.67321e-13
3.20772e-12
3.85513e-12
3.47798e-12
2.68667e-12
2.09403e-12
1.65874e-12
1.33405e-12
1.09168e-12
9.01043e-13
5.00869e-13
3.65655e-10
7.03337e-12
5.09653e-12
3.76303e-12
2.81992e-12
2.15613e-12
1.67907e-12
1.33235e-12
1.06655e-12
5.54524e-13
3.82893e-07
1.31777e-09
1.0714e-11
5.19078e-12
3.75216e-12
2.77263e-12
2.09278e-12
1.61265e-12
1.25402e-12
6.28267e-13
4.16334e-13
4.56647e-13
2.55866e-13
1.55211e-13
2.65381e-13
7.49834e-13
1.75426e-12
7.06936e-12
2.66818e-11
5.57233e-11
5.99517e-13
6.34822e-13
4.99824e-13
3.67865e-13
3.07021e-13
6.38807e-13
1.32818e-12
4.41949e-12
1.59968e-11
3.70319e-11
7.31091e-13
8.00812e-13
7.09222e-13
5.4135e-13
3.93749e-13
5.29197e-13
1.1382e-12
3.01466e-12
1.03025e-11
2.46801e-11
9.5805e-13
1.08753e-12
1.0162e-12
7.98394e-13
5.912e-13
5.42991e-13
1.04498e-12
2.24451e-12
7.11118e-12
1.69658e-11
1.31794e-12
1.52942e-12
1.43612e-12
1.13865e-12
8.65188e-13
6.84771e-13
9.35034e-13
1.88633e-12
5.20839e-12
1.20214e-11
1.88021e-12
2.20112e-12
2.01666e-12
1.58705e-12
1.21359e-12
9.28896e-13
9.41808e-13
1.72762e-12
4.00991e-12
8.7583e-12
2.75111e-12
3.22735e-12
2.83053e-12
2.18312e-12
1.65778e-12
1.25115e-12
1.06836e-12
1.54318e-12
3.22253e-12
6.54471e-12
3.9974e-12
4.79555e-12
3.98507e-12
2.9838e-12
2.22323e-12
1.65464e-12
1.30179e-12
1.46686e-12
2.68842e-12
5.00673e-12
2.771e-10
6.9369e-12
5.63498e-12
4.0746e-12
2.9512e-12
2.15072e-12
1.62069e-12
1.51339e-12
2.31781e-12
3.91661e-12
1.20438e-07
3.21673e-09
1.5766e-11
5.43687e-12
3.86995e-12
2.75171e-12
2.00996e-12
1.66569e-12
2.08517e-12
3.13929e-12
2.49763e-12
2.33859e-12
1.49132e-12
1.76396e-13
2.75736e-12
9.30229e-12
3.10446e-11
1.34447e-10
3.52343e-10
4.53472e-10
3.52012e-12
3.38347e-12
2.4959e-12
1.11524e-12
1.37823e-12
6.53952e-12
2.14337e-11
8.16573e-11
2.17798e-10
2.87537e-10
4.78579e-12
4.63215e-12
3.65065e-12
2.25469e-12
2.23461e-13
4.23954e-12
1.49225e-11
5.28666e-11
1.40872e-10
1.97711e-10
6.44929e-12
6.20066e-12
5.03408e-12
3.51654e-12
1.35531e-12
2.36281e-12
1.03344e-11
3.58261e-11
9.47488e-11
1.41338e-10
8.68549e-12
8.2046e-12
6.71699e-12
4.97563e-12
2.74749e-12
7.79232e-13
7.0699e-12
2.48259e-11
6.58022e-11
1.03557e-10
1.17473e-11
1.08113e-11
8.80095e-12
6.67759e-12
4.23021e-12
1.07806e-12
4.53111e-12
1.73984e-11
4.68994e-11
7.73273e-11
1.60256e-11
1.42798e-11
1.14313e-11
8.70344e-12
5.89319e-12
2.60776e-12
2.4706e-12
1.23621e-11
3.41395e-11
5.86557e-11
2.21725e-11
1.8983e-11
1.48036e-11
1.11564e-11
7.7674e-12
4.19758e-12
9.7874e-13
8.66603e-12
2.52257e-11
4.50853e-11
7.77496e-10
2.59229e-11
1.92128e-11
1.41794e-11
9.92591e-12
5.89987e-12
1.61196e-12
5.83199e-12
1.8826e-11
3.50375e-11
1.05077e-06
4.49735e-09
2.86715e-11
1.79747e-11
1.24327e-11
7.72945e-12
3.13074e-12
3.61545e-12
1.40967e-11
2.74711e-11
3.27288e-12
2.9441e-12
1.93373e-12
1.98191e-12
8.63303e-12
3.22638e-11
1.5009e-10
4.97413e-10
8.58171e-10
9.68445e-10
4.32792e-12
4.03332e-12
3.06641e-12
1.62675e-12
5.35824e-12
2.14427e-11
9.01864e-11
2.99128e-10
5.26759e-10
5.78721e-10
5.60602e-12
5.2905e-12
4.3428e-12
2.66614e-12
2.88468e-12
1.40438e-11
5.71067e-11
1.87996e-10
3.46913e-10
3.76585e-10
7.23669e-12
6.80643e-12
5.77791e-12
4.12341e-12
1.93364e-12
8.75702e-12
3.72867e-11
1.2264e-10
2.3675e-10
2.55252e-10
9.36701e-12
8.68459e-12
7.44494e-12
5.72716e-12
3.01902e-12
5.01539e-12
2.45309e-11
8.20632e-11
1.65475e-10
1.77676e-10
1.22214e-11
1.10661e-11
9.43439e-12
7.49889e-12
4.76032e-12
2.57634e-12
1.59044e-11
5.58152e-11
1.17694e-10
1.26247e-10
1.61366e-11
1.41565e-11
1.18693e-11
9.51817e-12
6.63921e-12
2.66295e-12
9.93609e-12
3.84222e-11
8.46471e-11
9.11403e-11
2.16548e-11
1.82556e-11
1.49195e-11
1.18766e-11
8.64834e-12
4.43888e-12
5.62287e-12
2.64564e-11
6.14363e-11
6.66296e-11
3.56226e-10
2.52227e-11
1.88244e-11
1.46994e-11
1.08627e-11
6.49965e-12
2.85288e-12
1.79755e-11
4.48549e-11
4.91398e-11
2.33745e-07
1.03651e-08
7.54511e-11
1.81198e-11
1.33386e-11
8.6036e-12
2.88776e-12
1.17778e-11
3.28044e-11
3.64345e-11
1.03903e-12
1.28911e-12
1.54155e-12
3.18288e-12
8.30841e-12
2.41604e-11
8.41643e-11
2.28035e-10
3.35978e-10
3.31349e-10
1.14103e-12
1.30795e-12
1.43078e-12
2.43194e-12
5.97591e-12
1.70768e-11
5.6537e-11
1.48499e-10
2.04609e-10
1.63039e-10
1.24892e-12
1.37002e-12
1.44912e-12
1.98159e-12
4.30761e-12
1.2099e-11
3.86877e-11
9.9299e-11
1.30844e-10
7.3684e-11
1.36424e-12
1.46341e-12
1.54457e-12
1.82196e-12
3.19313e-12
8.58682e-12
2.70039e-11
6.80425e-11
8.68632e-11
3.25335e-11
1.4888e-12
1.57795e-12
1.67911e-12
1.84692e-12
2.53395e-12
6.10343e-12
1.89955e-11
4.76774e-11
5.91098e-11
1.55647e-11
1.63393e-12
1.71131e-12
1.8313e-12
1.96094e-12
2.25326e-12
4.43955e-12
1.34275e-11
3.39607e-11
4.09545e-11
1.07606e-11
1.80763e-12
1.86739e-12
1.99382e-12
2.11636e-12
2.22421e-12
3.35758e-12
9.50588e-12
2.43238e-11
2.86978e-11
1.01555e-11
2.15209e-12
2.05079e-12
2.17159e-12
2.2889e-12
2.32213e-12
2.77562e-12
6.80153e-12
1.75342e-11
2.02656e-11
1.00009e-11
8.73065e-10
1.68976e-11
2.36265e-12
2.47141e-12
2.47922e-12
2.55903e-12
4.95923e-12
1.27034e-11
1.4363e-11
9.66392e-12
3.95507e-07
1.28997e-08
5.3578e-11
2.93776e-12
2.6576e-12
2.55913e-12
3.74434e-12
9.22027e-12
1.0149e-11
9.00259e-12
7.74479e-13
1.47655e-12
1.60314e-12
2.51387e-12
4.12566e-12
6.77942e-12
1.45815e-11
5.63359e-11
1.98838e-10
5.21268e-10
7.10922e-13
1.32627e-12
1.38593e-12
2.13853e-12
3.47115e-12
5.72955e-12
1.09933e-11
3.50305e-11
1.2135e-10
3.13185e-10
6.48193e-13
1.18507e-12
1.19367e-12
1.81033e-12
2.91181e-12
4.78932e-12
8.70751e-12
2.31359e-11
7.76295e-11
1.96621e-10
5.95441e-13
1.06378e-12
1.0328e-12
1.54989e-12
2.4535e-12
4.00973e-12
7.04174e-12
1.6173e-11
5.16051e-11
1.28297e-10
5.49427e-13
9.59807e-13
8.95599e-13
1.32543e-12
2.07486e-12
3.38244e-12
5.76503e-12
1.18869e-11
3.53585e-11
8.63759e-11
5.1028e-13
8.70679e-13
7.80334e-13
1.14499e-12
1.77824e-12
2.85887e-12
4.77716e-12
9.08806e-12
2.48383e-11
5.97236e-11
4.76654e-13
7.94415e-13
6.82259e-13
9.91292e-13
1.52133e-12
2.42402e-12
4.01338e-12
7.16363e-12
1.78352e-11
4.22489e-11
1.01661e-12
7.30235e-13
5.99952e-13
8.61536e-13
1.31138e-12
2.0742e-12
3.39699e-12
5.78525e-12
1.30465e-11
3.04923e-11
1.27758e-09
4.75009e-11
6.23074e-13
7.49826e-13
1.13673e-12
1.78546e-12
2.89263e-12
4.76306e-12
9.70957e-12
2.24131e-11
3.93142e-07
3.94433e-08
2.97045e-10
3.22396e-12
9.40013e-13
1.53445e-12
2.46538e-12
3.97465e-12
7.32248e-12
1.67321e-11
1.04499e-12
1.83196e-12
1.63513e-12
2.16643e-12
3.01201e-12
4.35588e-12
6.66102e-12
1.23299e-11
4.98495e-11
1.78835e-10
9.72516e-13
1.67969e-12
1.46549e-12
1.93523e-12
2.66481e-12
3.79495e-12
5.6694e-12
9.90362e-12
3.49251e-11
1.07805e-10
9.02565e-13
1.53375e-12
1.30218e-12
1.71161e-12
2.34139e-12
3.30626e-12
4.82401e-12
7.86643e-12
2.46086e-11
6.8817e-11
8.41235e-13
1.4061e-12
1.16319e-12
1.51759e-12
2.0659e-12
2.89219e-12
4.15881e-12
6.3507e-12
1.77267e-11
4.59943e-11
7.87862e-13
1.29467e-12
1.04335e-12
1.35107e-12
1.83422e-12
2.54728e-12
3.62434e-12
5.26974e-12
1.29356e-11
3.18193e-11
7.41334e-13
1.19723e-12
9.39166e-13
1.20872e-12
1.62941e-12
2.25069e-12
3.18774e-12
4.48151e-12
9.5383e-12
2.26186e-11
7.00439e-13
1.11123e-12
8.48935e-13
1.0848e-12
1.4537e-12
2.00154e-12
2.81872e-12
3.87775e-12
7.09109e-12
1.64267e-11
1.42844e-12
1.03843e-12
7.70878e-13
9.76782e-13
1.30083e-12
1.78239e-12
2.49949e-12
3.39492e-12
5.31693e-12
1.21361e-11
1.82815e-09
8.38356e-11
8.22705e-13
8.8011e-13
1.16793e-12
1.59157e-12
2.22639e-12
2.99214e-12
4.02888e-12
9.07593e-12
4.81866e-07
6.90127e-08
7.21335e-10
3.52274e-12
9.69234e-13
1.42499e-12
1.98715e-12
2.64702e-12
3.06579e-12
6.84708e-12
1.43921e-12
2.30517e-12
1.65196e-12
1.89265e-12
2.27088e-12
2.81848e-12
3.7748e-12
5.70778e-12
1.30534e-11
2.89553e-11
1.36124e-12
2.15757e-12
1.53444e-12
1.76324e-12
2.11231e-12
2.59598e-12
3.34388e-12
4.70472e-12
1.05174e-11
2.1187e-11
1.28278e-12
2.01039e-12
1.41064e-12
1.62338e-12
1.94508e-12
2.3771e-12
2.99546e-12
3.95316e-12
8.22288e-12
1.57332e-11
1.2134e-12
1.87883e-12
1.2989e-12
1.49527e-12
1.79243e-12
2.18568e-12
2.72062e-12
3.4192e-12
6.38062e-12
1.18848e-11
1.15187e-12
1.76116e-12
1.19864e-12
1.37842e-12
1.65442e-12
2.01505e-12
2.49509e-12
3.03066e-12
4.93359e-12
9.10427e-12
1.09703e-12
1.65504e-12
1.10857e-12
1.27373e-12
1.52634e-12
1.85944e-12
2.29663e-12
2.73478e-12
3.80282e-12
7.03107e-12
1.04839e-12
1.55979e-12
1.02761e-12
1.17849e-12
1.4105e-12
1.71921e-12
2.12483e-12
2.49355e-12
2.92556e-12
5.45531e-12
1.85682e-12
1.47815e-12
9.54853e-13
1.09185e-12
1.30509e-12
1.59105e-12
1.96803e-12
2.29476e-12
2.24402e-12
4.25176e-12
2.22515e-09
1.21001e-10
1.1285e-12
1.01169e-12
1.20831e-12
1.47312e-12
1.82383e-12
2.12207e-12
1.71388e-12
3.32179e-12
3.93051e-07
9.45585e-08
1.13681e-09
3.67387e-12
1.02558e-12
1.36088e-12
1.68797e-12
1.96296e-12
1.296e-12
2.58944e-12
2.00802e-12
2.90122e-12
1.61815e-12
1.59731e-12
1.65799e-12
1.799e-12
2.13501e-12
2.90919e-12
6.13858e-12
8.56537e-12
1.9258e-12
2.76807e-12
1.5583e-12
1.55571e-12
1.62461e-12
1.74487e-12
1.97851e-12
2.46945e-12
5.01037e-12
7.06085e-12
1.84316e-12
2.63064e-12
1.48099e-12
1.49399e-12
1.57158e-12
1.68445e-12
1.85975e-12
2.15542e-12
3.98011e-12
5.73654e-12
1.76825e-12
2.50394e-12
1.40583e-12
1.42961e-12
1.51438e-12
1.62661e-12
1.7726e-12
1.9466e-12
3.13956e-12
4.66093e-12
1.70018e-12
2.38668e-12
1.33332e-12
1.36601e-12
1.45664e-12
1.56986e-12
1.70166e-12
1.80748e-12
2.45728e-12
3.7829e-12
1.639e-12
2.27887e-12
1.26482e-12
1.30282e-12
1.3966e-12
1.51356e-12
1.64412e-12
1.70744e-12
1.90661e-12
3.06597e-12
1.58318e-12
2.17929e-12
1.20042e-12
1.24165e-12
1.33654e-12
1.45613e-12
1.58894e-12
1.63277e-12
1.45645e-12
2.48122e-12
2.38145e-12
2.09354e-12
1.13978e-12
1.18298e-12
1.27841e-12
1.39821e-12
1.53285e-12
1.57277e-12
1.09266e-12
2.00087e-12
2.50308e-09
1.50557e-10
1.99696e-12
1.12689e-12
1.22124e-12
1.3413e-12
1.47732e-12
1.52029e-12
8.00846e-13
1.60463e-12
1.27313e-07
1.05153e-07
2.51574e-09
1.89655e-11
1.07735e-12
1.27891e-12
1.42013e-12
1.46565e-12
5.55485e-13
1.27289e-12
2.77011e-12
3.57457e-12
1.4684e-12
1.21339e-12
1.0645e-12
1.00363e-12
1.13155e-12
1.51337e-12
3.17548e-12
3.71408e-12
2.69046e-12
3.471e-12
1.46534e-12
1.24658e-12
1.11702e-12
1.03596e-12
1.07286e-12
1.29172e-12
2.7181e-12
3.26275e-12
2.60876e-12
3.35864e-12
1.44129e-12
1.25587e-12
1.14819e-12
1.06544e-12
1.0483e-12
1.13594e-12
2.23659e-12
2.7829e-12
2.5333e-12
3.25101e-12
1.40941e-12
1.25282e-12
1.16601e-12
1.09185e-12
1.04839e-12
1.04353e-12
1.82294e-12
2.37004e-12
2.46378e-12
3.14927e-12
1.3744e-12
1.24232e-12
1.17412e-12
1.11146e-12
1.0584e-12
9.99464e-13
1.46722e-12
2.01368e-12
2.39903e-12
3.05166e-12
1.3363e-12
1.22533e-12
1.17403e-12
1.12531e-12
1.07476e-12
9.84209e-13
1.16087e-12
1.70447e-12
2.33937e-12
2.96e-12
1.29694e-12
1.20359e-12
1.16764e-12
1.13297e-12
1.09047e-12
9.84806e-13
8.99655e-13
1.43695e-12
3.11364e-12
2.88065e-12
1.25743e-12
1.17948e-12
1.15558e-12
1.1338e-12
1.10238e-12
9.94927e-13
6.76608e-13
1.20739e-12
2.83106e-09
1.67291e-10
2.65806e-12
1.15558e-12
1.14008e-12
1.12958e-12
1.1085e-12
1.00704e-12
4.86232e-13
1.01011e-12
1.79826e-07
9.59644e-08
2.36388e-09
2.86381e-11
1.09309e-12
1.11649e-12
1.10963e-12
1.01617e-12
3.18627e-13
8.44071e-13
3.66895e-12
4.22958e-12
1.15913e-12
7.62848e-13
4.95573e-13
3.50813e-13
4.83929e-13
7.90041e-13
1.93558e-12
1.97411e-12
3.59751e-12
4.16563e-12
1.20193e-12
8.44047e-13
6.00069e-13
4.21347e-13
4.27727e-13
6.34605e-13
1.77257e-12
1.84989e-12
3.52528e-12
4.09482e-12
1.22263e-12
9.01179e-13
6.83699e-13
5.00098e-13
4.23672e-13
5.13453e-13
1.53913e-12
1.65528e-12
3.45674e-12
4.0223e-12
1.2324e-12
9.43957e-13
7.49959e-13
5.74332e-13
4.56031e-13
4.35616e-13
1.3315e-12
1.48032e-12
3.39188e-12
3.95063e-12
1.23323e-12
9.74063e-13
8.02936e-13
6.39904e-13
5.04845e-13
4.05395e-13
1.14555e-12
1.32267e-12
3.33149e-12
3.88019e-12
1.22763e-12
9.95534e-13
8.45919e-13
6.97789e-13
5.59411e-13
4.14157e-13
9.81279e-13
1.18169e-12
3.27403e-12
3.81113e-12
1.21733e-12
1.0094e-12
8.78827e-13
7.46484e-13
6.13129e-13
4.47388e-13
8.38347e-13
1.05716e-12
4.00598e-12
3.75362e-12
1.20358e-12
1.01697e-12
9.03667e-13
7.87105e-13
6.63061e-13
4.92613e-13
7.16283e-13
9.4755e-13
3.12692e-09
1.66588e-10
3.30866e-12
1.02542e-12
9.23651e-13
8.20695e-13
7.06486e-13
5.41151e-13
6.1481e-13
8.53183e-13
5.15377e-07
6.21952e-08
2.02622e-09
3.51351e-11
1.04026e-12
8.45994e-13
7.43924e-13
5.8574e-13
5.34415e-13
7.75254e-13
4.53104e-12
4.73758e-12
7.40575e-13
4.95901e-13
2.72345e-13
1.50165e-13
2.65317e-13
4.85301e-13
1.40066e-12
1.23652e-12
4.47071e-12
4.71702e-12
7.87953e-13
5.34676e-13
3.11601e-13
1.24605e-13
1.62528e-13
3.82372e-13
1.38847e-12
1.24601e-12
4.41202e-12
4.69199e-12
8.22905e-13
5.71848e-13
3.61042e-13
1.63309e-13
7.56501e-14
2.82241e-13
1.28592e-12
1.17218e-12
4.35471e-12
4.66207e-12
8.50691e-13
6.04823e-13
4.1051e-13
2.21582e-13
4.63744e-14
1.88945e-13
1.19325e-12
1.10427e-12
4.30021e-12
4.62893e-12
8.71197e-13
6.3503e-13
4.57173e-13
2.81575e-13
1.09221e-13
1.04276e-13
1.10814e-12
1.04169e-12
4.24738e-12
4.59305e-12
8.86829e-13
6.60953e-13
4.99592e-13
3.3771e-13
1.76696e-13
3.56793e-14
1.03058e-12
9.84715e-13
4.19725e-12
4.55682e-12
8.97974e-13
6.83363e-13
5.37525e-13
3.89435e-13
2.38858e-13
5.86916e-14
9.61998e-13
9.33472e-13
4.8869e-12
4.52982e-12
9.04706e-13
7.01329e-13
5.70816e-13
4.35708e-13
2.95417e-13
1.21587e-13
9.0125e-13
8.87743e-13
3.33268e-09
1.517e-10
3.43239e-12
7.2232e-13
5.99512e-13
4.76252e-13
3.46869e-13
1.81948e-13
8.48298e-13
8.4653e-13
8.18907e-07
2.29786e-08
1.11684e-09
2.48737e-11
7.57072e-13
5.1336e-13
3.93532e-13
2.38756e-13
8.02617e-13
8.21176e-13
5.0817e-12
4.99604e-12
3.81499e-13
5.87113e-13
5.09135e-13
4.39422e-13
4.0154e-13
4.43798e-13
1.17894e-12
9.27667e-13
5.02844e-12
5.00279e-12
3.52469e-13
5.2777e-13
4.55782e-13
3.91852e-13
3.55878e-13
4.0788e-13
1.2388e-12
9.96273e-13
4.97936e-12
5.00988e-12
3.38931e-13
4.76261e-13
4.08821e-13
3.46437e-13
3.13029e-13
3.66223e-13
1.19782e-12
9.74587e-13
4.9311e-12
5.01048e-12
3.3823e-13
4.32088e-13
3.68236e-13
3.08602e-13
2.74327e-13
3.27489e-13
1.15893e-12
9.5304e-13
4.88383e-12
5.00589e-12
3.48097e-13
3.97283e-13
3.36967e-13
2.78258e-13
2.41599e-13
2.918e-13
1.12163e-12
9.32905e-13
4.83904e-12
4.99839e-12
3.63308e-13
3.70201e-13
3.11579e-13
2.53619e-13
2.14248e-13
2.60385e-13
1.08683e-12
9.13949e-13
4.79552e-12
4.98814e-12
3.80955e-13
3.49962e-13
2.93994e-13
2.36552e-13
1.94158e-13
2.31977e-13
1.05332e-12
8.96493e-13
5.46004e-12
4.98683e-12
3.99532e-13
3.34825e-13
2.8182e-13
2.25421e-13
1.7883e-13
2.08662e-13
1.02254e-12
8.78902e-13
3.43275e-09
1.37846e-10
3.17701e-12
3.25217e-13
2.7378e-13
2.19824e-13
1.71978e-13
1.90111e-13
9.91691e-13
8.62265e-13
1.00557e-06
3.41645e-08
9.92812e-10
1.97286e-11
3.37228e-13
2.20444e-13
1.74869e-13
1.82212e-13
9.63182e-13
9.02225e-13
5.0848e-12
4.96711e-12
3.46715e-13
6.10817e-13
5.38752e-13
4.65464e-13
4.13359e-13
4.35343e-13
1.11481e-12
8.86187e-13
5.03145e-12
4.9761e-12
2.88764e-13
5.42735e-13
4.81605e-13
4.17096e-13
3.73146e-13
4.07851e-13
1.18363e-12
9.58283e-13
4.98273e-12
4.98614e-12
2.50999e-13
4.80618e-13
4.28372e-13
3.71442e-13
3.33086e-13
3.71105e-13
1.15026e-12
9.39805e-13
4.93482e-12
4.98914e-12
2.33984e-13
4.25664e-13
3.80234e-13
3.29935e-13
2.96321e-13
3.37537e-13
1.11832e-12
9.21392e-13
4.8889e-12
4.98795e-12
2.36395e-13
3.79686e-13
3.39527e-13
2.93918e-13
2.63285e-13
3.05574e-13
1.08764e-12
9.04522e-13
4.84444e-12
4.9827e-12
2.51469e-13
3.41412e-13
3.05538e-13
2.62835e-13
2.33437e-13
2.76136e-13
1.05871e-12
8.88459e-13
4.80153e-12
4.97454e-12
2.73128e-13
3.09561e-13
2.77178e-13
2.37389e-13
2.08594e-13
2.49283e-13
1.03082e-12
8.73854e-13
5.46572e-12
4.97532e-12
2.97721e-13
2.8456e-13
2.54878e-13
2.16961e-13
1.87043e-13
2.25242e-13
1.00423e-12
8.59018e-13
3.43275e-09
1.37846e-10
3.15996e-12
2.65004e-13
2.36035e-13
2.00911e-13
1.7154e-13
2.04779e-13
9.78334e-13
8.4499e-13
1.00557e-06
3.41645e-08
9.92794e-10
1.97066e-11
2.78275e-13
1.91815e-13
1.65883e-13
1.92798e-13
9.52953e-13
9.00681e-13
4.53321e-12
4.65741e-12
6.41553e-13
5.0798e-13
3.3329e-13
2.26243e-13
2.61363e-13
4.24259e-13
1.179e-12
1.09879e-12
4.47454e-12
4.64513e-12
6.75858e-13
5.16771e-13
3.36048e-13
1.93842e-13
1.82327e-13
3.43936e-13
1.19792e-12
1.1193e-12
4.41831e-12
4.62929e-12
7.0626e-13
5.32926e-13
3.56688e-13
1.97574e-13
1.18937e-13
2.60037e-13
1.12253e-12
1.05705e-12
4.36357e-12
4.60817e-12
7.31924e-13
5.51476e-13
3.85051e-13
2.25486e-13
9.11135e-14
1.82439e-13
1.0542e-12
9.99937e-13
4.31091e-12
4.58296e-12
7.54866e-13
5.71331e-13
4.16853e-13
2.64212e-13
1.1576e-13
1.16218e-13
9.91692e-13
9.47729e-13
4.26046e-12
4.55493e-12
7.73259e-13
5.91084e-13
4.49277e-13
3.0637e-13
1.62465e-13
7.04505e-14
9.35591e-13
9.01684e-13
4.21182e-12
4.52521e-12
7.88181e-13
6.09434e-13
4.80265e-13
3.48207e-13
2.12799e-13
7.58023e-14
8.85346e-13
8.60193e-13
4.90199e-12
4.50464e-12
7.99699e-13
6.2602e-13
5.09066e-13
3.87207e-13
2.61224e-13
1.17159e-13
8.41688e-13
8.23545e-13
3.33268e-09
1.51701e-10
3.39473e-12
6.44733e-13
5.3482e-13
4.23976e-13
3.07127e-13
1.66318e-13
8.03955e-13
7.91989e-13
8.18907e-07
2.29786e-08
1.1168e-09
2.4827e-11
6.81814e-13
4.57455e-13
3.49771e-13
2.15852e-13
7.71689e-13
7.86156e-13
3.66717e-12
4.12908e-12
1.01119e-12
6.56943e-13
3.96043e-13
2.19365e-13
3.31559e-13
6.06818e-13
1.44993e-12
1.66749e-12
3.6017e-12
4.08109e-12
1.06129e-12
7.34607e-13
4.98967e-13
3.08672e-13
2.90302e-13
4.8222e-13
1.35786e-12
1.57552e-12
3.5353e-12
4.0244e-12
1.09208e-12
7.94453e-13
5.83627e-13
3.9785e-13
3.02883e-13
3.8143e-13
1.18731e-12
1.41212e-12
3.47129e-12
3.96547e-12
1.11115e-12
8.39929e-13
6.52288e-13
4.77749e-13
3.49317e-13
3.19436e-13
1.03336e-12
1.2645e-12
3.41053e-12
3.90501e-12
1.12236e-12
8.76363e-13
7.08934e-13
5.47647e-13
4.08051e-13
3.03863e-13
8.95923e-13
1.13201e-12
3.35329e-12
3.84503e-12
1.1259e-12
9.02703e-13
7.55142e-13
6.0916e-13
4.69744e-13
3.24502e-13
7.75508e-13
1.0139e-12
3.29851e-12
3.78534e-12
1.12483e-12
9.22614e-13
7.92209e-13
6.61241e-13
5.27779e-13
3.67334e-13
6.72215e-13
9.11324e-13
4.02938e-12
3.7361e-12
1.11882e-12
9.36169e-13
8.22847e-13
7.05367e-13
5.81384e-13
4.18257e-13
5.86963e-13
8.2111e-13
3.12693e-09
1.66591e-10
3.26877e-12
9.50248e-13
8.46808e-13
7.42399e-13
6.28582e-13
4.70513e-13
5.18665e-13
7.4547e-13
5.15377e-07
6.21952e-08
2.02619e-09
3.50983e-11
9.6693e-13
7.71568e-13
6.69e-13
5.18474e-13
4.6903e-13
6.88425e-13
2.77204e-12
3.48347e-12
1.30581e-12
1.03644e-12
8.74775e-13
7.89662e-13
8.60422e-13
1.13506e-12
2.128e-12
2.9711e-12
2.70181e-12
3.40125e-12
1.32495e-12
1.08898e-12
9.44346e-13
8.45139e-13
8.44881e-13
9.92395e-13
1.85094e-12
2.63372e-12
2.62783e-12
3.30749e-12
1.32047e-12
1.11723e-12
9.93114e-13
8.94779e-13
8.51792e-13
8.95355e-13
1.52439e-12
2.25113e-12
2.55776e-12
3.21563e-12
1.30706e-12
1.13087e-12
1.02678e-12
9.37328e-13
8.73666e-13
8.46064e-13
1.23503e-12
1.91782e-12
2.49274e-12
3.12648e-12
1.28679e-12
1.13596e-12
1.04954e-12
9.71961e-13
9.03623e-13
8.29883e-13
9.85804e-13
1.62737e-12
2.43139e-12
3.04061e-12
1.2624e-12
1.1326e-12
1.0632e-12
9.99149e-13
9.35067e-13
8.35329e-13
7.70126e-13
1.37517e-12
2.37439e-12
2.95764e-12
1.23526e-12
1.12425e-12
1.06926e-12
1.0178e-12
9.62707e-13
8.52285e-13
5.83009e-13
1.1575e-12
3.14293e-12
2.88671e-12
1.20575e-12
1.11059e-12
1.06975e-12
1.03089e-12
9.84207e-13
8.7459e-13
4.20714e-13
9.70444e-13
2.83106e-09
1.67295e-10
2.62822e-12
1.0972e-12
1.06456e-12
1.03664e-12
1.00096e-12
8.97339e-13
2.83134e-13
8.11303e-13
1.79826e-07
9.59644e-08
2.36386e-09
2.86087e-11
1.02877e-12
1.03416e-12
1.01156e-12
9.15388e-13
1.57917e-13
6.78675e-13
2.02541e-12
2.84041e-12
1.46247e-12
1.38101e-12
1.38128e-12
1.44533e-12
1.63952e-12
2.08978e-12
3.6589e-12
6.28199e-12
1.95277e-12
2.73181e-12
1.43496e-12
1.37669e-12
1.38864e-12
1.444e-12
1.57655e-12
1.85409e-12
3.03432e-12
5.26641e-12
1.87589e-12
2.6129e-12
1.38497e-12
1.34688e-12
1.37175e-12
1.4264e-12
1.52556e-12
1.68557e-12
2.42763e-12
4.30381e-12
1.80532e-12
2.50038e-12
1.33191e-12
1.3101e-12
1.34514e-12
1.40493e-12
1.49114e-12
1.57331e-12
1.92434e-12
3.50717e-12
1.74027e-12
2.39475e-12
1.27763e-12
1.26943e-12
1.31383e-12
1.37911e-12
1.46297e-12
1.50064e-12
1.51326e-12