/*--------------------------------*- C++ -*----------------------------------*\
| =========                 |                                                 |
| \\      /  F ield         | OpenFOAM: The Open Source CFD Toolbox           |
|  \\    /   O peration     | Version:  4.1                                   |
|   \\  /    A nd           | Web:      www.OpenFOAM.org                      |
|    \\/     M anipulation  |                                                 |
\*---------------------------------------------------------------------------*/
FoamFile
{
    version     2.0;
    format      ascii;
    class       surfaceScalarField;
    location    "0.96";
    object      phi;
}
// * * * * * * * * * * * * * * * * * * * * * * * * * * * * * * * * * * * * * //

dimensions      [1 0 -1 0 0 0 0];

internalField   nonuniform List<scalar> 
51500
(
3.6108e-13
1.94048e-14
1.36968e-11
-6.80778e-16
2.32161e-14
1.35466e-11
-3.72577e-15
2.15547e-14
1.33963e-11
-3.19676e-15
1.9839e-14
1.3249e-11
-3.07098e-15
1.80973e-14
1.31025e-11
-2.99045e-15
1.63494e-14
1.2958e-11
-3.12634e-15
1.46316e-14
1.28145e-11
-3.03803e-15
1.29704e-14
1.26743e-11
-3.22693e-15
1.13048e-14
1.2536e-11
9.68452e-15
1.24029e-11
-7.32921e-17
3.6115e-13
1.07038e-14
1.70339e-11
-1.18062e-14
1.20496e-14
1.64546e-11
-1.1818e-14
1.02355e-14
1.58907e-11
-1.15138e-14
8.50641e-15
1.53504e-11
-1.1139e-14
6.93843e-15
1.48332e-11
-1.07202e-14
5.50871e-15
1.43363e-11
-1.03939e-14
4.16974e-15
1.3859e-11
-1.01087e-14
3.46748e-15
1.34015e-11
-1.0026e-14
2.24995e-15
1.29602e-11
9.09054e-16
1.25483e-11
-9.08995e-16
3.56037e-13
1.36071e-14
2.14222e-11
-2.73296e-14
1.46166e-14
2.0167e-11
-2.3553e-14
1.2044e-14
1.89827e-11
-2.21794e-14
9.74486e-15
1.78821e-11
-2.0884e-14
7.70903e-15
1.68564e-11
-1.99515e-14
5.89654e-15
1.59014e-11
-1.87759e-14
4.31897e-15
1.50134e-11
-1.79511e-14
2.90284e-15
1.41821e-11
-1.7552e-14
1.67035e-15
1.34075e-11
6.41005e-16
1.26971e-11
-1.59464e-15
3.42451e-13
1.80105e-14
2.72604e-11
-4.93065e-14
1.81542e-14
2.49428e-11
-3.90888e-14
1.45364e-14
2.28391e-11
-3.59632e-14
1.14019e-14
2.09364e-11
-3.3166e-14
8.7795e-15
1.92252e-11
-3.06657e-14
6.56423e-15
1.76813e-11
-2.84039e-14
4.69519e-15
1.62846e-11
-2.6387e-14
3.09003e-15
1.50201e-11
-2.50042e-14
1.73405e-15
1.38722e-11
6.03332e-16
1.28482e-11
-2.41669e-15
3.13884e-13
2.42997e-14
3.51384e-11
-9.01085e-14
2.29282e-14
3.11555e-11
-6.03035e-14
1.7725e-14
2.76809e-11
-5.3731e-14
1.34803e-14
2.46479e-11
-4.81956e-14
1.00754e-14
2.20114e-11
-4.33722e-14
7.33172e-15
1.97083e-11
-3.9332e-14
5.08828e-15
1.76909e-11
-3.56652e-14
3.28019e-15
1.59196e-11
-3.3053e-14
1.80932e-15
1.43578e-11
6.46012e-16
1.30028e-11
-3.21206e-15
2.59209e-13
3.35176e-14
4.59193e-11
-1.61479e-13
2.9541e-14
3.93301e-11
-8.90551e-14
2.194e-14
3.38199e-11
-7.68182e-14
1.60586e-14
2.91864e-11
-6.68273e-14
1.16283e-14
2.53014e-11
-5.86201e-14
8.19984e-15
2.20244e-11
-5.16601e-14
5.56647e-15
1.92487e-11
-4.57502e-14
3.50289e-15
1.68865e-11
-4.1383e-14
1.89958e-15
1.48643e-11
7.36242e-16
1.31598e-11
-4.11997e-15
1.64382e-13
5.89991e-14
6.08665e-11
-2.52566e-13
4.81599e-14
5.02389e-11
-1.28923e-13
3.41208e-14
4.16708e-11
-1.0689e-13
2.39382e-14
3.47746e-11
-9.01242e-14
1.66226e-14
2.92074e-11
-7.65724e-14
1.12997e-14
2.46812e-11
-6.57683e-14
7.3424e-15
2.09765e-11
-5.6831e-14
4.41798e-15
1.79248e-11
-5.02465e-14
2.21486e-15
1.53942e-11
5.35357e-16
1.33194e-11
-4.98581e-15
6.77902e-14
-7.78021e-13
8.19832e-11
-3.69947e-13
-8.71376e-13
6.49734e-11
-1.82026e-13
-8.97782e-13
5.18333e-11
-1.44799e-13
-9.14822e-13
4.17224e-11
-1.1744e-13
-9.26463e-13
3.38879e-11
-9.66498e-14
-9.34399e-13
2.77592e-11
-8.03945e-14
-9.39778e-13
2.29204e-11
-6.76572e-14
-9.43418e-13
1.90675e-11
-5.77208e-14
-9.45951e-13
1.59698e-11
-9.67991e-13
1.3507e-11
-5.95205e-15
4.22618e-12
-1.13488e-09
2.04022e-10
3.99883e-12
-1.25952e-09
1.64937e-10
3.63603e-12
-1.27379e-09
1.3874e-10
3.30983e-12
-1.28455e-09
1.18886e-10
3.01953e-12
-1.29334e-09
1.0365e-10
2.76216e-12
-1.30062e-09
9.17969e-11
2.53396e-12
-1.30669e-09
8.24691e-11
2.33082e-12
-1.31179e-09
7.50491e-11
2.04589e-12
-1.31634e-09
6.90888e-11
-1.3601e-09
6.54125e-11
-6.95559e-15
-8.31e-10
2.00568e-07
-8.08369e-07
3.61123e-10
1.71961e-07
-9.35285e-07
4.55563e-10
1.51897e-07
-9.37742e-07
4.4711e-10
1.34979e-07
-9.39355e-07
4.36528e-10
1.20568e-07
-9.40785e-07
4.24963e-10
1.08236e-07
-9.4207e-07
4.12869e-10
9.76239e-08
-9.43237e-07
3.85656e-10
8.84433e-08
-9.44306e-07
5.57984e-11
8.04763e-08
-9.45474e-07
7.5721e-08
-8.0335e-15
-1.00312e-06
3.39762e-13
8.62443e-14
9.00245e-13
-1.65629e-14
8.15748e-14
8.85125e-13
-2.47947e-14
7.19702e-14
8.71298e-13
-2.37872e-14
6.26321e-14
8.55454e-13
-2.329e-14
5.36275e-14
8.414e-13
-2.31483e-14
4.4882e-14
8.28108e-13
-2.30808e-14
3.64304e-14
8.13145e-13
-2.28481e-14
2.82797e-14
8.00387e-13
-2.46354e-14
2.03127e-14
7.87142e-13
1.28257e-14
7.7315e-13
-1.59595e-15
2.8578e-13
7.95248e-14
1.24102e-12
-6.65761e-14
7.25916e-14
1.17995e-12
-8.24064e-14
6.14502e-14
1.1212e-12
-7.88441e-14
5.07652e-14
1.06474e-12
-7.68272e-14
4.0095e-14
1.01174e-12
-7.47316e-14
2.79952e-14
9.60721e-13
-7.24795e-14
1.99793e-14
9.14746e-13
-7.18139e-14
1.31484e-14
8.69611e-13
-7.49405e-14
7.35551e-15
8.28746e-13
2.49093e-15
7.87302e-13
-4.23316e-15
2.05919e-13
1.00449e-13
1.74054e-12
-1.6852e-13
8.99613e-14
1.58972e-12
-1.55744e-13
7.54176e-14
1.45909e-12
-1.47306e-13
6.18932e-14
1.33325e-12
-1.40213e-13
4.97114e-14
1.22219e-12
-1.3387e-13
3.86334e-14
1.12104e-12
-1.28203e-13
2.85583e-14
1.03006e-12
-1.23218e-13
1.95257e-14
9.47429e-13
-1.28294e-13
1.13142e-14
8.70998e-13
4.10436e-15
8.03784e-13
-6.6338e-15
8.78029e-14
1.22655e-13
2.48282e-12
-2.92961e-13
1.06835e-13
2.17728e-12
-2.50106e-13
8.75213e-14
1.91829e-12
-2.3097e-13
7.03241e-14
1.68598e-12
-2.15849e-13
5.52914e-14
1.48621e-12
-2.02276e-13
4.20879e-14
1.31338e-12
-1.89357e-13
3.05906e-14
1.16466e-12
-1.79016e-13
2.04938e-14
1.03482e-12
-1.82721e-13
1.1682e-14
9.18752e-13
4.07424e-15
8.18182e-13
-9.64658e-15
-2.63609e-14
1.51301e-13
3.61291e-12
-4.49486e-13
1.27808e-13
3.02963e-12
-3.70021e-13
1.02368e-13
2.55433e-12
-3.33988e-13
8.03436e-14
2.15168e-12
-3.05838e-13
6.16916e-14
1.82017e-12
-2.80182e-13
4.59736e-14
1.54756e-12
-2.5743e-13
3.26782e-14
1.32059e-12
-2.38672e-13
2.14992e-14
1.13033e-12
-2.39436e-13
1.20093e-14
9.70071e-13
4.18701e-15
8.35431e-13
-1.26938e-14
-1.52514e-13
1.8784e-13
5.37706e-12
-6.51943e-13
1.55255e-13
4.28441e-12
-5.22996e-13
1.20619e-13
3.44395e-12
-4.61191e-13
9.22594e-14
2.76865e-12
-4.12348e-13
6.9192e-14
2.24321e-12
-3.69768e-13
5.03529e-14
1.82995e-12
-3.32514e-13
3.50531e-14
1.50285e-12
-3.02639e-13
2.25219e-14
1.23962e-12
-2.98079e-13
1.2402e-14
1.02796e-12
4.14896e-15
8.54645e-13
-1.56218e-14
-5.21477e-13
2.54291e-13
7.6878e-12
-9.21239e-13
2.14607e-13
6.17411e-12
-7.1789e-13
1.62092e-13
4.7073e-12
-6.17342e-13
1.20813e-13
3.59596e-12
-5.38971e-13
8.8454e-14
2.78278e-12
-4.72084e-13
6.28068e-14
2.17395e-12
-4.16035e-13
4.20679e-14
1.71341e-12
-3.70355e-13
2.48183e-14
1.36275e-12
-3.59279e-13
1.0635e-14
1.08859e-12
3.51981e-15
8.75098e-13
-1.86062e-14
-9.87889e-13
2.74927e-13
1.03612e-11
-1.27894e-12
1.54434e-13
8.16304e-12
-9.66652e-13
9.75731e-14
6.52838e-12
-8.09108e-13
5.65636e-14
4.72545e-12
-6.88049e-13
2.61326e-14
3.48024e-12
-5.89309e-13
3.20083e-15
2.59786e-12
-5.07168e-13
-1.42562e-14
1.96533e-12
-4.43242e-13
-2.77234e-14
1.50154e-12
-4.22141e-13
-3.82542e-14
1.15649e-12
-4.69748e-14
8.97435e-13
-2.16168e-14
-1.94231e-12
-8.77267e-12
3.1372e-11
-9.73552e-13
-9.76596e-11
1.68305e-11
-8.23503e-13
-8.87359e-11
1.20805e-11
-7.06339e-13
-8.04891e-11
8.99085e-12
-6.16485e-13
-7.38029e-11
6.96262e-12
-5.46229e-13
-6.83121e-11
5.58398e-12
-4.91229e-13
-6.37817e-11
4.62204e-12
-4.50614e-13
-6.00275e-11
3.93335e-12
-5.94459e-13
-5.69226e-11
3.42444e-12
-5.55057e-11
3.06137e-12
-2.47131e-14
-1.55437e-09
2.46151e-08
1.22207e-07
-2.55625e-10
1.44025e-08
-1.99876e-09
-4.12311e-10
1.09667e-08
-2.61651e-09
-4.09045e-10
8.50529e-09
-2.63295e-09
-4.02968e-10
6.69236e-09
-2.62712e-09
-3.95258e-10
5.3334e-09
-2.60948e-09
-3.86521e-10
4.30053e-09
-2.58514e-09
-3.77456e-10
3.50542e-09
-2.55799e-09
-3.83528e-10
2.88711e-09
-2.54739e-09
2.45292e-09
-2.80748e-14
-3.67714e-09
3.40984e-13
8.24584e-14
3.79816e-14
-1.55852e-14
7.82661e-14
3.58416e-14
-2.31035e-14
6.90245e-14
3.41412e-14
-2.05521e-14
6.01307e-14
3.27914e-14
-1.86604e-14
5.15203e-14
3.03615e-14
-2.07592e-14
4.31171e-14
2.77715e-14
-1.90798e-14
3.51329e-14
2.68953e-14
-1.9783e-14
2.73291e-14
2.53973e-14
-2.35989e-14
1.97868e-14
2.42985e-14
1.26725e-14
2.41403e-14
-1.26158e-15
2.89583e-13
5.99671e-14
6.01014e-14
-6.41069e-14
5.49929e-14
5.48723e-14
-7.38341e-14
4.66757e-14
5.21031e-14
-6.79164e-14
3.86253e-14
4.61808e-14
-6.71866e-14
3.11667e-14
4.15499e-14
-6.30041e-14
2.43173e-14
3.9317e-14
-6.26076e-14
1.79368e-14
3.35103e-14
-6.21137e-14
1.21347e-14
3.02466e-14
-7.13069e-14
6.8967e-15
2.88734e-14
2.45041e-15
2.56608e-14
-4.49358e-15
2.10527e-13
7.6782e-14
9.15206e-14
-1.64789e-13
6.94927e-14
8.2428e-14
-1.40423e-13
5.85932e-14
7.63543e-14
-1.27327e-13
4.85974e-14
6.76738e-14
-1.21261e-13
3.96379e-14
5.86013e-14
-1.14525e-13
3.19975e-14
5.04428e-14
-1.09468e-13
2.42243e-14
4.38651e-14
-1.07927e-13
1.67806e-14
3.88443e-14
-1.21135e-13
9.70806e-15
3.42739e-14
3.33834e-15
2.90214e-14
-7.23185e-15
9.0228e-14
9.55151e-14
1.46096e-13
-2.88801e-13
8.36976e-14
1.2962e-13
-2.25535e-13
6.88645e-14
1.16053e-13
-2.00355e-13
5.5851e-14
9.69877e-14
-1.86563e-13
4.46829e-14
8.11983e-14
-1.73137e-13
3.59888e-14
6.87192e-14
-1.60106e-13
2.62804e-14
5.81855e-14
-1.5676e-13
1.74197e-14
4.91827e-14
-1.73106e-13
9.95765e-15
4.37394e-14
3.5411e-15
3.47107e-14
-1.04871e-14
-2.81823e-14
1.20556e-13
2.43967e-13
-4.46341e-13
1.0155e-13
2.06809e-13
-3.34609e-13
8.15716e-14
1.78166e-13
-2.88192e-13
6.43979e-14
1.44032e-13
-2.61918e-13
5.01342e-14
1.15894e-13
-2.38066e-13
3.93401e-14
9.42231e-14
-2.1727e-13
2.83639e-14
7.76553e-14
-2.07414e-13
1.87248e-14
6.54529e-14
-2.26926e-13
1.05673e-14
5.56495e-14
3.76617e-15
4.23851e-14
-1.30397e-14
-1.6513e-13
1.53386e-13
4.16903e-13
-6.52492e-13
1.25912e-13
3.41636e-13
-4.74382e-13
9.76132e-14
2.78063e-13
-3.76795e-13
7.46982e-14
2.1268e-13
-3.36098e-13
5.68887e-14
1.6653e-13
-2.97292e-13
4.35571e-14
1.31446e-13
-2.66598e-13
3.03289e-14
1.05388e-13
-2.60885e-13
1.96301e-14
8.68967e-14
-2.82889e-13
1.0694e-14
6.82088e-14
3.57631e-15
4.98697e-14
-1.65172e-14
-5.7962e-13
1.87169e-13
7.25654e-13
-9.31223e-13
1.56574e-13
5.6635e-13
-6.25292e-13
1.18098e-13
4.32187e-13
-4.97767e-13
8.85703e-14
3.18755e-13
-4.32659e-13
6.84312e-14
2.38609e-13
-3.74808e-13
5.02258e-14
1.81596e-13
-3.26039e-13
3.45545e-14
1.42006e-13
-3.16621e-13
2.19704e-14
1.1168e-13
-3.40964e-13
1.21005e-14
8.78471e-14
4.49172e-15
6.08998e-14
-1.95419e-14
-1.10713e-12
3.61308e-13
1.29367e-12
-1.30853e-12
2.27146e-13
9.46517e-13
-8.08412e-13
1.59174e-13
6.81504e-13
-6.52491e-13
1.11186e-13
4.76288e-13
-5.49032e-13
7.6819e-14
3.42454e-13
-4.63636e-13
5.1826e-14
2.51166e-13
-3.95127e-13
3.34797e-14
1.87197e-13
-3.56479e-13
1.99632e-14
1.42539e-13
-4.01025e-13
9.8851e-15
1.11916e-13
2.50064e-15
7.25853e-14
-2.28858e-14
-2.62912e-12
9.05886e-11
1.0181e-11
-1.61813e-12
-2.33188e-13
1.40978e-12
-1.06997e-12
-1.12756e-12
8.83448e-13
-8.55842e-13
-1.12753e-12
6.17826e-13
-7.04076e-13
-1.13332e-12
4.51894e-13
-5.85032e-13
-1.135e-12
3.44454e-13
-4.90884e-13
-1.13071e-12
2.71539e-13
-4.35726e-13
-1.12081e-12
2.19517e-13
-4.85397e-13
-1.10676e-12
1.81334e-13
-1.09068e-12
1.35841e-13
-2.62477e-14
-1.10901e-09
9.06273e-09
1.08129e-07
-7.25024e-11
9.18479e-10
3.22745e-10
-7.24022e-11
5.28577e-10
-1.39077e-10
-6.19829e-11
3.54848e-10
-1.1796e-10
-5.2948e-11
2.44789e-10
-9.73869e-11
-4.55133e-11
1.72419e-10
-8.00711e-11
-3.93621e-11
1.23807e-10
-6.50207e-11
-3.42528e-11
9.05052e-11
-5.16692e-11
-3.01631e-11
6.73087e-11
-4.14074e-11
5.10157e-11
-2.97336e-14
-4.46453e-11
3.41265e-13
8.10946e-14
1.1816e-14
-1.54531e-14
7.70778e-14
1.06987e-14
-2.24667e-14
6.8011e-14
1.07507e-14
-2.02029e-14
5.92334e-14
6.30442e-15
-1.84342e-14
5.07946e-14
6.36561e-15
-1.96115e-14
4.26265e-14
4.52695e-15
-1.84044e-14
3.4694e-14
3.25642e-15
-1.92572e-14
2.70256e-14
1.15769e-15
-2.30574e-14
1.96528e-14
8.79691e-16
1.2625e-14
8.75433e-16
-1.54802e-15
2.91145e-13
5.82592e-14
1.92964e-14
-6.30959e-14
5.35471e-14
1.68579e-14
-7.20368e-14
4.54617e-14
1.7536e-14
-6.48549e-14
3.77434e-14
1.41574e-14
-6.1525e-14
3.04875e-14
1.10518e-14
-6.21874e-14
2.37365e-14
7.36492e-15
-5.94202e-14
1.7598e-14
8.10445e-15
-5.89421e-14
1.19515e-14
5.25292e-15
-7.025e-14
6.79621e-15
3.86105e-15
2.44781e-15
3.37046e-15
-4.20692e-15
2.14286e-13
7.3987e-14
2.8695e-14
-1.61708e-13
6.69926e-14
2.65247e-14
-1.34985e-13
5.62955e-14
2.73425e-14
-1.18034e-13
4.63016e-14
2.15846e-14
-1.13945e-13
3.7358e-14
1.7667e-14
-1.03704e-13
2.93088e-14
1.46638e-14
-9.87881e-14
2.17976e-14
1.08263e-14
-1.04201e-13
1.49898e-14
8.62874e-15
-1.19112e-13
9.40378e-15
1.04353e-14
3.11303e-15
7.99292e-15
-7.0072e-15
9.48661e-14
9.20508e-14
4.68612e-14
-2.83606e-13
8.05293e-14
4.52545e-14
-2.16596e-13
6.60836e-14
4.60635e-14
-1.7962e-13
5.33888e-14
3.80544e-14
-1.6717e-13
4.213e-14
3.11775e-14
-1.55557e-13
3.22688e-14
2.61544e-14
-1.44834e-13
2.35805e-14
2.15231e-14
-1.49468e-13
1.58704e-14
1.82446e-14
-1.70279e-13
9.58098e-15
1.5572e-14
3.62241e-15
1.08119e-14
-1.06421e-14
-2.09607e-14
1.1611e-13
8.14596e-14
-4.37791e-13
9.7922e-14
8.16632e-14
-3.17368e-13
7.83827e-14
7.82298e-14
-2.5889e-13
6.13942e-14
6.2895e-14
-2.3506e-13
4.73741e-14
5.22043e-14
-2.14098e-13
3.55365e-14
4.23859e-14
-1.95373e-13
2.56637e-14
3.49817e-14
-1.97644e-13
1.80126e-14
3.07532e-14
-2.23135e-13
9.48966e-15
2.75832e-14
3.52106e-15
1.78344e-14
-1.33153e-14
-1.5516e-13
1.47828e-13
1.45319e-13
-6.3937e-13
1.21217e-13
1.42747e-13
-4.26609e-13
9.35956e-14
1.31397e-13
-3.5498e-13
7.14183e-14
1.0532e-13
-3.16129e-13
5.36172e-14
8.4627e-14
-2.80711e-13
3.91239e-14
6.97357e-14
-2.50142e-13
2.74463e-14
5.72283e-14
-2.49547e-13
1.78057e-14
4.76173e-14
-2.7799e-13
1.04998e-14
4.1474e-14
3.73364e-15
2.71242e-14
-1.67193e-14
-5.58362e-13
1.82105e-13
2.59898e-13
-9.11461e-13
1.50545e-13
2.53369e-13
-5.72261e-13
1.13002e-13
2.16575e-13
-4.75422e-13
8.35293e-14
1.69383e-13
-4.12494e-13
6.0996e-14
1.3334e-13
-3.57137e-13
4.3627e-14
1.06926e-13
-3.12046e-13
2.98929e-14
8.62883e-14
-2.85447e-13
1.90771e-14
7.22021e-14
-3.3546e-13
1.09873e-14
6.09155e-14
3.46492e-15
3.85179e-14
-1.99385e-14
-1.0753e-12
3.55432e-13
4.75779e-13
-1.27721e-12
2.20706e-13
4.42715e-13
-7.70278e-13
2.06565e-13
3.53321e-13
-6.25956e-13
1.44842e-13
2.66161e-13
-5.2685e-13
1.00616e-13
2.03771e-13
-4.45689e-13
6.85501e-14
1.58518e-13
-3.80275e-13
4.50326e-14
1.26094e-13
-3.34685e-13
2.75966e-14
1.02756e-13
-3.95404e-13
1.42952e-14
8.39437e-14
3.8109e-15
5.42928e-14
-2.28808e-14
-2.5944e-12
9.56161e-11
1.52733e-11
-1.53745e-12
1.34937e-12
8.82159e-13
-1.02623e-12
2.83792e-13
5.61764e-13
-8.1507e-13
1.73379e-13
4.09845e-13
-6.6487e-13
1.05527e-13
3.02917e-13
-5.4756e-13
6.00676e-14
2.29629e-13
-4.55347e-13
2.98615e-14
1.76071e-13
-3.91636e-13
9.72131e-15
1.38144e-13
-4.57415e-13
-3.65916e-15
1.09119e-13
-1.2121e-14
6.78322e-14
-2.63971e-14
-1.03654e-09
1.25238e-08
1.07938e-07
-1.37414e-11
1.88786e-10
4.97662e-10
-4.17273e-12
2.0646e-11
-2.11147e-12
-4.81136e-12
1.15595e-11
-2.41663e-12
-3.66864e-12
6.99434e-12
-1.28932e-12
-2.82613e-12
4.40526e-12
-8.31813e-13
-2.20909e-12
2.85742e-12
-5.23492e-13
-1.7536e-12
1.90492e-12
-3.1448e-13
-1.44232e-12
1.2973e-12
-1.75282e-13
8.64241e-13
-3.00842e-14
4.24065e-14
3.41155e-13
8.11327e-14
1.61375e-14
-1.58309e-14
7.70864e-14
1.40093e-14
-2.2616e-14
6.80939e-14
1.19346e-14
-2.05497e-14
5.93028e-14
7.53847e-15
-1.71216e-14
5.08328e-14
6.14605e-15
-2.0235e-14
4.26122e-14
3.52285e-15
-1.93578e-14
3.4745e-14
5.80677e-15
-1.88444e-14
2.71032e-14
4.59052e-15
-2.29616e-14
1.96856e-14
6.67784e-16
1.26767e-14
9.99312e-17
-1.94354e-15
2.90884e-13
5.83273e-14
2.49227e-14
-6.30922e-14
5.36338e-14
2.42283e-14
-7.24688e-14
4.54795e-14
1.86239e-14
-6.53952e-14
3.77105e-14
1.63859e-14
-6.2858e-14
3.04987e-14
1.11604e-14
-6.04745e-14
2.37934e-14
8.53681e-15
-5.97387e-14
1.76012e-14
6.04391e-15
-5.98344e-14
1.19761e-14
6.86174e-15
-7.00262e-14
6.85784e-15
6.22936e-15
2.49845e-15
1.5337e-15
-4.39384e-15
2.14026e-13
7.40406e-14
3.73314e-14
-1.62102e-13
6.70188e-14
3.54039e-14
-1.36019e-13
5.63624e-14
3.3827e-14
-1.15241e-13
4.65166e-14
3.23067e-14
-1.10648e-13
3.74992e-14
2.26972e-14
-1.0535e-13
2.94712e-14
1.67195e-14
-9.80839e-14
2.20705e-14
1.50481e-14
-1.04167e-13
1.51015e-14
1.15815e-14
-1.18949e-13
8.81754e-15
1.09686e-14
3.02174e-15
6.11415e-15
-7.39556e-15
9.4647e-14
9.21997e-14
6.29495e-14
-2.84055e-13
8.07801e-14
6.21366e-14
-2.16766e-13
6.62333e-14
6.21635e-14
-1.8004e-13
5.33831e-14
4.93246e-14
-1.66448e-13
4.22168e-14
4.10974e-14
-1.56227e-13
3.21614e-14
3.21405e-14
-1.44496e-13
2.34346e-14
2.9877e-14
-1.49657e-13
1.60414e-14
2.51397e-14
-1.7038e-13
1.0105e-14
2.11405e-14
3.84269e-15
2.03193e-14
-1.01156e-14
-2.11416e-14
1.16409e-13
1.08711e-13
-4.38802e-13
9.81e-14
1.08267e-13
-3.18403e-13
7.86478e-14
1.07637e-13
-2.58038e-13
6.17094e-14
8.94986e-14
-2.35861e-13
4.75597e-14
7.262e-14
-2.14608e-13
3.59182e-14
6.34034e-14
-1.94695e-13
2.61625e-14
5.4492e-14
-1.96101e-13
1.77132e-14
4.24917e-14
-2.237e-13
9.32007e-15
3.42544e-14
3.70575e-15
2.38167e-14
-1.32617e-14
-1.55988e-13
1.48286e-13
1.8637e-13
-6.40558e-13
1.21735e-13
1.97532e-13
-4.2664e-13
9.39676e-14
1.78347e-13
-3.55722e-13
7.1749e-14
1.44324e-13
-3.16017e-13
5.39322e-14
1.17839e-13
-2.8139e-13
3.93269e-14
9.78178e-14
-2.50744e-13
2.75581e-14
7.78468e-14
-2.44044e-13
1.83811e-14
6.9233e-14
-2.78626e-13
1.08446e-14
5.75525e-14
3.70128e-15
3.62207e-14
-1.65946e-14
-5.60503e-13
1.82661e-13
3.33227e-13
-9.14192e-13
1.51323e-13
3.44745e-13
-5.72671e-13
1.13597e-13
3.05214e-13
-4.76582e-13
8.39592e-14
2.33943e-13
-4.13209e-13
6.13527e-14
1.92016e-13
-3.5826e-13
4.38281e-14
1.5062e-13
-3.12277e-13
3.01239e-14
1.24378e-13
-2.85357e-13
1.9067e-14
1.00942e-13
-3.36666e-13
1.11362e-14
8.21783e-14
4.14157e-15
5.48349e-14
-1.97611e-14
-1.07972e-12
3.61336e-13
6.03409e-13
-1.28202e-12
2.22127e-13
6.04488e-13
-7.71845e-13
1.40898e-13
4.9708e-13
-6.27788e-13
1.05153e-13
3.78028e-13
-5.2862e-13
7.94022e-14
2.9304e-13
-4.47061e-13
5.5982e-14
2.33635e-13
-3.81286e-13
3.74145e-14
1.8167e-13
-3.35887e-13
2.34901e-14
1.46843e-13
-3.96785e-13
1.27965e-14
1.18222e-13
4.94334e-15
7.55198e-14
-2.3095e-14
-2.65659e-12
1.01856e-10
2.40155e-11
-1.47503e-12
1.28233e-12
1.30981e-12
-1.02975e-12
2.03473e-13
8.10456e-13
-8.18913e-13
1.74607e-13
5.8535e-13
-6.67311e-13
1.16754e-13
4.37973e-13
-5.49937e-13
7.68301e-14
3.29963e-13
-4.56744e-13
4.87552e-14
2.51866e-13
-3.92801e-13
2.88181e-14
2.00507e-13
-4.59189e-13
1.45102e-14
1.576e-13
4.53302e-15
9.99193e-14
-2.64892e-14
-1.09645e-09
2.02548e-08
1.14269e-07
-9.65838e-12
2.13534e-10
5.61464e-10
-1.70073e-12
3.42051e-12
2.1557e-12
-1.16126e-12
1.23378e-12
1.0919e-13
-9.13131e-13
8.27356e-13
8.01493e-14
-7.20929e-13
5.81198e-13
6.81136e-14
-5.77908e-13
4.21677e-13
5.74393e-14
-4.81628e-13
3.13878e-13
4.82788e-14
-5.42934e-13
2.37132e-13
4.57251e-14
1.45549e-13
-3.00361e-14
3.67955e-14
3.40834e-13
8.12737e-14
2.30881e-14
-1.61519e-14
7.72307e-14
1.46528e-14
-2.32758e-14
6.81402e-14
1.88935e-14
-2.0023e-14
5.94096e-14
1.29743e-14
-1.91821e-14
5.08807e-14
7.72762e-15
-1.92496e-14
4.26683e-14
4.40695e-15
-1.93514e-14
3.47482e-14
1.92247e-15
-1.98275e-14
2.71286e-14
1.5389e-15
-2.30427e-14
1.97596e-14
1.68034e-15
1.27029e-14
3.08312e-15
-1.39472e-15
2.9055e-13
5.85184e-14
3.92581e-14
-6.38432e-14
5.37954e-14
3.49843e-14
-7.17473e-14
4.56624e-14
3.30108e-14
-6.70301e-14
3.78419e-14
2.13417e-14
-6.22085e-14
3.06228e-14
2.04924e-14
-6.13045e-14
2.38776e-14
1.24038e-14
-5.85826e-14
1.76944e-14
7.96451e-15
-5.96153e-14
1.20332e-14
5.31976e-15
-7.0455e-14
6.91613e-15
5.17924e-15
2.56494e-15
5.63389e-15
-4.43135e-15
2.13392e-13
7.43541e-14
5.2002e-14
-1.63165e-13
6.72805e-14
5.26834e-14
-1.35858e-13
5.66002e-14
5.66317e-14
-1.17077e-13
4.66356e-14
4.27031e-14
-1.14026e-13
3.76297e-14
3.25478e-14
-1.03945e-13
2.9534e-14
2.6339e-14
-9.89141e-14
2.22108e-14
1.72822e-14
-1.03751e-13
1.53812e-14
1.63135e-14
-1.19236e-13
9.08182e-15
1.17976e-14
3.33003e-15
1.12349e-14
-7.53434e-15
9.38586e-14
9.27078e-14
9.21313e-14
-2.85344e-13
8.11939e-14
9.08354e-14
-2.17939e-13
6.66052e-14
9.40085e-14
-1.80085e-13
5.37605e-14
7.6326e-14
-1.68019e-13
4.25463e-14
5.88021e-14
-1.5543e-13
3.25662e-14
4.14707e-14
-1.44981e-13
2.36797e-14
3.29435e-14
-1.50378e-13
1.61405e-14
2.98734e-14
-1.70412e-13
1.01017e-14
2.54885e-14
3.65165e-15
1.55531e-14
-1.02342e-14
-2.25914e-14
1.17145e-13
1.6124e-13
-4.40741e-13
9.87871e-14
1.64336e-13
-3.19946e-13
7.91292e-14
1.61254e-13
-2.59041e-13
6.21004e-14
1.29849e-13
-2.36339e-13
4.7842e-14
1.06696e-13
-2.1581e-13
3.61508e-14
8.58732e-14
-1.9505e-13
2.61221e-14
6.01888e-14
-1.97629e-13
1.78562e-14
5.10928e-14
-2.24065e-13
9.77173e-15
4.27177e-14
3.9567e-15
2.69669e-14
-1.33149e-14
-1.58104e-13
1.49526e-13
2.82128e-13
-6.44093e-13
1.22724e-13
2.93818e-13
-4.28279e-13
9.48547e-14
2.71003e-13
-3.57374e-13
7.24015e-14
2.12126e-13
-3.16828e-13
5.45771e-14
1.71072e-13
-2.8359e-13
3.97151e-14
1.35855e-13
-2.51123e-13
2.80776e-14
1.11507e-13
-2.43741e-13
1.8526e-14
7.98508e-14
-2.79676e-13
1.09888e-14
6.70025e-14
4.06623e-15
4.29559e-14
-1.63031e-14
-5.66607e-13
1.8435e-13
5.00389e-13
-9.1967e-13
1.52876e-13
5.13699e-13
-5.77097e-13
1.1475e-13
4.42858e-13
-4.78571e-13
8.49341e-14
3.47289e-13
-4.16027e-13
6.20433e-14
2.70288e-13
-3.59968e-13
4.45564e-14
2.15592e-13
-3.1409e-13
3.06849e-14
1.69479e-13
-2.86656e-13
1.95796e-14
1.20717e-13
-3.38049e-13
1.15553e-14
1.00228e-13
4.49514e-15
6.18505e-14
-1.97208e-14
-1.0909e-12
3.66377e-13
9.15042e-13
-1.29172e-12
2.24888e-13
8.99222e-13
-7.77535e-13
1.391e-13
7.27623e-13
-6.32249e-13
1.01896e-13
5.47757e-13
-5.32098e-13
7.30407e-14
4.17939e-13
-4.50258e-13
5.42086e-14
3.20376e-13
-3.83921e-13
3.69433e-14
2.51788e-13
-3.38152e-13
2.35359e-14
1.74424e-13
-3.9892e-13
1.29915e-14
1.37332e-13
5.19971e-15
8.60389e-14
-2.29584e-14
-2.70776e-12
1.0783e-10
3.01835e-11
-1.43266e-12
1.34267e-12
1.86414e-12
-1.03916e-12
1.99515e-13
1.18943e-12
-8.25967e-13
1.65972e-13
8.5939e-13
-6.73127e-13
1.08956e-13
6.30002e-13
-5.54807e-13
6.77367e-14
4.69474e-13
-4.60226e-13
3.19252e-14
3.47203e-13
-3.9611e-13
1.75446e-14
2.51923e-13
-4.62518e-13
9.05211e-15
1.89665e-13
3.75792e-15
1.14312e-13
-2.65059e-14
-1.16493e-09
2.64802e-08
1.23209e-07
-9.95159e-12
3.05924e-10
6.02693e-10
-1.64682e-12
3.06959e-12
2.42021e-12
-1.06217e-12
1.05083e-12
1.12938e-13
-8.45025e-13
7.57769e-13
6.602e-14
-6.75146e-13
5.57968e-13
5.04007e-14
-5.46758e-13
4.15678e-13
3.94447e-14
-4.57735e-13
3.12653e-13
3.14271e-14
-5.2898e-13
2.37257e-13
2.54315e-14
1.41383e-13
-3.02662e-14
2.09167e-14
3.40278e-13
8.14834e-14
2.9716e-14
-1.63486e-14
7.74373e-14
2.81826e-14
-2.39256e-14
6.82525e-14
2.22224e-14
-1.97067e-14
5.95136e-14
1.82157e-14
-1.965e-14
5.09914e-14
8.27552e-15
-2.01766e-14
4.27668e-14
7.98441e-15
-1.90973e-14
3.48596e-14
6.706e-15
-1.97921e-14
2.72111e-14
1.12852e-14
-2.27208e-14
1.9849e-14
3.38946e-14
1.27676e-14
9.33608e-14
-1.98843e-15
2.89979e-13
5.87041e-14
5.1841e-14
-6.44768e-14
5.39701e-14
4.43695e-14
-7.23042e-14
4.58697e-14
4.46504e-14
-6.65995e-14
3.79991e-14
3.49565e-14
-6.37212e-14
3.07254e-14
1.82485e-14
-6.12906e-14
2.39881e-14
1.36578e-14
-5.98543e-14
1.77869e-14
1.40058e-14
-5.92122e-14
1.21655e-14
1.41749e-14
-7.04388e-14
6.99843e-15
2.32541e-14
2.6299e-15
6.5471e-14
-4.65166e-15
2.1265e-13
7.47487e-14
7.47863e-14
-1.64135e-13
6.75768e-14
6.74654e-14
-1.36898e-13
5.68316e-14
6.87854e-14
-1.17997e-13
4.68584e-14
5.64376e-14
-1.11644e-13
3.78002e-14
4.40165e-14
-1.06177e-13
2.96039e-14
2.35001e-14
-9.72374e-14
2.22991e-14
1.96307e-14
-1.04914e-13
1.53177e-14
2.33982e-14
-1.19395e-13
9.76037e-15
3.02586e-14
3.26019e-15
5.15615e-14
-7.76896e-15
9.28709e-14
9.33141e-14
1.19366e-13
-2.86731e-13
8.17094e-14
1.1722e-13
-2.19083e-13
6.7044e-14
1.1916e-13
-1.81213e-13
5.41488e-14
9.76693e-14
-1.68646e-13
4.29804e-14
7.92619e-14
-1.56213e-13
3.30174e-14
4.91482e-14
-1.44781e-13
2.3992e-14
3.8747e-14
-1.49777e-13
1.6445e-14
4.21292e-14
-1.71385e-13
9.68932e-15
4.26481e-14
4.17174e-15
5.13536e-14
-9.95579e-15
-2.432e-14
1.18071e-13
2.06878e-13
-4.42971e-13
9.96032e-14
2.09252e-13
-3.22057e-13
7.97904e-14
2.02049e-13
-2.59997e-13
6.2591e-14
1.66186e-13
-2.37199e-13
4.82216e-14
1.35369e-13
-2.17363e-13
3.64683e-14
1.07743e-13
-1.95373e-13
2.64912e-14
6.64389e-14
-1.98804e-13
1.77433e-14
5.7996e-14
-2.24792e-13
1.01108e-14
6.46589e-14
4.25617e-15
5.99813e-14
-1.34454e-14
-1.60771e-13
1.50995e-13
3.67399e-13
-6.47923e-13
1.23876e-13
3.71826e-13
-4.32221e-13
9.57926e-14
3.40526e-13
-3.59183e-13
7.32559e-14
2.76561e-13
-3.18208e-13
5.52641e-14
2.22252e-13
-2.85093e-13
4.02953e-14
1.81511e-13
-2.53049e-13
2.84075e-14
1.08835e-13
-2.42355e-13
1.89088e-14
8.74435e-14
-2.80766e-13
1.14336e-14
8.6794e-14
4.07317e-15
7.53845e-14
-1.65694e-14
-5.74016e-13
1.87212e-13
6.46e-13
-9.26043e-13
1.54765e-13
6.48683e-13
-5.81056e-13
1.16151e-13
5.64305e-13
-4.82049e-13
8.60175e-14
4.43427e-13
-4.18393e-13
6.29298e-14
3.49617e-13
-3.62562e-13
4.52466e-14
2.7866e-13
-3.16621e-13
3.15672e-14
1.82297e-13
-2.87303e-13
2.00968e-14
1.30314e-13
-3.40039e-13
1.16932e-14
1.10296e-13
4.88394e-15
9.80666e-14
-1.9765e-14
-1.10427e-12
3.5893e-13
1.15363e-12
-1.30249e-12
2.27826e-13
1.1213e-12
-7.84301e-13
1.41566e-13
9.19896e-13
-6.37552e-13
1.03298e-13
6.9723e-13
-5.36499e-13
7.40358e-14
5.33188e-13
-4.53318e-13
5.46096e-14
4.15271e-13
-3.8813e-13
3.74914e-14
3.2102e-13
-3.40628e-13
2.42112e-14
1.91752e-13
-4.01707e-13
1.36264e-14
1.49858e-13
5.67313e-15
1.26135e-13
-2.30616e-14
-2.63137e-12
1.00988e-10
2.39278e-11
-1.57002e-12
1.15746e-12
2.09215e-12
-1.05112e-12
2.01441e-13
1.50276e-12
-8.34451e-13
1.687e-13
1.08549e-12
-6.80038e-13
1.10707e-13
8.04914e-13
-5.60327e-13
6.8899e-14
6.06655e-13
-4.65453e-13
3.28037e-14
4.66538e-13
-3.99647e-13
1.82115e-14
2.70302e-13
-4.66922e-13
9.52999e-15
2.01949e-13
4.22223e-15
1.33498e-13
-2.65651e-14
-1.1019e-09
2.23715e-08
1.25488e-07
-8.57934e-12
1.898e-10
5.56128e-10
-1.65091e-12
3.146e-12
1.72313e-12
-1.07502e-12
1.61967e-12
8.79988e-14
-8.54054e-13
1.17304e-12
6.42695e-14
-6.82367e-13
8.58975e-13
5.01249e-14
-5.53749e-13
6.41519e-13
3.98524e-14
-4.62493e-13
3.8663e-13
3.23175e-14
-5.34968e-13
2.68518e-13
2.64878e-14
1.63189e-13
-3.00749e-14
2.23085e-14
3.40079e-13
8.16361e-14
1.46524e-14
-1.70483e-14
7.73986e-14
-4.88883e-15
-2.37896e-14
6.8335e-14
1.44195e-15
-2.06402e-14
5.95877e-14
6.85961e-15
-2.01923e-14
5.11171e-14
2.34239e-14
-2.11494e-14
4.29612e-14
5.43367e-14
-2.06912e-14
3.51384e-14
1.101e-13
-1.90908e-14
2.76676e-14
4.0692e-13
-9.24776e-15
2.05097e-14
1.56423e-12
1.2863e-14
4.12691e-12
-1.59319e-14
2.89252e-13
5.8858e-14
2.13099e-14
-6.47379e-14
5.40172e-14
-7.36798e-15
-7.27915e-14
4.5862e-14
5.95898e-15
-6.69691e-14
3.8065e-14
1.06556e-14
-6.44504e-14
3.08414e-14
2.5602e-14
-6.15819e-14
2.41468e-14
5.37305e-14
-6.21122e-14
1.79763e-14
9.5319e-14
-6.40286e-14
1.24285e-14
2.69038e-13
-6.90019e-14
7.44824e-15
9.34106e-13
2.71129e-15
2.71449e-12
-1.53029e-14
2.11754e-13
7.49611e-14
2.78085e-14
-1.64824e-13
6.76792e-14
-9.85336e-15
-1.36744e-13
5.70186e-14
9.50103e-15
-1.18986e-13
4.70168e-14
1.63094e-14
-1.12317e-13
3.80012e-14
2.95282e-14
-1.06317e-13
2.99817e-14
5.74292e-14
-1.00957e-13
2.26784e-14
1.01151e-13
-1.07407e-13
1.55475e-14
2.03693e-13
-1.23846e-13
9.29376e-15
6.13096e-13
3.50927e-15
1.79389e-12
-1.22829e-14
9.22066e-14
9.37446e-14
4.81027e-14
-2.87254e-13
8.19134e-14
-1.84256e-15
-2.1944e-13
6.72231e-14
2.56986e-14
-1.81821e-13
5.43941e-14
3.33634e-14
-1.68199e-13
4.32294e-14
4.71808e-14
-1.56682e-13
3.31332e-14
6.93547e-14
-1.47985e-13
2.43948e-14
1.11735e-13
-1.53251e-13
1.70204e-14
1.79208e-13
-1.77372e-13
9.94305e-15
4.48856e-13
4.45289e-15
1.24164e-12
-9.16498e-15
-2.53278e-14
1.18795e-13
8.58372e-14
-4.43661e-13
9.99823e-14
2.85998e-14
-3.21792e-13
8.01763e-14
6.07449e-14
-2.6087e-13
6.30544e-14
6.69869e-14
-2.37876e-13
4.86815e-14
7.59271e-14
-2.16933e-13
3.70863e-14
1.19247e-13
-1.97456e-13
2.67634e-14
1.30163e-13
-2.03987e-13
1.79269e-14
1.82473e-13
-2.31497e-13
1.07083e-14
3.68852e-13
4.24502e-15
9.02125e-13
-1.04478e-14
-1.62657e-13
1.52033e-13
1.57998e-13
-6.48812e-13
1.24436e-13
9.41316e-14
-4.31416e-13
9.63912e-14
1.26909e-13
-3.60821e-13
7.38293e-14
1.26836e-13
-3.18225e-13
5.58416e-14
1.28582e-13
-2.87204e-13
4.07714e-14
1.6664e-13
-2.54673e-13
2.87568e-14
1.65014e-13
-2.47451e-13
1.93207e-14
2.17316e-13
-2.88235e-13
1.16369e-14
3.36719e-13
4.56343e-15
6.93558e-13
-1.25154e-14
-5.79242e-13
1.94411e-13
2.94362e-13
-9.27167e-13
1.55927e-13
2.21502e-13
-5.82401e-13
1.1695e-13
2.43996e-13
-4.83861e-13
8.6828e-14
2.23999e-13
-4.19319e-13
6.3653e-14
2.08276e-13
-3.65474e-13
4.5932e-14
2.03104e-13
-3.18195e-13
3.24838e-14
1.74973e-13
-2.91905e-13
2.09757e-14
2.54051e-13
-3.47985e-13
1.24032e-14
3.35713e-13
5.1103e-15
5.67186e-13
-1.57845e-14
-1.11164e-12
3.12943e-13
5.16615e-13
-1.30436e-12
1.85963e-13
4.58015e-13
-7.86882e-13
1.45549e-13
4.41721e-13
-6.40273e-13
1.04676e-13
3.80342e-13
-5.38744e-13
7.53567e-14
3.32303e-13
-4.5575e-13
5.59242e-14
2.98737e-13
-3.91709e-13
3.86133e-14
3.64075e-13
-3.44812e-13
2.4882e-14
3.07364e-13
-4.10746e-13
1.43523e-14
3.60392e-13
6.3392e-15
4.91775e-13
-2.15984e-14
-2.12209e-12
4.1874e-11
-5.80785e-12
-1.77094e-12
3.36274e-13
6.24634e-13
-1.05893e-12
2.43505e-13
7.60389e-13
-8.38027e-13
1.7229e-13
6.19032e-13
-6.84197e-13
1.12766e-13
5.10561e-13
-5.63119e-13
7.09305e-14
4.33736e-13
-4.72324e-13
3.40731e-14
5.08188e-13
-4.0342e-13
1.89915e-14
3.81805e-13
-4.76626e-13
1.01027e-14
4.00663e-13
4.8172e-15
4.51778e-13
-2.59202e-14
-4.72651e-10
-1.12809e-08
9.03196e-08
-2.42721e-12
-2.50089e-10
1.36953e-10
-1.32049e-12
-4.06252e-13
-7.1343e-13
-1.0903e-12
1.00737e-12
7.6924e-14