/*--------------------------------*- C++ -*----------------------------------*\
| =========                 |                                                 |
| \\      /  F ield         | OpenFOAM: The Open Source CFD Toolbox           |
|  \\    /   O peration     | Version:  4.1                                   |
|   \\  /    A nd           | Web:      www.OpenFOAM.org                      |
|    \\/     M anipulation  |                                                 |
\*---------------------------------------------------------------------------*/
FoamFile
{
    version     2.0;
    format      ascii;
    class       volVectorField;
    location    "0.96";
    object      U;
}
// * * * * * * * * * * * * * * * * * * * * * * * * * * * * * * * * * * * * * //

dimensions      [0 1 -1 0 0 0 0];

internalField   nonuniform List<vector> 
18000
(
(8.96801e-14 3.8362e-13 -5.72424e-12)
(9.42816e-14 3.83505e-13 -5.66152e-12)
(8.48768e-14 -9.65588e-15 -5.59855e-12)
(7.5707e-14 -1.45896e-14 -5.53712e-12)
(6.67885e-14 -1.42901e-14 -5.476e-12)
(5.81245e-14 -1.38828e-14 -5.41567e-12)
(4.97716e-14 -1.39153e-14 -5.35584e-12)
(4.18045e-14 -1.39454e-14 -5.29731e-12)
(3.40488e-14 -1.37042e-14 -5.23964e-12)
(2.66432e-14 -9.85239e-15 -5.18417e-12)
(1.38475e-13 3.93394e-13 -7.1159e-12)
(1.49906e-13 3.79745e-13 -6.87416e-12)
(1.30997e-13 -4.88079e-14 -6.63844e-12)
(1.1306e-13 -5.22773e-14 -6.41316e-12)
(9.64682e-14 -5.04862e-14 -6.19754e-12)
(8.10731e-14 -4.84546e-14 -5.99038e-12)
(6.66126e-14 -4.65459e-14 -5.79131e-12)
(5.33768e-14 -4.49152e-14 -5.6005e-12)
(4.09435e-14 -4.31246e-14 -5.41642e-12)
(2.94586e-14 -3.06655e-14 -5.24474e-12)
(1.55661e-13 3.94455e-13 -8.94492e-12)
(1.61943e-13 3.61394e-13 -8.42164e-12)
(1.33817e-13 -1.06047e-13 -7.92687e-12)
(1.0855e-13 -1.04718e-13 -7.46827e-12)
(8.62827e-14 -9.76217e-14 -7.04075e-12)
(6.65799e-14 -9.1531e-14 -6.64265e-12)
(4.90814e-14 -8.58558e-14 -6.27241e-12)
(3.35802e-14 -8.0547e-14 -5.92578e-12)
(1.98446e-14 -7.57173e-14 -5.60277e-12)
(7.75824e-15 -5.25029e-14 -5.3066e-12)
(2.11813e-13 3.80161e-13 -1.13762e-11)
(2.0774e-13 3.18973e-13 -1.04106e-11)
(1.65909e-13 -1.88705e-13 -9.53255e-12)
(1.30236e-13 -1.76547e-13 -8.74015e-12)
(1.00306e-13 -1.60023e-13 -8.0273e-12)
(7.503e-14 -1.45414e-13 -7.38397e-12)
(5.38533e-14 -1.32452e-13 -6.80182e-12)
(3.57866e-14 -1.20955e-13 -6.27467e-12)
(2.06159e-14 -1.10249e-13 -5.7961e-12)
(7.92328e-15 -7.48924e-14 -5.36938e-12)
(2.94774e-13 3.37928e-13 -1.46537e-11)
(2.71119e-13 2.36578e-13 -1.29953e-11)
(2.08402e-13 -3.08957e-13 -1.15468e-11)
(1.57708e-13 -2.76059e-13 -1.02845e-11)
(1.17399e-13 -2.41586e-13 -9.18686e-12)
(8.51523e-14 -2.12498e-13 -8.22762e-12)
(5.92044e-14 -1.87936e-13 -7.38711e-12)
(3.83106e-14 -1.66932e-13 -6.64896e-12)
(2.14946e-14 -1.48095e-13 -5.99792e-12)
(7.99959e-15 -9.84019e-14 -5.43344e-12)
(4.20415e-13 2.47097e-13 -1.91339e-11)
(3.61093e-13 8.70147e-14 -1.63928e-11)
(2.65543e-13 -4.85312e-13 -1.40983e-11)
(1.92869e-13 -4.13969e-13 -1.21714e-11)
(1.38377e-13 -3.49029e-13 -1.05551e-11)
(9.69138e-14 -2.96799e-13 -9.19094e-12)
(6.52696e-14 -2.54173e-13 -8.03503e-12)
(4.10248e-14 -2.18864e-13 -7.05092e-12)
(2.23908e-14 -1.88904e-13 -6.20817e-12)
(8.09505e-15 -1.22935e-13 -5.49842e-12)
(6.13889e-13 7.1551e-14 -2.53375e-11)
(4.8877e-13 -1.7614e-13 -2.09209e-11)
(3.41285e-13 -7.4837e-13 -1.73578e-11)
(2.36255e-13 -6.07377e-13 -1.44927e-11)
(1.62089e-13 -4.91206e-13 -1.21781e-11)
(1.08833e-13 -4.02424e-13 -1.02952e-11)
(7.02628e-14 -3.32981e-13 -8.75314e-12)
(4.21965e-14 -2.78116e-13 -7.48225e-12)
(2.1632e-14 -2.33439e-13 -6.42798e-12)
(6.50666e-15 -1.48518e-13 -5.56432e-12)
(-3.97239e-12 -2.56714e-13 -3.4098e-11)
(-4.3177e-12 -6.35643e-13 -2.7038e-11)
(-4.30098e-12 -1.14389e-12 -2.15801e-11)
(-4.21978e-12 -8.80281e-13 -1.73824e-11)
(-4.10675e-12 -6.80153e-13 -1.41266e-11)
(-3.97789e-12 -5.35152e-13 -1.15775e-11)
(-3.84298e-12 -4.26995e-13 -9.56348e-12)
(-3.70763e-12 -3.44924e-13 -7.9587e-12)
(-3.57568e-12 -2.81407e-13 -6.66776e-12)
(-3.52269e-12 -1.75319e-13 -5.64223e-12)
(-6.96531e-09 -1.97321e-12 -9.9522e-11)
(-7.18283e-09 -1.73641e-12 -8.30429e-11)
(-6.78861e-09 -1.11531e-12 -6.96978e-11)
(-6.4253e-09 -6.65644e-13 -5.92467e-11)
(-6.09473e-09 -3.75303e-13 -5.09531e-11)
(-5.79353e-09 -1.85578e-13 -4.42743e-11)
(-5.51846e-09 -6.03911e-14 -3.88267e-11)
(-5.26665e-09 2.11803e-14 -3.4331e-11)
(-5.0364e-09 -1.20725e-13 -3.0581e-11)
(-4.97009e-09 -3.87343e-13 -2.79238e-11)
(7.79449e-07 -2.05118e-09 -8.11701e-08)
(3.86556e-08 -6.97949e-10 -7.18063e-08)
(2.89851e-08 9.29894e-10 -6.34925e-08)
(2.38559e-08 8.66816e-10 -5.64518e-08)
(1.94724e-08 7.94735e-10 -5.04487e-08)
(1.56917e-08 7.2854e-10 -4.53071e-08)
(1.24094e-08 6.68574e-10 -4.08795e-08)
(9.53983e-09 6.1217e-10 -3.70461e-08)
(6.32364e-09 1.76117e-10 -3.37155e-08)
(-1.39796e-07 -4.09905e-10 -3.17423e-08)
(2.51364e-13 3.63785e-13 -6.21784e-12)
(2.36289e-13 3.44648e-13 -6.14699e-12)
(2.07563e-13 -4.82401e-14 -6.0763e-12)
(1.79814e-13 -5.26757e-14 -6.00639e-12)
(1.53181e-13 -5.21718e-14 -5.93775e-12)
(1.27453e-13 -5.1483e-14 -5.87028e-12)
(1.02695e-13 -5.1026e-14 -5.80236e-12)
(7.893e-14 -5.04167e-14 -5.73692e-12)
(5.58402e-14 -4.91758e-14 -5.67204e-12)
(3.42531e-14 -2.86172e-14 -5.60894e-12)
(5.00734e-13 3.19946e-13 -7.7956e-12)
(4.63384e-13 2.38325e-13 -7.52057e-12)
(3.978e-13 -1.86648e-13 -7.25195e-12)
(3.36292e-13 -1.85026e-13 -6.99619e-12)
(2.78897e-13 -1.78734e-13 -6.7519e-12)
(2.25318e-13 -1.72648e-13 -6.51708e-12)
(1.75291e-13 -1.66635e-13 -6.29305e-12)
(1.28494e-13 -1.61295e-13 -6.07766e-12)
(8.4718e-14 -1.54013e-13 -5.87128e-12)
(4.4521e-14 -8.76578e-14 -5.6771e-12)
(6.1116e-13 2.41891e-13 -9.89882e-12)
(5.45974e-13 7.31127e-14 -9.29251e-12)
(4.52852e-13 -3.80131e-13 -8.72453e-12)
(3.68763e-13 -3.62789e-13 -8.19755e-12)
(2.93783e-13 -3.41269e-13 -7.70964e-12)
(2.26809e-13 -3.21122e-13 -7.25646e-12)
(1.66849e-13 -3.02837e-13 -6.83661e-12)
(1.13206e-13 -2.85824e-13 -6.44486e-12)
(6.53236e-14 -2.67324e-13 -6.08007e-12)
(2.3071e-14 -1.50084e-13 -5.74763e-12)
(7.90243e-13 1.10201e-13 -1.27367e-11)
(6.81467e-13 -1.78993e-13 -1.16021e-11)
(5.48975e-13 -6.49651e-13 -1.05796e-11)
(4.34377e-13 -6.00013e-13 -9.66074e-12)
(3.36759e-13 -5.48677e-13 -8.83913e-12)
(2.5309e-13 -5.03159e-13 -8.10163e-12)
(1.81461e-13 -4.62219e-13 -7.43836e-12)
(1.20161e-13 -4.25305e-13 -6.84034e-12)
(6.75835e-14 -3.883e-13 -6.29838e-12)
(2.34807e-14 -2.14656e-13 -5.81772e-12)
(1.03734e-12 -1.06159e-13 -1.66325e-11)
(8.60752e-13 -5.62137e-13 -1.46507e-11)
(6.71377e-13 -1.02551e-12 -1.29383e-11)
(5.15205e-13 -9.16174e-13 -1.14568e-11)
(3.87753e-13 -8.1351e-13 -1.01788e-11)
(2.83379e-13 -7.25303e-13 -9.07108e-12)
(1.97884e-13 -6.48548e-13 -8.1069e-12)
(1.27749e-13 -5.81813e-13 -7.26503e-12)
(7.0118e-14 -5.18492e-13 -6.52663e-12)
(2.3801e-14 -2.82139e-13 -5.89042e-12)
(1.38291e-12 -4.55163e-13 -2.20769e-11)
(1.10269e-12 -1.14129e-12 -1.87291e-11)
(8.29171e-13 -1.55176e-12 -1.59704e-11)
(6.15279e-13 -1.33914e-12 -1.36762e-11)
(4.4867e-13 -1.15217e-12 -1.17742e-11)
(3.18299e-13 -9.96978e-13 -1.01853e-11)
(2.16103e-13 -8.66701e-13 -8.85152e-12)
(1.35812e-13 -7.57185e-13 -7.7242e-12)
(7.27725e-14 -6.58202e-13 -6.76634e-12)
(2.40824e-14 -3.5212e-13 -5.96487e-12)
(1.87801e-12 -1.009e-12 -2.98173e-11)
(1.43195e-12 -2.01643e-12 -2.42807e-11)
(1.03425e-12 -2.29708e-12 -1.99108e-11)
(7.39723e-13 -1.90683e-12 -1.6442e-11)
(5.21386e-13 -1.58592e-12 -1.3686e-11)
(3.58429e-13 -1.32965e-12 -1.14725e-11)
(2.36218e-13 -1.12243e-12 -9.68059e-12)
(1.44456e-13 -9.53844e-13 -8.21942e-12)
(7.53859e-14 -8.08364e-13 -7.01647e-12)
(2.43521e-14 -4.25399e-13 -6.04066e-12)
(2.44033e-12 -1.90711e-12 -4.11181e-11)
(1.47772e-12 -3.35509e-12 -3.19728e-11)
(9.46026e-13 -3.3558e-12 -2.51135e-11)
(5.82298e-13 -2.67317e-12 -1.99377e-11)
(3.29805e-13 -2.14305e-12 -1.6007e-11)
(1.5316e-13 -1.73747e-12 -1.29799e-11)
(2.90908e-14 -1.42203e-12 -1.06233e-11)
(-5.79453e-14 -1.17445e-12 -8.76749e-12)
(-1.19145e-13 -9.69657e-13 -7.28998e-12)
(-1.62615e-13 -5.01351e-13 -6.12925e-12)
(-2.97121e-10 -5.11051e-12 -1.15963e-10)
(-7.44277e-10 -6.87091e-12 -9.47391e-11)
(-6.17741e-10 -5.45932e-12 -7.81225e-11)
(-5.13451e-10 -4.2466e-12 -6.54644e-11)
(-4.31143e-10 -3.36074e-12 -5.56795e-11)
(-3.65261e-10 -2.70419e-12 -4.7961e-11)
(-3.11987e-10 -2.20736e-12 -4.17721e-11)
(-2.685e-10 -1.82651e-12 -3.67364e-11)
(-2.32762e-10 -1.52545e-12 -3.25838e-11)
(-2.07514e-10 -9.73139e-13 -2.96398e-11)
(5.51276e-07 -3.13322e-09 -9.09356e-08)
(-9.20563e-09 -2.46912e-09 -7.97369e-08)
(-1.12262e-08 -8.16994e-10 -6.95683e-08)
(-1.05549e-08 -7.53154e-10 -6.11657e-08)
(-9.88432e-09 -7.05143e-10 -5.41584e-08)
(-9.25144e-09 -6.57228e-10 -4.82632e-08)
(-8.66711e-09 -6.11528e-10 -4.32622e-08)
(-8.13593e-09 -5.68861e-10 -3.8987e-08)
(-7.71414e-09 -5.41058e-10 -3.53123e-08)
(-1.19468e-08 -5.89205e-10 -3.30973e-08)
(2.3256e-13 3.66765e-13 -5.12551e-13)
(2.19343e-13 3.45026e-13 -5.036e-13)
(1.92297e-13 -4.8095e-14 -4.94829e-13)
(1.66522e-13 -5.25453e-14 -4.86005e-13)
(1.41811e-13 -5.16057e-14 -4.77482e-13)
(1.17931e-13 -5.12286e-14 -4.69196e-13)
(9.54192e-14 -5.07671e-14 -4.60841e-13)
(7.36236e-14 -4.98935e-14 -4.53278e-13)
(5.27496e-14 -4.90222e-14 -4.45585e-13)
(3.32728e-14 -2.5848e-14 -4.37979e-13)
(5.04406e-13 3.30577e-13 -7.08811e-13)
(4.65505e-13 2.37795e-13 -6.73164e-13)
(3.98945e-13 -1.87187e-13 -6.37913e-13)
(3.36575e-13 -1.84982e-13 -6.05105e-13)
(2.7868e-13 -1.78594e-13 -5.74666e-13)
(2.2474e-13 -1.72024e-13 -5.46399e-13)
(1.7474e-13 -1.65706e-13 -5.18716e-13)
(1.27965e-13 -1.60162e-13 -4.92696e-13)
(8.43009e-14 -1.52886e-13 -4.69895e-13)
(4.46789e-14 -7.98558e-14 -4.46084e-13)
(6.23952e-13 2.60902e-13 -9.99534e-13)
(5.54486e-13 6.75311e-14 -9.11406e-13)
(4.58502e-13 -3.84348e-13 -8.32906e-13)
(3.72037e-13 -3.65906e-13 -7.61033e-13)
(2.95425e-13 -3.42772e-13 -6.96723e-13)
(2.27468e-13 -3.21619e-13 -6.37996e-13)
(1.66894e-13 -3.02355e-13 -5.85407e-13)
(1.13106e-13 -2.84941e-13 -5.38002e-13)
(6.49713e-14 -2.65387e-13 -4.94065e-13)
(2.31516e-14 -1.36275e-13 -4.5598e-13)
(8.18369e-13 1.39944e-13 -1.43372e-12)
(7.00616e-13 -1.97278e-13 -1.25412e-12)
(5.61488e-13 -6.63351e-13 -1.09922e-12)
(4.42162e-13 -6.10084e-13 -9.64362e-13)
(3.41111e-13 -5.5513e-13 -8.48612e-13)
(2.55339e-13 -5.06558e-13 -7.48896e-13)
(1.8237e-13 -4.63227e-13 -6.63022e-13)
(1.20308e-13 -4.25224e-13 -5.87974e-13)
(6.75042e-14 -3.86732e-13 -5.22209e-13)
(2.35218e-14 -1.95925e-13 -4.65411e-13)
(1.09228e-12 -6.52201e-14 -2.1008e-12)
(8.96726e-13 -6.07325e-13 -1.75257e-12)
(6.94594e-13 -1.05874e-12 -1.46956e-12)
(5.29233e-13 -9.40237e-13 -1.23519e-12)
(3.95788e-13 -8.29246e-13 -1.04216e-12)
(2.87637e-13 -7.34715e-13 -8.84049e-13)
(1.99846e-13 -6.53572e-13 -7.53023e-13)
(1.28359e-13 -5.8359e-13 -6.43949e-13)
(7.03625e-14 -5.16945e-13 -5.52312e-13)
(2.41369e-14 -2.57504e-13 -4.76897e-13)
(1.48368e-12 -4.0699e-13 -3.15063e-12)
(1.16617e-12 -1.24101e-12 -2.49326e-12)
(8.68694e-13 -1.62213e-12 -1.99142e-12)
(6.38186e-13 -1.38849e-12 -1.59459e-12)
(4.61626e-13 -1.18398e-12 -1.28865e-12)
(3.25038e-13 -1.01627e-12 -1.04854e-12)
(2.19244e-13 -8.77378e-13 -8.59342e-13)
(1.37198e-13 -7.61808e-13 -7.08297e-13)
(7.32304e-14 -6.57506e-13 -5.84868e-13)
(2.45715e-14 -3.22908e-13 -4.88695e-13)
(2.05977e-12 -9.63839e-13 -4.84016e-12)
(1.54106e-12 -2.21978e-12 -3.61449e-12)
(1.09894e-12 -2.43555e-12 -2.73486e-12)
(7.76204e-13 -1.99998e-12 -2.08065e-12)
(5.41434e-13 -1.64394e-12 -1.60425e-12)
(3.68788e-13 -1.36491e-12 -1.24923e-12)
(2.41211e-13 -1.14177e-12 -9.82704e-13)
(1.46614e-13 -9.62963e-13 -7.79695e-13)
(7.60917e-14 -8.09421e-13 -6.21134e-13)
(2.49877e-14 -3.90951e-13 -5.02415e-13)
(3.22227e-12 -1.8963e-12 -7.65878e-12)
(2.07425e-12 -3.7577e-12 -5.35347e-12)
(1.40543e-12 -3.6151e-12 -3.81682e-12)
(9.49256e-13 -2.83882e-12 -2.74772e-12)
(6.3507e-13 -2.24321e-12 -2.0153e-12)
(4.15848e-13 -1.79637e-12 -1.49868e-12)
(2.61636e-13 -1.45448e-12 -1.12959e-12)
(1.52624e-13 -1.19056e-12 -8.60404e-13)
(7.51313e-14 -9.73275e-13 -6.62074e-13)
(2.13879e-14 -4.62289e-13 -5.16819e-13)
(5.04039e-10 -4.44449e-12 -1.78318e-11)
(-3.39844e-11 -7.11702e-12 -1.24365e-11)
(-2.7846e-11 -5.48269e-12 -8.89511e-12)
(-2.02617e-11 -4.09972e-12 -6.53243e-12)
(-1.50445e-11 -3.11136e-12 -4.94641e-12)
(-1.13646e-11 -2.40429e-12 -3.84709e-12)
(-8.72057e-12 -1.88543e-12 -3.06661e-12)
(-6.78973e-12 -1.50003e-12 -2.49975e-12)
(-5.36154e-12 -1.19706e-12 -2.0784e-12)
(-4.30134e-12 -5.80008e-13 -1.77878e-12)
(4.77781e-07 -1.89894e-09 -1.06183e-08)
(1.2561e-09 -1.71127e-09 -8.37822e-09)
(-8.22216e-10 -2.13874e-10 -6.37098e-09)
(-6.80811e-10 -1.58972e-10 -4.91252e-09)
(-5.5879e-10 -1.27259e-10 -3.84664e-09)
(-4.63339e-10 -1.02796e-10 -3.05254e-09)
(-3.87339e-10 -8.38051e-11 -2.45194e-09)
(-3.26515e-10 -6.89349e-11 -1.99138e-09)
(-2.80383e-10 -5.72185e-11 -1.63425e-09)
(-3.3915e-10 -5.08046e-11 -1.38317e-09)
(2.26794e-13 3.67425e-13 -2.42917e-14)
(2.14235e-13 3.45275e-13 -2.31838e-14)
(1.87823e-13 -4.76691e-14 -2.07251e-14)
(1.62578e-13 -5.21141e-14 -1.96121e-14)
(1.38543e-13 -5.15048e-14 -1.79567e-14)
(1.15517e-13 -5.08534e-14 -1.67292e-14)
(9.3385e-14 -5.02135e-14 -1.55141e-14)
(7.21902e-14 -4.94403e-14 -1.39331e-14)
(5.20194e-14 -4.83164e-14 -1.34548e-14)
(3.30212e-14 -2.51639e-14 -1.36117e-14)
(4.98022e-13 3.33765e-13 -3.67235e-14)
(4.60059e-13 2.39995e-13 -3.33071e-14)
(3.94342e-13 -1.85203e-13 -3.07167e-14)
(3.32797e-13 -1.82973e-13 -2.71502e-14)
(2.7565e-13 -1.761e-13 -2.40034e-14)
(2.22423e-13 -1.70068e-13 -2.22438e-14)
(1.73001e-13 -1.64233e-13 -1.95228e-14)
(1.26874e-13 -1.57989e-13 -1.74788e-14)
(8.37654e-14 -1.50801e-13 -1.60691e-14)
(4.46045e-14 -7.75119e-14 -1.50836e-14)
(6.1559e-13 2.68584e-13 -5.83104e-14)
(5.47721e-13 7.27024e-14 -5.17412e-14)
(4.52941e-13 -3.7938e-13 -4.47985e-14)
(3.6762e-13 -3.61161e-13 -3.8791e-14)
(2.91982e-13 -3.38739e-13 -3.36379e-14)
(2.24785e-13 -3.17835e-13 -2.91448e-14)
(1.65175e-13 -2.98586e-13 -2.49082e-14)
(1.12068e-13 -2.81347e-13 -2.21461e-14)
(6.45805e-14 -2.62064e-13 -1.97354e-14)
(2.33161e-14 -1.3235e-13 -1.7998e-14)
(8.0764e-13 1.55272e-13 -9.45405e-14)
(6.92027e-13 -1.87401e-13 -8.13118e-14)
(5.54828e-13 -6.54935e-13 -6.80951e-14)
(4.36975e-13 -6.02406e-13 -5.69958e-14)
(3.37206e-13 -5.48065e-13 -4.75629e-14)
(2.52596e-13 -5.00121e-13 -4.0414e-14)
(1.80609e-13 -4.57503e-13 -3.37824e-14)
(1.19405e-13 -4.19651e-13 -2.84372e-14)
(6.7347e-14 -3.81605e-13 -2.50331e-14)
(2.39289e-14 -1.90892e-13 -2.15782e-14)
(1.07861e-12 -3.79467e-14 -1.59721e-13)
(8.86206e-13 -5.91144e-13 -1.30673e-13)
(6.86731e-13 -1.04465e-12 -1.05025e-13)
(5.23301e-13 -9.28231e-13 -8.40675e-14)
(3.91655e-13 -8.18896e-13 -6.81249e-14)
(2.84862e-13 -7.25408e-13 -5.47235e-14)
(1.98226e-13 -6.45093e-13 -4.46478e-14)
(1.27807e-13 -5.75992e-13 -3.82715e-14)
(7.01402e-14 -5.10421e-13 -3.33336e-14)
(2.45687e-14 -2.51046e-13 -2.77171e-14)
(1.4661e-12 -3.58692e-13 -2.75767e-13)
(1.15328e-12 -1.21551e-12 -2.12601e-13)
(8.59285e-13 -1.60151e-12 -1.64523e-13)
(6.31526e-13 -1.37123e-12 -1.25778e-13)
(4.57192e-13 -1.16893e-12 -9.81982e-14)
(3.22304e-13 -1.00354e-12 -7.78433e-14)
(2.17877e-13 -8.6618e-13 -6.20047e-14)
(1.36694e-13 -7.52944e-13 -5.07332e-14)
(7.32739e-14 -6.50099e-13 -4.063e-14)
(2.5148e-14 -3.14786e-13 -3.40282e-14)
(2.03729e-12 -8.80039e-13 -4.82661e-13)
(1.52494e-12 -2.182e-12 -3.51868e-13)
(1.08789e-12 -2.40524e-12 -2.55702e-13)
(7.68876e-13 -1.97558e-12 -1.88715e-13)
(5.36816e-13 -1.62394e-12 -1.41181e-13)
(3.66145e-13 -1.3482e-12 -1.07512e-13)
(2.39887e-13 -1.12804e-12 -8.36814e-14)
(1.46139e-13 -9.52194e-13 -6.63306e-14)
(7.66751e-14 -8.00524e-13 -5.27485e-14)
(2.5771e-14 -3.81909e-13 -4.2466e-14)
(3.21445e-12 -1.75037e-12 -8.60576e-13)
(2.05818e-12 -3.7023e-12 -5.84729e-13)
(1.39543e-12 -3.57199e-12 -4.0291e-13)
(9.44502e-13 -2.80601e-12 -2.81393e-13)
(6.34006e-13 -2.21695e-12 -2.02464e-13)
(4.17337e-13 -1.77597e-12 -1.48297e-13)
(2.64691e-13 -1.43843e-12 -1.10722e-13)
(1.56716e-13 -1.17746e-12 -8.48044e-14)
(7.99327e-14 -9.6324e-13 -6.69198e-14)
(2.65537e-14 -4.52389e-13 -5.2547e-14)
(5.73908e-10 -4.07624e-12 -2.04938e-12)
(6.03334e-12 -6.93993e-12 -1.01746e-12)
(7.74892e-13 -5.30679e-12 -6.61249e-13)
(5.03469e-13 -3.95825e-12 -4.53404e-13)
(3.25237e-13 -2.99665e-12 -3.21527e-13)
(1.93261e-13 -2.31022e-12 -2.36985e-13)
(9.96289e-14 -1.80735e-12 -1.79503e-13)
(3.40361e-14 -1.43427e-12 -1.3994e-13)
(-1.15523e-14 -1.14055e-12 -1.11683e-13)
(-4.03502e-14 -5.27465e-13 -9.15997e-14)
(4.74044e-07 -1.64632e-09 -1.32269e-09)
(2.25946e-09 -1.52161e-09 -4.71515e-10)
(-3.26831e-11 -3.54759e-11 -3.06478e-10)
(-2.88328e-11 -1.57326e-11 -2.05375e-10)
(-2.07242e-11 -1.11026e-11 -1.41191e-10)
(-1.52054e-11 -8.03341e-12 -9.91482e-11)
(-1.13354e-11 -5.91012e-12 -7.09714e-11)
(-8.57957e-12 -4.42155e-12 -5.17024e-11)
(-6.6592e-12 -3.34467e-12 -3.82983e-11)
(-6.70931e-12 -2.18448e-12 -2.88967e-11)
(2.2689e-13 3.67347e-13 -1.16497e-14)
(2.14239e-13 3.4465e-13 -1.05654e-14)
(1.88013e-13 -4.8483e-14 -8.02323e-15)
(1.627e-13 -5.26325e-14 -5.711e-15)
(1.38599e-13 -5.17568e-14 -4.53495e-15)
(1.15441e-13 -5.12237e-14 -3.49565e-15)
(9.3489e-14 -5.09215e-14 -2.80128e-15)
(7.23747e-14 -4.97697e-14 -1.56408e-15)
(5.20895e-14 -4.82196e-14 -5.49851e-16)
(3.31516e-14 -2.54076e-14 -4.92284e-16)
(4.98618e-13 3.33522e-13 -1.64662e-14)
(4.60573e-13 2.39667e-13 -1.47002e-14)
(3.94852e-13 -1.85586e-13 -1.15842e-14)
(3.33144e-13 -1.83808e-13 -9.89355e-15)
(2.75952e-13 -1.7691e-13 -6.91483e-15)
(2.22652e-13 -1.70356e-13 -4.95332e-15)
(1.73249e-13 -1.64334e-13 -4.28245e-15)
(1.27242e-13 -1.58458e-13 -3.71508e-15)
(8.41292e-14 -1.50908e-13 -2.60477e-15)
(4.49936e-14 -7.74035e-14 -1.86876e-15)
(6.16766e-13 2.68439e-13 -2.73174e-14)
(5.48854e-13 7.19789e-14 -2.4298e-14)
(4.53825e-13 -3.80526e-13 -1.96361e-14)
(3.68411e-13 -3.62199e-13 -1.55897e-14)
(2.92715e-13 -3.39196e-13 -1.23109e-14)
(2.25537e-13 -3.18343e-13 -9.81317e-15)
(1.65732e-13 -2.98993e-13 -7.90382e-15)
(1.12602e-13 -2.81398e-13 -6.69988e-15)
(6.51496e-14 -2.6193e-13 -6.25894e-15)
(2.37833e-14 -1.32477e-13 -5.6302e-15)
(8.0979e-13 1.5517e-13 -4.67991e-14)
(6.94127e-13 -1.8845e-13 -4.08322e-14)
(5.56554e-13 -6.56153e-13 -3.39808e-14)
(4.3847e-13 -6.03618e-13 -2.76423e-14)
(3.38564e-13 -5.49015e-13 -2.26266e-14)
(2.53666e-13 -5.00945e-13 -1.84702e-14)
(1.81582e-13 -4.58269e-13 -1.56358e-14)
(1.20374e-13 -4.2019e-13 -1.33389e-14)
(6.83102e-14 -3.81964e-13 -1.13163e-14)
(2.46401e-14 -1.90489e-13 -1.06673e-14)
(1.08254e-12 -3.77116e-14 -8.23764e-14)
(8.89642e-13 -5.93119e-13 -7.13518e-14)
(6.89659e-13 -1.04751e-12 -5.804e-14)
(5.25724e-13 -9.30372e-13 -4.65316e-14)
(3.93699e-13 -8.20648e-13 -3.87344e-14)
(2.86632e-13 -7.27153e-13 -3.16914e-14)
(1.99755e-13 -6.45992e-13 -2.57976e-14)
(1.29109e-13 -5.76232e-13 -2.25091e-14)
(7.14061e-14 -5.11079e-13 -1.97325e-14)
(2.56646e-14 -2.51578e-13 -1.69242e-14)
(1.47278e-12 -3.59191e-13 -1.45785e-13)
(1.15896e-12 -1.2197e-12 -1.21114e-13)
(8.63826e-13 -1.60565e-12 -9.67102e-14)
(6.35369e-13 -1.37514e-12 -7.71885e-14)
(4.60259e-13 -1.17199e-12 -6.21546e-14)
(3.2495e-13 -1.00609e-12 -5.15743e-14)
(2.20084e-13 -8.68436e-13 -4.13693e-14)
(1.38527e-13 -7.54408e-13 -3.46951e-14)
(7.47708e-14 -6.51316e-13 -3.02196e-14)
(2.64424e-14 -3.15404e-13 -2.56325e-14)
(2.04858e-12 -8.8074e-13 -2.60506e-13)
(1.53436e-12 -2.19076e-12 -2.08234e-13)
(1.09491e-12 -2.41377e-12 -1.60244e-13)
(7.74359e-13 -1.98239e-12 -1.23934e-13)
(5.41225e-13 -1.62957e-12 -9.84841e-14)
(3.69583e-13 -1.3528e-12 -7.826e-14)
(2.42715e-13 -1.13155e-12 -6.3013e-14)
(1.48539e-13 -9.54783e-13 -5.18949e-14)
(7.85704e-14 -8.03067e-13 -4.34372e-14)
(2.74235e-14 -3.83248e-13 -3.64623e-14)
(3.25611e-12 -1.75223e-12 -4.68424e-13)
(2.07249e-12 -3.72042e-12 -3.55589e-13)
(1.40594e-12 -3.58803e-12 -2.59845e-13)
(9.52713e-13 -2.81817e-12 -1.94886e-13)
(6.40309e-13 -2.22662e-12 -1.49217e-13)
(4.22282e-13 -1.78364e-12 -1.16161e-13)
(2.6855e-13 -1.44432e-12 -9.15953e-14)
(1.59702e-13 -1.18217e-12 -7.34799e-14)
(8.22256e-14 -9.66989e-13 -5.96585e-14)
(2.84287e-14 -4.54563e-13 -5.02257e-14)
(6.12422e-10 -4.14441e-12 -1.25622e-12)
(8.10098e-12 -7.03318e-12 -6.00229e-13)
(1.81294e-12 -5.3326e-12 -4.18011e-13)
(1.16027e-12 -3.97699e-12 -3.03059e-13)
(7.47708e-13 -3.01114e-12 -2.23804e-13)
(4.74072e-13 -2.32114e-12 -1.68881e-13)
(2.9055e-13 -1.81561e-12 -1.28624e-13)
(1.66549e-13 -1.44047e-12 -1.00785e-13)
(8.19015e-14 -1.1454e-12 -7.96867e-14)
(2.57862e-14 -5.29551e-13 -6.44283e-14)
(5.03673e-07 -1.74369e-09 -9.51209e-10)
(2.57468e-09 -1.59433e-09 -2.96441e-11)
(8.39262e-12 -2.24365e-11 -1.15074e-11)
(1.89342e-13 -6.07253e-12 -6.77543e-12)
(1.43882e-13 -4.30013e-12 -4.09489e-12)
(1.16441e-13 -3.15194e-12 -2.57348e-12)
(8.31559e-14 -2.35882e-12 -1.66483e-12)
(5.40878e-14 -1.80023e-12 -1.10571e-12)
(2.91542e-14 -1.38353e-12 -7.49828e-13)
(-5.95077e-15 -6.40256e-13 -5.14638e-13)
(2.27378e-13 3.67015e-13 -1.38904e-14)
(2.14685e-13 3.43881e-13 -1.16187e-14)
(1.88221e-13 -4.95457e-14 -9.78628e-15)
(1.63032e-13 -5.34508e-14 -6.67958e-15)
(1.38755e-13 -5.23415e-14 -5.1213e-15)
(1.15597e-13 -5.14956e-14 -3.00085e-15)
(9.34988e-14 -5.09369e-14 -2.09604e-15)
(7.24453e-14 -5.02998e-14 -1.58127e-15)
(5.22895e-14 -4.87047e-14 -8.79272e-16)
(3.32197e-14 -2.50662e-14 -1.66986e-15)
(4.99924e-13 3.33169e-13 -2.02218e-14)
(4.61756e-13 2.38264e-13 -1.80452e-14)
(3.95704e-13 -1.8686e-13 -1.27722e-14)
(3.33993e-13 -1.84613e-13 -1.05438e-14)
(2.7659e-13 -1.77855e-13 -7.97865e-15)
(2.23185e-13 -1.7094e-13 -5.7816e-15)
(1.73633e-13 -1.64576e-13 -4.15465e-15)
(1.27564e-13 -1.58519e-13 -3.40798e-15)
(8.45909e-14 -1.51423e-13 -3.43272e-15)
(4.53774e-14 -7.78989e-14 -2.8558e-15)
(6.19161e-13 2.67681e-13 -3.23082e-14)
(5.50895e-13 7.02189e-14 -2.88287e-14)
(4.55703e-13 -3.82262e-13 -2.31834e-14)
(3.69834e-13 -3.63596e-13 -1.87701e-14)
(2.93991e-13 -3.40632e-13 -1.45132e-14)
(2.26561e-13 -3.19251e-13 -1.13489e-14)
(1.66716e-13 -2.99561e-13 -9.3149e-15)
(1.13425e-13 -2.81802e-13 -8.52976e-15)
(6.58544e-14 -2.62317e-13 -7.36426e-15)
(2.46491e-14 -1.32932e-13 -6.72531e-15)
(8.13923e-13 1.53502e-13 -5.63456e-14)
(6.97583e-13 -1.91254e-13 -4.86246e-14)
(5.59511e-13 -6.59054e-13 -4.01248e-14)
(4.40849e-13 -6.06e-13 -3.23077e-14)
(3.4062e-13 -5.50999e-13 -2.61635e-14)
(2.555e-13 -5.02329e-13 -2.09546e-14)
(1.83077e-13 -4.59145e-13 -1.80609e-14)
(1.21669e-13 -4.21101e-13 -1.61138e-14)
(6.93353e-14 -3.82482e-13 -1.45663e-14)
(2.56426e-14 -1.90736e-13 -1.26636e-14)
(1.08935e-12 -4.10889e-14 -9.89858e-14)
(8.95361e-13 -5.98121e-13 -8.38499e-14)
(6.94203e-13 -1.0522e-12 -6.87864e-14)
(5.29452e-13 -9.34277e-13 -5.59645e-14)
(3.96765e-13 -8.23711e-13 -4.6381e-14)
(2.89319e-13 -7.2981e-13 -3.88723e-14)
(2.01799e-13 -6.48262e-13 -3.18391e-14)
(1.30862e-13 -5.78102e-13 -2.71514e-14)
(7.29219e-14 -5.12386e-13 -2.29332e-14)
(2.68408e-14 -2.52217e-13 -2.08196e-14)
(1.4842e-12 -3.65422e-13 -1.72722e-13)
(1.16823e-12 -1.22909e-12 -1.44548e-13)
(8.71035e-13 -1.61434e-12 -1.14804e-13)
(6.409e-13 -1.38185e-12 -9.14202e-14)
(4.64778e-13 -1.17718e-12 -7.44633e-14)
(3.28495e-13 -1.01064e-12 -6.19792e-14)
(2.23008e-13 -8.72148e-13 -5.03965e-14)
(1.40882e-13 -7.57016e-13 -4.19622e-14)
(7.67717e-14 -6.5363e-13 -3.62157e-14)
(2.81153e-14 -3.16601e-13 -3.17038e-14)
(2.06785e-12 -8.9361e-13 -3.05733e-13)
(1.54917e-12 -2.20824e-12 -2.44903e-13)
(1.106e-12 -2.42919e-12 -1.90428e-13)
(7.82763e-13 -1.99427e-12 -1.48348e-13)
(5.47704e-13 -1.63876e-12 -1.18533e-13)
(3.74625e-13 -1.36041e-12 -9.51781e-14)
(2.46768e-13 -1.13759e-12 -7.69098e-14)
(1.51646e-13 -9.59585e-13 -6.22088e-14)
(8.10079e-14 -8.06699e-13 -5.22727e-14)
(2.95043e-14 -3.85259e-13 -4.48323e-14)
(3.30231e-12 -1.77781e-12 -5.4443e-13)
(2.09638e-12 -3.75407e-12 -4.17051e-13)
(1.42278e-12 -3.61572e-12 -3.10288e-13)
(9.65e-13 -2.83881e-12 -2.34683e-13)
(6.49311e-13 -2.24218e-12 -1.81035e-13)
(4.29066e-13 -1.79587e-12 -1.42178e-13)
(2.73625e-13 -1.45423e-12 -1.13205e-13)
(1.63632e-13 -1.18985e-12 -8.90504e-14)
(8.52507e-14 -9.72726e-13 -7.20714e-14)
(3.07964e-14 -4.57603e-13 -6.08201e-14)
(6.52e-10 -4.1748e-12 -7.3234e-13)
(8.66028e-12 -7.13268e-12 -7.01063e-13)
(1.86959e-12 -5.38278e-12 -5.04644e-13)
(1.19386e-12 -4.01244e-12 -3.65654e-13)
(7.69127e-13 -3.0372e-12 -2.72006e-13)
(4.88282e-13 -2.34098e-12 -2.05644e-13)
(3.00365e-13 -1.83064e-12 -1.57729e-13)
(1.73492e-13 -1.45184e-12 -1.22481e-13)
(8.68683e-14 -1.15419e-12 -9.71456e-14)
(2.93565e-14 -5.34445e-13 -7.90449e-14)
(5.48378e-07 -1.81091e-09 -4.43073e-10)
(2.78083e-09 -1.69481e-09 -4.88565e-13)
(1.12713e-11 -2.30354e-11 -1.09599e-12)
(1.1699e-12 -5.72348e-12 -7.24466e-13)
(7.66071e-13 -4.09078e-12 -4.86496e-13)
(5.151e-13 -3.02371e-12 -3.40121e-13)
(3.47062e-13 -2.27905e-12 -2.45788e-13)
(2.32478e-13 -1.74974e-12 -1.80236e-13)
(1.53349e-13 -1.35114e-12 -1.35986e-13)
(9.92452e-14 -6.1617e-13 -1.05574e-13)
(2.28045e-13 3.66423e-13 -1.58062e-14)
(2.15357e-13 3.43022e-13 -1.38437e-14)
(1.88569e-13 -5.04357e-14 -1.0546e-14)
(1.63374e-13 -5.44825e-14 -8.42326e-15)
(1.39084e-13 -5.32189e-14 -6.37565e-15)
(1.1589e-13 -5.24276e-14 -4.44205e-15)
(9.38124e-14 -5.14883e-14 -3.0979e-15)
(7.27096e-14 -5.02833e-14 -5.81927e-15)
(5.26253e-14 -4.83097e-14 -1.88676e-14)
(3.34729e-14 -2.54998e-14 -5.27342e-14)
(5.015e-13 3.32521e-13 -2.40326e-14)
(4.63187e-13 2.36783e-13 -1.99152e-14)
(3.96895e-13 -1.88485e-13 -1.59188e-14)
(3.34965e-13 -1.85682e-13 -1.2501e-14)
(2.77401e-13 -1.78795e-13 -1.02246e-14)
(2.23941e-13 -1.71886e-13 -7.82707e-15)
(1.74367e-13 -1.65306e-13 -6.72687e-15)
(1.28327e-13 -1.58808e-13 -6.89055e-15)
(8.51924e-14 -1.51334e-13 -1.27474e-14)
(4.58618e-14 -7.86728e-14 -3.73923e-14)
(6.21986e-13 2.66732e-13 -3.79816e-14)
(5.53242e-13 6.85012e-14 -3.18987e-14)
(4.57772e-13 -3.84322e-13 -2.56713e-14)
(3.71593e-13 -3.65525e-13 -2.09678e-14)
(2.95409e-13 -3.42093e-13 -1.72015e-14)
(2.27816e-13 -3.20434e-13 -1.43804e-14)
(1.67837e-13 -3.00197e-13 -1.23246e-14)
(1.14553e-13 -2.8232e-13 -1.22034e-14)
(6.68988e-14 -2.62955e-13 -1.58712e-14)
(2.53456e-14 -1.33972e-13 -3.00331e-14)
(8.18861e-13 1.51468e-13 -6.44376e-14)
(7.01648e-13 -1.94461e-13 -5.39203e-14)
(5.62869e-13 -6.62189e-13 -4.42143e-14)
(4.43714e-13 -6.08887e-13 -3.64774e-14)
(3.43133e-13 -5.53419e-13 -3.04442e-14)
(2.57699e-13 -5.04253e-13 -2.6571e-14)
(1.84941e-13 -4.60404e-13 -2.32905e-14)
(1.2319e-13 -4.21835e-13 -2.08791e-14)
(7.07168e-14 -3.83773e-13 -2.21201e-14)
(2.68375e-14 -1.92162e-13 -2.98762e-14)
(1.09753e-12 -4.50225e-14 -1.13084e-13)
(9.02114e-13 -6.03926e-13 -9.31274e-14)
(6.99597e-13 -1.05756e-12 -7.54512e-14)
(5.33833e-13 -9.38744e-13 -6.25965e-14)
(4.00483e-13 -8.27289e-13 -5.27272e-14)
(2.92537e-13 -7.33043e-13 -4.53597e-14)
(2.04538e-13 -6.51011e-13 -3.99386e-14)
(1.32995e-13 -5.80259e-13 -3.5125e-14)
(7.47042e-14 -5.14184e-13 -3.19447e-14)
(2.8608e-14 -2.53878e-13 -3.65025e-14)
(1.49788e-12 -3.73045e-13 -1.99345e-13)
(1.17895e-12 -1.23973e-12 -1.60331e-13)
(8.79402e-13 -1.62422e-12 -1.27774e-13)
(6.47631e-13 -1.38991e-12 -1.04131e-13)
(4.70138e-13 -1.18334e-12 -8.58492e-14)
(3.32917e-13 -1.01586e-12 -7.34616e-14)
(2.26637e-13 -8.76911e-13 -6.19062e-14)
(1.43737e-13 -7.60809e-13 -5.28202e-14)
(7.92104e-14 -6.56342e-13 -4.71924e-14)
(3.01347e-14 -3.18915e-13 -4.68166e-14)
(2.09072e-12 -9.0892e-13 -3.49959e-13)
(1.56627e-12 -2.22835e-12 -2.71151e-13)
(1.11888e-12 -2.44629e-12 -2.11838e-13)
(7.92748e-13 -2.00798e-12 -1.68515e-13)
(5.55427e-13 -1.64951e-12 -1.35356e-13)
(3.80693e-13 -1.36933e-12 -1.11876e-13)
(2.51668e-13 -1.14523e-12 -9.14606e-14)
(1.55458e-13 -9.65647e-13 -7.70721e-14)
(8.39675e-14 -8.11386e-13 -6.64615e-14)
(3.18844e-14 -3.88574e-13 -6.07375e-14)
(3.30487e-12 -1.80787e-12 -6.17523e-13)
(2.12291e-12 -3.79196e-12 -4.5898e-13)
(1.44276e-12 -3.6467e-12 -3.46399e-13)
(9.79582e-13 -2.86248e-12 -2.65422e-13)
(6.602e-13 -2.26034e-12 -2.06928e-13)
(4.37256e-13 -1.81001e-12 -1.6532e-13)
(2.79965e-13 -1.46627e-12 -1.34911e-13)
(1.68474e-13 -1.19996e-12 -1.08832e-13)
(8.89382e-14 -9.80208e-13 -9.04205e-14)
(3.3655e-14 -4.62166e-13 -7.80813e-14)
(6.48634e-10 -3.84301e-12 1.67216e-12)
(8.11625e-12 -7.10583e-12 -7.32908e-13)
(1.89684e-12 -5.43617e-12 -5.6741e-13)
(1.21627e-12 -4.05344e-12 -4.14357e-13)
(7.85044e-13 -3.0677e-12 -3.12389e-13)
(4.99726e-13 -2.36434e-12 -2.40283e-13)
(3.08681e-13 -1.84948e-12 -1.90038e-13)
(1.79522e-13 -1.46631e-12 -1.46984e-13)
(9.1353e-14 -1.16544e-12 -1.20169e-13)
(3.2601e-14 -5.41272e-13 -1.00258e-13)
(5.69709e-07 -1.37791e-09 2.89485e-09)
(2.66712e-09 -1.68037e-09 4.57287e-11)
(8.98733e-12 -2.15495e-11 -6.48238e-13)
(1.20447e-12 -5.7669e-12 -6.40555e-13)
(7.94543e-13 -4.13444e-12 -4.64967e-13)
(5.33536e-13 -3.0572e-12 -3.44073e-13)
(3.59516e-13 -2.30573e-12 -2.61615e-13)
(2.41166e-13 -1.77012e-12 -1.95473e-13)
(1.59298e-13 -1.36674e-12 -1.54406e-13)
(1.03691e-13 -6.25009e-13 -1.2444e-13)
(2.28445e-13 3.66261e-13 -1.11023e-14)
(2.15031e-13 3.41911e-13 -8.53859e-16)
(1.88652e-13 -5.16035e-14 -1.40621e-15)
(1.63566e-13 -5.50723e-14 -4.87388e-15)
(1.39624e-13 -5.39782e-14 -1.38683e-14)
(1.16867e-13 -5.30078e-14 -3.08352e-14)
(9.53293e-14 -5.08626e-14 -6.20035e-14)
(7.60903e-14 -4.5823e-14 -2.2894e-13)
(5.9425e-14 -3.69522e-14 -8.78876e-13)
(3.79593e-14 -4.61012e-14 -2.31821e-12)
(5.02574e-13 3.31743e-13 -1.37102e-14)
(4.63156e-13 2.35752e-13 3.22125e-15)
(3.97239e-13 -1.89332e-13 -3.58088e-16)
(3.35499e-13 -1.86593e-13 -3.75273e-15)
(2.78301e-13 -1.79739e-13 -1.27277e-14)
(2.25265e-13 -1.72824e-13 -2.8855e-14)
(1.76039e-13 -1.66086e-13 -5.30294e-14)
(1.3077e-13 -1.59648e-13 -1.51169e-13)
(8.89007e-14 -1.51714e-13 -5.24792e-13)
(4.65332e-14 -1.15596e-13 -1.52372e-12)
(6.23836e-13 2.65776e-13 -2.27308e-14)
(5.53799e-13 6.71024e-14 2.24416e-15)
(4.58454e-13 -3.85237e-13 3.15018e-16)
(3.72597e-13 -3.66121e-13 -5.08458e-15)
(2.96785e-13 -3.43002e-13 -1.35489e-14)
(2.2974e-13 -3.21785e-13 -2.99592e-14)
(1.70096e-13 -3.02168e-13 -5.51469e-14)
(1.17092e-13 -2.84542e-13 -1.1337e-13)
(7.0358e-14 -2.68654e-13 -3.45691e-13)
(2.6543e-14 -1.74359e-13 -1.00554e-12)
(8.2223e-13 1.50518e-13 -4.02669e-14)
(7.02955e-13 -1.95459e-13 -2.79906e-15)
(5.64378e-13 -6.63047e-13 -5.04018e-15)
(4.45549e-13 -6.09597e-13 -1.12084e-14)