/*--------------------------------*- C++ -*----------------------------------*\
| =========                 |                                                 |
| \\      /  F ield         | OpenFOAM: The Open Source CFD Toolbox           |
|  \\    /   O peration     | Version:  4.1                                   |
|   \\  /    A nd           | Web:      www.OpenFOAM.org                      |
|    \\/     M anipulation  |                                                 |
\*---------------------------------------------------------------------------*/
FoamFile
{
    version     2.0;
    format      ascii;
    class       volScalarField;
    location    "6.14";
    object      Ma;
}
// * * * * * * * * * * * * * * * * * * * * * * * * * * * * * * * * * * * * * //

dimensions      [0 0 0 0 0 0 0];

internalField   nonuniform List<scalar> 
52500
(
3.00001
2.99997
2.9999
2.99965
2.9993
2.99786
2.9958
2.98786
2.9749
2.93193
2.83609
2.61342
2.04333
1.17813
0.493945
0.299249
0.336982
0.347266
0.316619
0.26357
0.21116
0.168695
0.127033
0.0803891
0.0461927
3.00001
2.99997
2.99991
2.99966
2.99931
2.99789
2.99586
2.98803
2.97521
2.93285
2.83801
2.61797
2.05131
1.18964
0.500188
0.299141
0.337898
0.348755
0.318247
0.265895
0.214823
0.173949
0.134615
0.093539
0.0696711
3.00002
2.99997
2.99991
2.99967
2.99933
2.99795
2.99597
2.98838
2.97585
2.93475
2.84205
2.62751
2.06869
1.21549
0.514769
0.300577
0.341578
0.353998
0.324321
0.274078
0.226339
0.189368
0.155518
0.123702
0.108953
3.00002
2.99997
2.99991
2.99968
2.99936
2.99804
2.99614
2.98891
2.9768
2.93767
2.84822
2.64237
2.09605
1.25626
0.537049
0.302523
0.347203
0.362475
0.334456
0.287519
0.244428
0.212632
0.185092
0.161404
0.15192
3.00002
2.99997
2.99992
2.9997
2.99939
2.99814
2.99634
2.98947
2.97805
2.94084
2.85661
2.66046
2.14156
1.3173
0.571253
0.309446
0.357631
0.376151
0.349898
0.306631
0.268235
0.241712
0.220249
0.202842
0.197002
3.00002
2.99998
2.99993
2.99972
2.99943
2.99825
2.99657
2.99005
2.97955
2.94437
2.86759
2.68281
2.20375
1.40009
0.617072
0.322753
0.37381
0.395906
0.371191
0.332065
0.298112
0.276421
0.260602
0.24916
0.246833
3.00002
2.99998
2.99993
2.99974
2.99947
2.99836
2.99681
2.99057
2.98119
2.94767
2.88202
2.70938
2.28157
1.50672
0.676025
0.347377
0.398622
0.422789
0.399168
0.363562
0.334241
0.317411
0.307248
0.302028
0.305282
3.00002
2.99998
2.99994
2.99977
2.99952
2.99852
2.99711
2.9915
2.98304
2.9526
2.8957
2.73774
2.36422
1.63234
0.744883
0.386797
0.4353
0.457733
0.43496
0.402579
0.376896
0.364941
0.361022
0.364239
0.377826
3.00002
2.99999
2.99995
2.99979
2.99957
2.99868
2.99741
2.99237
2.98483
2.95735
2.90723
2.76394
2.43222
1.74144
0.810152
0.426388
0.468046
0.487368
0.47066
0.445611
0.425682
0.419207
0.423185
0.439897
0.477034
3.00002
2.99999
2.99996
2.99983
2.99963
2.99887
2.99777
2.9935
2.98676
2.96382
2.91652
2.79443
2.48229
1.85797
0.904204
0.489323
0.49424
0.505896
0.503064
0.487271
0.476693
0.477798
0.49555
0.539842
0.641662
3
2.99995
2.99989
2.99963
2.99928
2.99784
2.99578
2.98783
2.97488
2.9319
2.83605
2.61335
2.04325
1.178
0.493796
0.299056
0.3368
0.347082
0.316415
0.263323
0.210847
0.168297
0.126497
0.0795257
0.0446497
3
2.99995
2.99989
2.99964
2.99929
2.99787
2.99584
2.988
2.97519
2.93282
2.83797
2.6179
2.05124
1.18951
0.500047
0.298952
0.337719
0.348574
0.318046
0.265652
0.214519
0.173568
0.134115
0.092808
0.0686732
3
2.99995
2.99989
2.99965
2.99931
2.99793
2.99595
2.98835
2.97582
2.93472
2.84201
2.62745
2.06862
1.21537
0.514632
0.300389
0.341401
0.353821
0.324125
0.273845
0.226054
0.189022
0.155092
0.123158
0.108328
3
2.99995
2.9999
2.99966
2.99934
2.99802
2.99612
2.98889
2.97678
2.93763
2.84819
2.64231
2.09598
1.25614
0.536918
0.302336
0.347029
0.362302
0.334267
0.287298
0.244166
0.212328
0.184739
0.160995
0.151481
3
2.99996
2.9999
2.99968
2.99937
2.99812
2.99632
2.98945
2.97802
2.94081
2.85657
2.66039
2.14149
1.31718
0.571128
0.309259
0.357459
0.375983
0.349717
0.306425
0.267998
0.241447
0.219957
0.202522
0.19667
3
2.99996
2.99991
2.9997
2.99941
2.99823
2.99655
2.99002
2.97952
2.94432
2.86758
2.68275
2.20374
1.39999
0.616977
0.32259
0.373656
0.395754
0.371026
0.331879
0.297903
0.276193
0.26036
0.248904
0.246574
3
2.99996
2.99991
2.99972
2.99945
2.99834
2.99679
2.99055
2.98117
2.94763
2.882
2.70932
2.28154
1.50662
0.675939
0.347225
0.398481
0.422653
0.39902
0.363398
0.33406
0.317218
0.307047
0.301823
0.305078
3
2.99997
2.99992
2.99975
2.9995
2.9985
2.99709
2.99147
2.98302
2.95257
2.89567
2.73769
2.36417
1.63224
0.744793
0.386649
0.435166
0.457607
0.434827
0.402433
0.376739
0.364777
0.360856
0.364074
0.377667
3
2.99997
2.99993
2.99977
2.99955
2.99866
2.99739
2.99234
2.98481
2.95733
2.9072
2.7639
2.43219
1.74135
0.810078
0.426254
0.467926
0.487253
0.47054
0.445484
0.425547
0.419069
0.423048
0.439766
0.476915
3
2.99998
2.99994
2.99981
2.99961
2.99885
2.99775
2.99348
2.98674
2.96378
2.91651
2.79439
2.4823
1.85789
0.904131
0.4892
0.494134
0.505791
0.502957
0.487157
0.476577
0.477681
0.495438
0.539741
0.641581
3
2.99995
2.99989
2.99963
2.99928
2.99784
2.99578
2.98783
2.97488
2.9319
2.83605
2.61335
2.04325
1.17799
0.493794
0.299057
0.3368
0.347082
0.316415
0.263323
0.210847
0.168297
0.126497
0.0795257
0.0446498
3
2.99995
2.99989
2.99964
2.99929
2.99787
2.99584
2.988
2.97519
2.93282
2.83797
2.6179
2.05124
1.18951
0.500045
0.298953
0.337719
0.348574
0.318046
0.265652
0.214519
0.173568
0.134116
0.0928081
0.0686733
3
2.99995
2.99989
2.99965
2.99931
2.99793
2.99595
2.98835
2.97582
2.93472
2.84201
2.62744
2.06862
1.21536
0.51463
0.30039
0.341401
0.353821
0.324125
0.273845
0.226054
0.189022
0.155092
0.123158
0.108328
3
2.99995
2.9999
2.99966
2.99934
2.99802
2.99612
2.98889
2.97678
2.93763
2.84819
2.6423
2.09598
1.25613
0.536917
0.302337
0.347029
0.362302
0.334267
0.287298
0.244166
0.212328
0.184739
0.160995
0.151481
3
2.99996
2.9999
2.99968
2.99937
2.99812
2.99632
2.98945
2.97802
2.94081
2.85657
2.66039
2.14149
1.31717
0.571126
0.30926
0.357459
0.375983
0.349717
0.306425
0.267999
0.241447
0.219957
0.202522
0.19667
3
2.99996
2.99991
2.9997
2.99941
2.99823
2.99655
2.99002
2.97952
2.94432
2.86758
2.68275
2.20373
1.39998
0.616975
0.32259
0.373655
0.395754
0.371026
0.331879
0.297903
0.276194
0.26036
0.248905
0.246574
3
2.99996
2.99991
2.99972
2.99945
2.99834
2.99679
2.99055
2.98117
2.94763
2.882
2.70932
2.28154
1.50662
0.675936
0.347225
0.39848
0.422652
0.39902
0.363397
0.334059
0.317218
0.307047
0.301823
0.305078
3
2.99997
2.99992
2.99975
2.9995
2.9985
2.99709
2.99147
2.98302
2.95257
2.89567
2.73769
2.36416
1.63223
0.74479
0.386648
0.435165
0.457606
0.434826
0.402432
0.376738
0.364777
0.360856
0.364074
0.377667
3
2.99997
2.99993
2.99977
2.99955
2.99866
2.99739
2.99234
2.98481
2.95733
2.9072
2.76389
2.43219
1.74134
0.810076
0.426254
0.467926
0.487252
0.470539
0.445483
0.425547
0.419069
0.423048
0.439766
0.476915
3
2.99998
2.99994
2.99981
2.99961
2.99885
2.99775
2.99348
2.98674
2.96378
2.91651
2.79439
2.4823
1.85788
0.904128
0.489199
0.494134
0.505791
0.502956
0.487157
0.476576
0.477681
0.495438
0.539741
0.641581
3
2.99995
2.99989
2.99963
2.99928
2.99784
2.99578
2.98783
2.97488
2.9319
2.83605
2.61335
2.04325
1.17799
0.493794
0.299057
0.3368
0.347082
0.316415
0.263323
0.210847
0.168297
0.126497
0.0795257
0.0446498
3
2.99995
2.99989
2.99964
2.99929
2.99787
2.99584
2.988
2.97519
2.93282
2.83797
2.6179
2.05124
1.18951
0.500045
0.298953
0.337719
0.348574
0.318046
0.265652
0.214519
0.173568
0.134116
0.0928081
0.0686733
3
2.99995
2.99989
2.99965
2.99931
2.99793
2.99595
2.98835
2.97582
2.93472
2.84201
2.62744
2.06862
1.21536
0.51463
0.30039
0.341401
0.353821
0.324125
0.273845
0.226054
0.189022
0.155092
0.123158
0.108328
3
2.99995
2.9999
2.99966
2.99934
2.99802
2.99612
2.98889
2.97678
2.93763
2.84819
2.6423
2.09598
1.25613
0.536917
0.302337
0.347029
0.362302
0.334267
0.287298
0.244166
0.212328
0.184739
0.160995
0.151481
3
2.99996
2.9999
2.99968
2.99937
2.99812
2.99632
2.98945
2.97802
2.94081
2.85657
2.66039
2.14149
1.31717
0.571126
0.30926
0.357459
0.375983
0.349717
0.306425
0.267999
0.241447
0.219957
0.202522
0.19667
3
2.99996
2.99991
2.9997
2.99941
2.99823
2.99655
2.99002
2.97952
2.94432
2.86758
2.68275
2.20373
1.39998
0.616975
0.32259
0.373655
0.395754
0.371026
0.331879
0.297903
0.276194
0.26036
0.248905
0.246574
3
2.99996
2.99991
2.99972
2.99945
2.99834
2.99679
2.99055
2.98117
2.94763
2.882
2.70932
2.28154
1.50662
0.675936
0.347225
0.39848
0.422652
0.39902
0.363397
0.334059
0.317218
0.307047
0.301823
0.305078
3
2.99997
2.99992
2.99975
2.9995
2.9985
2.99709
2.99147
2.98302
2.95257
2.89567
2.73769
2.36416
1.63223
0.744791
0.386648
0.435165
0.457606
0.434826
0.402432
0.376738
0.364777
0.360856
0.364074
0.377667
3
2.99997
2.99993
2.99977
2.99955
2.99866
2.99739
2.99234
2.98481
2.95733
2.9072
2.76389
2.43219
1.74134
0.810076
0.426254
0.467926
0.487252
0.470539
0.445483
0.425547
0.419069
0.423048
0.439766
0.476915
3
2.99998
2.99994
2.99981
2.99961
2.99885
2.99775
2.99348
2.98674
2.96378
2.91651
2.79439
2.4823
1.85788
0.904128
0.489199
0.494134
0.505791
0.502956
0.487157
0.476576
0.477681
0.495438
0.539741
0.641581
3
2.99995
2.99989
2.99963
2.99928
2.99784
2.99578
2.98783
2.97488
2.9319
2.83605
2.61335
2.04325
1.17799
0.493794
0.299057
0.3368
0.347082
0.316415
0.263323
0.210847
0.168297
0.126497
0.0795257
0.0446498
3
2.99995
2.99989
2.99964
2.99929
2.99787
2.99584
2.988
2.97519
2.93282
2.83797
2.6179
2.05124
1.18951
0.500045
0.298953
0.33772
0.348574
0.318046
0.265652
0.214519
0.173568
0.134116
0.0928081
0.0686733
3
2.99995
2.99989
2.99965
2.99931
2.99793
2.99595
2.98835
2.97582
2.93472
2.84201
2.62744
2.06862
1.21536
0.51463
0.300391
0.341401
0.353821
0.324125
0.273845
0.226054
0.189022
0.155092
0.123158
0.108328
3
2.99995
2.9999
2.99966
2.99934
2.99802
2.99612
2.98889
2.97678
2.93763
2.84819
2.6423
2.09598
1.25613
0.536916
0.302337
0.347029
0.362302
0.334267
0.287298
0.244166
0.212328
0.184739
0.160995
0.151481
3
2.99996
2.9999
2.99968
2.99937
2.99812
2.99632
2.98945
2.97802
2.94081
2.85657
2.66039
2.14149
1.31717
0.571126
0.30926
0.357459
0.375982
0.349717
0.306425
0.267999
0.241447
0.219957
0.202522
0.19667
3
2.99996
2.99991
2.9997
2.99941
2.99823
2.99655
2.99002
2.97952
2.94432
2.86758
2.68275
2.20373
1.39998
0.616974
0.32259
0.373655
0.395754
0.371026
0.331879
0.297903
0.276193
0.26036
0.248905
0.246574
3
2.99996
2.99991
2.99972
2.99945
2.99834
2.99679
2.99055
2.98117
2.94763
2.882
2.70932
2.28154
1.50662
0.675936
0.347224
0.39848
0.422652
0.39902
0.363397
0.334059
0.317218
0.307047
0.301823
0.305078
3
2.99997
2.99992
2.99975
2.9995
2.9985
2.99709
2.99147
2.98302
2.95257
2.89567
2.73769
2.36416
1.63223
0.74479
0.386648
0.435165
0.457605
0.434826
0.402432
0.376738
0.364777
0.360856
0.364074
0.377667
3
2.99997
2.99993
2.99977
2.99955
2.99866
2.99739
2.99234
2.98481
2.95733
2.9072
2.76389
2.43219
1.74134
0.810076
0.426253
0.467926
0.487252
0.470539
0.445483
0.425547
0.419069
0.423048
0.439765
0.476915
3
2.99998
2.99994
2.99981
2.99961
2.99885
2.99775
2.99348
2.98674
2.96378
2.91651
2.79439
2.4823
1.85788
0.904127
0.489198
0.494134
0.505791
0.502956
0.487157
0.476576
0.47768
0.495438
0.539741
0.641581
3
2.99995
2.99989
2.99963
2.99928
2.99784
2.99578
2.98783
2.97488
2.9319
2.83605
2.61335
2.04325
1.17799
0.493794
0.299057
0.3368
0.347082
0.316415
0.263323
0.210847
0.168297
0.126497
0.0795257
0.0446498
3
2.99995
2.99989
2.99964
2.99929
2.99787
2.99584
2.988
2.97519
2.93282
2.83797
2.6179
2.05124
1.18951
0.500045
0.298953
0.33772
0.348574
0.318046
0.265652
0.214519
0.173568
0.134116
0.0928081
0.0686733
3
2.99995
2.99989
2.99965
2.99931
2.99793
2.99595
2.98835
2.97582
2.93472
2.84201
2.62744
2.06862
1.21536
0.51463
0.300391
0.341401
0.353821
0.324125
0.273845
0.226054
0.189022
0.155092
0.123158
0.108328
3
2.99995
2.9999
2.99966
2.99934
2.99802
2.99612
2.98889
2.97678
2.93763
2.84819
2.6423
2.09598
1.25613
0.536916
0.302337
0.347029
0.362302
0.334267
0.287298
0.244166
0.212328
0.184739
0.160995
0.151481
3
2.99996
2.9999
2.99968
2.99937
2.99812
2.99632
2.98945
2.97802
2.94081
2.85657
2.66039
2.14149
1.31717
0.571125
0.30926
0.357459
0.375982
0.349717
0.306425
0.267999
0.241447
0.219957
0.202522
0.19667
3
2.99996
2.99991
2.9997
2.99941
2.99823
2.99655
2.99002
2.97952
2.94432
2.86758
2.68275
2.20373
1.39998
0.616974
0.32259
0.373655
0.395754
0.371026
0.331879
0.297903
0.276193
0.26036
0.248905
0.246574
3
2.99996
2.99991
2.99972
2.99945
2.99834
2.99679
2.99055
2.98117
2.94763
2.882
2.70932
2.28154
1.50662
0.675936
0.347224
0.39848
0.422652
0.39902
0.363397
0.334059
0.317218
0.307047
0.301823
0.305078
3
2.99997
2.99992
2.99975
2.9995
2.9985
2.99709
2.99147
2.98302
2.95257
2.89567
2.73769
2.36416
1.63223
0.74479
0.386648
0.435165
0.457605
0.434826
0.402432
0.376738
0.364777
0.360856
0.364074
0.377667
3
2.99997
2.99993
2.99977
2.99955
2.99866
2.99739
2.99234
2.98481
2.95733
2.9072
2.76389
2.43219
1.74134
0.810076
0.426253
0.467926
0.487252
0.470539
0.445483
0.425547
0.419069
0.423048
0.439765
0.476915
3
2.99998
2.99994
2.99981
2.99961
2.99885
2.99775
2.99348
2.98674
2.96378
2.91651
2.79439
2.4823
1.85788
0.904127
0.489198
0.494134
0.505791
0.502956
0.487157
0.476576
0.47768
0.495438
0.539741
0.641581
3
2.99995
2.99989
2.99963
2.99928
2.99784
2.99578
2.98783
2.97488
2.9319
2.83605
2.61335
2.04325
1.17799
0.493794
0.299057
0.3368
0.347082
0.316415
0.263323
0.210847
0.168297
0.126497
0.0795257
0.0446498
3
2.99995
2.99989
2.99964
2.99929
2.99787
2.99584
2.988
2.97519
2.93282
2.83797
2.6179
2.05124
1.18951
0.500045
0.298953
0.337719
0.348574
0.318046
0.265652
0.214519
0.173568
0.134116
0.0928081
0.0686733
3
2.99995
2.99989
2.99965
2.99931
2.99793
2.99595
2.98835
2.97582
2.93472
2.84201
2.62744
2.06862
1.21536
0.51463
0.30039
0.341401
0.353821
0.324125
0.273845
0.226054
0.189022
0.155092
0.123158
0.108328
3
2.99995
2.9999
2.99966
2.99934
2.99802
2.99612
2.98889
2.97678
2.93763
2.84819
2.6423
2.09598
1.25613
0.536916
0.302337
0.347029
0.362302
0.334267
0.287298
0.244166
0.212328
0.184739
0.160995
0.151481
3
2.99996
2.9999
2.99968
2.99937
2.99812
2.99632
2.98945
2.97802
2.94081
2.85657
2.66039
2.14149
1.31717
0.571126
0.30926
0.357459
0.375983
0.349717
0.306425
0.267999
0.241447
0.219957
0.202522
0.19667
3
2.99996
2.99991
2.9997
2.99941
2.99823
2.99655
2.99002
2.97952
2.94432
2.86758
2.68275
2.20373
1.39998
0.616975
0.32259
0.373655
0.395754
0.371026
0.331879
0.297903
0.276193
0.26036
0.248905
0.246574
3
2.99996
2.99991
2.99972
2.99945
2.99834
2.99679
2.99055
2.98117
2.94763
2.882
2.70932
2.28154
1.50662
0.675936
0.347225
0.39848
0.422652
0.39902
0.363397
0.334059
0.317218
0.307047
0.301823
0.305078
3
2.99997
2.99992
2.99975
2.9995
2.9985
2.99709
2.99147
2.98302
2.95257
2.89567
2.73769
2.36416
1.63223
0.74479
0.386648
0.435165
0.457606
0.434826
0.402432
0.376738
0.364777
0.360856
0.364074
0.377667
3
2.99997
2.99993
2.99977
2.99955
2.99866
2.99739
2.99234
2.98481
2.95733
2.9072
2.76389
2.43219
1.74134
0.810076
0.426254
0.467926
0.487252
0.470539
0.445483
0.425547
0.419069
0.423048
0.439765
0.476915
3
2.99998
2.99994
2.99981
2.99961
2.99885
2.99775
2.99348
2.98674
2.96378
2.91651
2.79439
2.4823
1.85788
0.904128
0.489199
0.494134
0.505791
0.502956
0.487157
0.476576
0.477681
0.495438
0.539741
0.641581
3
2.99995
2.99989
2.99963
2.99928
2.99784
2.99578
2.98783
2.97488
2.9319
2.83605
2.61335
2.04325
1.17799
0.493794
0.299057
0.3368
0.347082
0.316415
0.263323
0.210847
0.168297
0.126497
0.0795257
0.0446498
3
2.99995
2.99989
2.99964
2.99929
2.99787
2.99584
2.988
2.97519
2.93282
2.83797
2.6179
2.05124
1.18951
0.500045
0.298953
0.337719
0.348574
0.318046
0.265652
0.214519
0.173568
0.134116
0.0928081
0.0686733
3
2.99995
2.99989
2.99965
2.99931
2.99793
2.99595
2.98835
2.97582
2.93472
2.84201
2.62744
2.06862
1.21536
0.51463
0.30039
0.341401
0.353821
0.324125
0.273845
0.226054
0.189022
0.155092
0.123158
0.108328
3
2.99995
2.9999
2.99966
2.99934
2.99802
2.99612
2.98889
2.97678
2.93763
2.84819
2.6423
2.09598
1.25613
0.536917
0.302337
0.347029
0.362302
0.334267
0.287298
0.244166
0.212328
0.184739
0.160995
0.151481
3
2.99996
2.9999
2.99968
2.99937
2.99812
2.99632
2.98945
2.97802
2.94081
2.85657
2.66039
2.14149
1.31717
0.571126
0.30926
0.357459
0.375983
0.349717
0.306425
0.267999
0.241447
0.219957
0.202522
0.19667
3
2.99996
2.99991
2.9997
2.99941
2.99823
2.99655
2.99002
2.97952
2.94432
2.86758
2.68275
2.20373
1.39998
0.616975
0.32259
0.373655
0.395754
0.371026
0.331879
0.297903
0.276194
0.26036
0.248905
0.246574
3
2.99996
2.99991
2.99972
2.99945
2.99834
2.99679
2.99055
2.98117
2.94763
2.882
2.70932
2.28154
1.50662
0.675936
0.347225
0.39848
0.422652
0.39902
0.363397
0.334059
0.317218
0.307047
0.301823
0.305078
3
2.99997
2.99992
2.99975
2.9995
2.9985
2.99709
2.99147
2.98302
2.95257
2.89567
2.73769
2.36416
1.63223
0.74479
0.386648
0.435165
0.457606
0.434826
0.402432
0.376738
0.364777
0.360856
0.364074
0.377667
3
2.99997
2.99993
2.99977
2.99955
2.99866
2.99739
2.99234
2.98481
2.95733
2.9072
2.76389
2.43219
1.74134
0.810076
0.426254
0.467926
0.487252
0.470539
0.445483
0.425547
0.419069
0.423048
0.439766
0.476915
3
2.99998
2.99994
2.99981
2.99961
2.99885
2.99775
2.99348
2.98674
2.96378
2.91651
2.79439
2.4823
1.85788
0.904128
0.489199
0.494134
0.505791
0.502956
0.487157
0.476576
0.477681
0.495438
0.539741
0.641581
3
2.99995
2.99989
2.99963
2.99928
2.99784
2.99578
2.98783
2.97488
2.9319
2.83605
2.61335
2.04325
1.178
0.493796
0.299056
0.3368
0.347082
0.316415
0.263323
0.210847
0.168297
0.126497
0.0795257
0.0446497
3
2.99995
2.99989
2.99964
2.99929
2.99787
2.99584
2.988
2.97519
2.93282
2.83797
2.6179
2.05124
1.18951
0.500047
0.298952
0.337719
0.348574
0.318046
0.265652
0.214519
0.173568
0.134115
0.092808
0.0686732
3
2.99995
2.99989
2.99965
2.99931
2.99793
2.99595
2.98835
2.97582
2.93472
2.84201
2.62745
2.06862
1.21537
0.514632
0.300389
0.341401
0.353821
0.324125
0.273845
0.226054
0.189022
0.155092
0.123158
0.108328
3
2.99995
2.9999
2.99966
2.99934
2.99802
2.99612
2.98889
2.97678
2.93763
2.84819
2.64231
2.09598
1.25614
0.536918
0.302336
0.347029
0.362302
0.334267
0.287298
0.244166
0.212328
0.184739
0.160995
0.151481
3
2.99996
2.9999
2.99968
2.99937
2.99812
2.99632
2.98945
2.97802
2.94081
2.85657
2.66039
2.14149
1.31718
0.571128
0.309259
0.357459
0.375983
0.349717
0.306425
0.267998
0.241447
0.219957
0.202522
0.19667
3
2.99996
2.99991
2.9997
2.99941
2.99823
2.99655
2.99002
2.97952
2.94432
2.86758
2.68275
2.20374
1.39999
0.616977
0.32259
0.373656
0.395754
0.371026
0.331879
0.297903
0.276193
0.26036
0.248904
0.246574
3
2.99996
2.99991
2.99972
2.99945
2.99834
2.99679
2.99055
2.98117
2.94763
2.882
2.70932
2.28154
1.50662
0.675939
0.347225
0.398481
0.422653
0.39902
0.363398
0.33406
0.317218
0.307047
0.301823
0.305078
3
2.99997
2.99992
2.99975
2.9995
2.9985
2.99709
2.99147
2.98302
2.95257
2.89567
2.73769
2.36417
1.63224
0.744793
0.386649
0.435166
0.457607
0.434827
0.402433
0.376739
0.364777
0.360856
0.364074
0.377667
3
2.99997
2.99993
2.99977
2.99955
2.99866
2.99739
2.99234
2.98481
2.95733
2.9072
2.7639
2.43219
1.74135
0.810078
0.426254
0.467926
0.487253
0.47054
0.445484
0.425547
0.419069
0.423048
0.439766
0.476915
3
2.99998
2.99994
2.99981
2.99961
2.99885
2.99775
2.99348
2.98674
2.96378
2.91651
2.79439
2.4823
1.85789
0.904131
0.4892
0.494134
0.505791
0.502957
0.487157
0.476577
0.477681
0.495438
0.539741
0.641581
3.00001
2.99997
2.9999
2.99965
2.9993
2.99786
2.9958
2.98786
2.9749
2.93193
2.83609
2.61342
2.04333
1.17813
0.493945
0.299249
0.336982
0.347266
0.316619
0.26357
0.21116
0.168695
0.127033
0.0803891
0.0461927
3.00001
2.99997
2.99991
2.99966
2.99931
2.99789
2.99586
2.98803
2.97521
2.93285
2.83801
2.61797
2.05131
1.18964
0.500189
0.299141
0.337898
0.348755
0.318247
0.265895
0.214823
0.173949
0.134615
0.093539
0.0696711
3.00002
2.99997
2.99991
2.99967
2.99933
2.99795
2.99597
2.98838
2.97585
2.93475
2.84205
2.62751
2.06869
1.21549
0.514769
0.300577
0.341578
0.353998
0.324321
0.274078
0.226339
0.189368
0.155518
0.123702
0.108953
3.00002
2.99997
2.99991
2.99968
2.99936
2.99804
2.99614
2.98891
2.9768
2.93767
2.84822
2.64237
2.09605
1.25626
0.537049
0.302523
0.347203
0.362475
0.334456
0.287519
0.244428
0.212632
0.185092
0.161404
0.15192
3.00002
2.99997
2.99992
2.9997
2.99939
2.99814
2.99634
2.98947
2.97805
2.94084
2.85661
2.66046
2.14156
1.3173
0.571253
0.309446
0.357631
0.376151
0.349898
0.306631
0.268235
0.241712
0.220249
0.202842
0.197002
3.00002
2.99998
2.99993
2.99972
2.99943
2.99825
2.99657
2.99005
2.97955
2.94437
2.86759
2.68281
2.20376
1.40009
0.617073
0.322753
0.37381
0.395906
0.371191
0.332065
0.298112
0.276421
0.260602
0.24916
0.246833
3.00002
2.99998
2.99993
2.99974
2.99947
2.99836
2.99681
2.99057
2.98119
2.94767
2.88202
2.70938
2.28157
1.50672
0.676025
0.347377
0.398622
0.422789
0.399168
0.363562
0.334241
0.317411
0.307248
0.302028
0.305281
3.00002
2.99998
2.99994
2.99977
2.99952
2.99852
2.99711
2.9915
2.98304
2.9526
2.8957
2.73774
2.36422
1.63234
0.744883
0.386797
0.4353
0.457733
0.434961
0.402579
0.376896
0.364941
0.361022
0.364239
0.377826
3.00002
2.99999
2.99995
2.99979
2.99957
2.99868
2.99741
2.99237
2.98483
2.95735
2.90723
2.76394
2.43222
1.74144
0.810153
0.426388
0.468046
0.487368
0.47066
0.445611
0.425682
0.419207
0.423185
0.439897
0.477034
3.00002
2.99999
2.99996
2.99983
2.99963
2.99887
2.99777
2.9935
2.98676
2.96382
2.91652
2.79443
2.48229
1.85797
0.904205
0.489323
0.49424
0.505896
0.503064
0.487271
0.476693
0.477798
0.49555
0.539842
0.641663
3.00002
3
2.99995
2.99988
2.9996
2.99919
2.9976
2.99521
2.98646
2.97126
2.92346
2.81323
2.56331
1.9511
1.06967
0.572818
0.518338
0.529044
0.535199
0.528976
0.527555
0.539553
0.57685
0.659551
0.8317
3.00002
3.00001
2.99996
2.9999
2.99965
2.9993
2.99788
2.99586
2.98798
2.97536
2.93299
2.84029
2.62231
2.06889
1.22527
0.659084
0.538318
0.552563
0.566474
0.569704
0.576713
0.600324
0.653763
0.753877
0.928839
3.00002
3.00001
2.99997
2.99992
2.99971
2.99941
2.99822
2.9965
2.98995
2.97913
2.94385
2.86471
2.67934
2.19209
1.4006
0.754947
0.56283
0.578809
0.598289
0.609467
0.624069
0.655883
0.716043
0.812685
0.959382
3.00002
3.00001
2.99998
2.99994
2.99976
2.9995
2.99848
2.99703
2.99125
2.98257
2.95138
2.89239
2.7323
2.34536
1.61659
0.869106
0.605722
0.615753
0.632637
0.650095
0.669773
0.70546
0.764449
0.849253
0.971079
3.00002
3.00001
2.99999
2.99995
2.99981
2.9996
2.99877
2.99758
2.99293
2.98579
2.96043
2.91402
2.77862
2.48363
1.8145
1.00262
0.670201
0.660026
0.672237
0.690209
0.711975
0.747252
0.804767
0.878376
0.979754
3.00002
3.00001
3
2.99995
2.99989
2.99961
2.99922
2.99768
2.99539
2.98699
2.97252
2.92709
2.82298
2.58871
2.00671
1.17341
0.750153
0.700187
0.712036
0.728539
0.750409
0.783406
0.835963
0.903378
0.989079
3.00002
3.00002
3.00001
2.99997
2.99991
2.99969
2.99938
2.99813
2.99632
2.98948
2.97814
2.94146
2.8591
2.66836
2.1682
1.38507
0.853615
0.729865
0.741355
0.759232
0.784727
0.816641
0.862833
0.924095
0.998384
3.00002
3.00002
3.00001
2.99998
2.99994
2.99976
2.99951
2.99851
2.99707
2.99145
2.9828
2.9524
2.89405
2.73579
2.36127
1.63321
0.987576
0.774911
0.77174
0.786871
0.814923
0.847862
0.889028
0.943403
1.00892
3.00002
3.00002
3.00001
3
2.99994
2.99987
2.99956
2.99911
2.99736
2.99475
2.9852
2.96878
2.91798
2.80325
2.53836
1.95296
1.16498
0.845337
0.813917
0.823369
0.846655
0.879174
0.914828
0.961401
1.01881
3.00003
3.00002
3.00002
3.00001
2.99997
2.99991
2.99967
2.99934
2.99804
2.9961
2.98904
2.9767
2.93873
2.85024
2.65185
2.13414
1.36079
0.929544
0.848409
0.856973
0.877118
0.907287
0.942369
0.98205
1.03073
3.00003
3.00002
3.00002
3.00001
2.99999
2.99992
2.99982
2.99943
2.99885
2.99677
2.99305
2.98175
2.95586
2.89279
2.72016
2.38292
1.61858
1.07124
0.894529
0.888599
0.90243
0.929598
0.964862
1.00313
1.04543
3.00003
3.00003
3.00002
3.00001
3
2.99995
2.99987
2.99956
2.99913
2.99739
2.99489
2.9853
2.96993
2.91983
2.81334
2.55577
1.99488
1.25226
0.966251
0.929025
0.935559
0.957486
0.989485
1.02446
1.06302
3.00003
3.00003
3.00002
3.00002
3
2.99998
2.99989
2.99976
2.99926
2.99852
2.99577
2.99125
2.97653
2.94571
2.86609
2.66053
2.25206
1.46302
1.05985
0.963424
0.964821
0.982849
1.01156
1.04434
1.0792
3.00003
3.00003
3.00003
3.00002
3.00001
2.99999
2.99993
2.99983
2.99946
2.99893
2.99685
2.99378
2.98257
2.96307
2.90427
2.76578
2.47131
1.80939
1.22267
1.01959
1.00124
1.0115
1.03528
1.06643
1.09836
3.00003
3.00003
3.00003
3.00002
3.00002
3
2.99997
2.99986
2.9997
2.99909
2.99818
2.99477
2.9894
2.97097
2.93701
2.83937
2.62864
2.12155
1.41633
1.099
1.03696
1.04016
1.05771
1.08584
1.11703
3.00003
3.00003
3.00003
3.00003
3.00002
3.00001
2.99999
2.99991
2.9998
2.99938
2.99876
2.99638
2.99284
2.98009
2.95768
2.89137
2.73622
2.40417
1.71309
1.23671
1.08686
1.07364
1.08271
1.10461
1.1348
3.00003
3.00003
3.00003
3.00003
3.00002
3.00002
3
2.99996
2.99984
2.99967
2.99899
2.99798
2.99426
2.98832
2.9684
2.93154
2.82511
2.60617
2.0621
1.42432
1.15929
1.11155
1.11321
1.12884
1.15338
3.00003
3.00003
3.00003
3.00003
3.00003
3.00002
3.00001
2.99999
2.9999
2.99979
2.99933
2.99867
2.99612
2.99236
2.97864
2.95519
2.88545
2.72794
2.37723
1.70178
1.28098
1.15467
1.14215
1.15008
1.16941
3.00003
3.00003
3.00003
3.00003
3.00003
3.00002
3.00002
3
2.99996
2.99984
2.99965
2.99897
2.99792
2.99417
2.98802
2.96795
2.93027
2.82232
2.60416
2.05074
1.47063
1.22494
1.18048
1.17756
1.19069
3.00003
3.00003
3.00003
3.00003
3.00003
3.00003
3.00002
3.00001
2.99998
2.99993
2.99974
2.99946
2.99842
2.99685
2.99132
2.9817
2.95268
2.88688
2.73964
2.35177
1.7216
1.32466
1.21897
1.20653
1.21325
3.00003
3.00003
3.00003
3.00003
3.00003
3.00003
3.00002
3.00002
2.99999
2.99996
2.99984
2.99966
2.99896
2.99795
2.99415
2.98831
2.96804
2.93242
2.82624
2.61536
2.08485
1.51677
1.28051
1.23963
1.23766
3.00003
3.00003
3.00003
3.00003
3.00003
3.00003
3.00003
3.00002
3.00001
2.99998
2.99993
2.99975
2.99948
2.99849
2.99699
2.99166
2.9826
2.95471
2.89305
2.75209
2.39037
1.77942
1.38349
1.27448
1.26296
3.00003
3.00003
3.00003
3.00003
3.00003
3.00003
3.00003
3.00002
3.00002
3
2.99997
2.99985
2.99968
2.99902
2.99808
2.9945
2.9891
2.97012
2.93756
2.83919
2.64544
2.15437
1.58221
1.33943
1.29398
3.00003
3.00003
3.00003
3.00003
3.00003
3.00003
3.00003
3.00003
3.00002
3.00001
2.99999
2.99992
2.99981
2.99941
2.99883
2.99659
2.99336
2.98137
2.96196
2.90196
2.77368
2.48271
1.88702
1.47256
1.33569
3.00003
3.00003
3.00003
3.00003
3.00003
3.00003
3.00003
3.00003
3.00002
3.00002
3.00001
2.99996
2.9999
2.99965
2.9993
2.99796
2.99602
2.98875
2.9775
2.94036
2.86661
2.68758
2.26897
1.6794
1.41454
3.00003
3.00003
3.00003
3.00003
3.00003
3.00003
3.00003
3.00003
3.00003
3.00002
3.00001
3
2.99994
2.99984
2.99951
2.99902
2.99721
2.99442
2.98486
2.96808
2.91903
2.80968
2.56713
2.04569
1.57254
3.00003
3.00003
3.00003
3.00003
3.00003
3.00003
3.00003
3.00003
3.00003
3.00002
3.00002
3.00001
2.99998
2.9999
2.99977
2.9993
2.99858
2.99604
2.99196
2.97852
2.95399
2.88372
2.73976
2.36916
1.82405
3.00003
3.00003
3.00003
3.00003
3.00003
3.00003
3.00003
3.00003
3.00003
3.00003
3.00002
3.00002
3
2.99996
2.99984
2.99967
2.99902
2.99804
2.99456
2.98896
2.97079
2.93708
2.84423
2.65064
2.18595
3.00003
3.00003
3.00003
3.00003
3.00003
3.00003
3.00003
3.00003
3.00003
3.00003
3.00003
3.00002
3.00001
2.99999
2.99992
2.99981
2.99942
2.99884
2.99669
2.99352
2.98201
2.9636
2.90532
2.79085
2.5045
3.00003
3.00003
3.00003
3.00003
3.00003
3.00003
3.00003
3.00003
3.00003
3.00003
3.00003
3.00002
3.00002
3
2.99997
2.99987
2.99972
2.99916
2.99831
2.9953
2.99044
2.9745
2.94552
2.86203
2.6948
3.00003
3.00003
3.00003
3.00003
3.00003
3.00003
3.00003
3.00003
3.00003
3.00003
3.00003
3.00003
3.00002
3.00001
2.99998
2.99994
2.99978
2.99953
2.99861
2.99722
2.99214
2.98399
2.95687
2.90423
2.76506
3.00003
3.00003
3.00003
3.00003
3.00003
3.00003
3.00003
3.00003
3.00003
3.00003
3.00003
3.00003
3.00002
3.00001
3
2.99994
2.99986
2.99954
2.99907
2.99722
2.99446
2.98426
2.96661
2.91179
2.78567
3.00003
3.00003
3.00003
3.00003
3.00003
3.00003
3.00003
3.00003
3.00003
3.00003
3.00003
3.00003
3.00003
3.00002
3
2.99996
2.99989
2.9996
2.99919
2.99754
2.99504
2.9858
2.96934
2.91747
2.79514
3.00003
3.00003
3.00003
3.00003
3.00003
3.00003
3.00003
3.00003
3.00003
3.00003
3.00003
3.00003
3.00002
3.00002
3
2.99998
2.99988
2.99972
2.99914
2.99814
2.99484
2.98779
2.96841
2.91881
2.80559
3.00003
3.00003
3.00003
3.00003
3.00003
3.00003
3.00003
3.00003
3.00003
3.00003
3.00003
3.00003
3.00003
3.00002
3.00001
2.99996
2.9999
2.99965
2.99926
2.99785
2.9953
2.98723
2.96916
2.92139
2.79517
3.00003
3.00003
3.00003
3.00003
3.00003
3.00003
3.00003
3.00003
3.00003
3.00003
3.00003
3.00003
3.00003
3.00002
3
2.99998
2.99988
2.99974
2.99918
2.9982
2.99502
2.98794
2.96894
2.91952
2.80756
3.00003
3.00003
3.00003
3.00003
3.00003
3.00003
3.00003
3.00003
3.00003
3.00003
3.00003
3.00003
3.00003
3.00002
3.00001
2.99996
2.9999
2.99963
2.99925
2.9977
2.99531
2.98655
2.97025
2.92019
2.79769
3.00003
3.00003
3.00003
3.00003
3.00003
3.00003
3.00003
3.00003
3.00003
3.00003
3.00003
3.00003
3.00003
3.00002
3.00001
2.99996
2.9999
2.99963
2.99925
2.9977
2.99532
2.98665
2.97014
2.92043
2.79714
3.00003
3.00003
3.00003
3.00003
3.00003
3.00003
3.00003
3.00003
3.00003
3.00003
3.00003
3.00003
3.00002
3.00002
3
2.99998
2.99987
2.99971
2.99908
2.99812
2.99461
2.98812
2.96802
2.91991
2.80492
3.00003
3.00003
3.00003
3.00003
3.00003
3.00003
3.00003
3.00003
3.00003
3.00003
3.00003
3.00003
3.00002
3.00002
3
2.99997
2.99986
2.99969
2.99901
2.99804
2.99405
2.98797
2.96587
2.92155
2.80168
3
2.99999
2.99994
2.99986
2.99958
2.99918
2.99758
2.99519
2.98643
2.97123
2.92343
2.81318
2.56325
1.95105
1.06958
0.572706
0.518238
0.528947
0.535102
0.528876
0.527453
0.539453
0.576759
0.659475
0.831649
3
2.99999
2.99994
2.99988
2.99963
2.99928
2.99786
2.99584
2.98795
2.97534
2.93295
2.84027
2.62226
2.06886
1.22518
0.658987
0.538222
0.552471
0.566383
0.569614
0.576624
0.600238
0.653686
0.753814
0.928794
3
2.99999
2.99995
2.9999
2.99969
2.99939
2.9982
2.99648
2.98993
2.97911
2.94381
2.86468
2.67929
2.19204
1.4005
0.754857
0.562734
0.578717
0.598204
0.609384
0.623989
0.655808
0.715976
0.812629
0.959338
3
2.99999
2.99996
2.99992
2.99974
2.99948
2.99846
2.99701
2.99123
2.98255
2.95136
2.89236
2.73225
2.34531
1.6165
0.869025
0.605627
0.615663
0.632554
0.650018
0.669701
0.705391
0.764387
0.8492