/*--------------------------------*- C++ -*----------------------------------*\
| =========                 |                                                 |
| \\      /  F ield         | OpenFOAM: The Open Source CFD Toolbox           |
|  \\    /   O peration     | Version:  4.1                                   |
|   \\  /    A nd           | Web:      www.OpenFOAM.org                      |
|    \\/     M anipulation  |                                                 |
\*---------------------------------------------------------------------------*/
FoamFile
{
    version     2.0;
    format      ascii;
    class       volScalarField;
    location    "0.74";
    object      Ma;
}
// * * * * * * * * * * * * * * * * * * * * * * * * * * * * * * * * * * * * * //

dimensions      [0 0 0 0 0 0 0];

internalField   nonuniform List<scalar> 
52500
(
3.74433
1.64259
0.356851
0.0220082
0.299452
0.301603
0.235598
0.234168
0.280994
0.296854
0.305432
0.325926
0.342747
0.350727
0.346651
0.327958
0.302958
0.275644
0.250482
0.219245
0.187625
0.155191
0.127443
0.0766662
0.0470523
3.73321
1.65959
0.365279
0.0445571
0.297927
0.302429
0.237584
0.235185
0.280949
0.296933
0.306223
0.32717
0.344576
0.353232
0.349871
0.33154
0.306816
0.279677
0.254868
0.22455
0.194045
0.163168
0.137366
0.0920866
0.0699063
3.70589
1.69611
0.384152
0.0730489
0.296732
0.306357
0.244392
0.241366
0.285717
0.302004
0.311887
0.332521
0.35007
0.359036
0.356335
0.338637
0.314858
0.288674
0.265058
0.236952
0.20916
0.181856
0.160415
0.124889
0.110359
3.66371
1.74853
0.411753
0.103611
0.294544
0.312826
0.254836
0.25044
0.292347
0.309205
0.319744
0.339879
0.357371
0.366746
0.365137
0.348613
0.32622
0.301486
0.279596
0.254598
0.230551
0.207871
0.191711
0.164628
0.154735
3.60919
1.81116
0.447639
0.136401
0.291017
0.321407
0.267796
0.261602
0.30056
0.318819
0.32982
0.349124
0.366776
0.376499
0.37598
0.361071
0.340464
0.317657
0.297844
0.27667
0.257145
0.239501
0.228471
0.208121
0.201798
3.54453
1.88025
0.492429
0.171641
0.285648
0.33167
0.282663
0.27462
0.310167
0.330761
0.341764
0.360219
0.378003
0.38791
0.388579
0.375896
0.357406
0.336909
0.319554
0.302965
0.288489
0.276118
0.270361
0.25628
0.253778
3.47459
1.95637
0.549183
0.209793
0.278501
0.342791
0.298885
0.28948
0.321287
0.344775
0.355432
0.372851
0.390652
0.400778
0.402942
0.39303
0.376705
0.358818
0.344503
0.333037
0.323884
0.31738
0.317473
0.310256
0.313446
3.40349
2.03924
0.622828
0.25218
0.270791
0.353758
0.316491
0.306471
0.334262
0.360319
0.370267
0.386631
0.404509
0.415055
0.418913
0.412085
0.398013
0.382935
0.372315
0.3663
0.362984
0.363001
0.370429
0.37235
0.386448
3.33298
2.12842
0.718817
0.300176
0.265244
0.363493
0.33587
0.325916
0.349611
0.377005
0.386021
0.401092
0.419301
0.430689
0.436262
0.43287
0.420895
0.408867
0.402461
0.401977
0.405235
0.412949
0.430163
0.445311
0.483597
3.26226
2.22022
0.846986
0.354812
0.265281
0.371174
0.357479
0.348025
0.367783
0.394297
0.402133
0.415642
0.43494
0.447699
0.454845
0.454699
0.445034
0.436492
0.434415
0.439536
0.450167
0.467472
0.498156
0.539116
0.641407
3.74445
1.6424
0.356709
0.020719
0.299336
0.301482
0.235444
0.233958
0.280749
0.296635
0.305273
0.325828
0.342706
0.350715
0.346644
0.32793
0.302896
0.275552
0.250359
0.219076
0.187415
0.154939
0.127171
0.0763054
0.0465464
3.73325
1.65946
0.365166
0.043911
0.297926
0.302428
0.237614
0.235269
0.281091
0.297122
0.306445
0.327428
0.344818
0.353393
0.349957
0.33155
0.306772
0.279593
0.25475
0.224387
0.193844
0.16293
0.137115
0.0917872
0.0695767
3.70595
1.69598
0.384031
0.0726189
0.296684
0.306339
0.24439
0.241354
0.285724
0.302033
0.311903
0.332573
0.35012
0.359065
0.356336
0.338599
0.314781
0.28857
0.264934
0.236792
0.208972
0.181643
0.160203
0.124672
0.110161
3.66384
1.7484
0.411643
0.103292
0.294466
0.312764
0.254766
0.250343
0.292247
0.309107
0.319628
0.339783
0.357276
0.366638
0.365008
0.34847
0.326075
0.301347
0.279458
0.254436
0.230374
0.207685
0.191539
0.164468
0.1546
3.60933
1.81105
0.447545
0.136164
0.290932
0.321311
0.267683
0.261465
0.300421
0.318657
0.329661
0.348952
0.366563
0.376271
0.375743
0.360823
0.340242
0.31747
0.297685
0.276509
0.256981
0.23934
0.228329
0.207996
0.201698
3.54466
1.88016
0.492348
0.171461
0.285566
0.33157
0.282543
0.274487
0.310029
0.330579
0.341567
0.360006
0.377745
0.387633
0.388288
0.375603
0.357157
0.336702
0.319389
0.302804
0.288335
0.275977
0.270241
0.256177
0.253698
3.47471
1.95629
0.549108
0.209651
0.278425
0.342699
0.298776
0.289369
0.321177
0.344617
0.355273
0.372679
0.390404
0.400494
0.402628
0.392697
0.376453
0.358617
0.344344
0.332884
0.323743
0.317253
0.317367
0.310169
0.313381
3.40359
2.03917
0.622757
0.252065
0.270721
0.353675
0.316395
0.306385
0.334186
0.360193
0.370153
0.386525
0.404308
0.414803
0.41863
0.411776
0.397776
0.382746
0.372165
0.366163
0.362854
0.362883
0.370334
0.372275
0.386393
3.33307
2.12837
0.718747
0.300086
0.265179
0.363415
0.335783
0.325852
0.349567
0.376913
0.38594
0.401052
0.41916
0.430494
0.436033
0.432618
0.420692
0.408698
0.402325
0.401851
0.405114
0.412841
0.430078
0.445244
0.48355
3.26233
2.22018
0.846908
0.354751
0.26522
0.371097
0.357399
0.347978
0.367765
0.394244
0.40211
0.415652
0.434849
0.447565
0.454677
0.454516
0.444869
0.436347
0.434293
0.439421
0.450059
0.467374
0.498078
0.539059
0.641367
3.7444
1.64252
0.356769
0.0206531
0.29935
0.301498
0.235459
0.234
0.280805
0.296655
0.305234
0.325716
0.342534
0.350526
0.346455
0.327789
0.302801
0.275493
0.250331
0.219075
0.187446
0.154995
0.127235
0.0763483
0.0465584
3.73327
1.65953
0.365206
0.0439042
0.297854
0.302359
0.237502
0.235107
0.280884
0.296873
0.306166
0.327097
0.344486
0.35313
0.349751
0.33142
0.306689
0.279542
0.254724
0.224385
0.193873
0.162983
0.137174
0.0918216
0.0695824
3.70594
1.69606
0.384084
0.0726451
0.296654
0.306293
0.244325
0.241297
0.285664
0.301967
0.311853
0.332484
0.35002
0.358966
0.356242
0.338528
0.314736
0.288542
0.264921
0.236797
0.209003
0.181693
0.160254
0.124697
0.110162
3.66378
1.74848
0.411694
0.103322
0.294462
0.312759
0.254767
0.250368
0.29229
0.309168
0.319708
0.339852
0.35734
0.366699
0.365066
0.348527
0.326116
0.301368
0.279469
0.254456
0.230411
0.207733
0.191583
0.164486
0.154598
3.60927
1.81112
0.44759
0.136182
0.290935
0.321334
0.267724
0.261526
0.300503
0.318786
0.329808
0.349107
0.366743
0.376452
0.375912
0.360976
0.340347
0.317534
0.297717
0.27654
0.257023
0.239387
0.228368
0.208011
0.201694
3.54459
1.88022
0.492388
0.171469
0.285567
0.331598
0.282591
0.274544
0.310103
0.330723
0.341717
0.360176
0.377976
0.387867
0.388511
0.375802
0.357286
0.336784
0.31943
0.302847
0.288384
0.276023
0.270277
0.256191
0.253694
3.47465
1.95634
0.549148
0.209655
0.27842
0.342721
0.298813
0.289404
0.321223
0.344734
0.355389
0.372813
0.390616
0.400724
0.402863
0.392925
0.376592
0.358701
0.344387
0.332931
0.323793
0.3173
0.317403
0.310183
0.313378
3.40354
2.03921
0.622797
0.252067
0.27071
0.353689
0.316418
0.306396
0.334198
0.360264
0.370219
0.386606
0.404467
0.414993
0.418832
0.411972
0.397897
0.382822
0.37221
0.366208
0.362904
0.362931
0.37037
0.372289
0.386392
3.33302
2.1284
0.718788
0.300088
0.265162
0.363422
0.335795
0.325844
0.34955
0.376935
0.385957
0.401078
0.419265
0.430629
0.436186
0.432771
0.420789
0.408759
0.402365
0.401894
0.405164
0.412888
0.430114
0.445261
0.483552
3.26229
2.22021
0.846955
0.354749
0.2652
0.371099
0.357404
0.347959
0.367729
0.394226
0.402081
0.415643
0.434908
0.447646
0.454775
0.454613
0.444938
0.436394
0.434327
0.439462
0.450107
0.467419
0.498113
0.539078
0.641372
3.74443
1.6425
0.356767
0.0206583
0.299351
0.301496
0.235454
0.233991
0.280792
0.296643
0.305225
0.325712
0.342529
0.350516
0.346433
0.327755
0.302758
0.275449
0.250291
0.219039
0.187423
0.154977
0.127218
0.0763384
0.0465555
3.73329
1.65951
0.365206
0.0439081
0.297861
0.302363
0.237507
0.235114
0.280892
0.296882
0.306177
0.327112
0.344498
0.353128
0.349733
0.331386
0.306646
0.279498
0.254685
0.22435
0.193851
0.162966
0.13716
0.0918157
0.0695849
3.70596
1.69605
0.384085
0.0726504
0.296659
0.306297
0.24433
0.241305
0.285675
0.301981
0.311868
0.332505
0.350036
0.358972
0.356231
0.338503
0.314698
0.288501
0.264883
0.236763
0.208983
0.181679
0.160244
0.124696
0.110169
3.6638
1.74847
0.411698
0.103329
0.294467
0.312762
0.254771
0.250372
0.292294
0.309173
0.319705
0.339852
0.357334
0.366673
0.365024
0.348469
0.326056
0.301317
0.279426
0.254422
0.230391
0.207721
0.191577
0.164489
0.154607
3.60928
1.81112
0.447598
0.136192
0.290938
0.321333
0.267721
0.26152
0.300495
0.318769
0.329778
0.349069
0.366691
0.376381
0.375832
0.360889
0.340269
0.31747
0.29767
0.276506
0.257004
0.239376
0.228365
0.208016
0.201703
3.5446
1.88023
0.492401
0.171483
0.285569
0.331594
0.282581
0.274531
0.310087
0.330685
0.341675
0.360125
0.377889
0.387769
0.388412
0.375709
0.357213
0.336723
0.319385
0.302813
0.288364
0.276014
0.270277
0.256196
0.253703
3.47465
1.95636
0.549167
0.209674
0.278422
0.342716
0.298803
0.289392
0.321207
0.344696
0.355354
0.372772
0.390535
0.400631
0.402767
0.392825
0.376524
0.358647
0.344351
0.3329
0.323774
0.317292
0.317403
0.310187
0.313386
3.40353
2.03924
0.622824
0.252092
0.270716
0.353686
0.316412
0.306391
0.334192
0.360242
0.370204
0.386582
0.40441
0.414927
0.418766
0.411907
0.397847
0.382779
0.37218
0.366182
0.362888
0.362923
0.37037
0.372293
0.386398
3.33301
2.12843
0.718826
0.300118
0.265177
0.363422
0.335794
0.325848
0.349557
0.376935
0.38596
0.401067
0.419231
0.430596
0.436151
0.432739
0.420759
0.408729
0.40234
0.401871
0.405149
0.412881
0.430113
0.445262
0.483556
3.26227
2.22024
0.847011
0.354787
0.265224
0.3711
0.357407
0.34797
0.367746
0.394242
0.402098
0.415639
0.434892
0.44764
0.45477
0.454612
0.444926
0.436374
0.434307
0.43944
0.450092
0.467413
0.498112
0.539078
0.641373
3.74429
1.64271
0.35685
0.0206356
0.299328
0.301505
0.235465
0.233991
0.280787
0.29664
0.305221
0.325709
0.342529
0.350516
0.346435
0.327755
0.30276
0.275456
0.250304
0.219064
0.187454
0.155012
0.127246
0.0763514
0.0465519
3.73316
1.65972
0.36529
0.0439005
0.297833
0.302366
0.237513
0.235108
0.28088
0.296871
0.306164
0.3271
0.344487
0.35312
0.349728
0.331383
0.306647
0.279505
0.2547
0.224376
0.193883
0.163002
0.137189
0.0918318
0.0695817
3.70583
1.69624
0.384168
0.0726536
0.296628
0.306299
0.244335
0.241299
0.285662
0.301967
0.311854
0.33249
0.350022
0.358961
0.356225
0.338501
0.314701
0.288509
0.264897
0.236787
0.209011
0.18171
0.160268
0.12471
0.110165
3.66366
1.74866
0.41178
0.103338
0.294433
0.312762
0.254774
0.250368
0.292283
0.309161
0.319696
0.339837
0.357314
0.366657
0.365013
0.348467
0.326061
0.301325
0.27944
0.254443
0.230415
0.207745
0.191595
0.164501
0.154603
3.60914
1.81129
0.44768
0.136203
0.290902
0.321335
0.267726
0.261519
0.300484
0.318758
0.32975
0.349048
0.366683
0.376374
0.375827
0.360892
0.340278
0.317481
0.297683
0.276523
0.257022
0.239394
0.228378
0.208025
0.2017
3.54447
1.88037
0.492484
0.171496
0.285527
0.331594
0.282586
0.274531
0.310083
0.330683
0.341679
0.36012
0.377868
0.387749
0.388403
0.375711
0.357223
0.336734
0.319398
0.302826
0.288376
0.276025
0.270285
0.256203
0.2537
3.47454
1.95649
0.54926
0.209687
0.278377
0.342714
0.298808
0.289395
0.321208
0.344694
0.355353
0.372765
0.390515
0.400613
0.40276
0.392828
0.376533
0.358659
0.344363
0.332911
0.323783
0.3173
0.31741
0.310191
0.313382
3.40344
2.03936
0.62293
0.252107
0.27067
0.353681
0.316419
0.306397
0.334196
0.360253
0.370207
0.386569
0.404403
0.414922
0.418767
0.411917
0.397861
0.382792
0.372192
0.366191
0.362895
0.362931
0.370375
0.372293
0.386393
3.33293
2.12854
0.718947
0.300134
0.265133
0.363414
0.335803
0.325856
0.349564
0.376962
0.385985
0.401053
0.419228
0.430602
0.436159
0.432753
0.420776
0.408745
0.402353
0.40188
0.405155
0.412888
0.430116
0.445262
0.483551
3.26221
2.22033
0.847154
0.3548
0.265183
0.37109
0.357418
0.347979
0.367755
0.394275
0.402122
0.415617
0.434894
0.447652
0.454783
0.454629
0.444944
0.436391
0.43432
0.439449
0.450098
0.467419
0.498115
0.539074
0.641368
3.74434
1.64264
0.356827
0.0206425
0.299337
0.301506
0.235465
0.233989
0.280783
0.296635
0.305218
0.325704
0.34252
0.350507
0.346423
0.327741
0.302744
0.27544
0.25029
0.219047
0.187439
0.154998
0.127236
0.0763467
0.0465576
3.7332
1.65965
0.365267
0.0439027
0.297846
0.302371
0.237518
0.235114
0.280885
0.296878
0.306172
0.327105
0.344489
0.353119
0.349723
0.331374
0.306634
0.27949
0.254684
0.224358
0.193866
0.162985
0.137176
0.091822
0.0695849
3.70587
1.69618
0.384145
0.0726519
0.296641
0.306304
0.244341
0.241305
0.285669
0.301975
0.311862
0.332497
0.350026
0.358962
0.356222
0.338493
0.31469
0.288496
0.264883
0.236771
0.208996
0.181695
0.160256
0.124699
0.110167
3.66371
1.7486
0.411757
0.103335
0.294446
0.312767
0.254779
0.250373
0.292288
0.309167
0.319703
0.339843
0.357317
0.366657
0.365011
0.348461
0.326051
0.301313
0.279428
0.254429
0.230402
0.207733
0.191585
0.16449
0.154603
3.60919
1.81124
0.447657
0.136199
0.290916
0.321339
0.267729
0.261522
0.300487
0.318763
0.329756
0.349052
0.366685
0.376373
0.375825
0.360887
0.340269
0.317471
0.297673
0.276512
0.257012
0.239385
0.22837
0.208015
0.201699
3.54452
1.88033
0.49246
0.171491
0.285543
0.331597
0.282589
0.274533
0.310086
0.330686
0.341683
0.360123
0.377869
0.387748
0.3884
0.375705
0.357215
0.336726
0.319389
0.302817
0.288369
0.276019
0.270279
0.256194
0.253697
3.47458
1.95645
0.549232
0.209681
0.278394
0.342718
0.29881
0.289397
0.32121
0.344696
0.355356
0.372768
0.390515
0.400611
0.402757
0.392824
0.376527
0.358652
0.344355
0.332903
0.323777
0.317295
0.317404
0.310185
0.31338
3.40347
2.03932
0.622896
0.2521
0.270686
0.353685
0.316421
0.306398
0.334198
0.360255
0.370209
0.386571
0.404402
0.41492
0.418764
0.411912
0.397856
0.382786
0.372184
0.366185
0.36289
0.362926
0.370371
0.37229
0.386392
3.33296
2.12851
0.718906
0.300126
0.265148
0.363419
0.335804
0.325857
0.349565
0.376963
0.385987
0.401055
0.419228
0.4306
0.436158
0.43275
0.420771
0.408738
0.402345
0.401873
0.40515
0.412883
0.430114
0.445261
0.483552
3.26223
2.2203
0.847103
0.354792
0.265196
0.371095
0.357417
0.347978
0.367756
0.394277
0.402125
0.41562
0.434894
0.447651
0.454782
0.454627
0.44494
0.436384
0.434312
0.439442
0.450094
0.467414
0.498113
0.539077
0.641369
3.74443
1.6425
0.356766
0.0206583
0.299351
0.301496
0.235454
0.233992
0.280793
0.296643
0.305225
0.325712
0.342529
0.350516
0.346433
0.327755
0.302758
0.275449
0.250291
0.219039
0.187423
0.154977
0.127218
0.0763383
0.0465555
3.73329
1.65951
0.365206
0.0439081
0.297861
0.302363
0.237507
0.235114
0.280892
0.296882
0.306177
0.327112
0.344498
0.353128
0.349733
0.331386
0.306646
0.279497
0.254685
0.22435
0.193851
0.162966
0.13716
0.0918157
0.0695849
3.70596
1.69605
0.384085
0.0726503
0.296659
0.306297
0.24433
0.241305
0.285675
0.301981
0.311868
0.332505
0.350036
0.358972
0.356231
0.338503
0.314698
0.288501
0.264882
0.236763
0.208983
0.181679
0.160244
0.124696
0.110169
3.6638
1.74847
0.411698
0.103329
0.294467
0.312762
0.254771
0.250373
0.292294
0.309173
0.319705
0.339852
0.357334
0.366673
0.365024
0.348469
0.326056
0.301316
0.279426
0.254421
0.230391
0.207721
0.191577
0.164489
0.154607
3.60928
1.81112
0.447598
0.136191
0.290938
0.321333
0.267721
0.26152
0.300495
0.318769
0.329778
0.349069
0.366691
0.376381
0.375832
0.360889
0.340269
0.31747
0.29767
0.276506
0.257004
0.239376
0.228365
0.208016
0.201703
3.5446
1.88023
0.492401
0.171483
0.285569
0.331594
0.282581
0.274531
0.310087
0.330685
0.341675
0.360125
0.377889
0.387769
0.388412
0.375709
0.357213
0.336723
0.319385
0.302813
0.288364
0.276014
0.270277
0.256196
0.253703
3.47465
1.95636
0.549167
0.209674
0.278423
0.342716
0.298803
0.289392
0.321208
0.344696
0.355354
0.372772
0.390535
0.400631
0.402767
0.392825
0.376524
0.358647
0.344351
0.3329
0.323774
0.317292
0.317403
0.310187
0.313386
3.40353
2.03924
0.622823
0.252091
0.270716
0.353686
0.316412
0.306391
0.334192
0.360242
0.370204
0.386582
0.40441
0.414927
0.418766
0.411907
0.397847
0.382778
0.372179
0.366182
0.362887
0.362923
0.37037
0.372293
0.386398
3.33301
2.12843
0.718825
0.300118
0.265177
0.363422
0.335794
0.325848
0.349557
0.376935
0.385961
0.401067
0.419231
0.430596
0.436151
0.432739
0.420759
0.408729
0.40234
0.401871
0.405149
0.412881
0.430113
0.445262
0.483557
3.26227
2.22024
0.84701
0.354787
0.265224
0.3711
0.357407
0.34797
0.367746
0.394242
0.402099
0.41564
0.434892
0.44764
0.45477
0.454612
0.444926
0.436374
0.434307
0.43944
0.450092
0.467412
0.498112
0.539078
0.641373
3.7444
1.64252
0.356769
0.0206531
0.29935
0.301498
0.235459
0.234
0.280805
0.296655
0.305234
0.325716
0.342534
0.350526
0.346455
0.327789
0.302801
0.275493
0.250331
0.219075
0.187446
0.154995
0.127235
0.0763482
0.0465584
3.73327
1.65953
0.365206
0.0439042
0.297854
0.302359
0.237502
0.235107
0.280884
0.296873
0.306166
0.327097
0.344486
0.35313
0.349751
0.33142
0.306689
0.279542
0.254724
0.224385
0.193873
0.162983
0.137174
0.0918216
0.0695824
3.70594
1.69606
0.384084
0.0726451
0.296654
0.306293
0.244325
0.241297
0.285664
0.301967
0.311853
0.332484
0.35002
0.358966
0.356242
0.338528
0.314736
0.288542
0.264921
0.236797
0.209003
0.181693
0.160254
0.124697
0.110162
3.66378
1.74848
0.411694
0.103322
0.294462
0.312759
0.254767
0.250368
0.29229
0.309168
0.319708
0.339852
0.35734
0.366699
0.365066
0.348527
0.326116
0.301368
0.279469
0.254456
0.230411
0.207733
0.191583
0.164486
0.154598
3.60927
1.81112
0.44759
0.136182
0.290935
0.321334
0.267724
0.261526
0.300503
0.318786
0.329808
0.349107
0.366743
0.376452
0.375912
0.360976
0.340347
0.317534
0.297717
0.27654
0.257023
0.239387
0.228368
0.208011
0.201694
3.54459
1.88022
0.492388
0.171469
0.285568
0.331598
0.282591
0.274544
0.310103
0.330723
0.341717
0.360176
0.377976
0.387867
0.388511
0.375802
0.357286
0.336784
0.31943
0.302847
0.288384
0.276023
0.270277
0.256191
0.253694
3.47465
1.95634
0.549148
0.209655
0.27842
0.342721
0.298813
0.289404
0.321223
0.344734
0.355389
0.372813
0.390616
0.400724
0.402863
0.392925
0.376592
0.358701
0.344388
0.332931
0.323793
0.3173
0.317403
0.310183
0.313378
3.40354
2.03921
0.622797
0.252067
0.27071
0.353689
0.316418
0.306396
0.334198
0.360264
0.370219
0.386606
0.404467
0.414993
0.418832
0.411972
0.397897
0.382822
0.37221
0.366208
0.362904
0.362931
0.37037
0.372289
0.386392
3.33302
2.1284
0.718788
0.300088
0.265162
0.363422
0.335795
0.325844
0.34955
0.376935
0.385957
0.401078
0.419265
0.430629
0.436186
0.432771
0.420789
0.408759
0.402365
0.401894
0.405164
0.412888
0.430114
0.445261
0.483552
3.26229
2.22021
0.846955
0.354749
0.2652
0.371099
0.357404
0.347959
0.367729
0.394226
0.402081
0.415643
0.434908
0.447646
0.454775
0.454613
0.444938
0.436394
0.434327
0.439462
0.450107
0.467419
0.498113
0.539078
0.641372
3.74445
1.6424
0.356708
0.020719
0.299337
0.301482
0.235444
0.233958
0.280749
0.296635
0.305274
0.325828
0.342706
0.350715
0.346645
0.327931
0.302896
0.275553
0.250359
0.219077
0.187416
0.154939
0.127171
0.0763054
0.0465464
3.73325
1.65945
0.365165
0.043911
0.297926
0.302428
0.237614
0.235269
0.281091
0.297122
0.306446
0.327428
0.344818
0.353393
0.349957
0.33155
0.306772
0.279594
0.254751
0.224387
0.193845
0.16293
0.137115
0.0917871
0.0695767
3.70595
1.69598
0.384031
0.072619
0.296684
0.306339
0.24439
0.241354
0.285724
0.302033
0.311903
0.332573
0.35012
0.359066
0.356337
0.338599
0.314782
0.28857
0.264935
0.236792
0.208972
0.181643
0.160203
0.124672
0.110161
3.66384
1.74839
0.411642
0.103292
0.294466
0.312764
0.254766
0.250343
0.292247
0.309107
0.319628
0.339783
0.357276
0.366638
0.365008
0.34847
0.326075
0.301348
0.279459
0.254437
0.230375
0.207685
0.191539
0.164468
0.1546
3.60933
1.81105
0.447544
0.136164
0.290932
0.321311
0.267683
0.261465
0.300421
0.318657
0.329661
0.348952
0.366563
0.376271
0.375743
0.360824
0.340242
0.31747
0.297685
0.276509
0.256981
0.23934
0.228329
0.207996
0.201698
3.54466
1.88016
0.492348
0.171462
0.285567
0.33157
0.282543
0.274487
0.310029
0.330579
0.341567
0.360006
0.377745
0.387634
0.388289
0.375603
0.357157
0.336702
0.319389
0.302805
0.288336
0.275977
0.270241
0.256177
0.253698
3.47471
1.95629
0.549108
0.209652
0.278425
0.342699
0.298776
0.289369
0.321177
0.344617
0.355274
0.37268
0.390404
0.400494
0.402629
0.392698
0.376453
0.358617
0.344345
0.332884
0.323743
0.317253
0.317367
0.310169
0.313381
3.40359
2.03917
0.622757
0.252066
0.270721
0.353675
0.316395
0.306385
0.334186
0.360193
0.370153
0.386526
0.404308
0.414803
0.418631
0.411776
0.397776
0.382747
0.372166
0.366163
0.362854
0.362883
0.370334
0.372275
0.386393
3.33307
2.12837
0.718748
0.300087
0.26518
0.363415
0.335783
0.325852
0.349567
0.376913
0.38594
0.401053
0.419161
0.430494
0.436034
0.432618
0.420693
0.408699
0.402325
0.401851
0.405115
0.412841
0.430078
0.445244
0.48355
3.26233
2.22018
0.846909
0.354751
0.26522
0.371097
0.357399
0.347978
0.367765
0.394243
0.40211
0.415652
0.434849
0.447565
0.454677
0.454516
0.44487
0.436347
0.434293
0.439421
0.450059
0.467374
0.498078
0.539059
0.641367
3.74443
1.64237
0.356756
0.0220444
0.299465
0.301575
0.235533
0.234077
0.280845
0.296664
0.305238
0.325724
0.342579
0.350618
0.34659
0.32794
0.302958
0.275654
0.250494
0.219249
0.187613
0.155161
0.127409
0.0766234
0.0470675
3.7333
1.65938
0.365188
0.0445835
0.297963
0.302438
0.237593
0.235215
0.280985
0.296974
0.306285
0.327231
0.344665
0.353339
0.349975
0.331627
0.30688
0.279724
0.254902
0.22457
0.19405
0.163159
0.137353
0.0920607
0.0699122
3.70596
1.69593
0.384067
0.0730593
0.296781
0.306392
0.244451
0.241465
0.285851
0.302182
0.312102
0.332776
0.350333
0.359256
0.356506
0.338754
0.314938
0.288732
0.265099
0.236979
0.209173
0.181856
0.160409
0.124869
0.110358
3.6638
1.74837
0.411674
0.103605
0.294592
0.312862
0.25489
0.250516
0.292447
0.309342
0.319869
0.340046
0.35756
0.366883
0.365225
0.348662
0.326259
0.301525
0.279627
0.254624
0.230566
0.207874
0.191707
0.164612
0.154728
3.60929
1.81102
0.447567
0.136389
0.291053
0.321418
0.26781
0.261613
0.30058
0.318854
0.32984
0.349155
0.366807
0.376498
0.375969
0.361046
0.340445
0.317656
0.297852
0.276688
0.257156
0.239504
0.228467
0.208109
0.201792
3.54462
1.88014
0.492362
0.171633
0.285676
0.331662
0.282642
0.274579
0.310125
0.330703
0.341713
0.36017
0.377903
0.387803
0.388481
0.375815
0.357381
0.336903
0.319568
0.302976
0.288493
0.276119
0.270357
0.256271
0.253773
3.47467
1.95627
0.549117
0.209793
0.278527
0.342776
0.298851
0.289423
0.321224
0.344681
0.355366
0.372791
0.39053
0.400653
0.402828
0.392929
0.376682
0.358819
0.344522
0.333044
0.323885
0.317378
0.317469
0.31025
0.313442
3.40354
2.03915
0.622759
0.252185
0.27082
0.353745
0.316457
0.306422
0.334209
0.360241
0.370221
0.38658
0.404411
0.41496
0.418832
0.412014
0.39799
0.382933
0.372333
0.366312
0.362985
0.362997
0.370423
0.372345
0.386445
3.33302
2.12835
0.718746
0.300186
0.265275
0.363485
0.33584
0.325882
0.34958
0.376961
0.385997
0.401053
0.419234
0.430643
0.436225
0.432856
0.420888
0.408866
0.402475
0.401984
0.405233
0.412944
0.430157
0.445305
0.48359
3.26229
2.22017
0.846914
0.354829
0.265313
0.371169
0.357453
0.348003
0.36777
0.394284
0.402138
0.41562
0.434898
0.44769
0.454843
0.45472
0.445044
0.436498
0.434426
0.439534
0.45016
0.467464
0.49815
0.539109
0.641398
3.18969
2.31024
1.0169
0.414407
0.273584
0.379325
0.383618
0.373734
0.387872
0.410489
0.418101
0.430786
0.45126
0.466093
0.474813
0.477393
0.470681
0.465436
0.467198
0.477818
0.496614
0.524326
0.572665
0.654673
0.832558
3.11673
2.40015
1.2297
0.473453
0.297269
0.397971
0.412881
0.40017
0.406749
0.425296
0.434468
0.446382
0.468019
0.485283
0.495492
0.500739
0.497924
0.49488
0.499711
0.51488
0.541551
0.579965
0.642349
0.741792
0.925241
3.04332
2.47381
1.46164
0.533906
0.336394
0.41823
0.440374
0.423278
0.423522
0.44001
0.451572
0.462405
0.485802
0.505106
0.516571
0.523841
0.524521
0.523492
0.531123
0.550192
0.582968
0.626926
0.696434
0.792027
0.949818
2.96818
2.51962
1.66721
0.611644
0.38398
0.432681
0.463774
0.44317
0.439586
0.455376
0.469988
0.480753
0.502877
0.524761
0.538884
0.548123
0.552777
0.552187
0.56142
0.582475
0.618651
0.666074
0.733613
0.822837
0.949771
2.89387
2.55516
1.83895
0.715395
0.444281
0.44825
0.482853
0.459536
0.456268
0.472149
0.489885
0.499909
0.520094
0.54469
0.561029
0.571648
0.578832
0.580139
0.589967
0.611364
0.647288
0.695693
0.762754
0.84399
0.944002
2.82876
2.60063
2.00725
0.873403
0.524267
0.467723
0.491444
0.475796
0.474471
0.49103
0.510045
0.520458
0.536759
0.564053
0.582663
0.595357
0.604827
0.609395
0.616139
0.636687
0.670985
0.718603
0.782403
0.855547
0.935856
2.78887
2.66871
2.20484
1.10753
0.621084
0.481296
0.495081
0.496389
0.495121
0.511473
0.530214
0.541597
0.554889
0.58167
0.603705
0.61852
0.62963
0.637742
0.641575
0.659537
0.691005
0.736495
0.794261
0.858473
0.929513
2.7945
2.75581
2.41915
1.45914
0.703657
0.486781
0.509393
0.521167
0.519235
0.533682
0.550799
0.562953
0.573351
0.597399
0.62397
0.641115
0.653545
0.663362
0.668306
0.680843
0.709044
0.748499
0.799346
0.857267
0.921637
2.85492
2.84093
2.58697
1.80727
0.79397
0.508989
0.535042
0.548807
0.54635
0.556973
0.571173
0.583597
0.592477
0.612062
0.642414
0.662834
0.6758
0.686449
0.694388
0.70027
0.723416
0.75671
0.799209
0.854132
0.913394
2.9216
2.92133
2.71895
2.0598
0.928164
0.574916
0.56706
0.572278
0.573872
0.580477
0.591813
0.604005
0.612395
0.626332
0.658063
0.682448
0.697007
0.708278
0.718558
0.723417
0.736731
0.763939
0.800265
0.846831
0.903594
2.97797
2.99109
2.84173
2.2936
1.17225
0.68263
0.597473
0.593786
0.604417
0.604401
0.613108
0.624627
0.633414
0.643025
0.669854
0.699329
0.716218
0.727574
0.738017
0.745693
0.750117
0.771718
0.803079
0.841437
0.888904
3.0176
3.05613
2.95826
2.55513
1.55523
0.795171
0.620109
0.62335
0.633777
0.629576
0.635571
0.64603
0.654271
0.66039
0.680054
0.710453
0.733432
0.746101
0.756712
0.766611
0.770265
0.780006
0.805216
0.838121
0.87764
3.04812
3.11079
3.04454
2.7625
1.98158
0.958856
0.651917
0.659587
0.659154
0.657316
0.660031
0.668377
0.67569
0.678804
0.691587
0.722962
0.748463
0.764161
0.773029
0.782364
0.791073
0.793724
0.809027
0.835695
0.868899
3.07388
3.15579
3.10964
2.90852
2.30493
1.20604
0.741701
0.698975
0.68638
0.687899
0.686644
0.691749
0.697396
0.698845
0.703433
0.730021
0.760831
0.781342
0.791604
0.798166
0.806678
0.811348
0.816145
0.835749
0.862828
3.09416
3.19305
3.16282
3.02826
2.6031
1.61488
0.867405
0.733907
0.719513
0.716942
0.715584
0.716115
0.719597
0.720693
0.719307
0.735191
0.773712
0.797495
0.809101
0.815068
0.820826
0.82866
0.830919
0.837654
0.858456
3.10978
3.22151
3.20163
3.11302
2.83101
2.07214
1.07474
0.771489
0.755318
0.748572
0.748248
0.743386
0.743148
0.744355
0.741217
0.744359
0.775765
0.810315
0.82656
0.832562
0.835457
0.841201
0.848765
0.850131
0.85791
3.12164
3.2435
3.2304
3.17189
2.98585
2.44007
1.39485
0.856805
0.799143
0.79081
0.778645
0.772122
0.768924
0.769509
0.767163
0.762768
0.777075
0.818402
0.842051
0.850689
0.854093
0.854741
0.860319
0.867518
0.869594
3.13034
3.25978
3.25111
3.21328
3.09606
2.74966
1.89236
1.0078
0.848448
0.826409
0.813459
0.805176
0.799105
0.797255
0.79538
0.788934
0.788186
0.816088
0.851821
0.86826
0.872085
0.874015
0.874261
0.87966
0.887076
3.13659
3.27128
3.265
3.24007
3.16638
2.95064
2.33582
1.31132
0.91009
0.867605
0.858268
0.843686
0.832264
0.827663
0.825196
0.819334
0.811229
0.81817
0.854828
0.88015
0.890308
0.891345
0.893117
0.89491
0.900702
3.14039
3.27824
3.27319
3.25715
3.21271
3.08468
2.70494
1.80853
1.02253
0.918007
0.899598
0.884841
0.871615
0.862306
0.856883
0.85101
0.841747
0.835146
0.855681
0.887377
0.905456
0.910173
0.909854
0.912594
0.917359
3.14096
3.28097
3.27731
3.26802
3.24165
3.16554
2.94103
2.30438
1.31398
0.977375
0.940999
0.930593
0.916684
0.90101
0.892043
0.884361
0.875775
0.86392
0.861642
0.890723
0.914593
0.928176
0.929501
0.929061
0.933674
3.13824
3.28136
3.27993
3.27433
3.25826
3.21446
3.08858
2.71295
1.82493
1.08455
0.9905
0.972504
0.96114
0.948059
0.930634
0.920264
0.910846
0.899212
0.886184
0.893158
0.924596
0.938847
0.948542
0.948754
0.94942
3.13586
3.28125
3.28121
3.27831
3.26944
3.24459
3.17428
2.96602
2.36046
1.3948
1.05204
1.0167
1.00653
0.995082
0.979265
0.960214
0.947468
0.936325
0.920339
0.908943
0.927468
0.954484
0.962716
0.96823
0.968204
3.13489
3.28057
3.2826
3.2812
3.27629
3.2624
3.22415
3.11371
2.78303
1.95137
1.184
1.06756
1.04791
1.04069
1.0293
1.00889
0.988571
0.974357
0.958997
0.940195
0.933478
0.960112
0.979465
0.982264
0.986575
3.13445
3.2801
3.28365
3.28294
3.2803
3.27282
3.25227
3.19466
3.02362
2.50777
1.56269
1.13334
1.09437
1.08337
1.07462
1.06363
1.03541
1.01574
0.999032
0.979942
0.960569
0.964181
0.991297
1.00277
1.00021
3.13429
3.27986
3.28427
3.28394
3.28258
3.27868
3.26791
3.23814
3.15208
2.89231
2.17199
1.35064
1.15016
1.12521
1.12015
1.11029
1.09542
1.06184
1.0408
1.0216
0.998245
0.980804
0.994202
1.01639
1.02187
3.13429
3.27973
3.28465
3.28451
3.28388
3.28195
3.27652
3.26149
3.21962
3.09564
2.71456
1.84534
1.2466
1.17503
1.16028
1.15572
1.14722
1.1221
1.08789
1.06499
1.04133
1.01458
1.00112
1.02269
1.03942
3.13433
3.27968
3.28491
3.28488
3.2846
3.28364
3.28096
3.27364
3.25341
3.19547
3.01859
2.47495
1.59163
1.24185
1.20566
1.19788
1.1916
1.18025
1.14605
1.11356
1.08705
1.0586
1.03022
1.02758
1.04803
3.13434
3.2797
3.28504
3.28504
3.28493
3.2845
3.28327
3.27985
3.27035
3.24362
3.16481
2.92154
2.22675
1.46963
1.26653
1.23887
1.23561
1.22834
1.20993
1.16611
1.1344
1.10456
1.07051
1.04381
1.05132
3.13433
3.27974
3.28505
3.28515
3.28511
3.28493
3.28438
3.28286
3.27861
3.26662
3.23259
3.1299
2.80804
2.01412
1.40077
1.29322
1.27541
1.2727
1.26376
1.2352
1.18642
1.15219
1.11694
1.07836
1.06054
3.13433
3.27976
3.28504
3.28521
3.2852
3.28512
3.28489
3.28426
3.28245
3.27734
3.26276
3.22063
3.0907
2.67572
1.85211
1.3878
1.32246
1.31284
1.30887
1.29505
1.25113
1.20358
1.16554
1.12294
1.08599
3.13433
3.27976
3.28503
3.28523
3.28523
3.2852
3.28511
3.28486
3.28415
3.28208
3.27613
3.25892
3.20824
3.04897
2.54143
1.75615
1.39891
1.35496
1.3486
1.34394
1.32014
1.26219
1.21554
1.17144
1.12433
3.13433
3.27976
3.28503
3.28524
3.28525
3.28524
3.2852
3.28512
3.28486
3.28409
3.28176
3.275
3.25536
3.19641
3.01003
2.42941
1.72248
1.41753
1.38648
1.38384
1.37566
1.33622
1.2707
1.22097
1.17133
3.13433
3.27976
3.28503
3.28523
3.28525
3.28525
3.28524