/*--------------------------------*- C++ -*----------------------------------*\
| =========                 |                                                 |
| \\      /  F ield         | OpenFOAM: The Open Source CFD Toolbox           |
|  \\    /   O peration     | Version:  4.1                                   |
|   \\  /    A nd           | Web:      www.OpenFOAM.org                      |
|    \\/     M anipulation  |                                                 |
\*---------------------------------------------------------------------------*/
FoamFile
{
    version     2.0;
    format      ascii;
    class       volScalarField;
    location    "0.74";
    object      p;
}
// * * * * * * * * * * * * * * * * * * * * * * * * * * * * * * * * * * * * * //

dimensions      [1 -1 -2 0 0 0 0];

internalField   nonuniform List<scalar> 
52500
(
0.0837573
0.191434
0.646212
1.13832
0.862012
0.832016
0.813208
0.776633
0.72765
0.683251
0.653245
0.618913
0.583696
0.552268
0.523565
0.502944
0.492802
0.489199
0.488773
0.486565
0.477369
0.454015
0.42687
0.405617
0.397415
0.0839463
0.189869
0.635568
1.14262
0.863428
0.832267
0.813652
0.777577
0.728564
0.684198
0.654101
0.619682
0.584452
0.553006
0.524312
0.503616
0.493196
0.489295
0.488747
0.486336
0.477091
0.454038
0.427043
0.405723
0.397568
0.0844505
0.186683
0.612533
1.15206
0.866002
0.831703
0.813368
0.778389
0.729164
0.684752
0.654248
0.619831
0.584609
0.553075
0.524608
0.503812
0.492931
0.488501
0.487758
0.48489
0.475429
0.45278
0.426
0.404522
0.396442
0.0852713
0.182433
0.5801
1.16515
0.869095
0.83038
0.812529
0.779716
0.730481
0.685982
0.654698
0.62032
0.585185
0.553511
0.525363
0.50434
0.492739
0.487353
0.486257
0.482601
0.472641
0.450441
0.424153
0.402457
0.394579
0.0863863
0.177805
0.542373
1.1776
0.872996
0.827805
0.810663
0.781259
0.73262
0.687657
0.655273
0.621127
0.585977
0.554048
0.526388
0.504804
0.492378
0.485784
0.484235
0.479694
0.469136
0.447287
0.421804
0.399995
0.392419
0.0877504
0.173132
0.505862
1.18273
0.879238
0.822898
0.807552
0.782541
0.73584
0.689636
0.656003
0.622162
0.586929
0.554847
0.527642
0.505144
0.49184
0.483892
0.481635
0.476128
0.464783
0.443142
0.418681
0.396847
0.389739
0.0892208
0.167878
0.471047
1.179
0.889072
0.815211
0.803519
0.78363
0.74017
0.691992
0.656934
0.623386
0.588176
0.556003
0.529043
0.505436
0.491149
0.481891
0.478396
0.471652
0.459364
0.438253
0.414494
0.392517
0.385789
0.090676
0.161807
0.434677
1.1652
0.902234
0.805635
0.799542
0.784962
0.745205
0.694778
0.658147
0.624871
0.589722
0.557452
0.530349
0.505957
0.490379
0.480009
0.474328
0.466319
0.453218
0.432236
0.40883
0.386284
0.37911
0.0920497
0.154699
0.397801
1.1357
0.917607
0.796853
0.79682
0.786668
0.750154
0.697574
0.659264
0.626909
0.59177
0.559154
0.531643
0.506665
0.489694
0.478101
0.469974
0.460354
0.446166
0.424962
0.401148
0.376766
0.366291
0.093406
0.146518
0.361789
1.08466
0.933998
0.791851
0.796936
0.789663
0.753889
0.699721
0.660201
0.629449
0.594378
0.561313
0.533095
0.507653
0.489148
0.475964
0.465346
0.453922
0.438238
0.416232
0.390626
0.362512
0.34049
0.0837553
0.191451
0.646325
1.13825
0.862
0.83198
0.813159
0.776576
0.727615
0.683231
0.653217
0.618893
0.583672
0.552245
0.523555
0.502946
0.492821
0.489231
0.488807
0.486592
0.477369
0.453974
0.426827
0.405571
0.39736
0.083946
0.189882
0.635654
1.14258
0.863417
0.832218
0.813607
0.777542
0.72854
0.684186
0.654059
0.619661
0.584435
0.552983
0.524305
0.503616
0.49321
0.48932
0.488776
0.48636
0.477091
0.453999
0.427001
0.405678
0.397514
0.0844495
0.186694
0.612611
1.15204
0.865963
0.831657
0.813328
0.778359
0.729142
0.684739
0.654214
0.619811
0.584592
0.55306
0.524596
0.503805
0.492938
0.488521
0.487778
0.484908
0.475429
0.452745
0.42596
0.404478
0.39639
0.0852686
0.182443
0.580175
1.1651
0.869077
0.830346
0.812491
0.779679
0.730461
0.685963
0.654682
0.620309
0.585171
0.553503
0.525344
0.504328
0.492739
0.487363
0.486264
0.482607
0.472639
0.450412
0.424116
0.402416
0.394532
0.0863831
0.177811
0.542433
1.17754
0.872984
0.827782
0.810626
0.781218
0.732599
0.687634
0.65527
0.621109
0.585955
0.554034
0.526364
0.504789
0.492373
0.485784
0.484233
0.479691
0.469129
0.447264
0.421772
0.399959
0.392376
0.0877472
0.173137
0.505895
1.18269
0.879217
0.822889
0.807527
0.78251
0.735822
0.689622
0.656012
0.622145
0.586907
0.554829
0.527608
0.505136
0.491832
0.483887
0.481627
0.476117
0.464773
0.443124
0.418655
0.396816
0.389701
0.0892179
0.167882
0.471071
1.17895
0.889051
0.815215
0.803503
0.783604
0.740154
0.691981
0.656937
0.62336
0.588143
0.555982
0.529012
0.505431
0.491146
0.481874
0.478388
0.47164
0.459353
0.438237
0.414473
0.392493
0.385757
0.0906734
0.16181
0.434695
1.16515
0.902219
0.80564
0.799523
0.784932
0.745186
0.694762
0.658154
0.624842
0.589696
0.557432
0.530323
0.505947
0.490376
0.479986
0.474324
0.466307
0.453206
0.432221
0.408815
0.386265
0.379084
0.0920474
0.154702
0.397815
1.13565
0.917595
0.796858
0.796796
0.786634
0.750128
0.697553
0.659301
0.626857
0.591734
0.559135
0.53162
0.506651
0.489687
0.47808
0.469965
0.46034
0.446153
0.424948
0.401136
0.376753
0.36627
0.093404
0.14652
0.3618
1.08463
0.933985
0.79185
0.796909
0.78963
0.753864
0.699702
0.660203
0.629411
0.594344
0.561293
0.533073
0.507638
0.489135
0.475945
0.465332
0.453907
0.438224
0.416219
0.390616
0.362504
0.340474
0.0837557
0.191439
0.646245
1.13827
0.862006
0.831999
0.813184
0.776602
0.727632
0.683233
0.653238
0.618891
0.583676
0.55226
0.523565
0.502959
0.492828
0.489236
0.488806
0.486589
0.477366
0.453977
0.426826
0.405569
0.397363
0.0839452
0.189873
0.635594
1.14258
0.863422
0.832246
0.813629
0.777553
0.728548
0.684184
0.654087
0.619661
0.584434
0.552997
0.52431
0.503627
0.493218
0.489327
0.488777
0.486357
0.477089
0.454001
0.427001
0.405676
0.397516
0.0844493
0.186686
0.612554
1.15203
0.865988
0.83168
0.813344
0.778365
0.729146
0.684738
0.654227
0.619812
0.584595
0.553064
0.524604
0.503818
0.492948
0.488529
0.487783
0.484908
0.475428
0.452746
0.425959
0.404476
0.396392
0.0852696
0.182435
0.580117
1.16511
0.869086
0.830358
0.812503
0.779691
0.730459
0.685966
0.654675
0.620307
0.585175
0.553505
0.525355
0.504343
0.49275
0.487374
0.486274
0.482613
0.472639
0.450412
0.424115
0.402415
0.394535
0.0863845
0.177805
0.542384
1.17755
0.872987
0.827784
0.810635
0.781232
0.732598
0.687639
0.655251
0.62111
0.585963
0.554036
0.526381
0.504799
0.492384
0.485796
0.484246
0.479703
0.469132
0.447262
0.421771
0.399958
0.392379
0.0877486
0.173133
0.505864
1.18268
0.879225
0.822878
0.807524
0.782516
0.735822
0.689625
0.655987
0.622154
0.586918
0.554835
0.527636
0.505137
0.491841
0.483899
0.48164
0.476131
0.464776
0.443121
0.418653
0.396815
0.389705
0.0892192
0.167878
0.471047
1.17895
0.889057
0.815194
0.803492
0.783604
0.740155
0.691982
0.656916
0.623374
0.588162
0.555991
0.529035
0.505432
0.491148
0.481891
0.478399
0.471651
0.459355
0.438234
0.41447
0.392491
0.38576
0.0906746
0.161807
0.434677
1.16514
0.902218
0.805617
0.799511
0.784931
0.745191
0.694766
0.658138
0.624857
0.589709
0.55744
0.530341
0.505953
0.490379
0.480007
0.474332
0.466315
0.453207
0.432217
0.408811
0.386263
0.379087
0.0920484
0.154699
0.397801
1.13565
0.917591
0.796834
0.796785
0.786633
0.750138
0.697561
0.659275
0.626886
0.591749
0.559142
0.531634
0.50666
0.489693
0.478096
0.469974
0.460348
0.446153
0.424944
0.401132
0.37675
0.366271
0.0934049
0.146518
0.361789
1.08462
0.93398
0.791831
0.796898
0.789626
0.753871
0.699708
0.660195
0.629433
0.594358
0.561301
0.533088
0.507648
0.489145
0.47596
0.465344
0.453914
0.438224
0.416214
0.39061
0.362499
0.340474
0.0837551
0.19144
0.646255
1.13825
0.861996
0.831993
0.813179
0.776597
0.727626
0.683229
0.653234
0.618888
0.583673
0.55226
0.523567
0.502967
0.492843
0.489255
0.488824
0.486602
0.477368
0.453961
0.426807
0.405549
0.39734
0.0839447
0.189874
0.635601
1.14256
0.863413
0.83224
0.813623
0.777548
0.728544
0.684182
0.654083
0.619659
0.584432
0.552997
0.524313
0.503635
0.493233
0.489346
0.488794
0.48637
0.477091
0.453985
0.426982
0.405657
0.397494
0.0844488
0.186686
0.612559
1.15201
0.865979
0.831674
0.813339
0.778361
0.729142
0.684737
0.654223
0.61981
0.584594
0.553068
0.524609
0.503828
0.492963
0.488548
0.487798
0.484919
0.475429
0.452731
0.425941
0.404457
0.396371
0.0852692
0.182435
0.580118
1.16509
0.869079
0.830352
0.812498
0.779687
0.730456
0.685966
0.654674
0.620309
0.585177
0.553508
0.525364
0.504353
0.492765
0.487391
0.486288
0.482622
0.47264
0.450398
0.424098
0.402397
0.394515
0.0863842
0.177805
0.542381
1.17753
0.872982
0.827781
0.810631
0.781227
0.732595
0.687637
0.655254
0.621112
0.585965
0.55404
0.526387
0.504809
0.492398
0.485812
0.484259
0.479711
0.469133
0.447249
0.421756
0.399942
0.392362
0.0877484
0.173131
0.505857
1.18267
0.879222
0.822878
0.807522
0.782513
0.73582
0.689622
0.655996
0.622154
0.58692
0.554839
0.527636
0.505153
0.491856
0.483915
0.481654
0.476138
0.464774
0.443112
0.418641
0.396802
0.38969
0.0892192
0.167877
0.471038
1.17893
0.889056
0.815195
0.803492
0.783603
0.740154
0.691981
0.656926
0.623372
0.588159
0.555995
0.529038
0.505449
0.491167
0.481904
0.478415
0.471658
0.459354
0.438227
0.414461
0.392481
0.385749
0.0906747
0.161805
0.434665
1.16512
0.902219
0.805618
0.799511
0.784931
0.745191
0.694766
0.658146
0.624855
0.589711
0.557446
0.530345
0.505967
0.490397
0.480019
0.474347
0.466323
0.453207
0.432213
0.408804
0.386255
0.379079
0.0920487
0.154697
0.397788
1.13562
0.91759
0.796834
0.796785
0.786632
0.750137
0.69756
0.659284
0.626881
0.591751
0.55915
0.531641
0.506672
0.489709
0.47811
0.469988
0.460355
0.446154
0.424941
0.401127
0.376744
0.366266
0.0934053
0.146515
0.361775
1.08459
0.933984
0.791836
0.7969
0.789626
0.753868
0.699707
0.6602
0.62943
0.594365
0.561312
0.533093
0.507662
0.489159
0.475973
0.465355
0.453922
0.438227
0.416213
0.390607
0.362496
0.34047
0.0837576
0.191421
0.646121
1.13832
0.862009
0.831983
0.813174
0.776602
0.727633
0.683235
0.65324
0.618893
0.583676
0.552261
0.523565
0.502957
0.492826
0.489233
0.488802
0.486584
0.477363
0.453969
0.426811
0.40555
0.397341
0.0839469
0.189855
0.635471
1.14263
0.863426
0.832231
0.813619
0.777553
0.728551
0.684188
0.65409
0.619663
0.584435
0.552999
0.524312
0.503628
0.493219
0.489327
0.488774
0.486353
0.477084
0.453992
0.426985
0.405657
0.397495
0.0844512
0.186669
0.612435
1.15208
0.865992
0.831667
0.813334
0.778366
0.72915
0.684744
0.65423
0.619814
0.584596
0.553069
0.52461
0.503825
0.492953
0.488532
0.487782
0.484904
0.475421
0.452736
0.425944
0.404458
0.396372
0.0852719
0.182421
0.580007
1.16515
0.869089
0.830346
0.812494
0.779692
0.730466
0.685973
0.65468
0.620311
0.585178
0.553509
0.525367
0.504355
0.49276
0.48738
0.486276
0.482609
0.472631
0.4504
0.424101
0.402398
0.394516
0.086387
0.177793
0.542288
1.17758
0.872996
0.827772
0.810626
0.781233
0.732607
0.687647
0.655262
0.621121
0.585969
0.554043
0.526393
0.504814
0.492399
0.485807
0.484251
0.4797
0.469123
0.447248
0.421757
0.399943
0.392363
0.087751
0.173122
0.505794
1.18269
0.879241
0.822866
0.807519
0.782519
0.735833
0.689627
0.656001
0.622155
0.586921
0.554841
0.527641
0.505161
0.491861
0.483914
0.481649
0.476128
0.464764
0.443109
0.418641
0.396803
0.389691
0.0892213
0.167867
0.470982
1.17894
0.889079
0.815181
0.80349
0.783612
0.74017
0.691988
0.656936
0.623375
0.588162
0.555998
0.529043
0.505456
0.491174
0.481905
0.47841
0.471649
0.459346
0.438223
0.41446
0.392481
0.385751
0.0906764
0.161796
0.434616
1.16511
0.902243
0.805607
0.799514
0.784943
0.745207
0.694777
0.658149
0.62486
0.589712
0.557449
0.530351
0.505974
0.490403
0.48002
0.474344
0.466315
0.453199
0.432208
0.408803
0.386255
0.379082
0.09205
0.154687
0.397747
1.13559
0.917614
0.796828
0.796792
0.786647
0.750154
0.697571
0.65927
0.626895
0.591762
0.559155
0.531647
0.506679
0.489716
0.478113
0.469986
0.460348
0.446147
0.424936
0.401124
0.376744
0.36627
0.0934064
0.146507
0.361738
1.08453
0.934003
0.791838
0.796914
0.789644
0.753881
0.699715
0.660201
0.629436
0.594376
0.561319
0.533097
0.507669
0.489164
0.475975
0.465352
0.453916
0.43822
0.416208
0.390605
0.362496
0.340475
0.0837566
0.191427
0.646162
1.13829
0.862002
0.831981
0.813171
0.776597
0.727629
0.683231
0.653237
0.618889
0.583673
0.55226
0.523565
0.502959
0.49283
0.489241
0.48881
0.486591
0.477368
0.453969
0.426811
0.40555
0.397339
0.0839461
0.189861
0.63551
1.1426
0.863418
0.832228
0.813616
0.777549
0.728546
0.684184
0.654086
0.619659
0.584433
0.552998
0.524312
0.50363
0.493223
0.489334
0.488781
0.48636
0.477089
0.453993
0.426986
0.405657
0.397494
0.0844503
0.186674
0.612472
1.15205
0.865984
0.831664
0.813331
0.778362
0.729145
0.684739
0.654226
0.619811
0.584594
0.553068
0.52461
0.503826
0.492958
0.488539
0.487788
0.48491
0.475426
0.452737
0.425944
0.404458
0.396371
0.0852709
0.182425
0.58004
1.16513
0.869084
0.830343
0.812491
0.779687
0.730461
0.685969
0.654676
0.620309
0.585176
0.553509
0.525367
0.504356
0.492764
0.487387
0.486282
0.482615
0.472636
0.450401
0.424101
0.402398
0.394516
0.086386
0.177797
0.542315
1.17756
0.872989
0.827771
0.810624
0.781228
0.732601
0.687642
0.655259
0.621119
0.585967
0.554042
0.526393
0.504816
0.492402
0.485812
0.484257
0.479705
0.469127
0.44725
0.421758
0.399943
0.392363
0.0877501
0.173125
0.505813
1.18268
0.879234
0.822867
0.807517
0.782515
0.735827
0.689623
0.655998
0.622153
0.586918
0.554839
0.527641
0.505162
0.491864
0.483918
0.481654
0.476133
0.464768
0.443111
0.418642
0.396803
0.389692
0.0892206
0.16787
0.470999
1.17893
0.889071
0.815183
0.803488
0.783607
0.740164
0.691984
0.656933
0.623372
0.58816
0.555996
0.529043
0.505457
0.491176
0.481909
0.478415
0.471654
0.45935
0.438225
0.414462
0.392483
0.385751
0.0906758
0.161799
0.434632
1.16511
0.902235
0.805609
0.799512
0.784938
0.745202
0.694773
0.658146
0.624857
0.58971
0.557448
0.53035
0.505975
0.490405
0.480024
0.474348
0.46632
0.453203
0.432211
0.408805
0.386258
0.379082
0.0920495
0.15469
0.39776
1.1356
0.917605
0.796828
0.796788
0.786641
0.750149
0.697568
0.659269
0.626892
0.59176
0.559154
0.531646
0.506679
0.489717
0.478116
0.469989
0.460353
0.446151
0.424939
0.401128
0.376747
0.366269
0.0934059
0.14651
0.361751
1.08455
0.933996
0.791836
0.796907
0.789637
0.753877
0.699712
0.660199
0.629434
0.594374
0.561317
0.533096
0.507669
0.489165
0.475977
0.465356
0.45392
0.438224
0.416212
0.390608
0.362499
0.340474
0.0837551
0.19144
0.646256
1.13825
0.861996
0.831993
0.813179
0.776596
0.727626
0.683229
0.653234
0.618888
0.583673
0.55226
0.523567
0.502967
0.492843
0.489256
0.488824
0.486602
0.477368
0.453961
0.426807
0.405549
0.39734
0.0839447
0.189874
0.635602
1.14256
0.863413
0.832239
0.813623
0.777548
0.728543
0.684182
0.654083
0.619659
0.584432
0.552997
0.524313
0.503635
0.493233
0.489346
0.488794
0.48637
0.477091
0.453985
0.426982
0.405657
0.397494
0.0844488
0.186686
0.612559
1.15201
0.865979
0.831674
0.813339
0.778361
0.729142
0.684737
0.654223
0.61981
0.584594
0.553068
0.524609
0.503828
0.492963
0.488548
0.487798
0.484919
0.475429
0.452731
0.425941
0.404457
0.396371
0.0852691
0.182435
0.580118
1.16509
0.869079
0.830352
0.812498
0.779687
0.730456
0.685966
0.654674
0.620309
0.585177
0.553508
0.525364
0.504353
0.492765
0.487391
0.486288
0.482622
0.47264
0.450398
0.424098
0.402397
0.394515
0.0863841
0.177805
0.542381
1.17753
0.872982
0.827781
0.810631
0.781227
0.732595
0.687637
0.655254
0.621112
0.585965
0.55404
0.526387
0.504809
0.492398
0.485812
0.484259
0.479711
0.469133
0.447249
0.421756
0.399942
0.392362
0.0877484
0.173131
0.505858
1.18267
0.879222
0.822878
0.807522
0.782513
0.73582
0.689622
0.655996
0.622154
0.58692
0.554839
0.527636
0.505153
0.491856
0.483915
0.481654
0.476138
0.464774
0.443112
0.418641
0.396802
0.38969
0.0892192
0.167877
0.471038
1.17893
0.889056
0.815195
0.803492
0.783603
0.740154
0.691981
0.656926
0.623372
0.588159
0.555995
0.529038
0.505449
0.491167
0.481904
0.478415
0.471658
0.459354
0.438227
0.414461
0.392481
0.385749
0.0906747
0.161805
0.434666
1.16512
0.902219
0.805618
0.799511
0.784931
0.745191
0.694766
0.658146
0.624855
0.589711
0.557446
0.530345
0.505967
0.490397
0.480019
0.474347
0.466323
0.453207
0.432213
0.408804
0.386255
0.379079
0.0920487
0.154697
0.397788
1.13562
0.91759
0.796834
0.796784
0.786632
0.750137
0.69756
0.659284
0.626881
0.591751
0.55915
0.531641
0.506672
0.489709
0.478111
0.469988
0.460355
0.446154
0.424941
0.401127
0.376744
0.366266
0.0934053
0.146515
0.361775
1.08459
0.933984
0.791836
0.7969
0.789626
0.753868
0.699707
0.6602
0.62943
0.594365
0.561312
0.533093
0.507662
0.489159
0.475973
0.465355
0.453922
0.438227
0.416213
0.390607
0.362496
0.34047
0.0837557
0.191439
0.646245
1.13827
0.862006
0.831999
0.813184
0.776602
0.727632
0.683233
0.653238
0.618891
0.583676
0.55226
0.523565
0.502959
0.492828
0.489236
0.488806
0.486589
0.477366
0.453977
0.426826
0.405569
0.397363
0.0839452
0.189873
0.635594
1.14258
0.863422
0.832246
0.813629
0.777553
0.728548
0.684184
0.654087
0.619661
0.584434
0.552997
0.52431
0.503627
0.493218
0.489327
0.488777
0.486357
0.477089
0.454001
0.427001
0.405676
0.397516
0.0844493
0.186686
0.612554
1.15203
0.865988
0.83168
0.813344
0.778365
0.729146
0.684738
0.654227
0.619812
0.584595
0.553064
0.524604
0.503818
0.492948
0.488529
0.487783
0.484908
0.475428
0.452746
0.425959
0.404476
0.396392
0.0852696
0.182435
0.580117
1.16511
0.869086
0.830358
0.812503
0.779691
0.730459
0.685966
0.654675
0.620307
0.585175
0.553505
0.525355
0.504343
0.49275
0.487374
0.486274
0.482613
0.472639
0.450412
0.424115
0.402415
0.394535
0.0863845
0.177805
0.542384
1.17755
0.872987
0.827784
0.810635
0.781232
0.732598
0.687639
0.655251
0.62111
0.585963
0.554036
0.526381
0.504799
0.492383
0.485796
0.484246
0.479703
0.469132
0.447262
0.421771
0.399958
0.392379
0.0877486
0.173133
0.505864
1.18268
0.879225
0.822878
0.807524
0.782516
0.735822
0.689625
0.655987
0.622154
0.586918
0.554835
0.527636
0.505137
0.491841
0.483899
0.48164
0.476131
0.464776
0.443121
0.418653
0.396815
0.389705
0.0892192
0.167878
0.471047
1.17895
0.889057
0.815194
0.803492
0.783604
0.740155
0.691982
0.656916
0.623374
0.588162
0.555991
0.529035
0.505432
0.491148
0.481891
0.478399
0.471651
0.459355
0.438234
0.41447
0.392491
0.38576
0.0906746
0.161807
0.434677
1.16514
0.902218
0.805617
0.799511
0.784931
0.745191
0.694766
0.658138
0.624857
0.589709
0.55744
0.530341
0.505953
0.490379
0.480007
0.474332
0.466315
0.453207
0.432217
0.408811
0.386263
0.379087
0.0920484
0.154699
0.397801
1.13565
0.917591
0.796834
0.796785
0.786633
0.750138
0.697561
0.659275
0.626886
0.591749
0.559142
0.531634
0.50666
0.489693
0.478096
0.469974
0.460348
0.446153
0.424944
0.401132
0.37675
0.366271
0.0934049
0.146518
0.361789
1.08462
0.93398
0.791831
0.796898
0.789626
0.753871
0.699708
0.660195
0.629433
0.594358
0.561301
0.533088
0.507648
0.489145
0.47596
0.465344
0.453914
0.438224
0.416214
0.39061
0.362499
0.340474
0.0837553
0.191451
0.646326
1.13825
0.862
0.83198
0.813159
0.776576
0.727615
0.683231
0.653217
0.618893
0.583672
0.552244
0.523555
0.502946
0.49282
0.489231
0.488806
0.486592
0.477369
0.453975
0.426827
0.405571
0.397361
0.083946
0.189883
0.635655
1.14258
0.863416
0.832218
0.813607
0.777542
0.728539
0.684186
0.654059
0.619661
0.584435
0.552982
0.524305
0.503615
0.49321
0.48932
0.488776
0.48636
0.477091
0.453999
0.427002
0.405678
0.397514
0.0844495
0.186694
0.612612
1.15204
0.865962
0.831657
0.813327
0.778359
0.729142
0.684739
0.654214
0.619811
0.584592
0.55306
0.524596
0.503805
0.492938
0.488521
0.487777
0.484908
0.475429
0.452745
0.42596
0.404478
0.39639
0.0852686
0.182443
0.580175
1.1651
0.869077
0.830346
0.812491
0.779679
0.730461
0.685963
0.654682
0.620309
0.585171
0.553502
0.525344
0.504328
0.492739
0.487363
0.486263
0.482606
0.472639
0.450412
0.424116
0.402416
0.394532
0.0863831
0.177811
0.542433
1.17754
0.872984
0.827782
0.810626
0.781218
0.732599
0.687633
0.65527
0.621108
0.585955
0.554034
0.526364
0.504788
0.492373
0.485784
0.484232
0.479691
0.469129
0.447265
0.421772
0.399959
0.392376
0.0877472
0.173137
0.505895
1.18269
0.879216
0.822889
0.807527
0.78251
0.735822
0.689622
0.656012
0.622145
0.586907
0.554829
0.527608
0.505136
0.491832
0.483887
0.481627
0.476117
0.464773
0.443124
0.418655
0.396816
0.389701
0.089218
0.167882
0.471071
1.17895
0.889051
0.815215
0.803503
0.783604
0.740154
0.691981
0.656937
0.62336
0.588143
0.555982
0.529012
0.505431
0.491146
0.481874
0.478388
0.47164
0.459352
0.438238
0.414473
0.392493
0.385757
0.0906734
0.16181
0.434695
1.16515
0.902219
0.80564
0.799523
0.784932
0.745186
0.694762
0.658154
0.624842
0.589696
0.557432
0.530323
0.505946
0.490376
0.479986
0.474324
0.466307
0.453206
0.432222
0.408815
0.386265
0.379084
0.0920474
0.154702
0.397814
1.13565
0.917595
0.796858
0.796796
0.786634
0.750128
0.697553
0.659301
0.626857
0.591734
0.559135
0.53162
0.506651
0.489687
0.47808
0.469965
0.46034
0.446153
0.424948
0.401136
0.376753
0.36627
0.093404
0.14652
0.3618
1.08463
0.933985
0.79185
0.796909
0.78963
0.753864
0.699702
0.660203
0.629411
0.594344
0.561293
0.533073
0.507638
0.489135
0.475945
0.465332
0.453907
0.438224
0.416219
0.390616
0.362504
0.340474
0.083756
0.191455
0.646354
1.13825
0.861988
0.832014
0.8132
0.776612
0.727631
0.683235
0.653248
0.618902
0.583685
0.55226
0.523553
0.502935
0.492794
0.489194
0.488768
0.486562
0.477369
0.454021
0.426873
0.405619
0.397418
0.0839455
0.189889
0.635702
1.14256
0.863404
0.83226
0.813644
0.777565
0.728549
0.684193
0.654087
0.619671
0.584447
0.552995
0.5243
0.503603
0.493185
0.489287
0.488741
0.486332
0.477091
0.454044
0.427046
0.405725
0.397572
0.0844498
0.1867
0.612653
1.15202
0.865973
0.831691
0.81336
0.778384
0.729152
0.684758
0.65422
0.619828
0.584618
0.553066
0.524605
0.503801
0.492919
0.488491
0.48775
0.484886
0.47543
0.452788
0.426003
0.404524
0.396447
0.08527
0.182447
0.580202
1.16511
0.869074
0.830367
0.812521
0.779713
0.730467
0.685992
0.654671
0.620336
0.585207
0.553508
0.525366
0.504329
0.492726
0.487337
0.486246
0.482595
0.472642
0.450449
0.424156
0.40246
0.394585
0.0863845
0.177815
0.542455
1.17756
0.872977
0.827799
0.810659
0.781254
0.732603
0.687649
0.655265
0.621142
0.585989
0.554046
0.526385
0.504785
0.492366
0.485767
0.48422
0.479687
0.469135
0.447294
0.421808
0.399999
0.392425
0.0877486
0.173141
0.505914
1.18271
0.879213
0.822901
0.807556
0.782542
0.735831
0.689624
0.656015
0.622168
0.586932
0.554841
0.527619
0.50515
0.491833
0.483879
0.481621
0.476114
0.464779
0.443147
0.418686
0.396852
0.389744
0.0892193
0.167885
0.471088
1.17899
0.889042
0.815221
0.803531
0.783639
0.740172
0.691988
0.656953
0.623378
0.588159
0.555995
0.529022
0.505442
0.491152
0.481872
0.478384
0.471638
0.45936
0.438257
0.414499
0.392522
0.385795
0.090675
0.161814
0.43471
1.16519
0.902208
0.805647
0.799553
0.784969
0.745211
0.694778
0.65816
0.624856
0.589716
0.55745
0.530335
0.50596
0.49038
0.479988
0.474317
0.466304
0.453212
0.432238
0.408836
0.386289
0.379116
0.0920491
0.154705
0.397827
1.13571
0.917591
0.796864
0.796826
0.786669
0.750155
0.697571
0.659284
0.626886
0.591763
0.559158
0.531638
0.506662
0.489689
0.478082
0.469958
0.460337
0.446158
0.424961
0.401153
0.376771
0.366296
0.0934056
0.146522
0.361809
1.08469
0.933992
0.791858
0.796937
0.78966
0.753882
0.699717
0.660208
0.629433
0.594382
0.561324
0.533087
0.507656
0.489139
0.475947
0.465326
0.453904
0.438228
0.41623
0.390629
0.362517
0.340494
0.0947954
0.138467
0.32279
0.996719
0.944223
0.80284
0.804598
0.796585
0.75519
0.700673
0.661687
0.63115
0.597013
0.564058
0.53452
0.509342
0.488556
0.473568
0.460232
0.447568
0.429917
0.406251
0.376766
0.339318
0.274726
0.0961907
0.130396
0.279054
0.84894
0.981399
0.832585
0.820321
0.799914
0.751689
0.700617
0.663131
0.632189
0.599744
0.567167
0.53678
0.51137
0.488076
0.4711
0.455619
0.4413
0.421746
0.396087
0.36275
0.317701
0.253207
0.0977353
0.123712
0.237906
0.667606
1.04212
0.86045
0.828079
0.802075
0.750852
0.70134
0.664038
0.632866
0.602704
0.570606
0.539537
0.513214
0.488105
0.468953
0.451839
0.43515
0.414385
0.387613
0.353247
0.307875
0.25403
0.0995702
0.119494
0.208629
0.516409
1.07137
0.885807
0.834124
0.800701
0.7536
0.703525
0.665737
0.633711
0.606794
0.574707
0.542675
0.514842
0.488562
0.467279
0.448606
0.429437
0.408781
0.381729
0.348324
0.307772
0.257947
0.101422
0.11658
0.189537
0.438776
1.06265
0.915311
0.834677
0.794601
0.755088
0.706904
0.668405
0.636097
0.610568
0.578696
0.546329
0.51658
0.490074
0.466097
0.446169
0.425565
0.404615
0.378128
0.346824
0.308932
0.266661
0.102774
0.113506
0.172131
0.38452
1.02927
0.950409
0.82782
0.786674
0.754893
0.71236
0.672611
0.639588
0.613157
0.581858
0.549533
0.519111
0.492458
0.466236
0.444571
0.42319
0.401755
0.376244
0.347104
0.312338
0.277448
0.102935
0.109194
0.152085
0.324929
0.945155
0.954906
0.832745
0.783342
0.755362
0.717627
0.677713
0.643375
0.614496
0.584243
0.55287
0.522326
0.494541
0.467245
0.444447
0.422381
0.399744
0.376225
0.348395
0.31875
0.287717
0.10137
0.103734
0.13083
0.249381
0.73436
0.974997
0.842614
0.785761
0.760345
0.723479
0.68332
0.647156
0.615537
0.587946
0.557097
0.526585
0.497102
0.469866
0.444733
0.422464
0.399893
0.376618
0.351457
0.325119
0.297057
0.098488
0.0975139
0.11476
0.192137
0.46095
0.982773
0.862245
0.801786
0.770458
0.729783
0.68782
0.650933
0.617866
0.591484
0.562019
0.531145
0.500984
0.473537
0.446192
0.423072
0.400635
0.378068
0.355543
0.331207
0.30551
0.0962872
0.0905194
0.10328
0.160339
0.364149
0.947634
0.888865
0.814224
0.775864
0.733402
0.691672
0.655088
0.622837
0.595607
0.567516
0.536909
0.506553
0.477558
0.449916
0.42472
0.402631
0.38112
0.359024
0.336747
0.313081
0.0945745
0.084325
0.0937307
0.136378
0.299696
0.856388
0.902523
0.839331
0.782108
0.735852
0.695552
0.659791
0.628601
0.599542
0.574782
0.544196
0.513169
0.483433
0.456167
0.428663
0.406172
0.384707
0.363066
0.341728
0.320314
0.0934935
0.0789882
0.0852141
0.113213
0.226588
0.674755
0.926107
0.859307
0.786646
0.739073
0.700286
0.665678
0.635283
0.606114
0.581877
0.551966
0.521133
0.491214
0.462604
0.436136
0.410354
0.388845
0.367841
0.347242
0.327297
0.0926824
0.074942
0.0791159
0.0970397
0.165544
0.404256
0.913999
0.868853
0.792444
0.742999
0.706333
0.673403
0.642984
0.613938
0.588589
0.560001
0.530311
0.50003
0.470711
0.443595
0.417819
0.393943
0.373464
0.353439
0.334051
0.0920015
0.0717182
0.074643
0.086883
0.131883
0.29858
0.827377
0.859145
0.808337
0.752192
0.715373
0.682354
0.651539
0.622309
0.59468
0.56988
0.540287
0.509776
0.480163
0.452056
0.426459
0.401298
0.380202
0.360482
0.341651
0.0914797
0.0690585
0.0710136
0.0790222
0.107514
0.216123
0.628423
0.860267
0.827124
0.768683
0.726263
0.691655
0.660284
0.630886
0.602443
0.578638
0.550092
0.520328
0.490448
0.461893
0.43557
0.411011
0.38785
0.368155
0.349657
0.0910751
0.0670787
0.0683811
0.0735853
0.0912173
0.154422
0.371452
0.841919
0.829445
0.792889
0.740223
0.701651
0.669268
0.6398
0.611212
0.585016
0.561238
0.531462
0.501413
0.472999
0.445894
0.42118
0.397933
0.376479
0.35811
0.0907724
0.0655575
0.0664226
0.0698656
0.0811287
0.119566
0.262669
0.7315
0.830435
0.806699
0.753186
0.711167
0.677915
0.648713
0.620491
0.593042
0.570356
0.541908
0.512908
0.484282
0.457245
0.431973
0.408663
0.386917
0.367186
0.0905521
0.0644441
0.0649957
0.0671996
0.0741365
0.0963816
0.177277
0.471442
0.821211
0.810312
0.771668
0.724407
0.688331
0.658282
0.630005
0.602091
0.576493
0.553434
0.524852
0.496445
0.469179
0.443637
0.420053
0.398166
0.37797
0.0903979
0.0636514
0.0639953
0.0654071
0.069749
0.0831379
0.12876
0.294736
0.74337
0.806628
0.785998
0.739899
0.699703
0.667854
0.639176
0.611478
0.584733
0.562461
0.536024
0.508745
0.481727
0.456102
0.432217
0.410222
0.389791
0.0903156
0.0631214
0.0633235
0.0641955
0.0668505
0.0746832
0.0995715
0.191489
0.522493
0.791316
0.785715
0.760405
0.715117
0.679441
0.648606
0.620933
0.593934
0.568852
0.547747
0.521316
0.494935
0.469341
0.445369
0.423105
0.402473
0.0903333
0.0628044
0.0629131
0.0634407
0.0650658
0.069716
0.0838413
0.132281
0.305612
0.719764
0.782474
0.768023
0.731421
0.691416
0.658788
0.63047
0.603821
0.578253
0.555805
0.534028
0.508585
0.483418
0.459418
0.437002
0.416072
0.0904362
0.0626692
0.0627286
0.0630425
0.0639722
0.066626
0.0743869
0.0991683
0.190715
0.508587
0.764467
0.766047
0.748515
0.708899
0.670912
0.640231
0.61392
0.588524
0.564256
0.545283
0.521553
0.497718
0.473943
0.451495
0.430705
0.0904888
0.0627948
0.0625183
0.0626642
0.0631902
0.0647293
0.0690829
0.082307
0.127798
0.290466
0.679789
0.760777
0.751256
0.724222
0.686055
0.6526
0.624417
0.599344
0.574989
0.553569
0.534993
0.511599
0.48892
0.466725
0.445943
0.0905024
0.06291
0.0623366
0.0624167
0.062713
0.0635783
0.0659876
0.0728999
0.0946347
0.173743
0.442171
0.733923
0.748239
0.734665
0.703275
0.665625
0.636182
0.610652
0.586626
0.564579
0.545699
0.526052
0.504032
0.482688
0.461954
0.090506
0.0629787
0.0622236
0.0622661
0.0624272
0.0628979
0.0642104
0.0678506
0.0787589
0.115609
0.249671
0.618591
0.736179
0.732792
0.717613
0.685102
0.64953
0.622647
0.598843
0.57651
0.55568
0.539738
0.519065
0.498713
0.479015
0.0905052
0.0630148
0.062159
0.0621803
0.0622643
0.0625144
0.0632095
0.0651315
0.0705842
0.0875508
0.14744
0.338945
0.68321
0.726601
0.719287
0.700453
0.666476
0.636788
0.611711
0.589542
0.568492
0.550595
0.534978
0.515255
0.496172
0.0905026
0.0630323
0.0621231
0.0621328
0.0621745
0.0623013
0.0626564
0.0636331
0.0663289
0.0742502
0.100028
0.193362
0.489767
0.699128
0.71539
0.706363
0.684133
0.652139
0.625976
0.603122
0.582567
0.563776
0.548817
0.532006
0.513859
0.0905006
0.0630376
0.0621033
0.0621072
0.0621272
0.0621892
0.0623639
0.0628422
0.0641682
0.0678981
0.0793741
0.119093
0.257182
0.591144
0.699172
0.703285
0.693904
0.671381
0.641122
0.617857
0.597237
0.57817
0.560824
0.549096
0.532104
0.0905011
0.0630344
0.0621015
0.0620935
0.0621007
0.0621276
0.062208
0.0624353
0.0630643
0.0648282
0.0699108
0.0859897
0.142773
0.318725
0.631719
0.693174
0.691791
0.682682
0.661197
0.634519
0.613038
0.594207
0.576502
0.562395
0.551538
0.0905016
0.0630313
0.0621054
0.0620824
0.0620855
0.0620972
0.0621331
0.0622356
0.0625225
0.0633223
0.0655704
0.0722288
0.0938727
0.170394
0.408634
0.64671
0.683992
0.681735
0.673274
0.654021
0.631059
0.611455
0.594054
0.578004
0.57047
0.0905017
0.06303
0.0621074
0.0620774
0.0620786
0.0620834