/*--------------------------------*- C++ -*----------------------------------*\
| =========                 |                                                 |
| \\      /  F ield         | OpenFOAM: The Open Source CFD Toolbox           |
|  \\    /   O peration     | Version:  4.1                                   |
|   \\  /    A nd           | Web:      www.OpenFOAM.org                      |
|    \\/     M anipulation  |                                                 |
\*---------------------------------------------------------------------------*/
FoamFile
{
    version     2.0;
    format      ascii;
    class       surfaceScalarField;
    location    "0.74";
    object      phi;
}
// * * * * * * * * * * * * * * * * * * * * * * * * * * * * * * * * * * * * * //

dimensions      [1 0 -1 0 0 0 0];

internalField   nonuniform List<scalar> 
150500
(
0.00168097
-9.41189e-07
9.0415e-12
0.0017331
5.56512e-06
-7.37536e-11
0.000965562
9.01042e-05
-5.28635e-10
0.00124767
0.000197871
3.39871e-10
0.00113708
0.00012263
5.46491e-11
0.00100898
0.000111956
1.68041e-10
0.000971406
0.000110496
2.29873e-10
0.00101484
0.000108398
2.64579e-10
0.00100065
0.000101697
1.63913e-10
0.00100992
9.37582e-05
9.53729e-11
0.00109319
9.62798e-05
1.28789e-10
0.00112714
9.48358e-05
9.45925e-11
0.00110418
8.78105e-05
1.10676e-10
0.00104294
8.10151e-05
1.11216e-10
0.000933821
7.62291e-05
4.66163e-11
0.000839046
7.40673e-05
-1.03139e-11
0.000758241
7.57265e-05
-8.76949e-11
0.000690166
8.10251e-05
-1.4799e-10
0.000617475
8.63505e-05
-1.57468e-10
0.000535742
9.10201e-05
-1.27711e-10
0.000441657
9.60754e-05
-5.19984e-14
0.000338881
0.000100171
1.92844e-10
0.000235227
0.000104621
2.0404e-10
0.000126788
0.000110044
2.17328e-10
0.000116571
2.61167e-10
0.00168519
-2.22957e-06
1.3771e-12
0.00174073
1.10874e-05
-5.94935e-11
0.000987363
0.000174585
-3.99476e-10
0.00124563
0.000407474
1.52801e-10
0.00113409
0.000241502
5.48125e-11
0.00100796
0.000221928
2.29321e-10
0.000968436
0.00022381
2.11514e-10
0.00100998
0.000219063
1.63394e-10
0.000997536
0.000202592
1.1279e-10
0.00100764
0.000186589
5.86488e-11
0.00109238
0.000191101
1.92605e-10
0.00112921
0.00018739
9.48853e-11
0.00110914
0.000174498
8.20079e-11
0.00105042
0.000161916
1.09191e-10
0.00094181
0.000153094
3.05467e-11
0.000846032
0.000148919
1.89471e-12
0.000764894
0.00015195
-6.52196e-11
0.000696348
0.000162319
-1.19207e-10
0.000623587
0.000172917
-1.37104e-10
0.000541932
0.000182498
-1.13793e-10
0.00044826
0.000193347
-1.52189e-12
0.000344751
0.000202357
1.81998e-10
0.000239145
0.000211514
1.9862e-10
0.000128656
0.000221971
2.13495e-10
0.000234333
2.55896e-10
0.00169421
-3.43152e-06
4.68229e-12
0.00175887
1.54592e-05
-4.99677e-11
0.0010465
0.000239225
-3.64875e-10
0.0012634
0.000628394
1.04951e-10
0.00113786
0.00036407
1.83666e-10
0.00101201
0.000330929
2.13413e-10
0.000973783
0.000336165
1.87431e-10
0.00101543
0.00032934
1.39992e-10
0.00100537
0.000301663
1.00988e-10
0.00101326
0.00027867
6.21384e-11
0.00109728
0.000285694
1.55827e-10
0.00113603
0.000279945
9.11062e-11
0.00111811
0.000262422
7.77918e-11
0.00106143
0.000244922
6.90996e-11
0.000953663
0.000231068
5.48551e-11
0.000856559
0.000223964
3.18883e-11
0.00077504
0.000228178
-3.59705e-11
0.000706178
0.000243132
-9.16807e-11
0.000633855
0.000259598
-9.25988e-11
0.000551769
0.000275055
-8.34769e-11
0.000458974
0.00029242
-1.10501e-12
0.000355424
0.000306782
1.65636e-10
0.000247482
0.000321184
1.90825e-10
0.000133651
0.000336832
2.07978e-10
0.000355771
2.46596e-10
0.00170747
-4.42477e-06
1.17649e-11
0.00178427
1.86359e-05
-4.08853e-11
0.00113947
0.000277143
-3.47401e-10
0.00129053
0.000863665
2.48052e-10
0.00115189
0.0004896
8.06134e-11
0.00101971
0.000440398
1.54327e-10
0.000984609
0.000445547
1.76432e-10
0.00102581
0.000439677
1.69355e-10
0.00101799
0.000400336
9.32275e-11
0.00102019
0.000371405
8.82356e-11
0.00110327
0.000379539
7.11915e-11
0.00114473
0.000374
5.14178e-11
0.0011301
0.000352616
6.68581e-11
0.00107663
0.000329894
3.68483e-11
0.000970939
0.000310278
8.73474e-11
0.000872215
0.000300003
5.42414e-11
0.000790707
0.000304354
2.32468e-13
0.000721063
0.000323381
-4.78906e-11
0.000649159
0.000346569
-3.25283e-11
0.000565701
0.000367598
-2.70637e-11
0.000474413
0.000391985
1.33926e-11
0.000372904
0.000412545
1.36652e-10
0.000262619
0.000433063
1.73179e-10
0.00014277
0.000455382
1.93081e-10
0.000482415
2.22889e-10
0.00172368
-5.18329e-06
1.4143e-11
0.00180877
2.166e-05
-2.90802e-11
0.00126421
0.000293302
-2.76261e-10
0.00131552
0.00111028
2.73701e-10
0.00117998
0.00061753
5.46509e-11
0.00102843
0.000548743
1.07041e-10
0.000999173
0.000549164
1.70489e-10
0.00104048
0.00054913
1.86292e-10
0.00103502
0.00049854
9.79154e-11
0.00103055
0.000465993
1.09982e-10
0.00111051
0.000473194
1.61715e-11
0.00115568
0.000469048
8.33239e-11
0.00114544
0.000444866
9.93949e-11
0.00109479
0.000416473
6.39635e-11
0.000992492
0.000391477
1.11557e-10
0.000892022
0.000377186
7.00491e-11
0.000810543
0.00038084
2.42229e-11
0.000739786
0.000403165
-1.2753e-12
0.000669865
0.000433042
1.10345e-11
0.000585216
0.000460268
1.50632e-11
0.000495695
0.000492232
2.97585e-11
0.000397308
0.00051935
1.0711e-10
0.000283719
0.000547801
1.48884e-10
0.000156198
0.000578407
1.71969e-10
0.000618048
2.00789e-10
0.00174172
-5.54052e-06
1.41431e-11
0.00181738
2.5089e-05
-1.86341e-11
0.001395
0.000300495
-1.51188e-10
0.00132706
0.00135771
2.00899e-10
0.00120992
0.000753722
9.81349e-11
0.00103591
0.000652664
4.15323e-11
0.00101659
0.000646477
1.14318e-10
0.00106031
0.000656863
1.43318e-10
0.00105523
0.000598168
8.39062e-11
0.00104309
0.000560889
6.5399e-11
0.00111874
0.000565665
-3.8269e-11
0.00116836
0.000564818
7.99433e-11
0.00116307
0.000538521
9.90439e-11
0.00111518
0.000504403
7.94091e-11
0.00101817
0.000473958
1.53158e-10
0.000915884
0.000455893
3.44908e-11
0.000834595
0.000457767
3.68344e-11
0.000762396
0.000482072
2.13761e-11
0.000694941
0.000518725
3.38856e-11
0.000610969
0.000553499
5.04884e-11
0.000524005
0.000591733
4.63845e-11
0.000429305
0.000626361
8.55467e-11
0.000312057
0.000665242
1.21367e-10
0.000174723
0.000707274
1.44388e-10
0.000766445
1.75003e-10
0.00176171
-5.57833e-06
1.26803e-11
0.0018198
2.82634e-05
-1.51129e-11
0.00144131
0.000298825
-1.12085e-10
0.00132172
0.00158572
2.00028e-10
0.00122398
0.000902482
9.65944e-11
0.00104039
0.000747555
-1.62974e-11
0.00103699
0.000738043
7.20013e-11
0.00108679
0.000763291
1.18731e-10
0.00107844
0.000701122
7.00945e-11
0.00105891
0.000657362
4.94143e-11
0.00112829
0.000656198
-1.48037e-11
0.00118191
0.000659579
1.18662e-10
0.00118248
0.000632686
1.51544e-10
0.00113812
0.000593524
9.71843e-11
0.00104923
0.000558512
1.41487e-10
0.000944324
0.000535632
2.31311e-11
0.000863025
0.000534903
1.30611e-11
0.000789296
0.000559263
7.86011e-11
0.000724474
0.000602687
3.36244e-11
0.000646163
0.000645195
5.39463e-11
0.000564105
0.000689201
5.43879e-11
0.000470323
0.000733909
7.329e-11
0.000350027
0.000784722
9.50686e-11
0.000202041
0.000843454
1.13424e-10
0.000936238
1.47749e-10
0.0017836
-5.58226e-06
1.16584e-11
0.00182009
3.05528e-05
-1.34979e-11
0.00148853
0.000287187
-8.36898e-11
0.00129768
0.00178259
2.14136e-10
0.00121884
0.00106758
6.84098e-11
0.00104304
0.000831711
-2.62199e-11
0.00106201
0.000825874
8.99701e-11
0.0011184
0.000869409
1.36373e-10
0.00110357
0.000809917
8.33766e-11
0.00107688
0.000756032
7.25714e-11
0.00113814
0.000743828
-2.86495e-11
0.00119561
0.000751464
1.31772e-10
0.00120331
0.000726484
1.21037e-10
0.00116371
0.00068401
8.81286e-11
0.00108493
0.000645116
1.17929e-10
0.000978149
0.00061655
4.78244e-11
0.000895573
0.000611124
1.38755e-11
0.000821641
0.000633885
1.04011e-10
0.000762552
0.000682572
1.89615e-11
0.000690343
0.000733676
5.3627e-11
0.000612472
0.000784438
5.76317e-11
0.000522405
0.000838258
6.47397e-11
0.000400555
0.000905366
7.10166e-11
0.000241618
0.00098796
8.51372e-11
0.00113833
1.2172e-10
0.00180736
-5.71445e-06
1.04332e-11
0.00181343
3.02915e-05
-1.41568e-11
0.00153403
0.000271773
-5.91359e-11
0.00125008
0.00194972
2.06621e-10
0.00119151
0.00124787
5.49796e-11
0.00104657
0.000905256
-2.08609e-11
0.0010916
0.000912036
1.09544e-10
0.00115293
0.00097685
1.53121e-10
0.00112845
0.000926825
1.20285e-10
0.00109645
0.000857649
9.27554e-11
0.00114726
0.000830035
-1.675e-10
0.00120946
0.000838114
2.39297e-10
0.00122551
0.000818169
1.66343e-10
0.00119219
0.000775375
8.44311e-11
0.00112462
0.000732773
1.07601e-10
0.00101774
0.000699444
6.17972e-11
0.00093229
0.000686014
3.46858e-11
0.000860172
0.000706322
9.3094e-11
0.00080557
0.00075799
4.04709e-11
0.000741234
0.000815932
6.13148e-11
0.000670528
0.000874157
5.97992e-11
0.000586826
0.000938024
6.09029e-11
0.000468674
0.00102336
5.40612e-11
0.000306537
0.00113421
5.87244e-11
0.00140611
9.91712e-11
0.00183252
8.96094e-12
-5.73194e-06
0.00180517
-1.12206e-11
2.85396e-05
0.00157919
-5.08907e-11
0.000257382
0.00117262
1.55109e-10
0.00203973
0.00114098
5.87241e-11
0.00142419
0.0010576
5.83297e-12
0.000967549
0.00112742
1.25404e-10
0.00100204
0.00119144
1.51579e-10
0.00109073
0.00114955
1.12891e-10
0.00105262
0.00111823
8.6506e-11
0.000960388
0.00115248
-1.0613e-11
0.000911792
0.00122312
1.74679e-10
0.000922239
0.00125015
1.50517e-10
0.000908849
0.00122388
8.8651e-11
0.000867794
0.00116678
9.99212e-11
0.000822751
0.00106194
6.70735e-11
0.000783423
0.00097383
5.68116e-11
0.000761094
0.00090421
8.64607e-11
0.000776914
0.000854274
6.16401e-11
0.000827787
0.000799954
6.94708e-11
0.000890179
0.000740155
6.49338e-11
0.000954769
0.000668558
5.86703e-11
0.00102728
0.00056491
4.73645e-11
0.00112892
0.00041092
3.73279e-11
0.00127584
7.15333e-11
0.00177912
0.00168093
-9.45545e-07
-1.77054e-12
0.00173301
5.57858e-06
5.70953e-11
0.000965197
9.03039e-05
4.11597e-10
0.00124725
0.000198083
-1.22243e-10
0.00113694
0.000122456
-2.61871e-11
0.00100887
0.000111945
-8.98447e-11
0.000971075
0.0001107
-1.17441e-10
0.00101431
0.000108577
-1.19903e-10
0.00100015
0.000101718
-7.81328e-11
0.00100959
9.36657e-05
-1.05247e-11
0.00109301
9.6103e-05
-1.01533e-10
0.00112714
9.45853e-05
8.14433e-12
0.00110427
8.7686e-05
-1.68146e-11
0.00104308
8.10302e-05
-7.62228e-11
0.000933949
7.63104e-05
-5.74651e-11
0.000839149
7.41511e-05
-7.81879e-11
0.000758313
7.57874e-05
-3.15865e-11
0.000690188
8.1059e-05
-2.19323e-11
0.000617429
8.63603e-05
1.45015e-12
0.000535562
9.10182e-05
1.60054e-11
0.000441357
9.60686e-05
1.43783e-11
0.000338658
0.000100166
-1.15699e-11
0.000235064
0.000104624
3.34301e-12
0.000126695
0.000110046
8.06227e-12
0.00011658
-1.04778e-11
0.00168516
-2.22766e-06
4.29497e-12
0.00174067
1.10905e-05
4.55651e-11
0.000987379
0.000174569
3.04887e-10
0.00124616
0.000407409
1.54337e-11
0.00113454
0.000241569
-2.28804e-11
0.00100848
0.000221921
-1.29943e-10
0.000969171
0.000223753
-1.00796e-10
0.00101091
0.000219007
-4.87727e-11
0.000998591
0.000202467
-3.88658e-11
0.00100843
0.000186375
6.79864e-12
0.00109327
0.000190765
-1.36799e-10
0.0011302
0.000187351
3.17281e-12
0.0011099
0.000174756
1.51037e-12
0.00105094
0.000162296
-6.85862e-11
0.000942124
0.000153431
-2.87509e-11
0.000846207
0.000149114
-7.06766e-11
0.000764979
0.000152087
-3.21543e-11
0.000696377
0.000162377
-3.2115e-11
0.000623552
0.000172947
-1.79617e-12
0.00054177
0.000182508
1.17637e-11
0.000447978
0.000193345
1.1479e-11
0.000344527
0.000202348
-9.79489e-12
0.000238976
0.00021152
3.47159e-12
0.000128558
0.00022197
7.20514e-12
0.000234341
-1.157e-11
0.00169418
-3.42602e-06
8.18148e-13
0.0017588
1.54623e-05
4.09136e-11
0.00104631
0.00023922
2.96583e-10
0.00126354
0.000628119
4.52214e-11
0.00113819
0.0003641
-1.21224e-10
0.00101245
0.000330931
-1.06726e-10
0.000974256
0.000336024
-7.43209e-11
0.00101593
0.00032916
-3.0989e-11
0.00100587
0.000301477
-1.5258e-11
0.00101339
0.000278432
1.44815e-12
0.00109744
0.000285463
-5.97792e-11
0.00113627
0.000280082
-4.21826e-12
0.00111829
0.000262822
-1.03483e-11
0.00106154
0.00024536
-2.1301e-11
0.000953698
0.000231455
-4.39715e-11
0.000856576
0.000224212
-7.79484e-11
0.000775021
0.000228358
-3.56271e-11
0.000706145
0.000243213
-3.68695e-11
0.00063377
0.000259649
-2.366e-11
0.00055161
0.000275074
-2.21593e-12
0.000458717
0.000292419
6.86028e-12
0.000355209
0.000306765
-6.8237e-12
0.00024732
0.000321188
3.54208e-12
0.000133557
0.000336825
5.91658e-12
0.000355772
-1.24765e-11
0.00170744
-4.42254e-06
-4.16173e-12
0.00178421
1.86417e-05
3.70361e-11
0.00113923
0.000277207
3.01861e-10
0.00129041
0.000863389
-5.08661e-11
0.001152
0.000489589
-3.93141e-11
0.00101991
0.000440324
-5.19437e-11
0.000984756
0.000445344
-5.51645e-11
0.00102589
0.000439463
-5.33427e-11
0.00101804
0.000400201
6.05125e-12
0.00102003
0.000371347
-1.69998e-11
0.00110307
0.000379475
4.20045e-11
0.00114446
0.000374266
8.20764e-12
0.00112974
0.000353044
-1.88709e-11
0.00107624
0.000330324
-1.25886e-11
0.000970567
0.000310627
-6.02215e-11
0.000871952
0.000300231
-8.65659e-11
0.000790521
0.000304485
-6.83702e-11
0.000720929
0.000323477
-4.33479e-11
0.000648982
0.000346597
-5.86968e-11
0.000565527
0.000367597
-3.01995e-11
0.000474191
0.000391969
-3.12625e-12
0.000372708
0.000412514
1.3421e-12
0.00026247
0.000433056
4.0063e-12
0.00014268
0.000455365
3.65734e-12
0.000482401
-1.28361e-11
0.00172365
-5.18338e-06
-6.0592e-12
0.00180874
2.16641e-05
2.9427e-11
0.00126401
0.000293387
2.56244e-10
0.00131542
0.0011101
-5.3728e-11
0.00117992
0.000617434
-1.35871e-11
0.00102847
0.000548633
-9.62207e-12
0.000999116
0.000549025
-4.10718e-11
0.00104034
0.000548982
-6.34061e-11
0.00103483
0.000498478
3.80293e-12
0.00103044
0.00046595
-2.51458e-11
0.00111033
0.000473508
1.10209e-10
0.00115519
0.000469408
-7.29828e-12
0.00114478
0.000445266
-3.81239e-11
0.00109416
0.000416819
-9.58028e-12
0.000991862
0.000391739
-9.13242e-11
0.00089153
0.000377271
-6.25474e-11
0.000810154
0.000380857
-6.67921e-11
0.000739532
0.000403143
-7.28938e-11
0.000669631
0.000433022
-8.40194e-11
0.000585022
0.000460233
-7.00219e-11
0.000495504
0.000492189
-1.33762e-11
0.00039713
0.000519305
1.17391e-11
0.000283589
0.000547774
6.44264e-12
0.000156123
0.000578376
3.21431e-12
0.000618025
-1.47041e-11
0.00174169
-5.54124e-06
-6.32811e-12
0.00181738
2.50914e-05
2.1828e-11
0.00139504
0.000300555
1.68402e-10
0.00132708
0.00135762
7.65662e-12
0.00120986
0.000753614
-4.04125e-11
0.00103592
0.000652615
6.89588e-11
0.0010165
0.000646467
1.2901e-11
0.00106009
0.000656876
-2.84187e-11
0.00105493
0.000598273
-1.70796e-13
0.00104278
0.000561106
-1.38066e-11
0.00111837
0.00056599
1.3734e-10
0.00116766
0.000565217
-4.34529e-11
0.00116218
0.000538832
-5.25446e-11
0.00111434
0.000504532
-2.63086e-11
0.00101737
0.000473966
-1.49469e-10
0.000915349
0.000455754
-6.65676e-13
0.000834163
0.000457643
-5.10056e-11
0.000762115
0.000481959
-6.64841e-11
0.000694672
0.000518636
-8.09347e-11
0.000610749
0.000553408
-8.622e-11
0.000523822
0.000591667
-1.68861e-11
0.000429152
0.000626299
1.28805e-11
0.000311942
0.0006652
9.32222e-12
0.000174655
0.000707228
4.08082e-12
0.000766405
-1.60614e-11
0.00176169
-5.5787e-06
-5.67377e-12
0.00181981
2.8266e-05
1.83778e-11
0.00144136
0.000298878
1.34194e-10
0.0013218
0.00158565
2.54768e-11
0.00122398
0.000902439
-2.82013e-11
0.00104041
0.000747573
1.25185e-10
0.00103689
0.000738117
6.65771e-11
0.00108656
0.000763438
-9.44344e-13
0.00107816
0.000701378
-4.74022e-12
0.00105868
0.000657732
-6.88608e-12
0.00112804
0.000656698
1.21565e-10
0.00118124
0.000660088
-6.33979e-11
0.00118147
0.00063283
-8.66779e-11
0.00113711
0.000593369
-4.07343e-11
0.00104813
0.000558133
-1.25527e-10
0.000943674
0.000535252
-4.7319e-12
0.000862588
0.000534637
-1.30652e-12
0.00078905
0.000559084
-9.75483e-11
0.000724259
0.000602536
-6.99775e-11
0.000645969
0.000645072
-6.33353e-11
0.000563941
0.000689103
-9.40471e-12
0.00047019
0.000733829
1.60934e-11
0.000349932
0.000784664
1.31473e-11
0.000201982
0.000843401
5.7739e-12
0.000936175
-1.60901e-11
0.00178358
-5.58284e-06
-5.25099e-12
0.00182012
3.05557e-05
1.60165e-11
0.0014886
0.000287233
1.05892e-10
0.0012978
0.00178255
2.98571e-11
0.00121889
0.0010676
2.18131e-12
0.00104306
0.000831776
1.36344e-10
0.0010619
0.00082598
6.00678e-11
0.00111823
0.00086963
3.2393e-12
0.00110336
0.000810253
-2.21997e-11
0.00107673
0.0007564
-1.94831e-11
0.00113813
0.000744468
8.56814e-11
0.00119515
0.000752054
-6.65913e-11
0.00120244
0.000726509
-6.0814e-11
0.00116277
0.000683666
-3.78988e-11
0.00108385
0.000644577
-9.49357e-11
0.000977448
0.000616064
-3.93575e-11
0.000895151
0.00061082
-1.13426e-11
0.000821394
0.000633679
-1.17278e-10
0.000762381
0.000682438
-4.34423e-11
0.000690175
0.000733534
-4.68955e-11
0.000612326
0.00078431
-4.52557e-12
0.000522301
0.000838155
1.55096e-11
0.00040048
0.000905305
1.71331e-11
0.00024157
0.0009879
1.02736e-11
0.00113824
-1.37998e-11
0.00180735
-5.71587e-06
-4.7327e-12
0.00181347
3.0295e-05
1.52509e-11
0.0015341
0.000271807
7.97514e-11
0.00125024
0.00194974
3.18266e-11
0.00119159
0.00124792
1.61393e-11
0.00104658
0.000905344
1.35717e-10
0.00109153
0.000912143
4.53955e-11
0.00115281
0.000977105
6.31996e-12
0.0011283
0.000927194
-4.48016e-11
0.00109627
0.00085799
-3.34739e-11
0.00114741
0.000830699
1.23971e-10
0.00120917
0.000838668
-1.33479e-10
0.00122491
0.000818151
-7.147e-11
0.00119151
0.000775037
-3.52846e-11
0.00112383
0.00073228
-7.92736e-11
0.00101717
0.00069902
-5.0138e-11
0.00093194
0.00068574
-3.67456e-11
0.000859943
0.00070611
-8.87384e-11
0.000805421
0.000757858
-5.31295e-11
0.00074109
0.000815775
-4.22475e-11
0.000670402
0.000874012
-9.63827e-13
0.000586742
0.000937901
1.63715e-11
0.000468621
0.0010233
1.72437e-11
0.000306501
0.00113415
1.45419e-11
0.00140602
-8.46518e-12
0.00183251
-4.30505e-12
-5.73298e-06
0.00180519
1.23583e-11
2.85437e-05
0.00157925
6.54852e-11
0.000257419
0.00117285
4.93388e-11
0.00203985
0.00114108
1.80237e-11
0.00142424
0.0010576
1.08565e-10
0.000967599
0.00112739
3.93697e-11
0.00100209
0.00119139
1.86443e-11
0.00109097
0.00114948
-2.79629e-11
0.00105298
0.00111807
-2.86655e-11
0.000960734
0.00115276
4.44587e-11
0.000912546
0.00122301
-1.01889e-10
0.000922594
0.00124982
-6.23464e-11
0.000908793
0.0012235
-4.18781e-11
0.00086756
0.00116635
-7.83284e-11
0.000822433
0.00106159
-5.31143e-11
0.000783124
0.000973583
-5.78028e-11
0.000760875
0.000904037
-8.64814e-11
0.000776717
0.000854154
-6.78465e-11
0.000827637
0.000799847
-3.95953e-11
0.000890004
0.000740059
-1.31552e-12
0.000954615
0.000668492
1.75832e-11
0.00102715
0.000564879
3.17045e-11
0.00112884
0.000410896
2.73373e-11
0.00127578
-1.61258e-13
0.00177901
0.00168096
-9.42553e-07
2.74483e-12
0.00173307
5.56839e-06
-6.15661e-12
0.000965497
9.01588e-05
-4.77653e-11
0.00124756
0.000197931
1.04369e-10
0.00113705
0.000122599
4.73726e-11
0.00100896
0.00011198
3.10277e-11
0.000971267
0.000110612
2.49298e-11
0.00101456
0.000108548
2.51923e-11
0.00100029
0.000101827
2.63938e-11
0.00100971
9.38357e-05
2.08624e-11
0.00109285
9.63121e-05
1.69769e-11
0.00112663
9.4741e-05
1.79885e-11
0.00110367
8.76818e-05
1.22912e-11
0.00104248
8.09101e-05
2.50666e-12
0.000933503
7.6167e-05
-9.70625e-12
0.000838881
7.40397e-05
-4.70195e-11
0.000758116
7.5702e-05
-8.36954e-11
0.000690073
8.10058e-05
-1.11683e-10
0.000617379
8.63247e-05
-9.81839e-11
0.000535602
9.09954e-05
-7.04315e-11
0.000441499
9.60565e-05
-1.18423e-11
0.000338814
0.000100159
9.52317e-11
0.000235191
0.000104617
1.15094e-10
0.000126775
0.000110039
1.24749e-10
0.000116572
1.41221e-10
0.00168518
-2.22946e-06
2.05968e-12
0.00174071
1.10895e-05
-4.67587e-12
0.000987384
0.000174602
-3.53724e-11
0.00124575
0.000407468
9.03491e-11
0.00113422
0.000241528
4.19952e-11
0.00100812
0.000221971
3.05619e-11
0.000968597
0.000223907
2.44558e-11
0.00101013
0.00021922
2.06919e-11
0.00099768
0.000202766
2.00865e-11
0.00100781
0.000186707
1.15058e-11
0.00109244
0.000191147
1.70819e-11
0.00112911
0.000187305
1.03496e-11
0.00110897
0.000174375
9.43119e-12
0.00105021
0.000161819
-2.45036e-12
0.000941643
0.000153044
-1.83075e-11
0.000845952
0.000148902
-4.97988e-11
0.000764817
0.000151936
-8.56232e-11
0.00069628
0.000162301
-1.09787e-10
0.000623504
0.000172879
-9.41866e-11
0.00054181
0.000182462
-6.66323e-11
0.000448115
0.000193319
-1.05987e-11
0.000344681
0.000202334
9.35392e-11
0.000239103
0.000211506
1.12432e-10
0.000128637
0.000221956
1.21729e-10
0.000234328
1.37407e-10
0.0016942
-3.43005e-06
1.97117e-12
0.00175885
1.54608e-05
-2.38871e-12
0.00104649
0.000239235
-2.24701e-11
0.00126347
0.000628316
7.86568e-11
0.001138
0.000364104
4.05411e-11
0.0010122
0.000330983
2.85135e-11
0.000973964
0.000336239
2.24268e-11
0.00101562
0.000329469
1.87923e-11
0.00100558
0.000301823
1.65893e-11
0.0010134
0.000278758
7.56422e-12
0.00109737
0.000285721
1.88432e-11
0.00113607
0.000279896
8.77098e-12
0.00111808
0.000262365
2.79828e-12
0.00106134
0.000244857
-1.6525e-11
0.00095356
0.000231043
-2.356e-11
0.000856486
0.000223944
-5.75482e-11
0.000774959
0.000228168
-9.04621e-11
0.000706112
0.000243097
-1.10939e-10
0.000633776
0.00025956
-8.77173e-11
0.000551672
0.000275018
-5.96327e-11
0.000458858
0.00029239
-8.16129e-12
0.000355366
0.000306749
9.05837e-11
0.000247447
0.00032117
1.08723e-10
0.000133635
0.000336806
1.17741e-10
0.000355755
1.31336e-10
0.00170746
-4.42429e-06
1.78357e-12
0.00178426
1.86375e-05
4.87569e-13
0.00113945
0.000277163
-3.31175e-12
0.00129054
0.000863561
7.14019e-11
0.001152
0.000489618
2.94015e-11
0.00101986
0.000440421
2.96298e-11
0.000984756
0.000445576
2.05674e-11
0.00102597
0.000439768
1.94172e-11
0.0010182
0.00040047
1.37888e-11
0.00102026
0.000371554
3.11695e-12
0.00110332
0.000379535
4.94514e-12
0.00114479
0.000374016
-8.27493e-12
0.00113009
0.000352596
-9.114e-12
0.00107655
0.000329881
-1.12436e-11
0.000970831
0.000310247
-3.56452e-11
0.000872151
0.000300018
-5.24182e-11
0.000790654
0.000304358
-8.73346e-11
0.000721011
0.000323396
-1.01916e-10
0.000649073
0.000346536
-8.37289e-11
0.000565621
0.000367557
-5.52736e-11
0.000474328
0.000391949
-4.72561e-12
0.000372863
0.000412504
8.51582e-11
0.000262597
0.000433039
1.00587e-10
0.000142756
0.000455346
1.09179e-10
0.000482383
1.17442e-10
0.00172367
-5.18346e-06
1.43392e-12
0.00180877
2.16607e-05
3.07557e-12
0.0012642
0.000293325
1.61209e-11
0.00131555
0.00111017
6.3602e-11
0.00118005
0.000617514
2.00565e-11
0.00102856
0.000548737
1.10889e-11
0.000999278
0.000549166
2.05341e-11
0.00104061
0.000549163
2.12249e-11
0.00103521
0.000498615
1.27063e-11
0.00103077
0.000466002
1.04413e-11
0.0011107
0.00047336
-1.38578e-11
0.00115581
0.00046909
-9.11933e-12
0.0011455
0.000444898
-8.11774e-12
0.00109478
0.000416529
-2.34835e-11
0.000992419
0.000391537
-2.44968e-11
0.000891913
0.000377234
-4.12237e-11
0.000810435
0.00038084
-8.61449e-11
0.000739696
0.000403162
-9.4606e-11
0.00066979
0.000433002
-7.67742e-11
0.000585156
0.000460221
-5.0244e-11
0.000495633
0.000492194
-1.74771e-12
0.000397282
0.000519304
7.62712e-11
0.000283713
0.000547762
8.8709e-11
0.000156197
0.000578358
9.70503e-11
0.000618008
1.02497e-10
0.00174171
-5.54081e-06
8.55386e-13
0.00181739
2.50892e-05
5.07137e-12
0.00139507
0.000300507
3.10147e-11
0.00132713
0.00135761
7.48294e-11
0.00120999
0.000753688
1.31957e-11
0.00103602
0.00065265
1.158e-12
0.00101668
0.00064647
6.28453e-12
0.0010604
0.000656884
1.50853e-11
0.00105537
0.000598258
1.09996e-11
0.00104311
0.000561017
1.42963e-11
0.00111871
0.000565603
-3.8608e-11
0.0011684
0.000564854
-2.29651e-12
0.00116313
0.000538658
-8.66672e-12
0.0011152
0.000504523
-2.45098e-11
0.00101815
0.000474074
1.96857e-12
0.000915784
0.000455909
-9.88646e-11
0.000834474
0.000457739
-9.4295e-11
0.000762279
0.000482024
-1.00204e-10
0.000694864
0.000518669
-7.89328e-11
0.000610922
0.000553451
-3.79225e-11
0.000523975
0.000591693
8.0403e-12
0.000429299
0.000626311
5.39562e-11
0.000312061
0.000665197
7.29573e-11
0.000174726
0.000707213
8.15237e-11
0.000766391
8.5421e-11
0.00176171
-5.57844e-06
1.58222e-13
0.00181981
2.82638e-05
6.87531e-12
0.00144139
0.000298836
4.20654e-11
0.00132182
0.0015856
8.74333e-11
0.00122406
0.000902454
4.51888e-12
0.00104049
0.000747541
-7.09757e-12
0.00103705
0.000738021
-1.65067e-12
0.00108684
0.000763307
5.69709e-12
0.00107855
0.000701236
4.03158e-12
0.00105898
0.00065754
5.10996e-12
0.00112827
0.000656174
-5.4452e-11
0.0011819
0.000659732
6.83007e-12
0.00118244
0.000632873
1.56163e-11
0.00113805
0.000593631
-1.40553e-11
0.0010491
0.00055853
-1.19754e-11
0.000944209
0.000535586
-9.95536e-11
0.000862913
0.000534834
-1.16073e-10
0.000789192
0.000559196
-8.15971e-11
0.00072439
0.000602618
-8.97688e-11
0.000646108
0.000645143
-4.0868e-11
0.000564087
0.000689153
2.32668e-12
0.000470327
0.000733855
3.97299e-11
0.000350042
0.00078467
5.6842e-11
0.000202049
0.000843392
6.42105e-11
0.000936168
6.63697e-11
0.00178359
-5.5825e-06
-5.09269e-13
0.00182012
3.05535e-05
8.63553e-12
0.00148861
0.000287198
5.06085e-11
0.0012978
0.00178249
9.36086e-11
0.00121893
0.00106756
-4.05787e-12
0.00104313
0.000831692
-6.44238e-12
0.00106203
0.000825829
-4.27965e-12
0.00111843
0.000869405
1.45156e-12
0.00110364
0.000810025
-6.01392e-14
0.00107696
0.000756145
5.27242e-13
0.00113827
0.000743968
-3.80186e-11
0.00119563
0.00075176
1.03299e-11
0.00120321
0.000726695
-8.80489e-12
0.00116356
0.000684073
-2.3863e-11
0.0010847
0.000645078
-1.88242e-11
0.000977952
0.000616435
-8.32837e-11
0.00089544
0.000611019
-1.05974e-10
0.00082154
0.000633799
-7.13195e-11
0.000762485
0.000682515
-9.29622e-11
0.000690297
0.000733624
-4.4957e-11
0.00061246
0.00078438
-3.05498e-12
0.000522424
0.000838194
1.96262e-11
0.000400579
0.000905319
4.0044e-11
0.000241631
0.000987895
4.68096e-11
0.00113824
4.72473e-11
0.00180736
-5.71517e-06
-1.03101e-12
0.00181346
3.02927e-05
9.19005e-12
0.0015341
0.000271782
5.60225e-11
0.00125021
0.00194966
9.79238e-11
0.0011916
0.00124786
2.99535e-12
0.00104663
0.000905229
2.79025e-12
0.00109162
0.000911963
2.78629e-13
0.00115292
0.000976824
2.33621e-12
0.00112846
0.000926915
2.64269e-12
0.00109642
0.000857707
4.49312e-12
0.00114744
0.000830261
-4.46673e-11
0.0012095
0.000838472
2.40172e-11
0.00122542
0.000818355
-6.79199e-12
0.00119205
0.000775415
-4.44232e-11
0.00112442
0.00073272
-2.58487e-11
0.00101755
0.000699346
-6.87611e-11
0.000932148
0.000685914
-9.68093e-11
0.00086006
0.000706229
-8.6093e-11
0.000805505
0.00075794
-8.08005e-11
0.000741193
0.00081588
-4.29659e-11
0.000670517
0.000874099
-6.81343e-12
0.000586849
0.000937953
1.12627e-11
0.000468706
0.00102332
2.30041e-11
0.000306553
0.00113415
3.15984e-11
0.00140602
3.2174e-11
0.00183252
-1.50388e-12
-5.73245e-06
0.00180519
1.03977e-11
2.85415e-05
0.00157925
4.79567e-11
0.000257397
0.00117279
1.28956e-10
0.00203973
0.00114107
-1.69445e-11
0.00142417
0.00105765
-2.43848e-11
0.000967488
0.00112744
-6.22275e-12
0.00100192
0.00119144
5.5557e-13
0.00109068
0.00114953
1.25111e-11
0.0010527
0.00111813
5.57892e-12
0.000960421
0.00115271
-2.41353e-11
0.000912135
0.00122319
1.35235e-11
0.000922515
0.00125008
-2.49828e-11
0.000908983
0.00122377
-6.72746e-11
0.000867831
0.00116665
-1.84751e-11
0.000822711
0.0010618
-8.29717e-11
0.000783352
0.000973712
-7.81211e-11
0.000761012
0.000904111
-7.18093e-11
0.000776836
0.000854214
-6.23969e-11
0.000827732
0.000799925
-4.49937e-11
0.000890122
0.000740149
-1.24893e-11
0.000954719
0.000668578
5.99321e-12
0.00102721
0.000564947
9.63902e-12
0.00112886
0.000410938
1.26995e-11
0.00127578
1.80685e-11
0.00177902
0.00168095
-9.42986e-07
-1.37396e-11
0.00173306
5.56974e-06
1.05385e-10
0.000965477
9.01815e-05
7.91196e-10
0.00124753
0.000197958
-3.98719e-10
0.00113703
0.000122593
-6.6601e-11
0.00100894
0.000111981
6.44596e-11
0.000971233
0.000110627
2.14303e-11
0.00101451
0.000108564
-2.57938e-11
0.00100023
0.000101833
-3.81789e-11
0.00100967
9.38277e-05
-3.279e-11
0.00109283
9.62976e-05
-3.26426e-11
0.00112662
9.47232e-05
-2.44044e-11
0.00110364
8.76783e-05
-1.69037e-11
0.00104242
8.09187e-05
-5.56859e-12
0.000933414
7.61801e-05
1.61132e-11
0.000838787
7.40523e-05
5.70703e-11
0.00075802
7.57126e-05
9.44461e-11
0.000689986
8.10136e-05
1.18173e-10
0.000617299
8.63286e-05
1.17825e-10
0.000535528
9.0997e-05
9.47031e-11
0.000441422
9.60569e-05
2.83708e-11
0.000338757
0.000100157
-3.74856e-11
0.000235142
0.00010462
-1.58742e-11
0.000126749
0.000110042
-3.14108e-12
0.000116579
-3.26348e-12
0.00168518
-2.22964e-06
-1.21079e-11
0.0017407
1.10911e-05
1.03009e-10
0.000987386
0.000174624
7.69986e-10
0.00124577
0.000407496
-3.80179e-10
0.00113423
0.000241541
-6.41536e-11
0.00100813
0.000221971
5.5537e-11
0.00096862
0.000223908
1.84999e-11
0.00101016
0.000219223
-2.42758e-11
0.000997712
0.000202762
-3.82167e-11
0.00100784
0.000186687
-3.3995e-11
0.00109248
0.000191116
-3.41299e-11
0.00112916
0.000187294
-2.24838e-11
0.00110898
0.000174398
-1.43132e-11
0.00105017
0.000161858
-8.60902e-12
0.000941564
0.000153081
5.31215e-12
0.00084586
0.000148924
3.94817e-11
0.000764719
0.000151953
7.32284e-11
0.000696192
0.00016231
1.01103e-10
0.000623424
0.000172886
1.04656e-10
0.000541739
0.000182465
9.0196e-11
0.000448041
0.00019332
3.49588e-11
0.000344626
0.000202331
-3.19168e-11
0.000239056
0.00021151
-1.51632e-11
0.000128612
0.000221963
-3.9662e-12
0.000234338
-4.27041e-12
0.0016942
-3.43024e-06
-1.28656e-11
0.00175884
1.5463e-05
9.30645e-11
0.00104648
0.000239265
7.26455e-10
0.00126347
0.000628352
-3.55904e-10
0.001138
0.000364117
-6.34899e-11
0.00101221
0.000330983
4.7626e-11
0.000973987
0.000336224
2.06511e-11
0.00101565
0.000329442
-2.30443e-11
0.00100563
0.000301791
-4.32481e-11
0.00101343
0.000278714
-3.85576e-11
0.00109741
0.000285669
-3.75823e-11
0.0011361
0.000279886
-2.18112e-11
0.00111807
0.000262401
-1.15013e-11
0.00106128
0.000244929
-9.26938e-12
0.000953471
0.000231094
-3.68885e-12
0.000856402
0.000223992
1.49803e-11
0.000774871
0.0002282
4.50634e-11
0.000706027
0.000243129
7.82269e-11
0.000633689
0.000259571
8.51656e-11
0.0005516
0.000275022
8.25956e-11
0.000458787
0.000292391
4.50569e-11
0.000355314
0.000306743
-2.31515e-11
0.000247404
0.000321174
-1.43097e-11
0.000133612
0.000336813
-5.20271e-12
0.000355767
-4.6884e-12
0.00170746
-4.42452e-06
-1.52065e-11
0.00178425
1.86396e-05
7.66234e-11
0.00113946
0.000277192
6.43205e-10
0.00129055
0.000863611
-3.09036e-10
0.00115201
0.000489644
-5.24112e-11
0.00101988
0.000440419
4.25872e-11