/*--------------------------------*- C++ -*----------------------------------*\
| =========                 |                                                 |
| \\      /  F ield         | OpenFOAM: The Open Source CFD Toolbox           |
|  \\    /   O peration     | Version:  4.1                                   |
|   \\  /    A nd           | Web:      www.OpenFOAM.org                      |
|    \\/     M anipulation  |                                                 |
\*---------------------------------------------------------------------------*/
FoamFile
{
    version     2.0;
    format      ascii;
    class       volVectorField;
    location    "0.74";
    object      U;
}
// * * * * * * * * * * * * * * * * * * * * * * * * * * * * * * * * * * * * * //

dimensions      [0 1 -1 0 0 0 0];

internalField   nonuniform List<vector> 
52500
(
(1.91137 -0.000210897 -0.00172692)
(1.35763 0.00145148 -0.00446707)
(0.361959 0.00988124 -0.00717706)
(-0.0165924 0.0153391 -0.00837383)
(0.334255 0.0146224 -0.00868668)
(0.344981 0.0150333 -0.00912928)
(0.27019 0.0156922 -0.00919614)
(0.26765 0.0163984 -0.00911933)
(0.320585 0.0170212 -0.00906394)
(0.334414 0.016868 -0.00882389)
(0.32805 0.0167338 -0.00801481)
(0.334893 0.0160216 -0.00733395)
(0.345796 0.0151455 -0.00706819)
(0.353714 0.0146519 -0.00706226)
(0.35349 0.0148097 -0.0072273)
(0.340106 0.0155276 -0.00748356)
(0.31616 0.0164865 -0.00759577)
(0.286223 0.0176191 -0.00754475)
(0.25752 0.0185291 -0.0074263)
(0.225047 0.0196239 -0.00743995)
(0.191874 0.0210628 -0.00743911)
(0.156557 0.0227548 -0.00732849)
(0.125654 0.024657 -0.00714748)
(0.0708053 0.0267187 -0.00695911)
(0.035375 0.0275304 -0.00659598)
(1.90995 -0.000727916 -0.001734)
(1.36634 0.00439987 -0.00442945)
(0.368656 0.0305458 -0.00712864)
(-0.0145228 0.0458515 -0.00835792)
(0.33059 0.0396027 -0.00867022)
(0.344117 0.0387729 -0.00910864)
(0.270063 0.0394865 -0.00917273)
(0.266307 0.0401066 -0.00909568)
(0.318523 0.0394695 -0.00903998)
(0.332814 0.0373444 -0.0088016)
(0.327319 0.0362097 -0.00799523)
(0.334759 0.0342888 -0.00731518)
(0.346335 0.0325501 -0.00704775)
(0.354934 0.0318894 -0.00703893)
(0.355313 0.0323666 -0.00719823)
(0.342306 0.0337247 -0.00745578)
(0.318544 0.0354402 -0.00757045)
(0.288488 0.0375677 -0.00752162)
(0.25965 0.0392548 -0.00739846)
(0.227461 0.0415664 -0.00740767)
(0.194427 0.044719 -0.00740393)
(0.159093 0.048286 -0.00729393)
(0.127729 0.0521941 -0.00711281)
(0.0718902 0.0557421 -0.00692317)
(0.0355599 0.0567179 -0.00655941)
(1.90647 -0.00131871 -0.00175182)
(1.38464 0.00705532 -0.00435033)
(0.384032 0.0504345 -0.00703957)
(-0.00718735 0.079329 -0.00834102)
(0.324796 0.0661373 -0.00864014)
(0.344545 0.0649237 -0.0090756)
(0.27268 0.0671935 -0.00915192)
(0.267782 0.0687197 -0.00907444)
(0.319459 0.0673298 -0.00901882)
(0.33483 0.0639481 -0.00879152)
(0.330046 0.0625146 -0.00799828)
(0.336965 0.0597779 -0.00730604)
(0.348525 0.057371 -0.00702324)
(0.357335 0.0566152 -0.00700545)
(0.358087 0.0575034 -0.00715299)
(0.345729 0.0599577 -0.00741818)
(0.322673 0.0629672 -0.00754252)
(0.292804 0.0667485 -0.00750071)
(0.263943 0.069932 -0.00737238)
(0.232329 0.0741331 -0.00737469)
(0.19961 0.0796645 -0.00736732)
(0.164282 0.0856424 -0.00726005)
(0.132196 0.0921232 -0.00707807)
(0.0749798 0.0981276 -0.00688868)
(0.0364399 0.0994413 -0.00652224)
(1.90103 -0.00184326 -0.00178004)
(1.40979 0.00903579 -0.00423834)
(0.407406 0.0657934 -0.00692362)
(0.00472131 0.113285 -0.00832404)
(0.315239 0.0925086 -0.00859176)
(0.345675 0.0908582 -0.00902167)
(0.277219 0.0942542 -0.00912305)
(0.270067 0.0966693 -0.00904737)
(0.320616 0.0940254 -0.00899677)
(0.337948 0.0894978 -0.00879691)
(0.334491 0.0875071 -0.00803936)
(0.340331 0.0836011 -0.00731384)
(0.351522 0.0802167 -0.00700455)
(0.360646 0.0790709 -0.0069744)
(0.362256 0.0800151 -0.00710973)
(0.350983 0.0834761 -0.00737953)
(0.328951 0.0878507 -0.00751395)
(0.299476 0.093523 -0.00748124)
(0.270632 0.0984938 -0.00734595)
(0.239954 0.104815 -0.00733786)
(0.207854 0.113215 -0.00732456)
(0.172736 0.122339 -0.00722028)
(0.140049 0.132151 -0.00704163)
(0.0807448 0.141404 -0.00685148)
(0.038028 0.143619 -0.00648808)
(1.89381 -0.00227603 -0.00181768)
(1.43848 0.0106203 -0.00410883)
(0.438988 0.076656 -0.00679214)
(0.0207659 0.148148 -0.00831075)
(0.301307 0.118842 -0.00853009)
(0.347255 0.116393 -0.00895035)
(0.283117 0.120245 -0.00909053)
(0.272736 0.123886 -0.00901573)
(0.321882 0.119899 -0.00896999)
(0.341982 0.115441 -0.00879494)
(0.339849 0.113034 -0.00808406)
(0.344348 0.107964 -0.00732991)
(0.355161 0.103694 -0.00698387)
(0.364385 0.10216 -0.0069344)
(0.366772 0.102927 -0.00705161)
(0.357071 0.107157 -0.00732514)
(0.336635 0.112791 -0.00747754)
(0.307962 0.120209 -0.00745741)
(0.279289 0.12693 -0.00731889)
(0.250026 0.135331 -0.00729723)
(0.219121 0.146682 -0.00727649)
(0.184464 0.159249 -0.00717468)
(0.151024 0.172682 -0.00700066)
(0.0891437 0.185592 -0.00681548)
(0.0405605 0.189448 -0.0064513)
(1.88495 -0.0025701 -0.00186388)
(1.46821 0.0122295 -0.00397198)
(0.48025 0.0848034 -0.00667986)
(0.0418245 0.183715 -0.00828873)
(0.281799 0.14534 -0.00846034)
(0.349092 0.141483 -0.00886827)
(0.290278 0.145097 -0.00905617)
(0.275973 0.15043 -0.00897973)
(0.323193 0.145386 -0.00893991)
(0.347118 0.141756 -0.00879245)
(0.346224 0.139039 -0.00814575)
(0.349079 0.132889 -0.00735494)
(0.359289 0.127559 -0.0069631)
(0.368428 0.125309 -0.00688965)
(0.371774 0.125789 -0.00698889)
(0.364131 0.13092 -0.00726076)
(0.345726 0.137857 -0.007434)
(0.318248 0.146987 -0.0074286)
(0.289986 0.155676 -0.00729087)
(0.262657 0.166483 -0.00725134)
(0.233518 0.180887 -0.00722207)
(0.199723 0.197157 -0.00712243)
(0.165648 0.214858 -0.00695366)
(0.100923 0.232581 -0.00677588)
(0.0445085 0.23948 -0.00641166)
(1.87489 -0.00269755 -0.00191541)
(1.49876 0.0138648 -0.00382467)
(0.533589 0.0913264 -0.00658916)
(0.0694528 0.219625 -0.00825885)
(0.255462 0.172476 -0.00838985)
(0.350533 0.165591 -0.00877411)
(0.298459 0.168794 -0.0090167)
(0.2803 0.176461 -0.00894571)
(0.32478 0.171128 -0.00891354)
(0.353155 0.168346 -0.00878412)
(0.353401 0.165243 -0.00820922)
(0.354413 0.15808 -0.00738854)
(0.363802 0.151545 -0.0069469)
(0.372766 0.148366 -0.00684226)
(0.3773 0.148541 -0.00691836)
(0.372095 0.154442 -0.00717869)
(0.356012 0.162816 -0.00737907)
(0.330296 0.173497 -0.00739234)
(0.302992 0.184641 -0.00726201)
(0.277994 0.198132 -0.00719991)
(0.251155 0.215656 -0.00716141)
(0.219006 0.236198 -0.00706305)
(0.184948 0.259109 -0.00690245)
(0.117598 0.283376 -0.00672727)
(0.051041 0.296027 -0.00635228)
(1.86408 -0.00274579 -0.00196923)
(1.52966 0.015209 -0.00366809)
(0.6023 0.0955463 -0.00647136)
(0.105598 0.255907 -0.00822776)
(0.221346 0.200562 -0.00831564)
(0.350941 0.18807 -0.00867203)
(0.308082 0.191474 -0.00897392)
(0.286425 0.202164 -0.00891202)
(0.326803 0.197689 -0.00888689)
(0.359681 0.195187 -0.00877325)
(0.361297 0.191408 -0.00828341)
(0.360489 0.183253 -0.00743922)
(0.368804 0.175527 -0.00693979)
(0.377544 0.171322 -0.00679444)
(0.383385 0.17122 -0.0068438)
(0.38097 0.177426 -0.00708537)
(0.367496 0.187264 -0.00731388)
(0.344211 0.199346 -0.00735141)
(0.318602 0.213359 -0.00723109)
(0.296074 0.229621 -0.00713661)
(0.272371 0.250581 -0.00709024)
(0.243049 0.276134 -0.00700109)
(0.210163 0.305562 -0.00683597)
(0.141563 0.339341 -0.00665947)
(0.0622773 0.364429 -0.00628228)
(1.85266 -0.00282392 -0.00202375)
(1.5598 0.0157012 -0.00350282)
(0.69018 0.0975404 -0.00631663)
(0.151744 0.292065 -0.00818212)
(0.179725 0.229257 -0.0082294)
(0.349598 0.208752 -0.00857461)
(0.319549 0.213887 -0.00892896)
(0.295181 0.227694 -0.00888211)
(0.329667 0.225632 -0.00885858)
(0.366125 0.222512 -0.00875682)
(0.369486 0.217782 -0.00836035)
(0.367191 0.208187 -0.00750867)
(0.374405 0.199351 -0.00694602)
(0.382967 0.194198 -0.0067501)
(0.390044 0.193765 -0.00676937)
(0.39049 0.199901 -0.00697629)
(0.38 0.210817 -0.00723682)
(0.359916 0.224366 -0.00730459)
(0.336875 0.241285 -0.0071963)
(0.317148 0.260453 -0.0070757)
(0.297594 0.285229 -0.00701866)
(0.27267 0.316303 -0.00692837)
(0.243566 0.354224 -0.00676138)
(0.178579 0.400976 -0.00657777)
(0.0838323 0.452415 -0.006149)
(1.84046 -0.0029086 -0.00207965)
(1.58881 0.0152749 -0.00333968)
(0.803261 0.0986052 -0.00610164)
(0.208443 0.326858 -0.00810536)
(0.13272 0.257586 -0.00813211)
(0.345761 0.228157 -0.00849783)
(0.333261 0.236412 -0.00887481)
(0.307174 0.253309 -0.00885432)
(0.33379 0.255362 -0.00882942)
(0.371684 0.250289 -0.00872995)
(0.377151 0.243741 -0.00842144)
(0.374149 0.233121 -0.00760314)
(0.38079 0.223076 -0.00696775)
(0.389169 0.216915 -0.00670714)
(0.397322 0.216248 -0.00669836)
(0.400481 0.221772 -0.00686517)
(0.393334 0.233489 -0.00714887)
(0.377316 0.248553 -0.00724707)
(0.357797 0.268131 -0.00716037)
(0.341418 0.289931 -0.00701565)
(0.327024 0.318436 -0.00693478)
(0.308886 0.355324 -0.00682683)
(0.287432 0.404169 -0.00665529)
(0.237511 0.472138 -0.00643718)
(0.126039 0.5896 -0.00590611)
(1.91138 -0.000212306 1.68093e-08)
(1.35754 0.00145461 -5.67828e-08)
(0.361894 0.00991132 -1.81077e-07)
(-0.0166566 0.0154026 1.70589e-07)
(0.334245 0.014653 3.06846e-08)
(0.344968 0.0150678 9.17299e-08)
(0.270164 0.0157685 1.35926e-07)
(0.267557 0.0165082 1.81984e-07)
(0.320429 0.0170957 1.14587e-07)
(0.334273 0.0168635 1.1764e-07)
(0.327964 0.0166825 4.49125e-08)
(0.334876 0.0159595 1.30766e-07)
(0.345833 0.0151153 1.22079e-07)
(0.353775 0.0146613 5.35536e-08)
(0.353553 0.0148413 4.16792e-10)
(0.340156 0.015556 -1.12414e-07)
(0.316187 0.0165009 -2.04346e-07)
(0.286227 0.0176218 -2.79899e-07)
(0.257502 0.0185264 -2.52532e-07)
(0.224998 0.0196207 -1.81531e-07)
(0.191802 0.0210609 2.22363e-08)
(0.156465 0.0227546 3.09403e-07)
(0.125574 0.0246589 3.66104e-07)
(0.070761 0.0267213 4.0632e-07)
(0.0353638 0.0275376 4.35281e-07)
(1.90996 -0.00072885 1.17006e-08)
(1.36628 0.00440391 -4.65997e-08)
(0.368617 0.030573 -1.42706e-07)
(-0.014483 0.0458769 1.33161e-07)
(0.330694 0.0395764 3.43822e-08)
(0.34422 0.0387483 1.16986e-07)
(0.270242 0.0394959 1.33775e-07)
(0.266548 0.0401172 1.43977e-07)
(0.318817 0.0394233 9.86043e-08)
(0.333189 0.0372655 9.06233e-08)
(0.327751 0.0361165 8.45977e-08)
(0.335156 0.0342215 1.24651e-07)
(0.346658 0.0325253 1.08411e-07)
(0.355153 0.0318967 5.94368e-08)
(0.355443 0.0323926 1.12246e-08)
(0.34238 0.0337517 -8.27546e-08)
(0.318581 0.0354628 -1.71212e-07)
(0.288499 0.037579 -2.49144e-07)
(0.259634 0.0392597 -2.24652e-07)
(0.227413 0.0415667 -1.65677e-07)
(0.194357 0.044718 1.55828e-08)
(0.159002 0.0482868 2.93573e-07)
(0.127649 0.0521983 3.56251e-07)
(0.0718421 0.0557452 3.9731e-07)
(0.0355489 0.0567286 4.23426e-07)
(1.90648 -0.00131684 1.28091e-08)
(1.38458 0.00705732 -3.45107e-08)
(0.383983 0.0504287 -1.19916e-07)
(-0.0072065 0.0792909 1.20518e-07)
(0.324851 0.0661163 7.06745e-08)
(0.344627 0.0649115 1.25076e-07)
(0.272823 0.067174 1.36781e-07)
(0.267917 0.068689 1.36839e-07)
(0.319604 0.0672887 1.14307e-07)
(0.335023 0.0639371 8.81109e-08)
(0.330254 0.0625042 1.26864e-07)
(0.33714 0.0598152 1.10563e-07)
(0.348662 0.0574483 8.74374e-08)
(0.357442 0.0567057 6.5328e-08)
(0.358164 0.0575909 2.66343e-08)
(0.345767 0.0600233 -4.39755e-08)
(0.322676 0.063011 -1.30683e-07)
(0.292786 0.0667712 -2.12036e-07)
(0.263912 0.0699449 -1.88335e-07)
(0.232274 0.0741373 -1.39404e-07)
(0.199538 0.0796638 9.8112e-09)
(0.164196 0.085641 2.71285e-07)
(0.132119 0.092128 3.43205e-07)
(0.0749337 0.0981302 3.8593e-07)
(0.0364305 0.0994552 4.06277e-07)
(1.90104 -0.00184133 1.78392e-08)
(1.40974 0.00903846 -2.17808e-08)
(0.40736 0.065793 -1.03649e-07)
(0.00468298 0.113242 1.51622e-07)
(0.315266 0.0925058 4.40136e-08)
(0.345716 0.0908514 1.19823e-07)
(0.27729 0.0942184 1.46756e-07)
(0.270111 0.0966186 1.45379e-07)
(0.320629 0.0939842 1.32174e-07)
(0.337943 0.0895001 9.88372e-08)
(0.334467 0.0875348 1.40675e-07)
(0.340306 0.0836974 7.72145e-08)
(0.351485 0.0803618 6.21414e-08)
(0.360602 0.0792306 3.30691e-08)
(0.362203 0.0801648 5.35662e-08)
(0.350911 0.0835834 -2.0371e-08)
(0.328872 0.0879146 -8.51688e-08)
(0.299405 0.0935542 -1.61389e-07)
(0.270573 0.0985062 -1.3228e-07)
(0.239883 0.104818 -9.15548e-08)
(0.207778 0.113213 1.76867e-08)
(0.172655 0.122336 2.36639e-07)
(0.139978 0.132156 3.1401e-07)
(0.0807029 0.141407 3.5651e-07)
(0.0380199 0.143634 3.65915e-07)
(1.89383 -0.0022755 1.91462e-08)
(1.43843 0.0106231 -9.87384e-09)
(0.438947 0.0766695 -7.2761e-08)
(0.0207389 0.148121 1.67696e-07)
(0.301331 0.118836 4.33824e-08)
(0.347262 0.116375 1.13759e-07)
(0.283134 0.12021 1.56867e-07)
(0.272728 0.123841 1.53599e-07)
(0.321843 0.119871 1.35007e-07)
(0.341893 0.11543 1.17719e-07)
(0.339677 0.113054 1.35598e-07)
(0.344162 0.108039 9.73239e-08)
(0.354956 0.103804 7.91934e-08)
(0.364179 0.102276 7.38129e-08)
(0.366568 0.103036 4.86958e-08)
(0.35687 0.107227 3.31162e-08)
(0.336464 0.112832 -4.16519e-08)
(0.307836 0.120223 -9.46159e-08)
(0.279203 0.126931 -8.45204e-08)
(0.249946 0.135327 -6.23909e-08)
(0.219043 0.146675 2.7575e-08)
(0.184389 0.159244 2.04871e-07)
(0.150962 0.172685 2.76521e-07)
(0.0891067 0.185594 3.19308e-07)
(0.0405525 0.189459 3.2563e-07)
(1.88496 -0.00257026 1.87176e-08)
(1.46818 0.0122315 -1.15256e-09)
(0.480213 0.0848184 -1.50169e-08)
(0.0418092 0.183702 1.58466e-07)
(0.281832 0.145325 6.02272e-08)
(0.349086 0.141465 1.06553e-07)
(0.290269 0.145079 1.5464e-07)
(0.275948 0.150415 1.43234e-07)
(0.323135 0.145396 1.10593e-07)
(0.346976 0.141768 7.15618e-08)
(0.346015 0.139066 1.00002e-07)
(0.348862 0.132947 4.9222e-08)
(0.359058 0.12763 6.20858e-08)
(0.36821 0.125365 7.17015e-08)
(0.371559 0.125828 3.44248e-08)
(0.363908 0.130912 5.01864e-08)
(0.345532 0.137839 -1.14078e-09)
(0.3181 0.146964 -5.08668e-08)
(0.289888 0.155655 -4.27796e-08)
(0.262571 0.166465 -2.74262e-08)
(0.23344 0.180874 4.95359e-08)
(0.199655 0.197148 1.70837e-07)
(0.165593 0.214856 2.34036e-07)
(0.10089 0.232579 2.72654e-07)
(0.0445005 0.239487 2.79777e-07)
(1.87491 -0.00269778 1.69948e-08)
(1.49873 0.0138664 -2.23226e-10)
(0.533553 0.0913387 -3.4308e-09)
(0.069441 0.219619 1.71829e-07)
(0.255506 0.172464 7.01639e-08)
(0.350526 0.165583 9.44398e-08)
(0.298442 0.168798 1.52082e-07)
(0.280273 0.176481 1.46529e-07)
(0.324727 0.171175 8.58043e-08)
(0.353009 0.168397 5.89026e-08)
(0.353175 0.165303 1.148e-07)
(0.354182 0.158163 7.15061e-08)
(0.363585 0.151617 8.37296e-08)
(0.372594 0.148407 7.57604e-08)
(0.377143 0.148547 4.74429e-08)
(0.371926 0.15441 2.8484e-08)
(0.355867 0.162764 1.34308e-08)
(0.330176 0.173451 8.60752e-10)
(0.302905 0.184594 -2.81106e-08)
(0.277916 0.198097 7.0797e-09)
(0.251084 0.215633 7.6151e-08)
(0.218945 0.236181 1.56385e-07)
(0.184899 0.259099 1.95426e-07)
(0.117571 0.283369 2.2108e-07)
(0.0510348 0.296032 2.33357e-07)
(1.86409 -0.00274599 1.57562e-08)
(1.52964 0.0152107 -1.57603e-09)
(0.602263 0.0955583 2.03267e-09)
(0.105588 0.255904 1.87965e-07)
(0.221398 0.200561 7.08889e-08)
(0.350935 0.188074 9.47011e-08)
(0.308064 0.191495 1.7812e-07)
(0.286402 0.202209 1.73275e-07)
(0.326768 0.197762 7.97805e-08)
(0.359565 0.19526 7.33655e-08)
(0.36109 0.191467 5.9572e-08)
(0.360291 0.183328 8.49018e-08)
(0.368633 0.175579 7.88522e-08)
(0.377423 0.171342 6.97157e-08)
(0.383279 0.171205 5.08321e-08)
(0.380843 0.177404 2.80331e-08)
(0.367383 0.187221 -6.17129e-10)
(0.344112 0.199303 1.59284e-08)
(0.318526 0.213306 -2.60535e-08)
(0.29601 0.229577 2.82031e-08)
(0.272311 0.250548 9.0672e-08)
(0.242997 0.276108 1.47578e-07)
(0.210122 0.305544 1.62232e-07)
(0.141544 0.339327 1.79272e-07)
(0.0622744 0.364432 1.93942e-07)
(1.85267 -0.00282439 1.42452e-08)
(1.55979 0.015703 -5.3726e-09)
(0.69014 0.0975513 6.16452e-09)
(0.151739 0.292068 1.87937e-07)
(0.179787 0.229265 7.25237e-08)
(0.349589 0.208766 1.00045e-07)
(0.319529 0.213916 1.99461e-07)
(0.295166 0.227756 1.97443e-07)
(0.329655 0.225723 9.7788e-08)
(0.366048 0.2226 8.16971e-08)
(0.369342 0.217849 -6.71312e-08)
(0.367079 0.208256 1.39102e-07)
(0.374299 0.199381 1.22121e-07)
(0.382887 0.19419 6.93254e-08)
(0.389962 0.193724 5.58654e-08)
(0.390384 0.199864 3.4226e-08)
(0.379901 0.210779 9.40116e-09)
(0.359827 0.224321 3.78758e-08)
(0.336805 0.241235 4.60204e-10)
(0.317094 0.260404 4.58556e-08)
(0.297544 0.285188 1.01555e-07)
(0.272626 0.31627 1.43756e-07)
(0.243531 0.354199 1.39557e-07)
(0.178566 0.400954 1.43881e-07)
(0.0838342 0.452414 1.66842e-07)
(1.84047 -0.00290919 1.22192e-08)
(1.5888 0.0152769 -4.17838e-09)
(0.803212 0.0986166 -8.22806e-10)
(0.208449 0.326871 1.67456e-07)
(0.132793 0.2576 7.66676e-08)
(0.34575 0.228171 1.07785e-07)
(0.333242 0.236443 2.12027e-07)
(0.30717 0.253378 2.10042e-07)
(0.333798 0.255463 1.09484e-07)
(0.37165 0.250392 7.94728e-08)
(0.377088 0.243842 3.87679e-08)
(0.374127 0.233184 9.84079e-08)
(0.380747 0.223091 1.14544e-07)
(0.389121 0.21689 7.01281e-08)
(0.397255 0.216193 4.53981e-08)
(0.400391 0.221714 3.86084e-08)
(0.393248 0.233438 1.91473e-08)
(0.377241 0.248498 2.9238e-08)
(0.357739 0.268077 1.42885e-08)
(0.341374 0.289876 6.22583e-08)
(0.326983 0.318387 1.11074e-07)
(0.308851 0.355284 1.45566e-07)
(0.287404 0.404137 1.41197e-07)
(0.237505 0.472111 1.18408e-07)
(0.126047 0.589594 1.37841e-07)
(1.91138 -0.000211319 2.25243e-09)
(1.3576 0.00145224 1.22919e-07)
(0.36195 0.0098888 3.89124e-07)
(-0.0166022 0.0153548 -1.40096e-08)
(0.334255 0.0146306 1.88684e-08)
(0.344983 0.0150444 -7.22323e-08)
(0.270184 0.0157195 -1.1184e-07)
(0.267608 0.0164427 -1.19127e-07)
(0.320491 0.0170626 -6.91102e-08)
(0.334281 0.0168857 1.43317e-08)
(0.32789 0.0167301 -1.02456e-07)
(0.334746 0.0159949 2.8281e-08)
(0.34567 0.0151095 -5.88377e-09)
(0.353609 0.0146169 -9.57462e-08)
(0.353397 0.0147836 -8.61834e-08)
(0.340031 0.0155098 -1.53049e-07)
(0.316094 0.0164719 -1.71987e-07)
(0.286164 0.0176073 -1.87737e-07)
(0.257472 0.018519 -1.32215e-07)
(0.224996 0.0196167 -7.4492e-08)
(0.191834 0.0210588 2.75818e-09)
(0.156524 0.0227534 1.11074e-07)
(0.12564 0.0246576 1.62572e-07)
(0.070807 0.02672 1.86811e-07)
(0.0353793 0.0275365 1.70896e-07)
(1.90996 -0.000728312 1.32821e-08)
(1.36632 0.00440124 9.91921e-08)
(0.368653 0.0305554 2.94551e-07)
(-0.0145093 0.0458613 8.43404e-08)
(0.330619 0.0396007 1.76734e-08)
(0.344152 0.0387772 -1.16131e-07)
(0.270117 0.0395121 -9.22412e-08)
(0.266361 0.0401488 -3.52745e-08)
(0.318567 0.039505 -2.50491e-08)
(0.332852 0.0373558 2.53395e-08)
(0.327341 0.0362034 -1.46505e-07)
(0.334769 0.0342632 1.50699e-08)
(0.346335 0.0325249 1.2715e-08)
(0.354923 0.0318741 -9.35186e-08)
(0.355289 0.0323634 -5.54526e-08)
(0.342276 0.0337255 -1.4604e-07)
(0.318506 0.0354351 -1.75759e-07)
(0.288446 0.0375583 -1.98674e-07)
(0.259608 0.0392425 -1.30489e-07)
(0.227412 0.0415551 -7.52834e-08)
(0.194388 0.0447115 5.99475e-10)
(0.15906 0.0482827 1.10922e-07)
(0.127714 0.0521949 1.59047e-07)
(0.071888 0.055742 1.81069e-07)
(0.0355645 0.0567254 1.63914e-07)
(1.90648 -0.0013183 6.49564e-09)
(1.38462 0.00705649 9.20297e-08)
(0.384029 0.0504371 3.03016e-07)
(-0.00718315 0.0793219 1.00103e-07)
(0.32482 0.0661367 -8.2841e-08)
(0.344582 0.0649336 -9.16982e-08)
(0.272744 0.0672159 -6.27566e-08)
(0.267838 0.0687584 -1.53119e-08)
(0.31951 0.0673731 1.77502e-09)
(0.3349 0.0639774 1.24856e-08)
(0.330119 0.0625208 -5.40458e-08)
(0.337021 0.0597638 5.79211e-09)
(0.34856 0.057353 -9.78755e-09)
(0.357345 0.056597 -4.99477e-08)
(0.358072 0.0574925 -8.62744e-08)
(0.345702 0.0599504 -1.64521e-07)
(0.322637 0.0629557 -1.86766e-07)
(0.292764 0.0667342 -2.05343e-07)
(0.263905 0.0699165 -1.52771e-07)
(0.232285 0.0741192 -8.61918e-08)
(0.199576 0.0796544 -1.86162e-09)
(0.164256 0.085636 1.11124e-07)
(0.132185 0.0921231 1.54481e-07)
(0.0749796 0.0981255 1.73864e-07)
(0.036446 0.0994505 1.54676e-07)
(1.90103 -0.00184276 -5.57988e-09)
(1.40978 0.00903686 8.80478e-08)
(0.407406 0.0657954 3.39791e-07)
(0.00471997 0.113273 1.57905e-08)
(0.315259 0.0925118 -1.0564e-08)
(0.345707 0.0908682 -3.25667e-08)
(0.277278 0.094269 -4.22358e-08)
(0.270117 0.0966973 -4.25131e-08)
(0.320658 0.0940619 2.64141e-08)
(0.338008 0.0895358 -1.9262e-08)
(0.334567 0.0875364 5.34276e-08)
(0.340399 0.0836184 3.49722e-09)
(0.351575 0.0802228 -3.87668e-08)
(0.360688 0.0790754 -3.46596e-08)
(0.362284 0.0800233 -1.3113e-07)
(0.350988 0.0834865 -1.77893e-07)
(0.328932 0.0878499 -1.95279e-07)
(0.299443 0.0935146 -2.11919e-07)
(0.270597 0.0984781 -1.8404e-07)
(0.239913 0.1048 -1.19315e-07)
(0.207825 0.113205 -1.24023e-08)
(0.172718 0.122332 1.16391e-07)
(0.140043 0.13215 1.44674e-07)
(0.0807489 0.141401 1.58771e-07)
(0.0380354 0.143627 1.35821e-07)
(1.89382 -0.00227594 -1.09549e-08)
(1.43847 0.0106211 7.50891e-08)
(0.43899 0.0766604 3.24874e-07)
(0.0207679 0.148138 7.52738e-09)
(0.301329 0.118844 6.83456e-09)
(0.34728 0.116397 4.82132e-09)
(0.283169 0.120253 -2.82564e-08)
(0.272779 0.123904 -5.27231e-08)
(0.321924 0.119926 2.19124e-08)
(0.342056 0.11547 -2.0406e-08)
(0.339914 0.11306 9.54184e-08)
(0.344389 0.107977 -2.10211e-08)
(0.355183 0.103705 -5.97695e-08)
(0.364388 0.102181 -3.77627e-08)
(0.366751 0.10295 -1.56607e-07)
(0.357033 0.10718 -1.48596e-07)
(0.336588 0.112799 -1.90353e-07)
(0.307916 0.120205 -2.12114e-07)
(0.27925 0.126914 -1.96798e-07)
(0.24999 0.135315 -1.49529e-07)
(0.219098 0.146672 -2.50073e-08)
(0.184454 0.159241 1.21575e-07)
(0.151026 0.17268 1.33024e-07)
(0.0891523 0.185588 1.41816e-07)
(0.0405678 0.189452 1.13353e-07)
(1.88496 -0.00257019 -1.31078e-08)
(1.46821 0.01223 6.10045e-08)
(0.480254 0.0848074 2.47664e-07)
(0.0418316 0.183706 5.28252e-08)
(0.281827 0.145337 -2.83974e-08)
(0.349114 0.141482 5.9443e-08)
(0.290323 0.1451 2.45977e-08)
(0.27601 0.150441 -1.66213e-08)
(0.323223 0.145412 1.43022e-08)
(0.347168 0.141787 6.79359e-10)
(0.346303 0.139063 9.95985e-08)
(0.349144 0.132905 -5.65732e-08)
(0.359324 0.127574 -7.68758e-08)
(0.368425 0.12532 -6.12706e-08)
(0.371739 0.125797 -1.83133e-07)
(0.364078 0.130918 -1.22093e-07)
(0.345666 0.13785 -1.80887e-07)
(0.318194 0.146975 -2.12772e-07)
(0.289943 0.155659 -1.96945e-07)
(0.262624 0.166467 -1.5747e-07)
(0.233501 0.180877 -1.35211e-08)
(0.199719 0.197149 9.42382e-08)
(0.165655 0.214854 1.16758e-07)
(0.100934 0.232575 1.2241e-07)
(0.0445154 0.239481 8.88015e-08)
(1.8749 -0.00269763 -1.33784e-08)
(1.49875 0.0138652 5.70036e-08)
(0.533593 0.0913292 2.33002e-07)
(0.0694624 0.219617 7.00019e-08)
(0.255495 0.172471 -2.42955e-08)
(0.350552 0.165588 1.05188e-07)
(0.298498 0.168793 6.22484e-08)
(0.280331 0.176468 5.9126e-09)
(0.3248 0.171153 -9.30385e-10)
(0.353185 0.168382 -2.46017e-09)
(0.353443 0.165283 7.2017e-08)
(0.354437 0.158135 -7.31308e-08)
(0.363812 0.151593 -9.13447e-08)
(0.372762 0.148393 -7.82707e-08)
(0.37728 0.14855 -1.71223e-07)
(0.37206 0.15443 -1.2451e-07)
(0.355969 0.162794 -1.54935e-07)
(0.330251 0.173475 -2.32229e-07)
(0.302953 0.184619 -1.98292e-07)
(0.277966 0.198115 -1.33182e-07)
(0.251142 0.215644 -1.19821e-08)
(0.219007 0.236188 8.24907e-08)
(0.184958 0.259101 1.02018e-07)
(0.117613 0.283366 1.01757e-07)
(0.0510489 0.296028 6.39358e-08)
(1.86409 -0.00274586 -1.41649e-08)
(1.52965 0.0152095 5.57164e-08)
(0.602302 0.0955493 2.22284e-07)
(0.105609 0.255899 8.57341e-08)
(0.221383 0.200559 -1.88448e-09)
(0.350958 0.188066 1.17855e-07)
(0.308113 0.19147 6.28073e-08)
(0.286451 0.202167 5.82201e-09)
(0.326819 0.197712 -2.90293e-08)
(0.359698 0.195216 -2.61979e-08)
(0.361291 0.19143 5.09263e-08)
(0.36047 0.183306 -7.33041e-08)
(0.368788 0.175582 -8.82295e-08)
(0.377536 0.171358 -8.24212e-08)
(0.383376 0.171236 -1.42015e-07)
(0.380949 0.177424 -1.44271e-07)
(0.367468 0.187247 -1.55441e-07)
(0.344178 0.199326 -2.51385e-07)
(0.31857 0.213337 -1.75507e-07)
(0.296052 0.229604 -1.1828e-07)
(0.272363 0.250568 -1.29427e-08)
(0.243054 0.276121 7.1108e-08)
(0.210176 0.305549 8.8576e-08)
(0.141582 0.339327 8.62507e-08)
(0.0622879 0.364429 4.31707e-08)
(1.85267 -0.00282415 -1.43635e-08)
(1.5598 0.0157018 5.97776e-08)
(0.690179 0.0975436 2.08638e-07)
(0.151758 0.292061 1.10015e-07)
(0.179768 0.229257 2.16353e-08)
(0.34961 0.208748 1.27774e-07)
(0.319572 0.21388 6.56429e-08)
(0.295206 0.227697 1.07196e-08)
(0.329684 0.225657 -5.46173e-08)
(0.36613 0.222538 -3.99411e-08)
(0.36946 0.217795 1.04025e-07)
(0.367171 0.208232 -1.43911e-07)
(0.374387 0.199399 -1.00725e-07)
(0.382958 0.19423 -8.80645e-08)
(0.390035 0.193777 -1.3822e-07)
(0.390469 0.199901 -1.43716e-07)
(0.379972 0.210808 -1.67408e-07)
(0.359882 0.22435 -2.29407e-07)
(0.336844 0.241268 -1.7124e-07)
(0.31713 0.260437 -1.12381e-07)
(0.297589 0.285215 -1.34242e-08)
(0.272676 0.316289 5.87033e-08)
(0.243579 0.354209 7.82681e-08)
(0.1786 0.400957 7.74187e-08)
(0.0838469 0.452414 3.33122e-08)
(1.84047 -0.0029089 -1.43424e-08)
(1.58881 0.0152757 5.71619e-08)
(0.803254 0.0986099 2.09001e-07)
(0.208464 0.326861 1.66472e-07)
(0.132768 0.257589 4.67653e-09)
(0.345767 0.22815 7.2398e-08)
(0.333278 0.236402 4.95502e-08)
(0.307201 0.253312 2.36919e-08)
(0.333811 0.255389 -1.99199e-08)
(0.371686 0.25032 -3.17222e-08)
(0.37713 0.243774 1.97645e-08)
(0.374145 0.23316 -1.15911e-07)
(0.38078 0.223112 -1.18482e-07)
(0.389161 0.216939 -1.15594e-07)
(0.397311 0.216253 -1.23857e-07)
(0.400459 0.221766 -1.60534e-07)
(0.393304 0.233476 -1.70812e-07)
(0.377283 0.248535 -2.09327e-07)
(0.357769 0.268114 -1.70536e-07)
(0.341402 0.289916 -1.14246e-07)
(0.327019 0.318422 -2.37933e-08)
(0.308893 0.355308 5.00291e-08)
(0.287445 0.404151 7.3694e-08)
(0.237534 0.472116 7.24077e-08)
(0.126059 0.589596 2.8471e-08)
(1.91138 -0.000211443 -1.95141e-08)
(1.35759 0.00145257 2.10229e-07)
(0.361947 0.00989159 6.88122e-07)
(-0.0166054 0.0153598 -1.74602e-07)
(0.334257 0.0146332 -1.8852e-08)
(0.344981 0.015047 9.01332e-08)
(0.270177 0.0157248 5.6811e-08)
(0.267597 0.0164506 -7.56559e-10)
(0.320476 0.0170693 -9.95696e-09)
(0.334266 0.0168885 -1.16613e-08)
(0.327879 0.0167321 -1.4304e-08)
(0.334741 0.0159988 -1.06987e-08)
(0.345665 0.015118 -5.38641e-09)
(0.353599 0.0146291 -4.20533e-09)
(0.353376 0.014796 5.59504e-10)
(0.339997 0.015519 1.74353e-08)
(0.316051 0.0164768 2.00494e-08)
(0.286119 0.0176086 1.79388e-08)
(0.257432 0.0185187 3.05901e-08)
(0.22496 0.0196161 3.47556e-08)
(0.19181 0.0210586 2.44931e-08)
(0.156504 0.0227536 6.68423e-08)
(0.125622 0.024659 1.28651e-07)
(0.0707952 0.0267217 1.6662e-07)
(0.0353735 0.0275388 1.8343e-07)
(1.90996 -0.000728473 -1.79756e-08)
(1.36631 0.004402 2.08873e-07)
(0.368652 0.0305605 6.90844e-07)
(-0.0145067 0.0458664 -1.7255e-07)
(0.330627 0.0396011 -2.08377e-08)
(0.344156 0.0387762 8.49932e-08)
(0.270122 0.0395129 5.46112e-08)
(0.266369 0.0401502 -4.2355e-09)
(0.318577 0.0395023 -1.73057e-08)
(0.332866 0.0373474 -2.42048e-08)
(0.327358 0.0361921 -1.6047e-08)
(0.334787 0.0342514 -1.45128e-08)
(0.346346 0.0325156 -6.92167e-09)
(0.354922 0.0318667 -1.30425e-08)
(0.355271 0.0323589 -1.42813e-08)
(0.342242 0.0337235 -6.23185e-09)
(0.318462 0.0354354 -5.83404e-09)
(0.2884 0.037559 1.94771e-09)
(0.259568 0.039243 2.02662e-08)
(0.227377 0.0415553 3.38658e-08)
(0.194366 0.0447119 3.38971e-08)
(0.159041 0.0482836 7.32107e-08)
(0.127696 0.0521979 1.26201e-07)
(0.0718769 0.0557456 1.60963e-07)
(0.0355594 0.0567306 1.76571e-07)
(1.90648 -0.00131838 -1.96804e-08)
(1.38461 0.00705752 1.93684e-07)
(0.384029 0.0504431 6.84604e-07)
(-0.00718382 0.0793275 -1.65571e-07)
(0.324825 0.0661391 -1.87202e-08)
(0.344586 0.064934 7.48552e-08)
(0.27275 0.0672161 5.29822e-08)
(0.267848 0.0687583 -5.05256e-09)
(0.319525 0.0673699 -2.68888e-08)
(0.334923 0.0639695 -3.37721e-08)
(0.330146 0.0625104 -1.7552e-08)
(0.337048 0.0597604 -1.35139e-08)
(0.348582 0.0573598 -1.01137e-08)
(0.35736 0.056613 -3.04113e-08)
(0.358074 0.0575101 -3.77021e-08)
(0.345682 0.0599646 -4.61946e-08)
(0.3226 0.0629636 -4.14948e-08)
(0.292721 0.0667382 -2.43251e-08)
(0.263865 0.0699173 7.96743e-09)
(0.232249 0.074119 3.42059e-08)
(0.199554 0.0796546 4.96338e-08)
(0.164238 0.0856363 8.32349e-08)
(0.132169 0.0921269 1.22963e-07)
(0.0749697 0.0981306 1.53807e-07)
(0.0364421 0.0994579 1.68197e-07)
(1.90104 -0.00184285 -2.47258e-08)
(1.40977 0.00903804 1.65432e-07)
(0.407409 0.0658025 6.55006e-07)
(0.00472103 0.11328 -1.42155e-07)
(0.315263 0.0925163 -1.81742e-08)
(0.34571 0.0908686 6.44684e-08)
(0.277282 0.0942652 5.07923e-08)
(0.270122 0.0966906 -6.39147e-09)
(0.320664 0.0940527 -4.14294e-08)
(0.338018 0.0895326 -4.43392e-08)
(0.334582 0.0875342 -2.87928e-08)
(0.340406 0.0836332 -2.37453e-08)
(0.351565 0.0802537 -2.19975e-08)
(0.36065 0.0791114 -2.65357e-08)
(0.362224 0.0800558 -8.14264e-08)
(0.350921 0.0835073 -8.53594e-08)
(0.328867 0.0878594 -7.61627e-08)
(0.299387 0.0935183 -4.97182e-08)
(0.270551 0.0984775 -1.50076e-08)
(0.239876 0.104799 2.62135e-08)
(0.207803 0.113204 6.27074e-08)
(0.172702 0.122331 9.86447e-08)
(0.14003 0.132155 1.16781e-07)
(0.0807409 0.141408 1.41982e-07)
(0.0380331 0.143636 1.55079e-07)
(1.89382 -0.00227609 -2.63159e-08)
(1.43847 0.0106223 1.40447e-07)
(0.438997 0.0766676 6.06614e-07)
(0.0207705 0.148147 -1.00959e-07)
(0.30133 0.11885 -4.29095e-08)
(0.347279 0.116397 6.63536e-08)
(0.283166 0.120246 5.03384e-08)
(0.272774 0.123892 -5.48146e-09)
(0.321916 0.119914 -5.42803e-08)
(0.34203 0.115472 -5.09939e-08)
(0.339865 0.11307 -6.88686e-08)
(0.344331 0.108007 -6.4677e-08)
(0.355107 0.103738 -3.6e-08)
(0.364296 0.102197 -4.55055e-08)
(0.366653 0.102958 -8.27262e-08)
(0.356938 0.107174 -1.09108e-07)
(0.336505 0.112793 -1.15432e-07)
(0.30785 0.120199 -8.12058e-08)
(0.2792 0.126911 -3.61939e-08)
(0.249952 0.135313 2.23296e-08)
(0.219076 0.14667 7.16329e-08)
(0.18444 0.15924 1.10975e-07)
(0.151016 0.172684 1.08758e-07)
(0.0891462 0.185595 1.2694e-07)
(0.040566 0.18946 1.34818e-07)
(1.88496 -0.00257041 -2.56618e-08)
(1.46821 0.0122311 1.2231e-07)
(0.480264 0.0848146 4.63474e-07)
(0.0418367 0.18372 -1.40109e-08)
(0.281824 0.145345 -7.45661e-08)
(0.349108 0.141484 6.44777e-08)
(0.290313 0.145096 3.01099e-08)
(0.275997 0.150434 -1.64974e-08)
(0.323204 0.145408 -6.31634e-08)
(0.347114 0.141791 -1.40327e-08)
(0.346205 0.139078 -8.18916e-08)
(0.349039 0.132933 -6.77296e-09)
(0.359223 0.127594 -1.30711e-08)
(0.368343 0.125317 -3.59571e-08)
(0.371669 0.12578 -2.76454e-08)
(0.364005 0.130884 -1.71384e-07)
(0.345597 0.137822 -1.54035e-07)
(0.318132 0.146954 -1.1753e-07)
(0.289895 0.155648 -6.27562e-08)