/*--------------------------------*- C++ -*----------------------------------*\
| =========                 |                                                 |
| \\      /  F ield         | OpenFOAM: The Open Source CFD Toolbox           |
|  \\    /   O peration     | Version:  4.1                                   |
|   \\  /    A nd           | Web:      www.OpenFOAM.org                      |
|    \\/     M anipulation  |                                                 |
\*---------------------------------------------------------------------------*/
FoamFile
{
    version     2.0;
    format      ascii;
    class       volVectorField;
    location    "3.22";
    object      U;
}
// * * * * * * * * * * * * * * * * * * * * * * * * * * * * * * * * * * * * * //

dimensions      [0 1 -1 0 0 0 0];

internalField   nonuniform List<vector> 
52500
(
(3 1.29584e-08 -0.00571425)
(2.99998 7.17168e-08 -0.00571438)
(2.99996 2.67935e-07 -0.00571458)
(2.9999 6.85182e-07 -0.00571519)
(2.99977 1.90272e-06 -0.00571631)
(2.9994 4.33181e-06 -0.00571971)
(2.99869 1.15912e-05 -0.00572642)
(2.99641 2.49969e-05 -0.0057442)
(2.99252 7.18341e-05 -0.00578942)
(2.9775 0.000146706 -0.00587619)
(2.95159 0.000464478 -0.00622463)
(2.85068 0.000986388 -0.00669174)
(2.58283 0.00363835 -0.0091159)
(1.92461 0.00867666 -0.0136299)
(0.863526 0.0249237 -0.0175378)
(0.449602 0.0235388 -0.0185207)
(0.539385 0.0240373 -0.018533)
(0.565996 0.0260337 -0.0185608)
(0.513289 0.0279957 -0.018753)
(0.42281 0.0299346 -0.0189317)
(0.336403 0.032239 -0.0191204)
(0.266592 0.0350063 -0.0192905)
(0.197201 0.0379857 -0.0194277)
(0.118979 0.0415175 -0.019594)
(0.0515923 0.0461875 -0.0197881)
(3 3.86727e-08 -0.00571425)
(2.99998 2.1358e-07 -0.00571438)
(2.99996 7.992e-07 -0.00571457)
(2.9999 2.04129e-06 -0.00571518)
(2.99977 5.68183e-06 -0.00571628)
(2.99941 1.29247e-05 -0.00571964)
(2.9987 3.47486e-05 -0.00572624)
(2.99646 7.46832e-05 -0.00574381)
(2.99262 0.000217198 -0.00578826)
(2.97782 0.000441311 -0.00587399)
(2.9523 0.00141872 -0.00621647)
(2.85308 0.00301077 -0.00667769)
(2.58999 0.0112667 -0.00905425)
(1.9408 0.0269753 -0.0135122)
(0.872905 0.0761568 -0.0174116)
(0.446128 0.0682803 -0.0184403)
(0.538922 0.066644 -0.0184529)
(0.566544 0.0700881 -0.018472)
(0.513461 0.0734094 -0.0186567)
(0.422949 0.0766942 -0.0188286)
(0.336596 0.0804889 -0.0190099)
(0.266281 0.0847878 -0.0191721)
(0.195865 0.0887978 -0.0193023)
(0.116342 0.0927437 -0.0194571)
(0.0486214 0.0964175 -0.0196367)
(3 6.2897e-08 -0.00571425)
(2.99999 3.46624e-07 -0.00571438)
(2.99996 1.30089e-06 -0.00571456)
(2.9999 3.32212e-06 -0.00571515)
(2.99978 9.29021e-06 -0.00571623)
(2.99942 2.11658e-05 -0.00571949)
(2.99874 5.72562e-05 -0.0057259)
(2.99656 0.000123402 -0.00574305)
(2.99283 0.00036126 -0.00578593)
(2.97848 0.000735934 -0.00586972)
(2.95378 0.00238914 -0.00619983)
(2.85818 0.00506121 -0.00664988)
(2.60538 0.0190704 -0.00892741)
(1.97681 0.0459132 -0.0132768)
(0.895423 0.131117 -0.0172203)
(0.442691 0.116114 -0.0183441)
(0.541427 0.111995 -0.0183577)
(0.571489 0.117866 -0.0183661)
(0.518175 0.124017 -0.0185445)
(0.428006 0.130737 -0.018707)
(0.341948 0.137892 -0.0188826)
(0.271114 0.145663 -0.0190325)
(0.199474 0.153202 -0.0191566)
(0.118253 0.160121 -0.0193117)
(0.0486108 0.164916 -0.0194821)
(3 7.80214e-08 -0.00571425)
(2.99999 4.30245e-07 -0.00571437)
(2.99997 1.60785e-06 -0.00571455)
(2.99991 4.08298e-06 -0.00571511)
(2.99979 1.13687e-05 -0.00571615)
(2.99945 2.5562e-05 -0.00571928)
(2.99879 7.06473e-05 -0.00572539)
(2.99672 0.000140362 -0.0057419)
(2.99314 0.000478161 -0.00578252)
(2.97948 0.000800536 -0.00586325)
(2.956 0.00345263 -0.00617506)
(2.86582 0.00660265 -0.00660882)
(2.62852 0.0266175 -0.00873915)
(2.03203 0.063642 -0.0129242)
(0.931025 0.1845 -0.016965)
(0.440359 0.164168 -0.0182308)
(0.547705 0.15706 -0.0182428)
(0.581861 0.165118 -0.0182365)
(0.528673 0.174215 -0.0184085)
(0.439092 0.18498 -0.018565)
(0.353144 0.195906 -0.0187342)
(0.281675 0.207584 -0.0188796)
(0.208475 0.219288 -0.018989)
(0.124405 0.230004 -0.0191258)
(0.0507561 0.236632 -0.0193132)
(3 9.7727e-08 -0.00571425)
(2.99999 5.40062e-07 -0.00571436)
(2.99997 2.01215e-06 -0.00571454)
(2.99991 5.12551e-06 -0.00571508)
(2.9998 1.41929e-05 -0.00571606)
(2.99947 3.20094e-05 -0.00571908)
(2.99883 8.74073e-05 -0.00572482)
(2.9969 0.000175121 -0.00574138)
(2.99338 0.000592441 -0.00577779)
(2.98092 0.000920558 -0.0058601)
(2.95874 0.00436208 -0.00613274)
(2.87592 0.00794447 -0.00655884)
(2.65978 0.0324711 -0.00846995)
(2.10694 0.0778045 -0.0124352)
(0.984809 0.23124 -0.0166386)
(0.44717 0.212697 -0.01809)
(0.561287 0.20355 -0.0181026)
(0.599814 0.212607 -0.0180709)
(0.546731 0.223869 -0.0182405)
(0.457676 0.238653 -0.0183757)
(0.371186 0.253755 -0.0185416)
(0.298465 0.270009 -0.0186878)
(0.222941 0.286702 -0.0188024)
(0.134769 0.302173 -0.0189364)
(0.0553069 0.311468 -0.0190977)
(3 1.23119e-07 -0.00571425)
(2.99999 6.80367e-07 -0.00571436)
(2.99997 2.53964e-06 -0.00571452)
(2.99992 6.51183e-06 -0.00571502)
(2.99981 1.80357e-05 -0.00571594)
(2.99951 4.12363e-05 -0.00571875)
(2.99891 0.00010939 -0.00572409)
(2.99714 0.00023832 -0.00573972)
(2.99376 0.000684358 -0.00577253)
(2.98258 0.00129268 -0.00585295)
(2.962 0.00473086 -0.00608798)
(2.88754 0.00900414 -0.00649811)
(2.69535 0.0348781 -0.00817269)
(2.19633 0.0848143 -0.0118484)
(1.0579 0.260553 -0.0162424)
(0.471229 0.259745 -0.0179155)
(0.584587 0.253937 -0.017925)
(0.626056 0.262726 -0.0178899)
(0.573438 0.274915 -0.0180641)
(0.485232 0.293207 -0.0181929)
(0.39782 0.313017 -0.0183248)
(0.323288 0.334719 -0.0184562)
(0.244681 0.357796 -0.0185515)
(0.150641 0.38028 -0.0186733)
(0.062509 0.394722 -0.0188656)
(3 1.36523e-07 -0.00571425)
(2.99999 7.54102e-07 -0.00571435)
(2.99997 2.81055e-06 -0.00571449)
(2.99992 7.20674e-06 -0.00571495)
(2.99983 1.98881e-05 -0.0057158)
(2.99955 4.54907e-05 -0.00571837)
(2.999 0.000119139 -0.00572326)
(2.99738 0.000264367 -0.00573758)
(2.99426 0.000706935 -0.0057673)
(2.98425 0.00149959 -0.00584226)
(2.96531 0.00452545 -0.00604735)
(2.89943 0.00932608 -0.00643767)
(2.73126 0.0321291 -0.00787483)
(2.29069 0.0785836 -0.0112578)
(1.15225 0.240688 -0.0157753)
(0.523388 0.29445 -0.0176593)
(0.619452 0.306278 -0.0176493)
(0.658699 0.314292 -0.0176373)
(0.607463 0.32707 -0.0178152)
(0.521685 0.349279 -0.0179683)
(0.433748 0.374823 -0.0180915)
(0.357287 0.403216 -0.0181974)
(0.275551 0.434583 -0.0182923)
(0.174897 0.467352 -0.0183982)
(0.0749066 0.49212 -0.018537)
(3 1.47118e-07 -0.00571425)
(2.99999 8.11653e-07 -0.00571434)
(2.99997 3.02006e-06 -0.00571447)
(2.99993 7.73663e-06 -0.00571489)
(2.99984 2.13036e-05 -0.00571565)
(2.99959 4.86707e-05 -0.00571799)
(2.99909 0.000126845 -0.00572241)
(2.99762 0.00028258 -0.00573544)
(2.99479 0.000731687 -0.00576232)
(2.98573 0.00164666 -0.00583075)
(2.96863 0.0042578 -0.00601579)
(2.90925 0.0100866 -0.00636974)
(2.75899 0.02851 -0.0076714)
(2.35786 0.0708835 -0.0107106)
(1.24563 0.205598 -0.0156547)
(0.568101 0.334268 -0.0175123)
(0.636065 0.367862 -0.0174741)
(0.674809 0.36637 -0.0174468)
(0.634962 0.378678 -0.0175915)
(0.559092 0.405119 -0.0176933)
(0.47522 0.438123 -0.0178227)
(0.399756 0.475208 -0.0178904)
(0.317376 0.51772 -0.017928)
(0.211536 0.566338 -0.017993)
(0.095825 0.612755 -0.0181346)
(3 1.75159e-07 -0.00571425)
(2.99999 9.58939e-07 -0.00571432)
(2.99998 3.5723e-06 -0.00571444)
(2.99994 9.19279e-06 -0.00571481)
(2.99986 2.53616e-05 -0.00571549)
(2.99964 5.86471e-05 -0.00571757)
(2.99919 0.000150186 -0.00572149)
(2.99788 0.000355062 -0.00573305)
(2.9954 0.000815161 -0.0057571)
(2.98717 0.00210458 -0.00581609)
(2.97244 0.00441544 -0.0059883)
(2.91866 0.0114146 -0.00628189)
(2.7855 0.0277711 -0.00751571)
(2.42346 0.07181 -0.00999581)
(1.36805 0.201455 -0.0153366)
(0.648329 0.385872 -0.0173071)
(0.645476 0.418183 -0.017254)
(0.673515 0.413526 -0.0173092)
(0.655284 0.428903 -0.0173825)
(0.595359 0.458228 -0.0174484)
(0.52076 0.500292 -0.0175203)
(0.45054 0.548329 -0.0175722)
(0.372925 0.605231 -0.0175721)
(0.26951 0.679343 -0.0175386)
(0.134664 0.771985 -0.0174637)
(3 2.64018e-07 -0.00571424)
(2.99999 4.52735e-07 -0.00571431)
(2.99998 3.8263e-06 -0.00571441)
(2.99995 5.57474e-06 -0.00571471)
(2.99988 2.58618e-05 -0.00571528)
(2.9997 3.59315e-05 -0.00571695)
(2.99934 0.000154563 -0.00572038)
(2.99818 0.000198847 -0.00572881)
(2.99625 0.000944851 -0.00575228)
(2.98871 0.000885292 -0.00579329)
(2.9765 0.00636919 -0.00596742)
(2.92787 0.00366831 -0.00619063)
(2.8123 0.0409117 -0.00737561)
(2.48972 0.0519343 -0.00938147)
(1.51422 0.219656 -0.0146579)
(0.749877 0.439637 -0.0169287)
(0.654629 0.452478 -0.0171552)
(0.679747 0.45233 -0.01718)
(0.675909 0.473776 -0.017185)
(0.631978 0.50706 -0.0172204)
(0.571642 0.557461 -0.0172005)
(0.511316 0.617385 -0.0171607)
(0.448597 0.695693 -0.017062)
(0.366337 0.815045 -0.016855)
(0.208033 1.02719 -0.0164698)
(3 1.32245e-08 -2.5155e-09)
(2.99998 7.19293e-08 -8.66868e-09)
(2.99996 2.67892e-07 -1.00208e-08)
(2.9999 6.86175e-07 -1.61531e-08)
(2.99977 1.90185e-06 -1.58735e-08)
(2.9994 4.33213e-06 -2.17503e-08)
(2.99869 1.15901e-05 -2.17211e-08)
(2.99641 2.49979e-05 -2.98697e-08)
(2.99252 7.18312e-05 -3.09179e-08)
(2.9775 0.000146716 -5.62676e-08)
(2.95158 0.000464512 -6.79031e-08)
(2.85066 0.000986526 -1.49617e-07)
(2.58279 0.00363882 -1.68775e-07)
(1.92452 0.00867822 -5.5504e-07)
(0.863497 0.0249268 -6.00527e-07)
(0.449634 0.0235412 8.57983e-08)
(0.539392 0.0240393 -1.49261e-08)
(0.565993 0.0260353 -7.65279e-08)
(0.513286 0.027997 -7.73138e-08)
(0.422808 0.0299357 -7.07217e-08)
(0.336403 0.0322398 -6.07242e-08)
(0.266592 0.0350067 -5.64957e-08)
(0.1972 0.0379858 -5.32085e-08)
(0.118979 0.0415174 -5.03153e-08)
(0.0515937 0.0461878 -4.90052e-08)
(3 3.93944e-08 -2.51017e-09)
(2.99998 2.14316e-07 -8.66903e-09)
(2.99996 7.98811e-07 -1.00263e-08)
(2.9999 2.04489e-06 -1.61334e-08)
(2.99977 5.67885e-06 -1.5906e-08)
(2.99941 1.29274e-05 -2.17327e-08)
(2.9987 3.47487e-05 -2.17463e-08)
(2.99646 7.47043e-05 -2.98319e-08)
(2.99262 0.000217213 -3.09894e-08)
(2.97782 0.000441457 -5.6046e-08)
(2.95229 0.00141903 -6.74532e-08)
(2.85307 0.00301155 -1.47733e-07)
(2.58995 0.0112686 -1.63909e-07)
(1.94072 0.0269802 -5.39738e-07)
(0.872876 0.0761638 -5.9143e-07)
(0.446156 0.0682823 8.20407e-08)
(0.538927 0.066644 -1.71674e-08)
(0.566539 0.0700879 -7.78876e-08)
(0.513456 0.0734091 -7.85984e-08)
(0.422945 0.076694 -7.16328e-08)
(0.336593 0.0804888 -6.1361e-08)
(0.266279 0.0847874 -5.71221e-08)
(0.195863 0.0887974 -5.30591e-08)
(0.116341 0.0927433 -5.02985e-08)
(0.0486223 0.0964178 -4.83648e-08)
(3 6.39576e-08 -2.50107e-09)
(2.99998 3.47369e-07 -8.66649e-09)
(2.99996 1.29812e-06 -1.00435e-08)
(2.9999 3.32243e-06 -1.60774e-08)
(2.99978 9.26828e-06 -1.59875e-08)
(2.99942 2.11256e-05 -2.16618e-08)
(2.99874 5.71545e-05 -2.17576e-08)
(2.99656 0.000123052 -2.94771e-08)
(2.99282 0.000361023 -3.09965e-08)
(2.97848 0.000733905 -5.38345e-08)
(2.95377 0.0023904 -6.5006e-08)
(2.85816 0.00505944 -1.40954e-07)
(2.60534 0.0190788 -1.51783e-07)
(1.97672 0.0459279 -5.12671e-07)
(0.895385 0.131142 -5.91319e-07)
(0.442702 0.116125 6.16081e-08)
(0.541422 0.111996 -2.58109e-08)
(0.571477 0.117866 -7.845e-08)
(0.518164 0.124017 -7.85958e-08)
(0.427997 0.130738 -7.11849e-08)
(0.34194 0.137892 -6.15526e-08)
(0.271107 0.145662 -5.78813e-08)
(0.199468 0.1532 -5.36332e-08)
(0.118249 0.160119 -5.06711e-08)
(0.0486104 0.164915 -4.79902e-08)
(3 7.89205e-08 -2.48881e-09)
(2.99999 4.32821e-07 -8.67244e-09)
(2.99996 1.60603e-06 -1.00954e-08)
(2.9999 4.09069e-06 -1.60829e-08)
(2.99979 1.13611e-05 -1.63179e-08)
(2.99945 2.55622e-05 -2.21429e-08)
(2.99879 7.06335e-05 -2.29412e-08)
(2.99671 0.000140269 -3.43982e-08)
(2.99313 0.000478254 -2.97452e-08)
(2.97948 0.000799358 -7.88621e-08)
(2.95599 0.00345515 -3.8854e-08)
(2.86581 0.00660203 -1.64843e-07)
(2.62851 0.0266258 -5.29068e-08)
(2.03198 0.0636574 -4.41498e-07)
(0.931028 0.18453 -5.15034e-07)
(0.440405 0.164182 1.99429e-08)
(0.547726 0.157063 -6.20784e-08)
(0.581872 0.165119 -8.62187e-08)
(0.528681 0.174217 -8.12704e-08)
(0.439096 0.184983 -7.09535e-08)
(0.353144 0.195907 -6.53605e-08)
(0.281672 0.207583 -6.25695e-08)
(0.208472 0.219285 -5.78e-08)
(0.124402 0.230001 -5.40041e-08)
(0.0507554 0.236629 -5.05554e-08)
(3 9.91508e-08 -2.48298e-09)
(2.99999 5.4394e-07 -8.63097e-09)
(2.99997 2.01602e-06 -1.01242e-08)
(2.99991 5.143e-06 -1.59025e-08)
(2.9998 1.42238e-05 -1.62519e-08)
(2.99947 3.20964e-05 -2.15576e-08)
(2.99883 8.75924e-05 -2.20046e-08)
(2.9969 0.000175708 -3.10761e-08)
(2.99338 0.00059306 -2.75912e-08)
(2.98092 0.000923336 -7.8043e-08)
(2.95874 0.00436352 -2.76958e-10)
(2.87591 0.00794937 -1.89033e-07)
(2.65977 0.0324716 -1.5974e-08)
(2.1069 0.0778108 -3.92145e-07)
(0.98481 0.231256 -4.69042e-07)
(0.447211 0.212703 -1.63708e-08)
(0.561314 0.203554 -7.95928e-08)
(0.599836 0.212612 -8.43676e-08)
(0.546752 0.223874 -7.78126e-08)
(0.457693 0.238659 -6.6544e-08)
(0.371196 0.253759 -6.64685e-08)
(0.298471 0.27001 -6.60375e-08)
(0.222943 0.2867 -6.21249e-08)
(0.134769 0.302169 -5.87844e-08)
(0.0553071 0.311463 -5.55108e-08)
(3 1.25537e-07 -2.46047e-09)
(2.99999 6.82868e-07 -8.62012e-09)
(2.99997 2.54479e-06 -1.0091e-08)
(2.99991 6.52236e-06 -1.58187e-08)
(2.99981 1.8061e-05 -1.60286e-08)
(2.99951 4.12936e-05 -2.10432e-08)
(2.99891 0.000109517 -2.09645e-08)
(2.99713 0.000238696 -2.68508e-08)
(2.99376 0.000684734 -2.7967e-08)
(2.98257 0.00129512 -4.91942e-08)
(2.96199 0.0047309 -3.06476e-08)
(2.88753 0.00900919 -1.36525e-07)
(2.69533 0.0348779 -6.88123e-08)
(2.19628 0.0848214 -3.59376e-07)
(1.05788 0.260577 -4.73433e-07)
(0.471242 0.259749 -4.71319e-08)
(0.584601 0.253941 -7.6313e-08)
(0.626074 0.262733 -7.22695e-08)
(0.573458 0.274924 -6.86445e-08)
(0.485251 0.293216 -6.27114e-08)
(0.397835 0.313025 -6.55192e-08)
(0.323299 0.334724 -6.7046e-08)
(0.244688 0.357797 -6.44472e-08)
(0.150644 0.380278 -6.31429e-08)
(0.0625104 0.394718 -6.17084e-08)
(3 1.38986e-07 -2.43463e-09)
(2.99999 7.55726e-07 -8.62263e-09)
(2.99997 2.81317e-06 -1.00757e-08)
(2.99992 7.21059e-06 -1.5795e-08)
(2.99982 1.98961e-05 -1.59558e-08)
(2.99955 4.55062e-05 -2.09117e-08)
(2.999 0.000119176 -2.06015e-08)
(2.99738 0.000264449 -2.61276e-08)
(2.99426 0.000707075 -2.71523e-08)
(2.98425 0.00150033 -3.85926e-08)
(2.9653 0.00452578 -3.8609e-08)
(2.89942 0.00932845 -1.04603e-07)
(2.73124 0.0321312 -7.20708e-08)
(2.29065 0.0785919 -2.89213e-07)
(1.15223 0.240714 -3.22395e-07)
(0.523387 0.294451 -1.402e-07)
(0.619464 0.306279 -8.33877e-08)
(0.658716 0.314297 -5.87273e-08)
(0.607482 0.327078 -5.77675e-08)
(0.521704 0.349289 -5.68996e-08)
(0.433765 0.374833 -6.03278e-08)
(0.357302 0.403224 -6.41303e-08)
(0.275561 0.434587 -6.45756e-08)
(0.174903 0.467352 -6.59596e-08)
(0.0749094 0.492118 -6.67683e-08)
(3 1.49293e-07 -2.41111e-09)
(2.99999 8.12999e-07 -8.62932e-09)
(2.99997 3.0209e-06 -1.00767e-08)
(2.99993 7.73727e-06 -1.57941e-08)
(2.99984 2.13015e-05 -1.59463e-08)
(2.99959 4.86639e-05 -2.08867e-08)
(2.99909 0.000126818 -2.05324e-08)
(2.99762 0.000282505 -2.59232e-08)
(2.99479 0.000731654 -2.6777e-08)
(2.98572 0.00164526 -3.75703e-08)
(2.96863 0.00425863 -3.63665e-08)
(2.90924 0.0100846 -1.01041e-07)
(2.75897 0.0285133 -6.12768e-08)
(2.35783 0.0708878 -2.58881e-07)
(1.2456 0.205612 -3.20733e-07)
(0.568086 0.334265 -2.27927e-07)
(0.636076 0.367863 -9.48132e-08)
(0.674827 0.366375 -4.76404e-08)
(0.63498 0.378686 -4.86558e-08)
(0.559111 0.405129 -5.17571e-08)
(0.475237 0.438134 -5.61226e-08)
(0.399772 0.475218 -6.02053e-08)
(0.317389 0.517727 -6.17756e-08)
(0.211544 0.566341 -6.56558e-08)
(0.0958291 0.612756 -6.96738e-08)
(3 1.75224e-07 -2.39112e-09)
(2.99999 9.57381e-07 -8.63144e-09)
(2.99998 3.56748e-06 -1.00902e-08)
(2.99994 9.16311e-06 -1.58022e-08)
(2.99986 2.53445e-05 -1.60095e-08)
(2.99964 5.85861e-05 -2.1008e-08)
(2.99919 0.000150111 -2.10073e-08)
(2.99788 0.000354891 -2.70872e-08)
(2.9954 0.000814999 -2.62829e-08)
(2.98716 0.00210411 -6.52347e-08)
(2.97244 0.00441464 -1.82216e-10)
(2.91866 0.0114145 -1.54003e-07)
(2.7855 0.0277717 1.16514e-08)
(2.42344 0.0718093 -2.64305e-07)
(1.36804 0.201463 -2.65871e-07)
(0.648317 0.385869 -2.82274e-07)
(0.645494 0.418188 -5.90825e-08)
(0.673534 0.413533 -4.01074e-08)
(0.655303 0.428911 -4.35096e-08)
(0.595377 0.458238 -4.64067e-08)
(0.520777 0.500302 -5.17203e-08)
(0.450557 0.54834 -5.53478e-08)
(0.372939 0.605241 -5.72019e-08)
(0.26952 0.67935 -6.16884e-08)
(0.13467 0.77199 -6.80409e-08)
(3 2.4986e-07 -2.40976e-09)
(2.99999 5.09333e-07 -8.65839e-09)
(2.99998 3.72093e-06 -1.01413e-08)
(2.99995 5.61597e-06 -1.62825e-08)
(2.99988 2.57351e-05 -1.57685e-08)
(2.99969 3.59783e-05 -2.16706e-08)
(2.99934 0.000154457 -2.08905e-08)
(2.99818 0.00019897 -2.77393e-08)
(2.99625 0.000944686 -2.67527e-08)
(2.98871 0.000886987 -4.33076e-08)
(2.97649 0.00636761 -4.31724e-08)
(2.92787 0.00367238 -9.11383e-08)
(2.81229 0.0409061 -3.81627e-08)
(2.48969 0.0519399 -2.81008e-07)
(1.5142 0.219651 -2.29317e-07)
(0.749855 0.439634 -3.21885e-07)
(0.654646 0.452482 -3.65615e-08)
(0.679764 0.452338 -2.88668e-08)
(0.675926 0.473784 -4.10453e-08)
(0.631995 0.507069 -4.33746e-08)
(0.571659 0.557471 -4.76688e-08)
(0.511332 0.617397 -4.92972e-08)
(0.448612 0.695704 -5.20766e-08)
(0.366349 0.815054 -5.51584e-08)
(0.208041 1.0272 -6.02577e-08)
(3 1.32246e-08 -3.71254e-13)
(2.99998 7.19297e-08 -1.98433e-12)
(2.99996 2.67893e-07 -4.2807e-12)
(2.9999 6.86178e-07 -9.06432e-12)
(2.99977 1.90186e-06 -1.61863e-11)
(2.9994 4.33215e-06 -3.01647e-11)
(2.99869 1.15901e-05 -6.2871e-11)
(2.99641 2.4998e-05 -1.10937e-10)
(2.99252 7.18314e-05 -3.19926e-10)
(2.9775 0.000146716 -5.1239e-10)
(2.95158 0.000464513 -1.8704e-09)
(2.85066 0.000986527 -3.19444e-09)
(2.58279 0.00363882 -1.20401e-08)
(1.92452 0.00867822 -2.49207e-08)
(0.863495 0.0249268 -3.53992e-08)
(0.449636 0.0235411 7.11311e-09)
(0.539393 0.0240393 1.28006e-09)
(0.565993 0.0260353 -1.6062e-09)
(0.513286 0.027997 -1.43499e-09)
(0.422808 0.0299357 -9.63867e-10)
(0.336403 0.0322398 -9.52497e-10)
(0.266592 0.0350067 -1.0502e-09)
(0.1972 0.0379859 -1.12205e-09)
(0.118979 0.0415174 -1.22378e-09)
(0.0515938 0.0461878 -1.31246e-09)
(3 3.93946e-08 -3.69856e-13)
(2.99998 2.14317e-07 -1.97816e-12)
(2.99996 7.98815e-07 -4.26215e-12)
(2.9999 2.0449e-06 -9.02184e-12)
(2.99977 5.67887e-06 -1.60868e-11)
(2.99941 1.29274e-05 -2.99598e-11)
(2.9987 3.47488e-05 -6.24168e-11)
(2.99646 7.47044e-05 -1.10139e-10)
(2.99262 0.000217214 -3.18052e-10)
(2.97782 0.000441457 -5.09773e-10)
(2.95229 0.00141903 -1.86808e-09)
(2.85307 0.00301155 -3.19367e-09)
(2.58995 0.0112686 -1.20466e-08)
(1.94071 0.0269802 -2.50167e-08)
(0.872874 0.0761637 -3.59634e-08)
(0.446158 0.0682823 7.14787e-09)
(0.538927 0.0666439 1.28212e-09)
(0.566539 0.0700878 -1.58047e-09)
(0.513456 0.0734091 -1.40365e-09)
(0.422945 0.076694 -9.35263e-10)
(0.336594 0.0804888 -9.21294e-10)
(0.266279 0.0847875 -1.0114e-09)
(0.195863 0.0887974 -1.06646e-09)
(0.116341 0.0927434 -1.19267e-09)
(0.0486224 0.0964179 -1.26169e-09)
(3 6.39589e-08 -3.66633e-13)
(2.99998 3.47376e-07 -1.96301e-12)
(2.99996 1.29815e-06 -4.22111e-12)
(2.9999 3.32249e-06 -8.92822e-12)
(2.99978 9.26846e-06 -1.58995e-11)
(2.99942 2.11261e-05 -2.9626e-11)
(2.99874 5.71555e-05 -6.16965e-11)
(2.99656 0.000123056 -1.10178e-10)
(2.99282 0.000361026 -3.14486e-10)
(2.97848 0.000733926 -5.15552e-10)
(2.95377 0.00239039 -1.87481e-09)
(2.85816 0.00505948 -3.20298e-09)
(2.60534 0.0190788 -1.20691e-08)
(1.97672 0.0459279 -2.5197e-08)
(0.895383 0.131142 -3.72709e-08)
(0.442704 0.116125 7.25942e-09)
(0.541423 0.111996 1.35521e-09)
(0.571477 0.117866 -1.53425e-09)
(0.518164 0.124017 -1.36296e-09)
(0.427997 0.130738 -9.03687e-10)
(0.34194 0.137892 -8.59129e-10)
(0.271107 0.145662 -9.27127e-10)
(0.199468 0.1532 -9.71263e-10)
(0.118249 0.160119 -1.09683e-09)
(0.0486105 0.164916 -1.12986e-09)
(3 7.89214e-08 -3.43602e-13)
(2.99999 4.32825e-07 -1.8684e-12)
(2.99996 1.60605e-06 -3.87803e-12)
(2.9999 4.09073e-06 -8.17953e-12)
(2.99979 1.13612e-05 -1.35956e-11)
(2.99945 2.55625e-05 -2.42949e-11)
(2.99879 7.06341e-05 -5.05368e-11)
(2.99671 0.000140271 -6.08949e-11)
(2.99313 0.000478256 -3.24869e-10)
(2.97948 0.000799372 -1.42835e-10)
(2.95599 0.00345514 -2.44033e-09)
(2.86581 0.00660206 -2.37429e-09)
(2.62851 0.0266258 -1.31247e-08)
(2.03197 0.0636575 -2.54904e-08)
(0.931025 0.18453 -3.99006e-08)
(0.440406 0.164182 7.1509e-09)
(0.547726 0.157063 1.65873e-09)
(0.581872 0.165119 -1.39551e-09)
(0.52868 0.174217 -1.28768e-09)
(0.439096 0.184983 -8.90026e-10)
(0.353144 0.195907 -7.66264e-10)
(0.281672 0.207583 -8.0444e-10)
(0.208472 0.219285 -8.32436e-10)
(0.124402 0.230001 -9.37018e-10)
(0.0507555 0.23663 -9.17626e-10)
(3 9.91503e-08 -3.49034e-13)
(2.99999 5.43937e-07 -1.90264e-12)
(2.99997 2.01601e-06 -4.0103e-12)
(2.99991 5.14298e-06 -8.27321e-12)
(2.9998 1.42237e-05 -1.46013e-11)
(2.99947 3.20961e-05 -2.61224e-11)
(2.99883 8.75918e-05 -5.42729e-11)
(2.9969 0.000175706 -8.17653e-11)
(2.99338 0.00059306 -3.14254e-10)
(2.98092 0.000923322 -2.63858e-10)
(2.95874 0.00436354 -2.22204e-09)
(2.87591 0.00794938 -2.54362e-09)
(2.65977 0.0324718 -1.23306e-08)
(2.10689 0.0778112 -2.48995e-08)
(0.984807 0.231256 -4.19163e-08)
(0.447212 0.212703 5.94646e-09)
(0.561313 0.203554 1.75354e-09)
(0.599836 0.212612 -1.2481e-09)
(0.546751 0.223874 -1.2369e-09)
(0.457692 0.238659 -8.9106e-10)
(0.371196 0.253759 -6.35375e-10)
(0.298471 0.27001 -6.34957e-10)
(0.222943 0.2867 -6.38193e-10)
(0.134769 0.30217 -7.1564e-10)
(0.0553071 0.311464 -6.86785e-10)
(3 1.25537e-07 -3.55381e-13)
(2.99999 6.8287e-07 -1.92345e-12)
(2.99997 2.54479e-06 -4.1012e-12)
(2.99991 6.52237e-06 -8.50239e-12)
(2.99981 1.8061e-05 -1.52254e-11)
(2.99951 4.12937e-05 -2.7924e-11)
(2.99891 0.000109517 -5.60036e-11)
(2.99713 0.000238696 -1.04241e-10)
(2.99376 0.000684739 -2.74683e-10)
(2.98257 0.00129512 -4.19749e-10)
(2.96199 0.00473095 -1.79586e-09)
(2.88753 0.00900927 -2.55178e-09)
(2.69533 0.0348783 -1.08771e-08)
(2.19627 0.0848223 -2.31257e-08)
(1.05788 0.26058 -4.30896e-08)
(0.471241 0.259749 2.57646e-09)
(0.5846 0.25394 8.22589e-10)
(0.626073 0.262733 -1.16449e-09)
(0.573457 0.274924 -1.26321e-09)
(0.48525 0.293216 -1.11544e-09)
(0.397835 0.313024 -7.09479e-10)
(0.323299 0.334724 -6.0293e-10)
(0.244688 0.357797 -5.04341e-10)
(0.150643 0.380278 -5.17937e-10)
(0.0625104 0.394718 -4.5193e-10)
(3 1.38987e-07 -3.44255e-13)
(2.99999 7.5573e-07 -1.87386e-12)
(2.99997 2.81318e-06 -3.93387e-12)
(2.99992 7.21063e-06 -8.13824e-12)
(2.99982 1.98962e-05 -1.40888e-11)
(2.99955 4.55065e-05 -2.55417e-11)
(2.999 0.000119176 -4.84195e-11)
(2.99738 0.000264451 -8.88515e-11)
(2.99426 0.00070708 -2.13434e-10)
(2.98425 0.00150034 -3.75784e-10)
(2.9653 0.00452582 -1.3001e-09)
(2.89942 0.00932853 -1.72353e-09)
(2.73124 0.0321316 -7.75291e-09)
(2.29065 0.0785929 -1.60773e-08)
(1.15223 0.240717 -2.58919e-08)
(0.523386 0.294451 -7.47502e-09)
(0.619464 0.306278 -1.9548e-09)
(0.658715 0.314297 -1.1268e-09)
(0.607481 0.327078 -1.20171e-09)
(0.521704 0.349288 -1.20493e-09)
(0.433765 0.374833 -7.83878e-10)
(0.357301 0.403224 -6.09632e-10)
(0.275561 0.434587 -4.59092e-10)
(0.174903 0.467353 -4.02017e-10)
(0.0749094 0.492118 -2.68453e-10)
(3 1.49293e-07 -3.40134e-13)
(2.99999 8.12999e-07 -1.854e-12)
(2.99997 3.0209e-06 -3.87443e-12)
(2.99993 7.73727e-06 -8.00504e-12)
(2.99984 2.13015e-05 -1.37184e-11)
(2.99959 4.86638e-05 -2.47587e-11)
(2.99909 0.000126817 -4.61953e-11)
(2.99762 0.000282504 -8.45399e-11)
(2.99479 0.000731654 -1.96366e-10)
(2.98572 0.00164524 -3.67605e-10)
(2.96863 0.00425866 -1.0315e-09)
(2.90924 0.0100845 -1.96654e-09)
(2.75897 0.0285135 -5.88845e-09)
(2.35782 0.0708883 -1.29908e-08)
(1.24559 0.205614 -2.46214e-08)
(0.568084 0.334264 -1.61925e-08)
(0.636076 0.367863 -5.09407e-09)
(0.674827 0.366375 -8.93767e-10)
(0.63498 0.378686 -1.016e-09)
(0.55911 0.405129 -1.2582e-09)
(0.475236 0.438133 -1.07031e-09)
(0.399771 0.475217 -8.05838e-10)
(0.317388 0.517727 -5.57734e-10)
(0.211543 0.566341 -3.9662e-10)
(0.0958291 0.612756 -1.84957e-10)
(3 1.75224e-07 -3.4704e-13)
(2.99999 9.57382e-07 -1.8786e-12)
(2.99998 3.56749e-06 -3.9865e-12)
(2.99994 9.16312e-06 -8.22032e-12)
(2.99986 2.53446e-05 -1.46234e-11)
(2.99964 5.85862e-05 -2.65244e-11)
(2.99919 0.000150112 -5.2838e-11)
(2.99788 0.000354892 -1.01839e-10)
(2.9954 0.000815001 -1.91798e-10)
(2.98716 0.00210411 -7.57927e-10)
(2.97244 0.00441465 -4.38334e-10)
(2.91866 0.0114145 -3.14696e-09)
(2.78549 0.0277718 -3.95282e-09)
(2.42343 0.0718095 -1.2295e-08)
(1.36803 0.201464 -2.22616e-08)
(0.648314 0.385869 -1.95013e-08)
(0.645494 0.418189 -1.55859e-09)
(0.673535 0.413533 -2.55829e-10)
(0.655303 0.428911 -8.72759e-10)
(0.595377 0.458238 -1.06186e-09)
(0.520777 0.500302 -1.23848e-09)
(0.450556 0.54834 -9.09846e-10)
(0.372939 0.605241 -7.08123e-10)
(0.26952 0.679349 -3.97776e-10)
(0.13467 0.77199 -2.14938e-10)
(3 2.49858e-07 -3.38548e-13)
(2.99999 5.09345e-07 -1.82225e-12)
(2.99998 3.72093e-06 -3.77921e-12)
(2.99995 5.61603e-06 -7.97567e-12)
(2.99988 2.57352e-05 -1.29376e-11)
(2.99969 3.59787e-05 -2.37265e-11)
(2.99934 0.000154458 -4.2128e-11)
(2.99818 0.000198973 -7.71074e-11)
(2.99625 0.00094469 -1.68503e-10)
(2.98871 0.000887012 -3.17192e-10)
(2.97649 0.00636762 -8.35786e-10)
(2.92787 0.00367246 -1.74242e-09)
(2.81229 0.0409062 -3.89566e-09)
(2.48969 0.0519403 -1.22897e-08)
(1.5142 0.219651 -1.96821e-08)
(0.749853 0.439634 -2.28247e-08)
(0.654647 0.452482 -4.45551e-10)
(0.679765 0.452338 5.65968e-11)
(0.675927 0.473785 -1.03929e-09)
(0.631995 0.507069 -1.15393e-09)
(0.571659 0.557471 -1.26265e-09)
(0.511332 0.617397 -1.09895e-09)
(0.448612 0.695704 -8.08956e-10)
(0.366349 0.815054 -4.15182e-10)
(0.20804 1.0272 -2.86031e-10)
(3 1.32246e-08 -1.05012e-14)
(2.99998 7.19297e-08 -4.7092e-14)
(2.99996 2.67893e-07 -1.54287e-13)
(2.9999 6.86178e-07 -3.33093e-13)
(2.99977 1.90186e-06 -9.42459e-13)
(2.9994 4.33215e-06 -1.90623e-12)
(2.99869 1.15901e-05 -5.52437e-12)
(2.99641 2.4998e-05 -1.03059e-11)
(2.99252 7.18314e-05 -3.46957e-11)
(2.9775 0.000146716 -5.66251e-11)
(2.95158 0.000464513 -2.17191e-10)
(2.85066 0.000986527 -3.7248e-10)
(2.58279 0.00363882 -1.40739e-09)
(1.92452 0.00867822 -2.88198e-09)
(0.863495 0.0249268 -4.00712e-09)
(0.449636 0.0235411 1.0802e-09)
(0.539393 0.0240393 3.37753e-10)
(0.565993 0.0260353 -1.0989e-11)
(0.513286 0.027997 8.94717e-12)
(0.422808 0.0299357 9.68756e-11)
(0.336403 0.0322398 9.23883e-11)
(0.266592 0.0350067 1.3521e-10)
(0.1972 0.0379859 1.50427e-10)
(0.118979 0.0415174 1.42412e-10)
(0.0515938 0.0461878 1.55758e-10)
(3 3.93946e-08 -1.03483e-14)
(2.99998 2.14317e-07 -4.63221e-14)
(2.99996 7.98815e-07 -1.5196e-13)
(2.9999 2.0449e-06 -3.27929e-13)
(2.99977 5.67887e-06 -9.30045e-13)
(2.99941 1.29274e-05 -1.88097e-12)
(2.9987 3.47488e-05 -5.46809e-12)
(2.99646 7.47044e-05 -1.02082e-11)
(2.99262 0.000217214 -3.44555e-11)
(2.97782 0.000441457 -5.63022e-11)
(2.95229 0.00141903 -2.16807e-10)
(2.85307 0.00301155 -3.72291e-10)
(2.58995 0.0112686 -1.40734e-09)
(1.94071 0.0269803 -2.89209e-09)
(0.872873 0.0761637 -4.07097e-09)
(0.446158 0.0682823 1.08227e-09)
(0.538927 0.0666439 3.34963e-10)
(0.566539 0.0700879 -1.05392e-11)
(0.513456 0.0734091 1.00153e-11)
(0.422945 0.076694 9.70263e-11)
(0.336594 0.0804888 9.44769e-11)
(0.266279 0.0847875 1.37908e-10)
(0.195863 0.0887974 1.58173e-10)
(0.116341 0.0927434 1.40689e-10)
(0.0486224 0.0964179 1.60502e-10)
(3 6.3959e-08 -9.97396e-15)
(2.99998 3.47376e-07 -4.45074e-14)
(2.99996 1.29815e-06 -1.46939e-13)
(2.9999 3.3225e-06 -3.17004e-13)
(2.99978 9.26847e-06 -9.07596e-13)
(2.99942 2.11261e-05 -1.84146e-12)
(2.99874 5.71556e-05 -5.38324e-12)
(2.99656 0.000123056 -1.02125e-11)
(2.99282 0.000361026 -3.40192e-11)
(2.97848 0.000733927 -5.69679e-11)
(2.95377 0.00239039 -2.17343e-10)
(2.85816 0.00505948 -3.73196e-10)
(2.60534 0.0190788 -1.4078e-09)
(1.97672 0.0459279 -2.90954e-09)
(0.895383 0.131142 -4.21592e-09)
(0.442704 0.116125 1.09286e-09)
(0.541423 0.111996 3.39028e-10)
(0.571477 0.117866 -8.21614e-12)
(0.518164 0.124017 1.24732e-11)
(0.427997 0.130738 9.80681e-11)
(0.34194 0.137892 1.01528e-10)
(0.271107 0.145662 1.45503e-10)
(0.199468 0.1532 1.65638e-10)
(0.118249 0.160119 1.44402e-10)
(0.0486105 0.164916 1.74143e-10)
(3 7.89214e-08 -7.28412e-15)
(2.99999 4.32825e-07 -3.32176e-14)
(2.99996 1.60605e-06 -1.0655e-13)
(2.9999 4.09074e-06 -2.29816e-13)
(2.99979 1.13612e-05 -6.40643e-13)
(2.99945 2.55625e-05 -1.23402e-12)
(2.99879 7.06341e-05 -4.09653e-12)
(2.99671 0.000140271 -4.7199e-12)
(2.99313 0.000478256 -3.4849e-11)
(2.97948 0.000799373 -1.5873e-11)
(2.95599 0.00345514 -2.79213e-10)
(2.86581 0.00660206 -2.80968e-10)
(2.62851 0.0266258 -1.52356e-09)
(2.03197 0.0636575 -2.94153e-09)
(0.931025 0.18453 -4.51426e-09)
(0.440407 0.164182 1.07641e-09)
(0.547726 0.157063 3.70398e-10)
(0.581872 0.165119 6.02342e-12)
(0.52868 0.174217 1.99992e-11)
(0.439096 0.184983 9.80355e-11)
(0.353144 0.195907 1.13455e-10)
(0.281672 0.207583 1.5714e-10)
(0.208472 0.219285 1.73649e-10)
(0.124402 0.230001 1.51415e-10)
(0.0507555 0.23663 1.94067e-10)
(3 9.91502e-08 -8.16309e-15)
(2.99999 5.43937e-07 -3.68922e-14)
(2.99997 2.01601e-06 -1.20567e-13)
(2.99991 5.14297e-06 -2.57923e-13)
(2.9998 1.42236e-05 -7.40126e-13)
(2.99947 3.20961e-05 -1.46961e-12)
(2.99883 8.75918e-05 -4.53832e-12)
(2.9969 0.000175705 -7.10307e-12)
(2.99338 0.00059306 -3.36882e-11)
(2.98092 0.000923321 -2.94972e-11)
(2.95874 0.00436354 -2.53533e-10)
(2.87591 0.00794938 -2.9917e-10)
(2.65977 0.0324718 -1.42558e-09)
(2.10689 0.0778112 -2.86414e-09)
(0.984806 0.231256 -4.73371e-09)
(0.447212 0.212703 9.27656e-10)
(0.561313 0.203553 3.7691e-10)
(0.599835 0.212612 2.36771e-11)
(0.546751 0.223874 2.68657e-11)
(0.457692 0.238659 9.49603e-11)
(0.371196 0.253759 1.26373e-10)
(0.298471 0.27001 1.6851e-10)
(0.222943 0.2867 1.87873e-10)
(0.134769 0.30217 1.71143e-10)
(0.0553071 0.311464 2.04668e-10)
(3 1.25537e-07 -8.87686e-15)
(2.99999 6.8287e-07 -3.94743e-14)
(2.99997 2.54479e-06 -1.30467e-13)
(2.99991 6.52237e-06 -2.82797e-13)
(2.99981 1.8061e-05 -8.04522e-13)
(2.99951 4.12937e-05 -1.65359e-12)
(2.99891 0.000109517 -4.6879e-12)
(2.99713 0.000238696 -9.40326e-12)
(2.99376 0.000684739 -2.91167e-11)
(2.98257 0.00129512 -4.55985e-11)