/*--------------------------------*- C++ -*----------------------------------*\
| =========                 |                                                 |
| \\      /  F ield         | OpenFOAM: The Open Source CFD Toolbox           |
|  \\    /   O peration     | Version:  4.1                                   |
|   \\  /    A nd           | Web:      www.OpenFOAM.org                      |
|    \\/     M anipulation  |                                                 |
\*---------------------------------------------------------------------------*/
FoamFile
{
    version     2.0;
    format      ascii;
    class       volScalarField;
    location    "0.42";
    object      Ma;
}
// * * * * * * * * * * * * * * * * * * * * * * * * * * * * * * * * * * * * * //

dimensions      [0 0 0 0 0 0 0];

internalField   nonuniform List<scalar> 
52500
(
3.14196
3.28525
3.28273
3.2776
3.26575
3.23492
3.14588
2.84638
1.85683
0.234615
0.502733
0.50009
0.384437
0.365598
0.325191
0.27689
0.235967
0.201683
0.174731
0.152562
0.13366
0.113891
0.0965307
0.090669
0.0398165
3.14194
3.28524
3.28283
3.27774
3.2661
3.23592
3.14907
2.85838
1.89023
0.263173
0.500338
0.504645
0.385975
0.366813
0.32689
0.278435
0.238004
0.204897
0.179976
0.16059
0.145954
0.131415
0.11931
0.118375
0.0877456
3.14189
3.28522
3.283
3.27806
3.26684
3.23804
3.15582
2.88388
1.9686
0.349315
0.495056
0.517652
0.391016
0.371203
0.332983
0.285045
0.246121
0.215569
0.194634
0.180261
0.172342
0.165528
0.160479
0.166253
0.148767
3.14182
3.28519
3.28322
3.2785
3.2679
3.24106
3.16529
2.91878
2.07615
0.473717
0.485336
0.535795
0.398948
0.377995
0.342207
0.294821
0.258149
0.231117
0.215166
0.206753
0.206295
0.207612
0.209265
0.222155
0.213545
3.14173
3.28515
3.28347
3.27902
3.26918
3.2447
3.1766
2.95968
2.20536
0.629583
0.46705
0.558689
0.411571
0.387748
0.355353
0.308186
0.274096
0.250971
0.240317
0.23773
0.244319
0.253371
0.260981
0.281256
0.279654
3.14164
3.28511
3.28375
3.27961
3.27061
3.24868
3.18887
3.0032
2.34997
0.8217
0.436793
0.583683
0.430229
0.400179
0.371751
0.324883
0.293634
0.274537
0.269388
0.272237
0.285338
0.302163
0.31544
0.344176
0.349682
3.14154
3.28507
3.28402
3.28021
3.27207
3.25277
3.20138
3.04615
2.49974
1.07329
0.39255
0.607971
0.456148
0.415099
0.391168
0.344843
0.316229
0.300939
0.301441
0.309449
0.328399
0.354169
0.373175
0.411723
0.427756
3.14146
3.28503
3.28428
3.28078
3.27349
3.25673
3.21346
3.08681
2.64446
1.36938
0.342002
0.625813
0.491043
0.432374
0.412247
0.367711
0.34104
0.32949
0.33569
0.34907
0.372906
0.409462
0.434663
0.484663
0.517855
3.14141
3.28502
3.28451
3.2813
3.27481
3.26031
3.22442
3.12383
2.78413
1.70191
0.33014
0.63361
0.535694
0.452656
0.434428
0.394126
0.367716
0.360116
0.37156
0.391044
0.419136
0.467139
0.503162
0.561401
0.630861
3.14138
3.28502
3.2847
3.28175
3.27596
3.26343
3.23382
3.15475
2.90234
2.04842
0.497977
0.625679
0.588362
0.477226
0.456818
0.423341
0.395311
0.392457
0.408675
0.435062
0.467666
0.522996
0.579218
0.654389
0.797125
3.14195
3.28524
3.28272
3.27758
3.26573
3.23487
3.14574
2.84588
1.85536
0.233105
0.502965
0.499665
0.38414
0.36533
0.324977
0.276731
0.235828
0.201553
0.174592
0.152396
0.133452
0.113633
0.0962257
0.0903486
0.0391059
3.14193
3.28523
3.28282
3.27773
3.26608
3.23588
3.14896
2.85802
1.88921
0.262184
0.499765
0.503754
0.385343
0.36641
0.326647
0.278275
0.237879
0.204775
0.179837
0.160429
0.145764
0.131193
0.119061
0.11812
0.0874313
3.14188
3.28521
3.28298
3.27804
3.26681
3.23798
3.15566
2.88333
1.96698
0.347444
0.495794
0.517939
0.391399
0.371461
0.333061
0.285067
0.246075
0.215475
0.194494
0.180097
0.172163
0.165336
0.16028
0.166056
0.148578
3.14181
3.28518
3.28321
3.27849
3.26788
3.24102
3.16518
2.91839
2.07499
0.472572
0.485442
0.53572
0.399146
0.378273
0.342385
0.294889
0.258115
0.231011
0.215011
0.206579
0.206121
0.20744
0.209097
0.221993
0.213405
3.14173
3.28515
3.28346
3.27901
3.26917
3.24466
3.17648
2.95929
2.20418
0.62815
0.467571
0.558986
0.412039
0.388128
0.355508
0.308209
0.274013
0.250826
0.240132
0.237537
0.244139
0.253209
0.260832
0.281115
0.279538
3.14163
3.28511
3.28374
3.27961
3.2706
3.24866
3.18881
3.00297
2.34917
0.820554
0.43728
0.583829
0.430445
0.400303
0.371708
0.324744
0.293434
0.274331
0.269168
0.272024
0.285151
0.302006
0.315302
0.344049
0.349584
3.14153
3.28506
3.28402
3.28021
3.27207
3.25277
3.20137
3.04608
2.49945
1.07272
0.392905
0.60783
0.456015
0.41496
0.390997
0.344608
0.315968
0.300664
0.301195
0.309224
0.328208
0.354016
0.373046
0.411607
0.427666
3.14145
3.28503
3.28428
3.28078
3.2735
3.25675
3.21349
3.08683
2.64445
1.36927
0.342258
0.625682
0.490862
0.432179
0.412037
0.367466
0.340764
0.329202
0.335442
0.34885
0.372716
0.409319
0.43454
0.484556
0.517774
3.1414
3.28502
3.28451
3.2813
3.27482
3.26033
3.22444
3.12386
2.78418
1.70191
0.330138
0.633575
0.535569
0.452486
0.434201
0.39386
0.367436
0.359856
0.37133
0.390835
0.41896
0.466991
0.503047
0.561304
0.630785
3.14138
3.28502
3.2847
3.28176
3.27598
3.26346
3.23386
3.1548
2.90244
2.04853
0.497896
0.625692
0.58827
0.477114
0.456648
0.423144
0.395073
0.392239
0.408473
0.434891
0.467515
0.522854
0.579111
0.654306
0.797044
3.14195
3.28524
3.28272
3.27759
3.26574
3.23489
3.14579
2.84604
1.85585
0.23366
0.502927
0.500007
0.384514
0.365651
0.325199
0.27685
0.23588
0.201563
0.174567
0.152352
0.13341
0.1136
0.0962
0.0903351
0.0391089
3.14193
3.28523
3.28282
3.27773
3.26609
3.2359
3.149
2.85812
1.88946
0.262412
0.500259
0.504399
0.385846
0.366741
0.326813
0.278346
0.23789
0.204762
0.179806
0.160388
0.145729
0.131168
0.119045
0.118114
0.0874366
3.14188
3.28521
3.28299
3.27805
3.26683
3.23802
3.15576
2.88367
1.96796
0.34858
0.495136
0.517499
0.390935
0.371151
0.3329
0.284947
0.245996
0.215421
0.194457
0.180064
0.17214
0.165324
0.160276
0.166058
0.148588
3.14181
3.28518
3.28321
3.27849
3.26789
3.24104
3.16524
2.91862
2.07565
0.473164
0.485329
0.535601
0.398812
0.377917
0.342127
0.29472
0.258016
0.230956
0.214984
0.206563
0.206113
0.207442
0.209104
0.222001
0.213417
3.14173
3.28515
3.28347
3.27902
3.26918
3.2447
3.17657
2.95956
2.20495
0.629021
0.467065
0.558588
0.41153
0.387755
0.355339
0.308105
0.273965
0.250804
0.240131
0.237542
0.244148
0.253222
0.260848
0.281129
0.279553
3.14163
3.2851
3.28374
3.27961
3.27061
3.24867
3.18884
3.00309
2.34957
0.821094
0.436966
0.583738
0.430293
0.400216
0.371703
0.324776
0.293483
0.274375
0.269205
0.272053
0.285176
0.302029
0.315324
0.344066
0.3496
3.14154
3.28506
3.28402
3.28021
3.27208
3.25278
3.20139
3.04611
2.49954
1.07286
0.392649
0.60793
0.456123
0.415085
0.391121
0.344737
0.316079
0.300762
0.30126
0.309268
0.328243
0.354045
0.373072
0.411627
0.427684
3.14145
3.28503
3.28428
3.28078
3.2735
3.25674
3.21347
3.0868
2.64436
1.36909
0.342111
0.625791
0.491022
0.432363
0.412191
0.367595
0.340883
0.329307
0.335514
0.348901
0.372757
0.40935
0.434567
0.484577
0.517791
3.1414
3.28502
3.28451
3.2813
3.27483
3.26033
3.22445
3.12385
2.78412
1.70177
0.330137
0.633612
0.535676
0.452629
0.43434
0.393971
0.367543
0.359941
0.371393
0.390884
0.418998
0.46702
0.503071
0.561325
0.630801
3.14138
3.28502
3.2847
3.28175
3.27597
3.26345
3.23385
3.15478
2.90237
2.04837
0.497856
0.625688
0.588296
0.477175
0.456722
0.423192
0.395129
0.392295
0.408524
0.434929
0.467543
0.522877
0.57913
0.654324
0.797058
3.14195
3.28524
3.28273
3.27759
3.26574
3.23489
3.14578
2.84601
1.85577
0.233569
0.502942
0.499976
0.384499
0.365651
0.325208
0.276866
0.235894
0.201572
0.174566
0.152339
0.133389
0.113577
0.0961812
0.0903241
0.039109
3.14193
3.28523
3.28282
3.27774
3.26609
3.2359
3.149
2.85811
1.8894
0.262365
0.500231
0.504344
0.385814
0.366734
0.326821
0.27836
0.237903
0.204767
0.179803
0.160374
0.145707
0.131145
0.119027
0.118103
0.0874342
3.14188
3.28521
3.28299
3.27805
3.26683
3.23802
3.15576
2.88364
1.96789
0.348497
0.495128
0.517475
0.390942
0.371173
0.332929
0.284973
0.246011
0.215423
0.194447
0.180046
0.172117
0.165301
0.160257
0.166046
0.148583
3.14181
3.28518
3.28321
3.2785
3.26789
3.24104
3.16524
2.91859
2.07554
0.473063
0.485344
0.535696
0.398966
0.378071
0.342231
0.294775
0.258034
0.23095
0.214965
0.206539
0.206087
0.207417
0.209084
0.221989
0.21341
3.14173
3.28515
3.28347
3.27902
3.26918
3.2447
3.17656
2.95949
2.20472
0.628739
0.467354
0.558868
0.411823
0.387933
0.355389
0.308118
0.273952
0.250784
0.240103
0.237512
0.244119
0.253197
0.260827
0.281115
0.279544
3.14163
3.28511
3.28375
3.27961
3.27061
3.24868
3.18886
3.00311
2.34958
0.821079
0.437052
0.583725
0.430293
0.400187
0.371646
0.324707
0.293425
0.274324
0.269163
0.272016
0.285144
0.302003
0.315302
0.344051
0.34959
3.14153
3.28506
3.28403
3.28021
3.27208
3.25279
3.20141
3.04616
2.49968
1.0731
0.392671
0.60779
0.455987
0.414961
0.391037
0.344652
0.316007
0.300696
0.301213
0.309231
0.32821
0.354019
0.37305
0.411611
0.427672
3.14145
3.28503
3.28428
3.28078
3.27351
3.25676
3.2135
3.08686
2.64452
1.3694
0.342041
0.625684
0.490901
0.432239
0.412136
0.367556
0.340834
0.329256
0.335476
0.348869
0.372725
0.409326
0.434546
0.484559
0.517779
3.1414
3.28502
3.28451
3.28131
3.27483
3.26034
3.22446
3.12388
2.78419
1.70192
0.330034
0.633569
0.535629
0.452578
0.434317
0.393959
0.367521
0.359915
0.371369
0.390858
0.41897
0.466996
0.503052
0.561305
0.630788
3.14138
3.28502
3.28471
3.28176
3.27598
3.26346
3.23387
3.15481
2.90243
2.04848
0.497867
0.625665
0.588317
0.477194
0.456751
0.423231
0.39515
0.392288
0.408508
0.434909
0.467521
0.522852
0.579111
0.654304
0.797042
3.14195
3.28524
3.28273
3.27759
3.26574
3.23489
3.14579
2.84602
1.85577
0.233574
0.502937
0.499969
0.384496
0.365648
0.32521
0.27687
0.235898
0.201574
0.17457
0.152343
0.133394
0.11358
0.0961804
0.0903233
0.0390952
3.14193
3.28523
3.28283
3.27774
3.26609
3.2359
3.149
2.85811
1.8894
0.262366
0.500243
0.504356
0.385826
0.366742
0.326829
0.278367
0.237908
0.204769
0.179804
0.160374
0.145707
0.131146
0.119028
0.11811
0.0874204
3.14188
3.28521
3.28299
3.27806
3.26683
3.23802
3.15576
2.88365
1.9679
0.348512
0.49513
0.517478
0.390946
0.371175
0.332934
0.28498
0.24602
0.21543
0.194453
0.180052
0.172123
0.165309
0.160267
0.166063
0.148572
3.14181
3.28518
3.28322
3.2785
3.2679
3.24105
3.16525
2.9186
2.07557
0.473095
0.485347
0.535702
0.39897
0.378071
0.342232
0.294781
0.258044
0.230963
0.214977
0.20655
0.206098
0.207429
0.209096
0.22201
0.213409
3.14173
3.28515
3.28347
3.27902
3.26919
3.2447
3.17656
2.95951
2.20477
0.628807
0.467347
0.55887
0.411819
0.387926
0.355386
0.308123
0.273962
0.250798
0.240116
0.237524
0.244131
0.253206
0.260835
0.281134
0.279553
3.14163
3.28511
3.28375
3.27961
3.27061
3.24869
3.18886
3.00313
2.34965
0.821175
0.437038
0.583723
0.430285
0.400177
0.371644
0.324711
0.293434
0.274337
0.269176
0.272028
0.285153
0.302007
0.315306
0.344067
0.349597
3.14153
3.28506
3.28403
3.28021
3.27208
3.25279
3.20141
3.04619
2.49976
1.07323
0.39265
0.607782
0.455977
0.414946
0.391031
0.344656
0.316017
0.30071
0.301227
0.309245
0.328218
0.354019
0.373048
0.411617
0.427682
3.14145
3.28503
3.28429
3.28078
3.27351
3.25676
3.2135
3.08688
2.6446
1.36956
0.342006
0.625675
0.490894
0.432223
0.41213
0.367564
0.340848
0.329273
0.335493
0.348884
0.372736
0.409331
0.434545
0.484557
0.517791
3.1414
3.28502
3.28451
3.28131
3.27483
3.26034
3.22446
3.12389
2.78425
1.70206
0.330029
0.633555
0.53563
0.452565
0.434313
0.39397
0.367535
0.359935
0.371391
0.390877
0.418985
0.467009
0.503056
0.561299
0.630797
3.14138
3.28502
3.28471
3.28176
3.27598
3.26347
3.23387
3.15482
2.90247
2.04859
0.49795
0.625642
0.588321
0.477187
0.456748
0.423244
0.395171
0.392315
0.408533
0.43493
0.46754
0.52287
0.579123
0.654297
0.797057
3.14195
3.28524
3.28273
3.27759
3.26574
3.23489
3.14578
2.846
1.85572
0.233534
0.502955
0.499977
0.384509
0.365659
0.325213
0.276869
0.235894
0.20157
0.174562
0.152334
0.133384
0.113573
0.0961774
0.090322
0.0391087
3.14193
3.28523
3.28282
3.27774
3.26609
3.2359
3.14899
2.8581
1.88937
0.262346
0.500241
0.504347
0.385823
0.366742
0.326825
0.278362
0.237903
0.204766
0.1798
0.16037
0.145703
0.131142
0.119024
0.118101
0.0874341
3.14188
3.28521
3.28299
3.27805
3.26683
3.23802
3.15576
2.88364
1.96787
0.348481
0.495138
0.517479
0.390951
0.37118
0.332933
0.284975
0.246012
0.215423
0.194447
0.180045
0.172115
0.165299
0.160255
0.166045
0.148582
3.14181
3.28518
3.28321
3.2785
3.26789
3.24104
3.16524
2.91859
2.07554
0.473065
0.485355
0.535704
0.398976
0.378077
0.342233
0.294776
0.258035
0.230952
0.214968
0.20654
0.206087
0.207417
0.209082
0.221987
0.21341
3.14173
3.28515
3.28347
3.27902
3.26918
3.2447
3.17656
2.95949
2.20473
0.628768
0.467358
0.558875
0.411828
0.387934
0.355389
0.308117
0.273953
0.250787
0.240107
0.237516
0.244122
0.253198
0.260827
0.281114
0.279544
3.14163
3.28511
3.28375
3.27961
3.27061
3.24868
3.18886
3.00312
2.34962
0.821134
0.43705
0.583729
0.430293
0.400182
0.371642
0.324704
0.293425
0.274327
0.269169
0.272024
0.28515
0.302006
0.315304
0.344051
0.34959
3.14153
3.28506
3.28402
3.28021
3.27208
3.25279
3.20141
3.04618
2.49973
1.07319
0.392664
0.607787
0.455982
0.41495
0.391028
0.344647
0.316006
0.300701
0.301222
0.309242
0.32822
0.354025
0.373054
0.411612
0.427673
3.14145
3.28503
3.28428
3.28078
3.27351
3.25676
3.2135
3.08687
2.64458
1.36953
0.342021
0.625678
0.490894
0.432224
0.412126
0.367553
0.340836
0.329264
0.335488
0.348882
0.372738
0.409335
0.434552
0.484562
0.517781
3.1414
3.28502
3.28451
3.2813
3.27483
3.26034
3.22446
3.12389
2.78423
1.70203
0.330036
0.633558
0.535628
0.452562
0.434308
0.39396
0.367527
0.359928
0.371386
0.390874
0.418986
0.467009
0.503061
0.56131
0.63079
3.14138
3.28502
3.28471
3.28176
3.27598
3.26346
3.23387
3.15481
2.90246
2.04857
0.497938
0.625647
0.588319
0.477184
0.456744
0.423236
0.395164
0.392309
0.408528
0.434927
0.46754
0.52287
0.579124
0.654313
0.797047
3.14195
3.28524
3.28273
3.27759
3.26574
3.23489
3.14578
2.84601
1.85577
0.233569
0.502942
0.499976
0.384499
0.365651
0.325208
0.276866
0.235894
0.201572
0.174566
0.152339
0.133389
0.113577
0.096181
0.090324
0.039109
3.14193
3.28523
3.28282
3.27774
3.26609
3.2359
3.149
2.85811
1.8894
0.262365
0.500231
0.504344
0.385814
0.366734
0.326821
0.27836
0.237903
0.204767
0.179802
0.160373
0.145707
0.131145
0.119026
0.118103
0.0874342
3.14188
3.28521
3.28299
3.27805
3.26683
3.23802
3.15576
2.88364
1.96789
0.348497
0.495128
0.517475
0.390942
0.371173
0.332929
0.284973
0.246011
0.215422
0.194447
0.180046
0.172117
0.165301
0.160257
0.166046
0.148583
3.14181
3.28518
3.28321
3.2785
3.26789
3.24104
3.16524
2.91859
2.07554
0.473063
0.485344
0.535696
0.398967
0.378071
0.342231
0.294775
0.258034
0.23095
0.214965
0.206538
0.206087
0.207417
0.209084
0.221989
0.21341
3.14173
3.28515
3.28347
3.27902
3.26918
3.2447
3.17656
2.95949
2.20472
0.628739
0.467354
0.558868
0.411823
0.387933
0.355389
0.308118
0.273952
0.250784
0.240103
0.237511
0.244119
0.253197
0.260827
0.281115
0.279544
3.14163
3.28511
3.28375
3.27961
3.27061
3.24868
3.18886
3.00311
2.34958
0.821079
0.437052
0.583725
0.430293
0.400187
0.371646
0.324707
0.293425
0.274324
0.269163
0.272016
0.285144
0.302003
0.315302
0.344051
0.34959
3.14153
3.28506
3.28403
3.28021
3.27208
3.25279
3.20141
3.04616
2.49968
1.0731
0.392671
0.60779
0.455987
0.414962
0.391037
0.344652
0.316007
0.300696
0.301213
0.309231
0.32821
0.354019
0.37305
0.411611
0.427672
3.14145
3.28503
3.28428
3.28078
3.27351
3.25676
3.2135
3.08686
2.64452
1.3694
0.342041
0.625684
0.490901
0.432239
0.412136
0.367556
0.340834
0.329256
0.335476
0.348869
0.372725
0.409326
0.434546
0.484559
0.517779
3.1414
3.28502
3.28451
3.28131
3.27483
3.26034
3.22446
3.12388
2.78419
1.70192
0.330034
0.633569
0.535629
0.452578
0.434317
0.393959
0.367521
0.359915
0.371369
0.390858
0.41897
0.466996
0.503052
0.561305
0.630788
3.14138
3.28502
3.28471
3.28176
3.27598
3.26346
3.23387
3.15481
2.90243
2.04848
0.497867
0.625665
0.588317
0.477194
0.456751
0.423231
0.39515
0.392288
0.408508
0.434909
0.467521
0.522852
0.579111
0.654304
0.797042
3.14195
3.28524
3.28272
3.27759
3.26574
3.23489
3.14579
2.84604
1.85585
0.23366
0.502927
0.500007
0.384514
0.365651
0.325199
0.27685
0.23588
0.201563
0.174567
0.152352
0.13341
0.1136
0.0962
0.0903351
0.0391089
3.14193
3.28523
3.28282
3.27773
3.26609
3.2359
3.149
2.85812
1.88946
0.262412
0.500259
0.504399
0.385846
0.366741
0.326813
0.278346
0.23789
0.204762
0.179806
0.160388
0.145729
0.131168
0.119045
0.118114
0.0874366
3.14188
3.28521
3.28299
3.27805
3.26683
3.23802
3.15576
2.88367
1.96796
0.34858
0.495137
0.517499
0.390935
0.371151
0.3329
0.284947
0.245996
0.215421
0.194457
0.180064
0.17214
0.165324
0.160276
0.166058
0.148588
3.14181
3.28518
3.28321
3.27849
3.26789
3.24104
3.16524
2.91862
2.07565
0.473164
0.485329
0.535601
0.398812
0.377917
0.342126
0.29472
0.258016
0.230956
0.214984
0.206563
0.206113
0.207442
0.209104
0.222001
0.213417
3.14173
3.28515
3.28347
3.27902
3.26918
3.2447
3.17657
2.95956
2.20495
0.629021
0.467065
0.558588
0.41153
0.387755
0.355339
0.308105
0.273965
0.250804
0.240131
0.237542
0.244148
0.253222
0.260848
0.281129
0.279553
3.14163
3.2851
3.28374
3.27961
3.27061
3.24867
3.18884
3.00309
2.34957
0.821094
0.436966
0.583738
0.430293
0.400216
0.371703
0.324776
0.293483
0.274375
0.269205
0.272053
0.285176
0.302029
0.315324
0.344066
0.3496
3.14154
3.28506
3.28402
3.28021
3.27208
3.25278
3.20139
3.04611
2.49954
1.07286
0.392649
0.60793
0.456123
0.415085
0.391121
0.344737
0.316079
0.300762
0.30126
0.309268
0.328243
0.354045
0.373072
0.411627
0.427684
3.14145
3.28503
3.28428
3.28078
3.2735
3.25674
3.21347
3.0868
2.64436
1.36909
0.342111
0.625791
0.491022
0.432363
0.412191
0.367595
0.340883
0.329307
0.335514
0.348901
0.372757
0.40935
0.434567
0.484577
0.517791
3.1414
3.28502
3.28451
3.2813
3.27483
3.26033
3.22445
3.12385
2.78412
1.70177
0.330137
0.633612
0.535676
0.452629
0.43434
0.393971
0.367543
0.359941
0.371393
0.390884
0.418998
0.46702
0.503071
0.561325
0.630801
3.14138
3.28502
3.2847
3.28175
3.27597
3.26345
3.23385
3.15478
2.90237
2.04837
0.497856
0.625688
0.588296
0.477175
0.456722
0.423191
0.395129
0.392295
0.408524
0.434929
0.467543
0.522877
0.57913
0.654324
0.797058
3.14195
3.28524
3.28272
3.27758
3.26573
3.23487
3.14574
2.84588
1.85536
0.233106
0.502965
0.499665
0.384139
0.36533
0.324977
0.276731
0.235828
0.201554
0.174592
0.152397
0.133452
0.113633
0.0962258
0.0903487
0.0391059
3.14193
3.28523
3.28282
3.27773
3.26608
3.23588
3.14896
2.85802
1.88921
0.262186
0.499765
0.503754
0.385343
0.36641
0.326647
0.278275
0.237879
0.204775
0.179837
0.160429
0.145764
0.131193
0.119061
0.11812
0.0874313
3.14188
3.28521
3.28298
3.27804
3.26681
3.23798
3.15566
2.88333
1.96698
0.347445
0.495794
0.517939
0.391399
0.371461
0.33306
0.285067
0.246075
0.215475
0.194494
0.180097
0.172163
0.165336
0.16028
0.166056
0.148578
3.14181
3.28518
3.28321
3.27849
3.26788
3.24102
3.16518
2.91839
2.07499
0.472573
0.485441
0.53572
0.399145
0.378272
0.342384
0.294888
0.258115
0.231011
0.215011
0.206579
0.206121
0.207441
0.209097
0.221993
0.213405
3.14173
3.28515
3.28346
3.27901
3.26917
3.24466
3.17648
2.95929
2.20418
0.628152
0.46757
0.558986
0.412039
0.388128
0.355507
0.308209
0.274013
0.250826
0.240132
0.237537
0.244139
0.253209
0.260832
0.281115
0.279538
3.14163
3.28511
3.28374
3.27961
3.2706
3.24866
3.18881
3.00297
2.34917
0.820555
0.437279
0.583829
0.430445
0.400302
0.371708
0.324744
0.293434
0.274331
0.269168
0.272024
0.285151
0.302006
0.315303
0.344049
0.349584
3.14153
3.28506
3.28402
3.28021
3.27207
3.25277
3.20137
3.04608
2.49945
1.07272
0.392904
0.60783
0.456015
0.41496
0.390997
0.344608
0.315968
0.300665
0.301195
0.309224
0.328208
0.354016
0.373046
0.411607
0.427666
3.14145
3.28503
3.28428
3.28078
3.2735
3.25675
3.21349
3.08683
2.64445
1.36927
0.342258
0.625682
0.490862
0.432179
0.412037
0.367466
0.340764
0.329202
0.335442
0.34885
0.372716
0.409319
0.43454
0.484556
0.517774
3.1414
3.28502
3.28451
3.2813
3.27482
3.26033
3.22444
3.12386
2.78418
1.70191
0.330137
0.633575
0.535569
0.452486
0.434201
0.39386
0.367436
0.359856
0.37133
0.390835
0.41896
0.466991
0.503047
0.561304
0.630785
3.14138
3.28502
3.2847
3.28176
3.27598
3.26346
3.23386
3.1548
2.90244
2.04853
0.497894
0.625692
0.58827
0.477114
0.456648
0.423144
0.395073
0.392239
0.408473
0.434891
0.467515
0.522854
0.579111
0.654306
0.797044
3.14196
3.28525
3.28273
3.2776
3.26575
3.23492
3.14587
2.84636
1.85674
0.234521
0.502933
0.500254
0.384554
0.365656
0.325227
0.276932
0.236013
0.201741
0.174803
0.152644
0.133739
0.113956
0.0965665
0.0906803
0.0398192
3.14194
3.28524
3.28283
3.27774
3.2661
3.23592
3.14908
2.85845
1.89045
0.263423
0.500095
0.504315
0.385621
0.366539
0.326746
0.278378
0.238001
0.204922
0.180017
0.16064
0.146
0.131446
0.119318
0.118376
0.0877486
3.14189
3.28522
3.283
3.27806
3.26684
3.23805
3.15585
2.88399
1.969
0.349773
0.494494
0.517192
0.390606
0.370973
0.332896
0.28503
0.246142
0.215597
0.194664
0.180294
0.172372
0.165547
0.16048
0.166246
0.148777
3.14182
3.28518
3.28321
3.27849
3.26789
3.24104
3.16525
2.91868
2.07587
0.473451
0.485559
0.536214
0.399344
0.378321
0.342425
0.294957
0.258229
0.231161
0.215193
0.206775
0.206316
0.207627
0.209269
0.22215
0.213549
3.14173
3.28515
3.28347
3.27902
3.26918
3.24469
3.17656
2.95952
2.20486
0.628995
0.467571
0.559235
0.412158
0.388134
0.355504
0.308276
0.27414
0.251005
0.240332
0.237737
0.244325
0.253377
0.260983
0.281252
0.279659
3.14164
3.28511
3.28375
3.27961
3.27061
3.24868
3.18886
3.00317
2.34985
0.821513
0.43698
0.583654
0.430245
0.400171
0.371691
0.324823
0.293591
0.27452
0.269378
0.272228
0.285331
0.302161
0.315438
0.344173
0.349686
3.14154
3.28507
3.28402
3.28021
3.27208
3.25279
3.20141
3.04622
2.4999
1.07356
0.392508
0.607639
0.455878
0.414922
0.391116
0.344801
0.316192
0.300885
0.301415
0.309429
0.328382
0.354159
0.373169
0.41172
0.427759
3.14146
3.28503
3.28428
3.28078
3.27349
3.25673
3.21347
3.08683
2.64451
1.36944
0.341884
0.625693
0.490938
0.432282
0.412222
0.367705
0.341023
0.329457
0.335672
0.34905
0.372881
0.409446
0.434654
0.484659
0.517857
3.14141
3.28502
3.28451
3.2813
3.27482
3.26033
3.22443
3.12383
2.78408
1.70174
0.329916
0.633628
0.535698
0.452657
0.43442
0.394119
0.367708
0.360102
0.371547
0.391019
0.419104
0.467117
0.503149
0.561395
0.630861
3.14138
3.28502
3.2847
3.28175
3.27596
3.26343
3.23382
3.15474
2.90228
2.04815
0.497669
0.625772
0.588392
0.477266
0.456826
0.423321
0.395306
0.392443
0.408651
0.435032
0.467631
0.522965
0.579199
0.654378
0.797121
3.14138
3.28502
3.28485
3.2821
3.27688
3.26609
3.24177
3.18006
2.99409
2.34903
0.831993
0.590714
0.642673
0.508031
0.479579
0.454028
0.424003
0.425723
0.446214
0.479693
0.516691
0.577165
0.65401
0.753524
0.982385
3.14136
3.28501
3.28497
3.28236
3.27758
3.26828
3.24827
3.20037
3.06393
2.59574
1.28506
0.527899
0.688691
0.548111
0.502822
0.483558
0.455834
0.45949
0.483361
0.522932
0.566161
0.627519
0.720131
0.830333
1.06627
3.14134
3.28499
3.28507
3.28253
3.27818
3.2699
3.25323
3.21594
3.1166
2.79529
1.76989
0.477733
0.709462
0.598381
0.528088
0.509825
0.490874
0.493332
0.520471
0.563769
0.615086
0.674661
0.771426
0.879008
1.0839
3.14134
3.28499
3.28512
3.2826
3.2786
3.27071
3.25695
3.2274
3.154
2.93731
2.20731
0.680151
0.695248
0.656555
0.557756
0.533836
0.527002
0.52621
0.555113
0.600547
0.65849
0.717443
0.815213
0.915584
1.07024
3.14134
3.28499
3.28512
3.28259
3.27876
3.27104
3.25959
3.23558
3.17999
3.0306
2.54008
1.18295
0.645015
0.713162
0.595792
0.557756
0.560592
0.562807
0.585446
0.630577
0.694276
0.750777
0.848389
0.935466
1.04178
3.14134
3.28498
3.28512
3.28258
3.27879
3.27098
3.26131
3.24134
3.1975
3.09198
2.77843
1.78923
0.600653
0.741547
0.644029
0.584616
0.589527
0.600832
0.612125
0.657207
0.719784
0.773992
0.862369
0.94087
1.0198
3.14134
3.28498
3.28513
3.28259
3.27884
3.27102
3.26208
3.24497
3.20932
3.13171
2.92818
2.26833
0.820959
0.72745
0.694899
0.617897
0.616152
0.63714
0.641454
0.678928
0.736021
0.788724
0.867547
0.939785
1.00826
3.14134
3.28498
3.28513
3.2826
3.27885
3.27103
3.26225
3.2474
3.21618
3.15606
3.01955
2.60954
1.42245
0.686616
0.741179
0.661082
0.643122
0.670159
0.675774
0.697459
0.752452
0.800351
0.870964
0.941322
1.00295
3.14134
3.28498
3.28513
3.2826
3.27885
3.27105
3.26223
3.24815
3.21898
3.17204
3.07439
2.81879
2.05131
0.773624
0.751172
0.70819
0.671594
0.69372
0.705175
0.713667
0.765108
0.811601
0.869357
0.942248
1.00073
3.14134
3.28498
3.28513
3.2826
3.27885
3.27105
3.26219
3.24835
3.21977
3.1817
3.10702
2.93347
2.46722
1.31111
0.728108
0.751913
0.705655
0.710014
0.725999
0.737114
0.776927
0.823052
0.871985
0.935331
0.998036
3.14134
3.28499
3.28513
3.28259
3.27885
3.27106
3.26215
3.2484
3.21957
3.1868
3.12724
2.99338
2.69769
1.9634
0.84943
0.766844
0.741369
0.73192
0.751963
0.773965
0.790307
0.832216
0.87895
0.928758
0.988852
3.14134
3.28498
3.28513
3.2826
3.27885
3.27107
3.26211
3.24844
3.21983
3.18595
3.1362
3.02089
2.81236
2.38041
1.438
0.778564
0.775716
0.75808
0.781025
0.804551
0.819378
0.84362
0.886066
0.930487
0.979377
3.14134
3.28498
3.28513
3.2826
3.27885
3.27108
3.26208
3.24845
3.22001
3.18525
3.13795
3.03125
2.86814
2.57323
1.99073
1.08373
0.790147
0.785911
0.807139
0.83805
0.862815
0.86586
0.89526
0.937202
0.978465
3.14134
3.28499
3.28513
3.28259
3.27885
3.27109
3.26207
3.24846
3.22005
3.18517
3.13816
3.0323
2.8824
2.66308
2.25622
1.66224
0.97781
0.81432
0.830838
0.867539
0.899866
0.917088
0.914855
0.945785
0.985113
3.14134
3.28498
3.28513
3.2826
3.27885
3.27109
3.26208
3.24846
3.22003
3.18532
3.13818
3.0341
2.88053
2.68234
2.33042
1.97641
1.47284
0.954021
0.852398
0.887907
0.934669
0.961902
0.960093
0.964789
0.996066
3.14134
3.28498
3.28513
3.2826
3.27885
3.27108
3.26208
3.24846
3.22002
3.18535
3.13819
3.0346
2.87962
2.68245
2.33837
2.05115
1.77988
1.37783
0.96154
0.90165
0.952264
0.995927
1.01408
1.00461
1.01769
3.14134
3.28498
3.28513
3.2826
3.27885
3.27108
3.26209
3.24846
3.22003
3.18536
3.13821
3.03462
2.8798
2.6825
2.3404
2.05168
1.86334
1.66061
1.33346
0.995253
0.955654
1.01267
1.04886
1.05398
1.05084
3.14134
3.28498
3.28513
3.2826
3.27885
3.27108
3.26208
3.24845
3.22001
3.18533
3.13818
3.0346
2.87974
2.6825
2.34108
2.05037
1.87143
1.73418
1.58378
1.33539
1.05764
1.00937
1.06523
1.09244
1.08695
3.14134
3.28499
3.28513
3.28259
3.27885
3.27109
3.26208
3.24846
3.22005
3.18536
3.13823
3.03471
2.87987
2.6828
2.34172
2.05095
1.87307
1.74335
1.64445
1.54579
1.3776
1.15205
1.06694
1.10857
1.1197
3.14134
3.28498
3.28513
3.28259
3.27884
3.27108
3.26208
3.24845
3.22001
3.18532
3.13817
3.0346
2.87973
2.68252
2.34121
2.05027
1.87223
1.74285
1.64896
1.59552
1.53901
1.43603
1.26264
1.1344
1.13152
3.14134
3.28498
3.28513
3.2826
3.27885
3.27109
3.26209
3.24846
3.22003
3.18536
3.13821
3.03462
2.87987
2.68268
2.34136
2.05051
1.87236
1.74288
1.64906
1.60084
1.57375
1.54959
1.49294
1.36851
1.21334
3.14134
3.28498
3.28513
3.28259
3.27884
3.27108
3.26208
3.24845
3.22
3.18531
3.13816
3.03459
2.87972
2.68256
2.34138
2.05046
1.87242
1.74316
1.64935
1.60177
1.5781
1.57249
1.56423
1.53769
1.4574
3.14134
3.28498
3.28513
3.2826
3.27885
3.27109
3.26209
3.24846
3.22003
3.18536
3.13822
3.03462
2.87988
2.6827
2.34139
2.05053
1.87238
1.74289
1.64908
1.60157
1.57816
1.57401
1.57672
1.5746
1.55794
3.14134
3.28498
3.28513
3.28259
3.27884
3.27108
3.26208
3.24845
3.22
3.18531
3.13816
3.03458
2.87971
2.68253
2.34127
2.05034
1.8723
1.74303
1.64925
1.60173
1.57836
1.57431
1.57829
1.58002
1.57478
3.14134
3.28499
3.28513
3.2826
3.27885
3.27109
3.26208
3.24847
3.22006
3.18537
3.13824
3.03473
2.87989
2.68285
2.34181
2.05099
1.87315
1.74413
1.65051
1.6031
1.57979
1.57583
1.57997
1.58248
1.57921
3.14134
3.28498
3.28513
3.28259
3.27884
3.27108
3.26208
3.24845
3.22
3.18531
3.13816
3.03459
2.87972
2.68254
2.34126
2.0503
1.87225
1.74299
1.64922
1.60172
1.57836
1.57433
1.57844
1.58125
1.57842
3.14134
3.28498
3.28513
3.2826
3.27885
3.27109
3.26209
3.24847
3.22003
3.18537
3.13823
3.03465
2.87989
2.68273
2.34141
2.05053
1.87237
1.74289
1.6491
1.60161
1.57824
1.57425
1.57836
1.58121
1.57842
3.14134
3.28498
3.28513
3.28259
3.27884
3.27108
3.26208
3.24845
3.22001
3.18532
3.13818
3.03462
2.87975
2.68258
2.34135
2.05041
1.87239
1.74315
1.64935
1.60183
1.57846
1.57444
1.57858
1.58139
1.5786
3.14134
3.28498
3.28513
3.2826
3.27885
3.27109
3.26209
3.24847
3.22004
3.18537
3.13822
3.03464
2.8799
2.68272
2.34139
2.05055
1.8724
1.74291
1.6491
1.60159
1.57821
1.57422
1.57832
1.58118
1.57839
3.14134
3.28498
3.28513
3.2826
3.27885
3.27108
3.26208
3.24846
3.22002
3.18534
3.13819
3.0346
2.87978
2.68257
2.34125
2.05034
1.87229
1.743
1.64922
1.6017
1.57832
1.5743
1.57842
1.58126
1.57848
3.14134
3.28499
3.28513
3.2826
3.27886
3.27109
3.26208
3.24847
3.22006
3.18538
3.13825
3.03474
2.87993
2.6829
2.34182
2.051
1.87314
1.7441
1.65049
1.60308
1.57977
1.57581
1.57997
1.58266
1.57978
3.14134
3.28498
3.28513
3.2826
3.27885
3.27109
3.26209
3.24846
3.22003
3.18536
3.13821
3.03461
2.87985
2.68266
2.34125
2.05033
1.87216
1.74269
1.64894
1.60148
1.57811
1.57412
1.57822
1.58108
1.57831
3.14134
3.28498
3.28513
3.2826
3.27886
3.27109
3.26209
3.24847
3.22005
3.18538
3.13824
3.03463
2.87994
2.68274
2.3413
2.0504
1.8722
1.74267
1.64889
1.60141
1.57805
1.57407
1.57817
1.58104
1.57827
3.14134
3.28499
3.28513
3.2826
3.27886
3.27109
3.26208
3.24847
3.22006
3.18538
3.13824
3.0347
2.87993
2.6829
2.34185
2.05104
1.87315
1.74408
1.65042
1.603
1.5797
1.57575
1.57993
1.58263
1.57974
3.14134
3.28498
3.28514
3.2826
3.27886
3.2711
3.2621
3.24848
3.22006
3.18539
3.13824
3.03462
2.87997
2.68275
2.3413
2.05045
1.87225
1.74271
1.64889
1.60139
1.57802
1.57403
1.57814
1.58102
1.57824
3.14134
3.28498
3.28514
3.2826
3.27886
3.27109
3.26209
3.24847
3.22005
3.18538
3.13824
3.03463
2.87993
2.68271
2.34125
2.05033
1.87214
1.74266
1.64891
1.60144
1.57808
1.57408
1.57817
1.58105
1.57827
3.14134
3.28499
3.28514
3.2826
3.27886
3.2711
3.26209
3.24848
3.22009
3.18541
3.13828
3.03472
2.88005
2.68298
2.34175
2.05095
1.87297
1.74374
1.65013
1.60275
1.57944
1.5755
1.57964
1.58238
1.57949
3.14134
3.28498
3.28514
3.2826
3.27886
3.27109
3.2621
3.24848
3.22006
3.18539
3.13824
3.03466
2.8799
2.68266
2.34126
2.05038
1.87229
1.74296
1.64917
1.60166
1.57828
1.57427
1.57839
1.58124
1.57846
3.14134
3.28499
3.28514
3.2826
3.27886
3.2711
3.26209
3.24848
3.22009
3.18541
3.13828
3.03474
2.88005
2.683
2.34181
2.05096
1.87296
1.74373
1.65008
1.60269