/*--------------------------------*- C++ -*----------------------------------*\
| =========                 |                                                 |
| \\      /  F ield         | OpenFOAM: The Open Source CFD Toolbox           |
|  \\    /   O peration     | Version:  4.1                                   |
|   \\  /    A nd           | Web:      www.OpenFOAM.org                      |
|    \\/     M anipulation  |                                                 |
\*---------------------------------------------------------------------------*/
FoamFile
{
    version     2.0;
    format      ascii;
    class       volScalarField;
    location    "0.42";
    object      p;
}
// * * * * * * * * * * * * * * * * * * * * * * * * * * * * * * * * * * * * * //

dimensions      [1 -1 -2 0 0 0 0];

internalField   nonuniform List<scalar> 
52500
(
0.0903104
0.0625416
0.0625404
0.0627054
0.0633008
0.0650938
0.0705483
0.0896097
0.180804
0.747913
2.3358
1.73344
1.54385
1.46812
1.4026
1.348
1.29448
1.23484
1.16788
1.09178
1.01744
0.95195
0.896714
0.85157
0.841527
0.0903106
0.0625452
0.0625315
0.0626934
0.0632763
0.0650282
0.0703441
0.088814
0.176288
0.728485
2.32022
1.74208
1.54711
1.47051
1.4053
1.3503
1.29769
1.23845
1.1715
1.0951
1.01994
0.953552
0.897698
0.851519
0.84124
0.0903109
0.0625522
0.0625143
0.0626681
0.0632251
0.0648891
0.0699117
0.0871546
0.166534
0.655194
2.30707
1.76109
1.55082
1.47101
1.40552
1.34994
1.29915
1.24086
1.17412
1.09748
1.02102
0.953257
0.896577
0.848492
0.837878
0.0903114
0.0625627
0.0624898
0.0626328
0.0631522
0.0646909
0.0693051
0.084894
0.154205
0.5662
2.25154
1.79958
1.55618
1.47133
1.40622
1.34931
1.30087
1.24375
1.17728
1.10042
1.0221
0.952237
0.893997
0.841903
0.830606
0.090312
0.0625754
0.0624603
0.0625909
0.063064
0.0644509
0.0685779
0.0822525
0.140737
0.479174
2.13014
1.86457
1.56293
1.47092
1.40686
1.34878
1.30248
1.24692
1.18087
1.104
1.02364
0.950084
0.889318
0.831925
0.819534
0.0903129
0.0625887
0.062428
0.0625454
0.0629665
0.0641871
0.0677884
0.0794553
0.127073
0.396741
1.9333
1.9564
1.57302
1.47072
1.40757
1.3487
1.30347
1.24965
1.18434
1.108
1.02508
0.946515
0.882694
0.818375
0.804872
0.0903139
0.0626023
0.0623951
0.0624987
0.0628663
0.0639145
0.0669773
0.0766911
0.11436
0.319564
1.65122
2.0758
1.5878
1.47095
1.40825
1.34886
1.30375
1.25182
1.18726
1.11205
1.0268
0.941331
0.873872
0.800871
0.784975
0.0903147
0.0626148
0.0623638
0.062454
0.0627702
0.0636495
0.0661887
0.0740477
0.103308
0.258768
1.28289
2.20302
1.60821
1.47248
1.40988
1.34963
1.30364
1.25296
1.18939
1.11558
1.02882
0.933573
0.863048
0.778845
0.758817
0.0903148
0.062624
0.0623364
0.062414
0.0626834
0.0634067
0.0654681
0.0716252
0.0935402
0.203896
0.912033
2.27749
1.64375
1.47607
1.41048
1.35284
1.30321
1.25254
1.1903
1.11763
1.03092
0.921703
0.848173
0.756281
0.718189
0.0903146
0.0626303
0.0623143
0.0623803
0.0626076
0.0631937
0.0648453
0.0696071
0.0856632
0.158068
0.593349
2.26083
1.71835
1.48425
1.41226
1.3557
1.30196
1.25076
1.18933
1.116
1.02955
0.915886
0.826537
0.72653
0.660792
0.0903107
0.0625417
0.0625409
0.062706
0.0633019
0.0650964
0.0705563
0.0896418
0.181
0.74901
2.33641
1.73299
1.54363
1.46803
1.40253
1.34795
1.29442
1.23474
1.16774
1.09163
1.0173
0.95183
0.896602
0.851459
0.84142
0.0903109
0.0625453
0.062532
0.0626939
0.0632773
0.0650304
0.0703505
0.0888385
0.176427
0.729373
2.32089
1.74155
1.54694
1.47048
1.40523
1.35026
1.29762
1.23836
1.17138
1.09496
1.01981
0.953436
0.897587
0.851411
0.841134
0.0903112
0.0625523
0.0625149
0.0626689
0.0632265
0.0648924
0.0699211
0.0871885
0.16672
0.656619
2.30705
1.76044
1.55072
1.471
1.40552
1.34992
1.29906
1.24075
1.17402
1.09737
1.02091
0.953147
0.896471
0.848388
0.837776
0.0903116
0.0625627
0.0624902
0.0626334
0.0631532
0.0646933
0.0693123
0.0849196
0.154335
0.567001
2.25218
1.79891
1.55613
1.47132
1.40621
1.34928
1.30079
1.24366
1.1772
1.10033
1.02201
0.95214
0.893902
0.84181
0.830511
0.0903123
0.0625754
0.0624607
0.0625914
0.0630649
0.0644532
0.0685849
0.0822769
0.140851
0.479857
2.13056
1.86367
1.56287
1.4709
1.40685
1.34875
1.30241
1.24683
1.18082
1.10394
1.02357
0.950008
0.889241
0.831846
0.819451
0.0903131
0.0625888
0.062428
0.0625454
0.0629669
0.0641883
0.0677925
0.0794703
0.127146
0.397154
1.93413
1.95553
1.57295
1.47069
1.40756
1.34868
1.3034
1.24957
1.18431
1.10797
1.02503
0.946464
0.882636
0.818313
0.804801
0.0903141
0.0626026
0.0623949
0.0624985
0.0628661
0.0639146
0.0669784
0.0766957
0.114385
0.319714
1.65194
2.07512
1.58761
1.4709
1.40819
1.34881
1.30367
1.25178
1.18725
1.11205
1.02678
0.941308
0.873836
0.800828
0.78492
0.0903149
0.0626152
0.0623634
0.0624536
0.0627698
0.0636489
0.0661881
0.074047
0.10331
0.258794
1.28309
2.20289
1.60807
1.47238
1.40974
1.34952
1.30356
1.25291
1.18938
1.11558
1.02883
0.933574
0.863039
0.778824
0.758777
0.090315
0.0626243
0.062336
0.0624136
0.0626829
0.063406
0.0654671
0.0716233
0.0935369
0.203896
0.912105
2.2778
1.64371
1.47597
1.41036
1.35272
1.30312
1.25249
1.19028
1.11764
1.03097
0.921727
0.848189
0.756284
0.718171
0.0903147
0.0626306
0.0623137
0.0623797
0.0626069
0.0631927
0.0648439
0.0696047
0.085658
0.158057
0.593343
2.26128
1.71847
1.4842
1.41216
1.35556
1.30185
1.25069
1.18928
1.116
1.02961
0.915955
0.826579
0.726547
0.660792
0.0903106
0.0625417
0.0625406
0.0627057
0.0633015
0.0650956
0.070554
0.0896319
0.180933
0.748592
2.33577
1.73314
1.54371
1.46801
1.4025
1.34792
1.29438
1.23472
1.16777
1.09168
1.01735
0.951869
0.896636
0.851483
0.841442
0.0903108
0.0625453
0.0625317
0.0626936
0.0632768
0.0650296
0.0703484
0.088831
0.176387
0.729152
2.32026
1.74172
1.54696
1.47041
1.40519
1.35021
1.29759
1.23834
1.17141
1.09501
1.01985
0.953474
0.89762
0.851434
0.841155
0.0903111
0.0625524
0.0625144
0.0626683
0.0632255
0.0648902
0.0699154
0.0871682
0.16661
0.65575
2.30721
1.76074
1.55068
1.47092
1.40542
1.34986
1.29905
1.24077
1.17405
1.09741
1.02095
0.953185
0.896502
0.848409
0.837795
0.0903116
0.0625628
0.0624899
0.062633
0.0631525
0.0646917
0.0693078
0.0849043
0.15426
0.56654
2.25192
1.79924
1.55607
1.47125
1.40613
1.34923
1.30079
1.24368
1.17724
1.10037
1.02205
0.952176
0.893929
0.841827
0.830525
0.0903123
0.0625756
0.0624602
0.0625908
0.0630641
0.0644514
0.0685801
0.0822609
0.140778
0.47943
2.13052
1.86426
1.56281
1.47084
1.40676
1.3487
1.30241
1.24686
1.18085
1.10398
1.02361
0.950041
0.889263
0.831858
0.819461
0.0903131
0.0625889
0.0624279
0.0625453
0.0629666
0.0641875
0.0677902
0.0794623
0.127108
0.396947
1.93372
1.95603
1.57297
1.47065
1.40751
1.34863
1.3034
1.24959
1.18433
1.108
1.02507
0.946491
0.88265
0.81832
0.804806
0.090314
0.0626026
0.0623948
0.0624984
0.062866
0.0639144
0.066978
0.0766942
0.114377
0.31967
1.65174
2.07541
1.58771
1.4709
1.40818
1.34878
1.30366
1.25176
1.18725
1.11207
1.02681
0.941329
0.873844
0.800828
0.784919
0.0903149
0.0626152
0.0623635
0.0624537
0.0627699
0.0636492
0.0661886
0.0740485
0.103315
0.258817
1.28323
2.20278
1.60816
1.47242
1.40977
1.34951
1.30354
1.25289
1.18938
1.1156
1.02886
0.933587
0.863039
0.778819
0.758771
0.0903149
0.0626244
0.0623359
0.0624135
0.0626828
0.063406
0.0654674
0.0716247
0.0935418
0.203917
0.912193
2.2775
1.64374
1.47601
1.41035
1.35268
1.30309
1.25246
1.19028
1.11766
1.03099
0.921735
0.848185
0.756274
0.718161
0.0903148
0.0626307
0.0623137
0.0623798
0.0626069
0.0631929
0.0648443
0.0696058
0.0856618
0.158073
0.593419
2.26099
1.71841
1.48417
1.4121
1.35551
1.30182
1.25067
1.18928
1.11602
1.02962
0.915958
0.826572
0.726535
0.660781
0.0903106
0.0625417
0.0625405
0.0627056
0.0633014
0.0650956
0.0705542
0.0896335
0.180945
0.748663
2.33582
1.73311
1.54369
1.468
1.40249
1.34791
1.29438
1.23472
1.16778
1.0917
1.01738
0.951894
0.896653
0.851487
0.841442
0.0903108
0.0625453
0.0625316
0.0626935
0.0632767
0.0650295
0.0703486
0.0888323
0.176396
0.729185
2.32034
1.74169
1.54696
1.47042
1.40519
1.35022
1.29759
1.23835
1.17142
1.09503
1.01988
0.953499
0.897638
0.851439
0.841156
0.0903111
0.0625524
0.0625143
0.0626682
0.0632255
0.0648903
0.0699157
0.0871699
0.166619
0.655809
2.30725
1.7607
1.55069
1.47095
1.40543
1.34986
1.29905
1.24077
1.17406
1.09743
1.02098
0.953211
0.896521
0.848416
0.837797
0.0903116
0.0625628
0.0624898
0.0626328
0.0631524
0.0646917
0.0693084
0.0849067
0.154272
0.566612
2.25192
1.79916
1.5561
1.47126
1.40613
1.34922
1.30078
1.24369
1.17725
1.1004
1.02208
0.952203
0.893951
0.841835
0.83053
0.0903123
0.0625756
0.0624601
0.0625908
0.0630641
0.0644517
0.0685812
0.082265
0.140799
0.479562
2.13038
1.86407
1.56286
1.47084
1.40678
1.3487
1.30241
1.24687
1.18087
1.10401
1.02364
0.95007
0.889288
0.831869
0.819468
0.0903131
0.062589
0.0624277
0.062545
0.0629663
0.0641872
0.0677897
0.0794616
0.127109
0.396959
1.9338
1.95598
1.57293
1.47063
1.40748
1.34863
1.3034
1.2496
1.18436
1.10803
1.0251
0.946523
0.88268
0.818334
0.804817
0.0903141
0.0626027
0.0623946
0.0624982
0.0628657
0.0639138
0.0669768
0.076691
0.114366
0.319619
1.65154
2.0756
1.58763
1.47085
1.40813
1.34876
1.30366
1.25179
1.18729
1.11211
1.02685
0.941365
0.873877
0.800846
0.784934
0.0903149
0.0626152
0.0623632
0.0624534
0.0627695
0.0636485
0.0661874
0.0740453
0.103304
0.258765
1.28293
2.20312
1.60809
1.47234
1.40969
1.34948
1.30355
1.25292
1.18941
1.11564
1.0289
0.933627
0.863079
0.778841
0.758789
0.0903149
0.0626244
0.0623357
0.0624133
0.0626826
0.0634057
0.0654667
0.0716229
0.0935362
0.203892
0.912069
2.27778
1.6437
1.47594
1.41031
1.35268
1.3031
1.25249
1.19031
1.1177
1.03104
0.921779
0.848226
0.756305
0.718183
0.0903147
0.0626307
0.0623135
0.0623795
0.0626066
0.0631925
0.0648438
0.0696047
0.085659
0.158062
0.593368
2.26114
1.71839
1.48415
1.41211
1.35551
1.30181
1.25069
1.1893
1.11605
1.02967
0.916014
0.82662
0.72657
0.660806
0.0903106
0.0625418
0.0625405
0.0627056
0.0633013
0.0650955
0.070554
0.0896332
0.180944
0.748659
2.33582
1.73309
1.54368
1.46798
1.40247
1.3479
1.29438
1.23474
1.1678
1.09172
1.0174
0.951921
0.896679
0.851516
0.841469
0.0903108
0.0625453
0.0625315
0.0626934
0.0632766
0.0650295
0.0703485
0.0888321
0.176396
0.729182
2.32033
1.74167
1.54694
1.47041
1.40518
1.3502
1.29759
1.23836
1.17143
1.09506
1.0199
0.953525
0.897664
0.851467
0.841182
0.0903111
0.0625524
0.0625143
0.0626681
0.0632254
0.0648901
0.0699155
0.0871694
0.166618
0.6558
2.30723
1.76068
1.55068
1.47093
1.40542
1.34985
1.29904
1.24078
1.17407
1.09745
1.021
0.953234
0.896545
0.848442
0.837824
0.0903116
0.0625628
0.0624897
0.0626328
0.0631524
0.0646916
0.0693081
0.084906
0.154269
0.566593
2.25188
1.79916
1.55609
1.47125
1.40612
1.34922
1.30078
1.24369
1.17726
1.10041
1.0221
0.952221
0.893972
0.841859
0.830559
0.0903122
0.0625756
0.0624601
0.0625907
0.063064
0.0644515
0.0685808
0.0822639
0.140794
0.47953
2.13033
1.86409
1.56286
1.47083
1.40677
1.3487
1.3024
1.24687
1.18087
1.10402
1.02365
0.950081
0.889301
0.831887
0.819493
0.0903131
0.062589
0.0624276
0.062545
0.0629662
0.064187
0.0677893
0.0794603
0.127103
0.396924
1.93372
1.95602
1.57293
1.47062
1.40748
1.34863
1.3034
1.2496
1.18436
1.10803
1.0251
0.946528
0.882691
0.818346
0.804842
0.0903141
0.0626027
0.0623946
0.0624981
0.0628656
0.0639136
0.0669763
0.0766897
0.114361
0.319587
1.65139
2.07569
1.58764
1.47084
1.40812
1.34876
1.30366
1.25179
1.18728
1.11211
1.02685
0.941364
0.873885
0.800853
0.784956
0.0903149
0.0626152
0.0623632
0.0624534
0.0627695
0.0636484
0.066187
0.0740441
0.103299
0.258737
1.28275
2.20322
1.60812
1.47235
1.4097
1.34948
1.30354
1.25291
1.1894
1.11563
1.02889
0.93362
0.863083
0.778844
0.758809
0.0903149
0.0626244
0.0623357
0.0624133
0.0626826
0.0634056
0.0654665
0.071622
0.0935325
0.203872
0.911965
2.27781
1.64373
1.47594
1.41031
1.35268
1.30309
1.25248
1.1903
1.11768
1.03101
0.921764
0.848225
0.756305
0.718194
0.0903147
0.0626307
0.0623135
0.0623795
0.0626066
0.0631924
0.0648436
0.0696041
0.0856566
0.158049
0.593281
2.26112
1.71844
1.48415
1.41211
1.35552
1.30181
1.25067
1.18929
1.11603
1.02965
0.915991
0.826609
0.726568
0.660811
0.0903106
0.0625417
0.0625405
0.0627056
0.0633014
0.0650957
0.0705544
0.0896345
0.18095
0.748693
2.33582
1.73309
1.54369
1.468
1.40249
1.34792
1.29439
1.23474
1.16779
1.09171
1.01739
0.951908
0.896666
0.851499
0.841453
0.0903108
0.0625453
0.0625316
0.0626935
0.0632767
0.0650296
0.0703488
0.0888331
0.1764
0.729197
2.32035
1.74167
1.54695
1.47042
1.40519
1.35022
1.29759
1.23836
1.17143
1.09505
1.01989
0.953513
0.897651
0.85145
0.841167
0.0903111
0.0625524
0.0625143
0.0626682
0.0632255
0.0648903
0.0699159
0.0871704
0.166622
0.655826
2.30724
1.76068
1.55069
1.47094
1.40543
1.34987
1.29905
1.24078
1.17407
1.09744
1.02099
0.953223
0.896533
0.848426
0.837808
0.0903116
0.0625628
0.0624898
0.0626329
0.0631525
0.0646918
0.0693084
0.0849069
0.154272
0.566613
2.2519
1.79915
1.5561
1.47126
1.40613
1.34923
1.30079
1.24369
1.17726
1.1004
1.02209
0.952213
0.893962
0.841845
0.83054
0.0903123
0.0625756
0.0624601
0.0625908
0.0630641
0.0644516
0.0685811
0.0822647
0.140797
0.479549
2.13035
1.86408
1.56286
1.47084
1.40678
1.3487
1.30241
1.24687
1.18087
1.10401
1.02364
0.950078
0.889297
0.831878
0.819477
0.0903131
0.062589
0.0624277
0.062545
0.0629663
0.0641871
0.0677896
0.079461
0.127106
0.396939
1.93375
1.956
1.57294
1.47063
1.40748
1.34863
1.3034
1.2496
1.18436
1.10803
1.0251
0.946527
0.882686
0.818341
0.804824
0.0903141
0.0626027
0.0623946
0.0624982
0.0628657
0.0639138
0.0669766
0.0766903
0.114363
0.319597
1.65143
2.07566
1.58764
1.47085
1.40813
1.34876
1.30367
1.25179
1.18728
1.11211
1.02685
0.941365
0.87388
0.800851
0.784939
0.0903149
0.0626152
0.0623633
0.0624534
0.0627695
0.0636485
0.0661872
0.0740445
0.103301
0.258743
1.28278
2.2032
1.60812
1.47235
1.4097
1.34948
1.30355
1.25291
1.18941
1.11563
1.02889
0.933622
0.863078
0.778843
0.758793
0.0903149
0.0626244
0.0623358
0.0624134
0.0626826
0.0634057
0.0654666
0.0716223
0.0935334
0.203876
0.911985
2.27781
1.64373
1.47595
1.41032
1.35269
1.30309
1.25248
1.1903
1.11768
1.03101
0.921767
0.84822
0.756303
0.718184
0.0903147
0.0626307
0.0623135
0.0623796
0.0626067
0.0631925
0.0648437
0.0696043
0.0856571
0.158051
0.593294
2.26113
1.71844
1.48416
1.41211
1.35552
1.30181
1.25068
1.18929
1.11603
1.02965
0.915993
0.826606
0.726563
0.660803
0.0903106
0.0625417
0.0625405
0.0627056
0.0633014
0.0650956
0.0705542
0.0896335
0.180945
0.748663
2.33582
1.73311
1.54369
1.468
1.40249
1.34791
1.29438
1.23472
1.16778
1.0917
1.01738
0.951894
0.896653
0.851487
0.841442
0.0903108
0.0625453
0.0625316
0.0626935
0.0632767
0.0650295
0.0703486
0.0888323
0.176396
0.729185
2.32034
1.74169
1.54696
1.47042
1.40519
1.35022
1.29759
1.23835
1.17142
1.09503
1.01988
0.953499
0.897638
0.851439
0.841156
0.0903111
0.0625524
0.0625143
0.0626682
0.0632255
0.0648903
0.0699157
0.0871699
0.166619
0.655809
2.30725
1.7607
1.55069
1.47095
1.40543
1.34986
1.29905
1.24077
1.17406
1.09743
1.02098
0.95321
0.896521
0.848416
0.837797
0.0903116
0.0625628
0.0624898
0.0626328
0.0631524
0.0646917
0.0693084
0.0849067
0.154272
0.566612
2.25192
1.79916
1.5561
1.47126
1.40613
1.34923
1.30078
1.24369
1.17725
1.1004
1.02208
0.952203
0.893951
0.841835
0.83053
0.0903123
0.0625756
0.0624601
0.0625908
0.0630641
0.0644517
0.0685812
0.082265
0.140799
0.479561
2.13038
1.86407
1.56286
1.47084
1.40678
1.3487
1.30241
1.24687
1.18087
1.10401
1.02364
0.95007
0.889288
0.831869
0.819468
0.0903131
0.062589
0.0624277
0.062545
0.0629663
0.0641872
0.0677897
0.0794616
0.127109
0.396959
1.9338
1.95598
1.57293
1.47063
1.40748
1.34863
1.3034
1.2496
1.18436
1.10803
1.0251
0.946523
0.882679
0.818334
0.804817
0.0903141
0.0626027
0.0623946
0.0624982
0.0628657
0.0639138
0.0669768
0.076691
0.114366
0.319619
1.65154
2.0756
1.58763
1.47085
1.40813
1.34876
1.30366
1.25179
1.18729
1.11211
1.02685
0.941365
0.873877
0.800846
0.784934
0.0903149
0.0626152
0.0623632
0.0624534
0.0627695
0.0636485
0.0661874
0.0740453
0.103304
0.258765
1.28293
2.20312
1.60809
1.47234
1.40969
1.34948
1.30355
1.25292
1.18941
1.11564
1.0289
0.933627
0.863079
0.778841
0.758789
0.0903149
0.0626244
0.0623357
0.0624133
0.0626826
0.0634057
0.0654667
0.0716229
0.0935362
0.203892
0.912069
2.27778
1.6437
1.47594
1.41031
1.35268
1.3031
1.25249
1.19031
1.1177
1.03104
0.921779
0.848226
0.756305
0.718183
0.0903147
0.0626307
0.0623135
0.0623795
0.0626066
0.0631925
0.0648438
0.0696047
0.085659
0.158062
0.593368
2.26114
1.71839
1.48415
1.41211
1.35551
1.30181
1.25069
1.1893
1.11605
1.02967
0.916014
0.82662
0.72657
0.660806
0.0903106
0.0625417
0.0625406
0.0627057
0.0633015
0.0650956
0.070554
0.0896319
0.180933
0.748592
2.33577
1.73314
1.54371
1.46801
1.4025
1.34792
1.29438
1.23472
1.16777
1.09168
1.01735
0.951869
0.896636
0.851483
0.841442
0.0903108
0.0625453
0.0625317
0.0626936
0.0632768
0.0650296
0.0703484
0.088831
0.176387
0.729152
2.32026
1.74172
1.54696
1.47041
1.40519
1.35021
1.29759
1.23834
1.17141
1.09501
1.01985
0.953474
0.89762
0.851434
0.841155
0.0903111
0.0625524
0.0625144
0.0626683
0.0632255
0.0648902
0.0699154
0.0871682
0.16661
0.65575
2.30721
1.76074
1.55068
1.47092
1.40542
1.34986
1.29905
1.24077
1.17405
1.09741
1.02095
0.953185
0.896502
0.848409
0.837795
0.0903116
0.0625628
0.0624899
0.062633
0.0631525
0.0646917
0.0693078
0.0849043
0.15426
0.56654
2.25192
1.79924
1.55607
1.47125
1.40613
1.34923
1.30079
1.24368
1.17724
1.10037
1.02205
0.952176
0.893929
0.841827
0.830525
0.0903123
0.0625756
0.0624602
0.0625908
0.0630641
0.0644514
0.0685801
0.0822609
0.140778
0.47943
2.13052
1.86426
1.56281
1.47084
1.40676
1.3487
1.30241
1.24686
1.18085
1.10398
1.02361
0.950041
0.889263
0.831858
0.819461
0.0903131
0.0625889
0.0624279
0.0625453
0.0629666
0.0641875
0.0677902
0.0794623
0.127108
0.396947
1.93372
1.95603
1.57297
1.47065
1.40751
1.34863
1.3034
1.24959
1.18433
1.108
1.02507
0.946491
0.88265
0.81832
0.804806
0.090314
0.0626026
0.0623948
0.0624984
0.062866
0.0639144
0.066978
0.0766942
0.114377
0.31967
1.65174
2.07541
1.58771
1.4709
1.40818
1.34878
1.30366
1.25176
1.18725
1.11207
1.02681
0.941329
0.873844
0.800828
0.784919
0.0903149
0.0626152
0.0623635
0.0624537
0.0627699
0.0636492
0.0661886
0.0740485
0.103315
0.258817
1.28323
2.20278
1.60816
1.47242
1.40977
1.34951
1.30354
1.25289
1.18938
1.1156
1.02886
0.933587
0.863039
0.778819
0.758771
0.0903149
0.0626244
0.0623359
0.0624135
0.0626828
0.063406
0.0654674
0.0716247
0.0935418
0.203917
0.912193
2.2775
1.64374
1.47601
1.41035
1.35268
1.30309
1.25246
1.19028
1.11766
1.03099
0.921735
0.848185
0.756274
0.718161
0.0903148
0.0626307
0.0623137
0.0623798
0.0626069
0.0631929
0.0648443
0.0696058
0.0856618
0.158073
0.593419
2.26099
1.71841
1.48417
1.4121
1.35551
1.30182
1.25067
1.18928
1.11602
1.02962
0.915958
0.826572
0.726535
0.660781
0.0903107
0.0625417
0.0625409
0.062706
0.0633019
0.0650964
0.0705563
0.0896417
0.181
0.749009
2.33641
1.73299
1.54362
1.46803
1.40253
1.34795
1.29442
1.23474
1.16774
1.09163
1.0173
0.95183
0.896602
0.851459
0.84142
0.0903109
0.0625453
0.062532
0.0626939
0.0632773
0.0650304
0.0703505
0.0888385
0.176427
0.729371
2.32089
1.74155
1.54694
1.47048
1.40523
1.35026
1.29762
1.23836
1.17138
1.09496
1.01981
0.953435
0.897587
0.851411
0.841134
0.0903112
0.0625523
0.0625149
0.0626689
0.0632265
0.0648924
0.0699211
0.0871885
0.16672
0.656618
2.30704
1.76044
1.55072
1.471
1.40552
1.34992
1.29906
1.24075
1.17401
1.09737
1.02091
0.953147
0.896471
0.848388
0.837776
0.0903116
0.0625627
0.0624902
0.0626334
0.0631532
0.0646933
0.0693123
0.0849196
0.154335
0.567
2.25218
1.79891
1.55613
1.47132
1.40621
1.34928
1.30079
1.24366
1.1772
1.10033
1.02201
0.952139
0.893902
0.84181
0.830511
0.0903123
0.0625754
0.0624607
0.0625914
0.0630649
0.0644532
0.0685849
0.0822769
0.14085
0.479856
2.13056
1.86367
1.56287
1.4709
1.40685
1.34875
1.30241
1.24683
1.18082
1.10394
1.02357
0.950008
0.889241
0.831846
0.819451
0.0903131
0.0625888
0.062428
0.0625454
0.0629669
0.0641883
0.0677925
0.0794703
0.127146
0.397154
1.93413
1.95553
1.57295
1.47069
1.40756
1.34868
1.3034
1.24957
1.18431
1.10797
1.02503
0.946463
0.882636
0.818313
0.804801
0.0903141
0.0626026
0.0623949
0.0624985
0.0628661
0.0639146
0.0669784
0.0766957
0.114385
0.319713
1.65194
2.07513
1.58761
1.4709
1.40819
1.3488
1.30367
1.25178
1.18725
1.11205
1.02678
0.941308
0.873836
0.800827
0.78492
0.0903149
0.0626152
0.0623634
0.0624536
0.0627698
0.0636489
0.0661881
0.074047
0.10331
0.258794
1.28309
2.20289
1.60806
1.47238
1.40974
1.34952
1.30356
1.25291
1.18938
1.11558
1.02883
0.933574
0.863039
0.778823
0.758777
0.090315
0.0626243
0.062336
0.0624136
0.0626829
0.063406
0.0654671
0.0716233
0.0935369
0.203897
0.912106
2.2778
1.64371
1.47597
1.41036
1.35272
1.30312
1.25249
1.19028
1.11764
1.03097
0.921727
0.848189
0.756284
0.718171
0.0903147
0.0626306
0.0623137
0.0623797
0.0626069
0.0631927
0.0648439
0.0696047
0.0856581
0.158057
0.593344
2.26128
1.71847
1.4842
1.41216
1.35556
1.30185
1.25069
1.18928
1.116
1.02961
0.915955
0.826579
0.726547
0.660792
0.0903104
0.0625416
0.0625404
0.0627054
0.0633009
0.0650938
0.0705484
0.0896105
0.180813
0.747975
2.33567
1.73341
1.54379
1.46805
1.40256
1.34796
1.29444
1.23478
1.16779
1.09168
1.01737
0.951899
0.896687
0.851552
0.841524
0.0903106
0.0625452
0.0625315
0.0626933
0.0632762
0.0650279
0.070343
0.0888098
0.176261
0.72824
2.32044
1.74207
1.54706
1.4705
1.40528
1.35028
1.29765
1.2384
1.17143
1.09502
1.01987
0.953505
0.89767
0.851501
0.841235
0.0903109
0.0625523
0.0625142
0.062668
0.063225
0.0648886
0.0699101
0.087148
0.166492
0.654769
2.30756
1.76112
1.55078
1.47104
1.40552
1.34992
1.2991
1.2408
1.17406
1.09742
1.02096
0.953214
0.896552
0.848476
0.83787
0.0903115
0.0625626
0.06249
0.0626331
0.0631526
0.0646916
0.0693069
0.0848998
0.154231
0.566357
2.25135
1.7994
1.55628
1.47136
1.40625
1.34929
1.30083
1.2437
1.17724
1.10037
1.02205
0.952198
0.893971
0.841889
0.830595
0.090312
0.0625754
0.0624603
0.062591
0.0630643
0.0644518
0.0685807
0.0822624
0.140782
0.479461
2.1299
1.86417
1.56305
1.47095
1.4069
1.34879
1.30246
1.24687
1.18084
1.10397
1.0236
0.950053
0.8893
0.831912
0.81952
0.0903129
0.0625887
0.0624279
0.0625453
0.0629665
0.0641871
0.0677887
0.0794572
0.127085
0.396821
1.93358
1.95625
1.57297
1.4707
1.40759
1.34872
1.30345
1.24961
1.18432
1.10798
1.02505
0.946494
0.882678
0.818363
0.804859
0.0903139
0.0626023
0.0623949
0.0624985
0.0628659
0.0639139
0.066976
0.0766878
0.11435
0.319518
1.65108
2.07609
1.58769
1.47091
1.40821
1.34883
1.3037
1.2518
1.18724
1.11204
1.02678
0.94132
0.873864
0.800863
0.784965
0.0903147
0.0626148
0.0623637
0.0624539
0.0627701
0.0636492
0.066188
0.0740461
0.103304
0.258752
1.28282
2.20342
1.60814
1.47239
1.40976
1.34954
1.30359
1.25293
1.18937
1.11556
1.02881
0.933573
0.863051
0.778843
0.758811
0.0903147
0.0626241
0.0623361
0.0624137
0.0626831
0.0634064
0.0654679
0.0716256
0.0935436
0.203919
0.912166
2.27787
1.64362
1.47595
1.41039
1.35276
1.30316
1.25251
1.19027
1.11761
1.03093
0.921714
0.848188
0.756287
0.718188
0.0903146
0.0626303
0.0623141
0.0623802
0.0626074
0.0631935
0.0648452
0.0696078
0.0856673
0.158097
0.593586
2.26112
1.71808
1.48417
1.4122
1.35563
1.30191
1.25072
1.18928
1.11597
1.02956
0.915916
0.826567
0.726545
0.660797
0.0903141
0.0626341
0.0622978
0.0623545
0.0625444
0.0630132
0.064313
0.0679522
0.0796643
0.127251
0.397497
1.98056
1.87124
1.49819
1.41388
1.35758
1.30123
1.2468
1.18662
1.11487
1.02901
0.912385
0.804908
0.680133
0.5314
0.0903144
0.0626379
0.0622857
0.0623353
0.0624924
0.0628688
0.0638708
0.0666154
0.0750711
0.106686
0.27727
1.40956
2.0378
1.52422
1.41438
1.35814
1.30177
1.24271
1.18337
1.11312
1.0281
0.909947
0.788182
0.642199
0.487858
0.0903144
0.0626408
0.0622768
0.0623215
0.062453
0.0627573
0.0635261
0.0655806
0.0715549
0.0923511
0.194924
0.847551
2.14007
1.57879
1.41804
1.35919
1.30372
1.23701
1.18374
1.11339
1.02708
0.9102
0.786271
0.638561
0.492309
0.0903144
0.0626418
0.062273
0.0623149
0.0624309
0.0626781
0.0632795
0.0648167
0.0690577
0.0827478
0.141189
0.484354
2.09846
1.71758
1.43306
1.36168
1.309
1.23653
1.1847
1.1152
1.0279
0.912807
0.789042
0.644166
0.507729
0.0903144
0.0626421
0.0622728
0.0623145
0.0624232
0.0626411
0.0631217
0.0642826
0.067323
0.076443
0.110626
0.300981
1.63622
1.88753
1.45843
1.36185
1.31304
1.23964
1.18813
1.11953
1.03183
0.920959
0.799092
0.66139
0.540929
0.0903144
0.0626421
0.0622728
0.0623146
0.0624233
0.0626375
0.0630368
0.063931
0.0661353
0.0722163
0.0927887
0.191735
0.819775
1.95536
1.51443
1.36239
1.31276
1.24943
1.19684
1.12667
1.04227
0.939164
0.822512
0.697821
0.589025
0.0903144
0.0626424
0.0622719
0.0623137
0.0624212
0.0626262
0.0630195
0.0637107
0.0652882
0.0694396
0.0823093
0.134112
0.427919
1.86581
1.66712
1.3736
1.30858
1.26852
1.21608
1.14173
1.06218
0.967298
0.863346
0.748368
0.640745
0.0903144
0.0626424
0.0622718
0.0623134
0.0624205
0.0626276
0.0630079
0.0635869
0.0647861
0.0677056
0.0758381
0.103932
0.250398
1.28488
1.74726
1.41487
1.30695
1.28896
1.23491
1.16258
1.08444
0.997285
0.904694
0.797059
0.691899
0.0903144
0.0626424
0.0622717
0.0623133
0.0624203
0.0626311
0.0629893
0.0636207
0.0645162
0.0665825
0.0719584
0.0881884
0.155177
0.547167
1.70453
1.53012
1.30991
1.29969
1.25209
1.18628
1.11017
1.02731
0.942205
0.843293
0.741816
0.0903144
0.0626424
0.0622717
0.0623133
0.0624206
0.0626325
0.0629836
0.0636302
0.0644396
0.0659974
0.069612
0.079521
0.112337
0.276772
1.26849
1.5781
1.32555
1.32102
1.28232
1.21834
1.14396
1.06103
0.976747
0.887307
0.791001
0.0903143
0.0626424
0.0622717
0.0623133
0.0624204
0.0626317
0.0629877
0.0636189
0.0644847
0.0656821
0.0682631
0.0747008
0.0927126
0.162599
0.541174
1.47925
1.41729
1.3543
1.31746
1.25238
1.17911
1.09666
1.01355
0.929728
0.839621
0.0903144
0.0626424
0.0622717
0.0623133
0.0624202
0.0626304
0.0629931
0.0636051
0.0645052
0.0656754
0.0679656
0.0723494
0.0830038
0.115122
0.249333
0.93131
1.41008
1.3886
1.3617
1.29641
1.21843
1.1383
1.05493
0.971191
0.888709
0.0903144
0.0626424
0.0622717
0.0623133
0.0624201
0.0626297
0.0629958
0.0635984
0.0645119
0.0656829
0.0680298
0.0713224
0.0784524
0.0964826
0.15175
0.388837
1.17495
1.38012
1.36854
1.33625
1.26039
1.17503
1.097
1.01475
0.933427
0.0903143
0.0626424
0.0622717
0.0623133
0.0624202
0.0626297
0.062996
0.0635976
0.0645128
0.0656842
0.0679981
0.0714607
0.0768098
0.0883085
0.116613
0.205497
0.540769
1.23434
1.36064
1.3405
1.30001
1.21745
1.13702
1.05776
0.977521
0.0903144
0.0626424
0.0622717
0.0623133
0.0624201
0.0626297
0.0629961
0.0635976
0.0645135
0.0656756
0.0679636
0.0714631
0.0767973
0.0868895
0.106851
0.149898
0.270044
0.673054
1.24578
1.32749
1.3036
1.25829
1.17449
1.10158
1.02167
0.0903144
0.0626424
0.0622717
0.0623133
0.0624201
0.0626297
0.0629961
0.0635977
0.0645137
0.0656745
0.0679594
0.0714498
0.0768236
0.0868856
0.107115
0.138783
0.190628
0.329541
0.750226
1.21493
1.28212
1.258
1.2086
1.13421
1.06655
0.0903144
0.0626424
0.0622717
0.0623132
0.0624201
0.0626297
0.0629961
0.0635975
0.0645134
0.0656738
0.0679581
0.0714467
0.0768293
0.0868542
0.10704
0.138276
0.181939
0.233115
0.363909
0.738042
1.15807
1.22437
1.20305
1.15608
1.09583
0.0903144
0.0626424
0.0622718
0.0623133
0.0624202
0.0626298
0.0629963
0.0635976
0.0645138
0.0656744
0.0679589
0.0714467
0.0768378
0.0868333
0.106888
0.138896
0.180071
0.220125
0.264339
0.372647
0.66824
1.07384
1.15448
1.14308
1.10883
0.0903143
0.0626424
0.0622717
0.0623133
0.0624201
0.0626297
0.0629958
0.0635976
0.064513
0.0656733
0.0679573
0.0714444
0.0768372
0.0868234
0.106848
0.138927
0.179959
0.219188
0.246914
0.280807
0.360296
0.56725
0.945602
1.07526
1.08773
0.0903144
0.0626423
0.0622718
0.0623134
0.0624202
0.0626298
0.0629965
0.0635976
0.0645139
0.0656745
0.0679589
0.0714463
0.0768391
0.0868281
0.106856
0.138962
0.179964
0.219111
0.246856
0.261761
0.284771
0.33863
0.471683
0.778618
0.996677
0.0903144
0.0626424
0.0622717
0.0623132
0.0624201
0.0626296
0.0629961
0.0635975
0.0645135
0.0656738
0.0679584
0.0714457
0.076835
0.0868229
0.106851
0.138928
0.179928
0.21907
0.246893
0.260771
0.270837
0.285464
0.318891
0.400313
0.608268
0.0903144
0.0626423
0.0622719
0.0623134
0.0624203
0.0626299
0.0629965
0.0635978
0.0645141
0.0656746
0.0679592
0.0714466
0.0768401
0.0868267
0.106849
0.138947
0.179945
0.219071
0.246916
0.260611
0.269822
0.276028
0.28367
0.301813
0.346949
0.0903144
0.0626424
0.0622717
0.0623132
0.0624201
0.0626296
0.0629961
0.0635975
0.0645134
0.0656737
0.0679582
0.0714453
0.0768342
0.0868217
0.106849
0.138924
0.179924
0.219069
0.246905
0.260573
0.269734
0.275488
0.277954
0.282909
0.292589
0.0903144
0.0626423
0.0622719
0.0623134
0.0624203
0.0626299
0.0629966
0.0635978
0.0645142
0.0656748
0.0679593
0.071447
0.0768401
0.0868277
0.106852
0.138954
0.179948
0.219058
0.246884
0.260545
0.269685
0.275346
0.277615
0.280282
0.28353
0.0903143
0.0626424
0.0622716
0.0623132
0.0624201
0.0626296
0.0629957
0.0635974
0.0645128
0.0656731
0.0679569
0.0714438
0.0768366
0.0868208
0.106838
0.138938
0.179923
0.219028
0.246861
0.260517
0.26965
0.275317
0.277582
0.279936
0.281367
0.0903144
0.0626423
0.0622719
0.0623134
0.0624203
0.0626299
0.0629965
0.0635977
0.0645141
0.0656746
0.067959
0.0714467
0.0768398
0.0868273
0.106851
0.138957
0.179957
0.219066
0.246886
0.260539
0.269675
0.275317
0.277603
0.279869
0.280979
0.0903144
0.0626424
0.0622716
0.0623132
0.06242
0.0626296
0.0629961
0.0635974
0.0645133
0.0656735
0.0679578
0.0714446
0.0768335
0.0868204
0.106847
0.138923
0.179927
0.21907
0.246898
0.260555
0.269706
0.275342
0.277634
0.279888
0.280952
0.0903144
0.0626424
0.0622718
0.0623133
0.0624202
0.0626298
0.0629964
0.0635976
0.0645138
0.0656743
0.0679588
0.0714457
0.0768385
0.0868255
0.106848
0.138953
0.179949
0.219067
0.246901
0.26057
0.269708
0.275353
0.277637
0.279888
0.280943
0.0903144
0.0626424
0.0622716
0.0623132
0.06242
0.0626296
0.062996
0.0635974
0.0645132
0.0656735
0.067958
0.0714449
0.0768333
0.0868207
0.106848
0.13892
0.179918
0.219058
0.24689
0.260556
0.269714
0.275352
0.277646
0.279899
0.280955
0.0903144
0.0626424
0.0622717
0.0623133
0.0624201
0.0626297
0.0629961
0.0635976
0.0645135
0.0656739
0.0679585
0.0714456
0.0768367
0.0868252
0.106852
0.13895
0.179942
0.219053
0.246878
0.260539
0.269683
0.275325
0.277616
0.279873
0.280933
0.0903143
0.0626424
0.0622716
0.0623132
0.06242
0.0626295
0.0629955
0.0635974
0.0645125
0.0656727
0.0679565
0.0714429
0.0768338
0.086818
0.106837
0.138931
0.179922
0.219036
0.24687
0.260528
0.269661
0.275321
0.277596
0.279868
0.280926
0.0903144
0.0626424