/*--------------------------------*- C++ -*----------------------------------*\
| =========                 |                                                 |
| \\      /  F ield         | OpenFOAM: The Open Source CFD Toolbox           |
|  \\    /   O peration     | Version:  4.1                                   |
|   \\  /    A nd           | Web:      www.OpenFOAM.org                      |
|    \\/     M anipulation  |                                                 |
\*---------------------------------------------------------------------------*/
FoamFile
{
    version     2.0;
    format      ascii;
    class       surfaceScalarField;
    location    "0.42";
    object      phi;
}
// * * * * * * * * * * * * * * * * * * * * * * * * * * * * * * * * * * * * * //

dimensions      [1 0 -1 0 0 0 0];

internalField   nonuniform List<scalar> 
150500
(
0.00202825
-1.75136e-10
-1.43322e-12
0.00202929
-6.57184e-09
-4.4718e-13
0.0020272
1.4592e-08
-2.2701e-12
0.00202458
3.4231e-08
-2.72881e-12
0.00201785
7.41922e-08
-4.59531e-12
0.00199708
1.92847e-07
-1.09506e-11
0.0019361
5.87581e-07
-3.38256e-11
0.00178108
2.21043e-06
-1.37711e-10
0.00132818
1.22192e-05
-8.71439e-10
-0.00126752
0.000123989
-5.21398e-09
-0.00365761
0.00065401
-2.85263e-09
-0.00307555
0.000440074
2.04709e-09
-0.00268546
0.000384717
1.05223e-09
-0.0023096
0.000356579
3.95454e-10
-0.00184064
0.000313368
3.36114e-10
-0.00154067
0.000293403
2.43264e-10
-0.00128168
0.000288171
2.93286e-10
-0.00103831
0.000295921
4.46243e-10
-0.00083931
0.000296336
6.56484e-10
-0.000686196
0.000294991
7.01578e-10
-0.00056201
0.000298458
6.31043e-10
-0.00044992
0.00030067
5.62517e-10
-0.000332736
0.000301733
5.3183e-10
-0.000184499
0.000313433
5.23458e-10
0.000321726
5.07187e-10
0.00202827
-2.2208e-10
-1.26863e-12
0.00202925
-1.27264e-08
-3.91933e-13
0.00202724
2.87609e-08
-1.99184e-12
0.00202475
6.84768e-08
-2.38021e-12
0.00201823
1.49492e-07
-3.90619e-12
0.00199793
3.9454e-07
-9.08507e-12
0.00193835
1.20733e-06
-2.70827e-11
0.0017871
4.50317e-06
-1.04969e-10
0.00134574
2.43198e-05
-6.16797e-10
-0.00144261
0.000244104
-4.14862e-09
-0.00371213
0.00127921
-3.11864e-09
-0.00306229
0.000877394
2.38793e-09
-0.00267555
0.000767362
8.00283e-10
-0.00230239
0.000711117
1.43951e-10
-0.00182662
0.000628113
3.24723e-10
-0.00152313
0.000586236
1.96952e-10
-0.00126155
0.000576803
3.13684e-10
-0.00101867
0.000591994
4.34589e-10
-0.000820345
0.000592873
5.85827e-10
-0.000669699
0.000591381
6.4537e-10
-0.00054851
0.00059826
6.05827e-10
-0.000439856
0.000602881
5.46953e-10
-0.000327211
0.000605774
5.18134e-10
-0.000180829
0.000626371
5.10198e-10
0.000645584
4.9855e-10
0.00202832
-3.609e-10
-1.55855e-12
0.00202918
-1.87952e-08
-2.28793e-13
0.00202737
4.0071e-08
-2.6737e-12
0.00202514
9.59069e-08
-3.38686e-12
0.00201904
2.09649e-07
-5.73805e-12
0.00199982
5.55527e-07
-1.3576e-11
0.00194339
1.69126e-06
-3.95357e-11
0.00179961
6.21211e-06
-1.45529e-10
0.00140625
3.21509e-05
-8.22534e-10
-0.000983576
0.000294378
-6.64149e-09
-0.00383107
0.00190069
1.14726e-10
-0.00304334
0.00134765
2.90245e-09
-0.00264861
0.00115117
4.68219e-10
-0.0022835
0.00106591
6.22888e-11
-0.00180103
0.000947094
2.56689e-11
-0.001493
0.000877616
1.25467e-10
-0.00122627
0.000865153
4.01076e-10
-0.000982885
0.000887813
4.73502e-10
-0.000786048
0.000889856
4.83791e-10
-0.000638207
0.000887981
5.29034e-10
-0.000521954
0.0008984
5.33995e-10
-0.000418683
0.00090685
5.13725e-10
-0.000312569
0.0009116
4.93663e-10
-0.000172746
0.000940022
4.83777e-10
0.000972013
4.77582e-10
0.00202839
-6.7411e-10
-9.66236e-13
0.00202907
-2.26559e-08
-6.99254e-14
0.00202757
4.71109e-08
-1.78249e-12
0.00202568
1.13412e-07
-2.29574e-12
0.00202016
2.51005e-07
-4.17776e-12
0.00200252
6.68568e-07
-1.03358e-11
0.00195041
2.02456e-06
-3.03086e-11
0.00181545
7.29296e-06
-1.09558e-10
0.0014743
3.6089e-05
-5.70213e-10
-0.000423525
0.000299947
-3.75869e-09
-0.00395538
0.00239363
-2.95111e-09
-0.00300061
0.00187103
3.00286e-09
-0.00260966
0.0015423
2.65833e-10
-0.00225566
0.00142185
5.73914e-11
-0.001765
0.00127333
6.76333e-11
-0.00144858
0.00116851
1.38984e-10
-0.00117497
0.00115385
3.66695e-10
-0.000929578
0.00118252
4.4139e-10
-0.000732968
0.00118768
3.74444e-10
-0.000588141
0.00118486
4.08487e-10
-0.000478493
0.00119994
4.51257e-10
-0.000382192
0.00121232
4.52432e-10
-0.000285037
0.00121789
4.43473e-10
-0.000157383
0.00125578
4.35134e-10
0.00130463
4.44105e-10
0.00202847
-1.61782e-09
-1.26014e-12
0.00202893
-2.36906e-08
-3.71401e-14
0.0020278
5.1473e-08
-1.73124e-12
0.00202637
1.23782e-07
-2.24932e-12
0.00202156
2.76237e-07
-4.07295e-12
0.00200582
7.35418e-07
-9.96835e-12
0.00195887
2.20162e-06
-2.94431e-11
0.00183426
7.74309e-06
-1.03891e-10
0.00153825
3.65408e-05
-5.00082e-10
-6.76264e-05
0.000278802
-3.21555e-09
-0.00388136
0.00272818
-1.95366e-09
-0.00295567
0.00246492
4.04005e-09
-0.00256676
0.00194233
2.64488e-10
-0.00222444
0.0017772
5.5383e-11
-0.00172558
0.0016106
6.98227e-11
-0.0013926
0.00146198
1.04743e-10
-0.00110994
0.00144311
3.53941e-10
-0.000860953
0.00147534
4.0786e-10
-0.00066234
0.00148704
2.49414e-10
-0.000519388
0.00148261
2.69614e-10
-0.000416505
0.00150099
3.37718e-10
-0.000330762
0.00151763
3.51442e-10
-0.000246024
0.00152334
3.55568e-10
-0.000134133
0.00157409
3.6758e-10
0.0016427
3.82141e-10
0.00202856
-2.02644e-09
-7.89459e-13
0.00202877
-2.44673e-08
-7.78787e-13
0.00202807
5.06944e-08
-1.47131e-13
0.00202714
1.2209e-07
-3.26405e-13
0.00202312
2.76076e-07
-1.39318e-12
0.00200942
7.44956e-07
-5.08895e-12
0.00196814
2.23044e-06
-1.74314e-11
0.00185666
7.68527e-06
-6.38569e-11
0.0015957
3.42976e-05
-3.17906e-10
0.00029554
0.000242567
-1.92071e-09
-0.0037471
0.00279582
-3.80827e-09
-0.00291725
0.00317407
3.8738e-09
-0.00251796
0.0023559
3.06444e-10
-0.00218453
0.00213451
1.2894e-10
-0.00168156
0.00195885
6.84171e-11
-0.0013248
0.00175911
1.03814e-10
-0.0010321
0.00173316
3.27775e-10
-0.000778127
0.00176398
3.45489e-10
-0.000574805
0.00178763
1.30496e-10
-0.000431313
0.00178219
1.43545e-10
-0.00033574
0.00180137
2.06153e-10
-0.000262968
0.00182345
2.36649e-10
-0.000193629
0.00182823
2.68003e-10
-0.000101682
0.00189262
2.85113e-10
0.00199073
3.27188e-10
0.00202865
-1.37233e-09
-9.83524e-13
0.00202861
-2.17818e-08
-1.52895e-12
0.00202834
4.65864e-08
7.21199e-13
0.0020279
1.10604e-07
8.1763e-13
0.00202491
2.53845e-07
5.09569e-13
0.00201337
7.0104e-07
-4.5106e-13
0.00197762
2.10983e-06
-4.63367e-12
0.00187825
7.17451e-06
-1.95555e-11
0.00165877
3.0329e-05
-1.05432e-10
0.000820815
0.000198682
-6.79141e-10
-0.00345294
0.00250018
-3.32311e-09
-0.00287991
0.00403242
2.97862e-09
-0.00246693
0.00278675
8.51944e-10
-0.00213429
0.00249548
2.66683e-10
-0.00163592
0.00231827
2.95266e-10
-0.0012469
0.00206158
2.45612e-10
-0.000941749
0.00202193
3.49496e-10
-0.000681391
0.00204417
2.26489e-10
-0.000469787
0.00208676
6.96272e-11
-0.000322537
0.00208169
3.3912e-11
-0.000233585
0.0020993
7.29871e-11
-0.000175845
0.0021349
1.02181e-10
-0.000124908
0.00213546
1.62626e-10
-5.35881e-05
0.0022108
1.961e-10
0.00236388
2.51793e-10
0.00202873
-4.28653e-10
-9.59646e-13
0.00202844
-1.44408e-08
-1.46804e-12
0.00202862
3.89935e-08
1.374e-12
0.00202866
9.12409e-08
1.53501e-12
0.00202672
2.18227e-07
1.86442e-12
0.0020174
6.2018e-07
2.37617e-12
0.00198762
1.88361e-06
2.65459e-12
0.00190033
6.31862e-06
2.67255e-12
0.00170868
2.56756e-05
-7.4767e-12
0.00108751
0.000160636
-1.20077e-10
-0.00253313
0.00191524
-9.34983e-10
-0.00283676
0.00496184
5.66178e-10
-0.00241111
0.00324875
6.63261e-10
-0.00207028
0.00286194
4.35487e-10
-0.0015874
0.00267889
6.25518e-10
-0.0011608
0.00238269
4.94445e-10
-0.000839132
0.0023073
3.80375e-10
-0.000571085
0.0023178
1.9165e-10
-0.00034727
0.00238101
5.19746e-11
-0.000192045
0.00238232
-6.9867e-12
-0.000105603
0.00239059
-5.95124e-11
-5.86562e-05
0.0024436
-5.24402e-12
-3.60312e-05
0.00244183
4.10266e-11
1.64189e-05
0.00252068
9.74005e-11
0.00277714
1.82892e-10
0.0020288
4.47959e-10
-7.87892e-13
0.00202828
-8.41174e-09
-1.50253e-12
0.00202891
3.07447e-08
1.60745e-12
0.00202944
7.01712e-08
1.82118e-12
0.00202834
1.78134e-07
2.26477e-12
0.00202108
5.20969e-07
2.98626e-12
0.0019976
1.60691e-06
4.30069e-12
0.00192757
5.27384e-06
8.05701e-12
0.00175702
2.04018e-05
1.43285e-11
0.00125581
0.000116787
-2.66127e-12
-0.00141103
0.00121531
-3.32498e-10
-0.00283074
0.00588554
-1.37482e-09
-0.00236441
0.0037862
1.84463e-10
-0.00199484
0.00324557
4.28531e-10
-0.00153955
0.00302757
5.39896e-10
-0.00107101
0.00273775
5.15973e-10
-0.000727677
0.00258442
4.29439e-10
-0.000448212
0.00258626
2.21197e-10
-0.000207188
0.00266777
1.16916e-10
-4.02146e-05
0.00268734
-4.59e-11
4.31172e-05
0.00268646
-1.94631e-10
9.52775e-05
0.00272947
-1.09337e-10
0.000101598
0.0027623
-7.66164e-11
0.000105827
0.00282086
-1.33308e-11
0.0032537
7.76789e-11
0.00202885
-4.89427e-13
8.91128e-10
0.00202813
-1.53944e-12
-4.52393e-09
0.00202921
2.41708e-12
2.08588e-08
0.0020302
2.61821e-12
4.89629e-08
0.00202969
3.1301e-12
1.37288e-07
0.00202439
3.96114e-12
4.15621e-07
0.00200608
5.56056e-12
1.32108e-06
0.00195218
1.04608e-11
4.28616e-06
0.00181177
2.20492e-11
1.57987e-05
0.00146732
5.09665e-11
7.95985e-05
-0.000313197
2.91458e-11
0.000677555
-0.00295275
-2.00709e-09
0.00626365
-0.00231082
-5.13072e-10
0.00459106
-0.00191514
2.33239e-10
0.00365033
-0.0014835
4.3468e-10
0.00337835
-0.000979411
6.54452e-10
0.00310925
-0.000611082
5.06366e-10
0.00284854
-0.000311714
3.19525e-10
0.00284507
-5.17516e-05
1.9076e-10
0.00294903
0.000142272
-8.02765e-12
0.00298873
0.000253866
-2.39006e-10
0.00296054
0.00028727
-3.06567e-10
0.00298403
0.000295986
-1.90074e-10
0.00304484
0.000276868
-7.84494e-11
0.00311504
-1.4479e-12
0.00385676
0.00202825
-9.73856e-11
3.02358e-13
0.00202929
-6.39807e-09
-3.4974e-14
0.00202719
1.50183e-08
1.30801e-12
0.00202457
3.49151e-08
1.387e-12
0.00201784
7.53234e-08
1.75382e-12
0.00199703
1.94864e-07
3.37143e-12
0.00193598
5.92124e-07
9.83412e-12
0.00178078
2.22684e-06
4.25114e-11
0.00132713
1.23282e-05
2.98156e-10
-0.00126537
0.000124984
1.98797e-09
-0.00365418
0.000654278
3.58321e-09
-0.00307316
0.000438291
-6.91498e-10
-0.00268377
0.000384919
-4.05718e-10
-0.00230852
0.000357017
8.25415e-11
-0.00184022
0.000313791
1.12766e-10
-0.0015406
0.000293637
1.46785e-10
-0.00128172
0.000288202
2.41076e-10
-0.00103846
0.000295814
8.97876e-11
-0.000839503
0.000296191
-1.37719e-10
-0.00068634
0.000294883
-2.39962e-10
-0.00056209
0.000298374
-2.13847e-10
-0.000449956
0.000300589
-1.81136e-10
-0.000332749
0.000301652
-1.62176e-10
-0.000184481
0.000313356
-1.13349e-10
0.000321672
-1.03541e-10
0.00202827
-1.64542e-10
1.61908e-13
0.00202926
-1.25834e-08
-1.19659e-13
0.00202724
2.87273e-08
1.29032e-12
0.00202475
6.86195e-08
1.4064e-12
0.00201822
1.49659e-07
1.76521e-12
0.0019979
3.93642e-07
3.27363e-12
0.00193828
1.20209e-06
8.72191e-12
0.00178696
4.47861e-06
3.20847e-11
0.00134534
2.41777e-05
1.75412e-10
-0.00144435
0.000242694
1.0306e-09
-0.00370085
0.00127835
3.36642e-09
-0.00305726
0.000879924
-7.59903e-10
-0.00267276
0.000768647
-1.06544e-10
-0.00230105
0.000712646
3.83443e-10
-0.00182607
0.000629395
2.21013e-10
-0.00152305
0.000586811
2.65745e-10
-0.00126166
0.000576917
1.49009e-10
-0.00101886
0.000591817
5.09682e-11
-0.00082055
0.000592597
-1.34783e-10
-0.000669859
0.000591158
-2.30331e-10
-0.00054861
0.000598081
-2.10877e-10
-0.00043991
0.000602711
-1.78926e-10
-0.000327226
0.0006056
-1.55879e-10
-0.000180789
0.00062619
-1.09161e-10
0.000645499
-9.89926e-11
0.00202832
3.02686e-12
5.74255e-13
0.00202918
-1.82582e-08
-3.4328e-13
0.00202737
4.1318e-08
2.52081e-12
0.00202513
9.78938e-08
3.16261e-12
0.00201902
2.12633e-07
4.68122e-12
0.00199977
5.60307e-07
9.6439e-12
0.00194328
1.70028e-06
2.56632e-11
0.00179936
6.23696e-06
9.12485e-11
0.00140502
3.22783e-05
5.06272e-10
-0.000995981
0.000295872
4.20978e-09
-0.00383329
0.0019013
-7.73728e-10
-0.0030467
0.00134676
-1.31329e-09
-0.0026507
0.00115148
1.6852e-10
-0.00228438
0.00106629
4.60519e-10
-0.00180185
0.000947375
5.65663e-10
-0.00149361
0.000877705
3.44371e-10
-0.00122675
0.000864919
5.19719e-11
-0.000983185
0.000887393
-5.2659e-11
-0.000786233
0.000889412
-1.49152e-10
-0.000638325
0.000887622
-2.18634e-10
-0.000522016
0.000898109
-2.06875e-10
-0.000418703
0.000906595
-1.74974e-10
-0.000312561
0.000911348
-1.4564e-10
-0.000172708
0.000939761
-9.80475e-11
0.00097189
-8.74222e-11
0.00202839
-5.60332e-10
-4.35124e-14
0.00202907
-2.23982e-08
-6.92169e-13
0.00202757
4.75378e-08
1.6945e-12
0.00202568
1.14494e-07
2.15523e-12
0.00202015
2.52931e-07
3.41235e-12
0.0020025
6.71668e-07
7.57233e-12
0.00195035
2.02998e-06
1.97859e-11
0.00181531
7.30509e-06
6.7762e-11
0.00147385
3.61411e-05
3.38755e-10
-0.000425985
0.000300536
2.20565e-09
-0.00395213
0.00239527
1.19841e-09
-0.00300222
0.00187207
-1.47874e-09
-0.00261225
0.00154282
2.40221e-10
-0.00225781
0.00142198
3.80325e-10
-0.00176647
0.00127282
4.74346e-10
-0.00144958
0.00116795
2.98113e-10
-0.00117564
0.00115311
-2.33861e-12
-0.000929939
0.00118177
-1.1764e-10
-0.000733122
0.00118703
-1.72226e-10
-0.000588213
0.00118436
-2.26958e-10
-0.000478521
0.00119953
-2.15831e-10
-0.000382181
0.00121199
-1.66531e-10
-0.00028501
0.00121758
-1.26291e-10
-0.000157348
0.00125546
-7.85968e-11
0.00130442
-6.70546e-11
0.00202847
-1.05966e-09
3.44753e-13
0.00202893
-2.35399e-08
-1.10632e-12
0.0020278
5.29132e-08
2.38431e-12
0.00202636
1.26198e-07
2.90545e-12
0.00202154
2.79847e-07
4.19538e-12
0.00200578
7.41623e-07
8.46127e-12
0.00195879
2.21463e-06
2.13834e-11
0.0018341
7.77933e-06
7.16137e-11
0.00153779
3.66914e-05
3.25781e-10
-7.06285e-05
0.000279996
2.04674e-09
-0.00388219
0.00273359
1.92668e-10
-0.0029596
0.00246584
-2.83015e-09
-0.00257061
0.00194235
3.62514e-10
-0.002227
0.00177576
3.77546e-10
-0.00172736
0.00160853
5.15844e-10
-0.00139386
0.00146035
3.35594e-10
-0.0011107
0.00144173
-2.32898e-11
-0.000861289
0.00147428
-1.53795e-10
-0.000662433
0.00148616
-1.7178e-10
-0.000519396
0.00148195
-2.28963e-10
-0.000416486
0.00150047
-2.28276e-10
-0.000330727
0.00151724
-1.65256e-10
-0.00024598
0.00152303
-9.88372e-11
-0.000134099
0.00157376
-5.52534e-11
0.00164239
-4.41943e-11
0.00202856
-1.83277e-09
-3.42337e-13
0.00202878
-2.45e-08
-1.46614e-13
0.00202807
5.15512e-08
2.96661e-13
0.00202713
1.23889e-07
4.10021e-13
0.00202311
2.79051e-07
1.34886e-12
0.0020094
7.50682e-07
3.78829e-12
0.00196809
2.24308e-06
1.05214e-11
0.00185654
7.72159e-06
3.5485e-11
0.0015954
3.44478e-05
1.66296e-10
0.000294
0.000243607
9.64067e-10
-0.0037439
0.0028033
1.86808e-09
-0.00291891
0.00317546
-2.32136e-09
-0.00251961
0.00235552
-4.83361e-11
-0.00218573
0.00213308
2.12194e-10
-0.00168242
0.0019565
2.84411e-10
-0.00132558
0.00175686
2.54512e-10
-0.0010327
0.00173137
-6.00785e-12
-0.000778372
0.00176271
-8.66222e-11
-0.000574794
0.00178659
-1.05433e-10
-0.000431239
0.00178139
-2.02868e-10
-0.000335653
0.00180079
-2.31069e-10
-0.000262878
0.00182306
-1.51842e-10
-0.000193561
0.00182793
-6.49695e-11
-0.000101634
0.00189228
-2.9484e-11
0.00199034
-2.00097e-11
0.00202865
-1.26226e-09
3.26771e-13
0.00202861
-2.15184e-08
9.88077e-14
0.00202834
4.74716e-08
4.13756e-13
0.0020279
1.12228e-07
4.442e-13
0.0020249
2.56571e-07
5.25945e-13
0.00201337
7.05453e-07
8.16378e-13
0.00197759
2.11825e-06
2.2688e-12
0.00187818
7.19446e-06
7.70703e-12
0.00165867
3.03987e-05
3.34545e-11
0.000820611
0.000199115
1.98503e-10
-0.00344899
0.00250436
9.0255e-10
-0.00287802
0.00403486
-1.33631e-09
-0.00246619
0.00278735
-4.35903e-10
-0.00213416
0.00249515
-7.28222e-12
-0.00163604
0.00231719
5.06546e-11
-0.00124703
0.00205966
1.0198e-10
-0.000941881
0.00202033
5.22401e-11
-0.000681363
0.00204279
7.14984e-11
-0.00046963
0.00208571
-1.56313e-11
-0.000322345
0.00208086
-1.69073e-10
-0.0002334
0.00209869
-1.96641e-10
-0.000175699
0.00213453
-1.21588e-10
-0.000124808
0.00213519
-3.80993e-11
-5.35304e-05
0.0022105
-3.36682e-12
0.00236344
5.08634e-12
0.00202873
-1.60666e-10
-1.77016e-13
0.00202844
-1.41474e-08
-4.10045e-14
0.00202862
3.96488e-08
-2.67771e-13
0.00202866
9.24687e-08
-3.05382e-13
0.00202672
2.20158e-07
-4.67087e-13
0.00201741
6.23177e-07
-9.51008e-13
0.00198762
1.8884e-06
-2.22203e-12
0.00190031
6.32765e-06
-6.43117e-12
0.00170866
2.56979e-05
-2.33727e-11
0.0010876
0.000160744
-1.17741e-10
-0.00253168
0.00191641
-7.9715e-10
-0.00283466
0.0049655
5.13158e-10
-0.00240987
0.00325063
-4.08827e-10
-0.00206957
0.00286209
-1.91791e-10
-0.00158726
0.00267818
-1.36011e-10
-0.00116057
0.00238135
4.82916e-11
-0.000838889
0.0023059
7.15838e-11
-0.000570843
0.00231651
1.38864e-10
-0.000346982
0.00237999
1.14012e-11
-0.000191758
0.00238149
-1.32172e-10
-0.000105323
0.00238999
-9.86257e-11
-5.84325e-05
0.00244329
-4.93429e-11
-3.58956e-05
0.0024416
-1.84227e-12
1.64596e-05
0.00252043
3.00769e-11
0.00277667
2.2272e-11
0.0020288
7.09131e-10
1.60507e-13
0.00202828
-8.16245e-09
-8.31138e-14
0.00202891
3.17892e-08
4.34535e-13
0.00202943
7.17808e-08
4.16007e-13
0.00202834
1.80303e-07
3.06812e-13
0.00202108
5.24015e-07
-8.08162e-14
0.00199759
1.61113e-06
-1.51634e-12
0.00192755
5.28051e-06
-5.69022e-12
0.00175697
2.0414e-05
-2.19395e-11
0.00125573
0.000116827
-1.08607e-10
-0.00141103
0.00121577
-4.92054e-10
-0.00282925
0.00589002
1.35462e-09
-0.00236305
0.00378851
-1.52879e-10
-0.00199384
0.0032463
-1.65848e-10
-0.00153886
0.00302732
4.90858e-11
-0.00107048
0.00273687
1.49715e-10
-0.000727277
0.00258321
7.985e-11
-0.000447855
0.0025851
1.37428e-10
-0.000206815
0.00266687
-5.14611e-12
-3.98415e-05
0.00268664
-6.78556e-11
4.35775e-05
0.00268584
-7.51771e-11
9.56073e-05
0.0027291
-3.34441e-11
0.000101844
0.00276213
2.00857e-11
0.000105939
0.00282072
4.55112e-11
0.00325322
5.8385e-11
0.00202886
-3.27614e-13
8.79695e-10
0.00202813
-2.18375e-13
-4.3419e-09
0.0020292
-2.03391e-13
2.09786e-08
0.00203019
-2.26544e-13
4.92119e-08
0.00202969
-3.12251e-13
1.37759e-07
0.0020244
-6.06312e-13
4.16447e-07
0.00200609
-1.56168e-12
1.32243e-06
0.00195217
-4.68152e-12
4.28823e-06
0.00181175
-1.58673e-11
1.58028e-05
0.00146724
-7.92291e-11
7.96099e-05
-0.000313151
-4.2375e-10
0.000677683
-0.00295169
1.31707e-09
0.00626868
-0.00230959
3.05644e-10
0.0045933
-0.00191419
1.47784e-10
0.00365115
-0.00148281
3.1489e-10
0.00337836
-0.00097882
1.60038e-10
0.00310884
-0.000610595
1.03327e-10
0.00284752
-0.000311301
5.68579e-11
0.002844
-5.13375e-05
4.30153e-12
0.00294824
0.000142834
-5.85361e-11
0.00298793
0.000254388
-7.47206e-11
0.00296007
0.000287683
-1.47787e-11
0.00298375
0.000296297
3.25409e-11
0.00304471
0.000277087
5.47684e-11
0.003115
5.26445e-11
0.00385638
0.00202825
-9.46651e-11
7.97063e-14
0.00202929
-6.4975e-09
-5.58946e-14
0.00202719
1.48649e-08
4.02034e-13
0.00202457
3.47426e-08
4.00099e-13
0.00201784
7.51096e-08
3.8559e-13
0.00199705
1.94675e-07
1.57293e-13
0.00193603
5.92145e-07
-1.0319e-12
0.0017809
2.22608e-06
-7.04601e-12
0.00132756
1.23072e-05
-5.36691e-11
-0.00126595
0.000124733
-3.37816e-10
-0.00365658
0.000655215
-2.47642e-10
-0.00307612
0.0004393
1.51294e-10
-0.00268618
0.000384601
9.32601e-11
-0.0023101
0.000356295
3.24418e-11
-0.00184116
0.00031304
3.26797e-11
-0.00154102
0.000293118
1.40403e-11
-0.00128192
0.000287911
-3.41715e-12
-0.00103842
0.000295709
-2.42144e-11
-0.000839311
0.000296199
-4.31242e-11
-0.00068613
0.000294916
-8.28745e-11
-0.000561919
0.000298411
-1.0214e-10
-0.000449825
0.000300631
-9.45224e-11
-0.000332664
0.000301692
-6.79241e-11
-0.000184437
0.000313386
-2.1048e-11
0.0003217
-2.75526e-12
0.00202827
-1.15834e-10
1.94662e-13
0.00202926
-1.25756e-08
-3.4821e-14
0.00202724
2.92765e-08
4.72331e-13
0.00202475
6.93697e-08
4.48883e-13
0.00201822
1.50853e-07
4.23594e-13
0.00199791
3.96727e-07
2.49314e-13
0.00193829
1.21141e-06
-7.29053e-13
0.00178698
4.514e-06
-5.39822e-12
0.00134528
2.4369e-05
-3.76869e-11
-0.00144482
0.000244624
-1.54952e-10
-0.00370813
0.00128075
-3.6172e-10
-0.00306146
0.000877828
1.58862e-10
-0.00267527
0.000767449
2.8885e-11
-0.00230231
0.000710987
-4.08581e-11
-0.00182677
0.000627789
-1.42868e-11
-0.00152331
0.000585876
-1.44377e-11
-0.0012617
0.000576428
-1.39317e-13
-0.00101875
0.000591659
-2.5479e-11
-0.000820341
0.000592632
-4.45271e-11
-0.000669644
0.000591234
-8.08057e-11
-0.000548438
0.000598163
-1.00405e-10
-0.00043978
0.000602795
-9.57165e-11
-0.000327144
0.000605678
-6.68249e-11
-0.000180747
0.000626248
-2.32776e-11
0.000645553
-5.05556e-12
0.00202832
-2.26391e-10
5.58689e-14
0.00202918
-1.86514e-08
-2.64272e-14
0.00202737
4.04742e-08
3.16857e-13
0.00202513
9.67218e-08
3.36916e-13
0.00201903
2.11011e-07
2.40498e-13
0.0019998
5.57916e-07
-1.49621e-13
0.00194335
1.69605e-06
-1.55886e-12
0.00179953
6.22512e-06
-7.07146e-12
0.00140586
3.22129e-05
-4.08675e-11
-0.000987386
0.000295008
-2.78089e-10
-0.00382938
0.00190236
-1.89123e-10
-0.00304298
0.00134764
1.69481e-10
-0.00264857
0.00115124
-7.22823e-11
-0.00228342
0.0010657
-1.01713e-10
-0.00180114
0.000946665
-4.9669e-11
-0.00149316
0.000877174
-2.99261e-11
-0.00122641
0.000864666
1.25149e-11
-0.00098293
0.000887394
-2.21526e-11
-0.000785987
0.000889536
-5.43694e-11
-0.0006381
0.000887764
-8.14687e-11
-0.000521839
0.000898247
-9.98488e-11
-0.000418575
0.000906724
-9.90889e-11
-0.000312483
0.000911462
-7.21269e-11
-0.000172668
0.000939844
-2.93594e-11
0.000971966
-1.11941e-11
0.00202839
-5.57659e-10
2.28806e-13
0.00202907
-2.25764e-08
5.64097e-14
0.00202757
4.7802e-08
3.59893e-13
0.00202568
1.14539e-07
3.86447e-13
0.00202015
2.52531e-07
2.40244e-13
0.00200251
6.70974e-07
-2.47467e-13
0.00195038
2.0285e-06
-2.41881e-12
0.00181538
7.30227e-06
-1.0294e-11
0.00147409
3.61261e-05
-5.433e-11
-0.000424597
0.000300297
-3.38933e-10
-0.00395371
0.00239483
1.63788e-11
-0.00299987
0.00187135
3.20687e-10
-0.00260939
0.00154249
-1.21151e-10
-0.00225562
0.00142192
-3.39259e-11
-0.00176509
0.00127308
-3.81733e-11
-0.00144873
0.00116808
1.86947e-11
-0.00117509
0.00115332
4.16262e-11
-0.00092958
0.00118203
-1.96421e-11
-0.000732849
0.00118729
-6.5188e-11
-0.00058798
0.00118458
-8.97899e-11
-0.000478341
0.00119973
-1.04435e-10
-0.000382055
0.00121216
-1.14122e-10
-0.000284938
0.00121772
-8.50397e-11
-0.000157312
0.00125556
-3.52892e-11
0.00130451
-2.24342e-11
0.00202847
-1.52013e-09
2.66097e-14
0.00202894
-2.35609e-08
-7.09318e-14
0.0020278
5.16944e-08
2.79374e-13
0.00202636
1.24372e-07
2.38339e-13
0.00202155
2.77383e-07
-4.3721e-14
0.00200581
7.3721e-07
-9.99886e-13
0.00195885
2.20507e-06
-4.44569e-12
0.0018342
7.75081e-06
-1.76317e-11
0.0015381
3.65707e-05
-8.93424e-11
-6.85195e-05
0.000279056
-6.17904e-10
-0.00388051
0.00272954
6.4693e-10
-0.00295548
0.00246569
8.48564e-10
-0.00256743
0.00194276
-2.99874e-10
-0.00222517
0.00177706
-5.97988e-12
-0.00172607
0.00161016
-6.76294e-11
-0.00139288
0.00146134
-2.38735e-11
-0.00111005
0.00144248
2.84771e-11
-0.0008609
0.00147481
-7.05168e-12
-0.000662165
0.0014866
-1.23097e-10
-0.000519172
0.00148226
-1.24365e-10
-0.00041631
0.00150073
-1.50953e-10
-0.000330613
0.00151745
-1.69745e-10
-0.00024592
0.00152319
-1.43119e-10
-0.00013407
0.00157387
-4.32661e-11
0.00164249
-3.07699e-11
0.00202856
-1.57899e-09
3.78549e-13
0.00202877
-2.43816e-08
-5.47097e-13
0.00202807
5.1701e-08
1.35493e-12
0.00202714
1.23703e-07
1.52811e-12
0.00202311
2.78266e-07
1.7003e-12
0.0020094
7.48441e-07
1.50352e-12
0.00196811
2.23679e-06
1.6881e-12
0.00185659
7.70101e-06
2.86373e-12
0.00159552
3.43567e-05
-1.54061e-12
0.000294584
0.000242972
-5.52015e-11
-0.0037467
0.00279867
-3.73423e-10
-0.00291815
0.00317473
2.15609e-10
-0.00251869
0.00235602
1.93165e-10
-0.00218507
0.0021342
1.3948e-10
-0.00168184
0.00195805
1.36012e-10
-0.00132505
0.00175823
7.77434e-12
-0.00103226
0.00173242
-2.86728e-12
-0.000778095
0.00176342
-6.91746e-11
-0.000574591
0.00178711
-1.7071e-10
-0.000431049
0.00178177
-1.91972e-10
-0.000335496
0.00180109
-1.92706e-10
-0.000262782
0.00182328
-1.93337e-10
-0.000193517
0.00182809
-1.75294e-10
-0.000101615
0.00189239
-8.16507e-11
0.00199043
-4.20157e-11
0.00202865
-1.4914e-09
-7.2837e-14
0.00202861
-2.16885e-08
-4.94807e-13
0.00202834
4.6795e-08
1.01665e-12
0.0020279
1.11322e-07
1.18423e-12
0.00202491
2.55376e-07
1.66239e-12
0.00201337
7.03573e-07
2.97705e-12
0.0019776
2.11461e-06
6.32014e-12
0.0018782
7.18514e-06
1.6969e-11
0.00165869
3.03647e-05
6.00521e-11
0.000820414
0.000198895
2.86298e-10
-0.00345181
0.00250233
1.24573e-09
-0.00287959
0.00403325
-8.63013e-10
-0.0024672
0.00278705
3.77999e-10
-0.00213468
0.0024956
3.07084e-10
-0.00163618
0.00231784
3.01182e-10
-0.00124709
0.00206073
9.94e-11
-0.000941851
0.00202119
-9.14994e-12
-0.000681316
0.00204348
-1.52887e-10
-0.00046953
0.00208622
-2.0498e-10
-0.000322201
0.00208126
-2.21211e-10
-0.000233277
0.00209901
-2.33175e-10
-0.000175627
0.00213475
-2.16867e-10
-0.000124782
0.00213534
-2.01101e-10
-5.35209e-05
0.0022106
-1.0619e-10
0.00236352
-8.28255e-11
0.00202873
-1.75853e-10
3.85245e-13
0.00202844
-1.41843e-08
-1.88951e-13
0.00202861
4.02081e-08
1.39172e-12
0.00202865
9.32185e-08
1.53235e-12
0.00202671
2.21018e-07
1.9758e-12
0.0020174
6.24197e-07
3.24558e-12
0.0019876
1.88965e-06
6.34554e-12
0.00190028
6.32958e-06
1.69733e-11
0.00170862
2.57019e-05
5.98297e-11
0.0010874
0.000160759
2.98044e-10
-0.00253319
0.00191662
1.84773e-09
-0.00283655
0.00496307
-1.94438e-09
-0.00241149
0.00324978
2.82701e-10
-0.00207063
0.00286224
4.43586e-10
-0.00158766
0.00267846
4.5498e-10
-0.00116098
0.00238178
1.66015e-10
-0.000839133
0.00230647
-6.8989e-12
-0.000570975
0.00231707
-1.32997e-10
-0.000346981
0.00238044
-2.093e-10
-0.00019167
0.00238186
-2.34603e-10
-0.000105241
0.00239029
-2.71883e-10
-5.83878e-05
0.00244349
-2.35565e-10
-3.58867e-05
0.00244173
-2.33744e-10
1.64589e-05
0.00252052
-1.29344e-10
0.00277673
-1.09308e-10
0.0020288
5.09036e-10
3.68696e-14
0.00202828
-8.31387e-09
-2.05847e-13
0.00202891
3.11896e-08
7.4847e-13
0.00202943
7.11446e-08
8.52025e-13
0.00202834
1.79743e-07
1.12318e-12
0.00202108
5.23521e-07
1.8383e-12
0.00199759
1.6109e-06
3.59306e-12
0.00192755
5.2812e-06
9.17731e-12
0.00175698
2.04191e-05
2.99024e-11
0.00125575
0.000116858
1.42522e-10
-0.00141124
0.00121598
7.29696e-10
-0.00283063
0.00588745
-1.46653e-09
-0.00236458
0.0037876
2.03288e-10
-0.0019948
0.00324603
3.912e-10
-0.00153946
0.00302717
1.97055e-10
-0.00107102
0.00273683
1.83208e-11
-0.00072763
0.00258345
-6.28822e-12
-0.000448069
0.00258554
-1.18495e-10
-0.000206869
0.00266725
-1.68001e-10
-3.9809e-05
0.00268696
-2.27274e-10
4.36251e-05
0.0026861
-2.96382e-10
9.56219e-05
0.00272926
-2.52286e-10
0.000101833
0.00276223
-2.37552e-10
0.000105927
0.00282078
-1.75752e-10
0.00325325
-1.26631e-10
0.00202886
4.21583e-13
9.32893e-10
0.00202813
-2.83867e-14
-4.34885e-09
0.0020292
1.26763e-12
2.12499e-08
0.00203019
1.32806e-12
4.95934e-08
0.00202968
1.55341e-12
1.38402e-07
0.00202439
1.93689e-12
4.17423e-07
0.00200607
2.83236e-12
1.32395e-06
0.00195215
5.52181e-12
4.29102e-06
0.00181172
1.45244e-11
1.58091e-05
0.00146722
6.08784e-11
7.96335e-05
-0.000313323
3.0034e-10
0.000677833
-0.00295225
-7.06236e-10
0.00626675
-0.00231024
7.98726e-11
0.00459205
-0.0019146
1.02478e-10
0.00365083
-0.001483
-1.28143e-11
0.00337841
-0.000979075
-4.41273e-12
0.00310897
-0.000610907
3.39717e-11
0.00284769
-0.000311498
-6.71968e-11
0.00284438
-5.14162e-05
-1.16196e-10
0.00294857
0.000142827
-1.85722e-10
0.0029882
0.000254403
-2.97103e-10
0.00296026
0.000287675
-3.19151e-10
0.00298386
0.00029627
-2.67236e-10
0.00304476
0.000277058
-1.92229e-10
0.00311503
-1.36079e-10
0.00385636
0.00202825
-8.80287e-11
1.55202e-14
0.00202929
-6.47888e-09
-7.40562e-14
0.00202719
1.49302e-08
3.29929e-13
0.00202457
3.48255e-08
3.50555e-13
0.00201784
7.5215e-08
4.00412e-13
0.00199705
1.94809e-07
4.70742e-13
0.00193602
5.9235e-07
6.52553e-13
0.00178088
2.22668e-06
1.38866e-12
0.00132749
1.23122e-05
4.37751e-12
-0.00126582
0.000124799
1.73545e-11
-0.00365629
0.0006552
1.65135e-11
-0.00307591
0.000439193
6.34201e-11
-0.0026861
0.000384642
9.35783e-11
-0.00231012
0.000356349
8.53281e-11
-0.00184124
0.000313059
9.96865e-11
-0.00154112
0.000293112
8.17423e-11
-0.00128199
0.000287879
-5.99394e-13
-0.00103844
0.000295669
-7.28975e-11
-0.000839284
0.000296167
-1.20649e-10
-0.000686052
0.000294892
-1.57046e-10
-0.000561816
0.000298389
-1.73009e-10
-0.000449729
0.000300611
-1.70449e-10
-0.000332599
0.000301676
-1.65847e-10
-0.000184403
0.000313374
-1.71595e-10
0.000321688
-1.5552e-10
0.00202827
-1.17616e-10
1.54018e-14
0.00202926
-1.25872e-08
-6.87813e-14
0.00202724
2.91788e-08
3.18371e-13
0.00202474
6.92658e-08
3.39112e-13
0.00201822
1.50733e-07
3.87754e-13
0.00199791
3.96493e-07
4.51447e-13
0.00193829
1.21078e-06
5.55188e-13
0.00178697
4.51198e-06
9.28745e-13
0.00134526
2.43609e-05
1.04752e-12
-0.00144432
0.00024455
1.49005e-11
-0.00370739
0.00128063
5.1336e-11
-0.00306115
0.000877935
6.40496e-11
-0.00267518
0.000767586
9.60565e-11
-0.00230236
0.000711141
7.96538e-11
-0.00182685
0.000627849
9.01983e-11
-0.0015234
0.000585847
7.93858e-11
-0.00126178
0.000576355
2.59379e-12
-0.00101878
0.000591575
-6.07589e-11
-0.00082031
0.00059256
-1.09038e-10
-0.000669564
0.000591184
-1.47806e-10
-0.000548333
0.00059812
-1.67192e-10
-0.000439681
0.000602758
-1.62132e-10
-0.000327077
0.000605647
-1.59072e-10
-0.000180711
0.000626224
-1.66014e-10
0.00064553
-1.54013e-10
0.00202832
-1.97492e-10
6.18799e-14
0.00202918
-1.85633e-08
-5.80099e-14
0.00202737
4.06211e-08
3.19835e-13
0.00202513
9.69212e-08
3.78678e-13
0.00201903
2.112e-07
4.3465e-13
0.0019998
5.58001e-07
5.24337e-13
0.00194334
1.69564e-06
8.18511e-13
0.00179952
6.22279e-06
1.98725e-12
0.00140582
3.2201e-05
7.45457e-12
-0.000987728
0.000294918
4.25696e-11
-0.00382886
0.00190203
9.37888e-11
-0.00304295
0.00134791
6.16749e-11
-0.0026487
0.00115147
7.4583e-11
-0.00228357
0.00106589
7.09591e-11
-0.00180131
0.000946709
7.89074e-11
-0.0014933
0.000877104
7.30503e-11
-0.00122651
0.000864532
1.31263e-11
-0.000982957
0.000887248
-3.60435e-11
-0.000785948
0.000889418
-7.9647e-11
-0.000638017
0.000887682
-1.18401e-10
-0.000521733
0.000898183
-1.37706e-10
-0.000418472
0.000906673
-1.43422e-10
-0.000312412
0.000911418
-1.48997e-10
-0.00017263
0.000939812
-1.56218e-10
0.000971933
-1.56368e-10
0.00202839
-5.43281e-10
3.10157e-14
0.00202907
-2.26251e-08
-5.23622e-14
0.00202757
4.76614e-08