/*--------------------------------*- C++ -*----------------------------------*\
| =========                 |                                                 |
| \\      /  F ield         | OpenFOAM: The Open Source CFD Toolbox           |
|  \\    /   O peration     | Version:  4.1                                   |
|   \\  /    A nd           | Web:      www.OpenFOAM.org                      |
|    \\/     M anipulation  |                                                 |
\*---------------------------------------------------------------------------*/
FoamFile
{
    version     2.0;
    format      ascii;
    class       volScalarField;
    location    "0.42";
    object      T;
}
// * * * * * * * * * * * * * * * * * * * * * * * * * * * * * * * * * * * * * //

dimensions      [0 0 0 1 0 0 0];

internalField   nonuniform List<scalar> 
52500
(
0.335967
0.316555
0.316915
0.31759
0.319178
0.323495
0.336581
0.385996
0.631188
1.37233
1.8058
1.42355
1.32134
1.31742
1.40701
1.45615
1.44197
1.38139
1.35721
1.34221
1.31095
1.27636
1.24354
1.20238
1.13927
0.33597
0.316558
0.316901
0.317569
0.319127
0.323348
0.336095
0.38383
0.619882
1.35905
1.81088
1.42754
1.32156
1.3154
1.40283
1.45574
1.44344
1.38257
1.35736
1.34254
1.31113
1.27654
1.2435
1.20225
1.13766
0.335976
0.316564
0.316876
0.31752
0.319018
0.323036
0.335067
0.379305
0.595298
1.29079
1.82407
1.43793
1.32079
1.31144
1.39386
1.45401
1.44484
1.38453
1.3577
1.3433
1.31195
1.27742
1.24422
1.20259
1.13647
0.335985
0.316572
0.316845
0.317453
0.31886
0.322591
0.333632
0.373213
0.563547
1.2025
1.83348
1.45638
1.32055
1.30585
1.38196
1.45048
1.44553
1.38709
1.35761
1.34376
1.31245
1.27785
1.2448
1.20212
1.13339
0.335995
0.316581
0.31681
0.317374
0.318668
0.322052
0.331924
0.366222
0.527743
1.111
1.82995
1.48665
1.31926
1.29636
1.36203
1.44367
1.44469
1.39021
1.35691
1.34375
1.31324
1.27845
1.24465
1.19962
1.12749
0.336007
0.316592
0.316771
0.317283
0.318457
0.321469
0.330084
0.358961
0.490531
1.01712
1.80587
1.52946
1.31925
1.28687
1.33951
1.43459
1.44243
1.39367
1.35485
1.34236
1.31301
1.27843
1.24398
1.19633
1.12355
0.336019
0.316603
0.316732
0.317191
0.318239
0.320868
0.328215
0.35198
0.45544
0.908045
1.74905
1.58538
1.32156
1.27695
1.31286
1.42022
1.43848
1.39863
1.35165
1.33969
1.31171
1.27539
1.24061
1.19332
1.11216
0.336031
0.316612
0.316696
0.317103
0.318026
0.320286
0.326419
0.345494
0.424576
0.799324
1.63427
1.65241
1.32852
1.26642
1.28659
1.40036
1.43247
1.40552
1.34818
1.33487
1.30991
1.27298
1.23749
1.18549
1.10272
0.336037
0.316618
0.316663
0.317021
0.317827
0.319761
0.324796
0.339681
0.397164
0.683685
1.45036
1.72023
1.34517
1.25566
1.26049
1.37003
1.42364
1.40974
1.34593
1.32866
1.30838
1.26923
1.23297
1.18196
1.07395
0.336039
0.31662
0.316634
0.31695
0.317653
0.319304
0.32341
0.334923
0.37571
0.571732
1.21013
1.77881
1.38533
1.24658
1.23765
1.3285
1.4126
1.41045
1.34553
1.321
1.30291
1.26931
1.22211
1.17202
1.0472
0.335968
0.316556
0.316917
0.317592
0.319181
0.323502
0.336601
0.386087
0.631685
1.37328
1.80582
1.42353
1.32139
1.31748
1.40704
1.45614
1.44196
1.38136
1.35718
1.34217
1.3109
1.2763
1.24348
1.20232
1.13928
0.335971
0.316559
0.316902
0.31757
0.319129
0.323353
0.336111
0.383897
0.620215
1.35964
1.81109
1.42778
1.32161
1.31534
1.40267
1.45575
1.44345
1.38254
1.35733
1.34251
1.31109
1.27649
1.24344
1.2022
1.13766
0.335977
0.316565
0.316878
0.317522
0.319022
0.323044
0.335092
0.3794
0.595787
1.29229
1.8236
1.43761
1.32095
1.3118
1.39441
1.45405
1.44477
1.38448
1.35768
1.34327
1.31191
1.27738
1.24417
1.20255
1.13646
0.335985
0.316572
0.316846
0.317454
0.318863
0.322596
0.333649
0.37328
0.563882
1.2032
1.83322
1.45618
1.32053
1.30586
1.38203
1.45049
1.44548
1.38705
1.35759
1.34374
1.31241
1.2778
1.24474
1.20208
1.1334
0.335996
0.316582
0.316811
0.317375
0.318671
0.322059
0.331942
0.366287
0.528054
1.11177
1.82982
1.48611
1.31953
1.29686
1.36257
1.44375
1.44464
1.39016
1.35691
1.34374
1.31321
1.27839
1.24457
1.19958
1.12757
0.336008
0.316593
0.316771
0.317284
0.318458
0.321472
0.330093
0.359
0.490729
1.01763
1.80594
1.52912
1.31963
1.28748
1.34025
1.4349
1.44248
1.39352
1.35485
1.34236
1.31297
1.27835
1.24389
1.19629
1.12364
0.336021
0.316604
0.316733
0.317191
0.318239
0.320868
0.328217
0.351993
0.455506
0.908274
1.74904
1.58525
1.32168
1.27694
1.31272
1.42017
1.43845
1.39861
1.35166
1.33972
1.31169
1.27531
1.24052
1.19328
1.11228
0.336032
0.316613
0.316695
0.317103
0.318025
0.320284
0.326416
0.345492
0.42458
0.799373
1.63424
1.65239
1.32838
1.26608
1.28608
1.39995
1.43234
1.40559
1.34819
1.33486
1.30988
1.27288
1.23739
1.18544
1.10285
0.336038
0.316618
0.316662
0.317021
0.317826
0.319759
0.324793
0.339677
0.397156
0.683693
1.45045
1.72034
1.34505
1.2554
1.26019
1.36984
1.42364
1.40978
1.34594
1.3287
1.30836
1.26918
1.23289
1.18191
1.07409
0.33604
0.316621
0.316633
0.316949
0.317651
0.319301
0.323405
0.334915
0.375696
0.571706
1.21019
1.77908
1.38542
1.24641
1.23738
1.32818
1.41255
1.41049
1.34554
1.321
1.30292
1.26928
1.22205
1.17196
1.04733
0.335968
0.316556
0.316916
0.317591
0.31918
0.3235
0.336595
0.386058
0.631515
1.37289
1.80564
1.42349
1.32146
1.31758
1.40715
1.45616
1.44192
1.38135
1.35718
1.34218
1.31091
1.27631
1.24349
1.20233
1.13929
0.335971
0.316559
0.316901
0.31757
0.319128
0.323352
0.336106
0.383877
0.620131
1.35958
1.8108
1.42757
1.32164
1.31549
1.4029
1.45575
1.44341
1.38254
1.35734
1.34252
1.31111
1.2765
1.24346
1.20221
1.13767
0.335977
0.316565
0.316877
0.317521
0.319019
0.323039
0.335076
0.379342
0.595493
1.29131
1.82398
1.43788
1.3208
1.31147
1.39396
1.45403
1.44481
1.3845
1.35769
1.34329
1.31193
1.27739
1.24418
1.20256
1.13647
0.335986
0.316573
0.316846
0.317454
0.318861
0.322593
0.333639
0.373241
0.56369
1.20282
1.83346
1.45634
1.32052
1.30582
1.38197
1.45048
1.44552
1.38707
1.3576
1.34375
1.31243
1.27781
1.24475
1.20209
1.13341
0.335996
0.316582
0.31681
0.317374
0.318669
0.322053
0.331929
0.366244
0.527855
1.11129
1.82997
1.48655
1.31919
1.29624
1.36181
1.44362
1.44468
1.39023
1.35691
1.34375
1.31322
1.2784
1.24457
1.19958
1.12757
0.336008
0.316593
0.316771
0.317284
0.318458
0.32147
0.330088
0.35898
0.490631
1.01739
1.80598
1.52926
1.31932
1.28706
1.33984
1.43478
1.44249
1.39361
1.35486
1.34236
1.31298
1.27836
1.2439
1.1963
1.12364
0.33602
0.316603
0.316732
0.317191
0.318239
0.320867
0.328215
0.351988
0.455486
0.908216
1.74915
1.58532
1.32165
1.27702
1.31291
1.42027
1.43849
1.39862
1.35167
1.33972
1.3117
1.27532
1.24052
1.19329
1.11228
0.336032
0.316613
0.316696
0.317103
0.318026
0.320285
0.326418
0.345497
0.424598
0.799431
1.6344
1.65235
1.32851
1.26635
1.2865
1.40028
1.43243
1.40555
1.34818
1.33487
1.30989
1.27289
1.23739
1.18544
1.10284
0.336038
0.316618
0.316662
0.317021
0.317825
0.319759
0.324793
0.339679
0.397168
0.68374
1.45047
1.72023
1.34514
1.25562
1.26047
1.37007
1.42364
1.40975
1.34594
1.32871
1.30837
1.26919
1.23289
1.18191
1.07408
0.33604
0.316621
0.316634
0.31695
0.317652
0.319302
0.323406
0.334919
0.375708
0.571752
1.21023
1.77891
1.38539
1.2465
1.23753
1.32846
1.41267
1.41046
1.34552
1.321
1.30293
1.26929
1.22204
1.17195
1.04733
0.335968
0.316556
0.316916
0.317591
0.31918
0.3235
0.336595
0.386063
0.631546
1.37295
1.80565
1.42349
1.32145
1.31757
1.40716
1.45617
1.44192
1.38135
1.35719
1.34219
1.31093
1.27632
1.2435
1.20233
1.13929
0.335971
0.316559
0.316901
0.317569
0.319128
0.323351
0.336106
0.38388
0.620152
1.3596
1.81082
1.42758
1.32164
1.31549
1.4029
1.45576
1.44341
1.38254
1.35734
1.34253
1.31112
1.27651
1.24347
1.20222
1.13767
0.335977
0.316565
0.316876
0.317521
0.319019
0.323039
0.335077
0.379347
0.595516
1.29136
1.82397
1.4379
1.32084
1.31151
1.394
1.45404
1.44481
1.3845
1.35769
1.34329
1.31194
1.2774
1.24419
1.20256
1.13647
0.335985
0.316572
0.316845
0.317453
0.318861
0.322593
0.333639
0.373246
0.563722
1.20288
1.83339
1.45626
1.32046
1.30574
1.38189
1.45047
1.44552
1.38709
1.3576
1.34376
1.31244
1.27782
1.24476
1.20209
1.13341
0.335996
0.316582
0.31681
0.317374
0.318669
0.322054
0.331931
0.366256
0.527915
1.11146
1.82995
1.48638
1.31937
1.29657
1.36221
1.44371
1.44469
1.3902
1.35692
1.34376
1.31324
1.27841
1.24459
1.19959
1.12757
0.336008
0.316593
0.316771
0.317283
0.318457
0.321469
0.330086
0.358978
0.490629
1.0174
1.80598
1.52937
1.31944
1.28716
1.33992
1.43485
1.44251
1.39359
1.35486
1.34238
1.313
1.27838
1.24391
1.1963
1.12365
0.336021
0.316604
0.316732
0.317191
0.318238
0.320866
0.328212
0.35198
0.455455
0.908132
1.74905
1.58545
1.32155
1.27674
1.31252
1.42012
1.43847
1.39865
1.35167
1.33973
1.31171
1.27534
1.24053
1.19329
1.11229
0.336032
0.316613
0.316695
0.317103
0.318025
0.320283
0.326414
0.345487
0.424565
0.799327
1.63429
1.65254
1.3284
1.2661
1.28607
1.4
1.43239
1.40561
1.3482
1.33488
1.30991
1.2729
1.23741
1.18545
1.10285
0.336038
0.316618
0.316662
0.317021
0.317825
0.319758
0.324791
0.339675
0.397153
0.683688
1.45047
1.72042
1.34512
1.25548
1.26029
1.37
1.42369
1.4098
1.34595
1.32872
1.30839
1.2692
1.23291
1.18192
1.07409
0.33604
0.316621
0.316633
0.316949
0.317651
0.3193
0.323404
0.334915
0.375698
0.571722
1.21021
1.77905
1.38541
1.24647
1.23748
1.32835
1.41262
1.4105
1.34554
1.32101
1.30294
1.26931
1.22207
1.17197
1.04734
0.335968
0.316556
0.316916
0.31759
0.31918
0.323499
0.336595
0.386062
0.631544
1.37295
1.80567
1.42351
1.32145
1.31756
1.40712
1.45614
1.44192
1.38136
1.35719
1.3422
1.31093
1.27633
1.24351
1.20235
1.1393
0.335971
0.316559
0.316901
0.317569
0.319128
0.323351
0.336105
0.38388
0.620152
1.3596
1.81084
1.4276
1.32165
1.31549
1.40286
1.45573
1.4434
1.38255
1.35734
1.34253
1.31112
1.27652
1.24347
1.20223
1.13768
0.335977
0.316564
0.316876
0.31752
0.319019
0.323038
0.335076
0.379346
0.595512
1.29136
1.82398
1.43791
1.32084
1.31151
1.39397
1.45401
1.44479
1.38451
1.35769
1.34329
1.31194
1.2774
1.24419
1.20257
1.13649
0.335985
0.316572
0.316845
0.317453
0.318861
0.322592
0.333639
0.373244
0.563713
1.20286
1.8334
1.45628
1.32046
1.30574
1.38188
1.45045
1.4455
1.38708
1.3576
1.34376
1.31244
1.27783
1.24478
1.20211
1.13342
0.335996
0.316582
0.31681
0.317374
0.318668
0.322053
0.33193
0.366252
0.527901
1.11142
1.82995
1.48641
1.31937
1.29656
1.36221
1.4437
1.44467
1.39018
1.35692
1.34377
1.31325
1.27845
1.24464
1.19961
1.12748
0.336008
0.316593
0.316771
0.317283
0.318457
0.321468
0.330085
0.358974
0.490612
1.01736
1.80597
1.52941
1.31944
1.28715
1.3399
1.43483
1.44249
1.39358
1.35487
1.34239
1.31303
1.27844
1.24399
1.19631
1.12352
0.336021
0.316604
0.316732
0.31719
0.318238
0.320865
0.328211
0.351977
0.45544
0.908081
1.74902
1.58549
1.32155
1.27674
1.31251
1.4201
1.43845
1.39864
1.35167
1.33975
1.31176
1.27544
1.24064
1.19332
1.11214
0.336032
0.316613
0.316695
0.317103
0.318025
0.320283
0.326413
0.345484
0.42455
0.79927
1.63422
1.65259
1.32841
1.2661
1.28606
1.39996
1.43235
1.40559
1.34819
1.33489
1.30995
1.273
1.23751
1.18551
1.10271
0.336038
0.316618
0.316662
0.317021
0.317825
0.319758
0.324791
0.339673
0.397143
0.683642
1.45042
1.72046
1.34514
1.25548
1.26028
1.36995
1.42367
1.40978
1.34594
1.32872
1.30841
1.26927
1.23299
1.18199
1.07399
0.33604
0.316621
0.316633
0.316949
0.317651
0.3193
0.323403
0.334913
0.375692
0.571688
1.21014
1.77909
1.38545
1.24647
1.23747
1.32829
1.41256
1.41048
1.34553
1.32101
1.30295
1.26934
1.22212
1.17204
1.04725
0.335968
0.316556
0.316916
0.317591
0.31918
0.3235
0.336596
0.386065
0.63156
1.37298
1.80564
1.42349
1.32145
1.31757
1.40716
1.45617
1.44193
1.38135
1.35719
1.3422
1.31093
1.27633
1.24351
1.20234
1.1393
0.335971
0.316559
0.316901
0.317569
0.319128
0.323351
0.336106
0.383883
0.620163
1.35961
1.81082
1.42758
1.32164
1.31549
1.4029
1.45576
1.44341
1.38254
1.35734
1.34254
1.31112
1.27652
1.24347
1.20222
1.13767
0.335977
0.316564
0.316876
0.317521
0.319019
0.323039
0.335077
0.379348
0.595522
1.29138
1.82396
1.43789
1.32083
1.31151
1.394
1.45404
1.44481
1.3845
1.35769
1.3433
1.31195
1.27741
1.24419
1.20256
1.13647
0.335985
0.316572
0.316845
0.317453
0.318861
0.322593
0.333639
0.373247
0.563723
1.20288
1.83338
1.45626
1.32046
1.30574
1.38189
1.45047
1.44552
1.38709
1.3576
1.34376
1.31244
1.27783
1.24477
1.2021
1.13342
0.335996
0.316582
0.31681
0.317374
0.318669
0.322054
0.331931
0.366255
0.52791
1.11144
1.82994
1.48638
1.31936
1.29656
1.36221
1.44371
1.44469
1.3902
1.35692
1.34376
1.31324
1.27842
1.24459
1.19959
1.12758
0.336008
0.316593
0.316771
0.317283
0.318457
0.321469
0.330086
0.358976
0.49062
1.01738
1.80596
1.52938
1.31943
1.28715
1.33991
1.43485
1.4425
1.39359
1.35486
1.34238
1.313
1.27838
1.24391
1.19631
1.12365
0.336021
0.316604
0.316732
0.317191
0.318238
0.320866
0.328212
0.351978
0.455445
0.908096
1.74902
1.58547
1.32154
1.27673
1.31251
1.42012
1.43848
1.39865
1.35167
1.33973
1.31171
1.27534
1.24053
1.1933
1.11229
0.336032
0.316613
0.316695
0.317103
0.318025
0.320283
0.326414
0.345485
0.424554
0.799282
1.63423
1.65256
1.32839
1.26608
1.28605
1.4
1.43239
1.40561
1.34819
1.33488
1.30991
1.2729
1.2374
1.18545
1.10285
0.336038
0.316618
0.316662
0.317021
0.317825
0.319758
0.324791
0.339674
0.397146
0.683651
1.45042
1.72044
1.34511
1.25546
1.26027
1.36998
1.4237
1.4098
1.34595
1.32871
1.30838
1.2692
1.2329
1.18192
1.07409
0.33604
0.316621
0.316633
0.316949
0.317651
0.3193
0.323404
0.334914
0.375693
0.571694
1.21015
1.77907
1.38543
1.24646
1.23747
1.32832
1.4126
1.4105
1.34554
1.32101
1.30293
1.2693
1.22206
1.17197
1.04734
0.335968
0.316556
0.316916
0.317591
0.31918
0.3235
0.336595
0.386063
0.631546
1.37295
1.80565
1.42349
1.32145
1.31757
1.40716
1.45617
1.44192
1.38135
1.35719
1.34219
1.31093
1.27632
1.2435
1.20233
1.13929
0.335971
0.316559
0.316901
0.317569
0.319128
0.323351
0.336106
0.38388
0.620152
1.3596
1.81082
1.42758
1.32164
1.31549
1.4029
1.45576
1.44341
1.38254
1.35734
1.34253
1.31112
1.27651
1.24347
1.20222
1.13767
0.335977
0.316565
0.316876
0.317521
0.319019
0.323039
0.335077
0.379347
0.595516
1.29136
1.82397
1.4379
1.32084
1.31151
1.394
1.45404
1.44481
1.3845
1.35769
1.34329
1.31194
1.2774
1.24419
1.20256
1.13647
0.335985
0.316572
0.316845
0.317453
0.318861
0.322593
0.333639
0.373246
0.563722
1.20288
1.83339
1.45626
1.32046
1.30574
1.38189
1.45047
1.44552
1.38709
1.3576
1.34376
1.31244
1.27782
1.24476
1.20209
1.13341
0.335996
0.316582
0.31681
0.317374
0.318669
0.322054
0.331931
0.366256
0.527915
1.11146
1.82995
1.48638
1.31937
1.29657
1.36221
1.44371
1.44469
1.3902
1.35692
1.34376
1.31324
1.27842
1.24458
1.19959
1.12757
0.336008
0.316593
0.316771
0.317283
0.318457
0.321469
0.330086
0.358978
0.490629
1.0174
1.80598
1.52937
1.31944
1.28716
1.33992
1.43485
1.44251
1.39359
1.35486
1.34238
1.313
1.27838
1.24391
1.1963
1.12365
0.336021
0.316604
0.316732
0.317191
0.318238
0.320866
0.328212
0.35198
0.455455
0.908132
1.74905
1.58545
1.32155
1.27674
1.31252
1.42012
1.43847
1.39865
1.35167
1.33973
1.31171
1.27534
1.24053
1.19329
1.11229
0.336032
0.316613
0.316695
0.317103
0.318025
0.320283
0.326414
0.345487
0.424565
0.799327
1.63429
1.65254
1.3284
1.2661
1.28607
1.4
1.43239
1.40561
1.3482
1.33488
1.30991
1.2729
1.23741
1.18545
1.10285
0.336038
0.316618
0.316662
0.317021
0.317825
0.319758
0.324791
0.339675
0.397153
0.683688
1.45047
1.72042
1.34512
1.25548
1.26029
1.37
1.42369
1.4098
1.34595
1.32872
1.30839
1.2692
1.23291
1.18192
1.07409
0.33604
0.316621
0.316633
0.316949
0.317651
0.3193
0.323404
0.334915
0.375698
0.571722
1.21021
1.77905
1.38541
1.24647
1.23748
1.32835
1.41262
1.4105
1.34554
1.32101
1.30294
1.26931
1.22207
1.17197
1.04734
0.335968
0.316556
0.316916
0.317591
0.31918
0.3235
0.336595
0.386058
0.631515
1.37289
1.80564
1.42349
1.32146
1.31758
1.40715
1.45616
1.44192
1.38135
1.35718
1.34218
1.31091
1.27631
1.24349
1.20233
1.13929
0.335971
0.316559
0.316901
0.31757
0.319128
0.323352
0.336106
0.383877
0.620131
1.35958
1.8108
1.42757
1.32164
1.31549
1.4029
1.45575
1.44341
1.38254
1.35734
1.34252
1.31111
1.2765
1.24346
1.20221
1.13767
0.335977
0.316565
0.316877
0.317521
0.319019
0.323039
0.335076
0.379342
0.595493
1.29131
1.82398
1.43788
1.3208
1.31147
1.39396
1.45403
1.44481
1.3845
1.35769
1.34329
1.31193
1.27739
1.24418
1.20256
1.13647
0.335986
0.316573
0.316846
0.317454
0.318861
0.322593
0.333639
0.373241
0.56369
1.20282
1.83346
1.45634
1.32052
1.30582
1.38197
1.45048
1.44552
1.38707
1.3576
1.34375
1.31243
1.27781
1.24475
1.20209
1.13341
0.335996
0.316582
0.31681
0.317374
0.318669
0.322053
0.331929
0.366244
0.527855
1.11129
1.82997
1.48655
1.31919
1.29624
1.36181
1.44362
1.44468
1.39023
1.35691
1.34375
1.31322
1.2784
1.24457
1.19958
1.12757
0.336008
0.316593
0.316771
0.317284
0.318458
0.32147
0.330088
0.35898
0.490631
1.01739
1.80598
1.52926
1.31932
1.28706
1.33984
1.43478
1.44249
1.39361
1.35486
1.34236
1.31298
1.27836
1.2439
1.1963
1.12364
0.33602
0.316603
0.316732
0.317191
0.318239
0.320867
0.328215
0.351988
0.455486
0.908216
1.74915
1.58532
1.32165
1.27702
1.31291
1.42027
1.43849
1.39862
1.35167
1.33972
1.3117
1.27532
1.24052
1.19329
1.11228
0.336032
0.316613
0.316696
0.317103
0.318026
0.320285
0.326418
0.345497
0.424598
0.799431
1.6344
1.65235
1.32851
1.26635
1.2865
1.40028
1.43243
1.40555
1.34818
1.33487
1.30989
1.27289
1.23739
1.18544
1.10284
0.336038
0.316618
0.316662
0.317021
0.317825
0.319759
0.324793
0.339679
0.397168
0.68374
1.45047
1.72023
1.34514
1.25562
1.26047
1.37007
1.42364
1.40975
1.34594
1.32871
1.30837
1.26919
1.23289
1.18191
1.07408
0.33604
0.316621
0.316634
0.31695
0.317652
0.319302
0.323406
0.334919
0.375708
0.571752
1.21023
1.77891
1.38539
1.2465
1.23753
1.32846
1.41267
1.41046
1.34552
1.321
1.30293
1.26929
1.22204
1.17195
1.04733
0.335968
0.316556
0.316917
0.317592
0.319181
0.323502
0.336601
0.386087
0.631685
1.37328
1.80582
1.42353
1.32139
1.31748
1.40704
1.45614
1.44196
1.38136
1.35718
1.34217
1.3109
1.2763
1.24348
1.20232
1.13928
0.335971
0.316559
0.316902
0.31757
0.319129
0.323353
0.336111
0.383897
0.620215
1.35964
1.81109
1.42778
1.32161
1.31534
1.40267
1.45575
1.44345
1.38254
1.35733
1.34251
1.31109
1.27649
1.24344
1.2022
1.13766
0.335977
0.316565
0.316878
0.317522
0.319022
0.323044
0.335092
0.3794
0.595786
1.29229
1.8236
1.43761
1.32095
1.3118
1.39441
1.45405
1.44477
1.38448
1.35768
1.34327
1.31191
1.27737
1.24417
1.20255
1.13646
0.335985
0.316572
0.316846
0.317454
0.318863
0.322596
0.333649
0.37328
0.563882
1.2032
1.83322
1.45618
1.32053
1.30586
1.38203
1.45049
1.44548
1.38705
1.35759
1.34374
1.31241
1.2778
1.24474
1.20208
1.1334
0.335996
0.316582
0.316811
0.317375
0.318671
0.322059
0.331942
0.366287
0.528053
1.11177
1.82982
1.48611
1.31953
1.29686
1.36257
1.44375
1.44464
1.39016
1.35691
1.34374
1.31321
1.27839
1.24457
1.19958
1.12757
0.336008
0.316593
0.316771
0.317284
0.318458
0.321472
0.330093
0.359
0.490729
1.01763
1.80594
1.52912
1.31963
1.28748
1.34025
1.4349
1.44248
1.39352
1.35485
1.34236
1.31297
1.27835
1.24389
1.19629
1.12364
0.336021
0.316604
0.316733
0.317191
0.318239
0.320868
0.328217
0.351993
0.455506
0.908274
1.74904
1.58525
1.32168
1.27694
1.31272
1.42017
1.43845
1.39861
1.35166
1.33972
1.31169
1.27531
1.24052
1.19328
1.11228
0.336032
0.316613
0.316695
0.317103
0.318025
0.320284
0.326416
0.345492
0.42458
0.799374
1.63424
1.65239
1.32838
1.26608
1.28608
1.39995
1.43234
1.40559
1.34819
1.33486
1.30988
1.27288
1.23739
1.18544
1.10285
0.336038
0.316618
0.316662
0.317021
0.317826
0.319759
0.324793
0.339677
0.397156
0.683693
1.45045
1.72034
1.34505
1.2554
1.26019
1.36984
1.42364
1.40978
1.34594
1.3287
1.30836
1.26918
1.23289
1.18191
1.07409
0.33604
0.316621
0.316633
0.316949
0.317651
0.319301
0.323405
0.334915
0.375696
0.571706
1.21019
1.77908
1.38542
1.24641
1.23738
1.32818
1.41255
1.41049
1.34554
1.321
1.30292
1.26928
1.22205
1.17196
1.04733
0.335967
0.316555
0.316915
0.31759
0.319178
0.323495
0.336581
0.385999
0.631217
1.37244
1.80575
1.42347
1.32134
1.31746
1.40706
1.45613
1.44193
1.38135
1.3572
1.34221
1.31099
1.27642
1.24363
1.20237
1.1391
0.33597
0.316558
0.316901
0.317569
0.319127
0.323347
0.336093
0.383819
0.61981
1.3588
1.81111
1.42772
1.32165
1.31543
1.40278
1.45571
1.44342
1.38255
1.35736
1.34255
1.31116
1.2766
1.24357
1.20225
1.13752
0.335976
0.316564
0.316876
0.31752
0.319017
0.323035
0.335063
0.379286
0.595179
1.29028
1.82426
1.43808
1.32065
1.3112
1.39364
1.45396
1.44482
1.38451
1.35769
1.34329
1.31196
1.27745
1.24426
1.20258
1.13636
0.335985
0.316572
0.316846
0.317453
0.318861
0.322593
0.333637
0.373229
0.563624
1.20268
1.83328
1.45604
1.32047
1.30586
1.38195
1.45043
1.4455
1.38708
1.35759
1.34373
1.31242
1.27783
1.24479
1.20212
1.13337
0.335995
0.316581
0.31681
0.317374
0.318669
0.322054
0.331931
0.366249
0.527873
1.11135
1.8299
1.48636
1.31971
1.2971
1.36285
1.44382
1.44467
1.39011
1.35689
1.34373
1.31321
1.27842
1.24462
1.19962
1.1275
0.336007
0.316592
0.316771
0.317283
0.318457
0.32147
0.330085
0.358967
0.490562
1.01721
1.80587
1.52957
1.31956
1.28721
1.33989
1.43481
1.44249
1.39354
1.35483
1.34235
1.31298
1.2784
1.24396
1.19633
1.12356
0.336019
0.316603
0.316732
0.31719
0.318238
0.320866
0.328211
0.351971
0.455407
0.907956
1.74886
1.5856
1.32143
1.27646
1.312
1.41974
1.43833
1.39868
1.35164
1.33969
1.3117
1.27537
1.24061
1.19332
1.11217
0.336031
0.316612
0.316696
0.317103
0.318026
0.320286
0.326418
0.345491
0.424566
0.799305
1.63434
1.65252
1.32828
1.26604
1.28601
1.39993
1.43233
1.40559
1.34817
1.33485
1.30991
1.27297
1.23749
1.18549
1.10272
0.336036
0.316617
0.316662
0.317021
0.317826
0.31976
0.324795
0.339681
0.397173
0.683746
1.45054
1.72037
1.34509
1.2556
1.26044
1.37001
1.42368
1.40978
1.34592
1.32866
1.30838
1.26923
1.23298
1.18197
1.07396
0.336039
0.316621
0.316634
0.31695
0.317653
0.319304
0.32341
0.334924
0.375722
0.571814
1.21039
1.77892
1.38533
1.24667
1.23779
1.32873
1.41273
1.41049
1.3455
1.321
1.30292
1.26932
1.22212
1.17203
1.0472
0.33604
0.316622
0.31661
0.316894
0.317515
0.318911
0.322236
0.331075
0.360065
0.49033
1.01174
1.7685
1.46472
1.24339
1.21656
1.27839
1.39356
1.40789
1.35089
1.3131
1.2975
1.2645
1.21644
1.1663
0.981055
0.336043
0.316626
0.316591
0.316854
0.31741
0.318585
0.321272
0.328009
0.348666
0.434103
0.828396
1.62768
1.55917
1.2498
1.1987
1.23012
1.35338
1.39937
1.36367
1.30935
1.28976
1.26188
1.2075
1.16207
0.988847
0.336045
0.316629
0.316575
0.316828
0.317316
0.318344
0.320531
0.325667
0.340293
0.394442
0.65951
1.37141
1.65496
1.27841
1.18547
1.19415
1.29104
1.38109
1.36936
1.31103
1.27761
1.25712
1.20491
1.16615
1.02121
0.336045
0.316631
0.316568
0.316819
0.317248
0.318232
0.319964
0.323937
0.334484
0.368963
0.526073
1.09959
1.72762
1.35833
1.18134
1.16846
1.22429
1.35793
1.36896
1.31648
1.27409
1.25129
1.19648
1.16535
1.06847
0.336045
0.316631
0.316567
0.316821
0.317221
0.31819
0.319551
0.322703
0.330528
0.353344
0.444745
0.864456
1.6859
1.47077
1.18945
1.14995
1.17108
1.30725
1.36263
1.32962
1.2751
1.25154
1.18472
1.16077
1.11144
0.336045
0.316632
0.316567
0.316822
0.317216
0.318207
0.319277
0.321836
0.32791
0.343458
0.396293
0.649926
1.33765
1.57329
1.22655
1.1391
1.13741
1.23414
1.34537
1.32931
1.28156
1.25578
1.1873
1.15224
1.12891
0.336045
0.316632
0.316566
0.316821
0.317208
0.318204
0.319161
0.321281
0.326113
0.337175
0.369205
0.50751
1.02655
1.65467
1.32327
1.14017
1.11795
1.16647
1.30454
1.3224
1.29993
1.27024
1.19615
1.15376
1.13263
0.336045
0.316632
0.316566
0.31682
0.317207
0.318205
0.319139
0.320882
0.325094
0.333427
0.353671
0.427299
0.768251
1.57504
1.41697
1.16112
1.11388
1.1166
1.2316
1.30899
1.30307
1.28595
1.2144
1.15911
1.13487
0.336045
0.316632
0.316565
0.31682
0.317206
0.318205
0.31914
0.320764
0.324729
0.330895
0.344636
0.386306
0.562851
1.12929
1.50665
1.22773
1.11946
1.09331
1.16143
1.28848
1.29907
1.2914
1.25108
1.1737
1.14092
0.336045
0.316632
0.316565
0.31682
0.317206
0.318205
0.319146
0.320726
0.324659
0.329352
0.339329
0.365807
0.45449
0.797284
1.49823
1.29493
1.13837
1.094
1.11808
1.23559
1.28595
1.2877
1.27408
1.21195
1.15547
0.336045
0.316632
0.316565
0.316821
0.317206
0.318202
0.319156
0.320712
0.324732
0.32852
0.335941
0.355671
0.405809
0.579679
1.09055
1.34754
1.17653
1.10683
1.08399
1.14162
1.25728
1.27956
1.27608
1.25106
1.19011
0.336045
0.316632
0.316566
0.31682
0.317206
0.318199
0.319165
0.320701
0.324686
0.328724
0.33439
0.351307
0.383814
0.465912
0.727542
1.24559
1.18609
1.12298
1.06892
1.08515
1.18074
1.25856
1.27233
1.26532
1.22935
0.336045
0.316632
0.316565
0.31682
0.317206
0.318197
0.319171
0.320696
0.324652
0.328869
0.334108
0.34972
0.373123
0.421753
0.552403
0.851601
1.17036
1.12153
1.06746
1.04594
1.08484
1.20727
1.25841
1.2625
1.24939
0.336045
0.316632
0.316565
0.316821
0.317205
0.318197
0.319173
0.320696
0.324644
0.328889
0.334045
0.349677
0.370727
0.401159
0.480285
0.618419
0.879513
1.09368
1.06628
1.02441
1.0279
1.08918
1.21614
1.25083
1.24714
0.336045
0.316632
0.316565
0.31682
0.317206
0.318197
0.319171
0.320696
0.32465
0.328864
0.334036
0.349256
0.371469
0.396575
0.462502
0.52216
0.634805
0.875774
1.0507
1.01937
0.982658
1.00706
1.11295
1.21052
1.232
0.336045
0.316632
0.316565
0.31682
0.317206
0.318197
0.319171
0.320696
0.324651
0.328859
0.334036
0.349137
0.371715
0.396433
0.460895
0.503317
0.537346
0.632487
0.878477
1.00642
0.965973
0.952514
1.00146
1.12068
1.18809
0.336045
0.316632
0.316565
0.31682
0.317206
0.318197
0.319171
0.320695
0.32465
0.328857
0.334033
0.349133
0.371681
0.396456
0.460155
0.504058
0.513167
0.544154
0.635683
0.85685
0.953701
0.92099
0.932806
1.01144
1.11401
0.336045
0.316632
0.316566
0.31682
0.317206
0.318197
0.319171
0.320696
0.324652
0.328861
0.334037
0.349133
0.371693
0.396463
0.459738
0.505101
0.510165
0.522467
0.555869
0.633449
0.804698
0.899596
0.885941
0.924024
1.02652
0.336045
0.316632
0.316565
0.316821
0.317205
0.318197
0.319172
0.320695
0.324646
0.328857
0.334032
0.349116
0.371678
0.39642
0.459569
0.505036
0.509863
0.519941
0.538649
0.562455
0.613838
0.728494
0.841016
0.861267
0.937454
0.336045
0.316632
0.316566
0.31682
0.317207
0.318197
0.319171
0.320697
0.324654
0.328863
0.334038
0.349132
0.371694
0.396462
0.459672
0.50517
0.509987
0.519826
0.538418
0.545965
0.556369
0.585403
0.656895
0.777481
0.863146
0.336045
0.316632
0.316565
0.31682
0.317206
0.318196
0.31917
0.320695
0.32465
0.328857
0.334033
0.349134
0.371669
0.396435
0.459665
0.505126
0.509962
0.519798
0.538563
0.54458
0.544555
0.545586
0.561176
0.607664
0.720946
0.336045
0.316632
0.316566
0.31682
0.317207
0.318198
0.319171
0.320697
0.324655
0.328863
0.334039
0.349131
0.371697
0.396456
0.459629
0.505137
0.509966
0.519714
0.538527
0.544329
0.543416
0.537549
0.536177
0.544516
0.578778
0.336045
0.316632
0.316565
0.31682
0.317206
0.318196
0.31917
0.320695
0.32465
0.328856
0.334033
0.349133
0.371667
0.396431
0.45966
0.505123
0.50996
0.519797
0.53858
0.544302
0.543275
0.537243
0.531293
0.53185
0.542885
0.336045
0.316632
0.316566
0.31682
0.317207
0.318198
0.319171
0.320697
0.324655
0.328864
0.33404
0.349133
0.371696
0.39646
0.459657
0.505156
0.50998
0.519731
0.538523
0.544289
0.543269
0.537196
0.530959
0.53028
0.537113
0.336045
0.316632
0.316565
0.31682
0.317205
0.318196
0.319171
0.320695
0.324645
0.328857
0.334031
0.349113
0.371675
0.396412
0.459545
0.505045
0.509859
0.519564
0.538341
0.544113
0.543087
0.536953
0.530652
0.529705
0.535605
0.336045
0.316632
0.316566
0.31682
0.317207
0.318198
0.319171
0.320697
0.324654
0.328864
0.334039
0.349132
0.371697
0.396459
0.459658
0.505166
0.50999
0.51974
0.538524
0.544284
0.543262
0.537176
0.53095
0.529928
0.535676
0.336045
0.316632
0.316565
0.31682
0.317206
0.318196
0.31917
0.320695
0.32465
0.328856
0.334031
0.349129
0.371667
0.396427
0.459655
0.505126
0.509962
0.519797
0.538573
0.54429
0.543254
0.537141
0.530925
0.529897
0.535643
0.336045
0.316632
0.316566
0.31682
0.317207
0.318198
0.319171
0.320697
0.324653
0.328862
0.334037
0.349128
0.371692
0.396454
0.459636
0.505148
0.509974
0.519714
0.538518
0.544296
0.543277
0.537184
0.530945
0.529914
0.535628
0.336045
0.316632
0.316565
0.31682
0.317206
0.318196
0.31917
0.320695
0.324649
0.328856
0.334032
0.349132
0.371664
0.396429
0.459662
0.505117
0.509953
0.519792
0.538572
0.544292
0.543258
0.537148
0.530933
0.529904
0.535652
0.336045
0.316632
0.316566
0.31682
0.317206
0.318197
0.319171
0.320696
0.324651
0.328859
0.334036
0.349133
0.371685
0.396454
0.459668
0.505158
0.509981
0.519734
0.538527
0.544288
0.543265
0.537174
0.530945
0.529912
0.535642
0.336045
0.316632
0.316565
0.31682
0.317205
0.318196
0.319171
0.320694
0.324644
0.328855
0.334029
0.349114
0.371668
0.396405
0.459551
0.505045
0.509857
0.519568
0.538346
0.544119
0.543093
0.536955
0.530658
0.52965
0.535355
0.336045
0.316632
0.316565
0.31682
0.317206
0.318197
0.319171
0.320695
0.324649
0.328857
0.334034
0.349137
0.371672
0.396437
0.459692
0.505161
0.509989
0.519818
0.538573
0.544282
0.543248
0.537148
0.530949
0.529919
0.535664
0.336045
0.316632
0.316565
0.31682
0.317205
0.318196
0.31917
0.320694
0.324647
0.328853
0.334031
0.349136
0.371656
0.396424
0.459693
0.505154
0.509983
0.519831
0.538597
0.544299
0.543261
0.537149
0.53095
0.529919
0.535671
0.336045
0.316632
0.316565
0.316821
0.317205
0.318196
0.319172
0.320694
0.324645
0.328854
0.33403
0.349121
0.371666
0.396403
0.459545
0.505036
0.509852
0.519569
0.538365
0.544152
0.543128
0.536993
0.530693
0.529682
0.535387
0.336045
0.316632
0.316565
0.31682
0.317205
0.318195
0.31917
0.320693
0.324646
0.328852
0.334031
0.34914
0.371649
0.396421
0.459698
0.505143
0.509972
0.519822
0.538598
0.544305
0.543268
0.537155
0.530952
0.529918
0.535679
0.336045
0.316632
0.316565
0.31682
0.317205
0.318196
0.31917
0.320694
0.324647
0.328854
0.334031
0.349136
0.371658
0.396427
0.459704
0.505165
0.50999
0.519826
0.53858
0.544285
0.543251
0.537147
0.530951
0.529921
0.535671
0.336045
0.316632
0.316564
0.31682
0.317204
0.318195
0.319171
0.320693
0.324641
0.32885
0.334027
0.349124
0.371644
0.396386
0.459595
0.505056
0.509868
0.519649
0.538399
0.544122
0.543086
0.53694
0.530677
0.52967
0.535409
0.336045
0.316632
0.316565
0.31682
0.317205
0.318196
0.319169
0.320693
0.324646
0.328854
0.334031
0.34913
0.371664
0.39644
0.459685
0.505156
0.509975
0.519749
0.538538
0.544288
0.543263
0.537166
0.530937
0.529902
0.535641
0.336045
0.316632
0.316564
0.31682
0.317204
0.318195
0.319171
0.320693
0.32464
0.32885
0.334026
0.349119
0.371645
0.396384
0.459577
0.505059
0.509877
0.51965
0.538416
0.544154
0.543121
0.536983
0.530716
0.529702
0.535427
0.336045