/*--------------------------------*- C++ -*----------------------------------*\
| =========                 |                                                 |
| \\      /  F ield         | OpenFOAM: The Open Source CFD Toolbox           |
|  \\    /   O peration     | Version:  4.1                                   |
|   \\  /    A nd           | Web:      www.OpenFOAM.org                      |
|    \\/     M anipulation  |                                                 |
\*---------------------------------------------------------------------------*/
FoamFile
{
    version     2.0;
    format      ascii;
    class       volVectorField;
    location    "0.42";
    object      U;
}
// * * * * * * * * * * * * * * * * * * * * * * * * * * * * * * * * * * * * * //

dimensions      [0 1 -1 0 0 0 0];

internalField   nonuniform List<vector> 
52500
(
(1.82116 -6.18947e-08 -0.00215751)
(1.84838 -2.49712e-06 -0.00196132)
(1.84801 5.45828e-06 -0.00196353)
(1.84709 1.29091e-05 -0.00196817)
(1.84501 2.78608e-05 -0.00198005)
(1.83991 7.11785e-05 -0.00201332)
(1.82509 0.000207071 -0.0021136)
(1.76841 0.000696544 -0.00247456)
(1.47519 0.00304633 -0.00421478)
(0.274205 0.0159538 -0.00978093)
(-0.674434 0.0371203 -0.0126072)
(-0.595808 0.03052 -0.00968315)
(-0.440876 0.0287907 -0.0090391)
(-0.418554 0.0286106 -0.00904257)
(-0.384541 0.0287097 -0.00967116)
(-0.332686 0.0292938 -0.0100559)
(-0.281562 0.0301972 -0.00999654)
(-0.23475 0.0314479 -0.00961421)
(-0.200686 0.0327397 -0.00947509)
(-0.173143 0.0342563 -0.00939169)
(-0.148499 0.0358258 -0.0091898)
(-0.12294 0.036894 -0.00896201)
(-0.100411 0.037797 -0.00874625)
(-0.0909281 0.0393041 -0.0084728)
(0.0144873 0.0391327 -0.00805493)
(1.82115 -1.08915e-07 -0.00215753)
(1.84838 -7.26826e-06 -0.00196136)
(1.84803 1.63679e-05 -0.0019634)
(1.84711 3.89839e-05 -0.00196798)
(1.84506 8.44805e-05 -0.00197961)
(1.84006 0.000218355 -0.00201212)
(1.82562 0.000639595 -0.00210978)
(1.77088 0.00215682 -0.00245858)
(1.48818 0.00947454 -0.00413099)
(0.302459 0.0505202 -0.00965796)
(-0.6649 0.105272 -0.0125246)
(-0.597774 0.0782256 -0.00965625)
(-0.437761 0.0718676 -0.00900103)
(-0.414737 0.0700107 -0.00899037)
(-0.380806 0.0692566 -0.00960198)
(-0.328537 0.0694259 -0.0100105)
(-0.27703 0.0701417 -0.00996371)
(-0.229671 0.072136 -0.00958015)
(-0.195519 0.0751645 -0.00943283)
(-0.168166 0.079093 -0.00934826)
(-0.144501 0.0834644 -0.00914289)
(-0.120123 0.0868152 -0.00891316)
(-0.0980821 0.0894732 -0.00869423)
(-0.0899344 0.0932072 -0.00841829)
(0.0150654 0.0920232 -0.00799268)
(1.82114 -1.59322e-07 -0.00215756)
(1.84839 -1.18955e-05 -0.00196142)
(1.84805 2.5957e-05 -0.00196318)
(1.84714 6.26654e-05 -0.00196757)
(1.84516 0.000136293 -0.00197871)
(1.84037 0.000354985 -0.00200962)
(1.82674 0.00104117 -0.00210186)
(1.77611 0.00349397 -0.002426)
(1.5188 0.0151069 -0.0039503)
(0.388704 0.0795466 -0.00916739)
(-0.64346 0.181231 -0.0125779)
(-0.606336 0.132572 -0.00966317)
(-0.432694 0.120972 -0.00895768)
(-0.408222 0.118232 -0.00892745)
(-0.374975 0.117686 -0.00950306)
(-0.322517 0.118415 -0.00995813)
(-0.270323 0.119783 -0.00993233)
(-0.221859 0.12258 -0.00955375)
(-0.187347 0.127457 -0.00939468)
(-0.160095 0.13391 -0.00931061)
(-0.137536 0.141307 -0.00910308)
(-0.114716 0.147519 -0.00887116)
(-0.0931477 0.152616 -0.00864917)
(-0.0876207 0.159662 -0.00836832)
(0.0160695 0.157577 -0.00793378)
(1.82112 -2.20359e-07 -0.0021576)
(1.8484 -1.56215e-05 -0.00196152)
(1.84808 3.25734e-05 -0.00196288)
(1.8472 7.90038e-05 -0.00196699)
(1.8453 0.000173318 -0.00197741)
(1.84082 0.00045525 -0.00200603)
(1.82829 0.00133586 -0.00209074)
(1.7831 0.00444068 -0.00238207)
(1.55844 0.0186302 -0.00371977)
(0.510826 0.0939897 -0.00852326)
(-0.605113 0.256034 -0.012666)
(-0.618175 0.189355 -0.00972068)
(-0.425829 0.169609 -0.00892055)
(-0.399019 0.165181 -0.00885595)
(-0.367026 0.164436 -0.00938669)
(-0.31399 0.165488 -0.00989607)
(-0.260726 0.168093 -0.00989897)
(-0.210741 0.172015 -0.00953442)
(-0.175336 0.178947 -0.00935694)
(-0.147807 0.188437 -0.00927469)
(-0.126402 0.199487 -0.00906448)
(-0.10557 0.209417 -0.00882892)
(-0.0843792 0.217526 -0.00860566)
(-0.0830519 0.228826 -0.00831393)
(0.0180731 0.226485 -0.00786176)
(1.8211 -5.85475e-07 -0.00215765)
(1.8484 -1.74111e-05 -0.00196164)
(1.84812 3.72403e-05 -0.00196254)
(1.84726 9.01922e-05 -0.0019663)
(1.84547 0.000199662 -0.00197583)
(1.84135 0.000524997 -0.00200171)
(1.83012 0.00152962 -0.00207752)
(1.79108 0.00500676 -0.00233162)
(1.60197 0.0203145 -0.00346515)
(0.656125 0.0990376 -0.00787197)
(-0.541573 0.325138 -0.0126224)
(-0.633576 0.250032 -0.00987475)
(-0.419481 0.217773 -0.00887694)
(-0.387519 0.211323 -0.00876061)
(-0.357225 0.210466 -0.00921941)
(-0.30362 0.211746 -0.00981362)
(-0.248767 0.215766 -0.00985756)
(-0.196816 0.220764 -0.00952134)
(-0.159891 0.229593 -0.00931793)
(-0.131476 0.242015 -0.00923907)
(-0.110952 0.2569 -0.00903163)
(-0.0924762 0.271004 -0.00879098)
(-0.0716253 0.282082 -0.00855944)
(-0.076087 0.298392 -0.00824623)
(0.0212108 0.296085 -0.00777042)
(1.82108 -1.08579e-06 -0.00215771)
(1.84841 -1.8246e-05 -0.00196178)
(1.84817 3.86308e-05 -0.00196216)
(1.84733 9.39925e-05 -0.00196551)
(1.84566 0.000210418 -0.00197409)
(1.84194 0.000556669 -0.001997)
(1.83209 0.00161649 -0.00206321)
(1.79931 0.00521491 -0.00227862)
(1.64574 0.020383 -0.00320359)
(0.822781 0.0986329 -0.00712083)
(-0.443976 0.383756 -0.0124199)
(-0.64845 0.316973 -0.0101097)
(-0.416248 0.266174 -0.00884122)
(-0.374275 0.256759 -0.00866683)
(-0.345886 0.255734 -0.00903763)
(-0.291595 0.257482 -0.00971778)
(-0.23451 0.263202 -0.00980886)
(-0.180272 0.26917 -0.00951305)
(-0.141215 0.279809 -0.00927241)
(-0.111132 0.295045 -0.00919736)
(-0.0909089 0.313936 -0.00899561)
(-0.0752289 0.333147 -0.00875159)
(-0.0541711 0.347522 -0.00851202)
(-0.0662388 0.370485 -0.00817393)
(0.0255651 0.369691 -0.00769068)
(1.82106 -9.6138e-07 -0.00215778)
(1.84842 -1.75761e-05 -0.00196192)
(1.84821 3.63132e-05 -0.00196177)
(1.8474 8.82237e-05 -0.00196472)
(1.84586 0.000200669 -0.00197227)
(1.84253 0.000542546 -0.00199212)
(1.83407 0.00158918 -0.00204863)
(1.80721 0.00509634 -0.00222737)
(1.68687 0.0191762 -0.00295665)
(1.0186 0.0918421 -0.00621948)
(-0.304041 0.420635 -0.0120201)
(-0.656554 0.393481 -0.010436)
(-0.418873 0.315348 -0.00882029)
(-0.359298 0.301426 -0.00857141)
(-0.332765 0.300119 -0.00883182)
(-0.278024 0.302487 -0.00958876)
(-0.218229 0.310048 -0.00975122)
(-0.161333 0.317091 -0.00951757)
(-0.119368 0.329372 -0.00922215)
(-0.0867498 0.347387 -0.00915066)
(-0.0655734 0.370246 -0.00895695)
(-0.0529736 0.396354 -0.00869462)
(-0.0305861 0.414439 -0.00844882)
(-0.051649 0.446713 -0.00810382)
(0.0323643 0.44988 -0.00755845)
(1.82104 -4.94124e-07 -0.00215783)
(1.84843 -1.36783e-05 -0.00196204)
(1.84825 3.21486e-05 -0.00196141)
(1.84746 7.62935e-05 -0.00196397)
(1.84604 0.000178181 -0.00197049)
(1.8431 0.000495526 -0.00198737)
(1.83594 0.00146889 -0.0020345)
(1.81438 0.00469788 -0.00217921)
(1.72302 0.0171595 -0.00274135)
(1.22157 0.0814468 -0.00539977)
(-0.114901 0.421691 -0.0112626)
(-0.645945 0.479361 -0.0108913)
(-0.431418 0.366247 -0.00882947)
(-0.342694 0.345314 -0.00847366)
(-0.317449 0.343224 -0.00863274)
(-0.262939 0.34658 -0.00942444)
(-0.200043 0.355663 -0.00968252)
(-0.140179 0.364482 -0.00953675)
(-0.094375 0.378063 -0.00917306)
(-0.0584638 0.398939 -0.0090929)
(-0.034061 0.425341 -0.00892012)
(-0.0245144 0.461249 -0.00864556)
(0.00121339 0.483454 -0.00839146)
(-0.0304505 0.52676 -0.00800131)
(0.0425343 0.542083 -0.0074301)
(1.82103 -2.15722e-08 -0.00215786)
(1.84844 -8.57539e-06 -0.00196213)
(1.84828 2.64313e-05 -0.00196108)
(1.84752 6.08535e-05 -0.00196326)
(1.84621 0.000149212 -0.00196885)
(1.84362 0.000428144 -0.00198307)
(1.83762 0.00129008 -0.00202161)
(1.82063 0.00409735 -0.00213489)
(1.75452 0.0145861 -0.00255015)
(1.40557 0.0680467 -0.00456853)
(0.14752 0.369071 -0.0100744)
(-0.604589 0.570041 -0.0113523)
(-0.45646 0.421407 -0.00889274)
(-0.325588 0.388847 -0.00837401)
(-0.299669 0.384727 -0.00843946)
(-0.246588 0.389773 -0.00919291)
(-0.180404 0.399824 -0.00959816)
(-0.117176 0.411094 -0.00953993)
(-0.0663581 0.425826 -0.00913476)
(-0.0265278 0.449874 -0.00902819)
(0.00492399 0.479317 -0.00888117)
(0.0116905 0.526079 -0.00856991)
(0.0419241 0.557069 -0.00829321)
(0.00469713 0.610274 -0.00790453)
(0.0608883 0.650889 -0.00715307)
(1.82102 4.73473e-07 -0.00215787)
(1.84844 -4.39007e-06 -0.00196219)
(1.8483 1.97136e-05 -0.0019608)
(1.84756 4.44516e-05 -0.00196264)
(1.84635 0.000117843 -0.00196744)
(1.84406 0.000350203 -0.00197931)
(1.83904 0.00108544 -0.00201055)
(1.82572 0.00342678 -0.00209818)
(1.77895 0.01184 -0.00239754)
(1.54799 0.0519804 -0.00376816)
(0.475271 0.272275 -0.00847738)
(-0.51572 0.655933 -0.01179)
(-0.492419 0.486824 -0.00907658)
(-0.310663 0.432805 -0.00828646)
(-0.27933 0.424479 -0.00826935)
(-0.228789 0.430889 -0.00889317)
(-0.159918 0.441682 -0.00950227)
(-0.0926831 0.456684 -0.00952216)
(-0.0349854 0.472669 -0.0091106)
(0.0092452 0.499872 -0.00893481)
(0.0501491 0.531384 -0.00877546)
(0.0581584 0.586286 -0.00849375)
(0.0936089 0.633387 -0.00813177)
(0.0612897 0.705741 -0.00774131)
(0.0910671 0.810589 -0.00685635)
(1.82116 3.56596e-08 -3.13016e-09)
(1.84838 -2.31314e-06 -1.81579e-09)
(1.84801 5.82761e-06 -4.12955e-09)
(1.84709 1.35302e-05 -5.42072e-09)
(1.84501 2.88628e-05 -1.06607e-08)
(1.8399 7.28495e-05 -2.80286e-08)
(1.82507 0.000210269 -8.52031e-08)
(1.76831 0.000704627 -3.06181e-07)
(1.47461 0.00308117 -1.50339e-06)
(0.272691 0.0161431 -4.43409e-06)
(-0.674855 0.0373101 9.61578e-08)
(-0.595374 0.0305614 8.31405e-07)
(-0.440628 0.0288865 4.11823e-07)
(-0.418348 0.02869 3.34239e-07)
(-0.384408 0.0287616 3.56151e-07)
(-0.332643 0.0293088 3.21729e-07)
(-0.281572 0.0301908 4.04677e-07)
(-0.234793 0.0314369 4.46241e-07)
(-0.200745 0.0327293 4.48636e-07)
(-0.1732 0.0342483 4.22332e-07)
(-0.148537 0.0358184 4.00041e-07)
(-0.122961 0.0368865 3.80542e-07)
(-0.100427 0.0377904 3.81503e-07)
(-0.0909382 0.0393011 4.30951e-07)
(0.0144922 0.0391439 4.06716e-07)
(1.82115 -1.50249e-07 -3.06336e-09)
(1.84838 -7.25269e-06 -2.00815e-09)
(1.84803 1.63542e-05 -3.26422e-09)
(1.84711 3.89948e-05 -4.23011e-09)
(1.84505 8.44803e-05 -8.16772e-09)
(1.84005 0.000217999 -2.15034e-08)
(1.82561 0.000637939 -6.53001e-08)
(1.7708 0.00215101 -2.35129e-07)
(1.48779 0.00945878 -1.16636e-06)
(0.301526 0.0504385 -4.41654e-06)
(-0.664302 0.105103 -9.97518e-08)
(-0.596831 0.078203 9.96806e-07)
(-0.437118 0.0719097 4.4102e-07)
(-0.41434 0.0701005 2.92928e-07)
(-0.380595 0.0693484 3.71526e-07)
(-0.32848 0.0694903 3.29705e-07)
(-0.277049 0.0701675 3.9714e-07)
(-0.22972 0.0721253 4.03386e-07)
(-0.19558 0.0751406 3.88903e-07)
(-0.168225 0.0790745 3.78657e-07)
(-0.144543 0.0834499 3.77836e-07)
(-0.120149 0.0868004 3.66654e-07)
(-0.0981027 0.089455 3.73445e-07)
(-0.0899414 0.0931879 4.21401e-07)
(0.0150803 0.0920274 4.02158e-07)
(1.82114 -6.40358e-09 -2.72453e-09)
(1.84839 -1.15579e-05 -2.10635e-09)
(1.84805 2.66003e-05 -1.95113e-09)
(1.84714 6.37368e-05 -2.54118e-09)
(1.84515 0.000137848 -5.89841e-09)
(1.84037 0.000356931 -1.73865e-08)
(1.82671 0.00104308 -5.47277e-08)
(1.77599 0.00349449 -1.90368e-07)
(1.51817 0.0151042 -9.03757e-07)
(0.386868 0.0795837 -3.88146e-06)
(-0.64452 0.181258 -3.84815e-07)
(-0.606654 0.132745 9.69765e-07)
(-0.433222 0.121153 4.11603e-07)
(-0.408642 0.118399 2.7681e-07)
(-0.37524 0.117792 3.41791e-07)
(-0.322685 0.118468 3.12395e-07)
(-0.270437 0.119784 3.74937e-07)
(-0.221952 0.122545 3.49437e-07)
(-0.187415 0.12741 2.8796e-07)
(-0.160144 0.133874 2.84956e-07)
(-0.137568 0.14128 3.12804e-07)
(-0.114734 0.147493 3.37825e-07)
(-0.0931601 0.152588 3.59429e-07)
(-0.0876207 0.159631 4.06875e-07)
(0.0160765 0.157574 3.93859e-07)
(1.82112 -9.26484e-08 -2.79505e-09)
(1.8484 -1.53365e-05 -2.3791e-09)
(1.84808 3.32711e-05 -1.30227e-09)
(1.8472 8.02102e-05 -1.75149e-09)
(1.8453 0.000175214 -4.35579e-09)
(1.84082 0.00045826 -1.25847e-08)
(1.82827 0.00134117 -4.12212e-08)
(1.78303 0.00445296 -1.4459e-07)
(1.55803 0.0186771 -6.54131e-07)
(0.509727 0.0942363 -2.55874e-06)
(-0.605318 0.25611 -1.05891e-06)
(-0.618082 0.189445 9.19467e-07)
(-0.426124 0.169705 3.17826e-07)
(-0.399426 0.165267 2.28188e-07)
(-0.367371 0.164466 3.1805e-07)
(-0.314247 0.165473 2.99787e-07)
(-0.260902 0.168025 3.01287e-07)
(-0.210852 0.171937 2.68687e-07)
(-0.175401 0.178872 1.82712e-07)
(-0.147843 0.188377 1.86564e-07)
(-0.12642 0.19944 2.39538e-07)
(-0.105576 0.209378 2.85514e-07)
(-0.0843825 0.217488 3.28669e-07)
(-0.0830444 0.228786 3.78875e-07)
(0.0180692 0.226474 3.8292e-07)
(1.8211 -4.53625e-07 -2.53393e-09)
(1.8484 -1.73026e-05 -3.50374e-09)
(1.84812 3.79241e-05 8.81917e-10)
(1.84726 9.14546e-05 6.46542e-10)
(1.84547 0.000201646 -1.61319e-09)
(1.84135 0.000528285 -8.62799e-09)
(1.83011 0.00153585 -3.36165e-08)
(1.791 0.00502146 -1.17987e-07)
(1.60159 0.0203636 -5.1591e-07)
(0.654842 0.0992617 -2.10312e-06)
(-0.542353 0.325408 -1.12384e-06)
(-0.633858 0.250162 8.20361e-07)
(-0.420234 0.217776 3.42837e-07)
(-0.388245 0.211253 2.24391e-07)
(-0.357744 0.210304 3.37747e-07)
(-0.303952 0.211562 2.90615e-07)
(-0.248971 0.215593 2.72917e-07)
(-0.196928 0.220634 2.10788e-07)
(-0.159944 0.229481 9.14845e-08)
(-0.131494 0.241925 7.50997e-08)
(-0.110953 0.25683 1.37228e-07)
(-0.0924677 0.270948 2.01312e-07)
(-0.07162 0.282032 2.67384e-07)
(-0.0760738 0.298345 3.35169e-07)
(0.0211977 0.296075 3.46048e-07)
(1.82108 -8.37196e-07 -2.88694e-09)
(1.84841 -1.81392e-05 -3.48284e-09)
(1.84817 3.9573e-05 7.99757e-10)
(1.84733 9.57273e-05 5.84553e-10)
(1.84567 0.000213091 -1.16211e-09)
(1.84194 0.000561396 -6.78363e-09)
(1.83208 0.00162635 -2.79119e-08)
(1.79927 0.00524051 -1.00688e-07)
(1.64551 0.02047 -4.44473e-07)
(0.82181 0.0990033 -1.84467e-06)
(-0.444386 0.384498 -1.34579e-06)
(-0.64852 0.317223 9.6689e-07)
(-0.416654 0.26628 1.61108e-07)
(-0.374709 0.256712 1.90026e-07)
(-0.346233 0.255538 2.0436e-07)
(-0.291824 0.257217 2.43443e-07)
(-0.234642 0.262955 2.64988e-07)
(-0.180347 0.268976 2.14819e-07)
(-0.141246 0.279661 4.31921e-08)
(-0.111125 0.294926 -1.01718e-08)
(-0.090889 0.313844 2.28578e-08)
(-0.0752037 0.333075 1.11531e-07)
(-0.0541548 0.347461 2.12926e-07)
(-0.0662156 0.370431 2.78098e-07)
(0.0255501 0.369683 3.19151e-07)
(1.82106 -9.30162e-07 -1.81808e-09)
(1.84842 -1.75526e-05 -5.38149e-09)
(1.84821 3.69248e-05 4.64528e-09)
(1.8474 8.94667e-05 5.13263e-09)
(1.84586 0.000202749 4.33004e-09)
(1.84254 0.00054623 1.86493e-09)
(1.83407 0.00159668 -9.88361e-09)
(1.8072 0.00511519 -4.45578e-08)
(1.6868 0.0192397 -2.1893e-07)
(1.01818 0.0921241 -1.02899e-06)
(-0.30391 0.421479 -1.90795e-06)
(-0.656209 0.39379 9.82315e-07)
(-0.418672 0.315526 2.57704e-07)
(-0.359203 0.301414 1.67573e-07)
(-0.332741 0.299949 2.39948e-07)
(-0.278055 0.302219 2.89215e-07)
(-0.218269 0.309785 3.30507e-07)
(-0.161347 0.316858 2.32688e-07)
(-0.119354 0.329203 4.57427e-08)
(-0.0867123 0.347251 -8.32273e-08)
(-0.0655266 0.370136 -7.3178e-08)
(-0.0529272 0.396269 7.5723e-09)
(-0.0305567 0.414367 1.3757e-07)
(-0.0516157 0.446656 2.13712e-07)
(0.0323491 0.449875 2.70886e-07)
(1.82104 -3.90378e-07 -3.11673e-09)
(1.84843 -1.34537e-05 -5.67742e-09)
(1.84825 3.27649e-05 4.17991e-09)
(1.84746 7.73765e-05 4.6452e-09)
(1.84605 0.00017994 5.26801e-09)
(1.84311 0.000498308 5.33596e-09)
(1.83595 0.00147374 1.58759e-09)
(1.81438 0.00470777 -1.30637e-08)
(1.72303 0.0171866 -9.26896e-08)
(1.22151 0.0815592 -5.14545e-07)
(-0.114822 0.422197 -1.50691e-06)
(-0.645613 0.479642 5.9392e-07)
(-0.431056 0.366408 1.56458e-07)
(-0.342421 0.345288 1.55922e-07)
(-0.317276 0.343043 3.32282e-07)
(-0.262869 0.346317 4.18964e-07)
(-0.200013 0.355412 3.69544e-07)
(-0.140142 0.364264 2.47957e-07)
(-0.0943202 0.377892 5.3455e-08)
(-0.0584003 0.398794 -9.97788e-08)
(-0.0339887 0.425217 -1.68138e-07)
(-0.0244466 0.461153 -6.6608e-08)
(0.00125645 0.483371 4.18072e-08)
(-0.0304043 0.526696 1.35408e-07)
(0.0425216 0.542081 2.2764e-07)
(1.82103 1.53954e-07 -1.73686e-09)
(1.84844 -8.32877e-06 -5.96484e-09)
(1.84828 2.71105e-05 7.97212e-09)
(1.84752 6.20143e-05 8.57688e-09)
(1.84621 0.000150906 9.70239e-09)
(1.84362 0.000430568 1.09017e-08)
(1.83763 0.00129368 1.02806e-08)
(1.82063 0.00410327 8.35741e-09)
(1.75453 0.0145976 -2.24755e-08)
(1.40559 0.0680817 -2.42211e-07)
(0.147387 0.369273 -8.79075e-07)
(-0.604403 0.570324 -1.79209e-08)
(-0.456161 0.421571 1.92577e-08)
(-0.325349 0.388822 1.66264e-07)
(-0.299491 0.384563 3.9158e-07)
(-0.246477 0.389546 5.26745e-07)
(-0.18033 0.399605 4.3448e-07)
(-0.117106 0.41091 2.74371e-07)
(-0.0662832 0.425666 9.15186e-08)
(-0.0264453 0.449735 -1.15848e-07)
(0.00502336 0.479195 -2.62139e-07)
(0.0117849 0.52597 -1.46307e-07)
(0.0419817 0.55698 -6.11442e-08)
(0.00475947 0.610206 3.74243e-08)
(0.0608803 0.650892 1.36964e-07)
(1.82102 5.05431e-07 -2.07188e-09)
(1.84844 -4.2191e-06 -6.6879e-09)
(1.8483 2.00957e-05 8.36946e-09)
(1.84757 4.50913e-05 9.04131e-09)
(1.84635 0.000118836 1.06387e-08)
(1.84407 0.000351653 1.26118e-08)
(1.83905 0.00108748 1.4843e-08)
(1.82574 0.00342987 2.06964e-08)
(1.77898 0.0118454 2.02371e-08)
(1.54804 0.0519941 -5.82749e-08)
(0.475212 0.272356 -5.00477e-07)
(-0.515595 0.65624 -4.00618e-07)
(-0.492189 0.48702 -1.44924e-07)
(-0.310457 0.432833 2.18601e-07)
(-0.279145 0.424387 4.52524e-07)
(-0.228659 0.430726 6.21447e-07)
(-0.159825 0.441509 5.05395e-07)
(-0.0925983 0.456541 3.25916e-07)
(-0.0348955 0.47253 1.64225e-07)
(0.00934115 0.499752 -6.74287e-08)
(0.0502585 0.531274 -2.9541e-07)
(0.0582736 0.58617 -3.31347e-07)
(0.0936873 0.633292 -1.73312e-07)
(0.0613665 0.705667 -2.84264e-08)
(0.0910648 0.810588 5.8566e-08)
(1.82116 -5.1281e-08 1.11221e-09)
(1.84838 -2.48999e-06 -3.18912e-10)
(1.84801 5.51309e-06 6.28951e-09)
(1.84709 1.30068e-05 6.71107e-09)
(1.84501 2.80476e-05 8.21068e-09)
(1.8399 7.163e-05 1.30497e-08)
(1.82508 0.000208411 3.12602e-08)
(1.76834 0.000701173 1.14066e-07)
(1.4748 0.0030679 6.4118e-07)
(0.273308 0.016055 2.26832e-06)
(-0.674775 0.0372241 1.58911e-06)
(-0.595778 0.0305069 -3.31259e-07)
(-0.441077 0.0287965 -1.99028e-07)
(-0.41874 0.0285926 9.77732e-08)
(-0.384694 0.028677 1.29647e-07)
(-0.332795 0.0292575 1.37474e-07)
(-0.281633 0.0301661 1.58727e-07)
(-0.234805 0.031426 5.82249e-08)
(-0.200716 0.0327277 -1.62034e-07)
(-0.173148 0.0342499 -3.11982e-07)
(-0.148488 0.0358209 -3.2706e-07)
(-0.122922 0.0368895 -2.97572e-07)
(-0.100397 0.0377931 -2.48287e-07)
(-0.0909218 0.0393031 -1.41224e-07)
(0.0144974 0.0391455 -1.07102e-07)
(1.82115 -3.63564e-08 8.59076e-10)
(1.84838 -7.14815e-06 -6.63331e-10)
(1.84803 1.67431e-05 6.32245e-09)
(1.84711 3.96648e-05 6.80677e-09)
(1.84506 8.55791e-05 8.3716e-09)
(1.84006 0.000220203 1.30355e-08)
(1.82561 0.000643203 2.84267e-08)
(1.77083 0.00216603 8.60938e-08)
(1.48788 0.00951074 3.63963e-07)
(0.301748 0.050684 1.24053e-06)
(-0.664873 0.105411 1.49095e-06)
(-0.597559 0.0782385 -3.67884e-07)
(-0.437715 0.0718798 -5.05487e-08)
(-0.414768 0.0699923 1.69949e-07)
(-0.380851 0.0692115 1.19746e-07)
(-0.328592 0.0693743 1.60123e-07)
(-0.277077 0.0700929 1.37372e-07)
(-0.229713 0.0720981 2.52048e-08)
(-0.195542 0.0751405 -1.6142e-07)
(-0.168171 0.0790806 -3.00321e-07)
(-0.144494 0.0834577 -3.21256e-07)
(-0.12011 0.0868088 -2.95963e-07)
(-0.0980724 0.0894628 -2.45389e-07)
(-0.0899256 0.0931942 -1.39161e-07)
(0.0150852 0.0920327 -1.04723e-07)
(1.82114 -1.14208e-07 1.74419e-09)
(1.84839 -1.18254e-05 -1.34435e-09)
(1.84805 2.62324e-05 9.32787e-09)
(1.84714 6.31894e-05 1.14969e-08)
(1.84516 0.000137147 1.65476e-08)
(1.84037 0.000356439 3.23512e-08)
(1.82673 0.00104398 8.07483e-08)
(1.77607 0.0035011 2.59293e-07)
(1.51856 0.0151355 1.19179e-06)
(0.38801 0.0797005 5.65354e-06)
(-0.643633 0.181388 -5.62368e-07)
(-0.6062 0.132627 -6.98039e-07)
(-0.432685 0.120999 6.90581e-08)
(-0.408264 0.11823 1.67966e-07)
(-0.375021 0.117649 2.86113e-07)
(-0.322567 0.118363 1.87853e-07)
(-0.270366 0.11972 5.48622e-08)
(-0.221893 0.122526 -6.29584e-08)
(-0.187357 0.127419 -1.86443e-07)
(-0.160085 0.133888 -2.89122e-07)
(-0.137517 0.141295 -3.15684e-07)
(-0.114694 0.147509 -2.94633e-07)
(-0.0931306 0.152602 -2.41718e-07)
(-0.0876057 0.159642 -1.34389e-07)
(0.0160809 0.157584 -9.95495e-08)
(1.82112 -1.17423e-07 3.57674e-10)
(1.8484 -1.54856e-05 -1.90346e-09)
(1.84808 3.30637e-05 7.00891e-09)
(1.8472 7.98883e-05 8.5023e-09)
(1.8453 0.000174645 1.22425e-08)
(1.84082 0.000457371 2.48495e-08)
(1.82829 0.00133949 5.87063e-08)
(1.78307 0.00444862 1.80955e-07)
(1.55827 0.0186568 7.57361e-07)
(0.510327 0.0941135 2.921e-06)
(-0.605172 0.256175 7.34137e-07)
(-0.617976 0.189425 -6.98571e-07)
(-0.425732 0.169652 7.35058e-08)
(-0.399009 0.165198 1.67894e-07)
(-0.367051 0.164418 2.40683e-07)
(-0.314034 0.165442 2.03574e-07)
(-0.260767 0.168023 2.42474e-08)
(-0.210763 0.171949 -1.13932e-07)
(-0.175331 0.178898 -2.07509e-07)
(-0.147782 0.188403 -2.84759e-07)
(-0.126368 0.199464 -3.11574e-07)
(-0.105536 0.209401 -2.91585e-07)
(-0.0843547 0.217509 -2.36088e-07)
(-0.083031 0.228802 -1.26321e-07)
(0.018073 0.226487 -9.08807e-08)
(1.8211 -5.65343e-07 1.02798e-09)
(1.8484 -1.73971e-05 -3.63092e-09)
(1.84812 3.74768e-05 8.47002e-09)
(1.84726 9.06579e-05 1.00318e-08)
(1.84547 0.000200396 1.35367e-08)
(1.84135 0.000526157 2.47181e-08)
(1.83012 0.0015316 5.643e-08)
(1.79105 0.00501104 1.68424e-07)
(1.60184 0.0203289 6.35928e-07)
(0.655651 0.0991057 2.4221e-06)
(-0.5417 0.325218 5.35918e-07)
(-0.633467 0.250104 -1.07493e-06)
(-0.4195 0.217789 2.09437e-08)
(-0.387611 0.211308 1.84065e-07)
(-0.357322 0.210405 2.38578e-07)
(-0.303708 0.211665 1.88162e-07)
(-0.248824 0.215682 3.7916e-10)
(-0.196831 0.220695 -1.33451e-07)
(-0.159871 0.229532 -2.05719e-07)
(-0.131435 0.241966 -2.81938e-07)
(-0.110903 0.256864 -3.12492e-07)
(-0.0924305 0.270978 -2.86328e-07)
(-0.0715958 0.282057 -2.24453e-07)
(-0.076063 0.298364 -1.16059e-07)
(0.0212005 0.29609 -8.19433e-08)
(1.82108 -9.30565e-07 1.17929e-10)
(1.84841 -1.81084e-05 -2.21416e-09)
(1.84817 3.91573e-05 5.2932e-09)
(1.84733 9.49235e-05 6.26571e-09)
(1.84567 0.000211834 9.12271e-09)
(1.84194 0.000558894 1.79312e-08)
(1.83209 0.00162043 4.2404e-08)
(1.79929 0.00522333 1.24022e-07)
(1.64563 0.0204081 4.68631e-07)
(0.822293 0.0987323 1.75294e-06)
(-0.4443 0.383964 1.03708e-06)
(-0.648498 0.317088 -1.16489e-06)
(-0.416414 0.266221 6.42774e-08)
(-0.374475 0.256749 1.8168e-07)
(-0.346054 0.255662 2.35886e-07)
(-0.2917 0.257392 1.67399e-07)
(-0.234558 0.263111 -7.30899e-09)
(-0.180284 0.269091 -1.1428e-07)
(-0.141191 0.279737 -1.77086e-07)
(-0.111077 0.29498 -2.72959e-07)
(-0.0908451 0.313887 -3.16265e-07)
(-0.0751713 0.333111 -2.75087e-07)
(-0.0541359 0.347489 -2.09726e-07)
(-0.0662081 0.370452 -1.05221e-07)
(0.0255518 0.3697 -7.41083e-08)
(1.82106 -8.98949e-07 7.02963e-10)
(1.84842 -1.75419e-05 -1.15003e-09)
(1.84821 3.67303e-05 4.93917e-09)
(1.8474 8.90278e-05 5.54818e-09)
(1.84586 0.000201931 7.33552e-09)
(1.84254 0.000544567 1.22814e-08)
(1.83407 0.00159292 2.51107e-08)
(1.8072 0.00510487 6.78286e-08)
(1.68682 0.019203 2.35734e-07)
(1.01829 0.0919554 9.22994e-07)
(-0.304106 0.42094 1.4412e-06)
(-0.656473 0.393624 -1.18482e-06)
(-0.418873 0.315453 -5.71896e-08)
(-0.359373 0.301455 1.45502e-07)
(-0.332852 0.300085 1.93012e-07)
(-0.278096 0.30241 1.54537e-07)
(-0.218276 0.30995 3.60358e-08)
(-0.161341 0.316993 -5.61293e-08)
(-0.119335 0.329291 -1.46431e-07)
(-0.0866819 0.347312 -2.64014e-07)
(-0.0654919 0.370185 -3.1136e-07)
(-0.0529023 0.396307 -2.62079e-07)
(-0.0305444 0.414397 -1.97426e-07)
(-0.0516117 0.446678 -9.48617e-08)
(0.0323495 0.449893 -6.77759e-08)
(1.82104 -4.46746e-07 3.75034e-10)
(1.84843 -1.35667e-05 -7.64154e-10)
(1.84825 3.26867e-05 3.15574e-09)
(1.84746 7.73235e-05 3.4307e-09)
(1.84604 0.00017984 4.17334e-09)
(1.84311 0.000498037 6.15346e-09)
(1.83595 0.00147292 1.05418e-08)
(1.81438 0.00470532 2.49451e-08)
(1.723 0.0171778 7.68359e-08)
(1.2214 0.0815149 3.04039e-07)
(-0.115015 0.421971 7.27137e-07)
(-0.645882 0.479498 -5.57167e-07)
(-0.431381 0.366354 -7.75614e-08)
(-0.342736 0.34534 1.04657e-07)
(-0.317506 0.343174 1.52238e-07)
(-0.262997 0.346476 1.40553e-07)
(-0.200083 0.35555 5.28923e-08)
(-0.140175 0.364381 -6.95852e-09)
(-0.0943305 0.377976 -1.27898e-07)
(-0.0583869 0.398857 -2.52458e-07)
(-0.0339648 0.425267 -3.08326e-07)
(-0.0244304 0.46119 -2.44852e-07)
(0.00126165 0.483401 -1.95896e-07)
(-0.030404 0.526719 -9.09847e-08)
(0.0425206 0.542099 -6.1262e-08)
(1.82103 1.44146e-07 5.77154e-10)
(1.84844 -8.37211e-06 -9.44801e-10)
(1.84828 2.71432e-05 4.12858e-09)
(1.84752 6.2145e-05 4.22398e-09)
(1.84621 0.000151158 4.49666e-09)
(1.84362 0.000431013 5.16048e-09)
(1.83763 0.00129447 5.07213e-09)
(1.82063 0.00410482 6.19953e-09)
(1.75452 0.0146012 8.76329e-09)
(1.40552 0.0680926 4.75595e-08)
(0.147389 0.369273 1.9941e-07)
(-0.604555 0.570194 4.86854e-08)
(-0.456408 0.421517 2.06256e-08)
(-0.32561 0.388869 9.461e-08)
(-0.299701 0.384665 1.43344e-07)
(-0.246616 0.389655 1.5178e-07)
(-0.180419 0.399705 8.02546e-08)
(-0.117158 0.410994 2.20419e-09)
(-0.0663087 0.425736 -1.16545e-07)
(-0.0264434 0.449793 -2.28207e-07)
(0.00503569 0.479239 -2.93387e-07)
(0.0117927 0.526003 -2.38235e-07)
(0.0419806 0.557007 -1.79437e-07)
(0.00475596 0.610227 -1.1114e-07)
(0.0608777 0.650907 -6.06294e-08)
(1.82102 4.83057e-07 2.29692e-10)
(1.84844 -4.27967e-06 -1.00417e-09)
(1.8483 2.0017e-05 3.02967e-09)
(1.84757 4.49648e-05 3.11934e-09)
(1.84635 0.000118693 3.49256e-09)
(1.84407 0.000351533 3.53422e-09)
(1.83905 0.00108757 2.70165e-09)
(1.82573 0.00343061 -6.04943e-10)
(1.77896 0.0118485 -1.27757e-08)
(1.54798 0.0520075 -6.13953e-08)
(0.475147 0.272403 -1.8263e-07)
(-0.51566 0.65613 3.54677e-07)
(-0.492291 0.486948 2.11948e-07)
(-0.310579 0.432854 1.3637e-07)
(-0.279257 0.424447 1.60787e-07)
(-0.228742 0.430803 1.41119e-07)
(-0.159889 0.441578 1.23991e-07)
(-0.0926473 0.456595 4.74329e-09)
(-0.0349237 0.472584 -7.51057e-08)
(0.00933508 0.499798 -1.87337e-07)
(0.0502612 0.531307 -2.88044e-07)
(0.0582755 0.586195 -2.76499e-07)
(0.0936817 0.633313 -1.99004e-07)
(0.061359 0.705685 -1.20138e-07)
(0.0910605 0.810602 -6.8677e-08)
(1.82116 -2.60888e-08 3.29625e-10)
(1.84838 -2.44226e-06 -4.18492e-10)
(1.84801 5.61668e-06 2.82731e-09)
(1.84709 1.31886e-05 2.87489e-09)
(1.84501 2.83331e-05 2.81367e-09)
(1.8399 7.20541e-05 2.10158e-09)
(1.82508 0.000209045 -1.34721e-09)
(1.76834 0.000702223 -1.81955e-08)
(1.47477 0.00307064 -1.2927e-07)
(0.273207 0.0160683 -4.40513e-07)
(-0.674797 0.0372367 -1.32463e-07)
(-0.595739 0.0305161 1.39918e-07)
(-0.441057 0.0288131 1.05403e-07)
(-0.418737 0.0286068 7.26318e-08)
(-0.384706 0.0286839 8.49939e-08)
(-0.332815 0.0292572 6.72915e-08)
(-0.281651 0.0301614 -3.32952e-09)
(-0.234815 0.0314213 -6.20685e-08)
(-0.200716 0.0327237 -1.21664e-07)
(-0.173134 0.0342466 -2.00318e-07)
(-0.148465 0.035818 -2.46234e-07)
(-0.122896 0.0368871 -2.44286e-07)
(-0.100375 0.0377912 -2.10719e-07)
(-0.0909092 0.0393019 -1.64665e-07)
(0.0145002 0.0391445 -1.28052e-07)
(1.82115 -5.979e-08 4.5355e-10)
(1.84838 -7.18562e-06 -3.5151e-10)
(1.84803 1.66423e-05 3.01948e-09)
(1.84711 3.95004e-05 3.06458e-09)
(1.84506 8.53276e-05 3.01738e-09)
(1.84006 0.000219804 2.3251e-09)
(1.82561 0.000642521 -6.18353e-10)
(1.77082 0.00216478 -1.4419e-08)
(1.48786 0.00950889 -9.68253e-08)
(0.301694 0.0506826 -1.98404e-07)
(-0.664841 0.105394 -1.79094e-07)
(-0.597497 0.0782264 1.45534e-07)
(-0.437677 0.0718761 6.55676e-08)
(-0.414758 0.0699962 2.13315e-08)
(-0.380861 0.0692158 4.77842e-08)
(-0.328611 0.0693729 4.46902e-08)
(-0.277095 0.0700859 2.03169e-09)
(-0.229723 0.0720884 -5.49556e-08)
(-0.195542 0.0751316 -1.16069e-07)
(-0.168157 0.0790731 -1.91559e-07)
(-0.14447 0.0834507 -2.3962e-07)
(-0.120084 0.0868026 -2.38962e-07)
(-0.0980501 0.0894577 -2.08982e-07)
(-0.0899125 0.0931905 -1.62217e-07)
(0.0150882 0.0920297 -1.28896e-07)
(1.82114 -8.51436e-08 2.81951e-10)
(1.84839 -1.17467e-05 -2.87366e-10)
(1.84805 2.63462e-05 2.13149e-09)
(1.84714 6.33821e-05 2.3841e-09)
(1.84516 0.000137413 2.239e-09)
(1.84037 0.000356743 1.26719e-09)
(1.82673 0.00104411 -2.6411e-09)
(1.77606 0.0035004 -1.65121e-08)
(1.51853 0.0151312 -8.95795e-08)
(0.387926 0.0796807 -3.52956e-07)
(-0.643624 0.181373 -5.5679e-08)
(-0.606167 0.132667 1.46853e-07)
(-0.432688 0.121043 -1.1666e-09)
(-0.408287 0.118269 -2.04027e-08)
(-0.375056 0.11767 1.77805e-08)
(-0.322601 0.118363 2.96649e-08)
(-0.270392 0.119706 2.14011e-08)
(-0.221905 0.122508 -4.18182e-08)
(-0.187356 0.127402 -1.09764e-07)
(-0.16007 0.133875 -1.73395e-07)
(-0.137492 0.141283 -2.16854e-07)
(-0.114667 0.147498 -2.27491e-07)
(-0.0931069 0.152593 -2.076e-07)
(-0.0875918 0.159636 -1.6048e-07)
(0.0160842 0.157578 -1.3712e-07)
(1.82112 -1.3258e-07 5.85912e-10)
(1.8484 -1.55134e-05 1.52383e-11)
(1.84808 3.3013e-05 2.51907e-09)
(1.8472 7.97951e-05 2.67569e-09)
(1.8453 0.000174452 2.23175e-09)
(1.84082 0.000456968 1.31112e-09)
(1.82829 0.0013385 -4.60332e-09)
(1.78307 0.00444578 -2.30592e-08)
(1.55823 0.0186461 -1.08521e-07)
(0.510237 0.0940614 -3.93919e-07)
(-0.605217 0.256088 1.14414e-07)
(-0.618068 0.189458 2.09123e-07)
(-0.425913 0.169647 -3.92339e-08)
(-0.399196 0.16517 2.09208e-08)
(-0.367193 0.164373 1.38435e-08)
(-0.314126 0.165404 4.89328e-08)
(-0.260816 0.167986 4.16589e-08)
(-0.210777 0.171921 -2.25535e-08)
(-0.175326 0.178873 -9.78685e-08)
(-0.147764 0.188382 -1.57355e-07)
(-0.126342 0.199447 -2.00573e-07)
(-0.105507 0.209386 -2.09459e-07)
(-0.0843287 0.217496 -2.05455e-07)
(-0.0830156 0.228792 -1.57034e-07)
(0.0180768 0.22648 -1.60584e-07)
(1.8211 -4.79823e-07 1.84394e-10)
(1.8484 -1.73822e-05 -2.83773e-10)
(1.84812 3.7689e-05 1.92042e-09)
(1.84726 9.10331e-05 1.87605e-09)
(1.84547 0.000200982 1.18868e-09)
(1.84135 0.000527173 -1.00714e-09)
(1.83012 0.00153378 -1.0218e-08)
(1.79104 0.00501642 -4.22284e-08)
(1.60176 0.0203451 -1.87236e-07)
(0.655391 0.0991687 -8.17031e-07)
(-0.542077 0.325342 5.73169e-07)
(-0.633763 0.250178 4.64726e-07)
(-0.419912 0.217796 -1.40058e-07)
(-0.387937 0.21125 2.37617e-08)
(-0.357518 0.210307 -2.5557e-08)
(-0.303806 0.211571 3.85215e-09)
(-0.248866 0.215612 2.99268e-08)
(-0.196842 0.220649 -3.24141e-09)
(-0.159864 0.229497 -9.65896e-08)