/*--------------------------------*- C++ -*----------------------------------*\
| =========                 |                                                 |
| \\      /  F ield         | OpenFOAM: The Open Source CFD Toolbox           |
|  \\    /   O peration     | Version:  4.1                                   |
|   \\  /    A nd           | Web:      www.OpenFOAM.org                      |
|    \\/     M anipulation  |                                                 |
\*---------------------------------------------------------------------------*/
FoamFile
{
    version     2.0;
    format      ascii;
    class       volScalarField;
    location    "2.54";
    object      p;
}
// * * * * * * * * * * * * * * * * * * * * * * * * * * * * * * * * * * * * * //

dimensions      [1 -1 -2 0 0 0 0];

internalField   nonuniform List<scalar> 
52500
(
1.00001
1.00003
1.0001
1.00022
1.00064
1.00131
1.00376
1.00739
1.02285
1.04075
1.1485
1.26049
2.00857
3.3466
8.03977
11.5745
11.2055
10.9613
11.0387
11.2603
11.4902
11.6281
11.7299
11.8097
11.8672
1.00001
1.00003
1.0001
1.00022
1.00063
1.00129
1.00371
1.0073
1.02252
1.04021
1.14633
1.25665
1.99169
3.30757
7.93449
11.5836
11.2028
10.9506
11.0293
11.2521
11.4819
11.6199
11.7232
11.8044
11.8635
1.00001
1.00003
1.0001
1.00021
1.00061
1.00126
1.00361
1.00711
1.02185
1.03913
1.14183
1.24877
1.95577
3.22347
7.698
11.6013
11.1934
10.9188
10.9966
11.2177
11.4451
11.5809
11.6838
11.765
11.8254
1.00001
1.00003
1.00009
1.0002
1.00059
1.00121
1.00345
1.00682
1.02086
1.03748
1.13505
1.23695
1.9019
3.0969
7.33284
11.6295
11.1804
10.8667
10.9409
11.1561
11.3796
11.5113
11.6116
11.692
11.7552
1.00001
1.00002
1.00009
1.00019
1.00056
1.00116
1.00329
1.00659
1.01951
1.03665
1.12393
1.22483
1.82754
2.93254
6.84182
11.6576
11.1656
10.7971
10.8647
11.07
11.2888
11.4145
11.5101
11.5883
11.6547
1
1.00002
1.00008
1.00018
1.00053
1.00108
1.00306
1.00618
1.01795
1.03496
1.11171
1.20942
1.74322
2.74116
6.24823
11.6519
11.1412
10.7126
10.7697
10.9571
11.1681
11.2839
11.37
11.4422
11.5121
1
1.00002
1.00008
1.00017
1.00048
1.00099
1.0028
1.00567
1.01636
1.03218
1.1002
1.19225
1.65771
2.54162
5.60922
11.5421
11.074
10.6099
10.6547
10.8156
11.0122
11.1122
11.1811
11.2377
11.3039
1
1.00002
1.00007
1.00015
1.00044
1.0009
1.00254
1.00514
1.01482
1.02922
1.09061
1.17384
1.59163
2.38329
5.17748
11.1453
10.8932
10.4941
10.5203
10.6401
10.8114
10.8869
10.9254
10.9472
10.9907
1
1.00002
1.00006
1.00013
1.00039
1.00079
1.00226
1.00456
1.01321
1.02579
1.0818
1.15087
1.53338
2.22212
4.75016
10.4544
10.594
10.4173
10.3775
10.4381
10.5639
10.6007
10.5886
10.5333
10.4821
1
1.00001
1.00005
1.00011
1.00032
1.00066
1.0019
1.00369
1.01157
1.02015
1.07415
1.12423
1.48073
2.05292
4.31532
9.59293
10.4363
10.3196
10.2028
10.2229
10.2724
10.2526
10.1588
9.93496
9.58451
1.00001
1.00003
1.0001
1.00023
1.00065
1.00132
1.00377
1.0074
1.02286
1.04077
1.14852
1.26053
2.00861
3.34679
8.04011
11.5745
11.2055
10.9613
11.0388
11.2604
11.4903
11.6282
11.73
11.8098
11.8673
1.00001
1.00003
1.0001
1.00022
1.00064
1.0013
1.00372
1.00731
1.02253
1.04022
1.14635
1.2567
1.99173
3.30776
7.93483
11.5836
11.2029
10.9507
11.0293
11.2522
11.482
11.62
11.7233
11.8045
11.8636
1.00001
1.00003
1.0001
1.00022
1.00062
1.00127
1.00361
1.00712
1.02186
1.03914
1.14185
1.24882
1.95581
3.22365
7.69833
11.6012
11.1934
10.9189
10.9966
11.2178
11.4452
11.581
11.6839
11.7651
11.8255
1.00001
1.00003
1.0001
1.00021
1.00059
1.00121
1.00346
1.00683
1.02087
1.03749
1.13507
1.237
1.90194
3.09707
7.33316
11.6295
11.1804
10.8668
10.941
11.1562
11.3797
11.5114
11.6117
11.6921
11.7553
1.00001
1.00003
1.00009
1.0002
1.00057
1.00116
1.00329
1.00661
1.01952
1.03668
1.12393
1.2249
1.82752
2.93268
6.84208
11.6577
11.1657
10.7972
10.8648
11.0701
11.2889
11.4146
11.5102
11.5884
11.6548
1.00001
1.00003
1.00009
1.00019
1.00053
1.00109
1.00307
1.00619
1.01796
1.03498
1.11172
1.20946
1.74323
2.74128
6.24845
11.652
11.1413
10.7127
10.7698
10.9571
11.1682
11.284
11.3701
11.4423
11.5122
1.00001
1.00002
1.00008
1.00017
1.00049
1.001
1.00281
1.00568
1.01636
1.0322
1.10021
1.19229
1.65772
2.54172
5.60936
11.5422
11.0741
10.61
10.6548
10.8157
11.0122
11.1123
11.1812
11.2378
11.304
1
1.00002
1.00007
1.00015
1.00044
1.0009
1.00255
1.00515
1.01483
1.02923
1.09062
1.17387
1.59164
2.38337
5.17761
11.1455
10.8933
10.4942
10.5204
10.6401
10.8115
10.8869
10.9255
10.9473
10.9908
1
1.00002
1.00006
1.00014
1.00039
1.0008
1.00226
1.00457
1.01322
1.0258
1.08181
1.15091
1.53338
2.22221
4.75026
10.4546
10.5941
10.4174
10.3776
10.4381
10.564
10.6008
10.5886
10.5334
10.4822
1
1.00002
1.00005
1.00012
1.00033
1.00067
1.00191
1.0037
1.01158
1.02017
1.07416
1.12426
1.48073
2.05302
4.3154
9.59317
10.4363
10.3197
10.2029
10.223
10.2725
10.2527
10.1589
9.93503
9.58457
1.00001
1.00003
1.0001
1.00023
1.00065
1.00132
1.00377
1.0074
1.02286
1.04077
1.14852
1.26054
2.00861
3.3468
8.04013
11.5745
11.2055
10.9613
11.0388
11.2604
11.4903
11.6282
11.73
11.8098
11.8673
1.00001
1.00003
1.0001
1.00022
1.00064
1.0013
1.00372
1.00731
1.02253
1.04022
1.14635
1.2567
1.99173
3.30777
7.93485
11.5836
11.2029
10.9507
11.0293
11.2522
11.482
11.62
11.7233
11.8045
11.8636
1.00001
1.00003
1.0001
1.00022
1.00062
1.00127
1.00361
1.00712
1.02186
1.03914
1.14185
1.24882
1.95581
3.22365
7.69835
11.6012
11.1934
10.9189
10.9966
11.2178
11.4452
11.581
11.6839
11.7651
11.8255
1.00001
1.00003
1.0001
1.00021
1.00059
1.00121
1.00346
1.00683
1.02087
1.03749
1.13507
1.237
1.90194
3.09707
7.33318
11.6295
11.1804
10.8668
10.941
11.1562
11.3797
11.5114
11.6117
11.6921
11.7553
1.00001
1.00003
1.00009
1.0002
1.00057
1.00116
1.00329
1.00661
1.01952
1.03668
1.12393
1.2249
1.82753
2.93269
6.84209
11.6577
11.1657
10.7972
10.8648
11.0701
11.2889
11.4146
11.5102
11.5884
11.6548
1.00001
1.00003
1.00009
1.00019
1.00053
1.00109
1.00307
1.00619
1.01796
1.03498
1.11172
1.20946
1.74323
2.74128
6.24847
11.652
11.1413
10.7127
10.7698
10.9571
11.1682
11.284
11.3701
11.4423
11.5122
1.00001
1.00002
1.00008
1.00017
1.00049
1.001
1.00281
1.00568
1.01636
1.0322
1.10021
1.19229
1.65772
2.54172
5.60937
11.5422
11.0741
10.61
10.6548
10.8157
11.0122
11.1123
11.1812
11.2378
11.304
1
1.00002
1.00007
1.00015
1.00044
1.0009
1.00255
1.00515
1.01483
1.02923
1.09062
1.17387
1.59164
2.38338
5.17762
11.1455
10.8933
10.4942
10.5204
10.6401
10.8115
10.8869
10.9255
10.9473
10.9908
1
1.00002
1.00006
1.00014
1.00039
1.0008
1.00226
1.00457
1.01322
1.0258
1.08181
1.15091
1.53338
2.22222
4.75027
10.4546
10.5941
10.4174
10.3776
10.4381
10.564
10.6008
10.5886
10.5334
10.4822
1
1.00002
1.00005
1.00012
1.00033
1.00067
1.00191
1.0037
1.01158
1.02017
1.07416
1.12426
1.48073
2.05303
4.3154
9.59318
10.4363
10.3197
10.2029
10.223
10.2725
10.2527
10.1589
9.93503
9.58457
1.00001
1.00003
1.0001
1.00023
1.00065
1.00132
1.00377
1.0074
1.02286
1.04077
1.14852
1.26054
2.00861
3.34679
8.04013
11.5745
11.2055
10.9613
11.0388
11.2604
11.4903
11.6282
11.73
11.8098
11.8673
1.00001
1.00003
1.0001
1.00022
1.00064
1.0013
1.00372
1.00731
1.02253
1.04022
1.14635
1.2567
1.99173
3.30777
7.93484
11.5836
11.2029
10.9507
11.0293
11.2522
11.482
11.62
11.7233
11.8045
11.8636
1.00001
1.00003
1.0001
1.00022
1.00062
1.00127
1.00361
1.00712
1.02186
1.03914
1.14185
1.24882
1.95581
3.22365
7.69835
11.6012
11.1934
10.9189
10.9966
11.2178
11.4452
11.581
11.6839
11.7651
11.8255
1.00001
1.00003
1.0001
1.00021
1.00059
1.00121
1.00346
1.00683
1.02087
1.03749
1.13507
1.237
1.90194
3.09707
7.33318
11.6295
11.1804
10.8668
10.941
11.1562
11.3797
11.5114
11.6117
11.6921
11.7553
1.00001
1.00003
1.00009
1.0002
1.00057
1.00116
1.00329
1.00661
1.01952
1.03668
1.12393
1.2249
1.82753
2.93269
6.84209
11.6577
11.1657
10.7972
10.8648
11.0701
11.2889
11.4146
11.5102
11.5884
11.6548
1.00001
1.00003
1.00009
1.00019
1.00053
1.00109
1.00307
1.00619
1.01796
1.03498
1.11172
1.20946
1.74323
2.74128
6.24847
11.652
11.1413
10.7127
10.7698
10.9571
11.1682
11.284
11.3701
11.4423
11.5122
1.00001
1.00002
1.00008
1.00017
1.00049
1.001
1.00281
1.00568
1.01636
1.0322
1.10021
1.19229
1.65772
2.54172
5.60937
11.5422
11.0741
10.61
10.6548
10.8157
11.0122
11.1123
11.1812
11.2378
11.304
1
1.00002
1.00007
1.00015
1.00044
1.0009
1.00255
1.00515
1.01483
1.02923
1.09062
1.17387
1.59164
2.38338
5.17762
11.1455
10.8933
10.4942
10.5204
10.6401
10.8115
10.8869
10.9255
10.9473
10.9908
1
1.00002
1.00006
1.00014
1.00039
1.0008
1.00226
1.00457
1.01322
1.0258
1.08181
1.15091
1.53338
2.22222
4.75027
10.4546
10.5941
10.4174
10.3776
10.4381
10.564
10.6008
10.5886
10.5334
10.4822
1
1.00002
1.00005
1.00012
1.00033
1.00067
1.00191
1.0037
1.01158
1.02017
1.07416
1.12426
1.48073
2.05303
4.3154
9.59318
10.4363
10.3197
10.2029
10.223
10.2725
10.2527
10.1589
9.93503
9.58457
1.00001
1.00003
1.0001
1.00023
1.00065
1.00132
1.00377
1.0074
1.02286
1.04077
1.14852
1.26054
2.00861
3.34679
8.04013
11.5745
11.2055
10.9613
11.0388
11.2604
11.4903
11.6282
11.73
11.8098
11.8673
1.00001
1.00003
1.0001
1.00022
1.00064
1.0013
1.00372
1.00731
1.02253
1.04022
1.14635
1.2567
1.99173
3.30777
7.93484
11.5836
11.2029
10.9507
11.0293
11.2522
11.482
11.62
11.7233
11.8045
11.8636
1.00001
1.00003
1.0001
1.00022
1.00062
1.00127
1.00361
1.00712
1.02186
1.03914
1.14185
1.24882
1.95581
3.22365
7.69835
11.6012
11.1934
10.9189
10.9966
11.2178
11.4452
11.581
11.6839
11.7651
11.8255
1.00001
1.00003
1.0001
1.00021
1.00059
1.00121
1.00346
1.00683
1.02087
1.03749
1.13507
1.237
1.90194
3.09707
7.33318
11.6295
11.1804
10.8668
10.941
11.1562
11.3797
11.5114
11.6117
11.6921
11.7553
1.00001
1.00003
1.00009
1.0002
1.00057
1.00116
1.00329
1.00661
1.01952
1.03668
1.12393
1.2249
1.82753
2.93269
6.84209
11.6577
11.1657
10.7972
10.8648
11.0701
11.2889
11.4146
11.5102
11.5884
11.6548
1.00001
1.00003
1.00009
1.00019
1.00053
1.00109
1.00307
1.00619
1.01796
1.03498
1.11172
1.20946
1.74323
2.74128
6.24847
11.652
11.1413
10.7127
10.7698
10.9571
11.1682
11.284
11.3701
11.4423
11.5122
1.00001
1.00002
1.00008
1.00017
1.00049
1.001
1.00281
1.00568
1.01636
1.0322
1.10021
1.19229
1.65772
2.54172
5.60937
11.5422
11.0741
10.61
10.6548
10.8157
11.0122
11.1123
11.1812
11.2378
11.304
1
1.00002
1.00007
1.00015
1.00044
1.0009
1.00255
1.00515
1.01483
1.02923
1.09062
1.17387
1.59164
2.38338
5.17762
11.1455
10.8933
10.4942
10.5204
10.6401
10.8115
10.8869
10.9255
10.9473
10.9908
1
1.00002
1.00006
1.00014
1.00039
1.0008
1.00226
1.00457
1.01322
1.0258
1.08181
1.15091
1.53338
2.22222
4.75027
10.4546
10.5941
10.4174
10.3776
10.4381
10.564
10.6008
10.5886
10.5334
10.4822
1
1.00002
1.00005
1.00012
1.00033
1.00067
1.00191
1.0037
1.01158
1.02017
1.07416
1.12426
1.48073
2.05303
4.3154
9.59318
10.4363
10.3197
10.2029
10.223
10.2725
10.2527
10.1589
9.93503
9.58457
1.00001
1.00003
1.0001
1.00023
1.00065
1.00132
1.00377
1.0074
1.02286
1.04077
1.14852
1.26054
2.00861
3.34679
8.04013
11.5745
11.2055
10.9613
11.0388
11.2604
11.4903
11.6282
11.73
11.8098
11.8673
1.00001
1.00003
1.0001
1.00022
1.00064
1.0013
1.00372
1.00731
1.02253
1.04022
1.14635
1.2567
1.99173
3.30777
7.93484
11.5836
11.2029
10.9507
11.0293
11.2522
11.482
11.62
11.7233
11.8045
11.8636
1.00001
1.00003
1.0001
1.00022
1.00062
1.00127
1.00361
1.00712
1.02186
1.03914
1.14185
1.24882
1.95581
3.22365
7.69835
11.6012
11.1934
10.9189
10.9966
11.2178
11.4452
11.581
11.6839
11.7651
11.8255
1.00001
1.00003
1.0001
1.00021
1.00059
1.00121
1.00346
1.00683
1.02087
1.03749
1.13507
1.237
1.90194
3.09707
7.33318
11.6295
11.1804
10.8668
10.941
11.1562
11.3797
11.5114
11.6117
11.6921
11.7553
1.00001
1.00003
1.00009
1.0002
1.00057
1.00116
1.00329
1.00661
1.01952
1.03668
1.12393
1.2249
1.82753
2.93269
6.84209
11.6577
11.1657
10.7972
10.8648
11.0701
11.2889
11.4146
11.5102
11.5884
11.6548
1.00001
1.00003
1.00009
1.00019
1.00053
1.00109
1.00307
1.00619
1.01796
1.03498
1.11172
1.20946
1.74323
2.74128
6.24847
11.652
11.1413
10.7127
10.7698
10.9571
11.1682
11.284
11.3701
11.4423
11.5122
1.00001
1.00002
1.00008
1.00017
1.00049
1.001
1.00281
1.00568
1.01636
1.0322
1.10021
1.19229
1.65772
2.54172
5.60937
11.5422
11.0741
10.61
10.6548
10.8157
11.0122
11.1123
11.1812
11.2378
11.304
1
1.00002
1.00007
1.00015
1.00044
1.0009
1.00255
1.00515
1.01483
1.02923
1.09062
1.17387
1.59164
2.38338
5.17762
11.1455
10.8933
10.4942
10.5204
10.6401
10.8115
10.8869
10.9255
10.9473
10.9908
1
1.00002
1.00006
1.00014
1.00039
1.0008
1.00226
1.00457
1.01322
1.0258
1.08181
1.15091
1.53338
2.22222
4.75027
10.4546
10.5941
10.4174
10.3776
10.4381
10.564
10.6008
10.5886
10.5334
10.4822
1
1.00002
1.00005
1.00012
1.00033
1.00067
1.00191
1.0037
1.01158
1.02017
1.07416
1.12426
1.48073
2.05303
4.3154
9.59318
10.4363
10.3197
10.2029
10.223
10.2725
10.2527
10.1589
9.93503
9.58457
1.00001
1.00003
1.0001
1.00023
1.00065
1.00132
1.00377
1.0074
1.02286
1.04077
1.14852
1.26054
2.00861
3.34679
8.04013
11.5745
11.2055
10.9613
11.0388
11.2604
11.4903
11.6282
11.73
11.8098
11.8673
1.00001
1.00003
1.0001
1.00022
1.00064
1.0013
1.00372
1.00731
1.02253
1.04022
1.14635
1.2567
1.99173
3.30777
7.93484
11.5836
11.2029
10.9507
11.0293
11.2522
11.482
11.62
11.7233
11.8045
11.8636
1.00001
1.00003
1.0001
1.00022
1.00062
1.00127
1.00361
1.00712
1.02186
1.03914
1.14185
1.24882
1.95581
3.22365
7.69835
11.6012
11.1934
10.9189
10.9966
11.2178
11.4452
11.581
11.6839
11.7651
11.8255
1.00001
1.00003
1.0001
1.00021
1.00059
1.00121
1.00346
1.00683
1.02087
1.03749
1.13507
1.237
1.90194
3.09707
7.33318
11.6295
11.1804
10.8668
10.941
11.1562
11.3797
11.5114
11.6117
11.6921
11.7553
1.00001
1.00003
1.00009
1.0002
1.00057
1.00116
1.00329
1.00661
1.01952
1.03668
1.12393
1.2249
1.82753
2.93269
6.84209
11.6577
11.1657
10.7972
10.8648
11.0701
11.2889
11.4146
11.5102
11.5884
11.6548
1.00001
1.00003
1.00009
1.00019
1.00053
1.00109
1.00307
1.00619
1.01796
1.03498
1.11172
1.20946
1.74323
2.74128
6.24847
11.652
11.1413
10.7127
10.7698
10.9571
11.1682
11.284
11.3701
11.4423
11.5122
1.00001
1.00002
1.00008
1.00017
1.00049
1.001
1.00281
1.00568
1.01636
1.0322
1.10021
1.19229
1.65772
2.54172
5.60937
11.5422
11.0741
10.61
10.6548
10.8157
11.0122
11.1123
11.1812
11.2378
11.304
1
1.00002
1.00007
1.00015
1.00044
1.0009
1.00255
1.00515
1.01483
1.02923
1.09062
1.17387
1.59164
2.38338
5.17762
11.1455
10.8933
10.4942
10.5204
10.6401
10.8115
10.8869
10.9255
10.9473
10.9908
1
1.00002
1.00006
1.00014
1.00039
1.0008
1.00226
1.00457
1.01322
1.0258
1.08181
1.15091
1.53338
2.22222
4.75027
10.4546
10.5941
10.4174
10.3776
10.4381
10.564
10.6008
10.5886
10.5334
10.4822
1
1.00002
1.00005
1.00012
1.00033
1.00067
1.00191
1.0037
1.01158
1.02017
1.07416
1.12426
1.48073
2.05303
4.3154
9.59318
10.4363
10.3197
10.2029
10.223
10.2725
10.2527
10.1589
9.93503
9.58457
1.00001
1.00003
1.0001
1.00023
1.00065
1.00132
1.00377
1.0074
1.02286
1.04077
1.14852
1.26054
2.00861
3.3468
8.04013
11.5745
11.2055
10.9613
11.0388
11.2604
11.4903
11.6282
11.73
11.8098
11.8673
1.00001
1.00003
1.0001
1.00022
1.00064
1.0013
1.00372
1.00731
1.02253
1.04022
1.14635
1.2567
1.99173
3.30777
7.93485
11.5836
11.2029
10.9507
11.0293
11.2522
11.482
11.62
11.7233
11.8045
11.8636
1.00001
1.00003
1.0001
1.00022
1.00062
1.00127
1.00361
1.00712
1.02186
1.03914
1.14185
1.24882
1.95581
3.22365
7.69835
11.6012
11.1934
10.9189
10.9966
11.2178
11.4452
11.581
11.6839
11.7651
11.8255
1.00001
1.00003
1.0001
1.00021
1.00059
1.00121
1.00346
1.00683
1.02087
1.03749
1.13507
1.237
1.90194
3.09707
7.33318
11.6295
11.1804
10.8668
10.941
11.1562
11.3797
11.5114
11.6117
11.6921
11.7553
1.00001
1.00003
1.00009
1.0002
1.00057
1.00116
1.00329
1.00661
1.01952
1.03668
1.12393
1.2249
1.82753
2.93269
6.84209
11.6577
11.1657
10.7972
10.8648
11.0701
11.2889
11.4146
11.5102
11.5884
11.6548
1.00001
1.00003
1.00009
1.00019
1.00053
1.00109
1.00307
1.00619
1.01796
1.03498
1.11172
1.20946
1.74323
2.74128
6.24847
11.652
11.1413
10.7127
10.7698
10.9571
11.1682
11.284
11.3701
11.4423
11.5122
1.00001
1.00002
1.00008
1.00017
1.00049
1.001
1.00281
1.00568
1.01636
1.0322
1.10021
1.19229
1.65772
2.54172
5.60937
11.5422
11.0741
10.61
10.6548
10.8157
11.0122
11.1123
11.1812
11.2378
11.304
1
1.00002
1.00007
1.00015
1.00044
1.0009
1.00255
1.00515
1.01483
1.02923
1.09062
1.17387
1.59164
2.38338
5.17762
11.1455
10.8933
10.4942
10.5204
10.6401
10.8115
10.8869
10.9255
10.9473
10.9908
1
1.00002
1.00006
1.00014
1.00039
1.0008
1.00226
1.00457
1.01322
1.0258
1.08181
1.15091
1.53338
2.22222
4.75027
10.4546
10.5941
10.4174
10.3776
10.4381
10.564
10.6008
10.5886
10.5334
10.4822
1
1.00002
1.00005
1.00012
1.00033
1.00067
1.00191
1.0037
1.01158
1.02017
1.07416
1.12426
1.48073
2.05303
4.3154
9.59318
10.4363
10.3197
10.2029
10.223
10.2725
10.2527
10.1589
9.93503
9.58457
1.00001
1.00003
1.0001
1.00023
1.00065
1.00132
1.00377
1.0074
1.02286
1.04077
1.14852
1.26053
2.00861
3.34679
8.04011
11.5745
11.2055
10.9613
11.0388
11.2604
11.4903
11.6282
11.73
11.8098
11.8673
1.00001
1.00003
1.0001
1.00022
1.00064
1.0013
1.00372
1.00731
1.02253
1.04022
1.14635
1.2567
1.99173
3.30776
7.93483
11.5836
11.2029
10.9507
11.0293
11.2522
11.482
11.62
11.7233
11.8045
11.8636
1.00001
1.00003
1.0001
1.00022
1.00062
1.00127
1.00361
1.00712
1.02186
1.03914
1.14185
1.24882
1.95581
3.22365
7.69833
11.6012
11.1934
10.9189
10.9966
11.2178
11.4452
11.581
11.6839
11.7651
11.8255
1.00001
1.00003
1.0001
1.00021
1.00059
1.00121
1.00346
1.00683
1.02087
1.03749
1.13507
1.237
1.90194
3.09707
7.33316
11.6295
11.1804
10.8668
10.941
11.1562
11.3797
11.5114
11.6117
11.6921
11.7553
1.00001
1.00003
1.00009
1.0002
1.00057
1.00116
1.00329
1.00661
1.01952
1.03668
1.12393
1.2249
1.82752
2.93268
6.84208
11.6577
11.1657
10.7972
10.8648
11.0701
11.2889
11.4146
11.5102
11.5884
11.6548
1.00001
1.00003
1.00009
1.00019
1.00053
1.00109
1.00307
1.00619
1.01796
1.03498
1.11172
1.20946
1.74323
2.74128
6.24845
11.652
11.1413
10.7127
10.7698
10.9571
11.1682
11.284
11.3701
11.4423
11.5122
1.00001
1.00002
1.00008
1.00017
1.00049
1.001
1.00281
1.00568
1.01636
1.0322
1.10021
1.19229
1.65772
2.54172
5.60936
11.5422
11.0741
10.61
10.6548
10.8157
11.0122
11.1123
11.1812
11.2378
11.304
1
1.00002
1.00007
1.00015
1.00044
1.0009
1.00255
1.00515
1.01483
1.02923
1.09062
1.17387
1.59164
2.38337
5.17761
11.1455
10.8933
10.4942
10.5204
10.6401
10.8115
10.8869
10.9255
10.9473
10.9908
1
1.00002
1.00006
1.00014
1.00039
1.0008
1.00226
1.00457
1.01322
1.0258
1.08181
1.15091
1.53338
2.22221
4.75026
10.4546
10.5941
10.4174
10.3776
10.4381
10.564
10.6008
10.5886
10.5334
10.4822
1
1.00002
1.00005
1.00012
1.00033
1.00067
1.00191
1.0037
1.01158
1.02017
1.07416
1.12426
1.48073
2.05302
4.3154
9.59317
10.4363
10.3197
10.2029
10.223
10.2725
10.2527
10.1589
9.93503
9.58457
1.00001
1.00003
1.0001
1.00022
1.00064
1.00131
1.00376
1.00739
1.02285
1.04075
1.1485
1.26049
2.00857
3.3466
8.03977
11.5745
11.2055
10.9613
11.0387
11.2603
11.4902
11.6281
11.7299
11.8097
11.8672
1.00001
1.00003
1.0001
1.00022
1.00063
1.00129
1.00371
1.0073
1.02252
1.04021
1.14633
1.25665
1.99169
3.30757
7.9345
11.5836
11.2028
10.9506
11.0293
11.2521
11.4819
11.6199
11.7232
11.8044
11.8635
1.00001
1.00003
1.0001
1.00021
1.00061
1.00126
1.00361
1.00711
1.02185
1.03913
1.14183
1.24877
1.95578
3.22347
7.69801
11.6013
11.1934
10.9188
10.9966
11.2177
11.4451
11.5809
11.6838
11.765
11.8254
1.00001
1.00003
1.00009
1.0002
1.00059
1.00121
1.00345
1.00682
1.02086
1.03748
1.13505
1.23695
1.9019
3.0969
7.33284
11.6295
11.1804
10.8667
10.9409
11.1561
11.3796
11.5113
11.6116
11.692
11.7552
1.00001
1.00002
1.00009
1.00019
1.00056
1.00116
1.00329
1.00659
1.01951
1.03665
1.12393
1.22483
1.82754
2.93254
6.84182
11.6576
11.1656
10.7971
10.8647
11.07
11.2888
11.4145
11.5101
11.5883
11.6547
1
1.00002
1.00008
1.00018
1.00053
1.00108
1.00306
1.00618
1.01795
1.03496
1.11171
1.20942
1.74322
2.74116
6.24823
11.6519
11.1412
10.7126
10.7697
10.9571
11.1681
11.2839
11.37
11.4422
11.5121
1
1.00002
1.00008
1.00017
1.00048
1.00099
1.0028
1.00567
1.01636
1.03218
1.1002
1.19225
1.65771
2.54162
5.60922
11.5421
11.074
10.6099
10.6547
10.8156
11.0122
11.1122
11.1811
11.2377
11.3039
1
1.00002
1.00007
1.00015
1.00044
1.0009
1.00254
1.00514
1.01482
1.02922
1.09061
1.17384
1.59163
2.38329
5.17748
11.1453
10.8932
10.4941
10.5203
10.6401
10.8114
10.8869
10.9254
10.9472
10.9907
1
1.00002
1.00006
1.00013
1.00039
1.00079
1.00226
1.00456
1.01321
1.02579
1.0818
1.15087
1.53338
2.22212
4.75016
10.4544
10.594
10.4173
10.3775
10.4381
10.5639
10.6007
10.5886
10.5333
10.4821
1
1.00001
1.00005
1.00011
1.00032
1.00066
1.0019
1.00369
1.01157
1.02015
1.07415
1.12423
1.48073
2.05292
4.31532
9.59293
10.4363
10.3196
10.2028
10.2229
10.2724
10.2526
10.1588
9.93496
9.58451
1
1.00001
1.00004
1.00012
1.00025
1.00071
1.00144
1.00417
1.00813
1.02555
1.04519
1.16502
1.29593
2.11775
3.65239
8.58571
10.3398
10.2322
10.0244
9.98826
9.96078
9.86294
9.60055
8.99267
7.46478
1
1.00001
1.00003
1.0001
1.00021
1.00062
1.00126
1.00359
1.00708
1.02173
1.03892
1.14059
1.24729
1.9416
3.17908
7.39911
10.2566
10.1355
9.86166
9.74381
9.6525
9.45562
9.03959
8.20846
6.61927
1
1.00001
1.00003
1.00009
1.00019
1.00053
1.00109
1.00309
1.00624
1.01813
1.03511
1.11318
1.21043
1.75004
2.74084
6.12451
10.1564
10.0333
9.7196
9.50445
9.34698
9.06921
8.55933
7.70639
6.41159
1
1.00001
1.00002
1.00007
1.00015
1.00044
1.0009
1.00255
1.00516
1.0148
1.02929
1.08916
1.1757
1.57274
2.33438
4.86235
9.85682
9.83974
9.6009
9.28412
9.05647
8.73342
8.20739
7.41808
6.36788
1
1.00001
1.00002
1.00006
1.00012
1.00035
1.00072
1.00203
1.0041
1.0119
1.02279
1.07367
1.1339
1.47034
2.06114
4.18391
9.00514
9.55979
9.40728
9.08244
8.79957
8.45197
7.9501
7.24572
6.36177
1
1
1.00002
1.00004
1.00011
1.00023
1.00066
1.00135
1.00387
1.00748
1.02366
1.04125
1.15147
1.26614
2.0197
3.33806
7.57847
9.28313
9.19056
8.93103
8.58655
8.2194
7.74753
7.11853
6.35711
0.999999
1
1.00001
1.00003
1.00009
1.00019
1.00055
1.00112
1.00316
1.00637
1.01853
1.03545
1.11597
1.21358
1.76125
2.75222
6.022
9.09924
9.0495
8.8269
8.42281
8.03636
7.58514
7.01734
6.34744
0.999998
0.999999
1.00001
1.00002
1.00007
1.00014
1.00042
1.00086
1.00242
1.00489
1.01403
1.02774
1.08415
1.16607
1.53347
2.23036
4.4502
8.70853
8.91409
8.73482
8.32996
7.89484
7.45226
6.93541
6.34044
0.999996
0.999998
1
1.00002
1.00004
1.00013
1.00026
1.00075
1.00152
1.00432
1.00848
1.0259
1.04653
1.16431
1.29758
2.07443
3.50875
7.71327
8.67983
8.55936
8.23954
7.7819
7.34177
6.86468
6.33031
0.999995
0.999996
0.999999
1.00001
1.00003
1.00009
1.0002
1.00056
1.00115
1.00326
1.00644
1.01942
1.03524
1.12333
1.21848
1.79935
2.81084
6.08902
8.41101
8.36815
8.15523
7.70938
7.26039
6.8105
6.3231
0.999994
0.999994
0.999997
1
1.00002
1.00005
1.00016
1.00034
1.00096
1.00193
1.0056
1.01055
1.03435
1.05906
1.21391
1.41613
2.33409
4.26702
7.96438
8.24106
8.08347
7.69564
7.21134
6.76787
6.31552
0.999993
0.999993
0.999995
0.999999
1.00001
1.00004
1.00012
1.00025
1.0007
1.00143
1.00405
1.00797
1.02416
1.04355
1.15262
1.2738
1.98366
3.24459
6.91834
8.02457
7.93506
7.66174
7.19241
6.74316
6.31401
0.999992
0.999993
0.999994
0.999998
1
1.00003
1.00007
1.0002
1.00041
1.00117
1.00229
1.00696
1.01233
1.04362
1.07191
1.27047
1.53325
2.70394
5.21072
7.67979
7.71983
7.5771
7.20923
6.74511
6.31703
0.999992
0.999992
0.999993
0.999996
1
1.00002
1.00005
1.00014
1.0003
1.00085
1.00173
1.00484
1.0097
1.02829
1.05366
1.17297
1.3395
2.0858
3.50382
6.99935
7.5868
7.48625
7.2073
6.76237
6.32971
0.999991
0.999991
0.999992
0.999993
0.999998
1.00001
1.00003
1.00008
1.00023
1.00049
1.00136
1.00275
1.0079
1.01496
1.04812
1.0841
1.29865
1.60132
2.84591
5.46843
7.32185
7.31695
7.17859
6.82631
6.36283
0.999991
0.999991
0.999992
0.999993
0.999996
1
1.00002
1.00005
1.00016
1.00033
1.00093
1.00189
1.00527
1.01054
1.03062
1.05771
1.18498
1.36766
2.12348
3.62654
6.78671
7.21815
7.12486
6.87326
6.42963
0.999991
0.999991
0.999991
0.999992
0.999994
0.999999
1.00001
1.00004
1.00009
1.00025
1.00053
1.00147
1.00298
1.00838
1.01655
1.0495
1.09298
1.30134
1.6473
2.85542
5.50346
6.99213
6.99023
6.86242
6.54991
0.999991
0.999991
0.999991
0.999991
0.999992
0.999996
1
1.00002
1.00005
1.00016
1.00034
1.00095
1.00194
1.00539
1.01064
1.03156
1.05737
1.19311
1.36629
2.15195
3.66865
6.4743
6.88423
6.81366
6.60203
0.999991
0.999991
0.999991
0.999991
0.999992
0.999993
0.999999
1.00001
1.00004
1.00009
1.00026
1.00053
1.00148
1.00299
1.00842
1.01667
1.04919
1.09527
1.29413
1.65132
2.78345
5.26856
6.64568
6.68423
6.58139
0.999991
0.99999
0.999991
0.999991
0.999991
0.999993
0.999995
1
1.00002
1.00006
1.00014
1.00039
1.00081
1.00223
1.0045
1.01263
1.02495
1.07333
1.14518
1.4363
1.97376
3.46794
6.10758
6.56692
6.51783
0.999991
0.99999
0.99999
0.999991
0.999991
0.999992
0.999993
0.999999
1.00001
1.00004
1.00008
1.00025
1.00051
1.00142
1.00287
1.00797
1.01586
1.04596
1.08901
1.27239
1.58911
2.63023
4.86704
6.29778
6.39
0.999991
0.99999
0.99999
0.99999
0.999991
0.999991
0.999992
0.999995
1
1.00002
1.00006
1.00013
1.00036
1.00074
1.00205
1.00414
1.01154
1.02298
1.0658
1.13394
1.38544
1.8634
3.16205
5.68786
6.25777
0.999991
0.99999
0.99999
0.99999
0.99999
0.999991
0.999992
0.999993
0.999998
1.00001
1.00003
1.00008
1.00022
1.00046
1.00128
1.0026
1.00713
1.01426
1.04069
1.0784
1.24064
1.49761
2.42249
4.34139
5.92445
0.999991
0.99999
0.99999
0.99999
0.99999
0.999991
0.999991
0.999992
0.999995
1
1.00002
1.00004
1.00013
1.00028
1.00076
1.00156
1.00425
1.00855
1.02386
1.04676
1.13839
1.27661
1.8095
2.81169
5.18967
0.999991
0.99999
0.99999
0.99999
0.99999
0.99999
0.999991
0.999991
0.999993
0.999996
1.00001
1.00002
1.00007
1.00016
1.00045
1.00093
1.00254
1.00513
1.0142
1.02797
1.08242
1.15795
1.48771
2.0532
3.64431
0.999991
0.99999
0.99999
0.99999
0.99999
0.99999
0.99999
0.999991
0.999992
0.999994
0.999998
1.00001
1.00003
1.0001
1.00022
1.00062
1.00126
1.00344
1.00681
1.01968
1.03615
1.11716
1.21158
1.67863
2.44492
0.999991
0.99999
0.99999
0.99999
0.99999
0.99999
0.99999
0.999991
0.999991
0.999992
0.999995
1
1.00002
1.00005
1.00015
1.00031
1.00084
1.0017
1.00466
1.0093
1.02621
1.05038
1.14977
1.30458
1.8333
0.999991
0.99999
0.99999
0.99999
0.99999
0.99999
0.99999
0.99999
0.999991
0.999991
0.999993
0.999997
1
1.00003
1.00007
1.0002
1.00042
1.00115
1.00233
1.00637
1.01277
1.03576
1.07069
1.20505
1.43515
0.999991
0.99999
0.99999
0.99999
0.99999
0.99999
0.99999
0.99999
0.99999
0.999991
0.999992
0.999994
0.999999
1.00001
1.00004
1.00011
1.00024
1.00065
1.00133
1.00359
1.00724
1.01994
1.03914
1.11478
1.22116
0.999991
0.99999
0.99999
0.99999
0.99999
0.99999
0.99999
0.99999
0.99999
0.999991
0.999991
0.999992
0.999995
1
1.00002
1.00005
1.00015
1.0003
1.00083
1.00169
1.00459
1.0091
1.02565
1.04925
1.14411
0.999991
0.99999
0.99999
0.99999
0.99999
0.99999
0.99999
0.99999
0.99999
0.99999
0.999991
0.999991
0.999993
0.999997
1
1.00003
1.00007
1.00019
1.0004
1.00109
1.00222
1.00605
1.01202
1.0339
1.06584
0.999991
0.99999
0.99999
0.99999
0.99999
0.99999
0.99999
0.99999
0.99999
0.99999
0.999991
0.999991
0.999992
0.999994
0.999999
1.00001
1.00004
1.00009
1.00025
1.00052
1.00141
1.00285
1.00775
1.01564
1.04269
0.999991
0.99999
0.99999
0.99999
0.99999
0.99999
0.99999
0.99999
0.99999
0.99999
0.99999
0.999991
0.999991
0.999992
0.999995
1
1.00002
1.00004
1.00013
1.00028
1.00075
1.00153
1.00411
1.00827
1.02236
0.999991
0.99999
0.99999
0.99999
0.99999
0.99999
0.99999
0.99999
0.99999
0.99999
0.99999
0.99999
0.999991
0.999991
0.999992
0.999996
1
1.00002
1.00006
1.00017
1.00034
1.00093
1.00189
1.00507
1.01015
0.999991
0.99999
0.99999
0.99999
0.99999
0.99999
0.99999
0.99999
0.99999
0.99999
0.99999
0.99999
0.99999
0.999991
0.999992
0.999993
0.999998
1.00001
1.00003
1.00007
1.00021
1.00043
1.00116
1.00235
1.00633
0.999991
0.99999
0.99999
0.99999
0.99999
0.99999
0.99999
0.99999
0.99999
0.99999
0.99999
0.99999
0.99999
0.999991
0.999991
0.999992
0.999994
1
1.00001
1.00004
1.00009
1.00026
1.00054
1.00144
1.00291
0.999991
0.99999
0.99999
0.99999
0.99999
0.99999
0.99999
0.99999
0.99999
0.99999
0.99999
0.99999
0.99999
0.99999
0.999991
0.999991
0.999992
0.999995
1
1.00001
1.00005
1.00012
1.00033
1.00067
1.0018
0.999991
0.99999
0.99999
0.99999
0.99999
0.99999
0.99999
0.99999
0.99999
0.99999
0.99999
0.99999
0.99999
0.99999
0.99999
0.999991
0.999991
0.999993
0.999997
1
1.00003
1.00006
1.00019
1.00039
1.00104
0.999991
0.99999
0.99999
0.99999
0.99999
0.99999
0.99999
0.99999
0.99999
0.99999
0.99999
0.99999
0.99999
0.99999
0.99999
0.999991
0.999991
0.999992
0.999994
1
1.00001
1.00005
1.00011
1.00031
1.00063
0.999991
0.99999
0.99999
0.99999
0.99999
0.99999
0.99999
0.99999
0.99999
0.99999
0.99999
0.99999
0.99999
0.99999
0.99999
0.99999
0.999991
0.999992
0.999993
0.999999
1.00001
1.00004
1.00009
1.00026
1.00053
1
1.00002
1.00004
1.00012
1.00025
1.00072
1.00145
1.00418
1.00814
1.02556
1.04521
1.16504
1.29598
2.11777
3.65254
8.58596
10.3399
10.2322
10.0245
9.98831
9.96083
9.863
9.60061
8.99273
7.46481
1
1.00001
1.00004
1.00011
1.00022
1.00062
1.00127
1.0036
1.00709
1.02174
1.03893
1.1406
1.24733
1.94163
3.17923
7.39937
10.2566
10.1355
9.8617
9.74386
9.65255
9.45568
9.03965
8.20851
6.61931
1
1.00001
1.00003
1.00009
1.00019
1.00054
1.0011
1.0031
1.00625
1.01814
1.03513
1.11318
1.21049
1.75004
2.74097
6.12476
10.1565
10.0333
9.71964
9.5045
9.34703
9.06926
8.55938
7.70644
6.41162
1
1.00001
1.00003
1.00008
1.00016
1.00045
1.00091
1.00256
1.00517
1.01481
1.02931
1.08917
1.17574
1.57276
2.33447
4.86249
9.85695
9.83983
9.60094
9.28416
9.05651
8.73347
8.20743
7.41812
6.36792
1
1.00001
1.00002
1.00006
1.00013
1.00036
1.00073
1.00204
1.00411
1.01191
1.02281
1.07368
1.13395
1.47034
2.06123
4.184
9.00537
9.55986
9.40733
9.08247
8.79961
8.45202
7.95015
7.24576
6.3618
1
1.00001
1.00002
1.00004
1.00012
1.00024
1.00067
1.00136
1.00388
1.0075
1.02367
1.04127
1.15149
1.26618
2.01971
3.3382
7.57868
9.28318
9.19061
8.93107
8.5866
8.21945
7.74757
7.11857
6.35715
1
1
1.00002
1.00003
1.0001
1.0002
1.00055
1.00113
1.00317
1.00638
1.01854
1.03548
1.11597
1.21364
1.76124
2.75234
6.02221
9.09932
9.04956
8.82694
8.42286
8.03641
7.58519
7.01737
6.34748
1
1
1.00001
1.00003
1.00007
1.00015
1.00043
1.00087
1.00243
1.0049
1.01404
1.02776
1.08416
1.1661
1.53349
2.23044
4.45031
8.70868
8.91415
8.73486
8.32999
7.89487
7.45229
6.93545
6.34048
1
1
1.00001
1.00002
1.00005
1.00013
1.00027
1.00076
1.00153
1.00433
1.00849
1.02591
1.04655
1.16433
1.29762
2.07448
3.50888
7.7135
8.67989
8.5594
8.23957
7.78193
7.34179
6.86472
6.33034
1
1
1.00001