/*--------------------------------*- C++ -*----------------------------------*\
| =========                 |                                                 |
| \\      /  F ield         | OpenFOAM: The Open Source CFD Toolbox           |
|  \\    /   O peration     | Version:  4.1                                   |
|   \\  /    A nd           | Web:      www.OpenFOAM.org                      |
|    \\/     M anipulation  |                                                 |
\*---------------------------------------------------------------------------*/
FoamFile
{
    version     2.0;
    format      ascii;
    class       surfaceScalarField;
    location    "6.46";
    object      phi;
}
// * * * * * * * * * * * * * * * * * * * * * * * * * * * * * * * * * * * * * //

dimensions      [1 0 -1 0 0 0 0];

internalField   nonuniform List<scalar> 
150500
(
0.0168001
2.1028e-10
-3.46881e-12
0.0168001
1.16474e-09
-1.16361e-11
0.0168001
4.33788e-09
-1.36289e-11
0.0168
1.1169e-08
-2.15372e-11
0.0168
3.08083e-08
-2.21123e-11
0.0167999
7.11908e-08
-2.96688e-11
0.0167997
1.82284e-07
-3.09666e-11
0.0167993
4.31129e-07
-4.61022e-11
0.0167981
1.00614e-06
-4.09404e-11
0.0167955
2.54338e-06
-1.26655e-10
0.0167886
6.08732e-06
-6.71716e-12
0.016772
1.61767e-05
-3.53564e-10
0.0167142
5.484e-05
-1.57434e-10
0.0165416
0.000167168
-1.1668e-09
0.0155094
0.0010114
-2.41836e-09
0.0143252
0.00118594
8.89669e-11
0.0131328
0.00119188
-2.68298e-10
0.0118693
0.00126145
-4.70864e-10
0.0105271
0.00133976
-4.67833e-10
0.00909471
0.00143039
-4.524e-10
0.00754436
0.00154815
-4.35051e-10
0.0058635
0.00167872
-4.29148e-10
0.00405772
0.00180395
-4.27959e-10
0.00211616
0.00193841
-4.312e-10
0.00211337
-4.35241e-10
0.0168001
4.05672e-10
-3.45403e-12
0.0168001
2.25233e-09
-1.16315e-11
0.0168001
8.37432e-09
-1.35624e-11
0.0168
2.15385e-08
-2.15248e-11
0.0168
5.93252e-08
-2.17297e-11
0.0167999
1.3635e-07
-2.91363e-11
0.0167997
3.53372e-07
-2.9662e-11
0.0167994
8.03563e-07
-4.03795e-11
0.0167982
2.05258e-06
-4.33995e-11
0.0167961
4.60736e-06
-7.8254e-11
0.0167881
1.32704e-05
-9.92927e-11
0.0167716
3.24353e-05
-2.40687e-10
0.016714
0.000109523
-3.27546e-10
0.0165328
0.000343088
-1.22053e-09
0.0154993
0.00202393
-2.59938e-09
0.0142936
0.00239354
2.06427e-10
0.0131073
0.00237771
-1.49745e-10
0.0118561
0.00251044
-4.29145e-10
0.0105199
0.00267343
-4.41817e-10
0.00907235
0.00287581
-4.38014e-10
0.00749934
0.00311882
-4.16443e-10
0.00579753
0.00337828
-4.16813e-10
0.00396877
0.00363075
-4.21533e-10
0.00202041
0.00388369
-4.28951e-10
0.00413109
-4.35515e-10
0.0168001
5.95375e-10
-3.43436e-12
0.0168001
3.28444e-09
-1.16393e-11
0.0168001
1.22346e-08
-1.3525e-11
0.0168
3.13743e-08
-2.15778e-11
0.0168
8.67871e-08
-2.16059e-11
0.0167999
1.9941e-07
-2.91671e-11
0.0167998
5.192e-07
-2.95509e-11
0.0167994
1.18643e-06
-4.05675e-11
0.0167982
3.02187e-06
-4.29946e-11
0.016796
6.88153e-06
-8.0043e-11
0.0167887
1.97398e-05
-9.9944e-11
0.0167719
4.88874e-05
-2.50958e-10
0.0167142
0.000164355
-3.02707e-10
0.0165324
0.000518942
-1.26658e-09
0.015515
0.00302
-2.65167e-09
0.0142839
0.00362669
3.21263e-10
0.013098
0.003563
-9.16589e-11
0.0118613
0.00374482
-4.21626e-10
0.0105409
0.00399133
-4.34868e-10
0.00909933
0.00431529
-4.28139e-10
0.0075239
0.00469194
-3.99052e-10
0.00581775
0.0050821
-4.03887e-10
0.0039755
0.00547125
-4.13303e-10
0.00201589
0.00583965
-4.2548e-10
0.00614399
-4.35113e-10
0.0168001
7.19581e-10
-3.40545e-12
0.0168001
3.97069e-09
-1.16481e-11
0.0168001
1.48283e-08
-1.34812e-11
0.0168
3.79515e-08
-2.1684e-11
0.0168
1.05285e-07
-2.14144e-11
0.0168
2.40784e-07
-2.92602e-11
0.0167998
6.37102e-07
-2.93915e-11
0.0167996
1.41342e-06
-4.05516e-11
0.0167986
3.86235e-06
-4.25566e-11
0.0167972
8.32263e-06
-7.91641e-11
0.0167903
2.5794e-05
-9.88431e-11
0.0167781
6.0685e-05
-2.43524e-10
0.0167071
0.000232499
-3.02555e-10
0.016532
0.000688047
-1.24029e-09
0.0155453
0.0039847
-2.6578e-09
0.0142843
0.00489015
3.37711e-10
0.0131086
0.00473818
-1.04114e-10
0.0118971
0.00495398
-4.32548e-10
0.0106044
0.00528154
-4.39603e-10
0.00918855
0.0057289
-4.2346e-10
0.00762971
0.00624851
-3.89984e-10
0.00592238
0.00678705
-3.94836e-10
0.00406946
0.00732224
-4.07697e-10
0.0020731
0.00783267
-4.19951e-10
0.00821403
-4.31594e-10
0.0168001
8.07489e-10
-3.3753e-12
0.0168001
4.43575e-09
-1.1647e-11
0.0168001
1.65645e-08
-1.34787e-11
0.0168
4.21584e-08
-2.16629e-11
0.0168
1.17371e-07
-2.13946e-11
0.0168
2.66262e-07
-2.91875e-11
0.0167999
7.16995e-07
-2.92488e-11
0.0167998
1.53679e-06
-4.01165e-11
0.016799
4.49619e-06
-4.20122e-11
0.0167981
9.16855e-06
-7.68656e-11
0.0167922
3.09092e-05
-9.63398e-11
0.0167827
6.97986e-05
-2.31219e-10
0.0167119
0.000300515
-2.99328e-10
0.0165552
0.000839941
-1.18198e-09
0.0157053
0.00481107
-2.65189e-09
0.014399
0.00620018
3.23028e-10
0.0132172
0.00592029
-1.25551e-10
0.0120202
0.00614912
-4.34873e-10
0.0107512
0.0065483
-4.39275e-10
0.00935817
0.00711981
-4.1768e-10
0.00782827
0.00777616
-3.85848e-10
0.00613918
0.00847386
-3.89249e-10
0.00425627
0.00920296
-4.03128e-10
0.00219582
0.00989009
-4.1324e-10
0.0104068
-4.26223e-10
0.0168001
8.06935e-10
-3.34495e-12
0.0168001
4.50344e-09
-1.16448e-11
0.0168001
1.6832e-08
-1.35168e-11
0.0168001
4.30045e-08
-2.1531e-11
0.0168001
1.18844e-07
-2.15595e-11
0.0168
2.67238e-07
-2.89468e-11
0.0168
7.38307e-07
-2.91352e-11
0.0168001
1.42666e-06
-3.90317e-11
0.0167992
5.22232e-06
-4.15303e-11
0.0168007
7.71164e-06
-7.18696e-11
0.0167906
4.01765e-05
-8.85732e-11
0.0167875
7.24595e-05
-2.08965e-10
0.016732
0.000353051
-2.64692e-10
0.0166169
0.000950365
-1.04406e-09
0.0160757
0.00532725
-2.4135e-09
0.0147157
0.00756493
2.45454e-10
0.0134893
0.00714782
-2.2952e-10
0.0122838
0.00735305
-4.65492e-10
0.0110436
0.00778629
-4.5504e-10
0.00967383
0.0084878
-4.21912e-10
0.00815308
0.00929484
-3.96806e-10
0.00646513
0.0101597
-3.95749e-10
0.0045604
0.0111055
-4.03951e-10
0.00238863
0.0120586
-4.10507e-10
0.0127924
-4.22445e-10
0.0168001
1.03901e-09
-3.3339e-12
0.0168001
5.70633e-09
-1.15789e-11
0.0168001
2.12256e-08
-1.35977e-11
0.0168
5.42222e-08
-2.13014e-11
0.0168
1.50146e-07
-2.1709e-11
0.0167999
3.42737e-07
-2.86147e-11
0.0167997
9.0724e-07
-2.91827e-11
0.0167992
1.99133e-06
-3.92583e-11
0.0167986
5.66868e-06
-3.90403e-11
0.0167955
1.08123e-05
-1.01932e-10
0.016794
4.07951e-05
-1.37723e-11
0.0167849
8.14934e-05
-2.83845e-10
0.0167755
0.000359419
-1.16338e-10
0.0167473
0.000974477
-9.22609e-10
0.0167974
0.00525133
-2.14632e-09
0.0153609
0.00900567
2.96576e-11
0.0139996
0.00851051
-3.23265e-10
0.0127391
0.00861217
-4.68715e-10
0.0114996
0.00902368
-4.55146e-10
0.010176
0.00980918
-4.2284e-10
0.00867745
0.0107913
-4.08801e-10
0.00697913
0.0118557
-4.07253e-10
0.00502565
0.013057
-4.09258e-10
0.00272842
0.0143526
-4.13655e-10
0.0155176
-4.22244e-10
0.0168001
1.09863e-09
-3.28943e-12
0.0168001
6.08707e-09
-1.15907e-11
0.0168001
2.26791e-08
-1.35562e-11
0.0168001
5.82407e-08
-2.12629e-11
0.0168
1.60549e-07
-2.15379e-11
0.0168
3.67504e-07
-2.82954e-11
0.0167999
9.6287e-07
-2.8175e-11
0.0167998
2.1394e-06
-3.61073e-11
0.0167996
5.74229e-06
-3.90168e-11
0.016798
1.23758e-05
-5.76593e-11
0.0167998
3.82322e-05
-6.45178e-11
0.0168006
8.03225e-05
-1.86524e-10
0.0168364
0.000320713
-1.97893e-10
0.0169482
0.00085878
-7.90826e-10
0.0179542
0.00422035
-1.97572e-09
0.0164842
0.0104793
-1.82117e-10
0.0147979
0.0101994
-3.49501e-10
0.0134715
0.0099378
-4.29265e-10
0.0122116
0.0102816
-4.26708e-10
0.0108731
0.0111455
-4.11941e-10
0.00939579
0.0122662
-4.09768e-10
0.00770892
0.0135401
-4.11894e-10
0.00573542
0.0150277
-4.11104e-10
0.00327719
0.016807
-4.13219e-10
0.0187914
-4.21824e-10
0.0168001
1.38991e-09
-3.25438e-12
0.0168001
6.20531e-09
-1.15952e-11
0.0168001
2.46577e-08
-1.35609e-11
0.0168001
6.09206e-08
-2.12588e-11
0.0168
1.71984e-07
-2.15077e-11
0.0168
3.84075e-07
-2.82144e-11
0.0167999
1.02591e-06
-2.7906e-11
0.0167998
2.22881e-06
-3.54596e-11
0.0167995
5.96532e-06
-3.7521e-11
0.0167989
1.28965e-05
-5.39445e-11
0.0167998
3.68204e-05
-5.6903e-11
0.0168008
7.89743e-05
-1.67786e-10
0.0168315
0.000287475
-1.31595e-10
0.0169455
0.000744554
-5.6716e-10
0.0178303
0.00331853
-1.05821e-09
0.0169937
0.0113052
-8.91839e-10
0.0153451
0.0118452
-4.86094e-10
0.0142285
0.0110532
-4.37691e-10
0.013005
0.0115027
-4.2517e-10
0.0117566
0.0123914
-4.06481e-10
0.010333
0.0136868
-4.07102e-10
0.00875038
0.0151202
-4.10549e-10
0.00687541
0.0169001
-4.09852e-10
0.0042903
0.0193884
-4.07159e-10
0.0230778
-4.14523e-10
0.0168001
-3.3017e-12
2.42869e-09
0.0168001
-1.15374e-11
2.15389e-09
0.0168001
-1.37581e-11
3.31346e-08
0.0168001
-2.13853e-11
3.0666e-08
0.0168
-2.1804e-11
2.20765e-07
0.0168002
-2.86038e-11
2.02569e-07
0.0167999
-2.88487e-11
1.32329e-06
0.016801
-3.76474e-11
1.12332e-06
0.0167986
-3.70352e-11
8.27521e-06
0.0168065
-9.52592e-11
4.84414e-06
0.0167836
-2.34308e-12
5.92869e-05
0.0168409
-2.48246e-10
2.08116e-05
0.0167048
-1.43981e-12
0.000420953
0.0169954
-5.50128e-10
0.000455438
0.0172179
-8.25434e-10
0.00308378
0.0167239
-1.67104e-09
0.0117798
0.0160807
-5.45666e-10
0.0124827
0.0148555
-4.37741e-10
0.012275
0.0137184
-4.09252e-10
0.012639
0.0126565
-4.02885e-10
0.0134508
0.0114812
-4.04381e-10
0.0148591
0.0101598
-4.04719e-10
0.0164382
0.00843757
-4.01225e-10
0.0186186
0.0059501
-3.89759e-10
0.0218719
-3.90242e-10
0.0290229
0.0168001
2.17481e-10
-5.76967e-16
0.0168001
1.17232e-09
-3.02029e-15
0.0168
4.37666e-09
-6.91435e-15
0.0168
1.12017e-08
-1.46827e-14
0.0168
3.10213e-08
-2.89281e-14
0.0167999
7.15762e-08
-5.60379e-14
0.0167997
1.83185e-07
-1.21104e-13
0.0167993
4.34366e-07
-2.61275e-13
0.0167981
1.00691e-06
-5.27865e-13
0.0167955
2.56644e-06
-1.44247e-12
0.0167886
6.05788e-06
-2.153e-12
0.016772
1.62225e-05
-8.06199e-12
0.0167142
5.47445e-05
-2.09467e-11
0.0165417
0.000167093
-6.54369e-11
0.0155099
0.00101106
-1.78936e-10
0.0143258
0.00118587
1.66223e-11
0.0131332
0.00119202
-4.58095e-12
0.0118695
0.00126159
-2.19799e-11
0.0105272
0.00133989
-2.27261e-11
0.00909471
0.00143048
-2.27231e-11
0.00754429
0.00154822
-2.26286e-11
0.00586341
0.00167873
-2.31515e-11
0.00405765
0.00180393
-2.38743e-11
0.00211612
0.00193837
-2.44991e-11
0.00211333
-2.48231e-11
0.0168001
4.15526e-10
-5.56622e-16
0.0168001
2.25762e-09
-2.93315e-15
0.0168001
8.40194e-09
-6.60566e-15
0.0168
2.15412e-08
-1.40246e-14
0.0168
5.94032e-08
-2.68808e-14
0.0167999
1.36441e-07
-5.13751e-14
0.0167997
3.53594e-07
-1.11392e-13
0.0167994
8.03893e-07
-2.16462e-13
0.0167982
2.0538e-06
-5.45774e-13
0.0167961
4.60803e-06
-1.06383e-12
0.0167881
1.3276e-05
-3.29468e-12
0.0167717
3.243e-05
-7.1266e-12
0.0167139
0.000109542
-2.22678e-11
0.0165327
0.000343061
-6.57371e-11
0.0154989
0.00202389
-1.80351e-10
0.0142933
0.00239344
1.80886e-11
0.013107
0.00237771
-4.09721e-12
0.0118559
0.0025105
-2.16747e-11
0.0105198
0.0026735
-2.23301e-11
0.00907225
0.00287587
-2.23082e-11
0.00749928
0.00311885
-2.25168e-11
0.00579748
0.00337828
-2.32121e-11
0.00396873
0.00363072
-2.40234e-11
0.0020204
0.00388363
-2.47468e-11
0.00413103
-2.51411e-11
0.0168001
6.09664e-10
-5.55705e-16
0.0168001
3.29207e-09
-2.92303e-15
0.0168001
1.22662e-08
-6.59641e-15
0.0168
3.13483e-08
-1.40062e-14
0.0168
8.68808e-08
-2.6976e-14
0.0167999
1.9942e-07
-5.17232e-14
0.0167998
5.19316e-07
-1.12374e-13
0.0167994
1.18653e-06
-2.2398e-13
0.0167982
3.02221e-06
-5.42933e-13
0.016796
6.88222e-06
-1.12783e-12
0.0167887
1.97411e-05
-3.22446e-12
0.0167718
4.88922e-05
-7.69872e-12
0.0167142
0.000164363
-1.98455e-11
0.0165324
0.000518979
-6.76234e-11
0.0155148
0.00302011
-1.80424e-10
0.0142837
0.00362662
2.00014e-11
0.0130977
0.00356299
-4.76284e-12
0.0118611
0.00374484
-2.17783e-11
0.0105407
0.00399135
-2.20399e-11
0.00909922
0.0043153
-2.17605e-11
0.00752383
0.00469193
-2.22893e-11
0.00581771
0.00508207
-2.32079e-11
0.00397548
0.00547118
-2.40295e-11
0.00201587
0.00583958
-2.49403e-11
0.00614391
-2.54618e-11
0.0168001
7.34552e-10
-5.49613e-16
0.0168001
3.98383e-09
-2.88997e-15
0.0168001
1.48413e-08
-6.50888e-15
0.0168
3.79725e-08
-1.38221e-14
0.0168
1.05301e-07
-2.65613e-14
0.0168
2.40812e-07
-5.09187e-14
0.0167998
6.37137e-07
-1.10836e-13
0.0167996
1.41357e-06
-2.21409e-13
0.0167986
3.86245e-06
-5.39245e-13
0.0167972
8.3236e-06
-1.11885e-12
0.0167903
2.57954e-05
-3.25236e-12
0.0167781
6.06924e-05
-7.65469e-12
0.0167071
0.000232514
-2.02626e-11
0.016532
0.000688121
-6.78592e-11
0.0155451
0.00398499
-1.83477e-10
0.0142841
0.0048901
2.3314e-11
0.0131083
0.00473815
-3.87832e-12
0.0118969
0.00495396
-2.13434e-11
0.0106042
0.00528151
-2.15262e-11
0.00918842
0.00572887
-2.12513e-11
0.00762962
0.00624846
-2.18328e-11
0.00592232
0.00678698
-2.28102e-11
0.00406943
0.00732215
-2.37952e-11
0.00207308
0.00783257
-2.47552e-11
0.00821394
-2.54537e-11
0.0168001
8.21935e-10
-5.25053e-16
0.0168001
4.44772e-09
-2.78161e-15
0.0168001
1.65584e-08
-6.15213e-15
0.0168
4.22133e-08
-1.30469e-14
0.0168
1.17309e-07
-2.4354e-14
0.0168
2.66305e-07
-4.58306e-14
0.0167999
7.16986e-07
-1.00712e-13
0.0167998
1.53706e-06
-1.78936e-13
0.016799
4.49634e-06
-5.41502e-13
0.0167981
9.16904e-06
-8.72368e-13
0.0167922
3.09134e-05
-3.34792e-12
0.0167827
6.98117e-05
-6.24418e-12
0.0167118
0.00030056
-2.61604e-11
0.0165551
0.000840089
-6.70705e-11
0.0157048
0.00481171
-1.93175e-10
0.0143985
0.00620019
3.0506e-11
0.0132168
0.00592016
8.73528e-13
0.0120198
0.00614902
-1.99295e-11
0.0107509
0.00654821
-2.0588e-11
0.00935796
0.00711973
-2.07266e-11
0.00782812
0.00777605
-2.10402e-11
0.00613909
0.00847373
-2.19757e-11
0.00425621
0.00920284
-2.32647e-11
0.00219579
0.00988995
-2.41883e-11
0.0104067
-2.5081e-11
0.0168001
8.14907e-10
-5.05386e-16
0.0168001
4.54262e-09
-2.6789e-15
0.0168001
1.68266e-08
-5.92447e-15
0.0168001
4.31305e-08
-1.25572e-14
0.0168
1.18889e-07
-2.36481e-14
0.0168
2.6753e-07
-4.48942e-14
0.0168
7.38682e-07
-9.94507e-14
0.0168001
1.42757e-06
-1.80916e-13
0.0167992
5.2249e-06
-5.38632e-13
0.0168007
7.70627e-06
-8.95208e-13
0.0167905
4.02123e-05
-3.44057e-12
0.0167875
7.24426e-05
-6.35909e-12
0.0167319
0.000353157
-2.6845e-11
0.016617
0.000950513
-6.81289e-11
0.0160757
0.00532791
-2.03318e-10
0.0147158
0.00756496
3.8228e-11
0.0134892
0.00714776
6.0938e-12
0.0122837
0.007353
-1.88403e-11
0.0110435
0.00778623
-2.00166e-11
0.00967369
0.00848772
-2.05903e-11
0.00815295
0.00929472
-2.01922e-11
0.00646503
0.0101595
-2.09506e-11
0.00456034
0.0111053
-2.23807e-11
0.0023886
0.0120585
-2.32801e-11
0.0127922
-2.41975e-11
0.0168001
1.06004e-09
-5.12224e-16
0.0168001
5.71778e-09
-2.74169e-15
0.0168001
2.12638e-08
-6.0245e-15
0.0168
5.42737e-08
-1.25529e-14
0.0168
1.50293e-07
-2.35779e-14
0.0167999
3.43025e-07
-4.39062e-14
0.0167997
9.08022e-07
-9.33436e-14
0.0167992
1.99331e-06
-1.70058e-13
0.0167986
5.67066e-06
-5.33644e-13
0.0167955
1.08339e-05
-4.81671e-13
0.0167941
4.07812e-05
-3.47825e-12
0.0167848
8.15472e-05
-5.07722e-12
0.0167756
0.000359403
-2.46628e-11
0.0167473
0.000974607
-6.57427e-11
0.0167975
0.005252
-2.04721e-10
0.0153611
0.00900561
4.49198e-11
0.0139997
0.00851048
9.57987e-12
0.0127392
0.00861217
-1.75852e-11
0.0114996
0.00902366
-1.96758e-11
0.010176
0.00980914
-2.12153e-11
0.00867741
0.0107912
-1.98489e-11
0.00697908
0.0118555
-2.03587e-11
0.0050256
0.0130569
-2.16994e-11
0.00272839
0.0143524
-2.25965e-11
0.0155174
-2.31864e-11
0.0168001
1.11499e-09
-5.14298e-16
0.0168001
6.09265e-09
-2.74699e-15
0.0168001
2.26857e-08
-6.05893e-15
0.0168001
5.82341e-08
-1.26006e-14
0.0168
1.60545e-07
-2.38966e-14
0.0168
3.67518e-07
-4.44795e-14
0.0167999
9.6299e-07
-9.57033e-14
0.0167998
2.13979e-06
-1.8074e-13
0.0167996
5.74331e-06
-4.85891e-13
0.016798
1.23784e-05
-8.77311e-13
0.0167998
3.82384e-05
-3.26445e-12
0.0168007
8.0336e-05
-5.17503e-12
0.0168364
0.000320768
-2.42242e-11
0.0169481
0.000858947
-5.98573e-11
0.0179536
0.00422145
-1.96349e-10
0.0164838
0.0104791
1.1503e-11
0.0147978
0.0101991
1.62353e-12
0.0134714
0.00993771
-1.79516e-11
0.0122116
0.0102816
-2.01688e-11
0.0108731
0.0111454
-2.21916e-11
0.0093958
0.0122662
-2.0384e-11
0.00770891
0.01354
-2.05304e-11
0.00573541
0.0150275
-2.14755e-11
0.00327718
0.0168068
-2.21041e-11
0.0187912
-2.22213e-11
0.0168001
1.35311e-09
-5.03465e-16
0.0168001
6.31832e-09
-2.69867e-15
0.0168001
2.45059e-08
-5.89331e-15
0.0168001
6.07848e-08
-1.22388e-14
0.0168
1.71685e-07
-2.27133e-14
0.0168
3.83756e-07
-4.20092e-14
0.0167999
1.0253e-06
-8.72947e-14
0.0167998
2.22784e-06
-1.64764e-13
0.0167995
5.96485e-06
-4.12926e-13
0.016799
1.28848e-05
-8.12291e-13
0.0167998
3.68298e-05
-2.21549e-12
0.0168008
7.8966e-05
-5.30909e-12
0.0168315
0.000287512
-1.43857e-11
0.0169457
0.000744625
-3.77831e-11
0.017831
0.00331901
-9.93134e-11
0.016994
0.0113055
-6.5579e-11
0.0153451
0.0118452
-2.18431e-11
0.0142286
0.0110531
-2.40656e-11
0.0130051
0.0115027
-2.41426e-11
0.0117566
0.0123913
-2.41573e-11
0.0103331
0.0136868
-2.30306e-11
0.00875042
0.0151201
-2.27189e-11
0.00687543
0.0169
-2.29562e-11
0.00429031
0.0193883
-2.32444e-11
0.0230776
-2.26757e-11
0.0168001
-5.20528e-16
2.29902e-09
0.0168001
-2.76359e-15
2.52991e-09
0.0168001
-6.14086e-15
3.19924e-08
0.0168001
-1.27042e-14
3.11192e-08
0.0168
-2.4428e-14
2.19571e-07
0.0168002
-4.53249e-14
2.03116e-07
0.0167999
-9.87177e-14
1.32231e-06
0.016801
-1.97048e-13
1.12438e-06
0.0167986
-3.89383e-13
8.27332e-06
0.0168064
-1.517e-12
4.8538e-06
0.0167836
-9.38118e-13
5.92632e-05
0.0168409
-6.97828e-12
2.08501e-05
0.0167049
-1.28177e-11
0.000420883
0.0169954
-3.49853e-11
0.000455583
0.0172182
-8.89857e-11
0.00308393
0.0167242
-1.54403e-10
0.01178
0.016081
-3.58997e-11
0.0124827
0.0148556
-2.54329e-11
0.012275
0.0137185
-2.53507e-11
0.0126389
0.0126566
-2.5701e-11
0.0134508
0.0114813
-2.59851e-11
0.0148591
0.0101599
-2.57107e-11
0.0164381
0.00843764
-2.54414e-11
0.0186184
0.00595014
-2.54992e-11
0.0218718
-2.63433e-11
0.0290227
0.0168001
2.1749e-10
1.956e-16
0.0168001
1.17237e-09
1.08093e-16
0.0168
4.37683e-09
-5.1431e-17
0.0168
1.12022e-08
-1.11483e-16
0.0168
3.10225e-08
-3.17198e-16
0.0167999
7.15791e-08
-6.61238e-16
0.0167997
1.83192e-07
-1.77385e-15
0.0167993
4.3439e-07
-4.12547e-15
0.0167981
1.00692e-06
-8.81788e-15
0.0167955
2.56662e-06
-2.55202e-14
0.0167886
6.05766e-06
-4.61546e-14
0.016772
1.62229e-05
-1.48136e-13
0.0167142
5.47438e-05
-3.93279e-13
0.0165417
0.000167093
-1.23992e-12
0.0155099
0.00101106
-3.42137e-12
0.0143258
0.00118587
1.35501e-13
0.0131332
0.00119202
-3.02159e-13
0.0118695
0.00126159
-6.81013e-13
0.0105272
0.00133989
-7.10504e-13
0.00909471
0.00143048
-7.60122e-13
0.00754429
0.00154822
-7.76954e-13
0.0058634
0.00167873
-8.11188e-13
0.00405764
0.00180393
-8.59763e-13
0.00211612
0.00193837
-8.51711e-13
0.00211333
-8.83814e-13
0.0168001
4.15526e-10
1.92573e-16
0.0168001
2.25763e-09
1.24333e-16
0.0168001
8.40196e-09
-4.58507e-17
0.0168
2.15413e-08
-9.93595e-17
0.0168
5.94034e-08
-2.79156e-16
0.0167999
1.36441e-07
-5.73517e-16
0.0167997
3.53595e-07
-1.59053e-15
0.0167994
8.03892e-07
-3.27456e-15
0.0167982
2.0538e-06
-9.15523e-15
0.0167961
4.60801e-06
-1.82938e-14
0.0167881
1.32761e-05
-5.96197e-14
0.0167717
3.24297e-05
-1.30106e-13
0.0167139
0.000109543
-4.17493e-13
0.0165327
0.000343061
-1.243e-12
0.0154989
0.00202389
-3.44307e-12
0.0142933
0.00239344
1.60765e-13
0.013107
0.00237771
-2.95208e-13
0.0118559
0.0025105
-6.80722e-13
0.0105198
0.0026735
-7.10273e-13
0.00907226
0.00287587
-7.61323e-13
0.00749928
0.00311885
-7.79968e-13
0.00579748
0.00337828
-8.11902e-13
0.00396874
0.00363072
-8.56917e-13
0.0020204
0.00388363
-8.43861e-13
0.00413103
-8.72858e-13
0.0168001
6.09667e-10
1.92483e-16
0.0168001
3.29209e-09
1.25989e-16
0.0168001
1.22663e-08
-4.54908e-17
0.0168
3.13485e-08
-9.85701e-17
0.0168
8.68813e-08
-2.79356e-16
0.0167999
1.99422e-07
-5.76299e-16
0.0167998
5.19318e-07
-1.59876e-15
0.0167994
1.18653e-06
-3.38631e-15
0.0167982
3.02222e-06
-9.06211e-15
0.016796
6.88224e-06
-1.93252e-14
0.0167887
1.97411e-05
-5.80625e-14
0.0167718
4.88923e-05
-1.39859e-13
0.0167142
0.000164363
-3.71689e-13
0.0165324
0.000518979
-1.27365e-12
0.0155148
0.00302011
-3.43832e-12
0.0142837
0.00362661
1.92695e-13
0.0130977
0.00356298
-3.10198e-13
0.0118611
0.00374484
-6.92831e-13
0.0105407
0.00399135
-7.18223e-13
0.00909923
0.00431531
-7.66363e-13
0.00752384
0.00469194
-7.88871e-13
0.00581772
0.00508207
-8.13416e-13
0.00397548
0.00547119
-8.59801e-13
0.00201588
0.00583958
-8.38424e-13
0.00614391
-8.6198e-13
0.0168001
7.34564e-10
1.91584e-16
0.0168001
3.98389e-09
1.31617e-16
0.0168001
1.48415e-08
-4.37916e-17
0.0168
3.79731e-08
-9.49194e-17
0.0168
1.05303e-07
-2.7069e-16
0.0168
2.40816e-07
-5.58873e-16
0.0167998
6.37146e-07
-1.56166e-15
0.0167996
1.4136e-06
-3.31814e-15
0.0167986
3.86247e-06
-8.93993e-15
0.0167972
8.32375e-06
-1.90282e-14
0.0167903
2.57955e-05
-5.81885e-14
0.0167781
6.06931e-05
-1.38037e-13
0.0167071
0.000232511
-3.77185e-13
0.016532
0.000688121
-1.26973e-12
0.0155451
0.00398499
-3.47743e-12
0.0142841
0.00489009
2.49893e-13
0.0131083
0.00473815
-3.02223e-13
0.0118969
0.00495396
-6.99408e-13
0.0106042
0.00528152
-7.26149e-13
0.00918843
0.00572887
-7.7472e-13
0.00762963
0.00624846
-7.9993e-13
0.00592233
0.00678699
-8.20113e-13
0.00406943
0.00732216
-8.59888e-13
0.00207309
0.00783258
-8.38567e-13
0.00821395
-8.52191e-13
0.0168001
8.21947e-10
1.87586e-16
0.0168001
4.44779e-09
1.49975e-16
0.0168001
1.65586e-08
-3.756e-17
0.0168
4.22138e-08
-8.12999e-17
0.0168
1.1731e-07
-2.31087e-16
0.0168
2.66308e-07
-4.68026e-16
0.0167999
7.16991e-07
-1.37312e-15
0.0167998
1.53707e-06
-2.56243e-15
0.016799
4.49636e-06
-8.86791e-15
0.0167981
9.16909e-06
-1.45906e-14
0.0167922
3.09135e-05
-5.92706e-14
0.0167827
6.98118e-05
-1.11538e-13
0.0167118
0.00030056
-4.78464e-13
0.0165551
0.000840089
-1.24177e-12
0.0157048
0.00481171
-3.61631e-12
0.0143985
0.00620018
3.73735e-13
0.0132168
0.00592016
-2.34089e-13
0.0120198
0.00614902
-6.909e-13
0.0107509
0.00654821
-7.25952e-13
0.00935797
0.00711973
-7.83845e-13
0.00782812
0.00777605
-8.05525e-13
0.00613909
0.00847374
-8.27948e-13
0.00425622
0.00920284
-8.59179e-13
0.0021958
0.00988996
-8.46309e-13
0.0104067
-8.48279e-13
0.0168001
8.14902e-10
1.83354e-16
0.0168001
4.54259e-09
1.67084e-16
0.0168001
1.68265e-08
-3.40372e-17
0.0168001
4.31304e-08
-7.38757e-17
0.0168001
1.18889e-07
-2.18707e-16
0.0168
2.6753e-07
-4.49649e-16
0.0168
7.38683e-07
-1.33877e-15
0.0168001
1.42757e-06
-2.56044e-15
0.0167992
5.2249e-06
-8.72299e-15
0.0168007
7.70639e-06
-1.47356e-14
0.0167905
4.02121e-05
-5.99271e-14
0.0167875
7.24431e-05
-1.1161e-13
0.0167319
0.000353158
-4.82555e-13
0.016617
0.000950517
-1.23991e-12
0.0160757
0.00532793
-3.73789e-12
0.0147157
0.00756494
5.03444e-13
0.0134892
0.00714775
-1.6758e-13
0.0122837
0.007353
-6.90333e-13
0.0110435
0.00778623
-7.31316e-13
0.00967369
0.00848772
-7.99519e-13
0.00815295
0.00929472
-8.1517e-13
0.00646504
0.0101595
-8.42889e-13
0.00456034
0.0111053
-8.71876e-13
0.0023886
0.0120585
-8.62834e-13
0.0127922
-8.58995e-13
0.0168001
1.06004e-09
1.85686e-16
0.0168001
5.71777e-09
1.5635e-16
0.0168001
2.12638e-08
-3.44463e-17
0.0168
5.42736e-08
-7.49218e-17
0.0168
1.50293e-07
-2.11565e-16
0.0167999
3.43024e-07
-4.34245e-16
0.0167997
9.08021e-07
-1.23794e-15
0.0167992
1.99331e-06
-2.39294e-15
0.0167986
5.67068e-06
-8.49879e-15
0.0167955
1.08338e-05
-8.79837e-15
0.0167941
4.07817e-05
-6.87159e-14
0.0167848
8.15475e-05
-9.11114e-14
0.0167756
0.000359406
-4.79404e-13
0.0167473
0.000974616
-1.17751e-12
0.0167974
0.00525206
-3.69876e-12
0.015361
0.00900559
4.25326e-13
0.0139997
0.00851046
-1.35286e-13
0.0127392
0.00861215
-6.84768e-13
0.0114996
0.00902366
-7.3688e-13
0.010176
0.00980913
-8.2007e-13
0.0086774
0.0107912
-8.35108e-13
0.00697907
0.0118555
-8.64593e-13
0.0050256
0.0130569
-9.00538e-13
0.00272839
0.0143524
-8.89598e-13
0.0155174
-8.84441e-13
0.0168001
1.115e-09
1.86239e-16
0.0168001
6.09268e-09
1.55503e-16
0.0168001
2.26858e-08
-3.39101e-17
0.0168001
5.82342e-08
-7.32641e-17
0.0168
1.60545e-07
-2.09396e-16
0.0168
3.67519e-07
-4.2817e-16
0.0167999
9.62994e-07
-1.23165e-15
0.0167998
2.13979e-06
-2.46283e-15
0.0167996
5.74334e-06
-7.58329e-15
0.016798
1.23785e-05
-1.39989e-14
0.0167998
3.82389e-05
-5.46626e-14
0.0168007
8.03363e-05
-8.86561e-14
0.0168364
0.000320775
-4.18832e-13
0.0169481
0.000858964
-1.05159e-12
0.0179536
0.00422157
-3.47658e-12
0.0164838
0.0104791
1.85209e-14
0.0147977
0.0101991
-2.87232e-13
0.0134714
0.00993769
-6.99086e-13
0.0122116
0.0102815
-7.51714e-13
0.0108731
0.0111454
-8.41705e-13
0.00939579
0.0122662
-8.7084e-13
0.0077089
0.0135399
-9.05083e-13
0.0057354
0.0150275
-9.41516e-13
0.00327717
0.0168069
-9.38298e-13
0.0187912
-9.2874e-13
0.0168001
1.3531e-09
1.84485e-16
0.0168001
6.31833e-09
1.63198e-16
0.0168001
2.45058e-08
-3.02179e-17
0.0168001
6.07848e-08
-6.53333e-17
0.0168
1.71684e-07
-1.84079e-16
0.0168
3.83756e-07
-3.75768e-16
0.0167999
1.0253e-06
-1.05971e-15
0.0167998
2.22783e-06
-2.13293e-15
0.0167995
5.96488e-06
-6.18612e-15
0.016799
1.28846e-05
-1.25015e-14
0.0167998
3.68303e-05
-3.64415e-14
0.0168008
7.8966e-05
-8.67539e-14
0.0168315
0.000287515
-2.48193e-13
0.0169457
0.000744632
-6.52368e-13
0.0178311
0.00331906
-1.74854e-12
0.016994
0.0113055
-1.31197e-12
0.0153451
0.0118452
-6.94874e-13
0.0142285
0.011053
-7.90785e-13
0.0130051
0.0115027
-8.14478e-13
0.0117566
0.0123913
-8.73792e-13
0.010333
0.0136867
-9.24968e-13
0.00875041
0.0151201
-9.66714e-13
0.00687542
0.0169
-9.93891e-13
0.00429031
0.0193883
-1.02464e-12
0.0230776
-1.01558e-12
0.0168001
1.87521e-16
2.29901e-09
0.0168001
1.53986e-16
2.53001e-09
0.0168001
-3.2554e-17
3.19925e-08
0.0168001
-6.96371e-17
3.11199e-08
0.0168
-2.04612e-16
2.19572e-07
0.0168002
-4.162e-16
2.0312e-07
0.0167999
-1.21351e-15
1.32233e-06
0.016801
-2.59972e-15
1.1244e-06
0.0167986
-5.72372e-15
8.27338e-06
0.0168064
-2.33769e-14
4.85401e-06
0.0167836
-1.78374e-14
5.92634e-05
0.0168409
-1.1358e-13
2.0851e-05
0.0167049
-1.78347e-13
0.000420886
0.0169954
-6.02874e-13
0.000455589
0.0172182
-1.56593e-12
0.00308396
0.0167242
-2.82189e-12
0.0117801
0.016081
-9.4427e-13
0.0124827
0.0148556
-7.90884e-13
0.012275
0.0137185
-8.41956e-13
0.0126389
0.0126566
-8.91009e-13
0.0134508
0.0114813
-9.94605e-13
0.0148591
0.0101599
-1.02951e-12
0.016438
0.00843763
-1.08732e-12
0.0186184
0.00595013
-1.15054e-12
0.0218718
-1.16379e-12
0.0290227
0.0168001
2.1749e-10
-1.08068e-16
0.0168001
1.17237e-09
-3.80031e-16
0.0168
4.37684e-09
-1.06082e-15
0.0168
1.12022e-08
-2.10861e-15
0.0168
3.10226e-08
-5.66077e-15
0.0167999
7.15792e-08
-1.15245e-14
0.0167997
1.83192e-07
-3.06356e-14
0.0167993
4.34391e-07
-7.07982e-14
0.0167981
1.00692e-06
-1.52143e-13
0.0167955
2.56662e-06
-4.35865e-13
0.0167886
6.05765e-06
-8.07133e-13
0.016772
1.62229e-05
-2.53769e-12
0.0167142
5.47438e-05
-6.95398e-12
0.0165417
0.000167093
-2.16975e-11
0.0155099
0.00101106
-6.21638e-11
0.0143258
0.00118587
4.19346e-12
0.0131332
0.00119202
-2.16484e-12
0.0118695
0.00126159
-7.98209e-12
0.0105272
0.00133989
-8.39102e-12
0.00909471
0.00143048
-8.49279e-12
0.00754429
0.00154822
-8.15734e-12
0.0058634
0.00167873
-7.9797e-12
0.00405764
0.00180393
-7.83823e-12
0.00211612
0.00193837
-8.04059e-12
0.00211333
-7.84529e-12
0.0168001
4.15526e-10
-9.77518e-17
0.0168001
2.25763e-09
-3.47483e-16
0.0168001
8.40196e-09
-9.57997e-16
0.0168
2.15413e-08
-1.89591e-15
0.0168
5.94034e-08
-5.01026e-15
0.0167999
1.36441e-07
-1.00242e-14
0.0167997
3.53595e-07
-2.75537e-14
0.0167994
8.03892e-07
-5.62715e-14
0.0167982
2.0538e-06
-1.5846e-13
0.0167961
4.60801e-06
-3.13793e-13
0.0167881
1.32761e-05
-1.03619e-12
0.0167717
3.24297e-05
-2.2409e-12
0.0167139
0.000109543
-7.39002e-12
0.0165327
0.000343061
-2.17953e-11
0.0154989
0.00202389
-6.26224e-11
0.0142933
0.00239344
4.65053e-12
0.013107
0.00237771
-1.99135e-12
0.0118559
0.0025105
-7.87937e-12
0.0105198
0.0026735
-8.26685e-12
0.00907226
0.00287587
-8.37267e-12
0.00749928
0.00311885
-8.128e-12
0.00579748
0.00337828
-8.01026e-12
0.00396874
0.00363072
-7.89872e-12
0.0020204
0.00388363
-8.13378e-12
0.00413103
-7.95563e-12
0.0168001
6.09667e-10
-9.7585e-17
0.0168001
3.29209e-09
-3.45708e-16
0.0168001
1.22663e-08
-9.58226e-16
0.0168
3.13485e-08
-1.8956e-15
0.0168
8.68813e-08
-5.05344e-15
0.0167999
1.99422e-07
-1.01577e-14
0.0167998
5.19318e-07
-2.79191e-14
0.0167994
1.18653e-06
-5.87587e-14
0.0167982
3.02222e-06
-1.57905e-13
0.016796
6.88224e-06
-3.34672e-13
0.0167887
1.97411e-05
-1.01645e-12
0.0167718
4.88923e-05
-2.42696e-12
0.0167142
0.000164363
-6.6263e-12
0.0165324
0.000518979
-2.2434e-11
0.0155148
0.00302011
-6.27496e-11
0.0142837
0.00362661
5.24063e-12
0.0130977
0.00356298
-2.18148e-12
0.0118611
0.00374484
-7.93161e-12
0.0105407
0.00399135
-8.21194e-12
0.00909923
0.00431531
-8.26726e-12
0.00752384
0.00469194
-8.11501e-12
0.00581772
0.00508207
-8.08992e-12
0.00397548
0.00547119
-7.9786e-12
0.00201588
0.00583958
-8.28712e-12
0.00614391
-8.16255e-12
0.0168001
7.34564e-10
-9.48939e-17
0.0168001
3.9839e-09
-3.36062e-16
0.0168001
1.48415e-08
-9.33837e-16
0.0168
3.79731e-08
-1.84405e-15
0.0168
1.05303e-07
-4.94316e-15
0.0168
2.40816e-07
-9.9391e-15
0.0167998
6.37146e-07
-2.75272e-14
0.0167996
1.4136e-06
-5.81089e-14
0.0167986
3.86247e-06
-1.5735e-13
0.0167972
8.32375e-06
-3.32778e-13
0.0167903
2.57955e-05
-1.02895e-12
0.0167781
6.06931e-05
-2.41996e-12
0.0167071
0.000232511
-6.78816e-12
0.016532
0.000688121
-2.25579e-11
0.0155451
0.00398499
-6.38981e-11
0.0142841
0.00489009
6.2948e-12
0.0131083
0.00473815
-1.86532e-12
0.0118969
0.00495396
-7.84739e-12
0.0106042
0.00528152
-8.12439e-12
0.00918843
0.00572887
-8.23134e-12
0.00762963
0.00624846
-8.09873e-12
0.00592233
0.00678699
-8.12722e-12
0.00406943
0.00732216
-8.09581e-12
0.00207309
0.00783258
-8.42665e-12
0.00821395
-8.38808e-12
0.0168001
8.21947e-10
-8.27365e-17
0.0168001
4.44779e-09
-2.96312e-16
0.0168001
1.65586e-08
-8.18947e-16
0.0168
4.22138e-08
-1.60711e-15
0.0168
1.1731e-07
-4.27869e-15
0.0168
2.66308e-07
-8.40297e-15
0.0167999
7.16991e-07
-2.45009e-14
0.0167998
1.53707e-06
-4.5069e-14
0.016799
4.49636e-06
-1.58829e-13
0.0167981
9.1691e-06
-2.56684e-13
0.0167922
3.09135e-05
-1.06334e-12
0.0167827
6.98118e-05
-1.98202e-12
0.0167118
0.00030056
-8.71527e-12
0.0165551
0.000840089
-2.23479e-11
0.0157048
0.00481171
-6.71803e-11
0.0143985
0.00620018
8.58505e-12
0.0132168
0.00592016
-1.86539e-13
0.0120198
0.00614902