/*--------------------------------*- C++ -*----------------------------------*\
| =========                 |                                                 |
| \\      /  F ield         | OpenFOAM: The Open Source CFD Toolbox           |
|  \\    /   O peration     | Version:  4.1                                   |
|   \\  /    A nd           | Web:      www.OpenFOAM.org                      |
|    \\/     M anipulation  |                                                 |
\*---------------------------------------------------------------------------*/
FoamFile
{
    version     2.0;
    format      ascii;
    class       volVectorField;
    location    "6.06";
    object      U;
}
// * * * * * * * * * * * * * * * * * * * * * * * * * * * * * * * * * * * * * //

dimensions      [0 1 -1 0 0 0 0];

internalField   nonuniform List<vector> 
52500
(
(3 1.5011e-08 -0.00571426)
(2.99998 8.35427e-08 -0.0057144)
(2.99996 3.10475e-07 -0.00571462)
(2.99989 7.9961e-07 -0.0057153)
(2.99974 2.1972e-06 -0.00571655)
(2.99933 5.05341e-06 -0.00572035)
(2.99853 1.30098e-05 -0.00572777)
(2.99602 2.96953e-05 -0.00574794)
(2.99166 7.39436e-05 -0.00579707)
(2.97511 0.000166736 -0.00589623)
(2.94582 0.000448404 -0.00627586)
(2.83555 0.00104664 -0.00681191)
(2.53382 0.00285902 -0.00939382)
(1.80916 0.0075785 -0.0142369)
(0.807404 0.0213512 -0.0177496)
(0.492902 0.0214212 -0.018487)
(0.555354 0.0226976 -0.0185044)
(0.572272 0.0249561 -0.0185493)
(0.522867 0.0271389 -0.0187323)
(0.435633 0.0292278 -0.0189137)
(0.349004 0.0318194 -0.0191148)
(0.277992 0.0350543 -0.0192832)
(0.207296 0.0385738 -0.0194528)
(0.125555 0.0428353 -0.019622)
(0.0558243 0.0492893 -0.019777)
(3 4.50675e-08 -0.00571426)
(2.99998 2.50293e-07 -0.0057144)
(2.99996 9.31705e-07 -0.00571461)
(2.99989 2.39707e-06 -0.00571528)
(2.99975 6.60127e-06 -0.00571652)
(2.99934 1.51752e-05 -0.00572026)
(2.99855 3.92192e-05 -0.00572758)
(2.99607 8.93536e-05 -0.00574741)
(2.99177 0.00022454 -0.00579603)
(2.97541 0.000504279 -0.00589337)
(2.94657 0.00137492 -0.00626902)
(2.8374 0.00320211 -0.00679474)
(2.53978 0.00894026 -0.00935826)
(1.82285 0.0237132 -0.0141477)
(0.814608 0.0656363 -0.0176453)
(0.489072 0.0627128 -0.0184152)
(0.553593 0.0638203 -0.0184303)
(0.57115 0.0681549 -0.0184675)
(0.521224 0.0720985 -0.0186427)
(0.433815 0.075738 -0.0188168)
(0.347297 0.0802544 -0.01901)
(0.27584 0.0856615 -0.0191673)
(0.204113 0.0908945 -0.019329)
(0.121113 0.0962956 -0.0194834)
(0.0513259 0.102386 -0.0196197)
(3 7.40739e-08 -0.00571426)
(2.99998 4.10383e-07 -0.00571439)
(2.99996 1.53238e-06 -0.0057146)
(2.99989 3.94172e-06 -0.00571525)
(2.99975 1.08987e-05 -0.00571645)
(2.99936 2.50889e-05 -0.00572009)
(2.9986 6.51669e-05 -0.00572721)
(2.99618 0.00014895 -0.00574637)
(2.992 0.000376371 -0.00579394)
(2.97605 0.000846835 -0.00588772)
(2.94813 0.00233686 -0.00625502)
(2.84136 0.00543606 -0.00676052)
(2.55276 0.0154556 -0.00928342)
(1.85351 0.04099 -0.0139701)
(0.831986 0.114173 -0.0174914)
(0.483657 0.106833 -0.0183325)
(0.552836 0.107336 -0.0183454)
(0.572262 0.114626 -0.0183738)
(0.52201 0.121709 -0.0185413)
(0.434997 0.129001 -0.0187056)
(0.349293 0.13752 -0.0188891)
(0.277818 0.1471 -0.0190391)
(0.205333 0.156505 -0.0191848)
(0.121264 0.165559 -0.0193356)
(0.0501296 0.173429 -0.0194583)
(3 9.48506e-08 -0.00571425)
(2.99998 5.24493e-07 -0.00571439)
(2.99996 1.96093e-06 -0.00571459)
(2.9999 5.02734e-06 -0.00571521)
(2.99976 1.3941e-05 -0.00571636)
(2.99939 3.192e-05 -0.00571983)
(2.99866 8.41998e-05 -0.00572666)
(2.99633 0.000187213 -0.00574478)
(2.99235 0.000504567 -0.00579083)
(2.97702 0.00108268 -0.00587916)
(2.9505 0.00321457 -0.00623382)
(2.84748 0.00715083 -0.0067083)
(2.57284 0.0233865 -0.00916801)
(1.90097 0.0589998 -0.0137038)
(0.858166 0.165524 -0.017289)
(0.474523 0.15203 -0.0182435)
(0.552032 0.150426 -0.0182544)
(0.575309 0.160318 -0.018268)
(0.525399 0.17056 -0.0184242)
(0.439575 0.181897 -0.0185811)
(0.355235 0.194772 -0.0187431)
(0.284172 0.209033 -0.0188799)
(0.211076 0.223348 -0.0190262)
(0.12543 0.236823 -0.0191574)
(0.0512593 0.246902 -0.019287)
(3 1.07491e-07 -0.00571425)
(2.99999 5.93556e-07 -0.00571438)
(2.99996 2.2187e-06 -0.00571457)
(2.9999 5.66003e-06 -0.00571516)
(2.99978 1.57255e-05 -0.00571625)
(2.99942 3.56684e-05 -0.00571954)
(2.99872 9.62005e-05 -0.00572601)
(2.99653 0.000203175 -0.00574329)
(2.99275 0.000609852 -0.00578656)
(2.97827 0.0011867 -0.00587086)
(2.95332 0.00408474 -0.00620359)
(2.85678 0.00844574 -0.00665577)
(2.6013 0.0318183 -0.00894768)
(1.968 0.0768592 -0.0132942)
(0.9006 0.218444 -0.0170166)
(0.469491 0.198487 -0.0181298)
(0.55642 0.193592 -0.0181389)
(0.584267 0.205534 -0.0181381)
(0.534424 0.218645 -0.0182819)
(0.449745 0.234102 -0.0184339)
(0.366535 0.251337 -0.0185929)
(0.29575 0.270469 -0.0187052)
(0.221758 0.290305 -0.0188205)
(0.133414 0.30907 -0.0189583)
(0.0545957 0.32216 -0.0190689)
(3 1.18834e-07 -0.00571425)
(2.99999 6.5662e-07 -0.00571437)
(2.99997 2.44695e-06 -0.00571455)
(2.99991 6.22821e-06 -0.00571511)
(2.99979 1.72456e-05 -0.00571613)
(2.99945 3.88652e-05 -0.00571924)
(2.9988 0.000105961 -0.00572525)
(2.99676 0.000213378 -0.00574188)
(2.99318 0.000707044 -0.00578117)
(2.97987 0.00116681 -0.00586282)
(2.9567 0.00506207 -0.00616204)
(2.86865 0.00957099 -0.0065945)
(2.63748 0.0384285 -0.00865124)
(2.05418 0.0919342 -0.0127544)
(0.959572 0.267564 -0.0166676)
(0.471208 0.246118 -0.0179935)
(0.56772 0.238029 -0.0180065)
(0.600839 0.251029 -0.017976)
(0.550996 0.26643 -0.0181223)
(0.467478 0.286194 -0.0182321)
(0.384919 0.308391 -0.0183925)
(0.314006 0.333327 -0.0185128)
(0.238716 0.359975 -0.0186167)
(0.146531 0.386105 -0.01872)
(0.0605506 0.404483 -0.0188424)
(3 1.40633e-07 -0.00571425)
(2.99999 7.77409e-07 -0.00571436)
(2.99997 2.89829e-06 -0.00571453)
(2.99991 7.41209e-06 -0.00571505)
(2.9998 2.05055e-05 -0.005716)
(2.99949 4.66197e-05 -0.00571892)
(2.99887 0.000124861 -0.00572443)
(2.99703 0.000263318 -0.00574066)
(2.99355 0.000802837 -0.00577477)
(2.98184 0.00141477 -0.00585738)
(2.9605 0.00566094 -0.00610573)
(2.8824 0.0106232 -0.00652532)
(2.67981 0.0418167 -0.00829234)
(2.15746 0.101031 -0.0120859)
(1.03975 0.305459 -0.0162383)
(0.489723 0.295216 -0.0178147)
(0.589314 0.28784 -0.0178313)
(0.626598 0.299593 -0.017795)
(0.576884 0.31548 -0.0179474)
(0.494796 0.338805 -0.0180538)
(0.412724 0.366323 -0.0181555)
(0.341465 0.398185 -0.018249)
(0.26461 0.433654 -0.0183419)
(0.167568 0.470525 -0.0184357)
(0.0712838 0.499213 -0.0185206)
(3 1.58787e-07 -0.00571425)
(2.99999 8.77209e-07 -0.00571435)
(2.99997 3.26934e-06 -0.0057145)
(2.99992 8.38469e-06 -0.00571497)
(2.99982 2.31574e-05 -0.00571583)
(2.99954 5.29947e-05 -0.00571846)
(2.99898 0.000139063 -0.00572345)
(2.99732 0.000308574 -0.00573805)
(2.99414 0.000832542 -0.00576846)
(2.98386 0.00173808 -0.00584464)
(2.96455 0.00541777 -0.00605612)
(2.89674 0.0109889 -0.00644967)
(2.72322 0.0389239 -0.00793746)
(2.27108 0.0951632 -0.0113543)
(1.14615 0.291756 -0.0157305)
(0.541199 0.332808 -0.0175412)
(0.627411 0.340613 -0.0175379)
(0.662726 0.350146 -0.0175278)
(0.613422 0.365868 -0.0176851)
(0.533743 0.392744 -0.0178173)
(0.452131 0.426192 -0.0179267)
(0.380537 0.466091 -0.0179744)
(0.302815 0.512505 -0.0180323)
(0.201394 0.565415 -0.0180753)
(0.0904438 0.615253 -0.0181393)
(3 1.7707e-07 -0.00571425)
(2.99999 9.71503e-07 -0.00571434)
(2.99997 3.61228e-06 -0.00571447)
(2.99993 9.26249e-06 -0.00571489)
(2.99984 2.54996e-05 -0.00571566)
(2.99959 5.84516e-05 -0.00571802)
(2.99908 0.00015172 -0.00572248)
(2.9976 0.000343899 -0.00573563)
(2.99474 0.000858913 -0.00576266)
(2.98562 0.00204219 -0.00583173)
(2.96834 0.00495471 -0.00601717)
(2.90868 0.0117842 -0.00637542)
(2.7577 0.0335004 -0.00767268)
(2.35564 0.0831513 -0.0107316)
(1.25284 0.246215 -0.0155013)
(0.591374 0.371587 -0.0173697)
(0.651666 0.401757 -0.0173489)
(0.686956 0.400632 -0.0173132)
(0.647954 0.416582 -0.0174473)
(0.577659 0.44648 -0.0175134)
(0.500932 0.487337 -0.0176115)
(0.431795 0.536144 -0.017638)
(0.357056 0.595761 -0.0176394)
(0.257287 0.673454 -0.0176061)
(0.127065 0.767741 -0.0174992)
(3 2.98648e-07 -0.00571425)
(2.99999 5.26776e-07 -0.00571432)
(2.99998 4.34339e-06 -0.00571444)
(2.99994 6.36616e-06 -0.0057148)
(2.99986 2.94067e-05 -0.00571546)
(2.99964 4.10913e-05 -0.00571746)
(2.99922 0.00017574 -0.00572135)
(2.99791 0.000230913 -0.00573217)
(2.99556 0.00106457 -0.00575691)
(2.98725 0.00110632 -0.00581072)
(2.97279 0.00703319 -0.00599171)
(2.91934 0.00504509 -0.00627381)
(2.78705 0.0450378 -0.00750543)
(2.42864 0.061459 -0.0100259)
(1.39043 0.241953 -0.0150873)
(0.674078 0.429007 -0.0170908)
(0.6634 0.455635 -0.0171155)
(0.691735 0.448025 -0.0171703)
(0.675454 0.465781 -0.0172209)
(0.62151 0.497495 -0.0172818)
(0.555979 0.546027 -0.0172942)
(0.494545 0.604354 -0.0172696)
(0.432639 0.682864 -0.0171757)
(0.351948 0.803135 -0.0169718)
(0.197502 1.01318 -0.0165563)
(2.99999 1.54055e-08 -2.56764e-09)
(2.99998 8.367e-08 -8.65461e-09)
(2.99996 3.11409e-07 -1.00853e-08)
(2.99988 7.98905e-07 -1.60042e-08)
(2.99974 2.19947e-06 -1.6147e-08)
(2.99933 5.0537e-06 -2.16258e-08)
(2.99853 1.30119e-05 -2.19429e-08)
(2.99602 2.96949e-05 -2.98853e-08)
(2.99165 7.39471e-05 -3.15382e-08)
(2.9751 0.000166727 -5.72139e-08)
(2.94581 0.000448437 -7.08698e-08)
(2.83553 0.00104652 -1.56554e-07)
(2.53378 0.00286004 -1.94733e-07)
(1.80907 0.00757881 -5.7834e-07)
(0.807373 0.0213518 -5.82767e-07)
(0.492941 0.021422 7.8246e-08)
(0.555371 0.0226982 -3.67245e-09)
(0.572279 0.0249564 -6.65152e-08)
(0.522874 0.027139 -7.04705e-08)
(0.43564 0.029228 -7.3288e-08)
(0.349011 0.0318197 -7.2609e-08)
(0.277998 0.0350547 -7.51024e-08)
(0.207301 0.0385745 -7.82597e-08)
(0.125559 0.0428363 -8.15909e-08)
(0.0558267 0.0492911 -8.52121e-08)
(2.99999 4.61749e-08 -2.55976e-09)
(2.99998 2.50795e-07 -8.65898e-09)
(2.99996 9.34228e-07 -1.0071e-08)
(2.99989 2.39542e-06 -1.6035e-08)
(2.99975 6.60738e-06 -1.6096e-08)
(2.99934 1.51763e-05 -2.16568e-08)
(2.99855 3.92255e-05 -2.19193e-08)
(2.99607 8.93558e-05 -2.99544e-08)
(2.99177 0.000224554 -3.14859e-08)
(2.97541 0.000504293 -5.76638e-08)
(2.94656 0.001375 -7.00266e-08)
(2.83738 0.0032022 -1.60714e-07)
(2.53973 0.00894157 -1.72566e-07)
(1.82276 0.0237146 -5.85908e-07)
(0.814578 0.0656376 -5.81088e-07)
(0.489112 0.0627146 7.82982e-08)
(0.55361 0.0638215 -5.19752e-09)
(0.571157 0.0681556 -6.74801e-08)
(0.521231 0.0720988 -7.09725e-08)
(0.433822 0.0757383 -7.33202e-08)
(0.347304 0.0802551 -7.24115e-08)
(0.275846 0.0856627 -7.48138e-08)
(0.204118 0.0908961 -7.7747e-08)
(0.121117 0.0962978 -8.08224e-08)
(0.051328 0.10239 -8.44412e-08)
(3 7.58472e-08 -2.54549e-09)
(2.99998 4.11428e-07 -8.66411e-09)
(2.99996 1.53623e-06 -1.00494e-08)
(2.99989 3.93856e-06 -1.60829e-08)
(2.99975 1.09083e-05 -1.60133e-08)
(2.99936 2.50893e-05 -2.17018e-08)
(2.99859 6.51754e-05 -2.18639e-08)
(2.99617 0.000148949 -2.998e-08)
(2.992 0.000376388 -3.13455e-08)
(2.97605 0.000846863 -5.74307e-08)
(2.94812 0.00233695 -6.95542e-08)
(2.84134 0.00543652 -1.57754e-07)
(2.55272 0.0154563 -1.71266e-07)
(1.85342 0.0409929 -5.78856e-07)
(0.831956 0.114176 -5.88397e-07)
(0.483695 0.106836 7.99164e-08)
(0.552851 0.107338 -7.49859e-09)
(0.572268 0.114627 -6.98649e-08)
(0.522016 0.12171 -7.25238e-08)
(0.435003 0.129001 -7.36732e-08)
(0.3493 0.137521 -7.24057e-08)
(0.277824 0.147101 -7.47044e-08)
(0.205338 0.156507 -7.72444e-08)
(0.121267 0.165563 -7.96581e-08)
(0.0501314 0.173434 -8.28728e-08)
(3 9.68745e-08 -2.52429e-09)
(2.99998 5.2621e-07 -8.66937e-09)
(2.99996 1.96325e-06 -1.00211e-08)
(2.99989 5.02967e-06 -1.61687e-08)
(2.99976 1.39456e-05 -1.5876e-08)
(2.99938 3.1926e-05 -2.17993e-08)
(2.99866 8.42112e-05 -2.17949e-08)
(2.99633 0.000187247 -3.01113e-08)
(2.99235 0.000504612 -3.1197e-08)
(2.97702 0.00108288 -5.7427e-08)
(2.95049 0.00321494 -6.9111e-08)
(2.84746 0.00715193 -1.54169e-07)
(2.5728 0.023388 -1.68747e-07)
(1.90088 0.0590046 -5.66289e-07)
(0.858136 0.165527 -5.97114e-07)
(0.474559 0.152033 8.18711e-08)
(0.552045 0.150427 -9.35957e-09)
(0.575312 0.160319 -7.28618e-08)
(0.525402 0.17056 -7.51999e-08)
(0.43958 0.181898 -7.53365e-08)
(0.355241 0.194773 -7.27067e-08)
(0.284177 0.209036 -7.41891e-08)
(0.21108 0.223352 -7.63798e-08)
(0.125433 0.236828 -7.7898e-08)
(0.0512609 0.24691 -8.0335e-08)
(3 1.09253e-07 -2.50496e-09)
(2.99998 5.95671e-07 -8.66529e-09)
(2.99996 2.21608e-06 -1.00408e-08)
(2.9999 5.66836e-06 -1.60844e-08)
(2.99978 1.57064e-05 -1.59715e-08)
(2.99942 3.56497e-05 -2.16703e-08)
(2.99872 9.61359e-05 -2.17588e-08)
(2.99652 0.000202944 -2.95281e-08)
(2.99275 0.000609755 -3.11496e-08)
(2.97827 0.00118484 -5.43405e-08)
(2.95331 0.00408703 -6.651e-08)
(2.85676 0.00844357 -1.44772e-07)
(2.60126 0.031826 -1.67624e-07)
(1.9679 0.0768714 -5.44989e-07)
(0.900562 0.218459 -6.27238e-07)
(0.469514 0.198494 7.73362e-08)
(0.556424 0.193592 -1.39844e-08)
(0.584264 0.205533 -7.43114e-08)
(0.534423 0.218644 -7.62408e-08)
(0.449746 0.234102 -7.55595e-08)
(0.366538 0.251337 -7.28641e-08)
(0.295753 0.270471 -7.36518e-08)
(0.221761 0.290309 -7.47844e-08)
(0.133417 0.309076 -7.52629e-08)
(0.054597 0.322169 -7.6906e-08)
(3 1.20402e-07 -2.48889e-09)
(2.99999 6.60333e-07 -8.65778e-09)
(2.99996 2.4467e-06 -1.01134e-08)
(2.99991 6.24069e-06 -1.59647e-08)
(2.99979 1.72479e-05 -1.63629e-08)
(2.99945 3.88919e-05 -2.18633e-08)
(2.99879 0.000105998 -2.26559e-08)
(2.99676 0.000213481 -3.34205e-08)
(2.99317 0.000707264 -2.89462e-08)
(2.97987 0.00116628 -9.08344e-08)
(2.95669 0.0050645 2.04186e-09)
(2.86864 0.00957142 -2.24848e-07)
(2.63746 0.0384346 -3.92892e-08)
(2.05411 0.0919464 -5.00292e-07)
(0.959565 0.267582 -6.03818e-07)
(0.471254 0.246127 4.78269e-08)
(0.567739 0.238031 -3.92421e-08)
(0.600847 0.251029 -8.34392e-08)
(0.551002 0.266429 -8.19057e-08)
(0.467483 0.286193 -7.69864e-08)
(0.384923 0.308391 -7.39811e-08)
(0.314009 0.333329 -7.39114e-08)
(0.238719 0.359979 -7.44812e-08)
(0.146533 0.386112 -7.40925e-08)
(0.0605517 0.404493 -7.4389e-08)
(3 1.43033e-07 -2.47362e-09)
(2.99999 7.81078e-07 -8.61884e-09)
(2.99997 2.90319e-06 -1.01135e-08)
(2.99991 7.42432e-06 -1.58488e-08)
(2.9998 2.05343e-05 -1.61336e-08)
(2.99949 4.66886e-05 -2.12485e-08)
(2.99887 0.000125014 -2.15513e-08)
(2.99702 0.000263806 -2.831e-08)
(2.99355 0.000803295 -2.88613e-08)
(2.98184 0.0014178 -6.92538e-08)
(2.96049 0.0056609 -1.44131e-08)
(2.88239 0.0106293 -1.75212e-07)
(2.67979 0.0418152 -7.31764e-08)
(2.1574 0.101037 -4.50144e-07)
(1.03974 0.305469 -5.94222e-07)
(0.48976 0.295219 3.32594e-08)
(0.589332 0.287841 -4.66187e-08)
(0.626609 0.299594 -8.41733e-08)
(0.576894 0.315481 -8.26269e-08)
(0.494804 0.338806 -7.72616e-08)
(0.41273 0.366324 -7.58542e-08)
(0.341469 0.398187 -7.41599e-08)
(0.264613 0.433659 -7.36002e-08)
(0.16757 0.470533 -7.18681e-08)
(0.0712847 0.499224 -7.1207e-08)
(3 1.61628e-07 -2.44099e-09)
(2.99999 8.79146e-07 -8.62628e-09)
(2.99997 3.27252e-06 -1.0089e-08)
(2.99992 8.38924e-06 -1.58249e-08)
(2.99982 2.31679e-05 -1.60308e-08)
(2.99954 5.30166e-05 -2.1063e-08)
(2.99898 0.000139122 -2.097e-08)
(2.99732 0.000308726 -2.68567e-08)
(2.99414 0.000832741 -2.89604e-08)
(2.98386 0.0017398 -4.22667e-08)
(2.96454 0.00541781 -4.74061e-08)
(2.89673 0.0109926 -1.23734e-07)
(2.7232 0.0389261 -1.24949e-07)
(2.27102 0.0951749 -4.15989e-07)
(1.14611 0.291792 -6.36631e-07)
(0.541203 0.332815 -1.26534e-08)
(0.627415 0.340614 -5.52161e-08)
(0.662731 0.350147 -7.75854e-08)
(0.613429 0.36587 -7.76611e-08)
(0.53375 0.392746 -7.45031e-08)
(0.452137 0.426194 -7.42133e-08)
(0.380542 0.466095 -7.45221e-08)
(0.302818 0.512511 -7.36834e-08)
(0.201397 0.565423 -7.14952e-08)
(0.0904448 0.615265 -6.92362e-08)
(3 1.76782e-07 -2.41674e-09)
(2.99999 9.71932e-07 -8.62818e-09)
(2.99997 3.60405e-06 -1.00949e-08)
(2.99993 9.24627e-06 -1.58205e-08)
(2.99984 2.5466e-05 -1.60127e-08)
(2.99959 5.83871e-05 -2.10084e-08)
(2.99908 0.000151603 -2.07796e-08)
(2.9976 0.000343564 -2.64131e-08)
(2.99474 0.000858706 -2.77733e-08)
(2.98562 0.00204014 -3.97727e-08)
(2.96834 0.00495558 -4.05917e-08)
(2.90868 0.011782 -1.13853e-07)
(2.75768 0.033507 -7.98147e-08)
(2.3556 0.0831637 -3.03315e-07)
(1.25282 0.246264 -3.57968e-07)
(0.591382 0.37159 -1.50314e-07)
(0.651679 0.401756 -9.34676e-08)
(0.686967 0.400633 -7.97964e-08)
(0.647963 0.416584 -7.72205e-08)
(0.577668 0.446482 -7.17617e-08)
(0.500939 0.48734 -7.15301e-08)
(0.431801 0.536148 -7.20659e-08)
(0.357061 0.595767 -7.12288e-08)
(0.25729 0.673463 -6.85723e-08)
(0.127067 0.767754 -6.60787e-08)
(3 2.8422e-07 -2.44688e-09)
(2.99999 5.80534e-07 -8.61113e-09)
(2.99998 4.23388e-06 -1.02516e-08)
(2.99994 6.40089e-06 -1.59931e-08)
(2.99986 2.92761e-05 -1.63733e-08)
(2.99964 4.11247e-05 -2.1683e-08)
(2.99921 0.000175611 -2.1988e-08)
(2.99791 0.000230971 -3.12424e-08)
(2.99555 0.00106443 -2.62059e-08)
(2.98725 0.0011067 -8.09947e-08)
(2.97278 0.00703265 8.9911e-09)
(2.91933 0.00504695 -9.55375e-08)
(2.78704 0.0450349 5.79504e-08)
(2.42862 0.0614677 -3.2107e-07)
(1.39041 0.241962 -2.93834e-07)
(0.674075 0.428999 -3.18366e-07)
(0.663424 0.455634 -8.48287e-08)
(0.691755 0.448027 -7.25035e-08)
(0.67547 0.465785 -7.17205e-08)
(0.621523 0.497499 -7.03459e-08)
(0.555989 0.546031 -7.04415e-08)
(0.494552 0.604359 -7.09533e-08)
(0.432645 0.68287 -7.04276e-08)
(0.351953 0.803144 -6.71251e-08)
(0.197504 1.01319 -6.24493e-08)
(2.99999 1.54055e-08 -3.83802e-13)
(2.99998 8.36699e-08 -2.04613e-12)
(2.99996 3.11409e-07 -4.4662e-12)
(2.99988 7.98904e-07 -9.46387e-12)
(2.99974 2.19947e-06 -1.72387e-11)
(2.99933 5.05369e-06 -3.25798e-11)
(2.99853 1.30118e-05 -6.65423e-11)
(2.99602 2.96948e-05 -1.28301e-10)
(2.99165 7.39469e-05 -3.04814e-10)
(2.9751 0.000166726 -5.90314e-10)
(2.94581 0.000448437 -1.72053e-09)
(2.83553 0.00104651 -3.37725e-09)
(2.53378 0.00286008 -9.43598e-09)
(1.80906 0.00757878 -2.21729e-08)
(0.807371 0.0213517 -2.93234e-08)
(0.492943 0.0214219 2.57098e-09)
(0.555372 0.0226981 -7.69847e-10)
(0.572279 0.0249564 -3.36214e-09)
(0.522874 0.027139 -3.49433e-09)
(0.43564 0.0292279 -3.59789e-09)
(0.349011 0.0318197 -3.74583e-09)
(0.277998 0.0350547 -3.92384e-09)
(0.207302 0.0385745 -4.13681e-09)
(0.125559 0.0428363 -4.32812e-09)
(0.0558268 0.0492912 -4.62354e-09)
(2.99999 4.61749e-08 -3.84092e-13)
(2.99998 2.50795e-07 -2.04615e-12)
(2.99996 9.34228e-07 -4.47076e-12)
(2.99989 2.39542e-06 -9.47431e-12)
(2.99975 6.60738e-06 -1.72985e-11)
(2.99934 1.51763e-05 -3.27321e-11)
(2.99855 3.92255e-05 -6.72011e-11)
(2.99607 8.93557e-05 -1.31195e-10)
(2.99177 0.000224554 -3.06866e-10)
(2.97541 0.000504291 -6.20153e-10)
(2.94656 0.001375 -1.69494e-09)
(2.83738 0.00320218 -3.66812e-09)
(2.53973 0.0089416 -8.37664e-09)
(1.82276 0.0237145 -2.29316e-08)
(0.814576 0.0656374 -2.95667e-08)
(0.489114 0.0627145 2.6608e-09)
(0.55361 0.0638215 -8.02493e-10)
(0.571157 0.0681555 -3.36777e-09)
(0.521231 0.0720987 -3.47728e-09)
(0.433822 0.0757383 -3.5663e-09)
(0.347304 0.0802552 -3.71985e-09)
(0.275846 0.0856627 -3.8927e-09)
(0.204118 0.0908962 -4.10338e-09)
(0.121117 0.0962979 -4.28855e-09)
(0.0513281 0.10239 -4.58955e-09)
(3 7.58473e-08 -3.8398e-13)
(2.99998 4.11429e-07 -2.04331e-12)
(2.99996 1.53623e-06 -4.4686e-12)
(2.99989 3.93857e-06 -9.47238e-12)
(2.99975 1.09083e-05 -1.73121e-11)
(2.99936 2.50893e-05 -3.27666e-11)
(2.99859 6.51753e-05 -6.7452e-11)
(2.99617 0.000148949 -1.31626e-10)
(2.992 0.000376388 -3.09518e-10)
(2.97605 0.000846862 -6.22406e-10)
(2.94812 0.00233694 -1.71906e-09)
(2.84134 0.00543652 -3.67e-09)
(2.55271 0.0154563 -8.61361e-09)
(1.85342 0.0409928 -2.33969e-08)
(0.831954 0.114176 -3.07746e-08)
(0.483697 0.106836 2.99197e-09)
(0.552852 0.107338 -7.93529e-10)
(0.572268 0.114627 -3.37867e-09)
(0.522016 0.12171 -3.46359e-09)
(0.435004 0.129001 -3.53401e-09)
(0.3493 0.137521 -3.69521e-09)
(0.277824 0.147101 -3.85704e-09)
(0.205338 0.156507 -4.05081e-09)
(0.121267 0.165563 -4.20409e-09)
(0.0501315 0.173435 -4.47331e-09)
(3 9.68753e-08 -3.82542e-13)
(2.99998 5.26214e-07 -2.03259e-12)
(2.99996 1.96326e-06 -4.44806e-12)
(2.99989 5.02971e-06 -9.43314e-12)
(2.99976 1.39457e-05 -1.72566e-11)
(2.99938 3.19262e-05 -3.26994e-11)
(2.99866 8.42117e-05 -6.75299e-11)
(2.99633 0.000187249 -1.32722e-10)
(2.99235 0.000504613 -3.11417e-10)
(2.97702 0.00108289 -6.31989e-10)
(2.95049 0.00321495 -1.7638e-09)
(2.84746 0.00715196 -3.73871e-09)
(2.57279 0.0233878 -8.97691e-09)
(1.90088 0.0590044 -2.42265e-08)
(0.858134 0.165527 -3.28214e-08)
(0.474561 0.152032 3.53135e-09)
(0.552045 0.150427 -6.24622e-10)
(0.575312 0.160319 -3.36422e-09)
(0.525403 0.17056 -3.45249e-09)
(0.43958 0.181897 -3.52108e-09)
(0.355241 0.194773 -3.63396e-09)
(0.284177 0.209036 -3.74942e-09)
(0.21108 0.223352 -3.92593e-09)
(0.125433 0.236829 -4.05351e-09)
(0.051261 0.24691 -4.26202e-09)
(3 1.09255e-07 -3.6886e-13)
(2.99998 5.95679e-07 -1.97454e-12)
(2.99996 2.21611e-06 -4.25093e-12)
(2.9999 5.66844e-06 -8.99663e-12)
(2.99978 1.57066e-05 -1.60216e-11)
(2.99942 3.56503e-05 -2.9868e-11)
(2.99872 9.61371e-05 -6.19046e-11)
(2.99652 0.000202948 -1.10128e-10)
(2.99275 0.000609758 -3.12716e-10)
(2.97827 0.00118487 -5.08908e-10)
(2.95331 0.00408702 -1.83661e-09)
(2.85676 0.00844363 -3.12594e-09)
(2.60126 0.0318257 -1.17573e-08)
(1.9679 0.0768711 -2.47553e-08)
(0.90056 0.218458 -3.67263e-08)
(0.469516 0.198493 4.60722e-09)
(0.556425 0.193592 8.0799e-12)
(0.584264 0.205533 -3.22828e-09)
(0.534423 0.218644 -3.37271e-09)
(0.449746 0.234102 -3.48069e-09)
(0.366538 0.251337 -3.50297e-09)
(0.295753 0.270471 -3.57053e-09)
(0.221761 0.290309 -3.67453e-09)
(0.133417 0.309077 -3.75499e-09)
(0.054597 0.32217 -3.92431e-09)
(3 1.20403e-07 -3.49989e-13)
(2.99999 6.60334e-07 -1.91284e-12)
(2.99996 2.4467e-06 -4.01965e-12)
(2.99991 6.24071e-06 -8.28135e-12)
(2.99979 1.72479e-05 -1.45241e-11)
(2.99945 3.88919e-05 -2.56656e-11)
(2.99879 0.000105998 -5.38547e-11)
(2.99676 0.000213481 -7.14516e-11)
(2.99317 0.000707264 -3.31177e-10)
(2.97986 0.00116629 -1.90119e-10)
(2.95669 0.00506449 -2.42887e-09)
(2.86864 0.00957143 -2.48622e-09)
(2.63746 0.0384346 -1.31989e-08)
(2.0541 0.0919463 -2.60603e-08)
(0.959562 0.267582 -4.19244e-08)
(0.471255 0.246127 5.30928e-09)
(0.567739 0.238031 6.34434e-10)
(0.600847 0.251029 -3.12271e-09)
(0.551001 0.266428 -3.33838e-09)
(0.467482 0.286193 -3.49544e-09)
(0.384923 0.308391 -3.32947e-09)
(0.314009 0.33333 -3.34404e-09)
(0.238719 0.359979 -3.46262e-09)
(0.146533 0.386113 -3.51536e-09)
(0.0605517 0.404493 -3.58035e-09)
(3 1.43032e-07 -3.63419e-13)
(2.99999 7.81075e-07 -1.96138e-12)
(2.99997 2.90318e-06 -4.21672e-12)
(2.99991 7.42428e-06 -8.75466e-12)
(2.9998 2.05341e-05 -1.5867e-11)
(2.99949 4.66883e-05 -2.92069e-11)
(2.99887 0.000125014 -5.94493e-11)
(2.99702 0.000263803 -1.087e-10)
(2.99355 0.000803295 -3.15405e-10)
(2.98184 0.00141778 -3.40093e-10)
(2.96049 0.00566092 -2.23414e-09)
(2.88239 0.0106293 -2.76122e-09)
(2.67979 0.0418153 -1.26563e-08)
(2.15739 0.101037 -2.61608e-08)
(1.03973 0.305469 -4.61744e-08)
(0.48976 0.295218 4.98871e-09)
(0.589332 0.28784 7.89522e-10)
(0.626608 0.299594 -3.05436e-09)
(0.576893 0.31548 -3.37009e-09)
(0.494803 0.338806 -3.58884e-09)
(0.41273 0.366324 -3.27306e-09)
(0.341469 0.398187 -3.14913e-09)
(0.264613 0.433659 -3.23445e-09)
(0.16757 0.470533 -3.16031e-09)
(0.0712847 0.499224 -3.1557e-09)
(3 1.61629e-07 -3.64557e-13)
(2.99999 8.79148e-07 -1.96327e-12)
(2.99997 3.27253e-06 -4.2366e-12)
(2.99992 8.38926e-06 -8.78879e-12)
(2.99982 2.3168e-05 -1.60361e-11)
(2.99954 5.30167e-05 -2.95158e-11)
(2.99898 0.000139123 -6.04728e-11)
(2.99732 0.000308727 -1.12953e-10)
(2.99414 0.000832746 -2.90935e-10)
(2.98386 0.0017398 -5.22739e-10)
(2.96454 0.00541787 -1.8291e-09)
(2.89673 0.0109927 -2.78633e-09)
(2.7232 0.0389266 -1.15355e-08)
(2.27101 0.095176 -2.49975e-08)
(1.14611 0.291795 -5.06022e-08)
(0.541201 0.332816 1.63784e-09)
(0.627413 0.340613 -1.91155e-10)
(0.662729 0.350147 -3.14554e-09)
(0.613427 0.365869 -3.4602e-09)
(0.533749 0.392745 -3.65583e-09)
(0.452137 0.426194 -3.24322e-09)
(0.380542 0.466095 -3.12366e-09)
(0.302818 0.512511 -3.14465e-09)
(0.201397 0.565424 -2.99165e-09)
(0.0904447 0.615265 -2.81436e-09)
(3 1.76781e-07 -3.56602e-13)
(2.99999 9.71926e-07 -1.92832e-12)
(2.99997 3.60403e-06 -4.11535e-12)
(2.99993 9.24621e-06 -8.52404e-12)
(2.99984 2.54658e-05 -1.51607e-11)
(2.99959 5.83866e-05 -2.76839e-11)
(2.99908 0.000151603 -5.42802e-11)
(2.9976 0.000343561 -1.01143e-10)
(2.99474 0.000858706 -2.41064e-10)
(2.98562 0.00204012 -4.68376e-10)
(2.96834 0.00495563 -1.22838e-09)
(2.90868 0.011782 -2.76165e-09)
(2.75768 0.0335075 -6.88697e-09)
(2.3556 0.0831648 -1.57258e-08)
(1.25281 0.246268 -2.66585e-08)
(0.591382 0.371589 -9.43256e-09)
(0.651678 0.401755 -4.44078e-09)
(0.686966 0.400632 -4.0642e-09)
(0.647962 0.416583 -4.02592e-09)
(0.577666 0.446481 -3.82329e-09)
(0.500938 0.487339 -3.38862e-09)
(0.4318 0.536148 -3.21592e-09)
(0.35706 0.595767 -3.13545e-09)
(0.25729 0.673463 -2.92015e-09)
(0.127066 0.767755 -2.63618e-09)
(3 2.84218e-07 -3.88182e-13)
(2.99999 5.80547e-07 -2.05243e-12)
(2.99998 4.23388e-06 -4.56112e-12)
(2.99994 6.40096e-06 -9.51487e-12)
(2.99986 2.92762e-05 -1.79946e-11)
(2.99964 4.1125e-05 -3.4311e-11)
(2.99921 0.000175612 -6.7632e-11)
(2.99791 0.000230973 -1.62525e-10)
(2.99555 0.00106444 -2.17979e-10)
(2.98725 0.00110671 -9.56441e-10)
(2.97278 0.00703269 -5.43925e-10)
(2.91933 0.00504702 -3.79147e-09)
(2.78704 0.0450351 -4.69179e-09)
(2.42861 0.0614682 -1.46256e-08)
(1.39041 0.241964 -2.61257e-08)
(0.674073 0.428998 -2.34586e-08)
(0.663424 0.455634 -4.29416e-09)
(0.691755 0.448027 -3.60563e-09)
(0.675469 0.465784 -3.95817e-09)
(0.621522 0.497498 -3.9109e-09)
(0.555988 0.54603 -3.65123e-09)
(0.494552 0.604358 -3.56382e-09)
(0.432644 0.68287 -3.39954e-09)
(0.351952 0.803144 -3.14711e-09)
(0.197504 1.01319 -2.94701e-09)
(2.99999 1.54055e-08 -2.15523e-14)
(2.99998 8.36699e-08 -9.6011e-14)
(2.99996 3.11409e-07 -3.16866e-13)
(2.99988 7.98904e-07 -6.85763e-13)
(2.99974 2.19947e-06 -1.93607e-12)
(2.99933 5.05369e-06 -3.98295e-12)
(2.99853 1.30118e-05 -1.09158e-11)
(2.99602 2.96948e-05 -2.26401e-11)
(2.99165 7.39469e-05 -6.10187e-11)
(2.9751 0.000166726 -1.21796e-10)
(2.94581 0.000448437 -3.77202e-10)
(2.83553 0.00104651 -7.47132e-10)
(2.53378 0.00286008 -2.14889e-09)
(1.80906 0.00757879 -5.08629e-09)
(0.807371 0.0213517 -6.8371e-09)
(0.492943 0.0214219 5.40332e-10)
(0.555372 0.0226981 -1.64834e-10)
(0.572279 0.0249564 -7.52566e-10)
(0.522874 0.027139 -7.93706e-10)
(0.43564 0.0292279 -8.44978e-10)
(0.349011 0.0318197 -8.85267e-10)
(0.277998 0.0350547 -9.4046e-10)
(0.207302 0.0385745 -1.02736e-09)
(0.125559 0.0428363 -1.07515e-09)
(0.0558268 0.0492912 -1.14848e-09)
(2.99999 4.61749e-08 -2.168e-14)
(2.99998 2.50795e-07 -9.6544e-14)
(2.99996 9.34228e-07 -3.18895e-13)
(2.99989 2.39542e-06 -6.89779e-13)
(2.99975 6.60738e-06 -1.95382e-12)
(2.99934 1.51763e-05 -4.02492e-12)
(2.99855 3.92255e-05 -1.10828e-11)
(2.99607 8.93557e-05 -2.33302e-11)
(2.99177 0.000224554 -6.15859e-11)
(2.97541 0.000504291 -1.28719e-10)
(2.94656 0.001375 -3.72141e-10)
(2.83738 0.00320218 -8.13916e-10)
(2.53973 0.0089416 -1.91418e-09)
(1.82276 0.0237145 -5.26428e-09)
(0.814576 0.0656374 -6.90205e-09)
(0.489114 0.0627145 5.61267e-10)
(0.55361 0.0638215 -1.71265e-10)
(0.571157 0.0681555 -7.5262e-10)
(0.521231 0.0720987 -7.87635e-10)
(0.433822 0.0757383 -8.34662e-10)
(0.347304 0.0802552 -8.76502e-10)
(0.275846 0.0856627 -9.33102e-10)
(0.204118 0.0908962 -1.02143e-09)
(0.121117 0.0962979 -1.07274e-09)
(0.0513281 0.10239 -1.1534e-09)
(3 7.58473e-08 -2.17846e-14)
(2.99998 4.11429e-07 -9.693e-14)
(2.99996 1.53623e-06 -3.20394e-13)
(2.99989 3.93857e-06 -6.92773e-13)
(2.99975 1.09083e-05 -1.96592e-12)
(2.99936 2.50893e-05 -4.04913e-12)
(2.99859 6.51753e-05 -1.11807e-11)
(2.99617 0.000148949 -2.3514e-11)
(2.992 0.000376388 -6.24111e-11)
(2.97605 0.000846862 -1.29699e-10)
(2.94812 0.00233694 -3.78891e-10)
(2.84134 0.00543652 -8.17152e-10)
(2.55271 0.0154563 -1.97431e-09)
(1.85342 0.0409928 -5.38599e-09)
(0.831954 0.114176 -7.19869e-09)
(0.483697 0.106836 6.37035e-10)
(0.552852 0.107338 -1.68171e-10)
(0.572268 0.114627 -7.55011e-10)
(0.522016 0.12171 -7.83844e-10)
(0.435004 0.129001 -8.26969e-10)
(0.3493 0.137521 -8.71355e-10)
(0.277824 0.147101 -9.31735e-10)
(0.205338 0.156507 -1.01865e-09)
(0.121267 0.165563 -1.06474e-09)
(0.0501315 0.173435 -1.1462e-09)
(3 9.68753e-08 -2.16587e-14)
(2.99998 5.26214e-07 -9.61465e-14)
(2.99996 1.96326e-06 -3.19062e-13)
(2.99989 5.02971e-06 -6.8944e-13)
(2.99976 1.39457e-05 -1.96888e-12)
(2.99938 3.19262e-05 -4.06192e-12)
(2.99866 8.42117e-05 -1.1269e-11)
(2.99633 0.000187248 -2.39121e-11)
(2.99235 0.000504613 -6.32206e-11)
(2.97702 0.00108289 -1.3266e-10)
(2.95049 0.00321495 -3.91128e-10)
(2.84746 0.00715196 -8.37084e-10)
(2.57279 0.0233878 -2.06708e-09)
(1.90088 0.0590044 -5.59986e-09)
(0.858134 0.165527 -7.70151e-09)
(0.474561 0.152032 7.60904e-10)
(0.552045 0.150427 -1.28172e-10)
(0.575312 0.160319 -7.54539e-10)
(0.525403 0.17056 -7.8438e-10)
(0.43958 0.181898 -8.30615e-10)
(0.355241 0.194773 -8.61943e-10)
(0.284177 0.209036 -9.14762e-10)
(0.21108 0.223352 -1.00446e-09)
(0.125433 0.236829 -1.04875e-09)
(0.051261 0.24691 -1.12182e-09)
(3 1.09255e-07 -1.89005e-14)
(2.99998 5.95679e-07 -8.43631e-14)
(2.99996 2.21611e-06 -2.78147e-13)
(2.9999 5.66844e-06 -6.00237e-13)
(2.99978 1.57066e-05 -1.71095e-12)
(2.99942 3.56503e-05 -3.4659e-12)
(2.99872 9.61371e-05 -1.01127e-11)
(2.99652 0.000202948 -1.9007e-11)
(2.99275 0.000609758 -6.41274e-11)
(2.97827 0.00118487 -1.0576e-10)
(2.95331 0.00408702 -4.10676e-10)
(2.85676 0.00844363 -7.03427e-10)
(2.60126 0.0318257 -2.71356e-09)
(1.9679 0.0768711 -5.75413e-09)
(0.90056 0.218458 -8.64585e-09)
(0.469516 0.198493 1.00829e-09)
(0.556425 0.193592 1.88984e-11)
(0.584264 0.205533 -7.28978e-10)
(0.534422 0.218644 -7.72219e-10)
(0.449746 0.234102 -8.31912e-10)
(0.366538 0.251337 -8.43014e-10)
(0.295753 0.270471 -8.85854e-10)
(0.221761 0.290309 -9.57954e-10)
(0.133417 0.309077 -9.91322e-10)
(0.054597 0.32217 -1.06029e-09)
(3 1.20403e-07 -1.55324e-14)
(2.99999 6.60334e-07 -7.09888e-14)
(2.99996 2.4467e-06 -2.28834e-13)
(2.99991 6.24071e-06 -4.85744e-13)
(2.99979 1.72479e-05 -1.37975e-12)
(2.99945 3.88919e-05 -2.66966e-12)
(2.99879 0.000105998 -8.53143e-12)
(2.99676 0.000213481 -1.12092e-11)