/*--------------------------------*- C++ -*----------------------------------*\
| =========                 |                                                 |
| \\      /  F ield         | OpenFOAM: The Open Source CFD Toolbox           |
|  \\    /   O peration     | Version:  4.1                                   |
|   \\  /    A nd           | Web:      www.OpenFOAM.org                      |
|    \\/     M anipulation  |                                                 |
\*---------------------------------------------------------------------------*/
FoamFile
{
    version     2.0;
    format      ascii;
    class       volScalarField;
    location    "0.1";
    object      Ma;
}
// * * * * * * * * * * * * * * * * * * * * * * * * * * * * * * * * * * * * * //

dimensions      [0 0 0 0 0 0 0];

internalField   nonuniform List<scalar> 
52500
(
2.82898
2.86616
2.86951
2.5693
2.2818
2.09685
1.94585
1.84573
1.73451
1.6954
1.73741
1.79205
1.8435
1.88753
1.92285
1.94926
1.96633
1.97304
1.96326
1.9142
1.76699
1.30941
0.573867
0.37206
0.040045
2.82897
2.86616
2.86951
2.56928
2.28177
2.09682
1.94583
1.84572
1.73451
1.6954
1.73741
1.79204
1.8435
1.88753
1.92285
1.94926
1.96633
1.97305
1.96328
1.91427
1.76734
1.31095
0.576524
0.370675
0.0409471
2.82895
2.86623
2.86965
2.5694
2.28173
2.09672
1.94572
1.84567
1.73453
1.69544
1.73744
1.79207
1.84351
1.88753
1.92285
1.94926
1.96633
1.97306
1.96333
1.91452
1.76839
1.31541
0.584037
0.366917
0.0449095
2.82896
2.86627
2.86972
2.56946
2.28194
2.09701
1.94603
1.84583
1.73456
1.69546
1.73744
1.79206
1.84351
1.88753
1.92285
1.94926
1.96634
1.9731
1.96351
1.91519
1.77106
1.32656
0.600815
0.35762
0.0569684
2.82909
2.86681
2.87055
2.57024
2.28239
2.09735
1.94627
1.84598
1.73466
1.69554
1.7375
1.7921
1.84353
1.88754
1.92286
1.94927
1.96636
1.9732
1.96392
1.91673
1.77682
1.34965
0.633772
0.338638
0.0828158
2.82866
2.86486
2.86694
2.5657
2.27876
2.09395
1.94369
1.84498
1.73474
1.69551
1.73749
1.79211
1.84355
1.88756
1.92287
1.94928
1.96642
1.97342
1.96479
1.91976
1.78732
1.38935
0.689803
0.308451
0.125003
2.82869
2.86508
2.8673
2.56603
2.27904
2.09426
1.94398
1.84515
1.73482
1.69558
1.73753
1.79213
1.84356
1.88757
1.92288
1.94929
1.96653
1.97384
1.96633
1.92479
1.80366
1.44772
0.773837
0.26876
0.186701
2.82895
2.86693
2.87083
2.57055
2.28277
2.0978
1.94671
1.84622
1.73473
1.6956
1.73752
1.79211
1.84353
1.88755
1.92287
1.94931
1.96674
1.9745
1.96869
1.93194
1.8252
1.51942
0.889105
0.23829
0.286196
2.82867
2.86505
2.86727
2.566
2.279
2.09421
1.94395
1.84513
1.73482
1.69558
1.73753
1.79213
1.84356
1.88757
1.92289
1.94937
1.96712
1.97545
1.97205
1.94163
1.85238
1.6011
1.03728
0.286466
0.40322
2.82869
2.8651
2.86734
2.56604
2.279
2.09421
1.94396
1.84515
1.73483
1.69558
1.73753
1.79213
1.84356
1.88757
1.92291
1.94945
1.96758
1.97676
1.9762
1.95339
1.88445
1.6876
1.23614
0.461485
0.645515
2.82893
2.86627
2.86973
2.56945
2.2819
2.09698
1.946
1.84582
1.73455
1.69544
1.73742
1.79204
1.84349
1.88751
1.92283
1.94924
1.96631
1.97302
1.96323
1.91416
1.76694
1.30928
0.573663
0.371942
0.0386091
2.82902
2.86645
2.86997
2.56971
2.28209
2.0971
1.94606
1.84584
1.73454
1.69542
1.73741
1.79204
1.84348
1.88751
1.92283
1.94924
1.96631
1.97303
1.96325
1.91424
1.76729
1.31083
0.576315
0.370564
0.0395384
2.82872
2.86502
2.8672
2.56593
2.27893
2.09416
1.9439
1.84512
1.73481
1.69553
1.73749
1.79209
1.84352
1.88754
1.92285
1.94925
1.96632
1.97304
1.96332
1.9145
1.76836
1.31542
0.583773
0.366618
0.0434812
2.82899
2.86638
2.86985
2.56962
2.28202
2.09704
1.946
1.84582
1.73454
1.69541
1.73741
1.79203
1.84348
1.88751
1.92283
1.94924
1.96632
1.97308
1.96349
1.91517
1.77104
1.32658
0.600554
0.357329
0.0558657
2.82872
2.86502
2.8672
2.56593
2.27893
2.09416
1.94391
1.84513
1.73482
1.69553
1.73749
1.79209
1.84352
1.88754
1.92285
1.94925
1.96634
1.97318
1.9639
1.91672
1.7768
1.34967
0.633522
0.338346
0.0820785
2.82903
2.86646
2.86998
2.56974
2.28211
2.09713
1.94608
1.84585
1.73455
1.69542
1.73741
1.79203
1.84348
1.88751
1.92283
1.94925
1.96639
1.9734
1.96477
1.91974
1.7873
1.38937
0.689571
0.308122
0.124563
2.82897
2.86631
2.86977
2.56949
2.28193
2.09701
1.94603
1.84584
1.73456
1.69543
1.73742
1.79204
1.84348
1.88751
1.92283
1.94926
1.96651
1.97382
1.96631
1.92476
1.80362
1.44766
0.773658
0.268599
0.186434
2.82894
2.86614
2.86949
2.56927
2.28175
2.0968
1.94581
1.84571
1.73449
1.69538
1.73739
1.79202
1.84348
1.88751
1.92283
1.94928
1.96672
1.97448
1.96867
1.93192
1.82517
1.51939
0.888967
0.238069
0.286
2.82897
2.86616
2.86951
2.56928
2.28176
2.09681
1.94582
1.84571
1.73449
1.69538
1.73738
1.79202
1.84348
1.88751
1.92284
1.94933
1.9671
1.97542
1.97203
1.94162
1.85236
1.6011
1.03718
0.286323
0.403084
2.82898
2.86617
2.86952
2.56929
2.28177
2.09682
1.94583
1.84572
1.7345
1.69537
1.73738
1.79202
1.84348
1.88751
1.92286
1.94942
1.96755
1.97674
1.97619
1.95337
1.88443
1.68759
1.23606
0.461428
0.645416
2.82898
2.86617
2.86952
2.5693
2.28177
2.09683
1.94583
1.84572
1.7345
1.69537
1.73738
1.79202
1.84347
1.8875
1.92283
1.94924
1.96631
1.97302
1.96324
1.91417
1.76694
1.30928
0.573662
0.371942
0.0386093
2.82897
2.86616
2.86951
2.56928
2.28176
2.09681
1.94582
1.84571
1.7345
1.69538
1.73738
1.79202
1.84347
1.8875
1.92283
1.94924
1.96631
1.97303
1.96325
1.91424
1.76729
1.31083
0.576314
0.370564
0.0395385
2.82895
2.86614
2.8695
2.56927
2.28176
2.09681
1.94582
1.84571
1.7345
1.69538
1.73738
1.79202
1.84347
1.8875
1.92283
1.94924
1.96631
1.97304
1.96332
1.9145
1.76836
1.31542
0.583773
0.366619
0.0434812
2.82899
2.86632
2.86978
2.56951
2.28196
2.09704
1.94605
1.84585
1.73457
1.69543
1.73741
1.79203
1.84348
1.88751
1.92283
1.94924
1.96632
1.97308
1.96349
1.91517
1.77104
1.32658
0.600553
0.357329
0.0558658
2.82906
2.86649
2.87
2.56976
2.28213
2.09714
1.94609
1.84586
1.73455
1.69542
1.73741
1.79203
1.84348
1.88751
1.92283
1.94924
1.96634
1.97318
1.9639
1.91672
1.7768
1.34967
0.633521
0.338346
0.0820785
2.82868
2.86476
2.86676
2.5655
2.27859
2.09381
1.94358
1.84493
1.73472
1.69545
1.73744
1.79207
1.84351
1.88753
1.92285
1.94926
1.9664
1.97341
1.96477
1.91974
1.7873
1.38937
0.68957
0.308122
0.124563
2.82906
2.86649
2.87
2.56975
2.28213
2.09714
1.94608
1.84585
1.73455
1.69542
1.73741
1.79203
1.84348
1.88751
1.92283
1.94926
1.96651
1.97382
1.96631
1.92477
1.80362
1.44766
0.773657
0.268599
0.186434
2.82897
2.8663
2.86976
2.56948
2.28193
2.09701
1.94603
1.84584
1.73456
1.69543
1.73742
1.79204
1.84348
1.88751
1.92284
1.94928
1.96672
1.97448
1.96867
1.93192
1.82517
1.51939
0.888967
0.23807
0.286
2.82892
2.86612
2.86948
2.56926
2.28175
2.09679
1.94581
1.8457
1.73449
1.69538
1.73739
1.79202
1.84348
1.88751
1.92284
1.94933
1.9671
1.97542
1.97203
1.94161
1.85236
1.6011
1.03718
0.286323
0.403084
2.82897
2.8663
2.86976
2.56948
2.28193
2.09701
1.94603
1.84584
1.73456
1.69543
1.73742
1.79204
1.84348
1.88752
1.92286
1.94942
1.96755
1.97674
1.97618
1.95337
1.88443
1.68759
1.23606
0.461428
0.645416
2.82898
2.86617
2.86952
2.5693
2.28178
2.09683
1.94584
1.84573
1.73451
1.69537
1.73738
1.79202
1.84347
1.8875
1.92283
1.94924
1.96631
1.97302
1.96324
1.91417
1.76694
1.30928
0.573662
0.371942
0.0386092
2.82898
2.86617
2.86952
2.5693
2.28178
2.09683
1.94584
1.84573
1.73451
1.69537
1.73738
1.79202
1.84347
1.8875
1.92283
1.94924
1.96631
1.97303
1.96325
1.91424
1.76729
1.31083
0.576314
0.370564
0.0395385
2.82898
2.86617
2.86952
2.5693
2.28178
2.09683
1.94584
1.84573
1.73451
1.69537
1.73738
1.79202
1.84347
1.8875
1.92283
1.94924
1.96631
1.97304
1.96332
1.9145
1.76836
1.31542
0.583773
0.366619
0.0434812
2.82898
2.86617
2.86952
2.5693
2.28178
2.09683
1.94584
1.84573
1.73451
1.69537
1.73738
1.79202
1.84347
1.8875
1.92283
1.94924
1.96632
1.97308
1.96349
1.91517
1.77104
1.32658
0.600553
0.357329
0.0558658
2.82898
2.86617
2.86952
2.5693
2.28178
2.09683
1.94584
1.84573
1.73451
1.69537
1.73738
1.79202
1.84347
1.8875
1.92283
1.94924
1.96634
1.97318
1.9639
1.91672
1.7768
1.34967
0.633521
0.338346
0.0820785
2.82898
2.86617
2.86952
2.5693
2.28178
2.09684
1.94584
1.84573
1.73451
1.69537
1.73738
1.79202
1.84347
1.8875
1.92283
1.94925
1.96639
1.9734
1.96477
1.91974
1.7873
1.38937
0.689571
0.308122
0.124563
2.82898
2.86617
2.86952
2.5693
2.28178
2.09683
1.94584
1.84573
1.73451
1.69537
1.73738
1.79202
1.84347
1.8875
1.92283
1.94926
1.96651
1.97382
1.96631
1.92477
1.80362
1.44766
0.773657
0.268599
0.186434
2.82898
2.86617
2.86952
2.5693
2.28178
2.09683
1.94584
1.84573
1.73451
1.69537
1.73738
1.79202
1.84347
1.8875
1.92283
1.94928
1.96672
1.97448
1.96867
1.93192
1.82517
1.51939
0.888967
0.23807
0.286
2.82898
2.86617
2.86952
2.5693
2.28178
2.09683
1.94584
1.84573
1.73451
1.69537
1.73738
1.79202
1.84347
1.88751
1.92284
1.94933
1.9671
1.97543
1.97203
1.94162
1.85236
1.6011
1.03718
0.286323
0.403084
2.82898
2.86617
2.86952
2.5693
2.28178
2.09683
1.94584
1.84573
1.73451
1.69537
1.73738
1.79202
1.84347
1.88751
1.92286
1.94942
1.96755
1.97674
1.97619
1.95337
1.88443
1.68759
1.23606
0.461428
0.645416
2.82898
2.86624
2.86966
2.56944
2.28178
2.09678
1.94577
1.8457
1.73454
1.69542
1.73742
1.79205
1.84349
1.88751
1.92283
1.94924
1.96631
1.97302
1.96323
1.91417
1.76694
1.3093
0.573687
0.371911
0.0386084
2.82898
2.86624
2.86966
2.56943
2.28177
2.09677
1.94577
1.8457
1.73454
1.69542
1.73742
1.79204
1.84349
1.88751
1.92283
1.94924
1.96631
1.97302
1.96325
1.91424
1.76729
1.31084
0.576347
0.370527
0.0395498
2.82897
2.86617
2.86953
2.56931
2.28182
2.09689
1.94589
1.84576
1.73452
1.69539
1.73739
1.79203
1.84348
1.8875
1.92283
1.94924
1.96631
1.97304
1.96331
1.91449
1.76834
1.3153
0.583869
0.366793
0.0436611
2.82897
2.86617
2.86953
2.5693
2.28182
2.09688
1.94589
1.84576
1.73451
1.69539
1.73739
1.79203
1.84348
1.8875
1.92283
1.94924
1.96632
1.97308
1.96348
1.91516
1.77102
1.32646
0.600641
0.357513
0.0559794
2.82898
2.86624
2.86966
2.56943
2.28177
2.09677
1.94576
1.8457
1.73454
1.69542
1.73742
1.79205
1.84349
1.88751
1.92283
1.94924
1.96634
1.97318
1.9639
1.91671
1.7768
1.34967
0.633547
0.338305
0.0820511
2.82898
2.86622
2.86962
2.56941
2.28176
2.09676
1.94574
1.84567
1.73451
1.69542
1.73742
1.79205
1.84349
1.88752
1.92284
1.94925
1.96639
1.9734
1.96477
1.91974
1.7873
1.38938
0.68958
0.308086
0.12455
2.82897
2.86623
2.86964
2.56943
2.28179
2.09679
1.94577
1.84569
1.73452
1.69542
1.73742
1.79205
1.84349
1.88751
1.92283
1.94926
1.96651
1.97382
1.96631
1.92476
1.80362
1.44767
0.773669
0.268584
0.186432
2.82897
2.86616
2.86951
2.56929
2.28183
2.09689
1.94589
1.84575
1.7345
1.69539
1.73739
1.79203
1.84348
1.88751
1.92283
1.94928
1.96672
1.97448
1.96867
1.93192
1.82518
1.5194
0.888979
0.238059
0.285998
2.82898
2.86624
2.86966
2.56943
2.28177
2.09677
1.94576
1.8457
1.73453
1.69542
1.73742
1.79205
1.84349
1.88752
1.92285
1.94933
1.9671
1.97542
1.97203
1.94161
1.85236
1.6011
1.03719
0.286322
0.403081
2.82898
2.86624
2.86965
2.56942
2.28175
2.09674
1.94574
1.84568
1.73453
1.69542
1.73742
1.79205
1.84349
1.88752
1.92287
1.94942
1.96755
1.97674
1.97618
1.95337
1.88443
1.68759
1.23606
0.461432
0.645413
2.82898
2.86617
2.86952
2.5693
2.28178
2.09683
1.94584
1.84573
1.73451
1.69537
1.73738
1.79202
1.84347
1.8875
1.92283
1.94924
1.96631
1.97302
1.96324
1.91417
1.76694
1.30929
0.573666
0.37194
0.0386091
2.82898
2.86617
2.86952
2.5693
2.28178
2.09683
1.94584
1.84573
1.73451
1.69538
1.73738
1.79202
1.84347
1.8875
1.92283
1.94924
1.96631
1.97303
1.96325
1.91425
1.76729
1.31083
0.576318
0.370562
0.0395383
2.82898
2.86617
2.86952
2.5693
2.28178
2.09683
1.94584
1.84573
1.73451
1.69537
1.73738
1.79202
1.84347
1.8875
1.92283
1.94924
1.96631
1.97304
1.96332
1.9145
1.76836
1.31542
0.583778
0.366615
0.04348
2.82898
2.86615
2.86949
2.56928
2.28178
2.09683
1.94583
1.84571
1.7345
1.69537
1.73738
1.79202
1.84347
1.8875
1.92283
1.94924
1.96632
1.97308
1.96349
1.91517
1.77104
1.32658
0.600557
0.357327
0.0558647
2.82898
2.86617
2.86952
2.5693
2.28178
2.09683
1.94584
1.84573
1.73451
1.69537
1.73738
1.79202
1.84347
1.8875
1.92283
1.94924
1.96634
1.97318
1.9639
1.91672
1.7768
1.34968
0.633525
0.338346
0.0820742
2.82898
2.86615
2.86949
2.56928
2.28178
2.09683
1.94583
1.84571
1.7345
1.69537
1.73738
1.79202
1.84347
1.8875
1.92283
1.94925
1.96639
1.9734
1.96477
1.91974
1.7873
1.38937
0.689573
0.30813
0.124559
2.82898
2.86617
2.86952
2.5693
2.28178
2.09683
1.94584
1.84573
1.73451
1.69537
1.73738
1.79202
1.84347
1.8875
1.92283
1.94926
1.96651
1.97382
1.96631
1.92477
1.80362
1.44767
0.773667
0.268598
0.186433
2.82898
2.86617
2.86952
2.5693
2.28178
2.09683
1.94584
1.84573
1.73451
1.69538
1.73738
1.79202
1.84347
1.8875
1.92283
1.94928
1.96672
1.97448
1.96867
1.93192
1.82518
1.5194
0.888973
0.238067
0.286002
2.82898
2.86617
2.86952
2.5693
2.28178
2.09683
1.94584
1.84572
1.7345
1.69537
1.73738
1.79202
1.84347
1.88751
1.92284
1.94933
1.9671
1.97543
1.97203
1.94162
1.85236
1.6011
1.03718
0.28632
0.403087
2.82898
2.86617
2.86952
2.5693
2.28178
2.09683
1.94583
1.84572
1.7345
1.69537
1.73738
1.79202
1.84348
1.88751
1.92286
1.94942
1.96755
1.97674
1.97619
1.95337
1.88443
1.68759
1.23606
0.461427
0.645417
2.82898
2.86617
2.86952
2.5693
2.28178
2.09684
1.94584
1.84573
1.73451
1.69537
1.73738
1.79202
1.84347
1.8875
1.92283
1.94924
1.96631
1.97302
1.96324
1.91417
1.76694
1.30928
0.573662
0.371942
0.0386093
2.82898
2.86617
2.86952
2.5693
2.28178
2.09683
1.94584
1.84573
1.73451
1.69537
1.73738
1.79202
1.84347
1.8875
1.92283
1.94924
1.96631
1.97303
1.96325
1.91424
1.76729
1.31083
0.576314
0.370564
0.0395385
2.82898
2.86617
2.86952
2.5693
2.28178
2.09683
1.94584
1.84573
1.73451
1.69537
1.73738
1.79202
1.84347
1.8875
1.92283
1.94924
1.96631
1.97304
1.96332
1.9145
1.76836
1.31542
0.583773
0.366619
0.0434813
2.82898
2.86617
2.86952
2.5693
2.28178
2.09683
1.94584
1.84573
1.73451
1.69537
1.73738
1.79202
1.84347
1.8875
1.92283
1.94924
1.96632
1.97308
1.96349
1.91517
1.77104
1.32658
0.600553
0.357329
0.0558658
2.82898
2.86617
2.86952
2.5693
2.28178
2.09683
1.94584
1.84573
1.73451
1.69537
1.73738
1.79202
1.84347
1.8875
1.92283
1.94924
1.96634
1.97318
1.9639
1.91672
1.7768
1.34967
0.633521
0.338346
0.0820786
2.82898
2.86617
2.86952
2.5693
2.28178
2.09684
1.94584
1.84573
1.73451
1.69537
1.73738
1.79202
1.84347
1.8875
1.92283
1.94925
1.96639
1.9734
1.96477
1.91974
1.7873
1.38937
0.68957
0.308122
0.124563
2.82898
2.86617
2.86952
2.5693
2.28178
2.09683
1.94584
1.84573
1.73451
1.69537
1.73738
1.79202
1.84347
1.8875
1.92283
1.94926
1.96651
1.97382
1.96631
1.92477
1.80362
1.44766
0.773657
0.268599
0.186434
2.82898
2.86617
2.86952
2.5693
2.28178
2.09683
1.94584
1.84573
1.73451
1.69537
1.73738
1.79202
1.84347
1.8875
1.92283
1.94928
1.96672
1.97448
1.96867
1.93192
1.82517
1.51939
0.888967
0.23807
0.286
2.82898
2.86617
2.86952
2.5693
2.28178
2.09683
1.94584
1.84573
1.73451
1.69537
1.73738
1.79202
1.84347
1.88751
1.92284
1.94933
1.9671
1.97543
1.97203
1.94162
1.85236
1.6011
1.03718
0.286323
0.403084
2.82898
2.86617
2.86952
2.5693
2.28178
2.09683
1.94584
1.84573
1.73451
1.69537
1.73738
1.79202
1.84347
1.88751
1.92286
1.94942
1.96755
1.97674
1.97619
1.95337
1.88443
1.68759
1.23606
0.461428
0.645416
2.82898
2.86617
2.86952
2.5693
2.28177
2.09683
1.94583
1.84572
1.7345
1.69537
1.73738
1.79202
1.84347
1.8875
1.92283
1.94924
1.96631
1.97302
1.96324
1.91417
1.76694
1.30928
0.573662
0.371942
0.0386093
2.82897
2.86616
2.86951
2.56928
2.28176
2.09681
1.94582
1.84571
1.7345
1.69538
1.73738
1.79202
1.84347
1.8875
1.92283
1.94924
1.96631
1.97303
1.96325
1.91424
1.76729
1.31083
0.576314
0.370564
0.0395385
2.82895
2.86614
2.8695
2.56927
2.28176
2.09681
1.94582
1.84571
1.7345
1.69538
1.73738
1.79202
1.84347
1.8875
1.92283
1.94924
1.96631
1.97304
1.96332
1.9145
1.76836
1.31542
0.583773
0.366619
0.0434812
2.82899
2.86632
2.86978
2.56951
2.28196
2.09704
1.94605
1.84585
1.73457
1.69543
1.73741
1.79203
1.84348
1.88751
1.92283
1.94924
1.96632
1.97308
1.96349
1.91517
1.77104
1.32658
0.600553
0.357329
0.0558658
2.82906
2.86649
2.87
2.56976
2.28213
2.09714
1.94609
1.84586
1.73455
1.69542
1.73741
1.79203
1.84348
1.88751
1.92283
1.94924
1.96634
1.97318
1.9639
1.91672
1.7768
1.34967
0.633521
0.338346
0.0820785
2.82868
2.86476
2.86676
2.5655
2.27859
2.09381
1.94358
1.84493
1.73472
1.69545
1.73744
1.79207
1.84351
1.88753
1.92285
1.94926
1.9664
1.97341
1.96477
1.91974
1.7873
1.38937
0.68957
0.308122
0.124563
2.82906
2.86649
2.87
2.56975
2.28213
2.09714
1.94608
1.84585
1.73455
1.69542
1.73741
1.79203
1.84348
1.88751
1.92283
1.94926
1.96651
1.97382
1.96631
1.92477
1.80362
1.44766
0.773657
0.268599
0.186434
2.82897
2.8663
2.86976
2.56948
2.28193
2.09701
1.94603
1.84584
1.73456
1.69543
1.73742
1.79204
1.84348
1.88751
1.92284
1.94928
1.96672
1.97448
1.96867
1.93192
1.82517
1.51939
0.888967
0.23807
0.286
2.82892
2.86612
2.86948
2.56926
2.28175
2.09679
1.94581
1.8457
1.73449
1.69538
1.73739
1.79202
1.84348
1.88751
1.92284
1.94933
1.9671
1.97542
1.97203
1.94161
1.85236
1.6011
1.03718
0.286323
0.403084
2.82897
2.8663
2.86976
2.56948
2.28193
2.09701
1.94603
1.84584
1.73456
1.69543
1.73742
1.79204
1.84348
1.88752
1.92286
1.94942
1.96755
1.97674
1.97618
1.95337
1.88443
1.68759
1.23606
0.461428
0.645416
2.82893
2.86627
2.86973
2.56945
2.2819
2.09698
1.946
1.84582
1.73455
1.69544
1.73742
1.79204
1.84349
1.88751
1.92283
1.94924
1.96631
1.97302
1.96323
1.91416
1.76694
1.30928
0.573663
0.371941
0.0386091
2.82902
2.86645
2.86997
2.56971
2.28209
2.0971
1.94606
1.84584
1.73454
1.69542
1.73741
1.79204
1.84348
1.88751
1.92283
1.94924
1.96631
1.97303
1.96325
1.91424
1.76729
1.31083
0.576315
0.370564
0.0395384
2.82872
2.86502
2.8672
2.56593
2.27893
2.09416
1.9439
1.84512
1.73481
1.69553
1.73749
1.79209
1.84352
1.88754
1.92285
1.94925
1.96632
1.97304
1.96332
1.9145
1.76836
1.31542
0.583774
0.366618
0.0434811
2.82899
2.86638
2.86986
2.56962
2.28202
2.09704
1.946
1.84582
1.73454
1.69541
1.73741
1.79203
1.84348
1.88751
1.92283
1.94924
1.96632
1.97308
1.96349
1.91517
1.77104
1.32658
0.600554
0.357329
0.0558657
2.82872
2.86502
2.8672
2.56593
2.27893
2.09416
1.94391
1.84513
1.73482
1.69553
1.73749
1.79209
1.84352
1.88754
1.92285
1.94925
1.96634
1.97318
1.9639
1.91672
1.7768
1.34967
0.633522
0.338346
0.0820785
2.82903
2.86646
2.86998
2.56973
2.28211
2.09713
1.94608
1.84585
1.73455
1.69542
1.73741
1.79203
1.84348
1.88751
1.92283
1.94925
1.96639
1.9734
1.96477
1.91974
1.7873
1.38937
0.689571
0.308122
0.124563
2.82897
2.86631
2.86977
2.56949
2.28193
2.09701
1.94603
1.84584
1.73456
1.69543
1.73742
1.79204
1.84348
1.88751
1.92283
1.94926
1.96651
1.97382
1.96631
1.92476
1.80362
1.44766
0.773658
0.268599
0.186434
2.82895
2.86614
2.86949
2.56927
2.28175
2.0968
1.94581
1.84571
1.73449
1.69538
1.73739
1.79202
1.84348
1.88751
1.92283
1.94928
1.96672
1.97448
1.96867
1.93192
1.82517
1.51939
0.888967
0.238069
0.286
2.82897
2.86616
2.86951
2.56928
2.28176
2.0968
1.94582
1.84571
1.73449
1.69538
1.73738
1.79202
1.84348
1.88751
1.92284
1.94933
1.9671
1.97542
1.97203
1.94162
1.85236
1.6011
1.03718
0.286323
0.403084
2.82898
2.86617
2.86952
2.56929
2.28177
2.09682
1.94583
1.84572
1.7345
1.69537
1.73738
1.79202
1.84348
1.88751
1.92286
1.94942
1.96755
1.97674
1.97619
1.95337
1.88443
1.68759
1.23606
0.461428
0.645416
2.82893
2.86612
2.86947
2.56924
2.28176
2.09681
1.94583
1.84571
1.7345
1.69541
1.73742
1.79205
1.8435
1.88753
1.92285
1.94926
1.96633
1.97304
1.96325
1.91418
1.76697
1.3093
0.57394
0.372228
0.0402063
2.82899
2.86641
2.86995
2.56966
2.28197
2.097
1.946
1.84584
1.73461
1.6955
1.73748
1.79209
1.84352
1.88754
1.92286
1.94926
1.96633
1.97304
1.96327
1.91427
1.76734
1.31096
0.576538
0.370627
0.0409354
2.82905
2.86646
2.86997
2.56973
2.28214
2.09714
1.94608
1.84584
1.73455
1.69545
1.73744
1.79206
1.84351
1.88753
1.92285
1.94926
1.96633
1.97306
1.96333
1.91452
1.76839
1.31542
0.584045
0.366895
0.0449091
2.82864
2.86487
2.86702
2.56573
2.27846
2.09355
1.94331
1.84482
1.73478
1.69556
1.73754
1.79215
1.84357
1.88757
1.92288
1.94927
1.96634
1.9731
1.9635
1.91519
1.77107
1.32657
0.600823
0.35761
0.0569638
2.82903
2.86659
2.87019
2.56992
2.28228
2.09732
1.94629
1.84598
1.73463
1.69551
1.73747
1.79208
1.84352
1.88754
1.92286
1.94926
1.96636
1.9732
1.96392
1.91673
1.77682
1.34965
0.63378
0.338629
0.0828126
2.8289
2.8668
2.87067
2.5704
2.28256
2.09755
1.94648
1.8461
1.73471
1.69561
1.73755
1.79213
1.84355
1.88755
1.92286
1.94927
1.96641
1.97342
1.96478
1.91976
1.78732
1.38935
0.689809
0.308443
0.124999
2.82866
2.86488
2.86699
2.56572
2.27877
2.09398
1.94373
1.84502
1.73477
1.69553
1.7375
1.79211
1.84355
1.88756
1.92287
1.94929
1.96653
1.97384
1.96633
1.92479
1.80366
1.44772
0.77384
0.268754
0.186697
2.82866
2.86512
2.86737
2.56605
2.27906
2.09428
1.94403
1.8452
1.73485
1.69561
1.73755
1.79214
1.84356
1.88757
1.92288
1.94931
1.96674
1.9745
1.96868
1.93194
1.8252
1.51942
0.889106
0.238286
0.286193
2.82904
2.86671
2.87038
2.5701
2.28245
2.09749
1.94642
1.84605
1.73465
1.69554
1.73749
1.79209
1.84353
1.88754
1.92287
1.94935
1.96712
1.97544
1.97205
1.94163
1.85238
1.6011
1.03728
0.286466
0.403218
2.8287
2.86536
2.86783
2.5665
2.27913
2.09423
1.94393
1.84514
1.73492
1.69573
1.73765
1.79221
1.84361
1.8876
1.92292
1.94946
1.96758
1.97676
1.9762
1.95339
1.88445
1.6876
1.23614
0.461487
0.645514
2.82903
2.86668
2.87034
2.57004
2.28235
2.09736
1.94631
1.84598
1.73462
1.69552
1.73748
1.79209
1.84352
1.88756
1.92293
1.94959
1.96821
1.97884
1.98138
1.96901
1.92567
1.80382
1.50584
0.887587
0.900894
2.82865
2.86494
2.86711
2.56584
2.27886
2.09408
1.94383
1.84505
1.73477
1.69556
1.73752
1.79213
1.84356
1.88758
1.92297
1.9497
1.96853
1.98076
1.9856
1.98218
1.96067
1.89958
1.73507
1.36686
1.13447
2.82897
2.86654
2.87015
2.56983
2.28219
2.09722
1.9462
1.84593
1.7346
1.69551
1.73748
1.79208
1.84352
1.88756
1.92295
1.94975
1.96865
1.98161
1.98862
1.99009
1.98334
1.95905
1.89209
1.70812
1.42887
2.82904
2.86682
2.87058
2.57021
2.28249
2.09753
1.94649
1.84609
1.73468
1.69557
1.73751
1.7921
1.84353
1.88757
1.92296
1.94976
1.9687
1.98171
1.98991
1.99344
1.99337
1.9866
1.96562
1.90732
1.76127
2.82863
2.86498
2.86717
2.56587
2.27889
2.09411
1.94387
1.84508
1.73479
1.69557
1.73753
1.79213
1.84356
1.88759
1.92297
1.94977
1.96872
1.98178
1.99006
1.99469
1.99645
1.99612
1.99172
1.97931
1.94519
2.82873
2.86532
2.86768
2.56639
2.27929
2.09446
1.94415
1.84523
1.73485
1.69562
1.73756
1.79215
1.84357
1.88759
1.92298
1.94977
1.96872
1.98179
1.99011
1.99483
1.99733
1.99822
1.99801
1.99589
1.99026
2.82876
2.86546
2.86792
2.5666
2.27948
2.09469
1.94438
1.84537
1.73493
1.69567
1.73759
1.79216
1.84358
1.8876
1.92298
1.94978
1.96872
1.98179
1.99012
1.99487
1.99743
1.99873
1.99918
1.99912
1.99831
2.82874
2.86549
2.86796
2.56661
2.27947
2.09468
1.94438
1.84539
1.73495
1.69568
1.73759
1.79216
1.84357
1.8876
1.92298
1.94977
1.96872
1.98179
1.99012
1.99487
1.99746
1.99879
1.99943
1.99966
1.99966
2.8287
2.86529
2.86766
2.56636
2.27926
2.09443
1.94413
1.84522
1.73484
1.69562
1.73756
1.79215
1.84357
1.88759
1.92298
1.94977
1.96872
1.98179
1.99012
1.99488
1.99746
1.9988
1.99946
1.99976
1.99987
2.82866
2.86522
2.86756
2.56621
2.27915
2.09438
1.94415
1.84527
1.73489
1.69564
1.73757
1.79215
1.84357
1.88759
1.92297
1.94977
1.96872
1.98179
1.99012
1.99488
1.99746
1.9988
1.99946
1.99977
1.99991
2.8289
2.86689
2.87079
2.57049
2.28271
2.09773
1.94665
1.84618
1.73471
1.6956
1.73753
1.79211
1.84354
1.88757
1.92296
1.94976
1.96872
1.98179
1.99012
1.99488
1.99746
1.9988
1.99946
1.99978
1.99992
2.82864
2.86502
2.86724
2.56595
2.27894
2.09415
1.94389
1.84508
1.73478
1.69558
1.73754
1.79214
1.84356
1.88759
1.92297
1.94977
1.96872
1.98179
1.99012
1.99488
1.99746
1.9988
1.99946
1.99978
1.99992
2.82864
2.86505
2.86729
2.56598
2.27895
2.09415
1.94391
1.84512
1.73481
1.69558
1.73754
1.79213
1.84356
1.88759
1.92297
1.94977
1.96872
1.98179
1.99012
1.99488
1.99746
1.9988
1.99946
1.99978
1.99992
2.8289
2.86689
2.87079
2.5705
2.28272
2.09774
1.94666
1.84618
1.73471
1.6956
1.73753
1.79211
1.84354
1.88757
1.92296
1.94976
1.96872
1.98179
1.99012
1.99488
1.99746
1.9988
1.99946
1.99978
1.99992
2.82867
2.86519
2.86752
2.56621
2.27917
2.0944
1.94415
1.84525
1.73487
1.69564
1.73756
1.79215
1.84357
1.88759
1.92298
1.94977
1.96872
1.98179
1.99012
1.99488
1.99746
1.9988
1.99946
1.99978
1.99992
2.82874
2.86535
2.86773
2.56641
2.27929
2.09446
1.94415
1.84525
1.73487
1.69562
1.73756
1.79214
1.84357
1.88759
1.92298
1.94977
1.96872
1.98179
1.99012
1.99488
1.99746
1.9988
1.99946
1.99978
1.99992
2.82874
2.86535
2.86772
2.56641
2.27928
2.09446
1.94415
1.84525
1.73487
1.69562
1.73756
1.79214
1.84357
1.88759
1.92298
1.94977
1.96872
1.98179
1.99012
1.99488
1.99746
1.9988
1.99946
1.99978
1.99992
2.82866
2.86521
2.86756
2.56622
2.27915
2.09438
1.94414
1.84526
1.73489
1.69564
1.73757
1.79215
1.84357
1.88759
1.92297
1.94977
1.96872
1.98179
1.99012
1.99488
1.99746
1.9988
1.99946
1.99978
1.99992
2.82887
2.86686
2.87077
2.57046
2.28269
2.09772
1.94665
1.84617
1.73471
1.69561
1.73753
1.79211
1.84354
1.88757
1.92296
1.94976
1.96872
1.98179
1.99012
1.99488
1.99746
1.9988
1.99946
1.99978
1.99992
2.82865
2.86521
2.86756
2.5662
2.27913
2.09437
1.94413
1.84525
1.73488
1.69564
1.73757
1.79215
1.84357
1.88759
1.92298
1.94977
1.96872
1.98179
1.99012
1.99488
1.99746
1.9988
1.99946
1.99978
1.99992
2.82872
2.86531
2.86767
2.56638
2.27928
2.09445
1.94414
1.84522
1.73485
1.69562
1.73756
1.79215
1.84357
1.88759
1.92298
1.94977
1.96872
1.98179
1.99012
1.99488
1.99746
1.9988
1.99946
1.99978
1.99992
2.82875
2.86549
2.86796
2.5666
2.27945
2.09466
1.94436
1.84538
1.73494
1.69568
1.73759
1.79216
1.84357
1.8876
1.92298
1.94977
1.96872
1.98179
1.99012
1.99488
1.99746
1.9988
1.99946
1.99978
1.99992
2.82872
2.86531
2.86767
2.56638
2.27928
2.09445
1.94414
1.84522
1.73485
1.69562
1.73756
1.79215
1.84357
1.88759
1.92298
1.94977
1.96872
1.98179
1.99012
1.99488
1.99746
1.9988
1.99946
1.99978
1.99992
2.82864
2.86521
2.86755
2.5662
2.27913
2.09436
1.94412
1.84525
1.73488
1.69564
1.73757
1.79215
1.84357
1.88759
1.92297
1.94977
1.96872
1.98179
1.99012
1.99488
1.99746
1.9988
1.99946
1.99978
1.99992
2.82887
2.86688
2.87079
2.57047
2.28269
2.09772
1.94665
1.84618
1.73471
1.69561
1.73753
1.79211
1.84354
1.88757
1.92296
1.94976
1.96872
1.98179
1.99012
1.99488
1.99746
1.9988
1.99946
1.99978
1.99992
2.82864
2.86517
2.8675
2.56617
2.27912
2.09435
1.94411
1.84522
1.73486
1.69564
1.73757
1.79215
1.84357
1.88759
1.92298
1.94977
1.96872
1.98179
1.99012
1.99488
1.99746
1.9988
1.99946
1.99978
1.99992
2.82872
2.86535
2.86773
2.56641
2.27929
2.09446
1.94416
1.84526
1.73487
1.69562
1.73756
1.79215
1.84357
1.88759
1.92298
1.94977
1.96872
1.98179
1.99012
1.99488
1.99746
1.9988
1.99946
1.99978
1.99992
2.82875
2.86545
2.8679
2.56658
2.27945
2.09465
1.94435
1.84535
1.73492
1.69567
1.73759
1.79216
1.84358
1.8876
1.92298
1.94978
1.96872
1.98179
1.99012
1.99488
1.99746
1.9988
1.99946
1.99978
1.99992
2.82872
2.86531
2.86767
2.56639
2.27929
2.09446
1.94414
1.84523
1.73485
1.69562
1.73756
1.79215
1.84357
1.88759
1.92298
1.94977
1.96872
1.98179
1.99012
1.99488
1.99746
1.9988
1.99946
1.99978
1.99992
2.82866
2.86522
2.86757
2.56622
2.27915
2.09439
1.94415
1.84527
1.73489
1.69564
1.73757
1.79215
1.84357
1.88759
1.92297
1.94977
1.96872
1.98179
1.99012
1.99488
1.99746
1.9988
1.99946
1.99978
1.99992
2.82891
2.8669
2.87082
2.57051
2.28272
2.09774
1.94667
1.84619
1.73472
1.6956
1.73753
1.79211
1.84354
1.88757
1.92296
1.94976
1.96872
1.98179
1.99012
1.99488
1.99746
1.9988
1.99946
1.99978
1.99992
2.82864
2.86505
2.86729
2.56599
2.27895
2.09416
1.94391
1.84512
1.73481
1.69558
1.73753
1.79213
1.84356
1.88759
1.92297
1.94977
1.96872
1.98179
1.99012
1.99488
1.99746
1.9988
1.99946
1.99978
1.99992
2.82866
2.86507
2.86731
2.56601
2.27897
2.09419
1.94393
1.84513
1.73482
1.69558
1.73753
1.79213
1.84356
1.88759
1.92297
1.94977
1.96872
1.98179
1.99012
1.99488
1.99746
1.9988
1.99946
1.99978
1.99992
2.82894
2.86693
2.87084
2.57054
2.28274
2.09776
1.94668
1.8462
1.73473
1.6956
1.73753
1.79211
1.84354
1.88757
1.92296
1.94976
1.96872
1.98179
1.99012
1.99488
1.99746
1.9988
1.99946
1.99978
1.99992
2.82867
2.86508
2.86732
2.56603
2.279
2.09421
1.94396
1.84515
1.73483
1.69558
1.73753
1.79213
1.84356
1.88759
1.92297
1.94977
1.96872
1.98179
1.99012
1.99488
1.99746
1.9988
1.99946
1.99978
1.99992
2.82867
2.86505
2.86728
2.56599
2.27898
2.09417
1.94391
1.8451
1.7348
1.69558
1.73753
1.79214
1.84356
1.88759
1.92297
1.94977
1.96872
1.98179
1.99012
1.99488
1.99746
1.9988
1.99946
1.99978
1.99992
2.829
2.86667
2.87034
2.57004
2.28237
2.09739
1.94634
1.846
1.73462
1.69553
1.73749
1.79209
1.84352
1.88756
1.92296
1.94976
1.96872
1.98179
1.99012
1.99488
1.99746
1.9988
1.99946
1.99978
1.99992
2.82871
2.86526
2.86761
2.56628
2.27922
2.09445
1.9442
1.84529
1.7349
1.69564
1.73756
1.79215
1.84356
1.88759
1.92297
1.94977
1.96872
1.98179
1.99012
1.99488
1.99746
1.9988
1.99946
1.99978
1.99992
2.82901
2.86675
2.87049
2.57016
2.28231
2.09727
1.94622
1.84595
1.73465
1.69556
1.73751
1.79211
1.84354
1.88757
1.92296
1.94976
1.96872
1.98179
1.99012
1.99488
1.99746
1.9988
1.99946
1.99978
1.99992
2.82868
2.86507
2.86729
2.56602
2.27902
2.09423
1.94396
1.84513
1.73481
1.69558
1.73753
1.79213
1.84356
1.88759
1.92297
1.94977
1.96872
1.98179
1.99012
1.99488
1.99746
1.9988
1.99946
1.99978
1.99992
2.82897
2.86616
2.86951
2.56928
2.28176
2.09681
1.94582
1.84571
1.7345
1.69538
1.73738
1.79202
1.84347
1.88752
1.9229
1.94957
1.96819
1.97882
1.98136
1.96899
1.92565
1.8038
1.50579
0.887562
0.9008
2.82895
2.86614
2.8695
2.56927
2.28176
2.09681
1.94582
1.84571
1.7345
1.69538
1.73739
1.79202
1.84348
1.88752
1.92292
1.94967
1.9685
1.98074
1.98558
1.98215
1.96064
1.89955
1.73502
1.3668
1.13438
2.82898
2.86632
2.86977
2.56951
2.28196
2.09704
1.94605
1.84585
1.73457
1.69543
1.73741
1.79204
1.84348
1.88753
1.92293
1.94973
1.96863
1.98159
1.9886
1.99007
1.98332
1.95902
1.89204
1.70804
1.42876
2.82904
2.86647
2.86999
2.56974
2.28211
2.09712
1.94606
1.84584
1.73454
1.69542
1.73741
1.79204
1.84348
1.88753
1.92293
1.94974
1.96868
1.98169
1.9899
1.99342
1.99335
1.98658
1.96559
1.90727
1.76118
2.82865
2.86473
2.86674
2.56547
2.27857
2.09379
1.94356
1.84492
1.73471
1.69546
1.73745
1.79207
1.84351
1.88755
1.92294
1.94975
1.9687
1.98176
1.99004
1.99468
1.99643
1.9961
1.9917
1.97928
1.94515
2.82905
2.86661
2.87022
2.56994
2.28228
2.09732
1.94628
1.84598
1.73462
1.69547
1.73744
1.79205
1.84349
1.88754
1.92293
1.94974
1.9687
1.98177
1.99009
1.99481
1.99731