/*--------------------------------*- C++ -*----------------------------------*\
| =========                 |                                                 |
| \\      /  F ield         | OpenFOAM: The Open Source CFD Toolbox           |
|  \\    /   O peration     | Version:  4.1                                   |
|   \\  /    A nd           | Web:      www.OpenFOAM.org                      |
|    \\/     M anipulation  |                                                 |
\*---------------------------------------------------------------------------*/
FoamFile
{
    version     2.0;
    format      ascii;
    class       volScalarField;
    location    "0.1";
    object      p;
}
// * * * * * * * * * * * * * * * * * * * * * * * * * * * * * * * * * * * * * //

dimensions      [1 -1 -2 0 0 0 0];

internalField   nonuniform List<scalar> 
52500
(
0.0999545
0.0890806
0.0929554
0.101316
0.119537
0.151509
0.198729
0.287057
0.460934
0.602833
0.697833
0.778321
0.846346
0.899902
0.9386
0.965615
0.982308
0.996193
1.02518
1.09328
1.28534
1.91525
4.57105
10.4435
10.2133
0.0999545
0.0890806
0.0929557
0.101318
0.119541
0.151518
0.198742
0.287079
0.460953
0.602848
0.697842
0.778327
0.846349
0.899903
0.9386
0.965615
0.982308
0.996188
1.02515
1.09317
1.28484
1.91252
4.55194
10.3882
10.1641
0.0999541
0.0890783
0.0929529
0.101315
0.119541
0.151521
0.198748
0.28711
0.46097
0.602861
0.697857
0.778341
0.846361
0.899911
0.938606
0.965617
0.982311
0.99617
1.02507
1.09282
1.28332
1.90461
4.49887
10.2483
10.046
0.0999507
0.0891056
0.0929854
0.101355
0.119593
0.151591
0.198814
0.287165
0.460994
0.602861
0.697861
0.778349
0.846368
0.899917
0.93861
0.965616
0.982317
0.996116
1.02483
1.09189
1.27947
1.8856
4.37656
9.98311
9.83687
0.0999397
0.0891084
0.0929865
0.101352
0.119591
0.151582
0.198811
0.287196
0.461014
0.602872
0.697874
0.77836
0.846376
0.899922
0.938614
0.965609
0.982329
0.995977
1.02426
1.08978
1.27125
1.84767
4.14043
9.56084
9.54991
0.0999828
0.0890924
0.0929605
0.101298
0.119456
0.151369
0.198582
0.287062
0.460805
0.602852
0.697874
0.778357
0.846372
0.899917
0.938615
0.965588
0.98235
0.99568
1.0231
1.08572
1.25643
1.78489
3.78515
8.97215
9.25082
0.0999771
0.08912
0.0929921
0.101335
0.119506
0.151431
0.198641
0.287126
0.460826
0.602849
0.697877
0.778365
0.84638
0.899922
0.938628
0.965549
0.982383
0.995169
1.02106
1.07916
1.23377
1.69622
3.35712
8.14636
9.00134
0.0999395
0.0891428
0.0930251
0.101396
0.119647
0.151664
0.198898
0.287304
0.461068
0.602884
0.697887
0.778375
0.846388
0.899924
0.938644
0.965479
0.982404
0.994451
1.018
1.0701
1.20475
1.59152
2.90233
7.0165
8.78572
0.0999778
0.0891224
0.0929951
0.101339
0.119512
0.151445
0.198656
0.287149
0.460841
0.602856
0.697879
0.778367
0.846378
0.899913
0.938659
0.965354
0.982358
0.993607
1.01385
1.05822
1.16974
1.47991
2.47175
5.79087
8.26255
0.0999769
0.0891203
0.0929927
0.101336
0.119509
0.151446
0.19866
0.287155
0.46085
0.602869
0.697884
0.778369
0.846375
0.899903
0.938683
0.965182
0.982261
0.992713
1.009
1.04431
1.13033
1.36456
2.078
4.35802
7.3517
0.0999514
0.0891051
0.0929848
0.101355
0.119594
0.151599
0.198827
0.287192
0.461017
0.602877
0.697872
0.778358
0.846378
0.899928
0.938621
0.965633
0.982322
0.996208
1.02519
1.0933
1.28539
1.91542
4.57183
10.4443
10.2128
0.0999485
0.0890858
0.0929605
0.101321
0.119544
0.151524
0.198756
0.287124
0.460988
0.60287
0.697866
0.778351
0.846371
0.899923
0.938617
0.96563
0.982321
0.996202
1.02517
1.09319
1.28489
1.91268
4.55265
10.389
10.1636
0.0999777
0.0891199
0.0929923
0.101335
0.119506
0.15143
0.198629
0.287068
0.460779
0.602834
0.697865
0.778356
0.846377
0.899928
0.938621
0.965631
0.982324
0.996183
1.02508
1.09283
1.28333
1.90467
4.49909
10.2495
10.0455
0.0999516
0.0890784
0.0929516
0.101309
0.119527
0.151496
0.198724
0.287083
0.460958
0.602859
0.69786
0.778347
0.846369
0.899922
0.938618
0.965627
0.982329
0.996127
1.02484
1.0919
1.27948
1.88564
4.37669
9.98428
9.83631
0.0999777
0.0891198
0.0929922
0.101335
0.119506
0.151428
0.198626
0.287061
0.460771
0.60283
0.697863
0.778356
0.846377
0.899928
0.938625
0.965621
0.982341
0.995989
1.02427
1.08979
1.27125
1.8477
4.14055
9.56198
9.54924
0.0999482
0.0890857
0.0929602
0.10132
0.119541
0.151515
0.198742
0.287094
0.460961
0.602854
0.697857
0.778346
0.846369
0.899921
0.938625
0.9656
0.982364
0.995694
1.02311
1.08573
1.25644
1.78491
3.78526
8.97309
9.25023
0.0999501
0.089105
0.0929845
0.101354
0.119592
0.15159
0.198811
0.287153
0.460984
0.602859
0.69786
0.77835
0.846373
0.899922
0.938635
0.965561
0.982396
0.995182
1.02107
1.07918
1.23379
1.69629
3.35738
8.14725
9.0007
0.0999554
0.0890809
0.0929558
0.101317
0.119539
0.151518
0.198742
0.28708
0.460952
0.602851
0.69785
0.778339
0.846363
0.899912
0.938644
0.965486
0.982415
0.994463
1.01801
1.07011
1.20477
1.59157
2.90245
7.01703
8.78533
0.0999548
0.0890809
0.0929559
0.101318
0.11954
0.151517
0.19874
0.28707
0.460947
0.602851
0.697847
0.778337
0.846358
0.899905
0.938661
0.965364
0.982371
0.99362
1.01386
1.05823
1.16976
1.47993
2.47176
5.79131
8.26268
0.0999545
0.089081
0.0929559
0.101317
0.119538
0.151511
0.198731
0.287052
0.460931
0.602842
0.69784
0.778335
0.846355
0.899896
0.938686
0.965193
0.982275
0.992726
1.00901
1.04432
1.13034
1.36458
2.07801
4.35817
7.35197
0.0999545
0.089081
0.0929558
0.101317
0.119538
0.15151
0.198728
0.287047
0.460926
0.602838
0.697841
0.778332
0.846358
0.899916
0.938615
0.96563
0.982322
0.996208
1.02519
1.0933
1.28539
1.91542
4.57183
10.4443
10.2128
0.0999548
0.0890808
0.0929559
0.101317
0.11954
0.151516
0.198737
0.287064
0.460941
0.602847
0.697847
0.778335
0.846361
0.899917
0.938616
0.96563
0.982322
0.996203
1.02517
1.09319
1.28489
1.91268
4.55265
10.389
10.1636
0.0999553
0.0890808
0.0929556
0.101317
0.119539
0.151516
0.198738
0.287072
0.460944
0.602847
0.697848
0.778338
0.846364
0.89992
0.938617
0.96563
0.982325
0.996184
1.02508
1.09283
1.28333
1.90467
4.49909
10.2495
10.0455
0.0999496
0.0891048
0.0929841
0.101352
0.119589
0.151579
0.198794
0.287119
0.460954
0.602842
0.69785
0.778344
0.84637
0.899925
0.938621
0.965629
0.982331
0.996129
1.02485
1.0919
1.27948
1.88564
4.3767
9.98428
9.8363
0.0999475
0.0890834
0.0929573
0.101316
0.119535
0.151504
0.19873
0.287072
0.460944
0.602847
0.697851
0.778342
0.846366
0.899921
0.93862
0.96562
0.982342
0.995989
1.02427
1.08979
1.27125
1.8477
4.14055
9.56199
9.54924
0.0999842
0.0890888
0.0929566
0.101294
0.11945
0.15135
0.198547
0.286969
0.460732
0.60282
0.697849
0.77834
0.846364
0.899918
0.938623
0.965599
0.982363
0.995693
1.02311
1.08573
1.25644
1.78491
3.78526
8.9731
9.25023
0.0999475
0.0890834
0.0929574
0.101316
0.119535
0.151506
0.198732
0.287076
0.460949
0.60285
0.697853
0.778343
0.846367
0.899918
0.938632
0.965559
0.982395
0.995182
1.02107
1.07918
1.23379
1.69629
3.35738
8.14725
9.00069
0.0999502
0.0891051
0.0929847
0.101354
0.119592
0.15159
0.198811
0.287152
0.460982
0.602858
0.697859
0.77835
0.846373
0.89992
0.938649
0.965489
0.982416
0.994464
1.01801
1.07011
1.20477
1.59157
2.90245
7.01704
8.78533
0.0999562
0.0890801
0.0929548
0.101316
0.119538
0.151517
0.198745
0.287093
0.460966
0.60286
0.697857
0.778347
0.846367
0.899911
0.938665
0.965367
0.982373
0.993621
1.01387
1.05823
1.16976
1.47993
2.47176
5.79132
8.26268
0.0999502
0.0891051
0.0929847
0.101354
0.119592
0.15159
0.198811
0.287152
0.460982
0.602858
0.697858
0.778353
0.84637
0.899907
0.938693
0.965197
0.982277
0.992727
1.00901
1.04433
1.13034
1.36458
2.07801
4.35817
7.35197
0.0999545
0.0890809
0.0929557
0.101316
0.119537
0.151507
0.198724
0.287037
0.460915
0.602832
0.697838
0.778331
0.84636
0.899918
0.938617
0.965632
0.982323
0.996209
1.02519
1.0933
1.28539
1.91542
4.57183
10.4443
10.2128
0.0999545
0.0890809
0.0929557
0.101317
0.119537
0.151508
0.198724
0.287037
0.460916
0.602833
0.697839
0.778331
0.84636
0.899918
0.938617
0.965631
0.982323
0.996204
1.02517
1.09319
1.28489
1.91268
4.55265
10.389
10.1636
0.0999545
0.0890809
0.0929557
0.101317
0.119537
0.151508
0.198724
0.287037
0.460916
0.602833
0.697839
0.778331
0.84636
0.899918
0.938617
0.965631
0.982325
0.996184
1.02508
1.09283
1.28333
1.90467
4.49909
10.2495
10.0455
0.0999545
0.0890809
0.0929557
0.101317
0.119537
0.151508
0.198724
0.287037
0.460916
0.602833
0.697839
0.778331
0.84636
0.899917
0.938618
0.965628
0.98233
0.996129
1.02485
1.0919
1.27948
1.88564
4.3767
9.98428
9.8363
0.0999545
0.0890809
0.0929557
0.101317
0.119537
0.151508
0.198724
0.287037
0.460916
0.602833
0.697839
0.778331
0.84636
0.899917
0.938619
0.96562
0.982342
0.99599
1.02428
1.08979
1.27125
1.8477
4.14055
9.56199
9.54924
0.0999544
0.0890809
0.0929557
0.101316
0.119537
0.151508
0.198724
0.287037
0.460916
0.602833
0.697839
0.778331
0.84636
0.899916
0.938623
0.965601
0.982365
0.995694
1.02311
1.08573
1.25644
1.78491
3.78526
8.9731
9.25023
0.0999545
0.0890809
0.0929557
0.101317
0.119537
0.151508
0.198724
0.287037
0.460916
0.602833
0.697838
0.778332
0.84636
0.899914
0.938632
0.96556
0.982396
0.995183
1.02107
1.07918
1.23379
1.69629
3.35738
8.14725
9.00069
0.0999545
0.0890809
0.0929557
0.101317
0.119537
0.151508
0.198724
0.287037
0.460916
0.602833
0.697838
0.778332
0.846359
0.899911
0.938645
0.965487
0.982416
0.994464
1.01801
1.07011
1.20477
1.59157
2.90245
7.01703
8.78533
0.0999545
0.0890809
0.0929557
0.101317
0.119537
0.151508
0.198724
0.287037
0.460916
0.602833
0.697838
0.778333
0.846358
0.899907
0.938664
0.965366
0.982373
0.993621
1.01387
1.05823
1.16976
1.47993
2.47176
5.79132
8.26268
0.0999545
0.0890809
0.0929557
0.101317
0.119537
0.151508
0.198724
0.287037
0.460916
0.602833
0.697837
0.778335
0.846357
0.899899
0.938689
0.965195
0.982277
0.992728
1.00901
1.04433
1.13034
1.36458
2.07801
4.35817
7.35196
0.0999538
0.0890779
0.0929522
0.101313
0.119535
0.151499
0.198714
0.287037
0.460912
0.602832
0.697841
0.778333
0.846358
0.899913
0.93861
0.965625
0.982318
0.996204
1.02519
1.0933
1.28539
1.9154
4.5717
10.4442
10.2131
0.0999537
0.0890785
0.0929528
0.101313
0.119536
0.151501
0.198716
0.287042
0.460914
0.60283
0.697838
0.778331
0.846356
0.899912
0.93861
0.965624
0.982318
0.996199
1.02516
1.09319
1.28489
1.91267
4.55258
10.3888
10.1638
0.0999548
0.0890799
0.0929544
0.101315
0.119535
0.151504
0.198722
0.287045
0.460923
0.602829
0.697834
0.778327
0.846353
0.89991
0.938609
0.965623
0.982319
0.99618
1.02508
1.09284
1.28336
1.90475
4.49948
10.2488
10.0456
0.0999548
0.0890801
0.0929547
0.101315
0.119535
0.151504
0.198723
0.287045
0.460923
0.602828
0.697834
0.778327
0.846354
0.899911
0.93861
0.965621
0.982325
0.996124
1.02484
1.09191
1.27951
1.88573
4.37713
9.98366
9.83637
0.0999537
0.0890789
0.0929532
0.101314
0.119537
0.151502
0.198718
0.287044
0.460914
0.602828
0.697836
0.778329
0.846355
0.899911
0.938612
0.965612
0.982336
0.995984
1.02427
1.08979
1.27126
1.84771
4.14056
9.5618
9.54939
0.099954
0.0890789
0.0929534
0.101314
0.119537
0.151502
0.198718
0.28704
0.460913
0.602827
0.697837
0.77833
0.846356
0.899911
0.938617
0.965594
0.982359
0.995689
1.02311
1.08572
1.25643
1.7849
3.78519
8.97303
9.25037
0.0999541
0.0890783
0.0929526
0.101313
0.119535
0.151499
0.198714
0.287037
0.460913
0.602829
0.697842
0.778337
0.846363
0.899914
0.938628
0.965555
0.982392
0.995179
1.02107
1.07918
1.23379
1.69627
3.35731
8.14716
9.0008
0.099955
0.0890799
0.0929545
0.101315
0.119535
0.151503
0.19872
0.28704
0.460922
0.60283
0.697838
0.778333
0.846359
0.899909
0.93864
0.965482
0.982411
0.99446
1.01801
1.07011
1.20476
1.59156
2.9024
7.01692
8.78539
0.0999537
0.0890789
0.0929533
0.101314
0.119537
0.151503
0.198719
0.287045
0.460917
0.602831
0.697837
0.778331
0.846354
0.8999
0.938656
0.965358
0.982367
0.993617
1.01386
1.05823
1.16976
1.47992
2.47173
5.79122
8.26265
0.0999536
0.0890792
0.0929538
0.101315
0.119538
0.151506
0.198723
0.287053
0.460921
0.602832
0.697832
0.778327
0.846346
0.899887
0.938678
0.965185
0.982269
0.992722
1.00901
1.04432
1.13034
1.36457
2.07799
4.35811
7.35193
0.0999545
0.0890809
0.0929557
0.101317
0.119537
0.151508
0.198724
0.287038
0.460916
0.602833
0.697838
0.778331
0.846359
0.899917
0.938616
0.965631
0.982323
0.996209
1.02519
1.0933
1.28539
1.91542
4.5718
10.4442
10.2128
0.0999545
0.0890811
0.0929559
0.101317
0.119538
0.151508
0.198725
0.287039
0.460917
0.602833
0.697838
0.778331
0.846359
0.899917
0.938616
0.965631
0.982323
0.996203
1.02517
1.09319
1.28489
1.91267
4.55262
10.3889
10.1636
0.0999545
0.089081
0.0929558
0.101317
0.119538
0.151508
0.198725
0.287038
0.460916
0.602833
0.697838
0.778331
0.846359
0.899917
0.938617
0.96563
0.982325
0.996184
1.02508
1.09283
1.28333
1.90466
4.49905
10.2495
10.0455
0.0999547
0.0890812
0.0929561
0.101317
0.119538
0.151509
0.198725
0.287038
0.460916
0.602831
0.697838
0.778331
0.84636
0.899918
0.938618
0.965628
0.98233
0.996128
1.02484
1.0919
1.27948
1.88564
4.37666
9.98427
9.83636
0.0999545
0.089081
0.0929558
0.101317
0.119537
0.151508
0.198725
0.287038
0.460916
0.602833
0.697838
0.778331
0.84636
0.899917
0.938619
0.96562
0.982342
0.99599
1.02427
1.08979
1.27125
1.84769
4.14053
9.56199
9.5493
0.0999547
0.0890812
0.0929561
0.101317
0.119538
0.151509
0.198725
0.287038
0.460916
0.602831
0.697837
0.778331
0.84636
0.899916
0.938623
0.965601
0.982365
0.995694
1.02311
1.08573
1.25644
1.78491
3.78525
8.97309
9.2503
0.0999545
0.089081
0.0929558
0.101317
0.119538
0.151508
0.198725
0.287038
0.460917
0.602833
0.697838
0.778331
0.846359
0.899914
0.938631
0.96556
0.982396
0.995182
1.02107
1.07918
1.23379
1.69628
3.35735
8.1472
9.00082
0.0999545
0.0890811
0.0929559
0.101317
0.119538
0.151509
0.198725
0.287039
0.460917
0.602833
0.697838
0.778331
0.846359
0.89991
0.938644
0.965487
0.982416
0.994464
1.01801
1.07011
1.20477
1.59156
2.90243
7.01698
8.7854
0.0999545
0.0890809
0.0929557
0.101317
0.119538
0.151509
0.198726
0.28704
0.460919
0.602835
0.697838
0.778332
0.846357
0.899906
0.938662
0.965365
0.982372
0.993621
1.01387
1.05823
1.16976
1.47992
2.47175
5.79128
8.26266
0.0999545
0.089081
0.0929558
0.101317
0.119538
0.151509
0.198728
0.287045
0.460923
0.602838
0.697839
0.778335
0.846356
0.899898
0.938688
0.965194
0.982276
0.992727
1.00901
1.04432
1.13034
1.36457
2.078
4.35815
7.35197
0.0999545
0.0890809
0.0929557
0.101316
0.119537
0.151507
0.198724
0.287037
0.460916
0.602832
0.697838
0.778331
0.84636
0.899918
0.938617
0.965632
0.982323
0.996209
1.02519
1.0933
1.28539
1.91542
4.57183
10.4443
10.2128
0.0999545
0.0890809
0.0929557
0.101316
0.119537
0.151508
0.198724
0.287037
0.460916
0.602833
0.697839
0.778331
0.84636
0.899918
0.938617
0.965631
0.982323
0.996204
1.02517
1.09319
1.28489
1.91268
4.55265
10.389
10.1636
0.0999545
0.0890809
0.0929557
0.101317
0.119537
0.151508
0.198724
0.287037
0.460916
0.602833
0.697839
0.778331
0.84636
0.899918
0.938617
0.965631
0.982325
0.996184
1.02508
1.09283
1.28333
1.90467
4.49909
10.2495
10.0455
0.0999545
0.0890809
0.0929557
0.101317
0.119537
0.151508
0.198724
0.287037
0.460916
0.602833
0.697839
0.778331
0.84636
0.899918
0.938618
0.965628
0.98233
0.996129
1.02485
1.0919
1.27948
1.88564
4.3767
9.98428
9.8363
0.0999545
0.0890809
0.0929557
0.101317
0.119537
0.151508
0.198724
0.287037
0.460916
0.602833
0.697839
0.778331
0.84636
0.899917
0.938619
0.96562
0.982342
0.99599
1.02428
1.08979
1.27125
1.8477
4.14055
9.56199
9.54924
0.0999544
0.0890809
0.0929557
0.101316
0.119537
0.151508
0.198724
0.287037
0.460916
0.602833
0.697839
0.778331
0.84636
0.899916
0.938623
0.965601
0.982365
0.995694
1.02311
1.08573
1.25644
1.78491
3.78526
8.9731
9.25023
0.0999545
0.0890809
0.0929557
0.101317
0.119537
0.151508
0.198724
0.287037
0.460916
0.602833
0.697838
0.778332
0.84636
0.899914
0.938632
0.96556
0.982396
0.995183
1.02107
1.07918
1.23379
1.69629
3.35738
8.14725
9.00069
0.0999545
0.0890809
0.0929557
0.101317
0.119537
0.151508
0.198724
0.287037
0.460916
0.602833
0.697838
0.778332
0.846359
0.899911
0.938645
0.965487
0.982416
0.994464
1.01801
1.07011
1.20477
1.59157
2.90245
7.01704
8.78533
0.0999545
0.0890809
0.0929557
0.101317
0.119537
0.151508
0.198724
0.287037
0.460916
0.602833
0.697838
0.778333
0.846358
0.899907
0.938664
0.965366
0.982373
0.993621
1.01387
1.05823
1.16976
1.47993
2.47176
5.79132
8.26268
0.0999545
0.0890809
0.0929557
0.101317
0.119537
0.151508
0.198724
0.287037
0.460916
0.602834
0.697837
0.778335
0.846357
0.899899
0.938689
0.965195
0.982277
0.992728
1.00901
1.04433
1.13034
1.36458
2.07801
4.35817
7.35196
0.0999545
0.089081
0.0929558
0.101317
0.119538
0.15151
0.198728
0.287047
0.460926
0.602838
0.697841
0.778332
0.846358
0.899916
0.938615
0.96563
0.982322
0.996208
1.02519
1.0933
1.28539
1.91542
4.57183
10.4443
10.2128
0.0999548
0.0890808
0.0929559
0.101317
0.11954
0.151516
0.198737
0.287064
0.460941
0.602847
0.697847
0.778335
0.846361
0.899917
0.938616
0.96563
0.982322
0.996203
1.02517
1.09319
1.28489
1.91268
4.55265
10.389
10.1636
0.0999553
0.0890808
0.0929556
0.101317
0.119539
0.151516
0.198738
0.287072
0.460944
0.602847
0.697848
0.778338
0.846364
0.89992
0.938617
0.96563
0.982325
0.996184
1.02508
1.09283
1.28333
1.90467
4.49909
10.2495
10.0455
0.0999496
0.0891048
0.0929841
0.101352
0.119589
0.151579
0.198794
0.287119
0.460954
0.602842
0.69785
0.778344
0.84637
0.899925
0.938621
0.965629
0.982331
0.996129
1.02485
1.0919
1.27948
1.88564
4.3767
9.98428
9.8363
0.0999475
0.0890834
0.0929573
0.101316
0.119535
0.151504
0.19873
0.287072
0.460944
0.602847
0.697851
0.778342
0.846366
0.899921
0.93862
0.96562
0.982342
0.995989
1.02427
1.08979
1.27125
1.8477
4.14055
9.56199
9.54924
0.0999842
0.0890888
0.0929566
0.101294
0.11945
0.15135
0.198547
0.286969
0.460732
0.60282
0.697849
0.77834
0.846364
0.899918
0.938623
0.965599
0.982363
0.995693
1.02311
1.08573
1.25644
1.78491
3.78526
8.9731
9.25023
0.0999475
0.0890834
0.0929574
0.101316
0.119535
0.151506
0.198732
0.287076
0.460949
0.60285
0.697853
0.778343
0.846367
0.899918
0.938632
0.965559
0.982395
0.995182
1.02107
1.07918
1.23379
1.69629
3.35738
8.14725
9.00069
0.0999502
0.0891051
0.0929847
0.101354
0.119592
0.15159
0.198811
0.287152
0.460982
0.602858
0.697859
0.77835
0.846373
0.89992
0.938649
0.965489
0.982416
0.994464
1.01801
1.07011
1.20477
1.59157
2.90245
7.01704
8.78533
0.0999562
0.0890801
0.0929548
0.101316
0.119538
0.151517
0.198745
0.287093
0.460966
0.60286
0.697857
0.778347
0.846367
0.899911
0.938665
0.965367
0.982373
0.993621
1.01387
1.05823
1.16976
1.47993
2.47176
5.79132
8.26268
0.0999502
0.0891051
0.0929847
0.101354
0.119592
0.15159
0.198811
0.287152
0.460982
0.602858
0.697858
0.778353
0.84637
0.899907
0.938693
0.965197
0.982277
0.992727
1.00901
1.04433
1.13034
1.36458
2.07801
4.35817
7.35197
0.0999514
0.0891051
0.0929848
0.101355
0.119594
0.151599
0.198827
0.287192
0.461017
0.602877
0.697872
0.778358
0.846378
0.899928
0.938621
0.965632
0.982322
0.996208
1.02519
1.0933
1.28539
1.91542
4.57183
10.4443
10.2129
0.0999485
0.0890858
0.0929605
0.101321
0.119544
0.151524
0.198756
0.287124
0.460988
0.60287
0.697866
0.778351
0.846371
0.899923
0.938617
0.96563
0.982321
0.996202
1.02517
1.09319
1.28489
1.91268
4.55265
10.389
10.1636
0.0999777
0.0891199
0.0929923
0.101335
0.119506
0.15143
0.198629
0.287068
0.460779
0.602834
0.697865
0.778356
0.846377
0.899928
0.938621
0.965631
0.982324
0.996183
1.02508
1.09283
1.28333
1.90467
4.49909
10.2495
10.0455
0.0999516
0.0890784
0.0929516
0.101309
0.119527
0.151496
0.198724
0.287082
0.460958
0.602859
0.69786
0.778347
0.846369
0.899922
0.938618
0.965627
0.982329
0.996127
1.02484
1.0919
1.27948
1.88564
4.37669
9.98428
9.83631
0.0999777
0.0891198
0.0929922
0.101335
0.119506
0.151428
0.198626
0.287061
0.460771
0.602829
0.697863
0.778356
0.846377
0.899928
0.938625
0.965621
0.982341
0.995989
1.02427
1.08979
1.27125
1.8477
4.14055
9.56198
9.54924
0.0999482
0.0890858
0.0929602
0.10132
0.119541
0.151515
0.198742
0.287094
0.460961
0.602854
0.697857
0.778346
0.846369
0.899921
0.938625
0.9656
0.982364
0.995693
1.02311
1.08573
1.25644
1.78491
3.78526
8.97309
9.25023
0.0999501
0.0891049
0.0929845
0.101354
0.119592
0.15159
0.198811
0.287153
0.460984
0.602859
0.69786
0.77835
0.846373
0.899922
0.938635
0.965561
0.982396
0.995182
1.02107
1.07918
1.23379
1.69629
3.35738
8.14725
9.0007
0.0999554
0.0890809
0.0929558
0.101317
0.119539
0.151518
0.198742
0.28708
0.460952
0.602851
0.69785
0.778339
0.846363
0.899912
0.938644
0.965486
0.982415
0.994463
1.01801
1.07011
1.20477
1.59157
2.90245
7.01703
8.78533
0.0999548
0.0890809
0.092956
0.101318
0.11954
0.151517
0.19874
0.28707
0.460947
0.602851
0.697847
0.778337
0.846358
0.899905
0.938661
0.965364
0.982371
0.99362
1.01386
1.05823
1.16976
1.47993
2.47176
5.79131
8.26268
0.0999545
0.089081
0.0929559
0.101317
0.119538
0.151511
0.198731
0.287052
0.460931
0.602842
0.69784
0.778335
0.846355
0.899896
0.938686
0.965193
0.982275
0.992726
1.00901
1.04432
1.13034
1.36458
2.07801
4.35817
7.35197
0.0999559
0.0890804
0.0929554
0.101317
0.11954
0.151523
0.198753
0.287115
0.46098
0.602854
0.697846
0.778329
0.846349
0.899902
0.938598
0.965612
0.982305
0.996191
1.02518
1.09329
1.28537
1.91534
4.57151
10.443
10.2134
0.0999485
0.0891027
0.0929816
0.10135
0.119589
0.151577
0.198795
0.287144
0.460971
0.602847
0.697851
0.778341
0.846361
0.899911
0.938603
0.965615
0.982306
0.996186
1.02515
1.09317
1.28484
1.91253
4.55192
10.3881
10.1642
0.099948
0.0890825
0.0929566
0.101316
0.119537
0.151511
0.198745
0.287117
0.460989
0.602863
0.697857
0.778339
0.846356
0.899906
0.9386
0.965612
0.982307
0.996167
1.02507
1.09282
1.28332
1.9046
4.49884
10.2483
10.0461
0.099984
0.0890847
0.0929524
0.101291
0.119456
0.151351
0.198556
0.287033
0.46077
0.602844
0.697872
0.778355
0.846369
0.899914
0.938605
0.96561
0.982312
0.996111
1.02483
1.09189
1.27947
1.88559
4.3765
9.98307
9.83692
0.0999444
0.0891081
0.0929866
0.101353
0.119587
0.151587
0.198815
0.287189
0.461011
0.602868
0.697867
0.778351
0.846368
0.899914
0.938607
0.965604
0.982326
0.995974
1.02426
1.08978
1.27125
1.84766
4.14037
9.56078
9.54991
0.0999435
0.0891371
0.0930194
0.101391
0.119647
0.151652
0.198882
0.287285
0.461055
0.602873
0.697877
0.778365
0.846378
0.899919
0.938614
0.965584
0.982347
0.995676
1.02309
1.08571
1.25643
1.78488
3.78511
8.97209
9.25079
0.0999826
0.0890937
0.0929618
0.101299
0.119457
0.151368
0.198581
0.287069
0.460806
0.602844
0.697861
0.778342
0.846357
0.899902
0.938612
0.965538
0.982376
0.995163
1.02105
1.07916
1.23377
1.69622
3.3571
8.14631
9.0013
0.0999774
0.0891194
0.0929915
0.101335
0.119508
0.151445
0.198664
0.287183
0.460871
0.602864
0.697877
0.778358
0.846368
0.899905
0.938629
0.965466
0.982395
0.994443
1.01799
1.0701
1.20474
1.59152
2.90233
7.01648
8.78569
0.0999425
0.08911
0.0929882
0.101353
0.119587
0.15158
0.198813
0.287209
0.461025
0.602869
0.697868
0.778357
0.846369
0.899905
0.938651
0.965348
0.982355
0.993604
1.01385
1.05822
1.16974
1.47991
2.47176
5.79087
8.26254
0.0999713
0.0891474
0.0930241
0.101375
0.119569
0.151514
0.19872
0.287238
0.460872
0.602864
0.697897
0.778389
0.846391
0.899911
0.938685
0.965179
0.982257
0.992709
1.00899
1.04431
1.13033
1.36456
2.078
4.35802
7.3517
0.0999428
0.0891104
0.0929892
0.101356
0.119594
0.151601
0.198844
0.287266
0.461076
0.602904
0.697887
0.77837
0.846376
0.899883
0.938719
0.964943
0.982023
0.991686
1.00318
1.02757
1.08454
1.23427
1.66317
2.85767
5.00381
0.0999798
0.0891206
0.0929937
0.101339
0.119515
0.151458
0.198673
0.287171
0.460868
0.602875
0.697884
0.778368
0.84638
0.899869
0.938736
0.964857
0.981674
0.99113
0.998341
1.01273
1.04446
1.12516
1.33835
1.92796
3.27365
0.0999459
0.0891116
0.0929913
0.10136
0.119602
0.151619
0.198866
0.287294
0.461096
0.602914
0.697892
0.778371
0.846381
0.899872
0.938717
0.964879
0.981418
0.99089
0.99605
1.00279
1.01738
1.05236
1.14424
1.39658
2.07393
0.0999379
0.0891371
0.0930211
0.101397
0.119652
0.151687
0.19893
0.28736
0.461124
0.602919
0.6979
0.778382
0.846391
0.89988
0.938721
0.964865
0.981415
0.990672
0.995583
0.998736
1.00423
1.01658
1.04782
1.13035
1.34787
0.0999791
0.08912
0.0929934
0.10134
0.119517
0.151463
0.198681
0.287195
0.460882
0.602884
0.697895
0.778378
0.846387
0.899877
0.93872
0.96486
0.981404
0.990632
0.995393
0.99801
0.999884
1.00343
1.01141
1.03153
1.08153
0.0999727
0.089126
0.0929981
0.10134
0.119514
0.151452
0.198678
0.287214
0.460897
0.602892
0.697904
0.778385
0.846392
0.899879
0.938721
0.96486
0.9814
0.990627
0.995349
0.997838
0.99917
1.00019
1.00209
1.00628
1.01628
0.0999681
0.0891527
0.0930291
0.101378
0.119564
0.151511
0.198726
0.287248
0.460891
0.602877
0.6979
0.778389
0.846399
0.899886
0.938726
0.964863
0.981402
0.990625
0.995344
0.997803
0.999028
0.999668
1.00017
1.00102
1.00284
0.099968
0.0891525
0.0930291
0.101378
0.119566
0.151518
0.198738
0.287271
0.46091
0.602891
0.697909
0.778394
0.846401
0.899886
0.938726
0.964863
0.981402
0.990625
0.995342
0.997798
0.999003
0.999577
0.999867
1.0001
1.00043
0.0999734
0.0891272
0.0929998
0.101343
0.119519
0.151464
0.198693
0.287245
0.460921
0.602903
0.697911
0.778391
0.846396
0.899882
0.938723
0.964861
0.981401
0.990624
0.995342
0.997796
0.998999
0.999561
0.999818
0.999943
1.00004
0.0999732
0.0891473
0.0930248
0.101377
0.119569
0.151533
0.198751
0.287276
0.460918
0.602896
0.697908
0.778391
0.846397
0.899883
0.938724
0.964862
0.981401
0.990625
0.995342
0.997796
0.998999
0.999559
0.99981
0.99992
0.999972
0.0999411
0.0891441
0.0930271
0.101401
0.119656
0.151688
0.198935
0.287387
0.461145
0.602929
0.697911
0.778391
0.846397
0.899882
0.938722
0.964861
0.981402
0.990624
0.995342
0.997796
0.998999
0.999559
0.999809
0.999917
0.999962
0.0999789
0.0891216
0.0929948
0.10134
0.119517
0.151464
0.198691
0.287227
0.460915
0.602901
0.697904
0.778382
0.846388
0.899876
0.938719
0.964859
0.981399
0.990624
0.995341
0.997796
0.998999
0.999559
0.999809
0.999916
0.999961
0.0999783
0.0891218
0.092995
0.101341
0.119518
0.151464
0.19869
0.287226
0.460912
0.602903
0.697905
0.778382
0.846388
0.899876
0.938719
0.964859
0.9814
0.990624
0.995342
0.997796
0.998999
0.999559
0.999809
0.999916
0.999961
0.0999411
0.089144
0.093027
0.1014
0.119655
0.151686
0.198932
0.287379
0.461137
0.602925
0.697908
0.77839
0.846397
0.899883
0.938723
0.964862
0.981402
0.990624
0.995342
0.997796
0.998999
0.999559
0.999809
0.999916
0.999961
0.0999734
0.0891467
0.0930239
0.101375
0.119565
0.151523
0.198736
0.287248
0.460896
0.602881
0.697899
0.778386
0.846395
0.899882
0.938723
0.964862
0.981401
0.990625
0.995342
0.997796
0.998999
0.999559
0.999809
0.999916
0.999961
0.0999722
0.0891256
0.0929977
0.10134
0.119514
0.151452
0.198679
0.287217
0.460902
0.602899
0.697906
0.778384
0.846389
0.899877
0.938719
0.964859
0.9814
0.990624
0.995342
0.997796
0.998999
0.999559
0.999809
0.999916
0.999961
0.0999722
0.0891258
0.092998
0.10134
0.119514
0.151454
0.198681
0.287221
0.460906
0.602901
0.697908
0.778385
0.84639
0.899877
0.938719
0.964859
0.9814
0.990624
0.995342
0.997796
0.998999
0.999559
0.999809
0.999916
0.999961
0.0999733
0.0891463
0.0930237
0.101376
0.119567
0.151531
0.19875
0.287282
0.460925
0.6029
0.69791
0.778391
0.846397
0.899883
0.938723
0.964861
0.981401
0.990624
0.995342
0.997796
0.998999
0.999559
0.999809
0.999916
0.999961
0.0999421
0.0891448
0.0930282
0.101403
0.11966
0.151694
0.198945
0.287407
0.461157
0.602936
0.697918
0.778397
0.846402
0.899886
0.938725
0.964863
0.981403
0.990625
0.995342
0.997796
0.998999
0.999559
0.999809
0.999916
0.999961
0.0999735
0.0891467
0.0930243
0.101377
0.119569
0.151538
0.19876
0.2873
0.46094
0.602908
0.697915
0.778395
0.8464
0.899885
0.938724
0.964862
0.981401
0.990624
0.995342
0.997796
0.998999
0.999559
0.999809
0.999916
0.999961
0.0999731
0.0891267
0.0929989
0.101341
0.119515
0.151455
0.198682
0.287224
0.460907
0.602897
0.697907
0.778387
0.846393
0.89988
0.938721
0.96486
0.9814
0.990624
0.995342
0.997796
0.998999
0.999559
0.999809
0.999916
0.999961
0.0999678
0.0891519
0.0930286
0.101378
0.119567
0.151522
0.198744
0.287281
0.460922
0.602899
0.697911
0.778392
0.846397
0.899882
0.938722
0.96486
0.9814
0.990624
0.995342
0.997796
0.998999
0.999559
0.999809
0.999916
0.999961
0.0999731
0.0891266
0.0929988
0.101341
0.119515
0.151455
0.198682
0.287225
0.460908
0.602898
0.697907
0.778387
0.846393
0.899879
0.93872
0.964859
0.9814
0.990624
0.995342
0.997796
0.998999
0.999559
0.999809
0.999916
0.999961
0.0999736
0.089147
0.0930247
0.101378
0.11957
0.15154
0.198763
0.287306
0.460945
0.60291
0.697915
0.778394
0.846399
0.899883
0.938723
0.964861
0.981401
0.990624
0.995342
0.997796
0.998999
0.999559
0.999809
0.999916
0.999961
0.0999418
0.0891449
0.0930283
0.101403
0.119661
0.151695
0.198948
0.287412
0.461162
0.60294
0.697919
0.778398
0.846402
0.899886
0.938725
0.964862
0.981403
0.990624
0.995342
0.997796
0.998999
0.999559
0.999809
0.999916
0.999961
0.0999741
0.0891472
0.0930249
0.101378
0.119571
0.15154
0.198762
0.287304
0.460944
0.602906
0.697914
0.778395
0.8464
0.899885
0.938724
0.964862
0.981401
0.990624
0.995342
0.997796
0.998999
0.999559
0.999809
0.999916
0.999961
0.0999725
0.0891266
0.0929987
0.101341
0.119515
0.151455
0.198682
0.287226
0.460907
0.6029
0.697909
0.778388
0.846393
0.89988
0.938721
0.96486
0.9814
0.990624
0.995342
0.997796
0.998999
0.999559
0.999809
0.999916
0.999961
0.0999683
0.0891525
0.0930294
0.101379
0.119568
0.151523
0.198743
0.287277
0.460918
0.602894
0.697909
0.778393
0.846399
0.899885
0.938724
0.964862
0.981401
0.990625
0.995342
0.997796
0.998999
0.999559
0.999809
0.999916
0.999961
0.0999731
0.0891262
0.0929983
0.101341
0.119514
0.151452
0.198678
0.287218
0.460901
0.602894
0.697906
0.778387
0.846393
0.89988
0.938722
0.964861
0.981401
0.990624
0.995342
0.997796
0.998999
0.999559
0.999809
0.999916
0.999961
0.0999732
0.089147
0.0930244
0.101377
0.119568
0.151531
0.198748
0.28727
0.460914
0.602894
0.697907
0.77839
0.846397
0.899884
0.938724
0.964862
0.981402
0.990625
0.995342
0.997796
0.998999
0.999559
0.999809
0.999916
0.999961
0.0999408
0.0891437
0.0930265
0.1014
0.119655
0.151685
0.198931
0.287378
0.461136
0.602927
0.69791
0.778391
0.846398
0.899884
0.938724
0.964862
0.981403
0.990625
0.995342
0.997797
0.998999
0.999559
0.999809
0.999916
0.999961
0.0999784
0.089121
0.092994
0.101339
0.119516
0.151461
0.198687
0.28722
0.460907
0.602902
0.697904
0.778381
0.846387
0.899875
0.938719
0.964859
0.9814
0.990624
0.995342
0.997796
0.998999
0.999559
0.999809
0.999916
0.999961
0.099978
0.089121
0.0929938
0.101339
0.119514
0.151454
0.198673
0.287189
0.460881
0.602888
0.697896
0.778376
0.846384