/*--------------------------------*- C++ -*----------------------------------*\
| =========                 |                                                 |
| \\      /  F ield         | OpenFOAM: The Open Source CFD Toolbox           |
|  \\    /   O peration     | Version:  4.1                                   |
|   \\  /    A nd           | Web:      www.OpenFOAM.org                      |
|    \\/     M anipulation  |                                                 |
\*---------------------------------------------------------------------------*/
FoamFile
{
    version     2.0;
    format      ascii;
    class       surfaceScalarField;
    location    "0.1";
    object      phi;
}
// * * * * * * * * * * * * * * * * * * * * * * * * * * * * * * * * * * * * * //

dimensions      [1 0 -1 0 0 0 0];

internalField   nonuniform List<scalar> 
150500
(
0.00201158
4.35708e-09
1.30195e-11
0.00212324
1.01255e-08
-1.03678e-10
0.00222201
1.38955e-08
-1.24356e-10
0.0021494
1.02905e-08
-1.60272e-10
0.00240793
1.85769e-09
-2.38092e-10
0.00290835
-1.88673e-08
-3.75364e-10
0.0037169
-4.68359e-08
-4.09459e-10
0.0052448
-8.21154e-08
-5.62342e-10
0.00607453
-9.21563e-08
-3.53543e-10
0.00672061
-7.22552e-08
-1.85615e-10
0.00752366
-5.03265e-08
-1.64513e-10
0.00837006
-3.26839e-08
-1.51941e-10
0.00914913
-1.86568e-08
-1.31918e-10
0.00979721
-8.45113e-09
-1.08502e-10
0.0102954
-2.17954e-09
-8.74069e-11
0.0106474
1.75742e-09
-7.21373e-11
0.0108768
2.1369e-09
-6.0197e-11
0.0110479
8.15189e-09
-6.18889e-11
0.0110818
3.53948e-08
-6.88941e-11
0.0109176
1.53151e-07
-1.01286e-10
0.0103081
7.29719e-07
-2.22219e-10
0.00872863
4.2463e-06
-7.45997e-10
0.00119814
3.81489e-05
-3.68185e-09
-0.00722306
0.000175969
-3.53774e-09
0.000200079
2.08975e-09
0.00201157
1.45339e-08
2.57113e-11
0.00212323
1.70992e-08
-2.18825e-11
0.00222201
4.66827e-09
-1.99207e-11
0.0021494
-1.59654e-08
-1.25983e-11
0.00240798
-5.35005e-08
-1.26829e-11
0.00290846
-1.20695e-07
-2.63279e-11
0.00371712
-1.96029e-07
-6.14289e-11
0.00524505
-2.64859e-07
-1.88494e-10
0.00607472
-2.38861e-07
-1.48928e-10
0.00672073
-1.61719e-07
-9.50898e-11
0.00752372
-1.09397e-07
-1.00188e-10
0.00837009
-7.29171e-08
-9.88169e-11
0.00914915
-4.40759e-08
-9.08087e-11
0.00979722
-2.19663e-08
-8.0014e-11
0.0102954
-7.04042e-09
-6.93975e-11
0.0106474
1.49251e-09
-6.1568e-11
0.0108768
2.26742e-09
-5.50731e-11
0.011048
2.66085e-08
-5.74446e-11
0.011082
1.21911e-07
-6.4855e-11
0.0109186
5.14517e-07
-9.39919e-11
0.0103117
2.34267e-06
-2.01687e-10
0.00874136
1.29689e-05
-6.77566e-10
0.00124856
0.000111794
-3.37021e-09
-0.00715667
0.000492505
-3.95314e-09
0.000552864
2.31426e-09
0.00201156
4.34296e-08
-1.01503e-10
0.00212328
1.7383e-08
-1.75773e-10
0.00222211
-8.85882e-10
-1.65943e-10
0.00214935
-6.18271e-08
-8.69337e-11
0.00240784
-1.60014e-07
1.42435e-10
0.00290822
-3.23389e-07
3.81774e-10
0.00371701
-4.63755e-07
5.00705e-10
0.00524512
-5.20438e-07
1.72763e-10
0.00607497
-4.02174e-07
8.09263e-10
0.00672108
-2.3638e-07
1.13895e-10
0.00752408
-1.46029e-07
-3.27209e-11
0.00837038
-9.31738e-08
-6.08446e-11
0.00914934
-5.60526e-08
-6.79574e-11
0.00979734
-2.87108e-08
-6.86384e-11
0.0102954
-1.12671e-08
-6.48367e-11
0.0106475
1.90489e-09
-5.89759e-11
0.0108768
-2.17661e-10
-5.3636e-11
0.0110481
7.89202e-08
-5.17681e-11
0.0110827
3.67142e-07
-5.1309e-11
0.0109216
1.4703e-06
-4.93379e-11
0.010322
6.31069e-06
-5.86786e-11
0.00877656
3.28131e-05
-2.57749e-10
0.00138378
0.000270616
-1.02869e-09
-0.00698718
0.00109576
-5.65524e-09
0.00122736
2.35685e-09
0.00201182
-7.21676e-08
-3.67115e-12
0.00212392
-2.24785e-07
1.14975e-10
0.00222312
-4.25132e-07
1.42772e-10
0.00215071
-5.2075e-07
1.91211e-10
0.00240947
-5.91289e-07
2.76747e-10
0.00291008
-6.0773e-07
3.99681e-10
0.00371865
-4.67374e-07
3.75002e-10
0.00524583
-2.99166e-07
3.44139e-10
0.00607503
-1.84091e-07
1.54542e-10
0.00672106
-1.37185e-07
5.90783e-12
0.00752406
-1.22115e-07
3.64579e-12
0.00837038
-9.74741e-08
8.1318e-12
0.00914936
-6.65716e-08
-1.90193e-12
0.00979737
-3.76851e-08
-1.87609e-11
0.0102954
-1.72406e-08
-3.43719e-11
0.0106475
5.5343e-09
-4.32575e-11
0.0108767
-2.77123e-09
-4.78953e-11
0.0110484
2.08252e-07
-4.71972e-11
0.0110845
9.46666e-07
-4.45095e-11
0.0109289
3.58588e-06
-3.97117e-11
0.0103467
1.45745e-05
-3.09459e-11
0.00886115
7.04913e-05
-1.72009e-10
0.00167632
0.000544545
-6.12137e-10
-0.00662278
0.00211482
-5.54681e-09
0.00238915
2.6221e-09
0.00201209
-3.32806e-07
-1.63758e-10
0.00212476
-6.06411e-07
-4.84236e-11
0.00222426
-1.00372e-06
-2.37919e-11
0.00215145
-1.09462e-06
7.09516e-11
0.00241002
-1.02935e-06
3.54758e-10
0.0029106
-7.92567e-07
6.43909e-10
0.00371937
-3.68371e-07
7.75612e-10
0.00524649
-5.01252e-09
5.62414e-10
0.00607559
2.16349e-07
1.02774e-09
0.00672162
1.78115e-08
1.7928e-10
0.00752451
-5.03668e-08
4.40484e-11
0.00837069
-6.60624e-08
1.77337e-11
0.00914957
-5.59192e-08
-4.54303e-12
0.00979749
-3.73599e-08
-2.62216e-11
0.0102955
-2.26637e-08
-4.19888e-11
0.0106476
1.45433e-08
-4.90915e-11
0.0108764
-4.03704e-09
-5.09869e-11
0.0110491
4.82568e-07
-4.95871e-11
0.0110884
2.11547e-06
-4.76724e-11
0.0109439
7.5792e-06
-3.82664e-11
0.0103947
2.88962e-05
-1.70645e-11
0.00902567
0.000129307
-9.34841e-11
0.00245648
0.000901309
-5.64579e-10
-0.00596877
0.0035466
-5.42411e-09
0.00408441
3.07759e-09
0.00201113
3.60494e-08
1.49331e-10
0.00212188
-9.55742e-09
2.83133e-11
0.00221761
-5.23729e-08
1.34781e-12
0.00214381
-1.04656e-07
-9.20116e-11
0.00240052
-1.92681e-07
-3.55836e-10
0.00289959
-3.39676e-07
-6.11583e-10
0.00371063
-4.69493e-07
-6.68183e-10
0.00524257
-5.35544e-07
-1.31436e-10
0.00607563
-4.01796e-07
-6.60199e-10
0.00672188
-2.32354e-07
-1.13528e-11
0.00752472
-1.41666e-07
6.87144e-11
0.00837085
-8.89716e-08
4.4206e-11
0.00914968
-5.25994e-08
9.48127e-12
0.00979758
-2.71145e-08
-1.7703e-11
0.0102955
-1.61482e-08
-3.97445e-11
0.0106478
4.73374e-08
-5.25944e-11
0.010876
2.15221e-08
-5.729e-11
0.0110503
9.80129e-07
-5.65252e-11
0.0110952
4.12342e-06
-4.98288e-11
0.0109696
1.3825e-05
-4.2531e-11
0.0104729
4.92359e-05
-3.51418e-11
0.0092705
0.00020187
-7.66469e-11
0.00387224
0.00123195
-5.0058e-10
-0.00498831
0.00512872
-4.42503e-09
0.00635327
2.71259e-09
0.00201147
2.20243e-07
1.16235e-10
0.00212278
3.28312e-07
6.36499e-11
0.00221898
4.98772e-07
3.18807e-11
0.00214528
4.81807e-07
-7.88238e-11
0.00240209
3.53025e-07
-3.59422e-10
0.00290121
1.33967e-07
-6.64735e-10
0.00371209
-2.69205e-07
-7.14645e-10
0.0052433
-6.03293e-07
-1.11485e-10
0.0060759
-6.1842e-07
-6.67069e-10
0.00672213
-2.77382e-07
-4.3592e-11
0.00752493
-1.27808e-07
6.96947e-11
0.00837102
-6.05384e-08
6.18541e-11
0.0091498
-2.39248e-08
2.96619e-11
0.00979769
-6.49695e-09
-1.35703e-12
0.0102955
-4.27747e-09
-2.88634e-11
0.0106481
1.00652e-07
-4.69615e-11
0.0108754
1.05065e-07
-5.3895e-11
0.0110506
1.71863e-06
-5.49387e-11
0.0111043
6.99279e-06
-5.61184e-11
0.0110042
2.20335e-05
-6.71546e-11
0.0105867
7.26242e-05
-1.06719e-10
0.00955355
0.000270022
-2.7696e-10
0.00543816
0.00144162
-1.17076e-09
-0.00352519
0.00644994
-4.14827e-09
0.0095451
2.92306e-09
0.00201239
-2.05045e-07
-6.83663e-11
0.00212571
-3.21288e-07
2.61657e-10
0.0022257
-5.04045e-07
2.92451e-10
0.00215316
-5.06851e-07
3.30674e-10
0.0024121
-4.15528e-07
4.46529e-10
0.00291312
-2.49687e-07
6.13197e-10
0.00372199
-3.6775e-09
6.54274e-10
0.00524783
3.02824e-07
9.30132e-10
0.00607593
3.64453e-07
4.90844e-10
0.00672183
1.20359e-07
1.36555e-10
0.00752466
2.89447e-08
1.53446e-10
0.00837081
-3.88963e-09
1.47631e-10
0.00914963
-6.42815e-09
1.0381e-10
0.00979763
-7.6146e-09
4.9213e-11
0.0102952
-7.61836e-09
8.01463e-13
0.0106485
1.8193e-07
-3.101e-11
0.0108748
2.9513e-07
-4.48483e-11
0.0110485
2.66028e-06
-4.91976e-11
0.0111133
1.08139e-05
-5.27853e-11
0.0110402
3.26368e-05
-6.03328e-11
0.0107045
0.000100183
-8.87049e-11
0.00986241
0.000338284
-1.82584e-10
0.00694322
0.00154277
-5.09909e-10
-0.00104383
0.00727108
-2.46788e-09
0.0140198
1.75484e-09
0.00201147
-1.46049e-08
9.94796e-11
0.00212278
-8.83585e-09
1.75291e-10
0.00221901
7.73105e-09
1.65258e-10
0.00214534
2.78356e-08
9.02262e-11
0.0024022
6.27026e-08
-1.16812e-10
0.00290137
1.17446e-07
-3.01051e-10
0.00371228
1.66788e-07
-3.53348e-10
0.00524346
1.79346e-07
3.28609e-10
0.00607598
1.33699e-07
-4.51439e-10
0.00672217
6.84105e-08
2.19463e-11
0.00752494
4.17061e-08
1.32607e-10
0.00837103
2.62482e-08
1.24558e-10
0.00914976
2.64874e-08
8.0661e-11
0.00979781
2.00455e-08
3.32091e-11
0.010295
1.65495e-08
-7.98331e-12
0.010649
3.05257e-07
-3.96611e-11
0.0108749
5.2659e-07
-5.27103e-11
0.0110436
3.59436e-06
-5.11749e-11
0.0111169
1.47277e-05
-5.30971e-11
0.0110731
4.38366e-05
-5.26723e-11
0.0108127
0.00012727
-6.45856e-11
0.0101412
0.000399567
-8.84476e-11
0.00820315
0.00158568
-2.62281e-12
0.00150489
0.00782345
-2.03899e-09
0.0186121
-5.76459e-10
0.00201148
9.66178e-11
1.72531e-07
0.00212281
1.65933e-10
3.30882e-07
0.00221901
1.55425e-10
5.38129e-07
0.00214529
8.12069e-11
5.78982e-07
0.00240216
-1.19313e-10
5.24372e-07
0.00290141
-2.71337e-10
3.8078e-07
0.00371246
-2.96266e-10
1.66093e-07
0.00524372
4.26682e-10
-3.94797e-08
0.0060762
-3.41242e-10
-2.03606e-07
0.00672225
1.13172e-10
-4.16413e-08
0.00752494
1.81211e-10
2.51789e-08
0.008371
1.43906e-10
4.03559e-08
0.00914969
8.32073e-11
4.58324e-08
0.00979789
2.92653e-11
5.02428e-08
0.0102947
-1.31626e-11
2.17719e-08
0.0106493
-4.35855e-11
4.58915e-07
0.0108759
-5.49943e-11
8.15353e-07
0.011037
-5.49409e-11
4.45173e-06
0.0111198
-5.45382e-11
1.84639e-05
0.0110914
-5.578e-11
5.52129e-05
0.0109001
-6.74338e-11
0.000155145
0.0103753
-8.11868e-11
0.000465276
0.0091398
-1.31066e-11
0.00168374
0.00489401
-6.64735e-10
0.00741202
-1.15143e-09
0.0259606
0.00201181
-9.53636e-08
-1.6834e-11
0.00212392
-2.2226e-07
1.18703e-10
0.00222309
-4.06357e-07
1.42858e-10
0.00215068
-4.69685e-07
1.84609e-10
0.00240951
-4.69785e-07
2.72547e-10
0.00291021
-3.60681e-07
4.38329e-10
0.00371896
-1.28352e-07
4.91473e-10
0.00524615
1.10266e-07
7.22263e-10
0.00607521
1.38244e-07
4.57548e-10
0.00672113
5.81656e-08
1.89126e-10
0.00752406
-5.30546e-09
1.46704e-10
0.00837036
-2.94564e-08
1.194e-10
0.00914935
-3.28811e-08
8.19883e-11
0.00979736
-2.68599e-08
5.01537e-11
0.0102955
-1.84336e-08
2.54326e-11
0.0106475
-1.12076e-08
9.80721e-12
0.0108768
-7.20584e-09
1.53427e-12
0.0110479
3.02322e-09
-2.77702e-13
0.0110818
3.40076e-08
-1.92936e-12
0.0109175
1.58741e-07
-3.2456e-12
0.0103078
7.54453e-07
-4.20916e-12
0.00872805
4.34185e-06
-6.14707e-12
0.00119625
3.88695e-05
-2.386e-11
-0.0072232
0.000176348
-2.57723e-11
0.000199404
1.18667e-11
0.00201174
-1.63154e-07
-3.26979e-11
0.00212378
-3.50147e-07
2.29915e-11
0.00222272
-5.66744e-07
2.1773e-11
0.00215
-6.2032e-07
1.58491e-11
0.00240862
-5.93943e-07
1.85639e-11
0.00290928
-4.2007e-07
4.45145e-11
0.00371818
-1.60565e-07
1.03156e-10
0.00524583
6.90183e-08
3.13607e-10
0.00607512
2.34401e-07
2.47538e-10
0.00672106
5.63348e-08
1.18955e-10
0.00752398
-2.71411e-08
9.55916e-11
0.00837029
-5.4338e-08
6.99341e-11
0.00914929
-5.43897e-08
4.15473e-11
0.00979732
-4.30693e-08
2.15669e-11
0.0102954
-2.8824e-08
6.64244e-12
0.0106475
-1.57292e-08
-1.02842e-12
0.0108768
-1.05158e-08
-3.5703e-12
0.011048
2.03514e-08
-3.8992e-12
0.011082
1.22843e-07
-3.61954e-12
0.0109186
5.32507e-07
-3.4222e-12
0.0103115
2.41147e-06
-3.321e-12
0.00874073
1.32212e-05
-4.47441e-12
0.00124641
0.000113726
-1.95624e-11
-0.00715695
0.000492849
-2.35686e-11
0.000551291
1.06678e-11
0.00201146
4.58088e-09
1.14529e-10
0.00212269
1.07855e-08
1.95577e-10
0.00221888
9.91987e-09
1.80794e-10
0.00214515
7.37587e-09
8.91868e-11
0.00240185
-3.8035e-09
-1.49825e-10
0.00290085
-5.01794e-09
-4.09755e-10
0.00371146
4.09698e-09
-5.13667e-10
0.00524283
4.74403e-08
-1.69976e-11
0.00607573
-2.19121e-08
-7.69821e-10
0.00672188
1.56857e-08
-5.74382e-11
0.00752466
1.40109e-08
8.92651e-11
0.00837079
2.85227e-09
9.032e-11
0.00914965
-3.01481e-09
6.32277e-11
0.00979756
-4.84858e-09
3.45641e-11
0.0102956
-5.98224e-09
1.55593e-11
0.0106476
-2.25437e-09
2.48437e-12
0.0108768
-7.40665e-09
-4.08195e-12
0.0110481
7.33505e-08
-4.80153e-12
0.0110827
3.65074e-07
-1.45831e-12
0.0109216
1.47499e-06
-1.70359e-12
0.010322
6.33558e-06
-3.06252e-12
0.00877608
3.29079e-05
-4.23425e-12
0.00138393
0.000271272
-1.68071e-11
-0.00698464
0.00109648
-2.35137e-11
0.0012267
1.02552e-11
0.00201164
-4.36893e-09
8.37424e-12
0.00212352
-1.0548e-08
-1.14068e-10
0.00222232
-9.38977e-09
-1.40479e-10
0.00214955
-5.713e-09
-1.84888e-10
0.00240808
8.54931e-09
-2.63689e-10
0.00290866
1.82093e-08
-3.46855e-10
0.00371756
2.21084e-08
-2.92847e-10
0.00524544
-1.22983e-08
-1.50299e-10
0.00607498
6.52887e-08
1.68174e-11
0.00672096
7.15718e-09
8.45453e-11
0.00752392
-5.0932e-09
3.98666e-11
0.00837025
-7.76864e-09
1.12626e-11
0.00914927
-8.34915e-09
-6.15316e-12
0.00979731
-7.56677e-09
-1.57899e-11
0.0102954
-7.67398e-09
-1.2612e-11
0.0106475
5.17711e-09
-9.65221e-12
0.0108767
-7.04798e-09
-7.94641e-12
0.0110485
2.03373e-07
-6.81977e-12
0.0110845
9.42488e-07
-4.88135e-12
0.0109289
3.58371e-06
-3.21208e-12
0.0103467
1.45761e-05
-1.89291e-12
0.00886063
7.0521e-05
-2.19286e-12
0.00167627
0.000544583
-1.36605e-11
-0.00662066
0.00211544
-1.97378e-11
0.00238905
1.08775e-11
0.00201146
1.64336e-07
1.43211e-10
0.00212269
3.50578e-07
1.96761e-10
0.00221888
5.67473e-07
1.86908e-10
0.00214515
6.23689e-07
1.03207e-10
0.00240184
6.04788e-07
-1.20028e-10
0.00290083
4.49698e-07
-3.18491e-10
0.00371141
2.06288e-07
-4.35654e-10
0.00524276
3.33822e-08
-4.52846e-11
0.00607569
-1.3834e-07
-7.78797e-10
0.00672185
-5.95759e-09
-7.23207e-11
0.00752464
5.21842e-08
6.35495e-11
0.00837079
6.17759e-08
7.47705e-11
0.00914965
5.16409e-08
5.86926e-11
0.00979757
3.56187e-08
3.8482e-11
0.0102956
1.66503e-08
1.76661e-11
0.0106477
3.02322e-08
6.14898e-12
0.0108765
4.79043e-10
-8.35106e-13
0.0110492
4.82306e-07
-2.01176e-12
0.0110884
2.11298e-06
4.22535e-13
0.0109439
7.57291e-06
-5.65294e-13
0.0103947
2.88759e-05
-2.36199e-12
0.00902512
0.000129268
-3.85734e-12
0.00245575
0.000900888
-1.55717e-11
-0.00596696
0.00354694
-2.0275e-11
0.00408494
1.13702e-11
0.00201175
8.60821e-08
-1.63941e-10
0.0021238
2.15854e-07
-1.28477e-11
0.00222275
4.08344e-07
1.49283e-11
0.00215
4.88865e-07
1.14382e-10
0.00240855
5.21034e-07
3.86637e-10
0.00290914
4.70904e-07
7.1574e-10
0.00371791
3.03412e-07
8.70439e-10
0.00524556
1.11054e-07
6.35094e-10
0.00607497
5.38178e-08
1.05469e-09
0.00672095
5.67167e-08
1.75534e-10
0.00752392
7.01162e-08
2.86851e-11
0.00837025
6.58377e-08
2.30186e-11
0.00914927
5.16023e-08
2.73333e-11
0.00979734
3.46398e-08
1.43485e-11
0.0102954
1.40894e-08
6.63204e-12
0.0106477
5.91122e-08
4.72123e-12
0.010876
2.41131e-08
3.87718e-12
0.0110503
9.78648e-07
3.46096e-12
0.0110952
4.11801e-06
-8.65718e-13
0.0109696
1.38089e-05
-1.51779e-12
0.0104729
4.9189e-05
-1.60401e-12
0.00926996
0.000201699
-4.02803e-12
0.00387259
0.00123088
-1.31322e-11
-0.00498675
0.00512925
-2.16877e-11
0.006354
1.15712e-11
0.00201183
-3.71254e-08
1.12988e-11
0.00212396
-1.33952e-08
1.14533e-10
0.00222315
-6.14097e-09
1.46909e-10
0.0021507
2.86145e-08
1.93147e-10
0.00240945
9.56262e-08
2.60413e-10
0.00291005
2.0248e-07
3.63783e-10
0.0037186
2.96135e-07
3.44195e-10
0.00524581
3.51749e-07
4.00484e-10
0.00607504
2.67579e-07
1.49124e-10
0.006721
1.59645e-07
4.04084e-11
0.00752396
1.04242e-07
2.44736e-11
0.00837029
6.85372e-08
2.52144e-11
0.0091493
4.46221e-08
2.83309e-11
0.00979738
2.49796e-08
2.35452e-11
0.0102953
6.46316e-09
1.20007e-11
0.010648
1.02744e-07
5.72217e-12
0.0108754
1.029e-07
1.60307e-12
0.0110506
1.7162e-06
5.50778e-13
0.0111043
6.99111e-06
-3.56413e-13
0.0110042
2.2037e-05
-1.19147e-12
0.0105866
7.26346e-05
-1.72462e-12
0.00955303
0.000270087
-3.0463e-12
0.00543585
0.00144218
-1.0237e-11
-0.0035269
0.0064516
-2.17973e-11
0.0095441
1.0235e-11
0.00201156
-1.03531e-08
2.25905e-11
0.00212322
-6.98804e-09
-1.02171e-10
0.00222198
5.1966e-09
-1.2191e-10
0.00214936
2.14909e-08
-1.53406e-10
0.00240795
5.28585e-08
-2.20445e-10
0.00290844
1.11703e-07
-3.01138e-10
0.00371713
1.74802e-07
-2.88315e-10
0.00524505
2.16994e-07
-2.97524e-10
0.00607471
1.8777e-07
-1.26016e-10
0.00672072
1.13627e-07
-2.67778e-11
0.00752373
6.74108e-08
-3.81768e-11
0.00837012
3.82254e-08
-4.56136e-11
0.00914916
2.58561e-08
-4.03848e-11
0.00979734
1.24419e-08
-3.03856e-11
0.0102951
5.18814e-09
-2.29042e-11
0.0106484
1.8437e-07
-8.36342e-12
0.0108748
2.95595e-07
-4.62297e-12
0.0110485
2.66037e-06
-2.83819e-12
0.0111133
1.08147e-05
-2.28881e-12
0.0110402
3.26422e-05
-1.00726e-12
0.0107045
0.000100196
-3.75687e-13
0.0098623
0.000338346
-7.83256e-13
0.00694312
0.00154298
-5.39106e-12
-0.0010444
0.00727245
-1.78109e-11
0.0140195
7.50463e-12
0.00201158
4.42706e-10
-6.36652e-12
0.00212324
-4.12582e-10
3.32392e-12
0.00222201
-4.13514e-10
4.71785e-12
0.00214939
1.07291e-09
6.73808e-12
0.00240795
5.70558e-09
1.1049e-11
0.00290842
1.77833e-08
-1.61803e-13
0.00371704
3.403e-08
-1.75922e-11
0.00524498
5.42468e-08
-9.71979e-11
0.00607471
5.07939e-08
-9.09337e-11
0.0067207
3.09061e-08
-3.76057e-11
0.0075237
1.87995e-08
-3.87907e-11
0.00837009
6.19293e-09
-4.03275e-11
0.00914911
8.68034e-09
-3.51198e-11
0.0097974
6.74376e-09
-2.89742e-11
0.0102948
6.19928e-09
-2.13524e-11
0.0106489
2.99226e-07
-9.74939e-12
0.0108749
5.22893e-07
-6.91876e-12
0.0110436
3.5917e-06
-4.44937e-12
0.0111169
1.47256e-05
-3.69537e-12
0.0110731
4.38302e-05
-2.58869e-12
0.0108127
0.000127261
-1.20199e-12
0.0101413
0.000399538
-5.77695e-13
0.00820351
0.00158542
-2.61289e-12
0.00150545
0.00782505
-1.30377e-11
0.018612
1.05005e-12
0.00201159
1.43779e-11
-4.64765e-10
0.00212326
-1.01804e-10
4.80754e-10
0.00222203
-1.21677e-10
5.45936e-10
0.00214939
-1.69336e-10
-5.64422e-10
0.0024079
-2.70987e-10
-4.53381e-09
0.00290832
-4.08814e-10
-1.47196e-08
0.00371687
-4.15399e-10
-2.8048e-08
0.00524483
-4.25263e-10
-4.42422e-08
0.00607462
-2.65237e-10
-4.05692e-08
0.00672063
-6.87927e-11
-2.62868e-08
0.00752365
-7.1834e-11
-1.4385e-08
0.00837006
-7.44084e-11
-1.2511e-08
0.00914907
-6.33644e-11
-2.97626e-09
0.00979751
-5.24312e-11
1.50513e-08
0.0102945
-3.53365e-11
-1.15754e-09
0.0106493
-1.33436e-11
4.47117e-07
0.0108759
-7.62189e-12
8.09523e-07
0.011037
-3.61082e-12
4.44908e-06
0.0111198
-2.85914e-12
1.84617e-05
0.0110914
-1.80967e-12
5.52085e-05
0.0109001
-5.71903e-13
0.000155138
0.0103753
3.55117e-13
0.000465257
0.0091398
-5.99721e-13
0.00168359
0.00489493
-7.57871e-12
0.00741273
-1.39449e-12
0.0259601
0.00201158
-4.39418e-10
9.96315e-14
0.00212326
6.79891e-10
3.36122e-13
0.00222203
7.19042e-10
5.64792e-13
0.00214939
-1.28961e-09
1.19549e-12
0.00240789
-7.40244e-09
2.48869e-12
0.0029083
-2.27474e-08
9.3617e-12
0.00371682
-4.36604e-08
1.76168e-11
0.00524478
-6.79133e-08
4.1192e-11
0.00607459
-6.50102e-08
4.34311e-11
0.00672061
-4.14299e-08
2.45285e-11
0.00752364
-2.43616e-08
1.01602e-11
0.00837005
-1.36232e-08
8.86136e-14
0.00914914
-6.74967e-09
-5.95666e-12
0.00979724
-2.52264e-09
-8.41917e-12
0.0102954
-9.18143e-11
-8.53945e-12
0.0106475
1.22907e-09
-7.27795e-12
0.0108768
9.71657e-10
-5.39499e-12
0.011048
7.81937e-09
-4.8209e-12
0.0110818
3.72438e-08
-3.70196e-12
0.0109175
1.61018e-07
-2.52148e-12
0.0103079
7.56028e-07
-9.10918e-13
0.00872805
4.34277e-06
1.79414e-12
0.00119624
3.88704e-05
9.45114e-12
-0.0072232
0.000176348
9.42577e-12
0.000199402
-4.29326e-12
0.00201157
1.06273e-08
1.26201e-12
0.00212324
7.22301e-09
-2.87959e-13
0.00222201
-4.96628e-09
7.57181e-13
0.00214939
-2.01254e-08
3.84681e-12
0.00240794
-4.86854e-08
1.06325e-11
0.0029084
-1.00882e-07
2.99852e-11
0.00371699
-1.54493e-07
4.61395e-11
0.00524493
-1.86695e-07
9.58767e-11
0.00607467
-1.58811e-07
1.01559e-10
0.00672068
-9.57936e-08
5.63474e-11
0.00752369
-5.79351e-08
2.891e-11
0.00837008
-3.67801e-08
1.51122e-11
0.00914916
-2.28474e-08
5.89164e-12
0.00979725
-1.29331e-08
-7.64087e-13
0.0102954
-6.4471e-09
-4.11931e-12
0.0106475
-1.28845e-09
-5.06567e-12
0.0108768
-1.59766e-09
-4.51477e-12
0.011048
2.55026e-08
-4.33172e-12
0.011082
1.26624e-07
-3.67187e-12
0.0109186
5.35099e-07
-2.83769e-12
0.0103115
2.41305e-06
-1.45487e-12
0.00874073
1.32219e-05
1.01762e-12
0.0012464
0.000113727
7.33241e-12
-0.00715695
0.000492848
1.09248e-11
0.000551289
-1.01762e-12
0.00201156
3.7542e-08
3.70532e-12
0.00212323
1.38821e-08
-4.55289e-13
0.00222198
7.65738e-09
-3.36621e-13
0.00214936
-2.26167e-08
1.24534e-12
0.00240793
-8.26146e-08
4.90104e-12
0.00290841
-1.71246e-07
3.34647e-11
0.00371707
-2.43679e-07
5.88427e-11
0.00524498
-2.72797e-07
1.67399e-10
0.00607468
-1.93595e-07
1.18919e-10
0.00672069
-1.14552e-07
7.42461e-11
0.00752372
-7.89891e-08
3.47771e-11
0.00837011
-5.62917e-08
2.54567e-11
0.00914919
-3.78281e-08
1.72079e-11
0.00979727
-2.2756e-08
8.63581e-12
0.0102954
-1.23804e-08
2.44667e-12
0.0106475
-1.24944e-09
-8.62519e-13
0.0108768
-4.42058e-09
-1.79215e-12
0.0110481
7.61791e-08
-1.92908e-12
0.0110827
3.67212e-07
-2.33901e-12
0.0109216
1.4768e-06
-1.65625e-12
0.010322
6.33719e-06
-1.11077e-12
0.00877608
3.29093e-05
2.60927e-13
0.00138392
0.000271273
4.90834e-12
-0.00698464
0.00109648
1.2971e-11
0.0012267
2.42244e-13
0.00201184
-1.00354e-07
-2.78861e-11
0.00212397
-2.21973e-07
1.15914e-10
0.00222317
-4.00473e-07
1.37556e-10
0.00215069
-4.59043e-07
1.71157e-10
0.00240936
-4.54549e-07
2.42975e-10
0.00290987
-3.45721e-07
3.42708e-10
0.00371829
-1.24408e-07
3.46285e-10
0.00524552
8.75734e-08
4.18625e-10
0.00607488
1.11341e-07
1.99613e-10
0.00672088
3.9781e-08
4.87147e-11
0.00752388
-1.06408e-08
6.2107e-11
0.00837024
-2.74547e-08
6.71791e-11
0.00914928
-2.65761e-08
5.48647e-11
0.00979734
-1.89855e-08
3.64738e-11
0.0102955
-1.23895e-08
1.72755e-11
0.0106475
3.34352e-09
6.20972e-12
0.0108767
-7.25346e-09
1.86419e-12
0.0110485
2.04358e-07
8.05392e-13
0.0110845
9.43754e-07
-1.64469e-13
0.0109289
3.58447e-06
-1.05284e-12
0.0103466
1.45762e-05
-1.58757e-12
0.00886063
7.05204e-05
-1.0427e-12
0.00167627
0.000544582
2.02225e-12
-0.00662066
0.00211544
1.0345e-11
0.00238905
8.38147e-13
0.00201175
-1.8343e-07
-3.02201e-11
0.00212378
-3.2356e-07
1.04553e-11
0.0022227
-5.12436e-07
6.69013e-12
0.00214992
-5.36652e-07
-3.89238e-12
0.00240843
-4.57691e-07
-8.87576e-12
0.00290898
-2.75714e-07
-1.4704e-11
0.00371771
-5.05518e-08
2.24356e-11
0.00524538
2.24722e-07
1.6647e-10
0.00607488
3.20448e-07
1.2046e-10
0.00672088
1.01931e-07
7.278e-11
0.00752386
1.63037e-08
6.37819e-11
0.00837021
-1.11606e-08
4.07039e-11
0.00914924
-1.60304e-08
2.30828e-11
0.00979731
-1.26941e-08
1.21922e-11
0.0102954
-9.83744e-09
4.16135e-12
0.0106476
1.95707e-08
-8.50248e-13
0.0108765
-2.79468e-09
-2.26325e-12
0.0110491
4.81738e-07
-2.34339e-12
0.0110884
2.11293e-06
-1.89585e-12
0.0109439
7.57331e-06
-1.58124e-12
0.0103947
2.88765e-05
-1.15768e-12
0.00902512
0.000129269
-2.67844e-14
0.00245574
0.000900889
3.1561e-12
-0.00596696
0.00354694
6.59133e-12
0.00408494
2.19229e-12
0.00201108
1.83044e-07
1.4961e-10
0.00212166
3.23122e-07
4.64636e-11
0.00221729
5.11669e-07
8.31089e-12
0.00214345
5.34759e-07
-1.10006e-10
0.00239997
4.52964e-07
-4.16548e-10
0.00289879
2.62645e-07
-7.5836e-10
0.00370938
2.25218e-08
-8.47371e-10
0.00524172
-2.73976e-07
-3.18936e-10
0.00607524
-3.66676e-07
-8.62253e-10
0.00672145
-1.26005e-07
-5.54343e-11
0.00752431
-2.62366e-08
5.61402e-11
0.00837054
1.14039e-08
4.31594e-11
0.00914947
2.26454e-08
1.94909e-11
0.00979747
2.27606e-08
6.97518e-12
0.0102955
1.08561e-08
1.35828e-13
0.0106478
5.99091e-08
-5.60553e-12
0.010876
2.62477e-08
-7.21912e-12
0.0110503
9.80828e-07
-7.07625e-12
0.0110952
4.11988e-06
-2.40528e-12
0.0109696
1.38101e-05
-1.56791e-12
0.0104729
4.91898e-05
-1.23645e-12
0.00926996
0.0002017
4.68707e-13
0.00387258
0.00123088
3.41963e-12
-0.00498675
0.00512925
6.44106e-12
0.00635399
2.36182e-12
0.00201175
9.94933e-08
-3.92367e-11
0.00212378
2.21832e-07
1.06888e-11
0.0022227
4.00212e-07
7.07834e-12
0.00214992
4.56447e-07
-3.08242e-12
0.00240843
4.4553e-07
-8.57543e-12
0.00290899
3.19416e-07
-9.21637e-12
0.00371774
7.84445e-08
3.08633e-11
0.00524541
-1.64108e-07
1.99786e-10
0.00607491
-1.79777e-07
1.72381e-10
0.0067209
-8.52894e-08
8.98671e-11
0.00752387
-9.15075e-09
7.62003e-11
0.00837021
1.73552e-08
5.7804e-11
0.00914924
2.65358e-08
3.56173e-11
0.00979734
2.35433e-08
1.34489e-11
0.0102953
1.17682e-08
2.98925e-12
0.010648
1.10233e-07
-2.05919e-12
0.0108754
1.10106e-07
-3.22419e-12
0.0110506
1.72192e-06
-3.20425e-12
0.0111044
6.99527e-06
-2.77718e-12
0.0110042
2.20402e-05
-2.29771e-12
0.0105866
7.26368e-05
-1.59214e-12
0.00955303
0.000270088
-1.27698e-13
0.00543584
0.00144218
2.66523e-12
-0.0035269
0.00645161
6.1022e-12
0.0095441
3.82907e-12
0.00201183
-2.43656e-08
-2.30827e-11
0.00212396
-1.10714e-08
1.19567e-10
0.00222315
-1.26196e-08
1.43491e-10
0.0021507
-4.11417e-09
1.83392e-10
0.00240945
1.16323e-08
2.67681e-10
0.00291005
3.55996e-08
4.08938e-10
0.0037186
5.87109e-08
4.36213e-10
0.00524579
6.69128e-08
5.8006e-10
0.00607503
3.98379e-08
3.3575e-10
0.00672099
2.20442e-08
1.30176e-10
0.00752396
2.22018e-08
1.05777e-10
0.00837029
1.7653e-08
8.97331e-11
0.00914929
1.89487e-08
6.49978e-11
0.00979743
1.18437e-08
4.04742e-11
0.0102951
7.96938e-09
1.92272e-11
0.0106484
1.87607e-07
4.70093e-12
0.0108748
2.98455e-07
-2.39692e-13
0.0110485
2.66253e-06
-1.90662e-12
0.0111133
1.08161e-05
-1.91923e-12
0.0110402
3.26431e-05
-2.60353e-12
0.0107044
0.000100197
-2.28549e-12
0.00986229
0.000338347
-1.17051e-12
0.00694311
0.00154298
1.36443e-12
-0.0010444
0.00727245
6.127e-12
0.0140195
5.8945e-12
0.00201153
2.43415e-08
9.47601e-12
0.00212319
1.10487e-08
-3.37201e-12
0.00222193
1.25665e-08
-3.60618e-12
0.00214933
4.10258e-09
-2.18605e-12
0.00240793
-1.15464e-08
4.21632e-13
0.00290847
-3.52161e-08
5.18578e-11
0.00371725
-5.81492e-08
1.09566e-10
0.00524518
-6.6179e-08
2.86336e-10
0.00607479
-3.9279e-08
2.57927e-10
0.00672079
-2.23556e-08
1.38613e-10
0.0075238
-2.02439e-08
9.44451e-11
0.00837017
-2.23908e-08
6.68879e-11
0.00914919
-9.25017e-09
4.22953e-11
0.00979745
-4.31197e-09
2.23058e-11
0.0102948
3.88854e-10
6.52509e-12
0.0106489
2.97464e-07
7.4921e-13
0.0108749
5.22885e-07
-1.83315e-12
0.0110436
3.59246e-06
-2.79867e-12
0.0111169
1.47264e-05
-2.7495e-12
0.0110731
4.38308e-05
-2.55128e-12
0.0108127
0.000127262
-1.86039e-12
0.0101413
0.000399539
-8.66466e-13
0.00820351
0.00158542
1.03054e-12
0.00150544
0.00782505
5.06868e-12
0.018612
8.19822e-12
0.00201183
-2.26021e-11
-9.94957e-08
0.00212396
1.20304e-10
-2.21846e-07
0.00222315
1.44137e-10
-4.00235e-07
0.0021507
1.83552e-10
-4.56453e-07
0.00240945
2.65689e-10
-4.45495e-07
0.00291005
4.04294e-10
-3.19305e-07
0.0037186
4.29025e-10
-7.82498e-08
0.0052458
5.61021e-10
1.64458e-07
0.00607503
3.27132e-10
1.8029e-07
0.00672099
1.26386e-10
8.47469e-08
0.00752396
1.0487e-10
1.07384e-08
0.0083703
9.04606e-11
-2.01681e-08
0.00914924
6.77105e-11
-2.25315e-08
0.00979763
4.25917e-11
-5.16282e-09
0.0102946
1.78735e-11
-1.78878e-08
0.0106493
5.65946e-12
4.36815e-07
0.0108759
5.89813e-14
8.0285e-07
0.011037
-2.27204e-12
4.44481e-06
0.0111198
-2.03432e-12
1.84591e-05
0.0110914
-1.93999e-12
5.52068e-05
0.0109001
-1.97579e-12
0.000155137
0.0103753
-1.6046e-12
0.000465256
0.0091398
-2.43377e-13
0.00168359
0.00489493
2.89949e-12
0.00741273
7.09438e-12
0.0259601
0.00201158
-2.26537e-12
3.46798e-12
0.00212326
-3.29433e-12
1.50492e-11
0.00222203
-7.41777e-12
1.75648e-11
0.00214939
-1.03576e-11
1.97042e-11
0.00240787
-2.28668e-11
1.03792e-11
0.00290826
-1.0974e-10
4.32479e-11
0.00371674
-3.93197e-10
4.95036e-11
0.00524469
1.43691e-11
2.45292e-12
0.00607453
-3.74857e-10
1.33003e-11
0.00672058
-3.14714e-10
3.56631e-12
0.00752363
-7.16006e-11
-1.13365e-11
0.00837005
1.38353e-10
-6.60704e-12
0.00914915
2.58194e-10
9.19626e-12
0.00979725
2.90576e-10
2.24106e-11
0.0102954
2.21432e-10
3.13345e-11
0.0106475
4.31845e-10
3.23945e-11
0.0108768
-1.86097e-10
2.62784e-11
0.011048
7.03925e-09
2.42004e-11
0.0110818
3.66034e-08
1.93804e-11
0.0109175
1.60481e-07
1.96996e-11
0.0103079
7.55553e-07
3.45464e-11
0.00872804
4.34229e-06
1.22755e-10
0.00119625
3.88691e-05
7.47944e-10
-0.0072232
0.000176347
4.96428e-10
0.000199403
-1.59596e-09
0.00201158
1.29547e-12
4.31181e-12
0.00212326
-3.09932e-13
1.19848e-11
0.00222203
6.93206e-13
1.43006e-11
0.00214939
-2.02606e-12
1.66301e-11
0.00240788
-1.35961e-11
7.58374e-12
0.00290827
-5.51957e-11
3.83083e-11
0.00371675
-1.50542e-10
4.16872e-11
0.00524469
-1.85687e-10
-1.78275e-11
0.00607454
-2.05826e-10
7.6123e-12
0.00672058
-1.37554e-10
9.77572e-12
0.00752363
-5.58732e-11
2.99026e-13
0.00837005
1.54804e-12
4.83065e-12
0.00914915
3.67078e-11
1.79631e-11
0.00979725
7.78576e-11
2.7493e-11
0.0102954
-1.34375e-10
3.36163e-11
0.0106475
1.00637e-09
3.32851e-11
0.0108768
-1.16449e-09
2.68688e-11
0.011048
2.53963e-08
2.39358e-11
0.011082
1.26442e-07
1.69374e-11
0.0109186
5.34871e-07
1.14101e-11
0.0103115
2.41264e-06
8.81525e-12
0.00874073
1.32211e-05
4.38992e-11
0.0012464
0.000113725
4.39042e-10
-0.00715695
0.000492847
1.38886e-09
0.000551289
-1.34434e-09
0.00201158
-6.41601e-12
-1.59482e-12
0.00212326
8.66346e-13
5.02233e-12
0.00222203
3.03596e-12
6.26032e-12
0.00214939
-1.6748e-12
8.38187e-12
0.00240788
-2.48862e-11
1.26722e-11
0.00290827
-8.03413e-11
2.03418e-11
0.00371675
-1.68857e-10
9.68803e-12
0.00524469
-2.88312e-10
-3.13579e-11
0.00607454
-2.77564e-10
-3.07262e-11
0.00672058
-2.0953e-10
2.40282e-11
0.00752363
-1.70556e-10
2.59017e-11
0.00837005
-1.49064e-10
2.66835e-11
0.00914915
-1.11378e-10
3.29196e-11
0.00979725
2.44805e-11
3.75473e-11
0.0102954
-5.26026e-10
3.9865e-11
0.0106475
3.05709e-09
3.58694e-11
0.0108768
-2.84494e-09
2.85849e-11
0.0110481
7.65937e-08
2.0546e-11
0.0110827
3.672e-07
2.73244e-12
0.0109216
1.47656e-06
-3.77465e-11
0.010322
6.33672e-06
-1.48529e-10
0.00877608
3.29085e-05
-4.10278e-10
0.00138393
0.000271271
-2.17954e-09
-0.00698464
0.00109648
4.06885e-09
0.0012267
-7.2552e-10
0.00201158
5.06254e-11
-1.34101e-12
0.00212326
9.07267e-11
3.29181e-12
0.00222203
1.09479e-10
4.10664e-12
0.00214939
9.43773e-11
5.43953e-12
0.00240788
7.49572e-11
8.21066e-12
0.00290827
7.8979e-11
1.48656e-11
0.00371675
5.34961e-11
7.40551e-12
0.00524469
3.37902e-11
-3.32164e-11
0.00607454
-4.07141e-11
-2.94796e-11
0.00672058
-1.50357e-10
2.82119e-11
0.00752363
-1.79131e-10
2.71867e-11
0.00837005
-2.04722e-10