/*--------------------------------*- C++ -*----------------------------------*\
| =========                 |                                                 |
| \\      /  F ield         | OpenFOAM: The Open Source CFD Toolbox           |
|  \\    /   O peration     | Version:  4.1                                   |
|   \\  /    A nd           | Web:      www.OpenFOAM.org                      |
|    \\/     M anipulation  |                                                 |
\*---------------------------------------------------------------------------*/
FoamFile
{
    version     2.0;
    format      ascii;
    class       volScalarField;
    location    "0.1";
    object      T;
}
// * * * * * * * * * * * * * * * * * * * * * * * * * * * * * * * * * * * * * //

dimensions      [0 0 0 1 0 0 0];

internalField   nonuniform List<scalar> 
52500
(
0.382984
0.38415
0.38588
0.459567
0.511726
0.506663
0.508151
0.549005
0.686904
0.839613
0.919722
0.963047
0.986791
0.999005
1.00424
1.00593
1.0066
1.00765
1.0142
1.04146
1.12213
1.41729
1.94446
2.61735
2.32897
0.382985
0.38415
0.385881
0.459573
0.511737
0.506672
0.508158
0.549009
0.686906
0.839617
0.919726
0.963051
0.986793
0.999007
1.00424
1.00593
1.0066
1.00764
1.01419
1.04142
1.12191
1.41619
1.94114
2.61356
2.32592
0.382989
0.384144
0.385862
0.459552
0.511768
0.506718
0.508205
0.549045
0.686911
0.839599
0.919706
0.963035
0.986783
0.999001
1.00423
1.00593
1.0066
1.00764
1.01415
1.04127
1.12125
1.41304
1.93179
2.60447
2.31831
0.382991
0.384143
0.385858
0.459548
0.511716
0.506652
0.50814
0.549032
0.686947
0.839618
0.919722
0.963049
0.986793
0.999007
1.00424
1.00593
1.0066
1.00762
1.01405
1.04087
1.11961
1.40515
1.91074
2.5863
2.30533
0.382978
0.384071
0.385736
0.459402
0.511656
0.506602
0.508096
0.549017
0.686937
0.839584
0.919691
0.963028
0.98678
0.998999
1.00423
1.00592
1.00659
1.00757
1.01382
1.03997
1.11613
1.38884
1.86997
2.55705
2.28742
0.383051
0.384293
0.386185
0.460274
0.51241
0.50748
0.508881
0.549291
0.686664
0.83947
0.919635
0.962994
0.986759
0.998986
1.00423
1.00591
1.00656
1.00747
1.01334
1.03823
1.10993
1.36055
1.80757
2.51492
2.26854
0.38305
0.384269
0.386138
0.460218
0.51237
0.507438
0.508841
0.549293
0.686685
0.839461
0.919626
0.962989
0.986757
0.998984
1.00423
1.0059
1.0065
1.0073
1.01252
1.03543
1.1005
1.31814
1.73125
2.44895
2.25601
0.383009
0.384065
0.385702
0.45935
0.51157
0.506504
0.508001
0.549002
0.686988
0.8396
0.919704
0.96304
0.986788
0.999001
1.00424
1.00589
1.00639
1.00705
1.01131
1.03157
1.08843
1.26869
1.64328
2.35712
2.22992
0.383054
0.384275
0.386145
0.460227
0.512383
0.507453
0.508854
0.549304
0.686692
0.839465
0.919627
0.962991
0.986757
0.99898
1.00423
1.00585
1.00616
1.00674
1.00969
1.02651
1.07369
1.21686
1.54976
2.21697
2.21319
0.383051
0.384266
0.386134
0.460223
0.512389
0.507457
0.508852
0.549292
0.686677
0.839465
0.919631
0.962996
0.986759
0.998977
1.00424
1.00579
1.0059
1.00628
1.00785
1.02063
1.05664
1.16646
1.42756
2.08314
2.07882
0.382997
0.384143
0.385856
0.459553
0.511725
0.50666
0.508144
0.549033
0.686949
0.839625
0.919732
0.96306
0.986805
0.999019
1.00425
1.00594
1.00662
1.00766
1.01421
1.04148
1.12216
1.41737
1.94463
2.61745
2.32902
0.382983
0.384113
0.385816
0.459493
0.511675
0.506607
0.508096
0.548988
0.686919
0.839616
0.919729
0.963059
0.986804
0.999018
1.00425
1.00594
1.00661
1.00766
1.0142
1.04143
1.12194
1.41627
1.94131
2.61367
2.32597
0.383045
0.384274
0.386152
0.460242
0.512406
0.507471
0.508863
0.54927
0.686632
0.839452
0.919633
0.963001
0.98677
0.998999
1.00424
1.00593
1.00661
1.00765
1.01416
1.04128
1.12127
1.41301
1.93206
2.60414
2.31866
0.382986
0.384121
0.38583
0.459506
0.511685
0.506617
0.508103
0.548978
0.686895
0.839609
0.919727
0.963058
0.986804
0.999018
1.00425
1.00594
1.00661
1.00763
1.01406
1.04088
1.11963
1.40512
1.91099
2.58595
2.30569
0.383045
0.384274
0.386152
0.460241
0.512405
0.50747
0.508861
0.549267
0.686628
0.83945
0.919632
0.963001
0.986771
0.998999
1.00424
1.00593
1.0066
1.00758
1.01383
1.03998
1.11615
1.38879
1.87023
2.5567
2.28776
0.382981
0.384111
0.385813
0.459487
0.51167
0.506601
0.508089
0.548976
0.686902
0.839608
0.919726
0.963057
0.986804
0.999018
1.00425
1.00593
1.00658
1.00748
1.01336
1.03824
1.10994
1.3605
1.80783
2.51452
2.26889
0.38299
0.384137
0.38585
0.459544
0.511721
0.506654
0.508137
0.549018
0.686927
0.839616
0.919728
0.963058
0.986805
0.999017
1.00426
1.00592
1.00652
1.00731
1.01254
1.03544
1.10052
1.31817
1.73137
2.44909
2.25609
0.38299
0.384154
0.385884
0.459575
0.51174
0.506674
0.508158
0.549007
0.686903
0.839619
0.919733
0.963062
0.986805
0.999016
1.00426
1.0059
1.0064
1.00706
1.01133
1.03158
1.08845
1.26871
1.64341
2.35693
2.23004
0.382986
0.384151
0.385881
0.459572
0.51174
0.506676
0.508159
0.549004
0.686897
0.839619
0.919733
0.963062
0.986804
0.999013
1.00426
1.00587
1.00618
1.00676
1.0097
1.02652
1.07371
1.21686
1.54985
2.21652
2.21335
0.382984
0.384149
0.385879
0.459569
0.511737
0.506671
0.508154
0.548997
0.686887
0.839614
0.91973
0.963061
0.986803
0.999008
1.00426
1.00581
1.00592
1.00629
1.00786
1.02065
1.05666
1.16646
1.42762
2.08276
2.07906
0.382984
0.384149
0.385879
0.459569
0.511737
0.506671
0.508154
0.548995
0.686885
0.839612
0.919731
0.963059
0.986805
0.999019
1.00425
1.00594
1.00662
1.00766
1.01421
1.04148
1.12216
1.41737
1.94463
2.61745
2.32902
0.382986
0.384151
0.385881
0.459572
0.51174
0.506675
0.508158
0.549002
0.686894
0.839617
0.919733
0.963061
0.986805
0.999019
1.00425
1.00594
1.00662
1.00766
1.0142
1.04143
1.12194
1.41627
1.94131
2.61367
2.32597
0.382989
0.384154
0.385883
0.459574
0.511738
0.506672
0.508155
0.549003
0.686898
0.839617
0.919733
0.963061
0.986806
0.99902
1.00425
1.00594
1.00662
1.00765
1.01416
1.04128
1.12127
1.41301
1.93206
2.60414
2.31866
0.382987
0.384135
0.385848
0.459539
0.511716
0.506647
0.508129
0.549004
0.686909
0.839607
0.919724
0.963057
0.986804
0.999019
1.00425
1.00594
1.00661
1.00763
1.01406
1.04088
1.11963
1.40512
1.91099
2.58595
2.30569
0.382976
0.384106
0.385808
0.45948
0.511664
0.506596
0.508084
0.548967
0.686891
0.839604
0.919724
0.963057
0.986804
0.999018
1.00425
1.00594
1.0066
1.00758
1.01383
1.03998
1.11615
1.38879
1.87023
2.5567
2.28776
0.383044
0.384303
0.386211
0.460313
0.512455
0.507517
0.508905
0.54926
0.686598
0.839458
0.919641
0.963005
0.986772
0.998999
1.00424
1.00593
1.00657
1.00748
1.01336
1.03824
1.10994
1.3605
1.80783
2.51452
2.26889
0.382977
0.384107
0.385809
0.459481
0.511665
0.506597
0.508086
0.548969
0.686893
0.839606
0.919725
0.963057
0.986804
0.999017
1.00425
1.00592
1.00652
1.00731
1.01254
1.03544
1.10052
1.31817
1.73137
2.44909
2.25609
0.38299
0.384138
0.385851
0.459545
0.511721
0.506655
0.508138
0.549018
0.686926
0.839615
0.919727
0.963059
0.986804
0.999016
1.00426
1.0059
1.0064
1.00706
1.01133
1.03158
1.08845
1.26871
1.64341
2.35693
2.23004
0.382994
0.384157
0.385886
0.459577
0.511738
0.506672
0.508156
0.549011
0.686912
0.839624
0.919735
0.963064
0.986806
0.999015
1.00426
1.00587
1.00618
1.00676
1.0097
1.02652
1.07371
1.21686
1.54985
2.21652
2.21335
0.38299
0.384138
0.385851
0.459545
0.511721
0.506655
0.508138
0.549018
0.686926
0.839615
0.919727
0.96306
0.986803
0.999009
1.00426
1.00581
1.00592
1.00629
1.00786
1.02065
1.05666
1.16646
1.42762
2.08276
2.07906
0.382984
0.384149
0.385879
0.459568
0.511736
0.506669
0.508151
0.548991
0.686879
0.839609
0.919729
0.963059
0.986805
0.99902
1.00425
1.00594
1.00662
1.00766
1.01421
1.04148
1.12216
1.41737
1.94463
2.61745
2.32902
0.382984
0.384149
0.385879
0.459568
0.511736
0.506669
0.508151
0.54899
0.686879
0.839609
0.919729
0.963059
0.986805
0.99902
1.00425
1.00594
1.00662
1.00766
1.0142
1.04143
1.12194
1.41627
1.94131
2.61367
2.32597
0.382984
0.384149
0.385879
0.459568
0.511736
0.506669
0.508151
0.54899
0.686879
0.839609
0.919729
0.963059
0.986805
0.99902
1.00425
1.00594
1.00662
1.00765
1.01416
1.04128
1.12127
1.41301
1.93206
2.60414
2.31866
0.382984
0.384149
0.385879
0.459568
0.511736
0.506669
0.508151
0.54899
0.686879
0.839609
0.919729
0.963059
0.986805
0.99902
1.00425
1.00594
1.00661
1.00763
1.01406
1.04088
1.11963
1.40512
1.91099
2.58595
2.30569
0.382984
0.384149
0.385879
0.459568
0.511736
0.506669
0.508151
0.54899
0.686879
0.839609
0.919729
0.963059
0.986805
0.999019
1.00425
1.00594
1.0066
1.00758
1.01383
1.03998
1.11615
1.38879
1.87023
2.5567
2.28776
0.382984
0.384149
0.385879
0.459567
0.511735
0.506669
0.508151
0.54899
0.686879
0.839609
0.919729
0.963059
0.986805
0.999019
1.00425
1.00593
1.00658
1.00748
1.01336
1.03824
1.10994
1.3605
1.80783
2.51452
2.26889
0.382984
0.384149
0.385879
0.459568
0.511736
0.506669
0.508151
0.54899
0.686879
0.839609
0.919729
0.96306
0.986805
0.999018
1.00426
1.00592
1.00652
1.00731
1.01254
1.03544
1.10052
1.31817
1.73137
2.44909
2.25609
0.382984
0.384149
0.385879
0.459568
0.511736
0.506669
0.508151
0.54899
0.686879
0.839609
0.919729
0.96306
0.986805
0.999017
1.00426
1.0059
1.0064
1.00706
1.01133
1.03158
1.08845
1.26871
1.64341
2.35693
2.23004
0.382984
0.384149
0.385879
0.459568
0.511736
0.506669
0.508151
0.54899
0.686879
0.83961
0.919729
0.963061
0.986804
0.999014
1.00426
1.00587
1.00618
1.00676
1.0097
1.02652
1.07371
1.21686
1.54985
2.21652
2.21335
0.382984
0.384149
0.385879
0.459568
0.511736
0.506669
0.508151
0.54899
0.686879
0.83961
0.919728
0.963061
0.986804
0.99901
1.00426
1.00581
1.00592
1.00629
1.00786
1.02065
1.05666
1.16646
1.42762
2.08276
2.07906
0.382984
0.384141
0.38586
0.459543
0.511757
0.506703
0.508188
0.549016
0.686876
0.839585
0.919701
0.963036
0.986788
0.999008
1.00424
1.00594
1.00661
1.00766
1.01421
1.04148
1.12216
1.41736
1.9446
2.61744
2.32904
0.382984
0.38414
0.385859
0.459544
0.511759
0.506704
0.508189
0.549017
0.686878
0.839586
0.919701
0.963036
0.986788
0.999008
1.00424
1.00593
1.00661
1.00765
1.0142
1.04143
1.12194
1.41627
1.94128
2.61365
2.32598
0.382986
0.384149
0.385878
0.459568
0.511719
0.50665
0.508135
0.54899
0.686895
0.83961
0.919724
0.963053
0.986799
0.999014
1.00425
1.00594
1.00661
1.00765
1.01416
1.04128
1.12128
1.41312
1.93192
2.60457
2.31835
0.382986
0.384149
0.385878
0.459568
0.511719
0.50665
0.508135
0.54899
0.686895
0.83961
0.919724
0.963053
0.986799
0.999014
1.00425
1.00594
1.00661
1.00763
1.01406
1.04089
1.11964
1.40522
1.91087
2.58641
2.30536
0.382985
0.38414
0.385859
0.459546
0.511759
0.506705
0.508189
0.549018
0.686879
0.839586
0.919701
0.963035
0.986787
0.999007
1.00424
1.00593
1.0066
1.00758
1.01383
1.03998
1.11615
1.38879
1.87021
2.55668
2.28776
0.382984
0.384144
0.385865
0.459547
0.511758
0.506707
0.508196
0.54903
0.686891
0.839589
0.9197
0.963033
0.986785
0.999005
1.00424
1.00593
1.00657
1.00748
1.01336
1.03824
1.10994
1.36049
1.80783
2.51446
2.26893
0.382985
0.384143
0.385862
0.459543
0.511747
0.506695
0.508186
0.549026
0.686893
0.83959
0.9197
0.963034
0.986786
0.999005
1.00425
1.00592
1.00652
1.00731
1.01254
1.03544
1.10052
1.31817
1.73136
2.44907
2.2561
0.382986
0.384151
0.385882
0.459568
0.511714
0.506647
0.508137
0.548996
0.686902
0.839613
0.919724
0.963053
0.986798
0.999011
1.00425
1.0059
1.0064
1.00706
1.01132
1.03158
1.08845
1.2687
1.6434
2.35692
2.23004
0.382985
0.38414
0.385859
0.459545
0.51176
0.506705
0.50819
0.549019
0.68688
0.839587
0.919701
0.963037
0.986787
0.999002
1.00425
1.00586
1.00618
1.00676
1.0097
1.02652
1.07371
1.21685
1.54985
2.21651
2.21335
0.382984
0.384141
0.38586
0.459548
0.511767
0.506714
0.508198
0.549023
0.686879
0.839587
0.9197
0.963037
0.986785
0.998996
1.00425
1.0058
1.00592
1.00629
1.00786
1.02065
1.05666
1.16646
1.42762
2.08275
2.07905
0.382984
0.384149
0.385879
0.459568
0.511736
0.506669
0.508152
0.548991
0.68688
0.83961
0.91973
0.963059
0.986805
0.99902
1.00425
1.00594
1.00662
1.00766
1.01421
1.04148
1.12216
1.41737
1.94462
2.61744
2.32902
0.382984
0.384149
0.385879
0.459568
0.511736
0.506669
0.508152
0.548991
0.68688
0.83961
0.91973
0.963059
0.986805
0.99902
1.00425
1.00594
1.00662
1.00766
1.0142
1.04143
1.12194
1.41627
1.9413
2.61366
2.32597
0.382984
0.384149
0.385879
0.459568
0.511736
0.506669
0.508151
0.548991
0.68688
0.83961
0.919729
0.963059
0.986805
0.99902
1.00425
1.00594
1.00662
1.00765
1.01416
1.04128
1.12127
1.41301
1.93205
2.60413
2.31866
0.382984
0.384151
0.385882
0.459569
0.511733
0.506668
0.508153
0.548997
0.686888
0.839612
0.919729
0.963058
0.986804
0.999018
1.00425
1.00594
1.00661
1.00763
1.01406
1.04088
1.11963
1.40511
1.91099
2.58595
2.30569
0.382984
0.384149
0.385879
0.459568
0.511735
0.506669
0.508151
0.548991
0.68688
0.83961
0.919729
0.963059
0.986805
0.999019
1.00425
1.00594
1.0066
1.00758
1.01383
1.03998
1.11615
1.38879
1.87023
2.5567
2.28776
0.382984
0.384151
0.385882
0.459569
0.511733
0.506668
0.508153
0.548997
0.686888
0.839612
0.919729
0.963058
0.986804
0.999018
1.00425
1.00593
1.00658
1.00748
1.01336
1.03824
1.10994
1.3605
1.80783
2.51452
2.26891
0.382984
0.384149
0.385879
0.459568
0.511736
0.506669
0.508151
0.548991
0.68688
0.83961
0.919729
0.963059
0.986805
0.999018
1.00426
1.00592
1.00652
1.00731
1.01254
1.03544
1.10052
1.31817
1.73136
2.44907
2.25604
0.382984
0.384149
0.385879
0.459568
0.511736
0.50667
0.508152
0.548991
0.68688
0.83961
0.919729
0.96306
0.986805
0.999016
1.00426
1.0059
1.0064
1.00706
1.01133
1.03158
1.08845
1.2687
1.6434
2.35693
2.23002
0.382984
0.384149
0.385879
0.459568
0.511736
0.50667
0.508152
0.548992
0.686881
0.83961
0.919729
0.96306
0.986804
0.999014
1.00426
1.00587
1.00618
1.00676
1.0097
1.02652
1.07371
1.21686
1.54985
2.21652
2.21334
0.382984
0.384149
0.385879
0.459569
0.511737
0.50667
0.508153
0.548994
0.686883
0.839612
0.919729
0.963061
0.986804
0.999009
1.00426
1.00581
1.00592
1.00629
1.00786
1.02065
1.05666
1.16646
1.42762
2.08276
2.07906
0.382984
0.384149
0.385879
0.459568
0.511736
0.506669
0.508151
0.54899
0.686879
0.83961
0.91973
0.963059
0.986805
0.99902
1.00425
1.00594
1.00662
1.00766
1.01421
1.04148
1.12216
1.41737
1.94463
2.61745
2.32902
0.382984
0.384149
0.385879
0.459568
0.511736
0.506669
0.508151
0.54899
0.686879
0.839609
0.91973
0.963059
0.986805
0.99902
1.00425
1.00594
1.00662
1.00766
1.0142
1.04143
1.12194
1.41627
1.94131
2.61367
2.32597
0.382984
0.384149
0.385879
0.459568
0.511736
0.506669
0.508151
0.54899
0.686879
0.839609
0.91973
0.963059
0.986805
0.99902
1.00425
1.00594
1.00662
1.00765
1.01416
1.04128
1.12127
1.41301
1.93206
2.60414
2.31866
0.382984
0.384149
0.385879
0.459568
0.511736
0.506669
0.508151
0.54899
0.686879
0.839609
0.91973
0.963059
0.986805
0.99902
1.00425
1.00594
1.00661
1.00763
1.01406
1.04088
1.11963
1.40512
1.91099
2.58595
2.30569
0.382984
0.384149
0.385879
0.459568
0.511736
0.506669
0.508151
0.54899
0.686879
0.839609
0.91973
0.963059
0.986805
0.999019
1.00425
1.00594
1.0066
1.00758
1.01383
1.03998
1.11615
1.38879
1.87023
2.5567
2.28776
0.382984
0.384149
0.385879
0.459567
0.511735
0.506669
0.508151
0.54899
0.686879
0.839609
0.919729
0.963059
0.986805
0.999019
1.00425
1.00593
1.00658
1.00748
1.01336
1.03824
1.10994
1.3605
1.80783
2.51452
2.26889
0.382984
0.384149
0.385879
0.459568
0.511736
0.506669
0.508151
0.54899
0.686879
0.839609
0.919729
0.96306
0.986805
0.999018
1.00426
1.00592
1.00652
1.00731
1.01254
1.03544
1.10052
1.31817
1.73137
2.44909
2.25609
0.382984
0.384149
0.385879
0.459568
0.511736
0.506669
0.508151
0.54899
0.686879
0.839609
0.919729
0.96306
0.986805
0.999017
1.00426
1.0059
1.0064
1.00706
1.01133
1.03158
1.08845
1.26871
1.64341
2.35693
2.23004
0.382984
0.384149
0.385879
0.459568
0.511736
0.506669
0.508151
0.54899
0.686879
0.83961
0.919729
0.963061
0.986804
0.999014
1.00426
1.00587
1.00618
1.00676
1.0097
1.02652
1.07371
1.21686
1.54985
2.21652
2.21335
0.382984
0.384149
0.385879
0.459568
0.511736
0.506669
0.508151
0.54899
0.686879
0.83961
0.919728
0.963061
0.986804
0.99901
1.00426
1.00581
1.00592
1.00629
1.00786
1.02065
1.05666
1.16646
1.42762
2.08276
2.07906
0.382984
0.384149
0.385879
0.459569
0.511737
0.506671
0.508154
0.548995
0.686885
0.839612
0.919731
0.963059
0.986805
0.999019
1.00425
1.00594
1.00662
1.00766
1.01421
1.04148
1.12216
1.41737
1.94463
2.61745
2.32902
0.382986
0.384151
0.385881
0.459572
0.51174
0.506675
0.508158
0.549002
0.686894
0.839617
0.919733
0.963061
0.986805
0.999019
1.00425
1.00594
1.00662
1.00766
1.0142
1.04143
1.12194
1.41627
1.94131
2.61367
2.32597
0.382989
0.384154
0.385883
0.459574
0.511738
0.506672
0.508155
0.549003
0.686898
0.839617
0.919733
0.963061
0.986806
0.99902
1.00425
1.00594
1.00662
1.00765
1.01416
1.04128
1.12127
1.41301
1.93206
2.60414
2.31866
0.382987
0.384135
0.385848
0.459539
0.511716
0.506647
0.508129
0.549004
0.686909
0.839607
0.919724
0.963057
0.986804
0.999019
1.00425
1.00594
1.00661
1.00763
1.01406
1.04088
1.11963
1.40512
1.91099
2.58595
2.30569
0.382976
0.384106
0.385808
0.45948
0.511664
0.506596
0.508084
0.548967
0.686891
0.839604
0.919724
0.963057
0.986804
0.999018
1.00425
1.00594
1.0066
1.00758
1.01383
1.03998
1.11615
1.38879
1.87023
2.5567
2.28776
0.383044
0.384304
0.386211
0.460314
0.512455
0.507517
0.508905
0.54926
0.686598
0.839458
0.919641
0.963005
0.986772
0.998999
1.00424
1.00593
1.00657
1.00748
1.01336
1.03824
1.10994
1.3605
1.80783
2.51452
2.26889
0.382977
0.384107
0.385809
0.459481
0.511665
0.506597
0.508086
0.548969
0.686893
0.839606
0.919725
0.963057
0.986804
0.999017
1.00425
1.00592
1.00652
1.00731
1.01254
1.03544
1.10052
1.31817
1.73137
2.44909
2.25609
0.38299
0.384138
0.385851
0.459545
0.511721
0.506655
0.508138
0.549018
0.686926
0.839615
0.919727
0.963059
0.986804
0.999016
1.00426
1.0059
1.0064
1.00706
1.01133
1.03158
1.08845
1.26871
1.64341
2.35693
2.23004
0.382994
0.384157
0.385886
0.459577
0.511738
0.506672
0.508156
0.549011
0.686912
0.839624
0.919735
0.963064
0.986806
0.999015
1.00426
1.00587
1.00618
1.00676
1.0097
1.02652
1.07371
1.21686
1.54985
2.21652
2.21335
0.38299
0.384138
0.385851
0.459545
0.511721
0.506655
0.508138
0.549018
0.686926
0.839615
0.919727
0.96306
0.986803
0.999009
1.00426
1.00581
1.00592
1.00629
1.00786
1.02065
1.05666
1.16646
1.42762
2.08276
2.07906
0.382997
0.384143
0.385856
0.459553
0.511725
0.50666
0.508144
0.549033
0.686949
0.839625
0.919732
0.96306
0.986805
0.999019
1.00425
1.00594
1.00662
1.00766
1.01421
1.04148
1.12216
1.41737
1.94463
2.61745
2.32902
0.382983
0.384113
0.385816
0.459493
0.511675
0.506607
0.508096
0.548988
0.686919
0.839616
0.919729
0.963059
0.986804
0.999018
1.00425
1.00594
1.00661
1.00766
1.0142
1.04143
1.12194
1.41627
1.94131
2.61367
2.32597
0.383045
0.384274
0.386152
0.460242
0.512406
0.507471
0.508863
0.54927
0.686632
0.839452
0.919633
0.963001
0.98677
0.998999
1.00424
1.00593
1.00661
1.00765
1.01416
1.04128
1.12127
1.41301
1.93206
2.60414
2.31866
0.382986
0.384121
0.385829
0.459506
0.511685
0.506617
0.508103
0.548978
0.686895
0.839609
0.919727
0.963058
0.986804
0.999018
1.00425
1.00594
1.00661
1.00763
1.01406
1.04088
1.11963
1.40512
1.91099
2.58595
2.30569
0.383045
0.384274
0.386152
0.460241
0.512405
0.50747
0.508861
0.549267
0.686628
0.83945
0.919632
0.963001
0.986771
0.998999
1.00424
1.00593
1.0066
1.00758
1.01383
1.03998
1.11615
1.38879
1.87023
2.5567
2.28776
0.382981
0.384112
0.385813
0.459487
0.511671
0.506601
0.508089
0.548976
0.686902
0.839608
0.919726
0.963057
0.986804
0.999018
1.00425
1.00593
1.00658
1.00748
1.01336
1.03824
1.10994
1.3605
1.80783
2.51452
2.26889
0.38299
0.384137
0.38585
0.459544
0.511721
0.506654
0.508137
0.549018
0.686927
0.839616
0.919728
0.963058
0.986804
0.999017
1.00425
1.00592
1.00652
1.00731
1.01254
1.03544
1.10052
1.31817
1.73137
2.44909
2.25609
0.38299
0.384154
0.385884
0.459575
0.51174
0.506674
0.508157
0.549007
0.686903
0.839619
0.919733
0.963061
0.986805
0.999016
1.00426
1.0059
1.0064
1.00706
1.01133
1.03158
1.08845
1.26871
1.64341
2.35693
2.23004
0.382986
0.384151
0.385881
0.459573
0.511741
0.506676
0.508159
0.549004
0.686897
0.839619
0.919733
0.963062
0.986804
0.999013
1.00426
1.00587
1.00618
1.00676
1.0097
1.02652
1.07371
1.21686
1.54985
2.21652
2.21335
0.382984
0.384149
0.385879
0.459569
0.511737
0.506671
0.508154
0.548997
0.686887
0.839614
0.91973
0.963061
0.986803
0.999008
1.00426
1.00581
1.00592
1.00629
1.00786
1.02065
1.05666
1.16646
1.42762
2.08276
2.07906
0.382992
0.384157
0.385888
0.459579
0.511729
0.506666
0.508157
0.549027
0.686939
0.839625
0.919725
0.963047
0.986789
0.999003
1.00423
1.00592
1.0066
1.00765
1.0142
1.04147
1.12214
1.41739
1.94435
2.61779
2.32866
0.382987
0.384124
0.385824
0.459512
0.511733
0.506678
0.508166
0.549038
0.686922
0.839586
0.919693
0.963026
0.986777
0.998997
1.00423
1.00592
1.0066
1.00764
1.01419
1.04142
1.12191
1.41619
1.94113
2.61353
2.32594
0.382978
0.384111
0.385814
0.459484
0.511657
0.506593
0.508089
0.548995
0.686933
0.839614
0.919718
0.963044
0.986789
0.999003
1.00423
1.00592
1.0066
1.00764
1.01415
1.04127
1.12125
1.41304
1.93178
2.60446
2.31832
0.383054
0.384294
0.386175
0.460277
0.512539
0.507634
0.509026
0.549352
0.686612
0.839414
0.919584
0.962954
0.986732
0.99897
1.00422
1.00591
1.00659
1.00762
1.01405
1.04087
1.11961
1.40515
1.91073
2.5863
2.30534
0.382984
0.3841
0.385789
0.459463
0.511648
0.506582
0.508073
0.549002
0.686948
0.839607
0.919713
0.963043
0.98679
0.999004
1.00424
1.00592
1.00659
1.00757
1.01382
1.03997
1.11613
1.38883
1.86996
2.55705
2.28742
0.383016
0.384084
0.385727
0.459379
0.511633
0.506577
0.508075
0.549044
0.68699
0.839585
0.91968
0.963016
0.98677
0.99899
1.00423
1.00591
1.00656
1.00747
1.01334
1.03823
1.10992
1.36055
1.80757
2.51492
2.26854
0.383052
0.384291
0.386181
0.460276
0.512415
0.507477
0.508871
0.549278
0.686652
0.839463
0.919631
0.962991
0.986757
0.998982
1.00423
1.0059
1.0065
1.0073
1.01252
1.03543
1.1005
1.31814
1.73124
2.44895
2.25601
0.383056
0.384265
0.38613
0.460222
0.512363
0.507429
0.508829
0.549295
0.686706
0.839468
0.919625
0.962985
0.986751
0.998976
1.00423
1.00588
1.00638
1.00705
1.01131
1.03157
1.08843
1.26869
1.64328
2.35712
2.22992
0.382985
0.384086
0.385762
0.459428
0.511608
0.506539
0.508036
0.548996
0.686965
0.839605
0.919706
0.963039
0.986784
0.998994
1.00424
1.00585
1.00616
1.00674
1.00969
1.02651
1.07369
1.21686
1.54976
2.21697
2.21319
0.383055
0.384241
0.386069
0.460142
0.512424
0.507535
0.50895
0.549404
0.686728
0.839412
0.919559
0.962936
0.986717
0.99895
1.00422
1.00578
1.0059
1.00628
1.00785
1.02064
1.05664
1.16646
1.42755
2.08313
2.07882
0.382986
0.384089
0.385766
0.45944
0.511635
0.506574
0.508069
0.549023
0.686984
0.839622
0.919719
0.963047
0.986794
0.998983
1.00424
1.0057
1.00555
1.00537
1.00593
1.01316
1.03626
1.10217
1.27384
1.67088
1.83697
0.383056
0.384289
0.386168
0.460258
0.512409
0.507484
0.508886
0.549327
0.68671
0.839479
0.919635
0.962993
0.986762
0.998962
1.00422
1.00564
1.0054
1.00433
1.00444
1.00694
1.0189
1.0517
1.14431
1.32265
1.66918
0.382995
0.38411
0.385797
0.459483
0.511669
0.506607
0.508098
0.549042
0.686997
0.839633
0.919726
0.963052
0.986797
0.998983
1.00423
1.00561
1.00534
1.00391
1.00308
1.00348
1.0076
1.02111
1.05768
1.16129
1.36461
0.382989
0.384077
0.385739
0.459421
0.511628
0.506566
0.508059
0.549043
0.687018
0.839625
0.919718
0.963048
0.986796
0.998983
1.00423
1.00561
1.0053
1.0039
1.00237
1.00205
1.0026
1.00668
1.0185
1.0513
1.12624
0.38306
0.384286
0.38616
0.460254
0.512403
0.507475
0.508875
0.549326
0.686716
0.83948
0.919635
0.962994
0.986762
0.998963
1.00422
1.0056
1.0053
1.00386
1.00234
1.00136
1.00123
1.00166
1.00434
1.01147
1.03132
0.383049
0.384238
0.386083
0.46015
0.512323
0.507398
0.508807
0.549301
0.686718
0.839469
0.919627
0.96299
0.98676
0.998961
1.00422
1.0056
1.00529
1.00386
1.00231
1.00132
1.00074
1.00067
1.00091
1.00223
1.00561
0.383048
0.384224
0.386055
0.460121
0.512305
0.507376
0.508783
0.5493
0.686722
0.839455
0.919616
0.962985
0.986758
0.998961
1.00422
1.0056
1.00529
1.00386
1.00231
1.0013
1.0007
1.00037
1.00032
1.00042
1.00095
0.38305
0.384221
0.38605
0.460124
0.512315
0.507383
0.508784
0.549294
0.686715
0.839455
0.919621
0.96299
0.986762
0.998964
1.00422
1.0056
1.0053
1.00386
1.00231
1.0013
1.00069
1.00035
1.00018
1.00014
1.00017
0.383053
0.384243
0.386088
0.460159
0.512331
0.507405
0.508814
0.549313
0.686734
0.839475
0.91963
0.962991
0.986761
0.998962
1.00422
1.0056
1.00529
1.00385
1.00231
1.0013
1.00069
1.00034
1.00016
1.00008
1.00005
0.383061
0.384259
0.38611
0.460204
0.512377
0.507445
0.50884
0.549322
0.686726
0.83947
0.919629
0.962994
0.986764
0.998964
1.00422
1.0056
1.0053
1.00386
1.00231
1.0013
1.00069
1.00034
1.00016
1.00007
1.00003
0.383017
0.384074
0.38571
0.459364
0.511583
0.50652
0.508019
0.549035
0.687033
0.839622
0.919713
0.963043
0.986793
0.998981
1.00423
1.0056
1.0053
1.00386
1.00231
1.0013
1.00069
1.00034
1.00016
1.00007
1.00002
0.38306
0.38428
0.38615
0.460238
0.512393
0.507468
0.508872
0.549336
0.686734
0.839486
0.919637
0.962994
0.986761
0.998962
1.00422
1.0056
1.00529
1.00385
1.00231
1.0013
1.00069
1.00034
1.00016
1.00007
1.00002
0.383059
0.384275
0.386143
0.460238
0.5124
0.507469
0.508866
0.549321
0.686716
0.839482
0.919639
0.962998
0.986765
0.998965
1.00422
1.0056
1.0053
1.00385
1.00231
1.0013
1.00069
1.00034
1.00016
1.00007
1.00002
0.383017
0.384074
0.38571
0.459364
0.511582
0.506519
0.508017
0.549032
0.687028
0.839619
0.919712
0.963043
0.986793
0.998981
1.00423
1.00561
1.0053
1.00386
1.00231
1.0013
1.00069
1.00034
1.00016
1.00007
1.00002
0.383058
0.384262
0.386115
0.460198
0.512366
0.507437
0.508839
0.549325
0.686729
0.839468
0.919625
0.962989
0.98676
0.998962
1.00422
1.0056
1.00529
1.00386
1.00231
1.0013
1.00069
1.00034
1.00016
1.00007
1.00002
0.383048
0.384234
0.386077
0.460151
0.512333
0.507403
0.508805
0.549287
0.686701
0.839466
0.919629
0.962994
0.986763
0.998963
1.00422
1.0056
1.00529
1.00385
1.00231
1.0013
1.00069
1.00034
1.00016
1.00007
1.00002
0.383048
0.384234
0.386078
0.460152
0.512335
0.507404
0.508806
0.549289
0.686703
0.839467
0.91963
0.962994
0.986763
0.998964
1.00422
1.0056
1.00529
1.00385
1.00231
1.0013
1.00069
1.00034
1.00016
1.00007
1.00002
0.383061
0.384259
0.38611
0.460202
0.512377
0.507445
0.508841
0.549324
0.686729
0.839471
0.91963
0.962994
0.986764
0.998964
1.00422
1.0056
1.0053
1.00386
1.00231
1.0013
1.00069
1.00034
1.00016
1.00007
1.00002
0.383023
0.384079
0.385716
0.459372
0.511588
0.506523
0.508022
0.549042
0.687041
0.839625
0.919715
0.963045
0.986794
0.998982
1.00423
1.00561
1.0053
1.00386
1.00231
1.0013
1.00069
1.00034
1.00016
1.00007
1.00002
0.383063
0.38426
0.386111
0.460206
0.51238
0.507448
0.508844
0.549332
0.686739
0.839476
0.919632
0.962995
0.986764
0.998964
1.00422
1.0056
1.0053
1.00386
1.00231
1.0013
1.00069
1.00034
1.00016
1.00007
1.00002
0.383051
0.38424
0.386085
0.460154
0.512326
0.5074
0.508809
0.549304
0.686724
0.839472
0.919628
0.962991
0.98676
0.998961
1.00422
1.0056
1.00529
1.00385
1.00231
1.0013
1.00069
1.00034
1.00016
1.00007
1.00002
0.383049
0.38422
0.38605
0.460125
0.512319
0.507389
0.50879
0.5493
0.686719
0.839459
0.919622
0.96299
0.986761
0.998963
1.00422
1.0056
1.00529
1.00385
1.00231
1.0013
1.00069
1.00034
1.00016
1.00007
1.00002
0.383051
0.38424
0.386085
0.460153
0.512326
0.5074
0.508809
0.549305
0.686724
0.839472
0.919628
0.962991
0.98676
0.998961
1.00422
1.0056
1.00529
1.00385
1.00231
1.0013
1.00069
1.00034
1.00016
1.00007
1.00002
0.383063
0.384261
0.386112
0.460207
0.512381
0.50745
0.508847
0.549334
0.686742
0.839477
0.919632
0.962995
0.986764
0.998964
1.00422
1.0056
1.00529
1.00385
1.00231
1.0013
1.00069
1.00034
1.00016
1.00007
1.00002
0.383023
0.384077
0.385713
0.459372
0.511591
0.506524
0.50802
0.549038
0.687037
0.839625
0.919716
0.963047
0.986796
0.998983
1.00423
1.00561
1.0053
1.00386
1.00231
1.0013
1.00069
1.00034
1.00016
1.00007
1.00002
0.383063
0.384266
0.386119
0.460208
0.512375
0.507449
0.508851
0.549348
0.686759
0.839481
0.919631
0.962992
0.986761
0.998962
1.00422
1.0056
1.00529
1.00385
1.00231
1.0013
1.00069
1.00034
1.00016
1.00007
1.00002
0.38305
0.384235
0.386078
0.460154
0.512332
0.5074
0.508803
0.54929
0.686708
0.839468
0.91963
0.962994
0.986763
0.998964
1.00422
1.0056
1.00529
1.00385
1.00231
1.0013
1.00069
1.00034
1.00016
1.00007
1.00002
0.383049
0.384225
0.386057
0.460126
0.512312
0.507387
0.508794
0.549313
0.686736
0.839462
0.91962
0.962986
0.986758
0.998961
1.00422
1.0056
1.00529
1.00385
1.00231
1.0013
1.00069
1.00034
1.00016
1.00007
1.00002
0.383051
0.38424
0.386085
0.460152
0.512324
0.507398
0.508807
0.549302
0.686721
0.83947
0.919627
0.962991
0.98676
0.998962
1.00422
1.0056
1.00529
1.00385
1.00231
1.0013
1.00069
1.00034
1.00016
1.00007
1.00002
0.38306
0.384259
0.38611
0.460202
0.512377
0.507444
0.508839
0.54932
0.686723
0.839469
0.919629
0.962994
0.986764
0.998965
1.00422
1.0056
1.0053
1.00386
1.00231
1.0013
1.00069
1.00034
1.00016
1.00007
1.00002
0.383017
0.384071
0.385707
0.459363
0.511586
0.50652
0.508015
0.549024
0.687018
0.839617
0.919713
0.963046
0.986795
0.998982
1.00423
1.00561
1.0053
1.00386
1.00231
1.0013
1.00069
1.00034
1.00016
1.00007
1.00002
0.383059
0.384275
0.386143
0.460235
0.5124
0.507469
0.508865
0.549318
0.68671
0.83948
0.919638
0.962998
0.986765
0.998965
1.00422
1.0056
1.0053
1.00385
1.00231
1.0013
1.00069
1.00034
1.00016
1.00007
1.00002
0.383057
0.384273
0.38614
0.460231
0.512396
0.507463
0.508859
0.549305
0.686694
0.839473
0.919635
0.962996
0.986764
0.998965
1.00422
1.0056
1.0053
1.00385
1.00231
1.0013
1.00069
1.00034
1.00016
1.00007
1.00002
0.383011
0.384066
0.385702
0.459355
0.511582
0.506516
0.508011
0.549014
0.687003
0.83961
0.919709
0.963043
0.986793
0.998981
1.00423
1.00561
1.0053
1.00386
1.00231
1.0013
1.00069
1.00034
1.00016
1.00007
1.00002
0.383054
0.38427
0.386138
0.460226
0.512391
0.507457
0.508852
0.549295
0.68668
0.839465
0.919631
0.962994
0.986763
0.998964
1.00422
1.0056
1.0053
1.00386
1.00231
1.0013
1.00069
1.00034
1.00016
1.00007
1.00002
0.383055
0.384273
0.386143
0.460227
0.512385
0.507461
0.508865
0.549322
0.686715
0.839478
0.919633
0.962992
0.98676
0.998962
1.00422
1.0056
1.00529
1.00385
1.00231
1.0013
1.00069
1.00034
1.00016
1.00007
1.00002
0.382992
0.384092
0.385768
0.459441
0.511626
0.506562
0.508059
0.549023
0.686994
0.839624
0.919719
0.963047
0.986794
0.998981
1.00423
1.00561
1.0053
1.00386
1.00231
1.0013
1.00069
1.00034
1.00016
1.00007
1.00002
0.383053
0.384252
0.386102
0.460187
0.512366
0.507435
0.508833
0.549311
0.686708
0.83946
0.919623
0.96299
0.986762
0.998964
1.00422
1.0056
1.0053
1.00386
1.00231
1.0013
1.00069
1.00034
1.00016
1.00007
1.00002
0.38299