/*--------------------------------*- C++ -*----------------------------------*\
| =========                 |                                                 |
| \\      /  F ield         | OpenFOAM: The Open Source CFD Toolbox           |
|  \\    /   O peration     | Version:  4.1                                   |
|   \\  /    A nd           | Web:      www.OpenFOAM.org                      |
|    \\/     M anipulation  |                                                 |
\*---------------------------------------------------------------------------*/
FoamFile
{
    version     2.0;
    format      ascii;
    class       volScalarField;
    location    "9.7";
    object      Ma;
}
// * * * * * * * * * * * * * * * * * * * * * * * * * * * * * * * * * * * * * //

dimensions      [0 0 0 0 0 0 0];

internalField   nonuniform List<scalar> 
52500
(
3.00001
2.99995
2.99988
2.99957
2.99915
2.99742
2.99495
2.9853
2.96998
2.91853
2.8077
2.54106
1.91162
0.996345
0.404654
0.325638
0.343902
0.341954
0.310646
0.258919
0.208569
0.166718
0.125148
0.0789798
0.0454558
3.00001
2.99995
2.99988
2.99958
2.99916
2.99744
2.995
2.98543
2.97027
2.91926
2.80964
2.54523
1.9198
1.00681
0.411736
0.32721
0.345894
0.344527
0.313611
0.262731
0.213572
0.173098
0.133646
0.0926486
0.0687557
3.00001
2.99996
2.99988
2.99959
2.99917
2.99749
2.9951
2.98569
2.97088
2.92074
2.81369
2.55388
1.93741
1.0299
0.427861
0.33161
0.351309
0.351409
0.321558
0.27275
0.226416
0.189454
0.155185
0.123111
0.107926
3.00001
2.99996
2.99989
2.9996
2.9992
2.99757
2.99525
2.98613
2.9718
2.92309
2.81941
2.56744
1.96277
1.06383
0.45053
0.336425
0.358277
0.360989
0.333156
0.287645
0.245524
0.213449
0.18528
0.161059
0.151046
3.00001
2.99996
2.99989
2.99962
2.99924
2.99768
2.99546
2.98675
2.97304
2.92641
2.82653
2.58621
1.99536
1.10855
0.479454
0.341482
0.366638
0.372976
0.347813
0.306482
0.269248
0.242618
0.220653
0.202816
0.196412
3.00001
2.99996
2.9999
2.99964
2.99928
2.99782
2.99573
2.98755
2.9746
2.93065
2.8354
2.60945
2.03745
1.16812
0.516186
0.347704
0.376953
0.387819
0.365553
0.329298
0.297509
0.276505
0.260712
0.24905
0.246468
3.00002
2.99997
2.99991
2.99967
2.99934
2.99799
2.99606
2.98864
2.97642
2.93643
2.84617
2.63714
2.0872
1.24219
0.558578
0.353681
0.388338
0.40453
0.385687
0.354773
0.329539
0.315013
0.306104
0.301504
0.304711
3.00002
2.99997
2.99992
2.9997
2.9994
2.99816
2.9964
2.98959
2.97845
2.94172
2.85966
2.66652
2.15937
1.33991
0.613305
0.365688
0.404378
0.425334
0.409473
0.384015
0.365104
0.357758
0.356974
0.361861
0.37603
3.00002
2.99998
2.99993
2.99973
2.99945
2.99832
2.99672
2.99029
2.98059
2.94618
2.87727
2.69968
2.25355
1.46656
0.682142
0.388598
0.428328
0.45154
0.437664
0.417933
0.405584
0.405386
0.41435
0.434246
0.472206
3.00002
2.99998
2.99994
2.99977
2.99952
2.99854
2.99711
2.99157
2.98294
2.95287
2.89371
2.73498
2.35264
1.60419
0.764044
0.429564
0.465436
0.485
0.472779
0.457416
0.450609
0.457151
0.480156
0.527974
0.630413
2.99999
2.99994
2.99986
2.99955
2.99913
2.9974
2.99493
2.98527
2.96995
2.91849
2.80763
2.54094
1.91139
0.99602
0.404375
0.325468
0.343716
0.341743
0.310404
0.258626
0.208211
0.166272
0.124561
0.0780669
0.0438631
2.99999
2.99994
2.99986
2.99956
2.99914
2.99742
2.99498
2.9854
2.97024
2.91922
2.80957
2.54511
1.91958
1.00649
0.411463
0.32704
0.345709
0.344319
0.313375
0.26245
0.213235
0.172688
0.133118
0.0918885
0.0677177
2.99999
2.99994
2.99986
2.99957
2.99915
2.99747
2.99508
2.98567
2.97085
2.9207
2.81363
2.55376
1.93719
1.02959
0.427594
0.331439
0.351125
0.351207
0.321334
0.272492
0.226113
0.189094
0.154743
0.122545
0.107265
2.99999
2.99994
2.99987
2.99958
2.99918
2.99755
2.99523
2.9861
2.97177
2.92305
2.81936
2.56731
1.9626
1.06357
0.450317
0.336293
0.358125
0.360817
0.332963
0.287422
0.245262
0.213143
0.184919
0.160631
0.150573
2.99999
2.99994
2.99988
2.9996
2.99922
2.99766
2.99544
2.98673
2.97302
2.92637
2.82648
2.58609
1.9952
1.1083
0.479253
0.341356
0.366499
0.372823
0.347644
0.306287
0.269021
0.242359
0.220357
0.20248
0.19605
3
2.99995
2.99988
2.99962
2.99926
2.99779
2.99571
2.98752
2.97457
2.93059
2.83536
2.60934
2.03731
1.16788
0.516002
0.347585
0.376823
0.387679
0.365401
0.329126
0.297312
0.276285
0.260467
0.248782
0.246184
3
2.99995
2.99989
2.99965
2.99932
2.99797
2.99604
2.98862
2.97639
2.93639
2.84611
2.63703
2.08704
1.24193
0.558395
0.353556
0.388207
0.404395
0.385545
0.354617
0.329365
0.314825
0.305901
0.301288
0.304487
3
2.99996
2.9999
2.99968
2.99938
2.99814
2.99637
2.98956
2.97842
2.94168
2.85961
2.66642
2.15918
1.33962
0.613117
0.365551
0.404242
0.4252
0.409337
0.383871
0.364949
0.357596
0.356805
0.361687
0.375855
3
2.99996
2.99991
2.99971
2.99943
2.9983
2.9967
2.99027
2.98057
2.94613
2.87722
2.69958
2.25338
1.46626
0.681962
0.388454
0.428186
0.451404
0.43753
0.417796
0.405444
0.405245
0.41421
0.434107
0.472074
3
2.99997
2.99992
2.99975
2.9995
2.99852
2.99709
2.99155
2.98291
2.95284
2.89367
2.73488
2.35246
1.60388
0.763861
0.429404
0.465284
0.484866
0.472647
0.457284
0.450479
0.457025
0.480037
0.527866
0.630323
2.99999
2.99994
2.99986
2.99955
2.99913
2.9974
2.99493
2.98527
2.96995
2.91849
2.80763
2.54093
1.91138
0.996
0.404365
0.325469
0.343716
0.341742
0.310403
0.258625
0.208209
0.166271
0.12456
0.078066
0.0438625
2.99999
2.99994
2.99986
2.99956
2.99914
2.99742
2.99498
2.9854
2.97024
2.91921
2.80957
2.5451
1.91956
1.00647
0.411452
0.327042
0.345709
0.344318
0.313373
0.262448
0.213234
0.172687
0.133117
0.0918878
0.067717
2.99999
2.99994
2.99986
2.99957
2.99915
2.99747
2.99508
2.98567
2.97085
2.92069
2.81363
2.55376
1.93718
1.02956
0.427583
0.33144
0.351125
0.351206
0.321333
0.272491
0.226112
0.189093
0.154743
0.122545
0.107264
2.99999
2.99994
2.99987
2.99958
2.99918
2.99755
2.99523
2.9861
2.97177
2.92305
2.81936
2.56731
1.96259
1.06356
0.450307
0.336295
0.358125
0.360817
0.332962
0.287421
0.245262
0.213142
0.184919
0.16063
0.150572
2.99999
2.99994
2.99988
2.9996
2.99922
2.99766
2.99544
2.98673
2.97301
2.92637
2.82648
2.58608
1.99519
1.10828
0.479244
0.341359
0.3665
0.372822
0.347643
0.306287
0.269021
0.242358
0.220357
0.20248
0.196049
3
2.99995
2.99988
2.99962
2.99926
2.99779
2.99571
2.98752
2.97457
2.93059
2.83536
2.60933
2.03729
1.16785
0.515992
0.347588
0.376824
0.387678
0.365401
0.329126
0.297312
0.276284
0.260466
0.248781
0.246183
3
2.99995
2.99989
2.99965
2.99932
2.99797
2.99604
2.98862
2.97639
2.93639
2.84611
2.63702
2.08702
1.24191
0.558385
0.353559
0.388208
0.404395
0.385545
0.354616
0.329365
0.314824
0.305901
0.301287
0.304486
3
2.99996
2.9999
2.99968
2.99938
2.99814
2.99637
2.98956
2.97842
2.94168
2.8596
2.66641
2.15916
1.33959
0.613105
0.365552
0.404242
0.425199
0.409336
0.38387
0.364949
0.357595
0.356804
0.361686
0.375854
3
2.99996
2.99991
2.99971
2.99943
2.9983
2.9967
2.99027
2.98057
2.94613
2.87722
2.69958
2.25336
1.46623
0.681948
0.388452
0.428183
0.451402
0.437528
0.417794
0.405442
0.405244
0.414209
0.434106
0.472073
3
2.99997
2.99992
2.99975
2.9995
2.99852
2.99709
2.99155
2.98291
2.95283
2.89366
2.73487
2.35244
1.60384
0.763845
0.429399
0.465278
0.484862
0.472643
0.457281
0.450477
0.457023
0.480036
0.527865
0.630322
2.99999
2.99994
2.99986
2.99955
2.99913
2.9974
2.99493
2.98527
2.96995
2.91849
2.80763
2.54093
1.91138
0.995997
0.404363
0.32547
0.343716
0.341742
0.310402
0.258624
0.208209
0.166271
0.124559
0.0780659
0.0438625
2.99999
2.99994
2.99986
2.99956
2.99914
2.99742
2.99498
2.9854
2.97024
2.91921
2.80957
2.5451
1.91956
1.00647
0.411451
0.327042
0.345709
0.344317
0.313373
0.262448
0.213234
0.172687
0.133117
0.0918877
0.0677169
2.99999
2.99994
2.99986
2.99957
2.99915
2.99747
2.99508
2.98567
2.97085
2.92069
2.81362
2.55376
1.93718
1.02956
0.427582
0.33144
0.351125
0.351206
0.321332
0.27249
0.226112
0.189093
0.154743
0.122545
0.107264
2.99999
2.99994
2.99987
2.99958
2.99918
2.99755
2.99523
2.9861
2.97177
2.92305
2.81936
2.5673
1.96259
1.06355
0.450306
0.336296
0.358126
0.360816
0.332962
0.287421
0.245261
0.213142
0.184919
0.16063
0.150572
2.99999
2.99994
2.99988
2.9996
2.99922
2.99766
2.99544
2.98673
2.97301
2.92637
2.82648
2.58608
1.99519
1.10828
0.479242
0.34136
0.3665
0.372822
0.347643
0.306287
0.269021
0.242358
0.220356
0.202479
0.196049
3
2.99995
2.99988
2.99962
2.99926
2.99779
2.99571
2.98752
2.97457
2.93059
2.83536
2.60933
2.03729
1.16785
0.51599
0.347588
0.376824
0.387678
0.365401
0.329126
0.297312
0.276284
0.260466
0.248781
0.246183
3
2.99995
2.99989
2.99965
2.99932
2.99797
2.99604
2.98862
2.97639
2.93639
2.84611
2.63702
2.08702
1.24191
0.558383
0.353559
0.388208
0.404394
0.385545
0.354616
0.329365
0.314824
0.305901
0.301287
0.304485
3
2.99996
2.9999
2.99968
2.99938
2.99814
2.99637
2.98956
2.97842
2.94168
2.8596
2.66641
2.15915
1.33959
0.613103
0.365553
0.404242
0.425199
0.409336
0.38387
0.364949
0.357595
0.356804
0.361686
0.375854
3
2.99996
2.99991
2.99971
2.99943
2.9983
2.9967
2.99027
2.98057
2.94613
2.87722
2.69957
2.25336
1.46623
0.681946
0.388452
0.428183
0.451401
0.437528
0.417794
0.405442
0.405244
0.414209
0.434106
0.472073
3
2.99997
2.99992
2.99975
2.9995
2.99852
2.99709
2.99155
2.98291
2.95283
2.89366
2.73487
2.35244
1.60384
0.763843
0.429398
0.465277
0.484861
0.472643
0.45728
0.450477
0.457023
0.480036
0.527864
0.630322
2.99999
2.99994
2.99986
2.99955
2.99913
2.9974
2.99493
2.98527
2.96995
2.91849
2.80762
2.54093
1.91138
0.995995
0.404362
0.32547
0.343716
0.341741
0.310402
0.258624
0.208209
0.166271
0.124559
0.0780658
0.0438624
2.99999
2.99994
2.99986
2.99956
2.99914
2.99742
2.99498
2.9854
2.97024
2.91921
2.80957
2.5451
1.91956
1.00647
0.41145
0.327042
0.345709
0.344317
0.313372
0.262447
0.213234
0.172687
0.133117
0.0918876
0.0677168
2.99999
2.99994
2.99986
2.99957
2.99915
2.99747
2.99508
2.98567
2.97085
2.92069
2.81362
2.55375
1.93717
1.02956
0.42758
0.331441
0.351125
0.351206
0.321332
0.27249
0.226112
0.189093
0.154743
0.122544
0.107264
2.99999
2.99994
2.99987
2.99958
2.99918
2.99755
2.99523
2.9861
2.97177
2.92305
2.81936
2.5673
1.96259
1.06355
0.450305
0.336296
0.358126
0.360816
0.332962
0.28742
0.245261
0.213142
0.184919
0.16063
0.150572
2.99999
2.99994
2.99988
2.9996
2.99922
2.99766
2.99544
2.98673
2.97301
2.92637
2.82648
2.58608
1.99518
1.10828
0.479241
0.34136
0.3665
0.372822
0.347643
0.306286
0.26902
0.242358
0.220356
0.202479
0.196049
3
2.99995
2.99988
2.99962
2.99926
2.99779
2.99571
2.98752
2.97457
2.93059
2.83535
2.60933
2.03729
1.16785
0.515989
0.347588
0.376824
0.387678
0.365401
0.329125
0.297312
0.276284
0.260466
0.248781
0.246182
3
2.99995
2.99989
2.99965
2.99932
2.99797
2.99604
2.98862
2.97639
2.93639
2.84611
2.63702
2.08702
1.2419
0.558382
0.353559
0.388208
0.404394
0.385545
0.354616
0.329365
0.314824
0.3059
0.301287
0.304485
3
2.99996
2.9999
2.99968
2.99938
2.99814
2.99637
2.98956
2.97842
2.94168
2.8596
2.66641
2.15915
1.33959
0.613102
0.365553
0.404242
0.425199
0.409336
0.38387
0.364948
0.357595
0.356804
0.361686
0.375853
3
2.99996
2.99991
2.99971
2.99943
2.9983
2.9967
2.99027
2.98057
2.94613
2.87722
2.69957
2.25335
1.46623
0.681944
0.388452
0.428182
0.451401
0.437528
0.417794
0.405442
0.405244
0.414208
0.434106
0.472073
3
2.99997
2.99992
2.99975
2.9995
2.99852
2.99709
2.99155
2.98291
2.95283
2.89366
2.73487
2.35244
1.60384
0.763841
0.429397
0.465277
0.484861
0.472642
0.45728
0.450476
0.457023
0.480035
0.527864
0.630322
2.99999
2.99994
2.99986
2.99955
2.99913
2.9974
2.99493
2.98527
2.96995
2.91849
2.80762
2.54093
1.91138
0.995995
0.404362
0.32547
0.343716
0.341741
0.310402
0.258624
0.208209
0.166271
0.124559
0.0780657
0.0438624
2.99999
2.99994
2.99986
2.99956
2.99914
2.99742
2.99498
2.9854
2.97024
2.91921
2.80957
2.5451
1.91956
1.00646
0.411449
0.327042
0.345709
0.344317
0.313372
0.262447
0.213234
0.172687
0.133117
0.0918876
0.0677168
2.99999
2.99994
2.99986
2.99957
2.99915
2.99747
2.99508
2.98567
2.97085
2.92069
2.81362
2.55375
1.93717
1.02956
0.42758
0.331441
0.351125
0.351205
0.321332
0.27249
0.226112
0.189093
0.154742
0.122544
0.107264
2.99999
2.99994
2.99987
2.99958
2.99918
2.99755
2.99523
2.9861
2.97177
2.92305
2.81936
2.5673
1.96259
1.06355
0.450305
0.336296
0.358126
0.360816
0.332962
0.28742
0.245261
0.213142
0.184919
0.16063
0.150572
2.99999
2.99994
2.99988
2.9996
2.99922
2.99766
2.99544
2.98673
2.97301
2.92637
2.82648
2.58608
1.99518
1.10828
0.479241
0.34136
0.3665
0.372822
0.347643
0.306286
0.26902
0.242358
0.220356
0.202479
0.196049
3
2.99995
2.99988
2.99962
2.99926
2.99779
2.99571
2.98752
2.97457
2.93059
2.83535
2.60933
2.03729
1.16785
0.515989
0.347589
0.376824
0.387678
0.365401
0.329125
0.297312
0.276284
0.260466
0.248781
0.246182
3
2.99995
2.99989
2.99965
2.99932
2.99797
2.99604
2.98862
2.97639
2.93639
2.84611
2.63702
2.08702
1.2419
0.558382
0.353559
0.388208
0.404394
0.385545
0.354616
0.329365
0.314824
0.3059
0.301287
0.304485
3
2.99996
2.9999
2.99968
2.99938
2.99814
2.99637
2.98956
2.97842
2.94168
2.8596
2.66641
2.15915
1.33959
0.613101
0.365553
0.404242
0.425199
0.409336
0.38387
0.364948
0.357595
0.356804
0.361686
0.375853
3
2.99996
2.99991
2.99971
2.99943
2.9983
2.9967
2.99027
2.98057
2.94613
2.87722
2.69957
2.25335
1.46623
0.681944
0.388452
0.428182
0.451401
0.437528
0.417794
0.405442
0.405244
0.414208
0.434106
0.472073
3
2.99997
2.99992
2.99975
2.9995
2.99852
2.99709
2.99155
2.98291
2.95283
2.89366
2.73487
2.35244
1.60384
0.763841
0.429397
0.465277
0.484861
0.472642
0.45728
0.450476
0.457023
0.480035
0.527864
0.630322
2.99999
2.99994
2.99986
2.99955
2.99913
2.9974
2.99493
2.98527
2.96995
2.91849
2.80763
2.54093
1.91138
0.995996
0.404363
0.32547
0.343716
0.341741
0.310402
0.258624
0.208209
0.166271
0.124559
0.0780658
0.0438624
2.99999
2.99994
2.99986
2.99956
2.99914
2.99742
2.99498
2.9854
2.97024
2.91921
2.80957
2.5451
1.91956
1.00647
0.41145
0.327042
0.345709
0.344317
0.313373
0.262448
0.213234
0.172687
0.133117
0.0918876
0.0677168
2.99999
2.99994
2.99986
2.99957
2.99915
2.99747
2.99508
2.98567
2.97085
2.92069
2.81362
2.55375
1.93717
1.02956
0.427581
0.331441
0.351125
0.351206
0.321332
0.27249
0.226112
0.189093
0.154743
0.122544
0.107264
2.99999
2.99994
2.99987
2.99958
2.99918
2.99755
2.99523
2.9861
2.97177
2.92305
2.81936
2.5673
1.96259
1.06355
0.450305
0.336296
0.358126
0.360816
0.332962
0.287421
0.245261
0.213142
0.184919
0.16063
0.150572
2.99999
2.99994
2.99988
2.9996
2.99922
2.99766
2.99544
2.98673
2.97301
2.92637
2.82648
2.58608
1.99518
1.10828
0.479242
0.34136
0.3665
0.372822
0.347643
0.306286
0.26902
0.242358
0.220356
0.202479
0.196049
3
2.99995
2.99988
2.99962
2.99926
2.99779
2.99571
2.98752
2.97457
2.93059
2.83535
2.60933
2.03729
1.16785
0.51599
0.347588
0.376824
0.387678
0.365401
0.329126
0.297312
0.276284
0.260466
0.248781
0.246182
3
2.99995
2.99989
2.99965
2.99932
2.99797
2.99604
2.98862
2.97639
2.93639
2.84611
2.63702
2.08702
1.2419
0.558383
0.353559
0.388208
0.404394
0.385545
0.354616
0.329365
0.314824
0.3059
0.301287
0.304485
3
2.99996
2.9999
2.99968
2.99938
2.99814
2.99637
2.98956
2.97842
2.94168
2.8596
2.66641
2.15915
1.33959
0.613102
0.365553
0.404242
0.425199
0.409336
0.38387
0.364948
0.357595
0.356804
0.361686
0.375853
3
2.99996
2.99991
2.99971
2.99943
2.9983
2.9967
2.99027
2.98057
2.94613
2.87722
2.69957
2.25336
1.46623
0.681945
0.388452
0.428182
0.451401
0.437528
0.417794
0.405442
0.405244
0.414208
0.434106
0.472073
3
2.99997
2.99992
2.99975
2.9995
2.99852
2.99709
2.99155
2.98291
2.95283
2.89366
2.73487
2.35244
1.60384
0.763842
0.429397
0.465277
0.484861
0.472643
0.45728
0.450476
0.457023
0.480035
0.527864
0.630322
2.99999
2.99994
2.99986
2.99955
2.99913
2.9974
2.99493
2.98527
2.96995
2.91849
2.80763
2.54093
1.91138
0.996
0.404364
0.325469
0.343716
0.341742
0.310402
0.258625
0.208209
0.166271
0.12456
0.078066
0.0438625
2.99999
2.99994
2.99986
2.99956
2.99914
2.99742
2.99498
2.9854
2.97024
2.91921
2.80957
2.5451
1.91956
1.00647
0.411452
0.327042
0.345709
0.344318
0.313373
0.262448
0.213234
0.172687
0.133117
0.0918878
0.0677169
2.99999
2.99994
2.99986
2.99957
2.99915
2.99747
2.99508
2.98567
2.97085
2.92069
2.81363
2.55376
1.93718
1.02956
0.427583
0.33144
0.351125
0.351206
0.321333
0.272491
0.226112
0.189093
0.154743
0.122545
0.107264
2.99999
2.99994
2.99987
2.99958
2.99918
2.99755
2.99523
2.9861
2.97177
2.92305
2.81936
2.56731
1.96259
1.06356
0.450307
0.336295
0.358125
0.360817
0.332962
0.287421
0.245261
0.213142
0.184919
0.16063
0.150572
2.99999
2.99994
2.99988
2.9996
2.99922
2.99766
2.99544
2.98673
2.97301
2.92637
2.82648
2.58608
1.99519
1.10828
0.479244
0.341359
0.3665
0.372822
0.347643
0.306287
0.269021
0.242358
0.220357
0.20248
0.196049
3
2.99995
2.99988
2.99962
2.99926
2.99779
2.99571
2.98752
2.97457
2.93059
2.83536
2.60933
2.03729
1.16785
0.515992
0.347588
0.376824
0.387678
0.365401
0.329126
0.297312
0.276284
0.260466
0.248781
0.246183
3
2.99995
2.99989
2.99965
2.99932
2.99797
2.99604
2.98862
2.97639
2.93639
2.84611
2.63702
2.08702
1.24191
0.558385
0.353559
0.388208
0.404394
0.385545
0.354616
0.329365
0.314824
0.305901
0.301287
0.304486
3
2.99996
2.9999
2.99968
2.99938
2.99814
2.99637
2.98956
2.97842
2.94168
2.8596
2.66641
2.15916
1.33959
0.613104
0.365552
0.404242
0.425199
0.409336
0.38387
0.364949
0.357595
0.356804
0.361686
0.375854
3
2.99996
2.99991
2.99971
2.99943
2.9983
2.9967
2.99027
2.98057
2.94613
2.87722
2.69958
2.25336
1.46623
0.681948
0.388452
0.428183
0.451402
0.437528
0.417794
0.405442
0.405244
0.414209
0.434106
0.472073
3
2.99997
2.99992
2.99975
2.9995
2.99852
2.99709
2.99155
2.98291
2.95283
2.89366
2.73487
2.35244
1.60384
0.763845
0.429399
0.465278
0.484862
0.472643
0.457281
0.450477
0.457023
0.480036
0.527864
0.630322
2.99999
2.99994
2.99986
2.99955
2.99913
2.9974
2.99493
2.98527
2.96995
2.91849
2.80763
2.54094
1.9114
0.99602
0.404375
0.325468
0.343716
0.341743
0.310404
0.258626
0.208211
0.166272
0.124561
0.0780669
0.0438632
2.99999
2.99994
2.99986
2.99956
2.99914
2.99742
2.99498
2.9854
2.97024
2.91922
2.80957
2.54511
1.91958
1.00649
0.411463
0.32704
0.345709
0.344319
0.313375
0.26245
0.213235
0.172688
0.133118
0.0918885
0.0677177
2.99999
2.99994
2.99986
2.99957
2.99915
2.99747
2.99508
2.98567
2.97085
2.9207
2.81363
2.55376
1.93719
1.02959
0.427594
0.331439
0.351125
0.351207
0.321334
0.272492
0.226113
0.189094
0.154743
0.122545
0.107265
2.99999
2.99994
2.99987
2.99958
2.99918
2.99755
2.99523
2.9861
2.97177
2.92305
2.81936
2.56731
1.9626
1.06357
0.450317
0.336292
0.358125
0.360817
0.332963
0.287422
0.245262
0.213143
0.184919
0.160631
0.150573
2.99999
2.99994
2.99988
2.9996
2.99922
2.99766
2.99544
2.98673
2.97302
2.92637
2.82648
2.58609
1.9952
1.1083
0.479253
0.341356
0.366499
0.372823
0.347644
0.306287
0.269021
0.242359
0.220357
0.20248
0.19605
3
2.99995
2.99988
2.99962
2.99926
2.99779
2.99571
2.98752
2.97457
2.93059
2.83536
2.60934
2.03731
1.16788
0.516002
0.347585
0.376823
0.387679
0.365401
0.329126
0.297312
0.276285
0.260467
0.248782
0.246184
3
2.99995
2.99989
2.99965
2.99932
2.99797
2.99604
2.98862
2.97639
2.93639
2.84611
2.63703
2.08704
1.24193
0.558395
0.353556
0.388207
0.404395
0.385545
0.354617
0.329365
0.314825
0.305901
0.301288
0.304487
3
2.99996
2.9999
2.99968
2.99938
2.99814
2.99637
2.98956
2.97842
2.94168
2.85961
2.66642
2.15918
1.33962
0.613117
0.365551
0.404242
0.4252
0.409337
0.383871
0.364949
0.357596
0.356805
0.361687
0.375855
3
2.99996
2.99991
2.99971
2.99943
2.9983
2.9967
2.99027
2.98057
2.94613
2.87722
2.69958
2.25338
1.46627
0.681962
0.388454
0.428186
0.451404
0.43753
0.417796
0.405444
0.405245
0.41421
0.434107
0.472074
3
2.99997
2.99992
2.99975
2.9995
2.99852
2.99709
2.99155
2.98291
2.95284
2.89367
2.73488
2.35246
1.60388
0.763861
0.429404
0.465284
0.484866
0.472647
0.457284
0.450479
0.457025
0.480037
0.527866
0.630323
3.00001
2.99995
2.99988
2.99957
2.99915
2.99742
2.99495
2.9853
2.96998
2.91853
2.8077
2.54106
1.91162
0.996346
0.404654
0.325638
0.343902
0.341954
0.310646
0.258919
0.208569
0.166718
0.125148
0.0789799
0.0454558
3.00001
2.99995
2.99988
2.99958
2.99916
2.99744
2.995
2.98543
2.97027
2.91926
2.80964
2.54523
1.9198
1.00681
0.411736
0.32721
0.345894
0.344528
0.313612
0.262731
0.213572
0.173099
0.133647
0.0926487
0.0687557
3.00001
2.99996
2.99988
2.99959
2.99917
2.99749
2.9951
2.98569
2.97088
2.92074
2.81369
2.55388
1.93741
1.02991
0.427862
0.33161
0.351309
0.351409
0.321558
0.272751
0.226416
0.189454
0.155185
0.123111
0.107926
3.00001
2.99996
2.99989
2.9996
2.9992
2.99757
2.99525
2.98613
2.9718
2.92309
2.81941
2.56744
1.96277
1.06383
0.450531
0.336425
0.358277
0.360989
0.333157
0.287646
0.245524
0.213449
0.18528
0.161059
0.151047
3.00001
2.99996
2.99989
2.99962
2.99924
2.99768
2.99546
2.98675
2.97304
2.92641
2.82653
2.58621
1.99536
1.10856
0.479455
0.341482
0.366638
0.372976
0.347813
0.306482
0.269248
0.242618
0.220653
0.202816
0.196412
3.00001
2.99996
2.9999
2.99964
2.99928
2.99782
2.99573
2.98755
2.9746
2.93065
2.8354
2.60945
2.03745
1.16812
0.516187
0.347704
0.376953
0.387819
0.365553
0.329298
0.297509
0.276505
0.260712
0.24905
0.246469
3.00002
2.99997
2.99991
2.99967
2.99934
2.99799
2.99606
2.98864
2.97642
2.93643
2.84617
2.63714
2.0872
1.2422
0.558579
0.353681
0.388338
0.40453
0.385687
0.354773
0.329539
0.315013
0.306104
0.301504
0.304711
3.00002
2.99997
2.99992
2.9997
2.9994
2.99816
2.9964
2.98959
2.97845
2.94172
2.85966
2.66652
2.15937
1.33991
0.613305
0.365688
0.404378
0.425334
0.409473
0.384015
0.365104
0.357758
0.356974
0.361861
0.37603
3.00002
2.99998
2.99993
2.99973
2.99945
2.99832
2.99672
2.99029
2.98059
2.94618
2.87727
2.69968
2.25355
1.46656
0.682142
0.388598
0.428328
0.45154
0.437664
0.417933
0.405584
0.405386
0.41435
0.434246
0.472206
3.00002
2.99998
2.99994
2.99977
2.99952
2.99854
2.99711
2.99157
2.98294
2.95287
2.89371
2.73498
2.35264
1.6042
0.764044
0.429564
0.465436
0.485
0.472779
0.457416
0.450609
0.457151
0.480156
0.527974
0.630413
3.00001
3
2.99994
2.99985
2.99951
2.999
2.99707
2.99408
2.98375
2.96364
2.90737
2.76415
2.46689
1.77642
0.876719
0.486054
0.508873
0.521677
0.51433
0.501946
0.499448
0.513689
0.554635
0.639591
0.807808
3.00002
3
2.99995
2.99987
2.99955
2.99911
2.99731
2.99475
2.98469
2.96883
2.91559
2.80154
2.52645
1.8942
1.00261
0.555045
0.540761
0.551191
0.553098
0.54657
0.549065
0.571185
0.625068
0.724178
0.887855
3.00002
3
2.99996
2.99989
2.99962
2.99924
2.99768
2.99548
2.98678
2.97325
2.92689
2.82929
2.59093
2.01485
1.15054
0.63684
0.560762
0.574288
0.585694
0.587806
0.596632
0.624928
0.68283
0.774736
0.907132
3.00002
3.00001
2.99997
2.99991
2.99969
2.99937
2.99809
2.99624
2.98924
2.9775
2.93992
2.85393
2.65687
2.12906
1.31974
0.722303
0.574137
0.591398
0.610191
0.623493
0.63915
0.670752
0.725216
0.804288
0.912882
3.00002
3.00001
2.99998
2.99993
2.99974
2.99947
2.99839
2.99682
2.9907
2.98121
2.94827
2.88144
2.70932
2.28386
1.50671
0.831577
0.601498
0.615461
0.635262
0.654101
0.675094
0.70725
0.758331
0.824978
0.91364
3.00002
3.00001
3
2.99993
2.99985
2.9995
2.99899
2.99706
2.99401
2.9837
2.96304
2.90682
2.76197
2.46489
1.77879
0.975324
0.659745
0.657698
0.670762
0.688749
0.707966
0.737048
0.782581
0.841997
0.914468
3.00002
3.00001
3
2.99995
2.99987
2.99957
2.99916
2.99744
2.99503
2.98543
2.97064
2.92003
2.81476
2.55561
1.9593
1.11766
0.719725
0.692905
0.705437
0.721492
0.739022
0.763473
0.801131
0.85266
0.914899
3.00002
3.00002
3.00001
2.99997
2.99991
2.99968
2.99935
2.99806
2.99613
2.98907
2.97673
2.9384
2.8488
2.64593
2.11284
1.3021
0.813213
0.715915
0.728032
0.743078
0.762245
0.785179
0.816087
0.859373
0.912167
3.00002
3.00002
3.00001
2.99999
2.99992
2.99981
2.9994
2.99879
2.99658
2.99266
2.98066
2.95304
2.88603
2.69935
2.33683
1.52574
0.937608
0.744866
0.745
0.75932
0.779584
0.801693
0.828678
0.864061
0.906136
3.00002
3.00002
3.00001
3
2.99994
2.99985
2.99952
2.99904
2.99714
2.99434
2.98393
2.96611
2.91145
2.78491
2.50051
1.87625
1.0927
0.797313
0.772954
0.780774
0.797809
0.817026
0.839887
0.866405
0.898073
3.00003
3.00002
3.00002
3
2.99997
2.99987
2.99971
2.99911
2.99822
2.99489
2.98944
2.97149
2.93359
2.83748
2.58665
2.08941
1.22684
0.851452
0.788322
0.79703
0.811372
0.82895
0.846202
0.864861
0.888774
3.00003
3.00002
3.00002
3.00001
2.99999
2.9999
2.99978
2.99932
2.99864
2.99604
2.99197
2.97808
2.95013
2.87507
2.67856
2.28902
1.47572
0.963991
0.81097
0.808515
0.818374
0.832867
0.845495
0.859233
0.878289
3.00003
3.00003
3.00002
3.00001
2.99999
2.99995
2.9998
2.99958
2.99873
2.99747
2.99272
2.98508
2.95937
2.9093
2.77221
2.46153
1.79646
1.10084
0.848085
0.821043
0.824131
0.831204
0.839417
0.851113
0.868172
3.00003
3.00003
3.00002
3.00002
3
2.99997
2.99985
2.99969
2.99904
2.9981
2.99444
2.98887
2.96895
2.93253
2.82912
2.58501
2.05495
1.24823
0.892296
0.823528
0.819931
0.821906
0.829278
0.841285
0.858357
3.00003
3.00003
3.00003
3.00002
3.00001
2.99997
2.99992
2.99972
2.99943
2.9983
2.99659
2.99042
2.97968
2.94642
2.86979
2.69419
2.23831
1.48738
0.974842
0.818483
0.802056
0.804004
0.813834
0.829318
0.848424
3.00003
3.00003
3.00003
3.00002
3.00001
2.99999
2.99995
2.99979
2.99957
2.99867
2.99738
2.99238
2.9847
2.95763
2.90752
2.76495
2.45084
1.77602
1.082
0.818517
0.78305
0.787167
0.800031
0.819148
0.841008
3.00003
3.00003
3.00003
3.00002
3.00002
3
2.99995
2.99988
2.9996
2.99919
2.99761
2.99524
2.98647
2.97172
2.92461
2.81973
2.57611
2.00404
1.20053
0.813842
0.75127
0.76185
0.779822
0.805578
0.83305
3.00003
3.00003
3.00003
3.00003
3.00002
3.00001
2.99997
2.99992
2.9997
2.99938
2.99814
2.9963
2.98952
2.97778
2.94113
2.85612
2.66203
2.15131
1.36319
0.840292
0.701471
0.719906
0.747848
0.785172
0.821756
3.00003
3.00003
3.00003
3.00003
3.00002
3.00001
2.99999
2.99993
2.99982
2.99944
2.99885
2.9968
2.99298
2.98173
2.95503
2.89124
2.71123
2.36195
1.58398
0.898984
0.656975
0.678648
0.716676
0.765796
0.808927
3.00003
3.00003
3.00003
3.00003
3.00002
3.00002
2.99999
2.99995
2.9998
2.99959
2.99874
2.99749
2.99271
2.98511
2.95889
2.90847
2.76921
2.44469
1.76983
0.933452
0.615457
0.63428
0.681481
0.738427
0.788831
3.00003
3.00003
3.00003
3.00003
3.00002
3.00002
3
2.99997
2.99984
2.99967
2.99897
2.99794
2.99407
2.98763
2.96627
2.92025
2.80407
2.50087
1.89924
0.975235
0.584062
0.579496
0.6341
0.697574
0.754622
3.00003
3.00003
3.00003
3.00003
3.00003
3.00002
3.00001
2.99996
2.99989
2.99963
2.99924
2.99773
2.99546
2.9871
2.97257
2.92673
2.82073
2.5794
1.97998
1.11231
0.596209
0.527178
0.582272
0.653027
0.715485
3.00003
3.00003
3.00003
3.00003
3.00003
3.00002
3.00001
2.99997
2.99991
2.99967
2.99933
2.99796
2.996
2.98833
2.97592
2.93409
2.84193
2.62325
2.06645
1.21863
0.609765
0.470609
0.531532
0.61194
0.677041
3.00003
3.00003
3.00003
3.00003
3.00003
3.00002
3.00001
2.99997
2.99992
2.99971
2.99941
2.99818
2.99642
2.9896
2.9784
2.9414
2.85799
2.66201
2.14344
1.32425
0.627981
0.418553
0.490721
0.580046
0.642125
3.00003
3.00003
3.00003
3.00003
3.00003
3.00002
3.00001
2.99998
2.99993
2.99975
2.99948
2.99841
2.99681
2.99088
2.98062
2.94803
2.87254
2.6952
2.22381
1.42786
0.654428
0.380877
0.466075
0.561358
0.617416
3.00003
3.00003
3.00003
3.00003
3.00003
3.00002
3.00001
3
2.99993
2.99983
2.99947
2.9989
2.99693
2.99311
2.98213
2.95528
2.89189
2.70807
2.35172
1.53468
0.713065
0.378615
0.468519
0.561188
0.608682
3.00003
3.00003
3.00003
3.00003
3.00003
3.00002
3.00002
2.99999
2.99995
2.9998
2.99957
2.99871
2.99737
2.99251
2.984
2.95696
2.896
2.74744
2.36708
1.63584
0.727043
0.356258
0.45536
0.547758
0.594619
3.00003
3.00003
3.00003
3.00003
3.00003
3.00002
3.00001
3
2.99994
2.99985
2.99951
2.99901
2.99707
2.99404
2.98352
2.96281
2.9047
2.75525
2.444
1.72122
0.783759
0.359475
0.448667
0.532653
0.581434
3.00003
3.00003
3.00003
3.00003
3.00003
3.00002
3.00001
3
2.99994
2.99986
2.99954
2.99906
2.9972
2.99436
2.98411
2.96529
2.90901
2.77054
2.46853
1.76493
0.827895
0.371906
0.440181
0.513439
0.569693
3.00003
3.00003
3.00003
3.00003
3.00003
3.00002
3.00002
3
2.99997
2.99984
2.99966
2.99895
2.99784
2.99396
2.98654
2.9646
2.91152
2.78773
2.4486
1.79735
0.816262
0.369136
0.418474
0.487183
0.551315
3.00003
3.00003
3.00003
3.00003
3.00003
3.00002
3.00002
3
2.99995
2.99988
2.99959
2.99915
2.9975
2.9948
2.98577
2.96728
2.91605
2.78495
2.50183
1.82337
0.899208
0.40644
0.423534
0.483697
0.547423
3.00003
3.00003
3.00003
3.00003
3.00003
3.00002
3.00002
3
2.99997
2.99985
2.99968
2.999
2.99797
2.9942
2.98752
2.96663
2.91779
2.80216
2.47929
1.8724
0.874242
0.400419
0.403473
0.466142
0.532316
3.00003
3.00003
3.00003
3.00003
3.00003
3.00002
3.00002
3
2.99997
2.99986
2.99969
2.99904
2.99805
2.99441
2.98796
2.96776
2.92048
2.80825
2.49277
1.89839
0.892765
0.403963
0.389939
0.451199
0.517826
3.00003
3.00003
3.00003
3.00003
3.00003
3.00003
3.00002
3.00001
2.99996
2.99989
2.99962
2.99922
2.99769
2.99523
2.98677
2.96995
2.92177
2.80186
2.53578
1.89133
0.99052
0.447945
0.411972
0.464755
0.525916
3.00003
3.00003
3.00003
3.00003
3.00003
3.00002
3.00002
3
2.99998
2.99987
2.99972
2.99913
2.99816
2.99493
2.9882
2.96985
2.92307
2.81799
2.50718
1.94157
0.935609
0.430828
0.388735
0.448469
0.513854
3.00003
3.00003
3.00003
3.00003
3.00003
3.00003
3.00002
3.00001
2.99996
2.9999
2.99964
2.99925
2.9978
2.99541
2.98733
2.97094
2.92491
2.80897
2.5548
1.92158
1.03002
0.468567
0.408018
0.459762
0.519972
3.00003
3.00003
3.00003
3.00003
3.00003
3.00002
3.00002
3
2.99997
2.99987
2.99971
2.9991
2.99817
2.9948
2.98871
2.97007
2.92577
2.8214
2.52255
1.97096
0.970589
0.45186
0.384854
0.44245
0.506816
3.00003
3.00003
3.00003
3.00003
3.00003
3.00002
3.00002
3
2.99997
2.99987
2.99972
2.99911
2.99819
2.99488
2.98884
2.97055
2.92681
2.82414
2.52839
1.98338
0.984391
0.459673
0.383454
0.440661
0.505238
3.00003
3.00003
3.00003
3.00003
3.00003
3.00003
3.00002
3.00001
2.99996
2.99989
2.99963
2.99925
2.99772
2.99543
2.98697
2.97208
2.92529
2.81568
2.56581
1.95059
1.06485
0.484091
0.398485
0.45108
0.511083
3.00003
3.00003
3.00003
3.00003
3.00003
3.00003
3.00002
3.00001
2.99996
2.99989
2.99961
2.99923
2.99763
2.99537
2.98636
2.97223
2.9237
2.82014
2.56789
1.96199
1.07235
0.481521
0.392387
0.446449
0.506798
3
2.99998
2.99992
2.99983
2.99949
2.99898
2.99705
2.99406
2.98372
2.96361
2.90733
2.76408
2.46676
1.77623
0.876527
0.485904
0.508747
0.521564
0.514206
0.501821
0.499326
0.513574
0.554533
0.639508
0.807754
3
2.99998
2.99993
2.99985
2.99953
2.99909
2.99729
2.99473
2.98467
2.9688
2.91555
2.80147
2.52634
1.894
1.00235
0.554865
0.540659
0.551088
0.552987
0.546454
0.54895
0.571078
0.624976
0.724104
0.887804
3
2.99999
2.99994