/*--------------------------------*- C++ -*----------------------------------*\
| =========                 |                                                 |
| \\      /  F ield         | OpenFOAM: The Open Source CFD Toolbox           |
|  \\    /   O peration     | Version:  4.1                                   |
|   \\  /    A nd           | Web:      www.OpenFOAM.org                      |
|    \\/     M anipulation  |                                                 |
\*---------------------------------------------------------------------------*/
FoamFile
{
    version     2.0;
    format      ascii;
    class       volScalarField;
    location    "0.86";
    object      Ma;
}
// * * * * * * * * * * * * * * * * * * * * * * * * * * * * * * * * * * * * * //

dimensions      [0 0 0 0 0 0 0];

internalField   nonuniform List<scalar> 
18000
(
5.15853e-12
5.1018e-12
5.0334e-12
4.97761e-12
4.92224e-12
4.86754e-12
4.81339e-12
4.76037e-12
4.70813e-12
4.65776e-12
6.42e-12
6.20019e-12
5.97698e-12
5.7724e-12
5.57659e-12
5.3886e-12
5.20809e-12
5.03511e-12
4.86845e-12
4.71252e-12
8.08214e-12
7.60436e-12
7.14766e-12
6.73051e-12
6.34188e-12
5.98032e-12
5.64426e-12
5.32997e-12
5.03723e-12
4.76849e-12
1.02994e-11
9.41505e-12
8.61064e-12
7.88838e-12
7.23924e-12
6.65402e-12
6.12518e-12
5.64671e-12
5.21282e-12
4.82538e-12
1.33e-11
1.17765e-11
1.04515e-11
9.29787e-12
8.29613e-12
7.42217e-12
6.65755e-12
5.98702e-12
5.3963e-12
4.88346e-12
1.74206e-11
1.48933e-11
1.27911e-11
1.10247e-11
9.54609e-12
8.30094e-12
7.24783e-12
6.35279e-12
5.58775e-12
4.9425e-12
2.31596e-11
1.90661e-11
1.57917e-11
1.31558e-11
1.10326e-11
9.31014e-12
7.90305e-12
6.74608e-12
5.78819e-12
5.00248e-12
3.1431e-11
2.49078e-11
1.99192e-11
1.60908e-11
1.31439e-11
1.08552e-11
9.06261e-12
7.64797e-12
6.52246e-12
5.65617e-12
5.63001e-09
5.7465e-09
5.42363e-09
5.12798e-09
4.85986e-09
4.61621e-09
4.3942e-09
4.19134e-09
4.00601e-09
3.93931e-09
6.24974e-07
6.64978e-08
5.68664e-08
4.98042e-08
4.38435e-08
3.87904e-08
3.44908e-08
3.08215e-08
2.75761e-08
1.13279e-07
5.55735e-12
5.49249e-12
5.42011e-12
5.35684e-12
5.29482e-12
5.23392e-12
5.17285e-12
5.11395e-12
5.05569e-12
4.99896e-12
6.97678e-12
6.72591e-12
6.48126e-12
6.24972e-12
6.02885e-12
5.81698e-12
5.61505e-12
5.42125e-12
5.2359e-12
5.0604e-12
8.86234e-12
8.31289e-12
7.8068e-12
7.33114e-12
6.8911e-12
6.48294e-12
6.10517e-12
5.75329e-12
5.42595e-12
5.12429e-12
1.14145e-11
1.03905e-11
9.48356e-12
8.65391e-12
7.91262e-12
7.24796e-12
6.65103e-12
6.11349e-12
5.62675e-12
5.18874e-12
1.49274e-11
1.31447e-11
1.16237e-11
1.02838e-11
9.12891e-12
8.12938e-12
7.26045e-12
6.50282e-12
5.83878e-12
5.25604e-12
1.98514e-11
1.68464e-11
1.43859e-11
1.23061e-11
1.05837e-11
9.14715e-12
7.94283e-12
6.92643e-12
6.06349e-12
5.32565e-12
2.68774e-11
2.1909e-11
1.79919e-11
1.48374e-11
1.23348e-11
1.03284e-11
8.7067e-12
7.38647e-12
6.30031e-12
5.3974e-12
3.71575e-11
2.89416e-11
2.27608e-11
1.80394e-11
1.44606e-11
1.17104e-11
9.57358e-12
7.89391e-12
6.5581e-12
5.4793e-12
2.35998e-10
5.43883e-10
4.49804e-10
3.73146e-10
3.12836e-10
2.64709e-10
2.2589e-10
1.94269e-10
1.68317e-10
1.4947e-10
4.4078e-07
6.43578e-08
5.63711e-08
4.95888e-08
4.39362e-08
3.91837e-08
3.5154e-08
3.17111e-08
2.87608e-08
2.77835e-08
5.62703e-13
5.41975e-13
4.33493e-13
4.18778e-13
4.04967e-13
3.92532e-13
3.81151e-13
3.7131e-13
3.6235e-13
3.52571e-13
7.79957e-13
7.10828e-13
6.43097e-13
5.92023e-13
5.45665e-13
5.04283e-13
4.66862e-13
4.34206e-13
4.06687e-13
3.66303e-13
1.00177e-12
8.8316e-13
8.5266e-13
7.65207e-13
6.87216e-13
6.18818e-13
5.59768e-13
5.09126e-13
4.63682e-13
3.85094e-13
1.36832e-12
1.19685e-12
1.17118e-12
1.02158e-12
8.92159e-13
7.82716e-13
6.90218e-13
6.12205e-13
5.43751e-13
4.11646e-13
1.95228e-12
1.70691e-12
1.6292e-12
1.37712e-12
1.16678e-12
9.95284e-13
8.54533e-13
7.38706e-13
6.39499e-13
4.45543e-13
2.88963e-12
2.51501e-12
2.28665e-12
1.86406e-12
1.52885e-12
1.26502e-12
1.05616e-12
8.89562e-13
7.49982e-13
4.85509e-13
4.41292e-12
3.77932e-12
3.23573e-12
2.53276e-12
2.00306e-12
1.60409e-12
1.29938e-12
1.06462e-12
8.7491e-13
5.31699e-13
7.02869e-12
5.77155e-12
4.61818e-12
3.45507e-12
2.62572e-12
2.02885e-12
1.59158e-12
1.26652e-12
1.01396e-12
5.8296e-13
3.71298e-10
2.40671e-11
1.93753e-11
1.41122e-11
1.05058e-11
7.97155e-12
6.15507e-12
4.83119e-12
3.84862e-12
3.03802e-12
3.76729e-07
6.25444e-09
4.64146e-09
3.57541e-09
2.79702e-09
2.21823e-09
1.78109e-09
1.44627e-09
1.18707e-09
1.01359e-09
3.82882e-13
3.59995e-13
1.72116e-13
1.51632e-13
1.31331e-13
1.12233e-13
9.43816e-14
7.79787e-14
6.34905e-14
3.79855e-14
5.31162e-13
4.59552e-13
3.85937e-13
3.36289e-13
2.89651e-13
2.4803e-13
2.11314e-13
1.79538e-13
1.52962e-13
7.98445e-14
5.95692e-13
4.89986e-13
5.23575e-13
4.56361e-13
3.96025e-13
3.44724e-13
3.02142e-13
2.68133e-13
2.39106e-13
1.19692e-13
7.30773e-13
6.36752e-13
7.60809e-13
6.59048e-13
5.69821e-13
4.96135e-13
4.35448e-13
3.86174e-13
3.43233e-13
1.71029e-13
9.61918e-13
9.47021e-13
1.10838e-12
9.4382e-13
8.03877e-13
6.90041e-13
5.97388e-13
5.22235e-13
4.56368e-13
2.24302e-13
1.35114e-12
1.49031e-12
1.61192e-12
1.33749e-12
1.11183e-12
9.33519e-13
7.90862e-13
6.77383e-13
5.79389e-13
2.80798e-13
1.99742e-12
2.36962e-12
2.34196e-12
1.87887e-12
1.51553e-12
1.23754e-12
1.02137e-12
8.52907e-13
7.12367e-13
3.405e-13
3.24513e-12
3.77266e-12
3.40406e-12
2.6251e-12
2.0439e-12
1.61656e-12
1.29556e-12
1.05185e-12
8.56411e-13
4.03364e-13
4.18014e-10
7.64386e-12
4.81621e-12
3.57193e-12
2.69092e-12
2.06472e-12
1.60899e-12
1.27316e-12
1.01169e-12
4.71728e-13
3.7392e-07
1.96965e-09
2.013e-10
1.34477e-10
9.23231e-11
6.47764e-11
4.63472e-11
3.37657e-11
2.50223e-11
1.89572e-11
3.82571e-13
3.59231e-13
1.71896e-13
1.51253e-13
1.30848e-13
1.11681e-13
9.41112e-14
7.76327e-14
6.27764e-14
3.69061e-14
5.30965e-13
4.59306e-13
3.85973e-13
3.36425e-13
2.89809e-13
2.47844e-13
2.11091e-13
1.79628e-13
1.5282e-13
7.92276e-14
5.95413e-13
4.89775e-13
5.24069e-13
4.56775e-13
3.9611e-13
3.44935e-13
3.02232e-13
2.67956e-13
2.38771e-13
1.1921e-13
7.3016e-13
6.36736e-13
7.61479e-13
6.59778e-13
5.70395e-13
4.96548e-13
4.35865e-13
3.86466e-13
3.43291e-13
1.70245e-13
9.60177e-13
9.47244e-13
1.11015e-12
9.45245e-13
8.05098e-13
6.91325e-13
5.98056e-13
5.22304e-13
4.56718e-13
2.24287e-13
1.34605e-12
1.49123e-12
1.61437e-12
1.34027e-12
1.11411e-12
9.3552e-13
7.92654e-13
6.78512e-13
5.80364e-13
2.81052e-13
1.98436e-12
2.37199e-12
2.34728e-12
1.88365e-12
1.51994e-12
1.24132e-12
1.02435e-12
8.55156e-13
7.14547e-13
3.41564e-13
3.22702e-12
3.77797e-12
3.41378e-12
2.63396e-12
2.05169e-12
1.62311e-12
1.30083e-12
1.05619e-12
8.59814e-13
4.0549e-13
4.43723e-10
8.49354e-12
4.98937e-12
3.67171e-12
2.74957e-12
2.09922e-12
1.62901e-12
1.28449e-12
1.01784e-12
4.7264e-13
3.96951e-07
2.15274e-09
1.87721e-11
6.61766e-12
4.46666e-12
3.15073e-12
2.29101e-12
1.71065e-12
1.29485e-12
6.41413e-13
3.82605e-13
3.58891e-13
1.72395e-13
1.51784e-13
1.3118e-13
1.11908e-13
9.41206e-14
7.79439e-14
6.31719e-14
3.6809e-14
5.31847e-13
4.59759e-13
3.87187e-13
3.37458e-13
2.9076e-13
2.48545e-13
2.11488e-13
1.7987e-13
1.53424e-13
7.97588e-14
5.97278e-13
4.91562e-13
5.26415e-13
4.58651e-13
3.97862e-13
3.46156e-13
3.03122e-13
2.68589e-13
2.39287e-13
1.19772e-13
7.34011e-13
6.40781e-13
7.65328e-13
6.62872e-13
5.72954e-13
4.98464e-13
4.37177e-13
3.87606e-13
3.44012e-13
1.70724e-13
9.6758e-13
9.54775e-13
1.11634e-12
9.50242e-13
8.09042e-13
6.9466e-13
6.00718e-13
5.24414e-13
4.58169e-13
2.25209e-13
1.35974e-12
1.50458e-12
1.62512e-12
1.34842e-12
1.12046e-12
9.40796e-13
7.96874e-13
6.81516e-13
5.82855e-13
2.82739e-13
2.00983e-12
2.39502e-12
2.36557e-12
1.89757e-12
1.53057e-12
1.24988e-12
1.03108e-12
8.60285e-13
7.18452e-13
3.44265e-13
3.28153e-12
3.81943e-12
3.44537e-12
2.65731e-12
2.06915e-12
1.63662e-12
1.31153e-12
1.06427e-12
8.65869e-13
4.09492e-13
4.72529e-10
8.81549e-12
5.05035e-12
3.71316e-12
2.77922e-12
2.12115e-12
1.64535e-12
1.29659e-12
1.02711e-12
4.78872e-13
4.32799e-07
2.31981e-09
1.8576e-11
5.17483e-12
3.69786e-12
2.72476e-12
2.04744e-12
1.56708e-12
1.20788e-12
5.59755e-13
3.82558e-13
3.58629e-13
1.72948e-13
1.52429e-13
1.31773e-13
1.12503e-13
9.46172e-14
7.82407e-14
6.43722e-14
5.10423e-14
5.32821e-13
4.60374e-13
3.88831e-13
3.38727e-13
2.91873e-13
2.49625e-13
2.12432e-13
1.8055e-13
1.53847e-13
8.43055e-14
5.99526e-13
4.9361e-13
5.29103e-13
4.61017e-13
3.99745e-13
3.47743e-13
3.04201e-13
2.69471e-13
2.40247e-13
1.22383e-13
7.38541e-13
6.45419e-13
7.69612e-13
6.66604e-13
5.76113e-13
5.01039e-13
4.39012e-13
3.88816e-13
3.45549e-13
1.73075e-13
9.76251e-13
9.63418e-13
1.12342e-12
9.55996e-13
8.13662e-13
6.98675e-13
6.04089e-13
5.27033e-13
4.60304e-13
2.27882e-13
1.37619e-12
1.51948e-12
1.63731e-12
1.35824e-12
1.12797e-12
9.4706e-13
8.02308e-13
6.85851e-13
5.86057e-13
2.86112e-13
2.03999e-12
2.42113e-12
2.3859e-12
1.91365e-12
1.54305e-12
1.26002e-12
1.03948e-12
8.67013e-13
7.23655e-13
3.48893e-13
3.31929e-12
3.8654e-12
3.48082e-12
2.684e-12
2.08944e-12
1.65237e-12
1.3246e-12
1.07498e-12
8.73951e-13
4.15656e-13
4.75112e-10
8.63607e-12
5.11041e-12
3.75812e-12
2.8125e-12
2.1465e-12
1.66558e-12
1.31181e-12
1.03906e-12
4.8776e-13
4.53683e-07
2.27998e-09
1.73723e-11
5.22536e-12
3.74336e-12
2.7597e-12
2.07507e-12
1.58799e-12
1.22417e-12
5.71089e-13
3.82527e-13
3.57475e-13
1.7312e-13
1.52684e-13
1.32765e-13
1.15652e-13
1.05345e-13
1.79656e-13
6.25942e-13
1.72723e-12
5.33118e-13
4.59734e-13
3.89341e-13
3.39469e-13
2.93077e-13
2.51894e-13
2.17371e-13
2.11868e-13
4.02392e-13
1.13614e-12
6.00399e-13
4.93401e-13
5.29898e-13
4.61925e-13
4.01132e-13
3.50253e-13
3.09265e-13
2.84e-13
3.46579e-13
7.59373e-13
7.40577e-13
6.45587e-13
7.70615e-13
6.67805e-13
5.77645e-13
5.03596e-13
4.44413e-13
3.99174e-13
3.95007e-13
5.52463e-13
9.79762e-13
9.63769e-13
1.12447e-12
9.57426e-13
8.15571e-13
7.01193e-13
6.09434e-13
5.36769e-13
4.90864e-13
4.529e-13
1.38114e-12
1.51984e-12
1.63847e-12
1.36025e-12
1.13074e-12
9.50872e-13
8.08918e-13
6.971e-13
6.10081e-13
4.2494e-13
2.0463e-12
2.4216e-12
2.38771e-12
1.91689e-12
1.54727e-12
1.26572e-12
1.04779e-12
8.79722e-13
7.45845e-13
4.41613e-13
3.21221e-12
3.86587e-12
3.48437e-12
2.69009e-12
2.0966e-12
1.66031e-12
1.33463e-12
1.09045e-12
8.97395e-13
4.84023e-13
3.17989e-10
6.94548e-12
5.10739e-12
3.76877e-12
2.82401e-12
2.15862e-12
1.68012e-12
1.3315e-12
1.06395e-12
5.42973e-13
3.55381e-07
1.15345e-09
1.03396e-11
5.20704e-12
3.759e-12
2.7768e-12
2.09468e-12
1.61223e-12
1.25229e-12
6.19991e-13
4.09486e-13
4.47226e-13
2.48999e-13
1.55983e-13
2.44511e-13
6.77165e-13
1.54985e-12
6.21726e-12
2.37112e-11
5.29396e-11
5.87009e-13
6.18266e-13
4.89212e-13
3.65938e-13
3.03362e-13
5.86965e-13
1.19088e-12
3.89543e-12
1.41e-11
3.50394e-11
7.07309e-13
7.72006e-13
6.9088e-13
5.33433e-13
3.95412e-13
5.00372e-13
1.04179e-12
2.66363e-12
9.05597e-12
2.32249e-11
9.1852e-13
1.04434e-12
9.89045e-13
7.83438e-13
5.90444e-13
5.34945e-13
9.66457e-13
1.98341e-12
6.26037e-12
1.58871e-11
1.25529e-12
1.46914e-12
1.39837e-12
1.11552e-12
8.58688e-13
6.86759e-13
8.86356e-13
1.6702e-12
4.61091e-12
1.12128e-11
1.784e-12
2.11974e-12
1.96575e-12
1.55469e-12
1.20063e-12
9.31303e-13
9.2016e-13
1.58054e-12
3.58219e-12
8.14535e-12
2.60719e-12
3.11816e-12
2.76302e-12
2.14003e-12
1.63748e-12
1.25058e-12
1.06409e-12
1.44704e-12
2.9137e-12
6.07534e-12
3.81386e-12
4.65129e-12
3.89702e-12
2.92835e-12
2.1953e-12
1.64955e-12
1.30494e-12
1.41093e-12
2.46694e-12
4.644e-12
2.05604e-10
6.42528e-12
5.52564e-12
4.0045e-12
2.91514e-12
2.14099e-12
1.62537e-12
1.48633e-12
2.16188e-12
3.63393e-12
9.7111e-08
2.57369e-09
1.08568e-11
5.36939e-12
3.82552e-12
2.73762e-12
2.01452e-12
1.65688e-12
1.97987e-12
2.91821e-12
2.50338e-12
2.34671e-12
1.4976e-12
1.69686e-13
2.7398e-12
9.16964e-12
2.98707e-11
1.29041e-10
3.65457e-10
4.79994e-10
3.528e-12
3.39528e-12
2.5065e-12
1.12438e-12
1.3675e-12
6.48506e-12
2.0891e-11
7.86586e-11
2.23037e-10
3.06923e-10
4.79443e-12
4.64666e-12
3.66591e-12
2.26778e-12
2.30037e-13
4.21024e-12
1.4641e-11
5.12065e-11
1.43022e-10
2.10707e-10
6.45787e-12
6.21739e-12
5.05273e-12
3.53553e-12
1.37312e-12
2.34556e-12
1.02013e-11
3.49227e-11
9.57038e-11
1.49761e-10
8.69187e-12
8.22288e-12
6.73868e-12
4.99906e-12
2.76897e-12
7.74506e-13
7.0036e-12
2.43625e-11
6.62614e-11
1.09026e-10
1.17476e-11
1.0829e-11
8.82462e-12
6.70527e-12
4.25859e-12
1.10939e-12
4.49612e-12
1.71197e-11
4.71393e-11
8.09508e-11
1.60142e-11
1.42925e-11
1.14547e-11
8.7344e-12
5.92627e-12
2.63977e-12
2.45309e-12
1.21975e-11
3.42747e-11
6.10986e-11
2.21394e-11
1.89848e-11
1.48233e-11
1.11896e-11
7.80498e-12
4.23456e-12
9.99669e-13
8.56699e-12
2.53074e-11
4.67732e-11
6.31629e-10
2.56721e-11
1.9224e-11
1.42121e-11
9.96693e-12
5.94225e-12
1.66022e-12
5.77137e-12
1.88795e-11
3.62212e-11
9.60974e-07
3.70092e-09
2.70457e-11
1.79985e-11
1.24766e-11
7.77614e-12
3.17753e-12
3.58126e-12
1.41315e-11
2.83065e-11
3.2943e-12
2.9632e-12
1.94801e-12
1.97458e-12
8.57951e-12
3.15335e-11
1.45618e-10
5.15021e-10
9.11485e-10
1.03472e-09
4.35803e-12
4.06108e-12
3.09011e-12
1.63389e-12
5.33522e-12
2.11268e-11
8.77902e-11
3.05831e-10
5.62862e-10
6.23358e-10
5.64767e-12
5.32933e-12
4.37597e-12
2.68933e-12
2.8695e-12
1.389e-11
5.584e-11
1.9067e-10
3.69515e-10
4.04362e-10
7.29435e-12
6.85975e-12
5.82408e-12
4.15819e-12
1.93948e-12
8.68526e-12
3.66434e-11
1.23802e-10
2.50514e-10
2.72196e-10
9.4473e-12
8.75697e-12
7.50758e-12
5.77608e-12
3.04948e-12
4.9743e-12
2.42212e-11
8.26474e-11
1.73902e-10
1.88163e-10
1.23342e-11
1.11648e-11
9.51834e-12
7.56595e-12
4.80556e-12
2.56274e-12
1.57225e-11
5.61203e-11
1.23033e-10
1.32901e-10
1.62966e-11
1.42917e-11
1.19812e-11
9.60703e-12
6.70212e-12
2.6903e-12
9.82789e-12
3.85964e-11
8.80979e-11
9.54662e-11
2.18815e-11
1.84422e-11
1.50688e-11
1.1993e-11
8.73235e-12
4.48971e-12
5.55438e-12
2.65627e-11
6.37281e-11
6.95125e-11
2.98185e-10
2.49352e-11
1.9024e-11
1.4851e-11
1.09721e-11
6.56745e-12
2.82626e-12
1.8041e-11
4.64087e-11
5.11004e-11
2.08841e-07
9.44197e-09
6.29582e-11
1.83165e-11
1.34787e-11
8.69242e-12
2.92558e-12
1.18159e-11
3.38721e-11
3.77808e-11
1.0349e-12
1.28548e-12
1.54107e-12
3.19089e-12
8.34705e-12
2.43599e-11
8.49593e-11
2.38301e-10
3.50265e-10
3.34818e-10
1.13374e-12
1.30087e-12
1.42655e-12
2.43514e-12
5.99076e-12
1.71565e-11
5.69062e-11
1.54257e-10
2.13195e-10
1.51594e-10
1.2381e-12
1.35928e-12
1.43998e-12
1.9806e-12
4.31729e-12
1.21372e-11
3.88725e-11
1.02656e-10
1.36092e-10
6.35925e-11
1.3491e-12
1.44829e-12
1.53065e-12
1.81524e-12
3.19711e-12
8.60729e-12
2.70819e-11
7.00105e-11
9.00533e-11
2.72133e-11
1.46845e-12
1.55753e-12
1.65971e-12
1.83335e-12
2.53318e-12
6.11786e-12
1.90284e-11
4.8839e-11
6.10563e-11
1.51135e-11
1.6067e-12
1.68471e-12
1.80582e-12
1.94059e-12
2.24518e-12
4.44625e-12
1.34409e-11
3.47035e-11
4.21404e-11
1.27934e-11
1.77106e-12
1.83291e-12
1.96126e-12
2.08884e-12
2.20731e-12
3.35997e-12
9.5141e-12
2.47994e-11
2.94303e-11
1.22805e-11
2.06083e-12
2.00609e-12
2.13078e-12
2.25342e-12
2.29647e-12
2.7706e-12
6.80758e-12
1.7844e-11
2.07179e-11
1.16883e-11
7.46358e-10
1.33384e-11
2.31199e-12
2.42727e-12
2.44484e-12
2.54384e-12
4.96233e-12
1.29099e-11
1.46434e-11
1.09235e-11
3.54325e-07
1.13115e-08
4.18372e-11
2.76587e-12
2.6134e-12
2.53307e-12
3.74471e-12
9.36316e-12
1.03189e-11
9.93932e-12
7.77134e-13
1.48057e-12
1.60401e-12
2.51508e-12
4.13158e-12
6.84626e-12
1.45961e-11
5.60813e-11
2.0732e-10
5.63336e-10
7.13341e-13
1.32989e-12
1.38766e-12
2.14048e-12
3.47427e-12
5.76356e-12
1.10348e-11
3.48806e-11
1.26189e-10
3.33358e-10
6.50579e-13
1.18844e-12
1.19493e-12
1.81294e-12
2.91396e-12
4.80506e-12
8.73487e-12
2.30377e-11
8.05717e-11
2.0706e-10
5.97693e-13
1.06713e-12
1.03398e-12
1.55197e-12
2.45579e-12
4.01868e-12
7.053e-12
1.61165e-11
5.34311e-11
1.34044e-10
5.51676e-13
9.63082e-13
8.97051e-13
1.32805e-12
2.07798e-12
3.38736e-12
5.7725e-12
1.18597e-11
3.65142e-11
8.96891e-11
5.12503e-13
8.74012e-13
7.82103e-13
1.14747e-12
1.78057e-12
2.86253e-12
4.78329e-12
9.07821e-12
2.55776e-11
6.16919e-11
4.78791e-13
7.97697e-13
6.84306e-13
9.94067e-13
1.52417e-12
2.42773e-12
4.01771e-12
7.16367e-12
1.83112e-11
4.3454e-11
8.48075e-13
7.32726e-13
6.02428e-13
8.64539e-13
1.31424e-12
2.07755e-12
3.40036e-12
5.79338e-12
1.33573e-11
3.12504e-11
1.10703e-09
3.77853e-11
6.03247e-13
7.53582e-13
1.13976e-12
1.78817e-12
2.89521e-12
4.77674e-12
9.91428e-12
2.29021e-11
3.52179e-07
3.5073e-08
2.3693e-10
2.63591e-12
9.5455e-13
1.53713e-12
2.46799e-12
3.98886e-12
7.45668e-12
1.7044e-11
1.04835e-12
1.83627e-12
1.63287e-12
2.16759e-12
3.01416e-12
4.36168e-12
6.72166e-12
1.24956e-11
4.98362e-11
1.75378e-10
9.75705e-13
1.68366e-12
1.46349e-12
1.93569e-12
2.66668e-12
3.79958e-12
5.69614e-12
9.98207e-12
3.50662e-11
1.05919e-10
9.05611e-13
1.53732e-12
1.3004e-12
1.7119e-12
2.34301e-12
3.30951e-12
4.83912e-12
7.91106e-12
2.4786e-11
6.77751e-11
8.44131e-13
1.4094e-12
1.16144e-12
1.51788e-12
2.06729e-12
2.89479e-12
4.16902e-12
6.3854e-12
1.78762e-11
4.53886e-11
7.90661e-13
1.29775e-12
1.04171e-12
1.35129e-12
1.8349e-12
2.54921e-12
3.63119e-12
5.3031e-12
1.30392e-11
3.14613e-11
7.44091e-13
1.2001e-12
9.37672e-13
1.20878e-12
1.63002e-12
2.25229e-12
3.19214e-12
4.51166e-12
9.60817e-12
2.24029e-11
7.03039e-13
1.11386e-12
8.47574e-13
1.08481e-12
1.45414e-12
2.00242e-12
2.82113e-12
3.90417e-12
7.13846e-12
1.62937e-11
1.2014e-12
1.03988e-12
7.69635e-13
9.76719e-13
1.30111e-12
1.78305e-12
2.50053e-12
3.41788e-12
5.35273e-12
1.20469e-11
1.59333e-09
6.68206e-11
7.89737e-13
8.80667e-13
1.16822e-12
1.59203e-12
2.22686e-12
3.01231e-12
4.05617e-12
9.01254e-12
4.31949e-07
6.14648e-08
5.76915e-10
3.1491e-12
9.88092e-13
1.42535e-12
1.98661e-12
2.66433e-12
3.08401e-12
6.80367e-12
1.44592e-12
2.3125e-12
1.64852e-12
1.89412e-12
2.27287e-12
2.81973e-12
3.77971e-12
5.75861e-12
1.34254e-11
2.82995e-11
1.36762e-12
2.1643e-12
1.53108e-12
1.76423e-12
2.11405e-12
2.59703e-12
3.34767e-12
4.73419e-12
1.07589e-11
2.08556e-11
1.28885e-12
2.01664e-12
1.40752e-12
1.62411e-12
1.94652e-12
2.37809e-12
2.99866e-12
3.97697e-12
8.39125e-12
1.55504e-11
1.21925e-12
1.88477e-12
1.29597e-12
1.49576e-12
1.79353e-12
2.18651e-12
2.72341e-12
3.44073e-12
6.49265e-12
1.17891e-11
1.15756e-12
1.7667e-12
1.19581e-12
1.37879e-12
1.65521e-12
2.0156e-12
2.49722e-12
3.05081e-12
5.00879e-12
9.05391e-12
1.10256e-12
1.66023e-12
1.1059e-12
1.27388e-12
1.52702e-12
1.86001e-12
2.29812e-12
2.75387e-12
3.85275e-12
7.00493e-12
1.05379e-12
1.56472e-12
1.02513e-12
1.17854e-12
1.41101e-12
1.71921e-12
2.12594e-12
2.51184e-12
2.95897e-12
5.44351e-12
1.60273e-12
1.48121e-12
9.52427e-13
1.09182e-12
1.30546e-12
1.5908e-12
1.96875e-12
2.31187e-12
2.26634e-12
4.24817e-12
1.96042e-09
9.67859e-11
1.02874e-12
1.01185e-12
1.20863e-12
1.47276e-12
1.82426e-12
2.1376e-12
1.72862e-12
3.32335e-12
3.52244e-07
8.43838e-08
9.10295e-10
3.34865e-12
1.04369e-12
1.36154e-12
1.68753e-12
1.97666e-12
1.30512e-12
2.59344e-12
2.02158e-12
2.91442e-12
1.61304e-12
1.5983e-12
1.65921e-12
1.799e-12
2.13713e-12
2.91693e-12
6.22973e-12
8.534e-12
1.93882e-12
2.78049e-12
1.55342e-12
1.55666e-12
1.62584e-12
1.74495e-12
1.98084e-12
2.48021e-12
5.07748e-12
7.04759e-12
1.85572e-12
2.64235e-12
1.47638e-12
1.49476e-12
1.57269e-12
1.68449e-12
1.86214e-12
2.1683e-12
4.02942e-12
5.73404e-12
1.78046e-12
2.51503e-12
1.40137e-12
1.43026e-12
1.51542e-12
1.62675e-12
1.77499e-12
1.96062e-12
3.17628e-12
4.6644e-12
1.71207e-12
2.39717e-12
1.32911e-12
1.36649e-12
1.45746e-12
1.56998e-12
1.704e-12
1.82187e-12
2.48496e-12
3.79075e-12
1.65058e-12
2.28883e-12
1.26084e-12
1.3032e-12
1.39742e-12
1.51361e-12
1.64596e-12
1.72193e-12
1.92752e-12
3.07668e-12
1.59452e-12
2.18883e-12
1.19669e-12
1.24192e-12
1.33718e-12
1.45606e-12
1.59055e-12
1.64679e-12
1.47212e-12
2.49304e-12
2.12957e-12
2.10057e-12
1.13624e-12
1.18315e-12
1.27898e-12
1.3981e-12
1.5342e-12
1.58598e-12
1.10416e-12
2.01283e-12
2.23651e-09
1.21161e-10
1.58083e-12
1.12643e-12
1.22177e-12
1.34123e-12
1.47836e-12
1.5325e-12
8.08862e-13
1.61633e-12
1.13699e-07
9.43281e-08
2.02545e-09
1.26815e-11
1.09251e-12
1.27985e-12
1.42039e-12
1.4768e-12
5.60564e-13
1.28437e-12
2.79623e-12
3.59628e-12
1.45964e-12
1.21344e-12
1.06505e-12
1.00357e-12
1.13254e-12
1.51743e-12
3.20748e-12
3.72438e-12
2.71579e-12
3.49167e-12
1.45722e-12
1.24684e-12
1.11756e-12
1.03608e-12
1.0741e-12
1.29807e-12
2.74609e-12
3.27679e-12
2.6334e-12
3.37855e-12
1.43363e-12
1.25604e-12
1.14872e-12
1.06573e-12
1.04982e-12
1.14419e-12
2.26015e-12
2.79813e-12
2.55742e-12
3.27007e-12
1.40217e-12
1.25306e-12
1.16661e-12
1.09212e-12
1.04999e-12
1.05309e-12
1.84278e-12
2.38581e-12
2.48729e-12
3.16744e-12
1.36755e-12
1.24255e-12
1.17469e-12
1.11187e-12
1.06031e-12
1.00955e-12
1.48412e-12
2.02948e-12
2.42215e-12
3.06929e-12
1.32983e-12
1.2255e-12
1.17457e-12
1.12562e-12
1.07651e-12
9.9457e-13
1.17526e-12
1.72017e-12
2.36204e-12
2.97696e-12
1.29079e-12
1.20374e-12
1.16813e-12
1.13328e-12
1.09207e-12
9.9515e-13
9.11849e-13
1.45226e-12
2.87421e-12
2.89448e-12
1.25153e-12
1.17964e-12
1.15613e-12
1.13407e-12
1.1037e-12
1.00487e-12
6.86887e-13
1.22216e-12
2.55576e-09
1.35438e-10
2.05418e-12
1.15435e-12
1.14056e-12
1.12977e-12
1.10974e-12
1.0167e-12
4.95027e-13
1.02441e-12
1.62037e-07
8.66513e-08
1.91149e-09
1.9914e-11
1.08541e-12
1.11726e-12
1.11049e-12
1.02514e-12
3.26334e-13
8.5805e-13
3.71487e-12
4.26063e-12
1.14742e-12
7.62349e-13
4.95481e-13
3.50646e-13
4.84329e-13
7.90483e-13
1.95267e-12
1.98847e-12
3.64225e-12
4.19578e-12
1.19085e-12
8.43658e-13
6.00058e-13
4.2117e-13
4.28234e-13
6.36565e-13
1.78918e-12
1.86626e-12
3.56924e-12
4.1242e-12
1.21187e-12
9.00952e-13
6.83901e-13
5.00033e-13
4.24261e-13
5.17403e-13
1.55428e-12
1.67167e-12
3.49985e-12
4.05089e-12
1.22204e-12
9.43732e-13
7.50162e-13
5.74356e-13
4.56717e-13
4.41619e-13
1.34522e-12
1.49658e-12
3.43418e-12
3.9785e-12
1.2233e-12
9.73966e-13
8.03237e-13
6.40076e-13
5.05644e-13
4.12824e-13
1.15811e-12
1.33871e-12
3.37304e-12
3.90731e-12
1.21803e-12
9.95469e-13
8.46249e-13
6.97989e-13
5.60343e-13
4.22223e-13
9.92902e-13
1.19749e-12
3.31499e-12
3.83761e-12
1.20802e-12
1.00941e-12
8.79163e-13
7.46742e-13
6.14112e-13
4.5533e-13
8.48981e-13
1.07249e-12
3.795e-12
3.77653e-12
1.1946e-12
1.01702e-12
9.04085e-13
7.87365e-13
6.63999e-13
5.00141e-13
7.26007e-13
9.6245e-13
2.8453e-09
1.35971e-10
2.51051e-12
1.02316e-12
9.2393e-13
8.20986e-13
7.0752e-13
5.4824e-13
6.23646e-13
8.67556e-13
4.63506e-07
5.71709e-08
1.65627e-09
2.52041e-11
9.77888e-13
8.46184e-13
7.45066e-13
5.92412e-13
5.42365e-13
7.89276e-13
4.60006e-12
4.77648e-12
7.36096e-13
4.96485e-13
2.72386e-13
1.50544e-13
2.65534e-13
4.81455e-13
1.41182e-12
1.25051e-12
4.53842e-12
4.75545e-12
7.81469e-13
5.35034e-13
3.1151e-13
1.24606e-13
1.62668e-13
3.78263e-13
1.40007e-12
1.26166e-12
4.47869e-12
4.72987e-12
8.14797e-13
5.7201e-13
3.60907e-13
1.63097e-13
7.57242e-14
2.78218e-13
1.29698e-12
1.18777e-12
4.4204e-12
4.69942e-12
8.4135e-13
6.04922e-13
4.1046e-13
2.21363e-13
4.61822e-14
1.85036e-13
1.2037e-12
1.11973e-12
4.36495e-12
4.66583e-12
8.61129e-13
6.35172e-13
4.57142e-13
2.81377e-13
1.09074e-13
1.00465e-13
1.11808e-12
1.057e-12
4.31122e-12
4.62949e-12
8.76157e-13
6.61127e-13
4.99674e-13
3.37589e-13
1.76673e-13
3.26912e-14
1.04017e-12
9.99786e-13
4.2603e-12
4.5927e-12
8.86874e-13
6.83537e-13
5.37629e-13
3.89392e-13
2.38921e-13
6.10729e-14
9.71188e-13
9.48295e-13
4.71193e-12
4.56211e-12
8.93225e-13
7.01501e-13
5.70949e-13
4.35664e-13
2.95577e-13
1.24514e-13
9.10006e-13
9.02216e-13
3.05149e-09
1.25161e-10
2.58431e-12
7.20002e-13
5.99659e-13
4.76309e-13
3.47153e-13
1.84924e-13
8.56673e-13
8.60643e-13
7.36403e-07
2.20269e-08
9.36719e-10
1.83226e-11
6.89248e-13
5.13354e-13
3.93847e-13
2.41663e-13
8.10711e-13
8.34665e-13
5.16738e-12
5.03993e-12
4.09091e-13
5.9069e-13
5.0944e-13
4.39655e-13
4.01352e-13
4.37816e-13
1.18761e-12
9.41332e-13
5.11287e-12
5.04657e-12
3.72225e-13
5.312e-13
4.56261e-13
3.92098e-13
3.55671e-13
4.01242e-13
1.24814e-12
1.01132e-12
5.06267e-12
5.0533e-12
3.49985e-13
4.7926e-13
4.0919e-13
3.4677e-13
3.12763e-13
3.59599e-13
1.20702e-12
9.89418e-13
5.01335e-12
5.05358e-12
3.41153e-13
4.34764e-13
3.68649e-13
3.0894e-13
2.74108e-13
3.20921e-13
1.16793e-12
9.67686e-13
4.96522e-12
5.04881e-12
3.44033e-13
3.99688e-13
3.37452e-13
2.78536e-13
2.41278e-13
2.85225e-13
1.13058e-12
9.47476e-13
4.91938e-12
5.04098e-12
3.53884e-13
3.72254e-13
3.12059e-13
2.53926e-13
2.14012e-13
2.53964e-13
1.09553e-12
9.28272e-13
4.87491e-12
5.03032e-12
3.67414e-13
3.51686e-13
2.9444e-13
2.36824e-13
1.93899e-13
2.25632e-13
1.06195e-12
9.10705e-13
5.31113e-12
5.02541e-12
3.82683e-13
3.36281e-13
2.82149e-13
2.25679e-13
1.78665e-13
2.02539e-13
1.03091e-12
8.92884e-13
3.15447e-09
1.14682e-10
2.38304e-12
3.25291e-13
2.74167e-13
2.20038e-13
1.71828e-13
1.84303e-13
9.99933e-13
8.76135e-13
9.04315e-07
2.89125e-08
7.95746e-10
1.43666e-11
2.77002e-13
2.21321e-13
1.74822e-13
1.77027e-13
9.71521e-13
9.11963e-13
5.17084e-12
5.01097e-12
3.82281e-13
6.14723e-13
5.3906e-13
4.65609e-13
4.13153e-13
4.29474e-13
1.12276e-12
8.99151e-13
5.11629e-12
5.01975e-12
3.18542e-13
5.46393e-13
4.82046e-13
4.17397e-13
3.72833e-13
4.01294e-13
1.19236e-12
9.72624e-13
5.06641e-12
5.02958e-12
2.71902e-13
4.84148e-13
4.28788e-13
3.71638e-13
3.32807e-13
3.64632e-13
1.15889e-12
9.54016e-13
5.0175e-12
5.03225e-12
2.44247e-13
4.28786e-13
3.80778e-13
3.30267e-13
2.96029e-13
3.31129e-13
1.12687e-12
9.35493e-13
4.97048e-12
5.0308e-12
2.36057e-13
3.82574e-13
3.40117e-13
2.94224e-13
2.62928e-13
2.9927e-13
1.09615e-12
9.18523e-13
4.92505e-12
5.02523e-12
2.4245e-13
3.43987e-13
3.06057e-13
2.63135e-13
2.33225e-13
2.69962e-13
1.06705e-12
9.02368e-13
4.88123e-12
5.01678e-12
2.5783e-13
3.11838e-13
2.77672e-13
2.37744e-13
2.08356e-13
2.43207e-13
1.03901e-12
8.87512e-13
5.31724e-12
5.01388e-12
2.7791e-13
2.86554e-13
2.55345e-13
2.17228e-13
1.86839e-13
2.19319e-13
1.0124e-12
8.7263e-13
3.15447e-09
1.14683e-10
2.36271e-12
2.65877e-13
2.36574e-13
2.01243e-13
1.7141e-13
1.98995e-13
9.86382e-13
8.58505e-13
9.04315e-07
2.89125e-08
7.95727e-10
1.43438e-11
2.12025e-13
1.9301e-13
1.65843e-13
1.87469e-13
9.61127e-13
9.09782e-13
4.60318e-12
4.69637e-12
6.4338e-13
5.09243e-13
3.33394e-13
2.26498e-13
2.61453e-13
4.20246e-13
1.18781e-12
1.11061e-12
4.54326e-12
4.68355e-12
6.74086e-13
5.17643e-13
3.36106e-13
1.93949e-13
1.82265e-13
3.39313e-13
1.20748e-12
1.13288e-12
4.48592e-12
4.66708e-12
7.0176e-13
5.33503e-13
3.56666e-13
1.97617e-13
1.18798e-13
2.55237e-13
1.13177e-12
1.07068e-12
4.43013e-12
4.64546e-12
7.25374e-13
5.51908e-13
3.85033e-13
2.25336e-13
9.08899e-14
1.77465e-13
1.06313e-12
1.01366e-12
4.37646e-12
4.61976e-12
7.46787e-13
5.71715e-13
4.16873e-13
2.64074e-13
1.15564e-13
1.1064e-13
1.00032e-12
9.61501e-13
4.32513e-12
4.59134e-12
7.64102e-13
5.91414e-13
4.49347e-13
3.06286e-13
1.62366e-13
6.48393e-14
9.43852e-13
9.15228e-13
4.27571e-12
4.56119e-12
7.78123e-13
6.09719e-13
4.80378e-13
3.48179e-13
2.12778e-13
7.35666e-14
8.93432e-13
8.73606e-13
4.72826e-12
4.53696e-12
7.88881e-13
6.2629e-13
5.09172e-13
3.87254e-13
2.61296e-13
1.17366e-13
8.49483e-13
8.36812e-13
3.0515e-09
1.25162e-10
2.53917e-12
6.42783e-13
5.34982e-13
4.24066e-13
3.07244e-13
1.67454e-13
8.11566e-13
8.05098e-13
7.36403e-07
2.20269e-08
9.36677e-10
1.82758e-11
6.15008e-13
4.57563e-13
3.49913e-13
2.17449e-13
7.79102e-13
7.98703e-13
3.7141e-12
4.15993e-12
1.00187e-12
6.56495e-13
3.95712e-13
2.19097e-13
3.31919e-13
6.06934e-13
1.46135e-12
1.67844e-12
3.64747e-12
4.11109e-12
1.05188e-12
7.34351e-13
4.98828e-13
3.08394e-13
2.90711e-13
4.83435e-13
1.36956e-12
1.58843e-12
3.58022e-12
4.05375e-12
1.08264e-12
7.94287e-13
5.83652e-13
3.97736e-13
3.03358e-13
3.84373e-13
1.19817e-12
1.4252e-12
3.51531e-12
3.99404e-12
1.10188e-12
8.39835e-13
6.52362e-13
4.77706e-13
3.49797e-13
3.24299e-13
1.04347e-12
1.2776e-12
3.45382e-12
3.9329e-12
1.11318e-12
8.76262e-13
7.09088e-13
5.47719e-13
4.08685e-13
3.1009e-13
9.05494e-13
1.14523e-12
3.39574e-12
3.87224e-12
1.11701e-12
9.02714e-13
7.55395e-13
6.09306e-13
4.70421e-13
3.31145e-13
7.8456e-13
1.02705e-12
3.34034e-12
3.81195e-12
1.11616e-12
9.22656e-13
7.92466e-13
6.61372e-13
5.2858e-13
3.73873e-13
6.80738e-13
9.24344e-13
3.82034e-12
3.75923e-12
1.11035e-12
9.36217e-13
8.2312e-13
7.05531e-13
5.82187e-13
4.24469e-13
5.94951e-13
8.34059e-13
2.8453e-09
1.35974e-10
2.46295e-12
9.48204e-13
8.46992e-13
7.42648e-13
6.2945e-13
4.76369e-13
5.26031e-13
7.58096e-13
4.63506e-07
5.71709e-08
1.65625e-09
2.51672e-11
9.04641e-13
7.71799e-13
6.69892e-13
5.24015e-13
4.75679e-13
7.01092e-13
2.79894e-12
3.50519e-12
1.29746e-12
1.03649e-12
8.75115e-13
7.89571e-13
8.61183e-13
1.1385e-12
2.14544e-12
2.97961e-12
2.72796e-12
3.42212e-12
1.31706e-12
1.08914e-12
9.44813e-13
8.45294e-13
8.45875e-13
9.97486e-13
1.86715e-12
2.645e-12
2.65319e-12
3.3275e-12
1.31311e-12
1.11732e-12
9.93534e-13
8.94969e-13
8.52987e-13
9.01852e-13
1.53821e-12
2.26298e-12
2.58255e-12
3.23488e-12
1.30007e-12
1.13104e-12
1.02724e-12
9.37565e-13
8.75028e-13
8.53495e-13
1.24714e-12
1.92999e-12
2.51694e-12
3.14499e-12
1.28016e-12
1.13609e-12
1.05e-12
9.72206e-13
9.04984e-13
8.37906e-13
9.96242e-13
1.63974e-12
2.45513e-12
3.0584e-12
1.25614e-12
1.13276e-12
1.06367e-12
9.99403e-13
9.36298e-13
8.43648e-13
7.79046e-13
1.3875e-12
2.39771e-12
2.97486e-12
1.22922e-12
1.12446e-12
1.06978e-12
1.01797e-12
9.63831e-13
8.60715e-13
5.90708e-13
1.16973e-12
2.90626e-12
2.90078e-12
1.20003e-12
1.11075e-12
1.07023e-12
1.03102e-12
9.85271e-13
8.8279e-13
4.27426e-13
9.82469e-13
2.55576e-09
1.35442e-10
2.01946e-12
1.09611e-12
1.06499e-12
1.03681e-12
1.00196e-12
9.05181e-13
2.8904e-13
8.23106e-13
1.62037e-07
8.66513e-08
1.91147e-09
1.98846e-11
1.0213e-12
1.03497e-12
1.01224e-12
9.22693e-13
1.63592e-13
6.90539e-13
2.03937e-12
2.85396e-12
1.4573e-12
1.38182e-12
1.38241e-12
1.4454e-12
1.64099e-12
2.0959e-12
3.69067e-12
6.28252e-12
1.96615e-12
2.74464e-12
1.43011e-12
1.37737e-12
1.38972e-12
1.44414e-12
1.57828e-12
1.86254e-12
3.06214e-12
5.2677e-12
1.88889e-12
2.62499e-12
1.38037e-12
1.34752e-12
1.37265e-12
1.42656e-12
1.52733e-12
1.69533e-12
2.44875e-12
4.30775e-12
1.81785e-12
2.5118e-12
1.3276e-12
1.31063e-12
1.34604e-12
1.4051e-12
1.49267e-12
1.58403e-12
1.9405e-12
3.51456e-12
1.7525e-12
2.40561e-12
1.27362e-12
1.26982e-12
1.31461e-12
1.37921e-12
1.46441e-12
1.51186e-12
1.52526e-12
2.86594e-12