/*--------------------------------*- C++ -*----------------------------------*\
| =========                 |                                                 |
| \\      /  F ield         | OpenFOAM: The Open Source CFD Toolbox           |
|  \\    /   O peration     | Version:  4.1                                   |
|   \\  /    A nd           | Web:      www.OpenFOAM.org                      |
|    \\/     M anipulation  |                                                 |
\*---------------------------------------------------------------------------*/
FoamFile
{
    version     2.0;
    format      ascii;
    class       surfaceScalarField;
    location    "0.86";
    object      phi;
}
// * * * * * * * * * * * * * * * * * * * * * * * * * * * * * * * * * * * * * //

dimensions      [1 0 -1 0 0 0 0];

internalField   nonuniform List<scalar> 
51500
(
3.62242e-13
1.85124e-14
1.39266e-11
-8.73924e-16
2.25242e-14
1.37726e-11
-3.36043e-15
2.09678e-14
1.36188e-11
-3.05747e-15
1.93482e-14
1.34679e-11
-2.93873e-15
1.76974e-14
1.33181e-11
-2.86698e-15
1.6037e-14
1.31702e-11
-2.98822e-15
1.43999e-14
1.30235e-11
-2.90151e-15
1.28101e-14
1.288e-11
-3.03953e-15
1.12112e-14
1.27385e-11
9.65158e-15
1.2602e-11
-7.45931e-17
3.63007e-13
1.01524e-14
1.73501e-11
-1.15308e-14
1.15694e-14
1.67546e-11
-1.12996e-14
9.83433e-15
1.61762e-11
-1.10399e-14
8.18208e-15
1.5622e-11
-1.06777e-14
6.68213e-15
1.50916e-11
-1.02861e-14
5.31104e-15
1.45822e-11
-9.97992e-15
4.07532e-15
1.40932e-11
-9.70889e-15
3.5073e-15
1.36246e-11
-9.54155e-15
2.17258e-15
1.31731e-11
8.83263e-16
1.27505e-11
-8.8189e-16
3.58985e-13
1.28381e-14
2.18637e-11
-2.63446e-14
1.39703e-14
2.05696e-11
-2.25042e-14
1.15164e-14
1.93517e-11
-2.12365e-14
9.32526e-15
1.82206e-11
-2.00208e-14
7.38306e-15
1.71671e-11
-1.91249e-14
5.65307e-15
1.6187e-11
-1.80272e-14
4.14205e-15
1.52761e-11
-1.72426e-14
2.78472e-15
1.44242e-11
-1.67031e-14
1.60329e-15
1.36307e-11
6.11249e-16
1.29025e-11
-1.57166e-15
3.4709e-13
1.69636e-14
2.7887e-11
-4.72767e-14
1.73055e-14
2.54905e-11
-3.73e-14
1.38675e-14
2.33207e-11
-3.43828e-14
1.08913e-14
2.13614e-11
-3.17444e-14
8.3954e-15
1.96008e-11
-2.939e-14
6.28308e-15
1.80139e-11
-2.72581e-14
4.49874e-15
1.658e-11
-2.53372e-14
2.96292e-15
1.52829e-11
-2.38481e-14
1.66412e-15
1.41067e-11
5.80531e-16
1.30567e-11
-2.38373e-15
3.21198e-13
2.28542e-14
3.60434e-11
-8.35596e-14
2.18061e-14
3.19115e-11
-5.7427e-14
1.68742e-14
2.83171e-11
-5.12903e-14
1.28517e-14
2.5186e-11
-4.60752e-14
9.6189e-15
2.24681e-11
-4.15254e-14
7.0085e-15
2.00974e-11
-3.77193e-14
4.87058e-15
1.80237e-11
-3.42351e-14
3.14569e-15
1.62055e-11
-3.15299e-14
1.73463e-15
1.4604e-11
6.18346e-16
1.32142e-11
-3.17454e-15
2.70991e-13
3.14861e-14
4.72528e-11
-1.52642e-13
2.80234e-14
4.03904e-11
-8.46523e-14
2.08378e-14
3.46696e-11
-7.32094e-14
1.52778e-14
2.9873e-11
-6.38068e-14
1.10793e-14
2.58599e-11
-5.60639e-14
7.82564e-15
2.24813e-11
-4.94912e-14
5.31919e-15
1.96246e-11
-4.39182e-14
3.34756e-15
1.71973e-11
-3.94939e-14
1.81288e-15
1.51231e-11
6.61077e-16
1.33745e-11
-4.07009e-15
1.77555e-13
5.54363e-14
6.28781e-11
-2.39764e-13
4.57293e-14
5.17481e-11
-1.22323e-13
3.24761e-14
4.28199e-11
-1.01714e-13
2.2866e-14
3.5659e-11
-8.59259e-14
1.59463e-14
2.98943e-11
-7.31587e-14
1.08989e-14
2.52193e-11
-6.29723e-14
7.1382e-15
2.14017e-11
-5.45169e-14
4.35307e-15
1.82637e-11
-4.79745e-14
2.24541e-15
1.56663e-11
6.35835e-16
1.35373e-11
-4.9303e-15
8.80332e-14
-6.27337e-13
8.50941e-11
-3.52089e-13
-6.99691e-13
6.71562e-11
-1.72789e-13
-7.22728e-13
5.33999e-11
-1.37891e-13
-7.37502e-13
4.28639e-11
-1.12127e-13
-7.47444e-13
3.47308e-11
-9.25084e-14
-7.54105e-13
2.83887e-11
-7.7153e-14
-7.58523e-13
2.33957e-11
-6.51028e-14
-7.61431e-13
1.94299e-11
-5.54856e-14
-7.63363e-13
1.62492e-11
-7.79387e-13
1.37215e-11
-5.88787e-15
3.92349e-12
-1.03775e-09
1.90149e-10
3.58323e-12
-1.13994e-09
1.5155e-10
3.25322e-12
-1.15131e-09
1.25594e-10
2.9581e-12
-1.15984e-09
1.0619e-10
2.69584e-12
-1.16678e-09
9.15112e-11
2.46364e-12
-1.17248e-09
8.0248e-11
2.25801e-12
-1.1772e-09
7.1502e-11
2.07535e-12
-1.18115e-09
6.46348e-11
1.83948e-12
-1.18464e-09
5.91873e-11
-1.2197e-09
5.56782e-11
-6.88252e-15
-6.59551e-10
1.8399e-07
-8.20125e-07
3.53498e-10
1.57277e-07
-9.35733e-07
4.19424e-10
1.38569e-07
-9.38045e-07
4.10248e-10
1.22863e-07
-9.39627e-07
3.9949e-10
1.09545e-07
-9.41024e-07
3.88046e-10
9.81876e-08
-9.42273e-07
3.76308e-10
8.84444e-08
-9.43403e-07
3.53874e-10
8.00363e-08
-9.44434e-07
7.80331e-11
7.27526e-08
-9.45529e-07
6.81816e-08
-7.95501e-15
-9.97358e-07
3.4038e-13
8.71527e-14
8.18868e-13
-1.71117e-14
8.23724e-14
8.04998e-13
-2.49736e-14
7.26527e-14
7.92355e-13
-2.40049e-14
6.32114e-14
7.77819e-13
-2.35581e-14
5.41012e-14
7.649e-13
-2.33872e-14
4.5262e-14
7.5276e-13
-2.33132e-14
3.67202e-14
7.39016e-13
-2.30653e-14
2.84802e-14
7.27278e-13
-2.49216e-14
2.04368e-14
7.15174e-13
1.2856e-14
7.02423e-13
-1.5992e-15
2.8557e-13
8.0759e-14
1.13089e-12
-6.76968e-14
7.36383e-14
1.0748e-12
-8.32185e-14
6.23423e-14
1.02104e-12
-7.97927e-14
5.15304e-14
9.69223e-13
-7.77043e-14
4.08408e-14
9.20747e-13
-7.55672e-14
2.84828e-14
8.74119e-13
-7.33293e-14
2.02416e-14
8.32013e-13
-7.2485e-14
1.33038e-14
7.90622e-13
-7.58723e-14
7.42674e-15
7.53255e-13
2.50899e-15
7.15469e-13
-4.23468e-15
2.04269e-13
1.01987e-13
1.5889e-12
-1.71304e-13
9.12136e-14
1.45052e-12
-1.57497e-13
7.64117e-14
1.33084e-12
-1.4913e-13
6.26852e-14
1.21529e-12
-1.41923e-13
5.03306e-14
1.11359e-12
-1.35438e-13
3.90981e-14
1.02092e-12
-1.29662e-13
2.88977e-14
9.37517e-13
-1.24562e-13
1.97413e-14
8.61978e-13
-1.29734e-13
1.14442e-14
7.92189e-13
4.12702e-15
7.30509e-13
-6.71989e-15
8.51962e-14
1.24698e-13
2.27153e-12
-2.97363e-13
1.08448e-13
1.9904e-12
-2.53174e-13
8.87769e-14
1.75277e-12
-2.3398e-13
7.12949e-14
1.53924e-12
-2.18617e-13
5.60146e-14
1.35589e-12
-2.0469e-13
4.26185e-14
1.19732e-12
-1.91651e-13
3.09529e-14
1.06101e-12
-1.80921e-13
2.07357e-14
9.42358e-13
-1.84848e-13
1.18059e-14
8.36074e-13
4.10728e-15
7.43935e-13
-9.71098e-15
-3.12105e-14
1.54082e-13
3.31429e-12
-4.56222e-13
1.29969e-13
2.77627e-12
-3.74946e-13
1.03945e-13
2.33858e-12
-3.38672e-13
8.15069e-14
1.96775e-12
-3.0989e-13
6.25446e-14
1.66295e-12
-2.83742e-13
4.65757e-14
1.41264e-12
-2.60541e-13
3.30849e-14
1.20436e-12
-2.41336e-13
2.17411e-14
1.03005e-12
-2.42227e-13
1.21407e-14
8.8357e-13
4.2142e-15
7.59931e-13
-1.27559e-14
-1.59892e-13
1.91703e-13
4.94791e-12
-6.62198e-13
1.58e-13
3.93636e-12
-5.30566e-13
1.22609e-13
3.16034e-12
-4.67996e-13
9.36888e-14
2.53681e-12
-4.18098e-13
7.0183e-14
2.05291e-12
-3.74649e-13
5.10267e-14
1.67275e-12
-3.36716e-13
3.54878e-14
1.37238e-12
-3.06016e-13
2.27948e-14
1.13108e-12
-3.01585e-13
1.25412e-14
9.3711e-13
4.18065e-15
7.77825e-13
-1.57077e-14
-5.42994e-13
2.53768e-13
7.56428e-12
-9.36302e-13
2.13461e-13
5.68992e-12
-7.29162e-13
1.61282e-13
4.33038e-12
-6.27124e-13
1.20393e-13
3.30148e-12
-5.46866e-13
8.84483e-14
2.55126e-12
-4.78599e-13
6.3271e-14
1.99025e-12
-4.21355e-13
4.31151e-14
1.56671e-12
-3.74602e-13
2.66947e-14
1.24484e-12
-3.63533e-13
1.24204e-14
9.93096e-13
3.5504e-15
7.97169e-13
-1.86975e-14
-1.02042e-12
2.8794e-13
1.06793e-11
-1.30134e-12
1.78022e-13
8.39746e-12
-9.83344e-13
1.1866e-13
6.02191e-12
-8.22855e-13
7.55004e-14
4.34875e-12
-6.98855e-13
4.35044e-14
3.19638e-12
-5.97817e-13
1.9419e-14
2.3817e-12
-5.14015e-13
1.11008e-15
1.7993e-12
-4.48437e-13
-1.29845e-14
1.37308e-12
-4.27156e-13
-2.3952e-14
1.05624e-12
-3.27643e-14
8.17792e-13
-2.17224e-14
-1.91799e-12
-3.83983e-12
2.68713e-11
-1.03251e-12
-7.70092e-11
1.43048e-11
-8.61954e-13
-6.99409e-11
1.01043e-11
-7.33375e-13
-6.35361e-11
7.40074e-12
-6.35072e-13
-5.8393e-11
5.64913e-12
-5.58224e-13
-5.42132e-11
4.47504e-12
-4.98217e-13
-5.08006e-11
3.66708e-12
-4.54658e-13
-4.80029e-11
3.09695e-12
-5.86139e-13
-4.57135e-11
2.68052e-12
-4.46164e-11
2.38044e-12
-2.48714e-14
-1.34727e-09
2.08436e-08
1.10524e-07
-2.44155e-10
1.18554e-08
-1.92954e-09
-3.87582e-10
8.99353e-09
-2.41471e-09
-3.82069e-10
6.95559e-09
-2.41793e-09
-3.74498e-10
5.45999e-09
-2.40329e-09
-3.65797e-10
4.34271e-09
-2.3796e-09
-3.56454e-10
3.49598e-09
-2.35117e-09
-3.4698e-10
2.84574e-09
-2.32124e-09
-3.48531e-10
2.341e-09
-2.30456e-09
1.98004e-09
-2.82346e-14
-3.16597e-09
3.41915e-13
8.2375e-14
3.26062e-14
-1.59136e-14
7.81928e-14
3.07245e-14
-2.29111e-14
6.89611e-14
2.91471e-14
-2.0464e-14
6.00755e-14
2.77376e-14
-1.86425e-14
5.14744e-14
2.5352e-14
-2.06368e-14
4.30888e-14
2.29435e-14
-1.90977e-14
3.5108e-14
2.21482e-14
-1.96621e-14
2.73123e-14
2.0825e-14
-2.357e-14
1.97802e-14
1.98388e-14
1.26609e-14
1.96701e-14
-1.28782e-15
2.90542e-13
5.98155e-14
5.1972e-14
-6.43759e-14
5.48667e-14
4.72215e-14
-7.33956e-14
4.65569e-14
4.51789e-14
-6.76973e-14
3.85373e-14
3.95545e-14
-6.68524e-14
3.11e-14
3.54319e-14
-6.28173e-14
2.42603e-14
3.33352e-14
-6.24528e-14
1.78969e-14
2.79389e-14
-6.17723e-14
1.21131e-14
2.51758e-14
-7.1319e-14
6.88697e-15
2.39972e-14
2.44059e-15
2.13081e-14
-4.48057e-15
2.11582e-13
7.65646e-14
7.90417e-14
-1.65019e-13
6.92576e-14
7.11978e-14
-1.39567e-13
5.83674e-14
6.63559e-14
-1.26809e-13
4.83633e-14
5.85735e-14
-1.20782e-13
3.93685e-14
5.04396e-14
-1.14092e-13
3.13032e-14
4.32649e-14
-1.08974e-13
2.41084e-14
3.75274e-14
-1.07359e-13
1.67103e-14
3.30707e-14
-1.21178e-13
9.66575e-15
2.90611e-14
3.34773e-15
2.44813e-14
-7.23943e-15
9.10222e-14
9.52357e-14
1.26287e-13
-2.88997e-13
8.343e-14
1.13024e-13
-2.24199e-13
6.85973e-14
1.01947e-13
-1.9928e-13
5.55887e-14
8.49874e-14
-1.85803e-13
4.43186e-14
7.10865e-14
-1.72204e-13
3.57002e-14
6.02167e-14
-1.59219e-13
2.61269e-14
5.08771e-14
-1.55934e-13
1.73341e-14
4.29511e-14
-1.73137e-13
9.93283e-15
3.82911e-14
3.51234e-15
2.98865e-14
-1.04691e-14
-2.73287e-14
1.20194e-13
2.11961e-13
-4.46509e-13
1.01274e-13
1.8163e-13
-3.32381e-13
8.12725e-14
1.58016e-13
-2.84515e-13
6.40859e-14
1.27564e-13
-2.59383e-13
4.97917e-14
1.029e-13
-2.35897e-13
3.88689e-14
8.36845e-14
-2.14359e-13
2.82465e-14
6.91949e-14
-2.06128e-13
1.86549e-14
5.85217e-14
-2.27001e-13
1.05221e-14
4.97059e-14
3.73171e-15
3.76294e-14
-1.30705e-14
-1.64251e-13
1.53106e-13
3.63513e-13
-6.52643e-13
1.25507e-13
3.02295e-13
-4.70573e-13
9.72244e-14
2.48186e-13
-3.74242e-13
7.43466e-14
1.90548e-13
-3.33549e-13
5.6442e-14
1.49598e-13
-2.9528e-13
4.30272e-14
1.18445e-13
-2.64475e-13
3.01548e-14
9.51941e-14
-2.59062e-13
1.95546e-14
7.88053e-14
-2.82968e-13
1.06399e-14
6.21381e-14
3.59563e-15
4.5191e-14
-1.65026e-14
-5.79101e-13
1.8866e-13
6.35716e-13
-9.31041e-13
1.55867e-13
5.04e-13
-6.0948e-13
1.17141e-13
3.88167e-13
-4.95683e-13
8.73454e-14
2.88129e-13
-4.30649e-13
6.49572e-14
2.16305e-13
-3.73057e-13
4.92272e-14
1.65502e-13
-3.24443e-13
3.39414e-14
1.30151e-13
-3.13526e-13
2.15213e-14
1.02625e-13
-3.40977e-13
1.18088e-14
8.14902e-14
4.32027e-15
5.59167e-14
-1.95755e-14
-1.10639e-12
3.47406e-13
1.14608e-12
-1.30769e-12
2.26269e-13
8.47786e-13
-8.02779e-13
1.58763e-13
6.14981e-13
-6.50343e-13
1.10976e-13
4.32335e-13
-5.47045e-13
7.67673e-14
3.12766e-13
-4.61834e-13
5.19096e-14
2.31049e-13
-3.93611e-13
3.36649e-14
1.73018e-13
-3.51695e-13
2.0226e-14
1.32625e-13
-4.01095e-13
1.0219e-14
1.04869e-13
2.87514e-15
6.75641e-14
-2.29085e-14
-2.46301e-12
7.53308e-11
8.35164e-12
-1.70432e-12
4.17549e-13
1.24855e-12
-1.06514e-12
-4.13367e-13
7.98399e-13
-8.4984e-13
-5.30083e-13
5.56815e-13
-6.97195e-13
-6.19798e-13
4.04799e-13
-5.77732e-13
-6.84114e-13
3.06098e-13
-4.83362e-13
-7.28033e-13
2.39146e-13
-4.22921e-13
-7.56303e-13
1.91485e-13
-4.79538e-13
-7.7266e-13
1.567e-13
-7.77943e-13
1.13636e-13
-2.62824e-14
-9.27376e-10
7.89139e-09
9.79773e-08
-6.03798e-11
6.86181e-10
2.59283e-10
-6.05215e-11
3.88064e-10
-1.09894e-10
-5.15321e-11
2.59589e-10
-9.1991e-11
-4.38496e-11
1.78546e-10
-7.48804e-11
-3.75703e-11
1.25457e-10
-6.04624e-11
-3.24044e-11
8.99168e-11
-4.7834e-11
-2.81299e-11
6.56476e-11
-3.64048e-11
-2.46591e-11
4.87724e-11
-3.08076e-11
3.67959e-11
-2.97663e-14
-3.1283e-11
3.42192e-13
8.11065e-14
1.13411e-14
-1.58025e-14
7.70823e-14
1.02473e-14
-2.23421e-14
6.80206e-14
8.67028e-15
-2.01716e-14
5.9241e-14
6.11275e-15
-1.85374e-14
5.08056e-14
6.2327e-15
-1.95706e-14
4.26344e-14
3.92882e-15
-1.82684e-14
3.4698e-14
3.08995e-15
-1.91775e-14
2.70313e-14
1.15767e-15
-2.30798e-14
1.96552e-14
7.61873e-16
1.26241e-14
7.07209e-16
-1.54846e-15
2.91981e-13
5.82375e-14
1.87201e-14
-6.34105e-14
5.353e-14
1.63277e-14
-7.18259e-14
4.54264e-14
1.69388e-14
-6.46148e-14
3.77188e-14
1.36256e-14
-6.16929e-14
3.04634e-14
1.02909e-14
-6.21969e-14
2.37225e-14
6.68895e-15
-5.92324e-14
1.75896e-14
6.75667e-15
-5.8893e-14
1.19438e-14
4.52766e-15
-7.0292e-14
6.79465e-15
3.83263e-15
2.43871e-15
2.96058e-15
-4.25506e-15
2.15075e-13
7.39753e-14
2.76443e-14
-1.62149e-13
6.69691e-14
2.56503e-14
-1.34389e-13
5.62736e-14
2.66975e-14
-1.17268e-13
4.62955e-14
2.0876e-14
-1.13957e-13
3.73701e-14
1.71894e-14
-1.0362e-13
2.9319e-14
1.41798e-14
-9.87909e-14
2.18073e-14
1.1267e-14
-1.03882e-13
1.50167e-14
9.61392e-15
-1.19263e-13
9.41697e-15
8.41382e-15
3.09604e-15
6.40397e-15
-7.05165e-15
9.54199e-14
9.20244e-14
4.52221e-14
-2.84137e-13
8.05048e-14
4.40011e-14
-2.15603e-13
6.60583e-14
4.52661e-14
-1.7941e-13
5.33468e-14
3.72978e-14
-1.6717e-13
4.20952e-14
3.04952e-14
-1.55505e-13
3.22387e-14
2.55651e-14
-1.44738e-13
2.35659e-14
2.1025e-14
-1.48915e-13
1.58755e-14
1.78275e-14
-1.70547e-13
9.55592e-15
1.5195e-14
3.62588e-15
1.05738e-14
-1.05846e-14
-2.04364e-14
1.16036e-13
7.86146e-14
-4.38434e-13
9.79003e-14
7.98397e-14
-3.15397e-13
7.83243e-14
7.7033e-14
-2.58597e-13
6.13758e-14
6.21041e-14
-2.3503e-13
4.73623e-14
5.15086e-14
-2.14003e-13
3.55261e-14
4.20108e-14
-1.95226e-13
2.56243e-14
3.46743e-14
-1.96803e-13
1.79513e-14
3.04943e-14
-2.23441e-13
9.49693e-15
2.73931e-14
3.52336e-15
1.76309e-14
-1.33392e-14
-1.54608e-13
1.47811e-13
1.40766e-13
-6.40223e-13
1.21118e-13
1.4e-13
-4.22399e-13
9.35254e-14
1.29813e-13
-3.54839e-13
7.13808e-14
1.04308e-13
-3.16005e-13
5.35763e-14
8.39359e-14
-2.8065e-13
3.9101e-14
6.93625e-14
-2.50072e-13
2.74559e-14
5.7146e-14
-2.45785e-13
1.78133e-14
4.75161e-14
-2.78393e-13
1.05016e-14
4.16115e-14
3.71747e-15
2.70853e-14
-1.67201e-14
-5.58167e-13
1.83671e-13
2.51446e-13
-9.12168e-13
1.50582e-13
2.49194e-13
-5.69998e-13
1.12893e-13
2.14447e-13
-4.75357e-13
8.34591e-14
1.68195e-13
-4.12248e-13
6.09506e-14
1.32838e-13
-3.56997e-13
4.35765e-14
1.06904e-13
-3.11985e-13
2.98081e-14
8.62621e-14
-2.84033e-13
1.9046e-14
7.24092e-14
-3.35945e-13
1.09435e-14
6.10325e-14
3.44304e-15
3.87131e-14
-1.99224e-14
-1.07559e-12
3.40917e-13
4.5899e-13
-1.27768e-12
1.95739e-13
4.35453e-13
-7.68153e-13
2.02981e-13
3.50147e-13
-6.25732e-13
1.42306e-13
2.64992e-13
-5.26556e-13
9.8818e-14
2.03435e-13
-4.45549e-13
6.74282e-14
1.58609e-13
-3.80035e-13
4.44762e-14
1.26669e-13
-3.33826e-13
2.7515e-14
1.03296e-13
-3.95947e-13
1.46874e-14
8.43786e-14
4.91781e-15
5.46911e-14
-2.2894e-14
-2.4262e-12
7.8653e-11
1.25791e-11
-1.64316e-12
1.10088e-12
8.42399e-13
-1.02536e-12
2.74003e-13
5.6082e-13
-8.14544e-13
1.71522e-13
4.0999e-13
-6.64271e-13
1.07183e-13
3.0376e-13
-5.47072e-13
6.39463e-14
2.30419e-13
-4.54954e-13
3.49435e-14
1.76852e-13
-3.90359e-13
1.53646e-14
1.38894e-13
-4.57853e-13
2.13851e-15
1.09623e-13
-6.49167e-15
6.76632e-14
-2.64136e-14
-8.649e-10
1.10763e-08
9.78545e-08
-1.08131e-11
1.42611e-10
3.99628e-10
-3.4218e-12
1.39485e-11
-1.01105e-12
-3.90494e-12
7.77727e-12
-1.28269e-12
-2.97815e-12
4.71956e-12
-6.57936e-13
-2.29684e-12
2.98474e-12
-3.73598e-13
-1.79835e-12
1.94657e-12
-1.88549e-13
-1.43114e-12
1.30636e-12
-6.81515e-14
-1.19222e-12
8.95339e-13
7.93709e-15
5.91142e-13
-3.00979e-14
1.79384e-13
3.42081e-13
8.11632e-14
1.74801e-14
-1.61795e-14
7.71092e-14
1.48744e-14
-2.24573e-14
6.81077e-14
1.22467e-14
-2.05377e-14
5.93155e-14
7.62068e-15
-1.71324e-14
5.0844e-14
6.33393e-15
-2.02218e-14
4.26225e-14
3.50069e-15
-1.92077e-14
3.47535e-14
5.73391e-15
-1.88622e-14
2.71072e-14
4.59905e-15
-2.30012e-14
1.96927e-14
7.5122e-16
1.2669e-14
2.23174e-16
-1.89996e-15
2.91709e-13
5.83171e-14
2.52562e-14
-6.34703e-14
5.3625e-14
2.56989e-14
-7.21435e-14
4.54638e-14
1.88643e-14
-6.53887e-14
3.76983e-14
1.65079e-14
-6.28769e-14
3.04973e-14
1.12199e-14
-6.04979e-14
2.37925e-14
8.67754e-15
-5.96915e-14
1.75989e-14
6.14441e-15
-5.96318e-14
1.19726e-14
7.21014e-15
-7.01693e-14
6.85281e-15
6.13554e-15
2.49267e-15
1.53515e-15
-4.38256e-15
2.14781e-13
7.40626e-14
3.77288e-14
-1.62583e-13
6.70229e-14
3.54162e-14
-1.35529e-13
5.63629e-14
3.42934e-14
-1.14887e-13
4.65176e-14
3.27935e-14
-1.1105e-13
3.74903e-14
2.27283e-14
-1.05339e-13
2.94458e-14
1.67575e-14
-9.80853e-14
2.20514e-14
1.51676e-14
-1.03984e-13
1.51111e-14
1.16802e-14
-1.19115e-13
8.89831e-15
1.13333e-14
3.03208e-15
6.15958e-15
-7.40879e-15
9.51415e-14
9.22048e-14
6.32907e-14
-2.84645e-13
8.07782e-14
6.23997e-14
-2.15933e-13
6.62229e-14
6.21374e-14
-1.79887e-13
5.33784e-14
4.95387e-14
-1.66577e-13
4.22098e-14
4.13046e-14
-1.56169e-13
3.21878e-14
3.24746e-14
-1.44473e-13
2.3461e-14
2.99817e-14
-1.49244e-13
1.60671e-14
2.542e-14
-1.70616e-13
1.00716e-14
2.19366e-14
3.81617e-15
2.01615e-14
-1.01338e-14
-2.07273e-14
1.16403e-13
1.09736e-13
-4.39554e-13
9.81259e-14
1.08693e-13
-3.16454e-13
7.86215e-14
1.0755e-13
-2.58068e-13
6.16989e-14
8.96172e-14
-2.35754e-13
4.75582e-14
7.32526e-14
-2.14641e-13
3.58826e-14
6.316e-14
-1.94678e-13
2.61007e-14
5.62959e-14
-1.95306e-13
1.7521e-14
4.2761e-14
-2.24006e-13
9.36129e-15
3.47232e-14
3.70541e-15
2.40795e-14
-1.32793e-14
-1.5561e-13
1.48342e-13
1.87194e-13
-6.4162e-13
1.21695e-13
1.98659e-13
-4.22943e-13
9.39435e-14
1.7922e-13
-3.55751e-13
7.1742e-14
1.45145e-13
-3.1602e-13
5.39228e-14
1.18838e-13
-2.81374e-13
3.93437e-14
9.84469e-14
-2.5081e-13
2.75597e-14
7.85412e-14
-2.39291e-13
1.83694e-14
6.98127e-14
-2.79076e-13
1.08088e-14
5.82313e-14
3.76166e-15
3.66599e-14
-1.65985e-14
-5.60676e-13
1.84332e-13
3.34579e-13
-9.15205e-13
1.51418e-13
3.46186e-13
-5.70846e-13
1.13537e-13
3.06532e-13
-4.76693e-13
8.39474e-14
2.34504e-13
-4.13099e-13
6.1343e-14
1.92789e-13
-3.58314e-13
4.38095e-14
1.51308e-13
-3.12286e-13
3.01281e-14
1.25183e-13
-2.84326e-13
1.90984e-14
1.01689e-13
-3.37135e-13
1.11378e-14
8.35498e-14
4.10594e-15
5.51916e-14
-1.98077e-14
-1.08065e-12
3.45641e-13
6.02608e-13
-1.28291e-12
1.91849e-13
6.06413e-13
-7.70186e-13
1.40156e-13
4.99322e-13
-6.27897e-13
1.02729e-13
3.79098e-13
-5.28552e-13
7.46816e-14
2.94305e-13
-4.47022e-13
5.51802e-14
2.34856e-13
-3.81244e-13
3.70393e-14
1.82254e-13
-3.3516e-13
2.33018e-14
1.47818e-13
-3.97377e-13
1.27147e-14
1.2008e-13
4.90394e-15
7.64256e-14
-2.30965e-14
-2.47416e-12
8.34044e-11
1.97061e-11
-1.63591e-12
1.02751e-12
1.24527e-12
-1.02975e-12
1.99811e-13
8.13625e-13
-8.18806e-13
1.75926e-13
5.88247e-13
-6.67252e-13
1.1734e-13
4.39895e-13
-5.49809e-13
7.67588e-14
3.32194e-13
-4.56709e-13
4.83159e-14
2.53506e-13
-3.91985e-13
2.8031e-14
2.02378e-13
-4.59892e-13
1.25591e-14
1.59784e-13
2.38166e-15
1.00961e-13
-2.64977e-14
-9.12275e-10
1.78401e-08
1.03438e-07
-7.74382e-12
1.7383e-10
4.48733e-10
-1.38937e-12
2.82317e-12
1.62718e-12
-1.12483e-12
1.12663e-12
1.55431e-13
-8.84981e-13
7.72641e-13
8.3028e-14
-7.01525e-13
5.51292e-13
6.63161e-14
-5.64446e-13
4.04729e-13
5.39011e-14
-4.70012e-13
3.03725e-13
4.42593e-14
-5.37012e-13
1.91844e-13
3.67207e-14
1.23681e-13
-3.00461e-14
3.42215e-14
3.41748e-13
8.13071e-14
2.25153e-14
-1.64973e-14
7.72557e-14
1.47076e-14
-2.31132e-14
6.81594e-14
1.87451e-14
-1.99636e-14
5.94221e-14
1.29231e-14
-1.93489e-14
5.08912e-14
7.64159e-15
-1.9252e-14
4.26811e-14
4.45427e-15
-1.91172e-14
3.47609e-14
1.96071e-15
-1.98779e-14
2.71334e-14
1.38974e-15
-2.3039e-14
1.97638e-14
1.483e-15
1.26915e-14
2.33218e-15
-1.47603e-15
2.91362e-13
5.8507e-14
3.88318e-14
-6.42053e-14
5.37843e-14
3.44416e-14
-7.14463e-14
4.56482e-14
3.28466e-14
-6.69986e-14
3.78305e-14
2.12453e-14
-6.19918e-14
3.06222e-14
2.07203e-14
-6.12793e-14
2.38752e-14
1.26434e-14
-5.83874e-14
1.76901e-14
8.13086e-15
-5.94955e-14
1.20291e-14
5.31821e-15
-7.05652e-14
6.9138e-15
4.94924e-15
2.55793e-15
5.2881e-15
-4.4088e-15
2.14132e-13
7.43746e-14
5.08465e-14
-1.63613e-13
6.72844e-14
5.25661e-14
-1.35434e-13
5.65891e-14
5.57451e-14
-1.16343e-13
4.66394e-14
4.25663e-14
-1.14413e-13
3.7618e-14
3.25457e-14
-1.03945e-13
2.95296e-14
2.63389e-14
-9.8927e-14
2.21901e-14
1.74855e-14
-1.03529e-13
1.53914e-14
1.67244e-14
-1.19414e-13
9.32445e-15
1.18093e-14
3.34825e-15
9.68454e-15
-7.52285e-15
9.43444e-14
9.27163e-14
9.1521e-14
-2.85942e-13
8.11953e-14
9.00168e-14
-2.17018e-13
6.65915e-14
9.30311e-14
-1.80052e-13
5.37471e-14
7.59948e-14
-1.68002e-13
4.25406e-14
5.86174e-14
-1.55541e-13
3.25653e-14
4.19931e-14
-1.44955e-13
2.37083e-14
3.35257e-14
-1.49795e-13
1.61615e-14
3.04923e-14
-1.70703e-13
1.00502e-14
2.57851e-14
3.593e-15
1.52233e-14
-1.02481e-14
-2.21872e-14
1.17141e-13
1.59855e-13
-4.41529e-13
9.88152e-14
1.63336e-13
-3.17833e-13
7.91159e-14
1.60303e-13
-2.59016e-13
6.21012e-14
1.2899e-13
-2.36382e-13
4.78492e-14
1.05874e-13
-2.15695e-13
3.61366e-14
8.55949e-14
-1.95117e-13
2.61036e-14
6.0711e-14
-1.96712e-13
1.7728e-14
5.17505e-14
-2.244e-13
9.79886e-15
4.32173e-14
3.95981e-15
2.71362e-14
-1.33042e-14
-1.5773e-13
1.49585e-13
2.79378e-13
-6.45163e-13
1.22687e-13
2.91561e-13
-4.24731e-13
9.48245e-14
2.68896e-13
-3.57382e-13
7.23891e-14
2.10213e-13
-3.16913e-13
5.4554e-14
1.69885e-13
-2.83447e-13
3.97322e-14
1.34904e-13
-2.51286e-13
2.80672e-14
1.11846e-13
-2.39577e-13
1.85241e-14
8.05576e-14
-2.80115e-13
1.09905e-14
6.72904e-14
4.01148e-15
4.35549e-14
-1.63524e-14
-5.66802e-13
1.86013e-13
4.97349e-13
-9.20709e-13
1.52972e-13
5.09954e-13
-5.75219e-13
1.14696e-13
4.39551e-13
-4.78713e-13
8.49239e-14
3.45528e-13
-4.15887e-13
6.20434e-14
2.68348e-13
-3.60021e-13
4.45233e-14
2.13793e-13
-3.14133e-13
3.06736e-14
1.69893e-13
-2.85417e-13
1.96017e-14
1.21588e-13
-3.3859e-13
1.15435e-14
1.01109e-13
4.47739e-15
6.26043e-14
-1.97292e-14
-1.09192e-12
3.50604e-13
9.05325e-13
-1.29259e-12
2.24508e-13
8.93725e-13
-7.75939e-13
1.3972e-13
7.22268e-13
-6.32352e-13
1.01797e-13
5.44025e-13
-5.32073e-13
7.29047e-14
4.15275e-13
-4.50206e-13
5.40511e-14
3.17387e-13
-3.83868e-13
3.69068e-14
2.50516e-13
-3.37323e-13
2.35212e-14
1.75922e-13
-3.99563e-13
1.29978e-14
1.38604e-13
5.19352e-15
8.69335e-14
-2.29877e-14
-2.52177e-12
8.8478e-11
2.51492e-11
-1.63995e-12
1.07446e-12
1.7822e-12
-1.03922e-12
1.98012e-13
1.17916e-12
-8.2591e-13
1.65734e-13
8.53039e-13
-6.73059e-13
1.08599e-13
6.25493e-13
-5.54692e-13
6.73377e-14
4.65574e-13
-4.60202e-13
3.17666e-14
3.4546e-13
-3.95253e-13
1.75276e-14
2.53721e-13
-4.63273e-13
9.06073e-15
1.90932e-13
3.74553e-15
1.15502e-13
-2.65239e-14
-9.71824e-10
2.36933e-08
1.11605e-07
-7.99571e-12
2.52267e-10
4.83541e-10
-1.42929e-12
2.76364e-12
1.79592e-12
-1.06364e-12
1.08063e-12
9.71019e-14
-8.44333e-13
7.78134e-13
6.53994e-14
-6.74601e-13
5.70617e-13
5.01892e-14
-5.46532e-13
4.22703e-13
3.93894e-14
-4.56669e-13
3.1852e-13
3.1471e-14
-5.29738e-13
2.40799e-13
2.55442e-14
1.43301e-13
-3.02508e-14
2.1078e-14
3.41216e-13
8.15172e-14
2.96389e-14
-1.67081e-14
7.74594e-14
2.8342e-14
-2.37539e-14
6.82753e-14
2.22643e-14
-1.97756e-14
5.95285e-14
1.81581e-14
-1.97778e-14
5.10049e-14
8.23487e-15
-2.00296e-14
4.27789e-14
7.78722e-15
-1.91989e-14
3.48689e-14
6.1955e-15
-1.96965e-14
2.72182e-14
8.99955e-15
-2.28244e-14
1.98498e-14
2.50977e-14
1.27638e-14
7.02202e-14
-1.89193e-15
2.90791e-13
5.86977e-14
5.12689e-14
-6.48222e-14
5.39676e-14
4.48745e-14
-7.20233e-14
4.58476e-14
4.46798e-14
-6.65104e-14
3.79869e-14
3.49619e-14
-6.38379e-14
3.07216e-14
1.86459e-14
-6.10832e-14
2.3985e-14
1.31474e-14
-5.98309e-14
1.77813e-14
1.34005e-14
-5.91124e-14
1.21551e-14
1.27287e-14
-7.05472e-14
6.996e-15
1.82635e-14
2.62269e-15
5.00032e-14
-4.58032e-15
2.13386e-13
7.47704e-14
7.43488e-14
-1.64636e-13
6.75758e-14
6.80376e-14
-1.36326e-13
5.68278e-14
6.92171e-14
-1.17583e-13
4.68652e-14
5.62856e-14
-1.11925e-13
3.77993e-14
4.37502e-14
-1.0597e-13
2.96147e-14
2.35914e-14
-9.74529e-14
2.2306e-14
1.87079e-14
-1.0452e-13
1.53619e-14
2.24909e-14
-1.19575e-13
9.77423e-15
2.6916e-14
3.28209e-15
4.1504e-14
-7.69979e-15
9.3341e-14
9.33248e-14
1.19016e-13
-2.87362e-13
8.17215e-14
1.18244e-13
-2.18079e-13
6.70394e-14
1.19753e-13
-1.81226e-13
5.41328e-14
9.75443e-14
-1.68599e-13
4.29607e-14
7.90601e-14
-1.56276e-13
3.3e-14
5.01026e-14
-1.44795e-13
2.40025e-14
3.81262e-14
-1.49352e-13
1.6447e-14
4.12557e-14
-1.71581e-13
9.65704e-15
4.0278e-14
4.13327e-15
4.41989e-14
-9.99136e-15
-2.3921e-14
1.18072e-13
2.06278e-13
-4.43808e-13
9.96336e-14
2.10472e-13
-3.20088e-13
7.97765e-14
2.02623e-13
-2.60003e-13
6.25931e-14
1.65907e-13
-2.37203e-13
4.82376e-14
1.34817e-13
-2.17238e-13
3.64596e-14
1.08105e-13
-1.95421e-13
2.64613e-14
6.66511e-14
-1.98112e-13
1.7724e-14
5.65858e-14
-2.25087e-13
1.01466e-14
6.29572e-14
4.25797e-15
5.49314e-14
-1.34302e-14
-1.60412e-13
1.51074e-13
3.66784e-13
-6.49061e-13
1.23853e-13
3.73536e-13
-4.28326e-13
9.57744e-14
3.41049e-13
-3.59194e-13
7.32563e-14
2.76279e-13
-3.18327e-13
5.52411e-14
2.21438e-13
-2.84959e-13
4.03071e-14
1.80865e-13
-2.53092e-13
2.84361e-14
1.09888e-13
-2.39683e-13
1.88912e-14
8.717e-14
-2.81154e-13
1.1446e-14
7.95577e-14
4.07319e-15
7.16381e-14
-1.65918e-14
-5.7434e-13
1.88815e-13
6.45591e-13
-9.27192e-13
1.54859e-13
6.5163e-13
-5.79149e-13
1.16116e-13
5.64998e-13
-4.82267e-13
8.60124e-14
4.42574e-13
-4.1834e-13
6.2936e-14
3.48751e-13
-3.62476e-13
4.52208e-14
2.77931e-13
-3.16727e-13
3.14862e-14
1.95665e-13
-2.8617e-13
2.01283e-14
1.31101e-13
-3.40559e-13
1.17099e-14
1.08208e-13
4.86203e-15
9.52919e-14
-1.97613e-14
-1.10555e-12
3.47335e-13
1.15448e-12
-1.30361e-12
2.27593e-13
1.12693e-12
-7.82747e-13
1.42107e-13
9.21473e-13
-6.37721e-13
1.03299e-13
6.96672e-13
-5.36537e-13
7.40217e-14
5.31758e-13
-4.5332e-13
5.46435e-14
4.14912e-13
-3.87976e-13
3.75418e-14
3.20262e-13
-3.39791e-13
2.42076e-14
1.93123e-13
-4.0236e-13
1.36296e-14
1.49315e-13
5.67026e-15
1.08896e-13
-2.30723e-14
-2.48386e-12
8.41678e-11
2.13475e-11
-1.67832e-12
9.57353e-13
2.08164e-12
-1.05094e-12
2.00498e-13
1.50371e-12
-8.34511e-13
1.68724e-13
1.08515e-12
-6.80037e-13
1.10657e-13
8.03656e-13
-5.60258e-13
6.88424e-14
6.05921e-13
-4.65383e-13
3.27634e-14
4.64425e-13
-3.98825e-13
1.81995e-14
2.73105e-13
-4.67651e-13
9.52481e-15
2.02909e-13
4.20609e-15
1.30135e-13
-2.65786e-14
-9.34416e-10
2.13159e-08
1.1468e-07
-7.12504e-12
1.74103e-10
4.54454e-10
-1.365e-12
3.0704e-12
1.33207e-12
-1.07709e-12
1.63251e-12
8.69293e-14
-8.54011e-13
1.17675e-12
6.42031e-14
-6.8232e-13
8.60403e-13
5.01263e-14
-5.53538e-13
6.3984e-13
3.98587e-14
-4.61743e-13
4.15853e-13
3.23226e-14
-5.35779e-13
2.70865e-13
2.65062e-14
1.61745e-13
-3.0076e-14
2.23289e-14
3.40985e-13
8.16815e-14
1.70949e-14
-1.74093e-14
7.74524e-14
-1.1265e-15
-2.36356e-14
6.83731e-14
3.89378e-15
-2.05955e-14
5.96122e-14
7.66359e-15
-2.02652e-14
5.11241e-14
2.08118e-14
-2.08927e-14
4.29526e-14
4.56944e-14
-2.0558e-14
3.51094e-14
8.95684e-14
-1.97028e-14
2.76061e-14
3.25288e-13
-1.06676e-14
2.04166e-14
1.25637e-12
1.29432e-14
3.48591e-12
-1.3054e-14
2.90094e-13
5.88756e-14
2.56918e-14
-6.51374e-14
5.40347e-14
-1.26716e-15
-7.24803e-14
4.58666e-14
1.03622e-14
-6.70373e-14
3.80603e-14
1.29182e-14
-6.44116e-14
3.08379e-14
2.46244e-14
-6.13748e-14
2.4143e-14
4.70728e-14
-6.14783e-14
1.79585e-14
7.99986e-14
-6.3584e-14
1.239e-14
2.1763e-13
-7.03522e-14
7.39391e-15
7.48803e-13
2.73993e-15
2.2858e-12
-1.26182e-14
2.12438e-13
7.50212e-14
3.46974e-14
-1.65394e-13
6.77237e-14
-2.45459e-16
-1.36362e-13
5.70405e-14
1.68122e-14
-1.18595e-13
4.70445e-14
2.0901e-14
-1.11881e-13
3.80196e-14
3.0224e-14
-1.0661e-13
2.99496e-14
5.25789e-14
-1.00174e-13
2.26566e-14
8.81955e-14
-1.06549e-13
1.55543e-14
1.68554e-13
-1.23865e-13
9.27799e-15
4.9302e-13
3.50943e-15
1.50591e-12
-8.51923e-15
9.25884e-14
9.38035e-14
5.92906e-14
-2.88055e-13
8.19809e-14
1.30603e-14
-2.18716e-13
6.72597e-14
3.70243e-14
-1.81722e-13
5.44003e-14
4.10528e-14
-1.68362e-13
4.32168e-14
5.04012e-14
-1.56722e-13
3.31628e-14
6.72573e-14
-1.47498e-13
2.43943e-14
1.00804e-13
-1.52164e-13
1.69806e-14
1.53377e-13
-1.7695e-13
9.92786e-15
3.65109e-13
4.44857e-15
1.04178e-12
-8.38999e-15
-2.51082e-14
1.18876e-13
1.04818e-13
-4.44805e-13
1.00097e-13
5.0987e-14
-3.20139e-13
8.02213e-14
7.83109e-14
-2.60977e-13
6.30991e-14
7.90399e-14
-2.37792e-13
4.87122e-14
8.27696e-14
-2.17156e-13
3.70446e-14
1.2172e-13
-1.97257e-13
2.67244e-14
1.22438e-13
-2.0256e-13
1.79546e-14
1.61497e-13
-2.30964e-13
1.08711e-14
3.07012e-13
4.23441e-15
7.59592e-13
-1.00508e-14
-1.62555e-13
1.52235e-13
1.89849e-13
-6.50499e-13
1.24537e-13
1.27601e-13
-4.28106e-13
9.6457e-14
1.53412e-13
-3.61057e-13
7.38721e-14
1.44791e-13
-3.1848e-13
5.58604e-14
1.39386e-13
-2.87249e-13
4.08066e-14
1.72507e-13
-2.5446e-13
2.88263e-14
1.60396e-13
-2.43254e-13
1.93072e-14
1.9904e-13
-2.87754e-13
1.16297e-14
2.88971e-13
4.67188e-15
5.89237e-13
-1.29465e-14
-5.80247e-13
1.95238e-13
3.47798e-13
-9.29264e-13
1.56109e-13
2.72572e-13
-5.8106e-13
1.17051e-13
2.82543e-13
-4.8435e-13
8.69092e-14
2.50453e-13
-4.19558e-13
6.36923e-14
2.24875e-13
-3.65449e-13
4.59476e-14
2.20891e-13
-3.18354e-13
3.23532e-14
1.72343e-13
-2.90328e-13
2.08845e-14
2.40011e-13
-3.47554e-13
1.23896e-14
2.98916e-13
5.1265e-15
4.883e-13
-1.78399e-14
-1.11461e-12
3.1571e-13
6.15502e-13
-1.30706e-12
1.84953e-13
5.38017e-13
-7.86111e-13
1.45383e-13
4.98143e-13
-6.4106e-13
1.04701e-13
4.18342e-13
-5.39007e-13
7.53607e-14
3.56284e-13
-4.56137e-13
5.58583e-14
3.10871e-13
-3.91702e-13
3.86447e-14
3.70269e-13
-3.43628e-13
2.4897e-14
2.97821e-13
-4.10443e-13
1.43513e-14
3.31518e-13
6.31645e-15
4.31246e-13
-2.20512e-14
-2.12111e-12
3.8174e-11
-1.65059e-12
-1.78202e-12
3.72447e-13
8.30596e-13
-1.05892e-12
2.61962e-13
8.44838e-13
-8.39032e-13
1.72271e-13
6.73683e-13
-6.84691e-13
1.12915e-13
5.4476e-13
-5.63652e-13
7.09851e-14
4.60859e-13
-4.72217e-13
3.40723e-14
5.18306e-13
-4.0254e-13
1.89941e-14
3.19815e-13
-4.76577e-13
1.00909e-14
3.78416e-13
4.80215e-15
4.05155e-13
-2.61124e-14
-4.42025e-10
-7.26426e-09
8.53222e-08
-2.70631e-12
-1.76194e-10
1.27658e-10
-1.31741e-12
2.50724e-13
-4.05555e-13
-1.09097e-12
1.08591e-12
7.92004e-14