/*--------------------------------*- C++ -*----------------------------------*\
| =========                 |                                                 |
| \\      /  F ield         | OpenFOAM: The Open Source CFD Toolbox           |
|  \\    /   O peration     | Version:  4.1                                   |
|   \\  /    A nd           | Web:      www.OpenFOAM.org                      |
|    \\/     M anipulation  |                                                 |
\*---------------------------------------------------------------------------*/
FoamFile
{
    version     2.0;
    format      ascii;
    class       volScalarField;
    location    "2.3";
    object      T;
}
// * * * * * * * * * * * * * * * * * * * * * * * * * * * * * * * * * * * * * //

dimensions      [0 0 0 1 0 0 0];

internalField   nonuniform List<scalar> 
52500
(
0.999995
1.00002
1.00004
1.00014
1.00027
1.00086
1.00161
1.00475
1.01003
1.02583
1.07016
1.15492
1.48779
2.24777
2.64999
2.73858
2.73299
2.73081
2.74649
2.76158
2.773
2.7792
2.77918
2.7778
2.79608
0.999995
1.00002
1.00004
1.00014
1.00026
1.00085
1.00158
1.00469
1.00988
1.02549
1.06904
1.15283
1.47917
2.23285
2.64589
2.73837
2.7326
2.73001
2.74543
2.76022
2.77155
2.77727
2.77691
2.7751
2.79327
0.999995
1.00002
1.00004
1.00014
1.00025
1.00083
1.00154
1.00457
1.00956
1.0248
1.06667
1.14851
1.4606
2.19963
2.63501
2.73652
2.73053
2.7271
2.74258
2.75684
2.76793
2.77438
2.77428
2.7723
2.78963
0.999995
1.00001
1.00003
1.00013
1.00024
1.0008
1.00147
1.00441
1.0091
1.02385
1.06298
1.14199
1.43205
2.14611
2.61692
2.73274
2.72632
2.72054
2.73522
2.75055
2.76287
2.7697
2.77
2.76822
2.7852
0.999995
1.00001
1.00003
1.00013
1.00023
1.00076
1.00139
1.00433
1.00846
1.02325
1.05702
1.13359
1.39252
2.07219
2.59061
2.72607
2.71928
2.71301
2.72888
2.74346
2.75604
2.76017
2.75953
2.75989
2.77651
0.999995
1.00001
1.00003
1.00012
1.00022
1.00071
1.00129
1.00404
1.00776
1.02197
1.05096
1.12356
1.34966
1.97931
2.556
2.71847
2.71001
2.69785
2.71464
2.72835
2.74012
2.7503
2.75099
2.74688
2.76622
0.999995
1.00001
1.00003
1.00011
1.0002
1.00065
1.00119
1.00372
1.00709
1.02041
1.04539
1.11512
1.30645
1.90246
2.49672
2.70121
2.69533
2.68654
2.70168
2.71509
2.72572
2.73074
2.73361
2.7338
2.7453
0.999995
1.00001
1.00002
1.0001
1.00018
1.00059
1.00108
1.00338
1.00642
1.01857
1.04116
1.10387
1.27811
1.80506
2.48584
2.69224
2.68151
2.67186
2.68717
2.69833
2.71085
2.71637
2.71423
2.70638
2.72042
0.999994
1.00001
1.00002
1.00008
1.00016
1.00052
1.00094
1.00293
1.00572
1.01569
1.03806
1.08922
1.25925
1.67586
2.44783
2.67745
2.67095
2.66867
2.67154
2.68037
2.6888
2.69242
2.6916
2.67972
2.66457
0.999994
1
1.00002
1.00007
1.00013
1.00042
1.00081
1.00229
1.00511
1.01259
1.03466
1.07595
1.23761
1.5792
2.34683
2.64068
2.66474
2.66207
2.66043
2.66673
2.6667
2.66313
2.65101
2.62214
2.5829
1
1.00002
1.00005
1.00015
1.00027
1.00087
1.00162
1.00476
1.01004
1.02585
1.07018
1.15496
1.48783
2.2479
2.65006
2.73865
2.73305
2.73086
2.74654
2.76164
2.77308
2.77929
2.77927
2.77789
2.79616
1
1.00002
1.00004
1.00015
1.00027
1.00086
1.00159
1.0047
1.00989
1.02551
1.06905
1.15287
1.47921
2.23298
2.64596
2.73844
2.73266
2.73006
2.74548
2.76028
2.77163
2.77736
2.777
2.77518
2.79334
1
1.00002
1.00004
1.00015
1.00026
1.00084
1.00155
1.00458
1.00957
1.02481
1.06668
1.14855
1.46063
2.19976
2.63508
2.73659
2.73059
2.72716
2.74263
2.75691
2.768
2.77447
2.77437
2.77238
2.78971
1
1.00002
1.00004
1.00014
1.00025
1.00081
1.00148
1.00442
1.00911
1.02387
1.06298
1.14202
1.43204
2.1462
2.61698
2.7328
2.72638
2.7206
2.73527
2.75061
2.76294
2.76979
2.77009
2.7683
2.78527
1
1.00002
1.00004
1.00013
1.00024
1.00077
1.0014
1.00434
1.00847
1.02327
1.05703
1.13362
1.39252
2.07228
2.59067
2.72613
2.71933
2.71306
2.72893
2.74352
2.75612
2.76026
2.75962
2.75997
2.77658
1
1.00002
1.00004
1.00012
1.00022
1.00072
1.0013
1.00405
1.00777
1.02198
1.05097
1.12359
1.34967
1.97941
2.55605
2.71853
2.71008
2.69792
2.7147
2.72842
2.7402
2.75039
2.75108
2.74696
2.76629
1
1.00002
1.00003
1.00011
1.00021
1.00066
1.0012
1.00373
1.0071
1.02042
1.0454
1.11515
1.30646
1.90254
2.49678
2.70126
2.69537
2.6866
2.70175
2.71516
2.7258
2.73082
2.73369
2.73388
2.74537
1
1.00002
1.00003
1.0001
1.00019
1.0006
1.00109
1.00339
1.00643
1.01858
1.04117
1.10389
1.27812
1.80514
2.48588
2.69229
2.68157
2.67191
2.68723
2.69839
2.71092
2.71644
2.7143
2.70645
2.72048
1
1.00001
1.00003
1.00009
1.00016
1.00052
1.00095
1.00294
1.00573
1.01571
1.03806
1.08925
1.25923
1.67593
2.44789
2.6775
2.67099
2.66872
2.67159
2.68042
2.68885
2.69249
2.69167
2.67979
2.66463
1
1.00001
1.00002
1.00008
1.00014
1.00043
1.00082
1.0023
1.00512
1.0126
1.03467
1.07597
1.23762
1.57925
2.3469
2.64074
2.66478
2.66212
2.66047
2.66678
2.66675
2.66318
2.65107
2.62221
2.58295
1
1.00002
1.00005
1.00015
1.00027
1.00087
1.00162
1.00476
1.01004
1.02585
1.07018
1.15496
1.48783
2.2479
2.65006
2.73865
2.73305
2.73086
2.74654
2.76164
2.77308
2.77929
2.77927
2.77789
2.79616
1
1.00002
1.00004
1.00015
1.00027
1.00086
1.00159
1.0047
1.00989
1.02551
1.06905
1.15287
1.47921
2.23298
2.64596
2.73844
2.73266
2.73006
2.74548
2.76028
2.77163
2.77736
2.777
2.77518
2.79334
1
1.00002
1.00004
1.00015
1.00026
1.00084
1.00155
1.00458
1.00957
1.02482
1.06668
1.14855
1.46063
2.19976
2.63508
2.73659
2.73059
2.72716
2.74263
2.75691
2.768
2.77447
2.77437
2.77238
2.78971
1
1.00002
1.00004
1.00014
1.00025
1.00081
1.00148
1.00442
1.00911
1.02387
1.06298
1.14203
1.43204
2.1462
2.61698
2.7328
2.72638
2.7206
2.73527
2.75061
2.76294
2.76979
2.77009
2.7683
2.78527
1
1.00002
1.00004
1.00013
1.00024
1.00077
1.0014
1.00434
1.00847
1.02327
1.05703
1.13362
1.39253
2.07228
2.59067
2.72613
2.71933
2.71306
2.72893
2.74352
2.75612
2.76026
2.75962
2.75997
2.77658
1
1.00002
1.00004
1.00012
1.00022
1.00072
1.0013
1.00405
1.00777
1.02198
1.05097
1.12359
1.34967
1.97941
2.55605
2.71853
2.71008
2.69792
2.7147
2.72842
2.7402
2.75039
2.75108
2.74696
2.76629
1
1.00002
1.00003
1.00011
1.00021
1.00066
1.0012
1.00373
1.0071
1.02042
1.0454
1.11515
1.30646
1.90254
2.49678
2.70125
2.69537
2.6866
2.70175
2.71516
2.7258
2.73082
2.73369
2.73388
2.74537
1
1.00002
1.00003
1.0001
1.00019
1.0006
1.00109
1.00339
1.00643
1.01858
1.04117
1.1039
1.27812
1.80514
2.48588
2.69229
2.68157
2.67191
2.68723
2.69839
2.71092
2.71644
2.7143
2.70645
2.72048
1
1.00001
1.00003
1.00009
1.00016
1.00052
1.00095
1.00294
1.00573
1.01571
1.03806
1.08925
1.25923
1.67593
2.44789
2.6775
2.67098
2.66872
2.67159
2.68042
2.68885
2.69249
2.69167
2.67979
2.66463
1
1.00001
1.00002
1.00008
1.00014
1.00043
1.00082
1.0023
1.00512
1.0126
1.03467
1.07597
1.23762
1.57926
2.34691
2.64074
2.66478
2.66212
2.66047
2.66677
2.66674
2.66318
2.65107
2.62221
2.58295
1
1.00002
1.00005
1.00015
1.00027
1.00087
1.00162
1.00476
1.01004
1.02585
1.07018
1.15496
1.48783
2.2479
2.65006
2.73865
2.73305
2.73086
2.74654
2.76164
2.77308
2.77929
2.77927
2.77789
2.79616
1
1.00002
1.00004
1.00015
1.00027
1.00086
1.00159
1.0047
1.00989
1.02551
1.06905
1.15287
1.47921
2.23298
2.64596
2.73844
2.73266
2.73006
2.74548
2.76028
2.77163
2.77736
2.777
2.77518
2.79334
1
1.00002
1.00004
1.00015
1.00026
1.00084
1.00155
1.00458
1.00957
1.02482
1.06668
1.14855
1.46063
2.19976
2.63508
2.73659
2.73059
2.72716
2.74263
2.75691
2.768
2.77447
2.77437
2.77238
2.78971
1
1.00002
1.00004
1.00014
1.00025
1.00081
1.00148
1.00442
1.00911
1.02387
1.06298
1.14203
1.43204
2.1462
2.61698
2.7328
2.72638
2.7206
2.73527
2.75061
2.76294
2.76979
2.77009
2.7683
2.78527
1
1.00002
1.00004
1.00013
1.00024
1.00077
1.0014
1.00434
1.00847
1.02327
1.05703
1.13362
1.39253
2.07228
2.59067
2.72613
2.71933
2.71306
2.72893
2.74352
2.75612
2.76026
2.75962
2.75997
2.77658
1
1.00002
1.00004
1.00012
1.00022
1.00072
1.0013
1.00405
1.00777
1.02198
1.05097
1.12359
1.34967
1.97941
2.55605
2.71853
2.71008
2.69792
2.7147
2.72842
2.7402
2.75039
2.75108
2.74696
2.76629
1
1.00002
1.00003
1.00011
1.00021
1.00066
1.0012
1.00373
1.0071
1.02042
1.0454
1.11515
1.30646
1.90254
2.49678
2.70125
2.69537
2.6866
2.70175
2.71516
2.7258
2.73082
2.73369
2.73388
2.74537
1
1.00002
1.00003
1.0001
1.00019
1.0006
1.00109
1.00339
1.00643
1.01858
1.04117
1.1039
1.27812
1.80514
2.48588
2.69229
2.68157
2.67191
2.68723
2.69839
2.71092
2.71644
2.7143
2.70645
2.72048
1
1.00001
1.00003
1.00009
1.00016
1.00052
1.00095
1.00294
1.00573
1.01571
1.03806
1.08925
1.25923
1.67593
2.44789
2.6775
2.67098
2.66872
2.67159
2.68042
2.68885
2.69249
2.69167
2.67979
2.66463
1
1.00001
1.00002
1.00008
1.00014
1.00043
1.00082
1.0023
1.00512
1.0126
1.03467
1.07597
1.23762
1.57926
2.34691
2.64074
2.66478
2.66212
2.66047
2.66677
2.66674
2.66318
2.65107
2.62221
2.58295
1
1.00002
1.00005
1.00015
1.00027
1.00087
1.00162
1.00476
1.01004
1.02585
1.07018
1.15497
1.48783
2.2479
2.65006
2.73864
2.73304
2.73086
2.74654
2.76164
2.77308
2.77929
2.77927
2.77789
2.79616
1
1.00002
1.00004
1.00015
1.00027
1.00086
1.00159
1.0047
1.00989
1.02551
1.06905
1.15287
1.47921
2.23298
2.64596
2.73844
2.73266
2.73006
2.74548
2.76028
2.77163
2.77736
2.777
2.77518
2.79334
1
1.00002
1.00004
1.00015
1.00026
1.00084
1.00155
1.00458
1.00957
1.02482
1.06668
1.14855
1.46064
2.19976
2.63508
2.73659
2.73059
2.72716
2.74263
2.75691
2.768
2.77447
2.77437
2.77238
2.78971
1
1.00002
1.00004
1.00014
1.00025
1.00081
1.00148
1.00442
1.00911
1.02387
1.06298
1.14203
1.43204
2.1462
2.61698
2.7328
2.72638
2.7206
2.73527
2.75061
2.76294
2.76979
2.77009
2.7683
2.78527
1
1.00002
1.00004
1.00013
1.00024
1.00077
1.0014
1.00434
1.00847
1.02327
1.05703
1.13362
1.39253
2.07228
2.59067
2.72613
2.71933
2.71306
2.72893
2.74352
2.75612
2.76026
2.75962
2.75997
2.77658
1
1.00002
1.00004
1.00012
1.00022
1.00072
1.0013
1.00405
1.00777
1.02198
1.05097
1.12359
1.34967
1.97942
2.55605
2.71853
2.71008
2.69792
2.7147
2.72842
2.7402
2.75039
2.75108
2.74696
2.76629
1
1.00002
1.00003
1.00011
1.00021
1.00066
1.0012
1.00373
1.0071
1.02042
1.0454
1.11515
1.30646
1.90254
2.49678
2.70125
2.69537
2.6866
2.70175
2.71516
2.7258
2.73082
2.73369
2.73388
2.74537
1
1.00002
1.00003
1.0001
1.00019
1.0006
1.00109
1.00339
1.00643
1.01858
1.04117
1.1039
1.27812
1.80514
2.48588
2.69229
2.68157
2.67191
2.68722
2.69839
2.71092
2.71644
2.7143
2.70645
2.72048
1
1.00001
1.00003
1.00009
1.00016
1.00052
1.00095
1.00294
1.00573
1.01571
1.03806
1.08925
1.25923
1.67593
2.44789
2.6775
2.67098
2.66872
2.67159
2.68041
2.68885
2.69249
2.69167
2.67979
2.66463
1
1.00001
1.00002
1.00008
1.00014
1.00043
1.00082
1.0023
1.00512
1.0126
1.03467
1.07597
1.23762
1.57926
2.34691
2.64074
2.66478
2.66212
2.66047
2.66677
2.66674
2.66318
2.65107
2.62221
2.58295
1
1.00002
1.00005
1.00015
1.00027
1.00087
1.00162
1.00476
1.01004
1.02585
1.07018
1.15496
1.48783
2.2479
2.65006
2.73865
2.73305
2.73086
2.74654
2.76164
2.77308
2.77929
2.77927
2.77789
2.79616
1
1.00002
1.00004
1.00015
1.00027
1.00086
1.00159
1.0047
1.00989
1.02551
1.06905
1.15287
1.47921
2.23298
2.64596
2.73844
2.73266
2.73006
2.74548
2.76028
2.77163
2.77736
2.777
2.77518
2.79334
1
1.00002
1.00004
1.00015
1.00026
1.00084
1.00155
1.00458
1.00957
1.02482
1.06668
1.14855
1.46064
2.19976
2.63508
2.73659
2.73059
2.72716
2.74263
2.75691
2.768
2.77447
2.77437
2.77238
2.78971
1
1.00002
1.00004
1.00014
1.00025
1.00081
1.00148
1.00442
1.00911
1.02387
1.06298
1.14203
1.43204
2.1462
2.61698
2.7328
2.72638
2.7206
2.73527
2.75061
2.76294
2.76979
2.77009
2.7683
2.78527
1
1.00002
1.00004
1.00013
1.00024
1.00077
1.0014
1.00434
1.00847
1.02327
1.05703
1.13362
1.39253
2.07228
2.59067
2.72613
2.71933
2.71306
2.72893
2.74352
2.75612
2.76026
2.75962
2.75997
2.77658
1
1.00002
1.00004
1.00012
1.00022
1.00072
1.0013
1.00405
1.00777
1.02198
1.05097
1.12359
1.34967
1.97941
2.55605
2.71853
2.71008
2.69792
2.7147
2.72842
2.7402
2.75039
2.75108
2.74696
2.76629
1
1.00002
1.00003
1.00011
1.00021
1.00066
1.0012
1.00373
1.0071
1.02042
1.0454
1.11515
1.30646
1.90254
2.49678
2.70125
2.69537
2.6866
2.70175
2.71516
2.7258
2.73082
2.73369
2.73388
2.74537
1
1.00002
1.00003
1.0001
1.00019
1.0006
1.00109
1.00339
1.00643
1.01858
1.04117
1.1039
1.27812
1.80514
2.48588
2.69229
2.68157
2.67191
2.68723
2.69839
2.71092
2.71644
2.7143
2.70645
2.72048
1
1.00001
1.00003
1.00009
1.00016
1.00052
1.00095
1.00294
1.00573
1.01571
1.03806
1.08925
1.25923
1.67593
2.44789
2.6775
2.67098
2.66872
2.67159
2.68042
2.68885
2.69249
2.69167
2.67979
2.66463
1
1.00001
1.00002
1.00008
1.00014
1.00043
1.00082
1.0023
1.00512
1.0126
1.03467
1.07597
1.23762
1.57926
2.34691
2.64074
2.66478
2.66212
2.66047
2.66677
2.66674
2.66318
2.65107
2.62221
2.58295
1
1.00002
1.00005
1.00015
1.00027
1.00087
1.00162
1.00476
1.01004
1.02585
1.07018
1.15496
1.48783
2.2479
2.65006
2.73865
2.73305
2.73086
2.74654
2.76164
2.77308
2.77929
2.77927
2.77789
2.79616
1
1.00002
1.00004
1.00015
1.00027
1.00086
1.00159
1.0047
1.00989
1.02551
1.06905
1.15287
1.47921
2.23298
2.64596
2.73844
2.73266
2.73006
2.74548
2.76028
2.77163
2.77736
2.777
2.77518
2.79334
1
1.00002
1.00004
1.00015
1.00026
1.00084
1.00155
1.00458
1.00957
1.02482
1.06668
1.14855
1.46063
2.19976
2.63508
2.73659
2.73059
2.72716
2.74263
2.75691
2.768
2.77447
2.77437
2.77238
2.78971
1
1.00002
1.00004
1.00014
1.00025
1.00081
1.00148
1.00442
1.00911
1.02387
1.06298
1.14203
1.43204
2.1462
2.61698
2.7328
2.72638
2.7206
2.73527
2.75061
2.76294
2.76979
2.77009
2.7683
2.78527
1
1.00002
1.00004
1.00013
1.00024
1.00077
1.0014
1.00434
1.00847
1.02327
1.05703
1.13362
1.39253
2.07228
2.59067
2.72613
2.71933
2.71306
2.72893
2.74352
2.75612
2.76026
2.75962
2.75997
2.77658
1
1.00002
1.00004
1.00012
1.00022
1.00072
1.0013
1.00405
1.00777
1.02198
1.05097
1.12359
1.34967
1.97941
2.55605
2.71853
2.71008
2.69792
2.7147
2.72842
2.7402
2.75039
2.75108
2.74696
2.76629
1
1.00002
1.00003
1.00011
1.00021
1.00066
1.0012
1.00373
1.0071
1.02042
1.0454
1.11515
1.30646
1.90254
2.49678
2.70125
2.69537
2.6866
2.70175
2.71516
2.7258
2.73082
2.73369
2.73388
2.74537
1
1.00002
1.00003
1.0001
1.00019
1.0006
1.00109
1.00339
1.00643
1.01858
1.04117
1.1039
1.27812
1.80514
2.48588
2.69229
2.68157
2.67191
2.68723
2.69839
2.71092
2.71644
2.7143
2.70645
2.72048
1
1.00001
1.00003
1.00009
1.00016
1.00052
1.00095
1.00294
1.00573
1.01571
1.03806
1.08925
1.25923
1.67593
2.44789
2.6775
2.67098
2.66872
2.67159
2.68042
2.68885
2.69249
2.69167
2.67979
2.66463
1
1.00001
1.00002
1.00008
1.00014
1.00043
1.00082
1.0023
1.00512
1.0126
1.03467
1.07597
1.23762
1.57926
2.34691
2.64074
2.66478
2.66212
2.66047
2.66677
2.66674
2.66318
2.65107
2.62221
2.58295
1
1.00002
1.00005
1.00015
1.00027
1.00087
1.00162
1.00476
1.01004
1.02585
1.07018
1.15496
1.48783
2.2479
2.65006
2.73865
2.73305
2.73086
2.74654
2.76164
2.77308
2.77929
2.77927
2.77789
2.79616
1
1.00002
1.00004
1.00015
1.00027
1.00086
1.00159
1.0047
1.00989
1.02551
1.06905
1.15287
1.47921
2.23298
2.64596
2.73844
2.73266
2.73006
2.74548
2.76028
2.77163
2.77736
2.777
2.77518
2.79334
1
1.00002
1.00004
1.00015
1.00026
1.00084
1.00155
1.00458
1.00957
1.02482
1.06668
1.14855
1.46063
2.19976
2.63508
2.73659
2.73059
2.72716
2.74263
2.75691
2.768
2.77447
2.77437
2.77238
2.78971
1
1.00002
1.00004
1.00014
1.00025
1.00081
1.00148
1.00442
1.00911
1.02387
1.06298
1.14203
1.43204
2.1462
2.61698
2.7328
2.72638
2.7206
2.73527
2.75061
2.76294
2.76979
2.77009
2.7683
2.78527
1
1.00002
1.00004
1.00013
1.00024
1.00077
1.0014
1.00434
1.00847
1.02327
1.05703
1.13362
1.39253
2.07228
2.59067
2.72613
2.71933
2.71306
2.72893
2.74352
2.75612
2.76026
2.75962
2.75997
2.77658
1
1.00002
1.00004
1.00012
1.00022
1.00072
1.0013
1.00405
1.00777
1.02198
1.05097
1.12359
1.34967
1.97941
2.55605
2.71853
2.71008
2.69792
2.7147
2.72842
2.7402
2.75039
2.75108
2.74696
2.76629
1
1.00002
1.00003
1.00011
1.00021
1.00066
1.0012
1.00373
1.0071
1.02042
1.0454
1.11515
1.30646
1.90254
2.49678
2.70125
2.69537
2.6866
2.70175
2.71516
2.7258
2.73082
2.73369
2.73388
2.74537
1
1.00002
1.00003
1.0001
1.00019
1.0006
1.00109
1.00339
1.00643
1.01858
1.04117
1.1039
1.27812
1.80514
2.48588
2.69229
2.68157
2.67191
2.68723
2.69839
2.71092
2.71644
2.7143
2.70645
2.72048
1
1.00001
1.00003
1.00009
1.00016
1.00052
1.00095
1.00294
1.00573
1.01571
1.03806
1.08925
1.25923
1.67593
2.44789
2.6775
2.67098
2.66872
2.67159
2.68042
2.68885
2.69249
2.69167
2.67979
2.66463
1
1.00001
1.00002
1.00008
1.00014
1.00043
1.00082
1.0023
1.00512
1.0126
1.03467
1.07597
1.23762
1.57926
2.34691
2.64074
2.66478
2.66212
2.66047
2.66677
2.66674
2.66318
2.65107
2.62221
2.58295
1
1.00002
1.00005
1.00015
1.00027
1.00087
1.00162
1.00476
1.01004
1.02585
1.07018
1.15496
1.48783
2.24789
2.65006
2.73865
2.73305
2.73086
2.74654
2.76164
2.77308
2.77929
2.77927
2.77789
2.79616
1
1.00002
1.00004
1.00015
1.00027
1.00086
1.00159
1.0047
1.00989
1.02551
1.06905
1.15287
1.47921
2.23298
2.64596
2.73844
2.73266
2.73006
2.74548
2.76028
2.77163
2.77736
2.777
2.77518
2.79334
1
1.00002
1.00004
1.00015
1.00026
1.00084
1.00155
1.00458
1.00957
1.02481
1.06668
1.14855
1.46063
2.19976
2.63508
2.73659
2.73059
2.72716
2.74263
2.75691
2.768
2.77447
2.77437
2.77238
2.78971
1
1.00002
1.00004
1.00014
1.00025
1.00081
1.00148
1.00442
1.00911
1.02387
1.06298
1.14202
1.43204
2.1462
2.61698
2.7328
2.72638
2.7206
2.73527
2.75061
2.76294
2.76979
2.77009
2.7683
2.78527
1
1.00002
1.00004
1.00013
1.00024
1.00077
1.0014
1.00434
1.00847
1.02327
1.05703
1.13362
1.39252
2.07228
2.59067
2.72613
2.71933
2.71306
2.72893
2.74352
2.75612
2.76026
2.75962
2.75997
2.77658
1
1.00002
1.00004
1.00012
1.00022
1.00072
1.0013
1.00405
1.00777
1.02198
1.05097
1.12359
1.34967
1.97941
2.55605
2.71853
2.71008
2.69792
2.7147
2.72842
2.7402
2.75039
2.75108
2.74696
2.76629
1
1.00002
1.00003
1.00011
1.00021
1.00066
1.0012
1.00373
1.0071
1.02042
1.0454
1.11515
1.30646
1.90254
2.49678
2.70126
2.69537
2.6866
2.70175
2.71516
2.7258
2.73082
2.73369
2.73388
2.74537
1
1.00002
1.00003
1.0001
1.00019
1.0006
1.00109
1.00339
1.00643
1.01858
1.04117
1.10389
1.27812
1.80514
2.48588
2.69229
2.68157
2.67191
2.68723
2.69839
2.71092
2.71644
2.7143
2.70645
2.72048
1
1.00001
1.00003
1.00009
1.00016
1.00052
1.00095
1.00294
1.00573
1.01571
1.03806
1.08925
1.25923
1.67593
2.44789
2.6775
2.67099
2.66872
2.67159
2.68042
2.68885
2.69249
2.69167
2.67979
2.66463
1
1.00001
1.00002
1.00008
1.00014
1.00043
1.00082
1.0023
1.00512
1.0126
1.03467
1.07597
1.23762
1.57925
2.3469
2.64074
2.66478
2.66212
2.66047
2.66678
2.66675
2.66318
2.65107
2.62221
2.58295
0.999995
1.00002
1.00004
1.00014
1.00027
1.00086
1.00161
1.00475
1.01003
1.02583
1.07016
1.15492
1.48779
2.24777
2.64999
2.73858
2.73299
2.73081
2.74649
2.76158
2.773
2.7792
2.77918
2.7778
2.79608
0.999995
1.00002
1.00004
1.00014
1.00026
1.00085
1.00158
1.00469
1.00988
1.02549
1.06904
1.15283
1.47917
2.23285
2.64589
2.73837
2.7326
2.73001
2.74543
2.76022
2.77155
2.77727
2.77691
2.7751
2.79327
0.999995
1.00002
1.00004
1.00014
1.00025
1.00083
1.00154
1.00457
1.00956
1.0248
1.06667
1.14851
1.4606
2.19963
2.63501
2.73652
2.73053
2.7271
2.74258
2.75684
2.76793
2.77438
2.77428
2.7723
2.78963
0.999995
1.00001
1.00003
1.00013
1.00024
1.0008
1.00147
1.00441
1.0091
1.02385
1.06298
1.14199
1.43205
2.14611
2.61692
2.73274
2.72632
2.72054
2.73522
2.75055
2.76287
2.7697
2.77
2.76822
2.7852
0.999995
1.00001
1.00003
1.00013
1.00023
1.00076
1.00139
1.00433
1.00846
1.02325
1.05702
1.13359
1.39252
2.07219
2.59061
2.72607
2.71928
2.71301
2.72888
2.74346
2.75604
2.76017
2.75953
2.75989
2.77651
0.999995
1.00001
1.00003
1.00012
1.00022
1.00071
1.00129
1.00404
1.00776
1.02197
1.05096
1.12356
1.34966
1.9793
2.556
2.71847
2.71001
2.69785
2.71464
2.72835
2.74012
2.7503
2.75099
2.74688
2.76622
0.999995
1.00001
1.00003
1.00011
1.0002
1.00065
1.00119
1.00372
1.00709
1.02041
1.04539
1.11512
1.30644
1.90246
2.49672
2.70121
2.69533
2.68654
2.70168
2.71509
2.72572
2.73074
2.73361
2.7338
2.7453
0.999995
1.00001
1.00002
1.0001
1.00018
1.00059
1.00108
1.00338
1.00642
1.01857
1.04116
1.10387
1.27811
1.80506
2.48584
2.69224
2.68151
2.67186
2.68717
2.69833
2.71085
2.71637
2.71423
2.70638
2.72042
0.999994
1.00001
1.00002
1.00008
1.00016
1.00052
1.00094
1.00293
1.00572
1.01569
1.03806
1.08922
1.25925
1.67586
2.44783
2.67745
2.67095
2.66867
2.67154
2.68037
2.6888
2.69242
2.6916
2.67972
2.66457
0.999994
1
1.00002
1.00007
1.00013
1.00042
1.00081
1.00229
1.00511
1.01259
1.03466
1.07595
1.23761
1.5792
2.34683
2.64068
2.66474
2.66207
2.66043
2.66673
2.6667
2.66313
2.65101
2.62214
2.5829
0.999996
1
1.00002
1.00004
1.00016
1.0003
1.00093
1.0018
1.00504
1.0114
1.02811
1.07924
1.17187
1.54066
2.31967
2.57763
2.64593
2.6441
2.64241
2.64741
2.64704
2.63917
2.61526
2.55477
2.36281
0.999995
0.999999
1.00002
1.00004
1.00014
1.00026
1.00083
1.00154
1.00457
1.00954
1.02475
1.06621
1.14789
1.45292
2.18092
2.5315
2.637
2.62996
2.62025
2.61796
2.61293
2.59679
2.56222
2.49342
2.29312
0.999995
0.999998
1.00001
1.00003
1.00012
1.00022
1.00072
1.00131
1.00411
1.00787
1.02225
1.0518
1.12477
1.35396
1.97972
2.45178
2.61806
2.61285
2.60613
2.60024
2.59217
2.57103
2.52378
2.45598
2.29326
0.999995
0.999997
1.00001
1.00002
1.0001
1.00018
1.00059
1.00108
1.00339
1.00641
1.01865
1.0402
1.10491
1.26489
1.7947
2.34305
2.57949
2.57551
2.574
2.56464
2.55329
2.53144
2.48663
2.43156
2.30406
0.999994
0.999996
1.00001
1.00002
1.00007
1.00014
1.00046
1.00085
1.00256
1.00518
1.01378
1.03426
1.07946
1.22753
1.59411
2.26278
2.53816
2.55798
2.55591
2.54889
2.53084
2.5057
2.4505
2.4025
2.31188
0.999994
0.999997
1
1.00002
1.00004
1.00015
1.00028
1.00086
1.00168
1.00465
1.01055
1.0257
1.07228
1.15555
1.49093
2.19415
2.44976
2.52287
2.51715
2.51413
2.50387
2.48401
2.43616
2.38097
2.30872
0.999994
0.999996
0.999999
1.00001
1.00003
1.00012
1.00023
1.00074
1.00134
1.00418
1.00802
1.02246
1.05297
1.1258
1.35912
1.97695
2.3821
2.50757
2.5037
2.49311
2.4699
2.45116
2.41592
2.36117
2.3005
0.999993
0.999995
0.999997
1.00001
1.00002
1.00009
1.00017
1.00056
1.00103
1.00317
1.0061
1.01744
1.03786
1.09902
1.24409
1.7471
2.22225
2.46132
2.47317
2.46841
2.45385
2.42828
2.39709
2.34794
2.2888
0.999993
0.999993
0.999997
1
1.00002
1.00005
1.00017
1.00031
1.00097
1.00185
1.00522
1.01142
1.02845
1.07781
1.16854
1.51313
2.17737
2.40403
2.44344
2.43679
2.42539
2.4019
2.37559
2.3366
2.28444
0.999992
0.999993
0.999995
0.999999
1.00001
1.00003
1.00013
1.00024
1.00076
1.0014
1.0043
1.00842
1.02296
1.05572
1.13071
1.37215
2.00939
2.31545
2.41711
2.41556
2.40399
2.37888
2.35195
2.31755
2.27307
0.999992
0.999992
0.999993
0.999998
1
1.00003
1.00006
1.00022
1.00041
1.00124
1.0024
1.00669
1.01486
1.03662
1.09953
1.22725
1.60482
2.18901
2.37416
2.38313
2.37781
2.36244
2.33259
2.30416
2.26627
0.999991
0.999992
0.999993
0.999996
1
1.00002
1.00004
1.00016
1.00029
1.00091
1.00171
1.00493
1.0105
1.02653
1.07126
1.15577
1.46935
2.0924
2.32159
2.35568
2.34758
2.33526
2.30994
2.28014
2.25053
0.999991
0.999991
0.999992
0.999994
0.999999
1.00001
1.00004
1.00008
1.00026
1.00049
1.00141
1.003
1.00759
1.01951
1.04435
1.12914
1.2887
1.80668
2.21344
2.3327
2.32949
2.31364
2.29581
2.26501
2.23508
0.999991
0.999991
0.999992
0.999993
0.999997
1
1.00003
1.00005
1.00019
1.00035
1.0011
1.00203
1.00609
1.01222
1.03232
1.08023
1.18933
1.50249
2.0899
2.28005
2.30023
2.29287
2.27362
2.24773
2.21476
0.999991
0.999991
0.999991
0.999993
0.999994
1
1.00001
1.00005
1.00009
1.0003
1.00057
1.00167
1.00338
1.00888
1.02153
1.05037
1.14321
1.32649
1.84331
2.17853
2.27486
2.27422
2.26337
2.24051
2.20867
0.999991
0.999991
0.999991
0.999992
0.999993
0.999998
1
1.00003
1.00006
1.00021
1.00038
1.0012
1.00222
1.00662
1.01315
1.03524
1.08208
1.20833
1.49956
2.04696
2.21674
2.23513
2.23452
2.22243
2.1964
0.999991
0.999991
0.999991
0.999991
0.999993
0.999994
1
1.00001
1.00005
1.0001
1.00032
1.00061
1.00184
1.00355
1.00986
1.02182
1.05341
1.14207
1.3433
1.82963
2.14123
2.21414
2.21393
2.20726
2.19015
0.999991
0.999991
0.999991
0.999991
0.999992
0.999993
0.999998
1
1.00003
1.00006
1.00021
1.00039
1.00121
1.00226
1.00661
1.01341
1.0349
1.08426
1.20518
1.49872
1.98418
2.1677
2.18102
2.18009
2.16972
0.999991
0.999991
0.999991
0.999991
0.999991
0.999993
0.999994
1
1.00001
1.00005
1.0001
1.00032
1.00061
1.00182
1.00353
1.00985
1.02147
1.05289
1.1345
1.34349
1.77576
2.08338
2.15879
2.15922
2.1522
0.999991
0.999991
0.999991
0.999991
0.999991
0.999992
0.999994
0.999996
1.00001
1.00002
1.00008
1.00016
1.00049
1.00092
1.00272
1.00532
1.01459
1.03177
1.08081
1.19206
1.54731
1.91686
2.111
2.12973
2.12881
0.999991
0.999991
0.999991
0.999991
0.999991
0.999991
0.999993
0.999994
1
1.00001
1.00005
1.0001
1.00031
1.00058
1.00176
1.0033
1.00953
1.01969
1.0503
1.12248
1.31193
1.71381
2.02225
2.10483
2.10705
0.999991
0.999991
0.999991
0.999991
0.999991
0.999991
0.999992
0.999993
0.999996
1.00001
1.00002
1.00007
1.00014
1.00045
1.00085
1.00247
1.00486
1.01333
1.0283
1.07447
1.16832
1.49973
1.84479
2.05066
2.08033
0.999991
0.999991
0.999991
0.999991
0.999991
0.999991
0.999991
0.999992
0.999994
1
1.00001
1.00004
1.00009
1.00028
1.00051
1.00158
1.00291
1.00852
1.01717
1.04417
1.10744
1.25946
1.63564
1.93759
2.04398
0.999991
0.999991
0.999991
0.999991
0.999991
0.999991
0.999991
0.999992
0.999993
0.999996
1
1.00002
1.00005
1.00016
1.0003
1.00094
1.00172
1.00513
1.00987
1.0266
1.06105
1.14384
1.37078
1.79737
1.97753
0.999991
0.999991
0.999991
0.999991
0.999991
0.999991
0.999991
0.999991
0.999992
0.999994
0.999997
1.00001
1.00002
1.00009
1.00017
1.00055
1.00101
1.00301
1.00574
1.01588
1.03443
1.08436
1.20974
1.56831
1.84009
0.999991
0.999991
0.999991
0.999991
0.999991
0.999991
0.999991
0.999991
0.999991
0.999992
0.999995
0.999999
1.00001
1.00004
1.00012
1.00024
1.00072
1.00137
1.00378
1.00809
1.01985
1.05129
1.11001
1.31647
1.71698
0.999991
0.999991
0.999991
0.999991
0.999991
0.999991
0.999991
0.999991
0.999991
0.999992
0.999993
0.999997
1
1.00002
1.00005
1.00017
1.00033
1.00098
1.00187
1.00526
1.01085
1.02749
1.06603
1.15605
1.3818
0.999991
0.999991
0.999991
0.999991
0.999991
0.999991
0.999991
0.999991
0.999991
0.999991
0.999992
0.999993
0.999999
1.00001
1.00004
1.00007
1.00024
1.00045
1.00133
1.00252
1.00716
1.01465
1.03722
1.08921
1.21436
0.999991
0.999991
0.999991
0.999991
0.999991
0.999991
0.999991
0.999991
0.999991
0.999991
0.999992
0.999992
0.999995
0.999999
1.00002
1.00004
1.00013
1.00025
1.00076
1.0014
1.00416
1.00796
1.02131
1.04924
1.11167
0.999991
0.999991
0.999991
0.999991
0.999991
0.999991
0.999991
0.999991
0.999991
0.999991
0.999991
0.999992
0.999993
0.999997
1
1.00002
1.00005
1.00017
1.00032
1.00095
1.00182
1.00509
1.01038
1.02665
1.0607
0.999991
0.999991
0.999991
0.999991
0.999991
0.999991
0.999991
0.999991
0.999991
0.999991
0.999991
0.999991
0.999992
0.999993
0.999998
1.00001
1.00003
1.00007
1.00022
1.00042
1.00123
1.00236
1.00654
1.0134
1.03419
0.999991
0.999991
0.999991
0.999991
0.999991
0.999991
0.999991
0.999991
0.999991
0.999991
0.999991
0.999991
0.999991
0.999993
0.999994
1
1.00001
1.00005
1.00009
1.00029
1.00054
1.00158
1.00303
1.00835
1.01724
0.999991
0.999991
0.999991
0.999991
0.999991
0.999991
0.999991
0.999991
0.999991
0.999991
0.999991
0.999991
0.999991
0.999992
0.999993
0.999996
1
1.00002
1.00005
1.00015
1.00028
1.00086
1.00159
1.00461
1.0089
0.999991
0.999991
0.999991
0.999991
0.999991
0.999991
0.999991
0.999991
0.999991
0.999991
0.999991
0.999991
0.999991
0.999991
0.999992
0.999993
0.999997
1
1.00003
1.00006
1.00018
1.00035
1.00101
1.00194
1.00532
0.999991
0.999991
0.999991
0.999991
0.999991
0.999991
0.999991
0.999991
0.999991
0.999991
0.999991
0.999991
0.999991
0.999991
0.999991
0.999992
0.999994
0.999999
1.00001
1.00003
1.00007
1.00023
1.00043
1.00125
1.0024
0.999991
0.999991
0.999991
0.999991
0.999991
0.999991
0.999991
0.999991
0.999991
0.999991
0.999991
0.999991
0.999991
0.999991
0.999991
0.999991
0.999993
0.999994
1
1.00001
1.00004
1.00009
1.00028
1.00053
1.00152
0.999991
0.999991
0.999991
0.999991
0.999991
0.999991
0.999991
0.999991
0.999991
0.999991
0.999991
0.999991
0.999991
0.999991
0.999991
0.999991
0.999991
0.999993
0.999995
1
1.00001
1.00006
1.00011
1.00034
1.00065
0.999991
0.999991
0.999991
0.999991
0.999991
0.999991
0.999991
0.999991
0.999991
0.999991
0.999991
0.999991
0.999991
0.999991
0.999991
0.999991
0.999991
0.999992
0.999993
0.999997
1
1.00003
1.00006
1.00019
1.00035
0.999991
0.999991
0.999991
0.999991
0.999991
0.999991
0.999991
0.999991
0.999991
0.999991
0.999991
0.999991
0.999991
0.999991
0.999991
0.999991
0.999991
0.999991
0.999992
0.999994
1
1.00001
1.00004
1.00009
1.00027
0.999991
0.999991
0.999991
0.999991
0.999991
0.999991
0.999991
0.999991
0.999991
0.999991
0.999991
0.999991
0.999991
0.999991
0.999991
0.999991
0.999991
0.999991
0.999992
0.999993
0.999998
1
1.00003
1.00007
1.00022
1
1.00001
1.00003
1.00005
1.00017
1.00031
1.00094
1.00181
1.00505
1.01141
1.02813
1.07925
1.17191
1.54068
2.31976
2.57769
2.64597
2.64415
2.64246
2.64746
2.64709
2.63922
2.61532
2.55483
2.36284
1
1.00001
1.00002
1.00005
1.00015
1.00026
1.00084
1.00155
1.00458
1.00955
1.02476
1.06622
1.14793
1.45295
2.18102
2.53155
2.63705
2.63
2.62029
2.618
2.61298
2.59683
2.56228
2.49348
2.29316
1
1.00001
1.00002
1.00004
1.00013
1.00023
1.00073
1.00132
1.00412
1.00788
1.02226
1.05181
1.1248
1.35397
1.9798
2.45184
2.61811
2.61289
2.60617
2.60028
2.59221
2.57107
2.52383
2.45603
2.2933
1
1.00001
1.00002
1.00003
1.00011
1.00019
1.0006
1.00109
1.0034
1.00642
1.01867
1.04021
1.10493
1.2649
1.79477
2.34308
2.57953
2.57555
2.57405
2.56469
2.55333
2.53148
2.48667
2.43161
2.30411
1
1
1.00001
1.00003
1.00008
1.00015
1.00047
1.00086
1.00257
1.00519
1.0138
1.03426
1.07948
1.22752
1.59415
2.26283
2.53821
2.55803
2.55595
2.54894
2.53088
2.50574
2.45053
2.40251
2.3119
1
1
1.00001
1.00003
1.00005
1.00016
1.00029
1.00087
1.00169
1.00466
1.01056
1.02572
1.07229
1.15558
1.49094
2.19422
2.44982
2.52291
2.51719
2.51417
2.50392
2.48406
2.43622
2.38102
2.30875
1
1
1.00001
1.00002
1.00004
1.00013
1.00023
1.00075
1.00135
1.00419
1.00803
1.02248
1.05297
1.12583
1.35912
1.97702
2.38215
2.50761
2.50374
2.49314
2.46992
2.45117
2.41594
2.3612
2.30053
1
1
1.00001
1.00002
1.00003
1.0001
1.00018
1.00057
1.00104
1.00318
1.00611
1.01745
1.03787
1.09904
1.24411
1.74714
2.2223
2.46137
2.47321
2.46845
2.4539
2.42832
2.39713
2.34797
2.28883
1
1
1.00001
1.00001
1.00003
1.00006
1.00017
1.00032
1.00098
1.00186
1.00523
1.01143
1.02847
1.07782
1.16857
1.51316
2.17746
2.40406
2.44347
2.43682
2.42543
2.40194
2.37562
2.33664
2.28447
1
1
1
1.00001