/*--------------------------------*- C++ -*----------------------------------*\
| =========                 |                                                 |
| \\      /  F ield         | OpenFOAM: The Open Source CFD Toolbox           |
|  \\    /   O peration     | Version:  4.1                                   |
|   \\  /    A nd           | Web:      www.OpenFOAM.org                      |
|    \\/     M anipulation  |                                                 |
\*---------------------------------------------------------------------------*/
FoamFile
{
    version     2.0;
    format      ascii;
    class       volScalarField;
    location    "6.88";
    object      Ma;
}
// * * * * * * * * * * * * * * * * * * * * * * * * * * * * * * * * * * * * * //

dimensions      [0 0 0 0 0 0 0];

internalField   nonuniform List<scalar> 
52500
(
3.00001
2.99996
2.9999
2.99963
2.99926
2.99774
2.99558
2.98711
2.97372
2.92812
2.82987
2.59595
2.01146
1.13219
0.472522
0.306656
0.338386
0.345439
0.314751
0.262062
0.210056
0.167684
0.125937
0.0794866
0.0458051
3.00001
2.99996
2.9999
2.99964
2.99927
2.99777
2.99564
2.98732
2.97404
2.92918
2.83139
2.60042
2.01894
1.1429
0.478806
0.306808
0.339429
0.347089
0.316614
0.264679
0.21406
0.173319
0.133943
0.0929346
0.0691439
3.00001
2.99996
2.9999
2.99965
2.99929
2.99784
2.99577
2.98775
2.9747
2.9313
2.83469
2.60974
2.03572
1.1673
0.493968
0.309338
0.34385
0.353036
0.323408
0.273518
0.226119
0.189192
0.155165
0.12326
0.108311
3.00002
2.99997
2.99991
2.99966
2.99932
2.99793
2.99594
2.98827
2.97565
2.93414
2.84069
2.6242
2.06232
1.20616
0.516525
0.312275
0.350084
0.361989
0.33401
0.287423
0.244574
0.212753
0.184923
0.160995
0.151278
3.00002
2.99997
2.99991
2.99968
2.99936
2.99805
2.99616
2.98898
2.9769
2.93799
2.84882
2.64384
2.09826
1.25969
0.545998
0.315613
0.357982
0.373653
0.347976
0.305525
0.267822
0.241535
0.219972
0.202423
0.196411
3.00002
2.99997
2.99992
2.9997
2.9994
2.99817
2.9964
2.98964
2.97843
2.94178
2.85911
2.66571
2.15553
1.3359
0.589026
0.325596
0.371224
0.390595
0.366871
0.328993
0.29639
0.275399
0.259823
0.248508
0.246169
3.00002
2.99998
2.99993
2.99972
2.99944
2.99829
2.99665
2.9902
2.98013
2.94549
2.87271
2.6921
2.23056
1.43631
0.644795
0.344524
0.39195
0.414306
0.39195
0.358065
0.330604
0.315022
0.305529
0.30078
0.30424
3.00002
2.99998
2.99994
2.99975
2.99949
2.99843
2.99694
2.99099
2.98201
2.94982
2.88813
2.72195
2.31694
1.56019
0.712391
0.376471
0.422825
0.445401
0.424292
0.394029
0.370737
0.360478
0.357872
0.36198
0.375872
3.00002
2.99999
2.99995
2.99978
2.99955
2.9986
2.99727
2.99194
2.98395
2.95498
2.90197
2.75025
2.40439
1.68741
0.788216
0.420684
0.461695
0.4799
0.461784
0.436819
0.418105
0.412856
0.41811
0.435891
0.473266
3.00002
2.99999
2.99996
2.99981
2.99961
2.99879
2.9976
2.99298
2.98585
2.9607
2.91292
2.78049
2.46312
1.79894
0.866611
0.470856
0.49246
0.504822
0.497474
0.479944
0.468859
0.470264
0.488723
0.533302
0.634534
3
2.99994
2.99988
2.99961
2.99924
2.99772
2.99556
2.98709
2.97369
2.92808
2.82985
2.59589
2.01142
1.13209
0.472383
0.306473
0.338215
0.345268
0.314562
0.261832
0.209761
0.167304
0.125415
0.0786278
0.0442562
3
2.99995
2.99988
2.99962
2.99925
2.99775
2.99562
2.9873
2.97402
2.92913
2.83137
2.60036
2.01891
1.1428
0.478674
0.306634
0.339265
0.346924
0.31643
0.264452
0.213768
0.172948
0.13345
0.0922076
0.0681475
3
2.99995
2.99988
2.99963
2.99927
2.99782
2.99575
2.98772
2.97467
2.93126
2.83467
2.60968
2.03568
1.16718
0.49382
0.309147
0.343673
0.352861
0.323217
0.273289
0.225837
0.188849
0.154742
0.122722
0.107693
3
2.99995
2.99989
2.99964
2.9993
2.99791
2.99592
2.98825
2.97562
2.9341
2.84065
2.62414
2.06225
1.20604
0.516383
0.312089
0.349908
0.361815
0.33382
0.287201
0.244312
0.21245
0.184572
0.160592
0.150846
3
2.99995
2.9999
2.99966
2.99934
2.99803
2.99614
2.98895
2.97688
2.93795
2.84878
2.64377
2.09819
1.25956
0.545864
0.315431
0.357811
0.373483
0.347792
0.305316
0.267583
0.24127
0.219682
0.202109
0.196087
3
2.99996
2.9999
2.99968
2.99938
2.99815
2.99638
2.98961
2.9784
2.94175
2.85908
2.66564
2.15545
1.33576
0.588899
0.325416
0.371056
0.39043
0.366696
0.328799
0.296176
0.275169
0.259581
0.248258
0.245917
3
2.99996
2.99991
2.99971
2.99942
2.99827
2.99663
2.99018
2.98011
2.94545
2.8727
2.69204
2.23053
1.43619
0.644692
0.344362
0.391797
0.414155
0.39179
0.35789
0.330415
0.314824
0.305328
0.300578
0.304042
3
2.99996
2.99992
2.99973
2.99947
2.99841
2.99692
2.99097
2.98199
2.94979
2.88811
2.72189
2.31689
1.56007
0.712293
0.376316
0.422681
0.445263
0.424146
0.393872
0.370571
0.360308
0.357704
0.361817
0.375716
3
2.99997
2.99993
2.99976
2.99953
2.99858
2.99725
2.99192
2.98393
2.95496
2.90194
2.7502
2.40433
1.68732
0.788127
0.420543
0.461567
0.47978
0.461656
0.436682
0.417961
0.412712
0.41797
0.43576
0.473149
3
2.99997
2.99994
2.99979
2.99959
2.99877
2.99758
2.99296
2.98583
2.96067
2.91289
2.78044
2.46308
1.79883
0.866518
0.470716
0.492346
0.504718
0.497361
0.479824
0.468735
0.470141
0.488608
0.5332
0.634454
3
2.99994
2.99988
2.99961
2.99924
2.99772
2.99556
2.98709
2.97369
2.92808
2.82985
2.59589
2.01142
1.13208
0.47238
0.306474
0.338216
0.345268
0.314562
0.261832
0.209761
0.167305
0.125415
0.0786278
0.0442561
3
2.99995
2.99988
2.99962
2.99925
2.99775
2.99562
2.9873
2.97402
2.92913
2.83137
2.60036
2.0189
1.14279
0.478671
0.306635
0.339265
0.346924
0.316429
0.264452
0.213768
0.172948
0.13345
0.0922075
0.0681474
3
2.99995
2.99988
2.99963
2.99927
2.99782
2.99575
2.98772
2.97467
2.93126
2.83467
2.60968
2.03567
1.16717
0.493818
0.309149
0.343673
0.352861
0.323217
0.273289
0.225837
0.188849
0.154742
0.122722
0.107693
3
2.99995
2.99989
2.99964
2.9993
2.99791
2.99592
2.98825
2.97562
2.9341
2.84065
2.62413
2.06224
1.20603
0.516381
0.31209
0.349909
0.361815
0.33382
0.287201
0.244312
0.21245
0.184572
0.160592
0.150846
3
2.99995
2.9999
2.99966
2.99934
2.99803
2.99614
2.98895
2.97688
2.93795
2.84878
2.64377
2.09818
1.25956
0.545861
0.315432
0.357811
0.373483
0.347792
0.305316
0.267583
0.24127
0.219682
0.202109
0.196087
3
2.99996
2.9999
2.99968
2.99938
2.99815
2.99638
2.98961
2.9784
2.94175
2.85908
2.66564
2.15545
1.33576
0.588895
0.325416
0.371056
0.39043
0.366695
0.328799
0.296176
0.275169
0.259582
0.248258
0.245917
3
2.99996
2.99991
2.99971
2.99942
2.99827
2.99663
2.99018
2.98011
2.94545
2.87269
2.69204
2.23052
1.43618
0.644688
0.344362
0.391796
0.414155
0.391789
0.357889
0.330415
0.314824
0.305328
0.300578
0.304042
3
2.99996
2.99992
2.99973
2.99947
2.99841
2.99692
2.99097
2.98198
2.94979
2.8881
2.72189
2.31688
1.56006
0.712289
0.376315
0.422679
0.445261
0.424145
0.393871
0.37057
0.360308
0.357704
0.361817
0.375716
3
2.99997
2.99993
2.99976
2.99953
2.99858
2.99725
2.99192
2.98393
2.95496
2.90194
2.7502
2.40433
1.68732
0.788124
0.420541
0.461566
0.47978
0.461655
0.436681
0.417961
0.412711
0.41797
0.43576
0.473149
3
2.99997
2.99994
2.99979
2.99959
2.99877
2.99758
2.99296
2.98583
2.96067
2.91289
2.78043
2.46308
1.79882
0.866514
0.470713
0.492346
0.504718
0.49736
0.479824
0.468735
0.47014
0.488607
0.5332
0.634453
3
2.99994
2.99988
2.99961
2.99924
2.99772
2.99556
2.98709
2.97369
2.92808
2.82985
2.59589
2.01142
1.13208
0.47238
0.306475
0.338216
0.345268
0.314562
0.261832
0.209761
0.167305
0.125415
0.0786278
0.0442561
3
2.99995
2.99988
2.99962
2.99925
2.99775
2.99562
2.9873
2.97402
2.92913
2.83137
2.60036
2.0189
1.14279
0.478671
0.306635
0.339265
0.346924
0.316429
0.264452
0.213768
0.172948
0.13345
0.0922075
0.0681474
3
2.99995
2.99988
2.99963
2.99927
2.99782
2.99575
2.98772
2.97467
2.93126
2.83467
2.60968
2.03567
1.16717
0.493818
0.309149
0.343673
0.352861
0.323217
0.273289
0.225837
0.188849
0.154742
0.122722
0.107693
3
2.99995
2.99989
2.99964
2.9993
2.99791
2.99592
2.98825
2.97562
2.9341
2.84065
2.62413
2.06224
1.20603
0.516381
0.312091
0.349909
0.361815
0.33382
0.287201
0.244312
0.21245
0.184572
0.160592
0.150846
3
2.99995
2.9999
2.99966
2.99934
2.99803
2.99614
2.98895
2.97688
2.93795
2.84878
2.64377
2.09818
1.25956
0.545861
0.315432
0.357811
0.373483
0.347792
0.305316
0.267583
0.24127
0.219682
0.202109
0.196087
3
2.99996
2.9999
2.99968
2.99938
2.99815
2.99638
2.98961
2.9784
2.94175
2.85908
2.66564
2.15545
1.33576
0.588895
0.325417
0.371056
0.39043
0.366695
0.328799
0.296176
0.275169
0.259582
0.248258
0.245917
3
2.99996
2.99991
2.99971
2.99942
2.99827
2.99663
2.99018
2.98011
2.94545
2.87269
2.69204
2.23052
1.43618
0.644688
0.344362
0.391796
0.414155
0.391789
0.357889
0.330415
0.314824
0.305328
0.300578
0.304042
3
2.99996
2.99992
2.99973
2.99947
2.99841
2.99692
2.99097
2.98198
2.94979
2.8881
2.72189
2.31688
1.56006
0.712289
0.376315
0.422679
0.445261
0.424145
0.393871
0.37057
0.360308
0.357704
0.361817
0.375716
3
2.99997
2.99993
2.99976
2.99953
2.99858
2.99725
2.99192
2.98393
2.95496
2.90194
2.7502
2.40433
1.68732
0.788124
0.420541
0.461566
0.47978
0.461655
0.436681
0.417961
0.412711
0.41797
0.43576
0.473149
3
2.99997
2.99994
2.99979
2.99959
2.99877
2.99758
2.99296
2.98583
2.96067
2.91289
2.78043
2.46308
1.79882
0.866513
0.470713
0.492346
0.504718
0.49736
0.479824
0.468735
0.47014
0.488607
0.5332
0.634453
3
2.99994
2.99988
2.99961
2.99924
2.99772
2.99556
2.98709
2.97369
2.92808
2.82985
2.59589
2.01142
1.13208
0.472379
0.306475
0.338216
0.345268
0.314562
0.261832
0.209761
0.167305
0.125415
0.0786278
0.0442561
3
2.99995
2.99988
2.99962
2.99925
2.99775
2.99562
2.9873
2.97402
2.92913
2.83137
2.60036
2.0189
1.14279
0.47867
0.306636
0.339265
0.346924
0.316429
0.264452
0.213768
0.172948
0.13345
0.0922075
0.0681474
3
2.99995
2.99988
2.99963
2.99927
2.99782
2.99575
2.98772
2.97467
2.93126
2.83467
2.60968
2.03567
1.16717
0.493817
0.309149
0.343673
0.352861
0.323217
0.273289
0.225837
0.188849
0.154742
0.122722
0.107693
3
2.99995
2.99989
2.99964
2.9993
2.99791
2.99592
2.98825
2.97562
2.9341
2.84065
2.62413
2.06224
1.20603
0.51638
0.312091
0.349909
0.361815
0.33382
0.287201
0.244312
0.21245
0.184572
0.160592
0.150846
3
2.99995
2.9999
2.99966
2.99934
2.99803
2.99614
2.98895
2.97688
2.93795
2.84878
2.64377
2.09818
1.25956
0.54586
0.315432
0.357811
0.373483
0.347792
0.305316
0.267584
0.24127
0.219682
0.202109
0.196087
3
2.99996
2.9999
2.99968
2.99938
2.99815
2.99638
2.98961
2.9784
2.94175
2.85908
2.66564
2.15545
1.33575
0.588894
0.325417
0.371056
0.39043
0.366695
0.328799
0.296176
0.275169
0.259582
0.248258
0.245917
3
2.99996
2.99991
2.99971
2.99942
2.99827
2.99663
2.99018
2.98011
2.94545
2.87269
2.69204
2.23052
1.43618
0.644687
0.344362
0.391796
0.414154
0.391789
0.357889
0.330415
0.314824
0.305328
0.300578
0.304042
3
2.99996
2.99992
2.99973
2.99947
2.99841
2.99692
2.99097
2.98198
2.94979
2.8881
2.72189
2.31688
1.56005
0.712287
0.376314
0.422679
0.445261
0.424144
0.393871
0.37057
0.360308
0.357704
0.361817
0.375716
3
2.99997
2.99993
2.99976
2.99953
2.99858
2.99725
2.99192
2.98393
2.95496
2.90194
2.7502
2.40433
1.68732
0.788123
0.420541
0.461566
0.479779
0.461655
0.436681
0.41796
0.412711
0.41797
0.43576
0.473149
3
2.99997
2.99994
2.99979
2.99959
2.99877
2.99758
2.99296
2.98583
2.96067
2.91289
2.78043
2.46308
1.79882
0.866512
0.470712
0.492345
0.504718
0.49736
0.479824
0.468734
0.47014
0.488607
0.5332
0.634453
3
2.99994
2.99988
2.99961
2.99924
2.99772
2.99556
2.98709
2.97369
2.92808
2.82985
2.59589
2.01142
1.13208
0.472379
0.306475
0.338216
0.345268
0.314562
0.261832
0.209761
0.167305
0.125415
0.0786278
0.0442561
3
2.99995
2.99988
2.99962
2.99925
2.99775
2.99562
2.9873
2.97402
2.92913
2.83137
2.60036
2.0189
1.14279
0.47867
0.306636
0.339265
0.346924
0.316429
0.264452
0.213768
0.172948
0.13345
0.0922075
0.0681474
3
2.99995
2.99988
2.99963
2.99927
2.99782
2.99575
2.98772
2.97467
2.93126
2.83467
2.60968
2.03567
1.16717
0.493817
0.309149
0.343673
0.35286
0.323217
0.273289
0.225837
0.188849
0.154742
0.122722
0.107693
3
2.99995
2.99989
2.99964
2.9993
2.99791
2.99592
2.98825
2.97562
2.9341
2.84065
2.62413
2.06224
1.20603
0.51638
0.312091
0.349909
0.361815
0.33382
0.287201
0.244312
0.21245
0.184572
0.160592
0.150846
3
2.99995
2.9999
2.99966
2.99934
2.99803
2.99614
2.98895
2.97688
2.93795
2.84878
2.64377
2.09818
1.25955
0.54586
0.315432
0.357811
0.373483
0.347792
0.305316
0.267584
0.24127
0.219682
0.202109
0.196087
3
2.99996
2.9999
2.99968
2.99938
2.99815
2.99638
2.98961
2.9784
2.94175
2.85908
2.66564
2.15545
1.33575
0.588894
0.325417
0.371056
0.39043
0.366695
0.328799
0.296176
0.275169
0.259582
0.248258
0.245917
3
2.99996
2.99991
2.99971
2.99942
2.99827
2.99663
2.99018
2.98011
2.94545
2.87269
2.69204
2.23052
1.43618
0.644687
0.344362
0.391796
0.414154
0.391789
0.357889
0.330414
0.314824
0.305328
0.300578
0.304042
3
2.99996
2.99992
2.99973
2.99947
2.99841
2.99692
2.99097
2.98198
2.94979
2.8881
2.72189
2.31688
1.56005
0.712287
0.376314
0.422679
0.445261
0.424144
0.393871
0.37057
0.360308
0.357704
0.361817
0.375716
3
2.99997
2.99993
2.99976
2.99953
2.99858
2.99725
2.99192
2.98393
2.95496
2.90194
2.7502
2.40433
1.68732
0.788122
0.420541
0.461566
0.479779
0.461655
0.436681
0.41796
0.412711
0.41797
0.43576
0.473149
3
2.99997
2.99994
2.99979
2.99959
2.99877
2.99758
2.99296
2.98583
2.96067
2.91289
2.78043
2.46308
1.79882
0.866512
0.470712
0.492345
0.504718
0.49736
0.479823
0.468734
0.47014
0.488607
0.533199
0.634453
3
2.99994
2.99988
2.99961
2.99924
2.99772
2.99556
2.98709
2.97369
2.92808
2.82985
2.59589
2.01142
1.13208
0.47238
0.306475
0.338216
0.345268
0.314562
0.261832
0.209761
0.167305
0.125415
0.0786278
0.0442561
3
2.99995
2.99988
2.99962
2.99925
2.99775
2.99562
2.9873
2.97402
2.92913
2.83137
2.60036
2.0189
1.14279
0.478671
0.306635
0.339265
0.346924
0.316429
0.264452
0.213768
0.172948
0.13345
0.0922075
0.0681474
3
2.99995
2.99988
2.99963
2.99927
2.99782
2.99575
2.98772
2.97467
2.93126
2.83467
2.60968
2.03567
1.16717
0.493817
0.309149
0.343673
0.352861
0.323217
0.273289
0.225837
0.188849
0.154742
0.122722
0.107693
3
2.99995
2.99989
2.99964
2.9993
2.99791
2.99592
2.98825
2.97562
2.9341
2.84065
2.62413
2.06224
1.20603
0.516381
0.312091
0.349909
0.361815
0.33382
0.287201
0.244312
0.21245
0.184572
0.160592
0.150846
3
2.99995
2.9999
2.99966
2.99934
2.99803
2.99614
2.98895
2.97688
2.93795
2.84878
2.64377
2.09818
1.25956
0.545861
0.315432
0.357811
0.373483
0.347792
0.305316
0.267584
0.24127
0.219682
0.202109
0.196087
3
2.99996
2.9999
2.99968
2.99938
2.99815
2.99638
2.98961
2.9784
2.94175
2.85908
2.66564
2.15545
1.33576
0.588895
0.325417
0.371056
0.39043
0.366695
0.328799
0.296176
0.275169
0.259582
0.248258
0.245917
3
2.99996
2.99991
2.99971
2.99942
2.99827
2.99663
2.99018
2.98011
2.94545
2.87269
2.69204
2.23052
1.43618
0.644688
0.344362
0.391796
0.414154
0.391789
0.357889
0.330415
0.314824
0.305328
0.300578
0.304042
3
2.99996
2.99992
2.99973
2.99947
2.99841
2.99692
2.99097
2.98198
2.94979
2.8881
2.72189
2.31688
1.56006
0.712288
0.376315
0.422679
0.445261
0.424144
0.393871
0.37057
0.360308
0.357704
0.361817
0.375716
3
2.99997
2.99993
2.99976
2.99953
2.99858
2.99725
2.99192
2.98393
2.95496
2.90194
2.7502
2.40433
1.68732
0.788123
0.420541
0.461566
0.479779
0.461655
0.436681
0.41796
0.412711
0.41797
0.43576
0.473149
3
2.99997
2.99994
2.99979
2.99959
2.99877
2.99758
2.99296
2.98583
2.96067
2.91289
2.78043
2.46308
1.79882
0.866513
0.470713
0.492346
0.504718
0.49736
0.479824
0.468735
0.47014
0.488607
0.5332
0.634453
3
2.99994
2.99988
2.99961
2.99924
2.99772
2.99556
2.98709
2.97369
2.92808
2.82985
2.59589
2.01142
1.13208
0.47238
0.306474
0.338216
0.345268
0.314562
0.261832
0.209761
0.167305
0.125415
0.0786278
0.0442561
3
2.99995
2.99988
2.99962
2.99925
2.99775
2.99562
2.9873
2.97402
2.92913
2.83137
2.60036
2.0189
1.14279
0.478671
0.306635
0.339265
0.346924
0.316429
0.264452
0.213768
0.172948
0.13345
0.0922075
0.0681474
3
2.99995
2.99988
2.99963
2.99927
2.99782
2.99575
2.98772
2.97467
2.93126
2.83467
2.60968
2.03567
1.16717
0.493818
0.309149
0.343673
0.352861
0.323217
0.273289
0.225837
0.188849
0.154742
0.122722
0.107693
3
2.99995
2.99989
2.99964
2.9993
2.99791
2.99592
2.98825
2.97562
2.9341
2.84065
2.62413
2.06224
1.20603
0.516381
0.312091
0.349909
0.361815
0.33382
0.287201
0.244312
0.21245
0.184572
0.160592
0.150846
3
2.99995
2.9999
2.99966
2.99934
2.99803
2.99614
2.98895
2.97688
2.93795
2.84878
2.64377
2.09818
1.25956
0.545861
0.315432
0.357811
0.373483
0.347792
0.305316
0.267583
0.24127
0.219682
0.202109
0.196087
3
2.99996
2.9999
2.99968
2.99938
2.99815
2.99638
2.98961
2.9784
2.94175
2.85908
2.66564
2.15545
1.33576
0.588895
0.325416
0.371056
0.39043
0.366695
0.328799
0.296176
0.275169
0.259582
0.248258
0.245917
3
2.99996
2.99991
2.99971
2.99942
2.99827
2.99663
2.99018
2.98011
2.94545
2.87269
2.69204
2.23052
1.43618
0.644688
0.344362
0.391796
0.414155
0.391789
0.357889
0.330415
0.314824
0.305328
0.300578
0.304042
3
2.99996
2.99992
2.99973
2.99947
2.99841
2.99692
2.99097
2.98198
2.94979
2.8881
2.72189
2.31688
1.56006
0.712289
0.376315
0.422679
0.445261
0.424145
0.393871
0.37057
0.360308
0.357704
0.361817
0.375716
3
2.99997
2.99993
2.99976
2.99953
2.99858
2.99725
2.99192
2.98393
2.95496
2.90194
2.7502
2.40433
1.68732
0.788124
0.420541
0.461566
0.47978
0.461655
0.436681
0.417961
0.412711
0.41797
0.43576
0.473149
3
2.99997
2.99994
2.99979
2.99959
2.99877
2.99758
2.99296
2.98583
2.96067
2.91289
2.78043
2.46308
1.79882
0.866514
0.470713
0.492346
0.504718
0.49736
0.479824
0.468735
0.47014
0.488607
0.5332
0.634453
3
2.99994
2.99988
2.99961
2.99924
2.99772
2.99556
2.98709
2.97369
2.92808
2.82985
2.59589
2.01142
1.13209
0.472383
0.306473
0.338215
0.345268
0.314562
0.261832
0.209761
0.167304
0.125415
0.0786278
0.0442562
3
2.99995
2.99988
2.99962
2.99925
2.99775
2.99562
2.9873
2.97402
2.92913
2.83137
2.60036
2.01891
1.1428
0.478674
0.306634
0.339265
0.346924
0.31643
0.264452
0.213768
0.172948
0.13345
0.0922076
0.0681475
3
2.99995
2.99988
2.99963
2.99927
2.99782
2.99575
2.98772
2.97467
2.93126
2.83467
2.60968
2.03568
1.16718
0.49382
0.309147
0.343673
0.352861
0.323217
0.273289
0.225837
0.188849
0.154742
0.122722
0.107693
3
2.99995
2.99989
2.99964
2.9993
2.99791
2.99592
2.98825
2.97562
2.9341
2.84065
2.62414
2.06225
1.20604
0.516383
0.312089
0.349908
0.361815
0.33382
0.287201
0.244312
0.21245
0.184572
0.160592
0.150846
3
2.99995
2.9999
2.99966
2.99934
2.99803
2.99614
2.98895
2.97688
2.93795
2.84878
2.64377
2.09819
1.25956
0.545864
0.315431
0.357811
0.373483
0.347792
0.305316
0.267583
0.24127
0.219682
0.202109
0.196087
3
2.99996
2.9999
2.99968
2.99938
2.99815
2.99638
2.98961
2.9784
2.94175
2.85908
2.66564
2.15545
1.33576
0.588899
0.325416
0.371056
0.39043
0.366696
0.328799
0.296176
0.275169
0.259581
0.248258
0.245917
3
2.99996
2.99991
2.99971
2.99942
2.99827
2.99663
2.99018
2.98011
2.94545
2.8727
2.69204
2.23053
1.43619
0.644692
0.344362
0.391797
0.414155
0.39179
0.35789
0.330415
0.314824
0.305328
0.300578
0.304042
3
2.99996
2.99992
2.99973
2.99947
2.99841
2.99692
2.99097
2.98199
2.94979
2.88811
2.72189
2.31689
1.56007
0.712293
0.376316
0.422681
0.445263
0.424146
0.393872
0.370571
0.360308
0.357704
0.361817
0.375716
3
2.99997
2.99993
2.99976
2.99953
2.99858
2.99725
2.99192
2.98393
2.95496
2.90194
2.7502
2.40433
1.68732
0.788127
0.420543
0.461567
0.47978
0.461656
0.436682
0.417961
0.412712
0.41797
0.43576
0.473149
3
2.99997
2.99994
2.99979
2.99959
2.99877
2.99758
2.99296
2.98583
2.96067
2.91289
2.78044
2.46308
1.79883
0.866518
0.470716
0.492346
0.504718
0.497361
0.479824
0.468735
0.470141
0.488608
0.5332
0.634454
3.00001
2.99996
2.9999
2.99963
2.99926
2.99774
2.99558
2.98711
2.97372
2.92812
2.82987
2.59595
2.01146
1.13219
0.472523
0.306656
0.338386
0.345439
0.314751
0.262062
0.210056
0.167684
0.125937
0.0794867
0.0458051
3.00001
2.99996
2.9999
2.99964
2.99927
2.99777
2.99564
2.98732
2.97404
2.92918
2.83139
2.60042
2.01894
1.1429
0.478806
0.306808
0.339429
0.347089
0.316614
0.264679
0.21406
0.173319
0.133943
0.0929347
0.0691439
3.00001
2.99996
2.9999
2.99965
2.99929
2.99784
2.99577
2.98775
2.9747
2.9313
2.83469
2.60974
2.03572
1.1673
0.493968
0.309338
0.34385
0.353036
0.323408
0.273518
0.226119
0.189192
0.155165
0.12326
0.108311
3.00002
2.99997
2.99991
2.99966
2.99932
2.99793
2.99594
2.98827
2.97565
2.93414
2.84069
2.62421
2.06232
1.20616
0.516525
0.312275
0.350084
0.361989
0.33401
0.287423
0.244574
0.212753
0.184923
0.160995
0.151278
3.00002
2.99997
2.99991
2.99968
2.99936
2.99805
2.99616
2.98898
2.9769
2.93799
2.84882
2.64384
2.09826
1.25969
0.545999
0.315613
0.357982
0.373653
0.347976
0.305525
0.267822
0.241535
0.219972
0.202423
0.196411
3.00002
2.99997
2.99992
2.9997
2.9994
2.99817
2.9964
2.98964
2.97843
2.94178
2.85911
2.66571
2.15553
1.3359
0.589027
0.325596
0.371224
0.390595
0.366871
0.328993
0.29639
0.275399
0.259823
0.248508
0.246169
3.00002
2.99998
2.99993
2.99972
2.99944
2.99829
2.99665
2.9902
2.98013
2.94549
2.87271
2.6921
2.23056
1.43631
0.644796
0.344524
0.391951
0.414306
0.39195
0.358065
0.330604
0.315022
0.305529
0.30078
0.30424
3.00002
2.99998
2.99994
2.99975
2.99949
2.99843
2.99694
2.99099
2.98201
2.94982
2.88813
2.72195
2.31695
1.56019
0.712392
0.376471
0.422825
0.445401
0.424292
0.394029
0.370737
0.360478
0.357872
0.36198
0.375872
3.00002
2.99999
2.99995
2.99978
2.99955
2.9986
2.99727
2.99194
2.98395
2.95498
2.90197
2.75025
2.40439
1.68741
0.788216
0.420684
0.461695
0.4799
0.461784
0.436819
0.418105
0.412856
0.41811
0.435891
0.473266
3.00002
2.99999
2.99996
2.99981
2.99961
2.99879
2.9976
2.99298
2.98585
2.9607
2.91292
2.78049
2.46312
1.79894
0.866612
0.470857
0.49246
0.504822
0.497474
0.479944
0.468859
0.470264
0.488724
0.533302
0.634534
3.00002
3
2.99995
2.99987
2.99958
2.99915
2.99747
2.99496
2.9857
2.96978
2.91949
2.80472
2.54111
1.91458
1.02511
0.551699
0.520267
0.530185
0.53283
0.523309
0.520126
0.531235
0.56815
0.649933
0.817337
3.00002
3.00001
2.99996
2.99989
2.99963
2.99926
2.99775
2.99561
2.98716
2.97398
2.92879
2.83306
2.60191
2.03298
1.17529
0.635294
0.539924
0.55347
0.564698
0.564997
0.570068
0.592027
0.643653
0.74102
0.907328
3.00002
3.00001
2.99997
2.99991
2.99969
2.99938
2.99812
2.99631
2.98945
2.97796
2.94098
2.85688
2.66267
2.1475
1.34062
0.725567
0.559196
0.575683
0.595069
0.604537
0.617357
0.647328
0.705132
0.798145
0.934268
3.00002
3.00001
2.99998
2.99993
2.99974
2.99948
2.99839
2.99687
2.99078
2.98159
2.94914
2.88398
2.71684
2.29652
1.54805
0.833471
0.592293
0.606526
0.626047
0.643501
0.662521
0.696003
0.752039
0.833681
0.946252
3.00002
3.00001
2.99999
2.99995
2.9998
2.99958
2.9987
2.99744
2.99252
2.98497
2.95819
2.90872
2.7664
2.45173
1.76196
0.964682
0.652224
0.650275
0.664019
0.682397
0.704069
0.738405
0.791961
0.861867
0.955754
3.00002
3.00001
3
2.99995
2.99988
2.99959
2.99917
2.99754
2.9951
2.98616
2.97078
2.92243
2.81194
2.56183
1.96228
1.11944
0.721881
0.692815
0.704866
0.721267
0.742026
0.774216
0.824885
0.888702
0.966503
3.00002
3.00002
3.00001
2.99996
2.99991
2.99967
2.99934
2.998
2.99608
2.98873
2.97673
2.9373
2.84975
2.64638
2.1234
1.32076
0.82172
0.721672
0.733932
0.75177
0.776185
0.806374
0.850589
0.910796
0.979898
3.00002
3.00002
3.00001
2.99998
2.99993
2.99975
2.99948
2.99842
2.99689
2.99092
2.98168
2.94976
2.88476
2.71879
2.30805
1.55901
0.946114
0.758293
0.759905
0.77792
0.806866
0.837652
0.875574
0.927776
0.991692
3.00002
3.00002
3.00001
3
2.99994
2.99986
2.99953
2.99906
2.99724
2.99445
2.98471
2.96656
2.91399
2.78571
2.51172
1.89372
1.12037
0.824074
0.800426
0.811448
0.835424
0.867541
0.903322
0.946639
1.00244
3.00002
3.00002
3.00002
3
2.99996
2.9999
2.99965
2.99929
2.99788
2.9958
2.98814
2.97497
2.93369
2.83882
2.62497
2.08129
1.29141
0.896563
0.835301
0.846052
0.86583
0.894406
0.929395
0.968149
1.01519
3.00003
3.00002
3.00002
3.00001
2.99999
2.99991
2.9998
2.99939
2.99875
2.99652
2.99247
2.9803
2.95202
2.88393
2.69503
2.33044
1.52861
1.02129
0.873508
0.874236
0.892957
0.920176
0.952835
0.989589
1.02977
3.00003
3.00003
3.00002
3.00001
3
2.99994
2.99986
2.99953
2.99905
2.99719
2.99447
2.98422
2.96723
2.91416
2.79596
2.522
1.93171
1.19991
0.937795
0.913211
0.923579
0.948152
0.979047
1.01216
1.04813
3.00003
3.00003
3.00002
3.00002
3
2.99998
2.99988
2.99973
2.99917
2.99835
2.99522
2.99031
2.97366
2.94052
2.85271
2.63215
2.18029
1.38033
1.01412
0.945127
0.952761
0.973235
1.00211
1.0331
1.06611
3.00003
3.00003
3.00003
3.00002
3.00001
2.99999
2.99992
2.99981
2.9994
2.99882
2.99652
2.99308
2.98081
2.9585
2.89342
2.73449
2.40548
1.68834
1.15964
0.994233
0.986219
0.999323
1.0228
1.05253
1.08302
3.00003
3.00003
3.00003
3.00002
3.00002
3
2.99996
2.99984
2.99966
2.99898
2.99796
2.99418
2.98814
2.96766
2.92962
2.81945
2.58984
2.02397
1.34697
1.06902
1.02303
1.0285
1.04606
1.07232
1.10121
3.00003
3.00003
3.00003
3.00002
3.00002
3.00001
2.99998
2.9999
2.99978
2.9993
2.99861
2.99595
2.99197
2.97766
2.95226
2.87834
2.70463
2.33144
1.60603
1.19028
1.0673
1.05943
1.06834
1.08947
1.11789
3.00003
3.00003
3.00003
3.00003
3.00002
3.00002
2.99999
2.99996
2.99982
2.99962
2.99887
2.99774
2.99359
2.98697
2.96481
2.923
2.80637
2.55685
1.97911
1.3589
1.12815
1.09511
1.09844
1.11345
1.13623
3.00003
3.00003
3.00003
3.00003
3.00002
3.00002
3
2.99998
2.99989
2.99976
2.99924
2.99849
2.99562
2.99134
2.97584
2.94894
2.87049
2.69082
2.29301
1.58611
1.22007
1.12961
1.12484
1.13368
1.15256
3.00003
3.00003
3.00003
3.00003
3.00003
3.00002
3.00002
2.99999
2.99995
2.99981
2.9996
2.99882
2.99763
2.99331
2.98628
2.96322
2.91868
2.79711
2.5315
1.93298
1.38271
1.18487
1.15689
1.15964
1.17385
3.00003
3.00003
3.00003
3.00003
3.00003
3.00003
3.00002
3.00001
2.99997
2.99991
2.9997
2.99938
2.99819
2.99638
2.99004
2.97882
2.9455
2.86828
2.70121
2.25783
1.60329
1.26808
1.19197
1.18631
1.19429
3.00003
3.00003
3.00003
3.00003
3.00003
3.00003
3.00002
3.00002
2.99999
2.99995
2.99981
2.9996
2.99879
2.99762
2.99314
2.98635
2.96256
2.91944
2.79808
2.53397
1.952
1.4277
1.24077
1.21417
1.2156
3.00003
3.00003
3.00003
3.00003
3.00003
3.00003
3.00003
3.00002
3.00001
2.99997
2.99992
2.99971
2.9994
2.99824
2.99649
2.99035
2.97956
2.94734
2.87349
2.71204
2.2877
1.65574
1.32837
1.24755
1.23944
3.00003
3.00003
3.00003
3.00003
3.00003
3.00003
3.00003
3.00002
3.00002
2.99999
2.99996
2.99982
2.99962
2.99885
2.99776
2.99353
2.98725
2.96502
2.92561
2.8142
2.57327
2.03977
1.49339
1.29448
1.26382
3.00003
3.00003
3.00003
3.00003
3.00003
3.00003
3.00003
3.00002
3.00002
3.00001
2.99998
2.9999
2.99977
2.99929
2.99861
2.99596
2.99209
2.97792
2.95417
2.88322
2.72747
2.37732
1.73721
1.38706
1.29018
3.00003
3.00003
3.00003
3.00003
3.00003
3.00003
3.00003
3.00003
3.00002
3.00001
3
2.99995
2.99987
2.99958
2.99916
2.99756
2.9952
2.98665
2.97273
2.92865
2.84195
2.61874
2.16516
1.57231
1.34424
3.00003
3.00003
3.00003
3.00003
3.00003
3.00003
3.00003
3.00003
3.00003
3.00002
3.00001
2.99999
2.99991
2.9998
2.99939
2.99876
2.9965
2.99296
2.98085
2.95925
2.89761
2.76003
2.4426
1.86097
1.44598
3.00003
3.00003
3.00003
3.00003
3.00003
3.00003
3.00003
3.00003
3.00003
3.00002
3.00002
3
2.99997
2.99986
2.99969
2.99909
2.99817
2.99489
2.98955
2.9721
2.94014
2.84656
2.66394
2.17851
1.63653
3.00003
3.00003
3.00003
3.00003
3.00003
3.00003
3.00003
3.00003
3.00003
3.00003
3.00002
3.00001
2.99998
2.99994
2.99977
2.99953
2.99861
2.99724
2.99222
2.98429
2.95789
2.90801
2.77539
2.48134
1.88916
3.00003
3.00003
3.00003
3.00003
3.00003
3.00003
3.00003
3.00003
3.00003
3.00003
3.00002
3.00002
3
2.99997
2.99985
2.99968
2.99901
2.99805
2.99437
2.98872
2.96889
2.93218
2.83001
2.58627
2.07991
3.00003
3.00003
3.00003
3.00003
3.00003
3.00003
3.00003
3.00003
3.00003
3.00003
3.00003
3.00002
3.00001
2.99997
2.99991
2.9997
2.99937
2.99815
2.99618
2.98965
2.97651
2.94007
2.84733
2.64588
2.09816
3.00003
3.00003
3.00003
3.00003
3.00003
3.00003
3.00003
3.00003
3.00003
3.00003
3.00003
3.00002
3.00001
2.99999
2.99992
2.9998
2.9994
2.99866
2.99645
2.99129
2.97825
2.94318
2.86496
2.62363
2.1761
3.00003
3.00003
3.00003
3.00003
3.00003
3.00003
3.00003
3.00003
3.00003
3.00003
3.00003
3.00002
3.00001
2.99998
2.99993
2.99974
2.99946
2.99838
2.99667
2.9907
2.97902
2.94511
2.85846
2.66697
2.12187
3.00003
3.00003
3.00003
3.00003
3.00003
3.00003
3.00003
3.00003
3.00003
3.00003
3.00003
3.00002
3.00001
2.99998
2.99994
2.99976
2.99949
2.99845
2.99682
2.99109
2.97981
2.94701
2.86286
2.67554
2.13902
3.00003
3.00003
3.00003
3.00003
3.00003
3.00003
3.00003
3.00003
3.00003
3.00003
3.00003
3.00002
3.00001
3
2.99993
2.99983
2.99949
2.99883
2.9969
2.99225
2.98059
2.94859
2.87685
2.653
2.22835
3.00003
3.00003
3.00003
3.00003
3.00003
3.00003
3.00003
3.00003
3.00003
3.00003
3.00003
3.00002
3.00001
2.99999
2.99994
2.99978
2.99952
2.99858
2.99698
2.99183
2.98059
2.9506
2.87062
2.69636
2.19142
3.00003
3.00003
3.00003
3.00003
3.00003
3.00003
3.00003
3.00003
3.00003
3.00003
3.00003
3.00002
3.00001
3
2.99993
2.99984
2.9995
2.9989
2.99703
2.99277
2.98182
2.95249
2.88569
2.68044
2.28572
3.00003
3.00003
3.00003
3.00003
3.00003
3.00003
3.00003
3.00003
3.00003
3.00003
3.00003
3.00002
3.00001
2.99999
2.99994
2.99977
2.99953
2.99855
2.99708
2.99151
2.98206
2.95141
2.88089
2.71176
2.25872
3.00003
3.00003
3.00003
3.00003
3.00003
3.00003
3.00003
3.00003
3.00003
3.00003
3.00003
3.00002
3.00001
2.99999
2.99994
2.99978
2.99954
2.99857
2.99715
2.99163
2.98261
2.95226
2.88582
2.71953
2.2867
3.00003
3.00003
3.00003
3.00003
3.00003
3.00003
3.00003
3.00003
3.00003
3.00003
3.00003
3.00002
3.00001
3
2.99993
2.99984
2.99947
2.99892
2.99691
2.99332
2.98222
2.95637
2.89226
2.71181
2.35414
3.00003
3.00003
3.00003
3.00003
3.00003
3.00003
3.00003
3.00003
3.00003
3.00003
3.00003
3.00002
3.00001
3
2.99993
2.99983
2.99944
2.99889
2.99663
2.99331
2.98101
2.95826
2.89178
2.72146
2.36574
3
2.99998
2.99993
2.99986
2.99956
2.99913
2.99745
2.99493
2.98567
2.96975
2.91945
2.8047
2.54104
1.91454
1.02501
0.55158
0.520169
0.530089
0.532731
0.523205
0.520019
0.531131
0.568055
0.649856
0.817286
3
2.99999
2.99994
2.99987
2.99961
2.99924
2.99772
2.99559
2.98714
2.97395
2.92876
2.83304
2.60185
2.03293
1.17518
0.635187
0.53983
0.553379
0.564608
0.564904
0.569975
0.591938
0.643574
0.740955
0.907282
3
2.99999
2.99995
2.9999
2.99967
2.99936
2.9981
2.99629
2.98943
2.97794
2.94095
2.85685
2.6626
2.14744
1.34051
0.725467
0.559101
0.575592
0.594982
0.604453
0.617276
0.647251
0.705063
0.798087
0.934223
3
2.99999
2.99996
2.99991
2.99972
2.99946
2.99837
2.99685
2.99076
2.98156
2.9491
2.88396
2.71679
2.29648
1.54795
0.833389
0.592198
0.606434
0.625963
0.643423
0.662448