/*--------------------------------*- C++ -*----------------------------------*\
| =========                 |                                                 |
| \\      /  F ield         | OpenFOAM: The Open Source CFD Toolbox           |
|  \\    /   O peration     | Version:  4.1                                   |
|   \\  /    A nd           | Web:      www.OpenFOAM.org                      |
|    \\/     M anipulation  |                                                 |
\*---------------------------------------------------------------------------*/
FoamFile
{
    version     2.0;
    format      ascii;
    class       volScalarField;
    location    "0.5";
    object      Ma;
}
// * * * * * * * * * * * * * * * * * * * * * * * * * * * * * * * * * * * * * //

dimensions      [0 0 0 0 0 0 0];

internalField   nonuniform List<scalar> 
18000
(
5.48653e-12
5.42424e-12
5.35135e-12
5.29043e-12
5.23014e-12
5.17066e-12
5.11184e-12
5.05414e-12
4.99721e-12
4.94191e-12
6.87367e-12
6.6302e-12
6.38598e-12
6.16138e-12
5.94636e-12
5.74048e-12
5.543e-12
5.35399e-12
5.17235e-12
5.00112e-12
8.71882e-12
8.1843e-12
7.67825e-12
7.21637e-12
6.78763e-12
6.3896e-12
6.02024e-12
5.67627e-12
5.35622e-12
5.06141e-12
1.12088e-11
1.02084e-11
9.30609e-12
8.50075e-12
7.77949e-12
7.13178e-12
6.54868e-12
6.02284e-12
5.54788e-12
5.12276e-12
1.46229e-11
1.28781e-11
1.13737e-11
1.00756e-11
8.95452e-12
7.98191e-12
7.13533e-12
6.39616e-12
5.74833e-12
5.18537e-12
1.9386e-11
1.64479e-11
1.40287e-11
1.2021e-11
1.03534e-11
8.95936e-12
7.78783e-12
6.79828e-12
5.95773e-12
5.24886e-12
2.61531e-11
2.12954e-11
1.74744e-11
1.44436e-11
1.20284e-11
1.0087e-11
8.51469e-12
7.23165e-12
6.1769e-12
5.31346e-12
3.59859e-11
2.79876e-11
2.20171e-11
1.75093e-11
1.40767e-11
1.14322e-11
9.37263e-12
7.7528e-12
6.46607e-12
5.44808e-12
3.52441e-09
3.47073e-09
3.25872e-09
3.06874e-09
2.89855e-09
2.74543e-09
2.60706e-09
2.48152e-09
2.36728e-09
2.29783e-09
3.77262e-07
4.4929e-08
3.82469e-08
3.31495e-08
2.89033e-08
2.53386e-08
2.23264e-08
1.97673e-08
1.75178e-08
6.40778e-08
5.73282e-12
5.66486e-12
5.58992e-12
5.52388e-12
5.45907e-12
5.39551e-12
5.3322e-12
5.2706e-12
5.20983e-12
5.15047e-12
7.22261e-12
6.95756e-12
6.70179e-12
6.45897e-12
6.22738e-12
6.0058e-12
5.7942e-12
5.59178e-12
5.39822e-12
5.21415e-12
9.20972e-12
8.62761e-12
8.09425e-12
7.59387e-12
7.13148e-12
6.70337e-12
6.30702e-12
5.93888e-12
5.59697e-12
5.27993e-12
1.19161e-11
1.08248e-11
9.86331e-12
8.9873e-12
8.20584e-12
7.50648e-12
6.87931e-12
6.3157e-12
5.80694e-12
5.34703e-12
1.56656e-11
1.37544e-11
1.21319e-11
1.07102e-11
9.48854e-12
8.43375e-12
7.51927e-12
6.72388e-12
6.02882e-12
5.41672e-12
2.09629e-11
1.77182e-11
1.50753e-11
1.28575e-11
1.10282e-11
9.50767e-12
8.23674e-12
7.16818e-12
6.26391e-12
5.48857e-12
2.86002e-11
2.31771e-11
1.89399e-11
1.5558e-11
1.28878e-11
1.07568e-11
9.04203e-12
7.65117e-12
6.51179e-12
5.56285e-12
3.98957e-11
3.08274e-11
2.40844e-11
1.89884e-11
1.51499e-11
1.22175e-11
9.95098e-12
8.17836e-12
6.77591e-12
5.64071e-12
1.00151e-10
2.02328e-10
1.6491e-10
1.35575e-10
1.12792e-10
9.48324e-11
8.04931e-11
6.89114e-11
5.94636e-11
5.19574e-11
2.50966e-07
3.91179e-08
3.40127e-08
2.97759e-08
2.62764e-08
2.33554e-08
2.08938e-08
1.88014e-08
1.70118e-08
1.59871e-08
4.60746e-13
4.38055e-13
2.97547e-13
2.81629e-13
2.6711e-13
2.54098e-13
2.42678e-13
2.33015e-13
2.24733e-13
2.15107e-13
6.38064e-13
5.67854e-13
4.98778e-13
4.49088e-13
4.04326e-13
3.64516e-13
3.29449e-13
2.99575e-13
2.75055e-13
2.30806e-13
7.76796e-13
6.6712e-13
6.68487e-13
5.91967e-13
5.24471e-13
4.66333e-13
4.17128e-13
3.75899e-13
3.40353e-13
2.52863e-13
1.02543e-12
8.94707e-13
9.40916e-13
8.16345e-13
7.09751e-13
6.20343e-13
5.45549e-13
4.83602e-13
4.30105e-13
2.85802e-13
1.43438e-12
1.29857e-12
1.33742e-12
1.13102e-12
9.59857e-13
8.20581e-13
7.0675e-13
6.13649e-13
5.34236e-13
3.26368e-13
2.10587e-12
1.96412e-12
1.90978e-12
1.56502e-12
1.29073e-12
1.07455e-12
9.02894e-13
7.65773e-13
6.51353e-13
3.7349e-13
3.21309e-12
3.02506e-12
2.73868e-12
2.16223e-12
1.72496e-12
1.39343e-12
1.13843e-12
9.40859e-13
7.80911e-13
4.25845e-13
5.0999e-12
4.71055e-12
3.94785e-12
2.98676e-12
2.29487e-12
1.79207e-12
1.41993e-12
1.14088e-12
9.22829e-13
4.82878e-13
1.55708e-10
7.6719e-12
6.13948e-12
4.50657e-12
3.38542e-12
2.59984e-12
2.0348e-12
1.6203e-12
1.3048e-12
8.26061e-13
2.16161e-07
2.2839e-09
1.67535e-09
1.27994e-09
9.94261e-10
7.83882e-10
6.26278e-10
5.06387e-10
4.13999e-10
3.45991e-10
3.85407e-13
3.61092e-13
1.7207e-13
1.51127e-13
1.30773e-13
1.11653e-13
9.37797e-14
7.7419e-14
6.28982e-14
3.6852e-14
5.32491e-13
4.5978e-13
3.86027e-13
3.35792e-13
2.89198e-13
2.47525e-13
2.10761e-13
1.79101e-13
1.52857e-13
7.9415e-14
5.95851e-13
4.88871e-13
5.23607e-13
4.55349e-13
3.95203e-13
3.44047e-13
3.01506e-13
2.67437e-13
2.39105e-13
1.19664e-13
7.28992e-13
6.34457e-13
7.60608e-13
6.57362e-13
5.68643e-13
4.95269e-13
4.34717e-13
3.85416e-13
3.43425e-13
1.711e-13
9.56575e-13
9.43482e-13
1.10771e-12
9.41293e-13
8.02157e-13
6.88826e-13
5.96356e-13
5.21245e-13
4.56808e-13
2.24723e-13
1.33958e-12
1.48466e-12
1.60996e-12
1.33338e-12
1.1094e-12
9.31822e-13
7.89652e-13
6.76025e-13
5.79764e-13
2.814e-13
1.97439e-12
2.36154e-12
2.33686e-12
1.87233e-12
1.51189e-12
1.23515e-12
1.01965e-12
8.51193e-13
7.12858e-13
3.41251e-13
3.06622e-12
3.75799e-12
3.39378e-12
2.61488e-12
2.03852e-12
1.61308e-12
1.29309e-12
1.04976e-12
8.56895e-13
4.04264e-13
1.68489e-10
6.40707e-12
4.92425e-12
3.63028e-12
2.72228e-12
2.07999e-12
1.61522e-12
1.27389e-12
1.01224e-12
4.70407e-13
2.13171e-07
7.04462e-10
4.35049e-11
2.85597e-11
1.94686e-11
1.36e-11
9.70612e-12
7.06003e-12
5.22292e-12
3.80506e-12
3.85444e-13
3.60722e-13
1.72388e-13
1.51336e-13
1.30918e-13
1.11698e-13
9.40078e-14
7.76065e-14
6.28934e-14
3.68521e-14
5.32922e-13
4.60056e-13
3.86745e-13
3.36439e-13
2.89849e-13
2.479e-13
2.1102e-13
1.79507e-13
1.53181e-13
7.94908e-14
5.96829e-13
4.89882e-13
5.2511e-13
4.56531e-13
3.95978e-13
3.44857e-13
3.0219e-13
2.67842e-13
2.39272e-13
1.19802e-13
7.31022e-13
6.36744e-13
7.62871e-13
6.59338e-13
5.70167e-13
4.96469e-13
4.35729e-13
3.8624e-13
3.43978e-13
1.71072e-13
9.60244e-13
9.47747e-13
1.11182e-12
9.44464e-13
8.04654e-13
6.91024e-13
5.97924e-13
5.22261e-13
4.57705e-13
2.25315e-13
1.34597e-12
1.49221e-12
1.61646e-12
1.33879e-12
1.1136e-12
9.35236e-13
7.92421e-13
6.78095e-13
5.81427e-13
2.82407e-13
1.98516e-12
2.37502e-12
2.34846e-12
1.88133e-12
1.51899e-12
1.24083e-12
1.02412e-12
8.54587e-13
7.15666e-13
3.43101e-13
3.08468e-12
3.78248e-12
3.41366e-12
2.6302e-12
2.05042e-12
1.62228e-12
1.30026e-12
1.05541e-12
8.61196e-13
4.07285e-13
1.73228e-10
6.53718e-12
4.98199e-12
3.66851e-12
2.74845e-12
2.09831e-12
1.62825e-12
1.28342e-12
1.01935e-12
4.74777e-13
2.25067e-07
7.47175e-10
9.61974e-12
5.12353e-12
3.68036e-12
2.70926e-12
2.03408e-12
1.55532e-12
1.20105e-12
5.57724e-13
3.85527e-13
3.60404e-13
1.72951e-13
1.51857e-13
1.31266e-13
1.12006e-13
9.41225e-14
7.78839e-14
6.32122e-14
3.6848e-14
5.33786e-13
4.60546e-13
3.8802e-13
3.3753e-13
2.90797e-13
2.4862e-13
2.11522e-13
1.7982e-13
1.5371e-13
7.99342e-14
5.98686e-13
4.9168e-13
5.27439e-13
4.58456e-13
3.9765e-13
3.46084e-13
3.03103e-13
2.68487e-13
2.39824e-13
1.20277e-13
7.34842e-13
6.4084e-13
7.66675e-13
6.62463e-13
5.72704e-13
4.98364e-13
4.37165e-13
3.87384e-13
3.44708e-13
1.71655e-13
9.67729e-13
9.55359e-13
1.11807e-12
9.49507e-13
8.0864e-13
6.94282e-13
6.00524e-13
5.24302e-13
4.59208e-13
2.26291e-13
1.36014e-12
1.50578e-12
1.62728e-12
1.34708e-12
1.12006e-12
9.4049e-13
7.96584e-13
6.81175e-13
5.83984e-13
2.84173e-13
2.01176e-12
2.39865e-12
2.36687e-12
1.89543e-12
1.52983e-12
1.24934e-12
1.03081e-12
8.59752e-13
7.19754e-13
3.45921e-13
3.13628e-12
3.82506e-12
3.44562e-12
2.65377e-12
2.06806e-12
1.63585e-12
1.31083e-12
1.06353e-12
8.67437e-13
4.11474e-13
1.82818e-10
6.64705e-12
5.03834e-12
3.70823e-12
2.77731e-12
2.11979e-12
1.64436e-12
1.29555e-12
1.02878e-12
4.81204e-13
2.46765e-07
8.03135e-10
9.79051e-12
5.12482e-12
3.68941e-12
2.71995e-12
2.04438e-12
1.56445e-12
1.2088e-12
5.61692e-13
3.85528e-13
3.60093e-13
1.7358e-13
1.52484e-13
1.31867e-13
1.12533e-13
9.45673e-14
7.81054e-14
6.33924e-14
3.79773e-14
5.34782e-13
4.61199e-13
3.89635e-13
3.38801e-13
2.91913e-13
2.49688e-13
2.12425e-13
1.80504e-13
1.53917e-13
8.06043e-14
6.00964e-13
4.9384e-13
5.30148e-13
4.60806e-13
3.99563e-13
3.47668e-13
3.04214e-13
2.69354e-13
2.40504e-13
1.20987e-13
7.39486e-13
6.45771e-13
7.71171e-13
6.66198e-13
5.75869e-13
5.00886e-13
4.38986e-13
3.887e-13
3.45974e-13
1.72699e-13
9.76839e-13
9.64508e-13
1.12556e-12
9.55469e-13
8.13415e-13
6.98293e-13
6.03767e-13
5.26797e-13
4.61116e-13
2.27937e-13
1.37755e-12
1.52176e-12
1.64006e-12
1.35724e-12
1.12795e-12
9.46825e-13
8.01791e-13
6.85283e-13
5.87112e-13
2.86667e-13
2.04428e-12
2.42697e-12
2.38865e-12
1.91221e-12
1.54284e-12
1.25971e-12
1.03917e-12
8.66275e-13
7.2481e-13
3.49818e-13
3.19623e-12
3.87554e-12
3.48358e-12
2.68208e-12
2.0894e-12
1.6522e-12
1.32386e-12
1.07374e-12
8.75277e-13
4.17095e-13
1.89663e-10
6.73354e-12
5.10444e-12
3.75585e-12
2.81224e-12
2.14591e-12
1.66443e-12
1.31053e-12
1.0404e-12
4.89368e-13
2.65112e-07
8.32485e-10
9.84472e-12
5.19914e-12
3.74298e-12
2.75898e-12
2.0737e-12
1.58654e-12
1.22539e-12
5.73025e-13
3.85617e-13
3.59194e-13
1.74056e-13
1.52919e-13
1.32541e-13
1.13676e-13
9.68192e-14
9.57959e-14
2.27952e-13
7.10119e-13
5.35583e-13
4.61151e-13
3.90748e-13
3.39962e-13
2.93115e-13
2.51101e-13
2.14274e-13
1.86328e-13
2.0391e-13
4.67883e-13
6.02843e-13
4.94816e-13
5.32093e-13
4.62593e-13
4.01354e-13
3.49667e-13
3.06765e-13
2.73192e-13
2.59471e-13
3.28191e-13
7.43541e-13
6.48343e-13
7.74252e-13
6.68919e-13
5.78343e-13
5.03512e-13
4.42312e-13
3.92825e-13
3.56404e-13
2.8028e-13
9.84632e-13
9.69543e-13
1.13036e-12
9.59711e-13
8.17123e-13
7.01696e-13
6.07925e-13
5.31817e-13
4.69767e-13
2.87946e-13
1.3914e-12
1.53083e-12
1.64795e-12
1.36407e-12
1.13389e-12
9.52372e-13
8.07915e-13
6.92067e-13
5.96049e-13
3.2581e-13
2.0686e-12
2.44322e-12
2.40214e-12
1.92363e-12
1.55244e-12
1.26829e-12
1.04779e-12
8.75689e-13
7.35336e-13
3.79519e-13
3.22072e-12
3.90502e-12
3.50706e-12
2.70137e-12
2.10522e-12
1.66553e-12
1.3363e-12
1.08691e-12
8.8893e-13
4.42832e-13
1.52288e-10
6.55863e-12
5.14364e-12
3.78798e-12
2.83772e-12
2.16693e-12
1.68315e-12
1.32882e-12
1.05774e-12
5.13922e-13
2.36052e-07
5.47684e-10
8.74659e-12
5.24556e-12
3.78222e-12
2.79058e-12
2.10019e-12
1.61083e-12
1.24841e-12
5.9866e-13
3.91538e-13
4.15365e-13
2.24904e-13
1.58539e-13
1.76326e-13
4.17807e-13
8.73419e-13
3.37327e-12
1.31537e-11
3.92393e-11
5.51599e-13
5.61103e-13
4.52981e-13
3.58999e-13
2.94564e-13
4.09191e-13
7.27449e-13
2.15969e-12
7.68848e-12
2.54161e-11
6.36993e-13
6.7072e-13
6.28219e-13
5.06487e-13
4.00582e-13
4.10159e-13
7.09492e-13
1.52125e-12
4.86248e-12
1.64153e-11
7.993e-13
8.92061e-13
8.97122e-13
7.33374e-13
5.87287e-13
5.12731e-13
6.94806e-13
1.18614e-12
3.31155e-12
1.09982e-11
1.06466e-12
1.25928e-12
1.27291e-12
1.03956e-12
8.37578e-13
6.93035e-13
7.3064e-13
1.04411e-12
2.45017e-12
7.64554e-12
1.49248e-12
1.84347e-12
1.80076e-12
1.45059e-12
1.1599e-12
9.38506e-13
8.54336e-13
1.10695e-12
2.02085e-12
5.49939e-12
2.17693e-12
2.75894e-12
2.55082e-12
2.00511e-12
1.57559e-12
1.24964e-12
1.05115e-12
1.14024e-12
1.79097e-12
4.08237e-12
3.26309e-12
4.19272e-12
3.62899e-12
2.76079e-12
2.11331e-12
1.63672e-12
1.31435e-12
1.23657e-12
1.67204e-12
3.12541e-12
2.55931e-11
6.23017e-12
5.20189e-12
3.80162e-12
2.81413e-12
2.1175e-12
1.64129e-12
1.40213e-12
1.61373e-12
2.4695e-12
1.84619e-08
8.07172e-10
6.10129e-12
5.16961e-12
3.70551e-12
2.70673e-12
2.03358e-12
1.62906e-12
1.61839e-12
2.02319e-12
2.52383e-12
2.37647e-12
1.52082e-12
1.5532e-13
2.67321e-12
8.67951e-12
2.62327e-11
1.02127e-10
3.90371e-10
6.59431e-10
3.5552e-12
3.43781e-12
2.54724e-12
1.15924e-12
1.3324e-12
6.26903e-12
1.9076e-11
6.49782e-11
2.28492e-10
4.15088e-10
4.82275e-12
4.69788e-12
3.72103e-12
2.31686e-12
2.72634e-13
4.11155e-12
1.36916e-11
4.39236e-11
1.4376e-10
2.75268e-10
6.48359e-12
6.27505e-12
5.11892e-12
3.60547e-12
1.4411e-12
2.29067e-12
9.77094e-12
3.09417e-11
9.5606e-11
1.89039e-10
8.70442e-12
8.28346e-12
6.81354e-12
5.08374e-12
2.84927e-12
7.73282e-13
6.78502e-12
2.22583e-11
6.61857e-11
1.33606e-10
1.173e-11
1.08849e-11
8.90425e-12
6.80316e-12
4.36354e-12
1.22736e-12
4.38432e-12
1.59835e-11
4.7075e-11
9.67729e-11
1.59397e-11
1.43276e-11
1.15305e-11
8.84137e-12
6.0459e-12
2.75968e-12
2.40286e-12
1.15574e-11
3.42361e-11
7.15673e-11
2.19536e-11
1.89703e-11
1.48827e-11
1.13015e-11
7.93822e-12
4.37491e-12
1.09521e-12
8.19769e-12
2.52935e-11
5.38538e-11
2.15558e-10
2.53445e-11
1.92447e-11
1.43175e-11
1.01094e-11
6.09804e-12
1.83893e-12
5.55492e-12
1.88873e-11
4.11009e-11
6.07879e-07
1.38514e-09
2.50651e-11
1.80607e-11
1.26256e-11
7.94564e-12
3.35133e-12
3.46836e-12
1.41441e-11
3.17011e-11
3.37395e-12
3.03425e-12
2.00146e-12
1.9462e-12
8.38577e-12
2.93799e-11
1.22578e-10
5.53849e-10
1.26795e-09
1.52219e-09
4.47048e-12
4.16495e-12
3.17735e-12
1.66245e-12
5.24127e-12
2.01213e-11
7.66699e-11
3.15609e-10
7.61785e-10
8.89924e-10
5.80386e-12
5.47479e-12
4.50022e-12
2.77629e-12
2.81962e-12
1.33824e-11
5.0217e-11
1.93034e-10
4.80371e-10
5.50408e-10
7.51092e-12
7.05989e-12
5.99815e-12
4.28873e-12
1.96475e-12
8.46144e-12
3.37813e-11
1.24335e-10
3.13982e-10
3.54643e-10
9.75017e-12
9.02939e-12
7.74409e-12
5.96096e-12
3.16423e-12
4.84067e-12
2.27946e-11
8.29233e-11
2.11447e-10
2.36485e-10
1.27608e-11
1.15358e-11
9.83533e-12
7.8196e-12
4.97612e-12
2.52309e-12
1.49741e-11
5.63027e-11
1.46027e-10
1.62444e-10
1.69046e-11
1.47997e-11
1.24036e-11
9.94411e-12
6.94044e-12
2.79556e-12
9.40461e-12
3.87225e-11
1.02659e-10
1.1418e-10
2.27555e-11
1.9145e-11
1.56324e-11
1.24345e-11
9.05275e-12
4.67919e-12
5.3005e-12
2.66591e-11
7.32028e-11
8.17196e-11
1.33147e-10
2.50576e-11
1.97776e-11
1.54264e-11
1.13885e-11
6.82439e-12
2.73552e-12
1.81096e-11
5.27293e-11
5.92574e-11
1.19971e-07
5.81374e-09
3.23096e-11
1.90697e-11
1.4013e-11
9.03057e-12
3.07359e-12
1.1851e-11
3.81612e-11
4.33028e-11
1.01926e-12
1.27181e-12
1.53919e-12
3.22316e-12
8.51331e-12
2.50461e-11
8.74752e-11
2.85615e-10
4.43627e-10
1.92813e-10
1.10664e-12
1.27523e-12
1.4098e-12
2.44566e-12
6.06302e-12
1.74542e-11
5.80618e-11
1.80246e-10
2.66705e-10
7.22539e-11
1.19808e-12
1.31972e-12
1.40571e-12
1.97688e-12
4.35213e-12
1.22713e-11
3.94206e-11
1.17409e-10
1.6621e-10
4.71173e-11
1.29289e-12
1.39227e-12
1.47873e-12
1.79015e-12
3.21136e-12
8.6792e-12
2.72651e-11
7.86383e-11
1.06827e-10
4.08735e-11
1.39301e-12
1.48195e-12
1.58752e-12
1.7828e-12
2.53058e-12
6.17032e-12
1.90865e-11
5.39146e-11
7.04541e-11
3.46552e-11
1.50522e-12
1.58608e-12
1.71059e-12
1.86475e-12
2.21547e-12
4.4706e-12
1.34515e-11
3.77922e-11
4.75971e-11
2.87305e-11
1.63475e-12
1.70452e-12
1.83992e-12
1.98611e-12
2.14474e-12
3.36977e-12
9.52e-12
2.6734e-11
3.26687e-11
2.37142e-11
1.80541e-12
1.83984e-12
1.97766e-12
2.1206e-12
2.20103e-12
2.75302e-12
6.81257e-12
1.9086e-11
2.26674e-11
1.96911e-11
3.57494e-10
4.62068e-12
2.12278e-12
2.26221e-12
2.31628e-12
2.48893e-12
4.96561e-12
1.37303e-11
1.58146e-11
1.65334e-11
2.05694e-07
6.06083e-09
1.28886e-11
2.40222e-12
2.44808e-12
2.4369e-12
3.74286e-12
9.92774e-12
1.10122e-11
1.39478e-11
7.8676e-13
1.49539e-12
1.60734e-12
2.51875e-12
4.14723e-12
7.07509e-12
1.46904e-11
5.4838e-11
2.4452e-10
7.36965e-10
7.22076e-13
1.3433e-12
1.39296e-12
2.14732e-12
3.48406e-12
5.87665e-12
1.12273e-11
3.41002e-11
1.48547e-10
4.15615e-10
6.59333e-13
1.20092e-12
1.19919e-12
1.82213e-12
2.92116e-12
4.85983e-12
8.83272e-12
2.25572e-11
9.40267e-11
2.49215e-10
6.05971e-13
1.07934e-12
1.03826e-12
1.55937e-12
2.46366e-12
4.04979e-12
7.10974e-12
1.58693e-11
6.16902e-11
1.56836e-10
5.59917e-13
9.75159e-13
9.02567e-13
1.33754e-12
2.08923e-12
3.40448e-12
5.81135e-12
1.17535e-11
4.16665e-11
1.02593e-10
5.20475e-13
8.86193e-13
7.88591e-13
1.1565e-12
1.78878e-12
2.87561e-12
4.81363e-12
9.05919e-12
2.88502e-11
6.93236e-11
4.86461e-13
8.09493e-13
6.92088e-13
1.00424e-12
1.53446e-12
2.44114e-12
4.03817e-12
7.1951e-12
2.04094e-11
4.81037e-11
5.12722e-13
7.43123e-13
6.1117e-13
8.7539e-13
1.32486e-12
2.08889e-12
3.41483e-12
5.85103e-12
1.47111e-11
3.41453e-11
5.63905e-10
1.23891e-11
5.52881e-13
7.66803e-13
1.15075e-12
1.79774e-12
2.90606e-12
4.84242e-12
1.07892e-11
2.47175e-11
2.04322e-07
1.98355e-08
7.84192e-11
9.8319e-13
9.9162e-13
1.54664e-12
2.47842e-12
4.0514e-12
8.02473e-12
1.81855e-11
1.06061e-12
1.85161e-12
1.6239e-12
2.17186e-12
3.02349e-12
4.38225e-12
6.9065e-12
1.32543e-11
5.10955e-11
1.56704e-10
9.87461e-13
1.69771e-12
1.45561e-12
1.93773e-12
2.6742e-12
3.81614e-12
5.78299e-12
1.0333e-11
3.62826e-11
9.63233e-11
9.16627e-13
1.54997e-12
1.29355e-12
1.71303e-12
2.34913e-12
3.32078e-12
4.89047e-12
8.08722e-12
2.58489e-11
6.26086e-11
8.54695e-13
1.42118e-12
1.15491e-12
1.51878e-12
2.07214e-12
2.90414e-12
4.20304e-12
6.53522e-12
1.8604e-11
4.24848e-11
8.00927e-13
1.30886e-12
1.0355e-12
1.35196e-12
1.83733e-12
2.5561e-12
3.65398e-12
5.43717e-12
1.35311e-11
2.97568e-11
7.54029e-13
1.21052e-12
9.32037e-13
1.20878e-12
1.63205e-12
2.25823e-12
3.20626e-12
4.62833e-12
9.95926e-12
2.13477e-11
7.12683e-13
1.12369e-12
8.42457e-13
1.08455e-12
1.45551e-12
2.00568e-12
2.82901e-12
4.00397e-12
7.39408e-12
1.56196e-11
7.49822e-13
1.04735e-12
7.64732e-13
9.76396e-13
1.30211e-12
1.78547e-12
2.50467e-12
3.5031e-12
5.53518e-12
1.16103e-11
8.31036e-10
2.2043e-11
7.15758e-13
8.81879e-13
1.16887e-12
1.59391e-12
2.22868e-12
3.08664e-12
4.17832e-12
8.73336e-12
2.51145e-07
3.49648e-08
1.92643e-10
1.5046e-12
1.03449e-12
1.42525e-12
1.98495e-12
2.72786e-12
3.16343e-12
6.62217e-12
1.47056e-12
2.33913e-12
1.63584e-12
1.89993e-12
2.28047e-12
2.82627e-12
3.79605e-12
5.90743e-12
1.50865e-11
2.57961e-11
1.39087e-12
2.18895e-12
1.51908e-12
1.76812e-12
2.12023e-12
2.60163e-12
3.36044e-12
4.83573e-12
1.18038e-11
1.95169e-11
1.31124e-12
2.0397e-12
1.39616e-12
1.62683e-12
1.95175e-12
2.38279e-12
3.00915e-12
4.06374e-12
9.05407e-12
1.48462e-11
1.2408e-12
1.90633e-12
1.28518e-12
1.49766e-12
1.79761e-12
2.1905e-12
2.73201e-12
3.52109e-12
6.9268e-12
1.14252e-11
1.17848e-12
1.78682e-12
1.18548e-12
1.38025e-12
1.65808e-12
2.01869e-12
2.50313e-12
3.12702e-12
5.29607e-12
8.86615e-12
1.12309e-12
1.67922e-12
1.09609e-12
1.27455e-12
1.52968e-12
1.86302e-12
2.30238e-12
2.82545e-12
4.04397e-12
6.91291e-12
1.07374e-12
1.58258e-12
1.01594e-12
1.17874e-12
1.41291e-12
1.72109e-12
2.12789e-12
2.57955e-12
3.08632e-12
5.40588e-12
1.11029e-12
1.49551e-12
9.43728e-13
1.09195e-12
1.30683e-12
1.5917e-12
1.96895e-12
2.37418e-12
2.35094e-12
4.23989e-12
1.0691e-09
3.23528e-11
9.03065e-13
1.01277e-12
1.21005e-12
1.47307e-12
1.82342e-12
2.19399e-12
1.78482e-12
3.33156e-12
2.04292e-07
4.83489e-08
3.05198e-10
1.91478e-12
1.09948e-12
1.36262e-12
1.68477e-12
2.02677e-12
1.34038e-12
2.60944e-12
2.07166e-12
2.9631e-12
1.59418e-12
1.60233e-12
1.66386e-12
1.79884e-12
2.14413e-12
2.94717e-12
6.55674e-12
8.43077e-12
1.98715e-12
2.82626e-12
1.53518e-12
1.56042e-12
1.63037e-12
1.74509e-12
1.9882e-12
2.52226e-12
5.3227e-12
7.00856e-12
1.90225e-12
2.68551e-12
1.45917e-12
1.49774e-12
1.57699e-12
1.68489e-12
1.86955e-12
2.21799e-12
4.21101e-12
5.72879e-12
1.8255e-12
2.55574e-12
1.38498e-12
1.43269e-12
1.51928e-12
1.62733e-12
1.78235e-12
2.0144e-12
3.3138e-12
4.6816e-12
1.75605e-12
2.4359e-12
1.31363e-12
1.36829e-12
1.46057e-12
1.57052e-12
1.71139e-12
1.87663e-12
2.59007e-12
3.82439e-12
1.69328e-12
2.3255e-12
1.24631e-12
1.30465e-12
1.40039e-12
1.51383e-12
1.65132e-12
1.77684e-12
2.00655e-12
3.1199e-12
1.63625e-12
2.22394e-12
1.18295e-12
1.24288e-12
1.33997e-12
1.45616e-12
1.59434e-12
1.69994e-12
1.53166e-12
2.53952e-12
1.66375e-12
2.13076e-12
1.12338e-12
1.18386e-12
1.28125e-12
1.39812e-12
1.53713e-12
1.63589e-12
1.14805e-12
2.05943e-12
1.28783e-09
4.1436e-11
1.09854e-12
1.12698e-12
1.22393e-12
1.34095e-12
1.48048e-12
1.57873e-12
8.39723e-13
1.66161e-12
6.44819e-08
5.51048e-08
6.91321e-10
1.5115e-12
1.14401e-12
1.28216e-12
1.42018e-12
1.51906e-12
5.80809e-13
1.32875e-12
2.89361e-12
3.67654e-12
1.42702e-12
1.21395e-12
1.06706e-12
1.00327e-12
1.13546e-12
1.53355e-12
3.32704e-12
3.76676e-12
2.81003e-12
3.56795e-12
1.42712e-12
1.24805e-12
1.11965e-12
1.03648e-12
1.07797e-12
1.32295e-12
2.85114e-12
3.33225e-12
2.72533e-12
3.45173e-12
1.40512e-12
1.25728e-12
1.15075e-12
1.06641e-12
1.05467e-12
1.17622e-12
2.34836e-12
2.85807e-12
2.64713e-12
3.34026e-12
1.37536e-12
1.25429e-12
1.16884e-12
1.0928e-12
1.05525e-12
1.08983e-12
1.91709e-12
2.4469e-12
2.5748e-12
3.23453e-12
1.34213e-12
1.24365e-12
1.17694e-12
1.11298e-12
1.06645e-12
1.04823e-12
1.54717e-12
2.09018e-12
2.508e-12
3.13408e-12
1.30584e-12
1.22648e-12
1.17678e-12
1.12658e-12
1.08205e-12
1.03399e-12
1.2291e-12
1.77996e-12
2.44635e-12
3.03935e-12
1.26799e-12
1.20475e-12
1.17038e-12
1.13381e-12
1.09681e-12
1.03465e-12
9.57445e-13
1.51059e-12
2.46583e-12
2.9505e-12
1.22982e-12
1.18049e-12
1.15846e-12
1.13455e-12
1.10767e-12
1.04279e-12
7.25349e-13
1.27828e-12
1.52733e-09
4.73703e-11
1.24071e-12
1.15368e-12
1.14284e-12
1.13021e-12
1.11332e-12
1.05311e-12
5.27837e-13
1.0786e-12
9.70789e-08
5.18176e-08
6.63908e-10
3.10534e-12
1.10638e-12
1.11899e-12
1.11258e-12
1.05912e-12
3.54796e-13
9.10694e-13
3.88675e-12
4.37528e-12
1.10592e-12
7.60891e-13
4.9511e-13
3.49795e-13
4.85661e-13
7.92769e-13
2.01653e-12
2.04394e-12
3.81e-12
4.30738e-12
1.1511e-12
8.42718e-13
6.00309e-13
4.20415e-13
4.29656e-13
6.45096e-13
1.85103e-12
1.92889e-12
3.73345e-12
4.23252e-12
1.17373e-12
9.00701e-13
6.84366e-13
4.99722e-13
4.25945e-13
5.33484e-13
1.6105e-12
1.73418e-12
3.66101e-12
4.15641e-12
1.18497e-12
9.43432e-13
7.51013e-13
5.74342e-13
4.58456e-13
4.65287e-13
1.39603e-12
1.55849e-12
3.59244e-12
4.08128e-12
1.18777e-12
9.74106e-13
8.04395e-13
6.40529e-13
5.08168e-13
4.41529e-13
1.20464e-12
1.39954e-12
3.52858e-12
4.00742e-12
1.18381e-12
9.95736e-13
8.47405e-13
6.98492e-13
5.63227e-13
4.52819e-13
1.03568e-12
1.2571e-12
3.46816e-12
3.9352e-12
1.17503e-12
1.00992e-12
8.80439e-13
7.47342e-13
6.17333e-13
4.85495e-13
8.88391e-13
1.13056e-12
3.4833e-12
3.86655e-12
1.16286e-12
1.01777e-12
9.05602e-13
7.88037e-13
6.67158e-13
5.28664e-13
7.61988e-13
1.01874e-12
1.74792e-09
4.9024e-11
1.23602e-12
1.02088e-12
9.25202e-13
8.2169e-13
7.10932e-13
5.75092e-13
6.56293e-13
9.21555e-13
2.74165e-07
3.63492e-08
5.9748e-10
4.74904e-12
9.31462e-13
8.47104e-13
7.48404e-13
6.17723e-13
5.71652e-13
8.4218e-13
4.85925e-12
4.92029e-12
7.32608e-13
4.98102e-13
2.72188e-13
1.52004e-13
2.66626e-13
4.67328e-13
1.45333e-12
1.30365e-12
4.79293e-12
4.89711e-12
7.6863e-13
5.35949e-13
3.11115e-13
1.24624e-13
1.63397e-13
3.63399e-13
1.44304e-12
1.32087e-12
4.72917e-12
4.86969e-12
7.94893e-13
5.72396e-13
3.60566e-13
1.62468e-13
7.63481e-14
2.64053e-13
1.33783e-12
1.24669e-12
4.6672e-12
4.83722e-12
8.15965e-13
6.05386e-13
4.1023e-13
2.20524e-13
4.54776e-14
1.72032e-13
1.24236e-12
1.17815e-12
4.60805e-12
4.80181e-12
8.32236e-13
6.3564e-13
4.57111e-13
2.80722e-13
1.08435e-13
8.96683e-14
1.155e-12
1.11481e-12
4.55122e-12
4.76386e-12
8.44473e-13
6.61744e-13
4.99855e-13
3.37174e-13
1.76353e-13
3.43092e-14
1.07562e-12
1.05678e-12
4.49717e-12
4.72498e-12
8.53038e-13
6.8412e-13
5.37924e-13
3.89152e-13
2.39013e-13
7.54728e-14
1.00512e-12
1.00411e-12
4.51339e-12
4.68702e-12
8.57877e-13
7.02298e-13
5.71273e-13
4.35503e-13
2.95884e-13
1.38162e-13
9.42328e-13
9.56747e-13
1.91474e-09
4.69287e-11
1.00989e-12
7.17795e-13
6.00202e-13
4.76558e-13
3.47874e-13
1.97974e-13
8.87638e-13
9.13987e-13
4.34856e-07
1.64499e-08
3.68748e-10
3.89949e-12
6.26049e-13
5.13384e-13
3.94741e-13
2.54065e-13
8.40361e-13
8.85433e-13
5.48998e-12
5.20179e-12
5.31527e-13
6.02057e-13
5.10297e-13
4.40595e-13
4.0079e-13
4.15054e-13
1.21982e-12
9.92625e-13
5.43089e-12
5.20787e-12
4.73515e-13
5.41844e-13
4.57459e-13
3.92949e-13
3.55155e-13
3.76303e-13
1.28282e-12
1.06759e-12
5.37643e-12
5.21345e-12
4.25909e-13
4.88311e-13
4.10237e-13
3.48227e-13
3.12142e-13
3.34398e-13
1.24113e-12
1.04515e-12
5.32323e-12
5.21274e-12
3.91244e-13
4.43085e-13
3.69877e-13
3.10334e-13
2.73711e-13
2.95825e-13
1.20135e-12
1.02291e-12
5.27144e-12
5.2071e-12
3.68653e-13
4.07015e-13
3.38656e-13
2.79674e-13
2.40666e-13
2.60273e-13
1.16351e-12
1.00219e-12
5.22189e-12
5.19821e-12
3.56262e-13
3.78745e-13
3.13546e-13
2.5515e-13
2.13442e-13
2.29229e-13
1.12776e-12
9.82304e-13
5.174e-12
5.18624e-12
3.50861e-13
3.57002e-13
2.95595e-13
2.37932e-13
1.93372e-13
2.0152e-13
1.09359e-12
9.63916e-13
5.19333e-12
5.17393e-12
3.50429e-13
3.40827e-13
2.83183e-13
2.26632e-13
1.7849e-13
1.79177e-13
1.06178e-12
9.45592e-13
2.00332e-09
4.4024e-11
6.40757e-13
3.29358e-13
2.7539e-13
2.20946e-13
1.71461e-13
1.62315e-13
1.0306e-12
9.2834e-13
5.33915e-07
1.41768e-08
2.77109e-10
2.93816e-12
2.64883e-13
2.23006e-13
1.74765e-13
1.58038e-13
1.00221e-12
9.49031e-13
5.49497e-12
5.17268e-12
5.26813e-13
6.27106e-13
5.39945e-13
4.65961e-13
4.12418e-13
4.07383e-13
1.15234e-12
9.47731e-13
5.43575e-12
5.18078e-12
4.49172e-13
5.57863e-13
4.83267e-13
4.18429e-13
3.71868e-13
3.76745e-13
1.22492e-12
1.02633e-12
5.38158e-12
5.18943e-12
3.82038e-13
4.94636e-13
4.30043e-13
3.7267e-13
3.31893e-13
3.40203e-13
1.19099e-12
1.00727e-12
5.32871e-12
5.19133e-12
3.28382e-13
4.38438e-13
3.82505e-13
3.31668e-13
2.95168e-13
3.06713e-13
1.15857e-12
9.88532e-13
5.27761e-12
5.18877e-12
2.89208e-13
3.91391e-13
3.41923e-13
2.95483e-13
2.61999e-13
2.75245e-13
1.12744e-12
9.71113e-13
5.22859e-12
5.18223e-12
2.6376e-13
3.5174e-13
3.07589e-13
2.64787e-13
2.32853e-13
2.4614e-13
1.09777e-12
9.54536e-13
5.1813e-12
5.17286e-12
2.50013e-13
3.18998e-13
2.79098e-13
2.39004e-13
2.07895e-13
2.20039e-13
1.06927e-12
9.3901e-13
5.20089e-12
5.16252e-12
2.45969e-13
2.92759e-13
2.56417e-13
2.183e-13
1.86512e-13
1.96687e-13
1.04234e-12
9.23878e-13
2.00333e-09
4.40235e-11
5.84784e-13
2.72126e-13
2.38461e-13
2.02632e-13
1.71086e-13
1.77069e-13
1.01591e-12
9.09336e-13
5.33915e-07
1.41768e-08
2.77088e-10
2.90886e-12
2.14895e-13
1.95461e-13
1.65625e-13
1.67661e-13
9.91234e-13
9.44257e-13
4.86594e-12
4.84031e-12
6.66242e-13
5.13118e-13
3.3345e-13
2.27584e-13
2.62027e-13
4.0531e-13
1.22054e-12
1.15533e-12
4.8014e-12
4.82547e-12
6.82055e-13
5.20251e-13
3.3606e-13
1.94386e-13
1.82341e-13
3.221e-13
1.24294e-12
1.18428e-12
4.73984e-12
4.80693e-12
6.97994e-13
5.35204e-13
3.56561e-13
1.97622e-13
1.18556e-13
2.37679e-13
1.16596e-12
1.12225e-12
4.68e-12
4.7829e-12
7.1305e-13
5.53285e-13
3.84985e-13
2.24778e-13
9.0339e-14
1.59264e-13
1.09593e-12
1.06522e-12
4.62288e-12
4.75571e-12
7.27579e-13
5.72915e-13
4.16978e-13
2.636e-13
1.14892e-13
9.01093e-14
1.03195e-12
1.01325e-12
4.56799e-12
4.72565e-12
7.39992e-13
5.92522e-13
4.49601e-13
3.0606e-13
1.61848e-13
4.45716e-14
9.74667e-13
9.6648e-13
4.51551e-12
4.6939e-12
7.5013e-13
6.10714e-13
4.80716e-13
3.48033e-13
2.12649e-13
6.92257e-14
9.23446e-13
9.24355e-13
4.53332e-12
4.66209e-12
7.57827e-13
6.27088e-13
5.09538e-13
3.87405e-13
2.61459e-13
1.20924e-13
8.78325e-13
8.86759e-13
1.91474e-09
4.69287e-11
9.22272e-13
6.41388e-13
5.35619e-13
4.24187e-13
3.07562e-13
1.73609e-13
8.39536e-13
8.54266e-13
4.34856e-07
1.64499e-08
3.68707e-10
3.84595e-12
5.58817e-13
4.57775e-13
3.50311e-13
2.248e-13
8.06279e-13
8.4575e-13
3.88964e-12
4.27378e-12
9.70282e-13
6.55224e-13
3.94856e-13
2.18134e-13
3.33122e-13
6.07815e-13
1.50403e-12
1.72033e-12
3.81878e-12
4.22221e-12
1.01966e-12
7.33572e-13
4.98396e-13
3.07258e-13
2.91843e-13
4.88921e-13
1.41328e-12
1.63786e-12
3.74813e-12
4.16202e-12
1.05022e-12
7.93964e-13
5.83685e-13
3.97311e-13
3.04625e-13
3.96401e-13
1.23847e-12
1.47484e-12
3.67982e-12
4.0994e-12
1.06961e-12
8.3994e-13
6.52751e-13
4.77525e-13
3.51153e-13
3.43412e-13
1.08118e-12
1.3276e-12
3.61546e-12
4.03595e-12
1.08133e-12
8.76266e-13
7.09724e-13
5.47919e-13
4.10697e-13
3.33831e-13
9.40979e-13
1.1952e-12
3.55442e-12
3.97266e-12
1.08612e-12
9.03168e-13
7.56264e-13
6.09427e-13
4.72745e-13
3.56659e-13
8.18133e-13
1.07711e-12
3.49674e-12
3.91016e-12
1.08593e-12
9.23066e-13
7.93625e-13
6.6166e-13
5.31163e-13
3.98798e-13
7.12231e-13
9.73517e-13
3.51397e-12
3.84988e-12
1.08105e-12
9.36831e-13
8.2404e-13
7.05944e-13
5.84819e-13
4.48128e-13
6.24224e-13
8.82703e-13
1.74792e-09
4.90266e-11
1.16209e-12
9.46198e-13
8.48011e-13
7.43296e-13
6.32121e-13
4.98623e-13
5.5322e-13
8.05456e-13
2.74165e-07
3.63492e-08
5.97451e-10
4.70668e-12
8.59687e-13
7.72695e-13
6.72656e-13
5.44919e-13
5.00286e-13
7.48579e-13
2.89906e-12
3.58552e-12
1.26645e-12
1.03672e-12
8.76312e-13
7.89254e-13
8.63796e-13
1.15188e-12
2.21151e-12
3.01306e-12
2.825e-12
3.49912e-12
1.28818e-12
1.09004e-12
9.46543e-13
8.45691e-13
8.4905e-13
1.01737e-12
1.92852e-12
2.68899e-12
2.74764e-12
3.40145e-12
1.28582e-12
1.11809e-12
9.95237e-13
8.95405e-13
8.56787e-13
9.26943e-13
1.59037e-12
2.30882e-12
2.67493e-12
3.3059e-12
1.27415e-12
1.13202e-12
1.02906e-12
9.38008e-13
8.79482e-13
8.81943e-13
1.29283e-12
1.97665e-12
2.60706e-12
3.21324e-12
1.25571e-12
1.13691e-12
1.05194e-12
9.72755e-13
9.09484e-13
8.6872e-13
1.03568e-12
1.68683e-12
2.54348e-12
3.12398e-12
1.23296e-12
1.13376e-12
1.06578e-12
9.99873e-13
9.40143e-13
8.75512e-13
8.12799e-13
1.43448e-12
2.48446e-12
3.03831e-12
1.20717e-12
1.1252e-12
1.07181e-12
1.01851e-12
9.66999e-13
8.92573e-13
6.19648e-13
1.21608e-12
2.50515e-12
2.9576e-12
1.17921e-12
1.11182e-12
1.0721e-12
1.03108e-12
9.88347e-13
9.13901e-13
4.52662e-13
1.02819e-12
1.52733e-09
4.73751e-11
1.19743e-12
1.09559e-12
1.06696e-12
1.03742e-12
1.00486e-12
9.34999e-13
3.11351e-13
8.67966e-13
9.70789e-08
5.18176e-08
6.63889e-10
3.07103e-12
1.04128e-12
1.03657e-12
1.01384e-12
9.50806e-13
1.84641e-13
7.355e-13
2.09081e-12
2.90396e-12
1.43833e-12
1.38486e-12
1.38633e-12
1.4458e-12
1.64586e-12
2.12058e-12
3.82284e-12
6.26978e-12
2.01571e-12
2.79172e-12
1.41204e-12
1.38022e-12
1.39384e-12
1.44466e-12
1.58362e-12
1.89547e-12
3.17028e-12
5.27152e-12
1.93675e-12
2.66934e-12
1.3635e-12
1.3499e-12
1.37616e-12
1.42716e-12
1.53293e-12
1.7328e-12
2.53084e-12
4.32536e-12
1.86409e-12
2.55385e-12
1.31171e-12
1.31255e-12
1.3495e-12
1.40557e-12
1.49723e-12
1.62537e-12
2.00338e-12
3.54496e-12
1.79758e-12
2.44563e-12
1.25884e-12
1.27128e-12
1.31763e-12
1.37971e-12
1.46801e-12
1.55482e-12
1.57197e-12