/*--------------------------------*- C++ -*----------------------------------*\
| =========                 |                                                 |
| \\      /  F ield         | OpenFOAM: The Open Source CFD Toolbox           |
|  \\    /   O peration     | Version:  4.1                                   |
|   \\  /    A nd           | Web:      www.OpenFOAM.org                      |
|    \\/     M anipulation  |                                                 |
\*---------------------------------------------------------------------------*/
FoamFile
{
    version     2.0;
    format      ascii;
    class       volScalarField;
    location    "8.88";
    object      p;
}
// * * * * * * * * * * * * * * * * * * * * * * * * * * * * * * * * * * * * * //

dimensions      [1 -1 -2 0 0 0 0];

internalField   nonuniform List<scalar> 
52500
(
1.00001
1.00004
1.00013
1.00029
1.00083
1.0017
1.00482
1.00965
1.02876
1.05381
1.18377
1.34709
2.25852
4.0794
9.90325
11.4087
11.2406
11.1523
11.2325
11.4505
11.6862
11.8395
11.9565
12.05
12.1236
1.00001
1.00004
1.00013
1.00028
1.00082
1.00168
1.00477
1.00955
1.02848
1.05323
1.18206
1.34285
2.2464
4.04496
9.82229
11.4019
11.2324
11.1403
11.2213
11.4402
11.6756
11.829
11.9477
12.0428
12.118
1.00001
1.00004
1.00013
1.00028
1.0008
1.00164
1.00467
1.00934
1.02788
1.052
1.17857
1.33398
2.22096
3.9717
9.64316
11.3862
11.2108
11.1067
11.1865
11.4032
11.6355
11.7858
11.9035
11.9974
12.0717
1.00001
1.00004
1.00012
1.00027
1.00077
1.00159
1.00451
1.00902
1.02697
1.05013
1.17323
1.32065
2.18196
3.86037
9.3638
11.3667
11.1791
11.0522
11.1287
11.339
11.5651
11.7097
11.8231
11.9138
11.9877
1.00001
1.00003
1.00012
1.00026
1.00074
1.00151
1.0043
1.00859
1.02575
1.0476
1.16604
1.30312
2.12911
3.71125
8.97934
11.347
11.1391
10.9787
11.0501
11.2513
11.4679
11.6041
11.7112
11.7974
11.8714
1.00001
1.00003
1.00011
1.00024
1.00069
1.00141
1.00402
1.00796
1.02427
1.04389
1.15733
1.28072
2.06644
3.52249
8.48566
11.3306
11.0911
10.886
10.9503
11.1379
11.3416
11.465
11.5608
11.6381
11.7121
1.00001
1.00003
1.0001
1.00022
1.00064
1.0013
1.00372
1.00734
1.02248
1.04041
1.14563
1.25669
1.98565
3.29672
7.87586
11.3237
11.0402
10.7766
10.8316
10.9998
11.1841
11.2872
11.3634
11.4219
11.4878
1.00001
1.00003
1.00009
1.0002
1.00059
1.0012
1.00342
1.00684
1.02041
1.03781
1.13071
1.23467
1.8753
3.04223
7.139
11.321
10.9916
10.6538
10.6967
10.8382
10.9943
11.0667
11.1089
11.1293
11.1671
1.00001
1.00002
1.00008
1.00018
1.00053
1.00109
1.00309
1.00623
1.01812
1.03522
1.11308
1.21179
1.7534
2.76474
6.29546
11.2924
10.9369
10.5246
10.5496
10.6521
10.7687
10.7969
10.784
10.7268
10.6691
1
1.00002
1.00007
1.00016
1.00046
1.00095
1.0027
1.00545
1.01579
1.03106
1.09701
1.18646
1.63645
2.492
5.42741
11.1304
10.8258
10.406
10.3921
10.4427
10.5033
10.48
10.3838
10.1632
9.82905
1.00001
1.00004
1.00014
1.00029
1.00083
1.0017
1.00483
1.00966
1.02878
1.05383
1.18379
1.34718
2.25864
4.07984
9.90412
11.4087
11.2407
11.1524
11.2326
11.4506
11.6863
11.8396
11.9566
12.0501
12.1237
1.00001
1.00004
1.00013
1.00029
1.00082
1.00169
1.00478
1.00956
1.02849
1.05325
1.18208
1.34294
2.2465
4.04538
9.82314
11.4019
11.2324
11.1404
11.2214
11.4403
11.6758
11.8291
11.9478
12.0429
12.1181
1.00001
1.00004
1.00013
1.00028
1.00081
1.00165
1.00468
1.00935
1.02789
1.05202
1.17859
1.33407
2.22106
3.97211
9.644
11.3862
11.2109
11.1068
11.1867
11.4034
11.6356
11.7859
11.9036
11.9975
12.0718
1.00001
1.00004
1.00013
1.00027
1.00078
1.00159
1.00452
1.00903
1.02699
1.05015
1.17325
1.32074
2.18206
3.86077
9.36465
11.3667
11.1792
11.0523
11.1288
11.3391
11.5652
11.7098
11.8232
11.9139
11.9879
1.00001
1.00004
1.00012
1.00026
1.00074
1.00152
1.00431
1.0086
1.02577
1.04763
1.16605
1.30321
2.1292
3.71164
8.9802
11.347
11.1391
10.9788
11.0502
11.2514
11.468
11.6042
11.7113
11.7975
11.8715
1.00001
1.00003
1.00011
1.00024
1.00069
1.00142
1.00403
1.00797
1.02428
1.04391
1.15736
1.28079
2.06655
3.52288
8.48654
11.3305
11.0911
10.8861
10.9504
11.138
11.3417
11.4651
11.5609
11.6382
11.7122
1.00001
1.00003
1.0001
1.00023
1.00064
1.00131
1.00373
1.00735
1.02249
1.04043
1.14566
1.25675
1.98577
3.29711
7.87679
11.3236
11.0403
10.7768
10.8317
10.9999
11.1842
11.2873
11.3635
11.422
11.4879
1.00001
1.00003
1.0001
1.00021
1.00059
1.00121
1.00343
1.00685
1.02042
1.03784
1.13072
1.23475
1.87538
3.04259
7.13991
11.321
10.9916
10.654
10.6968
10.8383
10.9944
11.0668
11.109
11.1294
11.1672
1.00001
1.00003
1.00009
1.00019
1.00053
1.0011
1.00309
1.00624
1.01813
1.03524
1.1131
1.21185
1.7535
2.76507
6.29635
11.2925
10.937
10.5247
10.5497
10.6522
10.7688
10.797
10.7841
10.7269
10.6692
1.00001
1.00002
1.00008
1.00016
1.00047
1.00096
1.0027
1.00546
1.0158
1.03108
1.09702
1.18651
1.63653
2.49224
5.42795
11.1308
10.826
10.406
10.3922
10.4428
10.5034
10.48
10.3839
10.1632
9.82913
1.00001
1.00004
1.00014
1.00029
1.00083
1.0017
1.00483
1.00966
1.02878
1.05383
1.18379
1.34718
2.25865
4.07987
9.9042
11.4087
11.2407
11.1525
11.2326
11.4506
11.6863
11.8396
11.9566
12.0501
12.1238
1.00001
1.00004
1.00013
1.00029
1.00082
1.00169
1.00478
1.00956
1.02849
1.05325
1.18208
1.34294
2.24651
4.04541
9.82322
11.4019
11.2324
11.1404
11.2214
11.4403
11.6758
11.8291
11.9478
12.0429
12.1182
1.00001
1.00004
1.00013
1.00028
1.00081
1.00165
1.00468
1.00935
1.02789
1.05202
1.17859
1.33407
2.22107
3.97214
9.64408
11.3862
11.2109
11.1068
11.1867
11.4034
11.6356
11.7859
11.9036
11.9976
12.0719
1.00001
1.00004
1.00013
1.00027
1.00078
1.00159
1.00452
1.00903
1.02699
1.05015
1.17325
1.32074
2.18207
3.8608
9.36473
11.3667
11.1792
11.0523
11.1288
11.3391
11.5652
11.7098
11.8232
11.9139
11.9879
1.00001
1.00004
1.00012
1.00026
1.00074
1.00152
1.00431
1.0086
1.02577
1.04763
1.16605
1.30321
2.12921
3.71167
8.98028
11.347
11.1391
10.9788
11.0502
11.2514
11.468
11.6042
11.7113
11.7975
11.8715
1.00001
1.00003
1.00011
1.00024
1.00069
1.00142
1.00403
1.00797
1.02428
1.04391
1.15736
1.2808
2.06656
3.52292
8.48662
11.3305
11.0911
10.8861
10.9504
11.138
11.3417
11.4651
11.5609
11.6382
11.7122
1.00001
1.00003
1.0001
1.00023
1.00064
1.00131
1.00373
1.00735
1.02249
1.04043
1.14567
1.25675
1.98579
3.29714
7.87688
11.3236
11.0403
10.7768
10.8317
10.9999
11.1842
11.2873
11.3635
11.422
11.4879
1.00001
1.00003
1.0001
1.00021
1.00059
1.00121
1.00343
1.00685
1.02042
1.03784
1.13072
1.23476
1.8754
3.04262
7.14
11.3209
10.9916
10.654
10.6968
10.8383
10.9944
11.0668
11.109
11.1294
11.1672
1.00001
1.00003
1.00009
1.00019
1.00053
1.0011
1.00309
1.00624
1.01813
1.03524
1.1131
1.21185
1.75352
2.76509
6.29644
11.2925
10.937
10.5247
10.5497
10.6522
10.7688
10.797
10.7841
10.7269
10.6692
1.00001
1.00002
1.00008
1.00016
1.00047
1.00096
1.0027
1.00546
1.0158
1.03108
1.09703
1.18651
1.63654
2.49226
5.428
11.1309
10.826
10.406
10.3922
10.4428
10.5034
10.48
10.3839
10.1632
9.82914
1.00001
1.00004
1.00014
1.00029
1.00083
1.0017
1.00483
1.00966
1.02878
1.05383
1.18379
1.34718
2.25865
4.07988
9.9042
11.4087
11.2407
11.1525
11.2326
11.4506
11.6863
11.8396
11.9566
12.0502
12.1238
1.00001
1.00004
1.00013
1.00029
1.00082
1.00169
1.00478
1.00956
1.02849
1.05325
1.18208
1.34294
2.24651
4.04542
9.82323
11.4019
11.2324
11.1405
11.2214
11.4403
11.6758
11.8291
11.9478
12.0429
12.1182
1.00001
1.00004
1.00013
1.00028
1.00081
1.00165
1.00468
1.00935
1.02789
1.05202
1.17859
1.33407
2.22107
3.97214
9.64409
11.3862
11.2109
11.1068
11.1867
11.4034
11.6356
11.7859
11.9036
11.9976
12.0719
1.00001
1.00004
1.00013
1.00027
1.00078
1.00159
1.00452
1.00903
1.02699
1.05015
1.17325
1.32074
2.18207
3.8608
9.36474
11.3667
11.1792
11.0523
11.1288
11.3391
11.5652
11.7098
11.8232
11.9139
11.9879
1.00001
1.00004
1.00012
1.00026
1.00074
1.00152
1.00431
1.0086
1.02577
1.04763
1.16605
1.30321
2.12921
3.71168
8.98029
11.347
11.1391
10.9788
11.0502
11.2514
11.468
11.6042
11.7113
11.7975
11.8715
1.00001
1.00003
1.00011
1.00024
1.00069
1.00142
1.00403
1.00797
1.02428
1.04391
1.15736
1.2808
2.06656
3.52292
8.48663
11.3305
11.0911
10.8861
10.9504
11.138
11.3417
11.4651
11.5609
11.6382
11.7122
1.00001
1.00003
1.0001
1.00023
1.00064
1.00131
1.00373
1.00735
1.02249
1.04043
1.14567
1.25675
1.98579
3.29714
7.87689
11.3236
11.0403
10.7768
10.8317
10.9999
11.1842
11.2873
11.3635
11.422
11.4879
1.00001
1.00003
1.0001
1.00021
1.00059
1.00121
1.00343
1.00685
1.02042
1.03784
1.13072
1.23476
1.8754
3.04263
7.14001
11.3209
10.9916
10.654
10.6968
10.8383
10.9944
11.0668
11.109
11.1294
11.1672
1.00001
1.00003
1.00009
1.00019
1.00053
1.0011
1.00309
1.00624
1.01813
1.03524
1.1131
1.21186
1.75352
2.7651
6.29645
11.2925
10.937
10.5247
10.5497
10.6522
10.7688
10.797
10.7841
10.7269
10.6692
1.00001
1.00002
1.00008
1.00016
1.00047
1.00096
1.0027
1.00546
1.0158
1.03108
1.09703
1.18651
1.63654
2.49227
5.42801
11.1309
10.826
10.406
10.3922
10.4428
10.5034
10.48
10.3839
10.1632
9.82914
1.00001
1.00004
1.00014
1.00029
1.00083
1.0017
1.00483
1.00966
1.02878
1.05383
1.18379
1.34718
2.25865
4.07988
9.90421
11.4087
11.2407
11.1525
11.2326
11.4506
11.6864
11.8396
11.9566
12.0502
12.1238
1.00001
1.00004
1.00013
1.00029
1.00082
1.00169
1.00478
1.00956
1.02849
1.05325
1.18208
1.34294
2.24651
4.04542
9.82323
11.4019
11.2324
11.1405
11.2214
11.4403
11.6758
11.8291
11.9478
12.0429
12.1182
1.00001
1.00004
1.00013
1.00028
1.00081
1.00165
1.00468
1.00935
1.02789
1.05202
1.17859
1.33407
2.22107
3.97214
9.6441
11.3862
11.2109
11.1068
11.1867
11.4034
11.6356
11.7859
11.9036
11.9976
12.0719
1.00001
1.00004
1.00013
1.00027
1.00078
1.00159
1.00452
1.00903
1.02699
1.05015
1.17325
1.32074
2.18208
3.8608
9.36474
11.3667
11.1792
11.0523
11.1288
11.3391
11.5652
11.7098
11.8232
11.9139
11.9879
1.00001
1.00004
1.00012
1.00026
1.00074
1.00152
1.00431
1.0086
1.02577
1.04763
1.16605
1.30321
2.12921
3.71168
8.98029
11.347
11.1391
10.9788
11.0502
11.2514
11.468
11.6042
11.7113
11.7975
11.8715
1.00001
1.00003
1.00011
1.00024
1.00069
1.00142
1.00403
1.00797
1.02428
1.04391
1.15736
1.2808
2.06656
3.52292
8.48664
11.3305
11.0911
10.8861
10.9504
11.138
11.3417
11.4651
11.5609
11.6382
11.7122
1.00001
1.00003
1.0001
1.00023
1.00064
1.00131
1.00373
1.00735
1.02249
1.04043
1.14567
1.25676
1.98579
3.29715
7.8769
11.3236
11.0403
10.7768
10.8317
10.9999
11.1842
11.2873
11.3635
11.422
11.4879
1.00001
1.00003
1.0001
1.00021
1.00059
1.00121
1.00343
1.00685
1.02042
1.03784
1.13072
1.23476
1.8754
3.04263
7.14002
11.3209
10.9916
10.654
10.6968
10.8383
10.9944
11.0668
11.109
11.1294
11.1672
1.00001
1.00003
1.00009
1.00019
1.00053
1.0011
1.00309
1.00624
1.01813
1.03524
1.1131
1.21186
1.75352
2.7651
6.29646
11.2925
10.937
10.5247
10.5497
10.6522
10.7688
10.797
10.7841
10.7269
10.6692
1.00001
1.00002
1.00008
1.00016
1.00047
1.00096
1.0027
1.00546
1.0158
1.03108
1.09703
1.18651
1.63654
2.49227
5.42802
11.1309
10.826
10.406
10.3922
10.4428
10.5034
10.48
10.3839
10.1632
9.82914
1.00001
1.00004
1.00014
1.00029
1.00083
1.0017
1.00483
1.00966
1.02878
1.05383
1.18379
1.34718
2.25865
4.07988
9.90421
11.4087
11.2407
11.1525
11.2326
11.4506
11.6864
11.8396
11.9566
12.0502
12.1238
1.00001
1.00004
1.00013
1.00029
1.00082
1.00169
1.00478
1.00956
1.02849
1.05325
1.18208
1.34294
2.24651
4.04542
9.82323
11.4019
11.2324
11.1405
11.2214
11.4403
11.6758
11.8291
11.9478
12.0429
12.1182
1.00001
1.00004
1.00013
1.00028
1.00081
1.00165
1.00468
1.00935
1.02789
1.05202
1.17859
1.33407
2.22107
3.97214
9.6441
11.3862
11.2109
11.1068
11.1867
11.4034
11.6356
11.7859
11.9036
11.9976
12.0719
1.00001
1.00004
1.00013
1.00027
1.00078
1.00159
1.00452
1.00903
1.02699
1.05015
1.17325
1.32074
2.18208
3.86081
9.36474
11.3667
11.1792
11.0523
11.1288
11.3391
11.5652
11.7098
11.8232
11.9139
11.9879
1.00001
1.00004
1.00012
1.00026
1.00074
1.00152
1.00431
1.0086
1.02577
1.04763
1.16605
1.30321
2.12921
3.71168
8.9803
11.347
11.1391
10.9788
11.0502
11.2514
11.468
11.6042
11.7113
11.7975
11.8715
1.00001
1.00003
1.00011
1.00024
1.00069
1.00142
1.00403
1.00797
1.02428
1.04391
1.15736
1.2808
2.06656
3.52292
8.48664
11.3305
11.0911
10.8861
10.9504
11.138
11.3417
11.4651
11.5609
11.6382
11.7122
1.00001
1.00003
1.0001
1.00023
1.00064
1.00131
1.00373
1.00735
1.02249
1.04043
1.14567
1.25676
1.98579
3.29715
7.8769
11.3236
11.0403
10.7768
10.8317
10.9999
11.1842
11.2873
11.3635
11.422
11.4879
1.00001
1.00003
1.0001
1.00021
1.00059
1.00121
1.00343
1.00685
1.02042
1.03784
1.13072
1.23476
1.8754
3.04263
7.14002
11.3209
10.9916
10.654
10.6968
10.8383
10.9944
11.0668
11.109
11.1294
11.1672
1.00001
1.00003
1.00009
1.00019
1.00053
1.0011
1.00309
1.00624
1.01813
1.03524
1.1131
1.21186
1.75352
2.7651
6.29646
11.2925
10.937
10.5247
10.5497
10.6522
10.7688
10.797
10.7841
10.7269
10.6692
1.00001
1.00002
1.00008
1.00016
1.00047
1.00096
1.0027
1.00546
1.0158
1.03108
1.09703
1.18651
1.63654
2.49227
5.42802
11.1309
10.826
10.406
10.3922
10.4428
10.5034
10.48
10.3839
10.1632
9.82914
1.00001
1.00004
1.00014
1.00029
1.00083
1.0017
1.00483
1.00966
1.02878
1.05383
1.18379
1.34718
2.25865
4.07988
9.90421
11.4087
11.2407
11.1525
11.2326
11.4506
11.6864
11.8396
11.9566
12.0502
12.1238
1.00001
1.00004
1.00013
1.00029
1.00082
1.00169
1.00478
1.00956
1.02849
1.05325
1.18208
1.34294
2.24651
4.04542
9.82323
11.4019
11.2324
11.1405
11.2214
11.4403
11.6758
11.8291
11.9478
12.0429
12.1182
1.00001
1.00004
1.00013
1.00028
1.00081
1.00165
1.00468
1.00935
1.02789
1.05202
1.17859
1.33407
2.22107
3.97214
9.64409
11.3862
11.2109
11.1068
11.1867
11.4034
11.6356
11.7859
11.9036
11.9976
12.0719
1.00001
1.00004
1.00013
1.00027
1.00078
1.00159
1.00452
1.00903
1.02699
1.05015
1.17325
1.32074
2.18207
3.8608
9.36474
11.3667
11.1792
11.0523
11.1288
11.3391
11.5652
11.7098
11.8232
11.9139
11.9879
1.00001
1.00004
1.00012
1.00026
1.00074
1.00152
1.00431
1.0086
1.02577
1.04763
1.16605
1.30321
2.12921
3.71168
8.98029
11.347
11.1391
10.9788
11.0502
11.2514
11.468
11.6042
11.7113
11.7975
11.8715
1.00001
1.00003
1.00011
1.00024
1.00069
1.00142
1.00403
1.00797
1.02428
1.04391
1.15736
1.2808
2.06656
3.52292
8.48663
11.3305
11.0911
10.8861
10.9504
11.138
11.3417
11.4651
11.5609
11.6382
11.7122
1.00001
1.00003
1.0001
1.00023
1.00064
1.00131
1.00373
1.00735
1.02249
1.04043
1.14567
1.25676
1.98579
3.29715
7.87689
11.3236
11.0403
10.7768
10.8317
10.9999
11.1842
11.2873
11.3635
11.422
11.4879
1.00001
1.00003
1.0001
1.00021
1.00059
1.00121
1.00343
1.00685
1.02042
1.03784
1.13072
1.23476
1.8754
3.04263
7.14002
11.3209
10.9916
10.654
10.6968
10.8383
10.9944
11.0668
11.109
11.1294
11.1672
1.00001
1.00003
1.00009
1.00019
1.00053
1.0011
1.00309
1.00624
1.01813
1.03524
1.1131
1.21186
1.75352
2.7651
6.29645
11.2925
10.937
10.5247
10.5497
10.6522
10.7688
10.797
10.7841
10.7269
10.6692
1.00001
1.00002
1.00008
1.00016
1.00047
1.00096
1.0027
1.00546
1.0158
1.03108
1.09703
1.18651
1.63654
2.49227
5.42801
11.1309
10.826
10.406
10.3922
10.4428
10.5034
10.48
10.3839
10.1632
9.82914
1.00001
1.00004
1.00014
1.00029
1.00083
1.0017
1.00483
1.00966
1.02878
1.05383
1.18379
1.34718
2.25865
4.07987
9.9042
11.4087
11.2407
11.1525
11.2326
11.4506
11.6863
11.8396
11.9566
12.0501
12.1238
1.00001
1.00004
1.00013
1.00029
1.00082
1.00169
1.00478
1.00956
1.02849
1.05325
1.18208
1.34294
2.24651
4.04541
9.82322
11.4019
11.2324
11.1404
11.2214
11.4403
11.6758
11.8291
11.9478
12.0429
12.1182
1.00001
1.00004
1.00013
1.00028
1.00081
1.00165
1.00468
1.00935
1.02789
1.05202
1.17859
1.33407
2.22107
3.97214
9.64408
11.3862
11.2109
11.1068
11.1867
11.4034
11.6356
11.7859
11.9036
11.9976
12.0719
1.00001
1.00004
1.00013
1.00027
1.00078
1.00159
1.00452
1.00903
1.02699
1.05015
1.17325
1.32074
2.18207
3.8608
9.36473
11.3667
11.1792
11.0523
11.1288
11.3391
11.5652
11.7098
11.8232
11.9139
11.9879
1.00001
1.00004
1.00012
1.00026
1.00074
1.00152
1.00431
1.0086
1.02577
1.04763
1.16605
1.30321
2.12921
3.71167
8.98028
11.347
11.1391
10.9788
11.0502
11.2514
11.468
11.6042
11.7113
11.7975
11.8715
1.00001
1.00003
1.00011
1.00024
1.00069
1.00142
1.00403
1.00797
1.02428
1.04391
1.15736
1.2808
2.06656
3.52292
8.48662
11.3305
11.0911
10.8861
10.9504
11.138
11.3417
11.4651
11.5609
11.6382
11.7122
1.00001
1.00003
1.0001
1.00023
1.00064
1.00131
1.00373
1.00735
1.02249
1.04043
1.14567
1.25675
1.98579
3.29714
7.87688
11.3236
11.0403
10.7768
10.8317
10.9999
11.1842
11.2873
11.3635
11.422
11.4879
1.00001
1.00003
1.0001
1.00021
1.00059
1.00121
1.00343
1.00685
1.02042
1.03784
1.13072
1.23476
1.8754
3.04262
7.14
11.3209
10.9916
10.654
10.6968
10.8383
10.9944
11.0668
11.109
11.1294
11.1672
1.00001
1.00003
1.00009
1.00019
1.00053
1.0011
1.00309
1.00624
1.01813
1.03524
1.1131
1.21185
1.75352
2.7651
6.29644
11.2925
10.937
10.5247
10.5497
10.6522
10.7688
10.797
10.7841
10.7269
10.6692
1.00001
1.00002
1.00008
1.00016
1.00047
1.00096
1.0027
1.00546
1.0158
1.03108
1.09703
1.18651
1.63654
2.49226
5.42801
11.1309
10.826
10.406
10.3922
10.4428
10.5034
10.48
10.3839
10.1632
9.82914
1.00001
1.00004
1.00014
1.00029
1.00083
1.0017
1.00483
1.00966
1.02878
1.05383
1.18379
1.34718
2.25864
4.07984
9.90412
11.4087
11.2407
11.1524
11.2326
11.4506
11.6863
11.8396
11.9566
12.0501
12.1237
1.00001
1.00004
1.00013
1.00029
1.00082
1.00169
1.00478
1.00956
1.02849
1.05325
1.18208
1.34294
2.2465
4.04538
9.82314
11.4019
11.2324
11.1404
11.2214
11.4403
11.6758
11.8291
11.9478
12.0429
12.1181
1.00001
1.00004
1.00013
1.00028
1.00081
1.00165
1.00468
1.00935
1.02789
1.05202
1.17859
1.33407
2.22106
3.97211
9.644
11.3862
11.2109
11.1068
11.1867
11.4034
11.6356
11.7859
11.9036
11.9975
12.0718
1.00001
1.00004
1.00013
1.00027
1.00078
1.00159
1.00452
1.00903
1.02699
1.05015
1.17325
1.32074
2.18206
3.86077
9.36465
11.3667
11.1792
11.0523
11.1288
11.3391
11.5652
11.7098
11.8232
11.9139
11.9879
1.00001
1.00004
1.00012
1.00026
1.00074
1.00152
1.00431
1.0086
1.02577
1.04763
1.16605
1.30321
2.1292
3.71164
8.9802
11.347
11.1391
10.9788
11.0502
11.2514
11.468
11.6042
11.7113
11.7975
11.8715
1.00001
1.00003
1.00011
1.00024
1.00069
1.00142
1.00403
1.00797
1.02428
1.04391
1.15736
1.28079
2.06655
3.52288
8.48653
11.3305
11.0911
10.8861
10.9504
11.138
11.3417
11.4651
11.5609
11.6382
11.7122
1.00001
1.00003
1.0001
1.00023
1.00064
1.00131
1.00373
1.00735
1.02249
1.04043
1.14566
1.25675
1.98577
3.29711
7.87679
11.3236
11.0403
10.7768
10.8317
10.9999
11.1842
11.2873
11.3635
11.422
11.4879
1.00001
1.00003
1.0001
1.00021
1.00059
1.00121
1.00343
1.00685
1.02042
1.03784
1.13072
1.23475
1.87538
3.04259
7.13991
11.321
10.9916
10.654
10.6968
10.8383
10.9944
11.0668
11.109
11.1294
11.1672
1.00001
1.00003
1.00009
1.00019
1.00053
1.0011
1.00309
1.00624
1.01813
1.03524
1.1131
1.21185
1.7535
2.76507
6.29635
11.2925
10.937
10.5247
10.5497
10.6522
10.7688
10.797
10.7841
10.7269
10.6692
1.00001
1.00002
1.00008
1.00016
1.00047
1.00096
1.0027
1.00546
1.0158
1.03108
1.09702
1.18651
1.63653
2.49224
5.42795
11.1308
10.826
10.406
10.3922
10.4428
10.5034
10.48
10.3839
10.1632
9.82913
1.00001
1.00004
1.00013
1.00029
1.00083
1.0017
1.00482
1.00965
1.02876
1.05381
1.18377
1.34709
2.25852
4.0794
9.90324
11.4087
11.2406
11.1523
11.2325
11.4505
11.6862
11.8395
11.9565
12.05
12.1236
1.00001
1.00004
1.00013
1.00028
1.00082
1.00168
1.00477
1.00955
1.02848
1.05323
1.18206
1.34285
2.2464
4.04496
9.82229
11.4019
11.2324
11.1403
11.2213
11.4402
11.6756
11.829
11.9477
12.0428
12.118
1.00001
1.00004
1.00013
1.00028
1.0008
1.00164
1.00467
1.00934
1.02788
1.052
1.17857
1.33398
2.22096
3.9717
9.64316
11.3862
11.2108
11.1067
11.1865
11.4032
11.6355
11.7858
11.9035
11.9974
12.0717
1.00001
1.00004
1.00012
1.00027
1.00077
1.00159
1.00451
1.00902
1.02697
1.05013
1.17323
1.32065
2.18196
3.86037
9.3638
11.3667
11.1791
11.0522
11.1286
11.339
11.5651
11.7097
11.8231
11.9138
11.9877
1.00001
1.00003
1.00012
1.00026
1.00074
1.00151
1.0043
1.00859
1.02575
1.0476
1.16604
1.30312
2.12911
3.71125
8.97934
11.347
11.1391
10.9787
11.0501
11.2513
11.4679
11.6041
11.7112
11.7974
11.8714
1.00001
1.00003
1.00011
1.00024
1.00069
1.00141
1.00402
1.00796
1.02427
1.04389
1.15733
1.28072
2.06644
3.52249
8.48565
11.3306
11.0911
10.886
10.9503
11.1379
11.3416
11.465
11.5608
11.6381
11.7121
1.00001
1.00003
1.0001
1.00022
1.00064
1.0013
1.00372
1.00734
1.02248
1.04041
1.14563
1.25669
1.98565
3.29672
7.87586
11.3237
11.0402
10.7766
10.8316
10.9998
11.1841
11.2872
11.3634
11.4219
11.4878
1.00001
1.00003
1.00009
1.0002
1.00059
1.0012
1.00342
1.00684
1.02041
1.03781
1.13071
1.23467
1.8753
3.04223
7.13899
11.321
10.9916
10.6538
10.6967
10.8382
10.9943
11.0667
11.1089
11.1293
11.1671
1.00001
1.00002
1.00008
1.00018
1.00053
1.00109
1.00309
1.00623
1.01812
1.03522
1.11308
1.21179
1.7534
2.76474
6.29546
11.2924
10.9369
10.5246
10.5496
10.6521
10.7687
10.7969
10.784
10.7268
10.6691
1
1.00002
1.00007
1.00016
1.00046
1.00095
1.0027
1.00545
1.01579
1.03106
1.09701
1.18646
1.63645
2.492
5.42741
11.1304
10.8258
10.406
10.3921
10.4427
10.5033
10.48
10.3838
10.1631
9.82905
1
1.00002
1.00005
1.00016
1.00033
1.00095
1.00194
1.00557
1.01084
1.03412
1.06013
1.21909
1.41846
2.45157
4.69726
10.6195
10.5732
10.3329
10.2088
10.2173
10.2074
10.1213
9.8718
9.29914
7.86879
1
1.00002
1.00005
1.00014
1.0003
1.00085
1.00174
1.00494
1.0099
1.02935
1.05529
1.18625
1.3567
2.26739
4.09458
9.60653
10.3615
10.2186
10.024
9.98064
9.90933
9.73618
9.3527
8.58855
7.14687
1
1.00002
1.00004
1.00012
1.00026
1.00073
1.00149
1.00422
1.00844
1.02515
1.04671
1.16109
1.29476
2.08577
3.58412
8.43698
10.2184
10.1043
9.85837
9.74118
9.61949
9.37191
8.9058
8.14698
7.0204
1
1.00001
1.00003
1.0001
1.00021
1.00061
1.00124
1.00352
1.00695
1.02119
1.0381
1.13633
1.23955
1.91008
3.09854
7.16451
10.1097
9.99561
9.71384
9.51297
9.34053
9.05282
8.58094
7.89545
7.01382
1
1.00001
1.00003
1.00008
1.00018
1.00051
1.00104
1.00296
1.00597
1.01735
1.03377
1.10759
1.20413
1.70967
2.65497
5.85387
9.9658
9.8806
9.59994
9.30862
9.08839
8.78926
8.34281
7.73334
6.99992
1
1.00001
1.00002
1.00005
1.00016
1.00034
1.00096
1.00194
1.00556
1.01079
1.03402
1.05977
1.21609
1.41982
2.38674
4.52257
9.56417
9.70227
9.50549
9.13838
8.87413
8.57084
8.15781
7.616
6.97887
1
1
1.00002
1.00004
1.00013
1.00028
1.00079
1.00162
1.00457
1.00917
1.02709
1.05091
1.1716
1.32134
2.14957
3.73781
8.50427
9.44751
9.31485
9.00237
8.69571
8.38794
8.00466
7.52222
6.96438
1
1
1.00001
1.00003
1.0001
1.00021
1.00061
1.00123
1.00353
1.00691
1.02139
1.03799
1.13736
1.24158
1.9178
3.09723
6.99521
9.20193
9.13234
8.90206
8.55804
8.24045
7.8809
7.44895
6.96014
0.999999
1
1.00001
1.00003
1.00006
1.00019
1.00038
1.0011
1.00216
1.00666
1.0117
1.04212
1.06936
1.26324
1.52921
2.69527
5.35876
8.95461
9.00334
8.84043
8.48142
8.12805
7.78336
7.39558
6.96482
0.999997
0.999999
1
1.00002
1.00005
1.00015
1.00031
1.00087
1.00178
1.00506
1.01008
1.03011
1.0561
1.18888
1.36607
2.23311
3.93657
8.36947
8.89614
8.75736
8.42708
8.04544
7.71186
7.36677
6.98299
0.999995
0.999996
1
1.00001
1.00004
1.00009
1.00026
1.00054
1.00153
1.00299
1.00921
1.01617
1.05825
1.09647
1.36903
1.75095
3.39666
6.96398
8.66311
8.59894
8.37393
7.99495
7.67132
7.36811
7.02638
0.999994
0.999995
0.999999
1.00001
1.00003
1.00007
1.0002
1.00042
1.00118
1.00239
1.00685
1.01329
1.04198
1.07361
1.26706
1.52844
2.70764
5.277
8.35016
8.45433
8.31958
8.00155
7.67492
7.3863
7.11148
0.999993
0.999994
0.999996
1
1.00001
1.00006
1.00012
1.00036
1.00074
1.0021
1.00425
1.01218
1.02416
1.07229
1.14555
1.44842
2.03837
3.86117
7.65125
8.35156
8.26057
8.01837
7.70366
7.4439
7.24879
0.999993
0.999993
0.999994
1
1.00001
1.00004
1.00009
1.00026
1.00054
1.00152
1.00307
1.00874
1.0171
1.05278
1.09608
1.33054
1.69818
3.11785
6.23284
8.1619
8.15729
8.04663
7.79181
7.57454
7.46866
0.999992
0.999992
0.999994
0.999996
1.00001
1.00002
1.00007
1.00016
1.00045
1.00093
1.00261
1.00526
1.01506
1.02956
1.09051
1.17585
1.56709
2.30089
4.51951
7.77455
8.15425
8.10549
7.97133
7.83097
7.78631
0.999992
0.999992
0.999993
0.999995
1
1.00001
1.00005
1.00011
1.00032
1.00066
1.00185
1.00376
1.01063
1.02114
1.06265
1.12329
1.38567
1.8684
3.44482
6.85057
8.10693
8.22797
8.21093
8.17628
8.18463
0.999991
0.999991
0.999992
0.999994
0.999997
1.00001
1.00003
1.00009
1.00019
1.00053
1.00109
1.00306
1.00608
1.018
1.03298
1.11192
1.20023
1.70264
2.57515
5.26514
7.9289
8.47377
8.55136
8.60073
8.65519
0.999991
0.999991
0.999991
0.999993
0.999995
1
1.00002
1.00006
1.00013
1.00038
1.00078
1.00219
1.00443
1.01252
1.02516
1.07302
1.15098
1.44979
2.03264
3.80629
7.40293
8.73923
9.02463
9.12488
9.15036
0.999991
0.999991
0.999991
0.999992
0.999994
0.999998
1.00001
1.00003
1.0001
1.00022
1.00062
1.00126
1.00358
1.00698
1.02143
1.03802
1.13454
1.23767
1.87083
2.94447
6.3123
9.0013
9.63038
9.69303
9.66855
0.999991
0.999991
0.999991
0.999992
0.999993
0.999997
1
1.00002
1.00006
1.00018
1.00039
1.00108
1.00219
1.00624
1.01209
1.03776
1.06652
1.23618
1.45952
2.47204
4.55862
9.07844
10.3399
10.3159
10.1998
0.999991
0.999991
0.999991
0.999991
0.999992
0.999995
1
1.00002
1.00004
1.00014
1.00029
1.00084
1.00171
1.00484
1.00969
1.02872
1.05409
1.18078
1.34709
2.2049
3.88094
8.7573
10.8842
10.8363
10.6134
0.999991
0.999991
0.999991
0.999991
0.999992
0.999993
0.999999
1.00001
1.00004
1.00009
1.00026
1.00054
1.00156
1.00304
1.00947
1.01655
1.06051
1.10016
1.39095
1.80865
3.64441
7.89538
11.3139
11.2185
10.8378
0.999991
0.999991
0.999991
0.999991
0.999992
0.999993
0.999998
1.00001
1.00003
1.00008
1.00023
1.00048
1.00136
1.00274
1.008
1.01526
1.05029
1.08685
1.32854
1.67293
3.22971
6.95815
11.8196
11.5452
10.8357
0.999991
0.99999
0.999991
0.999991
0.999991
0.999993
0.999997
1
1.00003
1.00006
1.0002
1.00041
1.00119
1.00241
1.00697
1.01356
1.04332
1.07644
1.2818
1.57635
2.89932
6.12846
12.2056
11.7318
10.765
0.999991
0.99999
0.999991
0.999991
0.999991
0.999992
0.999996
1
1.00002
1.00006
1.00017
1.00036
1.00105
1.00211
1.00624
1.01167
1.03952
1.06714
1.25573
1.51096
2.71035
5.63891
12.163
11.6576
10.6681
0.999991
0.99999
0.99999
0.999991
0.999991
0.999992
0.999995
1
1.00002
1.00006
1.00014
1.0004
1.00083
1.00241
1.00474
1.01482
1.02648
1.09592
1.16955
1.62816
2.46251
5.46842
11.8781
11.4806
10.6618
0.999991
0.99999
0.99999
0.999991
0.999991
0.999992
0.999995
1
1.00002
1.00005
1.00015
1.00031
1.0009
1.00176
1.00549
1.00968
1.03539
1.05806
1.22704
1.43807
2.54176
5.04514
11.5431
11.3326
10.7607
0.999991
0.99999
0.99999
0.999991
0.999991
0.999992
0.999994
1
1.00001
1.00005
1.00012
1.00036
1.00073
1.00213
1.00419
1.01319
1.02343
1.08589
1.1488
1.56345
2.28784
4.99555
11.1893
11.1807
10.8541
0.999991
0.99999
0.99999
0.999991
0.999991
0.999992
0.999994
1
1.00001
1.00005
1.00011
1.00033
1.00068
1.00199
1.00389
1.01234
1.02177
1.08069
1.13842
1.53323
2.21565
4.81092
10.883
11.1696
10.8864
0.999991
0.99999
0.99999
0.999991
0.999991
0.999992
0.999994
0.999998
1.00001
1.00004
1.00013
1.00027
1.00079
1.00159
1.00477
1.00896
1.03029
1.05224
1.1983
1.36815
2.37629
4.40836
10.5853
11.2305
10.9499
0.999991
0.99999
0.99999
0.999991
0.999991
0.999992
0.999993
0.999999
1.00001
1.00004
1.00009
1.00028
1.00056
1.00178
1.00313
1.01151
1.01875
1.0739
1.12383
1.49661
2.0924
4.51904
10.2999
11.2726
10.9865
0.999991
0.99999
0.99999
0.99999
0.999991
0.999992
0.999994
0.999998
1.00001
1.00003
1.00012
1.00025
1.00074
1.0015
1.00441
1.00866
1.02761
1.04926
1.18332
1.33608
2.28096
4.13876
10.0747
11.3642
11.0486
0.999991
0.99999
0.99999
0.99999
0.999991
0.999991
0.999994
0.999997
1.00001
1.00003
1.00011
1.00024
1.0007
1.00142
1.0042
1.00822
1.02643
1.04697
1.17623
1.32118
2.23999
4.03287
9.8951
11.4382
11.0929
0.999991
0.99999
0.99999
0.99999
0.999991
0.999992
0.999993
0.999998
1.00001
1.00003
1.00008
1.00025
1.00049
1.00159
1.00277
1.01037
1.01685
1.06742
1.11205
1.45841
1.99298
4.25982
9.76619
11.4766
11.1066
0.999991
0.99999
0.99999
0.99999
0.999991
0.999991
0.999993
0.999997
1.00001
1.00003
1.0001
1.00021
1.00064
1.00128
1.00399
1.0073
1.02593
1.0439
1.17014
1.30988
2.2023
3.93829
9.68083
11.541
11.1303
0.999991
0.99999
0.99999
0.99999
0.999991
0.999991
0.999993
0.999997
1
1.00003
1.00007
1.00023
1.00045
1.00152
1.0026
1.00993
1.01613
1.06525
1.1084
1.44696
1.97153
4.19007
9.65987
11.5578
11.1157
0.999991
0.99999
0.99999
0.99999
0.999991
0.999991
0.999993
0.999996
1.00001
1.00003
1.0001
1.00021
1.00063
1.00128
1.00386
1.00745
1.02486
1.04366
1.16703
1.30379
2.18707
3.90801
9.66104
11.5699
11.0878
0.999991
0.99999
0.99999
0.99999
0.999991
0.999991
0.999993
0.999996
1.00001
1.00003
1.00009
1.0002
1.00061
1.00124
1.00381
1.00718
1.02477
1.04288
1.1666
1.3029
2.18874
3.91803
9.72058
11.5645
11.0489
0.999991
0.99999
0.99999
0.99999
0.999991
0.999991
0.999993
0.999997
1
1.00003
1.00007
1.00024
1.00048
1.0015
1.00283
1.00977
1.0168
1.06532
1.11104
1.43611
1.9863
4.14239
9.64461
11.5227
11.022
0.999991
0.99999
0.99999
0.99999
0.999991
0.999991
0.999993
0.999998
1.00001
1.00003
1.00008
1.00025
1.00052
1.00155
1.00312
1.00972
1.01832
1.06403
1.11456
1.43091
1.98501
4.13927
9.65523
11.5166
11.0107
1
1.00002
1.00006
1.00016
1.00034
1.00096
1.00195
1.00558
1.01085
1.03414
1.06015
1.21912
1.41856
2.45171
4.69786
10.6202
10.5735
10.3328
10.2088
10.2173
10.2075
10.1213
9.87187
9.29921
7.86885
1
1.00002
1.00005
1.00015
1.00031
1.00086
1.00175
1.00495
1.00991
1.02937
1.05531
1.18628
1.35679
2.26753
4.09515
9.60742
10.3616
10.2185
10.024
9.9807
9.90939
9.73625
9.35277
8.58861
7.14693
1
1.00002
1.00004
1.00013
1.00026
1.00073
1.0015
1.00423
1.00845
1.02516
1.04674
1.16111
1.29486
2.08589
3.58459
8.43797
10.2184
10.1043
9.85837
9.74123
9.61955
9.37198
8.90586
8.14704
7.02047
1
1.00001
1.00004
1.00011
1.00022
1.00061
1.00125
1.00353
1.00696
1.02121
1.03812
1.13636
1.23962
1.91022
3.09895
7.16552
10.1097
9.99559
9.71386
9.51303
9.3406
9.05289
8.58101
7.89553
7.0139
1
1.00001
1.00003
1.00009
1.00018
1.00052
1.00105
1.00296
1.00598
1.01736
1.03379
1.10761
1.2042
1.70979
2.65533
5.85489
9.9659
9.88064
9.59995
9.30868
9.08846
8.78934
8.34289
7.73343
7.00002
1
1.00001
1.00003
1.00006
1.00017
1.00034
1.00096
1.00195
1.00557
1.0108
1.03403
1.0598
1.21613
1.41993
2.38687
4.52327
9.56466
9.70237
9.50554
9.13844
8.87421
8.57093
8.15791
7.61611
6.979
1
1.00001
1.00002
1.00005
1.00014
1.00029
1.0008
1.00163
1.00458
1.00918
1.0271
1.05094
1.17163
1.32144
2.14973
3.73833
8.50529
9.44765
9.31496
9.00242
8.69579
8.38804
8.00478
7.52236
6.96455
1
1.00001
1.00002
1.00004
1.00011
1.00022
1.00061
1.00124
1.00354
1.00692
1.0214
1.03801
1.13739
1.24165
1.91795
3.09767
6.9962
9.20198
9.13237
8.90209
8.55812