/*--------------------------------*- C++ -*----------------------------------*\
| =========                 |                                                 |
| \\      /  F ield         | OpenFOAM: The Open Source CFD Toolbox           |
|  \\    /   O peration     | Version:  4.1                                   |
|   \\  /    A nd           | Web:      www.OpenFOAM.org                      |
|    \\/     M anipulation  |                                                 |
\*---------------------------------------------------------------------------*/
FoamFile
{
    version     2.0;
    format      ascii;
    class       volScalarField;
    location    "4.36";
    object      T;
}
// * * * * * * * * * * * * * * * * * * * * * * * * * * * * * * * * * * * * * //

dimensions      [0 0 0 1 0 0 0];

internalField   nonuniform List<scalar> 
52500
(
0.999995
1.00002
1.00004
1.00015
1.00028
1.0009
1.00167
1.00493
1.01038
1.02668
1.07237
1.15945
1.50138
2.27459
2.64212
2.73118
2.72534
2.72092
2.73595
2.74784
2.76112
2.76972
2.77597
2.78064
2.78419
0.999995
1.00002
1.00004
1.00015
1.00027
1.00089
1.00165
1.00486
1.01023
1.02631
1.07131
1.1572
1.49394
2.26135
2.63843
2.73112
2.72511
2.72039
2.73525
2.74701
2.76001
2.76832
2.77454
2.7783
2.78103
0.999995
1.00002
1.00004
1.00014
1.00027
1.00086
1.0016
1.00474
1.00992
1.02565
1.06901
1.15309
1.47595
2.23033
2.62827
2.72943
2.72328
2.71796
2.73291
2.7444
2.75759
2.76506
2.7713
2.77588
2.77748
0.999995
1.00002
1.00004
1.00014
1.00026
1.00083
1.00153
1.00456
1.00947
1.02463
1.06557
1.14684
1.44881
2.18151
2.61201
2.72628
2.71971
2.71313
2.72777
2.73969
2.75311
2.76133
2.7659
2.76901
2.77277
0.999995
1.00001
1.00003
1.00013
1.00024
1.00079
1.00145
1.00446
1.00884
1.0239
1.05994
1.13854
1.4104
2.11095
2.58874
2.72114
2.71496
2.70537
2.721
2.72973
2.74377
2.75249
2.75946
2.7631
2.76285
0.999995
1.00001
1.00003
1.00012
1.00023
1.00074
1.00135
1.00423
1.00811
1.02286
1.05342
1.12852
1.36601
2.02135
2.55717
2.71316
2.70676
2.69661
2.71308
2.72341
2.7328
2.742
2.74623
2.74877
2.75299
0.999995
1.00001
1.00003
1.00011
1.00021
1.00068
1.00124
1.00387
1.00737
1.02106
1.04741
1.11798
1.32049
1.92088
2.51232
2.69712
2.68822
2.6782
2.69469
2.7096
2.7212
2.72682
2.73409
2.73625
2.73312
0.999995
1.00001
1.00003
1.0001
1.00019
1.00062
1.00112
1.00352
1.00668
1.01922
1.04267
1.10744
1.28726
1.8316
2.49119
2.68807
2.6793
2.66654
2.68107
2.68987
2.70416
2.70831
2.70896
2.70848
2.70883
0.999995
1.00001
1.00002
1.00009
1.00017
1.00055
1.001
1.00315
1.00597
1.01711
1.03857
1.09418
1.2625
1.71338
2.45686
2.67491
2.65849
2.65977
2.66709
2.67254
2.68202
2.68736
2.68751
2.68077
2.65592
0.999994
1.00001
1.00002
1.00007
1.00014
1.00045
1.00085
1.00242
1.00532
1.01319
1.03595
1.07897
1.24357
1.60337
2.36811
2.64383
2.65386
2.65176
2.65217
2.65797
2.65741
2.6552
2.64551
2.624
2.57478
1
1.00003
1.00005
1.00016
1.00029
1.00091
1.00168
1.00494
1.01039
1.0267
1.07239
1.1595
1.50141
2.27471
2.64219
2.73124
2.7254
2.72099
2.73602
2.74792
2.7612
2.7698
2.77605
2.78072
2.78427
1
1.00002
1.00005
1.00016
1.00028
1.00089
1.00165
1.00487
1.01024
1.02633
1.07132
1.15724
1.49397
2.26148
2.6385
2.73118
2.72517
2.72046
2.73532
2.74708
2.76008
2.76839
2.77462
2.77838
2.78111
1
1.00002
1.00005
1.00015
1.00027
1.00087
1.00161
1.00475
1.00993
1.02567
1.06903
1.15313
1.47598
2.23045
2.62834
2.7295
2.72334
2.71803
2.73298
2.74447
2.75766
2.76514
2.77137
2.77596
2.77756
1
1.00002
1.00004
1.00015
1.00026
1.00084
1.00154
1.00457
1.00948
1.02465
1.06559
1.14688
1.44884
2.18163
2.61208
2.72634
2.71978
2.7132
2.72784
2.73976
2.75318
2.7614
2.76597
2.76908
2.77285
1
1.00002
1.00004
1.00014
1.00025
1.0008
1.00146
1.00447
1.00885
1.02393
1.05994
1.13857
1.4104
2.11104
2.5888
2.72121
2.71503
2.70544
2.72106
2.7298
2.74385
2.75256
2.75953
2.76318
2.76293
1
1.00002
1.00004
1.00013
1.00024
1.00075
1.00136
1.00424
1.00812
1.02287
1.05343
1.12855
1.36603
2.02145
2.55723
2.71322
2.70683
2.69668
2.71315
2.72348
2.73286
2.74207
2.7463
2.74885
2.75306
1
1.00002
1.00004
1.00012
1.00022
1.00069
1.00125
1.00388
1.00738
1.02107
1.04742
1.11801
1.32051
1.92098
2.51239
2.69719
2.68829
2.67827
2.69476
2.70966
2.72126
2.72689
2.73416
2.73632
2.73319
1
1.00002
1.00003
1.00011
1.0002
1.00063
1.00113
1.00352
1.00669
1.01923
1.04268
1.10747
1.28727
1.83168
2.49121
2.68813
2.67936
2.66661
2.68113
2.68994
2.70422
2.70838
2.70902
2.70855
2.7089
1
1.00002
1.00003
1.0001
1.00017
1.00056
1.00101
1.00316
1.00598
1.01713
1.03858
1.09421
1.26251
1.71348
2.45691
2.67497
2.65854
2.65982
2.66715
2.6726
2.68209
2.68743
2.68757
2.68083
2.65598
1
1.00001
1.00002
1.00008
1.00015
1.00045
1.00086
1.00243
1.00533
1.0132
1.03596
1.079
1.24358
1.60343
2.36817
2.64389
2.65391
2.65182
2.65222
2.65803
2.65747
2.65526
2.64557
2.62406
2.57484
1
1.00003
1.00005
1.00016
1.00029
1.00091
1.00168
1.00494
1.01039
1.0267
1.07239
1.1595
1.50141
2.27471
2.64219
2.73124
2.7254
2.72099
2.73602
2.74792
2.7612
2.7698
2.77605
2.78072
2.78427
1
1.00002
1.00005
1.00016
1.00028
1.00089
1.00165
1.00487
1.01024
1.02633
1.07132
1.15724
1.49398
2.26148
2.6385
2.73118
2.72517
2.72046
2.73532
2.74708
2.76008
2.76839
2.77462
2.77838
2.78111
1
1.00002
1.00005
1.00015
1.00027
1.00087
1.00161
1.00475
1.00993
1.02567
1.06903
1.15313
1.47599
2.23045
2.62834
2.7295
2.72334
2.71803
2.73298
2.74447
2.75766
2.76514
2.77138
2.77596
2.77756
1
1.00002
1.00004
1.00015
1.00026
1.00084
1.00154
1.00457
1.00948
1.02465
1.06559
1.14688
1.44884
2.18164
2.61208
2.72634
2.71978
2.7132
2.72784
2.73976
2.75318
2.7614
2.76597
2.76908
2.77285
1
1.00002
1.00004
1.00014
1.00025
1.0008
1.00146
1.00447
1.00885
1.02393
1.05994
1.13857
1.4104
2.11104
2.58881
2.72121
2.71503
2.70544
2.72106
2.7298
2.74384
2.75256
2.75953
2.76318
2.76293
1
1.00002
1.00004
1.00013
1.00024
1.00075
1.00136
1.00424
1.00812
1.02287
1.05343
1.12855
1.36603
2.02145
2.55723
2.71322
2.70683
2.69668
2.71315
2.72348
2.73286
2.74207
2.7463
2.74885
2.75306
1
1.00002
1.00004
1.00012
1.00022
1.00069
1.00125
1.00388
1.00738
1.02107
1.04742
1.11801
1.32051
1.92099
2.51239
2.69719
2.68829
2.67827
2.69476
2.70966
2.72126
2.72689
2.73416
2.73632
2.73319
1
1.00002
1.00003
1.00011
1.0002
1.00063
1.00113
1.00352
1.00669
1.01923
1.04268
1.10747
1.28727
1.83169
2.49121
2.68813
2.67936
2.66661
2.68114
2.68994
2.70422
2.70838
2.70902
2.70855
2.7089
1
1.00002
1.00003
1.0001
1.00017
1.00056
1.00101
1.00316
1.00598
1.01713
1.03858
1.09421
1.26251
1.71349
2.45691
2.67497
2.65854
2.65982
2.66715
2.6726
2.68209
2.68743
2.68757
2.68083
2.65598
1
1.00001
1.00002
1.00008
1.00015
1.00045
1.00086
1.00243
1.00533
1.0132
1.03596
1.079
1.24358
1.60343
2.36817
2.64389
2.65391
2.65182
2.65222
2.65803
2.65747
2.65526
2.64557
2.62406
2.57484
1
1.00003
1.00005
1.00016
1.00029
1.00091
1.00168
1.00494
1.01039
1.0267
1.07239
1.1595
1.50141
2.27471
2.64219
2.73124
2.7254
2.72099
2.73602
2.74792
2.7612
2.7698
2.77605
2.78072
2.78427
1
1.00002
1.00005
1.00016
1.00028
1.00089
1.00165
1.00487
1.01024
1.02633
1.07132
1.15724
1.49398
2.26148
2.6385
2.73118
2.72517
2.72046
2.73532
2.74708
2.76008
2.76839
2.77462
2.77838
2.78111
1
1.00002
1.00005
1.00015
1.00027
1.00087
1.00161
1.00475
1.00993
1.02567
1.06903
1.15313
1.47599
2.23045
2.62834
2.7295
2.72334
2.71803
2.73298
2.74447
2.75766
2.76514
2.77138
2.77596
2.77756
1
1.00002
1.00004
1.00015
1.00026
1.00084
1.00154
1.00457
1.00948
1.02465
1.06559
1.14688
1.44884
2.18164
2.61208
2.72634
2.71978
2.7132
2.72784
2.73976
2.75318
2.7614
2.76597
2.76908
2.77285
1
1.00002
1.00004
1.00014
1.00025
1.0008
1.00146
1.00447
1.00885
1.02393
1.05994
1.13857
1.4104
2.11104
2.58881
2.72121
2.71503
2.70544
2.72106
2.7298
2.74385
2.75256
2.75953
2.76318
2.76293
1
1.00002
1.00004
1.00013
1.00024
1.00075
1.00136
1.00424
1.00812
1.02287
1.05343
1.12855
1.36603
2.02145
2.55723
2.71322
2.70683
2.69668
2.71315
2.72348
2.73286
2.74207
2.7463
2.74885
2.75306
1
1.00002
1.00004
1.00012
1.00022
1.00069
1.00125
1.00388
1.00738
1.02107
1.04742
1.11801
1.32051
1.92099
2.51239
2.69719
2.68829
2.67827
2.69476
2.70966
2.72126
2.72689
2.73416
2.73632
2.73319
1
1.00002
1.00003
1.00011
1.0002
1.00063
1.00113
1.00352
1.00669
1.01923
1.04268
1.10747
1.28727
1.83169
2.49121
2.68813
2.67936
2.66661
2.68114
2.68994
2.70422
2.70838
2.70902
2.70855
2.7089
1
1.00002
1.00003
1.0001
1.00017
1.00056
1.00101
1.00316
1.00598
1.01713
1.03858
1.09421
1.26251
1.71349
2.45691
2.67497
2.65854
2.65982
2.66715
2.6726
2.68209
2.68743
2.68757
2.68083
2.65598
1
1.00001
1.00002
1.00008
1.00015
1.00045
1.00086
1.00243
1.00533
1.0132
1.03596
1.079
1.24358
1.60343
2.36817
2.64389
2.65391
2.65182
2.65222
2.65803
2.65747
2.65526
2.64557
2.62406
2.57484
1
1.00003
1.00005
1.00016
1.00029
1.00091
1.00168
1.00494
1.01039
1.0267
1.07239
1.1595
1.50141
2.27471
2.64219
2.73124
2.7254
2.72099
2.73602
2.74792
2.7612
2.7698
2.77605
2.78072
2.78427
1
1.00002
1.00005
1.00016
1.00028
1.00089
1.00165
1.00487
1.01024
1.02633
1.07132
1.15724
1.49398
2.26148
2.6385
2.73118
2.72517
2.72046
2.73532
2.74708
2.76008
2.76839
2.77462
2.77838
2.78111
1
1.00002
1.00005
1.00015
1.00027
1.00087
1.00161
1.00475
1.00993
1.02567
1.06903
1.15313
1.47599
2.23045
2.62834
2.7295
2.72334
2.71803
2.73298
2.74447
2.75766
2.76514
2.77138
2.77596
2.77756
1
1.00002
1.00004
1.00015
1.00026
1.00084
1.00154
1.00457
1.00948
1.02465
1.06559
1.14688
1.44884
2.18164
2.61208
2.72634
2.71978
2.7132
2.72784
2.73976
2.75318
2.7614
2.76597
2.76908
2.77285
1
1.00002
1.00004
1.00014
1.00025
1.0008
1.00146
1.00447
1.00885
1.02393
1.05994
1.13857
1.4104
2.11104
2.58881
2.72121
2.71503
2.70544
2.72106
2.7298
2.74385
2.75256
2.75953
2.76318
2.76293
1
1.00002
1.00004
1.00013
1.00024
1.00075
1.00136
1.00424
1.00812
1.02287
1.05343
1.12855
1.36603
2.02145
2.55723
2.71322
2.70683
2.69668
2.71315
2.72348
2.73286
2.74207
2.7463
2.74885
2.75306
1
1.00002
1.00004
1.00012
1.00022
1.00069
1.00125
1.00388
1.00738
1.02107
1.04742
1.11801
1.32051
1.92099
2.51239
2.69719
2.68829
2.67827
2.69476
2.70966
2.72126
2.72689
2.73416
2.73632
2.73319
1
1.00002
1.00003
1.00011
1.0002
1.00063
1.00113
1.00352
1.00669
1.01923
1.04268
1.10747
1.28727
1.83169
2.49121
2.68813
2.67936
2.66661
2.68114
2.68994
2.70422
2.70838
2.70902
2.70855
2.7089
1
1.00002
1.00003
1.0001
1.00017
1.00056
1.00101
1.00316
1.00598
1.01713
1.03858
1.09421
1.26251
1.71349
2.45691
2.67497
2.65854
2.65982
2.66715
2.6726
2.68209
2.68743
2.68757
2.68083
2.65598
1
1.00001
1.00002
1.00008
1.00015
1.00045
1.00086
1.00243
1.00533
1.0132
1.03596
1.079
1.24358
1.60343
2.36817
2.64389
2.65391
2.65182
2.65222
2.65803
2.65747
2.65526
2.64557
2.62406
2.57484
1
1.00003
1.00005
1.00016
1.00029
1.00091
1.00168
1.00494
1.01039
1.0267
1.07239
1.1595
1.50141
2.27471
2.64219
2.73124
2.7254
2.72099
2.73602
2.74792
2.7612
2.7698
2.77605
2.78072
2.78427
1
1.00002
1.00005
1.00016
1.00028
1.00089
1.00165
1.00487
1.01024
1.02633
1.07132
1.15724
1.49398
2.26148
2.6385
2.73118
2.72517
2.72046
2.73532
2.74708
2.76008
2.76839
2.77462
2.77838
2.78111
1
1.00002
1.00005
1.00015
1.00027
1.00087
1.00161
1.00475
1.00993
1.02567
1.06903
1.15313
1.47599
2.23045
2.62834
2.7295
2.72334
2.71803
2.73298
2.74447
2.75766
2.76514
2.77138
2.77596
2.77756
1
1.00002
1.00004
1.00015
1.00026
1.00084
1.00154
1.00457
1.00948
1.02465
1.06559
1.14688
1.44884
2.18164
2.61208
2.72634
2.71978
2.7132
2.72784
2.73976
2.75318
2.7614
2.76597
2.76908
2.77285
1
1.00002
1.00004
1.00014
1.00025
1.0008
1.00146
1.00447
1.00885
1.02393
1.05994
1.13857
1.4104
2.11104
2.58881
2.72121
2.71503
2.70544
2.72106
2.7298
2.74385
2.75256
2.75953
2.76318
2.76293
1
1.00002
1.00004
1.00013
1.00024
1.00075
1.00136
1.00424
1.00812
1.02287
1.05343
1.12855
1.36603
2.02145
2.55723
2.71322
2.70683
2.69668
2.71315
2.72348
2.73286
2.74207
2.7463
2.74885
2.75306
1
1.00002
1.00004
1.00012
1.00022
1.00069
1.00125
1.00388
1.00738
1.02107
1.04742
1.11801
1.32051
1.92099
2.51239
2.69719
2.68829
2.67827
2.69476
2.70966
2.72126
2.72689
2.73416
2.73632
2.73319
1
1.00002
1.00003
1.00011
1.0002
1.00063
1.00113
1.00352
1.00669
1.01923
1.04268
1.10747
1.28727
1.83169
2.49121
2.68813
2.67936
2.66661
2.68114
2.68994
2.70422
2.70838
2.70902
2.70855
2.7089
1
1.00002
1.00003
1.0001
1.00017
1.00056
1.00101
1.00316
1.00598
1.01713
1.03858
1.09421
1.26251
1.71348
2.45691
2.67497
2.65854
2.65982
2.66715
2.6726
2.68209
2.68743
2.68757
2.68083
2.65598
1
1.00001
1.00002
1.00008
1.00015
1.00045
1.00086
1.00243
1.00533
1.0132
1.03596
1.079
1.24358
1.60343
2.36817
2.64389
2.65391
2.65182
2.65222
2.65803
2.65747
2.65526
2.64557
2.62406
2.57484
1
1.00003
1.00005
1.00016
1.00029
1.00091
1.00168
1.00494
1.01039
1.0267
1.07239
1.1595
1.50141
2.27471
2.64219
2.73124
2.7254
2.72099
2.73602
2.74792
2.7612
2.7698
2.77605
2.78072
2.78427
1
1.00002
1.00005
1.00016
1.00028
1.00089
1.00165
1.00487
1.01024
1.02633
1.07132
1.15724
1.49398
2.26148
2.6385
2.73118
2.72517
2.72046
2.73532
2.74708
2.76008
2.76839
2.77462
2.77838
2.78111
1
1.00002
1.00005
1.00015
1.00027
1.00087
1.00161
1.00475
1.00993
1.02567
1.06903
1.15313
1.47599
2.23045
2.62834
2.7295
2.72334
2.71803
2.73298
2.74447
2.75766
2.76514
2.77138
2.77596
2.77756
1
1.00002
1.00004
1.00015
1.00026
1.00084
1.00154
1.00457
1.00948
1.02465
1.06559
1.14688
1.44884
2.18164
2.61208
2.72634
2.71978
2.7132
2.72784
2.73976
2.75318
2.7614
2.76597
2.76908
2.77285
1
1.00002
1.00004
1.00014
1.00025
1.0008
1.00146
1.00447
1.00885
1.02393
1.05994
1.13857
1.4104
2.11104
2.58881
2.72121
2.71503
2.70544
2.72106
2.7298
2.74385
2.75256
2.75953
2.76318
2.76293
1
1.00002
1.00004
1.00013
1.00024
1.00075
1.00136
1.00424
1.00812
1.02287
1.05343
1.12855
1.36603
2.02145
2.55723
2.71322
2.70683
2.69668
2.71315
2.72348
2.73286
2.74207
2.7463
2.74885
2.75306
1
1.00002
1.00004
1.00012
1.00022
1.00069
1.00125
1.00388
1.00738
1.02107
1.04742
1.11801
1.32051
1.92099
2.51239
2.69719
2.68829
2.67827
2.69476
2.70966
2.72126
2.72689
2.73416
2.73632
2.73319
1
1.00002
1.00003
1.00011
1.0002
1.00063
1.00113
1.00352
1.00669
1.01923
1.04268
1.10747
1.28727
1.83169
2.49121
2.68813
2.67936
2.66661
2.68114
2.68994
2.70422
2.70838
2.70902
2.70855
2.7089
1
1.00002
1.00003
1.0001
1.00017
1.00056
1.00101
1.00316
1.00598
1.01713
1.03858
1.09421
1.26251
1.71349
2.45691
2.67497
2.65854
2.65982
2.66715
2.6726
2.68209
2.68743
2.68757
2.68083
2.65598
1
1.00001
1.00002
1.00008
1.00015
1.00045
1.00086
1.00243
1.00533
1.0132
1.03596
1.079
1.24358
1.60343
2.36817
2.64389
2.65391
2.65182
2.65222
2.65803
2.65747
2.65526
2.64557
2.62406
2.57484
1
1.00003
1.00005
1.00016
1.00029
1.00091
1.00168
1.00494
1.01039
1.0267
1.07239
1.1595
1.50141
2.27471
2.64219
2.73124
2.7254
2.72099
2.73602
2.74792
2.7612
2.7698
2.77605
2.78072
2.78427
1
1.00002
1.00005
1.00016
1.00028
1.00089
1.00165
1.00487
1.01024
1.02633
1.07132
1.15724
1.49398
2.26148
2.6385
2.73118
2.72517
2.72046
2.73532
2.74708
2.76008
2.76839
2.77462
2.77838
2.78111
1
1.00002
1.00005
1.00015
1.00027
1.00087
1.00161
1.00475
1.00993
1.02567
1.06903
1.15313
1.47599
2.23045
2.62834
2.7295
2.72334
2.71803
2.73298
2.74447
2.75766
2.76514
2.77138
2.77596
2.77756
1
1.00002
1.00004
1.00015
1.00026
1.00084
1.00154
1.00457
1.00948
1.02465
1.06559
1.14688
1.44884
2.18164
2.61208
2.72634
2.71978
2.7132
2.72784
2.73976
2.75318
2.7614
2.76597
2.76908
2.77285
1
1.00002
1.00004
1.00014
1.00025
1.0008
1.00146
1.00447
1.00885
1.02393
1.05994
1.13857
1.4104
2.11104
2.58881
2.72121
2.71503
2.70544
2.72106
2.7298
2.74384
2.75256
2.75953
2.76318
2.76293
1
1.00002
1.00004
1.00013
1.00024
1.00075
1.00136
1.00424
1.00812
1.02287
1.05343
1.12855
1.36603
2.02145
2.55723
2.71322
2.70683
2.69668
2.71315
2.72348
2.73286
2.74207
2.7463
2.74885
2.75306
1
1.00002
1.00004
1.00012
1.00022
1.00069
1.00125
1.00388
1.00738
1.02107
1.04742
1.11801
1.32051
1.92099
2.51239
2.69719
2.68829
2.67827
2.69476
2.70966
2.72126
2.72689
2.73416
2.73632
2.73319
1
1.00002
1.00003
1.00011
1.0002
1.00063
1.00113
1.00352
1.00669
1.01923
1.04268
1.10747
1.28727
1.83169
2.49121
2.68813
2.67936
2.66661
2.68114
2.68994
2.70422
2.70838
2.70902
2.70855
2.7089
1
1.00002
1.00003
1.0001
1.00017
1.00056
1.00101
1.00316
1.00598
1.01713
1.03858
1.09421
1.26251
1.71349
2.45691
2.67497
2.65854
2.65982
2.66715
2.6726
2.68209
2.68743
2.68757
2.68083
2.65598
1
1.00001
1.00002
1.00008
1.00015
1.00045
1.00086
1.00243
1.00533
1.0132
1.03596
1.079
1.24358
1.60343
2.36817
2.64389
2.65391
2.65182
2.65222
2.65803
2.65747
2.65526
2.64557
2.62406
2.57484
1
1.00003
1.00005
1.00016
1.00029
1.00091
1.00168
1.00494
1.01039
1.0267
1.07239
1.1595
1.50141
2.27471
2.64219
2.73124
2.7254
2.72099
2.73602
2.74792
2.7612
2.7698
2.77605
2.78072
2.78427
1
1.00002
1.00005
1.00016
1.00028
1.00089
1.00165
1.00487
1.01024
1.02633
1.07132
1.15724
1.49397
2.26148
2.6385
2.73118
2.72517
2.72046
2.73532
2.74708
2.76008
2.76839
2.77462
2.77838
2.78111
1
1.00002
1.00005
1.00015
1.00027
1.00087
1.00161
1.00475
1.00993
1.02567
1.06903
1.15313
1.47598
2.23045
2.62834
2.7295
2.72334
2.71803
2.73298
2.74447
2.75766
2.76514
2.77137
2.77596
2.77756
1
1.00002
1.00004
1.00015
1.00026
1.00084
1.00154
1.00457
1.00948
1.02465
1.06559
1.14688
1.44884
2.18163
2.61208
2.72634
2.71978
2.7132
2.72784
2.73976
2.75318
2.7614
2.76597
2.76908
2.77285
1
1.00002
1.00004
1.00014
1.00025
1.0008
1.00146
1.00447
1.00885
1.02393
1.05994
1.13857
1.4104
2.11104
2.5888
2.72121
2.71503
2.70544
2.72106
2.7298
2.74385
2.75256
2.75953
2.76318
2.76293
1
1.00002
1.00004
1.00013
1.00024
1.00075
1.00136
1.00424
1.00812
1.02287
1.05343
1.12855
1.36603
2.02145
2.55723
2.71322
2.70683
2.69668
2.71315
2.72348
2.73286
2.74207
2.7463
2.74885
2.75306
1
1.00002
1.00004
1.00012
1.00022
1.00069
1.00125
1.00388
1.00738
1.02107
1.04742
1.11801
1.32051
1.92098
2.51239
2.69719
2.68829
2.67827
2.69476
2.70966
2.72126
2.72689
2.73416
2.73632
2.73319
1
1.00002
1.00003
1.00011
1.0002
1.00063
1.00113
1.00352
1.00669
1.01923
1.04268
1.10747
1.28727
1.83168
2.49121
2.68813
2.67936
2.66661
2.68113
2.68994
2.70422
2.70838
2.70902
2.70855
2.7089
1
1.00002
1.00003
1.0001
1.00017
1.00056
1.00101
1.00316
1.00598
1.01713
1.03858
1.09421
1.26251
1.71348
2.45691
2.67497
2.65854
2.65982
2.66715
2.6726
2.68209
2.68743
2.68757
2.68083
2.65598
1
1.00001
1.00002
1.00008
1.00015
1.00045
1.00086
1.00243
1.00533
1.0132
1.03596
1.079
1.24358
1.60343
2.36817
2.64389
2.65391
2.65182
2.65222
2.65803
2.65747
2.65526
2.64557
2.62406
2.57484
0.999995
1.00002
1.00004
1.00015
1.00028
1.0009
1.00167
1.00493
1.01038
1.02668
1.07237
1.15945
1.50138
2.27459
2.64212
2.73118
2.72534
2.72092
2.73595
2.74784
2.76112
2.76972
2.77597
2.78064
2.78419
0.999995
1.00002
1.00004
1.00015
1.00027
1.00089
1.00165
1.00486
1.01023
1.02631
1.07131
1.1572
1.49394
2.26135
2.63843
2.73112
2.72511
2.72039
2.73525
2.74701
2.76001
2.76832
2.77454
2.7783
2.78103
0.999995
1.00002
1.00004
1.00014
1.00027
1.00086
1.0016
1.00474
1.00992
1.02565
1.06901
1.15309
1.47595
2.23033
2.62827
2.72943
2.72328
2.71796
2.73291
2.7444
2.75759
2.76506
2.7713
2.77588
2.77748
0.999995
1.00002
1.00004
1.00014
1.00026
1.00083
1.00153
1.00456
1.00947
1.02463
1.06557
1.14684
1.44881
2.18151
2.61201
2.72628
2.71971
2.71313
2.72777
2.73969
2.75311
2.76133
2.7659
2.76901
2.77277
0.999995
1.00001
1.00003
1.00013
1.00024
1.00079
1.00145
1.00446
1.00884
1.0239
1.05994
1.13854
1.4104
2.11095
2.58874
2.72114
2.71496
2.70537
2.721
2.72973
2.74377
2.75249
2.75946
2.7631
2.76285
0.999995
1.00001
1.00003
1.00012
1.00023
1.00074
1.00135
1.00423
1.00811
1.02286
1.05342
1.12852
1.36601
2.02135
2.55717
2.71316
2.70676
2.69661
2.71308
2.72341
2.7328
2.742
2.74623
2.74877
2.75299
0.999995
1.00001
1.00003
1.00011
1.00021
1.00068
1.00124
1.00387
1.00737
1.02106
1.04741
1.11798
1.32049
1.92088
2.51232
2.69712
2.68822
2.6782
2.69469
2.7096
2.7212
2.72682
2.73409
2.73625
2.73312
0.999995
1.00001
1.00003
1.0001
1.00019
1.00062
1.00112
1.00352
1.00668
1.01922
1.04267
1.10744
1.28726
1.8316
2.49119
2.68807
2.6793
2.66654
2.68107
2.68987
2.70416
2.70831
2.70896
2.70848
2.70883
0.999995
1.00001
1.00002
1.00009
1.00017
1.00055
1.001
1.00315
1.00597
1.01711
1.03857
1.09418
1.2625
1.71338
2.45686
2.67491
2.65849
2.65977
2.66709
2.67254
2.68202
2.68736
2.68751
2.68077
2.65592
0.999994
1.00001
1.00002
1.00007
1.00014
1.00045
1.00085
1.00242
1.00532
1.01319
1.03595
1.07897
1.24357
1.60337
2.36811
2.64383
2.65386
2.65176
2.65217
2.65797
2.65741
2.6552
2.64551
2.624
2.57478
0.999996
1
1.00002
1.00005
1.00017
1.00031
1.00098
1.00189
1.00536
1.01182
1.0296
1.08193
1.17985
1.55222
2.34132
2.58376
2.63922
2.63423
2.63345
2.63798
2.63698
2.62882
2.6065
2.55262
2.35863
0.999996
1
1.00002
1.00004
1.00015
1.00027
1.00087
1.00161
1.00474
1.00995
1.02562
1.06896
1.15268
1.47288
2.21409
2.53909
2.63285
2.62453
2.61221
2.60957
2.60419
2.58811
2.55281
2.48827
2.29091
0.999995
0.999999
1.00001
1.00003
1.00013
1.00023
1.00076
1.00137
1.00429
1.00825
1.02296
1.05482
1.12969
1.37379
2.02153
2.46244
2.6177
2.61064
2.59985
2.58955
2.58029
2.56036
2.51448
2.44921
2.29117
0.999995
0.999998
1.00001
1.00003
1.0001
1.00019
1.00062
1.00114
1.00354
1.0067
1.01936
1.04215
1.10834
1.27826
1.82032
2.35982
2.58006
2.57609
2.57208
2.55895
2.54317
2.51846
2.47641
2.42353
2.30489
0.999995
0.999997
1.00001
1.00002
1.00008
1.00015
1.0005
1.00092
1.00281
1.00545
1.01523
1.03495
1.08453
1.2331
1.63285
2.28848
2.54486
2.55461
2.55293
2.54461
2.52429
2.49655
2.43595
2.39012
2.30389
0.999994
0.999997
1
1.00002
1.00004
1.00016
1.0003
1.00092
1.00177
1.00491
1.01106
1.027
1.0758
1.16266
1.51406
2.22729
2.46282
2.52045
2.51307
2.51002
2.49921
2.47912
2.42932
2.36574
2.29645
0.999994
0.999996
0.999999
1.00002
1.00003
1.00013
1.00024
1.00078
1.00141
1.00435
1.00853
1.02314
1.05719
1.13212
1.38565
2.02759
2.39968
2.50855
2.50025
2.48902
2.46492
2.44315
2.41234
2.35697
2.29171
0.999993
0.999995
0.999997
1.00001
1.00003
1.0001
1.00018
1.00059
1.0011
1.00337
1.00647
1.0184
1.04056
1.10364
1.26407
1.78594
2.2533
2.46828
2.47245
2.46692
2.45137
2.42125
2.3872
2.33921
2.28023
0.999993
0.999994
0.999997
1
1.00002
1.00005
1.00018
1.00034
1.00104
1.00198
1.0057
1.01211
1.03092
1.08245
1.18363
1.53508
2.212
2.41379
2.43859
2.42997
2.42112
2.40118
2.37378
2.33226
2.27765
0.999992
0.999993
0.999996
0.999999
1.00002
1.00004
1.00013
1.00025
1.00079
1.00148
1.00428
1.00907
1.02309
1.06157
1.13685
1.40888
2.05244
2.34732
2.41943
2.41231
2.39388
2.36941
2.34217
2.31368
2.27045
0.999992
0.999992
0.999994
0.999999
1
1.00003
1.00007
1.00023
1.00043
1.00127
1.00263
1.00681
1.0169
1.03907
1.11204
1.24958
1.71117
2.19962
2.38856
2.39107
2.38102
2.35882
2.32825
2.2953
2.26164
0.999992
0.999992
0.999993
0.999997
1
1.00002
1.00005
1.00017
1.00032
1.001
1.00186
1.00546
1.01132
1.02919
1.07674
1.17037
1.49419
2.1146
2.32685
2.35794
2.35176
2.3363
2.30903
2.27631
2.24197
0.999991
0.999992
0.999993
0.999994
1
1.00001
1.00004
1.00009
1.00028
1.00054
1.00152
1.00327
1.00816
1.02132
1.04799
1.14059
1.31391
1.86307
2.23003
2.33524
2.33339
2.32283
2.30058
2.26796
2.23394
0.999991
0.999991
0.999992
0.999993
0.999998
1
1.00003
1.00006
1.00021
1.00038
1.00121
1.00222
1.00667
1.01326
1.03527
1.08472
1.20954
1.52114
2.10884
2.27857
2.29535
2.29221
2.27946
2.25267
2.22114
0.999991
0.999991
0.999991
0.999993
0.999994
1
1.00001
1.00005
1.0001
1.00034
1.00063
1.0019
1.00369
1.0101
1.02304
1.05535
1.15131
1.3616
1.88094
2.20969
2.27656
2.27451
2.26147
2.24263
2.21093
0.999991
0.999991
0.999991
0.999992
0.999993
0.999998
1
1.00003
1.00007
1.00023
1.00042
1.00131
1.00244
1.00705
1.01471
1.03733
1.09721
1.22066
1.5823
2.04489
2.23311
2.24439
2.2392
2.22377
2.19919
0.999991
0.999991
0.999991
0.999991
0.999993
0.999995
1
1.00001
1.00006
1.00011
1.00036
1.00068
1.00205
1.00397
1.01106
1.02429
1.05957
1.15244
1.39368
1.87811
2.16153
2.22029
2.21892
2.20572
2.18683
0.999991
0.999991
0.999991
0.999991
0.999992
0.999993
0.999999
1.00001
1.00004
1.00007
1.00024
1.00044
1.00137
1.00255
1.00735
1.0153
1.03877
1.1
1.22904
1.5943
2.00829
2.17597
2.19251
2.18777
2.173
0.999991
0.999991
0.999991
0.999991
0.999991
0.999993
0.999995
1
1.00001
1.00006
1.00012
1.00037
1.0007
1.00207
1.00405
1.01119
1.02415
1.06197
1.14632
1.41528
1.82792
2.08989
2.15607
2.16144
2.15563
0.999991
0.999991
0.999991
0.999991
0.999991
0.999992
0.999994
0.999997
1.00001
1.00002
1.00009
1.00018
1.00056
1.00106
1.00311
1.00609
1.01656
1.037
1.09019
1.22771
1.61712
1.95999
2.11042
2.12978
2.12828
0.999991
0.999991
0.999991
0.999991
0.999991
0.999991
0.999993
0.999995
1
1.00001
1.00006
1.00011
1.00036
1.00066
1.00201
1.00378
1.01078
1.02234
1.05754
1.13586
1.36526
1.77367
2.03623
2.10059
2.10692
0.999991
0.999991
0.999991
0.999991
0.999991
0.999991
0.999992
0.999994
0.999996
1.00001
1.00002
1.00009
1.00017
1.00051
1.00096
1.00281
1.00549
1.01496
1.03256
1.0815
1.19535
1.54067
1.88771
2.0576
2.07381
0.999991
0.999991
0.999991
0.999991
0.999991
0.999991
0.999991
0.999993
0.999994
1
1.00001
1.00005
1.0001
1.00032
1.00059
1.00179
1.00335
1.00943
1.02005
1.04942
1.12357
1.30165
1.69563
1.9873
2.05605
0.999991
0.999991
0.999991
0.999991
0.999991
0.999991
0.999991
0.999992
0.999993
0.999997
1
1.00003
1.00006
1.00019
1.00035
1.00107
1.00197
1.00577
1.01131
1.03005
1.06786
1.16715
1.39954
1.83108
2.0034
0.999991
0.999991
0.999991
0.999991
0.999991
0.999991
0.999991
0.999991
0.999992
0.999995
0.999998
1.00001
1.00003
1.00011
1.00021
1.00065
1.00119
1.00354
1.00676
1.01852
1.04148
1.09747
1.25824
1.65997
1.89582
0.999991
0.999991
0.999991
0.999991
0.999991
0.999991
0.999991
0.999991
0.999992
0.999992
0.999996
1
1.00002
1.00005
1.00015
1.00029
1.00086
1.00164
1.00464
1.00949
1.02419
1.05956
1.133
1.35662
1.77358
0.999991
0.999991
0.999991
0.999991
0.999991
0.999991
0.999991
0.999991
0.999991
0.999992
0.999993
0.999998
1
1.00003
1.00006
1.00021
1.0004
1.00116
1.00224
1.00611
1.01306
1.0319
1.08163
1.17834
1.47152
0.999991
0.999991
0.999991
0.999991
0.999991
0.999991
0.999991
0.999991
0.999991
0.999991
0.999993
0.999994
1
1.00001
1.00005
1.00009
1.00029
1.00055
1.00161
1.00311
1.00848
1.01808
1.04447
1.10633
1.26705
0.999991
0.999991
0.999991
0.999991
0.999991
0.999991
0.999991
0.999991
0.999991
0.999991
0.999992
0.999993
0.999997
1
1.00002
1.00005
1.00016
1.00031
1.00093
1.00172
1.00501
1.00976
1.02585
1.05815
1.13954
0.999991
0.999991
0.999991
0.999991
0.999991
0.999991
0.999991
0.999991
0.999991
0.999991
0.999991
0.999992
0.999993
0.999998
1
1.00003
1.00007
1.00021
1.00041
1.00119
1.00226
1.00633
1.01294
1.03254
1.07768
0.999991
0.999991
0.999991
0.999991
0.999991
0.999991
0.999991
0.999991
0.999991
0.999991
0.999991
0.999991
0.999993
0.999994
1
1.00001
1.00005
1.00009
1.00028
1.00054
1.00156
1.00304
1.00825
1.01726
1.04395
0.999991
0.999991
0.999991
0.999991
0.999991
0.999991
0.999991
0.999991
0.999991
0.999991
0.999991
0.999991
0.999992
0.999993
0.999995
1
1.00002
1.00006
1.00012
1.00038
1.00071
1.00205
1.00398
1.01076
1.02247
0.999991
0.999991
0.999991
0.999991
0.999991
0.999991
0.999991
0.999991
0.999991
0.999991
0.999991
0.999991
0.999991
0.999992
0.999993
0.999998
1
1.00003
1.00007
1.00022
1.00041
1.0012
1.00225
1.00637
1.01248
0.999991
0.999991
0.999991
0.999991
0.999991
0.999991
0.999991
0.999991
0.999991
0.999991
0.999991
0.999991
0.999991
0.999991
0.999993
0.999995
1
1.00001
1.00005
1.0001
1.00032
1.00061
1.00179
1.00346
1.00952
0.999991
0.999991
0.999991
0.999991
0.999991
0.999991
0.999991
0.999991
0.999991
0.999991
0.999991
0.999991
0.999991
0.999991
0.999992
0.999994
0.999997
1.00001
1.00003
1.0001
1.00019
1.0006
1.00114
1.00331
1.00677
0.999991
0.999991
0.999991
0.999991
0.999991
0.999991
0.999991
0.999991
0.999991
0.999991
0.999991
0.999991
0.999991
0.999991
0.999992
0.999993
0.999998
1
1.00003
1.00007
1.00022
1.00041
1.00126
1.00248
1.00683
0.999991
0.999991
0.999991
0.999991
0.999991
0.999991
0.999991
0.999991
0.999991
0.999991
0.999991
0.999991
0.999991
0.999991
0.999992
0.999993
0.999996
1.00001
1.00002
1.00008
1.00016
1.0005
1.00095
1.00274
1.00595
0.999991
0.999991
0.999991
0.999991
0.999991
0.999991
0.999991
0.999991
0.999991
0.999991
0.999991
0.999991
0.999991
0.999991
0.999992
0.999993
0.999996
1.00001
1.00002
1.00008
1.00015
1.00048
1.00092
1.00263
1.00582
0.999991
0.999991
0.999991
0.999991
0.999991
0.999991
0.999991
0.999991
0.999991
0.999991
0.999991
0.999991
0.999991
0.999991
0.999992
0.999993
0.999997
1
1.00003
1.00006
1.0002
1.00038
1.0012
1.0023
1.00663
0.999991
0.999991
0.999991
0.999991
0.999991
0.999991
0.999991
0.999991
0.999991
0.999991
0.999991
0.999991
0.999991
0.999991
0.999992
0.999993
0.999997
1
1.00003
1.00006
1.00021
1.00039
1.00125
1.0023
1.00696
1
1.00001
1.00003
1.00006
1.00017
1.00032
1.00099
1.0019
1.00537
1.01183
1.02961
1.08194
1.17989
1.55224
2.34141
2.58383
2.63927
2.63428
2.6335
2.63803
2.63703
2.62887
2.60655
2.55267
2.35867
1
1.00001
1.00003
1.00005
1.00015
1.00028
1.00087
1.00162
1.00475
1.00996
1.02564
1.06898
1.15272
1.4729
2.21418
2.53916
2.63291
2.62458
2.61226
2.60962
2.60424
2.58816
2.55286
2.48832
2.29095
1
1.00001
1.00002
1.00004
1.00013
1.00024
1.00077
1.00138
1.0043
1.00826
1.02298
1.05482
1.12972
1.37379
2.0216
2.4625
2.61775
2.61069
2.5999
2.5896
2.58034
2.56041
2.51452
2.44925
2.2912
1
1.00001
1.00002
1.00003
1.00011
1.0002
1.00063
1.00114
1.00355
1.00671
1.01938
1.04216
1.10837
1.27828
1.82038
2.35987
2.58012
2.57614
2.57213
2.55899
2.54321
2.51851
2.47646
2.42357
2.30492
1
1
1.00002
1.00003
1.00009
1.00016
1.0005
1.00093
1.00282
1.00546
1.01524
1.03495
1.08456
1.23309
1.63291
2.28854
2.54492
2.55466
2.55298
2.54466
2.52433
2.49659
2.43599
2.39015
2.30392
1
1
1.00001
1.00003
1.00005
1.00017
1.0003
1.00093
1.00178
1.00492
1.01107
1.02701
1.07581
1.16269
1.51407
2.22736
2.46288
2.5205
2.51312
2.51006
2.49926
2.47916
2.42935
2.36577
2.29649
1
1
1.00001
1.00002
1.00004
1.00014
1.00025
1.00079
1.00142
1.00436
1.00854
1.02316
1.05719
1.13215
1.38564
2.02764
2.39974
2.5086
2.5003
2.48906
2.46497
2.44319
2.41238
2.357
2.29174
1
1
1.00001
1.00002
1.00003
1.00011
1.00019
1.0006
1.0011
1.00338
1.00648
1.01842
1.04057
1.10366
1.26408
1.78602
2.25335
2.46834
2.4725
2.46696
2.45141
2.42129
2.38724
2.33924
2.28025
1
1
1.00001
1.00001
1.00003
1.00006
1.00019
1.00034
1.00105
1.00199
1.00571
1.01212
1.03094
1.08246
1.18366
1.53511
2.21206
2.41384
2.43863
2.43001
2.42116
2.40122
2.37382
2.3323