/*--------------------------------*- C++ -*----------------------------------*\
| =========                 |                                                 |
| \\      /  F ield         | OpenFOAM: The Open Source CFD Toolbox           |
|  \\    /   O peration     | Version:  4.1                                   |
|   \\  /    A nd           | Web:      www.OpenFOAM.org                      |
|    \\/     M anipulation  |                                                 |
\*---------------------------------------------------------------------------*/
FoamFile
{
    version     2.0;
    format      ascii;
    class       surfaceScalarField;
    location    "1.9";
    object      phi;
}
// * * * * * * * * * * * * * * * * * * * * * * * * * * * * * * * * * * * * * //

dimensions      [1 0 -1 0 0 0 0];

internalField   nonuniform List<scalar> 
150500
(
0.0168001
1.20707e-10
-3.3007e-12
0.0168001
6.59683e-10
-1.16012e-11
0.0168001
2.48514e-09
-1.35595e-11
0.0168
6.36038e-09
-2.12978e-11
0.0168
1.79362e-08
-2.16372e-11
0.0167999
4.12899e-08
-2.84943e-11
0.0167997
1.1128e-07
-2.90057e-11
0.0167994
2.48681e-07
-3.77863e-11
0.0167979
7.13775e-07
-4.49329e-11
0.0167961
1.37339e-06
-7.57448e-11
0.0167857
5.25582e-06
-1.11027e-10
0.0167711
1.04102e-05
-2.92931e-10
0.0167011
4.78488e-05
-6.79499e-10
0.0165252
0.000134151
-2.14896e-09
0.0155264
0.000778785
-6.75756e-09
0.0142395
0.0013488
1.26201e-09
0.0130689
0.00121145
6.27056e-10
0.0118506
0.00123639
7.90385e-11
0.0105565
0.00131028
5.99587e-12
0.00912723
0.00143121
-7.83905e-11
0.00757512
0.00156292
2.92382e-11
0.00588617
0.00169892
1.07159e-10
0.004047
0.00182942
1.06201e-10
0.00208426
0.00195603
1.74387e-10
0.00209213
1.77115e-10
0.0168001
2.29402e-10
-3.29402e-12
0.0168001
1.25468e-09
-1.16023e-11
0.0168001
4.73293e-09
-1.35511e-11
0.0168
1.20845e-08
-2.12858e-11
0.0168
3.40312e-08
-2.16013e-11
0.0168
7.79105e-08
-2.84254e-11
0.0167997
2.10233e-07
-2.88295e-11
0.0167994
4.63035e-07
-3.74353e-11
0.0167981
1.34991e-06
-4.41733e-11
0.0167965
2.50613e-06
-7.36321e-11
0.0167868
1.01095e-05
-1.09149e-10
0.0167747
1.84815e-05
-2.80804e-10
0.0167102
9.09763e-05
-6.63448e-10
0.0165539
0.000248839
-2.07054e-09
0.015732
0.00139134
-6.50344e-09
0.0144547
0.00267938
9.86802e-10
0.0132358
0.00246692
4.93839e-10
0.0119909
0.00249746
4.74371e-11
0.0106765
0.00263995
-7.92354e-12
0.00921742
0.00289209
-6.84935e-11
0.0076243
0.00316622
2.213e-11
0.00589376
0.00343812
9.25801e-11
0.00401596
0.00369629
1.00737e-10
0.00202953
0.00393541
1.48944e-10
0.00412911
1.62773e-10
0.0168001
3.27185e-10
-3.28366e-12
0.0168001
1.80552e-09
-1.15992e-11
0.0168001
6.7479e-09
-1.3544e-11
0.0168
1.73009e-08
-2.12631e-11
0.0168
4.79318e-08
-2.15434e-11
0.0168
1.09702e-07
-2.83113e-11
0.0167998
2.89856e-07
-2.84881e-11
0.0167995
6.41196e-07
-3.67532e-11
0.0167985
1.7682e-06
-4.28744e-11
0.0167966
3.70461e-06
-6.39514e-11
0.0167899
1.26308e-05
-1.08504e-10
0.01678
2.43268e-05
-2.35921e-10
0.0167413
0.00011168
-6.01431e-10
0.016636
0.000307575
-1.80863e-09
0.0162434
0.00161554
-5.72904e-09
0.0149173
0.00403039
7.88815e-11
0.0135472
0.0038602
2.23653e-10
0.0122365
0.00381935
1.36347e-11
0.0108862
0.00400265
-2.66552e-11
0.00940261
0.004376
-7.41837e-11
0.00777743
0.0047998
-3.30957e-12
0.00600725
0.00521587
5.92883e-11
0.00408499
0.00560701
6.58855e-11
0.00206227
0.00595009
1.15978e-10
0.00619812
1.34661e-10
0.0168001
4.38035e-10
-3.2717e-12
0.0168001
2.41383e-09
-1.15988e-11
0.0168001
9.01793e-09
-1.35406e-11
0.0168
2.3089e-08
-2.12502e-11
0.0168
6.39588e-08
-2.15038e-11
0.0168
1.46175e-07
-2.82294e-11
0.0167998
3.84926e-07
-2.81965e-11
0.0167995
8.55806e-07
-3.61584e-11
0.0167985
2.28956e-06
-4.05845e-11
0.0167966
5.03416e-06
-6.00176e-11
0.0167917
1.46239e-05
-8.54228e-11
0.0167783
3.40766e-05
-2.18811e-10
0.0167548
0.000121703
-3.86183e-10
0.0166952
0.000336351
-1.325e-09
0.0165705
0.00164974
-3.31883e-09
0.015281
0.00524621
-2.03282e-09
0.0138234
0.0053141
-3.52832e-10
0.0124759
0.00517614
-1.09834e-11
0.0111297
0.00536313
-4.1744e-11
0.00964722
0.00585664
-9.29601e-11
0.00800982
0.00644286
-4.14616e-11
0.00621535
0.0070167
8.77089e-12
0.00424886
0.00756232
1.53588e-11
0.00214993
0.00804107
8.79392e-11
0.00835329
1.02294e-10
0.0168001
5.50013e-10
-3.25601e-12
0.0168001
3.04467e-09
-1.16006e-11
0.0168001
1.13488e-08
-1.35398e-11
0.0168
2.91399e-08
-2.12424e-11
0.0168
8.01808e-08
-2.14804e-11
0.0168
1.83448e-07
-2.81808e-11
0.0167998
4.78236e-07
-2.80308e-11
0.0167995
1.06415e-06
-3.58162e-11
0.0167986
2.80396e-06
-3.92857e-11
0.0167971
6.16969e-06
-5.79121e-11
0.0167919
1.74774e-05
-7.24447e-11
0.0167827
4.04372e-05
-2.05689e-10
0.0167531
0.00013944
-2.78177e-10
0.0167068
0.000373714
-1.00774e-09
0.0164859
0.00177943
-2.58023e-09
0.0153832
0.00624368
-3.32111e-09
0.013964
0.00671515
-9.71273e-10
0.0126557
0.00648993
-1.37736e-11
0.011367
0.00666263
-2.77892e-11
0.00991673
0.00730397
-1.0236e-10
0.00829406
0.00807225
-7.49707e-11
0.00649277
0.00882063
-1.92618e-11
0.00448663
0.00954883
-3.10549e-11
0.00230483
0.0102046
6.29597e-11
0.0106609
8.0786e-11
0.0168001
7.05995e-10
-3.23888e-12
0.0168001
3.9015e-09
-1.16059e-11
0.0168001
1.45174e-08
-1.3546e-11
0.0168
3.72669e-08
-2.12465e-11
0.0168
1.02526e-07
-2.14851e-11
0.0167999
2.3477e-07
-2.81834e-11
0.0167998
6.10957e-07
-2.79995e-11
0.0167994
1.36616e-06
-3.5716e-11
0.0167983
3.5383e-06
-3.87692e-11
0.0167961
8.01168e-06
-5.66205e-11
0.0167909
2.06811e-05
-6.7468e-11
0.0167771
5.1883e-05
-1.88832e-10
0.0167531
0.000153544
-2.27495e-10
0.0166829
0.000436891
-8.38494e-10
0.0165004
0.00189051
-2.07687e-09
0.0154041
0.00723969
-3.04521e-09
0.013976
0.00812067
-1.06731e-09
0.0128554
0.00762122
2.33934e-11
0.0116539
0.00787902
-8.30846e-12
0.0102302
0.00872523
-1.36239e-10
0.00864065
0.00966229
-1.09463e-10
0.00684901
0.0106149
-6.06867e-11
0.00480666
0.0115763
-5.24697e-11
0.00251612
0.0124774
1.71124e-11
0.0131786
5.47864e-11
0.0168001
8.93133e-10
-3.22132e-12
0.0168001
4.86575e-09
-1.16171e-11
0.0168001
1.81382e-08
-1.35708e-11
0.0168
4.63838e-08
-2.12825e-11
0.0168
1.28948e-07
-2.15772e-11
0.0167999
2.96869e-07
-2.83611e-11
0.0167997
7.66323e-07
-2.84366e-11
0.0167992
1.82596e-06
-3.66923e-11
0.0167983
4.05878e-06
-3.9769e-11
0.0167945
1.15303e-05
-6.53623e-11
0.0167922
2.12008e-05
-5.54841e-11
0.0167775
6.34632e-05
-2.18947e-10
0.0167559
0.000164127
-1.55524e-10
0.01671
0.000488421
-7.97145e-10
0.0165352
0.0020052
-1.65053e-09
0.0153477
0.00832891
-2.90872e-09
0.0144807
0.0089414
-1.67547e-09
0.0132099
0.00891141
1.66603e-10
0.0118982
0.00920896
1.21451e-10
0.0106185
0.0100002
-1.73189e-10
0.00909868
0.0111792
-1.2725e-10
0.00734314
0.0123711
-7.00052e-11
0.005277
0.0136362
-5.05105e-11
0.00285263
0.0148984
-1.45906e-12
0.0160343
3.75067e-11
0.0168001
8.79493e-10
-3.18927e-12
0.0168001
4.83914e-09
-1.16681e-11
0.0168001
1.80392e-08
-1.35799e-11
0.0168001
4.64711e-08
-2.1397e-11
0.0168
1.28191e-07
-2.17976e-11
0.0168
2.96051e-07
-2.89474e-11
0.0168
7.61966e-07
-2.95432e-11
0.0168
1.77632e-06
-4.17366e-11
0.0167995
4.28021e-06
-3.77596e-11
0.0168003
1.02722e-05
-1.02915e-10
0.016795
2.49254e-05
-8.95493e-12
0.0167934
6.18037e-05
-2.72467e-10
0.0167788
0.0001711
-6.90857e-12
0.0166976
0.000557275
-8.65458e-10
0.0166064
0.00205662
-1.26171e-09
0.0155957
0.00923162
-3.37285e-09
0.0145346
0.00999046
-7.24782e-10
0.0134897
0.00995357
-2.19045e-10
0.0122597
0.0104403
-1.32343e-10
0.0110098
0.0112487
-1.66896e-10
0.00963028
0.0125561
-1.6294e-10
0.00796963
0.014034
-9.28914e-11
0.00593359
0.0156637
-2.80365e-11
0.00338611
0.0174273
-6.24365e-12
0.0194231
3.61549e-11
0.0168001
1.01246e-09
-3.16969e-12
0.0168001
4.37454e-09
-1.16833e-11
0.0168001
1.7763e-08
-1.35202e-11
0.0168001
4.33351e-08
-2.15068e-11
0.0168001
1.23877e-07
-2.13596e-11
0.0168001
2.74236e-07
-2.86559e-11
0.0168001
7.33635e-07
-2.83544e-11
0.0168002
1.58787e-06
-3.69985e-11
0.0167999
4.2854e-06
-3.85987e-11
0.0168016
8.3663e-06
-6.02377e-11
0.0167964
2.84172e-05
-7.2491e-11
0.016806
4.99811e-05
-1.58749e-10
0.0167617
0.000208222
-1.29116e-10
0.0167735
0.000533947
-7.96967e-10
0.0166175
0.00217539
-1.22185e-09
0.0158122
0.00993237
-3.52307e-09
0.0147406
0.0110606
-2.82277e-10
0.0137708
0.0109239
-1.54758e-10
0.0127279
0.0114825
-1.80215e-10
0.0116057
0.0123672
-1.75449e-10
0.0103463
0.0138147
-1.42451e-10
0.00884681
0.0155366
-7.37445e-11
0.00701269
0.0174976
-2.78463e-11
0.00438172
0.0200444
-1.29585e-12
0.0238056
4.5436e-11
0.0168001
-3.22634e-12
1.55809e-09
0.0168001
-1.16844e-11
7.85035e-10
0.0168001
-1.365e-11
2.01147e-08
0.0168001
-2.1908e-11
1.41678e-08
0.0168001
-2.12229e-11
1.30978e-07
0.0168003
-2.9183e-11
9.15807e-08
0.0168001
-2.83105e-11
8.05378e-07
0.0168013
-3.77048e-11
4.11736e-07
0.0167996
-3.76763e-11
5.69001e-06
0.0168068
-5.99296e-11
1.00179e-06
0.0167892
-7.53372e-11
4.44034e-05
0.0168332
-1.31227e-10
4.64625e-06
0.0167029
-2.30183e-10
0.000330777
0.0169516
-7.01769e-10
0.000276287
0.0167416
-1.2837e-09
0.00235402
0.0164415
-3.7907e-09
0.0101081
0.0152972
3.35379e-11
0.0122075
0.014254
5.63061e-12
0.0119699
0.0133418
-1.62227e-10
0.0123939
0.0123362
-1.53063e-10
0.0133699
0.0113178
-1.02514e-10
0.014832
0.0101818
-6.33798e-11
0.0166724
0.00852309
-3.60622e-12
0.0191551
0.00600609
4.38551e-11
0.0225503
7.39469e-11
0.0298104
0.0168001
1.23864e-10
-4.42647e-16
0.0168001
6.61576e-10
-2.4244e-15
0.0168001
2.49158e-09
-5.02768e-15
0.0168
6.37104e-09
-1.03761e-14
0.0168
1.79638e-08
-1.78714e-14
0.0167999
4.13485e-08
-3.22733e-14
0.0167997
1.1143e-07
-6.30562e-14
0.0167994
2.49018e-07
-1.1528e-13
0.0167979
7.14564e-07
-3.23416e-13
0.0167961
1.37556e-06
-4.4029e-13
0.0167857
5.25982e-06
-2.44421e-12
0.0167711
1.04223e-05
-3.38374e-12
0.016701
4.78772e-05
-1.89576e-11
0.0165249
0.000134242
-4.91778e-11
0.0155253
0.000779372
-1.7389e-10
0.0142382
0.00134902
2.43654e-11
0.0130677
0.0012114
1.15871e-11
0.0118495
0.00123628
1.13287e-13
0.0105556
0.00131014
-4.33197e-13
0.00912657
0.00143108
-2.04566e-12
0.00757461
0.00156279
8.62859e-13
0.00588579
0.00169881
7.90936e-13
0.00404676
0.00182933
2.6991e-12
0.00208413
0.00195593
-3.64921e-12
0.00209203
-1.31146e-12
0.0168001
2.34375e-10
-4.36569e-16
0.0168001
1.26013e-09
-2.39723e-15
0.0168001
4.74087e-09
-4.9396e-15
0.0168
1.21026e-08
-1.01812e-14
0.0168
3.4074e-08
-1.7355e-14
0.0168
7.80016e-08
-3.12061e-14
0.0167997
2.10481e-07
-6.04605e-14
0.0167994
4.63592e-07
-1.1022e-13
0.0167981
1.35108e-06
-3.1123e-13
0.0167965
2.51208e-06
-4.18858e-13
0.0167867
1.01151e-05
-2.36723e-12
0.0167747
1.85099e-05
-3.22122e-12
0.0167101
9.10497e-05
-1.82849e-11
0.0165536
0.000249094
-4.70742e-11
0.0157305
0.00139293
-1.66437e-10
0.0144532
0.00267972
1.74269e-11
0.0132346
0.00246654
8.15359e-12
0.01199
0.00249715
-9.29872e-13
0.0106758
0.00263966
-1.33307e-12
0.0092169
0.00289186
-1.9648e-12
0.00762389
0.003166
7.67923e-13
0.00589345
0.00343793
5.21917e-13
0.00401577
0.00369614
1.84115e-12
0.00202942
0.00393525
-3.22794e-12
0.00412895
-1.4483e-12
0.0168001
3.3314e-10
-4.26143e-16
0.0168001
1.81074e-09
-2.35078e-15
0.0168001
6.75507e-09
-4.78439e-15
0.0168
1.7314e-08
-9.83067e-15
0.0168
4.79615e-08
-1.63983e-14
0.0168
1.09764e-07
-2.91514e-14
0.0167998
2.90034e-07
-5.52199e-14
0.0167995
6.4159e-07
-9.97968e-14
0.0167985
1.76954e-06
-2.66784e-13
0.0167966
3.70723e-06
-4.57786e-13
0.0167899
1.26454e-05
-1.95775e-12
0.01678
2.43433e-05
-2.76564e-12
0.0167412
0.000111834
-1.59123e-11
0.0166358
0.000307969
-4.08061e-11
0.0162417
0.00161837
-1.46186e-10
0.0149164
0.00403025
-5.45908e-12
0.0135466
0.00385965
1.44752e-12
0.0122359
0.00381894
-2.09481e-12
0.0108857
0.0040023
-2.19322e-12
0.00940226
0.00437573
-2.29521e-12
0.00777714
0.00479954
3.00198e-13
0.00600701
0.00521563
4.29903e-16
0.00408485
0.00560682
1.13989e-12
0.00206218
0.00594989
-3.37424e-12
0.00619789
-1.54121e-12
0.0168001
4.45805e-10
-4.20718e-16
0.0168001
2.41907e-09
-2.32658e-15
0.0168001
9.02391e-09
-4.69675e-15
0.0168
2.30982e-08
-9.64797e-15
0.0168
6.39769e-08
-1.57116e-14
0.0168
1.46211e-07
-2.77487e-14
0.0167998
3.85027e-07
-4.96627e-14
0.0167995
8.56037e-07
-8.90005e-14
0.0167985
2.29033e-06
-2.17698e-13
0.0167966
5.03577e-06
-3.92969e-13
0.0167917
1.46314e-05
-1.38297e-12
0.0167783
3.40905e-05
-2.45799e-12
0.0167549
0.000121784
-1.04811e-11
0.0166953
0.000336618
-2.87525e-11
0.0165722
0.00165094
-8.4697e-11
0.0152814
0.00524762
-5.80266e-11
0.0138233
0.00531398
-1.32389e-11
0.0124758
0.00517581
-4.05833e-12
0.0111295
0.00536283
-2.99608e-12
0.00964705
0.00585642
-2.90085e-12
0.00800964
0.00644262
-5.50416e-13
0.0062152
0.00701646
-8.02088e-13
0.00424877
0.00756213
8.74058e-13
0.00214987
0.00804085
-4.09625e-12
0.00835303
-1.66403e-12
0.0168001
5.585e-10
-4.16407e-16
0.0168001
3.04884e-09
-2.30693e-15
0.0168001
1.13503e-08
-4.62942e-15
0.0168
2.91381e-08
-9.50519e-15
0.0168
8.01724e-08
-1.52211e-14
0.0168
1.83426e-07
-2.67543e-14
0.0167998
4.78198e-07
-4.60557e-14
0.0167995
1.06408e-06
-8.21817e-14
0.0167986
2.80397e-06
-1.88243e-13
0.0167971
6.16981e-06
-3.53134e-13
0.0167919
1.74785e-05
-1.06551e-12
0.0167827
4.04469e-05
-2.25175e-12
0.0167532
0.000139475
-7.80095e-12
0.0167069
0.000373846
-2.11311e-11
0.0164863
0.00178014
-6.66712e-11
0.0153839
0.00624469
-8.9939e-11
0.0139643
0.00671529
-2.97824e-11
0.0126558
0.00648981
-4.90261e-12
0.0113669
0.00666242
-3.07136e-12
0.00991667
0.00730381
-3.3e-12
0.00829398
0.00807205
-1.45074e-12
0.00649269
0.00882041
-1.39699e-12
0.0044866
0.00954866
8.80993e-13
0.00230478
0.0102044
-4.49557e-12
0.0106607
-1.27961e-12
0.0168001
7.14994e-10
-4.14254e-16
0.0168001
3.90416e-09
-2.29705e-15
0.0168001
1.45054e-08
-4.59568e-15
0.0168
3.72401e-08
-9.4323e-15
0.0168
1.02443e-07
-1.49513e-14
0.0167999
2.34585e-07
-2.62002e-14
0.0167998
6.10487e-07
-4.39412e-14
0.0167994
1.36507e-06
-7.78792e-14
0.0167983
3.53635e-06
-1.71451e-13
0.0167961
8.00461e-06
-3.18821e-13
0.0167909
2.068e-05
-9.31247e-13
0.0167772
5.18655e-05
-1.9295e-12
0.0167531
0.00015358
-6.53192e-12
0.016683
0.000436942
-1.73244e-11
0.0165005
0.00189101
-5.45801e-11
0.0154045
0.00724031
-8.27145e-11
0.0139762
0.00812079
-3.2178e-11
0.0128554
0.00762136
-2.58527e-12
0.0116539
0.00787897
-2.28184e-12
0.0102301
0.00872512
-4.32036e-12
0.00864059
0.00966217
-2.16567e-12
0.00684896
0.0106147
-1.90895e-12
0.00480666
0.0115761
3.08892e-13
0.00251609
0.0124772
-4.23248e-12
0.0131783
-7.15714e-13
0.0168001
9.08249e-10
-4.18999e-16
0.0168001
4.85196e-09
-2.31564e-15
0.0168001
1.81328e-08
-4.66806e-15
0.0168
4.63259e-08
-9.58494e-15
0.0168
1.2882e-07
-1.54469e-14
0.0167999
2.96553e-07
-2.72566e-14
0.0167997
7.65681e-07
-4.70664e-14
0.0167992
1.82356e-06
-8.6036e-14
0.0167983
4.05875e-06
-1.80996e-13
0.0167945
1.15159e-05
-4.06615e-13
0.0167922
2.12131e-05
-7.92561e-13
0.0167775
6.34435e-05
-2.49338e-12
0.0167558
0.000164202
-5.48585e-12
0.0167101
0.000488414
-1.65378e-11
0.0165353
0.0020056
-4.59396e-11
0.015348
0.0083292
-7.8737e-11
0.0144806
0.00894211
-4.65125e-11
0.0132097
0.00891133
2.68256e-12
0.0118982
0.00920887
1.79408e-12
0.0106185
0.0100002
-5.4813e-12
0.00909869
0.0111791
-2.48488e-12
0.00734311
0.0123709
-1.92734e-12
0.00527699
0.013636
-2.12249e-13
0.00285263
0.0148982
-4.74444e-12
0.016034
2.28983e-13
0.0168001
8.87937e-10
-4.17676e-16
0.0168001
4.83138e-09
-2.30426e-15
0.0168001
1.80563e-08
-4.63665e-15
0.0168001
4.63979e-08
-9.52236e-15
0.0168
1.28311e-07
-1.52017e-14
0.0168
2.96161e-07
-2.68226e-14
0.0168
7.62461e-07
-4.49189e-14
0.0168
1.77851e-06
-8.45082e-14
0.0167994
4.28043e-06
-1.59773e-13
0.0168002
1.02913e-05
-3.81545e-13
0.016795
2.49009e-05
-6.96808e-13
0.0167933
6.18583e-05
-2.10592e-12
0.0167788
0.000171062
-4.82547e-12
0.0166976
0.00055732
-1.8233e-11
0.0166068
0.00205666
-3.92364e-11
0.0155959
0.00923195
-9.19487e-11
0.0145352
0.00999072
-1.99382e-11
0.01349
0.0099538
-6.61293e-12
0.0122599
0.0104404
-4.36873e-12
0.01101
0.0112488
-5.10847e-12
0.00963034
0.0125561
-3.98333e-12
0.00796966
0.0140339
-2.30198e-12
0.00593364
0.0156636
4.36792e-14
0.00338609
0.0174272
-2.52611e-12
0.0194228
1.73204e-12
0.0168001
9.7444e-10
-4.1342e-16
0.0168001
4.49752e-09
-2.27003e-15
0.0168001
1.77013e-08
-4.52088e-15
0.0168001
4.31924e-08
-9.50259e-15
0.0168001
1.23835e-07
-1.43286e-14
0.0168001
2.74088e-07
-2.56302e-14
0.0168001
7.33674e-07
-4.12317e-14
0.0168002
1.58845e-06
-7.20899e-14
0.0167999
4.28642e-06
-1.52854e-13
0.0168016
8.37262e-06
-2.7747e-13
0.0167964
2.84187e-05
-7.82822e-13
0.016806
5.00036e-05
-1.68733e-12
0.0167617
0.000208194
-4.31931e-12
0.0167735
0.000533994
-1.61528e-11
0.0166174
0.00217542
-3.76073e-11
0.015812
0.00993269
-9.79983e-11
0.0147407
0.0110607
-9.85094e-12
0.013771
0.0109241
-5.92732e-12
0.012728
0.0114826
-6.08217e-12
0.0116058
0.0123674
-5.77549e-12
0.0103464
0.0138147
-4.2265e-12
0.00884688
0.0155365
-2.20374e-12
0.00701275
0.0174975
-5.58705e-13
0.00438175
0.0200444
-1.59614e-12
0.0238054
3.28422e-12
0.0168001
-4.12586e-16
1.44077e-09
0.0168001
-2.2549e-15
1.11234e-09
0.0168001
-4.46376e-15
1.90095e-08
0.0168001
-9.37627e-15
1.47253e-08
0.0168001
-1.38293e-14
1.29692e-07
0.0168003
-2.45264e-14
9.22909e-08
0.0168001
-3.86455e-14
8.04525e-07
0.0168013
-6.50174e-14
4.1301e-07
0.0167996
-1.43323e-13
5.6897e-06
0.0168068
-2.40762e-13
1.00742e-06
0.0167892
-7.78677e-13
4.44067e-05
0.0168332
-1.38452e-12
4.66196e-06
0.0167029
-5.07326e-12
0.000330787
0.0169515
-1.45929e-11
0.00027638
0.0167415
-3.68763e-11
0.00235409
0.0164409
-1.04163e-10
0.0101089
0.0152968
-3.52397e-12
0.0122074
0.0142538
-3.70001e-12
0.0119699
0.0133418
-6.31601e-12
0.0123939
0.0123362
-5.8195e-12
0.0133699
0.0113178
-3.81695e-12
0.014832
0.0101818
-2.67204e-12
0.0166724
0.00852313
-4.96927e-13
0.019155
0.00600614
3.11843e-13
0.0225502
4.53029e-12
0.0298103
0.0168001
1.23867e-10
1.24204e-16
0.0168001
6.6159e-10
3.23677e-17
0.0168001
2.49163e-09
-4.85829e-16
0.0168
6.37118e-09
-1.05726e-15
0.0168
1.79642e-08
-3.10252e-15
0.0167999
4.13493e-08
-5.21729e-15
0.0167997
1.11433e-07
-1.58022e-14
0.0167994
2.49023e-07
-3.14988e-14
0.0167979
7.14576e-07
-1.05116e-13
0.0167961
1.37559e-06
-1.48003e-13
0.0167857
5.2599e-06
-8.46005e-13
0.0167711
1.04225e-05
-1.18596e-12
0.016701
4.7878e-05
-6.44036e-12
0.0165249
0.000134244
-1.62252e-11
0.0155252
0.000779387
-5.49856e-11
0.0142382
0.00134903
2.32803e-11
0.0130677
0.0012114
1.35636e-11
0.0118495
0.00123627
4.54597e-12
0.0105556
0.00131014
3.16341e-12
0.00912656
0.00143108
1.7936e-12
0.00757461
0.00156279
4.67966e-12
0.00588578
0.00169881
6.35746e-12
0.00404676
0.00182933
7.87114e-12
0.00208413
0.00195593
6.80503e-12
0.00209203
7.67527e-12
0.0168001
2.3438e-10
1.28241e-16
0.0168001
1.26016e-09
5.4582e-17
0.0168001
4.74096e-09
-4.34755e-16
0.0168
1.21028e-08
-9.44793e-16
0.0168
3.40746e-08
-2.38225e-15
0.0168
7.80031e-08
-5.81272e-15
0.0167997
2.10485e-07
-1.46756e-14
0.0167994
4.63601e-07
-2.92815e-14
0.0167981
1.35111e-06
-9.96316e-14
0.0167965
2.51209e-06
-1.35997e-13
0.0167867
1.01154e-05
-8.18888e-13
0.0167747
1.85103e-05
-1.0966e-12
0.0167101
9.10517e-05
-6.21471e-12
0.0165536
0.0002491
-1.54587e-11
0.0157305
0.00139297
-5.24917e-11
0.0144532
0.00267972
1.94485e-11
0.0132346
0.00246653
1.14592e-11
0.01199
0.00249714
3.84293e-12
0.0106757
0.00263965
2.78713e-12
0.0092169
0.00289185
1.85435e-12
0.00762389
0.003166
4.5452e-12
0.00589345
0.00343793
6.00658e-12
0.00401577
0.00369614
7.42641e-12
0.00202942
0.00393525
6.44381e-12
0.00412895
7.36126e-12
0.0168001
3.33142e-10
1.34663e-16
0.0168001
1.81076e-09
9.0613e-17
0.0168001
6.75512e-09
-1.62856e-16
0.0168
1.73142e-08
-7.48648e-16
0.0168
4.79619e-08
-2.28441e-15
0.0168
1.09765e-07
-4.68152e-15
0.0167998
2.90037e-07
-1.25279e-14
0.0167995
6.41596e-07
-2.4718e-14
0.0167985
1.76957e-06
-8.19389e-14
0.0167966
3.70728e-06
-1.43217e-13
0.0167899
1.26457e-05
-6.68088e-13
0.01678
2.43436e-05
-8.75014e-13
0.0167412
0.000111837
-5.38042e-12
0.0166358
0.000307978
-1.31987e-11
0.0162417
0.00161844
-4.57791e-11
0.0149164
0.00403025
5.23133e-12
0.0135466
0.00385964
7.27256e-12
0.0122359
0.00381893
3.02906e-12
0.0108857
0.00400229
2.2899e-12
0.00940226
0.00437572
1.80913e-12
0.00777714
0.00479954
4.10442e-12
0.00600701
0.00521563
5.271e-12
0.00408485
0.00560682
6.53616e-12
0.00206218
0.00594989
5.55853e-12
0.00619789
6.65749e-12
0.0168001
4.45807e-10
1.38045e-16
0.0168001
2.41908e-09
1.08701e-16
0.0168001
9.02395e-09
-3.00593e-16
0.0168
2.30983e-08
-6.48551e-16
0.0168
6.39772e-08
-1.93224e-15
0.0168
1.46212e-07
-3.9583e-15
0.0167998
3.85029e-07
-1.04461e-14
0.0167995
8.56042e-07
-2.0568e-14
0.0167985
2.29035e-06
-6.33991e-14
0.0167966
5.0358e-06
-1.18606e-13
0.0167917
1.46316e-05
-4.5191e-13
0.0167783
3.40908e-05
-7.92992e-13
0.0167549
0.000121786
-3.43069e-12
0.0166953
0.000336624
-9.18188e-12
0.0165723
0.00165097
-2.61337e-11
0.0152814
0.00524765
-1.50213e-11
0.0138234
0.00531397
-3.19899e-13
0.0124758
0.0051758
2.54879e-12
0.0111295
0.00536282
2.19007e-12
0.00964705
0.00585641
1.64361e-12
0.00800964
0.00644261
3.37916e-12
0.0062152
0.00701646
4.30412e-12
0.00424877
0.00756213
5.45196e-12
0.00214987
0.00804085
4.30198e-12
0.00835303
5.63636e-12
0.0168001
5.585e-10
1.41084e-16
0.0168001
3.04885e-09
1.24504e-16
0.0168001
1.13503e-08
-1.2093e-16
0.0168
2.91381e-08
-5.60912e-16
0.0168
8.01725e-08
-1.64752e-15
0.0168
1.83427e-07
-3.37805e-15
0.0167998
4.78199e-07
-8.96974e-15
0.0167995
1.06408e-06
-1.77451e-14
0.0167986
2.80397e-06
-5.1478e-14
0.0167971
6.16982e-06
-1.0143e-13
0.0167919
1.74786e-05
-3.30732e-13
0.0167827
4.04471e-05
-7.08041e-13
0.0167532
0.000139475
-2.46437e-12
0.0167069
0.000373849
-6.54389e-12
0.0164863
0.00178016
-2.02308e-11
0.0153839
0.00624472
-2.52988e-11
0.0139643
0.00671529
-6.76077e-12
0.0126558
0.00648981
2.57097e-12
0.0113669
0.00666242
2.43284e-12
0.00991668
0.00730381
1.55742e-12
0.00829398
0.00807205
2.51307e-12
0.00649269
0.00882041
3.32136e-12
0.0044866
0.00954866
4.54989e-12
0.00230478
0.0102044
3.42979e-12
0.0106607
4.91845e-12
0.0168001
7.14991e-10
1.43109e-16
0.0168001
3.90415e-09
1.33809e-16
0.0168001
1.45054e-08
-1.12402e-16
0.0168
3.724e-08
-5.06123e-16
0.0168
1.02443e-07
-1.46428e-15
0.0167999
2.34584e-07
-3.00321e-15
0.0167998
6.10485e-07
-7.46394e-15
0.0167994
1.36506e-06
-1.60553e-14
0.0167983
3.53634e-06
-4.43286e-14
0.0167961
8.00458e-06
-8.66415e-14
0.0167909
2.06801e-05
-2.77666e-13
0.0167772
5.18653e-05
-5.73967e-13
0.0167531
0.00015358
-2.00461e-12
0.016683
0.000436943
-5.17316e-12
0.0165005
0.00189102
-1.61434e-11
0.0154046
0.00724032
-2.29057e-11
0.0139762
0.0081208
-7.44655e-12
0.0128554
0.00762136
3.03573e-12
0.0116539
0.00787897
2.7006e-12
0.0102301
0.00872512
1.23314e-12
0.00864059
0.00966217
1.81293e-12
0.00684896
0.0106147
2.34349e-12
0.00480666
0.0115761
3.47514e-12
0.00251609
0.0124772
2.43878e-12
0.0131783
4.10452e-12
0.0168001
9.08249e-10
1.41618e-16
0.0168001
4.85196e-09
1.22373e-16
0.0168001
1.81328e-08
-2.6053e-16
0.0168
4.63259e-08
-5.63202e-16
0.0168
1.2882e-07
-1.64209e-15
0.0167999
2.96554e-07
-3.38328e-15
0.0167997
7.65682e-07
-8.30443e-15
0.0167992
1.82356e-06
-1.86002e-14
0.0167983
4.05876e-06
-4.65557e-14
0.0167945
1.15159e-05
-1.14009e-13
0.0167922
2.12132e-05
-2.23842e-13
0.0167775
6.34437e-05
-7.47919e-13
0.0167558
0.000164203
-1.60825e-12
0.0167101
0.000488414
-4.81382e-12
0.0165353
0.00200561
-1.32522e-11
0.015348
0.00832921
-2.14561e-11
0.0144805
0.00894213
-1.12924e-11
0.0132097
0.00891133
6.15538e-12
0.0118982
0.00920887
4.94328e-12
0.0106185
0.0100002
6.61127e-13
0.00909869
0.0111791
1.29192e-12
0.00734311
0.0123709
1.79798e-12
0.00527699
0.013636
2.93527e-12
0.00285263
0.0148982
1.98717e-12
0.016034
3.49991e-12
0.0168001
8.87939e-10
1.43178e-16
0.0168001
4.83139e-09
1.30403e-16
0.0168001
1.80564e-08
-1.21197e-16
0.0168001
4.6398e-08
-5.28194e-16
0.0168
1.28312e-07
-1.5283e-15
0.0168
2.96162e-07
-3.21183e-15
0.0168
7.62463e-07
-8.75843e-15
0.0168
1.77851e-06
-1.85614e-14
0.0167995
4.28044e-06
-3.80439e-14
0.0168002
1.02914e-05
-1.11824e-13
0.016795
2.49009e-05
-1.81589e-13
0.0167933
6.18586e-05
-6.2798e-13
0.0167788
0.000171062
-1.18172e-12
0.0166976
0.000557321
-5.23266e-12
0.0166068
0.00205667
-1.10906e-11
0.0155959
0.00923196
-2.52453e-11
0.0145352
0.00999073
-3.73882e-12
0.01349
0.00995381
8.19547e-13
0.0122599
0.0104404
1.11707e-12
0.01101
0.0112488
6.49681e-13
0.00963034
0.0125561
6.41374e-13
0.00796966
0.0140339
1.3343e-12
0.00593365
0.0156636
2.54836e-12
0.00338609
0.0174272
1.89157e-12
0.0194228
3.07821e-12
0.0168001
9.74437e-10
1.46541e-16
0.0168001
4.49755e-09
1.49026e-16
0.0168001
1.77013e-08
-9.44238e-17
0.0168001
4.31926e-08
-4.21816e-16
0.0168001
1.23836e-07
-1.19767e-15
0.0168001
2.74089e-07
-2.453e-15
0.0168001
7.33676e-07
-6.85015e-15
0.0168002
1.58845e-06
-1.35178e-14
0.0167999
4.28643e-06
-3.58822e-14
0.0168016
8.37265e-06
-6.96473e-14
0.0167964
2.84188e-05
-2.16585e-13
0.016806
5.00038e-05
-4.75211e-13
0.0167617
0.000208194
-1.23848e-12
0.0167735
0.000533995
-4.55551e-12
0.0166174
0.00217542
-1.0572e-11
0.015812
0.0099327
-2.68803e-11
0.0147407
0.0110607
-2.93235e-13
0.013771
0.0109241
7.4483e-13
0.012728
0.0114826
2.15526e-13
0.0116058
0.0123674
2.35195e-13
0.0103464
0.0138148
5.68563e-13
0.00884688
0.0155365
1.26274e-12
0.00701275
0.0174975
1.87385e-12
0.00438175
0.0200444
1.75226e-12
0.0238054
1.92824e-12
0.0168001
1.51204e-16
1.44075e-09
0.0168001
1.70565e-16
1.1124e-09
0.0168001
-7.95355e-17
1.90093e-08
0.0168001
-3.11014e-16
1.47256e-08
0.0168001
-9.16013e-16
1.29691e-07
0.0168003
-1.86403e-15
9.22918e-08
0.0168001
-5.67464e-15
8.04527e-07
0.0168013
-1.11313e-14
4.13012e-07
0.0167996
-3.25383e-14
5.68972e-06
0.0168068
-5.79622e-14
1.00743e-06
0.0167892
-2.13372e-13
4.44068e-05
0.0168332
-3.81243e-13
4.66196e-06
0.0167029
-1.45957e-12
0.000330788
0.0169515
-4.04629e-12
0.000276381
0.0167415
-1.04137e-11
0.0023541
0.0164409
-2.86306e-11
0.0101089
0.0152968
1.82441e-12
0.0122074
0.0142538
1.52538e-12
0.0119699
0.0133418
8.44124e-15
0.0123939
0.0123362
1.45201e-13
0.0133699
0.0113178
7.27833e-13
0.014832
0.0101818
1.04813e-12
0.0166724
0.00852313
1.92535e-12
0.019155
0.00600615
1.99038e-12
0.0225502
1.75954e-12
0.0298102
0.0168001
1.23869e-10
-5.81065e-19
0.0168001
6.61599e-10
-3.10099e-18
0.0168001
2.49166e-09
-7.29821e-17
0.0168
6.37127e-09
-1.80332e-16
0.0168
1.79644e-08
-8.77204e-16
0.0167999
4.13499e-08
-1.86441e-15
0.0167997
1.11434e-07
-7.74664e-15
0.0167994
2.49026e-07
-1.49844e-14
0.0167979
7.14584e-07
-6.61284e-14
0.0167961
1.3756e-06
-7.25249e-14
0.0167857
5.25993e-06
-6.27193e-13
0.0167711
1.04226e-05
-8.36388e-13
0.016701
4.78783e-05
-5.42423e-12
0.0165249
0.000134245
-1.48969e-11
0.0155252
0.000779393
-5.8097e-11
0.0142382
0.00134903
-2.3377e-12
0.0130676
0.0012114
2.77741e-13
0.0118495
0.00123627
-1.25998e-12
0.0105556
0.00131014
-1.68024e-12
0.00912655
0.00143108
-1.57938e-12
0.0075746
0.00156279
-1.44911e-12
0.00588578
0.00169881
-3.56383e-13
0.00404676
0.00182933
-2.56811e-12
0.00208413
0.00195593
8.182e-13
0.00209203
3.26741e-13
0.0168001
2.34383e-10
-2.21245e-18
0.0168001
1.26017e-09
-8.78881e-18
0.0168001
4.74101e-09
-8.3415e-17
0.0168
1.2103e-08
-1.93164e-16
0.0168
3.4075e-08
-9.18258e-16
0.0168
7.80039e-08
-1.92348e-15
0.0167997
2.10487e-07
-7.68305e-15
0.0167994
4.63606e-07
-1.48441e-14
0.0167981
1.35112e-06
-6.45935e-14
0.0167965
2.5121e-06
-7.3301e-14
0.0167867
1.01155e-05
-6.04921e-13
0.0167747
1.85105e-05
-8.18e-13
0.0167101
9.10527e-05
-5.20028e-12
0.0165536
0.000249103
-1.42691e-11
0.0157305
0.00139298
-5.55595e-11
0.0144532
0.00267973
-3.66933e-12
0.0132346
0.00246652
-4.38501e-13
0.01199
0.00249714
-1.639e-12
0.0106757
0.00263965
-1.92693e-12
0.00921689
0.00289185
-1.52773e-12
0.00762388
0.00316599
-1.45705e-12
0.00589345
0.00343792
-2.99835e-13
0.00401577
0.00369613
-2.01412e-12
0.00202942
0.00393525
5.74442e-13
0.00412894
2.79884e-13
0.0168001
3.33144e-10
-3.99461e-18
0.0168001
1.81076e-09
-1.56066e-17
0.0168001
6.75515e-09
-9.56876e-17
0.0168
1.73142e-08
-2.08721e-16
0.0168
4.79621e-08
-9.45884e-16
0.0168
1.09766e-07
-1.93698e-15
0.0167998
2.90039e-07
-7.20063e-15
0.0167995
6.416e-07
-1.41883e-14
0.0167985
1.76958e-06
-5.56254e-14
0.0167966
3.7073e-06
-9.71325e-14
0.0167899
1.26458e-05
-4.97907e-13
0.01678
2.43438e-05
-7.64649e-13
0.0167412
0.000111839
-4.53026e-12
0.0166358
0.000307982
-1.25264e-11
0.0162417
0.00161847
-4.89429e-11
0.0149164
0.00403025
-1.03034e-11
0.0135466
0.00385963
-2.08874e-12
0.0122359
0.00381893
-2.34967e-12
0.0108857
0.00400229
-2.40955e-12
0.00940225
0.00437572
-1.66252e-12
0.00777713
0.00479954
-1.51918e-12
0.00600701
0.00521563
-2.54997e-13
0.00408485
0.00560682
-1.81612e-12
0.00206218
0.00594989
6.29204e-13
0.00619789
3.76092e-13
0.0168001
4.45808e-10
-5.35748e-18
0.0168001
2.41909e-09
-2.10284e-17
0.0168001
9.02397e-09
-1.07068e-16
0.0168
2.30983e-08
-2.32897e-16
0.0168
6.39774e-08
-9.21961e-16
0.0168
1.46212e-07
-1.87072e-15
0.0167998
3.8503e-07
-6.38226e-15
0.0167995
8.56045e-07
-1.27189e-14
0.0167985
2.29036e-06
-4.57217e-14
0.0167966
5.03582e-06
-8.58246e-14
0.0167917
1.46317e-05
-3.6476e-13
0.0167783
3.40909e-05
-6.72239e-13
0.0167549
0.000121786
-3.12528e-12
0.0166953
0.000336627
-8.97582e-12
0.0165723
0.00165099
-2.90637e-11
0.0152814
0.00524767
-2.61645e-11
0.0138234
0.00531397
-7.33132e-12
0.0124758
0.0051758
-3.24868e-12
0.0111295
0.00536282
-3.02855e-12
0.00964704
0.00585641
-1.96225e-12
0.00800964
0.00644261
-1.7604e-12
0.0062152
0.00701646
-5.14638e-13
0.00424877
0.00756212
-1.94323e-12
0.00214987
0.00804085
1.96222e-12
0.00835302
6.31089e-13
0.0168001
5.58501e-10
-6.83979e-18
0.0168001
3.04885e-09
-2.80766e-17
0.0168001
1.13503e-08
-1.25479e-16
0.0168
2.91381e-08
-2.69896e-16
0.0168
8.01726e-08
-9.36941e-16
0.0168
1.83427e-07
-1.87363e-15
0.0167998
4.782e-07
-6.04404e-15
0.0167995
1.06408e-06
-1.21478e-14
0.0167986
2.80398e-06
-4.10023e-14
0.0167971
6.16984e-06
-8.15397e-14
0.0167919
1.74786e-05
-2.94962e-13
0.0167827
4.04472e-05
-6.45074e-13
0.0167532
0.000139476
-2.44864e-12
0.0167069
0.00037385
-6.85771e-12
0.0164863
0.00178016
-2.33192e-11
0.0153839
0.00624473
-3.46012e-11
0.0139643
0.0067153
-1.28485e-11
0.0126558
0.00648981
-4.02374e-12
0.0113669
0.00666242
-3.48848e-12
0.00991668
0.00730381
-2.11565e-12
0.00829398
0.00807205
-1.79671e-12