/*--------------------------------*- C++ -*----------------------------------*\
| =========                 |                                                 |
| \\      /  F ield         | OpenFOAM: The Open Source CFD Toolbox           |
|  \\    /   O peration     | Version:  4.1                                   |
|   \\  /    A nd           | Web:      www.OpenFOAM.org                      |
|    \\/     M anipulation  |                                                 |
\*---------------------------------------------------------------------------*/
FoamFile
{
    version     2.0;
    format      ascii;
    class       volScalarField;
    location    "1.9";
    object      T;
}
// * * * * * * * * * * * * * * * * * * * * * * * * * * * * * * * * * * * * * //

dimensions      [0 0 0 1 0 0 0];

internalField   nonuniform List<scalar> 
52500
(
0.999995
1.00001
1.00003
1.00012
1.00022
1.00071
1.0013
1.00406
1.00783
1.02205
1.05193
1.12482
1.35897
2.00392
2.61873
2.74434
2.73625
2.72523
2.73869
2.75323
2.76857
2.77444
2.78691
2.81243
2.82686
0.999995
1.00001
1.00003
1.00011
1.00021
1.0007
1.00128
1.00401
1.00772
1.02179
1.05096
1.12319
1.35169
1.98843
2.61098
2.74297
2.73465
2.72318
2.73688
2.75138
2.76658
2.77251
2.78532
2.80983
2.82373
0.999995
1.00001
1.00003
1.00011
1.00021
1.00069
1.00125
1.00391
1.00751
1.02134
1.04899
1.12043
1.33646
1.95895
2.59009
2.73798
2.7297
2.71854
2.73296
2.74779
2.76383
2.76982
2.78244
2.80723
2.8196
0.999995
1.00001
1.00003
1.00011
1.0002
1.00066
1.00121
1.00379
1.00724
1.02076
1.04671
1.11731
1.31788
1.93087
2.5503
2.73326
2.72665
2.71396
2.72809
2.74067
2.75727
2.76341
2.7755
2.80003
2.81448
0.999995
1.00001
1.00003
1.0001
1.00019
1.00063
1.00116
1.00362
1.00691
1.01983
1.04449
1.11162
1.30206
1.88018
2.533
2.72955
2.7203
2.70911
2.72279
2.73577
2.75045
2.75562
2.76689
2.79113
2.80318
0.999995
1.00001
1.00002
1.0001
1.00018
1.0006
1.00109
1.00342
1.00651
1.01874
1.04195
1.10493
1.28494
1.82016
2.51729
2.7225
2.71416
2.70357
2.71419
2.72391
2.74011
2.74691
2.75778
2.78194
2.79314
0.999995
1.00001
1.00002
1.00009
1.00017
1.00055
1.00101
1.00317
1.00602
1.01727
1.03919
1.09592
1.26879
1.73974
2.48436
2.71371
2.6989
2.69931
2.70875
2.71428
2.72633
2.72989
2.73754
2.76056
2.77051
0.999994
1.00001
1.00002
1.00008
1.00015
1.00049
1.0009
1.00272
1.00552
1.01465
1.03725
1.08516
1.25432
1.64346
2.43781
2.69641
2.69557
2.69284
2.69655
2.70423
2.71559
2.71703
2.71897
2.73451
2.74541
0.999994
1
1.00002
1.00007
1.00013
1.00043
1.0008
1.00235
1.00496
1.0127
1.03393
1.07586
1.23558
1.56276
2.35693
2.66766
2.69248
2.68849
2.68436
2.68832
2.69364
2.69334
2.69315
2.6985
2.68723
0.999994
1
1.00001
1.00006
1.00011
1.00036
1.00069
1.00193
1.0044
1.01069
1.02991
1.06491
1.20851
1.48037
2.23386
2.60876
2.68316
2.68058
2.67436
2.67737
2.6765
2.67043
2.65213
2.64428
2.60721
1
1.00002
1.00004
1.00012
1.00023
1.00072
1.00131
1.00407
1.00784
1.02207
1.05195
1.12486
1.35906
2.00415
2.61888
2.74442
2.73634
2.72531
2.73877
2.7533
2.76864
2.77452
2.78697
2.8125
2.82695
1
1.00002
1.00004
1.00012
1.00022
1.00071
1.00129
1.00402
1.00773
1.02181
1.05098
1.12323
1.35178
1.98865
2.61113
2.74305
2.73473
2.72326
2.73697
2.75145
2.76666
2.77258
2.78538
2.80989
2.82382
1
1.00002
1.00004
1.00012
1.00022
1.00069
1.00126
1.00392
1.00752
1.02136
1.049
1.12047
1.33655
1.95912
2.59028
2.73807
2.72978
2.71861
2.73304
2.74786
2.76391
2.7699
2.7825
2.80729
2.81968
1
1.00002
1.00004
1.00012
1.00021
1.00067
1.00122
1.0038
1.00725
1.02077
1.04673
1.11735
1.31793
1.93101
2.55044
2.73332
2.72672
2.71404
2.72818
2.74074
2.75735
2.76349
2.77556
2.80009
2.81457
1
1.00002
1.00003
1.00011
1.0002
1.00064
1.00117
1.00363
1.00692
1.01985
1.0445
1.11166
1.3021
1.88033
2.53307
2.72963
2.72039
2.70918
2.72287
2.73583
2.75052
2.75569
2.76694
2.79118
2.80327
1
1.00002
1.00003
1.0001
1.00019
1.00061
1.0011
1.00343
1.00652
1.01876
1.04196
1.10496
1.28496
1.82029
2.51736
2.72258
2.71424
2.70365
2.71427
2.72398
2.74018
2.74699
2.75783
2.78199
2.79322
1
1.00002
1.00003
1.0001
1.00017
1.00056
1.00101
1.00318
1.00603
1.01729
1.0392
1.09596
1.2688
1.73989
2.48442
2.71378
2.69897
2.69938
2.70882
2.71435
2.72639
2.72996
2.7376
2.76062
2.77059
1
1.00001
1.00003
1.00009
1.00016
1.0005
1.00091
1.00274
1.00552
1.01467
1.03725
1.08519
1.25431
1.64355
2.43791
2.69649
2.69564
2.6929
2.69661
2.7043
2.71566
2.7171
2.71903
2.73455
2.74548
1
1.00001
1.00002
1.00008
1.00014
1.00043
1.0008
1.00236
1.00497
1.01271
1.03395
1.07589
1.2356
1.56286
2.35703
2.66775
2.69255
2.68855
2.68442
2.68838
2.6937
2.6934
2.69321
2.69854
2.68729
1
1.00001
1.00002
1.00006
1.00012
1.00037
1.0007
1.00194
1.00441
1.0107
1.02993
1.06494
1.20854
1.48048
2.23397
2.60885
2.68322
2.68064
2.67443
2.67743
2.67655
2.67049
2.65219
2.64432
2.60726
1
1.00002
1.00004
1.00012
1.00023
1.00072
1.00131
1.00407
1.00784
1.02207
1.05195
1.12486
1.35906
2.00416
2.61888
2.74442
2.73634
2.72531
2.73877
2.7533
2.76864
2.77452
2.78697
2.8125
2.82695
1
1.00002
1.00004
1.00012
1.00022
1.00071
1.00129
1.00402
1.00773
1.02181
1.05098
1.12323
1.35178
1.98866
2.61114
2.74305
2.73473
2.72326
2.73697
2.75145
2.76666
2.77258
2.78538
2.80989
2.82382
1
1.00002
1.00004
1.00012
1.00022
1.00069
1.00126
1.00392
1.00752
1.02136
1.049
1.12047
1.33655
1.95913
2.59028
2.73807
2.72978
2.71861
2.73304
2.74786
2.76391
2.7699
2.7825
2.80729
2.81969
1
1.00002
1.00004
1.00012
1.00021
1.00067
1.00122
1.0038
1.00725
1.02077
1.04673
1.11735
1.31793
1.93101
2.55045
2.73332
2.72672
2.71404
2.72818
2.74074
2.75735
2.76349
2.77556
2.80009
2.81457
1
1.00002
1.00003
1.00011
1.0002
1.00064
1.00117
1.00363
1.00692
1.01985
1.0445
1.11166
1.3021
1.88034
2.53307
2.72963
2.72039
2.70918
2.72287
2.73583
2.75052
2.75569
2.76694
2.79117
2.80327
1
1.00002
1.00003
1.0001
1.00019
1.00061
1.0011
1.00343
1.00652
1.01876
1.04196
1.10496
1.28497
1.82029
2.51736
2.72258
2.71424
2.70365
2.71428
2.72398
2.74018
2.74699
2.75783
2.78199
2.79322
1
1.00002
1.00003
1.0001
1.00017
1.00056
1.00101
1.00318
1.00603
1.01729
1.0392
1.09596
1.2688
1.7399
2.48442
2.71378
2.69897
2.69938
2.70882
2.71435
2.72639
2.72996
2.7376
2.76061
2.77059
1
1.00001
1.00003
1.00009
1.00016
1.0005
1.00091
1.00274
1.00552
1.01467
1.03725
1.08519
1.25431
1.64355
2.43791
2.69649
2.69564
2.6929
2.69661
2.7043
2.71566
2.71711
2.71903
2.73455
2.74548
1
1.00001
1.00002
1.00008
1.00014
1.00043
1.0008
1.00236
1.00497
1.01271
1.03395
1.07589
1.2356
1.56286
2.35703
2.66776
2.69255
2.68855
2.68442
2.68838
2.6937
2.6934
2.69321
2.69854
2.6873
1
1.00001
1.00002
1.00006
1.00012
1.00037
1.0007
1.00194
1.00441
1.0107
1.02993
1.06494
1.20854
1.48049
2.23397
2.60885
2.68322
2.68064
2.67443
2.67743
2.67655
2.67049
2.65219
2.64432
2.60726
1
1.00002
1.00004
1.00012
1.00023
1.00072
1.00131
1.00407
1.00784
1.02207
1.05195
1.12486
1.35906
2.00416
2.61888
2.74442
2.73634
2.72531
2.73877
2.7533
2.76864
2.77452
2.78697
2.81249
2.82695
1
1.00002
1.00004
1.00012
1.00022
1.00071
1.00129
1.00402
1.00773
1.02181
1.05098
1.12323
1.35178
1.98866
2.61114
2.74305
2.73473
2.72326
2.73697
2.75145
2.76666
2.77258
2.78538
2.80989
2.82382
1
1.00002
1.00004
1.00012
1.00022
1.00069
1.00126
1.00392
1.00752
1.02136
1.049
1.12047
1.33655
1.95913
2.59028
2.73807
2.72978
2.71861
2.73304
2.74786
2.76391
2.7699
2.7825
2.80728
2.81969
1
1.00002
1.00004
1.00012
1.00021
1.00067
1.00122
1.0038
1.00725
1.02077
1.04673
1.11735
1.31793
1.93101
2.55045
2.73332
2.72672
2.71404
2.72818
2.74074
2.75735
2.76349
2.77556
2.80009
2.81457
1
1.00002
1.00003
1.00011
1.0002
1.00064
1.00117
1.00363
1.00692
1.01985
1.0445
1.11166
1.3021
1.88034
2.53307
2.72963
2.72039
2.70918
2.72287
2.73583
2.75052
2.75569
2.76694
2.79117
2.80327
1
1.00002
1.00003
1.0001
1.00019
1.00061
1.0011
1.00343
1.00652
1.01876
1.04196
1.10496
1.28497
1.82029
2.51736
2.72258
2.71424
2.70365
2.71428
2.72398
2.74018
2.74699
2.75783
2.78199
2.79322
1
1.00002
1.00003
1.0001
1.00017
1.00056
1.00101
1.00318
1.00603
1.01729
1.0392
1.09596
1.2688
1.7399
2.48442
2.71378
2.69897
2.69938
2.70882
2.71435
2.72639
2.72996
2.7376
2.76061
2.77059
1
1.00001
1.00003
1.00009
1.00016
1.0005
1.00091
1.00274
1.00552
1.01467
1.03725
1.08519
1.25431
1.64355
2.43791
2.69649
2.69564
2.6929
2.69661
2.7043
2.71566
2.7171
2.71903
2.73455
2.74549
1
1.00001
1.00002
1.00008
1.00014
1.00043
1.0008
1.00236
1.00497
1.01271
1.03395
1.07589
1.2356
1.56286
2.35703
2.66776
2.69255
2.68855
2.68442
2.68838
2.6937
2.6934
2.69321
2.69854
2.6873
1
1.00001
1.00002
1.00006
1.00012
1.00037
1.0007
1.00194
1.00441
1.0107
1.02993
1.06494
1.20854
1.48049
2.23397
2.60885
2.68322
2.68064
2.67443
2.67743
2.67655
2.67049
2.65219
2.64431
2.60726
1
1.00002
1.00004
1.00012
1.00023
1.00072
1.00131
1.00407
1.00784
1.02207
1.05195
1.12486
1.35906
2.00416
2.61888
2.74442
2.73634
2.72531
2.73877
2.7533
2.76864
2.77452
2.78697
2.81249
2.82695
1
1.00002
1.00004
1.00012
1.00022
1.00071
1.00129
1.00402
1.00773
1.02181
1.05098
1.12323
1.35178
1.98866
2.61114
2.74305
2.73473
2.72326
2.73697
2.75145
2.76666
2.77258
2.78538
2.80989
2.82382
1
1.00002
1.00004
1.00012
1.00022
1.00069
1.00126
1.00392
1.00752
1.02136
1.049
1.12047
1.33655
1.95913
2.59028
2.73807
2.72978
2.71861
2.73304
2.74786
2.76391
2.7699
2.7825
2.80728
2.81969
1
1.00002
1.00004
1.00012
1.00021
1.00067
1.00122
1.0038
1.00725
1.02077
1.04673
1.11735
1.31793
1.93102
2.55045
2.73332
2.72672
2.71404
2.72818
2.74074
2.75735
2.76349
2.77556
2.80009
2.81457
1
1.00002
1.00003
1.00011
1.0002
1.00064
1.00117
1.00363
1.00692
1.01985
1.0445
1.11166
1.3021
1.88034
2.53307
2.72963
2.72039
2.70918
2.72287
2.73583
2.75052
2.75569
2.76694
2.79117
2.80327
1
1.00002
1.00003
1.0001
1.00019
1.00061
1.0011
1.00343
1.00652
1.01876
1.04196
1.10496
1.28497
1.82029
2.51736
2.72258
2.71424
2.70365
2.71428
2.72398
2.74018
2.74699
2.75783
2.78199
2.79322
1
1.00002
1.00003
1.0001
1.00017
1.00056
1.00101
1.00318
1.00603
1.01729
1.0392
1.09596
1.2688
1.7399
2.48442
2.71378
2.69897
2.69938
2.70882
2.71435
2.72639
2.72996
2.7376
2.76061
2.77059
1
1.00001
1.00003
1.00009
1.00016
1.0005
1.00091
1.00274
1.00552
1.01467
1.03725
1.08519
1.25431
1.64355
2.43791
2.69649
2.69564
2.6929
2.69661
2.7043
2.71566
2.7171
2.71903
2.73455
2.74548
1
1.00001
1.00002
1.00008
1.00014
1.00043
1.0008
1.00236
1.00497
1.01271
1.03395
1.07589
1.2356
1.56286
2.35704
2.66776
2.69255
2.68855
2.68442
2.68838
2.6937
2.6934
2.69321
2.69854
2.6873
1
1.00001
1.00002
1.00006
1.00012
1.00037
1.0007
1.00194
1.00441
1.0107
1.02993
1.06494
1.20854
1.48049
2.23397
2.60885
2.68322
2.68064
2.67443
2.67743
2.67655
2.67049
2.65219
2.64431
2.60726
1
1.00002
1.00004
1.00012
1.00023
1.00072
1.00131
1.00407
1.00784
1.02207
1.05195
1.12486
1.35906
2.00416
2.61888
2.74442
2.73634
2.72531
2.73877
2.7533
2.76864
2.77452
2.78697
2.81249
2.82695
1
1.00002
1.00004
1.00012
1.00022
1.00071
1.00129
1.00402
1.00773
1.02181
1.05098
1.12323
1.35178
1.98866
2.61114
2.74305
2.73473
2.72326
2.73697
2.75145
2.76666
2.77258
2.78538
2.80989
2.82382
1
1.00002
1.00004
1.00012
1.00022
1.00069
1.00126
1.00392
1.00752
1.02136
1.049
1.12047
1.33655
1.95913
2.59028
2.73807
2.72978
2.71861
2.73304
2.74786
2.76391
2.7699
2.7825
2.80728
2.81969
1
1.00002
1.00004
1.00012
1.00021
1.00067
1.00122
1.0038
1.00725
1.02077
1.04673
1.11735
1.31793
1.93101
2.55045
2.73332
2.72672
2.71404
2.72818
2.74074
2.75735
2.76349
2.77556
2.80009
2.81457
1
1.00002
1.00003
1.00011
1.0002
1.00064
1.00117
1.00363
1.00692
1.01985
1.0445
1.11166
1.3021
1.88034
2.53307
2.72963
2.72039
2.70918
2.72287
2.73583
2.75052
2.75569
2.76694
2.79117
2.80327
1
1.00002
1.00003
1.0001
1.00019
1.00061
1.0011
1.00343
1.00652
1.01876
1.04196
1.10496
1.28497
1.82029
2.51736
2.72258
2.71424
2.70365
2.71428
2.72398
2.74018
2.74699
2.75783
2.78199
2.79322
1
1.00002
1.00003
1.0001
1.00017
1.00056
1.00101
1.00318
1.00603
1.01729
1.0392
1.09596
1.2688
1.7399
2.48442
2.71378
2.69897
2.69938
2.70882
2.71435
2.72639
2.72996
2.7376
2.76061
2.77059
1
1.00001
1.00003
1.00009
1.00016
1.0005
1.00091
1.00274
1.00552
1.01467
1.03725
1.08519
1.25431
1.64355
2.43791
2.69649
2.69564
2.6929
2.69661
2.7043
2.71566
2.7171
2.71903
2.73455
2.74549
1
1.00001
1.00002
1.00008
1.00014
1.00043
1.0008
1.00236
1.00497
1.01271
1.03395
1.07589
1.2356
1.56286
2.35704
2.66776
2.69255
2.68855
2.68442
2.68838
2.6937
2.6934
2.69321
2.69854
2.6873
1
1.00001
1.00002
1.00006
1.00012
1.00037
1.0007
1.00194
1.00441
1.0107
1.02993
1.06494
1.20854
1.48049
2.23397
2.60885
2.68322
2.68064
2.67443
2.67743
2.67655
2.67049
2.65219
2.64431
2.60726
1
1.00002
1.00004
1.00012
1.00023
1.00072
1.00131
1.00407
1.00784
1.02207
1.05195
1.12486
1.35906
2.00416
2.61888
2.74442
2.73634
2.72531
2.73877
2.7533
2.76864
2.77452
2.78697
2.81249
2.82695
1
1.00002
1.00004
1.00012
1.00022
1.00071
1.00129
1.00402
1.00773
1.02181
1.05098
1.12323
1.35178
1.98866
2.61114
2.74305
2.73473
2.72326
2.73697
2.75145
2.76666
2.77258
2.78538
2.80989
2.82382
1
1.00002
1.00004
1.00012
1.00022
1.00069
1.00126
1.00392
1.00752
1.02136
1.049
1.12047
1.33655
1.95913
2.59028
2.73807
2.72978
2.71861
2.73304
2.74786
2.76391
2.7699
2.7825
2.80728
2.81969
1
1.00002
1.00004
1.00012
1.00021
1.00067
1.00122
1.0038
1.00725
1.02077
1.04673
1.11735
1.31793
1.93101
2.55045
2.73332
2.72672
2.71404
2.72818
2.74074
2.75735
2.76349
2.77556
2.80009
2.81457
1
1.00002
1.00003
1.00011
1.0002
1.00064
1.00117
1.00363
1.00692
1.01985
1.0445
1.11166
1.3021
1.88034
2.53307
2.72963
2.72039
2.70918
2.72287
2.73583
2.75052
2.75569
2.76694
2.79117
2.80327
1
1.00002
1.00003
1.0001
1.00019
1.00061
1.0011
1.00343
1.00652
1.01876
1.04196
1.10496
1.28497
1.82029
2.51736
2.72258
2.71424
2.70365
2.71428
2.72398
2.74018
2.74699
2.75783
2.78199
2.79322
1
1.00002
1.00003
1.0001
1.00017
1.00056
1.00101
1.00318
1.00603
1.01729
1.0392
1.09596
1.2688
1.7399
2.48442
2.71378
2.69897
2.69938
2.70882
2.71435
2.72639
2.72996
2.7376
2.76061
2.77059
1
1.00001
1.00003
1.00009
1.00016
1.0005
1.00091
1.00274
1.00552
1.01467
1.03725
1.08519
1.25431
1.64355
2.43791
2.69649
2.69564
2.6929
2.69661
2.7043
2.71566
2.7171
2.71903
2.73455
2.74549
1
1.00001
1.00002
1.00008
1.00014
1.00043
1.0008
1.00236
1.00497
1.01271
1.03395
1.07589
1.2356
1.56286
2.35703
2.66776
2.69255
2.68855
2.68442
2.68838
2.6937
2.6934
2.69321
2.69854
2.6873
1
1.00001
1.00002
1.00006
1.00012
1.00037
1.0007
1.00194
1.00441
1.0107
1.02993
1.06494
1.20854
1.48049
2.23397
2.60885
2.68322
2.68064
2.67443
2.67743
2.67655
2.67049
2.65219
2.64431
2.60726
1
1.00002
1.00004
1.00012
1.00023
1.00072
1.00131
1.00407
1.00784
1.02207
1.05195
1.12486
1.35906
2.00416
2.61888
2.74442
2.73634
2.72531
2.73877
2.7533
2.76864
2.77452
2.78697
2.8125
2.82695
1
1.00002
1.00004
1.00012
1.00022
1.00071
1.00129
1.00402
1.00773
1.02181
1.05098
1.12323
1.35178
1.98866
2.61114
2.74305
2.73473
2.72326
2.73697
2.75145
2.76666
2.77258
2.78538
2.80989
2.82382
1
1.00002
1.00004
1.00012
1.00022
1.00069
1.00126
1.00392
1.00752
1.02136
1.049
1.12047
1.33655
1.95913
2.59028
2.73807
2.72978
2.71861
2.73304
2.74786
2.76391
2.7699
2.7825
2.80729
2.81969
1
1.00002
1.00004
1.00012
1.00021
1.00067
1.00122
1.0038
1.00725
1.02077
1.04673
1.11735
1.31793
1.93101
2.55045
2.73332
2.72672
2.71404
2.72818
2.74074
2.75735
2.76349
2.77556
2.80009
2.81457
1
1.00002
1.00003
1.00011
1.0002
1.00064
1.00117
1.00363
1.00692
1.01985
1.0445
1.11166
1.3021
1.88034
2.53307
2.72963
2.72039
2.70918
2.72287
2.73583
2.75052
2.75569
2.76694
2.79117
2.80327
1
1.00002
1.00003
1.0001
1.00019
1.00061
1.0011
1.00343
1.00652
1.01876
1.04196
1.10496
1.28497
1.82029
2.51736
2.72258
2.71424
2.70365
2.71428
2.72398
2.74018
2.74699
2.75783
2.78199
2.79322
1
1.00002
1.00003
1.0001
1.00017
1.00056
1.00101
1.00318
1.00603
1.01729
1.0392
1.09596
1.2688
1.7399
2.48442
2.71378
2.69897
2.69938
2.70882
2.71435
2.72639
2.72996
2.7376
2.76061
2.77059
1
1.00001
1.00003
1.00009
1.00016
1.0005
1.00091
1.00274
1.00552
1.01467
1.03725
1.08519
1.25431
1.64355
2.43791
2.69649
2.69564
2.6929
2.69661
2.7043
2.71566
2.71711
2.71903
2.73455
2.74548
1
1.00001
1.00002
1.00008
1.00014
1.00043
1.0008
1.00236
1.00497
1.01271
1.03395
1.07589
1.2356
1.56286
2.35703
2.66776
2.69255
2.68855
2.68442
2.68838
2.6937
2.6934
2.69321
2.69854
2.6873
1
1.00001
1.00002
1.00006
1.00012
1.00037
1.0007
1.00194
1.00441
1.0107
1.02993
1.06494
1.20854
1.48049
2.23397
2.60885
2.68322
2.68064
2.67443
2.67743
2.67655
2.67049
2.65219
2.64432
2.60726
1
1.00002
1.00004
1.00012
1.00023
1.00072
1.00131
1.00407
1.00784
1.02207
1.05195
1.12486
1.35906
2.00415
2.61888
2.74442
2.73634
2.72531
2.73877
2.7533
2.76864
2.77452
2.78697
2.8125
2.82695
1
1.00002
1.00004
1.00012
1.00022
1.00071
1.00129
1.00402
1.00773
1.02181
1.05098
1.12323
1.35178
1.98865
2.61113
2.74305
2.73473
2.72326
2.73697
2.75145
2.76666
2.77258
2.78538
2.80989
2.82382
1
1.00002
1.00004
1.00012
1.00022
1.00069
1.00126
1.00392
1.00752
1.02136
1.049
1.12047
1.33655
1.95912
2.59028
2.73807
2.72978
2.71861
2.73304
2.74786
2.76391
2.7699
2.7825
2.80729
2.81968
1
1.00002
1.00004
1.00012
1.00021
1.00067
1.00122
1.0038
1.00725
1.02077
1.04673
1.11735
1.31793
1.93101
2.55044
2.73332
2.72672
2.71404
2.72818
2.74074
2.75735
2.76349
2.77556
2.80009
2.81457
1
1.00002
1.00003
1.00011
1.0002
1.00064
1.00117
1.00363
1.00692
1.01985
1.0445
1.11166
1.3021
1.88033
2.53307
2.72963
2.72039
2.70918
2.72287
2.73583
2.75052
2.75569
2.76694
2.79118
2.80327
1
1.00002
1.00003
1.0001
1.00019
1.00061
1.0011
1.00343
1.00652
1.01876
1.04196
1.10496
1.28496
1.82029
2.51736
2.72258
2.71424
2.70365
2.71427
2.72398
2.74018
2.74699
2.75783
2.78199
2.79322
1
1.00002
1.00003
1.0001
1.00017
1.00056
1.00101
1.00318
1.00603
1.01729
1.0392
1.09596
1.2688
1.73989
2.48442
2.71378
2.69897
2.69938
2.70882
2.71435
2.72639
2.72996
2.7376
2.76062
2.77059
1
1.00001
1.00003
1.00009
1.00016
1.0005
1.00091
1.00274
1.00552
1.01467
1.03725
1.08519
1.25431
1.64355
2.43791
2.69649
2.69564
2.6929
2.69661
2.7043
2.71566
2.7171
2.71903
2.73455
2.74548
1
1.00001
1.00002
1.00008
1.00014
1.00043
1.0008
1.00236
1.00497
1.01271
1.03395
1.07589
1.2356
1.56286
2.35703
2.66775
2.69255
2.68855
2.68442
2.68838
2.6937
2.6934
2.69321
2.69854
2.68729
1
1.00001
1.00002
1.00006
1.00012
1.00037
1.0007
1.00194
1.00441
1.0107
1.02993
1.06494
1.20854
1.48048
2.23397
2.60885
2.68322
2.68064
2.67443
2.67743
2.67655
2.67049
2.65219
2.64432
2.60726
0.999995
1.00001
1.00003
1.00012
1.00022
1.00071
1.0013
1.00406
1.00783
1.02205
1.05193
1.12482
1.35897
2.00392
2.61873
2.74434
2.73625
2.72523
2.73869
2.75323
2.76857
2.77444
2.78691
2.81243
2.82686
0.999995
1.00001
1.00003
1.00011
1.00021
1.0007
1.00128
1.00401
1.00772
1.02179
1.05096
1.12319
1.35169
1.98843
2.61098
2.74297
2.73465
2.72318
2.73688
2.75138
2.76658
2.77251
2.78532
2.80983
2.82373
0.999995
1.00001
1.00003
1.00011
1.00021
1.00069
1.00125
1.00391
1.00751
1.02134
1.04899
1.12043
1.33646
1.95895
2.59009
2.73798
2.7297
2.71854
2.73296
2.74779
2.76383
2.76982
2.78244
2.80722
2.8196
0.999995
1.00001
1.00003
1.00011
1.0002
1.00066
1.00121
1.00379
1.00724
1.02076
1.04671
1.11731
1.31788
1.93087
2.5503
2.73326
2.72665
2.71396
2.72809
2.74067
2.75727
2.76341
2.7755
2.80003
2.81448
0.999995
1.00001
1.00003
1.0001
1.00019
1.00063
1.00116
1.00362
1.00691
1.01983
1.04449
1.11162
1.30206
1.88018
2.533
2.72955
2.7203
2.70911
2.72279
2.73577
2.75045
2.75562
2.76689
2.79113
2.80319
0.999995
1.00001
1.00002
1.0001
1.00018
1.0006
1.00109
1.00342
1.00651
1.01874
1.04195
1.10493
1.28494
1.82016
2.51729
2.7225
2.71416
2.70357
2.71419
2.72391
2.74011
2.74691
2.75778
2.78194
2.79314
0.999995
1.00001
1.00002
1.00009
1.00017
1.00055
1.00101
1.00317
1.00602
1.01727
1.03919
1.09592
1.26879
1.73974
2.48436
2.71371
2.6989
2.69931
2.70875
2.71428
2.72633
2.72989
2.73754
2.76056
2.77052
0.999994
1.00001
1.00002
1.00008
1.00015
1.00049
1.0009
1.00272
1.00552
1.01465
1.03725
1.08516
1.25432
1.64346
2.43781
2.69641
2.69557
2.69284
2.69655
2.70423
2.71559
2.71703
2.71897
2.7345
2.74541
0.999994
1
1.00002
1.00007
1.00013
1.00043
1.0008
1.00235
1.00496
1.0127
1.03393
1.07586
1.23558
1.56276
2.35693
2.66766
2.69248
2.68849
2.68436
2.68832
2.69364
2.69334
2.69315
2.6985
2.68723
0.999994
1
1.00001
1.00006
1.00011
1.00036
1.00069
1.00193
1.0044
1.01069
1.02991
1.06491
1.20851
1.48037
2.23386
2.60876
2.68316
2.68058
2.67436
2.67737
2.6765
2.67043
2.65213
2.64428
2.60721
0.999995
0.999999
1.00002
1.00004
1.00013
1.00025
1.00079
1.00155
1.00431
1.00981
1.02409
1.06789
1.14776
1.46383
2.19096
2.53506
2.65644
2.65565
2.65156
2.65393
2.65226
2.64225
2.61303
2.56156
2.38674
0.999995
0.999998
1.00001
1.00003
1.00012
1.00022
1.00073
1.00133
1.00416
1.00802
1.02256
1.05312
1.12792
1.36378
2.0157
2.48453
2.64254
2.63862
2.63278
2.62997
2.62412
2.60585
2.56585
2.499
2.31365
0.999995
0.999997
1.00001
1.00003
1.0001
1.00019
1.00061
1.00112
1.00349
1.00662
1.01923
1.04178
1.10858
1.27731
1.83025
2.37906
2.60452
2.59943
2.60361
2.60247
2.59772
2.57684
2.52343
2.45614
2.30141
0.999995
0.999997
1.00001
1.00002
1.00008
1.00015
1.0005
1.0009
1.00283
1.00539
1.01523
1.03492
1.08414
1.23704
1.61867
2.33308
2.57932
2.57547
2.5719
2.56384
2.55779
2.54029
2.49434
2.43277
2.3042
0.999994
0.999996
1
1.00001
1.00006
1.00011
1.00037
1.00071
1.00201
1.00442
1.01094
1.02973
1.06581
1.20375
1.48064
2.16822
2.52393
2.5667
2.55582
2.54451
2.52373
2.50305
2.45898
2.41373
2.31651
0.999994
0.999996
0.999999
1.00001
1.00003
1.00012
1.00024
1.00074
1.00143
1.00403
1.00895
1.0223
1.0612
1.13543
1.40907
2.06246
2.41322
2.53904
2.53271
2.52403
2.50105
2.47638
2.42516
2.37563
2.30986
0.999993
0.999995
0.999998
1.00001
1.00003
1.0001
1.00019
1.00062
1.00113
1.00353
1.00671
1.01929
1.0427
1.10803
1.28368
1.8206
2.32314
2.50716
2.50388
2.49592
2.47548
2.45632
2.41499
2.35724
2.29555
0.999993
0.999994
0.999996
1.00001
1.00002
1.00008
1.00014
1.00047
1.00087
1.00269
1.00515
1.01472
1.03258
1.08149
1.21496
1.60167
2.18304
2.46087
2.47377
2.46468
2.4458
2.41868
2.39266
2.34451
2.28543
0.999992
0.999993
0.999996
1
1.00002
1.00004
1.00014
1.00026
1.00082
1.00158
1.00439
1.00982
1.02404
1.06677
1.14413
1.44884
2.08832
2.37059
2.44958
2.4438
2.43117
2.4006
2.3697
2.33016
2.27801
0.999992
0.999992
0.999995
0.999998
1.00001
1.00003
1.00011
1.0002
1.00065
1.0012
1.0037
1.00713
1.02015
1.0455
1.11381
1.30098
1.8754
2.24966
2.4046
2.40866
2.40188
2.38552
2.35366
2.31647
2.26992
0.999992
0.999992
0.999993
0.999997
1
1.00003
1.00005
1.00019
1.00035
1.00108
1.00205
1.00595
1.01252
1.03226
1.08367
1.1936
1.53073
2.16575
2.35259
2.37451
2.37025
2.3578
2.33187
2.30328
2.2644
0.999991
0.999992
0.999992
0.999995
0.999999
1.00002
1.00004
1.00013
1.00025
1.00078
1.00146
1.00424
1.00891
1.02274
1.06014
1.13337
1.39723
1.99583
2.27882
2.35344
2.35034
2.3338
2.31012
2.27682
2.24699
0.999991
0.999991
0.999992
0.999993
0.999998
1
1.00003
1.00007
1.00022
1.00041
1.00125
1.00245
1.00666
1.01524
1.03674
1.10192
1.22782
1.6387
2.12169
2.31362
2.32353
2.3166
2.29793
2.26466
2.23192
0.999991
0.999991
0.999992
0.999992
0.999996
1
1.00002
1.00004
1.00015
1.00028
1.00089
1.00167
1.00483
1.01019
1.02579
1.06863
1.14919
1.44615
2.01838
2.25042
2.29004
2.28724
2.27295
2.24769
2.21512
0.999991
0.999991
0.999991
0.999992
0.999993
0.999999
1.00001
1.00004
1.00007
1.00025
1.00047
1.00139
1.00279
1.00738
1.01764
1.04152
1.1173
1.26214
1.72647
2.12506
2.26242
2.26269
2.25369
2.23446
2.20532
0.999991
0.999991
0.999991
0.999992
0.999993
0.999996
1
1.00002
1.00005
1.00017
1.00032
1.001
1.00183
1.0055
1.01095
1.029
1.07211
1.16483
1.45416
1.99846
2.2029
2.2348
2.23099
2.21351
2.18652
0.999991
0.999991
0.999991
0.999991
0.999992
0.999994
0.999999
1.00001
1.00004
1.00008
1.00027
1.0005
1.00151
1.00293
1.00799
1.01809
1.04383
1.12049
1.27317
1.72012
2.07914
2.20145
2.21028
2.20183
2.18141
0.999991
0.999991
0.999991
0.999991
0.999992
0.999993
0.999997
1
1.00002
1.00005
1.00018
1.00033
1.00102
1.00187
1.00565
1.01104
1.02958
1.0706
1.16676
1.43813
1.95106
2.13801
2.16839
2.17378
2.16393
0.999991
0.999991
0.999991
0.999991
0.999991
0.999992
0.999994
0.999999
1.00001
1.00004
1.00008
1.00026
1.0005
1.00149
1.00288
1.00801
1.01749
1.0431
1.1122
1.26742
1.66058
2.02542
2.14088
2.14612
2.14078
0.999991
0.999991
0.999991
0.999991
0.999991
0.999991
0.999993
0.999995
1
1.00002
1.00006
1.00013
1.0004
1.00076
1.00224
1.00438
1.01211
1.02582
1.06742
1.15483
1.45347
1.84177
2.07811
2.12033
2.12001
0.999991
0.999991
0.999991
0.999991
0.999991
0.999991
0.999992
0.999993
0.999999
1.00001
1.00004
1.00008
1.00025
1.00046
1.00142
1.00263
1.00772
1.01554
1.04025
1.09716
1.23666
1.57662
1.93909
2.08013
2.09337
0.999991
0.999991
0.999991
0.999991
0.999991
0.999991
0.999991
0.999993
0.999995
1
1.00001
1.00006
1.00011
1.00036
1.00068
1.002
1.00388
1.01078
1.02259
1.05958
1.13417
1.39078
1.75517
2.00314
2.06491
0.999991
0.999991
0.999991
0.999991
0.999991
0.999991
0.999991
0.999992
0.999993
0.999998
1
1.00003
1.00006
1.00022
1.0004
1.00122
1.00224
1.00654
1.01307
1.03362
1.08224
1.18664
1.49609
1.84141
2.01209
0.999991
0.999991
0.999991
0.999991
0.999991
0.999991
0.999991
0.999991
0.999992
0.999995
0.999999
1.00001
1.00003
1.00012
1.00023
1.00072
1.00132
1.00384
1.00773
1.01969
1.04949
1.10634
1.30995
1.70695
1.93481
0.999991
0.999991
0.999991
0.999991
0.999991
0.999991
0.999991
0.999991
0.999992
0.999993
0.999995
1.00001
1.00002
1.00007
1.00013
1.00042
1.00079
1.00235
1.00445
1.01261
1.02567
1.06843
1.15183
1.45419
1.75894
0.999991
0.999991
0.999991
0.999991
0.999991
0.999991
0.999991
0.999991
0.999991
0.999992
0.999994
0.999997
1.00001
1.00003
1.0001
1.00019
1.00057
1.00107
1.0031
1.00612
1.01631
1.03722
1.08737
1.22637
1.58677
0.999991
0.999991
0.999991
0.999991
0.999991
0.999991
0.999991
0.999991
0.999991
0.999992
0.999992
0.999995
0.999999
1.00002
1.00004
1.00013
1.00025
1.00075
1.00144
1.00401
1.00838
1.02088
1.05266
1.11431
1.31638
0.999991
0.999991
0.999991
0.999991
0.999991
0.999991
0.999991
0.999991
0.999991
0.999991
0.999992
0.999993
0.999997
1
1.00002
1.00005
1.00018
1.00034
1.001
1.0019
1.00535
1.01099
1.02764
1.06594
1.15458
0.999991
0.999991
0.999991
0.999991
0.999991
0.999991
0.999991
0.999991
0.999991
0.999991
0.999991
0.999992
0.999994
0.999997
1.00001
1.00003
1.0001
1.00019
1.00058
1.00106
1.00314
1.00597
1.01635
1.03595
1.08456
0.999991
0.999991
0.999991
0.999991
0.999991
0.999991
0.999991
0.999991
0.999991
0.999991
0.999991
0.999991
0.999992
0.999995
0.999999
1.00002
1.00004
1.00012
1.00024
1.00072
1.00137
1.00381
1.00788
1.01974
1.04905
0.999991
0.999991
0.999991
0.999991
0.999991
0.999991
0.999991
0.999991
0.999991
0.999991
0.999991
0.999991
0.999992
0.999993
0.999997
1
1.00002
1.00005
1.00016
1.00031
1.00092
1.00175
1.0049
1.00998
1.0254
0.999991
0.999991
0.999991
0.999991
0.999991
0.999991
0.999991
0.999991
0.999991
0.999991
0.999991
0.999991
0.999991
0.999992
0.999993
0.999998
1
1.00003
1.00006
1.00021
1.00039
1.00116
1.00219
1.00618
1.01249
0.999991
0.999991
0.999991
0.999991
0.999991
0.999991
0.999991
0.999991
0.999991
0.999991
0.999991
0.999991
0.999991
0.999991
0.999992
0.999995
0.999998
1.00001
1.00003
1.00011
1.00021
1.00063
1.00116
1.00335
1.00659
0.999991
0.999991
0.999991
0.999991
0.999991
0.999991
0.999991
0.999991
0.999991
0.999991
0.999991
0.999991
0.999991
0.999991
0.999992
0.999992
0.999996
1
1.00002
1.00004
1.00013
1.00026
1.00076
1.00144
1.00406
0.999991
0.999991
0.999991
0.999991
0.999991
0.999991
0.999991
0.999991
0.999991
0.999991
0.999991
0.999991
0.999991
0.999991
0.999991
0.999992
0.999993
0.999997
1
1.00002
1.00005
1.00016
1.00031
1.0009
1.00174
0.999991
0.999991
0.999991
0.999991
0.999991
0.999991
0.999991
0.999991
0.999991
0.999991
0.999991
0.999991
0.999991
0.999991
0.999991
0.999991
0.999992
0.999993
0.999998
1
1.00003
1.00006
1.00019
1.00037
1.00108
0.999991
0.999991
0.999991
0.999991
0.999991
0.999991
0.999991
0.999991
0.999991
0.999991
0.999991
0.999991
0.999991
0.999991
0.999991
0.999991
0.999991
0.999992
0.999994
0.999999
1.00001
1.00004
1.00008
1.00024
1.00045
0.999991
0.999991
0.999991
0.999991
0.999991
0.999991
0.999991
0.999991
0.999991
0.999991
0.999991
0.999991
0.999991
0.999991
0.999991
0.999991
0.999991
0.999992
0.999992
0.999995
0.999999
1.00002
1.00004
1.00012
1.00023
0.999991
0.999991
0.999991
0.999991
0.999991
0.999991
0.999991
0.999991
0.999991
0.999991
0.999991
0.999991
0.999991
0.999991
0.999991
0.999991
0.999991
0.999991
0.999992
0.999993
0.999996
1
1.00002
1.00005
1.00016
0.999991
0.999991
0.999991
0.999991
0.999991
0.999991
0.999991
0.999991
0.999991
0.999991
0.999991
0.999991
0.999991
0.999991
0.999991
0.999991
0.999991
0.999991
0.999991
0.999992
0.999995
0.999998
1.00001
1.00003
1.00011
1
1.00001
1.00002
1.00004
1.00014
1.00026
1.0008
1.00156
1.00432
1.00982
1.02411
1.06791
1.1478
1.46389
2.19112
2.53515
2.6565
2.6557
2.65162
2.65399
2.65231
2.64231
2.61309
2.5616
2.38676
1
1.00001
1.00002
1.00004
1.00013
1.00023
1.00074
1.00134
1.00417
1.00803
1.02257
1.05313
1.12795
1.36383
2.01585
2.48462
2.64261
2.63868
2.63283
2.63002
2.62417
2.6059
2.56589
2.49903
2.31366
1
1.00001
1.00002
1.00003
1.00011
1.00019
1.00062
1.00112
1.0035
1.00663
1.01924
1.0418
1.10861
1.27735
1.83034
2.37916
2.6046
2.5995
2.60367
2.60253
2.59777
2.57689
2.52348
2.45618
2.30143
1
1
1.00001
1.00003
1.00009
1.00016
1.0005
1.00091
1.00284
1.0054
1.01524
1.03492
1.08417
1.23704
1.61879
2.33317
2.5794
2.57553
2.57196
2.5639
2.55784
2.54034
2.49438
2.4328
2.30422
1
1
1.00001
1.00002
1.00007
1.00012
1.00038
1.00072
1.00202
1.00443
1.01096
1.02974
1.06584
1.20376
1.48075
2.16833
2.52401
2.56675
2.55588
2.54458
2.52378
2.5031
2.45902
2.41376
2.31654
1
1
1.00001
1.00002
1.00004
1.00013
1.00025
1.00075
1.00144
1.00404
1.00896
1.02231
1.06121
1.13547
1.40912
2.0626
2.41331
2.53909
2.53275
2.52408
2.5011
2.47643
2.4252
2.37567
2.30989
1
1
1.00001
1.00002
1.00003
1.00011
1.0002
1.00063
1.00114
1.00354
1.00672
1.0193
1.04271
1.10806
1.28374
1.82074
2.32325
2.50722
2.50394
2.49597
2.47552
2.45637
2.41503
2.35727
2.29557
1
1
1
1.00001
1.00003
1.00008
1.00015
1.00048
1.00088
1.00269
1.00516
1.01473
1.03259
1.08153
1.21497
1.60183
2.18308
2.46092
2.47382
2.46474
2.44585
2.41873
2.3927
2.34456
2.28548
1
1
1
1.00001
1.00003
1.00005
1.00015
1.00027
1.00083
1.00159
1.0044
1.00983
1.02405
1.06679
1.14417
1.44889
2.08843
2.37066
2.44963
2.44385
2.43121
2.40064