/*--------------------------------*- C++ -*----------------------------------*\
| =========                 |                                                 |
| \\      /  F ield         | OpenFOAM: The Open Source CFD Toolbox           |
|  \\    /   O peration     | Version:  4.1                                   |
|   \\  /    A nd           | Web:      www.OpenFOAM.org                      |
|    \\/     M anipulation  |                                                 |
\*---------------------------------------------------------------------------*/
FoamFile
{
    version     2.0;
    format      ascii;
    class       surfaceScalarField;
    location    "7.5";
    object      phi;
}
// * * * * * * * * * * * * * * * * * * * * * * * * * * * * * * * * * * * * * //

dimensions      [1 0 -1 0 0 0 0];

internalField   nonuniform List<scalar> 
150500
(
0.0168001
1.9348e-10
-3.52927e-12
0.0168001
1.08093e-09
-1.1577e-11
0.0168001
4.01387e-09
-1.36523e-11
0.0168
1.03294e-08
-2.1387e-11
0.0168
2.8342e-08
-2.1855e-11
0.0167999
6.49115e-08
-2.89126e-11
0.0167997
1.6799e-07
-2.95335e-11
0.0167994
3.78974e-07
-4.01753e-11
0.0167982
9.73497e-07
-4.20156e-11
0.016796
2.22781e-06
-8.72244e-11
0.0167892
5.95811e-06
-5.2969e-11
0.016773
1.58341e-05
-3.13079e-10
0.0167157
5.42403e-05
-2.55395e-10
0.0165413
0.000168493
-1.30067e-09
0.0155117
0.00100934
-2.66448e-09
0.0143542
0.00115898
-5.87604e-11
0.0131771
0.00117696
-2.79071e-10
0.0119229
0.00125236
-5.08022e-10
0.0105834
0.00133724
-5.30426e-10
0.00914406
0.00143702
-5.59077e-10
0.0075825
0.00155921
-5.84338e-10
0.00588808
0.00169209
-6.16248e-10
0.00406857
0.00181698
-6.43235e-10
0.00211772
0.00194873
-6.67844e-10
0.00211592
-6.98847e-10
0.0168001
3.983e-10
-3.51928e-12
0.0168001
2.227e-09
-1.15852e-11
0.0168001
8.27888e-09
-1.36433e-11
0.0168
2.13219e-08
-2.13961e-11
0.0168
5.85415e-08
-2.18643e-11
0.0167999
1.34126e-07
-2.89469e-11
0.0167997
3.47741e-07
-2.96123e-11
0.0167993
7.81124e-07
-4.03578e-11
0.0167981
2.03498e-06
-4.23327e-11
0.0167958
4.54053e-06
-8.80906e-11
0.0167883
1.25379e-05
-5.34271e-11
0.0167718
3.19522e-05
-3.14028e-10
0.0167114
0.000111651
-2.55059e-10
0.0165311
0.000342966
-1.29146e-09
0.0154876
0.00203227
-2.66748e-09
0.0143126
0.00233561
-4.7882e-11
0.0131469
0.00234259
-2.76138e-10
0.011906
0.00249139
-5.01357e-10
0.0105741
0.00266686
-5.19858e-10
0.00912261
0.00288626
-5.44557e-10
0.00754133
0.00313817
-5.71075e-10
0.00582775
0.00340327
-6.05451e-10
0.00398698
0.00365521
-6.35938e-10
0.0020277
0.00390594
-6.65839e-10
0.00414171
-7.06617e-10
0.0168001
6.47462e-10
-3.50161e-12
0.0168001
3.57484e-09
-1.15974e-11
0.0168
1.32967e-08
-1.36268e-11
0.0168
3.41567e-08
-2.14098e-11
0.0168
9.41863e-08
-2.18715e-11
0.0167999
2.17131e-07
-2.89819e-11
0.0167997
5.55625e-07
-2.96829e-11
0.0167991
1.31453e-06
-4.03977e-11
0.016798
3.04661e-06
-4.26706e-11
0.0167947
7.80501e-06
-8.75263e-11
0.0167883
1.80792e-05
-5.4091e-11
0.0167707
4.91561e-05
-3.1008e-10
0.0167123
0.00016702
-2.55924e-10
0.0165362
0.000513217
-1.27681e-09
0.0155148
0.00303276
-2.68771e-09
0.0143253
0.00352692
-2.09457e-11
0.013162
0.00350587
-2.74916e-10
0.0119321
0.0037193
-4.9382e-10
0.0106111
0.00398559
-5.05669e-10
0.00916481
0.00433033
-5.24996e-10
0.00758095
0.00471977
-5.58795e-10
0.00586088
0.00512111
-5.96222e-10
0.00399953
0.00551395
-6.31423e-10
0.00202859
0.00587479
-6.69e-10
0.00616844
-7.16376e-10
0.0168001
8.08745e-10
-3.46754e-12
0.0168001
4.4803e-09
-1.16335e-11
0.0168001
1.66727e-08
-1.36178e-11
0.0168
4.2867e-08
-2.15193e-11
0.0168
1.18282e-07
-2.20617e-11
0.0168
2.72278e-07
-2.95804e-11
0.0167998
7.04211e-07
-3.079e-11
0.0167995
1.62253e-06
-4.57962e-11
0.0167983
4.03854e-06
-4.0551e-11
0.0167966
9.41574e-06
-1.26113e-10
0.0167882
2.56595e-05
-9.03779e-12
0.0167726
6.42456e-05
-3.56473e-10
0.0167185
0.000218066
-1.8527e-10
0.0165451
0.000680823
-1.24591e-09
0.0155728
0.00398335
-2.67398e-09
0.0143735
0.0047286
2.65982e-11
0.013215
0.00466438
-2.71558e-10
0.0120044
0.00492795
-4.86814e-10
0.0107056
0.00528239
-4.9069e-10
0.0092769
0.00575675
-4.99551e-10
0.00770451
0.00628984
-5.32528e-10
0.00598374
0.00683968
-5.70008e-10
0.00411437
0.00738082
-6.08688e-10
0.00209103
0.00789547
-6.51439e-10
0.00825757
-7.01512e-10
0.0168001
9.27849e-10
-3.42522e-12
0.0168001
5.11585e-09
-1.16443e-11
0.0168001
1.90836e-08
-1.35099e-11
0.0168
4.88889e-08
-2.16152e-11
0.0168
1.35418e-07
-2.15519e-11
0.0168
3.10603e-07
-2.92027e-11
0.0167998
8.13595e-07
-2.95178e-11
0.0167996
1.84038e-06
-4.04106e-11
0.0167987
4.80684e-06
-4.3091e-11
0.0167974
1.07401e-05
-7.8372e-11
0.0167904
3.17179e-05
-9.89231e-11
0.0167774
7.68851e-05
-2.46485e-10
0.0167192
0.000273213
-3.16282e-10
0.0165534
0.00084035
-1.28849e-09
0.0156529
0.00486117
-2.80853e-09
0.0144313
0.00595324
1.77128e-10
0.0132805
0.00581524
-1.6726e-10
0.0120998
0.00610671
-4.43037e-10
0.0108405
0.0065394
-4.56323e-10
0.00945561
0.00713958
-4.6996e-10
0.00791253
0.0078308
-4.94873e-10
0.00620055
0.00854937
-5.29255e-10
0.00429471
0.00928444
-5.69707e-10
0.00222127
0.00996689
-6.15242e-10
0.010477
-6.63305e-10
0.0168001
9.62054e-10
-3.38232e-12
0.0168001
5.30115e-09
-1.16487e-11
0.0168001
1.97879e-08
-1.34672e-11
0.0168001
5.04513e-08
-2.17056e-11
0.0168
1.40071e-07
-2.1347e-11
0.0168
3.17962e-07
-2.92637e-11
0.0168
8.52266e-07
-2.93289e-11
0.0168
1.82981e-06
-4.04569e-11
0.0167993
5.31793e-06
-4.27013e-11
0.0167992
1.08537e-05
-7.8696e-11
0.0167938
3.62149e-05
-1.01397e-10
0.0167886
8.16617e-05
-2.42107e-10
0.0167092
0.000349763
-3.38849e-10
0.0165686
0.000975951
-1.29299e-09
0.0158013
0.00560423
-2.95569e-09
0.0145392
0.00721968
2.98022e-10
0.0133924
0.0069628
-9.15227e-11
0.0122414
0.00725612
-4.16447e-10
0.0110271
0.00775141
-4.32948e-10
0.00968976
0.008475
-4.43353e-10
0.00819258
0.00932603
-4.57028e-10
0.00650612
0.0102338
-4.86576e-10
0.00459464
0.0111928
-5.22657e-10
0.002404
0.0121554
-5.61578e-10
0.0128793
-6.06127e-10
0.0168001
9.45906e-10
-3.34575e-12
0.0168001
5.27758e-09
-1.16381e-11
0.0168001
1.97058e-08
-1.35006e-11
0.0168001
5.03871e-08
-2.15086e-11
0.0168001
1.38998e-07
-2.15147e-11
0.0168001
3.13157e-07
-2.89133e-11
0.0168
8.58041e-07
-2.91e-11
0.0168002
1.68379e-06
-3.908e-11
0.0167994
5.96253e-06
-4.211e-11
0.0168011
9.08436e-06
-7.26248e-11
0.0167911
4.5315e-05
-9.74784e-11
0.0167896
8.27406e-05
-2.24359e-10
0.0167388
0.000397471
-3.47482e-10
0.0166387
0.00107117
-1.25028e-09
0.0162282
0.00598851
-3.06942e-09
0.0148776
0.00857564
3.09422e-10
0.0136798
0.00816228
-9.87711e-11
0.0125289
0.00840624
-4.13664e-10
0.0113558
0.00892293
-4.21812e-10
0.010073
0.00975663
-4.25292e-10
0.00862059
0.0107766
-4.34301e-10
0.00695638
0.0118964
-4.54389e-10
0.00502046
0.013127
-4.77714e-10
0.00273319
0.0144404
-5.03207e-10
0.0156108
-5.33838e-10
0.0168001
1.18215e-09
-3.33097e-12
0.0168001
6.50319e-09
-1.15822e-11
0.0168001
2.41795e-08
-1.35992e-11
0.0168
6.18213e-08
-2.13101e-11
0.0168
1.70972e-07
-2.17261e-11
0.0167999
3.90329e-07
-2.86452e-11
0.0167997
1.0307e-06
-2.92902e-11
0.0167991
2.26885e-06
-3.88241e-11
0.0167986
6.36837e-06
-4.07635e-11
0.0167952
1.24943e-05
-1.01034e-10
0.0167944
4.52148e-05
-2.85404e-11
0.016786
9.09123e-05
-2.93594e-10
0.0167827
0.000397692
-2.1592e-10
0.0167801
0.00106945
-1.15008e-09
0.0170333
0.00570807
-2.90749e-09
0.0155867
0.0100275
1.89031e-10
0.0142253
0.00952497
-2.17643e-10
0.0130192
0.00961151
-4.17657e-10
0.0118579
0.0100828
-4.13597e-10
0.0106157
0.0109978
-4.13128e-10
0.0092253
0.0121659
-4.2073e-10
0.00760704
0.013512
-4.29016e-10
0.0056802
0.0150514
-4.37812e-10
0.00324987
0.0168692
-4.45617e-10
0.0188593
-4.59512e-10
0.0168001
1.48392e-09
-3.28519e-12
0.0168001
6.63423e-09
-1.15956e-11
0.0168001
2.62996e-08
-1.35733e-11
0.0168001
6.51632e-08
-2.12934e-11
0.0168
1.83454e-07
-2.15918e-11
0.0168
4.10872e-07
-2.83831e-11
0.0167999
1.09599e-06
-2.83465e-11
0.0167998
2.37699e-06
-3.63786e-11
0.0167995
6.5356e-06
-4.0151e-11
0.0167987
1.32537e-05
-5.92996e-11
0.0167999
4.32154e-05
-7.62247e-11
0.0168063
8.40365e-05
-1.99759e-10
0.0168484
0.000352483
-2.99596e-10
0.0170103
0.000903227
-1.03238e-09
0.018338
0.00435275
-2.84184e-09
0.0167944
0.0115757
-1.60308e-10
0.0150686
0.0112527
-3.71621e-10
0.0138281
0.0108521
-3.33971e-10
0.0126492
0.0112605
-3.59752e-10
0.0114298
0.012216
-3.9948e-10
0.0100687
0.0135268
-4.05226e-10
0.00856984
0.01501
-4.05467e-10
0.00676354
0.0168563
-4.00513e-10
0.00423122
0.0193995
-3.87087e-10
0.0230889
-3.76359e-10
0.0168001
-3.33245e-12
2.67112e-09
0.0168001
-1.15234e-11
2.47687e-09
0.0168001
-1.37456e-11
3.66785e-08
0.0168001
-2.13659e-11
3.44318e-08
0.0168
-2.17224e-11
2.45225e-07
0.0168002
-2.84317e-11
2.27765e-07
0.0167998
-2.83025e-11
1.47408e-06
0.0168009
-3.62092e-11
1.27606e-06
0.0167982
-4.00796e-11
9.157e-06
0.0168055
-6.35714e-11
5.86403e-06
0.0167833
-6.28557e-11
6.46956e-05
0.0168389
-2.59139e-10
2.79717e-05
0.0167251
-1.29399e-10
0.000462956
0.0170629
-7.41785e-10
0.000569569
0.0178132
-1.32192e-09
0.00358505
0.0171191
-9.45012e-10
0.0122627
0.0156519
-6.31022e-10
0.0127182
0.014604
-2.80805e-10
0.0119007
0.0134584
-3.66864e-10
0.0124053
0.0123923
-3.92132e-10
0.0132797
0.0112305
-3.92168e-10
0.014687
0.00994629
-3.84486e-10
0.0162926
0.00827864
-3.65543e-10
0.0185226
0.00585393
-3.30249e-10
0.0218235
-2.95762e-10
0.0289415
0.0168001
1.98452e-10
-6.20265e-16
0.0168001
1.08101e-09
-3.23895e-15
0.0168
4.02006e-09
-7.59823e-15
0.0168
1.033e-08
-1.59377e-14
0.0168
2.83391e-08
-3.31464e-14
0.0167999
6.48924e-08
-6.33949e-14
0.0167997
1.67936e-07
-1.47327e-13
0.0167994
3.78839e-07
-2.89243e-13
0.0167982
9.73241e-07
-7.61822e-13
0.016796
2.22718e-06
-1.55699e-12
0.0167892
5.95749e-06
-4.27101e-12
0.016773
1.58333e-05
-1.1377e-11
0.0167157
5.42399e-05
-3.10998e-11
0.0165413
0.000168501
-9.65612e-11
0.0155117
0.00100935
-2.50263e-10
0.0143542
0.00115896
1.76748e-11
0.0131771
0.00117694
-2.26266e-12
0.0119229
0.00125233
-2.53953e-11
0.0105834
0.00133723
-2.75501e-11
0.00914408
0.00143703
-2.96342e-11
0.00758249
0.00155924
-2.90106e-11
0.00588804
0.00169212
-2.81298e-11
0.00406852
0.001817
-2.77394e-11
0.00211771
0.0019487
-2.78018e-11
0.0021159
-2.82553e-11
0.0168001
4.07318e-10
-6.23376e-16
0.0168001
2.22919e-09
-3.25235e-15
0.0168
8.28936e-09
-7.64419e-15
0.0168
2.13205e-08
-1.60386e-14
0.0168
5.85242e-08
-3.34221e-14
0.0167999
1.34059e-07
-6.39693e-14
0.0167997
3.47561e-07
-1.48762e-13
0.0167993
7.80635e-07
-2.92357e-13
0.0167981
2.03386e-06
-7.68227e-13
0.0167958
4.53838e-06
-1.57255e-12
0.0167883
1.2533e-05
-4.29543e-12
0.0167718
3.19525e-05
-1.1395e-11
0.0167114
0.000111648
-3.1211e-11
0.016531
0.000342988
-9.65e-11
0.0154876
0.00203232
-2.51387e-10
0.0143125
0.00233557
1.92243e-11
0.0131469
0.00234253
-1.94081e-12
0.011906
0.00249134
-2.53714e-11
0.0105741
0.00266683
-2.73293e-11
0.00912262
0.00288626
-2.92166e-11
0.00754137
0.00313819
-2.86647e-11
0.00582779
0.0034033
-2.79169e-11
0.00398704
0.00365522
-2.75698e-11
0.00202775
0.00390591
-2.76108e-11
0.00414174
-2.8116e-11
0.0168001
6.6438e-10
-6.2908e-16
0.0168001
3.57188e-09
-3.27722e-15
0.0168
1.33096e-08
-7.72383e-15
0.0168
3.41232e-08
-1.62088e-14
0.0168
9.40962e-08
-3.3846e-14
0.0167999
2.16853e-07
-6.47839e-14
0.0167997
5.55016e-07
-1.50719e-13
0.0167991
1.312e-06
-2.95137e-13
0.016798
3.04673e-06
-7.77829e-13
0.0167947
7.78909e-06
-1.57782e-12
0.0167883
1.80921e-05
-4.34335e-12
0.0167707
4.91341e-05
-1.13603e-11
0.0167123
0.000167053
-3.14796e-11
0.0165362
0.000513234
-9.65145e-11
0.0155148
0.00303276
-2.54901e-10
0.0143255
0.00352677
2.75043e-11
0.0131622
0.00350576
-1.0224e-12
0.0119323
0.00371922
-2.52899e-11
0.0106114
0.00398553
-2.69555e-11
0.00916506
0.00433032
-2.85524e-11
0.0075812
0.0047198
-2.81674e-11
0.00586111
0.00512117
-2.75974e-11
0.00399971
0.00551401
-2.72702e-11
0.0020287
0.00587483
-2.72723e-11
0.00616857
-2.77113e-11
0.0168001
8.29765e-10
-6.60756e-16
0.0168001
4.49242e-09
-3.38989e-15
0.0168001
1.67388e-08
-8.1563e-15
0.0168
4.28624e-08
-1.73641e-14
0.0168
1.18539e-07
-3.67189e-14
0.0168
2.72576e-07
-7.22804e-14
0.0167998
7.0497e-07
-1.65575e-13
0.0167995
1.62548e-06
-3.64081e-13
0.0167983
4.03822e-06
-7.56685e-13
0.0167966
9.44005e-06
-2.08037e-12
0.0167883
2.56194e-05
-3.25117e-12
0.0167725
6.42887e-05
-1.18432e-11
0.0167185
0.000218002
-3.12285e-11
0.0165452
0.000680782
-9.711e-11
0.015573
0.00398319
-2.61431e-10
0.0143738
0.0047284
3.69212e-11
0.0132153
0.00466431
1.45877e-13
0.0120047
0.00492789
-2.49534e-11
0.0107059
0.00528234
-2.62094e-11
0.00927717
0.00575673
-2.73005e-11
0.00770477
0.00628988
-2.71085e-11
0.005984
0.00683976
-2.67797e-11
0.00411459
0.00738092
-2.63715e-11
0.00209116
0.00789561
-2.62554e-11
0.00825783
-2.66962e-11
0.0168001
9.49124e-10
-6.39805e-16
0.0168001
5.13184e-09
-3.29499e-15
0.0168001
1.91236e-08
-7.83642e-15
0.0168
4.88855e-08
-1.66904e-14
0.0168
1.35551e-07
-3.46533e-14
0.0168
3.10699e-07
-6.75827e-14
0.0167998
8.13892e-07
-1.56353e-13
0.0167996
1.8409e-06
-3.1775e-13
0.0167987
4.80822e-06
-7.8948e-13
0.0167974
1.07423e-05
-1.65695e-12
0.0167904
3.17231e-05
-4.79342e-12
0.0167774
7.6889e-05
-1.15116e-11
0.0167192
0.000273206
-2.96302e-11
0.0165533
0.000840348
-1.005e-10
0.0156526
0.00486112
-2.66839e-10
0.0144312
0.00595294
3.25729e-11
0.0132805
0.00581509
1.57198e-12
0.0120998
0.0061066
-2.46614e-11
0.0108405
0.00653931
-2.5453e-11
0.00945571
0.00713951
-2.58647e-11
0.00791268
0.00783079
-2.57689e-11
0.00620072
0.00854943
-2.56017e-11
0.00429488
0.00928456
-2.53778e-11
0.00222138
0.00996708
-2.54449e-11
0.0104774
-2.54823e-11
0.0168001
9.80095e-10
-6.05334e-16
0.0168001
5.32106e-09
-3.1443e-15
0.0168001
1.97938e-08
-7.32303e-15
0.0168001
5.05574e-08
-1.55821e-14
0.0168
1.40052e-07
-3.13791e-14
0.0168
3.1816e-07
-6.00011e-14
0.0168
8.52501e-07
-1.41176e-13
0.0168
1.83064e-06
-2.53365e-13
0.0167993
5.31878e-06
-7.94739e-13
0.0167992
1.08561e-05
-1.28272e-12
0.0167938
3.6219e-05
-4.96687e-12
0.0167886
8.1676e-05
-9.2771e-12
0.0167091
0.000349776
-3.88498e-11
0.0165684
0.000976026
-9.93304e-11
0.0158008
0.0056045
-2.81686e-10
0.0145387
0.0072194
4.89997e-11
0.013392
0.00696255
7.13486e-12
0.0122412
0.00725591
-2.27573e-11
0.0110269
0.00775124
-2.36656e-11
0.00968966
0.00847487
-2.387e-11
0.00819256
0.00932595
-2.37165e-11
0.00650617
0.0102338
-2.35661e-11
0.00459471
0.0111929
-2.35695e-11
0.00240406
0.0121556
-2.35435e-11
0.0128797
-2.39251e-11
0.0168001
9.55416e-10
-6.00584e-16
0.0168001
5.3134e-09
-3.12584e-15
0.0168001
1.96875e-08
-7.28281e-15
0.0168001
5.04848e-08
-1.54871e-14
0.0168001
1.38974e-07
-3.13682e-14
0.0168001
3.13326e-07
-6.01638e-14
0.0168
8.5816e-07
-1.42189e-13
0.0168002
1.68438e-06
-2.60783e-13
0.0167994
5.96405e-06
-7.99687e-13
0.0168011
9.078e-06
-1.33455e-12
0.0167911
4.53464e-05
-5.10453e-12
0.0167896
8.27185e-05
-9.46979e-12
0.0167387
0.000397572
-3.96537e-11
0.0166385
0.00107129
-1.00572e-10
0.0162277
0.00598909
-2.97216e-10
0.0148772
0.00857527
5.15899e-11
0.0136795
0.00816193
1.2324e-11
0.0125287
0.00840599
-2.10978e-11
0.0113556
0.00892274
-2.20508e-11
0.0100728
0.00975647
-2.2146e-11
0.00862049
0.0107765
-2.15291e-11
0.00695633
0.0118963
-2.15396e-11
0.00502046
0.0131271
-2.16212e-11
0.00273319
0.0144406
-2.15435e-11
0.0156112
-2.15353e-11
0.0168001
1.20203e-09
-5.88135e-16
0.0168001
6.50598e-09
-3.08349e-15
0.0168001
2.42026e-08
-7.13316e-15
0.0168
6.18251e-08
-1.49584e-14
0.0168
1.71036e-07
-3.02413e-14
0.0167999
3.90462e-07
-5.7554e-14
0.0167997
1.03124e-06
-1.31222e-13
0.0167991
2.27028e-06
-2.44085e-13
0.0167986
6.36974e-06
-7.86357e-13
0.0167952
1.25138e-05
-7.37281e-13
0.0167944
4.52003e-05
-6.13754e-12
0.016786
9.0962e-05
-7.66248e-12
0.0167827
0.00039767
-3.85829e-11
0.0167802
0.00106958
-9.76653e-11
0.0170331
0.00570881
-3.02272e-10
0.0155866
0.0100271
4.46383e-11
0.0142253
0.00952453
1.65602e-11
0.0130192
0.00961128
-1.7657e-11
0.0118578
0.0100827
-1.9743e-11
0.0106155
0.0109977
-2.16529e-11
0.00922519
0.0121658
-1.95776e-11
0.00760695
0.0135119
-1.90127e-11
0.00568014
0.0150514
-1.8894e-11
0.00324984
0.0168694
-1.85478e-11
0.0188597
-1.88485e-11
0.0168001
1.44769e-09
-5.85416e-16
0.0168001
6.74588e-09
-3.06307e-15
0.0168001
2.61385e-08
-7.10738e-15
0.0168001
6.50419e-08
-1.48616e-14
0.0168
1.83219e-07
-3.03839e-14
0.0168
4.10738e-07
-5.77146e-14
0.0167999
1.09593e-06
-1.33867e-13
0.0167998
2.37742e-06
-2.56746e-13
0.0167995
6.5364e-06
-7.20354e-13
0.0167987
1.32585e-05
-1.30998e-12
0.0167999
4.3221e-05
-4.94488e-12
0.0168064
8.40469e-05
-7.85391e-12
0.0168483
0.000352544
-3.70244e-11
0.0170102
0.000903429
-9.14384e-11
0.0183371
0.00435415
-3.01694e-10
0.0167938
0.0115752
1.97182e-11
0.0150684
0.0112518
-8.11895e-13
0.0138279
0.0108519
-1.2994e-11
0.0126491
0.0112603
-1.76862e-11
0.0114296
0.0122158
-2.31454e-11
0.0100686
0.0135267
-1.94433e-11
0.00856973
0.0150099
-1.81659e-11
0.00676346
0.0168563
-1.74108e-11
0.00423117
0.0193996
-1.59848e-11
0.0230892
-1.57259e-11
0.0168001
-5.59147e-16
2.54215e-09
0.0168001
-2.943e-15
2.84827e-09
0.0168001
-6.69875e-15
3.55119e-08
0.0168001
-1.39423e-14
3.48802e-08
0.0168
-2.7622e-14
2.43998e-07
0.0168002
-5.19358e-14
2.28322e-07
0.0167998
-1.16391e-13
1.47303e-06
0.0168009
-2.23991e-13
1.27699e-06
0.0167982
-5.87807e-13
9.1565e-06
0.0168055
-1.1893e-12
5.86883e-06
0.0167833
-3.16087e-12
6.46887e-05
0.0168388
-8.3578e-12
2.80154e-05
0.0167254
-2.06992e-11
0.000462918
0.0170625
-5.63786e-11
0.000569759
0.017814
-1.48633e-10
0.00358558
0.0171193
-1.0128e-10
0.0122629
0.0156518
-5.42151e-11
0.012718
0.0146039
-5.23944e-12
0.0119004
0.0134583
-2.29016e-11
0.0124051
0.0123922
-2.52812e-11
0.0132795
0.0112304
-2.11893e-11
0.0146869
0.00994618
-1.95106e-11
0.0162925
0.00827854
-1.70019e-11
0.0185226
0.00585385
-1.42989e-11
0.0218236
-1.4892e-11
0.0289418
0.0168001
1.9845e-10
1.83065e-16
0.0168001
1.08101e-09
-1.51873e-18
0.0168
4.02003e-09
-2.47997e-16
0.0168
1.033e-08
-5.36331e-16
0.0168
2.83389e-08
-1.53016e-15
0.0167999
6.4892e-08
-3.13498e-15
0.0167997
1.67935e-07
-8.85708e-15
0.0167994
3.78836e-07
-1.81751e-14
0.0167982
9.73235e-07
-5.16478e-14
0.016796
2.22717e-06
-1.07582e-13
0.0167892
5.95747e-06
-3.04257e-13
0.016773
1.58333e-05
-8.16198e-13
0.0167157
5.42399e-05
-2.26841e-12
0.0165413
0.000168501
-7.07171e-12
0.0155117
0.00100935
-1.84825e-11
0.0143542
0.00115895
1.0287e-12
0.0131772
0.00117694
-3.19578e-13
0.0119229
0.00125233
-2.10032e-12
0.0105834
0.00133723
-2.27518e-12
0.00914409
0.00143703
-2.45861e-12
0.0075825
0.00155924
-2.38002e-12
0.00588805
0.00169212
-2.2924e-12
0.00406853
0.001817
-2.22607e-12
0.00211771
0.0019487
-2.20979e-12
0.00211591
-2.22781e-12
0.0168001
4.07315e-10
1.83232e-16
0.0168001
2.22917e-09
-9.31736e-20
0.0168
8.28929e-09
-2.51256e-16
0.0168
2.13203e-08
-5.43439e-16
0.0168
5.85237e-08
-1.54933e-15
0.0167999
1.34058e-07
-3.17492e-15
0.0167997
3.47558e-07
-8.95702e-15
0.0167993
7.80627e-07
-1.83928e-14
0.0167981
2.03384e-06
-5.20982e-14
0.0167958
4.53835e-06
-1.08675e-13
0.0167883
1.25329e-05
-3.06014e-13
0.0167718
3.19525e-05
-8.17397e-13
0.0167114
0.000111648
-2.27655e-12
0.016531
0.000342989
-7.06718e-12
0.0154876
0.00203232
-1.85642e-11
0.0143126
0.00233557
1.14239e-12
0.0131469
0.00234253
-3.14292e-13
0.011906
0.00249134
-2.09977e-12
0.0105741
0.00266683
-2.26139e-12
0.00912263
0.00288626
-2.43066e-12
0.00754137
0.00313819
-2.35854e-12
0.0058278
0.0034033
-2.27975e-12
0.00398704
0.00365523
-2.21613e-12
0.00202775
0.00390592
-2.19866e-12
0.00414175
-2.21786e-12
0.0168001
6.64366e-10
1.83579e-16
0.0168001
3.57182e-09
3.61514e-18
0.0168
1.33094e-08
-2.56908e-16
0.0168
3.41225e-08
-5.55382e-16
0.0168
9.40946e-08
-1.57882e-15
0.0167999
2.16849e-07
-3.23103e-15
0.0167997
5.55007e-07
-9.09185e-15
0.0167991
1.31197e-06
-1.85764e-14
0.016798
3.04672e-06
-5.27775e-14
0.0167947
7.78887e-06
-1.08954e-13
0.0167883
1.80922e-05
-3.09563e-13
0.0167707
4.91338e-05
-8.14585e-13
0.0167123
0.000167053
-2.29657e-12
0.0165362
0.000513235
-7.06858e-12
0.0155148
0.00303277
-1.88226e-11
0.0143255
0.00352677
1.41834e-12
0.0131622
0.00350576
-3.69404e-13
0.0119323
0.00371922
-2.09758e-12
0.0106114
0.00398553
-2.24037e-12
0.00916507
0.00433032
-2.38841e-12
0.0075812
0.0047198
-2.33037e-12
0.00586111
0.00512117
-2.26482e-12
0.00399972
0.00551401
-2.20392e-12
0.00202871
0.00587484
-2.18354e-12
0.00616858
-2.19779e-12
0.0168001
8.29775e-10
1.8531e-16
0.0168001
4.49247e-09
-5.07424e-17
0.0168001
1.6739e-08
-2.8985e-16
0.0168
4.28629e-08
-6.27032e-16
0.0168
1.1854e-07
-1.80337e-15
0.0168
2.72579e-07
-3.76046e-15
0.0167998
7.04977e-07
-1.01669e-14
0.0167995
1.62551e-06
-2.36042e-14
0.0167983
4.03821e-06
-5.10864e-14
0.0167966
9.44027e-06
-1.45897e-13
0.0167883
2.5619e-05
-2.72053e-13
0.0167725
6.42889e-05
-8.50642e-13
0.0167185
0.000218003
-2.27667e-12
0.0165452
0.000680781
-7.11164e-12
0.015573
0.00398319
-1.92992e-11
0.0143738
0.00472839
1.8068e-12
0.0132153
0.00466431
-2.17296e-13
0.0120047
0.00492789
-2.07984e-12
0.0107059
0.00528234
-2.19607e-12
0.00927717
0.00575673
-2.31217e-12
0.00770478
0.00628988
-2.26904e-12
0.005984
0.00683977
-2.22262e-12
0.00411459
0.00738093
-2.16249e-12
0.00209116
0.00789562
-2.13749e-12
0.00825784
-2.15005e-12
0.0168001
9.4914e-10
1.84336e-16
0.0168001
5.13192e-09
-2.24379e-17
0.0168001
1.91239e-08
-2.66867e-16
0.0168
4.88862e-08
-5.774e-16
0.0168
1.35554e-07
-1.65069e-15
0.0168
3.10704e-07
-3.40676e-15
0.0167998
8.13903e-07
-9.47517e-15
0.0167996
1.84094e-06
-2.01047e-14
0.0167987
4.80824e-06
-5.35502e-14
0.0167974
1.07425e-05
-1.14254e-13
0.0167904
3.17231e-05
-3.41662e-13
0.0167774
7.68901e-05
-8.24372e-13
0.0167192
0.000273202
-2.1641e-12
0.0165533
0.000840348
-7.35337e-12
0.0156527
0.00486112
-1.96997e-11
0.0144312
0.00595293
2.39037e-12
0.0132805
0.00581509
-1.14364e-13
0.0120998
0.0061066
-2.0688e-12
0.0108405
0.00653931
-2.15297e-12
0.00945572
0.00713952
-2.22388e-12
0.00791269
0.0078308
-2.18983e-12
0.00620072
0.00854944
-2.15999e-12
0.00429488
0.00928457
-2.11446e-12
0.00222138
0.00996709
-2.09758e-12
0.0104774
-2.09112e-12
0.0168001
9.80098e-10
1.82334e-16
0.0168001
5.32108e-09
1.94623e-17
0.0168001
1.97938e-08
-2.31229e-16
0.0168001
5.05576e-08
-4.99827e-16
0.0168
1.40053e-07
-1.42e-15
0.0168
3.18161e-07
-2.87078e-15
0.0168
8.52503e-07
-8.39399e-15
0.0168
1.83064e-06
-1.55365e-14
0.0167993
5.31879e-06
-5.38679e-14
0.0167992
1.08561e-05
-8.76059e-14
0.0167938
3.6219e-05
-3.53909e-13
0.0167886
8.16761e-05
-6.63576e-13
0.0167091
0.000349776
-2.8252e-12
0.0165684
0.000976027
-7.26198e-12
0.0158008
0.00560451
-2.07579e-11
0.0145387
0.00721938
3.27581e-12
0.013392
0.00696254
2.75987e-13
0.0122412
0.00725591
-1.95011e-12
0.0110269
0.00775124
-2.04191e-12
0.00968967
0.00847488
-2.1023e-12
0.00819257
0.00932596
-2.0696e-12
0.00650617
0.0102338
-2.04982e-12
0.00459472
0.0111929
-2.02582e-12
0.00240406
0.0121556
-2.0099e-12
0.0128797
-2.01896e-12
0.0168001
9.55421e-10
1.81976e-16
0.0168001
5.31342e-09
2.3822e-17
0.0168001
1.96876e-08
-2.28798e-16
0.0168001
5.0485e-08
-4.95011e-16
0.0168001
1.38975e-07
-1.42095e-15
0.0168001
3.13327e-07
-2.88604e-15
0.0168
8.58165e-07
-8.47152e-15
0.0168002
1.68439e-06
-1.60525e-14
0.0167994
5.96407e-06
-5.42343e-14
0.0168011
9.07819e-06
-9.11492e-14
0.0167911
4.53461e-05
-3.63373e-13
0.0167896
8.27194e-05
-6.76135e-13
0.0167387
0.000397572
-2.87845e-12
0.0166385
0.0010713
-7.33675e-12
0.0162277
0.00598913
-2.18407e-11
0.0148772
0.00857524
3.6793e-12
0.0136795
0.00816191
6.28884e-13
0.0125287
0.00840598
-1.85255e-12
0.0113556
0.00892274
-1.94644e-12
0.0100728
0.00975647
-2.00338e-12
0.00862049
0.0107765
-1.94794e-12
0.00695633
0.0118963
-1.93955e-12
0.00502046
0.0131271
-1.93071e-12
0.00273319
0.0144406
-1.91825e-12
0.0156112
-1.91116e-12
0.0168001
1.20204e-09
1.80977e-16
0.0168001
6.50599e-09
3.52154e-17
0.0168001
2.42027e-08
-2.17821e-16
0.0168
6.18253e-08
-4.73192e-16
0.0168
1.71036e-07
-1.33445e-15
0.0167999
3.90463e-07
-2.73903e-15
0.0167997
1.03124e-06
-7.75782e-15
0.0167991
2.27028e-06
-1.49927e-14
0.0167986
6.36978e-06
-5.34126e-14
0.0167952
1.25136e-05
-5.05649e-14
0.0167944
4.5201e-05
-4.3427e-13
0.016786
9.09624e-05
-5.50321e-13
0.0167827
0.000397675
-2.94783e-12
0.0167801
0.00106959
-7.11e-12
0.0170331
0.0057089
-2.21444e-11
0.0155866
0.0100271
3.59359e-12
0.0142252
0.0095245
8.9883e-13
0.0130191
0.00961126
-1.63386e-12
0.0118578
0.0100827
-1.80565e-12
0.0106155
0.0109977
-1.99086e-12
0.00922518
0.0121658
-1.85424e-12
0.00760695
0.0135119
-1.82283e-12
0.00568014
0.0150515
-1.81662e-12
0.00324984
0.0168694
-1.80394e-12
0.0188597
-1.81821e-12
0.0168001
1.4477e-09
1.80867e-16
0.0168001
6.74597e-09
4.03272e-17
0.0168001
2.61388e-08
-2.15434e-16
0.0168001
6.50426e-08
-4.65196e-16
0.0168
1.83221e-07
-1.33993e-15
0.0168
4.10743e-07
-2.73957e-15
0.0167999
1.09594e-06
-7.91251e-15
0.0167998
2.37745e-06
-1.57932e-14
0.0167995
6.53649e-06
-4.87138e-14
0.0167987
1.32587e-05
-8.95708e-14
0.0167999
4.3222e-05
-3.51122e-13
0.0168064
8.40477e-05
-5.58254e-13
0.0168483
0.000352554
-2.67369e-12
0.0170102
0.000903455
-6.6343e-12
0.018337
0.00435433
-2.20133e-11
0.0167937
0.0115752
1.10466e-12
0.0150684
0.0112518
-5.00967e-13
0.0138278
0.0108519
-1.32553e-12
0.012649
0.0112603
-1.68236e-12
0.0114296
0.0122158
-2.11477e-12
0.0100686
0.0135267
-1.8811e-12
0.00856972
0.0150099
-1.81797e-12
0.00676346
0.0168563
-1.78782e-12
0.00423117
0.0193996
-1.74075e-12
0.0230893
-1.76482e-12
0.0168001
1.79271e-16
2.54215e-09
0.0168001
7.31108e-17
2.8484e-09
0.0168001
-1.82843e-16
3.55122e-08
0.0168001
-3.9414e-16
3.48811e-08
0.0168
-1.1331e-15
2.44001e-07
0.0168002
-2.31312e-15
2.28327e-07
0.0167998
-6.63435e-15
1.47305e-06
0.0168009
-1.34003e-14
1.27702e-06
0.0167982
-3.90537e-14
9.15665e-06
0.0168055
-8.04695e-14
5.86897e-06
0.0167833
-2.22568e-13
6.46897e-05
0.0168388
-5.88829e-13
2.80165e-05
0.0167254
-1.49533e-12
0.000462924
0.0170625
-4.07737e-12
0.000569776
0.0178141
-1.08622e-11
0.00358564
0.0171194
-7.68184e-12
0.012263
0.0156518
-4.29413e-12
0.012718
0.0146039
-7.66454e-13
0.0119003
0.0134582
-2.08307e-12
0.0124051
0.0123922
-2.28072e-12
0.0132795
0.0112304
-2.04858e-12
0.0146869
0.00994616
-1.96638e-12
0.0162925
0.00827853
-1.86405e-12
0.0185226
0.00585385
-1.78741e-12
0.0218237
-1.97754e-12
0.0289418
0.0168001
1.9845e-10
-9.83549e-17
0.0168001
1.08101e-09
-3.63065e-16
0.0168
4.02002e-09
-1.0356e-15
0.0168
1.03299e-08
-2.09089e-15
0.0168
2.83389e-08
-5.62765e-15
0.0167999
6.48919e-08
-1.13128e-14
0.0167997
1.67935e-07
-3.13915e-14
0.0167994
3.78836e-07
-6.41851e-14
0.0167982
9.73235e-07
-1.80512e-13
0.016796
2.22716e-06
-3.76598e-13
0.0167892
5.95747e-06
-1.05273e-12
0.016773
1.58333e-05
-2.83602e-12
0.0167157
5.42399e-05
-7.85259e-12
0.0165413
0.000168501
-2.44631e-11
0.0155117
0.00100935
-6.51582e-11
0.0143542
0.00115895
5.60605e-12
0.0131772
0.00117694
3.45959e-13
0.0119229
0.00125233
-5.80354e-12
0.0105834
0.00133723
-6.41193e-12
0.00914409
0.00143703
-6.99915e-12
0.0075825
0.00155924
-6.79298e-12
0.00588805
0.00169212
-6.44744e-12
0.00406853
0.001817
-6.31835e-12
0.00211771
0.0019487
-6.23191e-12
0.00211591
-6.35049e-12
0.0168001
4.07315e-10
-9.96577e-17
0.0168001
2.22917e-09
-3.67789e-16
0.0168
8.28928e-09
-1.04927e-15
0.0168
2.13203e-08
-2.11971e-15
0.0168
5.85236e-08
-5.704e-15
0.0167999
1.34058e-07
-1.14711e-14
0.0167997
3.47558e-07
-3.17858e-14
0.0167993
7.80627e-07
-6.50433e-14
0.0167981
2.03384e-06
-1.82279e-13
0.0167958
4.53835e-06
-3.80924e-13
0.0167883
1.25329e-05
-1.05947e-12
0.0167718
3.19525e-05
-2.84248e-12
0.0167114
0.000111648
-7.88278e-12
0.016531
0.000342989
-2.44459e-11
0.0154876
0.00203232
-6.5394e-11
0.0143126
0.00233557
5.99396e-12
0.0131469
0.00234253
4.20967e-13
0.011906
0.00249134
-5.79558e-12
0.0105741
0.00266683
-6.34507e-12
0.00912263
0.00288626
-6.87378e-12
0.00754137
0.00313819
-6.69039e-12
0.0058278
0.0034033
-6.38646e-12
0.00398704
0.00365523
-6.27722e-12
0.00202775
0.00390592
-6.19033e-12
0.00414175
-6.33282e-12
0.0168001
6.64366e-10
-1.02104e-16
0.0168001
3.57182e-09
-3.76834e-16
0.0168
1.33094e-08
-1.07326e-15
0.0168
3.41225e-08
-2.16889e-15
0.0168
9.40945e-08
-5.82293e-15
0.0167999
2.16849e-07
-1.16979e-14
0.0167997
5.55006e-07
-3.23293e-14
0.0167991
1.31196e-06
-6.58206e-14
0.016798
3.04672e-06
-1.84973e-13
0.0167947
7.78885e-06
-3.82529e-13
0.0167883
1.80922e-05
-1.07287e-12
0.0167707
4.91338e-05
-2.83654e-12
0.0167123
0.000167053
-7.95656e-12
0.0165362
0.000513235
-2.44556e-11
0.0155148
0.00303277
-6.6264e-11
0.0143255
0.00352677
6.95982e-12
0.0131622
0.00350576
6.37368e-13
0.0119323
0.00371922
-5.78751e-12
0.0106114
0.00398553
-6.25048e-12
0.00916507
0.00433032
-6.70001e-12
0.0075812
0.0047198
-6.57493e-12
0.00586111
0.00512117
-6.32945e-12
0.00399972
0.00551401
-6.24123e-12
0.00202871
0.00587484
-6.15792e-12
0.00616858
-6.28661e-12
0.0168001
8.29776e-10
-1.14244e-16
0.0168001
4.49248e-09
-4.17015e-16
0.0168001
1.6739e-08
-1.20509e-15
0.0168
4.28629e-08
-2.44584e-15
0.0168
1.1854e-07
-6.67525e-15
0.0168
2.72579e-07
-1.36914e-14
0.0167998
7.04977e-07
-3.63794e-14
0.0167995
1.62551e-06
-8.4488e-14
0.0167983
4.03821e-06
-1.79202e-13
0.0167966
9.44029e-06
-5.18712e-13
0.0167883
2.56189e-05
-9.36235e-13
0.0167725
6.42889e-05
-2.97813e-12
0.0167185
0.000218003
-7.88351e-12
0.0165452
0.000680781
-2.46316e-11
0.015573
0.00398319
-6.79605e-11
0.0143738
0.00472839
8.31752e-12
0.0132153
0.00466431
9.01584e-13
0.0120047
0.00492789
-5.72288e-12
0.0107059
0.00528235
-6.06744e-12
0.00927717
0.00575673
-6.37312e-12
0.00770478
0.00628988
-6.31367e-12
0.005984
0.00683977
-6.15229e-12
0.00411459
0.00738093
-6.04823e-12
0.00209116
0.00789562
-5.93659e-12
0.00825784
-6.08448e-12
0.0168001
9.49141e-10
-1.06353e-16
0.0168001
5.13193e-09
-3.90669e-16
0.0168001
1.91239e-08
-1.11941e-15
0.0168
4.88863e-08
-2.2659e-15
0.0168
1.35554e-07
-6.12834e-15
0.0168
3.10704e-07
-1.24239e-14
0.0167998
8.13904e-07
-3.39394e-14
0.0167996
1.84094e-06
-7.18468e-14
0.0167987
4.80824e-06
-1.88816e-13
0.0167974
1.07425e-05
-4.04291e-13
0.0167904
3.17231e-05
-1.19401e-12
0.0167774
7.68902e-05
-2.88601e-12
0.0167192
0.000273202
-7.51648e-12
0.0165533
0.000840349
-2.5539e-11
0.0156527
0.00486112
-6.94132e-11
0.0144312
0.00595293
1.04472e-11
0.0132805
0.00581509
1.26439e-12
0.0120998
0.0061066
-5.65361e-12
0.0108405
0.00653931