/*--------------------------------*- C++ -*----------------------------------*\
| =========                 |                                                 |
| \\      /  F ield         | OpenFOAM: The Open Source CFD Toolbox           |
|  \\    /   O peration     | Version:  4.1                                   |
|   \\  /    A nd           | Web:      www.OpenFOAM.org                      |
|    \\/     M anipulation  |                                                 |
\*---------------------------------------------------------------------------*/
FoamFile
{
    version     2.0;
    format      ascii;
    class       volVectorField;
    location    "8.54";
    object      U;
}
// * * * * * * * * * * * * * * * * * * * * * * * * * * * * * * * * * * * * * //

dimensions      [0 1 -1 0 0 0 0];

internalField   nonuniform List<vector> 
52500
(
(2.99999 2.08801e-08 -0.00571426)
(2.99998 7.38069e-08 -0.00571443)
(2.99995 2.91006e-07 -0.00571468)
(2.99987 7.30028e-07 -0.00571546)
(2.9997 2.00723e-06 -0.00571691)
(2.99923 4.58041e-06 -0.00572132)
(2.9983 1.18788e-05 -0.00572979)
(2.99545 2.6724e-05 -0.00575372)
(2.9903 6.85666e-05 -0.00580832)
(2.97183 0.000154781 -0.0059274)
(2.93723 0.000399345 -0.00633867)
(2.81244 0.00100105 -0.00699889)
(2.46318 0.0028555 -0.00978749)
(1.64625 0.00727823 -0.0150273)
(0.710444 0.0196703 -0.0180657)
(0.530377 0.0207381 -0.0184595)
(0.567043 0.0221665 -0.0184976)
(0.569245 0.024388 -0.0185673)
(0.51955 0.026664 -0.0187453)
(0.434117 0.0289948 -0.018926)
(0.349202 0.0317504 -0.0191245)
(0.27809 0.0350584 -0.0192928)
(0.206816 0.0386129 -0.0194596)
(0.124967 0.0428239 -0.0196181)
(0.0557339 0.0490786 -0.0197818)
(2.99999 4.96105e-08 -0.00571426)
(2.99998 2.29967e-07 -0.00571442)
(2.99995 8.72527e-07 -0.00571467)
(2.99987 2.22088e-06 -0.00571545)
(2.99971 6.11046e-06 -0.00571688)
(2.99924 1.39608e-05 -0.00572124)
(2.99832 3.62709e-05 -0.00572962)
(2.9955 8.14165e-05 -0.00575327)
(2.9904 0.000210076 -0.0058073)
(2.9721 0.000471517 -0.00592491)
(2.93795 0.00123248 -0.00633293)
(2.81431 0.00306252 -0.00698175)
(2.46883 0.00887705 -0.00975272)
(1.65857 0.0226086 -0.0149499)
(0.718088 0.0599999 -0.0179703)
(0.528474 0.0605175 -0.0183885)
(0.566063 0.0623048 -0.0184229)
(0.568737 0.0667044 -0.0184852)
(0.518747 0.0710444 -0.018655)
(0.433214 0.0754266 -0.0188271)
(0.34829 0.0803795 -0.0190178)
(0.276653 0.0859548 -0.0191745)
(0.204302 0.0912108 -0.0193337)
(0.121089 0.0964242 -0.0194776)
(0.0515703 0.102072 -0.0196244)
(2.99999 7.17922e-08 -0.00571426)
(2.99998 3.9573e-07 -0.00571442)
(2.99995 1.47075e-06 -0.00571466)
(2.99987 3.772e-06 -0.00571542)
(2.99971 1.03758e-05 -0.00571682)
(2.99925 2.37099e-05 -0.00572108)
(2.99835 6.1628e-05 -0.00572927)
(2.99559 0.000137962 -0.00575236)
(2.99062 0.000357373 -0.00580525)
(2.97266 0.000797402 -0.00591995)
(2.93945 0.00210441 -0.00632113)
(2.81829 0.00517826 -0.00694778)
(2.481 0.0152327 -0.00968102)
(1.68592 0.0387884 -0.014801)
(0.736116 0.103798 -0.017834)
(0.526399 0.102756 -0.0183071)
(0.566416 0.104776 -0.0183367)
(0.570681 0.112337 -0.0183907)
(0.52076 0.120074 -0.0185528)
(0.435707 0.12845 -0.0187119)
(0.351335 0.137637 -0.0188938)
(0.279517 0.147538 -0.0190438)
(0.206294 0.157081 -0.0191864)
(0.121815 0.165967 -0.0193283)
(0.0506932 0.173361 -0.0194615)
(2.99999 1.03875e-07 -0.00571426)
(2.99998 5.77253e-07 -0.00571441)
(2.99995 2.14774e-06 -0.00571465)
(2.99988 5.5213e-06 -0.00571538)
(2.99972 1.52089e-05 -0.00571673)
(2.99928 3.49137e-05 -0.00572084)
(2.99841 9.01841e-05 -0.00572874)
(2.99574 0.000206421 -0.005751)
(2.99096 0.000511512 -0.00580215)
(2.97353 0.00119722 -0.00591253)
(2.94171 0.0029636 -0.00630324)
(2.82437 0.00732009 -0.00689735)
(2.49964 0.021539 -0.00957157)
(1.72851 0.0548332 -0.0145749)
(0.764037 0.148497 -0.0176581)
(0.523268 0.144805 -0.0182183)
(0.567918 0.146655 -0.0182417)
(0.575254 0.157376 -0.0182823)
(0.525943 0.168604 -0.0184305)
(0.442048 0.18119 -0.0185869)
(0.358665 0.195045 -0.018741)
(0.286953 0.209863 -0.0188855)
(0.212882 0.224392 -0.0190258)
(0.126508 0.237718 -0.0191443)
(0.0520648 0.247407 -0.0192884)
(3 1.34332e-07 -0.00571426)
(2.99998 7.45354e-07 -0.0057144)
(2.99996 2.77993e-06 -0.00571463)
(2.99988 7.15735e-06 -0.00571532)
(2.99974 1.97595e-05 -0.0057166)
(2.99932 4.55402e-05 -0.00572048)
(2.9985 0.000117406 -0.00572801)
(2.99594 0.000272381 -0.00574879)
(2.99145 0.000661086 -0.00579821)
(2.97467 0.0015712 -0.00590061)
(2.94469 0.00389731 -0.00628147)
(2.83252 0.0094597 -0.0068319)
(2.52448 0.0273828 -0.00942538)
(1.78672 0.0708654 -0.0142631)
(0.801469 0.194345 -0.0174378)
(0.518474 0.186902 -0.0181233)
(0.570166 0.188212 -0.0181379)
(0.582014 0.201858 -0.0181636)
(0.533739 0.216381 -0.0182948)
(0.45171 0.233133 -0.0184423)
(0.369829 0.251741 -0.0185953)
(0.29857 0.271848 -0.0186985)
(0.22363 0.292081 -0.0188291)
(0.134586 0.310727 -0.0189536)
(0.0555128 0.323483 -0.0190679)
(3 1.51828e-07 -0.00571426)
(2.99998 8.40874e-07 -0.00571439)
(2.99996 3.14015e-06 -0.0057146)
(2.99989 8.06881e-06 -0.00571525)
(2.99976 2.23214e-05 -0.00571644)
(2.99936 5.12919e-05 -0.00572005)
(2.9986 0.000133723 -0.00572712)
(2.99619 0.000303612 -0.00574611)
(2.99204 0.000778214 -0.00579337)
(2.97618 0.00174414 -0.00588615)
(2.94846 0.00482378 -0.0062505)
(2.84239 0.0111022 -0.00674934)
(2.55615 0.0339241 -0.00924743)
(1.8614 0.087325 -0.013863)
(0.846932 0.242697 -0.0171729)
(0.510523 0.229873 -0.0180237)
(0.57245 0.229636 -0.0180341)
(0.590547 0.245821 -0.0180305)
(0.543989 0.263401 -0.0181585)
(0.464766 0.28452 -0.0182586)
(0.385141 0.308478 -0.0184112)
(0.31488 0.334806 -0.018517)
(0.239436 0.362135 -0.0186019)
(0.146961 0.388314 -0.0187065)
(0.0611548 0.406508 -0.0188402)
(3 1.55217e-07 -0.00571425)
(2.99998 8.5828e-07 -0.00571438)
(2.99996 3.20214e-06 -0.00571457)
(2.9999 8.18167e-06 -0.00571517)
(2.99977 2.26388e-05 -0.00571627)
(2.99941 5.14466e-05 -0.00571961)
(2.99871 0.000137223 -0.00572615)
(2.99648 0.000293261 -0.00574359)
(2.99266 0.000851919 -0.00578744)
(2.97799 0.00168447 -0.00587237)
(2.9527 0.00563172 -0.00620924)
(2.85483 0.0118163 -0.00666412)
(2.59548 0.0421371 -0.00898386)
(1.95444 0.103625 -0.0133395)
(0.905396 0.293286 -0.016833)
(0.504084 0.275095 -0.0179062)
(0.577748 0.271645 -0.0179161)
(0.602937 0.28935 -0.0178946)
(0.558276 0.309381 -0.0180158)
(0.482605 0.334836 -0.018103)
(0.406112 0.364856 -0.0181869)
(0.33761 0.398878 -0.0182775)
(0.262223 0.435525 -0.0183645)
(0.166237 0.47268 -0.0184302)
(0.0711573 0.501268 -0.0185166)
(3 1.62262e-07 -0.00571425)
(2.99999 8.97372e-07 -0.00571437)
(2.99997 3.33813e-06 -0.00571455)
(2.99991 8.51215e-06 -0.0057151)
(2.99979 2.34866e-05 -0.00571611)
(2.99946 5.30854e-05 -0.00571921)
(2.9988 0.000142857 -0.00572516)
(2.99679 0.00029406 -0.00574183)
(2.99321 0.00092648 -0.00578032)
(2.9801 0.0016038 -0.00586243)
(2.95712 0.00646299 -0.00615422)
(2.8703 0.0123962 -0.00658538)
(2.64262 0.0485987 -0.00859794)
(2.06712 0.116575 -0.0126422)
(0.985659 0.339432 -0.0164058)
(0.510255 0.322355 -0.0177362)
(0.591929 0.315994 -0.0177422)
(0.62312 0.333012 -0.0177058)
(0.579719 0.354307 -0.0178199)
(0.508018 0.384118 -0.0179191)
(0.435119 0.420877 -0.0179911)
(0.369273 0.463924 -0.0180114)
(0.295386 0.512601 -0.0180466)
(0.196785 0.566342 -0.018083)
(0.0887502 0.615987 -0.0181451)
(3 1.89171e-07 -0.00571425)
(2.99999 1.04085e-06 -0.00571436)
(2.99997 3.86132e-06 -0.00571452)
(2.99992 9.88804e-06 -0.00571502)
(2.99981 2.71581e-05 -0.00571594)
(2.99951 6.19099e-05 -0.00571875)
(2.99891 0.000163118 -0.00572407)
(2.99713 0.000351479 -0.00573972)
(2.99375 0.00100889 -0.00577249)
(2.98253 0.00190027 -0.00585283)
(2.96191 0.00683744 -0.00608827)
(2.88725 0.0130567 -0.00649686)
(2.6944 0.0496045 -0.00816858)
(2.19508 0.119735 -0.0118049)
(1.09077 0.362003 -0.0158988)
(0.54023 0.368864 -0.0175365)
(0.619742 0.366615 -0.0175567)
(0.653553 0.377902 -0.0174922)
(0.611424 0.398798 -0.0175904)
(0.544328 0.432461 -0.0176454)
(0.475366 0.476701 -0.0177231)
(0.413011 0.529157 -0.0177342)
(0.343751 0.59209 -0.0176996)
(0.248328 0.671425 -0.0176258)
(0.1228 0.764557 -0.0175142)
(3 3.58596e-07 -0.00571425)
(2.99999 6.92831e-07 -0.00571434)
(2.99997 5.31418e-06 -0.00571448)
(2.99993 8.10257e-06 -0.00571491)
(2.99983 3.6259e-05 -0.00571572)
(2.99957 5.25554e-05 -0.00571815)
(2.99904 0.000218648 -0.00572286)
(2.99749 0.000297094 -0.00573631)
(2.9945 0.0013507 -0.0057651)
(2.9849 0.00140868 -0.00583588)
(2.96661 0.00916214 -0.00603306)
(2.90359 0.0072087 -0.0064119)
(2.74315 0.0585452 -0.00776329)
(2.3195 0.0955878 -0.0111012)
(1.22026 0.338504 -0.0152306)
(0.606597 0.407805 -0.0171787)
(0.660622 0.425637 -0.0172483)
(0.69048 0.423354 -0.017283)
(0.653469 0.444586 -0.0173842)
(0.592832 0.479956 -0.0173997)
(0.52849 0.530758 -0.0173995)
(0.471355 0.59204 -0.0173648)
(0.414467 0.673986 -0.017261)
(0.337638 0.795911 -0.0170444)
(0.188979 1.00258 -0.0166145)
(2.99999 1.40358e-08 -2.49297e-09)
(2.99998 7.62878e-08 -8.78017e-09)
(2.99995 2.83494e-07 -1.0008e-08)
(2.99987 7.27473e-07 -1.59892e-08)
(2.9997 1.99961e-06 -1.6208e-08)
(2.99923 4.57622e-06 -2.16165e-08)
(2.9983 1.18719e-05 -2.20759e-08)
(2.99545 2.67187e-05 -3.01837e-08)
(2.99029 6.8558e-05 -3.1981e-08)
(2.97182 0.000154766 -6.53106e-08)
(2.93722 0.000399331 -4.47488e-08)
(2.81242 0.00100104 -2.17723e-07)
(2.46313 0.00285546 -1.87266e-07)
(1.64615 0.00727839 -6.86521e-07)
(0.710398 0.0196698 -6.60357e-07)
(0.530408 0.0207381 -2.24756e-08)
(0.567063 0.0221666 -5.57589e-08)
(0.569256 0.0243881 -1.00826e-07)
(0.51956 0.0266642 -1.05255e-07)
(0.434126 0.0289953 -1.07739e-07)
(0.34921 0.0317511 -1.07742e-07)
(0.278097 0.0350593 -1.11262e-07)
(0.20682 0.038614 -1.15593e-07)
(0.124969 0.0428251 -1.1896e-07)
(0.055735 0.0490798 -1.21269e-07)
(2.99999 4.27902e-08 -2.6299e-09)
(2.99998 2.32703e-07 -8.61728e-09)
(2.99995 8.65085e-07 -1.01659e-08)
(2.99987 2.21805e-06 -1.59174e-08)
(2.9997 6.1019e-06 -1.62901e-08)
(2.99923 1.39542e-05 -2.15653e-08)
(2.99831 3.6258e-05 -2.21201e-08)
(2.99549 8.13973e-05 -3.01678e-08)
(2.9904 0.000210039 -3.20488e-08)
(2.97209 0.000471435 -6.54704e-08)
(2.93794 0.00123238 -4.47208e-08)
(2.8143 0.0030624 -2.17737e-07)
(2.46878 0.00887679 -1.87332e-07)
(1.65847 0.022609 -6.85648e-07)
(0.718043 0.0599983 -6.65537e-07)
(0.528506 0.0605178 -1.93783e-08)
(0.566083 0.0623056 -5.49073e-08)
(0.568749 0.0667051 -1.00663e-07)
(0.518757 0.0710453 -1.04563e-07)
(0.433224 0.075428 -1.06516e-07)
(0.348299 0.0803813 -1.0664e-07)
(0.27666 0.0859568 -1.10371e-07)
(0.204308 0.091213 -1.14674e-07)
(0.121092 0.0964264 -1.18115e-07)
(0.0515717 0.102074 -1.20457e-07)
(2.99999 7.27812e-08 -2.63287e-09)
(2.99998 3.96089e-07 -8.61233e-09)
(2.99995 1.47201e-06 -1.01722e-08)
(2.99987 3.77187e-06 -1.5926e-08)
(2.99971 1.03747e-05 -1.63075e-08)
(2.99925 2.37052e-05 -2.15974e-08)
(2.99835 6.16158e-05 -2.21964e-08)
(2.99559 0.000137938 -3.03283e-08)
(2.99062 0.000357316 -3.23458e-08)
(2.97266 0.000797321 -6.62524e-08)
(2.93944 0.00210426 -4.51108e-08)
(2.81828 0.00517825 -2.18431e-07)
(2.48096 0.0152322 -1.88011e-07)
(1.68582 0.0387886 -6.84715e-07)
(0.736072 0.103794 -6.7936e-07)
(0.526433 0.102755 -1.1594e-08)
(0.566436 0.104777 -5.26079e-08)
(0.570693 0.112338 -1.00442e-07)
(0.520771 0.120075 -1.03729e-07)
(0.435718 0.128452 -1.04787e-07)
(0.351344 0.13764 -1.05294e-07)
(0.279525 0.147542 -1.0929e-07)
(0.2063 0.157085 -1.13477e-07)
(0.121818 0.165972 -1.17205e-07)
(0.0506946 0.173365 -1.19477e-07)
(2.99999 1.0637e-07 -2.61361e-09)
(2.99998 5.77194e-07 -8.62733e-09)
(2.99995 2.14975e-06 -1.01555e-08)
(2.99988 5.51842e-06 -1.59444e-08)
(2.99972 1.51984e-05 -1.6318e-08)
(2.99928 3.48797e-05 -2.1641e-08)
(2.99841 9.01055e-05 -2.22788e-08)
(2.99574 0.00020614 -3.04135e-08)
(2.99095 0.000511308 -3.27287e-08)
(2.97352 0.00119556 -6.60704e-08)
(2.9417 0.00296383 -4.59456e-08)
(2.82436 0.0073186 -2.16091e-07)
(2.49959 0.02154 -1.91825e-07)
(1.7284 0.0548351 -6.88519e-07)
(0.76399 0.148494 -7.12143e-07)
(0.5233 0.144806 -1.46598e-09)
(0.567936 0.146656 -4.95782e-08)
(0.575264 0.157377 -9.92819e-08)
(0.525953 0.168605 -1.01542e-07)
(0.442058 0.181193 -1.01358e-07)
(0.358675 0.195049 -1.02328e-07)
(0.286961 0.209868 -1.07345e-07)
(0.212888 0.224397 -1.11191e-07)
(0.126512 0.237724 -1.15151e-07)
(0.0520663 0.247412 -1.17753e-07)
(2.99999 1.37792e-07 -2.5831e-09)
(2.99998 7.46401e-07 -8.65734e-09)
(2.99996 2.78668e-06 -1.0144e-08)
(2.99988 7.15483e-06 -1.60171e-08)
(2.99974 1.97723e-05 -1.647e-08)
(2.99931 4.55408e-05 -2.20698e-08)
(2.99849 0.000117414 -2.31058e-08)
(2.99594 0.000272382 -3.43723e-08)
(2.99145 0.00066107 -3.11849e-08)
(2.97467 0.0015715 -9.42777e-08)
(2.94468 0.00389582 -1.40281e-08)
(2.83251 0.00946078 -2.45547e-07)
(2.52445 0.0273804 -1.54088e-07)
(1.78662 0.070863 -6.86037e-07)
(0.801435 0.194336 -7.42258e-07)
(0.518521 0.1869 1.10469e-08)
(0.570192 0.188213 -5.00701e-08)
(0.58203 0.201859 -1.00745e-07)
(0.533754 0.216384 -1.00895e-07)
(0.451725 0.233137 -9.83793e-08)
(0.369842 0.251746 -9.90537e-08)
(0.29858 0.271854 -1.04645e-07)
(0.223638 0.292089 -1.09338e-07)
(0.134591 0.310735 -1.13204e-07)
(0.0555146 0.323491 -1.15613e-07)
(3 1.55465e-07 -2.54442e-09)
(2.99998 8.43534e-07 -8.66732e-09)
(2.99996 3.14844e-06 -1.00573e-08)
(2.99989 8.07123e-06 -1.61159e-08)
(2.99975 2.23503e-05 -1.60575e-08)
(2.99936 5.13313e-05 -2.18366e-08)
(2.9986 0.000133819 -2.21733e-08)
(2.99619 0.000303918 -3.05345e-08)
(2.99204 0.000778415 -3.31163e-08)
(2.97618 0.00174625 -5.98624e-08)
(2.94845 0.00482212 -7.8406e-08)
(2.84237 0.0111055 -1.75887e-07)
(2.5561 0.03392 -2.26696e-07)
(1.86129 0.087321 -7.18438e-07)
(0.84688 0.242681 -8.06233e-07)
(0.510557 0.229866 3.82937e-08)
(0.572468 0.229635 -3.69343e-08)
(0.590557 0.245822 -9.64182e-08)
(0.544001 0.263403 -9.65135e-08)
(0.46478 0.284525 -9.33048e-08)
(0.385155 0.308485 -9.42139e-08)
(0.314891 0.334814 -9.91643e-08)
(0.239444 0.362145 -1.04951e-07)
(0.146966 0.388325 -1.08536e-07)
(0.0611567 0.406518 -1.13023e-07)
(3 1.57942e-07 -2.5102e-09)
(2.99998 8.61471e-07 -8.66824e-09)
(2.99996 3.20179e-06 -1.00416e-08)
(2.9999 8.18963e-06 -1.6125e-08)
(2.99977 2.26287e-05 -1.59842e-08)
(2.99941 5.1438e-05 -2.17964e-08)
(2.99871 0.000137185 -2.20252e-08)
(2.99648 0.000293095 -3.01291e-08)
(2.99265 0.000851887 -3.29572e-08)
(2.97799 0.00168294 -5.76759e-08)
(2.95269 0.0056337 -7.89537e-08)
(2.85481 0.0118145 -1.66856e-07)
(2.59543 0.0421416 -2.52848e-07)
(1.95431 0.103632 -7.31681e-07)
(0.905329 0.293282 -9.07898e-07)
(0.504101 0.275088 5.00513e-08)
(0.577752 0.27164 -2.86157e-08)
(0.602937 0.289348 -9.13558e-08)
(0.558281 0.309382 -9.13407e-08)
(0.482614 0.33484 -8.68774e-08)
(0.406122 0.364863 -8.85324e-08)
(0.33762 0.398887 -9.37498e-08)
(0.26223 0.435536 -1.01132e-07)
(0.166242 0.472693 -1.04013e-07)
(0.0711593 0.501281 -1.08417e-07)
(3 1.64534e-07 -2.48971e-09)
(2.99999 9.0142e-07 -8.65105e-09)
(2.99996 3.33786e-06 -1.01262e-08)
(2.99991 8.5253e-06 -1.5962e-08)
(2.99979 2.34888e-05 -1.63719e-08)
(2.99945 5.31164e-05 -2.1848e-08)
(2.9988 0.000142912 -2.27105e-08)
(2.99678 0.000294232 -3.29923e-08)
(2.9932 0.000926747 -3.08152e-08)
(2.98009 0.0016043 -8.80038e-08)
(2.95711 0.00646491 -1.88644e-08)
(2.87028 0.012398 -2.3425e-07)
(2.64259 0.0486027 -1.52893e-07)
(2.06702 0.116585 -7.0829e-07)
(0.98561 0.339438 -9.62451e-07)
(0.510277 0.322344 2.02119e-08)
(0.591936 0.315982 -4.14943e-08)
(0.623121 0.333005 -8.90276e-08)
(0.579722 0.354306 -8.78612e-08)
(0.508024 0.384121 -8.25623e-08)
(0.435126 0.420884 -8.33352e-08)
(0.369281 0.463934 -8.71044e-08)
(0.295392 0.512615 -9.32943e-08)
(0.19679 0.566357 -9.82075e-08)
(0.0887521 0.616002 -1.03216e-07)
(3 1.88819e-07 -2.46475e-09)
(2.99999 1.04459e-06 -8.6267e-09)
(2.99997 3.85852e-06 -1.01224e-08)
(2.99991 9.88817e-06 -1.58745e-08)
(2.99981 2.7166e-05 -1.61548e-08)
(2.99951 6.19481e-05 -2.12768e-08)
(2.99891 0.000163232 -2.14958e-08)
(2.99713 0.00035189 -2.78559e-08)
(2.99375 0.00100933 -3.09281e-08)
(2.98253 0.00190309 -5.33589e-08)
(2.9619 0.00683791 -5.21079e-08)
(2.88723 0.0130636 -1.66789e-07)
(2.69436 0.0496079 -2.05981e-07)
(2.19497 0.119752 -6.55896e-07)
(1.0907 0.362046 -1.0262e-06)
(0.540223 0.368854 -6.84791e-08)
(0.619742 0.3666 -5.86574e-08)
(0.653552 0.377894 -7.58906e-08)
(0.611425 0.398795 -7.76479e-08)
(0.544332 0.432462 -7.73402e-08)
(0.475371 0.476706 -7.86994e-08)
(0.413017 0.529167 -8.29552e-08)
(0.343756 0.592103 -8.62783e-08)
(0.248332 0.671441 -9.17316e-08)
(0.122802 0.764574 -9.58821e-08)
(3 3.44493e-07 -2.49681e-09)
(2.99999 7.43549e-07 -8.57146e-09)
(2.99997 5.19898e-06 -1.02389e-08)
(2.99993 8.13407e-06 -1.5918e-08)
(2.99983 3.61236e-05 -1.62088e-08)
(2.99957 5.25977e-05 -2.12428e-08)
(2.99904 0.000218545 -2.11901e-08)
(2.99749 0.000297214 -2.7134e-08)
(2.9945 0.00135071 -2.95885e-08)
(2.98489 0.00140961 -4.28381e-08)
(2.96661 0.00916226 -5.49346e-08)
(2.90357 0.00721376 -1.24106e-07)
(2.74312 0.0585472 -1.77956e-07)
(2.31942 0.0956136 -5.13542e-07)
(1.22018 0.338548 -7.15042e-07)
(0.606573 0.407784 -3.18505e-07)
(0.66063 0.425618 -1.06894e-07)
(0.690486 0.423345 -5.15996e-08)
(0.653473 0.444583 -6.53963e-08)
(0.592836 0.479957 -7.07578e-08)
(0.528494 0.530763 -7.54377e-08)
(0.471358 0.59205 -7.80976e-08)
(0.414471 0.673999 -8.28725e-08)
(0.337641 0.795928 -8.84938e-08)
(0.18898 1.0026 -9.19018e-08)
(2.99999 1.40357e-08 -4.90885e-13)
(2.99998 7.62868e-08 -2.5316e-12)
(2.99995 2.83492e-07 -6.06713e-12)
(2.99987 7.27467e-07 -1.27449e-11)
(2.9997 1.99959e-06 -2.7124e-11)
(2.99923 4.57619e-06 -5.21614e-11)
(2.9983 1.18719e-05 -1.23018e-10)
(2.99545 2.67185e-05 -2.42131e-10)
(2.99029 6.85576e-05 -6.35171e-10)
(2.97182 0.000154765 -1.28386e-09)
(2.93722 0.00039933 -3.38759e-09)
(2.81242 0.00100104 -8.37705e-09)
(2.46313 0.00285545 -1.96707e-08)
(1.64614 0.00727837 -4.84571e-08)
(0.710393 0.0196697 -5.68652e-08)
(0.53041 0.0207381 1.18629e-09)
(0.567063 0.0221666 -1.54884e-09)
(0.569256 0.0243881 -5.60928e-09)
(0.51956 0.0266642 -5.97558e-09)
(0.434126 0.0289952 -6.13538e-09)
(0.34921 0.0317511 -6.00445e-09)
(0.278097 0.0350593 -6.10022e-09)
(0.20682 0.038614 -6.32463e-09)
(0.12497 0.0428252 -6.56546e-09)
(0.055735 0.0490798 -6.71782e-09)
(2.99999 4.27899e-08 -4.92263e-13)
(2.99998 2.327e-07 -2.54953e-12)
(2.99995 8.65078e-07 -6.10019e-12)
(2.99987 2.21803e-06 -1.28218e-11)
(2.9997 6.10185e-06 -2.72918e-11)
(2.99923 1.39541e-05 -5.25054e-11)
(2.99831 3.62578e-05 -1.23856e-10)
(2.99549 8.13968e-05 -2.43935e-10)
(2.9904 0.000210038 -6.39091e-10)
(2.97209 0.000471432 -1.2935e-09)
(2.93794 0.00123238 -3.40536e-09)
(2.8143 0.0030624 -8.39823e-09)
(2.46878 0.00887676 -1.97961e-08)
(1.65846 0.0226089 -4.8684e-08)
(0.718038 0.059998 -5.75424e-08)
(0.528508 0.0605177 1.51253e-09)
(0.566083 0.0623055 -1.44303e-09)
(0.568749 0.0667051 -5.61363e-09)
(0.518757 0.0710453 -5.95033e-09)
(0.433224 0.075428 -6.0789e-09)
(0.3483 0.0803813 -5.95951e-09)
(0.27666 0.0859568 -6.05995e-09)
(0.204308 0.091213 -6.27126e-09)
(0.121092 0.0964265 -6.51055e-09)
(0.0515718 0.102074 -6.63595e-09)
(2.99999 7.27806e-08 -4.97212e-13)
(2.99998 3.96087e-07 -2.57055e-12)
(2.99995 1.472e-06 -6.16931e-12)
(2.99987 3.77184e-06 -1.29724e-11)
(2.99971 1.03746e-05 -2.7697e-11)
(2.99925 2.3705e-05 -5.3345e-11)
(2.99835 6.16154e-05 -1.2599e-10)
(2.99559 0.000137937 -2.48508e-10)
(2.99062 0.000357314 -6.49263e-10)
(2.97266 0.000797317 -1.31701e-09)
(2.93944 0.00210425 -3.45372e-09)
(2.81827 0.00517824 -8.44758e-09)
(2.48095 0.0152321 -2.01049e-08)
(1.68581 0.0387885 -4.92857e-08)
(0.736067 0.103794 -5.93842e-08)
(0.526435 0.102755 2.24274e-09)
(0.566437 0.104777 -1.22786e-09)
(0.570693 0.112338 -5.65494e-09)
(0.520771 0.120075 -5.93931e-09)
(0.435718 0.128452 -5.99662e-09)
(0.351345 0.13764 -5.89283e-09)
(0.279525 0.147542 -6.0165e-09)
(0.2063 0.157085 -6.20416e-09)
(0.121818 0.165972 -6.47079e-09)
(0.0506947 0.173365 -6.53883e-09)
(2.99999 1.06368e-07 -5.04164e-13)
(2.99998 5.77186e-07 -2.60158e-12)
(2.99995 2.14971e-06 -6.26854e-12)
(2.99988 5.51833e-06 -1.31855e-11)
(2.99972 1.51981e-05 -2.82466e-11)
(2.99928 3.48791e-05 -5.44251e-11)
(2.99841 9.01042e-05 -1.28697e-10)
(2.99574 0.000206135 -2.5294e-10)
(2.99095 0.000511304 -6.63238e-10)
(2.97352 0.00119554 -1.33264e-09)
(2.9417 0.00296383 -3.52904e-09)
(2.82435 0.00731857 -8.47113e-09)
(2.49959 0.02154 -2.0622e-08)
(1.72839 0.054835 -5.03148e-08)
(0.763985 0.148493 -6.26099e-08)
(0.523302 0.144805 3.39988e-09)
(0.567937 0.146655 -8.84104e-10)
(0.575265 0.157377 -5.69027e-09)
(0.525953 0.168605 -5.90441e-09)
(0.442059 0.181193 -5.87382e-09)
(0.358675 0.19505 -5.76546e-09)
(0.286961 0.209868 -5.98841e-09)
(0.212888 0.224397 -6.07338e-09)
(0.126512 0.237724 -6.36986e-09)
(0.0520663 0.247413 -6.43486e-09)
(2.99999 1.37792e-07 -5.32326e-13)
(2.99998 7.46401e-07 -2.71169e-12)
(2.99996 2.78668e-06 -6.68316e-12)
(2.99988 7.15481e-06 -1.41392e-11)
(2.99974 1.97723e-05 -3.1049e-11)
(2.99931 4.55407e-05 -6.11555e-11)
(2.99849 0.000117414 -1.42484e-10)
(2.99594 0.000272381 -3.15399e-10)
(2.99145 0.000661068 -6.46878e-10)
(2.97467 0.0015715 -1.78255e-09)
(2.94468 0.00389579 -3.12663e-09)
(2.83251 0.00946076 -8.89823e-09)
(2.52444 0.0273804 -2.08111e-08)
(1.78661 0.0708628 -5.18875e-08)
(0.80143 0.194335 -6.73457e-08)
(0.518523 0.1869 4.7345e-09)
(0.570193 0.188213 -6.12308e-10)
(0.58203 0.201859 -5.70926e-09)
(0.533754 0.216383 -5.82534e-09)
(0.451725 0.233137 -5.70076e-09)
(0.369842 0.251746 -5.53954e-09)
(0.29858 0.271855 -5.89316e-09)
(0.223638 0.292089 -6.09402e-09)
(0.134591 0.310735 -6.36487e-09)
(0.0555147 0.323491 -6.37874e-09)
(3 1.55468e-07 -5.11161e-13)
(2.99998 8.43548e-07 -2.60831e-12)
(2.99996 3.1485e-06 -6.33964e-12)
(2.99989 8.07136e-06 -1.35154e-11)
(2.99975 2.23507e-05 -2.88294e-11)
(2.99936 5.13322e-05 -5.65242e-11)
(2.9986 0.000133821 -1.33083e-10)
(2.99619 0.000303925 -2.71367e-10)
(2.99204 0.00077842 -6.73998e-10)
(2.97618 0.00174628 -1.39695e-09)
(2.94845 0.00482211 -3.95859e-09)
(2.84237 0.0111055 -8.61541e-09)
(2.5561 0.0339197 -2.02263e-08)
(1.86128 0.0873207 -5.52713e-08)
(0.846875 0.24268 -7.29109e-08)
(0.51056 0.229866 6.32476e-09)
(0.572469 0.229634 -3.32809e-10)
(0.590557 0.245822 -5.70001e-09)
(0.544001 0.263403 -5.7166e-09)
(0.46478 0.284525 -5.48471e-09)
(0.385155 0.308485 -5.39111e-09)
(0.314891 0.334815 -5.60504e-09)
(0.239444 0.362145 -5.93333e-09)
(0.146966 0.388325 -6.11496e-09)
(0.0611567 0.406518 -6.35062e-09)
(3 1.57946e-07 -4.75618e-13)
(2.99998 8.61489e-07 -2.45128e-12)
(2.99996 3.20186e-06 -5.81896e-12)
(2.9999 8.18982e-06 -1.23841e-11)
(2.99977 2.26292e-05 -2.56341e-11)
(2.99941 5.14393e-05 -4.93175e-11)
(2.99871 0.000137188 -1.18479e-10)
(2.99648 0.000293104 -2.15511e-10)
(2.99265 0.000851896 -6.70307e-10)
(2.97799 0.00168299 -1.08977e-09)
(2.95269 0.00563369 -4.0957e-09)
(2.8548 0.0118147 -6.96124e-09)
(2.59542 0.0421412 -2.66399e-08)
(1.9543 0.103632 -5.60032e-08)
(0.905323 0.293281 -8.22178e-08)
(0.504103 0.275087 7.90353e-09)
(0.577752 0.271639 6.00711e-10)
(0.602937 0.289348 -5.30765e-09)
(0.558281 0.309382 -5.36298e-09)
(0.482614 0.33484 -5.11622e-09)
(0.406122 0.364863 -5.22561e-09)
(0.33762 0.398888 -5.49215e-09)
(0.26223 0.435537 -6.0106e-09)
(0.166242 0.472693 -6.10186e-09)
(0.0711593 0.501281 -6.33826e-09)
(3 1.64535e-07 -4.32686e-13)
(2.99999 9.01424e-07 -2.28943e-12)
(2.99996 3.33787e-06 -5.23945e-12)
(2.99991 8.52534e-06 -1.08785e-11)
(2.99979 2.34889e-05 -2.19092e-11)
(2.99945 5.31166e-05 -4.00931e-11)
(2.9988 0.000142912 -9.92099e-11)
(2.99678 0.000294233 -1.34449e-10)
(2.9932 0.00092675 -6.86987e-10)
(2.98009 0.00160431 -4.10478e-10)
(2.95711 0.00646491 -5.19998e-09)
(2.87028 0.012398 -5.44789e-09)
(2.64258 0.0486029 -2.87006e-08)
(2.067 0.116585 -5.70843e-08)
(0.985602 0.339437 -9.26993e-08)
(0.510277 0.322343 6.77246e-09)
(0.591935 0.31598 1.37697e-09)
(0.62312 0.333005 -4.53981e-09)
(0.579722 0.354305 -4.79203e-09)
(0.508024 0.384121 -4.82345e-09)
(0.435126 0.420884 -4.92137e-09)
(0.369281 0.463934 -5.23473e-09)
(0.295392 0.512615 -5.7598e-09)
(0.196789 0.566357 -6.19718e-09)
(0.088752 0.616002 -6.53529e-09)
(3 1.88819e-07 -4.56428e-13)
(2.99999 1.04459e-06 -2.37183e-12)
(2.99997 3.85853e-06 -5.59366e-12)
(2.99991 9.88819e-06 -1.17323e-11)
(2.99981 2.71661e-05 -2.45188e-11)
(2.99951 6.19482e-05 -4.70081e-11)
(2.99891 0.000163233 -1.10935e-10)
(2.99713 0.000351889 -2.14327e-10)
(2.99375 0.00100934 -6.20143e-10)
(2.98253 0.00190308 -9.75208e-10)
(2.9619 0.00683801 -4.221e-09)
(2.88723 0.0130637 -6.21561e-09)
(2.69435 0.0496087 -2.59603e-08)
(2.19496 0.119753 -5.55147e-08)
(1.09069 0.362051 -1.02047e-07)
(0.54022 0.368853 -5.8726e-10)
(0.61974 0.366598 -5.69908e-10)
(0.65355 0.377893 -3.85032e-09)
(0.611423 0.398795 -4.26989e-09)
(0.544331 0.432462 -4.61536e-09)
(0.47537 0.476706 -4.64543e-09)
(0.413016 0.529167 -5.15931e-09)
(0.343755 0.592103 -5.60226e-09)
(0.248331 0.671441 -6.40774e-09)
(0.122801 0.764574 -6.97173e-09)
(3 3.44493e-07 -4.22553e-13)
(2.99999 7.43569e-07 -2.22344e-12)
(2.99997 5.19902e-06 -5.07379e-12)
(2.99993 8.13421e-06 -1.05779e-11)
(2.99983 3.6124e-05 -2.09524e-11)
(2.99957 5.25986e-05 -3.94475e-11)
(2.99904 0.000218548 -8.79512e-11)
(2.99749 0.000297219 -1.66542e-10)
(2.9945 0.00135074 -4.54924e-10)
(2.98489 0.00140963 -7.96177e-10)
(2.96661 0.00916243 -3.07865e-09)
(2.90357 0.00721389 -3.83023e-09)
(2.74312 0.0585481 -1.92497e-08)
(2.31941 0.0956161 -4.06952e-08)
(1.22017 0.338554 -6.80614e-08)
(0.606569 0.407783 -2.62052e-08)
(0.660628 0.425616 -6.63053e-09)
(0.690485 0.423344 -3.5157e-09)
(0.653471 0.444582 -4.07868e-09)
(0.592834 0.479957 -4.4974e-09)
(0.528493 0.530763 -4.86975e-09)
(0.471358 0.59205 -5.26428e-09)
(0.41447 0.673999 -6.07776e-09)
(0.33764 0.795928 -7.32899e-09)
(0.18898 1.0026 -8.42426e-09)
(2.99999 1.40357e-08 -3.93769e-14)
(2.99998 7.62868e-08 -1.75304e-13)
(2.99995 2.83491e-07 -5.79361e-13)
(2.99987 7.27467e-07 -1.25225e-12)
(2.9997 1.99959e-06 -3.55783e-12)
(2.99923 4.57618e-06 -7.28112e-12)
(2.9983 1.18719e-05 -2.04476e-11)
(2.99545 2.67185e-05 -4.18415e-11)
(2.99029 6.85576e-05 -1.17376e-10)
(2.97182 0.000154765 -2.40979e-10)
(2.93722 0.000399329 -6.533e-10)
(2.81242 0.00100104 -1.62204e-09)
(2.46313 0.00285545 -3.85898e-09)
(1.64614 0.00727837 -9.5167e-09)
(0.710393 0.0196697 -1.12031e-08)
(0.53041 0.0207381 3.74194e-10)
(0.567063 0.0221666 -1.15332e-10)
(0.569256 0.0243881 -8.54561e-10)
(0.51956 0.0266642 -9.06919e-10)
(0.434126 0.0289952 -9.10789e-10)
(0.34921 0.0317511 -8.84692e-10)
(0.278097 0.0350593 -9.14129e-10)
(0.20682 0.038614 -9.67229e-10)
(0.12497 0.0428252 -1.01622e-09)
(0.055735 0.0490798 -1.04557e-09)
(2.99999 4.27899e-08 -3.97177e-14)
(2.99998 2.327e-07 -1.76884e-13)
(2.99995 8.65078e-07 -5.84337e-13)
(2.99987 2.21803e-06 -1.26314e-12)
(2.9997 6.10185e-06 -3.58711e-12)
(2.99923 1.39541e-05 -7.34162e-12)
(2.99831 3.62578e-05 -2.06019e-11)
(2.99549 8.13968e-05 -4.21747e-11)
(2.9904 0.000210038 -1.18115e-10)
(2.97209 0.000471432 -2.42784e-10)
(2.93794 0.00123238 -6.56778e-10)
(2.8143 0.0030624 -1.62603e-09)
(2.46878 0.00887675 -3.88408e-09)
(1.65846 0.0226089 -9.56246e-09)
(0.718037 0.0599979 -1.13395e-08)
(0.528508 0.0605176 4.35699e-10)
(0.566083 0.0623055 -9.6321e-11)
(0.568749 0.0667051 -8.57006e-10)
(0.518757 0.0710453 -9.03822e-10)
(0.433224 0.075428 -9.01823e-10)
(0.3483 0.0803813 -8.7854e-10)
(0.27666 0.0859568 -9.11208e-10)
(0.204308 0.091213 -9.63666e-10)
(0.121092 0.0964265 -1.01363e-09)
(0.0515718 0.102074 -1.04188e-09)
(2.99999 7.27806e-08 -4.05644e-14)
(2.99998 3.96086e-07 -1.80715e-13)
(2.99995 1.472e-06 -5.9681e-13)
(2.99987 3.77184e-06 -1.29045e-12)
(2.99971 1.03746e-05 -3.66133e-12)
(2.99925 2.3705e-05 -7.49576e-12)
(2.99835 6.16154e-05 -2.09976e-11)
(2.99559 0.000137937 -4.30245e-11)
(2.99062 0.000357314 -1.20033e-10)
(2.97266 0.000797317 -2.47197e-10)
(2.93944 0.00210425 -6.66179e-10)
(2.81827 0.00517824 -1.6353e-09)
(2.48095 0.0152321 -3.94545e-09)
(1.68581 0.0387885 -9.68269e-09)
(0.736067 0.103793 -1.1708e-08)
(0.526435 0.102755 5.74029e-10)
(0.566437 0.104777 -5.66792e-11)
(0.570693 0.112338 -8.68242e-10)
(0.520771 0.120075 -9.05792e-10)
(0.435718 0.128452 -8.91254e-10)
(0.351345 0.13764 -8.71047e-10)
(0.279525 0.147542 -9.13269e-10)
(0.2063 0.157085 -9.6354e-10)
(0.121818 0.165972 -1.01614e-09)
(0.0506947 0.173365 -1.04152e-09)
(2.99999 1.06368e-07 -4.18545e-14)
(2.99998 5.77185e-07 -1.86734e-13)
(2.99995 2.14971e-06 -6.15299e-13)
(2.99988 5.51833e-06 -1.33e-12)
(2.99972 1.51981e-05 -3.76245e-12)
(2.99928 3.48791e-05 -7.69322e-12)
(2.99841 9.0104e-05 -2.14965e-11)
(2.99574 0.000206135 -4.38188e-11)
(2.99095 0.000511304 -1.22679e-10)
(2.97352 0.00119553 -2.49877e-10)
(2.9417 0.00296382 -6.81032e-10)
(2.82435 0.00731856 -1.63887e-09)
(2.49959 0.02154 -4.04811e-09)
(1.72839 0.054835 -9.88656e-09)
(0.763984 0.148493 -1.23503e-08)
(0.523303 0.144805 7.9315e-10)
(0.567937 0.146655 6.62639e-12)
(0.575264 0.157377 -8.79981e-10)
(0.525953 0.168605 -9.05476e-10)
(0.442059 0.181193 -8.78628e-10)
(0.358675 0.19505 -8.56978e-10)
(0.286961 0.209868 -9.14763e-10)
(0.212888 0.224397 -9.61724e-10)
(0.126512 0.237724 -1.01715e-09)
(0.0520663 0.247413 -1.04449e-09)
(2.99999 1.37792e-07 -4.72322e-14)
(2.99998 7.46401e-07 -2.08169e-13)
(2.99996 2.78668e-06 -6.94646e-13)
(2.99988 7.15481e-06 -1.51289e-12)
(2.99974 1.97723e-05 -4.29894e-12)
(2.99931 4.55406e-05 -8.9905e-12)
(2.99849 0.000117414 -2.41358e-11)
(2.99594 0.000272381 -5.599e-11)
(2.99145 0.000661068 -1.19146e-10)
(2.97467 0.0015715 -3.38148e-10)
(2.94468 0.00389579 -6.0076e-10)
(2.83251 0.00946076 -1.72331e-09)
(2.52444 0.0273804 -4.08363e-09)
(1.78661 0.0708628 -1.01966e-08)
(0.801429 0.194335 -1.32892e-08)
(0.518523 0.1869 1.04559e-09)
(0.570193 0.188213 5.56362e-11)
(0.58203 0.201859 -8.91438e-10)
(0.533754 0.216383 -9.00851e-10)
(0.451725 0.233137 -8.57541e-10)
(0.369842 0.251746 -8.39469e-10)
(0.29858 0.271855 -9.14444e-10)
(0.223638 0.292089 -9.78263e-10)
(0.134591 0.310735 -1.03051e-09)
(0.0555147 0.323491 -1.0573e-09)
(3 1.55468e-07 -4.30064e-14)
(2.99998 8.43549e-07 -1.91058e-13)
(2.99996 3.1485e-06 -6.33462e-13)
(2.99989 8.07138e-06 -1.36921e-12)
(2.99975 2.23507e-05 -3.90432e-12)
(2.99936 5.13323e-05 -8.04955e-12)
(2.9986 0.000133821 -2.22996e-11)