/*--------------------------------*- C++ -*----------------------------------*\
| =========                 |                                                 |
| \\      /  F ield         | OpenFOAM: The Open Source CFD Toolbox           |
|  \\    /   O peration     | Version:  4.1                                   |
|   \\  /    A nd           | Web:      www.OpenFOAM.org                      |
|    \\/     M anipulation  |                                                 |
\*---------------------------------------------------------------------------*/
FoamFile
{
    version     2.0;
    format      ascii;
    class       surfaceScalarField;
    location    "9.72";
    object      phi;
}
// * * * * * * * * * * * * * * * * * * * * * * * * * * * * * * * * * * * * * //

dimensions      [1 0 -1 0 0 0 0];

internalField   nonuniform List<scalar> 
150500
(
0.0168001
1.76929e-10
-3.27427e-12
0.0168001
9.74171e-10
-1.16329e-11
0.0168001
3.51923e-09
-1.34126e-11
0.0168
8.99506e-09
-2.14929e-11
0.0168
2.47017e-08
-2.20046e-11
0.0168
5.63102e-08
-2.95286e-11
0.0167998
1.48751e-07
-3.15514e-11
0.0167994
3.24266e-07
-4.31801e-11
0.0167983
9.15903e-07
-5.93215e-11
0.0167964
1.9049e-06
-1.00028e-10
0.016789
6.14267e-06
-1.98317e-10
0.0167724
1.55713e-05
-5.39247e-10
0.0167119
5.66353e-05
-1.14377e-09
0.0165085
0.00019053
-4.4198e-09
0.0154159
0.00106095
-8.2093e-09
0.0142658
0.00114921
8.39803e-10
0.0131012
0.0011626
3.9109e-10
0.0118614
0.00123524
-5.00633e-10
0.010535
0.00132081
-6.48666e-10
0.00910162
0.00142857
-7.67128e-10
0.00754462
0.00155359
-5.36098e-10
0.00585785
0.00168383
-3.37801e-10
0.00404799
0.00180729
-1.9203e-10
0.00210638
0.00193925
-1.30511e-11
0.00210387
1.91607e-10
0.0168001
3.69196e-10
-3.28438e-12
0.0168001
2.00264e-09
-1.16882e-11
0.0168001
7.20212e-09
-1.34129e-11
0.0168
1.84012e-08
-2.1511e-11
0.0168
5.05549e-08
-2.2001e-11
0.0167999
1.15063e-07
-2.95174e-11
0.0167998
3.04351e-07
-3.14915e-11
0.0167994
6.58884e-07
-4.30026e-11
0.0167982
1.88224e-06
-5.90091e-11
0.0167962
3.833e-06
-9.87519e-11
0.0167886
1.26653e-05
-1.96756e-10
0.0167718
3.12588e-05
-5.27962e-10
0.0167092
0.000115359
-1.127e-09
0.0165068
0.000380337
-4.3155e-09
0.0154186
0.00211721
-8.12216e-09
0.0142633
0.00230378
8.29148e-10
0.0131118
0.00231205
3.6447e-10
0.0118826
0.00245993
-5.26695e-10
0.010562
0.0026358
-6.61745e-10
0.00911662
0.00286916
-7.62652e-10
0.0075404
0.00312637
-5.29479e-10
0.00583079
0.00339062
-3.48346e-10
0.00398826
0.00364692
-2.1911e-10
0.0020289
0.0038961
-6.47039e-11
0.00413031
1.00927e-10
0.0168001
6.54615e-10
-3.30918e-12
0.0168001
2.97367e-09
-1.17804e-11
0.0168
1.13542e-08
-1.34299e-11
0.0168
2.8741e-08
-2.15254e-11
0.0168
7.92061e-08
-2.19967e-11
0.0167999
1.80595e-07
-2.9482e-11
0.0167997
4.74312e-07
-3.13791e-11
0.0167993
1.04679e-06
-4.26511e-11
0.0167981
2.86096e-06
-5.83596e-11
0.0167958
6.14088e-06
-9.55607e-11
0.0167887
1.85974e-05
-1.92988e-10
0.0167714
4.75279e-05
-5.03311e-10
0.016712
0.000170793
-1.0884e-09
0.0165302
0.000550043
-4.10565e-09
0.0154933
0.00312174
-8.0519e-09
0.014338
0.00345833
7.43295e-10
0.0131909
0.00345735
2.83642e-10
0.0119682
0.00367783
-5.5895e-10
0.0106519
0.0039463
-6.66749e-10
0.00920444
0.00431187
-7.3137e-10
0.00761675
0.00471055
-5.18034e-10
0.00589055
0.00511372
-3.81362e-10
0.00402576
0.00550888
-2.8985e-10
0.00204066
0.00587854
-1.91433e-10
0.00616819
-9.71575e-11
0.0168001
7.53103e-10
-3.53926e-12
0.0168001
4.17872e-09
-1.15959e-11
0.0168
1.54759e-08
-1.37073e-11
0.0168
3.97262e-08
-2.14549e-11
0.0168
1.09432e-07
-2.22181e-11
0.0167999
2.50486e-07
-2.9606e-11
0.0167997
6.53813e-07
-3.18222e-11
0.0167993
1.47054e-06
-4.47596e-11
0.0167981
3.84911e-06
-5.62026e-11
0.0167954
8.71861e-06
-1.16072e-10
0.0167887
2.41325e-05
-1.426e-10
0.0167716
6.37096e-05
-5.47501e-10
0.0167141
0.000223606
-9.32301e-10
0.0165532
0.000700102
-3.43115e-09
0.0155674
0.00407406
-7.71682e-09
0.0144178
0.00460678
5.14371e-10
0.0132817
0.00459125
4.27116e-11
0.0120774
0.00487699
-6.56371e-10
0.0107777
0.00524031
-7.07894e-10
0.00935009
0.00573398
-7.15609e-10
0.00777073
0.00628621
-5.47701e-10
0.00603193
0.00684869
-4.5563e-10
0.00414301
0.00739457
-4.00736e-10
0.00211132
0.00790722
-3.56878e-10
0.0082763
-3.27239e-10
0.0168001
9.50927e-10
-3.50889e-12
0.0168001
5.27714e-09
-1.16086e-11
0.0168
1.96559e-08
-1.37135e-11
0.0168
5.05146e-08
-2.14786e-11
0.0168
1.392e-07
-2.22397e-11
0.0167999
3.19278e-07
-2.9637e-11
0.0167997
8.31333e-07
-3.18075e-11
0.0167993
1.87963e-06
-4.4542e-11
0.0167981
4.8682e-06
-5.56811e-11
0.0167956
1.10689e-05
-1.13074e-10
0.0167883
3.03185e-05
-1.35237e-10
0.0167727
7.84165e-05
-5.16444e-10
0.0167158
0.00027578
-8.64951e-10
0.0165597
0.000846012
-3.15119e-09
0.0156305
0.00496861
-7.48405e-09
0.0144885
0.00574806
4.46296e-10
0.0133729
0.00570443
-8.88926e-11
0.0121996
0.00604503
-6.9591e-10
0.010932
0.00650211
-7.09521e-10
0.00953303
0.00712717
-6.83057e-10
0.00798515
0.00782994
-5.80586e-10
0.0062643
0.00856595
-5.36244e-10
0.00434638
0.00930898
-5.1305e-10
0.00224039
0.0100096
-5.1115e-10
0.0105131
-5.28554e-10
0.0168001
1.15631e-09
-3.46881e-12
0.0168001
6.36664e-09
-1.1627e-11
0.0168001
2.37115e-08
-1.37324e-11
0.0168
6.08437e-08
-2.15543e-11
0.0168
1.68395e-07
-2.24406e-11
0.0167999
3.87881e-07
-3.01422e-11
0.0167997
1.00451e-06
-3.27627e-11
0.0167992
2.34121e-06
-4.93414e-11
0.0167982
5.68845e-06
-5.26327e-11
0.0167953
1.38718e-05
-1.51012e-10
0.0167888
3.56886e-05
-8.24572e-11
0.0167725
9.36245e-05
-5.38345e-10
0.0167305
0.000313051
-7.58519e-10
0.0165761
0.000990605
-2.95667e-09
0.0157549
0.00575353
-7.31981e-09
0.0145986
0.00690446
5.19529e-10
0.0134938
0.00680702
-1.39017e-10
0.0123553
0.00717812
-7.05125e-10
0.0111434
0.00770801
-6.97435e-10
0.00979582
0.00846919
-6.48745e-10
0.00827887
0.00934197
-5.98745e-10
0.00657177
0.0102686
-5.92429e-10
0.00463382
0.0112433
-6.00732e-10
0.00243304
0.0122067
-6.32034e-10
0.0129422
-6.8683e-10
0.0168001
1.16438e-09
-3.40499e-12
0.0168001
6.43798e-09
-1.16557e-11
0.0168001
2.40016e-08
-1.36443e-11
0.0168001
6.14462e-08
-2.14998e-11
0.0168
1.6992e-07
-2.21848e-11
0.0168
3.8769e-07
-2.96254e-11
0.0168
1.02519e-06
-3.15873e-11
0.0168001
2.25046e-06
-4.40755e-11
0.0167993
6.23426e-06
-5.44269e-11
0.0167999
1.31987e-05
-1.01103e-10
0.0167927
4.16283e-05
-1.733e-10
0.016789
9.64933e-05
-4.19847e-10
0.0167122
0.000385151
-8.08086e-10
0.0165797
0.00111261
-2.90731e-09
0.0158846
0.00641068
-7.28227e-09
0.014702
0.00808816
7.15328e-10
0.0136142
0.00789275
-8.0764e-11
0.012526
0.00826096
-6.78036e-10
0.0113806
0.0088474
-6.64721e-10
0.0101289
0.00971516
-6.1529e-10
0.0086845
0.0107822
-6.02939e-10
0.00701673
0.0119322
-6.24422e-10
0.00506716
0.0131891
-6.52197e-10
0.0027517
0.0145184
-7.03695e-10
0.0156898
-7.88625e-10
0.0168001
1.15366e-09
-3.35828e-12
0.0168001
6.44435e-09
-1.16466e-11
0.0168001
2.4001e-08
-1.36313e-11
0.0168001
6.15649e-08
-2.14515e-11
0.0168001
1.69066e-07
-2.20799e-11
0.0168001
3.82682e-07
-2.93809e-11
0.0168
1.02962e-06
-3.10728e-11
0.0168002
2.09156e-06
-4.23613e-11
0.0167993
6.8613e-06
-5.34944e-11
0.0168011
1.13649e-05
-9.17489e-11
0.0167911
5.04571e-05
-1.71317e-10
0.0167909
9.57246e-05
-3.64887e-10
0.0167278
0.000443731
-9.29815e-10
0.0166319
0.00119997
-2.76766e-09
0.0162634
0.00673824
-7.47414e-09
0.0150006
0.00935341
8.19292e-10
0.0138724
0.00902028
4.43896e-12
0.0128154
0.00931287
-6.30308e-10
0.011739
0.009918
-6.19475e-10
0.0105573
0.0108904
-5.78115e-10
0.00920848
0.0121254
-5.87053e-10
0.00761375
0.0135221
-6.24743e-10
0.0056932
0.0151055
-6.66815e-10
0.003267
0.0169409
-7.28405e-10
0.0189526
-8.30291e-10
0.0168001
1.6714e-09
-3.33701e-12
0.0168001
7.5717e-09
-1.15918e-11
0.0168
2.98235e-08
-1.37012e-11
0.0168
7.41658e-08
-2.13959e-11
0.0168
2.08475e-07
-2.20785e-11
0.0167999
4.67609e-07
-2.92309e-11
0.0167997
1.25317e-06
-3.09329e-11
0.0167991
2.67787e-06
-4.17941e-11
0.016798
7.71335e-06
-5.16655e-11
0.016795
1.43376e-05
-1.08216e-10
0.0167905
5.36827e-05
-1.18983e-10
0.0167872
9.86308e-05
-3.9625e-10
0.0167716
0.0004546
-8.16073e-10
0.0167627
0.00120131
-2.5866e-09
0.0170289
0.0064293
-7.36573e-09
0.015627
0.0107586
7.44973e-10
0.0143483
0.0102991
-1.46881e-11
0.0132841
0.0103734
-5.8374e-10
0.0122814
0.0109161
-5.81962e-10
0.0111812
0.0119857
-5.74742e-10
0.00992731
0.0133744
-5.90741e-10
0.00849784
0.0149468
-6.24515e-10
0.00674055
0.0168582
-6.52477e-10
0.00422598
0.0194515
-7.07062e-10
0.0231745
-8.00132e-10
0.0168001
-3.37658e-12
3.09499e-09
0.0168001
-1.15125e-11
3.3384e-09
0.0168
-1.3842e-11
4.33153e-08
0.0168001
-2.1432e-11
4.42627e-08
0.0168
-2.20914e-11
2.92563e-07
0.0168002
-2.90503e-11
2.93248e-07
0.0167996
-3.02069e-11
1.7833e-06
0.0168006
-3.98159e-11
1.61409e-06
0.0167967
-4.97284e-11
1.14595e-05
0.0168042
-8.40504e-11
6.78527e-06
0.0167754
-1.34877e-10
8.13637e-05
0.0168351
-3.3625e-10
3.81798e-05
0.0167123
-7.94128e-10
0.000572594
0.0170032
-2.34786e-09
0.000904157
0.0183491
-7.15373e-09
0.00503881
0.016782
-7.37385e-11
0.0123253
0.0151423
-4.09625e-10
0.0119367
0.0141019
-4.21813e-10
0.0114099
0.0130115
-5.01143e-10
0.012001
0.0120277
-6.04995e-10
0.0129637
0.0109629
-6.12307e-10
0.0144342
0.0097873
-6.23764e-10
0.0161173
0.00820647
-6.44451e-10
0.0184344
0.00583267
-6.63845e-10
0.0218214
-6.80634e-10
0.0290038
0.0168001
1.71843e-10
-9.62554e-16
0.0168001
9.39133e-10
-4.75131e-15
0.0168
3.48934e-09
-1.27153e-14
0.0168
8.95343e-09
-2.69546e-14
0.0168
2.46646e-08
-6.55334e-14
0.0168
5.62772e-08
-1.28809e-13
0.0167998
1.48747e-07
-3.46475e-13
0.0167994
3.24334e-07
-6.50132e-13
0.0167983
9.16134e-07
-2.13773e-12
0.0167963
1.90576e-06
-3.54445e-12
0.016789
6.14456e-06
-1.40887e-11
0.0167724
1.558e-05
-3.23124e-11
0.0167118
5.666e-05
-9.86821e-11
0.0165083
0.000190663
-3.28338e-10
0.0154151
0.00106138
-7.34463e-10
0.0142649
0.00114942
-6.10246e-12
0.0131001
0.00116273
-3.2577e-11
0.0118602
0.00123533
-9.42783e-11
0.0105337
0.00132091
-1.04595e-10
0.00910012
0.00142874
-1.13665e-10
0.00754292
0.00155377
-8.96963e-11
0.0058561
0.0016839
-8.43003e-11
0.00404643
0.00180711
-7.22521e-11
0.00210538
0.00193872
-1.08723e-10
0.00210288
-7.66384e-11
0.0168001
3.51279e-10
-9.6523e-16
0.0168001
1.92381e-09
-4.76485e-15
0.0168
7.14653e-09
-1.27397e-14
0.0168
1.83168e-08
-2.70073e-14
0.0168
5.04769e-08
-6.55388e-14
0.0167999
1.14979e-07
-1.28768e-13
0.0167998
3.04294e-07
-3.45739e-13
0.0167994
6.58878e-07
-6.47916e-13
0.0167982
1.88233e-06
-2.13122e-12
0.0167962
3.8341e-06
-3.52282e-12
0.0167885
1.26671e-05
-1.40472e-11
0.0167718
3.12759e-05
-3.19711e-11
0.0167091
0.000115409
-9.81826e-11
0.0165065
0.000380629
-3.24389e-10
0.0154178
0.00211812
-7.34128e-10
0.0142622
0.0023042
-4.77281e-12
0.0131107
0.00231228
-3.2694e-11
0.0118814
0.0024601
-9.52253e-11
0.0105607
0.00263596
-1.04905e-10
0.0091153
0.00286938
-1.13055e-10
0.00753911
0.00312653
-1.00999e-10
0.00582966
0.00339054
-7.1111e-11
0.00398738
0.00364651
-7.11505e-11
0.0020284
0.00389522
-1.09421e-10
0.00412884
-9.28308e-11
0.0168001
5.51661e-10
-9.72445e-16
0.0168001
3.01116e-09
-4.79857e-15
0.0168
1.11878e-08
-1.28232e-14
0.0168
2.86851e-08
-2.71873e-14
0.0168
7.90122e-08
-6.57946e-14
0.0167999
1.80399e-07
-1.29218e-13
0.0167997
4.73928e-07
-3.45127e-13
0.0167993
1.04551e-06
-6.441e-13
0.0167981
2.86138e-06
-2.12024e-12
0.0167958
6.13075e-06
-3.44474e-12
0.0167887
1.86201e-05
-1.39788e-11
0.0167714
4.75191e-05
-3.11535e-11
0.0167119
0.000170908
-9.72742e-11
0.0165298
0.000550636
-3.16756e-10
0.0154921
0.00312327
-7.40263e-10
0.0143368
0.00345886
-4.12929e-12
0.0131897
0.00345751
-3.4068e-11
0.011967
0.00367794
-9.6776e-11
0.0106509
0.00394637
-1.0533e-10
0.00920348
0.00431199
-1.11988e-10
0.00761593
0.00471055
-8.67678e-11
0.00588995
0.00511345
-7.13186e-11
0.00402539
0.00550827
-7.4023e-11
0.00204049
0.00587747
-7.0725e-11
0.00616657
-1.06074e-10
0.0168001
7.64679e-10
-1.01413e-15
0.0168001
4.15955e-09
-4.98666e-15
0.0168
1.54713e-08
-1.34451e-14
0.0168
3.96801e-08
-2.86018e-14
0.0168
1.09376e-07
-6.98173e-14
0.0167999
2.5037e-07
-1.38779e-13
0.0167997
6.53629e-07
-3.64115e-13
0.0167993
1.47025e-06
-7.36721e-13
0.0167981
3.84828e-06
-2.05823e-12
0.0167954
8.71878e-06
-4.27124e-12
0.0167887
2.41324e-05
-1.22203e-11
0.0167716
6.37309e-05
-3.2945e-11
0.0167141
0.00022368
-9.25607e-11
0.0165534
0.000700451
-2.92357e-10
0.0155677
0.00407546
-7.43057e-10
0.0144179
0.00460745
-6.02478e-12
0.0132816
0.0045916
-4.8472e-11
0.0120772
0.00487722
-1.01267e-10
0.0107774
0.00524042
-1.07392e-10
0.00934983
0.00573409
-1.11653e-10
0.00777055
0.00628613
-1.00829e-10
0.00603184
0.00684835
-9.58841e-11
0.004143
0.00739389
-9.34512e-11
0.00211135
0.00790614
-6.9196e-11
0.00827474
-8.47464e-11
0.0168001
9.71089e-10
-1.02828e-15
0.0168001
5.28684e-09
-5.05511e-15
0.0168
1.96597e-08
-1.36402e-14
0.0168
5.04943e-08
-2.90179e-14
0.0168
1.39106e-07
-7.06799e-14
0.0167999
3.19015e-07
-1.40348e-13
0.0167997
8.30786e-07
-3.6668e-13
0.0167993
1.87722e-06
-7.37005e-13
0.0167981
4.86909e-06
-2.06303e-12
0.0167956
1.10509e-05
-4.21691e-12
0.0167882
3.03426e-05
-1.21637e-11
0.0167727
7.84109e-05
-3.20096e-11
0.0167158
0.000275872
-9.15731e-11
0.0165597
0.000846259
-2.84336e-10
0.0156307
0.00496975
-7.5433e-10
0.0144889
0.00574857
1.85378e-12
0.0133732
0.0057048
-3.58284e-11
0.0121999
0.00604532
-1.03923e-10
0.0109323
0.00650228
-1.08234e-10
0.00953326
0.00712729
-1.10736e-10
0.00798539
0.00782985
-9.83411e-11
0.00626457
0.0085656
-9.8978e-11
0.00434663
0.00930835
-9.67904e-11
0.00224055
0.0100087
-9.55209e-11
0.0105117
-9.48337e-11
0.0168001
1.18706e-09
-1.09166e-15
0.0168001
6.3771e-09
-5.30273e-15
0.0168
2.37705e-08
-1.45808e-14
0.0168
6.09067e-08
-3.12017e-14
0.0168
1.6856e-07
-7.71224e-14
0.0167999
3.88209e-07
-1.56101e-13
0.0167997
1.00525e-06
-3.98218e-13
0.0167992
2.34386e-06
-8.89004e-13
0.0167982
5.68891e-06
-1.98981e-12
0.0167952
1.38939e-05
-5.41454e-12
0.0167888
3.56563e-05
-1.08097e-11
0.0167724
9.3677e-05
-3.24946e-11
0.0167305
0.000313059
-9.04706e-11
0.0165762
0.000990729
-2.81414e-10
0.0157551
0.00575441
-7.75684e-10
0.0145991
0.00690469
1.65375e-11
0.0134943
0.00680733
-3.3679e-11
0.0123559
0.00717841
-1.0519e-10
0.011144
0.0077082
-1.08498e-10
0.00979637
0.00846929
-1.09685e-10
0.00827938
0.00934191
-1.0217e-10
0.00657223
0.0102683
-1.00478e-10
0.00463421
0.0112428
-9.90283e-11
0.00243328
0.0122059
-9.86436e-11
0.012941
-9.88308e-11
0.0168001
1.18759e-09
-1.03358e-15
0.0168001
6.4622e-09
-5.06047e-15
0.0168001
2.40339e-08
-1.37298e-14
0.0168001
6.15035e-08
-2.92794e-14
0.0168
1.7003e-07
-7.15931e-14
0.0168
3.8793e-07
-1.43292e-13
0.0168
1.02571e-06
-3.71855e-13
0.0168001
2.25191e-06
-7.69196e-13
0.0167993
6.23638e-06
-2.05342e-12
0.0167999
1.32059e-05
-4.27727e-12
0.0167927
4.16369e-05
-1.31334e-11
0.0167889
9.65271e-05
-3.103e-11
0.0167122
0.000385128
-8.62049e-11
0.0165797
0.00111278
-2.8707e-10
0.0158844
0.00641155
-7.95616e-10
0.0147023
0.00808799
3.47929e-11
0.0136146
0.00789287
-3.06589e-11
0.0125265
0.00826115
-1.05834e-10
0.0113812
0.00884756
-1.08493e-10
0.0101294
0.00971525
-1.03989e-10
0.00868509
0.0107821
-1.04242e-10
0.00701726
0.0119319
-1.02402e-10
0.00506759
0.0131886
-1.00678e-10
0.00275196
0.0145178
-9.99213e-11
0.0156889
-1.00772e-10
0.0168001
1.16269e-09
-9.45299e-16
0.0168001
6.47648e-09
-4.68484e-15
0.0168001
2.39922e-08
-1.24443e-14
0.0168001
6.1587e-08
-2.63562e-14
0.0168001
1.69079e-07
-6.34689e-14
0.0168001
3.82784e-07
-1.24433e-13
0.0168
1.02982e-06
-3.31953e-13
0.0168002
2.09226e-06
-6.19297e-13
0.0167993
6.86313e-06
-2.02385e-12
0.0168011
1.13621e-05
-3.3809e-12
0.0167911
5.04842e-05
-1.33806e-11
0.0167909
9.57233e-05
-2.50866e-11
0.0167276
0.000443849
-1.07277e-10
0.0166317
0.0012002
-2.79001e-10
0.0162625
0.00673967
-8.34398e-10
0.0150002
0.00935275
4.81861e-11
0.0138724
0.00902001
-3.47106e-11
0.0128157
0.00931281
-1.03933e-10
0.0117394
0.00991803
-1.0682e-10
0.0105578
0.0108903
-1.08448e-10
0.00920901
0.0121253
-9.93242e-11
0.00761426
0.0135219
-1.02548e-10
0.00569362
0.0151052
-1.01332e-10
0.00326727
0.0169405
-9.95861e-11
0.018952
-1.00148e-10
0.0168001
1.63526e-09
-8.89014e-16
0.0168001
7.68455e-09
-4.42846e-15
0.0168
2.96761e-08
-1.1595e-14
0.0168
7.40538e-08
-2.46449e-14
0.0168
2.08286e-07
-5.79734e-14
0.0167999
4.6758e-07
-1.14412e-13
0.0167997
1.2534e-06
-2.95976e-13
0.016799
2.67907e-06
-5.61094e-13
0.016798
7.71506e-06
-1.95554e-12
0.016795
1.43491e-05
-1.83189e-12
0.0167905
5.36907e-05
-1.60013e-11
0.0167871
9.86757e-05
-2.03636e-11
0.0167716
0.000454694
-1.10617e-10
0.0167625
0.0012017
-2.7047e-10
0.0170277
0.00643165
-8.5167e-10
0.0156261
0.0107576
4.57402e-11
0.0143479
0.0102983
-2.81293e-11
0.0132841
0.0103731
-9.96568e-11
0.0122815
0.010916
-9.84576e-11
0.0111814
0.0119855
-1.11532e-10
0.00992768
0.0133742
-1.07155e-10
0.00849823
0.0149465
-1.03766e-10
0.00674094
0.0168579
-1.01583e-10
0.00422626
0.0194511
-9.70818e-11
0.0231742
-9.5136e-11
0.0168001
-8.8083e-16
2.96143e-09
0.0168001
-4.36486e-15
3.72739e-09
0.0168
-1.14927e-14
4.21469e-08
0.0168001
-2.43158e-14
4.47493e-08
0.0168
-5.81564e-14
2.91361e-07
0.0168002
-1.14698e-13
2.93966e-07
0.0167996
-3.02674e-13
1.78264e-06
0.0168006
-5.94628e-13
1.61584e-06
0.0167967
-1.85967e-12
1.14605e-05
0.0168042
-2.9125e-12
6.79558e-06
0.0167754
-1.361e-11
8.13824e-05
0.0168351
-2.17939e-11
3.82288e-05
0.0167122
-1.0041e-10
0.000572749
0.0170026
-2.54425e-10
0.000905034
0.0183469
-8.47538e-10
0.00504277
0.0167801
-5.17076e-11
0.012324
0.0151416
-7.33967e-11
0.0119347
0.0141014
-8.67779e-11
0.0114095
0.0130113
-1.00711e-10
0.0120006
0.0120277
-1.02406e-10
0.0129633
0.010963
-1.033e-10
0.0144339
0.00978757
-1.09529e-10
0.0161169
0.00820681
-1.03067e-10
0.0184341
0.00583297
-9.27788e-11
0.0218211
-8.21182e-11
0.0290038
0.0168001
1.71842e-10
1.3084e-16
0.0168001
9.39126e-10
-3.63614e-16
0.0168
3.48932e-09
-1.21023e-15
0.0168
8.95339e-09
-2.60758e-15
0.0168
2.46645e-08
-7.56448e-15
0.0168
5.62771e-08
-1.5354e-14
0.0167998
1.48747e-07
-4.54967e-14
0.0167994
3.24335e-07
-8.64266e-14
0.0167983
9.16138e-07
-2.96937e-13
0.0167963
1.90577e-06
-4.91016e-13
0.016789
6.1446e-06
-2.00154e-12
0.0167724
1.55802e-05
-4.58571e-12
0.0167118
5.66608e-05
-1.41705e-11
0.0165083
0.000190669
-4.72409e-11
0.0154151
0.00106139
-1.06677e-10
0.0142648
0.00114942
-1.90264e-12
0.0131001
0.00116273
-5.75665e-12
0.0118602
0.00123533
-1.43833e-11
0.0105336
0.00132092
-1.5849e-11
0.00910008
0.00142874
-1.71111e-11
0.00754288
0.00155378
-1.53457e-11
0.00585605
0.0016839
-1.40122e-11
0.00404639
0.00180711
-1.33109e-11
0.00210535
0.0019387
-1.25327e-11
0.00210286
-1.17535e-11
0.0168001
3.51276e-10
1.30666e-16
0.0168001
1.92379e-09
-1.79987e-16
0.0168
7.14646e-09
-1.21374e-15
0.0168
1.83166e-08
-2.61585e-15
0.0168
5.04764e-08
-7.57172e-15
0.0167999
1.14978e-07
-1.53646e-14
0.0167998
3.04292e-07
-4.54397e-14
0.0167994
6.58873e-07
-8.62286e-14
0.0167982
1.88233e-06
-2.96245e-13
0.0167962
3.83411e-06
-4.88458e-13
0.0167885
1.26671e-05
-1.99694e-12
0.0167718
3.12765e-05
-4.54046e-12
0.0167091
0.000115411
-1.41067e-11
0.0165065
0.000380641
-4.67061e-11
0.0154178
0.00211815
-1.06677e-10
0.0142622
0.0023042
-1.71191e-12
0.0131107
0.00231229
-5.76667e-12
0.0118813
0.0024601
-1.45156e-11
0.0105607
0.00263596
-1.58931e-11
0.00911526
0.00286939
-1.70302e-11
0.00753907
0.00312653
-1.52546e-11
0.00582963
0.00339053
-1.3983e-11
0.00398736
0.0036465
-1.33564e-11
0.00202838
0.00389519
-1.26469e-11
0.0041288
-1.19848e-11
0.0168001
5.5164e-10
1.30088e-16
0.0168001
3.01105e-09
-1.85211e-16
0.0168
1.11874e-08
-1.22531e-15
0.0168
2.86842e-08
-2.64202e-15
0.0168
7.90096e-08
-7.61708e-15
0.0167999
1.80393e-07
-1.5451e-14
0.0167997
4.73914e-07
-4.5434e-14
0.0167993
1.04546e-06
-8.5879e-14
0.0167981
2.86138e-06
-2.95131e-13
0.0167958
6.13033e-06
-4.78785e-13
0.0167887
1.86209e-05
-1.98912e-12
0.0167714
4.75186e-05
-4.43371e-12
0.0167119
0.000170912
-1.39901e-11
0.0165298
0.000550659
-4.56755e-11
0.0154921
0.00312332
-1.07662e-10
0.0143367
0.00345886
-1.62457e-12
0.0131897
0.00345751
-5.95323e-12
0.011967
0.00367794
-1.47474e-11
0.0106508
0.00394636
-1.59735e-11
0.00920345
0.00431199
-1.69071e-11
0.00761591
0.00471054
-1.51697e-11
0.00588993
0.00511344
-1.41306e-11
0.00402538
0.00550825
-1.36209e-11
0.00204049
0.00587744
-1.3089e-11
0.00616653
-1.26578e-11
0.0168001
7.64671e-10
1.25371e-16
0.0168001
4.15949e-09
-3.93667e-16
0.0168
1.54711e-08
-1.31384e-15
0.0168
3.96796e-08
-2.84409e-15
0.0168
1.09375e-07
-8.20353e-15
0.0167999
2.50367e-07
-1.68457e-14
0.0167997
6.53622e-07
-4.824e-14
0.0167993
1.47024e-06
-9.92911e-14
0.0167981
3.84824e-06
-2.86924e-13
0.0167954
8.71875e-06
-5.97921e-13
0.0167887
2.41322e-05
-1.74311e-12
0.0167716
6.37315e-05
-4.69629e-12
0.0167141
0.000223682
-1.33579e-11
0.0165534
0.000700465
-4.22688e-11
0.0155677
0.00407551
-1.08274e-10
0.0144179
0.00460746
-1.88533e-12
0.0132816
0.0045916
-6.8592e-12
0.0120772
0.00487722
-1.54039e-11
0.0107774
0.00524042
-1.63009e-11
0.00934982
0.00573409
-1.69096e-11
0.00777054
0.00628612
-1.52998e-11
0.00603184
0.00684834
-1.45037e-11
0.004143
0.00739387
-1.41025e-11
0.00211135
0.00790611
-1.37529e-11
0.0082747
-1.34973e-11
0.0168001
9.71059e-10
1.23474e-16
0.0168001
5.28671e-09
-4.04472e-16
0.0168
1.96592e-08
-1.34437e-15
0.0168
5.04931e-08
-2.9094e-15
0.0168
1.39102e-07
-8.34499e-15
0.0167999
3.19006e-07
-1.71071e-14
0.0167997
8.30766e-07
-4.87236e-14
0.0167993
1.87714e-06
-9.95657e-14
0.0167981
4.8691e-06
-2.88378e-13
0.0167956
1.10503e-05
-5.91594e-13
0.0167882
3.03432e-05
-1.74012e-12
0.0167727
7.84108e-05
-4.57435e-12
0.0167158
0.000275874
-1.32519e-11
0.0165597
0.00084627
-4.12177e-11
0.0156307
0.00496979
-1.10138e-10
0.0144889
0.00574856
-1.36834e-12
0.0133733
0.0057048
-7.04023e-12
0.0121999
0.00604532
-1.58162e-11
0.0109323
0.00650228
-1.64743e-11
0.00953327
0.00712729
-1.68527e-11
0.0079854
0.00782985
-1.554e-11
0.00626458
0.00856558
-1.49742e-11
0.00434664
0.00930833
-1.46012e-11
0.00224056
0.0100086
-1.43818e-11
0.0105116
-1.42363e-11
0.0168001
1.18709e-09
1.15494e-16
0.0168001
6.37723e-09
-2.6989e-16
0.0168
2.3771e-08
-1.48099e-15
0.0168
6.09079e-08
-3.22666e-15
0.0168
1.68563e-07
-9.27994e-15
0.0167999
3.88217e-07
-1.93911e-14
0.0167997
1.00526e-06
-5.33293e-14
0.0167992
2.34393e-06
-1.21506e-13
0.0167982
5.68892e-06
-2.78574e-13
0.0167952
1.38944e-05
-7.64368e-13
0.0167888
3.56555e-05
-1.55112e-12
0.0167724
9.36779e-05
-4.65607e-12
0.0167305
0.000313062
-1.31298e-11
0.0165762
0.000990733
-4.08986e-11
0.0157551
0.00575447
-1.13486e-10
0.0145991
0.00690467
9.70237e-13
0.0134944
0.00680732
-6.79762e-12
0.0123559
0.00717841
-1.60537e-11
0.011144
0.0077082
-1.65812e-11
0.00979638
0.00846929
-1.67974e-11
0.0082794
0.0093419
-1.57132e-11
0.00657224
0.0102683
-1.52614e-11
0.00463422
0.0112428
-1.49909e-11
0.00243329
0.0122059
-1.48752e-11
0.012941
-1.48326e-11
0.0168001
1.18763e-09
1.22163e-16
0.0168001
6.46242e-09
-4.08492e-16
0.0168001
2.40348e-08
-1.36451e-15
0.0168001
6.15056e-08
-2.96195e-15
0.0168
1.70036e-07
-8.51569e-15
0.0168
3.87944e-07
-1.76046e-14
0.0168
1.02574e-06
-4.96955e-14
0.0168001
2.25201e-06
-1.04633e-13
0.0167993
6.23649e-06
-2.88499e-13
0.0167999
1.32065e-05
-6.03652e-13
0.0167927
4.16373e-05
-1.88612e-12
0.0167889
9.65302e-05
-4.45993e-12
0.0167122
0.00038512
-1.25498e-11
0.0165797
0.00111279
-4.18024e-11
0.0158844
0.00641161
-1.16656e-10
0.0147023
0.00808794
3.54712e-12
0.0136147
0.00789285
-6.25939e-12
0.0125265
0.00826115
-1.62203e-11
0.0113812
0.00884756
-1.6666e-11
0.0101294
0.00971525
-1.68694e-11
0.0086851
0.0107821
-1.60066e-11
0.00701728
0.0119319
-1.56378e-11
0.0050676
0.0131886
-1.53319e-11
0.00275197
0.0145177
-1.51622e-11
0.0156889
-1.51941e-11
0.0168001
1.16271e-09
1.31481e-16
0.0168001
6.47663e-09
-3.57434e-16
0.0168001
2.39927e-08
-1.187e-15
0.0168001
6.15883e-08
-2.55771e-15
0.0168001
1.69083e-07
-7.38715e-15
0.0168001
3.82793e-07
-1.49747e-14
0.0168
1.02985e-06
-4.41505e-14
0.0168002
2.09231e-06
-8.35289e-14
0.0167993
6.86322e-06
-2.85047e-13
0.0168011
1.13628e-05
-4.76944e-13
0.0167911
5.04836e-05
-1.92602e-12
0.0167909
9.57259e-05
-3.61573e-12
0.0167276
0.000443851
-1.56038e-11
0.0166317
0.00120022
-4.07154e-11
0.0162624
0.0067398
-1.22479e-10
0.0150002
0.00935265
5.40354e-12
0.0138724
0.00901996
-4.93119e-12
0.0128157
0.00931279
-1.60529e-11
0.0117394
0.00991802
-1.6539e-11
0.0105578
0.0108903
-1.68694e-11
0.00920902
0.0121252
-1.61627e-11
0.00761428
0.0135219
-1.5818e-11
0.00569364
0.0151052
-1.559e-11
0.00326728
0.0169404
-1.52802e-11
0.018952
-1.5266e-11
0.0168001
1.63528e-09
1.36633e-16
0.0168001
7.68471e-09
-1.28225e-16
0.0168
2.96765e-08
-1.07148e-15
0.0168
7.40552e-08
-2.32737e-15
0.0168
2.0829e-07
-6.63742e-15
0.0167999
4.67588e-07
-1.36205e-14
0.0167997
1.25342e-06
-3.92038e-14
0.016799
2.6791e-06
-7.55041e-14
0.016798
7.71525e-06
-2.76347e-13
0.016795
1.4349e-05
-2.5548e-13
0.0167905
5.36923e-05
-2.30929e-12
0.0167871
9.86771e-05
-2.93984e-12
0.0167716
0.000454707
-1.61076e-11
0.0167625
0.00120174
-3.95276e-11
0.0170275
0.00643191
-1.25111e-10
0.015626
0.0107574
4.91883e-12
0.0143478
0.0102982
-4.23139e-12
0.013284
0.0103731
-1.55594e-11
0.0122814
0.010916
-1.63704e-11
0.0111814
0.0119855
-1.74654e-11
0.00992768
0.0133742
-1.67515e-11
0.00849824
0.0149465
-1.62007e-11
0.00674096
0.0168579
-1.58568e-11
0.00422627
0.0194511
-1.51585e-11
0.0231742
-1.48196e-11
0.0168001
1.37795e-16
2.9615e-09
0.0168001
-3.13342e-16
3.72771e-09
0.0168
-1.05442e-15
4.21484e-08
0.0168001
-2.27858e-15
4.47523e-08
0.0168
-6.66822e-15
2.91373e-07
0.0168002
-1.36809e-14
2.93984e-07
0.0167996
-4.02342e-14
1.78272e-06
0.0168006
-8.0466e-14
1.6159e-06
0.0167967
-2.63136e-13
1.14611e-05
0.0168042
-4.10535e-13
6.79556e-06
0.0167754
-1.96996e-12
8.13864e-05
0.0168351
-3.14369e-12
3.82308e-05
0.0167122
-1.46505e-11
0.000572774
0.0170025
-3.72115e-11
0.000905127
0.0183466
-1.245e-10
0.00504324
0.0167798
-8.77389e-12
0.0123238
0.0151414
-1.1984e-11
0.0119344
0.0141012
-1.38258e-11
0.0114094
0.0130112
-1.59375e-11
0.0120005
0.0120276
-1.87411e-11
0.0129633
0.010963
-1.77954e-11
0.0144338
0.00978757
-1.73201e-11
0.0161169
0.00820683
-1.63683e-11
0.018434
0.00583299
-1.4873e-11
0.0218211
-1.33908e-11
0.0290038
0.0168001
1.71842e-10
-6.58898e-17
0.0168001
9.39125e-10
-2.87057e-16
0.0168
3.48932e-09
-9.34633e-16
0.0168
8.95338e-09
-1.98729e-15
0.0168
2.46645e-08
-5.72599e-15
0.0168
5.6277e-08
-1.15806e-14
0.0167998
1.48747e-07
-3.43889e-14
0.0167994
3.24335e-07
-6.52302e-14
0.0167983
9.16138e-07
-2.25289e-13
0.0167963
1.90577e-06
-3.74938e-13
0.016789
6.14461e-06
-1.4976e-12
0.0167724
1.55803e-05
-3.655e-12
0.0167118
5.66609e-05
-1.0077e-11
0.0165083
0.000190669
-3.81718e-11
0.0154151
0.00106139
-8.71031e-11
0.0142648
0.00114942
-2.98811e-12
0.0131001
0.00116274
-5.68142e-12
0.0118602
0.00123533
-1.25585e-11
0.0105336
0.00132092
-1.37395e-11
0.00910007
0.00142874
-1.46543e-11
0.00754287
0.00155378
-1.29633e-11
0.00585605
0.0016839
-1.17264e-11
0.00404639
0.00180711
-1.10952e-11
0.00210535
0.0019387
-1.0387e-11
0.00210285
-9.78489e-12
0.0168001
3.51276e-10
-6.62414e-17
0.0168001
1.92378e-09
-2.88533e-16
0.0168
7.14645e-09
-9.38601e-16
0.0168
1.83166e-08
-1.99611e-15
0.0168
5.04764e-08
-5.73867e-15
0.0167999
1.14978e-07
-1.16034e-14
0.0167998
3.04291e-07
-3.43851e-14
0.0167994
6.58873e-07
-6.5157e-14
0.0167982
1.88233e-06
-2.25005e-13
0.0167962
3.83411e-06
-3.73221e-13
0.0167885
1.26671e-05
-1.49622e-12
0.0167718
3.12766e-05
-3.62086e-12
0.0167091
0.000115411
-1.00348e-11
0.0165065
0.000380643
-3.77561e-11
0.0154178
0.00211815
-8.70334e-11
0.0142622
0.00230421
-2.83164e-12
0.0131106
0.00231229
-5.68005e-12
0.0118813
0.0024601
-1.2636e-11
0.0105607
0.00263596
-1.37399e-11
0.00911525
0.00286939
-1.45439e-11
0.00753906
0.00312653
-1.28426e-11
0.00582962
0.00339053
-1.16489e-11
0.00398735
0.00364649
-1.1068e-11
0.00202838
0.00389519
-1.04018e-11
0.0041288
-9.87709e-12
0.0168001
5.51637e-10
-6.71028e-17
0.0168001
3.01103e-09
-2.92385e-16
0.0168
1.11873e-08
-9.49627e-16
0.0168
2.8684e-08
-2.02049e-15
0.0168
7.90092e-08
-5.78615e-15
0.0167999
1.80392e-07
-1.16958e-14
0.0167997
4.73912e-07
-3.44597e-14
0.0167993
1.04545e-06
-6.50564e-14
0.0167981
2.86138e-06
-2.24634e-13
0.0167958
6.13027e-06
-3.66635e-13
0.0167887
1.8621e-05
-1.49426e-12
0.0167714
4.75186e-05
-3.54179e-12
0.0167119
0.000170913
-9.96508e-12
0.0165298
0.000550662
-3.69785e-11
0.0154921
0.00312333
-8.7826e-11
0.0143367
0.00345886
-2.77645e-12
0.0131897
0.00345751
-5.83025e-12
0.011967
0.00367794
-1.27996e-11
0.0106508
0.00394636
-1.37751e-11
0.00920344
0.00431199
-1.44056e-11
0.0076159
0.00471054
-1.27236e-11
0.00588993
0.00511343
-1.17025e-11
0.00402537
0.00550824
-1.11908e-11
0.00204049
0.00587743
-1.06581e-11
0.00616652
-1.02881e-11
0.0168001
7.6467e-10
-7.24611e-17
0.0168001
4.15949e-09
-3.13187e-16
0.0168
1.54711e-08
-1.02176e-15
0.0168
3.96795e-08
-2.18266e-15
0.0168
1.09375e-07
-6.25347e-15
0.0167999
2.50366e-07
-1.28e-14
0.0167997
6.53621e-07
-3.67118e-14
0.0167993
1.47024e-06
-7.55363e-14
0.0167981
3.84824e-06
-2.19054e-13
0.0167954
8.71875e-06
-4.59867e-13
0.0167887
2.41322e-05
-1.31565e-12
0.0167716
6.37316e-05
-3.75967e-12
0.0167141
0.000223682
-9.55512e-12
0.0165534
0.000700467
-3.43118e-11
0.0155677
0.00407551
-8.84124e-11
0.0144179
0.00460746
-3.04088e-12
0.0132816
0.0045916
-6.57013e-12
0.0120772
0.00487722
-1.33129e-11
0.0107774
0.00524042
-1.40146e-11
0.00934981
0.00573409
-1.43728e-11
0.00777054
0.00628612
-1.27625e-11
0.00603184
0.00684833
-1.1914e-11
0.004143
0.00739387
-1.1458e-11
0.00211135
0.0079061
-1.10622e-11
0.00827469
-1.08527e-11
0.0168001
9.71054e-10
-7.46626e-17
0.0168001
5.28669e-09
-3.23384e-16
0.0168
1.96591e-08
-1.04979e-15
0.0168
5.04929e-08
-2.24181e-15
0.0168
1.39102e-07
-6.38627e-15
0.0167999
3.19005e-07
-1.3049e-14
0.0167997
8.30764e-07
-3.72246e-14
0.0167993
1.87713e-06
-7.60239e-14
0.0167981
4.8691e-06
-2.2107e-13
0.0167956
1.10502e-05
-4.56499e-13
0.0167882
3.03432e-05
-1.31962e-12
0.0167727
7.84107e-05
-3.67523e-12
0.0167158
0.000275874
-9.52495e-12
0.0165597
0.000846271
-3.35535e-11
0.0156307
0.0049698
-9.00645e-11
0.0144889
0.00574856
-2.12484e-12
0.0133733
0.0057048
-6.72479e-12
0.0121999
0.00604532
-1.36327e-11
0.0109323
0.00650228
-1.41355e-11