/*--------------------------------*- C++ -*----------------------------------*\
| =========                 |                                                 |
| \\      /  F ield         | OpenFOAM: The Open Source CFD Toolbox           |
|  \\    /   O peration     | Version:  4.1                                   |
|   \\  /    A nd           | Web:      www.OpenFOAM.org                      |
|    \\/     M anipulation  |                                                 |
\*---------------------------------------------------------------------------*/
FoamFile
{
    version     2.0;
    format      ascii;
    class       surfaceScalarField;
    location    "5.32";
    object      phi;
}
// * * * * * * * * * * * * * * * * * * * * * * * * * * * * * * * * * * * * * //

dimensions      [1 0 -1 0 0 0 0];

internalField   nonuniform List<scalar> 
150500
(
0.0168001
2.03856e-10
-3.41256e-12
0.0168001
1.12575e-09
-1.16501e-11
0.0168001
4.19323e-09
-1.34879e-11
0.0168
1.07747e-08
-2.16834e-11
0.0168
2.98095e-08
-2.14621e-11
0.0167999
6.87211e-08
-2.93009e-11
0.0167997
1.78569e-07
-2.95757e-11
0.0167993
4.11574e-07
-4.09253e-11
0.016798
1.03544e-06
-4.3637e-11
0.0167955
2.38595e-06
-8.16663e-11
0.0167872
6.74865e-06
-1.0593e-10
0.0167693
1.6844e-05
-2.62662e-10
0.0167087
5.53092e-05
-3.44667e-10
0.0165219
0.000175223
-1.40315e-09
0.0154377
0.00104099
-3.04799e-09
0.0141963
0.00124899
4.85465e-10
0.0129566
0.00124048
-9.10945e-11
0.0116615
0.00129302
-4.31582e-10
0.0103003
0.00135968
-4.30468e-10
0.00885937
0.00144032
-4.03985e-10
0.00731141
0.00154763
-3.80234e-10
0.00565002
0.00166096
-3.86588e-10
0.0038844
0.00176515
-3.94257e-10
0.00200992
0.00187371
-4.11448e-10
0.00200886
-4.33567e-10
0.0168001
3.87057e-10
-3.40195e-12
0.0168001
2.12614e-09
-1.16542e-11
0.0168001
7.95088e-09
-1.34704e-11
0.0168
2.03349e-08
-2.1732e-11
0.0168
5.66239e-08
-2.13821e-11
0.0167999
1.29927e-07
-2.93505e-11
0.0167997
3.42654e-07
-2.95239e-11
0.0167993
7.76441e-07
-4.09744e-11
0.0167981
2.03838e-06
-4.34905e-11
0.0167957
4.58101e-06
-8.15766e-11
0.0167875
1.35731e-05
-1.05507e-10
0.01677
3.31347e-05
-2.60414e-10
0.0167025
0.00011747
-3.42139e-10
0.0165029
0.000363013
-1.38732e-09
0.0153842
0.00211555
-3.03019e-09
0.0140979
0.00254357
4.91043e-10
0.0128775
0.00246169
-9.3556e-11
0.0116049
0.00256357
-4.34996e-10
0.0102563
0.00270674
-4.31814e-10
0.00880487
0.0028914
-4.01522e-10
0.00724376
0.00310862
-3.74757e-10
0.00557475
0.00332979
-3.80273e-10
0.0037988
0.00354081
-3.88072e-10
0.00192464
0.00374726
-4.04242e-10
0.00393259
-4.2491e-10
0.0168001
5.17812e-10
-3.3837e-12
0.0168001
2.85676e-09
-1.16565e-11
0.0168001
1.06798e-08
-1.34544e-11
0.0168
2.72586e-08
-2.17756e-11
0.0168
7.58294e-08
-2.12991e-11
0.0168
1.7239e-07
-2.93867e-11
0.0167998
4.64379e-07
-2.94572e-11
0.0167996
9.94683e-07
-4.08879e-11
0.0167984
2.93664e-06
-4.34243e-11
0.0167969
5.95647e-06
-8.04952e-11
0.0167891
2.0009e-05
-1.05204e-10
0.0167761
4.48247e-05
-2.50298e-10
0.0166938
0.000194788
-3.57886e-10
0.0165017
0.000545393
-1.34451e-09
0.0154111
0.00315959
-3.01018e-09
0.0141023
0.00386271
5.03471e-10
0.0128924
0.003674
-8.58721e-11
0.0116412
0.00381362
-4.38466e-10
0.0103128
0.0040342
-4.34884e-10
0.00886631
0.00433776
-3.99578e-10
0.00730365
0.00467147
-3.67581e-10
0.00562303
0.00501053
-3.71733e-10
0.0038255
0.0053382
-3.79379e-10
0.00193473
0.0056376
-3.93449e-10
0.00586659
-4.09796e-10
0.0168001
6.41734e-10
-3.36544e-12
0.0168001
3.51944e-09
-1.16502e-11
0.0168001
1.31775e-08
-1.3488e-11
0.0168
3.34816e-08
-2.16518e-11
0.0168
9.36409e-08
-2.14623e-11
0.0168
2.12086e-07
-2.92204e-11
0.0167998
5.77603e-07
-2.94641e-11
0.0167996
1.22235e-06
-4.02086e-11
0.0167986
3.69992e-06
-4.34687e-11
0.016797
7.3682e-06
-7.68336e-11
0.0167896
2.5975e-05
-1.01526e-10
0.0167752
5.7993e-05
-2.3797e-10
0.0167104
0.000254217
-3.4508e-10
0.0165354
0.00071034
-1.28182e-09
0.0155929
0.00405291
-3.01117e-09
0.0142556
0.00521218
4.64557e-10
0.0130347
0.00489809
-1.1008e-10
0.0117927
0.00505461
-4.38882e-10
0.0104772
0.00534877
-4.32356e-10
0.00904104
0.00577387
-3.90241e-10
0.00747921
0.00623372
-3.58213e-10
0.00579423
0.00669584
-3.64749e-10
0.00396902
0.00716375
-3.71355e-10
0.00201007
0.00759637
-3.80558e-10
0.00787621
-3.90434e-10
0.0168001
6.94995e-10
-3.34415e-12
0.0168001
3.87189e-09
-1.1653e-11
0.0168001
1.44674e-08
-1.35696e-11
0.0168001
3.69175e-08
-2.15802e-11
0.0168
1.02161e-07
-2.19621e-11
0.0168
2.29521e-07
-2.9708e-11
0.0167999
6.36327e-07
-3.09584e-11
0.0167999
1.22408e-06
-4.67964e-11
0.0167988
4.52008e-06
-4.07041e-11
0.0167997
6.60298e-06
-1.32828e-10
0.0167889
3.50013e-05
5.29039e-13
0.0167834
6.32769e-05
-3.70848e-10
0.0167237
0.000308364
-1.03543e-10
0.0165923
0.00083266
-1.15418e-09
0.01592
0.00467317
-2.73518e-09
0.0145584
0.00658707
2.69606e-10
0.0133104
0.0061505
-2.62593e-10
0.0120653
0.00629953
-4.76526e-10
0.0107719
0.00664174
-4.47499e-10
0.00934913
0.00719693
-3.82746e-10
0.00779072
0.00779296
-3.57559e-10
0.00607727
0.00840955
-3.63212e-10
0.00420505
0.00903596
-3.65765e-10
0.00216801
0.00963339
-3.70317e-10
0.010044
-3.73602e-10
0.0168001
9.12907e-10
-3.33344e-12
0.0168001
5.01914e-09
-1.15907e-11
0.0168001
1.86643e-08
-1.361e-11
0.0168
4.77081e-08
-2.13539e-11
0.0168
1.32027e-07
-2.1824e-11
0.0167999
3.01311e-07
-2.89138e-11
0.0167997
7.9889e-07
-2.9578e-11
0.0167992
1.74257e-06
-4.13404e-11
0.0167984
5.05813e-06
-3.89651e-11
0.0167957
9.27307e-06
-1.0357e-10
0.0167923
3.68446e-05
-2.01382e-11
0.0167825
7.24283e-05
-2.91303e-10
0.0167614
0.000323834
-1.50991e-10
0.0167052
0.000880438
-1.01698e-09
0.016541
0.00478469
-2.47726e-09
0.0151412
0.00799867
7.92219e-11
0.0137907
0.00750468
-3.31326e-10
0.0125042
0.00758487
-4.60342e-10
0.0112101
0.00793502
-4.25951e-10
0.00981188
0.00859535
-3.65312e-10
0.00824786
0.00935801
-3.58674e-10
0.00652332
0.0101355
-3.67972e-10
0.00458279
0.0109773
-3.67586e-10
0.00239025
0.0118261
-3.65088e-10
0.0124343
-3.63702e-10
0.0168001
9.94089e-10
-3.29437e-12
0.0168001
5.48413e-09
-1.15924e-11
0.0168001
2.04305e-08
-1.35559e-11
0.0168
5.23232e-08
-2.12697e-11
0.0168
1.44471e-07
-2.15579e-11
0.0168
3.30092e-07
-2.83391e-11
0.0167999
8.66452e-07
-2.83306e-11
0.0167997
1.91971e-06
-3.64476e-11
0.0167994
5.17972e-06
-3.99614e-11
0.0167974
1.10679e-05
-5.96794e-11
0.0167979
3.50189e-05
-7.01915e-11
0.0167972
7.2111e-05
-1.98741e-10
0.0168163
0.00029945
-2.39181e-10
0.0168833
0.000805426
-9.03914e-10
0.0175545
0.00406456
-2.32202e-09
0.0161282
0.00943445
-1.9056e-10
0.0145241
0.0091161
-4.09786e-10
0.013185
0.00892699
-3.96866e-10
0.0118809
0.00924078
-3.64323e-10
0.0104747
0.0100022
-3.23405e-10
0.00890902
0.0109243
-3.38041e-10
0.00713515
0.0119096
-3.53217e-10
0.00512402
0.0129891
-3.58512e-10
0.00278085
0.0141696
-3.57359e-10
0.0152155
-3.53854e-10
0.0168001
1.05684e-09
-3.25803e-12
0.0168001
5.88238e-09
-1.15979e-11
0.0168001
2.19511e-08
-1.35452e-11
0.0168001
5.66313e-08
-2.12473e-11
0.0168
1.55589e-07
-2.14892e-11
0.0168
3.57487e-07
-2.82005e-11
0.0167999
9.28117e-07
-2.79686e-11
0.0167997
2.08646e-06
-3.56775e-11
0.0167993
5.41885e-06
-3.82393e-11
0.0167981
1.21154e-05
-5.55544e-11
0.0167989
3.32119e-05
-6.19442e-11
0.0167924
7.76129e-05
-1.82502e-10
0.0168318
0.000255269
-1.69332e-10
0.0169466
0.000690329
-6.78654e-10
0.0178255
0.00314925
-1.34337e-09
0.0168553
0.0103866
-1.05394e-09
0.0151358
0.0108274
-6.55936e-10
0.0138896
0.0101728
-3.05598e-10
0.012632
0.0104983
-3.05741e-10
0.0112616
0.0113738
-3.10924e-10
0.00972948
0.0124584
-3.32248e-10
0.00797449
0.0136663
-3.41305e-10
0.0059133
0.0150515
-3.42055e-10
0.0033669
0.0167167
-3.4252e-10
0.0185827
-3.41178e-10
0.0168001
1.45142e-09
-3.23033e-12
0.0168001
6.48255e-09
-1.15945e-11
0.0168001
2.65117e-08
-1.35532e-11
0.0168
6.35554e-08
-2.12288e-11
0.0168
1.86346e-07
-2.1468e-11
0.0168
4.06002e-07
-2.81377e-11
0.0167998
1.09606e-06
-2.78544e-11
0.0167994
2.46262e-06
-3.53712e-11
0.0167989
5.76462e-06
-3.76808e-11
0.0167963
1.4543e-05
-5.45319e-11
0.0167956
3.30271e-05
-5.65981e-11
0.0167927
7.94473e-05
-1.85836e-10
0.0167916
0.000252041
-1.18431e-10
0.0168153
0.000667765
-6.92026e-10
0.0171478
0.00279377
-1.08504e-09
0.0165406
0.0109562
-1.89814e-09
0.015628
0.0117236
-9.94162e-10
0.0144726
0.0113283
-3.01175e-11
0.013231
0.0117401
-2.2042e-10
0.0120573
0.0125466
-2.6888e-10
0.0106442
0.0138711
-3.10642e-10
0.00902137
0.0152891
-3.18682e-10
0.00708659
0.0169861
-3.19215e-10
0.00442926
0.0193743
-3.17318e-10
0.0230123
-3.16059e-10
0.0168001
-3.25035e-12
2.07777e-09
0.0168001
-1.16217e-11
1.56935e-09
0.0168001
-1.36347e-11
2.75708e-08
0.0168001
-2.18407e-11
2.37188e-08
0.0168001
-2.12479e-11
1.81945e-07
0.0168003
-2.91007e-11
1.54525e-07
0.0168003
-2.82305e-11
1.10396e-06
0.016802
-3.746e-11
7.86244e-07
0.0168002
-3.73048e-11
7.41556e-06
0.0168116
-6.06937e-11
3.19937e-06
0.0167883
-6.95173e-11
5.56106e-05
0.0168539
-1.47417e-10
1.32312e-05
0.01671
-1.43687e-10
0.000392025
0.0169891
-5.75671e-10
0.000388617
0.0170155
-1.06975e-09
0.00275007
0.0165637
-2.12687e-09
0.0113684
0.0158298
-3.32921e-10
0.0124517
0.0148529
-7.52511e-11
0.0123052
0.013875
-1.76128e-10
0.0127173
0.0128464
-2.2235e-10
0.0135751
0.0117339
-2.86782e-10
0.014983
0.0104381
-2.89508e-10
0.0165846
0.00868163
-2.90549e-10
0.0187424
0.0061167
-2.83515e-10
0.0219393
-2.69485e-10
0.0291289
0.0168001
2.09104e-10
-5.46354e-16
0.0168001
1.12812e-09
-2.87831e-15
0.0168
4.20545e-09
-6.45018e-15
0.0168
1.07602e-08
-1.36939e-14
0.0168
2.98459e-08
-2.60175e-14
0.0167999
6.87177e-08
-4.97275e-14
0.0167997
1.78604e-07
-1.06509e-13
0.0167993
4.1158e-07
-2.10848e-13
0.016798
1.03555e-06
-5.08417e-13
0.0167955
2.38609e-06
-1.04435e-12
0.0167872
6.74918e-06
-2.99036e-12
0.0167692
1.68458e-05
-7.02288e-12
0.0167087
5.53126e-05
-1.83489e-11
0.0165219
0.000175238
-6.18387e-11
0.0154376
0.00104105
-1.6668e-10
0.0141963
0.00124897
2.29941e-11
0.0129565
0.00124046
-5.60457e-12
0.0116615
0.001293
-1.87748e-11
0.0103002
0.00135965
-1.72664e-11
0.00885939
0.00144029
-1.46423e-11
0.00731145
0.0015476
-1.63048e-11
0.00565008
0.00166094
-1.91944e-11
0.00388447
0.00176514
-2.18066e-11
0.00200996
0.00187372
-2.54532e-11
0.00200889
-3.03804e-11
0.0168001
3.95912e-10
-5.44995e-16
0.0168001
2.13239e-09
-2.86886e-15
0.0168001
7.9648e-09
-6.43287e-15
0.0168
2.03279e-08
-1.36587e-14
0.0168
5.66679e-08
-2.60028e-14
0.0167999
1.29934e-07
-4.97688e-14
0.0167997
3.42713e-07
-1.06875e-13
0.0167993
7.76558e-07
-2.13587e-13
0.0167981
2.03858e-06
-5.10472e-13
0.0167957
4.58186e-06
-1.06585e-12
0.0167875
1.35744e-05
-3.03932e-12
0.01677
3.31417e-05
-7.17869e-12
0.0167025
0.00011747
-1.85919e-11
0.0165028
0.000363053
-6.26599e-11
0.0153841
0.00211568
-1.68476e-10
0.0140978
0.00254352
2.58564e-11
0.0128774
0.00246167
-4.29479e-12
0.0116048
0.00256353
-1.84481e-11
0.0102563
0.00270669
-1.71353e-11
0.00880484
0.00289134
-1.46952e-11
0.00724376
0.00310857
-1.59975e-11
0.00557475
0.00332976
-1.84136e-11
0.00379882
0.00354078
-2.08698e-11
0.00192466
0.00374726
-2.41142e-11
0.00393263
-2.83893e-11
0.0168001
5.26969e-10
-5.23048e-16
0.0168001
2.86796e-09
-2.77456e-15
0.0168001
1.06725e-08
-6.10515e-15
0.0168
2.73147e-08
-1.29485e-14
0.0168
7.57708e-08
-2.38957e-14
0.0168
1.72412e-07
-4.48494e-14
0.0167998
4.64289e-07
-9.71584e-14
0.0167996
9.94697e-07
-1.71704e-13
0.0167984
2.93582e-06
-5.15338e-13
0.0167969
5.95728e-06
-8.28505e-13
0.0167891
2.00071e-05
-3.1597e-12
0.0167761
4.48349e-05
-5.9133e-12
0.0166937
0.000194803
-2.46741e-11
0.0165016
0.000545486
-6.32299e-11
0.0154108
0.0031599
-1.79358e-10
0.014102
0.00386266
3.15821e-11
0.0128922
0.00367394
-6.63021e-15
0.0116411
0.00381354
-1.72146e-11
0.0103126
0.00403411
-1.65311e-11
0.0088662
0.00433767
-1.45325e-11
0.00730357
0.0046714
-1.51635e-11
0.00562298
0.00501046
-1.69882e-11
0.00382547
0.00533815
-1.90712e-11
0.00193472
0.00563757
-2.16099e-11
0.00586662
-2.44401e-11
0.0168001
6.51957e-10
-5.17774e-16
0.0168001
3.52741e-09
-2.74854e-15
0.0168001
1.31521e-08
-6.04254e-15
0.0168
3.35156e-08
-1.28e-14
0.0168
9.3446e-08
-2.3694e-14
0.0168
2.11826e-07
-4.45413e-14
0.0167998
5.76872e-07
-9.71774e-14
0.0167996
1.21948e-06
-1.74982e-13
0.0167986
3.70033e-06
-5.20185e-13
0.016797
7.34624e-06
-8.62975e-13
0.0167896
2.60127e-05
-3.27974e-12
0.0167752
5.79497e-05
-6.13666e-12
0.0167103
0.00025435
-2.56235e-11
0.0165352
0.000710498
-6.53191e-11
0.0155924
0.00405358
-1.88821e-10
0.0142551
0.00521215
3.87728e-11
0.0130343
0.00489788
3.59626e-12
0.0117924
0.00505446
-1.66006e-11
0.0104769
0.00534862
-1.62078e-11
0.00904082
0.00577375
-1.4201e-11
0.00747903
0.0062336
-1.394e-11
0.0057941
0.00669572
-1.54608e-11
0.00396895
0.00716365
-1.70869e-11
0.00201003
0.0075963
-1.87318e-11
0.0078762
-2.01289e-11
0.0168001
7.01857e-10
-4.8482e-16
0.0168001
3.90775e-09
-2.6158e-15
0.0168001
1.44719e-08
-5.55124e-15
0.0168001
3.70318e-08
-1.17225e-14
0.0168
1.02294e-07
-2.03376e-14
0.0168
2.29956e-07
-3.66788e-14
0.0167999
6.37234e-07
-8.10178e-14
0.0167999
1.22673e-06
-9.92161e-14
0.0167988
4.52267e-06
-5.4802e-13
0.0167996
6.61572e-06
-2.58471e-13
0.0167889
3.5002e-05
-5.35702e-12
0.0167833
6.33268e-05
-4.67031e-12
0.0167237
0.000308366
-2.50554e-11
0.0165923
0.000832792
-6.63451e-11
0.0159201
0.0046738
-1.98471e-10
0.0145585
0.00658704
4.14994e-11
0.0133104
0.00615038
6.49413e-12
0.0120652
0.00629943
-1.58159e-11
0.0107718
0.00664165
-1.57166e-11
0.00934903
0.00719683
-1.37173e-11
0.0077906
0.00779285
-1.2301e-11
0.00607715
0.00840943
-1.32771e-11
0.00420496
0.00903583
-1.44484e-11
0.00216797
0.00963328
-1.56032e-11
0.010044
-1.60477e-11
0.0168001
9.31672e-10
-4.9636e-16
0.0168001
5.03305e-09
-2.67717e-15
0.0168001
1.87088e-08
-5.79766e-15
0.0168
4.77827e-08
-1.19855e-14
0.0168
1.3223e-07
-2.22038e-14
0.0167999
3.01762e-07
-4.02675e-14
0.0167997
7.99911e-07
-8.89536e-14
0.0167992
1.74584e-06
-1.3707e-13
0.0167984
5.06045e-06
-5.41886e-13
0.0167957
9.29734e-06
-4.7372e-13
0.0167923
3.68363e-05
-3.44319e-12
0.0167825
7.24795e-05
-5.0289e-12
0.0167614
0.000323824
-2.67456e-11
0.0167052
0.000880546
-6.42099e-11
0.016541
0.00478536
-1.99125e-10
0.0151413
0.00799848
3.00076e-11
0.0137909
0.00750456
6.59103e-12
0.0125044
0.00758478
-1.42661e-11
0.0112101
0.00793499
-1.45896e-11
0.00981188
0.00859531
-1.34556e-11
0.00824783
0.00935792
-1.14359e-11
0.00652327
0.0101354
-1.20565e-11
0.00458274
0.0109771
-1.27171e-11
0.00239021
0.011826
-1.29313e-11
0.0124342
-1.24225e-11
0.0168001
1.01217e-09
-5.08061e-16
0.0168001
5.49607e-09
-2.71959e-15
0.0168001
2.04509e-08
-5.96408e-15
0.0168
5.23575e-08
-1.23926e-14
0.0168
1.44545e-07
-2.32998e-14
0.0168
3.3025e-07
-4.32488e-14
0.0167999
8.6683e-07
-9.23059e-14
0.0167997
1.92056e-06
-1.73697e-13
0.0167994
5.18178e-06
-4.67134e-13
0.0167974
1.10725e-05
-8.39991e-13
0.0167979
3.50307e-05
-3.14156e-12
0.0167973
7.2125e-05
-5.0105e-12
0.0168163
0.000299518
-2.33122e-11
0.0168832
0.000805592
-5.76888e-11
0.0175538
0.00406585
-1.87231e-10
0.0161277
0.0094341
1.11075e-11
0.014524
0.00911558
-2.1733e-12
0.013185
0.0089268
-1.41097e-11
0.0118809
0.00924072
-1.35976e-11
0.0104748
0.0100021
-1.22735e-11
0.00890903
0.0109242
-1.03864e-11
0.00713513
0.0119095
-1.04981e-11
0.00512399
0.012989
-1.08812e-11
0.00278083
0.0141695
-1.06442e-11
0.0152153
-9.31167e-12
0.0168001
1.0689e-09
-4.97315e-16
0.0168001
5.88961e-09
-2.67002e-15
0.0168001
2.19491e-08
-5.80339e-15
0.0168
5.66128e-08
-1.20442e-14
0.0168
1.55542e-07
-2.22214e-14
0.0168
3.57443e-07
-4.10387e-14
0.0167999
9.28043e-07
-8.4958e-14
0.0167997
2.08641e-06
-1.60558e-13
0.0167993
5.41893e-06
-4.03327e-13
0.0167981
1.21158e-05
-7.90673e-13
0.0167989
3.32149e-05
-2.20994e-12
0.0167924
7.7614e-05
-5.2182e-12
0.0168318
0.000255309
-1.46538e-11
0.0169468
0.000690352
-3.83542e-11
0.0178265
0.00314977
-1.01265e-10
0.0168556
0.0103868
-6.32575e-11
0.0151361
0.010827
-3.10339e-11
0.0138897
0.0101728
-1.26131e-11
0.0126321
0.0104983
-1.33805e-11
0.0112617
0.0113738
-1.39763e-11
0.00972951
0.0124584
-1.22192e-11
0.00797451
0.0136662
-1.10912e-11
0.0059133
0.0150514
-1.02928e-11
0.00336689
0.0167165
-9.24857e-12
0.0185826
-7.08248e-12
0.0168001
1.429e-09
-4.85762e-16
0.0168001
6.59083e-09
-2.61541e-15
0.0168001
2.65332e-08
-5.63362e-15
0.0168
6.3323e-08
-1.16685e-14
0.0168
1.86322e-07
-2.1163e-14
0.0168
4.05576e-07
-3.88278e-14
0.0167998
1.09571e-06
-7.88179e-14
0.0167994
2.46175e-06
-1.48107e-13
0.0167989
5.76411e-06
-3.65441e-13
0.0167963
1.45415e-05
-7.32523e-13
0.0167956
3.30221e-05
-1.81267e-12
0.0167926
7.94625e-05
-5.30227e-12
0.0167916
0.000252039
-1.07109e-11
0.0168152
0.000667837
-3.70985e-11
0.0171481
0.00279396
-8.27837e-11
0.0165412
0.0109562
-1.37092e-10
0.0156279
0.0117239
-6.86689e-11
0.0144727
0.011328
6.25717e-12
0.0132312
0.0117401
-9.08117e-12
0.0120574
0.0125466
-1.23825e-11
0.0106442
0.0138711
-1.29442e-11
0.00902142
0.015289
-1.16018e-11
0.00708662
0.016986
-1.0613e-11
0.00442928
0.0193742
-8.65057e-12
0.0230122
-5.90444e-12
0.0168001
-4.80667e-16
1.94207e-09
0.0168001
-2.56496e-15
1.93114e-09
0.0168001
-5.45412e-15
2.63629e-08
0.0168001
-1.15239e-14
2.42194e-08
0.0168001
-1.96395e-14
1.80532e-07
0.0168003
-3.63388e-14
1.55132e-07
0.0168003
-6.99862e-14
1.10283e-06
0.016802
-1.26735e-13
7.8716e-07
0.0168002
-3.20514e-13
7.41417e-06
0.0168116
-5.64531e-13
3.19299e-06
0.0167883
-1.83488e-12
5.5608e-05
0.0168539
-3.63843e-12
1.32484e-05
0.01671
-1.11512e-11
0.000392002
0.0169891
-2.86868e-11
0.000388712
0.0170156
-8.08645e-11
0.00275015
0.0165637
-1.54597e-10
0.0113685
0.0158302
-1.8302e-11
0.0124517
0.0148531
1.53561e-12
0.0123052
0.0138751
-6.49782e-12
0.0127173
0.0128465
-9.66944e-12
0.0135751
0.011734
-1.33001e-11
0.014983
0.0104382
-1.25689e-11
0.0165846
0.0086817
-1.11048e-11
0.0187424
0.00611674
-8.84138e-12
0.0219392
-5.85977e-12
0.0291289
0.0168001
2.09105e-10
2.17576e-16
0.0168001
1.12812e-09
1.87144e-16
0.0168
4.20549e-09
1.68487e-16
0.0168
1.07603e-08
3.64413e-16
0.0168
2.98461e-08
1.05026e-15
0.0167999
6.87182e-08
2.16784e-15
0.0167997
1.78605e-07
6.07059e-15
0.0167993
4.11582e-07
1.28086e-14
0.016798
1.03556e-06
3.45872e-14
0.0167955
2.38609e-06
7.27355e-14
0.0167872
6.74919e-06
2.2017e-13
0.0167692
1.68458e-05
5.20322e-13
0.0167087
5.53121e-05
1.39837e-12
0.0165219
0.000175237
4.7081e-12
0.0154376
0.00104104
1.28171e-11
0.0141963
0.00124896
-2.31089e-12
0.0129565
0.00124046
-4.06119e-13
0.0116615
0.001293
6.20142e-13
0.0103003
0.00135965
5.21942e-13
0.00885942
0.00144029
2.63217e-13
0.00731148
0.0015476
9.22136e-15
0.00565011
0.00166094
-1.86561e-13
0.0038845
0.00176515
-3.20462e-13
0.00200999
0.00187373
-5.06183e-13
0.00200891
-7.17743e-13
0.0168001
3.95922e-10
2.17067e-16
0.0168001
2.13244e-09
1.88004e-16
0.0168001
7.96498e-09
1.66404e-16
0.0168
2.03283e-08
3.59736e-16
0.0168
5.66692e-08
1.04354e-15
0.0167999
1.29937e-07
2.15861e-15
0.0167997
3.4272e-07
6.06567e-15
0.0167993
7.76581e-07
1.29404e-14
0.0167981
2.03859e-06
3.45897e-14
0.0167957
4.58198e-06
7.39705e-14
0.0167875
1.35744e-05
2.23012e-13
0.01677
3.31422e-05
5.29904e-13
0.0167025
0.000117467
1.41307e-12
0.0165028
0.000363051
4.7561e-12
0.0153841
0.00211567
1.29269e-11
0.0140978
0.00254351
-2.49788e-12
0.0128774
0.00246167
-4.1794e-13
0.0116049
0.00256353
6.03339e-13
0.0102563
0.00270669
5.13652e-13
0.00880485
0.00289134
2.64135e-13
0.00724377
0.00310857
-4.37196e-15
0.00557477
0.00332976
-2.01057e-13
0.00379883
0.00354079
-3.29864e-13
0.00192467
0.00374728
-5.02416e-13
0.00393266
-6.91846e-13
0.0168001
5.26972e-10
2.10101e-16
0.0168001
2.86798e-09
1.97598e-16
0.0168001
1.06725e-08
1.40647e-16
0.0168
2.73149e-08
3.03606e-16
0.0168
7.57713e-08
8.76493e-16
0.0168
1.72413e-07
1.76903e-15
0.0167998
4.64292e-07
5.28021e-15
0.0167996
9.94702e-07
9.66326e-15
0.0167984
2.93584e-06
3.46624e-14
0.0167969
5.95728e-06
5.54244e-14
0.0167891
2.00072e-05
2.2998e-13
0.0167761
4.48348e-05
4.30657e-13
0.0166937
0.000194803
1.85646e-12
0.0165016
0.000545484
4.76477e-12
0.0154108
0.0031599
1.36554e-11
0.014102
0.00386264
-2.88263e-12
0.0128922
0.00367393
-7.8226e-13
0.0116411
0.00381353
5.15096e-13
0.0103126
0.0040341
4.5994e-13
0.00886621
0.00433767
2.35869e-13
0.00730358
0.00467139
-6.27583e-14
0.00562299
0.00501046
-2.5559e-13
0.00382548
0.00533815
-3.60056e-13
0.00193472
0.00563759
-4.96868e-13
0.00586665
-6.25642e-13
0.0168001
6.51972e-10
2.08312e-16
0.0168001
3.52748e-09
1.99625e-16
0.0168001
1.31524e-08
1.34533e-16
0.0168
3.35162e-08
2.90099e-16
0.0168
9.34479e-08
8.53075e-16
0.0168
2.1183e-07
1.73055e-15
0.0167998
5.76882e-07
5.23325e-15
0.0167996
1.21952e-06
9.8325e-15
0.0167986
3.70033e-06
3.4679e-14
0.016797
7.34649e-06
5.75739e-14
0.0167896
2.60123e-05
2.36828e-13
0.0167752
5.79502e-05
4.43729e-13
0.0167103
0.000254349
1.91034e-12
0.0165352
0.000710498
4.88037e-12
0.0155924
0.00405359
1.42503e-11
0.0142551
0.00521213
-3.34694e-12
0.0130343
0.00489787
-1.01637e-12
0.0117924
0.00505446
4.86193e-13
0.0104769
0.00534862
4.44802e-13
0.00904082
0.00577375
2.28925e-13
0.00747903
0.0062336
-1.08172e-13
0.0057941
0.00669572
-2.9953e-13
0.00396895
0.00716365
-3.75104e-13
0.00201003
0.00759632
-4.76747e-13
0.00787623
-5.54868e-13
0.0168001
7.01853e-10
1.97174e-16
0.0168001
3.90772e-09
2.09436e-16
0.0168001
1.44718e-08
9.51464e-17
0.0168001
3.70316e-08
2.04799e-16
0.0168
1.02293e-07
5.8557e-16
0.0168
2.29954e-07
1.11183e-15
0.0167999
6.37231e-07
3.93471e-15
0.0167999
1.22672e-06
3.94714e-15
0.0167988
4.52267e-06
3.63541e-14
0.0167996
6.61565e-06
1.08237e-14
0.0167889
3.50021e-05
3.15295e-13
0.0167833
6.33267e-05
3.27025e-13
0.0167237
0.000308367
2.09312e-12
0.0165923
0.000832796
4.91932e-12
0.0159201
0.00467383
1.48576e-11
0.0145585
0.00658702
-3.47695e-12
0.0133104
0.00615036
-1.19335e-12
0.0120652
0.00629942
4.76011e-13
0.0107718
0.00664164
4.54154e-13
0.00934902
0.00719682
2.5483e-13
0.0077906
0.00779284
-1.07123e-13
0.00607715
0.00840943
-2.98568e-13
0.00420496
0.00903584
-3.54506e-13
0.00216796
0.00963329
-4.36477e-13
0.010044
-4.89758e-13
0.0168001
9.31667e-10
2.01631e-16
0.0168001
5.03304e-09
2.04961e-16
0.0168001
1.87087e-08
1.12941e-16
0.0168
4.77824e-08
2.40396e-16
0.0168
1.32229e-07
7.14231e-16
0.0167999
3.0176e-07
1.41096e-15
0.0167997
7.99908e-07
4.55073e-15
0.0167992
1.74582e-06
6.8475e-15
0.0167984
5.06048e-06
3.5884e-14
0.0167957
9.29717e-06
2.68683e-14
0.0167923
3.68367e-05
2.90596e-13
0.0167825
7.24798e-05
3.51242e-13
0.0167614
0.000323827
1.96784e-12
0.0167052
0.000880555
4.72442e-12
0.0165409
0.00478542
1.47998e-11
0.0151413
0.00799846
-2.90202e-12
0.0137908
0.00750453
-1.13785e-12
0.0125043
0.00758477
4.37991e-13
0.0112101
0.00793498
4.54859e-13
0.00981186
0.00859531
2.89025e-13
0.00824782
0.00935792
-6.77906e-14
0.00652326
0.0101354
-2.54041e-13
0.00458273
0.0109771
-2.92833e-13
0.0023902
0.011826
-3.58231e-13
0.0124343
-4.00988e-13
0.0168001
1.01217e-09
2.05673e-16
0.0168001
5.4961e-09
2.01992e-16
0.0168001
2.0451e-08
1.26609e-16
0.0168
5.23577e-08
2.73404e-16
0.0168
1.44546e-07
8.01261e-16
0.0168
3.30252e-07
1.64177e-15
0.0167999
8.66835e-07
4.817e-15
0.0167997
1.92057e-06
9.60839e-15
0.0167994
5.18182e-06
3.01929e-14
0.0167974
1.10725e-05
5.49385e-14
0.0167979
3.50313e-05
2.21954e-13
0.0167973
7.21253e-05
3.49093e-13
0.0168163
0.000299524
1.69571e-12
0.0168832
0.000805608
4.20581e-12
0.0175537
0.00406597
1.37945e-11
0.0161276
0.00943409
-1.09638e-12
0.014524
0.00911553
-3.75362e-13
0.013185
0.00892678
5.44515e-13
0.0118809
0.0092407
5.26115e-13
0.0104748
0.0100021
3.89045e-13
0.00890901
0.0109242
5.20276e-14
0.00713512
0.0119095
-1.34264e-13
0.00512398
0.012989
-1.66422e-13
0.00278082
0.0141695
-2.14257e-13
0.0152154
-2.49165e-13
0.0168001
1.06891e-09
2.02183e-16
0.0168001
5.88964e-09
2.0653e-16
0.0168001
2.19492e-08
1.15296e-16
0.0168
5.66131e-08
2.49049e-16
0.0168
1.55542e-07
7.23827e-16
0.0168
3.57445e-07
1.48322e-15
0.0167999
9.28048e-07
4.27993e-15
0.0167997
2.08642e-06
8.65379e-15
0.0167993
5.41896e-06
2.54433e-14
0.0167981
1.21159e-05
5.13826e-14
0.0167989
3.32152e-05
1.5182e-13
0.0167924
7.76143e-05
3.65611e-13
0.0168318
0.000255312
1.04491e-12
0.0169468
0.000690357
2.76076e-12
0.0178266
0.00314982
7.36899e-12
0.0168557
0.0103869
4.46325e-12
0.0151361
0.010827
1.90526e-12
0.0138897
0.0101728
6.16167e-13
0.012632
0.0104983
6.55815e-13
0.0112617
0.0113737
6.40439e-13
0.0097295
0.0124584
3.33532e-13
0.00797449
0.0136662
1.33439e-13
0.00591329
0.0150514
8.12302e-14
0.00336689
0.0167166
4.19825e-14
0.0185826
2.81733e-14
0.0168001
1.429e-09
1.98183e-16
0.0168001
6.59087e-09
2.10769e-16
0.0168001
2.65333e-08
1.02343e-16
0.0168
6.33233e-08
2.2071e-16
0.0168
1.86323e-07
6.43083e-16
0.0168
4.05578e-07
1.3152e-15
0.0167998
1.09571e-06
3.80869e-15
0.0167994
2.46176e-06
7.70233e-15
0.0167989
5.76415e-06
2.25139e-14
0.0167963
1.45416e-05
4.6885e-14
0.0167956
3.30223e-05
1.2147e-13
0.0167926
7.94633e-05
3.70006e-13
0.0167916
0.00025204
7.48415e-13
0.0168152
0.000667843
2.64056e-12
0.0171482
0.00279399
5.97204e-12
0.0165412
0.0109563
9.95375e-12
0.0156279
0.0117239
4.90576e-12
0.0144727
0.011328
-5.71055e-13
0.0132312
0.0117401
4.94156e-13
0.0120574
0.0125466
6.94575e-13
0.0106442
0.0138711
6.13974e-13
0.00902141
0.015289
4.40067e-13
0.00708661
0.016986
4.25749e-13
0.00442928
0.0193742
4.29498e-13
0.0230123
5.16551e-13
0.0168001
1.94609e-16
1.94205e-09
0.0168001
2.13507e-16
1.9312e-09
0.0168001
8.53377e-17
2.63628e-08
0.0168001
1.84369e-16
2.42197e-08
0.0168001
5.26678e-16
1.80532e-07
0.0168003
1.0722e-15
1.55133e-07
0.0168003
3.06678e-15
1.10283e-06
0.016802
6.02172e-15
7.87163e-07
0.0168002
1.87391e-14
7.4142e-06
0.0168116
3.39933e-14
3.19299e-06
0.0167883
1.21565e-13
5.56082e-05
0.0168539
2.44591e-13
1.32486e-05
0.01671
7.75213e-13
0.000392004
0.0169891
2.02021e-12
0.000388716
0.0170156
5.7932e-12
0.00275017
0.0165638
1.12455e-11
0.0113685
0.0158303
1.45807e-12
0.0124517
0.0148531
-5.84602e-15
0.0123052
0.0138751
4.76145e-13
0.0127173
0.0128465
6.70018e-13
0.0135751
0.011734
8.73791e-13
0.014983
0.0104382
8.12562e-13
0.0165845
0.00868169
8.19227e-13
0.0187424
0.00611674
9.33506e-13
0.0219392
1.359e-12
0.0291289
0.0168001
2.09105e-10
-1.95206e-16
0.0168001
1.12812e-09
-6.67049e-16
0.0168
4.20548e-09
-1.87536e-15
0.0168
1.07603e-08
-3.79278e-15
0.0168
2.98461e-08
-1.03183e-14
0.0167999
6.87181e-08
-2.09523e-14
0.0167997
1.78605e-07
-5.76222e-14
0.0167993
4.11582e-07
-1.21297e-13
0.016798
1.03556e-06
-3.24017e-13
0.0167955
2.38609e-06
-6.8292e-13
0.0167872
6.74918e-06
-2.05741e-12
0.0167692
1.68458e-05
-4.834e-12
0.0167087
5.53122e-05
-1.31388e-11
0.0165219
0.000175237
-4.38318e-11
0.0154376
0.00104104
-1.21698e-10
0.0141963
0.00124896
2.14007e-11
0.0129565
0.00124046
1.42654e-12
0.0116615
0.001293
-8.39674e-12
0.0103003
0.00135965
-7.35249e-12
0.00885942
0.00144029
-4.88724e-12
0.00731148
0.0015476
-3.96507e-12
0.00565011
0.00166094
-3.78149e-12
0.0038845
0.00176514
-3.61956e-12
0.00200999
0.00187373
-3.67589e-12
0.00200891
-3.82329e-12
0.0168001
3.95922e-10
-1.93282e-16
0.0168001
2.13243e-09
-6.59161e-16
0.0168001
7.96497e-09
-1.85866e-15
0.0168
2.03283e-08
-3.75636e-15
0.0168
5.66691e-08
-1.02768e-14
0.0167999
1.29937e-07
-2.0911e-14
0.0167997
3.4272e-07
-5.76914e-14
0.0167993
7.76579e-07
-1.22799e-13
0.0167981
2.03859e-06
-3.2456e-13
0.0167957
4.58197e-06
-6.95838e-13
0.0167875
1.35744e-05
-2.08674e-12
0.01677
3.31422e-05
-4.93024e-12
0.0167025
0.000117468
-1.32861e-11
0.0165028
0.000363051
-4.42982e-11
0.0153841
0.00211567
-1.22653e-10
0.0140978
0.00254351
2.33266e-11
0.0128774
0.00246167
2.28312e-12
0.0116049
0.00256353
-8.19349e-12
0.0102563
0.00270669
-7.24683e-12
0.00880485
0.00289134
-4.88165e-12
0.00724377
0.00310857
-3.76262e-12
0.00557477
0.00332976
-3.45297e-12
0.00379883
0.00354079
-3.27279e-12
0.00192467
0.00374728
-3.30873e-12
0.00393266
-3.41488e-12
0.0168001
5.26971e-10
-1.69696e-16
0.0168001
2.86798e-09
-5.82738e-16
0.0168001
1.06725e-08
-1.61486e-15
0.0168
2.73149e-08
-3.23773e-15
0.0168
7.57713e-08
-8.75118e-15
0.0168
1.72413e-07
-1.73544e-14
0.0167998
4.64291e-07
-5.05676e-14
0.0167996
9.94702e-07
-9.2747e-14
0.0167984
2.93584e-06
-3.26221e-13
0.0167969
5.95728e-06
-5.25605e-13
0.0167891
2.00072e-05
-2.15944e-12
0.0167761
4.48348e-05
-4.01887e-12
0.0166937
0.000194803
-1.75553e-11
0.0165016
0.000545484
-4.44408e-11
0.0154108
0.0031599
-1.29712e-10
0.014102
0.00386264
2.72747e-11
0.0128922
0.00367393
5.23028e-12
0.0116411
0.00381353
-7.29902e-12
0.0103126
0.0040341
-6.71436e-12
0.00886621
0.00433767
-4.60794e-12
0.00730358
0.00467139
-3.09949e-12
0.00562299
0.00501046
-2.66909e-12
0.00382548
0.00533815
-2.53165e-12
0.00193472
0.00563759
-2.59338e-12
0.00586666
-2.69018e-12
0.0168001
6.51971e-10
-1.63835e-16
0.0168001
3.52747e-09
-5.5991e-16
0.0168001
1.31523e-08
-1.56271e-15
0.0168
3.35161e-08
-3.12577e-15
0.0168
9.34477e-08
-8.57362e-15
0.0168
2.1183e-07
-1.70747e-14
0.0167998
5.76881e-07
-5.03555e-14
0.0167996
1.21951e-06
-9.4638e-14
0.0167986
3.70033e-06
-3.27776e-13
0.016797
7.34647e-06
-5.47085e-13
0.0167896
2.60124e-05
-2.22991e-12
0.0167752
5.79502e-05
-4.15281e-12
0.0167103
0.000254349
-1.81026e-11
0.0165352
0.000710498
-4.56002e-11
0.0155924
0.00405358
-1.35462e-10
0.0142551
0.00521213
3.21146e-11
0.0130343
0.00489787
7.59402e-12
0.0117924
0.00505446
-6.92214e-12
0.0104769
0.00534862
-6.47426e-12
0.00904082
0.00577375
-4.36194e-12
0.00747903
0.0062336
-2.37373e-12
0.0057941
0.00669572
-1.83749e-12
0.00396895
0.00716365
-1.74255e-12
0.00201003
0.00759632
-1.77923e-12
0.00787623
-1.81633e-12
0.0168001
7.01853e-10
-1.28065e-16
0.0168001
3.90773e-09
-4.48403e-16
0.0168001
1.44718e-08
-1.20185e-15
0.0168001
3.70317e-08
-2.37211e-15
0.0168
1.02294e-07
-6.24496e-15
0.0168
2.29955e-07
-1.17028e-14
0.0167999
6.37231e-07
-3.91224e-14
0.0167999
1.22672e-06
-4.33624e-14
0.0167988
4.52267e-06
-3.43493e-13
0.0167996
6.61566e-06
-1.3798e-13
0.0167889
3.50021e-05
-2.93382e-12
0.0167833
6.33267e-05
-3.13695e-12
0.0167237
0.000308367
-1.97713e-11
0.0165923
0.000832796
-4.60087e-11
0.0159201
0.00467383
-1.4118e-10
0.0145585
0.00658702
3.3672e-11
0.0133104
0.00615036
9.37697e-12
0.0120652
0.00629942
-6.57824e-12
0.0107718
0.00664164
-6.29786e-12
0.00934902
0.00719682
-4.21696e-12
0.0077906
0.00779284
-1.74849e-12
0.00607715
0.00840943
-1.059e-12
0.00420496
0.00903584