/*--------------------------------*- C++ -*----------------------------------*\
| =========                 |                                                 |
| \\      /  F ield         | OpenFOAM: The Open Source CFD Toolbox           |
|  \\    /   O peration     | Version:  4.1                                   |
|   \\  /    A nd           | Web:      www.OpenFOAM.org                      |
|    \\/     M anipulation  |                                                 |
\*---------------------------------------------------------------------------*/
FoamFile
{
    version     2.0;
    format      ascii;
    class       volScalarField;
    location    "5.32";
    object      T;
}
// * * * * * * * * * * * * * * * * * * * * * * * * * * * * * * * * * * * * * //

dimensions      [0 0 0 1 0 0 0];

internalField   nonuniform List<scalar> 
52500
(
0.999996
1.00002
1.00004
1.00016
1.00029
1.00093
1.00173
1.00513
1.01074
1.02784
1.07508
1.16661
1.51758
2.30859
2.65576
2.73387
2.72822
2.72449
2.73912
2.75081
2.76364
2.77163
2.77792
2.78244
2.78545
0.999995
1.00002
1.00004
1.00015
1.00028
1.00092
1.0017
1.00504
1.0106
1.02737
1.07411
1.16389
1.51265
2.29773
2.65265
2.73402
2.72825
2.72443
2.73886
2.75041
2.76288
2.77049
2.77669
2.7802
2.7824
0.999995
1.00002
1.00004
1.00015
1.00028
1.00089
1.00166
1.00488
1.01032
1.02646
1.07205
1.15837
1.50083
2.27239
2.64369
2.73263
2.72649
2.72216
2.73656
2.74786
2.76051
2.76731
2.77344
2.77775
2.77884
0.999995
1.00002
1.00004
1.00014
1.00026
1.00086
1.00159
1.00471
1.00986
1.02549
1.06864
1.15236
1.47412
2.22602
2.6286
2.72946
2.7229
2.71753
2.73159
2.74328
2.75612
2.76364
2.76846
2.77102
2.77419
0.999995
1.00002
1.00004
1.00013
1.00025
1.00081
1.0015
1.00448
1.00926
1.02421
1.0641
1.14418
1.43853
2.1609
2.60694
2.72497
2.71865
2.71041
2.72513
2.73388
2.74707
2.75414
2.76171
2.76518
2.76445
0.999995
1.00001
1.00003
1.00013
1.00024
1.00077
1.0014
1.00438
1.0085
1.02346
1.05706
1.1341
1.39192
2.07295
2.57712
2.71765
2.7109
2.70195
2.71762
2.72752
2.73734
2.74555
2.74912
2.75119
2.75484
0.999995
1.00001
1.00003
1.00012
1.00022
1.00071
1.00129
1.00402
1.00771
1.02189
1.0502
1.1229
1.34306
1.9695
2.53637
2.70668
2.6984
2.68651
2.7016
2.71389
2.7247
2.72984
2.73725
2.73903
2.73547
0.999995
1.00001
1.00003
1.0001
1.0002
1.00064
1.00117
1.00365
1.00695
1.02001
1.04436
1.11265
1.29844
1.8779
2.48276
2.68972
2.68457
2.67355
2.68786
2.69695
2.7093
2.71269
2.71324
2.71231
2.71208
0.999995
1.00001
1.00002
1.00009
1.00017
1.00057
1.00104
1.00328
1.00621
1.01799
1.03981
1.09992
1.269
1.76662
2.46544
2.67864
2.66258
2.66185
2.67359
2.67769
2.68732
2.69122
2.69162
2.68544
2.66093
0.999994
1.00001
1.00002
1.00007
1.00014
1.00046
1.00089
1.00252
1.00552
1.01377
1.03731
1.08231
1.25104
1.63498
2.39719
2.65285
2.65543
2.65454
2.65599
2.66378
2.66349
2.66137
2.6517
2.63082
2.58326
1
1.00003
1.00005
1.00016
1.0003
1.00094
1.00174
1.00514
1.01075
1.02785
1.07509
1.16666
1.51762
2.30873
2.65584
2.73394
2.72829
2.72457
2.73919
2.75089
2.76371
2.77171
2.77801
2.78253
2.78553
1
1.00003
1.00005
1.00016
1.00029
1.00093
1.00171
1.00505
1.01061
1.02739
1.07413
1.16394
1.51269
2.29787
2.65273
2.73409
2.72832
2.7245
2.73893
2.75049
2.76296
2.77057
2.77677
2.78028
2.78248
1
1.00002
1.00005
1.00016
1.00028
1.0009
1.00166
1.00489
1.01033
1.02648
1.07207
1.15841
1.50088
2.27253
2.64376
2.7327
2.72656
2.72224
2.73663
2.74793
2.76058
2.76739
2.77352
2.77783
2.77892
1
1.00002
1.00005
1.00015
1.00027
1.00086
1.0016
1.00472
1.00987
1.02551
1.06866
1.1524
1.47416
2.22617
2.62868
2.72953
2.72297
2.7176
2.73166
2.74336
2.7562
2.76372
2.76854
2.7711
2.77427
1
1.00002
1.00004
1.00014
1.00026
1.00082
1.00151
1.0045
1.00927
1.02423
1.0641
1.14422
1.43853
2.16101
2.60701
2.72504
2.71872
2.71048
2.7252
2.73395
2.74714
2.75421
2.76178
2.76525
2.76453
1
1.00002
1.00004
1.00014
1.00024
1.00078
1.00141
1.00439
1.00851
1.02348
1.05706
1.13413
1.39193
2.07305
2.57719
2.71772
2.71097
2.70201
2.71769
2.72759
2.73741
2.74563
2.74919
2.75127
2.75491
1
1.00002
1.00004
1.00012
1.00022
1.00072
1.0013
1.00403
1.00772
1.0219
1.05021
1.12293
1.34309
1.96961
2.53645
2.70675
2.69848
2.68658
2.70167
2.71395
2.72477
2.72991
2.73732
2.7391
2.73554
1
1.00002
1.00003
1.00011
1.0002
1.00065
1.00118
1.00366
1.00696
1.02003
1.04437
1.11268
1.29846
1.87802
2.48278
2.68978
2.68463
2.67361
2.68792
2.69702
2.70937
2.71276
2.71331
2.71238
2.71215
1
1.00002
1.00003
1.0001
1.00018
1.00058
1.00105
1.00329
1.00622
1.018
1.03982
1.09995
1.26901
1.76675
2.46549
2.6787
2.66265
2.6619
2.67365
2.67775
2.68739
2.69128
2.69168
2.6855
2.66099
1
1.00001
1.00003
1.00008
1.00015
1.00047
1.00089
1.00253
1.00553
1.01378
1.03733
1.08234
1.25106
1.63508
2.39726
2.65291
2.65548
2.65459
2.65604
2.66384
2.66355
2.66143
2.65176
2.63088
2.58331
1
1.00003
1.00005
1.00016
1.0003
1.00094
1.00174
1.00514
1.01075
1.02785
1.07509
1.16666
1.51762
2.30873
2.65584
2.73394
2.72829
2.72457
2.73919
2.75089
2.76371
2.77171
2.77801
2.78253
2.78553
1
1.00003
1.00005
1.00016
1.00029
1.00093
1.00171
1.00505
1.01061
1.02739
1.07413
1.16394
1.51269
2.29787
2.65273
2.73409
2.72832
2.7245
2.73893
2.75049
2.76296
2.77057
2.77677
2.78028
2.78248
1
1.00002
1.00005
1.00016
1.00028
1.0009
1.00166
1.00489
1.01033
1.02648
1.07207
1.15841
1.50088
2.27253
2.64376
2.7327
2.72656
2.72224
2.73663
2.74793
2.76058
2.76739
2.77352
2.77783
2.77892
1
1.00002
1.00005
1.00015
1.00027
1.00086
1.0016
1.00472
1.00987
1.02551
1.06866
1.1524
1.47417
2.22617
2.62868
2.72953
2.72297
2.7176
2.73166
2.74336
2.7562
2.76372
2.76854
2.7711
2.77427
1
1.00002
1.00004
1.00014
1.00026
1.00082
1.00151
1.0045
1.00927
1.02423
1.0641
1.14422
1.43853
2.16101
2.60701
2.72504
2.71872
2.71048
2.7252
2.73395
2.74714
2.75421
2.76178
2.76525
2.76453
1
1.00002
1.00004
1.00014
1.00024
1.00078
1.00141
1.00439
1.00851
1.02348
1.05706
1.13413
1.39193
2.07306
2.57719
2.71772
2.71097
2.70201
2.71769
2.72759
2.73741
2.74563
2.74919
2.75127
2.75491
1
1.00002
1.00004
1.00012
1.00022
1.00072
1.0013
1.00403
1.00772
1.0219
1.05021
1.12293
1.34309
1.96962
2.53645
2.70675
2.69848
2.68658
2.70167
2.71395
2.72477
2.72991
2.73732
2.7391
2.73554
1
1.00002
1.00003
1.00011
1.0002
1.00065
1.00118
1.00366
1.00696
1.02003
1.04437
1.11268
1.29846
1.87803
2.48278
2.68978
2.68463
2.67361
2.68792
2.69702
2.70937
2.71276
2.71331
2.71238
2.71215
1
1.00002
1.00003
1.0001
1.00018
1.00058
1.00105
1.00329
1.00622
1.018
1.03982
1.09995
1.26901
1.76676
2.4655
2.6787
2.66265
2.6619
2.67365
2.67775
2.68739
2.69128
2.69168
2.6855
2.66099
1
1.00001
1.00003
1.00008
1.00015
1.00047
1.00089
1.00253
1.00553
1.01378
1.03733
1.08234
1.25106
1.63508
2.39727
2.65291
2.65548
2.65459
2.65604
2.66384
2.66355
2.66143
2.65176
2.63088
2.58331
1
1.00003
1.00005
1.00016
1.0003
1.00094
1.00174
1.00514
1.01075
1.02785
1.07509
1.16666
1.51762
2.30873
2.65584
2.73394
2.72829
2.72457
2.73919
2.75089
2.76371
2.77171
2.77801
2.78253
2.78553
1
1.00003
1.00005
1.00016
1.00029
1.00093
1.00171
1.00505
1.01061
1.02739
1.07413
1.16394
1.51269
2.29787
2.65273
2.73409
2.72832
2.7245
2.73893
2.75049
2.76296
2.77057
2.77677
2.78028
2.78248
1
1.00002
1.00005
1.00016
1.00028
1.0009
1.00166
1.00489
1.01033
1.02648
1.07207
1.15841
1.50088
2.27253
2.64376
2.7327
2.72656
2.72224
2.73663
2.74793
2.76058
2.76739
2.77352
2.77783
2.77892
1
1.00002
1.00005
1.00015
1.00027
1.00086
1.0016
1.00472
1.00987
1.02551
1.06866
1.1524
1.47417
2.22617
2.62868
2.72953
2.72297
2.7176
2.73166
2.74336
2.7562
2.76372
2.76854
2.7711
2.77427
1
1.00002
1.00004
1.00014
1.00026
1.00082
1.00151
1.0045
1.00927
1.02423
1.0641
1.14422
1.43853
2.16101
2.60701
2.72504
2.71872
2.71048
2.7252
2.73395
2.74714
2.75421
2.76178
2.76525
2.76453
1
1.00002
1.00004
1.00014
1.00024
1.00078
1.00141
1.00439
1.00851
1.02348
1.05706
1.13413
1.39193
2.07306
2.57719
2.71772
2.71097
2.70201
2.71769
2.72759
2.73741
2.74563
2.74919
2.75127
2.75491
1
1.00002
1.00004
1.00012
1.00022
1.00072
1.0013
1.00403
1.00772
1.0219
1.05021
1.12293
1.34309
1.96962
2.53645
2.70675
2.69848
2.68658
2.70167
2.71395
2.72477
2.72991
2.73732
2.7391
2.73554
1
1.00002
1.00003
1.00011
1.0002
1.00065
1.00118
1.00366
1.00696
1.02003
1.04437
1.11268
1.29846
1.87803
2.48278
2.68978
2.68463
2.67361
2.68792
2.69702
2.70937
2.71276
2.71331
2.71238
2.71215
1
1.00002
1.00003
1.0001
1.00018
1.00058
1.00105
1.00329
1.00622
1.018
1.03982
1.09995
1.26901
1.76676
2.4655
2.6787
2.66265
2.6619
2.67365
2.67775
2.68739
2.69128
2.69168
2.6855
2.66099
1
1.00001
1.00003
1.00008
1.00015
1.00047
1.00089
1.00253
1.00553
1.01378
1.03733
1.08234
1.25106
1.63508
2.39727
2.65291
2.65548
2.65459
2.65604
2.66384
2.66355
2.66143
2.65176
2.63088
2.58331
1
1.00003
1.00005
1.00016
1.0003
1.00094
1.00174
1.00514
1.01075
1.02785
1.07509
1.16666
1.51762
2.30873
2.65584
2.73394
2.72829
2.72457
2.73919
2.75089
2.76371
2.77171
2.77801
2.78253
2.78553
1
1.00003
1.00005
1.00016
1.00029
1.00093
1.00171
1.00505
1.01061
1.02739
1.07413
1.16394
1.51269
2.29787
2.65273
2.73409
2.72832
2.7245
2.73893
2.75049
2.76296
2.77057
2.77677
2.78028
2.78248
1
1.00002
1.00005
1.00016
1.00028
1.0009
1.00166
1.00489
1.01033
1.02648
1.07207
1.15841
1.50088
2.27253
2.64376
2.7327
2.72656
2.72224
2.73663
2.74793
2.76058
2.76739
2.77352
2.77783
2.77892
1
1.00002
1.00005
1.00015
1.00027
1.00086
1.0016
1.00472
1.00987
1.02551
1.06866
1.1524
1.47417
2.22618
2.62868
2.72953
2.72297
2.7176
2.73166
2.74336
2.7562
2.76372
2.76854
2.7711
2.77427
1
1.00002
1.00004
1.00014
1.00026
1.00082
1.00151
1.0045
1.00927
1.02423
1.0641
1.14422
1.43853
2.16102
2.60701
2.72504
2.71872
2.71048
2.7252
2.73395
2.74714
2.75421
2.76178
2.76525
2.76453
1
1.00002
1.00004
1.00014
1.00024
1.00078
1.00141
1.00439
1.00851
1.02348
1.05706
1.13413
1.39193
2.07307
2.57719
2.71772
2.71097
2.70201
2.71769
2.72759
2.73741
2.74563
2.74919
2.75127
2.75491
1
1.00002
1.00004
1.00012
1.00022
1.00072
1.0013
1.00403
1.00772
1.0219
1.05021
1.12293
1.34309
1.96962
2.53645
2.70675
2.69848
2.68658
2.70167
2.71395
2.72477
2.72991
2.73732
2.7391
2.73554
1
1.00002
1.00003
1.00011
1.0002
1.00065
1.00118
1.00366
1.00696
1.02003
1.04437
1.11268
1.29846
1.87803
2.48278
2.68978
2.68463
2.67361
2.68792
2.69702
2.70937
2.71276
2.71331
2.71238
2.71215
1
1.00002
1.00003
1.0001
1.00018
1.00058
1.00105
1.00329
1.00622
1.018
1.03982
1.09995
1.26901
1.76676
2.4655
2.6787
2.66265
2.6619
2.67365
2.67775
2.68739
2.69129
2.69168
2.6855
2.661
1
1.00001
1.00003
1.00008
1.00015
1.00047
1.00089
1.00253
1.00553
1.01378
1.03733
1.08234
1.25106
1.63509
2.39727
2.65291
2.65548
2.65459
2.65604
2.66384
2.66355
2.66143
2.65176
2.63088
2.58331
1
1.00003
1.00005
1.00016
1.0003
1.00094
1.00174
1.00514
1.01075
1.02785
1.07509
1.16666
1.51762
2.30873
2.65584
2.73394
2.72829
2.72457
2.73919
2.75089
2.76371
2.77171
2.77801
2.78253
2.78553
1
1.00003
1.00005
1.00016
1.00029
1.00093
1.00171
1.00505
1.01061
1.02739
1.07413
1.16394
1.51269
2.29787
2.65273
2.73409
2.72832
2.7245
2.73893
2.75049
2.76296
2.77057
2.77677
2.78028
2.78248
1
1.00002
1.00005
1.00016
1.00028
1.0009
1.00166
1.00489
1.01033
1.02648
1.07207
1.15841
1.50088
2.27253
2.64376
2.7327
2.72656
2.72224
2.73663
2.74793
2.76058
2.76739
2.77352
2.77783
2.77892
1
1.00002
1.00005
1.00015
1.00027
1.00086
1.0016
1.00472
1.00987
1.02551
1.06866
1.1524
1.47417
2.22618
2.62868
2.72953
2.72297
2.7176
2.73166
2.74336
2.7562
2.76372
2.76854
2.7711
2.77427
1
1.00002
1.00004
1.00014
1.00026
1.00082
1.00151
1.0045
1.00927
1.02423
1.0641
1.14422
1.43853
2.16102
2.60701
2.72504
2.71872
2.71048
2.7252
2.73395
2.74714
2.75421
2.76178
2.76525
2.76453
1
1.00002
1.00004
1.00014
1.00024
1.00078
1.00141
1.00439
1.00851
1.02348
1.05706
1.13413
1.39193
2.07307
2.57719
2.71772
2.71097
2.70201
2.71769
2.72759
2.73741
2.74563
2.74919
2.75127
2.75491
1
1.00002
1.00004
1.00012
1.00022
1.00072
1.0013
1.00403
1.00772
1.0219
1.05021
1.12293
1.34309
1.96962
2.53645
2.70675
2.69848
2.68658
2.70167
2.71395
2.72477
2.72991
2.73732
2.7391
2.73554
1
1.00002
1.00003
1.00011
1.0002
1.00065
1.00118
1.00366
1.00696
1.02003
1.04437
1.11268
1.29846
1.87803
2.48278
2.68978
2.68463
2.67361
2.68792
2.69702
2.70937
2.71276
2.71331
2.71238
2.71215
1
1.00002
1.00003
1.0001
1.00018
1.00058
1.00105
1.00329
1.00622
1.018
1.03982
1.09995
1.26901
1.76676
2.4655
2.6787
2.66265
2.6619
2.67365
2.67775
2.68739
2.69129
2.69168
2.6855
2.66099
1
1.00001
1.00003
1.00008
1.00015
1.00047
1.00089
1.00253
1.00553
1.01378
1.03733
1.08234
1.25106
1.63509
2.39727
2.65291
2.65548
2.65459
2.65604
2.66384
2.66355
2.66143
2.65176
2.63088
2.58331
1
1.00003
1.00005
1.00016
1.0003
1.00094
1.00174
1.00514
1.01075
1.02785
1.07509
1.16666
1.51762
2.30873
2.65584
2.73394
2.72829
2.72457
2.73919
2.75089
2.76371
2.77171
2.77801
2.78253
2.78553
1
1.00003
1.00005
1.00016
1.00029
1.00093
1.00171
1.00505
1.01061
1.02739
1.07413
1.16394
1.51269
2.29787
2.65273
2.73409
2.72832
2.7245
2.73893
2.75049
2.76296
2.77057
2.77677
2.78028
2.78248
1
1.00002
1.00005
1.00016
1.00028
1.0009
1.00166
1.00489
1.01033
1.02648
1.07207
1.15841
1.50088
2.27253
2.64376
2.7327
2.72656
2.72224
2.73663
2.74793
2.76058
2.76739
2.77352
2.77783
2.77892
1
1.00002
1.00005
1.00015
1.00027
1.00086
1.0016
1.00472
1.00987
1.02551
1.06866
1.1524
1.47417
2.22617
2.62868
2.72953
2.72297
2.7176
2.73166
2.74336
2.7562
2.76372
2.76854
2.7711
2.77427
1
1.00002
1.00004
1.00014
1.00026
1.00082
1.00151
1.0045
1.00927
1.02423
1.0641
1.14422
1.43853
2.16101
2.60701
2.72504
2.71872
2.71048
2.7252
2.73395
2.74714
2.75421
2.76178
2.76525
2.76453
1
1.00002
1.00004
1.00014
1.00024
1.00078
1.00141
1.00439
1.00851
1.02348
1.05706
1.13413
1.39193
2.07306
2.57719
2.71772
2.71097
2.70201
2.71769
2.72759
2.73741
2.74563
2.74919
2.75127
2.75491
1
1.00002
1.00004
1.00012
1.00022
1.00072
1.0013
1.00403
1.00772
1.0219
1.05021
1.12293
1.34309
1.96962
2.53645
2.70675
2.69848
2.68658
2.70167
2.71395
2.72477
2.72991
2.73732
2.7391
2.73554
1
1.00002
1.00003
1.00011
1.0002
1.00065
1.00118
1.00366
1.00696
1.02003
1.04437
1.11268
1.29846
1.87803
2.48278
2.68978
2.68463
2.67361
2.68792
2.69702
2.70937
2.71276
2.71331
2.71238
2.71215
1
1.00002
1.00003
1.0001
1.00018
1.00058
1.00105
1.00329
1.00622
1.018
1.03982
1.09995
1.26901
1.76676
2.4655
2.6787
2.66265
2.6619
2.67365
2.67775
2.68739
2.69128
2.69168
2.6855
2.66099
1
1.00001
1.00003
1.00008
1.00015
1.00047
1.00089
1.00253
1.00553
1.01378
1.03733
1.08234
1.25106
1.63508
2.39727
2.65291
2.65548
2.65459
2.65604
2.66384
2.66355
2.66143
2.65176
2.63088
2.58331
1
1.00003
1.00005
1.00016
1.0003
1.00094
1.00174
1.00514
1.01075
1.02785
1.07509
1.16666
1.51762
2.30873
2.65584
2.73394
2.72829
2.72457
2.73919
2.75089
2.76371
2.77171
2.77801
2.78253
2.78553
1
1.00003
1.00005
1.00016
1.00029
1.00093
1.00171
1.00505
1.01061
1.02739
1.07413
1.16394
1.51269
2.29787
2.65273
2.73409
2.72832
2.7245
2.73893
2.75049
2.76296
2.77057
2.77677
2.78028
2.78248
1
1.00002
1.00005
1.00016
1.00028
1.0009
1.00166
1.00489
1.01033
1.02648
1.07207
1.15841
1.50088
2.27253
2.64376
2.7327
2.72656
2.72224
2.73663
2.74793
2.76058
2.76739
2.77352
2.77783
2.77892
1
1.00002
1.00005
1.00015
1.00027
1.00086
1.0016
1.00472
1.00987
1.02551
1.06866
1.1524
1.47417
2.22617
2.62868
2.72953
2.72297
2.7176
2.73166
2.74336
2.7562
2.76372
2.76854
2.7711
2.77427
1
1.00002
1.00004
1.00014
1.00026
1.00082
1.00151
1.0045
1.00927
1.02423
1.0641
1.14422
1.43853
2.16101
2.60701
2.72504
2.71872
2.71048
2.7252
2.73395
2.74714
2.75421
2.76178
2.76525
2.76453
1
1.00002
1.00004
1.00014
1.00024
1.00078
1.00141
1.00439
1.00851
1.02348
1.05706
1.13413
1.39193
2.07306
2.57719
2.71772
2.71097
2.70201
2.71769
2.72759
2.73741
2.74563
2.74919
2.75127
2.75491
1
1.00002
1.00004
1.00012
1.00022
1.00072
1.0013
1.00403
1.00772
1.0219
1.05021
1.12293
1.34309
1.96962
2.53645
2.70675
2.69848
2.68658
2.70167
2.71395
2.72477
2.72991
2.73732
2.7391
2.73554
1
1.00002
1.00003
1.00011
1.0002
1.00065
1.00118
1.00366
1.00696
1.02003
1.04437
1.11268
1.29846
1.87803
2.48278
2.68978
2.68463
2.67361
2.68792
2.69702
2.70937
2.71276
2.71331
2.71238
2.71215
1
1.00002
1.00003
1.0001
1.00018
1.00058
1.00105
1.00329
1.00622
1.018
1.03982
1.09995
1.26901
1.76676
2.4655
2.6787
2.66265
2.6619
2.67365
2.67775
2.68739
2.69129
2.69168
2.6855
2.66099
1
1.00001
1.00003
1.00008
1.00015
1.00047
1.00089
1.00253
1.00553
1.01378
1.03733
1.08234
1.25106
1.63508
2.39727
2.65291
2.65548
2.65459
2.65604
2.66384
2.66355
2.66143
2.65176
2.63088
2.58331
1
1.00003
1.00005
1.00016
1.0003
1.00094
1.00174
1.00514
1.01075
1.02785
1.07509
1.16666
1.51762
2.30873
2.65584
2.73394
2.72829
2.72457
2.73919
2.75089
2.76371
2.77171
2.77801
2.78253
2.78553
1
1.00003
1.00005
1.00016
1.00029
1.00093
1.00171
1.00505
1.01061
1.02739
1.07413
1.16394
1.51269
2.29787
2.65273
2.73409
2.72832
2.7245
2.73893
2.75049
2.76296
2.77057
2.77677
2.78028
2.78248
1
1.00002
1.00005
1.00016
1.00028
1.0009
1.00166
1.00489
1.01033
1.02648
1.07207
1.15841
1.50088
2.27253
2.64376
2.7327
2.72656
2.72224
2.73663
2.74793
2.76058
2.76739
2.77352
2.77783
2.77892
1
1.00002
1.00005
1.00015
1.00027
1.00086
1.0016
1.00472
1.00987
1.02551
1.06866
1.1524
1.47416
2.22617
2.62868
2.72953
2.72297
2.7176
2.73166
2.74336
2.7562
2.76372
2.76854
2.7711
2.77427
1
1.00002
1.00004
1.00014
1.00026
1.00082
1.00151
1.0045
1.00927
1.02423
1.0641
1.14422
1.43853
2.16101
2.60701
2.72504
2.71872
2.71048
2.7252
2.73395
2.74714
2.75421
2.76178
2.76525
2.76453
1
1.00002
1.00004
1.00014
1.00024
1.00078
1.00141
1.00439
1.00851
1.02348
1.05706
1.13413
1.39193
2.07305
2.57719
2.71772
2.71097
2.70201
2.71769
2.72759
2.73741
2.74563
2.74919
2.75127
2.75491
1
1.00002
1.00004
1.00012
1.00022
1.00072
1.0013
1.00403
1.00772
1.0219
1.05021
1.12293
1.34309
1.96961
2.53645
2.70675
2.69848
2.68658
2.70167
2.71395
2.72477
2.72991
2.73732
2.7391
2.73554
1
1.00002
1.00003
1.00011
1.0002
1.00065
1.00118
1.00366
1.00696
1.02003
1.04437
1.11268
1.29846
1.87802
2.48278
2.68978
2.68463
2.67361
2.68792
2.69702
2.70937
2.71276
2.71331
2.71238
2.71215
1
1.00002
1.00003
1.0001
1.00018
1.00058
1.00105
1.00329
1.00622
1.018
1.03982
1.09995
1.26901
1.76675
2.46549
2.6787
2.66265
2.6619
2.67365
2.67775
2.68739
2.69128
2.69168
2.6855
2.66099
1
1.00001
1.00003
1.00008
1.00015
1.00047
1.00089
1.00253
1.00553
1.01378
1.03733
1.08234
1.25106
1.63508
2.39726
2.65291
2.65548
2.65459
2.65604
2.66384
2.66355
2.66143
2.65176
2.63088
2.58331
0.999996
1.00002
1.00004
1.00016
1.00029
1.00093
1.00173
1.00513
1.01074
1.02784
1.07508
1.16661
1.51758
2.30859
2.65576
2.73387
2.72822
2.72449
2.73912
2.75081
2.76364
2.77163
2.77792
2.78244
2.78545
0.999995
1.00002
1.00004
1.00015
1.00028
1.00092
1.0017
1.00504
1.0106
1.02737
1.07411
1.16389
1.51265
2.29773
2.65265
2.73402
2.72825
2.72443
2.73886
2.75041
2.76288
2.77049
2.77669
2.7802
2.7824
0.999995
1.00002
1.00004
1.00015
1.00028
1.00089
1.00166
1.00488
1.01032
1.02646
1.07205
1.15837
1.50083
2.27238
2.64369
2.73263
2.72649
2.72216
2.73656
2.74786
2.76051
2.76731
2.77344
2.77775
2.77884
0.999995
1.00002
1.00004
1.00014
1.00026
1.00086
1.00159
1.00471
1.00986
1.02549
1.06864
1.15236
1.47412
2.22602
2.6286
2.72946
2.7229
2.71753
2.73159
2.74328
2.75612
2.76364
2.76846
2.77102
2.77419
0.999995
1.00002
1.00004
1.00013
1.00025
1.00081
1.0015
1.00448
1.00926
1.02421
1.0641
1.14418
1.43853
2.1609
2.60694
2.72497
2.71865
2.71041
2.72513
2.73388
2.74707
2.75414
2.76171
2.76518
2.76445
0.999995
1.00001
1.00003
1.00013
1.00024
1.00077
1.0014
1.00438
1.0085
1.02346
1.05706
1.1341
1.39192
2.07294
2.57712
2.71765
2.7109
2.70195
2.71762
2.72752
2.73734
2.74555
2.74912
2.75119
2.75484
0.999995
1.00001
1.00003
1.00012
1.00022
1.00071
1.00129
1.00402
1.00771
1.02189
1.0502
1.1229
1.34306
1.9695
2.53637
2.70668
2.6984
2.68651
2.7016
2.71389
2.7247
2.72984
2.73725
2.73903
2.73547
0.999995
1.00001
1.00003
1.0001
1.0002
1.00064
1.00117
1.00365
1.00695
1.02001
1.04436
1.11265
1.29844
1.8779
2.48276
2.68972
2.68457
2.67355
2.68786
2.69695
2.7093
2.71269
2.71324
2.71231
2.71208
0.999995
1.00001
1.00002
1.00009
1.00017
1.00057
1.00104
1.00328
1.00621
1.01799
1.03981
1.09992
1.269
1.76662
2.46544
2.67864
2.66258
2.66185
2.67359
2.67769
2.68732
2.69122
2.69162
2.68544
2.66093
0.999994
1.00001
1.00002
1.00007
1.00014
1.00046
1.00089
1.00252
1.00552
1.01377
1.03731
1.08231
1.25104
1.63498
2.39719
2.65285
2.65543
2.65454
2.65599
2.66378
2.66349
2.66137
2.6517
2.63082
2.58326
0.999996
1
1.00002
1.00005
1.00017
1.00033
1.00102
1.00196
1.00561
1.01223
1.03097
1.08497
1.18873
1.57035
2.37308
2.60004
2.64033
2.63647
2.63651
2.64252
2.64246
2.63523
2.61399
2.56242
2.38117
0.999996
1
1.00002
1.00004
1.00015
1.00028
1.0009
1.00167
1.00493
1.01035
1.02668
1.07196
1.15926
1.49425
2.25217
2.56048
2.6369
2.62857
2.61597
2.61446
2.6105
2.59617
2.56324
2.50215
2.31699
0.999995
0.999999
1.00002
1.00003
1.00013
1.00024
1.00078
1.00143
1.00437
1.00867
1.0234
1.05866
1.13522
1.3998
2.0712
2.48734
2.62511
2.61679
2.60442
2.5941
2.58641
2.56829
2.52644
2.46813
2.31553
0.999995
0.999998
1.00001
1.00003
1.00011
1.0002
1.00065
1.00119
1.00371
1.00704
1.02021
1.04494
1.1129
1.3008
1.86424
2.3931
2.59456
2.58695
2.58144
2.56644
2.55046
2.529
2.48816
2.44332
2.32599
0.999995
0.999997
1.00001
1.00002
1.00008
1.00016
1.00052
1.00097
1.00299
1.00575
1.0164
1.03634
1.09201
1.24025
1.70061
2.29762
2.55754
2.56365
2.56237
2.55339
2.53219
2.50714
2.45175
2.41209
2.32674
0.999994
0.999997
1
1.00002
1.00005
1.00017
1.00031
1.00097
1.00186
1.00526
1.01158
1.02882
1.07961
1.17327
1.53408
2.26311
2.48047
2.5262
2.522
2.51999
2.50932
2.48924
2.44139
2.39295
2.32413
0.999994
0.999996
1
1.00002
1.00004
1.00014
1.00025
1.00081
1.00148
1.00445
1.00907
1.02381
1.06186
1.13938
1.41672
2.08685
2.4258
2.51659
2.50494
2.49711
2.47839
2.46044
2.42258
2.37813
2.32046
0.999993
0.999995
0.999998
1.00001
1.00003
1.0001
1.0002
1.00063
1.00116
1.00359
1.00692
1.01962
1.04407
1.11076
1.29187
1.85528
2.29277
2.4846
2.48346
2.47663
2.45959
2.43951
2.40488
2.35985
2.30934
0.999993
0.999994
0.999998
1
1.00003
1.00006
1.00019
1.00036
1.00111
1.00211
1.00611
1.01289
1.03321
1.08702
1.2007
1.55856
2.24206
2.43047
2.44834
2.44332
2.43069
2.41396
2.39163
2.35284
2.30528
0.999992
0.999993
0.999996
1
1.00002
1.00004
1.00014
1.00026
1.00083
1.00157
1.00447
1.00968
1.02422
1.06595
1.14403
1.44285
2.09964
2.37167
2.43021
2.42311
2.4071
2.38211
2.36023
2.33508
2.29576
0.999992
0.999993
0.999994
0.999999
1.00001
1.00004
1.00007
1.00024
1.00046
1.00132
1.00284
1.0071
1.01856
1.04191
1.12272
1.27401
1.7806
2.24262
2.40474
2.40504
2.39552
2.37382
2.34545
2.31734
2.28621
0.999992
0.999992
0.999993
0.999997
1
1.00002
1.00005
1.00018
1.00034
1.00108
1.00199
1.00594
1.01212
1.0318
1.08139
1.1872
1.51953
2.15192
2.34602
2.36977
2.3658
2.3531
2.32675
2.29881
2.266
0.999991
0.999992
0.999993
0.999994
1
1.00001
1.00005
1.00009
1.0003
1.00057
1.00161
1.0035
1.00871
1.02293
1.05157
1.15179
1.34066
1.89988
2.27155
2.35383
2.35079
2.33921
2.31716
2.29014
2.25818
0.999991
0.999991
0.999992
0.999993
0.999998
1
1.00003
1.00006
1.00022
1.00041
1.00128
1.00237
1.00702
1.01445
1.0368
1.09436
1.22148
1.56827
2.11115
2.30863
2.31945
2.31453
2.29707
2.27227
2.24444
0.999991
0.999991
0.999992
0.999993
0.999995
1
1.00001
1.00006
1.00011
1.00036
1.00068
1.00207
1.00402
1.01116
1.02504
1.06084
1.1624
1.4077
1.93928
2.24506
2.29911
2.29773
2.2849
2.26106
2.23312
0.999991
0.999991
0.999991
0.999992
0.999993
0.999999
1.00001
1.00004
1.00008
1.00025
1.00047
1.00144
1.00271
1.00776
1.01656
1.04159
1.1104
1.25472
1.65966
2.09968
2.25697
2.26701
2.26095
2.24722
2.221
0.999991
0.999991
0.999991
0.999992
0.999993
0.999995
1
1.00002
1.00006
1.00013
1.00041
1.00076
1.00229
1.00446
1.01247
1.02687
1.0697
1.16526
1.47795
1.93232
2.19219
2.23993
2.23893
2.22688
2.2062
0.999991
0.999991
0.999991
0.999991
0.999992
0.999994
1
1.00001
1.00004
1.00008
1.00027
1.0005
1.00154
1.00288
1.00832
1.01744
1.04415
1.1134
1.26931
1.6742
2.06134
2.19887
2.21525
2.21033
2.19724
0.999991
0.999991
0.999991
0.999991
0.999992
0.999993
0.999995
1
1.00002
1.00007
1.00013
1.00041
1.00079
1.00231
1.00458
1.0126
1.02705
1.07136
1.16297
1.49445
1.8832
2.12254
2.17167
2.17967
2.17408
0.999991
0.999991
0.999991
0.999991
0.999991
0.999992
0.999994
0.999998
1.00001
1.00003
1.00011
1.00021
1.00064
1.00119
1.00354
1.00697
1.0186
1.04404
1.10152
1.2764
1.70718
2.01837
2.13715
2.15169
2.14854
0.999991
0.999991
0.999991
0.999991
0.999991
0.999991
0.999993
0.999995
1
1.00002
1.00007
1.00013
1.00041
1.00076
1.0023
1.00436
1.01254
1.02545
1.06938
1.15307
1.46672
1.83349
2.07277
2.11958
2.1246
0.999991
0.999991
0.999991
0.999991
0.999991
0.999991
0.999992
0.999994
0.999997
1.00001
1.00003
1.0001
1.00019
1.00059
1.00111
1.00327
1.00642
1.01735
1.03937
1.09395
1.24406
1.64291
1.9532
2.08615
2.09663
0.999991
0.999991
0.999991
0.999991
0.999991
0.999991
0.999991
0.999993
0.999995
1
1.00001
1.00006
1.00012
1.00037
1.00068
1.00208
1.00389
1.01117
1.02278
1.05991
1.13739
1.37993
1.77758
2.0213
2.07791
0.999991
0.999991
0.999991
0.999991
0.999991
0.999991
0.999991
0.999992
0.999993
0.999998
1
1.00003
1.00007
1.00022
1.0004
1.00124
1.00228
1.00666
1.01335
1.03433
1.08467
1.19158
1.50969
1.8642
2.0363
0.999991
0.999991
0.999991
0.999991
0.999991
0.999991
0.999991
0.999991
0.999992
0.999995
0.999999
1.00002
1.00004
1.00013
1.00024
1.00073
1.00136
1.0039
1.00798
1.0202
1.05138
1.11083
1.32375
1.74468
1.95264
0.999991
0.999991
0.999991
0.999991
0.999991
0.999991
0.999991
0.999991
0.999992
0.999993
0.999997
1
1.00002
1.00005
1.00018
1.00033
1.001
1.00191
1.00539
1.01119
1.02836
1.06899
1.16315
1.40446
1.83983
0.999991
0.999991
0.999991
0.999991
0.999991
0.999991
0.999991
0.999991
0.999991
0.999992
0.999994
0.999999
1.00001
1.00004
1.00008
1.00025
1.00047
1.0014
1.00269
1.00754
1.01581
1.03972
1.09615
1.23686
1.55483
0.999991
0.999991
0.999991
0.999991
0.999991
0.999991
0.999991
0.999991
0.999991
0.999991
0.999993
0.999995
1
1.00001
1.00006
1.00011
1.00034
1.00065
1.0019
1.00372
1.01017
1.02142
1.05557
1.12502
1.35599
0.999991
0.999991
0.999991
0.999991
0.999991
0.999991
0.999991
0.999991
0.999991
0.999991
0.999992
0.999993
0.999998
1
1.00003
1.00006
1.00019
1.00036
1.00109
1.00205
1.00583
1.01161
1.03065
1.06683
1.17444
0.999991
0.999991
0.999991
0.999991
0.999991
0.999991
0.999991
0.999991
0.999991
0.999991
0.999991
0.999992
0.999994
1
1.00001
1.00004
1.00008
1.00026
1.00049
1.00143
1.00279
1.00762
1.01631
1.04028
1.09605
0.999991
0.999991
0.999991
0.999991
0.999991
0.999991
0.999991
0.999991
0.999991
0.999991
0.999991
0.999991
0.999993
0.999995
1
1.00001
1.00006
1.00012
1.00035
1.00068
1.00195
1.00381
1.01043
1.02164
1.05737
0.999991
0.999991
0.999991
0.999991
0.999991
0.999991
0.999991
0.999991
0.999991
0.999991
0.999991
0.999991
0.999992
0.999994
0.999996
1.00001
1.00002
1.00008
1.00016
1.0005
1.00094
1.00272
1.00526
1.01427
1.03059
0.999991
0.999991
0.999991
0.999991
0.999991
0.999991
0.999991
0.999991
0.999991
0.999991
0.999991
0.999991
0.999991
0.999993
0.999994
1
1.00001
1.00005
1.0001
1.00033
1.00061
1.00185
1.00349
1.00989
1.02058
0.999991
0.999991
0.999991
0.999991
0.999991
0.999991
0.999991
0.999991
0.999991
0.999991
0.999991
0.999991
0.999991
0.999992
0.999994
0.999997
1.00001
1.00003
1.0001
1.0002
1.00061
1.00117
1.00339
1.00702
1.01828
0.999991
0.999991
0.999991
0.999991
0.999991
0.999991
0.999991
0.999991
0.999991
0.999991
0.999991
0.999991
0.999991
0.999992
0.999993
0.999998
1
1.00003
1.00007
1.00022
1.00043
1.00129
1.00259
1.00691
1.01653
0.999991
0.999991
0.999991
0.999991
0.999991
0.999991
0.999991
0.999991
0.999991
0.999991
0.999991
0.999991
0.999991
0.999992
0.999993
0.999996
1.00001
1.00002
1.00008
1.00016
1.00049
1.00098
1.00272
1.00632
1.01554
0.999991
0.999991
0.999991
0.999991
0.999991
0.999991
0.999991
0.999991
0.999991
0.999991
0.999991
0.999991
0.999991
0.999992
0.999993
0.999997
1
1.00003
1.00006
1.00021
1.0004
1.00125
1.00241
1.0069
1.01537
0.999991
0.999991
0.999991
0.999991
0.999991
0.999991
0.999991
0.999991
0.999991
0.999991
0.999991
0.999991
0.999991
0.999992
0.999993
0.999997
1
1.00003
1.00006
1.00021
1.00039
1.00123
1.00238
1.00678
1.01525
0.999991
0.999991
0.999991
0.999991
0.999991
0.999991
0.999991
0.999991
0.999991
0.999991
0.999991
0.999991
0.999991
0.999992
0.999993
0.999996
1.00001
1.00002
1.00008
1.00015
1.0005
1.00096
1.00276
1.00605
1.01545
0.999991
0.999991
0.999991
0.999991
0.999991
0.999991
0.999991
0.999991
0.999991
0.999991
0.999991
0.999991
0.999991
0.999992
0.999993
0.999996
1.00001
1.00002
1.00008
1.00016
1.00053
1.00097
1.00311
1.00593
1.01707
1
1.00001
1.00003
1.00006
1.00018
1.00033
1.00103
1.00197
1.00562
1.01224
1.03099
1.08498
1.18878
1.57039
2.37318
2.60011
2.64038
2.63652
2.63656
2.64257
2.64252
2.63528
2.61404
2.56246
2.3812
1
1.00001
1.00003
1.00005
1.00016
1.00029
1.00091
1.00168
1.00494
1.01036
1.0267
1.07197
1.1593
1.49429
2.25229
2.56056
2.63696
2.62862
2.61602
2.61451
2.61056
2.59623
2.56329
2.5022
2.31702
1
1.00001
1.00002
1.00004
1.00014
1.00025
1.00079
1.00143
1.00438
1.00868
1.02342
1.05866
1.13525
1.39981
2.0713
2.48742
2.62517
2.61684
2.60446
2.59415
2.58646
2.56834
2.52649
2.46817
2.31556
1
1.00001
1.00002
1.00004
1.00012
1.00021
1.00066
1.0012
1.00372
1.00705
1.02023
1.04495
1.11293
1.30084
1.86435
2.39317
2.59462
2.58701
2.5815
2.56648
2.5505
2.52905
2.48821
2.44337
2.32603
1
1
1.00002
1.00003
1.00009
1.00017
1.00053
1.00098
1.003
1.00576
1.01641
1.03635
1.09204
1.24026
1.70077
2.29762
2.55758
2.56371
2.56243
2.55345
2.53223
2.50718
2.45178
2.41213
2.32678
1
1
1.00001
1.00003
1.00006
1.00017
1.00032
1.00098
1.00187
1.00527
1.01159
1.02884
1.07963
1.17331
1.5341
2.2632
2.4805
2.52624
2.52205
2.52005
2.50938
2.48929
2.44142
2.39298
2.32417
1
1
1.00001
1.00002
1.00005
1.00014
1.00026
1.00082
1.00149
1.00446
1.00908
1.02383
1.06186
1.13942
1.4167
2.08694
2.42586
2.51663
2.50497
2.49715
2.47843
2.46048
2.42262
2.37816
2.32049
1
1
1.00001
1.00002
1.00004
1.00011
1.0002
1.00064
1.00117
1.0036
1.00693
1.01963
1.04409
1.11079
1.29189
1.85537
2.29283
2.48464
2.48351
2.47668
2.45963
2.43955
2.40492
2.35988
2.30937
1
1
1.00001
1.00001
1.00003
1.00006
1.0002
1.00037
1.00112
1.00212
1.00612
1.0129
1.03322
1.08703
1.20074
1.55858
2.24212
2.4305
2.44838
2.44336
2.43073
2.414
2.39167
2.35288
2.30531
1
1
1
1.00001
1.00003