/*--------------------------------*- C++ -*----------------------------------*\
| =========                 |                                                 |
| \\      /  F ield         | OpenFOAM: The Open Source CFD Toolbox           |
|  \\    /   O peration     | Version:  4.1                                   |
|   \\  /    A nd           | Web:      www.OpenFOAM.org                      |
|    \\/     M anipulation  |                                                 |
\*---------------------------------------------------------------------------*/
FoamFile
{
    version     2.0;
    format      ascii;
    class       volScalarField;
    location    "0.3";
    object      Ma;
}
// * * * * * * * * * * * * * * * * * * * * * * * * * * * * * * * * * * * * * //

dimensions      [0 0 0 0 0 0 0];

internalField   nonuniform List<scalar> 
52500
(
3.11786
3.25517
3.24572
3.23283
3.20852
3.17921
3.12649
3.03708
2.92549
2.71568
2.41488
2.12543
1.68528
0.871933
0.186762
0.489907
0.427059
0.421614
0.437922
0.412022
0.352149
0.27985
0.189084
0.154672
0.034484
3.11786
3.25516
3.24572
3.23282
3.20851
3.17919
3.12646
3.03703
2.92532
2.71568
2.41536
2.13018
1.69906
0.905059
0.173441
0.486754
0.430555
0.421141
0.438567
0.413945
0.355439
0.28559
0.197981
0.166831
0.0747001
3.11786
3.25516
3.24572
3.23281
3.20851
3.17919
3.12644
3.03702
2.92518
2.71606
2.41582
2.13928
1.72713
0.978303
0.149265
0.487766
0.441233
0.423578
0.44228
0.420208
0.364444
0.299107
0.217646
0.192159
0.125568
3.11785
3.25515
3.2457
3.23279
3.20848
3.17916
3.12638
3.03702
2.92519
2.7175
2.41522
2.15052
1.76402
1.07764
0.133734
0.486585
0.459192
0.42872
0.44811
0.430555
0.379357
0.320333
0.246308
0.227695
0.180557
3.11785
3.25516
3.2457
3.23278
3.20848
3.17915
3.12635
3.03715
2.92558
2.72036
2.41294
2.16245
1.80597
1.19365
0.195277
0.482003
0.485442
0.436707
0.456742
0.444484
0.399615
0.348222
0.281812
0.271014
0.239495
3.11784
3.25514
3.24571
3.23277
3.20849
3.17915
3.12615
3.03744
2.9252
2.72277
2.40811
2.17114
1.84512
1.31505
0.356519
0.472161
0.516781
0.447617
0.468269
0.462288
0.425443
0.383268
0.324273
0.321917
0.305225
3.11784
3.25514
3.2457
3.23276
3.2085
3.17914
3.12606
3.03773
2.92515
2.72282
2.40658
2.17741
1.88241
1.43425
0.576154
0.442666
0.548985
0.463912
0.48239
0.483806
0.455852
0.425034
0.373692
0.380632
0.379401
3.11784
3.25514
3.24569
3.23274
3.20846
3.1791
3.12607
3.03785
2.9252
2.72254
2.40651
2.17954
1.91466
1.54017
0.826763
0.380554
0.574924
0.48935
0.499056
0.508687
0.490136
0.473262
0.431582
0.449091
0.466707
3.11784
3.25513
3.24571
3.23273
3.20849
3.17913
3.12595
3.03782
2.92493
2.72141
2.40458
2.1758
1.92975
1.61817
1.06829
0.309667
0.586361
0.526709
0.518364
0.536488
0.527688
0.526688
0.499197
0.52646
0.579924
3.11783
3.25512
3.24571
3.23271
3.20847
3.17911
3.12591
3.03767
2.9249
2.72103
2.40416
2.17541
1.93658
1.67948
1.2642
0.417509
0.575762
0.575222
0.53859
0.566323
0.569246
0.583691
0.579958
0.620251
0.7601
3.11784
3.25514
3.24569
3.23277
3.20847
3.17914
3.12635
3.03699
2.92548
2.71571
2.41528
2.12578
1.68538
0.871535
0.186829
0.489821
0.426859
0.421546
0.437891
0.411978
0.352079
0.279736
0.188904
0.15444
0.0333446
3.11785
3.25516
3.24571
3.2328
3.2085
3.17918
3.12642
3.03705
2.92539
2.71579
2.41563
2.13046
1.69922
0.904927
0.173075
0.486451
0.430306
0.421079
0.438551
0.413911
0.355378
0.28549
0.197826
0.166609
0.0741915
3.11783
3.25514
3.2457
3.23276
3.20848
3.17914
3.12625
3.03693
2.92501
2.71554
2.41512
2.13852
1.72614
0.976506
0.150449
0.488597
0.441316
0.423658
0.442285
0.420176
0.364381
0.299003
0.217493
0.19195
0.125266
3.11786
3.25517
3.24572
3.23282
3.20852
3.17921
3.12647
3.03712
2.9253
2.71754
2.41531
2.15051
1.76381
1.07698
0.133534
0.48655
0.459085
0.428742
0.448097
0.430507
0.379289
0.32023
0.246172
0.227515
0.180349
3.11784
3.25514
3.2457
3.23277
3.20849
3.17915
3.12626
3.03708
2.92539
2.71972
2.41212
2.16129
1.80436
1.19108
0.193433
0.483038
0.48541
0.436708
0.456687
0.444406
0.399535
0.348124
0.281696
0.270864
0.239345
3.11786
3.25517
3.24572
3.23282
3.20853
3.17921
3.12638
3.03768
2.92562
2.72362
2.4091
2.1721
1.84619
1.31633
0.358169
0.471627
0.516293
0.447304
0.468136
0.462178
0.425352
0.383175
0.324175
0.321795
0.305109
3.11784
3.25515
3.2457
3.23278
3.2085
3.17916
3.12623
3.03782
2.92538
2.72341
2.40737
2.1782
1.88341
1.43556
0.577834
0.44169
0.548521
0.463504
0.482209
0.483688
0.455757
0.424945
0.373609
0.380536
0.37931
3.11785
3.25517
3.24573
3.23282
3.20854
3.17921
3.12632
3.03796
2.92529
2.72254
2.40637
2.17919
1.9139
1.53922
0.825659
0.380613
0.574989
0.489136
0.498872
0.508572
0.490047
0.473183
0.43151
0.449017
0.46664
3.11785
3.25516
3.24573
3.2328
3.20852
3.1792
3.12623
3.03795
2.9252
2.72197
2.40529
2.17653
1.93058
1.61905
1.06914
0.309734
0.586189
0.52649
0.518189
0.536388
0.527612
0.526615
0.499134
0.526414
0.579879
3.11786
3.25517
3.24574
3.23281
3.20854
3.17923
3.12627
3.03793
2.92534
2.7218
2.40502
2.17613
1.93723
1.68027
1.26522
0.418303
0.575339
0.575002
0.538369
0.566224
0.569179
0.583631
0.579899
0.620227
0.760068
3.11786
3.25517
3.24572
3.23283
3.20853
3.17921
3.1265
3.03712
2.92558
2.71578
2.41514
2.12554
1.68507
0.871127
0.187218
0.489946
0.426931
0.421583
0.437872
0.41196
0.352068
0.27973
0.188902
0.154437
0.0333441
3.11785
3.25516
3.24572
3.23282
3.20852
3.1792
3.12648
3.03707
2.92539
2.71578
2.41557
2.13028
1.69896
0.904722
0.173577
0.486697
0.430314
0.421054
0.43851
0.413884
0.355363
0.285482
0.197823
0.166606
0.0741902
3.11786
3.25517
3.24572
3.23283
3.20853
3.17922
3.1265
3.03711
2.9253
2.71622
2.41603
2.13934
1.72698
0.977942
0.149315
0.487774
0.441037
0.423477
0.442214
0.420138
0.364362
0.298994
0.21749
0.191947
0.125264
3.11785
3.25516
3.24571
3.2328
3.2085
3.17918
3.12643
3.0371
2.9253
2.71761
2.41539
2.15057
1.76393
1.07742
0.13351
0.486467
0.459006
0.428586
0.448033
0.430477
0.379272
0.320223
0.246169
0.227512
0.180347
3.11786
3.25518
3.24573
3.23283
3.20854
3.17923
3.12651
3.03728
2.92572
2.72047
2.41303
2.16226
1.80551
1.19292
0.194588
0.4821
0.485366
0.436607
0.456665
0.444402
0.399529
0.348121
0.281696
0.270862
0.239343
3.11784
3.25515
3.24572
3.2328
3.20852
3.17919
3.12622
3.03753
2.9253
2.72281
2.40815
2.17102
1.84485
1.31459
0.355907
0.4724
0.516634
0.447544
0.468194
0.462206
0.425362
0.38318
0.324177
0.321794
0.305108
3.11786
3.25518
3.24573
3.23283
3.20855
3.17923
3.12636
3.03796
2.92556
2.7236
2.40753
2.17831
1.88337
1.43523
0.577062
0.442118
0.548643
0.463709
0.482295
0.483725
0.455776
0.424954
0.373614
0.380536
0.37931
3.11784
3.25515
3.2457
3.23278
3.2085
3.17915
3.12622
3.03786
2.92521
2.72254
2.40644
2.17934
1.91417
1.53946
0.825674
0.380843
0.574934
0.489193
0.49893
0.508601
0.490068
0.473193
0.431516
0.449018
0.46664
3.11786
3.25517
3.24575
3.23282
3.20856
3.17924
3.12629
3.03806
2.92535
2.72221
2.4056
2.1767
1.93064
1.61897
1.06896
0.309893
0.586143
0.526458
0.518218
0.536409
0.527629
0.526626
0.499139
0.526416
0.57988
3.11784
3.25515
3.24572
3.23276
3.20849
3.17916
3.12616
3.03784
2.92527
2.72185
2.4052
2.17635
1.93759
1.6806
1.26542
0.418468
0.57528
0.574945
0.538378
0.566247
0.569196
0.583642
0.579904
0.62023
0.76007
3.11786
3.25517
3.24573
3.23284
3.20854
3.17923
3.12653
3.03717
2.92565
2.71589
2.41529
2.12561
1.68503
0.871035
0.187226
0.489922
0.426906
0.421577
0.437876
0.411965
0.352075
0.279734
0.188906
0.154438
0.0333432
3.11786
3.25517
3.24573
3.23284
3.20854
3.17923
3.12653
3.03715
2.92549
2.71591
2.41568
2.13032
1.69895
0.90469
0.173571
0.486668
0.430289
0.421046
0.438514
0.413889
0.35537
0.285487
0.197827
0.166607
0.0741905
3.11786
3.25517
3.24573
3.23284
3.20854
3.17923
3.12652
3.03714
2.92533
2.71625
2.41606
2.13937
1.72701
0.977933
0.149384
0.487825
0.441047
0.423478
0.442217
0.42014
0.364368
0.298998
0.217493
0.191948
0.125265
3.11786
3.25517
3.24573
3.23284
3.20853
3.17923
3.12652
3.03716
2.92535
2.71763
2.41545
2.15053
1.76375
1.07698
0.133505
0.486675
0.459077
0.4286
0.448032
0.430472
0.379274
0.320225
0.246172
0.227514
0.180348
3.11786
3.25517
3.24573
3.23284
3.20854
3.17923
3.12652
3.03726
2.92569
2.72039
2.41304
2.16213
1.80526
1.1925
0.194464
0.482514
0.485332
0.436566
0.456641
0.444385
0.399526
0.348121
0.281698
0.270863
0.239345
3.11786
3.25517
3.24573
3.23284
3.20854
3.17923
3.12643
3.03768
2.92563
2.72361
2.40912
2.17202
1.84607
1.31627
0.357989
0.471647
0.51641
0.447293
0.468129
0.462178
0.425353
0.383177
0.324178
0.321796
0.30511
3.11786
3.25517
3.24573
3.23284
3.20855
3.17923
3.12638
3.03795
2.92553
2.72355
2.40745
2.17815
1.88322
1.43526
0.577441
0.441834
0.548682
0.463573
0.482238
0.483702
0.455766
0.424951
0.373614
0.380538
0.379312
3.11786
3.25517
3.24574
3.23283
3.20856
3.17924
3.12637
3.03801
2.92537
2.72266
2.40644
2.17923
1.91391
1.53917
0.825406
0.380695
0.575053
0.489188
0.498909
0.50859
0.49006
0.473191
0.431516
0.44902
0.466643
3.11786
3.25517
3.24575
3.23282
3.20856
3.17924
3.12631
3.03807
2.92537
2.72223
2.40554
2.17664
1.9306
1.61898
1.06897
0.30984
0.586194
0.526487
0.518215
0.536402
0.527623
0.526623
0.49914
0.526418
0.579882
3.11787
3.25517
3.24575
3.23282
3.20855
3.17924
3.12631
3.03798
2.92543
2.72197
2.4052
2.17623
1.93729
1.68026
1.26512
0.418249
0.57535
0.57497
0.538377
0.566233
0.569187
0.583638
0.579904
0.620231
0.760072
3.11786
3.25518
3.24574
3.23284
3.20855
3.17924
3.12653
3.0372
2.92569
2.71594
2.41533
2.12567
1.68511
0.871128
0.187172
0.489927
0.426924
0.421569
0.437867
0.411952
0.352056
0.279716
0.188878
0.15442
0.0333349
3.11786
3.25518
3.24573
3.23284
3.20855
3.17924
3.12653
3.03718
2.92553
2.71596
2.41572
2.13038
1.69901
0.904736
0.173542
0.486675
0.430316
0.421042
0.438501
0.41387
0.355345
0.28546
0.197788
0.166601
0.0741804
3.11786
3.25518
3.24573
3.23284
3.20854
3.17924
3.12654
3.03716
2.92536
2.71629
2.41609
2.1394
1.72704
0.977979
0.149325
0.487801
0.441074
0.423483
0.44221
0.420128
0.364353
0.298985
0.217481
0.191967
0.125269
3.11786
3.25518
3.24573
3.23284
3.20854
3.17924
3.12654
3.03718
2.92538
2.71766
2.41549
2.15055
1.76376
1.07703
0.133482
0.48666
0.459097
0.42861
0.448027
0.430465
0.379269
0.320225
0.246173
0.227531
0.180359
3.11786
3.25518
3.24573
3.23284
3.20854
3.17924
3.12653
3.03729
2.92573
2.72045
2.41307
2.16217
1.8053
1.19257
0.194509
0.482495
0.485339
0.436571
0.456632
0.444376
0.399523
0.348121
0.281696
0.270868
0.239348
3.11786
3.25518
3.24573
3.23284
3.20855
3.17924
3.12643
3.0377
2.92566
2.72364
2.40913
2.17204
1.8461
1.31632
0.35807
0.471629
0.516423
0.447288
0.468114
0.462166
0.425348
0.383174
0.32417
0.321788
0.305107
3.11786
3.25518
3.24574
3.23284
3.20856
3.17924
3.12638
3.03797
2.92555
2.72358
2.40744
2.17814
1.88324
1.43533
0.577535
0.441814
0.548689
0.463579
0.482226
0.48369
0.455757
0.424947
0.373605
0.380523
0.379307
3.11786
3.25518
3.24574
3.23284
3.20856
3.17924
3.12637
3.03802
2.92537
2.72264
2.40642
2.1792
1.91391
1.53922
0.825563
0.380657
0.575063
0.489207
0.498905
0.508584
0.490052
0.473188
0.431511
0.449006
0.466637
3.11787
3.25518
3.24575
3.23282
3.20856
3.17925
3.1263
3.03807
2.92536
2.7222
2.40549
2.17663
1.93064
1.61906
1.06908
0.309831
0.586217
0.526528
0.518223
0.536405
0.52762
0.526623
0.49914
0.526402
0.57987
3.11787
3.25517
3.24575
3.23282
3.20855
3.17925
3.1263
3.03798
2.92542
2.72196
2.40521
2.17629
1.93739
1.68036
1.26518
0.418282
0.575379
0.575021
0.538399
0.566243
0.56919
0.583639
0.579909
0.620218
0.760058
3.11786
3.25517
3.24573
3.23283
3.20854
3.17923
3.12652
3.03717
2.92565
2.71589
2.41529
2.12561
1.68503
0.871032
0.18723
0.489923
0.426905
0.421575
0.437873
0.411963
0.352073
0.279733
0.188905
0.154438
0.033343
3.11786
3.25517
3.24573
3.23283
3.20854
3.17923
3.12653
3.03715
2.92549
2.71591
2.41568
2.13032
1.69895
0.904687
0.173572
0.486668
0.430288
0.421043
0.438511
0.413887
0.355368
0.285486
0.197826
0.166607
0.0741901
3.11786
3.25517
3.24573
3.23284
3.20853
3.17923
3.12652
3.03713
2.92533
2.71625
2.41605
2.13937
1.72701
0.97793
0.149377
0.48782
0.441044
0.423475
0.442213
0.420137
0.364365
0.298996
0.217492
0.191947
0.125264
3.11786
3.25517
3.24573
3.23284
3.20853
3.17923
3.12652
3.03716
2.92535
2.71763
2.41544
2.15051
1.76373
1.07697
0.133497
0.486673
0.459074
0.428594
0.448026
0.430467
0.37927
0.320222
0.24617
0.227512
0.180347
3.11786
3.25517
3.24573
3.23284
3.20853
3.17923
3.12652
3.03726
2.92569
2.72039
2.41303
2.16212
1.80525
1.1925
0.194477
0.482499
0.485323
0.436558
0.456633
0.444378
0.399521
0.348118
0.281695
0.270861
0.239343
3.11786
3.25517
3.24573
3.23283
3.20854
3.17923
3.12643
3.03768
2.92562
2.7236
2.40909
2.17199
1.84604
1.31627
0.358024
0.471625
0.516403
0.447279
0.468119
0.46217
0.425347
0.383173
0.324175
0.321793
0.305108
3.11786
3.25517
3.24573
3.23283
3.20855
3.17923
3.12637
3.03794
2.92552
2.72353
2.4074
2.1781
1.88319
1.43527
0.577497
0.441808
0.548672
0.463564
0.48223
0.483696
0.45576
0.424947
0.373611
0.380536
0.379309
3.11786
3.25517
3.24573
3.23283
3.20856
3.17923
3.12636
3.038
2.92535
2.72262
2.40639
2.17918
1.91389
1.53918
0.825497
0.380673
0.575053
0.48919
0.498905
0.508587
0.490057
0.473188
0.431514
0.449018
0.466639
3.11786
3.25517
3.24574
3.23282
3.20855
3.17923
3.12629
3.03804
2.92533
2.72215
2.40545
2.17659
1.93057
1.619
1.06903
0.309845
0.586208
0.526509
0.51822
0.536404
0.527623
0.526622
0.499138
0.526416
0.579879
3.11786
3.25517
3.24574
3.23282
3.20855
3.17924
3.1263
3.03795
2.92539
2.72191
2.40516
2.17624
1.93732
1.6803
1.26515
0.418258
0.575381
0.575004
0.538392
0.56624
0.569189
0.583638
0.579903
0.62023
0.760069
3.11786
3.25517
3.24573
3.23284
3.20854
3.17923
3.12653
3.03717
2.92565
2.71589
2.41529
2.12561
1.68503
0.871035
0.187226
0.489922
0.426905
0.421576
0.437876
0.411965
0.352075
0.279734
0.188906
0.154438
0.0333432
3.11786
3.25517
3.24573
3.23284
3.20854
3.17923
3.12653
3.03715
2.92549
2.71591
2.41568
2.13032
1.69895
0.90469
0.173571
0.486668
0.430289
0.421046
0.438514
0.413889
0.35537
0.285487
0.197827
0.166607
0.0741905
3.11786
3.25517
3.24573
3.23284
3.20854
3.17923
3.12652
3.03714
2.92533
2.71625
2.41606
2.13937
1.72701
0.977933
0.149384
0.487825
0.441047
0.423478
0.442217
0.42014
0.364368
0.298998
0.217494
0.191948
0.125265
3.11786
3.25517
3.24573
3.23284
3.20853
3.17923
3.12652
3.03716
2.92535
2.71763
2.41545
2.15053
1.76375
1.07698
0.133505
0.486675
0.459077
0.4286
0.448032
0.430472
0.379274
0.320225
0.246172
0.227514
0.180349
3.11786
3.25517
3.24573
3.23284
3.20854
3.17923
3.12653
3.03726
2.92569
2.72039
2.41304
2.16213
1.80526
1.1925
0.194464
0.482514
0.485332
0.436566
0.456641
0.444385
0.399526
0.348121
0.281698
0.270863
0.239345
3.11786
3.25517
3.24573
3.23284
3.20854
3.17923
3.12643
3.03768
2.92563
2.72361
2.40912
2.17202
1.84607
1.31627
0.357989
0.471647
0.51641
0.447293
0.468129
0.462178
0.425353
0.383177
0.324178
0.321796
0.30511
3.11786
3.25517
3.24573
3.23284
3.20855
3.17923
3.12638
3.03795
2.92553
2.72355
2.40745
2.17815
1.88322
1.43526
0.577441
0.441834
0.548682
0.463573
0.482238
0.483702
0.455766
0.424951
0.373614
0.380538
0.379312
3.11786
3.25517
3.24574
3.23283
3.20856
3.17924
3.12637
3.03801
2.92537
2.72266
2.40644
2.17923
1.91391
1.53917
0.825405
0.380695
0.575053
0.489188
0.498909
0.50859
0.49006
0.473191
0.431516
0.44902
0.466643
3.11786
3.25517
3.24575
3.23282
3.20856
3.17924
3.12631
3.03807
2.92537
2.72223
2.40554
2.17664
1.9306
1.61898
1.06897
0.30984
0.586194
0.526487
0.518215
0.536402
0.527623
0.526623
0.49914
0.526418
0.579882
3.11787
3.25517
3.24575
3.23282
3.20855
3.17924
3.12631
3.03798
2.92543
2.72197
2.4052
2.17623
1.93729
1.68026
1.26512
0.418249
0.57535
0.57497
0.538377
0.566233
0.569187
0.583638
0.579904
0.620231
0.760072
3.11786
3.25517
3.24572
3.23283
3.20853
3.17921
3.1265
3.03712
2.92558
2.71578
2.41514
2.12554
1.68507
0.871127
0.187218
0.489946
0.426931
0.421583
0.437872
0.41196
0.352068
0.27973
0.188902
0.154437
0.0333441
3.11785
3.25516
3.24572
3.23282
3.20852
3.1792
3.12648
3.03707
2.92539
2.71578
2.41557
2.13028
1.69896
0.904722
0.173577
0.486697
0.430314
0.421054
0.43851
0.413884
0.355363
0.285482
0.197823
0.166606
0.0741902
3.11786
3.25517
3.24572
3.23283
3.20853
3.17922
3.1265
3.03711
2.9253
2.71622
2.41603
2.13934
1.72698
0.977942
0.149315
0.487774
0.441037
0.423477
0.442214
0.420138
0.364362
0.298994
0.21749
0.191947
0.125264
3.11785
3.25516
3.24571
3.2328
3.2085
3.17918
3.12643
3.0371
2.9253
2.71761
2.41539
2.15057
1.76393
1.07742
0.13351
0.486467
0.459006
0.428586
0.448033
0.430477
0.379272
0.320223
0.246169
0.227512
0.180347
3.11786
3.25518
3.24573
3.23283
3.20854
3.17923
3.12651
3.03728
2.92572
2.72047
2.41303
2.16226
1.80551
1.19292
0.194588
0.4821
0.485366
0.436607
0.456665
0.444402
0.399529
0.348121
0.281696
0.270862
0.239343
3.11784
3.25515
3.24572
3.2328
3.20852
3.17919
3.12622
3.03753
2.9253
2.72281
2.40815
2.17102
1.84485
1.31459
0.355907
0.4724
0.516634
0.447544
0.468194
0.462206
0.425362
0.38318
0.324177
0.321794
0.305108
3.11786
3.25518
3.24573
3.23283
3.20855
3.17923
3.12636
3.03796
2.92556
2.7236
2.40753
2.17831
1.88337
1.43523
0.577062
0.442118
0.548643
0.463709
0.482295
0.483725
0.455776
0.424954
0.373614
0.380536
0.37931
3.11784
3.25515
3.2457
3.23278
3.2085
3.17915
3.12622
3.03786
2.92521
2.72254
2.40644
2.17934
1.91417
1.53946
0.825674
0.380843
0.574934
0.489193
0.49893
0.508601
0.490068
0.473193
0.431516
0.449018
0.46664
3.11786
3.25517
3.24575
3.23282
3.20856
3.17924
3.12629
3.03806
2.92535
2.72221
2.4056
2.1767
1.93064
1.61897
1.06896
0.309893
0.586143
0.526458
0.518218
0.536409
0.527629
0.526626
0.499139
0.526416
0.57988
3.11784
3.25515
3.24572
3.23276
3.20849
3.17916
3.12616
3.03784
2.92527
2.72185
2.4052
2.17635
1.93759
1.6806
1.26542
0.418468
0.57528
0.574945
0.538378
0.566247
0.569196
0.583642
0.579904
0.62023
0.76007
3.11784
3.25514
3.24569
3.23277
3.20847
3.17914
3.12635
3.03699
2.92548
2.71571
2.41528
2.12578
1.68538
0.871535
0.186829
0.489821
0.426859
0.421546
0.437891
0.411978
0.352079
0.279736
0.188904
0.15444
0.0333446
3.11785
3.25516
3.24571
3.2328
3.2085
3.17918
3.12642
3.03705
2.92539
2.71579
2.41563
2.13046
1.69922
0.904927
0.173075
0.486451
0.430306
0.421079
0.438551
0.413911
0.355378
0.28549
0.197826
0.166609
0.0741915
3.11783
3.25514
3.2457
3.23276
3.20848
3.17914
3.12625
3.03693
2.92501
2.71554
2.41512
2.13852
1.72614
0.976506
0.150449
0.488597
0.441316
0.423658
0.442285
0.420176
0.364381
0.299003
0.217493
0.19195
0.125266
3.11786
3.25517
3.24572
3.23282
3.20852
3.17921
3.12647
3.03712
2.9253
2.71754
2.41531
2.15051
1.76381
1.07698
0.133534
0.48655
0.459085
0.428743
0.448097
0.430507
0.379289
0.320231
0.246172
0.227515
0.180349
3.11784
3.25514
3.2457
3.23277
3.20849
3.17915
3.12626
3.03708
2.92539
2.71972
2.41212
2.16129
1.80436
1.19108
0.193433
0.483038
0.48541
0.436708
0.456687
0.444407
0.399535
0.348124
0.281696
0.270864
0.239345
3.11786
3.25517
3.24572
3.23282
3.20853
3.17921
3.12638
3.03768
2.92562
2.72362
2.4091
2.1721
1.84619
1.31632
0.35817
0.471627
0.516294
0.447304
0.468136
0.462178
0.425352
0.383175
0.324175
0.321795
0.305109
3.11784
3.25515
3.2457
3.23278
3.2085
3.17916
3.12623
3.03782
2.92538
2.72341
2.40737
2.1782
1.88341
1.43556
0.577834
0.441691
0.548521
0.463504
0.482209
0.483688
0.455757
0.424945
0.373609
0.380536
0.37931
3.11785
3.25517
3.24573
3.23282
3.20854
3.17921
3.12632
3.03796
2.92529
2.72254
2.40637
2.17919
1.9139
1.53922
0.825659
0.380613
0.574989
0.489137
0.498872
0.508572
0.490047
0.473183
0.43151
0.449017
0.46664
3.11785
3.25516
3.24573
3.2328
3.20852
3.1792
3.12623
3.03795
2.9252
2.72197
2.40529
2.17653
1.93058
1.61905
1.06914
0.309734
0.58619
0.52649
0.518189
0.536388
0.527612
0.526616
0.499134
0.526414
0.579879
3.11786
3.25517
3.24574
3.23281
3.20854
3.17923
3.12627
3.03793
2.92534
2.7218
2.40502
2.17613
1.93723
1.68027
1.26522
0.418303
0.575339
0.575002
0.538369
0.566224
0.569179
0.583631
0.579899
0.620227
0.760068
3.11786
3.25516
3.24572
3.23282
3.20851
3.17919
3.12646
3.03705
2.92548
2.71566
2.41499
2.12551
1.68526
0.871776
0.186889
0.490023
0.42713
0.421646
0.437941
0.412042
0.352174
0.279884
0.189123
0.154699
0.0345127
3.11785
3.25516
3.24571
3.2328
3.2085
3.17917
3.12641
3.03703
2.92536
2.71574
2.41541
2.13036
1.69939
0.905553
0.173007
0.486542
0.430497
0.421094
0.438563
0.413945
0.355437
0.285586
0.197959
0.166826
0.0746999
3.11786
3.25517
3.24572
3.23281
3.20851
3.17919
3.12644
3.03703
2.9252
2.7161
2.41588
2.13948
1.72746
0.978715
0.148721
0.487692
0.4413
0.423574
0.442291
0.420209
0.36444
0.299099
0.217621
0.192144
0.125571
3.11784
3.25515
3.24571
3.23278
3.20851
3.17918
3.12626
3.03696
2.92498
2.7167
2.41439
2.14954
1.76274
1.07546
0.13383
0.487645
0.459614
0.42882
0.448141
0.430554
0.379354
0.320328
0.246293
0.227682
0.180555
3.11785
3.25516
3.24571
3.23279
3.20849
3.17916
3.12639
3.03717
2.92562
2.7205
2.41291
2.16235
1.80578
1.19327
0.195571
0.48261
0.485474
0.436687
0.456751
0.444479
0.399613
0.348219
0.281804
0.271003
0.239492
3.11784
3.25515
3.24569
3.23275
3.20846
3.17911
3.12616
3.03754
2.92547
2.72352
2.40897
2.17237
1.84698
1.31775
0.359921
0.471066
0.516516
0.447292
0.468232
0.462283
0.425443
0.383268
0.324271
0.321911
0.305221
3.11784
3.25515
3.24572
3.23279
3.20853
3.17918
3.12615
3.03778
2.92519
2.72287
2.40664
2.17743
1.8824
1.4344
0.57673
0.44223
0.549149
0.463798
0.4824
0.483821
0.455859
0.425038
0.373695
0.38063
0.379399
3.11783
3.25513
3.24569
3.23273
3.20848
3.17911
3.12598
3.0377
2.92488
2.72182
2.40558
2.17864
1.91335
1.53853
0.824706
0.381072
0.575631
0.489397
0.499116
0.508713
0.490152
0.473271
0.431589
0.449093
0.466709
3.11786
3.25516
3.24573
3.23278
3.20852
3.17918
3.12614
3.03802
2.92532
2.7222
2.4057
2.17702
1.9312
1.61962
1.06952
0.309834
0.586323
0.526649
0.518396
0.536506
0.527703
0.526699
0.499206
0.526466
0.579928
3.11783
3.25512
3.2457
3.23269
3.20846
3.1791
3.12587
3.03769
2.92498
2.72127
2.40441
2.17563
1.93699
1.67988
1.26452
0.417844
0.575655
0.575141
0.538574
0.566318
0.569252
0.5837
0.579967
0.620258
0.760105
3.11784
3.25513
3.24568
3.23274
3.20843
3.1791
3.12603
3.03761
2.92514
2.72136
2.40549
2.1775
1.94088
1.72708
1.41601
0.738209
0.519016
0.627037
0.562325
0.596949
0.613709
0.639664
0.667424
0.71648
0.952709
3.11782
3.25511
3.24567
3.23273
3.20843
3.17908
3.126
3.03736
2.92486
2.72079
2.40478
2.17756
1.94268
1.74938
1.51652
1.06166
0.426843
0.650761
0.595046
0.62363
0.658203
0.68818
0.749964
0.799032
1.02175
3.11782
3.25513
3.24566
3.23274
3.20843
3.17907
3.12614
3.03736
2.92504
2.72154
2.40554
2.1786
1.94595
1.75406
1.58536
1.28077
0.528092
0.635111
0.637462
0.642817
0.698268
0.727524
0.811637
0.861524
1.02398
3.11782
3.25512
3.24566
3.23271
3.20841
3.17904
3.12608
3.03737
2.92504
2.72166
2.40533
2.17845
1.94633
1.75691
1.63052
1.43179
0.895927
0.573572
0.678202
0.660793
0.730382
0.75622
0.850754
0.905639
1.02155
3.11781
3.25511
3.24566
3.23272
3.20844
3.17906
3.12603
3.03731
2.92481
2.72106
2.40421
2.17707
1.94414
1.75699
1.65385
1.52149
1.22293
0.567156
0.683814
0.686764
0.754257
0.776482
0.866187
0.929128
1.01904
3.11782
3.25512
3.24566
3.23271
3.20843
3.17906
3.126
3.03733
2.92484
2.72109
2.40421
2.1771
1.94429
1.75801
1.66133
1.57805
1.40741
0.842174
0.653943
0.713911
0.770606
0.79353
0.870618
0.942104
1.02374
3.11782
3.25512
3.24566
3.2327
3.20843
3.17905
3.12598
3.03737
2.92491
2.7212
2.40432
2.17719
1.94458
1.75782
1.66391
1.60785
1.51539
1.23174
0.673906
0.725337
0.782363
0.811194
0.875273
0.950758
1.02799
3.11781
3.25511
3.24565
3.23269
3.20842
3.17904
3.12595
3.03734
2.92487
2.72117
2.40432
2.1772
1.94477
1.75751
1.66485
1.61676
1.57278
1.44308
0.953608
0.710922
0.788466
0.83025
0.890057
0.960341
1.03033
3.11781
3.25511
3.24566
3.23271
3.20843
3.17905
3.12598
3.03732
2.92483
2.72111
2.40432
2.1772
1.94464
1.75732
1.66503
1.62089
1.60292
1.54104
1.33153
0.808878
0.786628
0.84943
0.909304
0.971316
1.03619
3.11781
3.2551
3.24565
3.23268
3.20841
3.17902
3.12594
3.03727
2.92479
2.72106
2.40424
2.17713
1.94467
1.75735
1.66513
1.62129
1.60936
1.58651
1.50727
1.17997
0.808988
0.86104
0.928238
0.985827
1.04667
3.11782
3.25512
3.24565
3.2327
3.2084
3.17902
3.12604
3.03734
2.925
2.72162
2.40514
2.17825
1.94609
1.759
1.6669
1.62314
1.61155
1.60541
1.57148
1.46059
1.1076
0.880667
0.937581
0.998357
1.05972
3.1178
3.2551
3.24565
3.2327
3.20842
3.17904
3.12596
3.03723
2.92471
2.72091
2.4041
2.17705
1.9445
1.75727
1.66504
1.62125
1.60966
1.60622
1.58848
1.54045
1.41266
1.14631
0.972113
0.996343
1.06476
3.11781
3.2551
3.24566
3.2327
3.20842
3.17904
3.12597
3.03725
2.92473
2.72094
2.40412
2.17703
1.94446
1.75723
1.665
1.62122
1.60965
1.60636
1.5907
1.55679
1.48902
1.40138
1.25182
1.09263
1.05964
3.11782
3.25512
3.24565
3.2327
3.2084
3.17903
3.12605
3.03735
2.925
2.7216
2.40502
2.17808
1.94592
1.75884
1.6668
1.62309
1.61154
1.60822
1.59258
1.56005
1.49995
1.4526
1.42136
1.36538
1.26503
3.11781
3.25511
3.24565
3.2327
3.20842
3.17903
3.12597
3.0373
2.9248
2.72103
2.40409
2.17694
1.94446
1.75721
1.66506
1.62134
1.60982
1.60659
1.59116
1.55917
1.50012
1.45671
1.4427
1.4452
1.44883
3.11781
3.25511
3.24566
3.23271
3.20843
3.17905
3.12598
3.0373
2.92478
2.72098
2.4041
2.17704
1.94455
1.75733
1.66514
1.62139
1.60984
1.60659
1.59116
1.55916
1.50017
1.45701
1.44423
1.45384
1.48251
3.11781
3.25511
3.24566
3.2327
3.20843
3.17905
3.12597
3.0373
2.92479
2.72101
2.4042
2.17715
1.94464
1.75738
1.66516
1.62138
1.60982
1.60656
1.59113
1.55913
1.50014
1.457
1.44432
1.45455
1.48569
3.1178
3.2551
3.24565
3.23268
3.2084
3.17902
3.12592
3.03725
2.92475
2.721
2.40415
2.17706
1.94462
1.75732
1.66511
1.62137
1.60982
1.60659
1.59114
1.55916
1.50018
1.45703
1.44436
1.45461
1.48598
3.11782
3.25512
3.24565
3.2327
3.2084
3.17903
3.12605
3.03737
2.92504
2.72168
2.40519
2.17821
1.94598
1.75883
1.66674
1.62302
1.61146
1.60815
1.59252
1.56017
1.50086
1.45754
1.44469
1.45476
1.48608
3.1178
3.25509
3.24564
3.23267
3.20839
3.17899
3.12589
3.0372
2.9247
2.72097
2.40417
2.1771
1.94468
1.75736
1.66515
1.6214
1.60984
1.60661
1.59116
1.55916
1.50018
1.45703
1.44436
1.45462
1.48601
3.11782
3.25512
3.24567
3.23272
3.20844
3.17907
3.126
3.03734
2.92483
2.72103
2.40418
2.1771
1.94456
1.75732
1.66512
1.62136
1.60982
1.60655
1.59112
1.55912
1.50012
1.457
1.44433
1.45461
1.48601
3.1178
3.25509
3.24564
3.23266
3.20838
3.17899
3.12587
3.03721
2.9247
2.72095
2.40412
2.17716
1.94489
1.75764
1.66544
1.62168
1.61011
1.60686
1.59138
1.55934
1.50031
1.45712
1.44438
1.45465
1.48603
3.11782
3.25512
3.24567
3.23272
3.20844
3.17907
3.126
3.03734
2.92484
2.72103
2.40418
2.17711
1.94458
1.75734
1.66515
1.62138
1.60983
1.60656
1.59113
1.55912
1.50012
1.457
1.44432
1.45461
1.48601
3.1178
3.25509
3.24563
3.23266
3.20838
3.17898
3.12587
3.03717
2.92466
2.72091
2.40413
2.1771
1.9447
1.75741
1.6652
1.62145
1.60989
1.60665
1.59119
1.55919
1.50019
1.45704
1.44435
1.45462
1.48601
3.11782
3.25512
3.24565
3.2327
3.2084
3.17903
3.12606
3.03738
2.92506
2.72171
2.40525
2.17828
1.94603
1.75888
1.66678
1.62304
1.61148
1.60816
1.59252
1.56017
1.50085
1.45754
1.44469
1.45476
1.48609
3.1178
3.25509
3.24563
3.23266
3.20838
3.17899
3.12588
3.03717
2.92466
2.72093
2.40415
2.17711
1.94471
1.75741
1.66519
1.62143
1.60986
1.60661
1.59115
1.55915
1.50017
1.45702
1.44434
1.45462
1.48601
3.11782
3.25512
3.24567
3.23272
3.20844
3.17907
3.126
3.03735
2.92485
2.72107
2.40423
2.17716
1.94463
1.75736
1.66515
1.62137
1.60983
1.60656
1.59113
1.55913
1.50013
1.457
1.44433
1.45461
1.486
3.1178
3.2551
3.24564
3.23267
3.20839
3.179
3.12589
3.03724
2.92475
2.72101
2.40418
2.17719
1.94487
1.7576
1.66538
1.62162
1.61005
1.60681
1.59133
1.5593
1.50028
1.4571
1.44438
1.45464
1.48602
3.11782
3.25512
3.24567
3.23272
3.20844
3.17907
3.12602
3.03735
2.92486
2.72109
2.40423
2.17711
1.94455
1.75729
1.6651
1.62135
1.60981
1.60655
1.59112
1.55912
1.50013
1.457
1.44433
1.45461
1.486
3.11781
3.2551
3.24564
3.23268
3.2084
3.17902
3.12593
3.03726
2.92477
2.72103
2.40416
2.17704
1.9446
1.7573
1.66511
1.62137
1.60983
1.60661
1.59116
1.55918
1.50019
1.45704
1.44437
1.45462
1.486
3.11782
3.25512
3.24565
3.23271
3.20841
3.17904
3.12607
3.0374
2.92508
2.72174
2.40525
2.17828
1.94603
1.75888
1.66679
1.62304
1.61148
1.60816
1.59252
1.56018
1.50085
1.45754
1.44468
1.45476
1.48608
3.11781
3.25511
3.24566
3.2327
3.20843
3.17905
3.12598
3.03726
2.92474
2.72096
2.40412
2.17702
1.94446
1.75719
1.66497
1.62119
1.60962
1.60635
1.59095
1.55899
1.50004
1.45694
1.44429
1.45459
1.48599
3.11782
3.25512
3.24567
3.23272
3.20844
3.17907
3.12603
3.03733
2.92484
2.72107
2.40421
2.17705
1.94441
1.75715
1.66494
1.62116
1.60961
1.60633
1.59093
1.55897
1.50002
1.45692
1.44428
1.45458
1.48598
3.11782
3.25512
3.24566
3.23271
3.20841
3.17904
3.12607
3.03739
2.92505
2.72164
2.40505
2.17812
1.94597
1.75892
1.66685
1.62312
1.61155
1.60823
1.5926
1.56024
1.5009
1.45757
1.44468
1.45477
1.48609
3.11782
3.25512
3.24567
3.23274
3.20846
3.17909
3.12608
3.03738
2.92489
2.7211
2.40414
2.17693
1.94428
1.75706
1.66488
1.62113
1.6096
1.60635
1.59095
1.559
1.50004
1.45694
1.4443
1.45458
1.48598
3.11782
3.25511
3.24567
3.23272
3.20844
3.17907
3.12602
3.03731
2.92481
2.72103
2.40417
2.17703
1.94443
1.75716
1.66493
1.62115
1.60958
1.6063
1.5909
1.55895
1.50001
1.45692
1.44429
1.45459
1.48599
3.11783
3.25513
3.24567
3.23275
3.20845
3.17909
3.12618
3.03744
2.9251
2.72169
2.40509
2.17804
1.94564
1.75855
1.66645
1.62271
1.61115
1.60781
1.59224
1.55994
1.50067
1.45742
1.44461
1.45472
1.48606
3.11782
3.25512
3.24566
3.23271
3.20844
3.17906
3.12601
3.03738
2.92492
2.72122
2.40428
2.17705
1.94452
1.7572
1.66503
1.6213
1.60977
1.60655
1.59113
1.55916
1.50019
1.45705
1.44438
1.45461
1.486
3.11783
3.25514
3.24568
3.23275
3.20845
3.17909
3.12617
3.03745
2.92511
2.7217
2.40508
2.17804
1.94569
1.75859
1.66648
1.62273
1.61115
1.60782
1.59225
1.55997
1.50071
1.45744
1.44462
1.45474
1.48607
3.11782
3.25512
3.24567
3.23273
3.20845
3.17909
3.12607
3.03736
2.92487
2.72111
2.4042
2.17702
1.94439
1.75713
1.66491
1.62113
1.60957
1.6063
1.59091
1.55896
1.50002
1.45693
1.4443
1.45459
1.48599
3.11785
3.25516
3.24572
3.23281
3.20851
3.1792
3.12626
3.03778
2.92534
2.72155
2.40544
2.17713
1.94016
1.72638
1.41543
0.737856
0.518942
0.626939
0.562209
0.596849
0.613647
0.639597
0.667363
0.716469
0.952686
3.11785
3.25517
3.24571
3.23283
3.20852
3.17921
3.12638
3.03768
2.92539
2.72171
2.40581
2.17836
1.9433
1.75021