/*--------------------------------*- C++ -*----------------------------------*\
| =========                 |                                                 |
| \\      /  F ield         | OpenFOAM: The Open Source CFD Toolbox           |
|  \\    /   O peration     | Version:  4.1                                   |
|   \\  /    A nd           | Web:      www.OpenFOAM.org                      |
|    \\/     M anipulation  |                                                 |
\*---------------------------------------------------------------------------*/
FoamFile
{
    version     2.0;
    format      ascii;
    class       volScalarField;
    location    "0.3";
    object      p;
}
// * * * * * * * * * * * * * * * * * * * * * * * * * * * * * * * * * * * * * //

dimensions      [1 -1 -2 0 0 0 0];

internalField   nonuniform List<scalar> 
52500
(
0.0911542
0.0640602
0.0641424
0.0644227
0.0650199
0.066234
0.0681114
0.0712031
0.0762285
0.0864545
0.103211
0.132021
0.205397
0.455026
1.84975
3.05871
2.56628
2.47318
2.50961
2.50361
2.50136
2.51517
2.52434
2.52062
2.55175
0.0911544
0.0640604
0.0641426
0.064423
0.0650203
0.0662348
0.0681103
0.0712059
0.0762427
0.08651
0.103129
0.131302
0.202845
0.442473
1.77061
3.09857
2.57038
2.47402
2.50945
2.50201
2.49793
2.50951
2.51815
2.51373
2.54525
0.0911544
0.0640606
0.0641428
0.0644231
0.0650205
0.0662354
0.0681097
0.0712062
0.0762588
0.0865658
0.10307
0.129965
0.197528
0.416316
1.59151
3.1644
2.5756
2.46987
2.50251
2.49223
2.48472
2.49164
2.49902
2.4929
2.5249
0.0911547
0.0640608
0.064143
0.0644233
0.0650209
0.0662363
0.0681076
0.0712104
0.0762455
0.0865082
0.103184
0.128558
0.190736
0.382513
1.35336
3.22211
2.57979
2.46501
2.48917
2.47353
2.46057
2.46027
2.4657
2.45583
2.48752
0.0911545
0.0640609
0.0641432
0.0644234
0.0650212
0.066237
0.0681087
0.0712092
0.0762157
0.0862355
0.103682
0.127369
0.182869
0.34441
1.10638
3.21491
2.58595
2.46081
2.47263
2.45207
2.42849
2.41944
2.42159
2.40535
2.43617
0.0911551
0.0640615
0.0641438
0.064424
0.0650222
0.0662378
0.068125
0.0711557
0.0763733
0.0857003
0.104648
0.126516
0.17457
0.306282
0.862176
3.0809
2.63489
2.45938
2.45225
2.42651
2.38766
2.3695
2.36668
2.34175
2.37069
0.0911551
0.0640615
0.0641437
0.0644236
0.0650215
0.0662356
0.0681351
0.0711151
0.0764716
0.0856471
0.105267
0.125454
0.166753
0.274587
0.676492
2.6863
2.77978
2.46546
2.42379
2.39652
2.34247
2.31159
2.30213
2.26477
2.29206
0.0911549
0.0640615
0.0641437
0.0644235
0.0650209
0.0662335
0.0681387
0.0711019
0.0764986
0.0857465
0.105719
0.124395
0.161899
0.250974
0.532912
2.05156
3.00874
2.48341
2.38442
2.3602
2.29703
2.24781
2.22887
2.17195
2.19798
0.0911552
0.0640617
0.064144
0.0644238
0.0650222
0.0662363
0.0681428
0.0710946
0.0765159
0.085759
0.105699
0.125237
0.162209
0.232398
0.425625
1.34444
3.21266
2.50218
2.33477
2.31524
2.25333
2.17942
2.1462
2.0593
2.06349
0.0911554
0.0640621
0.0641445
0.0644243
0.0650234
0.0662387
0.068142
0.0711038
0.0765059
0.0857405
0.105643
0.125538
0.164841
0.217004
0.348991
0.877501
3.16647
2.52052
2.28997
2.25677
2.20469
2.1112
2.05203
1.92786
1.86967
0.0911551
0.0640612
0.0641434
0.0644235
0.0650211
0.0662358
0.068111
0.0712058
0.0762318
0.0864542
0.103185
0.132005
0.205406
0.455212
1.8511
3.05858
2.56599
2.4729
2.50929
2.50335
2.50114
2.51501
2.5242
2.52048
2.55162
0.0911546
0.0640608
0.064143
0.0644232
0.0650207
0.0662356
0.06811
0.0712068
0.0762436
0.0865099
0.103119
0.131292
0.202838
0.442536
1.77125
3.09856
2.57
2.47371
2.50913
2.50175
2.49771
2.50936
2.51801
2.51359
2.5451
0.0911552
0.0640612
0.0641435
0.0644237
0.0650219
0.0662382
0.0681115
0.0712057
0.0762641
0.0865844
0.103085
0.129991
0.197593
0.416569
1.59407
3.16214
2.57529
2.4696
2.5022
2.49199
2.48452
2.49151
2.4989
2.49276
2.52471
0.0911543
0.0640603
0.0641425
0.0644228
0.0650202
0.0662352
0.0681074
0.0712072
0.0762435
0.0865088
0.103177
0.128555
0.190753
0.382652
1.35459
3.22113
2.57921
2.46475
2.48895
2.47334
2.46041
2.46015
2.46558
2.45569
2.48728
0.0911552
0.0640612
0.0641434
0.0644236
0.0650218
0.0662383
0.0681101
0.0712057
0.0762199
0.0862481
0.103683
0.12739
0.182941
0.344755
1.10996
3.21209
2.58569
2.46071
2.47248
2.45195
2.42837
2.41935
2.42148
2.40521
2.4359
0.0911543
0.0640601
0.0641422
0.0644224
0.0650193
0.0662326
0.0681195
0.0711509
0.0763557
0.0856673
0.104621
0.126492
0.17455
0.306314
0.862165
3.08169
2.63512
2.45932
2.45226
2.42648
2.38759
2.36942
2.36659
2.34162
2.37039
0.0911549
0.0640608
0.064143
0.0644229
0.0650198
0.0662319
0.0681317
0.0711149
0.0764545
0.085629
0.105238
0.125415
0.166706
0.274523
0.676018
2.68533
2.78121
2.46542
2.42381
2.39652
2.34245
2.31153
2.30204
2.26465
2.29177
0.0911545
0.0640602
0.0641423
0.0644222
0.0650186
0.0662293
0.0681358
0.0710975
0.0764774
0.0857268
0.105704
0.124357
0.161851
0.250904
0.532831
2.0524
3.00803
2.4837
2.38456
2.36024
2.29704
2.24777
2.2288
2.17185
2.1977
0.0911546
0.0640605
0.0641426
0.0644226
0.0650197
0.0662315
0.0681392
0.0710938
0.0764912
0.085737
0.105672
0.125201
0.162137
0.232333
0.425568
1.3443
3.21288
2.50259
2.33488
2.3153
2.25336
2.17941
2.14613
2.0592
2.06323
0.0911543
0.06406
0.0641422
0.0644222
0.0650193
0.0662314
0.0681354
0.071098
0.076472
0.0857071
0.105597
0.1255
0.164801
0.216972
0.34894
0.877153
3.16709
2.521
2.29026
2.2569
2.20472
2.11119
2.05198
1.92776
1.86946
0.0911544
0.0640601
0.0641422
0.0644225
0.0650195
0.0662333
0.0681099
0.071201
0.0762249
0.0864462
0.103187
0.132008
0.205414
0.455261
1.85149
3.05772
2.56616
2.47309
2.5094
2.50341
2.50117
2.51502
2.52419
2.52047
2.5516
0.0911545
0.0640603
0.0641425
0.0644227
0.0650199
0.0662341
0.0681089
0.0712044
0.0762392
0.086502
0.103109
0.131286
0.202839
0.442552
1.77131
3.09855
2.57032
2.47393
2.50926
2.50182
2.49775
2.50936
2.518
2.51358
2.54507
0.0911544
0.06406
0.0641421
0.0644224
0.0650194
0.0662335
0.0681074
0.0712022
0.0762519
0.0865533
0.103046
0.129948
0.197529
0.416399
1.5921
3.16441
2.57551
2.46977
2.50235
2.49207
2.48456
2.49151
2.49889
2.49274
2.52469
0.0911546
0.0640604
0.0641425
0.0644227
0.06502
0.0662348
0.068106
0.0712069
0.0762405
0.0865002
0.103162
0.128543
0.190739
0.382587
1.3538
3.22232
2.57954
2.46488
2.48906
2.47341
2.46044
2.46015
2.46557
2.45568
2.48726
0.0911541
0.0640599
0.064142
0.0644222
0.0650193
0.0662337
0.0681058
0.0712045
0.0762007
0.0862263
0.103655
0.127352
0.182871
0.344492
1.10723
3.2145
2.58562
2.46069
2.47255
2.45196
2.42837
2.41934
2.42146
2.40519
2.43587
0.0911549
0.0640607
0.064143
0.0644232
0.065021
0.0662358
0.068123
0.0711522
0.0763631
0.0856956
0.104626
0.126511
0.174596
0.306374
0.86266
3.0807
2.63453
2.45922
2.45218
2.42644
2.38757
2.3694
2.36656
2.3416
2.37036
0.0911541
0.0640598
0.0641419
0.0644219
0.0650184
0.0662297
0.0681298
0.071111
0.0764446
0.0856193
0.105227
0.125408
0.1667
0.274539
0.676373
2.68664
2.77996
2.46522
2.42371
2.39646
2.3424
2.3115
2.30201
2.26462
2.29173
0.091155
0.0640608
0.0641429
0.0644228
0.0650194
0.0662305
0.0681365
0.0711008
0.0764835
0.0857312
0.105702
0.124355
0.161852
0.250923
0.532977
2.05314
3.0074
2.48359
2.38451
2.36018
2.29698
2.24772
2.22875
2.17182
2.19766
0.0911542
0.0640597
0.0641418
0.0644216
0.0650183
0.0662294
0.0681358
0.0710891
0.0764849
0.0857234
0.10564
0.125182
0.162104
0.232333
0.42566
1.34474
3.21275
2.5026
2.33486
2.31524
2.25329
2.17935
2.14608
2.05916
2.06319
0.0911549
0.0640607
0.0641429
0.0644227
0.0650201
0.0662327
0.0681354
0.0711013
0.0764796
0.0857091
0.105585
0.125494
0.164783
0.216967
0.348995
0.877357
3.16712
2.52107
2.29019
2.25681
2.20464
2.11112
2.05192
1.92771
1.86941
0.0911542
0.0640598
0.0641419
0.064422
0.0650189
0.0662324
0.0681084
0.0711992
0.0762213
0.0864391
0.10317
0.131996
0.205412
0.455297
1.85163
3.05774
2.5662
2.47312
2.50939
2.50338
2.50113
2.51497
2.52415
2.52042
2.55154
0.0911542
0.0640598
0.0641419
0.0644221
0.065019
0.0662327
0.0681071
0.0712014
0.0762343
0.0864936
0.103097
0.131276
0.202834
0.442561
1.77135
3.09857
2.57034
2.47395
2.50925
2.50179
2.4977
2.50932
2.51796
2.51353
2.54502
0.0911542
0.0640598
0.0641419
0.0644221
0.065019
0.0662329
0.0681071
0.0712007
0.0762501
0.086551
0.103041
0.129942
0.197518
0.416382
1.59216
3.16429
2.57547
2.46979
2.50237
2.49205
2.48452
2.49147
2.49884
2.4927
2.52464
0.0911542
0.0640598
0.0641419
0.0644222
0.0650191
0.0662333
0.0681056
0.0712039
0.0762368
0.0864952
0.10315
0.128527
0.190714
0.382582
1.35432
3.22181
2.57953
2.46493
2.4891
2.47341
2.46041
2.46011
2.46552
2.45563
2.48721
0.0911542
0.0640598
0.0641419
0.0644222
0.0650191
0.0662332
0.0681056
0.0712042
0.0761976
0.0862246
0.103641
0.127344
0.182874
0.344563
1.10803
3.21353
2.58598
2.46085
2.47262
2.45199
2.42836
2.41931
2.42142
2.40515
2.43582
0.0911542
0.0640598
0.0641419
0.064422
0.0650187
0.0662314
0.0681186
0.0711502
0.076347
0.0856637
0.1046
0.126475
0.174529
0.306247
0.861776
3.08146
2.63545
2.45942
2.45234
2.42649
2.38757
2.36938
2.36653
2.34156
2.37032
0.0911542
0.0640597
0.0641418
0.0644218
0.0650181
0.0662292
0.0681293
0.0711105
0.0764425
0.0856161
0.105222
0.125403
0.166685
0.274478
0.675986
2.68532
2.78093
2.46543
2.42384
2.39651
2.34241
2.31148
2.30198
2.26459
2.29169
0.0911542
0.0640597
0.0641417
0.0644216
0.0650178
0.0662279
0.0681345
0.0710953
0.076472
0.0857208
0.105694
0.124346
0.161842
0.250905
0.532912
2.05316
3.00745
2.4837
2.38458
2.36022
2.29699
2.24771
2.22873
2.17178
2.19762
0.0911541
0.0640596
0.0641417
0.0644215
0.0650181
0.0662289
0.0681359
0.0710889
0.0764823
0.0857226
0.105641
0.125184
0.162118
0.232338
0.425644
1.34475
3.21276
2.50262
2.3349
2.31527
2.25331
2.17934
2.14606
2.05913
2.06315
0.0911541
0.0640596
0.0641417
0.0644216
0.0650184
0.06623
0.0681333
0.0710962
0.0764674
0.0856986
0.105576
0.125484
0.164778
0.216964
0.348979
0.877361
3.16716
2.52103
2.29027
2.25687
2.20467
2.11112
2.05191
1.92769
1.86938
0.0911541
0.0640595
0.0641416
0.0644217
0.0650186
0.066232
0.0681077
0.071198
0.07622
0.0864374
0.103168
0.13199
0.205399
0.455255
1.85145
3.05784
2.56622
2.47314
2.50943
2.5034
2.50114
2.51498
2.52415
2.52044
2.55157
0.0911541
0.0640595
0.0641417
0.0644218
0.0650187
0.0662323
0.0681064
0.0712002
0.076233
0.0864922
0.103094
0.131271
0.202824
0.442537
1.77127
3.09856
2.57037
2.47399
2.5093
2.50181
2.49772
2.50932
2.51797
2.51355
2.54507
0.0911542
0.0640596
0.0641417
0.0644219
0.0650187
0.0662324
0.0681064
0.0711997
0.0762487
0.0865487
0.103038
0.129937
0.197509
0.416358
1.59204
3.1643
2.5755
2.46984
2.50241
2.49207
2.48453
2.49147
2.49885
2.49272
2.52474
0.0911542
0.0640596
0.0641417
0.064422
0.0650189
0.0662329
0.0681049
0.071203
0.0762355
0.0864929
0.103148
0.128523
0.190706
0.382561
1.35419
3.2218
2.5796
2.46499
2.48914
2.47342
2.46041
2.46011
2.46553
2.45566
2.48735
0.0911541
0.0640596
0.0641417
0.0644219
0.0650188
0.0662328
0.0681049
0.0712028
0.076197
0.0862212
0.10364
0.127341
0.182867
0.344545
1.10791
3.21355
2.58607
2.46092
2.47266
2.45201
2.42836
2.4193
2.42144
2.40518
2.43599
0.0911542
0.0640596
0.0641417
0.0644218
0.0650185
0.0662311
0.0681182
0.0711489
0.0763469
0.0856612
0.104601
0.126473
0.174521
0.30623
0.861705
3.08141
2.63554
2.45947
2.45237
2.42651
2.38757
2.36937
2.36654
2.34159
2.37049
0.0911541
0.0640595
0.0641416
0.0644216
0.0650179
0.066229
0.068129
0.0711095
0.0764421
0.0856167
0.105224
0.125403
0.166684
0.274471
0.675928
2.68509
2.78105
2.46546
2.42385
2.39652
2.34241
2.31148
2.302
2.26462
2.29185
0.0911542
0.0640596
0.0641417
0.0644215
0.0650177
0.0662278
0.0681344
0.0710948
0.0764717
0.0857214
0.105697
0.12435
0.161842
0.250892
0.532828
2.05269
3.00768
2.4837
2.38456
2.36022
2.297
2.24772
2.22875
2.17182
2.19773
0.0911541
0.0640596
0.0641417
0.0644215
0.0650181
0.0662291
0.0681362
0.0710888
0.0764835
0.0857254
0.105648
0.125187
0.16212
0.232322
0.42558
1.34445
3.21276
2.50259
2.33487
2.31527
2.25332
2.17936
2.14608
2.05917
2.06324
0.0911541
0.0640596
0.0641417
0.0644216
0.0650185
0.0662303
0.0681334
0.0710958
0.0764686
0.0856996
0.105578
0.12548
0.164763
0.216939
0.348933
0.877239
3.16706
2.52098
2.29024
2.25687
2.20468
2.11114
2.05193
1.92772
1.86945
0.0911542
0.0640598
0.0641419
0.064422
0.0650189
0.0662324
0.0681084
0.0711991
0.0762214
0.0864389
0.103171
0.131996
0.205412
0.455299
1.85165
3.05776
2.56621
2.47313
2.5094
2.50339
2.50113
2.51498
2.52415
2.52042
2.55155
0.0911542
0.0640598
0.0641419
0.0644221
0.065019
0.0662327
0.0681072
0.0712015
0.0762344
0.0864938
0.103097
0.131277
0.202834
0.442563
1.77136
3.09859
2.57036
2.47397
2.50926
2.5018
2.49771
2.50932
2.51796
2.51354
2.54503
0.0911542
0.0640598
0.0641419
0.0644221
0.065019
0.0662329
0.0681072
0.0712008
0.0762502
0.0865511
0.103041
0.129942
0.197519
0.416386
1.59217
3.16432
2.57549
2.46981
2.50238
2.49206
2.48453
2.49148
2.49885
2.4927
2.52464
0.0911543
0.0640598
0.0641419
0.0644222
0.0650192
0.0662333
0.0681056
0.071204
0.0762369
0.086495
0.103151
0.128528
0.190716
0.382587
1.35434
3.22184
2.57956
2.46495
2.48912
2.47343
2.46042
2.46012
2.46553
2.45564
2.48722
0.0911543
0.0640598
0.0641419
0.0644222
0.0650191
0.0662332
0.0681056
0.0712043
0.0761978
0.0862244
0.103643
0.127346
0.182877
0.344568
1.10801
3.21358
2.58602
2.46088
2.47264
2.45201
2.42838
2.41932
2.42143
2.40516
2.43583
0.0911543
0.0640598
0.0641419
0.0644221
0.0650187
0.0662314
0.0681188
0.0711504
0.0763472
0.0856639
0.104603
0.126478
0.174533
0.306251
0.861763
3.08148
2.6355
2.45945
2.45236
2.42651
2.38759
2.36939
2.36654
2.34157
2.37032
0.0911543
0.0640597
0.0641418
0.0644218
0.0650182
0.0662293
0.0681295
0.0711108
0.0764428
0.0856177
0.105226
0.125409
0.166693
0.274488
0.675973
2.68523
2.781
2.46545
2.42385
2.39653
2.34243
2.3115
2.30199
2.2646
2.2917
0.0911542
0.0640597
0.0641418
0.0644217
0.0650179
0.0662282
0.0681349
0.0710956
0.0764729
0.0857228
0.105699
0.124352
0.16185
0.25091
0.532876
2.05288
3.00758
2.4837
2.38457
2.36023
2.29701
2.24773
2.22874
2.1718
2.19763
0.0911542
0.0640598
0.0641419
0.0644217
0.0650184
0.0662294
0.0681368
0.07109
0.0764841
0.0857268
0.105652
0.125191
0.162129
0.232338
0.42561
1.34456
3.21275
2.50258
2.33487
2.31527
2.25332
2.17936
2.14608
2.05915
2.06316
0.0911542
0.0640598
0.0641419
0.0644218
0.0650188
0.0662306
0.068134
0.0710971
0.0764692
0.0857013
0.105582
0.125485
0.164773
0.216953
0.348951
0.877281
3.16709
2.52096
2.29023
2.25686
2.20467
2.11113
2.05192
1.9277
1.86939
0.0911542
0.0640598
0.0641419
0.064422
0.0650189
0.0662323
0.0681084
0.0711992
0.0762213
0.0864391
0.10317
0.131996
0.205412
0.455297
1.85163
3.05774
2.5662
2.47312
2.50939
2.50338
2.50113
2.51497
2.52415
2.52042
2.55154
0.0911542
0.0640598
0.0641419
0.0644221
0.065019
0.0662327
0.0681071
0.0712014
0.0762343
0.0864936
0.103097
0.131276
0.202834
0.442561
1.77135
3.09857
2.57034
2.47395
2.50925
2.50179
2.4977
2.50932
2.51796
2.51353
2.54502
0.0911542
0.0640598
0.0641419
0.0644221
0.065019
0.0662329
0.0681071
0.0712007
0.0762501
0.086551
0.103041
0.129942
0.197518
0.416383
1.59216
3.16429
2.57547
2.46979
2.50237
2.49205
2.48452
2.49147
2.49884
2.4927
2.52464
0.0911542
0.0640598
0.0641419
0.0644222
0.0650191
0.0662333
0.0681056
0.0712039
0.0762368
0.0864952
0.10315
0.128527
0.190714
0.382582
1.35432
3.22181
2.57953
2.46493
2.4891
2.47341
2.46041
2.46011
2.46552
2.45563
2.48721
0.0911542
0.0640598
0.0641419
0.0644222
0.0650191
0.0662332
0.0681056
0.0712042
0.0761976
0.0862247
0.103641
0.127344
0.182874
0.344564
1.10803
3.21353
2.58598
2.46085
2.47262
2.45199
2.42836
2.41931
2.42142
2.40515
2.43582
0.0911542
0.0640598
0.0641419
0.064422
0.0650187
0.0662314
0.0681186
0.0711502
0.076347
0.0856637
0.1046
0.126475
0.174529
0.306247
0.861776
3.08146
2.63545
2.45942
2.45234
2.42649
2.38757
2.36938
2.36653
2.34156
2.37031
0.0911542
0.0640597
0.0641418
0.0644218
0.0650181
0.0662292
0.0681293
0.0711105
0.0764425
0.0856161
0.105222
0.125403
0.166685
0.274478
0.675987
2.68532
2.78093
2.46543
2.42384
2.39651
2.34241
2.31148
2.30198
2.26459
2.29169
0.0911542
0.0640597
0.0641417
0.0644216
0.0650178
0.0662279
0.0681345
0.0710953
0.076472
0.0857208
0.105694
0.124346
0.161842
0.250905
0.532912
2.05316
3.00745
2.4837
2.38458
2.36022
2.29699
2.24771
2.22873
2.17178
2.19762
0.0911541
0.0640596
0.0641417
0.0644215
0.0650181
0.0662289
0.0681359
0.0710889
0.0764823
0.0857226
0.105641
0.125184
0.162118
0.232338
0.425644
1.34475
3.21276
2.50262
2.3349
2.31527
2.25331
2.17934
2.14606
2.05913
2.06315
0.0911541
0.0640596
0.0641417
0.0644216
0.0650184
0.06623
0.0681333
0.0710962
0.0764674
0.0856986
0.105576
0.125484
0.164778
0.216964
0.348979
0.877361
3.16716
2.52103
2.29027
2.25687
2.20467
2.11112
2.05191
1.92769
1.86938
0.0911544
0.0640601
0.0641422
0.0644225
0.0650195
0.0662333
0.0681099
0.071201
0.0762249
0.0864462
0.103187
0.132008
0.205414
0.455261
1.85149
3.05772
2.56616
2.47309
2.5094
2.50341
2.50117
2.51502
2.52419
2.52047
2.5516
0.0911545
0.0640603
0.0641425
0.0644227
0.0650199
0.0662341
0.0681089
0.0712044
0.0762392
0.086502
0.103109
0.131286
0.202839
0.442552
1.77131
3.09855
2.57032
2.47393
2.50926
2.50182
2.49775
2.50936
2.518
2.51358
2.54507
0.0911544
0.06406
0.0641421
0.0644224
0.0650194
0.0662335
0.0681074
0.0712022
0.0762519
0.0865533
0.103046
0.129948
0.197529
0.416399
1.5921
3.16441
2.57551
2.46977
2.50235
2.49207
2.48456
2.49151
2.49889
2.49274
2.52469
0.0911546
0.0640604
0.0641425
0.0644227
0.06502
0.0662348
0.068106
0.0712069
0.0762405
0.0865002
0.103162
0.128543
0.190739
0.382586
1.3538
3.22232
2.57954
2.46488
2.48906
2.47341
2.46044
2.46015
2.46557
2.45568
2.48726
0.0911541
0.0640599
0.064142
0.0644222
0.0650193
0.0662337
0.0681058
0.0712045
0.0762007
0.0862263
0.103655
0.127352
0.182871
0.344492
1.10723
3.2145
2.58562
2.46069
2.47255
2.45196
2.42837
2.41934
2.42146
2.40519
2.43587
0.0911549
0.0640607
0.064143
0.0644232
0.065021
0.0662358
0.068123
0.0711522
0.0763631
0.0856956
0.104626
0.126511
0.174596
0.306374
0.86266
3.0807
2.63453
2.45922
2.45218
2.42644
2.38757
2.3694
2.36656
2.3416
2.37036
0.0911541
0.0640598
0.0641419
0.0644219
0.0650184
0.0662297
0.0681298
0.071111
0.0764446
0.0856193
0.105227
0.125408
0.1667
0.274539
0.676373
2.68664
2.77996
2.46522
2.42371
2.39646
2.3424
2.3115
2.30201
2.26462
2.29173
0.091155
0.0640608
0.0641429
0.0644228
0.0650194
0.0662305
0.0681365
0.0711008
0.0764835
0.0857312
0.105702
0.124355
0.161852
0.250923
0.532977
2.05314
3.0074
2.48359
2.38451
2.36018
2.29698
2.24772
2.22875
2.17182
2.19766
0.0911542
0.0640597
0.0641418
0.0644216
0.0650183
0.0662294
0.0681358
0.0710891
0.0764849
0.0857234
0.10564
0.125182
0.162104
0.232333
0.42566
1.34474
3.21275
2.5026
2.33486
2.31524
2.25329
2.17935
2.14608
2.05916
2.06319
0.0911549
0.0640607
0.0641429
0.0644227
0.0650201
0.0662327
0.0681354
0.0711013
0.0764796
0.0857091
0.105585
0.125494
0.164783
0.216967
0.348995
0.877357
3.16712
2.52107
2.29019
2.25681
2.20464
2.11112
2.05192
1.92771
1.86941
0.0911551
0.0640612
0.0641434
0.0644235
0.0650211
0.0662358
0.068111
0.0712058
0.0762318
0.0864542
0.103185
0.132005
0.205406
0.455212
1.8511
3.05858
2.56599
2.4729
2.50929
2.50335
2.50114
2.51501
2.5242
2.52048
2.55162
0.0911546
0.0640608
0.064143
0.0644232
0.0650207
0.0662356
0.0681099
0.0712068
0.0762436
0.0865099
0.103119
0.131292
0.202838
0.442536
1.77125
3.09856
2.57
2.47371
2.50913
2.50175
2.49771
2.50936
2.51801
2.51359
2.5451
0.0911552
0.0640612
0.0641435
0.0644237
0.0650219
0.0662382
0.0681115
0.0712057
0.0762641
0.0865844
0.103085
0.129991
0.197593
0.416568
1.59407
3.16214
2.57528
2.4696
2.5022
2.49199
2.48452
2.49151
2.4989
2.49276
2.52471
0.0911543
0.0640603
0.0641425
0.0644228
0.0650202
0.0662352
0.0681074
0.0712072
0.0762435
0.0865088
0.103177
0.128555
0.190753
0.382652
1.35459
3.22113
2.57921
2.46475
2.48895
2.47334
2.46041
2.46015
2.46558
2.45569
2.48728
0.0911552
0.0640612
0.0641434
0.0644236
0.0650218
0.0662383
0.0681101
0.0712057
0.0762199
0.0862481
0.103683
0.12739
0.182941
0.344754
1.10996
3.21209
2.58569
2.46071
2.47248
2.45195
2.42837
2.41935
2.42148
2.40521
2.4359
0.0911543
0.0640601
0.0641422
0.0644224
0.0650193
0.0662326
0.0681195
0.0711509
0.0763557
0.0856673
0.104621
0.126492
0.17455
0.306314
0.862164
3.08169
2.63512
2.45932
2.45226
2.42648
2.38759
2.36942
2.36659
2.34162
2.37039
0.0911549
0.0640608
0.064143
0.0644229
0.0650198
0.0662319
0.0681317
0.0711149
0.0764545
0.085629
0.105238
0.125415
0.166706
0.274523
0.676017
2.68533
2.78121
2.46542
2.42381
2.39652
2.34245
2.31153
2.30204
2.26465
2.29177
0.0911545
0.0640602
0.0641423
0.0644222
0.0650186
0.0662293
0.0681358
0.0710975
0.0764774
0.0857268
0.105704
0.124357
0.161851
0.250904
0.532831
2.0524
3.00803
2.4837
2.38456
2.36024
2.29704
2.24777
2.2288
2.17185
2.1977
0.0911546
0.0640605
0.0641426
0.0644226
0.0650197
0.0662315
0.0681392
0.0710938
0.0764912
0.085737
0.105672
0.125201
0.162137
0.232333
0.425568
1.3443
3.21288
2.50259
2.33488
2.3153
2.25336
2.17941
2.14613
2.0592
2.06323
0.0911543
0.06406
0.0641422
0.0644222
0.0650193
0.0662313
0.0681354
0.071098
0.076472
0.0857071
0.105597
0.1255
0.164801
0.216972
0.34894
0.877154
3.16709
2.521
2.29026
2.2569
2.20472
2.11119
2.05198
1.92776
1.86946
0.0911544
0.0640605
0.0641427
0.064423
0.0650203
0.0662347
0.0681112
0.0712043
0.07623
0.0864549
0.103203
0.132015
0.205393
0.45506
1.85004
3.05837
2.56629
2.47316
2.50956
2.50355
2.50131
2.51514
2.52433
2.52062
2.55188
0.0911545
0.0640605
0.0641427
0.0644229
0.0650204
0.0662351
0.0681095
0.0712058
0.0762434
0.086512
0.103129
0.131303
0.202848
0.442434
1.77011
3.09893
2.57034
2.47397
2.50943
2.50196
2.49788
2.50948
2.51813
2.51374
2.54536
0.0911543
0.0640605
0.0641427
0.0644231
0.0650206
0.0662357
0.0681101
0.0712062
0.0762601
0.08657
0.103073
0.129958
0.197498
0.416198
1.59081
3.16445
2.57528
2.4698
2.50253
2.49221
2.48468
2.49161
2.49901
2.4929
2.52498
0.0911549
0.0640611
0.0641433
0.0644236
0.0650221
0.066239
0.0681112
0.0712086
0.076254
0.0865384
0.103205
0.128574
0.190754
0.382678
1.35597
3.21974
2.57944
2.4649
2.48917
2.47353
2.46054
2.46025
2.46568
2.45584
2.48757
0.0911545
0.0640607
0.0641429
0.0644232
0.0650207
0.066236
0.0681074
0.071208
0.0762123
0.0862216
0.103683
0.127371
0.182877
0.344493
1.10737
3.2128
2.58614
2.46084
2.47265
2.45209
2.42848
2.41942
2.42158
2.40535
2.43618
0.0911549
0.0640613
0.0641435
0.0644236
0.0650213
0.0662359
0.0681225
0.071154
0.0763751
0.0856744
0.104653
0.126506
0.17451
0.306084
0.860715
3.08166
2.63612
2.45937
2.45234
2.42652
2.38766
2.36949
2.36668
2.34175
2.37068
0.0911548
0.0640609
0.0641431
0.0644231
0.0650208
0.0662344
0.0681339
0.0711131
0.0764666
0.0856406
0.105261
0.12543
0.16669
0.274408
0.675739
2.68387
2.78067
2.46525
2.42373
2.39648
2.34246
2.31158
2.30213
2.26476
2.29206
0.0911555
0.064062
0.0641443
0.0644241
0.0650222
0.0662359
0.0681417
0.071103
0.0765072
0.0857557
0.105744
0.124366
0.161853
0.250883
0.532804
2.05228
3.00774
2.48363
2.38446
2.36014
2.297
2.24779
2.22887
2.17195
2.19799
0.0911543
0.0640605
0.0641427
0.0644224
0.0650198
0.0662322
0.0681378
0.071091
0.076499
0.0857368
0.105654
0.1252
0.162132
0.232354
0.425679
1.34466
3.21297
2.50252
2.33481
2.31519
2.25331
2.17941
2.1462
2.0593
2.0635
0.0911555
0.064062
0.0641443
0.0644239
0.0650231
0.0662379
0.06814
0.0711018
0.0765047
0.0857347
0.10562
0.125526
0.164817
0.216978
0.348991
0.877455
3.16702
2.52078
2.29005
2.25678
2.20469
2.11119
2.05203
1.92786
1.86968
0.0911551
0.0640622
0.0641446
0.0644251
0.0650235
0.0662389
0.068137
0.0711184
0.0764726
0.0857125
0.105566
0.125433
0.16636
0.204671
0.297629
0.616794
2.49516
2.71637
2.27624
2.18278
2.14481
2.04658
1.93559
1.76094
1.44494
0.0911558
0.0640628
0.0641452
0.0644257
0.0650243
0.0662403
0.0681369
0.0711278
0.0764634
0.0857329
0.105591
0.125133
0.165647
0.200826
0.269877
0.46017
1.37799
2.97168
2.2882
2.08759
2.06297
1.99673
1.82033
1.6117
1.30458
0.0911555
0.0640627
0.064145
0.0644255
0.0650233
0.0662372
0.0681357
0.0711321
0.0764586
0.0857231
0.105616
0.125011
0.164458
0.205374
0.250212
0.365831
0.831203
2.92166
2.31798
1.99596
1.9484
1.91293
1.76215
1.55559
1.30816
0.0911556
0.0640628
0.0641451
0.0644254
0.0650233
0.0662374
0.0681361
0.0711285
0.07647
0.0857222
0.105641
0.12507
0.164235
0.207292
0.236492
0.308648
0.565839
2.15836
2.51173
1.96584
1.81388
1.81638
1.72558
1.55961
1.3329
0.0911559
0.0640629
0.0641453
0.0644257
0.0650241
0.0662391
0.0681378
0.071126
0.0764778
0.0857327
0.105666
0.125161
0.164527
0.206878
0.230645
0.279368
0.414628
1.00889
2.56172
1.97747
1.7123
1.72676
1.67783
1.56864
1.39308
0.0911558
0.0640631
0.0641454
0.0644259
0.0650245
0.0662401
0.0681384
0.0711257
0.0764824
0.0857373
0.105673
0.125193
0.16467
0.206193
0.232385
0.261293
0.335758
0.622006
2.22676
2.09312
1.6777
1.66254
1.63216
1.56625
1.44101
0.0911557
0.0640629
0.0641453
0.0644256
0.0650241
0.0662396
0.0681369
0.071124
0.0764819
0.0857342
0.105665
0.125188
0.164653
0.206385
0.232663
0.25215
0.295967
0.427095
1.08959
2.07991
1.7039
1.63272
1.60635
1.55515
1.46436
0.0911559
0.0640632
0.0641455
0.0644258
0.0650245
0.0662402
0.0681374
0.0711251
0.0764847
0.0857358
0.105667
0.125184
0.16461
0.206539
0.232134
0.252488
0.276491
0.336634
0.575775
1.75588
1.71954
1.62613
1.59428
1.54921
1.48546
0.0911559
0.0640632
0.0641456
0.064426
0.0650247
0.0662404
0.0681383
0.0711265
0.0764846
0.085736
0.105667
0.125169
0.164571
0.206526
0.231856
0.252751
0.265912
0.295475
0.386596
0.822908
1.62099
1.60631
1.57747
1.54842
1.51694
0.0911562
0.0640634
0.0641458
0.0644261
0.0650248
0.0662404
0.0681381
0.071127
0.0764849
0.0857365
0.105668
0.125176
0.164585
0.206557
0.231882
0.252572
0.265934
0.278155
0.311735
0.445024
1.09388
1.49727
1.5387
1.54112
1.52993
0.0911558
0.0640632
0.0641456
0.064426
0.0650241
0.0662387
0.0681373
0.0711291
0.0764778
0.0857279
0.105654
0.125159
0.164542
0.206523
0.231851
0.252564
0.265983
0.272849
0.28559
0.323304
0.485494
1.04077
1.40056
1.50399
1.52394
0.0911562
0.0640636
0.064146
0.0644264
0.0650252
0.0662409
0.0681404
0.0711291
0.076485
0.085742
0.105681
0.12517
0.164564
0.206476
0.231779
0.252501
0.265846
0.272781
0.27796
0.287946
0.322782
0.465067
0.883643
1.32839
1.46458
0.0911561
0.0640635
0.0641459
0.0644263
0.065025
0.0662406
0.06814
0.0711284
0.0764842
0.0857406
0.105679
0.125174
0.164575
0.206493
0.231799
0.252523
0.265872
0.272708
0.278085
0.280216
0.286896
0.316414
0.417727
0.705723
1.18059
0.0911557
0.0640631
0.0641455
0.0644259
0.065024
0.0662385
0.0681373
0.071129
0.0764777
0.0857307
0.105662
0.125177
0.164582
0.206581
0.231901
0.252611
0.265957
0.272767
0.278186
0.279298
0.281676
0.291003
0.319417
0.392504
0.557089
0.091156
0.0640632
0.0641456
0.0644259
0.0650246
0.06624
0.068138
0.0711262
0.0764824
0.0857395
0.10568
0.125197
0.164634
0.206596
0.231891
0.252594
0.265928
0.272726
0.278125
0.279185
0.281134
0.288502
0.30818
0.347237
0.397144
0.0911559
0.0640633
0.0641458
0.0644262
0.0650251
0.066241
0.0681396
0.0711278
0.0764856
0.0857445
0.105686
0.125188
0.164606
0.206527
0.231815
0.252533
0.265882
0.272703
0.278108
0.279165
0.281083
0.288311
0.307587
0.342209
0.37397
0.0911559
0.0640634
0.0641458
0.0644262
0.065025
0.0662409
0.0681393
0.0711274
0.0764851
0.0857416
0.105679
0.125175
0.16458
0.206509
0.231812
0.252537
0.265891
0.272714
0.278117
0.279173
0.281088
0.288304
0.307559
0.341819
0.371781
0.0911563
0.0640636
0.0641459
0.0644263
0.0650251
0.0662408
0.0681388
0.0711281
0.0764872
0.0857412
0.105677
0.125186
0.164599
0.206571
0.231887
0.252601
0.26595
0.272748
0.278143
0.279195
0.281101
0.288306
0.307535
0.341784
0.371596
0.0911558
0.0640631
0.0641454
0.0644258
0.0650238
0.0662382
0.0681364
0.071128
0.076477
0.0857256
0.105646
0.125163
0.164558
0.206585
0.231929
0.252659
0.266017
0.272819
0.278238
0.279249
0.281136
0.288307
0.307456
0.341769
0.37158
0.0911565
0.0640639
0.0641463
0.0644266
0.0650256
0.0662416
0.0681397
0.07113
0.0764899
0.0857423
0.105676
0.125182
0.164587
0.206563
0.231882
0.252595
0.265945
0.272738
0.278134
0.279184
0.281091
0.288297
0.307534
0.341777
0.371576
0.0911557
0.0640631
0.0641455
0.0644259
0.0650247
0.0662404
0.0681388
0.0711256
0.0764829
0.0857407
0.105681
0.125181
0.164595
0.206521
0.231815
0.252535
0.265881
0.272702
0.278104
0.279159
0.281075
0.288292
0.307547
0.341778
0.371574
0.0911563
0.064064
0.0641465
0.0644269
0.0650261
0.0662426
0.0681406
0.0711305
0.0764919
0.0857499
0.105689
0.125189
0.1646
0.206532
0.231819
0.25252
0.265868
0.272671
0.278077
0.279134
0.281055
0.28828
0.30755
0.341774
0.371569
0.0911557
0.0640631
0.0641455
0.0644259
0.0650247
0.0662404
0.0681388
0.0711257
0.0764827
0.0857404
0.105679
0.125178
0.164592
0.20651
0.2318
0.252519
0.265865
0.272687
0.27809
0.279147
0.281065
0.288286
0.307549
0.341776
0.371571
0.0911566
0.0640641
0.0641465
0.0644269
0.0650259
0.0662421
0.0681405
0.0711314
0.0764922
0.0857465
0.105683
0.125185
0.164587
0.206549
0.23186
0.25257
0.265914
0.272704
0.2781
0.279153
0.281065
0.28828
0.307535
0.34177
0.371567
0.0911557
0.0640631
0.0641454
0.0644257
0.0650237
0.0662381
0.068136
0.071127
0.0764758
0.085723
0.105641
0.125155
0.164547
0.206568
0.231913
0.252644
0.266004
0.272808
0.278226
0.279238
0.281125
0.288298
0.307455
0.341763
0.371571
0.0911566
0.0640641
0.0641465
0.0644268
0.0650259
0.066242
0.0681403
0.0711312
0.0764913
0.0857451
0.105681
0.125182
0.16458
0.206545
0.231861
0.252572
0.26592
0.272715
0.278109
0.279161
0.281073
0.288285
0.307535
0.341772
0.37157
0.0911557
0.064063
0.0641454
0.0644258
0.0650246
0.0662403
0.0681385
0.0711255
0.0764833
0.085739
0.105676
0.125174
0.164582
0.20651
0.231808
0.252531
0.265884
0.272705
0.278108
0.279162
0.281077
0.288293
0.307545
0.341776
0.371572
0.0911563
0.0640638
0.0641463
0.0644266
0.0650257
0.0662419
0.0681397
0.0711289
0.0764893
0.0857448
0.105681
0.125183
0.164594
0.206544
0.23184
0.252546
0.265896
0.272696
0.2781
0.279153
0.281069
0.288288
0.307547
0.341776
0.371571
0.0911557
0.064063
0.0641453
0.0644257
0.0650244
0.06624
0.068138
0.0711254
0.0764821
0.0857383
0.105676
0.12518
0.164594
0.206527
0.231822
0.252543
0.265891
0.272709
0.278111
0.279166
0.28108
0.288294
0.307539
0.341775
0.371572
0.0911562
0.0640635
0.0641459
0.0644262
0.065025
0.0662407
0.0681386
0.0711279
0.0764857
0.0857392
0.105674
0.125186
0.164603
0.206575
0.231886
0.252597
0.265944
0.272739
0.278136
0.279188
0.281095
0.2883
0.307525
0.341774
0.371573
0.0911556
0.0640629
0.0641452
0.0644255
0.0650234
0.0662376
0.0681358
0.0711268