/*--------------------------------*- C++ -*----------------------------------*\
| =========                 |                                                 |
| \\      /  F ield         | OpenFOAM: The Open Source CFD Toolbox           |
|  \\    /   O peration     | Version:  4.1                                   |
|   \\  /    A nd           | Web:      www.OpenFOAM.org                      |
|    \\/     M anipulation  |                                                 |
\*---------------------------------------------------------------------------*/
FoamFile
{
    version     2.0;
    format      ascii;
    class       surfaceScalarField;
    location    "0.3";
    object      phi;
}
// * * * * * * * * * * * * * * * * * * * * * * * * * * * * * * * * * * * * * //

dimensions      [1 0 -1 0 0 0 0];

internalField   nonuniform List<scalar> 
150500
(
0.00202815
-6.58376e-10
-4.14535e-12
0.00203421
-1.21306e-09
-3.95722e-12
0.00204083
-2.15471e-09
-4.02108e-12
0.00204407
-3.33767e-09
-3.26026e-12
0.00204998
-4.98703e-09
-4.85497e-12
0.0020598
-7.46919e-09
-7.83858e-12
0.00206272
-8.14379e-09
1.83101e-12
0.00208429
-2.08395e-08
-1.13934e-11
0.00213569
-3.14342e-08
-1.35754e-11
0.00216653
-1.36569e-07
1.2416e-12
0.00227476
2.4317e-07
1.08483e-10
0.00236587
8.83088e-07
6.98704e-11
0.00229664
6.05474e-06
-3.66203e-11
0.00114511
4.27603e-05
-8.58561e-10
-0.00591232
0.0005172
-6.39778e-09
-0.00430167
0.000949872
5.7385e-10
-0.00404614
0.000610301
1.31863e-09
-0.00451071
0.000613181
1.29957e-09
-0.00477407
0.000650943
1.4619e-09
-0.00424275
0.000649892
1.18852e-09
-0.00352969
0.000627619
1.02588e-09
-0.00269298
0.000617568
7.24799e-10
-0.00179851
0.000611496
6.41595e-10
-0.000934623
0.000623818
6.58197e-10
0.000682704
6.20655e-10
0.00202815
-7.64208e-10
-1.20618e-12
0.00203421
-1.65941e-09
-1.46661e-12
0.00204083
-3.14919e-09
-1.49328e-12
0.00204406
-5.08374e-09
-1.20265e-12
0.00204997
-7.66486e-09
-1.93006e-12
0.00205977
-1.12973e-08
-3.61071e-12
0.00206271
-1.49538e-08
1.34627e-12
0.00208441
-2.68196e-08
-3.73548e-12
0.00213509
-5.21447e-08
-3.65553e-12
0.00216579
-1.47286e-07
2.93804e-13
0.00227034
2.73019e-07
3.97437e-11
0.00237428
1.60766e-06
4.34325e-11
0.00232067
1.13835e-05
2.77853e-11
0.00124605
7.80796e-05
-2.90215e-10
-0.00551493
0.000919966
-3.01446e-09
-0.00425553
0.00192555
6.78644e-11
-0.0040186
0.00124944
1.7471e-09
-0.00446032
0.00121453
1.40854e-09
-0.00472862
0.00129792
1.47354e-09
-0.00419911
0.00129929
1.15396e-09
-0.00349184
0.00126277
9.89593e-10
-0.00266267
0.0012437
6.95456e-10
-0.00177803
0.00123084
6.31088e-10
-0.000923028
0.00125617
6.63797e-10
0.00137234
7.00212e-10
0.00202816
-1.37338e-09
-3.36414e-12
0.00203422
-2.46195e-09
-2.84042e-12
0.00204083
-4.48113e-09
-3.03829e-12
0.00204406
-6.9683e-09
-2.40681e-12
0.00204998
-1.02683e-08
-5.69727e-12
0.00205976
-1.52171e-08
-1.18973e-11
0.00206269
-1.69887e-08
-7.35919e-12
0.00208459
-3.86806e-08
2.1098e-12
0.00213489
-3.5382e-08
-2.22375e-11
0.00216535
3.53995e-08
-7.78088e-11
0.00226249
-1.18181e-07
-6.47733e-11
0.00239267
1.59058e-06
-1.10901e-10
0.00237325
1.44398e-05
-2.84971e-10
0.00143098
9.72432e-05
-1.15404e-09
-0.00453644
0.00109016
-1.20356e-08
-0.00420223
0.00303121
1.02961e-08
-0.00396488
0.00189549
1.41331e-09
-0.00435818
0.00181757
1.20435e-09
-0.00463896
0.00193764
1.39914e-09
-0.00411973
0.00195474
1.10792e-09
-0.00342335
0.00191077
9.13151e-10
-0.00260489
0.00188299
6.27078e-10
-0.0017355
0.00186284
5.9582e-10
-0.000897638
0.00190408
6.44828e-10
0.00208074
8.9991e-10
0.00202815
-4.18846e-10
1.54902e-12
0.00203421
-1.31209e-09
2.04023e-12
0.00204082
-2.58609e-09
2.13477e-12
0.00204404
-4.28257e-09
1.94008e-12
0.00204995
-7.0013e-09
2.9487e-12
0.00205969
-1.17505e-08
4.71179e-12
0.00206269
-1.85409e-08
6.85991e-13
0.00208445
-2.86931e-08
1.33772e-11
0.00213526
-5.58096e-08
8.41571e-12
0.00216663
2.9516e-07
-2.45104e-12
0.00225513
-9.04614e-07
2.96845e-11
0.00242301
1.34498e-06
1.06829e-11
0.00243866
1.55096e-05
-7.2204e-11
0.00162478
0.000102221
-6.29607e-10
-0.00314365
0.0010606
-5.78247e-09
-0.00417299
0.0041598
4.4948e-09
-0.00389746
0.00255721
2.61047e-09
-0.00419599
0.00242826
1.2016e-09
-0.00450447
0.00258199
9.88083e-10
-0.00400126
0.00261996
8.48305e-10
-0.00332308
0.00257445
7.41668e-10
-0.00251994
0.00253914
5.49685e-10
-0.00166801
0.00250783
5.60741e-10
-0.000854932
0.00257032
6.42222e-10
0.00281733
1.09252e-09
0.00202816
-1.12818e-09
-2.69243e-12
0.00203422
-1.58598e-09
-9.64033e-13
0.00204083
-2.53528e-09
-1.04617e-12
0.00204403
-4.1248e-09
-7.96043e-13
0.00204997
-7.3792e-09
-2.4089e-12
0.0020597
-1.28414e-08
-5.34151e-12
0.00206274
-3.44961e-08
-5.51885e-12
0.00208423
4.83867e-09
1.44569e-11
0.00213619
-2.43105e-07
-1.75813e-11
0.00217135
6.50017e-07
-5.28091e-11
0.00225069
-1.97819e-06
-4.65602e-12
0.00245718
1.49164e-06
-9.03537e-11
0.00249856
1.33201e-05
-3.11861e-10
0.00180919
8.97356e-05
-1.55107e-09
-0.00189003
0.000869107
-1.68799e-08
-0.00447916
0.00518825
1.29097e-08
-0.00381006
0.00326128
1.13819e-09
-0.00397993
0.00302587
4.55072e-10
-0.00431896
0.00321752
6.57415e-10
-0.00385747
0.00328891
5.35252e-10
-0.00318324
0.00325341
5.40029e-10
-0.00240168
0.0032114
4.24139e-10
-0.00157079
0.00316917
5.21547e-10
-0.000793686
0.00325639
6.11042e-10
0.00358777
1.25528e-09
0.00202815
-9.50337e-10
3.38974e-12
0.00203422
-1.90424e-09
5.76921e-12
0.00204084
-3.74989e-09
6.3552e-12
0.00204405
-5.84772e-09
6.80047e-12
0.00205006
-8.38981e-09
1.19965e-11
0.00205982
-9.8301e-09
2.17103e-11
0.00206233
-2.83316e-08
2.30454e-11
0.00208554
5.17688e-09
1.98821e-11
0.00213214
-1.65841e-07
7.37938e-11
0.00216702
4.29964e-07
1.37767e-10
0.0022476
-1.55603e-06
1.16725e-10
0.00247301
2.28568e-06
1.00413e-10
0.00253157
8.24491e-06
8.64581e-11
0.00206954
7.10784e-05
-1.44319e-10
-0.000661538
0.000635809
5.20711e-11
-0.00515078
0.0054895
-3.66209e-09
-0.00368355
0.00427658
-1.00069e-09
-0.00370598
0.00360576
2.47611e-10
-0.0040823
0.00383296
-4.85264e-11
-0.00368439
0.00395515
1.25588e-10
-0.00300966
0.00393631
3.19785e-10
-0.00224732
0.00390139
3.55765e-10
-0.00144069
0.00385217
4.48799e-10
-0.000707671
0.00395997
5.67625e-10
0.00440333
1.33727e-09
0.00202815
-5.06039e-10
8.43195e-13
0.00203422
-1.9503e-09
2.70204e-12
0.00204084
-3.82434e-09
3.08494e-12
0.00204403
-5.87324e-09
2.94149e-12
0.00205008
-7.56933e-09
7.24827e-12
0.00205987
-7.92159e-09
1.54485e-11
0.00206205
-1.86906e-08
1.38225e-11
0.00208639
-4.84746e-09
7.60646e-13
0.00213222
-6.11627e-08
7.11813e-11
0.0021421
9.5531e-08
7.56232e-11
0.00224171
-8.71487e-07
1.2234e-10
0.0024733
1.95923e-06
1.64135e-10
0.00260524
7.05222e-07
1.99855e-10
0.00236424
5.31909e-05
2.84021e-10
0.000255003
0.000452663
2.22574e-09
-0.00530122
0.004802
4.51605e-09
-0.00355794
0.00573749
-6.26314e-09
-0.00342162
0.00421571
1.8418e-10
-0.00378931
0.00440626
-1.0541e-10
-0.00346777
0.0046115
8.96127e-12
-0.0028018
0.00461366
1.11533e-10
-0.00205103
0.00460413
2.39593e-10
-0.00126687
0.00455388
4.09309e-10
-0.000591376
0.0046778
5.09135e-10
0.00526256
1.33105e-09
0.00202816
-5.7413e-10
1.92292e-12
0.00203422
-6.61414e-10
5.6894e-12
0.00204083
-1.26491e-09
6.07196e-12
0.002044
-2.38826e-09
5.61938e-12
0.00205005
-5.46844e-09
9.68148e-12
0.00205987
-1.20532e-08
1.75424e-11
0.002062
-1.64103e-08
1.20192e-11
0.00208662
-1.17111e-08
1.80759e-11
0.00213365
-7.37863e-08
8.86108e-11
0.00213382
-1.58355e-07
8.21291e-11
0.00223495
-2.87901e-07
6.52774e-11
0.00245996
-1.09935e-06
1.60776e-10
0.00274956
-5.23294e-06
2.06152e-10
0.00265455
4.19399e-05
3.0899e-10
0.00131716
0.000314982
3.72112e-10
-0.00484455
0.00334809
-3.92012e-09
-0.00342145
0.00762382
3.0759e-09
-0.00312322
0.00482797
-1.2964e-09
-0.00341915
0.00492124
-6.31542e-10
-0.00319031
0.00523581
-2.01892e-10
-0.00254611
0.00528161
-4.85656e-11
-0.00180377
0.00531337
1.43557e-10
-0.00104354
0.00528736
3.28663e-10
-0.000433536
0.0054137
4.29095e-10
0.00622273
1.28074e-09
0.00202815
-2.71376e-10
2.77517e-12
0.00203422
-1.01247e-09
5.17126e-12
0.00204084
-1.78432e-09
5.65549e-12
0.00204401
-2.85874e-09
4.91962e-12
0.00205013
-5.01585e-09
1.04108e-11
0.00205991
-9.9973e-09
2.00247e-11
0.00206187
-7.55669e-09
1.48239e-11
0.0020867
-2.0497e-08
3.07289e-12
0.00213326
-1.71148e-08
1.03125e-10
0.0021333
-1.99095e-07
9.15988e-11
0.00224008
8.60773e-08
1.15176e-10
0.00244659
-9.93397e-07
1.52593e-10
0.00284023
-4.58264e-06
3.04756e-10
0.00275091
3.12938e-05
2.81069e-10
0.00184309
0.000205115
2.5524e-10
-0.00210494
0.00179274
6.3667e-10
-0.00326718
0.00973087
-9.90216e-10
-0.00286716
0.0053788
-1.80144e-09
-0.00297309
0.00536905
-4.82995e-10
-0.00284753
0.00580371
-2.72225e-10
-0.00224439
0.00594174
-1.43801e-10
-0.00149644
0.00600233
7.58624e-11
-0.000754425
0.00604871
3.07622e-10
-0.000185659
0.00612461
4.11378e-10
0.00743651
1.17442e-09
0.00202815
4.69717e-12
-1.81166e-10
0.00203422
8.72671e-12
-9.96652e-10
0.00204084
9.56596e-12
-1.89873e-09
0.00204401
9.04451e-12
-3.27546e-09
0.00205014
1.72695e-11
-4.09331e-09
0.00205991
3.05104e-11
-6.26158e-09
0.00206188
2.73272e-11
-1.1062e-09
0.00208664
2.43913e-11
-1.91759e-08
0.00213287
1.41391e-10
2.89834e-08
0.00213683
1.3967e-10
-1.44362e-07
0.00224357
1.94243e-10
3.0072e-07
0.00244496
1.58544e-10
-1.75757e-07
0.00277423
1.7143e-10
-8.64907e-07
0.00276984
1.40304e-10
1.86571e-05
0.00223099
2.27027e-10
0.000122749
-0.000253185
1.63105e-09
0.000898127
-0.00363616
-2.79132e-09
0.0105503
-0.00268971
-2.12364e-09
0.00622573
-0.00248933
-1.24483e-09
0.00578332
-0.00242758
-5.5737e-10
0.00628381
-0.00188736
-1.38205e-10
0.00654998
-0.00110869
6.46577e-11
0.00664748
-0.000392814
2.46347e-10
0.00685803
0.000147615
4.36589e-10
0.00678454
9.38363e-10
0.00890429
0.00202815
1.2607e-09
3.86153e-12
0.00203421
1.86794e-09
5.45734e-12
0.00204083
3.12638e-09
5.73322e-12
0.00204403
4.49658e-09
5.35291e-12
0.00204997
6.01339e-09
8.09949e-12
0.00205971
6.76861e-09
1.27373e-11
0.00206264
9.8579e-09
5.61998e-12
0.00208432
7.97034e-09
2.53338e-11
0.00213588
-3.01882e-09
3.73317e-11
0.00216643
-1.26744e-07
3.24232e-11
0.0022749
1.90804e-07
-1.08905e-11
0.00236557
7.18636e-07
-1.47502e-11
0.0022959
5.67773e-06
-4.96379e-11
0.00114396
4.21362e-05
-2.26846e-10
-0.00591464
0.000517589
-1.68559e-09
-0.00430044
0.000948675
5.0198e-09
-0.00404536
0.000611076
-8.65804e-10
-0.00451053
0.000613592
-9.99307e-10
-0.00477405
0.000651001
-4.90635e-10
-0.00424289
0.000649901
-2.58213e-10
-0.00352989
0.000627617
-1.50101e-10
-0.00269328
0.000617577
-2.53194e-11
-0.00179884
0.000611505
2.31338e-11
-0.000934792
0.000623702
4.8656e-11
0.000682734
9.91112e-11
0.00202816
1.24406e-10
6.06473e-13
0.00203422
6.01736e-10
2.51552e-12
0.00204083
1.32184e-09
2.7261e-12
0.00204406
2.2057e-09
2.80578e-12
0.00204998
2.49859e-09
4.58724e-12
0.00205975
1.80596e-09
8.11217e-12
0.00206271
3.40418e-09
4.34454e-12
0.0020845
2.86118e-09
1.30341e-11
0.00213527
-1.75269e-08
2.4693e-11
0.00216588
-1.4698e-07
3.99592e-11
0.0022705
2.14551e-07
3.63737e-11
0.00237409
1.40863e-06
2.29518e-11
0.00232028
1.08266e-05
-5.90883e-13
0.00124605
7.67961e-05
-7.27628e-11
-0.00551225
0.000914151
-2.95859e-10
-0.00425265
0.00192801
3.1758e-12
-0.00401771
0.00125217
-1.74426e-09
-0.00446023
0.001215
-1.11631e-09
-0.0047287
0.00129808
-5.77387e-10
-0.00419933
0.00129934
-2.90321e-10
-0.00349211
0.00126278
-1.55323e-10
-0.00266307
0.00124376
-2.32376e-11
-0.0017784
0.0012308
2.4851e-11
-0.000923118
0.00125579
5.31215e-11
0.00137246
1.01931e-10
0.00202815
1.1367e-09
4.35775e-12
0.00203421
1.79534e-09
6.41853e-12
0.00204083
2.88664e-09
7.01616e-12
0.00204403
4.05821e-09
6.75368e-12
0.00205
6.26484e-09
1.29824e-11
0.0020597
9.19895e-09
2.38616e-11
0.00206255
1.47931e-08
2.13499e-11
0.00208458
1.56798e-08
1.94684e-11
0.00213492
4.69764e-08
6.46353e-11
0.00216489
1.4662e-07
1.60984e-10
0.00226185
-1.13991e-08
2.05871e-10
0.00239188
1.71391e-06
2.23724e-10
0.00237165
1.45707e-05
3.33025e-10
0.00142498
9.76201e-05
8.39655e-10
-0.00456925
0.00109446
1.01832e-08
-0.00420725
0.0030265
-1.19268e-08
-0.00396604
0.00189359
-1.09293e-09
-0.00435897
0.00181724
-8.1125e-10
-0.00463932
0.00193718
-7.09765e-10
-0.00411998
0.00195454
-3.79441e-10
-0.00342353
0.00191073
-1.83229e-10
-0.00260511
0.00188302
-2.1289e-11
-0.00173567
0.00186281
2.91828e-11
-0.000897692
0.00190373
6.22874e-11
0.00208076
1.07691e-10
0.00202816
-3.67583e-10
-1.34761e-12
0.00203422
-2.19682e-10
-2.37712e-13
0.00204083
-7.97076e-11
-1.27196e-13
0.00204406
2.08416e-10
4.28327e-13
0.00204997
2.31072e-10
8.03625e-13
0.00205974
4.58149e-10
1.63229e-12
0.00206274
5.98381e-10
7.49105e-12
0.00208449
1.06102e-08
1.09678e-12
0.00213527
2.61128e-09
1.12195e-11
0.0021666
4.12177e-07
4.74809e-11
0.00225513
-7.22577e-07
7.92149e-11
0.00242278
1.60159e-06
4.80241e-11
0.00243788
1.59003e-05
5.71285e-11
0.00162322
0.000102485
2.97833e-10
-0.00314884
0.00106047
3.71758e-09
-0.0041702
0.00416199
-6.10622e-09
-0.00389859
0.00255677
-1.62197e-09
-0.00419701
0.00242663
-6.44839e-10
-0.00450468
0.00258085
-5.55472e-10
-0.00400139
0.00261954
-2.7342e-10
-0.00332328
0.0025743
-1.37526e-10
-0.00252011
0.00253915
-7.55021e-12
-0.00166811
0.00250785
4.3718e-11
-0.000854935
0.00257013
7.81719e-11
0.00281708
1.19015e-10
0.00202815
6.11659e-10
5.39901e-12
0.00203421
9.48231e-10
6.91476e-12
0.00204083
1.31801e-09
7.50694e-12
0.00204403
1.99617e-09
7.22335e-12
0.00205
4.36751e-09
1.33004e-11
0.00205968
1.05077e-08
2.36859e-11
0.00206263
1.39709e-09
2.195e-11
0.00208415
6.48729e-08
7.9685e-12
0.00213595
-9.40539e-08
1.02005e-10
0.00217052
9.57834e-07
1.13114e-10
0.00224967
-1.55162e-06
1.52163e-10
0.00245587
2.26525e-06
1.96786e-10
0.00249612
1.45317e-05
3.43923e-10
0.00180153
9.16061e-05
1.26456e-09
-0.00192517
0.000878715
1.38119e-08
-0.00448435
0.00518018
-1.18213e-08
-0.00381229
0.0032483
2.60585e-10
-0.00398079
0.00302235
6.88504e-11
-0.004319
0.0032162
-3.44292e-10
-0.00385735
0.00328827
-4.37064e-11
-0.00318338
0.00325311
-2.12121e-11
-0.00240182
0.0032114
2.80245e-11
-0.00157088
0.00316923
7.06523e-11
-0.000793625
0.00325631
1.0003e-10
0.00358728
1.33069e-10
0.00202816
-1.933e-10
-2.58895e-12
0.00203421
-1.45713e-10
-2.71813e-12
0.00204083
-3.95762e-11
-3.05946e-12
0.00204405
3.63647e-10
-3.22862e-12
0.00204999
1.30798e-09
-6.7571e-12
0.00205981
4.85469e-09
-1.33998e-11
0.00206242
-4.63011e-09
-1.44891e-11
0.0020855
4.34404e-08
-5.53331e-12
0.00213216
-8.92567e-08
-3.11715e-11
0.00216655
5.1066e-07
-1.22265e-10
0.00224838
-1.40457e-06
-6.99174e-12
0.00247365
2.48652e-06
-7.83581e-11
0.00253361
8.61649e-06
-2.05215e-10
0.00207375
7.17256e-05
-2.82732e-10
-0.000654148
0.000636913
-2.43318e-09
-0.00514565
0.00550079
4.84501e-09
-0.00368118
0.0042734
2.72013e-09
-0.00370527
0.00360517
5.28899e-10
-0.00408186
0.00383235
3.80671e-10
-0.00368412
0.00395456
2.43215e-10
-0.00300967
0.00393605
8.21481e-11
-0.00224743
0.00390136
9.28372e-11
-0.00144074
0.00385224
1.12103e-10
-0.000707599
0.00395998
1.1906e-10
0.00440265
1.49565e-10
0.00202815
8.6978e-10
4.36962e-12
0.00203421
1.5423e-09
5.29293e-12
0.00204082
2.48728e-09
5.55519e-12
0.00204403
3.62611e-09
5.48326e-12
0.00205001
5.28234e-09
7.42099e-12
0.00205986
8.24355e-09
1.00065e-11
0.00206213
3.17e-09
1.02359e-11
0.00208624
3.39783e-08
2.18209e-11
0.00213221
-2.55554e-08
3.97204e-11
0.00214207
9.10494e-08
3.4681e-11
0.00224209
-9.23939e-07
5.96456e-11
0.00247376
1.76994e-06
2.70007e-11
0.00260697
4.7706e-07
1.61534e-11
0.00236792
5.30674e-05
-7.3238e-11
0.000263407
0.000452087
-1.66737e-09
-0.00529467
0.00479438
-6.42638e-09
-0.00355306
0.00574422
5.52749e-09
-0.00342062
0.00421648
1.14786e-09
-0.00378879
0.00440549
5.33256e-10
-0.00346738
0.00461115
3.39959e-10
-0.00280171
0.00461355
2.53898e-10
-0.00205111
0.00460413
1.62236e-10
-0.00126695
0.00455393
1.27729e-10
-0.000591352
0.00467793
1.5094e-10
0.00526171
1.68107e-10
0.00202815
6.01121e-10
-2.11564e-12
0.00203422
9.97125e-10
-2.67153e-12
0.00204083
1.83611e-09
-2.75298e-12
0.00204405
2.90632e-09
-2.38233e-12
0.00205004
3.63245e-09
-3.4613e-12
0.00205996
3.6915e-09
-5.22094e-12
0.00206208
6.17439e-09
-2.90956e-12
0.00208633
2.14381e-08
-1.34417e-11
0.00213321
5.8432e-09
-2.55418e-11
0.00213356
-2.07844e-08
-1.81978e-11
0.00223417
-1.211e-07
7.95948e-12
0.00245869
-7.39322e-07
7.60247e-12
0.00274687
-4.82343e-06
-6.09629e-12
0.00265152
4.23653e-05
-8.42536e-11
0.00131263
0.000315366
-7.5898e-10
-0.00485724
0.00335166
-4.17728e-09
-0.00342242
0.00762173
3.65751e-09
-0.0031222
0.00482779
4.81697e-10
-0.00341846
0.00492087
2.39413e-10
-0.00318983
0.00523569
2.99548e-10
-0.00254593
0.00528165
3.63215e-10
-0.00180381
0.00531338
2.91123e-10
-0.00104365
0.00528732
1.62135e-10
-0.000433579
0.00541397
1.38775e-10
0.00622178
1.86261e-10
0.00202815
3.74825e-10
1.12214e-12
0.00203422
6.14898e-10
3.00258e-12
0.00204084
9.04612e-10
3.28531e-12
0.00204403
1.10524e-09
4.81618e-12
0.00205007
9.32136e-10
6.45604e-12
0.00205997
-8.32805e-10
9.35815e-12
0.00206201
6.29531e-09
1.80411e-11
0.00208647
2.80593e-09
2.40766e-11
0.00213316
2.69964e-08
2.33952e-11
0.00213369
-9.82517e-08
7.55339e-11
0.00224044
2.42764e-07
1.67693e-10
0.00244682
-7.86157e-07
9.84941e-11
0.00284092
-4.37463e-06
1.46695e-10
0.0027524
3.14112e-05
-1.76284e-12
0.00184502
0.000205121
-4.87409e-10
-0.00210109
0.00179248
-2.48627e-09
-0.00326737
0.00973
6.3862e-10
-0.00286593
0.00537692
-2.15257e-11
-0.00297242
0.00536863
8.89599e-11
-0.00284703
0.00580375
3.32465e-10
-0.00224418
0.00594189
4.141e-10
-0.00149645
0.00600234
3.4476e-10
-0.000754532
0.00604857
2.18738e-10
-0.000185831
0.00612503
1.48398e-10
0.00743543
1.96743e-10
0.00202815
-2.49097e-12
-1.71097e-10
0.00203421
-2.93134e-12
-3.23783e-10
0.00204084
-2.9899e-12
-2.84423e-10
0.00204403
-2.3673e-12
-5.19213e-10
0.00205006
-3.5529e-12
-6.06523e-10
0.00205995
-5.5095e-12
-2.04607e-09
0.00206202
-3.06931e-14
3.81184e-09
0.00208635
-1.36984e-11
-1.06384e-08
0.0021327
-3.15856e-11
2.70287e-08
0.00213697
-8.37004e-12
-1.3789e-07
0.00224389
4.48202e-11
3.08481e-07
0.0024452
2.53245e-11
-1.84374e-07
0.00277493
9.66596e-11
-9.16226e-07
0.00277159
2.18168e-11
1.85401e-05
0.00223393
-2.86562e-10
0.000122598
-0.000248136
-1.10961e-09
0.000897452
-0.00363385
-3.45976e-10
0.0105524
-0.00268836
-2.43507e-10
0.00622825
-0.00248822
2.70396e-10
0.0057832
-0.00242707
3.66138e-10
0.00628388
-0.0018871
4.32142e-10
0.00655008
-0.00110866
3.98157e-10
0.00664741
-0.000392981
2.7514e-10
0.00685775
0.000147491
1.60971e-10
0.00678488
1.82838e-10
0.00890321
0.00202815
-2.83171e-10
6.08561e-13
0.00203421
-4.74183e-10
1.13804e-12
0.00204083
-7.83514e-10
1.26438e-12
0.00204406
-1.18042e-09
1.57699e-12
0.00204997
-1.77672e-09
2.17832e-12
0.00205977
-2.69377e-09
3.41415e-12
0.00206269
-1.78977e-09
7.77877e-12
0.00208427
-9.692e-09
6.50639e-12
0.00213567
-1.37778e-08
1.2515e-11
0.00216636
-1.085e-07
3.88249e-11
0.00227471
2.76289e-07
8.86412e-11
0.00236535
9.14848e-07
6.67267e-11
0.00229551
6.08948e-06
1.59295e-11
0.00114224
4.29942e-05
-2.12396e-10
-0.00591986
0.000520778
-8.76848e-10
-0.00430214
0.000947246
-1.01159e-10
-0.00404611
0.000609099
-1.63343e-10
-0.00451076
0.000612845
-1.11632e-10
-0.00477405
0.000650728
4.77787e-11
-0.00424277
0.000649786
1.48855e-10
-0.00352979
0.000627571
2.40871e-10
-0.0026932
0.000617551
2.80875e-10
-0.00179878
0.000611487
2.92001e-10
-0.00093476
0.000623688
2.95195e-10
0.000682716
3.19063e-10
0.00202815
-2.46667e-10
1.61916e-12
0.00203421
-3.84802e-10
2.82525e-12
0.00204083
-7.91256e-10
3.04526e-12
0.00204405
-1.3755e-09
3.45109e-12
0.00204996
-2.08783e-09
4.83678e-12
0.00205975
-3.10156e-09
7.36247e-12
0.00206269
-2.78578e-09
9.75639e-12
0.0020844
-7.55087e-09
1.55964e-11
0.00213504
-1.7775e-08
2.56005e-11
0.00216566
-9.52357e-08
4.47082e-11
0.00227026
3.38767e-07
6.61484e-11
0.00237384
1.65317e-06
5.33142e-11
0.00232006
1.13813e-05
2.41044e-11
0.00124515
7.79443e-05
-4.2682e-11
-0.00551646
0.000918517
-1.63323e-10
-0.00425474
0.00192693
-1.23399e-10
-0.00401788
0.00124806
-8.28934e-11
-0.00446012
0.00121405
-9.69007e-11
-0.00472859
0.00129769
2.07344e-11
-0.00419915
0.00129917
1.36433e-10
-0.003492
0.00126273
2.31667e-10
-0.00266298
0.00124373
2.71529e-10
-0.00177834
0.00123078
2.82704e-10
-0.000923086
0.00125576
2.86388e-10
0.00137242
3.05506e-10
0.00202815
-3.36619e-10
6.1224e-13
0.00203421
-6.597e-10
9.87385e-13
0.00204083
-1.12922e-09
1.05158e-12
0.00204406
-1.64273e-09
1.02475e-12
0.00204995
-2.41378e-09
1.61747e-12
0.00205974
-3.8354e-09
2.64066e-12
0.00206267
-1.38796e-09
1.00557e-12
0.00208453
-1.00032e-08
5.0692e-12
0.00213476
5.24906e-09
7.32434e-12
0.00216516
8.22785e-08
9.69176e-12
0.00226235
-6.65263e-08
2.10211e-11
0.00239233
1.62921e-06
2.87535e-11
0.00237286
1.44403e-05
4.61619e-11
0.00143034
9.72662e-05
7.48297e-11
-0.00454263
0.00109109
-2.69928e-10
-0.00420173
0.0030318
5.41199e-10
-0.00396425
0.00189411
1.87482e-10
-0.00435804
0.00181713
-1.17548e-10
-0.00463885
0.00193737
-5.37096e-11
-0.00411968
0.00195458
9.41454e-11
-0.0034234
0.00191074
1.99636e-10
-0.00260501
0.001883
2.52061e-10
-0.00173561
0.00186278
2.66215e-10
-0.000897661
0.0019037
2.74411e-10
0.00208071
2.62746e-10
0.00202815
6.84351e-10
2.10549e-12
0.00203421
9.26522e-10
3.12179e-12
0.00204082
1.46156e-09
3.28356e-12
0.00204403
1.95032e-09
3.09985e-12
0.00204993
2.26191e-09
4.72734e-12
0.00205968
1.41556e-09
7.8006e-12
0.00206268
-1.16292e-09
1.46897e-12
0.00208442
4.47792e-09
1.66599e-11
0.00213517
-2.00227e-08
1.99265e-11
0.00216645
3.48128e-07
1.75919e-11
0.00225501
-8.44542e-07
5.44502e-11
0.0024229
1.37087e-06
8.88449e-11
0.00243863
1.54934e-05
1.44959e-10
0.00162469
0.000102174
2.44717e-11
-0.00314491
0.00106053
-2.51448e-09
-0.0041707
0.00416023
2.32613e-09
-0.00389689
0.00255761
5.39366e-11
-0.00419585
0.00242782
-1.96645e-10
-0.0045042
0.00258163
-1.40605e-10
-0.00400111
0.00261979
-1.9831e-11
-0.0033231
0.00257441
1.39864e-10
-0.00252001
0.00253918
2.23321e-10
-0.00166806
0.00250785
2.4485e-10
-0.000854907
0.00257009
2.58748e-10
0.00281702
2.29141e-10
0.00202816
-2.88798e-10
-5.06227e-13
0.00203421
-2.07925e-10
2.78381e-13
0.00204083
-1.63014e-11
3.23889e-13
0.00204406
1.71287e-10
3.05376e-13
0.00204996
-2.59808e-10
8.33841e-13
0.00205973
-9.9863e-10
1.97169e-12
0.00206278
-1.69258e-08
9.37809e-13
0.00208407
3.60569e-08
1.20498e-12
0.00213603
-1.87833e-07
1.3051e-11
0.00217106
7.35145e-07
7.07987e-12
0.00225032
-1.83781e-06
4.91991e-11
0.00245664
1.677e-06
3.37497e-11
0.00249782
1.36477e-05
-1.04339e-11
0.00180744
9.016e-05
-3.21606e-10
-0.00189869
0.000870815
-3.777e-09
-0.00447755
0.00518441
4.45318e-09
-0.00381024
0.00326033
-1.9805e-09
-0.00397997
0.00302517
-9.41143e-10
-0.00431866
0.00321718
-4.18129e-10
-0.00385718
0.00328871
-1.78296e-10
-0.00318323
0.00325331
6.93427e-11
-0.00240173
0.00321146
1.79752e-10
-0.00157083
0.00316924
2.16656e-10
-0.000793606
0.00325627
2.39469e-10
0.00358723
2.17934e-10
0.00202815
-1.0514e-10
3.45852e-12
0.00203421
-5.51312e-10
5.0716e-12
0.00204083
-1.29178e-09
5.6531e-12
0.00204405
-2.04464e-09
5.86802e-12
0.00205004
-2.06793e-09
1.16056e-11
0.00205982
5.94003e-10
2.22044e-11
0.00206233
-1.09833e-08
2.17198e-11
0.00208544
3.39111e-08
1.15063e-11
0.00213205
-9.38953e-08
8.33238e-11
0.00216743
5.56059e-07
1.69287e-10
0.00224743
-1.40248e-06
1.16206e-10
0.00247322
2.60135e-06
1.92355e-10
0.00253164
8.77365e-06
3.50243e-10
0.00206848
7.20031e-05
6.88762e-10
-0.000664952
0.000638415
5.06477e-09
-0.00515017
0.00549513
-3.48516e-09
-0.00368332
0.00427141
-5.40041e-09
-0.00370608
0.0036058
-1.17767e-09
-0.00408206
0.0038328
-8.83476e-10
-0.00368415
0.00395493
-2.80522e-10
-0.00300963
0.00393622
4.33978e-12
-0.0022474
0.00390142
1.25452e-10
-0.00144073
0.00385225
1.85307e-10
-0.000707594
0.00395994
2.17483e-10
0.00440258
2.04609e-10
0.00202816
-1.23482e-09
-4.55517e-13
0.00203422
-1.94605e-09
4.90848e-13
0.00204083
-3.20862e-09
5.51755e-13
0.00204406
-4.4938e-09
5.88037e-13
0.00205002
-5.9021e-09
1.10127e-12
0.00205991
-5.69872e-09
1.80113e-12
0.00206219
-1.44731e-08
1.83878e-12
0.00208622
7.99273e-09
1.99451e-12
0.00213219
-5.63909e-08
8.15513e-12
0.00214242
1.14541e-07
1.9493e-11
0.00224213
-8.76334e-07
1.57156e-11
0.00247374
2.02059e-06
2.52649e-11
0.00260594
9.19053e-07
6.96879e-11
0.00236609
5.35462e-05
3.28982e-10
0.000259676
0.000453182
2.15846e-09
-0.00529371
0.00480043
7.5119e-09
-0.00355501
0.00573956
-5.02082e-09
-0.0034217
0.00421576
-1.1231e-09
-0.00378917
0.00440567
-6.90789e-10
-0.0034675
0.00461131
-2.78683e-10
-0.00280175
0.00461364
-3.52977e-11
-0.00205113
0.00460414
5.94385e-11
-0.00126696
0.00455391
1.61999e-10
-0.00059136
0.00467787
1.94896e-10
0.00526163
1.92028e-10
0.00202815
2.42722e-10
4.03727e-12
0.00203421
4.43445e-10
5.91367e-12
0.00204083
3.96928e-10
6.22763e-12
0.00204402
2.09625e-10
6.06658e-12
0.00205003
-4.52615e-10
8.79711e-12
0.0020599
-1.68463e-09
1.3332e-11
0.00206204
-1.93553e-09
1.07031e-11
0.00208637
9.60731e-09
2.86175e-11
0.00213329
-1.19406e-08
5.90743e-11
0.00213358
-2.07351e-08
5.33613e-11
0.00223426
-1.12844e-07
4.26591e-11
0.00245896
-6.46591e-07
4.59008e-11
0.00274732
-4.6391e-06
5.1538e-11
0.0026519
4.26427e-05
9.662e-11
0.00131294
0.00031592
3.58833e-10
-0.00485478
0.00335429
-2.1365e-11
-0.0034229
0.00761943
-2.04183e-10
-0.00312285
0.00482737
-5.50129e-10
-0.00341875
0.00492094
-3.7261e-10
-0.00318999
0.0052357
-1.76468e-10
-0.00254603
0.00528163
-7.43522e-11
-0.00180386
0.00531335
3.10755e-11
-0.00104368
0.00528727
1.36487e-10
-0.000433599
0.0054139
1.7725e-10
0.00622169
1.89921e-10
0.00202815
-1.60738e-11
3.69957e-13
0.00203422
-2.34669e-10
5.09716e-13
0.00204084
-2.805e-10
5.55523e-13
0.00204403
-3.8675e-10
5.65041e-13
0.00205005
-1.29369e-09
8.65878e-13
0.00205994
-4.40695e-09
1.85153e-12
0.00206199
1.89209e-09
-2.84123e-13
0.00208645
-4.01054e-09
1.10097e-12
0.00213307
1.02875e-08
9.45893e-12
0.00213339
-1.24479e-07
3.31273e-12
0.00224029
2.20747e-07
-6.04349e-12
0.00244649
-7.92477e-07
-7.22816e-12
0.00284073
-4.354e-06
-5.53564e-11
0.00275249
3.14507e-05
-1.91104e-11
0.00184535
0.000205229
7.63382e-11
-0.00210097
0.00179334
-6.98623e-11
-0.00326732
0.00972977
-1.99464e-11
-0.00286608
0.00537662
-1.05435e-10
-0.00297258
0.00536868
-1.76211e-10
-0.00284718
0.00580374
-1.78982e-10
-0.00224428
0.00594183
-9.70373e-11
-0.00149653
0.00600226
1.94706e-11
-0.000754581
0.00604849
1.10827e-10
-0.000185865
0.00612495
1.61625e-10
0.0074353
1.95524e-10
0.00202815
3.9615e-12
1.26006e-09
0.00203421
5.84293e-12
1.93285e-09
0.00204083
6.15905e-12
3.24246e-09
0.002044
6.05542e-12
4.36435e-09
0.00205005
8.79157e-12
5.76037e-09
0.00205988
1.35466e-11
5.07987e-09
0.00206196
1.1142e-11
1.39449e-08
0.00208642
2.6287e-11
3.5893e-09
0.00213276
6.14258e-11
3.28595e-08
0.00213679
5.47767e-11
-1.59578e-07
0.00224396
4.55283e-11
2.24861e-07
0.0024454
4.812e-11
-3.55482e-07
0.00277553
2.39885e-11
-1.31224e-06
0.00277242
1.29861e-11
1.81889e-05
0.00223496
8.79453e-11
0.000122335
-0.000246879
-2.12543e-11
0.000897664
-0.00363321
-1.71886e-10
0.0105566
-0.00268798
2.92643e-10
0.00622908
-0.00248827
-3.83078e-10
0.00578356
-0.00242721
-2.98482e-10
0.00628394
-0.00188722
-1.37328e-10
0.00655001
-0.00110876
-7.60518e-12
0.00664729
-0.000393049
6.96549e-11
0.00685763
0.000147456
1.41143e-10
0.00678478
1.73626e-10
0.00890305
0.00202815
-4.80621e-13
5.90694e-13
0.00203421
-8.37189e-12
1.14773e-12
0.00204082
-1.6088e-11
1.21743e-12
0.00204405
-4.82375e-11
1.4982e-12
0.00204996
-1.38766e-10
1.60521e-12
0.00205975
-5.14488e-10
1.88403e-12
0.00206268
9.85332e-10
3.80887e-12
0.00208425
-3.73998e-09
6.60163e-12
0.00213561
-7.07935e-09
4.72299e-12
0.00216625
-1.05869e-07
6.33447e-12
0.00227463
2.61185e-07
1.00876e-11
0.00236522
8.7644e-07
3.0268e-11
0.00229541
6.00275e-06
6.70718e-11
0.0011422
4.29135e-05
1.99244e-10
-0.00591994
0.000521119
8.71471e-10
-0.00430197
0.000947519
-5.07528e-10
-0.00404595
0.000609124
-1.1333e-10
-0.00451071
0.000612899
-1.60941e-10
-0.00477407
0.000650736
-2.2899e-10
-0.00424277
0.000649769
-8.88292e-11
-0.00352981
0.000627557
-7.74516e-11
-0.00269321
0.000617544
-2.14289e-11
-0.00179879
0.000611482
-3.02761e-11
-0.000934765
0.000623685
-8.99334e-11
0.000682713
-1.28637e-10
0.00202815
-4.19347e-12
5.99731e-13
0.00203421
-2.47318e-11
1.07285e-12
0.00204082
-3.81176e-11
1.1265e-12
0.00204405
-8.78253e-11
1.41959e-12
0.00204995
-1.72743e-10
1.36497e-12
0.00205974
-5.33282e-10
1.14959e-12
0.00206269
3.31997e-10
3.67768e-12
0.00208437
-1.41056e-09
5.78665e-12
0.00213497
-9.00693e-09
4.51063e-12
0.00216558
-1.03134e-07
6.15568e-12
0.00227018
3.0676e-07
9.73771e-12
0.00237381
1.59652e-06
2.67898e-11
0.0023201
1.12985e-05
4.91665e-11
0.00124518
7.79236e-05
1.18203e-10
-0.00551631
0.0009186
3.93846e-10
-0.00425448
0.00192767
3.93586e-11
-0.00401773
0.00124823
-1.3563e-10
-0.0044601
0.00121408
-1.99194e-10
-0.0047286
0.00129765
-2.4177e-10
-0.00419915
0.00129912
-9.24883e-11
-0.00349201
0.0012627
-7.31948e-11
-0.00266299
0.00124371
-2.31185e-11
-0.00177835
0.00123077
-4.54718e-11
-0.000923091
0.00125575
-1.13302e-10
0.00137242
-2.32872e-10
0.00202815
-9.49648e-12
5.01427e-13
0.00203421
-2.97568e-11
1.00636e-12
0.00204082
-4.75048e-11
1.0821e-12
0.00204405
-1.02216e-10
1.20825e-12
0.00204995
-2.33313e-10
1.64967e-12
0.00205974
-7.98364e-10
2.3997e-12
0.00206266
1.73259e-09
3.55386e-12
0.00208452
-2.76031e-09
5.37646e-12
0.00213473
1.40239e-08
7.66718e-12
0.00216511
8.42704e-08
1.23138e-11
0.00226228
-7.25563e-08
1.61269e-11
0.00239226
1.61702e-06
2.56803e-11
0.00237277
1.44468e-05
5.27999e-11
0.00143007
9.73528e-05
1.4104e-10
-0.00454394
0.00109096
6.16266e-10
-0.00420178
0.00303218
-2.58293e-11
-0.00396444
0.0018944
-1.91542e-10
-0.00435815
0.00181698
-2.67283e-10
-0.00463883
0.00193715
-2.34581e-10
-0.00411967
0.00195448
-8.27628e-11
-0.00342341
0.00191068
-4.89912e-11
-0.00260501
0.00188297
-9.45403e-12
-0.00173561
0.00186276
-4.81758e-11
-0.000897664
0.00190368
-1.17802e-10
0.0020807
-5.18777e-10
0.00202815
-1.10129e-11
2.56956e-13
0.00203421
-8.24995e-12
5.81813e-13
0.00204082
-6.61612e-12
6.29376e-13
0.00204405
8.62097e-12
8.28218e-13
0.00204994
6.64955e-11
1.23278e-12
0.00205972
2.61787e-10
1.70566e-12
0.00206271
-4.86869e-10
3.25384e-12
0.00208438
6.69621e-09
3.18424e-12
0.00213504
3.21819e-09
5.13543e-12