/*--------------------------------*- C++ -*----------------------------------*\
| =========                 |                                                 |
| \\      /  F ield         | OpenFOAM: The Open Source CFD Toolbox           |
|  \\    /   O peration     | Version:  4.1                                   |
|   \\  /    A nd           | Web:      www.OpenFOAM.org                      |
|    \\/     M anipulation  |                                                 |
\*---------------------------------------------------------------------------*/
FoamFile
{
    version     2.0;
    format      ascii;
    class       volScalarField;
    location    "0.3";
    object      T;
}
// * * * * * * * * * * * * * * * * * * * * * * * * * * * * * * * * * * * * * //

dimensions      [0 0 0 1 0 0 0];

internalField   nonuniform List<scalar> 
52500
(
0.339621
0.320325
0.32148
0.322947
0.326088
0.329376
0.33625
0.348881
0.361997
0.394675
0.45004
0.488621
0.57696
0.813329
1.39678
1.57962
1.71028
1.74814
1.70449
1.68478
1.69458
1.6954
1.68832
1.67591
1.56675
0.339621
0.320325
0.321481
0.322948
0.326089
0.329378
0.336253
0.348888
0.362024
0.394702
0.45001
0.487195
0.572757
0.802743
1.37629
1.5809
1.70477
1.74976
1.70434
1.68447
1.69302
1.69406
1.68745
1.6758
1.56507
0.339622
0.320325
0.321481
0.322949
0.32609
0.329379
0.336257
0.348887
0.362044
0.394632
0.450116
0.484542
0.563982
0.77887
1.3239
1.5858
1.6929
1.74787
1.70326
1.68172
1.6894
1.69076
1.68521
1.67458
1.56162
0.339623
0.320326
0.321483
0.322952
0.326093
0.329383
0.336265
0.348882
0.362045
0.394208
0.45059
0.481488
0.552682
0.746609
1.24213
1.58843
1.67007
1.7428
1.69938
1.67494
1.68127
1.68356
1.6799
1.67059
1.55461
0.339622
0.320326
0.321482
0.322953
0.326092
0.329384
0.336272
0.348855
0.361998
0.393298
0.451663
0.478615
0.539941
0.708368
1.1398
1.58087
1.6378
1.7346
1.69512
1.66722
1.66962
1.67423
1.67246
1.66425
1.54704
0.339625
0.320329
0.321482
0.322955
0.32609
0.329382
0.336317
0.348758
0.362157
0.392325
0.453468
0.476784
0.527311
0.667036
1.01939
1.55836
1.60576
1.72555
1.68996
1.6573
1.65345
1.65957
1.65941
1.65618
1.53489
0.339624
0.320329
0.321482
0.322958
0.326089
0.329382
0.336338
0.348677
0.362226
0.392141
0.454264
0.475568
0.514909
0.627823
0.919506
1.48719
1.58385
1.70773
1.68554
1.64561
1.63562
1.64414
1.64586
1.64635
1.51762
0.339624
0.320327
0.321483
0.32296
0.326093
0.329387
0.336335
0.348647
0.362239
0.392168
0.454645
0.475137
0.504323
0.595374
0.829481
1.35757
1.57111
1.68403
1.67931
1.63328
1.61663
1.62555
1.62852
1.63385
1.5053
0.339625
0.32033
0.32148
0.322962
0.326089
0.329381
0.336362
0.348646
0.362272
0.392425
0.455026
0.47567
0.501017
0.572764
0.747121
1.15797
1.55737
1.64813
1.66624
1.62082
1.60084
1.60167
1.59915
1.61756
1.46622
0.339625
0.320331
0.32148
0.322965
0.326091
0.329383
0.336369
0.348675
0.362253
0.392546
0.455106
0.475157
0.501526
0.555144
0.678539
0.975833
1.51744
1.59301
1.65008
1.60872
1.58376
1.57715
1.56204
1.59317
1.42318
0.339625
0.320328
0.321483
0.322955
0.326094
0.329385
0.33627
0.348885
0.361989
0.394671
0.449934
0.488567
0.577006
0.813561
1.39725
1.57972
1.71031
1.74809
1.70445
1.68476
1.69456
1.69538
1.6883
1.67587
1.56679
0.339623
0.320326
0.321481
0.32295
0.32609
0.32938
0.33626
0.34888
0.362009
0.394686
0.449955
0.487158
0.572758
0.802852
1.37636
1.58075
1.70477
1.74974
1.7043
1.68444
1.69301
1.69405
1.68744
1.67577
1.5651
0.339625
0.320329
0.321483
0.322957
0.326092
0.329384
0.336291
0.34889
0.362053
0.394733
0.450272
0.484671
0.564149
0.779277
1.3254
1.58603
1.69312
1.74777
1.70321
1.68169
1.6894
1.69076
1.68518
1.67452
1.56167
0.339621
0.320325
0.32148
0.322947
0.326088
0.329377
0.336253
0.34887
0.362034
0.394215
0.450572
0.481491
0.552748
0.746825
1.2425
1.58808
1.67009
1.74275
1.69935
1.67493
1.68126
1.68352
1.67981
1.67048
1.55475
0.339624
0.320328
0.321483
0.322956
0.326091
0.329384
0.336289
0.34886
0.362021
0.393432
0.451826
0.478801
0.540228
0.708966
1.14207
1.58117
1.63838
1.73459
1.69507
1.66722
1.66965
1.67419
1.67235
1.66411
1.5472
0.339621
0.320324
0.32148
0.322948
0.326086
0.329375
0.336279
0.348729
0.362108
0.392168
0.45327
0.476663
0.527171
0.666826
1.01891
1.55801
1.60593
1.72562
1.68995
1.65733
1.65348
1.65952
1.6593
1.65603
1.53504
0.339624
0.320327
0.321482
0.322953
0.32609
0.32938
0.336306
0.348673
0.362203
0.392029
0.454091
0.475458
0.514751
0.62756
0.918982
1.48624
1.58344
1.70779
1.68563
1.64564
1.63566
1.64411
1.64576
1.64617
1.51777
0.339622
0.320325
0.321479
0.322948
0.326084
0.329373
0.336296
0.348648
0.362242
0.392176
0.454671
0.47518
0.504463
0.595528
0.829515
1.35791
1.57091
1.68414
1.67941
1.63332
1.61665
1.62553
1.62846
1.63366
1.50544
0.339622
0.320326
0.321478
0.322952
0.326087
0.329374
0.336315
0.348644
0.362247
0.392323
0.45487
0.475553
0.500897
0.572598
0.746861
1.15761
1.55745
1.64833
1.66633
1.62086
1.60086
1.60167
1.59912
1.61736
1.46634
0.339621
0.320325
0.321477
0.32295
0.326085
0.329371
0.336308
0.348656
0.362209
0.392415
0.454927
0.475051
0.501476
0.555022
0.678236
0.975325
1.51727
1.59309
1.65034
1.60877
1.58377
1.57713
1.56203
1.593
1.42329
0.339621
0.320325
0.32148
0.322947
0.326087
0.329376
0.336249
0.348873
0.361984
0.394664
0.449977
0.488613
0.577057
0.81362
1.39736
1.57966
1.71044
1.74813
1.70446
1.68477
1.69457
1.69539
1.6883
1.67587
1.56679
0.339622
0.320325
0.321481
0.322948
0.326089
0.329377
0.336251
0.348881
0.362014
0.394688
0.449959
0.487185
0.572804
0.802856
1.37642
1.58093
1.70486
1.74977
1.70433
1.68445
1.69302
1.69406
1.68744
1.67577
1.5651
0.339621
0.320325
0.32148
0.322947
0.326087
0.329375
0.336248
0.348875
0.36203
0.394611
0.45007
0.48454
0.564038
0.778979
1.32405
1.58584
1.69304
1.7479
1.70325
1.68171
1.6894
1.69076
1.68518
1.67452
1.56166
0.339622
0.320326
0.321482
0.322951
0.326091
0.329381
0.336258
0.348871
0.362032
0.394197
0.45055
0.481478
0.552714
0.746686
1.24223
1.5883
1.67003
1.74283
1.69939
1.67495
1.68127
1.68353
1.67981
1.67047
1.55474
0.33962
0.320324
0.32148
0.322946
0.326086
0.329375
0.336247
0.348844
0.361988
0.393294
0.45164
0.478651
0.540051
0.708547
1.14017
1.58075
1.63792
1.73465
1.69512
1.66724
1.66964
1.67419
1.67235
1.6641
1.54719
0.339623
0.320328
0.321481
0.322952
0.326087
0.329377
0.336307
0.348748
0.362144
0.392328
0.453455
0.476794
0.527382
0.66717
1.01967
1.55858
1.60606
1.7256
1.68995
1.65732
1.65347
1.65951
1.6593
1.65602
1.53504
0.33962
0.320324
0.321479
0.322946
0.326083
0.329371
0.336288
0.348656
0.36218
0.392007
0.45407
0.475441
0.514787
0.627669
0.919234
1.48669
1.58368
1.7078
1.68558
1.64563
1.63565
1.6441
1.64575
1.64616
1.51776
0.339624
0.320327
0.321482
0.322954
0.326089
0.32938
0.33631
0.348657
0.362247
0.392168
0.454651
0.475154
0.504411
0.595495
0.829617
1.35809
1.571
1.68414
1.67937
1.6333
1.61664
1.62552
1.62845
1.63365
1.50543
0.339621
0.320324
0.321476
0.322949
0.326082
0.329369
0.336306
0.348626
0.362228
0.392287
0.454806
0.475544
0.500909
0.572639
0.746935
1.15764
1.5574
1.64835
1.66632
1.62085
1.60085
1.60165
1.59912
1.61735
1.46634
0.339623
0.320327
0.32148
0.322956
0.32609
0.329379
0.336323
0.348663
0.362214
0.392397
0.454878
0.475028
0.501406
0.554965
0.678259
0.975443
1.51718
1.5931
1.65034
1.60875
1.58375
1.57711
1.56202
1.59298
1.42328
0.339621
0.320324
0.32148
0.322946
0.326086
0.329374
0.336245
0.348866
0.361974
0.394648
0.449943
0.488605
0.577081
0.813655
1.39735
1.57965
1.71046
1.74814
1.70446
1.68476
1.69456
1.69538
1.68829
1.67586
1.56678
0.339621
0.320324
0.32148
0.322946
0.326086
0.329374
0.336244
0.34887
0.362002
0.394669
0.449943
0.487181
0.572813
0.802869
1.37639
1.5809
1.70487
1.74978
1.70433
1.68444
1.69301
1.69405
1.68743
1.67576
1.56509
0.339621
0.320324
0.32148
0.322946
0.326086
0.329374
0.336246
0.348871
0.362025
0.394607
0.450065
0.484533
0.56403
0.778978
1.32411
1.58584
1.69302
1.74791
1.70325
1.68171
1.6894
1.69075
1.68517
1.67451
1.56166
0.339621
0.320324
0.32148
0.322946
0.326087
0.329374
0.336245
0.348866
0.36203
0.394202
0.450531
0.481485
0.552763
0.746794
1.24253
1.58819
1.67009
1.74284
1.6994
1.67495
1.68126
1.68352
1.6798
1.67046
1.55473
0.339621
0.320324
0.32148
0.322946
0.326086
0.329374
0.336244
0.348848
0.361994
0.393314
0.45162
0.478666
0.540109
0.708659
1.14067
1.581
1.63822
1.73472
1.69511
1.66724
1.66964
1.67418
1.67234
1.6641
1.54718
0.339621
0.320324
0.32148
0.322946
0.326085
0.329373
0.336271
0.348734
0.362109
0.392175
0.453254
0.476661
0.527193
0.666813
1.01878
1.55798
1.60588
1.7257
1.68999
1.65733
1.65347
1.65951
1.65929
1.65601
1.53503
0.339621
0.320324
0.321479
0.322946
0.326083
0.329371
0.336286
0.34866
0.362188
0.392012
0.454078
0.47547
0.514796
0.62761
0.91899
1.48634
1.58352
1.70785
1.68564
1.64564
1.63565
1.6441
1.64575
1.64615
1.51775
0.339621
0.320324
0.321478
0.322946
0.326082
0.32937
0.336289
0.348641
0.362231
0.392159
0.454662
0.475177
0.50446
0.595539
0.82959
1.35818
1.57098
1.68421
1.67941
1.63331
1.61664
1.62552
1.62845
1.63365
1.50542
0.33962
0.320324
0.321476
0.322948
0.326082
0.329369
0.336304
0.348626
0.362225
0.392283
0.454822
0.475552
0.500907
0.572626
0.74692
1.15771
1.55747
1.64838
1.66634
1.62086
1.60085
1.60165
1.59911
1.61734
1.46633
0.33962
0.320324
0.321476
0.322949
0.326083
0.329369
0.336302
0.348649
0.362198
0.392386
0.454891
0.475048
0.501471
0.555025
0.678269
0.975396
1.51722
1.59312
1.65036
1.60877
1.58376
1.57711
1.56202
1.59298
1.42327
0.33962
0.320324
0.321479
0.322945
0.326084
0.329372
0.336244
0.348862
0.361968
0.394639
0.449942
0.488599
0.577063
0.813627
1.39735
1.57966
1.7104
1.74813
1.70447
1.68477
1.69456
1.69537
1.68829
1.67586
1.56678
0.33962
0.320324
0.321479
0.322945
0.326085
0.329372
0.336244
0.348865
0.361995
0.394661
0.44994
0.487175
0.572802
0.802857
1.37643
1.58091
1.70482
1.74977
1.70433
1.68445
1.693
1.69403
1.68742
1.67575
1.56511
0.33962
0.320324
0.321479
0.322945
0.326085
0.329373
0.336243
0.348868
0.362022
0.394601
0.450059
0.48453
0.564026
0.778961
1.32407
1.58583
1.693
1.7479
1.70325
1.68171
1.68939
1.69074
1.68518
1.67454
1.56166
0.33962
0.320324
0.321479
0.322945
0.326086
0.329373
0.336243
0.348863
0.362027
0.394197
0.450526
0.481484
0.55276
0.746775
1.24247
1.5882
1.67011
1.74285
1.69939
1.67494
1.68126
1.68355
1.67989
1.67057
1.55459
0.33962
0.320324
0.321479
0.322945
0.326085
0.329373
0.336244
0.348843
0.361988
0.393302
0.451622
0.478666
0.540098
0.708634
1.14062
1.58101
1.6382
1.7347
1.69511
1.66723
1.66964
1.67425
1.67247
1.66425
1.54699
0.33962
0.320324
0.321479
0.322946
0.326084
0.329372
0.336271
0.34873
0.362105
0.392168
0.453257
0.476665
0.527183
0.666789
1.01875
1.55798
1.60584
1.72568
1.68999
1.65733
1.65347
1.65957
1.65941
1.65617
1.53491
0.33962
0.320324
0.321478
0.322946
0.326082
0.32937
0.336285
0.348656
0.362184
0.392007
0.454086
0.475479
0.514786
0.627586
0.918967
1.48635
1.58349
1.7078
1.68563
1.64563
1.63564
1.64413
1.64582
1.64628
1.5177
0.33962
0.320324
0.321478
0.322946
0.326082
0.32937
0.336288
0.348641
0.362231
0.392161
0.454668
0.475183
0.504458
0.59552
0.829529
1.35806
1.57096
1.68416
1.67939
1.6333
1.61663
1.62552
1.62846
1.6337
1.50539
0.33962
0.320324
0.321476
0.322948
0.326082
0.329368
0.336305
0.348626
0.362225
0.392286
0.454837
0.475555
0.500895
0.572601
0.746887
1.15768
1.55747
1.64833
1.66632
1.62085
1.60085
1.60165
1.5991
1.61735
1.46633
0.33962
0.320324
0.321476
0.322949
0.326082
0.329368
0.336304
0.348648
0.362197
0.392387
0.454892
0.475038
0.501447
0.555001
0.678257
0.975401
1.51726
1.59307
1.65033
1.60876
1.58376
1.57711
1.562
1.59296
1.42328
0.339621
0.320324
0.32148
0.322946
0.326086
0.329374
0.336246
0.348865
0.361974
0.394648
0.449944
0.488606
0.577081
0.813655
1.39736
1.57966
1.71046
1.74814
1.70446
1.68476
1.69456
1.69538
1.68829
1.67586
1.56678
0.339621
0.320324
0.32148
0.322946
0.326086
0.329374
0.336244
0.34887
0.362002
0.394669
0.449943
0.487181
0.572814
0.80287
1.3764
1.58091
1.70488
1.74979
1.70433
1.68444
1.69301
1.69405
1.68743
1.67576
1.56509
0.339621
0.320324
0.32148
0.322946
0.326086
0.329374
0.336246
0.348871
0.362026
0.394607
0.450066
0.484534
0.564031
0.778979
1.32411
1.58584
1.69302
1.74791
1.70325
1.68171
1.6894
1.69075
1.68517
1.67451
1.56166
0.339621
0.320324
0.32148
0.322946
0.326087
0.329375
0.336244
0.348867
0.362031
0.394201
0.450535
0.481488
0.552765
0.746795
1.24253
1.58819
1.6701
1.74285
1.6994
1.67495
1.68127
1.68352
1.6798
1.67047
1.55474
0.339621
0.320324
0.32148
0.322946
0.326086
0.329375
0.336244
0.348848
0.361995
0.393312
0.451625
0.47867
0.54011
0.708655
1.14065
1.581
1.63822
1.73471
1.69512
1.66724
1.66964
1.67418
1.67234
1.6641
1.54718
0.339621
0.320324
0.32148
0.322946
0.326085
0.329373
0.336271
0.348735
0.36211
0.392176
0.453261
0.476668
0.527195
0.666807
1.01875
1.55796
1.60588
1.72571
1.69
1.65734
1.65348
1.65951
1.65929
1.65601
1.53503
0.339621
0.320324
0.321479
0.322946
0.326084
0.329371
0.336286
0.348661
0.362189
0.392015
0.454089
0.475479
0.514799
0.627605
0.918969
1.48631
1.58352
1.70785
1.68564
1.64564
1.63565
1.6441
1.64575
1.64615
1.51776
0.339621
0.320324
0.321478
0.322947
0.326083
0.329371
0.33629
0.348642
0.362234
0.392166
0.454673
0.475181
0.504462
0.595535
0.829559
1.3581
1.57097
1.6842
1.67942
1.63331
1.61664
1.62552
1.62845
1.63365
1.50543
0.33962
0.320324
0.321477
0.322949
0.326083
0.32937
0.336306
0.34863
0.362231
0.392294
0.454842
0.475556
0.500908
0.572619
0.746895
1.15767
1.55746
1.64836
1.66633
1.62086
1.60085
1.60166
1.59912
1.61735
1.46633
0.33962
0.320325
0.321476
0.322949
0.326084
0.32937
0.336304
0.348652
0.362202
0.392395
0.454898
0.47504
0.501462
0.555016
0.678258
0.975382
1.51723
1.5931
1.65035
1.60876
1.58376
1.57712
1.56202
1.59298
1.42328
0.339621
0.320324
0.32148
0.322946
0.326086
0.329374
0.336245
0.348866
0.361974
0.394648
0.449943
0.488605
0.577081
0.813655
1.39735
1.57965
1.71046
1.74814
1.70446
1.68476
1.69456
1.69538
1.68829
1.67586
1.56678
0.339621
0.320324
0.32148
0.322946
0.326086
0.329374
0.336244
0.34887
0.362002
0.394669
0.449943
0.487181
0.572813
0.802869
1.37639
1.5809
1.70487
1.74978
1.70433
1.68444
1.69301
1.69405
1.68743
1.67576
1.56509
0.339621
0.320324
0.32148
0.322946
0.326086
0.329374
0.336246
0.348871
0.362025
0.394607
0.450065
0.484533
0.56403
0.778978
1.32411
1.58584
1.69302
1.74791
1.70325
1.68171
1.6894
1.69075
1.68517
1.67451
1.56166
0.339621
0.320324
0.32148
0.322946
0.326087
0.329374
0.336245
0.348866
0.36203
0.394202
0.450532
0.481485
0.552763
0.746794
1.24253
1.58819
1.67009
1.74284
1.6994
1.67495
1.68126
1.68352
1.6798
1.67046
1.55473
0.339621
0.320324
0.32148
0.322946
0.326086
0.329374
0.336244
0.348848
0.361994
0.393314
0.45162
0.478666
0.540109
0.708659
1.14067
1.581
1.63822
1.73472
1.69511
1.66724
1.66964
1.67418
1.67234
1.6641
1.54718
0.339621
0.320324
0.32148
0.322946
0.326085
0.329373
0.336271
0.348734
0.362109
0.392175
0.453254
0.476661
0.527193
0.666813
1.01878
1.55798
1.60588
1.7257
1.68999
1.65733
1.65347
1.65951
1.65929
1.65601
1.53503
0.339621
0.320324
0.321479
0.322946
0.326083
0.329371
0.336286
0.34866
0.362188
0.392012
0.454078
0.47547
0.514796
0.62761
0.91899
1.48634
1.58352
1.70785
1.68564
1.64564
1.63565
1.6441
1.64575
1.64615
1.51775
0.339621
0.320324
0.321478
0.322946
0.326082
0.32937
0.336289
0.348641
0.362231
0.392159
0.454662
0.475177
0.50446
0.595539
0.829591
1.35818
1.57098
1.68421
1.67941
1.63331
1.61664
1.62552
1.62845
1.63365
1.50542
0.33962
0.320324
0.321476
0.322948
0.326082
0.329369
0.336304
0.348626
0.362225
0.392283
0.454822
0.475552
0.500907
0.572626
0.74692
1.15771
1.55747
1.64838
1.66634
1.62086
1.60085
1.60165
1.59911
1.61734
1.46633
0.33962
0.320324
0.321476
0.322949
0.326083
0.329369
0.336302
0.348649
0.362198
0.392386
0.454891
0.475048
0.501471
0.555025
0.678269
0.975396
1.51722
1.59312
1.65036
1.60877
1.58376
1.57711
1.56202
1.59298
1.42327
0.339621
0.320325
0.32148
0.322947
0.326087
0.329376
0.336249
0.348873
0.361984
0.394664
0.449977
0.488613
0.577057
0.81362
1.39736
1.57966
1.71044
1.74813
1.70446
1.68477
1.69457
1.69539
1.6883
1.67587
1.56679
0.339622
0.320325
0.321481
0.322948
0.326089
0.329377
0.336251
0.348881
0.362014
0.394688
0.449959
0.487185
0.572804
0.802856
1.37642
1.58093
1.70486
1.74977
1.70433
1.68445
1.69302
1.69406
1.68744
1.67577
1.5651
0.339621
0.320325
0.32148
0.322947
0.326087
0.329375
0.336248
0.348875
0.36203
0.394611
0.45007
0.48454
0.564038
0.778979
1.32405
1.58584
1.69304
1.7479
1.70325
1.68171
1.6894
1.69076
1.68518
1.67452
1.56166
0.339622
0.320326
0.321482
0.322951
0.326091
0.329381
0.336258
0.348871
0.362032
0.394197
0.45055
0.481478
0.552714
0.746686
1.24223
1.5883
1.67003
1.74283
1.69939
1.67495
1.68127
1.68353
1.67981
1.67047
1.55474
0.33962
0.320324
0.32148
0.322946
0.326086
0.329375
0.336247
0.348844
0.361988
0.393294
0.45164
0.478651
0.540051
0.708547
1.14017
1.58075
1.63792
1.73465
1.69512
1.66724
1.66964
1.67419
1.67235
1.6641
1.54719
0.339623
0.320328
0.321481
0.322952
0.326087
0.329377
0.336307
0.348748
0.362144
0.392328
0.453455
0.476794
0.527382
0.66717
1.01967
1.55858
1.60606
1.7256
1.68995
1.65732
1.65347
1.65951
1.6593
1.65602
1.53504
0.33962
0.320324
0.321479
0.322946
0.326083
0.329371
0.336288
0.348656
0.36218
0.392007
0.45407
0.475441
0.514787
0.627669
0.919234
1.48669
1.58368
1.7078
1.68558
1.64563
1.63565
1.6441
1.64575
1.64616
1.51776
0.339624
0.320327
0.321482
0.322954
0.326089
0.32938
0.33631
0.348657
0.362247
0.392168
0.454651
0.475154
0.504411
0.595495
0.829617
1.35809
1.571
1.68414
1.67937
1.6333
1.61664
1.62552
1.62845
1.63365
1.50543
0.339621
0.320324
0.321476
0.322949
0.326082
0.329369
0.336306
0.348626
0.362228
0.392287
0.454806
0.475544
0.500909
0.572639
0.746935
1.15764
1.5574
1.64835
1.66632
1.62085
1.60085
1.60165
1.59912
1.61735
1.46634
0.339623
0.320327
0.32148
0.322956
0.32609
0.329379
0.336323
0.348663
0.362214
0.392397
0.454878
0.475028
0.501406
0.554965
0.678259
0.975443
1.51718
1.5931
1.65034
1.60875
1.58375
1.57711
1.56202
1.59298
1.42328
0.339625
0.320328
0.321483
0.322955
0.326094
0.329385
0.33627
0.348885
0.361989
0.394671
0.449934
0.488567
0.577006
0.813561
1.39725
1.57972
1.71031
1.74809
1.70445
1.68476
1.69456
1.69538
1.6883
1.67587
1.56679
0.339623
0.320326
0.321481
0.32295
0.32609
0.32938
0.33626
0.34888
0.362009
0.394685
0.449955
0.487158
0.572758
0.802852
1.37636
1.58075
1.70477
1.74974
1.7043
1.68444
1.69301
1.69405
1.68744
1.67577
1.5651
0.339625
0.320329
0.321483
0.322957
0.326092
0.329384
0.336291
0.34889
0.362053
0.394733
0.450272
0.484671
0.564149
0.779277
1.3254
1.58603
1.69312
1.74777
1.70321
1.68169
1.6894
1.69076
1.68518
1.67452
1.56167
0.339621
0.320325
0.32148
0.322947
0.326088
0.329377
0.336253
0.34887
0.362034
0.394215
0.450572
0.481491
0.552748
0.746825
1.2425
1.58808
1.67009
1.74275
1.69935
1.67493
1.68126
1.68352
1.67981
1.67048
1.55475
0.339624
0.320328
0.321483
0.322956
0.326091
0.329384
0.336289
0.34886
0.362021
0.393432
0.451826
0.478801
0.540228
0.708966
1.14207
1.58117
1.63838
1.73459
1.69507
1.66722
1.66965
1.67419
1.67235
1.66411
1.5472
0.339621
0.320324
0.32148
0.322948
0.326086
0.329375
0.336279
0.348729
0.362108
0.392168
0.45327
0.476663
0.527171
0.666826
1.01891
1.55801
1.60593
1.72562
1.68995
1.65733
1.65348
1.65952
1.6593
1.65603
1.53504
0.339624
0.320327
0.321482
0.322953
0.32609
0.32938
0.336306
0.348673
0.362203
0.392029
0.45409
0.475457
0.51475
0.62756
0.918982
1.48624
1.58344
1.70779
1.68563
1.64564
1.63566
1.64411
1.64576
1.64617
1.51777
0.339622
0.320325
0.321479
0.322948
0.326084
0.329373
0.336296
0.348648
0.362242
0.392176
0.454671
0.475179
0.504463
0.595527
0.829515
1.35791
1.57091
1.68414
1.67941
1.63332
1.61665
1.62553
1.62846
1.63366
1.50544
0.339622
0.320326
0.321478
0.322952
0.326087
0.329374
0.336315
0.348644
0.362247
0.392323
0.45487
0.475553
0.500897
0.572598
0.746861
1.15761
1.55745
1.64833
1.66633
1.62086
1.60086
1.60167
1.59912
1.61736
1.46634
0.339621
0.320325
0.321477
0.32295
0.326085
0.329371
0.336308
0.348656
0.362209
0.392415
0.454927
0.475051
0.501476
0.555022
0.678236
0.975325
1.51727
1.59309
1.65034
1.60877
1.58377
1.57713
1.56203
1.593
1.42329
0.339622
0.320325
0.321481
0.322948
0.326089
0.329378
0.336254
0.348884
0.361998
0.394679
0.450006
0.48861
0.576985
0.813397
1.39693
1.57967
1.71029
1.74811
1.70447
1.68475
1.6946
1.69545
1.68846
1.67605
1.56656
0.339622
0.320325
0.321481
0.322951
0.32609
0.329381
0.336262
0.348882
0.362013
0.394688
0.450009
0.487161
0.572684
0.802647
1.37613
1.58087
1.70466
1.74975
1.70433
1.68445
1.69303
1.69408
1.68752
1.67587
1.56497
0.339621
0.320325
0.321481
0.322949
0.326089
0.329379
0.336258
0.348886
0.36204
0.394623
0.450109
0.484504
0.563907
0.778777
1.32362
1.58565
1.69271
1.74787
1.70325
1.68171
1.68939
1.69075
1.68521
1.6746
1.56162
0.339624
0.320328
0.321481
0.322954
0.326089
0.32938
0.33629
0.348887
0.362065
0.394376
0.450754
0.481638
0.552893
0.747091
1.24397
1.58833
1.67016
1.74271
1.69935
1.67493
1.68125
1.68353
1.67986
1.67058
1.55465
0.339622
0.320326
0.321482
0.322952
0.326091
0.329383
0.336264
0.348853
0.361996
0.393268
0.451681
0.478649
0.539987
0.708465
1.14029
1.58116
1.63821
1.73462
1.69507
1.66722
1.66961
1.67421
1.67245
1.66425
1.54706
0.339624
0.320327
0.321483
0.322958
0.326094
0.329387
0.336313
0.348737
0.36212
0.392164
0.453312
0.47662
0.526959
0.666414
1.01816
1.55751
1.60531
1.7256
1.68998
1.65731
1.65345
1.65956
1.6594
1.65618
1.5349
0.339623
0.320327
0.32148
0.322954
0.326085
0.329377
0.336325
0.348674
0.362224
0.392136
0.45425
0.475569
0.514904
0.62773
0.919129
1.4865
1.58321
1.70769
1.68558
1.64561
1.63562
1.64414
1.64586
1.64635
1.51762
0.339626
0.32033
0.321482
0.322962
0.326091
0.329385
0.336351
0.348669
0.362283
0.392297
0.454837
0.475239
0.504501
0.595616
0.829763
1.35849
1.5713
1.68424
1.67927
1.63327
1.61662
1.62555
1.62852
1.63385
1.5053
0.339621
0.320325
0.321478
0.322955
0.326086
0.329376
0.336331
0.348621
0.362221
0.392286
0.454792
0.475491
0.500808
0.572545
0.746937
1.15775
1.55778
1.6483
1.66625
1.62082
1.60085
1.60167
1.59915
1.61756
1.46622
0.339626
0.32033
0.32148
0.322968
0.326092
0.329385
0.336374
0.348669
0.362239
0.392497
0.45506
0.475157
0.501442
0.555051
0.678521
0.975897
1.51749
1.59298
1.65007
1.60871
1.58375
1.57715
1.56203
1.59317
1.42318
0.339625
0.320329
0.321484
0.32296
0.326098
0.329388
0.336344
0.348701
0.362199
0.392542
0.454772
0.47437
0.502348
0.540066
0.625218
0.843792
1.38982
1.55597
1.62901
1.59334
1.56442
1.55573
1.51543
1.57433
1.32138
0.339628
0.320332
0.321487
0.322961
0.326098
0.329391
0.336345
0.348749
0.362228
0.392646
0.454946
0.474292
0.500914
0.5336
0.594788
0.736226
1.10319
1.53896
1.59685
1.57329
1.54327
1.53496
1.47011
1.54078
1.33547
0.339627
0.32033
0.321488
0.322959
0.326099
0.329392
0.336313
0.348758
0.362215
0.392472
0.45482
0.474323
0.498874
0.536527
0.573748
0.659377
0.910696
1.47802
1.5559
1.55253
1.52087
1.5082
1.44071
1.48605
1.37936
0.339627
0.32033
0.321488
0.322963
0.3261
0.329395
0.336324
0.348747
0.362218
0.392425
0.454899
0.474423
0.498561
0.537762
0.558443
0.606736
0.771049
1.30644
1.53557
1.53773
1.49125
1.49249
1.41998
1.43618
1.38413
0.339628
0.320332
0.321487
0.322962
0.326097
0.329392
0.336336
0.348755
0.362251
0.392537
0.455151
0.474619
0.499311
0.537537
0.549938
0.578516
0.66292
0.951785
1.48737
1.51845
1.46388
1.48787
1.41665
1.40692
1.37849
0.339627
0.320331
0.321487
0.322963
0.326097
0.329392
0.336342
0.348748
0.362245
0.39253
0.455156
0.474611
0.499431
0.536818
0.549802
0.560206
0.599629
0.779214
1.36984
1.50382
1.45076
1.47924
1.42104
1.39008
1.36495
0.339627
0.320331
0.321488
0.322964
0.326097
0.329394
0.336345
0.348739
0.362232
0.392513
0.455141
0.47461
0.499276
0.537099
0.549446
0.549521
0.565493
0.647382
1.00147
1.45812
1.43981
1.46967
1.43686
1.3867
1.35455
0.339628
0.320332
0.321488
0.322966
0.326098
0.329396
0.336349
0.348742
0.362236
0.392515
0.455137
0.474617
0.499167
0.53741
0.548608
0.548243
0.547385
0.576958
0.746621
1.33047
1.415
1.45921
1.44082
1.38919
1.35234
0.339628
0.320332
0.321487
0.322964
0.326097
0.329393
0.336344
0.348749
0.362246
0.392528
0.455129
0.474607
0.499201
0.537471
0.548308
0.54735
0.536303
0.545763
0.61058
0.929223
1.3544
1.43156
1.42914
1.39012
1.35311
0.339629
0.320333
0.321489
0.322967
0.3261
0.329398
0.33635
0.348754
0.36225
0.392532
0.455145
0.474619
0.499174
0.537477
0.548326
0.547125
0.535342
0.53038
0.551603
0.681817
1.14703
1.36257
1.39194
1.37634
1.3519
0.339628
0.320331
0.321489
0.322964
0.326102
0.329398
0.33633
0.348749
0.362224
0.392426
0.454946
0.47444
0.498962
0.537207
0.548033
0.546807
0.535268
0.523539
0.531436
0.579702
0.767543
1.17608
1.31534
1.34437
1.3362
0.339629
0.320333
0.321488
0.322965
0.326099
0.329395
0.336346
0.348765
0.362264
0.39256
0.455167
0.474616
0.499218
0.537449
0.548246
0.547025
0.535521
0.52316
0.525392
0.551658
0.629311
0.805942
1.10861
1.2816
1.30886
0.339629
0.320333
0.321488
0.322965
0.326098
0.329395
0.336345
0.348762
0.362261
0.392556
0.455165
0.474623
0.49923
0.537463
0.548261
0.547039
0.535537
0.523068
0.524964
0.546001
0.599747
0.675196
0.792767
1.01672
1.22968
0.339627
0.320331
0.321489
0.322964
0.326102
0.329398
0.336329
0.348748
0.362224
0.392431
0.454974
0.474473
0.498989
0.537246
0.548062
0.546833
0.53529
0.522751
0.524613
0.545074
0.595754
0.652232
0.70809
0.78255
0.910181
0.339628
0.320333
0.321489
0.322965
0.326099
0.329396
0.336345
0.348752
0.362249
0.39254
0.455183
0.474652
0.499217
0.537506
0.548322
0.547097
0.535575
0.523048
0.524898
0.545213
0.595565
0.650155
0.698959
0.747029
0.790757
0.339628
0.320332
0.321488
0.322964
0.326098
0.329394
0.336346
0.348753
0.362252
0.39255
0.455178
0.474625
0.499205
0.537459
0.548262
0.547039
0.535528
0.523028
0.524884
0.545205
0.595537
0.649979
0.698487
0.743423
0.774342
0.339628
0.320332
0.321488
0.322964
0.326097
0.329394
0.336346
0.348752
0.362249
0.392544
0.455156
0.474606
0.499189
0.537453
0.548265
0.547043
0.535533
0.523032
0.524886
0.545205
0.595533
0.649968
0.698463
0.743135
0.772889
0.33963
0.320333
0.321489
0.322967
0.3261
0.329398
0.336352
0.348758
0.362255
0.392542
0.455162
0.474631
0.499182
0.537484
0.54832
0.547101
0.535592
0.523063
0.524905
0.545202
0.59552
0.649958
0.698435
0.743101
0.772759
0.339628
0.320331
0.321489
0.322964
0.326101
0.329398
0.336328
0.348744
0.36222
0.392417
0.454934
0.474458
0.498988
0.537263
0.548091
0.546862
0.535319
0.522774
0.52463
0.545023
0.595409
0.649809
0.698287
0.743045
0.772728
0.33963
0.320334
0.32149
0.322969
0.326102
0.329401
0.336356
0.348763
0.362261
0.392543
0.455152
0.474622
0.499167
0.537472
0.548316
0.5471
0.535596
0.523063
0.524901
0.545194
0.595508
0.649946
0.698431
0.743095
0.772743
0.339627
0.320331
0.321487
0.322963
0.326096
0.329392
0.336342
0.348747
0.362245
0.392544
0.455166
0.474618
0.499213
0.53747
0.548266
0.547039
0.535519
0.523022
0.52488
0.545208
0.595544
0.649973
0.698459
0.743106
0.772748
0.33963
0.320334
0.32149
0.32297
0.326102
0.329401
0.33636
0.348761
0.362257
0.392548
0.455172
0.474603
0.499116
0.537417
0.548265
0.547049
0.53554
0.523
0.52484
0.54514
0.595454
0.649892
0.698421
0.743081
0.772732
0.339627
0.320331
0.321487
0.322963
0.326096
0.329392
0.336343
0.348747
0.362244
0.392544
0.455166
0.474613
0.499209
0.537462
0.548256
0.547029
0.535509
0.523014
0.524873
0.545202
0.595538
0.649967
0.698461
0.743105
0.772747
0.339631
0.320335
0.321491
0.32297
0.326103
0.329402
0.336359
0.348768
0.362267
0.392553
0.45516
0.474619
0.499159
0.537459
0.5483
0.547084
0.53558
0.523047
0.524885
0.545178
0.59549
0.649929
0.698432
0.74309
0.772737
0.339627
0.32033
0.321489
0.322964
0.326101
0.329397
0.336328
0.348742
0.362217
0.392414
0.454922
0.474445
0.498984
0.537255
0.54808
0.546851
0.535307
0.522763
0.52462
0.545013
0.595397
0.649799
0.698286
0.743042
0.772723
0.339631
0.320335
0.321491
0.32297
0.326103
0.329402
0.336358
0.348768
0.362267
0.39255
0.455154
0.474617
0.499158
0.537457
0.548302
0.547087
0.535586
0.523056
0.524896
0.545191
0.595502
0.649939
0.698435
0.743092
0.772738
0.339627
0.320331
0.321487
0.322963
0.326096
0.329392
0.336343
0.348745
0.362242
0.392539
0.455154
0.474607
0.499202
0.537464
0.548265
0.547038
0.535518
0.523018
0.524875
0.5452
0.595536
0.649968
0.698456
0.743105
0.772748
0.33963
0.320334
0.32149
0.322969
0.326102
0.3294
0.336357
0.348757
0.362252
0.392539
0.45516
0.474604
0.499119
0.53743
0.548282
0.547067
0.535558
0.523018
0.524857
0.545157
0.595472
0.649907
0.698422
0.743083
0.772732
0.339627
0.320331
0.321487
0.322962
0.326095
0.329391
0.33634
0.348746
0.362243
0.392535
0.455155
0.47462
0.499219
0.537477
0.548272
0.547045
0.535526
0.523024
0.524883
0.545211
0.59555
0.649978
0.698454
0.743104
0.772747
0.339629
0.320333
0.321489
0.322967
0.3261
0.329398
0.33635
0.348756
0.362253
0.392536
0.455163
0.474637
0.499182
0.537484
0.548321
0.547102
0.535593
0.523059
0.524901
0.545198
0.595518
0.649954
0.698426
0.743094
0.772744
0.339627
0.32033
0.321488
0.322963
0.3261
0.329396
0.336326
0.348739
0.362214
0.39241
0.454924
0.474445
0.498983
0.537249
0.548075
0.546847
0.535306
0.522763
0.52462
0.545013
0.595398
0.649802
0.698293
0.743045
0.772725
0.339629
0.320333
0.321488
0.322964
0.326097
0.329394
0.336343
0.34876
0.362259
0.392551
0.455165
0.474629
0.499224
0.53747
0.548273
0.547054
0.535558
0.523074
0.524929
0.54524
0.595561
0.649996
0.698475
0.743118
0.772756
0.339628
0.320332
0.321487
0.322962
0.326096
0.329391
0.336336
0.348751
0.362248
0.392536
0.455151
0.474626
0.499248
0.537488
0.548276
0.54705
0.535542
0.523063
0.524923
0.545242
0.595572
0.650007
0.698482
0.743122
0.772759
0.339626
0.32033
0.321488
0.322962
0.3261
0.329396
0.336326
0.348742
0.362217
0.392425
0.454973
0.474465
0.498975
0.537219
0.548041
0.546817
0.53528
0.522741
0.524602
0.544998
0.595385
0.649787
0.698298
0.743043
0.772722
0.339626
0.320331
0.321486
0.32296
0.326094
0.329389
0.33633
0.348746
0.362242
0.392533
0.455175
0.47465
0.499271
0.537504
0.548287
0.547059
0.535547
0.523063
0.524926
0.54525
0.595589
0.650019
0.698474
0.74312
0.77276
0.339628
0.320332
0.321487
0.322963
0.326096
0.329392
0.336338
0.348755
0.362252
0.39254
0.455159
0.474631
0.499232
0.53747
0.548274
0.547055
0.535564
0.523086
0.524944
0.545258
0.59558
0.650013
0.698479
0.743119
0.772757
0.339625
0.320329
0.321486
0.322957
0.326096
0.32939
0.33631
0.348741
0.362217