/*--------------------------------*- C++ -*----------------------------------*\
| =========                 |                                                 |
| \\      /  F ield         | OpenFOAM: The Open Source CFD Toolbox           |
|  \\    /   O peration     | Version:  4.1                                   |
|   \\  /    A nd           | Web:      www.OpenFOAM.org                      |
|    \\/     M anipulation  |                                                 |
\*---------------------------------------------------------------------------*/
FoamFile
{
    version     2.0;
    format      ascii;
    class       volVectorField;
    location    "0.3";
    object      U;
}
// * * * * * * * * * * * * * * * * * * * * * * * * * * * * * * * * * * * * * //

dimensions      [0 1 -1 0 0 0 0];

internalField   nonuniform List<vector> 
52500
(
(1.81699 -2.8012e-07 -0.00218066)
(1.84233 -6.79538e-07 -0.00198724)
(1.84029 -1.2141e-06 -0.00199295)
(1.83716 -1.90728e-06 -0.00200156)
(1.83219 -2.87989e-06 -0.00202015)
(1.82458 -4.31285e-06 -0.00204152)
(1.81295 -5.32125e-06 -0.00208571)
(1.79388 -1.14009e-05 -0.00216329)
(1.76015 -1.70391e-05 -0.00224665)
(1.70607 -5.69823e-05 -0.00245764)
(1.62002 7.18546e-05 -0.00280074)
(1.4857 0.000231688 -0.00308752)
(1.28009 0.00125971 -0.0037589)
(0.786309 0.00552801 -0.00562905)
(-0.218711 0.0280438 -0.0099188)
(-0.614468 0.0378746 -0.0107183)
(-0.557307 0.0345195 -0.0116485)
(-0.556089 0.0369895 -0.0119051)
(-0.570359 0.0378911 -0.0115708)
(-0.533394 0.0370351 -0.0114134)
(-0.456869 0.0357702 -0.0115372)
(-0.362572 0.0343854 -0.011626)
(-0.243144 0.0332651 -0.0116751)
(-0.197044 0.033623 -0.0116902)
(0.0239209 0.0341945 -0.0110278)
(1.81699 -3.08432e-07 -0.00218065)
(1.84233 -9.13564e-07 -0.00198724)
(1.84029 -1.7336e-06 -0.00199294)
(1.83716 -2.7599e-06 -0.00200156)
(1.83219 -4.12522e-06 -0.00202015)
(1.82458 -6.00247e-06 -0.00204152)
(1.81295 -7.03279e-06 -0.00208573)
(1.79387 -1.54533e-05 -0.00216329)
(1.76011 -2.71435e-05 -0.00224689)
(1.70613 -0.000102322 -0.00245813)
(1.62028 0.000189919 -0.00280121)
(1.48684 0.000705945 -0.00307634)
(1.28584 0.00370659 -0.00372515)
(0.810713 0.0162389 -0.00553298)
(-0.186446 0.0808977 -0.00972496)
(-0.603002 0.104092 -0.0106891)
(-0.554531 0.0915744 -0.0115489)
(-0.54878 0.0950467 -0.0118474)
(-0.56433 0.0959824 -0.0115043)
(-0.528749 0.0944957 -0.0113458)
(-0.453088 0.0920292 -0.0114612)
(-0.360508 0.089836 -0.0115506)
(-0.241445 0.0878148 -0.0116024)
(-0.196565 0.0887045 -0.0116198)
(0.0251112 0.0893464 -0.0109488)
(1.81699 -7.00354e-07 -0.00218066)
(1.84233 -1.74772e-06 -0.00198724)
(1.84029 -3.20479e-06 -0.00199295)
(1.83716 -5.09367e-06 -0.00200157)
(1.83219 -7.66475e-06 -0.00202016)
(1.82458 -1.13144e-05 -0.00204156)
(1.81294 -1.39186e-05 -0.00208578)
(1.79386 -2.69999e-05 -0.00216324)
(1.76008 -3.47348e-05 -0.00224714)
(1.70622 -5.33375e-05 -0.00245831)
(1.62078 8.41961e-05 -0.00280321)
(1.48913 0.000907569 -0.00305563)
(1.29703 0.00554494 -0.00365657)
(0.863019 0.0245779 -0.00533474)
(-0.117242 0.125154 -0.00933459)
(-0.587727 0.178172 -0.0107189)
(-0.552508 0.155524 -0.011411)
(-0.536554 0.159903 -0.0117694)
(-0.55382 0.162259 -0.0114373)
(-0.52049 0.160969 -0.0112659)
(-0.446494 0.157791 -0.0113728)
(-0.356636 0.154734 -0.0114624)
(-0.238186 0.151532 -0.0115203)
(-0.195403 0.153357 -0.011541)
(0.02773 0.154064 -0.0108564)
(1.81699 -5.05466e-07 -0.00218066)
(1.84233 -1.64051e-06 -0.00198723)
(1.84029 -3.15968e-06 -0.00199294)
(1.83715 -4.98172e-06 -0.00200157)
(1.83218 -7.3566e-06 -0.00202015)
(1.82457 -1.08052e-05 -0.00204153)
(1.81293 -1.33984e-05 -0.00208578)
(1.79385 -2.4389e-05 -0.00216321)
(1.76009 -2.32063e-05 -0.00224694)
(1.7062 0.000118861 -0.00245537)
(1.62123 -0.000286894 -0.00280702)
(1.49223 0.00087042 -0.00303001)
(1.31139 0.00662129 -0.00356749)
(0.93067 0.0293186 -0.00507607)
(-0.0075273 0.1486 -0.00874841)
(-0.557775 0.254661 -0.0107672)
(-0.552037 0.217425 -0.0112013)
(-0.519416 0.224494 -0.0116724)
(-0.537317 0.228908 -0.0113575)
(-0.507891 0.228949 -0.0111622)
(-0.436692 0.226113 -0.0112561)
(-0.350806 0.222624 -0.0113477)
(-0.232719 0.218234 -0.0114169)
(-0.193123 0.221775 -0.0114415)
(0.0320191 0.222577 -0.0107371)
(1.81699 -1.98761e-07 -0.00218066)
(1.84233 -6.37905e-07 -0.00198724)
(1.84029 -1.12183e-06 -0.00199295)
(1.83715 -1.93429e-06 -0.00200159)
(1.83218 -3.77129e-06 -0.00202017)
(1.82457 -7.35064e-06 -0.00204157)
(1.81293 -1.75312e-05 -0.00208584)
(1.79385 -4.61132e-06 -0.00216308)
(1.76021 -0.00010417 -0.00224655)
(1.70603 0.000320023 -0.0024486)
(1.62163 -0.000981718 -0.00281524)
(1.49602 0.000723855 -0.00300608)
(1.32701 0.00642245 -0.00346981)
(1.00418 0.0296047 -0.0047817)
(0.145265 0.149322 -0.00804809)
(-0.5097 0.32767 -0.0107272)
(-0.555777 0.27739 -0.0109021)
(-0.497615 0.288194 -0.0115614)
(-0.516113 0.295165 -0.0112814)
(-0.490962 0.297015 -0.0110577)
(-0.423148 0.29571 -0.0111168)
(-0.342348 0.292721 -0.0112197)
(-0.223594 0.287578 -0.0112989)
(-0.189267 0.293745 -0.0113243)
(0.0377996 0.295285 -0.0106103)
(1.81699 -6.59249e-07 -0.00218066)
(1.84232 -1.24098e-06 -0.00198723)
(1.84029 -2.03494e-06 -0.00199292)
(1.83715 -3.29779e-06 -0.00200157)
(1.83218 -5.72276e-06 -0.00202009)
(1.82457 -9.08077e-06 -0.00204145)
(1.81294 -2.57291e-05 -0.00208609)
(1.79378 3.89106e-07 -0.00216215)
(1.76037 -0.000160891 -0.00224822)
(1.70542 0.000353685 -0.00244148)
(1.62161 -0.00120846 -0.00282638)
(1.49915 0.000957707 -0.00299053)
(1.33984 0.00479476 -0.00337484)
(1.0737 0.0260159 -0.00445508)
(0.335474 0.130287 -0.00720284)
(-0.440323 0.391684 -0.0106347)
(-0.560039 0.339235 -0.0105653)
(-0.471818 0.350695 -0.0114539)
(-0.489813 0.361282 -0.0112049)
(-0.469244 0.365885 -0.0109439)
(-0.405117 0.367472 -0.0109504)
(-0.330522 0.366624 -0.0110574)
(-0.209221 0.361376 -0.0111434)
(-0.182665 0.37167 -0.0111933)
(0.045838 0.375211 -0.0104483)
(1.81699 -5.50153e-07 -0.00218067)
(1.84232 -2.01799e-06 -0.00198724)
(1.84029 -4.11578e-06 -0.00199293)
(1.83715 -6.30089e-06 -0.0020016)
(1.83218 -8.09336e-06 -0.0020201)
(1.82456 -7.69575e-06 -0.00204146)
(1.81294 -1.72772e-05 -0.00208632)
(1.79374 2.58801e-06 -0.00216151)
(1.7605 -6.46624e-05 -0.00224897)
(1.70506 0.00022363 -0.0024442)
(1.62201 -0.000693873 -0.00283366)
(1.50157 0.00142112 -0.00298028)
(1.35075 0.00206615 -0.0032825)
(1.13623 0.0211179 -0.00414197)
(0.541644 0.108678 -0.00646861)
(-0.328735 0.428074 -0.0102249)
(-0.555926 0.410105 -0.0103442)
(-0.445482 0.411029 -0.0112955)
(-0.458255 0.426735 -0.0111374)
(-0.442179 0.435365 -0.0108251)
(-0.381499 0.440709 -0.010778)
(-0.314529 0.44494 -0.0108901)
(-0.187812 0.440955 -0.010984)
(-0.17188 0.457011 -0.0110487)
(0.0564949 0.463849 -0.0102483)
(1.81699 -2.22138e-07 -0.00218066)
(1.84232 -7.41263e-07 -0.00198722)
(1.84028 -1.49065e-06 -0.00199293)
(1.83714 -2.48361e-06 -0.00200161)
(1.83217 -4.0647e-06 -0.00202012)
(1.82455 -6.34388e-06 -0.00204147)
(1.81294 -1.13523e-05 -0.00208633)
(1.79373 -3.38905e-06 -0.00216119)
(1.76056 -4.15033e-05 -0.00224891)
(1.70494 -2.20302e-05 -0.00244585)
(1.62264 -0.000357957 -0.00283941)
(1.50236 0.000179584 -0.00297694)
(1.3597 -0.00131765 -0.00319526)
(1.18828 0.0165541 -0.00387612)
(0.747726 0.0886107 -0.00570538)
(-0.163271 0.412139 -0.00938846)
(-0.525652 0.492841 -0.0102301)
(-0.428528 0.468509 -0.0111075)
(-0.421124 0.490687 -0.0110625)
(-0.40942 0.504867 -0.0107117)
(-0.350951 0.514865 -0.0106063)
(-0.292679 0.52755 -0.0107055)
(-0.157231 0.527725 -0.0107994)
(-0.155351 0.552508 -0.0108833)
(0.0702167 0.568193 -0.0100684)
(1.81699 -2.30323e-07 -0.00218067)
(1.84232 -3.62792e-07 -0.00198724)
(1.84029 -4.71375e-07 -0.00199291)
(1.83715 -1.03817e-06 -0.00200162)
(1.83218 -3.22529e-06 -0.00202009)
(1.82455 -8.82752e-06 -0.00204144)
(1.81294 -1.15053e-05 -0.00208651)
(1.79371 -1.86419e-05 -0.0021612)
(1.76048 -5.1663e-05 -0.00224915)
(1.70479 -0.000176012 -0.00244731)
(1.62202 -0.000137376 -0.0028405)
(1.50062 -0.000886443 -0.00298421)
(1.36591 -0.00256252 -0.00316411)
(1.22457 0.0132308 -0.0037119)
(0.920863 0.0679776 -0.00506443)
(0.0694801 0.325803 -0.00808741)
(-0.451399 0.575834 -0.0102492)
(-0.429823 0.521881 -0.0108554)
(-0.379003 0.551321 -0.0109444)
(-0.370387 0.573762 -0.0106076)
(-0.311874 0.590242 -0.0104625)
(-0.263123 0.612338 -0.010494)
(-0.114402 0.62073 -0.0105405)
(-0.126697 0.657384 -0.0106937)
(0.0906911 0.696266 -0.00969122)
(1.81698 2.69771e-08 -0.00218067)
(1.84232 -8.33831e-07 -0.00198723)
(1.84028 -1.77219e-06 -0.0019929)
(1.83714 -2.79729e-06 -0.00200163)
(1.83217 -3.51597e-06 -0.00202008)
(1.82455 -4.86277e-06 -0.00204142)
(1.81294 9.8343e-07 -0.00208649)
(1.7937 -6.05561e-06 -0.00216133)
(1.76042 2.81418e-05 -0.00224893)
(1.70482 -7.72814e-05 -0.00244726)
(1.62188 0.000226978 -0.00283953)
(1.49954 -0.0002013 -0.00298235)
(1.37145 -0.000955212 -0.00318304)
(1.2513 0.00962584 -0.00358466)
(1.04027 0.0474634 -0.00453678)
(0.354069 0.211395 -0.00687025)
(-0.322405 0.631654 -0.0100587)
(-0.444881 0.573643 -0.0104143)
(-0.332428 0.606652 -0.0108051)
(-0.32329 0.641343 -0.0105128)
(-0.263918 0.665913 -0.0103221)
(-0.225472 0.697412 -0.0102891)
(-0.0584982 0.722402 -0.0102337)
(-0.0687139 0.779793 -0.0104391)
(0.120449 0.898693 -0.00923364)
(1.81699 9.69935e-07 -2.36374e-09)
(1.84233 2.05046e-06 1.78993e-09)
(1.84029 3.55373e-06 2.29556e-09)
(1.83715 5.55873e-06 3.84853e-09)
(1.83218 8.33813e-06 5.95377e-09)
(1.82457 1.19368e-05 9.58167e-09)
(1.81293 1.81548e-05 2.26362e-08)
(1.79384 2.60542e-05 3.08777e-08)
(1.76013 3.77338e-05 5.27849e-08)
(1.70608 9.30161e-06 1.18247e-07)
(1.62009 0.000138133 3.16634e-07)
(1.48587 0.000283518 1.51904e-07)
(1.28023 0.00128278 -1.56876e-07)
(0.786082 0.00554017 -1.4559e-06)
(-0.21904 0.0281472 -4.66802e-06)
(-0.614472 0.0378796 1.72961e-06)
(-0.557172 0.0345214 2.66747e-07)
(-0.556118 0.0369978 2.14049e-07)
(-0.570427 0.0378913 4.90523e-07)
(-0.533455 0.0370361 4.65876e-07)
(-0.456921 0.0357697 4.41567e-07)
(-0.362609 0.0343833 3.50913e-07)
(-0.243187 0.033262 3.30888e-07)
(-0.197083 0.0336182 3.49781e-07)
(0.0239147 0.0342073 3.28915e-07)
(1.81699 -6.40448e-08 -1.98861e-09)
(1.84233 6.62608e-08 1.8306e-09)
(1.84029 2.69018e-07 2.32044e-09)
(1.83716 2.68302e-07 3.66386e-09)
(1.83219 -5.8147e-07 6.13298e-09)
(1.82458 -3.48479e-06 1.06099e-08)
(1.81294 -5.68962e-06 2.04837e-08)
(1.79386 -1.42932e-05 2.24754e-08)
(1.76012 -4.20667e-05 5.23267e-08)
(1.70616 -0.000161242 1.13868e-07)
(1.62037 6.23181e-05 2.64122e-07)
(1.48699 0.000470239 1.83448e-07)
(1.28598 0.00335548 5.72871e-08)
(0.810677 0.0158264 -4.94076e-07)
(-0.186411 0.0804955 -1.9241e-06)
(-0.602683 0.104075 3.62207e-08)
(-0.554293 0.0917466 1.28741e-07)
(-0.548813 0.0951062 2.15954e-07)
(-0.564415 0.096003 4.52602e-07)
(-0.528818 0.0945085 4.32661e-07)
(-0.453149 0.0920402 4.20838e-07)
(-0.360555 0.089847 3.37732e-07)
(-0.241508 0.0878174 3.27149e-07)
(-0.196601 0.088682 3.55713e-07)
(0.025117 0.0893532 3.67102e-07)
(1.81699 5.04025e-07 5.9266e-10)
(1.84233 1.375e-06 8.54776e-09)
(1.84029 2.51528e-06 9.52267e-09)
(1.83715 3.92808e-06 1.11736e-08)
(1.83218 5.79055e-06 1.74142e-08)
(1.82457 8.06447e-06 2.88114e-08)
(1.81292 1.30652e-05 3.651e-08)
(1.79382 1.76773e-05 6.14522e-08)
(1.76 2.92374e-05 1.00949e-07)
(1.70611 2.04575e-05 1.76406e-07)
(1.62059 0.000157349 3.27639e-07)
(1.4888 0.000942717 1.9618e-07)
(1.29649 0.00553249 -1.16014e-08)
(0.861675 0.0245265 -5.31291e-07)
(-0.119683 0.125203 -1.73669e-06)
(-0.588925 0.178307 -1.99597e-08)
(-0.55275 0.155616 1.99287e-07)
(-0.536773 0.159922 2.44746e-07)
(-0.553937 0.162255 3.58466e-07)
(-0.520562 0.160978 3.65776e-07)
(-0.446547 0.157805 3.69364e-07)
(-0.356664 0.15475 3.05944e-07)
(-0.238223 0.151539 3.13684e-07)
(-0.195416 0.15333 3.5352e-07)
(0.0277015 0.15407 4.63832e-07)
(1.81699 8.35615e-08 5.58331e-10)
(1.84233 2.18189e-07 6.70629e-09)
(1.8403 3.9637e-07 7.48655e-09)
(1.83716 6.25311e-07 8.83423e-09)
(1.83219 9.23664e-07 1.40015e-08)
(1.82459 1.25011e-06 2.3827e-08)
(1.81295 3.4653e-06 2.478e-08)
(1.79388 4.20735e-06 5.27697e-08)
(1.76013 2.02243e-05 7.43969e-08)
(1.70624 0.00017841 1.14541e-07)
(1.62126 -0.000216681 3.00447e-07)
(1.49223 0.0009135 1.69005e-07)
(1.31132 0.0066407 -3.07792e-08)
(0.93025 0.0293267 -4.84897e-07)
(-0.00817827 0.148622 -1.42171e-06)
(-0.557809 0.25455 -3.41449e-07)
(-0.552017 0.2174 5.26022e-07)
(-0.519601 0.224423 3.17934e-07)
(-0.537436 0.228857 2.45381e-07)
(-0.507948 0.22894 2.89648e-07)
(-0.436732 0.22612 3.07227e-07)
(-0.350819 0.222635 2.76103e-07)
(-0.232743 0.218238 3.06496e-07)
(-0.193121 0.22175 3.64713e-07)
(0.0319616 0.222593 5.63595e-07)
(1.81699 -8.07662e-08 4.76761e-09)
(1.84233 2.91465e-08 1.66984e-08)
(1.84029 1.05797e-07 1.80757e-08)
(1.83715 2.4046e-07 1.8379e-08)
(1.83218 5.7171e-07 3.00313e-08)
(1.82457 1.7229e-06 5.13739e-08)
(1.81293 -2.20671e-06 4.52517e-08)
(1.79383 2.13171e-05 7.13853e-08)
(1.76015 -4.04717e-05 2.20961e-07)
(1.70592 0.000460908 1.30218e-07)
(1.62138 -0.000777203 3.7102e-07)
(1.49551 0.00103598 1.94462e-07)
(1.32619 0.00678751 -2.23355e-08)
(1.00244 0.0299564 -5.68058e-07)
(0.142173 0.150061 -3.07026e-06)
(-0.511281 0.3279 6.84354e-07)
(-0.556182 0.276947 6.81097e-07)
(-0.497886 0.287955 2.74878e-07)
(-0.516198 0.29507 1.87655e-07)
(-0.490991 0.296981 2.48666e-07)
(-0.423176 0.295708 2.6545e-07)
(-0.342352 0.292727 2.32877e-07)
(-0.223615 0.287578 3.04395e-07)
(-0.189253 0.293723 3.6615e-07)
(0.0377324 0.295311 6.56274e-07)
(1.81699 2.68567e-07 2.21986e-09)
(1.84233 5.28957e-07 1.13516e-08)
(1.8403 8.27959e-07 1.22903e-08)
(1.83716 1.53718e-06 1.33232e-08)
(1.83219 3.54821e-06 1.95503e-08)
(1.82458 9.03386e-06 3.0747e-08)
(1.81297 3.45722e-06 3.14298e-08)
(1.79385 5.09147e-05 5.23334e-08)
(1.7605 -4.83319e-05 1.50304e-07)
(1.70562 0.000557414 6.72748e-08)
(1.62193 -0.000907422 3.05928e-07)
(1.49963 0.00141574 6.20263e-08)
(1.34044 0.00536443 -2.43707e-07)
(1.07457 0.0266287 -6.70171e-07)
(0.336924 0.131123 -2.02133e-06)
(-0.439349 0.391817 3.36382e-07)
(-0.559798 0.338671 7.2922e-07)
(-0.471639 0.350456 3.78458e-07)
(-0.489786 0.361196 1.70257e-07)
(-0.469235 0.365836 1.64164e-07)
(-0.405122 0.367464 2.15389e-07)
(-0.330515 0.366625 2.33843e-07)
(-0.209244 0.361374 2.92695e-07)
(-0.182644 0.371652 3.65288e-07)
(0.0457661 0.37524 7.16574e-07)
(1.81699 -1.84834e-07 1.1686e-08)
(1.84233 -2.60429e-07 2.52823e-08)
(1.84029 -3.7543e-07 2.7521e-08)
(1.83715 -4.99196e-07 2.6825e-08)
(1.83218 -5.7955e-07 4.92915e-08)
(1.82457 4.5687e-07 9.02498e-08)
(1.81296 -8.32421e-06 8.12204e-08)
(1.79378 1.60213e-05 6.25844e-08)
(1.76059 -6.01449e-05 3.96779e-07)
(1.70518 0.00016823 3.96416e-07)
(1.62223 -0.000803674 5.40906e-07)
(1.50194 0.0012074 5.39612e-07)
(1.35127 0.0018387 5.21449e-07)
(1.13703 0.0209742 3.60001e-07)
(0.543172 0.108644 5.69409e-07)
(-0.327068 0.427757 -6.43074e-07)
(-0.55525 0.410016 -3.42411e-07)
(-0.44507 0.41086 5.63743e-07)
(-0.458158 0.426663 1.92839e-07)
(-0.44215 0.435323 1.49729e-07)
(-0.38148 0.440704 1.58898e-07)
(-0.314512 0.444939 2.14486e-07)
(-0.187837 0.44095 3.00964e-07)
(-0.171858 0.456991 3.57093e-07)
(0.0564212 0.463882 7.38886e-07)
(1.81699 7.38894e-07 -5.34255e-10)
(1.84233 1.71118e-06 1.12281e-08)
(1.8403 3.00521e-06 1.23769e-08)
(1.83716 4.65116e-06 1.20745e-08)
(1.8322 6.59176e-06 2.32103e-08)
(1.82458 8.85874e-06 4.55894e-08)
(1.81298 1.02674e-05 3.34563e-08)
(1.7938 3.06054e-05 1.69111e-08)
(1.76062 8.40479e-06 2.2211e-07)
(1.70496 2.62233e-05 2.18175e-07)
(1.6226 -0.000307053 2.34069e-07)
(1.50218 0.000209951 4.78581e-07)
(1.35935 -0.00127539 4.66068e-07)
(1.1877 0.0166049 3.97029e-07)
(0.746752 0.0886014 -3.45665e-07)
(-0.164085 0.412057 -3.62533e-06)
(-0.525681 0.492968 2.27292e-06)
(-0.428456 0.468361 -4.11113e-07)
(-0.420995 0.490632 -2.0539e-07)
(-0.409365 0.504845 3.27586e-08)
(-0.350916 0.514867 1.25016e-07)
(-0.292656 0.52755 1.98449e-07)
(-0.157264 0.527719 2.8272e-07)
(-0.155332 0.552488 3.3492e-07)
(0.0701475 0.568235 7.47844e-07)
(1.81699 1.72304e-07 1.14393e-08)
(1.84233 3.46785e-07 3.06239e-08)
(1.84029 5.33352e-07 3.35635e-08)
(1.83716 6.83255e-07 3.35793e-08)
(1.83219 4.1838e-07 5.98635e-08)
(1.82457 -1.09169e-06 1.058e-07)
(1.81298 1.68905e-06 1.06112e-07)
(1.79378 5.02442e-06 8.21763e-08)
(1.76058 5.55417e-06 4.5502e-07)
(1.70492 -5.61845e-05 5.07564e-07)
(1.62222 5.9116e-05 7.95724e-07)
(1.50094 -0.00060512 6.54617e-07)
(1.36634 -0.00225692 1.01533e-06)
(1.22506 0.0134852 5.12521e-07)
(0.921445 0.0681003 -2.07407e-07)
(0.070015 0.325812 -8.90642e-07)
(-0.451275 0.575775 -1.43636e-07)
(-0.429751 0.521742 -8.93401e-07)
(-0.378855 0.55128 -2.09235e-07)
(-0.370327 0.573757 1.47071e-08)
(-0.311833 0.590251 1.02372e-07)
(-0.263096 0.612339 1.86336e-07)
(-0.114441 0.620724 2.93446e-07)
(-0.126679 0.657373 3.47184e-07)
(0.0906299 0.696317 7.2522e-07)
(1.81699 5.06123e-08 6.11579e-09)
(1.84233 1.13226e-07 2.15619e-08)
(1.8403 2.47902e-07 2.45229e-08)
(1.83716 2.59108e-07 2.49067e-08)
(1.83219 1.74715e-07 5.11823e-08)
(1.82458 -1.04305e-06 9.24993e-08)
(1.81299 4.53343e-06 1.00254e-07)
(1.7938 -2.41428e-06 3.90213e-08)
(1.76057 2.18229e-05 3.86689e-07)
(1.70502 -8.43416e-05 4.48522e-07)
(1.62214 0.000200557 7.82573e-07)
(1.49987 -0.00026606 5.17415e-07)
(1.37185 -0.00108309 5.60009e-07)
(1.25176 0.00948148 3.0888e-07)
(1.04089 0.0473428 -2.95361e-08)
(0.355005 0.21126 5.66415e-07)
(-0.321704 0.63146 -1.02765e-06)
(-0.444697 0.573551 -1.14919e-06)
(-0.332197 0.606614 -5.22607e-07)
(-0.323206 0.641346 -1.01407e-07)
(-0.263875 0.665923 1.15485e-07)
(-0.225442 0.697411 2.06532e-07)
(-0.0585334 0.722395 2.7464e-07)
(-0.0687117 0.779789 3.90157e-07)
(0.120398 0.898744 6.3526e-07)
(1.81699 -2.20978e-07 1.08146e-08)
(1.84233 -5.83708e-07 2.18247e-08)
(1.8403 -1.06007e-06 2.3123e-08)
(1.83716 -1.67497e-06 2.31845e-08)
(1.83219 -2.53286e-06 3.40064e-08)
(1.82459 -3.79754e-06 5.38459e-08)
(1.81296 -4.81609e-06 3.9734e-08)
(1.79389 -1.05758e-05 1.00229e-07)
(1.76017 -1.51002e-05 1.54034e-07)
(1.70611 -5.57994e-05 2.14697e-07)
(1.62008 7.02021e-05 1.92643e-07)
(1.48577 0.000224677 1.04134e-07)
(1.28005 0.00124575 -5.49213e-08)
(0.785742 0.0055346 -5.27295e-07)
(-0.219503 0.0282238 -1.431e-06)
(-0.614621 0.0378286 1.47084e-06)
(-0.55729 0.0344575 -4.6773e-07)
(-0.556175 0.0369653 -5.28553e-07)
(-0.570407 0.0378758 -2.23651e-07)
(-0.533434 0.0370292 -5.47633e-08)
(-0.456907 0.0357667 2.7062e-08)
(-0.3626 0.0343818 9.71567e-08)
(-0.243184 0.0332611 1.23265e-07)
(-0.197079 0.0336176 1.36927e-07)
(0.0239144 0.0342067 1.56554e-07)
(1.81699 2.80913e-08 4.81764e-09)
(1.84233 1.33029e-07 1.5656e-08)
(1.84029 2.21558e-07 1.69237e-08)
(1.83716 3.21722e-07 1.83598e-08)
(1.83219 4.77674e-07 2.76774e-08)
(1.82458 7.43038e-07 4.58274e-08)
(1.81295 2.51485e-06 4.34943e-08)
(1.79388 2.97927e-07 8.14225e-08)
(1.76013 -1.29229e-06 1.36675e-07)
(1.70616 -6.5269e-05 2.31276e-07)
(1.62034 0.000236425 3.04435e-07)
(1.4869 0.000748722 1.81421e-07)
(1.28583 0.00373785 4.37444e-08)
(0.810486 0.0162829 -1.5134e-07)
(-0.186805 0.0810779 -2.66887e-07)
(-0.603037 0.104045 -2.10262e-08)
(-0.554366 0.091465 -7.73784e-07)
(-0.548801 0.0950087 -5.76721e-07)
(-0.564372 0.0959642 -2.81128e-07)
(-0.528788 0.0944929 -7.70931e-08)
(-0.453132 0.0920345 2.09175e-08)
(-0.360546 0.0898441 9.47708e-08)
(-0.241504 0.0878153 1.21221e-07)
(-0.196597 0.0886804 1.36835e-07)
(0.0251167 0.0893516 1.56811e-07)
(1.81699 -4.51117e-07 1.16156e-08)
(1.84233 -1.01815e-06 2.27893e-08)
(1.8403 -1.8502e-06 2.47746e-08)
(1.83716 -2.95256e-06 2.43501e-08)
(1.83219 -4.45934e-06 4.47092e-08)
(1.82459 -6.65672e-06 8.25993e-08)
(1.81296 -7.43394e-06 6.72366e-08)
(1.79388 -1.55904e-05 7.6049e-08)
(1.76012 -1.70992e-05 2.05334e-07)
(1.70627 -3.00236e-05 4.73344e-07)
(1.62084 0.000111952 6.06437e-07)
(1.48917 0.000915802 5.84152e-07)
(1.29699 0.00552724 6.9349e-07)
(0.862779 0.0245484 1.19221e-06)
(-0.117664 0.125198 5.59999e-06)
(-0.587826 0.178234 -3.64903e-06)
(-0.552412 0.155434 -4.00189e-07)
(-0.53656 0.159866 -4.5169e-07)
(-0.553853 0.162236 -3.76909e-07)
(-0.520516 0.160966 -1.43247e-07)
(-0.446523 0.1578 -6.16929e-09)
(-0.356653 0.154747 8.81883e-08)
(-0.238219 0.151536 1.17758e-07)
(-0.195411 0.153327 1.37734e-07)
(0.0277011 0.154067 1.58317e-07)
(1.81699 3.11632e-07 1.00825e-09)
(1.84233 5.08067e-07 8.15917e-09)
(1.84029 7.79325e-07 9.01852e-09)
(1.83715 1.21234e-06 1.05589e-08)
(1.83219 1.88549e-06 1.66715e-08)
(1.82458 2.63235e-06 2.95755e-08)
(1.81294 5.55273e-06 2.83556e-08)
(1.79387 6.10736e-06 5.03977e-08)
(1.76012 2.51276e-05 9.85011e-08)
(1.70625 0.000174001 1.9341e-07)
(1.62128 -0.000225259 3.59795e-07)
(1.49225 0.000910005 3.33802e-07)
(1.31137 0.00663856 3.64724e-07)
(0.930542 0.0293279 4.65339e-07)
(-0.00769805 0.148605 8.80919e-07)
(-0.557693 0.254653 -1.13454e-06)
(-0.551897 0.217394 -7.0623e-07)
(-0.519374 0.22446 -4.30652e-07)
(-0.53734 0.228888 -3.40935e-07)
(-0.507904 0.228946 -1.47748e-07)
(-0.436707 0.226122 -1.10016e-08)
(-0.350808 0.222635 8.31814e-08)
(-0.232738 0.218237 1.17462e-07)
(-0.193117 0.221747 1.41334e-07)
(0.031961 0.22259 1.61961e-07)
(1.81699 1.63284e-08 1.0828e-08)
(1.84233 1.86376e-07 2.13209e-08)
(1.8403 5.30716e-07 2.3185e-08)
(1.83716 7.38483e-07 2.24872e-08)
(1.8322 1.79476e-07 4.21321e-08)
(1.82459 -1.84491e-06 7.84326e-08)
(1.81296 -9.72513e-06 6.89685e-08)
(1.7939 6.87728e-06 2.30715e-08)
(1.76027 -8.74359e-05 3.29216e-07)
(1.70609 0.000330279 3.33502e-07)
(1.62166 -0.000969127 5.6863e-07)
(1.49595 0.000706175 5.47739e-07)
(1.32682 0.00638711 6.40138e-07)
(1.0037 0.029569 1.32567e-06)
(0.144464 0.149338 7.01461e-06)
(-0.509987 0.327583 -2.39969e-06)
(-0.555788 0.277414 -6.12349e-07)
(-0.497633 0.288148 -3.44973e-07)
(-0.516132 0.295148 -3.09516e-07)
(-0.490967 0.297013 -9.75196e-08)
(-0.423157 0.295721 1.71592e-08)
(-0.342343 0.292732 8.42024e-08)
(-0.223612 0.28758 1.21591e-07)
(-0.189251 0.293721 1.46987e-07)
(0.0377315 0.295308 1.65921e-07)
(1.81699 3.13993e-09 7.41126e-10)
(1.84233 3.74097e-09 5.1977e-09)
(1.84029 -6.57089e-09 5.65158e-09)
(1.83716 8.41272e-08 5.84778e-09)
(1.83219 4.55408e-07 1.00767e-08)
(1.82458 2.25275e-06 1.90965e-08)
(1.81295 -7.35658e-06 1.35935e-08)
(1.7938 3.19625e-05 1.11897e-08)
(1.76039 -9.61264e-05 1.27242e-07)
(1.70546 0.000467097 5.20892e-08)
(1.62162 -0.00104223 2.76117e-07)
(1.49909 0.00121228 2.08564e-07)
(1.33973 0.00512069 2.07994e-07)
(1.07344 0.026359 4.88539e-07)
(0.33479 0.130674 1.62456e-06)
(-0.440745 0.391863 4.02853e-07)
(-0.560054 0.339137 -6.55096e-07)
(-0.471876 0.350659 -2.31478e-07)
(-0.48982 0.361276 -1.68065e-07)
(-0.469243 0.365881 -1.58496e-08)
(-0.40512 0.367484 5.28171e-08)
(-0.330514 0.366634 9.80024e-08)
(-0.209244 0.361377 1.32038e-07)
(-0.182643 0.371651 1.55221e-07)
(0.0457646 0.375237 1.70695e-07)
(1.81699 -4.98387e-07 8.08585e-09)
(1.84233 -1.52039e-06 1.70556e-08)
(1.8403 -3.00139e-06 1.80744e-08)
(1.83716 -4.51441e-06 1.80462e-08)
(1.8322 -5.43837e-06 2.63543e-08)
(1.82459 -3.71585e-06 4.10868e-08)
(1.81299 -1.26118e-05 3.79183e-08)
(1.79383 1.01967e-05 6.70868e-08)
(1.76064 -4.93872e-05 1.76934e-07)
(1.70525 0.000240719 1.83753e-07)
(1.6223 -0.000692869 2.06422e-07)
(1.50199 0.00144793 1.3512e-07)
(1.35129 0.00215448 2.07571e-07)
(1.13687 0.0212713 3.40509e-07)
(0.542442 0.108908 1.4966e-07)
(-0.327744 0.428 1.62934e-08)
(-0.555499 0.410025 5.08708e-07)
(-0.445345 0.410958 -1.60276e-08)
(-0.458248 0.426715 -5.15199e-08)
(-0.442175 0.43536 2.54831e-08)
(-0.381495 0.440723 8.26009e-08)
(-0.314517 0.444948 1.2124e-07)
(-0.187842 0.440954 1.48906e-07)
(-0.171859 0.45699 1.63576e-07)
(0.0564192 0.46388 1.77501e-07)
(1.81699 -1.61435e-07 3.21341e-09)
(1.84233 -9.3293e-08 7.84636e-09)
(1.84029 -1.3723e-07 8.45293e-09)
(1.83715 -2.82169e-07 9.41627e-09)
(1.83218 -7.97218e-07 1.34245e-08)
(1.82456 -1.52504e-06 2.12381e-08)
(1.81296 -4.44479e-06 2.04018e-08)
(1.79377 6.58579e-06 3.40273e-08)
(1.76059 -2.50053e-05 7.8947e-08)
(1.70494 5.07174e-06 8.61281e-08)
(1.62261 -0.000315696 1.33091e-07)
(1.50225 0.000242783 1.28506e-07)
(1.35948 -0.00120614 8.81655e-08)
(1.18785 0.0166989 -7.24331e-09)
(0.746792 0.0887704 -4.29647e-07)
(-0.164042 0.412394 -1.73238e-06)
(-0.525728 0.492848 9.99026e-07)
(-0.428555 0.46837 1.00159e-08)
(-0.421072 0.490658 -3.93463e-08)
(-0.409394 0.504865 5.33216e-08)
(-0.350939 0.514881 1.11513e-07)
(-0.292668 0.527557 1.41941e-07)
(-0.157273 0.527722 1.61022e-07)
(-0.155335 0.552488 1.7073e-07)
(0.0701452 0.568234 1.87476e-07)
(1.81699 8.03149e-08 4.94422e-09)
(1.84233 1.07156e-07 1.34713e-08)
(1.8403 5.99595e-08 1.47059e-08)
(1.83716 -7.53675e-08 1.73364e-08)
(1.8322 -6.83009e-07 2.48856e-08)
(1.82458 -2.47904e-06 3.93572e-08)
(1.81299 -7.01403e-08 5.06274e-08)
(1.79381 1.05483e-06 7.49812e-08)
(1.76063 3.455e-07 1.30064e-07)
(1.70499 -5.3834e-05 2.0623e-07)
(1.62231 7.1755e-05 4.08088e-07)
(1.50104 -0.000569064 2.02968e-07)
(1.3664 -0.0021927 1.86888e-07)
(1.22505 0.0135661 -3.83056e-08)
(0.921333 0.0682043 -4.48672e-07)
(0.0700133 0.325991 -1.3475e-06)
(-0.451233 0.575719 2.0574e-07)
(-0.429736 0.521706 -5.81633e-08)
(-0.378897 0.551293 -3.52895e-08)
(-0.370353 0.573768 6.89957e-08)
(-0.311857 0.59026 1.27096e-07)
(-0.26311 0.612344 1.55494e-07)
(-0.114453 0.620727 1.71162e-07)
(-0.126685 0.657373 1.78718e-07)
(0.0906275 0.696315 1.91914e-07)
(1.81699 2.37722e-07 2.15021e-09)
(1.84233 1.65932e-07 6.87396e-09)
(1.84029 1.7402e-07 7.58058e-09)
(1.83715 1.08531e-07 9.4969e-09)
(1.83218 -4.39785e-08 1.33303e-08)
(1.82456 -1.52918e-06 2.11009e-08)
(1.81296 4.1895e-06 3.19472e-08)
(1.79377 -2.1629e-06 2.69178e-08)
(1.76055 1.95318e-05 6.78032e-08)
(1.70501 -9.22305e-05 1.21609e-07)
(1.62218 0.000188773 2.72441e-07)
(1.49998 -0.000284211 1.89761e-07)
(1.372 -0.00111262 2.26055e-07)
(1.25194 0.00944849 6.63043e-08)
(1.04108 0.0473228 -2.54975e-07)
(0.355198 0.211301 -8.15191e-07)
(-0.32155 0.631434 -1.02478e-07)
(-0.444633 0.573511 -5.73694e-08)
(-0.332191 0.606629 -3.32727e-08)
(-0.32323 0.641359 5.29541e-08)
(-0.263901 0.665932 1.15956e-07)
(-0.225458 0.697416 1.66358e-07)
(-0.0585475 0.722398 1.69405e-07)
(-0.0687203 0.77979 1.878e-07)
(0.120395 0.898743 1.83788e-07)
(1.81699 1.6066e-10 2.94474e-09)
(1.84233 -2.36054e-09 8.62981e-09)
(1.8403 -5.32915e-09 9.36613e-09)
(1.83716 -1.83147e-08 1.15186e-08)
(1.8322 -5.51405e-08 1.46253e-08)
(1.82459 -2.11249e-07 2.07098e-08)
(1.81296 4.9748e-07 3.46538e-08)
(1.7939 -1.68193e-06 4.66726e-08)
(1.76019 -1.76516e-06 7.22486e-08)
(1.70614 -3.83274e-05 1.2429e-07)
(1.62012 8.72367e-05 2.63584e-07)
(1.4858 0.000236882 2.10607e-07)
(1.28004 0.00125232 1.41706e-07)
(0.785677 0.00554579 3.85061e-08)
(-0.219508 0.028257 1.11369e-07)
(-0.61459 0.0378475 -1.99947e-07)
(-0.557261 0.0344571 -1.35306e-07)
(-0.556168 0.0369665 -1.23506e-07)
(-0.570411 0.0378757 -7.09774e-08)
(-0.53344 0.0370288 3.00594e-08)
(-0.456915 0.0357666 6.36919e-08)
(-0.362606 0.0343819 9.91098e-08)
(-0.243189 0.0332613 9.66802e-08)
(-0.197081 0.0336179 6.83482e-08)
(0.0239118 0.034207 5.24784e-08)
(1.81699 -1.01422e-09 4.78216e-09)
(1.84233 -1.18025e-08 1.16336e-08)
(1.8403 -1.99419e-08 1.25073e-08)
(1.83716 -5.07997e-08 1.45035e-08)
(1.8322 -1.18711e-07 1.88924e-08)
(1.82459 -3.88261e-07 2.69493e-08)
(1.81296 3.24296e-07 3.87324e-08)
(1.79389 -1.94102e-06 6.39706e-08)
(1.76016 -7.01596e-06 9.02733e-08)
(1.7062 -8.19446e-05 1.39307e-07)
(1.62038 0.000201028 2.08067e-07)
(1.48693 0.00069277 1.75435e-07)
(1.28583 0.00366987 1.29677e-07)
(0.810464 0.0162295 9.38913e-08)
(-0.186795 0.0810776 1.25494e-07)
(-0.602991 0.104071 -1.66062e-08)
(-0.554334 0.0914753 -9.37885e-08)
(-0.548791 0.0950126 -1.31862e-07)
(-0.564377 0.0959632 -8.85516e-08)
(-0.528793 0.094491 2.24659e-08)
(-0.45314 0.0920337 6.23465e-08)
(-0.360551 0.0898442 9.48319e-08)
(-0.241509 0.0878157 8.61485e-08)
(-0.196599 0.0886811 5.42615e-08)
(0.0251141 0.0893524 3.58696e-09)
(1.81699 -3.85981e-09 2.7635e-09)
(1.84233 -2.13122e-08 6.59789e-09)
(1.8403 -3.48251e-08 7.07106e-09)
(1.83716 -7.65364e-08 7.73364e-09)
(1.8322 -1.67556e-07 1.0836e-08)
(1.82459 -5.36494e-07 1.67346e-08)
(1.81296 6.06762e-07 1.44217e-08)
(1.79389 -1.63287e-06 3.75547e-08)
(1.76013 2.20188e-07 4.69973e-08)
(1.70629 -1.87932e-05 6.58033e-08)
(1.62085 0.000114019 1.09034e-07)
(1.48918 0.000910972 1.35742e-07)
(1.29701 0.00553374 1.86992e-07)
(0.862769 0.0245827 2.6372e-07)
(-0.117771 0.125212 1.75009e-07)
(-0.587876 0.178287 1.80204e-07)
(-0.552417 0.15545 5.72488e-09)
(-0.536565 0.159859 -1.70595e-07)
(-0.553862 0.162223 -1.19388e-07)
(-0.520521 0.16096 9.06084e-09)
(-0.44653 0.157798 6.17598e-08)
(-0.356658 0.154747 9.41665e-08)
(-0.238224 0.151537 7.89332e-08)
(-0.195413 0.153328 4.76988e-08)
(0.0276985 0.154069 -1.05185e-07)
(1.81699 -6.36547e-09 5.66544e-09)
(1.84233 -1.76427e-08 1.16311e-08)
(1.8403 -2.73456e-08 1.22798e-08)
(1.83716 -5.22844e-08 1.21047e-08)
(1.8322 -1.0614e-07 1.78931e-08)
(1.82459 -3.7204e-07 2.91925e-08)
(1.81296 1.0055e-06 1.56856e-08)
(1.79389 -6.32879e-07 6.03323e-08)
(1.76015 1.74545e-05 7.37905e-08)
(1.70627 0.000162573 1.03786e-07)
(1.62129 -0.000237661 1.8769e-07)
(1.49223 0.000886565 2.39434e-07)
(1.31129 0.00661213 3.12741e-07)
(0.930235 0.0293041 1.70448e-07)
(-0.00827012 0.148586 -1.27759e-06)
(-0.557961 0.254646 8.642e-07)
(-0.552025 0.217349 -1.30086e-07)
(-0.519419 0.224408 -2.68661e-07)
(-0.537351 0.228859 -1.7158e-07)
(-0.507903 0.228935 -4.06195e-08)
(-0.436711 0.226118 5.58744e-08)
(-0.350811 0.222634 9.67774e-08)
(-0.232742 0.218238 7.31102e-08)
(-0.193118 0.221748 3.88261e-08)
(0.0319587 0.222592 -1.95426e-07)
(1.81699 -3.45208e-09 -1.65877e-10)
(1.84233 1.14954e-08 4.16434e-09)
(1.8403 2.4563e-08 4.5492e-09)
(1.83716 7.71133e-08 5.31626e-09)
(1.8322 2.61167e-07 7.6629e-09)
(1.82459 1.00474e-06 1.27257e-08)
(1.81296 -3.47375e-06 1.30094e-08)
(1.7939 1.89008e-05 2.58148e-08)
(1.76027 -4.45561e-05 5.40731e-08)
(1.70608 0.00043919 7.3101e-08)
(1.62163 -0.000807591 1.91113e-07)
(1.49588 0.000974296 1.36305e-07)
(1.3267 0.00670982 4.47666e-08)
(1.00342 0.0298736 -3.6865e-07)
(0.143875 0.149786 -2.46853e-06)
(-0.510524 0.327796 1.5819e-06)
(-0.555986 0.277049 -9.32171e-07)
(-0.497652 0.288027 -5.36738e-07)
(-0.516117 0.295108 -2.5235e-07)