/*--------------------------------*- C++ -*----------------------------------*\
| =========                 |                                                 |
| \\      /  F ield         | OpenFOAM: The Open Source CFD Toolbox           |
|  \\    /   O peration     | Version:  4.1                                   |
|   \\  /    A nd           | Web:      www.OpenFOAM.org                      |
|    \\/     M anipulation  |                                                 |
\*---------------------------------------------------------------------------*/
FoamFile
{
    version     2.0;
    format      ascii;
    class       surfaceScalarField;
    location    "7.64";
    object      phi;
}
// * * * * * * * * * * * * * * * * * * * * * * * * * * * * * * * * * * * * * //

dimensions      [1 0 -1 0 0 0 0];

internalField   nonuniform List<scalar> 
150500
(
0.0168001
1.91526e-10
-3.53549e-12
0.0168001
1.07013e-09
-1.15737e-11
0.0168001
3.97416e-09
-1.3661e-11
0.0168
1.02279e-08
-2.13887e-11
0.0168
2.80728e-08
-2.18693e-11
0.0167999
6.43044e-08
-2.89327e-11
0.0167998
1.66537e-07
-2.95937e-11
0.0167994
3.75694e-07
-4.0295e-11
0.0167983
9.66741e-07
-4.23739e-11
0.016796
2.2117e-06
-8.79671e-11
0.0167893
5.93058e-06
-5.54009e-11
0.0167732
1.57956e-05
-3.19993e-10
0.0167162
5.41466e-05
-2.7319e-10
0.0165421
0.000168688
-1.36112e-09
0.0155138
0.00100948
-2.80126e-09
0.014358
0.00115695
-6.73593e-11
0.0131816
0.0011762
-2.87478e-10
0.0119283
0.00125176
-5.10331e-10
0.0105896
0.00133702
-5.32735e-10
0.00915046
0.00143757
-5.47869e-10
0.00758823
0.00156062
-5.50283e-10
0.00589273
0.0016939
-5.64591e-10
0.0040716
0.00181903
-5.69108e-10
0.00211905
0.00195039
-5.66538e-10
0.00211729
-5.64547e-10
0.0168001
3.9422e-10
-3.5256e-12
0.0168001
2.20202e-09
-1.15818e-11
0.0168001
8.18492e-09
-1.36522e-11
0.0168
2.10632e-08
-2.13979e-11
0.0168
5.78596e-08
-2.18789e-11
0.0167999
1.32484e-07
-2.89677e-11
0.0167997
3.43837e-07
-2.96739e-11
0.0167993
7.71574e-07
-4.04826e-11
0.0167981
2.01238e-06
-4.2693e-11
0.0167958
4.49771e-06
-8.88748e-11
0.0167885
1.24229e-05
-5.58321e-11
0.0167721
3.19146e-05
-3.21194e-10
0.016712
0.000111437
-2.72613e-10
0.0165318
0.000343438
-1.35146e-09
0.0154894
0.00203291
-2.79872e-09
0.0143163
0.00233126
-4.81717e-11
0.0131513
0.00234095
-2.80247e-10
0.0119112
0.00249035
-5.096e-10
0.0105799
0.00266662
-5.25951e-10
0.00912855
0.00288737
-5.4133e-10
0.00754717
0.00314043
-5.44396e-10
0.00583284
0.00340657
-5.59538e-10
0.00399079
0.00365894
-5.6497e-10
0.00202987
0.00390917
-5.64098e-10
0.00414532
-5.67561e-10
0.0168001
6.32064e-10
-3.50786e-12
0.0168001
3.49912e-09
-1.15942e-11
0.0168
1.30116e-08
-1.36357e-11
0.0168
3.34359e-08
-2.1412e-11
0.0168
9.212e-08
-2.18875e-11
0.0167999
2.11997e-07
-2.90065e-11
0.0167997
5.44576e-07
-2.97549e-11
0.0167992
1.27166e-06
-4.05445e-11
0.016798
3.04013e-06
-4.3101e-11
0.016795
7.52935e-06
-8.8414e-11
0.0167883
1.82235e-05
-5.68985e-11
0.0167711
4.87968e-05
-3.17591e-10
0.0167124
0.000167252
-2.76855e-10
0.0165366
0.000513965
-1.34467e-09
0.0155156
0.00303441
-2.85031e-09
0.0143298
0.0035186
-2.03452e-11
0.0131684
0.0035022
-2.7231e-10
0.0119397
0.0037174
-5.00875e-10
0.0106195
0.00398514
-5.12634e-10
0.00917314
0.00433213
-5.24534e-10
0.00758874
0.00472326
-5.34873e-10
0.0058679
0.00512588
-5.5366e-10
0.00400421
0.00552044
-5.63021e-10
0.0020312
0.00588005
-5.67369e-10
0.00617471
-5.79635e-10
0.0168001
8.19588e-10
-3.47614e-12
0.0168001
4.53506e-09
-1.16276e-11
0.0168001
1.68794e-08
-1.36293e-11
0.0168
4.33914e-08
-2.15017e-11
0.0168
1.19778e-07
-2.20872e-11
0.0167999
2.75962e-07
-2.95556e-11
0.0167997
7.1186e-07
-3.08187e-11
0.0167994
1.65494e-06
-4.56889e-11
0.0167982
4.0343e-06
-4.09698e-11
0.016796
9.67608e-06
-1.26322e-10
0.0167883
2.51868e-05
-1.23497e-11
0.0167721
6.44291e-05
-3.62933e-10
0.0167176
0.00021893
-2.09986e-10
0.016547
0.000679237
-1.31978e-09
0.0155742
0.00398702
-2.84918e-09
0.0143794
0.00471535
3.6129e-11
0.0132233
0.00465829
-2.75296e-10
0.0120134
0.00492566
-5.01688e-10
0.0107151
0.00528175
-5.04687e-10
0.00928657
0.00575916
-5.05343e-10
0.00771321
0.00629481
-5.2154e-10
0.00599158
0.00684592
-5.41737e-10
0.00412066
0.00738917
-5.54226e-10
0.00209359
0.00790477
-5.64295e-10
0.00826645
-5.84418e-10
0.0168001
9.44971e-10
-3.43205e-12
0.0168001
5.20824e-09
-1.16414e-11
0.0168001
1.94201e-08
-1.35229e-11
0.0168
4.97733e-08
-2.15905e-11
0.0168
1.37853e-07
-2.16073e-11
0.0168
3.16642e-07
-2.91972e-11
0.0167998
8.26586e-07
-2.96176e-11
0.0167996
1.88556e-06
-4.05515e-11
0.0167987
4.83628e-06
-4.36232e-11
0.0167973
1.09779e-05
-7.95311e-11
0.0167899
3.17889e-05
-1.02598e-10
0.0167759
7.80417e-05
-2.56517e-10
0.0167236
0.000268445
-3.39624e-10
0.0165568
0.000840183
-1.37256e-09
0.0156626
0.00486003
-3.00414e-09
0.0144467
0.00593387
1.89711e-10
0.0132958
0.00580911
-1.8802e-10
0.0121142
0.00610567
-4.64718e-10
0.0108535
0.00654085
-4.7003e-10
0.00946793
0.00714338
-4.71174e-10
0.00792387
0.00783741
-4.87355e-10
0.00620827
0.0085595
-5.12399e-10
0.00430153
0.00929462
-5.30335e-10
0.00222488
0.00997915
-5.46932e-10
0.0104893
-5.72027e-10
0.0168001
9.63901e-10
-3.38672e-12
0.0168001
5.31691e-09
-1.16508e-11
0.0168001
1.98479e-08
-1.34629e-11
0.0168001
5.06327e-08
-2.17399e-11
0.0168
1.40479e-07
-2.13296e-11
0.0168
3.18952e-07
-2.93392e-11
0.0168
8.54261e-07
-2.94384e-11
0.0168
1.83353e-06
-4.07628e-11
0.0167994
5.32966e-06
-4.34322e-11
0.0167995
1.08814e-05
-8.01964e-11
0.0167942
3.6222e-05
-1.06121e-10
0.0167903
8.16337e-05
-2.51346e-10
0.0167061
0.000349823
-3.74749e-10
0.0165658
0.000975892
-1.38508e-09
0.0157846
0.00561862
-3.17282e-09
0.0145332
0.00718922
3.42279e-10
0.0133951
0.00694792
-1.00933e-10
0.0122488
0.00725048
-4.36842e-10
0.0110364
0.00775143
-4.44165e-10
0.00969986
0.00847829
-4.41618e-10
0.00820286
0.00933295
-4.48497e-10
0.00651714
0.0102436
-4.70784e-10
0.00460035
0.0112084
-4.90948e-10
0.00240713
0.0121699
-5.12907e-10
0.0128945
-5.42404e-10
0.0168001
9.52165e-10
-3.35046e-12
0.0168001
5.30852e-09
-1.16403e-11
0.0168001
1.98319e-08
-1.3501e-11
0.0168001
5.06761e-08
-2.15387e-11
0.0168001
1.39944e-07
-2.15243e-11
0.0168001
3.15162e-07
-2.9008e-11
0.0168
8.64276e-07
-2.92845e-11
0.0168001
1.69842e-06
-3.95395e-11
0.0167994
5.96722e-06
-4.30801e-11
0.0168009
9.30083e-06
-7.47888e-11
0.0167914
4.4929e-05
-1.03703e-10
0.0167889
8.3697e-05
-2.37315e-10
0.0167379
0.000397887
-3.91467e-10
0.016633
0.00107628
-1.36463e-09
0.0161938
0.00603336
-3.36322e-09
0.0148521
0.00853564
3.70731e-10
0.013664
0.00813725
-6.94385e-11
0.0125207
0.00839294
-4.15152e-10
0.0113527
0.00891857
-4.20904e-10
0.0100751
0.00975497
-4.15002e-10
0.00862437
0.0107821
-4.12765e-10
0.00696078
0.0119061
-4.30922e-10
0.00502641
0.0131413
-4.50074e-10
0.00273574
0.0144583
-4.71116e-10
0.0156281
-4.98237e-10
0.0168001
1.18142e-09
-3.33573e-12
0.0168001
6.50708e-09
-1.15872e-11
0.0168001
2.41829e-08
-1.36162e-11
0.0168
6.18627e-08
-2.13536e-11
0.0168
1.70889e-07
-2.18361e-11
0.0167999
3.9009e-07
-2.89315e-11
0.0167997
1.02992e-06
-2.96807e-11
0.0167992
2.25853e-06
-4.15279e-11
0.0167986
6.41266e-06
-4.0119e-11
0.0167957
1.22554e-05
-1.05458e-10
0.0167938
4.58811e-05
-3.32854e-11
0.0167862
9.1237e-05
-3.08746e-10
0.0167789
0.000402143
-2.60109e-10
0.0167685
0.00108273
-1.27256e-09
0.0169688
0.0058077
-3.24877e-09
0.0155295
0.00997947
2.94132e-10
0.0141883
0.00947957
-1.28835e-10
0.0129916
0.00958853
-4.02718e-10
0.0118372
0.0100721
-4.05325e-10
0.0106035
0.0109879
-4.0159e-10
0.00922111
0.0121633
-3.89134e-10
0.00760724
0.0135185
-3.97793e-10
0.00568052
0.0150659
-4.09519e-10
0.00325012
0.0168866
-4.27077e-10
0.0188762
-4.49514e-10
0.0168001
1.4992e-09
-3.28986e-12
0.0168001
6.71015e-09
-1.15966e-11
0.0168001
2.65861e-08
-1.35794e-11
0.0168001
6.58927e-08
-2.13058e-11
0.0168
1.85472e-07
-2.16264e-11
0.0168
4.15448e-07
-2.84522e-11
0.0167999
1.10846e-06
-2.85275e-11
0.0167998
2.40161e-06
-3.67494e-11
0.0167994
6.62968e-06
-4.10686e-11
0.0167983
1.33429e-05
-6.10295e-11
0.0167991
4.42662e-05
-8.21604e-11
0.0168053
8.47565e-05
-2.0856e-10
0.0168411
0.000363334
-3.4431e-10
0.0169877
0.000932342
-1.14047e-09
0.0182212
0.00454829
-3.1738e-09
0.0166777
0.0115276
-1.02771e-10
0.0150054
0.0111546
-2.97655e-10
0.0137698
0.010825
-3.22916e-10
0.0126091
0.0112322
-3.55679e-10
0.0113978
0.0121982
-3.92009e-10
0.0100471
0.0135134
-3.75239e-10
0.00855849
0.0150064
-3.75924e-10
0.00675944
0.0168633
-3.78284e-10
0.00422783
0.0194156
-3.82675e-10
0.0231016
-3.9521e-10
0.0168001
-3.33672e-12
2.70734e-09
0.0168001
-1.15227e-11
2.54958e-09
0.0168001
-1.37494e-11
3.72585e-08
0.0168001
-2.13733e-11
3.52491e-08
0.0168
-2.17455e-11
2.4932e-07
0.0168002
-2.8484e-11
2.3327e-07
0.0167998
-2.8393e-11
1.49984e-06
0.0168009
-3.63411e-11
1.30824e-06
0.0167981
-3.95962e-11
9.32459e-06
0.0168053
-5.87799e-11
6.02396e-06
0.0167833
-6.73841e-11
6.57586e-05
0.0168384
-2.05097e-10
2.92282e-05
0.0167297
-2.07921e-10
0.000469528
0.0170727
-7.95155e-10
0.000589482
0.0179564
-1.70043e-09
0.00364717
0.0171498
-1.3214e-09
0.0123235
0.0155933
-7.51536e-10
0.0127074
0.0145655
-1.72474e-10
0.0118536
0.0134232
-3.56681e-10
0.0123737
0.0123608
-3.85537e-10
0.0132592
0.0112045
-3.70426e-10
0.0146685
0.00992625
-3.64387e-10
0.0162836
0.00826442
-3.57197e-10
0.0185241
0.00584542
-3.46556e-10
0.0218325
-3.46075e-10
0.0289442
0.0168001
1.96445e-10
-6.22159e-16
0.0168001
1.07022e-09
-3.24858e-15
0.0168
3.98022e-09
-7.61617e-15
0.0168
1.02284e-08
-1.59749e-14
0.0168
2.80696e-08
-3.31385e-14
0.0167999
6.42847e-08
-6.33524e-14
0.0167998
1.66482e-07
-1.46504e-13
0.0167994
3.75554e-07
-2.87754e-13
0.0167983
9.66478e-07
-7.51688e-13
0.016796
2.21102e-06
-1.54341e-12
0.0167893
5.92992e-06
-4.1691e-12
0.0167732
1.57945e-05
-1.12452e-11
0.0167162
5.41458e-05
-3.02145e-11
0.0165421
0.000168694
-9.43192e-11
0.0155138
0.00100947
-2.42741e-10
0.014358
0.00115691
1.47677e-11
0.0131816
0.00117618
-3.93673e-12
0.0119283
0.00125175
-2.40261e-11
0.0105896
0.00133702
-2.57725e-11
0.00915047
0.00143759
-2.56183e-11
0.00758821
0.00156064
-2.5093e-11
0.00589268
0.00169393
-2.60875e-11
0.00407153
0.00181906
-2.76252e-11
0.00211899
0.00195038
-2.89738e-11
0.00211723
-2.99014e-11
0.0168001
4.03191e-10
-6.25613e-16
0.0168001
2.204e-09
-3.26364e-15
0.0168
8.19538e-09
-7.66724e-15
0.0168
2.1062e-08
-1.60868e-14
0.0168
5.78445e-08
-3.3443e-14
0.0167999
1.32419e-07
-6.39865e-14
0.0167997
3.43663e-07
-1.48086e-13
0.0167993
7.71126e-07
-2.91209e-13
0.0167981
2.01126e-06
-7.58726e-13
0.0167958
4.49586e-06
-1.56096e-12
0.0167885
1.24175e-05
-4.19575e-12
0.0167721
3.19147e-05
-1.12749e-11
0.016712
0.000111431
-3.03394e-11
0.0165318
0.000343451
-9.431e-11
0.0154894
0.00203289
-2.43911e-10
0.0143163
0.0023312
1.64365e-11
0.0131514
0.00234092
-3.36416e-12
0.0119112
0.00249034
-2.44425e-11
0.0105799
0.00266663
-2.54476e-11
0.00912853
0.0028874
-2.52557e-11
0.00754714
0.00314047
-2.48155e-11
0.00583279
0.00340662
-2.59036e-11
0.00399075
0.00365896
-2.74791e-11
0.00202985
0.00390915
-2.88154e-11
0.00414524
-2.97751e-11
0.0168001
6.47973e-10
-6.31936e-16
0.0168001
3.49664e-09
-3.29201e-15
0.0168
1.30221e-08
-7.75702e-15
0.0168
3.34116e-08
-1.6279e-14
0.0168
9.20207e-08
-3.39276e-14
0.0167999
2.11731e-07
-6.49271e-14
0.0167997
5.43971e-07
-1.5037e-13
0.0167992
1.26909e-06
-2.94637e-13
0.016798
3.04033e-06
-7.70148e-13
0.016795
7.51236e-06
-1.56967e-12
0.0167883
1.8238e-05
-4.25225e-12
0.0167711
4.87747e-05
-1.12595e-11
0.0167124
0.000167283
-3.06792e-11
0.0165366
0.000513978
-9.45316e-11
0.0155156
0.00303441
-2.47996e-10
0.0143298
0.00351847
2.41752e-11
0.0131684
0.00350212
-2.28429e-12
0.0119398
0.00371736
-2.44113e-11
0.0106196
0.00398513
-2.51424e-11
0.00917324
0.00433216
-2.46909e-11
0.00758883
0.00472329
-2.44376e-11
0.00586799
0.00512593
-2.56707e-11
0.00400428
0.00552048
-2.72696e-11
0.00203125
0.00588006
-2.85911e-11
0.00617468
-2.95329e-11
0.0168001
8.41434e-10
-6.62917e-16
0.0168001
4.54622e-09
-3.41338e-15
0.0168001
1.69448e-08
-8.21289e-15
0.0168
4.33902e-08
-1.73283e-14
0.0168
1.20019e-07
-3.69991e-14
0.0167999
2.76247e-07
-7.23187e-14
0.0167997
7.12576e-07
-1.65355e-13
0.0167994
1.65766e-06
-3.63704e-13
0.0167982
4.03387e-06
-7.47804e-13
0.016796
9.69828e-06
-2.0815e-12
0.0167883
2.51492e-05
-3.14621e-12
0.0167721
6.44706e-05
-1.17487e-11
0.0167176
0.000218863
-3.04749e-11
0.0165471
0.000679186
-9.53108e-11
0.0155745
0.00398682
-2.54953e-10
0.0143798
0.00471514
3.12279e-11
0.0132236
0.00465825
-1.32164e-12
0.0120137
0.00492565
-2.42562e-11
0.0107153
0.00528175
-2.46083e-11
0.00928681
0.00575918
-2.36405e-11
0.00771343
0.00629486
-2.36813e-11
0.00599178
0.00684599
-2.51797e-11
0.00412081
0.00738926
-2.66891e-11
0.00209369
0.00790484
-2.81245e-11
0.00826652
-2.90659e-11
0.0168001
9.67394e-10
-6.4322e-16
0.0168001
5.22273e-09
-3.3126e-15
0.0168001
1.94679e-08
-7.87828e-15
0.0168
4.97469e-08
-1.67755e-14
0.0168
1.38015e-07
-3.47934e-14
0.0168
3.1671e-07
-6.7849e-14
0.0167998
8.26873e-07
-1.56382e-13
0.0167996
1.88601e-06
-3.18252e-13
0.0167987
4.83749e-06
-7.83989e-13
0.0167974
1.09799e-05
-1.65474e-12
0.0167899
3.17936e-05
-4.73265e-12
0.016776
7.80454e-05
-1.14476e-11
0.0167235
0.000268428
-2.89624e-11
0.0165567
0.000840167
-9.89288e-11
0.0156624
0.0048599
-2.60933e-10
0.0144466
0.00593352
3.16618e-11
0.0132959
0.00580897
1.21192e-13
0.0121143
0.0061056
-2.42226e-11
0.0108537
0.00654083
-2.40893e-11
0.00946812
0.00714338
-2.25878e-11
0.00792407
0.00783745
-2.2765e-11
0.00620846
0.00855958
-2.45455e-11
0.00430169
0.00929473
-2.61266e-11
0.00222498
0.00997927
-2.76265e-11
0.0104895
-2.84868e-11
0.0168001
9.8191e-10
-6.07135e-16
0.0168001
5.33684e-09
-3.15184e-15
0.0168001
1.98513e-08
-7.33739e-15
0.0168001
5.07404e-08
-1.56108e-14
0.0168
1.40439e-07
-3.13711e-14
0.0168
3.19128e-07
-5.9961e-14
0.0168
8.54418e-07
-1.40641e-13
0.0168
1.83418e-06
-2.52159e-13
0.0167994
5.33004e-06
-7.89016e-13
0.0167995
1.08834e-05
-1.27347e-12
0.0167942
3.62246e-05
-4.91525e-12
0.0167903
8.16454e-05
-9.19658e-12
0.0167061
0.000349826
-3.83776e-11
0.0165657
0.000975942
-9.81345e-11
0.0157842
0.00561872
-2.76701e-10
0.0145329
0.00718879
4.55801e-11
0.0133949
0.00694766
5.60392e-12
0.0122487
0.00725033
-2.21433e-11
0.0110364
0.00775134
-2.21335e-11
0.00969988
0.00847824
-2.08223e-11
0.00820292
0.00933294
-2.11528e-11
0.00651724
0.0102437
-2.28229e-11
0.00460045
0.0112085
-2.46282e-11
0.00240721
0.0121701
-2.64556e-11
0.0128947
-2.76527e-11
0.0168001
9.6153e-10
-6.01492e-16
0.0168001
5.34338e-09
-3.12348e-15
0.0168001
1.98057e-08
-7.27676e-15
0.0168001
5.07651e-08
-1.54598e-14
0.0168001
1.39872e-07
-3.1239e-14
0.0168001
3.15231e-07
-5.98521e-14
0.0168
8.64251e-07
-1.41183e-13
0.0168001
1.69813e-06
-2.58537e-13
0.0167994
5.96911e-06
-7.93977e-13
0.0168009
9.29295e-06
-1.32449e-12
0.0167914
4.4961e-05
-5.0567e-12
0.0167889
8.36714e-05
-9.40547e-12
0.0167378
0.000397985
-3.92099e-11
0.0166328
0.0010764
-9.94884e-11
0.0161932
0.00603389
-2.92208e-10
0.0148515
0.00853514
5.10336e-11
0.0136636
0.00813684
1.00698e-11
0.0125205
0.00839269
-2.10826e-11
0.0113525
0.00891842
-2.10466e-11
0.010075
0.00975487
-1.9629e-11
0.00862429
0.010782
-1.96633e-11
0.00696076
0.0119061
-2.13984e-11
0.00502644
0.0131414
-2.36281e-11
0.00273577
0.0144585
-2.53889e-11
0.0156284
-2.6622e-11
0.0168001
1.2017e-09
-5.70328e-16
0.0168001
6.51132e-09
-3.01193e-15
0.0168001
2.42122e-08
-6.87656e-15
0.0168
6.18813e-08
-1.42968e-14
0.0168
1.70992e-07
-2.86154e-14
0.0167999
3.90328e-07
-5.29622e-14
0.0167997
1.03058e-06
-1.26717e-13
0.0167992
2.26099e-06
-1.948e-13
0.0167986
6.41358e-06
-8.19322e-13
0.0167956
1.22772e-05
-6.77756e-13
0.0167938
4.58673e-05
-6.15049e-12
0.0167861
9.12911e-05
-7.56277e-12
0.016779
0.000402126
-4.05911e-11
0.0167685
0.00108289
-9.68882e-11
0.0169684
0.00580858
-2.98264e-10
0.0155292
0.00997896
4.92173e-11
0.014188
0.00947906
1.35353e-11
0.0129914
0.00958824
-1.74207e-11
0.0118369
0.0100719
-1.85813e-11
0.0106033
0.0109877
-1.92393e-11
0.00922096
0.0121631
-1.83401e-11
0.00760715
0.0135184
-1.94598e-11
0.00568048
0.0150659
-2.14927e-11
0.00325011
0.0168867
-2.37408e-11
0.0188764
-2.54848e-11
0.0168001
1.46317e-09
-5.84238e-16
0.0168001
6.82232e-09
-3.05764e-15
0.0168001
2.64265e-08
-7.08723e-15
0.0168
6.57777e-08
-1.48171e-14
0.0168
1.85251e-07
-3.02536e-14
0.0168
4.15356e-07
-5.74594e-14
0.0167999
1.1085e-06
-1.33208e-13
0.0167998
2.40235e-06
-2.55359e-13
0.0167994
6.63109e-06
-7.17374e-13
0.0167983
1.33494e-05
-1.30529e-12
0.0167991
4.42749e-05
-4.91584e-12
0.0168053
8.47813e-05
-7.88466e-12
0.016841
0.000363411
-3.67513e-11
0.0169875
0.000932596
-9.08136e-11
0.0182202
0.00454996
-2.97133e-10
0.0166769
0.011527
1.4688e-11
0.015005
0.0111536
-3.84051e-12
0.0137694
0.0108247
-1.19557e-11
0.0126089
0.011232
-1.60169e-11
0.0113976
0.012198
-2.04464e-11
0.0100469
0.0135133
-1.82783e-11
0.00855835
0.0150063
-1.90935e-11
0.00675935
0.0168633
-2.03291e-11
0.0042278
0.0194156
-2.27063e-11
0.0231018
-2.48407e-11
0.0168001
-5.60157e-16
2.57874e-09
0.0168001
-2.94849e-15
2.92253e-09
0.0168001
-6.71145e-15
3.60904e-08
0.0168001
-1.39696e-14
3.57057e-08
0.0168
-2.76707e-14
2.48082e-07
0.0168002
-5.2025e-14
2.33864e-07
0.0167998
-1.16487e-13
1.49882e-06
0.0168009
-2.23725e-13
1.30925e-06
0.0167981
-5.88848e-13
9.32437e-06
0.0168053
-1.1755e-12
6.02788e-06
0.0167833
-3.23185e-12
6.57575e-05
0.0168384
-8.13922e-12
2.92592e-05
0.0167298
-2.13204e-11
0.000469533
0.0170728
-5.73212e-11
0.00058971
0.0179578
-1.54332e-10
0.00364752
0.0171502
-1.04937e-10
0.0123238
0.015593
-5.42883e-11
0.0127072
0.0145653
-2.3815e-12
0.0118532
0.013423
-2.05232e-11
0.0123734
0.0123607
-2.27654e-11
0.013259
0.0112044
-2.04199e-11
0.0146684
0.00992612
-2.02156e-11
0.0162835
0.00826432
-2.09566e-11
0.018524
0.00584536
-2.34308e-11
0.0218326
-2.75172e-11
0.0289444
0.0168001
1.96444e-10
1.80862e-16
0.0168001
1.07021e-09
-1.2487e-17
0.0168
3.98018e-09
-2.70906e-16
0.0168
1.02283e-08
-5.85818e-16
0.0168
2.80694e-08
-1.66376e-15
0.0167999
6.42842e-08
-3.40692e-15
0.0167998
1.6648e-07
-9.57738e-15
0.0167994
3.75551e-07
-1.96655e-14
0.0167983
9.66472e-07
-5.54777e-14
0.016796
2.211e-06
-1.16062e-13
0.0167893
5.9299e-06
-3.2383e-13
0.0167732
1.57944e-05
-8.78867e-13
0.0167162
5.41457e-05
-2.40499e-12
0.0165421
0.000168694
-7.53573e-12
0.0155138
0.00100947
-1.9568e-11
0.014358
0.00115691
9.53512e-13
0.0131816
0.00117618
-4.67647e-13
0.0119283
0.00125175
-2.03992e-12
0.0105896
0.00133702
-2.17413e-12
0.00915048
0.00143759
-2.16414e-12
0.00758822
0.00156065
-2.10051e-12
0.00589269
0.00169393
-2.18225e-12
0.00407153
0.00181906
-2.30539e-12
0.00211899
0.00195039
-2.40853e-12
0.00211723
-2.47775e-12
0.0168001
4.03188e-10
1.81024e-16
0.0168001
2.20398e-09
4.48165e-18
0.0168
8.1953e-09
-2.74829e-16
0.0168
2.10618e-08
-5.94315e-16
0.0168
5.78439e-08
-1.68682e-15
0.0167999
1.32418e-07
-3.45485e-15
0.0167997
3.4366e-07
-9.69765e-15
0.0167993
7.71118e-07
-1.99292e-14
0.0167981
2.01124e-06
-5.60218e-14
0.0167958
4.49583e-06
-1.17416e-13
0.0167885
1.24174e-05
-3.25975e-13
0.0167721
3.19147e-05
-8.81221e-13
0.016712
0.000111431
-2.41548e-12
0.0165318
0.000343452
-7.53656e-12
0.0154894
0.00203289
-1.96659e-11
0.0143163
0.00233119
1.08526e-12
0.0131514
0.00234092
-4.22467e-13
0.0119112
0.00249034
-2.07171e-12
0.0105799
0.00266663
-2.1514e-12
0.00912854
0.0028874
-2.13853e-12
0.00754715
0.00314047
-2.08162e-12
0.0058328
0.00340662
-2.16983e-12
0.00399075
0.00365896
-2.29488e-12
0.00202985
0.00390915
-2.39747e-12
0.00414524
-2.46716e-12
0.0168001
6.47959e-10
1.81368e-16
0.0168001
3.49658e-09
6.88722e-18
0.0168
1.30219e-08
-2.81637e-16
0.0168
3.3411e-08
-6.08985e-16
0.0168
9.20189e-08
-1.72334e-15
0.0167999
2.11727e-07
-3.52535e-15
0.0167997
5.43962e-07
-9.87049e-15
0.0167992
1.26905e-06
-2.01802e-14
0.016798
3.04033e-06
-5.6915e-14
0.016795
7.51212e-06
-1.18002e-13
0.0167883
1.82381e-05
-3.30621e-13
0.0167711
4.87744e-05
-8.79884e-13
0.0167124
0.000167283
-2.44377e-12
0.0165366
0.000513978
-7.55706e-12
0.0155156
0.00303441
-2.00013e-11
0.0143298
0.00351846
1.37941e-12
0.0131685
0.00350212
-2.9536e-13
0.0119398
0.00371736
-2.07314e-12
0.0106196
0.00398513
-2.13357e-12
0.00917325
0.00433216
-2.10256e-12
0.00758884
0.00472329
-2.0576e-12
0.005868
0.00512593
-2.15761e-12
0.00400429
0.00552049
-2.28498e-12
0.00203125
0.00588006
-2.38706e-12
0.00617468
-2.45517e-12
0.0168001
8.41443e-10
1.82589e-16
0.0168001
4.54627e-09
-6.44499e-17
0.0168001
1.6945e-08
-3.17131e-16
0.0168
4.33906e-08
-6.90743e-16
0.0168
1.2002e-07
-1.96254e-15
0.0167999
2.7625e-07
-4.10519e-15
0.0167997
7.12583e-07
-1.1039e-14
0.0167994
1.65769e-06
-2.56576e-14
0.0167982
4.03387e-06
-5.50111e-14
0.016796
9.69849e-06
-1.58879e-13
0.0167883
2.51488e-05
-2.89287e-13
0.0167721
6.44707e-05
-9.19871e-13
0.0167176
0.000218864
-2.42722e-12
0.0165471
0.000679185
-7.6222e-12
0.0155745
0.00398682
-2.05668e-11
0.0143798
0.00471513
1.78244e-12
0.0132236
0.00465824
-2.09724e-13
0.0120137
0.00492565
-2.06946e-12
0.0107153
0.00528175
-2.10378e-12
0.00928682
0.00575918
-2.03992e-12
0.00771344
0.00629487
-2.01572e-12
0.00599178
0.006846
-2.13467e-12
0.00412082
0.00738926
-2.26071e-12
0.00209369
0.00790484
-2.36886e-12
0.00826652
-2.43765e-12
0.0168001
9.67411e-10
1.81984e-16
0.0168001
5.22282e-09
-3.47275e-17
0.0168001
1.94682e-08
-2.93294e-16
0.0168
4.97477e-08
-6.3428e-16
0.0168
1.38017e-07
-1.80681e-15
0.0168
3.16716e-07
-3.7279e-15
0.0167998
8.26885e-07
-1.0323e-14
0.0167996
1.88605e-06
-2.19371e-14
0.0167987
4.83751e-06
-5.7962e-14
0.0167974
1.09801e-05
-1.24364e-13
0.0167899
3.17936e-05
-3.68109e-13
0.016776
7.80465e-05
-8.94471e-13
0.0167235
0.000268424
-2.31172e-12
0.0165567
0.000840167
-7.90789e-12
0.0156624
0.0048599
-2.10628e-11
0.0144467
0.0059335
2.40979e-12
0.0132959
0.00580896
-1.46459e-13
0.0121143
0.0061056
-2.07876e-12
0.0108537
0.00654083
-2.08032e-12
0.00946813
0.00714338
-1.98062e-12
0.00792408
0.00783746
-1.97029e-12
0.00620846
0.00855959
-2.1063e-12
0.0043017
0.00929474
-2.24046e-12
0.00222498
0.00997929
-2.35331e-12
0.0104895
-2.41863e-12
0.0168001
9.81914e-10
1.80248e-16
0.0168001
5.33686e-09
1.10927e-17
0.0168001
1.98514e-08
-2.52413e-16
0.0168001
5.07407e-08
-5.45294e-16
0.0168
1.4044e-07
-1.54425e-15
0.0168
3.19129e-07
-3.11965e-15
0.0168
8.54421e-07
-9.10106e-15
0.0168
1.83419e-06
-1.68183e-14
0.0167994
5.33006e-06
-5.83148e-14
0.0167995
1.08834e-05
-9.47354e-14
0.0167942
3.62246e-05
-3.82315e-13
0.0167903
8.16454e-05
-7.17948e-13
0.0167061
0.000349826
-3.05009e-12
0.0165657
0.000975942
-7.84198e-12
0.0157842
0.00561874
-2.23054e-11
0.0145329
0.00718877
3.34932e-12
0.0133949
0.00694765
2.73623e-13
0.0122487
0.00725033
-1.94029e-12
0.0110364
0.00775134
-1.95577e-12
0.00969989
0.00847824
-1.87746e-12
0.00820293
0.00933295
-1.88337e-12
0.00651725
0.0102437
-2.02091e-12
0.00460045
0.0112085
-2.1743e-12
0.00240721
0.0121701
-2.31094e-12
0.0128947
-2.39716e-12
0.0168001
9.61542e-10
1.79872e-16
0.0168001
5.34344e-09
1.84111e-17
0.0168001
1.98059e-08
-2.48263e-16
0.0168001
5.07657e-08
-5.35958e-16
0.0168001
1.39873e-07
-1.5366e-15
0.0168001
3.15234e-07
-3.11741e-15
0.0168
8.64259e-07
-9.15523e-15
0.0168001
1.69815e-06
-1.73203e-14
0.0167994
5.96911e-06
-5.87375e-14
0.0168009
9.29317e-06
-9.86487e-14
0.0167914
4.49607e-05
-3.93188e-13
0.0167889
8.36724e-05
-7.33541e-13
0.0167378
0.000397985
-3.11236e-12
0.0166328
0.0010764
-7.93839e-12
0.0161932
0.00603393
-2.3508e-11
0.0148515
0.0085351
3.7606e-12
0.0136636
0.00813682
6.01836e-13
0.0125205
0.00839268
-1.88443e-12
0.0113525
0.00891842
-1.90072e-12
0.010075
0.00975487
-1.82426e-12
0.00862429
0.010782
-1.81191e-12
0.00696076
0.0119062
-1.95677e-12
0.00502645
0.0131414
-2.13949e-12
0.00273578
0.0144585
-2.28691e-12
0.0156284
-2.38156e-12
0.0168001
1.20169e-09
1.77654e-16
0.0168001
6.51131e-09
4.85053e-17
0.0168001
2.42122e-08
-2.17743e-16
0.0168
6.18812e-08
-4.65429e-16
0.0168
1.70992e-07
-1.33097e-15
0.0167999
3.90327e-07
-2.64003e-15
0.0167997
1.03058e-06
-8.11046e-15
0.0167992
2.26097e-06
-1.26728e-14
0.0167986
6.41363e-06
-6.07019e-14
0.0167956
1.22769e-05
-5.03076e-14
0.0167938
4.5868e-05
-4.76028e-13
0.0167861
9.12914e-05
-5.92773e-13
0.016779
0.000402131
-3.20905e-12
0.0167685
0.0010829
-7.71946e-12
0.0169684
0.00580867
-2.39366e-11
0.0155291
0.00997892
3.59398e-12
0.014188
0.00947902
8.32113e-13
0.0129914
0.00958823
-1.63801e-12
0.0118369
0.0100719
-1.746e-12
0.0106033
0.0109877
-1.8351e-12
0.00922096
0.0121631
-1.77059e-12
0.00760715
0.0135184
-1.88344e-12
0.00568048
0.0150659
-2.06273e-12
0.00325011
0.0168867
-2.25959e-12
0.0188764
-2.40121e-12
0.0168001
1.46318e-09
1.78657e-16
0.0168001
6.8224e-09
3.61471e-17
0.0168001
2.64267e-08
-2.32859e-16
0.0168
6.57784e-08
-5.02789e-16
0.0168
1.85253e-07
-1.44962e-15
0.0168
4.15361e-07
-2.96491e-15
0.0167999
1.10851e-06
-8.57881e-15
0.0167998
2.40238e-06
-1.71173e-14
0.0167994
6.63119e-06
-5.29645e-14
0.0167983
1.33495e-05
-9.73991e-14
0.0167991
4.42759e-05
-3.81808e-13
0.0168053
8.47822e-05
-6.12058e-13
0.016841
0.000363421
-2.90592e-12
0.0169875
0.000932622
-7.21455e-12
0.0182201
0.00455013
-2.37613e-11
0.0166768
0.0115269
8.2434e-13
0.015005
0.0111535
-5.90805e-13
0.0137694
0.0108247
-1.24682e-12
0.0126089
0.011232
-1.58362e-12
0.0113976
0.012198
-1.96849e-12
0.0100469
0.0135133
-1.83037e-12
0.00855834
0.0150063
-1.93544e-12
0.00675935
0.0168633
-2.06532e-12
0.00422779
0.0194156
-2.31953e-12
0.0231018
-2.53939e-12
0.0168001
1.77497e-16
2.57873e-09
0.0168001
6.68673e-17
2.92266e-09
0.0168001
-2.00029e-16
3.60907e-08
0.0168001
-4.31174e-16
3.57066e-08
0.0168
-1.23883e-15
2.48084e-07
0.0168002
-2.52812e-15
2.3387e-07
0.0167998
-7.24974e-15
1.49884e-06
0.0168009
-1.4612e-14
1.30928e-06
0.0167981
-4.27939e-14
9.32452e-06
0.0168053
-8.70443e-14
6.02801e-06
0.0167833
-2.49097e-13
6.57585e-05
0.0168384
-6.28552e-13
2.92601e-05
0.0167298
-1.68593e-12
0.000469539
0.0170728
-4.54112e-12
0.000589728
0.0179579
-1.23466e-11
0.00364757
0.0171503
-8.68715e-12
0.0123238
0.0155929
-4.64943e-12
0.0127072
0.0145653
-4.81191e-13
0.0118532
0.013423
-1.97842e-12
0.0123734
0.0123606
-2.18145e-12
0.013259
0.0112043
-2.05988e-12
0.0146684
0.0099261
-2.08781e-12
0.0162835
0.0082643
-2.23633e-12
0.018524
0.00584535
-2.56879e-12
0.0218326
-3.07178e-12
0.0289444
0.0168001
1.96444e-10
-9.23656e-17
0.0168001
1.07021e-09
-3.4346e-16
0.0168
3.98018e-09
-9.78937e-16
0.0168
1.02283e-08
-1.97599e-15
0.0168
2.80693e-08
-5.28913e-15
0.0167999
6.42841e-08
-1.0622e-14
0.0167998
1.6648e-07
-2.92942e-14
0.0167994
3.7555e-07
-5.99464e-14
0.0167983
9.66472e-07
-1.67067e-13
0.016796
2.211e-06
-3.50562e-13
0.0167893
5.9299e-06
-9.63032e-13
0.0167732
1.57944e-05
-2.63276e-12
0.0167162
5.41457e-05
-7.14315e-12
0.0165421
0.000168694
-2.24079e-11
0.0155138
0.00100947
-5.9199e-11
0.014358
0.00115691
4.79952e-12
0.0131816
0.00117618
1.7586e-13
0.0119283
0.00125175
-4.67773e-12
0.0105896
0.00133702
-5.04894e-12
0.00915048
0.00143759
-4.914e-12
0.00758822
0.00156065
-4.80788e-12
0.00589269
0.00169393
-5.06958e-12
0.00407153
0.00181906
-5.57333e-12
0.00211899
0.00195039
-5.94161e-12
0.00211723
-6.18572e-12
0.0168001
4.03187e-10
-9.37217e-17
0.0168001
2.20398e-09
-3.48258e-16
0.0168
8.1953e-09
-9.92771e-16
0.0168
2.10618e-08
-2.00535e-15
0.0168
5.78439e-08
-5.36683e-15
0.0167999
1.32418e-07
-1.07833e-14
0.0167997
3.4366e-07
-2.96969e-14
0.0167993
7.71118e-07
-6.08304e-14
0.0167981
2.01124e-06
-1.68876e-13
0.0167958
4.49582e-06
-3.55116e-13
0.0167885
1.24174e-05
-9.69984e-13
0.0167721
3.19147e-05
-2.64195e-12
0.016712
0.000111431
-7.17614e-12
0.0165318
0.000343452
-2.24091e-11
0.0154894
0.00203289
-5.94461e-11
0.0143163
0.00233119
5.19701e-12
0.0131514
0.00234092
2.77264e-13
0.0119112
0.00249034
-4.76043e-12
0.0105799
0.00266663
-4.96717e-12
0.00912854
0.0028874
-4.81921e-12
0.00754715
0.00314047
-4.72933e-12
0.0058328
0.00340662
-5.01755e-12
0.00399075
0.00365896
-5.53656e-12
0.00202985
0.00390915
-5.90624e-12
0.00414524
-6.16713e-12
0.0168001
6.47958e-10
-9.61213e-17
0.0168001
3.49657e-09
-3.5727e-16
0.0168
1.30218e-08
-1.01714e-15
0.0168
3.34109e-08
-2.05563e-15
0.0168
9.20188e-08
-5.49023e-15
0.0167999
2.11726e-07
-1.10211e-14
0.0167997
5.43961e-07
-3.0278e-14
0.0167992
1.26905e-06
-6.16957e-14
0.016798
3.04033e-06
-1.71849e-13
0.016795
7.5121e-06
-3.57377e-13
0.0167883
1.82381e-05
-9.85008e-13
0.0167711
4.87743e-05
-2.64114e-12
0.0167124
0.000167283
-7.26672e-12
0.0165366
0.000513978
-2.24796e-11
0.0155156
0.00303441
-6.045e-11
0.0143298
0.00351846
6.09367e-12
0.0131685
0.00350211
5.58446e-13
0.0119398
0.00371736
-4.75006e-12
0.0106196
0.00398513
-4.88957e-12
0.00917325
0.00433216
-4.67608e-12
0.00758884
0.00472329
-4.64907e-12
0.005868
0.00512593
-4.97966e-12
0.00400429
0.00552049
-5.51589e-12
0.00203125
0.00588006
-5.90008e-12
0.00617468
-6.16779e-12
0.0168001
8.41444e-10
-1.07552e-16
0.0168001
4.54627e-09
-3.94184e-16
0.0168001
1.6945e-08
-1.13867e-15
0.0168
4.33907e-08
-2.32727e-15
0.0168
1.2002e-07
-6.26883e-15
0.0167999
2.7625e-07
-1.28966e-14
0.0167997
7.12583e-07
-3.40549e-14
0.0167994
1.65769e-06
-7.9196e-14
0.0167982
4.03387e-06
-1.66132e-13
0.016796
9.69851e-06
-4.87111e-13
0.0167883
2.51487e-05
-8.54787e-13
0.0167721
6.44707e-05
-2.77486e-12
0.0167176
0.000218864
-7.21281e-12
0.0165471
0.000679185
-2.26966e-11
0.0155745
0.00398682
-6.2178e-11
0.0143798
0.00471513
7.31679e-12
0.0132236
0.00465824
7.75928e-13
0.0120137
0.00492565
-4.72515e-12
0.0107153
0.00528175
-4.7679e-12
0.00928682
0.00575918
-4.42139e-12
0.00771344
0.00629487
-4.4902e-12
0.00599178
0.006846
-4.90159e-12
0.00412082
0.00738926
-5.4125e-12
0.00209369
0.00790484
-5.85863e-12
0.00826652
-6.14158e-12
0.0168001
9.67412e-10
-1.00083e-16
0.0168001
5.22283e-09
-3.70369e-16
0.0168001
1.94682e-08
-1.06096e-15
0.0168
4.97477e-08
-2.14738e-15
0.0168
1.38017e-07
-5.78304e-15
0.0168
3.16716e-07
-1.17169e-14
0.0167998
8.26886e-07
-3.18472e-14
0.0167996
1.88606e-06
-6.75179e-14
0.0167987
4.83752e-06
-1.75878e-13
0.0167974
1.09801e-05
-3.7889e-13
0.0167899
3.17936e-05
-1.106e-12
0.016776
7.80466e-05
-2.69543e-12
0.0167235
0.000268424
-6.88968e-12
0.0165567
0.000840167
-2.3609e-11
0.0156624
0.0048599
-6.37082e-11
0.0144467
0.0059335
9.28656e-12
0.0132959
0.00580896
1.12383e-12
0.0121143
0.0061056