/*--------------------------------*- C++ -*----------------------------------*\
| =========                 |                                                 |
| \\      /  F ield         | OpenFOAM: The Open Source CFD Toolbox           |
|  \\    /   O peration     | Version:  4.1                                   |
|   \\  /    A nd           | Web:      www.OpenFOAM.org                      |
|    \\/     M anipulation  |                                                 |
\*---------------------------------------------------------------------------*/
FoamFile
{
    version     2.0;
    format      ascii;
    class       volScalarField;
    location    "0.14";
    object      p;
}
// * * * * * * * * * * * * * * * * * * * * * * * * * * * * * * * * * * * * * //

dimensions      [1 -1 -2 0 0 0 0];

internalField   nonuniform List<scalar> 
52500
(
1.00137
1.00626
1.01479
1.03026
1.06091
1.10008
1.17343
1.26535
1.36257
1.48578
1.62125
1.72331
1.78638
1.83508
1.84991
1.8473
1.84373
1.85721
1.92527
2.15072
2.94792
5.83321
13.0464
8.50819
7.18643
1.00136
1.00626
1.01479
1.03026
1.06091
1.10008
1.17343
1.26535
1.36256
1.48575
1.62119
1.72326
1.78631
1.83502
1.84987
1.84728
1.84371
1.85644
1.92285
2.14418
2.92181
5.71172
12.8607
8.43367
7.08369
1.00137
1.00626
1.01479
1.03026
1.06092
1.10008
1.17343
1.26534
1.36253
1.48573
1.62113
1.72319
1.78626
1.83496
1.84986
1.84733
1.84371
1.85469
1.91811
2.12961
2.86828
5.47199
12.4718
8.30312
6.88439
1.00137
1.00626
1.01479
1.03026
1.06092
1.10008
1.17341
1.26532
1.36249
1.48562
1.62105
1.72314
1.78621
1.83494
1.84983
1.84717
1.84276
1.85111
1.9088
2.10799
2.78893
5.14987
11.9233
8.1748
6.64459
1.00137
1.00626
1.01479
1.03026
1.06093
1.10009
1.17338
1.26533
1.36249
1.48557
1.62098
1.7231
1.78615
1.83486
1.8498
1.84725
1.84259
1.84663
1.89628
2.07587
2.6811
4.77617
11.2005
8.08535
6.38213
1.00136
1.00627
1.01479
1.03025
1.06095
1.10011
1.1733
1.26538
1.36266
1.48541
1.62086
1.72328
1.78625
1.83472
1.84986
1.84724
1.84158
1.83906
1.87946
2.0341
2.54641
4.35779
10.2952
8.03919
6.10555
1.00136
1.00627
1.01479
1.03025
1.06095
1.10011
1.17327
1.26535
1.36261
1.48533
1.62078
1.72326
1.78623
1.83468
1.84993
1.84717
1.84123
1.82973
1.85904
1.97993
2.38642
3.87491
9.19906
8.0199
5.85425
1.00137
1.00626
1.0148
1.03027
1.06095
1.10009
1.17332
1.26531
1.36244
1.48542
1.62084
1.72309
1.78608
1.83469
1.84999
1.8472
1.8404
1.8234
1.83202
1.90717
2.21288
3.36138
7.79726
7.9428
5.74338
1.00136
1.00627
1.01479
1.03025
1.06095
1.10011
1.17326
1.26536
1.36262
1.48535
1.62078
1.72331
1.78624
1.83444
1.84998
1.84685
1.83841
1.81608
1.79113
1.83668
2.04539
2.83847
5.95548
7.79939
5.698
1.00136
1.00627
1.01479
1.03025
1.06096
1.10012
1.17328
1.26537
1.36265
1.48539
1.62077
1.72331
1.7862
1.83417
1.84966
1.84591
1.83459
1.80555
1.74886
1.77751
1.90268
2.39172
4.18593
7.41519
5.56725
1.00137
1.00627
1.0148
1.03028
1.06094
1.1001
1.17342
1.26533
1.3625
1.48558
1.62098
1.72303
1.78608
1.83479
1.84965
1.84704
1.84351
1.85705
1.9252
2.1507
2.94815
5.83416
13.0465
8.50788
7.18648
1.00137
1.00627
1.0148
1.03027
1.06094
1.1001
1.1734
1.26536
1.36254
1.48562
1.62107
1.72316
1.78619
1.83489
1.84976
1.84717
1.84361
1.85637
1.92283
2.14419
2.92202
5.71262
12.861
8.43342
7.0836
1.00137
1.00628
1.0148
1.03025
1.06095
1.10011
1.17329
1.26534
1.36262
1.4854
1.62088
1.72328
1.78632
1.83479
1.84982
1.84728
1.84378
1.85479
1.91834
2.12965
2.86843
5.4724
12.4725
8.30298
6.88425
1.00137
1.00627
1.0148
1.03027
1.06094
1.10009
1.17338
1.26535
1.36255
1.48562
1.6211
1.72325
1.78628
1.83498
1.84986
1.8472
1.84276
1.85112
1.90881
2.10801
2.78901
5.15029
11.9239
8.17479
6.64435
1.00137
1.00628
1.01479
1.03025
1.06095
1.10011
1.17328
1.26533
1.36261
1.48539
1.62087
1.72331
1.78634
1.83483
1.84991
1.84737
1.8427
1.84671
1.89637
2.07594
2.6811
4.7763
11.201
8.08543
6.38191
1.00137
1.00627
1.0148
1.03027
1.06093
1.10009
1.17338
1.26533
1.36252
1.48562
1.62108
1.72322
1.78624
1.83496
1.84994
1.8473
1.84163
1.83899
1.87936
2.03403
2.54641
4.35798
10.2953
8.03919
6.10542
1.00137
1.00627
1.0148
1.03027
1.06093
1.10008
1.17341
1.26531
1.36248
1.48562
1.62102
1.72314
1.78614
1.83483
1.84994
1.84718
1.84077
1.82989
1.8589
1.97997
2.38639
3.87517
9.19921
8.01987
5.85411
1.00137
1.00627
1.0148
1.03027
1.06093
1.10009
1.17343
1.26534
1.36253
1.48571
1.6211
1.72322
1.78619
1.83477
1.85001
1.84721
1.84038
1.82335
1.83196
1.90707
2.21281
3.36146
7.79771
7.94263
5.74326
1.00137
1.00627
1.0148
1.03027
1.06093
1.10009
1.17344
1.26535
1.36255
1.48576
1.62114
1.72327
1.78621
1.83463
1.84998
1.84682
1.83837
1.81602
1.79095
1.83649
2.04523
2.83848
5.95603
7.79911
5.69788
1.00137
1.00627
1.0148
1.03027
1.06092
1.10009
1.17343
1.26535
1.36255
1.48578
1.62114
1.72331
1.78623
1.83443
1.84972
1.84594
1.8346
1.80553
1.74865
1.77732
1.90247
2.39159
4.18617
7.41494
5.56714
1.00137
1.00627
1.0148
1.03027
1.06092
1.10008
1.17342
1.26533
1.36254
1.48573
1.62118
1.72324
1.78629
1.83498
1.84982
1.8472
1.84362
1.85712
1.9252
2.15069
2.94805
5.83405
13.0463
8.50779
7.18647
1.00137
1.00627
1.0148
1.03027
1.06092
1.10008
1.17343
1.26533
1.36253
1.4857
1.62114
1.72319
1.78624
1.83494
1.84979
1.8472
1.84363
1.85637
1.92279
2.14415
2.92192
5.71254
12.8608
8.43332
7.08359
1.00137
1.00627
1.0148
1.03027
1.06092
1.10008
1.17342
1.26532
1.36251
1.48567
1.62111
1.72318
1.78624
1.83494
1.84984
1.84731
1.84368
1.85464
1.91804
2.12956
2.86832
5.47257
12.4722
8.30285
6.88424
1.00137
1.00627
1.0148
1.03027
1.06093
1.10008
1.17339
1.2653
1.36247
1.48561
1.62106
1.72316
1.78623
1.83496
1.84984
1.84718
1.84275
1.85109
1.90876
2.10795
2.78894
5.15024
11.9238
8.17471
6.64434
1.00137
1.00627
1.0148
1.03027
1.06093
1.10008
1.17338
1.26532
1.36251
1.48563
1.6211
1.72324
1.78627
1.83499
1.84991
1.84734
1.84264
1.84662
1.89623
2.07582
2.68105
4.77631
11.2009
8.08534
6.3819
1.00137
1.00628
1.01479
1.03025
1.06094
1.1001
1.17331
1.26535
1.36266
1.4855
1.62097
1.72339
1.78636
1.83483
1.84995
1.84732
1.84164
1.83906
1.87944
2.03406
2.54634
4.35788
10.2953
8.03918
6.10542
1.00137
1.00627
1.0148
1.03027
1.06093
1.10008
1.17338
1.26534
1.36252
1.48564
1.62108
1.72323
1.78621
1.83487
1.84996
1.8472
1.84077
1.82985
1.85887
1.97992
2.38632
3.8751
9.19919
8.01987
5.85411
1.00137
1.00627
1.0148
1.03027
1.06093
1.10008
1.17341
1.26531
1.36248
1.48561
1.62099
1.72311
1.78608
1.83467
1.84992
1.84713
1.84031
1.8233
1.83191
1.90704
2.21278
3.36145
7.79771
7.94263
5.74327
1.00137
1.00627
1.0148
1.03027
1.06093
1.10009
1.17342
1.26532
1.3625
1.48566
1.62101
1.72315
1.78609
1.83451
1.84987
1.84671
1.83826
1.81592
1.79087
1.83641
2.04517
2.83845
5.95602
7.79911
5.69789
1.00137
1.00627
1.0148
1.03027
1.06093
1.10008
1.17341
1.26531
1.36247
1.48563
1.62096
1.72312
1.78606
1.83427
1.84958
1.84581
1.83447
1.80542
1.7486
1.77728
1.90244
2.39159
4.18616
7.41495
5.56714
1.00137
1.00627
1.0148
1.03026
1.06092
1.10007
1.17341
1.26531
1.3625
1.48568
1.62113
1.7232
1.78625
1.83495
1.84979
1.84717
1.84359
1.85707
1.92514
2.15061
2.94796
5.83399
13.0461
8.50776
7.18647
1.00137
1.00627
1.0148
1.03026
1.06092
1.10007
1.17341
1.26531
1.3625
1.48568
1.62113
1.7232
1.78625
1.83495
1.8498
1.84721
1.84362
1.85634
1.92274
2.14408
2.92183
5.71247
12.8606
8.43329
7.08359
1.00137
1.00627
1.0148
1.03026
1.06092
1.10007
1.17341
1.26531
1.3625
1.48568
1.62113
1.7232
1.78625
1.83495
1.84984
1.8473
1.84366
1.85461
1.91799
2.1295
2.86824
5.4725
12.4721
8.30282
6.88424
1.00137
1.00627
1.0148
1.03026
1.06092
1.10007
1.17341
1.26531
1.3625
1.48568
1.62113
1.7232
1.78625
1.83495
1.84981
1.84715
1.84269
1.85103
1.90869
2.10788
2.78883
5.15015
11.9236
8.17466
6.64434
1.00137
1.00627
1.0148
1.03026
1.06092
1.10007
1.17341
1.26531
1.3625
1.48568
1.62112
1.7232
1.78624
1.83495
1.84986
1.84729
1.84259
1.84657
1.89617
2.07576
2.68097
4.77622
11.2008
8.08528
6.3819
1.00137
1.00627
1.0148
1.03026
1.06092
1.10007
1.17341
1.26531
1.3625
1.48569
1.62112
1.72321
1.78623
1.83494
1.84991
1.84726
1.84159
1.83892
1.87928
2.03393
2.54627
4.35784
10.2951
8.03907
6.10541
1.00137
1.00627
1.0148
1.03026
1.06092
1.10007
1.17341
1.26531
1.3625
1.48569
1.62111
1.72322
1.78621
1.83488
1.84996
1.8472
1.84076
1.82982
1.85883
1.97986
2.38624
3.87502
9.1991
8.01977
5.8541
1.00137
1.00627
1.0148
1.03026
1.06092
1.10007
1.17341
1.26531
1.3625
1.4857
1.6211
1.72323
1.7862
1.83477
1.85
1.8472
1.84036
1.8233
1.83188
1.90696
2.21269
3.36134
7.79765
7.94254
5.74324
1.00137
1.00627
1.0148
1.03026
1.06092
1.10007
1.17341
1.26531
1.3625
1.4857
1.62109
1.72324
1.78619
1.8346
1.84995
1.84678
1.83833
1.81595
1.79083
1.83636
2.0451
2.83835
5.95599
7.79902
5.69786
1.00137
1.00627
1.0148
1.03026
1.06092
1.10007
1.17341
1.2653
1.36249
1.48571
1.62107
1.72324
1.78617
1.83436
1.84966
1.84588
1.83453
1.80545
1.74855
1.7772
1.90235
2.39148
4.18611
7.41487
5.5671
1.00137
1.00627
1.0148
1.03027
1.06092
1.10008
1.17342
1.26533
1.36251
1.48572
1.62112
1.72319
1.78627
1.83495
1.84978
1.84717
1.8436
1.85709
1.92518
2.15066
2.94802
5.83401
13.0465
8.50773
7.1865
1.00137
1.00627
1.0148
1.03027
1.06092
1.10008
1.17342
1.26533
1.36251
1.48572
1.62112
1.72318
1.78626
1.83493
1.84978
1.8472
1.84362
1.85635
1.92278
2.14412
2.92188
5.71243
12.8609
8.43324
7.08378
1.00137
1.00627
1.0148
1.03027
1.06092
1.10008
1.17343
1.26534
1.36253
1.48571
1.62113
1.72318
1.78623
1.83492
1.8498
1.84726
1.84363
1.85461
1.91802
2.12954
2.8683
5.47257
12.4719
8.30276
6.88447
1.00137
1.00627
1.0148
1.03027
1.06092
1.10008
1.17343
1.26534
1.36253
1.48571
1.62113
1.72318
1.78623
1.83493
1.84978
1.84711
1.84267
1.85102
1.9087
2.10791
2.78891
5.15027
11.9235
8.17449
6.64457
1.00137
1.00627
1.0148
1.03027
1.06092
1.10008
1.17342
1.26533
1.36251
1.48574
1.62114
1.72321
1.78625
1.83495
1.84985
1.84728
1.84259
1.84657
1.89619
2.07579
2.68103
4.77633
11.2007
8.08507
6.38211
1.00137
1.00627
1.0148
1.03027
1.06092
1.10008
1.17343
1.26533
1.3625
1.48575
1.62114
1.72322
1.78626
1.83496
1.84991
1.84727
1.8416
1.83895
1.87932
2.03397
2.54633
4.35792
10.2952
8.03904
6.10548
1.00137
1.00627
1.0148
1.03027
1.06092
1.10008
1.17344
1.26534
1.36251
1.48575
1.62112
1.72321
1.78623
1.8349
1.84997
1.84721
1.84078
1.82988
1.85889
1.97992
2.3863
3.87506
9.19914
8.0198
5.85412
1.00137
1.00627
1.0148
1.03027
1.06092
1.10008
1.17344
1.26534
1.36253
1.48574
1.62112
1.72323
1.78622
1.83479
1.85002
1.84722
1.84039
1.82335
1.83194
1.90703
2.21275
3.36137
7.79759
7.9426
5.74328
1.00137
1.00627
1.0148
1.03027
1.06092
1.10008
1.17343
1.26534
1.36252
1.48577
1.62112
1.72327
1.78623
1.83463
1.84997
1.84681
1.83836
1.81599
1.7909
1.83643
2.04516
2.83838
5.95586
7.79912
5.6979
1.00137
1.00627
1.0148
1.03027
1.06092
1.10008
1.17342
1.26534
1.36252
1.48578
1.6211
1.72327
1.78621
1.83437
1.84966
1.84588
1.83453
1.80545
1.74858
1.77724
1.90239
2.39151
4.18606
7.41497
5.56716
1.00137
1.00627
1.0148
1.03026
1.06092
1.10007
1.17341
1.2653
1.3625
1.48568
1.62113
1.7232
1.78626
1.83495
1.84979
1.84717
1.84359
1.85707
1.92514
2.1506
2.94794
5.83393
13.0461
8.50779
7.18648
1.00137
1.00627
1.0148
1.03026
1.06092
1.10007
1.17341
1.2653
1.3625
1.48568
1.62113
1.7232
1.78626
1.83495
1.8498
1.84721
1.84362
1.85634
1.92274
2.14408
2.92182
5.71242
12.8606
8.43332
7.08359
1.00137
1.00627
1.0148
1.03026
1.06092
1.10007
1.17341
1.2653
1.3625
1.48568
1.62113
1.7232
1.78626
1.83495
1.84984
1.8473
1.84366
1.85461
1.91799
2.1295
2.86823
5.47247
12.4721
8.30284
6.88425
1.00137
1.00627
1.0148
1.03026
1.06092
1.10007
1.17341
1.2653
1.3625
1.48569
1.62113
1.7232
1.78625
1.83496
1.84981
1.84715
1.84269
1.85103
1.90869
2.10788
2.78883
5.15013
11.9236
8.17468
6.64435
1.00137
1.00627
1.0148
1.03026
1.06092
1.10007
1.17341
1.2653
1.3625
1.48569
1.62113
1.72321
1.78625
1.83496
1.84987
1.8473
1.8426
1.84658
1.89617
2.07576
2.68097
4.77621
11.2007
8.08531
6.3819
1.00137
1.00627
1.0148
1.03026
1.06092
1.10007
1.17341
1.2653
1.3625
1.4857
1.62113
1.72322
1.78624
1.83496
1.84992
1.84728
1.8416
1.83894
1.8793
2.03394
2.54628
4.35785
10.2951
8.0391
6.10541
1.00137
1.00627
1.0148
1.03026
1.06092
1.10007
1.17341
1.26531
1.3625
1.4857
1.62113
1.72324
1.78624
1.83491
1.84999
1.84723
1.84079
1.82985
1.85886
1.97988
2.38625
3.87503
9.19911
8.01978
5.8541
1.00137
1.00627
1.0148
1.03026
1.06092
1.10007
1.17341
1.26531
1.36251
1.48571
1.62113
1.72326
1.78624
1.83481
1.85004
1.84724
1.84039
1.82333
1.83191
1.90699
2.21271
3.36136
7.79766
7.94256
5.74323
1.00137
1.00627
1.0148
1.03026
1.06092
1.10008
1.17341
1.26532
1.36251
1.48573
1.62112
1.72327
1.78622
1.83463
1.84998
1.84681
1.83836
1.81599
1.79087
1.8364
2.04513
2.83838
5.95599
7.79906
5.69785
1.00137
1.00627
1.0148
1.03027
1.06092
1.10008
1.17342
1.26532
1.36251
1.48573
1.62109
1.72325
1.78617
1.83436
1.84965
1.84588
1.83453
1.80545
1.74857
1.77723
1.90238
2.39151
4.18612
7.41491
5.56711
1.00137
1.00627
1.0148
1.03026
1.06092
1.10007
1.17341
1.2653
1.3625
1.48568
1.62113
1.72319
1.78625
1.83495
1.84979
1.84717
1.84359
1.85707
1.92514
2.15061
2.94796
5.83399
13.0461
8.50776
7.18647
1.00137
1.00627
1.0148
1.03026
1.06092
1.10007
1.17341
1.2653
1.3625
1.48568
1.62113
1.7232
1.78625
1.83495
1.8498
1.84721
1.84362
1.85634
1.92274
2.14408
2.92183
5.71247
12.8606
8.43329
7.08359
1.00137
1.00627
1.0148
1.03026
1.06092
1.10007
1.17341
1.2653
1.3625
1.48568
1.62113
1.7232
1.78625
1.83495
1.84984
1.8473
1.84366
1.85461
1.91799
2.1295
2.86824
5.4725
12.4721
8.30282
6.88424
1.00137
1.00627
1.0148
1.03026
1.06092
1.10007
1.17341
1.2653
1.3625
1.48568
1.62113
1.7232
1.78625
1.83495
1.84981
1.84715
1.84269
1.85103
1.90869
2.10787
2.78883
5.15015
11.9236
8.17466
6.64434
1.00137
1.00627
1.0148
1.03026
1.06092
1.10007
1.17341
1.26531
1.3625
1.48568
1.62112
1.7232
1.78624
1.83495
1.84986
1.84729
1.84259
1.84657
1.89617
2.07576
2.68097
4.77622
11.2008
8.08528
6.3819
1.00137
1.00627
1.0148
1.03026
1.06092
1.10007
1.17341
1.26531
1.3625
1.48569
1.62112
1.72321
1.78623
1.83494
1.8499
1.84726
1.84159
1.83892
1.87928
2.03393
2.54627
4.35784
10.2951
8.03907
6.10541
1.00137
1.00627
1.0148
1.03026
1.06092
1.10007
1.17341
1.26531
1.3625
1.48569
1.62111
1.72322
1.78621
1.83488
1.84996
1.8472
1.84076
1.82982
1.85883
1.97986
2.38624
3.87502
9.1991
8.01977
5.8541
1.00137
1.00627
1.0148
1.03026
1.06092
1.10007
1.17341
1.26531
1.3625
1.4857
1.6211
1.72323
1.7862
1.83477
1.85
1.8472
1.84036
1.8233
1.83188
1.90696
2.21269
3.36134
7.79765
7.94254
5.74324
1.00137
1.00627
1.0148
1.03026
1.06092
1.10007
1.17341
1.26531
1.3625
1.4857
1.62109
1.72324
1.78619
1.8346
1.84995
1.84678
1.83833
1.81595
1.79083
1.83636
2.0451
2.83835
5.95599
7.79902
5.69786
1.00137
1.00627
1.0148
1.03026
1.06092
1.10007
1.17341
1.2653
1.36249
1.48571
1.62107
1.72324
1.78617
1.83436
1.84966
1.84588
1.83453
1.80545
1.74855
1.7772
1.90235
2.39148
4.18611
7.41487
5.5671
1.00137
1.00627
1.0148
1.03027
1.06092
1.10008
1.17342
1.26533
1.36254
1.48573
1.62118
1.72324
1.78629
1.83498
1.84982
1.8472
1.84362
1.85712
1.9252
2.15069
2.94805
5.83405
13.0463
8.50779
7.18647
1.00137
1.00627
1.0148
1.03027
1.06092
1.10008
1.17343
1.26533
1.36253
1.4857
1.62114
1.72319
1.78624
1.83494
1.84979
1.8472
1.84363
1.85637
1.92279
2.14415
2.92192
5.71254
12.8608
8.43332
7.08359
1.00137
1.00627
1.0148
1.03027
1.06092
1.10008
1.17342
1.26532
1.36251
1.48567
1.62111
1.72318
1.78624
1.83494
1.84984
1.84731
1.84368
1.85464
1.91804
2.12956
2.86832
5.47257
12.4722
8.30285
6.88424
1.00137
1.00627
1.0148
1.03027
1.06093
1.10008
1.17339
1.2653
1.36247
1.48561
1.62106
1.72316
1.78623
1.83496
1.84984
1.84718
1.84275
1.85109
1.90876
2.10795
2.78894
5.15024
11.9238
8.17471
6.64434
1.00137
1.00627
1.0148
1.03027
1.06093
1.10008
1.17338
1.26532
1.36251
1.48563
1.6211
1.72324
1.78627
1.83499
1.84991
1.84734
1.84264
1.84662
1.89623
2.07582
2.68105
4.77631
11.2009
8.08534
6.3819
1.00137
1.00628
1.01479
1.03025
1.06094
1.1001
1.17331
1.26535
1.36266
1.4855
1.62097
1.72339
1.78636
1.83483
1.84995
1.84732
1.84164
1.83906
1.87944
2.03406
2.54634
4.35788
10.2953
8.03918
6.10542
1.00137
1.00627
1.0148
1.03027
1.06093
1.10008
1.17338
1.26534
1.36252
1.48564
1.62108
1.72323
1.78621
1.83487
1.84996
1.8472
1.84077
1.82985
1.85887
1.97992
2.38632
3.8751
9.19919
8.01987
5.85411
1.00137
1.00627
1.0148
1.03027
1.06093
1.10008
1.17341
1.26531
1.36248
1.48561
1.62099
1.72311
1.78608
1.83467
1.84992
1.84713
1.84031
1.8233
1.83191
1.90704
2.21278
3.36145
7.79771
7.94263
5.74327
1.00137
1.00627
1.0148
1.03027
1.06093
1.10009
1.17342
1.26532
1.3625
1.48566
1.62101
1.72315
1.78609
1.83451
1.84987
1.84671
1.83826
1.81592
1.79087
1.83641
2.04517
2.83845
5.95602
7.79911
5.69789
1.00137
1.00627
1.0148
1.03027
1.06093
1.10008
1.17341
1.26531
1.36247
1.48563
1.62096
1.72312
1.78606
1.83427
1.84958
1.84581
1.83447
1.80542
1.7486
1.77728
1.90244
2.39159
4.18616
7.41495
5.56714
1.00137
1.00627
1.0148
1.03028
1.06094
1.1001
1.17342
1.26533
1.3625
1.48558
1.62098
1.72303
1.78608
1.83479
1.84965
1.84704
1.84351
1.85705
1.9252
2.1507
2.94815
5.83416
13.0465
8.50788
7.18648
1.00137
1.00627
1.0148
1.03027
1.06094
1.1001
1.1734
1.26536
1.36254
1.48562
1.62107
1.72316
1.78619
1.83489
1.84976
1.84717
1.84361
1.85637
1.92283
2.14419
2.92202
5.71262
12.861
8.43342
7.0836
1.00137
1.00628
1.0148
1.03025
1.06095
1.10011
1.17329
1.26534
1.36262
1.4854
1.62088
1.72328
1.78632
1.83479
1.84982
1.84728
1.84378
1.85479
1.91834
2.12965
2.86843
5.4724
12.4725
8.30298
6.88426
1.00137
1.00627
1.0148
1.03027
1.06094
1.10009
1.17338
1.26535
1.36255
1.48562
1.6211
1.72325
1.78628
1.83498
1.84986
1.8472
1.84276
1.85112
1.90881
2.10801
2.78901
5.15029
11.9239
8.17479
6.64435
1.00137
1.00628
1.01479
1.03025
1.06095
1.10011
1.17328
1.26533
1.36261
1.48539
1.62087
1.72331
1.78634
1.83483
1.84991
1.84737
1.8427
1.84671
1.89637
2.07594
2.6811
4.7763
11.201
8.08543
6.38191
1.00137
1.00627
1.0148
1.03027
1.06093
1.10009
1.17338
1.26533
1.36252
1.48562
1.62108
1.72322
1.78624
1.83496
1.84994
1.8473
1.84163
1.83899
1.87936
2.03403
2.54641
4.35798
10.2953
8.03919
6.10542
1.00137
1.00627
1.0148
1.03027
1.06093
1.10008
1.17341
1.26531
1.36248
1.48562
1.62102
1.72314
1.78614
1.83483
1.84994
1.84718
1.84077
1.82989
1.8589
1.97997
2.38639
3.87517
9.19921
8.01987
5.85411
1.00137
1.00627
1.0148
1.03027
1.06093
1.10009
1.17343
1.26534
1.36253
1.48571
1.6211
1.72322
1.78619
1.83477
1.85001
1.84721
1.84038
1.82335
1.83196
1.90707
2.21281
3.36146
7.79771
7.94263
5.74326
1.00137
1.00627
1.0148
1.03027
1.06093
1.10009
1.17344
1.26535
1.36255
1.48576
1.62114
1.72327
1.78621
1.83463
1.84998
1.84682
1.83837
1.81602
1.79095
1.83649
2.04523
2.83848
5.95603
7.79911
5.69788
1.00137
1.00627
1.0148
1.03027
1.06092
1.10009
1.17343
1.26535
1.36255
1.48578
1.62114
1.72331
1.78623
1.83443
1.84972
1.84594
1.8346
1.80552
1.74865
1.77732
1.90247
2.39159
4.18617
7.41494
5.56714
1.00137
1.00626
1.01479
1.03026
1.06092
1.10009
1.17345
1.26537
1.36257
1.48574
1.62116
1.7232
1.78626
1.83497
1.84981
1.84719
1.84364
1.85716
1.92528
2.15074
2.94803
5.8334
13.0462
8.50818
7.18662
1.00137
1.00626
1.01479
1.03026
1.06092
1.10008
1.17342
1.26535
1.36252
1.4857
1.62112
1.7232
1.78629
1.83499
1.84986
1.84728
1.84373
1.85648
1.92291
2.14424
2.92191
5.71177
12.8609
8.43356
7.08389
1.00137
1.00626
1.01479
1.03026
1.06093
1.10009
1.17341
1.26537
1.36257
1.48568
1.62113
1.72323
1.78627
1.83497
1.84987
1.84734
1.84372
1.8547
1.91813
2.12965
2.86834
5.47207
12.4721
8.30309
6.88447
1.00136
1.00627
1.01479
1.03025
1.06094
1.10011
1.17333
1.2654
1.36267
1.48551
1.62092
1.72331
1.78635
1.83479
1.84983
1.84719
1.84278
1.85119
1.90897
2.10812
2.78896
5.14982
11.9236
8.1749
6.64458
1.00137
1.00626
1.01479
1.03026
1.06094
1.10009
1.17337
1.26533
1.3625
1.48556
1.621
1.72316
1.78621
1.83496
1.8499
1.84735
1.84268
1.84669
1.89631
2.07591
2.68114
4.77618
11.2006
8.08544
6.38212
1.00137
1.00626
1.0148
1.03027
1.06094
1.10009
1.17337
1.26533
1.36246
1.48551
1.6209
1.72306
1.78611
1.83485
1.84986
1.84724
1.84162
1.83905
1.87942
2.0341
2.54649
4.35788
10.2951
8.03924
6.10556
1.00136
1.00627
1.01479
1.03025
1.06095
1.10011
1.17329
1.26539
1.36267
1.48541
1.62085
1.7233
1.78623
1.83466
1.8499
1.84713
1.84118
1.82967
1.85899
1.9799
2.3864
3.87488
9.19901
8.01995
5.85427
1.00136
1.00627
1.01479
1.03025
1.06096
1.10013
1.17331
1.26541
1.36267
1.48536
1.62075
1.72318
1.78608
1.83441
1.84983
1.84706
1.84028
1.82336
1.83203
1.90716
2.21287
3.36133
7.79718
7.94285
5.74343
1.00137
1.00626
1.0148
1.03027
1.06095
1.1001
1.17337
1.26536
1.36252
1.48553
1.6209
1.72312
1.78605
1.83447
1.84986
1.8467
1.83828
1.81597
1.791
1.83655
2.04531
2.83842
5.95536
7.7994
5.69802
1.00136
1.00627
1.01479
1.03026
1.06096
1.10012
1.17329
1.26538
1.36257
1.48532
1.62062
1.72314
1.78608
1.83403
1.84953
1.84579
1.83448
1.80546
1.74881
1.77747
1.90266
2.3917
4.18588
7.41516
5.56723
1.00137
1.00626
1.0148
1.03027
1.06095
1.1001
1.17338
1.26538
1.36255
1.48558
1.62092
1.72318
1.78609
1.83392
1.84931
1.84527
1.83296
1.80147
1.73112
1.70058
1.75819
2.04931
3.1808
6.19107
4.99378
1.00136
1.00627
1.01479
1.03025
1.06096
1.10012
1.17333
1.26539
1.36266
1.48548
1.62078
1.72327
1.78626
1.83344
1.84899
1.84492
1.8324
1.8001
1.73008
1.60448
1.62809
1.77837
2.41927
4.57053
4.23917
1.00137
1.00626
1.0148
1.03027
1.06095
1.10011
1.1734
1.26539
1.36254
1.48562
1.62092
1.72309
1.78615
1.83336
1.84855
1.84444
1.83184
1.79869
1.71998
1.55398
1.50016
1.54985
1.81128
2.76757
3.60007
1.00137
1.00627
1.0148
1.03027
1.06096
1.10011
1.17339
1.26537
1.3625
1.48554
1.62084
1.72302
1.78611
1.8333
1.84827
1.84404
1.83103
1.7966
1.71686
1.55564
1.3824
1.39003
1.47251
1.81936
2.69694
1.00136
1.00628
1.01479
1.03025
1.06096
1.10013
1.1733
1.2654
1.36266
1.48541
1.62074
1.72322
1.78628
1.83321
1.84824
1.84394
1.83063
1.7952
1.71477
1.55281
1.34995
1.26221
1.27912
1.38155
1.71005
1.00136
1.00628
1.01479
1.03026
1.06097
1.10013
1.17327
1.26541
1.36266
1.48535
1.62071
1.72325
1.7863
1.83322
1.84825
1.84393
1.83055
1.79503
1.71336
1.54843
1.35206
1.20358
1.16436
1.18034
1.2625
1.00136
1.00628
1.01479
1.03026
1.06097
1.10012
1.17323
1.26538
1.36261
1.48528
1.62067
1.72326
1.78633
1.83327
1.84831
1.84399
1.83059
1.795
1.71326
1.54811
1.34824
1.20146
1.11248
1.08974
1.09947
1.00136
1.00628
1.01479
1.03026
1.06098
1.10013
1.17323
1.26538
1.36261
1.48526
1.62064
1.72322
1.78629
1.83322
1.84827
1.84395
1.83055
1.79496
1.71318
1.54795
1.34806
1.19882
1.10813
1.05775
1.04369
1.00136
1.00628
1.01479
1.03026
1.06098
1.10013
1.17326
1.26541
1.36265
1.48531
1.62067
1.7232
1.78625
1.83317
1.84821
1.84389
1.83049
1.7949
1.71313
1.54792
1.34792
1.19867
1.1063
1.05479
1.02757
1.00136
1.00628
1.01479
1.03026
1.06097
1.10013
1.17328
1.26539
1.36263
1.48533
1.62065
1.72316
1.78624
1.83317
1.84821
1.84389
1.8305
1.79492
1.71316
1.54796
1.34793
1.19862
1.10611
1.05392
1.02588
1.00137
1.00627
1.0148
1.03028
1.06097
1.10012
1.17337
1.26539
1.36252
1.4855
1.62081
1.72304
1.78611
1.83329
1.84817
1.84384
1.83044
1.79486
1.71311
1.54791
1.34792
1.19861
1.10606
1.05382
1.02552
1.00136
1.00628
1.01479
1.03026
1.06097
1.10014
1.17332
1.26544
1.36269
1.48542
1.62074
1.7232
1.78624
1.83316
1.84817
1.84385
1.83046
1.79489
1.71314
1.54796
1.34793
1.19861
1.10605
1.0538
1.02547
1.00136
1.00628
1.01479
1.03026
1.06097
1.10014
1.17331
1.26544
1.36269
1.48542
1.62074
1.72321
1.78626
1.83318
1.8482
1.84388
1.83048
1.79491
1.71316
1.54796
1.34793
1.19861
1.10605
1.05379
1.02546
1.00137
1.00627
1.0148
1.03028
1.06097
1.10011
1.17337
1.26538
1.36252
1.48551
1.62085
1.72309
1.78618
1.83337
1.84826
1.84393
1.83052
1.79494
1.71317
1.54794
1.34794
1.19861
1.10605
1.05379
1.02546
1.00136
1.00628
1.01479
1.03026
1.06097
1.10013
1.17328
1.26539
1.36264
1.48537
1.62073
1.72327
1.78637
1.83331
1.84835
1.84403
1.83063
1.79503
1.71325
1.54799
1.34795
1.19862
1.10605
1.05379
1.02545
1.00136
1.00628
1.01479
1.03026
1.06098
1.10014
1.17327
1.26543
1.36269
1.48539
1.62076
1.72331
1.78636
1.83327
1.8483
1.84398
1.83058
1.79499
1.71321
1.54797
1.34794
1.19861
1.10606
1.05379
1.02545
1.00136
1.00628
1.01479
1.03026
1.06098
1.10014
1.17327
1.26543
1.36269
1.48537
1.62074
1.72327
1.78631
1.83322
1.84825
1.84393
1.83053
1.79495
1.71318
1.54795
1.34793
1.19861
1.10605
1.05379
1.02545
1.00136
1.00628
1.01479
1.03026
1.06098
1.10014
1.17329
1.2654
1.36264
1.48533
1.62067
1.72319
1.78625
1.83319
1.84823
1.84392
1.83052
1.79495
1.71319
1.548
1.34795
1.19862
1.10606
1.0538
1.02546
1.00137
1.00627
1.0148
1.03028
1.06097
1.10012
1.17336
1.26538
1.36249
1.48546
1.62076
1.72299
1.78609
1.83328
1.84818
1.84384
1.83044
1.79488
1.71313
1.54794
1.34794
1.19861
1.10605
1.05379
1.02546
1.00136
1.00628
1.0148
1.03026
1.06098
1.10014
1.17329
1.26541
1.36263
1.48532
1.62064
1.72315
1.78621
1.83315
1.84819
1.84388
1.83049
1.79493
1.71319
1.54802
1.34797
1.19863
1.10607
1.0538
1.02546
1.00136
1.00628
1.01479
1.03026
1.06098
1.10014
1.17327
1.26543
1.36268
1.48537
1.62074
1.72328
1.78633
1.83325
1.84827
1.84395
1.83055
1.79496
1.71319
1.54797
1.34794
1.19862
1.10606
1.05379
1.02545
1.00136
1.00628
1.01479
1.03026
1.06098
1.10014
1.17326
1.26542
1.36267
1.48532
1.62069
1.72325
1.7863
1.83322
1.84827
1.84395
1.83056
1.79498
1.71322
1.54802
1.34798
1.19864
1.10607
1.0538
1.02546
1.00136
1.00628
1.01479
1.03026
1.06098
1.10014
1.17327
1.26543
1.36269
1.48537
1.62074
1.72328
1.78633
1.83325
1.84827
1.84395
1.83055
1.79497
1.71319
1.54797
1.34794
1.19861
1.10606
1.05379
1.02545
1.00136
1.00628
1.0148
1.03026
1.06098
1.10014
1.1733
1.26541
1.36264
1.48533
1.62065
1.72316
1.78622
1.83315
1.8482
1.84388
1.83049
1.79493
1.71319
1.54802
1.34798
1.19864
1.10607
1.0538
1.02546
1.00137
1.00627
1.0148
1.03028
1.06097
1.10012
1.17336
1.26538
1.3625
1.48545
1.62076
1.72298
1.78607
1.83326
1.84815
1.84382
1.83042
1.79486
1.71311
1.54793
1.34793
1.19861
1.10605
1.05379
1.02546
1.00136
1.00628
1.0148
1.03026
1.06098
1.10014
1.1733
1.26541
1.36264
1.48533
1.62064
1.72314
1.7862
1.83314
1.84818
1.84386
1.83047
1.79491
1.71318
1.54802
1.34797
1.19864
1.10607
1.0538
1.02546
1.00136
1.00628
1.01479
1.03026
1.06098
1.10014
1.17327
1.26543
1.36268
1.48536
1.62072
1.72326
1.7863
1.83322
1.84825
1.84393
1.83053
1.79494
1.71317
1.54795
1.34792
1.19861
1.10605
1.05379
1.02545
1.00136
1.00628
1.01479
1.03026
1.06098
1.10014
1.17326
1.26541
1.36265
1.48531
1.62067
1.72323
1.78629
1.83321
1.84825
1.84394
1.83054
1.79496
1.7132
1.54799
1.34795
1.19862
1.10606
1.0538
1.02546
1.00136
1.00628
1.01479
1.03026
1.06098
1.10014
1.17327
1.26542
1.36267
1.48536
1.62073
1.72327
1.78633
1.83325
1.84827
1.84395
1.83055
1.79496
1.71318
1.54794
1.34792
1.1986
1.10605
1.05379
1.02545
1.00136
1.00628
1.01479
1.03026
1.06098
1.10013
1.17328
1.26539
1.36263
1.48533
1.62067
1.7232
1.78627
1.83321
1.84825
1.84394
1.83054
1.79496
1.71319
1.54797
1.34793
1.19861
1.10605
1.05379
1.02545
1.00137
1.00627
1.0148
1.03028
1.06097
1.10011
1.17335
1.26537
1.3625
1.48547
1.62078
1.72301
1.7861
1.83329
1.84818
1.84385
1.83044
1.79487
1.71311
1.54789
1.3479
1.19859
1.10604
1.05379
1.02545
1.00136
1.00628
1.01479
1.03026
1.06097
1.10014
1.17331
1.26542
1.36267
1.48539
1.62073
1.72321
1.78626
1.83318
1.8482
1.84388
1.83048
1.7949
1.71314
1.54793
1.3479
1.19859
1.10604
1.05379
1.02545
1.00136
1.00628
1.01479
1.03025
1.06097
1.10013
1.17329
1.26542
1.36267
1.48541
1.62076
1.72326
1.78631
1.83323
1.84825
1.84393
1.83053
1.79493
1.71315
1.5479
1.34788
1.19858
1.10603
1.05378
1.02545
1.00137
1.00627
1.0148
1.03027
1.06096
1.10011
1.17336
1.26537
1.36251
1.48552
1.62086
1.7231
1.78619
1.83337
1.84826
1.84392
1.83051
1.79492
1.71314
1.54788
1.34789
1.19858
1.10603
1.05378
1.02545
1.00136
1.00628
1.01479
1.03025
1.06096
1.10013
1.17329
1.26541
1.36267
1.48544
1.62081
1.72334
1.7864
1.83331
1.84833
1.84401
1.8306
1.79498
1.71317
1.54788
1.34786
1.19856
1.10602
1.05377
1.02544
1.00136
1.00627
1.01479
1.03025
1.06097
1.10013
1.17331
1.26541
1.36267
1.48542
1.62075
1.72323
1.78628
1.8332
1.84821
1.84389
1.8305
1.79491
1.71313
1.54789
1.34786
1.19857
1.10603
1.05378
1.02545
1.00137
1.00626
1.0148
1.03027
1.06096
1.10011
1.17339
1.2654
1.36254
1.48558
1.62089
1.7231
1.78618
1.83335
1.84821
1.84388
1.83047
1.79487
1.71309
1.54783
1.34784
1.19855
1.10602
1.05377
1.02544
1.00136
1.00628
1.01479
1.03025
1.06096
1.10012
1.17327
1.26537
1.36261
1.48537
1.62073
1.72325
1.78634
1.83327
1.8483
1.84398
1.83057
1.79497
1.71316
1.54787
1.34785
1.19856
1.10602
1.05377
1.02544
1.00137
1.00626
1.0148
1.03027
1.06095
1.10011
1.17338
1.26539
1.36254
1.48561
1.6209
1.72311
1.7862
1.83335
1.84822
1.84388
1.83047
1.79488
1.71309
1.54782
1.34784
1.19855
1.10601
1.05377
1.02544
1.00136
1.00627
1.01479
1.03025
1.06096
1.10013
1.17331
1.26541
1.36267
1.48543
1.62076
1.72325
1.78631
1.83323
1.84824
1.84392
1.83051
1.79492
1.71313
1.54787
1.34785
1.19855
1.10602
1.05377
1.02544
1.00137
1.00627
1.0148
1.03027
1.06093
1.10009
1.17343
1.26534
1.36254
1.48578
1.62111
1.72329
1.78623
1.83405
1.8494
1.84535
1.83301
1.80147
1.73099
1.70038
1.75799
2.04916
3.1808
6.19125
4.99374
1.00137
1.00627
1.0148
1.03027
1.06093
1.10009
1.17343
1.26534
1.36252
1.48576
1.62108
1.72326
1.78628
1.8337
1.84907
1.84497
1.83241
1.80005
1.72982
1.60428
1.62788
1.77816
2.41914
4.57073
4.23925
1.00137
1.00627
1.0148
1.03027
1.06093
1.10008
1.1734
1.26532
1.36248
1.48568
1.621
1.72318
1.78629
1.83349
1.84866
1.84454
1.83191
1.7987
1.7199
1.55367
1.49998
1.54969
1.81117
2.76767
3.60012
1.00137
1.00627
1.0148
1.03027
1.06094
1.10009
1.1734
1.26534
1.36252
1.48568
1.62101
1.72318
1.78626
1.83341
1.84833
1.84408
1.83105
1.79654
1.71669
1.55526
1.38219
1.38984
1.47238
1.81936
2.69719
1.00137
1.00628
1.01479
1.03025
1.06094
1.10011
1.17332
1.26537
1.36265
1.48552
1.62087
1.72332
1.78638
1.83328
1.84827
1.84396
1.83062
1.79513
1.7146
1.55248
1.34968
1.2621
1.27902
1.38151
1.71013
1.00137
1.00627
1.0148
1.03027
1.06094
1.10009
1.17337
1.26532
1.36247
1.4856
1.62093
1.72313
1.78622
1.83338
1.84823
1.84389
1.83047
1.7949
1.71313
1.54804
1.35177
1.2034
1.16429
1.18028
1.26249
1.00137
1.00627
1.0148
1.03027
1.06094
1.10009
1.17337
1.26532
1.36246
1.48558
1.62088
1.72306
1.78615
1.83331
1.84816
1.84381
1.83039
1.79477
1.71298
1.54773
1.34796
1.20128
1.11239
1.08971
1.09945
1.00137
1.00628
1.01479
1.03025
1.06095
1.10011
1.17331
1.26537
1.36263
1.48547
1.62081
1.72325
1.7863
1.8332
1.84818
1.84385
1.83043
1.79478