/*--------------------------------*- C++ -*----------------------------------*\
| =========                 |                                                 |
| \\      /  F ield         | OpenFOAM: The Open Source CFD Toolbox           |
|  \\    /   O peration     | Version:  4.1                                   |
|   \\  /    A nd           | Web:      www.OpenFOAM.org                      |
|    \\/     M anipulation  |                                                 |
\*---------------------------------------------------------------------------*/
FoamFile
{
    version     2.0;
    format      ascii;
    class       volScalarField;
    location    "0.14";
    object      T;
}
// * * * * * * * * * * * * * * * * * * * * * * * * * * * * * * * * * * * * * //

dimensions      [0 0 0 1 0 0 0];

internalField   nonuniform List<scalar> 
52500
(
1.00153
1.00429
1.01119
1.02344
1.03797
1.06124
1.11291
1.15964
1.17624
1.20071
1.24435
1.27241
1.27594
1.26761
1.23876
1.20778
1.20364
1.21957
1.23547
1.3016
1.55513
2.15252
2.67052
2.43297
2.08383
1.00153
1.00429
1.01119
1.02345
1.03797
1.06124
1.11291
1.15964
1.17624
1.2007
1.24434
1.27241
1.27594
1.26761
1.23875
1.20779
1.20355
1.21939
1.23464
1.29956
1.54798
2.13632
2.65757
2.42817
2.07574
1.00153
1.00429
1.01119
1.02346
1.03798
1.06124
1.11288
1.15963
1.17625
1.20075
1.24433
1.27236
1.27589
1.26757
1.23876
1.20789
1.20339
1.21891
1.23315
1.29505
1.53313
2.10319
2.62844
2.41901
2.05804
1.00153
1.00429
1.01119
1.02345
1.03797
1.06125
1.1129
1.15962
1.17623
1.20068
1.24431
1.27238
1.27591
1.26759
1.23873
1.20785
1.20291
1.21765
1.23045
1.28813
1.51044
2.05705
2.58512
2.40943
2.0367
1.00153
1.00429
1.01119
1.02346
1.03798
1.06124
1.11285
1.15962
1.17626
1.20071
1.24429
1.27234
1.27588
1.26756
1.23872
1.20799
1.20243
1.21627
1.22613
1.27843
1.47814
2.00142
2.52569
2.40153
2.01293
1.00153
1.00429
1.0112
1.02346
1.03794
1.06121
1.11281
1.15987
1.17644
1.20029
1.2438
1.27225
1.27604
1.26786
1.23924
1.20867
1.20209
1.21363
1.22107
1.26566
1.43633
1.9337
2.44675
2.39555
1.98568
1.00153
1.00429
1.01121
1.02346
1.03795
1.06121
1.1128
1.15986
1.17642
1.20027
1.24379
1.27225
1.27604
1.26786
1.23915
1.20896
1.20123
1.20934
1.2153
1.24952
1.38626
1.8438
2.34424
2.38398
1.97017
1.00153
1.0043
1.01119
1.02345
1.03798
1.06125
1.11284
1.15962
1.17624
1.20063
1.24425
1.27236
1.27592
1.26757
1.23842
1.20881
1.19997
1.20376
1.20915
1.22763
1.33153
1.72585
2.20492
2.36441
1.9579
1.00153
1.00429
1.01121
1.02346
1.03795
1.06121
1.11279
1.15987
1.17643
1.20027
1.24379
1.27224
1.27605
1.26786
1.23876
1.20976
1.19927
1.19975
1.20001
1.2045
1.27807
1.57487
2.01574
2.30926
1.98405
1.00153
1.00429
1.01121
1.02347
1.03795
1.06121
1.1128
1.15988
1.17644
1.20028
1.24379
1.27223
1.27605
1.26784
1.23842
1.20994
1.19795
1.19519
1.19212
1.18173
1.228
1.44144
1.77666
2.24954
1.98146
1.00154
1.0043
1.0112
1.02346
1.03799
1.06126
1.11291
1.15964
1.17623
1.20067
1.2443
1.27237
1.27591
1.26758
1.23873
1.20773
1.20359
1.21953
1.23547
1.30163
1.55523
2.15267
2.67063
2.43299
2.08392
1.00154
1.0043
1.0112
1.02346
1.03798
1.06126
1.11289
1.15965
1.17626
1.20067
1.24431
1.2724
1.27594
1.2676
1.23874
1.20777
1.20353
1.21938
1.23466
1.2996
1.54807
2.13647
2.65771
2.42819
2.07581
1.00154
1.0043
1.01121
1.02347
1.03795
1.06121
1.11281
1.15988
1.17644
1.20029
1.24382
1.27228
1.27607
1.2679
1.23934
1.20837
1.20377
1.21919
1.23334
1.2951
1.53317
2.10319
2.62858
2.41869
2.05839
1.00154
1.0043
1.0112
1.02346
1.03798
1.06126
1.11288
1.15965
1.17626
1.20068
1.24431
1.27242
1.27596
1.26762
1.23875
1.20787
1.20292
1.21766
1.23046
1.28814
1.5105
2.05709
2.58528
2.40908
2.03706
1.00154
1.0043
1.01121
1.02347
1.03795
1.06121
1.1128
1.15987
1.17643
1.20029
1.24383
1.27228
1.27608
1.26791
1.23933
1.20854
1.20285
1.21659
1.22626
1.27844
1.47815
2.00136
2.52586
2.40121
2.01327
1.00154
1.0043
1.0112
1.02346
1.03798
1.06126
1.11288
1.15964
1.17625
1.20068
1.24432
1.27241
1.27595
1.26762
1.2387
1.20816
1.20169
1.21332
1.22094
1.26565
1.4364
1.93374
2.44692
2.39507
1.98608
1.00154
1.0043
1.0112
1.02346
1.03798
1.06126
1.1129
1.15963
1.17623
1.20068
1.24431
1.27239
1.27593
1.26759
1.2386
1.20846
1.20076
1.20909
1.21514
1.24952
1.38631
1.84392
2.34441
2.38396
1.9704
1.00154
1.0043
1.0112
1.02346
1.03798
1.06126
1.11291
1.15964
1.17623
1.2007
1.24433
1.2724
1.27594
1.26759
1.23845
1.20888
1.20005
1.20382
1.20915
1.22758
1.33152
1.72587
2.20508
2.36438
1.95798
1.00154
1.0043
1.0112
1.02346
1.03798
1.06126
1.11292
1.15965
1.17624
1.20071
1.24434
1.27239
1.27595
1.26759
1.2382
1.20926
1.1989
1.19947
1.1999
1.20444
1.27807
1.57487
2.01607
2.30904
1.98412
1.00154
1.0043
1.0112
1.02346
1.03798
1.06125
1.11292
1.15965
1.17624
1.20072
1.24434
1.27239
1.27595
1.26758
1.23788
1.20946
1.19759
1.19492
1.19199
1.18169
1.22799
1.44143
1.77696
2.24924
1.9815
1.00154
1.0043
1.0112
1.02346
1.03798
1.06125
1.11291
1.15964
1.17624
1.2007
1.24435
1.27242
1.27595
1.26762
1.23876
1.20778
1.20364
1.21956
1.23547
1.30161
1.5552
2.15266
2.67062
2.43298
2.08392
1.00154
1.0043
1.0112
1.02346
1.03798
1.06125
1.11291
1.15964
1.17624
1.2007
1.24434
1.27241
1.27594
1.26761
1.23875
1.2078
1.20355
1.21939
1.23465
1.29958
1.54805
2.13647
2.6577
2.42819
2.07581
1.00154
1.0043
1.0112
1.02346
1.03798
1.06125
1.11291
1.15963
1.17623
1.20069
1.24433
1.27241
1.27594
1.26761
1.23876
1.20787
1.20336
1.21889
1.23313
1.29505
1.53318
2.10327
2.62858
2.41868
2.05839
1.00154
1.0043
1.0112
1.02346
1.03798
1.06125
1.1129
1.15963
1.17623
1.20068
1.24432
1.2724
1.27594
1.26761
1.23875
1.20786
1.20292
1.21766
1.23045
1.28813
1.51049
2.05709
2.58528
2.40907
2.03706
1.00154
1.0043
1.0112
1.02346
1.03798
1.06125
1.11288
1.15964
1.17625
1.20068
1.24432
1.27242
1.27596
1.26762
1.23874
1.208
1.20244
1.21627
1.22611
1.27841
1.47817
2.00142
2.52586
2.4012
2.01327
1.00154
1.0043
1.01121
1.02347
1.03795
1.06121
1.11283
1.15988
1.17643
1.20031
1.24385
1.27229
1.27608
1.26791
1.23929
1.20872
1.20212
1.21365
1.22107
1.26566
1.43635
1.93368
2.44691
2.39507
1.98608
1.00154
1.0043
1.0112
1.02346
1.03798
1.06125
1.11288
1.15964
1.17625
1.20068
1.24432
1.27241
1.27595
1.26761
1.2386
1.20846
1.20077
1.2091
1.21513
1.2495
1.38629
1.84391
2.34441
2.38396
1.9704
1.00154
1.0043
1.0112
1.02346
1.03798
1.06126
1.11291
1.15963
1.17623
1.20068
1.24431
1.27237
1.27592
1.26758
1.23843
1.20885
1.20001
1.20379
1.20914
1.22758
1.33152
1.72588
2.20508
2.36438
1.95798
1.00154
1.0043
1.0112
1.02346
1.03798
1.06126
1.11291
1.15963
1.17622
1.20069
1.24431
1.27237
1.27592
1.26757
1.23819
1.20924
1.19887
1.19945
1.19987
1.20442
1.27806
1.57487
2.01607
2.30904
1.98412
1.00154
1.0043
1.0112
1.02346
1.03798
1.06126
1.11291
1.15963
1.17622
1.20068
1.2443
1.27235
1.27592
1.26755
1.23786
1.20942
1.19754
1.19488
1.19197
1.1817
1.228
1.44143
1.77695
2.24924
1.9815
1.00154
1.0043
1.0112
1.02346
1.03797
1.06125
1.11291
1.15963
1.17623
1.20069
1.24434
1.27241
1.27594
1.26761
1.23876
1.20777
1.20363
1.21955
1.23545
1.30159
1.55519
2.15266
2.67062
2.43297
2.08392
1.00154
1.0043
1.0112
1.02346
1.03797
1.06125
1.11291
1.15963
1.17623
1.20069
1.24434
1.27241
1.27594
1.26761
1.23876
1.2078
1.20355
1.21939
1.23463
1.29956
1.54803
2.13646
2.65769
2.42818
2.07581
1.00154
1.0043
1.0112
1.02346
1.03797
1.06125
1.11291
1.15963
1.17623
1.20069
1.24434
1.27241
1.27594
1.26761
1.23876
1.20787
1.20336
1.21889
1.23312
1.29503
1.53317
2.10327
2.62857
2.41868
2.05839
1.00154
1.0043
1.0112
1.02346
1.03797
1.06125
1.11291
1.15963
1.17623
1.20069
1.24434
1.27241
1.27594
1.26761
1.23874
1.20787
1.20293
1.21767
1.23044
1.2881
1.51047
2.05708
2.58527
2.40907
2.03706
1.00154
1.0043
1.0112
1.02346
1.03797
1.06125
1.11291
1.15963
1.17623
1.20069
1.24434
1.27241
1.27595
1.26761
1.23874
1.20801
1.20245
1.21627
1.2261
1.27839
1.47815
2.00141
2.52586
2.4012
2.01327
1.00154
1.0043
1.0112
1.02346
1.03797
1.06125
1.11291
1.15963
1.17623
1.2007
1.24434
1.27241
1.27595
1.26761
1.2387
1.20816
1.20171
1.21332
1.22092
1.26562
1.43637
1.93373
2.44691
2.39506
1.98608
1.00154
1.0043
1.0112
1.02346
1.03797
1.06125
1.11291
1.15963
1.17623
1.2007
1.24434
1.27241
1.27595
1.2676
1.2386
1.20847
1.20078
1.2091
1.21512
1.24948
1.38627
1.84391
2.34441
2.38395
1.9704
1.00154
1.0043
1.0112
1.02346
1.03797
1.06125
1.11291
1.15963
1.17623
1.2007
1.24434
1.2724
1.27595
1.2676
1.23845
1.20888
1.20004
1.20381
1.20913
1.22755
1.33149
1.72586
2.20508
2.36438
1.95798
1.00154
1.0043
1.0112
1.02346
1.03797
1.06125
1.11291
1.15963
1.17623
1.2007
1.24433
1.27239
1.27595
1.26759
1.2382
1.20925
1.19889
1.19946
1.19987
1.2044
1.27804
1.57486
2.01607
2.30904
1.98412
1.00154
1.0043
1.0112
1.02346
1.03797
1.06125
1.11291
1.15963
1.17622
1.20071
1.24433
1.27238
1.27594
1.26757
1.23787
1.20944
1.19758
1.19491
1.19196
1.18166
1.22796
1.44141
1.77695
2.24923
1.9815
1.00154
1.0043
1.01119
1.02347
1.03798
1.06124
1.11288
1.15963
1.17626
1.20077
1.24435
1.27237
1.2759
1.26758
1.23877
1.20781
1.20367
1.21959
1.23548
1.30162
1.5552
2.15266
2.67062
2.43297
2.08392
1.00154
1.0043
1.01119
1.02347
1.03798
1.06124
1.11288
1.15963
1.17626
1.20077
1.24435
1.27237
1.2759
1.26758
1.23877
1.20783
1.20359
1.21943
1.23466
1.29958
1.54804
2.13646
2.65767
2.42817
2.07583
1.00154
1.0043
1.0112
1.02346
1.03798
1.06125
1.11291
1.15964
1.17625
1.20071
1.24434
1.2724
1.27593
1.26759
1.23874
1.20786
1.20336
1.21889
1.23312
1.29504
1.53317
2.10333
2.62855
2.41903
2.05812
1.00154
1.0043
1.0112
1.02346
1.03798
1.06125
1.11291
1.15964
1.17625
1.20071
1.24434
1.2724
1.27593
1.26759
1.23872
1.20786
1.20294
1.21767
1.23044
1.28811
1.51048
2.05715
2.58526
2.40952
2.03672
1.00154
1.0043
1.01119
1.02347
1.03798
1.06124
1.11288
1.15963
1.17626
1.20077
1.24435
1.27237
1.2759
1.26758
1.23874
1.20804
1.20249
1.21631
1.22613
1.27841
1.47816
2.00143
2.52581
2.40126
2.01323
1.00154
1.0043
1.01119
1.02346
1.03798
1.06124
1.11289
1.15962
1.17624
1.20078
1.24436
1.27236
1.27589
1.26756
1.2387
1.2082
1.20176
1.21338
1.22096
1.26565
1.4364
1.93374
2.44689
2.39503
1.9861
1.00154
1.0043
1.01119
1.02346
1.03799
1.06125
1.11289
1.15962
1.17624
1.20078
1.24435
1.27235
1.27588
1.26756
1.23861
1.20852
1.20084
1.20916
1.21517
1.24952
1.38629
1.84391
2.3444
2.38394
1.97041
1.00154
1.0043
1.0112
1.02346
1.03798
1.06125
1.11291
1.15964
1.17624
1.20072
1.24435
1.27239
1.27593
1.26758
1.23843
1.20888
1.20006
1.20383
1.20915
1.22757
1.3315
1.72586
2.20507
2.36437
1.95799
1.00154
1.0043
1.01119
1.02347
1.03798
1.06124
1.11288
1.15964
1.17626
1.20078
1.24435
1.27236
1.27591
1.26756
1.23821
1.20929
1.19893
1.1995
1.19991
1.20443
1.27806
1.57485
2.01605
2.30904
1.98412
1.00154
1.0043
1.01119
1.02347
1.03798
1.06124
1.11288
1.15964
1.17626
1.20078
1.24434
1.27234
1.2759
1.26754
1.23788
1.20948
1.19762
1.19494
1.19199
1.18168
1.22797
1.44141
1.77694
2.24924
1.9815
1.00154
1.0043
1.0112
1.02345
1.03797
1.06125
1.1129
1.15963
1.17623
1.20069
1.24434
1.27241
1.27594
1.26761
1.23876
1.20777
1.20363
1.21955
1.23545
1.30159
1.55518
2.15265
2.67061
2.43298
2.08392
1.00154
1.0043
1.0112
1.02345
1.03797
1.06125
1.11291
1.15963
1.17623
1.20069
1.24434
1.27241
1.27594
1.26761
1.23876
1.2078
1.20355
1.21939
1.23463
1.29956
1.54803
2.13646
2.65769
2.42819
2.07581
1.00154
1.0043
1.0112
1.02345
1.03797
1.06125
1.11291
1.15963
1.17623
1.20069
1.24434
1.27241
1.27594
1.26761
1.23876
1.20787
1.20336
1.21889
1.23312
1.29503
1.53317
2.10327
2.62857
2.41868
2.05839
1.00154
1.0043
1.0112
1.02345
1.03797
1.06125
1.11291
1.15962
1.17622
1.2007
1.24434
1.27241
1.27594
1.2676
1.23873
1.20787
1.20294
1.21767
1.23044
1.28811
1.51047
2.05708
2.58527
2.40906
2.03706
1.00154
1.0043
1.0112
1.02345
1.03797
1.06125
1.11291
1.15963
1.17623
1.2007
1.24434
1.27241
1.27595
1.26761
1.23874
1.20801
1.20245
1.21628
1.2261
1.27839
1.47815
2.00141
2.52586
2.4012
2.01327
1.00154
1.0043
1.0112
1.02345
1.03797
1.06125
1.11291
1.15962
1.17622
1.2007
1.24435
1.27241
1.27594
1.2676
1.23869
1.20817
1.20172
1.21334
1.22093
1.26563
1.43638
1.93373
2.44692
2.39507
1.9861
1.00154
1.0043
1.0112
1.02345
1.03797
1.06125
1.11291
1.15963
1.17623
1.2007
1.24434
1.27241
1.27595
1.26761
1.23861
1.20848
1.20079
1.20911
1.21513
1.24949
1.38627
1.8439
2.34441
2.38394
1.97038
1.00154
1.0043
1.0112
1.02345
1.03797
1.06125
1.11291
1.15963
1.17623
1.2007
1.24434
1.27241
1.27595
1.2676
1.23845
1.20888
1.20005
1.20382
1.20914
1.22755
1.3315
1.72586
2.20508
2.36437
1.95794
1.00154
1.0043
1.0112
1.02346
1.03797
1.06125
1.11291
1.15964
1.17623
1.20071
1.24434
1.2724
1.27595
1.26759
1.2382
1.20926
1.19889
1.19947
1.19988
1.20441
1.27804
1.57486
2.01607
2.30904
1.98409
1.00154
1.0043
1.0112
1.02346
1.03798
1.06125
1.11291
1.15964
1.17623
1.20071
1.24433
1.27238
1.27594
1.26757
1.23787
1.20944
1.19758
1.19491
1.19197
1.18167
1.22796
1.44142
1.77695
2.24924
1.98148
1.00154
1.0043
1.0112
1.02345
1.03797
1.06125
1.11291
1.15963
1.17623
1.20069
1.24434
1.27241
1.27594
1.26761
1.23875
1.20777
1.20363
1.21955
1.23546
1.3016
1.55519
2.15266
2.67062
2.43297
2.08392
1.00154
1.0043
1.0112
1.02346
1.03797
1.06125
1.11291
1.15963
1.17623
1.20069
1.24434
1.27241
1.27594
1.26761
1.23876
1.2078
1.20355
1.21939
1.23463
1.29956
1.54803
2.13646
2.65769
2.42818
2.07581
1.00154
1.0043
1.0112
1.02346
1.03797
1.06125
1.11291
1.15963
1.17623
1.20069
1.24434
1.27241
1.27594
1.26761
1.23876
1.20787
1.20336
1.21888
1.23312
1.29503
1.53317
2.10327
2.62857
2.41868
2.05839
1.00154
1.0043
1.0112
1.02346
1.03797
1.06125
1.11291
1.15963
1.17623
1.20069
1.24434
1.27241
1.27594
1.26761
1.23874
1.20787
1.20293
1.21767
1.23044
1.2881
1.51047
2.05708
2.58527
2.40907
2.03706
1.00154
1.0043
1.0112
1.02346
1.03797
1.06125
1.11291
1.15963
1.17623
1.20069
1.24434
1.27241
1.27595
1.26761
1.23874
1.20801
1.20245
1.21627
1.2261
1.27839
1.47815
2.00141
2.52586
2.4012
2.01327
1.00154
1.0043
1.0112
1.02346
1.03797
1.06125
1.11291
1.15963
1.17623
1.20069
1.24434
1.27241
1.27595
1.26761
1.2387
1.20816
1.2017
1.21332
1.22092
1.26562
1.43637
1.93373
2.44691
2.39506
1.98608
1.00154
1.0043
1.0112
1.02346
1.03797
1.06125
1.11291
1.15963
1.17623
1.2007
1.24434
1.27241
1.27595
1.2676
1.2386
1.20847
1.20078
1.2091
1.21512
1.24948
1.38627
1.84391
2.34441
2.38395
1.9704
1.00154
1.0043
1.0112
1.02346
1.03797
1.06125
1.11291
1.15963
1.17623
1.2007
1.24434
1.2724
1.27595
1.2676
1.23845
1.20888
1.20004
1.20381
1.20913
1.22755
1.33149
1.72586
2.20508
2.36438
1.95798
1.00154
1.0043
1.0112
1.02346
1.03797
1.06125
1.11291
1.15963
1.17622
1.2007
1.24433
1.27239
1.27595
1.26759
1.2382
1.20925
1.19889
1.19946
1.19987
1.2044
1.27804
1.57486
2.01607
2.30904
1.98412
1.00154
1.0043
1.0112
1.02346
1.03797
1.06125
1.11291
1.15963
1.17622
1.20071
1.24433
1.27238
1.27594
1.26757
1.23787
1.20944
1.19758
1.19491
1.19196
1.18166
1.22796
1.44141
1.77695
2.24923
1.9815
1.00154
1.0043
1.0112
1.02346
1.03798
1.06125
1.11291
1.15964
1.17624
1.2007
1.24435
1.27242
1.27595
1.26762
1.23876
1.20778
1.20364
1.21956
1.23547
1.30161
1.5552
2.15266
2.67062
2.43298
2.08392
1.00154
1.0043
1.0112
1.02346
1.03798
1.06125
1.11291
1.15964
1.17624
1.2007
1.24434
1.27241
1.27594
1.26761
1.23875
1.2078
1.20355
1.21939
1.23465
1.29958
1.54805
2.13647
2.6577
2.42819
2.07581
1.00154
1.0043
1.0112
1.02346
1.03798
1.06125
1.11291
1.15963
1.17623
1.20069
1.24433
1.27241
1.27594
1.26761
1.23876
1.20787
1.20336
1.21889
1.23313
1.29505
1.53318
2.10327
2.62858
2.41868
2.05839
1.00154
1.0043
1.0112
1.02346
1.03798
1.06125
1.1129
1.15963
1.17623
1.20068
1.24432
1.2724
1.27594
1.26761
1.23875
1.20786
1.20292
1.21766
1.23045
1.28813
1.51049
2.05709
2.58528
2.40907
2.03706
1.00154
1.0043
1.0112
1.02346
1.03798
1.06125
1.11288
1.15964
1.17625
1.20068
1.24432
1.27242
1.27596
1.26762
1.23874
1.208
1.20244
1.21627
1.22611
1.27841
1.47817
2.00142
2.52586
2.4012
2.01327
1.00154
1.0043
1.01121
1.02347
1.03795
1.06121
1.11283
1.15988
1.17643
1.20031
1.24385
1.27229
1.27608
1.26791
1.23929
1.20872
1.20212
1.21365
1.22107
1.26566
1.43635
1.93368
2.44691
2.39507
1.98608
1.00154
1.0043
1.0112
1.02346
1.03798
1.06125
1.11288
1.15964
1.17625
1.20068
1.24432
1.27241
1.27595
1.26761
1.2386
1.20846
1.20077
1.2091
1.21513
1.2495
1.38629
1.84391
2.34441
2.38396
1.9704
1.00154
1.0043
1.0112
1.02346
1.03798
1.06126
1.11291
1.15963
1.17623
1.20068
1.24431
1.27237
1.27592
1.26758
1.23843
1.20885
1.20001
1.20379
1.20914
1.22758
1.33152
1.72588
2.20508
2.36438
1.95798
1.00154
1.0043
1.0112
1.02346
1.03798
1.06126
1.11291
1.15963
1.17622
1.20069
1.24431
1.27237
1.27592
1.26757
1.23819
1.20924
1.19887
1.19945
1.19987
1.20442
1.27806
1.57487
2.01607
2.30904
1.98412
1.00154
1.0043
1.0112
1.02346
1.03798
1.06126
1.11291
1.15963
1.17622
1.20068
1.2443
1.27235
1.27592
1.26755
1.23786
1.20942
1.19754
1.19488
1.19197
1.1817
1.228
1.44143
1.77695
2.24924
1.9815
1.00154
1.0043
1.0112
1.02346
1.03799
1.06126
1.11291
1.15964
1.17623
1.20067
1.2443
1.27237
1.27591
1.26758
1.23873
1.20773
1.20359
1.21953
1.23547
1.30163
1.55523
2.15267
2.67063
2.43299
2.08392
1.00154
1.0043
1.0112
1.02346
1.03798
1.06126
1.11289
1.15965
1.17626
1.20067
1.24431
1.2724
1.27594
1.2676
1.23874
1.20778
1.20353
1.21938
1.23466
1.2996
1.54807
2.13647
2.65771
2.42819
2.07581
1.00154
1.0043
1.01121
1.02347
1.03795
1.06121
1.11281
1.15988
1.17644
1.20029
1.24382
1.27228
1.27607
1.2679
1.23934
1.20837
1.20377
1.21919
1.23334
1.2951
1.53317
2.10319
2.62858
2.41869
2.05839
1.00154
1.0043
1.0112
1.02346
1.03798
1.06126
1.11288
1.15965
1.17626
1.20068
1.24431
1.27242
1.27596
1.26762
1.23875
1.20787
1.20292
1.21766
1.23046
1.28814
1.5105
2.05709
2.58528
2.40908
2.03706
1.00154
1.0043
1.01121
1.02347
1.03795
1.06121
1.1128
1.15987
1.17643
1.20029
1.24383
1.27228
1.27608
1.26791
1.23933
1.20854
1.20285
1.21659
1.22626
1.27844
1.47815
2.00136
2.52586
2.40121
2.01327
1.00154
1.0043
1.0112
1.02346
1.03798
1.06126
1.11288
1.15964
1.17625
1.20068
1.24432
1.27241
1.27595
1.26762
1.2387
1.20816
1.20169
1.21332
1.22094
1.26565
1.4364
1.93374
2.44692
2.39507
1.98608
1.00154
1.0043
1.0112
1.02346
1.03798
1.06126
1.1129
1.15963
1.17623
1.20068
1.24431
1.27239
1.27593
1.26759
1.2386
1.20846
1.20076
1.20909
1.21514
1.24952
1.38631
1.84392
2.34441
2.38396
1.9704
1.00154
1.0043
1.0112
1.02346
1.03798
1.06126
1.11291
1.15964
1.17623
1.2007
1.24433
1.2724
1.27594
1.26759
1.23845
1.20888
1.20005
1.20382
1.20915
1.22758
1.33152
1.72587
2.20508
2.36438
1.95798
1.00154
1.0043
1.0112
1.02346
1.03798
1.06126
1.11292
1.15965
1.17624
1.20071
1.24434
1.27239
1.27595
1.26759
1.2382
1.20926
1.1989
1.19947
1.1999
1.20444
1.27807
1.57487
2.01607
2.30904
1.98412
1.00154
1.0043
1.0112
1.02346
1.03798
1.06125
1.11292
1.15965
1.17624
1.20072
1.24434
1.27239
1.27595
1.26758
1.23788
1.20946
1.19759
1.19492
1.19199
1.18169
1.22799
1.44143
1.77696
2.24924
1.9815
1.00153
1.00429
1.01119
1.02345
1.03797
1.06125
1.11292
1.15964
1.17624
1.2007
1.24433
1.27239
1.27591
1.26758
1.23873
1.20776
1.20363
1.21955
1.23548
1.30161
1.55515
2.15258
2.6705
2.43337
2.08353
1.00153
1.00429
1.01119
1.02346
1.03798
1.06124
1.11287
1.15963
1.17626
1.20075
1.24433
1.27236
1.27589
1.26758
1.23877
1.20782
1.20357
1.21941
1.23468
1.29959
1.54801
2.13633
2.65755
2.42817
2.07574
1.00153
1.00429
1.01119
1.02345
1.03797
1.06125
1.11289
1.15964
1.17626
1.20069
1.24431
1.27239
1.27592
1.26759
1.23874
1.20785
1.20334
1.21888
1.23314
1.29506
1.53314
2.10321
2.62844
2.419
2.05807
1.00153
1.00429
1.0112
1.02348
1.03796
1.0612
1.11278
1.15988
1.17647
1.20039
1.24381
1.2722
1.276
1.26786
1.23937
1.20848
1.20343
1.21805
1.23063
1.28816
1.51041
2.05698
2.58512
2.40944
2.0367
1.00153
1.00429
1.01119
1.02345
1.03797
1.06125
1.11286
1.15964
1.17626
1.20067
1.24429
1.27238
1.27593
1.2676
1.23873
1.20797
1.20241
1.21624
1.22611
1.27842
1.47814
2.00142
2.52569
2.40154
2.01293
1.00153
1.00429
1.01119
1.02346
1.03799
1.06125
1.11284
1.15961
1.17625
1.20072
1.24428
1.27232
1.27586
1.26753
1.23867
1.20814
1.20169
1.21333
1.22098
1.2657
1.43641
1.93377
2.44675
2.39555
1.98568
1.00153
1.00429
1.0112
1.02346
1.03794
1.06121
1.1128
1.15989
1.17645
1.20029
1.2438
1.27225
1.27605
1.26786
1.23915
1.20896
1.20123
1.20934
1.21529
1.2495
1.38624
1.84379
2.34424
2.38398
1.97017
1.00153
1.00429
1.01121
1.02347
1.03795
1.06121
1.11281
1.1599
1.17646
1.20028
1.24378
1.27222
1.27601
1.26782
1.23895
1.20934
1.20039
1.20408
1.20926
1.22761
1.33149
1.72577
2.20489
2.36441
1.95791
1.00153
1.00429
1.01119
1.02345
1.03798
1.06125
1.11286
1.15964
1.17626
1.20066
1.24426
1.27234
1.2759
1.26754
1.23815
1.20919
1.19883
1.19942
1.19989
1.20445
1.27807
1.57491
2.01574
2.30926
1.98406
1.00153
1.00429
1.0112
1.02348
1.03797
1.06121
1.11275
1.15986
1.17646
1.20036
1.24375
1.27211
1.27593
1.26776
1.23845
1.21001
1.19801
1.19525
1.19217
1.18176
1.22803
1.44146
1.77665
2.24954
1.98146
1.00153
1.00429
1.01119
1.02345
1.03798
1.06126
1.11288
1.15965
1.17626
1.20066
1.24426
1.27232
1.2759
1.26752
1.23746
1.20961
1.19701
1.19288
1.18464
1.15948
1.17846
1.32007
1.58865
2.17402
1.92699
1.00153
1.00429
1.01121
1.02347
1.03795
1.06122
1.11283
1.15988
1.17642
1.2003
1.24381
1.27218
1.276
1.2678
1.23782
1.21
1.19792
1.19153
1.1778
1.13642
1.13528
1.21065
1.43246
1.93038
1.76
1.00153
1.00429
1.01119
1.02346
1.03798
1.06126
1.11289
1.15966
1.17626
1.20066
1.24428
1.27229
1.27587
1.26749
1.2372
1.209
1.198
1.18973
1.17094
1.1255
1.0927
1.11869
1.25043
1.52906
1.64452
1.00153
1.0043
1.0112
1.02346
1.03799
1.06126
1.11288
1.15965
1.17625
1.20065
1.24426
1.27228
1.27585
1.26747
1.2372
1.20876
1.19775
1.18942
1.16903
1.12085
1.06029
1.06295
1.11524
1.27307
1.47507
1.00153
1.00429
1.01121
1.02347
1.03795
1.06122
1.11282
1.15988
1.17643
1.20028
1.24379
1.27217
1.27599
1.26776
1.23776
1.20933
1.19797
1.18958
1.16838
1.1169
1.04907
1.02493
1.04008
1.10506
1.23106
1.00153
1.00429
1.01121
1.02347
1.03796
1.06123
1.11279
1.15989
1.17645
1.20027
1.24378
1.27217
1.27599
1.26777
1.23775
1.20932
1.19794
1.18945
1.16814
1.1154
1.04671
1.00604
1.00431
1.02285
1.07587
1.00153
1.00429
1.01121
1.02347
1.03796
1.06122
1.11277
1.15988
1.17645
1.20026
1.24377
1.27218
1.27601
1.26778
1.23776
1.20931
1.19793
1.18942
1.16805
1.1155
1.0453
1.00259
0.988928
0.993321
1.00965
1.00153
1.00429
1.01121
1.02347
1.03796
1.06122
1.11277
1.15989
1.17646
1.20025
1.24376
1.27218
1.27601
1.26778
1.23776
1.2093
1.19792
1.18941
1.16802
1.11539
1.04537
1.00152
0.985689
0.985026
0.991562
1.00153
1.00429
1.01121
1.02347
1.03796
1.06123
1.11279
1.15988
1.17645
1.20026
1.24377
1.27217
1.27599
1.26776
1.23774
1.20931
1.19793
1.18941
1.16802
1.11538
1.04529
1.00151
0.984913
0.983526
0.987242
1.00153
1.00429
1.01121
1.02347
1.03796
1.06122
1.1128
1.15989
1.17644
1.20026
1.24377
1.27216
1.27599
1.26777
1.23775
1.20931
1.19792
1.18941
1.16801
1.11539
1.04529
1.00149
0.984831
0.983205
0.986686
1.00153
1.0043
1.0112
1.02346
1.03799
1.06127
1.11287
1.15965
1.17626
1.20064
1.24425
1.27228
1.27585
1.26746
1.23716
1.20875
1.19746
1.18907
1.16789
1.11545
1.04534
1.00153
0.984843
0.983188
0.986591
1.00153
1.00429
1.01121
1.02347
1.03796
1.06123
1.11282
1.1599
1.17644
1.20028
1.24378
1.27216
1.27597
1.26775
1.23774
1.20932
1.19794
1.18943
1.16802
1.11539
1.04529
1.00148
0.984807
0.983154
0.986561
1.00153
1.00429
1.01121
1.02347
1.03796
1.06123
1.11282
1.15991
1.17646
1.20028
1.24378
1.27217
1.27599
1.26776
1.23775
1.20932
1.19794
1.18942
1.16801
1.11538
1.04528
1.00148
0.984806
0.983153
0.986558
1.00153
1.0043
1.0112
1.02346
1.03799
1.06127
1.11286
1.15965
1.17626
1.20064
1.24425
1.27229
1.27587
1.26748
1.23718
1.20877
1.19748
1.18909
1.16791
1.11545
1.04535
1.00153
0.984841
0.983179
0.986572
1.00153
1.00429
1.01121
1.02347
1.03796
1.06122
1.1128
1.15988
1.17644
1.20028
1.24379
1.27218
1.276
1.26778
1.23778
1.20934
1.19796
1.18944
1.16804
1.1154
1.0453
1.00149
0.984808
0.983153
0.986557
1.00153
1.00429
1.01121
1.02347
1.03796
1.06122
1.11279
1.15991
1.17647
1.20027
1.24378
1.27219
1.27602
1.26779
1.23776
1.20932
1.19794
1.18943
1.16803
1.11539
1.04529
1.00148
0.984807
0.983153
0.986557
1.00153
1.00429
1.01121
1.02347
1.03796
1.06122
1.11279
1.15991
1.17647
1.20027
1.24377
1.27218
1.27601
1.26778
1.23775
1.20931
1.19793
1.18942
1.16802
1.11538
1.04529
1.00148
0.984807
0.983153
0.986557
1.00153
1.00429
1.01121
1.02347
1.03796
1.06122
1.1128
1.15989
1.17645
1.20026
1.24377
1.27217
1.27599
1.26777
1.23776
1.20931
1.19793
1.18941
1.16802
1.1154
1.0453
1.00149
0.984808
0.983153
0.986556
1.00153
1.0043
1.0112
1.02346
1.03799
1.06127
1.11286
1.15965
1.17626
1.20063
1.24423
1.27227
1.27585
1.26746
1.23716
1.20876
1.19746
1.18907
1.16789
1.11545
1.04535
1.00153
0.984841
0.983179
0.986572
1.00153
1.00429
1.01121
1.02347
1.03796
1.06123
1.11281
1.1599
1.17645
1.20026
1.24376
1.27216
1.27598
1.26776
1.23775
1.20931
1.19792
1.18941
1.16802
1.11541
1.04531
1.00149
0.98481
0.983154
0.986556
1.00153
1.00429
1.01121
1.02347
1.03796
1.06123
1.11279
1.1599
1.17646
1.20027
1.24378
1.27218
1.276
1.26777
1.23775
1.20932
1.19794
1.18943
1.16803
1.11539
1.04529
1.00149
0.984808
0.983154
0.986557
1.00153
1.00429
1.01121
1.02347
1.03796
1.06123
1.11278
1.15991
1.17647
1.20026
1.24376
1.27218
1.27601
1.26778
1.23776
1.2093
1.19792
1.18941
1.16803
1.11542
1.04531
1.0015
0.984811
0.983154
0.986556
1.00153
1.00429
1.01121
1.02347
1.03796
1.06123
1.11279
1.1599
1.17646
1.20027
1.24378
1.27218
1.276
1.26777
1.23775
1.20932
1.19794
1.18943
1.16803
1.11539
1.04529
1.00148
0.984808
0.983153
0.986557
1.00153
1.00429
1.01121
1.02347
1.03796
1.06123
1.11281
1.1599
1.17645
1.20026
1.24376
1.27216
1.27598
1.26776
1.23775
1.20931
1.19792
1.18941
1.16802
1.11541
1.04531
1.00149
0.984811
0.983154
0.986556
1.00153
1.0043
1.0112
1.02346
1.03799
1.06127
1.11286
1.15966
1.17627
1.20062
1.24423
1.27227
1.27585
1.26746
1.23716
1.20875
1.19745
1.18906
1.16788
1.11544
1.04535
1.00153
0.984841
0.983179
0.986572
1.00153
1.00429
1.01121
1.02347
1.03796
1.06123
1.11281
1.15988
1.17643
1.20026
1.24376
1.27215
1.27597
1.26775
1.23774
1.20931
1.19792
1.18941
1.16802
1.11542
1.04531
1.00149
0.984811
0.983154
0.986556
1.00153
1.00429
1.01121
1.02347
1.03796
1.06123
1.11279
1.15991
1.17647
1.20027
1.24377
1.27218
1.27601
1.26778
1.23775
1.20931
1.19793
1.18942
1.16802
1.11538
1.04529
1.00148
0.984807
0.983153
0.986557
1.00153
1.00429
1.01121
1.02347
1.03796
1.06123
1.11278
1.15989
1.17646
1.20026
1.24377
1.27217
1.27599
1.26777
1.23775
1.20931
1.19793
1.18942
1.16803
1.11541
1.04531
1.00149
0.98481
0.983154
0.986556
1.00153
1.00429
1.01121
1.02347
1.03796
1.06123
1.11279
1.15989
1.17645
1.20027
1.24378
1.27218
1.276
1.26777
1.23776
1.20932
1.19794
1.18943
1.16803
1.11538
1.04529
1.00148
0.984806
0.983153
0.986557
1.00153
1.00429
1.01121
1.02347
1.03796
1.06122
1.1128
1.15989
1.17645
1.20026
1.24377
1.27217
1.276
1.26778
1.23776
1.20932
1.19793
1.18941
1.16802
1.11539
1.04529
1.00148
0.984807
0.983153
0.986556
1.00153
1.0043
1.0112
1.02346
1.03799
1.06127
1.11286
1.15965
1.17627
1.20063
1.24424
1.27228
1.27586
1.26747
1.23717
1.20875
1.19746
1.18907
1.16788
1.11543
1.04533
1.00152
0.984838
0.983177
0.986572
1.00153
1.00429
1.01121
1.02347
1.03796
1.06122
1.11281
1.1599
1.17645
1.20027
1.24378
1.27217
1.27599
1.26777
1.23775
1.20932
1.19794
1.18942
1.16801
1.11537
1.04528
1.00147
0.984803
0.983151
0.986557
1.00153
1.00429
1.01121
1.02347
1.03795
1.06122
1.1128
1.1599
1.17645
1.20028
1.24379
1.27218
1.276
1.26778
1.23776
1.20933
1.19795
1.18943
1.16801
1.11536
1.04527
1.00147
0.984801
0.983151
0.986557
1.00153
1.0043
1.0112
1.02346
1.03799
1.06126
1.11286
1.15966
1.17627
1.20065
1.24426
1.2723
1.27588
1.26749
1.23718
1.20877
1.19747
1.18908
1.16789
1.11543
1.04533
1.00152
0.984836
0.983176
0.986572
1.00153
1.00429
1.01121
1.02347
1.03795
1.06122
1.1128
1.1599
1.17645
1.20029
1.2438
1.2722
1.27602
1.2678
1.23778
1.20934
1.19796
1.18944
1.16802
1.11535
1.04526
1.00146
0.984799
0.98315
0.986558
1.00153
1.00429
1.01121
1.02347
1.03795
1.06122
1.11281
1.15989
1.17644
1.20028
1.24379
1.27217
1.27598
1.26776
1.23775
1.20933
1.19795
1.18943
1.16802
1.11536
1.04527
1.00147
0.9848
0.98315
0.986557
1.00153
1.0043
1.01119
1.02345
1.03798
1.06127
1.11288
1.15965
1.17626
1.20066
1.24427
1.27229
1.27586
1.26747
1.23717
1.20878
1.1975
1.18909
1.16789
1.1154
1.0453
1.0015
0.984831
0.983175
0.986574
1.00153
1.00429
1.01121
1.02347
1.03795
1.06121
1.11279
1.15989
1.17644
1.20028
1.24379
1.27218
1.27601
1.26779
1.23777
1.20933
1.19795
1.18942
1.16802
1.11536
1.04526
1.00147
0.984799
0.983149
0.986556
1.00153
1.00429
1.01119
1.02346
1.03799
1.06126
1.11285
1.15965
1.17628
1.20072
1.24427
1.27226
1.27584
1.26746
1.2372
1.20882
1.19753
1.18912
1.1679
1.1154
1.0453
1.0015
0.984829
0.983173
0.986572
1.00153
1.00429
1.01121
1.02347
1.03795
1.06122
1.11281
1.15989
1.17644
1.20029
1.2438
1.27217
1.27598
1.26776
1.23775
1.20933
1.19796
1.18944
1.16802
1.11535
1.04526
1.00146
0.984798
0.983149
0.986558
1.00154
1.0043
1.0112
1.02346
1.03798
1.06126
1.11292
1.15965
1.17624
1.20072
1.24434
1.27236
1.27594
1.26755
1.23751
1.20967
1.19709
1.19293
1.18463
1.15939
1.17839
1.32005
1.58873
2.17382
1.92701
1.00154
1.0043
1.0112
1.02346
1.03798
1.06125
1.11291
1.15965
1.17623
1.20072
1.24434
1.27234
1.27592
1.26755
1.23728
1.20951
1.19752
1.19124
1.17764
1.13637
1.13525
1.21064
1.43255
1.93036
1.75997
1.00154
1.0043
1.0112
1.02346
1.03798
1.06125
1.1129
1.15964
1.17623
1.2007
1.24433
1.27233
1.2759
1.26753
1.23724
1.20905
1.19806
1.18977
1.17093
1.1254
1.09265
1.11866
1.25046
1.5291
1.64453
1.00154
1.0043
1.0112
1.02346
1.03798
1.06126
1.11289
1.15965
1.17625
1.20069
1.24432
1.27233
1.27589
1.26751
1.23723
1.20882
1.19782
1.18947
1.16902
1.12072
1.0602
1.06289
1.11523
1.27312
1.47516
1.00154
1.0043
1.01121
1.02347
1.03795
1.06121
1.11283
1.15989
1.17643
1.20032
1.24384
1.27221
1.27603
1.2678
1.23779
1.20938
1.19802
1.18961
1.16836
1.11678
1.04897
1.02489
1.04006
1.10509
1.23111
1.00154
1.0043
1.0112
1.02346
1.03798
1.06126
1.11287
1.15964
1.17624
1.20068
1.2443
1.27232
1.27589
1.2675
1.2372
1.20881
1.19752
1.18913
1.16798
1.11532
1.04666
1.00603
1.00433
1.02288
1.07592
1.00154
1.0043
1.0112
1.02346
1.03798
1.06126
1.11288
1.15964
1.17624
1.20067
1.24429
1.27231
1.27588
1.26749
1.23718
1.20879
1.19751
1.1891
1.16788
1.11542
1.04525
1.00258
0.988944
0.99335
1.00969
1.00154
1.0043
1.01121
1.02347
1.03795
1.06122
1.11283
1.15988
1.17642
1.2003