/*--------------------------------*- C++ -*----------------------------------*\
| =========                 |                                                 |
| \\      /  F ield         | OpenFOAM: The Open Source CFD Toolbox           |
|  \\    /   O peration     | Version:  4.1                                   |
|   \\  /    A nd           | Web:      www.OpenFOAM.org                      |
|    \\/     M anipulation  |                                                 |
\*---------------------------------------------------------------------------*/
FoamFile
{
    version     2.0;
    format      ascii;
    class       volScalarField;
    location    "5.48";
    object      Ma;
}
// * * * * * * * * * * * * * * * * * * * * * * * * * * * * * * * * * * * * * //

dimensions      [0 0 0 0 0 0 0];

internalField   nonuniform List<scalar> 
52500
(
3.00002
2.99997
2.99991
2.99966
2.99932
2.99794
2.99596
2.98832
2.97572
2.93437
2.84107
2.62512
2.06353
1.20802
0.504789
0.290494
0.33291
0.344714
0.312891
0.258924
0.206766
0.164801
0.123465
0.0777118
0.0443082
3.00002
2.99997
2.99991
2.99967
2.99934
2.99797
2.99602
2.9885
2.97604
2.93533
2.84308
2.62988
2.07185
1.2203
0.511019
0.289886
0.333468
0.345808
0.314055
0.260751
0.20996
0.169637
0.130768
0.0906109
0.0670419
3.00002
2.99997
2.99991
2.99968
2.99936
2.99803
2.99613
2.98887
2.9767
2.93734
2.84729
2.64004
2.09029
1.24771
0.525721
0.290542
0.336774
0.350921
0.320197
0.26926
0.221896
0.18541
0.151785
0.120339
0.105081
3.00002
2.99997
2.99992
2.99969
2.99938
2.99811
2.99629
2.98932
2.97767
2.93991
2.85379
2.65446
2.12416
1.29415
0.551967
0.29567
0.345047
0.361874
0.332658
0.284872
0.241624
0.209672
0.181765
0.157537
0.146794
3.00002
2.99998
2.99992
2.99971
2.99942
2.99821
2.99649
2.98987
2.97895
2.94306
2.86251
2.67288
2.17434
1.3605
0.588859
0.304993
0.357772
0.378069
0.35059
0.30666
0.267619
0.240226
0.217421
0.198699
0.191051
3.00002
2.99998
2.99993
2.99973
2.99945
2.99831
2.9967
2.99029
2.9804
2.94605
2.87483
2.69609
2.24143
1.45046
0.638376
0.323115
0.377567
0.400875
0.374967
0.334558
0.299694
0.276526
0.258827
0.245243
0.240492
3.00002
2.99998
2.99994
2.99975
2.99949
2.99844
2.99695
2.99102
2.98206
2.94996
2.88846
2.72259
2.31844
1.56175
0.699433
0.353301
0.406409
0.430779
0.406266
0.369582
0.338408
0.3195
0.306542
0.298579
0.299086
3.00002
2.99999
2.99994
2.99978
2.99954
2.99859
2.99724
2.99187
2.9838
2.95459
2.90087
2.74794
2.39655
1.67602
0.768131
0.395007
0.442902
0.464467
0.442332
0.410541
0.383233
0.36897
0.362268
0.36218
0.372481
3.00002
2.99999
2.99995
2.9998
2.99959
2.99874
2.99754
2.9927
2.98551
2.95914
2.91119
2.77371
2.45332
1.78046
0.833397
0.436686
0.471318
0.488367
0.47567
0.452623
0.43236
0.424254
0.425559
0.438955
0.473191
3.00002
3
2.99996
2.99984
2.99966
2.99897
2.99793
2.99415
2.98753
2.96687
2.91933
2.80613
2.4958
1.90506
0.935945
0.504235
0.492705
0.505245
0.506001
0.492337
0.482744
0.483441
0.499474
0.541056
0.640119
3
2.99995
2.99989
2.99965
2.99931
2.99792
2.99594
2.9883
2.9757
2.93433
2.84103
2.62505
2.06345
1.20787
0.50464
0.290301
0.332728
0.344529
0.312686
0.258673
0.206447
0.164395
0.122914
0.0768195
0.0426991
3
2.99995
2.99989
2.99965
2.99932
2.99795
2.99599
2.98848
2.97602
2.9353
2.84304
2.62981
2.07177
1.22015
0.510873
0.289694
0.333287
0.345625
0.313851
0.260504
0.209649
0.169246
0.130254
0.0898565
0.0660055
3
2.99995
2.9999
2.99966
2.99934
2.99801
2.99611
2.98885
2.97667
2.9373
2.84726
2.63997
2.09021
1.24757
0.525579
0.290351
0.336594
0.350741
0.319998
0.269021
0.221603
0.185056
0.151347
0.11978
0.104434
3
2.99996
2.9999
2.99968
2.99936
2.99809
2.99627
2.9893
2.97765
2.93987
2.85375
2.65438
2.12407
1.294
0.551829
0.295479
0.344868
0.361697
0.332464
0.284646
0.241356
0.209361
0.181404
0.157117
0.146339
3
2.99996
2.99991
2.99969
2.9994
2.99819
2.99647
2.98984
2.97892
2.94303
2.86248
2.67281
2.17426
1.36035
0.588727
0.304806
0.357601
0.377902
0.35041
0.306454
0.26738
0.239958
0.217123
0.198371
0.190708
3
2.99996
2.99991
2.99971
2.99943
2.99829
2.99668
2.99027
2.98038
2.94601
2.87481
2.69602
2.24138
1.45033
0.63827
0.322948
0.377413
0.400727
0.374807
0.334377
0.299487
0.276299
0.258582
0.244983
0.240225
3
2.99996
2.99992
2.99973
2.99947
2.99842
2.99693
2.99099
2.98204
2.94993
2.88843
2.72254
2.31838
1.56163
0.69933
0.353138
0.406263
0.430643
0.406122
0.369422
0.338231
0.319309
0.30634
0.29837
0.298877
3
2.99997
2.99993
2.99976
2.99952
2.99857
2.99722
2.99185
2.98378
2.95456
2.90084
2.74789
2.39649
1.67593
0.768037
0.394857
0.442772
0.46435
0.442205
0.4104
0.38308
0.368809
0.362104
0.362014
0.372318
3
2.99997
2.99994
2.99979
2.99958
2.99872
2.99752
2.99268
2.98549
2.95911
2.91117
2.77366
2.45327
1.78037
0.833294
0.436534
0.471202
0.488266
0.475558
0.452501
0.43223
0.42412
0.425425
0.438824
0.473071
3
2.99998
2.99995
2.99982
2.99965
2.99895
2.99791
2.99413
2.98751
2.96684
2.9193
2.80608
2.49576
1.90495
0.93584
0.504097
0.492601
0.505146
0.505899
0.492229
0.482631
0.483328
0.499365
0.540956
0.640038
3
2.99995
2.99989
2.99965
2.99931
2.99792
2.99594
2.9883
2.9757
2.93433
2.84103
2.62505
2.06344
1.20787
0.504638
0.290302
0.332728
0.34453
0.312686
0.258674
0.206448
0.164396
0.122915
0.0768201
0.0426997
3
2.99995
2.99989
2.99965
2.99932
2.99795
2.99599
2.98848
2.97602
2.9353
2.84304
2.62981
2.07177
1.22015
0.510871
0.289696
0.333287
0.345625
0.313852
0.260505
0.20965
0.169246
0.130254
0.0898568
0.0660061
3
2.99995
2.9999
2.99966
2.99934
2.99801
2.99611
2.98885
2.97667
2.9373
2.84726
2.63997
2.0902
1.24756
0.525577
0.290353
0.336595
0.350741
0.319998
0.269021
0.221604
0.185056
0.151348
0.11978
0.104435
3
2.99996
2.9999
2.99968
2.99936
2.99809
2.99627
2.9893
2.97765
2.93987
2.85375
2.65438
2.12407
1.29399
0.551827
0.29548
0.344869
0.361697
0.332464
0.284646
0.241356
0.209361
0.181404
0.157117
0.14634
3
2.99996
2.99991
2.99969
2.9994
2.99819
2.99647
2.98984
2.97892
2.94303
2.86248
2.67281
2.17425
1.36034
0.588725
0.304807
0.357601
0.377902
0.35041
0.306454
0.26738
0.239958
0.217123
0.198372
0.190709
3
2.99996
2.99991
2.99971
2.99943
2.99829
2.99668
2.99027
2.98038
2.94601
2.87481
2.69602
2.24138
1.45033
0.638267
0.322948
0.377412
0.400726
0.374807
0.334376
0.299487
0.276299
0.258582
0.244983
0.240225
3
2.99996
2.99992
2.99973
2.99947
2.99842
2.99693
2.99099
2.98204
2.94993
2.88843
2.72253
2.31837
1.56162
0.699327
0.353138
0.406262
0.430642
0.406121
0.369422
0.33823
0.319309
0.30634
0.298371
0.298877
3
2.99997
2.99993
2.99976
2.99952
2.99857
2.99722
2.99185
2.98378
2.95456
2.90084
2.74789
2.39649
1.67592
0.768034
0.394856
0.442772
0.464349
0.442204
0.4104
0.383079
0.368809
0.362104
0.362014
0.372319
3
2.99997
2.99994
2.99979
2.99958
2.99872
2.99752
2.99268
2.98549
2.95911
2.91117
2.77366
2.45327
1.78037
0.83329
0.436532
0.471201
0.488266
0.475557
0.452501
0.43223
0.424119
0.425424
0.438824
0.473071
3
2.99998
2.99995
2.99982
2.99965
2.99895
2.99791
2.99413
2.98751
2.96684
2.9193
2.80608
2.49576
1.90494
0.935835
0.504095
0.492602
0.505147
0.505899
0.492229
0.482631
0.483328
0.499365
0.540956
0.640038
3
2.99995
2.99989
2.99965
2.99931
2.99792
2.99594
2.9883
2.9757
2.93433
2.84103
2.62505
2.06344
1.20787
0.504638
0.290302
0.332728
0.34453
0.312686
0.258674
0.206448
0.164396
0.122915
0.0768201
0.0426997
3
2.99995
2.99989
2.99965
2.99932
2.99795
2.99599
2.98848
2.97602
2.9353
2.84304
2.62981
2.07177
1.22015
0.510871
0.289696
0.333287
0.345625
0.313852
0.260505
0.20965
0.169246
0.130254
0.0898568
0.0660061
3
2.99995
2.9999
2.99966
2.99934
2.99801
2.99611
2.98885
2.97667
2.9373
2.84726
2.63997
2.0902
1.24756
0.525577
0.290352
0.336595
0.350741
0.319998
0.269021
0.221604
0.185056
0.151348
0.11978
0.104435
3
2.99996
2.9999
2.99968
2.99936
2.99809
2.99627
2.9893
2.97765
2.93987
2.85375
2.65438
2.12407
1.29399
0.551827
0.29548
0.344869
0.361697
0.332464
0.284646
0.241356
0.209361
0.181404
0.157117
0.14634
3
2.99996
2.99991
2.99969
2.9994
2.99819
2.99647
2.98984
2.97892
2.94303
2.86248
2.67281
2.17425
1.36034
0.588725
0.304807
0.357601
0.377902
0.35041
0.306454
0.26738
0.239958
0.217123
0.198372
0.190709
3
2.99996
2.99991
2.99971
2.99943
2.99829
2.99668
2.99027
2.98038
2.94601
2.87481
2.69602
2.24138
1.45033
0.638267
0.322948
0.377412
0.400726
0.374807
0.334376
0.299487
0.276299
0.258582
0.244983
0.240225
3
2.99996
2.99992
2.99973
2.99947
2.99842
2.99693
2.99099
2.98204
2.94993
2.88843
2.72253
2.31837
1.56162
0.699327
0.353138
0.406262
0.430642
0.406121
0.369422
0.33823
0.319309
0.30634
0.298371
0.298877
3
2.99997
2.99993
2.99976
2.99952
2.99857
2.99722
2.99185
2.98378
2.95456
2.90084
2.74789
2.39649
1.67592
0.768035
0.394856
0.442772
0.464349
0.442205
0.4104
0.383079
0.368809
0.362104
0.362014
0.372319
3
2.99997
2.99994
2.99979
2.99958
2.99872
2.99752
2.99268
2.98549
2.95911
2.91117
2.77366
2.45327
1.78037
0.833291
0.436532
0.471201
0.488266
0.475558
0.452501
0.43223
0.424119
0.425424
0.438824
0.473071
3
2.99998
2.99995
2.99982
2.99965
2.99895
2.99791
2.99413
2.98751
2.96684
2.9193
2.80608
2.49576
1.90494
0.935836
0.504095
0.492602
0.505147
0.505899
0.492229
0.482631
0.483328
0.499365
0.540956
0.640038
3
2.99995
2.99989
2.99965
2.99931
2.99792
2.99594
2.9883
2.9757
2.93433
2.84103
2.62505
2.06344
1.20786
0.504637
0.290303
0.332728
0.34453
0.312686
0.258674
0.206448
0.164396
0.122915
0.0768202
0.0426997
3
2.99995
2.99989
2.99965
2.99932
2.99795
2.99599
2.98848
2.97602
2.9353
2.84304
2.62981
2.07177
1.22015
0.51087
0.289696
0.333287
0.345625
0.313852
0.260505
0.20965
0.169247
0.130254
0.089857
0.0660062
3
2.99995
2.9999
2.99966
2.99934
2.99801
2.99611
2.98885
2.97667
2.9373
2.84726
2.63996
2.0902
1.24756
0.525576
0.290353
0.336595
0.350741
0.319998
0.269022
0.221604
0.185056
0.151348
0.11978
0.104435
3
2.99996
2.9999
2.99968
2.99936
2.99809
2.99627
2.9893
2.97764
2.93987
2.85375
2.65438
2.12406
1.29399
0.551826
0.29548
0.344869
0.361696
0.332464
0.284646
0.241356
0.209361
0.181404
0.157117
0.14634
3
2.99996
2.99991
2.99969
2.9994
2.99819
2.99647
2.98984
2.97892
2.94303
2.86248
2.67281
2.17425
1.36034
0.588724
0.304807
0.3576
0.377901
0.35041
0.306454
0.26738
0.239958
0.217123
0.198372
0.190709
3
2.99996
2.99991
2.99971
2.99943
2.99829
2.99667
2.99027
2.98038
2.94601
2.87481
2.69602
2.24137
1.45032
0.638266
0.322948
0.377412
0.400726
0.374806
0.334376
0.299487
0.276299
0.258582
0.244983
0.240225
3
2.99996
2.99992
2.99973
2.99947
2.99842
2.99693
2.99099
2.98204
2.94993
2.88843
2.72253
2.31837
1.56161
0.699326
0.353137
0.406261
0.430642
0.406121
0.369421
0.33823
0.319309
0.30634
0.298371
0.298877
3
2.99997
2.99993
2.99976
2.99952
2.99857
2.99722
2.99185
2.98378
2.95456
2.90084
2.74789
2.39649
1.67592
0.768033
0.394855
0.442772
0.464349
0.442204
0.410399
0.383079
0.368809
0.362103
0.362014
0.372319
3
2.99997
2.99994
2.99979
2.99958
2.99872
2.99752
2.99268
2.98549
2.95911
2.91117
2.77366
2.45327
1.78037
0.833289
0.436531
0.471201
0.488266
0.475557
0.4525
0.432229
0.424119
0.425424
0.438824
0.473071
3
2.99998
2.99995
2.99982
2.99965
2.99895
2.99791
2.99413
2.98751
2.96684
2.9193
2.80607
2.49576
1.90494
0.935834
0.504094
0.492602
0.505147
0.505899
0.492228
0.482631
0.483328
0.499365
0.540956
0.640038
3
2.99995
2.99989
2.99965
2.99931
2.99792
2.99594
2.9883
2.9757
2.93433
2.84103
2.62505
2.06344
1.20787
0.504638
0.290303
0.332728
0.34453
0.312686
0.258674
0.206448
0.164396
0.122915
0.0768203
0.0426997
3
2.99995
2.99989
2.99965
2.99932
2.99795
2.99599
2.98848
2.97602
2.9353
2.84304
2.62981
2.07177
1.22015
0.510871
0.289696
0.333288
0.345625
0.313852
0.260505
0.20965
0.169247
0.130254
0.089857
0.0660062
3
2.99995
2.9999
2.99966
2.99934
2.99801
2.99611
2.98885
2.97667
2.9373
2.84726
2.63996
2.0902
1.24756
0.525577
0.290353
0.336595
0.350742
0.319998
0.269022
0.221604
0.185056
0.151348
0.11978
0.104435
3
2.99996
2.9999
2.99968
2.99936
2.99809
2.99627
2.9893
2.97764
2.93987
2.85375
2.65438
2.12407
1.29399
0.551826
0.29548
0.344869
0.361696
0.332464
0.284646
0.241356
0.209361
0.181404
0.157117
0.14634
3
2.99996
2.99991
2.99969
2.9994
2.99819
2.99647
2.98984
2.97892
2.94303
2.86248
2.67281
2.17425
1.36034
0.588724
0.304807
0.3576
0.377901
0.35041
0.306454
0.26738
0.239958
0.217123
0.198372
0.190709
3
2.99996
2.99991
2.99971
2.99943
2.99829
2.99667
2.99027
2.98038
2.94601
2.87481
2.69602
2.24137
1.45032
0.638266
0.322948
0.377412
0.400726
0.374806
0.334376
0.299487
0.276299
0.258583
0.244983
0.240225
3
2.99996
2.99992
2.99973
2.99947
2.99842
2.99693
2.99099
2.98204
2.94993
2.88843
2.72253
2.31837
1.56162
0.699326
0.353137
0.406261
0.430642
0.406121
0.369421
0.33823
0.319309
0.30634
0.298371
0.298877
3
2.99997
2.99993
2.99976
2.99952
2.99857
2.99722
2.99185
2.98378
2.95456
2.90084
2.74789
2.39649
1.67592
0.768033
0.394856
0.442772
0.464349
0.442204
0.410399
0.383079
0.368809
0.362103
0.362014
0.372319
3
2.99997
2.99994
2.99979
2.99958
2.99872
2.99752
2.99268
2.98549
2.95911
2.91117
2.77366
2.45327
1.78037
0.833289
0.436531
0.471201
0.488266
0.475557
0.4525
0.432229
0.424119
0.425424
0.438824
0.473071
3
2.99998
2.99995
2.99982
2.99965
2.99895
2.99791
2.99413
2.98751
2.96684
2.9193
2.80607
2.49576
1.90494
0.935834
0.504094
0.492602
0.505147
0.505899
0.492228
0.482631
0.483328
0.499365
0.540956
0.640038
3
2.99995
2.99989
2.99965
2.99931
2.99792
2.99594
2.9883
2.9757
2.93433
2.84103
2.62505
2.06344
1.20787
0.504638
0.290303
0.332728
0.34453
0.312686
0.258674
0.206448
0.164396
0.122915
0.0768201
0.0426997
3
2.99995
2.99989
2.99965
2.99932
2.99795
2.99599
2.98848
2.97602
2.9353
2.84304
2.62981
2.07177
1.22015
0.510871
0.289696
0.333287
0.345625
0.313852
0.260505
0.20965
0.169247
0.130254
0.0898569
0.0660061
3
2.99995
2.9999
2.99966
2.99934
2.99801
2.99611
2.98885
2.97667
2.9373
2.84726
2.63997
2.0902
1.24756
0.525577
0.290353
0.336595
0.350741
0.319998
0.269022
0.221604
0.185056
0.151348
0.11978
0.104435
3
2.99996
2.9999
2.99968
2.99936
2.99809
2.99627
2.9893
2.97764
2.93987
2.85375
2.65438
2.12407
1.29399
0.551827
0.29548
0.344869
0.361697
0.332464
0.284646
0.241356
0.209361
0.181404
0.157117
0.14634
3
2.99996
2.99991
2.99969
2.9994
2.99819
2.99647
2.98984
2.97892
2.94303
2.86248
2.67281
2.17425
1.36034
0.588725
0.304807
0.357601
0.377902
0.35041
0.306454
0.26738
0.239958
0.217123
0.198372
0.190709
3
2.99996
2.99991
2.99971
2.99943
2.99829
2.99668
2.99027
2.98038
2.94601
2.87481
2.69602
2.24137
1.45033
0.638267
0.322948
0.377412
0.400726
0.374807
0.334376
0.299487
0.276299
0.258582
0.244983
0.240225
3
2.99996
2.99992
2.99973
2.99947
2.99842
2.99693
2.99099
2.98204
2.94993
2.88843
2.72253
2.31837
1.56162
0.699327
0.353138
0.406262
0.430642
0.406121
0.369422
0.33823
0.319309
0.30634
0.298371
0.298877
3
2.99997
2.99993
2.99976
2.99952
2.99857
2.99722
2.99185
2.98378
2.95456
2.90084
2.74789
2.39649
1.67592
0.768034
0.394856
0.442772
0.464349
0.442204
0.4104
0.383079
0.368809
0.362104
0.362014
0.372319
3
2.99997
2.99994
2.99979
2.99958
2.99872
2.99752
2.99268
2.98549
2.95911
2.91117
2.77366
2.45327
1.78037
0.83329
0.436532
0.471201
0.488266
0.475558
0.452501
0.43223
0.424119
0.425424
0.438824
0.473071
3
2.99998
2.99995
2.99982
2.99965
2.99895
2.99791
2.99413
2.98751
2.96684
2.9193
2.80608
2.49576
1.90494
0.935835
0.504095
0.492602
0.505147
0.505899
0.492229
0.482631
0.483328
0.499365
0.540956
0.640038
3
2.99995
2.99989
2.99965
2.99931
2.99792
2.99594
2.9883
2.9757
2.93433
2.84103
2.62505
2.06344
1.20787
0.504638
0.290303
0.332728
0.34453
0.312686
0.258674
0.206448
0.164396
0.122915
0.0768201
0.0426997
3
2.99995
2.99989
2.99965
2.99932
2.99795
2.99599
2.98848
2.97602
2.9353
2.84304
2.62981
2.07177
1.22015
0.510871
0.289696
0.333287
0.345625
0.313852
0.260505
0.20965
0.169246
0.130254
0.0898568
0.0660061
3
2.99995
2.9999
2.99966
2.99934
2.99801
2.99611
2.98885
2.97667
2.9373
2.84726
2.63997
2.0902
1.24756
0.525577
0.290353
0.336595
0.350741
0.319998
0.269021
0.221604
0.185056
0.151348
0.11978
0.104435
3
2.99996
2.9999
2.99968
2.99936
2.99809
2.99627
2.9893
2.97765
2.93987
2.85375
2.65438
2.12407
1.29399
0.551827
0.29548
0.344869
0.361697
0.332464
0.284646
0.241356
0.209361
0.181404
0.157117
0.14634
3
2.99996
2.99991
2.99969
2.9994
2.99819
2.99647
2.98984
2.97892
2.94303
2.86248
2.67281
2.17425
1.36034
0.588725
0.304807
0.357601
0.377902
0.35041
0.306454
0.26738
0.239958
0.217123
0.198372
0.190709
3
2.99996
2.99991
2.99971
2.99943
2.99829
2.99668
2.99027
2.98038
2.94601
2.87481
2.69602
2.24137
1.45033
0.638267
0.322948
0.377412
0.400726
0.374807
0.334376
0.299487
0.276299
0.258582
0.244983
0.240225
3
2.99996
2.99992
2.99973
2.99947
2.99842
2.99693
2.99099
2.98204
2.94993
2.88843
2.72253
2.31837
1.56162
0.699327
0.353138
0.406262
0.430642
0.406121
0.369422
0.33823
0.319309
0.30634
0.298371
0.298877
3
2.99997
2.99993
2.99976
2.99952
2.99857
2.99722
2.99185
2.98378
2.95456
2.90084
2.74789
2.39649
1.67592
0.768034
0.394856
0.442772
0.464349
0.442204
0.4104
0.383079
0.368809
0.362104
0.362014
0.372319
3
2.99997
2.99994
2.99979
2.99958
2.99872
2.99752
2.99268
2.98549
2.95911
2.91117
2.77366
2.45327
1.78037
0.83329
0.436532
0.471201
0.488266
0.475557
0.452501
0.43223
0.424119
0.425424
0.438824
0.473071
3
2.99998
2.99995
2.99982
2.99965
2.99895
2.99791
2.99413
2.98751
2.96684
2.9193
2.80608
2.49576
1.90494
0.935835
0.504095
0.492602
0.505147
0.505899
0.492229
0.482631
0.483328
0.499365
0.540956
0.640038
3
2.99995
2.99989
2.99965
2.99931
2.99792
2.99594
2.9883
2.9757
2.93433
2.84103
2.62505
2.06345
1.20787
0.50464
0.290301
0.332728
0.344529
0.312686
0.258673
0.206447
0.164395
0.122914
0.0768195
0.0426991
3
2.99995
2.99989
2.99965
2.99932
2.99795
2.99599
2.98848
2.97602
2.9353
2.84304
2.62981
2.07177
1.22015
0.510873
0.289694
0.333287
0.345625
0.313851
0.260504
0.209649
0.169246
0.130254
0.0898565
0.0660055
3
2.99995
2.9999
2.99966
2.99934
2.99801
2.99611
2.98885
2.97667
2.9373
2.84726
2.63997
2.09021
1.24757
0.525579
0.290351
0.336594
0.350741
0.319998
0.269021
0.221603
0.185056
0.151347
0.11978
0.104434
3
2.99996
2.9999
2.99968
2.99936
2.99809
2.99627
2.9893
2.97765
2.93987
2.85375
2.65438
2.12407
1.294
0.551829
0.295479
0.344868
0.361697
0.332464
0.284646
0.241356
0.209361
0.181404
0.157117
0.146339
3
2.99996
2.99991
2.99969
2.9994
2.99819
2.99647
2.98984
2.97892
2.94303
2.86248
2.67281
2.17426
1.36035
0.588727
0.304806
0.357601
0.377902
0.35041
0.306454
0.26738
0.239958
0.217123
0.198371
0.190708
3
2.99996
2.99991
2.99971
2.99943
2.99829
2.99668
2.99027
2.98038
2.94601
2.87481
2.69602
2.24138
1.45033
0.63827
0.322948
0.377413
0.400727
0.374807
0.334377
0.299487
0.276299
0.258582
0.244983
0.240225
3
2.99996
2.99992
2.99973
2.99947
2.99842
2.99693
2.99099
2.98204
2.94993
2.88843
2.72254
2.31838
1.56163
0.69933
0.353138
0.406263
0.430643
0.406122
0.369422
0.338231
0.319309
0.30634
0.29837
0.298877
3
2.99997
2.99993
2.99976
2.99952
2.99857
2.99722
2.99185
2.98378
2.95456
2.90084
2.74789
2.39649
1.67593
0.768037
0.394857
0.442772
0.46435
0.442205
0.4104
0.38308
0.368809
0.362104
0.362014
0.372318
3
2.99997
2.99994
2.99979
2.99958
2.99872
2.99752
2.99268
2.98549
2.95911
2.91117
2.77366
2.45327
1.78037
0.833294
0.436534
0.471202
0.488266
0.475558
0.452501
0.43223
0.42412
0.425425
0.438824
0.473071
3
2.99998
2.99995
2.99982
2.99965
2.99895
2.99791
2.99413
2.98751
2.96684
2.9193
2.80608
2.49576
1.90495
0.93584
0.504097
0.492601
0.505146
0.505899
0.492229
0.482631
0.483328
0.499365
0.540956
0.640038
3.00002
2.99997
2.99991
2.99966
2.99932
2.99794
2.99596
2.98832
2.97572
2.93437
2.84107
2.62512
2.06353
1.20802
0.504789
0.290493
0.33291
0.344714
0.312891
0.258924
0.206766
0.164801
0.123465
0.0777118
0.0443082
3.00002
2.99997
2.99991
2.99967
2.99934
2.99797
2.99602
2.9885
2.97604
2.93533
2.84308
2.62988
2.07185
1.2203
0.511019
0.289885
0.333468
0.345807
0.314054
0.260751
0.20996
0.169637
0.130768
0.0906108
0.0670419
3.00002
2.99997
2.99991
2.99968
2.99936
2.99803
2.99613
2.98887
2.9767
2.93734
2.84729
2.64004
2.09029
1.24771
0.525721
0.290541
0.336774
0.350921
0.320197
0.26926
0.221896
0.18541
0.151785
0.120339
0.105081
3.00002
2.99997
2.99992
2.99969
2.99938
2.99811
2.99629
2.98932
2.97767
2.93991
2.85379
2.65446
2.12416
1.29415
0.551968
0.295669
0.345047
0.361874
0.332658
0.284872
0.241624
0.209672
0.181765
0.157537
0.146794
3.00002
2.99998
2.99992
2.99971
2.99942
2.99821
2.99649
2.98987
2.97895
2.94306
2.86251
2.67288
2.17435
1.3605
0.58886
0.304992
0.357772
0.378069
0.35059
0.30666
0.267619
0.240226
0.217421
0.198699
0.191051
3.00002
2.99998
2.99993
2.99973
2.99945
2.99831
2.9967
2.99029
2.9804
2.94605
2.87483
2.69609
2.24143
1.45046
0.638377
0.323115
0.377567
0.400875
0.374967
0.334558
0.299694
0.276527
0.258827
0.245243
0.240492
3.00002
2.99998
2.99994
2.99975
2.99949
2.99844
2.99695
2.99102
2.98206
2.94996
2.88846
2.72259
2.31844
1.56176
0.699434
0.353302
0.406409
0.43078
0.406267
0.369582
0.338409
0.3195
0.306542
0.298579
0.299086
3.00002
2.99999
2.99994
2.99978
2.99954
2.99859
2.99724
2.99187
2.9838
2.95459
2.90087
2.74794
2.39655
1.67602
0.768132
0.395007
0.442902
0.464468
0.442332
0.410541
0.383233
0.36897
0.362268
0.36218
0.372481
3.00002
2.99999
2.99995
2.9998
2.99959
2.99874
2.99754
2.9927
2.98551
2.95914
2.91119
2.77371
2.45332
1.78046
0.833398
0.436686
0.471318
0.488367
0.47567
0.452623
0.43236
0.424254
0.425559
0.438955
0.473191
3.00002
3
2.99996
2.99984
2.99966
2.99897
2.99793
2.99415
2.98753
2.96687
2.91933
2.80613
2.4958
1.90506
0.935946
0.504236
0.492705
0.505245
0.506001
0.492337
0.482744
0.483441
0.499474
0.541056
0.640119
3.00002
3
2.99996
2.99989
2.99962
2.99924
2.99772
2.99543
2.9871
2.97247
2.92682
2.82073
2.5814
1.98158
1.10747
0.590108
0.515291
0.527431
0.536268
0.532334
0.532005
0.544363
0.581045
0.662405
0.834046
3.00002
3.00001
2.99997
2.99991
2.99967
2.99934
2.99801
2.99609
2.98872
2.97655
2.93676
2.84697
2.63915
2.09734
1.26654
0.677719
0.535111
0.549955
0.566617
0.572082
0.580554
0.605018
0.658351
0.757908
0.934159
3.00002
3.00001
2.99997
2.99992
2.99972
2.99944
2.99829
2.99665
2.99028
2.98012
2.94591
2.87204
2.69336
2.23128
1.45212
0.778939
0.563698
0.578893
0.598745
0.611466
0.62697
0.659765
0.720769
0.817671
0.966101
3.00002
3.00001
2.99998
2.99994
2.99977
2.99953
2.99856
2.99719
2.99171
2.98351
2.95386
2.89887
2.74565
2.38591
1.67645
0.896838
0.612438
0.621134
0.637369
0.654199
0.673709
0.70929
0.76922
0.854669
0.978251
3.00002
3.00001
2.99999
2.99996
2.99982
2.99962
2.99884
2.9977
2.99329
2.98652
2.96239
2.91825
2.78976
2.50522
1.8611
1.02485
0.676983
0.66382
0.677305
0.694944
0.716334
0.751527
0.809672
0.884405
0.987412
3.00002
3.00001
3
2.99996
2.99989
2.99964
2.99926
2.99782
2.99564
2.98777
2.97389
2.93121
2.83141
2.60902
2.04075
1.21213
0.767834
0.70224
0.714517
0.731698
0.754522
0.787821
0.840352
0.908616
0.996333
3.00002
3.00002
3.00001
2.99997
2.99992
2.99971
2.99941
2.99822
2.99651
2.98996
2.97928
2.94416
2.86644
2.68354
2.20894
1.43591
0.877099
0.73353
0.743361
0.761853
0.789064
0.821823
0.868654
0.929326
1.00496
3.00002
3.00002
3.00001
2.99998
2.99994
2.99978
2.99954
2.9986
2.99724
2.99194
2.98381
2.95504
2.90084
2.7504
2.40232
1.6961
1.01883
0.784472
0.777518
0.792109
0.819575
0.852819
0.895402
0.94975
1.01518
3.00002
3.00002
3.00001
3
2.99995
2.99987
2.99958
2.99916
2.99751
2.99505
2.98598
2.97061
2.92212
2.81417
2.5626
1.99007
1.19775
0.857881
0.820989
0.830482
0.853298
0.88392
0.920289
0.967559
1.02517
3.00003
3.00002
3.00002
3.00001
2.99997
2.99991
2.9997
2.99938
2.99816
2.99634
2.98975
2.97807
2.94252
2.85891
2.67128
2.17271
1.41045
0.954194
0.857368
0.863098
0.883076
0.91322
0.946721
0.986666
1.03679
3.00003
3.00002
3.00002
3.00001
2.99999
2.99993
2.99983
2.99947
2.99893
2.99698
2.99353
2.98295
2.95894
2.89979
2.73979
2.42364
1.69388
1.10837
0.908955
0.897067
0.909482
0.935844
0.969984
1.00715
1.05005
3.00003
3.00003
3.00002
3.00002
3
2.99995
2.99988
2.9996
2.99919
2.99759
2.99527
2.98641
2.97211
2.92543
2.82479
2.58727
2.03877
1.29251
0.983548
0.937516
0.942794
0.962802
0.993778
1.02796
1.06712
3.00003
3.00003
3.00002
3.00002
3.00001
2.99999
2.9999
2.99979
2.99933
2.99865
2.99617
2.99197
2.97864
2.9498
2.87652
2.68443
2.30537
1.53016
1.09481
0.975833
0.972929
0.987379
1.01477
1.04728
1.08288
3.00003
3.00003
3.00003
3.00002
3.00001
3
2.99994
2.99985
2.99952
2.99904
2.99714
2.99439
2.98414
2.96685
2.91373
2.79074
2.52657
1.9103
1.27617
1.03844
1.01135
1.01803
1.03994
1.07057
1.10256
3.00003
3.00003
3.00003
3.00002
3.00002
3
2.99998
2.99988
2.99973
2.99918
2.99837
2.99529
2.9905
2.97388
2.94297
2.85754
2.65346
2.20928
1.47012
1.11918
1.04578
1.04663
1.06297
1.09059
1.12185
3.00003
3.00003
3.00003
3.00003
3.00002
3.00001
2.99999
2.99992
2.99983
2.99944
2.99889
2.99674
2.99356
2.98206
2.96196
2.90163
2.76052
2.45939
1.79909
1.27385
1.09972
1.08147
1.08987
1.11115
1.14085
3.00003
3.00003
3.00003
3.00003
3.00002
3.00002
3
2.99997
2.99986
2.9997
2.99909
2.99817
2.99479
2.98942
2.97124
2.93769
2.84075
2.63823
2.13322
1.47241
1.17835
1.11868
1.11949
1.1351
1.16037
3.00003
3.00003
3.00003
3.00003
3.00003
3.00002
3.00001
2.99999
2.99992
2.99981
2.9994
2.9988
2.9965
2.99311
2.98073
2.95966
2.89606
2.75255
2.43513
1.78365
1.31705
1.16671
1.14968
1.15755
1.17756
3.00003
3.00003
3.00003
3.00003
3.00003
3.00002
3.00002
3
2.99997
2.99986
2.99969
2.99907
2.99812
2.9947
2.98912
2.97079
2.93664
2.83763
2.63834
2.11984
1.51869
1.24821
1.19223
1.18832
1.20035
3.00003
3.00003
3.00003
3.00003
3.00003
3.00003
3.00002
3.00001
2.99998
2.99994
2.99976
2.99951
2.99856
2.99714
2.992
2.98353
2.95663
2.89917
2.7639
2.42342
1.81339
1.36855
1.23435
1.21778
1.22418
3.00003
3.00003
3.00003
3.00003
3.00003
3.00003
3.00002
3.00002
3
2.99997
2.99986
2.99969
2.99907
2.99816
2.99473
2.98949
2.97107
2.93947
2.84235
2.65493
2.16083
1.57896
1.31132
1.25596
1.25135
3.00003
3.00003
3.00003
3.00003
3.00003
3.00003
3.00003
3.00002
3.00001
2.99998
2.99994
2.99978
2.99954
2.99864
2.9973
2.99238
2.9846
2.95883
2.90829
2.78042
2.47502
1.88966
1.44252
1.29841
1.27943
3.00003
3.00003
3.00003
3.00003
3.00003
3.00003
3.00003
3.00002
3.00002
3
2.99997
2.99987
2.99972
2.99915
2.99832
2.99519
2.99047
2.97382
2.94545
2.85901
2.68865
2.25225
1.65995
1.37874
1.31259
3.00003
3.00003
3.00003
3.00003
3.00003
3.00003
3.00003
3.00003
3.00002
3.00001
3
2.99993
2.99984
2.9995
2.999
2.9971
2.99435
2.98418
2.96779
2.91647
2.80611
2.56365
2.01049
1.54367
1.36419
3.00003
3.00003
3.00003
3.00003
3.00003
3.00003
3.00003
3.00003
3.00003
3.00002
3.00001
2.99997
2.99992
2.99971
2.99942
2.99828
2.99664
2.99059
2.9809
2.94976
2.88375
2.7329
2.34648
1.7647
1.45713
3.00003
3.00003
3.00003
3.00003
3.00003
3.00003
3.00003
3.00003
3.00003
3.00002
3.00001
3
2.99995
2.99987
2.9996
2.99918
2.99766
2.99531
2.98721
2.97323
2.93185
2.84419
2.63076
2.19667
1.63544
3.00003
3.00003
3.00003
3.00003
3.00003
3.00003
3.00003
3.00003
3.00003
3.00003
3.00002
3.00001
2.99999
2.99992
2.99981
2.99942
2.99883
2.9967
2.99337
2.98198
2.96202
2.90419
2.7788
2.48517
1.93986
3.00003
3.00003
3.00003
3.00003
3.00003
3.00003
3.00003
3.00003
3.00003
3.00003
3.00002
3.00002
3
2.99997
2.99988
2.99973
2.9992
2.99838
2.9955
2.99084
2.97568
2.948
2.86838
2.70917
2.29499
3.00003
3.00003
3.00003
3.00003
3.00003
3.00003
3.00003
3.00003
3.00003
3.00003
3.00003
3.00002
3.00001
3
2.99994
2.99986
2.99955
2.99909
2.9974
2.99491
2.9859
2.97147
2.9264
2.8348
2.6172
3.00003
3.00003
3.00003
3.00003
3.00003
3.00003
3.00003
3.00003
3.00003
3.00003
3.00003
3.00003
3.00002
3.00001
2.99999
2.99991
2.9998
2.99939
2.99876
2.99654
2.99302
2.98131
2.96035
2.90015
2.77574
3.00003
3.00003
3.00003
3.00003
3.00003
3.00003
3.00003
3.00003
3.00003
3.00003
3.00003
3.00003
3.00002
3.00002
3
2.99997
2.99987
2.99971
2.99916
2.9983
2.99531
2.99043
2.97469
2.94612
2.86331
3.00003
3.00003
3.00003
3.00003
3.00003
3.00003
3.00003
3.00003
3.00003
3.00003
3.00003
3.00003
3.00003
3.00002
3.00001
2.99999
2.99995
2.9998
2.99959
2.9988
2.99761
2.99337
2.98666
2.96473
2.92393
3.00003
3.00003
3.00003
3.00003
3.00003
3.00003
3.00003
3.00003
3.00003
3.00003
3.00003
3.00003
3.00003
3.00002
3.00002
3
2.99998
2.99988
2.99973
2.99918
2.99839
2.99539
2.99086
2.97491
2.94705
3.00003
3.00003
3.00003
3.00003
3.00003
3.00003
3.00003
3.00003
3.00003
3.00003
3.00003
3.00003
3.00003
3.00003
3.00002
3.00001
2.99998
2.99993
2.99974
2.99947
2.99842
2.99685
2.99102
2.98152
2.95019
3.00003
3.00003
3.00003
3.00003
3.00003
3.00003
3.00003
3.00003
3.00003
3.00003
3.00003
3.00003
3.00003
3.00003
3.00002
3.00001
2.99999
2.99993
2.99983
2.99947
2.9989
2.99694
2.99326
2.98241
2.95667
3.00003
3.00003
3.00003
3.00003
3.00003
3.00003
3.00003
3.00003
3.00003
3.00003
3.00003
3.00003
3.00003
3.00003
3.00002
3.00002
2.99999
2.99995
2.99979
2.99956
2.99867
2.99728
2.99232
2.9833
2.95543
3.00003
3.00003
3.00003
3.00003
3.00003
3.00003
3.00003
3.00003
3.00003
3.00003
3.00003
3.00003
3.00003
3.00003
3.00002
3.00001
3
2.99993
2.99984
2.99948
2.99895
2.99695
2.99358
2.98265
2.95869
3.00003
3.00003
3.00003
3.00003
3.00003
3.00003
3.00003
3.00003
3.00003
3.00003
3.00003
3.00003
3.00003
3.00003
3.00002
3.00001
3
2.99993
2.99984
2.99948
2.99895
2.99696
2.99361
2.98274
2.95886
3.00003
3.00003
3.00003
3.00003
3.00003
3.00003
3.00003
3.00003
3.00003
3.00003
3.00003
3.00003
3.00003
3.00003
3.00002
3.00002
2.99999
2.99995
2.99979
2.99956
2.99863
2.99728
2.99199
2.98363
2.9546
3.00003
3.00003
3.00003
3.00003
3.00003
3.00003
3.00003
3.00003
3.00003
3.00003
3.00003
3.00003
3.00003
3.00003
3.00002
3.00001
2.99999
2.99995
2.99978
2.99955
2.99859
2.99723
2.99176
2.98348
2.95335
3
2.99999
2.99994
2.99987
2.9996
2.99922
2.9977
2.99541
2.98707
2.97244
2.92679
2.82069
2.58133
1.98151
1.10735
0.589987
0.515192
0.527335
0.536172
0.532237
0.531908
0.544268
0.580957
0.662331
0.833998
3
2.99999
2.99995
2.99989
2.99965
2.99932
2.99798
2.99607
2.9887
2.97653
2.93672
2.84693
2.63908
2.09727
1.26642
0.677611
0.535015
0.549863
0.566526
0.571991
0.580464
0.604934
0.658277
0.757847
0.934117
3
2.99999
2.99996
2.99991
2.9997
2.99942
2.99827
2.99663
2.99026
2.98009
2.94587
2.87202
2.6933
2.23124
1.45201
0.77885
0.563608
0.578805
0.598659
0.611384
0.62689
0.65969
0.720703
0.817617
0.966062
3
2.99999
2.99996
2.99992
2.99975
2.99951
2.99854
2.99717
2.99169
2.98349
2.95384
2.89884
2.7456
2.38584
1.67633
0.896759
0.612354
0.621049
0.637285
0.654119
0.673634
0.709223
0.76916
0.854618