/*--------------------------------*- C++ -*----------------------------------*\
| =========                 |                                                 |
| \\      /  F ield         | OpenFOAM: The Open Source CFD Toolbox           |
|  \\    /   O peration     | Version:  4.1                                   |
|   \\  /    A nd           | Web:      www.OpenFOAM.org                      |
|    \\/     M anipulation  |                                                 |
\*---------------------------------------------------------------------------*/
FoamFile
{
    version     2.0;
    format      ascii;
    class       volScalarField;
    location    "5.48";
    object      T;
}
// * * * * * * * * * * * * * * * * * * * * * * * * * * * * * * * * * * * * * //

dimensions      [0 0 0 1 0 0 0];

internalField   nonuniform List<scalar> 
52500
(
0.999996
1.00002
1.00004
1.00016
1.00029
1.00095
1.00176
1.00525
1.01094
1.02848
1.07642
1.1703
1.52438
2.32376
2.65804
2.73295
2.72753
2.72457
2.73929
2.75128
2.7644
2.77243
2.77868
2.78302
2.78587
0.999996
1.00002
1.00004
1.00016
1.00029
1.00094
1.00174
1.00517
1.0108
1.02802
1.07547
1.16765
1.51958
2.31326
2.65488
2.73299
2.72741
2.72439
2.73895
2.75088
2.7637
2.77136
2.77749
2.78081
2.78283
0.999995
1.00002
1.00004
1.00015
1.00028
1.00091
1.00169
1.00499
1.01052
1.02708
1.07346
1.16207
1.50884
2.29005
2.64662
2.73207
2.72618
2.72265
2.73699
2.7486
2.76147
2.76832
2.77415
2.77828
2.77916
0.999995
1.00002
1.00004
1.00015
1.00027
1.00087
1.00162
1.00479
1.01008
1.02596
1.07022
1.15515
1.48619
2.24742
2.6322
2.72901
2.72261
2.71809
2.73196
2.74396
2.75703
2.76455
2.76953
2.77155
2.77444
0.999995
1.00002
1.00004
1.00014
1.00025
1.00083
1.00153
1.00456
1.00948
1.02464
1.06577
1.14714
1.45121
2.1849
2.61132
2.72493
2.71865
2.7119
2.72674
2.73535
2.74841
2.75478
2.76196
2.76553
2.76456
0.999995
1.00001
1.00003
1.00013
1.00024
1.00079
1.00143
1.00442
1.00872
1.02373
1.05905
1.13708
1.40508
2.09883
2.58272
2.71778
2.71064
2.70164
2.71681
2.72787
2.73848
2.7469
2.75008
2.7515
2.75486
0.999995
1.00001
1.00003
1.00012
1.00022
1.00072
1.00132
1.00412
1.0079
1.02234
1.05177
1.12556
1.35454
1.99434
2.54359
2.70887
2.70218
2.69041
2.70472
2.71557
2.72521
2.73018
2.73774
2.73926
2.7354
0.999995
1.00001
1.00003
1.00011
1.0002
1.00065
1.00119
1.00373
1.00711
1.02042
1.04537
1.11502
1.30525
1.89669
2.48554
2.68829
2.68265
2.67428
2.68913
2.69925
2.71179
2.71432
2.71442
2.71285
2.71202
0.999995
1.00001
1.00002
1.00009
1.00018
1.00059
1.00107
1.00336
1.00635
1.01838
1.04057
1.10252
1.27302
1.78942
2.4718
2.67863
2.66425
2.65848
2.67381
2.67783
2.68817
2.69254
2.6923
2.68591
2.661
0.999994
1.00001
1.00002
1.00008
1.00015
1.00048
1.00091
1.0026
1.00563
1.01418
1.0381
1.0848
1.25503
1.65568
2.40884
2.65455
2.65407
2.6524
2.65457
2.66404
2.66403
2.6625
2.65304
2.63198
2.58357
1
1.00003
1.00005
1.00017
1.0003
1.00096
1.00177
1.00526
1.01095
1.0285
1.07643
1.17034
1.52442
2.32389
2.65812
2.73302
2.7276
2.72464
2.73936
2.75135
2.76448
2.77251
2.77876
2.7831
2.78595
1
1.00003
1.00005
1.00016
1.0003
1.00095
1.00175
1.00518
1.01081
1.02804
1.07548
1.1677
1.51962
2.3134
2.65496
2.73306
2.72748
2.72446
2.73902
2.75095
2.76377
2.77144
2.77757
2.78089
2.78291
1
1.00003
1.00005
1.00016
1.00029
1.00092
1.0017
1.005
1.01053
1.02709
1.07348
1.16211
1.50888
2.29019
2.6467
2.73214
2.72625
2.72272
2.73706
2.74868
2.76155
2.7684
2.77422
2.77836
2.77924
1
1.00002
1.00005
1.00015
1.00028
1.00088
1.00163
1.0048
1.01009
1.02597
1.07024
1.1552
1.48624
2.24757
2.63228
2.72908
2.72268
2.71816
2.73203
2.74403
2.7571
2.76462
2.76961
2.77163
2.77452
1
1.00002
1.00004
1.00015
1.00026
1.00084
1.00154
1.00457
1.00949
1.02466
1.06578
1.14718
1.45126
2.18504
2.6114
2.725
2.71872
2.71197
2.72681
2.73542
2.74848
2.75485
2.76203
2.7656
2.76464
1
1.00002
1.00004
1.00014
1.00025
1.00079
1.00144
1.00444
1.00873
1.02375
1.05906
1.13711
1.40509
2.09894
2.58279
2.71785
2.71071
2.7017
2.71687
2.72793
2.73855
2.74697
2.75015
2.75157
2.75494
1
1.00002
1.00004
1.00013
1.00023
1.00073
1.00133
1.00413
1.00791
1.02236
1.05178
1.12559
1.35457
1.99446
2.54367
2.70894
2.70224
2.69048
2.7048
2.71563
2.72527
2.73024
2.73781
2.73933
2.73547
1
1.00002
1.00003
1.00011
1.00021
1.00066
1.0012
1.00374
1.00711
1.02044
1.04539
1.11505
1.30528
1.89677
2.48562
2.68835
2.68271
2.67434
2.68919
2.69932
2.71186
2.71439
2.71448
2.71292
2.71209
1
1.00002
1.00003
1.0001
1.00019
1.00059
1.00108
1.00336
1.00636
1.0184
1.04058
1.10255
1.27304
1.78949
2.47187
2.6787
2.66432
2.65853
2.67387
2.67789
2.68823
2.69261
2.69236
2.68597
2.66106
1
1.00001
1.00003
1.00009
1.00016
1.00048
1.00092
1.00261
1.00564
1.01419
1.03811
1.08483
1.25504
1.65579
2.40891
2.65462
2.65414
2.65245
2.65462
2.6641
2.6641
2.66256
2.6531
2.63204
2.58362
1
1.00003
1.00005
1.00017
1.0003
1.00096
1.00177
1.00526
1.01095
1.0285
1.07643
1.17034
1.52443
2.3239
2.65812
2.73302
2.7276
2.72464
2.73936
2.75135
2.76448
2.77251
2.77876
2.7831
2.78595
1
1.00003
1.00005
1.00016
1.0003
1.00095
1.00175
1.00518
1.01081
1.02804
1.07548
1.1677
1.51963
2.3134
2.65496
2.73306
2.72748
2.72446
2.73902
2.75095
2.76377
2.77144
2.77757
2.78089
2.78291
1
1.00003
1.00005
1.00016
1.00029
1.00092
1.0017
1.005
1.01053
1.02709
1.07348
1.16211
1.50888
2.29019
2.6467
2.73214
2.72625
2.72272
2.73706
2.74868
2.76155
2.7684
2.77422
2.77836
2.77924
1
1.00002
1.00005
1.00015
1.00028
1.00088
1.00163
1.0048
1.01009
1.02597
1.07024
1.1552
1.48624
2.24757
2.63228
2.72908
2.72268
2.71816
2.73203
2.74403
2.7571
2.76462
2.76961
2.77163
2.77452
1
1.00002
1.00004
1.00015
1.00026
1.00084
1.00154
1.00457
1.00949
1.02466
1.06578
1.14718
1.45126
2.18504
2.6114
2.725
2.71872
2.71197
2.72681
2.73542
2.74848
2.75485
2.76203
2.7656
2.76464
1
1.00002
1.00004
1.00014
1.00025
1.00079
1.00144
1.00444
1.00873
1.02375
1.05906
1.13712
1.40509
2.09895
2.5828
2.71785
2.71071
2.7017
2.71687
2.72793
2.73855
2.74697
2.75015
2.75157
2.75494
1
1.00002
1.00004
1.00013
1.00023
1.00073
1.00133
1.00413
1.00791
1.02236
1.05178
1.1256
1.35457
1.99446
2.54367
2.70894
2.70224
2.69048
2.7048
2.71563
2.72527
2.73024
2.73781
2.73933
2.73547
1
1.00002
1.00003
1.00011
1.00021
1.00066
1.0012
1.00374
1.00711
1.02044
1.04539
1.11505
1.30528
1.89678
2.48562
2.68835
2.68271
2.67434
2.6892
2.69932
2.71186
2.71439
2.71448
2.71292
2.71209
1
1.00002
1.00003
1.0001
1.00019
1.00059
1.00108
1.00336
1.00636
1.0184
1.04058
1.10255
1.27305
1.7895
2.47187
2.6787
2.66433
2.65853
2.67387
2.67789
2.68823
2.69261
2.69236
2.68597
2.66106
1
1.00001
1.00003
1.00009
1.00016
1.00048
1.00092
1.00261
1.00564
1.01419
1.03811
1.08483
1.25504
1.6558
2.40891
2.65463
2.65414
2.65245
2.65462
2.6641
2.6641
2.66256
2.6531
2.63204
2.58362
1
1.00003
1.00005
1.00017
1.0003
1.00096
1.00177
1.00526
1.01095
1.0285
1.07643
1.17034
1.52443
2.3239
2.65812
2.73302
2.7276
2.72464
2.73936
2.75135
2.76448
2.77251
2.77876
2.7831
2.78595
1
1.00003
1.00005
1.00016
1.0003
1.00095
1.00175
1.00518
1.01081
1.02804
1.07548
1.1677
1.51963
2.3134
2.65496
2.73306
2.72748
2.72446
2.73902
2.75095
2.76377
2.77144
2.77757
2.78089
2.78291
1
1.00003
1.00005
1.00016
1.00029
1.00092
1.0017
1.005
1.01053
1.02709
1.07348
1.16211
1.50888
2.29019
2.6467
2.73214
2.72625
2.72272
2.73706
2.74868
2.76155
2.7684
2.77422
2.77836
2.77924
1
1.00002
1.00005
1.00015
1.00028
1.00088
1.00163
1.0048
1.01009
1.02597
1.07024
1.1552
1.48624
2.24757
2.63228
2.72908
2.72268
2.71816
2.73203
2.74403
2.7571
2.76462
2.76961
2.77163
2.77452
1
1.00002
1.00004
1.00015
1.00026
1.00084
1.00154
1.00457
1.00949
1.02466
1.06578
1.14718
1.45126
2.18504
2.6114
2.725
2.71872
2.71197
2.72681
2.73542
2.74848
2.75485
2.76203
2.7656
2.76464
1
1.00002
1.00004
1.00014
1.00025
1.00079
1.00144
1.00444
1.00873
1.02375
1.05906
1.13712
1.40509
2.09895
2.5828
2.71785
2.71071
2.7017
2.71687
2.72793
2.73855
2.74697
2.75015
2.75157
2.75494
1
1.00002
1.00004
1.00013
1.00023
1.00073
1.00133
1.00413
1.00791
1.02236
1.05178
1.1256
1.35457
1.99446
2.54367
2.70894
2.70224
2.69048
2.7048
2.71563
2.72527
2.73024
2.73781
2.73933
2.73547
1
1.00002
1.00003
1.00011
1.00021
1.00066
1.0012
1.00374
1.00711
1.02044
1.04539
1.11505
1.30528
1.89677
2.48562
2.68835
2.68271
2.67434
2.6892
2.69932
2.71186
2.71439
2.71448
2.71292
2.71209
1
1.00002
1.00003
1.0001
1.00019
1.00059
1.00108
1.00336
1.00636
1.0184
1.04058
1.10255
1.27305
1.7895
2.47187
2.6787
2.66432
2.65853
2.67387
2.67789
2.68823
2.69261
2.69236
2.68597
2.66106
1
1.00001
1.00003
1.00009
1.00016
1.00048
1.00092
1.00261
1.00564
1.01419
1.03811
1.08483
1.25504
1.6558
2.40891
2.65463
2.65414
2.65245
2.65462
2.6641
2.6641
2.66256
2.6531
2.63204
2.58362
1
1.00003
1.00005
1.00017
1.0003
1.00096
1.00177
1.00526
1.01095
1.0285
1.07643
1.17034
1.52443
2.3239
2.65812
2.73302
2.7276
2.72464
2.73936
2.75135
2.76448
2.77251
2.77876
2.7831
2.78595
1
1.00003
1.00005
1.00016
1.0003
1.00095
1.00175
1.00518
1.01081
1.02804
1.07548
1.1677
1.51963
2.3134
2.65496
2.73306
2.72748
2.72446
2.73902
2.75095
2.76377
2.77144
2.77757
2.78089
2.78291
1
1.00003
1.00005
1.00016
1.00029
1.00092
1.0017
1.005
1.01053
1.02709
1.07348
1.16211
1.50888
2.2902
2.6467
2.73214
2.72625
2.72272
2.73706
2.74868
2.76155
2.7684
2.77422
2.77836
2.77924
1
1.00002
1.00005
1.00015
1.00028
1.00088
1.00163
1.0048
1.01009
1.02597
1.07024
1.1552
1.48624
2.24758
2.63228
2.72908
2.72268
2.71816
2.73203
2.74403
2.7571
2.76462
2.76961
2.77163
2.77452
1
1.00002
1.00004
1.00015
1.00026
1.00084
1.00154
1.00457
1.00949
1.02466
1.06579
1.14718
1.45126
2.18505
2.6114
2.725
2.71872
2.71197
2.72681
2.73542
2.74848
2.75485
2.76203
2.7656
2.76464
1
1.00002
1.00004
1.00014
1.00025
1.00079
1.00144
1.00444
1.00873
1.02375
1.05906
1.13712
1.40509
2.09895
2.5828
2.71785
2.71071
2.7017
2.71687
2.72793
2.73855
2.74697
2.75015
2.75157
2.75494
1
1.00002
1.00004
1.00013
1.00023
1.00073
1.00133
1.00413
1.00791
1.02236
1.05178
1.1256
1.35457
1.99447
2.54367
2.70894
2.70224
2.69048
2.7048
2.71563
2.72527
2.73024
2.73781
2.73933
2.73547
1
1.00002
1.00003
1.00011
1.00021
1.00066
1.0012
1.00374
1.00711
1.02044
1.04539
1.11505
1.30528
1.89678
2.48562
2.68835
2.68271
2.67434
2.6892
2.69932
2.71186
2.71439
2.71448
2.71292
2.71209
1
1.00002
1.00003
1.0001
1.00019
1.00059
1.00108
1.00336
1.00636
1.0184
1.04058
1.10255
1.27305
1.7895
2.47187
2.6787
2.66433
2.65853
2.67387
2.67789
2.68823
2.69261
2.69236
2.68597
2.66106
1
1.00001
1.00003
1.00009
1.00016
1.00048
1.00092
1.00261
1.00564
1.01419
1.03811
1.08483
1.25504
1.6558
2.40891
2.65463
2.65414
2.65245
2.65462
2.6641
2.6641
2.66256
2.6531
2.63204
2.58362
1
1.00003
1.00005
1.00017
1.0003
1.00096
1.00177
1.00526
1.01095
1.0285
1.07643
1.17034
1.52443
2.3239
2.65812
2.73302
2.7276
2.72464
2.73936
2.75135
2.76448
2.77251
2.77876
2.7831
2.78595
1
1.00003
1.00005
1.00016
1.0003
1.00095
1.00175
1.00518
1.01081
1.02804
1.07548
1.1677
1.51963
2.3134
2.65496
2.73306
2.72748
2.72446
2.73902
2.75095
2.76377
2.77144
2.77757
2.78089
2.78291
1
1.00003
1.00005
1.00016
1.00029
1.00092
1.0017
1.005
1.01053
1.02709
1.07348
1.16211
1.50888
2.2902
2.6467
2.73214
2.72625
2.72272
2.73706
2.74868
2.76155
2.7684
2.77422
2.77836
2.77924
1
1.00002
1.00005
1.00015
1.00028
1.00088
1.00163
1.0048
1.01009
1.02597
1.07024
1.1552
1.48624
2.24757
2.63228
2.72908
2.72268
2.71816
2.73203
2.74403
2.7571
2.76462
2.76961
2.77163
2.77452
1
1.00002
1.00004
1.00015
1.00026
1.00084
1.00154
1.00457
1.00949
1.02466
1.06579
1.14718
1.45126
2.18505
2.6114
2.725
2.71872
2.71197
2.72681
2.73542
2.74848
2.75485
2.76203
2.7656
2.76464
1
1.00002
1.00004
1.00014
1.00025
1.00079
1.00144
1.00444
1.00873
1.02375
1.05906
1.13712
1.40509
2.09895
2.5828
2.71785
2.71071
2.7017
2.71687
2.72793
2.73855
2.74697
2.75015
2.75157
2.75494
1
1.00002
1.00004
1.00013
1.00023
1.00073
1.00133
1.00413
1.00791
1.02236
1.05178
1.1256
1.35457
1.99447
2.54367
2.70894
2.70224
2.69048
2.7048
2.71563
2.72527
2.73024
2.73781
2.73933
2.73547
1
1.00002
1.00003
1.00011
1.00021
1.00066
1.0012
1.00374
1.00711
1.02044
1.04539
1.11505
1.30528
1.89678
2.48562
2.68835
2.68271
2.67434
2.6892
2.69932
2.71186
2.71439
2.71448
2.71292
2.71209
1
1.00002
1.00003
1.0001
1.00019
1.00059
1.00108
1.00336
1.00636
1.0184
1.04058
1.10255
1.27305
1.7895
2.47187
2.6787
2.66433
2.65853
2.67387
2.67789
2.68823
2.69261
2.69236
2.68597
2.66106
1
1.00001
1.00003
1.00009
1.00016
1.00048
1.00092
1.00261
1.00564
1.01419
1.03811
1.08483
1.25504
1.6558
2.40891
2.65463
2.65414
2.65245
2.65462
2.6641
2.6641
2.66256
2.6531
2.63204
2.58362
1
1.00003
1.00005
1.00017
1.0003
1.00096
1.00177
1.00526
1.01095
1.0285
1.07643
1.17034
1.52443
2.3239
2.65812
2.73302
2.7276
2.72464
2.73936
2.75135
2.76448
2.77251
2.77876
2.7831
2.78595
1
1.00003
1.00005
1.00016
1.0003
1.00095
1.00175
1.00518
1.01081
1.02804
1.07548
1.1677
1.51963
2.3134
2.65496
2.73306
2.72748
2.72446
2.73902
2.75095
2.76377
2.77144
2.77757
2.78089
2.78291
1
1.00003
1.00005
1.00016
1.00029
1.00092
1.0017
1.005
1.01053
1.02709
1.07348
1.16211
1.50888
2.29019
2.6467
2.73214
2.72625
2.72272
2.73706
2.74868
2.76155
2.7684
2.77422
2.77836
2.77924
1
1.00002
1.00005
1.00015
1.00028
1.00088
1.00163
1.0048
1.01009
1.02597
1.07024
1.1552
1.48624
2.24757
2.63228
2.72908
2.72268
2.71816
2.73203
2.74403
2.7571
2.76462
2.76961
2.77163
2.77452
1
1.00002
1.00004
1.00015
1.00026
1.00084
1.00154
1.00457
1.00949
1.02466
1.06578
1.14718
1.45126
2.18504
2.6114
2.725
2.71872
2.71197
2.72681
2.73542
2.74848
2.75485
2.76203
2.7656
2.76464
1
1.00002
1.00004
1.00014
1.00025
1.00079
1.00144
1.00444
1.00873
1.02375
1.05906
1.13712
1.40509
2.09895
2.5828
2.71785
2.71071
2.7017
2.71687
2.72793
2.73855
2.74697
2.75015
2.75157
2.75494
1
1.00002
1.00004
1.00013
1.00023
1.00073
1.00133
1.00413
1.00791
1.02236
1.05178
1.1256
1.35457
1.99446
2.54367
2.70894
2.70224
2.69048
2.7048
2.71563
2.72527
2.73024
2.73781
2.73933
2.73547
1
1.00002
1.00003
1.00011
1.00021
1.00066
1.0012
1.00374
1.00711
1.02044
1.04539
1.11505
1.30528
1.89678
2.48562
2.68835
2.68271
2.67434
2.6892
2.69932
2.71186
2.71439
2.71448
2.71292
2.71209
1
1.00002
1.00003
1.0001
1.00019
1.00059
1.00108
1.00336
1.00636
1.0184
1.04058
1.10255
1.27305
1.7895
2.47187
2.6787
2.66433
2.65853
2.67387
2.67789
2.68823
2.69261
2.69236
2.68597
2.66106
1
1.00001
1.00003
1.00009
1.00016
1.00048
1.00092
1.00261
1.00564
1.01419
1.03811
1.08483
1.25504
1.6558
2.40891
2.65463
2.65414
2.65245
2.65462
2.6641
2.6641
2.66256
2.6531
2.63204
2.58362
1
1.00003
1.00005
1.00017
1.0003
1.00096
1.00177
1.00526
1.01095
1.0285
1.07643
1.17034
1.52443
2.3239
2.65812
2.73302
2.7276
2.72464
2.73936
2.75135
2.76448
2.77251
2.77876
2.7831
2.78595
1
1.00003
1.00005
1.00016
1.0003
1.00095
1.00175
1.00518
1.01081
1.02804
1.07548
1.1677
1.51963
2.3134
2.65496
2.73306
2.72748
2.72446
2.73902
2.75095
2.76377
2.77144
2.77757
2.78089
2.78291
1
1.00003
1.00005
1.00016
1.00029
1.00092
1.0017
1.005
1.01053
1.02709
1.07348
1.16211
1.50888
2.29019
2.6467
2.73214
2.72625
2.72272
2.73706
2.74868
2.76155
2.7684
2.77422
2.77836
2.77924
1
1.00002
1.00005
1.00015
1.00028
1.00088
1.00163
1.0048
1.01009
1.02597
1.07024
1.1552
1.48624
2.24757
2.63228
2.72908
2.72268
2.71816
2.73203
2.74403
2.7571
2.76462
2.76961
2.77163
2.77452
1
1.00002
1.00004
1.00015
1.00026
1.00084
1.00154
1.00457
1.00949
1.02466
1.06578
1.14718
1.45126
2.18504
2.6114
2.725
2.71872
2.71197
2.72681
2.73542
2.74848
2.75485
2.76203
2.7656
2.76464
1
1.00002
1.00004
1.00014
1.00025
1.00079
1.00144
1.00444
1.00873
1.02375
1.05906
1.13712
1.40509
2.09895
2.5828
2.71785
2.71071
2.7017
2.71687
2.72793
2.73855
2.74697
2.75015
2.75157
2.75494
1
1.00002
1.00004
1.00013
1.00023
1.00073
1.00133
1.00413
1.00791
1.02236
1.05178
1.1256
1.35457
1.99446
2.54367
2.70894
2.70224
2.69048
2.7048
2.71563
2.72527
2.73024
2.73781
2.73933
2.73547
1
1.00002
1.00003
1.00011
1.00021
1.00066
1.0012
1.00374
1.00711
1.02044
1.04539
1.11505
1.30528
1.89678
2.48562
2.68835
2.68271
2.67434
2.6892
2.69932
2.71186
2.71439
2.71448
2.71292
2.71209
1
1.00002
1.00003
1.0001
1.00019
1.00059
1.00108
1.00336
1.00636
1.0184
1.04058
1.10255
1.27305
1.7895
2.47187
2.6787
2.66433
2.65853
2.67387
2.67789
2.68823
2.69261
2.69236
2.68597
2.66106
1
1.00001
1.00003
1.00009
1.00016
1.00048
1.00092
1.00261
1.00564
1.01419
1.03811
1.08483
1.25504
1.6558
2.40891
2.65463
2.65414
2.65245
2.65462
2.6641
2.6641
2.66256
2.6531
2.63204
2.58362
1
1.00003
1.00005
1.00017
1.0003
1.00096
1.00177
1.00526
1.01095
1.0285
1.07643
1.17034
1.52442
2.32389
2.65812
2.73302
2.7276
2.72464
2.73936
2.75135
2.76448
2.77251
2.77876
2.7831
2.78595
1
1.00003
1.00005
1.00016
1.0003
1.00095
1.00175
1.00518
1.01081
1.02804
1.07548
1.1677
1.51962
2.3134
2.65496
2.73306
2.72748
2.72446
2.73902
2.75095
2.76377
2.77144
2.77757
2.78089
2.78291
1
1.00003
1.00005
1.00016
1.00029
1.00092
1.0017
1.005
1.01053
1.02709
1.07348
1.16211
1.50888
2.29019
2.6467
2.73214
2.72625
2.72272
2.73706
2.74868
2.76155
2.7684
2.77422
2.77836
2.77924
1
1.00002
1.00005
1.00015
1.00028
1.00088
1.00163
1.0048
1.01009
1.02597
1.07024
1.1552
1.48624
2.24757
2.63228
2.72908
2.72268
2.71816
2.73203
2.74403
2.7571
2.76462
2.76961
2.77163
2.77452
1
1.00002
1.00004
1.00015
1.00026
1.00084
1.00154
1.00457
1.00949
1.02466
1.06578
1.14718
1.45126
2.18504
2.6114
2.725
2.71872
2.71197
2.72681
2.73542
2.74848
2.75485
2.76203
2.7656
2.76464
1
1.00002
1.00004
1.00014
1.00025
1.00079
1.00144
1.00444
1.00873
1.02375
1.05906
1.13711
1.40509
2.09894
2.58279
2.71785
2.71071
2.7017
2.71687
2.72793
2.73855
2.74697
2.75015
2.75157
2.75494
1
1.00002
1.00004
1.00013
1.00023
1.00073
1.00133
1.00413
1.00791
1.02236
1.05178
1.12559
1.35457
1.99446
2.54367
2.70894
2.70224
2.69048
2.7048
2.71563
2.72527
2.73024
2.73781
2.73933
2.73547
1
1.00002
1.00003
1.00011
1.00021
1.00066
1.0012
1.00374
1.00711
1.02044
1.04539
1.11505
1.30528
1.89677
2.48562
2.68835
2.68271
2.67434
2.68919
2.69932
2.71186
2.71439
2.71448
2.71292
2.71209
1
1.00002
1.00003
1.0001
1.00019
1.00059
1.00108
1.00336
1.00636
1.0184
1.04058
1.10255
1.27304
1.78949
2.47187
2.6787
2.66432
2.65853
2.67387
2.67789
2.68823
2.69261
2.69236
2.68597
2.66106
1
1.00001
1.00003
1.00009
1.00016
1.00048
1.00092
1.00261
1.00564
1.01419
1.03811
1.08483
1.25504
1.65579
2.40891
2.65462
2.65414
2.65245
2.65462
2.6641
2.6641
2.66256
2.6531
2.63204
2.58362
0.999996
1.00002
1.00004
1.00016
1.00029
1.00095
1.00176
1.00525
1.01094
1.02848
1.07642
1.1703
1.52438
2.32376
2.65804
2.73295
2.72753
2.72457
2.73929
2.75128
2.7644
2.77243
2.77868
2.78302
2.78587
0.999996
1.00002
1.00004
1.00016
1.00029
1.00094
1.00174
1.00517
1.0108
1.02802
1.07547
1.16765
1.51958
2.31326
2.65488
2.73299
2.72741
2.72439
2.73895
2.75088
2.7637
2.77136
2.77749
2.78081
2.78283
0.999995
1.00002
1.00004
1.00015
1.00028
1.00091
1.00169
1.00499
1.01052
1.02708
1.07346
1.16207
1.50884
2.29005
2.64662
2.73207
2.72618
2.72265
2.73699
2.7486
2.76147
2.76832
2.77415
2.77828
2.77916
0.999995
1.00002
1.00004
1.00015
1.00027
1.00087
1.00162
1.00479
1.01008
1.02596
1.07022
1.15515
1.48619
2.24742
2.6322
2.72901
2.72261
2.71809
2.73196
2.74396
2.75703
2.76455
2.76953
2.77155
2.77444
0.999995
1.00002
1.00004
1.00014
1.00025
1.00083
1.00153
1.00456
1.00948
1.02464
1.06577
1.14714
1.45121
2.18489
2.61132
2.72493
2.71865
2.7119
2.72674
2.73535
2.74841
2.75478
2.76196
2.76553
2.76456
0.999995
1.00001
1.00003
1.00013
1.00024
1.00079
1.00143
1.00442
1.00872
1.02373
1.05905
1.13708
1.40508
2.09883
2.58272
2.71778
2.71064
2.70164
2.71681
2.72787
2.73848
2.7469
2.75008
2.7515
2.75486
0.999995
1.00001
1.00003
1.00012
1.00022
1.00072
1.00132
1.00412
1.0079
1.02234
1.05177
1.12556
1.35454
1.99434
2.54359
2.70887
2.70217
2.69041
2.70472
2.71557
2.72521
2.73018
2.73774
2.73926
2.7354
0.999995
1.00001
1.00003
1.00011
1.0002
1.00065
1.00119
1.00373
1.00711
1.02042
1.04537
1.11502
1.30525
1.89669
2.48554
2.68829
2.68265
2.67427
2.68913
2.69925
2.71179
2.71432
2.71442
2.71285
2.71202
0.999995
1.00001
1.00002
1.00009
1.00018
1.00059
1.00107
1.00336
1.00635
1.01838
1.04057
1.10252
1.27302
1.78942
2.4718
2.67863
2.66425
2.65848
2.67381
2.67783
2.68816
2.69254
2.6923
2.68591
2.661
0.999994
1.00001
1.00002
1.00008
1.00015
1.00048
1.00091
1.0026
1.00563
1.01418
1.0381
1.0848
1.25502
1.65568
2.40884
2.65455
2.65407
2.6524
2.65457
2.66404
2.66403
2.6625
2.65304
2.63198
2.58357
0.999996
1
1.00002
1.00005
1.00018
1.00033
1.00105
1.002
1.00575
1.01247
1.03173
1.08661
1.1934
1.57948
2.38698
2.6046
2.63765
2.63479
2.63489
2.64173
2.6426
2.63563
2.61431
2.56244
2.38161
0.999996
1
1.00002
1.00004
1.00016
1.00029
1.00092
1.00171
1.00507
1.01056
1.02742
1.07346
1.16349
1.50217
2.26804
2.56661
2.63508
2.62681
2.61496
2.61421
2.61113
2.59745
2.5651
2.50381
2.31839
0.999995
0.999999
1.00002
1.00004
1.00013
1.00024
1.00079
1.00146
1.0044
1.0089
1.02359
1.06075
1.138
1.41301
2.09351
2.49615
2.62467
2.61611
2.60213
2.59199
2.58526
2.56807
2.52693
2.46837
2.3168
0.999995
0.999998
1.00001
1.00003
1.00011
1.0002
1.00067
1.00122
1.0038
1.00724
1.02071
1.04646
1.1156
1.31254
1.89005
2.40163
2.59888
2.59089
2.58435
2.56735
2.55025
2.52948
2.49063
2.44595
2.32773
0.999995
0.999997
1.00001
1.00002
1.00009
1.00017
1.00054
1.001
1.00307
1.00591
1.01691
1.03708
1.09582
1.24274
1.73455
2.29498
2.5538
2.56435
2.56426
2.55523
2.53215
2.50618
2.4508
2.41264
2.32869
0.999994
0.999997
1
1.00002
1.00005
1.00017
1.00032
1.001
1.00191
1.00545
1.01182
1.02975
1.0813
1.17854
1.54183
2.27917
2.48252
2.52394
2.52183
2.52176
2.51247
2.49196
2.44234
2.39265
2.32516
0.999994
0.999996
1
1.00002
1.00004
1.00014
1.00026
1.00082
1.00152
1.00452
1.00931
1.02424
1.06369
1.14262
1.42863
2.10924
2.43141
2.51482
2.50162
2.4949
2.47852
2.46216
2.42592
2.38046
2.32212
0.999993
0.999995
0.999998
1.00001
1.00003
1.00011
1.0002
1.00065
1.0012
1.00369
1.00712
1.02013
1.04551
1.11363
1.30255
1.88049
2.30437
2.48567
2.4838
2.47633
2.45935
2.43926
2.40654
2.36205
2.31199
0.999993
0.999994
0.999998
1
1.00003
1.00006
1.0002
1.00037
1.00114
1.00216
1.0063
1.01323
1.03419
1.08853
1.20755
1.56564
2.24981
2.43249
2.44874
2.44405
2.43152
2.41548
2.39353
2.35516
2.30748
0.999992
0.999993
0.999996
1
1.00002
1.00004
1.00014
1.00027
1.00084
1.00161
1.00455
1.00994
1.0247
1.06775
1.14697
1.45633
2.11679
2.37755
2.43002
2.4224
2.40673
2.38254
2.36198
2.3388
2.29888
0.999992
0.999993
0.999994
0.999999
1.00001
1.00004
1.00007
1.00024
1.00047
1.00134
1.00293
1.00725
1.01923
1.04311
1.12702
1.28368
1.80629
2.25716
2.4074
2.40626
2.39576
2.37393
2.34521
2.31819
2.28848
0.999992
0.999992
0.999993
0.999997
1
1.00003
1.00005
1.00019
1.00035
1.00111
1.00206
1.00616
1.01248
1.03289
1.08313
1.19464
1.52823
2.16436
2.34821
2.37127
2.36766
2.35474
2.32817
2.30062
2.26802
0.999991
0.999992
0.999993
0.999994
1
1.00001
1.00005
1.0001
1.00031
1.00059
1.00171
1.0036
1.00918
1.02344
1.0535
1.15588
1.35562
1.91626
2.28122
2.35585
2.35249
2.33928
2.31649
2.29084
2.26042
0.999991
0.999991
0.999992
0.999993
0.999998
1
1.00003
1.00007
1.00023
1.00042
1.00132
1.00245
1.00712
1.01497
1.03774
1.10039
1.2272
1.60638
2.11253
2.31654
2.32435
2.31811
2.29869
2.27197
2.24527
0.999991
0.999991
0.999992
0.999993
0.999995
1
1.00001
1.00006
1.00012
1.00038
1.00071
1.00215
1.00417
1.01166
1.02593
1.06322
1.16617
1.4288
1.95719
2.25174
2.3034
2.30207
2.28855
2.26315
2.23418
0.999991
0.999991
0.999991
0.999992
0.999994
0.999999
1.00001
1.00004
1.00008
1.00026
1.00048
1.00149
1.00282
1.00801
1.01725
1.04311
1.11531
1.26624
1.68711
2.11099
2.25899
2.26999
2.26487
2.25161
2.22624
0.999991
0.999991
0.999991
0.999992
0.999993
0.999995
1
1.00002
1.00007
1.00013
1.00042
1.00079
1.00237
1.00464
1.01291
1.02784
1.07256
1.17041
1.50084
1.94969
2.19817
2.24148
2.24035
2.22912
2.20845
0.999991
0.999991
0.999991
0.999991
0.999992
0.999994
1
1.00001
1.00004
1.00009
1.00028
1.00052
1.00161
1.00301
1.00867
1.01819
1.04597
1.11794
1.28251
1.69963
2.07597
2.20436
2.21856
2.21331
2.19963
0.999991
0.999991
0.999991
0.999991
0.999992
0.999993
0.999995
1
1.00002
1.00007
1.00014
1.00043
1.00082
1.00241
1.00477
1.01311
1.02818
1.07435
1.16974
1.51737
1.89789
2.13053
2.17405
2.18307
2.17705
0.999991
0.999991
0.999991
0.999991
0.999991
0.999992
0.999995
0.999998
1.00001
1.00003
1.00011
1.00021
1.00066
1.00125
1.00361
1.00735
1.01893
1.04724
1.10569
1.2955
1.73827
2.03517
2.14177
2.15455
2.15095
0.999991
0.999991
0.999991
0.999991
0.999991
0.999992
0.999993
0.999995
1
1.00002
1.00007
1.00014
1.00043
1.0008
1.00242
1.00458
1.01313
1.02673
1.07263
1.16081
1.49278
1.85505
2.08416
2.1233
2.12802
0.999991
0.999991
0.999991
0.999991
0.999991
0.999991
0.999992
0.999994
0.999998
1.00001
1.00003
1.00011
1.0002
1.00063
1.00117
1.00347
1.00679
1.01828
1.04226
1.09875
1.26355
1.67862
1.97418
2.09281
2.10156
0.999991
0.999991
0.999991
0.999991
0.999991
0.999991
0.999991
0.999993
0.999995
1
1.00001
1.00006
1.00012
1.0004
1.00073
1.00221
1.00415
1.01188
1.02406
1.06449
1.14431
1.41694
1.80402
2.03437
2.08288
0.999991
0.999991
0.999991
0.999991
0.999991
0.999991
0.999991
0.999992
0.999993
0.999999
1.00001
1.00004
1.00007
1.00024
1.00043
1.00134
1.00245
1.00716
1.0144
1.037
1.09172
1.20829
1.54605
1.88991
2.04383
0.999991
0.999991
0.999991
0.999991
0.999991
0.999991
0.999991
0.999992
0.999992
0.999995
0.999999
1.00002
1.00004
1.00014
1.00026
1.00079
1.00146
1.00425
1.00852
1.02196
1.05475
1.12012
1.33917
1.76841
1.96246
0.999991
0.999991
0.999991
0.999991
0.999991
0.999991
0.999991
0.999991
0.999992
0.999993
0.999997
1
1.00003
1.00006
1.00019
1.00036
1.00107
1.00205
1.00575
1.01192
1.03025
1.07159
1.17634
1.41579
1.85089
0.999991
0.999991
0.999991
0.999991
0.999991
0.999991
0.999991
0.999991
0.999991
0.999992
0.999994
1
1.00001
1.00004
1.00008
1.00027
1.00051
1.00151
1.00289
1.0081
1.01698
1.04269
1.10293
1.25642
1.59138
0.999991
0.999991
0.999991
0.999991
0.999991
0.999991
0.999991
0.999991
0.999991
0.999991
0.999993
0.999995
1
1.00001
1.00006
1.00012
1.00037
1.0007
1.00204
1.004
1.01093
1.02295
1.05987
1.13394
1.38611
0.999991
0.999991
0.999991
0.999991
0.999991
0.999991
0.999991
0.999991
0.999991
0.999991
0.999992
0.999993
0.999998
1
1.00003
1.00006
1.00021
1.00039
1.0012
1.00221
1.00641
1.01263
1.03288
1.07627
1.18249
0.999991
0.999991
0.999991
0.999991
0.999991
0.999991
0.999991
0.999991
0.999991
0.999991
0.999991
0.999992
0.999994
1
1.00001
1.00004
1.00009
1.00028
1.00054
1.00157
1.00305
1.0084
1.01759
1.04492
1.10277
0.999991
0.999991
0.999991
0.999991
0.999991
0.999991
0.999991
0.999991
0.999991
0.999991
0.999991
0.999992
0.999993
0.999995
1
1.00002
1.00006
1.00013
1.00039
1.00074
1.00213
1.00418
1.01138
1.02377
1.0625
0.999991
0.999991
0.999991
0.999991
0.999991
0.999991
0.999991
0.999991
0.999991
0.999991
0.999991
0.999991
0.999992
0.999994
0.999997
1.00001
1.00003
1.00009
1.00018
1.00055
1.00104
1.00302
1.00585
1.0158
1.03434
0.999991
0.999991
0.999991
0.999991
0.999991
0.999991
0.999991
0.999991
0.999991
0.999991
0.999991
0.999991
0.999991
0.999993
0.999995
1
1.00001
1.00006
1.00012
1.00038
1.0007
1.00212
1.00399
1.01131
1.02384
0.999991
0.999991
0.999991
0.999991
0.999991
0.999991
0.999991
0.999991
0.999991
0.999991
0.999991
0.999991
0.999991
0.999992
0.999995
0.999998
1.00001
1.00003
1.00012
1.00023
1.00073
1.00138
1.00407
1.00823
1.02198
0.999991
0.999991
0.999991
0.999991
0.999991
0.999991
0.999991
0.999991
0.999991
0.999991
0.999991
0.999991
0.999991
0.999992
0.999993
0.999999
1.00001
1.00004
1.00008
1.00025
1.00049
1.00134
1.00307
1.00745
1.0204
0.999991
0.999991
0.999991
0.999991
0.999991
0.999991
0.999991
0.999991
0.999991
0.999991
0.999991
0.999991
0.999991
0.999992
0.999994
0.999997
1.00001
1.00003
1.0001
1.00019
1.00061
1.0012
1.00341
1.00757
1.01921
0.999991
0.999991
0.999991
0.999991
0.999991
0.999991
0.999991
0.999991
0.999991
0.999991
0.999991
0.999991
0.999991
0.999992
0.999993
0.999998
1
1.00003
1.00007
1.00024
1.00046
1.00137
1.00289
1.00744
1.01934
0.999991
0.999991
0.999991
0.999991
0.999991
0.999991
0.999991
0.999991
0.999991
0.999991
0.999991
0.999991
0.999991
0.999992
0.999993
0.999998
1
1.00003
1.00007
1.00024
1.00046
1.00136
1.00288
1.0074
1.01928
0.999991
0.999991
0.999991
0.999991
0.999991
0.999991
0.999991
0.999991
0.999991
0.999991
0.999991
0.999991
0.999991
0.999992
0.999994
0.999997
1.00001
1.00003
1.0001
1.00019
1.00063
1.00118
1.00366
1.00728
1.02008
0.999991
0.999991
0.999991
0.999991
0.999991
0.999991
0.999991
0.999991
0.999991
0.999991
0.999991
0.999991
0.999991
0.999992
0.999994
0.999997
1.00001
1.00003
1.00011
1.0002
1.00066
1.0012
1.00379
1.00727
1.02094
1
1.00001
1.00003
1.00006
1.00019
1.00034
1.00106
1.00201
1.00576
1.01248
1.03175
1.08663
1.19345
1.57951
2.38708
2.60467
2.6377
2.63484
2.63494
2.64178
2.64265
2.63568
2.61436
2.56249
2.38164
1
1.00001
1.00003
1.00005
1.00016
1.00029
1.00093
1.00172
1.00508
1.01057
1.02744
1.07348
1.16353
1.50221
2.26816
2.56667
2.63513
2.62685
2.61501
2.61427
2.6112
2.59752
2.56515
2.50385
2.31843
1
1.00001
1.00002
1.00004
1.00014
1.00025
1.0008
1.00146
1.00441
1.00891
1.02361
1.06075
1.13803
1.41301
2.09359
2.49622
2.62472
2.61616
2.60218
2.59202
2.5853
2.56812
2.52699
2.46841
2.31683
1
1.00001
1.00002
1.00004
1.00012
1.00021
1.00068
1.00123
1.00381
1.00725
1.02072
1.04648
1.11563
1.31257
1.89015
2.4017
2.59894
2.59095
2.58441
2.5674
2.5503
2.52951
2.49067
2.44599
2.32777
1
1
1.00002
1.00003
1.0001
1.00017
1.00055
1.00101
1.00308
1.00592
1.01692
1.03709
1.09585
1.24275
1.73466
2.29503
2.55384
2.5644
2.56431
2.55529
2.53221
2.50622
2.45084
2.41268
2.32873
1
1
1.00001
1.00003
1.00006
1.00018
1.00033
1.00101
1.00192
1.00546
1.01183
1.02977
1.08131
1.17857
1.54185
2.27925
2.48258
2.52399
2.52188
2.52181
2.51254
2.49202
2.44238
2.39268
2.32519
1
1
1.00001
1.00003
1.00005
1.00015
1.00026
1.00083
1.00153
1.00454
1.00932
1.02426
1.06369
1.14265
1.4286
2.1093
2.43147
2.51487
2.50166
2.49494
2.47856
2.4622
2.42597
2.3805
2.32215
1
1
1.00001
1.00002
1.00004
1.00012
1.00021
1.00066
1.00121
1.0037
1.00713
1.02015
1.04552
1.11365
1.30257
1.88055
2.30444
2.48572
2.48385
2.47636
2.45938
2.43928
2.40657
2.36209
2.31203
1
1
1.00001
1.00001
1.00004
1.00007
1.0002
1.00038
1.00115
1.00217
1.00631
1.01324
1.03421
1.08853
1.20758
1.56566
2.24986
2.43254
2.44878
2.44409
2.43155
2.4155
2.39356
2.3552
2.30751
1
1
1
1.00001
1.00003
1.00005
1.00015
1.00028
1.00085
1.00161
1.00456