/*--------------------------------*- C++ -*----------------------------------*\
| =========                 |                                                 |
| \\      /  F ield         | OpenFOAM: The Open Source CFD Toolbox           |
|  \\    /   O peration     | Version:  4.1                                   |
|   \\  /    A nd           | Web:      www.OpenFOAM.org                      |
|    \\/     M anipulation  |                                                 |
\*---------------------------------------------------------------------------*/
FoamFile
{
    version     2.0;
    format      ascii;
    class       volScalarField;
    location    "0.76";
    object      Ma;
}
// * * * * * * * * * * * * * * * * * * * * * * * * * * * * * * * * * * * * * //

dimensions      [0 0 0 0 0 0 0];

internalField   nonuniform List<scalar> 
18000
(
5.24725e-12
5.18904e-12
5.11942e-12
5.06225e-12
5.00557e-12
4.94957e-12
4.89419e-12
4.83991e-12
4.78641e-12
4.73471e-12
6.54235e-12
6.31625e-12
6.08742e-12
5.87741e-12
5.67649e-12
5.4837e-12
5.29867e-12
5.12136e-12
4.95069e-12
4.79065e-12
8.25332e-12
7.76048e-12
7.29055e-12
6.86153e-12
6.46214e-12
6.0908e-12
5.74587e-12
5.4236e-12
5.12352e-12
4.84785e-12
1.05429e-11
9.62782e-12
8.79741e-12
8.05302e-12
7.38474e-12
6.78278e-12
6.23949e-12
5.74834e-12
5.30346e-12
4.90593e-12
1.36526e-11
1.20709e-11
1.06984e-11
9.50651e-12
8.47306e-12
7.57281e-12
6.78633e-12
6.09748e-12
5.49148e-12
4.96517e-12
1.79416e-11
1.53068e-11
1.31213e-11
1.12911e-11
9.76252e-12
8.47785e-12
7.39328e-12
6.47292e-12
5.68775e-12
5.02542e-12
2.39478e-11
1.96561e-11
1.62388e-11
1.34991e-11
1.12989e-11
9.51849e-12
8.06753e-12
6.87695e-12
5.89317e-12
5.08667e-12
3.2596e-11
2.56811e-11
2.0431e-11
1.64187e-11
1.3338e-11
1.09491e-11
9.07978e-12
7.60468e-12
6.43074e-12
5.51503e-12
5.07848e-09
5.13144e-09
4.83635e-09
4.56781e-09
4.32509e-09
4.10511e-09
3.90512e-09
3.72273e-09
3.55626e-09
3.4846e-09
5.5681e-07
6.07292e-08
5.18786e-08
4.53128e-08
3.97915e-08
3.51239e-08
3.11606e-08
2.77834e-08
2.48005e-08
9.97475e-08
5.60543e-12
5.53974e-12
5.46665e-12
5.4026e-12
5.33986e-12
5.27823e-12
5.21653e-12
5.1569e-12
5.09797e-12
5.04051e-12
7.04398e-12
6.78929e-12
6.5416e-12
6.30698e-12
6.08319e-12
5.86869e-12
5.66417e-12
5.46795e-12
5.28037e-12
5.10255e-12
8.95721e-12
8.39893e-12
7.8854e-12
7.403e-12
6.95688e-12
6.54325e-12
6.16046e-12
5.80413e-12
5.47283e-12
5.16699e-12
1.15511e-11
1.05089e-11
9.58721e-12
8.74496e-12
7.99276e-12
7.31862e-12
6.71351e-12
6.16889e-12
5.67611e-12
5.23214e-12
1.51281e-11
1.33107e-11
1.17621e-11
1.04001e-11
9.22711e-12
8.21256e-12
7.3312e-12
6.56332e-12
5.89081e-12
5.30007e-12
2.01527e-11
1.7083e-11
1.45734e-11
1.24562e-11
1.07049e-11
9.24559e-12
8.02321e-12
6.99255e-12
6.11837e-12
5.3703e-12
2.73426e-11
2.22523e-11
1.82491e-11
1.50331e-11
1.24854e-11
1.04452e-11
8.79826e-12
7.45888e-12
6.35814e-12
5.44278e-12
3.78922e-11
2.94504e-11
2.31188e-11
1.82964e-11
1.46474e-11
1.18478e-11
9.67583e-12
7.97079e-12
6.61686e-12
5.5226e-12
1.92354e-10
4.3447e-10
3.5801e-10
2.96376e-10
2.48017e-10
2.09539e-10
1.78579e-10
1.5341e-10
1.32782e-10
1.174e-10
3.87866e-07
5.75717e-08
5.03282e-08
4.42148e-08
3.91322e-08
3.48674e-08
3.12573e-08
2.81771e-08
2.55387e-08
2.44813e-08
5.32457e-13
5.1135e-13
3.95542e-13
3.80694e-13
3.66878e-13
3.54484e-13
3.43205e-13
3.33636e-13
3.24967e-13
3.15452e-13
7.38182e-13
6.69038e-13
6.01324e-13
5.50923e-13
5.05295e-13
4.64624e-13
4.28101e-13
3.9652e-13
3.69997e-13
3.29442e-13
9.37171e-13
8.21595e-13
7.99445e-13
7.15256e-13
6.40457e-13
5.75077e-13
5.18911e-13
4.71087e-13
4.28458e-13
3.48579e-13
1.27167e-12
1.11161e-12
1.10451e-12
9.62129e-13
8.39285e-13
7.35597e-13
6.48143e-13
5.74798e-13
5.10578e-13
3.76278e-13
1.80862e-12
1.59197e-12
1.5447e-12
1.30555e-12
1.10642e-12
9.44148e-13
8.11127e-13
7.01836e-13
6.08293e-13
4.11614e-13
2.675e-12
2.36e-12
2.1777e-12
1.77714e-12
1.4592e-12
1.20897e-12
1.01083e-12
8.52816e-13
7.20443e-13
4.53198e-13
4.08875e-12
3.56746e-12
3.09271e-12
2.42527e-12
1.9217e-12
1.54202e-12
1.25165e-12
1.0277e-12
8.46633e-13
5.00801e-13
6.51056e-12
5.47522e-12
4.4267e-12
3.31986e-12
2.52914e-12
1.95913e-12
1.54061e-12
1.22901e-12
9.8647e-13
5.53491e-13
3.03084e-10
1.72832e-11
1.38969e-11
1.0125e-11
7.54621e-12
5.73804e-12
4.44352e-12
3.50055e-12
2.7974e-12
2.16164e-12
3.31333e-07
4.98568e-09
3.69058e-09
2.83671e-09
2.21489e-09
1.75375e-09
1.40624e-09
1.14056e-09
9.35133e-10
7.93743e-10
3.83549e-13
3.60269e-13
1.72038e-13
1.51431e-13
1.31115e-13
1.1201e-13
9.41375e-14
7.77339e-14
6.32206e-14
3.75079e-14
5.31479e-13
4.59567e-13
3.85895e-13
3.36092e-13
2.89474e-13
2.4784e-13
2.1111e-13
1.79367e-13
1.52857e-13
7.96298e-14
5.95624e-13
4.89569e-13
5.23511e-13
4.55992e-13
3.95737e-13
3.44492e-13
3.01896e-13
2.6789e-13
2.39062e-13
1.19614e-13
7.3004e-13
6.35911e-13
7.60658e-13
6.5847e-13
5.69391e-13
4.95838e-13
4.35189e-13
3.85907e-13
3.43265e-13
1.71e-13
9.59951e-13
9.45697e-13
1.10804e-12
9.42998e-13
8.0328e-13
6.89612e-13
5.97029e-13
5.21917e-13
4.56448e-13
2.24375e-13
1.34696e-12
1.48822e-12
1.61109e-12
1.33616e-12
1.11101e-12
9.32934e-13
7.90432e-13
6.76963e-13
5.79442e-13
2.80893e-13
1.98907e-12
2.36653e-12
2.34009e-12
1.87679e-12
1.51433e-12
1.23672e-12
1.0208e-12
8.5239e-13
7.12443e-13
3.40648e-13
3.17971e-12
3.76696e-12
3.40049e-12
2.62183e-12
2.04211e-12
1.61542e-12
1.29476e-12
1.0512e-12
8.56484e-13
4.03545e-13
3.37376e-10
7.196e-12
4.85742e-12
3.5947e-12
2.70299e-12
2.07048e-12
1.6112e-12
1.27323e-12
1.01144e-12
4.70535e-13
3.28983e-07
1.54925e-09
1.4195e-10
9.44644e-11
6.46966e-11
4.53048e-11
3.23696e-11
2.35612e-11
1.74405e-11
1.31231e-11
3.83366e-13
3.59647e-13
1.72025e-13
1.51278e-13
1.30868e-13
1.11685e-13
9.40913e-14
7.76222e-14
6.28114e-14
3.68923e-14
5.31507e-13
4.59516e-13
3.8618e-13
3.36428e-13
2.89829e-13
2.47861e-13
2.11077e-13
1.79599e-13
1.52918e-13
7.92952e-14
5.95795e-13
4.898e-13
5.24363e-13
4.56688e-13
3.96058e-13
3.44925e-13
3.02226e-13
2.67948e-13
2.38912e-13
1.19356e-13
7.30385e-13
6.36717e-13
7.61861e-13
6.59667e-13
5.70329e-13
4.9652e-13
4.35819e-13
3.86403e-13
3.43473e-13
1.70462e-13
9.60184e-13
9.47345e-13
1.11058e-12
9.45042e-13
8.04965e-13
6.91239e-13
5.98014e-13
5.22291e-13
4.56997e-13
2.2457e-13
1.346e-12
1.49149e-12
1.61494e-12
1.33986e-12
1.11395e-12
9.35431e-13
7.92584e-13
6.784e-13
5.80647e-13
2.81418e-13
1.98445e-12
2.37277e-12
2.34757e-12
1.883e-12
1.51967e-12
1.24118e-12
1.02427e-12
8.55009e-13
7.14849e-13
3.41971e-13
3.17303e-12
3.77889e-12
3.41369e-12
2.63289e-12
2.05133e-12
1.62284e-12
1.30064e-12
1.05598e-12
8.60211e-13
4.05981e-13
3.5595e-10
7.71822e-12
4.9869e-12
3.67124e-12
2.74945e-12
2.09903e-12
1.6288e-12
1.2842e-12
1.01824e-12
4.73221e-13
3.48984e-07
1.6871e-09
1.51616e-11
5.79387e-12
4.02821e-12
2.90492e-12
2.14866e-12
1.62551e-12
1.24316e-12
5.95043e-13
3.83411e-13
3.59313e-13
1.72547e-13
1.51805e-13
1.31203e-13
1.11938e-13
9.41132e-14
7.79196e-14
6.31879e-14
3.68155e-14
5.3238e-13
4.5998e-13
3.87414e-13
3.37478e-13
2.90771e-13
2.48552e-13
2.11498e-13
1.79859e-13
1.53513e-13
7.98039e-14
5.97661e-13
4.916e-13
5.26701e-13
4.58585e-13
3.97793e-13
3.46148e-13
3.03116e-13
2.68578e-13
2.39439e-13
1.19892e-13
7.34246e-13
6.4079e-13
7.65699e-13
6.62759e-13
5.72878e-13
4.98428e-13
4.37177e-13
3.87537e-13
3.44201e-13
1.70986e-13
9.6763e-13
9.5494e-13
1.11681e-12
9.50016e-13
8.08922e-13
6.94556e-13
6.00662e-13
5.24376e-13
4.58448e-13
2.25502e-13
1.35983e-12
1.50491e-12
1.62571e-12
1.34804e-12
1.12035e-12
9.40712e-13
7.96791e-13
6.81423e-13
5.83167e-13
2.83134e-13
2.01033e-12
2.39601e-12
2.36595e-12
1.89696e-12
1.53033e-12
1.24972e-12
1.03102e-12
8.60134e-13
7.18812e-13
3.44713e-13
3.22669e-12
3.82078e-12
3.44541e-12
2.65633e-12
2.06885e-12
1.63641e-12
1.31132e-12
1.06406e-12
8.66302e-13
4.10041e-13
3.7879e-10
7.95189e-12
5.04579e-12
3.71186e-12
2.77871e-12
2.12081e-12
1.64507e-12
1.29627e-12
1.02757e-12
4.79509e-13
3.80958e-07
1.82015e-09
1.52612e-11
5.15458e-12
3.69419e-12
2.72284e-12
2.04625e-12
1.56616e-12
1.20801e-12
5.6018e-13
3.83373e-13
3.59042e-13
1.7312e-13
1.52443e-13
1.31802e-13
1.12511e-13
9.46109e-14
7.82012e-14
6.38261e-14
4.49038e-14
5.33371e-13
4.60613e-13
3.89054e-13
3.38749e-13
2.91892e-13
2.4964e-13
2.12408e-13
1.8054e-13
1.53838e-13
8.25244e-14
5.99934e-13
4.93678e-13
5.29404e-13
4.60959e-13
3.99694e-13
3.4773e-13
3.04207e-13
2.69432e-13
2.40292e-13
1.21707e-13
7.38817e-13
6.45518e-13
7.7005e-13
6.66495e-13
5.76056e-13
5.01e-13
4.39e-13
3.88781e-13
3.45633e-13
1.72804e-13
9.76439e-13
9.63742e-13
1.12404e-12
9.5585e-13
8.1358e-13
6.98587e-13
6.04006e-13
5.26978e-13
4.60505e-13
2.27766e-13
1.37661e-12
1.52016e-12
1.63812e-12
1.35797e-12
1.12794e-12
9.47004e-13
8.02183e-13
6.85691e-13
5.86319e-13
2.86197e-13
2.04129e-12
2.42285e-12
2.38675e-12
1.9133e-12
1.543e-12
1.25993e-12
1.03941e-12
8.6682e-13
7.23945e-13
3.49078e-13
3.27403e-12
3.86826e-12
3.48169e-12
2.68355e-12
2.08946e-12
1.65236e-12
1.3244e-12
1.07461e-12
8.74302e-13
4.15997e-13
3.84676e-10
7.90329e-12
5.10798e-12
3.75759e-12
2.81249e-12
2.14641e-12
1.66531e-12
1.31144e-12
1.03941e-12
4.88144e-13
4.02707e-07
1.81604e-09
1.46406e-11
5.21525e-12
3.74306e-12
2.75951e-12
2.07466e-12
1.58755e-12
1.22449e-12
5.71552e-13
3.83375e-13
3.57954e-13
1.73367e-13
1.52755e-13
1.32673e-13
1.14891e-13
1.01803e-13
1.48274e-13
4.90766e-13
1.41948e-12
5.33817e-13
4.60119e-13
3.89726e-13
3.39607e-13
2.93084e-13
2.51615e-13
2.16151e-13
2.01207e-13
3.2899e-13
9.31917e-13
6.011e-13
4.93771e-13
5.30515e-13
4.62112e-13
4.01173e-13
3.5006e-13
3.08378e-13
2.79623e-13
3.11081e-13
6.24936e-13
7.41445e-13
6.46317e-13
7.71639e-13
6.68147e-13
5.77848e-13
5.0355e-13
4.43682e-13
3.96804e-13
3.78829e-13
4.63993e-13
9.81217e-13
9.65334e-13
1.12614e-12
9.58099e-13
8.16002e-13
7.01347e-13
6.08949e-13
5.34988e-13
4.8228e-13
3.96547e-13
1.38421e-12
1.52287e-12
1.64117e-12
1.3614e-12
1.13165e-12
9.51307e-13
8.08604e-13
6.95386e-13
6.04608e-13
3.90042e-13
2.05293e-12
2.42756e-12
2.39185e-12
1.91891e-12
1.54879e-12
1.26648e-12
1.04778e-12
8.78401e-13
7.41962e-13
4.19605e-13
3.21561e-12
3.87673e-12
3.49087e-12
2.69345e-12
2.09912e-12
1.66181e-12
1.33516e-12
1.08935e-12
8.94346e-13
4.69602e-13
2.70393e-10
6.84064e-12
5.118e-12
3.77449e-12
2.828e-12
2.16105e-12
1.68109e-12
1.3307e-12
1.06174e-12
5.3299e-13
3.25622e-07
9.83587e-10
9.92526e-12
5.2204e-12
3.76573e-12
2.78088e-12
2.09642e-12
1.61183e-12
1.25086e-12
6.12745e-13
4.03381e-13
4.37995e-13
2.42213e-13
1.56724e-13
2.2426e-13
6.04509e-13
1.35242e-12
5.39558e-12
2.05758e-11
4.97975e-11
5.75537e-13
6.01893e-13
4.78782e-13
3.64002e-13
3.00201e-13
5.35714e-13
1.0572e-12
3.39106e-12
1.21486e-11
3.27962e-11
6.85073e-13
7.43411e-13
6.72848e-13
5.25661e-13
3.96985e-13
4.72904e-13
9.4722e-13
2.32877e-12
7.78639e-12
2.16024e-11
8.81204e-13
1.00136e-12
9.62392e-13
7.68813e-13
5.8962e-13
5.2769e-13
8.88781e-13
1.74484e-12
5.39617e-12
1.46988e-11
1.19587e-12
1.40948e-12
1.36163e-12
1.09313e-12
8.52423e-13
6.8864e-13
8.39714e-13
1.46491e-12
4.00446e-12
1.03315e-11
1.69266e-12
2.04006e-12
1.9168e-12
1.52361e-12
1.1883e-12
9.33518e-13
8.99889e-13
1.43901e-12
3.14833e-12
7.48351e-12
2.47097e-12
3.01235e-12
2.69898e-12
2.09909e-12
1.61835e-12
1.25013e-12
1.06015e-12
1.35491e-12
2.60128e-12
5.57209e-12
3.63916e-12
4.51288e-12
3.8142e-12
2.87647e-12
2.16941e-12
1.64503e-12
1.30785e-12
1.35792e-12
2.24406e-12
4.25688e-12
1.42896e-10
6.21455e-12
5.42331e-12
3.93987e-12
2.88232e-12
2.13251e-12
1.62994e-12
1.46081e-12
2.00623e-12
3.33394e-12
7.41706e-08
1.99179e-09
7.45326e-12
5.3058e-12
3.78539e-12
2.72569e-12
2.01936e-12
1.64854e-12
1.87581e-12
2.68536e-12
2.50911e-12
2.35487e-12
1.50393e-12
1.64033e-13
2.72159e-12
9.03368e-12
2.88141e-11
1.2265e-10
3.78248e-10
5.13959e-10
3.53573e-12
3.4071e-12
2.51729e-12
1.13376e-12
1.35718e-12
6.42966e-12
2.03712e-11
7.52847e-11
2.27339e-10
3.30494e-10
4.80276e-12
4.66115e-12
3.68123e-12
2.28114e-12
2.39066e-13
4.18175e-12
1.43686e-11
4.9373e-11
1.44656e-10
2.25622e-10
6.46585e-12
6.23385e-12
5.07124e-12
3.55473e-12
1.39139e-12
2.32921e-12
1.00745e-11
3.39139e-11
9.63689e-11
1.59131e-10
8.69707e-12
8.24065e-12
6.76003e-12
5.02253e-12
2.79081e-12
7.71567e-13
6.93996e-12
2.3857e-11
6.65572e-11
1.1503e-10
1.17457e-11
1.08461e-11
8.84776e-12
6.73274e-12
4.28733e-12
1.14133e-12
4.46282e-12
1.68237e-11
4.7287e-11
8.48648e-11
1.5999e-11
1.43047e-11
1.14777e-11
8.7648e-12
5.95946e-12
2.67231e-12
2.43714e-12
1.20256e-11
3.43561e-11
6.37284e-11
2.20985e-11
1.89844e-11
1.48426e-11
1.12223e-11
7.84234e-12
4.27261e-12
1.02319e-12
8.46524e-12
2.53571e-11
4.85743e-11
4.9811e-10
2.55172e-11
1.92336e-11
1.42442e-11
1.00073e-11
5.98501e-12
1.7091e-12
5.71011e-12
1.89137e-11
3.74752e-11
8.6785e-07
2.96751e-09
2.60325e-11
1.802e-11
1.25196e-11
7.82304e-12
3.22497e-12
3.54766e-12
1.41544e-11
2.91862e-11
3.31601e-12
2.98257e-12
1.96252e-12
1.96689e-12
8.52496e-12
3.08963e-11
1.40228e-10
5.32385e-10
9.78942e-10
1.11879e-09
4.38862e-12
4.08932e-12
3.11412e-12
1.64134e-12
5.31177e-12
2.08298e-11
8.50679e-11
3.11524e-10
6.06439e-10
6.78338e-10
5.69008e-12
5.3688e-12
4.40971e-12
2.71297e-12
2.85493e-12
1.37425e-11
5.44312e-11
1.92796e-10
3.9532e-10
4.3667e-10
7.35309e-12
6.91403e-12
5.87125e-12
4.19363e-12
1.94585e-12
8.61784e-12
3.59208e-11
1.24648e-10
2.6579e-10
2.91311e-10
9.52922e-12
8.83067e-12
7.57152e-12
5.82599e-12
3.08055e-12
4.93482e-12
2.38809e-11
8.30616e-11
1.83113e-10
1.99777e-10
1.24494e-11
1.12651e-11
9.60395e-12
7.63442e-12
4.85169e-12
2.55024e-12
1.55282e-11
5.63336e-11
1.28774e-10
1.40155e-10
1.64603e-11
1.4429e-11
1.20951e-11
9.69792e-12
6.76639e-12
2.71846e-12
9.7145e-12
3.8719e-11
9.17899e-11
1.00138e-10
2.2115e-11
1.86323e-11
1.52208e-11
1.21119e-11
8.81851e-12
4.54116e-12
5.48435e-12
2.66392e-11
6.61596e-11
7.25997e-11
2.45458e-10
2.48073e-11
1.92273e-11
1.50057e-11
1.10841e-11
6.63673e-12
2.79976e-12
1.80888e-11
4.80461e-11
5.31851e-11
1.84029e-07
8.48202e-09
5.2011e-11
1.85181e-11
1.36222e-11
8.78338e-12
2.96485e-12
1.18432e-11
3.49915e-11
3.92035e-11
1.03066e-12
1.28178e-12
1.54059e-12
3.19948e-12
8.39019e-12
2.45583e-11
8.56681e-11
2.49704e-10
3.65678e-10
3.23992e-10
1.12636e-12
1.29372e-12
1.42218e-12
2.43831e-12
6.00698e-12
1.72359e-11
5.72555e-11
1.60604e-10
2.23442e-10
1.33461e-10
1.22714e-12
1.34841e-12
1.43067e-12
1.97961e-12
4.32697e-12
1.21748e-11
3.90451e-11
1.06312e-10
1.42249e-10
5.2154e-11
1.33374e-12
1.43296e-12
1.51656e-12
1.80837e-12
3.20107e-12
8.62758e-12
2.71492e-11
7.21657e-11
9.373e-11
2.38145e-11
1.44783e-12
1.53685e-12
1.64e-12
1.81955e-12
2.5324e-12
6.13247e-12
1.90548e-11
5.00906e-11
6.32393e-11
1.72876e-11
1.57906e-12
1.65782e-12
1.77991e-12
1.91996e-12
2.237e-12
4.45299e-12
1.34502e-11
3.54935e-11
4.34569e-11
1.59515e-11
1.73397e-12
1.79792e-12
1.92822e-12
2.06094e-12
2.1902e-12
3.36249e-12
9.51976e-12
2.53009e-11
3.0223e-11
1.48667e-11
1.98055e-12
1.96074e-12
2.08921e-12
2.21729e-12
2.27043e-12
2.76556e-12
6.81162e-12
1.81689e-11
2.12065e-11
1.36042e-11
6.27711e-10
1.02885e-11
2.26058e-12
2.38241e-12
2.40992e-12
2.52861e-12
4.96455e-12
1.31257e-11
1.49413e-11
1.23069e-11
3.13097e-07
9.77961e-09
3.17867e-11
2.6321e-12
2.56842e-12
2.50669e-12
3.74473e-12
9.5121e-12
1.04975e-11
1.09489e-11
7.79798e-13
1.48463e-12
1.60493e-12
2.5162e-12
4.13677e-12
6.91185e-12
1.46139e-11
5.58109e-11
2.16233e-10
6.07401e-10
7.1574e-13
1.33352e-12
1.38936e-12
2.14239e-12
3.47723e-12
5.79678e-12
1.10814e-11
3.47121e-11
1.31472e-10
3.54509e-10
6.52981e-13
1.19184e-12
1.19615e-12
1.81554e-12
2.91603e-12
4.82059e-12
8.75979e-12
2.29267e-11
8.37939e-11
2.18011e-10
5.99994e-13
1.07049e-12
1.03516e-12
1.55408e-12
2.45801e-12
4.02748e-12
7.06605e-12
1.60553e-11
5.54345e-11
1.40053e-10
5.53939e-13
9.66379e-13
8.98537e-13
1.33064e-12
2.08111e-12
3.39224e-12
5.78128e-12
1.18312e-11
3.77757e-11
9.31163e-11
5.147e-13
8.77394e-13
7.83914e-13
1.14992e-12
1.78287e-12
2.86624e-12
4.79036e-12
9.0689e-12
2.63807e-11
6.37272e-11
4.80923e-13
8.00978e-13
6.86414e-13
9.96921e-13
1.527e-12
2.43144e-12
4.02261e-12
7.16573e-12
1.88272e-11
4.46879e-11
7.1321e-13
7.35453e-13
6.04897e-13
8.6752e-13
1.31712e-12
2.08077e-12
3.40398e-12
5.80567e-12
1.36954e-11
3.20354e-11
9.44976e-10
2.92495e-11
5.8551e-13
7.57324e-13
1.14281e-12
1.79084e-12
2.898e-12
4.79239e-12
1.01344e-11
2.33988e-11
3.11169e-07
3.07624e-08
1.83913e-10
2.09429e-12
9.67115e-13
1.53977e-12
2.47072e-12
4.0044e-12
7.60048e-12
1.73588e-11
1.05173e-12
1.84056e-12
1.63053e-12
2.16875e-12
3.01651e-12
4.36734e-12
6.7771e-12
1.2685e-11
4.99597e-11
1.71325e-10
9.78953e-13
1.68764e-12
1.46139e-12
1.93623e-12
2.66865e-12
3.80416e-12
5.72163e-12
1.00695e-11
3.53024e-11
1.03802e-10
9.08639e-13
1.54088e-12
1.29858e-12
1.71221e-12
2.34466e-12
3.31272e-12
4.85374e-12
7.95529e-12
2.50191e-11
6.65869e-11
8.47028e-13
1.41267e-12
1.1597e-12
1.51814e-12
2.06862e-12
2.89741e-12
4.17892e-12
6.42327e-12
1.80455e-11
4.47016e-11
7.93495e-13
1.30085e-12
1.04001e-12
1.3515e-12
1.83566e-12
2.5511e-12
3.63779e-12
5.33829e-12
1.31537e-11
3.10573e-11
7.46841e-13
1.20302e-12
9.36137e-13
1.20879e-12
1.63063e-12
2.25394e-12
3.19631e-12
4.54288e-12
9.68484e-12
2.21602e-11
7.05678e-13
1.11655e-12
8.46199e-13
1.08477e-12
1.45456e-12
2.00331e-12
2.82345e-12
3.93121e-12
7.19216e-12
1.61421e-11
1.01958e-12
1.04168e-12
7.68312e-13
9.76636e-13
1.30141e-12
1.78371e-12
2.50162e-12
3.44119e-12
5.39677e-12
1.19418e-11
1.36843e-09
5.18253e-11
7.6425e-13
8.81146e-13
1.16843e-12
1.59253e-12
2.22734e-12
3.03269e-12
4.08657e-12
8.9436e-12
3.819e-07
5.39976e-08
4.4901e-10
2.71961e-12
1.00442e-12
1.42549e-12
1.98612e-12
2.6818e-12
3.10392e-12
6.75742e-12
1.45267e-12
2.31982e-12
1.64505e-12
1.89564e-12
2.27491e-12
2.82137e-12
3.7843e-12
5.80409e-12
1.3823e-11
2.76238e-11
1.37403e-12
2.17106e-12
1.52772e-12
1.76529e-12
2.11576e-12
2.59822e-12
3.35128e-12
4.76303e-12
1.10323e-11
2.04821e-11
1.295e-12
2.02299e-12
1.40437e-12
1.62484e-12
1.94797e-12
2.37925e-12
3.00168e-12
4.00085e-12
8.5679e-12
1.53587e-11
1.22515e-12
1.89072e-12
1.293e-12
1.49625e-12
1.79465e-12
2.18749e-12
2.72596e-12
3.46251e-12
6.6089e-12
1.16913e-11
1.16328e-12
1.77224e-12
1.19297e-12
1.37923e-12
1.65599e-12
2.01626e-12
2.49908e-12
3.07137e-12
5.08618e-12
9.00318e-12
1.10819e-12
1.66548e-12
1.10316e-12
1.27405e-12
1.52774e-12
1.86073e-12
2.29943e-12
2.77325e-12
3.90414e-12
6.97918e-12
1.05925e-12
1.56965e-12
1.02262e-12
1.17858e-12
1.4115e-12
1.71954e-12
2.12671e-12
2.53024e-12
2.99325e-12
5.43232e-12
1.4014e-12
1.48474e-12
9.50012e-13
1.09184e-12
1.30583e-12
1.59085e-12
1.96907e-12
2.32897e-12
2.28921e-12
4.24504e-12
1.70306e-09
7.53373e-11
9.72031e-13
1.01208e-12
1.20901e-12
1.47263e-12
1.82437e-12
2.15317e-12
1.74376e-12
3.32497e-12
3.11311e-07
7.42792e-08
7.09305e-10
3.03364e-12
1.06176e-12
1.36235e-12
1.68686e-12
1.99046e-12
1.31456e-12
2.59762e-12
2.03525e-12
2.92773e-12
1.60792e-12
1.59934e-12
1.66046e-12
1.79895e-12
2.13916e-12
2.92483e-12
6.32092e-12
8.50379e-12
1.95203e-12
2.79303e-12
1.54846e-12
1.55767e-12
1.62707e-12
1.74501e-12
1.98304e-12
2.49131e-12
5.14512e-12
7.03535e-12
1.86845e-12
2.65418e-12
1.47165e-12
1.49556e-12
1.57383e-12
1.68454e-12
1.86443e-12
2.18158e-12
4.07921e-12
5.73172e-12
1.79278e-12
2.5262e-12
1.3969e-12
1.43092e-12
1.51649e-12
1.62689e-12
1.77723e-12
1.97503e-12
3.21358e-12
4.66838e-12
1.72412e-12
2.4078e-12
1.32488e-12
1.36697e-12
1.45825e-12
1.57007e-12
1.70624e-12
1.83663e-12
2.51331e-12
3.79922e-12
1.66229e-12
2.29886e-12
1.25684e-12
1.30361e-12
1.39822e-12
1.51362e-12
1.64766e-12
1.73681e-12
1.94885e-12
3.08796e-12
1.60598e-12
2.19845e-12
1.19293e-12
1.24218e-12
1.33788e-12
1.45604e-12
1.59184e-12
1.66119e-12
1.48815e-12
2.50532e-12
1.93394e-12
2.10832e-12
1.1327e-12
1.18334e-12
1.2796e-12
1.39805e-12
1.53526e-12
1.59947e-12
1.11597e-12
2.02521e-12
1.97128e-09
9.48943e-11
1.32354e-12
1.12633e-12
1.22236e-12
1.34117e-12
1.47918e-12
1.545e-12
8.17127e-13
1.62836e-12
1.00061e-07
8.3474e-08
1.58669e-09
7.93693e-12
1.10839e-12
1.28056e-12
1.4205e-12
1.48824e-12
5.65902e-13
1.2962e-12
2.82274e-12
3.61828e-12
1.45076e-12
1.21352e-12
1.0656e-12
1.00349e-12
1.13345e-12
1.52164e-12
3.24005e-12
3.73533e-12
2.74149e-12
3.51258e-12
1.44902e-12
1.24712e-12
1.11812e-12
1.03622e-12
1.0753e-12
1.30462e-12
2.77464e-12
3.29137e-12
2.65845e-12
3.3986e-12
1.42585e-12
1.25633e-12
1.14927e-12
1.06594e-12
1.05127e-12
1.15273e-12
2.28411e-12
2.81402e-12
2.58187e-12
3.28934e-12
1.39485e-12
1.25332e-12
1.1672e-12
1.09233e-12
1.05156e-12
1.06291e-12
1.86294e-12
2.40202e-12
2.51114e-12
3.18579e-12
1.36061e-12
1.24281e-12
1.17528e-12
1.11225e-12
1.06216e-12
1.01992e-12
1.50129e-12
2.04575e-12
2.44558e-12
3.08705e-12
1.3233e-12
1.2257e-12
1.17511e-12
1.12597e-12
1.0782e-12
1.00514e-12
1.18991e-12
1.73624e-12
2.38505e-12
2.99411e-12
1.28458e-12
1.20394e-12
1.16871e-12
1.1335e-12
1.09354e-12
1.00579e-12
9.24279e-13
1.46797e-12
2.69406e-12
2.9092e-12
1.24557e-12
1.17982e-12
1.15672e-12
1.13425e-12
1.10494e-12
1.01509e-12
6.9733e-13
1.23727e-12
2.276e-09
1.06719e-10
1.64667e-12
1.15372e-12
1.14113e-12
1.12992e-12
1.11088e-12
1.02656e-12
5.03943e-13
1.03898e-12
1.44137e-07
7.7182e-08
1.50414e-09
1.31452e-11
1.08722e-12
1.11788e-12
1.11124e-12
1.03429e-12
3.34164e-13
8.72303e-13
3.76159e-12
4.29201e-12
1.13577e-12
7.6186e-13
4.95358e-13
3.50476e-13
4.84729e-13
7.91013e-13
1.97007e-12
2.00328e-12
3.68782e-12
4.22632e-12
1.17976e-12
8.43329e-13
6.0012e-13
4.20982e-13
4.28699e-13
6.38701e-13
1.80604e-12
1.88304e-12
3.61388e-12
4.15387e-12
1.20117e-12
9.00808e-13
6.8406e-13
4.99942e-13
4.24786e-13
5.21593e-13
1.5696e-12
1.68851e-12
3.54364e-12
4.0798e-12
1.21166e-12
9.43549e-13
7.5044e-13
5.74381e-13
4.57293e-13
4.47894e-13
1.35911e-12
1.51329e-12
3.47719e-12
4.00666e-12
1.21339e-12
9.73924e-13
8.03526e-13
6.40244e-13
5.06413e-13
4.20453e-13
1.17079e-12
1.35505e-12
3.41529e-12
3.93472e-12
1.20845e-12
9.95447e-13
8.46584e-13
6.9817e-13
5.61194e-13
4.30472e-13
1.00461e-12
1.2136e-12
3.35664e-12
3.86434e-12
1.19874e-12
1.00948e-12
8.79512e-13
7.4694e-13
6.15064e-13
4.63454e-13
8.59762e-13
1.08818e-12
3.64367e-12
3.80049e-12
1.18567e-12
1.01716e-12
9.04533e-13
7.87606e-13
6.64912e-13
5.07801e-13
7.35887e-13
9.77703e-13
2.5537e-09
1.08016e-10
1.92507e-12
1.02179e-12
9.24251e-13
8.21223e-13
7.08497e-13
5.55469e-13
6.32574e-13
8.82188e-13
4.11324e-07
5.18212e-08
1.31732e-09
1.7287e-11
9.47401e-13
8.46399e-13
7.46177e-13
5.9925e-13
5.50414e-13
8.03597e-13
4.6703e-12
4.81583e-12
7.33041e-13
4.97011e-13
2.72379e-13
1.50956e-13
2.65801e-13
4.77581e-13
1.42316e-12
1.26483e-12
4.60741e-12
4.79429e-12
7.76171e-13
5.35362e-13
3.11422e-13
1.24607e-13
1.62823e-13
3.74156e-13
1.41181e-12
1.27765e-12
4.5466e-12
4.76819e-12
8.07732e-13
5.7216e-13
3.608e-13
1.62919e-13
7.5866e-14
2.74207e-13
1.30816e-12
1.20368e-12
4.48731e-12
4.73717e-12
8.32925e-13
6.05079e-13
4.10414e-13
2.21126e-13
4.59959e-14
1.81236e-13
1.21426e-12
1.13549e-12
4.43088e-12
4.7031e-12
8.51853e-13
6.35318e-13
4.57128e-13
2.8118e-13
1.0891e-13
9.69059e-14
1.12816e-12
1.07267e-12
4.37625e-12
4.6663e-12
8.6621e-13
6.613e-13
4.99741e-13
3.37463e-13
1.76664e-13
3.09646e-14
1.04992e-12
1.0152e-12
4.3245e-12
4.62894e-12
8.76445e-13
6.83707e-13
5.37711e-13
3.89329e-13
2.38969e-13
6.42235e-14
9.80488e-13
9.63429e-13
4.59505e-12
4.5956e-12
8.82377e-13
7.01721e-13
5.7106e-13
4.35613e-13
2.95669e-13
1.27804e-13
9.18853e-13
9.16966e-13
2.75547e-09
1.00491e-10
1.9222e-12
7.18683e-13
5.99803e-13
4.76363e-13
3.47408e-13
1.88181e-13
8.65188e-13
8.75089e-13
6.53358e-07
2.08694e-08
7.63967e-10
1.29312e-11
6.53034e-13
5.13422e-13
3.94149e-13
2.44788e-13
8.1885e-13
8.48375e-13
5.25473e-12
5.08427e-12
4.39711e-13
5.94079e-13
5.09748e-13
4.39948e-13
4.01175e-13
4.31671e-13
1.19639e-12
9.55223e-13
5.19898e-12
5.09083e-12
3.95929e-13
5.34447e-13
4.56655e-13
3.92344e-13
3.55504e-13
3.94504e-13
1.25764e-12
1.02661e-12
5.14762e-12
5.0972e-12
3.65643e-13
4.82041e-13
4.09495e-13
3.47144e-13
3.1255e-13
3.52839e-13
1.21632e-12
1.00447e-12
5.09727e-12
5.09721e-12
3.48897e-13
4.37323e-13
3.69023e-13
3.0928e-13
2.73954e-13
3.14197e-13
1.17705e-12
9.82618e-13
5.04817e-12
5.09218e-12
3.44502e-13
4.01931e-13
3.37924e-13
2.78833e-13
2.40973e-13
2.78479e-13
1.13959e-12
9.62286e-13
5.00126e-12
5.08403e-12
3.48445e-13
3.74222e-13
3.12514e-13
2.54211e-13
2.13781e-13
2.47376e-13
1.10435e-12
9.42911e-13
4.95589e-12
5.07299e-12
3.57276e-13
3.53323e-13
2.94837e-13
2.371e-13
1.93681e-13
2.1913e-13
1.07065e-12
9.25165e-13
5.21873e-12
5.06526e-12
3.68745e-13
3.37637e-13
2.82459e-13
2.25947e-13
1.78592e-13
1.96246e-13
1.03937e-12
9.07183e-13
2.8584e-09
9.27831e-11
1.72601e-12
3.26262e-13
2.74534e-13
2.20258e-13
1.71678e-13
1.78335e-13
1.00831e-12
8.90281e-13
8.0236e-07
2.41902e-08
6.23414e-10
1.00515e-11
2.55401e-13
2.21963e-13
1.74799e-13
1.71797e-13
9.79994e-13
9.21972e-13
5.25863e-12
5.05531e-12
4.20049e-13
6.18446e-13
5.39354e-13
4.65729e-13
4.12934e-13
4.23469e-13
1.13082e-12
9.12347e-13
5.20278e-12
5.06388e-12
3.51558e-13
5.49866e-13
4.82419e-13
4.17676e-13
3.72551e-13
3.94645e-13
1.2012e-12
9.87179e-13
5.15174e-12
5.0734e-12
2.97666e-13
4.87436e-13
4.29196e-13
3.71836e-13
3.32496e-13
3.58039e-13
1.16765e-12
9.68457e-13
5.10178e-12
5.07583e-12
2.60855e-13
4.3172e-13
3.81303e-13
3.30616e-13
2.95736e-13
3.24581e-13
1.13554e-12
9.49841e-13
5.05361e-12
5.07406e-12
2.42467e-13
3.85264e-13
3.40681e-13
2.94543e-13
2.62608e-13
2.92834e-13
1.10474e-12
9.32769e-13
5.00725e-12
5.06824e-12
2.39524e-13
3.46373e-13
3.06529e-13
2.63562e-13
2.33074e-13
2.63564e-13
1.07551e-12
9.16535e-13
4.9625e-12
5.05952e-12
2.47415e-13
3.14069e-13
2.78116e-13
2.38049e-13
2.08186e-13
2.36991e-13
1.04727e-12
9.01436e-13
5.22525e-12
5.05377e-12
2.61883e-13
2.88451e-13
2.55725e-13
2.17512e-13
1.86635e-13
2.13222e-13
1.02061e-12
8.86471e-13
2.8584e-09
9.27831e-11
1.7007e-12
2.67602e-13
2.3713e-13
2.01609e-13
1.71253e-13
1.93071e-13
9.94513e-13
8.72281e-13
8.0236e-07
2.41902e-08
6.23395e-10
1.00278e-11
1.91749e-13
1.93951e-13
1.65768e-13
1.82044e-13
9.69384e-13
9.19079e-13
4.67442e-12
4.73575e-12
6.47091e-13
5.10427e-13
3.33476e-13
2.26788e-13
2.61558e-13
4.16177e-13
1.19674e-12
1.12266e-12
4.61328e-12
4.72242e-12
6.73948e-13
5.18435e-13
3.36131e-13
1.94072e-13
1.82228e-13
3.34611e-13
1.2172e-12
1.14677e-12
4.55476e-12
4.70533e-12
6.98646e-13
5.34023e-13
3.5662e-13
1.97655e-13
1.18672e-13
2.50382e-13
1.14112e-12
1.08458e-12
4.49785e-12
4.68309e-12
7.20096e-13
5.52334e-13
3.85019e-13
2.252e-13
9.06851e-14
1.72407e-13
1.07218e-12
1.02767e-12
4.44327e-12
4.657e-12
7.39792e-13
5.72095e-13
4.16901e-13
2.63939e-13
1.15382e-13
1.0496e-13
1.00901e-12
9.75545e-13
4.391e-12
4.62815e-12
7.55902e-13
5.91734e-13
4.4941e-13
3.06212e-13
1.62218e-13
5.91649e-14
9.52268e-13
9.29107e-13
4.34078e-12
4.59754e-12
7.68962e-13
6.09997e-13
4.8047e-13
3.48145e-13
2.12753e-13
7.17079e-14
9.01621e-13
8.87314e-13
4.61251e-12
4.57045e-12
7.78934e-13
6.26521e-13
5.09276e-13
3.87294e-13
2.61348e-13
1.17896e-13
8.57312e-13
8.50306e-13
2.75547e-09
1.00492e-10
1.86693e-12
6.41799e-13
5.35165e-13
4.24108e-13
3.07341e-13
1.6881e-13
8.19246e-13
8.18431e-13
6.53358e-07
2.08694e-08
7.63926e-10
1.2884e-11
5.80971e-13
4.57671e-13
3.50055e-13
2.19214e-13
7.86613e-13
8.1146e-13
3.76183e-12
4.19112e-12
9.9273e-13
6.56078e-13
3.95435e-13
2.1886e-13
3.32275e-13
6.07099e-13
1.47298e-12
1.68971e-12
3.694e-12
4.14148e-12
1.04265e-12
7.34108e-13
4.98693e-13
3.08104e-13
2.91079e-13
4.84767e-13
1.3815e-12
1.60173e-12
3.62586e-12
4.08339e-12
1.07336e-12
7.94127e-13
5.83667e-13
3.97648e-13
3.03787e-13
3.87456e-13
1.20915e-12
1.43856e-12
3.56e-12
4.02284e-12
1.09271e-12
8.39817e-13
6.52441e-13
4.77659e-13
3.50255e-13
3.2936e-13
1.05372e-12
1.29106e-12
3.49778e-12
3.9611e-12
1.10411e-12
8.76216e-13
7.09254e-13
5.47794e-13
4.09274e-13
3.16484e-13
9.15181e-13
1.15874e-12
3.43887e-12
3.89974e-12
1.10827e-12
9.02778e-13
7.55645e-13
6.09383e-13
4.71084e-13
3.37968e-13
7.93742e-13
1.04055e-12
3.38284e-12
3.83881e-12
1.1076e-12
9.22722e-13
7.92759e-13
6.61515e-13
5.29355e-13
3.80556e-13
6.89364e-13
9.37628e-13
3.67086e-12
3.78341e-12
1.102e-12
9.36315e-13
8.23377e-13
7.05669e-13
5.82991e-13
4.30844e-13
6.02997e-13
8.47223e-13
2.5537e-09
1.08019e-10
1.86837e-12
9.46958e-13
8.47232e-13
7.42878e-13
6.30276e-13
4.82355e-13
5.33519e-13
7.70948e-13
4.11324e-07
5.18212e-08
1.3173e-09
1.72498e-11
8.7479e-13
7.72026e-13
6.70775e-13
5.29682e-13
4.82406e-13
7.13968e-13
2.82619e-12
3.52718e-12
1.28898e-12
1.03651e-12
8.7545e-13
7.89462e-13
8.61942e-13
1.14206e-12
2.16326e-12
2.9884e-12
2.75446e-12
3.44319e-12
1.30912e-12
1.08935e-12
9.45292e-13
8.45419e-13
8.46815e-13
1.00279e-12
1.88372e-12
2.65675e-12
2.6789e-12
3.34771e-12
1.30567e-12
1.11748e-12
9.93935e-13
8.95068e-13
8.54118e-13
9.08557e-13
1.55229e-12
2.27519e-12
2.60775e-12
3.25436e-12
1.29297e-12
1.13124e-12
1.02772e-12
9.37727e-13
8.76397e-13
8.61118e-13
1.25951e-12
1.94244e-12
2.5415e-12
3.16371e-12
1.27347e-12
1.13624e-12
1.05048e-12
9.72423e-13
9.06361e-13
8.46153e-13
1.00692e-12
1.65238e-12
2.4792e-12
3.07632e-12
1.24978e-12
1.133e-12
1.06421e-12
9.99629e-13
9.37498e-13
8.52176e-13
7.88191e-13
1.40013e-12
2.4214e-12
2.99227e-12
1.2231e-12
1.12466e-12
1.0703e-12
1.01812e-12
9.64905e-13
8.69347e-13
5.98566e-13
1.18224e-12
2.72865e-12
2.91575e-12
1.1943e-12
1.11098e-12
1.07073e-12
1.03106e-12
9.8625e-13
8.91239e-13
4.34285e-13
9.94839e-13
2.276e-09
1.06724e-10
1.6073e-12
1.09554e-12
1.06545e-12
1.03699e-12
1.00292e-12
9.13242e-13
2.95075e-13
8.35206e-13
1.44137e-07
7.7182e-08
1.50412e-09
1.31156e-11
1.02307e-12
1.03559e-12
1.01282e-12
9.30218e-13
1.69326e-13
7.02641e-13
2.05343e-12
2.86764e-12
1.45211e-12
1.3826e-12
1.38356e-12
1.44551e-12
1.64239e-12
2.10234e-12
3.72558e-12
6.28044e-12
1.97972e-12
2.75758e-12
1.42515e-12
1.37813e-12
1.39086e-12
1.44427e-12
1.57988e-12
1.87129e-12
3.09092e-12
5.26884e-12
1.902e-12
2.63714e-12
1.37573e-12
1.34816e-12
1.37362e-12
1.42665e-12
1.52902e-12
1.70538e-12
2.47061e-12
4.31181e-12
1.83051e-12
2.52333e-12
1.32324e-12
1.31114e-12
1.34699e-12
1.40521e-12
1.49411e-12
1.59515e-12
1.95728e-12
3.52249e-12
1.76488e-12
2.41658e-12
1.26957e-12
1.27024e-12
1.31543e-12
1.37932e-12
1.46565e-12
1.52343e-12
1.53769e-12
2.87539e-12
1.70431e-12
2.31652e-12
1.21675e-12
1.22618e-12