/*--------------------------------*- C++ -*----------------------------------*\
| =========                 |                                                 |
| \\      /  F ield         | OpenFOAM: The Open Source CFD Toolbox           |
|  \\    /   O peration     | Version:  4.1                                   |
|   \\  /    A nd           | Web:      www.OpenFOAM.org                      |
|    \\/     M anipulation  |                                                 |
\*---------------------------------------------------------------------------*/
FoamFile
{
    version     2.0;
    format      ascii;
    class       volVectorField;
    location    "0.76";
    object      U;
}
// * * * * * * * * * * * * * * * * * * * * * * * * * * * * * * * * * * * * * //

dimensions      [0 1 -1 0 0 0 0];

internalField   nonuniform List<vector> 
18000
(
(8.64497e-14 3.86007e-13 -5.92338e-12)
(9.15689e-14 3.85413e-13 -5.85733e-12)
(8.25545e-14 -9.77628e-15 -5.79135e-12)
(7.37637e-14 -1.37034e-14 -5.72678e-12)
(6.52131e-14 -1.34404e-14 -5.66275e-12)
(5.68959e-14 -1.3073e-14 -5.59948e-12)
(4.88673e-14 -1.31004e-14 -5.5369e-12)
(4.11858e-14 -1.30989e-14 -5.47555e-12)
(3.3698e-14 -1.2876e-14 -5.41507e-12)
(2.65158e-14 -9.53662e-15 -5.35663e-12)
(1.2906e-13 3.97015e-13 -7.39002e-12)
(1.42038e-13 3.84399e-13 -7.13424e-12)
(1.24368e-13 -4.65426e-14 -6.88583e-12)
(1.0762e-13 -4.90709e-14 -6.64846e-12)
(9.21068e-14 -4.7404e-14 -6.42136e-12)
(7.76811e-14 -4.5534e-14 -6.20343e-12)
(6.41285e-14 -4.37831e-14 -5.99425e-12)
(5.1681e-14 -4.22743e-14 -5.79376e-12)
(3.9973e-14 -4.06651e-14 -5.60076e-12)
(2.91292e-14 -2.96858e-14 -5.41982e-12)
(1.42467e-13 3.99992e-13 -9.32788e-12)
(1.51267e-13 3.70522e-13 -8.77083e-12)
(1.25134e-13 -9.98612e-14 -8.24674e-12)
(1.01695e-13 -9.79396e-14 -7.76162e-12)
(8.09744e-14 -9.1448e-14 -7.31004e-12)
(6.26018e-14 -8.58439e-14 -6.89011e-12)
(4.62351e-14 -8.06334e-14 -6.50003e-12)
(3.16976e-14 -7.57656e-14 -6.13554e-12)
(1.87954e-14 -7.13367e-14 -5.79612e-12)
(7.39007e-15 -5.07829e-14 -5.48446e-12)
(1.93107e-13 3.88803e-13 -1.192e-11)
(1.93178e-13 3.35339e-13 -1.08857e-11)
(1.54544e-13 -1.76514e-13 -9.95034e-12)
(1.21621e-13 -1.64576e-13 -9.10863e-12)
(9.38873e-14 -1.49468e-13 -8.35299e-12)
(7.04003e-14 -1.36096e-13 -7.67229e-12)
(5.0647e-14 -1.24243e-13 -7.05788e-12)
(3.37586e-14 -1.1364e-13 -6.5024e-12)
(1.95277e-14 -1.03854e-13 -5.99924e-12)
(7.55142e-15 -7.24406e-14 -5.54994e-12)
(2.67678e-13 3.51574e-13 -1.54397e-11)
(2.50929e-13 2.64783e-13 -1.36517e-11)
(1.9333e-13 -2.87316e-13 -1.20989e-11)
(1.46762e-13 -2.56439e-13 -1.07513e-11)
(1.09572e-13 -2.25058e-13 -9.58288e-12)
(7.96955e-14 -1.98462e-13 -8.56496e-12)
(5.55864e-14 -1.7595e-13 -7.67562e-12)
(3.61095e-14 -1.56643e-13 -6.89662e-12)
(2.03395e-14 -1.39408e-13 -6.21129e-12)
(7.63273e-15 -9.50987e-14 -5.61662e-12)
(3.80395e-13 2.69003e-13 -2.02932e-11)
(3.3262e-13 1.34618e-13 -1.73139e-11)
(2.45322e-13 -4.49096e-13 -1.48362e-11)
(1.78849e-13 -3.83177e-13 -1.27674e-11)
(1.28755e-13 -3.24205e-13 -1.10395e-11)
(9.05025e-14 -2.76537e-13 -9.58715e-12)
(6.11781e-14 -2.37499e-13 -8.36092e-12)
(3.86083e-14 -2.05146e-13 -7.32027e-12)
(2.11885e-14 -1.77739e-13 -6.43244e-12)
(7.72605e-15 -1.18722e-13 -5.68435e-12)
(5.54581e-13 1.06848e-13 -2.70879e-11)
(4.49176e-13 -9.6467e-14 -2.22335e-11)
(3.14953e-13 -6.89132e-13 -1.83564e-11)
(2.19213e-13 -5.60212e-13 -1.52606e-11)
(1.5126e-13 -4.549e-13 -1.27742e-11)
(1.02233e-13 -3.74006e-13 -1.07619e-11)
(6.65531e-14 -3.10603e-13 -9.12182e-12)
(4.0446e-14 -2.6031e-13 -7.7759e-12)
(2.12153e-14 -2.19427e-13 -6.66369e-12)
(6.98764e-15 -1.43349e-13 -5.7531e-12)
(-2.36742e-12 -1.98502e-13 -3.68014e-11)
(-2.59284e-12 -5.02112e-13 -2.89345e-11)
(-2.63348e-12 -1.0489e-12 -2.29405e-11)
(-2.61507e-12 -8.09082e-13 -1.83728e-11)
(-2.56477e-12 -6.28074e-13 -1.48574e-11)
(-2.49699e-12 -4.96281e-13 -1.21231e-11)
(-2.42057e-12 -3.97622e-13 -9.97539e-12)
(-2.34072e-12 -3.2256e-13 -8.27287e-12)
(-2.26088e-12 -2.64362e-13 -6.91028e-12)
(-2.22044e-12 -1.69008e-13 -5.82862e-12)
(-5.74499e-09 -1.36201e-12 -8.62168e-11)
(-5.80512e-09 -1.26166e-12 -6.971e-11)
(-5.4714e-09 -1.15661e-12 -5.69825e-11)
(-5.16766e-09 -7.50163e-13 -4.72946e-11)
(-4.89311e-09 -4.81852e-13 -3.98139e-11)
(-4.64427e-09 -3.03119e-13 -3.39385e-11)
(-4.41803e-09 -1.82219e-13 -2.92557e-11)
(-4.2117e-09 -1.00045e-13 -2.54729e-11)
(-4.02338e-09 -1.42892e-13 -2.23786e-11)
(-3.94232e-09 -2.84141e-13 -2.00853e-11)
(6.26321e-07 -1.3773e-09 -6.75794e-08)
(3.46355e-08 -2.46788e-10 -5.93379e-08)
(2.68524e-08 8.0132e-10 -5.2185e-08)
(2.2235e-08 7.35522e-10 -4.61867e-08)
(1.83149e-08 6.68817e-10 -4.11195e-08)
(1.49559e-08 6.09045e-10 -3.68112e-08)
(1.20562e-08 5.55815e-10 -3.31239e-08)
(9.53428e-09 5.07279e-10 -2.99482e-08)
(6.88684e-09 2.21236e-10 -2.71994e-08)
(-1.09955e-07 -2.56407e-10 -2.54027e-08)
(2.55914e-13 3.65248e-13 -6.32611e-12)
(2.40267e-13 3.44645e-13 -6.25339e-12)
(2.1095e-13 -5.02127e-14 -6.18099e-12)
(1.8267e-13 -5.36188e-14 -6.10936e-12)
(1.55518e-13 -5.30849e-14 -6.03911e-12)
(1.29323e-13 -5.2385e-14 -5.96999e-12)
(1.04117e-13 -5.18949e-14 -5.90066e-12)
(7.99128e-14 -5.12902e-14 -5.83357e-12)
(5.64531e-14 -5.01381e-14 -5.76718e-12)
(3.44009e-14 -2.91455e-14 -5.70249e-12)
(5.11468e-13 3.19858e-13 -7.94647e-12)
(4.72467e-13 2.35241e-13 -7.66303e-12)
(4.05345e-13 -1.91579e-13 -7.38736e-12)
(3.42529e-13 -1.88732e-13 -7.12479e-12)
(2.83912e-13 -1.82229e-13 -6.87405e-12)
(2.2922e-13 -1.7594e-13 -6.63335e-12)
(1.78182e-13 -1.6981e-13 -6.40353e-12)
(1.30471e-13 -1.64261e-13 -6.1827e-12)
(8.58529e-14 -1.57131e-13 -5.97135e-12)
(4.48229e-14 -8.94176e-14 -5.772e-12)
(6.25974e-13 2.38927e-13 -1.01117e-11)
(5.57968e-13 6.47704e-14 -9.48567e-12)
(4.62397e-13 -3.89533e-13 -8.90078e-12)
(3.76372e-13 -3.70331e-13 -8.35886e-12)
(2.99705e-13 -3.48269e-13 -7.85737e-12)
(2.31242e-13 -3.27558e-13 -7.39196e-12)
(1.70023e-13 -3.08711e-13 -6.96083e-12)
(1.15286e-13 -2.91262e-13 -6.55913e-12)
(6.64619e-14 -2.72643e-13 -6.18542e-12)
(2.33394e-14 -1.52934e-13 -5.84372e-12)
(8.1108e-13 1.02473e-13 -1.3043e-11)
(6.97729e-13 -1.95845e-13 -1.18674e-11)
(5.61424e-13 -6.66019e-13 -1.08116e-11)
(4.43939e-13 -6.13173e-13 -9.86476e-12)
(3.43897e-13 -5.60449e-13 -9.01882e-12)
(2.58269e-13 -5.136e-13 -8.26007e-12)
(1.85034e-13 -4.71515e-13 -7.57854e-12)
(1.22431e-13 -4.33568e-13 -6.96473e-12)
(6.88122e-14 -3.96128e-13 -6.40917e-12)
(2.37174e-14 -2.18779e-13 -5.91539e-12)
(1.06709e-12 -1.2164e-13 -1.70817e-11)
(8.83057e-13 -5.92367e-13 -1.50217e-11)
(6.87701e-13 -1.05238e-12 -1.32478e-11)
(5.27212e-13 -9.37568e-13 -1.1717e-11)
(3.96388e-13 -8.31924e-13 -1.03985e-11)
(2.89417e-13 -7.41014e-13 -9.2573e-12)
(2.01892e-13 -6.61985e-13 -8.26536e-12)
(1.30203e-13 -5.93345e-13 -7.40064e-12)
(7.13879e-14 -5.29102e-13 -6.64325e-12)
(2.40454e-14 -2.8754e-13 -5.98938e-12)
(1.42648e-12 -4.83549e-13 -2.27503e-11)
(1.13335e-12 -1.19318e-12 -1.9257e-11)
(8.50728e-13 -1.59495e-12 -1.63885e-11)
(6.30464e-13 -1.37233e-12 -1.40113e-11)
(4.59145e-13 -1.17948e-12 -1.20448e-11)
(3.25324e-13 -1.01945e-12 -1.04053e-11)
(2.20597e-13 -8.85314e-13 -9.03123e-12)
(1.38474e-13 -7.72566e-13 -7.87211e-12)
(7.41135e-14 -6.7177e-13 -6.88906e-12)
(2.43543e-14 -3.58928e-13 -6.06512e-12)
(1.94366e-12 -1.06081e-12 -3.08552e-11)
(1.47505e-12 -2.10401e-12 -2.50441e-11)
(1.06319e-12 -2.36422e-12 -2.04831e-11)
(7.59237e-13 -1.95709e-12 -1.68779e-11)
(5.34312e-13 -1.62557e-12 -1.40215e-11)
(3.66752e-13 -1.3609e-12 -1.1733e-11)
(2.41367e-13 -1.1472e-12 -9.88479e-12)
(1.47414e-13 -9.73558e-13 -8.38109e-12)
(7.6857e-14 -8.25176e-13 -7.14549e-12)
(2.4692e-14 -4.33611e-13 -6.14245e-12)
(2.66144e-12 -1.9993e-12 -4.27406e-11)
(1.76844e-12 -3.50213e-12 -3.30874e-11)
(1.18442e-12 -3.46015e-12 -2.58989e-11)
(7.79773e-13 -2.74789e-12 -2.0502e-11)
(4.96973e-13 -2.1993e-12 -1.64175e-11)
(2.97359e-13 -1.77999e-12 -1.32822e-11)
(1.55613e-13 -1.45444e-12 -1.08488e-11)
(5.4709e-14 -1.19926e-12 -8.93763e-12)
(-1.73248e-14 -9.8993e-13 -7.42034e-12)
(-6.8274e-14 -5.11039e-13 -6.22678e-12)
(-1.94153e-10 -4.58658e-12 -9.82003e-11)
(-4.85285e-10 -6.56547e-12 -7.79228e-11)
(-4.00117e-10 -5.46182e-12 -6.27291e-11)
(-3.31317e-10 -4.20856e-12 -5.14238e-11)
(-2.77284e-10 -3.29376e-12 -4.28761e-11)
(-2.3426e-10 -2.62032e-12 -3.62745e-11)
(-1.99622e-10 -2.11429e-12 -3.10856e-11)
(-1.71451e-10 -1.72874e-12 -2.69425e-11)
(-1.48356e-10 -1.42389e-12 -2.35842e-11)
(-1.31133e-10 -8.43846e-13 -2.1103e-11)
(4.32507e-07 -2.32729e-09 -7.41257e-08)
(-8.29683e-09 -1.84284e-09 -6.45779e-08)
(-9.30826e-09 -7.30379e-10 -5.6169e-08)
(-8.67494e-09 -6.67044e-10 -4.92608e-08)
(-8.0684e-09 -6.15194e-10 -4.35272e-08)
(-7.50985e-09 -5.66689e-10 -3.87222e-08)
(-7.00326e-09 -5.2217e-10 -3.46592e-08)
(-6.54854e-09 -4.81698e-10 -3.11951e-08)
(-6.17461e-09 -4.50061e-10 -2.82226e-08)
(-8.78529e-09 -4.7092e-10 -2.62629e-08)
(2.31634e-13 3.68924e-13 -4.16092e-13)
(2.18509e-13 3.46135e-13 -4.08823e-13)
(1.91562e-13 -4.89689e-14 -4.01454e-13)
(1.65885e-13 -5.23864e-14 -3.94011e-13)
(1.4127e-13 -5.14647e-14 -3.86886e-13)
(1.17532e-13 -5.10575e-14 -3.80028e-13)
(9.50899e-14 -5.0603e-14 -3.73051e-13)
(7.33968e-14 -4.97569e-14 -3.66902e-13)
(5.2633e-14 -4.88911e-14 -3.6057e-13)
(3.31833e-14 -2.57521e-14 -3.54411e-13)
(5.03567e-13 3.33132e-13 -5.76998e-13)
(4.64756e-13 2.39077e-13 -5.47526e-13)
(3.98224e-13 -1.87862e-13 -5.18613e-13)
(3.35994e-13 -1.8464e-13 -4.91442e-13)
(2.78211e-13 -1.78168e-13 -4.66547e-13)
(2.2438e-13 -1.7164e-13 -4.43297e-13)
(1.74446e-13 -1.65432e-13 -4.20459e-13)
(1.27782e-13 -1.59814e-13 -3.99227e-13)
(8.4227e-14 -1.52739e-13 -3.80532e-13)
(4.4531e-14 -7.96397e-14 -3.61378e-13)
(6.22859e-13 2.64231e-13 -8.16353e-13)
(5.53447e-13 6.89863e-14 -7.4361e-13)
(4.57467e-13 -3.84738e-13 -6.78793e-13)
(3.71238e-13 -3.65059e-13 -6.19473e-13)
(2.94802e-13 -3.42039e-13 -5.66688e-13)
(2.26949e-13 -3.20976e-13 -5.18439e-13)
(1.66517e-13 -3.01729e-13 -4.75283e-13)
(1.12858e-13 -2.84224e-13 -4.36509e-13)
(6.48522e-14 -2.65162e-13 -4.00575e-13)
(2.29964e-14 -1.36014e-13 -3.69459e-13)
(8.17143e-13 1.4427e-13 -1.17533e-12)
(6.99407e-13 -1.95773e-13 -1.02673e-12)
(5.60285e-13 -6.63328e-13 -8.98663e-13)
(4.41228e-13 -6.08639e-13 -7.87246e-13)
(3.40394e-13 -5.53961e-13 -6.92015e-13)
(2.5479e-13 -5.05528e-13 -6.10025e-13)
(1.81971e-13 -4.62247e-13 -5.39376e-13)
(1.20064e-13 -4.24209e-13 -4.7805e-13)
(6.73822e-14 -3.86352e-13 -4.24114e-13)
(2.33738e-14 -1.9544e-13 -3.77472e-13)
(1.09088e-12 -5.89769e-14 -1.73018e-12)
(8.95393e-13 -6.05695e-13 -1.44061e-12)
(6.93173e-13 -1.05832e-12 -1.20568e-12)
(5.28129e-13 -9.38089e-13 -1.01131e-12)
(3.94966e-13 -8.27503e-13 -8.52145e-13)
(2.87041e-13 -7.33236e-13 -7.21788e-13)
(1.99419e-13 -6.52153e-13 -6.14062e-13)
(1.28102e-13 -5.82161e-13 -5.24566e-13)
(7.02193e-14 -5.16481e-13 -4.49377e-13)
(2.39457e-14 -2.57022e-13 -3.87596e-13)
(1.48265e-12 -3.97423e-13 -2.60824e-12)
(1.16444e-12 -1.23937e-12 -2.05842e-12)
(8.66925e-13 -1.62136e-12 -1.64007e-12)
(6.36921e-13 -1.38547e-12 -1.31047e-12)
(4.60679e-13 -1.1815e-12 -1.05702e-12)
(3.24353e-13 -1.01421e-12 -8.58501e-13)
(2.18784e-13 -8.75522e-13 -7.02462e-13)
(1.36909e-13 -7.60059e-13 -5.78359e-13)
(7.3058e-14 -6.56971e-13 -4.76882e-13)
(2.44102e-14 -3.22244e-13 -3.98069e-13)
(2.05894e-12 -9.50552e-13 -4.03187e-12)
(1.53882e-12 -2.2198e-12 -2.99912e-12)
(1.09683e-12 -2.43373e-12 -2.26206e-12)
(7.74798e-13 -1.99571e-12 -1.7163e-12)
(5.40362e-13 -1.64069e-12 -1.32025e-12)
(3.67983e-13 -1.36218e-12 -1.026e-12)
(2.40671e-13 -1.13934e-12 -8.05763e-13)
(1.4627e-13 -9.60803e-13 -6.38235e-13)
(7.59628e-14 -8.08658e-13 -5.07725e-13)
(2.48369e-14 -3.90098e-13 -4.1016e-13)
(3.09362e-12 -1.87414e-12 -6.4166e-12)
(2.0743e-12 -3.75884e-12 -4.46544e-12)
(1.4072e-12 -3.61192e-12 -3.17114e-12)
(9.51302e-13 -2.8331e-12 -2.27507e-12)
(6.3723e-13 -2.23915e-12 -1.66363e-12)
(4.18171e-13 -1.79295e-12 -1.23424e-12)
(2.64073e-13 -1.45143e-12 -9.28257e-13)
(1.55094e-13 -1.18777e-12 -7.06064e-13)
(7.76991e-14 -9.72265e-13 -5.42452e-13)
(2.37519e-14 -4.61392e-13 -4.22708e-13)
(3.42633e-10 -3.94581e-12 -1.29087e-11)
(-1.61711e-11 -6.69336e-12 -8.72009e-12)
(-1.34577e-11 -5.40914e-12 -6.06858e-12)
(-9.7992e-12 -4.04064e-12 -4.34379e-12)
(-7.29354e-12 -3.06287e-12 -3.21134e-12)
(-5.53042e-12 -2.36346e-12 -2.44386e-12)
(-4.26582e-12 -1.85078e-12 -1.91068e-12)
(-3.34323e-12 -1.47008e-12 -1.53183e-12)
(-2.65822e-12 -1.17261e-12 -1.25512e-12)
(-2.13299e-12 -5.57822e-13 -1.05839e-12)
(3.74792e-07 -1.26304e-09 -7.02326e-09)
(7.40352e-10 -1.14075e-09 -5.47425e-09)
(-5.4449e-10 -1.46159e-10 -4.13717e-09)
(-4.45716e-10 -1.08864e-10 -3.17639e-09)
(-3.63323e-10 -8.62737e-11 -2.47788e-09)
(-2.99544e-10 -6.91186e-11 -1.96018e-09)
(-2.49235e-10 -5.59639e-11 -1.57033e-09)
(-2.09268e-10 -4.57578e-11 -1.27249e-09)
(-1.78482e-10 -3.77268e-11 -1.04213e-09)
(-2.02301e-10 -3.25865e-11 -8.74324e-10)
(2.26807e-13 3.69486e-13 -1.83731e-14)
(2.14219e-13 3.46324e-13 -1.74823e-14)
(1.87833e-13 -4.87028e-14 -1.5196e-14)
(1.6259e-13 -5.21161e-14 -1.41615e-14)
(1.38563e-13 -5.14496e-14 -1.25633e-14)
(1.15529e-13 -5.0795e-14 -1.14913e-14)
(9.34001e-14 -5.01204e-14 -1.03682e-14)
(7.22154e-14 -4.93537e-14 -9.14264e-15)
(5.20366e-14 -4.83014e-14 -8.66659e-15)
(3.30157e-14 -2.51785e-14 -8.76094e-15)
(4.9804e-13 3.35764e-13 -2.78933e-14)
(4.60033e-13 2.40992e-13 -2.5095e-14)
(3.94235e-13 -1.8619e-13 -2.28646e-14)
(3.32735e-13 -1.82973e-13 -1.98461e-14)
(2.7561e-13 -1.76071e-13 -1.71929e-14)
(2.22396e-13 -1.70051e-13 -1.56794e-14)
(1.72981e-13 -1.64137e-13 -1.35089e-14)
(1.26866e-13 -1.57926e-13 -1.20317e-14)
(8.37811e-14 -1.50894e-13 -1.09176e-14)
(4.45076e-14 -7.76729e-14 -1.01141e-14)
(6.15519e-13 2.70649e-13 -4.45604e-14)
(5.47573e-13 7.34351e-14 -3.94679e-14)
(4.52638e-13 -3.80489e-13 -3.38631e-14)
(3.67427e-13 -3.60981e-13 -2.89313e-14)
(2.91863e-13 -3.3859e-13 -2.50777e-14)
(2.24704e-13 -3.17725e-13 -2.1475e-14)
(1.65102e-13 -2.98451e-13 -1.81156e-14)
(1.12014e-13 -2.81169e-13 -1.59865e-14)
(6.45766e-14 -2.62274e-13 -1.39552e-14)
(2.3146e-14 -1.32698e-13 -1.30001e-14)
(8.07558e-13 1.57297e-13 -7.2733e-14)
(6.91858e-13 -1.87004e-13 -6.29968e-14)
(5.54503e-13 -6.56016e-13 -5.26614e-14)
(4.36756e-13 -6.01926e-13 -4.37253e-14)
(3.37078e-13 -5.47754e-13 -3.63921e-14)
(2.52502e-13 -4.99982e-13 -3.08935e-14)
(1.80558e-13 -4.57334e-13 -2.57273e-14)
(1.19388e-13 -4.19405e-13 -2.16255e-14)
(6.73451e-14 -3.82001e-13 -1.90405e-14)
(2.37973e-14 -1.91278e-13 -1.65714e-14)
(1.07835e-12 -3.56502e-14 -1.24139e-13)
(8.85966e-13 -5.91029e-13 -1.02474e-13)
(6.86207e-13 -1.04586e-12 -8.25519e-14)
(5.23034e-13 -9.27523e-13 -6.60562e-14)
(3.91457e-13 -8.18417e-13 -5.36837e-14)
(2.84725e-13 -7.25106e-13 -4.328e-14)
(1.9813e-13 -6.44769e-13 -3.55339e-14)
(1.27726e-13 -5.75687e-13 -3.06262e-14)
(7.01308e-14 -5.10929e-13 -2.67174e-14)
(2.4462e-14 -2.51669e-13 -2.24681e-14)
(1.466e-12 -3.55669e-13 -2.15938e-13)
(1.15257e-12 -1.21578e-12 -1.68504e-13)
(8.58465e-13 -1.60258e-12 -1.30875e-13)
(6.31177e-13 -1.36989e-12 -1.00975e-13)
(4.56927e-13 -1.16828e-12 -7.92773e-14)
(3.22143e-13 -1.00314e-12 -6.32782e-14)
(2.17759e-13 -8.65861e-13 -5.08298e-14)
(1.36592e-13 -7.52451e-13 -4.18796e-14)
(7.3272e-14 -6.50572e-13 -3.38934e-14)
(2.50294e-14 -3.1549e-13 -2.88488e-14)
(2.03716e-12 -8.77457e-13 -3.79723e-13)
(1.52356e-12 -2.18366e-12 -2.8099e-13)
(1.08669e-12 -2.4054e-12 -2.05994e-13)
(7.6828e-13 -1.97346e-12 -1.54081e-13)
(5.36418e-13 -1.62296e-12 -1.16257e-13)
(3.659e-13 -1.34752e-12 -8.96549e-14)
(2.39726e-13 -1.12754e-12 -7.04274e-14)
(1.46079e-13 -9.51575e-13 -5.62876e-14)
(7.6654e-14 -8.01093e-13 -4.54521e-14)
(2.56422e-14 -3.82757e-13 -3.70328e-14)
(3.06918e-12 -1.74696e-12 -6.85317e-13)
(2.05286e-12 -3.70519e-12 -4.69503e-13)
(1.39367e-12 -3.57094e-12 -3.27286e-13)
(9.43593e-13 -2.8026e-12 -2.31871e-13)
(6.33488e-13 -2.21539e-12 -1.69098e-13)
(4.1705e-13 -1.77497e-12 -1.25752e-13)
(2.64541e-13 -1.43762e-12 -9.51469e-14)
(1.56667e-13 -1.17661e-12 -7.38488e-14)
(7.99824e-14 -9.63894e-13 -5.88958e-14)
(2.64532e-14 -4.53372e-13 -4.68973e-14)
(3.81676e-10 -3.66423e-12 -1.40519e-12)
(4.75423e-12 -6.56387e-12 -7.70729e-13)
(1.38728e-12 -5.29342e-12 -5.05978e-13)
(8.98141e-13 -3.95119e-12 -3.48236e-13)
(5.78944e-13 -2.99256e-12 -2.47375e-13)
(3.6162e-13 -2.30723e-12 -1.82001e-13)
(2.13931e-13 -1.80504e-12 -1.37426e-13)
(1.13227e-13 -1.43207e-12 -1.06645e-13)
(4.44079e-14 -1.14032e-12 -8.45929e-14)
(-8.07322e-16 -5.27863e-13 -6.89507e-14)
(3.72198e-07 -1.08402e-09 -7.33627e-10)
(1.41365e-09 -1.00686e-09 -2.44962e-10)
(-1.6578e-11 -2.26076e-11 -1.58132e-10)
(-1.44482e-11 -1.09131e-11 -1.05329e-10)
(-1.03305e-11 -7.71886e-12 -7.20507e-11)
(-7.55234e-12 -5.59612e-12 -5.03872e-11)
(-5.6171e-12 -4.13213e-12 -3.59519e-11)
(-4.24622e-12 -3.10612e-12 -2.61321e-11)
(-3.28619e-12 -2.36022e-12 -1.93124e-11)
(-3.15536e-12 -1.39918e-12 -1.44402e-11)
(2.27037e-13 3.69387e-13 -1.12898e-14)
(2.14348e-13 3.45707e-13 -1.01715e-14)
(1.88077e-13 -4.94605e-14 -7.70121e-15)
(1.62765e-13 -5.26207e-14 -5.5783e-15)
(1.3866e-13 -5.17269e-14 -4.39764e-15)
(1.15496e-13 -5.11475e-14 -3.27601e-15)
(9.35281e-14 -5.07711e-14 -2.60558e-15)
(7.24002e-14 -4.96789e-14 -1.56408e-15)
(5.21254e-14 -4.82974e-14 -4.83722e-16)
(3.31119e-14 -2.5407e-14 -4.6541e-16)
(4.98793e-13 3.35467e-13 -1.62902e-14)
(4.60687e-13 2.40489e-13 -1.44891e-14)
(3.94854e-13 -1.86698e-13 -1.12313e-14)
(3.33161e-13 -1.83813e-13 -9.54855e-15)
(2.76011e-13 -1.76905e-13 -6.54326e-15)
(2.22708e-13 -1.70337e-13 -4.78665e-15)
(1.73284e-13 -1.64267e-13 -4.16217e-15)
(1.27241e-13 -1.5838e-13 -3.54723e-15)
(8.41288e-14 -1.51153e-13 -2.50482e-15)
(4.48931e-14 -7.76576e-14 -1.47199e-15)
(6.16897e-13 2.70346e-13 -2.66736e-14)
(5.48858e-13 7.25932e-14 -2.36838e-14)
(4.53701e-13 -3.81741e-13 -1.92807e-14)
(3.68327e-13 -3.6203e-13 -1.51688e-14)
(2.92679e-13 -3.39075e-13 -1.22205e-14)
(2.25498e-13 -3.1834e-13 -9.74078e-15)
(1.65703e-13 -2.98992e-13 -7.82982e-15)
(1.12575e-13 -2.81394e-13 -6.54624e-15)
(6.5137e-14 -2.62264e-13 -5.99287e-15)
(2.36938e-14 -1.32832e-13 -5.36748e-15)
(8.1003e-13 1.56808e-13 -4.57074e-14)
(6.94166e-13 -1.88315e-13 -3.98877e-14)
(5.56386e-13 -6.57484e-13 -3.31382e-14)
(4.38389e-13 -6.03397e-13 -2.70105e-14)
(3.38486e-13 -5.48901e-13 -2.20056e-14)
(2.53636e-13 -5.00899e-13 -1.8098e-14)
(1.81573e-13 -4.58164e-13 -1.53719e-14)
(1.20371e-13 -4.20062e-13 -1.30684e-14)
(6.83103e-14 -3.82377e-13 -1.12549e-14)
(2.45277e-14 -1.90995e-13 -1.06082e-14)
(1.08275e-12 -3.62732e-14 -8.01901e-14)
(8.89722e-13 -5.9356e-13 -6.94827e-14)
(6.89324e-13 -1.049e-12 -5.63448e-14)
(5.25602e-13 -9.29964e-13 -4.55713e-14)
(3.93612e-13 -8.20382e-13 -3.7924e-14)
(2.86578e-13 -7.26975e-13 -3.12529e-14)
(1.99708e-13 -6.45921e-13 -2.55883e-14)
(1.29056e-13 -5.76209e-13 -2.22118e-14)
(7.14102e-14 -5.11705e-13 -1.94951e-14)
(2.5521e-14 -2.52228e-13 -1.68057e-14)
(1.47337e-12 -3.57787e-13 -1.41925e-13)
(1.15873e-12 -1.22097e-12 -1.18154e-13)
(8.63336e-13 -1.60748e-12 -9.44016e-14)
(6.35196e-13 -1.37429e-12 -7.55529e-14)
(4.60129e-13 -1.1717e-12 -6.10434e-14)
(3.24853e-13 -1.00595e-12 -5.07292e-14)
(2.19979e-13 -8.68334e-13 -4.10346e-14)
(1.38442e-13 -7.54145e-13 -3.44449e-14)
(7.47701e-14 -6.51967e-13 -2.99867e-14)
(2.63289e-14 -3.16272e-13 -2.54841e-14)
(2.04951e-12 -8.81203e-13 -2.5225e-13)
(1.5336e-12 -2.19395e-12 -2.02651e-13)
(1.09418e-12 -2.41506e-12 -1.5633e-13)
(7.74082e-13 -1.98104e-12 -1.21272e-13)
(5.41022e-13 -1.6291e-12 -9.66643e-14)
(3.69448e-13 -1.35256e-12 -7.72511e-14)
(2.42625e-13 -1.13144e-12 -6.22421e-14)
(1.48496e-13 -9.5448e-13 -5.14155e-14)
(7.85391e-14 -8.03777e-13 -4.31499e-14)
(2.72793e-14 -3.84224e-13 -3.62689e-14)
(3.09902e-12 -1.75472e-12 -4.5182e-13)
(2.06837e-12 -3.72578e-12 -3.44582e-13)
(1.40502e-12 -3.58854e-12 -2.53834e-13)
(9.52198e-13 -2.81599e-12 -1.91267e-13)
(6.39988e-13 -2.22598e-12 -1.46917e-13)
(4.22021e-13 -1.7832e-12 -1.14517e-13)
(2.6842e-13 -1.44397e-12 -9.07387e-14)
(1.59635e-13 -1.18175e-12 -7.2862e-14)
(8.22497e-14 -9.67914e-13 -5.9369e-14)
(2.828e-14 -4.55719e-13 -4.98962e-14)
(4.02692e-10 -3.7106e-12 -1.0125e-12)
(5.65417e-12 -6.62881e-12 -5.82812e-13)
(1.82e-12 -5.32468e-12 -4.09633e-13)
(1.17043e-12 -3.97411e-12 -2.97198e-13)
(7.53494e-13 -3.00997e-12 -2.19999e-13)
(4.77419e-13 -2.32035e-12 -1.66188e-13)
(2.92552e-13 -1.81497e-12 -1.26941e-13)
(1.67777e-13 -1.43974e-12 -9.97325e-14)
(8.27716e-14 -1.14631e-12 -7.89362e-14)
(2.61638e-14 -5.30916e-13 -6.38973e-14)
(3.94827e-07 -1.14201e-09 -5.70755e-10)
(1.59561e-09 -1.04742e-09 -1.35656e-11)
(5.1282e-12 -1.55711e-11 -5.04762e-12)
(7.58102e-13 -5.78513e-12 -2.98756e-12)
(5.1328e-13 -4.1443e-12 -1.82513e-12)
(3.53488e-13 -3.05385e-12 -1.16206e-12)
(2.39948e-13 -2.29536e-12 -7.63656e-13)
(1.60008e-13 -1.75785e-12 -5.16209e-13)
(1.03071e-13 -1.3567e-12 -3.56226e-13)
(5.83632e-14 -6.22507e-13 -2.49589e-13)
(2.27549e-13 3.69045e-13 -1.38267e-14)
(2.14812e-13 3.44928e-13 -1.16262e-14)
(1.88321e-13 -5.04937e-14 -9.69054e-15)
(1.63097e-13 -5.33967e-14 -6.71306e-15)
(1.3881e-13 -5.23382e-14 -5.15223e-15)
(1.15672e-13 -5.14764e-14 -2.9626e-15)
(9.35678e-14 -5.0772e-14 -2.1305e-15)
(7.24711e-14 -5.01741e-14 -1.39098e-15)
(5.23167e-14 -4.87147e-14 -7.00479e-16)
(3.3162e-14 -2.51785e-14 -1.09695e-15)
(5.00103e-13 3.35075e-13 -2.01995e-14)
(4.61867e-13 2.39121e-13 -1.7984e-14)
(3.95741e-13 -1.87974e-13 -1.29752e-14)
(3.34004e-13 -1.84689e-13 -1.05771e-14)
(2.76648e-13 -1.77824e-13 -8.07027e-15)
(2.23249e-13 -1.70886e-13 -5.79549e-15)
(1.73682e-13 -1.64537e-13 -4.25363e-15)
(1.27565e-13 -1.585e-13 -3.41544e-15)
(8.45928e-14 -1.51652e-13 -3.19581e-15)
(4.52498e-14 -7.80875e-14 -2.57659e-15)
(6.19283e-13 2.69541e-13 -3.23678e-14)
(5.50896e-13 7.08647e-14 -2.8785e-14)
(4.55528e-13 -3.8347e-13 -2.30865e-14)
(3.69756e-13 -3.6347e-13 -1.8782e-14)
(2.9395e-13 -3.40484e-13 -1.44791e-14)
(2.26532e-13 -3.19251e-13 -1.13489e-14)
(1.66678e-13 -2.99561e-13 -9.3149e-15)
(1.1339e-13 -2.81788e-13 -8.34337e-15)
(6.58766e-14 -2.62659e-13 -7.3568e-15)
(2.45357e-14 -1.33247e-13 -6.47118e-15)
(8.14149e-13 1.55107e-13 -5.62958e-14)
(6.97627e-13 -1.91171e-13 -4.84827e-14)
(5.59281e-13 -6.60357e-13 -3.98425e-14)
(4.40766e-13 -6.05736e-13 -3.23297e-14)
(3.40541e-13 -5.5084e-13 -2.62067e-14)
(2.5546e-13 -5.02277e-13 -2.11704e-14)
(1.83074e-13 -4.59118e-13 -1.81908e-14)
(1.21671e-13 -4.20921e-13 -1.60449e-14)
(6.93583e-14 -3.8292e-13 -1.44448e-14)
(2.55378e-14 -1.91347e-13 -1.25024e-14)
(1.08958e-12 -3.96683e-14 -9.85777e-14)
(8.95455e-13 -5.98655e-13 -8.37308e-14)
(6.93894e-13 -1.05372e-12 -6.8374e-14)
(5.29334e-13 -9.33773e-13 -5.57258e-14)
(3.9669e-13 -8.2345e-13 -4.62362e-14)
(2.89238e-13 -7.29605e-13 -3.86959e-14)
(2.01769e-13 -6.48143e-13 -3.18523e-14)
(1.3083e-13 -5.78019e-13 -2.71527e-14)
(7.29108e-14 -5.13011e-13 -2.29471e-14)
(2.67264e-14 -2.52873e-13 -2.07382e-14)
(1.48481e-12 -3.64144e-13 -1.72179e-13)
(1.16799e-12 -1.2304e-12 -1.44111e-13)
(8.70561e-13 -1.61616e-12 -1.14468e-13)
(6.4073e-13 -1.38099e-12 -9.13044e-14)
(4.64638e-13 -1.17694e-12 -7.44734e-14)
(3.28413e-13 -1.01046e-12 -6.18524e-14)
(2.2291e-13 -8.72006e-13 -5.05207e-14)
(1.4081e-13 -7.56799e-13 -4.21495e-14)
(7.67864e-14 -6.54292e-13 -3.62068e-14)
(2.79916e-14 -3.17535e-13 -3.16024e-14)
(2.06881e-12 -8.94418e-13 -3.05054e-13)
(1.54839e-12 -2.21158e-12 -2.44286e-13)
(1.10527e-12 -2.43051e-12 -1.89778e-13)
(7.82478e-13 -1.99293e-12 -1.48102e-13)
(5.47489e-13 -1.63826e-12 -1.18276e-13)
(3.74468e-13 -1.3601e-12 -9.49594e-14)
(2.46651e-13 -1.13747e-12 -7.71287e-14)
(1.51597e-13 -9.59218e-13 -6.24279e-14)
(8.10066e-14 -8.07484e-13 -5.261e-14)
(2.93539e-14 -3.86313e-13 -4.47033e-14)
(3.13996e-12 -1.78111e-12 -5.43113e-13)
(2.09226e-12 -3.75968e-12 -4.16011e-13)
(1.42191e-12 -3.6162e-12 -3.09608e-13)
(9.64513e-13 -2.83665e-12 -2.34296e-13)
(6.49001e-13 -2.24158e-12 -1.80718e-13)
(4.2881e-13 -1.79544e-12 -1.41844e-13)
(2.73483e-13 -1.45378e-12 -1.12856e-13)
(1.63574e-13 -1.18933e-12 -8.92564e-14)
(8.52661e-14 -9.73693e-13 -7.25239e-14)
(3.06529e-14 -4.58884e-13 -6.07953e-14)
(4.28533e-10 -3.76577e-12 -9.37531e-13)
(5.94528e-12 -6.7152e-12 -7.05047e-13)
(1.85728e-12 -5.37458e-12 -5.03028e-13)
(1.19373e-12 -4.00966e-12 -3.64941e-13)
(7.69176e-13 -3.03608e-12 -2.71482e-13)
(4.8828e-13 -2.34022e-12 -2.0538e-13)
(3.00322e-13 -1.83001e-12 -1.57623e-13)
(1.73416e-13 -1.45109e-12 -1.22689e-13)
(8.68788e-14 -1.15521e-12 -9.74245e-14)
(2.92024e-14 -5.35922e-13 -7.90112e-14)
(4.31001e-07 -1.20216e-09 -3.96802e-10)
(1.73215e-09 -1.11365e-09 -1.94336e-12)
(6.48625e-12 -1.59754e-11 -9.11295e-13)
(1.17348e-12 -5.67907e-12 -6.16576e-13)
(7.75348e-13 -4.08443e-12 -4.29437e-13)
(5.20447e-13 -3.02053e-12 -3.08634e-13)
(3.50123e-13 -2.27709e-12 -2.27595e-13)
(2.34285e-13 -1.74809e-12 -1.70051e-13)
(1.54512e-13 -1.35171e-12 -1.29934e-13)
(9.99585e-14 -6.17481e-13 -1.01929e-13)
(2.28222e-13 3.68489e-13 -1.60387e-14)
(2.15475e-13 3.44063e-13 -1.4017e-14)
(1.88691e-13 -5.14056e-14 -1.072e-14)
(1.63441e-13 -5.44208e-14 -8.4307e-15)
(1.39154e-13 -5.32192e-14 -6.2903e-15)
(1.15951e-13 -5.23477e-14 -4.25696e-15)
(9.38551e-14 -5.13957e-14 -2.68312e-15)
(7.27326e-14 -5.02601e-14 -3.4044e-15)
(5.25803e-14 -4.84782e-14 -9.97815e-15)
(3.34142e-14 -2.5388e-14 -2.86331e-14)
(5.01701e-13 3.34447e-13 -2.40957e-14)
(4.63318e-13 2.37681e-13 -2.031e-14)
(3.96917e-13 -1.89572e-13 -1.62045e-14)
(3.34993e-13 -1.85737e-13 -1.27126e-14)
(2.77456e-13 -1.78801e-13 -1.02234e-14)
(2.23999e-13 -1.71861e-13 -7.59222e-15)
(1.74386e-13 -1.65231e-13 -6.1355e-15)
(1.28309e-13 -1.58833e-13 -5.4458e-15)
(8.51776e-14 -1.51587e-13 -7.63909e-15)
(4.57682e-14 -7.84965e-14 -2.14638e-14)
(6.2216e-13 2.68571e-13 -3.85063e-14)
(5.53286e-13 6.9021e-14 -3.26645e-14)
(4.57612e-13 -3.85544e-13 -2.62515e-14)
(3.71529e-13 -3.65357e-13 -2.13714e-14)
(2.95366e-13 -3.41978e-13 -1.71936e-14)
(2.27807e-13 -3.2042e-13 -1.43804e-14)
(1.67804e-13 -3.00255e-13 -1.18895e-14)
(1.14501e-13 -2.82285e-13 -1.1119e-14)
(6.68784e-14 -2.63206e-13 -1.25216e-14)
(2.52477e-14 -1.33923e-13 -1.96775e-14)
(8.19134e-13 1.52987e-13 -6.55614e-14)
(7.01767e-13 -1.94503e-13 -5.52861e-14)
(5.62727e-13 -6.63543e-13 -4.53405e-14)
(4.43636e-13 -6.08604e-13 -3.71575e-14)
(3.43064e-13 -5.5327e-13 -3.08532e-14)
(2.57648e-13 -5.0418e-13 -2.64677e-14)
(1.8493e-13 -4.6039e-13 -2.28656e-14)
(1.23206e-13 -4.2177e-13 -2.00511e-14)
(7.06994e-14 -3.84099e-13 -1.95128e-14)
(2.67328e-14 -1.92336e-13 -2.26822e-14)
(1.09785e-12 -4.36919e-14 -1.14926e-13)
(9.02323e-13 -6.04599e-13 -9.55501e-14)
(6.99383e-13 -1.05929e-12 -7.75045e-14)
(5.33752e-13 -9.38356e-13 -6.37283e-14)
(4.00425e-13 -8.27077e-13 -5.33663e-14)
(2.92448e-13 -7.32843e-13 -4.56244e-14)
(2.04482e-13 -6.50851e-13 -3.9385e-14)
(1.32968e-13 -5.80184e-13 -3.41632e-14)
(7.47119e-14 -5.14736e-13 -3.01126e-14)
(2.84596e-14 -2.54188e-13 -3.13214e-14)
(1.49873e-12 -3.72044e-13 -2.02645e-13)
(1.17893e-12 -1.24138e-12 -1.64294e-13)
(8.7907e-13 -1.62631e-12 -1.30878e-13)
(6.47563e-13 -1.38918e-12 -1.0613e-13)
(4.70048e-13 -1.1832e-12 -8.70035e-14)
(3.32834e-13 -1.01573e-12 -7.37164e-14)
(2.26554e-13 -8.76677e-13 -6.14945e-14)
(1.43677e-13 -7.60557e-13 -5.22149e-14)
(7.9246e-14 -6.57e-13 -4.57519e-14)
(3.00035e-14 -3.19542e-13 -4.28396e-14)
(2.09219e-12 -9.10447e-13 -3.56945e-13)
(1.56593e-12 -2.23251e-12 -2.78455e-13)
(1.11843e-12 -2.44817e-12 -2.17081e-13)
(7.92613e-13 -2.00697e-12 -1.71861e-13)
(5.55278e-13 -1.64932e-12 -1.37461e-13)
(3.80569e-13 -1.36906e-12 -1.12771e-13)
(2.51534e-13 -1.14505e-12 -9.20168e-14)
(1.55413e-13 -9.65268e-13 -7.65649e-14)
(8.39938e-14 -8.12121e-13 -6.51443e-14)
(3.17441e-14 -3.89389e-13 -5.78132e-14)
(3.16749e-12 -1.81295e-12 -6.3306e-13)
(2.12015e-12 -3.79929e-12 -4.72655e-13)
(1.44224e-12 -3.64831e-12 -3.55e-13)
(9.79286e-13 -2.86101e-12 -2.70955e-13)
(6.59989e-13 -2.26019e-12 -2.10269e-13)
(4.37063e-13 -1.8099e-12 -1.67335e-13)
(2.79804e-13 -1.46581e-12 -1.35138e-13)
(1.684e-13 -1.1992e-12 -1.08094e-13)
(8.89437e-14 -9.81103e-13 -8.91989e-14)
(3.35153e-14 -4.63286e-13 -7.58272e-14)
(4.35195e-10 -3.6571e-12 1.1108e-13)
(5.80297e-12 -6.75718e-12 -7.85453e-13)
(1.88672e-12 -5.4315e-12 -5.79704e-13)
(1.2156e-12 -4.05171e-12 -4.22897e-13)
(7.84682e-13 -3.06729e-12 -3.17599e-13)
(4.99453e-13 -2.36397e-12 -2.43283e-13)
(3.0844e-13 -1.84886e-12 -1.90564e-13)
(1.79353e-13 -1.4655e-12 -1.4691e-13)
(9.12887e-14 -1.16635e-12 -1.19e-13)
(3.24298e-14 -5.42517e-13 -9.81152e-14)
(4.55607e-07 -9.82171e-10 1.48919e-09)
(1.71696e-09 -1.1283e-09 1.96962e-11)
(5.59545e-12 -1.55685e-11 -8.22106e-13)
(1.19907e-12 -5.74035e-12 -6.51893e-13)
(7.94332e-13 -4.13301e-12 -4.69618e-13)
(5.33495e-13 -3.05655e-12 -3.46311e-13)
(3.59353e-13 -2.30477e-12 -2.61274e-13)
(2.41043e-13 -1.76902e-12 -1.96055e-13)
(1.59281e-13 -1.36761e-12 -1.53132e-13)
(1.03561e-13 -6.26402e-13 -1.22609e-13)
(2.28758e-13 3.68245e-13 -1.39229e-14)
(2.15404e-13 3.42903e-13 -5.01346e-15)
(1.88899e-13 -5.26385e-14 -4.22236e-15)
(1.63694e-13 -5.5127e-14 -5.73952e-15)
(1.39598e-13 -5.40298e-14 -1.11172e-14)
(1.16681e-13 -5.30468e-14 -2.1618e-14)
(9.49041e-14 -5.14106e-14 -4.01976e-14)
(7.49363e-14 -4.83852e-14 -1.42071e-13)
(5.70171e-14 -4.30176e-14 -5.50624e-13)
(3.69787e-14 -3.98744e-14 -1.60504e-12)
(5.03067e-13 3.3366e-13 -1.848e-14)
(4.63712e-13 2.36523e-13 -3.792e-15)
(3.9755e-13 -1.90628e-13 -5.29893e-15)
(3.3567e-13 -1.86841e-13 -6.41529e-15)
(2.78331e-13 -1.79853e-13 -1.15964e-14)
(2.25159e-13 -1.72828e-13 -2.1687e-14)
(1.7573e-13 -1.66125e-13 -3.63958e-14)
(1.30135e-13 -1.60107e-13 -9.61781e-14)
(8.79485e-14 -1.53017e-13 -3.27705e-13)
(4.70696e-14 -1.03908e-13 -1.04815e-12)
(6.24538e-13 2.67422e-13 -3.04393e-14)
(5.54495e-13 6.73353e-14 -8.7705e-15)
(4.58782e-13 -3.86912e-13 -8.247e-15)
(3.72788e-13 -3.66418e-13 -1.03338e-14)
(2.96836e-13 -3.43042e-13 -1.45616e-14)
(2.29592e-13 -3.21747e-13 -2.48904e-14)
(1.69781e-13 -3.02024e-13 -4.09838e-14)
(1.16579e-13 -2.84181e-13 -7.57087e-14)
(6.95901e-14 -2.676e-13 -2.17749e-13)
(2.68005e-14 -1.61613e-13 -6.87792e-13)
(8.23347e-13 1.51506e-13 -5.30166e-14)
(7.0409e-13 -1.96321e-13 -2.00205e-14)
(5.64942e-13 -6.65319e-13 -1.82789e-14)
(4.45908e-13 -6.10065e-13 -2.00655e-14)
(3.45413e-13 -5.54507e-13 -2.47379e-14)