/*--------------------------------*- C++ -*----------------------------------*\
| =========                 |                                                 |
| \\      /  F ield         | OpenFOAM: The Open Source CFD Toolbox           |
|  \\    /   O peration     | Version:  4.1                                   |
|   \\  /    A nd           | Web:      www.OpenFOAM.org                      |
|    \\/     M anipulation  |                                                 |
\*---------------------------------------------------------------------------*/
FoamFile
{
    version     2.0;
    format      ascii;
    class       volScalarField;
    location    "5.36";
    object      p;
}
// * * * * * * * * * * * * * * * * * * * * * * * * * * * * * * * * * * * * * //

dimensions      [1 -1 -2 0 0 0 0];

internalField   nonuniform List<scalar> 
52500
(
1.00001
1.00003
1.00011
1.00023
1.00067
1.00138
1.00395
1.0078
1.02402
1.04309
1.15636
1.27722
2.06304
3.50818
8.48154
11.5426
11.2261
11.0135
11.0911
11.3126
11.5465
11.6904
11.7989
11.8852
11.9522
1.00001
1.00003
1.0001
1.00023
1.00066
1.00136
1.0039
1.00768
1.0237
1.0424
1.15433
1.2727
2.05072
3.47017
8.38588
11.5455
11.2193
11.0019
11.0812
11.3044
11.5375
11.6813
11.7913
11.8789
11.9472
1.00001
1.00003
1.0001
1.00022
1.00064
1.00132
1.00378
1.00743
1.02304
1.04101
1.15006
1.26325
2.02391
3.38804
8.17059
11.5526
11.2028
10.9689
11.0484
11.271
11.5004
11.6414
11.7507
11.8373
11.905
1.00001
1.00003
1.0001
1.00021
1.00062
1.00127
1.00363
1.00715
1.02206
1.03944
1.14352
1.25173
1.97205
3.26469
7.82547
11.5707
11.1845
10.9172
10.9939
11.2115
11.4357
11.5716
11.677
11.761
11.829
1.00001
1.00003
1.00009
1.0002
1.00059
1.0012
1.00343
1.00678
1.02078
1.03731
1.13479
1.2365
1.9027
3.10143
7.3551
11.5973
11.1648
10.8482
10.9195
11.128
11.3456
11.4745
11.5742
11.6544
11.7231
1.00001
1.00002
1.00009
1.00019
1.00055
1.00114
1.00323
1.00651
1.01917
1.03628
1.12161
1.22185
1.81391
2.90414
6.7626
11.614
11.143
10.7642
10.8266
11.0195
11.2276
11.3451
11.4338
11.5061
11.576
1
1.00002
1.00008
1.00018
1.00051
1.00105
1.00297
1.006
1.01742
1.0341
1.10812
1.20401
1.71879
2.68563
6.07558
11.5774
11.1016
10.6662
10.7158
10.8832
11.0756
11.176
11.2466
11.3016
11.365
1
1.00002
1.00007
1.00016
1.00046
1.00095
1.00269
1.00545
1.01573
1.03102
1.09615
1.18609
1.63023
2.47889
5.43822
11.3621
10.9936
10.5585
10.5893
10.7159
10.884
10.9581
10.9966
11.0155
11.0535
1
1.00002
1.00006
1.00014
1.00041
1.00085
1.00241
1.00488
1.01408
1.02777
1.08623
1.16491
1.56265
2.31084
4.97342
10.8317
10.7465
10.4585
10.4477
10.5153
10.6459
10.6804
10.6683
10.6122
10.5559
1
1.00001
1.00005
1.00012
1.00034
1.0007
1.00202
1.00394
1.01227
1.02157
1.07854
1.13359
1.5063
2.13823
4.5123
10.0239
10.5203
10.3713
10.2755
10.3026
10.3615
10.3424
10.2508
10.032
9.68782
1.00001
1.00003
1.00011
1.00024
1.00068
1.00139
1.00396
1.00781
1.02403
1.04311
1.15639
1.27728
2.06313
3.50852
8.48222
11.5425
11.2261
11.0136
11.0912
11.3127
11.5466
11.6905
11.799
11.8853
11.9523
1.00001
1.00003
1.00011
1.00023
1.00067
1.00137
1.0039
1.00769
1.02371
1.04243
1.15436
1.27276
2.05081
3.4705
8.38656
11.5454
11.2193
11.002
11.0813
11.3045
11.5376
11.6814
11.7913
11.879
11.9473
1.00001
1.00003
1.00011
1.00023
1.00065
1.00132
1.00379
1.00744
1.02305
1.04103
1.15008
1.26331
2.024
3.38836
8.17128
11.5525
11.2028
10.969
11.0485
11.2711
11.5005
11.6415
11.7507
11.8374
11.9051
1.00001
1.00003
1.0001
1.00022
1.00062
1.00127
1.00364
1.00716
1.02207
1.03946
1.14355
1.25179
1.97215
3.265
7.82616
11.5706
11.1846
10.9173
10.994
11.2116
11.4358
11.5717
11.6771
11.7611
11.8291
1.00001
1.00003
1.0001
1.00021
1.00059
1.00121
1.00344
1.00679
1.02079
1.03733
1.13482
1.23656
1.90277
3.10171
7.35574
11.5973
11.1649
10.8484
10.9196
11.128
11.3457
11.4745
11.5742
11.6545
11.7232
1.00001
1.00003
1.00009
1.0002
1.00056
1.00114
1.00324
1.00652
1.01918
1.03631
1.12161
1.22193
1.81395
2.90439
6.76317
11.614
11.1431
10.7643
10.8267
11.0195
11.2277
11.3451
11.4338
11.5062
11.5761
1.00001
1.00003
1.00008
1.00018
1.00051
1.00105
1.00298
1.00601
1.01743
1.03412
1.10813
1.20406
1.71885
2.68585
6.07612
11.5775
11.1016
10.6663
10.7159
10.8832
11.0756
11.1761
11.2467
11.3017
11.3651
1.00001
1.00002
1.00008
1.00016
1.00047
1.00096
1.0027
1.00546
1.01574
1.03104
1.09617
1.18613
1.63027
2.47905
5.43853
11.3623
10.9937
10.5586
10.5893
10.716
10.8841
10.9581
10.9966
11.0156
11.0536
1
1.00002
1.00007
1.00015
1.00042
1.00085
1.00242
1.00488
1.01409
1.02778
1.08625
1.16495
1.56268
2.31101
4.97368
10.8321
10.7467
10.4585
10.4477
10.5154
10.646
10.6805
10.6683
10.6123
10.5559
1
1.00002
1.00006
1.00012
1.00035
1.00071
1.00203
1.00395
1.01228
1.02159
1.07856
1.13363
1.50634
2.13838
4.51255
10.0243
10.5204
10.3713
10.2755
10.3027
10.3616
10.3424
10.2509
10.0321
9.68788
1.00001
1.00003
1.00011
1.00024
1.00068
1.00139
1.00396
1.00781
1.02403
1.04311
1.15639
1.27728
2.06314
3.50853
8.48226
11.5425
11.2261
11.0136
11.0912
11.3127
11.5466
11.6905
11.799
11.8853
11.9523
1.00001
1.00003
1.00011
1.00023
1.00067
1.00137
1.0039
1.00769
1.02371
1.04243
1.15436
1.27276
2.05081
3.47052
8.3866
11.5454
11.2193
11.002
11.0813
11.3045
11.5376
11.6814
11.7914
11.879
11.9473
1.00001
1.00003
1.00011
1.00023
1.00065
1.00132
1.00379
1.00744
1.02305
1.04103
1.15008
1.26332
2.024
3.38838
8.17132
11.5525
11.2028
10.969
11.0485
11.2711
11.5005
11.6415
11.7507
11.8374
11.9051
1.00001
1.00003
1.0001
1.00022
1.00062
1.00127
1.00364
1.00716
1.02207
1.03946
1.14355
1.25179
1.97215
3.26502
7.8262
11.5706
11.1846
10.9173
10.994
11.2116
11.4358
11.5717
11.6771
11.7611
11.8291
1.00001
1.00003
1.0001
1.00021
1.00059
1.00121
1.00344
1.00679
1.02079
1.03733
1.13482
1.23656
1.90278
3.10172
7.35578
11.5973
11.1649
10.8484
10.9196
11.128
11.3457
11.4745
11.5743
11.6545
11.7232
1.00001
1.00003
1.00009
1.0002
1.00056
1.00114
1.00324
1.00652
1.01918
1.03631
1.12161
1.22193
1.81396
2.9044
6.76322
11.614
11.1431
10.7643
10.8267
11.0195
11.2277
11.3452
11.4338
11.5062
11.5761
1.00001
1.00003
1.00008
1.00018
1.00051
1.00105
1.00298
1.00601
1.01743
1.03412
1.10813
1.20406
1.71885
2.68586
6.07617
11.5775
11.1016
10.6663
10.7159
10.8832
11.0756
11.1761
11.2467
11.3017
11.3651
1.00001
1.00002
1.00008
1.00016
1.00047
1.00096
1.0027
1.00546
1.01574
1.03104
1.09617
1.18613
1.63028
2.47906
5.43856
11.3623
10.9937
10.5586
10.5893
10.716
10.8841
10.9581
10.9966
11.0156
11.0536
1
1.00002
1.00007
1.00015
1.00042
1.00085
1.00242
1.00488
1.01409
1.02778
1.08625
1.16495
1.56268
2.31102
4.9737
10.8321
10.7467
10.4585
10.4477
10.5154
10.646
10.6805
10.6683
10.6123
10.5559
1
1.00002
1.00006
1.00012
1.00035
1.00071
1.00203
1.00395
1.01228
1.02159
1.07856
1.13363
1.50634
2.13838
4.51257
10.0244
10.5204
10.3713
10.2755
10.3027
10.3616
10.3424
10.2509
10.0321
9.68788
1.00001
1.00003
1.00011
1.00024
1.00068
1.00139
1.00396
1.00781
1.02403
1.04311
1.15639
1.27728
2.06314
3.50853
8.48226
11.5425
11.2261
11.0136
11.0912
11.3127
11.5466
11.6905
11.799
11.8853
11.9523
1.00001
1.00003
1.00011
1.00023
1.00067
1.00137
1.0039
1.00769
1.02371
1.04243
1.15436
1.27276
2.05081
3.47052
8.3866
11.5454
11.2193
11.002
11.0813
11.3045
11.5376
11.6814
11.7914
11.879
11.9473
1.00001
1.00003
1.00011
1.00023
1.00065
1.00132
1.00379
1.00744
1.02305
1.04103
1.15008
1.26332
2.024
3.38837
8.17131
11.5525
11.2028
10.969
11.0485
11.2711
11.5005
11.6415
11.7507
11.8374
11.9051
1.00001
1.00003
1.0001
1.00022
1.00062
1.00127
1.00364
1.00716
1.02207
1.03946
1.14355
1.25179
1.97215
3.26502
7.8262
11.5706
11.1846
10.9173
10.994
11.2116
11.4358
11.5717
11.6771
11.7611
11.8291
1.00001
1.00003
1.0001
1.00021
1.00059
1.00121
1.00344
1.00679
1.02079
1.03733
1.13482
1.23656
1.90278
3.10172
7.35578
11.5973
11.1649
10.8484
10.9196
11.128
11.3457
11.4745
11.5743
11.6545
11.7232
1.00001
1.00003
1.00009
1.0002
1.00056
1.00114
1.00324
1.00652
1.01918
1.03631
1.12161
1.22193
1.81396
2.9044
6.76322
11.614
11.1431
10.7643
10.8267
11.0195
11.2277
11.3452
11.4338
11.5062
11.5761
1.00001
1.00003
1.00008
1.00018
1.00051
1.00105
1.00298
1.00601
1.01743
1.03412
1.10813
1.20406
1.71885
2.68586
6.07616
11.5775
11.1016
10.6663
10.7159
10.8832
11.0756
11.1761
11.2467
11.3017
11.3651
1.00001
1.00002
1.00008
1.00016
1.00047
1.00096
1.0027
1.00546
1.01574
1.03104
1.09617
1.18613
1.63028
2.47906
5.43856
11.3623
10.9937
10.5586
10.5893
10.716
10.8841
10.9581
10.9966
11.0156
11.0536
1
1.00002
1.00007
1.00015
1.00042
1.00085
1.00242
1.00488
1.01409
1.02778
1.08625
1.16495
1.56268
2.31102
4.97369
10.8321
10.7467
10.4585
10.4477
10.5154
10.646
10.6805
10.6683
10.6123
10.5559
1
1.00002
1.00006
1.00012
1.00035
1.00071
1.00203
1.00395
1.01228
1.02159
1.07856
1.13363
1.50634
2.13838
4.51257
10.0244
10.5204
10.3713
10.2755
10.3027
10.3616
10.3424
10.2509
10.0321
9.68788
1.00001
1.00003
1.00011
1.00024
1.00068
1.00139
1.00396
1.00781
1.02403
1.04311
1.15639
1.27728
2.06314
3.50854
8.48228
11.5425
11.2261
11.0136
11.0912
11.3127
11.5466
11.6905
11.799
11.8853
11.9523
1.00001
1.00003
1.00011
1.00023
1.00067
1.00137
1.0039
1.00769
1.02371
1.04243
1.15436
1.27276
2.05081
3.47053
8.38662
11.5454
11.2193
11.002
11.0813
11.3045
11.5376
11.6814
11.7914
11.879
11.9473
1.00001
1.00003
1.00011
1.00023
1.00065
1.00132
1.00379
1.00744
1.02305
1.04103
1.15009
1.26332
2.024
3.38838
8.17134
11.5525
11.2028
10.969
11.0485
11.2711
11.5005
11.6415
11.7507
11.8374
11.9051
1.00001
1.00003
1.0001
1.00022
1.00062
1.00127
1.00364
1.00716
1.02207
1.03946
1.14355
1.25179
1.97216
3.26502
7.82622
11.5706
11.1846
10.9173
10.994
11.2116
11.4358
11.5717
11.6771
11.7611
11.8291
1.00001
1.00003
1.0001
1.00021
1.00059
1.00121
1.00344
1.00679
1.02079
1.03733
1.13482
1.23656
1.90278
3.10173
7.3558
11.5972
11.1649
10.8484
10.9196
11.128
11.3457
11.4745
11.5743
11.6545
11.7232
1.00001
1.00003
1.00009
1.0002
1.00056
1.00114
1.00324
1.00652
1.01918
1.03631
1.12161
1.22193
1.81396
2.90441
6.76324
11.614
11.1431
10.7643
10.8267
11.0195
11.2277
11.3452
11.4338
11.5062
11.5761
1.00001
1.00003
1.00008
1.00018
1.00051
1.00105
1.00298
1.00601
1.01743
1.03412
1.10813
1.20406
1.71886
2.68587
6.07619
11.5775
11.1016
10.6663
10.7159
10.8833
11.0756
11.1761
11.2467
11.3017
11.3651
1.00001
1.00002
1.00008
1.00016
1.00047
1.00096
1.0027
1.00546
1.01574
1.03104
1.09617
1.18613
1.63028
2.47907
5.43857
11.3623
10.9937
10.5586
10.5893
10.716
10.8841
10.9581
10.9966
11.0156
11.0536
1
1.00002
1.00007
1.00015
1.00042
1.00085
1.00242
1.00488
1.01409
1.02778
1.08625
1.16495
1.56268
2.31102
4.97371
10.8321
10.7467
10.4585
10.4477
10.5154
10.646
10.6805
10.6683
10.6123
10.5559
1
1.00002
1.00006
1.00012
1.00035
1.00071
1.00203
1.00395
1.01228
1.02159
1.07856
1.13363
1.50634
2.13839
4.51258
10.0244
10.5204
10.3713
10.2755
10.3027
10.3616
10.3424
10.2509
10.0321
9.68788
1.00001
1.00003
1.00011
1.00024
1.00068
1.00139
1.00396
1.00781
1.02403
1.04311
1.15639
1.27728
2.06314
3.50854
8.48228
11.5425
11.2261
11.0136
11.0912
11.3127
11.5466
11.6905
11.799
11.8853
11.9523
1.00001
1.00003
1.00011
1.00023
1.00067
1.00137
1.0039
1.00769
1.02371
1.04243
1.15436
1.27276
2.05081
3.47053
8.38662
11.5454
11.2193
11.002
11.0813
11.3045
11.5376
11.6814
11.7914
11.879
11.9473
1.00001
1.00003
1.00011
1.00023
1.00065
1.00132
1.00379
1.00744
1.02305
1.04103
1.15009
1.26332
2.024
3.38838
8.17134
11.5525
11.2028
10.969
11.0485
11.2711
11.5005
11.6415
11.7507
11.8374
11.9051
1.00001
1.00003
1.0001
1.00022
1.00062
1.00127
1.00364
1.00716
1.02207
1.03946
1.14355
1.25179
1.97216
3.26502
7.82622
11.5706
11.1846
10.9173
10.994
11.2116
11.4358
11.5717
11.6771
11.7611
11.8291
1.00001
1.00003
1.0001
1.00021
1.00059
1.00121
1.00344
1.00679
1.02079
1.03733
1.13482
1.23656
1.90278
3.10173
7.3558
11.5972
11.1649
10.8484
10.9196
11.128
11.3457
11.4745
11.5743
11.6545
11.7232
1.00001
1.00003
1.00009
1.0002
1.00056
1.00114
1.00324
1.00652
1.01918
1.03631
1.12161
1.22193
1.81396
2.90441
6.76324
11.614
11.1431
10.7643
10.8267
11.0195
11.2277
11.3452
11.4338
11.5062
11.5761
1.00001
1.00003
1.00008
1.00018
1.00051
1.00105
1.00298
1.00601
1.01743
1.03412
1.10813
1.20406
1.71886
2.68587
6.07619
11.5775
11.1016
10.6663
10.7159
10.8832
11.0756
11.1761
11.2467
11.3017
11.3651
1.00001
1.00002
1.00008
1.00016
1.00047
1.00096
1.0027
1.00546
1.01574
1.03104
1.09617
1.18613
1.63028
2.47907
5.43857
11.3623
10.9937
10.5586
10.5893
10.716
10.8841
10.9581
10.9966
11.0156
11.0536
1
1.00002
1.00007
1.00015
1.00042
1.00085
1.00242
1.00488
1.01409
1.02778
1.08625
1.16495
1.56268
2.31102
4.97371
10.8321
10.7467
10.4585
10.4477
10.5154
10.646
10.6805
10.6683
10.6123
10.5559
1
1.00002
1.00006
1.00012
1.00035
1.00071
1.00203
1.00395
1.01228
1.02159
1.07856
1.13363
1.50634
2.13839
4.51258
10.0244
10.5204
10.3713
10.2755
10.3027
10.3616
10.3424
10.2509
10.0321
9.68788
1.00001
1.00003
1.00011
1.00024
1.00068
1.00139
1.00396
1.00781
1.02403
1.04311
1.15639
1.27728
2.06314
3.50853
8.48226
11.5425
11.2261
11.0136
11.0912
11.3127
11.5466
11.6905
11.799
11.8853
11.9523
1.00001
1.00003
1.00011
1.00023
1.00067
1.00137
1.0039
1.00769
1.02371
1.04243
1.15436
1.27276
2.05081
3.47052
8.3866
11.5454
11.2193
11.002
11.0813
11.3045
11.5376
11.6814
11.7914
11.879
11.9473
1.00001
1.00003
1.00011
1.00023
1.00065
1.00132
1.00379
1.00744
1.02305
1.04103
1.15008
1.26332
2.024
3.38838
8.17132
11.5525
11.2028
10.969
11.0485
11.2711
11.5005
11.6415
11.7507
11.8374
11.9051
1.00001
1.00003
1.0001
1.00022
1.00062
1.00127
1.00364
1.00716
1.02207
1.03946
1.14355
1.25179
1.97215
3.26502
7.8262
11.5706
11.1846
10.9173
10.994
11.2116
11.4358
11.5717
11.6771
11.7611
11.8291
1.00001
1.00003
1.0001
1.00021
1.00059
1.00121
1.00344
1.00679
1.02079
1.03733
1.13482
1.23656
1.90278
3.10172
7.35578
11.5973
11.1649
10.8484
10.9196
11.128
11.3457
11.4745
11.5743
11.6545
11.7232
1.00001
1.00003
1.00009
1.0002
1.00056
1.00114
1.00324
1.00652
1.01918
1.03631
1.12161
1.22193
1.81396
2.9044
6.76322
11.614
11.1431
10.7643
10.8267
11.0195
11.2277
11.3452
11.4338
11.5062
11.5761
1.00001
1.00003
1.00008
1.00018
1.00051
1.00105
1.00298
1.00601
1.01743
1.03412
1.10813
1.20406
1.71885
2.68586
6.07617
11.5775
11.1016
10.6663
10.7159
10.8832
11.0756
11.1761
11.2467
11.3017
11.3651
1.00001
1.00002
1.00008
1.00016
1.00047
1.00096
1.0027
1.00546
1.01574
1.03104
1.09617
1.18613
1.63028
2.47906
5.43856
11.3623
10.9937
10.5586
10.5893
10.716
10.8841
10.9581
10.9966
11.0156
11.0536
1
1.00002
1.00007
1.00015
1.00042
1.00085
1.00242
1.00488
1.01409
1.02778
1.08625
1.16495
1.56268
2.31102
4.9737
10.8321
10.7467
10.4585
10.4477
10.5154
10.646
10.6805
10.6683
10.6123
10.5559
1
1.00002
1.00006
1.00012
1.00035
1.00071
1.00203
1.00395
1.01228
1.02159
1.07856
1.13363
1.50634
2.13838
4.51257
10.0244
10.5204
10.3713
10.2755
10.3027
10.3616
10.3424
10.2509
10.0321
9.68788
1.00001
1.00003
1.00011
1.00024
1.00068
1.00139
1.00396
1.00781
1.02403
1.04311
1.15639
1.27728
2.06314
3.50853
8.48226
11.5425
11.2261
11.0136
11.0912
11.3127
11.5466
11.6905
11.799
11.8853
11.9523
1.00001
1.00003
1.00011
1.00023
1.00067
1.00137
1.0039
1.00769
1.02371
1.04243
1.15436
1.27276
2.05081
3.47052
8.3866
11.5454
11.2193
11.002
11.0813
11.3045
11.5376
11.6814
11.7914
11.879
11.9473
1.00001
1.00003
1.00011
1.00023
1.00065
1.00132
1.00379
1.00744
1.02305
1.04103
1.15008
1.26332
2.024
3.38838
8.17132
11.5525
11.2028
10.969
11.0485
11.2711
11.5005
11.6415
11.7507
11.8374
11.9051
1.00001
1.00003
1.0001
1.00022
1.00062
1.00127
1.00364
1.00716
1.02207
1.03946
1.14355
1.25179
1.97215
3.26502
7.8262
11.5706
11.1846
10.9173
10.994
11.2116
11.4358
11.5717
11.6771
11.7611
11.8291
1.00001
1.00003
1.0001
1.00021
1.00059
1.00121
1.00344
1.00679
1.02079
1.03733
1.13482
1.23656
1.90278
3.10172
7.35578
11.5973
11.1649
10.8484
10.9196
11.128
11.3457
11.4745
11.5743
11.6545
11.7232
1.00001
1.00003
1.00009
1.0002
1.00056
1.00114
1.00324
1.00652
1.01918
1.03631
1.12161
1.22193
1.81396
2.9044
6.76322
11.614
11.1431
10.7643
10.8267
11.0195
11.2277
11.3452
11.4338
11.5062
11.5761
1.00001
1.00003
1.00008
1.00018
1.00051
1.00105
1.00298
1.00601
1.01743
1.03412
1.10813
1.20406
1.71885
2.68586
6.07617
11.5775
11.1016
10.6663
10.7159
10.8832
11.0756
11.1761
11.2467
11.3017
11.3651
1.00001
1.00002
1.00008
1.00016
1.00047
1.00096
1.0027
1.00546
1.01574
1.03104
1.09617
1.18613
1.63028
2.47906
5.43856
11.3623
10.9937
10.5586
10.5893
10.716
10.8841
10.9581
10.9966
11.0156
11.0536
1
1.00002
1.00007
1.00015
1.00042
1.00085
1.00242
1.00488
1.01409
1.02778
1.08625
1.16495
1.56268
2.31102
4.9737
10.8321
10.7467
10.4585
10.4477
10.5154
10.646
10.6805
10.6683
10.6123
10.5559
1
1.00002
1.00006
1.00012
1.00035
1.00071
1.00203
1.00395
1.01228
1.02159
1.07856
1.13363
1.50634
2.13838
4.51257
10.0244
10.5204
10.3713
10.2755
10.3027
10.3616
10.3424
10.2509
10.0321
9.68788
1.00001
1.00003
1.00011
1.00024
1.00068
1.00139
1.00396
1.00781
1.02403
1.04311
1.15639
1.27728
2.06313
3.50852
8.48222
11.5425
11.2261
11.0136
11.0912
11.3127
11.5466
11.6905
11.799
11.8853
11.9523
1.00001
1.00003
1.00011
1.00023
1.00067
1.00137
1.0039
1.00769
1.02371
1.04243
1.15436
1.27276
2.05081
3.4705
8.38656
11.5454
11.2193
11.002
11.0813
11.3045
11.5376
11.6814
11.7913
11.879
11.9473
1.00001
1.00003
1.00011
1.00023
1.00065
1.00132
1.00379
1.00744
1.02305
1.04103
1.15008
1.26331
2.024
3.38836
8.17128
11.5525
11.2028
10.969
11.0485
11.2711
11.5005
11.6415
11.7507
11.8374
11.9051
1.00001
1.00003
1.0001
1.00022
1.00062
1.00127
1.00364
1.00716
1.02207
1.03946
1.14355
1.25179
1.97215
3.265
7.82616
11.5706
11.1846
10.9173
10.994
11.2116
11.4358
11.5717
11.6771
11.7611
11.8291
1.00001
1.00003
1.0001
1.00021
1.00059
1.00121
1.00344
1.00679
1.02079
1.03733
1.13482
1.23656
1.90277
3.10171
7.35574
11.5973
11.1649
10.8484
10.9196
11.128
11.3457
11.4745
11.5742
11.6545
11.7232
1.00001
1.00003
1.00009
1.0002
1.00056
1.00114
1.00324
1.00652
1.01918
1.03631
1.12161
1.22193
1.81395
2.90439
6.76317
11.614
11.1431
10.7643
10.8267
11.0195
11.2277
11.3451
11.4338
11.5062
11.5761
1.00001
1.00003
1.00008
1.00018
1.00051
1.00105
1.00298
1.00601
1.01743
1.03412
1.10813
1.20406
1.71885
2.68585
6.07612
11.5775
11.1016
10.6663
10.7159
10.8832
11.0756
11.1761
11.2467
11.3017
11.3651
1.00001
1.00002
1.00008
1.00016
1.00047
1.00096
1.0027
1.00546
1.01574
1.03104
1.09617
1.18613
1.63027
2.47905
5.43853
11.3623
10.9937
10.5586
10.5893
10.716
10.8841
10.9581
10.9966
11.0156
11.0536
1
1.00002
1.00007
1.00015
1.00042
1.00085
1.00242
1.00488
1.01409
1.02778
1.08625
1.16495
1.56268
2.31101
4.97368
10.8321
10.7467
10.4585
10.4477
10.5154
10.646
10.6805
10.6683
10.6123
10.5559
1
1.00002
1.00006
1.00012
1.00035
1.00071
1.00203
1.00395
1.01228
1.02159
1.07856
1.13363
1.50634
2.13838
4.51255
10.0243
10.5204
10.3713
10.2755
10.3027
10.3616
10.3424
10.2509
10.0321
9.68788
1.00001
1.00003
1.00011
1.00023
1.00067
1.00138
1.00395
1.0078
1.02402
1.04309
1.15636
1.27721
2.06304
3.50818
8.48153
11.5426
11.2261
11.0135
11.0911
11.3126
11.5465
11.6904
11.7989
11.8852
11.9522
1.00001
1.00003
1.0001
1.00023
1.00066
1.00136
1.0039
1.00768
1.0237
1.0424
1.15433
1.2727
2.05072
3.47017
8.38587
11.5455
11.2193
11.0019
11.0812
11.3044
11.5375
11.6813
11.7913
11.8789
11.9472
1.00001
1.00003
1.0001
1.00022
1.00064
1.00132
1.00378
1.00743
1.02304
1.04101
1.15006
1.26325
2.02391
3.38803
8.17058
11.5526
11.2028
10.9689
11.0484
11.271
11.5004
11.6414
11.7507
11.8373
11.905
1.00001
1.00003
1.0001
1.00021
1.00062
1.00127
1.00363
1.00715
1.02206
1.03944
1.14352
1.25173
1.97205
3.26469
7.82546
11.5707
11.1845
10.9172
10.9939
11.2115
11.4357
11.5716
11.677
11.761
11.829
1.00001
1.00003
1.00009
1.0002
1.00059
1.0012
1.00343
1.00678
1.02078
1.03731
1.13479
1.2365
1.9027
3.10142
7.35509
11.5973
11.1648
10.8482
10.9195
11.128
11.3456
11.4745
11.5742
11.6544
11.7231
1.00001
1.00002
1.00009
1.00019
1.00055
1.00114
1.00323
1.00651
1.01917
1.03628
1.12161
1.22185
1.81391
2.90414
6.76258
11.614
11.143
10.7642
10.8266
11.0195
11.2276
11.3451
11.4338
11.5061
11.576
1
1.00002
1.00008
1.00018
1.00051
1.00105
1.00297
1.006
1.01742
1.0341
1.10812
1.20401
1.71879
2.68563
6.07557
11.5774
11.1016
10.6662
10.7158
10.8832
11.0756
11.176
11.2466
11.3016
11.365
1
1.00002
1.00007
1.00016
1.00046
1.00095
1.00269
1.00545
1.01573
1.03102
1.09615
1.18609
1.63023
2.47888
5.43821
11.3621
10.9936
10.5585
10.5893
10.7159
10.884
10.9581
10.9966
11.0155
11.0535
1
1.00002
1.00006
1.00014
1.00041
1.00085
1.00241
1.00488
1.01408
1.02777
1.08623
1.16491
1.56265
2.31084
4.97341
10.8317
10.7465
10.4585
10.4477
10.5153
10.6459
10.6804
10.6683
10.6122
10.5559
1
1.00001
1.00005
1.00012
1.00034
1.0007
1.00202
1.00394
1.01227
1.02157
1.07854
1.13359
1.5063
2.13823
4.51229
10.0238
10.5203
10.3713
10.2755
10.3026
10.3615
10.3424
10.2508
10.032
9.68782
1
1.00002
1.00004
1.00013
1.00026
1.00076
1.00154
1.00444
1.00871
1.02707
1.04842
1.17525
1.31752
2.1862
3.84357
9.05606
10.3996
10.2835
10.0966
10.0723
10.051
9.961
9.70994
9.12425
7.64688
1
1.00001
1.00003
1.00011
1.00023
1.00065
1.00134
1.00382
1.00752
1.02315
1.04146
1.15007
1.26534
2.01224
3.36133
7.90179
10.3071
10.189
9.92991
9.82859
9.74569
9.56162
9.16586
8.37203
6.86076
1
1.00001
1.00003
1.00009
1.0002
1.00056
1.00115
1.00328
1.00655
1.01952
1.0362
1.1245
1.22338
1.82648
2.9132
6.65318
10.233
10.0979
9.77684
9.58628
9.44545
9.18404
8.69983
7.89313
6.69543
1
1.00001
1.00002
1.00008
1.00016
1.00047
1.00097
1.00274
1.00554
1.01597
1.03144
1.09761
1.18772
1.636
2.47934
5.30285
10.0435
9.9551
9.65173
9.36107
9.15796
8.85615
8.35966
7.61979
6.66854
1
1.00001
1.00002
1.00006
1.00013
1.00038
1.00079
1.00223
1.00451
1.013
1.0257
1.07883
1.15271
1.50647
2.16616
4.44347
9.41037
9.68466
9.50111
9.15537
8.90138
8.5803
8.11017
7.45289
6.65275
1
1
1.00002
1.00004
1.00012
1.00025
1.00073
1.00148
1.00423
1.00826
1.02565
1.04555
1.16439
1.29488
2.0995
3.58061
8.15473
9.40847
9.29027
8.99899
8.68755
8.35045
7.91078
7.32542
6.63123
1
1
1.00001
1.00003
1.0001
1.0002
1.00059
1.0012
1.00341
1.00676
1.0204
1.03703
1.13052
1.23074
1.85748
2.96407
6.624
9.19277
9.12267
8.88292
8.51674
8.16173
7.7447
7.21867
6.60585
0.999998
1
1.00001
1.00002
1.00008
1.00016
1.00046
1.00095
1.00268
1.00542
1.01564
1.03078
1.09546
1.18432
1.6179
2.42886
5.07725
8.90955
8.97045
8.79461
8.40837
8.0114
7.60592
7.13018
6.58668
0.999997
0.999999
1
1.00002
1.00004
1.00014
1.00029
1.00083
1.00169
1.0048
1.0095
1.02872
1.05253
1.18123
1.34207
2.17841
3.80206
8.19433
8.80175
8.65982
8.31632
7.88992
7.49118
7.05588
6.56783
0.999995
0.999997
1
1.00001
1.00003
1.0001
1.00021
1.00061
1.00125
1.00357
1.00697
1.02154
1.03817
1.13751
1.24095
1.90657
3.04298
6.68355
8.52941
8.46574
8.23544
7.80205
7.40577
6.99852
6.55346
0.999994
0.999995
0.999998
1
1.00002
1.00006
1.00018
1.00037
1.00106
1.00207
1.00635
1.01119
1.04002
1.06569
1.2484
1.49055
2.57282
4.94439
8.16962
8.30529
8.155
7.79193
7.35536
6.95354
6.54053
0.999993
0.999994
0.999996
1
1.00002
1.00004
1.00013
1.00028
1.00079
1.00162
1.00458
1.00912
1.02717
1.05041
1.17029
1.32
2.09239
3.53153
7.38345
8.15846
8.05426
7.77167
7.33483
6.9253
6.53188
0.999992
0.999993
0.999994
0.999998
1.00001
1.00003
1.00007
1.00022
1.00046
1.00131
1.00258
1.00784
1.0139
1.04924
1.08135
1.30753
1.60819
2.9444
5.77805
7.90881
7.89298
7.72666
7.34611
6.91984
6.52933
0.999992
0.999992
0.999993
0.999996
1
1.00002
1.00005
1.00016
1.00034
1.00095
1.00193
1.00545
1.01084
1.03216
1.05979
1.19759
1.39264
2.22334
3.92652
7.41064
7.79464
7.67415
7.36662
6.92693
6.53224
0.999991
0.999992
0.999992
0.999994
1
1.00001
1.00004
1.00009
1.00027
1.00056
1.00158
1.00319
1.0091
1.01787
1.05461
1.10171
1.33708
1.73592
3.12186
6.20089
7.5821
7.54583
7.35517
6.95269
6.54312
0.999991
0.999991
0.999992
0.999993
0.999997
1
1.00003
1.00006
1.00019
1.00039
1.00109
1.00221
1.00621
1.0122
1.03705
1.06668
1.23011
1.45044
2.42066
4.41623
7.13584
7.40117
7.29796
7.00893
6.57058
0.999991
0.999991
0.999991
0.999992
0.999994
1
1.00001
1.00005
1.0001
1.00031
1.00063
1.00176
1.00357
1.0101
1.02007
1.05888
1.11885
1.35534
1.80839
3.18383
6.13906
7.20579
7.16908
6.99654
6.62696
0.999991
0.999991
0.999991
0.999992
0.999993
0.999997
1
1.00003
1.00007
1.0002
1.00042
1.00117
1.00237
1.00663
1.01312
1.03898
1.0721
1.23812
1.47941
2.45486
4.46495
6.79768
7.03394
6.94464
6.69481
0.999991
0.999991
0.999991
0.999991
0.999992
0.999994
1
1.00001
1.00005
1.00011
1.00031
1.00065
1.00181
1.00366
1.01032
1.02066
1.05948
1.12256
1.35559
1.80984
3.13797
5.90057
6.84947
6.82587
6.68444
0.999991
0.999991
0.999991
0.999991
0.999991
0.999993
0.999996
1.00001
1.00002
1.00008
1.00017
1.00049
1.00099
1.00276
1.00554
1.01582
1.03006
1.0953
1.17486
1.57822
2.26591
4.27956
6.44631
6.70849
6.6361
0.999991
0.99999
0.99999
0.999991
0.999991
0.999992
0.999994
1
1.00001
1.00005
1.00011
1.00031
1.00064
1.00177
1.00359
1.01
1.02015
1.05697
1.11803
1.33729
1.75825
2.98688
5.53539
6.51732
6.5152
0.999991
0.99999
0.99999
0.99999
0.999991
0.999991
0.999993
0.999996
1.00001
1.00002
1.00007
1.00016
1.00046
1.00093
1.00258
1.0052
1.01461
1.0286
1.08606
1.16409
1.51686
2.136
3.89834
6.07612
6.42017
0.999991
0.99999
0.99999
0.99999
0.999991
0.999991
0.999992
0.999994
1
1.00001
1.00004
1.0001
1.00028
1.00058
1.00161
1.00325
1.009
1.01804
1.05105
1.10418
1.29906
1.66606
2.75469
5.05926
6.20459
0.999991
0.99999
0.99999
0.99999
0.99999
0.999991
0.999991
0.999992
0.999996
1
1.00002
1.00006
1.00017
1.00035
1.00096
1.00195
1.00534
1.01064
1.03054
1.05714
1.18149
1.35133
2.04553
3.3776
5.68272
0.999991
0.99999
0.99999
0.99999
0.99999
0.99999
0.999991
0.999991
0.999994
0.999997
1.00001
1.00003
1.00009
1.0002
1.00057
1.00116
1.00318
1.0063
1.01828
1.0334
1.11056
1.1948
1.65984
2.39909
4.52767
0.999991
0.99999
0.99999
0.99999
0.99999
0.99999
0.999991
0.999991
0.999992
0.999995
1
1.00002
1.00004
1.00014
1.00028
1.00079
1.00161
1.00442
1.00882
1.02517
1.04785
1.14692
1.29277
1.8408
2.86379
0.999991
0.99999
0.99999
0.99999
0.99999
0.99999
0.99999
0.999991
0.999991
0.999993
0.999997
1
1.00003
1.00007
1.00019
1.0004
1.00111
1.00225
1.00621
1.01238
1.03546
1.06816
1.20685
1.42908
2.19277
0.999991
0.99999
0.99999
0.99999
0.99999
0.99999
0.99999
0.99999
0.999991
0.999992
0.999994
0.999999
1.00001
1.00004
1.00009
1.00027
1.00056
1.00153
1.00309
1.00852
1.01711
1.04783
1.09884
1.27492
1.61357
0.999991
0.99999
0.99999
0.99999
0.99999
0.99999
0.99999
0.99999
0.999991
0.999991
0.999992
0.999996
1
1.00002
1.00005
1.00015
1.00031
1.00086
1.00175
1.00477
1.00959
1.02634
1.05364
1.14746
1.3187
0.999991
0.99999
0.99999
0.99999
0.99999
0.99999
0.99999
0.99999
0.99999
0.999991
0.999992
0.999993
0.999997
1
1.00003
1.00007
1.0002
1.00042
1.00116
1.00235
1.00643
1.0128
1.03611
1.07153
1.20592
0.999991
0.99999
0.99999
0.99999
0.99999
0.99999
0.99999
0.99999
0.99999
0.999991
0.999991
0.999992
0.999994
1
1.00001
1.00004
1.0001
1.00028
1.00058
1.00158
1.0032
1.00877
1.0177
1.04885
1.10157
0.999991
0.99999
0.99999
0.99999
0.99999
0.99999
0.99999
0.99999
0.99999
0.99999
0.999991
0.999991
0.999993
0.999995
1
1.00002
1.00006
1.00014
1.0004
1.00081
1.0022
1.00445
1.0122
1.02418
1.06883
0.999991
0.99999
0.99999
0.99999
0.99999
0.99999
0.99999
0.99999
0.99999
0.99999
0.99999
0.999991
0.999992
0.999993
0.999999
1.00001
1.00004
1.00009
1.00026
1.00054
1.00147
1.00299
1.00825
1.01641
1.0472
0.999991
0.99999
0.99999
0.99999
0.99999
0.99999
0.99999
0.99999
0.99999
0.99999
0.99999
0.999991
0.999991
0.999993
0.999996
1.00001
1.00002
1.00008
1.00017
1.00048
1.00099
1.00279
1.00558
1.01638
1.03073
0.999991
0.99999
0.99999
0.99999
0.99999
0.99999
0.99999
0.99999
0.99999
0.99999
0.99999
0.999991
0.999991
0.999992
0.999996
1
1.00002
1.00005
1.00017
1.00035
1.00101
1.00203
1.00605
1.0111
1.03793
0.999991
0.99999
0.99999
0.99999
0.99999
0.99999
0.99999
0.99999
0.99999
0.99999
0.99999
0.999991
0.999991
0.999992
0.999995
1
1.00002
1.00006
1.00013
1.0004
1.00081
1.00237
1.00465
1.01462
1.02595
0.999991
0.99999
0.99999
0.99999
0.99999
0.99999
0.99999
0.99999
0.99999
0.99999
0.99999
0.999991
0.999991
0.999992
0.999995
1
1.00002
1.00005
1.00016
1.00033
1.00096
1.00195
1.0057
1.01107
1.03553
0.999991
0.99999
0.99999
0.99999
0.99999
0.99999
0.99999
0.99999
0.99999
0.99999
0.99999
0.999991
0.999991
0.999992
0.999995
1
1.00002
1.00005
1.00016
1.00033
1.00095
1.00193
1.00565
1.01096
1.03529
0.999991
0.99999
0.99999
0.99999
0.99999
0.99999
0.99999
0.99999
0.99999
0.99999
0.99999
0.999991
0.999991
0.999992
0.999994
1
1.00001
1.00006
1.00013
1.00039
1.00081
1.00235
1.00471
1.0142
1.0268
0.999991
0.99999
0.99999
0.99999
0.99999
0.99999
0.99999
0.99999
0.99999
0.99999
0.99999
0.999991
0.999991
0.999992
0.999995
1
1.00002
1.00006
1.00014
1.00041
1.00084
1.00242
1.0049
1.01432
1.02826
1
1.00002
1.00004
1.00013
1.00027
1.00076
1.00155
1.00445
1.00872
1.02708
1.04844
1.17528
1.31758
2.18628
3.84385
9.05657
10.3996
10.2835
10.0967
10.0724
10.0511
9.96106
9.71
9.12431
7.64693
1
1.00002
1.00004
1.00011
1.00023
1.00066
1.00134
1.00383
1.00753
1.02316
1.04148
1.15009
1.2654
2.01231
3.3616
7.90234
10.307
10.189
9.92992
9.82864
9.74574
9.56167
9.16592
8.37208
6.86081
1
1.00001
1.00003
1.0001
1.0002
1.00057
1.00116
1.00329
1.00656
1.01953
1.03623
1.12451
1.22346
1.82651
2.91344
6.65372
10.233
10.0979
9.77685
9.58633
9.4455
9.1841
8.69989
7.89318
6.69548
1
1.00001
1.00003
1.00008
1.00017
1.00048
1.00098
1.00275
1.00555
1.01598
1.03146
1.09763
1.18776
1.63607
2.47955
5.30339
10.0435
9.95511
9.65175
9.36111
9.15801
8.8562
8.35971
7.61984
6.66859
1
1.00001
1.00002
1.00007
1.00014
1.00039
1.00079
1.00224
1.00452
1.01301
1.02571
1.07884
1.15278
1.50651
2.16635
4.4437
9.41055
9.68476
9.50119
9.15543
8.90144
8.58036
8.11022
7.45294
6.6528
1
1.00001
1.00002
1.00005
1.00013
1.00026
1.00073
1.00149
1.00424
1.00827
1.02567
1.04558
1.16442
1.29495
2.09951
3.58081
8.15504
9.40853
9.29033
8.99905
8.68762
8.35051
7.91084
7.32548
6.63129
1
1.00001
1.00002
1.00004
1.0001
1.00021
1.0006
1.00121
1.00342
1.00677
1.02042
1.03707
1.13052
1.23083
1.85747
2.96425
6.6243
9.1928
9.12271
8.88298
8.5168
8.16179
7.74476
7.21873
6.60591
1
1
1.00001
1.00003
1.00008
1.00017
1.00047
1.00096
1.00269
1.00543
1.01565
1.0308
1.09547
1.18437
1.61795
2.42903
5.07765
8.90962
8.97048
8.79465
8.40843
8.01146
7.60598
7.13024
6.58675
1
1
1.00001
1.00003
1.00005
1.00015
1.0003
1.00084
1.0017
1.00481
1.00951
1.02873
1.05255
1.18124
1.34215
2.17847