/*--------------------------------*- C++ -*----------------------------------*\
| =========                 |                                                 |
| \\      /  F ield         | OpenFOAM: The Open Source CFD Toolbox           |
|  \\    /   O peration     | Version:  4.1                                   |
|   \\  /    A nd           | Web:      www.OpenFOAM.org                      |
|    \\/     M anipulation  |                                                 |
\*---------------------------------------------------------------------------*/
FoamFile
{
    version     2.0;
    format      ascii;
    class       volScalarField;
    location    "8.46";
    object      Ma;
}
// * * * * * * * * * * * * * * * * * * * * * * * * * * * * * * * * * * * * * //

dimensions      [0 0 0 0 0 0 0];

internalField   nonuniform List<scalar> 
52500
(
3.00001
2.99996
2.99988
2.99959
2.99919
2.99753
2.99518
2.98595
2.97141
2.92204
2.81706
2.56215
1.95381
1.05284
0.434619
0.321208
0.343829
0.34535
0.314566
0.262551
0.211152
0.168667
0.126678
0.0799982
0.045999
3.00001
2.99996
2.99989
2.9996
2.9992
2.99756
2.99524
2.9861
2.97172
2.92284
2.81873
2.56657
1.96103
1.0625
0.440869
0.321894
0.345062
0.347112
0.316619
0.265381
0.215264
0.174341
0.134676
0.0934911
0.0694861
3.00001
2.99996
2.99989
2.99961
2.99922
2.99761
2.99534
2.98641
2.97234
2.92448
2.82226
2.57582
1.97684
1.0841
0.455385
0.32461
0.349135
0.352684
0.323272
0.274246
0.227309
0.190218
0.156022
0.123975
0.108869
3.00001
2.99996
2.99989
2.99962
2.99924
2.9977
2.9955
2.98688
2.97329
2.92698
2.82765
2.5899
2.0015
1.11836
0.477736
0.328713
0.355702
0.361876
0.334354
0.288581
0.246174
0.21408
0.186108
0.162055
0.152092
3.00001
2.99996
2.9999
2.99964
2.99928
2.99782
2.99574
2.98763
2.97456
2.93082
2.83445
2.6085
2.03505
1.16641
0.507596
0.333803
0.364371
0.37411
0.349028
0.307354
0.269922
0.243463
0.221565
0.203829
0.197584
3.00002
2.99997
2.99991
2.99967
2.99933
2.99797
2.99601
2.98852
2.9761
2.93558
2.8439
2.63211
2.07789
1.22966
0.544191
0.339253
0.374536
0.388933
0.366642
0.330145
0.298182
0.277405
0.261911
0.250382
0.247759
3.00002
2.99997
2.99992
2.9997
2.99939
2.99812
2.99631
2.9894
2.97789
2.94051
2.85575
2.6588
2.13772
1.31285
0.591161
0.348526
0.388189
0.407212
0.387685
0.356293
0.330756
0.316201
0.307291
0.302875
0.306198
3.00002
2.99998
2.99993
2.99972
2.99943
2.99827
2.99661
2.99011
2.97986
2.94491
2.87058
2.68806
2.21986
1.42238
0.65213
0.367419
0.409141
0.431432
0.41385
0.387106
0.367398
0.359856
0.358954
0.363805
0.377855
3.00002
2.99998
2.99994
2.99975
2.99949
2.99843
2.99694
2.99097
2.98197
2.94972
2.88774
2.7214
2.31494
1.55843
0.725142
0.399406
0.440057
0.462448
0.446235
0.424433
0.410071
0.408643
0.417077
0.436939
0.474643
3.00002
2.99999
2.99995
2.99979
2.99956
2.99864
2.99731
2.99215
2.98414
2.95603
2.9028
2.75342
2.41004
1.69006
0.811841
0.448912
0.482115
0.497166
0.484089
0.467106
0.45844
0.463181
0.484994
0.532071
0.634095
2.99999
2.99994
2.99987
2.99958
2.99917
2.99751
2.99516
2.98593
2.97139
2.92201
2.81703
2.56208
1.95375
1.05271
0.434446
0.321029
0.343653
0.345168
0.314363
0.262304
0.21084
0.168271
0.126141
0.0791305
0.0444482
2.99999
2.99994
2.99987
2.99958
2.99918
2.99754
2.99521
2.98608
2.97169
2.9228
2.8187
2.5665
1.96096
1.06236
0.440699
0.321716
0.344888
0.346933
0.31642
0.26514
0.214962
0.173962
0.134177
0.0927603
0.0684849
2.99999
2.99994
2.99987
2.99959
2.9992
2.99759
2.99532
2.98639
2.97231
2.92445
2.82223
2.57575
1.97677
1.08397
0.455221
0.324436
0.348965
0.35251
0.323079
0.274016
0.227028
0.189876
0.155598
0.123433
0.108243
2.99999
2.99994
2.99988
2.9996
2.99922
2.99768
2.99548
2.98686
2.97326
2.92694
2.82762
2.58983
2.00143
1.11822
0.477578
0.328542
0.355536
0.361708
0.33417
0.288366
0.245918
0.213782
0.185759
0.161649
0.151653
3
2.99995
2.99988
2.99962
2.99927
2.9978
2.99571
2.9876
2.97454
2.93078
2.83442
2.60843
2.035
1.16628
0.507455
0.333644
0.364216
0.373952
0.348857
0.307157
0.269694
0.243206
0.221279
0.203513
0.197254
3
2.99995
2.99989
2.99965
2.99931
2.99795
2.99599
2.98849
2.97608
2.93554
2.84386
2.63203
2.0778
1.22951
0.544047
0.33909
0.37438
0.388779
0.366479
0.329964
0.297979
0.277185
0.261675
0.250132
0.247502
3
2.99996
2.9999
2.99968
2.99937
2.9981
2.99629
2.98938
2.97787
2.94047
2.85571
2.65873
2.13763
1.31269
0.591021
0.348359
0.388032
0.40706
0.387529
0.356125
0.330576
0.316011
0.307095
0.302675
0.305997
3
2.99996
2.99991
2.9997
2.99942
2.99825
2.99659
2.99008
2.97984
2.94487
2.87055
2.68799
2.21981
1.42224
0.652012
0.367263
0.408993
0.43129
0.413704
0.386952
0.367237
0.359693
0.358792
0.363645
0.3777
3
2.99996
2.99992
2.99973
2.99947
2.99841
2.99692
2.99094
2.98195
2.94969
2.88771
2.72134
2.31486
1.55827
0.725027
0.399252
0.439916
0.462315
0.4461
0.424293
0.409928
0.408502
0.416941
0.436812
0.474527
3
2.99997
2.99993
2.99977
2.99954
2.99862
2.99729
2.99213
2.98412
2.956
2.90276
2.75336
2.40997
1.68994
0.811725
0.448764
0.481991
0.497048
0.483967
0.466981
0.458314
0.46306
0.484881
0.531971
0.634017
2.99999
2.99994
2.99987
2.99958
2.99917
2.99751
2.99516
2.98593
2.97139
2.922
2.81703
2.56207
1.95374
1.0527
0.434442
0.32103
0.343654
0.345169
0.314363
0.262304
0.21084
0.168271
0.126141
0.0791305
0.0444482
2.99999
2.99994
2.99987
2.99958
2.99918
2.99754
2.99521
2.98608
2.97169
2.9228
2.8187
2.5665
1.96096
1.06236
0.440695
0.321717
0.344889
0.346933
0.31642
0.26514
0.214962
0.173962
0.134177
0.0927603
0.0684849
2.99999
2.99994
2.99987
2.99959
2.9992
2.99759
2.99532
2.98639
2.97231
2.92445
2.82223
2.57575
1.97677
1.08396
0.455218
0.324438
0.348966
0.35251
0.323079
0.274016
0.227028
0.189876
0.155598
0.123433
0.108243
2.99999
2.99994
2.99988
2.9996
2.99922
2.99768
2.99548
2.98686
2.97326
2.92694
2.82762
2.58983
2.00143
1.11822
0.477574
0.328544
0.355537
0.361708
0.33417
0.288366
0.245918
0.213782
0.185759
0.161649
0.151653
3
2.99995
2.99988
2.99962
2.99927
2.9978
2.99571
2.9876
2.97454
2.93077
2.83442
2.60843
2.03499
1.16628
0.507451
0.333646
0.364216
0.373952
0.348857
0.307157
0.269694
0.243207
0.221279
0.203513
0.197254
3
2.99995
2.99989
2.99965
2.99931
2.99795
2.99599
2.98849
2.97608
2.93554
2.84386
2.63203
2.0778
1.2295
0.544044
0.339091
0.374381
0.388779
0.366479
0.329965
0.297979
0.277185
0.261676
0.250132
0.247503
3
2.99996
2.9999
2.99968
2.99937
2.9981
2.99629
2.98938
2.97787
2.94047
2.85571
2.65873
2.13762
1.31268
0.591016
0.348359
0.388032
0.40706
0.387529
0.356125
0.330576
0.316011
0.307095
0.302675
0.305998
3
2.99996
2.99991
2.9997
2.99942
2.99825
2.99659
2.99008
2.97984
2.94487
2.87055
2.68799
2.2198
1.42222
0.652007
0.367263
0.408992
0.431289
0.413704
0.386952
0.367237
0.359694
0.358792
0.363645
0.3777
3
2.99996
2.99992
2.99973
2.99947
2.99841
2.99692
2.99094
2.98195
2.94969
2.88771
2.72134
2.31485
1.55826
0.725021
0.39925
0.439914
0.462314
0.446099
0.424293
0.409927
0.408502
0.416941
0.436812
0.474527
3
2.99997
2.99993
2.99977
2.99954
2.99862
2.99729
2.99213
2.98412
2.956
2.90276
2.75336
2.40996
1.68993
0.811718
0.448762
0.48199
0.497047
0.483966
0.46698
0.458314
0.463059
0.484881
0.531971
0.634017
2.99999
2.99994
2.99987
2.99958
2.99917
2.99751
2.99516
2.98593
2.97139
2.922
2.81703
2.56207
1.95374
1.0527
0.434442
0.32103
0.343654
0.345169
0.314363
0.262304
0.21084
0.168271
0.126141
0.0791305
0.0444482
2.99999
2.99994
2.99987
2.99958
2.99918
2.99754
2.99521
2.98608
2.97169
2.9228
2.8187
2.5665
1.96096
1.06236
0.440695
0.321718
0.344889
0.346933
0.31642
0.26514
0.214962
0.173962
0.134177
0.0927603
0.0684849
2.99999
2.99994
2.99987
2.99959
2.9992
2.99759
2.99532
2.98639
2.97231
2.92445
2.82223
2.57575
1.97677
1.08396
0.455218
0.324438
0.348966
0.35251
0.323079
0.274016
0.227028
0.189876
0.155598
0.123433
0.108243
2.99999
2.99994
2.99988
2.9996
2.99922
2.99768
2.99548
2.98686
2.97326
2.92694
2.82762
2.58983
2.00143
1.11822
0.477574
0.328544
0.355537
0.361708
0.33417
0.288366
0.245918
0.213782
0.185759
0.161649
0.151653
3
2.99995
2.99988
2.99962
2.99927
2.9978
2.99571
2.9876
2.97454
2.93077
2.83442
2.60843
2.03499
1.16627
0.507451
0.333646
0.364216
0.373952
0.348857
0.307157
0.269694
0.243207
0.221279
0.203513
0.197254
3
2.99995
2.99989
2.99965
2.99931
2.99795
2.99599
2.98849
2.97608
2.93554
2.84386
2.63203
2.0778
1.2295
0.544043
0.339091
0.374381
0.388779
0.366479
0.329965
0.297979
0.277185
0.261676
0.250132
0.247503
3
2.99996
2.9999
2.99968
2.99937
2.9981
2.99629
2.98938
2.97787
2.94047
2.85571
2.65873
2.13762
1.31268
0.591016
0.348359
0.388032
0.40706
0.387529
0.356125
0.330576
0.316011
0.307095
0.302675
0.305998
3
2.99996
2.99991
2.9997
2.99942
2.99825
2.99659
2.99008
2.97984
2.94487
2.87055
2.68799
2.2198
1.42222
0.652006
0.367263
0.408992
0.431289
0.413703
0.386952
0.367237
0.359694
0.358792
0.363645
0.3777
3
2.99996
2.99992
2.99973
2.99947
2.99841
2.99692
2.99094
2.98195
2.94969
2.88771
2.72134
2.31485
1.55826
0.725021
0.399249
0.439914
0.462313
0.446099
0.424293
0.409927
0.408502
0.416941
0.436812
0.474527
3
2.99997
2.99993
2.99977
2.99954
2.99862
2.99729
2.99213
2.98412
2.956
2.90276
2.75336
2.40996
1.68993
0.811718
0.448761
0.481989
0.497047
0.483966
0.46698
0.458314
0.463059
0.484881
0.531971
0.634017
2.99999
2.99994
2.99987
2.99958
2.99917
2.99751
2.99516
2.98593
2.97139
2.922
2.81703
2.56207
1.95374
1.0527
0.434442
0.32103
0.343654
0.345169
0.314363
0.262304
0.21084
0.168271
0.126141
0.0791305
0.0444482
2.99999
2.99994
2.99987
2.99958
2.99918
2.99754
2.99521
2.98608
2.97169
2.9228
2.8187
2.5665
1.96096
1.06236
0.440695
0.321718
0.344889
0.346933
0.31642
0.26514
0.214962
0.173962
0.134177
0.0927604
0.068485
2.99999
2.99994
2.99987
2.99959
2.9992
2.99759
2.99532
2.98639
2.97231
2.92445
2.82223
2.57575
1.97677
1.08396
0.455217
0.324438
0.348966
0.35251
0.323079
0.274016
0.227028
0.189876
0.155598
0.123433
0.108243
2.99999
2.99994
2.99988
2.9996
2.99922
2.99768
2.99548
2.98686
2.97326
2.92694
2.82762
2.58983
2.00143
1.11821
0.477573
0.328544
0.355537
0.361708
0.33417
0.288366
0.245918
0.213782
0.185759
0.161649
0.151653
3
2.99995
2.99988
2.99962
2.99927
2.9978
2.99571
2.9876
2.97454
2.93077
2.83442
2.60843
2.03499
1.16627
0.507451
0.333646
0.364216
0.373952
0.348857
0.307157
0.269694
0.243207
0.221279
0.203513
0.197254
3
2.99995
2.99989
2.99965
2.99931
2.99795
2.99599
2.98849
2.97608
2.93554
2.84386
2.63203
2.0778
1.2295
0.544043
0.339091
0.374381
0.388779
0.366479
0.329965
0.297979
0.277185
0.261676
0.250132
0.247503
3
2.99996
2.9999
2.99968
2.99937
2.9981
2.99629
2.98938
2.97787
2.94047
2.85571
2.65873
2.13762
1.31268
0.591015
0.348359
0.388032
0.40706
0.387529
0.356125
0.330576
0.316011
0.307095
0.302675
0.305998
3
2.99996
2.99991
2.9997
2.99942
2.99825
2.99659
2.99008
2.97984
2.94487
2.87055
2.68799
2.2198
1.42222
0.652006
0.367263
0.408992
0.431289
0.413703
0.386952
0.367237
0.359694
0.358792
0.363645
0.3777
3
2.99996
2.99992
2.99973
2.99947
2.99841
2.99692
2.99094
2.98195
2.94969
2.8877
2.72134
2.31485
1.55826
0.72502
0.399249
0.439914
0.462313
0.446099
0.424293
0.409927
0.408502
0.416941
0.436812
0.474527
3
2.99997
2.99993
2.99977
2.99954
2.99862
2.99729
2.99213
2.98412
2.956
2.90276
2.75336
2.40996
1.68993
0.811717
0.448761
0.481989
0.497046
0.483966
0.46698
0.458314
0.463059
0.484881
0.531971
0.634017
2.99999
2.99994
2.99987
2.99958
2.99917
2.99751
2.99516
2.98593
2.97139
2.922
2.81703
2.56207
1.95374
1.0527
0.434441
0.32103
0.343654
0.345169
0.314363
0.262304
0.21084
0.168271
0.126141
0.0791305
0.0444482
2.99999
2.99994
2.99987
2.99958
2.99918
2.99754
2.99521
2.98608
2.97169
2.9228
2.8187
2.5665
1.96096
1.06235
0.440694
0.321718
0.344889
0.346933
0.31642
0.26514
0.214962
0.173962
0.134177
0.0927604
0.068485
2.99999
2.99994
2.99987
2.99959
2.9992
2.99759
2.99532
2.98639
2.97231
2.92445
2.82223
2.57575
1.97677
1.08396
0.455217
0.324438
0.348966
0.35251
0.323079
0.274016
0.227028
0.189876
0.155598
0.123433
0.108243
2.99999
2.99994
2.99988
2.9996
2.99922
2.99768
2.99548
2.98686
2.97326
2.92694
2.82762
2.58983
2.00143
1.11821
0.477573
0.328544
0.355537
0.361708
0.33417
0.288366
0.245918
0.213782
0.185759
0.161649
0.151653
3
2.99995
2.99988
2.99962
2.99927
2.9978
2.99571
2.9876
2.97454
2.93077
2.83442
2.60843
2.03499
1.16627
0.50745
0.333646
0.364216
0.373952
0.348857
0.307157
0.269694
0.243207
0.221279
0.203513
0.197254
3
2.99995
2.99989
2.99965
2.99931
2.99795
2.99599
2.98849
2.97608
2.93554
2.84386
2.63203
2.0778
1.2295
0.544043
0.339091
0.374381
0.388779
0.366479
0.329965
0.297979
0.277185
0.261676
0.250132
0.247503
3
2.99996
2.9999
2.99968
2.99937
2.9981
2.99629
2.98938
2.97787
2.94047
2.85571
2.65873
2.13762
1.31268
0.591015
0.34836
0.388032
0.40706
0.387529
0.356125
0.330576
0.316011
0.307095
0.302675
0.305998
3
2.99996
2.99991
2.9997
2.99942
2.99825
2.99659
2.99008
2.97984
2.94487
2.87055
2.68799
2.2198
1.42222
0.652005
0.367263
0.408992
0.431289
0.413703
0.386952
0.367237
0.359694
0.358792
0.363645
0.3777
3
2.99996
2.99992
2.99973
2.99947
2.99841
2.99692
2.99094
2.98195
2.94969
2.8877
2.72134
2.31485
1.55826
0.72502
0.399249
0.439914
0.462313
0.446099
0.424293
0.409927
0.408502
0.416941
0.436812
0.474527
3
2.99997
2.99993
2.99977
2.99954
2.99862
2.99729
2.99213
2.98412
2.956
2.90276
2.75336
2.40996
1.68993
0.811717
0.448761
0.481989
0.497046
0.483966
0.46698
0.458314
0.463059
0.484881
0.531971
0.634017
2.99999
2.99994
2.99987
2.99958
2.99917
2.99751
2.99516
2.98593
2.97139
2.922
2.81703
2.56207
1.95374
1.0527
0.434442
0.32103
0.343654
0.345169
0.314363
0.262304
0.21084
0.168271
0.126141
0.0791305
0.0444482
2.99999
2.99994
2.99987
2.99958
2.99918
2.99754
2.99521
2.98608
2.97169
2.9228
2.8187
2.5665
1.96096
1.06236
0.440695
0.321718
0.344889
0.346933
0.31642
0.26514
0.214962
0.173962
0.134177
0.0927604
0.0684849
2.99999
2.99994
2.99987
2.99959
2.9992
2.99759
2.99532
2.98639
2.97231
2.92445
2.82223
2.57575
1.97677
1.08396
0.455217
0.324438
0.348966
0.35251
0.323079
0.274016
0.227028
0.189876
0.155598
0.123433
0.108243
2.99999
2.99994
2.99988
2.9996
2.99922
2.99768
2.99548
2.98686
2.97326
2.92694
2.82762
2.58983
2.00143
1.11821
0.477574
0.328544
0.355537
0.361708
0.33417
0.288366
0.245918
0.213782
0.185759
0.161649
0.151653
3
2.99995
2.99988
2.99962
2.99927
2.9978
2.99571
2.9876
2.97454
2.93077
2.83442
2.60843
2.03499
1.16627
0.507451
0.333646
0.364216
0.373952
0.348857
0.307157
0.269694
0.243207
0.221279
0.203513
0.197254
3
2.99995
2.99989
2.99965
2.99931
2.99795
2.99599
2.98849
2.97608
2.93554
2.84386
2.63203
2.0778
1.2295
0.544043
0.339091
0.374381
0.388779
0.366479
0.329965
0.297979
0.277185
0.261676
0.250132
0.247503
3
2.99996
2.9999
2.99968
2.99937
2.9981
2.99629
2.98938
2.97787
2.94047
2.85571
2.65873
2.13762
1.31268
0.591016
0.348359
0.388032
0.40706
0.387529
0.356125
0.330576
0.316011
0.307095
0.302675
0.305998
3
2.99996
2.99991
2.9997
2.99942
2.99825
2.99659
2.99008
2.97984
2.94487
2.87055
2.68799
2.2198
1.42222
0.652006
0.367263
0.408992
0.431289
0.413703
0.386952
0.367237
0.359694
0.358792
0.363645
0.3777
3
2.99996
2.99992
2.99973
2.99947
2.99841
2.99692
2.99094
2.98195
2.94969
2.8877
2.72134
2.31485
1.55826
0.72502
0.399249
0.439914
0.462313
0.446099
0.424293
0.409927
0.408502
0.416941
0.436812
0.474527
3
2.99997
2.99993
2.99977
2.99954
2.99862
2.99729
2.99213
2.98412
2.956
2.90276
2.75336
2.40996
1.68993
0.811717
0.448761
0.481989
0.497047
0.483966
0.46698
0.458314
0.463059
0.484881
0.531971
0.634017
2.99999
2.99994
2.99987
2.99958
2.99917
2.99751
2.99516
2.98593
2.97139
2.922
2.81703
2.56207
1.95374
1.0527
0.434442
0.32103
0.343654
0.345169
0.314363
0.262304
0.21084
0.168271
0.126141
0.0791305
0.0444482
2.99999
2.99994
2.99987
2.99958
2.99918
2.99754
2.99521
2.98608
2.97169
2.9228
2.8187
2.5665
1.96096
1.06236
0.440695
0.321717
0.344889
0.346933
0.31642
0.26514
0.214962
0.173962
0.134177
0.0927603
0.0684849
2.99999
2.99994
2.99987
2.99959
2.9992
2.99759
2.99532
2.98639
2.97231
2.92445
2.82223
2.57575
1.97677
1.08396
0.455218
0.324438
0.348966
0.35251
0.323079
0.274016
0.227028
0.189876
0.155598
0.123433
0.108243
2.99999
2.99994
2.99988
2.9996
2.99922
2.99768
2.99548
2.98686
2.97326
2.92694
2.82762
2.58983
2.00143
1.11822
0.477574
0.328544
0.355537
0.361708
0.33417
0.288366
0.245918
0.213782
0.185759
0.161649
0.151653
3
2.99995
2.99988
2.99962
2.99927
2.9978
2.99571
2.9876
2.97454
2.93077
2.83442
2.60843
2.03499
1.16628
0.507451
0.333646
0.364216
0.373952
0.348857
0.307157
0.269694
0.243207
0.221279
0.203513
0.197254
3
2.99995
2.99989
2.99965
2.99931
2.99795
2.99599
2.98849
2.97608
2.93554
2.84386
2.63203
2.0778
1.2295
0.544043
0.339091
0.374381
0.388779
0.366479
0.329965
0.297979
0.277185
0.261676
0.250132
0.247503
3
2.99996
2.9999
2.99968
2.99937
2.9981
2.99629
2.98938
2.97787
2.94047
2.85571
2.65873
2.13762
1.31268
0.591016
0.348359
0.388032
0.40706
0.387529
0.356125
0.330576
0.316011
0.307095
0.302675
0.305998
3
2.99996
2.99991
2.9997
2.99942
2.99825
2.99659
2.99008
2.97984
2.94487
2.87055
2.68799
2.2198
1.42222
0.652007
0.367263
0.408992
0.431289
0.413704
0.386952
0.367237
0.359694
0.358792
0.363645
0.3777
3
2.99996
2.99992
2.99973
2.99947
2.99841
2.99692
2.99094
2.98195
2.94969
2.88771
2.72134
2.31485
1.55826
0.725021
0.39925
0.439914
0.462313
0.446099
0.424293
0.409927
0.408502
0.416941
0.436812
0.474527
3
2.99997
2.99993
2.99977
2.99954
2.99862
2.99729
2.99213
2.98412
2.956
2.90276
2.75336
2.40996
1.68993
0.811718
0.448762
0.48199
0.497047
0.483966
0.46698
0.458314
0.463059
0.484881
0.531971
0.634017
2.99999
2.99994
2.99987
2.99958
2.99917
2.99751
2.99516
2.98593
2.97139
2.92201
2.81703
2.56208
1.95375
1.05271
0.434446
0.321029
0.343653
0.345168
0.314363
0.262304
0.21084
0.168271
0.126141
0.0791305
0.0444482
2.99999
2.99994
2.99987
2.99958
2.99918
2.99754
2.99521
2.98608
2.97169
2.9228
2.8187
2.5665
1.96096
1.06236
0.440699
0.321716
0.344888
0.346933
0.31642
0.26514
0.214962
0.173962
0.134177
0.0927603
0.0684849
2.99999
2.99994
2.99987
2.99959
2.9992
2.99759
2.99532
2.98639
2.97231
2.92445
2.82223
2.57575
1.97677
1.08397
0.455221
0.324436
0.348965
0.35251
0.323079
0.274016
0.227028
0.189876
0.155598
0.123433
0.108243
2.99999
2.99994
2.99988
2.9996
2.99922
2.99768
2.99548
2.98686
2.97326
2.92694
2.82762
2.58983
2.00143
1.11822
0.477578
0.328542
0.355536
0.361708
0.33417
0.288366
0.245918
0.213782
0.185759
0.161649
0.151653
3
2.99995
2.99988
2.99962
2.99927
2.9978
2.99571
2.9876
2.97454
2.93078
2.83442
2.60843
2.035
1.16628
0.507455
0.333644
0.364216
0.373952
0.348857
0.307157
0.269694
0.243206
0.221279
0.203513
0.197254
3
2.99995
2.99989
2.99965
2.99931
2.99795
2.99599
2.98849
2.97608
2.93554
2.84386
2.63203
2.0778
1.22951
0.544047
0.33909
0.37438
0.388779
0.366479
0.329964
0.297979
0.277185
0.261675
0.250132
0.247502
3
2.99996
2.9999
2.99968
2.99937
2.9981
2.99629
2.98938
2.97787
2.94047
2.85571
2.65873
2.13763
1.31269
0.591021
0.348359
0.388032
0.40706
0.387529
0.356125
0.330576
0.316011
0.307095
0.302675
0.305997
3
2.99996
2.99991
2.9997
2.99942
2.99825
2.99659
2.99008
2.97984
2.94487
2.87055
2.68799
2.21981
1.42224
0.652012
0.367263
0.408993
0.43129
0.413704
0.386952
0.367237
0.359693
0.358792
0.363645
0.3777
3
2.99996
2.99992
2.99973
2.99947
2.99841
2.99692
2.99094
2.98195
2.94969
2.88771
2.72134
2.31486
1.55827
0.725027
0.399252
0.439916
0.462315
0.4461
0.424293
0.409928
0.408502
0.416941
0.436812
0.474527
3
2.99997
2.99993
2.99977
2.99954
2.99862
2.99729
2.99213
2.98412
2.956
2.90276
2.75336
2.40997
1.68994
0.811725
0.448764
0.481991
0.497048
0.483967
0.466981
0.458314
0.46306
0.484881
0.531971
0.634017
3.00001
2.99996
2.99988
2.99959
2.99919
2.99753
2.99518
2.98595
2.97141
2.92204
2.81706
2.56215
1.95381
1.05284
0.434619
0.321208
0.343829
0.34535
0.314566
0.262551
0.211152
0.168667
0.126678
0.0799982
0.045999
3.00001
2.99996
2.99989
2.9996
2.9992
2.99756
2.99524
2.9861
2.97172
2.92284
2.81873
2.56658
1.96103
1.0625
0.440869
0.321894
0.345062
0.347112
0.316619
0.265381
0.215264
0.174341
0.134676
0.0934911
0.0694861
3.00001
2.99996
2.99989
2.99961
2.99922
2.99761
2.99534
2.98641
2.97234
2.92448
2.82226
2.57582
1.97684
1.0841
0.455385
0.32461
0.349135
0.352684
0.323272
0.274246
0.227309
0.190218
0.156022
0.123975
0.108869
3.00001
2.99996
2.99989
2.99962
2.99924
2.9977
2.9955
2.98688
2.97329
2.92698
2.82765
2.5899
2.0015
1.11836
0.477736
0.328713
0.355702
0.361876
0.334354
0.288581
0.246174
0.21408
0.186108
0.162055
0.152092
3.00001
2.99996
2.9999
2.99964
2.99928
2.99782
2.99574
2.98763
2.97456
2.93082
2.83445
2.6085
2.03505
1.16641
0.507596
0.333803
0.364371
0.37411
0.349028
0.307354
0.269922
0.243463
0.221565
0.203829
0.197584
3.00002
2.99997
2.99991
2.99967
2.99933
2.99797
2.99601
2.98852
2.9761
2.93558
2.8439
2.63211
2.07789
1.22966
0.544191
0.339253
0.374536
0.388933
0.366642
0.330145
0.298182
0.277405
0.261911
0.250382
0.247759
3.00002
2.99997
2.99992
2.9997
2.99939
2.99812
2.99631
2.9894
2.97789
2.94051
2.85575
2.6588
2.13772
1.31285
0.591161
0.348526
0.388189
0.407212
0.387685
0.356293
0.330756
0.316201
0.307291
0.302875
0.306198
3.00002
2.99998
2.99993
2.99972
2.99943
2.99827
2.99661
2.99011
2.97986
2.94491
2.87058
2.68806
2.21986
1.42238
0.65213
0.367419
0.409141
0.431432
0.41385
0.387106
0.367398
0.359856
0.358954
0.363805
0.377855
3.00002
2.99998
2.99994
2.99975
2.99949
2.99843
2.99694
2.99097
2.98197
2.94972
2.88774
2.72141
2.31494
1.55843
0.725142
0.399407
0.440057
0.462448
0.446235
0.424433
0.410071
0.408643
0.417077
0.436939
0.474643
3.00002
2.99999
2.99995
2.99979
2.99956
2.99864
2.99731
2.99215
2.98414
2.95603
2.9028
2.75342
2.41004
1.69006
0.811842
0.448913
0.482115
0.497166
0.484089
0.467106
0.45844
0.463181
0.484994
0.532071
0.634095
3.00002
3
2.99994
2.99986
2.99953
2.99906
2.99722
2.99443
2.98444
2.96637
2.91206
2.78171
2.4972
1.83328
0.931781
0.510823
0.520324
0.52873
0.524945
0.51281
0.509505
0.52262
0.562321
0.646124
0.813454
3.00002
3
2.99995
2.99988
2.99958
2.99917
2.99748
2.99509
2.98563
2.97095
2.92069
2.81574
2.5567
1.95544
1.07458
0.590851
0.545364
0.556632
0.562141
0.557872
0.561015
0.583005
0.63617
0.734355
0.89919
3.00002
3.00001
2.99996
2.9999
2.99965
2.9993
2.99787
2.99584
2.98795
2.97528
2.9329
2.83992
2.62196
2.06867
1.22828
0.674987
0.563464
0.578679
0.594176
0.599938
0.610369
0.639134
0.696901
0.789554
0.923528
3.00002
3.00001
2.99997
2.99992
2.99971
2.99942
2.99823
2.99652
2.99004
2.97925
2.94432
2.86553
2.68199
2.1955
1.41088
0.768191
0.583482
0.600863
0.621573
0.637769
0.655698
0.688115
0.743254
0.823937
0.934708
3.00002
3.00001
2.99998
2.99994
2.99976
2.99951
2.99851
2.99707
2.99144
2.98275
2.95221
2.89337
2.733
2.35476
1.60975
0.887542
0.626212
0.634389
0.652422
0.672824
0.695459
0.729775
0.782302
0.851092
0.943374
3.00002
3.00001
3
2.99994
2.99986
2.99953
2.99906
2.99724
2.99446
2.98461
2.96664
2.91342
2.78514
2.50702
1.87275
1.03742
0.691981
0.679413
0.692316
0.711307
0.732502
0.764673
0.814659
0.877249
0.953623
3.00002
3.00001
3
2.99996
2.99989
2.99962
2.99923
2.99768
2.99549
2.98681
2.97339
2.92736
2.83106
2.59767
2.03463
1.20661
0.769771
0.713856
0.727278
0.745437
0.767979
0.796995
0.840327
0.898813
0.966603
3.00002
3.00002
3.00001
2.99997
2.99992
2.99971
2.99942
2.99826
2.99652
2.99023
2.97909
2.94483
2.86453
2.68167
2.19461
1.41805
0.875114
0.742621
0.753182
0.771782
0.798123
0.828316
0.865197
0.915614
0.977023
3.00002
3.00002
3.00001
2.99999
2.99993
2.99984
2.99948
2.99893
2.997
2.99355
2.98299
2.95889
2.89969
2.738
2.41948
1.67466
1.02887
0.791797
0.783945
0.79859
0.824281
0.855671
0.891242
0.933006
0.986108
3.00002
3.00002
3.00001
3
2.99995
2.99988
2.99958
2.99916
2.99748
2.99505
2.98579
2.97058
2.92145
2.81348
2.56044
1.98067
1.19092
0.860556
0.823648
0.833626
0.85488
0.882641
0.915156
0.951907
0.995954
3.00003
3.00002
3.00002
3
2.99998
2.99989
2.99976
2.99927
2.99852
2.99588
2.99111
2.97671
2.94334
2.86317
2.64237
2.22422
1.37914
0.954661
0.855364
0.862108
0.881469
0.907811
0.936715
0.969649
1.00706
3.00003
3.00002
3.00002
3.00001
2.99999
2.99992
2.99982
2.99943
2.99886
2.99664
2.99333
2.98142
2.95974
2.89633
2.74042
2.4177
1.70083
1.10416
0.905092
0.89396
0.906825
0.929987
0.956895
0.985619
1.01804
3.00003
3.00003
3.00002
3.00002
3
2.99996
2.99984
2.99967
2.99898
2.99796
2.99412
2.98804
2.9672
2.92839
2.81648
2.578
2.00325
1.27959
0.975364
0.927847
0.934159
0.951984
0.977039
1.00175
1.02905
3.00003
3.00003
3.00002
3.00002
3
2.99998
2.99989
2.99977
2.99927
2.99855
2.99577
2.99157
2.97674
2.94931
2.87166
2.68193
2.28823
1.51898
1.09038
0.965801
0.961063
0.971738
0.99242
1.01545
1.03559
3.00003
3.00003
3.00003
3.00002
3.00001
2.99999
2.99995
2.9998
2.99958
2.99875
2.99751
2.9929
2.98554
2.96084
2.91338
2.78399
2.49393
1.86767
1.23926
1.01995
0.99186
0.995963
1.00884
1.02513
1.03671
3.00003
3.00003
3.00003
3.00002
3.00002
3
2.99997
2.99987
2.99972
2.99912
2.99826
2.99495
2.98996
2.97208
2.94032
2.84899
2.63971
2.17524
1.43522
1.09428
1.02203
1.01676
1.0225
1.02945
1.0298
3.00003
3.00003
3.00003
3.00003
3.00002
3.00001
2.99998
2.99994
2.99976
2.99951
2.99854
2.99711
2.99174
2.98325
2.95484
2.8976
2.75274
2.40275
1.74189
1.21853
1.05609
1.03557
1.03165
1.0277
1.01523
3.00003
3.00003
3.00003
3.00003
3.00002
3.00002
3
2.99997
2.99984
2.99967
2.99899
2.99801
2.99425
2.98849
2.96821
2.93278
2.82396
2.6111
2.05865
1.4115
1.11885
1.05167
1.03135
1.01459
0.991745
3.00003
3.00003
3.00003
3.00003
3.00003
3.00002
3.00001
2.99998
2.99993
2.99974
2.99946
2.99843
2.99684
2.99124
2.98154
2.95164
2.88459
2.7295
2.34068
1.66
1.22013
1.06841
1.01758
0.986034
0.951568
3.00003
3.00003
3.00003
3.00003
3.00003
3.00002
3.00001
3
2.99995
2.99987
2.99956
2.99911
2.99742
2.99487
2.98569
2.9701
2.92224
2.81766
2.57365
2.04828
1.37126
1.08692
0.992395
0.94207
0.906561
3.00003
3.00003
3.00003
3.00003
3.00003
3.00003
3.00002
3.00001
2.99997
2.99992
2.99971
2.9994
2.99822
2.9965
2.99014
2.97953
2.94594
2.87144
2.69963
2.26006
1.56667
1.11058
0.940172
0.874947
0.853645
3.00003
3.00003
3.00003
3.00003
3.00003
3.00003
3.00002
3.00001
3
2.99993
2.99984
2.99949
2.99897
2.997
2.99398
2.98339
2.96447
2.90834
2.77977
2.49166
1.89113
1.18776
0.877989
0.794302
0.796162
3.00003
3.00003
3.00003
3.00003
3.00003
3.00003
3.00002
3.00002
3
2.99995
2.99988
2.9996
2.99919
2.99758
2.99529
2.98624
2.97245
2.9246
2.82934
2.58631
2.0404
1.2452
0.78412
0.681288
0.717115
3.00003
3.00003
3.00003
3.00003
3.00003
3.00003
3.00003
3.00002
3.00001
2.99997
2.99991
2.99968
2.99936
2.99804
2.99618
2.98891
2.97727
2.93844
2.85341
2.65148
2.1337
1.33288
0.704005
0.542995
0.618361
3.00003
3.00003
3.00003
3.00003
3.00003
3.00003
3.00003
3.00002
3.00001
2.99998
2.99993
2.99973
2.99945
2.99834
2.9967
2.99051
2.98007
2.94654
2.86998
2.68899
2.21363
1.41625
0.643477
0.409167
0.525795
3.00003
3.00003
3.00003
3.00003
3.00003
3.00003
3.00003
3.00002
3.00001
2.99999
2.99993
2.99983
2.99947
2.99888
2.99692
2.99287
2.98179
2.95369
2.88846
2.69547
2.32438
1.47715
0.647401
0.332271
0.468124
3.00003
3.00003
3.00003
3.00003
3.00003
3.00003
3.00003
3.00002
3.00002
2.99999
2.99995
2.99979
2.99956
2.99868
2.99728
2.99237
2.98316
2.95537
2.88857
2.7323
2.31792
1.55314
0.631255
0.272199
0.422467
3.00003
3.00003
3.00003
3.00003
3.00003
3.00003
3.00003
3.00002
3.00001
3
2.99994
2.99985
2.9995
2.99898
2.99703
2.99373
2.98301
2.95959
2.89852
2.73284
2.39774
1.6218
0.685514
0.27606
0.408816
3.00003
3.00003
3.00003
3.00003
3.00003
3.00003
3.00003
3.00002
3.00001
3
2.99994
2.99986
2.99951
2.99902
2.99708
2.994
2.98346
2.96192
2.90257
2.74645
2.42268
1.67092
0.714781
0.284658
0.403864
3.00003
3.00003
3.00003
3.00003
3.00003
3.00003
3.00003
3.00002
3.00002
2.99999
2.99996
2.99983
2.99963
2.99885
2.99763
2.99331
2.98519
2.9606
2.90158
2.76233
2.39244
1.67905
0.702614
0.276952
0.388907
3.00003
3.00003
3.00003
3.00003
3.00003
3.00003
3.00003
3.00002
3.00002
3
2.99995
2.99987
2.99957
2.9991
2.99747
2.99434
2.9851
2.96309
2.90852
2.75815
2.45235
1.72419
0.775639
0.318432
0.401983
3.00003
3.00003
3.00003
3.00003
3.00003
3.00003
3.00003
3.00002
3.00002
3
2.99996
2.99983
2.99964
2.99886
2.99771
2.99323
2.98602
2.9607
2.90866
2.77098
2.42667
1.72931
0.75575
0.311824
0.387367
3.00003
3.00003
3.00003
3.00003
3.00003
3.00003
3.00003
3.00002
3.00002
3
2.99996
2.99984
2.99965
2.99889
2.99778
2.99342
2.98637
2.96167
2.91078
2.77562
2.43822
1.74787
0.772742
0.319472
0.380032
3.00003
3.00003
3.00003
3.00003
3.00003
3.00003
3.00003
3.00002
3.00002
3
2.99995
2.99988
2.99959
2.99914
2.99751
2.99465
2.98558
2.96545
2.91286
2.77379
2.48214
1.78544
0.85343
0.369263
0.406079
3.00003
3.00003
3.00003
3.00003
3.00003
3.00003
3.00003
3.00002
3.00002
3
2.99997
2.99985
2.99967
2.99897
2.99787
2.99401
2.98655
2.96451
2.91134
2.78689
2.44866
1.79606
0.810858
0.350484
0.386049
3.00003
3.00003
3.00003
3.00003
3.00003
3.00003
3.00003
3.00002
3.00002
3
2.99995
2.99988
2.9996
2.99916
2.99756
2.99479
2.98591
2.96655
2.91526
2.78123
2.49716
1.81532
0.89196
0.395989
0.411909
3.00003
3.00003
3.00003
3.00003
3.00003
3.00003
3.00003
3.00002
3.00002
3
2.99997
2.99984
2.99966
2.99895
2.99788
2.99391
2.98698
2.9649
2.91425
2.79237
2.464
1.83144
0.838967
0.370358
0.384262
3.00003
3.00003
3.00003
3.00003
3.00003
3.00003
3.00003
3.00002
3.00002
3
2.99997
2.99984
2.99967
2.99896
2.9979
2.994
2.98714
2.96563
2.91561
2.797
2.47029
1.85068
0.851802
0.378133
0.382731
3.00003
3.00003
3.00003
3.00003
3.00003
3.00003
3.00003
3.00002
3.00002
3
2.99995
2.99987
2.99957
2.99913
2.99738
2.99475
2.98504
2.968
2.91466
2.79074
2.50566
1.84711
0.928732
0.41422
0.406516
3.00003
3.00003
3.00003
3.00003
3.00003
3.00003
3.00003
3.00002
3.00002
3
2.99995
2.99987
2.99955
2.99911
2.9973
2.99471
2.98454
2.96822
2.91383
2.79497
2.51128
1.85755
0.934274
0.411852
0.40193
3
2.99998
2.99992
2.99984
2.99951
2.99904
2.9972
2.99441
2.98442
2.96634
2.91203
2.78166
2.49713
1.83317
0.93162
0.510668
0.520212
0.528623
0.524836
0.512699
0.509394
0.522515
0.562228
0.646048
0.813405
3
2.99998
2.99993
2.99986
2.99956
2.99915
2.99746
2.99507
2.98561
2.97092
2.92066
2.8157
2.55662
1.95535
1.07444
0.590716
0.545265
0.556535
0.562043
0.557772
0.560916
0.582913
0.63609
0.734292
0.899146
3
2.99999
2.99994
2.99988
2.99963
2.99928
2.99785
2.99582
2.98793
2.97525
2.93286
2.8399
2.62189
2.0686
1.22813
0.674868
0.563375
0.57859
0.594086
0.599848
0.610281
0.639052
0.69683
0.789496
0.923484
3
2.99999
2.99995