/*--------------------------------*- C++ -*----------------------------------*\
| =========                 |                                                 |
| \\      /  F ield         | OpenFOAM: The Open Source CFD Toolbox           |
|  \\    /   O peration     | Version:  4.1                                   |
|   \\  /    A nd           | Web:      www.OpenFOAM.org                      |
|    \\/     M anipulation  |                                                 |
\*---------------------------------------------------------------------------*/
FoamFile
{
    version     2.0;
    format      ascii;
    class       volScalarField;
    location    "0.48";
    object      Ma;
}
// * * * * * * * * * * * * * * * * * * * * * * * * * * * * * * * * * * * * * //

dimensions      [0 0 0 0 0 0 0];

internalField   nonuniform List<scalar> 
52500
(
3.14026
3.27673
3.27036
3.24391
3.15703
2.85057
1.85844
0.265268
0.427344
0.349683
0.203554
0.237796
0.244752
0.230601
0.204531
0.174024
0.138772
0.106583
0.0740656
0.0423833
0.0301761
0.0343705
0.0472273
0.0372561
0.0466536
3.14042
3.27706
3.2708
3.2449
3.16004
2.86159
1.88854
0.293978
0.428727
0.358806
0.208329
0.240755
0.247204
0.233232
0.207411
0.177737
0.144388
0.115197
0.087888
0.0666454
0.0644315
0.0717985
0.0822918
0.0815881
0.0874261
3.14074
3.27774
3.2717
3.24701
3.16652
2.88527
1.95514
0.363381
0.425638
0.374
0.216579
0.247962
0.254216
0.2411
0.216592
0.1892
0.159796
0.136185
0.116804
0.105324
0.109246
0.120448
0.131471
0.137553
0.142937
3.14119
3.2787
3.27298
3.25001
3.17573
2.91865
2.05065
0.462704
0.421148
0.398631
0.22861
0.25767
0.264363
0.252438
0.229434
0.204931
0.180505
0.162784
0.150409
0.145963
0.154815
0.170251
0.183991
0.195473
0.202816
3.14173
3.27983
3.27448
3.25362
3.18678
2.95828
2.16784
0.593362
0.412329
0.429264
0.245275
0.27053
0.278065
0.267664
0.246389
0.224559
0.205134
0.192876
0.186557
0.1881
0.201189
0.220152
0.237949
0.253044
0.264777
3.14227
3.28102
3.27611
3.25765
3.199
3.00138
2.30243
0.756543
0.394836
0.464479
0.266728
0.28602
0.295094
0.285638
0.266656
0.247202
0.23257
0.225217
0.224599
0.232027
0.248665
0.270849
0.293385
0.311612
0.329891
3.14272
3.28214
3.27774
3.26187
3.21165
3.04461
2.44464
0.973642
0.369927
0.501241
0.293679
0.303514
0.315065
0.305864
0.289962
0.272241
0.261889
0.258915
0.264141
0.277117
0.296879
0.323419
0.351555
0.372847
0.400915
3.14296
3.28304
3.27927
3.26609
3.22411
3.0861
2.58576
1.23939
0.337828
0.535744
0.327647
0.322908
0.337401
0.328149
0.31516
0.298663
0.292288
0.293333
0.305051
0.322322
0.345824
0.377326
0.412522
0.439925
0.482047
3.14275
3.28367
3.28071
3.2701
3.23564
3.12439
2.72378
1.53595
0.311114
0.562297
0.370762
0.343984
0.361517
0.352479
0.34214
0.326058
0.323225
0.328528
0.346562
0.367491
0.39552
0.432381
0.477183
0.516576
0.585438
3.14229
3.28424
3.28217
3.27353
3.24546
3.15794
2.85114
1.85269
0.371996
0.577425
0.425097
0.366057
0.386588
0.37852
0.37038
0.354088
0.354044
0.364925
0.387698
0.412814
0.446104
0.489522
0.548197
0.610383
0.74014
3.14025
3.27671
3.27034
3.24386
3.15689
2.85011
1.85718
0.263984
0.427515
0.349404
0.203423
0.237623
0.244536
0.230386
0.204331
0.173822
0.138536
0.106294
0.0736478
0.0416468
0.0291443
0.033484
0.0465967
0.0365011
0.0460937
3.14041
3.27704
3.27077
3.24486
3.15994
2.86125
1.88776
0.293314
0.428168
0.357944
0.20756
0.240222
0.246788
0.232936
0.207194
0.177541
0.144167
0.114931
0.0875339
0.0661663
0.0639334
0.0713574
0.0819153
0.0812294
0.0871268
3.14073
3.27772
3.27168
3.24696
3.1664
2.88485
1.954
0.362118
0.425921
0.373916
0.2167
0.248116
0.254326
0.241102
0.216527
0.189096
0.15964
0.135972
0.116527
0.104997
0.108924
0.120161
0.131216
0.137317
0.142743
3.14118
3.27868
3.27296
3.24997
3.17562
2.91829
2.04964
0.461662
0.42121
0.398416
0.228682
0.257817
0.264542
0.252587
0.22949
0.204884
0.180372
0.162593
0.150171
0.145698
0.154557
0.170027
0.183789
0.19528
0.202662
3.14172
3.27981
3.27447
3.25359
3.18669
2.95797
2.16696
0.592416
0.412578
0.429187
0.245527
0.270794
0.278289
0.267781
0.246403
0.22449
0.204984
0.192687
0.186334
0.187863
0.200962
0.219954
0.237774
0.252871
0.264641
3.14226
3.28101
3.2761
3.25762
3.19894
3.00117
2.30175
0.755607
0.395072
0.464473
0.266973
0.286295
0.295211
0.285625
0.266534
0.247038
0.232374
0.225016
0.224379
0.231804
0.248458
0.27066
0.293221
0.311452
0.329762
3.14271
3.28212
3.27772
3.26185
3.2116
3.04446
2.44413
0.972784
0.370207
0.501123
0.293914
0.303658
0.315072
0.305783
0.289805
0.272032
0.261658
0.258686
0.263921
0.276904
0.296686
0.323237
0.351393
0.372696
0.400781
3.14295
3.28303
3.27926
3.26608
3.22409
3.08602
2.58547
1.23876
0.338075
0.535599
0.327585
0.322929
0.337345
0.32802
0.315005
0.298457
0.292054
0.293087
0.304843
0.322122
0.345643
0.377162
0.412369
0.439774
0.481916
3.14274
3.28366
3.28071
3.27009
3.23562
3.12435
2.72362
1.53556
0.311234
0.562227
0.370626
0.343965
0.361441
0.352324
0.341944
0.325826
0.322989
0.3283
0.346367
0.367304
0.395358
0.432233
0.477045
0.516429
0.585304
3.14228
3.28423
3.28217
3.27353
3.24545
3.15793
2.85106
1.85243
0.371827
0.577423
0.424977
0.366042
0.386532
0.378391
0.370214
0.353885
0.353823
0.364735
0.387523
0.412657
0.445962
0.489385
0.548071
0.610252
0.740003
3.14025
3.27672
3.27035
3.24388
3.15695
2.85031
1.85777
0.264568
0.427387
0.349577
0.203603
0.237837
0.244768
0.230574
0.204459
0.173901
0.138586
0.10632
0.0736582
0.0416473
0.0291447
0.0334957
0.0466216
0.0365039
0.0460979
3.14041
3.27705
3.27078
3.24487
3.15998
2.86138
1.88804
0.293498
0.428564
0.358512
0.208129
0.240625
0.247084
0.233113
0.207281
0.177583
0.14419
0.114943
0.0875371
0.0661661
0.0639385
0.0713704
0.0819345
0.0812356
0.0871341
3.14073
3.27773
3.27169
3.24699
3.16647
2.88509
1.95467
0.362839
0.425596
0.373788
0.216426
0.247843
0.254102
0.240976
0.21645
0.189041
0.159604
0.135958
0.116526
0.105001
0.108936
0.120177
0.131237
0.137328
0.142755
3.14119
3.27869
3.27297
3.24999
3.17568
2.91849
2.05022
0.462217
0.421094
0.398405
0.228442
0.25753
0.264234
0.252312
0.229297
0.204776
0.180323
0.16258
0.150179
0.145713
0.154578
0.170047
0.183814
0.195295
0.202679
3.14172
3.27982
3.27447
3.25361
3.18674
2.95815
2.16747
0.592926
0.412305
0.429072
0.24516
0.270448
0.277992
0.267597
0.246298
0.224425
0.204965
0.192691
0.186359
0.187892
0.200993
0.21998
0.237803
0.25289
0.264661
3.14226
3.28101
3.2761
3.25763
3.19897
3.00127
2.30208
0.75604
0.394836
0.464386
0.266686
0.286044
0.295055
0.285548
0.266524
0.247051
0.23241
0.225057
0.224425
0.231846
0.248497
0.270691
0.293253
0.311475
0.329783
3.14271
3.28213
3.27773
3.26185
3.21162
3.04451
2.4443
0.973057
0.36998
0.501095
0.293783
0.303539
0.315029
0.305787
0.28985
0.272101
0.261736
0.258761
0.263982
0.276955
0.296729
0.323273
0.351428
0.372721
0.400804
3.14295
3.28303
3.27926
3.26608
3.22409
3.08603
2.58552
1.23886
0.337897
0.535595
0.32756
0.322893
0.337358
0.32808
0.315062
0.298534
0.292141
0.293177
0.304908
0.322178
0.345687
0.377198
0.412403
0.439803
0.481937
3.14274
3.28366
3.28071
3.27009
3.23563
3.12435
2.72362
1.53555
0.311139
0.562205
0.370627
0.343952
0.361466
0.352392
0.342014
0.325918
0.323082
0.328382
0.346431
0.367356
0.395399
0.432268
0.477076
0.516457
0.585323
3.14228
3.28423
3.28216
3.27352
3.24545
3.15792
2.85104
1.85238
0.371796
0.57739
0.42497
0.366027
0.386542
0.378431
0.370252
0.353932
0.353891
0.3648
0.387581
0.412698
0.445995
0.489416
0.548098
0.610275
0.740019
3.14025
3.27672
3.27035
3.24388
3.15694
2.85029
1.85769
0.264491
0.42741
0.34957
0.203609
0.237838
0.244769
0.230577
0.204467
0.173911
0.138596
0.106329
0.0736638
0.0416466
0.029141
0.0334971
0.046636
0.0365023
0.0460977
3.14041
3.27705
3.27078
3.24487
3.15998
2.86137
1.88799
0.29346
0.428544
0.35847
0.208096
0.240605
0.247074
0.233113
0.207288
0.177592
0.144196
0.114947
0.0875375
0.0661598
0.063931
0.0713675
0.0819386
0.0812306
0.0871302
3.14073
3.27773
3.27169
3.24699
3.16646
2.88507
1.95461
0.362783
0.425597
0.373763
0.216411
0.247843
0.254112
0.240992
0.216472
0.189055
0.15961
0.135956
0.116519
0.104989
0.108924
0.12017
0.131235
0.137319
0.142747
3.14119
3.27869
3.27297
3.24999
3.17568
2.91848
2.05017
0.462168
0.421071
0.398403
0.228494
0.257623
0.264339
0.25241
0.229363
0.204805
0.180327
0.162572
0.150163
0.145695
0.154562
0.170035
0.183808
0.195281
0.202666
3.14172
3.27982
3.27447
3.2536
3.18673
2.95811
2.16736
0.592822
0.412408
0.429182
0.245352
0.270627
0.27813
0.267656
0.246317
0.224431
0.204956
0.192677
0.186337
0.187869
0.200974
0.219964
0.237792
0.252871
0.264645
3.14226
3.28101
3.2761
3.25763
3.19897
3.00126
2.30203
0.755967
0.394911
0.464443
0.266807
0.286138
0.295093
0.285546
0.266495
0.247019
0.232381
0.225027
0.224397
0.231821
0.248474
0.270672
0.293238
0.311453
0.329763
3.14271
3.28213
3.27773
3.26186
3.21162
3.04452
2.44431
0.973078
0.37003
0.501091
0.29379
0.303537
0.315007
0.305758
0.28982
0.27206
0.261696
0.25872
0.263953
0.27693
0.296706
0.323251
0.351409
0.372697
0.400779
3.14295
3.28303
3.27926
3.26608
3.2241
3.08605
2.58556
1.23894
0.337917
0.535572
0.327514
0.322846
0.337311
0.328033
0.315054
0.298514
0.292113
0.293137
0.304883
0.322154
0.345666
0.377176
0.412383
0.439776
0.48191
3.14274
3.28366
3.28071
3.27009
3.23563
3.12436
2.72365
1.53563
0.311128
0.562192
0.370582
0.343906
0.361428
0.352358
0.342002
0.325895
0.323062
0.328358
0.346415
0.367337
0.395382
0.432248
0.477056
0.51643
0.585293
3.14228
3.28423
3.28217
3.27353
3.24546
3.15793
2.85107
1.85244
0.371799
0.577384
0.424947
0.365996
0.386528
0.37843
0.370267
0.353945
0.353894
0.364791
0.38757
0.412686
0.445983
0.489399
0.54808
0.61025
0.739987
3.14025
3.27672
3.27035
3.24388
3.15694
2.8503
1.85773
0.264535
0.427396
0.349566
0.203598
0.237834
0.244769
0.230582
0.204476
0.173921
0.138607
0.106341
0.073677
0.0416572
0.0291454
0.0334986
0.0466323
0.0365043
0.0460852
3.14041
3.27705
3.27078
3.24487
3.15998
2.86137
1.88802
0.293496
0.428542
0.358479
0.208103
0.240615
0.247084
0.233125
0.2073
0.177602
0.144207
0.114956
0.0875464
0.0661666
0.0639366
0.0713745
0.0819458
0.0812433
0.0871194
3.14073
3.27773
3.27169
3.24699
3.16647
2.88508
1.95465
0.362832
0.425589
0.373769
0.216413
0.247847
0.254117
0.241
0.216481
0.189065
0.159621
0.135966
0.116529
0.104998
0.108932
0.12018
0.131245
0.137339
0.142738
3.14119
3.27869
3.27297
3.24999
3.17568
2.91849
2.05021
0.462227
0.421068
0.398416
0.22849
0.257623
0.26434
0.252412
0.229368
0.204812
0.180338
0.162584
0.150175
0.145705
0.154571
0.170046
0.183817
0.195306
0.202664
3.14172
3.27982
3.27447
3.2536
3.18674
2.95813
2.16743
0.592903
0.412404
0.429204
0.245317
0.270608
0.278123
0.267653
0.246318
0.224436
0.204967
0.19269
0.186349
0.187881
0.200983
0.219974
0.237799
0.252895
0.26465
3.14226
3.28101
3.2761
3.25763
3.19897
3.00129
2.30212
0.756114
0.394914
0.464454
0.266785
0.286077
0.295072
0.28554
0.266496
0.247024
0.23239
0.225039
0.224408
0.231832
0.248484
0.270682
0.293245
0.311474
0.329775
3.14271
3.28213
3.27773
3.26186
3.21163
3.04456
2.44446
0.973325
0.369994
0.501168
0.293622
0.303469
0.314977
0.305745
0.289818
0.272064
0.261704
0.258732
0.263965
0.276943
0.296717
0.323261
0.351419
0.372713
0.400803
3.14295
3.28303
3.27926
3.26608
3.22411
3.08608
2.58567
1.23919
0.337861
0.535657
0.32752
0.322814
0.337294
0.328021
0.315054
0.298522
0.292123
0.293149
0.304896
0.32217
0.345678
0.377188
0.412393
0.439787
0.481935
3.14274
3.28366
3.28071
3.27009
3.23563
3.12437
2.72373
1.53581
0.31107
0.562238
0.37064
0.3439
0.361421
0.352352
0.342005
0.325902
0.323072
0.328371
0.346429
0.367354
0.395396
0.432258
0.477066
0.516441
0.585321
3.14228
3.28423
3.28217
3.27353
3.24546
3.15794
2.85111
1.85258
0.371854
0.577393
0.424996
0.365994
0.386523
0.378428
0.370274
0.353959
0.353909
0.364806
0.387585
0.412702
0.445999
0.489413
0.548092
0.610257
0.74002
3.14025
3.27672
3.27035
3.24388
3.15694
2.85028
1.85768
0.264489
0.427413
0.349574
0.20362
0.237848
0.244779
0.230585
0.204474
0.173916
0.138599
0.106332
0.0736668
0.041649
0.0291423
0.0334981
0.046638
0.0365025
0.0460979
3.14041
3.27705
3.27078
3.24487
3.15998
2.86136
1.88799
0.293467
0.428541
0.35847
0.208104
0.240615
0.247083
0.23312
0.207294
0.177596
0.1442
0.11495
0.0875414
0.0661641
0.0639347
0.0713706
0.0819412
0.0812317
0.0871311
3.14073
3.27773
3.27169
3.24699
3.16646
2.88507
1.95462
0.362796
0.425598
0.373767
0.216418
0.24785
0.254119
0.240998
0.216476
0.189058
0.159613
0.135959
0.116523
0.104994
0.108929
0.120174
0.131238
0.137321
0.142748
3.14119
3.27869
3.27297
3.24999
3.17568
2.91848
2.05018
0.462192
0.421077
0.398415
0.228498
0.257628
0.264343
0.252413
0.229365
0.204807
0.18033
0.162575
0.150169
0.145702
0.15457
0.170041
0.183813
0.195285
0.202669
3.14172
3.27982
3.27447
3.2536
3.18673
2.95812
2.1674
0.592871
0.412418
0.429205
0.245327
0.270616
0.278129
0.267656
0.246316
0.224431
0.204959
0.192682
0.186344
0.187878
0.200984
0.219972
0.237799
0.252876
0.264648
3.14226
3.28101
3.2761
3.25763
3.19897
3.00128
2.3021
0.756082
0.394926
0.464456
0.266796
0.286087
0.295076
0.285541
0.266492
0.247019
0.232383
0.225033
0.224405
0.231831
0.248486
0.270683
0.293247
0.31146
0.329769
3.14271
3.28213
3.27773
3.26186
3.21163
3.04455
2.44444
0.973291
0.370006
0.50117
0.293631
0.303479
0.314982
0.305746
0.289815
0.272058
0.261698
0.258727
0.263963
0.276941
0.296719
0.323264
0.351421
0.372706
0.400787
3.14295
3.28303
3.27926
3.26608
3.22411
3.08607
2.58566
1.23916
0.337873
0.535659
0.327525
0.322821
0.337297
0.328022
0.31505
0.298514
0.292116
0.293145
0.304894
0.322167
0.34568
0.377191
0.412397
0.439789
0.48192
3.14274
3.28366
3.28071
3.27009
3.23563
3.12437
2.72371
1.53578
0.311077
0.56224
0.370643
0.343905
0.361422
0.352351
0.342
0.325896
0.323066
0.328367
0.346427
0.367351
0.395397
0.432263
0.477072
0.516446
0.585306
3.14228
3.28423
3.28217
3.27353
3.24546
3.15794
2.85111
1.85256
0.371846
0.577397
0.424997
0.365999
0.386523
0.378425
0.370268
0.353951
0.353903
0.364803
0.387583
0.412701
0.445999
0.489416
0.548097
0.610268
0.740005
3.14025
3.27672
3.27035
3.24388
3.15694
2.85029
1.85769
0.264491
0.427409
0.34957
0.203609
0.237838
0.244769
0.230577
0.204467
0.173911
0.138595
0.106328
0.0736636
0.0416464
0.029141
0.0334972
0.0466362
0.0365023
0.0460977
3.14041
3.27705
3.27078
3.24487
3.15998
2.86137
1.88799
0.29346
0.428544
0.35847
0.208096
0.240605
0.247074
0.233113
0.207288
0.177591
0.144196
0.114947
0.0875374
0.0661597
0.063931
0.0713675
0.0819387
0.0812306
0.0871302
3.14073
3.27773
3.27169
3.24699
3.16646
2.88507
1.95461
0.362783
0.425597
0.373763
0.216412
0.247843
0.254112
0.240992
0.216471
0.189055
0.15961
0.135956
0.116519
0.104989
0.108924
0.12017
0.131235
0.137319
0.142747
3.14119
3.27869
3.27297
3.24999
3.17568
2.91848
2.05017
0.462168
0.421071
0.398403
0.228494
0.257623
0.264339
0.25241
0.229363
0.204805
0.180327
0.162571
0.150163
0.145695
0.154562
0.170035
0.183808
0.195281
0.202666
3.14172
3.27982
3.27447
3.2536
3.18673
2.95811
2.16736
0.592822
0.412408
0.429182
0.245352
0.270627
0.27813
0.267656
0.246317
0.224431
0.204956
0.192677
0.186337
0.187869
0.200974
0.219964
0.237792
0.252871
0.264645
3.14226
3.28101
3.2761
3.25763
3.19897
3.00126
2.30203
0.755967
0.394911
0.464443
0.266807
0.286138
0.295093
0.285546
0.266495
0.247019
0.232381
0.225027
0.224397
0.231821
0.248474
0.270672
0.293238
0.311453
0.329763
3.14271
3.28213
3.27773
3.26186
3.21162
3.04452
2.44431
0.973077
0.37003
0.501091
0.29379
0.303537
0.315007
0.305758
0.28982
0.27206
0.261696
0.25872
0.263953
0.27693
0.296706
0.323251
0.351409
0.372697
0.400779
3.14295
3.28303
3.27926
3.26608
3.2241
3.08605
2.58556
1.23894
0.337917
0.535572
0.327515
0.322846
0.337311
0.328033
0.315054
0.298514
0.292113
0.293137
0.304883
0.322154
0.345666
0.377176
0.412383
0.439776
0.48191
3.14274
3.28366
3.28071
3.27009
3.23563
3.12436
2.72365
1.53563
0.311128
0.562192
0.370582
0.343906
0.361428
0.352358
0.342002
0.325895
0.323062
0.328358
0.346415
0.367337
0.395382
0.432248
0.477056
0.516429
0.585293
3.14228
3.28423
3.28217
3.27353
3.24546
3.15793
2.85107
1.85244
0.371799
0.577384
0.424947
0.365996
0.386528
0.37843
0.370267
0.353945
0.353894
0.364791
0.38757
0.412686
0.445983
0.489399
0.54808
0.61025
0.739987
3.14025
3.27672
3.27035
3.24388
3.15695
2.85031
1.85777
0.264568
0.427387
0.349577
0.203603
0.237837
0.244768
0.230574
0.204459
0.173901
0.138586
0.10632
0.0736581
0.0416473
0.0291447
0.0334957
0.0466216
0.0365039
0.0460979
3.14041
3.27705
3.27078
3.24487
3.15998
2.86138
1.88804
0.293498
0.428564
0.358512
0.208129
0.240625
0.247084
0.233113
0.207281
0.177583
0.14419
0.114942
0.0875371
0.0661661
0.0639385
0.0713704
0.0819344
0.0812355
0.0871341
3.14073
3.27773
3.27169
3.24699
3.16647
2.88509
1.95467
0.362839
0.425596
0.373788
0.216426
0.247843
0.254102
0.240976
0.21645
0.189041
0.159604
0.135958
0.116526
0.105001
0.108936
0.120177
0.131237
0.137328
0.142755
3.14119
3.27869
3.27297
3.24999
3.17568
2.91849
2.05022
0.462217
0.421094
0.398405
0.228442
0.25753
0.264234
0.252311
0.229297
0.204776
0.180323
0.16258
0.150179
0.145713
0.154578
0.170047
0.183814
0.195295
0.202679
3.14172
3.27982
3.27447
3.25361
3.18674
2.95815
2.16747
0.592926
0.412305
0.429071
0.24516
0.270448
0.277992
0.267597
0.246298
0.224425
0.204965
0.192691
0.186359
0.187892
0.200993
0.21998
0.237803
0.25289
0.264661
3.14226
3.28101
3.2761
3.25763
3.19897
3.00127
2.30208
0.75604
0.394836
0.464386
0.266686
0.286044
0.295055
0.285548
0.266524
0.247051
0.23241
0.225057
0.224425
0.231846
0.248497
0.270691
0.293253
0.311475
0.329783
3.14271
3.28213
3.27773
3.26185
3.21162
3.04451
2.4443
0.973057
0.36998
0.501095
0.293783
0.303539
0.315029
0.305787
0.28985
0.272101
0.261736
0.258761
0.263982
0.276955
0.296728
0.323273
0.351428
0.372721
0.400804
3.14295
3.28303
3.27926
3.26608
3.22409
3.08603
2.58552
1.23886
0.337897
0.535595
0.32756
0.322893
0.337358
0.32808
0.315062
0.298534
0.292141
0.293177
0.304908
0.322178
0.345687
0.377198
0.412403
0.439803
0.481937
3.14274
3.28366
3.28071
3.27009
3.23563
3.12435
2.72362
1.53555
0.311139
0.562205
0.370627
0.343952
0.361466
0.352393
0.342014
0.325918
0.323082
0.328382
0.346431
0.367356
0.395399
0.432268
0.477076
0.516457
0.585323
3.14228
3.28423
3.28216
3.27352
3.24545
3.15792
2.85104
1.85238
0.371796
0.57739
0.42497
0.366027
0.386542
0.378431
0.370252
0.353932
0.353891
0.3648
0.387581
0.412698
0.445995
0.489416
0.548098
0.610275
0.740019
3.14025
3.27671
3.27034
3.24386
3.15689
2.85011
1.85718
0.263987
0.427515
0.349404
0.203422
0.237623
0.244536
0.230386
0.204331
0.173821
0.138536
0.106294
0.0736478
0.0416469
0.0291443
0.0334839
0.0465965
0.0365011
0.0460937
3.14041
3.27704
3.27077
3.24486
3.15994
2.86125
1.88776
0.293316
0.428168
0.357945
0.207559
0.240222
0.246787
0.232936
0.207193
0.177541
0.144167
0.114931
0.0875338
0.0661663
0.0639333
0.0713573
0.0819152
0.0812294
0.0871268
3.14073
3.27772
3.27168
3.24696
3.1664
2.88485
1.954
0.362119
0.425921
0.373916
0.2167
0.248116
0.254326
0.241102
0.216527
0.189096
0.15964
0.135972
0.116527
0.104997
0.108924
0.120161
0.131216
0.137317
0.142743
3.14118
3.27868
3.27296
3.24997
3.17562
2.91829
2.04965
0.461664
0.42121
0.398416
0.228682
0.257816
0.264542
0.252587
0.22949
0.204884
0.180371
0.162593
0.150171
0.145698
0.154557
0.170027
0.183789
0.19528
0.202662
3.14172
3.27981
3.27447
3.25359
3.18669
2.95797
2.16696
0.592417
0.412577
0.429187
0.245527
0.270794
0.278288
0.267781
0.246403
0.22449
0.204984
0.192687
0.186334
0.187863
0.200961
0.219954
0.237774
0.252871
0.264641
3.14226
3.28101
3.2761
3.25762
3.19894
3.00117
2.30175
0.755608
0.395071
0.464473
0.266973
0.286295
0.29521
0.285625
0.266534
0.247038
0.232374
0.225016
0.224379
0.231804
0.248458
0.270659
0.293221
0.311453
0.329762
3.14271
3.28212
3.27772
3.26185
3.2116
3.04446
2.44413
0.972785
0.370206
0.501123
0.293914
0.303657
0.315072
0.305783
0.289805
0.272032
0.261658
0.258686
0.263921
0.276904
0.296686
0.323237
0.351393
0.372696
0.400781
3.14295
3.28303
3.27926
3.26608
3.22409
3.08602
2.58547
1.23876
0.338074
0.535599
0.327585
0.322929
0.337345
0.32802
0.315006
0.298457
0.292054
0.293087
0.304842
0.322122
0.345643
0.377162
0.412369
0.439774
0.481916
3.14274
3.28366
3.28071
3.27009
3.23562
3.12435
2.72362
1.53556
0.311233
0.562227
0.370625
0.343965
0.361441
0.352324
0.341944
0.325826
0.322989
0.3283
0.346367
0.367304
0.395358
0.432233
0.477045
0.516429
0.585304
3.14228
3.28423
3.28217
3.27353
3.24545
3.15793
2.85106
1.85243
0.371827
0.577423
0.424976
0.366042
0.386532
0.378391
0.370214
0.353885
0.353823
0.364735
0.387523
0.412657
0.445962
0.489385
0.548071
0.610251
0.740003
3.14026
3.27673
3.27036
3.24391
3.15702
2.85056
1.8584
0.265221
0.427498
0.34987
0.203773
0.237945
0.244842
0.230642
0.204551
0.174039
0.138792
0.106611
0.0740965
0.0424157
0.0301817
0.0343408
0.0471728
0.037227
0.046667
3.14042
3.27706
3.2708
3.2449
3.16006
2.86164
1.88871
0.29416
0.428607
0.358656
0.208068
0.240496
0.246977
0.233065
0.207317
0.177686
0.144367
0.115196
0.0878958
0.0666486
0.0644212
0.0717782
0.0822652
0.0815685
0.0874364
3.14074
3.27774
3.27171
3.24702
3.16655
2.88537
1.95546
0.363714
0.425322
0.373679
0.216075
0.247594
0.253983
0.240984
0.216551
0.189182
0.15979
0.136185
0.116808
0.105321
0.109235
0.120432
0.131451
0.137532
0.142947
3.14119
3.2787
3.27298
3.25001
3.17573
2.91865
2.05068
0.462716
0.421083
0.398673
0.228666
0.257817
0.264535
0.252583
0.229544
0.204992
0.180533
0.162794
0.150407
0.145954
0.154797
0.170238
0.183972
0.195452
0.202816
3.14173
3.27983
3.27448
3.25362
3.18676
2.95821
2.16765
0.593189
0.412499
0.429512
0.245648
0.270885
0.278352
0.267813
0.246467
0.224614
0.205158
0.192886
0.186547
0.188081
0.201163
0.220133
0.237928
0.253026
0.264768
3.14227
3.28102
3.27611
3.25764
3.19899
3.00134
2.3023
0.756376
0.394943
0.464593
0.266967
0.286209
0.295192
0.285677
0.266644
0.247191
0.232562
0.225206
0.224578
0.231999
0.248636
0.270821
0.29336
0.311595
0.329884
3.14272
3.28213
3.27774
3.26187
3.21165
3.04461
2.44461
0.973606
0.369962
0.50119
0.293657
0.303499
0.315052
0.305877
0.290009
0.272254
0.261871
0.258875
0.264111
0.277085
0.296848
0.323388
0.351526
0.372827
0.400904
3.14296
3.28304
3.27927
3.26609
3.22411
3.08609
2.58574
1.23936
0.337817
0.535665
0.327548
0.322845
0.337372
0.328136
0.315194
0.298677
0.292278
0.293282
0.305021
0.322292
0.345791
0.377294
0.41249
0.439898
0.482032
3.14275
3.28366
3.28071
3.2701
3.23564
3.12437
2.72372
1.53581
0.311038
0.562243
0.370694
0.343961
0.361518
0.352477
0.342141
0.326053
0.323221
0.328493
0.346533
0.367462
0.395486
0.432347
0.477151
0.516543
0.585416
3.14229
3.28423
3.28217
3.27353
3.24546
3.15792
2.85106
1.85246
0.371825
0.577409
0.425051
0.36608
0.386632
0.378548
0.370379
0.354066
0.354027
0.364903
0.387672
0.412784
0.446069
0.489484
0.54816
0.610346
0.74011
3.14163
3.28478
3.28333
3.27607
3.25384
3.1866
2.958
2.16062
0.589493
0.573785
0.492068
0.388618
0.411874
0.406424
0.398791
0.384307
0.384219
0.401845
0.426657
0.457532
0.497041
0.547989
0.622384
0.717073
0.921181
3.141
3.28516
3.28389
3.27853
3.26167
3.21049
3.04176
2.43063
0.942033
0.546529
0.565337
0.413754
0.436459
0.436313
0.426789
0.417541
0.414626
0.436811
0.46339
0.500043
0.545305
0.603152
0.690667
0.799735
1.01562
3.14061
3.2851
3.28478
3.28089
3.26814
3.22973
3.10681
2.65692
1.37866
0.492196
0.627738
0.446553
0.460097
0.46731
0.456085
0.45177
0.447
0.469175
0.496812
0.539055
0.590779
0.651962
0.744368
0.854411
1.04568
3.14039
3.28491
3.28563
3.28292
3.27332
3.24482
3.15669
2.84293
1.82216
0.465031
0.663636
0.49663
0.484351
0.499272
0.487345
0.484957
0.483775
0.499269
0.528721
0.575225
0.632093
0.695187
0.787167
0.893653
1.04203
3.14027
3.28463
3.28657
3.28449
3.27726
3.25626
3.1934
2.98082
2.22156
0.660014
0.667656
0.568405
0.509171
0.532134
0.521258
0.516573
0.523068
0.527262
0.557615
0.604646
0.666899
0.730813
0.821403
0.914644
1.02363
3.14021
3.28441
3.2873
3.28567
3.28023
3.26485
3.22037
3.07724
2.545
1.11257
0.637864
0.64936
0.535941
0.563587
0.55637
0.547819
0.557615
0.55553
0.580539
0.62667
0.692511
0.754639
0.836958
0.917062
1.00066
3.14017
3.28426
3.28784
3.28654
3.28243
3.27118
3.23969
3.14315
2.79589
1.69318
0.589452
0.708556
0.573761
0.592815
0.59398
0.578553
0.586149
0.588906
0.600324
0.645386
0.706545
0.766355
0.840286
0.914125
0.989462
3.14015
3.28417
3.28822
3.28716
3.28401
3.27579
3.25354
3.18809
2.96555
2.1752
0.681538
0.728633
0.632047
0.621084
0.632587
0.609622
0.611336
0.620159
0.622088
0.660168
0.715162
0.771634
0.841541
0.914389
0.985059
3.14015
3.28411
3.28847
3.28757
3.2851
3.27903
3.26345
3.21972
3.07961
2.55254
1.11454
0.724815
0.704166
0.650226
0.665847
0.645714
0.636355
0.647888
0.654366
0.675856
0.725792
0.77784
0.838748
0.914045
0.982409
3.14015
3.28409
3.28862
3.28784
3.28584
3.28123
3.27016
3.24073
3.15327
2.8432
1.78797
0.718798
0.760551
0.689168
0.696805
0.684877
0.664432
0.671718
0.684625
0.691113
0.732822
0.78384
0.838113
0.906563
0.978103
3.14015
3.28408
3.28869
3.288
3.28625
3.28269
3.27474
3.25468
3.1991
3.01895
2.3522
0.925413
0.794649
0.745613
0.728201
0.722652
0.693538
0.692231
0.704491
0.713461
0.740572
0.787985
0.840059
0.897159
0.96764
3.14014
3.28408
3.28871
3.28808
3.28645
3.28365
3.27772
3.26387
3.22856
3.12412
2.74517
1.51928
0.811277
0.807567
0.769936
0.753912
0.722332
0.714374
0.726215
0.744357
0.754809
0.792731
0.842331
0.894606
0.950945
3.14014
3.28407
3.28873
3.28812
3.28655
3.28413
3.27955
3.26943
3.24619
3.18583
2.99103
2.25332
0.9954
0.850148
0.822051
0.791737
0.759418
0.739908
0.748456
0.767774
0.788424
0.804058
0.846271
0.89621
0.945671
3.14014
3.28407
3.28873
3.28812
3.28657
3.28411
3.28039
3.27215
3.25618
3.22021
3.1175
2.7538
1.60495
0.90004
0.875401
0.836221
0.805873
0.7756
0.777039
0.796691
0.820901
0.835588
0.857303
0.899682
0.94689
3.14014
3.28407
3.28873
3.28812
3.28657
3.28407
3.28058
3.27308
3.26199
3.23886
3.18192
3.01013
2.38197
1.20115
0.918037
0.89353
0.857394
0.825682
0.811364
0.82531
0.850685
0.8785
0.887456
0.91021
0.950161
3.14014
3.28407
3.28873
3.28812
3.28657
3.28407
3.2806
3.27315
3.26389
3.24852
3.2122
3.12224
2.85474
1.96793
1.06468
0.943634
0.910412
0.879953
0.854498
0.856866
0.885671
0.91253
0.937309
0.938747
0.960563
3.14014
3.28407
3.28873
3.28812
3.28657
3.28407
3.2806
3.27318
3.26366
3.25154
3.22407
3.17012
3.04697
2.67258
1.6881
1.03558
0.963658
0.929208
0.904272
0.892591
0.915085
0.948749
0.978082
0.995352
0.988786
3.14014
3.28407
3.28873
3.28812
3.28657
3.28407
3.2806
3.27319
3.26366
3.25189
3.2268
3.18702
3.11608
2.9479
2.47865
1.55344
1.03717
0.97791
0.951137
0.93336
0.943564
0.977691
1.00948
1.03868
1.04498
3.14014
3.28407
3.28873
3.28812
3.28657
3.28407
3.2806
3.2732
3.26366
3.25191
3.22706
3.18821
3.13677
3.02198
2.80339
2.31655
1.52086
1.06251
0.989263
0.972797
0.974635
0.999522
1.03937
1.06782
1.09111
3.14014
3.28407
3.28873
3.28812
3.28657
3.28406
3.2806
3.27319
3.26366
3.25191
3.22703
3.18834
3.13816
3.03408
2.8711
2.6111
2.1464
1.56774
1.13491
1.00903
1.00364
1.02054
1.05473
1.09345
1.122
3.14014
3.28407
3.28873
3.28812
3.28657
3.28407
3.2806
3.27319
3.26367
3.25192
3.22704
3.18839
3.13823
3.03522
2.87242
2.64611
2.28495
1.95865
1.60425
1.23418
1.04226
1.03677
1.06423
1.10525
1.14072
3.14014
3.28407
3.28873
3.28812
3.28657
3.28406
3.2806
3.27319
3.26366
3.25191
3.22702
3.18836
3.13818
3.03511
2.873
2.64721
2.29417
1.99458
1.80438
1.5988
1.32496
1.09685
1.06607
1.10641
1.149
3.14014
3.28407
3.28873
3.28812
3.28657
3.28407
3.2806
3.27319
3.26367
3.25192
3.22704
3.18839
3.13823
3.03515
2.87314
2.64734
2.2951
1.9963
1.82485
1.70689
1.58505
1.40064
1.18778
1.10497
1.14241
3.14014
3.28407
3.28873
3.28812
3.28657
3.28406
3.2806
3.27319
3.26366
3.25191
3.22702
3.18836
3.13818
3.03508
2.87308
2.64712
2.29506
1.99638
1.82575
1.71793
1.64023
1.57025
1.46644
1.31691
1.18115
3.14014
3.28407
3.28873
3.28812
3.28657
3.28407
3.2806
3.2732
3.26366
3.25192
3.22705
3.1884
3.13824
3.0352
2.87323
2.64737
2.29556
1.99701
1.82654
1.71979
1.64624
1.59856
1.56522
1.51712
1.43236
3.14014
3.28407
3.28873
3.28812
3.28657
3.28406
3.2806
3.27319
3.26366
3.25191
3.22702
3.18836
3.13818
3.03508
2.87309
2.6471
2.29504
1.99639
1.8258
1.71892
1.64551
1.60018
1.57843
1.5658
1.54878
3.14014
3.28407
3.28873
3.28812
3.28657
3.28407
3.28061
3.27319
3.26367
3.25192
3.22704
3.18839
3.13824
3.03516
2.87318
2.64736
2.29517
1.99649
1.82588
1.71892
1.64545
1.60033
1.57999
1.57174
1.57364
3.14014
3.28407
3.28873
3.28812
3.28657
3.28406
3.2806
3.27319
3.26366
3.25191
3.22703
3.18837
3.13819
3.03511
2.8731
2.64716
2.29512
1.99644
1.82586
1.71901
1.64568
1.60056
1.58037
1.57276
1.57673
3.14014
3.28407
3.28873
3.28812
3.28657
3.28407
3.28061
3.27319
3.26367
3.25192
3.22704
3.1884
3.13824
3.03516
2.87318
2.64737
2.2952
1.99651
1.82587
1.71889
1.6454
1.60031
1.58014
1.57261
1.57688
3.14014
3.28407
3.28873
3.28812
3.28657
3.28407
3.2806
3.27319
3.26366
3.25192
3.22703
3.18838
3.13821
3.03512
2.87311
2.64717
2.2951
1.99641
1.82579
1.7189
1.6455
1.60038
1.5802
1.57267
1.57696
3.14014
3.28407
3.28873
3.28812
3.28658
3.28407
3.28061
3.2732
3.26367
3.25192
3.22706
3.18841
3.13826
3.03523
2.87324
2.64741
2.29555
1.99698
1.82652
1.71984
1.64666
1.60159
1.58149
1.57401
1.57837
3.14014
3.28407
3.28873
3.28812
3.28657
3.28407
3.2806
3.27319
3.26367
3.25192
3.22704
3.18839
3.13823
3.03513
2.87315
2.64726
2.29502
1.99636
1.82575
1.71877
1.6453
1.60021
1.58003
1.5725
1.57679
3.14014
3.28407
3.28873
3.28812
3.28657
3.28407
3.28061
3.27319
3.26367
3.25193
3.22705
3.1884
3.13826
3.03517
2.87318
2.64736
2.29508
1.99638
1.82574
1.71874
1.64526
1.60017
1.58
1.57248
1.57679
3.14014
3.28407
3.28873
3.28812
3.28657
3.28407
3.28061
3.2732
3.26367
3.25192
3.22706
3.1884
3.13826
3.03524
2.87321
2.64746
2.29554
1.99689
1.82641
1.71974
1.64659
1.60157
1.58149
1.57404
1.57843
3.14014
3.28407
3.28873
3.28812
3.28658
3.28407
3.28061
3.2732
3.26367
3.25193
3.22705
3.18841
3.13827
3.03519
2.87317
2.64741
2.29514
1.9964
1.82573
1.71871
1.64521
1.60013
1.57996
1.57245
1.57677
3.14014
3.28407
3.28873
3.28812
3.28657
3.28407
3.28061
3.2732
3.26367
3.25193
3.22705
3.1884
3.13826
3.03517
2.87317
2.64732
2.29502
1.99635
1.82572
1.71873
1.64525
1.60016
1.57998
1.57246
1.57675
3.14014
3.28407
3.28873
3.28812
3.28658
3.28407
3.28061
3.2732
3.26367
3.25193
3.22707
3.18843
3.13829
3.03526