/*--------------------------------*- C++ -*----------------------------------*\
| =========                 |                                                 |
| \\      /  F ield         | OpenFOAM: The Open Source CFD Toolbox           |
|  \\    /   O peration     | Version:  4.1                                   |
|   \\  /    A nd           | Web:      www.OpenFOAM.org                      |
|    \\/     M anipulation  |                                                 |
\*---------------------------------------------------------------------------*/
FoamFile
{
    version     2.0;
    format      ascii;
    class       volScalarField;
    location    "0.48";
    object      p;
}
// * * * * * * * * * * * * * * * * * * * * * * * * * * * * * * * * * * * * * //

dimensions      [1 -1 -2 0 0 0 0];

internalField   nonuniform List<scalar> 
52500
(
0.0902955
0.0632779
0.0636297
0.0651948
0.0705163
0.0897739
0.180782
0.716092
2.18982
1.50724
1.30112
1.23564
1.1391
1.0593
0.992042
0.94195
0.899498
0.860399
0.824962
0.789811
0.751433
0.70746
0.675498
0.621828
0.616028
0.090292
0.0632541
0.0635975
0.0651282
0.0703252
0.0890582
0.176839
0.690234
2.18988
1.51387
1.3028
1.23811
1.1428
1.06193
0.994257
0.943858
0.90137
0.862243
0.82704
0.792183
0.754022
0.709403
0.677456
0.623494
0.61741
0.0902851
0.0632035
0.0635292
0.0649866
0.0699188
0.0875454
0.168625
0.633233
2.18036
1.53247
1.30407
1.23922
1.14662
1.06355
0.995261
0.944521
0.901897
0.862572
0.827694
0.793374
0.755669
0.710106
0.67809
0.623973
0.617028
0.0902757
0.0631312
0.0634316
0.0647838
0.0693408
0.0854264
0.157532
0.565154
2.13865
1.56794
1.30606
1.24048
1.1518
1.06607
0.996995
0.945449
0.902408
0.862776
0.828108
0.794388
0.756873
0.710645
0.677802
0.624809
0.616026
0.0902652
0.0630435
0.063313
0.0645386
0.0686471
0.0829295
0.14503
0.48993
2.04815
1.63067
1.31
1.24154
1.15803
1.06895
0.999279
0.94667
0.902853
0.862798
0.82816
0.794295
0.757167
0.711708
0.677154
0.62659
0.613953
0.0902558
0.0629464
0.0631808
0.0642647
0.0678818
0.0802349
0.131904
0.415472
1.90338
1.71776
1.31543
1.24176
1.16548
1.07209
1.0026
0.948095
0.903073
0.862545
0.827485
0.792052
0.756546
0.712848
0.676355
0.628477
0.611128
0.0902505
0.0628468
0.063044
0.063978
0.06709
0.0775452
0.119358
0.342647
1.69023
1.82946
1.32479
1.24212
1.17354
1.076
1.00654
0.949458
0.903056
0.862067
0.826534
0.788986
0.755831
0.713323
0.674752
0.628067
0.607231
0.0902525
0.0627522
0.0629121
0.0636959
0.0663067
0.0749475
0.10817
0.282232
1.38557
1.96998
1.34317
1.24304
1.18163
1.0821
1.01033
0.950697
0.90276
0.861149
0.823625
0.786496
0.754246
0.712484
0.672868
0.625821
0.600497
0.0902683
0.0626695
0.0627942
0.0634386
0.0655774
0.0725209
0.0982714
0.230014
1.04231
2.10018
1.37624
1.24323
1.18874
1.09006
1.01465
0.951869
0.902625
0.859781
0.820538
0.784728
0.751944
0.710364
0.669113
0.619061
0.5848
0.090289
0.0626004
0.0626971
0.0632218
0.064937
0.0703702
0.0897571
0.182982
0.734473
2.15911
1.43556
1.24225
1.19426
1.10044
1.01952
0.953769
0.902682
0.857627
0.817898
0.781795
0.747577
0.706016
0.660999
0.603618
0.549255
0.0902959
0.0632791
0.0636312
0.0651978
0.0705243
0.0898031
0.180946
0.717218
2.18938
1.50673
1.3009
1.23555
1.13902
1.05927
0.992022
0.941944
0.899495
0.860388
0.824943
0.789782
0.751386
0.707399
0.675431
0.621759
0.615959
0.0902924
0.0632551
0.0635988
0.0651305
0.0703315
0.0890799
0.176945
0.690762
2.1899
1.51336
1.30264
1.23809
1.14277
1.0619
0.99424
0.943851
0.901366
0.862232
0.82702
0.792152
0.753977
0.709346
0.677391
0.623428
0.617345
0.0902855
0.0632046
0.0635307
0.0649893
0.0699261
0.0875712
0.168758
0.634171
2.18024
1.53193
1.3039
1.23916
1.14656
1.06354
0.995253
0.944508
0.901881
0.862559
0.827671
0.793339
0.755626
0.710059
0.678034
0.623914
0.616967
0.0902761
0.0631322
0.0634328
0.0647862
0.0693472
0.0854489
0.157645
0.565812
2.13901
1.56734
1.30604
1.24047
1.15171
1.06601
0.996961
0.945421
0.902382
0.862755
0.828076
0.794346
0.756833
0.710603
0.677755
0.624762
0.615973
0.0902656
0.0630444
0.0633141
0.0645407
0.0686527
0.0829484
0.14512
0.490409
2.04866
1.6302
1.31002
1.24152
1.15792
1.06891
0.999217
0.946617
0.902817
0.862766
0.828116
0.794248
0.757132
0.711679
0.677113
0.626556
0.613912
0.0902561
0.062947
0.0631817
0.0642662
0.0678857
0.080248
0.131968
0.415842
1.90432
1.71711
1.31534
1.24172
1.16537
1.07209
1.00253
0.948043
0.903025
0.862502
0.827434
0.791999
0.75651
0.712831
0.676333
0.62846
0.611101
0.0902508
0.0628472
0.0630445
0.0639791
0.0670927
0.0775545
0.1194
0.342878
1.69105
1.82887
1.32496
1.24213
1.17342
1.07595
1.00647
0.949402
0.903006
0.86201
0.826473
0.78893
0.755794
0.713313
0.674745
0.628055
0.607224
0.0902528
0.0627524
0.0629123
0.0636964
0.0663081
0.0749524
0.108192
0.282361
1.38642
1.96949
1.34308
1.24298
1.18154
1.08203
1.01024
0.950614
0.902681
0.861077
0.823549
0.786442
0.754208
0.712473
0.672875
0.625823
0.600501
0.0902686
0.0626697
0.0627945
0.0634389
0.0655781
0.0725233
0.098282
0.230081
1.04278
2.1
1.37606
1.24315
1.18869
1.09001
1.01459
0.951789
0.902535
0.859692
0.820454
0.784667
0.75191
0.710358
0.669128
0.619085
0.584823
0.0902894
0.0626006
0.0626973
0.063222
0.0649374
0.0703713
0.0897621
0.183018
0.734742
2.15923
1.43538
1.24216
1.19423
1.1004
1.01945
0.953677
0.902587
0.857523
0.817808
0.781732
0.747541
0.706015
0.661026
0.603678
0.549299
0.0902958
0.0632786
0.0636306
0.0651965
0.0705208
0.0897898
0.180869
0.71667
2.1895
1.507
1.30107
1.2356
1.13903
1.05926
0.991998
0.941905
0.899448
0.860355
0.824919
0.789768
0.751393
0.707421
0.675461
0.62179
0.615989
0.0902923
0.0632547
0.0635983
0.0651296
0.0703289
0.0890711
0.176903
0.690592
2.18977
1.51364
1.30275
1.23809
1.14275
1.06188
0.994208
0.943806
0.901315
0.862193
0.826993
0.79214
0.753984
0.709367
0.677423
0.623461
0.617376
0.0902854
0.063204
0.0635299
0.0649878
0.069922
0.0875567
0.168682
0.633603
2.18037
1.53222
1.30399
1.23919
1.14657
1.0635
0.995204
0.944461
0.901833
0.862515
0.82764
0.793327
0.755635
0.710079
0.678065
0.623946
0.616997
0.090276
0.0631317
0.0634321
0.0647849
0.0693436
0.0854361
0.157581
0.565432
2.13884
1.56765
1.30596
1.24046
1.15176
1.06601
0.996935
0.945381
0.902337
0.862707
0.828043
0.794335
0.75684
0.710625
0.677784
0.624795
0.616001
0.0902655
0.0630439
0.0633135
0.0645395
0.0686494
0.0829375
0.145068
0.490134
2.04845
1.63045
1.30987
1.2415
1.15799
1.06888
0.999191
0.946586
0.902775
0.862721
0.828085
0.794237
0.757136
0.711701
0.677141
0.626588
0.613939
0.0902561
0.0629467
0.0631813
0.0642655
0.0678838
0.0802414
0.131937
0.415662
1.9039
1.71739
1.31522
1.24169
1.16541
1.07204
1.00252
0.948013
0.902987
0.862461
0.827406
0.79199
0.756516
0.712852
0.67636
0.62849
0.611127
0.0902508
0.0628471
0.0630444
0.0639787
0.0670918
0.0775514
0.119386
0.342798
1.69074
1.82904
1.32487
1.24207
1.17344
1.07592
1.00645
0.949369
0.902964
0.861972
0.82645
0.788925
0.755798
0.713331
0.67477
0.628084
0.607249
0.0902528
0.0627524
0.0629123
0.0636964
0.0663079
0.0749516
0.108188
0.282337
1.38626
1.9695
1.34305
1.24295
1.18154
1.08202
1.01023
0.950596
0.902652
0.861048
0.823536
0.786434
0.754212
0.71249
0.672898
0.625849
0.600525
0.0902686
0.0626697
0.0627945
0.0634389
0.0655781
0.0725234
0.0982822
0.230081
1.04277
2.09994
1.37607
1.24316
1.18867
1.08999
1.01456
0.95177
0.902515
0.859677
0.820445
0.784662
0.751912
0.710373
0.66915
0.619108
0.584844
0.0902894
0.0626006
0.0626974
0.0632221
0.0649375
0.0703717
0.0897634
0.183024
0.734784
2.15916
1.43543
1.2422
1.19421
1.10037
1.01944
0.953671
0.902573
0.857518
0.817803
0.781727
0.747542
0.706028
0.661046
0.603695
0.549316
0.0902958
0.0632787
0.0636307
0.0651967
0.0705212
0.0897916
0.180879
0.716745
2.18947
1.50698
1.30107
1.23561
1.13904
1.05927
0.992011
0.941917
0.899458
0.860362
0.824927
0.789779
0.751409
0.707443
0.675491
0.621824
0.616024
0.0902923
0.0632547
0.0635983
0.0651297
0.0703293
0.0890723
0.176909
0.690628
2.18977
1.51362
1.30275
1.2381
1.14276
1.06189
0.994219
0.943817
0.901324
0.862201
0.827001
0.79215
0.754001
0.709388
0.677454
0.623496
0.617411
0.0902854
0.0632041
0.0635299
0.0649879
0.0699224
0.087558
0.168689
0.633645
2.18038
1.53219
1.30399
1.23921
1.14659
1.06351
0.995211
0.944467
0.90184
0.862523
0.827648
0.793338
0.755653
0.7101
0.678097
0.623983
0.617033
0.090276
0.0631317
0.0634322
0.064785
0.069344
0.0854374
0.157587
0.565464
2.13887
1.56762
1.30599
1.24047
1.15175
1.066
0.996925
0.945381
0.902341
0.862716
0.828052
0.794347
0.756858
0.710648
0.677816
0.624835
0.616038
0.0902655
0.063044
0.0633136
0.0645397
0.0686501
0.0829397
0.145079
0.490188
2.04842
1.63041
1.30993
1.24149
1.15795
1.06888
0.999185
0.946577
0.902773
0.862723
0.82809
0.794247
0.757155
0.711728
0.677172
0.626631
0.613978
0.0902561
0.0629467
0.0631813
0.0642655
0.067884
0.0802424
0.131942
0.415692
1.90395
1.71735
1.31526
1.24167
1.16538
1.07204
1.0025
0.947999
0.902978
0.862459
0.827409
0.791997
0.756535
0.712882
0.676393
0.628536
0.611169
0.0902508
0.062847
0.0630443
0.0639787
0.0670917
0.0775511
0.119385
0.342796
1.69075
1.82904
1.32488
1.24207
1.17342
1.07591
1.00643
0.949351
0.902954
0.861966
0.826448
0.788932
0.755817
0.713361
0.674806
0.62813
0.607297
0.0902528
0.0627523
0.0629123
0.0636963
0.0663076
0.0749508
0.108185
0.282324
1.38618
1.96957
1.34303
1.24293
1.18154
1.082
1.0102
0.950562
0.90263
0.861038
0.823529
0.786442
0.754229
0.712519
0.672935
0.625896
0.600575
0.0902687
0.0626696
0.0627944
0.0634388
0.0655779
0.0725227
0.0982798
0.230069
1.0427
2.10001
1.37604
1.24312
1.18868
1.08999
1.01455
0.951739
0.902488
0.85966
0.820434
0.784663
0.751927
0.7104
0.669187
0.619156
0.584898
0.0902894
0.0626006
0.0626973
0.063222
0.0649374
0.0703712
0.0897617
0.183016
0.734735
2.15919
1.43538
1.24216
1.19423
1.10037
1.01942
0.953633
0.902543
0.857495
0.81779
0.781727
0.747553
0.706052
0.661084
0.603748
0.549371
0.0902958
0.0632787
0.0636306
0.0651966
0.070521
0.0897909
0.180874
0.716702
2.18944
1.50696
1.30106
1.2356
1.13904
1.05926
0.992009
0.941915
0.899456
0.860359
0.824924
0.789778
0.75141
0.707446
0.675497
0.621835
0.616036
0.0902923
0.0632547
0.0635983
0.0651296
0.0703291
0.0890717
0.176905
0.690596
2.18973
1.5136
1.30273
1.23809
1.14276
1.06189
0.994218
0.943817
0.901325
0.8622
0.827
0.79215
0.754001
0.709391
0.677459
0.623505
0.617421
0.0902854
0.063204
0.0635299
0.0649879
0.0699222
0.0875572
0.168684
0.633606
2.18034
1.53218
1.30398
1.2392
1.14659
1.06351
0.995212
0.944469
0.901843
0.862524
0.827648
0.793338
0.755653
0.710102
0.678101
0.623989
0.617042
0.0902759
0.0631317
0.0634321
0.0647849
0.0693437
0.0854364
0.157581
0.565426
2.1388
1.56761
1.306
1.24046
1.15174
1.066
0.996928
0.945384
0.902344
0.862718
0.828053
0.794347
0.756859
0.710647
0.677821
0.624837
0.616047
0.0902655
0.063044
0.0633135
0.0645396
0.0686498
0.0829385
0.145072
0.490146
2.0483
1.6304
1.30999
1.24151
1.15795
1.06888
0.999191
0.946583
0.902777
0.862726
0.828092
0.794247
0.757154
0.711723
0.677177
0.62663
0.613982
0.0902561
0.0629467
0.0631812
0.0642654
0.0678836
0.0802408
0.131933
0.415633
1.90374
1.71745
1.31541
1.24172
1.1654
1.07205
1.0025
0.948005
0.902982
0.862463
0.827411
0.791999
0.756532
0.712873
0.676394
0.628532
0.61117
0.0902508
0.062847
0.0630442
0.0639784
0.067091
0.0775485
0.119373
0.342731
1.69055
1.82923
1.32477
1.24209
1.17347
1.07592
1.00643
0.949358
0.902961
0.861972
0.826452
0.788932
0.755815
0.713353
0.674803
0.628126
0.607292
0.0902528
0.0627523
0.0629122
0.0636961
0.0663071
0.074949
0.108177
0.282273
1.38583
1.96987
1.3431
1.243
1.18159
1.08202
1.01021
0.95057
0.90264
0.861045
0.823534
0.786436
0.754228
0.712511
0.672927
0.625889
0.60057
0.0902687
0.0626696
0.0627944
0.0634387
0.0655776
0.0725216
0.0982748
0.230038
1.04248
2.10018
1.37616
1.24316
1.1887
1.09
1.01456
0.95175
0.9025
0.859667
0.820435
0.784659
0.75192
0.710389
0.669176
0.619144
0.584891
0.0902894
0.0626005
0.0626973
0.063222
0.0649372
0.0703705
0.0897587
0.182997
0.734593
2.15917
1.43544
1.24216
1.19423
1.10039
1.01943
0.953645
0.902554
0.857502
0.817793
0.781722
0.747543
0.706038
0.661066
0.603724
0.549362
0.0902958
0.0632787
0.0636307
0.0651967
0.0705213
0.0897919
0.18088
0.716748
2.18944
1.50696
1.30106
1.2356
1.13903
1.05926
0.992003
0.94191
0.899452
0.860358
0.824924
0.789779
0.751413
0.707449
0.6755
0.621834
0.616035
0.0902923
0.0632547
0.0635983
0.0651297
0.0703293
0.0890725
0.17691
0.690624
2.18975
1.5136
1.30274
1.23809
1.14275
1.06188
0.994212
0.943811
0.901319
0.862197
0.826999
0.79215
0.754003
0.709393
0.677462
0.623505
0.617421
0.0902854
0.0632041
0.06353
0.0649879
0.0699224
0.0875579
0.168688
0.633635
2.18036
1.53218
1.30399
1.2392
1.14658
1.06351
0.995206
0.944463
0.901837
0.862521
0.827647
0.793338
0.755655
0.710104
0.678103
0.623991
0.617042
0.090276
0.0631317
0.0634322
0.064785
0.0693439
0.0854371
0.157585
0.56545
2.13883
1.56761
1.306
1.24046
1.15174
1.066
0.996922
0.945378
0.902339
0.862714
0.828051
0.794347
0.756859
0.71065
0.677821
0.624842
0.616046
0.0902655
0.063044
0.0633136
0.0645397
0.0686499
0.0829391
0.145075
0.490163
2.04833
1.6304
1.31
1.24151
1.15795
1.06888
0.999184
0.946576
0.902771
0.862722
0.828089
0.794246
0.757154
0.711728
0.677176
0.626635
0.613984
0.0902561
0.0629467
0.0631813
0.0642655
0.0678837
0.0802413
0.131935
0.415646
1.90378
1.71744
1.31542
1.24172
1.1654
1.07205
1.0025
0.947999
0.902977
0.862459
0.827408
0.791997
0.756534
0.712879
0.676392
0.628537
0.611173
0.0902508
0.062847
0.0630443
0.0639785
0.0670911
0.0775489
0.119375
0.34274
1.69058
1.82922
1.32477
1.24209
1.17347
1.07592
1.00643
0.949352
0.902954
0.861966
0.826448
0.788932
0.755816
0.713356
0.674802
0.62813
0.607297
0.0902528
0.0627523
0.0629122
0.0636961
0.0663072
0.0749492
0.108178
0.282279
1.38587
1.96986
1.34311
1.243
1.18158
1.08201
1.0102
0.950563
0.902633
0.861039
0.823529
0.786441
0.754228
0.712515
0.672928
0.625892
0.600573
0.0902687
0.0626696
0.0627944
0.0634388
0.0655777
0.0725218
0.0982756
0.230042
1.04251
2.10017
1.37616
1.24317
1.1887
1.09
1.01455
0.951742
0.902493
0.859662
0.820435
0.784663
0.751925
0.710394
0.669178
0.619147
0.584891
0.0902894
0.0626006
0.0626973
0.063222
0.0649372
0.0703706
0.0897593
0.183
0.734614
2.15918
1.43544
1.24216
1.19423
1.10038
1.01942
0.953637
0.902548
0.857498
0.817792
0.781728
0.747552
0.706044
0.661072
0.603731
0.549359
0.0902958
0.0632787
0.0636307
0.0651967
0.0705212
0.0897916
0.180879
0.716745
2.18947
1.50698
1.30107
1.23561
1.13904
1.05927
0.992011
0.941917
0.899458
0.860362
0.824926
0.789779
0.751409
0.707443
0.675491
0.621824
0.616024
0.0902923
0.0632547
0.0635983
0.0651297
0.0703293
0.0890723
0.176909
0.690628
2.18977
1.51362
1.30275
1.2381
1.14276
1.06189
0.994219
0.943817
0.901324
0.862201
0.827001
0.79215
0.754001
0.709388
0.677454
0.623496
0.617411
0.0902854
0.0632041
0.0635299
0.0649879
0.0699224
0.087558
0.168689
0.633645
2.18038
1.53219
1.30399
1.23921
1.14659
1.06351
0.995211
0.944467
0.90184
0.862523
0.827648
0.793338
0.755653
0.7101
0.678097
0.623983
0.617033
0.090276
0.0631317
0.0634322
0.064785
0.069344
0.0854374
0.157587
0.565464
2.13887
1.56762
1.30599
1.24047
1.15175
1.066
0.996925
0.945381
0.902341
0.862716
0.828052
0.794347
0.756858
0.710648
0.677816
0.624835
0.616038
0.0902655
0.063044
0.0633136
0.0645397
0.0686501
0.0829397
0.145079
0.490188
2.04842
1.63041
1.30993
1.24149
1.15795
1.06888
0.999185
0.946577
0.902773
0.862723
0.82809
0.794247
0.757155
0.711728
0.677172
0.626631
0.613978
0.0902561
0.0629467
0.0631813
0.0642655
0.067884
0.0802424
0.131942
0.415692
1.90395
1.71735
1.31526
1.24167
1.16538
1.07204
1.0025
0.947999
0.902978
0.862459
0.827409
0.791997
0.756535
0.712882
0.676393
0.628536
0.611169
0.0902508
0.062847
0.0630443
0.0639787
0.0670917
0.0775511
0.119385
0.342796
1.69075
1.82904
1.32488
1.24207
1.17342
1.07591
1.00643
0.949351
0.902954
0.861966
0.826448
0.788932
0.755817
0.713361
0.674806
0.62813
0.607297
0.0902528
0.0627523
0.0629123
0.0636963
0.0663076
0.0749508
0.108185
0.282324
1.38618
1.96957
1.34303
1.24293
1.18154
1.082
1.0102
0.950562
0.90263
0.861038
0.823529
0.786442
0.754229
0.712519
0.672935
0.625896
0.600575
0.0902687
0.0626696
0.0627944
0.0634388
0.0655779
0.0725227
0.0982798
0.230069
1.0427
2.10001
1.37604
1.24312
1.18868
1.08999
1.01455
0.951739
0.902488
0.85966
0.820434
0.784663
0.751927
0.7104
0.669187
0.619156
0.584898
0.0902894
0.0626006
0.0626973
0.063222
0.0649374
0.0703712
0.0897617
0.183016
0.734735
2.15919
1.43538
1.24216
1.19423
1.10037
1.01942
0.953633
0.902543
0.857495
0.81779
0.781727
0.747553
0.706052
0.661084
0.603748
0.549371
0.0902958
0.0632786
0.0636306
0.0651965
0.0705208
0.0897898
0.180869
0.71667
2.1895
1.507
1.30107
1.2356
1.13903
1.05926
0.991998
0.941905
0.899448
0.860355
0.824919
0.789768
0.751393
0.707421
0.675461
0.62179
0.615989
0.0902923
0.0632547
0.0635983
0.0651296
0.0703289
0.0890711
0.176903
0.690591
2.18977
1.51364
1.30275
1.23809
1.14275
1.06188
0.994208
0.943806
0.901315
0.862193
0.826993
0.79214
0.753984
0.709367
0.677422
0.623461
0.617376
0.0902854
0.063204
0.0635299
0.0649878
0.069922
0.0875567
0.168682
0.633603
2.18037
1.53222
1.30399
1.23919
1.14657
1.0635
0.995204
0.944461
0.901833
0.862515
0.82764
0.793327
0.755635
0.710079
0.678065
0.623946
0.616997
0.090276
0.0631317
0.0634321
0.0647849
0.0693436
0.0854361
0.157581
0.565432
2.13884
1.56765
1.30596
1.24046
1.15176
1.06601
0.996935
0.945381
0.902337
0.862707
0.828043
0.794335
0.75684
0.710625
0.677784
0.624795
0.616001
0.0902655
0.0630439
0.0633135
0.0645395
0.0686494
0.0829375
0.145068
0.490134
2.04845
1.63045
1.30987
1.2415
1.15799
1.06888
0.999191
0.946586
0.902775
0.862721
0.828085
0.794237
0.757136
0.711701
0.677141
0.626588
0.613939
0.0902561
0.0629467
0.0631813
0.0642655
0.0678838
0.0802414
0.131937
0.415662
1.9039
1.71739
1.31522
1.24169
1.16541
1.07204
1.00252
0.948013
0.902987
0.862461
0.827406
0.79199
0.756516
0.712852
0.67636
0.62849
0.611127
0.0902508
0.0628471
0.0630444
0.0639787
0.0670918
0.0775514
0.119386
0.342798
1.69074
1.82904
1.32487
1.24207
1.17344
1.07592
1.00645
0.949369
0.902964
0.861972
0.82645
0.788925
0.755798
0.713331
0.67477
0.628084
0.607249
0.0902528
0.0627524
0.0629123
0.0636964
0.0663079
0.0749516
0.108188
0.282337
1.38626
1.9695
1.34305
1.24295
1.18154
1.08202
1.01023
0.950596
0.902652
0.861048
0.823536
0.786434
0.754212
0.71249
0.672898
0.625849
0.600525
0.0902686
0.0626697
0.0627945
0.0634389
0.0655781
0.0725234
0.0982822
0.230081
1.04277
2.09994
1.37607
1.24316
1.18867
1.08999
1.01456
0.95177
0.902515
0.859677
0.820445
0.784662
0.751912
0.710373
0.66915
0.619108
0.584844
0.0902894
0.0626006
0.0626974
0.0632221
0.0649375
0.0703717
0.0897634
0.183024
0.734784
2.15916
1.43543
1.2422
1.19421
1.10037
1.01944
0.953671
0.902573
0.857518
0.817803
0.781727
0.747542
0.706028
0.661046
0.603695
0.549316
0.0902959
0.0632791
0.0636312
0.0651978
0.0705243
0.089803
0.180945
0.717216
2.18938
1.50673
1.3009
1.23555
1.13902
1.05927
0.992022
0.941944
0.899495
0.860388
0.824943
0.789781
0.751386
0.707399
0.67543
0.621758
0.615958
0.0902924
0.0632551
0.0635988
0.0651305
0.0703315
0.0890798
0.176945
0.69076
2.1899
1.51336
1.30264
1.23809
1.14277
1.0619
0.99424
0.943851
0.901366
0.862232
0.827019
0.792152
0.753976
0.709346
0.677391
0.623428
0.617345
0.0902855
0.0632046
0.0635307
0.0649893
0.0699261
0.0875712
0.168758
0.63417
2.18024
1.53193
1.3039
1.23916
1.14656
1.06354
0.995253
0.944508
0.901881
0.862558
0.82767
0.793339
0.755626
0.710058
0.678033
0.623913
0.616967
0.0902761
0.0631322
0.0634328
0.0647862
0.0693472
0.0854489
0.157645
0.565811
2.13901
1.56734
1.30604
1.24047
1.15171
1.06601
0.996961
0.945421
0.902382
0.862755
0.828076
0.794346
0.756833
0.710603
0.677755
0.624762
0.615972
0.0902656
0.0630444
0.0633141
0.0645407
0.0686527
0.0829484
0.14512
0.490408
2.04866
1.6302
1.31001
1.24152
1.15792
1.06891
0.999217
0.946617
0.902817
0.862766
0.828115
0.794248
0.757131
0.711679
0.677112
0.626555
0.613911
0.0902561
0.062947
0.0631817
0.0642662
0.0678857
0.080248
0.131968
0.415842
1.90432
1.71711
1.31534
1.24172
1.16537
1.07209
1.00253
0.948043
0.903025
0.862502
0.827434
0.791998
0.75651
0.712831
0.676333
0.628459
0.6111
0.0902508
0.0628472
0.0630445
0.0639791
0.0670927
0.0775545
0.1194
0.342878
1.69105
1.82887
1.32496
1.24213
1.17342
1.07595
1.00647
0.949402
0.903005
0.86201
0.826472
0.78893
0.755793
0.713313
0.674745
0.628055
0.607224
0.0902528
0.0627524
0.0629123
0.0636964
0.0663081
0.0749524
0.108192
0.282361
1.38642
1.96949
1.34308
1.24298
1.18154
1.08203
1.01024
0.950614
0.902681
0.861077
0.823549
0.786442
0.754208
0.712472
0.672875
0.625823
0.600501
0.0902686
0.0626697
0.0627945
0.0634389
0.0655781
0.0725233
0.098282
0.230081
1.04278
2.1
1.37606
1.24315
1.18869
1.09001
1.01459
0.951789
0.902534
0.859692
0.820454
0.784667
0.75191
0.710358
0.669128
0.619085
0.584823
0.0902894
0.0626006
0.0626973
0.063222
0.0649374
0.0703713
0.0897621
0.183018
0.734743
2.15923
1.43538
1.24216
1.19423
1.1004
1.01945
0.953677
0.902586
0.857523
0.817808
0.781732
0.747541
0.706015
0.661026
0.603678
0.549299
0.0902955
0.0632779
0.0636297
0.0651948
0.0705163
0.0897741
0.180785
0.716149
2.18963
1.50728
1.30115
1.23567
1.13914
1.05936
0.992097
0.941991
0.899518
0.860403
0.824953
0.789791
0.751398
0.707407
0.675453
0.621775
0.615997
0.090292
0.063254
0.0635974
0.0651279
0.0703243
0.0890546
0.176819
0.690082
2.18995
1.51388
1.30278
1.23815
1.14287
1.06198
0.994304
0.943894
0.901392
0.862249
0.827032
0.792163
0.753989
0.709355
0.677407
0.623442
0.617374
0.0902851
0.0632033
0.063529
0.064986
0.0699172
0.0875394
0.168591
0.632933
2.18067
1.53252
1.30405
1.23928
1.14668
1.06358
0.995283
0.944542
0.901912
0.862579
0.827685
0.79335
0.755634
0.710063
0.678045
0.623926
0.616994
0.0902757
0.0631313
0.0634316
0.0647839
0.0693408
0.085426
0.157528
0.565122
2.13865
1.56796
1.30605
1.24049
1.15179
1.06607
0.996995
0.945456
0.902417
0.862778
0.828094
0.794357
0.756839
0.710603
0.677762
0.624769
0.615995
0.0902653
0.0630437
0.0633132
0.064539
0.0686483
0.0829335
0.145048
0.490016
2.04801
1.63065
1.31009
1.24151
1.15796
1.06895
0.999261
0.946652
0.902851
0.862792
0.828141
0.794266
0.757136
0.711669
0.677116
0.626556
0.613928
0.0902559
0.0629465
0.063181
0.064265
0.0678826
0.0802376
0.131917
0.41554
1.90348
1.71768
1.31551
1.24174
1.16541
1.07211
1.00256
0.948074
0.903057
0.862529
0.827464
0.792023
0.756514
0.712815
0.676328
0.628452
0.611105
0.0902505
0.0628467
0.063044
0.0639781
0.0670901
0.0775458
0.119361
0.342664
1.69032
1.82944
1.32481
1.24212
1.1735
1.07596
1.00647
0.949414
0.903036
0.862049
0.826512
0.788957
0.755801
0.713297
0.674731
0.628045
0.607217
0.0902525
0.0627522
0.062912
0.0636959
0.0663067
0.0749478
0.108172
0.28224
1.38562
1.97002
1.34312
1.24302
1.18163
1.08207
1.01029
0.950646
0.902724
0.861127
0.823601
0.786468
0.754218
0.712458
0.672854
0.625807
0.600489
0.0902683
0.0626695
0.0627943
0.0634386
0.0655776
0.0725219
0.0982755
0.230037
1.04246
2.10023
1.37614
1.24317
1.18872
1.09006
1.01464
0.951832
0.902591
0.859764
0.820517
0.784706
0.751922
0.710343
0.669103
0.619059
0.584801
0.090289
0.0626004
0.0626972
0.0632219
0.0649374
0.0703715
0.0897624
0.183012
0.73469
2.15913
1.43538
1.24217
1.19426
1.10042
1.01951
0.953748
0.90265
0.857613
0.817879
0.781777
0.747558
0.706003
0.660995
0.603633
0.549267
0.0903092
0.0625569
0.0626329
0.0630395
0.0643579
0.0685166
0.0828816
0.146454
0.505565
2.10756
1.54394
1.24373
1.19753
1.11259
1.02529
0.956469
0.903226
0.855344
0.816705
0.778999
0.74207
0.697376
0.646078
0.571895
0.453637
0.0903198
0.0625729
0.062564
0.0628199
0.0638122
0.0669882
0.077615
0.120705
0.354954
1.78198
1.71381
1.25376
1.19721
1.1263
1.03228
0.960012
0.904438
0.855779
0.817176
0.776935
0.736761
0.688207
0.629743
0.541723
0.420818
0.0903214
0.0626315
0.0624304
0.0626261
0.0633734
0.0657525
0.073497
0.102958
0.258756
1.24337
1.90075
1.28541
1.19632
1.13938
1.0414
0.96479
0.903413
0.857155
0.818378
0.777017
0.733189
0.681754
0.619335
0.53212
0.423683
0.0903198
0.0626806
0.0623224
0.0624645
0.0630169
0.0647715
0.0703114
0.0902962
0.188413
0.769103
2.02345
1.36214
1.19523
1.14791
1.05244
0.971504
0.903918
0.860558
0.82072
0.777986
0.733407
0.681797
0.619277
0.534471
0.434803
0.0903171
0.0627221
0.0622308
0.0623353
0.0627411
0.0640209
0.0679614
0.0814502
0.140809
0.475618
2.00269
1.51404
1.19005
1.14856
1.06472
0.979084
0.90547
0.864807
0.824922
0.781216
0.735404
0.683863
0.622084
0.543608
0.459589
0.0903147
0.062752
0.0621616
0.0622378
0.062532
0.0634509
0.0662285
0.0753239
0.111508
0.315409
1.67982
1.69296
1.1939
1.14204
1.07702
0.984507
0.910106
0.870857
0.832393
0.788639
0.741375
0.690755
0.631586
0.564556
0.4969
0.0903129
0.0627726
0.0621112
0.0621663
0.0623772
0.0630291
0.0649789
0.071089
0.0933702
0.206883
0.921995
1.8102
1.23362
1.12885
1.0879
0.991708
0.919399
0.878327
0.843795
0.800765
0.754622
0.706205
0.652457
0.595875
0.533779
0.0903116
0.0627855
0.0620763
0.062116
0.062265
0.0627204
0.0640697
0.0681853
0.0823445
0.145809
0.500267
1.81158
1.37775
1.12019
1.08942
1.00395
0.935375
0.890596
0.855185
0.816286
0.774865
0.729083
0.679178
0.625694
0.567864
0.0903107
0.0627928
0.0620534
0.0620824
0.0621876
0.0625022
0.0634133
0.0661232
0.075029
0.111045
0.317256
1.60955
1.53261
1.11826
1.08403
1.01929
0.952465
0.907924
0.870595
0.836142
0.795687
0.752093
0.705023
0.653793
0.599936
0.0903102
0.0627965
0.0620398
0.0620612
0.062136
0.0623518
0.0629617
0.0647368
0.0702243
0.0901493
0.192229
0.880318
1.59568
1.13849
1.07922
1.03322
0.971979
0.928404
0.888816
0.858311
0.819836
0.776837
0.730976
0.683375
0.631627
0.0903101
0.0627979
0.0620336
0.06205
0.0621033
0.0622514
0.0626548
0.0637987
0.0672125
0.0787088
0.128247
0.413311
1.50584
1.26588
1.08663
1.04042
0.990899
0.951296
0.914866
0.879582
0.846325
0.80464
0.759598
0.713735
0.665091
0.0903102
0.0627986
0.0620313
0.0620448
0.062085
0.0621888
0.0624563
0.0631756
0.0652543
0.0718378
0.0968359
0.233111
1.12666
1.31214
1.11049
1.05224
1.01178
0.976934
0.942691
0.905934
0.87283
0.834323
0.790576
0.745361
0.699437
0.0903102
0.0627993
0.0620298
0.0620421
0.0620761
0.0621555
0.0623389
0.0627984
0.0640477
0.0677237
0.0802929
0.137085
0.486682
1.25064
1.1596
1.06546
1.03144
0.998688
0.968603
0.93721
0.902873
0.868275
0.824761
0.778931
0.733185
0.0903102
0.0627995
0.0620297
0.062042
0.0620762
0.0621521
0.0623045
0.0626086
0.0633477
0.0654158
0.0718427
0.0958894
0.225142
0.933959
1.14795
1.10211
1.06538
1.03092
1.00331
0.971848
0.938406
0.901945
0.861019
0.814686
0.767866
0.0903102
0.0627995
0.0620297
0.0620421
0.0620766
0.0621538
0.0623138
0.0625207
0.0629809
0.0641473
0.0674557
0.0782781
0.124677
0.395829
1.01925
1.0961
1.0778
1.0628
1.03913
1.01749
0.984267
0.94235
0.898716
0.853151
0.805003
0.0903102
0.0627995
0.0620297
0.062042
0.0620764
0.0621527
0.0623097
0.0625322
0.0628502
0.0635454
0.0653359
0.0703785
0.0878303
0.171865
0.583243
1.01681
1.07428
1.0711
1.07064
1.06005
1.03428
0.993264
0.942126
0.892936
0.844576
0.0903102
0.0627995
0.0620297
0.062042
0.0620763
0.0621526
0.062309
0.0625327
0.0628533
0.0634808
0.0644647
0.0668855
0.0740167
0.0997194
0.224063
0.67199
1.00395
1.06692
1.08256
1.09114
1.07931
1.04883
0.995423
0.936316
0.885929
0.0903102
0.0627995
0.0620297
0.062042
0.0620763
0.0621526
0.0623089
0.0625336
0.0628479
0.0634712
0.0643056
0.065696
0.0689169
0.0784793
0.112253
0.259841
0.676561
0.988503
1.0735
1.10029
1.10212
1.08843
1.05443
0.992594
0.927517
0.0903102
0.0627995
0.0620297
0.062042
0.0620763
0.0621526
0.0623089
0.0625336
0.0628482
0.0634684
0.0643159
0.0655238
0.0678521
0.0722008
0.0836672
0.121833
0.259165
0.617988
0.9733
1.08559
1.10612
1.10179
1.08329
1.04565
0.983506
0.0903102
0.0627995
0.0620297
0.062042
0.0620763
0.0621526
0.0623089
0.0625336
0.0628486
0.0634691
0.0643181
0.0655038
0.0678551
0.0712359
0.077482
0.0916013
0.12872
0.238229
0.531749
0.950394
1.07597
1.09822
1.08811
1.06691
1.0301
0.0903102
0.0627995
0.0620297
0.062042
0.0620763
0.0621526
0.0623089
0.0625335
0.0628484
0.063469
0.0643175
0.0655031
0.0678591
0.0711489
0.0774586
0.0881749
0.109856
0.152641
0.240598
0.458875
0.8726
1.03795
1.07457
1.0632
1.04366
0.0903102
0.0627995
0.0620297
0.0620421
0.0620763
0.0621526
0.062309
0.0625336
0.0628487
0.0634694
0.0643178
0.0655035
0.067862
0.0711393
0.0774846
0.0878854
0.108824
0.147768
0.194305
0.256144
0.400646
0.729259
0.976796
1.02608
1.03001
0.0903102
0.0627995
0.0620297
0.062042
0.0620763
0.0621525
0.0623088
0.0625335
0.0628484
0.063469
0.0643173
0.0655032
0.0678622
0.071136
0.0774827
0.0878602
0.108698
0.147721
0.189866
0.228928
0.268163
0.35595
0.568532
0.85393
0.961481
0.0903102
0.0627995
0.0620297
0.0620421
0.0620763
0.0621526
0.062309
0.0625336
0.0628487
0.0634696
0.0643178
0.0655035
0.0678624
0.0711387
0.0774873
0.0878632
0.108689
0.147736
0.189796
0.225916
0.251696
0.274725
0.323881
0.43233
0.659819
0.0903102
0.0627995
0.0620297
0.062042
0.0620763
0.0621526
0.0623088
0.0625336
0.0628486
0.0634689
0.064317
0.0655024
0.0678608
0.0711361
0.0774848
0.0878564
0.10867
0.147712
0.189745
0.225717
0.250021
0.265264
0.277255
0.302681
0.357311
0.0903102
0.0627995
0.0620297
0.0620421
0.0620763
0.0621526
0.0623089
0.0625336
0.0628487
0.0634695
0.0643177
0.0655034
0.0678624
0.0711385
0.0774867
0.0878631
0.108689
0.147743
0.189782
0.225718
0.249975
0.264191
0.271685
0.278315
0.290806
0.0903102
0.0627995
0.0620296
0.062042
0.0620763
0.0621525
0.0623088
0.0625335
0.0628484
0.0634689
0.0643173
0.0655031
0.0678622
0.0711352
0.0774822
0.0878553
0.108678
0.147723
0.189771
0.225709
0.249972
0.264105
0.271001
0.27592
0.278573
0.0903102
0.0627995
0.0620297
0.062042
0.0620763
0.0621526
0.0623089
0.0625335
0.0628486
0.0634693
0.0643175
0.0655031
0.0678619
0.0711377
0.0774863
0.0878617
0.108685
0.147739
0.189785
0.225727
0.249979
0.264113
0.270938
0.275666
0.277081
0.0903102
0.0627995
0.0620297
0.062042
0.0620763
0.0621525
0.0623088
0.0625335
0.0628484
0.0634689
0.0643172
0.065503
0.067862
0.0711353
0.0774821
0.0878548
0.108677
0.147718
0.18977
0.225715
0.249989
0.264116
0.270938
0.275667
0.276926
0.0903102
0.0627995
0.0620297
0.062042
0.0620763
0.0621526
0.0623089
0.0625335
0.0628485
0.0634691
0.0643173
0.0655029
0.0678618
0.0711372
0.0774854
0.0878604
0.108684
0.147733
0.189777
0.225721
0.249986
0.264125
0.27095
0.275675
0.276917
0.0903102