/*--------------------------------*- C++ -*----------------------------------*\
| =========                 |                                                 |
| \\      /  F ield         | OpenFOAM: The Open Source CFD Toolbox           |
|  \\    /   O peration     | Version:  4.1                                   |
|   \\  /    A nd           | Web:      www.OpenFOAM.org                      |
|    \\/     M anipulation  |                                                 |
\*---------------------------------------------------------------------------*/
FoamFile
{
    version     2.0;
    format      ascii;
    class       surfaceScalarField;
    location    "0.48";
    object      phi;
}
// * * * * * * * * * * * * * * * * * * * * * * * * * * * * * * * * * * * * * //

dimensions      [1 0 -1 0 0 0 0];

internalField   nonuniform List<scalar> 
150500
(
0.00203043
6.99366e-09
-1.85602e-12
0.00202141
5.41855e-08
-4.9875e-12
0.00200917
1.07263e-07
-6.44e-12
0.00198559
2.2281e-07
-1.23867e-11
0.00192642
5.9435e-07
-3.37806e-11
0.00178551
2.12683e-06
-1.2543e-10
0.00138927
1.14374e-05
-7.26951e-10
-0.00105404
0.000111032
-5.30805e-09
-0.00225336
0.000547365
2.10707e-09
-0.0015579
0.000320711
2.33947e-09
-0.00150496
0.000289337
9.95566e-10
-0.00147673
0.000284763
4.59875e-10
-0.00126024
0.000254157
3.44191e-10
-0.00103439
0.000231335
1.67509e-10
-0.000851809
0.000207553
9.28495e-11
-0.000681623
0.000201292
3.04324e-11
-0.000518838
0.000199398
1.54231e-11
-0.000348868
0.000200664
5.32407e-11
-0.000188587
0.000197541
9.25466e-11
-5.89241e-05
0.000196331
1.38034e-10
1.8866e-05
0.000201272
2.23704e-10
7.07775e-05
0.000210041
2.91958e-10
7.59182e-05
0.00021441
3.20267e-10
3.65993e-05
0.000225389
3.27147e-10
0.000232757
3.29167e-10
0.00203038
1.19842e-08
-1.72118e-12
0.00202154
1.12358e-07
-4.17096e-12
0.00200952
2.20745e-07
-5.31162e-12
0.00198639
4.61612e-07
-9.9433e-12
0.00192837
1.23825e-06
-2.63625e-11
0.00178965
4.40006e-06
-9.30003e-11
0.00140667
2.29932e-05
-4.72178e-10
-0.0009227
0.000209415
-2.47916e-09
-0.0023136
0.0011048
-9.33491e-11
-0.0015622
0.000629102
2.31045e-09
-0.00149194
0.000573035
7.80612e-10
-0.00146621
0.000568369
8.48166e-11
-0.00125245
0.000510046
1.42897e-10
-0.0010265
0.00046365
1.44522e-10
-0.000841078
0.000415299
8.21854e-11
-0.000670708
0.000403565
3.37197e-11
-0.000508598
0.000399856
2.01886e-11
-0.000338387
0.00040218
5.02054e-11
-0.000176902
0.000396036
9.75115e-11
-4.6441e-05
0.000394226
1.46083e-10
3.33924e-05
0.00040421
2.14981e-10
8.15042e-05
0.000421255
2.71262e-10
8.55977e-05
0.000430066
3.06524e-10
4.01079e-05
0.000450875
3.11882e-10
0.000466773
3.05649e-10
0.00203028
1.31251e-08
-1.85986e-12
0.00202181
1.55168e-07
-4.74808e-12
0.00201032
3.07658e-07
-6.08523e-12
0.0019882
6.4968e-07
-1.15461e-11
0.00193283
1.75037e-06
-3.0917e-11
0.00179904
6.1664e-06
-1.10671e-10
0.00144648
3.13159e-05
-5.90659e-10
-0.000558677
0.000266045
-4.4257e-09
-0.00243378
0.00163944
6.01223e-10
-0.00154214
0.000966444
2.42505e-09
-0.00146175
0.000851458
7.76369e-10
-0.00144586
0.000849604
2.63437e-10
-0.0012349
0.000767749
2.66163e-10
-0.001012
0.000698654
5.09104e-11
-0.000823401
0.000624315
3.81217e-11
-0.000652186
0.000605658
5.89857e-11
-0.000490436
0.000600182
7.23298e-11
-0.000320893
0.000604557
6.35619e-11
-0.000158332
0.000596425
1.09901e-10
-2.6101e-05
0.000593919
1.60734e-10
5.85093e-05
0.000608844
2.02144e-10
0.000100238
0.000636513
2.23054e-10
0.000103233
0.000648014
2.63176e-10
4.68947e-05
0.000677936
2.77689e-10
0.00070425
2.85938e-10
0.00203012
8.79288e-09
-1.59707e-12
0.0020222
1.79876e-07
-3.99876e-12
0.00201146
3.60895e-07
-5.15708e-12
0.00199084
7.72216e-07
-9.93178e-12
0.00193921
2.0921e-06
-2.69363e-11
0.00181238
7.28082e-06
-9.65012e-11
0.00149546
3.57427e-05
-4.98742e-10
-0.000279469
0.000284629
-3.09503e-09
-0.00264513
0.00210473
-1.66286e-09
-0.00152149
0.00134332
2.70863e-09
-0.00141648
0.00112243
8.52181e-11
-0.00141277
0.0011293
4.43884e-11
-0.00120931
0.00102981
3.90545e-10
-0.000991072
0.000937459
2.46517e-10
-0.000796871
0.000834904
1.59526e-10
-0.000625067
0.000808178
1.30664e-10
-0.000464089
0.000800099
1.2262e-10
-0.000294743
0.00080729
9.69178e-11
-0.000130688
0.000799385
1.47472e-10
3.1027e-06
0.000796767
1.93521e-10
9.68e-05
0.000816084
1.86552e-10
0.00013097
0.000851905
1.9736e-10
0.000132386
0.000871634
2.18238e-10
5.99e-05
0.00090517
2.1861e-10
0.000948845
2.50059e-10
0.00202991
-1.18975e-09
-1.45237e-12
0.00202266
1.85638e-07
-3.64346e-12
0.00201284
3.80629e-07
-4.67631e-12
0.00199406
8.36597e-07
-8.8615e-12
0.00194709
2.29701e-06
-2.34236e-11
0.00182848
7.88235e-06
-8.0876e-11
0.00154395
3.72106e-05
-3.93264e-10
7.30443e-06
0.000276069
-2.26262e-09
-0.00275648
0.00244813
-2.37214e-09
-0.00150582
0.00179219
2.1255e-09
-0.00136321
0.00139288
-7.17351e-11
-0.00137126
0.00140906
6.76961e-11
-0.00118016
0.00130044
4.93066e-10
-0.000968768
0.00118003
2.03071e-10
-0.000764977
0.00105017
2.86731e-10
-0.000591149
0.00101046
2.48245e-10
-0.00043012
0.000998861
1.66185e-10
-0.000260388
0.00101051
1.48956e-10
-9.38713e-05
0.00100685
2.07405e-10
4.80399e-05
0.00101078
2.21478e-10
0.000146579
0.00102837
1.6345e-10
0.000175466
0.00106763
1.35506e-10
0.000171794
0.00109546
1.93692e-10
8.16064e-05
0.00113473
1.57887e-10
0.00120559
1.90757e-10
0.00202965
-1.82333e-08
-1.29722e-12
0.00202317
1.70516e-07
-2.70019e-12
0.00201445
3.63276e-07
-3.41191e-12
0.00199773
8.37498e-07
-6.27568e-12
0.00195584
2.35668e-06
-1.62363e-11
0.00184804
7.97472e-06
-5.58256e-11
0.00159198
3.57751e-05
-2.786e-10
0.00031105
0.000248432
-1.72411e-09
-0.00276077
0.00261127
-4.36935e-09
-0.00150092
0.00234324
2.91049e-09
-0.00130405
0.00165561
4.1072e-10
-0.00131877
0.00168221
1.85587e-10
-0.00114532
0.00157948
5.16006e-10
-0.000941981
0.00142343
4.93554e-12
-0.000727073
0.00127516
3.17675e-10
-0.000550898
0.00121191
2.36445e-10
-0.00038822
0.00119634
2.22091e-10
-0.000216937
0.00121158
1.98923e-10
-4.67323e-05
0.00121434
2.34357e-10
0.000104662
0.00122421
2.46824e-10
0.000205583
0.00124034
1.66335e-10
0.00023337
0.00128403
7.64746e-11
0.000221749
0.00132247
1.01923e-10
0.000114302
0.00137458
7.95626e-11
0.0014747
1.24669e-10
0.00202934
-3.90643e-08
-1.32179e-12
0.0020237
1.35861e-07
-1.78479e-12
0.00201626
3.12986e-07
-2.28601e-12
0.0020018
7.84144e-07
-4.39791e-12
0.00196478
2.29278e-06
-1.17325e-11
0.00186748
7.68109e-06
-3.96832e-11
0.00164796
3.26237e-05
-1.83507e-10
0.000772379
0.000211045
-1.0577e-09
-0.00275061
0.00249948
-3.78967e-09
-0.0015116
0.00303775
2.62256e-09
-0.00123627
0.00192771
-7.75857e-10
-0.00125139
0.00195201
-5.78751e-11
-0.00110747
0.00186537
5.87031e-10
-0.000908834
0.0016717
2.42829e-10
-0.00068574
0.00150877
3.25076e-10
-0.000504873
0.0014107
2.56116e-10
-0.000337713
0.00139085
2.3427e-10
-0.000164232
0.00140807
2.66014e-10
5.22304e-06
0.00142703
2.85137e-10
0.000169579
0.0014345
2.59802e-10
0.000275309
0.00145201
1.74885e-10
0.000306458
0.00150563
4.61917e-11
0.000285331
0.00155304
3.3496e-11
0.000162645
0.00162969
5.51651e-11
0.00176581
2.98174e-11
0.00202897
-5.88923e-08
-1.22635e-12
0.00202422
8.93945e-08
-9.99256e-13
0.00201824
2.45676e-07
-1.2198e-12
0.00200632
7.09507e-07
-2.23767e-12
0.00197427
2.15785e-06
-5.93523e-12
0.00188631
7.09391e-06
-2.08413e-11
0.0016988
2.85988e-05
-9.61839e-11
0.00108225
0.000175879
-5.82258e-10
-0.00235336
0.00206147
-3.93899e-09
-0.00153653
0.00388744
2.19515e-09
-0.00115051
0.00222201
4.21055e-10
-0.00116782
0.00221233
2.5669e-10
-0.00106572
0.00215667
4.17753e-10
-0.000866762
0.00192932
3.20253e-10
-0.000639182
0.00175083
3.95641e-10
-0.000453119
0.00160733
3.81099e-10
-0.000277083
0.00158126
3.65551e-10
-0.000100322
0.00159973
3.32046e-10
8.41549e-05
0.00163689
3.48585e-10
0.000244644
0.00163745
2.47344e-10
0.000358991
0.00165985
1.73968e-10
0.000397408
0.00172402
5.22598e-11
0.000366567
0.00178301
-3.03274e-11
0.00023272
0.00189507
-7.73854e-12
0.00210837
-2.06095e-11
0.00202856
-4.77442e-08
-1.61366e-12
0.00202486
3.77486e-08
-8.43618e-13
0.00202054
1.84736e-07
-9.38566e-13
0.00201115
6.58253e-07
-1.41918e-12
0.0019843
2.01057e-06
-3.08826e-12
0.00190788
6.31065e-06
-1.01996e-11
0.00174137
2.39527e-05
-4.55633e-11
0.00122855
0.000138871
-2.98527e-10
-0.00148834
0.00145526
-2.16501e-09
-0.00157092
0.00478356
8.32242e-10
-0.00105331
0.00257486
8.43042e-10
-0.00106867
0.00244958
3.76014e-10
-0.00101629
0.00244711
2.26091e-10
-0.000818358
0.00219737
2.19033e-10
-0.000589042
0.00200279
2.90712e-10
-0.000395896
0.00180448
3.65463e-10
-0.000208247
0.00176739
4.15189e-10
-2.47385e-05
0.00178711
4.08884e-10
0.000167834
0.00183796
3.85064e-10
0.000333078
0.00183931
2.79385e-10
0.000457502
0.00186224
1.56702e-10
0.000512008
0.00193414
2.85905e-11
0.000478948
0.00201271
-6.95012e-11
0.000343592
0.00215027
-1.11415e-10
0.00255111
-1.04961e-10
0.00202822
-1.65155e-12
-2.80717e-08
0.00202592
-7.39999e-13
-3.01209e-08
0.00202332
-8.48589e-13
1.47599e-07
0.00201565
-1.10403e-12
6.54804e-07
0.00199289
-1.66795e-12
1.86979e-06
0.00192975
-4.64435e-12
5.43838e-06
0.00178177
-2.15161e-11
1.92425e-05
0.00139973
-1.57979e-10
0.000100978
-0.000743674
-1.2401e-09
0.000900698
-0.0016335
-5.33826e-10
0.00563963
-0.000993445
8.05108e-10
0.00305338
-0.00095726
4.40879e-10
0.00264958
-0.000953624
1.21626e-10
0.00272942
-0.00076378
1.66804e-10
0.00248042
-0.000536502
3.05726e-10
0.00226471
-0.000331744
4.22994e-10
0.00201221
-0.000131799
4.38214e-10
0.00194476
6.05881e-05
4.76752e-10
0.00196972
0.000259621
4.11039e-10
0.00202603
0.000433347
2.85155e-10
0.00203515
0.000571476
1.62155e-10
0.00205802
0.000653524
4.31401e-12
0.00212298
0.00063998
-1.20656e-10
0.00222885
0.000509214
-2.69715e-10
0.00238706
-1.94925e-10
0.00313412
0.00203043
7.07387e-09
3.73688e-13
0.00202141
5.45989e-08
1.87148e-12
0.00200915
1.07945e-07
2.51507e-12
0.00198555
2.2429e-07
5.17299e-12
0.00192634
5.98701e-07
1.48375e-11
0.00178533
2.1449e-06
5.7018e-11
0.00138834
1.156e-05
3.42219e-10
-0.00106007
0.000112376
2.58571e-09
-0.00225139
0.000547774
-5.33903e-10
-0.00155737
0.000318881
-1.25687e-09
-0.00150461
0.000288734
-9.15765e-10
-0.00147604
0.000284346
-2.64517e-10
-0.00125967
0.000254043
-1.69613e-11
-0.00103409
0.000231489
4.5454e-11
-0.000851687
0.000207704
1.49533e-10
-0.000681571
0.00020135
2.33228e-10
-0.000518809
0.000199387
2.83002e-10
-0.000348865
0.000200613
2.04739e-10
-0.000188588
0.000197467
1.49124e-10
-5.89458e-05
0.000196234
5.79673e-11
1.87995e-05
0.000201161
-3.26722e-11
7.07233e-05
0.000209933
-1.08599e-10
7.58709e-05
0.00021432
-1.66821e-10
3.65946e-05
0.000225308
-1.73526e-10
0.000232694
-1.70683e-10
0.00203038
1.20024e-08
3.16067e-13
0.00202154
1.1219e-07
1.51966e-12
0.00200951
2.2053e-07
1.99471e-12
0.00198637
4.61045e-07
3.91381e-12
0.00192832
1.23623e-06
1.06775e-11
0.00178958
4.39107e-06
3.78747e-11
0.00140658
2.29299e-05
1.88902e-10
-0.000922819
0.000208528
8.0087e-10
-0.00230557
0.00110396
8.00145e-10
-0.00155805
0.00063005
-1.28887e-09
-0.00148882
0.000572242
-5.89531e-10
-0.00146412
0.000568278
3.7174e-11
-0.00125135
0.000510855
1.15698e-10
-0.00102601
0.000464392
7.93255e-11
-0.00084087
0.000415782
1.95642e-10
-0.000670633
0.000403745
2.72183e-10
-0.000508584
0.000399887
3.10443e-10
-0.000338398
0.000402095
2.36651e-10
-0.000176926
0.000395891
1.63073e-10
-4.64822e-05
0.00039403
5.07413e-11
3.33125e-05
0.00040399
-3.49845e-11
8.14406e-05
0.000421041
-1.04626e-10
8.55493e-05
0.000429878
-1.75635e-10
4.01123e-05
0.000450697
-1.81288e-10
0.000466664
-1.70203e-10
0.00203028
1.3325e-08
5.69421e-13
0.00202181
1.55731e-07
2.44377e-12
0.0020103
3.08569e-07
3.22131e-12
0.00198817
6.5132e-07
6.38945e-12
0.00193276
1.75407e-06
1.75639e-11
0.00179888
6.17811e-06
6.37445e-11
0.00144577
3.1377e-05
3.45401e-10
-0.000565889
0.000266786
2.77476e-09
-0.00243244
0.00163947
-6.11144e-10
-0.0015432
0.000965846
-1.33879e-09
-0.00146342
0.000851315
-3.91013e-10
-0.00144696
0.0008494
-1.20919e-10
-0.00123539
0.0007678
-4.8641e-11
-0.00101228
0.000698963
2.48301e-10
-0.000823714
0.000624591
2.97684e-10
-0.00065242
0.000605767
2.93083e-10
-0.000490576
0.000600135
2.9589e-10
-0.000320966
0.000604382
2.69853e-10
-0.000158386
0.000596173
1.88932e-10
-2.61471e-05
0.000593615
4.79762e-11
5.84604e-05
0.000608512
-4.16651e-11
0.000100213
0.000636202
-1.07501e-10
0.000103223
0.000647725
-1.78675e-10
4.69071e-05
0.000677674
-1.87447e-10
0.000704098
-1.68047e-10
0.00203012
8.91578e-09
3.56833e-13
0.0020222
1.80167e-07
2.03453e-12
0.00201144
3.61511e-07
2.71104e-12
0.00199081
7.73452e-07
5.53387e-12
0.00193914
2.09522e-06
1.55129e-11
0.00181225
7.292e-06
5.63294e-11
0.00149504
3.58072e-05
2.92724e-10
-0.00028155
0.000285295
1.85277e-09
-0.0026419
0.00210694
8.1277e-10
-0.00152238
0.00134328
-1.4015e-09
-0.00141817
0.00112318
4.51813e-10
-0.00141439
0.00112945
8.79658e-11
-0.00121077
0.00103015
-2.09991e-10
-0.000992123
0.00093748
9.71796e-12
-0.000797618
0.000834886
1.5042e-10
-0.00062553
0.000807996
2.44837e-10
-0.000464343
0.000799845
2.80848e-10
-0.000294869
0.000806969
2.93199e-10
-0.000130769
0.000799017
2.00726e-10
3.0655e-06
0.000796363
4.36774e-11
9.67821e-05
0.000815657
-3.05851e-11
0.000130976
0.00085152
-1.23244e-10
0.00013241
0.000871326
-1.70478e-10
5.99245e-05
0.00090486
-1.951e-10
0.000948652
-1.64242e-10
0.00202991
-1.27413e-09
2.90493e-13
0.00202265
1.8598e-07
1.9318e-12
0.00201283
3.81404e-07
2.54688e-12
0.00199403
8.38435e-07
5.07145e-12
0.00194704
2.30228e-06
1.37294e-11
0.00182837
7.90098e-06
4.76299e-11
0.00154369
3.73027e-05
2.30085e-10
5.37983e-06
0.000276786
1.31582e-09
-0.00275598
0.00245103
9.53617e-10
-0.00150736
0.00179262
-1.15112e-09
-0.00136585
0.00139484
8.13212e-10
-0.00137368
0.00140954
1.4719e-10
-0.00118207
0.00130002
-2.87943e-10
-0.000970011
0.0011792
1.9357e-10
-0.000766008
0.00104942
9.8279e-11
-0.000591765
0.00100985
1.75761e-10
-0.000430426
0.000998372
2.60965e-10
-0.000260546
0.00101005
2.76243e-10
-9.39741e-05
0.00100637
1.76677e-10
4.79866e-05
0.00101027
4.2183e-11
0.000146603
0.00102786
-2.15118e-11
0.000175515
0.00106719
-1.35732e-10
0.000171835
0.00109511
-1.66574e-10
8.1641e-05
0.00113437
-1.95018e-10
0.00120531
-1.59994e-10
0.00202965
-1.84673e-08
1.51825e-13
0.00202317
1.70786e-07
1.12606e-12
0.00201444
3.63948e-07
1.49318e-12
0.00199771
8.39152e-07
2.96296e-12
0.0019558
2.36128e-06
8.01526e-12
0.00184794
7.98947e-06
2.78936e-11
0.00159171
3.58422e-05
1.38227e-10
0.000309697
0.000248944
8.40021e-10
-0.00276063
0.00261478
1.95103e-09
-0.00150172
0.00234437
-1.25965e-09
-0.00130625
0.00165826
6.69768e-10
-0.00132069
0.00168277
2.25598e-10
-0.0011465
0.00157871
-1.89612e-10
-0.000942602
0.00142219
3.10416e-10
-0.000727765
0.00127373
3.28791e-11
-0.000551402
0.00121094
1.65414e-10
-0.000388564
0.00119569
2.31791e-10
-0.000217098
0.001211
2.47372e-10
-4.68425e-05
0.00121373
1.23234e-10
0.000104616
0.00122364
4.18806e-11
0.000205634
0.00123981
-2.8063e-11
0.000233458
0.00128357
-1.31541e-10
0.000221825
0.00132211
-1.60776e-10
0.000114363
0.00137417
-1.80684e-10
0.00147432
-1.5608e-10
0.00202934
-3.90315e-08
1.00052e-13
0.00202369
1.36136e-07
5.05041e-13
0.00201625
3.13606e-07
6.83144e-13
0.00200179
7.85743e-07
1.40252e-12
0.00196474
2.29738e-06
3.85366e-12
0.00186741
7.69598e-06
1.31799e-11
0.00164777
3.26882e-05
6.2016e-11
0.000771084
0.000211478
3.64964e-10
-0.00274961
0.00250345
1.44961e-09
-0.0015126
0.00303802
-7.58691e-10
-0.00123682
0.0019299
4.06084e-10
-0.00125204
0.00195313
3.56873e-10
-0.00110791
0.00186503
-1.00839e-10
-0.000909141
0.00167077
8.58882e-11
-0.000686078
0.00150766
6.00324e-11
-0.000505106
0.00140971
1.67195e-10
-0.000337915
0.00139004
2.32935e-10
-0.00016434
0.00140735
1.82567e-10
5.13384e-06
0.00142632
8.75557e-11
0.000169545
0.00143387
2.33281e-11
0.000275374
0.00145144
-2.29352e-11
0.000306591
0.00150514
-1.09277e-10
0.00028546
0.00155263
-1.48647e-10
0.000162714
0.00162929
-1.70479e-10
0.00176538
-1.35749e-10
0.00202897
-5.89834e-08
-4.83784e-14
0.00202422
8.94475e-08
-9.46117e-15
0.00201824
2.4591e-07
2.81133e-14
0.00200631
7.10359e-07
1.98513e-13
0.00197426
2.16036e-06
8.16518e-13
0.00188626
7.10185e-06
3.34171e-12
0.00169869
2.86313e-05
1.65151e-11
0.00108186
0.000176103
1.06426e-10
-0.00235352
0.00206419
7.47539e-10
-0.0015356
0.00388816
-7.82318e-11
-0.00114989
0.00222285
1.11319e-10
-0.00116739
0.00221335
1.16417e-10
-0.00106564
0.00215709
8.02297e-12
-0.000866873
0.00192904
6.47491e-11
-0.000639339
0.0017503
5.36038e-11
-0.000453148
0.00160645
8.29091e-11
-0.00027708
0.00158047
1.10371e-10
-0.000100364
0.00159888
1.10021e-10
8.41011e-05
0.00163618
6.06367e-11
0.000244643
0.00163682
3.70367e-11
0.000359061
0.00165931
-1.88541e-11
0.000397553
0.00172365
-1.00118e-10
0.000366753
0.00178268
-9.14478e-11
0.000232825
0.00189478
-1.09118e-10
0.002108
-8.78616e-11
0.00202856
-4.76545e-08
6.45119e-14
0.00202486
3.77801e-08
-1.56484e-14
0.00202054
1.8496e-07
-2.69593e-14
0.00201115
6.58971e-07
-5.76568e-14
0.00198429
2.0122e-06
-1.54538e-13
0.00190785
6.31467e-06
-4.00879e-13
0.0017413
2.39671e-05
-9.85823e-13
0.00122838
0.000138971
1.72865e-12
-0.00148873
0.0014566
3.74833e-11
-0.00156961
0.00478538
3.65573e-10
-0.00105211
0.00257564
-7.4813e-11
-0.00106768
0.00245062
-3.18506e-11
-0.00101574
0.00244792
5.80681e-11
-0.00081802
0.00219747
1.47641e-10
-0.000588794
0.00200252
8.18484e-11
-0.000395708
0.00180368
8.3699e-11
-0.000208163
0.00176659
8.87487e-11
-2.47076e-05
0.00178625
6.98473e-11
0.000167811
0.00183727
4.09701e-11
0.000333095
0.00183868
2.34171e-11
0.000457592
0.00186176
-8.97795e-12
0.000512175
0.00193384
-6.67226e-11
0.000479154
0.00201246
-7.90221e-11
0.000343743
0.00215013
-8.18835e-11
0.00255084
-8.44123e-11
0.00202822
-2.38756e-15
-2.7981e-08
0.00202593
-1.00387e-13
-3.02171e-08
0.00202332
-1.14375e-13
1.47828e-07
0.00201564
-1.99367e-13
6.5549e-07
0.00199288
-6.73598e-13
1.87087e-06
0.00192972
-1.98735e-12
5.44047e-06
0.00178171
-6.08242e-12
1.92491e-05
0.00139955
-2.4524e-11
0.000101022
-0.000744587
-1.94502e-10
0.000901285
-0.00163225
3.02986e-10
0.00564179
-0.000992165
-2.16443e-10
0.00305397
-0.000956069
-2.13374e-10
0.00265032
-0.000952772
1.10699e-10
0.00273043
-0.000763179
1.54354e-10
0.00248074
-0.000536078
6.32915e-11
0.00226462
-0.000331457
2.50128e-11
0.00201164
-0.00013162
6.13657e-11
0.00194397
6.06389e-05
2.15381e-11
0.00196895
0.000259625
2.19819e-11
0.00202537
0.000433368
2.40014e-11
0.00203459
0.000571557
-3.36554e-12
0.00205756
0.000653702
-4.61978e-11
0.00212266
0.000640209
-7.36296e-11
0.0022286
0.000509401
-7.51874e-11
0.00238709
-7.37593e-11
0.00313394
0.00203043
7.03909e-09
7.06581e-14
0.00202141
5.44536e-08
-1.12176e-13
0.00200916
1.07755e-07
-1.93415e-13
0.00198557
2.23805e-07
-5.38802e-13
0.00192638
5.96927e-07
-1.8369e-12
0.00178542
2.13612e-06
-7.57939e-12
0.00138882
1.14931e-05
-4.65576e-11
-0.00105701
0.000111633
-3.53535e-10
-0.00225271
0.000547946
1.53737e-10
-0.00155875
0.000320225
1.17878e-10
-0.00150598
0.00028932
-1.36453e-12
-0.00147741
0.000284597
-4.55937e-11
-0.00126075
0.000253871
-8.00229e-11
-0.00103478
0.000231101
-7.03921e-11
-0.00085214
0.000207369
-6.25468e-11
-0.000681854
0.000201137
-5.65868e-11
-0.000518971
0.00019927
-4.44601e-11
-0.000348926
0.000200557
-3.51167e-11
-0.000188608
0.000197443
-3.5603e-11
-5.8924e-05
0.000196231
-5.8439e-11
1.88864e-05
0.000201177
-1.02722e-10
7.08123e-05
0.000209963
-1.34346e-10
7.59795e-05
0.000214346
-1.90303e-10
3.66333e-05
0.000225331
-2.04156e-10
0.000232725
-2.14226e-10
0.00203038
1.20575e-08
7.6267e-14
0.00202154
1.12606e-07
-4.96634e-14
0.00200952
2.21214e-07
-1.08993e-13
0.00198638
4.62488e-07
-3.61943e-13
0.00192834
1.24026e-06
-1.31292e-12
0.00178959
4.40617e-06
-5.34282e-12
0.00140652
2.30188e-05
-2.94309e-11
-0.000923907
0.000209521
-1.73014e-10
-0.00231101
0.00110515
-7.70317e-12
-0.00156158
0.000629429
1.21859e-10
-0.00149172
0.000573067
6.24093e-12
-0.00146609
0.000568274
-7.62669e-11
-0.00125244
0.000509838
-5.84785e-11
-0.00102657
0.000463426
-4.61207e-11
-0.000841215
0.000415096
-5.13064e-11
-0.00067084
0.000403363
-5.11948e-11
-0.000508695
0.000399673
-4.23698e-11
-0.000338445
0.000402008
-3.61041e-11
-0.000176935
0.00039586
-3.47887e-11
-4.64498e-05
0.000394037
-5.8968e-11
3.34081e-05
0.000404025
-1.04031e-10
8.15379e-05
0.0004211
-1.30468e-10
8.56588e-05
0.000429931
-1.94509e-10
4.01532e-05
0.000450748
-2.12428e-10
0.000466723
-2.16931e-10
0.00203028
1.31423e-08
3.40714e-14
0.00202181
1.55364e-07
-1.02384e-13
0.00201031
3.08048e-07
-1.62678e-13
0.00198819
6.50478e-07
-4.15713e-13
0.0019328
1.75237e-06
-1.3461e-12
0.00179898
6.17291e-06
-5.24064e-12
0.00144624
3.13483e-05
-2.86778e-11
-0.000560953
0.000266372
-1.96295e-10
-0.00243202
0.00164003
-7.72249e-11
-0.00154176
0.000966497
1.32608e-10
-0.00146164
0.000851567
-1.07146e-11
-0.00144579
0.00084959
-1.03654e-10
-0.00123486
0.000767566
-9.3106e-11
-0.00101201
0.000698417
-5.26672e-11
-0.000823483
0.000624071
-3.20651e-11
-0.000652288
0.000605431
-3.15244e-11
-0.000490522
0.000599965
-3.30279e-11
-0.00032095
0.000604337
-4.12182e-11
-0.000158367
0.000596185
-3.91235e-11
-2.60973e-05
0.00059366
-6.21348e-11
5.85579e-05
0.000608589
-1.12663e-10
0.00010031
0.000636276
-1.32581e-10
0.000103331
0.000647822
-1.98862e-10
4.69509e-05
0.00067775
-2.21676e-10
0.000704184
-2.19274e-10
0.00203012
8.78438e-09
8.20311e-14
0.0020222
1.79979e-07
-1.21964e-13
0.00201145
3.6112e-07
-1.89601e-13
0.00199083
7.72735e-07
-4.63485e-13
0.00193918
2.09358e-06
-1.44015e-12
0.00181232
7.28628e-06
-5.33147e-12
0.00149528
3.57731e-05
-2.68766e-11
-0.000280299
0.000284924
-1.49055e-10
-0.00264331
0.00210567
-1.59637e-10
-0.00152085
0.00134321
1.48508e-10
-0.00141611
0.00112274
-1.17932e-10
-0.00141251
0.0011294
-4.44276e-11
-0.00120913
0.00102979
5.52227e-11
-0.000991007
0.000937398
4.98328e-11
-0.000796897
0.00083469
3.68688e-11
-0.000625138
0.000807962
2.36848e-12
-0.000464173
0.000799842
-1.94475e-11
-0.000294806
0.00080702
-3.82848e-11
-0.000130726
0.000799099
-3.92382e-11
3.1153e-06
0.000796466
-6.64563e-11
9.68876e-05
0.000815778
-1.17098e-10
0.000131077
0.000851634
-1.4401e-10
0.000132515
0.000871438
-1.94264e-10
5.99715e-05
0.000904961
-2.40241e-10
0.000948761
-2.25345e-10
0.00202991
-1.24095e-09
2.00664e-14
0.00202265
1.8562e-07
-3.12176e-13
0.00201283
3.8069e-07
-4.36893e-13
0.00199405
8.36922e-07
-9.41256e-13
0.00194707
2.29826e-06
-2.69745e-12
0.00182844
7.88725e-06
-9.50623e-12
0.00154385
3.72356e-05
-4.51448e-11
6.59369e-06
0.000276262
-2.52449e-10
-0.00275563
0.00244881
1.51188e-10
-0.00150512
0.00179224
1.75388e-10
-0.00136308
0.00139386
-2.71516e-10
-0.00137139
0.00140942
3.03261e-11
-0.00118043
0.00130064
1.97497e-10
-0.000969097
0.00117994
-1.49883e-12
-0.000765164
0.00105
3.36484e-11
-0.000591258
0.00101017
3.28871e-11
-0.000430184
0.000998555
9.38207e-12
-0.00026045
0.00101021
-7.80415e-12
-9.39122e-05
0.00100654
-2.4593e-11
4.80671e-05
0.00101045
-5.77379e-11
0.000146698
0.00102803
-1.1711e-10
0.000175616
0.00106733
-1.64318e-10
0.000171936
0.00109524
-1.9184e-10
8.16932e-05
0.00113449
-2.59847e-10
0.00120544
-2.37097e-10
0.00202965
-1.84441e-08
2.86709e-14
0.00202317
1.70516e-07
4.21231e-15
0.00201445
3.63364e-07
-3.88076e-14
0.00199772
8.37859e-07
-2.36005e-13
0.00195582
2.35781e-06
-1.00409e-12
0.00184798
7.97805e-06
-4.21727e-12
0.00159183
3.57898e-05
-2.29113e-11
0.000310342
0.00024856
-1.41387e-10
-0.00276063
0.00261203
-2.40179e-10
-0.00150032
0.00234358
2.11341e-10
-0.00130446
0.00165709
-1.61271e-10
-0.00131924
0.00168229
6.2533e-11
-0.00114548
0.00157944
1.56834e-10
-0.00094207
0.00142311
-7.38511e-12
-0.000727172
0.00127468
1.26723e-10
-0.000551019
0.00121149
5.46887e-11
-0.000388351
0.00119601
3.48255e-11
-0.000217021
0.00121125
8.31235e-12
-4.67874e-05
0.00121398
-1.36279e-11
0.000104678
0.00122386
-4.56663e-11
0.000205712
0.00124
-1.17539e-10
0.000233552
0.00128373
-1.82396e-10
0.00022192
0.00132226
-2.04169e-10
0.000114419
0.00137432
-2.78281e-10
0.00147447
-2.57441e-10
0.00202934
-3.9097e-08
-4.49398e-19
0.00202369
1.35882e-07
1.77435e-13
0.00201625
3.13127e-07
2.15144e-13
0.00200179
7.84767e-07
3.66976e-13
0.00196475
2.29496e-06
6.8325e-13
0.00186743
7.68857e-06
1.52188e-12
0.00164783
3.26569e-05
4.01356e-12
0.000771398
0.000211268
9.57893e-12
-0.0027503
0.00250136
-6.00852e-11
-0.00151241
0.00303677
3.35942e-11
-0.00123654
0.00192885
-2.59615e-11
-0.0012518
0.0019523
1.75448e-11
-0.00110757
0.0018652
8.16e-11
-0.000908898
0.00167136
8.56248e-11
-0.000685834
0.00150828
1.61174e-10
-0.000504975
0.00141023
1.02033e-10
-0.000337846
0.00139042
3.68991e-11
-0.000164329
0.00140769
2.35487e-11
5.15341e-06
0.00142663
7.02253e-12
0.000169587
0.00143413
-4.19665e-11
0.000275431
0.00145165
-1.14746e-10
0.000306671
0.00150533
-1.81589e-10
0.000285545
0.0015528
-2.20739e-10
0.000162773
0.00162944
-2.76291e-10
0.00176553
-2.87766e-10
0.00202897
-5.89517e-08
-1.13889e-15
0.00202422
8.94233e-08
3.90109e-13
0.00201824
2.45827e-07
4.72789e-13
0.00200631
7.10131e-07
7.26736e-13
0.00197426
2.15964e-06
1.3931e-12
0.00188627
7.09937e-06
2.86042e-12
0.0016987
2.86208e-05
1.10334e-11
0.00108186
0.00017603
5.74967e-11
-0.00235398
0.00206331
3.6563e-10
-0.00153617
0.00388658
-2.43859e-10
-0.00115061
0.00222197
1.26155e-10
-0.00116796
0.00221262
6.99118e-11
-0.00106581
0.00215673
-2.46166e-11
-0.000866895
0.00192913
6.3907e-11
-0.000639329
0.00175041
1.7748e-10
-0.000453215
0.00160686
2.06203e-10
-0.000277179
0.00158081
1.26939e-10
-0.000100434
0.00159928
4.88469e-11
8.40705e-05
0.00163649
4.48599e-11
0.000244639
0.00163707
-3.80122e-11
0.000359091
0.00165952
-1.03456e-10
0.000397622
0.00172383
-1.74172e-10
0.000366827
0.00178284
-2.24138e-10
0.000232882
0.00189491
-2.76443e-10
0.00210813
-3.00152e-10
0.00202856
-4.77091e-08
-2.43475e-13
0.00202486
3.77508e-08
1.7288e-13
0.00202054
1.84882e-07
2.25139e-13
0.00201115
6.58799e-07
4.08467e-13
0.00198429
2.01192e-06
1.09883e-12
0.00190785
6.31409e-06
3.4176e-12
0.0017413
2.39651e-05
1.2431e-11
0.00122834
0.000138957
4.87357e-11
-0.00148901
0.00145642
2.89465e-10
-0.00157031
0.00478383
-4.13847e-10
-0.00105309
0.00257493
1.58889e-10
-0.00106856
0.00245017
1.79269e-10
-0.00101622
0.00244738
-3.27697e-11
-0.000818341
0.00219721
-1.39193e-11
-0.000589073
0.0020023
9.71148e-11
-0.000395964
0.00180393
1.87916e-10
-0.000208336
0.0017669
1.63008e-10
-2.48326e-05
0.00178664
1.02747e-10
0.000167741
0.00183757
6.84401e-11
0.00033305
0.00183891
-6.30996e-12
0.000457592
0.00186195
-8.68463e-11
0.000512228
0.001934
-1.61823e-10
0.000479224
0.00201262
-2.22496e-10
0.00034379
0.00215023
-2.83794e-10
0.00255096
-3.15414e-10
0.00202822
-1.08639e-13
-2.79537e-08
0.00202593
1.51105e-13
-3.01326e-08
0.00202332
1.54642e-13
1.47909e-07
0.00201564
2.80507e-13
6.55612e-07
0.00199288
8.76543e-13
1.87105e-06
0.00192972
2.6055e-12
5.44075e-06
0.0017817
8.78114e-12
1.92495e-05
0.00139953
4.11905e-11
0.000101023
-0.000744966
2.40331e-10
0.000901291
-0.00163289
-1.40758e-10
0.00564052
-0.000993026
1.97729e-10
0.0030534
-0.000956854
2.3726e-10
0.00265021
-0.000953282
-7.66485e-11
0.00272986
-0.00076352
2.35286e-12
0.00248041
-0.000536302
1.32349e-10
0.00226436
-0.000331675
2.2231e-10
0.00201163
-0.000131832
1.81512e-10
0.00194423
6.05083e-05
1.33825e-10
0.00196928
0.000259523
8.06889e-11
0.00202564
0.000433292
9.89966e-13
0.00203477
0.000571532
-6.45668e-11
0.00205772
0.000653731
-1.42611e-10
0.0021228
0.000640272
-2.17409e-10
0.00222875
0.000509439
-2.96685e-10
0.00238719
-3.15443e-10
0.00313404
0.00203043
7.0439e-09
7.12798e-14
0.00202141
5.44791e-08
1.00219e-13
0.00200916
1.07795e-07
1.25474e-13
0.00198557
2.23897e-07
2.37209e-13
0.00192637
5.97225e-07
6.79135e-13
0.00178541
2.13739e-06
2.91726e-12
0.00138876
1.15017e-05
2.15156e-11
-0.00105743
0.000111728
2.03335e-10
-0.00225261
0.000547992
1.9732e-10
-0.00155875
0.000320082
6.46883e-11
-0.001506
0.000289281
9.24955e-11
-0.00147742
0.000284593
5.73005e-11
-0.00126076
0.000253898
2.9057e-11
-0.00103482
0.000231141
2.08956e-11
-0.000852195
0.00020738
1.20307e-11
-0.000681911
0.000201125
1.02227e-11
-0.000519018
0.000199247
5.95137e-12
-0.000348965
0.000200532
1.29665e-11
-0.000188628
0.000197419
1.13261e-11
-5.89203e-05
0.000196207
3.6429e-12
1.89213e-05
0.000201156
-4.0766e-12
7.08634e-05
0.000209953
-1.41719e-11
7.60675e-05
0.000214334
-2.61826e-11
3.66687e-05
0.000225322
-4.9694e-11
0.000232721
-4.95287e-11
0.00203038
1.20267e-08
6.68806e-14
0.00202154
1.12561e-07
9.39388e-14
0.00200952
2.21149e-07
1.17434e-13
0.00198637
4.62403e-07
2.21805e-13
0.00192833
1.24016e-06
6.3487e-13
0.00178959
4.40607e-06
2.64771e-12
0.00140651
2.30186e-05
1.77315e-11
-0.000923976
0.000209503
1.52449e-10
-0.00231056
0.00110511
2.42913e-10
-0.00156136
0.000629415
5.24518e-11
-0.00149159
0.000573019
7.88886e-11
-0.00146603
0.000568295
5.59906e-11
-0.00125244
0.00050993
3.1115e-11
-0.00102661
0.00046353
1.72904e-11
-0.000841267
0.000415119
5.11101e-12
-0.000670891
0.000403342
1.66145e-12
-0.000508739
0.000399629
-2.58536e-12
-0.000338482
0.000401955
4.40875e-12
-0.000176954
0.000395808
4.58896e-12
-4.64442e-05
0.000393989
6.71325e-13
3.34474e-05
0.000403984
-3.88227e-12
8.15946e-05
0.000421078
-1.43316e-11
8.5749e-05
0.000429907
-2.38626e-11
4.01906e-05
0.000450736
-3.28002e-11
0.000466714
-3.78655e-11
0.00203028
1.31596e-08
6.31801e-14
0.00202181
1.55346e-07
1.16886e-13
0.00201031
3.07991e-07
1.48485e-13
0.00198819
6.50369e-07
2.8411e-13
0.0019328
1.75214e-06
7.98287e-13
0.00179897
6.17236e-06
3.17774e-12
0.00144622
3.13468e-05
2.01168e-11
-0.000561201
0.000266373
1.80041e-10
-0.00243169
0.00163993
2.5506e-10
-0.00154162
0.000966488
3.49037e-11
-0.00146156
0.00085153
4.7936e-11
-0.00144576
0.000849618
3.6194e-11
-0.00123485
0.000767693
1.93271e-11
-0.00101207
0.000698555
5.81142e-12
-0.000823567
0.000624107
-1.72853e-12
-0.000652365
0.000605408
-9.41346e-12
-0.00049058
0.000599901
-1.40243e-11
-0.000320989
0.000604254
-3.99e-12
-0.000158386
0.000596103
-1.50574e-12
-2.60892e-05
0.000593587
9.06607e-14
5.85998e-05
0.00060853
3.63137e-13
0.000100368
0.000636231
-6.78412e-12
0.000103422
0.0006478
-2.22972e-11
4.69913e-05
0.000677731
-2.37152e-11
0.000704171
-3.64417e-11
0.00203012
8.70291e-09
5.16359e-14
0.0020222
1.79814e-07