/*--------------------------------*- C++ -*----------------------------------*\
| =========                 |                                                 |
| \\      /  F ield         | OpenFOAM: The Open Source CFD Toolbox           |
|  \\    /   O peration     | Version:  4.1                                   |
|   \\  /    A nd           | Web:      www.OpenFOAM.org                      |
|    \\/     M anipulation  |                                                 |
\*---------------------------------------------------------------------------*/
FoamFile
{
    version     2.0;
    format      ascii;
    class       volScalarField;
    location    "0.48";
    object      T;
}
// * * * * * * * * * * * * * * * * * * * * * * * * * * * * * * * * * * * * * //

dimensions      [0 0 0 1 0 0 0];

internalField   nonuniform List<scalar> 
52500
(
0.336113
0.31793
0.318876
0.322697
0.335527
0.386024
0.631189
1.32519
1.83658
1.5322
1.34714
1.25478
1.23245
1.2618
1.3206
1.32076
1.28646
1.24209
1.23125
1.22532
1.20184
1.172
1.1454
1.09789
1.04233
0.336092
0.317881
0.318812
0.32255
0.335066
0.384045
0.621459
1.3043
1.84061
1.53664
1.34817
1.25498
1.2318
1.25888
1.31955
1.32097
1.28767
1.24221
1.23087
1.22534
1.20208
1.17219
1.14558
1.09815
1.04134
0.33605
0.317779
0.318675
0.322236
0.334083
0.379841
0.600722
1.25248
1.84608
1.54744
1.35415
1.25509
1.22974
1.25264
1.31677
1.32104
1.28959
1.24264
1.23052
1.22581
1.20315
1.17321
1.14647
1.09943
1.04104
0.33599
0.317635
0.318484
0.32179
0.332689
0.374008
0.572039
1.1895
1.84325
1.56571
1.36259
1.25595
1.22752
1.24546
1.31271
1.32065
1.29179
1.24314
1.22985
1.2261
1.20397
1.17428
1.14778
1.10188
1.04076
0.335919
0.317465
0.318256
0.321253
0.331021
0.367222
0.538991
1.11592
1.83015
1.59268
1.37305
1.25635
1.22258
1.2333
1.30393
1.31873
1.29367
1.24369
1.22866
1.22517
1.20464
1.17589
1.14879
1.1049
1.03819
0.335848
0.317283
0.318007
0.320653
0.329189
0.360025
0.503461
1.03795
1.80249
1.62652
1.38795
1.25791
1.21696
1.2206
1.29208
1.31565
1.295
1.24441
1.2265
1.22277
1.20437
1.178
1.15031
1.10742
1.03742
0.335791
0.317109
0.317754
0.320021
0.327304
0.353007
0.469093
0.943304
1.75282
1.66386
1.40714
1.26238
1.2108
1.20773
1.27349
1.3104
1.29557
1.246
1.223
1.21908
1.2034
1.17876
1.15054
1.11102
1.03427
0.335764
0.316962
0.317512
0.319387
0.32546
0.346435
0.437983
0.844106
1.65892
1.71085
1.43105
1.27038
1.20517
1.19533
1.25123
1.30355
1.2949
1.25056
1.21768
1.21412
1.20106
1.17849
1.15034
1.11242
1.03141
0.335803
0.316851
0.317277
0.318789
0.323784
0.340507
0.410035
0.741608
1.50725
1.75995
1.46045
1.28228
1.20043
1.18231
1.22443
1.29286
1.2921
1.25674
1.2125
1.20787
1.19816
1.17752
1.14997
1.11239
1.01845
0.33588
0.316741
0.317043
0.318302
0.322399
0.335417
0.386169
0.635034
1.31462
1.79612
1.49988
1.29925
1.19781
1.16971
1.19426
1.27774
1.28795
1.26177
1.20843
1.20133
1.19323
1.17647
1.14635
1.10687
0.996778
0.336115
0.317933
0.31888
0.322704
0.335547
0.386107
0.631599
1.32619
1.83642
1.53208
1.34716
1.25483
1.23249
1.26182
1.3206
1.32076
1.28646
1.24209
1.23126
1.22531
1.20182
1.17196
1.14535
1.09784
1.04235
0.336094
0.317883
0.318815
0.322556
0.335082
0.384105
0.621709
1.30458
1.84056
1.537
1.34854
1.25509
1.23176
1.25867
1.31952
1.321
1.28769
1.2422
1.23087
1.22534
1.20206
1.17215
1.14554
1.09811
1.04135
0.336052
0.317782
0.318679
0.322243
0.334101
0.379914
0.601067
1.2534
1.84595
1.54706
1.35401
1.25523
1.23002
1.25312
1.31694
1.32104
1.28954
1.24263
1.23052
1.22581
1.20314
1.17318
1.14643
1.0994
1.04104
0.335991
0.317638
0.318486
0.321796
0.332705
0.37407
0.572333
1.19011
1.84314
1.56528
1.36247
1.25592
1.22754
1.24553
1.31277
1.32064
1.29174
1.24313
1.22985
1.22608
1.20395
1.17425
1.14774
1.10185
1.04076
0.335921
0.317467
0.318258
0.321258
0.331035
0.367274
0.539233
1.11637
1.83021
1.59225
1.37274
1.25638
1.22279
1.23368
1.30405
1.31868
1.29361
1.24369
1.22865
1.22515
1.20463
1.17586
1.14874
1.10488
1.03824
0.33585
0.317285
0.318009
0.320657
0.329198
0.36006
0.503634
1.03838
1.80253
1.62611
1.38784
1.25811
1.21758
1.22141
1.29266
1.31579
1.29492
1.24433
1.22649
1.22274
1.20434
1.17795
1.15025
1.10741
1.03749
0.335792
0.317111
0.317756
0.320024
0.327311
0.353031
0.469211
0.94364
1.75312
1.66389
1.4062
1.26261
1.21112
1.20808
1.27378
1.31051
1.29553
1.2459
1.22298
1.21907
1.20336
1.17871
1.15048
1.111
1.03438
0.335765
0.316963
0.317513
0.319389
0.325464
0.346447
0.438046
0.844337
1.6592
1.71089
1.43085
1.27044
1.20507
1.19512
1.25088
1.30335
1.29483
1.25054
1.21765
1.21408
1.20102
1.17841
1.15026
1.11239
1.03153
0.335805
0.316852
0.317278
0.318791
0.323786
0.340513
0.410066
0.741748
1.50748
1.75994
1.46041
1.28222
1.20022
1.182
1.22407
1.29273
1.29204
1.25675
1.21247
1.20786
1.19812
1.17743
1.14989
1.11237
1.01859
0.335881
0.316742
0.317043
0.318303
0.322401
0.33542
0.386183
0.635123
1.31484
1.79617
1.49992
1.29919
1.19762
1.16943
1.19389
1.27755
1.28791
1.26177
1.2084
1.20133
1.1932
1.1764
1.14627
1.10685
0.996919
0.336114
0.317932
0.318879
0.322701
0.335538
0.38607
0.631406
1.32569
1.83643
1.53203
1.34709
1.25487
1.2326
1.26199
1.32065
1.32075
1.28641
1.24207
1.23124
1.2253
1.20182
1.17197
1.14536
1.09786
1.04236
0.336094
0.317883
0.318814
0.322553
0.335076
0.384081
0.621616
1.30456
1.84052
1.53664
1.34824
1.25509
1.23192
1.259
1.31959
1.32097
1.28763
1.24219
1.23086
1.22533
1.20206
1.17217
1.14555
1.09813
1.04136
0.336051
0.317781
0.318677
0.32224
0.334091
0.379873
0.600868
1.25282
1.84602
1.54736
1.35416
1.25514
1.22979
1.25272
1.31681
1.32104
1.28955
1.24262
1.2305
1.2258
1.20314
1.17319
1.14644
1.09942
1.04106
0.335991
0.317637
0.318485
0.321793
0.332696
0.374035
0.572166
1.18976
1.84325
1.56562
1.36262
1.25598
1.22753
1.24552
1.31274
1.32064
1.29175
1.2431
1.22983
1.22608
1.20396
1.17426
1.14776
1.10187
1.04078
0.33592
0.317466
0.318257
0.321255
0.331027
0.367244
0.539093
1.11612
1.83022
1.59261
1.37303
1.25627
1.22242
1.23308
1.30375
1.31867
1.29366
1.24369
1.22863
1.22514
1.20463
1.17587
1.14876
1.1049
1.03825
0.33585
0.317284
0.318008
0.320655
0.329194
0.360043
0.503549
1.03818
1.80255
1.62636
1.388
1.25787
1.21705
1.22076
1.29226
1.31572
1.29497
1.24436
1.22647
1.22274
1.20434
1.17796
1.15026
1.10743
1.03751
0.335792
0.317111
0.317756
0.320023
0.327309
0.353023
0.469172
0.943528
1.75314
1.66405
1.40621
1.26244
1.21092
1.20789
1.27365
1.31047
1.29556
1.24593
1.22297
1.21906
1.20336
1.17873
1.15049
1.11102
1.03439
0.335765
0.316963
0.317513
0.319388
0.325463
0.346445
0.438036
0.844302
1.65922
1.71096
1.4308
1.27039
1.20517
1.19531
1.25119
1.30351
1.29487
1.25053
1.21765
1.21407
1.20102
1.17842
1.15027
1.11241
1.03155
0.335805
0.316852
0.317278
0.318791
0.323786
0.340513
0.410066
0.74175
1.50751
1.75996
1.46037
1.28225
1.2004
1.18228
1.22442
1.29281
1.29203
1.25672
1.21247
1.20786
1.19812
1.17744
1.1499
1.11238
1.0186
0.335881
0.316742
0.317044
0.318303
0.322401
0.335421
0.386187
0.635139
1.31487
1.79615
1.49987
1.29921
1.19777
1.16968
1.19428
1.27781
1.28798
1.26174
1.20839
1.20133
1.1932
1.17641
1.14628
1.10686
0.996929
0.336114
0.317932
0.318879
0.322701
0.335539
0.386074
0.631432
1.32575
1.83642
1.53202
1.34709
1.25487
1.2326
1.26201
1.32067
1.32076
1.28641
1.24207
1.23125
1.22531
1.20183
1.17198
1.14538
1.09788
1.04238
0.336093
0.317883
0.318814
0.322554
0.335077
0.384084
0.621632
1.30459
1.84052
1.53666
1.34827
1.25509
1.23191
1.25899
1.3196
1.32098
1.28763
1.24219
1.23086
1.22533
1.20207
1.17218
1.14557
1.09815
1.04138
0.336051
0.317781
0.318677
0.32224
0.334092
0.379877
0.600884
1.25286
1.84602
1.54738
1.35421
1.25518
1.22984
1.25279
1.31684
1.32104
1.28955
1.24262
1.23051
1.22581
1.20315
1.1732
1.14646
1.09944
1.04108
0.335991
0.317637
0.318485
0.321793
0.332697
0.374038
0.57218
1.18979
1.84321
1.56557
1.36257
1.2559
1.22745
1.24538
1.31271
1.32064
1.29176
1.24312
1.22983
1.22608
1.20397
1.17427
1.14778
1.10189
1.0408
0.33592
0.317466
0.318258
0.321256
0.331029
0.36725
0.539123
1.11617
1.83023
1.59248
1.37287
1.25631
1.2226
1.23338
1.30389
1.31868
1.29364
1.24368
1.22864
1.22515
1.20464
1.17588
1.14877
1.10492
1.03827
0.335849
0.317284
0.318008
0.320655
0.329194
0.360045
0.503563
1.03822
1.80255
1.62631
1.38798
1.258
1.21729
1.22106
1.29246
1.31578
1.29495
1.24434
1.22648
1.22274
1.20435
1.17798
1.15028
1.10745
1.03753
0.335792
0.317111
0.317756
0.320023
0.327308
0.353022
0.46917
0.943524
1.7531
1.66404
1.4063
1.26249
1.21086
1.20778
1.27356
1.31048
1.29555
1.24592
1.22297
1.21907
1.20337
1.17874
1.15051
1.11104
1.03441
0.335765
0.316963
0.317513
0.319388
0.325463
0.346443
0.438028
0.844276
1.65918
1.71101
1.4309
1.27037
1.20496
1.195
1.25077
1.30335
1.29485
1.25056
1.21764
1.21407
1.20103
1.17844
1.15029
1.11243
1.03157
0.335805
0.316852
0.317278
0.31879
0.323786
0.340512
0.41006
0.741726
1.50748
1.76002
1.46047
1.28223
1.20022
1.18203
1.22412
1.29278
1.29206
1.25675
1.21246
1.20785
1.19813
1.17746
1.14992
1.11241
1.01863
0.335881
0.316742
0.317043
0.318303
0.322401
0.33542
0.386182
0.63512
1.31484
1.79621
1.49996
1.29922
1.19767
1.16952
1.19404
1.27768
1.28795
1.26177
1.20839
1.20133
1.1932
1.17642
1.1463
1.10689
0.99696
0.336114
0.317932
0.318879
0.322701
0.335539
0.386073
0.63142
1.32571
1.83642
1.53204
1.34711
1.25488
1.2326
1.26198
1.32064
1.32075
1.28641
1.24207
1.23124
1.2253
1.20183
1.17198
1.14538
1.09789
1.04238
0.336093
0.317883
0.318814
0.322554
0.335076
0.384083
0.621622
1.30456
1.84051
1.53666
1.34828
1.2551
1.23191
1.25898
1.31957
1.32097
1.28764
1.24219
1.23086
1.22533
1.20207
1.17217
1.14557
1.09816
1.04139
0.336051
0.317781
0.318677
0.32224
0.334091
0.379875
0.600872
1.25282
1.84601
1.54739
1.35422
1.25519
1.22984
1.25277
1.31681
1.32103
1.28955
1.24262
1.2305
1.2258
1.20314
1.17319
1.14646
1.09944
1.04109
0.335991
0.317637
0.318485
0.321793
0.332696
0.374035
0.572166
1.18975
1.8432
1.56558
1.36258
1.2559
1.22745
1.24537
1.31269
1.32063
1.29175
1.24311
1.22983
1.22608
1.20395
1.17426
1.14777
1.10189
1.04081
0.33592
0.317466
0.318257
0.321256
0.331028
0.367247
0.539105
1.11613
1.8302
1.59249
1.37292
1.25632
1.2226
1.23339
1.3039
1.31868
1.29363
1.24367
1.22863
1.22515
1.20464
1.17589
1.14879
1.10493
1.03823
0.335849
0.317284
0.318008
0.320655
0.329193
0.360041
0.503539
1.03814
1.80253
1.62641
1.38785
1.25802
1.21729
1.22105
1.29244
1.31577
1.29494
1.24433
1.22648
1.22274
1.20437
1.17801
1.15033
1.10745
1.03746
0.335792
0.31711
0.317756
0.320022
0.327307
0.353015
0.469136
0.943433
1.75288
1.6638
1.40721
1.26249
1.21087
1.20778
1.27355
1.31047
1.29554
1.24591
1.22298
1.21908
1.20341
1.1788
1.15057
1.11105
1.03428
0.335765
0.316963
0.317513
0.319388
0.325461
0.346438
0.438003
0.844185
1.65899
1.71085
1.43118
1.2704
1.20497
1.195
1.25075
1.30332
1.29483
1.25056
1.21765
1.21408
1.20108
1.17852
1.15038
1.11246
1.03143
0.335805
0.316852
0.317278
0.31879
0.323785
0.340509
0.410045
0.741662
1.50736
1.76001
1.46056
1.28226
1.20023
1.18203
1.2241
1.29277
1.29205
1.25674
1.21247
1.20786
1.19817
1.17754
1.15001
1.11244
1.0185
0.335881
0.316742
0.317043
0.318303
0.3224
0.335418
0.386174
0.635074
1.31474
1.79622
1.5
1.29924
1.19768
1.16952
1.19401
1.27762
1.28791
1.26176
1.20839
1.20133
1.19323
1.17648
1.14638
1.10695
0.996842
0.336114
0.317932
0.318879
0.322702
0.335539
0.386075
0.631435
1.32575
1.83641
1.53201
1.34709
1.25487
1.2326
1.262
1.32067
1.32076
1.28641
1.24207
1.23124
1.22531
1.20183
1.17199
1.14538
1.09789
1.04238
0.336093
0.317883
0.318814
0.322554
0.335077
0.384085
0.621632
1.30458
1.8405
1.53665
1.34826
1.25509
1.23191
1.25899
1.3196
1.32098
1.28763
1.24219
1.23086
1.22533
1.20207
1.17218
1.14557
1.09816
1.04138
0.336051
0.317781
0.318677
0.32224
0.334092
0.379877
0.600882
1.25285
1.84601
1.54737
1.3542
1.25518
1.22983
1.25279
1.31683
1.32104
1.28955
1.24262
1.23051
1.22581
1.20315
1.1732
1.14646
1.09944
1.04108
0.335991
0.317637
0.318485
0.321793
0.332697
0.374037
0.572176
1.18977
1.8432
1.56556
1.36256
1.2559
1.22745
1.24538
1.31271
1.32064
1.29176
1.24312
1.22983
1.22608
1.20397
1.17428
1.14778
1.1019
1.0408
0.33592
0.317466
0.318258
0.321256
0.331029
0.367248
0.539113
1.11615
1.8302
1.59247
1.3729
1.25632
1.2226
1.23339
1.3039
1.31869
1.29364
1.24368
1.22863
1.22515
1.20464
1.17588
1.14877
1.10493
1.03827
0.335849
0.317284
0.318008
0.320655
0.329194
0.360042
0.503545
1.03816
1.80254
1.62639
1.38783
1.25801
1.21729
1.22105
1.29245
1.31578
1.29495
1.24434
1.22648
1.22274
1.20435
1.17798
1.15028
1.10745
1.03753
0.335792
0.31711
0.317756
0.320022
0.327307
0.353016
0.46914
0.943446
1.75289
1.66379
1.40719
1.26247
1.21086
1.20778
1.27356
1.31048
1.29555
1.24592
1.22297
1.21907
1.20337
1.17874
1.15051
1.11104
1.03442
0.335765
0.316963
0.317513
0.319388
0.325462
0.346439
0.438007
0.844195
1.659
1.71084
1.43116
1.27038
1.20496
1.19499
1.25076
1.30335
1.29485
1.25056
1.21764
1.21407
1.20103
1.17843
1.15029
1.11243
1.03157
0.335805
0.316852
0.317278
0.31879
0.323785
0.340509
0.410048
0.741671
1.50737
1.76
1.46055
1.28224
1.20021
1.18201
1.2241
1.29278
1.29207
1.25675
1.21247
1.20785
1.19813
1.17745
1.14992
1.1124
1.01863
0.335881
0.316742
0.317043
0.318303
0.3224
0.335418
0.386176
0.635081
1.31475
1.79622
1.49998
1.29922
1.19766
1.16951
1.19402
1.27765
1.28794
1.26177
1.20839
1.20133
1.1932
1.17642
1.1463
1.10688
0.996952
0.336114
0.317932
0.318879
0.322701
0.335539
0.386074
0.631432
1.32575
1.83642
1.53202
1.34709
1.25487
1.2326
1.26201
1.32067
1.32076
1.28641
1.24207
1.23125
1.22531
1.20183
1.17198
1.14538
1.09788
1.04238
0.336093
0.317883
0.318814
0.322554
0.335077
0.384084
0.621632
1.30459
1.84052
1.53666
1.34827
1.25509
1.23191
1.25899
1.3196
1.32098
1.28763
1.24219
1.23086
1.22533
1.20207
1.17218
1.14557
1.09815
1.04138
0.336051
0.317781
0.318677
0.32224
0.334092
0.379877
0.600884
1.25286
1.84602
1.54737
1.3542
1.25518
1.22984
1.25279
1.31684
1.32104
1.28955
1.24262
1.23051
1.22581
1.20315
1.1732
1.14646
1.09944
1.04108
0.335991
0.317637
0.318485
0.321793
0.332697
0.374038
0.57218
1.18979
1.84321
1.56557
1.36257
1.2559
1.22745
1.24538
1.31271
1.32064
1.29176
1.24312
1.22983
1.22608
1.20397
1.17427
1.14778
1.10189
1.0408
0.33592
0.317466
0.318258
0.321256
0.331029
0.36725
0.539123
1.11617
1.83023
1.59248
1.37287
1.25631
1.2226
1.23338
1.30389
1.31868
1.29364
1.24368
1.22864
1.22515
1.20464
1.17588
1.14877
1.10492
1.03827
0.335849
0.317284
0.318008
0.320655
0.329194
0.360045
0.503563
1.03822
1.80255
1.62631
1.38798
1.258
1.21729
1.22106
1.29246
1.31578
1.29495
1.24434
1.22648
1.22274
1.20435
1.17798
1.15028
1.10745
1.03753
0.335792
0.317111
0.317756
0.320023
0.327308
0.353022
0.46917
0.943525
1.7531
1.66404
1.4063
1.26249
1.21086
1.20778
1.27356
1.31048
1.29555
1.24592
1.22297
1.21907
1.20337
1.17874
1.15051
1.11104
1.03442
0.335765
0.316963
0.317513
0.319388
0.325463
0.346443
0.438028
0.844276
1.65918
1.71101
1.4309
1.27037
1.20496
1.195
1.25077
1.30335
1.29485
1.25056
1.21764
1.21407
1.20103
1.17844
1.15029
1.11243
1.03157
0.335805
0.316852
0.317278
0.31879
0.323786
0.340512
0.41006
0.741726
1.50748
1.76002
1.46047
1.28223
1.20022
1.18203
1.22412
1.29278
1.29206
1.25675
1.21246
1.20785
1.19813
1.17746
1.14992
1.11241
1.01863
0.335881
0.316742
0.317043
0.318303
0.322401
0.33542
0.386182
0.63512
1.31484
1.79621
1.49996
1.29922
1.19767
1.16952
1.19404
1.27768
1.28795
1.26177
1.20839
1.20133
1.1932
1.17642
1.1463
1.10689
0.99696
0.336114
0.317932
0.318879
0.322701
0.335538
0.38607
0.631406
1.32569
1.83643
1.53203
1.34709
1.25487
1.2326
1.26199
1.32065
1.32075
1.28641
1.24207
1.23124
1.2253
1.20182
1.17197
1.14536
1.09786
1.04236
0.336094
0.317883
0.318814
0.322553
0.335076
0.384081
0.621616
1.30456
1.84052
1.53664
1.34824
1.25509
1.23192
1.259
1.31959
1.32097
1.28763
1.24219
1.23086
1.22533
1.20206
1.17217
1.14555
1.09813
1.04136
0.336051
0.317781
0.318677
0.32224
0.334091
0.379873
0.600868
1.25282
1.84602
1.54736
1.35416
1.25514
1.22979
1.25272
1.31681
1.32104
1.28955
1.24262
1.2305
1.2258
1.20314
1.17319
1.14644
1.09942
1.04106
0.335991
0.317637
0.318485
0.321793
0.332696
0.374035
0.572166
1.18976
1.84325
1.56562
1.36262
1.25598
1.22753
1.24552
1.31274
1.32064
1.29175
1.2431
1.22983
1.22608
1.20396
1.17426
1.14776
1.10187
1.04078
0.33592
0.317466
0.318257
0.321255
0.331027
0.367244
0.539093
1.11612
1.83022
1.59261
1.37303
1.25627
1.22242
1.23308
1.30375
1.31867
1.29366
1.24369
1.22863
1.22514
1.20463
1.17587
1.14875
1.1049
1.03825
0.33585
0.317284
0.318008
0.320655
0.329194
0.360043
0.503549
1.03818
1.80255
1.62636
1.388
1.25787
1.21705
1.22076
1.29226
1.31572
1.29497
1.24436
1.22647
1.22274
1.20434
1.17796
1.15026
1.10743
1.03751
0.335792
0.317111
0.317756
0.320023
0.327309
0.353023
0.469172
0.943528
1.75314
1.66405
1.40621
1.26244
1.21092
1.20789
1.27365
1.31047
1.29556
1.24593
1.22297
1.21906
1.20336
1.17873
1.15049
1.11102
1.03439
0.335765
0.316963
0.317513
0.319388
0.325463
0.346445
0.438036
0.844302
1.65922
1.71096
1.4308
1.27039
1.20517
1.19531
1.25119
1.30351
1.29487
1.25053
1.21765
1.21407
1.20102
1.17842
1.15027
1.11241
1.03155
0.335805
0.316852
0.317278
0.318791
0.323786
0.340513
0.410066
0.74175
1.50751
1.75996
1.46037
1.28225
1.2004
1.18228
1.22442
1.29281
1.29203
1.25672
1.21247
1.20786
1.19812
1.17744
1.1499
1.11238
1.0186
0.335881
0.316742
0.317044
0.318303
0.322401
0.335421
0.386187
0.635139
1.31487
1.79615
1.49987
1.29921
1.19777
1.16968
1.19428
1.27781
1.28798
1.26174
1.20839
1.20133
1.1932
1.17641
1.14628
1.10686
0.996929
0.336115
0.317933
0.31888
0.322704
0.335547
0.386107
0.631598
1.32618
1.83642
1.53208
1.34716
1.25483
1.23249
1.26182
1.3206
1.32076
1.28646
1.24209
1.23126
1.22531
1.20182
1.17196
1.14535
1.09784
1.04235
0.336094
0.317883
0.318815
0.322556
0.335082
0.384105
0.621709
1.30457
1.84056
1.537
1.34855
1.25509
1.23176
1.25867
1.31952
1.321
1.28769
1.2422
1.23087
1.22534
1.20206
1.17215
1.14554
1.09811
1.04135
0.336052
0.317782
0.318679
0.322243
0.334101
0.379914
0.601066
1.2534
1.84595
1.54706
1.35401
1.25523
1.23002
1.25312
1.31694
1.32104
1.28954
1.24263
1.23052
1.22581
1.20314
1.17318
1.14643
1.0994
1.04104
0.335991
0.317638
0.318486
0.321796
0.332705
0.37407
0.572332
1.19011
1.84314
1.56528
1.36247
1.25592
1.22754
1.24553
1.31277
1.32064
1.29174
1.24313
1.22985
1.22608
1.20395
1.17425
1.14774
1.10185
1.04076
0.335921
0.317467
0.318258
0.321258
0.331035
0.367274
0.539233
1.11637
1.83021
1.59225
1.37274
1.25638
1.22279
1.23368
1.30405
1.31868
1.29361
1.24369
1.22865
1.22515
1.20463
1.17586
1.14874
1.10488
1.03824
0.33585
0.317285
0.318009
0.320657
0.329198
0.36006
0.503634
1.03838
1.80253
1.62611
1.38784
1.25811
1.21757
1.22141
1.29266
1.31579
1.29492
1.24433
1.22649
1.22274
1.20434
1.17795
1.15025
1.10741
1.03749
0.335792
0.317111
0.317756
0.320024
0.327311
0.353031
0.469211
0.943639
1.75312
1.66389
1.4062
1.26261
1.21112
1.20808
1.27377
1.31051
1.29553
1.2459
1.22298
1.21907
1.20336
1.17871
1.15048
1.111
1.03438
0.335765
0.316963
0.317513
0.319389
0.325464
0.346447
0.438046
0.844337
1.6592
1.71089
1.43085
1.27044
1.20507
1.19512
1.25088
1.30335
1.29483
1.25054
1.21765
1.21408
1.20102
1.17841
1.15026
1.11239
1.03153
0.335805
0.316852
0.317278
0.318791
0.323786
0.340513
0.410066
0.741749
1.50749
1.75994
1.46041
1.28222
1.20022
1.182
1.22407
1.29273
1.29204
1.25675
1.21247
1.20786
1.19812
1.17743
1.14989
1.11237
1.01859
0.335881
0.316742
0.317043
0.318303
0.322401
0.33542
0.386183
0.635123
1.31484
1.79617
1.49992
1.29919
1.19762
1.16943
1.19389
1.27755
1.28791
1.26177
1.2084
1.20133
1.1932
1.1764
1.14627
1.10685
0.996919
0.336113
0.31793
0.318877
0.322697
0.335527
0.386025
0.631201
1.32528
1.83655
1.53209
1.34705
1.25479
1.23251
1.2619
1.32063
1.32076
1.28643
1.24209
1.23128
1.22535
1.20189
1.17206
1.14546
1.09786
1.04216
0.336092
0.317881
0.318811
0.322549
0.335064
0.384035
0.621406
1.30415
1.84068
1.5368
1.34837
1.2551
1.23187
1.25888
1.31955
1.32098
1.28767
1.24221
1.23089
1.22537
1.20212
1.17224
1.14563
1.09812
1.04119
0.336049
0.317779
0.318675
0.322235
0.334079
0.379824
0.600628
1.25214
1.84614
1.54777
1.35447
1.25507
1.22955
1.25236
1.31668
1.32103
1.2896
1.24265
1.23053
1.22583
1.20318
1.17324
1.1465
1.0994
1.04091
0.33599
0.317635
0.318483
0.32179
0.332689
0.374007
0.57203
1.18948
1.84322
1.56558
1.3624
1.25576
1.22736
1.24526
1.31262
1.32063
1.2918
1.24315
1.22985
1.22608
1.20396
1.17427
1.14778
1.10185
1.04067
0.335919
0.317465
0.318256
0.321254
0.331025
0.367233
0.539043
1.116
1.83019
1.59243
1.37276
1.25649
1.22304
1.23395
1.30419
1.31871
1.29362
1.24367
1.22865
1.22515
1.20462
1.17586
1.14877
1.10489
1.03819
0.335849
0.317283
0.318007
0.320653
0.329191
0.360032
0.503495
1.03802
1.80248
1.6264
1.38787
1.25823
1.21758
1.22138
1.29268
1.31585
1.29494
1.24431
1.22649
1.22274
1.20434
1.17797
1.15028
1.10741
1.03743
0.335791
0.317109
0.317755
0.320021
0.327304
0.353008
0.4691
0.943324
1.75275
1.66381
1.4073
1.26253
1.21072
1.20753
1.27314
1.31029
1.29553
1.24595
1.22298
1.21906
1.20337
1.17873
1.15052
1.11101
1.03428
0.335764
0.316962
0.317512
0.319387
0.325461
0.346436
0.437988
0.84412
1.6589
1.71086
1.43119
1.27032
1.2048
1.19479
1.2505
1.30325
1.29482
1.25061
1.21767
1.21409
1.20104
1.17846
1.15032
1.11241
1.03142
0.335803
0.316851
0.317277
0.31879
0.323784
0.340509
0.410046
0.741657
1.50735
1.76
1.46049
1.28218
1.20017
1.18199
1.224
1.29266
1.29201
1.25679
1.21249
1.20785
1.19815
1.1775
1.14996
1.11239
1.01846
0.33588
0.316741
0.317043
0.318302
0.3224
0.33542
0.386184
0.635111
1.3148
1.79617
1.4999
1.29917
1.19774
1.16967
1.19423
1.2778
1.28801
1.2618
1.20842
1.20133
1.19322
1.17646
1.14634
1.10688
0.996793
0.335979
0.316629
0.316877
0.317983
0.321232
0.331103
0.367413
0.541817
1.12803
1.80542
1.55454
1.32493
1.19839
1.15723
1.16438
1.25184
1.28297
1.26458
1.2091
1.19338
1.18504
1.17295
1.14176
1.10029
0.941945
0.336062
0.316555
0.316842
0.317656
0.320085
0.327524
0.353549
0.472759
0.957888
1.73949
1.62095
1.36076
1.20524
1.14564
1.13939
1.20937
1.27347
1.26647
1.21367
1.18521
1.17947
1.16788
1.13432
1.09858
0.950192
0.336106
0.316573
0.316737
0.317316
0.319136
0.324675
0.343208
0.423374
0.796443
1.55859
1.6853
1.40811
1.22415
1.13856
1.1181
1.16024
1.25219
1.26392
1.22752
1.18539
1.16957
1.15962
1.12728
1.09841
0.980085
0.336124
0.316618
0.316629
0.317018
0.318374
0.322452
0.335495
0.38763
0.646285
1.31539
1.73735
1.46881
1.25523
1.138
1.1021
1.11732
1.20426
1.25665
1.23575
1.18842
1.16154
1.15089
1.12388
1.10105
1.02712
0.336129
0.316683
0.316492
0.316784
0.317795
0.320778
0.329951
0.363516
0.525945
1.09725
1.75534
1.54824
1.29941
1.14357
1.08926
1.08603
1.13883
1.24228
1.23534
1.19911
1.16183
1.14908
1.11842
1.10275
1.06142
0.33613
0.316732
0.316383
0.316607
0.317357
0.319521
0.325933
0.347753
0.447055
0.895613
1.71272
1.62465
1.35572
1.16585
1.0851
1.06286
1.08493
1.20782
1.23125
1.21252
1.16569
1.15094
1.1195
1.10078
1.08388
0.336131
0.316767
0.316303
0.316476
0.317034
0.318596
0.323087
0.337442
0.396198
0.687709
1.39604
1.67456
1.42244
1.21243
1.08901
1.04684
1.04647
1.13624
1.21941
1.21256
1.17691
1.15736
1.12306
1.09933
1.08642
0.33613
0.31679
0.316244
0.316382
0.3168
0.317922
0.321056
0.330615
0.366015
0.539043
1.10944
1.70178
1.51527
1.27443
1.10431
1.04507
1.02569
1.07209
1.19155
1.20623
1.18978
1.17325
1.13378
1.10056
1.08402
0.336128
0.316803
0.316204
0.316319
0.316637
0.317447
0.3196
0.325874
0.347248
0.445635
0.895643
1.70144
1.59393
1.33763
1.14105
1.04946
1.02186
1.03075
1.11942
1.18539
1.18822
1.18347
1.16063
1.10911
1.08467
0.336127
0.31681
0.31618
0.316276
0.316528
0.317126
0.318616
0.322763
0.335689
0.387248
0.655116
1.40554
1.63311
1.41116
1.20286
1.06383
1.0251
1.00903
1.04983
1.15882
1.18433
1.18436
1.17716
1.13489
1.09235
0.336127
0.316812
0.316169
0.316251
0.316468
0.316908
0.31794
0.320704
0.328722
0.356793
0.492522
0.999705
1.65134
1.50735
1.30218
1.10068
1.03799
1.00458
1.02027
1.10631
1.16984
1.18211
1.18054
1.16439
1.11508
0.336128
0.316813
0.316165
0.316238
0.316441
0.31676
0.317495
0.319341
0.324305
0.339895
0.405415
0.741875
1.55538
1.54182
1.39857
1.17893
1.06932
1.00978
0.998559
1.03366
1.1361
1.17258
1.1787
1.17449
1.15483
0.336129
0.316813
0.316164
0.316232
0.316426
0.316687
0.317208
0.318505
0.321678
0.330337
0.360946
0.518022
1.07146
1.55004
1.45654
1.2661
1.10592
1.02662
0.990974
1.00016
1.05498
1.14485
1.17126
1.17353
1.16922
0.336129
0.316814
0.316164
0.316232
0.316423
0.316691
0.317073
0.318111
0.320186
0.325106
0.340346
0.403214
0.712594
1.44306
1.4545
1.34651
1.15668
1.0564
0.997066
0.974695
0.995043
1.07318
1.14726
1.16821
1.16901
0.336129
0.316814
0.316164
0.316232
0.316423
0.316698
0.317048
0.317989
0.319286
0.322263
0.330271
0.357043
0.48433
0.954349
1.44049
1.37337
1.21395
1.08424
1.01544
0.974834
0.968632
0.994204
1.08329
1.14746
1.16474
0.336129
0.316814
0.316164
0.316232
0.316422
0.316699
0.317041
0.317993
0.319002
0.320727
0.325621
0.338821
0.38309
0.59605
1.1702
1.374
1.26136
1.11112
1.03133
0.987952
0.95178
0.957515
0.992891
1.09117
1.14524
0.336129
0.316814
0.316164
0.316232
0.316422
0.316699
0.317041
0.317985
0.319048
0.32026
0.323859
0.331258
0.349453
0.416066
0.690251
1.23541
1.27664
1.14668
1.03854
0.997823
0.95782
0.933911
0.9416
0.986815
1.0901
0.336129
0.316814
0.316164
0.316232
0.316422
0.316699
0.317041
0.317984
0.319049
0.320198
0.323474
0.328598
0.337906
0.363624
0.454184
0.748346
1.19321
1.15248
1.04544
0.996418
0.965207
0.928545
0.918629
0.927874
0.988461
0.336129
0.316814
0.316164
0.316232
0.316421
0.3167
0.31704
0.317984
0.31905
0.320194
0.323436
0.328449
0.33437
0.350955
0.385399
0.483171
0.742841
1.04771
1.03262
0.985406
0.961164
0.932881
0.899961
0.900491
0.920222
0.336129
0.316814
0.316164
0.316232
0.316422
0.3167
0.317041
0.317985
0.31905
0.320194
0.323444
0.328426
0.334154
0.348922
0.37233
0.411745
0.506068
0.660329
0.856982
0.94678
0.945638
0.930227
0.900754
0.877431
0.882079
0.336129
0.316814
0.316164
0.316232
0.316421
0.316699
0.31704
0.317984
0.319049
0.320193
0.323443
0.328417
0.334153
0.348659
0.372387
0.403648
0.468774
0.520364
0.589806
0.72118
0.88707
0.916157
0.90069
0.870053
0.85795
0.336129
0.316814
0.316164
0.316232
0.316422
0.3167
0.317041
0.317985
0.31905
0.320194
0.323445
0.328421
0.334161
0.348676
0.372262
0.403483
0.465889
0.512727
0.525512
0.559309
0.647674
0.821931
0.887848
0.866616
0.841607
0.336129
0.316814
0.316164
0.316232
0.316421
0.316699
0.31704
0.317984
0.319049
0.320192
0.323443
0.328417
0.334154
0.348673
0.372237
0.403476
0.465547
0.512723
0.519407
0.525921
0.548687
0.607992
0.738301
0.84068
0.830139
0.336129
0.316814
0.316164
0.316232
0.316422
0.3167
0.317041
0.317985
0.31905
0.320194
0.323445
0.328421
0.334162
0.348683
0.37224
0.403526
0.465517
0.512657
0.519402
0.522198
0.5329
0.548645
0.58087
0.647206
0.756461
0.336129
0.316814
0.316164
0.316232
0.316421
0.3167
0.31704
0.317984
0.31905
0.320193
0.323441
0.328415
0.334153
0.348663
0.372222
0.403491
0.46541
0.512541
0.519303
0.521773
0.531372
0.541032
0.546579
0.559074
0.58861
0.336129
0.316814
0.316164
0.316232
0.316422
0.3167
0.317041
0.317985
0.31905
0.320194
0.323445
0.32842
0.334161
0.348683
0.372237
0.40353
0.465521
0.512653
0.519409
0.521871
0.531486
0.540354
0.542105
0.541671
0.544185
0.336129
0.316814
0.316164
0.316232
0.316421
0.316699
0.31704
0.317984
0.319049
0.320192
0.323443
0.328417
0.334154
0.348672
0.37223
0.403478
0.465518
0.512654
0.519394
0.521877
0.531526
0.540329
0.541409
0.540077
0.535006
0.336129
0.316814
0.316164
0.316232
0.316422
0.3167
0.317041
0.317985
0.31905
0.320193
0.323444
0.328419
0.334159
0.348677
0.372239
0.40352
0.465503
0.512647
0.519403
0.521857
0.531461
0.540308
0.541346
0.539858
0.534264
0.336129
0.316814
0.316164
0.316232
0.316421
0.316699
0.31704
0.317984
0.319049
0.320192
0.323443
0.328415
0.334153
0.348673
0.37223
0.403475
0.465513
0.512654
0.519397
0.521883
0.531539
0.540336
0.54134
0.539818
0.534171
0.336129
0.316814
0.316164
0.316232
0.316422
0.316699
0.317041
0.317984
0.319049
0.320193
0.323444
0.328417
0.334157
0.348678
0.372238
0.403517
0.465513
0.512656
0.519412
0.521874
0.531491
0.540329
0.541356
0.539846
0.534209
0.336129
0.316814
0.316164
0.316232
0.316421
0.3167
0.31704
0.317984
0.31905
0.320193
0.32344
0.328415
0.334151
0.34866
0.372222
0.403482
0.465418
0.51255
0.519309
0.521741
0.531316
0.540189
0.54122
0.539693
0.534008
0.336129
0.316814
0.316164
0.316232
0.316421
0.316699
0.31704
0.317984
0.319049
0.320193
0.323444
0.328417
0.334154
0.348677
0.372233
0.403495
0.465552
0.512674
0.519408
0.52189
0.531536
0.540329
0.541337
0.53982
0.534185
0.336129
0.316814
0.316164
0.316232
0.316421
0.316699
0.31704
0.317984
0.319049
0.320192
0.323443
0.328414
0.334151
0.348672
0.372232
0.403477
0.465543
0.512681
0.519414
0.5219
0.531554
0.540336
0.541336
0.539813
0.534166
0.336129
0.316814
0.316164
0.316232
0.316421
0.316699
0.31704
0.317984
0.31905
0.320193
0.32344
0.328416
0.334151
0.348657
0.372229
0.403468
0.465425
0.512578
0.519329
0.521755
0.531322
0.540187
0.541216
0.539688
0.533992
0.336129
0.316814
0.316164
0.316232
0.316421
0.316699
0.31704
0.317984
0.319048
0.320192
0.323442
0.328413
0.334149
0.34867
0.372237
0.403465
0.465533
0.512685
0.519419
0.521907
0.531567
0.540347
0.541345
0.539821
0.534171
0.336129
0.316814
0.316164
0.316232
0.316421
0.316699
0.31704
0.317984
0.319049
0.320192
0.323443
0.328415
0.33415
0.348674
0.372232
0.403485
0.465557
0.512682
0.519412
0.521897
0.531548
0.540337
0.541345
0.539827
0.53419
0.336129
0.316814
0.316164
0.316232
0.316421
0.316699
0.31704
0.317983
0.319049
0.320192
0.32344
0.328412
0.334146
0.348658
0.372221
0.403453
0.465454
0.512584
0.519326
0.52178
0.531386
0.540208
0.541218
0.539686
0.533996
0.336129
0.316814
0.316164
0.316232
0.316421
0.316699
0.31704
0.317984
0.319048
0.320192
0.323442
0.328413
0.33415
0.348671
0.372237
0.403493
0.465519
0.512666
0.519414
0.521882
0.531509
0.540337
0.541358
0.539845
0.534199
0.336129
0.316814
0.316164
0.316232
0.316421
0.316699
0.31704
0.317983
0.319049
0.320192
0.323439
0.328412
0.334145
0.348654
0.37222
0.403452
0.465451
0.512598
0.519341
0.521788
0.531382
0.540204
0.541216
0.539685
0.533999
0.336129
0.316814
0.316164
0.316232
0.316421
0.316699
0.31704
0.317984
0.319048
0.320192
0.323442
0.328413
0.334148
0.348671
0.372231
0.403472
0.465563
0.512696
0.51942
0.521904
0.531554
0.540331
0.541332
0.539811
0.534167