/*--------------------------------*- C++ -*----------------------------------*\
| =========                 |                                                 |
| \\      /  F ield         | OpenFOAM: The Open Source CFD Toolbox           |
|  \\    /   O peration     | Version:  4.1                                   |
|   \\  /    A nd           | Web:      www.OpenFOAM.org                      |
|    \\/     M anipulation  |                                                 |
\*---------------------------------------------------------------------------*/
FoamFile
{
    version     2.0;
    format      ascii;
    class       volVectorField;
    location    "0.48";
    object      U;
}
// * * * * * * * * * * * * * * * * * * * * * * * * * * * * * * * * * * * * * //

dimensions      [0 1 -1 0 0 0 0];

internalField   nonuniform List<vector> 
52500
(
(1.82057 2.04391e-06 -0.00215808)
(1.84759 2.03716e-05 -0.00197278)
(1.84674 3.96478e-05 -0.00198089)
(1.84274 8.09668e-05 -0.0020109)
(1.82869 0.000206912 -0.00210895)
(1.77108 0.000664703 -0.00247457)
(1.47647 0.00284266 -0.00420279)
(0.304882 0.0143658 -0.00945175)
(-0.578029 0.0334254 -0.0128507)
(-0.431827 0.027724 -0.0105331)
(-0.234519 0.0270262 -0.00935535)
(-0.264916 0.0263918 -0.00872633)
(-0.270376 0.0255178 -0.00856424)
(-0.257601 0.0257461 -0.00878059)
(-0.233417 0.0260086 -0.00920631)
(-0.19797 0.0268471 -0.00923115)
(-0.154717 0.0274872 -0.00901989)
(-0.115045 0.028254 -0.00873697)
(-0.0764154 0.0289734 -0.0086891)
(-0.0349375 0.0300864 -0.00867501)
(-0.00340152 0.031782 -0.00852766)
(0.0128783 0.0339051 -0.00831348)
(0.0352122 0.035339 -0.00812147)
(0.00168128 0.0382152 -0.00778797)
(0.0275426 0.0381485 -0.00740139)
(1.8206 5.48308e-06 -0.00215796)
(1.84763 6.28022e-05 -0.00197239)
(1.8468 0.000123401 -0.00198034)
(1.84288 0.000253671 -0.00200969)
(1.82918 0.000650833 -0.00210536)
(1.77336 0.00208942 -0.00246016)
(1.48875 0.00890164 -0.0041298)
(0.332684 0.0442399 -0.00927481)
(-0.573315 0.0972667 -0.012811)
(-0.439032 0.0704958 -0.0105079)
(-0.232715 0.0653356 -0.00932264)
(-0.262059 0.0631787 -0.0086939)
(-0.267501 0.0603789 -0.00852816)
(-0.254451 0.0604789 -0.00872767)
(-0.230263 0.0605068 -0.00916434)
(-0.194641 0.0613195 -0.0091971)
(-0.151508 0.0617218 -0.00899295)
(-0.111701 0.0627009 -0.00870291)
(-0.073008 0.0640513 -0.00865111)
(-0.031157 0.0663105 -0.00863871)
(0.000670128 0.0701271 -0.00848853)
(0.0162992 0.0755553 -0.00827018)
(0.0384782 0.0788161 -0.00807749)
(0.00357368 0.0850717 -0.00774382)
(0.0280077 0.0843848 -0.00735162)
(1.82067 7.31799e-06 -0.00215771)
(1.84772 0.000101021 -0.00197159)
(1.84692 0.000200125 -0.00197922)
(1.84319 0.000415102 -0.00200718)
(1.83024 0.0010718 -0.00209782)
(1.77822 0.00343519 -0.00243021)
(1.51528 0.0144652 -0.00397915)
(0.400461 0.0702562 -0.00889354)
(-0.55324 0.16796 -0.0128128)
(-0.449781 0.118467 -0.010515)
(-0.226978 0.109142 -0.00932688)
(-0.256473 0.106375 -0.00866297)
(-0.262473 0.10251 -0.00848391)
(-0.249212 0.103115 -0.00865412)
(-0.225642 0.103801 -0.00911191)
(-0.18992 0.105522 -0.0091634)
(-0.146778 0.106324 -0.00897222)
(-0.106655 0.107684 -0.00867238)
(-0.0679144 0.110007 -0.00861446)
(-0.0254216 0.113479 -0.00860675)
(0.00756024 0.119292 -0.00845476)
(0.0225162 0.128242 -0.00823063)
(0.0445808 0.133282 -0.00803675)
(0.00732517 0.143837 -0.00770619)
(0.0288744 0.142766 -0.00730644)
(1.82078 6.51787e-06 -0.00215736)
(1.84784 0.000126359 -0.00197047)
(1.84708 0.000252588 -0.00197763)
(1.84361 0.000530188 -0.00200359)
(1.83173 0.00137991 -0.00208713)
(1.78492 0.00440355 -0.0023886)
(1.55086 0.0181777 -0.00377376)
(0.497138 0.086295 -0.00843098)
(-0.520506 0.2363 -0.0127699)
(-0.46924 0.168827 -0.0105571)
(-0.219118 0.152027 -0.00934897)
(-0.24753 0.148464 -0.00863969)
(-0.255248 0.143405 -0.0084407)
(-0.242042 0.143905 -0.00857586)
(-0.219074 0.145 -0.00905245)
(-0.182978 0.14798 -0.00912852)
(-0.140109 0.149595 -0.00895509)
(-0.0994877 0.151554 -0.00864383)
(-0.0604609 0.155221 -0.0085771)
(-0.0169741 0.1605 -0.00857433)
(0.018065 0.168698 -0.0084176)
(0.0320227 0.181506 -0.00818946)
(0.0545808 0.189241 -0.0079958)
(0.0142034 0.204552 -0.0076758)
(0.0305625 0.204509 -0.00726043)
(1.82089 2.50679e-06 -0.00215695)
(1.84798 0.000138071 -0.00196913)
(1.84727 0.000280502 -0.00197573)
(1.84412 0.000600711 -0.00199928)
(1.83349 0.00158261 -0.00207434)
(1.79267 0.00501728 -0.0023401)
(1.59141 0.0202045 -0.00354022)
(0.619612 0.0943857 -0.00789807)
(-0.470246 0.299768 -0.0126604)
(-0.493532 0.223136 -0.0106704)
(-0.211303 0.194591 -0.00938334)
(-0.235946 0.190271 -0.00861426)
(-0.246179 0.183998 -0.00838054)
(-0.233356 0.183934 -0.00846609)
(-0.21122 0.185643 -0.00896213)
(-0.174421 0.189721 -0.00908492)
(-0.13183 0.192297 -0.00893729)
(-0.0903756 0.194998 -0.00861706)
(-0.0506766 0.200301 -0.00853709)
(-0.00579224 0.207947 -0.00852535)
(0.0319465 0.218334 -0.00837147)
(0.0452764 0.234254 -0.00814993)
(0.0684129 0.245561 -0.00795094)
(0.0243837 0.264755 -0.00764789)
(0.0338314 0.267558 -0.00719706)
(1.82102 -5.23431e-06 -0.00215654)
(1.84812 0.000134747 -0.00196768)
(1.84746 0.000281767 -0.00197364)
(1.84468 0.000625888 -0.00199445)
(1.83542 0.00168614 -0.00206025)
(1.80088 0.00531512 -0.00228823)
(1.63355 0.0207472 -0.00329154)
(0.764612 0.0969003 -0.00726438)
(-0.393453 0.355018 -0.0124211)
(-0.51982 0.283857 -0.0108372)
(-0.206165 0.236961 -0.00944548)
(-0.221557 0.231828 -0.00859785)
(-0.235608 0.224482 -0.00831759)
(-0.223249 0.222884 -0.00835498)
(-0.201836 0.22596 -0.00885246)
(-0.164233 0.230962 -0.0090355)
(-0.121876 0.234758 -0.00891728)
(-0.079116 0.238299 -0.00859325)
(-0.0381916 0.245642 -0.00849238)
(0.00826608 0.256298 -0.00846616)
(0.048439 0.268432 -0.00831749)
(0.0619155 0.287258 -0.00811146)
(0.0859655 0.302588 -0.00790728)
(0.0383033 0.325588 -0.00761283)
(0.0393234 0.333621 -0.00714387)
(1.82112 -1.60686e-05 -0.00215623)
(1.84824 0.000115635 -0.00196627)
(1.84765 0.000255166 -0.00197149)
(1.84525 0.000604905 -0.00198935)
(1.83739 0.00169047 -0.00204577)
(1.80892 0.00531882 -0.00223744)
(1.67422 0.0200067 -0.00305052)
(0.941042 0.0928793 -0.00647905)
(-0.287943 0.395991 -0.012058)
(-0.541865 0.35255 -0.01102)
(-0.207793 0.279451 -0.00953342)
(-0.203814 0.273271 -0.00860228)
(-0.223432 0.264954 -0.00825317)
(-0.211691 0.260969 -0.00824375)
(-0.190852 0.265653 -0.00870005)
(-0.152844 0.271437 -0.00897336)
(-0.110308 0.276786 -0.00889386)
(-0.0656128 0.281335 -0.00857765)
(-0.0227167 0.291103 -0.0084387)
(0.0252596 0.30481 -0.00839764)
(0.0675947 0.318475 -0.00825751)
(0.082407 0.341235 -0.00806045)
(0.107694 0.361297 -0.00785179)
(0.0577528 0.388657 -0.00757818)
(0.048319 0.40479 -0.00707108)
(1.82119 -2.83704e-05 -0.00215611)
(1.84833 8.36896e-05 -0.00196502)
(1.8478 0.000208814 -0.00196939)
(1.8458 0.000554779 -0.0019842)
(1.83932 0.0016237 -0.00203146)
(1.81642 0.00509202 -0.00218947)
(1.71116 0.0184554 -0.00283322)
(1.13551 0.0849009 -0.00571161)
(-0.147223 0.409295 -0.0114292)
(-0.552538 0.43084 -0.0113072)
(-0.221067 0.323515 -0.00964666)
(-0.182592 0.314717 -0.00863244)
(-0.209423 0.305401 -0.00819457)
(-0.198826 0.298524 -0.00813722)
(-0.178158 0.304083 -0.00852573)
(-0.1401 0.310754 -0.00890261)
(-0.0969949 0.318023 -0.00886397)
(-0.0495119 0.324157 -0.00858404)
(-0.00394332 0.336492 -0.00836223)
(0.0446763 0.352237 -0.00831252)
(0.0899807 0.36807 -0.00818708)
(0.107759 0.395108 -0.00799993)
(0.134445 0.421451 -0.00779066)
(0.0841312 0.45624 -0.00752243)
(0.0619871 0.485568 -0.00699054)
(1.82117 -3.02498e-05 -0.00215642)
(1.84835 4.86571e-05 -0.00196401)
(1.84793 0.000160542 -0.00196735)
(1.84634 0.000507903 -0.00197931)
(1.84114 0.00153026 -0.00201819)
(1.82316 0.00469298 -0.00214527)
(1.74406 0.0163423 -0.0026393)
(1.3206 0.0743962 -0.00497133)
(0.0450601 0.379142 -0.010441)
(-0.538231 0.51636 -0.0116569)
(-0.251504 0.370688 -0.00979122)
(-0.158613 0.355657 -0.00869155)
(-0.193121 0.345726 -0.00814405)
(-0.184783 0.335681 -0.00802844)
(-0.164083 0.341083 -0.00832396)
(-0.126248 0.348471 -0.0088082)
(-0.0817735 0.358086 -0.00882227)
(-0.0309662 0.366888 -0.00860285)
(0.0177294 0.381109 -0.00829012)
(0.0662096 0.398334 -0.00821832)
(0.115938 0.417047 -0.00811188)
(0.138686 0.448156 -0.00793218)
(0.169269 0.482846 -0.00772206)
(0.123561 0.530583 -0.00744904)
(0.083943 0.584779 -0.00682374)
(1.82111 -2.00388e-05 -0.00215695)
(1.84835 4.33127e-06 -0.001963)
(1.84807 0.000123746 -0.00196534)
(1.84686 0.000490302 -0.00197521)
(1.84277 0.0014382 -0.00200703)
(1.82892 0.0041802 -0.00210666)
(1.77171 0.0138576 -0.00247314)
(1.47513 0.0608658 -0.00420863)
(0.295276 0.307644 -0.00918206)
(-0.488116 0.600384 -0.0118847)
(-0.301144 0.42456 -0.00998608)
(-0.133415 0.395245 -0.00878196)
(-0.173826 0.385656 -0.00810951)
(-0.169619 0.372503 -0.00792448)
(-0.148877 0.376298 -0.00810245)
(-0.111526 0.3843 -0.00868499)
(-0.0641298 0.396549 -0.00877504)
(-0.0101907 0.409696 -0.00860474)
(0.0420336 0.424032 -0.00821813)
(0.0903012 0.443288 -0.00812211)
(0.145415 0.465029 -0.00802182)
(0.176008 0.500877 -0.00786197)
(0.215122 0.546043 -0.00762391)
(0.185944 0.614616 -0.0073275)
(0.122339 0.728718 -0.00656468)
(1.82057 2.07196e-06 -4.10562e-09)
(1.84759 2.05611e-05 -1.1649e-08)
(1.84674 4.0026e-05 -1.46354e-08)
(1.84274 8.17737e-05 -2.65699e-08)
(1.82867 0.000209035 -6.70906e-08)
(1.77098 0.000671794 -2.19491e-07)
(1.47595 0.00287632 -1.00649e-06)
(0.303654 0.0145773 -3.80668e-06)
(-0.578369 0.0336059 9.40199e-07)
(-0.431592 0.027717 8.21626e-07)
(-0.234551 0.0270514 1.60605e-07)
(-0.26487 0.0264107 1.65113e-07)
(-0.270272 0.02555 2.63473e-07)
(-0.257505 0.0257934 1.95353e-07)
(-0.233364 0.0260349 2.03822e-07)
(-0.197951 0.0268451 2.19059e-07)
(-0.154709 0.0274753 2.48985e-07)
(-0.115047 0.0282437 2.25749e-07)
(-0.0764166 0.0289622 2.28115e-07)
(-0.0349411 0.0300725 2.31601e-07)
(-0.00341497 0.031767 2.27352e-07)
(0.0128592 0.0338912 2.31004e-07)
(0.0351958 0.0353282 2.23454e-07)
(0.00167432 0.0382083 2.32383e-07)
(0.0275488 0.0381531 2.3029e-07)
(1.8206 5.50413e-06 -3.89165e-09)
(1.84763 6.28674e-05 -9.91392e-09)
(1.84679 0.000123505 -1.2372e-08)
(1.84288 0.000253877 -2.22208e-08)
(1.82917 0.00065141 -5.56252e-08)
(1.77329 0.00209168 -1.77359e-07)
(1.48844 0.00891485 -7.4553e-07)
(0.332075 0.0442982 -2.3983e-06)
(-0.572695 0.0971864 3.29274e-07)
(-0.43815 0.0703536 7.74757e-07)
(-0.232056 0.0651624 1.97791e-07)
(-0.261618 0.0631069 9.20196e-08)
(-0.267155 0.0603881 1.82783e-07)
(-0.254231 0.0605041 1.84304e-07)
(-0.230175 0.0605408 2.28209e-07)
(-0.194615 0.0613492 2.53199e-07)
(-0.1515 0.0617345 2.75878e-07)
(-0.111705 0.0626917 2.48491e-07)
(-0.0730157 0.0640298 2.45336e-07)
(-0.0311673 0.0662802 2.35509e-07)
(0.000652637 0.0700923 2.13525e-07)
(0.0162784 0.0755212 2.11791e-07)
(0.0384611 0.078787 1.99647e-07)
(0.00356748 0.085046 2.07666e-07)
(0.0280201 0.0843788 2.03759e-07)
(1.82067 7.38134e-06 -3.57385e-09)
(1.84772 0.000101165 -8.64632e-09)
(1.84691 0.000200367 -1.08029e-08)
(1.84318 0.000415455 -1.94785e-08)
(1.83022 0.00107225 -4.89891e-08)
(1.77813 0.00343556 -1.57316e-07)
(1.51483 0.0144643 -6.79145e-07)
(0.399276 0.0702497 -2.59696e-06)
(-0.55378 0.167915 -6.22637e-09)
(-0.449736 0.118472 8.42164e-07)
(-0.227356 0.109051 2.978e-07)
(-0.256807 0.106409 1.10655e-07)
(-0.262733 0.102618 1.73635e-07)
(-0.249384 0.103205 2.10775e-07)
(-0.225735 0.103859 2.60032e-07)
(-0.189986 0.105556 2.92949e-07)
(-0.146825 0.10633 3.16634e-07)
(-0.10669 0.107662 2.8947e-07)
(-0.0679347 0.10997 2.81276e-07)
(-0.0254368 0.113431 2.50245e-07)
(0.00754568 0.119237 1.90126e-07)
(0.0225062 0.12819 1.5805e-07)
(0.0445761 0.133235 1.49026e-07)
(0.00732756 0.143793 1.6195e-07)
(0.0288835 0.14275 1.83702e-07)
(1.82077 6.63271e-06 -3.43455e-09)
(1.84784 0.000126732 -7.35335e-09)
(1.84708 0.000253254 -9.17642e-09)
(1.84361 0.00053139 -1.66094e-08)
(1.83171 0.00138253 -4.21405e-08)
(1.78485 0.00441115 -1.36213e-07)
(1.5505 0.0182099 -5.81817e-07)
(0.496158 0.0864625 -2.06993e-06)
(-0.520706 0.23637 -5.43912e-07)
(-0.469007 0.168809 9.77597e-07)
(-0.21941 0.15202 3.34356e-07)
(-0.247849 0.148495 8.06292e-08)
(-0.255572 0.143489 1.4319e-07)
(-0.242349 0.143986 2.22766e-07)
(-0.21931 0.145054 2.74486e-07)
(-0.183135 0.147982 3.27629e-07)
(-0.1402 0.149563 3.55907e-07)
(-0.0995431 0.151508 3.42826e-07)
(-0.0604921 0.155162 3.33281e-07)
(-0.0169945 0.160432 2.81935e-07)
(0.0180551 0.168622 1.8461e-07)
(0.0320243 0.181441 1.18234e-07)
(0.0545855 0.18918 1.04561e-07)
(0.0142165 0.20449 8.50542e-08)
(0.0305677 0.204479 1.46964e-07)
(1.82089 2.51891e-06 -3.21724e-09)
(1.84798 0.000138308 -6.4133e-09)
(1.84726 0.000280999 -7.96443e-09)
(1.84412 0.000601786 -1.42202e-08)
(1.83348 0.00158544 -3.54941e-08)
(1.79261 0.00502639 -1.12174e-07)
(1.59112 0.0202435 -4.62384e-07)
(0.618752 0.0945571 -1.64571e-06)
(-0.470693 0.299976 -9.42113e-07)
(-0.493454 0.223152 7.25766e-07)
(-0.211736 0.194734 4.51996e-07)
(-0.236463 0.190301 1.27342e-07)
(-0.246679 0.183978 1.61174e-07)
(-0.233784 0.183869 2.94094e-07)
(-0.211523 0.185559 3.95094e-07)
(-0.174633 0.189629 4.05108e-07)
(-0.131947 0.192211 3.85667e-07)
(-0.0904407 0.194926 3.83785e-07)
(-0.0507154 0.200217 3.88541e-07)
(-0.00581614 0.207857 3.13024e-07)
(0.0319453 0.21824 1.68039e-07)
(0.0452921 0.234171 3.82643e-08)
(0.0684235 0.245487 7.90461e-08)
(0.0244047 0.264678 1.05795e-08)
(0.0338335 0.267521 8.22809e-08)
(1.82101 -5.34737e-06 -3.17125e-09)
(1.84812 0.000134924 -5.90371e-09)
(1.84746 0.000282275 -7.18576e-09)
(1.84467 0.00062718 -1.22994e-08)
(1.83541 0.00168974 -2.96682e-08)
(1.80084 0.00532626 -9.34301e-08)
(1.63335 0.0207904 -4.0031e-07)
(0.763824 0.0970829 -1.65709e-06)
(-0.393793 0.355341 -1.70183e-06)
(-0.519736 0.284047 1.16413e-06)
(-0.206463 0.237256 7.27722e-07)
(-0.222074 0.231956 2.5976e-07)
(-0.236037 0.224493 2.53733e-07)
(-0.223597 0.222821 2.04306e-07)
(-0.202074 0.225824 3.36331e-07)
(-0.164399 0.230808 3.90183e-07)
(-0.121963 0.234622 4.25938e-07)
(-0.0791803 0.238188 4.19055e-07)
(-0.0382366 0.245533 4.04679e-07)
(0.00824363 0.25619 3.32635e-07)
(0.0484436 0.268325 1.63796e-07)
(0.0619414 0.287151 -2.70122e-08)
(0.0859835 0.302495 -2.51187e-08)
(0.0383366 0.325502 -7.68955e-08)
(0.0393281 0.333575 5.93373e-09)
(1.82112 -1.61227e-05 -3.38224e-09)
(1.84824 0.000115841 -4.80461e-09)
(1.84764 0.000255652 -6.01109e-09)
(1.84524 0.000606115 -1.11489e-08)
(1.83739 0.00169381 -2.86026e-08)
(1.8089 0.00532877 -8.99084e-08)
(1.67408 0.0200434 -3.56277e-07)
(0.94038 0.093039 -1.43312e-06)
(-0.288299 0.396425 -1.80302e-06)
(-0.541701 0.352708 1.26321e-06)
(-0.207921 0.27972 -2.94178e-07)
(-0.204053 0.273468 1.65763e-07)
(-0.223582 0.265026 3.73377e-07)
(-0.211831 0.260933 2.91861e-07)
(-0.190975 0.265534 3.6266e-07)
(-0.152939 0.271273 4.1977e-07)
(-0.110355 0.276622 4.57089e-07)
(-0.0656559 0.281181 4.76454e-07)
(-0.0227505 0.290978 4.31117e-07)
(0.0252453 0.304689 3.25542e-07)
(0.0676013 0.318359 1.80019e-07)
(0.0824406 0.341113 -4.44875e-08)
(0.107726 0.361181 -1.01382e-07)
(0.0577974 0.38856 -1.01544e-07)
(0.0483231 0.404736 -1.04426e-07)
(1.82118 -2.83904e-05 -3.52856e-09)
(1.84833 8.38219e-05 -3.79101e-09)
(1.8478 0.00020915 -4.47503e-09)
(1.8458 0.000555706 -7.60829e-09)
(1.83932 0.00162629 -1.86963e-08)
(1.81641 0.00509976 -6.02612e-08)
(1.71109 0.0184835 -2.4051e-07)
(1.13509 0.0850277 -1.06893e-06)
(-0.147452 0.409749 -2.84785e-06)
(-0.552298 0.431 1.36729e-06)
(-0.220844 0.323689 4.22257e-07)
(-0.182538 0.314904 3.02693e-07)
(-0.209356 0.305465 3.2311e-07)
(-0.198789 0.298453 3.19689e-07)
(-0.178166 0.303939 4.139e-07)
(-0.14013 0.310581 4.73389e-07)
(-0.0970086 0.317855 5.33473e-07)
(-0.0495242 0.323988 5.05837e-07)
(-0.00395618 0.336361 4.50233e-07)
(0.0446685 0.352107 3.27021e-07)
(0.0899899 0.367948 1.83796e-07)
(0.10779 0.394982 -3.20674e-08)
(0.134485 0.421323 -1.70195e-07)
(0.0841926 0.456124 -1.679e-07)
(0.0619965 0.485511 -1.61733e-07)
(1.82117 -3.02607e-05 -4.28791e-09)
(1.84835 4.86725e-05 -3.23247e-09)
(1.84793 0.000160689 -3.62982e-09)
(1.84634 0.000508454 -5.52223e-09)
(1.84114 0.00153173 -1.19147e-08)
(1.82316 0.004697 -3.7066e-08)
(1.74403 0.016356 -1.44882e-07)
(1.3204 0.0744632 -7.18843e-07)
(0.0447769 0.379499 -2.30049e-06)
(-0.538054 0.516537 6.8685e-07)
(-0.251181 0.370829 6.07298e-07)
(-0.15841 0.35582 2.6415e-07)
(-0.192959 0.345777 2.15505e-07)
(-0.184651 0.335601 2.67628e-07)
(-0.163993 0.340926 3.48893e-07)
(-0.126198 0.3483 4.55996e-07)
(-0.0817474 0.357917 5.36825e-07)
(-0.0309556 0.366734 5.20768e-07)
(0.0177307 0.38098 4.68496e-07)
(0.0662085 0.398209 3.46836e-07)
(0.115954 0.416929 1.75152e-07)
(0.13872 0.448029 -4.71784e-08)
(0.169309 0.482717 -2.13326e-07)
(0.123632 0.530453 -2.83246e-07)
(0.0839643 0.58472 -2.56505e-07)
(1.82111 -1.997e-05 -4.5779e-09)
(1.84835 4.34012e-06 -3.16383e-09)
(1.84807 0.00012395 -3.6231e-09)
(1.84686 0.000490863 -4.88293e-09)
(1.84277 0.00143922 -8.1378e-09)
(1.82892 0.00418231 -2.20621e-08)
(1.7717 0.0138639 -8.6537e-08)
(1.47503 0.0608975 -4.78418e-07)
(0.294984 0.307843 -1.93778e-06)
(-0.488043 0.600571 -1.42333e-07)
(-0.300851 0.424713 4.58635e-07)
(-0.13317 0.395398 1.77097e-07)
(-0.173632 0.385724 1.62498e-07)
(-0.169442 0.372461 2.29632e-07)
(-0.148734 0.376178 3.21561e-07)
(-0.111439 0.384154 4.4658e-07)
(-0.0640806 0.396392 5.30451e-07)
(-0.0101598 0.409574 5.45589e-07)
(0.0420461 0.423912 4.76116e-07)
(0.0903077 0.443184 3.53525e-07)
(0.145432 0.464924 1.88595e-07)
(0.176042 0.500753 -6.20029e-08)
(0.215159 0.545916 -2.7275e-07)
(0.18602 0.614487 -4.70498e-07)
(0.122377 0.728655 -3.62836e-07)
(1.82057 2.05426e-06 1.2369e-09)
(1.84759 2.04725e-05 6.57703e-09)
(1.84674 3.98466e-05 8.65712e-09)
(1.84274 8.13692e-05 1.7069e-08)
(1.82868 0.000207914 4.60448e-08)
(1.77102 0.000667868 1.58623e-07)
(1.4762 0.00285672 7.73538e-07)
(0.304275 0.0144481 3.12249e-06)
(-0.578202 0.0334996 -2.72908e-07)
(-0.431799 0.0277204 -8.64192e-07)
(-0.234758 0.0270316 -6.07597e-07)
(-0.265117 0.0263786 -2.25821e-07)
(-0.270549 0.0254929 -6.29124e-08)
(-0.257742 0.0257177 -6.72095e-09)
(-0.233523 0.0259777 4.98933e-08)
(-0.198046 0.0268175 1.28269e-07)
(-0.154766 0.0274625 1.85256e-07)
(-0.115078 0.0282355 1.30835e-07)
(-0.0764297 0.0289587 8.57931e-08)
(-0.0349415 0.0300726 1.46383e-08)
(-0.00339844 0.0317694 -1.30296e-07)
(0.0128855 0.0338949 -2.55496e-07)
(0.035231 0.0353312 -3.62724e-07)
(0.00169731 0.0382107 -4.08579e-07)
(0.0275525 0.038156 -3.93681e-07)
(1.8206 5.5207e-06 1.12608e-09)
(1.84763 6.30102e-05 5.49668e-09)
(1.8468 0.000123798 7.03369e-09)
(1.84288 0.000254433 1.309e-08)
(1.82917 0.000652593 3.32111e-08)
(1.77332 0.00209458 1.04669e-07)
(1.48855 0.0089227 4.19729e-07)
(0.33228 0.0443382 8.97405e-07)
(-0.573208 0.0973287 3.82562e-07)
(-0.43879 0.0704775 -8.84589e-07)
(-0.232669 0.0653272 -3.98696e-07)
(-0.262068 0.0631675 -1.91281e-08)
(-0.267519 0.0603511 2.12725e-08)
(-0.254483 0.0604482 1.74838e-08)
(-0.230303 0.0604681 9.63874e-08)
(-0.194684 0.0612824 1.64769e-07)
(-0.151542 0.0616887 2.09378e-07)
(-0.11173 0.0626732 1.55969e-07)
(-0.0730245 0.0640243 9.88192e-08)
(-0.0311644 0.0662811 1.061e-08)
(0.00067178 0.0700979 -1.3379e-07)
(0.0163053 0.0755302 -2.44291e-07)
(0.0384953 0.0787938 -3.72208e-07)
(0.00359085 0.0850523 -4.18497e-07)
(0.0280244 0.0843859 -3.90151e-07)
(1.82067 7.34707e-06 1.67136e-09)
(1.84772 0.000101194 8.73344e-09)
(1.84691 0.000200452 1.13023e-08)
(1.84319 0.000415717 2.15902e-08)
(1.83023 0.00107319 5.61762e-08)
(1.77818 0.00343912 1.83938e-07)
(1.5151 0.0144801 8.18783e-07)
(0.399988 0.0703212 3.69422e-06)
(-0.553301 0.168016 -4.31695e-07)
(-0.449615 0.118485 -8.87507e-07)
(-0.22697 0.109148 -3.10472e-07)
(-0.256479 0.106379 -1.47957e-07)
(-0.262486 0.102496 -9.51415e-08)
(-0.249233 0.103092 1.19938e-07)
(-0.225669 0.103763 1.9092e-07)
(-0.189953 0.105484 1.98763e-07)
(-0.146808 0.106285 2.04551e-07)
(-0.106682 0.107649 1.77154e-07)
(-0.0679322 0.10997 1.16415e-07)
(-0.0254279 0.113438 6.54369e-09)
(0.00756951 0.119249 -1.49233e-07)
(0.0225341 0.128203 -2.40525e-07)
(0.0446092 0.133249 -3.71463e-07)
(0.00735181 0.143804 -4.27365e-07)
(0.028888 0.142762 -3.87621e-07)
(1.82077 6.51562e-06 1.24489e-09)
(1.84784 0.000126464 7.15994e-09)
(1.84708 0.000252818 9.38145e-09)
(1.84361 0.000530687 1.83872e-08)
(1.83172 0.00138118 4.89035e-08)
(1.78489 0.0044074 1.61483e-07)
(1.55071 0.0181934 6.99034e-07)
(0.496715 0.0863697 2.59349e-06)
(-0.52055 0.23637 4.17267e-07)
(-0.469038 0.168844 -9.29319e-07)
(-0.219049 0.152072 1.76672e-07)
(-0.247485 0.148489 1.37193e-08)
(-0.255221 0.143414 -1.2274e-07)
(-0.242034 0.143911 4.1356e-08)
(-0.219087 0.144985 1.62413e-07)
(-0.183002 0.147948 1.94285e-07)
(-0.140135 0.149549 2.04591e-07)
(-0.0995144 0.151508 1.97873e-07)
(-0.0604804 0.155175 1.26943e-07)
(-0.0169796 0.160449 -2.23571e-09)
(0.0180817 0.168644 -1.3985e-07)
(0.0320532 0.181459 -2.58623e-07)
(0.0546185 0.1892 -3.56511e-07)
(0.0142407 0.204506 -4.43781e-07)
(0.0305728 0.204497 -3.85298e-07)
(1.82089 2.49905e-06 8.59943e-10)
(1.84798 0.000138112 6.06844e-09)
(1.84727 0.000280602 7.89177e-09)
(1.84412 0.000600984 1.51162e-08)
(1.83349 0.00158348 3.88865e-08)
(1.79265 0.0050203 1.23478e-07)
(1.59129 0.0202179 5.04304e-07)
(0.619244 0.094443 1.78181e-06)
(-0.470354 0.299823 7.33853e-07)
(-0.493363 0.223146 -6.92899e-07)
(-0.211224 0.194698 3.18183e-07)
(-0.235946 0.190304 1.03179e-07)
(-0.246196 0.183999 -8.5059e-08)
(-0.233395 0.183916 1.18365e-07)
(-0.211281 0.185604 1.44127e-07)
(-0.174473 0.189673 1.89998e-07)
(-0.131867 0.192246 2.185e-07)
(-0.0903996 0.194951 2.15646e-07)
(-0.0506953 0.200249 1.32416e-07)
(-0.00579811 0.207889 5.08351e-09)
(0.031971 0.218272 -1.30071e-07)
(0.0453197 0.234196 -2.81237e-07)
(0.0684551 0.245511 -3.502e-07)
(0.0244293 0.264697 -4.57034e-07)
(0.0338397 0.267542 -3.86218e-07)
(1.82101 -5.3018e-06 4.9974e-10)
(1.84812 0.00013473 4.23902e-09)
(1.84746 0.000281816 5.44675e-09)
(1.84468 0.000626142 1.01246e-08)
(1.83542 0.00168698 2.53023e-08)
(1.80086 0.00531769 7.91972e-08)
(1.63345 0.0207569 3.2887e-07)
(0.764212 0.0969363 1.30972e-06)
(-0.393627 0.355057 1.20429e-06)
(-0.519707 0.283963 -7.39249e-07)
(-0.206119 0.237132 2.67945e-07)
(-0.221695 0.231886 1.61234e-07)
(-0.235704 0.224491 -3.25617e-08)
(-0.223327 0.222851 1.93772e-07)
(-0.201897 0.225905 1.24039e-07)
(-0.164276 0.230904 2.09319e-07)
(-0.121907 0.234704 2.32269e-07)
(-0.0791461 0.23825 2.14442e-07)
(-0.0382176 0.245586 1.31156e-07)
(0.0082589 0.256236 6.93763e-09)
(0.0484644 0.268365 -1.38389e-07)
(0.0619652 0.287182 -2.90921e-07)
(0.0860123 0.302524 -3.50772e-07)
(0.038361 0.325525 -4.59364e-07)
(0.039335 0.333599 -4.00655e-07)
(1.82112 -1.6143e-05 2.76981e-10)
(1.84824 0.000115617 2.69642e-09)
(1.84765 0.00025522 3.49632e-09)
(1.84524 0.000605231 6.58611e-09)
(1.83739 0.00169162 1.64705e-08)
(1.80891 0.00532233 4.98743e-08)
(1.67413 0.0200194 1.9364e-07)
(0.940601 0.0929306 7.74904e-07)
(-0.28824 0.3961 1.07087e-06)
(-0.541782 0.35257 -4.91432e-07)
(-0.207872 0.279564 2.98267e-07)
(-0.203962 0.27334 2.22797e-07)
(-0.223502 0.264994 -1.47727e-08)
(-0.211751 0.260971 1.42961e-07)
(-0.190907 0.265626 1.7207e-07)
(-0.152889 0.271386 2.42007e-07)
(-0.110341 0.276726 2.54831e-07)
(-0.0656462 0.281272 2.19245e-07)
(-0.0227456 0.291045 1.24882e-07)
(0.0252514 0.304745 -1.06656e-08)
(0.067615 0.318404 -1.29694e-07)
(0.0824599 0.341149 -2.70418e-07)
(0.10775 0.361215 -3.57009e-07)
(0.0578207 0.388587 -4.5216e-07)
(0.0483304 0.404761 -4.22309e-07)
(1.82118 -2.83906e-05 -1.17208e-10)
(1.84833 8.37319e-05 1.12685e-09)
(1.8478 0.000208953 1.51187e-09)
(1.8458 0.000555272 2.94512e-09)
(1.83932 0.00162518 7.5985e-09)
(1.81641 0.00509645 2.34694e-08)
(1.7111 0.0184714 8.91234e-08)
(1.13515 0.084971 3.77435e-07)
(-0.147453 0.409509 9.93474e-07)
(-0.552439 0.430836 -2.39251e-07)
(-0.220995 0.323542 1.88352e-07)
(-0.18266 0.314777 1.60632e-07)
(-0.209445 0.305438 -1.25933e-08)
(-0.198859 0.298519 9.75583e-08)
(-0.178203 0.304041 1.75685e-07)
(-0.140145 0.310695 2.45436e-07)
(-0.0970314 0.317958 2.4838e-07)
(-0.0495418 0.324085 1.97916e-07)
(-0.00396962 0.336432 1.05357e-07)
(0.0446645 0.352169 3.22568e-09)
(0.0899937 0.367998 -1.15286e-07)
(0.107804 0.395021 -2.59309e-07)
(0.134505 0.421357 -3.48811e-07)
(0.0842131 0.456153 -4.37335e-07)
(0.0620032 0.485535 -4.29914e-07)
(1.82117 -3.02661e-05 -3.49136e-10)
(1.84835 4.86489e-05 4.66119e-10)
(1.84793 0.000160632 5.94432e-10)
(1.84634 0.000508322 1.03948e-09)
(1.84114 0.00153141 2.67985e-09)
(1.82316 0.00469605 8.26551e-09)
(1.74403 0.0163525 2.9705e-08)
(1.32039 0.0744446 1.34104e-07)
(0.0447823 0.379384 4.24464e-07)
(-0.538171 0.516377 -2.75819e-08)
(-0.251365 0.370698 6.64608e-08)
(-0.158608 0.35572 9.50453e-08)
(-0.193107 0.34576 2.06016e-08)
(-0.184785 0.335663 7.96763e-08)
(-0.164097 0.341022 1.5439e-07)
(-0.126269 0.348397 2.3075e-07)
(-0.0818039 0.358012 2.26254e-07)
(-0.0309922 0.366819 1.61856e-07)
(0.017704 0.381052 1.03097e-07)
(0.0661961 0.398269 1.95949e-08)
(0.115948 0.416978 -9.00594e-08)
(0.138726 0.448068 -2.34961e-07)
(0.169326 0.48275 -3.41669e-07)
(0.12365 0.530482 -4.25936e-07)
(0.0839693 0.584743 -4.3618e-07)
(1.82111 -1.99817e-05 -2.46097e-10)
(1.84835 4.3377e-06 8.73038e-11)
(1.84807 0.000123934 5.15889e-11)
(1.84686 0.00049083 8.69697e-11)
(1.84277 0.00143918 5.37217e-10)
(1.82892 0.00418219 1.65577e-09)
(1.77169 0.0138634 5.03137e-09)
(1.47501 0.0608945 2.19953e-08)
(0.294966 0.307817 3.87585e-08)
(-0.488126 0.60044 1.00034e-07)
(-0.300988 0.424596 -1.45791e-08)
(-0.133347 0.395323 -1.03659e-08)
(-0.173763 0.385708 2.11014e-08)
(-0.169569 0.3725 9.96105e-08)
(-0.148842 0.376252 1.42503e-07)
(-0.111505 0.384232 1.97303e-07)
(-0.0641361 0.396472 2.12812e-07)
(-0.0102044 0.409642 1.3804e-07)
(0.0420121 0.423978 9.30266e-08)
(0.0902853 0.443236 2.85781e-08)
(0.145418 0.464967 -6.56848e-08)
(0.176042 0.50079 -2.03743e-07)
(0.215171 0.545945 -3.33797e-07)
(0.186034 0.614511 -4.1918e-07)
(0.122381 0.728675 -4.31769e-07)
(1.82057 2.06006e-06 3.54808e-10)
(1.84759 2.04938e-05 -4.47033e-11)
(1.84674 3.98877e-05 -2.53342e-10)
(1.84274 8.14513e-05 -1.11086e-09)
(1.82868 0.000208107 -4.10051e-09)
(1.77102 0.000668438 -1.49584e-08)
(1.47616 0.00285916 -6.55169e-08)
(0.304194 0.0144624 -2.10098e-07)
(-0.57823 0.0335124 1.84623e-07)
(-0.43179 0.0277208 1.48303e-07)
(-0.234765 0.0270381 5.41384e-08)
(-0.265118 0.0263891 -6.93998e-09)
(-0.270549 0.0255047 -2.9438e-08)
(-0.257746 0.0257275 -3.64957e-08)
(-0.233533 0.0259803 -5.00425e-08)
(-0.198059 0.0268146 -4.83764e-08)
(-0.154778 0.0274576 -4.09827e-08)
(-0.115089 0.0282311 -2.38306e-08)
(-0.0764381 0.0289546 -2.69622e-08)
(-0.034944 0.0300687 -5.34067e-08)
(-0.00339282 0.031766 -9.6262e-08)
(0.0128968 0.0338924 -1.4405e-07)
(0.0352559 0.0353286 -2.15116e-07)
(0.00171896 0.0382084 -2.76677e-07)
(0.0275553 0.0381543 -2.81216e-07)
(1.8206 5.50856e-06 3.92707e-10)
(1.84763 6.29922e-05 1.65557e-10)
(1.8468 0.000123771 3.14864e-11)
(1.84288 0.000254407 -5.16461e-10)
(1.82917 0.000652619 -2.40466e-09)
(1.77331 0.0020949 -8.67134e-09)
(1.48853 0.00892481 -3.07928e-08)
(0.332238 0.04435 -2.93938e-08)
(-0.573181 0.0973263 1.15456e-07)
(-0.438743 0.0704574 1.40783e-07)
(-0.232637 0.0653071 5.14373e-08)
(-0.262048 0.0631536 -1.02999e-08)
(-0.267508 0.0603465 -2.51823e-08)
(-0.254482 0.0604506 -2.62982e-08)
(-0.230314 0.0604679 -4.56236e-08)
(-0.194697 0.0612792 -5.15878e-08)
(-0.151553 0.0616824 -4.77897e-08)
(-0.11174 0.0626651 -3.39791e-08)
(-0.0730328 0.0640158 -3.34458e-08)
(-0.0311666 0.0662726 -5.59844e-08)
(0.000678353 0.0700899 -9.68937e-08)
(0.0163171 0.0755248 -1.4016e-07)
(0.0385201 0.0787873 -2.16179e-07)
(0.00361294 0.0850469 -2.73876e-07)
(0.0280275 0.0843814 -2.68727e-07)
(1.82067 7.34891e-06 2.35015e-10)
(1.84772 0.000101179 5.42536e-11)
(1.84691 0.000200423 -5.29734e-11)
(1.84318 0.000415677 -4.85589e-10)
(1.83023 0.00107313 -1.94823e-09)
(1.77818 0.00343903 -6.67724e-09)
(1.51508 0.0144801 -2.28195e-08)
(0.399931 0.0703232 -2.41796e-08)
(-0.553302 0.168016 8.46379e-08)
(-0.449583 0.11849 1.26392e-07)
(-0.226954 0.109153 2.05601e-08)
(-0.256476 0.1064 -3.27782e-08)
(-0.262489 0.102533 -4.08971e-08)
(-0.249244 0.103129 -4.10697e-08)
(-0.22569 0.103781 -3.32723e-08)
(-0.189972 0.105484 -4.07649e-08)
(-0.146824 0.106274 -4.66471e-08)
(-0.106695 0.107633 -4.97082e-08)
(-0.0679408 0.109955 -4.49482e-08)
(-0.0254299 0.113423 -5.87981e-08)
(0.00757777 0.119236 -9.944e-08)
(0.0225468 0.128193 -1.32683e-07)
(0.0446339 0.133239 -2.17438e-07)
(0.00737496 0.143795 -2.62845e-07)
(0.0288914 0.142754 -2.67476e-07)
(1.82077 6.50926e-06 3.77084e-10)
(1.84784 0.000126405 8.94351e-11)
(1.84708 0.000252701 -1.03544e-12)
(1.84361 0.000530468 -3.31512e-10)
(1.83172 0.0013807 -1.36154e-09)
(1.78489 0.00440609 -4.04454e-09)
(1.55069 0.0181888 -8.57162e-09)
(0.496669 0.0863496 4.1879e-08)
(-0.520527 0.236333 1.07833e-07)
(-0.469022 0.168854 1.18472e-07)
(-0.219116 0.152074 -1.12088e-07)
(-0.24759 0.148501 -1.94185e-08)
(-0.255332 0.143434 5.19802e-08)
(-0.242149 0.143901 2.93413e-08)
(-0.219182 0.144973 3.22178e-08)
(-0.18306 0.14793 -1.49938e-08)
(-0.140166 0.149528 -3.64798e-08)
(-0.0995287 0.151489 -5.09965e-08)
(-0.0604878 0.155153 -4.9426e-08)
(-0.0169806 0.160429 -6.00768e-08)
(0.0180918 0.168625 -1.08879e-07)
(0.0320681 0.181444 -1.28572e-07)
(0.0546439 0.189187 -2.13356e-07)
(0.014264 0.204491 -2.53705e-07)
(0.0305767 0.204485 -2.69073e-07)
(1.82089 2.43879e-06 2.11782e-10)
(1.84798 0.000138051 -4.49773e-10)
(1.84727 0.000280548 -6.95439e-10)
(1.84412 0.000600981 -1.64591e-09)
(1.83349 0.00158365 -4.6698e-09)
(1.79264 0.00502092 -1.40626e-08)
(1.59125 0.0202198 -4.58881e-08)
(0.619146 0.0944461 -9.53477e-08)
(-0.470511 0.299841 4.62379e-07)
(-0.493475 0.223186 1.61573e-07)
(-0.211476 0.194733 -4.19143e-07)
(-0.236196 0.190321 -2.54189e-08)
(-0.246423 0.183986 1.28128e-07)
(-0.23357 0.183859 -1.5677e-08)
(-0.211381 0.185547 1.05031e-09)
(-0.174537 0.189625 1.39984e-08)
(-0.131898 0.19221 -8.51471e-09)
(-0.0904176 0.194924 -2.21395e-08)
(-0.0507055 0.200221 -3.53695e-08)
(-0.00579732 0.207864 -5.26949e-08)
(0.0319835 0.218249 -9.75446e-08)
(0.0453371 0.234176 -1.25623e-07)
(0.0684807 0.245494 -2.11501e-07)