/*--------------------------------*- C++ -*----------------------------------*\
| =========                 |                                                 |
| \\      /  F ield         | OpenFOAM: The Open Source CFD Toolbox           |
|  \\    /   O peration     | Version:  4.1                                   |
|   \\  /    A nd           | Web:      www.OpenFOAM.org                      |
|    \\/     M anipulation  |                                                 |
\*---------------------------------------------------------------------------*/
FoamFile
{
    version     2.0;
    format      ascii;
    class       volScalarField;
    location    "8.28";
    object      Ma;
}
// * * * * * * * * * * * * * * * * * * * * * * * * * * * * * * * * * * * * * //

dimensions      [0 0 0 0 0 0 0];

internalField   nonuniform List<scalar> 
52500
(
3.00001
2.99996
2.99989
2.9996
2.99919
2.99755
2.99521
2.98604
2.97159
2.9225
2.81805
2.56475
1.95816
1.05871
0.437579
0.32025
0.343432
0.345343
0.314595
0.262526
0.211067
0.168586
0.126613
0.0799561
0.045971
3.00001
2.99996
2.99989
2.9996
2.9992
2.99757
2.99527
2.98619
2.97189
2.9233
2.81972
2.56919
1.96541
1.06845
0.443838
0.320902
0.344656
0.347103
0.31664
0.265343
0.215168
0.17425
0.134596
0.0934299
0.069431
3.00001
2.99996
2.99989
2.99961
2.99922
2.99763
2.99537
2.9865
2.97252
2.92496
2.82326
2.57846
1.98131
1.09023
0.45839
0.323578
0.348737
0.352692
0.3233
0.27419
0.227209
0.190124
0.155932
0.123887
0.10878
3.00001
2.99996
2.9999
2.99963
2.99925
2.99771
2.99554
2.98697
2.97347
2.92745
2.82867
2.59258
2.00614
1.12483
0.480835
0.327668
0.355339
0.361938
0.33439
0.288554
0.246078
0.213957
0.185998
0.161946
0.151971
3.00001
2.99996
2.9999
2.99965
2.99929
2.99784
2.99577
2.98775
2.97475
2.93144
2.83537
2.61115
2.03977
1.17331
0.510727
0.332692
0.364022
0.374205
0.349087
0.307317
0.269835
0.243352
0.221436
0.203689
0.197426
3.00002
2.99997
2.99991
2.99967
2.99934
2.99799
2.99605
2.98862
2.97628
2.93613
2.84505
2.63488
2.08284
1.23704
0.547277
0.338026
0.374147
0.388984
0.366655
0.330058
0.298037
0.277266
0.261718
0.250191
0.247566
3.00002
2.99997
2.99992
2.9997
2.99939
2.99814
2.99634
2.98948
2.97807
2.94094
2.85693
2.66126
2.14433
1.32157
0.594995
0.347913
0.38818
0.407511
0.387829
0.356273
0.33061
0.316037
0.307133
0.302657
0.305962
3.00002
2.99998
2.99993
2.99972
2.99944
2.99828
2.99664
2.99016
2.98003
2.94524
2.87197
2.69064
2.22725
1.43232
0.656643
0.367839
0.409848
0.432227
0.414364
0.38733
0.367375
0.359685
0.358713
0.363551
0.377573
3.00002
2.99998
2.99994
2.99975
2.9995
2.99845
2.99696
2.99105
2.98213
2.95014
2.88894
2.72384
2.32206
1.5691
0.729978
0.401116
0.441645
0.46385
0.447264
0.425069
0.410354
0.408684
0.416922
0.43663
0.474305
3.00002
2.99999
2.99995
2.99979
2.99956
2.99865
2.99733
2.99221
2.98427
2.95635
2.90365
2.75511
2.41533
1.69697
0.81699
0.451058
0.483302
0.498302
0.485136
0.467904
0.458929
0.463385
0.48495
0.531842
0.633728
2.99999
2.99994
2.99987
2.99958
2.99917
2.99753
2.99519
2.98601
2.97157
2.92247
2.81802
2.56468
1.95809
1.05858
0.437407
0.320071
0.343257
0.345162
0.314393
0.26228
0.210756
0.168189
0.126075
0.0790879
0.044419
2.99999
2.99994
2.99987
2.99958
2.99918
2.99755
2.99525
2.98617
2.97187
2.92327
2.81969
2.56912
1.96535
1.06831
0.44367
0.320726
0.344484
0.346925
0.316442
0.265103
0.214867
0.173871
0.134097
0.0926986
0.0684289
2.99999
2.99994
2.99987
2.99959
2.9992
2.99761
2.99535
2.98648
2.97249
2.92492
2.82323
2.57839
1.98125
1.0901
0.458228
0.323406
0.348568
0.352519
0.323108
0.273961
0.226927
0.189781
0.155507
0.123345
0.108153
2.99999
2.99994
2.99988
2.99961
2.99923
2.99769
2.99552
2.98695
2.97344
2.92742
2.82864
2.5925
2.00607
1.1247
0.480679
0.327501
0.355176
0.361773
0.334209
0.28834
0.245824
0.21366
0.185649
0.16154
0.151531
3
2.99995
2.99988
2.99963
2.99927
2.99782
2.99575
2.98773
2.97473
2.93139
2.83535
2.61108
2.03971
1.17318
0.510586
0.332532
0.363865
0.374045
0.348915
0.307119
0.269607
0.243096
0.22115
0.203373
0.197095
3
2.99995
2.99989
2.99965
2.99932
2.99797
2.99603
2.9886
2.97626
2.93609
2.84501
2.6348
2.08275
1.23689
0.547133
0.337862
0.373989
0.388828
0.366489
0.329875
0.297834
0.277046
0.261482
0.249941
0.247309
3
2.99996
2.9999
2.99968
2.99937
2.99812
2.99632
2.98946
2.97805
2.9409
2.85689
2.66118
2.14424
1.3214
0.594855
0.347747
0.388022
0.407357
0.38767
0.356102
0.330428
0.315847
0.306937
0.302456
0.305761
3
2.99996
2.99991
2.9997
2.99942
2.99826
2.99661
2.99013
2.98
2.94519
2.87195
2.69057
2.2272
1.43217
0.656527
0.367687
0.409701
0.432083
0.414215
0.387174
0.367212
0.359522
0.35855
0.363391
0.377418
3
2.99996
2.99992
2.99973
2.99948
2.99843
2.99694
2.99102
2.9821
2.95011
2.8889
2.72378
2.32197
1.56895
0.729863
0.400964
0.441503
0.463715
0.447127
0.424927
0.41021
0.408542
0.416786
0.436503
0.47419
3
2.99997
2.99993
2.99977
2.99954
2.99863
2.99731
2.99219
2.98425
2.95632
2.90361
2.75505
2.41527
1.69684
0.816885
0.450921
0.48318
0.498184
0.485015
0.467779
0.458804
0.463263
0.484837
0.531743
0.633651
2.99999
2.99994
2.99987
2.99958
2.99917
2.99753
2.99519
2.98601
2.97156
2.92247
2.81802
2.56467
1.95809
1.05857
0.437403
0.320072
0.343258
0.345162
0.314393
0.26228
0.210756
0.168189
0.126075
0.0790878
0.044419
2.99999
2.99994
2.99987
2.99958
2.99918
2.99755
2.99525
2.98617
2.97187
2.92327
2.81969
2.56911
1.96534
1.06831
0.443666
0.320727
0.344484
0.346925
0.316442
0.265103
0.214867
0.173871
0.134097
0.0926986
0.0684291
2.99999
2.99994
2.99987
2.99959
2.9992
2.99761
2.99535
2.98648
2.97249
2.92492
2.82323
2.57838
1.98124
1.09009
0.458224
0.323407
0.348568
0.352519
0.323108
0.273961
0.226927
0.189781
0.155507
0.123345
0.108154
2.99999
2.99994
2.99988
2.99961
2.99923
2.99769
2.99552
2.98695
2.97344
2.92742
2.82864
2.5925
2.00606
1.12469
0.480675
0.327502
0.355177
0.361773
0.334209
0.28834
0.245824
0.21366
0.185649
0.16154
0.151532
3
2.99995
2.99988
2.99963
2.99927
2.99782
2.99575
2.98773
2.97473
2.93139
2.83535
2.61108
2.03971
1.17317
0.510583
0.332534
0.363866
0.374045
0.348915
0.307119
0.269607
0.243096
0.22115
0.203373
0.197095
3
2.99995
2.99989
2.99965
2.99932
2.99797
2.99603
2.98859
2.97626
2.93609
2.84501
2.6348
2.08275
1.23688
0.547129
0.337863
0.37399
0.388828
0.366489
0.329875
0.297834
0.277046
0.261483
0.249941
0.247309
3
2.99996
2.9999
2.99968
2.99937
2.99812
2.99632
2.98945
2.97805
2.9409
2.85689
2.66118
2.14423
1.32139
0.594851
0.347748
0.388022
0.407357
0.38767
0.356102
0.330428
0.315847
0.306937
0.302457
0.305762
3
2.99996
2.99991
2.9997
2.99942
2.99826
2.99661
2.99013
2.98
2.94519
2.87195
2.69056
2.22719
1.43216
0.656522
0.367687
0.4097
0.432082
0.414215
0.387173
0.367212
0.359522
0.358551
0.363391
0.377418
3
2.99996
2.99992
2.99973
2.99948
2.99843
2.99694
2.99102
2.9821
2.95011
2.8889
2.72378
2.32197
1.56894
0.729858
0.400963
0.441502
0.463714
0.447125
0.424926
0.410209
0.408542
0.416786
0.436504
0.47419
3
2.99997
2.99993
2.99977
2.99954
2.99863
2.99731
2.99219
2.98425
2.95632
2.90361
2.75505
2.41526
1.69683
0.816881
0.45092
0.48318
0.498182
0.485013
0.467778
0.458803
0.463263
0.484837
0.531743
0.633651
2.99999
2.99994
2.99987
2.99958
2.99917
2.99753
2.99519
2.98601
2.97156
2.92247
2.81802
2.56467
1.95809
1.05857
0.437403
0.320072
0.343258
0.345162
0.314393
0.26228
0.210756
0.168189
0.126075
0.0790878
0.044419
2.99999
2.99994
2.99987
2.99958
2.99918
2.99755
2.99525
2.98617
2.97187
2.92327
2.81969
2.56911
1.96534
1.06831
0.443666
0.320727
0.344484
0.346925
0.316442
0.265103
0.214867
0.173871
0.134097
0.0926986
0.0684291
2.99999
2.99994
2.99987
2.99959
2.9992
2.99761
2.99535
2.98648
2.97249
2.92492
2.82323
2.57838
1.98124
1.09009
0.458224
0.323407
0.348568
0.352519
0.323108
0.273961
0.226927
0.189781
0.155507
0.123345
0.108154
2.99999
2.99994
2.99988
2.99961
2.99923
2.99769
2.99552
2.98695
2.97344
2.92742
2.82864
2.5925
2.00606
1.12469
0.480675
0.327502
0.355177
0.361773
0.334209
0.28834
0.245824
0.21366
0.185649
0.16154
0.151532
3
2.99995
2.99988
2.99963
2.99927
2.99782
2.99575
2.98773
2.97473
2.93139
2.83535
2.61108
2.03971
1.17317
0.510582
0.332534
0.363866
0.374045
0.348915
0.307119
0.269607
0.243096
0.22115
0.203373
0.197095
3
2.99995
2.99989
2.99965
2.99932
2.99797
2.99603
2.98859
2.97626
2.93609
2.84501
2.6348
2.08275
1.23688
0.547129
0.337863
0.37399
0.388828
0.366489
0.329875
0.297834
0.277046
0.261483
0.249941
0.247309
3
2.99996
2.9999
2.99968
2.99937
2.99812
2.99632
2.98945
2.97805
2.9409
2.85689
2.66118
2.14423
1.32139
0.59485
0.347748
0.388022
0.407357
0.38767
0.356102
0.330428
0.315847
0.306937
0.302457
0.305762
3
2.99996
2.99991
2.9997
2.99942
2.99826
2.99661
2.99013
2.98
2.94519
2.87195
2.69056
2.22719
1.43216
0.656522
0.367687
0.4097
0.432082
0.414214
0.387173
0.367212
0.359522
0.358551
0.363391
0.377418
3
2.99996
2.99992
2.99973
2.99948
2.99843
2.99694
2.99102
2.9821
2.95011
2.8889
2.72378
2.32196
1.56894
0.729857
0.400963
0.441502
0.463713
0.447125
0.424926
0.410209
0.408541
0.416786
0.436504
0.47419
3
2.99997
2.99993
2.99977
2.99954
2.99863
2.99731
2.99219
2.98425
2.95632
2.90361
2.75505
2.41526
1.69683
0.816881
0.45092
0.483179
0.498182
0.485013
0.467778
0.458803
0.463263
0.484837
0.531743
0.633651
2.99999
2.99994
2.99987
2.99958
2.99917
2.99753
2.99519
2.98601
2.97156
2.92247
2.81802
2.56467
1.95809
1.05857
0.437402
0.320073
0.343258
0.345162
0.314393
0.26228
0.210756
0.168189
0.126075
0.0790878
0.044419
2.99999
2.99994
2.99987
2.99958
2.99918
2.99755
2.99525
2.98617
2.97187
2.92327
2.81969
2.56911
1.96534
1.06831
0.443665
0.320727
0.344484
0.346925
0.316442
0.265103
0.214867
0.173871
0.134097
0.0926986
0.0684291
2.99999
2.99994
2.99987
2.99959
2.9992
2.99761
2.99535
2.98648
2.97249
2.92492
2.82323
2.57838
1.98124
1.09009
0.458223
0.323407
0.348568
0.352519
0.323108
0.273961
0.226927
0.189781
0.155507
0.123345
0.108154
2.99999
2.99994
2.99988
2.99961
2.99923
2.99769
2.99552
2.98695
2.97344
2.92742
2.82864
2.5925
2.00606
1.12469
0.480674
0.327502
0.355177
0.361773
0.334209
0.28834
0.245824
0.21366
0.185649
0.16154
0.151532
3
2.99995
2.99988
2.99963
2.99927
2.99782
2.99575
2.98773
2.97473
2.93139
2.83535
2.61108
2.03971
1.17317
0.510582
0.332534
0.363866
0.374045
0.348915
0.307119
0.269607
0.243096
0.22115
0.203373
0.197095
3
2.99995
2.99989
2.99965
2.99932
2.99797
2.99603
2.98859
2.97626
2.93609
2.84501
2.6348
2.08275
1.23688
0.547128
0.337864
0.37399
0.388828
0.366489
0.329875
0.297834
0.277046
0.261483
0.249941
0.247309
3
2.99996
2.9999
2.99968
2.99937
2.99812
2.99632
2.98945
2.97805
2.9409
2.85689
2.66118
2.14423
1.32139
0.59485
0.347748
0.388022
0.407357
0.38767
0.356102
0.330428
0.315847
0.306937
0.302457
0.305762
3
2.99996
2.99991
2.9997
2.99942
2.99826
2.99661
2.99013
2.98
2.94519
2.87195
2.69056
2.22718
1.43216
0.656521
0.367687
0.4097
0.432082
0.414214
0.387173
0.367212
0.359522
0.358551
0.363391
0.377418
3
2.99996
2.99992
2.99973
2.99948
2.99843
2.99694
2.99102
2.9821
2.95011
2.8889
2.72378
2.32196
1.56894
0.729857
0.400962
0.441501
0.463713
0.447125
0.424926
0.410209
0.408541
0.416786
0.436504
0.47419
3
2.99997
2.99993
2.99977
2.99954
2.99863
2.99731
2.99219
2.98425
2.95632
2.90361
2.75505
2.41526
1.69683
0.81688
0.450919
0.483179
0.498182
0.485013
0.467778
0.458803
0.463263
0.484837
0.531743
0.633651
2.99999
2.99994
2.99987
2.99958
2.99917
2.99753
2.99519
2.98601
2.97156
2.92247
2.81802
2.56467
1.95809
1.05857
0.437402
0.320073
0.343258
0.345162
0.314393
0.26228
0.210756
0.168189
0.126075
0.0790878
0.044419
2.99999
2.99994
2.99987
2.99958
2.99918
2.99755
2.99525
2.98617
2.97187
2.92327
2.81969
2.56911
1.96534
1.0683
0.443665
0.320727
0.344484
0.346925
0.316442
0.265103
0.214867
0.173871
0.134097
0.0926986
0.0684291
2.99999
2.99994
2.99987
2.99959
2.9992
2.99761
2.99535
2.98648
2.97249
2.92492
2.82323
2.57838
1.98124
1.09009
0.458223
0.323407
0.348568
0.352519
0.323108
0.273961
0.226927
0.189781
0.155507
0.123345
0.108154
2.99999
2.99994
2.99988
2.99961
2.99923
2.99769
2.99552
2.98695
2.97344
2.92742
2.82864
2.5925
2.00606
1.12469
0.480674
0.327502
0.355177
0.361773
0.334209
0.28834
0.245824
0.21366
0.185649
0.16154
0.151532
3
2.99995
2.99988
2.99963
2.99927
2.99782
2.99575
2.98773
2.97473
2.93139
2.83535
2.61108
2.03971
1.17317
0.510582
0.332534
0.363866
0.374045
0.348915
0.307119
0.269607
0.243096
0.22115
0.203373
0.197095
3
2.99995
2.99989
2.99965
2.99932
2.99797
2.99603
2.98859
2.97626
2.93609
2.84501
2.6348
2.08275
1.23688
0.547128
0.337864
0.37399
0.388828
0.366489
0.329875
0.297834
0.277046
0.261483
0.249941
0.247309
3
2.99996
2.9999
2.99968
2.99937
2.99812
2.99632
2.98945
2.97805
2.9409
2.85689
2.66118
2.14423
1.32139
0.59485
0.347748
0.388022
0.407357
0.38767
0.356102
0.330428
0.315847
0.306937
0.302457
0.305762
3
2.99996
2.99991
2.9997
2.99942
2.99826
2.99661
2.99013
2.98
2.94519
2.87195
2.69056
2.22718
1.43216
0.656521
0.367687
0.4097
0.432082
0.414214
0.387173
0.367212
0.359522
0.358551
0.363391
0.377418
3
2.99996
2.99992
2.99973
2.99948
2.99843
2.99694
2.99102
2.9821
2.95011
2.8889
2.72378
2.32196
1.56894
0.729856
0.400962
0.441501
0.463713
0.447125
0.424926
0.410209
0.408541
0.416786
0.436504
0.47419
3
2.99997
2.99993
2.99977
2.99954
2.99863
2.99731
2.99219
2.98425
2.95632
2.90361
2.75505
2.41526
1.69683
0.81688
0.450919
0.483179
0.498182
0.485013
0.467778
0.458803
0.463263
0.484837
0.531743
0.633651
2.99999
2.99994
2.99987
2.99958
2.99917
2.99753
2.99519
2.98601
2.97156
2.92247
2.81802
2.56467
1.95809
1.05857
0.437402
0.320072
0.343258
0.345162
0.314393
0.26228
0.210756
0.168189
0.126075
0.0790878
0.044419
2.99999
2.99994
2.99987
2.99958
2.99918
2.99755
2.99525
2.98617
2.97187
2.92327
2.81969
2.56911
1.96534
1.06831
0.443665
0.320727
0.344484
0.346925
0.316442
0.265103
0.214867
0.173871
0.134097
0.0926986
0.0684291
2.99999
2.99994
2.99987
2.99959
2.9992
2.99761
2.99535
2.98648
2.97249
2.92492
2.82323
2.57838
1.98124
1.09009
0.458224
0.323407
0.348568
0.352519
0.323108
0.273961
0.226927
0.189781
0.155507
0.123345
0.108154
2.99999
2.99994
2.99988
2.99961
2.99923
2.99769
2.99552
2.98695
2.97344
2.92742
2.82864
2.5925
2.00606
1.12469
0.480674
0.327502
0.355177
0.361773
0.334209
0.28834
0.245824
0.21366
0.185649
0.16154
0.151532
3
2.99995
2.99988
2.99963
2.99927
2.99782
2.99575
2.98773
2.97473
2.93139
2.83535
2.61108
2.03971
1.17317
0.510582
0.332534
0.363866
0.374045
0.348915
0.307119
0.269607
0.243096
0.22115
0.203373
0.197095
3
2.99995
2.99989
2.99965
2.99932
2.99797
2.99603
2.98859
2.97626
2.93609
2.84501
2.6348
2.08275
1.23688
0.547128
0.337864
0.37399
0.388828
0.366489
0.329875
0.297834
0.277046
0.261483
0.249941
0.247309
3
2.99996
2.9999
2.99968
2.99937
2.99812
2.99632
2.98945
2.97805
2.9409
2.85689
2.66118
2.14423
1.32139
0.59485
0.347748
0.388022
0.407357
0.38767
0.356102
0.330428
0.315847
0.306937
0.302457
0.305762
3
2.99996
2.99991
2.9997
2.99942
2.99826
2.99661
2.99013
2.98
2.94519
2.87195
2.69056
2.22719
1.43216
0.656521
0.367687
0.4097
0.432082
0.414214
0.387173
0.367212
0.359522
0.358551
0.363391
0.377418
3
2.99996
2.99992
2.99973
2.99948
2.99843
2.99694
2.99102
2.9821
2.95011
2.8889
2.72378
2.32196
1.56894
0.729857
0.400962
0.441501
0.463713
0.447125
0.424926
0.410209
0.408541
0.416786
0.436504
0.47419
3
2.99997
2.99993
2.99977
2.99954
2.99863
2.99731
2.99219
2.98425
2.95632
2.90361
2.75505
2.41526
1.69683
0.81688
0.450919
0.483179
0.498182
0.485013
0.467778
0.458803
0.463263
0.484837
0.531743
0.633651
2.99999
2.99994
2.99987
2.99958
2.99917
2.99753
2.99519
2.98601
2.97156
2.92247
2.81802
2.56467
1.95809
1.05857
0.437403
0.320072
0.343258
0.345162
0.314393
0.26228
0.210756
0.168189
0.126075
0.0790878
0.044419
2.99999
2.99994
2.99987
2.99958
2.99918
2.99755
2.99525
2.98617
2.97187
2.92327
2.81969
2.56911
1.96534
1.06831
0.443666
0.320727
0.344484
0.346925
0.316442
0.265103
0.214867
0.173871
0.134097
0.0926986
0.0684291
2.99999
2.99994
2.99987
2.99959
2.9992
2.99761
2.99535
2.98648
2.97249
2.92492
2.82323
2.57838
1.98124
1.09009
0.458224
0.323407
0.348568
0.352519
0.323108
0.273961
0.226927
0.189781
0.155507
0.123345
0.108154
2.99999
2.99994
2.99988
2.99961
2.99923
2.99769
2.99552
2.98695
2.97344
2.92742
2.82864
2.5925
2.00606
1.12469
0.480675
0.327502
0.355177
0.361773
0.334209
0.28834
0.245824
0.21366
0.185649
0.16154
0.151532
3
2.99995
2.99988
2.99963
2.99927
2.99782
2.99575
2.98773
2.97473
2.93139
2.83535
2.61108
2.03971
1.17317
0.510583
0.332534
0.363866
0.374045
0.348915
0.307119
0.269607
0.243096
0.22115
0.203373
0.197095
3
2.99995
2.99989
2.99965
2.99932
2.99797
2.99603
2.98859
2.97626
2.93609
2.84501
2.6348
2.08275
1.23688
0.547129
0.337863
0.37399
0.388828
0.366489
0.329875
0.297834
0.277046
0.261483
0.249941
0.247309
3
2.99996
2.9999
2.99968
2.99937
2.99812
2.99632
2.98945
2.97805
2.9409
2.85689
2.66118
2.14423
1.32139
0.594851
0.347748
0.388022
0.407357
0.38767
0.356102
0.330428
0.315847
0.306937
0.302457
0.305762
3
2.99996
2.99991
2.9997
2.99942
2.99826
2.99661
2.99013
2.98
2.94519
2.87195
2.69056
2.22719
1.43216
0.656522
0.367687
0.4097
0.432082
0.414215
0.387173
0.367212
0.359522
0.358551
0.363391
0.377418
3
2.99996
2.99992
2.99973
2.99948
2.99843
2.99694
2.99102
2.9821
2.95011
2.8889
2.72378
2.32197
1.56894
0.729858
0.400963
0.441502
0.463714
0.447125
0.424926
0.410209
0.408542
0.416786
0.436504
0.47419
3
2.99997
2.99993
2.99977
2.99954
2.99863
2.99731
2.99219
2.98425
2.95632
2.90361
2.75505
2.41526
1.69683
0.816881
0.45092
0.48318
0.498182
0.485013
0.467778
0.458803
0.463263
0.484837
0.531743
0.633651
2.99999
2.99994
2.99987
2.99958
2.99917
2.99753
2.99519
2.98601
2.97157
2.92247
2.81802
2.56468
1.95809
1.05858
0.437407
0.320071
0.343257
0.345162
0.314393
0.26228
0.210756
0.168189
0.126075
0.0790879
0.044419
2.99999
2.99994
2.99987
2.99958
2.99918
2.99755
2.99525
2.98617
2.97187
2.92327
2.81969
2.56912
1.96535
1.06831
0.44367
0.320726
0.344484
0.346925
0.316442
0.265103
0.214867
0.173871
0.134097
0.0926986
0.0684289
2.99999
2.99994
2.99987
2.99959
2.9992
2.99761
2.99535
2.98648
2.97249
2.92492
2.82323
2.57839
1.98125
1.0901
0.458228
0.323406
0.348568
0.352519
0.323108
0.273961
0.226927
0.189781
0.155507
0.123345
0.108153
2.99999
2.99994
2.99988
2.99961
2.99923
2.99769
2.99552
2.98695
2.97344
2.92742
2.82864
2.5925
2.00607
1.1247
0.480679
0.327501
0.355176
0.361773
0.334209
0.28834
0.245824
0.21366
0.185649
0.16154
0.151531
3
2.99995
2.99988
2.99963
2.99927
2.99782
2.99575
2.98773
2.97473
2.93139
2.83535
2.61108
2.03971
1.17318
0.510586
0.332532
0.363865
0.374045
0.348915
0.307119
0.269607
0.243096
0.22115
0.203373
0.197095
3
2.99995
2.99989
2.99965
2.99932
2.99797
2.99603
2.9886
2.97626
2.93609
2.84501
2.6348
2.08275
1.23689
0.547133
0.337862
0.373989
0.388828
0.366489
0.329875
0.297834
0.277046
0.261482
0.249941
0.247309
3
2.99996
2.9999
2.99968
2.99937
2.99812
2.99632
2.98946
2.97805
2.9409
2.85689
2.66118
2.14424
1.3214
0.594855
0.347747
0.388022
0.407357
0.38767
0.356102
0.330428
0.315847
0.306937
0.302456
0.305761
3
2.99996
2.99991
2.9997
2.99942
2.99826
2.99661
2.99013
2.98
2.94519
2.87195
2.69057
2.2272
1.43217
0.656527
0.367687
0.409701
0.432083
0.414215
0.387174
0.367212
0.359522
0.35855
0.363391
0.377418
3
2.99996
2.99992
2.99973
2.99948
2.99843
2.99694
2.99102
2.9821
2.95011
2.8889
2.72378
2.32197
1.56895
0.729863
0.400964
0.441503
0.463715
0.447127
0.424927
0.41021
0.408542
0.416786
0.436503
0.47419
3
2.99997
2.99993
2.99977
2.99954
2.99863
2.99731
2.99219
2.98425
2.95632
2.90361
2.75505
2.41527
1.69684
0.816885
0.450921
0.48318
0.498184
0.485015
0.467779
0.458804
0.463263
0.484837
0.531743
0.633651
3.00001
2.99996
2.99989
2.9996
2.99919
2.99755
2.99521
2.98604
2.97159
2.9225
2.81805
2.56475
1.95816
1.05871
0.437579
0.32025
0.343432
0.345343
0.314595
0.262526
0.211067
0.168586
0.126613
0.0799561
0.045971
3.00001
2.99996
2.99989
2.9996
2.9992
2.99757
2.99527
2.98619
2.97189
2.9233
2.81972
2.56919
1.96541
1.06845
0.443838
0.320902
0.344656
0.347103
0.31664
0.265343
0.215168
0.17425
0.134596
0.0934299
0.069431
3.00001
2.99996
2.99989
2.99961
2.99922
2.99763
2.99537
2.9865
2.97252
2.92496
2.82326
2.57846
1.98131
1.09023
0.458391
0.323578
0.348737
0.352692
0.3233
0.27419
0.227209
0.190124
0.155932
0.123887
0.10878
3.00001
2.99996
2.9999
2.99963
2.99925
2.99771
2.99554
2.98697
2.97347
2.92745
2.82867
2.59258
2.00614
1.12483
0.480835
0.327668
0.355339
0.361939
0.33439
0.288554
0.246078
0.213957
0.185998
0.161946
0.151971
3.00001
2.99996
2.9999
2.99965
2.99929
2.99784
2.99577
2.98775
2.97475
2.93144
2.83537
2.61115
2.03977
1.17331
0.510727
0.332692
0.364022
0.374205
0.349087
0.307317
0.269835
0.243352
0.221436
0.203689
0.197426
3.00002
2.99997
2.99991
2.99967
2.99934
2.99799
2.99605
2.98862
2.97628
2.93613
2.84505
2.63488
2.08284
1.23704
0.547277
0.338026
0.374147
0.388984
0.366655
0.330058
0.298037
0.277266
0.261718
0.250191
0.247566
3.00002
2.99997
2.99992
2.9997
2.99939
2.99814
2.99634
2.98948
2.97807
2.94094
2.85693
2.66126
2.14433
1.32157
0.594995
0.347913
0.388179
0.407511
0.387829
0.356273
0.33061
0.316037
0.307133
0.302657
0.305962
3.00002
2.99998
2.99993
2.99972
2.99944
2.99828
2.99664
2.99016
2.98003
2.94524
2.87197
2.69064
2.22725
1.43232
0.656643
0.367839
0.409848
0.432227
0.414364
0.38733
0.367375
0.359685
0.358713
0.363551
0.377573
3.00002
2.99998
2.99994
2.99975
2.9995
2.99845
2.99696
2.99105
2.98213
2.95014
2.88894
2.72384
2.32206
1.5691
0.729978
0.401116
0.441645
0.46385
0.447264
0.425069
0.410354
0.408684
0.416922
0.43663
0.474305
3.00002
2.99999
2.99995
2.99979
2.99956
2.99865
2.99733
2.99221
2.98427
2.95635
2.90365
2.75511
2.41533
1.69697
0.81699
0.451058
0.483302
0.498302
0.485136
0.467904
0.458929
0.463385
0.48495
0.531842
0.633728
3.00002
3
2.99994
2.99986
2.99954
2.99907
2.99724
2.99447
2.98452
2.96665
2.91261
2.78378
2.50069
1.84004
0.939373
0.514367
0.520959
0.529247
0.525624
0.51353
0.510101
0.522948
0.562336
0.6459
0.813025
3.00002
3
2.99995
2.99988
2.99959
2.99917
2.9975
2.99513
2.98575
2.97119
2.92134
2.8172
2.56038
1.96195
1.0824
0.594506
0.545231
0.556593
0.562414
0.558379
0.561544
0.583396
0.636305
0.734226
0.898796
3.00002
3.00001
2.99996
2.9999
2.99965
2.99931
2.9979
2.99588
2.98812
2.97551
2.93369
2.84106
2.62533
2.07463
1.23689
0.678905
0.563043
0.578423
0.594238
0.600258
0.610747
0.63945
0.697084
0.789524
0.923227
3.00002
3.00001
2.99997
2.99992
2.99971
2.99942
2.99825
2.99656
2.99012
2.97945
2.9448
2.86687
2.6848
2.20317
1.42128
0.773083
0.583832
0.601176
0.621891
0.638107
0.65607
0.688426
0.743453
0.823992
0.934544
3.00002
3.00001
2.99998
2.99994
2.99977
2.99952
2.99853
2.9971
2.99153
2.98293
2.95269
2.89475
2.73575
2.36297
1.62195
0.893782
0.628256
0.635685
0.653303
0.673464
0.695915
0.730203
0.782651
0.851338
0.943468
3.00002
3.00001
3
2.99994
2.99986
2.99954
2.99907
2.99726
2.99451
2.98472
2.967
2.9141
2.78773
2.51143
1.8808
1.0442
0.694549
0.680795
0.69345
0.712139
0.733086
0.765192
0.815165
0.877733
0.954007
3.00002
3.00001
3
2.99996
2.99989
2.99962
2.99924
2.9977
2.99553
2.98695
2.97368
2.92812
2.83283
2.60187
2.04287
1.21588
0.77414
0.714536
0.727899
0.746039
0.768685
0.797705
0.841012
0.899592
0.967439
3.00002
3.00002
3.00001
2.99997
2.99992
2.99972
2.99943
2.99828
2.99656
2.99033
2.97934
2.94541
2.86618
2.68513
2.2039
1.43036
0.880633
0.743591
0.75373
0.772483
0.799153
0.829384
0.866222
0.916734
0.978364
3.00002
3.00002
3.00001
2.99999
2.99993
2.99984
2.99948
2.99895
2.99704
2.99364
2.98322
2.95949
2.90106
2.74203
2.42799
1.69143
1.037
0.794297
0.78559
0.800091
0.825833
0.8573
0.893018
0.934835
0.988333
3.00002
3.00002
3.00001
3
2.99995
2.99988
2.99959
2.99917
2.99752
2.99512
2.986
2.971
2.92254
2.81569
2.56659
1.98903
1.19819
0.863699
0.825572
0.83564
0.856599
0.884561
0.91745
0.954886
0.999524
3.00003
3.00002
3.00002
3
2.99998
2.9999
2.99977
2.99928
2.99855
2.99594
2.99124
2.97705
2.94417
2.86515
2.64733
2.23432
1.39218
0.961263
0.857988
0.864082
0.883614
0.910292
0.93967
0.973778
1.01257
3.00003
3.00002
3.00002
3.00001
2.99999
2.99992
2.99983
2.99944
2.99888
2.9967
2.99345
2.98173
2.96049
2.89813
2.74528
2.42827
1.71914
1.11397
0.909448
0.89704
0.90977
0.932995
0.96117
0.990911
1.02491
3.00003
3.00003
3.00002
3.00002
3
2.99997
2.99985
2.99967
2.999
2.99799
2.99422
2.98825
2.96776
2.92965
2.81974
2.58468
2.01832
1.2904
0.980738
0.931121
0.937629
0.956205
0.982143
1.00932
1.0382
3.00003
3.00003
3.00002
3.00002
3.00001
2.99998
2.9999
2.99977
2.99928
2.99858
2.99586
2.99174
2.97721
2.95033
2.87409
2.68758
2.30127
1.53588
1.09952
0.970193
0.965447
0.97687
0.998917
1.0251
1.05051
3.00003
3.00003
3.00003
3.00002
3.00002
2.99999
2.99995
2.99981
2.99959
2.99878
2.99757
2.99307
2.98589
2.96179
2.91567
2.78913
2.50818
1.89168
1.25296
1.02691
0.998204
1.00315
1.01841
1.03984
1.05928
3.00003
3.00003
3.00003
3.00002
3.00002
3
2.99997
2.99987
2.99972
2.99914
2.99831
2.99508
2.99024
2.97287
2.94183
2.85378
2.64639
2.19824
1.45084
1.10334
1.02984
1.02718
1.03702
1.05186
1.06265
3.00003
3.00003
3.00003
3.00003
3.00002
3.00001
2.99998
2.99994
2.99977
2.99952
2.99858
2.99718
2.99195
2.98368
2.95599
2.90067
2.75887
2.4201
1.76683
1.23375
1.0689
1.05045
1.05349
1.05976
1.05981
3.00003
3.00003
3.00003
3.00003
3.00002
3.00002
3
2.99997
2.99985
2.99968
2.99902
2.99806
2.99442
2.98883
2.96911
2.93486
2.82916
2.62297
2.0848
1.4355
1.13901
1.0745
1.06331
1.05806
1.04566
3.00003
3.00003
3.00003
3.00003
3.00003
3.00002
3.00001
2.99998
2.99993
2.99975
2.99948
2.99846
2.99693
2.99138
2.98218
2.95279
2.89009
2.7393
2.36988
1.69713
1.25279
1.1049
1.0696
1.04496
1.01518
3.00003
3.00003
3.00003
3.00003
3.00003
3.00002
3.00001
3
2.99995
2.99987
2.99958
2.99916
2.99755
2.99513
2.98647
2.97171
2.92652
2.82697
2.59925
2.0884
1.42136
1.14582
1.06745
1.01427
0.963801
3.00003
3.00003
3.00003
3.00003
3.00003
3.00003
3.00002
3.00001
2.99997
2.99992
2.99972
2.99943
2.99831
2.99669
2.99049
2.98096
2.94864
2.88377
2.72275
2.32827
1.65509
1.21224
1.04262
0.950818
0.899117
3.00003
3.00003
3.00003
3.00003
3.00003
3.00003
3.00002
3.00001
3
2.99994
2.99986
2.99954
2.99906
2.99728
2.99459
2.9849
2.96852
2.91839
2.81082
2.55118
2.01869
1.32786
1.00008
0.863824
0.838185
3.00003
3.00003
3.00003
3.00003
3.00003
3.00003
3.00003
3.00002
3.00001
2.99996
2.9999
2.99966
2.99932
2.99796
2.99603
2.98852
2.977
2.93763
2.85745
2.66203
2.18469
1.45479
0.928869
0.743712
0.759095
3.00003
3.00003
3.00003
3.00003
3.00003
3.00003
3.00003
3.00002
3.00001
2.99998
2.99993
2.99974
2.99947
2.99839
2.99685
2.99078
2.98167
2.94901
2.88896
2.72104
2.34408
1.62226
0.871367
0.612436
0.671499
3.00003
3.00003
3.00003
3.00003
3.00003
3.00003
3.00003
3.00002
3.00001
2.99999
2.99995
2.99979
2.99956
2.99865
2.99732
2.99217
2.98413
2.95591
2.90234
2.75184
2.40615
1.69102
0.808181
0.488196
0.57414
3.00003
3.00003
3.00003
3.00003
3.00003
3.00003
3.00003
3.00002
3.00001
3
2.99994
2.99986
2.99955
2.99906
2.99731
2.99429
2.98472
2.96378
2.90939
2.76501
2.46759
1.76389
0.837529
0.420088
0.494082
3.00003
3.00003
3.00003
3.00003
3.00003
3.00003
3.00003
3.00002
3.00002
3
2.99997
2.99985
2.99967
2.999
2.99789
2.99417
2.98662
2.9653
2.9125
2.79089
2.45313
1.81035
0.831853
0.38936
0.433057
3.00003
3.00003
3.00003
3.00003
3.00003
3.00003
3.00003
3.00002
3.00002
3
2.99995
2.99988
2.99959
2.99916
2.99746
2.99488
2.98537
2.96852
2.9161
2.79203
2.51055
1.84363
0.922796
0.412532
0.412786
3.00003
3.00003
3.00003
3.00003
3.00003
3.00003
3.00003
3.00003
3.00002
3.00001
2.99996
2.99989
2.99962
2.99922
2.99763
2.99522
2.98627
2.9705
2.92025
2.80349
2.53118
1.88173
0.967045
0.427889
0.399818
3.00003
3.00003
3.00003
3.00003
3.00003
3.00003
3.00003
3.00003
3.00002
3
2.99998
2.99989
2.99974
2.99922
2.99824
2.9953
2.98841
2.97087
2.92426
2.82065
2.51075
1.94548
0.936857
0.427418
0.378193
3.00003
3.00003
3.00003
3.00003
3.00003
3.00003
3.00003
3.00003
3.00002
3.00001
2.99997
2.99991
2.99968
2.99933
2.99807
2.99572
2.98855
2.9719
2.92911
2.81484
2.57082
1.93442
1.04017
0.462954
0.382057
3.00003
3.00003
3.00003
3.00003
3.00003
3.00003
3.00003
3.00003
3.00002
3.00001
2.99998
2.99989
2.99976
2.99923
2.99839
2.99548
2.98962
2.97285
2.93089
2.83282
2.54507
2.01566
1.01419
0.466587
0.36355
3.00003
3.00003
3.00003
3.00003
3.00003
3.00003
3.00003
3.00003
3.00002
3.00001
2.99999
2.9999
2.99977
2.99928
2.99849
2.99576
2.9902
2.97435
2.9344
2.84063
2.56273
2.04747
1.04543
0.476572
0.348773
3.00003
3.00003
3.00003
3.00003
3.00003
3.00003
3.00003
3.00003
3.00002
3.00001
2.99998
2.99993
2.99975
2.99944
2.99839
2.99628
2.99006
2.97519
2.93728
2.83483
2.61639
2.01429
1.14864
0.497144
0.340868
3.00003
3.00003
3.00003
3.00003
3.00003
3.00003
3.00003
3.00003
3.00002
3.00001
2.99999
2.99992
2.99981
2.99943
2.99863
2.9964
2.99086
2.97714
2.93916
2.85476
2.59274
2.10778
1.12802
0.496268
0.318899
3.00003
3.00003
3.00003
3.00003
3.00003
3.00003
3.00003
3.00003
3.00002
3.00001
2.99999
2.99994
2.99978
2.99949
2.9986
2.9966
2.99118
2.97746
2.9434
2.8484
2.64506
2.0636
1.21825
0.499693
0.29509
3.00003
3.00003
3.00003
3.00003
3.00003
3.00003
3.00003
3.00003
3.00002
3.00001
2.99999
2.99992
2.99982
2.99941
2.99874
2.99649
2.9917
2.97837
2.94401
2.86283
2.61924
2.15579
1.19484
0.504138
0.285342
3.00003
3.00003
3.00003
3.00003
3.00003
3.00003
3.00003
3.00003
3.00002
3.00001
2.99999
2.99992
2.99982
2.99943
2.99879
2.99663
2.99205
2.97935
2.94619
2.86784
2.62991
2.17328
1.21895
0.509268
0.283914
3.00003
3.00003
3.00003
3.00003
3.00003
3.00003
3.00003
3.00003
3.00002
3.00001
2.99998
2.99994
2.99976
2.9995
2.99847
2.99684
2.99116
2.97968
2.94672
2.86049
2.66899
2.11624
1.26879
0.481215
0.24209
3.00003
3.00003
3.00003
3.00003
3.00003
3.00003
3.00003
3.00003
3.00002
3.00001
2.99998
2.99994
2.99975
2.99949
2.99838
2.99681
2.99049
2.98007
2.94517
2.86332
2.66914
2.12995
1.27341
0.472465
0.231188
3
2.99998
2.99992
2.99984
2.99952
2.99905
2.99722
2.99445
2.9845
2.96663
2.91258
2.78374
2.50063
1.83994
0.939215
0.514218
0.52085
0.529143
0.525518
0.51342
0.509991
0.522843
0.562244
0.645826
0.812979
3
2.99998
2.99993
2.99986
2.99957
2.99915
2.99748
2.99511
2.98573
2.97117
2.9213
2.81717
2.5603
1.96186
1.08225
0.594374
0.545136
0.556501
0.56232
0.558282
0.561447
0.583305
0.636226
0.734164
0.898756
3
2.99999
2.99994
2.99988
2.99963
2.99929
2.99787
2.99586
2.98809
2.97548
2.93365
2.84104
2.62526
2.07456
1.23674
0.678783
0.562953
0.578335
0.594151