/*--------------------------------*- C++ -*----------------------------------*\
| =========                 |                                                 |
| \\      /  F ield         | OpenFOAM: The Open Source CFD Toolbox           |
|  \\    /   O peration     | Version:  4.1                                   |
|   \\  /    A nd           | Web:      www.OpenFOAM.org                      |
|    \\/     M anipulation  |                                                 |
\*---------------------------------------------------------------------------*/
FoamFile
{
    version     2.0;
    format      ascii;
    class       volScalarField;
    location    "0.54";
    object      Ma;
}
// * * * * * * * * * * * * * * * * * * * * * * * * * * * * * * * * * * * * * //

dimensions      [0 0 0 0 0 0 0];

internalField   nonuniform List<scalar> 
52500
(
3.10191
3.19606
3.15297
2.94029
2.195
0.6696
0.257888
0.317193
0.0214477
0.0750213
0.110082
0.0924839
0.0849704
0.0784119
0.0677807
0.0569753
0.0419071
0.0292112
0.0292884
0.0514944
0.0756658
0.0862482
0.101418
0.0649287
0.0517622
3.10275
3.19775
3.15558
2.94768
2.21576
0.694867
0.258483
0.326495
0.0479245
0.0875016
0.11847
0.100615
0.0926243
0.0864996
0.0772493
0.0693457
0.0596735
0.0544649
0.0576124
0.0738171
0.0936518
0.103698
0.117497
0.0886367
0.0805163
3.10455
3.20134
3.16113
2.9634
2.26131
0.754572
0.255146
0.341217
0.0780203
0.107499
0.134464
0.117772
0.110047
0.10555
0.0990729
0.0951587
0.0911225
0.0916308
0.0976824
0.111022
0.12744
0.137162
0.149274
0.129229
0.125104
3.10715
3.2066
3.16921
2.98602
2.32743
0.850418
0.250059
0.362957
0.107401
0.132561
0.15541
0.139483
0.131751
0.128383
0.124082
0.123685
0.123918
0.128492
0.137705
0.15044
0.165823
0.176242
0.18827
0.175016
0.173336
3.11038
3.21315
3.17914
3.01325
2.40825
0.980938
0.244384
0.389205
0.136101
0.160009
0.179919
0.164621
0.156816
0.154496
0.151482
0.153653
0.157439
0.165558
0.177381
0.19024
0.206314
0.218565
0.231954
0.224358
0.225177
3.11404
3.22066
3.19042
3.04351
2.50036
1.14783
0.237727
0.417216
0.165577
0.189078
0.206458
0.191979
0.183952
0.182268
0.180157
0.184542
0.191558
0.20315
0.216818
0.23091
0.248515
0.263346
0.278857
0.276586
0.282047
3.11796
3.22879
3.20249
3.0753
2.60024
1.3451
0.235266
0.443934
0.198344
0.219326
0.234404
0.22087
0.21246
0.211138
0.209794
0.215908
0.226052
0.240882
0.256299
0.27255
0.29247
0.310713
0.329287
0.332008
0.344559
3.12198
3.23717
3.21479
3.10721
2.70423
1.56437
0.260619
0.465982
0.238328
0.249287
0.263311
0.250893
0.241842
0.24044
0.24001
0.247482
0.260958
0.277782
0.295956
0.314959
0.338235
0.360909
0.384706
0.394415
0.417656
3.12595
3.24544
3.2267
3.13768
2.80707
1.80347
0.352117
0.480769
0.290075
0.277568
0.293406
0.281972
0.27199
0.270145
0.271032
0.279484
0.295751
0.313575
0.335426
0.357798
0.385568
0.414284
0.447205
0.469425
0.51462
3.12972
3.25327
3.23773
3.16525
2.90232
2.05029
0.520429
0.48392
0.355612
0.301145
0.325152
0.3138
0.302743
0.300503
0.302896
0.311586
0.329635
0.34872
0.374595
0.400601
0.433643
0.470584
0.517957
0.567522
0.672901
3.10187
3.196
3.15288
2.94006
2.19442
0.668922
0.258021
0.317048
0.0198107
0.0747289
0.109822
0.0921049
0.0845653
0.0779875
0.0673116
0.0564359
0.0411977
0.0282105
0.0282968
0.0509465
0.0753086
0.0859466
0.10117
0.0645291
0.0512715
3.10272
3.1977
3.15552
2.94753
2.21543
0.694439
0.257946
0.325838
0.0470037
0.0866859
0.11779
0.0999929
0.0921099
0.0860751
0.0768439
0.0689261
0.0592022
0.0539489
0.0571145
0.0734297
0.093353
0.103433
0.117268
0.0883209
0.0801855
3.10451
3.20129
3.16105
2.96321
2.26082
0.753951
0.255149
0.341052
0.0774739
0.107214
0.134372
0.117694
0.109951
0.10536
0.0988342
0.0949022
0.0908457
0.0913286
0.0973819
0.110757
0.127209
0.136947
0.149075
0.128984
0.124869
3.10712
3.20654
3.16913
2.98582
2.32689
0.849636
0.250016
0.36277
0.107056
0.132328
0.155362
0.139502
0.131795
0.128368
0.123973
0.123509
0.123707
0.128263
0.137482
0.150233
0.165631
0.176057
0.188091
0.174805
0.173136
3.11035
3.2131
3.17907
3.01307
2.40773
0.980106
0.244373
0.389041
0.135878
0.159847
0.179937
0.164645
0.156801
0.154393
0.15133
0.153468
0.157242
0.165361
0.177192
0.190059
0.206142
0.218398
0.231787
0.224167
0.224993
3.11401
3.22062
3.19036
3.04335
2.49989
1.14697
0.237747
0.417108
0.16547
0.189006
0.206473
0.191979
0.183841
0.182058
0.179918
0.184309
0.191353
0.202969
0.216644
0.230742
0.248355
0.263189
0.278699
0.276414
0.281882
3.11794
3.22875
3.20244
3.07517
2.59983
1.34426
0.235278
0.443869
0.198256
0.219287
0.234483
0.220814
0.212328
0.210938
0.20956
0.215668
0.225834
0.240698
0.256129
0.272388
0.292316
0.310561
0.329136
0.331851
0.344407
3.12196
3.23714
3.21475
3.10711
2.7039
1.56361
0.260499
0.465966
0.238222
0.249301
0.263302
0.250775
0.241709
0.240263
0.23981
0.247267
0.260742
0.277589
0.295792
0.314806
0.338088
0.360763
0.384563
0.394264
0.417505
3.12594
3.24542
3.22667
3.13761
2.80682
1.80286
0.351785
0.480802
0.289944
0.277653
0.293416
0.281865
0.271865
0.269967
0.270824
0.279261
0.295542
0.313381
0.335268
0.35765
0.385428
0.41415
0.447069
0.469279
0.514467
3.12971
3.25326
3.23771
3.1652
2.90215
2.04981
0.519976
0.483996
0.355474
0.301271
0.325266
0.313747
0.302655
0.300361
0.302718
0.311383
0.329438
0.348541
0.374446
0.40046
0.433511
0.470461
0.517834
0.567391
0.672755
3.10188
3.19602
3.15292
2.94017
2.19471
0.669243
0.257836
0.317073
0.0197865
0.0747564
0.109959
0.0922998
0.0847449
0.0781077
0.0673841
0.0564733
0.0412202
0.0282197
0.0282832
0.0509263
0.0752887
0.0859287
0.101156
0.0645225
0.051272
3.10273
3.19772
3.15554
2.94759
2.21554
0.694578
0.25827
0.326229
0.0472022
0.0871111
0.118192
0.100312
0.0923124
0.0861567
0.0768587
0.0689128
0.0591836
0.0539382
0.057106
0.0734183
0.0933395
0.103421
0.117258
0.0883198
0.0801888
3.10453
3.20131
3.16109
2.96331
2.26108
0.75427
0.255023
0.341031
0.077599
0.107213
0.134236
0.117517
0.109786
0.105262
0.0987574
0.0948346
0.0907959
0.0913124
0.0973792
0.110754
0.127204
0.136943
0.149072
0.128989
0.124875
3.10713
3.20657
3.16917
2.98593
2.32719
0.850069
0.249944
0.362777
0.107111
0.132339
0.155217
0.13927
0.131543
0.128161
0.123844
0.123438
0.12367
0.128255
0.137487
0.150239
0.165635
0.17606
0.188094
0.174814
0.173145
3.11036
3.21312
3.17911
3.01317
2.40802
0.980574
0.244269
0.389031
0.13587
0.159821
0.179766
0.164474
0.156669
0.154345
0.151296
0.153451
0.157235
0.165368
0.177209
0.190074
0.206153
0.218406
0.231796
0.22418
0.225005
3.11402
3.22064
3.19039
3.04344
2.50014
1.14744
0.237608
0.417075
0.165399
0.188939
0.20633
0.191893
0.183818
0.18209
0.179955
0.184348
0.191383
0.202998
0.216673
0.230764
0.248371
0.263203
0.278712
0.276429
0.281897
3.11794
3.22876
3.20246
3.07523
2.60002
1.34466
0.235134
0.443822
0.198167
0.21917
0.2344
0.220804
0.21235
0.210988
0.209619
0.215731
0.22589
0.240747
0.256166
0.272415
0.292337
0.310578
0.329153
0.331867
0.344424
3.12196
3.23715
3.21476
3.10715
2.70403
1.56392
0.26044
0.4659
0.238148
0.249131
0.263243
0.250796
0.241745
0.240317
0.239859
0.247325
0.260806
0.277649
0.295833
0.314836
0.338111
0.360783
0.384582
0.394283
0.417523
3.12594
3.24542
3.22667
3.13762
2.8069
1.80305
0.351847
0.480711
0.289894
0.277463
0.293335
0.281871
0.271889
0.270016
0.270875
0.279333
0.295607
0.313442
0.335308
0.357679
0.385452
0.414171
0.44709
0.4693
0.514486
3.12971
3.25326
3.23771
3.16521
2.90218
2.04992
0.520074
0.483891
0.355438
0.301107
0.325152
0.31373
0.302654
0.300378
0.302737
0.311428
0.329494
0.348597
0.374486
0.400486
0.433532
0.47048
0.517853
0.567413
0.672775
3.10188
3.19602
3.15291
2.94015
2.19466
0.669194
0.257861
0.317077
0.0197967
0.0747756
0.109966
0.0923026
0.0847506
0.0781171
0.0673968
0.0564862
0.0412309
0.0282243
0.0282769
0.0509181
0.0752807
0.0859182
0.101142
0.0645111
0.0512663
3.10273
3.19772
3.15554
2.94758
2.21551
0.694544
0.258261
0.326204
0.0471905
0.0870874
0.118166
0.100294
0.0923084
0.0861641
0.0768726
0.0689266
0.0591942
0.0539413
0.0570996
0.0734096
0.0933293
0.103409
0.117242
0.088307
0.0801796
3.10452
3.20131
3.16109
2.9633
2.26105
0.754235
0.255036
0.341021
0.077596
0.107196
0.134224
0.117528
0.109813
0.105295
0.0987843
0.0948523
0.0908043
0.0913103
0.0973713
0.110743
0.127192
0.136928
0.149054
0.128973
0.124861
3.10713
3.20657
3.16916
2.98592
2.32717
0.850041
0.249931
0.362762
0.107106
0.132337
0.155256
0.139341
0.131616
0.128224
0.123877
0.123452
0.123672
0.128249
0.137478
0.150226
0.16562
0.176042
0.188074
0.174795
0.173127
3.11036
3.21312
3.1791
3.01315
2.40798
0.980507
0.244281
0.389056
0.135885
0.159862
0.179877
0.16456
0.15671
0.154328
0.151281
0.153441
0.15723
0.16536
0.177197
0.190059
0.206136
0.218387
0.231774
0.224159
0.224984
3.11402
3.22064
3.19038
3.04342
2.5001
1.14736
0.23764
0.417108
0.165443
0.188996
0.206421
0.191938
0.183812
0.182051
0.179917
0.184317
0.191367
0.202984
0.216658
0.230747
0.248353
0.263182
0.278689
0.276406
0.281875
3.11794
3.22876
3.20246
3.07523
2.6
1.34462
0.235178
0.443845
0.198213
0.219248
0.234438
0.220802
0.212337
0.210969
0.209595
0.215704
0.225867
0.240728
0.25615
0.272398
0.292319
0.310558
0.329128
0.331843
0.344399
3.12196
3.23715
3.21476
3.10715
2.70403
1.56392
0.260476
0.465914
0.238178
0.249228
0.263257
0.250775
0.241727
0.240305
0.239864
0.247318
0.260784
0.277625
0.295817
0.31482
0.338093
0.360763
0.384558
0.394259
0.417497
3.12594
3.24542
3.22667
3.13763
2.80691
1.80308
0.35187
0.480725
0.289909
0.27755
0.293352
0.281856
0.271877
0.270005
0.270878
0.279314
0.295589
0.313419
0.335296
0.357665
0.385436
0.414153
0.447068
0.469277
0.514461
3.12971
3.25326
3.23771
3.16521
2.90219
2.04996
0.520107
0.483903
0.355449
0.301158
0.325177
0.313721
0.302653
0.300389
0.302757
0.311425
0.329485
0.34858
0.374475
0.400475
0.433519
0.470464
0.517835
0.567395
0.672756
3.10188
3.19602
3.15292
2.94018
2.19474
0.669305
0.257816
0.31709
0.0197942
0.0747706
0.109964
0.0923017
0.0847515
0.0781217
0.0674031
0.0564934
0.0412376
0.0282286
0.0282749
0.0509114
0.0752724
0.0859087
0.101132
0.0645018
0.0512535
3.10273
3.19772
3.15554
2.9476
2.21559
0.694659
0.258223
0.326228
0.0471896
0.0870921
0.118174
0.100299
0.092313
0.0861703
0.0768789
0.0689316
0.0591974
0.0539422
0.0570989
0.073408
0.0933275
0.103407
0.117241
0.0883121
0.0801738
3.10453
3.20131
3.16109
2.96332
2.26113
0.754361
0.254998
0.341043
0.077593
0.107194
0.134225
0.117523
0.109805
0.105292
0.0987847
0.0948537
0.0908065
0.0913124
0.0973725
0.110744
0.127193
0.13693
0.149058
0.128987
0.12486
3.10713
3.20657
3.16917
2.98594
2.32726
0.850181
0.249895
0.362786
0.107104
0.132335
0.15525
0.139333
0.131599
0.128209
0.123869
0.123449
0.123673
0.128251
0.137478
0.150227
0.165622
0.176045
0.18808
0.174814
0.173134
3.11036
3.21312
3.17911
3.01318
2.40806
0.980656
0.244249
0.38908
0.135886
0.15987
0.179868
0.164542
0.156687
0.154307
0.151268
0.153435
0.157229
0.165361
0.177197
0.19006
0.206137
0.21839
0.231781
0.22418
0.225
3.11402
3.22064
3.19039
3.04345
2.50018
1.14752
0.237624
0.417128
0.165435
0.188999
0.206454
0.191901
0.183784
0.18203
0.179905
0.184311
0.191365
0.202984
0.216658
0.23075
0.248356
0.263186
0.278696
0.276425
0.281894
3.11794
3.22877
3.20247
3.07525
2.60009
1.3448
0.235179
0.443856
0.198234
0.219301
0.234368
0.220767
0.212309
0.210949
0.209584
0.2157
0.225867
0.240729
0.256153
0.272404
0.292324
0.310563
0.329136
0.331861
0.34442
3.12196
3.23716
3.21477
3.10717
2.70411
1.56411
0.260506
0.465916
0.238216
0.249315
0.263256
0.250782
0.241718
0.240293
0.23986
0.247319
0.260788
0.277629
0.295824
0.314829
0.338101
0.36077
0.384569
0.394274
0.417522
3.12594
3.24543
3.22668
3.13765
2.80698
1.80326
0.35195
0.480721
0.289955
0.277616
0.293383
0.281889
0.271887
0.270007
0.27088
0.279317
0.295595
0.313427
0.335306
0.357678
0.385448
0.41416
0.44708
0.469292
0.51449
3.12971
3.25326
3.23772
3.16523
2.90225
2.05011
0.520235
0.483886
0.355493
0.301174
0.32517
0.31375
0.302669
0.300398
0.302768
0.311437
0.329495
0.348593
0.374489
0.40049
0.433535
0.470475
0.517844
0.567405
0.672789
3.10188
3.19602
3.15291
2.94016
2.1947
0.669247
0.257841
0.317089
0.019801
0.074786
0.109972
0.0923074
0.0847566
0.0781231
0.0674024
0.0564909
0.0412346
0.0282268
0.0282751
0.050914
0.0752756
0.0859118
0.101135
0.0645062
0.0512655
3.10273
3.19772
3.15554
2.94759
2.21555
0.694607
0.258235
0.326215
0.0471911
0.0870907
0.118167
0.100292
0.0923088
0.0861663
0.0768754
0.0689291
0.0591963
0.0539429
0.0570999
0.0734085
0.0933269
0.103405
0.117238
0.0883062
0.0801822
3.10452
3.20131
3.16109
2.96331
2.2611
0.754309
0.255015
0.341036
0.0775946
0.107195
0.134221
0.11752
0.109804
0.105289
0.0987824
0.094852
0.0908048
0.0913116
0.0973729
0.110744
0.127192
0.136928
0.149054
0.128977
0.124867
3.10713
3.20657
3.16917
2.98593
2.32722
0.850125
0.249912
0.362781
0.107106
0.132337
0.155249
0.139332
0.1316
0.12821
0.123869
0.123449
0.123672
0.12825
0.13748
0.150228
0.165623
0.176045
0.188078
0.174802
0.173136
3.11036
3.21312
3.17911
3.01317
2.40803
0.980601
0.244266
0.389078
0.135888
0.159872
0.17987
0.164543
0.156689
0.154309
0.15127
0.153436
0.157228
0.165361
0.177199
0.190062
0.206141
0.218392
0.231781
0.224168
0.224996
3.11402
3.22064
3.19039
3.04344
2.50016
1.14746
0.237639
0.417128
0.165438
0.189002
0.206457
0.191903
0.183785
0.182031
0.179905
0.184312
0.191365
0.202985
0.216661
0.230752
0.24836
0.26319
0.278697
0.276416
0.281886
3.11794
3.22877
3.20247
3.07525
2.60007
1.34475
0.235189
0.443857
0.198235
0.219304
0.234372
0.22077
0.212311
0.210949
0.209583
0.215699
0.225867
0.240729
0.256154
0.272405
0.292328
0.310567
0.329139
0.331854
0.344411
3.12196
3.23715
3.21477
3.10717
2.70409
1.56406
0.260503
0.46592
0.238217
0.249318
0.263259
0.250784
0.241719
0.240294
0.239858
0.247316
0.260786
0.277628
0.295824
0.314829
0.338104
0.360774
0.38457
0.394273
0.417513
3.12594
3.24543
3.22668
3.13764
2.80697
1.80322
0.351931
0.480727
0.289953
0.27762
0.293386
0.281891
0.271888
0.270007
0.270878
0.279315
0.295594
0.313425
0.335304
0.357676
0.385448
0.414166
0.447083
0.469295
0.514481
3.12971
3.25326
3.23772
3.16522
2.90224
2.05008
0.520205
0.483895
0.355489
0.301179
0.325174
0.313752
0.30267
0.300397
0.302764
0.311433
0.329493
0.34859
0.374486
0.400487
0.433533
0.470479
0.517852
0.567415
0.672779
3.10188
3.19602
3.15291
2.94015
2.19466
0.669194
0.257861
0.317077
0.0197966
0.0747753
0.109965
0.0923023
0.0847503
0.0781169
0.0673966
0.056486
0.0412307
0.0282243
0.028277
0.0509182
0.0752808
0.0859183
0.101142
0.0645112
0.0512663
3.10273
3.19772
3.15554
2.94758
2.21551
0.694544
0.258261
0.326204
0.0471904
0.0870874
0.118166
0.100294
0.0923084
0.0861641
0.0768725
0.0689265
0.0591942
0.0539413
0.0570997
0.0734097
0.0933294
0.103409
0.117242
0.0883071
0.0801796
3.10452
3.20131
3.16109
2.9633
2.26105
0.754235
0.255036
0.341021
0.077596
0.107196
0.134224
0.117528
0.109813
0.105295
0.0987843
0.0948523
0.0908043
0.0913103
0.0973713
0.110743
0.127192
0.136928
0.149054
0.128973
0.124861
3.10713
3.20657
3.16916
2.98592
2.32717
0.85004
0.249931
0.362762
0.107106
0.132337
0.155256
0.139341
0.131616
0.128224
0.123877
0.123452
0.123672
0.128249
0.137478
0.150226
0.16562
0.176042
0.188074
0.174795
0.173127
3.11036
3.21312
3.1791
3.01315
2.40798
0.980506
0.244281
0.389056
0.135885
0.159862
0.179877
0.16456
0.15671
0.154328
0.151281
0.153441
0.15723
0.16536
0.177197
0.190059
0.206136
0.218387
0.231774
0.224159
0.224984
3.11402
3.22064
3.19038
3.04342
2.5001
1.14736
0.23764
0.417108
0.165443
0.188996
0.206421
0.191938
0.183812
0.182051
0.179917
0.184317
0.191367
0.202984
0.216658
0.230747
0.248353
0.263182
0.278689
0.276406
0.281874
3.11794
3.22876
3.20246
3.07523
2.6
1.34462
0.235178
0.443845
0.198213
0.219248
0.234438
0.220802
0.212337
0.210969
0.209595
0.215704
0.225867
0.240728
0.25615
0.272398
0.292319
0.310558
0.329128
0.331843
0.344399
3.12196
3.23715
3.21476
3.10715
2.70403
1.56392
0.260476
0.465914
0.238178
0.249228
0.263257
0.250775
0.241727
0.240305
0.239864
0.247318
0.260784
0.277624
0.295817
0.31482
0.338093
0.360763
0.384558
0.394259
0.417497
3.12594
3.24542
3.22667
3.13763
2.80691
1.80308
0.35187
0.480725
0.289909
0.27755
0.293352
0.281856
0.271877
0.270005
0.270878
0.279314
0.295589
0.313419
0.335295
0.357665
0.385436
0.414153
0.447068
0.469277
0.514461
3.12971
3.25326
3.23771
3.16521
2.90219
2.04996
0.520107
0.483903
0.355449
0.301158
0.325177
0.313721
0.302653
0.300389
0.302757
0.311425
0.329485
0.34858
0.374475
0.400475
0.433519
0.470464
0.517835
0.567395
0.672756
3.10188
3.19602
3.15292
2.94017
2.19471
0.669243
0.257836
0.317073
0.0197865
0.0747564
0.109959
0.0922998
0.0847449
0.0781077
0.0673841
0.0564733
0.0412202
0.0282197
0.0282832
0.0509263
0.0752888
0.0859288
0.101156
0.0645225
0.051272
3.10273
3.19772
3.15554
2.94759
2.21554
0.694578
0.25827
0.326229
0.0472022
0.0871111
0.118191
0.100312
0.0923124
0.0861567
0.0768587
0.0689128
0.0591836
0.0539382
0.057106
0.0734183
0.0933395
0.103421
0.117258
0.0883198
0.0801887
3.10453
3.20131
3.16109
2.96331
2.26108
0.75427
0.255023
0.341031
0.077599
0.107213
0.134236
0.117517
0.109786
0.105262
0.0987574
0.0948346
0.0907958
0.0913124
0.0973792
0.110754
0.127204
0.136943
0.149072
0.128989
0.124875
3.10713
3.20657
3.16917
2.98593
2.32719
0.850069
0.249944
0.362777
0.107111
0.132339
0.155217
0.13927
0.131543
0.128161
0.123844
0.123438
0.12367
0.128255
0.137487
0.150239
0.165635
0.17606
0.188094
0.174814
0.173145
3.11036
3.21312
3.17911
3.01317
2.40802
0.980575
0.244269
0.389031
0.13587
0.159821
0.179766
0.164474
0.156669
0.154345
0.151296
0.153451
0.157235
0.165368
0.177209
0.190074
0.206153
0.218406
0.231796
0.22418
0.225005
3.11402
3.22064
3.19039
3.04344
2.50014
1.14744
0.237608
0.417075
0.165399
0.188939
0.20633
0.191893
0.183818
0.18209
0.179955
0.184348
0.191383
0.202998
0.216673
0.230764
0.248371
0.263203
0.278712
0.276429
0.281897
3.11794
3.22876
3.20246
3.07523
2.60002
1.34466
0.235134
0.443822
0.198167
0.21917
0.2344
0.220804
0.21235
0.210988
0.209619
0.215731
0.22589
0.240747
0.256166
0.272415
0.292337
0.310578
0.329152
0.331867
0.344424
3.12196
3.23715
3.21476
3.10715
2.70403
1.56392
0.26044
0.4659
0.238148
0.249131
0.263243
0.250796
0.241745
0.240317
0.239859
0.247325
0.260806
0.277649
0.295833
0.314836
0.338111
0.360783
0.384582
0.394283
0.417523
3.12594
3.24542
3.22667
3.13762
2.8069
1.80305
0.351847
0.48071
0.289894
0.277463
0.293335
0.281871
0.271889
0.270016
0.270875
0.279333
0.295607
0.313442
0.335308
0.357679
0.385452
0.414171
0.44709
0.4693
0.514486
3.12971
3.25326
3.23771
3.16521
2.90218
2.04992
0.520074
0.483891
0.355438
0.301107
0.325152
0.31373
0.302654
0.300378
0.302737
0.311428
0.329494
0.348597
0.374486
0.400486
0.433532
0.47048
0.517853
0.567412
0.672775
3.10187
3.196
3.15288
2.94006
2.19442
0.668925
0.25802
0.317048
0.0198108
0.0747287
0.109822
0.0921049
0.0845652
0.0779874
0.0673115
0.0564358
0.0411976
0.0282104
0.0282969
0.0509467
0.0753088
0.0859468
0.101171
0.0645292
0.0512716
3.10272
3.1977
3.15552
2.94753
2.21543
0.694441
0.257946
0.325838
0.0470038
0.0866857
0.11779
0.0999929
0.0921098
0.086075
0.0768438
0.068926
0.0592022
0.0539489
0.0571146
0.0734298
0.0933531
0.103433
0.117268
0.088321
0.0801855
3.10451
3.20129
3.16105
2.96321
2.26082
0.753952
0.255149
0.341053
0.077474
0.107214
0.134372
0.117695
0.109951
0.10536
0.0988341
0.0949022
0.0908457
0.0913286
0.097382
0.110757
0.127209
0.136947
0.149075
0.128984
0.124869
3.10712
3.20654
3.16913
2.98582
2.32689
0.849638
0.250016
0.36277
0.107056
0.132328
0.155362
0.139501
0.131795
0.128368
0.123973
0.123509
0.123707
0.128263
0.137482
0.150233
0.165631
0.176057
0.188091
0.174805
0.173136
3.11035
3.2131
3.17907
3.01307
2.40773
0.980107
0.244373
0.389041
0.135878
0.159847
0.179937
0.164645
0.156801
0.154393
0.15133
0.153468
0.157242
0.165361
0.177192
0.19006
0.206142
0.218398
0.231787
0.224167
0.224993
3.11401
3.22062
3.19036
3.04335
2.49989
1.14697
0.237747
0.417108
0.16547
0.189006
0.206472
0.191979
0.183841
0.182058
0.179918
0.184309
0.191353
0.202969
0.216644
0.230742
0.248355
0.263189
0.278699
0.276414
0.281882
3.11794
3.22875
3.20244
3.07517
2.59983
1.34426
0.235277
0.443869
0.198256
0.219287
0.234483
0.220814
0.212328
0.210938
0.20956
0.215668
0.225834
0.240698
0.256129
0.272388
0.292316
0.310561
0.329136
0.33185
0.344407
3.12196
3.23714
3.21475
3.10711
2.7039
1.56361
0.260499
0.465966
0.238222
0.249301
0.263302
0.250775
0.241709
0.240263
0.239811
0.247267
0.260742
0.277589
0.295792
0.314806
0.338088
0.360763
0.384563
0.394264
0.417505
3.12594
3.24542
3.22667
3.13761
2.80682
1.80286
0.351785
0.480801
0.289944
0.277653
0.293416
0.281865
0.271865
0.269967
0.270824
0.279261
0.295542
0.313381
0.335268
0.35765
0.385428
0.41415
0.447069
0.469279
0.514466
3.12971
3.25326
3.23771
3.1652
2.90215
2.04981
0.519976
0.483996
0.355474
0.30127
0.325266
0.313747
0.302655
0.300362
0.302718
0.311383
0.329438
0.348541
0.374446
0.40046
0.433511
0.47046
0.517834
0.56739
0.672754
3.10191
3.19606
3.15297
2.94029
2.19499
0.669581
0.258006
0.317335
0.021526
0.0752262
0.110262
0.0926119
0.0850391
0.0784386
0.0677912
0.0569796
0.0419102
0.0292136
0.0292891
0.05148
0.0756484
0.0862175
0.101397
0.0648906
0.0517835
3.10275
3.19776
3.1556
2.94771
2.21584
0.69495
0.258455
0.326454
0.0479515
0.0873616
0.118267
0.100418
0.0924683
0.0864053
0.0772025
0.0693268
0.05967
0.0544684
0.0576145
0.0738142
0.0936506
0.103688
0.117495
0.0886115
0.0805247
3.10455
3.20136
3.16115
2.96345
2.26146
0.754783
0.255008
0.341075
0.0779756
0.107227
0.134131
0.117561
0.109969
0.105566
0.0991107
0.0951919
0.0911472
0.0916444
0.0976894
0.111027
0.127445
0.137159
0.149271
0.129202
0.125101
3.10715
3.2066
3.16921
2.98604
2.3275
0.850526
0.249956
0.36292
0.107321
0.132478
0.155446
0.139578
0.131866
0.128487
0.124168
0.123749
0.123958
0.128509
0.137713
0.150445
0.165827
0.176237
0.188261
0.174985
0.17332
3.11037
3.21315
3.17914
3.01324
2.40822
0.980881
0.244339
0.389265
0.136063
0.160007
0.180146
0.164813
0.156921
0.154512
0.151502
0.153683
0.157471
0.165575
0.177384
0.190239
0.206308
0.218553
0.231937
0.224326
0.22515
3.11404
3.22066
3.19041
3.04349
2.5003
1.14771
0.237723
0.41727
0.165599
0.189094
0.206627
0.192083
0.183983
0.182241
0.180129
0.18453
0.191566
0.203155
0.216813
0.230901
0.248501
0.263325
0.278834
0.276557
0.282025
3.11796
3.22878
3.20249
3.07529
2.60019
1.34499
0.235287
0.443941
0.19837
0.219381
0.234429
0.220862
0.212484
0.211181
0.209833
0.215908
0.22604
0.240868
0.256284
0.272531
0.292446
0.310685
0.329259
0.331981
0.34454
3.12198
3.23717
3.21479
3.1072
2.70419
1.56428
0.260613
0.465964
0.238327
0.249386
0.263281
0.250859
0.241858
0.240481
0.240064
0.247498
0.26094
0.277748
0.295933
0.314933
0.338204
0.360876
0.384675
0.394384
0.41763
3.12595
3.24544
3.22669
3.13767
2.80703
1.80337
0.352048
0.480748
0.290049
0.277664
0.29341
0.28197
0.272011
0.270168
0.271065
0.279483
0.29573
0.313529
0.335398
0.357767
0.385532
0.414246
0.447168
0.469384
0.514583
3.12971
3.25327
3.23773
3.16524
2.90227
2.05016
0.520309
0.483909
0.355571
0.301207
0.325199
0.313828
0.302772
0.300527
0.3029
0.311557
0.32961
0.348682
0.374567
0.400567
0.433604
0.470542
0.517912
0.567473
0.672853
3.13316
3.26044
3.24758
3.18929
2.98377
2.2828
0.777053
0.475325
0.431068
0.319496
0.358218
0.346594
0.333971
0.332153
0.335615
0.343795
0.362492
0.383446
0.412501
0.442405
0.482214
0.528463
0.594495
0.684121
0.867562
3.13614
3.26671
3.25611
3.20997
3.05152
2.49032
1.11363
0.453342
0.504631
0.33484
0.387846
0.382021
0.366726
0.365506
0.368904
0.377143
0.394282
0.417266
0.448554
0.483661
0.528317
0.58318
0.663614
0.77393
0.971101
3.13852
3.27186
3.26317
3.22739
3.10749
2.67705
1.48693
0.419385
0.561729
0.356592
0.412262
0.419712
0.402227
0.400528
0.403059
0.411724
0.425005
0.449128
0.481204
0.521538
0.570013
0.629466
0.716269
0.825839
1.00404
3.14012
3.27576
3.26872
3.24162
3.15255
2.83566
1.85525
0.452543
0.594302
0.401765
0.435508
0.457651
0.44167
0.435644
0.437173
0.445697
0.454528
0.477812
0.509411
0.555602
0.608326
0.669643
0.755225
0.859713
1.00472
3.14079
3.27846
3.27299
3.25304
3.18755
2.96055
2.19133
0.657292
0.603249
0.475268
0.456839
0.491971
0.482955
0.471562
0.471739
0.477731
0.48667
0.504041
0.536721
0.583996
0.640625
0.702915
0.787252
0.883576
0.996618
3.14044
3.28016
3.27636
3.26211
3.21436
3.05372
2.47831
1.05669
0.589643
0.563487
0.472077
0.520461
0.522439
0.51066
0.506823
0.508431
0.520348
0.528966
0.560731
0.603896
0.6646
0.726554
0.806114
0.890652
0.976692
3.1393
3.28125
3.27908
3.26884
3.23375
3.12022
2.71627
1.56293
0.551939
0.633864
0.48831
0.547641
0.55808
0.552466
0.541033
0.540137
0.549992
0.554916
0.58034
0.620659
0.678118
0.738072
0.809273
0.883712
0.960866
3.13781
3.28223
3.28091
3.27319
3.24789
3.16878
2.89189
1.99872
0.583211
0.667994
0.52935
0.578349
0.590484
0.589813
0.577082
0.571335
0.57845
0.587705
0.598997
0.634858
0.683046
0.739837
0.806385
0.877648
0.951487
3.13668
3.28277
3.28178
3.27699
3.2599
3.20556
3.02023
2.35513
0.872854
0.691281
0.602847
0.603516
0.618155
0.621871
0.615154
0.603414
0.606468
0.616753
0.619101
0.645638
0.690312
0.7414
0.801947
0.873545
0.944918
3.13607
3.28268
3.28298
3.28016
3.26865
3.23209
3.11272
2.67495
1.40954
0.683601
0.679621
0.621829
0.64449
0.650547
0.655499
0.639683
0.633155
0.640347
0.648666
0.659653
0.697339
0.745262
0.799287
0.864235
0.936533
3.13575
3.28232
3.2842
3.28268
3.275
3.25038
3.17265
2.90011
2.0014
0.736138
0.730362
0.661708
0.677139
0.680239
0.693022
0.67807
0.66128
0.663961
0.674612
0.677915
0.704231
0.747684
0.79808
0.854311
0.922155
3.13555
3.28196
3.28528
3.28449
3.27958
3.26354
3.21362
3.0456
2.43793
1.04078
0.771501
0.719874
0.716633
0.712457
0.719029
0.716014
0.692761
0.686492
0.693649
0.705545
0.713943
0.749404
0.796605
0.848913
0.906311
3.13543
3.28171
3.28603
3.28575
3.28276
3.2727
3.24186
3.14247
2.78003
1.63072
0.810878
0.77653
0.762033
0.751488
0.741636
0.746806
0.723907
0.711682
0.715076
0.726219
0.734088
0.754139
0.795243
0.845432
0.898444
3.13538
3.28155
3.2866
3.28654
3.28486
3.27875
3.25994
3.20199
3.004
2.28873
1.02797
0.821339
0.809762
0.798135
0.775682
0.769696
0.755624
0.741895
0.737428
0.746344
0.762908
0.771246
0.79857
0.843344
0.894536
3.13536
3.28147
3.28692
3.28705
3.28623
3.28265
3.27149
3.23795
3.12949
2.73259
1.5548
0.887137
0.856281
0.845172
0.82156
0.797773
0.792002
0.773663
0.765588
0.769771
0.784481
0.804791
0.814834
0.847338
0.893188
3.13535
3.28143
3.28709
3.28737
3.28705
3.28501
3.27854
3.25961
3.20219
3.00512
2.27592
1.12813
0.905389
0.893186
0.873738
0.840326
0.826223
0.81293
0.798691
0.795376
0.809642
0.831605
0.854346
0.863919
0.897688
3.13534
3.28142
3.28717
3.28754
3.28751
3.28636
3.2826
3.27201
3.24173
3.14592
2.79545
1.72953
1.00053
0.94607
0.928065
0.897639
0.865142
0.857993
0.837326
0.826996
0.833443
0.857947
0.886398
0.910431
0.916769
3.13534
3.28141
3.2872
3.28761
3.28774
3.28705
3.28472
3.2787
3.26288
3.21699
3.06388
2.4856
1.3645
1.02103
0.985934
0.96024
0.921155
0.900844
0.885249
0.864418
0.862945
0.883168
0.911538
0.945227
0.969274
3.13534
3.28141
3.2872
3.28764
3.28782
3.28736
3.28562
3.28196
3.27357
3.25102
3.18341
2.94852
2.13061
1.23545
1.05655
1.0231
0.989747
0.948759
0.937037
0.91193
0.895871
0.910784
0.941681
0.973768
1.00844
3.13534
3.28142
3.2872
3.28764
3.28785
3.28745
3.28588
3.28341
3.2785
3.26658
3.23511
3.14205
2.81376
1.86487
1.19952
1.09132
1.05696
1.01271
0.985209
0.963625
0.940777
0.938669
0.969141
1.00466
1.03935
3.13534
3.28141
3.2872
3.28765
3.28785
3.28746
3.28592
3.28358
3.28037
3.27256
3.25585
3.21613
3.09738
2.66828
1.71284
1.20552
1.1224
1.08264
1.03389
1.0173
0.990662
0.979393
0.994398
1.03111
1.0675
3.13534
3.28142
3.2872
3.28765
3.28785
3.28746
3.28593
3.28355
3.28061
3.27396
3.26377
3.24332
3.19389
3.04832
2.54559
1.66071
1.22286
1.14597
1.09769
1.06346
1.04312
1.02499
1.02854
1.05352
1.0908
3.13534
3.28141
3.2872
3.28765
3.28785
3.28746
3.28593
3.28355
3.28062
3.27398
3.26468
3.25211
3.223
3.16115
3.00072
2.48494
1.67949
1.23734
1.15671
1.11096
1.09318
1.0734
1.06689
1.07886
1.11031
3.13534
3.28142
3.2872
3.28765
3.28785
3.28746
3.28593
3.28355
3.28062
3.27398
3.26463
3.25282
3.22814
3.19144
3.11819
2.94407
2.47727
1.74515
1.27398
1.15846
1.13124
1.1177
1.10531
1.10757
1.12618
3.13534
3.28141
3.2872
3.28765
3.28785
3.28746
3.28593
3.28355
3.28062
3.27399
3.26464
3.25286
3.2284
3.1939
3.13817
3.02925
2.82804
2.43819
1.86652
1.43686
1.2067
1.14793
1.13677
1.13207
1.14284
3.13534
3.28142
3.2872
3.28765
3.28785
3.28746
3.28593
3.28355
3.28062
3.27398
3.26463
3.25285
3.22842
3.19382
3.13894
3.03368
2.86732
2.57919
2.21045
1.87092
1.60619
1.36044
1.19384
1.14535
1.15425
3.13534
3.28141
3.2872
3.28764
3.28785
3.28746
3.28593
3.28355
3.28062
3.27398
3.26464
3.25285
3.22843
3.19384
3.13902
3.03393
2.86871
2.58599
2.2415
1.94618
1.77056
1.63597
1.4886
1.30599
1.18352
3.13534
3.28142
3.2872
3.28765
3.28785
3.28746
3.28593
3.28355
3.28062
3.27398
3.26463
3.25285
3.22842
3.19383
3.13898
3.03395
2.86865
2.58611
2.24295
1.95112
1.78664
1.69051
1.62041
1.54067
1.42898
3.13534
3.28141
3.2872
3.28764
3.28785
3.28746
3.28593
3.28355
3.28062
3.27398
3.26464
3.25285
3.22843
3.19384
3.13902
3.03394
2.86878
2.58634
2.24311
1.95148
1.78775
1.69565
1.63891
1.5961
1.55778
3.13534
3.28141
3.2872
3.28765
3.28785
3.28746
3.28593
3.28355
3.28062
3.27398
3.26463
3.25285
3.22842
3.19383
3.13899
3.03396
2.86868
2.58616
2.24304
1.95142
1.78774
1.69605
1.64071
1.60236
1.58031
3.13534
3.28141
3.2872
3.28765
3.28785
3.28746
3.28593
3.28355
3.28062
3.27399
3.26464
3.25286
3.22844
3.19385
3.13902
3.03408
2.86879
2.58635
2.24344
1.95193
1.78834
1.69684
1.64181
1.60406
1.5843
3.13534
3.28141
3.2872
3.28764
3.28785
3.28746
3.28593
3.28355
3.28062
3.27398
3.26464
3.25285
3.22842
3.19384
3.13901
3.03392
2.86874
2.58625
2.24301
1.9514
1.78771
1.69599
1.64073
1.60283
1.58339
3.13534
3.28141
3.2872
3.28764
3.28785
3.28746
3.28593
3.28355
3.28062
3.27399
3.26464
3.25286
3.22843
3.19385
3.13903
3.03393
2.86879
2.58633
2.24304
1.95141
1.78773
1.69602
1.64074
1.60285
1.58346
3.13534
3.28141
3.2872
3.28764
3.28785
3.28746
3.28593
3.28355
3.28062
3.27399
3.26464
3.25286
3.22843
3.19384
3.13903
3.03404
2.8688
2.58635
2.24334
1.95182
1.78827
1.69681
1.64185
1.60419
1.58487
3.13534
3.28141
3.2872
3.28764
3.28785
3.28746
3.28593
3.28355
3.28062
3.27399