/*--------------------------------*- C++ -*----------------------------------*\
| =========                 |                                                 |
| \\      /  F ield         | OpenFOAM: The Open Source CFD Toolbox           |
|  \\    /   O peration     | Version:  4.1                                   |
|   \\  /    A nd           | Web:      www.OpenFOAM.org                      |
|    \\/     M anipulation  |                                                 |
\*---------------------------------------------------------------------------*/
FoamFile
{
    version     2.0;
    format      ascii;
    class       volScalarField;
    location    "0.54";
    object      p;
}
// * * * * * * * * * * * * * * * * * * * * * * * * * * * * * * * * * * * * * //

dimensions      [1 -1 -2 0 0 0 0];

internalField   nonuniform List<scalar> 
52500
(
0.0911523
0.0692322
0.0719812
0.0847916
0.142332
0.438215
1.79156
1.47738
1.06949
1.11206
1.08322
0.986942
0.911459
0.836872
0.773027
0.720135
0.676553
0.640943
0.609936
0.584749
0.56993
0.558544
0.552366
0.554242
0.555168
0.0911324
0.0691065
0.0717975
0.0843098
0.140224
0.427317
1.77254
1.49119
1.07141
1.1119
1.08603
0.989495
0.913876
0.839133
0.775001
0.721762
0.677905
0.642048
0.610317
0.585488
0.570679
0.559914
0.554526
0.556864
0.558542
0.0910903
0.068842
0.0714117
0.0833011
0.135778
0.402898
1.72706
1.52418
1.07343
1.11019
1.08951
0.991898
0.91605
0.840971
0.776656
0.722918
0.678497
0.642006
0.609478
0.585166
0.570165
0.55969
0.555641
0.558366
0.561749
0.0910296
0.0684547
0.0708504
0.0818564
0.129575
0.370395
1.64688
1.57653
1.07616
1.10601
1.0941
0.995442
0.919425
0.844035
0.779061
0.724395
0.679198
0.641687
0.607917
0.584577
0.56906
0.559183
0.556396
0.559672
0.565818
0.090955
0.0679725
0.070159
0.0801213
0.122379
0.33416
1.52581
1.64911
1.08267
1.09746
1.09909
1.00032
0.923761
0.847863
0.782019
0.726195
0.679892
0.641031
0.606613
0.584022
0.568049
0.558368
0.556258
0.560349
0.569358
0.0908707
0.0674207
0.0693735
0.0781947
0.114716
0.296546
1.35294
1.74534
1.09696
1.0851
1.105
1.00685
0.928936
0.852639
0.785425
0.728302
0.680572
0.640079
0.606097
0.583046
0.566909
0.557001
0.555621
0.560103
0.570816
0.0907808
0.0668266
0.0685316
0.0761645
0.107033
0.259617
1.13905
1.85158
1.1213
1.06774
1.1115
1.01542
0.93485
0.858233
0.789492
0.730829
0.681378
0.639271
0.606004
0.58169
0.56517
0.554817
0.553675
0.558505
0.569897
0.0906888
0.0662166
0.0676715
0.0741186
0.0996144
0.223735
0.916067
1.93544
1.16155
1.04476
1.11726
1.02642
0.941436
0.865017
0.79426
0.7337
0.681877
0.639744
0.605899
0.580177
0.562533
0.551114
0.549399
0.553844
0.565288
0.0905981
0.0656165
0.0668316
0.0721539
0.0926961
0.189119
0.703712
1.97902
1.22493
1.01734
1.12115
1.03982
0.948488
0.8727
0.800214
0.736228
0.682816
0.6409
0.606158
0.578586
0.559096
0.545574
0.541006
0.543205
0.551011
0.090513
0.0650471
0.0660443
0.0703685
0.0865329
0.158485
0.532798
1.95094
1.32025
0.996944
1.1161
1.05571
0.956182
0.881215
0.806387
0.739047
0.684662
0.642174
0.606348
0.577026
0.555076
0.538013
0.527834
0.521404
0.515644
0.0911533
0.0692365
0.0719872
0.0848058
0.14239
0.438488
1.79177
1.47692
1.06942
1.11206
1.08319
0.986891
0.911406
0.836834
0.772999
0.720114
0.67654
0.640938
0.60994
0.584759
0.569938
0.55855
0.552364
0.55423
0.555146
0.0911332
0.0691099
0.071802
0.0843198
0.14026
0.427442
1.77296
1.49078
1.07122
1.11202
1.08602
0.989449
0.913813
0.839083
0.774965
0.721737
0.677887
0.642038
0.610318
0.585492
0.570684
0.559917
0.554522
0.556853
0.558525
0.0910912
0.0688459
0.0714169
0.083313
0.135825
0.403119
1.72734
1.52375
1.07332
1.11026
1.08945
0.991821
0.915978
0.840923
0.77662
0.72289
0.678474
0.641994
0.609474
0.585165
0.570165
0.559689
0.555636
0.558357
0.561737
0.0910305
0.0684586
0.0708557
0.0818689
0.129624
0.370622
1.64737
1.57595
1.07613
1.10606
1.094
0.995329
0.919318
0.843952
0.779009
0.724362
0.67917
0.641668
0.607904
0.584569
0.569052
0.559176
0.556389
0.559667
0.565816
0.0909558
0.0679761
0.0701639
0.0801327
0.122423
0.334364
1.52648
1.6485
1.08263
1.09754
1.09895
1.00016
0.923642
0.847771
0.781954
0.726148
0.679857
0.641005
0.606588
0.584005
0.568035
0.558354
0.556249
0.560346
0.569364
0.0908714
0.0674237
0.0693778
0.0782047
0.114754
0.296721
1.35375
1.7447
1.09689
1.08524
1.10491
1.0067
0.92883
0.852563
0.785376
0.72826
0.680529
0.640045
0.60606
0.58302
0.566888
0.55698
0.555609
0.560098
0.570823
0.0907814
0.0668291
0.068535
0.0761727
0.107063
0.259762
1.1399
1.85094
1.12116
1.06787
1.11137
1.01528
0.934759
0.858152
0.789439
0.730786
0.681335
0.639225
0.605963
0.581657
0.565139
0.554789
0.553658
0.558499
0.569906
0.0906893
0.0662185
0.0676741
0.0741248
0.0996372
0.223854
0.916805
1.93504
1.16133
1.04489
1.11721
1.02632
0.941356
0.864928
0.794195
0.733644
0.681823
0.639695
0.605852
0.580137
0.562494
0.551079
0.549377
0.55384
0.565301
0.0905985
0.0656178
0.0668335
0.0721583
0.0927125
0.189202
0.704231
1.97895
1.22468
1.01738
1.12117
1.03976
0.948443
0.87264
0.800164
0.736173
0.682762
0.64085
0.60611
0.578539
0.55905
0.545532
0.540978
0.543202
0.551027
0.0905134
0.065048
0.0660455
0.0703714
0.0865435
0.15854
0.53311
1.95115
1.31996
0.996956
1.11615
1.0557
0.956166
0.881182
0.806345
0.738995
0.68461
0.642124
0.6063
0.576977
0.555025
0.537967
0.527797
0.521398
0.51566
0.091153
0.0692346
0.0719844
0.084799
0.142362
0.438351
1.79167
1.47716
1.06955
1.11204
1.08315
0.986892
0.911412
0.836837
0.772992
0.7201
0.676517
0.640907
0.609908
0.584726
0.569915
0.558539
0.552368
0.55425
0.555181
0.091133
0.0691085
0.0718001
0.0843158
0.140246
0.427415
1.77271
1.49098
1.07139
1.11191
1.08597
0.989446
0.913828
0.839095
0.774962
0.721724
0.677866
0.64201
0.610287
0.585462
0.57066
0.559904
0.554526
0.556873
0.55856
0.0910908
0.0688439
0.0714142
0.0833068
0.1358
0.402998
1.72722
1.52398
1.07336
1.1102
1.08946
0.991838
0.915989
0.840922
0.776614
0.722879
0.678457
0.641969
0.609445
0.585135
0.570142
0.559676
0.55564
0.558377
0.561772
0.0910301
0.0684565
0.0708528
0.081862
0.129596
0.370494
1.6471
1.5763
1.07607
1.10602
1.09406
0.995381
0.919363
0.843986
0.779016
0.724354
0.679155
0.641646
0.607881
0.584543
0.56903
0.559164
0.556393
0.559687
0.565852
0.0909555
0.0679742
0.0701612
0.0801264
0.122398
0.334248
1.5261
1.64888
1.08256
1.09748
1.09906
1.00024
0.923691
0.847793
0.781962
0.726143
0.679845
0.640987
0.606569
0.583981
0.568013
0.558342
0.556252
0.560366
0.5694
0.0908712
0.0674223
0.0693757
0.0781995
0.114734
0.296625
1.3533
1.74509
1.09684
1.08513
1.10503
1.00678
0.928866
0.85258
0.785374
0.728253
0.68052
0.640031
0.606044
0.582998
0.566866
0.556969
0.555613
0.560118
0.570858
0.0907813
0.0668281
0.0685336
0.076169
0.107049
0.25969
1.13947
1.85128
1.12117
1.06776
1.11149
1.01536
0.93479
0.858171
0.789437
0.730777
0.681326
0.639215
0.605948
0.581637
0.56512
0.55478
0.553663
0.558519
0.56994
0.0906893
0.0662179
0.0676733
0.0741226
0.0996284
0.223804
0.916482
1.93521
1.1614
1.04479
1.11729
1.02636
0.941378
0.864946
0.794198
0.733644
0.681823
0.639687
0.605838
0.580119
0.562479
0.551072
0.549382
0.553859
0.565334
0.0905985
0.0656176
0.0668331
0.0721572
0.0927076
0.189174
0.704043
1.97894
1.22475
1.01734
1.12118
1.03977
0.948445
0.872638
0.800157
0.736172
0.682763
0.640844
0.606096
0.578524
0.559039
0.545528
0.540983
0.54322
0.551057
0.0905134
0.065048
0.0660454
0.070371
0.0865415
0.158527
0.533024
1.95104
1.32002
0.996938
1.1161
1.05566
0.956146
0.881164
0.80634
0.738997
0.684612
0.642117
0.606286
0.576964
0.555018
0.537966
0.527803
0.521414
0.515685
0.091153
0.0692348
0.0719848
0.0848
0.142366
0.438372
1.79169
1.47712
1.06956
1.11205
1.08316
0.986893
0.911411
0.836837
0.772994
0.720105
0.676525
0.640917
0.609922
0.584739
0.569931
0.55856
0.552397
0.554289
0.555231
0.091133
0.0691087
0.0718004
0.0843165
0.140249
0.427428
1.77274
1.49096
1.0714
1.11193
1.08598
0.989443
0.913822
0.83909
0.774962
0.721727
0.677871
0.642017
0.610298
0.585473
0.570675
0.559925
0.554555
0.556913
0.558611
0.0910909
0.0688441
0.0714145
0.0833074
0.135803
0.403011
1.72725
1.52397
1.07336
1.11022
1.08946
0.991833
0.915985
0.84092
0.776613
0.722879
0.678458
0.641975
0.609454
0.585145
0.570155
0.559696
0.55567
0.558417
0.561825
0.0910302
0.0684567
0.0708531
0.0818625
0.129598
0.370503
1.64713
1.57628
1.07608
1.10605
1.09405
0.995369
0.919355
0.843972
0.779012
0.724353
0.679155
0.641649
0.607886
0.58455
0.569042
0.559183
0.556423
0.559728
0.565905
0.0909556
0.0679745
0.0701616
0.0801272
0.122402
0.334263
1.52615
1.64883
1.08259
1.09749
1.09902
1.00022
0.923682
0.847792
0.781958
0.726139
0.679841
0.640985
0.606569
0.583987
0.568023
0.55836
0.556281
0.560407
0.569454
0.0908712
0.0674225
0.069376
0.0782002
0.114737
0.296639
1.35337
1.74501
1.09688
1.08515
1.10499
1.00677
0.928865
0.852581
0.785373
0.728249
0.680511
0.640025
0.606041
0.583
0.566874
0.556986
0.555641
0.560158
0.570911
0.0907813
0.0668281
0.0685337
0.0761694
0.10705
0.259698
1.13951
1.85121
1.12118
1.06777
1.11146
1.01535
0.934782
0.858163
0.789433
0.73077
0.681316
0.639204
0.605941
0.581636
0.565125
0.554794
0.553689
0.558559
0.569993
0.0906892
0.0662179
0.0676732
0.0741225
0.0996283
0.223805
0.916486
1.93518
1.16138
1.04478
1.11727
1.02637
0.941369
0.864936
0.794184
0.733628
0.681809
0.639676
0.605829
0.580114
0.562481
0.551083
0.549406
0.553897
0.565385
0.0905985
0.0656175
0.066833
0.0721569
0.0927067
0.189171
0.704024
1.97894
1.22474
1.01728
1.12119
1.03979
0.948441
0.872638
0.800154
0.736159
0.682748
0.64083
0.606085
0.578517
0.559038
0.545535
0.541002
0.543254
0.551104
0.0905133
0.0650478
0.0660453
0.0703707
0.0865405
0.158522
0.533
1.95104
1.32002
0.996881
1.11613
1.05571
0.956154
0.88117
0.806335
0.738987
0.684595
0.642106
0.606275
0.576956
0.555014
0.537971
0.527817
0.52144
0.515724
0.091153
0.0692345
0.0719843
0.0847984
0.142358
0.438322
1.79157
1.47715
1.06956
1.11206
1.08317
0.986908
0.911422
0.836845
0.772998
0.720105
0.676523
0.640914
0.609918
0.584731
0.569921
0.558551
0.552389
0.55428
0.555219
0.091133
0.0691084
0.0717999
0.084315
0.140241
0.427375
1.77262
1.49099
1.0714
1.11194
1.086
0.989462
0.913837
0.839099
0.774966
0.721728
0.67787
0.642015
0.610294
0.585466
0.570666
0.559917
0.554546
0.556903
0.558597
0.0910909
0.0688438
0.071414
0.0833058
0.135795
0.402962
1.72711
1.52402
1.07338
1.11023
1.08948
0.991855
0.916007
0.840933
0.776619
0.722881
0.678457
0.641973
0.609451
0.585138
0.570147
0.559689
0.555661
0.558407
0.561809
0.0910301
0.0684563
0.0708525
0.0818609
0.129591
0.370459
1.64698
1.57634
1.0761
1.10604
1.09406
0.995386
0.919379
0.843991
0.779021
0.724356
0.679155
0.641647
0.607883
0.584543
0.569035
0.559176
0.556413
0.559716
0.565889
0.0909555
0.0679741
0.070161
0.0801256
0.122394
0.334225
1.52598
1.6489
1.08262
1.09746
1.09903
1.00024
0.923707
0.847815
0.781972
0.726146
0.679843
0.640985
0.606566
0.583981
0.568018
0.558354
0.556272
0.560393
0.569436
0.0908712
0.067422
0.0693753
0.0781987
0.11473
0.296606
1.35319
1.74508
1.09691
1.0851
1.10493
1.0068
0.928896
0.852608
0.785392
0.728259
0.680516
0.640027
0.606039
0.582996
0.56687
0.556979
0.555631
0.560145
0.570893
0.0907812
0.0668277
0.068533
0.0761677
0.107044
0.259667
1.13932
1.85131
1.1212
1.06772
1.11142
1.01536
0.934804
0.858194
0.789456
0.730784
0.681324
0.639207
0.605941
0.581634
0.565123
0.554789
0.55368
0.558546
0.569975
0.0906892
0.0662174
0.0676725
0.0741209
0.0996225
0.223775
0.916296
1.93528
1.16141
1.04471
1.1172
1.02637
0.941385
0.86497
0.794211
0.733643
0.681818
0.63968
0.60583
0.580114
0.562479
0.551077
0.549396
0.553882
0.565368
0.0905984
0.0656171
0.0668324
0.0721556
0.092702
0.189148
0.703879
1.97898
1.22479
1.01722
1.12113
1.03979
0.948447
0.87267
0.800181
0.736176
0.682757
0.640835
0.606087
0.578517
0.559036
0.545532
0.540993
0.543239
0.551088
0.0905133
0.0650476
0.0660449
0.0703697
0.086537
0.158505
0.532904
1.951
1.3201
0.996829
1.11609
1.05572
0.956159
0.8812
0.80636
0.739001
0.684606
0.64211
0.606278
0.576956
0.555012
0.537966
0.527811
0.521427
0.515712
0.091153
0.0692348
0.0719846
0.0847994
0.142362
0.438348
1.79162
1.47713
1.06956
1.11205
1.08316
0.986895
0.911408
0.836832
0.772988
0.720098
0.676519
0.640911
0.609917
0.584734
0.569926
0.558556
0.552396
0.55429
0.555234
0.091133
0.0691086
0.0718002
0.0843158
0.140245
0.427398
1.77267
1.49097
1.0714
1.11194
1.08599
0.989449
0.913823
0.839087
0.774956
0.721721
0.677865
0.642012
0.610293
0.585469
0.570671
0.559922
0.554554
0.556913
0.558613
0.0910909
0.068844
0.0714143
0.0833066
0.135798
0.402982
1.72716
1.52399
1.07338
1.11023
1.08947
0.991843
0.915993
0.840921
0.776609
0.722874
0.678453
0.64197
0.60945
0.585141
0.570152
0.559694
0.555668
0.558417
0.561825
0.0910302
0.0684565
0.0708528
0.0818616
0.129594
0.370476
1.64704
1.57632
1.0761
1.10604
1.09405
0.995374
0.919366
0.843979
0.779012
0.724349
0.67915
0.641644
0.607882
0.584547
0.56904
0.559181
0.556421
0.559726
0.565903
0.0909556
0.0679742
0.0701612
0.0801262
0.122397
0.334239
1.52604
1.64887
1.08262
1.09746
1.09902
1.00023
0.923695
0.847804
0.781963
0.726138
0.679838
0.640982
0.606566
0.583985
0.568021
0.558359
0.556279
0.560404
0.56945
0.0908712
0.0674222
0.0693755
0.0781992
0.114732
0.296617
1.35325
1.74506
1.09691
1.0851
1.10492
1.00679
0.928885
0.852597
0.785382
0.728251
0.68051
0.640024
0.60604
0.582999
0.566873
0.556985
0.555639
0.560156
0.570906
0.0907812
0.0668278
0.0685332
0.0761681
0.107046
0.259676
1.13938
1.85129
1.1212
1.06773
1.11141
1.01535
0.934794
0.858184
0.789447
0.730776
0.681318
0.639205
0.605942
0.581636
0.565125
0.554793
0.553688
0.558556
0.569986
0.0906892
0.0662175
0.0676727
0.0741213
0.0996238
0.223782
0.916347
1.93527
1.1614
1.04472
1.1172
1.02636
0.941376
0.86496
0.794202
0.733636
0.681812
0.639678
0.605831
0.580116
0.562482
0.551083
0.549405
0.553893
0.565377
0.0905984
0.0656172
0.0668325
0.0721559
0.092703
0.189153
0.703915
1.97899
1.22478
1.01723
1.12113
1.03978
0.94844
0.872662
0.800172
0.736168
0.682752
0.640833
0.606088
0.578519
0.559039
0.545536
0.541001
0.543249
0.551094
0.0905133
0.0650476
0.066045
0.0703699
0.0865377
0.158509
0.532927
1.95101
1.32009
0.996834
1.11608
1.05571
0.956153
0.881192
0.806352
0.738995
0.684601
0.642109
0.606279
0.576958
0.555016
0.537971
0.527817
0.521435
0.515714
0.091153
0.0692348
0.0719848
0.0848
0.142366
0.438372
1.79169
1.47712
1.06956
1.11205
1.08316
0.986893
0.91141
0.836837
0.772994
0.720105
0.676524
0.640917
0.609922
0.584739
0.569931
0.55856
0.552397
0.554289
0.555232
0.091133
0.0691087
0.0718004
0.0843165
0.140249
0.427428
1.77274
1.49096
1.0714
1.11193
1.08598
0.989443
0.913822
0.83909
0.774962
0.721727
0.677871
0.642017
0.610298
0.585473
0.570675
0.559925
0.554555
0.556913
0.558611
0.0910909
0.0688441
0.0714145
0.0833074
0.135803
0.403012
1.72725
1.52397
1.07336
1.11022
1.08946
0.991833
0.915985
0.84092
0.776612
0.722879
0.678458
0.641975
0.609454
0.585145
0.570155
0.559696
0.55567
0.558417
0.561825
0.0910302
0.0684567
0.0708531
0.0818625
0.129598
0.370503
1.64713
1.57628
1.07608
1.10605
1.09405
0.995369
0.919354
0.843972
0.779012
0.724353
0.679155
0.641648
0.607886
0.58455
0.569042
0.559183
0.556423
0.559728
0.565906
0.0909556
0.0679745
0.0701616
0.0801272
0.122402
0.334263
1.52615
1.64883
1.08259
1.09749
1.09902
1.00022
0.923682
0.847792
0.781958
0.726139
0.679841
0.640985
0.606569
0.583987
0.568023
0.558361
0.556281
0.560407
0.569454
0.0908712
0.0674225
0.069376
0.0782002
0.114737
0.296639
1.35337
1.74501
1.09688
1.08515
1.10499
1.00677
0.928865
0.852581
0.785373
0.728249
0.680511
0.640025
0.606041
0.583
0.566874
0.556986
0.555641
0.560159
0.570911
0.0907813
0.0668281
0.0685337
0.0761694
0.107051
0.259698
1.13951
1.85121
1.12118
1.06777
1.11146
1.01535
0.934782
0.858163
0.789433
0.73077
0.681316
0.639204
0.605941
0.581636
0.565125
0.554794
0.553689
0.558559
0.569993
0.0906892
0.0662179
0.0676732
0.0741225
0.0996283
0.223805
0.916486
1.93518
1.16138
1.04478
1.11727
1.02637
0.941369
0.864936
0.794184
0.733628
0.681809
0.639676
0.605829
0.580114
0.562481
0.551083
0.549406
0.553897
0.565385
0.0905985
0.0656175
0.066833
0.0721569
0.0927068
0.189171
0.704024
1.97894
1.22474
1.01728
1.12119
1.03979
0.948441
0.872638
0.800153
0.736159
0.682747
0.64083
0.606085
0.578517
0.559038
0.545535
0.541002
0.543254
0.551104
0.0905133
0.0650478
0.0660453
0.0703707
0.0865405
0.158522
0.533
1.95104
1.32002
0.996881
1.11613
1.05571
0.956154
0.88117
0.806335
0.738987
0.684595
0.642106
0.606275
0.576956
0.555014
0.537971
0.527817
0.52144
0.515725
0.091153
0.0692346
0.0719844
0.084799
0.142362
0.438351
1.79167
1.47716
1.06955
1.11204
1.08315
0.986892
0.911412
0.836837
0.772992
0.7201
0.676517
0.640907
0.609908
0.584726
0.569915
0.558539
0.552368
0.55425
0.555181
0.091133
0.0691085
0.0718001
0.0843158
0.140246
0.427415
1.77271
1.49098
1.07139
1.11191
1.08597
0.989446
0.913828
0.839095
0.774962
0.721724
0.677866
0.64201
0.610287
0.585462
0.57066
0.559905
0.554526
0.556873
0.55856
0.0910908
0.0688439
0.0714142
0.0833068
0.1358
0.402998
1.72722
1.52398
1.07336
1.1102
1.08946
0.991838
0.915989
0.840922
0.776614
0.722879
0.678457
0.641969
0.609446
0.585135
0.570142
0.559676
0.55564
0.558377
0.561772
0.0910301
0.0684565
0.0708528
0.081862
0.129596
0.370494
1.6471
1.5763
1.07607
1.10602
1.09406
0.995381
0.919363
0.843986
0.779016
0.724354
0.679155
0.641646
0.607881
0.584543
0.56903
0.559164
0.556393
0.559687
0.565852
0.0909555
0.0679742
0.0701612
0.0801264
0.122398
0.334248
1.5261
1.64888
1.08256
1.09748
1.09906
1.00024
0.923691
0.847793
0.781962
0.726143
0.679845
0.640987
0.606569
0.583981
0.568013
0.558343
0.556252
0.560366
0.5694
0.0908712
0.0674223
0.0693757
0.0781995
0.114734
0.296625
1.3533
1.74509
1.09684
1.08513
1.10503
1.00678
0.928866
0.85258
0.785374
0.728253
0.68052
0.640031
0.606045
0.582998
0.566866
0.556969
0.555613
0.560118
0.570858
0.0907813
0.0668281
0.0685336
0.076169
0.107049
0.25969
1.13947
1.85128
1.12117
1.06776
1.11149
1.01536
0.93479
0.858171
0.789437
0.730777
0.681326
0.639215
0.605948
0.581637
0.56512
0.55478
0.553663
0.558519
0.56994
0.0906893
0.0662179
0.0676733
0.0741226
0.0996284
0.223804
0.916482
1.93521
1.1614
1.04479
1.11729
1.02636
0.941378
0.864946
0.794198
0.733644
0.681823
0.639687
0.605838
0.580119
0.562479
0.551072
0.549382
0.553859
0.565334
0.0905985
0.0656176
0.0668331
0.0721572
0.0927076
0.189174
0.704043
1.97894
1.22475
1.01734
1.12118
1.03977
0.948445
0.872638
0.800157
0.736172
0.682763
0.640844
0.606096
0.578524
0.559039
0.545528
0.540983
0.54322
0.551057
0.0905134
0.065048
0.0660454
0.070371
0.0865415
0.158527
0.533024
1.95104
1.32002
0.996938
1.1161
1.05566
0.956146
0.881164
0.80634
0.738997
0.684612
0.642117
0.606286
0.576964
0.555018
0.537966
0.527803
0.521414
0.515685
0.0911533
0.0692365
0.0719871
0.0848057
0.14239
0.438487
1.79177
1.47692
1.06942
1.11206
1.08319
0.986892
0.911407
0.836834
0.772999
0.720114
0.67654
0.640938
0.60994
0.584759
0.569938
0.55855
0.552364
0.554229
0.555145
0.0911332
0.0691098
0.071802
0.0843198
0.14026
0.427441
1.77296
1.49079
1.07123
1.11202
1.08602
0.98945
0.913813
0.839083
0.774966
0.721737
0.677887
0.642039
0.610318
0.585492
0.570684
0.559916
0.554521
0.556853
0.558524
0.0910912
0.0688459
0.0714169
0.083313
0.135824
0.403118
1.72734
1.52375
1.07332
1.11026
1.08945
0.991822
0.915978
0.840923
0.77662
0.72289
0.678474
0.641994
0.609474
0.585165
0.570165
0.559688
0.555636
0.558357
0.561736
0.0910305
0.0684586
0.0708557
0.0818689
0.129624
0.370622
1.64737
1.57595
1.07613
1.10606
1.094
0.995329
0.919318
0.843952
0.779009
0.724362
0.67917
0.641668
0.607904
0.584568
0.569052
0.559176
0.556389
0.559667
0.565815
0.0909558
0.0679761
0.0701639
0.0801327
0.122423
0.334363
1.52648
1.6485
1.08263
1.09754
1.09895
1.00016
0.923642
0.847771
0.781954
0.726148
0.679857
0.641005
0.606587
0.584005
0.568035
0.558354
0.556248
0.560346
0.569363
0.0908714
0.0674237
0.0693778
0.0782047
0.114754
0.29672
1.35375
1.7447
1.09689
1.08524
1.10491
1.0067
0.92883
0.852563
0.785376
0.72826
0.680529
0.640045
0.60606
0.583019
0.566887
0.55698
0.555609
0.560098
0.570823
0.0907814
0.0668291
0.068535
0.0761727
0.107063
0.259762
1.1399
1.85094
1.12116
1.06787
1.11137
1.01528
0.934759
0.858152
0.789439
0.730785
0.681335
0.639225
0.605963
0.581657
0.565139
0.554789
0.553658
0.558499
0.569905
0.0906893
0.0662185
0.0676741
0.0741248
0.0996372
0.223853
0.916805
1.93504
1.16133
1.04489
1.11721
1.02632
0.941356
0.864928
0.794195
0.733644
0.681823
0.639695
0.605852
0.580137
0.562494
0.551079
0.549376
0.55384
0.5653
0.0905985
0.0656178
0.0668335
0.0721583
0.0927125
0.189202
0.704231
1.97895
1.22468
1.01738
1.12117
1.03976
0.948442
0.87264
0.800164
0.736173
0.682762
0.640849
0.60611
0.578539
0.55905
0.545532
0.540978
0.543201
0.551027
0.0905134
0.065048
0.0660455
0.0703714
0.0865435
0.15854
0.53311
1.95115
1.31996
0.996955
1.11615
1.0557
0.956166
0.881182
0.806345
0.738995
0.684609
0.642124
0.6063
0.576976
0.555025
0.537967
0.527796
0.521397
0.51566
0.0911523
0.0692322
0.0719811
0.0847915
0.142333
0.438228
1.79152
1.47741
1.06963
1.11204
1.08326
0.98698
0.911485
0.836893
0.773046
0.720155
0.676573
0.640963
0.609955
0.584759
0.569928
0.558535
0.552342
0.554202
0.555104
0.0911323
0.069106
0.0717967
0.084308
0.140216
0.42728
1.77254
1.49127
1.07141
1.11193
1.08608
0.989525
0.9139
0.839149
0.775015
0.721777
0.67792
0.642065
0.610332
0.585495
0.570677
0.559904
0.554499
0.556823
0.558477
0.0910901
0.0688412
0.0714105
0.0832979
0.135764
0.402824
1.72704
1.52436
1.07328
1.11027
1.08958
0.991914
0.916062
0.840975
0.776663
0.722928
0.678506
0.642017
0.609489
0.585169
0.570162
0.559679
0.555615
0.558326
0.561687
0.0910296
0.0684544
0.0708498
0.0818549
0.129568
0.370365
1.64683
1.57668
1.07609
1.10605
1.09413
0.995445
0.919434
0.844034
0.779068
0.724402
0.679203
0.641692
0.60792
0.584575
0.569054
0.55917
0.55637
0.559633
0.565762
0.0909551
0.0679728
0.0701593
0.0801218
0.122381
0.334169
1.52584
1.64913
1.08274
1.09745
1.09906
1.00032
0.923768
0.847872
0.782022
0.726193
0.679889
0.641029
0.606607
0.584015
0.568041
0.558352
0.556232
0.560313
0.569311
0.0908708
0.0674211
0.0693741
0.078196
0.114721
0.296568
1.35305
1.74525
1.09706
1.08512
1.10494
1.00686
0.92894
0.852657
0.785451
0.728312
0.680565
0.64007
0.606083
0.583035
0.566899
0.556982
0.555595
0.560067
0.57077
0.0907808
0.0668269
0.068532
0.0761656
0.107037
0.259636
1.13916
1.85146
1.12133
1.06778
1.11143
1.01538
0.934826
0.858217
0.789488
0.730825
0.681372
0.639255
0.605989
0.581678
0.565156
0.554797
0.553648
0.55847
0.569852
0.0906888
0.0662168
0.0676718
0.0741194
0.0996173
0.22375
0.916161
1.9354
1.16153
1.04478
1.11721
1.02642
0.941411
0.864994
0.794242
0.733685
0.681865
0.639729
0.605881
0.580163
0.562518
0.551095
0.549374
0.553813
0.565249
0.0905982
0.0656168
0.066832
0.0721547
0.092699
0.189134
0.703801
1.97906
1.22489
1.01727
1.12114
1.03982
0.948477
0.872691
0.800205
0.736213
0.6828
0.640883
0.606139
0.578571
0.559082
0.545556
0.540986
0.54318
0.55098
0.0905131
0.0650474
0.0660447
0.0703694
0.0865359
0.158499
0.532877
1.95101
1.32015
0.996854
1.11612
1.05575
0.956197
0.881219
0.806385
0.73904
0.684646
0.642158
0.60633
0.57701
0.555062
0.537998
0.527816
0.521387
0.515625
0.0904368
0.0645224
0.0653283
0.0688026
0.0814167
0.134066
0.400976
1.77296
1.45721
0.991744
1.0966
1.07261
0.965104
0.889567
0.812657
0.742657
0.687633
0.644131
0.606883
0.57574
0.550598
0.528814
0.509509
0.48087
0.413327
0.0903734
0.0640539
0.0646911
0.0674412
0.0771999
0.115653
0.308843
1.42447
1.62416
1.0105
1.06068
1.08587
0.976362
0.896591
0.819496
0.746523
0.691299
0.646219
0.607919
0.575037
0.546551
0.519534
0.490701
0.448487
0.369736
0.0903273
0.0636527
0.0641438
0.0662803
0.073699
0.101554
0.238689
1.02371
1.79412
1.07138
1.02121
1.0918
0.988658
0.90274
0.826143
0.751078
0.695857
0.649231
0.609942
0.57531
0.544111
0.512937
0.478236
0.431162
0.368148
0.0903043
0.0633238
0.0636935
0.0653262
0.0708747
0.0908833
0.184095
0.679674
1.88593
1.17499
0.984812
1.09004
1.00388
0.908766
0.833057
0.757745
0.701582
0.65339
0.613446
0.576582
0.544261
0.511176
0.474279
0.430286
0.371351
0.0903087
0.0630648
0.0633362
0.0645679
0.0686865
0.0829434
0.14407
0.459811
1.86636
1.32947
0.953863
1.07691
1.01785
0.915661
0.841374
0.768073
0.709186
0.659492
0.617934
0.579923
0.545804
0.512163
0.47519
0.432538
0.380351
0.0903413
0.0628718
0.0630643
0.0639797
0.0670014
0.0770968
0.116979
0.326523
1.60635
1.509
0.947949
1.03272
1.02217
0.927249
0.850685
0.780423
0.718371
0.667912
0.624446
0.586802
0.550352
0.516101
0.479506
0.439827
0.398974
0.0903913
0.0627376
0.0628718
0.0635474
0.0657581
0.0728731
0.0988846
0.226873
0.97596
1.6587
0.981404
0.997946
1.02397
0.945864
0.861485
0.793234
0.730914
0.676115
0.633114
0.595894
0.560198
0.525558
0.490237
0.455647
0.421286
0.0904385
0.0626655
0.0627602
0.0632367
0.0647902
0.0697414
0.0871966
0.165964
0.570313
1.7134
1.10428
0.969972
1.02363
0.9646
0.874074
0.80715
0.745818
0.687817
0.644418
0.606967
0.574565
0.542202
0.510131
0.477262
0.443572
0.0904595
0.0627072
0.0626331
0.0628999
0.0639575
0.0673888
0.079121
0.12805
0.385248
1.63732
1.28136
0.953494
1.0093
0.97018
0.89272
0.822263
0.760503
0.701959
0.654736
0.618935
0.588165
0.558765
0.528981
0.497664
0.465227
0.090464
0.0627891
0.062451
0.0626377
0.0633656
0.0656906
0.0732594
0.10197
0.253515
1.23904
1.4163
0.962687
0.984867
0.971665
0.915607
0.83678
0.775472
0.718943
0.669301
0.634133
0.603169
0.575062
0.547309
0.518247
0.487478
0.0904634
0.0628558
0.0623105
0.0624324
0.0629251
0.0645052
0.0694582
0.0867733
0.165579
0.585782
1.44
1.00779
0.985438
0.974708
0.929413
0.851202
0.791536
0.735963
0.686469
0.648333
0.619537
0.592704
0.566634
0.539763
0.511423
0.0904623
0.0629063
0.0622039
0.0622821
0.0626034
0.0636387
0.0668445
0.077552
0.121018
0.345322
1.33552
1.14405
0.992453
0.974386
0.932726
0.870087
0.810335
0.75423
0.705895
0.664443
0.637714
0.612258
0.587534
0.562215
0.53578
0.0904612
0.06294
0.0621301
0.0621781
0.0623803
0.0630304
0.065023
0.0713791
0.0949265
0.214712
0.96168
1.18176
1.01164
0.97454
0.939404
0.886144
0.827139
0.772957
0.725376
0.686083
0.655977
0.633091
0.609884
0.585768
0.560553
0.0904597
0.0629607
0.0620811
0.0621087
0.0622309
0.0626276
0.0638417
0.0675601
0.0802166
0.134519
0.427767
1.13671
1.05005
0.978311
0.946501
0.907424
0.849253
0.794321
0.746831
0.709192
0.677966
0.654948
0.633979
0.610913
0.586371
0.0904587
0.0629725
0.0620509
0.0620659
0.0621352
0.0623654
0.0630728
0.0652243
0.0721741
0.0983487
0.230661
0.920511
1.04641
0.999655
0.957323
0.921179
0.867553
0.814591
0.769011
0.732668
0.70333
0.678078
0.658997
0.637564
0.613697
0.0904583
0.0629784
0.0620342
0.062041
0.0620778
0.0622047
0.0625976
0.0637877
0.0674603
0.0801813
0.135701
0.432673
0.99092
1.0011
0.978247
0.933782
0.888488
0.837931
0.792378
0.758164
0.7304
0.706062
0.684011
0.665374
0.642618
0.090458
0.0629811
0.0620258
0.0620279
0.0620458
0.0621113
0.0623195
0.062947
0.0648627
0.0710268
0.0939811
0.208046
0.727985
0.98377
0.97786
0.953515
0.911602
0.861135
0.82022
0.785496
0.760943
0.738426
0.716556
0.694553
0.674163
0.090458
0.0629817
0.0620233
0.0620224
0.0620303
0.0620627
0.0621682
0.062482
0.0634356
0.0663577
0.0762836
0.117512
0.325286
0.849276
0.96448
0.953331
0.929018
0.892559
0.851343
0.819206
0.795093
0.774405
0.75526
0.73159
0.707049
0.090458
0.0629817
0.0620235
0.0620196
0.0620242
0.0620421
0.0620952
0.0622524
0.0627095
0.0640818
0.0683737
0.0837405
0.153597
0.45552
0.882206
0.942125
0.929882
0.910609
0.884001
0.854821
0.836685
0.818393
0.796734
0.774823
0.7484
0.090458
0.0629817
0.0620236
0.062019
0.0620227
0.0620358
0.0620688
0.0621554
0.0623786
0.0630126
0.06487
0.070807
0.0928043
0.194271
0.573046
0.880076
0.919946
0.910676
0.903227
0.889334
0.876994
0.867524
0.852635
0.825306
0.795576
0.090458
0.0629817
0.0620236
0.0620189
0.0620226
0.0620356
0.062067
0.0621376
0.0622826
0.062601
0.0634115
0.0657581
0.0734335
0.103172
0.233619
0.633393
0.861887
0.899252
0.902135
0.907801
0.916228
0.912813
0.905055
0.887311
0.85069
0.090458
0.0629817
0.0620236
0.0620189
0.0620226
0.0620355
0.0620668
0.0621375
0.0622829
0.0624914
0.062898
0.0638745
0.0666968
0.0759399
0.112264
0.258639
0.636146
0.834402
0.886729
0.906879
0.93074
0.949739
0.947061
0.936581
0.912415
0.090458
0.0629817
0.0620236
0.0620189
0.0620226
0.0620355
0.0620667
0.0621369
0.0622799
0.0625047
0.0628114
0.0633966
0.0646049
0.0676767
0.0777503
0.115884
0.256255
0.590139
0.801473
0.884825
0.928855
0.959628
0.968379
0.964701
0.951229
0.0904579
0.0629817
0.0620236
0.0620189
0.0620226
0.0620355
0.0620667
0.0621369
0.0622798
0.0625056
0.0628091
0.0634201
0.0641693
0.0655598
0.068819
0.078742
0.111916
0.224041
0.489298
0.754605
0.882041
0.948138
0.970607
0.968816
0.962566
0.090458
0.0629817
0.0620236
0.0620189
0.0620226
0.0620355
0.0620667
0.0621369
0.0622797
0.0625054
0.0628093
0.0634204
0.0641572
0.0654039
0.0675475
0.0715526
0.0810609
0.106392
0.174141
0.333575
0.612423
0.83847
0.928154
0.958531
0.957924
0.090458
0.0629817
0.0620236
0.0620189
0.0620226
0.0620355
0.0620667
0.0621369
0.0622798
0.0625055
0.0628095
0.063421
0.0641549
0.0654105
0.0674897
0.0712773
0.077602
0.0905102
0.117675
0.175774
0.262392
0.411233
0.66464
0.86369
0.913858
0.090458
0.0629817
0.0620236
0.0620189
0.0620226
0.0620355
0.0620667
0.0621369
0.0622797
0.0625054
0.0628093
0.0634207
0.0641545
0.0654105
0.0674894
0.0712499
0.0775276
0.0896787
0.112436
0.158441
0.205871
0.255823
0.321865
0.469839
0.695872
0.090458
0.0629817
0.0620236
0.0620189
0.0620226
0.0620355
0.0620667
0.0621369
0.0622798
0.0625055
0.0628095
0.0634209
0.0641547
0.0654098
0.067491
0.0712461
0.0775314
0.0896503
0.112127
0.15716
0.200288
0.234778
0.261841
0.295017
0.357006
0.090458
0.0629817
0.0620236
0.0620189
0.0620226
0.0620355
0.0620667
0.0621369
0.0622797
0.0625054
0.0628093
0.0634207
0.0641544
0.0654104
0.0674898
0.0712478
0.0775256
0.0896373
0.112099
0.157073
0.199893
0.232791
0.253665
0.268534
0.284102
0.090458
0.0629817
0.0620236
0.0620189
0.0620226
0.0620355
0.0620667
0.0621369
0.0622797
0.0625054
0.0628093
0.0634208
0.0641546
0.0654099
0.0674909
0.0712456
0.0775306
0.0896465
0.112104
0.157077
0.199878
0.232641
0.25294
0.265523
0.272924
0.090458
0.0629817
0.0620236
0.0620189
0.0620226
0.0620355
0.0620667
0.0621368
0.0622796