/*--------------------------------*- C++ -*----------------------------------*\
| =========                 |                                                 |
| \\      /  F ield         | OpenFOAM: The Open Source CFD Toolbox           |
|  \\    /   O peration     | Version:  4.1                                   |
|   \\  /    A nd           | Web:      www.OpenFOAM.org                      |
|    \\/     M anipulation  |                                                 |
\*---------------------------------------------------------------------------*/
FoamFile
{
    version     2.0;
    format      ascii;
    class       volScalarField;
    location    "0.54";
    object      T;
}
// * * * * * * * * * * * * * * * * * * * * * * * * * * * * * * * * * * * * * //

dimensions      [0 0 0 1 0 0 0];

internalField   nonuniform List<scalar> 
52500
(
0.3412
0.330021
0.336681
0.370909
0.530893
1.05507
1.71136
1.59119
1.44343
1.36917
1.23381
1.17602
1.17466
1.21098
1.2403
1.2237
1.18017
1.14171
1.13036
1.12503
1.11176
1.09726
1.08375
1.06667
1.01442
0.341087
0.329764
0.336276
0.36964
0.525345
1.04392
1.70864
1.59466
1.44493
1.37052
1.23477
1.17561
1.17348
1.20863
1.23973
1.2241
1.18103
1.14143
1.12932
1.12433
1.11113
1.09708
1.08397
1.06716
1.01446
0.340844
0.329221
0.33542
0.366967
0.51345
1.01725
1.69754
1.60504
1.44838
1.37578
1.239
1.17454
1.17066
1.20341
1.23848
1.22506
1.18294
1.14137
1.12827
1.12396
1.11104
1.09736
1.08484
1.06856
1.01588
0.340494
0.328426
0.334177
0.363162
0.496764
0.97783
1.67537
1.61782
1.45195
1.38285
1.24665
1.17392
1.16789
1.19785
1.23685
1.22596
1.18547
1.14135
1.12675
1.12345
1.11068
1.09776
1.08649
1.07104
1.01871
0.340061
0.327438
0.332654
0.358646
0.477281
0.927685
1.6423
1.63398
1.45727
1.38847
1.25557
1.17252
1.16253
1.18759
1.23282
1.22613
1.18813
1.14127
1.12504
1.12251
1.11057
1.09803
1.08735
1.07376
1.01995
0.339571
0.326307
0.330933
0.353708
0.456257
0.867383
1.58726
1.65723
1.46467
1.39509
1.26777
1.17157
1.15621
1.17581
1.22723
1.22554
1.19071
1.1412
1.12342
1.12086
1.11012
1.09858
1.08891
1.07486
1.02085
0.339049
0.325088
0.329099
0.348598
0.434795
0.799927
1.50182
1.68611
1.47425
1.39835
1.28431
1.17206
1.14913
1.1617
1.21768
1.22343
1.19336
1.14166
1.12136
1.11849
1.109
1.09808
1.08893
1.07701
1.02026
0.338514
0.323834
0.327238
0.343543
0.413786
0.727387
1.38959
1.70999
1.48907
1.40143
1.30437
1.17532
1.14191
1.14792
1.20447
1.22058
1.19521
1.14413
1.11821
1.11519
1.10664
1.09651
1.08734
1.07644
1.01752
0.337987
0.3226
0.325443
0.338784
0.394237
0.648878
1.25768
1.72429
1.50945
1.39961
1.32727
1.18282
1.13427
1.13471
1.18569
1.21502
1.19574
1.14993
1.11547
1.11048
1.10243
1.09298
1.08326
1.07283
1.00787
0.337487
0.321434
0.323783
0.334544
0.377069
0.571727
1.13576
1.71885
1.53905
1.40122
1.34926
1.19582
1.12705
1.12172
1.16174
1.20709
1.19517
1.15791
1.11219
1.10474
1.09888
1.08884
1.07616
1.0621
0.985025
0.341206
0.330031
0.336695
0.370947
0.531048
1.05535
1.71144
1.5911
1.4434
1.36918
1.23386
1.17607
1.17469
1.21097
1.24029
1.22368
1.18017
1.14171
1.13037
1.12504
1.11176
1.09724
1.08373
1.06665
1.01445
0.341091
0.329772
0.336286
0.369666
0.525432
1.04406
1.70847
1.59452
1.44518
1.37117
1.23506
1.1756
1.17338
1.20841
1.2397
1.22412
1.18104
1.14142
1.12933
1.12434
1.11113
1.09707
1.08395
1.06714
1.01449
0.340849
0.329229
0.335432
0.366999
0.513574
1.0175
1.69755
1.60491
1.44835
1.37577
1.23903
1.17471
1.17091
1.20375
1.23855
1.22503
1.18289
1.14136
1.12828
1.12397
1.11104
1.09735
1.08483
1.06855
1.01591
0.340498
0.328435
0.334189
0.363196
0.496896
0.978126
1.67546
1.61761
1.45177
1.38265
1.24655
1.17395
1.16796
1.19797
1.23691
1.22594
1.18541
1.14133
1.12675
1.12345
1.11068
1.09775
1.08647
1.07104
1.01874
0.340065
0.327446
0.332665
0.358677
0.477402
0.927987
1.64245
1.63378
1.45717
1.38811
1.25518
1.17252
1.16263
1.18778
1.23279
1.22608
1.18808
1.14127
1.12503
1.12251
1.11056
1.09801
1.08732
1.07375
1.02
0.339575
0.326314
0.330943
0.353734
0.456362
0.867686
1.58749
1.65698
1.46443
1.39481
1.26777
1.17179
1.15679
1.17657
1.22753
1.22554
1.19061
1.14117
1.12341
1.12084
1.1101
1.09854
1.08886
1.07485
1.02092
0.339052
0.325094
0.329107
0.348619
0.434882
0.800207
1.50218
1.68587
1.47417
1.3982
1.28353
1.17237
1.14969
1.16237
1.21811
1.2236
1.19328
1.14158
1.12135
1.11848
1.10898
1.09803
1.08887
1.07699
1.02034
0.338517
0.323839
0.327244
0.343559
0.413851
0.727644
1.39
1.70988
1.48906
1.40152
1.3039
1.17554
1.14204
1.14799
1.20439
1.2205
1.19515
1.14404
1.11819
1.11516
1.1066
1.09645
1.08727
1.07641
1.01761
0.337988
0.322603
0.325447
0.338795
0.394284
0.649077
1.25803
1.72428
1.50943
1.39971
1.32714
1.18283
1.13412
1.13449
1.18542
1.21491
1.19568
1.1499
1.11545
1.11044
1.10238
1.0929
1.08317
1.07279
1.00797
0.337489
0.321436
0.323786
0.334551
0.377099
0.571871
1.13602
1.71892
1.53902
1.40128
1.34929
1.19578
1.12684
1.12143
1.16137
1.20696
1.19512
1.15792
1.11216
1.10474
1.09884
1.08874
1.07605
1.06204
0.985124
0.341204
0.330027
0.336689
0.370929
0.530972
1.05522
1.71138
1.59111
1.44335
1.369
1.23378
1.17615
1.17483
1.21114
1.24033
1.22367
1.18012
1.14169
1.13036
1.12502
1.11175
1.09724
1.08373
1.06667
1.01447
0.34109
0.329769
0.336282
0.369656
0.525404
1.04403
1.7086
1.59457
1.44493
1.37055
1.23482
1.17572
1.1736
1.20874
1.23976
1.22409
1.18099
1.14141
1.12931
1.12432
1.11112
1.09706
1.08395
1.06716
1.01451
0.340847
0.329225
0.335426
0.366982
0.513508
1.01736
1.69754
1.60496
1.44836
1.37584
1.23905
1.17459
1.1707
1.20347
1.2385
1.22505
1.1829
1.14136
1.12826
1.12395
1.11103
1.09735
1.08483
1.06857
1.01593
0.340496
0.32843
0.334183
0.363177
0.496822
0.977962
1.67542
1.61775
1.45191
1.38289
1.24671
1.17394
1.16793
1.19797
1.23688
1.22596
1.18542
1.14132
1.12673
1.12343
1.11067
1.09775
1.08648
1.07105
1.01876
0.340063
0.327442
0.332659
0.35866
0.477333
0.927817
1.64237
1.63393
1.45728
1.3885
1.25552
1.17241
1.16236
1.18735
1.2327
1.2261
1.18812
1.14126
1.12501
1.1225
1.11055
1.09801
1.08733
1.07376
1.02002
0.339573
0.326311
0.330938
0.35372
0.456306
0.867522
1.58737
1.65714
1.46455
1.39508
1.26809
1.17152
1.15622
1.17587
1.22728
1.22554
1.19069
1.14118
1.12339
1.12083
1.11009
1.09853
1.08887
1.07486
1.02094
0.339051
0.325092
0.329104
0.34861
0.434841
0.800071
1.50201
1.68603
1.47428
1.39834
1.28368
1.1721
1.14929
1.16192
1.21785
1.22351
1.19333
1.14161
1.12134
1.11847
1.10897
1.09803
1.08887
1.077
1.02035
0.338516
0.323838
0.327243
0.343553
0.413826
0.72754
1.38983
1.70998
1.48916
1.40157
1.30389
1.17541
1.14198
1.14798
1.20451
1.22062
1.1952
1.14407
1.11818
1.11515
1.10659
1.09645
1.08728
1.07643
1.01763
0.337988
0.322603
0.325446
0.338793
0.39427
0.649011
1.2579
1.72432
1.5095
1.39973
1.32706
1.18284
1.13427
1.1347
1.18566
1.21495
1.19571
1.1499
1.11545
1.11043
1.10238
1.0929
1.08318
1.0728
1.00799
0.337489
0.321436
0.323786
0.33455
0.377093
0.571837
1.13595
1.7189
1.53907
1.40126
1.3492
1.19579
1.12704
1.12172
1.16177
1.20711
1.19515
1.15789
1.11215
1.10473
1.09884
1.08874
1.07606
1.06205
0.98514
0.341204
0.330027
0.33669
0.370932
0.530983
1.05524
1.71139
1.59111
1.44336
1.369
1.23378
1.17615
1.17483
1.21115
1.24034
1.22368
1.18012
1.1417
1.13036
1.12503
1.11176
1.09725
1.08375
1.06669
1.0145
0.34109
0.329769
0.336283
0.369658
0.525411
1.04404
1.7086
1.59457
1.44495
1.37059
1.23484
1.17571
1.17359
1.20874
1.23976
1.22409
1.18099
1.14141
1.12932
1.12433
1.11113
1.09708
1.08397
1.06718
1.01453
0.340847
0.329226
0.335426
0.366984
0.513514
1.01738
1.69754
1.60496
1.44838
1.37589
1.2391
1.17462
1.17076
1.20354
1.23852
1.22505
1.18289
1.14136
1.12827
1.12396
1.11104
1.09736
1.08485
1.06859
1.01595
0.340496
0.328431
0.334183
0.363179
0.496828
0.977974
1.6754
1.61771
1.45188
1.38289
1.24667
1.17389
1.16786
1.19782
1.23687
1.22596
1.18543
1.14133
1.12673
1.12344
1.11068
1.09776
1.0865
1.07108
1.01879
0.340064
0.327443
0.33266
0.358662
0.477343
0.92784
1.64239
1.63391
1.45724
1.38833
1.25535
1.17244
1.16245
1.18754
1.23273
1.2261
1.18811
1.14126
1.12501
1.1225
1.11055
1.09802
1.08734
1.07379
1.02005
0.339574
0.326311
0.330939
0.353722
0.456314
0.867546
1.5874
1.65712
1.46453
1.39497
1.26797
1.17167
1.15653
1.17625
1.22743
1.22556
1.19065
1.14117
1.12339
1.12083
1.1101
1.09854
1.08889
1.07489
1.02097
0.339051
0.325092
0.329104
0.348611
0.434845
0.800085
1.50203
1.68601
1.47426
1.39832
1.28372
1.17222
1.14939
1.16203
1.21797
1.22359
1.19331
1.14159
1.12133
1.11847
1.10897
1.09804
1.08889
1.07702
1.02038
0.338516
0.323837
0.327242
0.343553
0.413826
0.727539
1.38982
1.70996
1.48914
1.40159
1.30401
1.1754
1.14182
1.14775
1.20425
1.2205
1.19518
1.14407
1.11817
1.11514
1.10659
1.09646
1.08729
1.07645
1.01766
0.337988
0.322603
0.325446
0.338792
0.394268
0.649003
1.25789
1.72431
1.5095
1.39976
1.32721
1.18278
1.13404
1.13442
1.18537
1.21492
1.19571
1.14992
1.11544
1.11043
1.10237
1.0929
1.08319
1.07282
1.00802
0.337489
0.321436
0.323786
0.33455
0.377091
0.571825
1.13593
1.7189
1.53909
1.40131
1.34934
1.19578
1.12686
1.12147
1.16146
1.20704
1.19516
1.15793
1.11215
1.10472
1.09884
1.08875
1.07607
1.06207
0.985164
0.341204
0.330027
0.336689
0.370927
0.530961
1.05518
1.71135
1.59111
1.44337
1.36903
1.2338
1.17615
1.17483
1.21113
1.24032
1.22367
1.18012
1.1417
1.13036
1.12502
1.11175
1.09724
1.08375
1.06669
1.01449
0.34109
0.329769
0.336282
0.369654
0.525389
1.04398
1.70856
1.59457
1.44496
1.37061
1.23485
1.17572
1.1736
1.20872
1.23975
1.22408
1.18099
1.14141
1.12931
1.12432
1.11112
1.09707
1.08396
1.06717
1.01453
0.340847
0.329225
0.335425
0.36698
0.513493
1.01732
1.69749
1.60496
1.4484
1.37591
1.23912
1.17464
1.17076
1.20353
1.2385
1.22503
1.18289
1.14135
1.12826
1.12395
1.11103
1.09735
1.08484
1.06858
1.01595
0.340496
0.32843
0.334182
0.363175
0.496806
0.977916
1.67535
1.61772
1.4519
1.3829
1.24667
1.1739
1.16787
1.19781
1.23686
1.22595
1.18543
1.14132
1.12672
1.12343
1.11066
1.09774
1.08648
1.07107
1.01879
0.340063
0.327442
0.332659
0.358658
0.477323
0.927783
1.64233
1.63391
1.45723
1.38833
1.25545
1.17245
1.16247
1.18755
1.23273
1.22609
1.1881
1.14125
1.12501
1.12249
1.11054
1.09801
1.08734
1.07379
1.02003
0.339573
0.326311
0.330937
0.353718
0.456296
0.86749
1.58734
1.65716
1.46461
1.39498
1.26756
1.17169
1.15653
1.17625
1.22743
1.22556
1.19064
1.14116
1.12339
1.12083
1.1101
1.09855
1.08891
1.07489
1.02091
0.339051
0.325091
0.329102
0.348606
0.434827
0.800025
1.50193
1.68602
1.4742
1.39831
1.28427
1.1722
1.14938
1.16202
1.21797
1.2236
1.19331
1.14159
1.12134
1.11848
1.10898
1.09806
1.08894
1.07702
1.02031
0.338516
0.323836
0.327241
0.343549
0.41381
0.727474
1.38971
1.70994
1.48902
1.40144
1.3045
1.17538
1.14182
1.14776
1.20424
1.22048
1.19517
1.14406
1.11818
1.11516
1.10662
1.0965
1.08735
1.07647
1.01756
0.337988
0.322602
0.325445
0.338789
0.394255
0.648947
1.25779
1.72429
1.50942
1.39962
1.32744
1.18279
1.13404
1.13442
1.18536
1.21493
1.1957
1.14992
1.11544
1.11044
1.10241
1.09297
1.08326
1.07285
1.0079
0.337489
0.321436
0.323785
0.334547
0.377081
0.57178
1.13586
1.71889
1.53905
1.40125
1.34942
1.19579
1.12686
1.12147
1.16144
1.207
1.19514
1.15792
1.11215
1.10473
1.09886
1.08882
1.07616
1.06212
0.985048
0.341204
0.330027
0.336689
0.37093
0.530973
1.05521
1.71136
1.5911
1.44335
1.369
1.23378
1.17615
1.17483
1.21116
1.24034
1.22367
1.18012
1.14169
1.13036
1.12503
1.11176
1.09725
1.08375
1.06669
1.0145
0.34109
0.329769
0.336283
0.369656
0.5254
1.04401
1.70857
1.59456
1.44495
1.37059
1.23484
1.17571
1.1736
1.20874
1.23976
1.22409
1.18098
1.14141
1.12931
1.12432
1.11113
1.09707
1.08397
1.06718
1.01454
0.340847
0.329225
0.335426
0.366982
0.513502
1.01735
1.69751
1.60495
1.44839
1.37589
1.2391
1.17463
1.17076
1.20354
1.23852
1.22504
1.18289
1.14135
1.12826
1.12396
1.11104
1.09736
1.08485
1.06859
1.01595
0.340496
0.32843
0.334183
0.363176
0.496815
0.977939
1.67536
1.61772
1.45189
1.38288
1.24665
1.17389
1.16786
1.19782
1.23688
1.22596
1.18543
1.14133
1.12673
1.12344
1.11068
1.09776
1.0865
1.07108
1.01878
0.340064
0.327442
0.332659
0.35866
0.477331
0.927804
1.64235
1.6339
1.45722
1.38831
1.25543
1.17245
1.16246
1.18755
1.23274
1.2261
1.18811
1.14126
1.12501
1.1225
1.11055
1.09802
1.08734
1.07379
1.02004
0.339573
0.326311
0.330938
0.35372
0.456302
0.86751
1.58736
1.65716
1.4646
1.39496
1.26754
1.17168
1.15653
1.17625
1.22743
1.22556
1.19065
1.14117
1.12339
1.12083
1.1101
1.09854
1.08888
1.07488
1.02096
0.339051
0.325091
0.329103
0.348608
0.434832
0.800042
1.50196
1.68601
1.4742
1.3983
1.28424
1.1722
1.14938
1.16202
1.21797
1.2236
1.19332
1.14159
1.12133
1.11847
1.10897
1.09804
1.08889
1.07702
1.02038
0.338516
0.323837
0.327241
0.34355
0.413813
0.72749
1.38974
1.70994
1.48901
1.40143
1.30447
1.17537
1.14181
1.14775
1.20425
1.2205
1.19519
1.14407
1.11817
1.11514
1.10659
1.09646
1.08729
1.07645
1.01765
0.337988
0.322602
0.325445
0.33879
0.394258
0.64896
1.25782
1.72429
1.50941
1.39961
1.32742
1.18277
1.13402
1.13441
1.18536
1.21494
1.19572
1.14992
1.11544
1.11043
1.10237
1.0929
1.08319
1.07281
1.00801
0.337489
0.321436
0.323785
0.334548
0.377083
0.57179
1.13587
1.71889
1.53905
1.40124
1.3494
1.19577
1.12684
1.12146
1.16145
1.20703
1.19516
1.15793
1.11215
1.10472
1.09884
1.08875
1.07606
1.06206
0.985159
0.341204
0.330027
0.33669
0.370932
0.530983
1.05524
1.71139
1.59111
1.44336
1.369
1.23378
1.17615
1.17483
1.21115
1.24034
1.22368
1.18012
1.1417
1.13036
1.12503
1.11176
1.09725
1.08375
1.06669
1.0145
0.34109
0.329769
0.336283
0.369658
0.525411
1.04404
1.7086
1.59457
1.44495
1.37059
1.23484
1.17571
1.17359
1.20874
1.23976
1.22409
1.18099
1.14141
1.12932
1.12433
1.11113
1.09708
1.08397
1.06718
1.01453
0.340847
0.329226
0.335426
0.366984
0.513514
1.01738
1.69754
1.60496
1.44838
1.37589
1.2391
1.17462
1.17076
1.20354
1.23852
1.22505
1.18289
1.14136
1.12827
1.12396
1.11104
1.09736
1.08485
1.06859
1.01595
0.340496
0.328431
0.334183
0.363179
0.496828
0.977974
1.6754
1.61771
1.45188
1.38289
1.24667
1.17389
1.16786
1.19782
1.23687
1.22596
1.18543
1.14133
1.12673
1.12344
1.11068
1.09776
1.0865
1.07108
1.01879
0.340064
0.327443
0.33266
0.358662
0.477343
0.92784
1.64239
1.63391
1.45724
1.38833
1.25535
1.17244
1.16245
1.18754
1.23273
1.2261
1.18811
1.14126
1.12501
1.1225
1.11055
1.09802
1.08734
1.07379
1.02005
0.339574
0.326311
0.330939
0.353722
0.456314
0.867546
1.5874
1.65712
1.46453
1.39497
1.26797
1.17167
1.15653
1.17625
1.22743
1.22556
1.19065
1.14117
1.12339
1.12083
1.1101
1.09854
1.08889
1.07489
1.02097
0.339051
0.325092
0.329104
0.348611
0.434845
0.800085
1.50203
1.68601
1.47426
1.39832
1.28372
1.17222
1.14939
1.16203
1.21797
1.22359
1.19331
1.14159
1.12133
1.11847
1.10897
1.09804
1.08889
1.07702
1.02038
0.338516
0.323837
0.327242
0.343553
0.413826
0.72754
1.38982
1.70996
1.48914
1.40159
1.30401
1.1754
1.14182
1.14775
1.20425
1.2205
1.19518
1.14407
1.11817
1.11514
1.10659
1.09646
1.08729
1.07645
1.01766
0.337988
0.322603
0.325446
0.338792
0.394268
0.649003
1.25789
1.72431
1.5095
1.39976
1.32721
1.18278
1.13404
1.13442
1.18537
1.21492
1.19571
1.14992
1.11544
1.11043
1.10237
1.0929
1.08319
1.07282
1.00802
0.337489
0.321436
0.323786
0.33455
0.377091
0.571825
1.13593
1.7189
1.53909
1.40131
1.34934
1.19578
1.12686
1.12147
1.16146
1.20704
1.19516
1.15793
1.11215
1.10472
1.09884
1.08875
1.07607
1.06207
0.985164
0.341204
0.330027
0.336689
0.370929
0.530972
1.05522
1.71138
1.59111
1.44335
1.369
1.23378
1.17615
1.17483
1.21114
1.24033
1.22367
1.18012
1.14169
1.13036
1.12502
1.11175
1.09724
1.08373
1.06667
1.01447
0.34109
0.329769
0.336282
0.369656
0.525404
1.04403
1.7086
1.59457
1.44493
1.37055
1.23482
1.17572
1.1736
1.20874
1.23976
1.22409
1.18099
1.14141
1.12931
1.12432
1.11112
1.09706
1.08395
1.06716
1.01451
0.340847
0.329225
0.335426
0.366982
0.513508
1.01736
1.69754
1.60496
1.44836
1.37584
1.23905
1.17459
1.1707
1.20347
1.2385
1.22505
1.1829
1.14136
1.12826
1.12395
1.11103
1.09735
1.08483
1.06857
1.01593
0.340496
0.32843
0.334183
0.363177
0.496822
0.977962
1.67542
1.61775
1.45191
1.38289
1.24671
1.17394
1.16793
1.19797
1.23688
1.22596
1.18542
1.14132
1.12673
1.12343
1.11067
1.09775
1.08648
1.07105
1.01876
0.340063
0.327442
0.332659
0.35866
0.477333
0.927817
1.64237
1.63393
1.45728
1.3885
1.25552
1.17241
1.16236
1.18735
1.2327
1.2261
1.18812
1.14126
1.12501
1.1225
1.11055
1.09801
1.08733
1.07376
1.02002
0.339573
0.326311
0.330938
0.35372
0.456306
0.867522
1.58737
1.65714
1.46455
1.39508
1.26809
1.17152
1.15622
1.17587
1.22728
1.22554
1.19069
1.14118
1.12339
1.12083
1.11009
1.09853
1.08887
1.07486
1.02094
0.339051
0.325092
0.329104
0.34861
0.434841
0.800071
1.50201
1.68603
1.47428
1.39834
1.28368
1.1721
1.14929
1.16192
1.21785
1.22351
1.19333
1.14161
1.12134
1.11847
1.10897
1.09803
1.08887
1.077
1.02035
0.338516
0.323838
0.327243
0.343553
0.413826
0.727539
1.38983
1.70998
1.48916
1.40157
1.30389
1.17541
1.14198
1.14798
1.20451
1.22062
1.1952
1.14407
1.11818
1.11515
1.10659
1.09645
1.08728
1.07643
1.01763
0.337988
0.322603
0.325446
0.338793
0.39427
0.649011
1.2579
1.72432
1.5095
1.39973
1.32706
1.18284
1.13427
1.1347
1.18566
1.21495
1.19571
1.1499
1.11545
1.11043
1.10238
1.0929
1.08318
1.0728
1.00799
0.337489
0.321436
0.323786
0.33455
0.377093
0.571837
1.13595
1.7189
1.53907
1.40126
1.3492
1.19579
1.12704
1.12172
1.16177
1.20711
1.19515
1.15789
1.11215
1.10473
1.09884
1.08874
1.07606
1.06205
0.98514
0.341206
0.330031
0.336695
0.370947
0.531047
1.05535
1.71144
1.5911
1.4434
1.36918
1.23386
1.17607
1.17469
1.21097
1.24029
1.22368
1.18017
1.14171
1.13037
1.12504
1.11176
1.09724
1.08373
1.06665
1.01445
0.341091
0.329772
0.336286
0.369666
0.525432
1.04406
1.70847
1.59452
1.44518
1.37117
1.23506
1.1756
1.17338
1.20841
1.2397
1.22412
1.18104
1.14142
1.12933
1.12434
1.11113
1.09707
1.08395
1.06714
1.01449
0.340849
0.329229
0.335432
0.366999
0.513573
1.01749
1.69755
1.60491
1.44835
1.37577
1.23903
1.17471
1.17091
1.20375
1.23855
1.22503
1.18289
1.14136
1.12828
1.12397
1.11104
1.09735
1.08483
1.06855
1.0159
0.340498
0.328435
0.334189
0.363196
0.496896
0.978125
1.67546
1.61761
1.45177
1.38265
1.24655
1.17395
1.16796
1.19797
1.23691
1.22594
1.18541
1.14133
1.12675
1.12345
1.11068
1.09775
1.08647
1.07104
1.01874
0.340065
0.327446
0.332665
0.358677
0.477401
0.927986
1.64245
1.63378
1.45717
1.38811
1.25518
1.17252
1.16263
1.18778
1.23279
1.22608
1.18808
1.14127
1.12503
1.12251
1.11056
1.09801
1.08732
1.07375
1.02
0.339575
0.326314
0.330943
0.353734
0.456361
0.867686
1.58749
1.65698
1.46443
1.39481
1.26777
1.17179
1.15679
1.17657
1.22753
1.22554
1.19061
1.14117
1.12341
1.12084
1.1101
1.09854
1.08886
1.07485
1.02092
0.339052
0.325094
0.329107
0.348619
0.434881
0.800207
1.50218
1.68587
1.47417
1.3982
1.28353
1.17236
1.14969
1.16237
1.21811
1.2236
1.19328
1.14158
1.12135
1.11848
1.10898
1.09803
1.08887
1.07699
1.02033
0.338517
0.323839
0.327244
0.343559
0.413851
0.727644
1.39
1.70988
1.48906
1.40152
1.3039
1.17554
1.14204
1.14799
1.20439
1.2205
1.19515
1.14404
1.11819
1.11516
1.1066
1.09645
1.08727
1.07641
1.01761
0.337988
0.322603
0.325447
0.338795
0.394284
0.649077
1.25803
1.72428
1.50943
1.39971
1.32714
1.18283
1.13412
1.13449
1.18542
1.21491
1.19568
1.1499
1.11545
1.11044
1.10238
1.0929
1.08317
1.07279
1.00797
0.337489
0.321436
0.323786
0.334551
0.377099
0.571871
1.13602
1.71892
1.53902
1.40128
1.34929
1.19578
1.12684
1.12143
1.16137
1.20696
1.19512
1.15792
1.11216
1.10474
1.09884
1.08874
1.07605
1.06204
0.985124
0.3412
0.330021
0.336681
0.370909
0.530897
1.05509
1.71141
1.59121
1.44337
1.36896
1.23373
1.17607
1.17473
1.21106
1.24031
1.22368
1.18015
1.14173
1.1304
1.12507
1.11182
1.09732
1.08382
1.06666
1.01424
0.341086
0.329763
0.336274
0.369635
0.525325
1.04388
1.70864
1.59471
1.44501
1.37067
1.23492
1.17568
1.17352
1.20862
1.23972
1.2241
1.18103
1.14145
1.12935
1.12437
1.11118
1.09714
1.08403
1.06714
1.0143
0.340844
0.329219
0.335417
0.366958
0.51341
1.01716
1.69746
1.60505
1.44856
1.37637
1.2394
1.17444
1.17046
1.20317
1.23841
1.22506
1.18294
1.14138
1.1283
1.12399
1.11108
1.09741
1.0849
1.06854
1.01573
0.340493
0.328425
0.334176
0.363158
0.496746
0.977792
1.67534
1.61781
1.45191
1.38289
1.24658
1.17371
1.16764
1.19755
1.23679
1.22596
1.18549
1.14136
1.12675
1.12346
1.1107
1.09778
1.08651
1.07103
1.01859
0.340061
0.327439
0.332655
0.358648
0.477287
0.9277
1.64238
1.63402
1.4572
1.38812
1.25524
1.17261
1.16282
1.18793
1.23282
1.22609
1.18811
1.14127
1.12503
1.12251
1.11056
1.09802
1.08734
1.07374
1.0199
0.339571
0.326308
0.330934
0.353711
0.456271
0.867424
1.58733
1.65723
1.46463
1.39484
1.26749
1.17198
1.15699
1.17678
1.22773
1.2256
1.19063
1.14116
1.12341
1.12084
1.1101
1.09856
1.08889
1.07484
1.02083
0.339049
0.325089
0.3291
0.348601
0.434806
0.799963
1.50186
1.68605
1.4742
1.39829
1.28439
1.17238
1.14941
1.16195
1.21781
1.22354
1.19331
1.14159
1.12135
1.11847
1.10898
1.09805
1.0889
1.07698
1.02024
0.338514
0.323835
0.327239
0.343545
0.413794
0.727419
1.38963
1.70993
1.48901
1.40146
1.30458
1.17535
1.14165
1.14751
1.20401
1.22044
1.19517
1.14409
1.11819
1.11517
1.10662
1.09648
1.08732
1.07642
1.01751
0.337987
0.322601
0.325443
0.338786
0.394246
0.648912
1.25774
1.72428
1.50941
1.39963
1.32743
1.18267
1.13388
1.13423
1.18509
1.21476
1.19567
1.14997
1.11546
1.11046
1.10241
1.09296
1.08323
1.07281
1.00787
0.337488
0.321435
0.323784
0.334546
0.377077
0.571765
1.13583
1.71887
1.53905
1.40122
1.34936
1.19573
1.12685
1.12147
1.16143
1.207
1.19513
1.15796
1.11218
1.10473
1.09887
1.08882
1.07615
1.06208
0.985023
0.337032
0.320367
0.322303
0.330889
0.363143
0.507999
1.01135
1.67482
1.57739
1.40635
1.36699
1.21656
1.12311
1.10835
1.13269
1.1967
1.19302
1.16546
1.11243
1.10117
1.09147
1.0826
1.06664
1.04298
0.914087
0.336639
0.31943
0.321021
0.327769
0.352045
0.458431
0.883057
1.57214
1.61773
1.41753
1.37658
1.24419
1.12269
1.09447
1.10422
1.17533
1.18948
1.17071
1.1154
1.09265
1.08442
1.07618
1.05695
1.0335
0.917666
0.336328
0.318656
0.319953
0.32515
0.343162
0.418962
0.753918
1.41625
1.65829
1.4461
1.38136
1.278
1.12679
1.07905
1.07833
1.1369
1.18295
1.17145
1.12231
1.09048
1.07905
1.07109
1.04903
1.02875
0.936958
0.336128
0.318061
0.319104
0.323011
0.33618
0.388797
0.633591
1.23187
1.67907
1.48644
1.38137
1.3163
1.14414
1.06954
1.05818
1.0918
1.16893
1.16916
1.1389
1.0931
1.07172
1.06213
1.04138
1.02435
0.977054
0.336061
0.317636
0.318436
0.321292
0.33088
0.366928
0.533157
1.07281
1.67584
1.53985
1.37918
1.3494
1.17543
1.06805
1.04056
1.05469
1.12932
1.16274
1.14571
1.0992
1.07074
1.05872
1.03474
1.02308
0.997778
0.336143
0.317349
0.317895
0.319933
0.326904
0.351653
0.461803
0.908996
1.62981
1.58841
1.38563
1.36648
1.21625
1.07324
1.02636
1.02968
1.07101
1.14956
1.14366
1.11654
1.07408
1.05975
1.03601
1.02133
1.01227
0.336337
0.317137
0.317451
0.318957
0.324131
0.341296
0.411664
0.728552
1.38058
1.61849
1.4097
1.38005
1.26855
1.09141
1.02454
1.00662
1.02628
1.12015
1.13652
1.12428
1.08299
1.06375
1.04025
1.02291
1.01465
0.33657
0.316929
0.317188
0.318402
0.322159
0.333905
0.37908
0.589352
1.14928
1.6278
1.46655
1.38986
1.32113
1.13959
1.02833
0.99406
0.994972
1.05256
1.12103
1.12126
1.10114
1.07729
1.04901
1.02685
1.01514
0.336728
0.316822
0.317129
0.317886
0.320393
0.328362
0.357283
0.491855
0.983322
1.62967
1.5252
1.40227
1.35911
1.19671
1.04352
0.993719
0.974501
0.998775
1.09201
1.11352
1.10229
1.08956
1.06882
1.03591
1.01765
0.3368
0.316848
0.316987
0.317432
0.31911
0.324424
0.342438
0.419955
0.781264
1.53862
1.54806
1.42457
1.38815
1.25929
1.07577
0.997094
0.967705
0.97127
1.02283
1.08839
1.09647
1.09102
1.08253
1.05782
1.0264
0.336829
0.316927
0.316822
0.317059
0.318179
0.321746
0.33325
0.377634
0.589406
1.14618
1.556
1.43958
1.42764
1.32945
1.12741
1.00851
0.969053
0.953004
0.970397
1.05136
1.08418
1.0883
1.08623
1.07798
1.04856
0.336845
0.317004
0.316664
0.316791
0.317507
0.319826
0.327131
0.353175
0.472258
0.910121
1.55482
1.47635
1.45493
1.39576
1.21498
1.03646
0.976652
0.947069
0.948955
0.985002
1.05959
1.08137
1.08551
1.08432
1.07461
0.336854
0.317057
0.316553
0.316604
0.317041
0.318489
0.322964
0.337871
0.399683
0.703928
1.41468
1.46964
1.45495
1.4356
1.32066
1.09781
1.00174
0.949872
0.933255
0.946624
1.00941
1.06427
1.08137
1.08417
1.08262
0.336855
0.317094
0.316467
0.316487
0.316731
0.317608
0.320324
0.328839
0.359997
0.509773
0.979246
1.46129
1.44872
1.43916
1.38977
1.19758
1.04841
0.962633
0.931578
0.926139
0.946763
1.01983
1.06608
1.08062
1.08255
0.336856
0.317113
0.316418
0.316411
0.316528
0.31704
0.318642
0.323516
0.339901
0.409063
0.72441
1.37841
1.41406
1.43451
1.41419
1.29882
1.10231
0.995514
0.937052
0.91364
0.918403
0.947697
1.02555
1.06537
1.07882
0.336856
0.317122
0.316392
0.316361
0.316406
0.316695
0.317616
0.320342
0.328778
0.359849
0.51388
0.98256
1.37263
1.41482
1.4133
1.35981
1.1819
1.03688
0.953971
0.915279
0.89765
0.907665
0.943793
1.02636
1.06448
0.336856
0.317126
0.316379
0.316334
0.316338
0.316497
0.317025
0.318526
0.322894
0.337269
0.397078
0.670657
1.23499
1.36494
1.39667
1.37517
1.27282
1.08662
0.984863
0.92592
0.897447
0.883506
0.894752
0.934999
1.02327
0.336856
0.317127
0.316374
0.316324
0.316302
0.316394
0.316714
0.317544
0.319768
0.326419
0.3501
0.462642
0.83993
1.27442
1.35798
1.3647
1.3206
1.16544
1.02167
0.949362
0.905137
0.877735
0.87566
0.887376
0.928011
0.336856
0.317127
0.316374
0.316318
0.316289
0.316348
0.316584
0.317061
0.318177
0.321342
0.331296
0.369295
0.553406
0.974104
1.27886
1.33796
1.32048
1.24298
1.07007
0.974135
0.927137
0.886144
0.861942
0.864915
0.878641
0.336856
0.317127
0.316374
0.316317
0.316285
0.316333
0.316548
0.316838
0.317429
0.319013
0.323469
0.337404
0.39339
0.629785
1.06923
1.27675
1.30596
1.26981
1.13516
1.00608
0.942589
0.909781
0.868915
0.851929
0.854635
0.336856
0.317127
0.316374
0.316317
0.316285
0.316332
0.316542
0.316815
0.317132
0.318127
0.320372
0.325941
0.343938
0.421857
0.68752
1.11469
1.26702
1.26382
1.19586
1.03876
0.958966
0.921514
0.891256
0.857338
0.843979
0.336856
0.317127
0.316374
0.316317
0.316285
0.316332
0.316541
0.31682
0.317096
0.31793
0.319151
0.321775
0.328676
0.351139
0.447448
0.719482
1.12984
1.24096
1.20679
1.08341
0.970934
0.926751
0.902431
0.873978
0.846836
0.336856
0.317127
0.316375
0.316317
0.316285
0.316332
0.31654
0.31682
0.317092
0.317934
0.319022
0.320365
0.324225
0.332836
0.35755
0.458771
0.717007
1.12214
1.1875
1.10811
0.978603
0.923165
0.901023
0.883007
0.854909
0.336856
0.317127
0.316374
0.316317
0.316285
0.316332
0.31654
0.31682
0.317092
0.317934
0.319031
0.32027
0.323475
0.327914
0.337597
0.364312
0.454702
0.683096
1.02729
1.07378
0.98133
0.912598
0.889868
0.878128
0.860807
0.336856
0.317127
0.316374
0.316317
0.316285
0.316332
0.31654
0.31682
0.317092
0.317933
0.31903
0.320266
0.323434
0.327546
0.334228
0.349125
0.379484
0.450251
0.598328
0.766326
0.888638
0.885591
0.867859
0.865494
0.856199
0.336856
0.317127
0.316374
0.316317
0.316285
0.316332
0.31654
0.31682
0.317092
0.317935
0.31903
0.320267
0.323429
0.327568
0.33408
0.348514
0.371716
0.418131
0.481383
0.5419
0.595374
0.683635
0.785674
0.837688
0.841991
0.336856
0.317127
0.316375
0.316317
0.316285
0.316332
0.31654
0.31682
0.317092
0.317934
0.31903
0.320267
0.323428
0.327565
0.334071
0.348468
0.371487
0.416778
0.472446
0.517504
0.531198
0.547587
0.584159
0.674007
0.780304
0.336856
0.317127
0.316374
0.316317
0.316285
0.316332
0.31654
0.31682
0.317092
0.317934
0.319031
0.320267
0.323428
0.327566
0.334077
0.348457
0.371494
0.416765
0.472016
0.515867
0.526132
0.52833
0.535541
0.555856
0.59783
0.336856
0.317127
0.316375
0.316317
0.316285
0.316332
0.31654
0.31682
0.317092
0.317934
0.319029
0.320266
0.323428
0.327565
0.334071
0.348466
0.371473
0.416713
0.471993
0.515771
0.525833
0.526582
0.52921
0.537022
0.547154
0.336856
0.317127
0.316374
0.316317
0.316285
0.316332
0.31654
0.31682
0.317092
0.317934
0.31903
0.320267
0.323428
0.327566
0.334076
0.348457
0.37149
0.416754
0.471995
0.515764
0.525824
0.526433
0.528592
0.535123
0.539411
0.336856
0.317127
0.316375
0.316317
0.316285
0.316332
0.31654
0.31682
0.317092
0.317933
0.319029
0.320266
0.323427
0.327564
0.334072
0.348436
0.371475
0.416731
0.471913
0.515668
0.52574
0.526323
0.528417
0.534829
0.538326
0.336856
0.317127
0.316375
0.316317
0.316285
0.316332
0.31654
0.31682
0.317092
0.317934
0.319029
0.320267
0.323429
0.327566
0.334073
0.348469
0.371479
0.41673
0.472009
0.515778
0.525832
0.526432
0.528567
0.534991
0.538293
0.336856
0.317127
0.316375
0.316317
0.316285
0.316332
0.31654
0.31682
0.317092
0.317934
0.319029
0.320266
0.323428
0.327565
0.33407
0.34847
0.371473
0.416713
0.472009
0.515782
0.52583
0.52643
0.528567
0.53499
0.538258
0.336856
0.317127
0.316375
0.316317
0.316285
0.316332
0.31654
0.31682
0.317092
0.317933
0.31903
0.320266
0.323427
0.327566
0.334071
0.348444
0.371473
0.416725
0.471936
0.515692
0.525748
0.52632
0.528397
0.534784
0.538116
0.336856
0.317127
0.316375
0.316317
0.316285
0.316332
0.31654
0.31682
0.317092
0.317934
0.319029
0.320266
0.323428
0.327566
0.334069
0.348471
0.37147
0.4167
0.47201
0.515794
0.52584
0.526438
0.528572
0.534988
0.538249
0.336856
0.317127
0.316375
0.316317
0.316285
0.316332
0.31654
0.31682
0.317092
0.317934
0.319029
0.320266
0.323429
0.327565
0.33407
0.34847
0.371474
0.41672
0.472016
0.515791
0.525841
0.526439
0.528574
0.534994
0.538261
0.336856
0.317127
0.316375
0.316317
0.316285
0.316332
0.31654
0.31682
0.317092
0.317933
0.319029
0.320266
0.323428
0.327564
0.334068
0.348448
0.371462
0.416701
0.471938
0.515706
0.525769
0.526355
0.52846
0.534859
0.538143
0.336856
0.317127
0.316375
0.316317
0.316285
0.316332
0.31654
0.31682
0.317092
0.317933
0.319029
0.320266
0.323428
0.327565
0.334071
0.348459
0.371478
0.416733
0.472003
0.515778
0.525833
0.526425
0.528544
0.534957
0.538252
0.336856
0.317127
0.316375
0.316317
0.316285
0.316332
0.31654
0.31682
0.317092
0.317933
0.319029
0.320265
0.323427
0.327564
0.334067
0.348448
0.371461
0.416706
0.471946
0.515707
0.525763
0.526346
0.528444
0.534838
0.538134
0.336857
0.317127
0.316375
0.316317
0.316285
0.316332
0.31654
0.31682
0.317092
0.317934
0.319028
0.320266
0.323428
0.327564
0.334068
0.348473
0.371468
0.416711
0.472025
0.515797
0.525836
0.526433
0.528566
0.534983
0.538248
0.337033
0.320369
0.322306
0.330895
0.363161
0.508086
1.01157
1.67503
1.57735
1.4064
1.36714
1.21656
1.12291
1.10806
1.13232
1.19655
1.19298
1.16549
1.11242
1.10115
1.09144
1.08252
1.06653