/*--------------------------------*- C++ -*----------------------------------*\
| =========                 |                                                 |
| \\      /  F ield         | OpenFOAM: The Open Source CFD Toolbox           |
|  \\    /   O peration     | Version:  4.1                                   |
|   \\  /    A nd           | Web:      www.OpenFOAM.org                      |
|    \\/     M anipulation  |                                                 |
\*---------------------------------------------------------------------------*/
FoamFile
{
    version     2.0;
    format      ascii;
    class       volVectorField;
    location    "0.54";
    object      U;
}
// * * * * * * * * * * * * * * * * * * * * * * * * * * * * * * * * * * * * * //

dimensions      [0 1 -1 0 0 0 0];

internalField   nonuniform List<vector> 
52500
(
(1.81189 1.58212e-05 -0.00218816)
(1.83605 0.000122423 -0.00206463)
(1.82948 0.000249789 -0.00211881)
(1.7907 0.000571359 -0.00236666)
(1.59932 0.001901 -0.0034828)
(0.687703 0.00795546 -0.00743475)
(-0.335968 0.0281616 -0.0121527)
(-0.399174 0.025136 -0.0109662)
(-0.00553372 0.0230315 -0.0101442)
(-0.0834599 0.0254292 -0.00968142)
(-0.119535 0.0242291 -0.00870355)
(-0.0973763 0.0225323 -0.00830097)
(-0.0890487 0.0219654 -0.00829707)
(-0.0829241 0.0222688 -0.00855971)
(-0.0713297 0.0230933 -0.0087732)
(-0.0575508 0.0241902 -0.00866385)
(-0.0371216 0.0249922 -0.0083664)
(-0.0153698 0.0259281 -0.00810637)
(0.0135932 0.0268429 -0.00801981)
(0.0462246 0.0279836 -0.00796311)
(0.0739658 0.0288539 -0.0078533)
(0.0848468 0.0300539 -0.00774369)
(0.100616 0.0310621 -0.00765374)
(0.057941 0.0329033 -0.00755042)
(0.0393018 0.033486 -0.00721084)
(1.81208 4.92326e-05 -0.00218748)
(1.83631 0.000380764 -0.00206265)
(1.8299 0.000776961 -0.00211565)
(1.79213 0.00177796 -0.00235733)
(1.60598 0.00591686 -0.00344251)
(0.709485 0.0249259 -0.00732965)
(-0.32699 0.0842097 -0.0120638)
(-0.406637 0.0671912 -0.0109405)
(-0.00744649 0.0562218 -0.0101146)
(-0.0819665 0.060677 -0.00965205)
(-0.11898 0.055663 -0.00867886)
(-0.0959325 0.0512792 -0.00827055)
(-0.0865683 0.0500522 -0.00826252)
(-0.080024 0.0506636 -0.00851609)
(-0.0680314 0.0518973 -0.00874064)
(-0.0544305 0.0533778 -0.00863732)
(-0.034155 0.0544918 -0.00834304)
(-0.0123157 0.0562947 -0.00807339)
(0.0166406 0.0583768 -0.00797832)
(0.0488178 0.0606667 -0.00792348)
(0.0760431 0.0624636 -0.00781406)
(0.0866782 0.0649967 -0.007707)
(0.102176 0.0668334 -0.00761975)
(0.0591147 0.0695195 -0.00751762)
(0.0398215 0.0702805 -0.00717676)
(1.81249 8.1405e-05 -0.00218603)
(1.83685 0.000634842 -0.00205856)
(1.83078 0.00129386 -0.00210912)
(1.79515 0.00295126 -0.00233807)
(1.62031 0.00974108 -0.0033583)
(0.759907 0.0410599 -0.00708832)
(-0.299339 0.144092 -0.0119201)
(-0.416763 0.114284 -0.0109632)
(-0.00591401 0.0931637 -0.0101013)
(-0.0734879 0.102004 -0.00965385)
(-0.11617 0.0939734 -0.00867962)
(-0.0927637 0.0872811 -0.00823696)
(-0.0819863 0.085952 -0.00821794)
(-0.0754776 0.0873987 -0.0084537)
(-0.0633859 0.0897919 -0.00870455)
(-0.0497976 0.0924069 -0.008616)
(-0.0292695 0.0943195 -0.00832847)
(-0.00716269 0.0972994 -0.0080413)
(0.0215238 0.10119 -0.00793582)
(0.0530992 0.104748 -0.00788522)
(0.0799793 0.107643 -0.00777751)
(0.0902533 0.111537 -0.00767224)
(0.105132 0.114293 -0.00758913)
(0.0615171 0.118341 -0.00749029)
(0.0409685 0.119038 -0.00715232)
(1.81307 0.000106871 -0.00218394)
(1.83765 0.000843431 -0.00205258)
(1.83205 0.0017134 -0.00209969)
(1.79945 0.00387386 -0.00231075)
(1.64035 0.012542 -0.00324086)
(0.839269 0.0524886 -0.0067507)
(-0.255938 0.197783 -0.0117194)
(-0.431198 0.164542 -0.0109979)
(-0.00532019 0.128911 -0.0100883)
(-0.0607454 0.143236 -0.00967099)
(-0.112183 0.132092 -0.00870527)
(-0.0884676 0.12225 -0.00820734)
(-0.0758069 0.120246 -0.00817486)
(-0.069068 0.122075 -0.00839037)
(-0.0564936 0.125604 -0.00866765)
(-0.0429937 0.12974 -0.00859605)
(-0.0223445 0.132798 -0.00831976)
(0.000475006 0.137038 -0.00800921)
(0.0288777 0.143072 -0.00788873)
(0.0592753 0.14782 -0.00784545)
(0.0856428 0.152138 -0.00773836)
(0.0954932 0.157862 -0.00763727)
(0.110029 0.162319 -0.00756178)
(0.0655706 0.168675 -0.00746864)
(0.0426719 0.169516 -0.00713656)
(1.8138 0.000125312 -0.00218136)
(1.83863 0.000998138 -0.00204515)
(1.8336 0.00201973 -0.00208813)
(1.80454 0.00451783 -0.00227832)
(1.66368 0.014278 -0.00310406)
(0.94291 0.0594167 -0.00634249)
(-0.197513 0.242778 -0.0114405)
(-0.44624 0.219687 -0.0110493)
(-0.00967642 0.163702 -0.0100836)
(-0.0430881 0.183299 -0.00967989)
(-0.107287 0.17046 -0.00874056)
(-0.0835512 0.15725 -0.00817261)
(-0.068407 0.15441 -0.00811474)
(-0.0616232 0.156462 -0.00829569)
(-0.0484044 0.160847 -0.00861547)
(-0.0345229 0.166381 -0.00857237)
(-0.0135709 0.170871 -0.00831313)
(0.0103283 0.176383 -0.00797694)
(0.0380823 0.184082 -0.00784001)
(0.0671699 0.189875 -0.0078015)
(0.0936592 0.196062 -0.0076997)
(0.103284 0.204274 -0.00759971)
(0.117413 0.211328 -0.00752651)
(0.0715472 0.221076 -0.00744597)
(0.0451138 0.222779 -0.00710665)
(1.81463 0.000136925 -0.00217845)
(1.83974 0.00109928 -0.00203663)
(1.83534 0.00221569 -0.00207504)
(1.81007 0.00490653 -0.00224277)
(1.68884 0.0151281 -0.00295686)
(1.06715 0.0628514 -0.0058735)
(-0.117317 0.275349 -0.0110365)
(-0.457733 0.280763 -0.0111681)
(-0.0230614 0.198799 -0.0100921)
(-0.0205006 0.222173 -0.00969648)
(-0.100678 0.209343 -0.00880005)
(-0.0780578 0.192406 -0.00814198)
(-0.0599719 0.188315 -0.00804905)
(-0.0529784 0.190232 -0.00819211)
(-0.0389485 0.195554 -0.00855419)
(-0.0242438 0.202671 -0.00854505)
(-0.00287288 0.208842 -0.00830073)
(0.0220946 0.215745 -0.0079389)
(0.0489685 0.224395 -0.00779181)
(0.0769583 0.231907 -0.00775143)
(0.104109 0.240132 -0.00765731)
(0.113979 0.251274 -0.00756218)
(0.128082 0.261177 -0.00749348)
(0.0805167 0.275115 -0.0074084)
(0.0487373 0.280684 -0.00706905)
(1.81551 0.000141674 -0.00217535)
(1.84094 0.00114792 -0.00202743)
(1.83717 0.00230278 -0.00206103)
(1.81571 0.00504236 -0.00220577)
(1.7145 0.0151706 -0.00280753)
(1.20137 0.0630424 -0.00537366)
(-0.00894716 0.287986 -0.0104467)
(-0.459278 0.348177 -0.0113641)
(-0.0496214 0.235442 -0.0101095)
(0.00671245 0.259088 -0.00969445)
(-0.0919084 0.249079 -0.00889107)
(-0.0720176 0.22787 -0.00812186)
(-0.0505842 0.221919 -0.00797931)
(-0.0431953 0.223286 -0.00807406)
(-0.0284752 0.229591 -0.00846689)
(-0.0122498 0.238347 -0.00850897)
(0.0098388 0.246605 -0.00828788)
(0.0355425 0.25479 -0.00790398)
(0.0615404 0.264222 -0.00773984)
(0.0890183 0.274046 -0.0076955)
(0.117245 0.284706 -0.00760833)
(0.12777 0.29938 -0.0075153)
(0.142101 0.312768 -0.00744745)
(0.0946625 0.331212 -0.00737239)
(0.0558717 0.343445 -0.00701423)
(1.81642 0.000138143 -0.00217218)
(1.84215 0.00114255 -0.00201794)
(1.83901 0.00228046 -0.00204671)
(1.8212 0.00493127 -0.00216874)
(1.73946 0.014503 -0.00266228)
(1.33284 0.0600909 -0.00485188)
(0.132559 0.27698 -0.0096923)
(-0.442578 0.418686 -0.0115233)
(-0.0928474 0.275418 -0.0101562)
(0.038055 0.292486 -0.00969508)
(-0.0795809 0.289863 -0.00900931)
(-0.0654612 0.263878 -0.00812176)
(-0.0404512 0.255124 -0.00790962)
(-0.0321275 0.255474 -0.00796007)
(-0.0168909 0.262731 -0.00835571)
(0.00171621 0.273281 -0.00846007)
(0.0244915 0.28412 -0.00826059)
(0.0507491 0.292653 -0.00788434)
(0.0761608 0.303453 -0.00768018)
(0.10368 0.315939 -0.00763264)
(0.133539 0.329716 -0.00754914)
(0.145415 0.348746 -0.00745821)
(0.160449 0.367595 -0.00738588)
(0.114789 0.392714 -0.00731213)
(0.067229 0.415841 -0.00693415)
(1.81732 0.000125961 -0.00216904)
(1.84334 0.001088 -0.00200859)
(1.84074 0.00216224 -0.0020328)
(1.82628 0.0046129 -0.00213338)
(1.76246 0.0132552 -0.002527)
(1.45174 0.0539508 -0.00429136)
(0.310492 0.243826 -0.00880872)
(-0.401208 0.487285 -0.0116107)
(-0.152603 0.321896 -0.0102298)
(0.0705162 0.32057 -0.00965837)
(-0.0619982 0.332164 -0.00914955)
(-0.0585037 0.300922 -0.00815116)
(-0.0298051 0.28803 -0.0078377)
(-0.0197335 0.28698 -0.00785183)
(-0.00423763 0.29498 -0.00820339)
(0.0176203 0.307451 -0.00838681)
(0.0404331 0.320759 -0.00822551)
(0.0674136 0.329339 -0.00788649)
(0.0933934 0.341645 -0.00762323)
(0.121384 0.35689 -0.00755958)
(0.153717 0.374439 -0.00747621)
(0.168474 0.398936 -0.00738494)
(0.185667 0.426752 -0.0073005)
(0.14597 0.463732 -0.00722085)
(0.0872012 0.509183 -0.00678811)
(1.81816 0.0001064 -0.00216608)
(1.84444 0.000995238 -0.00199974)
(1.84232 0.00197385 -0.00201985)
(1.83076 0.00416031 -0.00210147)
(1.78215 0.0116388 -0.0024067)
(1.5496 0.0455655 -0.00375545)
(0.516098 0.202965 -0.00794459)
(-0.324895 0.544816 -0.0115972)
(-0.224762 0.379477 -0.0103387)
(0.0982891 0.342519 -0.00962896)
(-0.0357939 0.375874 -0.00926817)
(-0.0514585 0.33917 -0.00821921)
(-0.0190144 0.320743 -0.00776919)
(-0.00606463 0.318114 -0.00774492)
(0.00953833 0.326235 -0.008009)
(0.0349299 0.340444 -0.00829429)
(0.0575257 0.355654 -0.00818356)
(0.0853947 0.365313 -0.00790266)
(0.11309 0.378439 -0.00756296)
(0.142405 0.396174 -0.00747987)
(0.178507 0.417995 -0.00740611)
(0.199221 0.448752 -0.00730414)
(0.222377 0.489089 -0.00718838)
(0.198604 0.550079 -0.00706516)
(0.124542 0.656094 -0.00651619)
(1.81188 1.59628e-05 -8.3293e-09)
(1.83604 0.000123361 -3.46937e-08)
(1.82946 0.000251768 -4.69046e-08)
(1.79065 0.000576344 -1.03809e-07)
(1.59913 0.00191991 -3.59977e-07)
(0.687136 0.00804944 -1.15754e-06)
(-0.336351 0.0283843 -3.70486e-07)
(-0.399127 0.0251532 8.46045e-07)
(-0.00565171 0.0231201 -2.48304e-07)
(-0.083658 0.0254438 1.02516e-07)
(-0.119568 0.0241843 2.99218e-07)
(-0.097313 0.0225191 2.09627e-07)
(-0.0889752 0.0219978 2.1202e-07)
(-0.0828669 0.0223206 1.78129e-07)
(-0.0713095 0.0231192 1.99508e-07)
(-0.057552 0.0241908 2.09547e-07)
(-0.0371308 0.0249867 2.21425e-07)
(-0.0153784 0.0259251 2.25839e-07)
(0.0135942 0.0268383 1.86837e-07)
(0.0462319 0.0279766 1.59756e-07)
(0.073981 0.0288447 1.01383e-07)
(0.0848679 0.0300422 3.71522e-08)
(0.10064 0.0310496 -1.09514e-08)
(0.0579633 0.0328904 -5.357e-08)
(0.0393169 0.0334803 -8.28119e-08)
(1.81208 4.92701e-05 -7.43095e-09)
(1.8363 0.000381172 -2.95491e-08)
(1.82989 0.00077785 -3.94748e-08)
(1.7921 0.0017803 -8.45225e-08)
(1.60588 0.00592615 -2.80591e-07)
(0.70913 0.0249667 -8.37123e-07)
(-0.326467 0.0842264 -5.70919e-07)
(-0.405942 0.0670923 7.6001e-07)
(-0.00675465 0.0561006 9.33341e-08)
(-0.0814882 0.0605246 -4.82576e-08)
(-0.118522 0.0555724 2.48422e-07)
(-0.0955299 0.0512675 2.06183e-07)
(-0.0862963 0.0500813 2.19815e-07)
(-0.0798982 0.0506881 1.92535e-07)
(-0.0679957 0.0519325 2.17755e-07)
(-0.054426 0.0534167 2.26366e-07)
(-0.0341598 0.0545207 2.38198e-07)
(-0.0123257 0.0563042 2.38633e-07)
(0.0166357 0.0583711 2.01506e-07)
(0.0488189 0.0606549 1.77921e-07)
(0.0760517 0.0624449 1.31969e-07)
(0.0866925 0.0649715 6.80534e-08)
(0.102193 0.0668032 -4.83279e-10)
(0.0591311 0.0694823 -5.83262e-08)
(0.0398383 0.0702549 -1.11897e-07)
(1.81248 8.13931e-05 -7.07005e-09)
(1.83685 0.0006345 -2.78564e-08)
(1.83076 0.0012931 -3.72094e-08)
(1.79512 0.00294897 -7.99729e-08)
(1.62016 0.00973126 -2.69045e-07)
(0.759409 0.0410023 -8.82054e-07)
(-0.299651 0.143948 -5.63514e-07)
(-0.416672 0.114286 6.97379e-07)
(-0.00593278 0.0930486 3.32984e-07)
(-0.0736998 0.101895 -4.63409e-08)
(-0.11634 0.0940041 1.87664e-07)
(-0.092907 0.0874088 2.49211e-07)
(-0.0821199 0.0860909 2.74424e-07)
(-0.0755468 0.0874935 2.44843e-07)
(-0.0634326 0.0898591 2.35242e-07)
(-0.0498439 0.0924589 2.34664e-07)
(-0.0293173 0.0943543 2.46769e-07)
(-0.00720269 0.0973041 2.30319e-07)
(0.021506 0.101179 2.12864e-07)
(0.0530953 0.104731 2.06498e-07)
(0.0799849 0.107616 1.57564e-07)
(0.0902673 0.111499 9.32602e-08)
(0.105148 0.114246 4.28101e-09)
(0.0615339 0.118283 -7.09238e-08)
(0.0409832 0.118998 -1.50847e-07)
(1.81307 0.000107011 -6.65347e-09)
(1.83764 0.000844004 -2.67979e-08)
(1.83204 0.00171452 -3.60785e-08)
(1.79942 0.00387589 -7.8786e-08)
(1.64019 0.0125469 -2.68155e-07)
(0.838649 0.0524987 -8.95049e-07)
(-0.256195 0.197722 -7.77736e-07)
(-0.431065 0.164507 8.17504e-07)
(-0.00540641 0.128878 4.08624e-07)
(-0.061019 0.143135 -4.16489e-08)
(-0.112412 0.132106 1.51307e-07)
(-0.0887171 0.122373 2.52135e-07)
(-0.076107 0.120395 2.73531e-07)
(-0.0693327 0.122203 2.46547e-07)
(-0.0566901 0.125685 2.48254e-07)
(-0.0431192 0.129775 2.41223e-07)
(-0.0224321 0.132807 2.62983e-07)
(0.000413964 0.137026 2.5304e-07)
(0.0288527 0.143054 2.33119e-07)
(0.0592665 0.147795 2.31564e-07)
(0.085642 0.152103 2.0014e-07)
(0.0955023 0.157814 1.33461e-07)
(0.110041 0.16226 1.9148e-08)
(0.0655882 0.168598 -9.69551e-08)
(0.0426839 0.169457 -2.10472e-07)
(1.8138 0.000125485 -6.25356e-09)
(1.83862 0.00099915 -2.49516e-08)
(1.83359 0.00202176 -3.35103e-08)
(1.8045 0.00452206 -7.25848e-08)
(1.66354 0.0142909 -2.42917e-07)
(0.94228 0.0594605 -8.29664e-07)
(-0.197783 0.242828 -1.0961e-06)
(-0.446134 0.219638 7.68644e-07)
(-0.00975858 0.163731 5.14981e-07)
(-0.0434387 0.18325 -8.69103e-08)
(-0.107596 0.170476 1.37543e-07)
(-0.0839235 0.157294 3.23337e-07)
(-0.0688429 0.15442 3.0935e-07)
(-0.0619819 0.156434 3.39996e-07)
(-0.0486737 0.160818 3.14353e-07)
(-0.0347037 0.16635 3.07029e-07)
(-0.0136858 0.170845 2.85453e-07)
(0.0102583 0.176357 2.74367e-07)
(0.0380526 0.18405 2.86028e-07)
(0.0671558 0.189836 2.6849e-07)
(0.0936533 0.196014 2.47894e-07)
(0.103288 0.204215 1.74192e-07)
(0.117417 0.211257 4.05353e-08)
(0.0715598 0.220988 -1.10823e-07)
(0.0451201 0.222706 -2.58652e-07)
(1.81463 0.000137156 -6.07647e-09)
(1.83974 0.0011006 -2.36209e-08)
(1.83533 0.00221829 -3.16898e-08)
(1.81004 0.0049119 -6.82249e-08)
(1.68872 0.015144 -2.23097e-07)
(1.06654 0.0629071 -7.81509e-07)
(-0.117645 0.275482 -1.47702e-06)
(-0.457663 0.280755 8.06973e-07)
(-0.0231098 0.198902 5.62896e-07)
(-0.0208741 0.222242 -1.50517e-07)
(-0.100954 0.209414 -1.12732e-07)
(-0.0784227 0.19245 3.1564e-07)
(-0.0603711 0.188286 3.03199e-07)
(-0.0532711 0.190157 2.83684e-07)
(-0.039154 0.195455 2.81275e-07)
(-0.0243896 0.202575 2.858e-07)
(-0.00297398 0.208774 3.17973e-07)
(0.0220203 0.215701 2.99505e-07)
(0.0489334 0.224347 3.3765e-07)
(0.0769401 0.231853 3.18757e-07)
(0.104097 0.240072 2.88357e-07)
(0.113977 0.251203 2.12896e-07)
(0.128079 0.261095 5.72915e-08)
(0.0805255 0.275025 -1.02496e-07)
(0.0487394 0.280613 -2.63336e-07)
(1.81551 0.000141889 -5.74483e-09)
(1.84093 0.00114926 -2.22192e-08)
(1.83716 0.00230546 -3.00774e-08)
(1.81569 0.00504803 -6.56303e-08)
(1.7144 0.0151873 -2.09889e-07)
(1.20084 0.0631048 -7.62452e-07)
(-0.00935451 0.288212 -1.91751e-06)
(-0.459242 0.348204 9.07541e-07)
(-0.0495434 0.235559 5.60015e-07)
(0.00646682 0.259216 -8.4186e-08)
(-0.0920906 0.24918 3.01746e-08)
(-0.072221 0.227919 2.37875e-07)
(-0.0508355 0.221917 2.5796e-07)
(-0.0433833 0.223242 2.92315e-07)
(-0.0286108 0.22951 2.94565e-07)
(-0.0123455 0.238244 3.05177e-07)
(0.009775 0.2465 3.21879e-07)
(0.0354817 0.254714 3.43922e-07)
(0.061505 0.264158 3.59217e-07)
(0.089 0.27398 3.52447e-07)
(0.117231 0.284636 3.36815e-07)
(0.127762 0.299298 2.49731e-07)
(0.142094 0.312676 8.07707e-08)
(0.094674 0.331118 -9.55587e-08)
(0.0558737 0.343374 -2.67882e-07)
(1.81642 0.00013829 -5.28271e-09)
(1.84215 0.00114367 -1.99395e-08)
(1.839 0.00228273 -2.69028e-08)
(1.82119 0.0049363 -5.86212e-08)
(1.73939 0.0145182 -1.86905e-07)
(1.33243 0.0601538 -7.51196e-07)
(0.132091 0.277266 -2.19379e-06)
(-0.442602 0.418758 7.01758e-07)
(-0.0926524 0.275534 6.75479e-07)
(0.0379704 0.292683 -1.26319e-07)
(-0.0795759 0.289937 -1.27374e-07)
(-0.0654394 0.263902 2.20399e-07)
(-0.0405298 0.255105 2.43436e-07)
(-0.0322115 0.255403 3.27199e-07)
(-0.0169764 0.262631 3.2513e-07)
(0.00164206 0.273166 3.23829e-07)
(0.0244494 0.283999 3.2562e-07)
(0.0507143 0.292545 3.53913e-07)
(0.0761373 0.303375 3.85228e-07)
(0.103663 0.315862 3.86496e-07)
(0.133519 0.329637 3.62976e-07)
(0.1454 0.348656 2.79757e-07)
(0.160438 0.367497 1.13142e-07)
(0.114801 0.39261 -9.9457e-08)
(0.0672323 0.415763 -2.81521e-07)
(1.81731 0.000126026 -4.6706e-09)
(1.84333 0.0010888 -1.65737e-08)
(1.84074 0.00216388 -2.23555e-08)
(1.82627 0.00461668 -4.84142e-08)
(1.76241 0.0132672 -1.56228e-07)
(1.45147 0.0540047 -6.21647e-07)
(0.310006 0.244091 -2.06592e-06)
(-0.401282 0.487415 2.39977e-07)
(-0.152327 0.322008 7.54872e-07)
(0.0705374 0.320826 -2.24613e-09)
(-0.0618764 0.332307 -1.0875e-07)
(-0.0583313 0.30095 1.85922e-07)
(-0.0297535 0.28799 1.75597e-07)
(-0.0197168 0.28687 2.79066e-07)
(-0.00424423 0.294834 2.88967e-07)
(0.0176139 0.307305 3.20437e-07)
(0.0404293 0.320627 3.23344e-07)
(0.0674084 0.329218 3.50156e-07)
(0.0933853 0.341555 3.88945e-07)
(0.12137 0.356803 4.08852e-07)
(0.153696 0.374354 3.82672e-07)
(0.168454 0.398843 3.14013e-07)
(0.185648 0.426648 1.56411e-07)
(0.145977 0.463618 -9.84422e-08)
(0.0872066 0.509098 -2.84403e-07)
(1.81816 0.000106412 -4.23869e-09)
(1.84444 0.000995711 -1.33783e-08)
(1.84232 0.00197486 -1.78668e-08)
(1.83076 0.00416276 -3.79082e-08)
(1.78212 0.0116471 -1.187e-07)
(1.54943 0.0456043 -5.01563e-07)
(0.515635 0.203152 -1.68474e-06)
(-0.325017 0.544998 -2.89655e-07)
(-0.224479 0.379582 8.7505e-07)
(0.0983897 0.342789 2.73726e-08)
(-0.0356293 0.376142 -3.09285e-08)
(-0.0512462 0.339239 1.90255e-07)
(-0.0188805 0.32072 1.457e-07)
(-0.00596378 0.318018 2.22286e-07)
(0.00960419 0.326088 2.35024e-07)
(0.0349853 0.340296 2.82057e-07)
(0.0575588 0.355516 3.00904e-07)
(0.0854162 0.365198 3.53167e-07)
(0.113097 0.378345 3.864e-07)
(0.142398 0.396088 4.05469e-07)
(0.178488 0.417911 3.89887e-07)
(0.199196 0.448658 3.14644e-07)
(0.22235 0.488984 2.1232e-07)
(0.198602 0.549963 -6.56947e-08)
(0.12455 0.656012 -2.59487e-07)
(1.81189 1.58859e-05 3.69991e-09)
(1.83605 0.00012281 2.51342e-08)
(1.82947 0.000250588 3.49169e-08)
(1.79067 0.000573223 8.10465e-08)
(1.59923 0.00190741 2.9234e-07)
(0.687423 0.00798449 9.81685e-07)
(-0.336116 0.0282308 2.55535e-07)
(-0.399161 0.025148 -7.4877e-07)
(-0.00569309 0.0230795 -6.79121e-07)
(-0.0836809 0.0254587 6.67524e-08)
(-0.119714 0.0242099 1.16677e-07)
(-0.097538 0.0224995 -5.19181e-09)
(-0.0891973 0.0219336 -1.9081e-08)
(-0.0830315 0.0222418 -1.87634e-08)
(-0.0714116 0.0230702 2.94233e-08)
(-0.0576051 0.0241703 5.55045e-08)
(-0.0371658 0.0249769 9.35664e-08)
(-0.015408 0.0259187 1.29883e-07)
(0.0135662 0.026836 1.20629e-07)
(0.0462049 0.027979 1.36496e-07)
(0.0739569 0.0288476 5.31523e-08)
(0.0848468 0.0300452 -6.52978e-08)
(0.100624 0.0310524 -2.26683e-07)
(0.0579544 0.0328933 -4.04281e-07)
(0.039316 0.0334829 -5.54658e-07)
(1.81208 4.93307e-05 2.6601e-09)
(1.8363 0.000381312 1.76948e-08)
(1.82989 0.000778076 2.32498e-08)
(1.79211 0.00178044 4.63149e-08)
(1.60591 0.00592481 1.29795e-07)
(0.709262 0.0249573 1.18724e-07)
(-0.326908 0.0842623 7.57121e-07)
(-0.406435 0.067183 -6.34976e-07)
(-0.00733152 0.0562638 -8.07958e-07)
(-0.0819426 0.060709 4.03319e-07)
(-0.118965 0.0556488 1.5493e-07)
(-0.0959335 0.0512567 2.85686e-08)
(-0.0865895 0.0500315 -3.9345e-08)
(-0.0800468 0.050645 -3.90957e-08)
(-0.068061 0.0518771 2.06257e-08)
(-0.0544587 0.0533609 6.34579e-08)
(-0.0341861 0.0544787 1.01028e-07)
(-0.0123502 0.0562867 1.3274e-07)
(0.0166121 0.0583678 1.29338e-07)
(0.0487948 0.0606581 1.28154e-07)
(0.0760277 0.0624509 6.07375e-08)
(0.0866712 0.0649777 -5.85796e-08)
(0.102177 0.0668092 -2.31146e-07)
(0.0591224 0.069489 -4.03232e-07)
(0.0398372 0.0702601 -5.53241e-07)
(1.81248 8.14726e-05 4.36646e-09)
(1.83685 0.000635145 2.64547e-08)
(1.83077 0.00129445 3.58504e-08)
(1.79514 0.00295235 7.87836e-08)
(1.62024 0.00974365 2.7029e-07)
(0.75968 0.0410644 9.44302e-07)
(-0.299398 0.144093 3.27773e-07)
(-0.416647 0.114299 -7.80253e-07)
(-0.00583114 0.0932063 -1.84515e-07)
(-0.0734806 0.102056 1.42729e-07)
(-0.11616 0.0939861 -4.56349e-08)
(-0.092752 0.0872822 -4.71989e-08)
(-0.0819943 0.0859492 -3.13277e-08)
(-0.0754891 0.087384 1.35241e-08)
(-0.0634019 0.0897734 3.97129e-08)
(-0.0498155 0.0923901 6.25288e-08)
(-0.0292952 0.094305 9.99883e-08)
(-0.00719618 0.0972869 1.21806e-07)
(0.0214942 0.101178 1.24989e-07)
(0.0530759 0.104736 1.32164e-07)
(0.0799636 0.107626 6.47919e-08)
(0.0902467 0.111509 -5.29527e-08)
(0.105133 0.114257 -2.30569e-07)
(0.0615251 0.118294 -4.02069e-07)
(0.0409813 0.119006 -5.59306e-07)
(1.81307 0.00010694 3.82826e-09)
(1.83764 0.000843752 2.81737e-08)
(1.83205 0.00171403 3.91055e-08)
(1.79944 0.00387509 8.97896e-08)
(1.64028 0.0125454 3.17093e-07)
(0.839007 0.0524984 1.08381e-06)
(-0.256024 0.197782 8.66359e-07)
(-0.431082 0.164545 -1.15359e-06)
(-0.00521144 0.128957 2.24954e-07)
(-0.0607148 0.143293 7.98707e-08)
(-0.112155 0.132126 -2.20976e-07)
(-0.0884237 0.122275 -1.64007e-07)
(-0.0757882 0.120272 -1.63263e-07)
(-0.0690555 0.1221 -1.01893e-07)
(-0.0564919 0.125614 -1.81268e-08)
(-0.0430026 0.129733 5.22777e-08)
(-0.022367 0.132778 9.25262e-08)
(0.00044213 0.137017 1.2061e-07)
(0.0288511 0.143058 1.18079e-07)
(0.0592531 0.147806 1.21922e-07)
(0.0856229 0.152118 6.66831e-08)
(0.0954824 0.157828 -4.58796e-08)
(0.110026 0.162275 -2.259e-07)
(0.065579 0.168613 -4.03135e-07)
(0.0426809 0.169469 -5.64415e-07)
(1.8138 0.000125359 3.08172e-09)
(1.83863 0.000998424 2.42326e-08)
(1.8336 0.00202031 3.38427e-08)
(1.80452 0.00451909 7.82314e-08)
(1.66362 0.0142822 2.74345e-07)
(0.942648 0.059431 9.55423e-07)
(-0.197609 0.242789 1.24823e-06)
(-0.446129 0.219671 -1.10574e-06)
(-0.0095353 0.163742 1.76235e-07)
(-0.043048 0.183338 2.33671e-07)
(-0.10726 0.170494 -2.85819e-07)
(-0.0835263 0.157286 -2.52508e-07)
(-0.0684193 0.154431 -1.77467e-07)
(-0.0616669 0.156469 -1.01179e-07)
(-0.0484532 0.160838 -2.05347e-08)
(-0.0345598 0.166363 5.42844e-08)
(-0.0135999 0.170847 9.87184e-08)
(0.0103029 0.176361 1.20226e-07)
(0.0380601 0.184066 1.20385e-07)
(0.0671465 0.189855 1.23853e-07)
(0.0936357 0.196034 8.11795e-08)
(0.103269 0.204234 -4.14551e-08)
(0.117403 0.211277 -2.18307e-07)
(0.0715499 0.221007 -4.00992e-07)
(0.0451163 0.222722 -5.6241e-07)
(1.81463 0.000136972 2.15002e-09)
(1.83974 0.00109954 1.91856e-08)
(1.83534 0.00221619 2.71317e-08)
(1.81005 0.00490755 6.37782e-08)
(1.68878 0.0151314 2.22802e-07)
(1.06688 0.0628619 8.11703e-07)
(-0.117461 0.275358 1.57119e-06)
(-0.457652 0.280739 -9.96637e-07)
(-0.0229461 0.198844 4.06904e-08)
(-0.0205251 0.222216 3.81676e-07)
(-0.100674 0.209404 -3.21586e-07)
(-0.0780789 0.192464 -2.74762e-07)
(-0.0600217 0.18832 -1.5085e-07)
(-0.0530246 0.190201 -8.6161e-08)
(-0.0389775 0.195511 1.36449e-08)
(-0.0242656 0.202632 6.64488e-08)
(-0.00289629 0.208814 1.10593e-07)
(0.0220686 0.215728 1.20445e-07)
(0.0489439 0.224376 1.24542e-07)
(0.0769312 0.231878 1.32811e-07)
(0.10408 0.240097 9.11981e-08)
(0.113957 0.251227 -3.64581e-08)
(0.128063 0.261119 -2.14027e-07)
(0.0805147 0.275046 -3.97172e-07)
(0.0487349 0.280632 -5.44279e-07)
(1.81551 0.000141743 1.41058e-09)
(1.84093 0.00114825 1.38512e-08)
(1.83717 0.00230343 2.00025e-08)
(1.8157 0.0050437 4.86025e-08)
(1.71445 0.0151746 1.6922e-07)
(1.2011 0.0630558 6.64791e-07)
(-0.00916373 0.288026 1.78411e-06)
(-0.459246 0.348144 -8.40189e-07)
(-0.0494977 0.235467 -1.0306e-07)
(0.00667598 0.259085 4.44247e-07)
(-0.0919716 0.24914 -3.51164e-07)
(-0.0720541 0.227932 -2.72523e-07)
(-0.050642 0.221944 -1.00591e-07)
(-0.0432323 0.223282 -5.35366e-08)
(-0.0284942 0.229566 3.4807e-08)
(-0.0122637 0.23831 8.88044e-08)
(0.00982472 0.246565 1.121e-07)
(0.0355169 0.254765 1.2699e-07)
(0.0615097 0.264196 1.41632e-07)
(0.0889883 0.274012 1.4157e-07)
(0.117211 0.284666 9.38657e-08)
(0.127741 0.299326 -3.11729e-08)
(0.142076 0.312704 -2.09494e-07)
(0.0946614 0.331142 -3.90967e-07)
(0.0558688 0.343395 -5.35392e-07)
(1.81642 0.000138194 7.79787e-10)
(1.84215 0.00114294 9.09397e-09)
(1.839 0.00228127 1.33716e-08)
(1.82119 0.00493309 3.36088e-08)
(1.73942 0.0145085 1.19504e-07)
(1.3326 0.060113 5.29364e-07)
(0.132284 0.277076 1.68958e-06)
(-0.442602 0.418658 -4.3364e-07)
(-0.0927066 0.27543 -2.29389e-07)
(0.0380295 0.292478 5.11288e-07)
(-0.0796016 0.289861 -2.51259e-07)
(-0.0654422 0.26391 -2.05926e-07)
(-0.0404897 0.255143 -5.27505e-08)
(-0.0321641 0.255468 -3.46315e-08)
(-0.0169195 0.262701 5.69319e-08)
(0.0016927 0.273243 9.37225e-08)
(0.0244782 0.284074 8.47002e-08)
(0.0507294 0.292612 1.21898e-07)
(0.0761302 0.30342 1.51071e-07)
(0.103646 0.315899 1.48196e-07)
(0.133497 0.32967 9.16074e-08)
(0.145378 0.348688 -2.31226e-08)
(0.160419 0.367528 -1.96313e-07)
(0.114786 0.392637 -3.73825e-07)
(0.0672266 0.415786 -5.15437e-07)
(1.81731 0.000125994 3.14577e-10)
(1.84333 0.00108839 5.20774e-09)
(1.84074 0.00216305 7.93879e-09)
(1.82627 0.00461476 2.09003e-08)
(1.76242 0.013261 7.82264e-08)
(1.45156 0.0539764 3.49481e-07)
(0.310182 0.243947 1.29789e-06)
(-0.401265 0.487282 1.36464e-08)
(-0.152439 0.321898 -2.28557e-07)
(0.0704966 0.320607 4.81914e-07)
(-0.0619668 0.332185 -7.89193e-08)
(-0.0584319 0.300938 -1.17385e-07)
(-0.0298122 0.288028 4.5181e-09)
(-0.0197532 0.286947 8.60349e-09)
(-0.00425049 0.294919 5.31187e-08)
(0.0176065 0.30739 7.75557e-08)
(0.0404213 0.320704 8.6871e-08)
(0.0674001 0.329287 1.20015e-07)
(0.093365 0.341605 1.54835e-07)
(0.121347 0.356843 1.46491e-07)
(0.153672 0.374389 8.34374e-08)
(0.168431 0.398877 -2.09148e-08)
(0.185627 0.426681 -1.61498e-07)
(0.145959 0.463649 -3.45063e-07)
(0.0871995 0.509123 -4.73001e-07)
(1.81816 0.000106398 6.47146e-11)
(1.84444 0.000995503 2.36003e-09)
(1.84232 0.00197443 3.83863e-09)
(1.83076 0.00416173 1.09772e-08)
(1.78212 0.0116435 4.25926e-08)
(1.54947 0.0455875 2.11313e-07)
(0.515762 0.203065 8.23694e-07)
(-0.324991 0.54485 3.34423e-07)
(-0.224593 0.379471 -2.11944e-07)
(0.0983056 0.34261 3.58607e-07)
(-0.0357266 0.375986 8.37159e-08)
(-0.0513683 0.339203 -2.11032e-08)
(-0.0189873 0.320741 4.79199e-08)
(-0.00604835 0.318076 5.21501e-08)
(0.00956287 0.326166 4.9807e-08)
(0.0349546 0.34037 4.68915e-08)
(0.057534 0.355587 8.4655e-08)
(0.0853916 0.365259 1.16107e-07)
(0.113065 0.378396 1.52722e-07)
(0.142369 0.396128 1.36656e-07)
(0.178461 0.417945 7.209e-08)
(0.199173 0.448691 -2.37145e-08)
(0.222329 0.489016 -1.35887e-07)
(0.198583 0.549997 -2.89235e-07)
(0.124541 0.65604 -4.04219e-07)
(1.81189 1.58972e-05 -2.33472e-10)
(1.83605 0.000122878 4.64776e-10)
(1.82947 0.000250729 1.58965e-09)
(1.79067 0.000573565 8.42435e-09)
(1.59921 0.00190866 5.00462e-08)
(0.68738 0.0079904 2.46964e-07)
(-0.336148 0.0282452 3.40307e-07)
(-0.399165 0.0251494 7.80117e-09)
(-0.00571847 0.023086 -3.91129e-08)
(-0.0837032 0.025463 -8.9617e-08)
(-0.11972 0.024214 -1.01005e-07)
(-0.0975386 0.0225101 -6.61976e-08)
(-0.0892002 0.0219474 -4.51869e-08)
(-0.0830395 0.0222533 -3.69973e-08)
(-0.0714252 0.0230753 -3.59944e-08)
(-0.0576204 0.024171 -3.17105e-08)
(-0.0371806 0.0249755 -3.60484e-08)
(-0.0154206 0.025917 -4.5186e-08)
(0.0135569 0.0268333 -6.75636e-08)
(0.0461964 0.0279767 -3.6575e-08)
(0.0739492 0.0288448 -4.57754e-08)
(0.0848367 0.0300422 -8.3839e-08)
(0.10061 0.0310493 -1.42617e-07)
(0.0579434 0.0328904 -2.05889e-07)
(0.0393119 0.03348 -2.46261e-07)
(1.81208 4.9336e-05 -9.6367e-11)
(1.8363 0.000381375 1.36882e-09)
(1.82989 0.00077821 2.9378e-09)
(1.79211 0.00178078 1.19703e-08)
(1.6059 0.00592616 6.52557e-08)
(0.709232 0.0249633 3.42118e-07)
(-0.326894 0.084271 3.19069e-07)
(-0.406404 0.0671715 -4.29918e-08)
(-0.00730965 0.0562528 -4.15966e-08)
(-0.0819254 0.0606878 -1.27753e-07)
(-0.118944 0.0556297 -9.70209e-08)
(-0.0959145 0.051251 -6.64155e-08)
(-0.0865821 0.0500347 -4.08591e-08)
(-0.0800529 0.0506506 -2.11582e-08)
(-0.0680748 0.0518849 -2.49578e-08)
(-0.0544737 0.0533677 -2.13741e-08)
(-0.0342009 0.0544831 -2.19883e-08)
(-0.0123637 0.0562873 -2.94548e-08)
(0.0166019 0.0583639 -4.90159e-08)
(0.0487859 0.0606537 -3.17386e-08)
(0.0760192 0.0624449 -4.25265e-08)
(0.0866606 0.0649712 -8.42171e-08)
(0.102164 0.0668022 -1.43399e-07)
(0.0591113 0.0694825 -2.03784e-07)
(0.0398329 0.0702532 -2.37494e-07)
(1.81248 8.14681e-05 -8.23405e-11)
(1.83685 0.000635144 1.81918e-09)
(1.83077 0.00129446 3.55639e-09)
(1.79514 0.00295241 1.31942e-08)
(1.62023 0.00974408 6.69076e-08)
(0.75965 0.0410665 3.17151e-07)
(-0.299413 0.144099 3.70479e-07)
(-0.416634 0.114297 -1.16609e-07)
(-0.00581869 0.0932042 -7.66691e-08)
(-0.0734696 0.102041 -1.36117e-07)
(-0.11614 0.0939965 -5.60774e-08)
(-0.0927348 0.087322 -6.98856e-08)
(-0.0819909 0.0859969 -8.36183e-08)
(-0.0754941 0.0874313 -5.33743e-08)
(-0.0634165 0.0898008 -2.44198e-08)
(-0.0498338 0.0924026 -1.31795e-08)
(-0.029315 0.0943079 -4.84565e-09)
(-0.00721532 0.0972833 -2.18258e-08)
(0.0214808 0.101172 -3.61503e-08)
(0.0530659 0.104729 -1.56397e-08)
(0.0799542 0.107617 -4.0212e-08)
(0.0902356 0.111499 -8.41698e-08)
(0.105119 0.114246 -1.41638e-07)
(0.0615139 0.118284 -2.00547e-07)
(0.0409767 0.118995 -2.36906e-07)
(1.81307 0.000106913 -8.71782e-12)
(1.83764 0.00084365 2.53293e-09)
(1.83204 0.00171383 4.49945e-09)
(1.79944 0.00387467 1.49781e-08)
(1.64028 0.0125442 7.0459e-08)
(0.838984 0.052494 3.17222e-07)
(-0.256015 0.197763 4.17832e-07)
(-0.431057 0.164542 -1.56705e-07)
(-0.00521509 0.12895 -1.27815e-07)
(-0.0607437 0.143278 -8.42209e-08)
(-0.112186 0.132153 1.27647e-08)
(-0.0884846 0.122321 -2.01682e-08)
(-0.0758746 0.120306 -7.13581e-08)
(-0.0691558 0.122112 -2.69301e-08)
(-0.0565689 0.12562 -2.96138e-08)
(-0.04305 0.129734 -1.04567e-08)
(-0.0223981 0.132775 -1.80987e-09)
(0.000421556 0.137011 -5.37087e-09)
(0.0288375 0.143051 -1.05583e-08)
(0.0592413 0.147797 -6.35191e-09)
(0.0856121 0.152106 -3.63208e-08)
(0.0954704 0.157815 -8.21083e-08)
(0.110011 0.162261 -1.36754e-07)
(0.0655671 0.1686 -1.93229e-07)
(0.0426757 0.169454 -2.33243e-07)
(1.8138 0.000125371 -2.09339e-10)
(1.83862 0.000998432 1.87005e-09)
(1.8336 0.00202031 3.27025e-09)
(1.80452 0.00451898 1.05182e-08)
(1.66361 0.0142815 4.77904e-08)
(0.942594 0.059427 2.18937e-07)
(-0.197656 0.242773 4.53503e-07)
(-0.446158 0.219679 -5.06945e-08)
(-0.00962173 0.163752 -2.63998e-07)
(-0.0431924 0.183342 8.15635e-08)
(-0.107406 0.170532 1.12356e-07)
(-0.0836946 0.157304 -2.30723e-08)
(-0.068587 0.154412 -7.148e-08)
(-0.0617802 0.156418 -1.07728e-07)
(-0.0485264 0.160802 -5.70785e-08)
(-0.0346113 0.166341 -1.73015e-08)
(-0.0136356 0.170837 1.19683e-08)
(0.0102766 0.176354 1.0318e-08)
(0.0380434 0.184055 1.8285e-08)
(0.0671332 0.189843 3.41645e-09)
(0.0936235 0.19602 -3.4482e-08)