/*--------------------------------*- C++ -*----------------------------------*\
| =========                 |                                                 |
| \\      /  F ield         | OpenFOAM: The Open Source CFD Toolbox           |
|  \\    /   O peration     | Version:  4.1                                   |
|   \\  /    A nd           | Web:      www.OpenFOAM.org                      |
|    \\/     M anipulation  |                                                 |
\*---------------------------------------------------------------------------*/
FoamFile
{
    version     2.0;
    format      ascii;
    class       volScalarField;
    location    "0.62";
    object      Ma;
}
// * * * * * * * * * * * * * * * * * * * * * * * * * * * * * * * * * * * * * //

dimensions      [0 0 0 0 0 0 0];

internalField   nonuniform List<scalar> 
18000
(
5.37452e-12
5.31415e-12
5.2428e-12
5.18364e-12
5.12504e-12
5.06723e-12
5.01001e-12
4.9539e-12
4.89861e-12
4.84499e-12
6.71836e-12
6.48305e-12
6.24607e-12
6.02834e-12
5.81996e-12
5.62026e-12
5.42862e-12
5.24515e-12
5.06862e-12
4.90266e-12
8.50021e-12
7.98539e-12
7.4963e-12
7.04996e-12
6.63506e-12
6.24961e-12
5.89174e-12
5.55798e-12
5.24732e-12
4.9615e-12
1.08954e-11
9.93543e-12
9.06709e-12
8.29053e-12
7.59427e-12
6.96808e-12
6.40378e-12
5.89426e-12
5.43348e-12
5.02133e-12
1.41652e-11
1.24978e-11
1.10558e-11
9.80809e-12
8.72837e-12
7.78992e-12
6.97172e-12
6.25617e-12
5.62808e-12
5.08231e-12
1.87028e-11
1.5909e-11
1.36009e-11
1.16773e-11
1.00755e-11
8.7332e-12
7.60272e-12
6.64572e-12
5.83127e-12
5.14432e-12
2.51063e-11
2.05193e-11
1.68906e-11
1.39982e-11
1.16849e-11
9.81968e-12
8.30475e-12
7.06528e-12
6.04399e-12
5.20733e-12
3.43574e-11
2.6874e-11
2.12446e-11
1.69696e-11
1.37007e-11
1.11741e-11
9.2011e-12
7.64631e-12
6.40946e-12
5.43467e-12
4.26383e-09
4.24863e-09
3.99624e-09
3.76848e-09
3.5636e-09
3.37862e-09
3.211e-09
3.05855e-09
2.91962e-09
2.8464e-09
4.60559e-07
5.23538e-08
4.46448e-08
3.88375e-08
3.39791e-08
2.98877e-08
2.64231e-08
2.34762e-08
2.08794e-08
8.06288e-08
5.6736e-12
5.60671e-12
5.53262e-12
5.46751e-12
5.40365e-12
5.34101e-12
5.27843e-12
5.21774e-12
5.15785e-12
5.09937e-12
7.13951e-12
6.87926e-12
6.62726e-12
6.38826e-12
6.1603e-12
5.94204e-12
5.73375e-12
5.53422e-12
5.34344e-12
5.16228e-12
9.09207e-12
8.52119e-12
7.99703e-12
7.50502e-12
7.05024e-12
6.62888e-12
6.23891e-12
5.87624e-12
5.53927e-12
5.22747e-12
1.17459e-11
1.06776e-11
9.73471e-12
8.87446e-12
8.10667e-12
7.41905e-12
6.80215e-12
6.24741e-12
5.74612e-12
5.29363e-12
1.54146e-11
1.35474e-11
1.19595e-11
1.05656e-11
9.36677e-12
8.33071e-12
7.43177e-12
6.64917e-12
5.96461e-12
5.36248e-12
2.0584e-11
1.74214e-11
1.48411e-11
1.26702e-11
1.08775e-11
9.38558e-12
8.13733e-12
7.08642e-12
6.19625e-12
5.43358e-12
2.8011e-11
2.27445e-11
1.86171e-11
1.53129e-11
1.27001e-11
1.06116e-11
8.92848e-12
7.56167e-12
6.44028e-12
5.50706e-12
3.89547e-11
3.01819e-11
2.36324e-11
1.86648e-11
1.4915e-11
1.20448e-11
9.82238e-12
8.08128e-12
6.70148e-12
5.58534e-12
1.37692e-10
2.99422e-10
2.45395e-10
2.0249e-10
1.68977e-10
1.42429e-10
1.21146e-10
1.03899e-10
8.97937e-11
7.8899e-11
3.14047e-07
4.77844e-08
4.16537e-08
3.65253e-08
3.22765e-08
2.87214e-08
2.57191e-08
2.31626e-08
2.09744e-08
1.98915e-08
4.92249e-13
4.70385e-13
3.42371e-13
3.27081e-13
3.13075e-13
3.00556e-13
2.89334e-13
2.79838e-13
2.71485e-13
2.62124e-13
6.82275e-13
6.12744e-13
5.44595e-13
4.9474e-13
4.49785e-13
4.09809e-13
3.74267e-13
3.43812e-13
3.18527e-13
2.76772e-13
8.48723e-13
7.36738e-13
7.27016e-13
6.47143e-13
5.76464e-13
5.15166e-13
4.62902e-13
4.18781e-13
3.80022e-13
2.97021e-13
1.13721e-12
9.93075e-13
1.0139e-12
8.81372e-13
7.675e-13
6.71729e-13
5.91216e-13
5.24174e-13
4.65805e-13
3.27019e-13
1.60591e-12
1.43176e-12
1.4299e-12
1.20871e-12
1.02495e-12
8.75328e-13
7.52884e-13
6.52605e-13
5.66812e-13
3.64851e-13
2.36876e-12
2.14389e-12
2.02941e-12
1.65947e-12
1.36544e-12
1.13394e-12
9.50462e-13
8.04038e-13
6.81574e-13
4.09165e-13
3.62071e-12
3.27151e-12
2.89721e-12
2.27947e-12
1.81223e-12
1.45909e-12
1.18823e-12
9.78929e-13
8.09542e-13
4.5917e-13
5.75989e-12
5.05918e-12
4.16315e-12
3.1356e-12
2.39896e-12
1.86589e-12
1.47303e-12
1.17952e-12
9.50553e-13
5.14078e-13
2.18314e-10
1.06925e-11
8.58109e-12
6.2726e-12
4.69466e-12
3.59019e-12
2.79904e-12
2.22047e-12
1.78462e-12
1.28567e-12
2.68773e-07
3.41835e-09
2.51945e-09
1.93041e-09
1.50315e-09
1.18748e-09
9.50338e-10
7.69522e-10
6.29961e-10
5.30268e-10
3.84538e-13
3.607e-13
1.72026e-13
1.51238e-13
1.30887e-13
1.11776e-13
9.39129e-14
7.75291e-14
6.29813e-14
3.70912e-14
5.31984e-13
4.59646e-13
3.85926e-13
3.35909e-13
2.89288e-13
2.47635e-13
2.10896e-13
1.79207e-13
1.52806e-13
7.94455e-14
5.95669e-13
4.89125e-13
5.23506e-13
4.55602e-13
3.95405e-13
3.44218e-13
3.01655e-13
2.67613e-13
2.39061e-13
1.19599e-13
7.29337e-13
6.35015e-13
7.60562e-13
6.57814e-13
5.6893e-13
4.9549e-13
4.34906e-13
3.85623e-13
3.43344e-13
1.71017e-13
9.57861e-13
9.44305e-13
1.10775e-12
9.42011e-13
8.02624e-13
6.89139e-13
5.96613e-13
5.21514e-13
4.56626e-13
2.24534e-13
1.34242e-12
1.48599e-12
1.61032e-12
1.33455e-12
1.11006e-12
9.32256e-13
7.89951e-13
6.76448e-13
5.79591e-13
2.81123e-13
1.98001e-12
2.36334e-12
2.33807e-12
1.87422e-12
1.51289e-12
1.23578e-12
1.02013e-12
8.51725e-13
7.12614e-13
3.40904e-13
3.10916e-12
3.76119e-12
3.39646e-12
2.6178e-12
2.04e-12
1.61406e-12
1.29377e-12
1.05038e-12
8.56694e-13
4.03897e-13
2.39098e-10
6.70777e-12
4.90189e-12
3.61873e-12
2.71592e-12
2.07688e-12
1.6139e-12
1.27371e-12
1.01177e-12
4.70173e-13
2.65714e-07
1.05009e-09
7.96924e-11
5.26921e-11
3.59736e-11
2.51345e-11
1.7936e-11
1.30397e-11
9.64116e-12
7.16594e-12
3.84491e-13
3.60234e-13
1.72213e-13
1.5131e-13
1.30893e-13
1.11687e-13
9.4044e-14
7.76197e-14
6.28423e-14
3.68631e-14
5.32257e-13
4.59804e-13
3.86474e-13
3.36431e-13
2.89839e-13
2.47883e-13
2.11047e-13
1.7955e-13
1.53065e-13
7.93907e-14
5.96352e-13
4.8985e-13
5.24771e-13
4.56592e-13
3.96007e-13
3.44881e-13
3.02221e-13
2.67907e-13
2.39096e-13
1.19589e-13
7.3073e-13
6.36718e-13
7.62414e-13
6.59499e-13
5.7023e-13
4.96492e-13
4.35768e-13
3.86323e-13
3.43754e-13
1.70775e-13
9.60207e-13
9.47533e-13
1.11124e-12
9.44737e-13
8.04785e-13
6.91123e-13
5.97957e-13
5.22275e-13
4.57383e-13
2.24965e-13
1.34596e-12
1.49185e-12
1.61574e-12
1.33929e-12
1.11375e-12
9.35323e-13
7.92485e-13
6.78229e-13
5.81065e-13
2.81952e-13
1.98477e-12
2.37395e-12
2.34804e-12
1.88211e-12
1.51929e-12
1.24099e-12
1.02419e-12
8.54796e-13
7.15288e-13
3.42544e-13
3.11706e-12
3.78064e-12
3.41365e-12
2.63144e-12
2.05084e-12
1.62251e-12
1.30042e-12
1.05569e-12
8.60732e-13
4.0668e-13
2.49415e-10
6.95489e-12
4.98396e-12
3.66996e-12
2.74898e-12
2.09867e-12
1.6285e-12
1.28379e-12
1.01882e-12
4.74035e-13
2.82773e-07
1.13251e-09
1.16014e-11
5.27709e-12
3.75952e-12
2.75462e-12
2.06119e-12
1.57243e-12
1.21114e-12
5.66396e-13
3.84549e-13
3.59893e-13
1.72765e-13
1.51832e-13
1.31233e-13
1.11979e-13
9.41137e-14
7.79061e-14
6.32031e-14
3.68372e-14
5.3313e-13
4.60285e-13
3.87738e-13
3.37506e-13
2.90782e-13
2.48581e-13
2.11503e-13
1.79844e-13
1.53635e-13
7.98664e-14
5.98214e-13
4.91646e-13
5.27106e-13
4.58515e-13
3.97708e-13
3.46114e-13
3.03102e-13
2.6853e-13
2.39656e-13
1.20097e-13
7.34572e-13
6.40809e-13
7.66223e-13
6.62606e-13
5.72777e-13
4.98398e-13
4.37186e-13
3.87434e-13
3.44462e-13
1.71359e-13
9.67682e-13
9.55169e-13
1.11748e-12
9.49748e-13
8.08761e-13
6.94409e-13
6.00591e-13
5.24344e-13
4.58853e-13
2.25911e-13
1.36e-12
1.50539e-12
1.62656e-12
1.34752e-12
1.12017e-12
9.40586e-13
7.96701e-13
6.813e-13
5.83576e-13
2.83689e-13
2.01109e-12
2.39741e-12
2.36643e-12
1.89616e-12
1.53005e-12
1.2495e-12
1.03091e-12
8.59931e-13
7.19327e-13
3.45357e-13
3.16962e-12
3.82297e-12
3.44551e-12
2.65494e-12
2.06844e-12
1.63611e-12
1.31103e-12
1.06378e-12
8.66919e-13
4.10804e-13
2.6464e-10
7.10645e-12
5.04113e-12
3.70994e-12
2.77796e-12
2.12028e-12
1.64469e-12
1.29587e-12
1.02824e-12
4.80405e-13
3.08458e-07
1.22144e-09
1.18083e-11
5.13535e-12
3.69107e-12
2.72103e-12
2.04508e-12
1.56515e-12
1.20838e-12
5.60949e-13
3.84525e-13
3.59604e-13
1.73368e-13
1.52465e-13
1.31838e-13
1.12526e-13
9.45792e-14
7.81469e-14
6.34828e-14
3.98972e-14
5.34129e-13
4.60929e-13
3.8937e-13
3.38774e-13
2.91903e-13
2.49679e-13
2.12408e-13
1.80501e-13
1.53878e-13
8.11421e-14
6.00492e-13
4.93766e-13
5.29808e-13
4.60882e-13
3.99625e-13
3.47698e-13
3.04219e-13
2.69389e-13
2.40378e-13
1.21178e-13
7.3918e-13
6.45659e-13
7.70644e-13
6.66345e-13
5.75962e-13
5.00935e-13
4.39002e-13
3.88752e-13
3.45786e-13
1.72653e-13
9.7666e-13
9.64185e-13
1.12486e-12
9.55639e-13
8.13485e-13
6.98436e-13
6.03879e-13
5.26889e-13
4.60836e-13
2.27796e-13
1.37714e-12
1.52105e-12
1.6392e-12
1.35759e-12
1.12793e-12
9.46914e-13
8.01966e-13
6.85477e-13
5.86752e-13
2.86379e-13
2.04296e-12
2.42513e-12
2.38781e-12
1.91273e-12
1.54293e-12
1.25981e-12
1.03928e-12
8.66532e-13
7.24416e-13
3.49433e-13
3.22545e-12
3.87223e-12
3.48277e-12
2.68281e-12
2.08946e-12
1.6523e-12
1.32412e-12
1.07414e-12
8.74818e-13
4.16546e-13
2.7212e-10
7.15702e-12
5.10567e-12
3.75673e-12
2.81241e-12
2.14617e-12
1.66486e-12
1.31094e-12
1.03993e-12
4.88772e-13
3.2957e-07
1.24423e-09
1.16695e-11
5.20505e-12
3.74299e-12
2.75926e-12
2.07413e-12
1.58698e-12
1.22494e-12
5.72323e-13
3.84595e-13
3.58619e-13
1.73736e-13
1.52849e-13
1.32585e-13
1.14113e-13
9.85039e-14
1.14725e-13
3.34165e-13
1.01873e-12
5.34778e-13
4.60669e-13
3.90271e-13
3.39801e-13
2.93106e-13
2.51288e-13
2.14954e-13
1.91284e-13
2.50323e-13
6.68277e-13
6.0206e-13
4.94326e-13
5.31373e-13
4.62367e-13
4.0128e-13
3.49831e-13
3.0738e-13
2.75449e-13
2.77041e-13
4.54109e-13
7.42615e-13
6.47395e-13
7.73065e-13
6.68577e-13
5.78123e-13
5.0352e-13
4.42849e-13
3.94336e-13
3.63935e-13
3.55466e-13
9.83134e-13
9.67595e-13
1.12845e-12
9.59004e-13
8.16606e-13
7.01536e-13
6.08343e-13
5.33075e-13
4.7408e-13
3.30681e-13
1.38827e-12
1.52714e-12
1.64488e-12
1.36291e-12
1.13289e-12
9.51906e-13
8.08199e-13
6.93399e-13
5.99163e-13
3.50614e-13
2.06175e-12
2.43606e-12
2.39751e-12
1.92156e-12
1.55081e-12
1.26749e-12
1.04778e-12
8.76798e-13
7.37825e-13
3.95074e-13
3.21891e-12
3.89217e-12
3.49979e-12
2.69787e-12
2.10249e-12
1.66385e-12
1.33582e-12
1.08796e-12
8.91014e-13
4.53341e-13
2.04992e-10
6.68487e-12
5.13233e-12
3.78204e-12
2.8334e-12
2.16431e-12
1.68228e-12
1.32965e-12
1.05927e-12
5.21517e-13
2.79738e-07
7.44982e-10
9.29388e-12
5.23523e-12
3.7748e-12
2.78635e-12
2.09857e-12
1.6113e-12
1.24933e-12
6.0431e-13
3.96211e-13
4.25534e-13
2.32812e-13
1.57724e-13
1.97354e-13
5.03389e-13
1.08813e-12
4.28606e-12
1.61782e-11
4.46123e-11
5.61469e-13
5.79548e-13
4.64629e-13
3.61316e-13
2.96696e-13
4.65986e-13
8.76291e-13
2.71354e-12
9.49747e-12
2.91388e-11
6.57168e-13
7.03865e-13
6.48321e-13
5.15123e-13
3.99006e-13
4.37344e-13
8.17919e-13
1.88299e-12
6.04737e-12
1.90031e-11
8.33903e-13
9.41907e-13
9.2636e-13
7.49194e-13
5.88414e-13
5.18889e-13
7.82356e-13
1.43408e-12
4.19101e-12
1.28263e-11
1.12012e-12
1.3274e-12
1.31239e-12
1.06329e-12
8.44147e-13
6.91131e-13
7.78436e-13
1.22082e-12
3.1523e-12
8.96181e-12
1.57663e-12
1.93181e-12
1.85198e-12
1.48272e-12
1.17227e-12
9.36352e-13
8.74007e-13
1.25268e-12
2.53713e-12
6.46623e-12
2.29921e-12
2.87139e-12
2.61544e-12
2.0459e-12
1.59394e-12
1.24973e-12
1.05509e-12
1.23428e-12
2.1621e-12
4.80456e-12
3.41832e-12
4.33255e-12
3.70858e-12
2.81028e-12
2.13695e-12
1.63987e-12
1.31155e-12
1.28939e-12
1.93295e-12
3.67063e-12
7.07673e-11
6.18579e-12
5.29539e-12
3.85961e-12
2.84217e-12
2.12304e-12
1.63614e-12
1.42782e-12
1.79143e-12
2.88409e-12
4.3184e-08
1.29212e-09
5.66829e-12
5.22637e-12
3.73742e-12
2.71307e-12
2.0267e-12
1.63763e-12
1.73406e-12
2.33909e-12
2.51708e-12
2.36646e-12
1.51295e-12
1.58165e-13
2.69567e-12
8.84246e-12
2.74058e-11
1.12236e-10
3.9027e-10
5.814e-10
3.54635e-12
3.42366e-12
2.53312e-12
1.14727e-12
1.34349e-12
6.34423e-12
1.9667e-11
6.99784e-11
2.30637e-10
3.71321e-10
4.81386e-12
4.68107e-12
3.70263e-12
2.30019e-12
2.55467e-13
4.14324e-12
1.3999e-11
4.65439e-11
1.45565e-10
2.50138e-10
6.47599e-12
6.25635e-12
5.09699e-12
3.58188e-12
1.41779e-12
2.30775e-12
9.90659e-12
3.23661e-11
9.66208e-11
1.74124e-10
8.70211e-12
8.26436e-12
6.78918e-12
5.0555e-12
2.82197e-12
7.70799e-13
6.85455e-12
2.30379e-11
6.6615e-11
1.24422e-10
1.17393e-11
1.08681e-11
8.8789e-12
6.77085e-12
4.3281e-12
1.18711e-12
4.41918e-12
1.63821e-11
4.72994e-11
9.09395e-11
1.59708e-11
1.43191e-11
1.15074e-11
8.80656e-12
6.006e-12
2.71884e-12
2.41743e-12
1.17756e-11
3.43604e-11
6.77568e-11
2.20278e-11
1.89804e-11
1.48663e-11
1.1266e-11
7.89422e-12
4.32715e-12
1.06013e-12
8.32041e-12
2.53624e-11
5.13035e-11
3.33655e-10
2.54012e-11
1.92433e-11
1.42855e-11
1.00628e-11
6.04556e-12
1.77851e-12
5.62481e-12
1.89231e-11
3.93584e-11
7.31325e-07
2.05417e-09
2.53132e-11
1.80446e-11
1.25776e-11
7.88896e-12
3.29243e-12
3.50269e-12
1.41632e-11
3.04975e-11
3.34692e-12
3.01016e-12
1.98325e-12
1.95587e-12
8.44926e-12
3.00634e-11
1.31319e-10
5.50122e-10
1.11249e-09
1.29699e-09
4.43227e-12
4.12961e-12
3.14797e-12
1.65238e-12
5.27436e-12
2.04409e-11
8.07552e-11
3.16584e-10
6.81516e-10
7.77006e-10
5.7507e-12
5.42525e-12
4.45792e-12
2.74672e-12
2.83544e-12
1.35448e-11
5.22449e-11
1.94338e-10
4.37496e-10
4.91283e-10
7.43711e-12
6.99168e-12
5.93882e-12
4.24429e-12
1.95559e-12
8.53048e-12
3.4807e-11
1.2513e-10
2.90087e-10
3.22446e-10
9.64674e-12
8.93639e-12
7.66329e-12
5.89774e-12
3.12509e-12
4.88249e-12
2.33254e-11
8.32507e-11
1.97493e-10
2.18208e-10
1.26148e-11
1.1409e-11
9.72689e-12
7.73279e-12
4.91786e-12
2.53467e-12
1.52372e-11
5.64406e-11
1.37615e-10
1.51479e-10
1.66961e-11
1.46259e-11
1.22589e-11
9.8287e-12
6.85884e-12
2.75927e-12
9.54907e-12
3.8786e-11
9.74008e-11
1.0733e-10
2.2454e-11
1.89045e-11
1.54393e-11
1.22831e-11
8.94282e-12
4.61471e-12
5.38478e-12
2.66865e-11
6.98161e-11
7.73003e-11
1.80532e-10
2.48544e-11
1.9519e-11
1.52288e-11
1.12456e-11
6.7364e-12
2.76383e-12
1.81211e-11
5.04883e-11
5.63299e-11
1.49452e-07
7.0762e-09
3.96798e-11
1.881e-11
1.38294e-11
8.9145e-12
3.02233e-12
1.18603e-11
3.66507e-11
4.13338e-11
1.0246e-12
1.27645e-12
1.53985e-12
3.21201e-12
8.45489e-12
2.48264e-11
8.66524e-11
2.6779e-10
3.9805e-10
2.71253e-10
1.11584e-12
1.28374e-12
1.41567e-12
2.4424e-12
6.03578e-12
1.73524e-11
5.7712e-11
1.70582e-10
2.42457e-10
9.88821e-11
1.21159e-12
1.33301e-12
1.41737e-12
1.97815e-12
4.34049e-12
1.22265e-11
3.92636e-11
1.11989e-10
1.53134e-10
3.97896e-11
1.31191e-12
1.41117e-12
1.49642e-12
1.79864e-12
3.20661e-12
8.65554e-12
2.72235e-11
7.54911e-11
9.99e-11
2.77338e-11
1.41855e-12
1.5075e-12
1.61197e-12
1.79991e-12
2.5314e-12
6.15295e-12
1.90792e-11
5.20484e-11
6.6806e-11
2.47725e-11
1.53965e-12
1.61952e-12
1.74295e-12
1.8905e-12
2.22542e-12
4.46245e-12
1.34555e-11
3.66852e-11
4.55313e-11
2.20457e-11
1.68102e-12
1.74807e-12
1.88113e-12
2.02104e-12
2.16589e-12
3.36628e-12
9.52276e-12
2.60489e-11
3.14653e-11
1.92492e-11
1.88166e-12
1.89618e-12
2.02976e-12
2.16572e-12
2.23337e-12
2.75868e-12
6.81399e-12
1.86497e-11
2.19551e-11
1.66764e-11
4.75285e-10
6.83939e-12
2.18719e-12
2.31837e-12
2.36001e-12
2.50724e-12
4.96604e-12
1.34435e-11
1.53916e-11
1.44644e-11
2.55302e-07
7.72964e-09
2.0373e-11
2.49249e-12
2.5042e-12
2.46931e-12
3.7441e-12
9.7313e-12
1.07639e-11
1.24938e-11
7.83539e-13
1.49035e-12
1.60622e-12
2.51767e-12
4.14296e-12
7.0012e-12
1.46474e-11
5.5367e-11
2.30205e-10
6.7408e-10
7.19134e-13
1.33869e-12
1.39141e-12
2.14508e-12
3.48106e-12
5.84085e-12
1.11555e-11
3.44269e-11
1.3994e-10
3.8619e-10
6.56405e-13
1.1967e-12
1.19778e-12
1.81913e-12
2.91886e-12
4.84196e-12
8.79688e-12
2.27459e-11
8.89085e-11
2.34309e-10
6.03205e-13
1.0752e-12
1.03686e-12
1.55695e-12
2.46105e-12
4.03964e-12
7.08766e-12
1.59608e-11
5.8589e-11
1.48882e-10
5.57148e-13
9.71066e-13
9.00682e-13
1.33436e-12
2.08551e-12
3.39893e-12
5.79601e-12
1.17894e-11
3.97464e-11
9.81286e-11
5.1781e-13
8.82112e-13
7.86415e-13
1.15343e-12
1.78603e-12
2.87135e-12
4.80194e-12
9.05872e-12
2.76302e-11
6.66672e-11
4.83892e-13
8.05532e-13
6.89438e-13
1.0009e-12
1.53099e-12
2.43667e-12
4.03047e-12
7.17818e-12
1.96349e-11
4.65012e-11
5.79927e-13
7.39516e-13
6.08308e-13
8.71696e-13
1.32123e-12
2.0852e-12
3.40957e-12
5.82772e-12
1.42164e-11
3.31614e-11
7.32506e-10
1.92312e-11
5.64609e-13
7.62501e-13
1.14712e-12
1.79456e-12
2.90216e-12
4.8176e-12
1.04713e-11
2.4105e-11
2.53676e-07
2.48282e-08
1.21382e-10
1.43177e-12
9.81708e-13
1.54342e-12
2.47475e-12
4.02849e-12
7.81957e-12
1.78025e-11
1.0565e-12
1.84656e-12
1.62708e-12
2.17039e-12
3.02007e-12
4.37522e-12
6.84918e-12
1.2976e-11
5.04185e-11
1.64328e-10
9.83517e-13
1.69311e-12
1.45837e-12
1.93701e-12
2.67157e-12
3.81059e-12
5.75534e-12
1.02063e-11
3.5759e-11
1.00181e-10
9.12961e-13
1.5458e-12
1.29593e-12
1.71264e-12
2.34701e-12
3.31709e-12
4.87365e-12
8.02294e-12
2.54285e-11
6.46372e-11
8.51141e-13
1.41728e-12
1.15717e-12
1.51846e-12
2.07052e-12
2.90104e-12
4.19218e-12
6.48128e-12
1.83231e-11
4.35957e-11
7.97454e-13
1.30515e-12
1.03764e-12
1.35178e-12
1.83658e-12
2.55378e-12
3.6467e-12
5.39029e-12
1.33369e-11
3.04086e-11
7.50659e-13
1.20704e-12
9.33971e-13
1.2088e-12
1.63141e-12
2.25626e-12
3.20181e-12
4.58825e-12
9.81106e-12
2.17654e-11
7.09423e-13
1.1204e-12
8.44245e-13
1.08467e-12
1.45508e-12
2.00458e-12
2.82653e-12
3.97003e-12
7.29254e-12
1.58801e-11
8.40101e-13
1.04462e-12
7.66392e-13
9.76516e-13
1.30182e-12
1.78467e-12
2.5032e-12
3.47431e-12
5.46726e-12
1.17734e-11
1.07047e-09
3.41597e-11
7.35167e-13
8.81656e-13
1.16869e-12
1.59325e-12
2.22809e-12
3.06155e-12
4.13376e-12
8.83597e-12
3.11606e-07
4.36803e-08
2.97396e-10
2.06235e-12
1.02284e-12
1.42546e-12
1.98552e-12
2.70649e-12
3.1346e-12
6.68764e-12
1.46224e-12
2.33016e-12
1.64007e-12
1.8979e-12
2.27786e-12
2.82395e-12
3.79055e-12
5.86212e-12
1.44775e-11
2.66335e-11
1.38305e-12
2.18066e-12
1.52306e-12
1.76679e-12
2.11815e-12
2.60001e-12
3.35623e-12
4.80245e-12
1.14404e-11
1.99541e-11
1.30368e-12
2.03192e-12
1.39997e-12
1.62589e-12
1.94999e-12
2.38109e-12
3.00575e-12
4.03452e-12
8.82594e-12
1.50787e-11
1.23351e-12
1.89908e-12
1.28878e-12
1.497e-12
1.79624e-12
2.18904e-12
2.72933e-12
3.49361e-12
6.77768e-12
1.15488e-11
1.17141e-12
1.78008e-12
1.18894e-12
1.37977e-12
1.65709e-12
2.01748e-12
2.50137e-12
3.10093e-12
5.19776e-12
8.93076e-12
1.11618e-12
1.67288e-12
1.09938e-12
1.27429e-12
1.52876e-12
1.86192e-12
2.30107e-12
2.80103e-12
3.97842e-12
6.9435e-12
1.06701e-12
1.57659e-12
1.01904e-12
1.17865e-12
1.41224e-12
1.72028e-12
2.12746e-12
2.55653e-12
3.04271e-12
5.41768e-12
1.20613e-12
1.4903e-12
9.46649e-13
1.0919e-12
1.30635e-12
1.59122e-12
1.96914e-12
2.35314e-12
2.32208e-12
4.24171e-12
1.35532e-09
4.99131e-11
9.27402e-13
1.01246e-12
1.20958e-12
1.47277e-12
1.82399e-12
2.17498e-12
1.76555e-12
3.32801e-12
2.53793e-07
6.02546e-08
4.7054e-10
2.48097e-12
1.08455e-12
1.36279e-12
1.68572e-12
2.00991e-12
1.32825e-12
2.60367e-12
2.05471e-12
2.94666e-12
1.60062e-12
1.60089e-12
1.66224e-12
1.79886e-12
2.14189e-12
2.93648e-12
6.44824e-12
8.4635e-12
1.97082e-12
2.81083e-12
1.54137e-12
1.55913e-12
1.62881e-12
1.74501e-12
1.98593e-12
2.50758e-12
5.24044e-12
7.01998e-12
1.88651e-12
2.67095e-12
1.46497e-12
1.49671e-12
1.5755e-12
1.68471e-12
1.86733e-12
2.2008e-12
4.14972e-12
5.7295e-12
1.81027e-12
2.54202e-12
1.39051e-12
1.43184e-12
1.51798e-12
1.6271e-12
1.78013e-12
1.99592e-12
3.26686e-12
4.67496e-12
1.74119e-12
2.42283e-12
1.31887e-12
1.36767e-12
1.45944e-12
1.57027e-12
1.70912e-12
1.8579e-12
2.5541e-12
3.81217e-12
1.67888e-12
2.31312e-12
1.25118e-12
1.30414e-12
1.39941e-12
1.51367e-12
1.64973e-12
1.75814e-12
1.97954e-12
3.10468e-12
1.62218e-12
2.2121e-12
1.1876e-12
1.24254e-12
1.33894e-12
1.45607e-12
1.59339e-12
1.68184e-12
1.51129e-12
2.52334e-12
1.7499e-12
2.12008e-12
1.1277e-12
1.18358e-12
1.28052e-12
1.39806e-12
1.5364e-12
1.61882e-12
1.13298e-12
2.04321e-12
1.60217e-09
6.34275e-11
1.15251e-12
1.12661e-12
1.22319e-12
1.34102e-12
1.48001e-12
1.56298e-12
8.2903e-13
1.64592e-12
8.09242e-08
6.82255e-08
1.06011e-09
3.52015e-12
1.12923e-12
1.28135e-12
1.42042e-12
1.50465e-12
5.73754e-13
1.31337e-12
2.8606e-12
3.64948e-12
1.43807e-12
1.21369e-12
1.06639e-12
1.00338e-12
1.1346e-12
1.52787e-12
3.28648e-12
3.7517e-12
2.77809e-12
3.5422e-12
1.43729e-12
1.24757e-12
1.1189e-12
1.03636e-12
1.07683e-12
1.31425e-12
2.81543e-12
3.31288e-12
2.69415e-12
3.42703e-12
1.4148e-12
1.2568e-12
1.15007e-12
1.06622e-12
1.05317e-12
1.16515e-12
2.31834e-12
2.83727e-12
2.61672e-12
3.31659e-12
1.38443e-12
1.25382e-12
1.16803e-12
1.09263e-12
1.05369e-12
1.07713e-12
1.8918e-12
2.4257e-12
2.54511e-12
3.21185e-12
1.35075e-12
1.24321e-12
1.17614e-12
1.1127e-12
1.06458e-12
1.03489e-12
1.52575e-12
2.06927e-12
2.47892e-12
3.11221e-12
1.31396e-12
1.22612e-12
1.17596e-12
1.12631e-12
1.08037e-12
1.02043e-12
1.2108e-12
1.7594e-12
2.41778e-12
3.01832e-12
1.27569e-12
1.20432e-12
1.16959e-12
1.13371e-12
1.09539e-12
1.02114e-12
9.41964e-13
1.49058e-12
2.53324e-12
2.93097e-12
1.23714e-12
1.18018e-12
1.15765e-12
1.13439e-12
1.10651e-12
1.0298e-12
7.12272e-13
1.25902e-12
1.87674e-09
7.19491e-11
1.34382e-12
1.15346e-12
1.142e-12
1.13009e-12
1.11227e-12
1.04074e-12
5.16698e-13
1.06008e-12
1.18892e-07
6.3659e-08
1.01166e-09
6.52938e-12
1.09667e-12
1.1185e-12
1.11204e-12
1.0475e-12
3.45199e-13
8.9271e-13
3.82832e-12
4.33656e-12
1.1196e-12
7.61306e-13
4.95174e-13
3.5013e-13
4.85265e-13
7.91878e-13
1.99483e-12
2.02475e-12
3.75296e-12
4.26966e-12
1.16427e-12
8.42962e-13
6.00174e-13
4.20739e-13
4.29284e-13
6.41983e-13
1.83006e-12
1.90733e-12
3.67759e-12
4.19594e-12
1.18634e-12
9.00717e-13
6.84225e-13
4.99829e-13
4.25465e-13
5.2779e-13
1.59143e-12
1.71273e-12
3.60621e-12
4.12079e-12
1.19722e-12
9.43401e-13
7.50792e-13
5.74406e-13
4.57948e-13
4.57082e-13
1.37883e-12
1.53735e-12
3.5386e-12
4.04655e-12
1.19954e-12
9.73983e-13
8.03991e-13
6.40408e-13
5.07388e-13
4.31621e-13
1.18886e-12
1.37869e-12
3.47569e-12
3.97362e-12
1.19513e-12
9.95536e-13
8.47017e-13
6.98364e-13
5.62323e-13
4.42345e-13
1.0212e-12
1.23671e-12
3.41608e-12
3.90223e-12
1.18589e-12
1.00967e-12
8.80014e-13
7.47191e-13
6.16344e-13
4.75166e-13
8.75097e-13
1.11073e-12
3.52117e-12
3.83549e-12
1.17331e-12
1.01745e-12
9.0509e-13
7.87861e-13
6.66171e-13
5.18834e-13
7.49876e-13
9.99531e-13
2.12846e-09
7.3675e-11
1.42923e-12
1.02095e-12
9.2476e-13
8.21472e-13
7.09844e-13
5.65917e-13
6.45295e-13
9.03171e-13
3.37738e-07
4.37744e-08
8.9918e-10
9.22596e-12
9.32567e-13
8.46773e-13
7.47515e-13
6.09049e-13
5.61809e-13
8.24147e-13
4.7709e-12
4.87168e-12
7.3136e-13
4.97628e-13
2.72305e-13
1.5153e-13
2.66227e-13
4.7209e-13
1.43926e-12
1.28545e-12
4.70616e-12
4.84929e-12
7.70922e-13
5.35719e-13
3.11302e-13
1.24613e-13
1.63094e-13
3.68353e-13
1.42853e-12
1.30063e-12
4.64378e-12
4.8225e-12
7.99758e-13
5.72311e-13
3.60665e-13
1.62682e-13
7.61174e-14
2.68688e-13
1.32403e-12
1.22654e-12
4.58317e-12
4.79071e-12
8.22816e-13
6.0525e-13
4.10329e-13
2.20787e-13
4.57148e-14
1.76119e-13
1.22929e-12
1.15819e-12
4.52519e-12
4.7559e-12
8.40426e-13
6.35512e-13
4.57095e-13
2.80922e-13
1.08663e-13
9.26216e-14
1.14252e-12
1.09509e-12
4.46943e-12
4.7185e-12
8.53703e-13
6.61532e-13
4.99802e-13
3.37288e-13
1.76536e-13
3.13066e-14
1.06367e-12
1.03732e-12
4.41641e-12
4.68031e-12
8.63126e-13
6.83927e-13
5.37841e-13
3.8923e-13
2.38998e-13
6.97655e-14
9.9365e-13
9.85074e-13
4.51689e-12
4.64412e-12
8.68471e-13
7.02033e-13
5.71175e-13
4.35553e-13
2.95804e-13
1.33047e-13
9.31452e-13
9.3814e-13
2.31568e-09
6.95744e-11
1.29706e-12
7.17924e-13
6.00021e-13
4.76465e-13
3.47694e-13
1.93201e-13
8.77205e-13
8.95763e-13
5.36171e-07
1.87782e-08
5.39539e-10
7.23253e-12
6.31761e-13
5.13433e-13
3.94496e-13
2.49566e-13
8.30377e-13
8.68075e-13
5.37991e-12
5.14714e-12
4.87133e-13
5.98552e-13
5.10072e-13
4.40283e-13
4.00985e-13
4.22827e-13
1.2089e-12
9.75163e-13
5.32236e-12
5.15346e-12
4.35074e-13
5.38615e-13
4.57127e-13
3.92673e-13
3.55273e-13
3.84834e-13
1.27114e-12
1.04845e-12
5.2694e-12
5.15945e-12
3.94811e-13
4.85604e-13
4.09908e-13
3.47729e-13
3.12319e-13
3.43045e-13
1.22957e-12
1.02611e-12
5.21749e-12
5.15902e-12
3.67862e-13
4.4059e-13
3.69475e-13
3.0983e-13
2.73796e-13
3.04461e-13
1.19006e-12
1.00408e-12
5.16701e-12
5.15369e-12
3.53339e-13
4.04818e-13
3.3841e-13
2.79263e-13
2.40754e-13
2.6882e-13
1.15237e-12
9.83507e-13
5.11866e-12
5.14511e-12
3.4851e-13
3.76801e-13
3.13108e-13
2.54683e-13
2.13521e-13
2.37738e-13
1.11687e-12
9.63897e-13
5.07195e-12
5.13357e-12
3.49907e-13
3.55405e-13
2.95286e-13
2.37528e-13
1.93467e-13
2.09778e-13
1.08293e-12
9.45796e-13
5.172e-12
5.12298e-12
3.55282e-13
3.39449e-13
2.82879e-13
2.26311e-13
1.78504e-13
1.87193e-13
1.05138e-12
9.27635e-13
2.41348e-09
6.47991e-11
1.03161e-12
3.27996e-13
2.75025e-13
2.20629e-13
1.7152e-13
1.69794e-13
1.02023e-12
9.1055e-13
6.58423e-07
1.84211e-08
4.19424e-10
5.55444e-12
2.56918e-13
2.22604e-13
1.74746e-13
1.64397e-13
9.91913e-13
9.36356e-13
5.38442e-12
5.11814e-12
4.76124e-13
6.23318e-13
5.39691e-13
4.65855e-13
4.12645e-13
4.14895e-13
1.14231e-12
9.31211e-13
5.32674e-12
5.12641e-12
4.02236e-13
5.5434e-13
4.82904e-13
4.18071e-13
3.72142e-13
3.85138e-13
1.21387e-12
1.00803e-12
5.27405e-12
5.13551e-12
3.40396e-13
4.91541e-13
4.29717e-13
3.72259e-13
3.32093e-13
3.48588e-13
1.18011e-12
9.89077e-13
5.22253e-12
5.13766e-12
2.93368e-13
4.35512e-13
3.81985e-13
3.31183e-13
2.95382e-13
3.15114e-13
1.14785e-12
9.70409e-13
5.17281e-12
5.13544e-12
2.62644e-13
3.88703e-13
3.4141e-13
2.95029e-13
2.62228e-13
2.83551e-13
1.11691e-12
9.53205e-13
5.12502e-12
5.1292e-12
2.46856e-13
3.49426e-13
3.07099e-13
2.64201e-13
2.32932e-13
2.54314e-13
1.08743e-12
9.36751e-13
5.07893e-12
5.12015e-12
2.43034e-13
3.1687e-13
2.78655e-13
2.38536e-13
2.08009e-13
2.28018e-13
1.05904e-12
9.21438e-13
5.17914e-12
5.11153e-12
2.48006e-13
2.90888e-13
2.56143e-13
2.17928e-13
1.86496e-13
2.04445e-13
1.03228e-12
9.06386e-13
2.41348e-09
6.4799e-11
9.94213e-13
2.7022e-13
2.37896e-13
2.02137e-13
1.7113e-13
1.84544e-13
1.00593e-12
8.92e-13
6.58423e-07
1.84211e-08
4.19404e-10
5.5287e-12
2.01428e-13
1.94896e-13
1.65667e-13
1.74342e-13
9.81064e-13
9.32439e-13
4.7764e-12
4.79169e-12
6.55681e-13
5.11956e-13
3.33532e-13
2.272e-13
2.61769e-13
4.10368e-13
1.20945e-12
1.14e-12
4.71344e-12
4.77754e-12
6.76718e-13
5.19449e-13
3.36127e-13
1.94251e-13
1.82261e-13
3.27907e-13
1.23095e-12
1.16671e-12
4.65332e-12
4.75963e-12
6.9688e-13
5.3469e-13
3.56594e-13
1.97596e-13
1.1857e-13
2.4361e-13
1.15442e-12
1.10462e-12
4.59485e-12
4.73649e-12
7.15029e-13
5.52887e-13
3.84998e-13
2.24977e-13
9.04623e-14
1.65329e-13
1.08489e-12
1.04762e-12
4.53887e-12
4.70977e-12
7.32055e-13
5.72571e-13
4.16951e-13
2.63739e-13
1.15125e-13
9.69485e-14
1.02127e-12
9.9561e-13
4.48525e-12
4.68029e-12
7.46289e-13
5.92162e-13
4.49499e-13
3.0613e-13
1.62028e-13
5.12249e-14
9.64253e-13
9.49014e-13
4.43384e-12
4.6491e-12
7.57851e-13
6.10389e-13
4.80598e-13
3.48084e-13
2.12717e-13
6.9887e-14
9.1328e-13
9.07015e-13
4.53573e-12
4.61907e-12
7.66647e-13
6.26843e-13
5.09416e-13
3.87368e-13
2.61428e-13
1.19219e-13
8.68563e-13
8.69711e-13
2.31568e-09
6.9575e-11
1.22363e-12
6.4133e-13
5.35417e-13
4.24145e-13
3.07469e-13
1.71158e-13
8.30079e-13
8.37469e-13
5.36171e-07
1.87782e-08
5.39498e-10
7.18345e-12
5.62804e-13
4.57754e-13
3.50198e-13
2.22039e-13
7.97128e-13
8.29732e-13
3.82995e-12
4.2353e-12
9.80405e-13
6.55577e-13
3.95083e-13
2.18527e-13
3.32746e-13
6.07435e-13
1.48956e-12
1.70599e-12
3.76052e-12
4.18465e-12
1.03009e-12
7.338e-13
4.98526e-13
3.0769e-13
2.91527e-13
4.86897e-13
1.39848e-12
1.62088e-12
3.69109e-12
4.12545e-12
1.06069e-12
7.94031e-13
5.83661e-13
3.9747e-13
3.04311e-13
3.92108e-13
1.2248e-12
1.45779e-12
3.62387e-12
4.06378e-12
1.08011e-12
8.39861e-13
6.52602e-13
4.77595e-13
3.50794e-13
3.36767e-13
1.06838e-12
1.31049e-12
3.56048e-12
4.0011e-12
1.09169e-12
8.7621e-13
7.09516e-13
5.47883e-13
4.10035e-13
3.25673e-13
9.2898e-13
1.17815e-12
3.50049e-12
3.93876e-12
1.09621e-12
9.02958e-13
7.55994e-13
6.09396e-13
4.71986e-13
3.47882e-13
8.06755e-13
1.05995e-12
3.44355e-12
3.87698e-12
1.09579e-12
9.22878e-13
7.93227e-13
6.61597e-13
5.30374e-13
3.90266e-13
7.01597e-13
9.56746e-13
3.55043e-12
3.81861e-12
1.09057e-12
9.36549e-13
8.23724e-13
7.05822e-13
5.84062e-13
4.40054e-13
6.14365e-13
8.66143e-13
2.12847e-09
7.36779e-11
1.36051e-12
9.46206e-13
8.47631e-13
7.43129e-13
6.31295e-13
4.91002e-13
5.44042e-13
7.89315e-13
3.37738e-07
4.37744e-08
8.99151e-10
9.18732e-12
8.607e-13
7.72387e-13
6.71856e-13
5.37757e-13
4.91965e-13
7.32426e-13
2.86507e-12
3.55835e-12
1.27694e-12
1.03661e-12
8.75903e-13
7.89352e-13
8.62956e-13
1.14724e-12
2.18889e-12
3.00132e-12
2.79211e-12
3.4731e-12
1.29791e-12
1.08968e-12
9.45952e-13
8.45605e-13
8.48115e-13
1.01049e-12
1.90757e-12
2.67379e-12
2.71559e-12
3.37644e-12
1.29503e-12
1.1178e-12
9.94613e-13
8.95226e-13
8.55624e-13
9.18291e-13
1.57256e-12
2.29299e-12
2.64362e-12
3.28193e-12
1.28289e-12
1.1316e-12
1.02841e-12
9.37894e-13
8.7818e-13
8.72139e-13
1.27724e-12
1.96052e-12
2.57652e-12
3.19021e-12
1.26395e-12
1.13657e-12
1.05124e-12
9.72645e-13
9.08171e-13
8.58124e-13
1.02225e-12
1.67068e-12
2.51349e-12
3.1018e-12
1.24079e-12
1.13337e-12
1.06504e-12
9.9983e-13
9.39008e-13
8.64556e-13
8.01312e-13
1.41836e-12
2.45507e-12
3.01693e-12
1.21455e-12
1.12493e-12
1.0711e-12
1.01831e-12
9.66131e-13
8.81709e-13
6.0977e-13
1.20018e-12
2.5708e-12
2.93785e-12
1.1862e-12
1.1114e-12
1.07146e-12
1.03103e-12
9.87476e-13
9.0332e-13
4.44028e-13
1.0125e-12
1.87674e-09
7.19535e-11
1.30071e-12
1.09538e-12
1.06623e-12
1.03723e-12
1.00403e-12
9.24817e-13
3.03738e-13
8.52606e-13
1.18892e-07
6.3659e-08
1.01164e-09
6.49866e-12
1.03206e-12
1.0362e-12
1.01349e-12
9.41143e-13
1.77524e-13
7.20113e-13
2.07342e-12
2.88708e-12
1.44475e-12
1.38379e-12
1.38505e-12
1.44567e-12
1.64431e-12
2.11189e-12
3.77696e-12
6.27557e-12
1.99896e-12
2.77583e-12
1.41813e-12
1.37923e-12
1.39245e-12
1.44444e-12
1.58198e-12
1.88406e-12
3.13287e-12
5.27032e-12
1.9206e-12
2.65439e-12
1.36915e-12
1.34906e-12
1.375e-12
1.42685e-12
1.5312e-12
1.71992e-12
2.50244e-12
4.31861e-12
1.84846e-12
2.53966e-12
1.31708e-12
1.31188e-12
1.34834e-12
1.40536e-12
1.49586e-12
1.61122e-12
1.98165e-12
3.53425e-12
1.78237e-12
2.43213e-12
1.26382e-12
1.27081e-12
1.31662e-12
1.37949e-12
1.46703e-12
1.54014e-12
1.55577e-12
2.88919e-12
1.72142e-12