/*--------------------------------*- C++ -*----------------------------------*\
| =========                 |                                                 |
| \\      /  F ield         | OpenFOAM: The Open Source CFD Toolbox           |
|  \\    /   O peration     | Version:  4.1                                   |
|   \\  /    A nd           | Web:      www.OpenFOAM.org                      |
|    \\/     M anipulation  |                                                 |
\*---------------------------------------------------------------------------*/
FoamFile
{
    version     2.0;
    format      ascii;
    class       surfaceScalarField;
    location    "0.62";
    object      phi;
}
// * * * * * * * * * * * * * * * * * * * * * * * * * * * * * * * * * * * * * //

dimensions      [1 0 -1 0 0 0 0];

internalField   nonuniform List<scalar> 
51500
(
3.65066e-13
1.60813e-14
1.44969e-11
-1.31649e-15
2.07723e-14
1.43333e-11
-2.78724e-15
1.94845e-14
1.41709e-11
-2.70993e-15
1.81112e-14
1.4011e-11
-2.62148e-15
1.66957e-14
1.38527e-11
-2.55877e-15
1.52532e-14
1.36965e-11
-2.64413e-15
1.38182e-14
1.35418e-11
-2.58898e-15
1.24056e-14
1.33901e-11
-2.61194e-15
1.09825e-14
1.32406e-11
9.5696e-15
1.30955e-11
-7.50268e-17
3.67625e-13
1.0184e-14
1.81381e-11
-1.08139e-14
1.03811e-14
1.75014e-11
-1.00555e-14
8.8438e-15
1.68862e-11
-9.85393e-15
7.38344e-15
1.62972e-11
-9.557e-15
6.05009e-15
1.57335e-11
-9.2162e-15
4.92424e-15
1.51932e-11
-8.96312e-15
4.28526e-15
1.46747e-11
-8.71402e-15
3.22252e-15
1.41783e-11
-8.44761e-15
1.97729e-15
1.37007e-11
8.21277e-16
1.32516e-11
-8.2356e-16
3.66305e-13
1.09254e-14
2.29678e-11
-2.38304e-14
1.23598e-14
2.15752e-11
-1.99395e-14
1.0204e-14
2.02721e-11
-1.8916e-14
8.28421e-15
1.90637e-11
-1.78956e-14
6.57451e-15
1.79407e-11
-1.71057e-14
5.04957e-15
1.68974e-11
-1.619e-14
3.70548e-15
1.59288e-11
-1.54962e-14
2.49755e-15
1.50255e-11
-1.47531e-14
1.43904e-15
1.41847e-11
5.42014e-16
1.34112e-11
-1.5142e-15
3.5872e-13
1.43494e-14
2.94616e-11
-4.21071e-14
1.51908e-14
2.68641e-11
-3.28864e-14
1.22092e-14
2.45267e-11
-3.04823e-14
9.6254e-15
2.24236e-11
-2.82332e-14
7.44544e-15
2.05383e-11
-2.62437e-14
5.58842e-15
1.88429e-11
-2.44175e-14
4.00959e-15
1.73153e-11
-2.27691e-14
2.65086e-15
1.59361e-11
-2.11559e-14
1.48996e-15
1.46888e-11
5.22694e-16
1.35732e-11
-2.29807e-15
3.39723e-13
1.92188e-14
3.83307e-11
-6.7345e-14
1.89914e-14
3.38166e-11
-5.03335e-14
1.47473e-14
2.99155e-11
-4.52476e-14
1.12855e-14
2.6535e-11
-4.08353e-14
8.48457e-15
2.36104e-11
-3.69907e-14
6.20863e-15
2.10689e-11
-3.36916e-14
4.33752e-15
1.88534e-11
-3.07463e-14
2.80831e-15
1.69161e-11
-2.79741e-14
1.55103e-15
1.52158e-11
5.48297e-16
1.37385e-11
-3.0735e-15
3.00964e-13
2.63385e-14
5.06458e-11
-1.29413e-13
2.41975e-14
4.30762e-11
-7.37305e-14
1.80805e-14
3.68143e-11
-6.42395e-14
1.3338e-14
3.16005e-11
-5.63082e-14
9.7216e-15
2.72606e-11
-4.97369e-14
6.90643e-15
2.36243e-11
-4.41485e-14
4.71235e-15
2.05626e-11
-3.94013e-14
2.97691e-15
1.79713e-11
-3.5088e-14
1.61577e-15
1.57663e-11
5.55423e-16
1.39067e-11
-3.94194e-15
2.24544e-13
4.60256e-14
6.80368e-11
-2.06267e-13
3.93314e-14
5.55965e-11
-1.05835e-13
2.81421e-14
4.5735e-11
-8.88104e-14
2.00064e-14
3.78921e-11
-7.54727e-14
1.41152e-14
3.16223e-11
-6.47211e-14
9.77111e-15
2.65683e-11
-5.60371e-14
6.51609e-15
2.24645e-11
-4.88153e-14
4.07431e-15
1.91079e-11
-4.26545e-14
2.20745e-15
1.63426e-11
7.75212e-16
1.40777e-11
-4.79499e-15
1.4123e-13
-3.20353e-13
9.31244e-11
-3.0473e-13
-3.55967e-13
7.27647e-11
-1.49286e-13
-3.72802e-13
5.7405e-11
-1.20274e-13
-3.83581e-13
4.57675e-11
-9.86223e-14
-3.90715e-13
3.68648e-11
-8.20059e-14
-3.95405e-13
2.99772e-11
-6.89579e-14
-3.98451e-13
2.45919e-11
-5.86318e-14
-4.00408e-13
2.03406e-11
-4.9909e-14
-4.01642e-13
1.69505e-11
-4.08135e-13
1.42591e-11
-5.73478e-15
3.07694e-12
-7.85967e-10
1.64866e-10
2.56632e-12
-8.42771e-10
1.26483e-10
2.32298e-12
-8.48323e-10
1.00531e-10
2.10732e-12
-8.5241e-10
8.1721e-11
1.9162e-12
-8.55652e-10
6.79392e-11
1.74742e-12
-8.58251e-10
5.76892e-11
1.59831e-12
-8.60351e-10
4.99713e-11
1.46635e-12
-8.62061e-10
4.40949e-11
1.3239e-12
-8.63524e-10
3.95729e-11
-8.81468e-10
3.64124e-11
-6.70145e-15
-3.25745e-10
1.40652e-07
-8.48668e-07
3.01566e-10
1.19305e-07
-9.36797e-07
3.22094e-10
1.04432e-07
-9.38806e-07
3.12611e-10
9.20847e-08
-9.40309e-07
3.0255e-10
8.17284e-08
-9.4162e-07
2.92364e-10
7.29743e-08
-9.4278e-07
2.82293e-10
6.55189e-08
-9.43818e-07
2.68703e-10
5.91249e-08
-9.44755e-07
1.1559e-10
5.36106e-08
-9.45685e-07
4.97563e-08
-7.74988e-15
-9.83323e-07
3.41864e-13
8.94616e-14
6.12756e-13
-1.8452e-14
8.43892e-14
6.02318e-13
-2.53875e-14
7.43748e-14
5.92581e-13
-2.45951e-14
6.46687e-14
5.81295e-13
-2.41849e-14
5.52976e-14
5.71262e-13
-2.40142e-14
4.62218e-14
5.61988e-13
-2.38779e-14
3.7451e-14
5.51472e-13
-2.3672e-14
2.89887e-14
5.42444e-13
-2.56374e-14
2.075e-14
5.33264e-13
1.29371e-14
5.23649e-13
-1.58966e-15
2.84883e-13
8.38355e-14
8.50192e-13
-7.05018e-14
7.62555e-14
8.07145e-13
-8.52905e-14
6.45638e-14
7.66558e-13
-8.21488e-14
5.34112e-14
7.26687e-13
-7.98816e-14
4.25827e-14
6.89715e-13
-7.7713e-14
2.99775e-14
6.5417e-13
-7.54134e-14
2.09074e-14
6.22e-13
-7.42633e-14
1.3695e-14
5.90506e-13
-7.81784e-14
7.61453e-15
5.62344e-13
2.55157e-15
5.33661e-13
-4.2904e-15
1.99918e-13
1.05883e-13
1.19948e-12
-1.78336e-13
9.43869e-14
1.09385e-12
-1.62012e-13
7.89365e-14
1.00295e-12
-1.53647e-13
6.47031e-14
9.14288e-13
-1.46259e-13
5.18876e-14
8.36555e-13
-1.39474e-13
4.02749e-14
7.66115e-13
-1.33288e-13
2.97562e-14
7.0269e-13
-1.27888e-13
2.02908e-14
6.45124e-13
-1.33446e-13
1.17617e-14
5.92458e-13
4.19356e-15
5.45371e-13
-6.86408e-15
7.8407e-14
1.29939e-13
1.72455e-12
-3.08562e-13
1.12585e-13
1.50832e-12
-2.61006e-13
9.19723e-14
1.32693e-12
-2.41667e-13
7.37595e-14
1.16291e-12
-2.25557e-13
5.78549e-14
1.0225e-12
-2.10891e-13
4.39583e-14
9.01387e-13
-1.9737e-13
3.18703e-14
7.9725e-13
-1.8573e-13
2.13279e-14
7.07329e-13
-1.90236e-13
1.21236e-14
6.26575e-13
4.19217e-15
5.56125e-13
-9.82873e-15
-4.38751e-14
1.61238e-13
2.53253e-12
-4.73576e-13
1.35487e-13
2.11663e-12
-3.87561e-13
1.07986e-13
1.77991e-12
-3.50609e-13
8.44792e-14
1.49314e-12
-3.20168e-13
6.47158e-14
1.25922e-12
-2.92783e-13
4.81089e-14
1.06719e-12
-2.68487e-13
3.41215e-14
9.07953e-13
-2.47928e-13
2.23714e-14
7.7533e-13
-2.4929e-13
1.2468e-14
6.63777e-13
4.27848e-15
5.6914e-13
-1.29308e-14
-1.81258e-13
2.01919e-13
3.81027e-12
-6.88726e-13
1.65164e-13
3.02136e-12
-5.50127e-13
1.27763e-13
2.41974e-12
-4.85402e-13
9.73636e-14
1.93519e-12
-4.32719e-13
7.27298e-14
1.56158e-12
-3.87043e-13
5.27456e-14
1.26895e-12
-3.47369e-13
3.65944e-14
1.03839e-12
-3.14555e-13
2.34716e-14
8.54377e-13
-3.10437e-13
1.28819e-14
7.06502e-13
4.27236e-15
5.83696e-13
-1.59269e-14
-5.98487e-13
2.56234e-13
5.87936e-12
-9.75599e-13
2.1085e-13
4.40172e-12
-7.58557e-13
1.58772e-13
3.33668e-12
-6.52164e-13
1.18204e-13
2.53267e-12
-5.67056e-13
8.66851e-14
1.95015e-12
-4.95132e-13
6.21082e-14
1.51653e-12
-4.34934e-13
4.27619e-14
1.19044e-12
-3.85354e-13
2.74615e-14
9.43853e-13
-3.74186e-13
1.50469e-14
7.50864e-13
4.43579e-15
5.99964e-13
-1.89451e-14
-1.10485e-12
3.10897e-13
9.33626e-12
-1.35988e-12
2.16715e-13
6.55424e-12
-1.02701e-12
1.52358e-13
4.67348e-12
-8.58187e-13
1.05299e-13
3.35723e-12
-7.26359e-13
7.06486e-14
2.45636e-12
-6.19431e-13
4.47576e-14
1.82267e-12
-5.31324e-13
2.52333e-14
1.37246e-12
-4.61539e-13
1.0358e-14
1.04443e-12
-4.39809e-13
-1.06575e-15
8.01659e-13
-9.87807e-15
6.16825e-13
-2.20811e-14
-1.93707e-12
6.01643e-12
1.79776e-11
-1.46866e-12
-3.59601e-11
9.58069e-12
-9.76577e-13
-3.28251e-11
6.50579e-12
-8.16574e-13
-3.01435e-11
4.57265e-12
-6.9665e-13
-2.80761e-11
3.35019e-12
-6.04245e-13
-2.64745e-11
2.55349e-12
-5.3639e-13
-2.52334e-11
2.02105e-12
-5.36737e-13
-2.42737e-11
1.6567e-12
-5.64835e-13
-2.35386e-11
1.39773e-12
-2.31932e-11
1.20791e-12
-2.52643e-14
-8.97642e-10
1.26674e-08
8.2651e-08
-2.8275e-10
6.54957e-09
-1.64525e-09
-3.13777e-10
4.92106e-09
-1.87421e-09
-3.04584e-10
3.77991e-09
-1.85442e-09
-2.9493e-10
2.94971e-09
-1.82588e-09
-2.85178e-10
2.33477e-09
-1.79388e-09
-2.75543e-10
1.87206e-09
-1.76098e-09
-2.66203e-10
1.51893e-09
-1.72891e-09
-2.61265e-10
1.24611e-09
-1.70438e-09
1.04272e-09
-2.86542e-14
-2.05674e-09
3.4424e-13
8.21404e-14
2.19871e-14
-1.67135e-14
7.79729e-14
2.03422e-14
-2.2364e-14
6.87793e-14
1.8946e-14
-2.02832e-14
5.99159e-14
1.73692e-14
-1.86822e-14
5.13433e-14
1.55417e-14
-2.02947e-14
4.30006e-14
1.34613e-14
-1.90179e-14
3.50267e-14
1.26194e-14
-1.94486e-14
2.72622e-14
1.16339e-14
-2.34978e-14
1.97616e-14
1.07686e-14
1.26296e-14
1.08406e-14
-1.32208e-15
2.92885e-13
5.93932e-14
3.53894e-14
-6.49617e-14
5.45229e-14
3.18344e-14
-7.22359e-14
4.62323e-14
3.09561e-14
-6.70801e-14
3.82919e-14
2.62188e-14
-6.59423e-14
3.09136e-14
2.29563e-14
-6.25468e-14
2.41112e-14
2.114e-14
-6.17041e-14
1.78007e-14
1.70374e-14
-6.09251e-14
1.20507e-14
1.51282e-14
-7.13508e-14
6.86117e-15
1.41417e-14
2.41731e-15
1.27058e-14
-4.42593e-15
2.14277e-13
7.59773e-14
5.35866e-14
-1.65443e-13
6.86429e-14
4.83335e-14
-1.37219e-13
5.77785e-14
4.62473e-14
-1.25371e-13
4.78176e-14
4.02938e-14
-1.19263e-13
3.87862e-14
3.41685e-14
-1.12866e-13
3.05303e-14
2.85919e-14
-1.07705e-13
2.35577e-14
2.44714e-14
-1.05664e-13
1.65013e-14
2.15758e-14
-1.21256e-13
9.5741e-15
1.85591e-14
3.32867e-15
1.54465e-14
-7.24377e-15
9.31417e-14
9.44518e-14
8.57592e-14
-2.89272e-13
8.27064e-14
7.87893e-14
-2.20219e-13
6.79137e-14
7.32881e-14
-1.96298e-13
5.4901e-14
6.05272e-14
-1.82952e-13
4.35777e-14
5.0521e-14
-1.69877e-13
3.39156e-14
4.26096e-14
-1.55498e-13
2.57078e-14
3.58513e-14
-1.53391e-13
1.71284e-14
3.02703e-14
-1.73189e-13
9.80894e-15
2.70088e-14
3.48562e-15
2.03423e-14
-1.03919e-14
-2.48744e-14
1.19155e-13
1.45967e-13
-4.46528e-13
1.00477e-13
1.29784e-13
-3.25922e-13
8.04536e-14
1.16571e-13
-2.71334e-13
6.33093e-14
9.44977e-14
-2.47583e-13
4.9008e-14
7.62254e-14
-2.25094e-13
3.71964e-14
6.22086e-14
-2.04779e-13
2.78248e-14
5.18784e-14
-2.02662e-13
1.84321e-14
4.43859e-14
-2.26988e-13
1.04257e-14
3.79676e-14
3.6264e-15
2.76625e-14
-1.3149e-14
-1.61491e-13
1.52042e-13
2.52912e-13
-6.52357e-13
1.24319e-13
2.21077e-13
-4.53442e-13
9.61758e-14
1.86636e-13
-3.68557e-13
7.34829e-14
1.45541e-13
-3.27886e-13
5.54615e-14
1.15064e-13
-2.91062e-13
4.09604e-14
9.1775e-14
-2.59969e-13
2.96688e-14
7.48502e-14
-2.52878e-13
1.93373e-14
6.24478e-14
-2.83011e-13
1.04939e-14
4.9804e-14
3.61383e-15
3.56936e-14
-1.64803e-14
-5.76274e-13
1.92346e-13
4.45515e-13
-9.29487e-13
1.5463e-13
3.7425e-13
-5.89399e-13
1.15686e-13
2.97454e-13
-4.90653e-13
8.58421e-14
2.24685e-13
-4.25312e-13
6.29197e-14
1.71149e-13
-3.68658e-13
4.56054e-14
1.32937e-13
-3.20791e-13
3.27009e-14
1.05987e-13
-2.94349e-13
2.06112e-14
8.45788e-14
-3.40871e-13
1.12546e-14
6.85214e-14
3.94825e-15
4.59029e-14
-1.96488e-14
-1.1043e-12
3.22532e-13
8.06847e-13
-1.30405e-12
2.23703e-13
6.36492e-13
-7.88771e-13
1.5722e-13
4.76466e-13
-6.44399e-13
1.10005e-13
3.41448e-13
-5.41644e-13
7.62094e-14
2.5159e-13
-4.5725e-13
5.1689e-14
1.89752e-13
-3.89838e-13
3.37009e-14
1.44664e-13
-3.42974e-13
2.04535e-14
1.13259e-13
-4.01064e-13
1.0592e-14
9.05695e-14
3.34374e-15
5.75234e-14
-2.29651e-14
-2.16466e-12
4.39612e-11
4.98091e-12
-1.77296e-12
1.1035e-12
9.75282e-13
-1.05193e-12
4.84882e-13
6.62492e-13
-8.37474e-13
2.50303e-13
4.63053e-13
-6.8364e-13
7.86084e-14
3.35323e-13
-5.64027e-13
-4.63354e-14
2.50111e-13
-4.69806e-13
-1.37329e-13
1.91825e-13
-4.03818e-13
-2.03008e-13
1.5048e-13
-4.6963e-13
-2.49935e-13
1.20706e-13
-2.79831e-13
8.11035e-14
-2.63136e-14
-5.52942e-10
5.30882e-09
7.39446e-08
-3.48357e-11
2.87007e-10
1.40389e-10
-3.50787e-11
1.52412e-10
-5.06164e-11
-2.94656e-11
1.00999e-10
-4.03307e-11
-2.4823e-11
6.89448e-11
-3.07462e-11
-2.10917e-11
4.81664e-11
-2.2299e-11
-1.80581e-11
3.43895e-11
-1.66491e-11
-1.55773e-11
2.50333e-11
-1.35085e-11
-1.35289e-11
1.8549e-11
-1.10454e-11
1.38376e-11
-2.98496e-14
-8.61592e-12
3.44425e-13
8.11403e-14
1.05831e-14
-1.66747e-14
7.70992e-14
9.49354e-15
-2.19997e-14
6.80469e-14
7.91753e-15
-1.98378e-14
5.92693e-14
6.32642e-15
-1.88941e-14
5.08209e-14
4.61361e-15
-1.95202e-14
4.26434e-14
3.73171e-15
-1.8163e-14
3.47113e-14
2.06652e-15
-1.91957e-14
2.70498e-14
1.15614e-15
-2.30748e-14
1.96678e-14
7.622e-16
1.26177e-14
4.21002e-16
-1.58619e-15
2.93999e-13
5.81842e-14
1.78447e-14
-6.42078e-14
5.34902e-14
1.5521e-14
-7.10764e-14
4.53572e-14
1.60244e-14
-6.43934e-14
3.76621e-14
1.27827e-14
-6.21091e-14
3.04231e-14
9.34517e-15
-6.19814e-14
2.36947e-14
6.86155e-15
-5.88466e-14
1.75622e-14
5.76731e-15
-5.88796e-14
1.19233e-14
4.43193e-15
-7.04117e-14
6.79356e-15
3.78369e-15
2.41814e-15
2.12391e-15
-4.37367e-15
2.16984e-13
7.39677e-14
2.59369e-14
-1.63185e-13
6.69101e-14
2.43819e-14
-1.32855e-13
5.62155e-14
2.58532e-14
-1.16835e-13
4.62772e-14
1.98296e-14
-1.13638e-13
3.73791e-14
1.64738e-14
-1.03701e-13
2.9341e-14
1.36577e-14
-9.8575e-14
2.18177e-14
1.07359e-14
-1.03076e-13
1.50269e-14
8.84734e-15
-1.19659e-13
9.38266e-15
7.62813e-15
3.09718e-15
5.62366e-15
-7.13665e-15
9.66984e-14
9.19655e-14
4.27817e-14
-2.85401e-13
8.04647e-14
4.24624e-14
-2.12824e-13
6.59993e-14
4.46266e-14
-1.79155e-13
5.32743e-14
3.64335e-14
-1.67028e-13
4.20307e-14
2.97962e-14
-1.55645e-13
3.2169e-14
2.49541e-14
-1.44441e-13
2.35551e-14
2.06639e-14
-1.47434e-13
1.59657e-14
1.75714e-14
-1.71147e-13
9.59446e-15
1.48281e-14
3.57937e-15
1.02356e-14
-1.04914e-14
-1.92019e-14
1.15887e-13
7.48691e-14
-4.40044e-13
9.78635e-14
7.77425e-14
-3.00871e-13
7.81941e-14
7.62589e-14
-2.58287e-13
6.13292e-14
6.13056e-14
-2.34952e-13
4.73223e-14
5.13453e-14
-2.13817e-13
3.54992e-14
4.21706e-14
-1.9489e-13
2.55797e-14
3.50347e-14
-1.92789e-13
1.76581e-14
3.05773e-14
-2.24281e-13
9.57022e-15
2.73324e-14
3.55458e-15
1.76805e-14
-1.33424e-14
-1.53344e-13
1.47772e-13
1.33765e-13
-6.42372e-13
1.20887e-13
1.37098e-13
-4.14888e-13
9.33816e-14
1.29224e-13
-3.5477e-13
7.12933e-14
1.03942e-13
-3.1571e-13
5.35169e-14
8.42198e-14
-2.80389e-13
3.90878e-14
6.986e-14
-2.50114e-13
2.74248e-14
5.78764e-14
-2.35482e-13
1.7883e-14
4.82408e-14
-2.79391e-13
1.04976e-14
4.26074e-14
3.68724e-15
2.74788e-14
-1.66889e-14
-5.57707e-13
1.87652e-13
2.38808e-13
-9.1394e-13
1.50581e-13
2.45492e-13
-5.65037e-13
1.1265e-13
2.14024e-13
-4.75233e-13
8.33232e-14
1.68541e-13
-4.11699e-13
6.08346e-14
1.33774e-13
-3.56832e-13
4.34387e-14
1.08413e-13
-3.11779e-13
2.97099e-14
8.74267e-14
-2.81246e-13
1.90238e-14
7.37237e-14
-3.37119e-13
1.0893e-14
6.20808e-14
3.41893e-15
3.97397e-14
-1.9883e-14
-1.07628e-12
3.16631e-13
4.31818e-13
-1.27903e-12
1.76522e-13
4.28293e-13
-7.63148e-13
1.82286e-13
3.50426e-13
-6.25377e-13
1.28661e-13
2.67176e-13
-5.25951e-13
8.97739e-14
2.06145e-13
-4.45172e-13
6.15248e-14
1.61346e-13
-3.79568e-13
4.07676e-14
1.29634e-13
-3.31928e-13
2.53855e-14
1.05309e-13
-3.97266e-13
1.381e-14
8.62009e-14
5.17565e-15
5.64142e-14
-2.29385e-14
-2.12832e-12
4.47209e-11
7.30793e-12
-1.73061e-12
6.50862e-13
7.87541e-13
-1.02244e-12
2.37101e-13
5.70469e-13
-8.13661e-13
1.54446e-13
4.19351e-13
-6.63346e-13
1.00355e-13
3.11378e-13
-5.46301e-13
6.36273e-14
2.3709e-13
-4.54343e-13
3.84928e-14
1.8291e-13
-3.87879e-13
2.11057e-14
1.44138e-13
-4.59123e-13
9.00123e-15
1.1381e-13
6.8614e-16
6.98664e-14
-2.64866e-14
-5.14002e-10
7.71261e-09
7.36157e-08
-5.78821e-12
6.48544e-11
2.08822e-10
-2.14166e-12
4.72625e-12
4.36965e-13
-2.33137e-12
2.65567e-12
1.13665e-13
-1.79013e-12
1.66134e-12
1.8133e-13
-1.39221e-12
1.08583e-12
2.09905e-13
-1.09986e-12
7.33928e-13
2.17657e-13
-8.85553e-13
5.11552e-13
2.13939e-13
-7.81169e-13
3.63869e-13
2.04675e-13
2.32876e-13
-3.0112e-14
2.68591e-13
3.44303e-13
8.12319e-14
1.84833e-14
-1.70245e-14
7.71614e-14
1.57993e-14
-2.20082e-14
6.81386e-14
1.2692e-14
-2.04762e-14
5.93456e-14
7.69511e-15
-1.7313e-14
5.08703e-14
7.72646e-15
-1.99489e-14
4.26496e-14
3.5451e-15
-1.91425e-14
3.47641e-14
5.12141e-15
-1.88617e-14
2.71203e-14
4.25374e-15
-2.30726e-14
1.97076e-14
8.8518e-16
1.26468e-14
1.85229e-16
-1.81951e-15
2.93707e-13
5.82883e-14
2.66955e-14
-6.43869e-14
5.36048e-14
2.67715e-14
-7.12376e-14
4.54307e-14
1.98894e-14
-6.53837e-14
3.76734e-14
1.69461e-14
-6.28891e-14
3.04869e-14
1.12917e-14
-6.073e-14
2.37862e-14
9.45552e-15
-5.92442e-14
1.75978e-14
6.42682e-15
-5.92976e-14
1.1958e-14
7.7105e-15
-7.04971e-14
6.84626e-15
6.20728e-15
2.47734e-15
1.66866e-15
-4.34678e-15
2.16631e-13
7.4123e-14
4.21083e-14
-1.63723e-13
6.70312e-14
3.66829e-14
-1.34124e-13
5.63561e-14
3.55746e-14
-1.14642e-13
4.65101e-14
3.24986e-14
-1.11334e-13
3.74832e-14
2.31543e-14
-1.04927e-13
2.94157e-14
1.69711e-14
-9.85191e-14
2.19914e-14
1.51585e-14
-1.03167e-13
1.51772e-14
1.22444e-14
-1.19576e-13
9.19479e-15
1.32318e-14
3.05066e-15
6.20941e-15
-7.4309e-15
9.63104e-14
9.22446e-14
6.5259e-14
-2.86071e-13
8.07781e-14
6.33174e-14
-2.13562e-13
6.62028e-14
6.21793e-14
-1.79586e-13
5.33639e-14
5.06083e-14
-1.66814e-13
4.22039e-14
4.15879e-14
-1.56161e-13
3.22297e-14
3.35998e-14
-1.44388e-13
2.35516e-14
3.06444e-14
-1.48018e-13
1.61176e-14
2.51786e-14
-1.71235e-13
9.9874e-15
2.58758e-14
3.75721e-15
1.98329e-14
-1.01568e-14
-1.98091e-14
1.16355e-13
1.09767e-13
-4.41377e-13
9.81952e-14
1.1023e-13
-3.03743e-13
7.85578e-14
1.08294e-13
-2.57962e-13
6.16858e-14
9.21572e-14
-2.35798e-13
4.75515e-14
7.36872e-14
-2.14462e-13
3.58102e-14
6.47562e-14
-1.9477e-13
2.59499e-14
5.67954e-14
-1.90101e-13
1.73127e-14
4.36526e-14
-2.24779e-13
9.46535e-15
3.61221e-14
3.69969e-15
2.46136e-14
-1.33153e-14
-1.54662e-13
1.48486e-13
1.90849e-13
-6.44225e-13
1.21593e-13
2.03177e-13
-4.16333e-13
9.38903e-14
1.8115e-13
-3.55815e-13
7.17158e-14
1.47796e-13
-3.16148e-13
5.38904e-14
1.20605e-13
-2.81259e-13
3.93805e-14
1.01043e-13
-2.50941e-13
2.75582e-14
8.01591e-14
-2.34301e-13
1.83093e-14
7.4572e-14
-2.80139e-13
1.07403e-14
5.95211e-14
3.79634e-15
3.82802e-14
-1.65996e-14
-5.6107e-13
1.88706e-13
3.39424e-13
-9.1765e-13
1.51543e-13
3.4907e-13
-5.66777e-13
1.13423e-13
3.10555e-13
-4.76972e-13
8.39282e-14
2.37414e-13
-4.12839e-13
6.13315e-14
1.9408e-13
-3.58443e-13
4.3774e-14
1.53035e-13
-3.12333e-13
3.0149e-14
1.27504e-13
-2.82e-13
1.91755e-14
1.04149e-13
-3.38299e-13
1.11444e-14
8.65824e-14
4.05963e-15
5.5869e-14
-1.98303e-14
-1.08299e-12
3.19667e-13
6.05061e-13
-1.28513e-12
1.81012e-13
6.1344e-13
-7.66336e-13
1.3948e-13
5.02924e-13
-6.28195e-13
1.00741e-13
3.81864e-13
-5.28386e-13
7.21554e-14
2.97739e-13
-4.46926e-13
5.3837e-14
2.35686e-13
-3.81221e-13
3.65054e-14
1.84162e-13
-3.33409e-13
2.30479e-14
1.51379e-13
-3.98783e-13
1.26092e-14
1.23327e-13
4.83982e-15
7.75983e-14
-2.31525e-14
-2.15326e-12
4.66625e-11
1.12117e-11
-1.73887e-12
5.98408e-13
1.14216e-12
-1.02816e-12
1.56627e-13
8.16924e-13
-8.18769e-13
1.6969e-13
5.92516e-13
-6.6705e-13
1.11954e-13
4.45613e-13
-5.49557e-13
7.15182e-14
3.38076e-13
-4.56664e-13
4.2017e-14
2.57839e-13
-3.90123e-13
1.75636e-14
2.07779e-13
-4.61572e-13
8.45968e-15
1.65604e-13
3.27484e-15
1.04395e-13
-2.65371e-14
-5.36977e-10
1.22478e-08
7.77668e-08
-4.50856e-12
9.49421e-11
2.30142e-10
-1.32618e-12
1.60444e-12
7.46166e-13
-1.07578e-12
8.50678e-13
1.51836e-13
-8.47809e-13
5.87909e-13
8.48881e-14
-6.76139e-13
4.20962e-13
6.05036e-14
-5.46893e-13
3.10079e-13
4.63198e-14
-4.54492e-13
2.33676e-13
3.64276e-14
-5.30018e-13
1.78899e-13
2.91535e-14
1.09967e-13
-3.00888e-14
2.47291e-14
3.43975e-13
8.13854e-14
2.21366e-14
-1.73609e-14
7.73096e-14
1.49277e-14
-2.26252e-14
6.82124e-14
1.8246e-14
-1.9901e-14
5.94526e-14
1.31121e-14
-1.95912e-14
5.09169e-14
7.66248e-15
-1.91846e-14
4.2718e-14
4.66725e-15
-1.88842e-14
3.47877e-14
2.11865e-15
-1.97532e-14
2.7155e-14
1.11039e-15
-2.31136e-14
1.97758e-14
1.26699e-15
1.2676e-14
1.349e-15
-1.55822e-15
2.93322e-13
5.84781e-14
3.71581e-14
-6.50476e-14
5.37645e-14
3.36512e-14
-7.07253e-14
4.56058e-14
3.204e-14
-6.69243e-14
3.77958e-14
2.09191e-14
-6.15506e-14
3.06153e-14
2.15519e-14
-6.16774e-14
2.38614e-14
1.20861e-14
-5.71902e-14
1.76837e-14
8.32516e-15
-5.9287e-14
1.2017e-14
5.28503e-15
-7.08294e-14
6.90918e-15
4.51394e-15
2.53888e-15
4.6924e-15
-4.36391e-15
2.15942e-13
7.4436e-14
4.71617e-14
-1.64718e-13
6.72908e-14
5.07028e-14
-1.34326e-13
5.65632e-14
5.34342e-14
-1.15359e-13
4.66644e-14
4.27955e-14
-1.14533e-13
3.76022e-14
3.18704e-14
-1.04002e-13
2.95401e-14
2.62905e-14
-9.90975e-14
2.21478e-14
1.78849e-14
-1.02766e-13
1.53679e-14
1.83902e-14
-1.19893e-13
9.48073e-15
1.20965e-14
3.46388e-15
8.36053e-15
-7.45996e-15
9.54944e-14
9.27358e-14
8.97537e-14
-2.87402e-13
8.11992e-14
8.72065e-14
-2.14325e-13
6.65732e-14
9.10836e-14
-1.80201e-13
5.37149e-14
7.48706e-14
-1.6773e-13
4.25251e-14
5.83964e-14
-1.55798e-13
3.25625e-14
4.23496e-14
-1.45152e-13
2.37797e-14
3.45271e-14
-1.47994e-13
1.62579e-14
3.29638e-14
-1.71417e-13
9.94506e-15
2.62089e-14
3.52571e-15
1.53111e-14
-1.0296e-14
-2.12251e-14
1.17124e-13
1.56154e-13
-4.43418e-13
9.8893e-14
1.59654e-13
-3.04164e-13
7.90679e-14
1.56573e-13
-2.59093e-13
6.21049e-14
1.2634e-13
-2.36333e-13
4.78725e-14
1.04344e-13
-2.15489e-13
3.6099e-14
8.39982e-14
-1.9527e-13
2.60395e-14
6.1697e-14
-1.91882e-13
1.7581e-14
5.29822e-14
-2.25238e-13
9.9083e-15
4.44872e-14
3.9967e-15
2.82992e-14
-1.32951e-14
-1.56806e-13
1.4973e-13
2.72249e-13
-6.47805e-13
1.22579e-13
2.8395e-13
-4.1804e-13
9.47627e-14
2.63083e-13
-3.5754e-13
7.23614e-14
2.06023e-13
-3.1707e-13
5.44855e-14
1.67415e-13
-2.83217e-13
3.97643e-14
1.26434e-13
-2.5146e-13
2.80442e-14
1.1255e-13
-2.35093e-13
1.84775e-14
8.28096e-14
-2.81139e-13
1.09853e-14
6.94721e-14
3.87134e-15
4.50522e-14
-1.64775e-14
-5.67313e-13
1.9045e-13
4.86829e-13
-9.2318e-13
1.5311e-13
5.00595e-13
-5.70911e-13
1.14591e-13
4.28639e-13
-4.79203e-13
8.49006e-14
3.38936e-13
-4.155e-13
6.20577e-14
2.65022e-13
-3.60162e-13
4.4454e-14
2.10128e-13
-3.14162e-13
3.06566e-14
1.68264e-13
-2.82983e-13
1.96481e-14
1.2459e-13
-3.39882e-13
1.1496e-14
1.03836e-13
4.4478e-15
6.48294e-14
-1.97494e-14
-1.09443e-12
3.2413e-13
8.80533e-13
-1.29484e-12
1.84309e-13
8.76194e-13
-7.72102e-13
1.40641e-13
7.08435e-13
-6.32643e-13
1.01563e-13
5.33568e-13
-5.32031e-13
7.26788e-14
4.06273e-13
-4.50036e-13
5.38552e-14
3.12143e-13
-3.83799e-13
3.68865e-14
2.46289e-13
-3.35515e-13
2.35162e-14
1.80182e-13
-4.01066e-13
1.30269e-14
1.42704e-13
5.17784e-15
8.9701e-14
-2.30612e-14
-2.18985e-12
4.9539e-11
1.46986e-11
-1.75217e-12
6.20056e-13
1.62188e-12
-1.03765e-12
1.64092e-13
1.154e-12
-8.25914e-13
1.65559e-13
8.35073e-13
-6.72854e-13
1.08175e-13
6.10932e-13
-5.54448e-13
6.68219e-14
4.54199e-13
-4.60166e-13
3.15617e-14
3.33765e-13
-3.93336e-13
1.74897e-14
2.62552e-13
-4.6507e-13
9.06396e-15
1.9583e-13
3.71107e-15
1.19107e-13
-2.65575e-14
-5.73514e-10
1.67668e-08
8.37043e-08
-4.646e-12
1.40184e-10
2.49545e-10
-1.32638e-12
2.30083e-12
7.82937e-13
-1.06712e-12
1.14268e-12
8.66546e-14
-8.43352e-13
8.16368e-13
6.39966e-14
-6.73943e-13
5.94899e-13
4.96675e-14
-5.46175e-13
4.36596e-13
3.92382e-14
-4.54476e-13
3.27633e-13
3.15351e-14
-5.31622e-13
2.50694e-13
2.5748e-14
1.48526e-13
-3.02885e-14
2.13896e-14
3.43466e-13
8.15886e-14
2.87094e-14
-1.76163e-14
7.7509e-14
2.81518e-14
-2.32034e-14
6.83355e-14
2.23107e-14
-2.00181e-14
5.95574e-14
1.77376e-14
-1.9921e-14
5.10405e-14
8.30146e-15
-1.98133e-14
4.28081e-14
6.2689e-15
-1.90668e-14
3.48846e-14
5.27968e-15
-1.95133e-14
2.72304e-14
5.19053e-15
-2.30444e-14
1.98471e-14
1.07213e-14
1.27517e-14
2.96222e-14
-1.65709e-15
2.92784e-13
5.86813e-14
4.96846e-14
-6.56528e-14
5.39495e-14
4.49306e-14
-7.14079e-14
4.57892e-14
4.42506e-14
-6.59166e-14
3.79623e-14
3.45101e-14
-6.41368e-14
3.07014e-14
1.92901e-14
-6.10967e-14
2.39748e-14
1.2479e-14
-5.94807e-14
1.77754e-14
9.41914e-15
-5.894e-14
1.2136e-14
1.04565e-14
-7.0777e-14
6.99294e-15
1.04136e-14
2.60605e-15
2.31577e-14
-4.45369e-15
2.15147e-13
7.48333e-14
7.24824e-14
-1.65798e-13
6.75914e-14
6.88021e-14
-1.348e-13
5.68287e-14
6.93039e-14
-1.17112e-13
4.68775e-14
5.55212e-14
-1.12101e-13
3.7814e-14
4.31534e-14
-1.05688e-13
2.96401e-14
2.41331e-14
-9.79141e-14
2.23087e-14
1.96717e-14
-1.03622e-13
1.54053e-14
2.10727e-14
-1.19989e-13
9.76283e-15
2.14892e-14
3.31891e-15
2.39604e-14
-7.59527e-15
9.44651e-14
9.33408e-14
1.15978e-13
-2.88866e-13
8.17386e-14
1.19199e-13
-2.15331e-13
6.70149e-14
1.19236e-13
-1.81261e-13
5.40962e-14
9.59451e-14
-1.6851e-13
4.29161e-14
7.79034e-14
-1.56293e-13
3.29719e-14
5.84002e-14
-1.45066e-13
2.40359e-14
3.77649e-14
-1.48042e-13
1.64835e-14
3.24842e-14
-1.72051e-13
9.65779e-15
3.67226e-14
4.06213e-15
3.19698e-14
-1.01219e-14
-2.29668e-14
1.18073e-13
2.02047e-13
-4.45809e-13
9.97077e-14
2.10746e-13
-3.06744e-13
7.97451e-14
2.01752e-13
-2.60117e-13
6.26185e-14
1.63668e-13
-2.37232e-13
4.82771e-14
1.32488e-13
-2.16882e-13
3.64182e-14
1.07812e-13
-1.95623e-13
2.63989e-14
6.83633e-14
-1.94696e-13
1.77244e-14
5.52132e-14
-2.25852e-13
1.0416e-14
5.07856e-14
4.22413e-15
4.62302e-14
-1.34287e-14
-1.59556e-13
1.51248e-13
3.60398e-13
-6.51797e-13
1.2379e-13
3.72827e-13
-4.21163e-13
9.57188e-14
3.38959e-13
-3.59386e-13
7.32206e-14
2.72885e-13
-3.18686e-13
5.51898e-14
2.17863e-13
-2.846e-13
4.03477e-14
1.78233e-13
-2.53109e-13
2.84669e-14
1.13435e-13
-2.35592e-13
1.88516e-14
8.77763e-14
-2.82258e-13
1.13992e-14
7.39923e-14
4.09899e-15
6.50559e-14
-1.65718e-14
-5.7504e-13
1.93004e-13
6.37538e-13
-9.2997e-13
1.55001e-13
6.49613e-13
-5.74827e-13
1.1606e-13
5.61331e-13
-4.82706e-13
8.60163e-14
4.37117e-13
-4.18216e-13
6.29372e-14
3.43702e-13
-3.62461e-13
4.51772e-14
2.74341e-13
-3.1669e-13
3.1356e-14
2.06526e-13
-2.8397e-13
2.0145e-14
1.34325e-13
-3.41851e-13
1.17503e-14
1.06771e-13
4.82313e-15
7.91815e-14
-1.97329e-14
-1.10862e-12
3.2661e-13
1.14286e-12
-1.30624e-12
1.86271e-13
1.12651e-12
-7.79059e-13
1.42906e-13
9.14905e-13
-6.38197e-13
1.03214e-13
6.89646e-13
-5.36458e-13
7.39575e-14
5.26568e-13
-4.53425e-13
5.46067e-14
4.10431e-13
-3.87586e-13
3.7648e-14
3.17551e-13
-3.37931e-13
2.42151e-14
1.97681e-13
-4.03915e-13
1.36451e-14
1.51024e-13
5.65731e-15
9.72763e-14
-2.31471e-14
-2.20346e-12
4.88428e-11
1.46467e-11
-1.77266e-12
5.95339e-13
2.0299e-12
-1.04929e-12
1.62517e-13
1.49356e-12
-8.34762e-13
1.68832e-13
1.07712e-12
-6.79973e-13
1.10585e-13
7.97264e-13
-5.60026e-13
6.87582e-14
5.99759e-13
-4.65246e-13
3.26825e-14
4.5679e-13
-3.96884e-13
1.81659e-14
2.81844e-13
-4.69432e-13
9.5141e-15
2.07539e-13
4.17296e-15
1.25353e-13
-2.66265e-14
-5.72606e-10
1.73019e-08
8.75963e-08
-4.45874e-12
1.19961e-10
2.45524e-10
-1.33691e-12
2.79177e-12
6.53188e-13
-1.08096e-12
1.64721e-12
8.51132e-14
-8.53815e-13
1.1781e-12
6.40533e-14
-6.82214e-13
8.55205e-13
5.00872e-14
-5.53219e-13
6.3169e-13
3.98333e-14
-4.59759e-13
4.45768e-13
3.2277e-14
-5.37754e-13
2.7786e-13
2.65027e-14
1.61353e-13
-3.02271e-14
2.23211e-14
3.43182e-13
8.17869e-14
2.2159e-14
-1.82777e-14
7.75661e-14
7.17984e-15
-2.3218e-14
6.84619e-14
9.34979e-15
-2.06596e-14
5.96631e-14
9.53828e-15
-2.01869e-14
5.11467e-14
1.59168e-14
-2.04329e-14
4.29453e-14
2.84593e-14
-2.005e-14
3.50596e-14
5.00017e-14
-2.01724e-14
2.74837e-14
1.68498e-13
-2.03397e-14
2.02084e-14
6.64771e-13
1.30146e-14
2.06703e-12
-7.16918e-15
2.92075e-13
5.89051e-14
3.47578e-14
-6.60496e-14
5.40839e-14
1.25186e-14
-7.18768e-14
4.58689e-14
2.01132e-14
-6.69096e-14
3.80628e-14
1.84003e-14
-6.4216e-14
3.08287e-14
1.95468e-14
-6.12457e-14
2.41182e-14
3.36724e-14
-5.99917e-14
1.79208e-14
4.975e-14
-6.22121e-14
1.2312e-14
1.18658e-13
-7.19747e-14
7.27881e-15
3.97559e-13
2.75733e-15
1.34458e-12
-7.17005e-15
2.14143e-13
7.51497e-14
4.89965e-14
-1.66776e-13
6.78259e-14
2.09337e-14
-1.35088e-13
5.7081e-14
3.30598e-14
-1.18451e-13
4.70772e-14
3.1291e-14
-1.11689e-13
3.80559e-14
3.27844e-14
-1.06307e-13
2.99271e-14
4.34061e-14
-9.93044e-14
2.26131e-14
6.16357e-14
-1.04461e-13
1.55772e-14
1.00477e-13
-1.23374e-13
9.28625e-15
2.66517e-13
3.52786e-15
8.80004e-13
-5.97265e-15
9.35969e-14
9.39292e-14
8.23927e-14
-2.90014e-13
8.21207e-14
4.58191e-14
-2.16457e-13
6.734e-14
6.23544e-14
-1.81517e-13
5.44308e-14
5.82765e-14
-1.6876e-13
4.31958e-14
5.81204e-14
-1.56755e-13
3.32021e-14
6.31719e-14
-1.46754e-13
2.43944e-14
7.87275e-14
-1.49402e-13
1.69257e-14
1.0322e-13
-1.7579e-13
9.9239e-15
2.06898e-13
4.40187e-15
6.12009e-13
-7.37041e-15
-2.44997e-14
1.19035e-13
1.43806e-13
-4.47513e-13
1.00356e-13
1.00894e-13
-3.07089e-13
8.03199e-14
1.17161e-13
-2.61282e-13
6.31975e-14
1.05783e-13
-2.3781e-13
4.87838e-14
9.81093e-14
-2.17389e-13
3.69534e-14
1.26616e-13
-1.96993e-13
2.6642e-14
1.06881e-13
-1.98079e-13
1.79522e-14
1.22158e-13
-2.29791e-13
1.09293e-14
1.89042e-13
4.18523e-15
4.55507e-13
-1.18119e-14
-1.62222e-13
1.52683e-13
2.55822e-13
-6.5445e-13
1.24748e-13
2.04702e-13
-4.22283e-13
9.65962e-14
2.12462e-13
-3.61612e-13
7.39482e-14
1.84338e-13
-3.19223e-13
5.587e-14
1.63351e-13
-2.87019e-13
4.09026e-14
1.8734e-13
-2.54336e-13
2.89956e-14
1.51447e-13
-2.37424e-13
1.93087e-14
1.63493e-13
-2.86806e-13
1.16832e-14
1.97607e-13
4.81199e-15
3.67215e-13
-1.57378e-14
-5.82517e-13
1.97393e-13
4.59498e-13
-9.34111e-13
1.56544e-13
3.92987e-13
-5.78058e-13
1.17272e-13
3.71102e-13
-4.85485e-13
8.70847e-14
3.09399e-13
-4.2007e-13
6.3814e-14
2.6185e-13
-3.6528e-13
4.59589e-14
2.65717e-13
-3.18843e-13
3.21051e-14
1.71961e-13
-2.8682e-13
2.07502e-14
2.12518e-13
-3.46796e-13
1.231e-14
2.27212e-13
5.09884e-15
3.2132e-13
-1.90401e-14
-1.1212e-12
3.18335e-13
8.18262e-13
-1.31332e-12
1.83493e-13
7.24378e-13
-7.8418e-13
1.4533e-13
6.30215e-13
-6.42672e-13
1.04756e-13
5.03847e-13
-5.39874e-13
7.53272e-14
4.08795e-13
-4.5676e-13
5.55209e-14
3.89422e-13
-3.91667e-13
3.86906e-14
3.84897e-13
-3.41063e-13
2.49248e-14
2.39e-13
-4.10006e-13
1.43457e-14
2.74413e-13
6.26611e-15
3.03955e-13
-2.2657e-14
-2.08436e-12
2.74325e-11
3.50496e-12
-1.80733e-12
3.89698e-13
1.24642e-12
-1.05858e-12
2.64719e-13
1.04413e-12
-8.4134e-13
1.72445e-13
7.98637e-13
-6.85967e-13
1.13244e-13
6.20329e-13
-5.64668e-13
7.10785e-14
5.79714e-13
-4.7179e-13
3.40657e-14
5.42769e-13
-4.00724e-13
1.90067e-14
2.96637e-13
-4.76678e-13
1.00663e-14
3.33952e-13
4.76589e-15
3.07341e-13
-2.64038e-14
-3.39861e-10
8.76854e-11
7.11848e-08
-2.85602e-12
-4.95698e-11
9.24781e-11
-1.3128e-12
1.35884e-12
-4.74368e-15
-1.09375e-12
1.25097e-12
8.26529e-14
-8.62976e-13