/*--------------------------------*- C++ -*----------------------------------*\
| =========                 |                                                 |
| \\      /  F ield         | OpenFOAM: The Open Source CFD Toolbox           |
|  \\    /   O peration     | Version:  4.1                                   |
|   \\  /    A nd           | Web:      www.OpenFOAM.org                      |
|    \\/     M anipulation  |                                                 |
\*---------------------------------------------------------------------------*/
FoamFile
{
    version     2.0;
    format      ascii;
    class       volScalarField;
    location    "0.28";
    object      Ma;
}
// * * * * * * * * * * * * * * * * * * * * * * * * * * * * * * * * * * * * * //

dimensions      [0 0 0 0 0 0 0];

internalField   nonuniform List<scalar> 
52500
(
3.10977
3.24486
3.23255
3.21178
3.18485
3.14369
3.07021
2.97487
2.80641
2.51928
2.27781
2.01899
1.7684
1.40964
0.655946
0.265692
0.528883
0.432803
0.422509
0.405951
0.356319
0.289901
0.186541
0.162197
0.034709
3.10976
3.24485
3.23254
3.21177
3.18484
3.14367
3.07017
2.97484
2.80634
2.51942
2.27805
2.01961
1.77317
1.42566
0.696056
0.253753
0.530592
0.43423
0.423574
0.407701
0.358902
0.294905
0.194356
0.17233
0.071615
3.10976
3.24485
3.23254
3.21177
3.18484
3.14366
3.07015
2.97485
2.8063
2.51973
2.27833
2.02075
1.78127
1.45402
0.772542
0.235196
0.535263
0.442778
0.428506
0.413576
0.366567
0.306731
0.21177
0.193665
0.118858
3.10975
3.24483
3.23251
3.21173
3.1848
3.1436
3.07011
2.97481
2.80627
2.52011
2.27826
2.0231
1.79047
1.49013
0.87979
0.204414
0.536793
0.459501
0.436403
0.423387
0.379796
0.325767
0.237721
0.224477
0.170321
3.10975
3.24483
3.2325
3.21173
3.18481
3.14359
3.07014
2.97484
2.80637
2.52048
2.27795
2.02627
1.79583
1.52993
1.01408
0.18213
0.534846
0.485327
0.448333
0.436705
0.39803
0.351669
0.270812
0.263422
0.226463
3.10974
3.24483
3.23252
3.21174
3.18483
3.14353
3.07002
2.97455
2.80583
2.51947
2.27597
2.027
1.79528
1.56868
1.14491
0.251004
0.525045
0.521686
0.464492
0.453861
0.421327
0.385049
0.311532
0.310559
0.290726
3.10973
3.24482
3.2325
3.21172
3.18482
3.14347
3.07006
2.97454
2.8061
2.5195
2.2756
2.02884
1.79714
1.60522
1.26822
0.44371
0.501727
0.56491
0.484721
0.474322
0.44917
0.425794
0.360349
0.36609
0.365407
3.10974
3.2448
3.23246
3.21167
3.18477
3.14345
3.07013
2.97467
2.80673
2.52017
2.27685
2.03057
1.80102
1.63878
1.37538
0.697554
0.452856
0.608135
0.509789
0.497649
0.480493
0.473802
0.419169
0.431468
0.454261
3.10973
3.24481
3.2325
3.21169
3.18482
3.14341
3.07003
2.97451
2.80598
2.51888
2.27587
2.02804
1.80088
1.6632
1.46273
0.97427
0.372473
0.636545
0.544479
0.524217
0.514013
0.527321
0.489167
0.507274
0.564978
3.10972
3.2448
3.23248
3.21167
3.18481
3.14337
3.06997
2.97446
2.80574
2.51842
2.27621
2.02691
1.80263
1.67896
1.52903
1.20101
0.39555
0.633973
0.591682
0.55469
0.549999
0.584013
0.57165
0.604026
0.740133
3.10973
3.24481
3.23249
3.21171
3.18479
3.14356
3.07008
2.97476
2.80634
2.5195
2.27833
2.01958
1.76888
1.40978
0.65547
0.265793
0.52879
0.432721
0.422469
0.405891
0.356234
0.289771
0.186341
0.161959
0.0335059
3.10976
3.24484
3.23253
3.21176
3.18483
3.14364
3.07017
2.97488
2.80639
2.51962
2.27839
2.02001
1.77348
1.4258
0.695877
0.253478
0.53046
0.434107
0.423539
0.407652
0.358828
0.294789
0.194188
0.172102
0.0710391
3.10973
3.24481
3.2325
3.21172
3.18482
3.14352
3.07001
2.97469
2.80581
2.51898
2.27768
2.02001
1.78015
1.45251
0.770271
0.236439
0.535473
0.442837
0.42852
0.41353
0.366492
0.306613
0.211604
0.193447
0.118498
3.10977
3.24485
3.23255
3.21178
3.18485
3.14369
3.07022
2.97494
2.80639
2.52016
2.27827
2.02296
1.79032
1.4899
0.879448
0.20443
0.536729
0.459389
0.436396
0.423337
0.379719
0.325652
0.237577
0.22429
0.170066
3.10973
3.24482
3.23251
3.21173
3.18482
3.14352
3.07004
2.97467
2.80587
2.51961
2.27688
2.02475
1.79408
1.52793
1.01171
0.182069
0.535285
0.485153
0.448311
0.43664
0.39795
0.351559
0.270691
0.263268
0.226278
3.10977
3.24485
3.23255
3.21178
3.18485
3.14368
3.07028
2.9749
2.80665
2.52065
2.27698
2.02825
1.79664
1.5701
1.14638
0.252219
0.524574
0.521312
0.464338
0.453763
0.421244
0.384948
0.311429
0.310436
0.290588
3.10974
3.24482
3.2325
3.21173
3.18481
3.14358
3.07017
2.9747
2.80666
2.52037
2.27637
2.02984
1.79843
1.60662
1.26971
0.445268
0.500998
0.564716
0.484461
0.4742
0.449087
0.4257
0.36026
0.365998
0.365305
3.10976
3.24485
3.23255
3.21177
3.18486
3.14366
3.07028
2.97476
2.80683
2.52002
2.2763
2.0295
1.8002
1.63791
1.37451
0.696511
0.452954
0.608092
0.509635
0.497538
0.48042
0.473721
0.419089
0.431398
0.454187
3.10976
3.24484
3.23254
3.21175
3.18486
3.14361
3.07023
2.97473
2.80655
2.51959
2.27646
2.02868
1.80198
1.66442
1.46387
0.974971
0.372321
0.636372
0.544314
0.524115
0.513948
0.527252
0.489095
0.507226
0.564931
3.10976
3.24485
3.23256
3.21176
3.18487
3.14364
3.07028
2.97482
2.80657
2.5194
2.27689
2.0275
1.80356
1.68008
1.53008
1.20191
0.396121
0.633707
0.591546
0.554587
0.549937
0.583954
0.571584
0.603996
0.740109
3.10976
3.24485
3.23255
3.21178
3.18485
3.1437
3.07022
2.97491
2.80648
2.51946
2.27804
2.01913
1.76846
1.40942
0.655087
0.265961
0.528794
0.432768
0.422466
0.405883
0.356231
0.289768
0.186341
0.161958
0.0335046
3.10976
3.24485
3.23254
3.21177
3.18484
3.14368
3.07019
2.97488
2.80642
2.51959
2.27822
2.01969
1.77319
1.42551
0.695497
0.253866
0.530469
0.434112
0.423514
0.407634
0.358821
0.294785
0.194187
0.172101
0.0710372
3.10976
3.24486
3.23255
3.21179
3.18485
3.1437
3.07022
2.97494
2.80646
2.51994
2.27847
2.02075
1.78121
1.45383
0.772043
0.235324
0.535189
0.442657
0.42844
0.413502
0.366482
0.306608
0.211602
0.193445
0.118495
3.10975
3.24483
3.23252
3.21175
3.18482
3.14364
3.07017
2.9749
2.80641
2.52028
2.27836
2.02306
1.79044
1.49005
0.879623
0.204296
0.536662
0.459317
0.436322
0.423308
0.379708
0.325648
0.237575
0.224287
0.170064
3.10977
3.24486
3.23256
3.21179
3.18486
3.14371
3.07028
2.97498
2.80657
2.52058
2.27779
2.02579
1.79539
1.52941
1.01344
0.181865
0.534888
0.485162
0.448264
0.436631
0.397946
0.351558
0.27069
0.263266
0.226275
3.10974
3.24484
3.23254
3.21177
3.18486
3.14358
3.07011
2.97464
2.80593
2.51951
2.27589
2.0267
1.79509
1.56843
1.14448
0.250572
0.52512
0.521477
0.464411
0.453788
0.421253
0.384951
0.31143
0.310435
0.290585
3.10977
3.24486
3.23256
3.21179
3.18487
3.1437
3.07034
2.97489
2.80688
2.52051
2.27647
2.02978
1.79839
1.60653
1.2695
0.444784
0.501259
0.56475
0.484567
0.474239
0.449105
0.425706
0.360263
0.365997
0.365303
3.10974
3.24482
3.2325
3.21172
3.18481
3.14356
3.07017
2.97466
2.80676
2.52006
2.27647
2.02991
1.80054
1.63822
1.37471
0.696536
0.453061
0.608057
0.509685
0.497568
0.480437
0.473728
0.419092
0.431399
0.454186
3.10977
3.24486
3.23256
3.21178
3.18489
3.14366
3.07031
2.97485
2.80677
2.51992
2.27672
2.02885
1.80201
1.66439
1.46379
0.974852
0.372472
0.636373
0.544325
0.524134
0.513963
0.527257
0.489097
0.507226
0.564931
3.10974
3.24482
3.23251
3.2117
3.18482
3.14353
3.07016
2.97471
2.80652
2.51955
2.27717
2.028
1.80394
1.68038
1.53033
1.20207
0.396215
0.633682
0.591534
0.554605
0.549953
0.583961
0.571587
0.603998
0.74011
3.10977
3.24486
3.23256
3.21179
3.18486
3.14372
3.07026
2.97496
2.80659
2.51961
2.27816
2.01917
1.76845
1.40936
0.654991
0.265968
0.528776
0.432764
0.422477
0.405892
0.356241
0.289774
0.186346
0.16196
0.0335033
3.10977
3.24486
3.23256
3.21179
3.18486
3.14372
3.07026
2.97497
2.80655
2.51973
2.27829
2.01969
1.77317
1.42547
0.695462
0.253848
0.53045
0.434101
0.423523
0.407644
0.358831
0.294791
0.194192
0.172103
0.0710372
3.10977
3.24486
3.23256
3.21179
3.18486
3.14372
3.07025
2.97498
2.8065
2.51997
2.27849
2.02076
1.78123
1.45385
0.771999
0.235385
0.535186
0.442655
0.428452
0.413512
0.36649
0.306612
0.211607
0.193447
0.118496
3.10977
3.24486
3.23256
3.21179
3.18486
3.14372
3.07025
2.97497
2.80648
2.52027
2.27828
2.02282
1.79025
1.48984
0.879415
0.20445
0.536775
0.459311
0.436338
0.423315
0.379715
0.325652
0.237579
0.22429
0.170065
3.10977
3.24486
3.23256
3.21179
3.18486
3.14372
3.07026
2.97494
2.80653
2.52053
2.27767
2.02554
1.79524
1.5292
1.0131
0.181963
0.535022
0.48512
0.448259
0.436627
0.39795
0.351561
0.270694
0.263269
0.226277
3.10977
3.24486
3.23256
3.21179
3.18486
3.14371
3.07028
2.97489
2.80665
2.52061
2.27688
2.028
1.79652
1.56997
1.14622
0.25195
0.524618
0.521376
0.464334
0.453769
0.421251
0.384952
0.311433
0.310438
0.290587
3.10977
3.24486
3.23256
3.21179
3.18487
3.1437
3.07031
2.97485
2.80684
2.52047
2.27629
2.02952
1.79819
1.60635
1.26941
0.444824
0.501138
0.564773
0.484507
0.474221
0.449101
0.425706
0.360266
0.366
0.365305
3.10977
3.24486
3.23256
3.21179
3.18488
3.14369
3.07033
2.97482
2.80694
2.52011
2.27634
2.02953
1.80021
1.6379
1.37444
0.6963
0.453055
0.608096
0.509677
0.497561
0.480437
0.473729
0.419094
0.431401
0.454188
3.10977
3.24486
3.23256
3.21178
3.18489
3.14367
3.07033
2.97486
2.8068
2.5199
2.27665
2.02879
1.80198
1.66437
1.46377
0.974808
0.372448
0.636368
0.544326
0.524133
0.513964
0.527259
0.489099
0.507229
0.564933
3.10977
3.24486
3.23257
3.21178
3.18489
3.14366
3.07032
2.97488
2.80671
2.5196
2.27703
2.02762
1.80361
1.68007
1.53003
1.20181
0.396106
0.63371
0.591537
0.554598
0.549949
0.583962
0.571588
0.604
0.740113
3.10977
3.24486
3.23256
3.2118
3.18488
3.14373
3.07028
2.975
2.80662
2.51964
2.27821
2.01924
1.76851
1.40942
0.655103
0.26593
0.528784
0.432756
0.422469
0.405884
0.356224
0.289759
0.186316
0.16194
0.0334978
3.10977
3.24486
3.23256
3.2118
3.18488
3.14373
3.07028
2.97501
2.80659
2.51977
2.27834
2.01975
1.77321
1.42551
0.695534
0.253813
0.530456
0.434102
0.423515
0.40763
0.358807
0.294766
0.194145
0.172092
0.0710427
3.10977
3.24486
3.23256
3.2118
3.18487
3.14373
3.07027
2.975
2.80653
2.52
2.27851
2.02077
1.78125
1.45388
0.772087
0.235309
0.535196
0.442669
0.428453
0.413506
0.366478
0.306602
0.211589
0.19346
0.118524
3.10977
3.24486
3.23256
3.2118
3.18487
3.14373
3.07027
2.97499
2.80651
2.52031
2.27831
2.02283
1.79026
1.48986
0.879447
0.204407
0.536781
0.459333
0.436341
0.423314
0.379715
0.325654
0.237577
0.224298
0.170095
3.10977
3.24486
3.23256
3.2118
3.18487
3.14373
3.07028
2.97498
2.80657
2.52057
2.27772
2.0256
1.79526
1.52922
1.01314
0.181971
0.535005
0.485133
0.448255
0.436621
0.39795
0.351565
0.270689
0.26326
0.226286
3.10977
3.24486
3.23256
3.2118
3.18487
3.14372
3.0703
2.97492
2.80668
2.52064
2.2769
2.02804
1.79651
1.56996
1.14625
0.251995
0.524601
0.521384
0.464323
0.453758
0.421245
0.384954
0.311424
0.310418
0.290581
3.10977
3.24486
3.23256
3.2118
3.18488
3.14371
3.07033
2.97487
2.80686
2.52047
2.27629
2.02955
1.79818
1.60635
1.26945
0.444946
0.501108
0.564789
0.484493
0.47421
0.449093
0.425708
0.360259
0.365976
0.365291
3.10977
3.24486
3.23256
3.21179
3.18488
3.1437
3.07034
2.97483
2.80694
2.5201
2.27632
2.0295
1.80019
1.63791
1.37451
0.696471
0.452998
0.608124
0.509673
0.497556
0.480429
0.47373
0.419094
0.431381
0.454171
3.10977
3.24486
3.23257
3.21178
3.18489
3.14367
3.07033
2.97487
2.80678
2.51985
2.27662
2.02881
1.80199
1.66439
1.46381
0.974919
0.372406
0.636385
0.544342
0.524135
0.513962
0.527261
0.489103
0.507211
0.564914
3.10977
3.24486
3.23257
3.21178
3.18489
3.14366
3.07032
2.97488
2.80669
2.51957
2.27706
2.02771
1.80368
1.68012
1.53007
1.20185
0.39613
0.633727
0.591569
0.554608
0.549953
0.583963
0.571594
0.603987
0.740096
3.10977
3.24486
3.23256
3.21179
3.18486
3.14371
3.07026
2.97496
2.80658
2.51961
2.27816
2.01917
1.76846
1.40937
0.65499
0.265969
0.528776
0.432764
0.422475
0.405891
0.356239
0.289773
0.186346
0.16196
0.0335031
3.10977
3.24486
3.23256
3.21179
3.18486
3.14372
3.07025
2.97497
2.80655
2.51973
2.27829
2.01969
1.77317
1.42547
0.695462
0.253848
0.53045
0.4341
0.423522
0.407642
0.358829
0.29479
0.194191
0.172103
0.071037
3.10977
3.24486
3.23256
3.21179
3.18486
3.14372
3.07025
2.97498
2.8065
2.51996
2.27849
2.02076
1.78123
1.45384
0.772001
0.235378
0.535183
0.442653
0.42845
0.413509
0.366488
0.306611
0.211606
0.193446
0.118495
3.10977
3.24486
3.23256
3.21179
3.18486
3.14372
3.07024
2.97496
2.80648
2.52027
2.27827
2.02282
1.79024
1.48983
0.879411
0.204444
0.536775
0.459307
0.436333
0.423311
0.379712
0.32565
0.237578
0.224289
0.170064
3.10977
3.24486
3.23256
3.21179
3.18486
3.14372
3.07026
2.97494
2.80652
2.52053
2.27766
2.02553
1.79522
1.52919
1.01311
0.181952
0.535011
0.485114
0.448252
0.436621
0.397946
0.351558
0.270692
0.263267
0.226276
3.10977
3.24486
3.23256
3.21179
3.18486
3.14371
3.07028
2.97489
2.80665
2.52059
2.27685
2.02798
1.79649
1.56995
1.14623
0.251963
0.524605
0.521369
0.464325
0.453762
0.421246
0.384948
0.311431
0.310436
0.290585
3.10977
3.24486
3.23256
3.21179
3.18487
3.1437
3.07031
2.97484
2.80683
2.52044
2.27625
2.02949
1.79814
1.60633
1.26942
0.444889
0.501116
0.564768
0.484495
0.474213
0.449096
0.425703
0.360263
0.365999
0.365302
3.10977
3.24486
3.23256
3.21179
3.18487
3.14369
3.07032
2.97481
2.80691
2.52007
2.2763
2.02948
1.80017
1.63788
1.37446
0.696377
0.453028
0.6081
0.509669
0.497555
0.480432
0.473726
0.419092
0.4314
0.454185
3.10977
3.24486
3.23256
3.21177
3.18488
3.14366
3.07031
2.97484
2.80674
2.51981
2.27657
2.02872
1.80195
1.66437
1.4638
0.974877
0.372437
0.636376
0.54433
0.524131
0.513961
0.527257
0.489097
0.507228
0.564931
3.10977
3.24486
3.23256
3.21177
3.18488
3.14365
3.0703
2.97485
2.80665
2.51953
2.277
2.02762
1.80364
1.68011
1.53007
1.20184
0.396117
0.633732
0.591553
0.554601
0.549948
0.58396
0.571587
0.603998
0.74011
3.10977
3.24486
3.23256
3.21179
3.18486
3.14372
3.07026
2.97496
2.80659
2.51961
2.27816
2.01917
1.76845
1.40936
0.654991
0.265968
0.528776
0.432764
0.422476
0.405892
0.356241
0.289774
0.186346
0.16196
0.0335033
3.10977
3.24486
3.23256
3.21179
3.18486
3.14372
3.07026
2.97497
2.80655
2.51973
2.27829
2.01969
1.77317
1.42547
0.695461
0.253848
0.53045
0.434101
0.423523
0.407644
0.358831
0.294791
0.194192
0.172103
0.0710372
3.10977
3.24486
3.23256
3.21179
3.18486
3.14372
3.07025
2.97498
2.8065
2.51997
2.27849
2.02076
1.78123
1.45385
0.771998
0.235385
0.535185
0.442655
0.428452
0.413512
0.36649
0.306612
0.211607
0.193447
0.118496
3.10977
3.24486
3.23256
3.21179
3.18486
3.14372
3.07025
2.97497
2.80648
2.52027
2.27828
2.02282
1.79025
1.48984
0.879415
0.20445
0.536775
0.45931
0.436338
0.423315
0.379715
0.325652
0.237579
0.22429
0.170065
3.10977
3.24486
3.23256
3.21179
3.18486
3.14372
3.07026
2.97494
2.80653
2.52053
2.27767
2.02554
1.79524
1.5292
1.0131
0.181963
0.535022
0.48512
0.448259
0.436627
0.39795
0.351561
0.270694
0.263269
0.226277
3.10977
3.24486
3.23256
3.21179
3.18486
3.14371
3.07028
2.97489
2.80665
2.52061
2.27688
2.028
1.79652
1.56997
1.14622
0.25195
0.524618
0.521376
0.464334
0.453769
0.421251
0.384952
0.311433
0.310438
0.290587
3.10977
3.24486
3.23256
3.21179
3.18487
3.1437
3.07031
2.97485
2.80684
2.52047
2.27629
2.02952
1.79819
1.60635
1.26941
0.444824
0.501138
0.564773
0.484507
0.474221
0.449102
0.425706
0.360266
0.366
0.365305
3.10977
3.24486
3.23256
3.21179
3.18488
3.14369
3.07033
2.97482
2.80694
2.52011
2.27634
2.02953
1.80021
1.6379
1.37444
0.6963
0.453055
0.608096
0.509677
0.497561
0.480437
0.473729
0.419095
0.431402
0.454188
3.10977
3.24486
3.23256
3.21178
3.18489
3.14367
3.07033
2.97486
2.8068
2.5199
2.27665
2.02879
1.80198
1.66437
1.46377
0.974808
0.372448
0.636368
0.544326
0.524133
0.513964
0.527259
0.489099
0.507229
0.564933
3.10977
3.24486
3.23257
3.21178
3.18489
3.14366
3.07032
2.97488
2.80671
2.5196
2.27703
2.02762
1.80361
1.68007
1.53003
1.20181
0.396106
0.63371
0.591537
0.554598
0.549949
0.583962
0.571588
0.604
0.740113
3.10976
3.24485
3.23255
3.21178
3.18485
3.1437
3.07022
2.97491
2.80648
2.51946
2.27804
2.01913
1.76846
1.40942
0.655087
0.265961
0.528794
0.432768
0.422466
0.405883
0.356231
0.289768
0.186341
0.161958
0.0335046
3.10976
3.24485
3.23254
3.21177
3.18484
3.14368
3.07019
2.97488
2.80642
2.51959
2.27822
2.01969
1.77319
1.42551
0.695497
0.253866
0.530469
0.434112
0.423514
0.407634
0.358821
0.294785
0.194187
0.172101
0.0710372
3.10976
3.24486
3.23255
3.21179
3.18485
3.1437
3.07022
2.97494
2.80646
2.51994
2.27847
2.02075
1.78121
1.45383
0.772043
0.235324
0.535189
0.442657
0.42844
0.413502
0.366482
0.306608
0.211602
0.193445
0.118495
3.10975
3.24483
3.23252
3.21175
3.18482
3.14364
3.07017
2.9749
2.80641
2.52028
2.27836
2.02306
1.79044
1.49005
0.879623
0.204296
0.536662
0.459317
0.436322
0.423308
0.379708
0.325648
0.237575
0.224287
0.170064
3.10977
3.24486
3.23256
3.21179
3.18486
3.14371
3.07028
2.97498
2.80657
2.52058
2.27779
2.02579
1.79539
1.52941
1.01344
0.181865
0.534888
0.485162
0.448264
0.436631
0.397946
0.351558
0.27069
0.263266
0.226275
3.10974
3.24484
3.23254
3.21177
3.18486
3.14358
3.07011
2.97464
2.80593
2.51951
2.27589
2.0267
1.79509
1.56843
1.14448
0.250572
0.52512
0.521477
0.464411
0.453788
0.421253
0.384951
0.31143
0.310435
0.290585
3.10977
3.24486
3.23256
3.21179
3.18487
3.1437
3.07034
2.97489
2.80688
2.52051
2.27647
2.02978
1.79839
1.60653
1.2695
0.444784
0.501259
0.56475
0.484567
0.474239
0.449105
0.425706
0.360263
0.365997
0.365303
3.10974
3.24482
3.2325
3.21172
3.18481
3.14356
3.07017
2.97466
2.80676
2.52006
2.27647
2.02991
1.80054
1.63822
1.37471
0.696536
0.453061
0.608057
0.509685
0.497568
0.480437
0.473728
0.419092
0.431399
0.454186
3.10977
3.24486
3.23256
3.21178
3.18489
3.14366
3.07031
2.97485
2.80677
2.51992
2.27672
2.02885
1.80201
1.66439
1.46379
0.974852
0.372472
0.636373
0.544325
0.524134
0.513963
0.527257
0.489097
0.507226
0.564931
3.10974
3.24482
3.23251
3.2117
3.18482
3.14353
3.07016
2.97471
2.80652
2.51955
2.27717
2.028
1.80394
1.68038
1.53033
1.20207
0.396215
0.633682
0.591534
0.554605
0.549953
0.583961
0.571587
0.603998
0.74011
3.10973
3.24481
3.23249
3.21171
3.18479
3.14356
3.07008
2.97476
2.80634
2.5195
2.27833
2.01958
1.76888
1.40978
0.65547
0.265793
0.52879
0.432722
0.422469
0.405891
0.356234
0.289771
0.186341
0.161959
0.033506
3.10976
3.24484
3.23253
3.21176
3.18483
3.14364
3.07017
2.97488
2.80639
2.51962
2.27839
2.02001
1.77348
1.4258
0.695878
0.253478
0.53046
0.434107
0.423539
0.407652
0.358828
0.294789
0.194188
0.172102
0.0710391
3.10973
3.24481
3.2325
3.21172
3.18482
3.14352
3.07001
2.97469
2.80581
2.51898
2.27768
2.02002
1.78015
1.45251
0.770272
0.236439
0.535473
0.442837
0.42852
0.41353
0.366492
0.306613
0.211604
0.193447
0.118498
3.10977
3.24485
3.23255
3.21178
3.18485
3.14369
3.07022
2.97494
2.80639
2.52016
2.27827
2.02296
1.79032
1.4899
0.879448
0.20443
0.536729
0.459389
0.436396
0.423337
0.379719
0.325652
0.237577
0.22429
0.170066
3.10973
3.24482
3.23251
3.21173
3.18482
3.14352
3.07004
2.97467
2.80587
2.51961
2.27688
2.02475
1.79408
1.52793
1.01171
0.182069
0.535285
0.485153
0.448311
0.43664
0.39795
0.351559
0.270691
0.263268
0.226278
3.10977
3.24485
3.23255
3.21178
3.18485
3.14368
3.07028
2.9749
2.80665
2.52065
2.27698
2.02825
1.79664
1.5701
1.14638
0.252219
0.524574
0.521313
0.464338
0.453763
0.421244
0.384948
0.311429
0.310436
0.290588
3.10974
3.24482
3.2325
3.21173
3.18481
3.14358
3.07017
2.9747
2.80666
2.52037
2.27637
2.02984
1.79843
1.60662
1.26971
0.445268
0.500999
0.564716
0.484461
0.4742
0.449087
0.4257
0.36026
0.365998
0.365305
3.10976
3.24485
3.23255
3.21177
3.18486
3.14366
3.07028
2.97476
2.80683
2.52002
2.2763
2.0295
1.8002
1.63791
1.37451
0.696511
0.452954
0.608092
0.509635
0.497538
0.48042
0.473721
0.419089
0.431398
0.454187
3.10976
3.24484
3.23254
3.21175
3.18486
3.14361
3.07023
2.97473
2.80655
2.51959
2.27646
2.02868
1.80198
1.66442
1.46387
0.97497
0.372322
0.636372
0.544315
0.524115
0.513949
0.527252
0.489095
0.507226
0.564932
3.10976
3.24485
3.23256
3.21176
3.18487
3.14364
3.07028
2.97482
2.80657
2.5194
2.27689
2.0275
1.80356
1.68008
1.53008
1.20191
0.396121
0.633707
0.591546
0.554587
0.549937
0.583954
0.571584
0.603996
0.740109
3.10976
3.24485
3.23254
3.21177
3.18484
3.14367
3.07016
2.97482
2.80636
2.51932
2.27793
2.01909
1.76848
1.40964
0.655826
0.265836
0.528939
0.432855
0.422534
0.405969
0.356343
0.289933
0.186579
0.162209
0.0347539
3.10975
3.24484
3.23252
3.21175
3.18482
3.14362
3.07016
2.97486
2.80637
2.51952
2.27824
2.01993
1.77348
1.42602
0.696569
0.253437
0.530509
0.434174
0.423566
0.407701
0.3589
0.294901
0.194326
0.172308
0.071607
3.10977
3.24485
3.23254
3.21177
3.18484
3.14366
3.07017
2.97488
2.80632
2.51976
2.27846
2.02101
1.78154
1.45432
0.772986
0.234961
0.535233
0.442775
0.42853
0.413587
0.366563
0.306724
0.211741
0.193641
0.118847
3.10974
3.24484
3.23253
3.21176
3.18485
3.14355
3.07002
2.97466
2.80565
2.51905
2.27726
2.02171
1.78888
1.48846
0.878395
0.205292
0.537337
0.459508
0.436461
0.423404
0.379796
0.325764
0.237706
0.224459
0.170309
3.10975
3.24483
3.23251
3.21174
3.18481
3.14361
3.07016
2.97486
2.80645
2.52057
2.27789
2.02616
1.79563
1.52973
1.01388
0.182184
0.535067
0.48527
0.448356
0.436713
0.398033
0.351669
0.270807
0.263411
0.226456
3.10974
3.24481
3.23247
3.21169
3.18478
3.1435
3.0701
2.97474
2.80644
2.52057
2.2772
2.02899
1.79725
1.57086
1.14751
0.253236
0.524292
0.521568
0.464398
0.453851
0.421327
0.38505
0.311533
0.310555
0.290725
3.10975
3.24484
3.23254
3.21176
3.18486
3.14355
3.07012
2.97458
2.80615
2.51952
2.27554
2.02864
1.79699
1.60508
1.26821
0.44387
0.501496
0.565118
0.484684
0.474321
0.449176
0.425798
0.360354
0.366091
0.36541
3.10972
3.2448
3.23248
3.21168
3.1848
3.14341
3.06998
2.97441
2.80604
2.51905
2.27567
2.02903
1.79943
1.63699
1.37344
0.695151
0.453541
0.608342
0.509941
0.497679
0.480507
0.473811
0.419177
0.431472
0.454265
3.10976
3.24483
3.23252
3.21172
3.18485
3.14354
3.07025
2.97483
2.8067
2.52
2.2771
2.02953
1.80258
1.66498
1.46438
0.975437
0.372617
0.636424
0.544524
0.524245
0.514029
0.527331
0.489175
0.50728
0.564982
3.10971
3.24479
3.23246
3.21164
3.1848
3.14333
3.06996
2.97449
2.80589
2.51869
2.2765
2.0275
1.80302
1.67921
1.52922
1.20117
0.395895
0.633841
0.591677
0.554693
0.550009
0.584022
0.571658
0.604032
0.740138
3.10973
3.2448
3.23247
3.21167
3.18476
3.14348
3.07001
2.97459
2.80611
2.51905
2.27754
2.02719
1.80565
1.68671
1.57923
1.35915
0.667322
0.58202
0.649751
0.587128
0.586827
0.633502
0.661461
0.70363
0.92765
3.10971
3.24479
3.23247
3.21168
3.18475
3.14343
3.06989
2.97431
2.80566
2.51785
2.27636
2.02568
1.80399
1.6888
1.61039
1.46629
1.0268
0.487161
0.690476
0.622824
0.624132
0.664912
0.745293
0.793172
0.997713
3.10972
3.24479
3.23245
3.21167
3.18473
3.14348
3.06999
2.97444
2.80632
2.51867
2.27725
2.02743
1.80492
1.69188
1.62869
1.53589
1.28352
0.525771
0.680245
0.667134
0.662411
0.690177
0.803975
0.860942
1.00819
3.10971
3.24477
3.23243
3.21164
3.18471
3.14342
3.06997
2.97443
2.80638
2.5188
2.27732
2.02817
1.80464
1.69299
1.63531
1.58157
1.43492
0.871404
0.604107
0.71099
0.702299
0.722178
0.830049
0.897049
1.00927
3.10971
3.24479
3.23246
3.21167
3.18474
3.1434
3.0699
2.97425
2.80585
2.51782
2.27605
2.02663
1.80255
1.69159
1.63786
1.60785
1.52078
1.23001
0.571967
0.717622
0.742285
0.753058
0.839766
0.915874
1.01575
3.10971
3.24479
3.23245
3.21167
3.18474
3.14339
3.06992
2.97429
2.80587
2.51786
2.27617
2.02689
1.80279
1.69199
1.64007
1.62242
1.57028
1.426
0.855239
0.666214
0.767889
0.782344
0.854805
0.933821
1.02456
3.10971
3.24478
3.23244
3.21166
3.18473
3.14336
3.06994
2.97434
2.80599
2.51803
2.27633
2.02709
1.80288
1.69211
1.64009
1.62496
1.60113
1.52553
1.24355
0.67341
0.769796
0.807869
0.875865
0.953087
1.03378
3.1097
3.24477
3.23243
3.21164
3.18472
3.14334
3.06991
2.9743
2.80593
2.51801
2.27635
2.02716
1.80293
1.69216
1.64023
1.6254
1.61564
1.57252
1.44642
0.992299
0.748298
0.823829
0.900025
0.972738
1.04592
3.10971
3.24478
3.23245
3.21166
3.18474
3.14337
3.0699
2.97427
2.80587
2.51793
2.27625
2.02695
1.80281
1.69203
1.64007
1.62526
1.6191
1.59243
1.52974
1.33378
0.909753
0.828316
0.917987
0.991169
1.0607
3.10969
3.24476
3.23242
3.21163
3.1847
3.14332
3.06984
2.97421
2.80582
2.51788
2.27622
2.02701
1.80285
1.69208
1.64012
1.62529
1.61939
1.59679
1.55616
1.46666
1.27561
0.974013
0.923596
1.00239
1.07456
3.10971
3.24477
3.23241
3.21162
3.18469
3.14339
3.06994
2.9744
2.80635
2.51877
2.27729
2.02841
1.80455
1.69393
1.64197
1.62706
1.62111
1.59891
1.56298
1.49908
1.43097
1.31015
1.10167
1.0149
1.07778
3.1097
3.24477
3.23244
3.21165
3.18473
3.14335
3.06983
2.97417
2.80569
2.51765
2.276
2.0267
1.80271
1.69197
1.63999
1.62514
1.61924
1.59728
1.5621
1.50086
1.45887
1.43841
1.38938
1.25824
1.13512
3.1097
3.24477
3.23244
3.21165
3.18473
3.14336
3.06985
2.97419
2.80573
2.51769
2.27602
2.0267
1.80267
1.69193
1.63997
1.62512
1.61924
1.59728
1.56215
1.50099
1.46055
1.45191
1.47088
1.47299
1.41931
3.10971
3.24477
3.23242
3.21163
3.18469
3.14339
3.06996
2.97441
2.80636
2.51872
2.27717
2.02827
1.80439
1.69378
1.64187
1.62699
1.62108
1.59893
1.56336
1.50182
1.46124
1.45332
1.47858
1.5109
1.53579
3.1097
3.24477
3.23243
3.21165
3.18471
3.14335
3.06988
2.97425
2.80585
2.51782
2.27606
2.02678
1.80264
1.69193
1.64001
1.62522
1.6194
1.59744
1.56229
1.50112
1.46078
1.45317
1.47903
1.51437
1.55131
3.10971
3.24478
3.23245
3.21166
3.18473
3.14337
3.06989
2.97425
2.80579
2.51773
2.27605
2.02677
1.80273
1.69202
1.64009
1.62529
1.61944
1.59747
1.56231
1.50112
1.46076
1.45317
1.47908
1.51468
1.55279
3.10971
3.24478
3.23244
3.21166
3.18474
3.14337
3.06989
2.97426
2.8058
2.51779
2.27615
2.02688
1.80282
1.69207
1.64012
1.62529
1.61943
1.59745
1.56228
1.50108
1.46074
1.45316
1.47907
1.5147
1.55293
3.10969
3.24476
3.23242
3.21163
3.1847
3.14331
3.06983
2.97419
2.80577
2.5178
2.27614
2.02695
1.80281
1.69205
1.6401
1.62527
1.61943
1.59745
1.5623
1.50111
1.46076
1.45317
1.47908
1.5147
1.55294
3.10971
3.24477
3.23241
3.21163
3.18469
3.14339
3.06996
2.97442
2.80641
2.51887
2.27735
2.02841
1.80445
1.6938
1.64186
1.62696
1.62104
1.59888
1.56331
1.50176
1.4612
1.4534
1.4792
1.51478
1.55299
3.10968
3.24475
3.23241
3.21161
3.18469
3.14328
3.06978
2.97414
2.80572
2.51778
2.27617
2.02701
1.80288
1.6921
1.64015
1.6253
1.61946
1.59747
1.56231
1.50112
1.46076
1.45317
1.47908
1.51471
1.55294
3.10971
3.24479
3.23246
3.21167
3.18475
3.14339
3.06993
2.9743
2.80585
2.51781
2.27613
2.0268
1.80273
1.69201
1.64007
1.62526
1.6194
1.59743
1.56226
1.50107
1.46073
1.45316
1.47908
1.51471
1.55295
3.10969
3.24475
3.2324
3.21161
3.18468
3.14328
3.0698
2.97416
2.8057
2.51773
2.27619
2.02713
1.80305
1.69231
1.64038
1.62554
1.6197
1.59769
1.56249
1.50125
1.46085
1.45322
1.47911
1.51472
1.55295
3.10971
3.24479
3.23246
3.21167
3.18475
3.14339
3.06993
2.9743
2.80584
2.5178
2.27613
2.02681
1.80275
1.69203
1.64008
1.62527
1.61941
1.59744
1.56226
1.50107
1.46073
1.45316
1.47908
1.51471
1.55295
3.10968
3.24475
3.2324
3.2116
3.18468
3.14326
3.06976
2.9741
2.80566
2.51772
2.27613
2.027
1.8029
1.69213
1.64018
1.62534
1.6195
1.5975
1.56233
1.50113
1.46077
1.45317
1.47909
1.51471
1.55294
3.10971
3.24477
3.23242
3.21163
3.18469
3.14339
3.06997
2.97443
2.80643
2.51891
2.27741
2.02846
1.8045
1.69385
1.64189
1.62698
1.62105
1.59889
1.56331
1.50176
1.4612
1.45339
1.4792
1.51478
1.55299
3.10968
3.24475
3.2324
3.2116
3.18468
3.14327
3.06976
2.9741
2.80567
2.51773
2.27615
2.02701
1.80291
1.69214
1.64018
1.62532
1.61947
1.59747
1.5623
1.5011
1.46075
1.45317
1.47908
1.51471
1.55295
3.10972
3.24479
3.23246
3.21167
3.18475
3.14339
3.06994
2.97432
2.80586
2.51785
2.27619
2.02687
1.80279
1.69205
1.64009
1.62528
1.61942
1.59745
1.56227
1.50108
1.46073
1.45316
1.47907
1.5147
1.55294
3.10969
3.24475
3.23241
3.21161
3.18469
3.14329
3.06982
2.97419
2.80576
2.51781
2.27624
2.02715
1.80303
1.69228
1.64034
1.6255
1.61966
1.59765
1.56244
1.50122
1.46082
1.45321
1.4791
1.51472
1.55295
3.10972
3.24479
3.23246
3.21168
3.18475
3.1434
3.06994
2.97432
2.80589
2.51787
2.27616
2.02681
1.80271
1.69199
1.64005
1.62524
1.61939
1.59742
1.56225
1.50107
1.46073
1.45316
1.47907
1.5147
1.55294
3.10969
3.24476
3.23242
3.21163
3.1847
3.14331
3.06984
2.9742
2.80581
2.51783
2.27614
2.02693
1.80279
1.69203
1.64009
1.62526
1.61944
1.59746
1.56231
1.50113
1.46077
1.45317
1.47908
1.5147
1.55294
3.10972
3.24477
3.23242
3.21164
3.1847
3.14341
3.06999
2.97446
2.80646
2.51892
2.27739
2.02845
1.8045
1.69384
1.64188
1.62698
1.62105
1.59888
1.56331
1.50176
1.4612
1.45339
1.4792
1.51478
1.55298
3.1097
3.24478
3.23245
3.21166
3.18474
3.14336
3.06986
2.9742
2.80575
2.51771
2.27601
2.0267
1.80266
1.69191
1.63994
1.6251
1.61922
1.59727
1.56214
1.50099
1.46067
1.45312
1.47905
1.51469
1.55293
3.10971
3.24479
3.23246
3.21168
3.18475
3.1434
3.06992
2.97428
2.80588
2.51784
2.27608
2.02667
1.8026
1.69185
1.63989
1.62506
1.61919
1.59725
1.56212
1.50097
1.46066
1.45311
1.47905
1.51468
1.55293
3.10972
3.24478
3.23243
3.21164
3.18471
3.14341
3.07
2.97445
2.8064
2.51874
2.27719
2.0283
1.80443
1.69383
1.6419
1.62702
1.6211
1.59894
1.56338
1.50182
1.46124
1.45341
1.47921
1.51478
1.55299
3.10972
3.2448
3.23248
3.2117
3.18476
3.14344
3.06998
2.97434
2.80596
2.51785
2.27598
2.02652
1.80246
1.69175
1.63982
1.62502
1.61918
1.59725
1.56213
1.50099
1.46068
1.45312
1.47905
1.51468
1.55293
3.10971
3.24479
3.23246
3.21167
3.18475
3.1434
3.0699
2.97426
2.80583
2.51777
2.27603
2.02669
1.80264
1.69188
1.63991
1.62506
1.61917
1.59723
1.5621
1.50096
1.46066
1.45312
1.47905
1.51469
1.55293
3.10973
3.2448
3.23246
3.21169
3.18474
3.1435
3.07006
2.97449
2.80648
2.51877
2.27708
2.02795
1.80411
1.69348
1.64153
1.62664
1.6207
1.59859
1.56308
1.50159
1.46109
1.45333
1.47916
1.51475
1.55297
3.10971
3.24478
3.23245
3.21166
3.18474
3.14338
3.06995
2.97434
2.80601
2.51802
2.27623
2.02694
1.80271
1.69194
1.64
1.62518
1.61937
1.59741
1.56228
1.50112
1.46077
1.45317
1.47907
1.5147
1.55293
3.10973
3.2448
3.23246
3.21169
3.18475
3.14349
3.07007
2.97451
2.80648
2.51876
2.27707
2.02799
1.80412
1.69348
1.64154
1.62664
1.62071
1.5986
1.56311
1.50164
1.46112
1.45336
1.47918
1.51477
1.55298
3.10972
3.2448
3.23247
3.21169
3.18476
3.14343
3.06996
2.97432
2.80593
2.51785
2.27604
2.02665
1.80258
1.69183
1.63987
1.62503
1.61916
1.59723
1.56211
1.50097
1.46067
1.45312
1.47905
1.51469
1.55293
3.10976
3.24484
3.23254
3.21176
3.18483
3.14365
3.0702
2.97476
2.80639
2.51914
2.27718
2.02649
1.80495
1.68604
1.57856
1.35852
0.666754
0.582049
0.649705
0.587035
0.58677
0.633445
0.661396
0.703606
0.927635
3.10976
3.24485
3.23255
3.21179
3.18483
3.1437
3.07025
2.97477
2.80663
2.51903
2.27722
2.02641
1.80491
1.68981
1.61142
1.46722
1.02742
0.487109
0.690216
0.622712
0.624087
0.664887