/*--------------------------------*- C++ -*----------------------------------*\
| =========                 |                                                 |
| \\      /  F ield         | OpenFOAM: The Open Source CFD Toolbox           |
|  \\    /   O peration     | Version:  4.1                                   |
|   \\  /    A nd           | Web:      www.OpenFOAM.org                      |
|    \\/     M anipulation  |                                                 |
\*---------------------------------------------------------------------------*/
FoamFile
{
    version     2.0;
    format      ascii;
    class       volScalarField;
    location    "0.28";
    object      p;
}
// * * * * * * * * * * * * * * * * * * * * * * * * * * * * * * * * * * * * * //

dimensions      [1 -1 -2 0 0 0 0];

internalField   nonuniform List<scalar> 
52500
(
0.0914287
0.0646524
0.0647805
0.0651593
0.0659569
0.0675608
0.0701391
0.0744427
0.0819874
0.0972292
0.115341
0.150439
0.190277
0.29076
0.64725
2.58256
2.95361
2.64254
2.60754
2.82306
3.00937
3.09256
3.12701
3.12548
3.13988
0.0914289
0.0646527
0.0647808
0.0651596
0.0659572
0.0675611
0.0701399
0.0744452
0.0819875
0.0972345
0.115277
0.150384
0.189124
0.286425
0.623669
2.49848
2.99645
2.64792
2.60649
2.81857
3.00657
3.0876
3.1208
3.11801
3.1316
0.0914289
0.0646529
0.064781
0.0651598
0.0659575
0.0675611
0.0701406
0.0744469
0.0819867
0.0972435
0.11518
0.15015
0.187435
0.279321
0.582915
2.29912
3.07754
2.65507
2.59848
2.80296
2.99368
3.07039
3.10116
3.09525
3.10709
0.0914295
0.0646534
0.0647815
0.0651603
0.0659579
0.0675616
0.0701407
0.0744518
0.0819898
0.0972457
0.115151
0.149501
0.186265
0.271083
0.530999
1.98516
3.19384
2.66374
2.58443
2.77326
2.96788
3.03839
3.06636
3.05435
3.06313
0.0914292
0.0646536
0.0647817
0.0651606
0.0659582
0.0675626
0.0701407
0.0744555
0.0819982
0.0972543
0.115203
0.14848
0.187374
0.261459
0.469312
1.55547
3.33627
2.67167
2.5675
2.72991
2.93131
2.99546
3.02039
2.99711
3.0019
0.0914298
0.0646541
0.0647823
0.0651613
0.0659593
0.0675646
0.070141
0.0744594
0.0820131
0.0972708
0.115392
0.147486
0.190409
0.250362
0.411063
1.17659
3.37448
2.67161
2.55296
2.67503
2.88371
2.94089
2.9631
2.92108
2.91931
0.09143
0.0646543
0.0647824
0.0651614
0.0659594
0.0675637
0.0701414
0.0744598
0.0820155
0.0972517
0.115533
0.146812
0.192853
0.240359
0.361353
0.866928
3.23769
2.68826
2.54655
2.60975
2.82355
2.87545
2.89482
2.82567
2.81399
0.0914299
0.0646547
0.0647829
0.0651618
0.0659597
0.0675632
0.0701443
0.0744597
0.0820117
0.0972252
0.11557
0.146625
0.194332
0.231078
0.322459
0.665176
2.69591
2.82639
2.54727
2.53989
2.74631
2.79915
2.81285
2.7109
2.69014
0.0914302
0.0646547
0.0647829
0.0651621
0.0659606
0.0675651
0.0701414
0.0744612
0.0820208
0.0972543
0.1156
0.146934
0.194636
0.22341
0.292826
0.522218
1.80864
3.10109
2.55433
2.47124
2.64423
2.71314
2.71474
2.56848
2.53794
0.0914304
0.0646553
0.0647836
0.0651629
0.0659619
0.0675673
0.0701417
0.0744664
0.0820306
0.0972764
0.115565
0.147423
0.193775
0.221101
0.27357
0.417806
1.09773
3.2055
2.55857
2.41227
2.52085
2.61382
2.60209
2.41046
2.30917
0.09143
0.0646539
0.064782
0.0651609
0.0659585
0.0675618
0.0701423
0.0744518
0.0819884
0.0972164
0.115309
0.150364
0.190216
0.290745
0.647557
2.5839
2.95292
2.64215
2.60723
2.82278
3.00914
3.09238
3.12686
3.12535
3.13982
0.0914291
0.0646532
0.0647813
0.0651601
0.0659577
0.0675615
0.0701407
0.0744496
0.0819885
0.0972295
0.115263
0.150347
0.189091
0.286413
0.623805
2.49951
2.99574
2.64748
2.60618
2.8183
3.00634
3.08743
3.12065
3.11789
3.13153
0.0914302
0.0646539
0.0647821
0.0651609
0.0659586
0.0675632
0.0701407
0.0744565
0.0819991
0.0972584
0.115196
0.150173
0.187466
0.279424
0.583448
2.30203
3.07523
2.65459
2.59817
2.80271
2.99347
3.07023
3.10102
3.09512
3.10695
0.0914287
0.0646524
0.0647805
0.0651593
0.0659567
0.0675606
0.0701383
0.0744463
0.0819859
0.0972456
0.115149
0.149508
0.186251
0.271073
0.531084
1.9857
3.1928
2.66327
2.58415
2.77304
2.96769
3.03824
3.06624
3.05422
3.06292
0.0914301
0.0646538
0.0647819
0.0651608
0.0659585
0.0675631
0.0701389
0.0744568
0.0820025
0.0972629
0.115219
0.148535
0.187402
0.261558
0.46963
1.55805
3.33437
2.67175
2.56743
2.72974
2.93116
2.99534
3.02027
2.99697
3.00165
0.0914288
0.0646523
0.0647803
0.065159
0.0659563
0.0675598
0.0701365
0.074445
0.0819894
0.0972252
0.115363
0.147439
0.190434
0.250429
0.411189
1.17608
3.3754
2.67184
2.55294
2.67497
2.8836
2.94078
2.96299
2.92094
2.91904
0.0914297
0.0646535
0.0647816
0.0651603
0.0659578
0.067561
0.0701405
0.0744486
0.0819971
0.0972192
0.115503
0.146763
0.192816
0.240326
0.361289
0.866321
3.23922
2.68839
2.54654
2.60981
2.82349
2.87534
2.8947
2.82554
2.81376
0.091429
0.0646525
0.0647805
0.0651592
0.0659566
0.0675596
0.070138
0.0744401
0.081994
0.0972138
0.115555
0.146635
0.194229
0.230971
0.322348
0.665086
2.69613
2.82609
2.54734
2.53999
2.74627
2.79904
2.81271
2.71078
2.68996
0.0914292
0.0646529
0.064781
0.0651599
0.0659577
0.067562
0.0701385
0.0744439
0.0820016
0.0972326
0.115573
0.146907
0.194539
0.223314
0.292743
0.522201
1.80908
3.10144
2.55447
2.47133
2.6442
2.71301
2.71459
2.56837
2.53779
0.0914289
0.0646523
0.0647804
0.0651593
0.0659569
0.0675615
0.0701345
0.0744404
0.081998
0.0972281
0.115524
0.147395
0.193722
0.221065
0.273559
0.417834
1.0976
3.2063
2.55852
2.41225
2.52083
2.61371
2.60193
2.41031
2.30904
0.0914289
0.0646523
0.0647803
0.065159
0.0659564
0.0675598
0.0701379
0.0744411
0.0819809
0.0972142
0.115318
0.150399
0.19025
0.290775
0.647624
2.5842
2.95251
2.64224
2.60734
2.82285
3.00916
3.09237
3.12684
3.12532
3.13978
0.0914291
0.0646526
0.0647806
0.0651593
0.0659568
0.0675601
0.0701389
0.0744432
0.0819814
0.097221
0.115257
0.150355
0.189105
0.286437
0.62391
2.4998
2.99569
2.64765
2.60631
2.81837
3.00636
3.08742
3.12063
3.11786
3.13149
0.0914288
0.0646522
0.0647802
0.0651588
0.0659561
0.067559
0.0701375
0.0744407
0.0819758
0.0972229
0.115158
0.15013
0.187429
0.279358
0.583161
2.30041
3.07702
2.65483
2.59831
2.8028
2.9935
3.07023
3.101
3.09509
3.10691
0.0914294
0.0646528
0.0647809
0.0651595
0.0659569
0.06756
0.0701384
0.0744464
0.0819811
0.0972294
0.115135
0.149499
0.186265
0.271101
0.531093
1.98546
3.19395
2.66353
2.58427
2.77314
2.96771
3.03823
3.06622
3.05419
3.06288
0.0914285
0.0646519
0.06478
0.0651586
0.0659558
0.0675593
0.0701357
0.0744424
0.0819831
0.0972348
0.115187
0.148486
0.187361
0.261483
0.46943
1.55636
3.336
2.67161
2.56741
2.72983
2.93117
2.99532
3.02025
2.99694
3.00161
0.0914296
0.064653
0.0647811
0.06516
0.0659577
0.0675625
0.0701373
0.074452
0.0820045
0.0972595
0.115381
0.147513
0.190411
0.250387
0.411169
1.1775
3.374
2.67169
2.55289
2.67498
2.88358
2.94075
2.96296
2.9209
2.91901
0.0914285
0.064652
0.06478
0.0651586
0.0659558
0.0675589
0.070136
0.0744402
0.0819896
0.0972118
0.115489
0.146762
0.19278
0.240296
0.361294
0.866705
3.23853
2.68814
2.54648
2.60975
2.82344
2.8753
2.89465
2.8255
2.81372
0.0914298
0.0646536
0.0647817
0.0651604
0.0659579
0.0675608
0.0701414
0.0744474
0.0819995
0.0972152
0.115553
0.146616
0.194233
0.230982
0.322378
0.665223
2.69674
2.82574
2.54723
2.53991
2.74621
2.79898
2.81266
2.71074
2.68992
0.0914287
0.064652
0.06478
0.0651587
0.065956
0.0675592
0.0701347
0.0744379
0.0819886
0.0972045
0.115543
0.146859
0.194519
0.223311
0.292777
0.522311
1.80949
3.10116
2.55439
2.47126
2.64412
2.71295
2.71454
2.56833
2.53775
0.0914298
0.0646536
0.0647817
0.0651606
0.0659583
0.0675624
0.0701382
0.0744488
0.0820015
0.0972221
0.115513
0.147347
0.193713
0.221084
0.273588
0.417887
1.0977
3.20621
2.55845
2.41217
2.52075
2.61364
2.60188
2.41027
2.309
0.0914287
0.0646519
0.0647799
0.0651585
0.0659557
0.0675585
0.0701364
0.0744384
0.0819751
0.0972008
0.115303
0.150383
0.190244
0.290795
0.647727
2.58447
2.95248
2.64223
2.60732
2.8228
3.00911
3.09232
3.12679
3.12527
3.13973
0.0914287
0.0646519
0.0647799
0.0651585
0.0659557
0.0675585
0.0701364
0.0744388
0.0819745
0.0972078
0.115246
0.15035
0.189106
0.286453
0.623959
2.49995
2.99569
2.64762
2.60629
2.81834
3.00632
3.08737
3.12058
3.11781
3.13144
0.0914288
0.0646519
0.0647799
0.0651585
0.0659557
0.0675585
0.0701367
0.0744385
0.0819736
0.0972202
0.115154
0.150129
0.187422
0.27934
0.583138
2.30046
3.077
2.65479
2.59828
2.80277
2.99345
3.07018
3.10095
3.09504
3.10686
0.0914288
0.0646519
0.0647799
0.0651585
0.0659557
0.0675587
0.0701362
0.0744393
0.081975
0.097227
0.115128
0.149489
0.186224
0.271021
0.530964
1.98519
3.19397
2.66357
2.58429
2.77312
2.96768
3.03819
3.06617
3.05414
3.06283
0.0914288
0.0646519
0.0647799
0.0651585
0.0659557
0.0675589
0.0701355
0.0744396
0.0819789
0.0972294
0.11518
0.14849
0.187335
0.261469
0.469458
1.55686
3.33581
2.67183
2.56749
2.72982
2.93114
2.99529
3.0202
2.99689
3.00156
0.0914288
0.0646519
0.0647799
0.0651585
0.0659556
0.0675588
0.0701352
0.0744393
0.0819828
0.097218
0.115348
0.14744
0.190395
0.250377
0.411104
1.17595
3.37567
2.67183
2.55296
2.67502
2.88357
2.94071
2.96292
2.92086
2.91896
0.0914288
0.0646519
0.0647798
0.0651584
0.0659556
0.0675584
0.0701357
0.0744379
0.0819862
0.0972073
0.11549
0.146766
0.192782
0.24029
0.361258
0.866437
3.23898
2.68829
2.54653
2.60981
2.82344
2.87527
2.89462
2.82546
2.81367
0.0914287
0.0646518
0.0647798
0.0651584
0.0659556
0.0675582
0.0701361
0.074436
0.0819886
0.0972044
0.115545
0.146627
0.194225
0.230972
0.322367
0.665207
2.69658
2.82575
2.54729
2.53996
2.74621
2.79895
2.81263
2.7107
2.68987
0.0914287
0.0646518
0.0647799
0.0651585
0.0659558
0.0675591
0.0701345
0.0744365
0.0819881
0.0972045
0.115547
0.146875
0.194534
0.223323
0.292784
0.522322
1.80962
3.10119
2.55443
2.4713
2.64413
2.71293
2.7145
2.56829
2.53771
0.0914287
0.0646518
0.0647799
0.0651586
0.065956
0.0675598
0.0701329
0.0744373
0.0819908
0.0972112
0.115505
0.147362
0.193706
0.221071
0.27358
0.417896
1.09786
3.20624
2.55848
2.41221
2.52077
2.61363
2.60185
2.41024
2.30896
0.0914286
0.0646516
0.0647796
0.0651581
0.0659552
0.0675579
0.0701352
0.0744378
0.0819742
0.0971986
0.115298
0.150374
0.190231
0.290775
0.647652
2.58417
2.95265
2.64227
2.60736
2.82289
3.00915
3.09235
3.12681
3.12528
3.13969
0.0914286
0.0646516
0.0647796
0.0651581
0.0659552
0.067558
0.0701352
0.0744382
0.0819736
0.0972052
0.115242
0.150342
0.189096
0.286438
0.62391
2.4997
2.99582
2.64767
2.60633
2.81841
3.00635
3.08739
3.12059
3.11781
3.13142
0.0914286
0.0646516
0.0647796
0.0651582
0.0659553
0.0675579
0.0701358
0.0744372
0.0819717
0.097217
0.115151
0.150122
0.187416
0.279331
0.583102
2.30024
3.07709
2.65485
2.59833
2.80283
2.99347
3.07018
3.10095
3.09505
3.10693
0.0914286
0.0646516
0.0647796
0.0651582
0.0659554
0.0675582
0.0701353
0.0744382
0.0819733
0.097224
0.115124
0.149483
0.18622
0.27102
0.530959
1.98516
3.19396
2.66365
2.58435
2.77314
2.96768
3.03818
3.06616
3.05416
3.06298
0.0914286
0.0646516
0.0647796
0.0651582
0.0659552
0.0675584
0.0701344
0.0744389
0.0819778
0.0972265
0.115177
0.148481
0.187338
0.261469
0.469447
1.55674
3.33584
2.67191
2.56756
2.72985
2.93115
2.99528
3.02018
2.99693
3.00174
0.0914287
0.0646517
0.0647797
0.0651582
0.0659553
0.0675584
0.0701344
0.0744387
0.0819819
0.0972157
0.115347
0.147433
0.190401
0.250379
0.411092
1.17579
3.37572
2.67191
2.55303
2.67505
2.88358
2.94071
2.9629
2.9209
2.91911
0.0914286
0.0646516
0.0647796
0.0651582
0.0659552
0.067558
0.0701349
0.0744373
0.0819861
0.0972071
0.115492
0.146763
0.192792
0.240293
0.361243
0.866315
3.23889
2.68841
2.5466
2.60986
2.82346
2.87529
2.89463
2.8255
2.81377
0.0914287
0.0646517
0.0647797
0.0651583
0.0659554
0.0675581
0.0701356
0.0744354
0.0819887
0.0972058
0.115548
0.146631
0.19423
0.23097
0.322347
0.665103
2.69612
2.826
2.54736
2.54001
2.74625
2.79899
2.81266
2.71073
2.68992
0.0914286
0.0646518
0.0647798
0.0651585
0.0659558
0.0675592
0.0701343
0.0744373
0.0819906
0.0972097
0.115552
0.14688
0.194537
0.223318
0.29276
0.52224
1.80918
3.10137
2.55446
2.47133
2.64418
2.71298
2.71455
2.56832
2.53774
0.0914287
0.0646518
0.0647799
0.0651586
0.065956
0.0675599
0.0701326
0.0744383
0.0819926
0.0972147
0.115505
0.147355
0.193688
0.221045
0.273545
0.417834
1.09766
3.20625
2.55849
2.41223
2.52081
2.61368
2.60189
2.41028
2.30899
0.0914288
0.0646519
0.0647799
0.0651585
0.0659557
0.0675585
0.0701364
0.0744386
0.081975
0.0972007
0.115303
0.150383
0.190244
0.290796
0.647727
2.58448
2.9525
2.64224
2.60733
2.82281
3.00911
3.09233
3.12679
3.12527
3.13973
0.0914288
0.0646519
0.0647799
0.0651585
0.0659557
0.0675585
0.0701365
0.0744389
0.0819747
0.0972081
0.115246
0.150351
0.189107
0.286454
0.623961
2.49996
2.99571
2.64764
2.6063
2.81834
3.00632
3.08737
3.12059
3.11781
3.13144
0.0914288
0.0646519
0.0647799
0.0651585
0.0659558
0.0675585
0.0701367
0.0744386
0.0819737
0.0972204
0.115155
0.150129
0.187423
0.279342
0.583141
2.30046
3.07702
2.6548
2.59829
2.80278
2.99346
3.07019
3.10096
3.09504
3.10686
0.0914288
0.0646519
0.0647799
0.0651585
0.0659558
0.0675588
0.0701363
0.0744393
0.0819751
0.0972274
0.115128
0.14949
0.186226
0.271026
0.530972
1.9852
3.194
2.6636
2.58431
2.77313
2.96769
3.0382
3.06618
3.05415
3.06283
0.0914288
0.0646519
0.0647799
0.0651585
0.0659557
0.067559
0.0701356
0.0744397
0.0819791
0.0972299
0.115182
0.148491
0.187341
0.261477
0.469468
1.55686
3.33586
2.67186
2.56752
2.72984
2.93116
2.9953
3.02022
2.9969
3.00157
0.0914288
0.0646519
0.0647799
0.0651585
0.0659557
0.0675589
0.0701354
0.0744393
0.0819832
0.0972188
0.115351
0.147443
0.190405
0.250388
0.411115
1.17592
3.37572
2.67187
2.55298
2.67503
2.88359
2.94073
2.96293
2.92087
2.91896
0.0914288
0.0646519
0.0647799
0.0651585
0.0659557
0.0675585
0.0701359
0.0744381
0.0819871
0.0972093
0.115495
0.146774
0.192798
0.240304
0.361268
0.866408
3.23899
2.68834
2.54656
2.60983
2.82346
2.87529
2.89464
2.82547
2.81368
0.0914288
0.0646519
0.0647799
0.0651586
0.0659557
0.0675586
0.0701363
0.0744366
0.0819901
0.0972079
0.11555
0.146639
0.194237
0.230981
0.322367
0.665167
2.69639
2.82585
2.54731
2.53998
2.74623
2.79897
2.81265
2.71071
2.68989
0.0914288
0.064652
0.0647801
0.0651588
0.0659562
0.0675598
0.0701353
0.0744379
0.0819916
0.0972123
0.115556
0.146891
0.194544
0.223326
0.292773
0.522278
1.8094
3.10125
2.55442
2.4713
2.64415
2.71294
2.71452
2.56831
2.53772
0.0914288
0.064652
0.0647801
0.0651589
0.0659564
0.0675604
0.0701335
0.0744388
0.0819937
0.097218
0.11551
0.147368
0.193696
0.221048
0.273552
0.417854
1.09777
3.2062
2.55845
2.4122
2.52078
2.61364
2.60186
2.41025
2.30897
0.0914287
0.0646519
0.0647799
0.0651585
0.0659557
0.0675585
0.0701364
0.0744385
0.0819751
0.0972008
0.115303
0.150383
0.190244
0.290795
0.647727
2.58447
2.95248
2.64223
2.60732
2.8228
3.00911
3.09232
3.12679
3.12527
3.13973
0.0914287
0.0646519
0.0647799
0.0651585
0.0659557
0.0675585
0.0701364
0.0744388
0.0819745
0.0972078
0.115246
0.15035
0.189107
0.286453
0.623959
2.49995
2.99569
2.64762
2.60629
2.81834
3.00632
3.08737
3.12058
3.11781
3.13144
0.0914287
0.0646519
0.0647799
0.0651585
0.0659557
0.0675585
0.0701367
0.0744385
0.0819736
0.0972202
0.115155
0.150129
0.187422
0.27934
0.583138
2.30046
3.077
2.65479
2.59828
2.80277
2.99345
3.07018
3.10095
3.09504
3.10686
0.0914288
0.0646519
0.0647799
0.0651585
0.0659557
0.0675587
0.0701362
0.0744393
0.081975
0.097227
0.115128
0.149489
0.186224
0.271022
0.530964
1.98519
3.19397
2.66357
2.58429
2.77312
2.96768
3.03819
3.06617
3.05414
3.06283
0.0914288
0.0646519
0.0647799
0.0651585
0.0659557
0.0675589
0.0701355
0.0744396
0.0819789
0.0972294
0.11518
0.14849
0.187335
0.261469
0.469458
1.55687
3.33581
2.67183
2.56749
2.72982
2.93114
2.99529
3.0202
2.99689
3.00156
0.0914288
0.0646519
0.0647799
0.0651585
0.0659556
0.0675588
0.0701352
0.0744393
0.0819828
0.097218
0.115348
0.14744
0.190395
0.250377
0.411104
1.17595
3.37567
2.67183
2.55295
2.67502
2.88357
2.94071
2.96292
2.92086
2.91895
0.0914288
0.0646519
0.0647798
0.0651584
0.0659556
0.0675584
0.0701357
0.0744379
0.0819862
0.0972073
0.11549
0.146766
0.192782
0.24029
0.361258
0.866437
3.23898
2.68829
2.54653
2.60981
2.82344
2.87527
2.89462
2.82546
2.81367
0.0914287
0.0646518
0.0647798
0.0651584
0.0659556
0.0675582
0.0701361
0.074436
0.0819886
0.0972044
0.115545
0.146627
0.194225
0.230972
0.322367
0.665207
2.69658
2.82574
2.54729
2.53996
2.74621
2.79895
2.81263
2.7107
2.68987
0.0914287
0.0646518
0.0647799
0.0651585
0.0659558
0.0675591
0.0701345
0.0744365
0.0819881
0.0972045
0.115547
0.146875
0.194534
0.223323
0.292784
0.522323
1.80962
3.10119
2.55443
2.4713
2.64413
2.71293
2.7145
2.56829
2.53771
0.0914287
0.0646518
0.0647799
0.0651586
0.065956
0.0675598
0.0701329
0.0744373
0.0819908
0.0972112
0.115505
0.147362
0.193706
0.221071
0.27358
0.417896
1.09786
3.20624
2.55848
2.41221
2.52077
2.61363
2.60185
2.41024
2.30896
0.0914289
0.0646523
0.0647803
0.065159
0.0659564
0.0675598
0.0701379
0.0744411
0.0819809
0.0972142
0.115318
0.150399
0.19025
0.290775
0.647624
2.5842
2.95251
2.64224
2.60734
2.82285
3.00916
3.09237
3.12684
3.12532
3.13978
0.0914291
0.0646526
0.0647806
0.0651593
0.0659568
0.0675601
0.0701389
0.0744432
0.0819814
0.097221
0.115257
0.150355
0.189105
0.286437
0.62391
2.4998
2.99569
2.64765
2.60631
2.81837
3.00636
3.08742
3.12063
3.11786
3.13149
0.0914288
0.0646522
0.0647802
0.0651588
0.0659561
0.067559
0.0701375
0.0744407
0.0819758
0.0972229
0.115158
0.15013
0.187429
0.279358
0.583161
2.30041
3.07702
2.65483
2.59831
2.8028
2.9935
3.07023
3.101
3.09509
3.10691
0.0914294
0.0646528
0.0647809
0.0651595
0.0659569
0.06756
0.0701384
0.0744464
0.0819811
0.0972294
0.115135
0.149499
0.186265
0.271101
0.531093
1.98546
3.19395
2.66353
2.58427
2.77314
2.96771
3.03823
3.06622
3.05419
3.06288
0.0914285
0.0646519
0.06478
0.0651586
0.0659558
0.0675593
0.0701357
0.0744424
0.0819831
0.0972348
0.115187
0.148486
0.187361
0.261483
0.46943
1.55636
3.336
2.67161
2.56741
2.72983
2.93117
2.99532
3.02025
2.99694
3.00161
0.0914296
0.064653
0.0647811
0.06516
0.0659577
0.0675625
0.0701373
0.074452
0.0820045
0.0972595
0.115381
0.147513
0.190411
0.250387
0.411169
1.1775
3.374
2.67169
2.55289
2.67498
2.88358
2.94075
2.96296
2.9209
2.91901
0.0914285
0.064652
0.06478
0.0651586
0.0659558
0.0675589
0.070136
0.0744402
0.0819896
0.0972118
0.115489
0.146762
0.19278
0.240296
0.361294
0.866705
3.23853
2.68814
2.54648
2.60975
2.82344
2.8753
2.89465
2.8255
2.81372
0.0914298
0.0646536
0.0647817
0.0651604
0.0659579
0.0675608
0.0701414
0.0744474
0.0819995
0.0972152
0.115553
0.146616
0.194233
0.230982
0.322378
0.665223
2.69674
2.82574
2.54723
2.53991
2.74621
2.79898
2.81266
2.71074
2.68992
0.0914287
0.064652
0.06478
0.0651587
0.065956
0.0675592
0.0701347
0.0744379
0.0819886
0.0972045
0.115543
0.146859
0.194519
0.223311
0.292777
0.522311
1.80949
3.10116
2.55439
2.47126
2.64412
2.71295
2.71454
2.56833
2.53775
0.0914298
0.0646536
0.0647817
0.0651606
0.0659583
0.0675624
0.0701382
0.0744488
0.0820015
0.0972221
0.115513
0.147347
0.193713
0.221084
0.273588
0.417887
1.0977
3.20621
2.55845
2.41217
2.52075
2.61364
2.60188
2.41027
2.309
0.09143
0.0646539
0.064782
0.0651609
0.0659585
0.0675618
0.0701423
0.0744518
0.0819884
0.0972163
0.115309
0.150364
0.190216
0.290744
0.647557
2.5839
2.95292
2.64215
2.60723
2.82278
3.00914
3.09238
3.12686
3.12535
3.13982
0.0914291
0.0646532
0.0647813
0.0651601
0.0659577
0.0675615
0.0701407
0.0744496
0.0819885
0.0972295
0.115263
0.150347
0.189091
0.286413
0.623805
2.49951
2.99574
2.64748
2.60618
2.8183
3.00634
3.08743
3.12065
3.11789
3.13153
0.0914302
0.0646539
0.0647821
0.0651609
0.0659586
0.0675632
0.0701407
0.0744566
0.0819991
0.0972584
0.115196
0.150173
0.187466
0.279424
0.583448
2.30202
3.07523
2.65459
2.59817
2.80271
2.99347
3.07023
3.10102
3.09512
3.10695
0.0914287
0.0646524
0.0647805
0.0651593
0.0659567
0.0675606
0.0701383
0.0744463
0.0819859
0.0972456
0.115149
0.149508
0.186251
0.271073
0.531083
1.9857
3.1928
2.66327
2.58415
2.77304
2.96769
3.03824
3.06624
3.05422
3.06292
0.0914301
0.0646538
0.0647819
0.0651608
0.0659585
0.0675631
0.0701389
0.0744568
0.0820025
0.0972629
0.115219
0.148535
0.187402
0.261558
0.46963
1.55805
3.33437
2.67175
2.56743
2.72974
2.93116
2.99534
3.02027
2.99697
3.00165
0.0914288
0.0646523
0.0647803
0.065159
0.0659563
0.0675598
0.0701365
0.074445
0.0819893
0.0972251
0.115363
0.147439
0.190434
0.250429
0.411189
1.17608
3.3754
2.67184
2.55294
2.67497
2.8836
2.94078
2.96299
2.92094
2.91904
0.0914297
0.0646535
0.0647816
0.0651603
0.0659578
0.067561
0.0701405
0.0744486
0.0819971
0.0972192
0.115503
0.146763
0.192816
0.240326
0.361289
0.866321
3.23921
2.68839
2.54654
2.60981
2.82349
2.87534
2.8947
2.82554
2.81376
0.091429
0.0646525
0.0647805
0.0651592
0.0659566
0.0675596
0.070138
0.0744401
0.081994
0.0972139
0.115555
0.146635
0.194229
0.23097
0.322348
0.665085
2.69613
2.82609
2.54734
2.53999
2.74627
2.79904
2.81271
2.71078
2.68996
0.0914292
0.0646529
0.064781
0.0651599
0.0659577
0.067562
0.0701385
0.0744438
0.0820016
0.0972325
0.115573
0.146907
0.194539
0.223314
0.292743
0.522201
1.80908
3.10143
2.55447
2.47133
2.6442
2.71301
2.71459
2.56837
2.53779
0.0914289
0.0646523
0.0647804
0.0651593
0.0659569
0.0675614
0.0701345
0.0744404
0.081998
0.097228
0.115524
0.147394
0.193722
0.221065
0.273559
0.417834
1.0976
3.2063
2.55852
2.41225
2.52083
2.61371
2.60193
2.41031
2.30904
0.0914289
0.0646528
0.0647809
0.0651597
0.0659574
0.0675612
0.0701402
0.0744456
0.0819879
0.0972265
0.115332
0.150411
0.190252
0.290743
0.647301
2.58271
2.95352
2.64255
2.60753
2.82303
3.00934
3.0925
3.12696
3.12546
3.14005
0.0914292
0.064653
0.0647811
0.0651599
0.0659574
0.0675611
0.0701398
0.0744489
0.0819892
0.0972302
0.115274
0.150387
0.18913
0.286437
0.623602
2.49801
2.9969
2.6479
2.60646
2.81854
3.00654
3.08756
3.12077
3.118
3.13172
0.0914288
0.0646529
0.064781
0.0651598
0.0659575
0.0675616
0.0701406
0.0744483
0.0819902
0.0972512
0.115185
0.150141
0.187415
0.279273
0.582739
2.29819
3.078
2.65498
2.59842
2.80293
2.99367
3.07038
3.10116
3.09525
3.10711
0.0914295
0.0646535
0.0647817
0.0651606
0.0659585
0.0675636
0.0701399
0.0744577
0.0820049
0.0972811
0.115179
0.149541
0.186243
0.270986
0.53068
1.98379
3.19405
2.66392
2.5845
2.77326
2.96788
3.03839
3.06637
3.05435
3.0631
0.0914292
0.0646533
0.0647814
0.0651602
0.0659576
0.0675614
0.0701395
0.0744522
0.0819922
0.0972411
0.115197
0.148474
0.1874
0.261504
0.4694
1.55589
3.33624
2.67197
2.56758
2.72988
2.93131
2.99548
3.0204
2.99711
3.00188
0.0914298
0.0646543
0.0647825
0.0651613
0.065959
0.067563
0.0701422
0.0744604
0.0820049
0.0972384
0.115382
0.147417
0.190479
0.250423
0.410988
1.17392
3.37698
2.6716
2.5529
2.67502
2.88371
2.9409
2.96311
2.92108
2.9193
0.0914294
0.0646535
0.0647816
0.0651604
0.0659582
0.0675624
0.0701392
0.0744541
0.0820099
0.0972481
0.115523
0.146789
0.192785
0.240262
0.361172
0.866275
3.23819
2.68791
2.54644
2.60974
2.82354
2.87546
2.89483
2.82568
2.81401
0.0914305
0.0646551
0.0647833
0.0651624
0.0659607
0.0675651
0.0701448
0.0744636
0.0820241
0.0972593
0.115586
0.146642
0.194219
0.230953
0.322322
0.665209
2.6964
2.8246
2.54717
2.53987
2.7463
2.79915
2.81286
2.71092
2.69016
0.091429
0.0646532
0.0647814
0.0651602
0.065958
0.0675616
0.0701379
0.0744504
0.0820015
0.0972167
0.115556
0.14686
0.194563
0.223349
0.292794
0.522295
1.80936
3.10086
2.5543
2.47122
2.6442
2.71313
2.71474
2.56849
2.53796
0.0914307
0.0646554
0.0647836
0.0651628
0.0659615
0.0675661
0.0701408
0.0744669
0.0820262
0.0972574
0.115547
0.147364
0.193766
0.221127
0.273598
0.417826
1.09755
3.20562
2.55857
2.41226
2.52083
2.6138
2.60209
2.41046
2.30918
0.09143
0.0646552
0.0647835
0.0651627
0.0659613
0.067568
0.0701423
0.0744662
0.0820282
0.0972713
0.115495
0.147802
0.192759
0.222983
0.258917
0.351239
0.721288
2.92565
2.60788
2.36296
2.38495
2.47763
2.45369
2.21813
1.80428
0.0914308
0.0646558
0.064784
0.0651633
0.0659619
0.067569
0.0701423
0.0744713
0.0820447
0.0973003
0.115505
0.147903
0.192696
0.223697
0.248489
0.30927
0.517256
1.74797
2.84183
2.32967
2.23668
2.26722
2.31919
2.08636
1.65529
0.0914303
0.0646558
0.064784
0.0651632
0.0659614
0.0675675
0.0701459
0.0744665
0.0820384
0.0972838
0.115494
0.147716
0.193009
0.22328
0.24497
0.286672
0.402172
0.921422
2.84589
2.34176
2.10786
2.11376
2.15908
2.00062
1.66728
0.0914307
0.0646562
0.0647844
0.0651635
0.0659618
0.0675675
0.0701461
0.0744701
0.0820398
0.0972763
0.115511
0.147636
0.193247
0.2228
0.245828
0.272626
0.338044
0.595994
2.27445
2.46747
2.05095
1.99914
2.00717
1.91867
1.70346
0.0914309
0.0646561
0.0647843
0.0651635
0.0659621
0.0675684
0.070144
0.0744717
0.0820483
0.0972974
0.115542
0.147681
0.193314
0.222486
0.246146
0.263547
0.302209
0.424641
1.05433
2.46227
2.06579
1.92507
1.92183
1.86071
1.72062
0.0914307
0.0646562
0.0647845
0.0651638
0.0659626
0.0675693
0.070144
0.0744753
0.0820534
0.0973048
0.115552
0.147681
0.193346
0.222389
0.24613
0.260062
0.282664
0.342805
0.599884
2.03653
2.1104
1.91962
1.87759
1.81893
1.72423
0.0914309
0.0646562
0.0647844
0.0651636
0.0659623
0.0675684
0.0701428
0.074476
0.0820504
0.0972908
0.115548
0.147702
0.193391
0.222546
0.245993
0.26109
0.272606
0.301579
0.406125
0.960166
2.02506
1.91558
1.86629
1.80801
1.7348
0.0914311
0.0646565
0.0647848
0.065164
0.0659628
0.0675689
0.070144
0.0744783
0.0820527
0.0972936
0.115548
0.147688
0.193388
0.22252
0.245977
0.261367
0.267504
0.282317
0.325636
0.51249
1.48679
1.84746
1.84341
1.81319
1.76013
0.0914308
0.0646564
0.0647847
0.065164
0.0659629
0.0675694
0.0701449
0.074477
0.0820528
0.0972996
0.115546
0.147677
0.193317
0.222448
0.245902
0.261305
0.266989
0.274116
0.292212
0.354403
0.660705
1.52616
1.76856
1.80039
1.77746
0.0914315
0.0646569
0.0647852
0.0651644
0.0659632
0.0675694
0.0701456
0.0744786
0.0820532
0.0972965
0.115547
0.147684
0.193348
0.22248
0.245922
0.261332
0.266824
0.273756
0.280277
0.299971
0.386228
0.729513
1.45354
1.70945
1.7622
0.0914308
0.0646567
0.064785
0.0651642
0.0659627
0.0675689
0.0701474
0.0744745
0.0820462
0.0972843
0.115532
0.147645
0.193302
0.222444
0.245893
0.261314
0.266829
0.273843
0.277539
0.285913
0.313314
0.408305
0.69303
1.29573
1.6312
0.0914312
0.0646569
0.0647852
0.0651646
0.0659636
0.0675705
0.0701471
0.0744772
0.0820573
0.0973157
0.115557
0.147693
0.193279
0.222382
0.245825
0.261228
0.266736
0.273769
0.277364
0.284606
0.301609
0.339944
0.419493
0.607445
1.04286
0.0914311
0.0646567
0.064785
0.0651644
0.0659633
0.0675701
0.0701466
0.0744764
0.0820558
0.0973121
0.115556
0.147694
0.193296
0.222404
0.245848
0.261252
0.266763
0.273788
0.277368
0.284538
0.300971
0.336293
0.37054
0.424856
0.537119
0.0914307
0.0646566
0.0647848
0.0651641
0.0659626
0.0675688
0.0701471
0.0744743
0.082047
0.0972857
0.115543
0.147671
0.193358
0.222511
0.245964
0.261378
0.266885
0.273887
0.277422
0.284553
0.300903
0.335901
0.366685
0.401071
0.446971
0.0914312
0.0646565
0.0647848
0.065164
0.0659628
0.0675691
0.0701442
0.0744762
0.0820533
0.0973004
0.115561
0.147726
0.193408
0.222535
0.245977
0.261371
0.266845
0.273854
0.27742
0.284568
0.300922
0.335877
0.36642
0.398923
0.435586
0.0914308
0.0646565
0.0647848
0.0651642
0.0659632
0.0675703
0.0701454
0.0744784
0.0820589
0.0973152
0.115567
0.147721
0.193348
0.222453
0.245893
0.261293
0.266793
0.273821
0.277396
0.284557
0.300933
0.335883
0.366407
0.398747
0.434579
0.0914309
0.0646566
0.0647849
0.0651642
0.0659632
0.0675701
0.0701453
0.0744782
0.0820574
0.0973116
0.115557
0.1477
0.193318
0.222426
0.245874
0.261279
0.266784
0.273812
0.277389
0.284555
0.300942
0.335891
0.366411
0.398735
0.434495
0.0914315
0.064657
0.0647853
0.0651646
0.0659635
0.0675699
0.0701464
0.07448
0.0820567
0.097305
0.115557
0.147697
0.193358
0.222489
0.245936
0.26134
0.266825
0.273833
0.277405
0.284562
0.300939
0.335889
0.366411
0.398733
0.434487
0.0914308
0.0646566
0.0647849
0.065164
0.0659624
0.0675681
0.0701468
0.0744735
0.0820424
0.0972738
0.115526
0.147636
0.193335
0.222504
0.245967
0.261395
0.266908
0.2739
0.277434
0.284564
0.300918
0.33588
0.36641
0.398731
0.434485
0.0914318
0.0646575
0.0647859
0.0651652
0.0659642
0.0675707
0.0701483
0.0744827
0.0820588
0.0973068
0.115556
0.147686
0.193343
0.222478
0.245924
0.261326
0.26681
0.273817
0.27739
0.28455
0.300934
0.335886
0.366405
0.398727
0.434482
0.0914306
0.0646561
0.0647844
0.0651637
0.0659627
0.0675695
0.0701436
0.0744754
0.0820548
0.0973085
0.115558
0.14771
0.193338
0.222444
0.24589
0.261289
0.266788
0.273812
0.277387
0.284549
0.30093
0.335881
0.366404
0.398727
0.434481
0.0914316
0.0646577
0.064786
0.0651655
0.0659648
0.0675719
0.0701483
0.0744856
0.0820653
0.0973194
0.115569
0.147713
0.193355
0.22246
0.245887
0.261285
0.266769
0.273788
0.277364
0.284531
0.30092
0.335874
0.366396
0.398719
0.434475
0.0914306
0.0646562
0.0647845
0.0651638
0.0659627
0.0675695
0.0701436
0.0744755
0.0820548
0.0973084
0.115557
0.14771
0.193333
0.222435
0.245879
0.261277
0.266777
0.273803
0.277378
0.284543
0.300927
0.335878
0.366401
0.398724
0.434478
0.0914319
0.0646578
0.0647861
0.0651655
0.0659646
0.0675713
0.0701494
0.0744846
0.0820623
0.0973145
0.115562
0.147692
0.193339
0.222465
0.245906
0.261307
0.266786
0.273792
0.277367
0.284532
0.300924
0.335878
0.366396
0.398719
0.434475
0.0914307
0.0646566
0.0647848
0.065164
0.0659623
0.067568
0.0701461
0.0744726
0.0820405
0.09727
0.11552
0.147626
0.193317
0.222483
0.245946
0.261371
0.266889
0.273883
0.277419
0.284552
0.300915
0.335877
0.366404
0.398725
0.434479
0.0914319
0.0646578
0.0647861
0.0651655
0.0659646
0.0675712
0.0701492
0.0744839
0.0820613
0.0973128
0.11556
0.147687
0.193332
0.22246
0.245902
0.261302
0.266786
0.273793
0.277369
0.284535
0.300928
0.335881
0.366399
0.398722
0.434477
0.0914306
0.0646561
0.0647844
0.0651637
0.0659626
0.0675692
0.0701436
0.0744759
0.0820542
0.097306
0.115554
0.147699
0.193324
0.222433
0.245882
0.261285
0.266788
0.273812
0.277386
0.284548
0.300929
0.335879
0.366401
0.398724
0.434478
0.0914316
0.0646574
0.0647858
0.0651651
0.0659643
0.0675711
0.0701472
0.0744832
0.082061
0.0973105
0.11556
0.147701
0.193355
0.222469
0.245902
0.261303
0.266786
0.273801
0.277375
0.28454
0.300927
0.335879
0.366399
0.398721
0.434476
0.0914305
0.064656
0.0647843
0.0651635
0.0659623
0.0675689
0.0701432
0.0744749
0.0820531
0.097304
0.115556
0.147705
0.193345
0.222458
0.245906
0.261305
0.2668
0.273823
0.277395
0.284553
0.300926
0.335876
0.366401
0.398724
0.434478
0.0914315
0.064657
0.0647853
0.0651645
0.0659634
0.0675697
0.0701461
0.0744793
0.0820551
0.0973005
0.115555
0.147698
0.19337
0.222503
0.245947
0.261351
0.26683
0.273837
0.277407
0.28456