/*--------------------------------*- C++ -*----------------------------------*\
| =========                 |                                                 |
| \\      /  F ield         | OpenFOAM: The Open Source CFD Toolbox           |
|  \\    /   O peration     | Version:  4.1                                   |
|   \\  /    A nd           | Web:      www.OpenFOAM.org                      |
|    \\/     M anipulation  |                                                 |
\*---------------------------------------------------------------------------*/
FoamFile
{
    version     2.0;
    format      ascii;
    class       surfaceScalarField;
    location    "0.28";
    object      phi;
}
// * * * * * * * * * * * * * * * * * * * * * * * * * * * * * * * * * * * * * //

dimensions      [1 0 -1 0 0 0 0];

internalField   nonuniform List<scalar> 
150500
(
0.00202869
-8.50898e-10
-5.48472e-12
0.00203681
-1.7298e-09
-6.50403e-12
0.00204315
-3.03301e-09
-6.59557e-12
0.0020476
-4.61911e-09
-6.60604e-12
0.00205661
-6.68215e-09
-6.81074e-12
0.00206355
-9.25469e-09
-4.27179e-12
0.00208192
-1.49471e-08
-1.34542e-11
0.00212039
-2.5588e-08
-3.80005e-11
0.00211825
-3.71537e-08
-4.19949e-12
0.0022025
-4.18683e-08
5.39698e-11
0.00238302
5.89163e-08
1.34727e-10
0.00261921
3.65917e-07
3.15299e-10
0.0026923
6.39913e-07
2.62779e-10
0.00246391
9.99269e-06
6.70218e-11
0.000512357
8.03223e-05
-1.44294e-09
-0.00652989
0.000862383
-6.38242e-09
-0.00453515
0.000783184
3.0774e-09
-0.00433869
0.000667328
1.79973e-09
-0.00472306
0.000677384
1.42988e-09
-0.00514606
0.000717852
1.29096e-09
-0.00437054
0.000722958
1.05245e-09
-0.00337392
0.000702418
8.2069e-10
-0.00223372
0.000685956
7.26789e-10
-0.00114433
0.000694121
5.90798e-10
0.000763077
2.59335e-10
0.00202869
-1.07396e-09
-7.51703e-13
0.00203681
-2.48156e-09
-1.92906e-12
0.00204315
-4.58459e-09
-1.9713e-12
0.0020476
-7.21927e-09
-1.98981e-12
0.0020566
-1.07199e-08
-2.006e-12
0.00206354
-1.49635e-08
-1.59089e-12
0.00208194
-2.36551e-08
-3.34969e-12
0.00212036
-3.73178e-08
-1.80085e-11
0.00211803
-5.35377e-08
-4.34022e-12
0.00220206
-5.71376e-08
2.0824e-11
0.00238333
1.26057e-07
5.84888e-11
0.00261442
7.89465e-07
1.54333e-10
0.00270885
2.97067e-07
1.42648e-10
0.002512
1.6751e-05
5.23747e-11
0.000737225
0.00013261
-6.36689e-10
-0.00650429
0.00146828
-4.88374e-09
-0.00449225
0.00174343
3.15242e-09
-0.00429951
0.00135056
1.97815e-09
-0.00466965
0.00134752
1.38892e-09
-0.00510163
0.00143398
1.25077e-09
-0.00432939
0.00145324
1.0199e-09
-0.00333821
0.00141721
7.85697e-10
-0.0022032
0.00138362
6.90734e-10
-0.00112944
0.00140044
5.73871e-10
0.00153523
3.62025e-10
0.00202869
-2.66358e-09
-5.54691e-12
0.00203681
-4.26825e-09
-4.36157e-12
0.00204315
-7.07782e-09
-4.45954e-12
0.00204761
-1.04311e-08
-4.69539e-12
0.00205661
-1.482e-08
-4.96878e-12
0.00206353
-2.08107e-08
-8.56636e-12
0.00208197
-3.12908e-08
-2.57871e-13
0.00212036
-5.38033e-08
-4.03458e-11
0.00211786
-6.33229e-08
-5.18959e-11
0.00220135
-8.40913e-08
-6.23711e-11
0.00238372
8.05993e-08
-6.67369e-11
0.00260821
1.23099e-06
-9.977e-11
0.00275227
-1.34362e-06
-1.32107e-10
0.00260335
2.10498e-05
-4.55314e-10
0.00104941
0.000165698
-2.47844e-09
-0.0063958
0.00184476
-1.36908e-08
-0.00443472
0.00278455
1.02954e-08
-0.00422601
0.00205764
2.13335e-09
-0.00456839
0.0020201
1.42395e-09
-0.00501924
0.00216004
1.12494e-09
-0.00425719
0.00220329
9.55567e-10
-0.00327262
0.00215249
7.03539e-10
-0.00214461
0.00210076
6.26496e-10
-0.00109795
0.00212551
5.80281e-10
0.00233003
6.67025e-10
0.00202869
-4.484e-10
3.42888e-12
0.0020368
-1.60888e-09
4.03183e-12
0.00204313
-3.28259e-09
4.14313e-12
0.00204759
-5.72338e-09
4.32798e-12
0.00205658
-9.52486e-09
4.81234e-12
0.00206349
-1.67054e-08
4.38398e-12
0.002082
-2.69193e-08
9.98781e-12
0.0021204
-5.68576e-08
2.29205e-11
0.00211788
-9.75921e-08
1.6435e-11
0.00220083
-1.88977e-07
6.94946e-13
0.00238303
-1.68403e-07
7.09947e-12
0.00260639
1.03152e-06
-2.83334e-11
0.00283741
-3.68957e-06
5.79778e-11
0.00271277
2.32343e-05
4.40678e-11
0.00134372
0.000173946
-3.90798e-10
-0.00572775
0.00188863
-2.50882e-09
-0.00434665
0.00398792
4.65425e-09
-0.00413425
0.00277233
2.13134e-09
-0.00440608
0.00268641
1.26084e-09
-0.0048912
0.00287671
1.02362e-09
-0.0041487
0.00297686
8.76603e-10
-0.00317943
0.00292382
6.59386e-10
-0.00205964
0.00284741
5.66077e-10
-0.00104668
0.00287886
5.77651e-10
0.00316308
9.69256e-10
0.00202869
-1.38668e-10
-3.72017e-12
0.0020368
-6.54763e-10
-8.94143e-13
0.00204313
-1.86538e-09
-8.73822e-13
0.0020476
-4.58219e-09
-8.72198e-13
0.00205659
-9.7377e-09
-1.29931e-12
0.00206351
-2.02405e-08
-2.19002e-12
0.0020821
-3.15366e-08
7.63614e-12
0.00212064
-7.34739e-08
-5.15371e-12
0.00211847
-1.4382e-07
-1.76638e-11
0.00220083
-2.97374e-07
-3.59675e-11
0.00238079
-5.02174e-07
-6.92716e-11
0.00261521
4.21612e-07
-2.31203e-10
0.00292123
-4.51513e-06
-1.23619e-10
0.00277482
2.28615e-05
-4.29971e-10
0.00164883
0.000154918
-1.4541e-09
-0.00374869
0.00149747
-1.20222e-08
-0.00422178
0.00538078
8.54565e-09
-0.00404685
0.00349204
-3.62966e-10
-0.00419412
0.00334672
2.82014e-10
-0.00469797
0.00357662
7.48528e-10
-0.00400457
0.00377079
6.79457e-10
-0.0030496
0.00373575
5.55232e-10
-0.00194292
0.00363471
5.22416e-10
-0.000974824
0.00367122
6.28146e-10
0.00405444
1.17818e-09
0.00202869
-2.17654e-09
4.39112e-12
0.00203682
-3.54519e-09
7.50098e-12
0.00204317
-6.25653e-09
8.07627e-12
0.00204765
-9.54411e-09
9.50646e-12
0.00205659
-1.39709e-08
1.27266e-11
0.00206346
-1.94329e-08
1.98374e-11
0.00208196
-3.17578e-08
1.87545e-11
0.00212048
-4.58815e-08
6.01125e-11
0.00211833
-5.04328e-08
9.9226e-11
0.00220044
-6.32592e-08
1.91212e-10
0.00237493
-1.62129e-07
1.20285e-10
0.00262905
4.82897e-07
2.01212e-10
0.00288163
-2.69265e-06
-1.06866e-10
0.00279505
2.0205e-05
-2.91089e-10
0.00196359
0.000124695
-5.72228e-10
-0.00192721
0.00103631
2.38201e-09
-0.00422197
0.00666636
-4.12943e-09
-0.00396585
0.00418907
-1.0105e-09
-0.00394058
0.00401575
9.23651e-11
-0.00442695
0.00425277
2.91504e-10
-0.00381406
0.00457165
4.55675e-10
-0.00287755
0.00458344
4.83142e-10
-0.0017922
0.00447322
5.06759e-10
-0.000872893
0.00449741
6.45075e-10
0.00502478
1.21385e-09
0.00202869
-2.1637e-09
1.03133e-12
0.00203681
-4.41912e-09
3.30063e-12
0.00204315
-7.08977e-09
3.6115e-12
0.00204764
-9.78224e-09
4.37882e-12
0.00205655
-1.27156e-08
6.5908e-12
0.00206344
-1.51685e-08
1.09039e-11
0.00208199
-2.4109e-08
3.64169e-12
0.00212061
-1.88738e-08
4.69303e-11
0.00211919
-3.87442e-09
7.68216e-11
0.00220109
3.90291e-08
1.36252e-10
0.00237261
-1.37449e-08
1.24751e-10
0.00264344
1.44301e-09
2.05896e-10
0.00285187
-7.64695e-07
1.57396e-10
0.0028099
1.60648e-05
1.46419e-10
0.00229136
9.4592e-05
2.87691e-10
-0.000439417
0.000663099
2.84494e-09
-0.00487523
0.00684104
-6.96572e-09
-0.00383781
0.00514152
-5.80049e-10
-0.00364934
0.00468503
6.33869e-11
-0.0040496
0.00487997
-2.62661e-10
-0.00356795
0.00534996
2.54776e-10
-0.00264276
0.00546684
4.75595e-10
-0.00159222
0.00536173
5.57268e-10
-0.000725531
0.00535342
5.93733e-10
0.00606984
1.07285e-09
0.00202868
1.92699e-10
4.16893e-12
0.00203679
3.26295e-11
9.47793e-12
0.00204312
-5.18644e-10
9.92034e-12
0.0020476
-1.98788e-09
1.07763e-11
0.00205654
-5.19905e-09
1.3035e-11
0.0020635
-1.31726e-08
1.52447e-11
0.00208211
-1.29728e-08
2.59169e-11
0.00212091
-3.86229e-08
8.16331e-11
0.00212032
-9.53642e-08
7.38445e-11
0.00220243
-2.00762e-07
4.75274e-11
0.00237353
-4.4987e-07
6.55178e-11
0.00265432
-1.33123e-06
-4.63408e-11
0.00282656
-3.39191e-08
4.4213e-10
0.00283353
8.85052e-06
4.65762e-10
0.00252097
6.73065e-05
4.92292e-10
0.000835636
0.000446851
4.20818e-10
-0.00499868
0.00515755
-1.00409e-09
-0.00364808
0.00691796
1.3027e-09
-0.00330731
0.00533677
-3.00838e-10
-0.00354121
0.00546029
-4.64971e-10
-0.00325383
0.00605339
1.66737e-10
-0.00233462
0.00636891
5.0698e-10
-0.00132199
0.0063155
6.12711e-10
-0.00051514
0.0062355
5.48241e-10
0.00722427
8.27267e-10
0.00202869
1.03636e-10
4.3266e-12
0.00203681
-5.83814e-10
7.52918e-12
0.00204315
-1.22316e-09
7.95298e-12
0.00204765
-2.09513e-09
8.84871e-12
0.00205653
-3.53347e-09
1.22039e-11
0.0020634
-7.21047e-09
1.27552e-11
0.00208201
-6.00198e-09
1.24524e-11
0.00212062
-2.317e-08
7.24009e-11
0.00211898
-6.0383e-08
8.01474e-11
0.00220189
-1.33413e-07
9.11768e-11
0.00237295
-2.92559e-07
1.15285e-10
0.00265247
-1.24845e-06
1.12434e-10
0.00279674
1.23547e-06
4.15963e-10
0.00290437
1.42984e-06
4.15388e-10
0.00277222
4.60467e-05
3.65949e-10
0.00157835
0.000289762
7.90436e-11
-0.00359383
0.00286949
-2.04704e-09
-0.00345785
0.00897963
-1.52246e-09
-0.00296601
0.00597903
-6.30327e-10
-0.00294118
0.00599882
-3.74636e-10
-0.0028251
0.00662844
1.4574e-10
-0.00194649
0.00723227
5.3821e-10
-0.000954282
0.00731975
6.50706e-10
-0.000199383
0.00713979
4.91448e-10
0.0086131
6.65749e-10
0.00202869
6.62671e-12
-2.95705e-10
0.00203682
1.23663e-11
-1.26132e-09
0.00204315
1.31576e-11
-2.21362e-09
0.00204766
1.49966e-11
-2.77089e-09
0.00205653
2.052e-11
-2.56915e-09
0.00206339
2.45653e-11
-2.0973e-09
0.00208204
3.02017e-11
-2.52214e-09
0.0021207
1.08162e-10
-3.68405e-09
0.00211861
1.36274e-10
-5.41749e-09
0.00220198
2.02617e-10
-1.54647e-08
0.0023752
1.7425e-10
-4.9938e-08
0.00264795
1.20552e-10
-6.223e-07
0.0027885
2.25905e-10
1.36737e-06
0.00301688
1.55777e-10
-1.82937e-06
0.00296768
5.07404e-11
3.23434e-05
0.00221924
-1.2444e-10
0.00017607
-0.00109557
5.96097e-10
0.00130234
-0.00330591
-3.53616e-09
0.0109773
-0.00272164
2.09099e-10
0.00657162
-0.00234572
7.92431e-11
0.00649903
-0.00220899
9.29816e-11
0.00706745
-0.0014714
4.53265e-10
0.00797467
-0.000488597
6.89643e-10
0.00833884
0.000200854
6.28394e-10
0.00806649
5.74102e-10
0.0103245
0.00202869
2.16042e-09
5.42373e-12
0.0020368
3.26105e-09
8.5289e-12
0.00204313
5.07236e-09
8.85318e-12
0.00204759
6.92811e-09
9.44795e-12
0.00205657
8.82874e-09
1.07085e-11
0.00206348
9.94506e-09
1.13124e-11
0.00208198
1.28366e-08
2.27884e-11
0.00212037
1.00616e-08
5.49374e-11
0.00211801
-3.2242e-09
3.91261e-11
0.00220249
-3.14826e-08
9.16373e-12
0.00238291
-8.78966e-09
-3.5745e-11
0.00261914
8.62578e-08
-1.45395e-10
0.00269192
1.56926e-07
-1.44702e-10
0.00246326
9.30307e-06
-1.69365e-10
0.000509546
7.96053e-05
-3.06883e-10
-0.00652781
0.000863021
-1.25849e-09
-0.0045347
0.000781369
2.14003e-09
-0.00433865
0.00066751
-4.08129e-10
-0.00472323
0.000677607
-5.0639e-10
-0.00514605
0.000717939
-3.03984e-10
-0.00437058
0.000723019
-6.65009e-11
-0.00337409
0.000702493
3.59657e-11
-0.00223413
0.000686037
8.88443e-11
-0.00114454
0.000693967
1.41453e-10
0.000762979
1.74782e-10
0.00202869
2.45141e-10
1.0952e-13
0.00203681
1.06828e-09
3.27336e-12
0.00204315
2.02347e-09
3.50498e-12
0.00204761
2.82345e-09
4.00505e-12
0.00205661
3.31253e-09
4.8087e-12
0.00206354
2.62091e-09
7.6049e-12
0.00208204
3.12643e-09
9.29502e-12
0.00212046
-8.65022e-09
3.38196e-11
0.00211803
-2.7324e-08
3.71401e-11
0.00220219
-6.89222e-08
3.39696e-11
0.00238348
2.53129e-08
2.00862e-11
0.00261455
4.42531e-07
-3.1187e-11
0.00270874
-1.57334e-07
-6.09228e-11
0.0025118
1.59047e-05
-1.31702e-10
0.000736994
0.000131021
-5.70723e-10
-0.00650057
0.00146065
-1.84305e-09
-0.00449095
0.00174678
1.08761e-10
-0.00429934
0.00135167
-7.57857e-10
-0.00466994
0.00134769
-5.7644e-10
-0.00510174
0.00143413
-3.55129e-10
-0.00432951
0.0014534
-8.85699e-11
-0.00333854
0.00141741
3.15072e-11
-0.00220375
0.00138371
8.78609e-11
-0.00112962
0.0013999
1.21327e-10
0.00153515
1.42432e-10
0.00202869
1.65201e-09
6.94932e-12
0.00203681
2.56833e-09
9.19804e-12
0.00204314
3.99812e-09
9.69381e-12
0.00204762
5.76148e-09
1.09159e-11
0.00205656
8.12207e-09
1.28985e-11
0.00206341
1.20733e-08
2.26669e-11
0.00208199
1.65961e-08
1.60589e-11
0.00212031
3.14362e-08
8.27765e-11
0.00211712
4.84629e-08
1.18738e-10
0.00220073
4.95963e-08
1.86476e-10
0.00238322
2.19957e-07
1.98345e-10
0.00260717
1.32041e-06
2.25573e-10
0.0027496
-1.28234e-06
1.93742e-10
0.00259932
2.11376e-05
3.33354e-10
0.00103981
0.000166272
1.36461e-09
-0.00640513
0.00185317
8.26715e-09
-0.00443709
0.00277544
-9.26219e-09
-0.00422683
0.00205666
-1.08569e-09
-0.00456895
0.00202004
-6.38747e-10
-0.00501931
0.00215993
-3.97788e-10
-0.00425722
0.00220339
-1.07209e-10
-0.00327275
0.00215268
2.829e-11
-0.0021449
0.00210089
8.62826e-11
-0.00109813
0.00212508
1.23337e-10
0.00232977
1.69916e-10
0.00202869
-8.21878e-10
-3.25181e-12
0.00203681
-5.51241e-10
-1.58028e-12
0.00204315
-4.27918e-10
-1.46679e-12
0.0020476
-2.82506e-10
-1.10741e-12
0.00205661
-8.88827e-11
-6.03105e-13
0.00206354
7.46601e-11
2.41322e-12
0.00208202
2.00941e-09
-2.7967e-13
0.00212044
-8.71373e-10
-6.43359e-13
0.00211797
6.89332e-09
2.38429e-11
0.00220087
-1.10058e-08
8.69293e-11
0.0023829
8.32825e-08
7.56554e-11
0.00260599
1.38883e-06
5.2501e-11
0.00283617
-3.30137e-06
-5.83548e-11
0.00271198
2.34961e-05
-1.24143e-10
0.00134368
0.000173867
-4.45153e-11
-0.00572501
0.00188605
1.25961e-09
-0.00434606
0.00398836
-6.22153e-09
-0.00413461
0.00277171
-1.25649e-09
-0.00440662
0.00268558
-5.23738e-10
-0.00489131
0.00287642
-4.52771e-10
-0.00414863
0.00297678
-1.18193e-10
-0.00317956
0.00292393
3.60559e-11
-0.00205992
0.00284757
9.22603e-11
-0.00104686
0.00287865
1.25612e-10
0.0031626
1.69892e-10
0.00202869
4.37275e-10
8.38331e-12
0.00203681
5.28558e-10
9.86507e-12
0.00204314
9.34445e-10
1.0336e-11
0.00204762
2.17777e-09
1.14465e-11
0.00205656
4.61455e-09
1.3892e-11
0.00206341
9.86251e-09
2.10712e-11
0.00208197
1.55757e-08
1.65034e-11
0.00212038
4.18539e-08
7.74798e-11
0.00211764
8.21206e-08
1.00932e-10
0.00219987
1.12417e-07
1.49994e-10
0.00237955
1.52142e-07
1.70483e-10
0.002613
1.50167e-06
2.37957e-10
0.00291819
-3.40731e-06
2.2421e-10
0.00277072
2.39701e-05
3.78802e-10
0.00164242
0.000156068
9.57618e-10
-0.00377754
0.00150446
8.05725e-09
-0.0042255
0.00537348
-8.2835e-09
-0.00404697
0.00348611
6.36988e-10
-0.00419474
0.00334522
1.10311e-10
-0.00469817
0.00357607
-3.89744e-10
-0.00400446
0.00377065
-5.73676e-11
-0.00304973
0.00373577
7.39803e-11
-0.00194329
0.00363485
1.15062e-10
-0.000975021
0.00367117
1.44487e-10
0.00405386
1.64756e-10
0.00202869
-4.10323e-10
-3.76377e-12
0.0020368
-5.39921e-10
-3.10861e-12
0.00204314
-4.12661e-10
-3.35878e-12
0.0020476
9.69718e-11
-4.08453e-12
0.00205659
1.12629e-09
-5.90022e-12
0.00206353
3.67824e-09
-1.09494e-11
0.00208197
6.15709e-09
-3.27508e-12
0.00212055
2.05415e-08
-2.95175e-11
0.00211917
4.22137e-08
-6.32667e-11
0.00220115
5.06791e-08
-1.44067e-10
0.00237581
-6.47505e-09
-7.37138e-11
0.00263122
6.85946e-07
-3.37091e-10
0.00288515
-2.32255e-06
1.18472e-10
0.00279953
2.06396e-05
2.02e-10
0.00196952
0.000125317
8.82962e-11
-0.00191029
0.00103657
-7.17839e-09
-0.00421908
0.00667678
6.34087e-09
-0.00396457
0.00418417
6.42609e-10
-0.00394043
0.00401445
2.39523e-10
-0.00442695
0.00425237
-4.44176e-11
-0.00381387
0.00457156
8.71899e-11
-0.00287764
0.00458338
1.36021e-10
-0.00179265
0.0044733
1.50654e-10
-0.000873136
0.00449754
1.3679e-10
0.00502414
1.66735e-10
0.00202869
1.73193e-09
6.78214e-12
0.0020368
2.71226e-09
8.2359e-12
0.00204313
4.06956e-09
8.56851e-12
0.00204759
5.61253e-09
9.26092e-12
0.00205656
7.6012e-09
1.08377e-11
0.0020635
9.48172e-09
1.11202e-11
0.00208192
1.60169e-08
2.41245e-11
0.00212057
2.88991e-08
3.90929e-11
0.00211984
2.66885e-08
2.61742e-11
0.00220155
-5.74704e-09
2.64141e-11
0.00237301
-1.58471e-07
4.86047e-11
0.00264474
-3.95006e-07
4.70507e-12
0.00285431
-1.09327e-06
1.85447e-10
0.00281331
1.58701e-05
1.59275e-10
0.00229626
9.44996e-05
-2.30855e-11
-0.000431753
0.000661881
-1.80024e-09
-0.00487158
0.00683896
3.13235e-09
-0.00383572
0.00514778
1.26424e-09
-0.00364834
0.00468485
3.41448e-10
-0.00404931
0.00487986
2.71933e-10
-0.00356767
0.00535001
2.81047e-10
-0.00264279
0.00546674
1.61964e-10
-0.0015926
0.00536165
1.84955e-10
-0.000725842
0.00535373
1.56487e-10
0.00606918
1.71475e-10
0.00202869
8.70431e-10
-3.70877e-12
0.00203681
1.56871e-09
-4.69877e-12
0.00204314
2.89718e-09
-4.83795e-12
0.0020476
4.45209e-09
-5.07819e-12
0.00205658
6.32459e-09
-5.74269e-12
0.00206354
6.81406e-09
-5.22189e-12
0.00208184
1.60813e-08
-1.39902e-11
0.00212055
2.06943e-08
-3.0513e-11
0.00212016
1.92588e-08
-2.30919e-11
0.00220177
1.72227e-09
-5.56623e-12
0.002372
-1.58071e-07
7.0345e-12
0.00265158
-8.84755e-07
9.62675e-11
0.00282374
4.16571e-07
-1.63464e-11
0.00283082
9.14032e-06
-4.8918e-11
0.00251815
6.74923e-05
-1.30835e-10
0.000830895
0.000446852
-7.56154e-10
-0.0050021
0.00516063
-3.07191e-09
-0.003648
0.00691561
1.89616e-09
-0.00330657
0.00533606
5.50714e-10
-0.00354088
0.00546021
3.90708e-10
-0.0032536
0.00605352
3.69546e-10
-0.0023346
0.00636878
2.05166e-10
-0.00132229
0.00631521
1.89603e-10
-0.000515523
0.00623586
1.54095e-10
0.00722365
1.7235e-10
0.00202869
3.72559e-10
1.70478e-12
0.00203681
8.56799e-10
3.4145e-12
0.00204314
1.34049e-09
3.89348e-12
0.00204761
1.86257e-09
5.82311e-12
0.00205658
2.43198e-09
8.55345e-12
0.00206352
2.05817e-09
1.43676e-11
0.00208188
8.57187e-09
1.99072e-11
0.00212057
6.24307e-09
2.03167e-11
0.0021197
3.88118e-09
6.82458e-11
0.00220226
1.01579e-10
1.51301e-10
0.00237309
-7.61518e-08
1.61032e-10
0.00265283
-9.3769e-07
2.65045e-10
0.00279802
1.53713e-06
7.48758e-11
0.00290627
1.6642e-06
1.55004e-11
0.00277419
4.61925e-05
-1.50177e-10
0.00158018
0.000290006
-6.23293e-10
-0.00359055
0.00287083
-2.20777e-09
-0.00345702
0.00897914
1.35244e-09
-0.00296516
0.00597828
3.58077e-10
-0.00294082
0.00599859
3.14447e-10
-0.00282496
0.00662853
4.0998e-10
-0.00194647
0.00723211
2.40178e-10
-0.000954581
0.00731928
1.88284e-10
-0.000199905
0.00714023
1.58567e-10
0.00861252
1.62152e-10
0.00202869
-3.91312e-12
-1.0237e-10
0.00203681
-5.24314e-12
-1.88127e-10
0.00204314
-5.35565e-12
-1.65419e-10
0.00204761
-5.45637e-12
-7.59899e-11
0.00205657
-5.89252e-12
2.24292e-10
0.00206349
-3.84913e-12
7.82958e-10
0.00208185
-1.55926e-11
1.27349e-09
0.00212055
-3.49011e-11
-6.56984e-09
0.00211934
-1.46724e-11
-3.15651e-09
0.00220223
2.48338e-11
-4.6069e-09
0.00237526
3.96786e-11
-4.25503e-08
0.00264845
2.58319e-10
-6.29324e-07
0.00279016
3.82812e-11
1.364e-06
0.0030195
-8.18103e-11
-1.79236e-06
0.00297059
-1.52958e-10
3.24579e-05
0.00222273
-2.67197e-10
0.000176337
-0.00108829
-4.05279e-10
0.00130234
-0.0033027
4.07159e-10
0.0109807
-0.00272069
3.90027e-10
0.00657431
-0.00234529
4.41505e-10
0.00649865
-0.00220891
4.72849e-10
0.00706744
-0.00147137
3.53408e-10
0.00797443
-0.000488868
2.04758e-10
0.00833817
0.000200563
1.44673e-10
0.00806671
1.56872e-10
0.0103241
0.00202869
-3.61807e-10
6.58195e-13
0.0020368
-7.28266e-10
1.39652e-12
0.00204314
-1.212e-09
1.48375e-12
0.00204759
-1.80783e-09
2.1962e-12
0.00205659
-2.5897e-09
2.4533e-12
0.00206353
-3.35709e-09
4.39405e-12
0.00208191
-5.94152e-09
5.66231e-12
0.00212032
-9.37025e-09
9.57445e-12
0.00211811
-1.16478e-08
3.0547e-11
0.00220238
-5.12167e-09
7.24783e-11
0.00238268
1.04117e-07
7.85911e-11
0.00261884
3.94137e-07
7.15893e-11
0.00269152
6.27176e-07
2.67029e-11
0.00246242
9.93781e-06
-1.1276e-10
0.000507292
8.04786e-05
-6.11974e-10
-0.00652757
0.000864971
-1.76384e-09
-0.00453547
0.0007803
1.45367e-10
-0.00433899
0.000666644
5.19002e-11
-0.0047233
0.000677286
5.52572e-11
-0.00514602
0.000717817
1.88957e-10
-0.00437052
0.000722962
2.68257e-10
-0.00337403
0.000702459
2.9103e-10
-0.00223409
0.00068601
3.0045e-10
-0.00114453
0.000693943
3.15841e-10
0.000762952
2.62893e-10
0.00202869
-5.2275e-10
1.87381e-12
0.0020368
-8.42665e-10
3.66692e-12
0.00204314
-1.56027e-09
3.92788e-12
0.00204759
-2.48899e-09
4.57951e-12
0.00205659
-3.72579e-09
5.8568e-12
0.00206352
-4.92327e-09
8.63253e-12
0.00208193
-7.70011e-09
1.34913e-11
0.00212031
-1.05916e-08
2.25325e-11
0.00211795
-7.65044e-09
3.64955e-11
0.00220195
5.63643e-09
7.14465e-11
0.00238307
2.01617e-07
5.67459e-11
0.00261413
8.40905e-07
2.3687e-11
0.00270838
2.91734e-07
-9.61148e-12
0.00251111
1.66283e-05
-9.39201e-11
0.000734678
0.000132413
-2.962e-10
-0.00650254
0.00146846
-7.17518e-10
-0.00449175
0.00174198
2.03037e-12
-0.00429933
0.00134992
1.34024e-10
-0.00466986
0.00134738
1.02358e-10
-0.00510164
0.00143397
1.72464e-10
-0.00432943
0.00145334
2.54164e-10
-0.00333848
0.00141736
2.8627e-10
-0.00220371
0.00138366
2.98874e-10
-0.0011296
0.00139986
3.14602e-10
0.0015351
3.17396e-10
0.00202869
-1.13504e-09
4.04996e-13
0.00203681
-1.57418e-09
1.22867e-12
0.00204314
-2.23227e-09
1.29496e-12
0.00204759
-2.93435e-09
1.4257e-12
0.00205658
-3.81493e-09
1.69687e-12
0.00206351
-5.25556e-09
1.9161e-12
0.00208191
-6.9283e-09
2.80068e-12
0.00212025
-1.48424e-08
8.90764e-12
0.00211778
-8.49909e-09
9.421e-12
0.00220118
-1.43176e-08
1.14087e-11
0.00238346
1.48194e-07
1.59239e-11
0.00260795
1.24861e-06
7.73642e-12
0.00275198
-1.38436e-06
2.69974e-11
0.002603
2.09564e-05
6.73756e-11
0.00104787
0.000165731
1.07619e-10
-0.00639662
0.00184751
-2.20473e-10
-0.00443439
0.00278142
1.10417e-10
-0.00422575
0.00205678
2.12436e-10
-0.00456851
0.00202
1.47866e-10
-0.00501912
0.00215995
1.37536e-10
-0.00425712
0.00220337
2.37633e-10
-0.00327268
0.00215264
2.80216e-10
-0.00214486
0.00210084
2.9502e-10
-0.00109812
0.00212501
3.12464e-10
0.0023297
3.10866e-10
0.00202868
1.64059e-09
3.53619e-12
0.00203679
2.17335e-09
5.05031e-12
0.00204313
3.01238e-09
5.22624e-12
0.00204758
3.61391e-09
5.55693e-12
0.00205656
3.85067e-09
6.17109e-12
0.00206348
1.94773e-09
7.36488e-12
0.00208196
1.17188e-09
1.19017e-11
0.00212033
-9.74398e-09
3.79911e-11
0.00211784
-3.4608e-08
3.00974e-11
0.00220072
-1.15474e-07
9.94609e-12
0.0023829
-1.15834e-07
2.75875e-11
0.00260628
1.03289e-06
3.86985e-11
0.00283721
-3.71595e-06
2.3293e-10
0.00271285
2.31305e-05
4.31186e-10
0.00134409
0.000173696
7.44082e-10
-0.00572672
0.00188737
1.81368e-09
-0.00434541
0.00398855
-8.50596e-11
-0.00413364
0.0027723
-1.99531e-10
-0.00440611
0.00268624
-9.00731e-11
-0.00489106
0.00287665
9.06554e-11
-0.00414849
0.00297685
2.05358e-10
-0.00317949
0.00292393
2.5864e-10
-0.00205988
0.00284754
2.81263e-10
-0.00104685
0.00287858
3.04099e-10
0.00316252
2.45265e-10
0.00202869
2.06787e-10
-1.0113e-12
0.0020368
5.07719e-10
2.98957e-13
0.00204314
7.57606e-10
3.41822e-13
0.00204759
6.92142e-10
4.3437e-13
0.00205659
-9.86349e-11
4.61999e-13
0.00206353
-4.00389e-09
1.61131e-12
0.00208197
-6.90827e-09
6.26391e-13
0.00212045
-2.89499e-08
1.02685e-11
0.00211843
-6.36725e-08
1.62575e-11
0.00220049
-1.741e-07
2.26486e-11
0.00238014
-3.11418e-07
2.63296e-11
0.00261426
6.95789e-07
-1.38331e-11
0.00292042
-4.24728e-06
1.36563e-10
0.00277403
2.31281e-05
4.77745e-11
0.00164747
0.000155183
-1.2559e-10
-0.00375699
0.00149902
-2.36826e-09
-0.00422187
0.00537984
8.47299e-10
-0.00404638
0.00349097
-1.27199e-09
-0.00419423
0.00334637
-4.48718e-10
-0.00469792
0.00357656
2.66049e-11
-0.00400435
0.0037708
1.62535e-10
-0.00304969
0.0037358
2.28517e-10
-0.00194328
0.00363482
2.59792e-10
-0.00097502
0.0036711
2.91437e-10
0.00405378
2.39767e-10
0.00202869
-5.96982e-10
4.50001e-12
0.00203681
-1.40729e-09
6.05525e-12
0.00204316
-2.55663e-09
6.50996e-12
0.00204763
-3.5374e-09
7.71692e-12
0.00205658
-4.16575e-09
1.03088e-11
0.00206344
-3.64017e-09
1.92175e-11
0.0020819
-5.58615e-09
1.02722e-11
0.00212038
7.17804e-09
6.62168e-11
0.00211823
4.00305e-08
1.08529e-10
0.00220024
7.02148e-08
2.10604e-10
0.00237479
5.2412e-08
1.72791e-10
0.00262875
8.62954e-07
3.70557e-10
0.00288144
-2.18215e-06
8.66684e-11
0.0027947
2.07943e-05
3.81018e-11
0.00196216
0.000125456
3.0389e-10
-0.00193445
0.00103908
8.28827e-09
-0.00422189
0.00666589
-8.63167e-09
-0.0039653
0.00418549
-8.2416e-10
-0.00394062
0.00401512
-3.61029e-10
-0.00442696
0.00425272
-1.81107e-10
-0.00381386
0.00457166
6.9438e-11
-0.00287764
0.00458339
1.88935e-10
-0.00179266
0.00447327
2.35036e-10
-0.000873145
0.00449747
2.73043e-10
0.00502405
2.32034e-10
0.00202869
-2.34174e-09
-1.01572e-12
0.0020368
-3.70587e-09
4.98739e-13
0.00204314
-5.55256e-09
5.65935e-13
0.0020476
-7.46045e-09
7.18863e-13
0.00205659
-9.50863e-09
8.75781e-13
0.00206355
-1.1224e-08
1.83939e-12
0.00208192
-1.46174e-08
1.24164e-12
0.0021206
-7.03429e-09
8.02272e-12
0.00211995
8.14228e-09
1.23688e-11
0.00220149
2.83559e-08
1.64951e-11
0.00237291
-5.39573e-09
-3.85774e-12
0.00264428
4.11966e-08
-1.79618e-11
0.00285378
-5.54797e-07
-6.99826e-12
0.0028127
1.63867e-05
2.60108e-11
0.00229498
9.51236e-05
1.92502e-10
-0.000434446
0.000663386
1.44353e-09
-0.00487103
0.00684299
-1.97385e-09
-0.00383658
0.00514495
-8.53252e-10
-0.00364892
0.00468489
-2.99185e-10
-0.00404954
0.00487994
-3.39672e-10
-0.00356774
0.00535002
2.8989e-12
-0.00264284
0.00546669
1.58278e-10
-0.00159264
0.00536159
2.11633e-10
-0.000725863
0.00535365
2.55554e-10
0.00606908
2.66059e-10
0.00202868
4.49012e-10
5.81599e-12
0.0020368
6.5149e-10
9.02525e-12
0.00204313
5.16458e-10
9.41884e-12
0.00204759
1.17182e-10
1.0231e-11
0.00205655
-5.4677e-10
1.20046e-11
0.0020635
-2.52114e-09
1.37422e-11
0.00208189
9.5716e-10
2.71849e-11
0.00212061
1.00524e-10
5.81842e-11
0.0021202
-5.105e-09
5.58277e-11
0.00220187
-1.0701e-08
5.692e-11
0.00237232
-1.06588e-07
4.04226e-11
0.00265226
-7.38612e-07
-5.34371e-11
0.00282446
6.76912e-07
3.74858e-11
0.00283135
9.45167e-06
4.80297e-11
0.00251848
6.7897e-05
5.1623e-11
0.000831122
0.000447577
7.544e-11
-0.00499999
0.00516319
6.33339e-10
-0.00364816
0.00691471
7.12903e-12
-0.00330701
0.00533572
-2.79011e-10
-0.00354114
0.00546014
-3.01349e-10
-0.00325371
0.00605347
-1.42104e-11
-0.00233467
0.00636868
1.42776e-10
-0.00132234
0.00631512
1.93534e-10
-0.000515556
0.00623578
2.39922e-10
0.00722355
2.754e-10
0.00202869
-3.30211e-10
6.23463e-14
0.00203681
-5.18293e-10
6.44894e-13
0.00204314
-4.12246e-10
6.64275e-13
0.0020476
-2.5237e-10
6.69151e-13
0.00205656
-1.4832e-10
6.85292e-13
0.00206349
-1.02362e-09
3.7132e-13
0.00208184
2.27867e-09
7.67105e-13
0.00212046
-4.78922e-09
4.94357e-12
0.0021196
-8.35481e-09
1.9643e-12
0.00220207
-1.09041e-08
-1.26375e-13
0.00237274
-9.91802e-08
-1.41631e-11
0.00265252
-9.17723e-07
-6.79254e-11
0.00279786
1.54853e-06
-7.84802e-11
0.00290653
1.68194e-06
-6.51903e-11
0.00277466
4.62388e-05
-4.12974e-11
0.00158025
0.000290126
-7.59884e-11
-0.00359115
0.00287194
-7.53431e-10
-0.00345716
0.00897822
-1.13273e-10
-0.00296534
0.00597789
-1.63636e-10
-0.00294101
0.00599849
-2.11467e-10
-0.0028251
0.00662846
-4.08637e-11
-0.00194655
0.00723198
1.30937e-10
-0.00095464
0.00731917
1.76307e-10
-0.000199952
0.00714014
2.17732e-10
0.00861241
2.68862e-10
0.00202868
5.75059e-12
2.37584e-09
0.0020368
8.89312e-12
3.80067e-09
0.00204312
9.29134e-12
5.72886e-09
0.0020476
1.01252e-11
7.74518e-09
0.00205653
1.20622e-11
9.97567e-09
0.00206345
1.37789e-11
1.17581e-08
0.00208192
2.7069e-11
1.67483e-08
0.00212058
5.74568e-11
2.99652e-09
0.00211934
5.50376e-11
-1.06426e-08
0.00220229
5.90302e-11
-4.61881e-08
0.00237539
2.7412e-11
-1.53236e-07
0.00264898
-6.33635e-11
-9.32906e-07
0.00279088
2.51174e-11
9.15745e-07
0.00302027
6.37899e-11
-2.24761e-06
0.00297129
3.54945e-11
3.21258e-05
0.0022234
-4.61227e-11
0.000176137
-0.00108731
-8.62563e-10
0.00130258
-0.00330252
-1.42951e-10
0.0109807
-0.00272067
-1.30084e-10
0.00657411
-0.00234545
-1.94546e-10
0.00649866
-0.00220909
-1.12649e-10
0.00706741
-0.00147146
9.38192e-11
0.00797431
-0.000488934
1.65242e-10
0.00833805
0.000200524
2.04148e-10
0.00806662
2.33702e-10
0.010324
0.00202869
3.12595e-13
9.1821e-13
0.0020368
-3.11005e-12
1.48459e-12
0.00204314
-1.08476e-11
1.60259e-12
0.00204759
-2.09061e-11
1.87865e-12
0.00205658
-4.64896e-11
2.57214e-12
0.00206351
-4.06697e-11
2.85633e-12
0.00208189
-2.32429e-10
6.14038e-12
0.00212028
-4.58981e-10
2.40046e-12
0.00211808
-1.67421e-09
3.74066e-12
0.00220227
-2.43696e-09
8.75865e-12
0.00238256
8.37443e-08
1.46368e-11
0.0026187
3.14103e-07
4.95784e-11
0.00269155
4.92751e-07
6.4918e-11
0.00246259
9.77787e-06
9.23133e-11
0.00050707
8.0351e-05
3.53043e-10
-0.00652708
0.000865412
1.50402e-09
-0.00453539
0.000780018
-8.97562e-10
-0.00433898
0.00066662
-2.39347e-10
-0.00472337
0.000677321
-1.88006e-10
-0.00514608
0.000717799
-4.12394e-10
-0.00437055
0.000722955
-1.86295e-10
-0.00337406
0.00070246
-1.19095e-10
-0.00223412
0.000686012
-8.17646e-11
-0.00114455
0.000693944
-3.83963e-11
0.00076295
2.64749e-10
0.00202869
-2.52014e-12
9.39407e-13
0.0020368
-8.98042e-12
1.38271e-12
0.00204314
-1.84947e-11
1.49575e-12
0.00204759
-3.76679e-11
1.75511e-12
0.00205658
-9.21279e-11
2.43627e-12
0.00206351
-9.11959e-11
2.21522e-12
0.0020819
-2.73049e-10
6.01029e-12
0.00212026
-1.23856e-10
2.29284e-12
0.00211793
-2.6932e-09
3.37555e-12
0.00220186
-1.08104e-08
9.75141e-12
0.00238301
1.50157e-07
2.06969e-11
0.00261409
7.32687e-07
4.18503e-11
0.00270851
2.09347e-07
4.77406e-11
0.00251132
1.6538e-05
6.5388e-11
0.000734742
0.000132349
2.29958e-10
-0.00650215
0.0014684
1.32329e-09
-0.00449153
0.00174203
-7.15216e-10
-0.00429929
0.00135002
-2.5212e-10
-0.00466995
0.00134742
-2.08239e-10
-0.0051017
0.00143395
-3.65411e-10
-0.00432947
0.00145332
-1.50581e-10
-0.00333851
0.00141736
-7.73576e-11
-0.00220373
0.00138366
-4.0809e-11
-0.00112962
0.00139986
-2.68848e-11
0.0015351
8.58683e-11
0.00202869
-5.45866e-12
7.17845e-13
0.0020368
-1.30204e-11
1.32991e-12
0.00204314
-2.00807e-11
1.42459e-12
0.00204758
-3.44805e-11
1.65414e-12
0.00205658
-4.37061e-11
2.1249e-12
0.00206351
-2.81825e-10
2.98432e-12
0.0020819
7.1438e-10
4.80214e-12
0.00212023
-1.2771e-09
7.10172e-12
0.00211778
-1.43412e-09
9.93425e-12
0.00220115
-2.32413e-08
1.64906e-11
0.00238341
1.21341e-07
2.05856e-11
0.0026079
1.20193e-06
3.21385e-11
0.00275182
-1.36092e-06
3.30744e-11
0.00260267
2.10434e-05
4.74309e-11
0.00104751
0.000165898
2.06983e-10
-0.00639703
0.00184818
1.14442e-09
-0.00443426
0.00278079
-4.89329e-10
-0.00422581
0.00205686
-3.13717e-10
-0.00456863
0.00201992
-2.75537e-10
-0.00501919
0.0021599
-2.72771e-10
-0.00425714
0.00220334
-8.11384e-11
-0.0032727
0.00215263
1.61044e-11
-0.00214488
0.00210083
2.62005e-11
-0.00109814
0.00212501
-6.12094e-11
0.0023297
-3.67618e-10
0.00202869
-5.58161e-12
4.15923e-13
0.0020368
-5.82592e-12
7.42535e-13
0.00204314
-3.71808e-12
8.05697e-13
0.00204758
3.52939e-12
9.36191e-13
0.00205658
5.6689e-11
1.29277e-12
0.00206351
-1.70454e-10
2.23371e-12
0.0020819
1.106e-09
3.28078e-12
0.00212025
-1.18183e-09
4.47954e-12
0.00211783
-1.85194e-10
8.07122e-12
0.00220057
-3.54196e-08
1.57753e-11