/*--------------------------------*- C++ -*----------------------------------*\
| =========                 |                                                 |
| \\      /  F ield         | OpenFOAM: The Open Source CFD Toolbox           |
|  \\    /   O peration     | Version:  4.1                                   |
|   \\  /    A nd           | Web:      www.OpenFOAM.org                      |
|    \\/     M anipulation  |                                                 |
\*---------------------------------------------------------------------------*/
FoamFile
{
    version     2.0;
    format      ascii;
    class       volScalarField;
    location    "0.28";
    object      T;
}
// * * * * * * * * * * * * * * * * * * * * * * * * * * * * * * * * * * * * * //

dimensions      [0 0 0 1 0 0 0];

internalField   nonuniform List<scalar> 
52500
(
0.340854
0.321599
0.323081
0.325787
0.328977
0.333984
0.344195
0.356016
0.379751
0.433091
0.461198
0.493583
0.537185
0.635325
0.879717
1.54077
1.7047
1.7794
1.73481
1.7433
1.7827
1.80041
1.79711
1.79129
1.66334
0.340855
0.3216
0.323083
0.325789
0.328978
0.333988
0.3442
0.356018
0.379765
0.433051
0.461163
0.493427
0.535533
0.630084
0.865817
1.51927
1.70353
1.7815
1.73434
1.74302
1.78115
1.79918
1.79633
1.79131
1.66181
0.340855
0.3216
0.323083
0.32579
0.328978
0.333989
0.344202
0.356014
0.379775
0.432976
0.461177
0.492977
0.53274
0.621304
0.840322
1.47369
1.70423
1.77758
1.73301
1.73908
1.77715
1.79595
1.79421
1.79049
1.65819
0.340857
0.321602
0.323087
0.325794
0.328981
0.333997
0.344205
0.356017
0.379778
0.432866
0.46142
0.491749
0.529983
0.611174
0.805213
1.38877
1.70367
1.7685
1.72841
1.73053
1.76794
1.78864
1.78902
1.78692
1.65138
0.340856
0.321602
0.323088
0.325795
0.32898
0.334001
0.344198
0.35601
0.379753
0.432766
0.461814
0.489879
0.529972
0.600134
0.759511
1.24389
1.70682
1.75305
1.72327
1.71905
1.755
1.77846
1.7815
1.78102
1.64369
0.340859
0.321603
0.323086
0.325793
0.328975
0.334011
0.344215
0.356055
0.379833
0.432951
0.462469
0.488465
0.53251
0.587943
0.713695
1.08972
1.69423
1.73098
1.71766
1.70417
1.73813
1.76248
1.7681
1.77278
1.63003
0.340859
0.321604
0.323088
0.325796
0.328975
0.33402
0.344205
0.356058
0.379766
0.432948
0.462751
0.487301
0.534223
0.57668
0.670245
0.940889
1.65113
1.69782
1.7127
1.68762
1.71818
1.74449
1.7545
1.76255
1.61251
0.340858
0.321606
0.323094
0.325803
0.328982
0.334022
0.344191
0.356041
0.37964
0.432829
0.4625
0.486872
0.534917
0.565885
0.633144
0.838831
1.52314
1.67908
1.7069
1.67097
1.69547
1.72163
1.73316
1.74851
1.59843
0.34086
0.321605
0.323088
0.325801
0.328972
0.334032
0.344207
0.356059
0.379789
0.433114
0.462468
0.48761
0.535485
0.55658
0.603375
0.748371
1.2801
1.68237
1.69501
1.65463
1.67005
1.69575
1.69774
1.72941
1.55834
0.340861
0.321606
0.32309
0.325804
0.328973
0.334038
0.344216
0.356062
0.379836
0.433237
0.462172
0.488371
0.534625
0.551822
0.583205
0.672502
1.01228
1.66422
1.67432
1.64008
1.64008
1.66759
1.6538
1.70696
1.51618
0.340859
0.321604
0.323089
0.325797
0.328982
0.334003
0.344209
0.356023
0.379757
0.433028
0.461084
0.493484
0.537128
0.635363
0.880003
1.54117
1.70469
1.77935
1.73476
1.74327
1.7827
1.8004
1.7971
1.79126
1.6634
0.340855
0.321601
0.323085
0.325791
0.328978
0.333993
0.344197
0.356008
0.379758
0.433013
0.461097
0.493358
0.5355
0.630107
0.865945
1.51931
1.70342
1.78149
1.73431
1.74299
1.78114
1.79919
1.79633
1.79129
1.66185
0.34086
0.321604
0.323088
0.325795
0.328977
0.334012
0.344218
0.356025
0.379863
0.433138
0.461269
0.493049
0.532953
0.621702
0.841011
1.47528
1.70424
1.77748
1.73294
1.73906
1.77715
1.79595
1.79419
1.79043
1.65826
0.340853
0.321599
0.323082
0.325787
0.328976
0.333986
0.344191
0.356002
0.379764
0.432867
0.461416
0.491793
0.530016
0.611208
0.805256
1.38856
1.7035
1.76848
1.72837
1.73052
1.76795
1.78861
1.78894
1.78679
1.65155
0.34086
0.321604
0.323088
0.325795
0.328977
0.334011
0.344212
0.356031
0.379843
0.432951
0.461983
0.490137
0.530254
0.600515
0.76002
1.24561
1.70711
1.75325
1.72323
1.71904
1.75503
1.77844
1.7814
1.78085
1.64387
0.340854
0.321599
0.323082
0.325788
0.328975
0.333988
0.344179
0.356014
0.379696
0.432708
0.462346
0.488292
0.532307
0.587717
0.713423
1.08874
1.69427
1.73112
1.71767
1.70418
1.73816
1.76246
1.76801
1.77259
1.63021
0.340858
0.321603
0.323088
0.325795
0.32898
0.334002
0.344191
0.356045
0.379664
0.432756
0.462645
0.487166
0.533974
0.57638
0.669873
0.940168
1.65049
1.69767
1.71281
1.68767
1.71821
1.74447
1.75443
1.76233
1.61269
0.340855
0.3216
0.323082
0.325789
0.328974
0.333991
0.344178
0.356045
0.379629
0.432865
0.462598
0.487132
0.534977
0.565861
0.633076
0.83881
1.52359
1.67919
1.70698
1.67103
1.69549
1.7216
1.73313
1.7483
1.59861
0.340856
0.321601
0.323082
0.325793
0.328973
0.334
0.344186
0.356043
0.379688
0.432966
0.462384
0.487563
0.535224
0.556243
0.603024
0.748127
1.27997
1.68258
1.69513
1.6547
1.67007
1.69573
1.69773
1.72922
1.55849
0.340854
0.3216
0.32308
0.325791
0.328971
0.333996
0.34418
0.356029
0.379697
0.433039
0.462087
0.48836
0.534433
0.551505
0.582904
0.672222
1.01176
1.66429
1.67442
1.64014
1.64011
1.66757
1.6538
1.70679
1.5163
0.340854
0.321599
0.323081
0.325787
0.328976
0.333984
0.344192
0.356009
0.37974
0.433051
0.46115
0.493575
0.537194
0.635399
0.880004
1.54126
1.70474
1.77938
1.73478
1.74329
1.7827
1.8004
1.79709
1.79125
1.66339
0.340855
0.3216
0.323083
0.325789
0.328977
0.333987
0.344196
0.356012
0.379752
0.433016
0.461128
0.493431
0.535538
0.63013
0.865996
1.51957
1.7035
1.7815
1.73434
1.74301
1.78115
1.79918
1.79633
1.79129
1.66184
0.340854
0.321599
0.323081
0.325787
0.328976
0.333983
0.344192
0.356002
0.379752
0.432933
0.461155
0.493001
0.532764
0.62135
0.840452
1.47401
1.70428
1.77761
1.733
1.73908
1.77715
1.79595
1.79418
1.79042
1.65826
0.340857
0.321602
0.323086
0.325792
0.32898
0.333992
0.344196
0.356005
0.379757
0.432834
0.461402
0.49178
0.529988
0.611186
0.805264
1.38868
1.70362
1.76851
1.72843
1.73054
1.76795
1.78861
1.78894
1.78678
1.65155
0.340853
0.321598
0.323081
0.325786
0.328975
0.333982
0.344181
0.355999
0.379726
0.432752
0.461853
0.490006
0.530028
0.600184
0.759548
1.24421
1.70691
1.75319
1.72328
1.71907
1.75503
1.77844
1.78139
1.78084
1.64387
0.340858
0.321601
0.323083
0.325789
0.328972
0.334003
0.344204
0.356043
0.379821
0.43295
0.46248
0.488552
0.532527
0.587969
0.713782
1.0902
1.69443
1.73116
1.71767
1.70418
1.73816
1.76245
1.768
1.77259
1.6302
0.340853
0.321598
0.323081
0.325786
0.328973
0.333986
0.344169
0.356022
0.379635
0.432748
0.462629
0.487204
0.533976
0.576373
0.669883
0.940382
1.65075
1.69779
1.71277
1.68766
1.7182
1.74446
1.75442
1.76232
1.61269
0.340858
0.321604
0.323088
0.325796
0.328979
0.334005
0.344189
0.356054
0.379632
0.432848
0.462567
0.487029
0.534928
0.565856
0.633124
0.838932
1.52365
1.67916
1.70695
1.671
1.69548
1.72159
1.73312
1.74829
1.5986
0.340854
0.321599
0.323079
0.325789
0.328968
0.333994
0.344173
0.356028
0.379656
0.4329
0.462348
0.487551
0.535244
0.556261
0.603052
0.748158
1.28
1.68252
1.69512
1.65468
1.67005
1.69572
1.69772
1.72921
1.55848
0.340858
0.321604
0.323087
0.325799
0.328975
0.334012
0.344192
0.356038
0.379695
0.432994
0.462041
0.488243
0.534377
0.55152
0.582943
0.672289
1.01176
1.66425
1.67441
1.64012
1.64009
1.66756
1.65379
1.70678
1.51629
0.340854
0.321599
0.323081
0.325786
0.328974
0.333982
0.344186
0.356002
0.379724
0.433022
0.461131
0.493584
0.5372
0.635416
0.880048
1.54128
1.70476
1.77939
1.73477
1.74328
1.78269
1.80039
1.79709
1.79124
1.66339
0.340854
0.321599
0.323081
0.325786
0.328975
0.333981
0.344187
0.356
0.379733
0.432991
0.461123
0.493444
0.535548
0.630142
0.866011
1.51955
1.7035
1.7815
1.73434
1.743
1.78114
1.79918
1.79632
1.79128
1.66184
0.340854
0.321599
0.323081
0.325786
0.328975
0.333981
0.344189
0.355998
0.379746
0.432931
0.461152
0.493
0.532755
0.621337
0.840459
1.47406
1.70427
1.77761
1.733
1.73907
1.77715
1.79594
1.79418
1.79042
1.65825
0.340854
0.321599
0.323081
0.325786
0.328975
0.33398
0.344188
0.356
0.379748
0.43284
0.461416
0.491844
0.530004
0.61116
0.805179
1.38863
1.70366
1.76854
1.72843
1.73053
1.76794
1.78861
1.78893
1.78677
1.65154
0.340854
0.321599
0.323081
0.325786
0.328975
0.333981
0.344186
0.356006
0.379732
0.432755
0.461867
0.490075
0.530022
0.600184
0.759584
1.24463
1.70713
1.75328
1.72328
1.71906
1.75503
1.77844
1.78139
1.78083
1.64386
0.340854
0.321599
0.323081
0.325786
0.328975
0.333982
0.34418
0.356017
0.379693
0.432715
0.462355
0.488356
0.532291
0.587683
0.713388
1.08881
1.69428
1.73114
1.71771
1.7042
1.73815
1.76245
1.768
1.77258
1.6302
0.340854
0.321599
0.323081
0.325786
0.328973
0.333985
0.344174
0.35603
0.379641
0.432745
0.462665
0.487259
0.533995
0.576373
0.669855
0.940261
1.65066
1.69775
1.71282
1.68768
1.7182
1.74446
1.75442
1.76231
1.61268
0.340854
0.321599
0.32308
0.325787
0.328972
0.333987
0.34417
0.356036
0.379611
0.432851
0.462599
0.487124
0.534971
0.565865
0.6331
0.83889
1.52373
1.67922
1.70698
1.67102
1.69548
1.72159
1.73312
1.74829
1.59859
0.340853
0.321599
0.323079
0.325789
0.328969
0.333992
0.344171
0.356026
0.37965
0.432907
0.462365
0.487558
0.535239
0.556261
0.603057
0.748185
1.28007
1.68256
1.69514
1.65469
1.67005
1.69572
1.69772
1.7292
1.55847
0.340853
0.321599
0.323079
0.325789
0.328969
0.333993
0.344172
0.356022
0.379672
0.432998
0.462076
0.48834
0.534424
0.551516
0.58293
0.672272
1.01184
1.66427
1.67443
1.64013
1.6401
1.66755
1.65379
1.70678
1.51628
0.340853
0.321598
0.32308
0.325785
0.328972
0.333981
0.344182
0.355996
0.379719
0.433019
0.461125
0.493566
0.537185
0.635405
0.880035
1.54125
1.70472
1.77937
1.73478
1.74329
1.78269
1.80039
1.79708
1.79124
1.66338
0.340853
0.321598
0.32308
0.325785
0.328973
0.333981
0.344183
0.355994
0.379729
0.432987
0.461117
0.493429
0.535536
0.630136
0.866011
1.51953
1.70348
1.78148
1.73434
1.74301
1.78114
1.79917
1.7963
1.79126
1.66185
0.340853
0.321598
0.32308
0.325785
0.328974
0.333979
0.344186
0.355995
0.379742
0.432924
0.461149
0.493
0.532749
0.621323
0.840428
1.474
1.70427
1.7776
1.73299
1.73907
1.77714
1.79594
1.79418
1.79046
1.65823
0.340853
0.321598
0.32308
0.325785
0.328975
0.333979
0.344186
0.355997
0.379744
0.432833
0.461413
0.491844
0.53
0.611153
0.80517
1.38863
1.70367
1.76855
1.72843
1.73053
1.76793
1.78864
1.78902
1.78691
1.65136
0.340853
0.321598
0.32308
0.325785
0.328974
0.33398
0.344182
0.356
0.379727
0.432751
0.461862
0.490059
0.530021
0.600189
0.759597
1.24459
1.70711
1.75326
1.72328
1.71906
1.75501
1.77848
1.78151
1.78102
1.64366
0.340853
0.321598
0.32308
0.325785
0.328973
0.333982
0.344178
0.356013
0.379689
0.432712
0.462356
0.488343
0.532296
0.587692
0.713397
1.08877
1.69426
1.7311
1.71771
1.7042
1.73814
1.76248
1.76809
1.77275
1.63008
0.340853
0.321598
0.32308
0.325785
0.328972
0.333984
0.344171
0.356026
0.379637
0.432748
0.462673
0.487243
0.533998
0.576379
0.669856
0.94023
1.65062
1.6977
1.71281
1.68768
1.71819
1.74447
1.75446
1.76243
1.61263
0.340853
0.321598
0.32308
0.325786
0.328972
0.333986
0.344169
0.356036
0.379612
0.432855
0.462604
0.487131
0.534972
0.565856
0.633074
0.838828
1.52363
1.6792
1.70697
1.67102
1.69548
1.72159
1.73311
1.7483
1.59856
0.340853
0.321598
0.323079
0.325789
0.328968
0.333993
0.344171
0.356024
0.379653
0.432921
0.462372
0.487543
0.535234
0.556263
0.603058
0.748167
1.27998
1.68256
1.69512
1.65469
1.67006
1.69572
1.6977
1.72918
1.55847
0.340853
0.321599
0.323079
0.325789
0.328968
0.333994
0.344173
0.35602
0.379676
0.433006
0.462069
0.488315
0.534407
0.55151
0.582926
0.672266
1.01181
1.66426
1.67439
1.64012
1.6401
1.66756
1.65378
1.70675
1.51629
0.340854
0.321599
0.323081
0.325786
0.328975
0.333982
0.344186
0.356002
0.379726
0.433019
0.461131
0.493583
0.537198
0.635415
0.880049
1.54129
1.70476
1.77939
1.73478
1.74328
1.78269
1.80039
1.79709
1.79124
1.66339
0.340854
0.321599
0.323081
0.325786
0.328975
0.333982
0.344187
0.356001
0.379734
0.432992
0.461124
0.493444
0.535548
0.630142
0.866011
1.51955
1.7035
1.78151
1.73434
1.743
1.78114
1.79918
1.79632
1.79128
1.66184
0.340854
0.321599
0.323081
0.325786
0.328975
0.333981
0.344189
0.355998
0.379747
0.432931
0.461152
0.493
0.532756
0.621338
0.84046
1.47406
1.70428
1.77762
1.733
1.73907
1.77715
1.79594
1.79418
1.79042
1.65825
0.340854
0.321599
0.323081
0.325786
0.328976
0.33398
0.344189
0.356001
0.379748
0.432841
0.46142
0.491844
0.530006
0.611162
0.80518
1.38864
1.70367
1.76855
1.72843
1.73054
1.76795
1.78861
1.78893
1.78677
1.65154
0.340854
0.321599
0.323081
0.325786
0.328976
0.333981
0.344186
0.356007
0.379732
0.432756
0.46187
0.490075
0.530027
0.600189
0.759585
1.24461
1.70713
1.75329
1.72328
1.71906
1.75503
1.77844
1.78139
1.78083
1.64386
0.340854
0.321599
0.323081
0.325786
0.328975
0.333982
0.344181
0.356019
0.379694
0.432717
0.462362
0.488358
0.532299
0.587689
0.713387
1.08878
1.69429
1.73114
1.71771
1.7042
1.73816
1.76245
1.768
1.77258
1.6302
0.340854
0.321599
0.323081
0.325786
0.328973
0.333985
0.344174
0.356031
0.379642
0.432752
0.462674
0.487262
0.534007
0.576381
0.669852
0.94023
1.65064
1.69775
1.71282
1.68768
1.7182
1.74446
1.75442
1.76232
1.61269
0.340854
0.321599
0.32308
0.325787
0.328972
0.333987
0.344171
0.356037
0.379616
0.43286
0.462603
0.487135
0.53498
0.565868
0.633093
0.838861
1.52368
1.67922
1.70699
1.67103
1.69548
1.72159
1.73312
1.74829
1.5986
0.340854
0.321599
0.32308
0.32579
0.32897
0.333993
0.344174
0.35603
0.379659
0.432926
0.462376
0.487567
0.535242
0.55626
0.603046
0.748159
1.28002
1.68257
1.69513
1.65469
1.67006
1.69572
1.69772
1.72921
1.55848
0.340854
0.321599
0.323079
0.32579
0.328969
0.333995
0.344176
0.356025
0.379682
0.433013
0.462074
0.48834
0.534415
0.551498
0.58291
0.672251
1.01183
1.66427
1.67442
1.64013
1.6401
1.66756
1.65379
1.70678
1.51628
0.340854
0.321599
0.323081
0.325786
0.328974
0.333982
0.344186
0.356002
0.379724
0.433022
0.461131
0.493584
0.5372
0.635416
0.880048
1.54129
1.70476
1.77939
1.73477
1.74328
1.78269
1.80039
1.79709
1.79124
1.66339
0.340854
0.321599
0.32308
0.325786
0.328975
0.333981
0.344187
0.356
0.379733
0.432991
0.461123
0.493444
0.535548
0.630142
0.866011
1.51955
1.7035
1.7815
1.73434
1.743
1.78114
1.79918
1.79632
1.79128
1.66184
0.340854
0.321599
0.323081
0.325786
0.328975
0.333981
0.344189
0.355998
0.379746
0.432931
0.461152
0.493
0.532755
0.621337
0.840459
1.47406
1.70427
1.77761
1.733
1.73907
1.77715
1.79594
1.79418
1.79042
1.65825
0.340854
0.321599
0.323081
0.325786
0.328975
0.33398
0.344188
0.356
0.379748
0.43284
0.461416
0.491844
0.530004
0.61116
0.805179
1.38863
1.70366
1.76854
1.72843
1.73053
1.76794
1.78861
1.78893
1.78677
1.65154
0.340854
0.321599
0.323081
0.325786
0.328975
0.333981
0.344186
0.356006
0.379732
0.432755
0.461867
0.490075
0.530022
0.600184
0.759584
1.24463
1.70713
1.75328
1.72328
1.71906
1.75503
1.77844
1.78139
1.78083
1.64386
0.340854
0.321599
0.323081
0.325786
0.328975
0.333982
0.34418
0.356017
0.379693
0.432715
0.462355
0.488356
0.532291
0.587683
0.713388
1.08881
1.69428
1.73114
1.71771
1.7042
1.73815
1.76245
1.768
1.77258
1.6302
0.340854
0.321599
0.323081
0.325786
0.328973
0.333985
0.344174
0.35603
0.379641
0.432745
0.462665
0.487259
0.533995
0.576373
0.669855
0.940262
1.65066
1.69775
1.71282
1.68768
1.7182
1.74446
1.75442
1.76231
1.61268
0.340854
0.321599
0.32308
0.325787
0.328972
0.333987
0.34417
0.356036
0.379611
0.432851
0.462599
0.487124
0.534971
0.565865
0.6331
0.83889
1.52373
1.67922
1.70698
1.67102
1.69548
1.72159
1.73312
1.74829
1.59859
0.340853
0.321599
0.323079
0.325789
0.328969
0.333992
0.344171
0.356026
0.37965
0.432907
0.462365
0.487558
0.535239
0.556261
0.603057
0.748185
1.28007
1.68256
1.69514
1.65469
1.67005
1.69572
1.69772
1.7292
1.55847
0.340853
0.321599
0.323079
0.325789
0.328969
0.333993
0.344172
0.356022
0.379672
0.432998
0.462076
0.48834
0.534424
0.551516
0.58293
0.672272
1.01184
1.66427
1.67443
1.64013
1.6401
1.66755
1.65379
1.70678
1.51628
0.340854
0.321599
0.323081
0.325787
0.328976
0.333984
0.344192
0.356009
0.37974
0.433051
0.46115
0.493575
0.537194
0.635399
0.880004
1.54126
1.70474
1.77938
1.73478
1.74329
1.7827
1.8004
1.79709
1.79125
1.66339
0.340855
0.3216
0.323083
0.325789
0.328977
0.333987
0.344196
0.356012
0.379752
0.433016
0.461128
0.493431
0.535538
0.63013
0.865996
1.51957
1.7035
1.7815
1.73434
1.74301
1.78115
1.79918
1.79633
1.79129
1.66184
0.340854
0.321599
0.323081
0.325787
0.328976
0.333983
0.344192
0.356002
0.379752
0.432933
0.461155
0.493001
0.532764
0.62135
0.840452
1.47401
1.70428
1.77761
1.733
1.73908
1.77715
1.79595
1.79418
1.79042
1.65826
0.340857
0.321602
0.323086
0.325792
0.32898
0.333992
0.344196
0.356005
0.379757
0.432834
0.461402
0.49178
0.529988
0.611186
0.805264
1.38868
1.70362
1.76851
1.72843
1.73054
1.76795
1.78861
1.78894
1.78678
1.65155
0.340853
0.321598
0.323081
0.325786
0.328975
0.333982
0.344181
0.355999
0.379726
0.432752
0.461853
0.490006
0.530028
0.600184
0.759548
1.24421
1.70691
1.75319
1.72328
1.71907
1.75503
1.77844
1.78139
1.78084
1.64387
0.340858
0.321601
0.323083
0.325789
0.328972
0.334003
0.344204
0.356043
0.379821
0.43295
0.46248
0.488552
0.532527
0.587969
0.713782
1.0902
1.69443
1.73116
1.71767
1.70418
1.73816
1.76245
1.768
1.77259
1.6302
0.340853
0.321598
0.323081
0.325786
0.328973
0.333986
0.344169
0.356022
0.379635
0.432748
0.462629
0.487204
0.533976
0.576373
0.669883
0.940382
1.65075
1.69779
1.71277
1.68766
1.7182
1.74446
1.75442
1.76232
1.61269
0.340858
0.321604
0.323088
0.325796
0.328979
0.334005
0.344189
0.356054
0.379632
0.432848
0.462567
0.487029
0.534928
0.565856
0.633124
0.838932
1.52365
1.67916
1.70695
1.671
1.69548
1.72159
1.73312
1.74829
1.5986
0.340854
0.321599
0.323079
0.325789
0.328968
0.333994
0.344173
0.356028
0.379656
0.4329
0.462348
0.487551
0.535244
0.556261
0.603052
0.748158
1.28
1.68252
1.69512
1.65468
1.67005
1.69572
1.69772
1.72921
1.55848
0.340858
0.321604
0.323087
0.325799
0.328975
0.334012
0.344192
0.356038
0.379695
0.432994
0.462041
0.488243
0.534377
0.55152
0.582944
0.672289
1.01176
1.66425
1.67441
1.64012
1.64009
1.66756
1.65379
1.70678
1.51629
0.340859
0.321604
0.323089
0.325797
0.328982
0.334003
0.344209
0.356023
0.379757
0.433028
0.461083
0.493484
0.537128
0.635363
0.880003
1.54117
1.70469
1.77935
1.73476
1.74327
1.7827
1.8004
1.7971
1.79126
1.6634
0.340855
0.321601
0.323085
0.325791
0.328978
0.333993
0.344197
0.356008
0.379758
0.433013
0.461097
0.493358
0.5355
0.630107
0.865945
1.51931
1.70342
1.78149
1.73431
1.74299
1.78114
1.79919
1.79633
1.79129
1.66185
0.34086
0.321604
0.323088
0.325795
0.328977
0.334012
0.344218
0.356025
0.379863
0.433138
0.461269
0.493049
0.532953
0.621702
0.841011
1.47528
1.70424
1.77748
1.73294
1.73906
1.77715
1.79595
1.79419
1.79043
1.65826
0.340853
0.321599
0.323082
0.325787
0.328976
0.333986
0.344191
0.356002
0.379764
0.432867
0.461416
0.491793
0.530016
0.611207
0.805256
1.38856
1.7035
1.76848
1.72837
1.73052
1.76795
1.78861
1.78894
1.78679
1.65155
0.34086
0.321604
0.323088
0.325795
0.328977
0.334011
0.344212
0.356031
0.379843
0.432951
0.461983
0.490137
0.530254
0.600515
0.76002
1.24561
1.70711
1.75325
1.72323
1.71904
1.75503
1.77844
1.7814
1.78085
1.64387
0.340854
0.321599
0.323082
0.325788
0.328975
0.333988
0.344179
0.356014
0.379696
0.432708
0.462346
0.488292
0.532307
0.587717
0.713423
1.08874
1.69427
1.73112
1.71767
1.70418
1.73816
1.76246
1.76801
1.77259
1.63021
0.340858
0.321603
0.323088
0.325795
0.32898
0.334002
0.344191
0.356045
0.379664
0.432756
0.462645
0.487166
0.533974
0.57638
0.669873
0.940168
1.65049
1.69767
1.71281
1.68767
1.71821
1.74447
1.75443
1.76233
1.61269
0.340855
0.3216
0.323082
0.325789
0.328974
0.333991
0.344178
0.356045
0.379629
0.432865
0.462598
0.487132
0.534976
0.565861
0.633076
0.83881
1.52359
1.67919
1.70698
1.67103
1.69549
1.7216
1.73313
1.7483
1.59861
0.340856
0.321601
0.323082
0.325793
0.328973
0.334
0.344186
0.356044
0.379688
0.432966
0.462384
0.487563
0.535224
0.556243
0.603024
0.748127
1.27997
1.68258
1.69513
1.6547
1.67007
1.69573
1.69773
1.72922
1.55849
0.340854
0.3216
0.32308
0.325791
0.328971
0.333996
0.34418
0.356029
0.379697
0.433038
0.462087
0.48836
0.534433
0.551505
0.582904
0.672222
1.01176
1.66429
1.67442
1.64014
1.64011
1.66757
1.6538
1.70679
1.5163
0.340855
0.3216
0.323083
0.325789
0.328978
0.333988
0.3442
0.356021
0.379757
0.433073
0.461169
0.49357
0.537175
0.63533
0.879762
1.54091
1.70472
1.77938
1.7348
1.74328
1.7827
1.80045
1.79723
1.79146
1.66315
0.340856
0.321601
0.323086
0.325792
0.328979
0.333996
0.344198
0.356009
0.379759
0.433035
0.461131
0.493356
0.535485
0.630058
0.865811
1.51905
1.70348
1.78148
1.73432
1.74301
1.78114
1.7992
1.79638
1.79139
1.66171
0.340854
0.3216
0.323083
0.325789
0.328977
0.333989
0.344199
0.356008
0.379772
0.432974
0.461156
0.492917
0.532694
0.62125
0.840199
1.47333
1.70418
1.77759
1.73298
1.73907
1.77714
1.79594
1.7942
1.79051
1.65819
0.340858
0.321601
0.323084
0.325791
0.328972
0.334008
0.344219
0.35603
0.379892
0.4331
0.461558
0.491967
0.530227
0.611436
0.805351
1.38904
1.70385
1.7685
1.72838
1.73052
1.76793
1.78862
1.789
1.78691
1.6514
0.340856
0.321602
0.323087
0.325793
0.32898
0.333997
0.344195
0.356011
0.379738
0.432746
0.461843
0.4899
0.530019
0.600181
0.759532
1.24418
1.7072
1.75319
1.72323
1.71903
1.755
1.77845
1.78149
1.78102
1.6437
0.340858
0.321605
0.323093
0.3258
0.328983
0.334015
0.344198
0.356024
0.379721
0.432717
0.462307
0.48808
0.532233
0.58766
0.713305
1.08769
1.69389
1.7308
1.71767
1.70417
1.73813
1.76248
1.7681
1.77278
1.63004
0.340857
0.321601
0.323083
0.325791
0.328971
0.33401
0.344199
0.356056
0.379759
0.432945
0.462765
0.487356
0.534229
0.576635
0.670121
0.940582
1.65079
1.69753
1.71272
1.68763
1.71818
1.74449
1.7545
1.76255
1.61252
0.340861
0.321606
0.323091
0.325801
0.328976
0.33403
0.344214
0.356077
0.37976
0.433061
0.462672
0.487113
0.535109
0.566093
0.63341
0.839279
1.52445
1.67912
1.70683
1.67095
1.69547
1.72163
1.73316
1.74851
1.59843
0.340855
0.321602
0.323085
0.325796
0.328972
0.334011
0.344177
0.35602
0.379667
0.432887
0.462276
0.487396
0.535192
0.556265
0.603066
0.748149
1.27979
1.68244
1.69503
1.65463
1.67005
1.69575
1.69774
1.72941
1.55834
0.340862
0.321608
0.323093
0.325808
0.328974
0.334045
0.344215
0.356052
0.379805
0.433181
0.462151
0.488227
0.534554
0.551857
0.583281
0.672604
1.01215
1.66412
1.67427
1.64007
1.64007
1.66759
1.6538
1.70696
1.51618
0.340859
0.321606
0.323092
0.325802
0.328986
0.334017
0.344214
0.356047
0.379777
0.433116
0.461765
0.488863
0.533301
0.551645
0.567381
0.619002
0.837919
1.57908
1.64474
1.62628
1.6082
1.63104
1.60322
1.68605
1.42191
0.340863
0.321607
0.323093
0.3258
0.328986
0.334024
0.344231
0.356087
0.379841
0.433394
0.46195
0.489112
0.533577
0.551667
0.556054
0.583497
0.713519
1.26162
1.64846
1.61458
1.57763
1.58088
1.55985
1.641
1.43929
0.340861
0.321607
0.323095
0.325801
0.32899
0.334015
0.344215
0.356079
0.379704
0.433229
0.461876
0.488643
0.533799
0.550657
0.550237
0.562714
0.628827
0.941152
1.62375
1.60735
1.55364
1.5537
1.51263
1.56205
1.46131
0.340862
0.321609
0.323098
0.325806
0.328992
0.334024
0.344214
0.356076
0.37969
0.433198
0.461911
0.488354
0.534224
0.549861
0.549679
0.548263
0.579435
0.767233
1.48415
1.61255
1.54102
1.54618
1.47946
1.4979
1.4594
0.340863
0.321608
0.323094
0.325802
0.328986
0.334029
0.344226
0.356101
0.379784
0.433408
0.462127
0.48857
0.534713
0.549685
0.549149
0.538874
0.552552
0.642076
1.05085
1.59717
1.53755
1.54603
1.47845
1.46119
1.43506
0.340862
0.321608
0.323095
0.325802
0.328986
0.334031
0.344222
0.356092
0.379784
0.433404
0.46211
0.488502
0.534706
0.549578
0.548597
0.534316
0.537326
0.575762
0.802865
1.50436
1.53698
1.54483
1.48889
1.44125
1.41283
0.340863
0.321609
0.323097
0.325804
0.328987
0.334035
0.344215
0.356082
0.379764
0.433372
0.462089
0.488472
0.534721
0.549664
0.548537
0.534807
0.526669
0.544151
0.652997
1.0839
1.51553
1.53623
1.49841
1.43753
1.40354
0.340864
0.32161
0.323098
0.325805
0.328988
0.334039
0.344219
0.356086
0.379771
0.433374
0.462085
0.488447
0.534713
0.549652
0.548463
0.535241
0.521094
0.528857
0.581063
0.79774
1.37569
1.5058
1.48699
1.43593
1.39955
0.340863
0.321608
0.323096
0.325803
0.328986
0.334034
0.344224
0.356094
0.379782
0.433387
0.462094
0.488506
0.534701
0.549601
0.548409
0.535222
0.519961
0.522116
0.55254
0.659862
0.9544
1.41093
1.44619
1.42469
1.39547
0.340866
0.321611
0.323099
0.325807
0.32899
0.334041
0.344229
0.356101
0.379786
0.433392
0.4621
0.488479
0.534703
0.549628
0.548438
0.535274
0.519807
0.520981
0.543639
0.609762
0.738106
1.02656
1.35458
1.39416
1.38162
0.340862
0.32161
0.3231
0.325808
0.328994
0.334029
0.344217
0.356079
0.379692
0.433205
0.461925
0.488272
0.534405
0.5493
0.548112
0.534953
0.519452
0.52057
0.541417
0.597187
0.673742
0.781128
1.00067
1.29298
1.35112
0.340865
0.321609
0.323096
0.325805
0.328987
0.334036
0.344235
0.35611
0.379809
0.43344
0.462127
0.488546
0.534681
0.549552
0.54836
0.535218
0.519772
0.520895
0.541561
0.596669
0.662218
0.726629
0.802712
0.941229
1.18128
0.340865
0.321609
0.323096
0.325804
0.328987
0.334035
0.344233
0.356107
0.379804
0.433433
0.462126
0.488549
0.534698
0.549568
0.548375
0.535229
0.519777
0.520898
0.541547
0.596644
0.661528
0.723204
0.765375
0.810262
0.885501
0.340862
0.32161
0.3231
0.325807
0.328994
0.334028
0.344214
0.356078
0.379691
0.433217
0.461951
0.488295
0.534447
0.549348
0.548156
0.534992
0.519479
0.520591
0.541322
0.596468
0.661293
0.722704
0.762447
0.792864
0.823858
0.340865
0.32161
0.323097
0.325805
0.32899
0.334036
0.344224
0.356098
0.379784
0.433411
0.462133
0.488528
0.534752
0.549661
0.548468
0.535301
0.519793
0.520901
0.541541
0.596628
0.661462
0.722746
0.762284
0.791348
0.816579
0.340863
0.321609
0.323096
0.325803
0.328987
0.334034
0.344225
0.356097
0.379797
0.433431
0.462126
0.488531
0.534708
0.549593
0.548398
0.535235
0.519758
0.520877
0.541532
0.59663
0.661471
0.722752
0.762278
0.791219
0.81593
0.340863
0.321609
0.323096
0.325803
0.328987
0.334034
0.344225
0.356096
0.379795
0.433419
0.462105
0.488512
0.53469
0.54958
0.548387
0.535227
0.519752
0.52087
0.541523
0.596624
0.661476
0.722758
0.762281
0.791209
0.815872
0.340866
0.321611
0.323099
0.325808
0.32899
0.334042
0.344231
0.356103
0.379795
0.433409
0.462114
0.488488
0.534706
0.549629
0.548441
0.53529
0.519784
0.520887
0.541517
0.596603
0.661458
0.722747
0.762275
0.791203
0.815864
0.340862
0.32161
0.3231
0.325808
0.328994
0.334028
0.344214
0.356077
0.379682
0.433182
0.46192
0.488276
0.534445
0.549352
0.548161
0.534997
0.519485
0.520593
0.541319
0.596467
0.661305
0.72267
0.762242
0.791188
0.815857
0.340867
0.321612
0.323101
0.32581
0.328991
0.334046
0.344238
0.35611
0.3798
0.433406
0.462106
0.488471
0.534689
0.54962
0.548435
0.535289
0.51978
0.520881
0.541506
0.59659
0.66145
0.722742
0.762269
0.791199
0.81586
0.340862
0.321608
0.323094
0.325801
0.328985
0.334031
0.34422
0.35609
0.37979
0.433419
0.462113
0.488535
0.534716
0.549593
0.548394
0.535225
0.51975
0.520871
0.541532
0.596638
0.661481
0.722757
0.762278
0.791203
0.815862
0.340866
0.321612
0.323101
0.32581
0.328992
0.334047
0.344235
0.356104
0.379806
0.433426
0.4621
0.488439
0.534662
0.549594
0.548407
0.535249
0.519732
0.520834
0.541466
0.596551
0.661409
0.722715
0.762252
0.791187
0.815852
0.340862
0.321608
0.323094
0.325801
0.328985
0.334031
0.34422
0.35609
0.379791
0.43342
0.462112
0.488533
0.534711
0.549586
0.548387
0.535218
0.519745
0.520866
0.541528
0.596634
0.661479
0.722755
0.762276
0.791202
0.815861
0.340868
0.321613
0.323102
0.325811
0.328992
0.334048
0.344242
0.356114
0.37981
0.433419
0.462108
0.48847
0.534682
0.549608
0.548423
0.535277
0.519769
0.520869
0.541495
0.596579
0.661442
0.722737
0.762263
0.791193
0.815856
0.340862
0.321609
0.3231
0.325808
0.328994
0.334028
0.344213
0.356075
0.37968
0.433173
0.461907
0.488271
0.534435
0.549337
0.548145
0.53498
0.51947
0.520579
0.541306
0.596456
0.6613
0.722667
0.762239
0.791185
0.815854
0.340868
0.321613
0.323102
0.325811
0.328992
0.334047
0.344242
0.356115
0.379807
0.433415
0.462106
0.488469
0.534677
0.549605
0.548422
0.535277
0.519773
0.520876
0.541503
0.596589
0.661451
0.722741
0.762265
0.791194
0.815856
0.340862
0.321607
0.323094
0.325801
0.328985
0.334031
0.344218
0.356088
0.379788
0.433411
0.462103
0.488523
0.534707
0.549589
0.548391
0.535221
0.519744
0.520863
0.541521
0.596626
0.661474
0.722753
0.762276
0.791202
0.815862
0.340866
0.321612
0.323101
0.325809
0.328992
0.334045
0.344233
0.356101
0.379796
0.43341
0.462093
0.488435
0.534667
0.549604
0.548418
0.535262
0.519745
0.520846
0.541478
0.596563
0.661421
0.722721
0.762255
0.791188
0.815851
0.340862
0.321607
0.323094
0.325801
0.328985
0.33403
0.344218
0.356089
0.379782
0.433405
0.462113
0.488538
0.534725
0.549604
0.548406
0.535236
0.519756
0.520875
0.541536
0.596641
0.66148
0.722754
0.762277
0.791202
0.81586
0.340866
0.321611
0.323099
0.325807
0.32899
0.334041
0.34423
0.356102
0.379788
0.433403
0.462118
0.488489
0.534712
0.54964
0.548453
0.5353
0.519787
0.520889
0.541517
0.596601
0.661452
0.72274
0.76227
0.791199
0.81586
0.340861
0.321609
0.323099
0.325806
0.328993
0.334026
0.34421
0.356071
0.379675
0.433175
0.461912
0.488273
0.534432
0.549334
0.548145
0.534984
0.519474
0.520583
0.541309
0.596459
0.661303
0.722669
0.76224
0.791186
0.815855
0.340864
0.321609
0.323095
0.325804
0.328986
0.334034
0.344231
0.356105
0.379799
0.433429
0.462132
0.488546
0.534698
0.549579
0.548389
0.535249
0.519791
0.52091
0.541554
0.59665
0.661503
0.722774
0.762288
0.79121
0.815867
0.340863
0.321607
0.323094
0.325801
0.328985
0.334028
0.344222
0.356096
0.379781
0.433406
0.462124
0.488566
0.534724
0.549592
0.548396
0.535242
0.519786
0.520908
0.541559
0.596661
0.66151
0.722777
0.762291
0.791212
0.815869
0.340861
0.321609
0.323099
0.325805
0.328992
0.334025
0.344209
0.356073
0.379686
0.433217
0.461949
0.488287
0.53443
0.549328
0.548139
0.534979
0.519469
0.520582
0.541311
0.596459
0.661293
0.722659
0.762236
0.791183
0.815852
0.340861
0.321606
0.323092
0.325798
0.328984
0.334023
0.344214
0.356089
0.37977
0.433411
0.462149
0.488596
0.53476
0.549626
0.548428
0.535267
0.5198
0.520922
0.541577
0.596678
0.661513
0.722774
0.762293
0.791214
0.81587
0.340863
0.321608
0.323094
0.325802
0.328985
0.33403
0.344225
0.356099
0.379788
0.433419
0.462132
0.488551
0.534697
0.549578
0.54839
0.535255
0.519803
0.520924
0.541571
0.596667
0.661515
0.722779
0.762291
0.791211
0.815867