/*--------------------------------*- C++ -*----------------------------------*\
| =========                 |                                                 |
| \\      /  F ield         | OpenFOAM: The Open Source CFD Toolbox           |
|  \\    /   O peration     | Version:  4.1                                   |
|   \\  /    A nd           | Web:      www.OpenFOAM.org                      |
|    \\/     M anipulation  |                                                 |
\*---------------------------------------------------------------------------*/
FoamFile
{
    version     2.0;
    format      ascii;
    class       volVectorField;
    location    "0.28";
    object      U;
}
// * * * * * * * * * * * * * * * * * * * * * * * * * * * * * * * * * * * * * //

dimensions      [0 1 -1 0 0 0 0];

internalField   nonuniform List<vector> 
52500
(
(1.81556 -3.60455e-07 -0.00218838)
(1.84014 -9.38852e-07 -0.00199619)
(1.83739 -1.68061e-06 -0.00200389)
(1.83321 -2.63914e-06 -0.00201942)
(1.82671 -3.92816e-06 -0.00203865)
(1.81678 -5.61843e-06 -0.00207121)
(1.80123 -8.91898e-06 -0.00213412)
(1.77501 -1.47081e-05 -0.00220967)
(1.72941 -2.17322e-05 -0.00236693)
(1.65792 -2.69567e-05 -0.00269956)
(1.54689 3.4522e-06 -0.00288478)
(1.41844 7.85229e-05 -0.00312504)
(1.29611 0.000176842 -0.00344662)
(1.12357 0.00162453 -0.00419895)
(0.61515 0.00783841 -0.0062065)
(-0.327553 0.036824 -0.0109243)
(-0.689467 0.0365241 -0.0114536)
(-0.576002 0.0372734 -0.0120794)
(-0.555059 0.0381616 -0.0118043)
(-0.534576 0.0370872 -0.0118571)
(-0.474256 0.0356637 -0.0121069)
(-0.387342 0.0335316 -0.0123183)
(-0.24773 0.031791 -0.0124054)
(-0.214345 0.0320204 -0.0124829)
(0.0282053 0.0327307 -0.0117048)
(1.81556 -3.67613e-07 -0.00218838)
(1.84014 -1.2821e-06 -0.00199618)
(1.83738 -2.40456e-06 -0.00200388)
(1.83321 -3.74351e-06 -0.00201941)
(1.82671 -5.40854e-06 -0.00203864)
(1.81677 -7.24312e-06 -0.00207122)
(1.80122 -1.16039e-05 -0.00213412)
(1.775 -1.9035e-05 -0.00220962)
(1.7294 -2.77277e-05 -0.00236703)
(1.65794 -2.94169e-05 -0.00269954)
(1.54699 5.7604e-05 -0.00288456)
(1.41865 0.000290528 -0.00312502)
(1.2976 0.000277824 -0.00343314)
(1.13164 0.00440463 -0.00415492)
(0.647279 0.021769 -0.00607188)
(-0.295577 0.101715 -0.0107114)
(-0.684624 0.103687 -0.0113716)
(-0.57078 0.0998754 -0.0120208)
(-0.548914 0.0985869 -0.0117312)
(-0.529432 0.0963665 -0.0117861)
(-0.469736 0.0929156 -0.0120272)
(-0.3853 0.0886891 -0.012241)
(-0.24589 0.0850912 -0.0123318)
(-0.213805 0.0856197 -0.0124124)
(0.0294439 0.0867226 -0.0116252)
(1.81556 -1.15692e-06 -0.00218839)
(1.84014 -2.80726e-06 -0.00199619)
(1.83738 -4.91401e-06 -0.00200389)
(1.83321 -7.59726e-06 -0.00201942)
(1.82671 -1.1178e-05 -0.00203865)
(1.81677 -1.57669e-05 -0.00207125)
(1.80121 -2.38014e-05 -0.00213411)
(1.77499 -3.74714e-05 -0.00220968)
(1.7294 -4.51229e-05 -0.00236728)
(1.658 -4.84557e-05 -0.00269954)
(1.54721 6.49758e-05 -0.00288466)
(1.41881 0.000510536 -0.00312333)
(1.30012 -0.00019961 -0.00340904)
(1.14607 0.00629349 -0.00408104)
(0.707422 0.0322462 -0.00584882)
(-0.236977 0.158918 -0.0103499)
(-0.674622 0.181736 -0.0113119)
(-0.565357 0.169489 -0.0119247)
(-0.53891 0.166279 -0.0116551)
(-0.520071 0.163857 -0.0116938)
(-0.461974 0.158852 -0.0119323)
(-0.381484 0.152615 -0.0121501)
(-0.242458 0.146723 -0.0122488)
(-0.212601 0.147658 -0.0123355)
(0.0322445 0.149174 -0.01153)
(1.81556 -1.14536e-06 -0.00218838)
(1.84014 -2.8811e-06 -0.00199618)
(1.83738 -4.86291e-06 -0.00200388)
(1.8332 -7.14839e-06 -0.00201942)
(1.8267 -1.00584e-05 -0.00203864)
(1.81676 -1.44072e-05 -0.00207126)
(1.8012 -2.09683e-05 -0.00213409)
(1.77498 -3.73843e-05 -0.00220949)
(1.72939 -4.76658e-05 -0.00236706)
(1.65804 -7.03128e-05 -0.00269884)
(1.54757 2.24429e-05 -0.0028858)
(1.41869 0.00063541 -0.00311499)
(1.30345 -0.00101099 -0.00337975)
(1.16492 0.00748498 -0.00399139)
(0.7885 0.0386566 -0.00555964)
(-0.137188 0.197773 -0.00972693)
(-0.650193 0.260819 -0.0112964)
(-0.562269 0.238987 -0.0118012)
(-0.523837 0.233734 -0.0115602)
(-0.505992 0.232478 -0.0115767)
(-0.450658 0.227559 -0.0118045)
(-0.375796 0.220114 -0.0120304)
(-0.236827 0.211815 -0.012143)
(-0.210469 0.213531 -0.0122373)
(0.0368132 0.215452 -0.0114098)
(1.81556 3.48279e-07 -0.00218839)
(1.84014 1.6878e-07 -0.0019962)
(1.83738 -3.67804e-07 -0.00200391)
(1.8332 -1.73686e-06 -0.00201944)
(1.8267 -4.45445e-06 -0.00203865)
(1.81676 -1.03869e-05 -0.0020713)
(1.8012 -1.79384e-05 -0.00213405)
(1.77498 -4.39138e-05 -0.00220953)
(1.72939 -8.89573e-05 -0.00236698)
(1.65809 -0.000185728 -0.00269845)
(1.54802 -0.000251107 -0.00288865)
(1.41821 0.000281456 -0.0031015)
(1.30734 -0.00182169 -0.00337082)
(1.18517 0.00780524 -0.00391353)
(0.882856 0.0397706 -0.00520068)
(0.0123672 0.202563 -0.00873631)
(-0.608864 0.342647 -0.0113968)
(-0.564132 0.307465 -0.0116452)
(-0.505635 0.300969 -0.0114622)
(-0.487105 0.300729 -0.0114448)
(-0.434872 0.297976 -0.011656)
(-0.367507 0.291102 -0.0118899)
(-0.227329 0.280767 -0.0120195)
(-0.206974 0.283904 -0.0121195)
(0.0429699 0.286921 -0.0112779)
(1.81556 -3.71295e-07 -0.00218839)
(1.84014 -9.49159e-07 -0.00199617)
(1.83738 -2.23486e-06 -0.00200386)
(1.8332 -4.82359e-06 -0.00201939)
(1.8267 -9.41655e-06 -0.00203858)
(1.81675 -1.71949e-05 -0.00207129)
(1.80117 -2.94601e-05 -0.00213412)
(1.77492 -5.52241e-05 -0.00220958)
(1.72924 -9.20241e-05 -0.00236708)
(1.65778 -0.000168101 -0.00269883)
(1.54777 -0.000277501 -0.0028931)
(1.41667 0.000112134 -0.00308826)
(1.31006 -0.00161706 -0.00339598)
(1.20279 0.00745301 -0.00382401)
(0.966535 0.0362506 -0.00483708)
(0.195104 0.17473 -0.00767615)
(-0.537373 0.422079 -0.0113751)
(-0.574997 0.374621 -0.0114367)
(-0.484492 0.368411 -0.0113609)
(-0.463257 0.369195 -0.0112956)
(-0.413345 0.370889 -0.0114878)
(-0.355592 0.367051 -0.0117118)
(-0.212226 0.355551 -0.011855)
(-0.200695 0.361326 -0.0119818)
(0.0515956 0.367406 -0.0110986)
(1.81555 -1.90713e-06 -0.0021884)
(1.84013 -4.65259e-06 -0.00199619)
(1.83738 -7.51692e-06 -0.00200389)
(1.8332 -1.01221e-05 -0.00201943)
(1.82669 -1.25081e-05 -0.00203861)
(1.81675 -1.37236e-05 -0.00207137)
(1.80116 -1.88292e-05 -0.00213411)
(1.77492 -1.35234e-05 -0.00220963)
(1.72926 1.7277e-05 -0.00236669)
(1.6578 7.15851e-05 -0.00269888)
(1.54799 9.71802e-05 -0.00289548)
(1.41627 0.000326967 -0.00307824)
(1.31353 -0.000486231 -0.00341381)
(1.21897 0.00660371 -0.00374139)
(1.03782 0.0304145 -0.00449129)
(0.409284 0.132976 -0.00665067)
(-0.425219 0.484459 -0.0111625)
(-0.589645 0.440463 -0.0110825)
(-0.460505 0.436135 -0.0112721)
(-0.43395 0.437314 -0.0111417)
(-0.384512 0.445725 -0.0113097)
(-0.339192 0.448432 -0.0115207)
(-0.189724 0.437826 -0.0116878)
(-0.189591 0.447363 -0.0118268)
(0.0634165 0.459528 -0.0108865)
(1.81555 -3.55076e-07 -0.00218839)
(1.84013 -1.07822e-06 -0.00199618)
(1.83737 -2.04088e-06 -0.00200391)
(1.83319 -3.39652e-06 -0.00201945)
(1.82668 -5.41412e-06 -0.00203863)
(1.81674 -8.94156e-06 -0.00207136)
(1.80117 -1.07106e-05 -0.00213395)
(1.77496 -1.60408e-05 -0.00220938)
(1.72936 -2.53822e-05 -0.00236585)
(1.65801 -3.96339e-05 -0.00269824)
(1.54842 -0.000125573 -0.00289428)
(1.41685 -0.000330521 -0.00307454)
(1.31722 -0.000143855 -0.00342337)
(1.23276 0.00441881 -0.0036618)
(1.09413 0.0236278 -0.00420392)
(0.630571 0.102489 -0.00585043)
(-0.253021 0.49823 -0.0104404)
(-0.596512 0.514806 -0.0108436)
(-0.436106 0.50327 -0.0111899)
(-0.399369 0.504187 -0.0109952)
(-0.346184 0.521028 -0.0111292)
(-0.316187 0.535147 -0.0113017)
(-0.15769 0.528699 -0.0114695)
(-0.170716 0.54427 -0.0116443)
(0.0797681 0.568649 -0.0106857)
(1.81555 5.27002e-07 -0.0021884)
(1.84013 9.54266e-07 -0.00199618)
(1.83737 9.63111e-07 -0.00200388)
(1.83319 -1.02158e-07 -0.00201944)
(1.82669 -2.90594e-06 -0.00203858)
(1.81674 -9.83325e-06 -0.00207144)
(1.80116 -1.2924e-05 -0.00213409)
(1.7749 -3.82949e-05 -0.00220955)
(1.72923 -9.34246e-05 -0.00236685)
(1.6577 -0.00018953 -0.00269979)
(1.5477 -0.000359993 -0.00289407)
(1.41615 -0.000842773 -0.0030791)
(1.31782 6.33603e-05 -0.00343093)
(1.24081 0.0013959 -0.00358824)
(1.13607 0.0171774 -0.00396538)
(0.839157 0.0783526 -0.00513899)
(-0.00901804 0.421231 -0.0088762)
(-0.562242 0.604517 -0.0109103)
(-0.4224 0.569168 -0.0110754)
(-0.360109 0.570001 -0.010852)
(-0.296137 0.594496 -0.0109448)
(-0.283697 0.62524 -0.0110762)
(-0.114831 0.626842 -0.0111634)
(-0.13718 0.652743 -0.0114259)
(0.103732 0.697533 -0.0103012)
(1.81555 -3.07062e-07 -0.0021884)
(1.84013 -1.46244e-06 -0.00199617)
(1.83737 -2.26336e-06 -0.00200387)
(1.83319 -2.32195e-06 -0.00201944)
(1.82668 -1.30514e-06 -0.00203856)
(1.81674 8.14922e-07 -0.00207144)
(1.80115 5.6585e-06 -0.00213407)
(1.77488 1.06661e-05 -0.00220945)
(1.72919 1.85718e-05 -0.00236701)
(1.65763 2.72796e-05 -0.00270015)
(1.54743 9.48072e-06 -0.00289185)
(1.41647 -0.000309753 -0.00308513)
(1.31804 0.000725413 -0.00342584)
(1.2472 -0.000239928 -0.00354416)
(1.16761 0.0124729 -0.00380371)
(0.983303 0.0558405 -0.00454306)
(0.293417 0.268768 -0.00711138)
(-0.450143 0.68274 -0.0108735)
(-0.432172 0.631873 -0.0109099)
(-0.318198 0.635022 -0.0107151)
(-0.233933 0.66429 -0.0107362)
(-0.237938 0.715565 -0.0108614)
(-0.0620934 0.732434 -0.0108096)
(-0.074967 0.785513 -0.0111622)
(0.134166 0.901363 -0.00983711)
(1.81556 1.40577e-06 -2.44511e-09)
(1.84013 3.05875e-06 1.88268e-09)
(1.83737 5.30874e-06 2.4673e-09)
(1.8332 8.3852e-06 4.03659e-09)
(1.82669 1.26788e-05 6.83714e-09)
(1.81675 1.83451e-05 1.56301e-08)
(1.80119 2.7783e-05 1.78872e-08)
(1.77497 4.10529e-05 2.46949e-08)
(1.72939 5.58586e-05 9.34733e-08)
(1.65795 6.76019e-05 2.09208e-07)
(1.54705 9.23992e-05 2.94466e-07)
(1.41872 0.000120892 4.14825e-07)
(1.29639 0.000163286 2.48516e-07)
(1.12373 0.0015708 -1.12418e-07)
(0.614836 0.00779099 -1.79105e-06)
(-0.327897 0.0368828 -3.46437e-06)
(-0.689443 0.0364624 2.11766e-06)
(-0.576012 0.0372685 6.97512e-07)
(-0.555123 0.0381647 4.57274e-07)
(-0.534623 0.0370904 4.53257e-07)
(-0.474296 0.0356657 4.3469e-07)
(-0.387363 0.0335315 3.71151e-07)
(-0.24777 0.0317895 3.48879e-07)
(-0.214384 0.0320141 3.12343e-07)
(0.0282059 0.0327388 1.74002e-07)
(1.81556 1.39436e-07 -1.7813e-09)
(1.84014 6.15311e-07 2.27385e-09)
(1.83738 8.45712e-07 2.78956e-09)
(1.8332 3.78975e-07 4.16977e-09)
(1.82671 -1.25691e-06 6.44242e-09)
(1.81677 -5.64066e-06 1.50217e-08)
(1.80121 -1.12965e-05 1.4423e-08)
(1.775 -3.10714e-05 3.01973e-08)
(1.72942 -6.28822e-05 8.78312e-08)
(1.658 -0.000112654 1.87199e-07)
(1.54712 -0.000109292 2.46912e-07)
(1.41884 -9.48047e-06 3.00627e-07)
(1.29779 -9.96746e-05 1.72552e-07)
(1.13178 0.00402313 -9.19229e-08)
(0.6472 0.0214523 -1.17203e-06)
(-0.295523 0.101406 -2.83286e-06)
(-0.684505 0.103797 1.43301e-06)
(-0.570725 0.0999542 6.11092e-07)
(-0.548984 0.0986138 4.02377e-07)
(-0.529489 0.0963853 4.11909e-07)
(-0.469785 0.0929338 4.10627e-07)
(-0.385332 0.0887086 3.54387e-07)
(-0.245957 0.0851027 3.33557e-07)
(-0.213846 0.0855934 3.04973e-07)
(0.0294533 0.0867126 2.14201e-07)
(1.81555 6.73009e-07 7.06441e-10)
(1.84014 1.90347e-06 1.1312e-08)
(1.83738 3.41256e-06 1.24433e-08)
(1.8332 5.30131e-06 1.52112e-08)
(1.82669 7.81011e-06 2.01791e-08)
(1.81675 1.11263e-05 3.30437e-08)
(1.80117 1.70617e-05 4.68944e-08)
(1.77493 2.58472e-05 9.24098e-08)
(1.7293 3.73791e-05 1.56633e-07)
(1.65782 4.30547e-05 2.85826e-07)
(1.54692 0.000134464 2.74415e-07)
(1.4184 0.000517012 2.00489e-07)
(1.29957 -0.000231432 5.73618e-08)
(1.14526 0.00622716 -2.72225e-07)
(0.705656 0.0321652 -1.23607e-06)
(-0.239099 0.159073 -2.88795e-06)
(-0.675003 0.18173 9.4632e-07)
(-0.565538 0.169522 5.21968e-07)
(-0.539039 0.166292 3.89779e-07)
(-0.520129 0.163875 3.35534e-07)
(-0.462014 0.158876 3.74793e-07)
(-0.381496 0.152643 3.18569e-07)
(-0.242494 0.146741 3.0693e-07)
(-0.21262 0.147626 3.08876e-07)
(0.0322044 0.149156 3.3545e-07)
(1.81556 9.08095e-08 5.62889e-10)
(1.84014 2.79e-07 9.07345e-09)
(1.83739 5.25481e-07 9.93135e-09)
(1.83321 8.54896e-07 1.19811e-08)
(1.82671 1.31471e-06 1.56207e-08)
(1.81678 1.92635e-06 2.50033e-08)
(1.80123 3.84388e-06 3.54482e-08)
(1.77502 4.19113e-06 7.92345e-08)
(1.72944 9.18363e-06 1.25659e-07)
(1.65808 -1.48427e-06 2.26634e-07)
(1.54757 8.16853e-05 1.97514e-07)
(1.41866 0.000660471 2.8359e-08)
(1.30339 -0.00100417 -8.01903e-10)
(1.16477 0.00747397 -1.34149e-07)
(0.788232 0.0386651 -4.94577e-07)
(-0.137387 0.197877 -7.27836e-07)
(-0.650262 0.26057 -1.93731e-07)
(-0.562237 0.238965 4.75392e-07)
(-0.523954 0.233719 3.66953e-07)
(-0.506046 0.232485 2.64949e-07)
(-0.45069 0.227577 3.36181e-07)
(-0.375793 0.220136 3.04668e-07)
(-0.236854 0.21183 2.85869e-07)
(-0.210482 0.213501 3.11775e-07)
(0.0367339 0.215447 4.57138e-07)
(1.81555 -2.1472e-07 8.68556e-09)
(1.84014 -2.11111e-07 2.55184e-08)
(1.83738 -2.42319e-07 2.70466e-08)
(1.8332 -2.79789e-07 3.03929e-08)
(1.8267 -2.75596e-07 3.63945e-08)
(1.81676 -1.44863e-07 5.02718e-08)
(1.80118 5.81088e-07 7.65948e-08)
(1.77493 9.56088e-07 1.95247e-07)
(1.72929 8.9134e-06 2.18702e-07)
(1.65787 1.79359e-06 2.70649e-07)
(1.54758 4.14225e-05 2.00751e-07)
(1.41752 0.000681266 -6.23888e-08)
(1.30642 -0.00145122 1.12895e-07)
(1.18401 0.00809784 -1.73253e-07)
(0.881088 0.0399574 -6.56e-07)
(0.00980219 0.202965 -2.49005e-06)
(-0.609705 0.342631 4.57108e-07)
(-0.564159 0.307231 1.33764e-07)
(-0.505766 0.300896 1.97998e-07)
(-0.487146 0.300712 1.70243e-07)
(-0.434898 0.297988 2.77109e-07)
(-0.367498 0.291117 2.78016e-07)
(-0.227362 0.280776 2.79844e-07)
(-0.206984 0.28388 3.41694e-07)
(0.0428759 0.286932 5.47364e-07)
(1.81556 8.92434e-08 1.74017e-09)
(1.84014 1.31671e-07 1.62566e-08)
(1.83738 5.43046e-07 1.75057e-08)
(1.83321 1.80901e-06 2.01707e-08)
(1.82671 4.50161e-06 2.53331e-08)
(1.81678 1.01475e-05 3.26945e-08)
(1.80123 1.73304e-05 5.65218e-08)
(1.77503 4.20197e-05 1.08827e-07)
(1.72944 7.99844e-05 1.23973e-07)
(1.65809 0.000112845 1.56103e-07)
(1.54825 0.000128834 1.38872e-07)
(1.4173 0.000651766 -2.79933e-07)
(1.31081 -0.00107558 -2.25937e-08)
(1.20365 0.00789157 -1.9173e-07)
(0.967588 0.036521 -6.28409e-07)
(0.196623 0.174925 -2.95651e-06)
(-0.536772 0.422016 8.08129e-07)
(-0.574821 0.374215 -1.77553e-07)
(-0.48445 0.368311 1.4301e-07)
(-0.46326 0.369162 1.17128e-07)
(-0.413355 0.3709 2.44141e-07)
(-0.355576 0.367061 2.76155e-07)
(-0.212263 0.355554 2.91959e-07)
(-0.200703 0.361308 3.61975e-07)
(0.0514937 0.36743 5.73833e-07)
(1.81556 -5.69416e-08 1.75099e-08)
(1.84014 -1.38411e-07 3.58051e-08)
(1.83738 -3.61349e-07 3.80184e-08)
(1.8332 -8.05686e-07 4.29745e-08)
(1.8267 -1.50165e-06 5.57514e-08)
(1.81676 -2.48009e-06 7.31228e-08)
(1.8012 -4.21588e-06 8.22545e-08)
(1.77498 -2.73856e-06 2.91453e-07)
(1.72937 -7.16046e-06 3.73758e-07)
(1.658 -3.19265e-05 5.54463e-07)
(1.54834 -0.000115188 5.42402e-07)
(1.41677 -4.40429e-06 5.20136e-07)
(1.31417 -0.000748741 6.3998e-07)
(1.21972 0.00644219 4.94858e-07)
(1.03876 0.0303772 3.6622e-07)
(0.410781 0.132886 8.55055e-07)
(-0.424066 0.484187 -1.44198e-06)
(-0.589479 0.440346 2.42329e-07)
(-0.460263 0.436068 1.66983e-07)
(-0.433909 0.437288 -2.11623e-10)
(-0.384504 0.445738 2.15224e-07)
(-0.339171 0.448437 3.04895e-07)
(-0.189767 0.437824 3.36585e-07)
(-0.189604 0.447349 3.54176e-07)
(0.0633138 0.459566 5.30792e-07)
(1.81556 1.21647e-06 1.27638e-09)
(1.84014 2.75436e-06 1.76881e-08)
(1.83738 4.69379e-06 1.88597e-08)
(1.83321 7.08562e-06 2.11981e-08)
(1.82671 1.0181e-05 2.70621e-08)
(1.81678 1.29901e-05 3.68689e-08)
(1.80123 2.25557e-05 4.3549e-08)
(1.77502 3.33635e-05 1.81869e-07)
(1.7294 3.46018e-05 1.74922e-07)
(1.65798 1.86845e-05 1.39008e-07)
(1.54821 -8.27097e-05 2.16122e-07)
(1.41648 -0.00032349 8.78231e-08)
(1.3167 -0.000129076 8.72433e-07)
(1.23209 0.00442744 7.60219e-07)
(1.09339 0.0236248 5.29399e-07)
(0.629633 0.10242 -2.04341e-07)
(-0.253667 0.498238 -1.61662e-06)
(-0.596537 0.514843 1.2482e-06)
(-0.436011 0.50323 7.83652e-08)
(-0.39932 0.504177 -4.58345e-08)
(-0.346168 0.521047 2.08607e-07)
(-0.316165 0.53515 3.46986e-07)
(-0.15774 0.528693 3.82067e-07)
(-0.170734 0.544257 3.48015e-07)
(0.0796741 0.568701 4.4307e-07)
(1.81556 1.38839e-07 1.74325e-08)
(1.84014 4.42198e-07 4.20595e-08)
(1.83738 7.98733e-07 4.50591e-08)
(1.83321 1.126e-06 5.20501e-08)
(1.82671 1.34634e-06 7.17083e-08)
(1.81677 9.84559e-08 9.07372e-08)
(1.80122 5.07337e-06 1.02385e-07)
(1.775 4.24933e-06 3.46292e-07)
(1.72936 -2.49909e-07 4.64129e-07)
(1.65789 -9.8226e-06 6.9193e-07)
(1.54796 -8.27535e-05 7.13445e-07)
(1.41654 -0.000477367 7.86758e-07)
(1.31831 0.000393839 1.0362e-06)
(1.24135 0.00163264 7.9942e-07)
(1.13663 0.0172879 3.31213e-07)
(0.839647 0.078329 -4.55706e-07)
(-0.00864697 0.421139 -2.09229e-06)
(-0.56217 0.604445 -1.30568e-07)
(-0.422282 0.569127 -1.34419e-07)
(-0.360049 0.570001 -4.35626e-08)
(-0.296118 0.594515 2.17667e-07)
(-0.283678 0.625243 3.82282e-07)
(-0.114883 0.626833 4.12848e-07)
(-0.137199 0.652736 3.34099e-07)
(0.103653 0.697596 3.86158e-07)
(1.81556 5.85466e-08 7.52702e-09)
(1.84014 2.25574e-07 2.63638e-08)
(1.83739 4.3042e-07 2.89514e-08)
(1.83321 6.8635e-07 3.54919e-08)
(1.82671 1.0576e-06 5.42821e-08)
(1.81678 1.38262e-06 7.62025e-08)
(1.80123 3.80895e-06 5.33474e-08)
(1.77501 2.61066e-07 2.60616e-07)
(1.72939 1.20845e-06 4.19187e-07)
(1.6579 4.24943e-06 7.53658e-07)
(1.54776 -3.04336e-05 6.58936e-07)
(1.41687 -0.000377307 7.92454e-07)
(1.31849 0.000633424 5.45544e-07)
(1.24768 -0.00029863 1.37283e-07)
(1.16812 0.0124774 -1.23611e-07)
(0.98385 0.055904 -4.38977e-07)
(0.294173 0.268736 1.01601e-07)
(-0.449788 0.682674 -1.20408e-06)
(-0.432018 0.631887 2.48842e-07)
(-0.318113 0.635023 2.13412e-07)
(-0.233913 0.664305 2.23227e-07)
(-0.237919 0.715568 3.60892e-07)
(-0.0621403 0.732424 4.44381e-07)
(-0.0749914 0.785513 4.27336e-07)
(0.134105 0.901433 3.60859e-07)
(1.81556 -2.79927e-07 1.45942e-08)
(1.84014 -7.89264e-07 3.21239e-08)
(1.83739 -1.42914e-06 3.3714e-08)
(1.83321 -2.24927e-06 3.69437e-08)
(1.82671 -3.36274e-06 4.32165e-08)
(1.81678 -4.84111e-06 5.06918e-08)
(1.80123 -7.83083e-06 9.01901e-08)
(1.77502 -1.25738e-05 1.98834e-07)
(1.72944 -1.90174e-05 1.92556e-07)
(1.65797 -2.4404e-05 2.16341e-07)
(1.54697 2.26161e-06 8.24071e-08)
(1.41854 6.58766e-05 -1.92195e-07)
(1.29616 0.000147546 -2.48335e-07)
(1.12347 0.0015869 -3.67033e-07)
(0.614476 0.00782973 -8.13902e-07)
(-0.32811 0.0369353 -1.20698e-06)
(-0.68946 0.0364517 8.55892e-07)
(-0.576081 0.0372413 -1.7855e-07)
(-0.555123 0.0381484 -2.23376e-07)
(-0.534615 0.0370836 -5.28241e-08)
(-0.474291 0.0356627 7.20278e-08)
(-0.387359 0.03353 1.15545e-07)
(-0.24777 0.0317885 1.37031e-07)
(-0.214383 0.0320134 1.62286e-07)
(0.0282039 0.0327381 1.68862e-07)
(1.81556 4.15387e-08 4.31885e-09)
(1.84014 8.89443e-08 2.02445e-08)
(1.83738 1.14424e-07 2.17442e-08)
(1.83321 1.71413e-07 2.5163e-08)
(1.82671 3.16899e-07 3.11853e-08)
(1.81678 9.67869e-07 4.60799e-08)
(1.80122 1.02946e-06 6.56607e-08)
(1.77501 2.38341e-06 1.59813e-07)
(1.72942 6.36427e-06 2.01782e-07)
(1.65798 1.9795e-05 3.01907e-07)
(1.54706 0.000113715 2.0683e-07)
(1.41872 0.000335686 -3.10651e-08)
(1.29763 0.00029935 -1.39596e-07)
(1.13157 0.00440535 -2.93171e-07)
(0.646854 0.0217876 -7.47033e-07)
(-0.295912 0.101824 -9.54159e-07)
(-0.684567 0.103565 9.7255e-08)
(-0.570756 0.0998252 -3.12385e-07)
(-0.548962 0.0985757 -2.34779e-07)
(-0.52947 0.0963704 -8.40074e-08)
(-0.469777 0.0929281 5.69071e-08)
(-0.385327 0.0887055 1.10934e-07)
(-0.245956 0.0851002 1.35557e-07)
(-0.213844 0.0855913 1.61502e-07)
(0.0294513 0.0867105 1.68584e-07)
(1.81556 -9.11359e-07 1.7216e-08)
(1.84014 -1.89602e-06 3.20023e-08)
(1.83739 -3.18519e-06 3.37972e-08)
(1.83321 -4.85973e-06 3.7983e-08)
(1.82671 -7.13739e-06 4.49165e-08)
(1.81678 -1.00746e-05 7.16024e-08)
(1.80123 -1.48113e-05 6.05945e-08)
(1.77502 -2.2341e-05 2.67617e-07)
(1.72945 -2.15953e-05 3.68112e-07)
(1.65806 -1.69332e-05 5.30208e-07)
(1.54727 9.1812e-05 5.20699e-07)
(1.41885 0.00051012 4.63149e-07)
(1.30011 -0.000229729 3.98323e-07)
(1.14597 0.00624018 6.12497e-07)
(0.707044 0.0322099 1.55559e-06)
(-0.237341 0.159045 3.52985e-06)
(-0.674658 0.181623 -3.25669e-06)
(-0.565335 0.169442 -4.35079e-07)
(-0.538948 0.166266 -2.43675e-07)
(-0.520098 0.16386 -1.20089e-07)
(-0.462002 0.15887 4.08792e-08)
(-0.38149 0.152639 1.05848e-07)
(-0.242494 0.146738 1.33558e-07)
(-0.212618 0.147622 1.61264e-07)
(0.0322023 0.149153 1.69069e-07)
(1.81556 2.38993e-07 -7.64531e-10)
(1.84014 4.849e-07 8.92404e-09)
(1.83738 9.58308e-07 9.84707e-09)
(1.8332 1.75997e-06 1.20791e-08)
(1.8267 2.98995e-06 1.56172e-08)
(1.81677 4.32349e-06 2.88159e-08)
(1.80121 7.5225e-06 3.26677e-08)
(1.775 7.9822e-06 1.0335e-07)
(1.72943 1.34886e-05 1.56833e-07)
(1.65809 8.93232e-07 2.57292e-07)
(1.54761 8.3466e-05 2.71876e-07)
(1.41871 0.000658751 1.97951e-07)
(1.30344 -0.00101227 2.53033e-07)
(1.16487 0.00745877 3.79118e-07)
(0.788395 0.0386249 6.26365e-07)
(-0.137282 0.197768 1.24811e-06)
(-0.650146 0.260693 -2.0724e-06)
(-0.56214 0.23896 -6.75948e-07)
(-0.523852 0.233732 -3.05569e-07)
(-0.506008 0.232484 -1.68067e-07)
(-0.450674 0.227576 2.35839e-08)
(-0.375787 0.220134 1.026e-07)
(-0.236853 0.211827 1.32739e-07)
(-0.210481 0.213497 1.61284e-07)
(0.0367319 0.215444 1.66603e-07)
(1.81556 7.21848e-07 1.61994e-08)
(1.84014 1.48391e-06 2.99345e-08)
(1.83739 2.0537e-06 3.15579e-08)
(1.83321 1.97876e-06 3.52538e-08)
(1.82672 8.93102e-07 4.29318e-08)
(1.81679 -3.01845e-06 6.42531e-08)
(1.80124 -7.02102e-06 5.09959e-08)
(1.77504 -2.86804e-05 2.54873e-07)
(1.72946 -7.09286e-05 3.39961e-07)
(1.65813 -0.000169776 4.64682e-07)
(1.54797 -0.000247423 4.85936e-07)
(1.41806 0.000254928 4.71429e-07)
(1.30709 -0.00185852 6.06621e-07)
(1.18483 0.00776331 6.62047e-07)
(0.88234 0.0397266 9.54858e-07)
(0.0116911 0.202523 3.3218e-06)
(-0.609063 0.342628 -2.46542e-06)
(-0.564049 0.307434 -1.84295e-07)
(-0.505661 0.300967 -1.35699e-07)
(-0.487123 0.300738 -1.67942e-07)
(-0.434886 0.297996 3.27586e-08)
(-0.367494 0.291119 1.09694e-07)
(-0.227362 0.280775 1.37322e-07)
(-0.206984 0.283876 1.63331e-07)
(0.0428739 0.286928 1.64881e-07)
(1.81556 1.62756e-08 4.56003e-11)
(1.84014 -1.59369e-08 6.71347e-09)
(1.83738 -4.57627e-08 7.18784e-09)
(1.83321 -5.43886e-08 8.20814e-09)
(1.82671 -3.45466e-09 9.68603e-09)
(1.81677 1.47218e-07 1.5676e-08)
(1.80119 -5.36733e-08 1.93626e-08)
(1.77495 1.36689e-06 8.39804e-08)
(1.72928 5.57842e-06 9.47803e-08)
(1.65781 -1.16055e-05 9.96052e-08)
(1.54774 -5.12979e-05 1.93237e-07)
(1.41659 0.000409782 -7.76252e-09)
(1.30995 -0.00131061 3.40637e-07)
(1.20263 0.00770682 3.95512e-07)
(0.966231 0.036421 5.01642e-07)
(0.194499 0.174985 4.40192e-07)
(-0.537588 0.422183 -4.62756e-07)
(-0.574919 0.374478 1.27945e-08)
(-0.484503 0.368397 -4.30058e-08)
(-0.46327 0.369202 -1.01802e-07)
(-0.413359 0.370912 6.43847e-08)
(-0.355577 0.367064 1.24991e-07)
(-0.212266 0.355554 1.46352e-07)
(-0.200704 0.361305 1.66036e-07)
(0.0514915 0.367426 1.65748e-07)
(1.81556 -1.30248e-06 1.18317e-08)
(1.84014 -3.29747e-06 2.54352e-08)
(1.83739 -5.39274e-06 2.67169e-08)
(1.83321 -7.24298e-06 2.93587e-08)
(1.82672 -8.7026e-06 3.4543e-08)
(1.81679 -8.43173e-06 4.10567e-08)
(1.80124 -1.11601e-05 7.34913e-08)
(1.77504 8.49855e-07 1.58538e-07)
(1.72944 2.87126e-05 1.58341e-07)
(1.65808 6.93152e-05 1.64789e-07)
(1.54838 8.40309e-05 1.59115e-07)
(1.41679 0.000328855 -2.63476e-08)
(1.31415 -0.000423421 3.01397e-07)
(1.21964 0.00671112 2.80825e-07)
(1.03859 0.0305418 1.90276e-07)
(0.410276 0.133082 -4.4347e-07)
(-0.424529 0.484295 3.97829e-07)
(-0.589504 0.440431 2.05617e-07)
(-0.46039 0.436128 2.19424e-08)
(-0.433945 0.437319 -3.64518e-09)
(-0.384523 0.445749 1.01259e-07)
(-0.339178 0.44844 1.44599e-07)
(-0.189773 0.437824 1.57646e-07)
(-0.189607 0.447346 1.70149e-07)
(0.0633112 0.459562 1.68354e-07)
(1.81556 -9.75749e-08 2.92147e-09)
(1.84014 -8.97973e-08 9.78964e-09)
(1.83738 -3.0385e-07 1.04771e-08)
(1.8332 -8.43885e-07 1.20239e-08)
(1.8267 -1.74056e-06 1.48961e-08)
(1.81676 -3.72158e-06 2.04879e-08)
(1.80119 -3.22052e-06 2.96911e-08)
(1.77498 -3.89709e-06 6.0822e-08)
(1.72936 -8.6187e-06 7.8122e-08)
(1.65797 -1.50588e-05 1.30576e-07)
(1.54828 -8.60307e-05 1.18741e-07)
(1.41662 -0.000256569 8.62911e-08)
(1.31689 -2.41246e-05 3.56239e-08)
(1.23231 0.00456654 -1.07352e-08)
(1.09358 0.0237901 -1.22102e-07)
(0.629668 0.102638 -5.33078e-07)
(-0.253636 0.498415 -8.70485e-07)
(-0.596493 0.514814 6.59005e-07)
(-0.436077 0.503253 1.16237e-07)
(-0.399359 0.504189 6.17707e-08)
(-0.346194 0.521054 1.25571e-07)
(-0.316175 0.535151 1.64531e-07)
(-0.157748 0.528693 1.68559e-07)
(-0.170739 0.544254 1.72891e-07)
(0.0796712 0.568698 1.72037e-07)
(1.81556 4.02264e-08 5.60426e-09)
(1.84014 5.6473e-08 1.65802e-08)
(1.83739 3.48114e-08 1.80125e-08)
(1.83321 -9.37939e-08 2.16207e-08)
(1.82671 -3.83182e-07 2.89635e-08)
(1.81678 -2.06698e-06 4.5185e-08)
(1.80123 1.2296e-06 5.97183e-08)
(1.77503 -1.49461e-06 1.0968e-07)
(1.72942 -5.44773e-06 1.94654e-07)
(1.65798 -8.13075e-06 3.89507e-07)
(1.54808 -6.28486e-05 3.28143e-07)
(1.41664 -0.00042149 3.4152e-07)
(1.31835 0.000467973 4.81134e-08)
(1.24135 0.00171308 -6.87977e-08)
(1.13659 0.0173777 -2.75431e-07)
(0.839551 0.078438 -5.98504e-07)
(-0.00869236 0.421314 -1.32057e-06)
(-0.562175 0.604423 4.37087e-07)
(-0.422307 0.569123 1.05472e-07)
(-0.360083 0.570004 5.34336e-08)
(-0.296145 0.59452 1.30659e-07)
(-0.28369 0.625243 1.78436e-07)
(-0.114893 0.626833 1.72853e-07)
(-0.137204 0.652734 1.71369e-07)
(0.10365 0.697594 1.76899e-07)
(1.81556 1.4202e-07 2.31834e-09)
(1.84014 1.71595e-07 7.75143e-09)
(1.83738 3.95992e-07 8.53948e-09)
(1.8332 8.58609e-07 1.06266e-08)
(1.82669 1.55017e-06 1.48472e-08)
(1.81676 1.9961e-06 2.57247e-08)
(1.80119 5.3009e-06 2.42141e-08)
(1.77498 8.45634e-07 4.62334e-08)
(1.72936 1.53302e-06 1.04857e-07)
(1.65792 2.05394e-06 2.33522e-07)
(1.54787 -3.89773e-05 2.31542e-07)
(1.41705 -0.000406933 3.39121e-07)
(1.3187 0.000587442 1.44124e-07)
(1.24792 -0.000358798 -4.44191e-08)
(1.16835 0.012415 -1.48854e-07)
(0.984026 0.0558563 -3.38067e-07)
(0.294292 0.268746 -8.35584e-07)
(-0.449764 0.682636 1.10792e-07)
(-0.432009 0.631871 8.35296e-08)
(-0.318134 0.635032 8.11587e-08)
(-0.23394 0.664313 1.26284e-07)
(-0.237934 0.715568 1.8025e-07)
(-0.0621501 0.732425 1.77916e-07)
(-0.0749994 0.785512 1.79654e-07)
(0.134103 0.901432 1.6897e-07)
(1.81556 5.0637e-10 3.82669e-09)
(1.84014 -1.17908e-09 1.04471e-08)
(1.83739 -5.93382e-09 1.14009e-08)
(1.83321 -1.27714e-08 1.37657e-08)
(1.82672 -2.5542e-08 1.85445e-08)
(1.81678 -2.33472e-08 2.79181e-08)
(1.80124 -1.26809e-07 4.05283e-08)
(1.77503 -2.85671e-07 4.92754e-08)
(1.72946 -6.07452e-07 9.74999e-08)
(1.65801 -6.43674e-07 2.16471e-07)
(1.54702 2.47874e-05 2.41263e-07)
(1.41857 7.69235e-05 2.55442e-07)
(1.29617 0.000148846 1.67926e-07)
(1.12344 0.00158491 5.13106e-09)
(0.614402 0.00783525 -1.33143e-07)
(-0.328119 0.0369614 7.32602e-08)
(-0.689439 0.0364455 -2.61944e-07)
(-0.576076 0.0372392 -7.62009e-08)
(-0.555137 0.038149 -5.31045e-08)
(-0.534627 0.0370832 -8.23991e-08)
(-0.474303 0.0356629 1.92126e-08)
(-0.387365 0.0335303 4.83641e-08)
(-0.247776 0.0317889 6.40552e-08)
(-0.214385 0.0320137 8.55712e-08)
(0.0282009 0.0327384 1.74375e-07)
(1.81556 -3.31692e-10 6.02689e-09)
(1.84014 -4.26271e-09 1.50245e-08)
(1.83739 -1.13205e-08 1.61746e-08)
(1.83321 -2.35818e-08 1.89086e-08)
(1.82672 -5.62201e-08 2.45828e-08)
(1.81678 -4.44277e-08 3.35122e-08)
(1.80124 -2.71352e-07 5.63614e-08)
(1.77503 -1.05774e-07 7.37143e-08)
(1.72946 -2.15681e-06 1.12376e-07)
(1.65803 -2.61849e-06 2.19082e-07)
(1.54709 6.90383e-05 1.84275e-07)
(1.41874 0.000261046 1.27116e-07)
(1.29762 0.000213305 7.98902e-08)
(1.13155 0.00432521 -8.03304e-09)
(0.646828 0.0217334 1.8881e-09)
(-0.295886 0.101827 2.17941e-07)
(-0.684542 0.10356 -2.48868e-07)
(-0.570741 0.0998287 -4.59285e-08)
(-0.548974 0.0985788 -4.09108e-08)
(-0.529483 0.0963693 -7.06484e-08)
(-0.469789 0.0929284 2.95667e-08)
(-0.385333 0.0887064 6.37246e-08)
(-0.245963 0.0851012 8.04343e-08)
(-0.213847 0.0855923 9.04106e-08)
(0.0294482 0.0867113 1.19606e-07)
(1.81556 -2.47929e-09 2.71154e-09)
(1.84014 -8.74529e-09 8.40419e-09)
(1.83739 -1.50303e-08 8.95227e-09)
(1.83321 -2.78223e-08 1.01451e-08)
(1.82672 -5.42327e-08 1.25351e-08)
(1.81678 -1.41287e-07 1.57485e-08)
(1.80124 1.13858e-07 2.66763e-08)
(1.77503 -3.25223e-07 5.12945e-08)
(1.72946 -1.66523e-06 5.94236e-08)
(1.65807 -9.57791e-06 8.10084e-08)
(1.54728 8.0775e-05 9.61106e-08)
(1.41885 0.000483251 8.45422e-08)
(1.30012 -0.000233586 1.18423e-07)
(1.14597 0.00625233 1.96981e-07)
(0.707006 0.0322266 2.99147e-07)
(-0.237419 0.159072 3.68909e-07)
(-0.674659 0.181595 -1.25122e-07)
(-0.56533 0.169449 -3.87176e-08)
(-0.538965 0.166263 -4.896e-08)
(-0.520111 0.163859 -4.79569e-08)
(-0.462014 0.15887 5.23973e-08)
(-0.381496 0.15264 1.00544e-07)
(-0.2425 0.146739 1.07687e-07)
(-0.212621 0.147624 7.58589e-08)
(0.0321992 0.149154 -4.02284e-08)
(1.81556 -3.39238e-09 9.52363e-09)
(1.84014 -8.13147e-09 1.81449e-08)
(1.83739 -1.15183e-08 1.8921e-08)
(1.83321 -1.74448e-08 2.04492e-08)
(1.82671 -5.63324e-09 2.33563e-08)
(1.81678 -2.05951e-07 2.76085e-08)
(1.80124 7.06223e-07 4.6074e-08)
(1.77503 -9.28454e-07 1.21987e-07)
(1.72946 -4.91442e-07 1.12397e-07)
(1.6581 -1.99991e-05 7.48471e-08)
(1.54758 5.49271e-05 1.40482e-07)
(1.41863 0.000629614 1.64202e-07)
(1.30332 -0.00102274 4.05441e-07)
(1.16468 0.00745769 6.01286e-07)
(0.788167 0.0386273 7.04797e-07)
(-0.137628 0.197744 7.48387e-07)
(-0.650318 0.260683 -1.1056e-08)
(-0.562148 0.238938 -2.67917e-07)
(-0.523882 0.233713 -1.88709e-07)
(-0.50602 0.232479 -1.53326e-08)
(-0.450685 0.227575 6.39357e-08)
(-0.375792 0.220134 9.69643e-08)
(-0.236859 0.211829 1.20666e-07)
(-0.210483 0.213499 6.45645e-08)
(0.0367288 0.215445 -1.8932e-07)
(1.81556 -1.41533e-09 -8.98443e-10)
(1.84014 1.34414e-09 5.1005e-09)
(1.83739 7.89384e-09 5.60192e-09)
(1.83321 2.64857e-08 6.74401e-09)
(1.82671 9.56549e-08 8.77608e-09)
(1.81678 3.1252e-08 1.44582e-08)
(1.80124 6.57067e-07 1.87722e-08)
(1.77503 -5.12577e-07 5.12356e-08)
(1.72944 8.75469e-07 7.60421e-08)
(1.65811 -2.18535e-05 1.15276e-07)
(1.54792 -4.7324e-06 1.26709e-07)
(1.41798 0.000604112 5.5436e-08)
(1.30698 -0.00153329 2.10988e-07)
(1.18467 0.00801504 1.01382e-07)
(0.88206 0.039868 -9.23691e-08)
(0.0111617 0.202695 -1.07641e-06)
(-0.609302 0.342652 2.68788e-07)