/*--------------------------------*- C++ -*----------------------------------*\
| =========                 |                                                 |
| \\      /  F ield         | OpenFOAM: The Open Source CFD Toolbox           |
|  \\    /   O peration     | Version:  4.1                                   |
|   \\  /    A nd           | Web:      www.OpenFOAM.org                      |
|    \\/     M anipulation  |                                                 |
\*---------------------------------------------------------------------------*/
FoamFile
{
    version     2.0;
    format      ascii;
    class       volScalarField;
    location    "5.14";
    object      Ma;
}
// * * * * * * * * * * * * * * * * * * * * * * * * * * * * * * * * * * * * * //

dimensions      [0 0 0 0 0 0 0];

internalField   nonuniform List<scalar> 
52500
(
3.00002
2.99997
2.99991
2.99968
2.99935
2.99803
2.99612
2.98883
2.97665
2.93715
2.84702
2.63921
2.08963
1.247
0.519179
0.280395
0.32925
0.343493
0.311177
0.25666
0.204542
0.162913
0.121995
0.0767352
0.0437581
3.00002
2.99997
2.99991
2.99968
2.99936
2.99806
2.99618
2.98902
2.97698
2.93817
2.8491
2.64433
2.09845
1.26
0.525244
0.27921
0.329717
0.344843
0.312845
0.259198
0.208503
0.168463
0.129844
0.0898681
0.0662986
3.00002
2.99997
2.99992
2.99969
2.99938
2.99811
2.99628
2.9893
2.97763
2.9398
2.85351
2.6538
2.12253
1.29174
0.54335
0.282786
0.335393
0.352127
0.320891
0.269302
0.221572
0.184985
0.151275
0.11969
0.104205
3.00002
2.99997
2.99992
2.99971
2.99941
2.99819
2.99644
2.98972
2.97861
2.94221
2.86022
2.668
2.16113
1.34238
0.571456
0.289117
0.344935
0.364478
0.334663
0.286047
0.242113
0.209781
0.181566
0.15698
0.14592
3.00002
2.99998
2.99993
2.99972
2.99944
2.99827
2.99661
2.99013
2.97983
2.94493
2.8699
2.68702
2.21507
1.41412
0.61067
0.30134
0.359754
0.382504
0.354179
0.309082
0.26896
0.240877
0.217536
0.198341
0.190307
3.00002
2.99998
2.99993
2.99974
2.99947
2.99837
2.99682
2.99061
2.98126
2.94788
2.88234
2.71015
2.28265
1.50767
0.661977
0.323662
0.382225
0.407145
0.380147
0.338359
0.30211
0.277984
0.259472
0.245203
0.240001
3.00002
2.99998
2.99994
2.99976
2.99952
2.99851
2.99709
2.99142
2.98288
2.95217
2.89452
2.73522
2.35595
1.6188
0.723695
0.35987
0.415349
0.439401
0.413534
0.375139
0.342178
0.321911
0.307889
0.299035
0.298993
3.00002
2.99999
2.99995
2.99979
2.99956
2.99865
2.99736
2.99221
2.9845
2.95648
2.90511
2.75865
2.41921
1.71721
0.783951
0.397122
0.446471
0.467371
0.446771
0.415348
0.387422
0.372116
0.364391
0.363251
0.372927
3.00002
2.99999
2.99996
2.99981
2.99961
2.99879
2.99764
2.99301
2.98615
2.9609
2.91476
2.78431
2.4697
1.82502
0.859664
0.450248
0.471634
0.484297
0.476522
0.455162
0.435535
0.427334
0.427996
0.440524
0.47429
3.00002
3
2.99997
2.99985
2.99968
2.99902
2.99803
2.99444
2.98806
2.96846
2.92269
2.81466
2.51229
1.94456
0.969799
0.520879
0.489029
0.501187
0.504656
0.493243
0.484846
0.48605
0.501986
0.543179
0.641907
3
2.99995
2.9999
2.99966
2.99933
2.99801
2.9961
2.98881
2.97663
2.93712
2.84698
2.63914
2.08955
1.24686
0.519036
0.280194
0.329064
0.343307
0.310969
0.256407
0.204219
0.162501
0.121437
0.0758307
0.0421276
3
2.99995
2.9999
2.99967
2.99934
2.99804
2.99616
2.989
2.97695
2.93814
2.84906
2.64426
2.09836
1.25986
0.525102
0.279008
0.329531
0.344658
0.312639
0.258948
0.208189
0.168068
0.129325
0.0891066
0.0652496
3
2.99996
2.9999
2.99967
2.99936
2.99809
2.99626
2.98928
2.97761
2.93976
2.85347
2.65373
2.12245
1.2916
0.543211
0.282586
0.33521
0.351945
0.32069
0.269062
0.221278
0.184629
0.150835
0.119127
0.103551
3
2.99996
2.9999
2.99969
2.99939
2.99816
2.99642
2.98969
2.97858
2.94218
2.86019
2.66793
2.16104
1.34223
0.571321
0.288917
0.344754
0.3643
0.334469
0.285821
0.241845
0.20947
0.181203
0.156558
0.14546
3
2.99996
2.99991
2.9997
2.99942
2.99825
2.99659
2.99011
2.97981
2.94489
2.86988
2.68695
2.21503
1.414
0.610564
0.301164
0.359592
0.382344
0.354004
0.308879
0.268724
0.24061
0.217238
0.198012
0.189962
3
2.99996
2.99991
2.99972
2.99945
2.99835
2.9968
2.99059
2.98124
2.94784
2.88232
2.71009
2.28261
1.50754
0.661876
0.323494
0.382074
0.406999
0.37999
0.33818
0.301905
0.277758
0.259228
0.244942
0.239732
3
2.99997
2.99992
2.99974
2.9995
2.99849
2.99707
2.9914
2.98286
2.95215
2.89449
2.73517
2.35588
1.61867
0.723591
0.359705
0.415203
0.439264
0.41339
0.37498
0.342002
0.32172
0.307687
0.298826
0.298782
3
2.99997
2.99993
2.99977
2.99954
2.99863
2.99734
2.99219
2.98448
2.95645
2.90508
2.75859
2.41917
1.7171
0.78387
0.396979
0.446342
0.467251
0.446643
0.415208
0.387271
0.371957
0.364226
0.363085
0.372763
3
2.99997
2.99994
2.99979
2.99959
2.99877
2.99762
2.99299
2.98612
2.96087
2.91473
2.78426
2.46967
1.82491
0.859568
0.450103
0.471518
0.48419
0.476407
0.455039
0.435404
0.4272
0.427861
0.440392
0.474168
3
2.99998
2.99995
2.99983
2.99966
2.999
2.99801
2.99442
2.98804
2.96843
2.92266
2.81461
2.51225
1.94447
0.969702
0.520748
0.488923
0.501085
0.504552
0.493133
0.484733
0.485937
0.501876
0.543078
0.641823
3
2.99995
2.9999
2.99966
2.99933
2.99801
2.9961
2.98881
2.97663
2.93712
2.84698
2.63913
2.08955
1.24685
0.519034
0.280196
0.329065
0.343308
0.31097
0.256408
0.20422
0.162502
0.121438
0.0758313
0.0421281
3
2.99995
2.9999
2.99967
2.99934
2.99804
2.99616
2.989
2.97695
2.93814
2.84906
2.64426
2.09836
1.25986
0.5251
0.279009
0.329531
0.344657
0.312639
0.258948
0.208189
0.168069
0.129325
0.0891069
0.0652501
3
2.99996
2.9999
2.99967
2.99936
2.99809
2.99626
2.98928
2.97761
2.93976
2.85347
2.65373
2.12244
1.29159
0.543209
0.282587
0.33521
0.351945
0.32069
0.269062
0.221278
0.184629
0.150835
0.119127
0.103552
3
2.99996
2.9999
2.99969
2.99939
2.99816
2.99642
2.98969
2.97858
2.94217
2.86018
2.66793
2.16104
1.34223
0.571319
0.288918
0.344754
0.3643
0.334469
0.285821
0.241845
0.20947
0.181203
0.156558
0.145461
3
2.99996
2.99991
2.9997
2.99942
2.99825
2.99659
2.99011
2.97981
2.94489
2.86988
2.68695
2.21503
1.41399
0.610561
0.301165
0.359592
0.382344
0.354003
0.308879
0.268724
0.24061
0.217238
0.198012
0.189962
3
2.99996
2.99991
2.99972
2.99945
2.99835
2.9968
2.99059
2.98124
2.94784
2.88232
2.71009
2.2826
1.50754
0.661873
0.323494
0.382073
0.406999
0.379989
0.338179
0.301905
0.277757
0.259228
0.244942
0.239733
3
2.99997
2.99992
2.99974
2.9995
2.99849
2.99707
2.9914
2.98286
2.95214
2.89448
2.73516
2.35588
1.61866
0.723588
0.359704
0.415202
0.439263
0.413389
0.37498
0.342002
0.32172
0.307687
0.298826
0.298782
3
2.99997
2.99993
2.99977
2.99954
2.99863
2.99734
2.99219
2.98448
2.95645
2.90508
2.75859
2.41917
1.7171
0.783869
0.396979
0.446342
0.46725
0.446642
0.415207
0.38727
0.371957
0.364226
0.363085
0.372764
3
2.99997
2.99994
2.99979
2.99959
2.99877
2.99762
2.99299
2.98612
2.96087
2.91473
2.78426
2.46967
1.82491
0.859565
0.450101
0.471517
0.484191
0.476407
0.455038
0.435403
0.427199
0.427861
0.440392
0.474168
3
2.99998
2.99995
2.99983
2.99966
2.999
2.99801
2.99442
2.98804
2.96843
2.92266
2.81461
2.51224
1.94447
0.969698
0.520746
0.488924
0.501085
0.504552
0.493133
0.484733
0.485937
0.501876
0.543078
0.641823
3
2.99995
2.9999
2.99966
2.99933
2.99801
2.9961
2.98881
2.97663
2.93712
2.84698
2.63913
2.08955
1.24685
0.519034
0.280196
0.329065
0.343308
0.31097
0.256408
0.20422
0.162502
0.121438
0.0758313
0.0421282
3
2.99995
2.9999
2.99967
2.99934
2.99804
2.99616
2.989
2.97695
2.93814
2.84906
2.64426
2.09836
1.25986
0.525101
0.279009
0.329531
0.344658
0.312639
0.258948
0.208189
0.168069
0.129325
0.0891069
0.0652502
3
2.99996
2.9999
2.99967
2.99936
2.99809
2.99626
2.98928
2.97761
2.93976
2.85347
2.65373
2.12244
1.29159
0.543209
0.282587
0.33521
0.351945
0.32069
0.269062
0.221278
0.184629
0.150835
0.119127
0.103552
3
2.99996
2.9999
2.99969
2.99939
2.99816
2.99642
2.98969
2.97858
2.94217
2.86018
2.66793
2.16104
1.34223
0.571319
0.288918
0.344754
0.3643
0.334469
0.285821
0.241845
0.20947
0.181203
0.156558
0.145461
3
2.99996
2.99991
2.9997
2.99942
2.99825
2.99659
2.99011
2.97981
2.94489
2.86988
2.68695
2.21503
1.41399
0.610561
0.301165
0.359592
0.382344
0.354003
0.308879
0.268724
0.24061
0.217238
0.198012
0.189962
3
2.99996
2.99991
2.99972
2.99945
2.99835
2.9968
2.99059
2.98124
2.94784
2.88232
2.71009
2.2826
1.50754
0.661874
0.323494
0.382073
0.406999
0.379989
0.338179
0.301905
0.277757
0.259228
0.244942
0.239733
3
2.99997
2.99992
2.99974
2.9995
2.99849
2.99707
2.9914
2.98286
2.95214
2.89448
2.73516
2.35588
1.61866
0.723588
0.359704
0.415202
0.439263
0.413389
0.37498
0.342002
0.32172
0.307687
0.298826
0.298782
3
2.99997
2.99993
2.99977
2.99954
2.99863
2.99734
2.99219
2.98448
2.95645
2.90508
2.75859
2.41917
1.7171
0.783869
0.396979
0.446342
0.46725
0.446642
0.415207
0.38727
0.371957
0.364226
0.363085
0.372764
3
2.99997
2.99994
2.99979
2.99959
2.99877
2.99762
2.99299
2.98612
2.96087
2.91473
2.78426
2.46967
1.82491
0.859565
0.450101
0.471518
0.484191
0.476407
0.455039
0.435404
0.4272
0.427861
0.440392
0.474168
3
2.99998
2.99995
2.99983
2.99966
2.999
2.99801
2.99442
2.98804
2.96843
2.92266
2.81461
2.51224
1.94447
0.969698
0.520747
0.488924
0.501085
0.504552
0.493133
0.484733
0.485937
0.501876
0.543078
0.641824
3
2.99995
2.9999
2.99966
2.99933
2.99801
2.9961
2.98881
2.97663
2.93712
2.84698
2.63913
2.08954
1.24685
0.519033
0.280196
0.329065
0.343308
0.31097
0.256408
0.20422
0.162502
0.121438
0.0758313
0.0421281
3
2.99995
2.9999
2.99967
2.99934
2.99804
2.99616
2.989
2.97695
2.93814
2.84906
2.64426
2.09836
1.25985
0.5251
0.27901
0.329531
0.344657
0.312639
0.258948
0.208189
0.168069
0.129325
0.0891069
0.0652501
3
2.99996
2.9999
2.99967
2.99936
2.99809
2.99626
2.98928
2.97761
2.93976
2.85347
2.65373
2.12244
1.29159
0.543208
0.282587
0.33521
0.351945
0.32069
0.269062
0.221278
0.184629
0.150835
0.119127
0.103552
3
2.99996
2.9999
2.99969
2.99939
2.99816
2.99642
2.98969
2.97858
2.94217
2.86018
2.66793
2.16104
1.34222
0.571318
0.288918
0.344754
0.3643
0.334469
0.285821
0.241845
0.20947
0.181203
0.156558
0.145461
3
2.99996
2.99991
2.9997
2.99942
2.99825
2.99659
2.99011
2.97981
2.94489
2.86988
2.68695
2.21502
1.41399
0.61056
0.301165
0.359591
0.382344
0.354003
0.308879
0.268724
0.24061
0.217238
0.198012
0.189962
3
2.99996
2.99991
2.99972
2.99945
2.99835
2.9968
2.99059
2.98124
2.94784
2.88232
2.71009
2.2826
1.50754
0.661872
0.323494
0.382073
0.406998
0.379989
0.338179
0.301904
0.277757
0.259228
0.244942
0.239733
3
2.99997
2.99992
2.99974
2.9995
2.99849
2.99707
2.9914
2.98286
2.95214
2.89448
2.73516
2.35588
1.61866
0.723587
0.359704
0.415201
0.439263
0.413388
0.374979
0.342001
0.32172
0.307687
0.298826
0.298782
3
2.99997
2.99993
2.99977
2.99954
2.99863
2.99734
2.99219
2.98448
2.95645
2.90508
2.75859
2.41917
1.7171
0.783868
0.396979
0.446342
0.46725
0.446642
0.415207
0.38727
0.371956
0.364226
0.363085
0.372764
3
2.99997
2.99994
2.99979
2.99959
2.99877
2.99762
2.99299
2.98612
2.96087
2.91473
2.78426
2.46967
1.82491
0.859564
0.450101
0.471517
0.484191
0.476406
0.455038
0.435403
0.427199
0.42786
0.440392
0.474168
3
2.99998
2.99995
2.99983
2.99966
2.999
2.99801
2.99442
2.98804
2.96843
2.92266
2.81461
2.51224
1.94447
0.969697
0.520746
0.488924
0.501085
0.504552
0.493133
0.484732
0.485937
0.501876
0.543078
0.641823
3
2.99995
2.9999
2.99966
2.99933
2.99801
2.9961
2.98881
2.97663
2.93712
2.84698
2.63913
2.08954
1.24685
0.519033
0.280196
0.329065
0.343308
0.31097
0.256408
0.20422
0.162502
0.121438
0.0758313
0.0421281
3
2.99995
2.9999
2.99967
2.99934
2.99804
2.99616
2.989
2.97695
2.93814
2.84906
2.64426
2.09836
1.25985
0.5251
0.27901
0.329531
0.344657
0.312639
0.258948
0.208189
0.168069
0.129325
0.0891069
0.0652502
3
2.99996
2.9999
2.99967
2.99936
2.99809
2.99626
2.98928
2.97761
2.93976
2.85347
2.65373
2.12244
1.29159
0.543208
0.282587
0.33521
0.351945
0.32069
0.269062
0.221278
0.184629
0.150835
0.119127
0.103552
3
2.99996
2.9999
2.99969
2.99939
2.99816
2.99642
2.98969
2.97858
2.94217
2.86018
2.66793
2.16104
1.34222
0.571318
0.288918
0.344754
0.3643
0.334469
0.285821
0.241845
0.20947
0.181203
0.156558
0.145461
3
2.99996
2.99991
2.9997
2.99942
2.99825
2.99659
2.99011
2.97981
2.94489
2.86988
2.68695
2.21502
1.41399
0.61056
0.301165
0.359591
0.382344
0.354003
0.308879
0.268724
0.24061
0.217238
0.198012
0.189962
3
2.99996
2.99991
2.99972
2.99945
2.99835
2.9968
2.99059
2.98124
2.94784
2.88232
2.71009
2.2826
1.50753
0.661872
0.323494
0.382073
0.406998
0.379989
0.338179
0.301904
0.277757
0.259228
0.244942
0.239733
3
2.99997
2.99992
2.99974
2.9995
2.99849
2.99707
2.9914
2.98286
2.95214
2.89448
2.73516
2.35588
1.61866
0.723587
0.359704
0.415201
0.439263
0.413388
0.374979
0.342001
0.32172
0.307687
0.298826
0.298782
3
2.99997
2.99993
2.99977
2.99954
2.99863
2.99734
2.99219
2.98448
2.95645
2.90508
2.75859
2.41917
1.7171
0.783868
0.396979
0.446342
0.46725
0.446642
0.415207
0.38727
0.371956
0.364226
0.363085
0.372764
3
2.99997
2.99994
2.99979
2.99959
2.99877
2.99762
2.99299
2.98612
2.96087
2.91473
2.78426
2.46967
1.82491
0.859564
0.450101
0.471517
0.484191
0.476406
0.455038
0.435403
0.427199
0.42786
0.440392
0.474168
3
2.99998
2.99995
2.99983
2.99966
2.999
2.99801
2.99442
2.98804
2.96843
2.92266
2.81461
2.51224
1.94447
0.969697
0.520746
0.488924
0.501085
0.504552
0.493133
0.484732
0.485937
0.501876
0.543078
0.641823
3
2.99995
2.9999
2.99966
2.99933
2.99801
2.9961
2.98881
2.97663
2.93712
2.84698
2.63913
2.08955
1.24685
0.519034
0.280196
0.329065
0.343308
0.31097
0.256408
0.20422
0.162502
0.121438
0.0758313
0.0421282
3
2.99995
2.9999
2.99967
2.99934
2.99804
2.99616
2.989
2.97695
2.93814
2.84906
2.64426
2.09836
1.25986
0.5251
0.279009
0.329531
0.344657
0.312639
0.258948
0.208189
0.168069
0.129325
0.0891069
0.0652502
3
2.99996
2.9999
2.99967
2.99936
2.99809
2.99626
2.98928
2.97761
2.93976
2.85347
2.65373
2.12244
1.29159
0.543209
0.282587
0.33521
0.351945
0.32069
0.269062
0.221278
0.184629
0.150835
0.119127
0.103552
3
2.99996
2.9999
2.99969
2.99939
2.99816
2.99642
2.98969
2.97858
2.94217
2.86018
2.66793
2.16104
1.34223
0.571319
0.288918
0.344754
0.3643
0.334469
0.285821
0.241845
0.20947
0.181203
0.156558
0.145461
3
2.99996
2.99991
2.9997
2.99942
2.99825
2.99659
2.99011
2.97981
2.94489
2.86988
2.68695
2.21503
1.41399
0.610561
0.301165
0.359592
0.382344
0.354003
0.308879
0.268724
0.24061
0.217238
0.198012
0.189962
3
2.99996
2.99991
2.99972
2.99945
2.99835
2.9968
2.99059
2.98124
2.94784
2.88232
2.71009
2.2826
1.50754
0.661873
0.323494
0.382073
0.406999
0.379989
0.338179
0.301905
0.277757
0.259228
0.244942
0.239733
3
2.99997
2.99992
2.99974
2.9995
2.99849
2.99707
2.9914
2.98286
2.95214
2.89448
2.73516
2.35588
1.61866
0.723588
0.359704
0.415202
0.439263
0.413389
0.374979
0.342002
0.32172
0.307687
0.298826
0.298782
3
2.99997
2.99993
2.99977
2.99954
2.99863
2.99734
2.99219
2.98448
2.95645
2.90508
2.75859
2.41917
1.7171
0.783868
0.396979
0.446342
0.46725
0.446642
0.415207
0.38727
0.371957
0.364226
0.363085
0.372764
3
2.99997
2.99994
2.99979
2.99959
2.99877
2.99762
2.99299
2.98612
2.96087
2.91473
2.78426
2.46967
1.82491
0.859565
0.450101
0.471517
0.484191
0.476407
0.455038
0.435403
0.427199
0.427861
0.440392
0.474168
3
2.99998
2.99995
2.99983
2.99966
2.999
2.99801
2.99442
2.98804
2.96843
2.92266
2.81461
2.51224
1.94447
0.969698
0.520746
0.488924
0.501085
0.504552
0.493133
0.484733
0.485937
0.501876
0.543078
0.641824
3
2.99995
2.9999
2.99966
2.99933
2.99801
2.9961
2.98881
2.97663
2.93712
2.84698
2.63913
2.08955
1.24685
0.519034
0.280196
0.329065
0.343308
0.31097
0.256408
0.20422
0.162502
0.121438
0.0758313
0.0421281
3
2.99995
2.9999
2.99967
2.99934
2.99804
2.99616
2.989
2.97695
2.93814
2.84906
2.64426
2.09836
1.25986
0.5251
0.279009
0.329531
0.344657
0.312639
0.258948
0.208189
0.168069
0.129325
0.0891069
0.0652501
3
2.99996
2.9999
2.99967
2.99936
2.99809
2.99626
2.98928
2.97761
2.93976
2.85347
2.65373
2.12244
1.29159
0.543209
0.282587
0.33521
0.351945
0.32069
0.269062
0.221278
0.184629
0.150835
0.119127
0.103552
3
2.99996
2.9999
2.99969
2.99939
2.99816
2.99642
2.98969
2.97858
2.94217
2.86018
2.66793
2.16104
1.34223
0.571319
0.288918
0.344754
0.3643
0.334469
0.285821
0.241845
0.20947
0.181203
0.156558
0.145461
3
2.99996
2.99991
2.9997
2.99942
2.99825
2.99659
2.99011
2.97981
2.94489
2.86988
2.68695
2.21503
1.41399
0.610561
0.301165
0.359592
0.382344
0.354003
0.308879
0.268724
0.24061
0.217238
0.198012
0.189962
3
2.99996
2.99991
2.99972
2.99945
2.99835
2.9968
2.99059
2.98124
2.94784
2.88232
2.71009
2.2826
1.50754
0.661873
0.323494
0.382073
0.406999
0.379989
0.338179
0.301905
0.277757
0.259228
0.244942
0.239733
3
2.99997
2.99992
2.99974
2.9995
2.99849
2.99707
2.9914
2.98286
2.95214
2.89448
2.73516
2.35588
1.61866
0.723588
0.359704
0.415202
0.439263
0.413389
0.37498
0.342002
0.32172
0.307687
0.298826
0.298782
3
2.99997
2.99993
2.99977
2.99954
2.99863
2.99734
2.99219
2.98448
2.95645
2.90508
2.75859
2.41917
1.7171
0.783868
0.396979
0.446342
0.46725
0.446642
0.415207
0.38727
0.371957
0.364226
0.363085
0.372764
3
2.99997
2.99994
2.99979
2.99959
2.99877
2.99762
2.99299
2.98612
2.96087
2.91473
2.78426
2.46967
1.82491
0.859565
0.450101
0.471517
0.484191
0.476407
0.455038
0.435403
0.427199
0.427861
0.440392
0.474168
3
2.99998
2.99995
2.99983
2.99966
2.999
2.99801
2.99442
2.98804
2.96843
2.92266
2.81461
2.51224
1.94447
0.969698
0.520746
0.488924
0.501085
0.504552
0.493133
0.484732
0.485937
0.501876
0.543078
0.641823
3
2.99995
2.9999
2.99966
2.99933
2.99801
2.9961
2.98881
2.97663
2.93712
2.84698
2.63914
2.08955
1.24686
0.519036
0.280194
0.329064
0.343307
0.310969
0.256407
0.204219
0.162501
0.121437
0.0758307
0.0421276
3
2.99995
2.9999
2.99967
2.99934
2.99804
2.99616
2.989
2.97695
2.93814
2.84906
2.64426
2.09836
1.25986
0.525102
0.279008
0.329531
0.344658
0.312639
0.258948
0.208189
0.168068
0.129325
0.0891066
0.0652496
3
2.99996
2.9999
2.99967
2.99936
2.99809
2.99626
2.98928
2.97761
2.93976
2.85347
2.65373
2.12245
1.2916
0.543211
0.282586
0.33521
0.351945
0.32069
0.269062
0.221278
0.184629
0.150835
0.119127
0.103551
3
2.99996
2.9999
2.99969
2.99939
2.99816
2.99642
2.98969
2.97858
2.94218
2.86019
2.66793
2.16104
1.34223
0.571321
0.288917
0.344754
0.3643
0.334469
0.285821
0.241845
0.20947
0.181203
0.156558
0.14546
3
2.99996
2.99991
2.9997
2.99942
2.99825
2.99659
2.99011
2.97981
2.94489
2.86988
2.68695
2.21503
1.414
0.610564
0.301164
0.359592
0.382344
0.354004
0.308879
0.268724
0.24061
0.217238
0.198012
0.189962
3
2.99996
2.99991
2.99972
2.99945
2.99835
2.9968
2.99059
2.98124
2.94784
2.88232
2.71009
2.28261
1.50754
0.661876
0.323494
0.382074
0.406999
0.379989
0.33818
0.301905
0.277758
0.259228
0.244942
0.239732
3
2.99997
2.99992
2.99974
2.9995
2.99849
2.99707
2.9914
2.98286
2.95215
2.89449
2.73517
2.35588
1.61867
0.723591
0.359705
0.415203
0.439264
0.41339
0.37498
0.342002
0.32172
0.307687
0.298826
0.298782
3
2.99997
2.99993
2.99977
2.99954
2.99863
2.99734
2.99219
2.98448
2.95645
2.90508
2.75859
2.41917
1.7171
0.78387
0.396979
0.446342
0.467251
0.446643
0.415208
0.387271
0.371957
0.364226
0.363085
0.372763
3
2.99997
2.99994
2.99979
2.99959
2.99877
2.99762
2.99299
2.98612
2.96087
2.91473
2.78426
2.46967
1.82491
0.859568
0.450103
0.471518
0.48419
0.476407
0.455039
0.435404
0.4272
0.427861
0.440392
0.474168
3
2.99998
2.99995
2.99983
2.99966
2.999
2.99801
2.99442
2.98804
2.96843
2.92266
2.81461
2.51225
1.94447
0.969702
0.520748
0.488923
0.501085
0.504552
0.493133
0.484733
0.485937
0.501876
0.543078
0.641823
3.00002
2.99997
2.99991
2.99968
2.99935
2.99803
2.99612
2.98883
2.97665
2.93715
2.84702
2.63921
2.08963
1.247
0.51918
0.280395
0.32925
0.343493
0.311177
0.256661
0.204542
0.162913
0.121995
0.0767353
0.0437582
3.00002
2.99997
2.99991
2.99968
2.99936
2.99806
2.99618
2.98902
2.97698
2.93817
2.8491
2.64434
2.09845
1.26
0.525245
0.27921
0.329717
0.344843
0.312845
0.259198
0.208503
0.168463
0.129844
0.0898681
0.0662987
3.00002
2.99997
2.99992
2.99969
2.99938
2.99811
2.99628
2.9893
2.97763
2.9398
2.85351
2.6538
2.12253
1.29175
0.54335
0.282786
0.335394
0.352128
0.320891
0.269302
0.221572
0.184985
0.151275
0.11969
0.104206
3.00002
2.99997
2.99992
2.99971
2.99941
2.99819
2.99644
2.98972
2.97861
2.94221
2.86022
2.668
2.16113
1.34238
0.571456
0.289117
0.344935
0.364478
0.334663
0.286047
0.242113
0.209781
0.181566
0.15698
0.14592
3.00002
2.99998
2.99993
2.99972
2.99944
2.99827
2.99661
2.99013
2.97983
2.94493
2.8699
2.68702
2.21507
1.41412
0.61067
0.30134
0.359754
0.382504
0.354179
0.309082
0.26896
0.240877
0.217536
0.198341
0.190308
3.00002
2.99998
2.99993
2.99974
2.99947
2.99837
2.99682
2.99061
2.98126
2.94788
2.88234
2.71015
2.28265
1.50767
0.661977
0.323662
0.382225
0.407145
0.380148
0.338359
0.30211
0.277984
0.259472
0.245203
0.240002
3.00002
2.99998
2.99994
2.99976
2.99952
2.99851
2.99709
2.99142
2.98288
2.95217
2.89452
2.73522
2.35595
1.6188
0.723696
0.35987
0.41535
0.439402
0.413534
0.375139
0.342179
0.321911
0.307889
0.299035
0.298993
3.00002
2.99999
2.99995
2.99979
2.99956
2.99865
2.99736
2.99221
2.9845
2.95648
2.90511
2.75865
2.41921
1.71721
0.783952
0.397122
0.446472
0.467372
0.446771
0.415348
0.387423
0.372117
0.364391
0.363251
0.372927
3.00002
2.99999
2.99996
2.99981
2.99961
2.99879
2.99764
2.99301
2.98615
2.9609
2.91476
2.78431
2.4697
1.82503
0.859664
0.450248
0.471634
0.484297
0.476522
0.455162
0.435535
0.427334
0.427996
0.440524
0.47429
3.00002
3
2.99997
2.99985
2.99968
2.99902
2.99803
2.99444
2.98806
2.96846
2.92269
2.81466
2.51229
1.94456
0.969799
0.520879
0.489029
0.501187
0.504656
0.493243
0.484846
0.48605
0.501986
0.543179
0.641907
3.00002
3.00001
2.99996
2.9999
2.99964
2.99927
2.99782
2.99563
2.9877
2.97354
2.93011
2.82758
2.59849
2.01112
1.1456
0.608868
0.511762
0.523954
0.534353
0.532144
0.533037
0.546218
0.583294
0.664782
0.837106
3.00002
3.00001
2.99997
2.99991
2.99969
2.99937
2.9981
2.99626
2.98928
2.97756
2.93981
2.85351
2.65478
2.12745
1.30949
0.69837
0.532822
0.547389
0.564964
0.571737
0.581231
0.606618
0.660655
0.760852
0.938243
3.00002
3.00001
2.99998
2.99993
2.99973
2.99946
2.99835
2.99678
2.99052
2.98101
2.94758
2.87978
2.7071
2.27207
1.50571
0.805168
0.56595
0.579547
0.598964
0.612022
0.627868
0.661172
0.723007
0.820811
0.971449
3.00002
3.00001
2.99998
2.99994
2.99978
2.99956
2.99864
2.99734
2.99216
2.98442
2.95632
2.90523
2.75912
2.42748
1.74089
0.925416
0.61964
0.626805
0.642145
0.657914
0.6763
0.711793
0.772127
0.858562
0.983783
3.00002
3.00002
2.99999
2.99996
2.99983
2.99965
2.99891
2.99784
2.99369
2.98732
2.96472
2.92242
2.80468
2.52073
1.92363
1.04204
0.681659
0.667597
0.682218
0.699414
0.719864
0.754609
0.813105
0.888699
0.993107
3.00002
3.00002
3
2.99996
2.9999
2.99966
2.99931
2.99795
2.99588
2.98855
2.97515
2.93526
2.8392
2.62804
2.07036
1.25111
0.783127
0.703371
0.716496
0.734436
0.758327
0.791693
0.844232
0.913705
1.00242
3.00002
3.00002
3.00001
2.99997
2.99992
2.99972
2.99944
2.9983
2.99667
2.99034
2.98032
2.94651
2.87415
2.69898
2.24843
1.48886
0.900242
0.736883
0.74437
0.763346
0.792236
0.826094
0.873173
0.934955
1.01156
3.00002
3.00002
3.00001
2.99999
2.99995
2.99979
2.99957
2.99868
2.9974
2.99241
2.98476
2.95765
2.90726
2.76485
2.4427
1.76156
1.05055
0.793805
0.782859
0.796718
0.823538
0.857799
0.900775
0.956188
1.02253
3.00002
3.00002
3.00001
3
2.99995
2.99988
2.99961
2.99921
2.99766
2.99533
2.98684
2.97229
2.92654
2.82266
2.58757
2.02262
1.22917
0.867396
0.824825
0.835205
0.857708
0.889499
0.926431
0.974837
1.03294
3.00003
3.00002
3.00002
3.00001
2.99997
2.99992
2.99971
2.99942
2.99825
2.99652
2.99019
2.97924
2.94508
2.86645
2.68634
2.21426
1.45749
0.975313
0.862887
0.867096
0.887226
0.918915
0.953286
0.994842
1.04524
3.00003
3.00003
3.00002
3.00001
3
2.99993
2.99984
2.9995
2.99898
2.99711
2.99391
2.98379
2.96183
2.90584
2.75763
2.46051
1.76354
1.14323
0.920809
0.904406
0.916421
0.943044
0.977027
1.01556
1.05898
3.00003
3.00003
3.00002
3.00002
3
2.99996
2.99989
2.99962
2.99925
2.99775
2.99557
2.98732
2.97386
2.93007
2.83394
2.61344
2.07652
1.33033
0.996681
0.944171
0.950637
0.971129
1.00193
1.03692
1.0768
3.00003
3.00003
3.00003
3.00002
3.00001
2.99999
2.99991
2.9998
2.99938
2.99874
2.99649
2.99249
2.98025
2.95258
2.88454
2.70215
2.34614
1.577
1.1224
0.98762
0.982817
0.995717
1.02242
1.05589
1.09283
3.00003
3.00003
3.00003
3.00002
3.00001
3
2.99994
2.99986
2.99954
2.99909
2.9973
2.9947
2.98485
2.96895
2.91792
2.81189
2.54835
2.00097
1.30607
1.05582
1.024
1.02878
1.04872
1.07843
1.11136
3.00003
3.00003
3.00003
3.00002
3.00002
3
2.99998
2.99989
2.99976
2.99925
2.99849
2.99565
2.99123
2.97605
2.9473
2.868
2.67446
2.26897
1.52169
1.14579
1.05912
1.05782
1.07236
1.09878
1.13037
3.00003
3.00003
3.00003
3.00003
3.00002
3.00001
3
2.99993
2.99984
2.99949
2.99898
2.997
2.99408
2.98339
2.96527
2.90965
2.78269
2.50633
1.88453
1.31583
1.1166
1.0937
1.10076
1.12131
1.15033
3.00003
3.00003
3.00003
3.00003
3.00002
3.00002
3
2.99998
2.99988
2.99973
2.99917
2.99834
2.99523
2.99037
2.97368
2.943
2.85588
2.66271
2.20799
1.52509
1.20206
1.13156
1.13022
1.14436
1.169
3.00003
3.00003
3.00003
3.00003
3.00003
3.00002
3.00001
2.99999
2.99993
2.99983
2.99945
2.99891
2.99683
2.99376
2.98251
2.96355
2.90554
2.77526
2.48763
1.86793
1.3605
1.18604
1.16308
1.16943
1.18828
3.00003
3.00003
3.00003
3.00003
3.00003
3.00002
3.00002
3
2.99997
2.99987
2.99972
2.99915
2.99829
2.99518
2.99012
2.97337
2.94244
2.85217
2.66949
2.18992
1.57629
1.27688
1.20669
1.20087
1.21054
3.00003
3.00003
3.00003
3.00003
3.00003
3.00003
3.00002
3.00001
2.99999
2.99994
2.99979
2.99956
2.9987
2.99741
2.99267
2.98517
2.96022
2.91174
2.7866
2.4921
1.90647
1.41678
1.25556
1.23242
1.23657
3.00003
3.00003
3.00003
3.00003
3.00003
3.00003
3.00002
3.00002
3
2.99998
2.99988
2.99973
2.99917
2.99836
2.9953
2.99065
2.97428
2.94604
2.86048
2.68968
2.25209
1.64588
1.34474
1.27185
1.26436
3.00003
3.00003
3.00003
3.00003
3.00003
3.00003
3.00003
3.00002
3.00002
2.99999
2.99995
2.99981
2.99959
2.9988
2.99762
2.9933
2.98644
2.96372
2.92062
2.80571
2.54831
1.9987
1.4995
1.3222
1.29607
3.00003
3.00003
3.00003
3.00003
3.00003
3.00003
3.00003
3.00002
3.00002
3
2.99998
2.99989
2.99976
2.99926
2.99854
2.99578
2.99174
2.97702
2.95262
2.87815
2.72264
2.35345
1.73811
1.41588
1.32956
3.00003
3.00003
3.00003
3.00003
3.00003
3.00003
3.00003
3.00003
3.00002
3.00001
3
2.99995
2.99987
2.99957
2.99914
2.9975
2.99513
2.98631
2.9725
2.92777
2.83844
2.62153
2.15592
1.60484
1.3889
3.00003
3.00003
3.00003
3.00003
3.00003
3.00003
3.00003
3.00003
3.00003
3.00002
3.00001
2.99998
2.99993
2.99975
2.99949
2.99851
2.99708
2.99177
2.98341
2.95613
2.89991
2.76617
2.4274
1.85306
1.49307
3.00003
3.00003
3.00003
3.00003
3.00003
3.00003
3.00003
3.00003
3.00003
3.00002
3.00002
3
2.99996
2.99989
2.99965
2.99929
2.99797
2.99594
2.98889
2.97688
2.94041
2.86193
2.68068
2.26376
1.69242
3.00003
3.00003
3.00003
3.00003
3.00003
3.00003
3.00003
3.00003
3.00003
3.00003
3.00002
3.00001
3
2.99993
2.99984
2.99951
2.99901
2.9972
2.99439
2.98478
2.96791
2.91872
2.80959
2.56648
2.05454
3.00003
3.00003
3.00003
3.00003
3.00003
3.00003
3.00003
3.00003
3.00003
3.00003
3.00002
3.00002
3.00001
2.99998
2.9999
2.99977
2.99932
2.99862
2.99614
2.99221
2.97916
2.95549
2.88812
2.74836
2.39594
3.00003
3.00003
3.00003
3.00003
3.00003
3.00003
3.00003
3.00003
3.00003
3.00003
3.00003
3.00002
3.00002
3
2.99995
2.99988
2.99962
2.99923
2.9978
2.99567
2.98806
2.9757
2.93694
2.86224
2.66799
3.00003
3.00003
3.00003
3.00003
3.00003
3.00003
3.00003
3.00003
3.00003
3.00003
3.00003
3.00003
3.00002
3.00001
2.99999
2.99993
2.99984
2.99949
2.99898
2.99713
2.99424
2.98448
2.96752
2.91792
2.81506
3.00003
3.00003
3.00003
3.00003
3.00003
3.00003
3.00003
3.00003
3.00003
3.00003
3.00003
3.00003
3.00002
3.00002
3.00001
2.99998
2.9999
2.99977
2.99932
2.99862
2.99617
2.99222
2.97936
2.95626
2.88883
3.00003
3.00003
3.00003
3.00003
3.00003
3.00003
3.00003
3.00003
3.00003
3.00003
3.00003
3.00003
3.00003
3.00002
3.00002
3
2.99997
2.99985
2.99968
2.99907
2.99813
2.99483
2.98956
2.9724
2.94106
3.00003
3.00003
3.00003
3.00003
3.00003
3.00003
3.00003
3.00003
3.00003
3.00003
3.00003
3.00003
3.00003
3.00003
3.00002
3.00001
2.99999
2.99992
2.99982
2.99943
2.99886
2.99677
2.99356
2.98251
2.96321
3.00003
3.00003
3.00003
3.00003
3.00003
3.00003
3.00003
3.00003
3.00003
3.00003
3.00003
3.00003
3.00003
3.00003
3.00002
3.00002
3
2.99997
2.99985
2.99967
2.999
2.99798
2.99434
2.98804
2.96826
3.00003
3.00003
3.00003
3.00003
3.00003
3.00003
3.00003
3.00003
3.00003
3.00003
3.00003
3.00003
3.00003
3.00003
3.00003
3.00002
3.00001
2.99997
2.9999
2.99966
2.9993
2.99795
2.9957
2.98817
2.97275
3.00003
3.00003
3.00003
3.00003
3.00003
3.00003
3.00003
3.00003
3.00003
3.00003
3.00003
3.00003
3.00003
3.00003
3.00003
3.00002
3.00001
2.99998
2.9999
2.99977
2.99931
2.99842
2.9958
2.98959
2.97388
3.00003
3.00003
3.00003
3.00003
3.00003
3.00003
3.00003
3.00003
3.00003
3.00003
3.00003
3.00003
3.00003
3.00003
3.00003
3.00002
3.00001
2.99997
2.99991
2.99969
2.99935
2.99803
2.99598
2.98856
2.97439
3.00003
3.00003
3.00003
3.00003
3.00003
3.00003
3.00003
3.00003
3.00003
3.00003
3.00003
3.00003
3.00003
3.00003
3.00003
3.00002
3.00001
2.99997
2.99992
2.99969
2.99937
2.99807
2.99604
2.98877
2.97454
3.00003
3.00003
3.00003
3.00003
3.00003
3.00003
3.00003
3.00003
3.00003
3.00003
3.00003
3.00003
3.00003
3.00003
3.00003
3.00002
3.00001
2.99998
2.99989
2.99976
2.99925
2.99844
2.9956
2.98991
2.97345
3.00003
3.00003
3.00003
3.00003
3.00003
3.00003
3.00003
3.00003
3.00003
3.00003
3.00003
3.00003
3.00003
3.00003
3.00003
3.00002
3
2.99998
2.99988
2.99975
2.99918
2.99838
2.99519
2.98994
2.9723
3
2.99999
2.99994
2.99988
2.99962
2.99925
2.9978
2.9956
2.98768
2.97352
2.93007
2.82755
2.59843
2.01105
1.14549
0.608749
0.511659
0.523855
0.534256
0.532046
0.532939
0.546122
0.583205
0.664706
0.837055
3
2.99999
2.99995
2.99989
2.99967
2.99935
2.99808
2.99624
2.98926
2.97753
2.93978
2.85348
2.65471
2.12738
1.30937
0.698258
0.53272
0.547291
0.564871
0.571646
0.581143
0.606534
0.66058
0.760789
0.938197
3
2.99999
2.99996
2.99991
2.99971
2.99944
2.99833
2.99676
2.9905
2.98098
2.94754
2.87976
2.70705
2.27203
1.50559
0.805071
0.565852
0.579452
0.598874
0.611936
0.627787
0.661097
0.722941
0.820755
0.971403
3
2.99999
2.99997
2.99993
2.99976
2.99954
2.99862
2.99731
2.99213
2.98439
2.95629
2.9052
2.75907
2.42741
1.74076
0.925322
0.619546
0.626715
0.64206
0.657834
0.676225
0.711724
0.772066
0.858509
0.983738
3
3
2.99997
2.99994
2.99981
2.99963
2.99889
2.99782
2.99367