/*--------------------------------*- C++ -*----------------------------------*\
| =========                 |                                                 |
| \\      /  F ield         | OpenFOAM: The Open Source CFD Toolbox           |
|  \\    /   O peration     | Version:  4.1                                   |
|   \\  /    A nd           | Web:      www.OpenFOAM.org                      |
|    \\/     M anipulation  |                                                 |
\*---------------------------------------------------------------------------*/
FoamFile
{
    version     2.0;
    format      ascii;
    class       volVectorField;
    location    "5.14";
    object      U;
}
// * * * * * * * * * * * * * * * * * * * * * * * * * * * * * * * * * * * * * //

dimensions      [0 1 -1 0 0 0 0];

internalField   nonuniform List<vector> 
52500
(
(3 1.49226e-08 -0.00571425)
(2.99998 8.26511e-08 -0.00571439)
(2.99996 3.09456e-07 -0.00571459)
(2.99989 7.98064e-07 -0.00571522)
(2.99976 2.21706e-06 -0.00571638)
(2.99938 5.13232e-06 -0.00571989)
(2.99865 1.33513e-05 -0.00572681)
(2.9963 3.10116e-05 -0.00574521)
(2.99228 7.70599e-05 -0.00579178)
(2.97678 0.000176879 -0.00588175)
(2.94988 0.000480964 -0.00624107)
(2.8457 0.00112603 -0.00672659)
(2.56695 0.00310718 -0.0092191)
(1.88718 0.00821275 -0.0138384)
(0.844668 0.0234382 -0.0176224)
(0.462644 0.0226304 -0.0185191)
(0.542916 0.0235801 -0.0185316)
(0.565946 0.0257086 -0.0185672)
(0.513803 0.0277298 -0.0187544)
(0.42414 0.029656 -0.0189364)
(0.337933 0.032012 -0.0191326)
(0.268245 0.034867 -0.0192966)
(0.198794 0.0379311 -0.019455)
(0.119461 0.0415574 -0.0196085)
(0.0524475 0.0468202 -0.019758)
(3 4.10361e-08 -0.00571425)
(2.99998 2.26766e-07 -0.00571438)
(2.99996 8.48758e-07 -0.00571458)
(2.9999 2.17445e-06 -0.0057152)
(2.99977 6.04561e-06 -0.00571634)
(2.99939 1.38365e-05 -0.00571979)
(2.99867 3.67064e-05 -0.00572661)
(2.99635 8.12837e-05 -0.00574463)
(2.9924 0.000222153 -0.00579069)
(2.97711 0.000473595 -0.00587861)
(2.95069 0.0014236 -0.00623369)
(2.84771 0.00315008 -0.00670751)
(2.57347 0.010486 -0.00917958)
(1.90204 0.0261313 -0.0137385)
(0.851225 0.0732285 -0.0175091)
(0.456395 0.0667732 -0.0184463)
(0.540178 0.0660218 -0.0184579)
(0.564454 0.0696569 -0.018485)
(0.512091 0.0730296 -0.0186637)
(0.422524 0.0762249 -0.0188387)
(0.336589 0.0801051 -0.0190267)
(0.266615 0.0845764 -0.0191817)
(0.19634 0.0887767 -0.0193331)
(0.115895 0.0929553 -0.0194725)
(0.0487222 0.0973198 -0.0196067)
(3 6.39396e-08 -0.00571425)
(2.99998 3.5278e-07 -0.00571438)
(2.99996 1.32167e-06 -0.00571457)
(2.9999 3.37513e-06 -0.00571518)
(2.99977 9.40787e-06 -0.00571629)
(2.99941 2.14103e-05 -0.00571965)
(2.9987 5.76394e-05 -0.00572626)
(2.99645 0.000124116 -0.00574386)
(2.99261 0.000360728 -0.00578841)
(2.97776 0.0007356 -0.00587423)
(2.95217 0.00236352 -0.00621757)
(2.8526 0.00503524 -0.00667909)
(2.58844 0.0187393 -0.00906149)
(1.93689 0.0452744 -0.0135149)
(0.872876 0.127838 -0.0173254)
(0.452873 0.114103 -0.0183513)
(0.542163 0.110871 -0.0183637)
(0.568601 0.116939 -0.0183809)
(0.515871 0.123159 -0.0185537)
(0.426602 0.129778 -0.0187197)
(0.341067 0.137095 -0.018902)
(0.270638 0.14513 -0.0190445)
(0.199226 0.152962 -0.0191892)
(0.117267 0.160202 -0.0193284)
(0.0482691 0.165727 -0.0194522)
(3 8.21012e-08 -0.00571425)
(2.99999 4.52747e-07 -0.00571438)
(2.99996 1.69484e-06 -0.00571456)
(2.9999 4.31531e-06 -0.00571514)
(2.99978 1.20325e-05 -0.00571621)
(2.99943 2.72164e-05 -0.00571943)
(2.99875 7.43754e-05 -0.00572576)
(2.9966 0.000153846 -0.00574273)
(2.99291 0.000485529 -0.005785)
(2.97875 0.000902645 -0.0058679)
(2.95437 0.00335455 -0.00619308)
(2.86018 0.00676358 -0.00663862)
(2.6114 0.0264019 -0.0088752)
(1.99088 0.0633144 -0.013174)
(0.907129 0.18133 -0.0170823)
(0.449132 0.161341 -0.0182427)
(0.547172 0.155301 -0.0182534)
(0.577612 0.163726 -0.0182557)
(0.5249 0.172951 -0.0184201)
(0.436244 0.183555 -0.0185801)
(0.351065 0.194696 -0.0187558)
(0.280195 0.206699 -0.0188952)
(0.207445 0.218748 -0.0190228)
(0.122928 0.229787 -0.0191463)
(0.0500816 0.237039 -0.0192852)
(3 9.79652e-08 -0.00571425)
(2.99999 5.40983e-07 -0.00571437)
(2.99997 2.0171e-06 -0.00571455)
(2.99991 5.12878e-06 -0.0057151)
(2.99979 1.42242e-05 -0.00571611)
(2.99946 3.20026e-05 -0.0057192)
(2.99881 8.78779e-05 -0.00572515)
(2.9968 0.000174604 -0.00574176)
(2.99323 0.000596143 -0.00578043)
(2.98011 0.000951685 -0.00586217)
(2.95718 0.00434276 -0.00615611)
(2.87021 0.00810489 -0.0065872)
(2.64212 0.0329112 -0.00861909)
(2.06405 0.0787204 -0.0127066)
(0.956982 0.230429 -0.016772)
(0.450855 0.209135 -0.018113)
(0.557801 0.200529 -0.0181253)
(0.593033 0.21032 -0.0181027)
(0.54042 0.221915 -0.0182667)
(0.452483 0.236511 -0.0183992)
(0.367264 0.251833 -0.0185691)
(0.295552 0.268452 -0.0186988)
(0.220844 0.285564 -0.018837)
(0.132643 0.301362 -0.0189591)
(0.0542442 0.311146 -0.0190733)
(3 1.22227e-07 -0.00571425)
(2.99999 6.75627e-07 -0.00571436)
(2.99997 2.51978e-06 -0.00571453)
(2.99991 6.44651e-06 -0.00571505)
(2.9998 1.78478e-05 -0.005716)
(2.99949 4.06095e-05 -0.00571892)
(2.99887 0.000108817 -0.00572444)
(2.99703 0.000230022 -0.00574065)
(2.99356 0.000701783 -0.00577489)
(2.98182 0.00122887 -0.00585716)
(2.96048 0.00496238 -0.00610749)
(2.88215 0.00930699 -0.00652664)
(2.67887 0.0367243 -0.0083075)
(2.15401 0.088783 -0.0121197)
(1.02599 0.269189 -0.0163894)
(0.466654 0.257785 -0.0179483)
(0.57714 0.249888 -0.0179587)
(0.616393 0.259407 -0.0179299)
(0.564036 0.272055 -0.0180972)
(0.476985 0.290227 -0.0182286)
(0.391369 0.31018 -0.0183654)
(0.318386 0.332202 -0.0184899)
(0.241177 0.355709 -0.0185941)
(0.147662 0.37848 -0.0187022)
(0.0609788 0.393197 -0.0188464)
(3 1.40888e-07 -0.00571425)
(2.99999 7.78425e-07 -0.00571435)
(2.99997 2.90378e-06 -0.0057145)
(2.99992 7.45048e-06 -0.00571498)
(2.99982 2.05927e-05 -0.00571585)
(2.99953 4.71514e-05 -0.00571852)
(2.99897 0.000123829 -0.00572357)
(2.99729 0.000274651 -0.00573837)
(2.99407 0.000745169 -0.00576928)
(2.98362 0.00153473 -0.00584634)
(2.96407 0.0049007 -0.00606264)
(2.89489 0.00979117 -0.0064596)
(2.71754 0.0353746 -0.0079897)
(2.25493 0.0864915 -0.0114674)
(1.11883 0.26562 -0.0159314)
(0.511426 0.296784 -0.0177121)
(0.610986 0.30168 -0.0177041)
(0.649303 0.309832 -0.017681)
(0.597408 0.322914 -0.0178505)
(0.51202 0.345177 -0.0179943)
(0.425625 0.370702 -0.0181314)
(0.350749 0.399329 -0.0182275)
(0.270624 0.431095 -0.0183403)
(0.170904 0.464067 -0.0184333)
(0.072748 0.488771 -0.0185272)
(3 1.48471e-07 -0.00571425)
(2.99999 8.19774e-07 -0.00571434)
(2.99997 3.04784e-06 -0.00571448)
(2.99993 7.8071e-06 -0.00571491)
(2.99984 2.14703e-05 -0.0057157)
(2.99958 4.90097e-05 -0.00571812)
(2.99906 0.000127719 -0.00572269)
(2.99754 0.000283204 -0.00573615)
(2.99461 0.000744965 -0.00576398)
(2.98525 0.00162259 -0.00583471)
(2.96749 0.0045394 -0.00602577)
(2.90603 0.0100401 -0.00639459)
(2.75008 0.0311459 -0.00773293)
(2.33588 0.0771343 -0.0109059)
(1.2152 0.229427 -0.0156401)
(0.559368 0.333273 -0.01752)
(0.634891 0.362552 -0.0175026)
(0.672326 0.362126 -0.017488)
(0.629054 0.374126 -0.0176326)
(0.551341 0.400636 -0.0177342)
(0.467457 0.43303 -0.0178626)
(0.392756 0.469947 -0.0179309)
(0.311576 0.512568 -0.017984)
(0.206593 0.561087 -0.0180392)
(0.0929044 0.606793 -0.018138)
(3 1.79547e-07 -0.00571425)
(2.99999 9.8346e-07 -0.00571433)
(2.99998 3.6642e-06 -0.00571445)
(2.99994 9.42661e-06 -0.00571484)
(2.99985 2.60122e-05 -0.00571554)
(2.99962 6.0104e-05 -0.00571771)
(2.99916 0.000154205 -0.00572179)
(2.9978 0.000363316 -0.0057339)
(2.99518 0.000840487 -0.00575868)
(2.98675 0.00215888 -0.00582206)
(2.97119 0.0045704 -0.00599492)
(2.91591 0.011767 -0.00631324)
(2.77814 0.0292811 -0.00754943)
(2.40473 0.0739356 -0.0102373)
(1.33192 0.211654 -0.0153986)
(0.629404 0.382633 -0.0173407)
(0.646964 0.415899 -0.017257)
(0.674408 0.41135 -0.0173156)
(0.65217 0.425506 -0.0174235)
(0.589742 0.454263 -0.0174822)
(0.51393 0.495087 -0.0175641)
(0.443727 0.542313 -0.0176067)
(0.366576 0.598559 -0.0176244)
(0.263497 0.671785 -0.0175967)
(0.130642 0.762282 -0.0174897)
(3 2.75088e-07 -0.00571425)
(2.99999 4.8171e-07 -0.00571431)
(2.99998 4.0031e-06 -0.00571442)
(2.99995 5.87991e-06 -0.00571473)
(2.99988 2.71153e-05 -0.00571532)
(2.99968 3.79936e-05 -0.00571706)
(2.99931 0.000162248 -0.0057206)
(2.99812 0.000212596 -0.0057294)
(2.99611 0.000985023 -0.00575352)
(2.98834 0.000994901 -0.0057964)
(2.97561 0.00654319 -0.00597547)
(2.92573 0.0042451 -0.00620857)
(2.80492 0.0420433 -0.00741552)
(2.47291 0.0545797 -0.00953934)
(1.47951 0.224895 -0.0148041)
(0.725813 0.437829 -0.0169978)
(0.6558 0.452455 -0.0171515)
(0.680241 0.45129 -0.0171836)
(0.673546 0.471418 -0.0172048)
(0.627557 0.503482 -0.0172579)
(0.56564 0.552686 -0.0172468)
(0.504592 0.611103 -0.0172127)
(0.44141 0.687597 -0.0171207)
(0.358546 0.804482 -0.0169294)
(0.202176 1.01144 -0.0165324)
(3 1.53308e-08 -2.52952e-09)
(2.99998 8.28355e-08 -8.66932e-09)
(2.99996 3.10503e-07 -1.00298e-08)
(2.99989 7.96807e-07 -1.616e-08)
(2.99976 2.22008e-06 -1.59249e-08)
(2.99938 5.13239e-06 -2.18214e-08)
(2.99864 1.33545e-05 -2.19484e-08)
(2.9963 3.10119e-05 -3.03696e-08)
(2.99227 7.70686e-05 -3.2145e-08)
(2.97677 0.000176888 -5.92587e-08)
(2.94987 0.000480993 -7.56519e-08)
(2.84568 0.00112613 -1.68947e-07)
(2.5669 0.0031073 -2.0831e-07)
(1.88707 0.00821321 -6.78682e-07)
(0.84463 0.023438 -7.55709e-07)
(0.462688 0.0226303 8.99922e-08)
(0.542932 0.0235802 -1.7702e-08)
(0.565951 0.0257087 -8.01236e-08)
(0.513808 0.0277298 -7.91798e-08)
(0.424147 0.029656 -7.22898e-08)
(0.33794 0.0320121 -6.58713e-08)
(0.268251 0.0348673 -6.58816e-08)
(0.198799 0.0379316 -6.69425e-08)
(0.119465 0.0415583 -6.91651e-08)
(0.0524503 0.0468221 -7.2219e-08)
(3 4.19247e-08 -2.52142e-09)
(2.99998 2.27546e-07 -8.67283e-09)
(2.99996 8.4966e-07 -1.00145e-08)
(2.9999 2.17632e-06 -1.62044e-08)
(2.99977 6.04756e-06 -1.58525e-08)
(2.99939 1.38409e-05 -2.18689e-08)
(2.99866 3.67138e-05 -2.19018e-08)
(2.99635 8.13052e-05 -3.04265e-08)
(2.9924 0.00022218 -3.20152e-08)
(2.9771 0.000473701 -5.92526e-08)
(2.95068 0.00142374 -7.54268e-08)
(2.8477 0.00315065 -1.67737e-07)
(2.57342 0.0104859 -2.0827e-07)
(1.90193 0.0261329 -6.76587e-07)
(0.851186 0.0732287 -7.62558e-07)
(0.456436 0.0667745 9.17968e-08)
(0.54019 0.0660236 -1.66211e-08)
(0.564455 0.0696583 -8.03051e-08)
(0.512093 0.0730305 -7.92958e-08)
(0.422528 0.0762256 -7.20353e-08)
(0.336594 0.0801059 -6.49118e-08)
(0.266619 0.0845775 -6.46295e-08)
(0.196344 0.0887781 -6.5552e-08)
(0.115897 0.0929572 -6.75068e-08)
(0.0487241 0.0973231 -7.02923e-08)
(3 6.51394e-08 -2.51162e-09)
(2.99998 3.54194e-07 -8.66924e-09)
(2.99996 1.32149e-06 -1.0028e-08)
(2.9999 3.3824e-06 -1.61434e-08)
(2.99977 9.40587e-06 -1.59182e-08)
(2.9994 2.1421e-05 -2.17748e-08)
(2.9987 5.7652e-05 -2.18798e-08)
(2.99645 0.000124173 -3.00798e-08)
(2.9926 0.000360789 -3.20338e-08)
(2.97776 0.000735881 -5.76487e-08)
(2.95216 0.00236395 -7.50127e-08)
(2.85259 0.00503641 -1.60722e-07)
(2.5884 0.0187402 -2.20452e-07)
(1.93678 0.0452782 -6.62709e-07)
(0.872834 0.12784 -7.78868e-07)
(0.452909 0.114104 9.67887e-08)
(0.542172 0.110872 -1.34741e-08)
(0.568599 0.11694 -8.07149e-08)
(0.51587 0.123159 -8.01618e-08)
(0.426603 0.129779 -7.27401e-08)
(0.341069 0.137096 -6.44947e-08)
(0.27064 0.145131 -6.34973e-08)
(0.199228 0.152964 -6.39568e-08)
(0.117268 0.160204 -6.53255e-08)
(0.0482702 0.165731 -6.71965e-08)
(3 8.32989e-08 -2.49726e-09)
(2.99998 4.5466e-07 -8.66545e-09)
(2.99996 1.69215e-06 -1.00454e-08)
(2.9999 4.32286e-06 -1.60636e-08)
(2.99978 1.20162e-05 -1.60042e-08)
(2.99943 2.72021e-05 -2.16514e-08)
(2.99875 7.43235e-05 -2.18305e-08)
(2.9966 0.000153653 -2.95588e-08)
(2.99291 0.000485474 -3.19e-08)
(2.97874 0.000900994 -5.50985e-08)
(2.95436 0.00335678 -7.24983e-08)
(2.86017 0.00676169 -1.54098e-07)
(2.61135 0.0264095 -2.15233e-07)
(1.99077 0.0633262 -6.45761e-07)
(0.907078 0.181345 -8.10777e-07)
(0.449154 0.161347 9.01163e-08)
(0.547173 0.155302 -1.62378e-08)
(0.577604 0.163726 -8.10776e-08)
(0.524894 0.17295 -8.06116e-08)
(0.436241 0.183555 -7.30211e-08)
(0.351063 0.194696 -6.46121e-08)
(0.280194 0.2067 -6.31921e-08)
(0.207445 0.21875 -6.2644e-08)
(0.122928 0.22979 -6.29073e-08)
(0.050082 0.237044 -6.36656e-08)
(3 9.91574e-08 -2.48748e-09)
(2.99999 5.44282e-07 -8.65207e-09)
(2.99996 2.01666e-06 -1.01164e-08)
(2.99991 5.13965e-06 -1.59517e-08)
(2.99979 1.42262e-05 -1.63443e-08)
(2.99946 3.20259e-05 -2.18021e-08)
(2.9988 8.79085e-05 -2.25861e-08)
(2.99679 0.000174691 -3.29117e-08)
(2.99323 0.000596339 -2.96948e-08)
(2.98011 0.000951108 -8.79923e-08)
(2.95717 0.0043451 -8.49935e-09)
(2.87019 0.00810521 -2.25953e-07)
(2.64209 0.0329177 -9.43353e-08)
(2.06396 0.0787332 -5.97959e-07)
(0.956962 0.230449 -7.85159e-07)
(0.450902 0.209144 6.32892e-08)
(0.557818 0.200532 -4.01729e-08)
(0.593039 0.210321 -8.90844e-08)
(0.540424 0.221916 -8.55271e-08)
(0.452486 0.236512 -7.50013e-08)
(0.367266 0.251834 -6.7006e-08)
(0.295553 0.268453 -6.46312e-08)
(0.220844 0.285566 -6.25562e-08)
(0.132642 0.301365 -6.15473e-08)
(0.0542442 0.311151 -6.09631e-08)
(3 1.24373e-07 -2.47343e-09)
(2.99999 6.7886e-07 -8.62053e-09)
(2.99997 2.52457e-06 -1.01133e-08)
(2.99991 6.45816e-06 -1.58533e-08)
(2.9998 1.78754e-05 -1.61459e-08)
(2.99949 4.06747e-05 -2.12762e-08)
(2.99887 0.000108963 -2.16541e-08)
(2.99702 0.000230471 -2.85222e-08)
(2.99356 0.000702222 -2.96887e-08)
(2.98182 0.00123167 -7.01559e-08)
(2.96047 0.00496248 -2.10352e-08)
(2.88213 0.00931272 -1.83873e-07)
(2.67884 0.0367239 -1.16238e-07)
(2.15393 0.0887902 -5.4463e-07)
(1.02597 0.269202 -7.7369e-07)
(0.466689 0.257788 3.48815e-08)
(0.577156 0.249888 -4.93504e-08)
(0.616402 0.259408 -8.97345e-08)
(0.564045 0.272058 -8.60867e-08)
(0.476993 0.29023 -7.67318e-08)
(0.391375 0.310182 -7.01924e-08)
(0.318389 0.332203 -6.7584e-08)
(0.241179 0.35571 -6.40888e-08)
(0.147663 0.378483 -6.14137e-08)
(0.0609789 0.393201 -6.00207e-08)
(3 1.43599e-07 -2.44476e-09)
(2.99999 7.80267e-07 -8.62468e-09)
(2.99997 2.90757e-06 -1.00859e-08)
(2.99992 7.4564e-06 -1.58193e-08)
(2.99982 2.06066e-05 -1.60231e-08)
(2.99953 4.71799e-05 -2.1048e-08)
(2.99896 0.000123901 -2.09853e-08)
(2.99729 0.000274824 -2.68998e-08)
(2.99406 0.000745412 -2.93639e-08)
(2.98361 0.00153649 -4.31063e-08)
(2.96406 0.00490096 -5.16036e-08)
(2.89488 0.00979499 -1.31632e-07)
(2.71751 0.0353783 -1.60121e-07)
(2.25485 0.0865063 -5.00915e-07)
(1.11878 0.265667 -8.06959e-07)
(0.511422 0.296794 -1.58779e-08)
(0.610985 0.30168 -6.46719e-08)
(0.649305 0.309834 -8.30623e-08)
(0.597413 0.322917 -8.00053e-08)
(0.512027 0.345181 -7.43832e-08)
(0.425631 0.370705 -6.99087e-08)
(0.350754 0.399332 -6.8033e-08)
(0.270628 0.431098 -6.52459e-08)
(0.170906 0.46407 -6.19861e-08)
(0.0727485 0.488776 -5.97248e-08)
(3 1.50731e-07 -2.41911e-09)
(2.99999 8.21492e-07 -8.6299e-09)
(2.99997 3.04963e-06 -1.0081e-08)
(2.99993 7.8101e-06 -1.58085e-08)
(2.99984 2.14754e-05 -1.59858e-08)
(2.99958 4.90198e-05 -2.0971e-08)
(2.99906 0.000127741 -2.07687e-08)
(2.99754 0.000283253 -2.64425e-08)
(2.99461 0.000745079 -2.81656e-08)
(2.98524 0.00162283 -4.05923e-08)
(2.96748 0.00454021 -4.38739e-08)
(2.90602 0.010041 -1.2401e-07)
(2.75005 0.0311519 -1.02619e-07)
(2.33583 0.0771491 -3.66317e-07)
(1.21516 0.229484 -4.62796e-07)
(0.559375 0.333277 -1.83866e-07)
(0.634905 0.362542 -1.227e-07)
(0.672339 0.362127 -6.80307e-08)
(0.629065 0.374129 -6.83044e-08)
(0.551351 0.40064 -7.32075e-08)
(0.467465 0.433033 -7.36922e-08)
(0.392763 0.46995 -6.92071e-08)
(0.311582 0.512572 -6.57551e-08)
(0.206596 0.561091 -6.22816e-08)
(0.0929055 0.606799 -6.01635e-08)
(3 1.7975e-07 -2.39946e-09)
(2.99999 9.8241e-07 -8.62763e-09)
(2.99998 3.65994e-06 -1.00884e-08)
(2.99993 9.39879e-06 -1.57974e-08)
(2.99985 2.59975e-05 -1.59785e-08)
(2.99962 6.0049e-05 -2.09435e-08)
(2.99916 0.000154143 -2.07365e-08)
(2.9978 0.000363171 -2.63321e-08)
(2.99518 0.000840389 -2.79762e-08)
(2.98675 0.00215855 -4.06106e-08)
(2.97118 0.0045699 -4.00138e-08)
(2.9159 0.0117678 -1.2966e-07)
(2.77812 0.0292836 -7.44258e-08)
(2.40469 0.0739394 -3.462e-07)
(1.33187 0.211676 -4.28246e-07)
(0.629379 0.382625 -3.63837e-07)
(0.646983 0.415894 -1.98354e-07)
(0.674436 0.411351 -2.4367e-08)
(0.652187 0.42551 -5.48462e-08)
(0.589755 0.454268 -6.18801e-08)
(0.51394 0.495092 -7.2254e-08)
(0.443736 0.542318 -6.87702e-08)
(0.366583 0.598564 -6.63707e-08)
(0.263502 0.67179 -6.16866e-08)
(0.130645 0.762289 -5.99541e-08)
(3 2.60952e-07 -2.41498e-09)
(2.99999 5.37522e-07 -8.65159e-09)
(2.99998 3.89652e-06 -1.01439e-08)
(2.99995 5.91921e-06 -1.62709e-08)
(2.99988 2.6985e-05 -1.57928e-08)
(2.99968 3.80322e-05 -2.16828e-08)
(2.99931 0.000162118 -2.09871e-08)
(2.99811 0.000212648 -2.79607e-08)
(2.99611 0.000984857 -2.73368e-08)
(2.98833 0.000995261 -4.47422e-08)
(2.9756 0.00654245 -4.74867e-08)
(2.92572 0.00424785 -9.92758e-08)
(2.8049 0.0420408 -6.86051e-08)
(2.47287 0.0545887 -3.47422e-07)
(1.47946 0.224898 -3.79002e-07)
(0.725778 0.437824 -4.51481e-07)
(0.655818 0.452464 -8.74474e-08)
(0.680263 0.451296 -3.30156e-08)
(0.673565 0.471425 -4.7806e-08)
(0.627572 0.503488 -5.46835e-08)
(0.565652 0.552692 -6.76686e-08)
(0.504603 0.611109 -6.73952e-08)
(0.44142 0.687603 -6.47887e-08)
(0.358553 0.804488 -5.96895e-08)
(0.20218 1.01145 -5.83488e-08)
(3 1.53309e-08 -3.91284e-13)
(2.99998 8.28367e-08 -2.0721e-12)
(2.99996 3.10506e-07 -4.57914e-12)
(2.99989 7.96815e-07 -9.71604e-12)
(2.99976 2.22009e-06 -1.80562e-11)
(2.99938 5.13241e-06 -3.43207e-11)
(2.99864 1.33545e-05 -7.19967e-11)
(2.9963 3.10118e-05 -1.41262e-10)
(2.99227 7.70686e-05 -3.36324e-10)
(2.97677 0.000176887 -6.76266e-10)
(2.94987 0.00048099 -1.8947e-09)
(2.84568 0.00112613 -4.00732e-09)
(2.5669 0.00310728 -9.64045e-09)
(1.88706 0.00821314 -2.61012e-08)
(0.844628 0.0234377 -3.53897e-08)
(0.46269 0.0226301 4.15191e-09)
(0.542933 0.0235801 -8.95836e-10)
(0.565951 0.0257086 -3.09188e-09)
(0.513809 0.0277297 -2.80668e-09)
(0.424148 0.0296559 -2.29324e-09)
(0.337942 0.0320121 -2.49633e-09)
(0.268253 0.0348673 -2.88593e-09)
(0.1988 0.0379316 -3.32955e-09)
(0.119466 0.0415584 -3.9354e-09)
(0.0524511 0.0468226 -4.7243e-09)
(3 4.19255e-08 -3.91428e-13)
(2.99998 2.2755e-07 -2.06764e-12)
(2.99996 8.49675e-07 -4.58734e-12)
(2.9999 2.17636e-06 -9.7439e-12)
(2.99977 6.04767e-06 -1.82049e-11)
(2.99939 1.38412e-05 -3.47624e-11)
(2.99866 3.67144e-05 -7.28388e-11)
(2.99635 8.13071e-05 -1.4516e-10)
(2.9924 0.000222182 -3.38986e-10)
(2.9771 0.00047371 -6.95297e-10)
(2.95068 0.00142375 -1.93713e-09)
(2.8477 0.00315069 -4.10336e-09)
(2.57342 0.0104857 -9.92179e-09)
(1.90193 0.0261326 -2.67761e-08)
(0.851183 0.073228 -3.66508e-08)
(0.456438 0.0667742 4.58311e-09)
(0.540191 0.0660235 -4.51478e-10)
(0.564455 0.0696583 -2.95254e-09)
(0.512094 0.0730305 -2.75093e-09)
(0.422528 0.0762255 -2.29869e-09)
(0.336594 0.0801058 -2.40033e-09)
(0.266619 0.0845775 -2.71252e-09)
(0.196344 0.0887782 -3.13361e-09)
(0.115897 0.0929576 -3.67388e-09)
(0.0487244 0.0973239 -4.35361e-09)
(3 6.51401e-08 -3.7645e-13)
(2.99998 3.54197e-07 -2.00776e-12)
(2.99996 1.3215e-06 -4.36228e-12)
(2.9999 3.38244e-06 -9.24211e-12)
(2.99977 9.40597e-06 -1.67069e-11)
(2.9994 2.14212e-05 -3.12059e-11)
(2.9987 5.76526e-05 -6.60009e-11)
(2.99645 0.000124175 -1.16112e-10)
(2.9926 0.000360791 -3.4072e-10)
(2.97776 0.00073589 -5.40321e-10)
(2.95216 0.00236395 -1.9989e-09)
(2.85259 0.00503645 -3.40117e-09)
(2.58839 0.01874 -1.29464e-08)
(1.93677 0.045278 -2.71759e-08)
(0.87283 0.127839 -3.97378e-08)
(0.45291 0.114104 5.65107e-09)
(0.542172 0.110872 2.81785e-10)
(0.568599 0.11694 -2.82427e-09)
(0.51587 0.123159 -2.74979e-09)
(0.426603 0.129779 -2.39572e-09)
(0.341069 0.137096 -2.35166e-09)
(0.27064 0.145131 -2.53031e-09)
(0.199228 0.152964 -2.85442e-09)
(0.117268 0.160205 -3.24797e-09)
(0.0482703 0.165732 -3.66586e-09)
(3 8.33e-08 -3.73813e-13)
(2.99998 4.54664e-07 -1.99521e-12)
(2.99996 1.69217e-06 -4.33073e-12)
(2.9999 4.32292e-06 -9.16514e-12)
(2.99978 1.20163e-05 -1.66008e-11)
(2.99943 2.72025e-05 -3.10555e-11)
(2.99875 7.43243e-05 -6.59645e-11)
(2.9966 0.000153656 -1.18165e-10)
(2.99291 0.000485475 -3.4229e-10)
(2.97874 0.000901013 -5.602e-10)
(2.95436 0.00335676 -2.06078e-09)
(2.86017 0.00676172 -3.51888e-09)
(2.61135 0.0264094 -1.33935e-08)
(1.99076 0.063326 -2.82306e-08)
(0.907075 0.181344 -4.29629e-08)
(0.449156 0.161347 6.54309e-09)
(0.547173 0.155302 7.05469e-10)
(0.577604 0.163726 -2.82815e-09)
(0.524894 0.17295 -2.80794e-09)
(0.436241 0.183555 -2.49782e-09)
(0.351063 0.194696 -2.32892e-09)
(0.280194 0.2067 -2.39924e-09)
(0.207445 0.21875 -2.57283e-09)
(0.122928 0.229791 -2.78548e-09)
(0.0500819 0.237045 -2.95615e-09)
(3 9.91577e-08 -3.5623e-13)
(2.99999 5.44283e-07 -1.93958e-12)
(2.99996 2.01666e-06 -4.11467e-12)
(2.99991 5.13967e-06 -8.48521e-12)
(2.99979 1.42262e-05 -1.5154e-11)
(2.99946 3.2026e-05 -2.69627e-11)
(2.9988 8.79087e-05 -5.78625e-11)
(2.99679 0.000174691 -7.93141e-11)
(2.99323 0.00059634 -3.59143e-10)
(2.98011 0.00095112 -2.27704e-10)
(2.95717 0.00434509 -2.64196e-09)
(2.87019 0.00810524 -2.79154e-09)
(2.64209 0.0329177 -1.45613e-08)
(2.06395 0.0787333 -2.90206e-08)
(0.956958 0.230449 -4.7315e-08)
(0.450903 0.209143 6.86725e-09)
(0.557818 0.200531 1.1027e-09)
(0.593038 0.21032 -2.79079e-09)
(0.540423 0.221916 -2.84776e-09)
(0.452486 0.236512 -2.59252e-09)
(0.367266 0.251834 -2.25315e-09)
(0.295552 0.268453 -2.21158e-09)
(0.220844 0.285566 -2.24321e-09)
(0.132642 0.301365 -2.32537e-09)
(0.0542441 0.311152 -2.31759e-09)
(3 1.24373e-07 -3.68014e-13)
(2.99999 6.78857e-07 -1.98154e-12)
(2.99997 2.52456e-06 -4.28589e-12)
(2.99991 6.45813e-06 -8.90592e-12)
(2.9998 1.78754e-05 -1.63188e-11)
(2.99949 4.06745e-05 -3.0143e-11)
(2.99887 0.000108962 -6.22956e-11)
(2.99702 0.000230469 -1.14079e-10)
(2.99356 0.000702223 -3.37832e-10)
(2.98182 0.00123166 -3.53356e-10)
(2.96047 0.0049625 -2.43446e-09)
(2.88213 0.00931273 -2.96858e-09)
(2.67884 0.0367241 -1.38307e-08)
(2.15392 0.0887906 -2.8557e-08)
(1.02596 0.269203 -5.06151e-08)
(0.46669 0.257788 5.96683e-09)
(0.577156 0.249887 1.08692e-09)
(0.616401 0.259408 -2.7524e-09)
(0.564044 0.272057 -2.87572e-09)
(0.476992 0.29023 -2.74995e-09)
(0.391375 0.310182 -2.30155e-09)
(0.318389 0.332203 -2.1683e-09)
(0.241178 0.355711 -2.04494e-09)
(0.147663 0.378483 -1.93965e-09)
(0.0609787 0.393202 -1.77559e-09)
(3 1.436e-07 -3.66531e-13)
(2.99999 7.8027e-07 -1.97207e-12)
(2.99997 2.90758e-06 -4.26784e-12)
(2.99992 7.45643e-06 -8.85459e-12)
(2.99982 2.06066e-05 -1.62667e-11)
(2.99953 4.71801e-05 -2.99843e-11)
(2.99896 0.000123902 -6.21523e-11)
(2.99729 0.000274825 -1.16258e-10)
(2.99406 0.000745417 -3.03737e-10)
(2.98361 0.00153649 -5.445e-10)
(2.96406 0.00490103 -1.93721e-09)
(2.89488 0.00979505 -2.96016e-09)
(2.71751 0.0353788 -1.22924e-08)
(2.25484 0.0865075 -2.65989e-08)
(1.11877 0.265671 -5.2997e-08)
(0.51142 0.296795 2.34556e-09)
(0.610983 0.301679 -2.76937e-10)
(0.649303 0.309834 -2.92699e-09)
(0.597412 0.322917 -2.92343e-09)
(0.512025 0.345181 -2.67508e-09)
(0.42563 0.370705 -2.24714e-09)
(0.350753 0.399332 -2.06792e-09)
(0.270627 0.431098 -1.8886e-09)
(0.170906 0.46407 -1.64253e-09)
(0.0727483 0.488777 -1.31797e-09)
(3 1.50732e-07 -3.57216e-13)
(2.99999 8.21497e-07 -1.92949e-12)
(2.99997 3.04965e-06 -4.12925e-12)
(2.99993 7.81015e-06 -8.55483e-12)
(2.99984 2.14756e-05 -1.53549e-11)
(2.99958 4.902e-05 -2.81251e-11)
(2.99906 0.000127741 -5.61616e-11)
(2.99754 0.000283254 -1.0519e-10)
(2.99461 0.000745084 -2.55718e-10)
(2.98524 0.00162283 -4.96896e-10)
(2.96748 0.00454027 -1.3202e-09)
(2.90602 0.010041 -2.99872e-09)
(2.75005 0.0311524 -7.40572e-09)
(2.33583 0.0771504 -1.7135e-08)
(1.21516 0.229489 -2.87229e-08)
(0.559375 0.333277 -9.19225e-09)
(0.634905 0.362541 -5.20815e-09)
(0.672339 0.362126 -3.24891e-09)
(0.629064 0.374129 -3.22721e-09)
(0.55135 0.400639 -3.03039e-09)
(0.467464 0.433033 -2.64454e-09)
(0.392763 0.46995 -2.2102e-09)
(0.311581 0.512572 -1.89e-09)
(0.206596 0.561091 -1.49076e-09)
(0.0929053 0.606799 -9.96186e-10)
(3 1.79751e-07 -3.5096e-13)
(2.99999 9.82414e-07 -1.89848e-12)
(2.99998 3.65995e-06 -4.03957e-12)
(2.99993 9.39883e-06 -8.35425e-12)
(2.99985 2.59977e-05 -1.48455e-11)
(2.99962 6.00493e-05 -2.70662e-11)
(2.99916 0.000154144 -5.35827e-11)
(2.9978 0.000363173 -1.00391e-10)
(2.99518 0.000840394 -2.39875e-10)
(2.98675 0.00215856 -4.92334e-10)
(2.97118 0.00456993 -1.08644e-09)
(2.9159 0.0117679 -3.28941e-09)
(2.77812 0.0292839 -5.77691e-09)
(2.40468 0.0739398 -1.53545e-08)
(1.33187 0.211678 -2.69553e-08)
(0.629376 0.382624 -2.1684e-08)
(0.646983 0.415893 -1.14452e-08)
(0.674437 0.41135 -4.91585e-10)
(0.652187 0.42551 -2.41552e-09)
(0.589754 0.454268 -2.75185e-09)
(0.51394 0.495091 -2.96229e-09)
(0.443736 0.542317 -2.32642e-09)
(0.366583 0.598563 -2.02566e-09)
(0.263502 0.67179 -1.44468e-09)
(0.130644 0.762289 -8.2504e-10)
(3 2.6095e-07 -3.4601e-13)
(2.99999 5.37534e-07 -1.85522e-12)
(2.99998 3.89652e-06 -3.89084e-12)
(2.99995 5.91927e-06 -8.21508e-12)
(2.99988 2.69851e-05 -1.36584e-11)
(2.99968 3.80325e-05 -2.52262e-11)
(2.99931 0.000162119 -4.65111e-11)
(2.99811 0.00021265 -8.68428e-11)
(2.99611 0.000984863 -1.94842e-10)
(2.98833 0.000995272 -3.74251e-10)
(2.9756 0.00654248 -1.01198e-09)
(2.92572 0.00424793 -2.13385e-09)
(2.8049 0.042041 -4.82256e-09)
(2.47287 0.0545891 -1.55438e-08)
(1.47945 0.224899 -2.43473e-08)
(0.725775 0.437823 -2.71169e-08)
(0.655818 0.452465 -4.43349e-09)
(0.680264 0.451296 -1.29887e-09)
(0.673565 0.471424 -2.15812e-09)
(0.627571 0.503488 -2.45942e-09)
(0.565652 0.552692 -2.71402e-09)
(0.504603 0.611108 -2.46638e-09)
(0.44142 0.687603 -2.05643e-09)
(0.358553 0.804488 -1.48942e-09)
(0.202179 1.01145 -7.92137e-10)
(3 1.53309e-08 -3.64277e-14)
(2.99998 8.28366e-08 -1.60704e-13)
(2.99996 3.10506e-07 -5.46155e-13)
(2.99989 7.96815e-07 -1.18189e-12)
(2.99976 2.22009e-06 -3.48528e-12)
(2.99938 5.13241e-06 -7.19205e-12)
(2.99864 1.33545e-05 -2.08135e-11)
(2.9963 3.10118e-05 -4.3361e-11)
(2.99227 7.70686e-05 -1.23862e-10)
(2.97677 0.000176887 -2.49298e-10)
(2.94987 0.00048099 -7.95555e-10)
(2.84568 0.00112613 -1.67597e-09)
(2.5669 0.00310728 -4.52712e-09)
(1.88706 0.00821314 -1.22006e-08)
(0.844628 0.0234377 -1.75361e-08)
(0.46269 0.0226301 1.16311e-09)
(0.542933 0.0235801 -3.89793e-10)
(0.565951 0.0257086 -1.3099e-09)
(0.513809 0.0277297 -1.25792e-09)
(0.424148 0.0296559 -1.04122e-09)
(0.337942 0.032012 -8.06617e-10)
(0.268253 0.0348673 -6.57676e-10)
(0.1988 0.0379316 -5.85811e-10)
(0.119466 0.0415584 -5.50484e-10)
(0.0524511 0.0468226 -5.3137e-10)
(3 4.19254e-08 -3.62625e-14)
(2.99998 2.2755e-07 -1.58728e-13)
(2.99996 8.49674e-07 -5.45763e-13)
(2.9999 2.17636e-06 -1.18276e-12)
(2.99977 6.04767e-06 -3.51165e-12)
(2.99939 1.38412e-05 -7.2857e-12)
(2.99866 3.67144e-05 -2.0968e-11)
(2.99635 8.1307e-05 -4.43588e-11)
(2.9924 0.000222182 -1.24199e-10)
(2.9771 0.00047371 -2.54343e-10)
(2.95068 0.00142375 -8.07241e-10)
(2.8477 0.00315068 -1.70213e-09)
(2.57342 0.0104858 -4.61419e-09)
(1.90193 0.0261326 -1.23968e-08)
(0.851183 0.073228 -1.79515e-08)
(0.456438 0.0667742 1.31909e-09)
(0.540191 0.0660235 -2.52726e-10)
(0.564455 0.0696583 -1.26407e-09)
(0.512094 0.0730305 -1.23178e-09)
(0.422529 0.0762255 -1.03259e-09)
(0.336594 0.0801058 -7.79433e-10)
(0.266619 0.0845775 -6.28081e-10)
(0.196344 0.0887782 -5.59318e-10)
(0.115898 0.0929576 -5.24102e-10)
(0.0487244 0.0973239 -5.02179e-10)
(3 6.51401e-08 -3.10777e-14)
(2.99998 3.54197e-07 -1.37972e-13)
(2.99996 1.3215e-06 -4.65693e-13)
(2.9999 3.38244e-06 -1.00589e-12)
(2.99977 9.40597e-06 -2.96433e-12)
(2.9994 2.14212e-05 -5.9844e-12)
(2.9987 5.76526e-05 -1.83514e-11)
(2.99645 0.000124175 -3.33928e-11)
(2.9926 0.000360791 -1.23876e-10)
(2.97776 0.000735889 -1.93645e-10)
(2.95216 0.00236395 -8.23616e-10)
(2.85259 0.00503645 -1.40601e-09)
(2.58839 0.01874 -5.77832e-09)
(1.93677 0.045278 -1.24302e-08)
(0.872831 0.127839 -1.90753e-08)
(0.45291 0.114104 1.69999e-09)
(0.542172 0.110872 8.56576e-12)
(0.568599 0.11694 -1.20108e-09)
(0.51587 0.123159 -1.20317e-09)
(0.426603 0.129778 -1.03608e-09)
(0.341069 0.137096 -7.55086e-10)
(0.27064 0.145131 -5.9563e-10)
(0.199228 0.152964 -5.27963e-10)
(0.117268 0.160205 -4.92918e-10)
(0.0482703 0.165732 -4.64887e-10)
(3 8.32999e-08 -3.01852e-14)
(2.99998 4.54664e-07 -1.3336e-13)
(2.99996 1.69216e-06 -4.53285e-13)
(2.9999 4.32292e-06 -9.78107e-13)
(2.99978 1.20163e-05 -2.9167e-12)
(2.99943 2.72025e-05 -5.91494e-12)
(2.99875 7.43243e-05 -1.82568e-11)
(2.9966 0.000153656 -3.4047e-11)
(2.99291 0.000485475 -1.23599e-10)
(2.97874 0.000901011 -2.001e-10)
(2.95436 0.00335676 -8.41029e-10)
(2.86017 0.00676171 -1.4387e-09)
(2.61135 0.0264094 -5.89838e-09)
(1.99076 0.063326 -1.2738e-08)
(0.907075 0.181344 -2.03151e-08)
(0.449156 0.161347 2.02165e-09)
(0.547173 0.155302 1.87467e-10)
(0.577604 0.163726 -1.18318e-09)
(0.524894 0.17295 -1.20339e-09)
(0.436241 0.183555 -1.05947e-09)
(0.351063 0.194696 -7.57249e-10)
(0.280194 0.2067 -5.85287e-10)
(0.207445 0.21875 -5.11203e-10)
(0.122928 0.229791 -4.7166e-10)
(0.0500819 0.237045 -4.36331e-10)
(3 9.91577e-08 -2.41279e-14)
(2.99999 5.44283e-07 -1.09876e-13)
(2.99996 2.01666e-06 -3.62621e-13)
(2.99991 5.13967e-06 -7.66233e-13)
(2.99979 1.42262e-05 -2.27514e-12)
(2.99946 3.2026e-05 -4.36439e-12)
(2.9988 8.79087e-05 -1.49343e-11)
(2.99679 0.000174691 -1.83014e-11)
(2.99323 0.00059634 -1.29779e-10)
(2.98011 0.000951119 -5.95889e-11)
(2.95717 0.00434509 -1.08321e-09)
(2.87019 0.00810524 -1.10864e-09)
(2.64209 0.0329177 -6.32161e-09)
(2.06395 0.0787333 -1.29078e-08)
(0.956959 0.230449 -2.19627e-08)
(0.450903 0.209143 2.14181e-09)
(0.557818 0.200531 3.4189e-10)
(0.593038 0.21032 -1.177e-09)
(0.540423 0.221916 -1.22382e-09)
(0.452486 0.236512 -1.10596e-09)
(0.367266 0.251834 -7.83842e-10)
(0.295552 0.268453 -6.01201e-10)
(0.220844 0.285566 -5.15616e-10)
(0.132642 0.301365 -4.65564e-10)
(0.0542441 0.311152 -4.18703e-10)
(3 1.24373e-07 -2.90648e-14)
(2.99999 6.78857e-07 -1.28567e-13)
(2.99997 2.52456e-06 -4.3423e-13)
(2.99991 6.45814e-06 -9.4303e-13)
(2.9998 1.78754e-05 -2.76014e-12)
(2.99949 4.06745e-05 -5.68329e-12)
(2.99887 0.000108962 -1.67953e-11)
(2.99702 0.000230469 -3.24051e-11)
(2.99356 0.000702223 -1.21533e-10)
(2.98182 0.00123166 -1.06965e-10)