/*--------------------------------*- C++ -*----------------------------------*\
| =========                 |                                                 |
| \\      /  F ield         | OpenFOAM: The Open Source CFD Toolbox           |
|  \\    /   O peration     | Version:  4.1                                   |
|   \\  /    A nd           | Web:      www.OpenFOAM.org                      |
|    \\/     M anipulation  |                                                 |
\*---------------------------------------------------------------------------*/
FoamFile
{
    version     2.0;
    format      ascii;
    class       volScalarField;
    location    "4.18";
    object      p;
}
// * * * * * * * * * * * * * * * * * * * * * * * * * * * * * * * * * * * * * //

dimensions      [1 -1 -2 0 0 0 0];

internalField   nonuniform List<scalar> 
52500
(
1.00001
1.00003
1.0001
1.00022
1.00064
1.00132
1.00379
1.00744
1.02302
1.04105
1.14976
1.26289
2.01895
3.37408
8.12032
11.5762
11.2137
10.974
11.0519
11.2761
11.5125
11.6582
11.7673
11.8537
11.9203
1.00001
1.00003
1.0001
1.00022
1.00064
1.0013
1.00373
1.00734
1.0227
1.04049
1.14762
1.25891
2.00299
3.33523
8.01698
11.5844
11.2105
10.9631
11.0422
11.2676
11.5038
11.6495
11.7602
11.848
11.9163
1.00001
1.00003
1.0001
1.00021
1.00062
1.00127
1.00363
1.00716
1.02204
1.03942
1.14318
1.25112
1.96745
3.25197
7.78392
11.601
11.2004
10.9312
11.0095
11.2334
11.4668
11.61
11.7201
11.8071
11.8753
1.00001
1.00003
1.00009
1.0002
1.00059
1.00122
1.00348
1.00687
1.02106
1.0378
1.13647
1.23942
1.91398
3.1263
7.42319
11.6288
11.1867
10.8794
10.9542
11.1726
11.4016
11.5399
11.6462
11.7309
11.7998
1.00001
1.00003
1.00009
1.0002
1.00057
1.00116
1.00331
1.00663
1.01973
1.03677
1.1258
1.22683
1.84057
2.96235
6.93615
11.6585
11.171
10.8099
10.8787
11.087
11.3105
11.4418
11.5425
11.6235
11.6936
1.00001
1.00002
1.00008
1.00018
1.00053
1.00109
1.00309
1.00625
1.01816
1.03526
1.11335
1.21162
1.75559
2.7703
6.34412
11.6625
11.1481
10.7253
10.7843
10.9755
11.1899
11.3099
11.3996
11.4729
11.5445
1
1.00002
1.00008
1.00017
1.00049
1.001
1.00283
1.00573
1.01653
1.0325
1.10152
1.19401
1.66771
2.56468
5.67693
11.5793
11.0882
10.6238
10.6706
10.8359
11.034
11.137
11.2083
11.2639
11.329
1
1.00002
1.00007
1.00015
1.00044
1.00091
1.00257
1.0052
1.015
1.02955
1.0917
1.17595
1.59928
2.40167
5.2313
11.2141
10.9196
10.5096
10.5376
10.6614
10.8341
10.9112
10.9507
10.9697
11.0085
1
1.00002
1.00006
1.00013
1.00039
1.00081
1.00229
1.00464
1.01341
1.02628
1.08271
1.15397
1.5396
2.24041
4.79901
10.5409
10.6128
10.4322
10.3961
10.4587
10.5871
10.6241
10.6116
10.5533
10.494
1
1.00001
1.00005
1.00011
1.00033
1.00067
1.00193
1.00375
1.01174
1.02049
1.07515
1.12638
1.48633
2.07245
4.35888
9.69371
10.4523
10.3334
10.2219
10.2439
10.2957
10.2757
10.1805
9.95339
9.59262
1.00001
1.00003
1.00011
1.00023
1.00065
1.00133
1.00379
1.00745
1.02303
1.04107
1.14978
1.26295
2.01903
3.37437
8.12092
11.576
11.2137
10.9741
11.052
11.2761
11.5126
11.6583
11.7674
11.8538
11.9204
1.00001
1.00003
1.0001
1.00022
1.00064
1.00131
1.00374
1.00735
1.02271
1.04051
1.14765
1.25897
2.00307
3.33552
8.01758
11.5843
11.2105
10.9632
11.0422
11.2676
11.5039
11.6496
11.7603
11.8481
11.9163
1.00001
1.00003
1.0001
1.00022
1.00062
1.00128
1.00364
1.00717
1.02205
1.03944
1.1432
1.25118
1.96753
3.25225
7.78452
11.6009
11.2004
10.9313
11.0096
11.2334
11.4669
11.6101
11.7202
11.8072
11.8753
1.00001
1.00003
1.0001
1.00021
1.0006
1.00122
1.00349
1.00688
1.02107
1.03781
1.13649
1.23947
1.91405
3.12657
7.42379
11.6286
11.1867
10.8794
10.9543
11.1727
11.4017
11.5399
11.6463
11.731
11.7999
1.00001
1.00003
1.00009
1.0002
1.00057
1.00117
1.00332
1.00664
1.01974
1.0368
1.1258
1.22691
1.84059
2.96259
6.93669
11.6584
11.1711
10.81
10.8787
11.0871
11.3105
11.4419
11.5426
11.6236
11.6936
1.00001
1.00003
1.00009
1.00019
1.00054
1.0011
1.0031
1.00626
1.01817
1.03528
1.11337
1.21168
1.75564
2.77051
6.34462
11.6624
11.1481
10.7254
10.7843
10.9756
11.1899
11.3099
11.3997
11.473
11.5445
1.00001
1.00002
1.00008
1.00017
1.00049
1.00101
1.00284
1.00573
1.01654
1.03252
1.10154
1.19406
1.66776
2.56488
5.67741
11.5793
11.0882
10.6239
10.6707
10.8359
11.0341
11.1371
11.2084
11.2639
11.3291
1
1.00002
1.00007
1.00016
1.00045
1.00091
1.00258
1.00521
1.01501
1.02957
1.09172
1.17599
1.59931
2.40181
5.23155
11.2143
10.9197
10.5097
10.5377
10.6614
10.8342
10.9112
10.9507
10.9697
11.0086
1
1.00002
1.00006
1.00014
1.0004
1.00081
1.0023
1.00465
1.01342
1.02629
1.08272
1.15401
1.53962
2.24054
4.7992
10.5412
10.6129
10.4323
10.3961
10.4588
10.5872
10.6242
10.6116
10.5534
10.494
1
1.00002
1.00005
1.00012
1.00033
1.00068
1.00193
1.00376
1.01175
1.0205
1.07516
1.12641
1.48635
2.07258
4.35903
9.69406
10.4523
10.3334
10.222
10.2439
10.2957
10.2758
10.1806
9.95344
9.59266
1.00001
1.00003
1.00011
1.00023
1.00065
1.00133
1.00379
1.00745
1.02303
1.04107
1.14978
1.26295
2.01903
3.37438
8.12095
11.576
11.2137
10.9741
11.052
11.2762
11.5126
11.6583
11.7674
11.8538
11.9204
1.00001
1.00003
1.0001
1.00022
1.00064
1.00131
1.00374
1.00735
1.02271
1.04051
1.14765
1.25897
2.00307
3.33553
8.01761
11.5842
11.2105
10.9632
11.0422
11.2676
11.5039
11.6496
11.7603
11.8481
11.9163
1.00001
1.00003
1.0001
1.00022
1.00062
1.00128
1.00364
1.00717
1.02205
1.03944
1.1432
1.25118
1.96753
3.25226
7.78455
11.6009
11.2004
10.9313
11.0096
11.2334
11.4669
11.6101
11.7202
11.8072
11.8754
1.00001
1.00003
1.0001
1.00021
1.0006
1.00122
1.00349
1.00688
1.02107
1.03782
1.13649
1.23947
1.91406
3.12658
7.42382
11.6286
11.1867
10.8794
10.9543
11.1727
11.4017
11.5399
11.6463
11.731
11.7999
1.00001
1.00003
1.00009
1.0002
1.00057
1.00117
1.00332
1.00664
1.01974
1.0368
1.1258
1.22691
1.8406
2.9626
6.93673
11.6584
11.171
10.81
10.8787
11.0871
11.3105
11.4419
11.5426
11.6236
11.6936
1.00001
1.00003
1.00009
1.00019
1.00054
1.0011
1.0031
1.00626
1.01817
1.03528
1.11337
1.21168
1.75565
2.77053
6.34466
11.6624
11.1481
10.7254
10.7843
10.9756
11.1899
11.31
11.3997
11.473
11.5446
1.00001
1.00002
1.00008
1.00017
1.00049
1.00101
1.00284
1.00573
1.01654
1.03252
1.10154
1.19406
1.66777
2.56489
5.67745
11.5793
11.0882
10.6239
10.6707
10.8359
11.0341
11.1371
11.2084
11.2639
11.3291
1
1.00002
1.00007
1.00016
1.00045
1.00091
1.00258
1.00521
1.01501
1.02957
1.09172
1.176
1.59931
2.40182
5.23157
11.2143
10.9197
10.5097
10.5377
10.6614
10.8342
10.9113
10.9507
10.9697
11.0086
1
1.00002
1.00006
1.00014
1.0004
1.00081
1.0023
1.00465
1.01342
1.02629
1.08272
1.15401
1.53962
2.24054
4.79921
10.5412
10.6129
10.4323
10.3962
10.4588
10.5872
10.6242
10.6116
10.5534
10.494
1
1.00002
1.00005
1.00012
1.00033
1.00068
1.00193
1.00376
1.01175
1.0205
1.07516
1.12641
1.48635
2.07258
4.35904
9.69409
10.4523
10.3334
10.222
10.2439
10.2957
10.2758
10.1806
9.95344
9.59266
1.00001
1.00003
1.00011
1.00023
1.00065
1.00133
1.00379
1.00745
1.02303
1.04107
1.14978
1.26295
2.01903
3.37438
8.12096
11.576
11.2137
10.9741
11.052
11.2762
11.5126
11.6583
11.7674
11.8538
11.9204
1.00001
1.00003
1.0001
1.00022
1.00064
1.00131
1.00374
1.00735
1.02271
1.04051
1.14765
1.25897
2.00307
3.33553
8.01762
11.5842
11.2105
10.9632
11.0422
11.2676
11.5039
11.6496
11.7603
11.8481
11.9163
1.00001
1.00003
1.0001
1.00022
1.00062
1.00128
1.00364
1.00717
1.02205
1.03944
1.1432
1.25118
1.96753
3.25226
7.78456
11.6009
11.2004
10.9313
11.0096
11.2334
11.4669
11.6101
11.7202
11.8072
11.8754
1.00001
1.00003
1.0001
1.00021
1.0006
1.00122
1.00349
1.00688
1.02107
1.03782
1.13649
1.23947
1.91406
3.12658
7.42382
11.6286
11.1867
10.8794
10.9543
11.1727
11.4017
11.5399
11.6463
11.731
11.7999
1.00001
1.00003
1.00009
1.0002
1.00057
1.00117
1.00332
1.00664
1.01974
1.0368
1.1258
1.22691
1.8406
2.9626
6.93673
11.6584
11.171
10.81
10.8787
11.0871
11.3105
11.4419
11.5426
11.6236
11.6936
1.00001
1.00003
1.00009
1.00019
1.00054
1.0011
1.0031
1.00626
1.01817
1.03528
1.11337
1.21168
1.75565
2.77053
6.34466
11.6624
11.1481
10.7254
10.7843
10.9756
11.1899
11.31
11.3997
11.473
11.5446
1.00001
1.00002
1.00008
1.00017
1.00049
1.00101
1.00284
1.00573
1.01654
1.03252
1.10154
1.19406
1.66777
2.56489
5.67745
11.5793
11.0882
10.6239
10.6707
10.8359
11.0341
11.1371
11.2084
11.2639
11.3291
1
1.00002
1.00007
1.00016
1.00045
1.00091
1.00258
1.00521
1.01501
1.02957
1.09172
1.176
1.59931
2.40182
5.23157
11.2143
10.9197
10.5097
10.5377
10.6614
10.8342
10.9113
10.9507
10.9697
11.0086
1
1.00002
1.00006
1.00014
1.0004
1.00081
1.0023
1.00465
1.01342
1.02629
1.08272
1.15401
1.53962
2.24054
4.79921
10.5412
10.6129
10.4323
10.3962
10.4588
10.5872
10.6242
10.6116
10.5534
10.494
1
1.00002
1.00005
1.00012
1.00033
1.00068
1.00193
1.00376
1.01175
1.0205
1.07516
1.12641
1.48635
2.07258
4.35904
9.69409
10.4523
10.3334
10.222
10.2439
10.2957
10.2758
10.1806
9.95344
9.59266
1.00001
1.00003
1.00011
1.00023
1.00065
1.00133
1.00379
1.00745
1.02303
1.04107
1.14978
1.26295
2.01903
3.37438
8.12096
11.576
11.2137
10.9741
11.052
11.2762
11.5126
11.6583
11.7674
11.8538
11.9204
1.00001
1.00003
1.0001
1.00022
1.00064
1.00131
1.00374
1.00735
1.02271
1.04051
1.14765
1.25897
2.00307
3.33553
8.01762
11.5842
11.2105
10.9632
11.0422
11.2676
11.5039
11.6496
11.7603
11.8481
11.9163
1.00001
1.00003
1.0001
1.00022
1.00062
1.00128
1.00364
1.00717
1.02205
1.03944
1.1432
1.25118
1.96753
3.25226
7.78456
11.6009
11.2004
10.9313
11.0096
11.2334
11.4669
11.6101
11.7202
11.8072
11.8754
1.00001
1.00003
1.0001
1.00021
1.0006
1.00122
1.00349
1.00688
1.02107
1.03782
1.13649
1.23947
1.91406
3.12658
7.42382
11.6286
11.1867
10.8794
10.9543
11.1727
11.4017
11.5399
11.6463
11.731
11.7999
1.00001
1.00003
1.00009
1.0002
1.00057
1.00117
1.00332
1.00664
1.01974
1.0368
1.1258
1.22691
1.8406
2.9626
6.93673
11.6584
11.171
10.81
10.8787
11.0871
11.3105
11.4419
11.5426
11.6236
11.6936
1.00001
1.00003
1.00009
1.00019
1.00054
1.0011
1.0031
1.00626
1.01817
1.03528
1.11337
1.21168
1.75565
2.77053
6.34466
11.6624
11.1481
10.7254
10.7843
10.9756
11.1899
11.31
11.3997
11.473
11.5445
1.00001
1.00002
1.00008
1.00017
1.00049
1.00101
1.00284
1.00573
1.01654
1.03252
1.10154
1.19406
1.66777
2.56489
5.67745
11.5793
11.0882
10.6239
10.6707
10.8359
11.0341
11.1371
11.2084
11.2639
11.3291
1
1.00002
1.00007
1.00016
1.00045
1.00091
1.00258
1.00521
1.01501
1.02957
1.09172
1.176
1.59931
2.40182
5.23157
11.2143
10.9197
10.5097
10.5377
10.6614
10.8342
10.9113
10.9507
10.9697
11.0086
1
1.00002
1.00006
1.00014
1.0004
1.00081
1.0023
1.00465
1.01342
1.02629
1.08272
1.15401
1.53962
2.24054
4.79921
10.5412
10.6129
10.4323
10.3962
10.4588
10.5872
10.6242
10.6116
10.5534
10.494
1
1.00002
1.00005
1.00012
1.00033
1.00068
1.00193
1.00376
1.01175
1.0205
1.07516
1.12641
1.48635
2.07258
4.35904
9.69409
10.4523
10.3334
10.222
10.2439
10.2957
10.2758
10.1806
9.95344
9.59266
1.00001
1.00003
1.00011
1.00023
1.00065
1.00133
1.00379
1.00745
1.02303
1.04107
1.14978
1.26295
2.01903
3.37438
8.12096
11.576
11.2137
10.9741
11.052
11.2762
11.5126
11.6583
11.7674
11.8538
11.9204
1.00001
1.00003
1.0001
1.00022
1.00064
1.00131
1.00374
1.00735
1.02271
1.04051
1.14765
1.25897
2.00307
3.33553
8.01762
11.5842
11.2105
10.9632
11.0422
11.2676
11.5039
11.6496
11.7603
11.8481
11.9163
1.00001
1.00003
1.0001
1.00022
1.00062
1.00128
1.00364
1.00717
1.02205
1.03944
1.1432
1.25118
1.96753
3.25226
7.78456
11.6009
11.2004
10.9313
11.0096
11.2334
11.4669
11.6101
11.7202
11.8072
11.8754
1.00001
1.00003
1.0001
1.00021
1.0006
1.00122
1.00349
1.00688
1.02107
1.03782
1.13649
1.23947
1.91406
3.12658
7.42382
11.6286
11.1867
10.8794
10.9543
11.1727
11.4017
11.5399
11.6463
11.731
11.7999
1.00001
1.00003
1.00009
1.0002
1.00057
1.00117
1.00332
1.00664
1.01974
1.0368
1.1258
1.22691
1.8406
2.9626
6.93673
11.6584
11.171
10.81
10.8787
11.0871
11.3105
11.4419
11.5426
11.6236
11.6936
1.00001
1.00003
1.00009
1.00019
1.00054
1.0011
1.0031
1.00626
1.01817
1.03528
1.11337
1.21168
1.75565
2.77053
6.34466
11.6624
11.1481
10.7254
10.7843
10.9756
11.1899
11.31
11.3997
11.473
11.5445
1.00001
1.00002
1.00008
1.00017
1.00049
1.00101
1.00284
1.00573
1.01654
1.03252
1.10154
1.19406
1.66777
2.56489
5.67745
11.5793
11.0882
10.6239
10.6707
10.8359
11.0341
11.1371
11.2084
11.2639
11.3291
1
1.00002
1.00007
1.00016
1.00045
1.00091
1.00258
1.00521
1.01501
1.02957
1.09172
1.176
1.59931
2.40182
5.23157
11.2143
10.9197
10.5097
10.5377
10.6614
10.8342
10.9113
10.9507
10.9697
11.0086
1
1.00002
1.00006
1.00014
1.0004
1.00081
1.0023
1.00465
1.01342
1.02629
1.08272
1.15401
1.53962
2.24054
4.79921
10.5412
10.6129
10.4323
10.3962
10.4588
10.5872
10.6242
10.6116
10.5534
10.494
1
1.00002
1.00005
1.00012
1.00033
1.00068
1.00193
1.00376
1.01175
1.0205
1.07516
1.12641
1.48635
2.07258
4.35904
9.69409
10.4523
10.3334
10.222
10.2439
10.2957
10.2758
10.1806
9.95344
9.59266
1.00001
1.00003
1.00011
1.00023
1.00065
1.00133
1.00379
1.00745
1.02303
1.04107
1.14978
1.26295
2.01903
3.37438
8.12096
11.576
11.2137
10.9741
11.052
11.2762
11.5126
11.6583
11.7674
11.8538
11.9204
1.00001
1.00003
1.0001
1.00022
1.00064
1.00131
1.00374
1.00735
1.02271
1.04051
1.14765
1.25897
2.00307
3.33553
8.01762
11.5842
11.2105
10.9632
11.0422
11.2676
11.5039
11.6496
11.7603
11.8481
11.9163
1.00001
1.00003
1.0001
1.00022
1.00062
1.00128
1.00364
1.00717
1.02205
1.03944
1.1432
1.25118
1.96753
3.25226
7.78456
11.6009
11.2004
10.9313
11.0096
11.2334
11.4669
11.6101
11.7202
11.8072
11.8754
1.00001
1.00003
1.0001
1.00021
1.0006
1.00122
1.00349
1.00688
1.02107
1.03782
1.13649
1.23947
1.91406
3.12658
7.42382
11.6286
11.1867
10.8794
10.9543
11.1727
11.4017
11.5399
11.6463
11.731
11.7999
1.00001
1.00003
1.00009
1.0002
1.00057
1.00117
1.00332
1.00664
1.01974
1.0368
1.1258
1.22691
1.8406
2.9626
6.93673
11.6584
11.171
10.81
10.8787
11.0871
11.3105
11.4419
11.5426
11.6236
11.6936
1.00001
1.00003
1.00009
1.00019
1.00054
1.0011
1.0031
1.00626
1.01817
1.03528
1.11337
1.21168
1.75565
2.77053
6.34466
11.6624
11.1481
10.7254
10.7843
10.9756
11.1899
11.31
11.3997
11.473
11.5446
1.00001
1.00002
1.00008
1.00017
1.00049
1.00101
1.00284
1.00573
1.01654
1.03252
1.10154
1.19406
1.66777
2.56489
5.67745
11.5793
11.0882
10.6239
10.6707
10.8359
11.0341
11.1371
11.2084
11.2639
11.3291
1
1.00002
1.00007
1.00016
1.00045
1.00091
1.00258
1.00521
1.01501
1.02957
1.09172
1.176
1.59931
2.40182
5.23157
11.2143
10.9197
10.5097
10.5377
10.6614
10.8342
10.9113
10.9507
10.9697
11.0086
1
1.00002
1.00006
1.00014
1.0004
1.00081
1.0023
1.00465
1.01342
1.02629
1.08272
1.15401
1.53962
2.24054
4.79921
10.5412
10.6129
10.4323
10.3962
10.4588
10.5872
10.6242
10.6116
10.5534
10.494
1
1.00002
1.00005
1.00012
1.00033
1.00068
1.00193
1.00376
1.01175
1.0205
1.07516
1.12641
1.48635
2.07258
4.35904
9.69409
10.4523
10.3334
10.222
10.2439
10.2957
10.2758
10.1806
9.95344
9.59266
1.00001
1.00003
1.00011
1.00023
1.00065
1.00133
1.00379
1.00745
1.02303
1.04107
1.14978
1.26295
2.01903
3.37438
8.12095
11.576
11.2137
10.9741
11.052
11.2762
11.5126
11.6583
11.7674
11.8538
11.9204
1.00001
1.00003
1.0001
1.00022
1.00064
1.00131
1.00374
1.00735
1.02271
1.04051
1.14765
1.25897
2.00307
3.33553
8.01761
11.5842
11.2105
10.9632
11.0422
11.2676
11.5039
11.6496
11.7603
11.8481
11.9163
1.00001
1.00003
1.0001
1.00022
1.00062
1.00128
1.00364
1.00717
1.02205
1.03944
1.1432
1.25118
1.96753
3.25226
7.78455
11.6009
11.2004
10.9313
11.0096
11.2334
11.4669
11.6101
11.7202
11.8072
11.8754
1.00001
1.00003
1.0001
1.00021
1.0006
1.00122
1.00349
1.00688
1.02107
1.03782
1.13649
1.23947
1.91406
3.12658
7.42382
11.6286
11.1867
10.8794
10.9543
11.1727
11.4017
11.5399
11.6463
11.731
11.7999
1.00001
1.00003
1.00009
1.0002
1.00057
1.00117
1.00332
1.00664
1.01974
1.0368
1.1258
1.22691
1.8406
2.9626
6.93673
11.6584
11.171
10.81
10.8787
11.0871
11.3105
11.4419
11.5426
11.6236
11.6936
1.00001
1.00003
1.00009
1.00019
1.00054
1.0011
1.0031
1.00626
1.01817
1.03528
1.11337
1.21168
1.75565
2.77053
6.34466
11.6624
11.1481
10.7254
10.7843
10.9756
11.1899
11.31
11.3997
11.473
11.5446
1.00001
1.00002
1.00008
1.00017
1.00049
1.00101
1.00284
1.00573
1.01654
1.03252
1.10154
1.19406
1.66777
2.56489
5.67745
11.5793
11.0882
10.6239
10.6707
10.8359
11.0341
11.1371
11.2084
11.2639
11.3291
1
1.00002
1.00007
1.00016
1.00045
1.00091
1.00258
1.00521
1.01501
1.02957
1.09172
1.176
1.59931
2.40182
5.23157
11.2143
10.9197
10.5097
10.5377
10.6614
10.8342
10.9113
10.9507
10.9697
11.0086
1
1.00002
1.00006
1.00014
1.0004
1.00081
1.0023
1.00465
1.01342
1.02629
1.08272
1.15401
1.53962
2.24054
4.79921
10.5412
10.6129
10.4323
10.3962
10.4588
10.5872
10.6242
10.6116
10.5534
10.494
1
1.00002
1.00005
1.00012
1.00033
1.00068
1.00193
1.00376
1.01175
1.0205
1.07516
1.12641
1.48635
2.07258
4.35904
9.69409
10.4523
10.3334
10.222
10.2439
10.2957
10.2758
10.1806
9.95344
9.59266
1.00001
1.00003
1.00011
1.00023
1.00065
1.00133
1.00379
1.00745
1.02303
1.04107
1.14978
1.26295
2.01903
3.37437
8.12092
11.576
11.2137
10.9741
11.052
11.2761
11.5126
11.6583
11.7674
11.8538
11.9204
1.00001
1.00003
1.0001
1.00022
1.00064
1.00131
1.00374
1.00735
1.02271
1.04051
1.14765
1.25897
2.00307
3.33552
8.01758
11.5843
11.2105
10.9632
11.0422
11.2676
11.5039
11.6496
11.7603
11.8481
11.9163
1.00001
1.00003
1.0001
1.00022
1.00062
1.00128
1.00364
1.00717
1.02205
1.03944
1.1432
1.25118
1.96753
3.25225
7.78452
11.6009
11.2004
10.9313
11.0096
11.2334
11.4669
11.6101
11.7202
11.8072
11.8753
1.00001
1.00003
1.0001
1.00021
1.0006
1.00122
1.00349
1.00688
1.02107
1.03781
1.13649
1.23947
1.91405
3.12657
7.42379
11.6286
11.1867
10.8794
10.9543
11.1727
11.4017
11.5399
11.6463
11.731
11.7999
1.00001
1.00003
1.00009
1.0002
1.00057
1.00117
1.00332
1.00664
1.01974
1.0368
1.1258
1.22691
1.84059
2.96259
6.93669
11.6584
11.1711
10.81
10.8787
11.0871
11.3105
11.4419
11.5426
11.6236
11.6936
1.00001
1.00003
1.00009
1.00019
1.00054
1.0011
1.0031
1.00626
1.01817
1.03528
1.11337
1.21168
1.75564
2.77051
6.34462
11.6624
11.1481
10.7254
10.7843
10.9756
11.1899
11.3099
11.3997
11.473
11.5445
1.00001
1.00002
1.00008
1.00017
1.00049
1.00101
1.00284
1.00573
1.01654
1.03252
1.10154
1.19406
1.66776
2.56488
5.67741
11.5793
11.0882
10.6239
10.6707
10.8359
11.0341
11.1371
11.2084
11.2639
11.3291
1
1.00002
1.00007
1.00016
1.00045
1.00091
1.00258
1.00521
1.01501
1.02957
1.09172
1.17599
1.59931
2.40181
5.23155
11.2143
10.9197
10.5097
10.5377
10.6614
10.8342
10.9112
10.9507
10.9697
11.0086
1
1.00002
1.00006
1.00014
1.0004
1.00081
1.0023
1.00465
1.01342
1.02629
1.08272
1.15401
1.53962
2.24054
4.7992
10.5412
10.6129
10.4323
10.3961
10.4588
10.5872
10.6242
10.6116
10.5534
10.494
1
1.00002
1.00005
1.00012
1.00033
1.00068
1.00193
1.00376
1.01175
1.0205
1.07516
1.12641
1.48635
2.07258
4.35903
9.69406
10.4523
10.3334
10.222
10.2439
10.2957
10.2758
10.1806
9.95344
9.59266
1.00001
1.00003
1.0001
1.00022
1.00064
1.00132
1.00379
1.00744
1.02302
1.04105
1.14976
1.26289
2.01895
3.37408
8.12033
11.5762
11.2137
10.974
11.0519
11.2761
11.5125
11.6582
11.7673
11.8537
11.9203
1.00001
1.00003
1.0001
1.00022
1.00064
1.0013
1.00373
1.00734
1.0227
1.04049
1.14762
1.25891
2.00299
3.33523
8.01698
11.5844
11.2105
10.9631
11.0422
11.2676
11.5038
11.6495
11.7602
11.848
11.9163
1.00001
1.00003
1.0001
1.00021
1.00062
1.00127
1.00363
1.00716
1.02204
1.03942
1.14318
1.25112
1.96745
3.25197
7.78392
11.601
11.2004
10.9312
11.0095
11.2334
11.4668
11.61
11.7201
11.8071
11.8753
1.00001
1.00003
1.00009
1.0002
1.00059
1.00122
1.00348
1.00687
1.02106
1.0378
1.13647
1.23942
1.91398
3.1263
7.42319
11.6288
11.1867
10.8794
10.9542
11.1726
11.4016
11.5399
11.6462
11.7309
11.7998
1.00001
1.00003
1.00009
1.0002
1.00057
1.00116
1.00331
1.00663
1.01973
1.03677
1.1258
1.22683
1.84057
2.96235
6.93615
11.6585
11.171
10.8099
10.8787
11.087
11.3105
11.4418
11.5425
11.6235
11.6936
1.00001
1.00002
1.00008
1.00018
1.00053
1.00109
1.00309
1.00625
1.01816
1.03526
1.11335
1.21162
1.75559
2.7703
6.34412
11.6625
11.1481
10.7253
10.7843
10.9755
11.1899
11.3099
11.3996
11.4729
11.5445
1
1.00002
1.00008
1.00017
1.00049
1.001
1.00283
1.00573
1.01653
1.0325
1.10152
1.19401
1.66771
2.56468
5.67693
11.5793
11.0882
10.6238
10.6706
10.8359
11.034
11.137
11.2083
11.2639
11.329
1
1.00002
1.00007
1.00015
1.00044
1.00091
1.00257
1.0052
1.015
1.02955
1.0917
1.17595
1.59928
2.40167
5.2313
11.2141
10.9196
10.5096
10.5376
10.6614
10.8341
10.9112
10.9507
10.9697
11.0085
1
1.00002
1.00006
1.00013
1.00039
1.00081
1.00229
1.00464
1.01341
1.02628
1.08271
1.15397
1.5396
2.24041
4.79901
10.5409
10.6128
10.4322
10.3961
10.4587
10.5871
10.6241
10.6116
10.5533
10.494
1
1.00001
1.00005
1.00011
1.00033
1.00067
1.00193
1.00375
1.01174
1.02049
1.07515
1.12638
1.48633
2.07245
4.35888
9.69371
10.4523
10.3334
10.2219
10.2439
10.2957
10.2757
10.1805
9.95339
9.59262
1
1.00001
1.00004
1.00012
1.00025
1.00072
1.00147
1.00424
1.00829
1.02592
1.04601
1.16746
1.30127
2.13297
3.69747
8.69719
10.3538
10.2455
10.0437
10.0096
9.98255
9.88458
9.62083
9.01026
7.47301
1
1.00001
1.00003
1.0001
1.00022
1.00063
1.00128
1.00365
1.00718
1.02209
1.03949
1.14291
1.25128
1.95983
3.22151
7.51798
10.2684
10.1493
9.88005
9.76388
9.6725
9.47511
9.05753
8.22445
6.62517
1
1.00001
1.00003
1.00009
1.00019
1.00054
1.00111
1.00314
1.00634
1.01847
1.03546
1.1159
1.21377
1.76825
2.78197
6.25169
10.1833
10.0546
9.73324
9.52075
9.36486
9.08614
8.57538
7.72018
6.41797
1
1.00001
1.00002
1.00007
1.00016
1.00045
1.00092
1.0026
1.00525
1.01507
1.0298
1.09101
1.17822
1.58571
2.36301
4.93549
9.93195
9.88273
9.61038
9.2956
9.07146
8.74906
8.22131
7.43056
6.37624
1
1.00001
1.00002
1.00006
1.00012
1.00036
1.00074
1.00209
1.00422
1.01217
1.02374
1.07472
1.13844
1.47925
2.08686
4.25354
9.14226
9.59065
9.42653
9.08779
8.81073
8.46511
7.96315
7.25545
6.36863
1
1
1.00002
1.00004
1.00011
1.00024
1.00068
1.00138
1.00397
1.00768
1.02421
1.04233
1.15495
1.27326
2.04261
3.40137
7.73249
9.30488
9.20491
8.93411
8.595
8.23006
7.75854
7.1275
6.36401
1
1
1.00001
1.00003
1.00009
1.00019
1.00056
1.00114
1.00323
1.00648
1.01907
1.03583
1.12014
1.21804
1.78777
2.80928
6.18707
9.12313
9.06184
8.8248
8.42683
8.04309
7.59266
7.02419
6.35389
0.999998
1
1.00001
1.00002
1.00007
1.00015
1.00043
1.00088
1.00249
1.00504
1.01447
1.02857
1.08715
1.17074
1.55499
2.27966
4.59627
8.77668
8.9204
8.73698
8.32803
7.89659
7.45658
6.94089
6.3466
0.999996
0.999998
1
1.00002
1.00004
1.00013
1.00027
1.00077
1.00157
1.00446
1.0088
1.02672
1.04828
1.16957
1.30936
2.1045
3.5914
7.86529
8.69947
8.56942
8.23526
7.77794
7.34334
6.87014
6.33746
0.999995
0.999996
0.999999
1.00001
1.00003
1.0001
1.0002
1.00058
1.00118
1.00335
1.00658
1.02008
1.03594
1.12787
1.22469
1.83143
2.87831
6.26375
8.41981
8.36954
8.14941
7.69738
7.26026
6.8167
6.33209
0.999994
0.999994
0.999998
1
1.00002
1.00005
1.00017
1.00035
1.00099
1.00197
1.00585
1.01069
1.03628
1.06096
1.22504
1.4397
2.40827
4.47633
7.9993
8.22559
8.07027
7.68644
7.2131
6.77686
6.32809
0.999993
0.999993
0.999996
1
1.00001
1.00004
1.00012
1.00026
1.00073
1.00149
1.00422
1.00834
1.0251
1.04563
1.15842
1.28671
2.01483
3.32355
7.03579
8.02877
7.93364
7.65768
7.20096
6.75735
6.32902
0.999992
0.999993
0.999994
0.999998
1
1.00003
1.00007
1.00021
1.00043
1.00121
1.00238
1.00725
1.01278
1.04541
1.0747
1.28153
1.5549
2.77406
5.3737
7.71848
7.72943
7.58628
7.22085
6.76023
6.33354
0.999992
0.999992
0.999993
0.999996
1
1.00002
1.00005
1.00015
1.00031
1.00088
1.0018
1.00504
1.01012
1.02936
1.05629
1.17811
1.3579
2.11615
3.59416
7.10684
7.61791
7.51274
7.22739
6.77801
6.34754
0.999991
0.999992
0.999992
0.999994
0.999999
1.00001
1.00004
1.00008
1.00025
1.00051
1.00143
1.0029
1.00825
1.016
1.04981
1.08947
1.30882
1.63699
2.91913
5.66955
7.375
7.36066
7.20616
6.83664
6.38032
0.999991
0.999991
0.999992
0.999993
0.999996
1
1.00002
1.00005
1.00017
1.00035
1.00097
1.00198
1.00553
1.01092
1.03255
1.05926
1.20012
1.38415
2.21419
3.85239
6.86645
7.25311
7.15389
6.88503
6.43772
0.999991
0.999991
0.999991
0.999992
0.999994
0.999999
1.00001
1.00004
1.00009
1.00027
1.00056
1.00156
1.00315
1.00887
1.01753
1.05226
1.09974
1.31572
1.69928
2.93909
5.68557
7.02866
7.01685
6.87311
6.53709
0.999991
0.999991
0.999991
0.999992
0.999993
0.999996
1
1.00002
1.00006
1.00017
1.00037
1.00102
1.00207
1.00577
1.01141
1.03381
1.06182
1.20631
1.39949
2.23945
3.8979
6.53364
6.90166
6.81926
6.58572
0.999991
0.999991
0.999991
0.999991
0.999992
0.999994
1
1.00001
1.00004
1.00009
1.00028
1.00057
1.00159
1.00321
1.00902
1.01789
1.05218
1.10417
1.31034
1.69493
2.87348
5.41339
6.66823
6.6751
6.56699
0.999991
0.99999
0.999991
0.999991
0.999991
0.999993
0.999995
1
1.00002
1.00007
1.00015
1.00042
1.00087
1.00239
1.00483
1.01355
1.0267
1.07916
1.15413
1.47352
2.05085
3.68226
6.15843
6.56235
6.50731
0.999991
0.99999
0.99999
0.999991
0.999991
0.999992
0.999994
0.999999
1.00001
1.00004
1.00009
1.00027
1.00055
1.00152
1.00307
1.00852
1.01698
1.04876
1.09681
1.28697
1.63287
2.70767
5.01058
6.31949
6.38299
0.999991
0.99999
0.99999
0.99999
0.999991
0.999991
0.999993
0.999995
1
1.00002
1.00006
1.00014
1.00039
1.00079
1.00218
1.0044
1.01224
1.02419
1.07017
1.13947
1.41046
1.90963
3.26296
5.77675
6.27152
0.999991
0.99999
0.99999
0.99999
0.99999
0.999991
0.999992
0.999993
0.999998
1.00001
1.00004
1.00008
1.00024
1.00049
1.00136
1.00276
1.00756
1.01521
1.04249
1.08579
1.24842
1.54237
2.48333
4.53036
5.98275
0.999991
0.99999
0.99999
0.99999
0.99999
0.999991
0.999991
0.999992
0.999995
1
1.00002
1.00005
1.00014
1.00029
1.00081
1.00165
1.0045
1.00904
1.02509
1.05004
1.1438
1.29809
1.83822
2.90431
5.32206
0.999991
0.99999
0.99999
0.99999
0.99999
0.99999
0.999991
0.999991
0.999993
0.999996
1.00001
1.00002
1.00008
1.00017
1.00049
1.00099
1.00271
1.00548
1.01519
1.02982
1.08876
1.16745
1.52895
2.13774
3.88192
0.999991
0.99999
0.99999
0.99999
0.99999
0.99999
0.99999
0.999991
0.999992
0.999994
0.999999
1.00001
1.00004
1.00011
1.00024
1.00066
1.00135
1.0037
1.00738
1.02103
1.03932
1.12447
1.22985
1.71876
2.5478
0.999991
0.99999
0.99999
0.99999
0.99999
0.99999
0.99999
0.999991
0.999991
0.999992
0.999996
1
1.00002
1.00005
1.00016
1.00033
1.0009
1.00183
1.00502
1.00988
1.02871
1.05243
1.16821
1.31668
1.93147
0.999991
0.99999
0.99999
0.99999
0.99999
0.99999
0.99999
0.99999
0.999991
0.999992
0.999993
0.999998
1.00001
1.00003
1.00008
1.00022
1.00046
1.00125
1.00254
1.00695
1.01389
1.03885
1.07833
1.22089
1.48725
0.999991
0.99999
0.99999
0.99999
0.99999
0.99999
0.99999
0.99999
0.999991
0.999991
0.999992
0.999995
0.999999
1.00001
1.00004
1.00012
1.00026
1.00071
1.00145
1.00393
1.00789
1.02174
1.04274
1.12388
1.24581
0.999991
0.99999
0.99999
0.99999
0.99999
0.99999
0.99999
0.99999
0.99999
0.999991
0.999991
0.999992
0.999996
1
1.00002
1.00005
1.00016
1.00034
1.00093
1.00188
1.0051
1.01015
1.02855
1.05398
1.16327
0.999991
0.99999
0.99999
0.99999
0.99999
0.99999
0.99999
0.99999
0.99999
0.99999
0.999991
0.999992
0.999993
0.999998
1.00001
1.00003
1.00008
1.00022
1.00045
1.00123
1.00249
1.00677
1.01351
1.03754
1.07583
0.999991
0.99999
0.99999
0.99999
0.99999
0.99999
0.99999
0.99999
0.99999
0.99999
0.999991
0.999991
0.999992
0.999994
1
1.00001
1.00005
1.0001
1.00029
1.00059
1.0016
1.00323
1.00876
1.01756
1.04832
0.999991
0.99999
0.99999
0.99999
0.99999
0.99999
0.99999
0.99999
0.99999
0.99999
0.99999
0.999991
0.999991
0.999992
0.999996
1
1.00002
1.00005
1.00016
1.00033
1.00089
1.00181
1.00487
1.00981
1.0265
0.999991
0.99999
0.99999
0.99999
0.99999
0.99999
0.99999
0.99999
0.99999
0.99999
0.99999
0.99999
0.999991
0.999992
0.999993
0.999998
1.00001
1.00003
1.00008
1.00022
1.00046
1.00126
1.00255
1.00694
1.01389
0.999991
0.99999
0.99999
0.99999
0.99999
0.99999
0.99999
0.99999
0.99999
0.99999
0.99999
0.99999
0.999991
0.999991
0.999992
0.999995
1
1.00002
1.00006
1.00013
1.00039
1.0008
1.00222
1.0045
1.01281
0.999991
0.99999
0.99999
0.99999
0.99999
0.99999
0.99999
0.99999
0.99999
0.99999
0.99999
0.99999
0.99999
0.999991
0.999992
0.999994
0.999999
1.00001
1.00004
1.00013
1.00027
1.00077
1.00157
1.0046
1.00879
0.999991
0.99999
0.99999
0.99999
0.99999
0.99999
0.99999
0.99999
0.99999
0.99999
0.99999
0.99999
0.99999
0.999991
0.999992
0.999993
0.999999
1.00001
1.00004
1.0001
1.00029
1.00059
1.00175
1.00339
1.01088
0.999991
0.99999
0.99999
0.99999
0.99999
0.99999
0.99999
0.99999
0.99999
0.99999
0.99999
0.99999
0.99999
0.999991
0.999992
0.999993
0.999999
1.00001
1.00004
1.00009
1.00028
1.00057
1.0017
1.00323
1.01073
0.999991
0.99999
0.99999
0.99999
0.99999
0.99999
0.99999
0.99999
0.99999
0.99999
0.99999
0.99999
0.99999
0.999991
0.999991
0.999994
0.999998
1.00001
1.00003
1.00011
1.00024
1.00071
1.00144
1.00426
1.00829
0.999991
0.99999
0.99999
0.99999
0.99999
0.99999
0.99999
0.99999
0.99999
0.99999
0.99999
0.99999
0.99999
0.999991
0.999992
0.999994
0.999998
1.00001
1.00003
1.00012
1.00025
1.00073
1.0015
1.00436
1.00862
1
1.00002
1.00004
1.00012
1.00026
1.00073
1.00148
1.00425
1.0083
1.02594
1.04604
1.16748
1.30132
2.13302
3.69767
8.69756
10.3538
10.2455
10.0438
10.0097
9.9826
9.88463
9.62088
9.0103
7.47304
1
1.00002
1.00004
1.00011
1.00022
1.00063
1.00128
1.00366
1.00719
1.0221
1.03951
1.14293
1.25132
1.95988
3.2217
7.51837
10.2684
10.1493
9.8801
9.76394
9.67254
9.47515
9.05756
8.22449
6.6252
1
1.00001
1.00003
1.00009
1.00019
1.00055
1.00112
1.00315
1.00635
1.01848
1.03548
1.1159
1.21383
1.76827
2.78215
6.25206
10.1833
10.0546
9.73328
9.5208
9.3649
9.08617
8.57542
7.72021
6.418
1
1.00001
1.00003
1.00008
1.00016
1.00045
1.00093
1.0026
1.00526
1.01508
1.02981
1.09102
1.17825
1.58574
2.36313
4.93569
9.93213
9.88284
9.61042
9.29563
9.07149
8.74909
8.22134
7.43059
6.37626
1
1.00001
1.00002
1.00006
1.00013
1.00037
1.00075
1.0021
1.00423
1.01218
1.02376
1.07473
1.13849
1.47925
2.08697
4.25369
9.14259
9.59073
9.42658
9.08781
8.81076
8.46514
7.96318
7.25548
6.36866
1
1.00001
1.00002
1.00004
1.00012
1.00025
1.00069
1.00139
1.00398
1.0077
1.02422
1.04235
1.15497
1.27331
2.04264
3.40155
7.73283
9.30492
9.20494
8.93412
8.59503
8.23009
7.75857
7.12753
6.36403
1
1
1.00002
1.00003
1.0001
1.0002
1.00057
1.00115
1.00324
1.00649
1.01908
1.03586
1.12014
1.21811
1.78777
2.80944
6.18739
9.12316
9.06186
8.82481
8.42686
8.04312
7.59269
7.02422
6.35391
1
1
1.00001
1.00003
1.00008
1.00016
1.00044
1.00089
1.0025
1.00505
1.01448
1.02859
1.08716
1.17078
1.55503
2.2798
4.59661
8.77674
8.9204
8.73699
8.32805
7.89661
7.4566
6.94092
6.34663
1
1
1.00001
1.00002
1.00005
1.00014
1.00028
1.00078
1.00158
1.00447
1.00881
1.02673
1.0483
1.1696
1.30941
2.10456
3.59156
7.86547
8.6995