/*--------------------------------*- C++ -*----------------------------------*\
| =========                 |                                                 |
| \\      /  F ield         | OpenFOAM: The Open Source CFD Toolbox           |
|  \\    /   O peration     | Version:  4.1                                   |
|   \\  /    A nd           | Web:      www.OpenFOAM.org                      |
|    \\/     M anipulation  |                                                 |
\*---------------------------------------------------------------------------*/
FoamFile
{
    version     2.0;
    format      ascii;
    class       surfaceScalarField;
    location    "4.12";
    object      phi;
}
// * * * * * * * * * * * * * * * * * * * * * * * * * * * * * * * * * * * * * //

dimensions      [1 0 -1 0 0 0 0];

internalField   nonuniform List<scalar> 
150500
(
0.0168001
1.77097e-10
-3.38775e-12
0.0168001
9.78671e-10
-1.16469e-11
0.0168001
3.65364e-09
-1.34634e-11
0.0168
9.34324e-09
-2.17114e-11
0.0168
2.59485e-08
-2.13161e-11
0.0168
5.91825e-08
-2.92439e-11
0.0167998
1.58011e-07
-2.92319e-11
0.0167995
3.44813e-07
-4.03664e-11
0.0167984
9.78557e-07
-4.19853e-11
0.0167965
2.05831e-06
-7.81594e-11
0.0167894
6.63341e-06
-9.69966e-11
0.0167746
1.52407e-05
-2.37445e-10
0.0167097
6.37692e-05
-2.95365e-10
0.0165264
0.00018253
-1.21412e-09
0.0154459
0.00107636
-2.63647e-09
0.0141604
0.00128641
4.60186e-10
0.0129187
0.00124171
-7.39224e-11
0.0116281
0.00129051
-3.42774e-10
0.0102703
0.00135766
-3.34882e-10
0.00882679
0.00144407
-3.05701e-10
0.0072778
0.00154871
-2.89763e-10
0.0056188
0.00166013
-2.89526e-10
0.00385607
0.00176242
-2.87314e-10
0.00198824
0.00186744
-2.9598e-10
0.00198821
-3.10605e-10
0.0168001
3.4726e-10
-3.3799e-12
0.0168001
1.91475e-09
-1.16472e-11
0.0168001
7.16093e-09
-1.3465e-11
0.0168
1.82696e-08
-2.16896e-11
0.0168
5.08754e-08
-2.13298e-11
0.0168
1.15648e-07
-2.92008e-11
0.0167998
3.11906e-07
-2.91938e-11
0.0167995
6.68842e-07
-4.01655e-11
0.0167984
1.97462e-06
-4.19082e-11
0.0167966
4.01933e-06
-7.71643e-11
0.0167893
1.35077e-05
-9.65633e-11
0.0167746
3.02606e-05
-2.32623e-10
0.0167054
0.000132023
-3.02999e-10
0.0165173
0.000369943
-1.19778e-09
0.0154433
0.0021461
-2.63245e-09
0.0141289
0.00260194
4.81629e-10
0.012904
0.00246686
-5.98569e-11
0.0116336
0.00256092
-3.37371e-10
0.0102862
0.00270503
-3.30139e-10
0.00883102
0.00289981
-3.01523e-10
0.00726293
0.00311654
-2.86052e-10
0.00558725
0.00333693
-2.86703e-10
0.00380402
0.00354537
-2.83775e-10
0.00192531
0.00374571
-2.89842e-10
0.00391366
-3.02725e-10
0.0168001
5.04707e-10
-3.36739e-12
0.0168001
2.76445e-09
-1.16424e-11
0.0168001
1.03312e-08
-1.34857e-11
0.0168
2.62449e-08
-2.16037e-11
0.0168
7.33526e-08
-2.14329e-11
0.0168
1.66293e-07
-2.90849e-11
0.0167998
4.51074e-07
-2.9196e-11
0.0167995
9.64473e-07
-3.98369e-11
0.0167986
2.85635e-06
-4.19307e-11
0.0167969
5.82372e-06
-7.58222e-11
0.0167901
1.9892e-05
-9.58147e-11
0.0167757
4.49959e-05
-2.26949e-10
0.016711
0.000195755
-3.02081e-10
0.0165326
0.000547666
-1.16371e-09
0.0155454
0.00312874
-2.60836e-09
0.0142071
0.00394166
5.22411e-10
0.012979
0.00369526
-3.32528e-11
0.0117194
0.0038205
-3.27484e-10
0.0103835
0.00404091
-3.23744e-10
0.00892871
0.00435521
-2.98521e-10
0.0073549
0.00469009
-2.83686e-10
0.00566249
0.00503048
-2.84993e-10
0.0038516
0.00535602
-2.80351e-10
0.00194781
0.00564909
-2.80017e-10
0.00586149
-2.86611e-10
0.0168001
5.72465e-10
-3.34744e-12
0.0168001
3.18306e-09
-1.16373e-11
0.0168001
1.1909e-08
-1.35031e-11
0.0168001
3.03423e-08
-2.15035e-11
0.0168
8.42077e-08
-2.15188e-11
0.0168
1.89008e-07
-2.8908e-11
0.0167999
5.26083e-07
-2.9064e-11
0.0167999
1.01296e-06
-3.90507e-11
0.016799
3.71712e-06
-4.14928e-11
0.0167993
5.62076e-06
-7.19166e-11
0.0167901
2.8633e-05
-9.19663e-11
0.0167818
5.36385e-05
-2.15383e-10
0.0167186
0.000257975
-2.94521e-10
0.0165661
0.000699487
-1.11464e-09
0.015745
0.00394506
-2.6132e-09
0.0143878
0.00530045
5.04012e-10
0.0131523
0.0049312
-3.17144e-11
0.0118996
0.00507321
-3.13847e-10
0.0105744
0.00536603
-3.12609e-10
0.0091269
0.00580327
-2.91684e-10
0.00755205
0.00626467
-2.80371e-10
0.00585298
0.00673071
-2.80936e-10
0.00400951
0.00719919
-2.73517e-10
0.00203137
0.00762687
-2.65567e-10
0.00789287
-2.63802e-10
0.0168001
7.54225e-10
-3.34017e-12
0.0168001
4.16403e-09
-1.1604e-11
0.0168001
1.55114e-08
-1.35975e-11
0.0168
3.96254e-08
-2.13773e-11
0.0168
1.09721e-07
-2.18611e-11
0.0168
2.49198e-07
-2.90445e-11
0.0167998
6.72205e-07
-2.98257e-11
0.0167994
1.3995e-06
-4.26874e-11
0.0167986
4.47743e-06
-3.84999e-11
0.016797
7.2904e-06
-1.12628e-10
0.0167916
3.36664e-05
-8.43343e-12
0.0167817
6.38823e-05
-3.1172e-10
0.0167441
0.00029463
-1.15552e-10
0.0166445
0.000798419
-1.00812e-09
0.016168
0.00441644
-2.35985e-09
0.0147885
0.00668184
3.92095e-10
0.0134958
0.0062246
-1.4012e-10
0.0122224
0.00634667
-3.37731e-10
0.0109084
0.00668018
-3.22884e-10
0.00946561
0.00724667
-2.92311e-10
0.00788573
0.00784432
-2.88521e-10
0.00615442
0.00846334
-2.86378e-10
0.00425992
0.00909349
-2.73193e-10
0.00219742
0.00968911
-2.55756e-10
0.0100902
-2.43949e-10
0.0168001
9.12583e-10
-3.31379e-12
0.0168001
5.01582e-09
-1.15797e-11
0.0168001
1.86903e-08
-1.35681e-11
0.0168
4.77804e-08
-2.12587e-11
0.0168
1.32509e-07
-2.15676e-11
0.0168
3.02772e-07
-2.83321e-11
0.0167998
8.00874e-07
-2.83846e-11
0.0167995
1.77191e-06
-3.65338e-11
0.016799
4.90003e-06
-3.91957e-11
0.0167963
1.00371e-05
-6.90728e-11
0.0167954
3.42337e-05
-5.36933e-11
0.0167898
6.97523e-05
-2.21516e-10
0.0167822
0.000301201
-1.98353e-10
0.0167697
0.000810386
-9.00928e-10
0.0168781
0.00430292
-2.1939e-09
0.0154737
0.008088
3.01145e-10
0.0140426
0.00765653
-1.36863e-10
0.0127165
0.00767297
-3.09029e-10
0.0113898
0.00800696
-3.02724e-10
0.00997077
0.00866647
-2.85972e-10
0.00837818
0.00943637
-2.88105e-10
0.00662287
0.01022
-2.87247e-10
0.004653
0.0110634
-2.72159e-10
0.00242838
0.0119136
-2.49494e-10
0.0125186
-2.30611e-10
0.0168001
9.53133e-10
-3.27706e-12
0.0168001
5.27373e-09
-1.15855e-11
0.0168001
1.96312e-08
-1.35461e-11
0.0168001
5.03759e-08
-2.12335e-11
0.0168
1.38569e-07
-2.14834e-11
0.0168
3.16985e-07
-2.81908e-11
0.0168
8.26298e-07
-2.79955e-11
0.0167999
1.83747e-06
-3.57668e-11
0.0167999
4.86063e-06
-3.86208e-11
0.0167994
1.06102e-05
-5.64369e-11
0.0168024
3.10188e-05
-6.69809e-11
0.0168032
6.91032e-05
-1.81811e-10
0.0168513
0.000252189
-2.2496e-10
0.0169853
0.00067594
-8.21399e-10
0.0180877
0.0031953
-2.12052e-09
0.0166709
0.00950633
6.0329e-11
0.0148831
0.00944548
-1.44548e-10
0.0134712
0.00908531
-2.52485e-10
0.0121164
0.00936166
-2.64597e-10
0.0106702
0.0101137
-2.75887e-10
0.00907014
0.011036
-2.79976e-10
0.00726126
0.0120299
-2.83599e-10
0.0052131
0.0131115
-2.70151e-10
0.00283116
0.0142954
-2.45157e-10
0.0153497
-2.19709e-10
0.0168001
1.0299e-09
-3.24438e-12
0.0168001
5.72355e-09
-1.15942e-11
0.0168001
2.1353e-08
-1.35433e-11
0.0168001
5.50359e-08
-2.12272e-11
0.0168
1.51323e-07
-2.14525e-11
0.0168
3.47447e-07
-2.81236e-11
0.0167999
9.02448e-07
-2.77888e-11
0.0167997
2.02983e-06
-3.52997e-11
0.0167993
5.24404e-06
-3.73004e-11
0.0167981
1.18516e-05
-5.36825e-11
0.0167979
3.10099e-05
-5.63441e-11
0.0167904
7.67354e-05
-1.69953e-10
0.0168103
0.000231477
-1.32508e-10
0.0168382
0.00064837
-5.75352e-10
0.0172363
0.00279383
-1.05891e-09
0.0166887
0.0100523
-8.49353e-10
0.0151785
0.0109557
-3.61753e-10
0.0140314
0.0102326
-2.68044e-10
0.0127944
0.0105989
-2.69159e-10
0.0114345
0.0114738
-2.72249e-10
0.00988531
0.0125854
-2.75946e-10
0.00810926
0.0138065
-2.76571e-10
0.00601665
0.0152042
-2.64306e-10
0.00342877
0.0168832
-2.39853e-10
0.0187785
-2.10108e-10
0.0168001
1.39036e-09
-3.21819e-12
0.0168001
6.20614e-09
-1.15947e-11
0.0168001
2.53131e-08
-1.35566e-11
0.0168
6.09075e-08
-2.12269e-11
0.0168
1.77814e-07
-2.14848e-11
0.0168
3.88707e-07
-2.81883e-11
0.0167998
1.03973e-06
-2.80156e-11
0.0167995
2.35535e-06
-3.59247e-11
0.0167993
5.45675e-06
-3.76237e-11
0.0167974
1.37365e-05
-6.10253e-11
0.0167965
3.17104e-05
-4.38779e-11
0.0168003
7.30614e-05
-1.90334e-10
0.0167938
0.000237202
-6.73381e-11
0.0168041
0.000638693
-5.32914e-10
0.0170059
0.0025899
-7.99356e-10
0.0163127
0.0107425
-1.38226e-09
0.0157274
0.0115405
-3.17528e-10
0.0145281
0.0114316
-2.4718e-10
0.013312
0.011815
-2.5518e-10
0.0121595
0.0126265
-2.59275e-10
0.0107664
0.0139782
-2.67321e-10
0.00914737
0.0154266
-2.61891e-10
0.0072013
0.0171502
-2.52444e-10
0.00451038
0.0195739
-2.24946e-10
0.0232889
-1.97046e-10
0.0168001
-3.24069e-12
1.99401e-09
0.0168001
-1.16288e-11
1.46071e-09
0.0168001
-1.3625e-11
2.63777e-08
0.0168001
-2.18698e-11
2.24546e-08
0.0168001
-2.11873e-11
1.73739e-07
0.0168003
-2.91233e-11
1.46143e-07
0.0168003
-2.8124e-11
1.05569e-06
0.0168019
-3.74946e-11
7.34155e-07
0.0168002
-3.63136e-11
7.13809e-06
0.0168113
-5.9907e-11
2.92462e-06
0.0167892
-6.15307e-11
5.36904e-05
0.0168517
-1.37695e-10
1.07079e-05
0.016708
-6.86252e-11
0.000380308
0.0169897
-5.5473e-10
0.000356743
0.0169343
-6.0962e-10
0.00264422
0.0165419
-1.59445e-09
0.0111317
0.0156953
-2.14185e-10
0.0123868
0.0148314
-1.74711e-10
0.0122952
0.0139151
-2.27336e-10
0.0127311
0.0129151
-2.3729e-10
0.0136266
0.0118425
-2.48433e-10
0.0150507
0.010566
-2.42485e-10
0.0167035
0.0088045
-2.26844e-10
0.018912
0.00621957
-1.95201e-10
0.0221586
-1.5957e-10
0.0295084
0.0168001
1.80982e-10
-5.16722e-16
0.0168001
9.81646e-10
-2.74228e-15
0.0168001
3.65638e-09
-6.01641e-15
0.0168
9.35624e-09
-1.27581e-14
0.0168
2.59554e-08
-2.34376e-14
0.0168
5.92071e-08
-4.44685e-14
0.0167998
1.58054e-07
-9.23052e-14
0.0167995
3.44952e-07
-1.8249e-13
0.0167984
9.7872e-07
-4.29959e-13
0.0167965
2.05896e-06
-8.9102e-13
0.0167894
6.63422e-06
-2.54351e-12
0.0167746
1.52438e-05
-5.94334e-12
0.0167097
6.3768e-05
-1.56181e-11
0.0165264
0.000182542
-5.20477e-11
0.0154458
0.00107638
-1.42169e-10
0.0141604
0.00128637
2.47906e-11
0.0129187
0.00124171
-3.00852e-12
0.0116281
0.00129051
-1.39532e-11
0.0102703
0.00135765
-1.24351e-11
0.0088268
0.00144406
-9.62232e-12
0.00727782
0.00154869
-9.08493e-12
0.00561883
0.00166011
-8.55321e-12
0.0038561
0.00176242
-7.90579e-12
0.00198826
0.00186745
-7.87765e-12
0.00198824
-8.35781e-12
0.0168001
3.53528e-10
-5.01089e-16
0.0168001
1.92293e-09
-2.67693e-15
0.0168001
7.15829e-09
-5.78473e-15
0.0168
1.83143e-08
-1.2254e-14
0.0168
5.08551e-08
-2.19202e-14
0.0168
1.15708e-07
-4.08911e-14
0.0167998
3.11957e-07
-8.5228e-14
0.0167995
6.69089e-07
-1.50603e-13
0.0167984
1.97488e-06
-4.3491e-13
0.0167966
4.02037e-06
-7.05981e-13
0.0167893
1.35095e-05
-2.61946e-12
0.0167746
3.02656e-05
-4.90829e-12
0.0167054
0.000132031
-2.01647e-11
0.0165173
0.000369975
-5.17544e-11
0.0154431
0.0021462
-1.47995e-10
0.0141288
0.00260188
2.96653e-11
0.012904
0.00246684
1.17916e-12
0.0116335
0.0025609
-1.2292e-11
0.0102862
0.00270501
-1.13142e-11
0.008831
0.00289978
-9.03698e-12
0.00726293
0.00311651
-8.60474e-12
0.00558725
0.00333691
-8.269e-12
0.00380403
0.00354535
-7.72145e-12
0.00192532
0.00374572
-7.56934e-12
0.00391372
-7.91588e-12
0.0168001
5.14072e-10
-4.99825e-16
0.0168001
2.77434e-09
-2.67101e-15
0.0168001
1.03319e-08
-5.77543e-15
0.0168
2.62919e-08
-1.22268e-14
0.0168
7.33378e-08
-2.19446e-14
0.0168
1.66345e-07
-4.09615e-14
0.0167998
4.51118e-07
-8.59333e-14
0.0167995
9.6462e-07
-1.52685e-13
0.0167986
2.85634e-06
-4.4281e-13
0.0167969
5.82345e-06
-7.23791e-13
0.0167901
1.98941e-05
-2.70985e-12
0.0167757
4.50042e-05
-5.07427e-12
0.0167109
0.000195772
-2.09583e-11
0.0165325
0.000547739
-5.33776e-11
0.0155452
0.00312897
-1.53564e-10
0.0142069
0.00394158
3.69802e-11
0.0129789
0.00369521
5.57269e-12
0.0117193
0.00382046
-1.05404e-11
0.0103834
0.00404087
-9.98159e-12
0.00892863
0.00435515
-8.26314e-12
0.00735484
0.00469003
-7.9734e-12
0.00566245
0.00503043
-7.85066e-12
0.00385157
0.00535599
-7.35829e-12
0.0019478
0.00564909
-6.87642e-12
0.00586154
-6.86221e-12
0.0168001
5.77177e-10
-5.00474e-16
0.0168001
3.20523e-09
-2.67398e-15
0.0168001
1.18843e-08
-5.79493e-15
0.0168001
3.04036e-08
-1.22622e-14
0.0168
8.41079e-08
-2.2142e-14
0.0168
1.88976e-07
-4.14126e-14
0.0167999
5.25836e-07
-8.7489e-14
0.0167999
1.01187e-06
-1.57139e-13
0.016799
3.71863e-06
-4.52806e-13
0.0167993
5.60715e-06
-7.52177e-13
0.0167901
2.867e-05
-2.79609e-12
0.0167818
5.36002e-05
-5.16953e-12
0.0167185
0.000258088
-2.14528e-11
0.0165659
0.000699606
-5.41514e-11
0.0157445
0.00394558
-1.58291e-10
0.0143874
0.00530038
4.2995e-11
0.013152
0.00493103
8.66527e-12
0.0118993
0.00507311
-9.25044e-12
0.0105742
0.00536595
-8.96842e-12
0.00912672
0.00580319
-7.75138e-12
0.0075519
0.00626457
-7.36304e-12
0.00585288
0.00673062
-7.19357e-12
0.00400944
0.00719912
-6.64931e-12
0.00203134
0.00762684
-5.79635e-12
0.0078929
-5.3473e-12
0.0168001
7.67364e-10
-4.81066e-16
0.0168001
4.18658e-09
-2.6164e-15
0.0168001
1.55449e-08
-5.56576e-15
0.0168
3.97049e-08
-1.14915e-14
0.0168
1.09928e-07
-2.05932e-14
0.0168
2.49658e-07
-3.68333e-14
0.0167998
6.73196e-07
-7.86756e-14
0.0167994
1.40315e-06
-1.11997e-13
0.0167986
4.47889e-06
-4.81171e-13
0.016797
7.31116e-06
-3.25985e-13
0.0167916
3.3655e-05
-3.0527e-12
0.0167816
6.39323e-05
-4.11744e-12
0.0167441
0.000294609
-2.32025e-11
0.0166446
0.000798515
-5.44511e-11
0.0161682
0.00441687
-1.64517e-10
0.0147887
0.00668177
4.6628e-11
0.0134958
0.00622454
1.2237e-11
0.0122224
0.00634664
-7.95044e-12
0.0109083
0.00668015
-8.20807e-12
0.00946551
0.00724662
-7.65893e-12
0.00788562
0.00784423
-6.9506e-12
0.00615431
0.00846323
-6.59458e-12
0.00425984
0.00909339
-5.8151e-12
0.00219737
0.00968903
-4.52664e-12
0.0100902
-3.57956e-12
0.0168001
9.30638e-10
-4.99931e-16
0.0168001
5.02774e-09
-2.68561e-15
0.0168001
1.87175e-08
-5.84805e-15
0.0168
4.78208e-08
-1.2163e-14
0.0168
1.32604e-07
-2.25917e-14
0.0168
3.02963e-07
-4.19512e-14
0.0167998
8.01332e-07
-8.79032e-14
0.0167995
1.77299e-06
-1.65799e-13
0.016799
4.90186e-06
-4.49796e-13
0.0167963
1.00462e-05
-6.97607e-13
0.0167954
3.42369e-05
-3.07084e-12
0.0167898
6.97781e-05
-4.624e-12
0.0167822
0.000301216
-2.15944e-11
0.0167697
0.000810477
-5.24708e-11
0.0168779
0.0043035
-1.63433e-10
0.0154737
0.00808782
4.38171e-11
0.0140426
0.00765643
1.44503e-11
0.0127165
0.00767295
-6.28028e-12
0.0113898
0.00800695
-7.52603e-12
0.00997073
0.00866642
-7.86009e-12
0.00837812
0.00943631
-6.10365e-12
0.00662279
0.0102199
-5.39689e-12
0.00465293
0.0110632
-4.7142e-12
0.00242833
0.0119135
-3.18634e-12
0.0125185
-1.67719e-12
0.0168001
9.69443e-10
-4.9253e-16
0.0168001
5.28283e-09
-2.65007e-15
0.0168001
1.96449e-08
-5.74301e-15
0.0168001
5.03936e-08
-1.19236e-14
0.0168
1.38604e-07
-2.19688e-14
0.0168
3.17052e-07
-4.05654e-14
0.0168
8.26458e-07
-8.43674e-14
0.0167999
1.83783e-06
-1.58442e-13
0.0167999
4.86154e-06
-4.13478e-13
0.0167994
1.06122e-05
-7.56488e-13
0.0168024
3.1026e-05
-2.68341e-12
0.0168032
6.91139e-05
-4.37765e-12
0.0168512
0.000252254
-1.96627e-11
0.0169852
0.000676129
-4.8324e-11
0.0180871
0.00319642
-1.58717e-10
0.0166703
0.00950605
1.91937e-11
0.0148828
0.00944506
1.09838e-11
0.0134711
0.00908519
-5.56626e-12
0.0121163
0.00936159
-7.4816e-12
0.0106701
0.0101136
-9.48738e-12
0.0090701
0.0110359
-6.88027e-12
0.00726121
0.0120298
-5.91065e-12
0.00521305
0.0131114
-4.32173e-12
0.00283113
0.0142953
-2.19065e-12
0.0153497
3.00597e-14
0.0168001
1.04134e-09
-4.78109e-16
0.0168001
5.72791e-09
-2.58434e-15
0.0168001
2.13463e-08
-5.52723e-15
0.0168001
5.50067e-08
-1.14567e-14
0.0168
1.5124e-07
-2.05434e-14
0.0168
3.4733e-07
-3.76543e-14
0.0167999
9.02174e-07
-7.50115e-14
0.0167997
2.02929e-06
-1.4083e-13
0.0167993
5.24337e-06
-3.40416e-13
0.0167981
1.18484e-05
-6.70745e-13
0.0167979
3.10148e-05
-1.77496e-12
0.0167904
7.67263e-05
-4.28356e-12
0.0168104
0.000231522
-1.12627e-11
0.0168383
0.000648433
-2.93375e-11
0.0172372
0.00279431
-7.51868e-11
0.0166892
0.0100524
-4.99437e-11
0.0151785
0.0109557
-1.32728e-11
0.0140314
0.0102325
-1.06003e-11
0.0127944
0.0105989
-1.11644e-11
0.0114345
0.0114738
-1.11972e-11
0.00988532
0.0125854
-8.37707e-12
0.00810927
0.0138064
-6.36155e-12
0.00601664
0.0152041
-4.6493e-12
0.00342875
0.016883
-2.13444e-12
0.0187784
9.99254e-13
0.0168001
1.36648e-09
-4.7515e-16
0.0168001
6.31308e-09
-2.56385e-15
0.0168001
2.53553e-08
-5.48828e-15
0.0168
6.06689e-08
-1.13702e-14
0.0168
1.77841e-07
-2.04407e-14
0.0168
3.88297e-07
-3.75878e-14
0.0167998
1.03952e-06
-7.50115e-14
0.0167995
2.35468e-06
-1.45648e-13
0.0167993
5.45659e-06
-3.18867e-13
0.0167974
1.37373e-05
-7.86279e-13
0.0167965
3.17049e-05
-1.23653e-12
0.0168003
7.30806e-05
-4.76005e-12
0.0167938
0.000237207
-7.62387e-12
0.0168042
0.000638727
-2.4575e-11
0.0170062
0.00259014
-5.87305e-11
0.016313
0.0107426
-9.11857e-11
0.0157276
0.0115405
-1.46242e-11
0.0145282
0.0114316
-1.07121e-11
0.0133121
0.011815
-1.20976e-11
0.0121596
0.0126265
-1.1597e-11
0.0107665
0.0139781
-1.03765e-11
0.00914743
0.0154265
-7.07657e-12
0.00720134
0.0171501
-5.58587e-12
0.0045104
0.0195738
-2.15721e-12
0.0232888
8.80718e-13
0.0168001
-4.61829e-16
1.8586e-09
0.0168001
-2.47799e-15
1.82627e-09
0.0168001
-5.18632e-15
2.51821e-08
0.0168001
-1.09554e-14
2.29719e-08
0.0168001
-1.81243e-14
1.72337e-07
0.0168003
-3.35105e-14
1.46793e-07
0.0168003
-6.08694e-14
1.05463e-06
0.0168019
-1.14712e-13
7.35287e-07
0.0168002
-2.46928e-13
7.13695e-06
0.0168113
-4.87721e-13
2.93055e-06
0.0167892
-1.26093e-12
5.36879e-05
0.0168517
-2.82121e-12
1.07295e-05
0.016708
-6.30052e-12
0.000380275
0.0169896
-2.42588e-11
0.000356853
0.0169345
-4.86152e-11
0.00264421
0.0165421
-1.08824e-10
0.0111319
0.0156954
-9.90138e-12
0.0123868
0.0148316
-7.46168e-12
0.0122952
0.0139152
-1.11659e-11
0.0127311
0.0129152
-1.12012e-11
0.0136266
0.0118426
-1.02888e-11
0.0150507
0.010566
-8.55597e-12
0.0167035
0.00880457
-6.1648e-12
0.0189119
0.00621961
-2.79075e-12
0.0221585
5.01163e-13
0.0295083
0.0168001
1.80989e-10
1.67944e-16
0.0168001
9.81683e-10
1.19728e-16
0.0168001
3.65652e-09
-1.71249e-16
0.0168
9.35658e-09
-3.7039e-16
0.0168
2.59564e-08
-1.06182e-15
0.0168
5.92095e-08
-2.1949e-15
0.0167998
1.58059e-07
-6.10716e-15
0.0167995
3.44971e-07
-1.30452e-14
0.0167984
9.78729e-07
-3.44399e-14
0.0167965
2.05906e-06
-7.39518e-14
0.0167894
6.63423e-06
-2.19997e-13
0.0167746
1.52443e-05
-5.1934e-13
0.0167097
6.37654e-05
-1.36357e-12
0.0165264
0.000182541
-4.53978e-12
0.0154458
0.00107637
-1.21239e-11
0.0141604
0.00128637
3.66786e-12
0.0129187
0.00124171
1.07169e-12
0.0116281
0.00129052
1.14426e-13
0.0102704
0.00135766
2.73023e-13
0.00882681
0.00144406
5.57154e-13
0.00727783
0.0015487
5.48926e-13
0.00561883
0.00166012
5.9597e-13
0.0038561
0.00176242
6.30054e-13
0.00198826
0.00186745
6.57271e-13
0.00198825
6.49677e-13
0.0168001
3.53529e-10
1.67263e-16
0.0168001
1.92294e-09
1.33874e-16
0.0168001
7.15831e-09
-1.49672e-16
0.0168
1.83144e-08
-3.23495e-16
0.0168
5.08552e-08
-9.19028e-16
0.0168
1.15709e-07
-1.85858e-15
0.0167998
3.11958e-07
-5.42935e-15
0.0167995
6.69089e-07
-1.00548e-14
0.0167984
1.97488e-06
-3.47106e-14
0.0167966
4.02036e-06
-5.65486e-14
0.0167893
1.35094e-05
-2.25821e-13
0.0167746
3.02655e-05
-4.21463e-13
0.0167054
0.000132031
-1.77515e-12
0.0165173
0.000369973
-4.49236e-12
0.0154431
0.00214619
-1.26041e-11
0.0141288
0.00260187
4.07535e-12
0.012904
0.00246684
1.83014e-12
0.0116336
0.0025609
2.27957e-13
0.0102862
0.00270501
3.39569e-13
0.00883101
0.00289978
5.76608e-13
0.00726293
0.00311651
5.68669e-13
0.00558725
0.00333691
6.09285e-13
0.00380403
0.00354536
6.38112e-13
0.00192533
0.00374572
6.72038e-13
0.00391372
6.8037e-13
0.0168001
5.14072e-10
1.67227e-16
0.0168001
2.77434e-09
1.35374e-16
0.0168001
1.03319e-08
-1.48023e-16
0.0168
2.6292e-08
-3.1987e-16
0.0168
7.33379e-08
-9.15916e-16
0.0168
1.66345e-07
-1.85515e-15
0.0167998
4.51118e-07
-5.45815e-15
0.0167995
9.64621e-07
-1.01893e-14
0.0167986
2.85634e-06
-3.51458e-14
0.0167969
5.82346e-06
-5.78388e-14
0.0167901
1.98941e-05
-2.32166e-13
0.0167757
4.50041e-05
-4.33898e-13
0.0167109
0.000195771
-1.83128e-12
0.0165325
0.000547738
-4.60704e-12
0.0155452
0.00312897
-1.30207e-11
0.0142069
0.00394157
4.6661e-12
0.0129789
0.0036952
1.41633e-12
0.0117193
0.00382046
3.3491e-13
0.0103834
0.00404087
4.11485e-13
0.00892864
0.00435515
6.02424e-13
0.00735485
0.00469003
6.06534e-13
0.00566245
0.00503044
6.51987e-13
0.00385158
0.00535599
6.75315e-13
0.0019478
0.0056491
7.16618e-13
0.00586155
7.56991e-13
0.0168001
5.77184e-10
1.67289e-16
0.0168001
3.20526e-09
1.34951e-16
0.0168001
1.18844e-08
-1.48998e-16
0.0168001
3.04039e-08
-3.21994e-16
0.0168
8.41087e-08
-9.28101e-16
0.0168
1.88978e-07
-1.88501e-15
0.0167999
5.2584e-07
-5.55798e-15
0.0167999
1.01189e-06
-1.05213e-14
0.016799
3.71862e-06
-3.57088e-14
0.0167993
5.60731e-06
-5.99378e-14
0.0167901
2.86697e-05
-2.375e-13
0.0167818
5.36007e-05
-4.38705e-13
0.0167185
0.000258088
-1.85555e-12
0.0165659
0.000699607
-4.63348e-12
0.0157445
0.00394558
-1.33269e-11
0.0143874
0.00530037
5.12659e-12
0.013152
0.00493103
1.93377e-12
0.0118993
0.00507311
3.98504e-13
0.0105742
0.00536595
4.31115e-13
0.00912672
0.00580319
6.22367e-13
0.00755191
0.00626458
6.33572e-13
0.00585288
0.00673062
6.29156e-13
0.00400944
0.00719912
6.59158e-13
0.00203134
0.00762685
7.50454e-13
0.0078929
8.42009e-13
0.0168001
7.67355e-10
1.6609e-16
0.0168001
4.18655e-09
1.47865e-16
0.0168001
1.55447e-08
-1.25858e-16
0.0168
3.97045e-08
-2.68442e-16
0.0168
1.09927e-07
-7.66509e-16
0.0168
2.49655e-07
-1.49834e-15
0.0167998
6.73191e-07
-4.74534e-15
0.0167994
1.40312e-06
-6.57783e-15
0.0167986
4.47889e-06
-3.77396e-14
0.016797
7.31101e-06
-2.26618e-14
0.0167916
3.36552e-05
-3.04738e-13
0.0167816
6.39322e-05
-3.42677e-13
0.0167441
0.00029461
-1.98572e-12
0.0166446
0.000798518
-4.61057e-12
0.0161682
0.0044169
-1.37274e-11
0.0147886
0.00668175
5.39359e-12
0.0134958
0.00622453
2.18921e-12
0.0122224
0.00634664
5.26383e-13
0.0109083
0.00668015
4.65163e-13
0.0094655
0.00724662
6.05578e-13
0.00788561
0.00784423
8.38003e-13
0.00615431
0.00846323
8.99107e-13
0.00425984
0.00909339
7.74848e-13
0.00219737
0.00968904
8.02202e-13
0.0100902
9.0352e-13
0.0168001
9.30641e-10
1.6702e-16
0.0168001
5.02776e-09
1.33245e-16
0.0168001
1.87176e-08
-1.50741e-16
0.0168
4.78209e-08
-3.27435e-16
0.0168
1.32604e-07
-9.39222e-16
0.0168
3.02964e-07
-1.93612e-15
0.0167998
8.01334e-07
-5.52713e-15
0.0167995
1.77299e-06
-1.1124e-14
0.016799
4.90188e-06
-3.48474e-14
0.0167963
1.00462e-05
-5.43586e-14
0.0167954
3.42371e-05
-2.5579e-13
0.0167898
6.97785e-05
-3.82488e-13
0.0167822
0.000301218
-1.81996e-12
0.0167697
0.000810484
-4.38274e-12
0.0168779
0.00430355
-1.34733e-11
0.0154737
0.00808781
5.07353e-12
0.0140426
0.00765642
2.30174e-12
0.0127165
0.00767295
5.88204e-13
0.0113898
0.00800695
4.55082e-13
0.00997072
0.00866642
2.77222e-13
0.00837811
0.00943631
3.72265e-13
0.00662278
0.0102199
3.59653e-13
0.00465293
0.0110633
5.41575e-13
0.00242833
0.0119135
7.3305e-13
0.0125185
1.00734e-12
0.0168001
9.6945e-10
1.66648e-16
0.0168001
5.28287e-09
1.40561e-16
0.0168001
1.96451e-08
-1.40715e-16
0.0168001
5.03939e-08
-3.04604e-16
0.0168
1.38605e-07
-8.76664e-16
0.0168
3.17054e-07
-1.79624e-15
0.0168
8.26464e-07
-5.15783e-15
0.0167999
1.83784e-06
-1.03376e-14
0.0167999
4.86158e-06
-3.12963e-14
0.0167994
1.06123e-05
-5.85001e-14
0.0168024
3.10265e-05
-2.189e-13
0.0168032
6.91143e-05
-3.56435e-13
0.0168512
0.00025226
-1.62679e-12
0.0169852
0.000676144
-3.96991e-12
0.018087
0.00319651
-1.29048e-11
0.0166703
0.00950604
3.29807e-12
0.0148828
0.00944503
1.91621e-12
0.0134711
0.00908517
7.14718e-13
0.0121163
0.00936158
4.02187e-13
0.0106701
0.0101136
5.9977e-13
0.00907009
0.0110359
7.38685e-13
0.0072612
0.0120298
1.05386e-12
0.00521305
0.0131114
6.24879e-13
0.00283113
0.0142953
6.32868e-13
0.0153497
1.09985e-12
0.0168001
1.04134e-09
1.65988e-16
0.0168001
5.72793e-09
1.54096e-16
0.0168001
2.13463e-08
-1.20237e-16
0.0168001
5.50068e-08
-2.60447e-16
0.0168
1.5124e-07
-7.41305e-16
0.0168
3.47331e-07
-1.51968e-15
0.0167999
9.02176e-07
-4.27739e-15
0.0167997
2.0293e-06
-8.6674e-15
0.0167993
5.2434e-06
-2.45793e-14
0.0167981
1.18484e-05
-5.02368e-14
0.0167979
3.10151e-05
-1.38443e-13
0.0167904
7.67264e-05
-3.43364e-13
0.0168104
0.000231525
-8.94079e-13
0.0168384
0.00064844
-2.32704e-12
0.0172372
0.00279435
-5.80808e-12
0.0166892
0.0100524
-2.97934e-12
0.0151785
0.0109557
-1.76309e-13
0.0140314
0.0102325
8.77247e-14
0.0127944
0.0105989
2.26662e-13
0.0114345
0.0114738
2.90591e-13
0.00988531
0.0125854
1.95753e-13
0.00810926
0.0138064
1.61949e-13
0.00601663
0.0152041
2.01469e-13
0.00342875
0.016883
4.32324e-13
0.0187784
7.56635e-13
0.0168001
1.36648e-09
1.66044e-16
0.0168001
6.31313e-09
1.58717e-16
0.0168001
2.53555e-08
-1.14459e-16
0.0168
6.06692e-08
-2.48007e-16
0.0168
1.77843e-07
-7.17515e-16
0.0168
3.883e-07
-1.48336e-15
0.0167998
1.03953e-06
-4.19033e-15
0.0167995
2.35469e-06
-8.90111e-15
0.0167993
5.45664e-06
-2.22598e-14
0.0167974
1.37374e-05
-5.90073e-14
0.0167965
3.17051e-05
-9.03506e-14
0.0168003
7.30815e-05
-3.76486e-13
0.0167938
0.000237209
-5.72874e-13
0.0168042
0.00063873
-1.89191e-12
0.0170063
0.00259016
-4.38582e-12
0.0163131
0.0107427
-6.33184e-12
0.0157276
0.0115405
-2.87004e-13
0.0145282
0.0114316
-6.13406e-14
0.0133121
0.011815
2.34073e-13
0.0121596
0.0126265
1.02481e-13
0.0107665
0.0139781
2.77778e-13
0.00914743
0.0154265
-1.18597e-13
0.00720133
0.0171501
-1.39985e-14
0.0045104
0.0195738
4.94451e-14
0.0232888
3.23722e-13
0.0168001
1.66725e-16
1.85858e-09
0.0168001
1.77704e-16
1.82635e-09
0.0168001
-8.17615e-17
2.5182e-08
0.0168001
-1.77335e-16
2.29724e-08
0.0168001
-4.99923e-16
1.72338e-07
0.0168003
-1.03432e-15
1.46795e-07
0.0168003
-2.81e-15
1.05463e-06
0.0168019
-5.93172e-15
7.35299e-07
0.0168002
-1.54204e-14
7.13699e-06
0.0168113
-3.20522e-14
2.93063e-06
0.0167892
-9.01783e-14
5.36881e-05
0.0168517
-2.03e-13
1.073e-05
0.016708
-4.73932e-13
0.000380276
0.0169896
-1.77226e-12
0.000356857
0.0169345
-3.60731e-12
0.00264422
0.0165421
-7.62554e-12
0.0111319
0.0156954
1.82426e-13
0.0123868
0.0148316
3.5359e-13
0.0122952
0.0139152
1.87648e-13
0.0127311
0.0129152
4.41651e-14
0.0136266
0.0118426
-1.25777e-13
0.0150507
0.010566
-3.51165e-13
0.0167035
0.00880457
-1.8423e-13
0.0189119
0.00621961
4.68334e-14
0.0221585
-3.45603e-14
0.0295083
0.0168001
1.8099e-10
8.84641e-18
0.0168001
9.81686e-10
3.35569e-17
0.0168001
3.65653e-09
8.1936e-17
0.0168
9.35661e-09
1.28857e-16
0.0168
2.59565e-08
1.84594e-16
0.0168
5.92097e-08
1.40817e-16
0.0167998
1.5806e-07
-2.28004e-16
0.0167995
3.44973e-07
-4.77755e-16
0.0167984
9.78729e-07
-1.37955e-15
0.0167965
2.05907e-06
-2.83354e-15
0.0167894
6.63424e-06
-9.42923e-15
0.0167746
1.52443e-05
-2.17689e-14
0.0167097
6.37652e-05
-6.63264e-14
0.0165264
0.000182541
-2.18741e-13
0.0154458
0.00107637
-6.36906e-13
0.0141604
0.00128637
1.46035e-13
0.0129187
0.00124171
1.04874e-13
0.0116281
0.00129052
1.27478e-13
0.0102704
0.00135766
1.62417e-13
0.00882681
0.00144406
2.21269e-13
0.00727783
0.0015487
2.42971e-13
0.00561883
0.00166012
2.67407e-13
0.0038561
0.00176242
2.61978e-13
0.00198826
0.00186745
2.71548e-13
0.00198825
2.68574e-13
0.0168001
3.53529e-10
7.75035e-18
0.0168001
1.92294e-09
2.99985e-17
0.0168001
7.15831e-09
7.42331e-17
0.0168
1.83144e-08
1.18956e-16
0.0168
5.08552e-08
1.7835e-16
0.0168
1.15709e-07
1.61277e-16
0.0167998
3.11958e-07
-1.55254e-16
0.0167995
6.6909e-07
-3.90255e-16
0.0167984
1.97488e-06
-1.39656e-15
0.0167966
4.02036e-06
-2.28245e-15
0.0167893
1.35094e-05
-9.62216e-15
0.0167746
3.02655e-05
-1.81812e-14
0.0167054
0.000132031
-8.08842e-14
0.0165173
0.000369973
-2.1426e-13
0.0154431
0.00214619
-6.43408e-13
0.0141288
0.00260187
1.71227e-13
0.012904
0.00246684
1.24938e-13
0.0116336
0.0025609
1.39028e-13
0.0102862
0.00270501
1.72636e-13
0.00883101
0.00289978
2.32311e-13
0.00726293
0.00311651
2.32816e-13
0.00558725
0.00333691
2.78477e-13
0.00380403
0.00354536
2.61519e-13
0.00192533
0.00374572
2.77399e-13
0.00391372
2.74285e-13
0.0168001
5.14072e-10
7.56485e-18
0.0168001
2.77434e-09
2.9315e-17
0.0168001
1.03319e-08
7.3121e-17
0.0168
2.6292e-08
1.17314e-16
0.0168
7.33379e-08
1.7667e-16
0.0168
1.66345e-07
1.58934e-16
0.0167998
4.51118e-07
-1.57994e-16
0.0167995
9.64622e-07
-4.01787e-16
0.0167986
2.85634e-06
-1.42784e-15
0.0167969
5.82346e-06
-2.34084e-15
0.0167901
1.98941e-05
-9.82818e-15
0.0167757
4.50041e-05
-1.84471e-14
0.0167109
0.000195771
-8.18786e-14
0.0165325
0.000547738
-2.13507e-13
0.0155452
0.00312897
-6.386e-13
0.0142069
0.00394157
2.16713e-13
0.0129789
0.0036952
1.55214e-13
0.0117193
0.00382046
1.64362e-13
0.0103835
0.00404087
1.88798e-13
0.00892864
0.00435515
2.53324e-13
0.00735485
0.00469003
2.6307e-13
0.00566245
0.00503044
3.08286e-13
0.00385158
0.00535599
2.86734e-13
0.0019478
0.0056491
2.93532e-13
0.00586155
2.89557e-13
0.0168001
5.77185e-10
7.46829e-18
0.0168001
3.20526e-09
2.91269e-17
0.0168001
1.18844e-08
7.2833e-17
0.0168001
3.04039e-08
1.16793e-16
0.0168
8.41087e-08
1.75532e-16
0.0168
1.88978e-07
1.54602e-16
0.0167999
5.25841e-07
-1.71256e-16
0.0167999
1.01189e-06
-4.19972e-16
0.016799
3.71862e-06
-1.45999e-15
0.0167993
5.60732e-06
-2.4243e-15
0.0167901
2.86696e-05
-9.96114e-15
0.0167818
5.36007e-05
-1.83614e-14
0.0167185
0.000258088
-8.1094e-14
0.0165659
0.000699607
-2.07467e-13
0.0157445
0.00394558
-6.21439e-13
0.0143874
0.00530037
2.71669e-13
0.013152
0.00493103
1.91592e-13
0.0118993
0.00507311
1.8564e-13
0.0105742
0.00536595
2.16346e-13
0.00912672
0.00580319
2.8307e-13
0.00755191
0.00626458
3.01296e-13
0.00585288
0.00673062
3.74312e-13
0.00400944
0.00719912
3.29369e-13
0.00203134
0.00762685
3.25945e-13
0.0078929
3.19453e-13
0.0168001
7.67354e-10
6.24263e-18
0.0168001
4.18655e-09
2.53153e-17
0.0168001
1.55447e-08
6.36223e-17
0.0168
3.97045e-08
1.03401e-16
0.0168
1.09926e-07
1.63977e-16
0.0168
2.49655e-07
1.6665e-16
0.0167998
6.73191e-07
-2.0147e-16
0.0167994
1.40312e-06
-2.93321e-16
0.0167986
4.4789e-06
-1.54936e-15
0.016797
7.31099e-06
-1.04024e-15
0.0167916
3.36553e-05
-1.24961e-14
0.0167816
6.39321e-05
-1.42535e-14
0.0167441
0.00029461
-8.33317e-14
0.0166446
0.000798518
-1.96788e-13
0.0161682
0.0044169
-5.96506e-13
0.0147886
0.00668175
3.30003e-13
0.0134958
0.00622453
2.34964e-13
0.0122224
0.00634664
2.19896e-13
0.0109083
0.00668015
2.54349e-13
0.0094655
0.00724662
3.33146e-13
0.00788561
0.00784423
3.42254e-13
0.00615431
0.00846323
3.89298e-13
0.00425984