/*--------------------------------*- C++ -*----------------------------------*\
| =========                 |                                                 |
| \\      /  F ield         | OpenFOAM: The Open Source CFD Toolbox           |
|  \\    /   O peration     | Version:  4.1                                   |
|   \\  /    A nd           | Web:      www.OpenFOAM.org                      |
|    \\/     M anipulation  |                                                 |
\*---------------------------------------------------------------------------*/
FoamFile
{
    version     2.0;
    format      ascii;
    class       volScalarField;
    location    "4.72";
    object      T;
}
// * * * * * * * * * * * * * * * * * * * * * * * * * * * * * * * * * * * * * //

dimensions      [0 0 0 1 0 0 0];

internalField   nonuniform List<scalar> 
52500
(
0.999995
1.00002
1.00004
1.00015
1.00028
1.0009
1.00167
1.00493
1.01039
1.02671
1.07243
1.15961
1.50175
2.27538
2.64256
2.73129
2.72534
2.72094
2.7357
2.74768
2.76107
2.76934
2.77638
2.78102
2.7842
0.999995
1.00002
1.00004
1.00015
1.00027
1.00089
1.00165
1.00486
1.01024
1.02633
1.07137
1.15732
1.49448
2.26229
2.6389
2.73125
2.72515
2.72048
2.73509
2.74695
2.76006
2.76803
2.77504
2.77866
2.7811
0.999995
1.00002
1.00004
1.00014
1.00027
1.00086
1.0016
1.00474
1.00993
1.02567
1.06908
1.15322
1.47652
2.23136
2.62877
2.72957
2.72332
2.71805
2.73277
2.74434
2.7577
2.76479
2.77185
2.77624
2.77755
0.999995
1.00002
1.00004
1.00014
1.00026
1.00083
1.00153
1.00456
1.00948
1.02466
1.06564
1.14698
1.44941
2.18264
2.61256
2.72642
2.71978
2.71323
2.7277
2.73963
2.75324
2.76109
2.76655
2.76942
2.77286
0.999995
1.00001
1.00003
1.00013
1.00024
1.00079
1.00145
1.00446
1.00885
1.02392
1.06004
1.13868
1.41108
2.11225
2.58935
2.72131
2.71504
2.70553
2.72086
2.72983
2.74388
2.75186
2.76001
2.76352
2.76298
0.999995
1.00001
1.00003
1.00012
1.00023
1.00074
1.00136
1.00423
1.00812
1.02288
1.0535
1.12867
1.36667
2.02276
2.55784
2.71337
2.70688
2.69681
2.71306
2.72333
2.73347
2.74205
2.7468
2.74925
2.75317
0.999995
1.00001
1.00003
1.00011
1.00021
1.00068
1.00124
1.00387
1.00738
1.02108
1.04748
1.11813
1.32111
1.92233
2.51315
2.69745
2.68855
2.67844
2.69501
2.70924
2.72119
2.72682
2.73473
2.7368
2.73338
0.999995
1.00001
1.00003
1.0001
1.00019
1.00062
1.00113
1.00352
1.00669
1.01924
1.04272
1.10759
1.2876
1.83292
2.49119
2.68821
2.67948
2.66697
2.6812
2.69058
2.70423
2.70818
2.70975
2.70926
2.70933
0.999995
1.00001
1.00002
1.00009
1.00017
1.00055
1.001
1.00315
1.00597
1.01715
1.03861
1.09436
1.26271
1.71498
2.45722
2.67515
2.65852
2.65984
2.66734
2.67253
2.68298
2.68713
2.68817
2.68173
2.65646
0.999994
1.00001
1.00002
1.00007
1.00014
1.00045
1.00085
1.00242
1.00533
1.01321
1.03599
1.07908
1.2438
1.60441
2.36901
2.64432
2.65395
2.65186
2.6523
2.65814
2.65793
2.65577
2.64638
2.62533
2.57683
1
1.00003
1.00005
1.00016
1.00029
1.00091
1.00168
1.00494
1.0104
1.02672
1.07245
1.15965
1.50178
2.27551
2.64263
2.73136
2.72541
2.72101
2.73577
2.74776
2.76114
2.76941
2.77646
2.78109
2.78429
1
1.00002
1.00005
1.00016
1.00028
1.00089
1.00166
1.00487
1.01025
1.02635
1.07139
1.15736
1.49452
2.26242
2.63897
2.73132
2.72522
2.72055
2.73516
2.74702
2.76014
2.76811
2.77512
2.77874
2.78118
1
1.00002
1.00005
1.00015
1.00027
1.00087
1.00161
1.00476
1.00994
1.02569
1.0691
1.15326
1.47656
2.23148
2.62885
2.72964
2.72339
2.71812
2.73284
2.74441
2.75778
2.76487
2.77192
2.77632
2.77763
1
1.00002
1.00004
1.00015
1.00026
1.00084
1.00154
1.00457
1.00949
1.02467
1.06566
1.14701
1.44945
2.18277
2.61263
2.72649
2.71985
2.7133
2.72777
2.73971
2.75331
2.76116
2.76663
2.7695
2.77294
1
1.00002
1.00004
1.00014
1.00025
1.0008
1.00146
1.00447
1.00886
1.02394
1.06004
1.13872
1.41108
2.11234
2.58942
2.72138
2.71511
2.70559
2.72093
2.7299
2.74395
2.75193
2.76008
2.76359
2.76306
1
1.00002
1.00004
1.00013
1.00024
1.00075
1.00136
1.00424
1.00813
1.02289
1.05351
1.1287
1.36669
2.02286
2.55791
2.71343
2.70695
2.69687
2.71313
2.72339
2.73355
2.74212
2.74687
2.74932
2.75325
1
1.00002
1.00004
1.00012
1.00022
1.00069
1.00125
1.00388
1.00739
1.0211
1.04749
1.11816
1.32114
1.92243
2.51321
2.69752
2.68862
2.6785
2.69508
2.7093
2.72125
2.72689
2.7348
2.73687
2.73345
1
1.00002
1.00003
1.00011
1.0002
1.00063
1.00113
1.00353
1.0067
1.01926
1.04273
1.10762
1.28761
1.833
2.49122
2.68827
2.67954
2.66703
2.68127
2.69065
2.70429
2.70825
2.70982
2.70933
2.7094
1
1.00002
1.00003
1.0001
1.00018
1.00056
1.00101
1.00316
1.00598
1.01716
1.03862
1.09439
1.26271
1.71508
2.45726
2.67522
2.65857
2.6599
2.66741
2.6726
2.68304
2.68719
2.68823
2.6818
2.65652
1
1.00001
1.00002
1.00008
1.00015
1.00045
1.00086
1.00243
1.00534
1.01322
1.03601
1.07911
1.24381
1.60447
2.36908
2.64438
2.654
2.65191
2.65236
2.6582
2.65799
2.65583
2.64644
2.62539
2.57689
1
1.00003
1.00005
1.00016
1.00029
1.00091
1.00168
1.00494
1.0104
1.02672
1.07245
1.15965
1.50178
2.27551
2.64263
2.73136
2.72541
2.72101
2.73577
2.74776
2.76114
2.76941
2.77646
2.78109
2.78429
1
1.00002
1.00005
1.00016
1.00028
1.00089
1.00166
1.00487
1.01025
1.02635
1.07139
1.15736
1.49452
2.26242
2.63897
2.73132
2.72522
2.72055
2.73516
2.74702
2.76014
2.76811
2.77512
2.77874
2.78118
1
1.00002
1.00005
1.00015
1.00027
1.00087
1.00161
1.00476
1.00994
1.02569
1.0691
1.15326
1.47656
2.23148
2.62885
2.72964
2.72339
2.71812
2.73284
2.74441
2.75778
2.76487
2.77192
2.77632
2.77763
1
1.00002
1.00004
1.00015
1.00026
1.00084
1.00154
1.00457
1.00949
1.02467
1.06566
1.14701
1.44945
2.18277
2.61263
2.72649
2.71985
2.7133
2.72777
2.73971
2.75331
2.76116
2.76663
2.7695
2.77294
1
1.00002
1.00004
1.00014
1.00025
1.0008
1.00146
1.00447
1.00886
1.02394
1.06004
1.13872
1.41108
2.11235
2.58942
2.72138
2.71511
2.70559
2.72093
2.7299
2.74395
2.75193
2.76008
2.76359
2.76306
1
1.00002
1.00004
1.00013
1.00024
1.00075
1.00136
1.00424
1.00813
1.02289
1.05351
1.1287
1.36669
2.02286
2.55791
2.71343
2.70695
2.69687
2.71313
2.72339
2.73355
2.74212
2.74687
2.74932
2.75325
1
1.00002
1.00004
1.00012
1.00022
1.00069
1.00125
1.00388
1.00739
1.0211
1.0475
1.11816
1.32114
1.92243
2.51322
2.69752
2.68862
2.6785
2.69508
2.7093
2.72125
2.72689
2.7348
2.73687
2.73345
1
1.00002
1.00003
1.00011
1.0002
1.00063
1.00113
1.00353
1.0067
1.01926
1.04273
1.10762
1.28761
1.83301
2.49122
2.68827
2.67954
2.66703
2.68127
2.69065
2.70429
2.70825
2.70982
2.70933
2.7094
1
1.00002
1.00003
1.0001
1.00018
1.00056
1.00101
1.00316
1.00598
1.01716
1.03862
1.09439
1.26271
1.71509
2.45726
2.67522
2.65857
2.6599
2.66741
2.6726
2.68304
2.68719
2.68823
2.6818
2.65652
1
1.00001
1.00002
1.00008
1.00015
1.00045
1.00086
1.00243
1.00534
1.01322
1.03601
1.07911
1.24381
1.60447
2.36908
2.64438
2.654
2.65191
2.65236
2.6582
2.65799
2.65583
2.64644
2.62539
2.57689
1
1.00003
1.00005
1.00016
1.00029
1.00091
1.00168
1.00494
1.0104
1.02672
1.07245
1.15965
1.50178
2.27551
2.64263
2.73136
2.72541
2.72101
2.73577
2.74776
2.76114
2.76941
2.77646
2.78109
2.78429
1
1.00002
1.00005
1.00016
1.00028
1.00089
1.00166
1.00487
1.01025
1.02635
1.07139
1.15736
1.49452
2.26242
2.63897
2.73132
2.72522
2.72055
2.73516
2.74702
2.76014
2.76811
2.77512
2.77874
2.78118
1
1.00002
1.00005
1.00015
1.00027
1.00087
1.00161
1.00476
1.00994
1.02569
1.0691
1.15326
1.47656
2.23148
2.62885
2.72964
2.72339
2.71812
2.73284
2.74441
2.75778
2.76487
2.77192
2.77632
2.77763
1
1.00002
1.00004
1.00015
1.00026
1.00084
1.00154
1.00457
1.00949
1.02467
1.06566
1.14701
1.44945
2.18277
2.61263
2.72649
2.71985
2.7133
2.72777
2.73971
2.75331
2.76116
2.76663
2.7695
2.77294
1
1.00002
1.00004
1.00014
1.00025
1.0008
1.00146
1.00447
1.00886
1.02394
1.06004
1.13872
1.41108
2.11235
2.58942
2.72138
2.71511
2.70559
2.72093
2.7299
2.74395
2.75193
2.76008
2.76359
2.76306
1
1.00002
1.00004
1.00013
1.00024
1.00075
1.00136
1.00424
1.00813
1.02289
1.05351
1.1287
1.36669
2.02286
2.55791
2.71343
2.70695
2.69687
2.71313
2.72339
2.73355
2.74212
2.74687
2.74932
2.75325
1
1.00002
1.00004
1.00012
1.00022
1.00069
1.00125
1.00388
1.00739
1.0211
1.0475
1.11816
1.32114
1.92243
2.51322
2.69752
2.68862
2.6785
2.69508
2.7093
2.72125
2.72689
2.7348
2.73687
2.73345
1
1.00002
1.00003
1.00011
1.0002
1.00063
1.00113
1.00353
1.0067
1.01926
1.04273
1.10762
1.28761
1.83301
2.49122
2.68827
2.67954
2.66703
2.68127
2.69065
2.70429
2.70825
2.70982
2.70933
2.7094
1
1.00002
1.00003
1.0001
1.00018
1.00056
1.00101
1.00316
1.00598
1.01716
1.03862
1.09439
1.26271
1.71509
2.45726
2.67522
2.65857
2.6599
2.66741
2.6726
2.68304
2.68719
2.68823
2.6818
2.65652
1
1.00001
1.00002
1.00008
1.00015
1.00045
1.00086
1.00243
1.00534
1.01322
1.03601
1.07911
1.24381
1.60447
2.36908
2.64438
2.654
2.65191
2.65236
2.6582
2.65799
2.65583
2.64644
2.62539
2.57689
1
1.00003
1.00005
1.00016
1.00029
1.00091
1.00168
1.00494
1.0104
1.02672
1.07245
1.15965
1.50178
2.27551
2.64263
2.73136
2.72541
2.72101
2.73577
2.74776
2.76114
2.76941
2.77646
2.78109
2.78429
1
1.00002
1.00005
1.00016
1.00028
1.00089
1.00166
1.00487
1.01025
1.02635
1.07139
1.15736
1.49452
2.26242
2.63897
2.73132
2.72522
2.72055
2.73516
2.74702
2.76014
2.76811
2.77512
2.77874
2.78118
1
1.00002
1.00005
1.00015
1.00027
1.00087
1.00161
1.00476
1.00994
1.02569
1.0691
1.15326
1.47656
2.23148
2.62885
2.72964
2.72339
2.71812
2.73284
2.74441
2.75778
2.76487
2.77192
2.77632
2.77763
1
1.00002
1.00004
1.00015
1.00026
1.00084
1.00154
1.00457
1.00949
1.02467
1.06566
1.14701
1.44945
2.18277
2.61263
2.72649
2.71985
2.7133
2.72777
2.73971
2.75331
2.76116
2.76663
2.7695
2.77294
1
1.00002
1.00004
1.00014
1.00025
1.0008
1.00146
1.00447
1.00886
1.02394
1.06004
1.13872
1.41108
2.11235
2.58942
2.72138
2.71511
2.70559
2.72093
2.7299
2.74395
2.75193
2.76008
2.76359
2.76306
1
1.00002
1.00004
1.00013
1.00024
1.00075
1.00136
1.00424
1.00813
1.02289
1.05351
1.1287
1.36669
2.02286
2.55791
2.71343
2.70695
2.69687
2.71313
2.72339
2.73355
2.74212
2.74687
2.74932
2.75325
1
1.00002
1.00004
1.00012
1.00022
1.00069
1.00125
1.00388
1.00739
1.0211
1.0475
1.11816
1.32114
1.92243
2.51322
2.69752
2.68862
2.6785
2.69508
2.7093
2.72125
2.72689
2.7348
2.73687
2.73345
1
1.00002
1.00003
1.00011
1.0002
1.00063
1.00113
1.00353
1.0067
1.01926
1.04273
1.10762
1.28761
1.83301
2.49122
2.68827
2.67954
2.66703
2.68127
2.69065
2.70429
2.70825
2.70982
2.70933
2.7094
1
1.00002
1.00003
1.0001
1.00018
1.00056
1.00101
1.00316
1.00598
1.01716
1.03862
1.09439
1.26271
1.71509
2.45726
2.67522
2.65857
2.6599
2.66741
2.6726
2.68304
2.68719
2.68823
2.6818
2.65652
1
1.00001
1.00002
1.00008
1.00015
1.00045
1.00086
1.00243
1.00534
1.01322
1.03601
1.07911
1.24381
1.60447
2.36908
2.64438
2.654
2.65191
2.65236
2.6582
2.65799
2.65583
2.64644
2.62539
2.57689
1
1.00003
1.00005
1.00016
1.00029
1.00091
1.00168
1.00494
1.0104
1.02672
1.07245
1.15965
1.50178
2.27551
2.64263
2.73136
2.72541
2.72101
2.73577
2.74776
2.76114
2.76941
2.77646
2.78109
2.78429
1
1.00002
1.00005
1.00016
1.00028
1.00089
1.00166
1.00487
1.01025
1.02635
1.07139
1.15736
1.49452
2.26242
2.63897
2.73132
2.72522
2.72055
2.73516
2.74702
2.76014
2.76811
2.77512
2.77874
2.78118
1
1.00002
1.00005
1.00015
1.00027
1.00087
1.00161
1.00476
1.00994
1.02569
1.0691
1.15326
1.47656
2.23148
2.62885
2.72964
2.72339
2.71812
2.73284
2.74441
2.75778
2.76487
2.77192
2.77632
2.77763
1
1.00002
1.00004
1.00015
1.00026
1.00084
1.00154
1.00457
1.00949
1.02467
1.06566
1.14701
1.44945
2.18277
2.61263
2.72649
2.71985
2.7133
2.72777
2.73971
2.75331
2.76116
2.76663
2.7695
2.77294
1
1.00002
1.00004
1.00014
1.00025
1.0008
1.00146
1.00447
1.00886
1.02394
1.06004
1.13872
1.41108
2.11235
2.58942
2.72138
2.71511
2.70559
2.72093
2.7299
2.74395
2.75193
2.76008
2.76359
2.76306
1
1.00002
1.00004
1.00013
1.00024
1.00075
1.00136
1.00424
1.00813
1.02289
1.05351
1.1287
1.36669
2.02286
2.55791
2.71343
2.70695
2.69687
2.71313
2.72339
2.73355
2.74212
2.74687
2.74932
2.75325
1
1.00002
1.00004
1.00012
1.00022
1.00069
1.00125
1.00388
1.00739
1.0211
1.0475
1.11816
1.32114
1.92243
2.51322
2.69752
2.68862
2.6785
2.69508
2.7093
2.72125
2.72689
2.7348
2.73687
2.73345
1
1.00002
1.00003
1.00011
1.0002
1.00063
1.00113
1.00353
1.0067
1.01926
1.04273
1.10762
1.28761
1.83301
2.49122
2.68827
2.67954
2.66703
2.68127
2.69065
2.7043
2.70825
2.70982
2.70933
2.7094
1
1.00002
1.00003
1.0001
1.00018
1.00056
1.00101
1.00316
1.00598
1.01716
1.03862
1.09439
1.26271
1.71509
2.45726
2.67522
2.65857
2.6599
2.66741
2.6726
2.68304
2.68719
2.68823
2.6818
2.65652
1
1.00001
1.00002
1.00008
1.00015
1.00045
1.00086
1.00243
1.00534
1.01322
1.03601
1.07911
1.24381
1.60447
2.36908
2.64438
2.654
2.65191
2.65236
2.6582
2.65799
2.65583
2.64644
2.62539
2.57689
1
1.00003
1.00005
1.00016
1.00029
1.00091
1.00168
1.00494
1.0104
1.02672
1.07245
1.15965
1.50178
2.27551
2.64263
2.73136
2.72541
2.72101
2.73577
2.74776
2.76114
2.76941
2.77646
2.78109
2.78429
1
1.00002
1.00005
1.00016
1.00028
1.00089
1.00166
1.00487
1.01025
1.02635
1.07139
1.15736
1.49452
2.26242
2.63897
2.73132
2.72522
2.72055
2.73516
2.74702
2.76014
2.76811
2.77512
2.77874
2.78118
1
1.00002
1.00005
1.00015
1.00027
1.00087
1.00161
1.00476
1.00994
1.02569
1.0691
1.15326
1.47656
2.23148
2.62885
2.72964
2.72339
2.71812
2.73284
2.74441
2.75778
2.76487
2.77192
2.77632
2.77763
1
1.00002
1.00004
1.00015
1.00026
1.00084
1.00154
1.00457
1.00949
1.02467
1.06566
1.14701
1.44945
2.18277
2.61263
2.72649
2.71985
2.7133
2.72777
2.73971
2.75331
2.76116
2.76663
2.7695
2.77294
1
1.00002
1.00004
1.00014
1.00025
1.0008
1.00146
1.00447
1.00886
1.02394
1.06004
1.13872
1.41108
2.11235
2.58942
2.72138
2.71511
2.70559
2.72093
2.7299
2.74395
2.75193
2.76008
2.76359
2.76306
1
1.00002
1.00004
1.00013
1.00024
1.00075
1.00136
1.00424
1.00813
1.02289
1.05351
1.1287
1.36669
2.02286
2.55791
2.71343
2.70695
2.69687
2.71313
2.72339
2.73355
2.74212
2.74687
2.74932
2.75325
1
1.00002
1.00004
1.00012
1.00022
1.00069
1.00125
1.00388
1.00739
1.0211
1.0475
1.11816
1.32114
1.92243
2.51322
2.69752
2.68862
2.6785
2.69508
2.7093
2.72125
2.72689
2.7348
2.73687
2.73345
1
1.00002
1.00003
1.00011
1.0002
1.00063
1.00113
1.00353
1.0067
1.01926
1.04273
1.10762
1.28761
1.83301
2.49122
2.68827
2.67954
2.66703
2.68127
2.69065
2.70429
2.70825
2.70982
2.70933
2.7094
1
1.00002
1.00003
1.0001
1.00018
1.00056
1.00101
1.00316
1.00598
1.01716
1.03862
1.09439
1.26271
1.71509
2.45726
2.67522
2.65857
2.6599
2.66741
2.6726
2.68304
2.68719
2.68823
2.6818
2.65652
1
1.00001
1.00002
1.00008
1.00015
1.00045
1.00086
1.00243
1.00534
1.01322
1.03601
1.07911
1.24381
1.60447
2.36908
2.64438
2.654
2.65191
2.65236
2.6582
2.65799
2.65583
2.64644
2.62539
2.57689
1
1.00003
1.00005
1.00016
1.00029
1.00091
1.00168
1.00494
1.0104
1.02672
1.07245
1.15965
1.50178
2.27551
2.64263
2.73136
2.72541
2.72101
2.73577
2.74776
2.76114
2.76941
2.77646
2.78109
2.78429
1
1.00002
1.00005
1.00016
1.00028
1.00089
1.00166
1.00487
1.01025
1.02635
1.07139
1.15736
1.49452
2.26242
2.63897
2.73132
2.72522
2.72055
2.73516
2.74702
2.76014
2.76811
2.77512
2.77874
2.78118
1
1.00002
1.00005
1.00015
1.00027
1.00087
1.00161
1.00476
1.00994
1.02569
1.0691
1.15326
1.47656
2.23148
2.62885
2.72964
2.72339
2.71812
2.73284
2.74441
2.75778
2.76487
2.77192
2.77632
2.77763
1
1.00002
1.00004
1.00015
1.00026
1.00084
1.00154
1.00457
1.00949
1.02467
1.06566
1.14701
1.44945
2.18277
2.61263
2.72649
2.71985
2.7133
2.72777
2.73971
2.75331
2.76116
2.76663
2.7695
2.77294
1
1.00002
1.00004
1.00014
1.00025
1.0008
1.00146
1.00447
1.00886
1.02394
1.06004
1.13872
1.41108
2.11235
2.58942
2.72138
2.71511
2.70559
2.72093
2.7299
2.74395
2.75193
2.76008
2.76359
2.76306
1
1.00002
1.00004
1.00013
1.00024
1.00075
1.00136
1.00424
1.00813
1.02289
1.05351
1.1287
1.36669
2.02286
2.55791
2.71343
2.70695
2.69687
2.71313
2.72339
2.73355
2.74212
2.74687
2.74932
2.75325
1
1.00002
1.00004
1.00012
1.00022
1.00069
1.00125
1.00388
1.00739
1.0211
1.0475
1.11816
1.32114
1.92243
2.51322
2.69752
2.68862
2.6785
2.69508
2.7093
2.72125
2.72689
2.7348
2.73687
2.73345
1
1.00002
1.00003
1.00011
1.0002
1.00063
1.00113
1.00353
1.0067
1.01926
1.04273
1.10762
1.28761
1.83301
2.49122
2.68827
2.67954
2.66703
2.68127
2.69065
2.70429
2.70825
2.70982
2.70933
2.7094
1
1.00002
1.00003
1.0001
1.00018
1.00056
1.00101
1.00316
1.00598
1.01716
1.03862
1.09439
1.26271
1.71509
2.45726
2.67522
2.65857
2.6599
2.66741
2.6726
2.68304
2.68719
2.68823
2.6818
2.65652
1
1.00001
1.00002
1.00008
1.00015
1.00045
1.00086
1.00243
1.00534
1.01322
1.03601
1.07911
1.24381
1.60447
2.36908
2.64438
2.654
2.65191
2.65236
2.6582
2.65799
2.65583
2.64644
2.62539
2.57689
1
1.00003
1.00005
1.00016
1.00029
1.00091
1.00168
1.00494
1.0104
1.02672
1.07245
1.15965
1.50178
2.27551
2.64263
2.73136
2.72541
2.72101
2.73577
2.74776
2.76114
2.76941
2.77646
2.78109
2.78429
1
1.00002
1.00005
1.00016
1.00028
1.00089
1.00166
1.00487
1.01025
1.02635
1.07139
1.15736
1.49452
2.26242
2.63897
2.73132
2.72522
2.72055
2.73516
2.74702
2.76014
2.76811
2.77512
2.77874
2.78118
1
1.00002
1.00005
1.00015
1.00027
1.00087
1.00161
1.00476
1.00994
1.02569
1.0691
1.15326
1.47656
2.23148
2.62885
2.72964
2.72339
2.71812
2.73284
2.74441
2.75778
2.76487
2.77192
2.77632
2.77763
1
1.00002
1.00004
1.00015
1.00026
1.00084
1.00154
1.00457
1.00949
1.02467
1.06566
1.14701
1.44945
2.18277
2.61263
2.72649
2.71985
2.7133
2.72777
2.73971
2.75331
2.76116
2.76663
2.7695
2.77294
1
1.00002
1.00004
1.00014
1.00025
1.0008
1.00146
1.00447
1.00886
1.02394
1.06004
1.13872
1.41108
2.11234
2.58942
2.72138
2.71511
2.70559
2.72093
2.7299
2.74395
2.75193
2.76008
2.76359
2.76306
1
1.00002
1.00004
1.00013
1.00024
1.00075
1.00136
1.00424
1.00813
1.02289
1.05351
1.1287
1.36669
2.02286
2.55791
2.71343
2.70695
2.69687
2.71313
2.72339
2.73355
2.74212
2.74687
2.74932
2.75325
1
1.00002
1.00004
1.00012
1.00022
1.00069
1.00125
1.00388
1.00739
1.0211
1.04749
1.11816
1.32114
1.92243
2.51321
2.69752
2.68862
2.6785
2.69508
2.7093
2.72125
2.72689
2.7348
2.73687
2.73345
1
1.00002
1.00003
1.00011
1.0002
1.00063
1.00113
1.00353
1.0067
1.01926
1.04273
1.10762
1.28761
1.833
2.49122
2.68827
2.67954
2.66703
2.68127
2.69065
2.70429
2.70825
2.70982
2.70933
2.7094
1
1.00002
1.00003
1.0001
1.00018
1.00056
1.00101
1.00316
1.00598
1.01716
1.03862
1.09439
1.26271
1.71508
2.45726
2.67522
2.65857
2.6599
2.66741
2.6726
2.68304
2.68719
2.68823
2.6818
2.65652
1
1.00001
1.00002
1.00008
1.00015
1.00045
1.00086
1.00243
1.00534
1.01322
1.03601
1.07911
1.24381
1.60447
2.36908
2.64438
2.654
2.65191
2.65236
2.6582
2.65799
2.65583
2.64644
2.62539
2.57689
0.999995
1.00002
1.00004
1.00015
1.00028
1.0009
1.00167
1.00493
1.01039
1.02671
1.07243
1.15961
1.50175
2.27538
2.64256
2.73129
2.72534
2.72094
2.7357
2.74768
2.76107
2.76934
2.77638
2.78102
2.7842
0.999995
1.00002
1.00004
1.00015
1.00027
1.00089
1.00165
1.00486
1.01024
1.02633
1.07137
1.15732
1.49448
2.26229
2.6389
2.73125
2.72515
2.72048
2.73509
2.74695
2.76006
2.76803
2.77504
2.77866
2.7811
0.999995
1.00002
1.00004
1.00014
1.00027
1.00086
1.0016
1.00474
1.00993
1.02567
1.06908
1.15322
1.47652
2.23136
2.62877
2.72957
2.72332
2.71805
2.73277
2.74434
2.7577
2.76479
2.77185
2.77624
2.77755
0.999995
1.00002
1.00004
1.00014
1.00026
1.00083
1.00153
1.00456
1.00948
1.02466
1.06564
1.14698
1.44941
2.18264
2.61256
2.72642
2.71978
2.71323
2.7277
2.73963
2.75324
2.76109
2.76655
2.76942
2.77286
0.999995
1.00001
1.00003
1.00013
1.00024
1.00079
1.00145
1.00446
1.00885
1.02392
1.06004
1.13868
1.41108
2.11225
2.58935
2.72131
2.71504
2.70553
2.72086
2.72983
2.74388
2.75186
2.76001
2.76352
2.76298
0.999995
1.00001
1.00003
1.00012
1.00023
1.00074
1.00136
1.00423
1.00812
1.02288
1.0535
1.12867
1.36667
2.02276
2.55784
2.71337
2.70688
2.69681
2.71306
2.72333
2.73347
2.74205
2.7468
2.74925
2.75317
0.999995
1.00001
1.00003
1.00011
1.00021
1.00068
1.00124
1.00387
1.00738
1.02108
1.04748
1.11813
1.32111
1.92233
2.51315
2.69745
2.68855
2.67844
2.69501
2.70924
2.72119
2.72682
2.73473
2.7368
2.73338
0.999995
1.00001
1.00003
1.0001
1.00019
1.00062
1.00113
1.00352
1.00669
1.01924
1.04272
1.10759
1.2876
1.83292
2.49119
2.68821
2.67948
2.66697
2.6812
2.69058
2.70423
2.70818
2.70975
2.70926
2.70933
0.999995
1.00001
1.00002
1.00009
1.00017
1.00055
1.001
1.00315
1.00597
1.01715
1.03861
1.09436
1.26271
1.71498
2.45722
2.67515
2.65852
2.65984
2.66734
2.67253
2.68298
2.68713
2.68817
2.68173
2.65646
0.999994
1.00001
1.00002
1.00007
1.00014
1.00045
1.00085
1.00242
1.00533
1.01321
1.03599
1.07908
1.2438
1.60441
2.36901
2.64432
2.65395
2.65186
2.6523
2.65814
2.65793
2.65577
2.64638
2.62533
2.57683
0.999996
1
1.00002
1.00005
1.00017
1.00031
1.00098
1.00189
1.00537
1.01184
1.02964
1.08203
1.18015
1.55284
2.34242
2.58443
2.63943
2.6344
2.63356
2.6381
2.63729
2.62941
2.60765
2.55487
2.36127
0.999996
1
1.00002
1.00004
1.00015
1.00027
1.00087
1.00161
1.00475
1.00997
1.02565
1.06907
1.15287
1.47375
2.21553
2.53991
2.63317
2.62489
2.61244
2.60989
2.60466
2.58893
2.55422
2.49126
2.29597
0.999995
0.999999
1.00001
1.00003
1.00013
1.00023
1.00076
1.00138
1.0043
1.00827
1.02298
1.05495
1.12989
1.37467
2.02339
2.46337
2.61816
2.6111
2.60021
2.58978
2.58084
2.56129
2.51625
2.45324
2.2963
0.999995
0.999998
1.00001
1.00003
1.0001
1.00019
1.00062
1.00114
1.00355
1.00671
1.01939
1.04224
1.10848
1.27892
1.82147
2.36106
2.58068
2.57658
2.57263
2.55964
2.54371
2.51972
2.47786
2.42767
2.30909
0.999995
0.999997
1.00001
1.00002
1.00008
1.00015
1.0005
1.00092
1.00282
1.00546
1.01528
1.03498
1.08476
1.23344
1.63483
2.28985
2.54575
2.55502
2.55344
2.54526
2.52528
2.4981
2.43786
2.39431
2.31049
0.999994
0.999997
1
1.00002
1.00004
1.00016
1.0003
1.00092
1.00177
1.00493
1.01108
1.02707
1.07596
1.16308
1.51496
2.22888
2.46401
2.52098
2.51359
2.51071
2.4998
2.48044
2.432
2.36807
2.30348
0.999994
0.999996
0.999999
1.00002
1.00004
1.00013
1.00024
1.00078
1.00142
1.00435
1.00856
1.02316
1.0574
1.13241
1.38705
2.03004
2.40105
2.50919
2.50077
2.48972
2.46646
2.44392
2.41599
2.35923
2.2977
0.999993
0.999995
0.999997
1.00001
1.00003
1.0001
1.00018
1.00059
1.0011
1.00338
1.00649
1.01846
1.04071
1.10397
1.26528
1.78922
2.25506
2.46919
2.47313
2.46763
2.45288
2.42144
2.39108
2.34233
2.28508
0.999993
0.999994
0.999997
1
1.00002
1.00005
1.00018
1.00034
1.00105
1.00199
1.00572
1.01214
1.03102
1.08269
1.18437
1.53622
2.21343
2.41473
2.43931
2.43069
2.42223
2.40113
2.37722
2.3358
2.28215
0.999992
0.999993
0.999996
0.999999
1.00002
1.00004
1.00013
1.00025
1.00079
1.00148
1.00429
1.0091
1.02315
1.06177
1.13718
1.41037
2.05472
2.34847
2.42015
2.41295
2.39613
2.36885
2.3442
2.31787
2.27531
0.999992
0.999992
0.999994
0.999999
1
1.00003
1.00007
1.00023
1.00044
1.00128
1.00264
1.00682
1.01698
1.0392
1.11252
1.25068
1.7145
2.20159
2.3895
2.39183
2.38249
2.35954
2.32929
2.29749
2.26573
0.999992
0.999992
0.999993
0.999997
1
1.00002
1.00005
1.00017
1.00032
1.001
1.00187
1.00548
1.01136
1.02931
1.07699
1.1711
1.49541
2.11636
2.32793
2.35878
2.35262
2.33822
2.3099
2.27868
2.24469
0.999991
0.999992
0.999993
0.999994
1
1.00001
1.00004
1.00009
1.00028
1.00054
1.00152
1.00328
1.00818
1.0214
1.04814
1.1411
1.31509
1.86539
2.23175
2.33626
2.33434
2.32422
2.30194
2.26969
2.23702
0.999991
0.999991
0.999992
0.999993
0.999998
1
1.00003
1.00006
1.00021
1.00038
1.00121
1.00222
1.00669
1.0133
1.0354
1.08491
1.21049
1.52219
2.11007
2.28005
2.29657
2.29338
2.28094
2.25448
2.22361
0.999991
0.999991
0.999991
0.999993
0.999994
1
1.00001
1.00005
1.0001
1.00034
1.00063
1.00191
1.00371
1.01013
1.02313
1.05556
1.15186
1.36336
1.8837
2.2115
2.27778
2.27579
2.2626
2.24426
2.21299
0.999991
0.999991
0.999991
0.999992
0.999993
0.999998
1
1.00003
1.00007
1.00023
1.00042
1.00132
1.00245
1.00709
1.01479
1.03754
1.0977
1.22226
1.58538
2.04757
2.23444
2.2457
2.2404
2.22519
2.20066
0.999991
0.999991
0.999991
0.999991
0.999993
0.999995
1
1.00001
1.00006
1.00011
1.00037
1.00069
1.00206
1.00399
1.01111
1.02441
1.05989
1.15311
1.39641
1.8811
2.16319
2.22143
2.22006
2.20661
2.18822
0.999991
0.999991
0.999991
0.999991
0.999992
0.999993
0.999999
1.00001
1.00004
1.00007
1.00024
1.00045
1.00138
1.00257
1.00739
1.01539
1.03902
1.1005
1.23095
1.59721
2.01078
2.17716
2.19389
2.18903
2.17451
0.999991
0.999991
0.999991
0.999991
0.999991
0.999993
0.999995
1
1.00001
1.00006
1.00012
1.00037
1.0007
1.00208
1.00407
1.01125
1.02427
1.06242
1.1469
1.41905
1.83021
2.09124
2.15694
2.16235
2.15669
0.999991
0.999991
0.999991
0.999991
0.999991
0.999992
0.999994
0.999997
1.00001
1.00003
1.00009
1.00018
1.00057
1.00106
1.00313
1.00612
1.01665
1.03726
1.09065
1.22955
1.62081
1.9626
2.11157
2.13082
2.12934
0.999991
0.999991
0.999991
0.999991
0.999991
0.999991
0.999993
0.999995
1
1.00001
1.00006
1.00011
1.00036
1.00067
1.00202
1.00381
1.01085
1.02246
1.05801
1.13647
1.36908
1.77606
2.03786
2.1017
2.10794
0.999991
0.999991
0.999991
0.999991
0.999991
0.999991
0.999992
0.999994
0.999996
1.00001
1.00002
1.00009
1.00017
1.00051
1.00097
1.00283
1.00553
1.01507
1.0328
1.08202
1.19707
1.54445
1.89148
2.05853
2.07446
0.999991
0.999991
0.999991
0.999991
0.999991
0.999991
0.999991
0.999993
0.999994
1
1.00001
1.00005
1.0001
1.00032
1.00059
1.0018
1.00336
1.00952
1.02001
1.05041
1.12311
1.30797
1.69582
1.98782
2.05717
0.999991
0.999991
0.999991
0.999991
0.999991
0.999991
0.999991
0.999992
0.999993
0.999997
1
1.00003
1.00006
1.00019
1.00035
1.00108
1.00198
1.00581
1.01138
1.03024
1.06832
1.16857
1.40101
1.83295
2.00535
0.999991
0.999991
0.999991
0.999991
0.999991
0.999991
0.999991
0.999991
0.999992
0.999995
0.999998
1.00001
1.00003
1.00011
1.00021
1.00065
1.00119
1.00356
1.0068
1.01863
1.04178
1.09804
1.26048
1.66401
1.89849
0.999991
0.999991
0.999991
0.999991
0.999991
0.999991
0.999991
0.999991
0.999992
0.999993
0.999996
1
1.00002
1.00005
1.00015
1.00029
1.00087
1.00165
1.00467
1.00955
1.02433
1.05993
1.13394
1.35872
1.77636
0.999991
0.999991
0.999991
0.999991
0.999991
0.999991
0.999991
0.999991
0.999991
0.999992
0.999993
0.999998
1
1.00003
1.00007
1.00021
1.0004
1.00117
1.00225
1.00615
1.01318
1.0321
1.08239
1.17974
1.47574
0.999991
0.999991
0.999991
0.999991
0.999991
0.999991
0.999991
0.999991
0.999991
0.999991
0.999993
0.999994
1
1.00001
1.00005
1.00009
1.00029
1.00055
1.00162
1.00313
1.00854
1.01825
1.04521
1.10757
1.27516
0.999991
0.999991
0.999991
0.999991
0.999991
0.999991
0.999991
0.999991
0.999991
0.999991
0.999992
0.999993
0.999997
1
1.00002
1.00005
1.00017
1.00031
1.00094
1.00174
1.00506
1.00982
1.02612
1.05848
1.14141
0.999991
0.999991
0.999991
0.999991
0.999991
0.999991
0.999991
0.999991
0.999991
0.999991
0.999991
0.999992
0.999993
0.999998
1
1.00003
1.00007
1.00022
1.00041
1.0012
1.00229
1.00638
1.01311
1.03274
1.07838
0.999991
0.999991
0.999991
0.999991
0.999991
0.999991
0.999991
0.999991
0.999991
0.999991
0.999991
0.999991
0.999993
0.999994
1
1.00001
1.00005
1.00009
1.00029
1.00055
1.00158
1.00308
1.00835
1.01746
1.04449
0.999991
0.999991
0.999991
0.999991
0.999991
0.999991
0.999991
0.999991
0.999991
0.999991
0.999991
0.999991
0.999992
0.999993
0.999995
1
1.00002
1.00006
1.00013
1.00039
1.00073
1.00209
1.00407
1.011
1.02299
0.999991
0.999991
0.999991
0.999991
0.999991
0.999991
0.999991
0.999991
0.999991
0.999991
0.999991
0.999991
0.999991
0.999992
0.999993
0.999999
1.00001
1.00003
1.00007
1.00023
1.00042
1.00126
1.00236
1.00668
1.0131
0.999991
0.999991
0.999991
0.999991
0.999991
0.999991
0.999991
0.999991
0.999991
0.999991
0.999991
0.999991
0.999991
0.999991
0.999993
0.999995
1
1.00001
1.00006
1.00012
1.00036
1.00068
1.00199
1.00382
1.01057
0.999991
0.999991
0.999991
0.999991
0.999991
0.999991
0.999991
0.999991
0.999991
0.999991
0.999991
0.999991
0.999991
0.999991
0.999992
0.999995
0.999998
1.00001
1.00003
1.00012
1.00023
1.0007
1.00133
1.00392
1.00786
0.999991
0.999991
0.999991
0.999991
0.999991
0.999991
0.999991
0.999991
0.999991
0.999991
0.999991
0.999991
0.999991
0.999991
0.999992
0.999993
0.999999
1.00001
1.00004
1.00007
1.00024
1.00047
1.00132
1.00294
1.00722
0.999991
0.999991
0.999991
0.999991
0.999991
0.999991
0.999991
0.999991
0.999991
0.999991
0.999991
0.999991
0.999991
0.999991
0.999992
0.999994
0.999997
1.00001
1.00003
1.0001
1.0002
1.00064
1.00118
1.00362
1.00714
0.999991
0.999991
0.999991
0.999991
0.999991
0.999991
0.999991
0.999991
0.999991
0.999991
0.999991
0.999991
0.999991
0.999991
0.999992
0.999994
0.999997
1.00001
1.00003
1.0001
1.00019
1.00062
1.00115
1.00355
1.007
0.999991
0.999991
0.999991
0.999991
0.999991
0.999991
0.999991
0.999991
0.999991
0.999991
0.999991
0.999991
0.999991
0.999991
0.999992
0.999993
0.999998
1
1.00003
1.00007
1.00024
1.00045
1.00137
1.00277
1.00735
0.999991
0.999991
0.999991
0.999991
0.999991
0.999991
0.999991
0.999991
0.999991
0.999991
0.999991
0.999991
0.999991
0.999991
0.999992
0.999993
0.999999
1
1.00004
1.00007
1.00025
1.00046
1.00145
1.00273
1.00787
1
1.00001
1.00003
1.00006
1.00018
1.00032
1.00099
1.0019
1.00538
1.01185
1.02966
1.08204
1.18018
1.55287
2.34251
2.5845
2.63948
2.63445
2.63362
2.63815
2.63734
2.62947
2.60771
2.55493
2.36131
1
1.00001
1.00003
1.00005
1.00015
1.00028
1.00088
1.00162
1.00476
1.00998
1.02567
1.06908
1.15291
1.47377
2.21562
2.53998
2.63323
2.62494
2.61249
2.60995
2.60471
2.58898
2.55428
2.49131
2.29601
1
1.00001
1.00002
1.00004
1.00013
1.00024
1.00077
1.00138
1.00431
1.00828
1.023
1.05495
1.12992
1.37467
2.02345
2.46344
2.61822
2.61116
2.60026
2.58983
2.58088
2.56134
2.51629
2.45328
2.29634
1
1.00001
1.00002
1.00003
1.00011
1.0002
1.00063
1.00115
1.00356
1.00672
1.0194
1.04225
1.1085
1.27894
1.82152
2.36112
2.58074
2.57664
2.57268
2.55968
2.54375
2.51977
2.4779
2.42772
2.30913
1
1
1.00002
1.00003
1.00009
1.00016
1.00051
1.00093
1.00283
1.00547
1.01529
1.03499
1.08478
1.23343
1.63489
2.28991
2.54581
2.55508
2.55349
2.54531
2.52532
2.49814
2.43789
2.39437
2.31052
1
1
1.00001
1.00003
1.00005
1.00017
1.0003
1.00093
1.00178
1.00494
1.01109
1.02709
1.07597
1.16311
1.51498
2.22896
2.46407
2.52103
2.51364
2.51076
2.49984
2.48048
2.43203
2.36811
2.30351
1
1
1.00001
1.00002
1.00004
1.00014
1.00025
1.00079
1.00143
1.00436
1.00857
1.02318
1.0574
1.13244
1.38703
2.03009
2.40111
2.50924
2.50081
2.48976
2.46651
2.44397
2.41603
2.35927
2.29774
1
1
1.00001
1.00002
1.00003
1.00011
1.00019
1.0006
1.00111
1.00339
1.0065
1.01847
1.04072
1.10399
1.2653
1.78929
2.25511
2.46924
2.47318
2.46768
2.45292
2.42148
2.39112
2.34237
2.28512
1
1
1.00001
1.00001
1.00003
1.00006
1.00019
1.00035
1.00106
1.002
1.00573
1.01215
1.03104
1.0827
1.18441
1.53625
2.21349
2.41478
2.43935
2.43073
2.42227
2.40118