/*--------------------------------*- C++ -*----------------------------------*\
| =========                 |                                                 |
| \\      /  F ield         | OpenFOAM: The Open Source CFD Toolbox           |
|  \\    /   O peration     | Version:  4.1                                   |
|   \\  /    A nd           | Web:      www.OpenFOAM.org                      |
|    \\/     M anipulation  |                                                 |
\*---------------------------------------------------------------------------*/
FoamFile
{
    version     2.0;
    format      ascii;
    class       volScalarField;
    location    "10";
    object      p;
}
// * * * * * * * * * * * * * * * * * * * * * * * * * * * * * * * * * * * * * //

dimensions      [1 -1 -2 0 0 0 0];

internalField   nonuniform List<scalar> 
500
(
0.999985
0.999994
0.999996
0.999996
0.999996
0.999965
0.999985
0.999989
0.999991
0.999991
0.999944
0.999977
0.999983
0.999986
0.999986
0.999924
0.999968
0.999977
0.99998
0.999981
0.999904
0.999958
0.999971
0.999975
0.999975
0.999883
0.999949
0.999965
0.999969
0.99997
0.999862
0.999939
0.999958
0.999963
0.999964
0.999841
0.999929
0.999951
0.999957
0.999958
0.99982
0.999919
0.999944
0.999951
0.999952
0.999799
0.999908
0.999937
0.999944
0.999945
0.999778
0.999898
0.99993
0.999938
0.999939
0.999757
0.999887
0.999922
0.999931
0.999932
0.999735
0.999876
0.999914
0.999924
0.999925
0.999713
0.999864
0.999906
0.999916
0.999918
0.999692
0.999853
0.999898
0.999909
0.999911
0.99967
0.999841
0.99989
0.999901
0.999903
0.999648
0.999829
0.999881
0.999893
0.999895
0.999626
0.999816
0.999872
0.999885
0.999887
0.999603
0.999804
0.999863
0.999877
0.999879
0.999581
0.999791
0.999853
0.999868
0.99987
0.999559
0.999778
0.999843
0.999859
0.999861
0.999537
0.999765
0.999833
0.999849
0.999852
0.999514
0.999751
0.999823
0.99984
0.999842
0.999492
0.999738
0.999812
0.99983
0.999833
0.99947
0.999724
0.999801
0.999819
0.999822
0.999447
0.999709
0.99979
0.999808
0.999812
0.999425
0.999695
0.999778
0.999797
0.999801
0.999403
0.99968
0.999766
0.999786
0.999789
0.99938
0.999665
0.999753
0.999774
0.999778
0.999358
0.99965
0.99974
0.999762
0.999765
0.999336
0.999634
0.999727
0.999749
0.999753
0.999314
0.999618
0.999713
0.999736
0.99974
0.999293
0.999602
0.999699
0.999723
0.999726
0.999271
0.999586
0.999685
0.999709
0.999712
0.999249
0.999569
0.99967
0.999694
0.999698
0.999228
0.999552
0.999655
0.999679
0.999683
0.999206
0.999534
0.999639
0.999664
0.999668
0.999185
0.999517
0.999622
0.999648
0.999652
0.999164
0.999499
0.999606
0.999631
0.999636
0.999143
0.99948
0.999588
0.999614
0.999619
0.999123
0.999462
0.999571
0.999597
0.999601
0.999102
0.999443
0.999553
0.999579
0.999583
0.999082
0.999423
0.999534
0.999561
0.999565
0.999062
0.999404
0.999515
0.999541
0.999546
0.999042
0.999384
0.999495
0.999522
0.999526
0.999022
0.999363
0.999475
0.999502
0.999506
0.999002
0.999343
0.999454
0.999481
0.999485
0.998982
0.999322
0.999433
0.99946
0.999464
0.998963
0.9993
0.999411
0.999438
0.999442
0.998943
0.999278
0.999388
0.999415
0.99942
0.998923
0.999256
0.999365
0.999392
0.999397
0.998904
0.999233
0.999342
0.999369
0.999373
0.998885
0.99921
0.999318
0.999344
0.999349
0.998865
0.999187
0.999293
0.99932
0.999324
0.998846
0.999163
0.999268
0.999294
0.999299
0.998826
0.999139
0.999243
0.999269
0.999273
0.998806
0.999114
0.999217
0.999242
0.999247
0.998786
0.999089
0.99919
0.999215
0.99922
0.998766
0.999064
0.999163
0.999188
0.999192
0.998746
0.999038
0.999135
0.99916
0.999164
0.998726
0.999011
0.999107
0.999131
0.999135
0.998705
0.998985
0.999079
0.999102
0.999106
0.998684
0.998957
0.99905
0.999073
0.999077
0.998662
0.99893
0.99902
0.999043
0.999047
0.99864
0.998902
0.99899
0.999012
0.999016
0.998618
0.998873
0.998959
0.998981
0.998985
0.998596
0.998844
0.998928
0.99895
0.998953
0.998572
0.998814
0.998897
0.998918
0.998921
0.998549
0.998784
0.998865
0.998885
0.998889
0.998524
0.998754
0.998833
0.998853
0.998856
0.9985
0.998723
0.9988
0.998819
0.998823
0.998474
0.998692
0.998767
0.998786
0.998789
0.998448
0.99866
0.998733
0.998751
0.998755
0.998422
0.998628
0.998699
0.998717
0.99872
0.998394
0.998595
0.998664
0.998682
0.998685
0.998367
0.998562
0.998629
0.998647
0.99865
0.998338
0.998528
0.998594
0.998611
0.998614
0.998309
0.998493
0.998558
0.998574
0.998577
0.99828
0.998459
0.998522
0.998538
0.998541
0.998248
0.998423
0.998485
0.9985
0.998503
0.998218
0.998389
0.998448
0.998464
0.998466
0.998186
0.998352
0.99841
0.998426
0.998428
0.998153
0.998315
0.998372
0.998387
0.99839
0.998121
0.998279
0.998335
0.998349
0.998352
0.998087
0.998241
0.998296
0.99831
0.998312
0.998054
0.998204
0.998257
0.998271
0.998273
0.99802
0.998167
0.998219
0.998232
0.998235
0.997983
0.998127
0.998178
0.998191
0.998194
0.997952
0.998092
0.998142
0.998155
0.998157
0.997914
0.998052
0.998101
0.998114
0.998116
0.997882
0.998017
0.998064
0.998077
0.998079
0.997848
0.99798
0.998027
0.998039
0.998041
0.997816
0.997946
0.997992
0.998003
0.998005
0.997783
0.99791
0.997954
0.997966
0.997968
0.997758
0.997882
0.997926
0.997937
0.997939
0.997725
0.997847
0.99789
0.997901
0.997903
0.997704
0.997823
0.997866
0.997877
0.997879
0.997666
0.997784
0.997826
0.997837
0.997839
0.997585
0.997703
0.997745
0.997756
0.997757
0.997413
0.997533
0.997574
0.997585
0.997587
)
;

boundaryField
{
    axis
    {
        type            empty;
    }
    inlet
    {
        type            fixedValue;
        value           uniform 1;
    }
    wall
    {
        type            zeroGradient;
    }
    outlet
    {
        type            waveTransmissive;
        gamma           1.4;
        fieldInf        1;
        lInf            3;
        value           nonuniform List<scalar> 5(0.99762 0.997731 0.997769 0.997779 0.997781);
    }
    front
    {
        type            wedge;
    }
    back
    {
        type            wedge;
    }
}


// ************************************************************************* //
