/*--------------------------------*- C++ -*----------------------------------*\
| =========                 |                                                 |
| \\      /  F ield         | OpenFOAM: The Open Source CFD Toolbox           |
|  \\    /   O peration     | Version:  4.1                                   |
|   \\  /    A nd           | Web:      www.OpenFOAM.org                      |
|    \\/     M anipulation  |                                                 |
\*---------------------------------------------------------------------------*/
FoamFile
{
    version     2.0;
    format      ascii;
    class       volVectorField;
    location    "10";
    object      U;
}
// * * * * * * * * * * * * * * * * * * * * * * * * * * * * * * * * * * * * * //

dimensions      [0 1 -1 0 0 0 0];

internalField   nonuniform List<vector> 
500
(
(3.00001 -6.1528e-08 4.38078e-17)
(3 -5.26346e-08 8.52792e-20)
(3 -1.97657e-08 9.95168e-18)
(3 -1.18918e-08 1.33835e-24)
(3 -4.48882e-09 1.23457e-23)
(3.00001 -2.08231e-07 4.35811e-17)
(3 -1.80097e-07 1.72344e-19)
(3 -6.92154e-08 1.00384e-17)
(3 -3.87742e-08 1.51734e-17)
(3 -1.34416e-08 1.23434e-23)
(3.00002 -4.40189e-07 8.67024e-17)
(3.00001 -3.84738e-07 2.633e-19)
(3 -1.50152e-07 1.03732e-17)
(3 -7.94026e-08 2.9786e-17)
(3 -2.61067e-08 1.31542e-23)
(3.00002 -7.59376e-07 8.63164e-17)
(3.00001 -6.70464e-07 1.5442e-17)
(3.00001 -2.64557e-07 3.02677e-17)
(3.00001 -1.32846e-07 2.88397e-17)
(3.00001 -4.21143e-08 2.28767e-23)
(3.00003 -1.16821e-06 4.31267e-17)
(3.00001 -1.04074e-06 3.02205e-17)
(3.00001 -4.14314e-07 1.07637e-17)
(3.00001 -1.98894e-07 2.7905e-17)
(3.00001 -6.13399e-08 2.44868e-23)
(3.00003 -1.66941e-06 4.30542e-17)
(3.00001 -1.49891e-06 3.02222e-17)
(3.00001 -6.01162e-07 3.0396e-17)
(3.00001 -2.77548e-07 2.65619e-17)
(3.00001 -8.37876e-08 -1.27224e-17)
(3.00004 -2.26576e-06 4.29805e-17)
(3.00002 -2.04826e-06 3.022e-17)
(3.00001 -8.26774e-07 3.00305e-17)
(3.00001 -3.68939e-07 1.05181e-17)
(3.00001 -1.09543e-07 -1.27224e-17)
(3.00004 -2.96026e-06 4.29051e-17)
(3.00002 -2.69198e-06 3.02142e-17)
(3.00001 -1.09272e-06 2.96494e-17)
(3.00001 -4.7329e-07 9.71883e-18)
(3.00001 -1.38731e-07 -1.27223e-17)
(3.00004 -3.75593e-06 1.0529e-18)
(3.00002 -3.43317e-06 3.03931e-17)
(3.00001 -1.40051e-06 4.79697e-17)
(3.00001 -5.90863e-07 -5.59671e-18)
(3.00001 -1.71512e-07 -1.27223e-17)
(3.00005 -4.65588e-06 4.31568e-17)
(3.00002 -4.27485e-06 3.05629e-17)
(3.00002 -1.75159e-06 4.69105e-17)
(3.00001 -7.21963e-07 -6.29605e-18)
(3.00001 -2.08057e-07 -2.51519e-17)
(3.00005 -5.66326e-06 1.9939e-18)
(3.00003 -5.21999e-06 3.05261e-17)
(3.00002 -2.14729e-06 2.70771e-17)
(3.00002 -8.66881e-07 -7.43419e-18)
(3.00002 -2.48558e-07 -3.75057e-17)
(3.00006 -6.78121e-06 2.28863e-18)
(3.00003 -6.27141e-06 3.02848e-17)
(3.00002 -2.5889e-06 8.01569e-18)
(3.00002 -1.02592e-06 5.68057e-18)
(3.00002 -2.93205e-07 -3.75055e-17)
(3.00007 -8.01288e-06 8.40698e-17)
(3.00003 -7.43189e-06 3.00371e-17)
(3.00002 -3.07759e-06 7.64073e-18)
(3.00002 -1.19933e-06 -1.00884e-17)
(3.00002 -3.42202e-07 -3.75054e-17)
(3.00007 -9.36136e-06 8.36824e-17)
(3.00003 -8.70403e-06 5.76078e-17)
(3.00002 -3.61444e-06 -1.14159e-17)
(3.00002 -1.38736e-06 -2.4709e-17)
(3.00002 -3.95746e-07 -2.53853e-17)
(3.00008 -1.08298e-05 1.63727e-16)
(3.00004 -1.00903e-05 2.90826e-17)
(3.00003 -4.20041e-06 -1.17027e-17)
(3.00002 -1.59022e-06 -2.47355e-17)
(3.00002 -4.54038e-07 -2.53852e-17)
(3.00008 -1.2421e-05 1.62659e-16)
(3.00004 -1.15931e-05 2.88118e-17)
(3.00003 -4.83638e-06 -1.2293e-17)
(3.00002 -1.80806e-06 -3.85825e-17)
(3.00002 -5.17277e-07 -2.53851e-17)
(3.00009 -1.41381e-05 1.61636e-16)
(3.00004 -1.32146e-05 2.82645e-17)
(3.00003 -5.52305e-06 -3.08502e-17)
(3.00003 -2.041e-06 -3.80422e-17)
(3.00003 -5.85654e-07 -2.5385e-17)
(3.00009 -1.59837e-05 1.60635e-16)
(3.00005 -1.49567e-05 2.7544e-17)
(3.00003 -6.26104e-06 -3.10022e-17)
(3.00003 -2.2891e-06 -3.7514e-17)
(3.00003 -6.59365e-07 -2.53849e-17)
(3.0001 -1.79606e-05 1.59636e-16)
(3.00005 -1.68212e-05 2.6898e-17)
(3.00003 -7.05076e-06 -1.34305e-17)
(3.00003 -2.55238e-06 -3.69983e-17)
(3.00003 -7.38587e-07 -2.53848e-17)
(3.0001 -2.00713e-05 1.58825e-16)
(3.00005 -1.88096e-05 5.2822e-17)
(3.00004 -7.89254e-06 -3.18569e-17)
(3.00003 -2.8308e-06 -4.93809e-17)
(3.00003 -8.23505e-07 -1.37614e-17)
(3.00011 -2.23181e-05 2.34988e-16)
(3.00006 -2.09232e-05 2.51513e-17)
(3.00004 -8.78647e-06 -1.51285e-17)
(3.00004 -3.12427e-06 -6.10872e-17)
(3.00003 -9.14283e-07 -1.37613e-17)
(3.00011 -2.47031e-05 3.10149e-16)
(3.00006 -2.31629e-05 5.11546e-17)
(3.00004 -9.73254e-06 7.61405e-19)
(3.00004 -3.43263e-06 -7.21253e-17)
(3.00004 -1.01109e-06 -1.37613e-17)
(3.00012 -2.72283e-05 3.08094e-16)
(3.00006 -2.55294e-05 5.04022e-17)
(3.00004 -1.07305e-05 -1.0019e-18)
(3.00004 -3.75568e-06 -6.94517e-17)
(3.00004 -1.11408e-06 -1.37612e-17)
(3.00012 -2.98953e-05 3.81389e-16)
(3.00007 -2.8023e-05 4.94367e-17)
(3.00005 -1.17799e-05 -1.9723e-17)
(3.00004 -4.09315e-06 -6.79048e-17)
(3.00004 -1.22338e-06 -3.63037e-17)
(3.00013 -3.27056e-05 3.03895e-16)
(3.00007 -3.06438e-05 4.84916e-17)
(3.00005 -1.28802e-05 -2.02436e-17)
(3.00004 -4.44471e-06 -3.96945e-17)
(3.00004 -1.33915e-06 -1.39421e-17)
(3.00013 -3.56602e-05 3.75678e-16)
(3.00007 -3.33912e-05 2.19886e-17)
(3.00005 -1.40305e-05 -2.0109e-17)
(3.00005 -4.80998e-06 -1.51823e-17)
(3.00005 -1.46148e-06 -5.82986e-17)
(3.00014 -3.87598e-05 3.72441e-16)
(3.00008 -3.62645e-05 -3.92548e-18)
(3.00006 -1.52299e-05 -2.00624e-17)
(3.00005 -5.1885e-06 -1.8391e-17)
(3.00005 -1.5905e-06 -8.02915e-17)
(3.00014 -4.2005e-05 3.69161e-16)
(3.00008 -3.92624e-05 -4.12232e-18)
(3.00006 -1.64769e-05 -2.01018e-17)
(3.00005 -5.57977e-06 -2.14972e-17)
(3.00005 -1.72629e-06 -8.02911e-17)
(3.00015 -4.53958e-05 3.65824e-16)
(3.00008 -4.23833e-05 -4.34176e-18)
(3.00006 -1.77702e-05 -2.095e-17)
(3.00006 -5.98321e-06 -5.03047e-17)
(3.00005 -1.86893e-06 -1.01908e-16)
(3.00015 -4.89318e-05 3.6242e-16)
(3.00009 -4.56249e-05 -4.09699e-18)
(3.00006 -1.9108e-05 1.03986e-17)
(3.00006 -6.39822e-06 -5.18741e-17)
(3.00006 -2.01849e-06 -8.0481e-17)
(3.00016 -5.26122e-05 2.88024e-16)
(3.00009 -4.89849e-05 -3.88871e-18)
(3.00007 -2.04884e-05 8.54022e-18)
(3.00006 -6.82406e-06 -5.33885e-17)
(3.00006 -2.17501e-06 -8.04806e-17)
(3.00016 -5.6436e-05 2.8516e-16)
(3.00009 -5.24598e-05 -4.2114e-18)
(3.00007 -2.19092e-05 -2.4919e-17)
(3.00007 -7.26003e-06 -5.37144e-17)
(3.00006 -2.33851e-06 -5.94414e-17)
(3.00017 -6.04015e-05 3.51877e-16)
(3.0001 -5.60462e-05 -4.06121e-18)
(3.00008 -2.33679e-05 4.84126e-18)
(3.00007 -7.70529e-06 -7.66044e-17)
(3.00007 -2.50901e-06 -3.85988e-17)
(3.00017 -6.45064e-05 3.47891e-16)
(3.0001 -5.97398e-05 -5.09469e-17)
(3.00008 -2.48619e-05 3.33993e-17)
(3.00007 -8.15901e-06 -7.56347e-17)
(3.00007 -2.6865e-06 -5.92425e-17)
(3.00018 -6.87484e-05 3.43487e-16)
(3.00011 -6.35361e-05 -9.66108e-17)
(3.00008 -2.63883e-05 3.08106e-17)
(3.00008 -8.62027e-06 -5.14848e-17)
(3.00007 -2.87095e-06 -5.92419e-17)
(3.00018 -7.31241e-05 2.71574e-16)
(3.00011 -6.74297e-05 -9.44943e-17)
(3.00009 -2.7944e-05 2.82798e-17)
(3.00008 -9.08811e-06 -5.07625e-17)
(3.00008 -3.0623e-06 -3.89987e-17)
(3.00019 -7.76302e-05 2.67932e-16)
(3.00012 -7.14149e-05 -9.24354e-17)
(3.00009 -2.95255e-05 2.50422e-17)
(3.00008 -9.56154e-06 -7.27797e-17)
(3.00008 -3.26048e-06 -3.89971e-17)
(3.00019 -8.22623e-05 2.6429e-16)
(3.00012 -7.54855e-05 -9.04486e-17)
(3.00009 -3.11295e-05 2.11374e-17)
(3.00009 -1.00395e-05 -9.32103e-17)
(3.00009 -3.46542e-06 -3.8994e-17)
(3.0002 -8.7016e-05 2.60142e-16)
(3.00012 -7.96346e-05 -1.34148e-16)
(3.0001 -3.27519e-05 -1.20024e-17)
(3.00009 -1.05209e-05 -8.9908e-17)
(3.00009 -3.67697e-06 -3.89886e-17)
(3.0002 -9.18862e-05 2.55001e-16)
(3.00013 -8.3855e-05 -2.2117e-16)
(3.0001 -3.4389e-05 -1.38547e-17)
(3.0001 -1.10047e-05 -6.48156e-17)
(3.00009 -3.89502e-06 -3.89801e-17)
(3.0002 -9.68669e-05 1.22223e-16)
(3.00013 -8.81386e-05 -1.73773e-16)
(3.00011 -3.60365e-05 -4.28207e-17)
(3.0001 -1.14897e-05 -1.98332e-17)
(3.0001 -4.1194e-06 -3.89681e-17)
(3.00021 -0.000101952 2.45627e-16)
(3.00014 -9.24775e-05 -1.70778e-16)
(3.00011 -3.769e-05 -1.45011e-17)
(3.0001 -1.19747e-05 -4.36827e-17)
(3.0001 -4.34993e-06 -5.79516e-17)
(3.00021 -0.000107136 2.40924e-16)
(3.00014 -9.68626e-05 -1.67268e-16)
(3.00012 -3.93453e-05 1.24382e-17)
(3.00011 -1.24586e-05 -4.46192e-17)
(3.00011 -4.58641e-06 -5.79348e-17)
(3.00022 -0.00011241 2.36709e-16)
(3.00015 -0.000101285 -1.21713e-16)
(3.00012 -4.09975e-05 -1.58867e-17)
(3.00011 -1.29403e-05 -3.75228e-18)
(3.00011 -4.82862e-06 -5.79191e-17)
(3.00022 -0.000117767 3.54785e-16)
(3.00015 -0.000105735 -1.2068e-16)
(3.00013 -4.26422e-05 -7.03351e-17)
(3.00012 -1.34185e-05 -7.41975e-18)
(3.00012 -5.07632e-06 -5.79073e-17)
(3.00023 -0.0001232 4.69372e-16)
(3.00016 -0.000110202 -1.61723e-16)
(3.00013 -4.42744e-05 -9.51223e-17)
(3.00012 -1.38921e-05 -1.08899e-17)
(3.00012 -5.32922e-06 -5.79023e-17)
(3.00023 -0.0001287 5.80928e-16)
(3.00016 -0.000114677 -1.60234e-16)
(3.00014 -4.58895e-05 -9.05395e-17)
(3.00013 -1.43599e-05 2.35146e-17)
(3.00013 -5.58708e-06 -9.37536e-17)
(3.00024 -0.000134258 6.88929e-16)
(3.00017 -0.000119149 -1.99198e-16)
(3.00014 -4.74826e-05 -8.55002e-17)
(3.00013 -1.48208e-05 3.75455e-17)
(3.00013 -5.84958e-06 -5.83552e-17)
(3.00024 -0.000139865 6.76981e-16)
(3.00017 -0.000123608 -2.367e-16)
(3.00015 -4.90489e-05 -8.0863e-17)
(3.00014 -1.52738e-05 3.06518e-17)
(3.00014 -6.11642e-06 -5.8376e-17)
(3.00024 -0.000145511 6.65032e-16)
(3.00018 -0.000128042 -2.33231e-16)
(3.00015 -5.05838e-05 -7.65196e-17)
(3.00014 -1.57178e-05 2.66499e-17)
(3.00014 -6.38728e-06 -2.3873e-17)
(3.00025 -0.000151187 6.53143e-16)
(3.00018 -0.00013244 -2.29148e-16)
(3.00016 -5.20824e-05 -4.71411e-17)
(3.00015 -1.61518e-05 2.28743e-17)
(3.00015 -6.66178e-06 -2.39107e-17)
(3.00025 -0.000156884 5.28423e-16)
(3.00019 -0.000136792 -3.01983e-16)
(3.00016 -5.35402e-05 -4.44893e-17)
(3.00016 -1.65748e-05 1.67985e-17)
(3.00015 -6.93963e-06 -5.76072e-17)
(3.00026 -0.000162592 4.07753e-16)
(3.0002 -0.000141087 -2.96105e-16)
(3.00017 -5.49526e-05 -4.21424e-17)
(3.00016 -1.6986e-05 1.10962e-17)
(3.00016 -7.22041e-06 -5.76758e-17)
(3.00026 -0.000168301 3.98647e-16)
(3.0002 -0.000145314 -2.91328e-16)
(3.00018 -5.63156e-05 -8.86162e-17)
(3.00017 -1.73845e-05 5.75197e-18)
(3.00017 -7.5038e-06 -5.77491e-17)
(3.00027 -0.000174 6.01734e-16)
(3.00021 -0.000149463 -2.8644e-16)
(3.00018 -5.7625e-05 -8.31322e-17)
(3.00017 -1.77697e-05 3.65897e-17)
(3.00017 -7.78942e-06 -5.7806e-17)
(3.00027 -0.00017968 5.89645e-16)
(3.00021 -0.000153523 -2.8145e-16)
(3.00019 -5.8877e-05 -7.8251e-17)
(3.00018 -1.8141e-05 2.6521e-17)
(3.00018 -8.07689e-06 -8.96822e-17)
(3.00028 -0.000185331 5.76816e-16)
(3.00022 -0.000157484 -3.46851e-16)
(3.0002 -6.00683e-05 -2.5702e-17)
(3.00019 -1.84977e-05 5.69632e-17)
(3.00019 -8.36588e-06 -2.68646e-17)
(3.00028 -0.000190944 6.6552e-16)
(3.00023 -0.000161337 -4.09318e-16)
(3.0002 -6.11955e-05 -2.23356e-17)
(3.00019 -1.88395e-05 4.75542e-17)
(3.00019 -8.65598e-06 -5.7778e-17)
(3.00028 -0.000196508 6.49849e-16)
(3.00023 -0.000165073 -3.99428e-16)
(3.00021 -6.22559e-05 -2.10508e-17)
(3.0002 -1.9166e-05 5.13538e-18)
(3.0002 -8.94688e-06 -5.7731e-17)
(3.00029 -0.000202015 6.33241e-16)
(3.00024 -0.000168682 -4.57096e-16)
(3.00022 -6.32468e-05 2.42719e-17)
(3.00021 -1.9477e-05 -1.59468e-19)
(3.00021 -9.23821e-06 -5.76871e-17)
(3.00029 -0.000207457 6.16772e-16)
(3.00024 -0.000172157 -4.44746e-16)
(3.00022 -6.41663e-05 2.44212e-17)
(3.00021 -1.97723e-05 2.7498e-17)
(3.00021 -9.52963e-06 -5.76514e-17)
(3.0003 -0.000212823 6.00446e-16)
(3.00025 -0.000175491 -4.32621e-16)
(3.00023 -6.50126e-05 2.43206e-17)
(3.00022 -2.0052e-05 2.26391e-17)
(3.00022 -9.82083e-06 -2.84821e-17)
(3.0003 -0.000218107 5.84257e-16)
(3.00026 -0.000178676 -4.21734e-16)
(3.00024 -6.57844e-05 -1.6809e-17)
(3.00023 -2.03161e-05 4.62271e-17)
(3.00023 -1.01115e-05 -5.71494e-17)
(3.00031 -0.000223301 7.55552e-16)
(3.00026 -0.000181707 -4.10865e-16)
(3.00024 -6.64807e-05 -1.42101e-17)
(3.00024 -2.05647e-05 3.51801e-17)
(3.00023 -1.04013e-05 -8.53677e-17)
(3.00031 -0.000228397 7.35617e-16)
(3.00027 -0.000184579 -4.63196e-16)
(3.00025 -6.71012e-05 -1.07091e-17)
(3.00024 -2.07982e-05 5.47126e-17)
(3.00024 -1.06901e-05 -8.53525e-17)
(3.00032 -0.000233388 7.15921e-16)
(3.00028 -0.000187286 -4.50608e-16)
(3.00026 -6.76458e-05 -9.53019e-18)
(3.00025 -2.10169e-05 1.19631e-17)
(3.00025 -1.09774e-05 -8.53408e-17)
(3.00032 -0.00023827 6.96483e-16)
(3.00029 -0.000189826 -4.3812e-16)
(3.00027 -6.81146e-05 -8.85607e-18)
(3.00026 -2.12213e-05 2.926e-18)
(3.00026 -1.12632e-05 -8.53329e-17)
(3.00033 -0.000243036 8.53513e-16)
(3.00029 -0.000192195 -3.65698e-16)
(3.00027 -6.8509e-05 -8.6454e-18)
(3.00027 -2.14121e-05 -5.39635e-18)
(3.00026 -1.15471e-05 -8.53282e-17)
(3.00034 -0.000247681 8.32606e-16)
(3.0003 -0.00019439 -3.54154e-16)
(3.00028 -6.88293e-05 2.92149e-17)
(3.00027 -2.15894e-05 -1.306e-17)
(3.00027 -1.1829e-05 -8.53251e-17)
(3.00034 -0.000252201 8.13011e-16)
(3.00031 -0.000196412 -2.83812e-16)
(3.00029 -6.9078e-05 6.39323e-17)
(3.00028 -2.17545e-05 -2.00883e-17)
(3.00028 -1.21089e-05 -8.53209e-17)
(3.00035 -0.000256592 6.28573e-16)
(3.00032 -0.000198259 -2.17707e-16)
(3.0003 -6.9256e-05 2.2245e-17)
(3.00029 -2.19077e-05 -2.65069e-17)
(3.00029 -1.23863e-05 -8.53125e-17)
(3.00035 -0.00026085 6.13587e-16)
(3.00032 -0.000199931 -2.10464e-16)
(3.00031 -6.93663e-05 2.191e-17)
(3.0003 -2.205e-05 1.60698e-17)
(3.0003 -1.26613e-05 -1.34584e-16)
(3.00036 -0.000264974 5.98871e-16)
(3.00033 -0.00020143 -2.03416e-16)
(3.00031 -6.94113e-05 2.07159e-17)
(3.00031 -2.21822e-05 7.44856e-19)
(3.00031 -1.29337e-05 -1.34558e-16)
(3.00037 -0.000268959 5.84294e-16)
(3.00034 -0.000202755 -1.96663e-16)
(3.00032 -6.93929e-05 1.58267e-17)
(3.00032 -2.23048e-05 -6.4487e-17)
(3.00031 -1.32034e-05 -1.3452e-16)
(3.00037 -0.000272807 5.6975e-16)
(3.00035 -0.000203912 -1.90201e-16)
(3.00033 -6.9316e-05 1.07473e-17)
(3.00032 -2.24194e-05 -7.16717e-17)
(3.00032 -1.34706e-05 -1.34466e-16)
(3.00038 -0.000276512 7.03786e-16)
(3.00036 -0.0002049 -2.35853e-16)
(3.00034 -6.91813e-05 5.51347e-18)
(3.00033 -2.25257e-05 -7.8151e-17)
(3.00033 -1.37347e-05 -1.34403e-16)
(3.00039 -0.000280077 6.86393e-16)
(3.00036 -0.000205726 -2.28224e-16)
(3.00035 -6.89948e-05 2.76886e-18)
(3.00034 -2.2626e-05 -4.04884e-17)
(3.00034 -1.39963e-05 -1.7924e-16)
(3.00039 -0.000283499 8.14666e-16)
(3.00037 -0.00020639 -2.18766e-16)
(3.00036 -6.87578e-05 6.32773e-17)
(3.00035 -2.27199e-05 -5.53559e-17)
(3.00035 -1.42549e-05 -1.79204e-16)
(3.0004 -0.000286779 7.94393e-16)
(3.00038 -0.000206898 -2.07684e-16)
(3.00036 -6.84746e-05 1.17855e-16)
(3.00036 -2.28087e-05 -6.88183e-17)
(3.00036 -1.45107e-05 -1.79196e-16)
(3.00041 -0.000289918 7.7428e-16)
(3.00039 -0.000207257 -1.97234e-16)
(3.00037 -6.81503e-05 1.0539e-16)
(3.00037 -2.28937e-05 -8.09806e-17)
(3.00037 -1.47638e-05 -1.7921e-16)
(3.00042 -0.000292911 7.54501e-16)
(3.0004 -0.000207464 -1.8537e-16)
(3.00038 -6.77846e-05 1.53012e-16)
(3.00038 -2.2974e-05 -9.19397e-17)
(3.00038 -1.50138e-05 -1.79232e-16)
(3.00042 -0.000295769 7.35126e-16)
(3.00041 -0.000207537 -1.7431e-16)
(3.00039 -6.73872e-05 1.36658e-16)
(3.00039 -2.30529e-05 -1.0179e-16)
(3.00038 -1.52614e-05 -1.7925e-16)
(3.00043 -0.000298479 4.5169e-16)
(3.00041 -0.000207466 -2.5386e-16)
(3.0004 -6.69545e-05 1.20932e-16)
(3.00039 -2.31281e-05 -1.06118e-16)
(3.00039 -1.55059e-05 -1.39775e-16)
(3.00044 -0.000301053 4.37057e-16)
(3.00042 -0.000207267 -2.39297e-16)
(3.00041 -6.64954e-05 1.59239e-16)
(3.0004 -2.32023e-05 -1.55926e-16)
(3.0004 -1.57478e-05 -1.78665e-16)
(3.00045 -0.000303491 4.24837e-16)
(3.00043 -0.000206948 -1.37928e-16)
(3.00042 -6.60132e-05 1.91041e-16)
(3.00041 -2.32762e-05 -1.94597e-16)
(3.00041 -1.59872e-05 -1.40369e-16)
(3.00046 -0.000305779 4.14879e-16)
(3.00044 -0.000206494 -4.37129e-17)
(3.00043 -6.55029e-05 1.65714e-16)
(3.00042 -2.3347e-05 -1.8813e-16)
(3.00042 -1.62233e-05 -1.40286e-16)
(3.00046 -0.000307947 4.05298e-16)
(3.00045 -0.000205946 -3.46288e-17)
(3.00044 -6.4983e-05 1.95482e-16)
(3.00043 -2.34209e-05 -1.73721e-16)
(3.00043 -1.64577e-05 -6.73221e-17)
(3.00047 -0.000309965 3.95988e-16)
(3.00046 -0.000205272 -2.86317e-17)
(3.00045 -6.44402e-05 1.2215e-16)
(3.00044 -2.34924e-05 -1.23095e-16)
(3.00044 -1.66889e-05 -6.7386e-17)
(3.00048 -0.000311848 3.86851e-16)
(3.00047 -0.000204496 -2.54804e-17)
(3.00045 -6.38844e-05 5.53115e-17)
(3.00045 -2.35639e-05 -1.16322e-16)
(3.00045 -1.69174e-05 -6.73645e-17)
(3.00049 -0.000313615 3.7614e-16)
(3.00048 -0.000203639 -9.72825e-17)
(3.00046 -6.33274e-05 9.00947e-17)
(3.00046 -2.36402e-05 -1.46102e-16)
(3.00046 -1.71445e-05 -6.73187e-17)
(3.00049 -0.000315221 3.65652e-16)
(3.00048 -0.000202659 -8.88187e-17)
(3.00047 -6.27473e-05 1.22119e-16)
(3.00047 -2.3711e-05 -1.36262e-16)
(3.00046 -1.73674e-05 -6.7307e-17)
(3.0005 -0.000316716 3.55351e-16)
(3.00049 -0.000201614 -8.12447e-17)
(3.00048 -6.2174e-05 1.09238e-16)
(3.00047 -2.37885e-05 -5.90251e-17)
(3.00047 -1.75896e-05 -6.73365e-17)
(3.00051 -0.000318081 3.43543e-16)
(3.0005 -0.000200485 -1.46042e-16)
(3.00048 -6.15932e-05 9.15482e-17)
(3.00048 -2.38644e-05 -1.35157e-16)
(3.00048 -1.78082e-05 -1.31086e-16)
(3.00051 -0.000319284 3.31999e-16)
(3.0005 -0.000199248 -1.37326e-16)
(3.00049 -6.10027e-05 7.4938e-17)
(3.00048 -2.39406e-05 -1.34622e-16)
(3.00048 -1.80247e-05 -1.31146e-16)
(3.00051 -0.0003204 3.20725e-16)
(3.0005 -0.000197976 -1.29799e-16)
(3.00049 -6.04236e-05 5.41048e-17)
(3.00049 -2.40197e-05 -2.0569e-16)
(3.00049 -1.82385e-05 -1.91911e-16)
(3.00051 -0.000321367 3.11264e-16)
(3.0005 -0.000196619 -6.01854e-17)
(3.00049 -5.98435e-05 -5.01782e-17)
(3.00049 -2.41025e-05 -2.03899e-16)
(3.00049 -1.84511e-05 -1.91909e-16)
(3.00051 -0.000322183 1.1171e-16)
(3.0005 -0.000195174 -6.36633e-17)
(3.00049 -5.92537e-05 -1.45056e-16)
(3.00049 -2.41794e-05 -2.09938e-16)
(3.00049 -1.86589e-05 -2.49707e-16)
(3.00052 -0.000322906 2.92327e-16)
(3.00051 -0.000193732 -6.73334e-17)
(3.0005 -5.87204e-05 -1.54823e-16)
(3.0005 -2.42773e-05 -2.74092e-16)
(3.00049 -1.88675e-05 -2.4968e-16)
(3.00054 -0.000323568 4.61834e-16)
(3.00053 -0.000192306 -7.12165e-17)
(3.00052 -5.82257e-05 -1.63635e-16)
(3.00052 -2.43794e-05 -2.70796e-16)
(3.00051 -1.90687e-05 -2.49677e-16)
(3.0005 -0.000324232 2.71579e-16)
(3.00049 -0.000190911 -7.19663e-17)
(3.00048 -5.7727e-05 -9.23171e-17)
(3.00048 -2.4489e-05 -2.20135e-16)
(3.00048 -1.92832e-05 -3.03315e-16)
)
;

boundaryField
{
    axis
    {
        type            empty;
    }
    inlet
    {
        type            fixedValue;
        value           uniform (3 0 0);
    }
    wall
    {
        type            zeroGradient;
    }
    outlet
    {
        type            zeroGradient;
    }
    front
    {
        type            wedge;
    }
    back
    {
        type            wedge;
    }
}


// ************************************************************************* //
