/*--------------------------------*- C++ -*----------------------------------*\
| =========                 |                                                 |
| \\      /  F ield         | OpenFOAM: The Open Source CFD Toolbox           |
|  \\    /   O peration     | Version:  4.1                                   |
|   \\  /    A nd           | Web:      www.OpenFOAM.org                      |
|    \\/     M anipulation  |                                                 |
\*---------------------------------------------------------------------------*/
FoamFile
{
    version     2.0;
    format      ascii;
    class       volScalarField;
    location    "6.36";
    object      Ma;
}
// * * * * * * * * * * * * * * * * * * * * * * * * * * * * * * * * * * * * * //

dimensions      [0 0 0 0 0 0 0];

internalField   nonuniform List<scalar> 
52500
(
3.00001
2.99996
2.9999
2.99965
2.99929
2.99784
2.99576
2.98772
2.97466
2.93119
2.83465
2.60968
2.03617
1.16792
0.489085
0.300571
0.337037
0.346688
0.316102
0.263163
0.210912
0.168465
0.126809
0.0802983
0.0462221
3.00001
2.99997
2.9999
2.99965
2.9993
2.99787
2.99582
2.98789
2.97497
2.93213
2.83646
2.61427
2.04449
1.17963
0.495883
0.301054
0.338381
0.348529
0.318017
0.265711
0.214734
0.173832
0.13448
0.0934911
0.0696412
3.00002
2.99997
2.99991
2.99966
2.99932
2.99793
2.99593
2.98825
2.97561
2.93403
2.84048
2.6238
2.0617
1.2051
0.510392
0.3025
0.34208
0.353834
0.324175
0.273975
0.226324
0.189326
0.155447
0.123682
0.108906
3.00002
2.99997
2.99991
2.99968
2.99935
2.99802
2.9961
2.98878
2.97656
2.93693
2.84663
2.63852
2.08872
1.24533
0.532567
0.304559
0.347774
0.362348
0.33434
0.287452
0.244428
0.212606
0.185044
0.16137
0.151908
3.00002
2.99997
2.99992
2.9997
2.99938
2.99812
2.99631
2.98937
2.97781
2.94025
2.85494
2.65697
2.13194
1.30468
0.565743
0.310744
0.357664
0.375577
0.349432
0.306299
0.268066
0.241563
0.220141
0.202814
0.197017
3.00002
2.99998
2.99992
2.99972
2.99942
2.99824
2.99654
2.99
2.97932
2.94397
2.86549
2.67907
2.19259
1.38565
0.610689
0.323145
0.373104
0.394664
0.370158
0.331242
0.297604
0.276027
0.260323
0.249008
0.246823
3.00002
2.99998
2.99993
2.99974
2.99946
2.99834
2.99677
2.99046
2.98097
2.94716
2.88005
2.70561
2.27051
1.49108
0.669202
0.346684
0.397071
0.420832
0.397443
0.362153
0.33325
0.316669
0.306707
0.301707
0.305137
3.00002
2.99998
2.99994
2.99976
2.99951
2.9985
2.99708
2.99139
2.98281
2.95199
2.89409
2.7343
2.35387
1.61625
0.737547
0.384591
0.432617
0.454951
0.43248
0.400407
0.375302
0.363614
0.360068
0.363564
0.377363
3.00002
2.99999
2.99995
2.99979
2.99957
2.99866
2.99738
2.99227
2.98464
2.95684
2.90612
2.76089
2.42662
1.72934
0.805915
0.425427
0.466894
0.485622
0.468547
0.44347
0.423809
0.417489
0.421715
0.438696
0.475939
3.00002
2.99999
2.99996
2.99982
2.99963
2.99885
2.99772
2.99333
2.98655
2.96299
2.91592
2.79131
2.47873
1.84502
0.895848
0.485644
0.494191
0.505321
0.501634
0.48535
0.474704
0.475786
0.493548
0.537775
0.639395
3
2.99995
2.99988
2.99963
2.99927
2.99781
2.99574
2.98769
2.97464
2.93115
2.83463
2.60961
2.03613
1.1678
0.488945
0.300386
0.336858
0.346504
0.315895
0.262912
0.210595
0.168064
0.12627
0.0794327
0.0446792
3
2.99995
2.99989
2.99963
2.99928
2.99784
2.9958
2.98787
2.97495
2.93209
2.83642
2.6142
2.04442
1.1795
0.49573
0.300862
0.3382
0.348347
0.317815
0.265467
0.214428
0.17345
0.133979
0.0927588
0.0686417
3
2.99995
2.99989
2.99964
2.9993
2.99791
2.99591
2.98822
2.97558
2.934
2.84045
2.62373
2.06163
1.20497
0.510249
0.302313
0.341903
0.353656
0.323978
0.273741
0.226038
0.188979
0.155019
0.123137
0.108279
3
2.99995
2.99989
2.99966
2.99933
2.998
2.99608
2.98876
2.97653
2.93689
2.84659
2.63845
2.08865
1.2452
0.53243
0.304374
0.3476
0.362174
0.33415
0.28723
0.244166
0.212301
0.18469
0.160959
0.151466
3
2.99996
2.9999
2.99968
2.99937
2.9981
2.99629
2.98934
2.97778
2.94021
2.85491
2.6569
2.13186
1.30455
0.565612
0.310558
0.357491
0.375407
0.349249
0.306091
0.267828
0.241297
0.219848
0.202493
0.196682
3
2.99996
2.99991
2.9997
2.9994
2.99822
2.99652
2.98998
2.9793
2.94392
2.86547
2.67901
2.19257
1.38554
0.610589
0.322982
0.372949
0.394511
0.369992
0.331055
0.297394
0.275798
0.260078
0.248751
0.246561
3
2.99996
2.99991
2.99972
2.99944
2.99832
2.99675
2.99044
2.98094
2.94713
2.88003
2.70555
2.27048
1.49097
0.66911
0.346532
0.396929
0.420694
0.397295
0.361988
0.333067
0.316475
0.306505
0.3015
0.30493
3
2.99997
2.99992
2.99974
2.99949
2.99848
2.99706
2.99136
2.98279
2.95196
2.89406
2.73425
2.35382
1.61614
0.737453
0.384441
0.432483
0.454824
0.432347
0.400262
0.375145
0.363449
0.3599
0.363397
0.377201
3
2.99997
2.99993
2.99977
2.99955
2.99864
2.99736
2.99225
2.98461
2.95681
2.90609
2.76084
2.42658
1.72925
0.805837
0.425293
0.466775
0.485508
0.468427
0.443344
0.423674
0.41735
0.421577
0.438563
0.475816
3
2.99998
2.99994
2.9998
2.99961
2.99883
2.9977
2.99331
2.98653
2.96295
2.91591
2.79126
2.47873
1.84493
0.89577
0.485518
0.494085
0.505218
0.501527
0.485238
0.474588
0.475669
0.493435
0.537672
0.63931
3
2.99995
2.99988
2.99963
2.99927
2.99781
2.99574
2.98769
2.97464
2.93115
2.83463
2.60961
2.03612
1.16779
0.488943
0.300387
0.336858
0.346504
0.315894
0.262912
0.210595
0.168064
0.12627
0.0794327
0.0446792
3
2.99995
2.99989
2.99963
2.99928
2.99784
2.9958
2.98787
2.97495
2.93209
2.83642
2.61419
2.04441
1.17949
0.495729
0.300863
0.3382
0.348347
0.317815
0.265467
0.214428
0.17345
0.133979
0.0927588
0.0686417
3
2.99995
2.99989
2.99964
2.9993
2.99791
2.99591
2.98822
2.97558
2.934
2.84045
2.62373
2.06163
1.20497
0.510247
0.302314
0.341903
0.353656
0.323978
0.273741
0.226038
0.188979
0.155019
0.123137
0.108279
3
2.99995
2.99989
2.99966
2.99933
2.998
2.99608
2.98876
2.97653
2.93689
2.84659
2.63844
2.08865
1.24519
0.532428
0.304375
0.3476
0.362175
0.33415
0.28723
0.244166
0.212301
0.18469
0.160959
0.151466
3
2.99996
2.9999
2.99968
2.99937
2.9981
2.99629
2.98934
2.97778
2.94021
2.85491
2.6569
2.13186
1.30454
0.565609
0.310559
0.357491
0.375407
0.349249
0.306091
0.267828
0.241297
0.219848
0.202493
0.196682
3
2.99996
2.99991
2.9997
2.9994
2.99822
2.99652
2.98998
2.9793
2.94392
2.86547
2.67901
2.19256
1.38553
0.610586
0.322982
0.372948
0.394511
0.369992
0.331054
0.297394
0.275798
0.260078
0.248752
0.246561
3
2.99996
2.99991
2.99972
2.99944
2.99832
2.99675
2.99044
2.98094
2.94713
2.88003
2.70555
2.27048
1.49096
0.669107
0.346532
0.396928
0.420694
0.397294
0.361987
0.333067
0.316475
0.306505
0.3015
0.304931
3
2.99997
2.99992
2.99974
2.99949
2.99848
2.99706
2.99136
2.98279
2.95196
2.89406
2.73425
2.35381
1.61613
0.73745
0.38444
0.432481
0.454823
0.432346
0.400261
0.375144
0.363449
0.3599
0.363397
0.377201
3
2.99997
2.99993
2.99977
2.99955
2.99864
2.99736
2.99225
2.98461
2.95681
2.90609
2.76083
2.42657
1.72924
0.805835
0.425293
0.466775
0.485507
0.468427
0.443343
0.423674
0.41735
0.421576
0.438563
0.475816
3
2.99998
2.99994
2.9998
2.99961
2.99883
2.9977
2.99331
2.98653
2.96295
2.91591
2.79126
2.47873
1.84492
0.895766
0.485517
0.494085
0.505217
0.501527
0.485237
0.474588
0.475669
0.493435
0.537672
0.63931
3
2.99995
2.99988
2.99963
2.99927
2.99781
2.99574
2.98769
2.97464
2.93115
2.83463
2.60961
2.03612
1.16779
0.488943
0.300387
0.336858
0.346504
0.315894
0.262912
0.210595
0.168064
0.12627
0.0794327
0.0446792
3
2.99995
2.99989
2.99963
2.99928
2.99784
2.9958
2.98787
2.97495
2.93209
2.83642
2.61419
2.04441
1.17949
0.495729
0.300864
0.3382
0.348347
0.317815
0.265467
0.214428
0.17345
0.133979
0.0927588
0.0686417
3
2.99995
2.99989
2.99964
2.9993
2.99791
2.99591
2.98822
2.97558
2.934
2.84045
2.62373
2.06163
1.20497
0.510247
0.302314
0.341903
0.353656
0.323978
0.273741
0.226038
0.188979
0.155019
0.123137
0.108279
3
2.99995
2.99989
2.99966
2.99933
2.998
2.99608
2.98876
2.97653
2.93689
2.84659
2.63844
2.08865
1.24519
0.532428
0.304375
0.3476
0.362175
0.33415
0.28723
0.244166
0.212301
0.18469
0.160959
0.151466
3
2.99996
2.9999
2.99968
2.99937
2.9981
2.99629
2.98934
2.97778
2.94021
2.85491
2.6569
2.13186
1.30454
0.565609
0.310559
0.357491
0.375407
0.349249
0.306091
0.267828
0.241297
0.219848
0.202493
0.196682
3
2.99996
2.99991
2.9997
2.9994
2.99822
2.99652
2.98998
2.9793
2.94392
2.86547
2.67901
2.19256
1.38553
0.610586
0.322982
0.372948
0.394511
0.369992
0.331054
0.297394
0.275798
0.260078
0.248752
0.246561
3
2.99996
2.99991
2.99972
2.99944
2.99832
2.99675
2.99044
2.98094
2.94713
2.88003
2.70555
2.27048
1.49096
0.669107
0.346532
0.396928
0.420694
0.397294
0.361987
0.333067
0.316475
0.306505
0.3015
0.304931
3
2.99997
2.99992
2.99974
2.99949
2.99848
2.99706
2.99136
2.98279
2.95196
2.89406
2.73425
2.35381
1.61613
0.73745
0.38444
0.432481
0.454823
0.432346
0.400261
0.375144
0.363449
0.3599
0.363397
0.377201
3
2.99997
2.99993
2.99977
2.99955
2.99864
2.99736
2.99225
2.98461
2.95681
2.90609
2.76083
2.42657
1.72924
0.805835
0.425293
0.466775
0.485507
0.468427
0.443343
0.423674
0.41735
0.421576
0.438563
0.475816
3
2.99998
2.99994
2.9998
2.99961
2.99883
2.9977
2.99331
2.98653
2.96295
2.91591
2.79126
2.47873
1.84492
0.895766
0.485517
0.494085
0.505217
0.501527
0.485237
0.474588
0.475669
0.493435
0.537672
0.63931
3
2.99995
2.99988
2.99963
2.99927
2.99781
2.99574
2.98769
2.97464
2.93115
2.83463
2.60961
2.03612
1.16779
0.488943
0.300387
0.336858
0.346504
0.315894
0.262912
0.210595
0.168064
0.12627
0.0794327
0.0446792
3
2.99995
2.99989
2.99963
2.99928
2.99784
2.9958
2.98787
2.97495
2.93209
2.83642
2.61419
2.04441
1.17949
0.495728
0.300864
0.3382
0.348347
0.317815
0.265467
0.214428
0.17345
0.133979
0.0927587
0.0686417
3
2.99995
2.99989
2.99964
2.9993
2.99791
2.99591
2.98822
2.97558
2.934
2.84045
2.62373
2.06162
1.20497
0.510246
0.302315
0.341903
0.353656
0.323978
0.273741
0.226038
0.188979
0.155019
0.123137
0.108279
3
2.99995
2.99989
2.99966
2.99933
2.998
2.99608
2.98876
2.97653
2.93689
2.84659
2.63844
2.08865
1.24519
0.532427
0.304375
0.3476
0.362175
0.33415
0.28723
0.244166
0.212301
0.18469
0.160959
0.151466
3
2.99996
2.9999
2.99968
2.99937
2.9981
2.99629
2.98934
2.97778
2.94021
2.85491
2.6569
2.13186
1.30454
0.565609
0.310559
0.357491
0.375407
0.349249
0.306091
0.267828
0.241297
0.219848
0.202493
0.196682
3
2.99996
2.99991
2.9997
2.9994
2.99822
2.99652
2.98998
2.9793
2.94392
2.86547
2.67901
2.19256
1.38553
0.610585
0.322982
0.372948
0.39451
0.369991
0.331054
0.297394
0.275798
0.260078
0.248751
0.246561
3
2.99996
2.99991
2.99972
2.99944
2.99832
2.99675
2.99044
2.98094
2.94713
2.88003
2.70555
2.27047
1.49096
0.669106
0.346532
0.396928
0.420693
0.397294
0.361987
0.333067
0.316475
0.306505
0.3015
0.304931
3
2.99997
2.99992
2.99974
2.99949
2.99848
2.99706
2.99136
2.98279
2.95196
2.89406
2.73425
2.35381
1.61613
0.737449
0.38444
0.432481
0.454823
0.432346
0.400261
0.375144
0.363448
0.3599
0.363397
0.377201
3
2.99997
2.99993
2.99977
2.99955
2.99864
2.99736
2.99225
2.98461
2.95681
2.90609
2.76083
2.42657
1.72924
0.805835
0.425292
0.466775
0.485507
0.468426
0.443343
0.423673
0.41735
0.421576
0.438563
0.475816
3
2.99998
2.99994
2.9998
2.99961
2.99883
2.9977
2.99331
2.98653
2.96295
2.91591
2.79125
2.47873
1.84492
0.895765
0.485516
0.494085
0.505217
0.501527
0.485237
0.474588
0.475668
0.493435
0.537671
0.639309
3
2.99995
2.99988
2.99963
2.99927
2.99781
2.99574
2.98769
2.97464
2.93115
2.83463
2.60961
2.03612
1.16779
0.488943
0.300387
0.336858
0.346504
0.315894
0.262912
0.210595
0.168064
0.12627
0.0794327
0.0446792
3
2.99995
2.99989
2.99963
2.99928
2.99784
2.9958
2.98787
2.97495
2.93209
2.83642
2.61419
2.04441
1.17949
0.495728
0.300864
0.3382
0.348347
0.317815
0.265467
0.214428
0.17345
0.133979
0.0927587
0.0686417
3
2.99995
2.99989
2.99964
2.9993
2.99791
2.99591
2.98822
2.97558
2.934
2.84045
2.62373
2.06162
1.20497
0.510246
0.302315
0.341903
0.353656
0.323978
0.273741
0.226038
0.188979
0.155019
0.123137
0.108279
3
2.99995
2.99989
2.99966
2.99933
2.998
2.99608
2.98876
2.97653
2.93689
2.84659
2.63844
2.08865
1.24519
0.532427
0.304375
0.3476
0.362174
0.33415
0.28723
0.244166
0.212301
0.18469
0.160959
0.151466
3
2.99996
2.9999
2.99968
2.99937
2.9981
2.99629
2.98934
2.97778
2.94021
2.85491
2.6569
2.13186
1.30454
0.565609
0.310559
0.357491
0.375407
0.349249
0.306091
0.267828
0.241297
0.219848
0.202493
0.196682
3
2.99996
2.99991
2.9997
2.9994
2.99822
2.99652
2.98998
2.9793
2.94392
2.86547
2.67901
2.19256
1.38553
0.610585
0.322982
0.372948
0.39451
0.369991
0.331054
0.297394
0.275798
0.260078
0.248751
0.246561
3
2.99996
2.99991
2.99972
2.99944
2.99832
2.99675
2.99044
2.98094
2.94713
2.88003
2.70555
2.27047
1.49096
0.669106
0.346532
0.396928
0.420693
0.397294
0.361987
0.333067
0.316475
0.306505
0.301499
0.304931
3
2.99997
2.99992
2.99974
2.99949
2.99848
2.99706
2.99136
2.98279
2.95196
2.89406
2.73425
2.35381
1.61613
0.737449
0.38444
0.432481
0.454823
0.432346
0.400261
0.375144
0.363448
0.3599
0.363396
0.377201
3
2.99997
2.99993
2.99977
2.99955
2.99864
2.99736
2.99225
2.98461
2.95681
2.90609
2.76083
2.42657
1.72924
0.805835
0.425292
0.466775
0.485507
0.468426
0.443343
0.423673
0.41735
0.421576
0.438563
0.475816
3
2.99998
2.99994
2.9998
2.99961
2.99883
2.9977
2.99331
2.98653
2.96295
2.91591
2.79125
2.47873
1.84492
0.895765
0.485516
0.494085
0.505217
0.501527
0.485237
0.474587
0.475668
0.493435
0.537671
0.639309
3
2.99995
2.99988
2.99963
2.99927
2.99781
2.99574
2.98769
2.97464
2.93115
2.83463
2.60961
2.03612
1.16779
0.488943
0.300387
0.336858
0.346504
0.315894
0.262912
0.210595
0.168064
0.12627
0.0794327
0.0446792
3
2.99995
2.99989
2.99963
2.99928
2.99784
2.9958
2.98787
2.97495
2.93209
2.83642
2.61419
2.04441
1.17949
0.495728
0.300864
0.3382
0.348347
0.317815
0.265467
0.214428
0.17345
0.133979
0.0927588
0.0686417
3
2.99995
2.99989
2.99964
2.9993
2.99791
2.99591
2.98822
2.97558
2.934
2.84045
2.62373
2.06162
1.20497
0.510247
0.302314
0.341903
0.353656
0.323978
0.273741
0.226038
0.188979
0.155019
0.123137
0.108279
3
2.99995
2.99989
2.99966
2.99933
2.998
2.99608
2.98876
2.97653
2.93689
2.84659
2.63844
2.08865
1.24519
0.532428
0.304375
0.3476
0.362175
0.33415
0.28723
0.244166
0.212301
0.18469
0.160959
0.151466
3
2.99996
2.9999
2.99968
2.99937
2.9981
2.99629
2.98934
2.97778
2.94021
2.85491
2.6569
2.13186
1.30454
0.565609
0.310559
0.357491
0.375407
0.349249
0.306091
0.267828
0.241297
0.219848
0.202493
0.196682
3
2.99996
2.99991
2.9997
2.9994
2.99822
2.99652
2.98998
2.9793
2.94392
2.86547
2.67901
2.19256
1.38553
0.610586
0.322982
0.372948
0.394511
0.369991
0.331054
0.297394
0.275798
0.260078
0.248751
0.246561
3
2.99996
2.99991
2.99972
2.99944
2.99832
2.99675
2.99044
2.98094
2.94713
2.88003
2.70555
2.27047
1.49096
0.669107
0.346532
0.396928
0.420694
0.397294
0.361987
0.333067
0.316475
0.306505
0.3015
0.304931
3
2.99997
2.99992
2.99974
2.99949
2.99848
2.99706
2.99136
2.98279
2.95196
2.89406
2.73425
2.35381
1.61613
0.737449
0.38444
0.432481
0.454823
0.432346
0.400261
0.375144
0.363449
0.3599
0.363397
0.377201
3
2.99997
2.99993
2.99977
2.99955
2.99864
2.99736
2.99225
2.98461
2.95681
2.90609
2.76083
2.42657
1.72924
0.805835
0.425293
0.466775
0.485507
0.468427
0.443343
0.423674
0.41735
0.421576
0.438563
0.475816
3
2.99998
2.99994
2.9998
2.99961
2.99883
2.9977
2.99331
2.98653
2.96295
2.91591
2.79126
2.47873
1.84492
0.895766
0.485516
0.494085
0.505217
0.501527
0.485237
0.474588
0.475669
0.493435
0.537671
0.63931
3
2.99995
2.99988
2.99963
2.99927
2.99781
2.99574
2.98769
2.97464
2.93115
2.83463
2.60961
2.03612
1.16779
0.488943
0.300387
0.336858
0.346504
0.315894
0.262912
0.210595
0.168064
0.12627
0.0794327
0.0446792
3
2.99995
2.99989
2.99963
2.99928
2.99784
2.9958
2.98787
2.97495
2.93209
2.83642
2.61419
2.04441
1.17949
0.495729
0.300863
0.3382
0.348347
0.317815
0.265467
0.214428
0.17345
0.133979
0.0927588
0.0686417
3
2.99995
2.99989
2.99964
2.9993
2.99791
2.99591
2.98822
2.97558
2.934
2.84045
2.62373
2.06163
1.20497
0.510247
0.302314
0.341903
0.353656
0.323978
0.273741
0.226038
0.188979
0.155019
0.123137
0.108279
3
2.99995
2.99989
2.99966
2.99933
2.998
2.99608
2.98876
2.97653
2.93689
2.84659
2.63844
2.08865
1.24519
0.532428
0.304375
0.3476
0.362175
0.33415
0.28723
0.244166
0.212301
0.18469
0.160959
0.151466
3
2.99996
2.9999
2.99968
2.99937
2.9981
2.99629
2.98934
2.97778
2.94021
2.85491
2.6569
2.13186
1.30454
0.565609
0.310559
0.357491
0.375407
0.349249
0.306091
0.267828
0.241297
0.219848
0.202493
0.196682
3
2.99996
2.99991
2.9997
2.9994
2.99822
2.99652
2.98998
2.9793
2.94392
2.86547
2.67901
2.19256
1.38553
0.610586
0.322982
0.372948
0.394511
0.369992
0.331054
0.297394
0.275798
0.260078
0.248752
0.246561
3
2.99996
2.99991
2.99972
2.99944
2.99832
2.99675
2.99044
2.98094
2.94713
2.88003
2.70555
2.27048
1.49096
0.669107
0.346532
0.396928
0.420694
0.397294
0.361987
0.333067
0.316475
0.306505
0.3015
0.304931
3
2.99997
2.99992
2.99974
2.99949
2.99848
2.99706
2.99136
2.98279
2.95196
2.89406
2.73425
2.35381
1.61613
0.73745
0.38444
0.432481
0.454823
0.432346
0.400261
0.375144
0.363449
0.3599
0.363397
0.377201
3
2.99997
2.99993
2.99977
2.99955
2.99864
2.99736
2.99225
2.98461
2.95681
2.90609
2.76083
2.42657
1.72924
0.805835
0.425293
0.466775
0.485507
0.468427
0.443343
0.423674
0.41735
0.421576
0.438563
0.475816
3
2.99998
2.99994
2.9998
2.99961
2.99883
2.9977
2.99331
2.98653
2.96295
2.91591
2.79126
2.47873
1.84492
0.895766
0.485517
0.494085
0.505217
0.501527
0.485237
0.474588
0.475669
0.493435
0.537672
0.63931
3
2.99995
2.99988
2.99963
2.99927
2.99781
2.99574
2.98769
2.97464
2.93115
2.83463
2.60961
2.03613
1.1678
0.488945
0.300386
0.336858
0.346504
0.315895
0.262912
0.210595
0.168064
0.12627
0.0794327
0.0446792
3
2.99995
2.99989
2.99963
2.99928
2.99784
2.9958
2.98787
2.97495
2.93209
2.83642
2.6142
2.04442
1.1795
0.495731
0.300862
0.3382
0.348347
0.317815
0.265467
0.214428
0.17345
0.133979
0.0927588
0.0686417
3
2.99995
2.99989
2.99964
2.9993
2.99791
2.99591
2.98822
2.97558
2.934
2.84045
2.62373
2.06163
1.20497
0.510249
0.302313
0.341903
0.353656
0.323978
0.273741
0.226038
0.188979
0.155019
0.123137
0.108279
3
2.99995
2.99989
2.99966
2.99933
2.998
2.99608
2.98876
2.97653
2.93689
2.84659
2.63845
2.08865
1.2452
0.53243
0.304374
0.3476
0.362174
0.33415
0.28723
0.244166
0.212301
0.18469
0.160959
0.151466
3
2.99996
2.9999
2.99968
2.99937
2.9981
2.99629
2.98934
2.97778
2.94021
2.85491
2.6569
2.13186
1.30455
0.565612
0.310558
0.357491
0.375407
0.349249
0.306091
0.267828
0.241297
0.219848
0.202493
0.196682
3
2.99996
2.99991
2.9997
2.9994
2.99822
2.99652
2.98998
2.9793
2.94392
2.86547
2.67901
2.19257
1.38554
0.610589
0.322982
0.372949
0.394511
0.369992
0.331055
0.297394
0.275798
0.260078
0.248751
0.246561
3
2.99996
2.99991
2.99972
2.99944
2.99832
2.99675
2.99044
2.98094
2.94713
2.88003
2.70555
2.27048
1.49097
0.66911
0.346532
0.396929
0.420694
0.397295
0.361988
0.333067
0.316475
0.306505
0.3015
0.30493
3
2.99997
2.99992
2.99974
2.99949
2.99848
2.99706
2.99136
2.98279
2.95196
2.89406
2.73425
2.35382
1.61614
0.737453
0.384441
0.432483
0.454824
0.432347
0.400262
0.375145
0.363449
0.3599
0.363397
0.377201
3
2.99997
2.99993
2.99977
2.99955
2.99864
2.99736
2.99225
2.98461
2.95681
2.90609
2.76084
2.42658
1.72925
0.805837
0.425293
0.466775
0.485508
0.468427
0.443344
0.423674
0.41735
0.421577
0.438563
0.475816
3
2.99998
2.99994
2.9998
2.99961
2.99883
2.9977
2.99331
2.98653
2.96295
2.91591
2.79126
2.47873
1.84493
0.89577
0.485518
0.494085
0.505218
0.501527
0.485238
0.474588
0.475669
0.493435
0.537672
0.63931
3.00001
2.99996
2.9999
2.99965
2.99929
2.99784
2.99576
2.98772
2.97466
2.93119
2.83465
2.60968
2.03617
1.16792
0.489086
0.30057
0.337037
0.346688
0.316102
0.263163
0.210912
0.168465
0.126809
0.0802983
0.0462221
3.00001
2.99997
2.9999
2.99965
2.9993
2.99787
2.99582
2.98789
2.97497
2.93213
2.83646
2.61427
2.04449
1.17963
0.495883
0.301054
0.33838
0.348529
0.318017
0.265711
0.214734
0.173832
0.13448
0.0934911
0.0696412
3.00002
2.99997
2.99991
2.99966
2.99932
2.99793
2.99593
2.98825
2.97561
2.93403
2.84048
2.6238
2.0617
1.2051
0.510393
0.3025
0.34208
0.353834
0.324175
0.273975
0.226324
0.189326
0.155447
0.123682
0.108906
3.00002
2.99997
2.99991
2.99968
2.99935
2.99802
2.9961
2.98878
2.97656
2.93693
2.84663
2.63852
2.08873
1.24533
0.532567
0.304559
0.347774
0.362348
0.33434
0.287452
0.244428
0.212606
0.185044
0.16137
0.151908
3.00002
2.99997
2.99992
2.9997
2.99938
2.99812
2.99631
2.98937
2.97781
2.94025
2.85494
2.65697
2.13194
1.30468
0.565743
0.310744
0.357664
0.375577
0.349432
0.306299
0.268066
0.241563
0.220141
0.202814
0.197017
3.00002
2.99998
2.99992
2.99972
2.99942
2.99824
2.99654
2.99
2.97932
2.94397
2.86549
2.67907
2.19259
1.38565
0.61069
0.323145
0.373104
0.394665
0.370158
0.331242
0.297604
0.276027
0.260323
0.249008
0.246823
3.00002
2.99998
2.99993
2.99974
2.99946
2.99834
2.99677
2.99046
2.98097
2.94716
2.88005
2.70561
2.27051
1.49108
0.669202
0.346684
0.397071
0.420832
0.397443
0.362153
0.33325
0.316669
0.306708
0.301707
0.305137
3.00002
2.99998
2.99994
2.99976
2.99951
2.9985
2.99708
2.99139
2.98281
2.95199
2.89409
2.7343
2.35387
1.61625
0.737547
0.384591
0.432617
0.454951
0.43248
0.400407
0.375302
0.363614
0.360068
0.363564
0.377363
3.00002
2.99999
2.99995
2.99979
2.99957
2.99866
2.99738
2.99227
2.98464
2.95684
2.90612
2.76089
2.42662
1.72934
0.805915
0.425427
0.466895
0.485622
0.468547
0.443471
0.423809
0.417489
0.421715
0.438696
0.475939
3.00002
2.99999
2.99996
2.99982
2.99963
2.99885
2.99772
2.99333
2.98655
2.96299
2.91592
2.79131
2.47873
1.84502
0.895849
0.485644
0.494191
0.505321
0.501634
0.48535
0.474704
0.475786
0.493548
0.537775
0.639395
3.00002
3
2.99995
2.99988
2.9996
2.99919
2.99757
2.99516
2.9863
2.97096
2.92263
2.81128
2.5586
1.94287
1.05986
0.56834
0.518695
0.529082
0.534512
0.52749
0.525609
0.537269
0.574245
0.656463
0.826373
3.00002
3.00001
2.99996
2.9999
2.99965
2.99929
2.99785
2.9958
2.98778
2.97507
2.932
2.83883
2.61804
2.06121
1.21448
0.653941
0.53859
0.552633
0.565858
0.568394
0.574869
0.597905
0.650623
0.749595
0.921378
3.00002
3.00001
2.99997
2.99992
2.99971
2.99941
2.9982
2.99646
2.98985
2.97888
2.94325
2.86305
2.67579
2.18249
1.38754
0.748553
0.561986
0.577986
0.597435
0.608094
0.622114
0.653303
0.712598
0.807895
0.950431
3.00002
3.00001
2.99998
2.99993
2.99975
2.9995
2.99846
2.99699
2.99114
2.98235
2.95082
2.89071
2.72912
2.33492
1.60211
0.861195
0.602816
0.613633
0.630913
0.648409
0.66777
0.702526
0.760506
0.844149
0.962176
3.00002
3.00001
2.99999
2.99995
2.9998
2.99959
2.99876
2.99755
2.99284
2.98561
2.95993
2.91292
2.77573
2.4775
1.80203
0.995186
0.666713
0.657858
0.670178
0.6882
0.709981
0.74474
0.800868
0.873144
0.971532
3.00002
3.00001
3
2.99995
2.99988
2.99961
2.99921
2.99765
2.99532
2.9868
2.97216
2.92608
2.82064
2.58315
1.99719
1.16193
0.744222
0.698571
0.710366
0.72663
0.748157
0.780838
0.832652
0.898829
0.981641
3.00002
3.00002
3.00001
2.99997
2.99991
2.99969
2.99937
2.9981
2.99628
2.98935
2.97785
2.94072
2.85712
2.66407
2.1573
1.37064
0.846483
0.727939
0.739629
0.757379
0.782512
0.81381
0.859337
0.919927
0.992289
3.00002
3.00002
3.00001
2.99998
2.99994
2.99976
2.9995
2.99849
2.99703
2.99132
2.98256
2.95175
2.89213
2.73194
2.34991
1.61638
0.978281
0.771138
0.768978
0.784625
0.812683
0.845093
0.885291
0.939097
1.00345
3.00002
3.00002
3.00001
3
2.99994
2.99986
2.99955
2.99909
2.99734
2.99468
2.98508
2.96831
2.91713
2.79957
2.53274
1.94107
1.1546
0.840718
0.810919
0.820663
0.84392
0.876017
0.911217
0.957289
1.01382
3.00003
3.00002
3.00002
3.00001
2.99996
2.9999
2.99967
2.99933
2.998
2.99603
2.98884
2.97632
2.93765
2.84778
2.64629
2.1231
1.3457
0.921909
0.845208
0.854684
0.87462
0.904156
0.938725
0.978094
1.02617
3.00003
3.00002
3.00002
3.00001
2.99999
2.99992
2.99982
2.99942
2.99883
2.99672
2.99292
2.98144
2.95503
2.89088
2.71468
2.37146
1.59775
1.06041
0.890038
0.885767
0.899983
0.926746
0.961634
0.999349
1.04122
3.00003
3.00003
3.00002
3.00001
3
2.99995
2.99987
2.99955
2.99911
2.99734
2.99479
2.98501
2.96935
2.91832
2.81008
2.54687
1.98225
1.24125
0.960642
0.92593
0.932699
0.954949
0.986902
1.0212
1.05897
3.00003
3.00003
3.00002
3.00002
3
2.99998
2.99989
2.99976
2.99924
2.99848
2.99566
2.99105
2.97595
2.94459
2.86329
2.6544
2.23725
1.44499
1.04994
0.959372
0.962016
0.98071
1.0097
1.0418
1.07581
3.00003
3.00003
3.00003
3.00002
3.00001
2.99999
2.99993
2.99983
2.99945
2.99891
2.99678
2.99363
2.98218
2.96208
2.90191
2.75899
2.45708
1.78247
1.20873
1.0142
0.998104
1.00895
1.03272
1.06331
1.09491
3.00003
3.00003
3.00003
3.00002
3.00002
3
2.99997
2.99986
2.99969
2.99906
2.99813
2.99463
2.98912
2.97024
2.9354
2.83466
2.62144
2.09796
1.40134
1.09297
1.03444
1.03802
1.05527
1.08277
1.11331
3.00003
3.00003
3.00003
3.00003
3.00002
3.00001
2.99999
2.99991
2.9998
2.99936
2.99873
2.99629
2.99266
2.97956
2.95654
2.88862
2.72985
2.38892
1.69107
1.22672
1.083
1.07094
1.07993
1.10143
1.1309
3.00003
3.00003
3.00003
3.00003
3.00002
3.00002
3
2.99996
2.99984
2.99966
2.99897
2.99793
2.99413
2.98804
2.96765
2.92991
2.82086
2.59757
2.04289
1.41252
1.1536
1.1084
1.11028
1.1257
1.14968
3.00003
3.00003
3.00003
3.00003
3.00003
3.00002
3.00001
2.99998
2.9999
2.99978
2.99931
2.99863
2.99602
2.99216
2.97809
2.95398
2.88251
2.7208
2.36067
1.67803
1.26961
1.15003
1.13882
1.14666
1.16588
3.00003
3.00003
3.00003
3.00003
3.00003
3.00002
3.00002
2.99999
2.99996
2.99983
2.99964
2.99894
2.99787
2.99402
2.98773
2.96718
2.92834
2.81848
2.59258
2.03346
1.4546
1.21731
1.17611
1.17382
1.18713
3.00003
3.00003
3.00003
3.00003
3.00003
3.00003
3.00002
3.00001
2.99998
2.99992
2.99973
2.99945
2.99838
2.99677
2.99112
2.98118
2.95152
2.88353
2.73272
2.33198
1.69653
1.31231
1.21384
1.20253
1.20929
3.00003
3.00003
3.00003
3.00003
3.00003
3.00003
3.00002
3.00002
2.99999
2.99996
2.99983
2.99965
2.99893
2.9979
2.99398
2.988
2.96716
2.93031
2.82203
2.60229
2.06555
1.49822
1.27149
1.23479
1.23352
3.00003
3.00003
3.00003
3.00003
3.00003
3.00003
3.00003
3.00002
3.00001
2.99998
2.99993
2.99974
2.99947
2.99844
2.9969
2.99145
2.98206
2.95347
2.88948
2.74461
2.36888
1.75179
1.36873
1.26781
1.2579
3.00003
3.00003
3.00003
3.00003
3.00003
3.00003
3.00003
3.00002
3.00002
3
2.99996
2.99984
2.99967
2.99899
2.99802
2.99433
2.98876
2.96923
2.93549
2.8345
2.63342
2.13211
1.56219
1.32852
1.28727
3.00003
3.00003
3.00003
3.00003
3.00003
3.00003
3.00003
3.00003
3.00002
3.00001
2.99999
2.99991
2.9998
2.99938
2.99878
2.99647
2.99311
2.9807
2.96041
2.89823
2.7641
2.46125
1.85267
1.45163
1.3255
3.00003
3.00003
3.00003
3.00003
3.00003
3.00003
3.00003
3.00003
3.00002
3.00002
3
2.99996
2.99989
2.99964
2.99927
2.99788
2.99586
2.9883
2.97656
2.93793
2.86142
2.6736
2.24629
1.65428
1.40006
3.00003
3.00003
3.00003
3.00003
3.00003
3.00003
3.00003
3.00003
3.00003
3.00002
3.00001
2.99999
2.99993
2.99984
2.99949
2.99897
2.99707
2.99413
2.98398
2.96642
2.91463
2.80146
2.54098
2.01145
1.54935
3.00003
3.00003
3.00003
3.00003
3.00003
3.00003
3.00003
3.00003
3.00003
3.00002
3.00002
3
2.99998
2.99989
2.99975
2.99926
2.99851
2.99585
2.99152
2.9774
2.95168
2.87676
2.72815
2.33129
1.79221
3.00003
3.00003
3.00003
3.00003
3.00003
3.00003
3.00003
3.00003
3.00003
3.00003
3.00002
3.00002
2.99999
2.99996
2.99983
2.99965
2.99896
2.99792
2.99422
2.98831
2.96906
2.93303
2.83581
2.6279
2.1489
3.00003
3.00003
3.00003
3.00003
3.00003
3.00003
3.00003
3.00003
3.00003
3.00003
3.00003
3.00002
3.00001
2.99999
2.99991
2.99979
2.99936
2.99874
2.99639
2.9929
2.98055
2.95972
2.8982
2.76895
2.46648
3.00003
3.00003
3.00003
3.00003
3.00003
3.00003
3.00003
3.00003
3.00003
3.00003
3.00003
3.00002
3.00002
3
2.99996
2.99985
2.99967
2.99903
2.99805
2.99453
2.98892
2.97028
2.93611
2.83946
2.63828
3.00003
3.00003
3.00003
3.00003
3.00003
3.00003
3.00003
3.00003
3.00003
3.00003
3.00003
3.00003
3.00002
3.00001
2.99997
2.99992
2.99971
2.9994
2.99823
2.99647
2.99001
2.97954
2.94528
2.87475
2.69942
3.00003
3.00003
3.00003
3.00003
3.00003
3.00003
3.00003
3.00003
3.00003
3.00003
3.00003
3.00003
3.00002
3.00001
2.99999
2.99992
2.99981
2.99939
2.99878
2.99649
2.99273
2.98042
2.9544
2.88712
2.70809
3.00003
3.00003
3.00003
3.00003
3.00003
3.00003
3.00003
3.00003
3.00003
3.00003
3.00003
3.00003
3.00002
3.00001
2.99999
2.99993
2.99983
2.99945
2.9989
2.99682
2.99328
2.98196
2.95677
2.89293
2.71809
3.00003
3.00003
3.00003
3.00003
3.00003
3.00003
3.00003
3.00003
3.00003
3.00003
3.00003
3.00003
3.00002
3.00002
2.99999
2.99995
2.99979
2.99956
2.99866
2.99725
2.99225
2.98306
2.95499
2.88839
2.73182
3.00003
3.00003
3.00003
3.00003
3.00003
3.00003
3.00003
3.00003
3.00003
3.00003
3.00003
3.00003
3.00002
3.00001
3
2.99994
2.99985
2.99952
2.99898
2.99716
2.99355
2.98326
2.95806
2.89805
2.72575
3.00003
3.00003
3.00003
3.00003
3.00003
3.00003
3.00003
3.00003
3.00003
3.00003
3.00003
3.00003
3.00002
3.00002
2.99999
2.99995
2.9998
2.99958
2.99871
2.99736
2.99257
2.98367
2.95656
2.89217
2.74005
3.00003
3.00003
3.00003
3.00003
3.00003
3.00003
3.00003
3.00003
3.00003
3.00003
3.00003
3.00003
3.00002
3.00001
3
2.99994
2.99985
2.99949
2.99897
2.99702
2.99372
2.98299
2.95962
2.8988
2.73424
3.00003
3.00003
3.00003
3.00003
3.00003
3.00003
3.00003
3.00003
3.00003
3.00003
3.00003
3.00003
3.00002
3.00001
3
2.99993
2.99985
2.99949
2.99897
2.99699
2.99373
2.98295
2.96004
2.89949
2.73701
3.00003
3.00003
3.00003
3.00003
3.00003
3.00003
3.00003
3.00003
3.00003
3.00003
3.00003
3.00003
3.00002
3.00002
2.99999
2.99995
2.99979
2.99957
2.99866
2.99734
2.99217
2.98403
2.95573
2.89798
2.74583
3.00003
3.00003
3.00003
3.00003
3.00003
3.00003
3.00003
3.00003
3.00003
3.00003
3.00003
3.00003
3.00002
3.00002
2.99999
2.99995
2.99979
2.99956
2.99862
2.9973
2.99196
2.9839
2.95456
2.89968
2.74397
3
2.99999
2.99993
2.99986
2.99958
2.99917
2.99755
2.99514
2.98628
2.97093
2.92259
2.81126
2.55854
1.94283
1.05975
0.568226
0.518594
0.528985
0.534416
0.52739
0.525509
0.53717
0.574153
0.656385
0.826317
3
2.99999
2.99994
2.99988
2.99963
2.99927
2.99783
2.99578
2.98776
2.97504
2.93196
2.83881
2.61799
2.06118
1.21439
0.653842
0.538494
0.55254
0.565768
0.568304
0.57478
0.59782
0.650546
0.74953
0.921327
3
2.99999
2.99995
2.9999
2.99969
2.99939
2.99818
2.99644
2.98983
2.97886
2.94321
2.86302
2.67574
2.18244
1.38743
0.74846
0.561889
0.577894
0.597349
0.608011
0.622033
0.653227
0.712531
0.807836
0.950382
3
2.99999
2.99996
2.99992
2.99973
2.99948
2.99844
2.99697
2.99112
2.98233
2.95079
2.89068
2.72907
2.33487
1.60201
0.861113
0.60272
0.613543
0.630829
0.648331
0.667696
0.702456
0.760443
0.844094
0.962129
3
3
2.99997
2.99993
2.99979