/*--------------------------------*- C++ -*----------------------------------*\
| =========                 |                                                 |
| \\      /  F ield         | OpenFOAM: The Open Source CFD Toolbox           |
|  \\    /   O peration     | Version:  4.1                                   |
|   \\  /    A nd           | Web:      www.OpenFOAM.org                      |
|    \\/     M anipulation  |                                                 |
\*---------------------------------------------------------------------------*/
FoamFile
{
    version     2.0;
    format      ascii;
    class       volScalarField;
    location    "7.88";
    object      p;
}
// * * * * * * * * * * * * * * * * * * * * * * * * * * * * * * * * * * * * * //

dimensions      [1 -1 -2 0 0 0 0];

internalField   nonuniform List<scalar> 
52500
(
1.00001
1.00004
1.00013
1.00028
1.0008
1.00164
1.00466
1.00931
1.02785
1.05182
1.17849
1.33268
2.21942
3.96396
9.62742
11.4183
11.234
11.1233
11.2016
11.4188
11.6564
11.81
11.9268
12.02
12.0934
1.00001
1.00004
1.00013
1.00027
1.00079
1.00162
1.00461
1.0092
1.02755
1.0512
1.1768
1.32833
2.20738
3.9296
9.54452
11.4128
11.2259
11.111
11.1903
11.4087
11.646
11.7996
11.9181
12.0129
12.0879
1.00001
1.00004
1.00012
1.00027
1.00077
1.00158
1.0045
1.00899
1.02694
1.04994
1.17323
1.31946
2.18153
3.85609
9.35995
11.4005
11.205
11.0769
11.1555
11.3723
11.6063
11.7567
11.8743
11.9678
12.0419
1.00001
1.00003
1.00012
1.00026
1.00074
1.00152
1.00434
1.00864
1.02602
1.04789
1.16795
1.30601
2.14208
3.74412
9.0718
11.3867
11.1746
11.0221
11.0976
11.3088
11.5367
11.6812
11.7945
11.8848
11.9586
1.00001
1.00003
1.00011
1.00024
1.0007
1.00144
1.00411
1.00812
1.02482
1.0448
1.16112
1.28799
2.0899
3.59314
8.67615
11.3738
11.1355
10.9483
11.0192
11.2216
11.4404
11.5763
11.6833
11.7692
11.843
1.00001
1.00003
1.0001
1.00023
1.00065
1.00134
1.00384
1.00755
1.0233
1.04159
1.15129
1.26614
2.02769
3.40086
8.17111
11.366
11.0894
10.8558
10.9203
11.11
11.3157
11.4386
11.534
11.611
11.6847
1.00001
1.00003
1.0001
1.00021
1.00061
1.00124
1.00356
1.00701
1.02151
1.03855
1.1394
1.24461
1.93624
3.1768
7.541
11.3663
11.0435
10.7477
10.8029
10.9732
11.1597
11.2625
11.3382
11.3964
11.4618
1.00001
1.00002
1.00009
1.00019
1.00056
1.00115
1.00327
1.00658
1.01943
1.03659
1.12336
1.22424
1.82414
2.9237
6.791
11.3603
10.9986
10.6281
10.6703
10.8134
10.9719
11.044
11.0854
11.1053
11.1427
1
1.00002
1.00008
1.00017
1.0005
1.00104
1.00294
1.00594
1.01722
1.03376
1.10658
1.20191
1.70605
2.65353
5.94721
11.2924
10.9314
10.5004
10.5247
10.6284
10.7479
10.7759
10.7626
10.7048
10.6468
1
1.00002
1.00007
1.00015
1.00044
1.00091
1.00258
1.00521
1.0151
1.02972
1.09249
1.17826
1.60405
2.41508
5.22387
10.9902
10.7836
10.3799
10.3671
10.4183
10.4814
10.4584
10.3625
10.142
9.80749
1.00001
1.00004
1.00013
1.00028
1.0008
1.00164
1.00467
1.00932
1.02786
1.05184
1.1785
1.33276
2.2195
3.9643
9.62808
11.4183
11.2341
11.1234
11.2017
11.419
11.6565
11.8101
11.927
12.0201
12.0935
1.00001
1.00004
1.00013
1.00028
1.0008
1.00163
1.00462
1.00921
1.02757
1.05122
1.17681
1.32841
2.20746
3.92994
9.54519
11.4128
11.2259
11.1111
11.1904
11.4088
11.6462
11.7998
11.9183
12.013
12.088
1.00001
1.00004
1.00013
1.00027
1.00078
1.00159
1.00451
1.009
1.02695
1.04996
1.17324
1.31954
2.18161
3.85643
9.36063
11.4005
11.2051
11.0771
11.1556
11.3724
11.6064
11.7568
11.8744
11.9679
12.0421
1.00001
1.00004
1.00012
1.00026
1.00075
1.00153
1.00435
1.00865
1.02603
1.04793
1.16795
1.3061
2.14214
3.74445
9.07249
11.3867
11.1747
11.0222
11.0977
11.3089
11.5368
11.6813
11.7947
11.885
11.9587
1.00001
1.00003
1.00011
1.00025
1.00071
1.00144
1.00411
1.00813
1.02483
1.04482
1.16115
1.28805
2.08999
3.59349
8.67687
11.3737
11.1356
10.9484
11.0193
11.2217
11.4405
11.5764
11.6834
11.7694
11.8432
1.00001
1.00003
1.00011
1.00023
1.00066
1.00135
1.00385
1.00756
1.02331
1.04161
1.15132
1.26621
2.02778
3.40121
8.17187
11.3659
11.0894
10.8559
10.9204
11.1101
11.3158
11.4387
11.5341
11.6111
11.6848
1.00001
1.00003
1.0001
1.00021
1.00061
1.00125
1.00356
1.00702
1.02152
1.03857
1.13942
1.24467
1.93634
3.17715
7.54181
11.3662
11.0435
10.7478
10.803
10.9733
11.1598
11.2626
11.3383
11.3965
11.4619
1.00001
1.00003
1.00009
1.0002
1.00057
1.00116
1.00328
1.00659
1.01944
1.03662
1.12337
1.22432
1.82421
2.92402
6.79179
11.3603
10.9986
10.6282
10.6704
10.8135
10.972
11.0441
11.0855
11.1054
11.1428
1.00001
1.00003
1.00008
1.00018
1.00051
1.00104
1.00295
1.00595
1.01724
1.03378
1.1066
1.20196
1.70614
2.65382
5.94799
11.2925
10.9315
10.5005
10.5248
10.6285
10.748
10.7759
10.7627
10.7049
10.6469
1
1.00002
1.00007
1.00016
1.00045
1.00092
1.00259
1.00522
1.01511
1.02973
1.09251
1.17831
1.6041
2.41529
5.2243
10.9905
10.7838
10.38
10.3671
10.4183
10.4815
10.4585
10.3626
10.142
9.80755
1.00001
1.00004
1.00013
1.00028
1.0008
1.00164
1.00467
1.00932
1.02786
1.05184
1.1785
1.33276
2.21951
3.96433
9.62813
11.4183
11.2341
11.1234
11.2017
11.419
11.6565
11.8101
11.927
12.0201
12.0935
1.00001
1.00004
1.00013
1.00028
1.0008
1.00163
1.00462
1.00921
1.02757
1.05122
1.17681
1.32842
2.20746
3.92996
9.54524
11.4128
11.2259
11.1111
11.1904
11.4089
11.6462
11.7998
11.9183
12.013
12.088
1.00001
1.00004
1.00013
1.00027
1.00078
1.00159
1.00451
1.009
1.02695
1.04996
1.17324
1.31954
2.18161
3.85645
9.36069
11.4005
11.2051
11.0771
11.1556
11.3724
11.6064
11.7568
11.8744
11.968
12.0421
1.00001
1.00004
1.00012
1.00026
1.00075
1.00153
1.00435
1.00865
1.02603
1.04793
1.16796
1.3061
2.14215
3.74447
9.07254
11.3867
11.1747
11.0222
11.0977
11.3089
11.5368
11.6813
11.7947
11.885
11.9587
1.00001
1.00003
1.00011
1.00025
1.00071
1.00144
1.00411
1.00813
1.02483
1.04482
1.16115
1.28805
2.09
3.59351
8.67693
11.3737
11.1356
10.9484
11.0193
11.2217
11.4405
11.5764
11.6835
11.7694
11.8432
1.00001
1.00003
1.00011
1.00023
1.00066
1.00135
1.00385
1.00756
1.02331
1.04161
1.15132
1.26621
2.02779
3.40123
8.17193
11.3659
11.0894
10.8559
10.9204
11.1101
11.3158
11.4387
11.5341
11.6111
11.6848
1.00001
1.00003
1.0001
1.00021
1.00061
1.00125
1.00356
1.00702
1.02152
1.03857
1.13943
1.24468
1.93635
3.17717
7.54187
11.3662
11.0435
10.7479
10.803
10.9733
11.1598
11.2626
11.3383
11.3965
11.4619
1.00001
1.00003
1.00009
1.0002
1.00057
1.00116
1.00328
1.00659
1.01944
1.03662
1.12337
1.22433
1.82422
2.92404
6.79186
11.3603
10.9986
10.6282
10.6704
10.8135
10.972
11.0441
11.0855
11.1054
11.1428
1.00001
1.00003
1.00008
1.00018
1.00051
1.00104
1.00295
1.00595
1.01724
1.03378
1.1066
1.20197
1.70615
2.65384
5.94805
11.2924
10.9315
10.5005
10.5248
10.6285
10.748
10.7759
10.7627
10.7049
10.6469
1
1.00002
1.00007
1.00016
1.00045
1.00092
1.00259
1.00522
1.01511
1.02973
1.09251
1.17831
1.60411
2.4153
5.22433
10.9906
10.7838
10.38
10.3671
10.4184
10.4815
10.4585
10.3626
10.142
9.80756
1.00001
1.00004
1.00013
1.00028
1.0008
1.00164
1.00467
1.00932
1.02786
1.05184
1.1785
1.33276
2.21951
3.96433
9.62814
11.4183
11.2341
11.1234
11.2017
11.419
11.6565
11.8101
11.927
12.0201
12.0935
1.00001
1.00004
1.00013
1.00028
1.0008
1.00163
1.00462
1.00921
1.02757
1.05122
1.17681
1.32842
2.20746
3.92996
9.54525
11.4128
11.2259
11.1111
11.1904
11.4089
11.6462
11.7998
11.9183
12.013
12.088
1.00001
1.00004
1.00013
1.00027
1.00078
1.00159
1.00451
1.009
1.02695
1.04996
1.17324
1.31954
2.18162
3.85645
9.36069
11.4005
11.2051
11.0771
11.1556
11.3724
11.6064
11.7568
11.8744
11.968
12.0421
1.00001
1.00004
1.00012
1.00026
1.00075
1.00153
1.00435
1.00865
1.02603
1.04793
1.16796
1.3061
2.14215
3.74447
9.07255
11.3867
11.1747
11.0222
11.0977
11.3089
11.5368
11.6813
11.7947
11.885
11.9587
1.00001
1.00003
1.00011
1.00025
1.00071
1.00144
1.00411
1.00813
1.02483
1.04482
1.16115
1.28806
2.09
3.59351
8.67694
11.3737
11.1356
10.9484
11.0193
11.2217
11.4405
11.5764
11.6835
11.7694
11.8432
1.00001
1.00003
1.00011
1.00023
1.00066
1.00135
1.00385
1.00756
1.02331
1.04161
1.15132
1.26621
2.02779
3.40123
8.17193
11.3659
11.0894
10.8559
10.9204
11.1101
11.3158
11.4387
11.5341
11.6111
11.6848
1.00001
1.00003
1.0001
1.00021
1.00061
1.00125
1.00356
1.00702
1.02152
1.03857
1.13943
1.24468
1.93635
3.17717
7.54188
11.3662
11.0435
10.7479
10.803
10.9733
11.1598
11.2626
11.3383
11.3965
11.4619
1.00001
1.00003
1.00009
1.0002
1.00057
1.00116
1.00328
1.00659
1.01944
1.03662
1.12337
1.22433
1.82422
2.92404
6.79186
11.3603
10.9986
10.6282
10.6704
10.8135
10.972
11.0441
11.0855
11.1054
11.1428
1.00001
1.00003
1.00008
1.00018
1.00051
1.00104
1.00295
1.00595
1.01724
1.03378
1.1066
1.20197
1.70615
2.65384
5.94806
11.2924
10.9315
10.5005
10.5248
10.6285
10.748
10.7759
10.7627
10.7049
10.6469
1
1.00002
1.00007
1.00016
1.00045
1.00092
1.00259
1.00522
1.01511
1.02973
1.09251
1.17831
1.60411
2.4153
5.22434
10.9906
10.7838
10.38
10.3671
10.4184
10.4815
10.4585
10.3626
10.142
9.80756
1.00001
1.00004
1.00013
1.00028
1.0008
1.00164
1.00467
1.00932
1.02786
1.05184
1.1785
1.33276
2.21951
3.96433
9.62814
11.4183
11.2341
11.1234
11.2017
11.419
11.6565
11.8101
11.927
12.0201
12.0935
1.00001
1.00004
1.00013
1.00028
1.0008
1.00163
1.00462
1.00921
1.02757
1.05122
1.17681
1.32842
2.20747
3.92997
9.54525
11.4128
11.2259
11.1111
11.1904
11.4089
11.6462
11.7998
11.9183
12.013
12.088
1.00001
1.00004
1.00013
1.00027
1.00078
1.00159
1.00451
1.009
1.02695
1.04996
1.17324
1.31954
2.18162
3.85646
9.3607
11.4005
11.2051
11.0771
11.1556
11.3724
11.6064
11.7568
11.8744
11.968
12.0421
1.00001
1.00004
1.00012
1.00026
1.00075
1.00153
1.00435
1.00865
1.02603
1.04793
1.16796
1.3061
2.14215
3.74447
9.07256
11.3867
11.1747
11.0222
11.0977
11.3089
11.5368
11.6813
11.7947
11.885
11.9587
1.00001
1.00003
1.00011
1.00025
1.00071
1.00144
1.00411
1.00813
1.02483
1.04482
1.16115
1.28806
2.09
3.59352
8.67695
11.3737
11.1356
10.9484
11.0193
11.2217
11.4405
11.5764
11.6835
11.7694
11.8432
1.00001
1.00003
1.00011
1.00023
1.00066
1.00135
1.00385
1.00756
1.02331
1.04161
1.15132
1.26621
2.02779
3.40124
8.17194
11.3659
11.0894
10.8559
10.9204
11.1101
11.3158
11.4387
11.5341
11.6111
11.6848
1.00001
1.00003
1.0001
1.00021
1.00061
1.00125
1.00356
1.00702
1.02152
1.03857
1.13943
1.24468
1.93636
3.17717
7.54189
11.3662
11.0435
10.7479
10.803
10.9733
11.1598
11.2626
11.3383
11.3965
11.4619
1.00001
1.00003
1.00009
1.0002
1.00057
1.00116
1.00328
1.00659
1.01944
1.03662
1.12337
1.22433
1.82422
2.92405
6.79187
11.3603
10.9986
10.6282
10.6704
10.8135
10.972
11.0441
11.0855
11.1054
11.1428
1.00001
1.00003
1.00008
1.00018
1.00051
1.00104
1.00295
1.00595
1.01724
1.03378
1.1066
1.20197
1.70615
2.65385
5.94807
11.2924
10.9315
10.5005
10.5248
10.6285
10.748
10.7759
10.7627
10.7049
10.6469
1
1.00002
1.00007
1.00016
1.00045
1.00092
1.00259
1.00522
1.01511
1.02973
1.09251
1.17831
1.60411
2.4153
5.22434
10.9906
10.7838
10.38
10.3671
10.4184
10.4815
10.4585
10.3626
10.142
9.80756
1.00001
1.00004
1.00013
1.00028
1.0008
1.00164
1.00467
1.00932
1.02786
1.05184
1.1785
1.33276
2.21951
3.96433
9.62815
11.4183
11.2341
11.1234
11.2017
11.419
11.6565
11.8101
11.927
12.0201
12.0935
1.00001
1.00004
1.00013
1.00028
1.0008
1.00163
1.00462
1.00921
1.02757
1.05122
1.17681
1.32842
2.20747
3.92997
9.54526
11.4128
11.2259
11.1111
11.1904
11.4089
11.6462
11.7998
11.9183
12.013
12.088
1.00001
1.00004
1.00013
1.00027
1.00078
1.00159
1.00451
1.009
1.02695
1.04996
1.17324
1.31954
2.18162
3.85646
9.3607
11.4005
11.2051
11.0771
11.1556
11.3724
11.6064
11.7568
11.8744
11.968
12.0421
1.00001
1.00004
1.00012
1.00026
1.00075
1.00153
1.00435
1.00865
1.02603
1.04793
1.16796
1.3061
2.14215
3.74447
9.07256
11.3867
11.1747
11.0222
11.0977
11.3089
11.5368
11.6813
11.7947
11.885
11.9587
1.00001
1.00003
1.00011
1.00025
1.00071
1.00144
1.00411
1.00813
1.02483
1.04482
1.16115
1.28806
2.09
3.59352
8.67695
11.3737
11.1356
10.9484
11.0193
11.2217
11.4405
11.5764
11.6835
11.7694
11.8432
1.00001
1.00003
1.00011
1.00023
1.00066
1.00135
1.00385
1.00756
1.02331
1.04162
1.15132
1.26621
2.02779
3.40124
8.17194
11.3659
11.0894
10.8559
10.9204
11.1101
11.3158
11.4387
11.5341
11.6111
11.6848
1.00001
1.00003
1.0001
1.00021
1.00061
1.00125
1.00356
1.00702
1.02152
1.03857
1.13943
1.24468
1.93636
3.17717
7.54189
11.3662
11.0435
10.7479
10.803
10.9733
11.1598
11.2626
11.3383
11.3965
11.4619
1.00001
1.00003
1.00009
1.0002
1.00057
1.00116
1.00328
1.00659
1.01944
1.03662
1.12337
1.22433
1.82422
2.92405
6.79188
11.3603
10.9986
10.6282
10.6704
10.8135
10.972
11.0441
11.0855
11.1054
11.1428
1.00001
1.00003
1.00008
1.00018
1.00051
1.00104
1.00295
1.00595
1.01724
1.03378
1.1066
1.20197
1.70616
2.65385
5.94807
11.2924
10.9315
10.5005
10.5248
10.6285
10.748
10.7759
10.7627
10.7049
10.6469
1
1.00002
1.00007
1.00016
1.00045
1.00092
1.00259
1.00522
1.01511
1.02973
1.09251
1.17831
1.60411
2.4153
5.22435
10.9906
10.7838
10.38
10.3671
10.4184
10.4815
10.4585
10.3626
10.142
9.80756
1.00001
1.00004
1.00013
1.00028
1.0008
1.00164
1.00467
1.00932
1.02786
1.05184
1.1785
1.33276
2.21951
3.96433
9.62814
11.4183
11.2341
11.1234
11.2017
11.419
11.6565
11.8101
11.927
12.0201
12.0935
1.00001
1.00004
1.00013
1.00028
1.0008
1.00163
1.00462
1.00921
1.02757
1.05122
1.17681
1.32842
2.20746
3.92997
9.54525
11.4128
11.2259
11.1111
11.1904
11.4089
11.6462
11.7998
11.9183
12.013
12.088
1.00001
1.00004
1.00013
1.00027
1.00078
1.00159
1.00451
1.009
1.02695
1.04996
1.17324
1.31954
2.18162
3.85645
9.3607
11.4005
11.2051
11.0771
11.1556
11.3724
11.6064
11.7568
11.8744
11.968
12.0421
1.00001
1.00004
1.00012
1.00026
1.00075
1.00153
1.00435
1.00865
1.02603
1.04793
1.16796
1.3061
2.14215
3.74447
9.07255
11.3867
11.1747
11.0222
11.0977
11.3089
11.5368
11.6813
11.7947
11.885
11.9587
1.00001
1.00003
1.00011
1.00025
1.00071
1.00144
1.00411
1.00813
1.02483
1.04482
1.16115
1.28806
2.09
3.59351
8.67694
11.3737
11.1356
10.9484
11.0193
11.2217
11.4405
11.5764
11.6835
11.7694
11.8432
1.00001
1.00003
1.00011
1.00023
1.00066
1.00135
1.00385
1.00756
1.02331
1.04161
1.15132
1.26621
2.02779
3.40124
8.17194
11.3659
11.0894
10.8559
10.9204
11.1101
11.3158
11.4387
11.5341
11.6111
11.6848
1.00001
1.00003
1.0001
1.00021
1.00061
1.00125
1.00356
1.00702
1.02152
1.03857
1.13943
1.24468
1.93635
3.17717
7.54188
11.3662
11.0435
10.7479
10.803
10.9733
11.1598
11.2626
11.3383
11.3965
11.4619
1.00001
1.00003
1.00009
1.0002
1.00057
1.00116
1.00328
1.00659
1.01944
1.03662
1.12337
1.22433
1.82422
2.92404
6.79187
11.3603
10.9986
10.6282
10.6704
10.8135
10.972
11.0441
11.0855
11.1054
11.1428
1.00001
1.00003
1.00008
1.00018
1.00051
1.00104
1.00295
1.00595
1.01724
1.03378
1.1066
1.20197
1.70615
2.65384
5.94806
11.2924
10.9315
10.5005
10.5248
10.6285
10.748
10.7759
10.7627
10.7049
10.6469
1
1.00002
1.00007
1.00016
1.00045
1.00092
1.00259
1.00522
1.01511
1.02973
1.09251
1.17831
1.60411
2.4153
5.22434
10.9906
10.7838
10.38
10.3671
10.4184
10.4815
10.4585
10.3626
10.142
9.80756
1.00001
1.00004
1.00013
1.00028
1.0008
1.00164
1.00467
1.00932
1.02786
1.05184
1.1785
1.33276
2.21951
3.96433
9.62813
11.4183
11.2341
11.1234
11.2017
11.419
11.6565
11.8101
11.927
12.0201
12.0935
1.00001
1.00004
1.00013
1.00028
1.0008
1.00163
1.00462
1.00921
1.02757
1.05122
1.17681
1.32842
2.20746
3.92996
9.54524
11.4128
11.2259
11.1111
11.1904
11.4089
11.6462
11.7998
11.9183
12.013
12.088
1.00001
1.00004
1.00013
1.00027
1.00078
1.00159
1.00451
1.009
1.02695
1.04996
1.17324
1.31954
2.18161
3.85645
9.36069
11.4005
11.2051
11.0771
11.1556
11.3724
11.6064
11.7568
11.8744
11.968
12.0421
1.00001
1.00004
1.00012
1.00026
1.00075
1.00153
1.00435
1.00865
1.02603
1.04793
1.16796
1.3061
2.14215
3.74447
9.07254
11.3867
11.1747
11.0222
11.0977
11.3089
11.5368
11.6813
11.7947
11.885
11.9587
1.00001
1.00003
1.00011
1.00025
1.00071
1.00144
1.00411
1.00813
1.02483
1.04482
1.16115
1.28805
2.09
3.59351
8.67693
11.3737
11.1356
10.9484
11.0193
11.2217
11.4405
11.5764
11.6835
11.7694
11.8432
1.00001
1.00003
1.00011
1.00023
1.00066
1.00135
1.00385
1.00756
1.02331
1.04161
1.15132
1.26621
2.02779
3.40123
8.17193
11.3659
11.0894
10.8559
10.9204
11.1101
11.3158
11.4387
11.5341
11.6111
11.6848
1.00001
1.00003
1.0001
1.00021
1.00061
1.00125
1.00356
1.00702
1.02152
1.03857
1.13943
1.24468
1.93635
3.17717
7.54187
11.3662
11.0435
10.7479
10.803
10.9733
11.1598
11.2626
11.3383
11.3965
11.4619
1.00001
1.00003
1.00009
1.0002
1.00057
1.00116
1.00328
1.00659
1.01944
1.03662
1.12337
1.22433
1.82422
2.92404
6.79186
11.3603
10.9986
10.6282
10.6704
10.8135
10.972
11.0441
11.0855
11.1054
11.1428
1.00001
1.00003
1.00008
1.00018
1.00051
1.00104
1.00295
1.00595
1.01724
1.03378
1.1066
1.20197
1.70615
2.65384
5.94805
11.2924
10.9315
10.5005
10.5248
10.6285
10.748
10.7759
10.7627
10.7049
10.6469
1
1.00002
1.00007
1.00016
1.00045
1.00092
1.00259
1.00522
1.01511
1.02973
1.09251
1.17831
1.60411
2.4153
5.22433
10.9906
10.7838
10.38
10.3671
10.4184
10.4815
10.4585
10.3626
10.142
9.80756
1.00001
1.00004
1.00013
1.00028
1.0008
1.00164
1.00467
1.00932
1.02786
1.05184
1.1785
1.33276
2.2195
3.9643
9.62808
11.4183
11.2341
11.1234
11.2017
11.419
11.6565
11.8101
11.927
12.0201
12.0935
1.00001
1.00004
1.00013
1.00028
1.0008
1.00163
1.00462
1.00921
1.02757
1.05122
1.17681
1.32841
2.20746
3.92994
9.54519
11.4128
11.2259
11.1111
11.1904
11.4088
11.6462
11.7998
11.9183
12.013
12.088
1.00001
1.00004
1.00013
1.00027
1.00078
1.00159
1.00451
1.009
1.02695
1.04996
1.17324
1.31954
2.18161
3.85643
9.36063
11.4005
11.2051
11.0771
11.1556
11.3724
11.6064
11.7568
11.8744
11.9679
12.0421
1.00001
1.00004
1.00012
1.00026
1.00075
1.00153
1.00435
1.00865
1.02603
1.04793
1.16795
1.3061
2.14214
3.74445
9.07249
11.3867
11.1747
11.0222
11.0977
11.3089
11.5368
11.6813
11.7947
11.885
11.9587
1.00001
1.00003
1.00011
1.00025
1.00071
1.00144
1.00411
1.00813
1.02483
1.04482
1.16115
1.28805
2.08999
3.59349
8.67687
11.3737
11.1356
10.9484
11.0193
11.2217
11.4405
11.5764
11.6834
11.7694
11.8432
1.00001
1.00003
1.00011
1.00023
1.00066
1.00135
1.00385
1.00756
1.02331
1.04161
1.15132
1.26621
2.02778
3.40121
8.17187
11.3659
11.0894
10.8559
10.9204
11.1101
11.3158
11.4387
11.5341
11.6111
11.6848
1.00001
1.00003
1.0001
1.00021
1.00061
1.00125
1.00356
1.00702
1.02152
1.03857
1.13942
1.24467
1.93634
3.17714
7.54181
11.3662
11.0435
10.7478
10.803
10.9733
11.1598
11.2626
11.3383
11.3965
11.4619
1.00001
1.00003
1.00009
1.0002
1.00057
1.00116
1.00328
1.00659
1.01944
1.03662
1.12337
1.22432
1.82421
2.92402
6.79179
11.3603
10.9986
10.6282
10.6704
10.8135
10.972
11.0441
11.0855
11.1054
11.1428
1.00001
1.00003
1.00008
1.00018
1.00051
1.00104
1.00295
1.00595
1.01724
1.03378
1.1066
1.20196
1.70614
2.65382
5.94799
11.2925
10.9315
10.5005
10.5248
10.6285
10.748
10.7759
10.7627
10.7049
10.6469
1
1.00002
1.00007
1.00016
1.00045
1.00092
1.00259
1.00522
1.01511
1.02973
1.09251
1.17831
1.6041
2.41529
5.2243
10.9905
10.7838
10.38
10.3671
10.4183
10.4815
10.4585
10.3626
10.142
9.80755
1.00001
1.00004
1.00013
1.00028
1.0008
1.00164
1.00466
1.00931
1.02785
1.05182
1.17848
1.33268
2.21942
3.96396
9.62741
11.4183
11.234
11.1233
11.2016
11.4188
11.6564
11.81
11.9268
12.02
12.0934
1.00001
1.00004
1.00013
1.00027
1.00079
1.00162
1.00461
1.0092
1.02755
1.0512
1.1768
1.32833
2.20738
3.9296
9.54452
11.4128
11.2259
11.111
11.1903
11.4087
11.646
11.7996
11.9181
12.0129
12.0879
1.00001
1.00004
1.00012
1.00027
1.00077
1.00158
1.0045
1.00899
1.02694
1.04994
1.17323
1.31946
2.18153
3.85609
9.35995
11.4005
11.205
11.0769
11.1555
11.3723
11.6063
11.7567
11.8743
11.9678
12.0419
1.00001
1.00003
1.00012
1.00026
1.00074
1.00152
1.00434
1.00864
1.02602
1.04789
1.16795
1.306
2.14208
3.74411
9.0718
11.3867
11.1746
11.0221
11.0976
11.3088
11.5367
11.6812
11.7945
11.8848
11.9586
1.00001
1.00003
1.00011
1.00024
1.0007
1.00144
1.00411
1.00812
1.02482
1.0448
1.16112
1.28799
2.0899
3.59314
8.67615
11.3738
11.1355
10.9483
11.0192
11.2216
11.4404
11.5763
11.6833
11.7692
11.843
1.00001
1.00003
1.0001
1.00023
1.00065
1.00134
1.00384
1.00755
1.0233
1.04159
1.15129
1.26614
2.02768
3.40086
8.1711
11.366
11.0894
10.8558
10.9203
11.11
11.3157
11.4386
11.534
11.611
11.6847
1.00001
1.00003
1.0001
1.00021
1.00061
1.00124
1.00356
1.00701
1.02151
1.03855
1.1394
1.24461
1.93624
3.1768
7.541
11.3663
11.0435
10.7477
10.8029
10.9732
11.1597
11.2625
11.3382
11.3964
11.4618
1.00001
1.00002
1.00009
1.00019
1.00056
1.00115
1.00327
1.00658
1.01943
1.03659
1.12336
1.22424
1.82414
2.9237
6.791
11.3603
10.9986
10.6281
10.6703
10.8134
10.9719
11.044
11.0854
11.1053
11.1427
1
1.00002
1.00008
1.00017
1.0005
1.00104
1.00294
1.00594
1.01722
1.03376
1.10658
1.20191
1.70605
2.65353
5.94721
11.2924
10.9314
10.5004
10.5247
10.6284
10.7479
10.7759
10.7626
10.7048
10.6468
1
1.00002
1.00007
1.00015
1.00044
1.00091
1.00258
1.00521
1.0151
1.02972
1.09249
1.17826
1.60405
2.41508
5.22387
10.9902
10.7836
10.3799
10.3671
10.4183
10.4814
10.4584
10.3625
10.142
9.80749
1
1.00002
1.00005
1.00015
1.00032
1.00092
1.00187
1.00536
1.01052
1.03258
1.05838
1.20918
1.39575
2.4017
4.49079
10.3244
10.5069
10.3129
10.187
10.1932
10.1833
10.0977
9.84904
9.27704
7.84681
1
1.00002
1.00004
1.00014
1.00028
1.00081
1.00166
1.00472
1.00946
1.02805
1.05276
1.17818
1.33778
2.20988
3.93213
9.26595
10.3346
10.2098
10.0076
9.95581
9.88351
9.71002
9.32707
8.56317
7.12045
1
1.00001
1.00004
1.00011
1.00024
1.00069
1.0014
1.00399
1.00788
1.024
1.04327
1.15491
1.27564
2.03813
3.43727
8.07377
10.2128
10.0997
9.8448
9.7149
9.59142
9.34223
8.877
8.1173
6.98736
1
1.00001
1.00003
1.00009
1.0002
1.00057
1.00117
1.00334
1.00659
1.02009
1.03608
1.12927
1.22619
1.85446
2.96484
6.78572
10.1178
9.99628
9.6976
9.4839
9.309
9.0205
8.54752
7.85891
6.9728
1
1.00001
1.00002
1.00008
1.00017
1.00048
1.00098
1.00279
1.00564
1.01633
1.03209
1.10021
1.19309
1.65582
2.52942
5.4517
9.92292
9.85763
9.58833
9.28001
9.05478
8.75335
8.30359
7.68885
6.9484
1
1.00001
1.00002
1.00005
1.00015
1.00032
1.00091
1.00185
1.00529
1.01038
1.03201
1.05751
1.20327
1.38921
2.32878
4.28288
9.36319
9.65117
9.4701
9.10785
8.83806
8.52866
8.11017
7.56128
6.91519
1
1
1.00002
1.00004
1.00013
1.00026
1.00075
1.00152
1.00431
1.00864
1.02553
1.04788
1.16185
1.29996
2.08031
3.55526
8.087
9.38289
9.26869
8.97817
8.65608
8.33647
7.94446
7.45291
6.88207
1
1
1.00001
1.00003
1.00009
1.0002
1.00057
1.00116
1.00331
1.00648
1.02004
1.03557
1.12859
1.22517
1.84927
2.93667
6.57034
9.17577
9.1133
8.88367
8.51356
8.17974
7.80527
7.35896
6.84643
0.999998
1
1.00001
1.00003
1.00006
1.00017
1.00036
1.00102
1.00201
1.00615
1.01089
1.03873
1.06386
1.24085
1.47821
2.53265
4.89015
8.87183
8.98925
8.81607
8.43232
8.05372
7.68803
7.27759
6.81321
0.999997
0.999998
1
1.00002
1.00004
1.00013
1.00028
1.0008
1.00164
1.00466
1.00922
1.02789
1.05097
1.17732
1.32852
2.15817
3.72632
8.10322
8.81941
8.68695
8.35962
7.94831
7.58497
7.20389
6.78284
0.999995
0.999996
1
1.00001
1.00004
1.00008
1.00024
1.00049
1.0014
1.00272
1.00848
1.01473
1.05369
1.08813
1.33929
1.68326
3.19977
6.50731
8.55062
8.50176
8.29061
7.86923
7.50068
7.14164
6.75723
0.999994
0.999995
0.999998
1
1.00003
1.00006
1.00018
1.00038
1.00107
1.00218
1.00622
1.01209
1.03792
1.06669
1.24027
1.46656
2.52472
4.76836
8.16465
8.35516
8.21097
7.86018
7.45293
7.09483
6.7363
0.999993
0.999994
0.999995
1
1.00001
1.00005
1.00011
1.00033
1.00067
1.00191
1.00386
1.01106
1.0219
1.06576
1.1304
1.40729
1.93285
3.60946
7.25994
8.17894
8.09098
7.83678
7.43528
7.06567
6.72183
0.999992
0.999993
0.999994
0.999999
1.00001
1.00003
1.00008
1.00023
1.00048
1.00136
1.00275
1.00783
1.01521
1.04755
1.0844
1.29919
1.60578
2.89627
5.67227
7.9281
7.92458
7.78496
7.44912
7.06214
6.72051
0.999992
0.999992
0.999993
0.999996
1
1.00002
1.00006
1.00014
1.0004
1.00082
1.0023
1.00463
1.01321
1.0261
1.07804
1.15539
1.47921
2.09786
3.91155
7.40903
7.83477
7.73125
7.46137
7.07047
6.72637
0.999991
0.999992
0.999993
0.999994
1
1.00001
1.00004
1.00009
1.00028
1.00057
1.00161
1.00326
1.00919
1.01814
1.05465
1.1023
1.33663
1.73255
3.12712
6.19827
7.63571
7.60976
7.45001
7.10171
6.7475
0.999991
0.999991
0.999992
0.999993
0.999996
1.00001
1.00002
1.00007
1.00016
1.00046
1.00095
1.00265
1.00534
1.01525
1.02974
1.09156
1.17535
1.56959
2.29175
4.46004
7.21466
7.49678
7.40689
7.16587
6.80179
0.999991
0.999991
0.999991
0.999992
0.999994
1
1.00001
1.00005
1.00011
1.00032
1.00065
1.00182
1.00368
1.01034
1.02067
1.05995
1.12186
1.36279
1.81896
3.24311
6.25081
7.32736
7.30731
7.18536
6.91425
0.999991
0.999991
0.999991
0.999992
0.999993
0.999996
1.00001
1.00002
1.00008
1.00018
1.0005
1.00103
1.00286
1.00577
1.01651
1.03172
1.09978
1.18707
1.61871
2.38079
4.67261
6.96819
7.25376
7.20249
7.05764
0.999991
0.999991
0.999991
0.999991
0.999992
0.999995
1
1.00002
1.00004
1.00013
1.00028
1.00078
1.00159
1.00444
1.0088
1.02588
1.04768
1.1576
1.29597
1.95261
3.15999
6.18942
7.14328
7.24764
7.23711
0.999991
0.999991
0.999991
0.999991
0.999991
0.999993
0.999997
1.00001
1.00003
1.00009
1.00018
1.00052
1.00107
1.00296
1.00597
1.01686
1.03309
1.10065
1.19135
1.62366
2.38052
4.62609
6.84097
7.34546
7.4936
0.999991
0.99999
0.99999
0.999991
0.999991
0.999992
0.999995
1
1.00002
1.00004
1.00014
1.00028
1.0008
1.00162
1.0045
1.00898
1.02595
1.04895
1.15579
1.30226
1.94299
3.13855
6.14257
7.39324
8.00557
0.999991
0.99999
0.99999
0.99999
0.999991
0.999991
0.999993
0.999997
1.00001
1.00003
1.00009
1.00019
1.00053
1.00109
1.00301
1.00608
1.01709
1.03354
1.10176
1.19213
1.62841
2.38846
4.63521
7.32554
8.91095
0.999991
0.99999
0.99999
0.99999
0.999991
0.999991
0.999992
0.999995
1
1.00001
1.00006
1.00012
1.00036
1.00074
1.00205
1.00415
1.01162
1.02314
1.0673
1.13544
1.40738
1.92377
3.51249
6.95832
10.2183
0.999991
0.99999
0.99999
0.99999
0.99999
0.999991
0.999992
0.999993
0.999999
1.00001
1.00004
1.00009
1.00025
1.00052
1.00146
1.00297
1.0084
1.01644
1.05051
1.09115
1.31702
1.65088
3.02965
6.07909
11.4844
0.999991
0.99999
0.99999
0.99999
0.99999
0.999991
0.999991
0.999993
0.999996
1.00001
1.00002
1.00008
1.00017
1.0005
1.00102
1.0029
1.00583
1.01708
1.03267
1.10617
1.19923
1.68985
2.60532
5.69423
11.9571
0.999991
0.99999
0.99999
0.99999
0.99999
0.999991
0.999991
0.999992
0.999996
1
1.00002
1.00005
1.00017
1.00034
1.001
1.00195
1.00608
1.01061
1.03891
1.06333
1.24628
1.48505
2.62684
5.36062
11.9393
0.999991
0.99999
0.99999
0.99999
0.99999
0.999991
0.999991
0.999992
0.999994
1
1.00001
1.00006
1.00013
1.0004
1.00083
1.0024
1.00485
1.01441
1.02775
1.09132
1.16992
1.60347
2.41185
5.31328
11.7291
0.999991
0.99999
0.99999
0.99999
0.99999
0.999991
0.999991
0.999992
0.999994
1
1.00001
1.00005
1.00012
1.00036
1.00075
1.00219
1.00432
1.01356
1.02451
1.08825
1.15639
1.58207
2.348
5.17225
11.5271
0.999991
0.99999
0.99999
0.99999
0.99999
0.99999
0.999991
0.999992
0.999995
0.999999
1.00002
1.00004
1.00014
1.00029
1.00085
1.00169
1.00522
1.00948
1.03353
1.05628
1.21773
1.41316
2.49152
4.82443
11.3391
0.999991
0.99999
0.99999
0.99999
0.99999
0.99999
0.999991
0.999992
0.999994
1
1.00001
1.00005
1.0001
1.00032
1.00064
1.00199
1.00359
1.01277
1.0212
1.0822
1.14032
1.5475
2.2475
4.90842
11.1403
0.999991
0.99999
0.99999
0.99999
0.99999
0.99999
0.999991
0.999992
0.999994
0.999999
1.00001
1.00004
1.00013
1.00028
1.00082
1.00167
1.00492
1.00971
1.03072
1.05544
1.20324
1.38486
2.41679
4.56257
10.9822
0.999991
0.99999
0.99999
0.99999
0.99999
0.99999
0.999991
0.999992
0.999994
0.999998
1.00001
1.00004
1.00012
1.00026
1.00078
1.0016
1.00472
1.00926
1.0297
1.05298
1.19833
1.36889
2.38926
4.46166
10.8657
0.999991
0.99999
0.99999
0.99999
0.99999
0.99999
0.999991
0.999992
0.999993
0.999999
1.00001
1.00004
1.00009
1.00028
1.00055
1.00181
1.00313
1.01187
1.01924
1.07686
1.13007
1.517
2.17242
4.71781
10.8251
0.999991
0.99999
0.99999
0.99999
0.99999
0.99999
0.999991
0.999991
0.999994
0.999997
1.00001
1.00003
1.00011
1.00024
1.00072
1.00142
1.00454
1.00806
1.02968
1.04932
1.1947
1.35968
2.37029
4.41866
10.7888
0.999991
0.99999
0.99999
0.99999
0.99999
0.99999
0.999991
0.999991
0.999993
0.999998
1.00001
1.00004
1.00008
1.00027
1.00052
1.00175
1.00301
1.01159
1.0188
1.07572
1.12885
1.51119
2.17135
4.70034
10.8421
0.999991
0.99999
0.99999
0.99999
0.99999
0.99999
0.999991
0.999991
0.999994
0.999997
1.00001
1.00003
1.00011
1.00024
1.00072
1.00148
1.00446
1.00862
1.02877
1.05028
1.19388
1.35876
2.3723
4.43896
10.8558
0.999991
0.99999
0.99999
0.99999
0.99999
0.99999
0.999991
0.999991
0.999993
0.999997
1.00001
1.00003
1.00011
1.00023
1.00071
1.00145
1.00444
1.00846
1.02898
1.0501
1.19554
1.36353
2.38494
4.49835
10.973
0.999991
0.99999
0.99999
0.99999
0.99999
0.99999
0.999991
0.999991
0.999993
0.999998
1.00001
1.00004
1.00009
1.00028
1.00058
1.00178
1.0035
1.01148
1.0203
1.07735
1.13373
1.51565
2.18979
4.73171
10.9117
0.999991
0.99999
0.99999
0.99999
0.99999
0.99999
0.999991
0.999992
0.999993
0.999998
1.00001
1.00004
1.00009
1.0003
1.00063
1.00188
1.00384
1.01162
1.02286
1.07547
1.14093
1.51247
2.19794
4.75056
10.9398
1
1.00002
1.00005
1.00016
1.00033
1.00093
1.00188
1.00537
1.01053
1.03259
1.0584
1.20921
1.39584
2.4018
4.4913
10.325
10.507
10.313
10.187
10.1932
10.1834
10.0978
9.8491
9.27709
7.84683
1
1.00002
1.00005
1.00014
1.00029
1.00082
1.00167
1.00473
1.00947
1.02806
1.05279
1.1782
1.33786
2.20998
3.93254
9.26668
10.3347
10.2099
10.0076
9.95588
9.88358
9.71008
9.32713
8.56322
7.12047
1
1.00002
1.00004
1.00012
1.00025
1.00069
1.00141
1.004
1.00789
1.02401
1.0433
1.15494
1.2757
2.03824
3.43764
8.07455
10.2129
10.0997
9.84484
9.71496
9.59147
9.34229
8.87705
8.11734
6.98737
1
1.00001
1.00003
1.0001
1.00021
1.00058
1.00118
1.00335
1.0066
1.0201
1.0361
1.1293
1.22625
1.85457
2.96517
6.78652
10.1178
9.99629
9.69762
9.48395
9.30905
9.02055
8.54756
7.85894
6.97282
1
1.00001
1.00003
1.00008
1.00017
1.00049
1.00099
1.0028
1.00565
1.01634
1.0321
1.10023
1.19315
1.65593
2.52973
5.45255
9.92298
9.85765
9.58834
9.28006
9.05483
8.75339
8.30363
7.68887
6.94842
1
1.00001
1.00003
1.00006
1.00016
1.00033
1.00092
1.00186
1.0053
1.01039
1.03202
1.05753
1.20331
1.3893
2.32889
4.28341
9.36353
9.65125
9.47016
9.10789
8.83809
8.52869
8.1102
7.5613
6.9152
1
1.00001
1.00002
1.00005
1.00013
1.00027
1.00075
1.00153
1.00432
1.00865
1.02554
1.04791
1.16187
1.30004
2.08043
3.55566
8.08778
9.383
9.26876
8.97819
8.65612
8.3365
7.94448
7.45293
6.88208
1
1
1.00002
1.00004
1.0001
1.00021
1.00058
1.00117
1.00332
1.00649
1.02005
1.03559
1.12862
1.22524
1.84938
2.93701
6.57111
9.17578
9.1133
8.88366
8.51358
8.17976
7.80529
7.35897
6.84644
1
1
1.00001
1.00003
1.00006
1.00018
1.00037