/*--------------------------------*- C++ -*----------------------------------*\
| =========                 |                                                 |
| \\      /  F ield         | OpenFOAM: The Open Source CFD Toolbox           |
|  \\    /   O peration     | Version:  4.1                                   |
|   \\  /    A nd           | Web:      www.OpenFOAM.org                      |
|    \\/     M anipulation  |                                                 |
\*---------------------------------------------------------------------------*/
FoamFile
{
    version     2.0;
    format      ascii;
    class       volScalarField;
    location    "0.32";
    object      Ma;
}
// * * * * * * * * * * * * * * * * * * * * * * * * * * * * * * * * * * * * * //

dimensions      [0 0 0 0 0 0 0];

internalField   nonuniform List<scalar> 
18000
(
5.65972e-12
5.59454e-12
5.51918e-12
5.45545e-12
5.39258e-12
5.33048e-12
5.26924e-12
5.20891e-12
5.14952e-12
5.0916e-12
7.11474e-12
6.85839e-12
6.60292e-12
6.36735e-12
6.14204e-12
5.92641e-12
5.71992e-12
5.52223e-12
5.33261e-12
5.15321e-12
9.05941e-12
8.49375e-12
7.96103e-12
7.47481e-12
7.02431e-12
6.60663e-12
6.21924e-12
5.85924e-12
5.52459e-12
5.21577e-12
1.1699e-11
1.06346e-11
9.67852e-12
8.82788e-12
8.0674e-12
7.38577e-12
6.77334e-12
6.22205e-12
5.72493e-12
5.27952e-12
1.53428e-11
1.34745e-11
1.18708e-11
1.04934e-11
9.30689e-12
8.28047e-12
7.38933e-12
6.61314e-12
5.93443e-12
5.34458e-12
2.04673e-11
1.72971e-11
1.47007e-11
1.25593e-11
1.07874e-11
9.31163e-12
8.07562e-12
7.03485e-12
6.15351e-12
5.41045e-12
2.78228e-11
2.2526e-11
1.83958e-11
1.5144e-11
1.25664e-11
1.05045e-11
8.84162e-12
7.48997e-12
6.38294e-12
5.4775e-12
3.86296e-11
2.9798e-11
2.32821e-11
1.8407e-11
1.47194e-11
1.18946e-11
9.70525e-12
7.99013e-12
6.63247e-12
5.55718e-12
2.34031e-09
2.2649e-09
2.12059e-09
1.9926e-09
1.8787e-09
1.77676e-09
1.68505e-09
1.60215e-09
1.5269e-09
1.4723e-09
2.5085e-07
3.35833e-08
2.85182e-08
2.45774e-08
2.13156e-08
1.85893e-08
1.62913e-08
1.43402e-08
1.26343e-08
3.89656e-08
5.82307e-12
5.75345e-12
5.67724e-12
5.60976e-12
5.54353e-12
5.47856e-12
5.41411e-12
5.3511e-12
5.28903e-12
5.2283e-12
7.34944e-12
7.07703e-12
6.81548e-12
6.56673e-12
6.32957e-12
6.10283e-12
5.88639e-12
5.6795e-12
5.48167e-12
5.29317e-12
9.38974e-12
8.79035e-12
8.2429e-12
7.72963e-12
7.25554e-12
6.81696e-12
6.41096e-12
6.03437e-12
5.68489e-12
5.35992e-12
1.21769e-11
1.10504e-11
1.006e-11
9.15981e-12
8.35735e-12
7.63993e-12
6.99701e-12
6.4198e-12
5.89964e-12
5.42841e-12
1.60516e-11
1.40723e-11
1.23962e-11
1.09317e-11
9.67496e-12
8.59121e-12
7.65289e-12
6.83791e-12
6.12667e-12
5.49936e-12
2.15475e-11
1.81751e-11
1.54351e-11
1.3145e-11
1.12591e-11
9.69445e-12
8.38876e-12
7.29283e-12
6.36709e-12
5.57239e-12
2.9513e-11
2.38457e-11
1.94373e-11
1.59351e-11
1.31758e-11
1.09795e-11
9.21568e-12
7.78782e-12
6.62107e-12
5.64786e-12
4.1361e-11
3.1828e-11
2.47829e-11
1.94873e-11
1.55113e-11
1.24831e-11
1.01487e-11
8.32752e-12
6.89049e-12
5.72605e-12
6.83933e-11
9.48688e-11
7.59314e-11
6.15709e-11
5.06514e-11
4.21946e-11
3.5541e-11
3.02329e-11
2.59455e-11
2.24236e-11
1.57156e-07
2.56127e-08
2.21811e-08
1.93679e-08
1.70553e-08
1.51324e-08
1.35173e-08
1.2148e-08
1.09786e-08
1.0179e-08
4.21323e-13
3.97241e-13
2.34972e-13
2.17297e-13
2.01007e-13
1.86451e-13
1.73689e-13
1.63046e-13
1.5411e-13
1.42922e-13
5.82073e-13
5.10304e-13
4.39124e-13
3.89095e-13
3.43851e-13
3.03484e-13
2.68191e-13
2.38328e-13
2.14012e-13
1.62322e-13
6.82161e-13
5.74254e-13
5.92134e-13
5.19531e-13
4.56023e-13
4.01779e-13
3.56343e-13
3.18825e-13
2.87473e-13
1.89203e-13
8.73539e-13
7.61163e-13
8.46073e-13
7.31786e-13
6.34734e-13
5.53754e-13
4.86481e-13
4.31169e-13
3.84133e-13
2.28576e-13
1.19505e-12
1.11732e-12
1.21716e-12
1.03024e-12
8.75901e-13
7.50351e-13
6.47825e-13
5.6411e-13
4.93147e-13
2.74732e-13
1.73085e-12
1.71991e-12
1.7535e-12
1.44235e-12
1.19453e-12
9.98619e-13
8.42517e-13
7.17505e-13
6.1353e-13
3.26526e-13
2.61975e-12
2.6893e-12
2.53001e-12
2.00925e-12
1.61227e-12
1.30938e-12
1.07515e-12
8.92684e-13
7.45074e-13
3.82681e-13
4.12421e-12
4.23233e-12
3.66144e-12
2.79102e-12
2.15969e-12
1.69709e-12
1.35224e-12
1.09189e-12
8.88077e-13
4.42748e-13
7.9889e-11
6.36846e-12
5.10964e-12
3.75032e-12
2.81026e-12
2.14894e-12
1.67259e-12
1.32335e-12
1.05763e-12
5.37411e-13
1.36804e-07
9.79801e-10
7.10092e-10
5.39982e-10
4.17873e-10
3.28411e-10
2.61681e-10
2.11105e-10
1.72233e-10
1.42392e-10
3.86776e-13
3.61724e-13
1.72227e-13
1.51047e-13
1.30695e-13
1.11547e-13
9.36862e-14
7.73404e-14
6.28527e-14
3.67069e-14
5.33336e-13
4.60056e-13
3.86251e-13
3.35682e-13
2.8915e-13
2.47428e-13
2.1061e-13
1.79024e-13
1.52997e-13
7.94492e-14
5.96291e-13
4.88653e-13
5.2391e-13
4.55073e-13
3.94953e-13
3.43865e-13
3.01364e-13
2.6724e-13
2.39251e-13
1.19891e-13
7.2881e-13
6.33912e-13
7.60883e-13
6.56839e-13
5.68319e-13
4.95033e-13
4.34532e-13
3.85219e-13
3.43649e-13
1.71284e-13
9.5536e-13
9.42741e-13
1.10798e-12
9.40447e-13
8.01609e-13
6.88463e-13
5.96088e-13
5.20953e-13
4.57141e-13
2.25111e-13
1.33684e-12
1.48353e-12
1.60995e-12
1.33194e-12
1.10865e-12
9.31361e-13
7.89324e-13
6.7548e-13
5.80103e-13
2.81928e-13
1.96909e-12
2.36023e-12
2.33583e-12
1.87004e-12
1.51078e-12
1.23441e-12
1.01914e-12
8.50581e-13
7.13227e-13
3.41823e-13
3.02672e-12
3.7559e-12
3.39104e-12
2.61134e-12
2.03687e-12
1.61197e-12
1.29227e-12
1.04901e-12
8.57304e-13
4.0492e-13
8.50807e-11
6.12757e-12
4.93657e-12
3.63527e-12
2.72541e-12
2.08143e-12
1.6157e-12
1.27355e-12
1.01291e-12
4.71162e-13
1.3802e-07
3.19417e-10
1.41516e-11
9.22324e-12
6.37875e-12
4.52887e-12
3.28947e-12
2.43729e-12
1.83487e-12
1.15457e-12
3.86885e-13
3.6148e-13
1.7265e-13
1.51386e-13
1.30947e-13
1.11721e-13
9.39614e-14
7.75884e-14
6.29306e-14
3.68252e-14
5.33931e-13
4.6044e-13
3.87149e-13
3.36472e-13
2.89864e-13
2.47925e-13
2.10991e-13
1.79454e-13
1.53344e-13
7.9626e-14
5.97551e-13
4.89917e-13
5.25609e-13
4.56439e-13
3.95965e-13
3.44811e-13
3.02122e-13
2.67726e-13
2.39553e-13
1.2015e-13
7.31458e-13
6.36771e-13
7.63555e-13
6.59117e-13
5.70072e-13
4.96423e-13
4.35698e-13
3.86109e-13
3.44292e-13
1.71513e-13
9.60341e-13
9.48074e-13
1.11264e-12
9.44074e-13
8.04516e-13
6.90858e-13
5.97887e-13
5.22248e-13
4.58149e-13
2.2584e-13
1.34609e-12
1.49284e-12
1.61758e-12
1.33804e-12
1.11338e-12
9.35138e-13
7.9236e-13
6.77824e-13
5.8196e-13
2.83135e-13
1.98598e-12
2.37673e-12
2.34911e-12
1.8802e-12
1.51866e-12
1.24063e-12
1.02401e-12
8.543e-13
7.16277e-13
3.43927e-13
3.05726e-12
3.78561e-12
3.41372e-12
2.62839e-12
2.04987e-12
1.62196e-12
1.30002e-12
1.055e-12
8.61938e-13
4.08218e-13
8.59228e-11
6.19544e-12
4.97997e-12
3.66595e-12
2.74758e-12
2.09773e-12
1.62788e-12
1.28285e-12
1.02015e-12
4.75961e-13
1.42703e-07
3.29452e-10
7.94257e-12
5.05961e-12
3.6475e-12
2.68946e-12
2.02178e-12
1.547e-12
1.19691e-12
5.54558e-13
3.86994e-13
3.61149e-13
1.73239e-13
1.51898e-13
1.31318e-13
1.12057e-13
9.41416e-14
7.78479e-14
6.31987e-14
3.6857e-14
5.34771e-13
4.60935e-13
3.88431e-13
3.37565e-13
2.90799e-13
2.4868e-13
2.11566e-13
1.79844e-13
1.53788e-13
7.99807e-14
5.99396e-13
4.9174e-13
5.27911e-13
4.58363e-13
3.97583e-13
3.46041e-13
3.03091e-13
2.68398e-13
2.40083e-13
1.20561e-13
7.35264e-13
6.40904e-13
7.67345e-13
6.62209e-13
5.7265e-13
4.98351e-13
4.37122e-13
3.87309e-13
3.45081e-13
1.72091e-13
9.67851e-13
9.55676e-13
1.11894e-12
9.49108e-13
8.08468e-13
6.94113e-13
6.00452e-13
5.24234e-13
4.59683e-13
2.26864e-13
1.36039e-12
1.50643e-12
1.62836e-12
1.34644e-12
1.11991e-12
9.40324e-13
7.96484e-13
6.80972e-13
5.84533e-13
2.84934e-13
2.01278e-12
2.40057e-12
2.36753e-12
1.89431e-12
1.52948e-12
1.24912e-12
1.03067e-12
8.5947e-13
7.20355e-13
3.46794e-13
3.10784e-12
3.82849e-12
3.44576e-12
2.65199e-12
2.06757e-12
1.63546e-12
1.31047e-12
1.06314e-12
8.68215e-13
4.12527e-13
8.79318e-11
6.27681e-12
5.03569e-12
3.70549e-12
2.77631e-12
2.1191e-12
1.64393e-12
1.29504e-12
1.02952e-12
4.82428e-13
1.5044e-07
3.41063e-10
8.04289e-12
5.11575e-12
3.68778e-12
2.71877e-12
2.04362e-12
1.56359e-12
1.20957e-12
5.62932e-13
3.87024e-13
3.60826e-13
1.73902e-13
1.52522e-13
1.31901e-13
1.12553e-13
9.45493e-14
7.8069e-14
6.33784e-14
3.7139e-14
5.35775e-13
4.61623e-13
3.90016e-13
3.38858e-13
2.9194e-13
2.4971e-13
2.12446e-13
1.80505e-13
1.54055e-13
8.03297e-14
6.01677e-13
4.93953e-13
5.30655e-13
4.60683e-13
3.99509e-13
3.47627e-13
3.04223e-13
2.69288e-13
2.4074e-13
1.21016e-13
7.39943e-13
6.45886e-13
7.71932e-13
6.65939e-13
5.75727e-13
5.00848e-13
4.38972e-13
3.88672e-13
3.46282e-13
1.72925e-13
9.77091e-13
9.64991e-13
1.12654e-12
9.55175e-13
8.13305e-13
6.98064e-13
6.03601e-13
5.2667e-13
4.61559e-13
2.28293e-13
1.37801e-12
1.52277e-12
1.64133e-12
1.35664e-12
1.12792e-12
9.46696e-13
8.01589e-13
6.84983e-13
5.87642e-13
2.87248e-13
2.04595e-12
2.42953e-12
2.38976e-12
1.91143e-12
1.54269e-12
1.25948e-12
1.03894e-12
8.65895e-13
7.25403e-13
3.50485e-13
3.17043e-12
3.88032e-12
3.48455e-12
2.68084e-12
2.08925e-12
1.65202e-12
1.32342e-12
1.07316e-12
8.75979e-13
4.17991e-13
9.22054e-11
6.37592e-12
5.1034e-12
3.75396e-12
2.81167e-12
2.14535e-12
1.66379e-12
1.30999e-12
1.0411e-12
4.90325e-13
1.66733e-07
3.63271e-10
8.17233e-12
5.19324e-12
3.74267e-12
2.75845e-12
2.073e-12
1.5857e-12
1.22613e-12
5.74137e-13
3.8712e-13
3.60065e-13
1.74535e-13
1.53047e-13
1.32522e-13
1.13294e-13
9.55758e-14
8.20543e-14
1.14418e-13
3.26879e-13
5.36766e-13
4.61883e-13
3.91438e-13
3.40173e-13
2.93151e-13
2.50927e-13
2.13701e-13
1.82754e-13
1.66291e-13
2.26447e-13
6.03931e-13
4.95542e-13
5.33133e-13
4.62874e-13
4.01463e-13
3.49481e-13
3.06145e-13
2.71316e-13
2.46415e-13
1.88278e-13
7.44755e-13
6.4977e-13
7.75946e-13
6.69348e-13
5.78617e-13
5.0351e-13
4.41696e-13
3.91364e-13
3.50593e-13
2.06031e-13
9.86475e-13
9.72445e-13
1.1331e-12
9.60653e-13
8.17847e-13
7.01922e-13
6.07429e-13
5.30443e-13
4.6622e-13
2.48541e-13
1.39529e-12
1.5361e-12
1.6523e-12
1.36564e-12
1.13524e-12
9.53012e-13
8.07523e-13
6.90584e-13
5.93411e-13
3.02909e-13
2.07721e-12
2.45339e-12
2.40853e-12
1.92636e-12
1.5547e-12
1.26947e-12
1.04785e-12
8.74329e-13
7.33085e-13
3.64583e-13
3.22345e-12
3.92294e-12
3.51692e-12
2.70601e-12
2.10895e-12
1.66779e-12
1.33688e-12
1.08558e-12
8.8701e-13
4.32299e-13
8.27201e-11
6.41095e-12
5.15908e-12
3.79592e-12
2.84361e-12
2.1703e-12
1.68421e-12
1.32773e-12
1.0564e-12
5.06096e-13
1.61736e-07
2.84758e-10
8.03286e-12
5.25893e-12
3.79205e-12
2.79611e-12
2.10251e-12
1.61028e-12
1.24741e-12
5.92736e-13
3.87411e-13
4.01185e-13
2.13501e-13
1.59696e-13
1.50396e-13
2.9287e-13
5.73781e-13
2.07976e-12
8.79124e-12
2.902e-11
5.41221e-13
5.35096e-13
4.36637e-13
3.55582e-13
2.92944e-13
3.32952e-13
5.17501e-13
1.38223e-12
5.10567e-12
1.85071e-11
6.14785e-13
6.23241e-13
6.00282e-13
4.94387e-13
4.02625e-13
3.77037e-13
5.41888e-13
1.01641e-12
3.21544e-12
1.17581e-11
7.60956e-13
8.20747e-13
8.57088e-13
7.11823e-13
5.85471e-13
5.06097e-13
5.75568e-13
8.47135e-13
2.19241e-12
7.78955e-12
1.00409e-12
1.16348e-12
1.21997e-12
1.00798e-12
8.28866e-13
6.95465e-13
6.69694e-13
8.14675e-13
1.63637e-12
5.3793e-12
1.40376e-12
1.72259e-12
1.73401e-12
1.40902e-12
1.14437e-12
9.41265e-13
8.2974e-13
9.19154e-13
1.35452e-12
3.86292e-12
2.05541e-12
2.61093e-12
2.46937e-12
1.9542e-12
1.55361e-12
1.25003e-12
1.04598e-12
1.01883e-12
1.27317e-12
2.87908e-12
3.11976e-12
4.01775e-12
3.53357e-12
2.70191e-12
2.08666e-12
1.63472e-12
1.31777e-12
1.16837e-12
1.30951e-12
2.2284e-12
1.33714e-11
6.22844e-12
5.09654e-12
3.73743e-12
2.78539e-12
2.11469e-12
1.64865e-12
1.3683e-12
1.36961e-12
1.79618e-12
1.38603e-08
2.96974e-10
6.98908e-12
5.11189e-12
3.67811e-12
2.70631e-12
2.04492e-12
1.61754e-12
1.46142e-12
1.5181e-12
2.53377e-12
2.39157e-12
1.53292e-12
1.5541e-13
2.63917e-12
8.439e-12
2.43765e-11
8.54774e-11
3.71185e-10
8.25385e-10
3.56802e-12
3.45898e-12
2.56882e-12
1.17777e-12
1.31711e-12
6.15556e-12
1.81232e-11
5.70077e-11
2.16668e-10
5.01869e-10
4.83507e-12
4.72278e-12
3.74864e-12
2.34239e-12
3.02991e-13
4.06625e-12
1.32285e-11
3.98584e-11
1.36793e-10
3.22702e-10
6.49309e-12
6.30211e-12
5.15143e-12
3.64125e-12
1.47729e-12
2.26738e-12
9.5791e-12
2.87976e-11
9.15632e-11
2.16145e-10
8.70418e-12
8.31001e-12
6.84891e-12
5.12608e-12
2.89134e-12
7.82875e-13
6.68837e-12
2.11087e-11
6.39098e-11
1.49771e-10
1.17093e-11
1.09062e-11
8.93991e-12
6.85101e-12
4.41729e-12
1.28966e-12
4.33641e-12
1.54159e-11
4.59703e-11
1.0679e-10
1.588e-11
1.43331e-11
1.15606e-11
8.89205e-12
6.10579e-12
2.82261e-12
2.38472e-12
1.12764e-11
3.36982e-11
7.7988e-11
2.18176e-11
1.89421e-11
1.48996e-11
1.13512e-11
8.00336e-12
4.44814e-12
1.15349e-12
8.05742e-12
2.49845e-11
5.8089e-11
8.41392e-11
2.52661e-11
1.92336e-11
1.43598e-11
1.01778e-11
6.17763e-12
1.93117e-12
5.48501e-12
1.87085e-11
4.39611e-11
4.09378e-07
6.00859e-10
2.49357e-11
1.80794e-11
1.26943e-11
8.03063e-12
3.44179e-12
3.44139e-12
1.40397e-11
3.36583e-11
3.41544e-12
3.07126e-12
2.02942e-12
1.93158e-12
8.29448e-12
2.82937e-11
1.08258e-10
5.36699e-10
1.59974e-09
2.02043e-09
4.52927e-12
4.21932e-12
3.22236e-12
1.67835e-12
5.19141e-12
1.96018e-11
7.02388e-11
3.04564e-10
9.20257e-10
1.11922e-09
5.88572e-12
5.55113e-12
4.56542e-12
2.82188e-12
2.79722e-12
1.31382e-11
4.7134e-11
1.86549e-10
5.60608e-10
6.64056e-10
7.62482e-12
7.16507e-12
6.08978e-12
4.35745e-12
1.97985e-12
8.36633e-12
3.22492e-11
1.20607e-10
3.56818e-10
4.14705e-10
9.91006e-12
9.17309e-12
7.869e-12
6.05879e-12
3.22456e-12
4.78356e-12
2.20227e-11
8.08813e-11
2.35502e-10
2.69971e-10
1.2987e-11
1.17322e-11
1.00031e-11
7.95421e-12
5.06641e-12
2.50883e-12
1.46065e-11
5.53795e-11
1.6019e-10
1.81808e-10
1.72288e-11
1.50694e-11
1.26283e-11
1.01233e-11
7.06712e-12
2.85216e-12
9.22155e-12
3.83047e-11
1.11372e-10
1.25919e-10
2.32269e-11
1.95192e-11
1.59328e-11
1.26699e-11
9.22391e-12
4.77887e-12
5.2045e-12
2.64358e-11
7.87316e-11
8.91783e-11
7.69311e-11
2.55432e-11
2.01807e-11
1.5734e-11
1.16108e-11
6.96097e-12
2.71174e-12
1.79854e-11
5.63455e-11
6.4139e-11
7.6029e-08
3.82098e-09
2.69771e-11
1.94739e-11
1.42994e-11
9.21153e-12
3.15083e-12
1.17731e-11
4.05748e-11
4.65584e-11
1.01101e-12
1.26473e-12
1.53812e-12
3.24051e-12
8.60486e-12
2.54489e-11
8.86948e-11
3.17107e-10
5.47886e-10
1.36871e-10
1.09259e-12
1.26242e-12
1.40073e-12
2.45032e-12
6.10632e-12
1.76632e-11
5.85503e-11
1.9673e-10
3.1743e-10
1.30598e-10
1.17748e-12
1.29953e-12
1.38787e-12
1.97497e-12
4.36976e-12
1.2366e-11
3.95995e-11
1.2651e-10
1.92061e-10
1.00616e-10
1.26375e-12
1.36345e-12
1.45165e-12
1.77722e-12
3.21858e-12
8.71537e-12
2.72788e-11
8.38279e-11
1.20515e-10
7.44366e-11
1.35389e-12
1.44298e-12
1.54992e-12
1.75667e-12
2.52946e-12
6.19578e-12
1.90667e-11
5.69439e-11
7.78734e-11
5.50135e-11
1.45241e-12
1.53486e-12
1.66086e-12
1.82535e-12
2.20061e-12
4.48285e-12
1.3427e-11
3.95633e-11
5.15378e-11
4.1318e-11
1.56385e-12
1.63776e-12
1.77664e-12
1.93242e-12
2.11256e-12
3.37545e-12
9.50439e-12
2.78034e-11
3.48349e-11
3.17268e-11
1.6992e-12
1.75369e-12
1.89732e-12
2.05134e-12
2.15181e-12
2.74518e-12
6.80339e-12
1.9755e-11
2.39294e-11
2.49366e-11
2.03388e-10
2.5527e-12
2.02332e-12
2.17557e-12
2.24915e-12
2.46159e-12
4.96128e-12
1.41669e-11
1.65549e-11
2.00553e-11
1.31167e-07
3.71111e-09
5.3573e-12
2.29225e-12
2.36206e-12
2.38788e-12
3.7396e-12
1.02249e-11
1.14439e-11
1.6371e-11
7.91627e-13
1.50312e-12
1.60901e-12
2.52011e-12
4.15198e-12
7.17964e-12
1.48416e-11
5.34958e-11
2.72725e-10
8.41806e-10
7.26554e-13
1.35038e-12
1.3952e-12
2.15069e-12
3.48806e-12
5.92654e-12
1.13442e-11
3.33475e-11
1.64698e-10
4.63441e-10
6.63763e-13
1.20739e-12
1.20138e-12
1.82662e-12
2.92438e-12
4.88545e-12
8.90014e-12
2.21817e-11
1.03462e-10
2.7293e-10
6.1015e-13
1.08564e-12
1.04042e-12
1.56296e-12
2.46746e-12
4.06439e-12
7.15032e-12
1.57083e-11
6.73212e-11
1.69476e-10
5.6407e-13
9.81414e-13
9.05328e-13
1.3423e-12
2.09475e-12
3.41228e-12
5.83998e-12
1.17101e-11
4.50915e-11
1.09697e-10
5.24494e-13
8.92367e-13
7.9184e-13
1.16114e-12
1.79282e-12
2.88172e-12
4.83478e-12
9.07215e-12
3.09627e-11
7.34408e-11
4.90296e-13
8.15436e-13
6.9613e-13
1.00928e-12
1.53973e-12
2.44776e-12
4.05163e-12
7.23095e-12
2.17307e-11
5.05599e-11
4.71195e-13
7.48725e-13
6.15329e-13
8.80893e-13
1.3304e-12
2.09441e-12
3.42372e-12
5.89413e-12
1.55469e-11
3.56417e-11
3.34842e-10
5.04979e-12
5.46777e-13
7.72914e-13
1.15618e-12
1.8025e-12
2.91253e-12
4.88567e-12
1.13226e-11
2.56426e-11
1.30164e-07
1.25094e-08
3.18982e-11
6.28513e-13
1.00287e-12
1.55155e-12
2.48418e-12
4.09006e-12
8.36403e-12
1.87633e-11
1.06678e-12
1.85906e-12
1.61885e-12
2.17436e-12
3.02917e-12
4.39354e-12
6.98569e-12
1.37225e-11
5.27193e-11
1.41603e-10
9.93494e-13
1.70464e-12
1.45132e-12
1.93877e-12
2.67821e-12
3.82445e-12
5.822e-12
1.04991e-11
3.74618e-11
8.89405e-11
9.22216e-13
1.55623e-12
1.28987e-12
1.71357e-12
2.35242e-12
3.32621e-12
4.91469e-12
8.19509e-12
2.6671e-11
5.87627e-11
8.60107e-13
1.42708e-12
1.15134e-12
1.51917e-12
2.07458e-12
2.90896e-12
4.21863e-12
6.62227e-12
1.91886e-11
4.03442e-11
8.06176e-13
1.31435e-12
1.03214e-12
1.35228e-12
1.83835e-12
2.55964e-12
3.66458e-12
5.51046e-12
1.39431e-11
2.85162e-11
7.59049e-13
1.21562e-12
9.28978e-13
1.20877e-12
1.63296e-12
2.26133e-12
3.21256e-12
4.68978e-12
1.02292e-11
2.06135e-11
7.17607e-13
1.12861e-12
8.39677e-13
1.08437e-12
1.45609e-12
2.00739e-12
2.83247e-12
4.05569e-12
7.56951e-12
1.51723e-11
6.94401e-13
1.05161e-12
7.62112e-13
9.76184e-13
1.30254e-12
1.78674e-12
2.50705e-12
3.54674e-12
5.64981e-12
1.1334e-11
5.00142e-10
8.97275e-12
6.97537e-13
8.81988e-13
1.16909e-12
1.5949e-12
2.22951e-12
3.12463e-12
4.25257e-12
8.56186e-12
1.60089e-07
2.21158e-08
7.84939e-11
8.6417e-13
1.04506e-12
1.42487e-12
1.98405e-12
2.7603e-12
3.21102e-12
6.51432e-12
1.48318e-12
2.3528e-12
1.62954e-12
1.9031e-12
2.28424e-12
2.82993e-12
3.80484e-12
5.96934e-12
1.60189e-11
2.46447e-11
1.40281e-12
2.20158e-12
1.51305e-12
1.77009e-12
2.12333e-12
2.60422e-12
3.36679e-12
4.88475e-12
1.23601e-11
1.89106e-11
1.32271e-12
2.0515e-12
1.39045e-12
1.62826e-12
1.95437e-12
2.38554e-12
3.01409e-12
4.1085e-12
9.40301e-12
1.45223e-11
1.2519e-12
1.91727e-12
1.27967e-12
1.49865e-12
1.79984e-12
2.19304e-12
2.73569e-12
3.5637e-12
7.15503e-12
1.12515e-11
1.18924e-12
1.79704e-12
1.18027e-12
1.381e-12
1.65962e-12
2.02076e-12
2.5054e-12
3.16739e-12
5.44649e-12
8.76966e-12
1.13357e-12
1.68887e-12
1.09119e-12
1.27499e-12
1.53107e-12
1.86483e-12
2.30423e-12
2.86313e-12
4.14476e-12
6.86578e-12
1.08398e-12
1.59166e-12
1.01123e-12
1.17894e-12
1.41401e-12
1.7225e-12
2.12826e-12
2.61498e-12
3.15353e-12
5.38923e-12
1.05422e-12
1.5038e-12
9.39338e-13
1.092e-12
1.30765e-12
1.59263e-12
1.96842e-12
2.40632e-12
2.39538e-12
4.23865e-12
6.60687e-10
1.32557e-11
8.79868e-13
1.01313e-12
1.21068e-12
1.47368e-12
1.82231e-12
2.22301e-12
1.81448e-12
3.33783e-12
1.29693e-07
3.06938e-08
1.24654e-10
1.13567e-12
1.11379e-12
1.36211e-12
1.68323e-12
2.05242e-12
1.35926e-12
2.61932e-12
2.09759e-12
2.98812e-12
1.58428e-12
1.60462e-12
1.6663e-12
1.79885e-12
2.14718e-12
2.9646e-12
6.71829e-12
8.38416e-12
2.01205e-12
2.84977e-12
1.52562e-12
1.56232e-12
1.63279e-12
1.7454e-12
1.99121e-12
2.54555e-12
5.44624e-12
6.99218e-12
1.92631e-12
2.70772e-12
1.45015e-12
1.49933e-12
1.57925e-12
1.6854e-12
1.87239e-12
2.24496e-12
4.305e-12
5.7298e-12
1.84875e-12
2.57662e-12
1.37646e-12
1.43406e-12
1.52146e-12
1.62796e-12
1.78497e-12
2.04307e-12
3.3862e-12
4.69398e-12
1.77871e-12
2.45577e-12
1.30566e-12
1.36931e-12
1.46228e-12
1.57132e-12
1.7141e-12
1.90549e-12
2.64548e-12
3.84497e-12
1.71528e-12
2.34446e-12
1.23887e-12
1.30542e-12
1.40186e-12
1.51437e-12
1.65312e-12
1.80555e-12
2.04814e-12
3.14442e-12
1.6578e-12
2.24195e-12
1.17584e-12
1.24355e-12
1.34147e-12
1.45652e-12
1.59526e-12
1.72765e-12
1.56311e-12
2.56518e-12
1.6201e-12
2.1475e-12
1.11672e-12
1.18441e-12
1.28246e-12
1.39844e-12
1.53764e-12
1.66195e-12
1.17137e-12
2.08498e-12
8.19813e-10
1.72038e-11
1.06774e-12
1.12771e-12
1.22498e-12
1.34109e-12
1.48065e-12
1.60278e-12
8.56342e-13
1.68641e-12
3.97499e-08
3.53343e-08
2.8351e-10
9.44193e-13
1.1596e-12
1.2822e-12
1.41972e-12
1.54106e-12
5.9192e-13
1.35293e-12
2.9443e-12
3.71774e-12
1.41008e-12
1.21449e-12
1.06805e-12
1.00316e-12
1.1366e-12
1.54262e-12
3.38927e-12
3.79123e-12
2.85907e-12
3.6072e-12
1.41143e-12
1.24895e-12
1.12096e-12
1.03663e-12
1.07942e-12
1.33674e-12
2.90604e-12
3.36368e-12
2.77312e-12
3.48925e-12
1.39028e-12
1.2582e-12
1.152e-12
1.06656e-12
1.05642e-12
1.1937e-12
2.39461e-12
2.89105e-12
2.69368e-12
3.37635e-12
1.36156e-12
1.25524e-12
1.17012e-12
1.09291e-12
1.05707e-12
1.10968e-12
1.95599e-12
2.48014e-12
2.62033e-12
3.26911e-12
1.32896e-12
1.24436e-12
1.17829e-12
1.1133e-12
1.06869e-12
1.06907e-12
1.58008e-12
2.12287e-12
2.55263e-12
3.16736e-12
1.29339e-12
1.22713e-12
1.17812e-12
1.12696e-12
1.08415e-12
1.05512e-12
1.25721e-12
1.81199e-12
2.49018e-12
3.07132e-12
1.25633e-12
1.2055e-12
1.17152e-12
1.13399e-12
1.09865e-12
1.05557e-12
9.812e-13
1.54174e-12
2.44686e-12
2.98083e-12
1.21878e-12
1.181e-12
1.15962e-12
1.13478e-12
1.10909e-12
1.06295e-12
7.4538e-13
1.30815e-12
9.90551e-10
1.99637e-11
1.18941e-12
1.15431e-12
1.14399e-12
1.13042e-12
1.11464e-12
1.07233e-12
5.4494e-13
1.10734e-12
6.4051e-08
3.36147e-08
2.75615e-10
1.12563e-12
1.11758e-12
1.11982e-12
1.11308e-12
1.07713e-12
3.69452e-13
9.3849e-13
3.97654e-12
4.43421e-12
1.08587e-12
7.60429e-13
4.95123e-13
3.49288e-13
4.86174e-13
7.94414e-13
2.04984e-12
2.07395e-12
3.89771e-12
4.36481e-12
1.13179e-12
8.4262e-13
6.00509e-13
4.19769e-13
4.30093e-13
6.50351e-13
1.88327e-12
1.96266e-12
3.81939e-12
4.28827e-12
1.15512e-12
9.0088e-13
6.84632e-13
4.99448e-13
4.26509e-13
5.42678e-13
1.63969e-12
1.76759e-12
3.74533e-12
4.21078e-12
1.16683e-12
9.43624e-13
7.51357e-13
5.74147e-13
4.59121e-13
4.78239e-13
1.42237e-12
1.59131e-12
3.67524e-12
4.13419e-12
1.17031e-12
9.74468e-13
8.05028e-13
6.40632e-13
5.09153e-13
4.56993e-13
1.22875e-12
1.43188e-12
3.60981e-12
4.05892e-12
1.16713e-12
9.9619e-13
8.47974e-13
6.98593e-13
5.6447e-13
4.69142e-13
1.0578e-12
1.28873e-12
3.54823e-12
3.98545e-12
1.15908e-12
1.01033e-12
8.811e-13
7.47579e-13
6.18613e-13
5.01483e-13
9.08646e-13
1.16124e-12
3.50403e-12
3.91465e-12
1.14742e-12
1.01832e-12
9.06521e-13
7.88344e-13
6.68425e-13
5.43894e-13
7.80416e-13
1.04838e-12
1.14875e-09
2.11142e-11
1.14384e-12
1.02135e-12
9.25941e-13
8.2201e-13
7.12412e-13
5.89333e-13
6.73153e-13
9.49963e-13
1.77925e-07
2.42749e-08
2.52604e-10
1.4713e-12
9.35435e-13
8.47561e-13
7.49564e-13
6.31211e-13
5.86558e-13
8.69949e-13
4.99539e-12
4.99441e-12
7.39418e-13
4.98662e-13
2.72038e-13
1.52836e-13
2.67325e-13
4.60061e-13
1.47479e-12
1.33181e-12
4.92673e-12
4.97014e-12
7.69571e-13
5.36261e-13
3.10809e-13
1.2462e-13
1.63984e-13
3.56051e-13
1.46526e-12
1.35232e-12
4.86078e-12
4.94163e-12
7.91497e-13
5.72563e-13
3.60399e-13
1.62135e-13
7.6765e-14
2.57395e-13
1.35895e-12
1.27786e-12
4.79681e-12
4.90803e-12
8.09209e-13
6.05624e-13
4.10091e-13
2.20118e-13
4.51477e-14
1.66546e-13
1.26231e-12
1.20903e-12
4.73583e-12
4.87169e-12
8.23146e-13
6.35852e-13
4.57166e-13
2.80415e-13
1.08029e-13
8.68087e-14
1.17398e-12
1.14523e-12
4.67733e-12
4.83297e-12
8.33553e-13
6.62057e-13
4.9994e-13
3.37043e-13
1.76078e-13
4.25997e-14
1.09394e-12
1.08685e-12
4.62162e-12
4.79312e-12
8.40707e-13
6.84433e-13
5.38091e-13
3.89019e-13
2.38895e-13
8.5573e-14
1.02248e-12
1.03351e-12
4.58177e-12
4.75326e-12
8.44587e-13
7.02844e-13
5.71466e-13
4.35388e-13
2.95928e-13
1.46764e-13
9.58893e-13
9.85431e-13
1.27093e-09
2.07984e-11
8.62183e-13
7.18098e-13
6.00505e-13
4.76645e-13
3.48038e-13
2.05853e-13
9.034e-13
9.42016e-13
2.81349e-07
1.18654e-08
1.6231e-10
1.24101e-12
6.24674e-13
5.13298e-13
3.95058e-13
2.61499e-13
8.55625e-13
9.12331e-13
5.66004e-12
5.28495e-12
6.03713e-13
6.06308e-13
5.10626e-13
4.41318e-13
4.00526e-13
4.03071e-13
1.23656e-12
1.01952e-12
5.59852e-12
5.29058e-12
5.38313e-13
5.45819e-13
4.57973e-13
3.93528e-13
3.55078e-13
3.63086e-13
1.30061e-12
1.09708e-12
5.5418e-12
5.2957e-12
4.81704e-13
4.9176e-13
4.10782e-13
3.48996e-13
3.12063e-13
3.21067e-13
1.25861e-12
1.07439e-12
5.48647e-12
5.29455e-12
4.37337e-13
4.46219e-13
3.70515e-13
3.111e-13
2.7371e-13
2.82463e-13
1.21852e-12
1.05197e-12
5.43272e-12
5.28848e-12
4.04291e-13
4.09739e-13
3.38988e-13
2.80379e-13
2.40683e-13
2.46956e-13
1.18045e-12
1.03105e-12
5.38134e-12
5.27908e-12
3.81417e-13
3.8114e-13
3.14089e-13
2.55879e-13
2.1351e-13
2.15947e-13
1.14427e-12
1.01071e-12
5.33167e-12
5.26661e-12
3.65956e-13
3.59081e-13
2.95976e-13
2.38549e-13
1.93287e-13
1.88688e-13
1.1099e-12
9.91915e-13
5.29684e-12
5.25253e-12
3.56504e-13
3.42589e-13
2.8359e-13
2.27135e-13
1.78593e-13
1.66766e-13
1.07758e-12
9.73369e-13
1.3371e-09
1.98709e-11
3.85332e-13
3.30969e-13
2.75872e-13
2.21423e-13
1.7146e-13
1.50873e-13
1.04626e-12
9.55691e-13
3.45153e-07
8.73962e-09
1.17447e-10
7.63353e-13
2.72403e-13
2.23481e-13
1.74794e-13
1.48477e-13
1.01788e-12
9.68863e-13
5.66583e-12
5.25565e-12
6.07057e-13
6.31845e-13
5.40281e-13
4.66255e-13
4.12118e-13
3.95795e-13
1.16765e-12
9.73075e-13
5.60412e-12
5.26357e-12
5.24723e-13
5.62459e-13
4.8371e-13
4.18963e-13
3.71686e-13
3.63719e-13
1.24168e-12
1.05455e-12
5.54769e-12
5.27155e-12
4.51533e-13
4.98584e-13
4.30544e-13
3.73416e-13
3.31697e-13
3.27217e-13
1.20756e-12
1.03532e-12
5.49264e-12
5.27307e-12
3.90463e-13
4.4223e-13
3.8312e-13
3.32481e-13
2.95027e-13
2.93623e-13
1.17486e-12
1.01647e-12
5.43961e-12
5.26994e-12
3.41996e-13
3.9465e-13
3.42541e-13
2.96364e-13
2.61969e-13
2.62285e-13
1.14346e-12
9.98789e-13
5.38858e-12
5.26306e-12
3.05213e-13
3.54717e-13
3.08233e-13
2.65645e-13
2.32802e-13
2.33412e-13
1.11361e-12
9.82035e-13
5.33936e-12
5.253e-12
2.7895e-13
3.21641e-13
2.79673e-13
2.39821e-13
2.07835e-13
2.07508e-13
1.08486e-12
9.66107e-13
5.30492e-12
5.24121e-12
2.6204e-13
2.95162e-13
2.56772e-13
2.18921e-13
1.86692e-13
1.84641e-13
1.05769e-12
9.50828e-13
1.3371e-09
1.98691e-11
2.95756e-13
2.74442e-13
2.39137e-13
2.03276e-13
1.71124e-13
1.65523e-13
1.03111e-12
9.36126e-13
3.45153e-07
8.73962e-09
1.17425e-10
7.13567e-13
2.26112e-13
1.96122e-13
1.65651e-13
1.57463e-13
1.00669e-12
9.62699e-13
5.00398e-12
4.91447e-12
6.87753e-13
5.14522e-13
3.33288e-13
2.28209e-13
2.62507e-13
3.97493e-13
1.2376e-12
1.17914e-12
4.93707e-12
4.89857e-12
6.95514e-13
5.21236e-13
3.35916e-13
1.9464e-13
1.82676e-13
3.13277e-13
1.26112e-12
1.21147e-12
4.87315e-12
4.87898e-12
7.04689e-13
5.35869e-13
3.56525e-13
1.97696e-13
1.18708e-13
2.28721e-13
1.18356e-12
1.14957e-12
4.81136e-12
4.85381e-12
7.1467e-13
5.53729e-13
3.84945e-13
2.24515e-13
9.02076e-14
1.50152e-13
1.11283e-12
1.09256e-12
4.75232e-12
4.82571e-12
7.25e-13
5.73369e-13
4.17047e-13
2.63441e-13
1.14487e-13
7.99781e-14
1.04828e-12
1.04046e-12
4.69555e-12
4.79473e-12
7.34387e-13
5.92999e-13
4.49727e-13
3.05948e-13
1.61574e-13
3.5267e-14
9.90433e-13
9.93405e-13
4.64149e-12
4.76207e-12
7.42088e-13
6.11151e-13
4.80897e-13
3.47958e-13
2.12442e-13
7.00158e-14
9.38854e-13
9.51052e-13
4.60317e-12
4.72852e-12
7.4799e-13
6.2749e-13
5.0972e-13
3.87471e-13
2.61439e-13
1.24579e-13
8.9324e-13
9.13119e-13
1.27093e-09
2.0796e-11
7.6839e-13
6.41795e-13
5.35869e-13
4.24259e-13
3.07576e-13
1.78014e-13
8.53791e-13
8.80084e-13
2.81349e-07
1.18654e-08
1.6227e-10
1.16742e-12
5.58383e-13
4.57744e-13
3.50451e-13
2.29627e-13
8.20317e-13
8.70581e-13
3.98132e-12
4.33252e-12
9.56142e-13
6.54837e-13
3.94604e-13
2.1742e-13
3.33595e-13
6.08537e-13
1.52633e-12
1.74291e-12
3.90844e-12
4.2795e-12
1.0049e-12
7.33409e-13
4.98267e-13
3.06528e-13
2.92193e-13
4.92397e-13
1.43607e-12
1.66433e-12
3.83583e-12
4.21773e-12
1.03519e-12
7.93917e-13
5.83787e-13
3.96997e-13
3.04977e-13
4.03385e-13
1.25944e-12
1.50147e-12
3.76594e-12
4.1537e-12
1.05457e-12
8.40156e-13
6.52945e-13
4.77374e-13
3.51603e-13
3.53952e-13
1.10067e-12
1.35417e-12
3.69989e-12
4.08903e-12
1.06639e-12
8.76467e-13
7.10019e-13
5.47928e-13
4.11543e-13
3.4654e-13
9.59352e-13
1.22166e-12
3.6374e-12
4.02441e-12
1.07149e-12
9.03557e-13
7.56651e-13
6.09431e-13
4.7371e-13
3.70277e-13
8.35493e-13
1.10357e-12
3.57849e-12
3.96064e-12
1.07163e-12
9.23507e-13
7.94265e-13
6.6176e-13
5.32232e-13
4.12015e-13
7.28456e-13
9.99405e-13
3.5365e-12
3.89836e-12
1.06725e-12
9.37394e-13
8.24561e-13
7.06159e-13
5.85733e-13
4.60673e-13
6.39148e-13
9.08248e-13
1.14875e-09
2.11158e-11
1.07018e-12
9.46666e-13
8.486e-13
7.43576e-13
6.33286e-13
5.10447e-13
5.67186e-13
8.30345e-13
1.77925e-07
2.42749e-08
2.52574e-10
1.4108e-12
8.63391e-13
7.73109e-13
6.73634e-13
5.56127e-13
5.1296e-13
7.73592e-13
2.95106e-12
3.6269e-12
1.25055e-12
1.03703e-12
8.77025e-13
7.89153e-13
8.64829e-13
1.15923e-12
2.24641e-12
3.03202e-12
2.87545e-12
3.53878e-12
1.27332e-12
1.09071e-12
9.47485e-13
8.45801e-13
8.50231e-13
1.02827e-12
1.96097e-12
2.71314e-12
2.79683e-12
3.43954e-12
1.27178e-12
1.11865e-12
9.96214e-13
8.95556e-13
8.58106e-13
9.4053e-13
1.61777e-12
2.3336e-12
2.723e-12
3.34249e-12
1.26077e-12
1.13276e-12
1.03019e-12
9.38153e-13
8.81105e-13
8.97214e-13
1.31693e-12
2.00178e-12
2.65386e-12
3.24826e-12
1.24322e-12
1.13754e-12
1.05312e-12
9.72935e-13
9.11153e-13
8.85254e-13
1.0565e-12
1.71211e-12
2.58943e-12
3.15777e-12
1.22119e-12
1.13443e-12
1.06692e-12
9.9994e-13
9.41496e-13
8.92525e-13
8.30588e-13
1.45965e-12
2.52947e-12
3.07085e-12
1.196e-12
1.12571e-12
1.07291e-12
1.01884e-12
9.68101e-13
9.09557e-13
6.34922e-13
1.24087e-12
2.48784e-12
2.98832e-12
1.16865e-12
1.11251e-12
1.07305e-12
1.03121e-12
9.89449e-13
9.30213e-13
4.65991e-13
1.05245e-12
9.90554e-10
1.99698e-11
1.14757e-12
1.09619e-12
1.06805e-12
1.03764e-12
1.00582e-12
9.50795e-13
3.22984e-13
8.91743e-13
6.4051e-08
3.36147e-08
2.75595e-10
1.08111e-12
1.05198e-12
1.03723e-12
1.01418e-12
9.6575e-13
1.95467e-13
7.59294e-13
2.11733e-12
2.92962e-12
1.42853e-12
1.38656e-12
1.38825e-12
1.44622e-12
1.64786e-12
2.13439e-12
3.8944e-12
6.25894e-12
2.04119e-12
2.81587e-12
1.4027e-12
1.38171e-12
1.39589e-12
1.44514e-12
1.58569e-12
1.91342e-12
3.22869e-12
5.27366e-12
1.96142e-12
2.69218e-12
1.35484e-12
1.35121e-12
1.378e-12
1.42785e-12
1.53494e-12
1.75284e-12
2.57521e-12
4.33697e-12
1.88791e-12
2.57551e-12
1.30359e-12
1.31353e-12
1.35128e-12
1.40627e-12
1.49878e-12
1.6472e-12
2.03741e-12
3.56226e-12
1.8208e-12
2.46616e-12
1.25121e-12
1.27198e-12
1.31916e-12
1.38031e-12
1.46902e-12
1.57756e-12
1.59734e-12
2.92116e-12
1.75894e-12