/*--------------------------------*- C++ -*----------------------------------*\
| =========                 |                                                 |
| \\      /  F ield         | OpenFOAM: The Open Source CFD Toolbox           |
|  \\    /   O peration     | Version:  4.1                                   |
|   \\  /    A nd           | Web:      www.OpenFOAM.org                      |
|    \\/     M anipulation  |                                                 |
\*---------------------------------------------------------------------------*/
FoamFile
{
    version     2.0;
    format      ascii;
    class       surfaceScalarField;
    location    "0.32";
    object      phi;
}
// * * * * * * * * * * * * * * * * * * * * * * * * * * * * * * * * * * * * * //

dimensions      [1 0 -1 0 0 0 0];

internalField   nonuniform List<scalar> 
51500
(
3.68685e-13
1.08585e-14
1.52485e-11
-1.86726e-15
1.8366e-14
1.50724e-11
-2.24626e-15
1.74744e-14
1.48983e-11
-2.25659e-15
1.6448e-14
1.47264e-11
-2.19984e-15
1.53528e-14
1.45568e-11
-2.17468e-15
1.42088e-14
1.43893e-11
-2.18786e-15
1.30431e-14
1.4224e-11
-2.16652e-15
1.18662e-14
1.40612e-11
-2.13652e-15
1.06701e-14
1.39008e-11
9.46125e-15
1.37444e-11
-7.35089e-17
3.73649e-13
8.01948e-15
1.91828e-11
-9.80342e-15
9.19153e-15
1.84904e-11
-8.47812e-15
8.03648e-15
1.7826e-11
-8.31721e-15
7.05635e-15
1.71899e-11
-8.08335e-15
6.12411e-15
1.65815e-11
-7.8468e-15
5.09263e-15
1.59992e-11
-7.6371e-15
3.88939e-15
1.54415e-11
-7.43626e-15
2.77235e-15
1.49076e-11
-7.12644e-15
1.71996e-15
1.43956e-11
7.42115e-16
1.39109e-11
-7.55472e-16
3.76079e-13
9.75418e-15
2.44414e-11
-2.04319e-14
1.02317e-14
2.29141e-11
-1.66506e-14
8.4876e-15
2.14964e-11
-1.58924e-14
6.92249e-15
2.01828e-11
-1.51248e-14
5.51969e-15
1.89659e-11
-1.44782e-14
4.25944e-15
1.78376e-11
-1.38051e-14
3.13464e-15
1.67911e-11
-1.32364e-14
2.12211e-15
1.58187e-11
-1.24303e-14
1.22297e-15
1.49147e-11
4.49273e-16
1.40803e-11
-1.43874e-15
3.74371e-13
1.23387e-14
3.15797e-11
-3.49491e-14
1.23873e-14
2.87055e-11
-2.72018e-14
1.00158e-14
2.61384e-11
-2.53843e-14
7.95791e-15
2.38398e-11
-2.3678e-14
6.19522e-15
2.1785e-11
-2.21379e-14
4.68026e-15
1.99434e-11
-2.07245e-14
3.37556e-15
1.82887e-11
-1.94464e-14
2.24106e-15
1.67994e-11
-1.79306e-14
1.26419e-15
1.54563e-11
4.44107e-16
1.42528e-11
-2.19204e-15
3.64976e-13
1.58283e-14
4.14357e-11
-5.46473e-14
1.52302e-14
3.63897e-11
-4.10898e-14
1.19313e-14
3.20654e-11
-3.73287e-14
9.21712e-15
2.83424e-11
-3.39744e-14
6.99497e-15
2.51358e-11
-3.10377e-14
5.16173e-15
2.23621e-11
-2.84929e-14
3.63536e-15
1.9954e-11
-2.61992e-14
2.36801e-15
1.78568e-11
-2.3725e-14
1.31435e-15
1.6023e-11
4.64505e-16
1.44289e-11
-2.95337e-15
3.42133e-13
2.05876e-14
5.5301e-11
-9.50356e-14
1.90537e-14
4.67354e-11
-5.94263e-14
1.44053e-14
3.97184e-11
-5.24103e-14
1.07661e-14
3.39289e-11
-4.64584e-14
7.93756e-15
2.91392e-11
-4.14658e-14
5.69944e-15
2.51503e-11
-3.71922e-14
3.92527e-15
2.18098e-11
-3.34969e-14
2.50335e-15
1.89973e-11
-2.97705e-14
1.36241e-15
1.66158e-11
4.63494e-16
1.46074e-11
-3.7869e-15
2.94235e-13
4.31219e-14
7.52091e-11
-1.57795e-13
3.83272e-14
6.08919e-11
-8.40644e-14
2.28873e-14
4.9714e-11
-7.16586e-14
1.58986e-14
4.09199e-11
-6.17312e-14
1.14303e-14
3.39506e-11
-5.36169e-14
8.07353e-15
2.83764e-11
-4.69735e-14
5.50578e-15
2.38816e-11
-4.14207e-14
3.53325e-15
2.02285e-11
-3.61478e-14
1.99807e-15
1.72368e-11
7.92395e-16
1.47892e-11
-4.62369e-15
2.17979e-13
-6.35275e-14
1.04477e-10
-2.35139e-13
-7.3995e-14
8.0591e-11
-1.17277e-13
-8.55073e-14
6.29359e-11
-9.63105e-14
-9.31758e-14
4.97432e-11
-8.02825e-14
-9.84181e-14
3.97659e-11
-6.78021e-14
-1.02031e-13
3.21235e-11
-5.7876e-14
-1.04538e-13
2.62006e-11
-4.98935e-14
-1.06296e-13
2.15605e-11
-4.26578e-14
-1.07538e-13
1.78872e-11
-1.09342e-13
1.49757e-11
-5.53572e-15
1.8178e-12
-4.31348e-10
1.52954e-10
1.26263e-12
-4.49211e-10
1.12092e-10
1.14242e-12
-4.50147e-10
8.43794e-11
1.0358e-12
-4.5074e-10
6.49162e-11
9.41035e-13
-4.51141e-10
5.10399e-11
8.57203e-13
-4.51405e-10
4.099e-11
7.83095e-13
-4.51568e-10
3.36128e-11
7.17533e-13
-4.51657e-10
2.81336e-11
6.5659e-13
-4.517e-10
2.40197e-11
-4.5604e-10
2.09779e-11
-6.47529e-15
-7.07339e-11
7.83789e-08
-8.85051e-07
1.78492e-10
6.57643e-08
-9.38115e-07
1.7629e-10
5.70506e-08
-9.3983e-07
1.6994e-10
4.99325e-08
-9.4122e-07
1.63551e-10
4.40459e-08
-9.42414e-07
1.57287e-10
3.91269e-08
-9.43454e-07
1.51247e-10
3.49777e-08
-9.44368e-07
1.45206e-10
3.14478e-08
-9.45181e-07
1.04422e-10
2.84222e-08
-9.45931e-07
2.60505e-08
-7.4656e-15
-9.65352e-07
3.43713e-13
9.26015e-14
3.3234e-13
-2.02081e-14
8.71193e-14
3.26389e-13
-2.59513e-14
7.67134e-14
3.20922e-13
-2.5352e-14
6.66446e-14
3.14246e-13
-2.50712e-14
5.69174e-14
3.08227e-13
-2.48327e-14
4.7518e-14
3.03018e-13
-2.4675e-14
3.84364e-14
2.96976e-13
-2.44559e-14
2.96705e-14
2.91893e-13
-2.6587e-14
2.11717e-14
2.86704e-13
1.30495e-14
2.81314e-13
-1.59031e-15
2.83706e-13
8.7957e-14
4.64415e-13
-7.42125e-14
7.97605e-14
4.40227e-13
-8.81764e-14
6.75299e-14
4.17992e-13
-8.53018e-14
5.58772e-14
3.95138e-13
-8.28771e-14
4.47423e-14
3.7431e-13
-8.0577e-14
3.35682e-14
3.54294e-13
-7.82837e-14
2.1847e-14
3.36073e-13
-7.66009e-14
1.42348e-14
3.18797e-13
-8.12444e-14
7.87021e-15
3.0312e-13
2.60671e-15
2.87179e-13
-4.34483e-15
1.93644e-13
1.11231e-13
6.58836e-13
-1.87793e-13
9.87179e-14
5.99987e-13
-1.68362e-13
8.23748e-14
5.50074e-13
-1.59785e-13
6.74614e-14
5.00282e-13
-1.52093e-13
5.40132e-14
4.56483e-13
-1.44954e-13
4.18763e-14
4.17192e-13
-1.38223e-13
3.09176e-14
3.81741e-13
-1.32346e-13
2.10496e-14
3.49717e-13
-1.38448e-13
1.2184e-14
3.20756e-13
4.27529e-15
2.94315e-13
-7.07138e-15
6.86785e-14
1.37194e-13
9.54215e-13
-3.2387e-13
1.18294e-13
8.33939e-13
-2.71885e-13
9.63658e-14
7.33635e-13
-2.52181e-13
7.71216e-14
6.40869e-13
-2.34962e-13
6.0364e-14
5.61941e-13
-2.1938e-13
4.57791e-14
4.94085e-13
-2.05009e-13
3.31205e-14
4.35862e-13
-1.92371e-13
2.21203e-14
3.85957e-13
-1.97502e-13
1.25474e-14
3.41312e-13
4.32164e-15
3.01619e-13
-1.00096e-14
-6.2038e-14
1.71232e-13
1.41451e-12
-4.97654e-13
1.43161e-13
1.1815e-12
-4.05219e-13
1.13593e-13
9.93545e-13
-3.66959e-13
8.86144e-14
8.29937e-13
-3.34221e-13
6.77055e-14
6.97984e-13
-3.0511e-13
5.01955e-14
5.89816e-13
-2.79222e-13
3.55151e-14
5.0037e-13
-2.56993e-13
2.32269e-14
4.26515e-13
-2.58748e-13
1.29258e-14
3.64516e-13
4.36475e-15
3.10263e-13
-1.31663e-14
-2.21576e-13
2.16394e-13
2.15265e-12
-7.2604e-13
1.7526e-13
1.70453e-12
-5.77498e-13
1.34988e-13
1.36418e-12
-5.09539e-13
1.02463e-13
1.08624e-12
-4.52867e-13
7.62721e-14
8.73444e-13
-4.04033e-13
5.51415e-14
7.07666e-13
-3.61723e-13
3.81348e-14
5.77443e-13
-3.26197e-13
2.44011e-14
4.74214e-13
-3.22384e-13
1.33351e-14
3.91397e-13
4.39486e-15
3.20435e-13
-1.6211e-14
-6.77478e-13
2.74614e-13
3.36384e-12
-1.03165e-12
2.16473e-13
2.51442e-12
-8.00221e-13
1.61668e-13
1.90123e-12
-6.86882e-13
1.19214e-13
1.43662e-12
-5.94958e-13
8.64333e-14
1.10139e-12
-5.17864e-13
6.11109e-14
8.5394e-13
-4.53386e-13
4.14441e-14
6.68646e-13
-4.00085e-13
2.61814e-14
5.29067e-13
-3.88555e-13
1.42685e-14
4.20281e-13
5.00447e-15
3.32027e-13
-1.92981e-14
-1.22986e-12
3.29499e-13
5.42206e-12
-1.44458e-12
2.40141e-13
3.79459e-12
-1.08914e-12
1.70527e-13
2.69391e-12
-9.07532e-13
1.20324e-13
1.92481e-12
-7.64382e-13
8.37539e-14
1.40242e-12
-6.49007e-13
5.68077e-14
1.03687e-12
-5.54857e-13
3.67826e-14
7.78576e-13
-4.79377e-13
2.17823e-14
5.91488e-13
-4.56921e-13
1.04776e-14
4.53541e-13
1.97819e-15
3.44497e-13
-2.25256e-14
-2.07363e-12
1.09813e-11
9.37441e-12
-1.9517e-12
-4.26114e-12
5.27362e-12
-1.37798e-12
-4.36895e-12
3.47618e-12
-1.13134e-12
-4.50687e-12
2.34231e-12
-9.40481e-13
-4.70721e-12
1.63623e-12
-7.88475e-13
-4.94675e-12
1.18167e-12
-6.66736e-13
-5.21006e-12
8.81932e-13
-5.70882e-13
-5.48649e-12
6.8017e-13
-5.45947e-13
-5.76894e-12
5.39281e-13
-6.04105e-12
4.31005e-13
-2.57708e-14
-4.21066e-10
4.66931e-09
4.81193e-08
-1.91841e-10
1.87684e-09
-1.03839e-09
-1.875e-10
1.39156e-09
-1.07453e-09
-1.78533e-10
1.05834e-09
-1.04653e-09
-1.70181e-10
8.19261e-10
-1.01746e-09
-1.62426e-10
6.44302e-10
-9.89175e-10
-1.55234e-10
5.14024e-10
-9.62495e-10
-1.4857e-10
4.15496e-10
-9.37839e-10
-1.42843e-10
3.39935e-10
-9.16604e-10
2.80892e-10
-2.92175e-14
-9.16651e-10
3.47189e-13
8.1746e-14
1.32933e-14
-1.76948e-14
7.76183e-14
1.1707e-14
-2.14666e-14
6.8482e-14
1.02932e-14
-1.99633e-14
5.96584e-14
8.86516e-15
-1.88138e-14
5.11304e-14
7.39255e-15
-1.97745e-14
4.2849e-14
5.53744e-15
-1.8792e-14
3.4892e-14
4.70945e-15
-1.91231e-14
2.71803e-14
4.02675e-15
-2.33946e-14
1.97234e-14
3.25984e-15
1.259e-14
3.1978e-15
-1.38995e-15
2.95998e-13
5.87783e-14
2.14566e-14
-6.56202e-14
5.39967e-14
1.89201e-14
-7.03251e-14
4.5756e-14
1.87834e-14
-6.60499e-14
3.79342e-14
1.51292e-14
-6.46141e-14
3.06386e-14
1.25189e-14
-6.19683e-14
2.3895e-14
1.05279e-14
-6.03175e-14
1.76523e-14
8.21234e-15
-5.97375e-14
1.19534e-14
6.65227e-15
-7.12727e-14
6.81853e-15
6.00857e-15
2.38306e-15
4.69459e-15
-4.4153e-15
2.17919e-13
7.50572e-14
3.17805e-14
-1.65662e-13
6.77706e-14
2.91589e-14
-1.33213e-13
5.69497e-14
2.93691e-14
-1.22958e-13
4.70537e-14
2.46198e-14
-1.16553e-13
3.80622e-14
2.03381e-14
-1.10775e-13
2.98448e-14
1.6344e-14
-1.04949e-13
2.24128e-14
1.39862e-14
-1.03008e-13
1.60895e-14
1.19496e-14
-1.21197e-13
9.40278e-15
9.96409e-15
3.32435e-15
7.91008e-15
-7.25396e-15
9.62919e-14
9.32464e-14
5.14617e-14
-2.89132e-13
8.16076e-14
4.94423e-14
-2.13031e-13
6.69361e-14
4.90409e-14
-1.85737e-13
5.39973e-14
4.0084e-14
-1.72811e-13
4.27314e-14
3.33156e-14
-1.6102e-13
3.28707e-14
2.7718e-14
-1.48171e-13
2.4255e-14
2.34007e-14
-1.49095e-13
1.66912e-14
1.97686e-14
-1.73013e-13
9.68483e-15
1.76138e-14
3.43082e-15
1.25271e-14
-1.03476e-14
-2.09438e-14
1.17497e-13
8.88323e-14
-4.45658e-13
9.92176e-14
8.54459e-14
-3.03479e-13
7.92181e-14
8.08041e-14
-2.6383e-13
6.22672e-14
6.62872e-14
-2.40183e-13
4.8055e-14
5.38938e-14
-2.1883e-13
3.61355e-14
4.42465e-14
-1.99197e-13
2.6257e-14
3.74693e-14
-1.93265e-13
1.79871e-14
3.22305e-14
-2.26738e-13
1.01911e-14
2.77524e-14
3.51123e-15
1.91034e-14
-1.33012e-14
-1.56598e-13
1.50095e-13
1.56199e-13
-6.50597e-13
1.22444e-13
1.50395e-13
-4.18352e-13
9.46314e-14
1.33784e-13
-3.61875e-13
7.22719e-14
1.06787e-13
-3.21195e-13
5.43287e-14
8.58851e-14
-2.85773e-13
3.97973e-14
6.95532e-14
-2.54993e-13
2.80793e-14
5.75256e-14
-2.34434e-13
1.89445e-14
4.85217e-14
-2.82647e-13
1.03924e-14
4.01269e-14
3.53575e-15
2.75116e-14
-1.65091e-14
-5.68542e-13
1.94272e-13
2.76725e-13
-9.24963e-13
1.52681e-13
2.61173e-13
-5.70805e-13
1.14043e-13
2.18862e-13
-4.83467e-13
8.4474e-14
1.69619e-13
-4.17963e-13
6.17358e-14
1.32622e-13
-3.62706e-13
4.41203e-14
1.05137e-13
-3.16152e-13
3.08089e-14
8.52183e-14
-2.83054e-13
1.99332e-14
6.96029e-14
-3.40511e-13
1.08526e-14
5.7506e-14
3.6968e-15
3.77864e-14
-1.97125e-14
-1.09514e-12
3.05432e-13
4.99048e-13
-1.29479e-12
2.93462e-13
4.50914e-13
-7.70561e-13
2.06877e-13
3.56153e-13
-6.35172e-13
1.44714e-13
2.63698e-13
-5.33426e-13
9.99457e-14
1.99574e-13
-4.50788e-13
6.71914e-14
1.54419e-13
-3.844e-13
4.27867e-14
1.20916e-13
-3.3446e-13
2.41379e-14
9.66733e-14
-4.00553e-13
1.06223e-14
7.85801e-14
3.45639e-15
4.94657e-14
-2.3038e-14
-1.95113e-12
1.56312e-11
2.19663e-12
-1.78721e-12
7.89186e-13
7.60371e-13
-1.03259e-12
4.9516e-13
5.58495e-13
-8.24369e-13
3.30806e-13
3.98627e-13
-6.71114e-13
2.13763e-13
2.91774e-13
-5.52536e-13
1.29741e-13
2.18303e-13
-4.5944e-13
6.89566e-14
1.66901e-13
-3.90308e-13
2.47695e-14
1.29873e-13
-4.63725e-13
-7.48545e-15
1.03092e-13
-3.02594e-14
6.5336e-14
-2.63845e-14
-2.08685e-10
2.59881e-09
4.44395e-08
-1.17595e-11
5.12742e-11
4.74303e-11
-1.17111e-11
2.20788e-11
-2.43929e-12
-9.62603e-12
1.44138e-11
-1.35238e-12
-7.97164e-12
9.74779e-12
-2.34458e-13
-6.6742e-12
6.77211e-12
5.80803e-13
-5.64277e-12
4.81872e-12
1.17985e-12
-4.81559e-12
3.50076e-12
1.62009e-12
-4.15102e-12
2.5919e-12
1.94049e-12
1.89903e-12
-2.99457e-14
3.29192e-12
3.47195e-13
8.11919e-14
1.06511e-14
-1.77939e-14
7.71378e-14
9.64197e-15
-2.1206e-14
6.80881e-14
8.17249e-15
-1.96547e-14
5.93077e-14
6.23324e-15
-1.92053e-14
5.08455e-14
4.17439e-15
-1.93048e-14
4.26527e-14
3.36466e-15
-1.7733e-14
3.47326e-14
1.99013e-15
-1.9115e-14
2.70692e-14
8.33573e-16
-2.31692e-14
1.96851e-14
4.5225e-16
1.25913e-14
1.79885e-16
-1.51637e-15
2.96547e-13
5.81338e-14
1.85194e-14
-6.52725e-14
5.34522e-14
1.63829e-14
-6.96573e-14
4.52917e-14
1.64847e-14
-6.44388e-14
3.75966e-14
1.29667e-14
-6.29445e-14
3.03784e-14
9.19259e-15
-6.10397e-14
2.36805e-14
6.83458e-15
-5.9002e-14
1.75347e-14
5.40367e-15
-5.83169e-14
1.18992e-14
4.15726e-15
-7.08101e-14
6.79198e-15
2.77861e-15
2.40351e-15
1.62508e-15
-4.34852e-15
2.19369e-13
7.39883e-14
2.65376e-14
-1.64525e-13
6.68527e-14
2.51167e-14
-1.30447e-13
5.61543e-14
2.68631e-14
-1.16113e-13
4.62815e-14
2.05556e-14
-1.12438e-13
3.73929e-14
1.69398e-14
-1.0365e-13
2.93242e-14
1.42485e-14
-9.89089e-14
2.18396e-14
1.09065e-14
-1.01574e-13
1.50701e-14
9.14931e-15
-1.20231e-13
9.33466e-15
7.83681e-15
3.19103e-15
5.51295e-15
-7.22556e-15
9.82467e-14
9.19164e-14
4.38311e-14
-2.87054e-13
8.04428e-14
4.40837e-14
-2.06223e-13
6.59272e-14
4.66547e-14
-1.79075e-13
5.31902e-14
3.79729e-14
-1.67047e-13
4.19808e-14
3.09616e-14
-1.5545e-13
3.21449e-14
2.64808e-14
-1.44554e-13
2.35727e-14
2.15101e-14
-1.44167e-13
1.60395e-14
1.86131e-14
-1.71875e-13
9.5351e-15
1.56982e-14
3.46811e-15
1.05159e-14
-1.03938e-14
-1.77201e-14
1.15756e-13
7.75452e-14
-4.42241e-13
9.78456e-14
8.12958e-14
-2.90678e-13
7.80715e-14
8.01238e-14
-2.58061e-13
6.12982e-14
6.46591e-14
-2.34839e-13
4.72838e-14
5.39622e-14
-2.13661e-13
3.54663e-14
4.45502e-14
-1.94854e-13
2.54602e-14
3.74431e-14
-1.84182e-13
1.71179e-14
3.22335e-14
-2.2533e-13
9.90655e-15
2.86893e-14
3.57407e-15
1.9383e-14
-1.33491e-14
-1.51915e-13
1.47769e-13
1.36447e-13
-6.45254e-13
1.20667e-13
1.43356e-13
-4.0807e-13
9.32267e-14
1.35785e-13
-3.54907e-13
7.12046e-14
1.09117e-13
-3.1531e-13
5.34544e-14
8.88564e-14
-2.80458e-13
3.90569e-14
7.3766e-14
-2.50211e-13
2.74216e-14
6.16955e-14
-2.30092e-13
1.79841e-14
5.13092e-14
-2.80813e-13
1.04137e-14
4.50058e-14
3.64957e-15
2.91422e-14
-1.66384e-14
-5.57248e-13
1.91296e-13
2.43871e-13
-9.16533e-13
1.50456e-13
2.55859e-13
-5.59443e-13
1.1243e-13
2.25289e-13
-4.75348e-13
8.31973e-14
1.77247e-13
-4.11179e-13
6.0731e-14
1.41164e-13
-3.56783e-13
4.33219e-14
1.14957e-13
-3.11568e-13
2.96711e-14
9.29324e-14
-2.78247e-13
1.90409e-14
7.78819e-14
-3.38691e-13
1.08524e-14
6.60359e-14
3.6111e-15
4.22476e-14
-1.98496e-14
-1.07777e-12
3.02394e-13
4.36365e-13
-1.28101e-12
1.79399e-13
4.45838e-13
-7.57563e-13
1.39599e-13
3.68347e-13
-6.25297e-13
1.0069e-13
2.82114e-13
-5.25413e-13
7.28089e-14
2.18611e-13
-4.44715e-13
5.41782e-14
1.71759e-13
-3.79338e-13
3.64883e-14
1.36706e-13
-3.296e-13
2.28544e-14
1.11075e-13
-3.98946e-13
1.2445e-14
9.09183e-14
4.61813e-15
5.95859e-14
-2.30332e-14
-1.92747e-12
1.56496e-11
3.02783e-12
-1.76579e-12
3.55547e-13
7.87111e-13
-1.01768e-12
2.58117e-13
6.00535e-13
-8.13366e-13
1.69042e-13
4.40489e-13
-6.62646e-13
1.12018e-13
3.27693e-13
-5.45756e-13
7.24299e-14
2.50527e-13
-4.54074e-13
4.45732e-14
1.94122e-13
-3.85275e-13
2.45911e-14
1.53951e-13
-4.61127e-13
1.0465e-14
1.219e-13
2.84168e-15
7.4603e-14
-2.65332e-14
-1.98596e-10
3.88772e-09
4.48668e-08
-2.76712e-12
2.04737e-11
5.82071e-11
-1.43714e-12
1.36507e-12
6.23647e-13
-1.18663e-12
8.7654e-13
4.58583e-13
-9.31223e-13
6.10675e-13
3.54097e-13
-7.41485e-13
4.38904e-13
1.93295e-13
-5.98575e-13
3.23505e-13
1.58921e-13
-4.95632e-13
2.43438e-13
1.38863e-13
-5.61196e-13
1.86498e-13
1.24138e-13
1.14578e-13
-3.00758e-14
1.11385e-13
3.47064e-13
8.13153e-14
1.85361e-14
-1.80979e-14
7.72372e-14
1.63322e-14
-2.13082e-14
6.81806e-14
1.25359e-14
-2.0226e-14
5.93873e-14
8.21061e-15
-1.81741e-14
5.09025e-14
8.33194e-15
-1.95494e-14
4.26877e-14
3.93493e-15
-1.89924e-14
3.47798e-14
4.37548e-15
-1.8843e-14
2.71348e-14
3.33753e-15
-2.318e-14
1.97258e-14
8.90713e-16
1.26262e-14
2.54737e-16
-1.69634e-15
2.96257e-13
5.82646e-14
2.90944e-14
-6.55844e-14
5.35734e-14
2.42904e-14
-6.97502e-14
4.53916e-14
2.14382e-14
-6.5382e-14
3.76529e-14
1.75133e-14
-6.28639e-14
3.04623e-14
1.22377e-14
-6.09562e-14
2.37648e-14
9.76235e-15
-5.87974e-14
1.75873e-14
6.69922e-15
-5.8776e-14
1.19454e-14
6.72434e-15
-7.08699e-14
6.84619e-15
5.56231e-15
2.45487e-15
1.99713e-15
-4.36391e-15
2.18905e-13
7.41946e-14
4.09348e-14
-1.65181e-13
6.70321e-14
3.61907e-14
-1.31462e-13
5.6326e-14
3.72198e-14
-1.15443e-13
4.64769e-14
3.06026e-14
-1.1105e-13
3.75007e-14
2.3835e-14
-1.04757e-13
2.94299e-14
1.8091e-14
-9.86572e-14
2.19634e-14
1.60571e-14
-1.01777e-13
1.51884e-14
1.23806e-14
-1.2026e-13
9.25733e-15
1.35836e-14
3.09414e-15
6.64324e-15
-7.43329e-15
9.77318e-14
9.22921e-14
6.94692e-14
-2.87936e-13
8.07931e-14
6.43169e-14
-2.07307e-13
6.61791e-14
6.44307e-14
-1.7967e-13
5.3376e-14
5.25521e-14
-1.66897e-13
4.21849e-14
4.37973e-14
-1.5622e-13
3.2254e-14
3.3802e-14
-1.44495e-13
2.36759e-14
3.42256e-14
-1.45008e-13
1.61598e-14
2.62321e-14
-1.72059e-13
9.82351e-15
2.54203e-14
3.70069e-15
1.91787e-14
-1.02294e-14
-1.86505e-14
1.16305e-13
1.08243e-13
-4.4382e-13
9.82932e-14
1.12212e-13
-2.91808e-13
7.84843e-14
1.11746e-13
-2.58435e-13
6.16543e-14
9.23745e-14
-2.3567e-13
4.75523e-14
7.73352e-14
-2.14142e-13
3.57575e-14
6.82236e-14
-1.95203e-13
2.57312e-14
5.71303e-14
-1.84196e-13
1.72009e-14
4.55331e-14
-2.2573e-13
9.92027e-15
3.98902e-14
3.62518e-15
2.49721e-14
-1.33977e-14
-1.53495e-13
1.48668e-13
1.98219e-13
-6.47653e-13
1.21449e-13
2.05518e-13
-4.09735e-13
9.38336e-14
1.8734e-13
-3.5613e-13
7.16906e-14
1.51334e-13
-3.16178e-13
5.38651e-14
1.22221e-13
-2.8133e-13
3.9388e-14
1.03358e-13
-2.51075e-13
2.76439e-14
8.26329e-14
-2.30319e-13
1.82973e-14
7.64909e-14
-2.81563e-13
1.06979e-14
6.14926e-14
3.84263e-15
3.99198e-14
-1.65623e-14
-5.61638e-13
1.9271e-13
3.46418e-13
-9.20761e-13
1.51576e-13
3.54889e-13
-5.61976e-13
1.13308e-13
3.15303e-13
-4.77362e-13
8.39086e-14
2.4275e-13
-4.12729e-13
6.13101e-14
1.9794e-13
-3.584e-13
4.37695e-14
1.55577e-13
-3.12596e-13
3.00652e-14
1.28826e-13
-2.79061e-13
1.92536e-14
1.0575e-13
-3.39932e-13
1.10853e-14
8.80541e-14
3.99693e-15
5.76072e-14
-1.98288e-14
-1.08615e-12
3.0507e-13
6.15376e-13
-1.28805e-12
1.80395e-13
6.24941e-13
-7.61641e-13
1.39235e-13
5.07974e-13
-6.28651e-13
1.00086e-13
3.85905e-13
-5.28127e-13
7.1567e-14
2.99656e-13
-4.47018e-13
5.30848e-14
2.34314e-13
-3.81128e-13
3.63465e-14
1.89952e-13
-3.31182e-13
2.29552e-14
1.5289e-13
-4.0067e-13
1.26033e-14
1.25373e-13
4.79529e-15
8.05943e-14
-2.31518e-14
-1.94358e-12
1.57667e-11
4.12213e-12
-1.77752e-12
3.45633e-13
1.08989e-12
-1.02453e-12
2.3513e-13
8.23632e-13
-8.18864e-13
1.63332e-13
5.99723e-13
-6.66809e-13
1.06423e-13
4.53159e-13
-5.49282e-13
6.55837e-14
3.44011e-13
-4.56754e-13
3.0715e-14
2.65441e-13
-3.87689e-13
1.691e-14
2.07988e-13
-4.6385e-13
8.66732e-15
1.69207e-13
3.26234e-15
1.11217e-13
-2.65575e-14
-2.01366e-10
5.2656e-09
4.60324e-08
-2.57955e-12
2.94595e-11
6.0609e-11
-1.29845e-12
1.25839e-12
2.47674e-13
-1.05927e-12
8.34091e-13
1.0127e-13
-8.34656e-13
6.00265e-13
6.94871e-14
-6.67372e-13
4.43179e-13
5.22641e-14
-5.41021e-13
3.34131e-13
4.04634e-14
-4.4767e-13
2.56685e-13
3.19384e-14
-5.29501e-13
1.99288e-13
2.55693e-14
1.22127e-13
-3.01566e-14
2.08064e-14
3.46782e-13
8.14781e-14
1.96886e-14
-1.84577e-14
7.73762e-14
1.51973e-14
-2.18158e-14
6.82782e-14
1.73143e-14
-1.98893e-14
5.94895e-14
1.31628e-14
-1.96815e-14
5.09613e-14
7.44622e-15
-1.9216e-14
4.27552e-14
4.94797e-15
-1.88952e-14
3.48188e-14
2.46075e-15
-1.93579e-14
2.71751e-14
1.42042e-15
-2.32256e-14
1.97834e-14
8.47762e-16
1.26653e-14
5.06557e-16
-1.53306e-15
2.9582e-13
5.84478e-14
3.51717e-14
-6.61196e-14
5.37337e-14
3.23954e-14
-6.96419e-14
4.55454e-14
3.149e-14
-6.6334e-14
3.7769e-14
2.29183e-14
-6.24598e-14
3.05781e-14
2.04512e-14
-6.15782e-14
2.38518e-14
1.27939e-14
-5.81561e-14
1.76748e-14
9.01338e-15
-5.87637e-14
1.20144e-14
5.6028e-15
-7.10596e-14
6.9158e-15
5.00923e-15
2.51432e-15
3.25621e-15
-4.37823e-15
2.18189e-13
7.45146e-14
4.72263e-14
-1.66124e-13
6.73017e-14
4.91605e-14
-1.31895e-13
5.6542e-14
4.93202e-14
-1.15915e-13
4.66633e-14
4.17656e-14
-1.11883e-13
3.76511e-14
3.2016e-14
-1.04501e-13
2.95173e-14
2.57341e-14
-9.92589e-14
2.21387e-14
1.83981e-14
-1.01287e-13
1.53818e-14
1.93445e-14
-1.20533e-13
9.23894e-15
1.2647e-14
3.49218e-15
9.17326e-15
-7.39773e-15
9.69192e-14
9.27552e-14
8.55377e-14
-2.89251e-13
8.12154e-14
8.54119e-14
-2.07765e-13
6.65461e-14
8.61581e-14
-1.80131e-13
5.36917e-14
7.18812e-14
-1.68165e-13
4.24801e-14
5.59555e-14
-1.55597e-13
3.25877e-14
4.67168e-14
-1.45265e-13
2.38553e-14
3.57151e-14
-1.45225e-13
1.62801e-14
3.51506e-14
-1.7226e-13
9.94839e-15
2.78352e-14
3.67674e-15
1.671e-14
-1.03314e-14
-2.00007e-14
1.17116e-13
1.51043e-13
-4.45843e-13
9.89795e-14
1.53541e-13
-2.93155e-13
7.90222e-14
1.50145e-13
-2.59372e-13
6.21014e-14
1.22657e-13
-2.36369e-13
4.78844e-14
1.00051e-13
-2.15065e-13
3.6035e-14
8.04318e-14
-1.95723e-13
2.59472e-14
6.31367e-14
-1.8452e-13
1.74793e-14
5.54185e-14
-2.26306e-13
1.01526e-14
4.59875e-14
3.92422e-15
3.10493e-14
-1.33474e-14
-1.55724e-13
1.49899e-13
2.4581e-13
-6.51093e-13
1.2245e-13
2.73445e-13
-4.11787e-13
9.46781e-14
2.52736e-13
-3.57892e-13
7.23446e-14
2.00841e-13
-3.17288e-13
5.44539e-14
1.63422e-13
-2.82869e-13
3.98118e-14
1.23994e-13
-2.51779e-13
2.80475e-14
1.10962e-13
-2.31185e-13
1.84711e-14
8.56285e-14
-2.82551e-13
1.0963e-14
7.34272e-14
4.05193e-15
4.79144e-14
-1.65267e-14
-5.67959e-13
1.94638e-13
4.49614e-13
-9.26352e-13
1.53152e-13
4.85615e-13
-5.65808e-13
1.14482e-13
4.14193e-13
-4.79839e-13
8.48621e-14
3.27027e-13
-4.15262e-13
6.2029e-14
2.48729e-13
-3.60198e-13
4.43864e-14
2.00406e-13
-3.14298e-13
3.05907e-14
1.58505e-13
-2.80235e-13
1.97178e-14
1.34114e-13
-3.41506e-13
1.14488e-14
1.08684e-13
4.35111e-15
6.79885e-14
-1.98038e-14
-1.09774e-12
3.08834e-13
8.12581e-13
-1.29781e-12
1.82573e-13
8.43784e-13
-7.67346e-13
1.40946e-13
6.82676e-13
-6.33158e-13
1.01356e-13
5.13492e-13
-5.31864e-13
7.25784e-14
3.86049e-13
-4.49932e-13
5.37638e-14
3.00733e-13
-3.83742e-13
3.69674e-14
2.30175e-13
-3.33256e-13
2.35026e-14
1.86943e-13
-4.03004e-13
1.30655e-14
1.50782e-13
5.17761e-15
9.38639e-14
-2.31551e-14
-1.96724e-12
1.62256e-11
5.60613e-12
-1.79341e-12
3.50831e-13
1.47985e-12
-1.03404e-12
2.35679e-13
1.1063e-12
-8.26031e-13
1.65514e-13
8.01083e-13
-6.72662e-13
1.0794e-13
5.7321e-13
-5.53979e-13
6.65885e-14
4.26216e-13
-4.60463e-13
3.14286e-14
3.21927e-13
-3.90795e-13
1.74489e-14
2.59398e-13
-4.6732e-13
9.05384e-15
2.02908e-13
3.65272e-15
1.23495e-13
-2.66937e-14
-2.08889e-10
7.96623e-09
4.79745e-08
-2.61188e-12
4.30688e-11
6.34923e-11
-1.31074e-12
1.84197e-12
2.42805e-13
-1.06951e-12
1.18278e-12
8.34572e-14
-8.42512e-13
8.39937e-13
6.3402e-14
-6.73605e-13
6.06523e-13
4.94039e-14
-5.46067e-13
4.45297e-13
3.9171e-14
-4.51879e-13
3.34954e-13
3.15786e-14
-5.34213e-13
2.62474e-13
2.5841e-14
1.56897e-13
-3.02831e-14
2.15532e-14
3.46317e-13
8.16823e-14
2.76028e-14
-1.87682e-14
7.75673e-14
2.67555e-14
-2.22595e-14
6.84146e-14
2.16023e-14
-2.03794e-14
5.95985e-14
1.67397e-14
-1.98076e-14
5.10777e-14
9.56191e-15
-1.97758e-14
4.28442e-14
5.53644e-15
-1.86638e-14
3.49088e-14
3.96908e-15
-1.93215e-14
2.72352e-14
2.93437e-15
-2.32617e-14
1.98439e-14
2.82045e-15
1.27375e-14
5.08923e-15
-1.59595e-15
2.9527e-13
5.86629e-14
4.64538e-14
-6.66741e-14
5.39283e-14
4.34976e-14
-7.02688e-14
4.57105e-14
4.22078e-14
-6.59951e-14
3.79262e-14
3.22154e-14
-6.37985e-14
3.06804e-14
2.28033e-14
-6.12893e-14
2.39611e-14
1.27952e-14
-5.94188e-14
1.77665e-14
9.43743e-15
-5.85319e-14
1.21289e-14
9.30565e-15
-7.10362e-14
6.99788e-15
6.80462e-15
2.58335e-15
7.18974e-15
-4.42116e-15
2.17349e-13
7.48983e-14
6.83636e-14
-1.6728e-13
6.76217e-14
6.67462e-14
-1.32074e-13
5.68138e-14
6.75068e-14
-1.17495e-13
4.68771e-14
5.3419e-14
-1.11452e-13
3.78591e-14
4.17835e-14
-1.05788e-13
2.96872e-14
2.63657e-14
-9.82824e-14
2.23137e-14
1.95887e-14
-1.02284e-13
1.54455e-14
1.59969e-14
-1.20604e-13
9.5671e-15
1.6479e-14
3.37587e-15
1.3625e-14
-7.49335e-15
9.59378e-14
9.33685e-14
1.09597e-13
-2.90855e-13
8.17406e-14
1.1475e-13
-2.07865e-13
6.69942e-14
1.15113e-13
-1.8118e-13
5.40741e-14
9.25349e-14
-1.68546e-13
4.2824e-14
7.53532e-14
-1.56439e-13
3.29044e-14
6.05002e-14
-1.45155e-13
2.40839e-14
3.9684e-14
-1.4567e-13
1.6491e-14
3.17481e-14
-1.72739e-13
9.88014e-15
2.80534e-14
4.01419e-15
2.49387e-14
-1.02743e-14
-2.17687e-14
1.18068e-13
1.92567e-13
-4.48315e-13
9.98005e-14
2.03873e-13
-2.94663e-13
7.96979e-14
1.94957e-13
-2.60619e-13
6.26416e-14
1.57422e-13
-2.37215e-13
4.83413e-14
1.27776e-13
-2.16282e-13
3.63871e-14
1.05189e-13
-1.96093e-13
2.63223e-14
7.29083e-14
-1.85791e-13
1.76837e-14
5.72271e-14
-2.26895e-13
1.05574e-14
4.70283e-14
4.13972e-15
4.08969e-14
-1.34526e-14
-1.58492e-13
1.51445e-13
3.45497e-13
-6.55197e-13
1.23701e-13
3.60387e-13
-4.14474e-13
9.56652e-14
3.27435e-13
-3.59839e-13
7.3177e-14
2.6171e-13
-3.19088e-13
5.51154e-14
2.10385e-13
-2.84125e-13
4.03896e-14
1.72393e-13
-2.53289e-13
2.84813e-14
1.29176e-13
-2.31855e-13
1.88685e-14
9.25488e-14
-2.83718e-13
1.13055e-14
7.5126e-14
4.31845e-15
4.98872e-14
-1.65332e-14
-5.75802e-13
1.97041e-13
6.14776e-13
-9.33325e-13
1.55052e-13
6.28694e-13
-5.69894e-13
1.15968e-13
5.4167e-13
-4.83395e-13
8.60082e-14
4.22331e-13
-4.17968e-13
6.29461e-14
3.33459e-13
-3.62549e-13
4.51221e-14
2.65444e-13
-3.16487e-13
3.1211e-14
2.10178e-13
-2.81635e-13
2.01653e-14
1.41346e-13
-3.43446e-13
1.18169e-14
1.12745e-13
4.73837e-15
6.95839e-14
-1.97745e-14
-1.1123e-12
3.13349e-13
1.10429e-12
-1.30949e-12
1.8523e-13
1.09712e-12
-7.74435e-13
1.43124e-13
8.89371e-13
-6.38811e-13
1.03011e-13
6.69818e-13
-5.36339e-13
7.38296e-14
5.12368e-13
-4.53621e-13
5.41662e-14
3.97281e-13
-3.86972e-13
3.77655e-14
3.10253e-13
-3.35819e-13
2.42162e-14
2.07852e-13
-4.05877e-13
1.36553e-14
1.59714e-13
5.64428e-15
9.53723e-14
-2.3254e-14
-1.99633e-12
1.67386e-11
6.69702e-12
-1.81276e-12
3.56216e-13
1.93627e-12
-1.04572e-12
2.41679e-13
1.45441e-12
-8.35082e-13
1.68984e-13
1.04956e-12
-6.79821e-13
1.10535e-13
7.7451e-13
-5.59732e-13
6.87215e-14
5.79846e-13
-4.65039e-13
3.26126e-14
4.41886e-13
-3.94649e-13
1.81286e-14
3.16823e-13
-4.71647e-13
9.50304e-15
2.18952e-13
4.12962e-15
1.28708e-13
-2.67202e-14
-2.19799e-10
9.74625e-09
5.15942e-08
-2.64734e-12
4.72392e-11
6.72385e-11
-1.32756e-12
2.43886e-12
2.3504e-13
-1.08363e-12
1.61471e-12
8.37895e-14
-8.53426e-13
1.14448e-12
6.3906e-14
-6.82092e-13
8.27764e-13
4.99629e-14
-5.52904e-13
6.1073e-13
3.97572e-14
-4.57382e-13
4.51393e-13
3.21986e-14
-5.4029e-13
2.91821e-13
2.64823e-14
1.69253e-13
-3.03301e-14
2.22746e-14
3.45915e-13
8.19e-14
2.63048e-14
-1.93594e-14
7.77015e-14
1.62529e-14
-2.24635e-14
6.85648e-14
1.56734e-14
-2.07574e-14
5.97147e-14
1.24114e-14
-2.01547e-14
5.11852e-14
1.23307e-14
-2.00085e-14
4.29505e-14
1.40342e-14
-1.93788e-14
3.50271e-14
1.86381e-14
-1.95564e-14
2.73807e-14
4.74682e-14
-2.33799e-14
2.00128e-14
1.9334e-13
1.29243e-14
6.63822e-13
-2.49085e-15
2.94588e-13
5.89262e-14
4.27049e-14
-6.71978e-14
5.4125e-14
2.75688e-14
-7.10066e-14
4.58624e-14
3.05851e-14
-6.63115e-14
3.80743e-14
2.49888e-14
-6.42962e-14
3.08127e-14
2.74661e-14
-6.11489e-14
2.40968e-14
2.23872e-14
-5.92448e-14
1.78912e-14
2.46318e-14
-6.00972e-14
1.22473e-14
4.12752e-14
-7.19594e-14
7.16722e-15
1.21105e-13
2.70788e-15
4.29481e-13
-4.12127e-15
2.16294e-13
7.52795e-14
6.14312e-14
-1.68445e-13
6.79251e-14
4.36592e-14
-1.32696e-13
5.70983e-14
5.02608e-14
-1.18626e-13
4.71139e-14
4.24789e-14
-1.11402e-13
3.81171e-14
3.68307e-14
-1.05938e-13
2.99424e-14
3.59021e-14
-9.92691e-14
2.25345e-14
3.83196e-14
-1.01928e-13
1.56477e-14
4.62405e-14
-1.22186e-13
9.3344e-15
9.12638e-14
3.5664e-15
2.84708e-13
-6.95689e-15
9.48763e-14
9.40523e-14
1.02403e-13
-2.92385e-13
8.22694e-14
8.11488e-14
-2.09651e-13
6.74285e-14
8.96523e-14
-1.8176e-13
5.44646e-14
7.63994e-14
-1.68898e-13
4.3141e-14
6.67994e-14
-1.57215e-13
3.31685e-14
4.86426e-14
-1.4598e-13
2.43938e-14
6.01324e-14
-1.45349e-13
1.67997e-14
6.26938e-14
-1.74375e-13
1.00571e-14
8.76646e-14
4.28715e-15
2.09608e-13
-9.93585e-15
-2.36657e-14
1.19166e-13
1.77703e-13
-4.50745e-13
1.00632e-13
1.5405e-13
-2.96123e-13
8.04045e-14
1.58532e-13
-2.61937e-13
6.32607e-14
1.33904e-13
-2.38029e-13
4.88795e-14
1.14705e-13
-2.17226e-13
3.6898e-14
1.32341e-13
-1.97118e-13
2.66332e-14
9.43651e-14
-1.86769e-13
1.79859e-14
9.10798e-14
-2.2876e-13
1.08648e-14
1.02189e-13
4.24943e-15
1.73489e-13
-1.31269e-14
-1.6168e-13
1.53129e-13
3.19112e-13
-6.59116e-13
1.24948e-13
2.86862e-13
-4.16841e-13
9.67042e-14
2.74416e-13
-3.62082e-13
7.40472e-14
2.26516e-13
-3.2038e-13
5.58676e-14
1.89071e-13
-2.86246e-13
4.09958e-14
2.06438e-13
-2.54633e-13
2.91003e-14
1.16331e-13
-2.33143e-13
1.92579e-14
1.34422e-13
-2.86083e-13
1.17195e-14
1.30287e-13
4.80435e-15
1.62736e-13
-1.64127e-14
-5.84752e-13
1.99952e-13
6.40491e-13
-9.39754e-13
1.56983e-13
5.21405e-13
-5.74061e-13
1.17512e-13
4.64258e-13
-4.86837e-13
8.72558e-14
3.70926e-13
-4.20783e-13
6.39462e-14
3.07331e-13
-3.65003e-13
4.59563e-14
3.13815e-13
-3.19301e-13
3.18739e-14
2.61349e-13
-2.83436e-13
2.07316e-14
1.78633e-13
-3.4648e-13
1.2218e-14
1.71928e-13
5.07338e-15
1.68882e-13
-1.96958e-14
-1.1281e-12
3.16931e-13
1.21872e-12
-1.32024e-12
1.89877e-13
9.24471e-13
-7.81427e-13
1.45439e-13
7.68613e-13
-6.44452e-13
1.04785e-13
6.09786e-13
-5.40961e-13
7.52573e-14
5.27466e-13
-4.57381e-13
5.45526e-14
4.71319e-13
-3.91077e-13
3.87746e-14
4.04159e-13
-3.38766e-13
2.49943e-14
2.18041e-13
-4.10091e-13
1.43414e-14
2.28586e-13
6.21059e-15
1.8844e-13
-2.3177e-14
-2.00795e-12
1.26851e-11
5.34518e-12
-1.83254e-12
3.3822e-13
1.72392e-12
-1.05722e-12
2.58084e-13
1.41084e-12
-8.43981e-13
1.7282e-13
1.07477e-12
-6.87293e-13
1.13452e-13
8.50196e-13
-5.65485e-13
7.115e-14
6.97802e-13
-4.70952e-13
3.40369e-14
5.72994e-13
-3.99004e-13
1.89811e-14
2.85205e-13
-4.77367e-13
1.00484e-14
2.97721e-13
4.71357e-15
2.18799e-13
-2.67384e-14
-1.76311e-10
2.89558e-09
4.80809e-08
-2.48302e-12
1.28731e-11
3.80767e-11
-1.35557e-12
2.45245e-12
1.08522e-13
-1.09792e-12
1.75878e-12