/*--------------------------------*- C++ -*----------------------------------*\
| =========                 |                                                 |
| \\      /  F ield         | OpenFOAM: The Open Source CFD Toolbox           |
|  \\    /   O peration     | Version:  4.1                                   |
|   \\  /    A nd           | Web:      www.OpenFOAM.org                      |
|    \\/     M anipulation  |                                                 |
\*---------------------------------------------------------------------------*/
FoamFile
{
    version     2.0;
    format      ascii;
    class       volVectorField;
    location    "0.32";
    object      U;
}
// * * * * * * * * * * * * * * * * * * * * * * * * * * * * * * * * * * * * * //

dimensions      [0 1 -1 0 0 0 0];

internalField   nonuniform List<vector> 
18000
(
(7.86871e-14 3.91417e-13 -6.39076e-12)
(8.50577e-14 3.8979e-13 -6.31689e-12)
(7.69857e-14 -9.9666e-15 -6.24374e-12)
(6.91065e-14 -1.15744e-14 -6.17172e-12)
(6.1438e-14 -1.14095e-14 -6.10067e-12)
(5.39635e-14 -1.1206e-14 -6.03048e-12)
(4.67091e-14 -1.11403e-14 -5.96126e-12)
(3.96818e-14 -1.10793e-14 -5.89305e-12)
(3.28454e-14 -1.09554e-14 -5.82589e-12)
(2.62092e-14 -8.77071e-15 -5.76041e-12)
(1.06526e-13 4.05409e-13 -8.03847e-12)
(1.23258e-13 3.95383e-13 -7.7483e-12)
(1.08563e-13 -4.10163e-14 -7.46943e-12)
(9.46817e-14 -4.13921e-14 -7.20307e-12)
(8.17303e-14 -4.00152e-14 -6.94831e-12)
(6.9614e-14 -3.8602e-14 -6.70448e-12)
(5.82344e-14 -3.72615e-14 -6.47096e-12)
(4.76307e-14 -3.60243e-14 -6.24739e-12)
(3.76676e-14 -3.48093e-14 -6.03293e-12)
(2.83733e-14 -2.73199e-14 -5.83005e-12)
(1.10586e-13 4.13093e-13 -1.02406e-11)
(1.25531e-13 3.92349e-13 -9.60072e-12)
(1.04339e-13 -8.48847e-14 -9.00585e-12)
(8.5307e-14 -8.17127e-14 -8.45593e-12)
(6.83102e-14 -7.67655e-14 -7.94641e-12)
(5.31045e-14 -7.2332e-14 -7.47399e-12)
(3.94733e-14 -6.82297e-14 -7.03581e-12)
(2.72683e-14 -6.44189e-14 -6.62859e-12)
(1.63269e-14 -6.08501e-14 -6.25003e-12)
(6.55407e-15 -4.65971e-14 -5.90077e-12)
(1.47353e-13 4.09484e-13 -1.32287e-11)
(1.57746e-13 3.75105e-13 -1.20248e-11)
(1.27084e-13 -1.46711e-13 -1.09483e-11)
(1.00846e-13 -1.35782e-13 -9.98615e-12)
(7.84611e-14 -1.24179e-13 -9.12601e-12)
(5.93266e-14 -1.13822e-13 -8.35504e-12)
(4.29981e-14 -1.04549e-13 -7.6623e-12)
(2.89563e-14 -9.62332e-14 -7.03871e-12)
(1.69525e-14 -8.86546e-14 -6.47637e-12)
(6.66925e-15 -6.65304e-14 -5.9727e-12)
(2.00592e-13 3.84957e-13 -1.73529e-11)
(2.01392e-13 3.34147e-13 -1.52396e-11)
(1.56624e-13 -2.34264e-13 -1.34273e-11)
(1.20198e-13 -2.08963e-13 -1.18694e-11)
(9.06641e-14 -1.85168e-13 -1.05275e-11)
(6.66187e-14 -1.64739e-13 -9.36657e-12)
(4.69524e-14 -1.47244e-13 -8.35863e-12)
(3.08289e-14 -1.32105e-13 -7.48066e-12)
(1.76118e-14 -1.18727e-13 -6.71295e-12)
(6.76831e-15 -8.71962e-14 -6.04605e-12)
(2.79711e-13 3.23588e-13 -2.31521e-11)
(2.61888e-13 2.53329e-13 -1.9566e-11)
(1.9559e-13 -3.59585e-13 -1.66269e-11)
(1.4459e-13 -3.0815e-13 -1.42051e-11)
(1.05431e-13 -2.63862e-13 -1.22013e-11)
(7.50432e-14 -2.27555e-13 -1.05322e-11)
(5.13696e-14 -1.97532e-13 -9.13422e-12)
(3.28524e-14 -1.72376e-13 -7.95707e-12)
(1.83164e-14 -1.51053e-13 -6.96022e-12)
(6.8746e-15 -1.08645e-13 -6.12024e-12)
(4.00783e-13 1.96769e-13 -3.14746e-11)
(3.47545e-13 1.05381e-13 -2.54826e-11)
(2.47764e-13 -5.41224e-13 -2.08039e-11)
(1.75646e-13 -4.44119e-13 -1.71267e-11)
(1.23311e-13 -3.66132e-13 -1.4212e-11)
(8.4813e-14 -3.05132e-13 -1.18802e-11)
(5.62626e-14 -2.56653e-13 -9.99968e-12)
(3.4962e-14 -2.17727e-13 -8.47105e-12)
(1.89754e-14 -1.85987e-13 -7.21903e-12)
(6.92305e-15 -1.30878e-13 -6.19568e-12)
(-3.09966e-14 -4.72312e-14 -4.37043e-11)
(-1.33002e-13 -1.5783e-13 -3.37119e-11)
(-2.49924e-13 -8.08295e-13 -2.63271e-11)
(-3.20304e-13 -6.31951e-13 -2.0813e-11)
(-3.61641e-13 -4.99632e-13 -1.66417e-11)
(-3.84358e-13 -4.01269e-13 -1.34457e-11)
(-3.95106e-13 -3.26514e-13 -1.09682e-11)
(-3.98076e-13 -2.68767e-13 -9.02701e-12)
(-3.96051e-13 -2.23505e-13 -7.48997e-12)
(-3.94181e-13 -1.53932e-13 -6.27296e-12)
(-2.64684e-09 -5.70763e-13 -6.93606e-11)
(-2.56191e-09 -5.7221e-13 -5.16888e-11)
(-2.39884e-09 -1.10976e-12 -3.92571e-11)
(-2.25416e-09 -8.05783e-13 -3.03816e-11)
(-2.12536e-09 -5.96094e-13 -2.39249e-11)
(-2.01008e-09 -4.49289e-13 -1.91386e-11)
(-1.90635e-09 -3.44224e-13 -1.55307e-11)
(-1.81258e-09 -2.67605e-13 -1.27691e-11)
(-1.72746e-09 -2.19518e-13 -1.06246e-11)
(-1.66569e-09 -1.83174e-13 -8.97294e-12)
(2.81994e-07 -3.42027e-10 -3.1994e-08)
(2.6141e-08 1.98325e-10 -2.75724e-08)
(2.1638e-08 4.06133e-10 -2.39297e-08)
(1.82794e-08 3.61536e-10 -2.09503e-08)
(1.5484e-08 3.22631e-10 -1.84855e-08)
(1.31318e-08 2.89327e-10 -1.64253e-08)
(1.11331e-08 2.60683e-10 -1.46869e-08)
(9.41953e-09 2.35837e-10 -1.32075e-08)
(7.85847e-09 1.7231e-10 -1.19388e-08)
(-4.27032e-08 -4.18854e-11 -1.09487e-08)
(2.6701e-13 3.68506e-13 -6.5723e-12)
(2.49881e-13 3.4451e-13 -6.49534e-12)
(2.19139e-13 -5.48088e-14 -6.41907e-12)
(1.89579e-13 -5.58751e-14 -6.34362e-12)
(1.6116e-13 -5.52632e-14 -6.26946e-12)
(1.3383e-13 -5.46111e-14 -6.19658e-12)
(1.0754e-13 -5.40353e-14 -6.12417e-12)
(8.22801e-14 -5.34212e-14 -6.05326e-12)
(5.79178e-14 -5.24719e-14 -5.98333e-12)
(3.47787e-14 -3.03994e-14 -5.91495e-12)
(5.37899e-13 3.19111e-13 -8.29137e-12)
(4.94724e-13 2.2737e-13 -7.98818e-12)
(4.23855e-13 -2.03341e-13 -7.69648e-12)
(3.57741e-13 -1.97708e-13 -7.41814e-12)
(2.96138e-13 -1.90718e-13 -7.1524e-12)
(2.38718e-13 -1.83992e-13 -6.89796e-12)
(1.85176e-13 -1.77541e-13 -6.65473e-12)
(1.35249e-13 -1.71481e-13 -6.42189e-12)
(8.86325e-14 -1.64623e-13 -6.19897e-12)
(4.55217e-14 -9.35825e-14 -5.98762e-12)
(6.62874e-13 2.31104e-13 -1.06e-11)
(5.87732e-13 4.39354e-14 -9.92764e-12)
(4.86047e-13 -4.1252e-13 -9.30394e-12)
(3.95156e-13 -3.88968e-13 -8.72746e-12)
(3.14236e-13 -3.65333e-13 -8.19453e-12)
(2.42112e-13 -3.43407e-13 -7.70103e-12)
(1.77771e-13 -3.23127e-13 -7.24377e-12)
(1.20377e-13 -3.04355e-13 -6.81925e-12)
(6.92371e-14 -2.85589e-13 -6.42498e-12)
(2.39481e-14 -1.59846e-13 -6.06188e-12)
(8.63826e-13 8.26263e-14 -1.37492e-11)
(7.38629e-13 -2.38319e-13 -1.24779e-11)
(5.9251e-13 -7.06425e-13 -1.13442e-11)
(4.67717e-13 -6.45941e-13 -1.03324e-11)
(3.61542e-13 -5.89557e-13 -9.42991e-12)
(2.71024e-13 -5.39307e-13 -8.62247e-12)
(1.93828e-13 -4.94276e-13 -7.89837e-12)
(1.27966e-13 -4.53719e-13 -7.24784e-12)
(7.17681e-14 -4.15281e-13 -6.66134e-12)
(2.4356e-14 -2.28693e-13 -6.13722e-12)
(1.14372e-12 -1.61409e-13 -1.81235e-11)
(9.3994e-13 -6.69703e-13 -1.58791e-11)
(7.29012e-13 -1.12e-12 -1.39609e-11)
(5.57362e-13 -9.91262e-13 -1.23153e-11)
(4.17927e-13 -8.77693e-13 -1.09027e-11)
(3.0435e-13 -7.79886e-13 -9.6837e-12)
(2.1175e-13 -6.9517e-13 -8.62769e-12)
(1.36198e-13 -6.21619e-13 -7.70998e-12)
(7.44839e-14 -5.54789e-13 -6.90887e-12)
(2.46904e-14 -3.00521e-13 -6.21449e-12)
(1.54106e-12 -5.57127e-13 -2.4323e-11)
(1.21289e-12 -1.32776e-12 -2.0484e-11)
(9.06097e-13 -1.70499e-12 -1.73557e-11)
(6.69025e-13 -1.45664e-12 -1.47852e-11)
(4.85508e-13 -1.24819e-12 -1.26675e-11)
(3.42835e-13 -1.07553e-12 -1.09097e-11)
(2.31718e-13 -9.31298e-13 -9.44213e-12)
(1.45024e-13 -8.10286e-13 -8.20971e-12)
(7.73657e-14 -7.04827e-13 -7.16853e-12)
(2.50018e-14 -3.75301e-13 -6.29319e-12)
(2.11849e-12 -1.19701e-12 -3.33013e-11)
(1.58868e-12 -2.3356e-12 -2.683e-11)
(1.13852e-12 -2.53844e-12 -2.18141e-11)
(8.09201e-13 -2.08636e-12 -1.7889e-11)
(5.66869e-13 -1.72607e-12 -1.47956e-11)
(3.87463e-13 -1.43937e-12 -1.23321e-11)
(2.54045e-13 -1.20885e-12 -1.03529e-11)
(1.54588e-13 -1.02225e-12 -8.75002e-12)
(8.03364e-14 -8.66194e-13 -7.44018e-12)
(2.54066e-14 -4.53391e-13 -6.37365e-12)
(3.0014e-12 -2.24291e-12 -4.66442e-11)
(2.11781e-12 -3.8951e-12 -3.57351e-11)
(1.44812e-12 -3.73558e-12 -2.77509e-11)
(9.85606e-13 -2.94339e-12 -2.18278e-11)
(6.62977e-13 -2.34386e-12 -1.73792e-11)
(4.35735e-13 -1.88753e-12 -1.39895e-11)
(2.74471e-13 -1.53541e-12 -1.13754e-11)
(1.59506e-13 -1.26072e-12 -9.33539e-12)
(7.72816e-14 -1.03968e-12 -7.72566e-12)
(1.90505e-14 -5.3459e-13 -6.45615e-12)
(-2.14749e-11 -4.15128e-12 -7.42223e-11)
(-9.20633e-11 -6.50433e-12 -5.47915e-11)
(-7.51197e-11 -5.57768e-12 -4.13017e-11)
(-6.18537e-11 -4.20872e-12 -3.17621e-11)
(-5.15185e-11 -3.227e-12 -2.48865e-11)
(-4.33526e-11 -2.51329e-12 -1.98272e-11)
(-3.68201e-11 -1.98484e-12 -1.60369e-11)
(-3.15354e-11 -1.5877e-12 -1.3151e-11)
(-2.72175e-11 -1.27976e-12 -1.0919e-11)
(-2.36304e-11 -6.66958e-13 -9.20651e-12)
(1.74641e-07 -8.53569e-10 -3.33621e-08)
(-4.4825e-09 -7.01403e-10 -2.862e-08)
(-4.34624e-09 -4.05769e-10 -2.47125e-08)
(-3.97167e-09 -3.59671e-10 -2.15463e-08)
(-3.63732e-09 -3.21194e-10 -1.89472e-08)
(-3.34313e-09 -2.88269e-10 -1.67883e-08)
(-3.08536e-09 -2.59946e-10 -1.49763e-08)
(-2.85979e-09 -2.35451e-10 -1.3441e-08)
(-2.6667e-09 -2.14083e-10 -1.21293e-08)
(-3.04106e-09 -2.05089e-10 -1.11055e-08)
(2.29153e-13 3.73856e-13 -1.86913e-13)
(2.16244e-13 3.48741e-13 -1.83308e-13)
(1.89601e-13 -5.07998e-14 -1.79281e-13)
(1.64171e-13 -5.1941e-14 -1.75467e-13)
(1.39841e-13 -5.11227e-14 -1.71894e-13)
(1.16449e-13 -5.05846e-14 -1.68459e-13)
(9.41782e-14 -5.00862e-14 -1.65035e-13)
(7.27986e-14 -4.93878e-14 -1.62138e-13)
(5.23259e-14 -4.85993e-14 -1.59059e-13)
(3.29699e-14 -2.54949e-14 -1.56234e-13)
(5.00729e-13 3.39029e-13 -2.60772e-13)
(4.62238e-13 2.42309e-13 -2.46871e-13)
(3.95931e-13 -1.8899e-13 -2.33115e-13)
(3.34147e-13 -1.83582e-13 -2.20064e-13)
(2.76724e-13 -1.76963e-13 -2.08437e-13)
(2.23244e-13 -1.70605e-13 -1.97349e-13)
(1.73527e-13 -1.64448e-13 -1.86844e-13)
(1.2717e-13 -1.58669e-13 -1.77076e-13)
(8.39612e-14 -1.52246e-13 -1.68513e-13)
(4.41684e-14 -7.90488e-14 -1.59769e-13)
(6.18841e-13 2.72246e-13 -3.72231e-13)
(5.49909e-13 7.31314e-14 -3.38159e-13)
(4.54164e-13 -3.84715e-13 -3.07448e-13)
(3.68708e-13 -3.62436e-13 -2.7961e-13)
(2.9284e-13 -3.39777e-13 -2.54912e-13)
(2.25432e-13 -3.18996e-13 -2.32479e-13)
(1.65428e-13 -2.99847e-13 -2.12741e-13)
(1.12075e-13 -2.82146e-13 -1.94792e-13)
(6.44894e-14 -2.64224e-13 -1.78344e-13)
(2.26213e-14 -1.3516e-13 -1.64441e-13)
(8.11939e-13 1.5539e-13 -5.41603e-13)
(6.94878e-13 -1.90497e-13 -4.7164e-13)
(5.56232e-13 -6.61659e-13 -4.11198e-13)
(4.38131e-13 -6.04006e-13 -3.58703e-13)
(3.38077e-13 -5.50077e-13 -3.14344e-13)
(2.53069e-13 -5.02212e-13 -2.76116e-13)
(1.80794e-13 -4.59342e-13 -2.43408e-13)
(1.19345e-13 -4.21168e-13 -2.15253e-13)
(6.70282e-14 -3.84816e-13 -1.90519e-13)
(2.30552e-14 -1.94049e-13 -1.69378e-13)
(1.08376e-12 -4.20564e-14 -8.07282e-13)
(8.89617e-13 -5.98241e-13 -6.69813e-13)
(6.87965e-13 -1.05435e-12 -5.57976e-13)
(5.24354e-13 -9.30858e-13 -4.65974e-13)
(3.92201e-13 -8.21624e-13 -3.91314e-13)
(2.85052e-13 -7.28271e-13 -3.30209e-13)
(1.98048e-13 -6.47664e-13 -2.80166e-13)
(1.27295e-13 -5.7796e-13 -2.3891e-13)
(6.97823e-14 -5.14528e-13 -2.04152e-13)
(2.35247e-14 -2.55446e-13 -1.75513e-13)
(1.47387e-12 -3.69994e-13 -1.2351e-12)
(1.15619e-12 -1.22867e-12 -9.69498e-13)
(8.60031e-13 -1.61412e-12 -7.68537e-13)
(6.32339e-13 -1.37441e-12 -6.11572e-13)
(4.57339e-13 -1.17295e-12 -4.91389e-13)
(3.22072e-13 -1.00727e-12 -3.97654e-13)
(2.17281e-13 -8.69561e-13 -3.24401e-13)
(1.35938e-13 -7.54607e-13 -2.66546e-13)
(7.26136e-14 -6.5449e-13 -2.19508e-13)
(2.39717e-14 -3.20109e-13 -1.82831e-13)
(2.04823e-12 -9.09071e-13 -1.93986e-12)
(1.52719e-12 -2.20672e-12 -1.43368e-12)
(1.08787e-12 -2.41977e-12 -1.07444e-12)
(7.68987e-13 -1.97927e-12 -8.11515e-13)
(5.3636e-13 -1.62884e-12 -6.21626e-13)
(3.65274e-13 -1.35248e-12 -4.81564e-13)
(2.38922e-13 -1.13148e-12 -3.77184e-13)
(1.45207e-13 -9.53898e-13 -2.9833e-13)
(7.55541e-14 -8.05409e-13 -2.37018e-13)
(2.44517e-14 -3.87655e-13 -1.91243e-13)
(2.93677e-12 -1.80622e-12 -3.14395e-12)
(2.05447e-12 -3.74246e-12 -2.16821e-12)
(1.39448e-12 -3.58903e-12 -1.52774e-12)
(9.4373e-13 -2.80928e-12 -1.09004e-12)
(6.32827e-13 -2.2226e-12 -7.93629e-13)
(4.15915e-13 -1.78022e-12 -5.8679e-13)
(2.63307e-13 -1.44127e-12 -4.40393e-13)
(1.5535e-13 -1.17893e-12 -3.34712e-13)
(7.87237e-14 -9.68101e-13 -2.57076e-13)
(2.48869e-14 -4.58509e-13 -2.00153e-13)
(9.01695e-11 -3.36649e-12 -5.23167e-12)
(1.35508e-12 -6.2373e-12 -3.34258e-12)
(5.90109e-13 -5.3101e-12 -2.20753e-12)
(3.06045e-13 -3.95939e-12 -1.49417e-12)
(1.25279e-13 -3.00071e-12 -1.04349e-12)
(1.15848e-14 -2.313e-12 -7.48866e-13)
(-5.90246e-14 -1.80913e-12 -5.51733e-13)
(-1.0149e-13 -1.4344e-12 -4.16889e-13)
(-1.25967e-13 -1.14552e-12 -3.22013e-13)
(-1.35493e-13 -5.34556e-13 -2.56062e-13)
(1.54768e-07 -3.01806e-10 -1.44227e-09)
(1.13681e-10 -2.7733e-10 -1.06723e-09)
(-1.08107e-10 -3.65854e-11 -7.95227e-10)
(-8.62178e-11 -2.7018e-11 -6.042e-10)
(-6.94148e-11 -2.07731e-11 -4.67183e-10)
(-5.65695e-11 -1.62253e-11 -3.66863e-10)
(-4.66236e-11 -1.28541e-11 -2.92081e-10)
(-3.88399e-11 -1.0315e-11 -2.35432e-10)
(-3.27606e-11 -8.36101e-12 -1.91903e-10)
(-3.15265e-11 -6.49907e-12 -1.57849e-10)
(2.26947e-13 3.74e-13 -1.00126e-14)
(2.14295e-13 3.4853e-13 -9.19675e-15)
(1.87933e-13 -5.09574e-14 -7.20885e-15)
(1.62692e-13 -5.19354e-14 -6.11406e-15)
(1.3861e-13 -5.12637e-14 -4.81947e-15)
(1.15533e-13 -5.06376e-14 -3.82016e-15)
(9.34456e-14 -4.99331e-14 -3.03759e-15)
(7.22789e-14 -4.9267e-14 -2.20126e-15)
(5.20901e-14 -4.83718e-14 -1.8308e-15)
(3.29277e-14 -2.5239e-14 -1.8482e-15)
(4.98161e-13 3.40154e-13 -1.48767e-14)
(4.60075e-13 2.4304e-13 -1.32368e-14)
(3.94135e-13 -1.88404e-13 -1.11201e-14)
(3.32677e-13 -1.82967e-13 -9.07144e-15)
(2.75546e-13 -1.76181e-13 -7.18842e-15)
(2.22365e-13 -1.69938e-13 -6.05055e-15)
(1.72935e-13 -1.63848e-13 -4.8851e-15)
(1.26832e-13 -1.57863e-13 -4.05202e-15)
(8.38452e-14 -1.51395e-13 -3.41668e-15)
(4.42965e-14 -7.81579e-14 -2.95132e-15)
(6.15505e-13 2.75115e-13 -2.41817e-14)
(5.47307e-13 7.5079e-14 -2.137e-14)
(4.52074e-13 -3.82949e-13 -1.77043e-14)
(3.67087e-13 -3.60713e-13 -1.4461e-14)
(2.91641e-13 -3.38321e-13 -1.21485e-14)
(2.24577e-13 -3.17516e-13 -9.95408e-15)
(1.64944e-13 -2.98286e-13 -8.24702e-15)
(1.11877e-13 -2.80798e-13 -7.06888e-15)
(6.45522e-14 -2.62804e-13 -5.922e-15)
(2.29048e-14 -1.3357e-13 -5.73824e-15)
(8.07589e-13 1.61354e-13 -4.06196e-14)
(6.91627e-13 -1.86387e-13 -3.56182e-14)
(5.53802e-13 -6.58386e-13 -2.95628e-14)
(4.36389e-13 -6.01018e-13 -2.40755e-14)
(3.36866e-13 -5.47307e-13 -1.99267e-14)
(2.52348e-13 -4.99711e-13 -1.67644e-14)
(1.80465e-13 -4.57082e-13 -1.39605e-14)
(1.1936e-13 -4.18995e-13 -1.18194e-14)
(6.73339e-14 -3.82778e-13 -1.03666e-14)
(2.35022e-14 -1.92134e-13 -9.21123e-15)
(1.07807e-12 -3.11534e-14 -7.1153e-14)
(8.85669e-13 -5.91239e-13 -6.02837e-14)
(6.85168e-13 -1.04859e-12 -4.85058e-14)
(5.22558e-13 -9.25985e-13 -3.95151e-14)
(3.91125e-13 -8.176e-13 -3.2352e-14)
(2.84512e-13 -7.24602e-13 -2.64122e-14)
(1.97952e-13 -6.44303e-13 -2.22934e-14)
(1.27578e-13 -5.75094e-13 -1.92359e-14)
(7.01902e-14 -5.12134e-13 -1.68019e-14)
(2.41659e-14 -2.53111e-13 -1.46501e-14)
(1.46608e-12 -3.50133e-13 -1.24587e-13)
(1.15131e-12 -1.21704e-12 -1.01832e-13)
(8.56898e-13 -1.60528e-12 -8.02347e-14)
(6.3052e-13 -1.36717e-12 -6.38823e-14)
(4.56461e-13 -1.16716e-12 -5.13796e-14)
(3.21852e-13 -1.00248e-12 -4.17863e-14)
(2.17508e-13 -8.65433e-13 -3.45318e-14)
(1.36424e-13 -7.51383e-13 -2.8953e-14)
(7.32907e-14 -6.51755e-13 -2.42032e-14)
(2.47889e-14 -3.17299e-13 -2.10877e-14)
(2.03749e-12 -8.73546e-13 -2.20197e-13)
(1.52091e-12 -2.18803e-12 -1.72617e-13)
(1.08436e-12 -2.40641e-12 -1.30927e-13)
(7.67179e-13 -1.9691e-12 -1.0135e-13)
(5.3569e-13 -1.62119e-12 -7.9347e-14)
(3.65397e-13 -1.34645e-12 -6.30967e-14)
(2.39453e-13 -1.12674e-12 -5.09098e-14)
(1.45985e-13 -9.50267e-13 -4.17324e-14)
(7.65856e-14 -8.02528e-13 -3.47493e-14)
(2.54006e-14 -3.84789e-13 -2.9159e-14)
(2.92114e-12 -1.74275e-12 -3.94714e-13)
(2.04572e-12 -3.71311e-12 -2.90651e-13)
(1.39013e-12 -3.5695e-12 -2.12223e-13)
(9.41899e-13 -2.79579e-12 -1.57427e-13)
(6.32493e-13 -2.21274e-12 -1.19337e-13)
(4.16425e-13 -1.77315e-12 -9.23914e-14)
(2.64225e-13 -1.43614e-12 -7.23165e-14)
(1.56481e-13 -1.17503e-12 -5.79108e-14)
(7.99673e-14 -9.65468e-13 -4.7247e-14)
(2.61568e-14 -4.5573e-13 -3.86478e-14)
(9.62e-11 -3.25207e-12 -7.12208e-13)
(3.07899e-12 -6.19219e-12 -4.86501e-13)
(1.78685e-12 -5.28072e-12 -3.37847e-13)
(1.15367e-12 -3.94035e-12 -2.40751e-13)
(7.4144e-13 -2.9878e-12 -1.7581e-13)
(4.68655e-13 -2.304e-12 -1.31584e-13)
(2.8611e-13 -1.80262e-12 -1.00421e-13)
(1.62968e-13 -1.42947e-12 -7.82151e-14)
(7.9364e-14 -1.14154e-12 -6.20103e-14)
(2.32897e-14 -5.30181e-13 -5.01583e-14)
(1.56151e-07 -2.6266e-10 -8.60726e-11)
(2.59763e-10 -2.50389e-10 -2.05646e-11)
(1.60152e-13 -9.28923e-12 -1.30394e-11)
(-1.43524e-13 -5.98051e-12 -8.54983e-12)
(-1.39354e-13 -4.30859e-12 -5.78771e-12)
(-1.34794e-13 -3.17518e-12 -4.01916e-12)
(-1.28274e-13 -2.38568e-12 -2.85349e-12)
(-1.20958e-13 -1.82447e-12 -2.06406e-12)
(-1.14069e-13 -1.41089e-12 -1.51848e-12)
(-1.22542e-13 -6.67358e-13 -1.1162e-12)
(2.27354e-13 3.73876e-13 -1.08074e-14)
(2.14622e-13 3.47987e-13 -9.83122e-15)
(1.88225e-13 -5.16653e-14 -7.47492e-15)
(1.62922e-13 -5.25408e-14 -5.52497e-15)
(1.38779e-13 -5.16885e-14 -4.09952e-15)
(1.15635e-13 -5.0956e-14 -2.87993e-15)
(9.35755e-14 -5.03996e-14 -2.05788e-15)
(7.24557e-14 -4.9542e-14 -1.12334e-15)
(5.21979e-14 -4.84174e-14 -4.83722e-16)
(3.30184e-14 -2.54064e-14 -3.06609e-16)
(4.99161e-13 3.39829e-13 -1.6059e-14)
(4.60934e-13 2.42287e-13 -1.42311e-14)
(3.9487e-13 -1.89229e-13 -1.10141e-14)
(3.33239e-13 -1.83808e-13 -8.90599e-15)
(2.76068e-13 -1.76899e-13 -6.29003e-15)
(2.22803e-13 -1.70331e-13 -4.83589e-15)
(1.73306e-13 -1.64113e-13 -3.68982e-15)
(1.27227e-13 -1.58191e-13 -3.0586e-15)
(8.41944e-14 -1.51672e-13 -2.23953e-15)
(4.46401e-14 -7.82326e-14 -1.56873e-15)
(6.17243e-13 2.74551e-13 -2.60091e-14)
(5.48843e-13 7.39373e-14 -2.29439e-14)
(4.53379e-13 -3.84342e-13 -1.86157e-14)
(3.68154e-13 -3.61824e-13 -1.46642e-14)
(2.9259e-13 -3.39023e-13 -1.19336e-14)
(2.25429e-13 -3.18234e-13 -9.68002e-15)
(1.65647e-13 -2.98891e-13 -7.76986e-15)
(1.12501e-13 -2.81155e-13 -6.4946e-15)
(6.51374e-14 -2.63014e-13 -5.83745e-15)
(2.34543e-14 -1.338e-13 -5.05564e-15)
(8.10655e-13 1.60266e-13 -4.46041e-14)
(6.94293e-13 -1.88284e-13 -3.89217e-14)
(5.55963e-13 -6.60407e-13 -3.20105e-14)
(4.38213e-13 -6.02796e-13 -2.60813e-14)
(3.38399e-13 -5.4864e-13 -2.13563e-14)
(2.53608e-13 -5.00807e-13 -1.76332e-14)
(1.81593e-13 -4.58019e-13 -1.50912e-14)
(1.20355e-13 -4.19726e-13 -1.28821e-14)
(6.82431e-14 -3.83334e-13 -1.11609e-14)
(2.42921e-14 -1.92246e-13 -1.02303e-14)
(1.08319e-12 -3.32932e-14 -7.78625e-14)
(8.89972e-13 -5.94926e-13 -6.72848e-14)
(6.88646e-13 -1.05232e-12 -5.45586e-14)
(5.25379e-13 -9.28892e-13 -4.43009e-14)
(3.93461e-13 -8.19942e-13 -3.68046e-14)
(2.86455e-13 -7.26586e-13 -3.06067e-14)
(1.99605e-13 -6.45802e-13 -2.55764e-14)
(1.28958e-13 -5.76193e-13 -2.19222e-14)
(7.14191e-14 -5.13033e-13 -1.91857e-14)
(2.52109e-14 -2.53704e-13 -1.68341e-14)
(1.47466e-12 -3.54681e-13 -1.37382e-13)
(1.15826e-12 -1.22386e-12 -1.14635e-13)
(8.62341e-13 -1.61158e-12 -9.15688e-14)
(6.34828e-13 -1.37231e-12 -7.34003e-14)
(4.59876e-13 -1.17118e-12 -5.95485e-14)
(3.24657e-13 -1.00573e-12 -4.93299e-14)
(2.19768e-13 -8.6814e-13 -4.07295e-14)
(1.38291e-13 -7.53513e-13 -3.43545e-14)
(7.48355e-14 -6.53478e-13 -2.95057e-14)
(2.60561e-14 -3.18256e-13 -2.53987e-14)
(2.05193e-12 -8.82643e-13 -2.42859e-13)
(1.53207e-12 -2.20117e-12 -1.95256e-13)
(1.09271e-12 -2.41794e-12 -1.51473e-13)
(7.73537e-13 -1.97805e-12 -1.18124e-13)
(5.40605e-13 -1.62817e-12 -9.41715e-14)
(3.69206e-13 -1.35206e-12 -7.56692e-14)
(2.42442e-13 -1.13121e-12 -6.14601e-14)
(1.48392e-13 -9.53718e-13 -5.07675e-14)
(7.85026e-14 -8.0543e-13 -4.27126e-14)
(2.69975e-14 -3.86495e-13 -3.60308e-14)
(2.94537e-12 -1.76126e-12 -4.32048e-13)
(2.06349e-12 -3.73843e-12 -3.31008e-13)
(1.40283e-12 -3.58997e-12 -2.46041e-13)
(9.51175e-13 -2.81127e-12 -1.86506e-13)
(6.39329e-13 -2.22464e-12 -1.43819e-13)
(4.21555e-13 -1.78241e-12 -1.12533e-13)
(2.68149e-13 -1.44339e-12 -8.94228e-14)
(1.59496e-13 -1.1807e-12 -7.19802e-14)
(8.22612e-14 -9.69909e-13 -5.88467e-14)
(2.79518e-14 -4.58369e-13 -4.91689e-14)
(9.71514e-11 -3.28953e-12 -7.80836e-13)
(3.14205e-12 -6.24052e-12 -5.60365e-13)
(1.81927e-12 -5.31751e-12 -3.97783e-13)
(1.17496e-12 -3.96711e-12 -2.89048e-13)
(7.55917e-13 -3.00755e-12 -2.14848e-13)
(4.78792e-13 -2.31879e-12 -1.6288e-13)
(2.93374e-13 -1.81389e-12 -1.25405e-13)
(1.68224e-13 -1.43822e-12 -9.85422e-14)
(8.32258e-14 -1.14849e-12 -7.83824e-14)
(2.60859e-14 -5.34096e-13 -6.3471e-14)
(1.6145e-07 -2.63505e-10 -3.9461e-11)
(2.74886e-10 -2.51723e-10 -1.41424e-12)
(2.02646e-12 -8.71988e-12 -7.77652e-13)
(1.14251e-12 -5.58493e-12 -5.2021e-13)
(7.60079e-13 -4.03998e-12 -3.60781e-13)
(5.09597e-13 -2.98863e-12 -2.58593e-13)
(3.42139e-13 -2.25363e-12 -1.90269e-13)
(2.28419e-13 -1.72936e-12 -1.42889e-13)
(1.50185e-13 -1.34133e-12 -1.09387e-13)
(9.62934e-14 -6.14076e-13 -8.53246e-14)
(2.27907e-13 3.73589e-13 -1.3668e-14)
(2.15073e-13 3.47206e-13 -1.17932e-14)
(1.88556e-13 -5.2658e-14 -9.42447e-15)
(1.63241e-13 -5.32708e-14 -6.91025e-15)
(1.38963e-13 -5.23101e-14 -5.09038e-15)
(1.15828e-13 -5.14435e-14 -3.17853e-15)
(9.36856e-14 -5.06261e-14 -2.03327e-15)
(7.25684e-14 -4.98906e-14 -1.37624e-15)
(5.23534e-14 -4.86936e-14 -6.64965e-16)
(3.31192e-14 -2.53318e-14 -4.50751e-16)
(5.00495e-13 3.39336e-13 -2.01863e-14)
(4.62082e-13 2.41071e-13 -1.77077e-14)
(3.9581e-13 -1.90455e-13 -1.36112e-14)
(3.34051e-13 -1.84798e-13 -1.07169e-14)
(2.7672e-13 -1.77764e-13 -8.23188e-15)
(2.23374e-13 -1.70952e-13 -6.00509e-15)
(1.73783e-13 -1.64539e-13 -4.3689e-15)
(1.27635e-13 -1.58427e-13 -3.19039e-15)
(8.46564e-14 -1.51982e-13 -2.74173e-15)
(4.50233e-14 -7.84567e-14 -2.33534e-15)
(6.19616e-13 2.73665e-13 -3.24744e-14)
(5.50891e-13 7.22339e-14 -2.8542e-14)
(4.5512e-13 -3.86089e-13 -2.28603e-14)
(3.69598e-13 -3.63281e-13 -1.86027e-14)
(2.93845e-13 -3.40253e-13 -1.4656e-14)
(2.2646e-13 -3.19142e-13 -1.16838e-14)
(1.66634e-13 -2.99547e-13 -9.50117e-15)
(1.13351e-13 -2.81586e-13 -8.27158e-15)
(6.5905e-14 -2.63409e-13 -7.12679e-15)
(2.42305e-14 -1.34082e-13 -6.30053e-15)
(8.14688e-13 1.58535e-13 -5.59563e-14)
(6.97767e-13 -1.91159e-13 -4.84411e-14)
(5.58835e-13 -6.632e-13 -3.94058e-14)
(4.40602e-13 -6.05087e-13 -3.22994e-14)
(3.40436e-13 -5.50593e-13 -2.64011e-14)
(2.55383e-13 -5.02197e-13 -2.16485e-14)
(1.8309e-13 -4.59031e-13 -1.85586e-14)
(1.21666e-13 -4.20651e-13 -1.60909e-14)
(6.9353e-14 -3.83945e-13 -1.41078e-14)
(2.53046e-14 -1.9264e-13 -1.25147e-14)
(1.09005e-12 -3.65355e-14 -9.73425e-14)
(8.95695e-13 -5.99861e-13 -8.32873e-14)
(6.93238e-13 -1.05708e-12 -6.77546e-14)
(5.29106e-13 -9.32742e-13 -5.53486e-14)
(3.96516e-13 -8.22989e-13 -4.57503e-14)
(2.89072e-13 -7.29152e-13 -3.82968e-14)
(2.01697e-13 -6.47916e-13 -3.18722e-14)
(1.30764e-13 -5.77861e-13 -2.73233e-14)
(7.29512e-14 -5.14393e-13 -2.34812e-14)
(2.64834e-14 -2.54449e-13 -2.079e-14)
(1.48619e-12 -3.61371e-13 -1.71678e-13)
(1.16749e-12 -1.23339e-12 -1.43067e-13)
(8.69534e-13 -1.62016e-12 -1.13962e-13)
(6.4043e-13 -1.37913e-12 -9.14054e-14)
(4.64364e-13 -1.17652e-12 -7.43239e-14)
(3.28219e-13 -1.0101e-12 -6.13108e-14)
(2.22691e-13 -8.71686e-13 -5.08123e-14)
(1.40674e-13 -7.56272e-13 -4.2726e-14)
(7.68239e-14 -6.55824e-13 -3.66025e-14)
(2.77201e-14 -3.1961e-13 -3.16271e-14)
(2.07122e-12 -8.96292e-13 -3.03818e-13)
(1.54687e-12 -2.21907e-12 -2.43286e-13)
(1.10372e-12 -2.43327e-12 -1.88647e-13)
(7.81887e-13 -1.98998e-12 -1.47607e-13)
(5.47035e-13 -1.63745e-12 -1.17499e-13)
(3.74171e-13 -1.3595e-12 -9.44478e-14)
(2.46402e-13 -1.13713e-12 -7.69704e-14)
(1.51485e-13 -9.58429e-13 -6.31157e-14)
(8.09737e-14 -8.09223e-13 -5.29665e-14)
(2.90246e-14 -3.88703e-13 -4.48013e-14)
(2.97853e-12 -1.78863e-12 -5.40558e-13)
(2.08724e-12 -3.77276e-12 -4.13489e-13)
(1.41967e-12 -3.61766e-12 -3.07819e-13)
(9.63403e-13 -2.83191e-12 -2.33181e-13)
(6.48335e-13 -2.24034e-12 -1.79738e-13)
(4.28313e-13 -1.79453e-12 -1.40774e-13)
(2.73245e-13 -1.45292e-12 -1.11954e-13)
(1.63414e-13 -1.18826e-12 -8.97289e-14)
(8.52803e-14 -9.75824e-13 -7.31521e-14)
(3.03376e-14 -4.61739e-13 -6.08649e-14)
(9.94221e-11 -3.34665e-12 -9.81234e-13)
(3.18712e-12 -6.30709e-12 -7.01783e-13)
(1.84541e-12 -5.36691e-12 -4.99028e-13)
(1.19292e-12 -4.00257e-12 -3.62723e-13)
(7.68492e-13 -3.0336e-12 -2.69779e-13)
(4.87804e-13 -2.33844e-12 -2.04134e-13)
(2.99928e-13 -1.82881e-12 -1.57086e-13)
(1.73074e-13 -1.44968e-12 -1.23138e-13)
(8.68182e-14 -1.15739e-12 -9.79144e-14)
(2.87819e-14 -5.39243e-13 -7.93091e-14)
(1.70203e-07 -2.75461e-10 -8.67675e-11)
(2.87295e-10 -2.57591e-10 -1.38335e-12)
(2.10959e-12 -8.81468e-12 -8.07054e-13)
(1.17256e-12 -5.64017e-12 -5.58693e-13)
(7.79716e-13 -4.07941e-12 -3.97523e-13)
(5.22878e-13 -3.01725e-12 -2.9009e-13)
(3.51406e-13 -2.27495e-12 -2.1642e-13)
(2.35065e-13 -1.74559e-12 -1.64298e-13)
(1.55055e-13 -1.35373e-12 -1.26816e-13)
(9.99836e-14 -6.20964e-13 -1.00139e-13)
(2.28593e-13 3.73101e-13 -1.63661e-14)
(2.157e-13 3.46296e-13 -1.41952e-14)
(1.88987e-13 -5.36016e-14 -1.09712e-14)
(1.63589e-13 -5.42608e-14 -8.42698e-15)
(1.39304e-13 -5.31704e-14 -6.04165e-15)
(1.16089e-13 -5.21721e-14 -4.09285e-15)
(9.39358e-14 -5.11156e-14 -2.42096e-15)
(7.27341e-14 -5.00884e-14 -1.46955e-15)
(5.25215e-14 -4.87913e-14 -1.55158e-15)
(3.33137e-14 -2.54357e-14 -2.95248e-15)
(5.02118e-13 3.38706e-13 -2.41679e-14)
(4.63538e-13 2.39708e-13 -2.08286e-14)
(3.96963e-13 -1.91957e-13 -1.66143e-14)
(3.35031e-13 -1.85919e-13 -1.27767e-14)
(2.77548e-13 -1.78767e-13 -1.00987e-14)
(2.24103e-13 -1.71865e-13 -7.37758e-15)
(1.74447e-13 -1.65245e-13 -5.71703e-15)
(1.28274e-13 -1.5885e-13 -4.18009e-15)
(8.51794e-14 -1.52026e-13 -3.24023e-15)
(4.55432e-14 -7.85142e-14 -4.57638e-15)
(6.22516e-13 2.72615e-13 -3.91348e-14)
(5.53382e-13 7.01884e-14 -3.38644e-14)
(4.57192e-13 -3.88172e-13 -2.71615e-14)
(3.71366e-13 -3.65037e-13 -2.20567e-14)
(2.95294e-13 -3.41748e-13 -1.75015e-14)
(2.27771e-13 -3.20306e-13 -1.43028e-14)
(1.67779e-13 -3.003e-13 -1.16522e-14)
(1.14454e-13 -2.8217e-13 -1.00385e-14)
(6.68704e-14 -2.63876e-13 -8.99054e-15)
(2.50181e-14 -1.34324e-13 -8.74241e-15)
(8.19689e-13 1.56458e-13 -6.66955e-14)
(7.01993e-13 -1.94643e-13 -5.73757e-14)
(5.62342e-13 -6.66564e-13 -4.67407e-14)
(4.43494e-13 -6.07861e-13 -3.82546e-14)
(3.4292e-13 -5.52878e-13 -3.16348e-14)
(2.57526e-13 -5.04038e-13 -2.6657e-14)
(1.84918e-13 -4.60386e-13 -2.23691e-14)
(1.23218e-13 -4.21672e-13 -1.93302e-14)
(7.07276e-14 -3.84954e-13 -1.71235e-14)
(2.65117e-14 -1.93212e-13 -1.55498e-14)
(1.09847e-12 -4.0701e-14 -1.17175e-13)
(9.02671e-13 -6.06081e-13 -9.89412e-14)
(6.98851e-13 -1.06283e-12 -8.01258e-14)
(5.33636e-13 -9.37416e-13 -6.5556e-14)
(4.00272e-13 -8.26749e-13 -5.42142e-14)
(2.92194e-13 -7.32304e-13 -4.56556e-14)
(2.0435e-13 -6.50466e-13 -3.84739e-14)
(1.32932e-13 -5.79902e-13 -3.29958e-14)
(7.48179e-14 -5.16017e-13 -2.85419e-14)
(2.81373e-14 -2.55438e-13 -2.5886e-14)
(1.50039e-12 -3.69644e-13 -2.06878e-13)
(1.17875e-12 -1.24489e-12 -1.69876e-13)
(8.78273e-13 -1.63052e-12 -1.35345e-13)
(6.4733e-13 -1.3874e-12 -1.08986e-13)
(4.69845e-13 -1.18311e-12 -8.88851e-14)
(3.32648e-13 -1.01542e-12 -7.37401e-14)
(2.26316e-13 -8.76066e-13 -6.11718e-14)
(1.43587e-13 -7.59814e-13 -5.1383e-14)
(7.92737e-14 -6.58615e-13 -4.41854e-14)
(2.97269e-14 -3.21304e-13 -3.86547e-14)
(2.09517e-12 -9.13199e-13 -3.66418e-13)
(1.56495e-12 -2.24111e-12 -2.89214e-13)
(1.11723e-12 -2.45184e-12 -2.24256e-13)
(7.9215e-13 -2.00447e-12 -1.76407e-13)
(5.54894e-13 -1.64882e-12 -1.40439e-13)
(3.80309e-13 -1.36854e-12 -1.13672e-13)
(2.51212e-13 -1.14451e-12 -9.28276e-14)
(1.55286e-13 -9.6428e-13 -7.58637e-14)
(8.39806e-14 -8.13889e-13 -6.38502e-14)
(3.14604e-14 -3.91486e-13 -5.4616e-14)
(3.01949e-12 -1.82281e-12 -6.52737e-13)
(2.11632e-12 -3.81468e-12 -4.92022e-13)
(1.44047e-12 -3.65124e-12 -3.67831e-13)
(9.78464e-13 -2.85725e-12 -2.79144e-13)
(6.59438e-13 -2.25962e-12 -2.15435e-13)
(4.36586e-13 -1.80944e-12 -1.69232e-13)
(2.79495e-13 -1.46476e-12 -1.3485e-13)
(1.68225e-13 -1.1976e-12 -1.07601e-13)
(8.89649e-14 -9.83132e-13 -8.78958e-14)
(3.32115e-14 -4.66005e-13 -7.3297e-14)
(1.04256e-10 -3.40993e-12 -1.12721e-12)
(3.24401e-12 -6.38808e-12 -8.38765e-13)
(1.87709e-12 -5.42726e-12 -5.98664e-13)
(1.21481e-12 -4.04627e-12 -4.35747e-13)
(7.83932e-13 -3.06581e-12 -3.24337e-13)
(4.98848e-13 -2.36261e-12 -2.45739e-13)
(3.07965e-13 -1.84726e-12 -1.89919e-13)
(1.78978e-13 -1.4638e-12 -1.47774e-13)
(9.11984e-14 -1.16843e-12 -1.17592e-13)
(3.20663e-14 -5.4552e-13 -9.54614e-14)
(1.88637e-07 -2.68642e-10 7.12187e-11)
(3.09845e-10 -2.7002e-10 -6.59274e-13)
(2.12258e-12 -8.94729e-12 -9.63107e-13)
(1.19239e-12 -5.71396e-12 -6.70786e-13)
(7.93547e-13 -4.13168e-12 -4.78638e-13)
(5.32762e-13 -3.05509e-12 -3.49443e-13)
(3.58661e-13 -2.303e-12 -2.61012e-13)
(2.40474e-13 -1.76674e-12 -1.9817e-13)
(1.59127e-13 -1.36962e-12 -1.52213e-13)
(1.03144e-13 -6.29849e-13 -1.2075e-13)
(2.29326e-13 3.72697e-13 -1.81169e-14)
(2.16102e-13 3.45093e-13 -1.25735e-14)
(1.89419e-13 -5.49205e-14 -9.80244e-15)
(1.63927e-13 -5.52121e-14 -7.83418e-15)
(1.39651e-13 -5.40376e-14 -7.53475e-15)
(1.16457e-13 -5.29116e-14 -8.22026e-15)
(9.43632e-14 -5.17333e-14 -1.05663e-14)
(7.33615e-14 -5.0434e-14 -2.63168e-14)
(5.35918e-14 -4.89513e-14 -1.07185e-13)
(3.44944e-14 -2.86954e-14 -3.67089e-13)
(5.03922e-13 3.37913e-13 -2.58165e-14)
(4.64761e-13 2.38282e-13 -1.69754e-14)
(3.98103e-13 -1.93483e-13 -1.42899e-14)
(3.36019e-13 -1.87277e-13 -1.16673e-14)
(2.78447e-13 -1.79874e-13 -1.05708e-14)
(2.25003e-13 -1.72752e-13 -1.11364e-14)
(1.7533e-13 -1.65976e-13 -1.28975e-14)
(1.29211e-13 -1.59849e-13 -2.24347e-14)
(8.63682e-14 -1.53342e-13 -6.64987e-14)
(4.66304e-14 -8.42007e-14 -2.37427e-13)
(6.25683e-13 2.7129e-13 -4.21598e-14)
(5.55745e-13 6.80029e-14 -2.89802e-14)
(4.59223e-13 -3.90332e-13 -2.3835e-14)
(3.7317e-13 -3.66843e-13 -2.03025e-14)
(2.96963e-13 -3.43215e-13 -1.77923e-14)
(2.29379e-13 -3.21557e-13 -1.79148e-14)
(1.69268e-13 -3.01544e-13 -1.96632e-14)
(1.15834e-13 -2.83228e-13 -2.4243e-14)
(6.83864e-14 -2.65599e-13 -5.00168e-14)
(2.63699e-14 -1.40627e-13 -1.57807e-13)
(8.25203e-13 1.54187e-13 -7.23057e-14)
(7.06114e-13 -1.97945e-13 -5.13348e-14)
(5.6583e-13 -6.69849e-13 -4.25838e-14)
(4.46536e-13 -6.10532e-13 -3.64292e-14)