/*--------------------------------*- C++ -*----------------------------------*\
| =========                 |                                                 |
| \\      /  F ield         | OpenFOAM: The Open Source CFD Toolbox           |
|  \\    /   O peration     | Version:  4.1                                   |
|   \\  /    A nd           | Web:      www.OpenFOAM.org                      |
|    \\/     M anipulation  |                                                 |
\*---------------------------------------------------------------------------*/
FoamFile
{
    version     2.0;
    format      ascii;
    class       surfaceScalarField;
    location    "1.58";
    object      phi;
}
// * * * * * * * * * * * * * * * * * * * * * * * * * * * * * * * * * * * * * //

dimensions      [1 0 -1 0 0 0 0];

internalField   nonuniform List<scalar> 
150500
(
0.0168001
1.01193e-10
-3.26296e-12
0.0168001
5.62359e-10
-1.15838e-11
0.0168001
2.08851e-09
-1.35512e-11
0.0168
5.3742e-09
-2.11579e-11
0.0168
1.47481e-08
-2.13832e-11
0.0168
3.37787e-08
-2.788e-11
0.0167999
8.7878e-08
-2.72782e-11
0.0167996
1.95295e-07
-3.41775e-11
0.0167989
5.16836e-07
-3.43663e-11
0.0167976
1.12376e-06
-4.76826e-11
0.0167932
3.30997e-06
-4.11127e-11
0.0167851
7.36224e-06
-1.31082e-10
0.0167547
2.71405e-05
-3.93174e-11
0.0166669
7.41389e-05
-3.45744e-10
0.0162767
0.000374493
-4.90208e-10
0.0150033
0.00123852
-4.8864e-10
0.0137055
0.00129033
-1.57649e-10
0.0123895
0.00131047
-1.52142e-10
0.0110088
0.00137537
-2.35075e-10
0.00951741
0.00148147
-4.29954e-10
0.00784462
0.00162932
-6.99294e-10
0.00602481
0.00177882
-8.40858e-10
0.00409444
0.00190615
-9.9351e-10
0.00208054
0.00198669
-1.11202e-09
0.00205327
-1.17251e-09
0.0168001
2.06812e-10
-3.25902e-12
0.0168001
1.1433e-09
-1.1586e-11
0.0168001
4.25836e-09
-1.35496e-11
0.0168
1.09231e-08
-2.11585e-11
0.0168
3.01133e-08
-2.13818e-11
0.0168
6.88515e-08
-2.78782e-11
0.0167998
1.80185e-07
-2.72755e-11
0.0167996
4.00815e-07
-3.41691e-11
0.0167989
1.06228e-06
-3.43577e-11
0.0167974
2.34321e-06
-4.76898e-11
0.016793
6.6556e-06
-4.07198e-11
0.0167836
1.57652e-05
-1.32335e-10
0.0167525
5.43569e-05
-3.53385e-11
0.0166726
0.000147155
-3.39137e-10
0.0162904
0.000734383
-4.62462e-10
0.0150311
0.00245836
-4.8728e-10
0.0137147
0.00259686
-1.7453e-10
0.0123969
0.00262221
-1.61609e-10
0.0110202
0.00274657
-2.40588e-10
0.00951365
0.00297774
-4.31088e-10
0.00781971
0.00327864
-7.06777e-10
0.00599371
0.00356363
-8.46674e-10
0.00406096
0.0038144
-9.98721e-10
0.00204057
0.00397902
-1.12032e-09
0.00406625
-1.18597e-09
0.0168001
3.1337e-10
-3.25191e-12
0.0168001
1.73384e-09
-1.15876e-11
0.0168001
6.45113e-09
-1.35493e-11
0.0168
1.65569e-08
-2.1158e-11
0.0168
4.55535e-08
-2.13789e-11
0.0168
1.04152e-07
-2.78724e-11
0.0167999
2.71813e-07
-2.7261e-11
0.0167996
6.04486e-07
-3.41292e-11
0.0167989
1.59614e-06
-3.42806e-11
0.0167975
3.51879e-06
-4.7477e-11
0.0167931
9.94354e-06
-4.02891e-11
0.0167845
2.34684e-05
-1.30566e-10
0.0167543
8.02937e-05
-3.23962e-11
0.0166828
0.000216142
-3.23134e-10
0.0163285
0.00105924
-4.2888e-10
0.0151054
0.00364526
-4.8752e-10
0.0137629
0.00392803
-2.07593e-10
0.012443
0.00393485
-1.83919e-10
0.0110865
0.00409674
-2.5783e-10
0.00958622
0.00446632
-4.46495e-10
0.00788606
0.00493223
-7.30649e-10
0.00605128
0.00535426
-8.72852e-10
0.00410787
0.00573186
-1.01647e-09
0.00207126
0.00598723
-1.13135e-09
0.00610988
-1.20146e-09
0.0168001
4.26128e-10
-3.24161e-12
0.0168001
2.36195e-09
-1.15909e-11
0.0168001
8.78333e-09
-1.35495e-11
0.0168
2.25697e-08
-2.11596e-11
0.0168
6.19231e-08
-2.13784e-11
0.0168
1.41615e-07
-2.78714e-11
0.0167998
3.67869e-07
-2.72557e-11
0.0167996
8.18113e-07
-3.41003e-11
0.0167988
2.14464e-06
-3.42335e-11
0.0167974
4.72634e-06
-4.72544e-11
0.0167931
1.32295e-05
-3.9996e-11
0.0167847
3.09407e-05
-1.27946e-10
0.0167561
0.000104815
-2.94699e-11
0.0166885
0.000280424
-3.06874e-10
0.0163912
0.00133022
-3.96831e-10
0.0152093
0.00478892
-4.99475e-10
0.0138231
0.00529571
-2.48145e-10
0.0125266
0.0052216
-2.17086e-10
0.0112194
0.00539913
-2.8838e-10
0.00973578
0.00593987
-4.81414e-10
0.00804241
0.00657864
-7.46118e-10
0.0062075
0.00714468
-8.99914e-10
0.00423545
0.00767725
-1.03249e-09
0.00214331
0.0080528
-1.13861e-09
0.00822581
-1.2099e-09
0.0168001
5.63809e-10
-3.2286e-12
0.0168001
3.12782e-09
-1.15967e-11
0.0168001
1.1618e-08
-1.35527e-11
0.0168
2.98825e-08
-2.1167e-11
0.0168
8.1852e-08
-2.13899e-11
0.0168
1.87378e-07
-2.78931e-11
0.0167998
4.85742e-07
-2.73049e-11
0.0167995
1.08193e-06
-3.4179e-11
0.0167986
2.81951e-06
-3.44206e-11
0.0167969
6.28113e-06
-4.75258e-11
0.0167921
1.69034e-05
-4.05416e-11
0.0167812
4.08967e-05
-1.26273e-10
0.0167557
0.000126159
-2.86066e-11
0.0166787
0.000354499
-2.90961e-10
0.0164387
0.00154422
-3.55356e-10
0.0152697
0.00591743
-5.20486e-10
0.0138389
0.00670737
-2.9662e-10
0.0126636
0.00639547
-2.41498e-10
0.0114196
0.00664473
-3.07661e-10
0.00995941
0.00738805
-4.92375e-10
0.00828344
0.00820377
-7.85104e-10
0.00644325
0.0089331
-9.33414e-10
0.00445589
0.00963444
-1.05108e-09
0.00228526
0.0101944
-1.14386e-09
0.010484
-1.21395e-09
0.0168001
7.51095e-10
-3.21423e-12
0.0168001
4.11217e-09
-1.16051e-11
0.0168001
1.53166e-08
-1.35654e-11
0.0168
3.91718e-08
-2.1187e-11
0.0168
1.08592e-07
-2.14332e-11
0.0167999
2.48704e-07
-2.79701e-11
0.0167997
6.48809e-07
-2.74909e-11
0.0167993
1.48372e-06
-3.44957e-11
0.0167983
3.57097e-06
-3.51472e-11
0.0167949
9.421e-06
-4.91317e-11
0.0167918
1.88373e-05
-4.06218e-11
0.0167763
5.49536e-05
-1.37344e-10
0.0167536
0.00014402
-1.12505e-11
0.0166969
0.000412578
-3.21657e-10
0.0164794
0.00174021
-2.77017e-10
0.0152669
0.00708589
-5.66359e-10
0.0141957
0.00775993
-3.57511e-10
0.0129277
0.00766486
-2.23416e-10
0.0116078
0.00795873
-3.10085e-10
0.0102371
0.00873561
-4.83052e-10
0.00859706
0.00978503
-7.77256e-10
0.00677683
0.0106961
-9.2312e-10
0.00475249
0.011627
-1.04261e-09
0.00248779
0.0124306
-1.13095e-09
0.012945
-1.20213e-09
0.0168001
8.32875e-10
-3.19283e-12
0.0168001
4.56085e-09
-1.16299e-11
0.0168001
1.69228e-08
-1.35914e-11
0.0168
4.34693e-08
-2.12645e-11
0.0168
1.1977e-07
-2.1621e-11
0.0168
2.76287e-07
-2.84172e-11
0.0167999
7.07223e-07
-2.84353e-11
0.0167996
1.67319e-06
-3.82103e-11
0.0167991
3.84324e-06
-3.40925e-11
0.0167979
9.96896e-06
-8.35205e-11
0.0167945
2.13198e-05
5.84949e-13
0.0167892
5.73014e-05
-1.92958e-10
0.016776
0.00015179
6.9809e-11
0.0166976
0.000493542
-2.96265e-10
0.0165818
0.00183522
-1.94066e-10
0.0154639
0.00814901
-6.31851e-10
0.0144006
0.00881605
-2.95525e-10
0.0132178
0.00884402
-2.52619e-10
0.0118656
0.00929814
-3.63106e-10
0.0105209
0.010064
-4.66875e-10
0.00899435
0.0112556
-7.24696e-10
0.00722861
0.0124094
-9.02939e-10
0.00520807
0.0136176
-1.01697e-09
0.00282291
0.0147977
-1.09662e-09
0.0157441
-1.15937e-09
0.0168001
8.1028e-10
-3.16981e-12
0.0168001
4.4559e-09
-1.16812e-11
0.0168001
1.65847e-08
-1.35928e-11
0.0168001
4.27133e-08
-2.13548e-11
0.0168
1.1763e-07
-2.1745e-11
0.0168
2.70886e-07
-2.87318e-11
0.0168
7.00686e-07
-2.90419e-11
0.0168
1.60195e-06
-3.99628e-11
0.0167996
4.01578e-06
-3.56553e-11
0.0168
9.17849e-06
-8.91806e-11
0.016796
2.41221e-05
-9.11823e-13
0.0167946
5.64455e-05
-2.05361e-10
0.0167716
0.000170064
9.22464e-11
0.0167318
0.000525943
-3.38354e-10
0.0165705
0.0019782
-9.98104e-11
0.015625
0.00903792
-6.89197e-10
0.0144864
0.00995696
-2.0951e-10
0.0134197
0.00991174
-2.09298e-10
0.0122271
0.0104786
-3.38101e-10
0.0109564
0.0113191
-4.15705e-10
0.00952585
0.0126289
-6.75627e-10
0.00783972
0.0140304
-7.78393e-10
0.00585438
0.015563
-9.20158e-10
0.0033563
0.0172573
-1.02154e-09
0.0190777
-1.0656e-09
0.0168001
9.47414e-10
-3.1584e-12
0.0168001
4.09412e-09
-1.1697e-11
0.0168001
1.65547e-08
-1.35684e-11
0.0168001
4.05445e-08
-2.13069e-11
0.0168001
1.15154e-07
-2.15522e-11
0.0168001
2.54914e-07
-2.82867e-11
0.0168
6.83267e-07
-2.80428e-11
0.0168001
1.46304e-06
-3.56361e-11
0.0167998
4.03215e-06
-3.60391e-11
0.016801
7.77974e-06
-5.27711e-11
0.0167968
2.68349e-05
-5.6761e-11
0.0168052
4.68119e-05
-9.84964e-11
0.0167691
0.000200671
-9.23098e-11
0.016793
0.000496938
-3.01002e-10
0.0166408
0.00211387
-2.52448e-10
0.0159384
0.0096692
-7.8238e-10
0.0147923
0.0111139
2.13475e-11
0.0137467
0.0109609
-5.58209e-11
0.012677
0.0115355
-2.58631e-10
0.0115261
0.012456
-3.52494e-10
0.0102136
0.0138904
-6.01959e-10
0.00872075
0.0154749
-6.96374e-10
0.00691212
0.0173426
-7.77584e-10
0.0043516
0.019792
-9.36898e-10
0.0234046
-9.3887e-10
0.0168001
-3.22183e-12
1.49421e-09
0.0168001
-1.16996e-11
8.19469e-10
0.0168001
-1.37067e-11
1.96215e-08
0.0168001
-2.16607e-11
1.4962e-08
0.0168001
-2.14735e-11
1.27959e-07
0.0168002
-2.87429e-11
9.67349e-08
0.0168001
-2.80925e-11
7.78888e-07
0.016801
-3.6265e-11
4.61486e-07
0.0167994
-3.58164e-11
5.34988e-06
0.0168054
-5.36882e-11
1.57341e-06
0.0167892
-5.81355e-11
4.17031e-05
0.0168269
-9.72185e-11
7.66152e-06
0.0167112
-1.06825e-10
0.000310925
0.0169254
-2.97564e-10
0.000275893
0.0167682
-3.75771e-10
0.00224959
0.0167034
-1.01444e-09
0.00964166
0.0154774
2.15101e-10
0.012361
0.0143327
8.93963e-11
0.0121185
0.0133842
-1.79473e-10
0.0124837
0.0123313
-2.96554e-10
0.0135056
0.0112805
-4.5578e-10
0.0149164
0.0100591
-5.3041e-10
0.0166764
0.00840907
-6.99219e-10
0.0189799
0.00598125
-8.59759e-10
0.0222185
-7.83512e-10
0.0293695
0.0168001
1.0317e-10
-3.79074e-16
0.0168001
5.62856e-10
-2.14619e-15
0.0168001
2.09035e-09
-4.05273e-15
0.0168
5.37531e-09
-8.25697e-15
0.0168
1.475e-08
-1.12899e-14
0.0168
3.37812e-08
-1.8623e-14
0.0167999
8.78818e-08
-2.0607e-14
0.0167996
1.95304e-07
-3.04326e-14
0.0167989
5.16852e-07
-2.13251e-14
0.0167976
1.12377e-06
-2.07037e-14
0.0167932
3.31023e-06
7.67761e-14
0.0167851
7.36183e-06
2.54841e-13
0.0167547
2.7143e-05
1.15755e-12
0.0166669
7.41449e-05
3.80962e-12
0.0162767
0.000374526
1.31746e-11
0.0150032
0.00123855
1.83735e-11
0.0137054
0.00129031
4.91355e-12
0.0123895
0.00131043
-7.46037e-13
0.0110087
0.00137532
-3.25558e-12
0.00951745
0.00148141
-9.36945e-12
0.00784473
0.00162924
-1.87137e-11
0.00602494
0.00177874
-2.28689e-11
0.00409457
0.00190612
-2.56649e-11
0.00208062
0.00198675
-3.33704e-11
0.00205337
-3.22736e-11
0.0168001
2.10347e-10
-3.79076e-16
0.0168001
1.1454e-09
-2.14632e-15
0.0168001
4.26072e-09
-4.05309e-15
0.0168
1.09256e-08
-8.25742e-15
0.0168
3.01164e-08
-1.12863e-14
0.0168
6.8856e-08
-1.86125e-14
0.0167998
1.80194e-07
-2.05453e-14
0.0167996
4.00838e-07
-3.0269e-14
0.0167989
1.06233e-06
-2.08708e-14
0.0167974
2.34334e-06
-1.90049e-14
0.016793
6.65593e-06
7.6332e-14
0.0167836
1.57664e-05
2.72442e-13
0.0167525
5.43597e-05
1.13988e-12
0.0166726
0.000147167
3.78385e-12
0.0162904
0.000734424
1.29175e-11
0.0150311
0.0024584
1.823e-11
0.0137147
0.00259682
4.79181e-12
0.0123969
0.00262213
-1.13843e-12
0.0110203
0.00274646
-3.62108e-12
0.00951374
0.0029776
-9.69041e-12
0.00781985
0.0032785
-1.91357e-11
0.00599385
0.00356349
-2.32536e-11
0.00406108
0.00381435
-2.61146e-11
0.00204065
0.00397913
-3.42583e-11
0.00406645
-3.22003e-11
0.0168001
3.18503e-10
-3.79223e-16
0.0168001
1.73635e-09
-2.14658e-15
0.0168001
6.45391e-09
-4.05473e-15
0.0168
1.65582e-08
-8.26031e-15
0.0168
4.55541e-08
-1.12863e-14
0.0168
1.0415e-07
-1.86085e-14
0.0167998
2.7181e-07
-2.0487e-14
0.0167996
6.04487e-07
-3.01072e-14
0.0167989
1.59614e-06
-2.03821e-14
0.0167975
3.51886e-06
-1.7014e-14
0.0167931
9.94373e-06
7.59633e-14
0.0167845
2.34696e-05
2.91709e-13
0.0167543
8.02969e-05
1.123e-12
0.0166828
0.000216154
3.56841e-12
0.0163285
0.00105928
1.24084e-11
0.0151054
0.00364528
1.7652e-11
0.013763
0.00392795
4.61052e-12
0.0124431
0.00393473
-2.03867e-12
0.0110865
0.00409658
-4.59575e-12
0.00958634
0.0044661
-1.08434e-11
0.00788625
0.00493203
-2.03063e-11
0.00605145
0.00535409
-2.44919e-11
0.004108
0.00573181
-2.70696e-11
0.00207135
0.00598739
-3.55032e-11
0.00611019
-3.23355e-11
0.0168001
4.32632e-10
-3.79738e-16
0.0168001
2.36418e-09
-2.14838e-15
0.0168001
8.78464e-09
-4.06175e-15
0.0168
2.25664e-08
-8.27443e-15
0.0168
6.19131e-08
-1.13144e-14
0.0168
1.41591e-07
-1.86594e-14
0.0167998
3.67815e-07
-2.05592e-14
0.0167996
8.18011e-07
-3.01918e-14
0.0167988
2.14443e-06
-2.04778e-14
0.0167974
4.72596e-06
-1.64279e-14
0.0167931
1.32287e-05
7.56088e-14
0.0167847
3.0941e-05
2.93137e-13
0.0167562
0.000104813
1.11149e-12
0.0166885
0.000280434
3.47258e-12
0.0163912
0.00133026
1.18166e-11
0.0152093
0.0047889
1.73718e-11
0.0138231
0.00529557
4.24423e-12
0.0125267
0.00522141
-3.59081e-12
0.0112194
0.00539888
-6.23486e-12
0.00973596
0.00593956
-1.26476e-11
0.00804266
0.00657839
-2.11531e-11
0.00620771
0.00714448
-2.59407e-11
0.00423561
0.00767723
-2.78672e-11
0.0021434
0.00805302
-3.49286e-11
0.00822622
-3.42873e-11
0.0168001
5.71143e-10
-3.80491e-16
0.0168001
3.12967e-09
-2.15082e-15
0.0168001
1.16131e-08
-4.07231e-15
0.0168
2.98666e-08
-8.29553e-15
0.0168
8.18075e-08
-1.13672e-14
0.0168
1.87278e-07
-1.87624e-14
0.0167998
4.855e-07
-2.07925e-14
0.0167995
1.08138e-06
-3.06711e-14
0.0167986
2.8183e-06
-2.14444e-14
0.0167969
6.27798e-06
-1.91975e-14
0.0167921
1.68991e-05
7.42436e-14
0.0167812
4.08888e-05
2.64012e-13
0.0167557
0.000126159
1.08973e-12
0.0166787
0.000354492
3.30252e-12
0.0164387
0.00154428
1.11168e-11
0.0152698
0.00591737
1.74573e-11
0.013839
0.00670713
4.33887e-12
0.0126637
0.00639524
-5.57662e-12
0.0114197
0.0066444
-7.69067e-12
0.00995964
0.00738766
-1.31724e-11
0.00828375
0.00820349
-2.24602e-11
0.0064435
0.00893291
-2.71622e-11
0.00445608
0.00963444
-2.85389e-11
0.00228537
0.0101947
-3.49317e-11
0.0104845
-3.56547e-11
0.0168001
7.61842e-10
-3.81881e-16
0.0168001
4.10694e-09
-2.15589e-15
0.0168001
1.53006e-08
-4.09045e-15
0.0168
3.91205e-08
-8.33145e-15
0.0168
1.08456e-07
-1.14401e-14
0.0167999
2.48373e-07
-1.88965e-14
0.0167997
6.48076e-07
-2.09719e-14
0.0167993
1.48132e-06
-3.08532e-14
0.0167983
3.56961e-06
-2.16436e-14
0.0167949
9.40388e-06
-1.44644e-14
0.0167918
1.88457e-05
6.01377e-14
0.0167763
5.49258e-05
3.46679e-13
0.0167536
0.000144048
9.33108e-13
0.0166968
0.000412592
3.59373e-12
0.0164794
0.00174025
9.99267e-12
0.015267
0.0070857
1.82865e-11
0.0141958
0.00775971
6.09802e-12
0.0129279
0.00766448
-7.96062e-12
0.0116081
0.00795822
-9.15879e-12
0.0102375
0.00873513
-1.28695e-11
0.00859751
0.00978479
-2.25583e-11
0.00677716
0.0106959
-2.75301e-11
0.00475269
0.0116271
-2.91138e-11
0.0024879
0.0124309
-3.45973e-11
0.0129457
-3.60272e-11
0.0168001
8.43768e-10
-3.83062e-16
0.0168001
4.54292e-09
-2.16026e-15
0.0168001
1.69134e-08
-4.1063e-15
0.0168
4.3414e-08
-8.36176e-15
0.0168
1.19672e-07
-1.1503e-14
0.0168
2.7606e-07
-1.89452e-14
0.0167999
7.06762e-07
-2.13484e-14
0.0167996
1.67203e-06
-2.85757e-14
0.0167991
3.84176e-06
-2.98364e-14
0.0167979
9.965e-06
1.0398e-14
0.0167945
2.13164e-05
1.84133e-15
0.0167892
5.72927e-05
3.33397e-13
0.016776
0.000151791
8.67638e-13
0.0166976
0.000493512
3.12429e-12
0.016582
0.00183517
9.8609e-12
0.0154642
0.00814861
2.14464e-11
0.0144011
0.00881567
7.69165e-13
0.0132183
0.00884364
-4.45684e-12
0.011866
0.00929768
-9.61929e-12
0.0105214
0.0100635
-1.27197e-11
0.00899486
0.0112553
-2.09361e-11
0.00722899
0.0124093
-2.70247e-11
0.00520828
0.0136178
-2.8894e-11
0.00282302
0.0147982
-3.43047e-11
0.0157449
-3.50184e-11
0.0168001
8.14319e-10
-3.86183e-16
0.0168001
4.44394e-09
-2.17594e-15
0.0168001
1.65795e-08
-4.14893e-15
0.0168001
4.27041e-08
-8.45139e-15
0.0168
1.17661e-07
-1.17024e-14
0.0168
2.71069e-07
-1.92909e-14
0.0168
7.01177e-07
-2.23574e-14
0.0168
1.60418e-06
-2.90102e-14
0.0167996
4.01655e-06
-3.66709e-14
0.0168
9.19655e-06
5.82871e-15
0.016796
2.41017e-05
-3.39031e-14
0.0167945
5.64937e-05
2.82973e-13
0.0167716
0.000169984
5.32289e-13
0.0167318
0.000525921
3.42935e-12
0.0165707
0.00197797
8.65232e-12
0.0156254
0.00903732
2.42358e-11
0.0144869
0.00995646
2.76541e-13
0.0134202
0.00991133
-3.17248e-12
0.0122276
0.0104782
-9.23511e-12
0.0109569
0.0113186
-1.18572e-11
0.00952641
0.0126286
-2.0832e-11
0.00784012
0.0140304
-2.3137e-11
0.00585461
0.0155633
-2.65121e-11
0.00335637
0.0172579
-3.27734e-11
0.0190786
-3.1865e-11
0.0168001
9.07285e-10
-3.91001e-16
0.0168001
4.21705e-09
-2.19572e-15
0.0168001
1.64843e-08
-4.22199e-15
0.0168001
4.04074e-08
-8.62164e-15
0.0168001
1.15078e-07
-1.21914e-14
0.0168001
2.54749e-07
-2.04531e-14
0.0168
6.83215e-07
-2.50014e-14
0.0168001
1.46342e-06
-3.81252e-14
0.0167998
4.03272e-06
-4.12119e-14
0.016801
7.78427e-06
-5.86325e-14
0.0167967
2.68352e-05
7.78345e-15
0.0168053
4.68221e-05
5.27698e-14
0.0167691
0.000200656
8.12711e-13
0.016793
0.000496924
2.95775e-12
0.0166407
0.0021137
8.1442e-12
0.0159384
0.0096686
2.61124e-11
0.0147925
0.0111132
1.53289e-12
0.013747
0.0109604
-1.91485e-12
0.0126773
0.011535
-8.11131e-12
0.0115265
0.0124554
-1.09797e-11
0.0102141
0.0138902
-1.88837e-11
0.00872097
0.0154749
-2.17318e-11
0.00691221
0.0173429
-2.36262e-11
0.00435163
0.0197926
-2.87678e-11
0.0234056
-2.98154e-11
0.0168001
-4.01915e-16
1.38253e-09
0.0168001
-2.2182e-15
1.21351e-09
0.0168001
-4.29185e-15
1.85695e-08
0.0168001
-8.97708e-15
1.54771e-08
0.0168001
-1.23486e-14
1.26821e-07
0.0168002
-2.14185e-14
9.73229e-08
0.0168001
-2.66469e-14
7.77988e-07
0.016801
-4.21075e-14
4.62439e-07
0.0167994
-4.88429e-14
5.34906e-06
0.0168054
-7.71522e-14
1.5773e-06
0.0167892
-3.90069e-14
4.17026e-05
0.0168269
-4.57244e-14
7.67013e-06
0.0167112
5.98523e-13
0.000310908
0.0169254
1.80955e-12
0.000275928
0.0167682
8.11967e-12
0.00224947
0.0167031
2.69343e-11
0.00964136
0.0154773
2.91998e-12
0.0123602
0.0143327
-5.12417e-13
0.0121178
0.0133843
-6.28972e-12
0.0124831
0.0123314
-9.31168e-12
0.0135051
0.0112807
-1.49982e-11
0.0149161
0.0100592
-1.71281e-11
0.0166763
0.0084091
-2.18285e-11
0.0189802
0.00598117
-2.62249e-11
0.022219
-2.46401e-11
0.0293703
0.0168001
1.0317e-10
1.35504e-16
0.0168001
5.62856e-10
1.428e-16
0.0168001
2.09034e-09
-2.24277e-16
0.0168
5.37531e-09
-4.8529e-16
0.0168
1.475e-08
-1.21088e-15
0.0168
3.37812e-08
-2.42509e-15
0.0167999
8.78818e-08
-5.86809e-15
0.0167996
1.95304e-07
-1.33457e-14
0.0167989
5.16852e-07
-5.1515e-14
0.0167976
1.12377e-06
-9.09707e-14
0.0167932
3.31023e-06
-3.38017e-13
0.0167851
7.36184e-06
-4.28796e-13
0.0167547
2.7143e-05
-2.33004e-12
0.0166669
7.41449e-05
-5.47765e-12
0.0162767
0.000374526
-1.62391e-11
0.0150032
0.00123855
-1.44925e-11
0.0137054
0.00129031
6.33133e-13
0.0123895
0.00131043
2.22152e-12
0.0110087
0.00137532
1.57195e-12
0.00951746
0.0014814
-3.04166e-13
0.00784473
0.00162924
-1.6584e-12
0.00602495
0.00177874
-2.3574e-12
0.00409457
0.00190612
-2.99918e-12
0.00208062
0.00198676
-5.84334e-12
0.00205337
-6.31695e-12
0.0168001
2.10347e-10
1.353e-16
0.0168001
1.1454e-09
1.42145e-16
0.0168001
4.26071e-09
-2.2803e-16
0.0168
1.09255e-08
-4.92807e-16
0.0168
3.01164e-08
-1.35487e-15
0.0168
6.8856e-08
-2.76186e-15
0.0167998
1.80194e-07
-6.20339e-15
0.0167996
4.00838e-07
-1.49143e-14
0.0167989
1.06233e-06
-5.37764e-14
0.0167974
2.34334e-06
-1.02821e-13
0.016793
6.65593e-06
-3.14149e-13
0.0167836
1.57664e-05
-6.0229e-13
0.0167525
5.43597e-05
-2.06254e-12
0.0166726
0.000147167
-5.37326e-12
0.0162904
0.000734423
-1.50723e-11
0.0150311
0.0024584
-1.44836e-11
0.0137147
0.00259682
-1.97016e-13
0.0123969
0.00262213
1.93966e-12
0.0110203
0.00274646
1.48786e-12
0.00951374
0.0029776
-4.16155e-13
0.00781986
0.00327849
-1.95401e-12
0.00599386
0.00356349
-2.63905e-12
0.00406109
0.00381435
-3.22925e-12
0.00204066
0.00397914
-6.28304e-12
0.00406645
-5.95364e-12
0.0168001
3.18502e-10
1.35687e-16
0.0168001
1.73635e-09
1.42916e-16
0.0168001
6.4539e-09
-3.92117e-17
0.0168
1.65582e-08
-4.87017e-16
0.0168
4.5554e-08
-1.22148e-15
0.0168
1.0415e-07
-2.72501e-15
0.0167999
2.7181e-07
-6.08819e-15
0.0167996
6.04487e-07
-1.44452e-14
0.0167989
1.59614e-06
-5.27187e-14
0.0167975
3.51886e-06
-1.02493e-13
0.0167931
9.94373e-06
-2.99577e-13
0.0167845
2.34696e-05
-6.15047e-13
0.0167543
8.02969e-05
-1.94159e-12
0.0166828
0.000216154
-4.83557e-12
0.0163285
0.00105928
-1.39596e-11
0.0151055
0.00364527
-1.43502e-11
0.013763
0.00392795
-1.68069e-12
0.0124431
0.00393473
1.45407e-12
0.0110865
0.00409657
1.37165e-12
0.00958635
0.0044661
-7.36159e-13
0.00788626
0.00493203
-2.55694e-12
0.00605146
0.00535408
-3.23868e-12
0.00410801
0.00573182
-3.59888e-12
0.00207135
0.0059874
-6.28101e-12
0.00611019
-5.88568e-12
0.0168001
4.32631e-10
1.36028e-16
0.0168001
2.36418e-09
1.42772e-16
0.0168001
8.78463e-09
-2.24363e-16
0.0168
2.25664e-08
-4.84725e-16
0.0168
6.1913e-08
-1.324e-15
0.0168
1.41591e-07
-2.47187e-15
0.0167998
3.67815e-07
-5.95774e-15
0.0167996
8.1801e-07
-1.37054e-14
0.0167988
2.14442e-06
-5.14979e-14
0.0167974
4.72595e-06
-9.98773e-14
0.0167931
1.32287e-05
-2.90175e-13
0.0167847
3.0941e-05
-5.89656e-13
0.0167562
0.000104813
-1.8483e-12
0.0166885
0.000280434
-4.57775e-12
0.0163912
0.00133026
-1.33494e-11
0.0152093
0.0047889
-1.50213e-11
0.0138231
0.00529557
-3.02603e-12
0.0125267
0.00522141
1.38706e-12
0.0112194
0.00539888
7.01841e-13
0.00973597
0.00593956
-1.33128e-12
0.00804267
0.00657838
-3.15769e-12
0.00620772
0.00714448
-3.92055e-12
0.00423562
0.00767723
-4.00221e-12
0.00214341
0.00805304
-6.09227e-12
0.00822623
-6.33882e-12
0.0168001
5.71142e-10
1.36204e-16
0.0168001
3.12966e-09
1.41705e-16
0.0168001
1.16131e-08
-4.36917e-17
0.0168
2.98665e-08
-4.88659e-16
0.0168
8.18074e-08
-1.33256e-15
0.0168
1.87278e-07
-2.71724e-15
0.0167998
4.855e-07
-5.95863e-15
0.0167995
1.08138e-06
-1.33511e-14
0.0167986
2.8183e-06
-5.13148e-14
0.0167969
6.27798e-06
-1.0005e-13
0.0167921
1.68991e-05
-2.88397e-13
0.0167812
4.08888e-05
-5.77675e-13
0.0167557
0.000126159
-1.80685e-12
0.0166787
0.000354492
-4.42369e-12
0.0164387
0.00154428
-1.28489e-11
0.0152698
0.00591736
-1.61193e-11
0.013839
0.00670712
-4.49776e-12
0.0126637
0.00639523
1.97119e-12
0.0114197
0.00664439
6.49142e-13
0.00995965
0.00738765
-1.97612e-12
0.00828376
0.00820348
-3.87652e-12
0.00644351
0.00893291
-4.45904e-12
0.00445609
0.00963444
-4.36197e-12
0.00228537
0.0101947
-5.9103e-12
0.0104845
-6.33982e-12
0.0168001
7.61841e-10
1.34005e-16
0.0168001
4.10694e-09
1.30308e-16
0.0168001
1.53006e-08
-5.90695e-17
0.0168
3.91204e-08
-5.52056e-16
0.0168
1.08456e-07
-1.52533e-15
0.0167999
2.48373e-07
-2.62368e-15
0.0167997
6.48075e-07
-7.03587e-15
0.0167993
1.48132e-06
-1.68341e-14
0.0167983
3.56961e-06
-5.89759e-14
0.0167949
9.40388e-06
-1.22901e-13
0.0167918
1.88456e-05
-2.8339e-13
0.0167763
5.49258e-05
-8.47891e-13
0.0167536
0.000144048
-1.50773e-12
0.0166968
0.000412591
-5.25041e-12
0.0164794
0.00174025
-1.20687e-11
0.015267
0.0070857
-1.8073e-11
0.0141958
0.0077597
-6.55526e-12
0.0129279
0.00766448
4.18047e-12
0.0116081
0.00795821
1.24477e-12
0.0102375
0.00873512
-2.46697e-12
0.00859752
0.00978478
-4.20792e-12
0.00677717
0.0106959
-4.73914e-12
0.0047527
0.0116271
-4.64772e-12
0.00248791
0.012431
-5.78477e-12
0.0129457
-6.31304e-12
0.0168001
8.43767e-10
1.31425e-16
0.0168001
4.54291e-09
1.19982e-16
0.0168001
1.69134e-08
-2.96329e-16
0.0168
4.34139e-08
-6.47779e-16
0.0168
1.19671e-07
-1.43853e-15
0.0168
2.76059e-07
-3.96865e-15
0.0167999
7.0676e-07
-9.03769e-15
0.0167996
1.67203e-06
-3.23148e-14
0.0167991
3.84175e-06
-5.37541e-14
0.0167979
9.96499e-06
-2.33737e-13
0.0167945
2.13164e-05
-1.65182e-13
0.0167892
5.72926e-05
-1.04318e-12
0.016776
0.000151791
-1.41327e-12
0.0166976
0.000493512
-4.96698e-12
0.016582
0.00183517
-1.26241e-11
0.0154643
0.0081486
-2.20133e-11
0.0144011
0.00881566
-8.07127e-13
0.0132183
0.00884364
2.54966e-12
0.011866
0.00929767
-2.61451e-13
0.0105214
0.0100635
-1.73218e-12
0.00899487
0.0112553
-4.07033e-12
0.007229
0.0124093
-4.81406e-12
0.00520828
0.0136178
-4.76634e-12
0.00282302
0.0147982
-5.55876e-12
0.0157449
-5.82326e-12
0.0168001
8.14317e-10
1.32131e-16
0.0168001
4.44393e-09
1.13722e-16
0.0168001
1.65795e-08
-8.58476e-17
0.0168001
4.2704e-08
-6.41885e-16
0.0168
1.17661e-07
-1.42669e-15
0.0168
2.71068e-07
-3.67584e-15
0.0168
7.01176e-07
-7.88161e-15
0.0168
1.60418e-06
-2.48491e-14
0.0167996
4.01655e-06
-5.68084e-14
0.0168
9.19652e-06
-1.54721e-13
0.016796
2.41017e-05
-2.72051e-13
0.0167945
5.64936e-05
-7.89971e-13
0.0167716
0.000169984
-1.52519e-12
0.0167318
0.00052592
-5.73841e-12
0.0165707
0.00197797
-1.19959e-11
0.0156254
0.00903731
-2.59195e-11
0.0144869
0.00995645
1.58206e-12
0.0134202
0.00991132
2.75548e-12
0.0122276
0.0104781
-3.44009e-13
0.0109569
0.0113186
-1.21086e-12
0.00952643
0.0126286
-3.42984e-12
0.00784013
0.0140304
-3.80034e-12
0.00585462
0.0155633
-4.16483e-12
0.00335638
0.017258
-5.01559e-12
0.0190786
-4.95749e-12
0.0168001
9.07276e-10
1.39057e-16
0.0168001
4.21705e-09
1.32412e-16
0.0168001
1.64842e-08
-7.72621e-17
0.0168001
4.04073e-08
-5.20676e-16
0.0168001
1.15078e-07
-1.44811e-15
0.0168001
2.54748e-07
-2.97138e-15
0.0168
6.83213e-07
-6.67797e-15
0.0168001
1.46341e-06
-1.35812e-14
0.0167998
4.03271e-06
-5.54979e-14
0.016801
7.78426e-06
-1.07349e-13
0.0167967
2.68352e-05
-3.44612e-13
0.0168053
4.6822e-05
-6.24805e-13
0.0167691
0.000200655
-2.04406e-12
0.016793
0.000496923
-5.35341e-12
0.0166407
0.0021137
-1.33131e-11
0.0159384
0.00966858
-2.97288e-11
0.0147925
0.0111132
3.65096e-12
0.013747
0.0109604
4.45873e-12
0.0126773
0.011535
2.74649e-13
0.0115265
0.0124554
-6.25989e-13
0.0102141
0.0138901
-2.66276e-12
0.00872098
0.0154749
-3.34124e-12
0.00691222
0.0173429
-3.56742e-12
0.00435163
0.0197926
-4.2413e-12
0.0234056
-4.16977e-12
0.0168001
1.42617e-16
1.38251e-09
0.0168001
1.33989e-16
1.21356e-09
0.0168001
-8.56638e-17
1.85693e-08
0.0168001
-4.97962e-16
1.54773e-08
0.0168001
-1.36839e-15
1.26821e-07
0.0168002
-2.78425e-15
9.73232e-08
0.0168001
-6.49405e-15
7.77986e-07
0.016801
-1.21973e-14
4.62439e-07
0.0167994
-5.07032e-14
5.34905e-06
0.0168054
-8.855e-14
1.57729e-06
0.0167892
-3.30623e-13
4.17026e-05
0.0168269
-5.73275e-13
7.67009e-06
0.0167112
-2.08201e-12
0.000310907
0.0169254
-4.81217e-12
0.000275927
0.0167682
-1.48738e-11
0.00224947
0.0167031
-3.46764e-11
0.00964135
0.0154773
6.49835e-12
0.0123601
0.0143327
6.37348e-12
0.0121178
0.0133843
9.98253e-13
0.0124831
0.0123314
-1.67796e-13
0.013505
0.0112807
-1.6474e-12
0.0149161
0.0100592
-1.95375e-12
0.0166763
0.0084091
-2.876e-12
0.0189802
0.00598117
-3.78419e-12
0.0222191
-3.35578e-12
0.0293703
0.0168001
1.0317e-10
-6.67462e-18
0.0168001
5.62856e-10
-2.99206e-17
0.0168001
2.09034e-09
-3.72847e-17
0.0168
5.37531e-09
-6.69232e-17
0.0168
1.475e-08
1.26566e-16
0.0168
3.37811e-08
1.18063e-16
0.0167999
8.78816e-08
8.2791e-16
0.0167996
1.95303e-07
1.93654e-15
0.0167989
5.16851e-07
1.16491e-14
0.0167976
1.12377e-06
2.60477e-14
0.0167932
3.31023e-06
1.02609e-13
0.0167851
7.36178e-06
3.37045e-13
0.0167547
2.71431e-05
1.0349e-12
0.0166669
7.41451e-05
3.69643e-12
0.0162767
0.000374527
1.3306e-11
0.0150032
0.00123855
2.33854e-11
0.0137054
0.00129031
1.2429e-11
0.0123895
0.00131043
8.68099e-12
0.0110087
0.00137532
6.61377e-12
0.00951746
0.0014814
5.51394e-13
0.00784474
0.00162924
-1.0646e-11
0.00602495
0.00177874
-1.72732e-11
0.00409457
0.00190612
-2.6138e-11
0.00208062
0.00198676
-2.72023e-11
0.00205337
-3.11989e-11
0.0168001
2.10347e-10
-7.36834e-18
0.0168001
1.1454e-09
-3.2626e-17
0.0168001
4.26072e-09
-4.56085e-17
0.0168
1.09255e-08
-8.34709e-17
0.0168
3.01164e-08
9.90597e-17
0.0168
6.8856e-08
6.37333e-17
0.0167998
1.80194e-07
6.91463e-16
0.0167996
4.00838e-07
1.63745e-15
0.0167989
1.06233e-06
1.09397e-14
0.0167974
2.34334e-06
2.37318e-14
0.016793
6.65593e-06
1.03509e-13
0.0167836
1.57664e-05
2.83826e-13
0.0167525
5.43598e-05
1.08232e-12
0.0166726
0.000147168
3.6104e-12
0.0162904
0.000734425
1.31544e-11
0.0150311
0.0024584
2.31377e-11
0.0137148
0.00259682
1.21554e-11
0.0123969
0.00262213
8.28313e-12
0.0110203
0.00274646
6.23459e-12
0.00951374
0.0029776
1.70325e-13
0.00781986
0.00327849
-1.11269e-11
0.00599386
0.00356349
-1.75555e-11
0.00406109
0.00381435
-2.61418e-11
0.00204066
0.00397914
-2.66751e-11
0.00406645
-3.21563e-11
0.0168001
3.18502e-10
-8.70665e-18
0.0168001
1.73635e-09
-3.77497e-17
0.0168001
6.4539e-09
-5.95066e-17
0.0168
1.65582e-08
-1.10938e-16
0.0168
4.5554e-08
6.79227e-17
0.0168
1.0415e-07
3.70653e-17
0.0167999
2.7181e-07
6.10809e-16
0.0167996
6.04487e-07
1.50059e-15
0.0167989
1.59614e-06
1.05118e-14
0.0167975
3.51886e-06
2.34804e-14
0.0167931
9.94374e-06
9.85582e-14
0.0167845
2.34696e-05
2.83177e-13
0.0167543
8.0297e-05
1.03692e-12
0.0166828
0.000216154
3.36463e-12
0.0163285
0.00105928
1.24651e-11
0.0151055
0.00364528
2.22869e-11
0.013763
0.00392795
1.17599e-11
0.0124431
0.00393472
7.4287e-12
0.0110865
0.00409657
5.27662e-12
0.00958635
0.00446609
-9.96174e-13
0.00788626
0.00493203
-1.23151e-11
0.00605146
0.00535408
-1.85475e-11
0.00410801
0.00573182
-2.64243e-11
0.00207135
0.0059874
-2.66153e-11
0.00611019
-3.23028e-11
0.0168001
4.32631e-10
-1.12859e-17
0.0168001
2.36418e-09
-4.75219e-17
0.0168001
8.78463e-09
-8.70597e-17
0.0168
2.25664e-08
-1.65138e-16
0.0168
6.1913e-08
-1.824e-17
0.0168
1.41591e-07
-4.40965e-17
0.0167998
3.67815e-07
3.71112e-16
0.0167996
8.1801e-07
1.0602e-15
0.0167988
2.14442e-06
9.2884e-15
0.0167974
4.72595e-06
2.16958e-14
0.0167931
1.32287e-05
9.06487e-14
0.0167847
3.0941e-05
2.68737e-13
0.0167562
0.000104813
9.67142e-13
0.0166885
0.000280434
3.13061e-12
0.0163912
0.00133026
1.14016e-11
0.0152093
0.0047889
2.1283e-11
0.0138231
0.00529557
1.11882e-11
0.0125267
0.00522141
6.01678e-12
0.0112195
0.00539888
3.67922e-12
0.00973597
0.00593955
-3.07119e-12
0.00804267
0.00657838
-1.33552e-11
0.00620772
0.00714448
-1.97473e-11
0.00423562
0.00767723
-2.69891e-11
0.00214341
0.00805304
-2.7174e-11
0.00822623
-3.07293e-11
0.0168001
5.71141e-10
-1.40447e-17
0.0168001
3.12966e-09
-5.76677e-17
0.0168001
1.16131e-08
-1.17233e-16
0.0168
2.98665e-08
-2.23871e-16
0.0168
8.18073e-08
-1.8269e-16
0.0168
1.87277e-07
-2.6685e-16
0.0167998
4.85499e-07
-4.85486e-17
0.0167995
1.08138e-06
1.77518e-16
0.0167986
2.8183e-06
7.01854e-15
0.0167969
6.27797e-06
1.63696e-14
0.0167921
1.68991e-05
7.91316e-14
0.0167812
4.08887e-05
2.2681e-13
0.0167557
0.000126159
8.5256e-13
0.0166787
0.000354491
2.77168e-12
0.0164387
0.00154428
1.01034e-11
0.0152698
0.00591736
2.02069e-11
0.013839
0.00670712
1.09329e-11
0.0126637
0.00639523
4.31793e-12
0.0114197
0.00664439
2.1928e-12
0.00995965
0.00738765
-3.95222e-12
0.00828376
0.00820348
-1.49368e-11
0.00644352
0.00893291
-2.0778e-11
0.00445609