/*--------------------------------*- C++ -*----------------------------------*\
| =========                 |                                                 |
| \\      /  F ield         | OpenFOAM: The Open Source CFD Toolbox           |
|  \\    /   O peration     | Version:  4.1                                   |
|   \\  /    A nd           | Web:      www.OpenFOAM.org                      |
|    \\/     M anipulation  |                                                 |
\*---------------------------------------------------------------------------*/
FoamFile
{
    version     2.0;
    format      ascii;
    class       volVectorField;
    location    "1.58";
    object      U;
}
// * * * * * * * * * * * * * * * * * * * * * * * * * * * * * * * * * * * * * //

dimensions      [0 1 -1 0 0 0 0];

internalField   nonuniform List<vector> 
52500
(
(3 7.52602e-09 -0.00571425)
(2.99999 4.17546e-08 -0.00571435)
(2.99997 1.54964e-07 -0.0057145)
(2.99992 3.98229e-07 -0.00571496)
(2.99983 1.09292e-06 -0.00571581)
(2.99955 2.50011e-06 -0.00571841)
(2.999 6.49889e-06 -0.00572335)
(2.99737 1.44107e-05 -0.0057378)
(2.99422 3.79083e-05 -0.00576801)
(2.98414 8.18169e-05 -0.00584394)
(2.96491 0.000233577 -0.00605242)
(2.89817 0.000499839 -0.00645351)
(2.727 0.00160569 -0.0079242)
(2.27197 0.00398499 -0.0114949)
(1.07434 0.0118449 -0.0164995)
(0.396334 0.0204107 -0.0185186)
(0.549287 0.0234925 -0.0185134)
(0.604638 0.0256796 -0.0185099)
(0.554917 0.0279408 -0.018734)
(0.462637 0.0305301 -0.0189223)
(0.368998 0.0339429 -0.0191801)
(0.291136 0.0380324 -0.0194898)
(0.212776 0.0417581 -0.0196786)
(0.12844 0.0445127 -0.019878)
(0.048725 0.0476872 -0.0200199)
(3 2.29135e-08 -0.00571425)
(2.99999 1.26795e-07 -0.00571435)
(2.99997 4.71622e-07 -0.00571449)
(2.99992 1.21047e-06 -0.00571495)
(2.99983 3.33169e-06 -0.00571579)
(2.99955 7.61966e-06 -0.00571836)
(2.99901 1.98842e-05 -0.00572325)
(2.9974 4.41808e-05 -0.00573757)
(2.99428 0.000116356 -0.00576744)
(2.9843 0.000254091 -0.00584271)
(2.96527 0.000708595 -0.00604856)
(2.89925 0.00158478 -0.00644648)
(2.73016 0.00489898 -0.00789755)
(2.2798 0.0121019 -0.0114347)
(1.08696 0.0359759 -0.0164034)
(0.406514 0.0605771 -0.0184331)
(0.551602 0.0677775 -0.0184259)
(0.604921 0.0712621 -0.0184199)
(0.554488 0.0746974 -0.0186368)
(0.46212 0.0790368 -0.0188164)
(0.368625 0.0849379 -0.019064)
(0.290525 0.0915405 -0.0193607)
(0.211776 0.0967888 -0.0195363)
(0.126882 0.0999196 -0.0197242)
(0.0464035 0.101405 -0.019858)
(3 3.87017e-08 -0.00571425)
(2.99999 2.13939e-07 -0.00571434)
(2.99997 7.96065e-07 -0.00571449)
(2.99993 2.04217e-06 -0.00571493)
(2.99983 5.62252e-06 -0.00571576)
(2.99956 1.2855e-05 -0.00571828)
(2.99903 3.35571e-05 -0.00572306)
(2.99745 7.46083e-05 -0.00573708)
(2.9944 0.000196195 -0.00576629)
(2.98463 0.000430652 -0.00584)
(2.96604 0.00118447 -0.00604136)
(2.90148 0.0027005 -0.00642932)
(2.73652 0.00817886 -0.00785007)
(2.29618 0.0200918 -0.0112826)
(1.1147 0.0600482 -0.0163057)
(0.426813 0.102788 -0.0183333)
(0.556725 0.115689 -0.018319)
(0.606712 0.120585 -0.0183166)
(0.556503 0.126105 -0.0185252)
(0.465451 0.134621 -0.0186941)
(0.373017 0.145538 -0.018929)
(0.29472 0.156948 -0.0192141)
(0.215103 0.166217 -0.0193835)
(0.128953 0.171996 -0.0195648)
(0.0467661 0.173883 -0.0196876)
(3 5.49898e-08 -0.00571425)
(2.99999 3.04019e-07 -0.00571434)
(2.99997 1.12973e-06 -0.00571448)
(2.99993 2.89828e-06 -0.00571491)
(2.99984 7.96177e-06 -0.00571571)
(2.99958 1.81951e-05 -0.00571815)
(2.99906 4.73362e-05 -0.00572278)
(2.99753 0.000105169 -0.00573635)
(2.99458 0.000275179 -0.00576459)
(2.98512 0.00060344 -0.00583598)
(2.96719 0.00164926 -0.00603078)
(2.90479 0.00374162 -0.00640415)
(2.74586 0.0112536 -0.00778122)
(2.32028 0.0275019 -0.0110622)
(1.15708 0.0819579 -0.0161811)
(0.458117 0.14451 -0.0182164)
(0.564554 0.164491 -0.018195)
(0.60913 0.16923 -0.0182053)
(0.560873 0.176336 -0.0184021)
(0.473038 0.190165 -0.0185508)
(0.38216 0.206686 -0.0187676)
(0.303666 0.223233 -0.019045)
(0.222876 0.237281 -0.0191982)
(0.134382 0.246799 -0.019378)
(0.049087 0.249838 -0.0195061)
(3 7.35551e-08 -0.00571425)
(2.99999 4.067e-07 -0.00571433)
(2.99997 1.50887e-06 -0.00571447)
(2.99993 3.87007e-06 -0.00571488)
(2.99984 1.06046e-05 -0.00571564)
(2.9996 2.42084e-05 -0.00571797)
(2.9991 6.27573e-05 -0.00572239)
(2.99764 0.000139178 -0.00573538)
(2.99481 0.00036203 -0.00576234)
(2.98577 0.000795197 -0.00583069)
(2.96869 0.0021188 -0.00601696)
(2.90909 0.00494379 -0.00637166)
(2.75789 0.0140702 -0.00769266)
(2.35119 0.0352448 -0.0107832)
(1.21316 0.102051 -0.0160187)
(0.500204 0.187235 -0.0180826)
(0.573873 0.215901 -0.0180665)
(0.610284 0.216867 -0.0180872)
(0.567247 0.224385 -0.0182525)
(0.484875 0.244283 -0.0183753)
(0.395484 0.266924 -0.0185708)
(0.316752 0.289035 -0.0188351)
(0.234854 0.308593 -0.0189933)
(0.143354 0.323007 -0.0191446)
(0.053509 0.328295 -0.0192679)
(3 9.79835e-08 -0.00571425)
(2.99999 5.4027e-07 -0.00571433)
(2.99998 2.01176e-06 -0.00571445)
(2.99994 5.16266e-06 -0.00571484)
(2.99985 1.42334e-05 -0.00571556)
(2.99962 3.26078e-05 -0.00571775)
(2.99915 8.47466e-05 -0.0057219)
(2.99778 0.000191592 -0.00573416)
(2.99512 0.000474273 -0.00575945)
(2.98657 0.00116503 -0.00582393)
(2.97069 0.00257941 -0.00600026)
(2.91428 0.00670636 -0.00632785)
(2.77292 0.0168767 -0.00759571)
(2.38854 0.0428553 -0.0104088)
(1.28311 0.12153 -0.0157735)
(0.556765 0.234746 -0.017915)
(0.584581 0.263515 -0.0178821)
(0.607906 0.263278 -0.017944)
(0.575738 0.272979 -0.0181051)
(0.501395 0.297576 -0.0182082)
(0.413347 0.327387 -0.0183737)
(0.334514 0.356086 -0.0186207)
(0.251897 0.382764 -0.0187558)
(0.156596 0.404435 -0.0189072)
(0.0604285 0.414561 -0.0190255)
(3 1.1833e-07 -0.00571425)
(2.99999 6.51336e-07 -0.00571432)
(2.99998 2.42835e-06 -0.00571443)
(2.99994 6.24867e-06 -0.00571479)
(2.99987 1.72611e-05 -0.00571544)
(2.99965 3.97846e-05 -0.00571743)
(2.99923 0.000102591 -0.0057212)
(2.99796 0.000239197 -0.00573222)
(2.99563 0.00055933 -0.00575593)
(2.98751 0.00145621 -0.00581077)
(2.97337 0.00295387 -0.00598607)
(2.92051 0.00789662 -0.00626304)
(2.78968 0.0187376 -0.00750714)
(2.43222 0.0505012 -0.00989493)
(1.37246 0.138176 -0.0154561)
(0.624879 0.286487 -0.0176952)
(0.593367 0.305628 -0.0177739)
(0.608934 0.308867 -0.0178266)
(0.586694 0.324376 -0.0179386)
(0.521866 0.351212 -0.0180425)
(0.436881 0.387697 -0.0181668)
(0.358341 0.424461 -0.0183751)
(0.276125 0.460522 -0.018479)
(0.177123 0.493293 -0.018582)
(0.0719406 0.51371 -0.0186766)
(3 1.22272e-07 -0.00571424)
(2.99999 6.71312e-07 -0.00571431)
(2.99998 2.49603e-06 -0.00571441)
(2.99995 6.42228e-06 -0.00571473)
(2.99988 1.76903e-05 -0.00571531)
(2.99969 4.07794e-05 -0.00571707)
(2.99932 0.000104823 -0.00572048)
(2.99816 0.000243771 -0.00572988)
(2.99614 0.0005827 -0.00575232)
(2.98856 0.00141098 -0.00579806)
(2.97613 0.00327553 -0.00596817)
(2.92688 0.00795401 -0.00620476)
(2.81039 0.0204226 -0.00740225)
(2.481 0.0569371 -0.00941299)
(1.47267 0.154658 -0.0150211)
(0.701039 0.341441 -0.0173762)
(0.59687 0.349073 -0.017657)
(0.613905 0.353062 -0.0177058)
(0.600475 0.375112 -0.0177469)
(0.544614 0.40454 -0.0178425)
(0.466655 0.446824 -0.0179298)
(0.390738 0.493523 -0.0180883)
(0.310708 0.542153 -0.0181573)
(0.209383 0.591906 -0.0182006)
(0.0917686 0.634436 -0.0182702)
(3 1.25543e-07 -0.00571424)
(2.99999 6.81748e-07 -0.0057143)
(2.99998 2.52562e-06 -0.00571439)
(2.99995 6.4848e-06 -0.00571467)
(2.9999 1.78104e-05 -0.00571518)
(2.99973 4.09725e-05 -0.00571673)
(2.9994 0.000105811 -0.00571978)
(2.99836 0.000240895 -0.00572787)
(2.9966 0.000606692 -0.00574838)
(2.98974 0.00135323 -0.00578734)
(2.97889 0.00367559 -0.00594381)
(2.93413 0.00794426 -0.00614755)
(2.83337 0.0235739 -0.00725648)
(2.53578 0.0594652 -0.00892349)
(1.60141 0.175626 -0.0143925)
(0.797876 0.400038 -0.0169515)
(0.601458 0.395283 -0.0175293)
(0.624617 0.39538 -0.0175598)
(0.620917 0.422112 -0.0175709)
(0.572913 0.455837 -0.0176309)
(0.504699 0.504724 -0.0176855)
(0.434831 0.562258 -0.0178032)
(0.360886 0.626318 -0.0177938)
(0.263622 0.70313 -0.0177467)
(0.129313 0.792138 -0.017596)
(3 1.94298e-07 -0.00571424)
(2.99999 2.71723e-07 -0.00571429)
(2.99999 2.74022e-06 -0.00571437)
(2.99996 3.67971e-06 -0.00571461)
(2.99991 1.82944e-05 -0.00571505)
(2.99976 2.33786e-05 -0.00571636)
(2.99949 0.000110093 -0.00571904)
(2.99858 0.000119857 -0.0057257)
(2.99707 0.000714699 -0.00574418)
(2.99109 0.000441697 -0.00577651)
(2.98168 0.00523408 -0.00591493)
(2.94266 0.00215795 -0.00608911)
(2.85652 0.0354788 -0.00706058)
(2.59707 0.041224 -0.00849069)
(1.77435 0.205353 -0.0134793)
(0.920929 0.45647 -0.0163751)
(0.616578 0.442818 -0.0173528)
(0.646836 0.438227 -0.0173967)
(0.653046 0.464918 -0.0173507)
(0.611862 0.504383 -0.0173701)
(0.554219 0.558835 -0.017362)
(0.493708 0.626815 -0.0173816)
(0.434393 0.712566 -0.0172945)
(0.358089 0.835796 -0.0170752)
(0.201269 1.04581 -0.0166104)
(3 7.67382e-09 -2.42806e-09)
(2.99999 4.17976e-08 -8.62042e-09)
(2.99997 1.55092e-07 -1.00854e-08)
(2.99992 3.98324e-07 -1.57475e-08)
(2.99982 1.09308e-06 -1.59147e-08)
(2.99955 2.50031e-06 -2.07493e-08)
(2.99899 6.49919e-06 -2.02838e-08)
(2.99737 1.44113e-05 -2.53903e-08)
(2.99422 3.79093e-05 -2.53927e-08)
(2.98414 8.18174e-05 -3.49501e-08)
(2.96491 0.000233593 -2.93573e-08)
(2.89816 0.00049981 -8.8533e-08)
(2.727 0.00160581 -2.34456e-08)
(2.27195 0.00398531 -1.84947e-07)
(1.07434 0.011846 -1.57598e-07)
(0.396329 0.0204119 -7.89701e-08)
(0.549297 0.0234928 -2.71667e-08)
(0.604651 0.0256794 -2.82453e-08)
(0.55493 0.0279401 -4.40861e-08)
(0.462643 0.030529 -7.99647e-08)
(0.369002 0.033941 -1.28565e-07)
(0.291145 0.0380305 -1.53972e-07)
(0.212788 0.0417581 -1.80335e-07)
(0.128448 0.0445159 -2.01681e-07)
(0.0487275 0.0476913 -2.10905e-07)
(3 2.33244e-08 -2.42514e-09)
(2.99999 1.26995e-07 -8.62204e-09)
(2.99997 4.71943e-07 -1.00842e-08)
(2.99992 1.21076e-06 -1.57479e-08)
(2.99983 3.33211e-06 -1.59136e-08)
(2.99955 7.62028e-06 -2.07481e-08)
(2.999 1.98853e-05 -2.0282e-08)
(2.99739 4.41835e-05 -2.53845e-08)
(2.99428 0.000116362 -2.53877e-08)
(2.9843 0.000254103 -3.496e-08)
(2.96526 0.000708636 -2.90854e-08)
(2.89924 0.00158484 -8.94605e-08)
(2.73015 0.00489927 -2.1038e-08)
(2.27978 0.0121029 -1.81927e-07)
(1.08695 0.0359785 -1.49524e-07)
(0.406511 0.0605795 -7.91306e-08)
(0.551613 0.0677779 -3.02338e-08)
(0.604936 0.0712615 -3.00898e-08)
(0.554502 0.0746962 -4.51981e-08)
(0.462128 0.079035 -8.02647e-08)
(0.368631 0.0849348 -1.30039e-07)
(0.290535 0.0915377 -1.55132e-07)
(0.211788 0.0967888 -1.81336e-07)
(0.126889 0.0999242 -2.03224e-07)
(0.0464066 0.101412 -2.13119e-07)
(3 3.9347e-08 -2.41985e-09)
(2.99999 2.14287e-07 -8.62323e-09)
(2.99997 7.96478e-07 -1.00839e-08)
(2.99992 2.0425e-06 -1.57476e-08)
(2.99983 5.6229e-06 -1.59115e-08)
(2.99956 1.28554e-05 -2.07439e-08)
(2.99902 3.35579e-05 -2.02717e-08)
(2.99745 7.46109e-05 -2.53561e-08)
(2.9944 0.0001962 -2.53343e-08)
(2.98463 0.00043067 -3.48137e-08)
(2.96603 0.00118451 -2.88e-08)
(2.90148 0.00270068 -8.8392e-08)
(2.73651 0.00817918 -1.93055e-08)
(2.29616 0.0200932 -1.73778e-07)
(1.1147 0.0600512 -1.41016e-07)
(0.426812 0.10279 -8.00862e-08)
(0.556735 0.115689 -3.62709e-08)
(0.606728 0.120584 -3.44481e-08)
(0.556518 0.126103 -4.86594e-08)
(0.465461 0.134617 -8.34643e-08)
(0.373025 0.145532 -1.34873e-07)
(0.294731 0.156944 -1.60474e-07)
(0.215116 0.166218 -1.85198e-07)
(0.12896 0.172003 -2.06006e-07)
(0.0467693 0.173895 -2.16378e-07)
(3 5.58578e-08 -2.41218e-09)
(2.99999 3.04389e-07 -8.62566e-09)
(2.99997 1.13007e-06 -1.00841e-08)
(2.99993 2.89826e-06 -1.57489e-08)
(2.99984 7.9613e-06 -1.59114e-08)
(2.99957 1.81937e-05 -2.07435e-08)
(2.99906 4.7333e-05 -2.02687e-08)
(2.99753 0.000105164 -2.53367e-08)
(2.99457 0.000275168 -2.53053e-08)
(2.98512 0.000603427 -3.46666e-08)
(2.96718 0.00164924 -2.86239e-08)
(2.90478 0.00374175 -8.6823e-08)
(2.74585 0.0112537 -1.75984e-08)
(2.32026 0.0275031 -1.65536e-07)
(1.15707 0.081961 -1.33892e-07)
(0.458116 0.144512 -8.3516e-08)
(0.564565 0.16449 -4.38207e-08)
(0.609146 0.169227 -4.10047e-08)
(0.560891 0.176332 -5.47974e-08)
(0.473049 0.190159 -9.052e-08)
(0.382169 0.206678 -1.38412e-07)
(0.303679 0.223228 -1.6642e-07)
(0.222889 0.237283 -1.89129e-07)
(0.13439 0.246811 -2.08309e-07)
(0.0490903 0.249856 -2.19407e-07)
(3 7.458e-08 -2.4025e-09)
(2.99999 4.06989e-07 -8.62997e-09)
(2.99997 1.50871e-06 -1.00865e-08)
(2.99993 3.86889e-06 -1.57544e-08)
(2.99984 1.06014e-05 -1.59201e-08)
(2.99959 2.42015e-05 -2.076e-08)
(2.9991 6.27413e-05 -2.03065e-08)
(2.99764 0.000139147 -2.5398e-08)
(2.99481 0.000361964 -2.5452e-08)
(2.98576 0.000795059 -3.48899e-08)
(2.96869 0.00211864 -2.90616e-08)
(2.90909 0.00494327 -8.59835e-08)
(2.75788 0.0140702 -1.71951e-08)
(2.35118 0.0352445 -1.57688e-07)
(1.21316 0.102054 -1.2391e-07)
(0.500204 0.187236 -8.91708e-08)
(0.573884 0.215897 -5.29773e-08)
(0.610302 0.216863 -4.60533e-08)
(0.567266 0.224379 -5.88275e-08)
(0.48489 0.244275 -9.30807e-08)
(0.395496 0.266915 -1.46475e-07)
(0.316768 0.289029 -1.737e-07)
(0.234869 0.308597 -1.93991e-07)
(0.143363 0.323022 -2.10631e-07)
(0.0535125 0.328318 -2.21719e-07)
(3 9.93338e-08 -2.39181e-09)
(2.99999 5.40073e-07 -8.63628e-09)
(2.99998 2.01036e-06 -1.0096e-08)
(2.99993 5.15763e-06 -1.57694e-08)
(2.99985 1.42198e-05 -1.59525e-08)
(2.99962 3.25748e-05 -2.08179e-08)
(2.99915 8.46712e-05 -2.04464e-08)
(2.99778 0.000191365 -2.56368e-08)
(2.99512 0.000474067 -2.59992e-08)
(2.98657 0.00116346 -3.60947e-08)
(2.97069 0.00257959 -2.91909e-08)
(2.91428 0.00670378 -9.3817e-08)
(2.77291 0.0168782 -6.51297e-09)
(2.38853 0.042856 -1.74782e-07)
(1.28311 0.121535 -9.99868e-08)
(0.556763 0.234746 -1.00211e-07)
(0.584596 0.263512 -6.43393e-08)
(0.607929 0.263271 -4.32047e-08)
(0.575763 0.272968 -5.98081e-08)
(0.501414 0.297564 -9.20588e-08)
(0.413364 0.327376 -1.46348e-07)
(0.334533 0.35608 -1.7353e-07)
(0.251913 0.382769 -1.94467e-07)
(0.156605 0.404455 -2.10589e-07)
(0.0604318 0.41459 -2.22073e-07)
(3 1.19971e-07 -2.37589e-09)
(2.99999 6.49678e-07 -8.65475e-09)
(2.99998 2.42612e-06 -1.01153e-08)
(2.99994 6.23977e-06 -1.58271e-08)
(2.99987 1.72404e-05 -1.60926e-08)
(2.99965 3.97344e-05 -2.11511e-08)
(2.99923 0.000102481 -2.11507e-08)
(2.99796 0.000238874 -2.83977e-08)
(2.99562 0.000558995 -2.5242e-08)
(2.98751 0.00145432 -6.13577e-08)
(2.97337 0.00295365 4.23982e-10)
(2.9205 0.00789358 -1.32279e-07)
(2.78967 0.0187386 4.53534e-08)
(2.43221 0.050501 -1.60267e-07)
(1.37247 0.138179 -7.22123e-08)
(0.624892 0.286481 -1.16513e-07)
(0.593394 0.305622 -5.46163e-08)
(0.608966 0.308858 -4.82361e-08)
(0.586726 0.324362 -7.02282e-08)
(0.521894 0.351197 -8.99537e-08)
(0.436904 0.387685 -1.38077e-07)
(0.358363 0.424456 -1.71818e-07)
(0.276143 0.460531 -1.92293e-07)
(0.177133 0.493318 -2.07056e-07)
(0.0719433 0.513746 -2.16983e-07)
(3 1.23507e-07 -2.35876e-09)
(2.99999 6.69626e-07 -8.69294e-09)
(2.99998 2.49566e-06 -1.01165e-08)
(2.99995 6.41998e-06 -1.58945e-08)
(2.99988 1.76909e-05 -1.61853e-08)
(2.99969 4.07845e-05 -2.1386e-08)
(2.99932 0.000104843 -2.1605e-08)
(2.99816 0.000243888 -2.97031e-08)
(2.99614 0.000582734 -2.64221e-08)
(2.98855 0.00141218 -6.55643e-08)
(2.97612 0.00327434 -6.8593e-10)
(2.92688 0.00795663 -1.41549e-07)
(2.81038 0.0204175 6.0533e-08)
(2.48099 0.0569325 -1.83846e-07)
(1.47269 0.154646 -3.75479e-08)
(0.701054 0.341423 -1.34194e-07)
(0.596903 0.349062 -3.90936e-08)
(0.613939 0.353053 -4.01139e-08)
(0.600509 0.3751 -6.59842e-08)
(0.544645 0.404527 -8.10721e-08)
(0.466681 0.446813 -1.30757e-07)
(0.390761 0.493519 -1.50303e-07)
(0.310725 0.542165 -1.77131e-07)
(0.209392 0.591935 -1.96808e-07)
(0.0917699 0.634477 -2.03776e-07)
(3 1.23578e-07 -2.35028e-09)
(2.99999 6.79045e-07 -8.70466e-09)
(2.99998 2.51837e-06 -1.00984e-08)
(2.99995 6.46619e-06 -1.5859e-08)
(2.99989 1.78041e-05 -1.60425e-08)
(2.99972 4.09646e-05 -2.10565e-08)
(2.9994 0.000105843 -2.08667e-08)
(2.99836 0.000241072 -2.65006e-08)
(2.9966 0.000606859 -2.67267e-08)
(2.98973 0.00135478 -3.88831e-08)
(2.97888 0.00367479 -4.12923e-08)
(2.93413 0.00794779 -6.83826e-08)
(2.83336 0.0235686 -6.06183e-08)
(2.53576 0.0594618 -1.65065e-07)
(1.6014 0.175609 -1.05958e-07)
(0.797868 0.400012 -1.64195e-07)
(0.601482 0.395267 4.3016e-09)
(0.624643 0.395369 -1.09532e-08)
(0.620944 0.422101 -5.12651e-08)
(0.57294 0.455823 -6.98111e-08)
(0.504722 0.504713 -1.18566e-07)
(0.434853 0.562257 -1.3754e-07)
(0.360899 0.626334 -1.53611e-07)
(0.263626 0.703162 -1.85724e-07)
(0.129313 0.792184 -1.85315e-07)
(3 1.8113e-07 -2.39748e-09)
(2.99999 3.35405e-07 -8.70666e-09)
(2.99998 2.64524e-06 -1.02014e-08)
(2.99996 3.72856e-06 -1.61226e-08)
(2.99991 1.81866e-05 -1.59845e-08)
(2.99976 2.34288e-05 -2.13972e-08)
(2.99948 0.000109998 -2.09073e-08)
(2.99857 0.000119956 -2.6975e-08)
(2.99707 0.000714597 -2.65858e-08)
(2.99109 0.000442089 -3.96175e-08)
(2.98168 0.00523388 -4.24583e-08)
(2.94266 0.00215857 -6.80586e-08)
(2.8565 0.0354763 -7.13462e-08)
(2.59705 0.0412264 -1.67363e-07)
(1.77432 0.205338 -1.68132e-07)
(0.920908 0.456444 -2.35649e-07)
(0.616594 0.442798 4.1054e-08)
(0.646852 0.438212 1.69292e-08)
(0.65306 0.464905 -3.61093e-08)
(0.611879 0.504369 -5.95191e-08)
(0.554236 0.558827 -9.14709e-08)
(0.493723 0.626816 -1.06978e-07)
(0.434401 0.712583 -1.42006e-07)
(0.358089 0.835831 -1.77202e-07)
(0.201266 1.04586 -1.64251e-07)
(3 7.67381e-09 -2.9363e-13)
(2.99999 4.17976e-08 -1.64904e-12)
(2.99997 1.55092e-07 -3.18216e-12)
(2.99992 3.98324e-07 -6.50419e-12)
(2.99982 1.09308e-06 -9.3762e-12)
(2.99955 2.50031e-06 -1.58399e-11)
(2.99899 6.49919e-06 -2.06585e-11)
(2.99737 1.44113e-05 -3.31247e-11)
(2.99422 3.79093e-05 -4.59728e-11)
(2.98414 8.18174e-05 -6.86522e-11)
(2.96491 0.000233593 -1.45664e-10)
(2.89816 0.000499811 -8.90361e-11)
(2.727 0.00160581 -5.17737e-10)
(2.27195 0.00398531 -6.24547e-10)
(1.07434 0.011846 -6.27146e-10)
(0.39633 0.0204119 6.51725e-10)
(0.549297 0.0234928 9.86578e-10)
(0.604651 0.0256794 3.66522e-10)
(0.55493 0.02794 -2.931e-10)
(0.462643 0.0305289 -1.76077e-09)
(0.369002 0.0339409 -3.64778e-09)
(0.291146 0.0380304 -4.49694e-09)
(0.212789 0.0417582 -5.07188e-09)
(0.128448 0.0445161 -6.90475e-09)
(0.0487301 0.0476913 -6.75555e-09)
(3 2.33244e-08 -2.93774e-13)
(2.99999 1.26995e-07 -1.64951e-12)
(2.99997 4.71942e-07 -3.18523e-12)
(2.99992 1.21076e-06 -6.51012e-12)
(2.99983 3.33211e-06 -9.40338e-12)
(2.99955 7.62028e-06 -1.5897e-11)
(2.999 1.98853e-05 -2.08705e-11)
(2.99739 4.41835e-05 -3.36661e-11)
(2.99428 0.000116362 -4.69939e-11)
(2.9843 0.000254103 -7.44158e-11)
(2.96526 0.000708636 -1.32485e-10)
(2.89924 0.00158484 -1.67641e-10)
(2.73015 0.00489927 -4.02995e-10)
(2.27978 0.0121029 -5.91759e-10)
(1.08695 0.0359785 -4.2097e-10)
(0.406512 0.0605795 6.32023e-10)
(0.551613 0.0677779 8.18429e-10)
(0.604936 0.0712614 2.31854e-10)
(0.554502 0.0746961 -3.9747e-10)
(0.462128 0.0790348 -1.84038e-09)
(0.368631 0.0849347 -3.77797e-09)
(0.290536 0.0915375 -4.61736e-09)
(0.211788 0.0967888 -5.19213e-09)
(0.12689 0.0999245 -7.13595e-09)
(0.0464093 0.101413 -6.67504e-09)
(3 3.9347e-08 -2.93757e-13)
(2.99999 2.14287e-07 -1.64917e-12)
(2.99997 7.96477e-07 -3.18452e-12)
(2.99992 2.0425e-06 -6.50797e-12)
(2.99983 5.6229e-06 -9.39004e-12)
(2.99956 1.28554e-05 -1.58668e-11)
(2.99902 3.35579e-05 -2.07427e-11)
(2.99745 7.46108e-05 -3.34041e-11)
(2.9944 0.0001962 -4.6024e-11)
(2.98463 0.00043067 -7.28926e-11)
(2.96603 0.00118451 -1.24281e-10)
(2.90148 0.00270068 -1.63608e-10)
(2.73651 0.00817918 -3.54156e-10)
(2.29616 0.0200932 -4.62952e-10)
(1.1147 0.0600512 -2.81045e-10)
(0.426813 0.10279 5.62775e-10)
(0.556736 0.115689 5.23532e-10)
(0.606728 0.120584 -4.5103e-11)
(0.556519 0.126103 -6.51048e-10)
(0.465461 0.134617 -2.11327e-09)
(0.373025 0.145532 -4.10628e-09)
(0.294732 0.156944 -4.9591e-09)
(0.215116 0.166218 -5.44278e-09)
(0.128961 0.172004 -7.37693e-09)
(0.046772 0.173895 -6.70308e-09)
(3 5.58578e-08 -2.94117e-13)
(2.99999 3.04389e-07 -1.65039e-12)
(2.99997 1.13007e-06 -3.18894e-12)
(2.99993 2.89826e-06 -6.51678e-12)
(2.99984 7.9613e-06 -9.40143e-12)
(2.99957 1.81937e-05 -1.58846e-11)
(2.99906 4.7333e-05 -2.07083e-11)
(2.99753 0.000105164 -3.32825e-11)
(2.99457 0.000275168 -4.5367e-11)
(2.98512 0.000603427 -7.09015e-11)
(2.96718 0.00164924 -1.18984e-10)
(2.90478 0.00374175 -1.48496e-10)
(2.74585 0.0112537 -3.1555e-10)
(2.32026 0.0275031 -3.92672e-10)
(1.15708 0.0819609 -2.75252e-10)
(0.458117 0.144512 4.07188e-10)
(0.564565 0.16449 2.18869e-10)
(0.609147 0.169227 -4.15071e-10)
(0.560891 0.176331 -1.02912e-09)
(0.473049 0.190159 -2.56115e-09)
(0.382169 0.206678 -4.38554e-09)
(0.303679 0.223227 -5.36748e-09)
(0.222889 0.237283 -5.68433e-09)
(0.134391 0.246811 -7.28141e-09)
(0.0490929 0.249856 -7.16427e-09)
(3 7.45799e-08 -2.94786e-13)
(2.99999 4.06989e-07 -1.65263e-12)
(2.99997 1.5087e-06 -3.1982e-12)
(2.99993 3.86888e-06 -6.53543e-12)
(2.99984 1.06014e-05 -9.44714e-12)
(2.99959 2.42015e-05 -1.59759e-11)
(2.9991 6.27413e-05 -2.08995e-11)
(2.99764 0.000139147 -3.37011e-11)
(2.99481 0.000361964 -4.59839e-11)
(2.98576 0.000795059 -7.29188e-11)
(2.96869 0.00211863 -1.18499e-10)
(2.90909 0.00494327 -1.58428e-10)
(2.75788 0.0140702 -3.04152e-10)
(2.35118 0.0352445 -3.951e-10)
(1.21316 0.102054 -3.22597e-10)
(0.500204 0.187236 2.37181e-10)
(0.573885 0.215897 -2.87987e-11)
(0.610302 0.216863 -7.37839e-10)
(0.567266 0.224379 -1.31357e-09)
(0.48489 0.244275 -2.78913e-09)
(0.395496 0.266915 -4.7769e-09)
(0.316768 0.289029 -5.71802e-09)
(0.234869 0.308597 -5.91178e-09)
(0.143364 0.323022 -7.29779e-09)
(0.0535151 0.328319 -7.45118e-09)
(3 9.93337e-08 -2.97292e-13)
(2.99999 5.40072e-07 -1.66273e-12)
(2.99998 2.01036e-06 -3.23374e-12)
(2.99993 5.15763e-06 -6.60934e-12)
(2.99985 1.42198e-05 -9.64488e-12)
(2.99962 3.25747e-05 -1.63664e-11)
(2.99915 8.46712e-05 -2.18994e-11)
(2.99778 0.000191365 -3.5611e-11)
(2.99512 0.000474067 -5.06638e-11)
(2.98657 0.00116346 -8.30391e-11)
(2.97069 0.00257959 -1.24235e-10)
(2.91428 0.00670378 -2.51812e-10)
(2.77291 0.0168782 -2.4276e-10)
(2.38853 0.042856 -5.97408e-10)
(1.28311 0.121535 -4.12917e-10)
(0.556764 0.234746 6.99817e-11)
(0.584596 0.263512 -8.37151e-11)
(0.607929 0.263271 -7.90483e-10)
(0.575764 0.272968 -1.48264e-09)
(0.501414 0.297563 -2.84694e-09)
(0.413364 0.327375 -4.89759e-09)
(0.334534 0.35608 -5.89035e-09)
(0.251914 0.382769 -6.12613e-09)
(0.156606 0.404455 -7.29618e-09)
(0.0604342 0.414591 -7.59407e-09)
(3 1.19971e-07 -2.99933e-13)
(2.99999 6.49677e-07 -1.67186e-12)
(2.99998 2.42611e-06 -3.27566e-12)
(2.99994 6.23976e-06 -6.70315e-12)
(2.99987 1.72404e-05 -9.95052e-12)
(2.99965 3.97344e-05 -1.70677e-11)
(2.99923 0.000102481 -2.3648e-11)
(2.99796 0.000238874 -4.11793e-11)
(2.99562 0.000558994 -5.38242e-11)
(2.98751 0.00145432 -1.30601e-10)
(2.97337 0.00295364 -9.59098e-11)
(2.9205 0.00789358 -3.62626e-10)
(2.78967 0.0187386 -2.34776e-10)
(2.43221 0.050501 -6.65712e-10)
(1.37247 0.138179 -5.96655e-10)
(0.624892 0.286481 5.05237e-11)
(0.593394 0.305622 -7.03413e-12)
(0.608966 0.308858 -4.64704e-10)
(0.586726 0.324362 -1.86171e-09)
(0.521894 0.351197 -2.71063e-09)
(0.436904 0.387685 -4.6307e-09)
(0.358363 0.424456 -5.88244e-09)
(0.276143 0.460531 -6.18879e-09)
(0.177133 0.493319 -7.29845e-09)
(0.0719456 0.513747 -7.41971e-09)
(3 1.23506e-07 -3.0245e-13)
(2.99999 6.69624e-07 -1.68599e-12)
(2.99998 2.49565e-06 -3.30595e-12)
(2.99995 6.41997e-06 -6.76549e-12)
(2.99988 1.76908e-05 -1.00197e-11)
(2.99969 4.07844e-05 -1.70835e-11)
(2.99932 0.000104843 -2.37222e-11)
(2.99816 0.000243888 -3.76405e-11)
(2.99614 0.000582733 -6.11205e-11)
(2.98855 0.00141218 -8.6934e-11)
(2.97612 0.00327434 -1.82113e-10)
(2.92688 0.00795662 -2.56561e-10)
(2.81038 0.0204175 -4.71835e-10)
(2.48099 0.0569325 -8.4037e-10)
(1.47269 0.154646 -7.92373e-10)
(0.701055 0.341423 -1.3759e-11)
(0.596903 0.349062 3.68225e-10)
(0.613939 0.353052 -1.86096e-10)
(0.600509 0.375099 -1.81977e-09)
(0.544646 0.404526 -2.4779e-09)
(0.466681 0.446812 -4.55505e-09)
(0.390761 0.493519 -5.05128e-09)
(0.310726 0.542165 -5.73996e-09)
(0.209392 0.591936 -7.05403e-09)
(0.091772 0.634479 -6.83719e-09)
(3 1.23577e-07 -3.03198e-13)
(2.99999 6.79043e-07 -1.68873e-12)
(2.99998 2.51836e-06 -3.32033e-12)
(2.99995 6.46617e-06 -6.80201e-12)
(2.99989 1.78041e-05 -1.01469e-11)
(2.99972 4.09645e-05 -1.74245e-11)
(2.9994 0.000105842 -2.46383e-11)
(2.99836 0.000241071 -4.05458e-11)
(2.9966 0.000606858 -6.43219e-11)
(2.98973 0.00135477 -1.0716e-10)
(2.97888 0.00367478 -1.94829e-10)
(2.93413 0.00794777 -3.12774e-10)
(2.83336 0.0235685 -5.74213e-10)
(2.53576 0.0594617 -8.93267e-10)
(1.6014 0.175608 -1.38996e-09)
(0.797869 0.400011 -2.23733e-10)
(0.601483 0.395266 1.11772e-09)
(0.624643 0.395369 3.18533e-10)
(0.620944 0.4221 -1.50612e-09)
(0.57294 0.455822 -2.22906e-09)
(0.504723 0.504713 -4.11488e-09)
(0.434853 0.562256 -4.80227e-09)
(0.360899 0.626334 -5.21365e-09)
(0.263626 0.703163 -6.34858e-09)
(0.129314 0.792185 -6.50159e-09)
(3 1.81127e-07 -3.10868e-13)
(2.99999 3.35412e-07 -1.70334e-12)
(2.99998 2.64521e-06 -3.36452e-12)
(2.99996 3.72857e-06 -7.0496e-12)
(2.99991 1.81865e-05 -1.02048e-11)
(2.99976 2.34288e-05 -1.80039e-11)
(2.99948 0.000109998 -2.54867e-11)
(2.99857 0.000119956 -4.22043e-11)
(2.99707 0.000714596 -6.89325e-11)
(2.99109 0.000442087 -1.13225e-10)
(2.98168 0.00523387 -2.20512e-10)
(2.94266 0.00215856 -3.51832e-10)
(2.8565 0.0354762 -7.27103e-10)
(2.59705 0.0412264 -1.22777e-09)
(1.77432 0.205337 -1.97524e-09)
(0.920909 0.456444 -8.74683e-10)
(0.616595 0.442797 1.88041e-09)
(0.646852 0.438212 8.86165e-10)
(0.653061 0.464904 -1.02858e-09)
(0.611879 0.504369 -1.84463e-09)
(0.554236 0.558826 -3.23419e-09)
(0.493723 0.626815 -3.72822e-09)
(0.434401 0.712583 -4.8654e-09)
(0.358089 0.835832 -6.00199e-09)
(0.201267 1.04586 -5.68998e-09)
(3 7.67381e-09 -1.42804e-14)
(2.99999 4.17976e-08 -6.52323e-14)
(2.99997 1.55092e-07 -1.95816e-13)
(2.99992 3.98323e-07 -4.22284e-13)
(2.99982 1.09307e-06 -1.02345e-12)
(2.99955 2.50031e-06 -2.05265e-12)
(2.99899 6.49918e-06 -4.73175e-12)
(2.99737 1.44112e-05 -9.09924e-12)
(2.99422 3.79092e-05 -2.16238e-11)
(2.98414 8.1817e-05 -3.43995e-11)
(2.96491 0.000233593 -1.27183e-10)
(2.89816 0.000499806 -5.27277e-11)
(2.727 0.00160581 -5.99185e-10)
(2.27195 0.00398531 -8.26893e-10)
(1.07434 0.0118461 -1.02714e-09)
(0.396329 0.0204119 8.85363e-10)
(0.549297 0.0234928 1.86353e-09)
(0.604651 0.0256793 1.7398e-09)
(0.55493 0.02794 1.24817e-09)
(0.462643 0.0305289 8.02438e-12)
(0.369002 0.0339409 -1.82144e-09)
(0.291146 0.0380304 -2.86277e-09)
(0.212789 0.0417581 -4.19166e-09)
(0.128449 0.0445161 -4.76933e-09)
(0.048731 0.0476913 -5.35693e-09)
(3 2.33244e-08 -1.45889e-14)
(2.99999 1.26995e-07 -6.62855e-14)
(2.99997 4.71942e-07 -2.01081e-13)
(2.99992 1.21076e-06 -4.33056e-13)
(2.99983 3.33211e-06 -1.06962e-12)
(2.99955 7.62028e-06 -2.15117e-12)
(2.999 1.98853e-05 -5.09073e-12)
(2.99739 4.41835e-05 -9.98347e-12)
(2.99428 0.000116362 -2.35027e-11)
(2.9843 0.000254103 -4.30992e-11)
(2.96526 0.000708637 -1.13037e-10)
(2.89924 0.00158484 -1.63129e-10)
(2.73015 0.00489928 -4.65667e-10)
(2.27978 0.0121029 -8.22775e-10)
(1.08695 0.0359785 -8.07279e-10)
(0.406512 0.0605796 8.59426e-10)
(0.551613 0.0677779 1.68965e-09)
(0.604936 0.0712614 1.62442e-09)
(0.554502 0.0746961 1.15947e-09)
(0.462128 0.0790348 -6.53544e-11)
(0.368631 0.0849346 -1.94242e-09)
(0.290536 0.0915375 -2.95382e-09)
(0.211788 0.0967888 -4.23386e-09)
(0.12689 0.0999245 -4.76929e-09)
(0.0464101 0.101413 -5.43988e-09)
(3 3.9347e-08 -1.47044e-14)
(2.99999 2.14287e-07 -6.68154e-14)
(2.99997 7.96477e-07 -2.02178e-13)
(2.99992 2.0425e-06 -4.35105e-13)
(2.99983 5.6229e-06 -1.07049e-12)
(2.99956 1.28554e-05 -2.15114e-12)
(2.99902 3.35579e-05 -5.06581e-12)
(2.99745 7.46108e-05 -9.94191e-12)
(2.9944 0.0001962 -2.32062e-11)
(2.98463 0.000430671 -4.32097e-11)
(2.96603 0.00118451 -1.08099e-10)
(2.90148 0.00270068 -1.71889e-10)
(2.73651 0.00817919 -4.35137e-10)
(2.29616 0.0200932 -7.09005e-10)
(1.1147 0.0600513 -7.17187e-10)
(0.426812 0.102791 7.74657e-10)
(0.556736 0.115689 1.39128e-09)
(0.606728 0.120584 1.39691e-09)
(0.556519 0.126103 9.51783e-10)
(0.465461 0.134617 -2.9875e-10)
(0.373025 0.145532 -2.21994e-09)
(0.294732 0.156944 -3.20889e-09)
(0.215116 0.166218 -4.35254e-09)
(0.128961 0.172004 -4.77746e-09)
(0.0467727 0.173895 -5.47493e-09)
(3 5.58578e-08 -1.5222e-14)
(2.99999 3.04389e-07 -6.91025e-14)
(2.99997 1.13007e-06 -2.08632e-13)
(2.99993 2.89826e-06 -4.48907e-13)
(2.99984 7.9613e-06 -1.09863e-12)
(2.99957 1.81937e-05 -2.20553e-12)
(2.99906 4.7333e-05 -5.15519e-12)
(2.99753 0.000105164 -1.00826e-11)
(2.99457 0.000275168 -2.33771e-11)
(2.98512 0.000603427 -4.2943e-11)
(2.96718 0.00164924 -1.082e-10)
(2.90478 0.00374175 -1.66722e-10)
(2.74585 0.0112537 -4.29268e-10)
(2.32026 0.0275031 -7.01756e-10)
(1.15707 0.081961 -8.30802e-10)
(0.458116 0.144512 5.43963e-10)
(0.564565 0.16449 1.09286e-09)
(0.609147 0.169227 1.11475e-09)
(0.560891 0.176331 6.49348e-10)
(0.473049 0.190159 -7.02746e-10)
(0.382169 0.206678 -2.48449e-09)
(0.303679 0.223227 -3.51653e-09)
(0.222889 0.237283 -4.5289e-09)
(0.134391 0.246811 -4.86005e-09)
(0.0490935 0.249856 -5.3637e-09)
(3 7.45798e-08 -1.59874e-14)
(2.99999 4.06989e-07 -7.24351e-14)
(2.99997 1.5087e-06 -2.1955e-13)
(2.99993 3.86888e-06 -4.724e-13)
(2.99984 1.06014e-05 -1.16156e-12)
(2.99959 2.42014e-05 -2.33634e-12)
(2.9991 6.27412e-05 -5.48405e-12)
(2.99764 0.000139147 -1.07984e-11)
(2.99481 0.000361963 -2.49503e-11)
(2.98576 0.000795058 -4.68186e-11)
(2.96869 0.00211863 -1.14989e-10)
(2.90909 0.00494326 -1.83813e-10)
(2.75788 0.0140702 -4.62788e-10)
(2.35118 0.0352445 -7.78585e-10)
(1.21316 0.102054 -1.03411e-09)
(0.500204 0.187236 2.30874e-10)
(0.573885 0.215897 8.2096e-10)
(0.610302 0.216862 9.13835e-10)
(0.567267 0.224379 4.23221e-10)
(0.48489 0.244275 -9.60755e-10)
(0.395496 0.266914 -2.84277e-09)
(0.316769 0.289029 -3.78497e-09)
(0.234869 0.308597 -4.65573e-09)
(0.143364 0.323023 -4.90116e-09)
(0.0535155 0.328319 -5.26112e-09)
(3 9.93335e-08 -1.89199e-14)
(2.99999 5.40072e-07 -8.52312e-14)
(2.99998 2.01036e-06 -2.61998e-13)
(2.99993 5.15762e-06 -5.63408e-13)
(2.99985 1.42197e-05 -1.41761e-12)
(2.99962 3.25747e-05 -2.85166e-12)
(2.99915 8.4671e-05 -6.89948e-12)
(2.99778 0.000191365 -1.35806e-11)