/*--------------------------------*- C++ -*----------------------------------*\
| =========                 |                                                 |
| \\      /  F ield         | OpenFOAM: The Open Source CFD Toolbox           |
|  \\    /   O peration     | Version:  4.1                                   |
|   \\  /    A nd           | Web:      www.OpenFOAM.org                      |
|    \\/     M anipulation  |                                                 |
\*---------------------------------------------------------------------------*/
FoamFile
{
    version     2.0;
    format      ascii;
    class       volScalarField;
    location    "0.94";
    object      Ma;
}
// * * * * * * * * * * * * * * * * * * * * * * * * * * * * * * * * * * * * * //

dimensions      [0 0 0 0 0 0 0];

internalField   nonuniform List<scalar> 
18000
(
5.0888e-12
5.03326e-12
4.96579e-12
4.91111e-12
4.85675e-12
4.80308e-12
4.74989e-12
4.69786e-12
4.64658e-12
4.59727e-12
6.32414e-12
6.10919e-12
5.89036e-12
5.68996e-12
5.49815e-12
5.31395e-12
5.13696e-12
4.96737e-12
4.80379e-12
4.6511e-12
7.94823e-12
7.48217e-12
7.03573e-12
6.62783e-12
6.24759e-12
5.89364e-12
5.56452e-12
5.25646e-12
4.96946e-12
4.70611e-12
1.01094e-11
9.24887e-12
8.46465e-12
7.75955e-12
7.12532e-12
6.55312e-12
6.03553e-12
5.56694e-12
5.14166e-12
4.76205e-12
1.30258e-11
1.15473e-11
1.02589e-11
9.13487e-12
8.15776e-12
7.30423e-12
6.55663e-12
5.90032e-12
5.32161e-12
4.81924e-12
1.70169e-11
1.4572e-11
1.25341e-11
1.08169e-11
9.37706e-12
8.1626e-12
7.13397e-12
6.2586e-12
5.50929e-12
4.87733e-12
2.25514e-11
1.86095e-11
1.54448e-11
1.28886e-11
1.08249e-11
9.14737e-12
7.77439e-12
6.64348e-12
5.70576e-12
4.93635e-12
3.05545e-11
2.43417e-11
1.95585e-11
1.58759e-11
1.30365e-11
1.08294e-11
9.10037e-12
7.73617e-12
6.65142e-12
5.82908e-12
6.05365e-09
6.22964e-09
5.88606e-09
5.56985e-09
5.28234e-09
5.02052e-09
4.78152e-09
4.56281e-09
4.36287e-09
4.30239e-09
6.79168e-07
7.09808e-08
6.07434e-08
5.33105e-08
4.70183e-08
4.16721e-08
3.71152e-08
3.32217e-08
2.97745e-08
1.24032e-07
5.51922e-12
5.45508e-12
5.38324e-12
5.32057e-12
5.25912e-12
5.19881e-12
5.13823e-12
5.07993e-12
5.0222e-12
4.96602e-12
6.92362e-12
6.67573e-12
6.43352e-12
6.2044e-12
5.98579e-12
5.77601e-12
5.57612e-12
5.38425e-12
5.20063e-12
5.02697e-12
8.78731e-12
8.24485e-12
7.74463e-12
7.27425e-12
6.83901e-12
6.43517e-12
6.0614e-12
5.71301e-12
5.38882e-12
5.09046e-12
1.13066e-11
1.0297e-11
9.40165e-12
8.58194e-12
7.84922e-12
7.19208e-12
6.60159e-12
6.0696e-12
5.58766e-12
5.1543e-12
1.47693e-11
1.30138e-11
1.15143e-11
1.01919e-11
9.05132e-12
8.06362e-12
7.20451e-12
6.45492e-12
5.79755e-12
5.22116e-12
1.96145e-11
1.66599e-11
1.42381e-11
1.21876e-11
1.0488e-11
9.06939e-12
7.87926e-12
6.87408e-12
6.02003e-12
5.29028e-12
2.65124e-11
2.16392e-11
1.77894e-11
1.46831e-11
1.2216e-11
1.02361e-11
8.63434e-12
7.32914e-12
6.25451e-12
5.36147e-12
3.6587e-11
2.85435e-11
2.24799e-11
1.78377e-11
1.43138e-11
1.16025e-11
9.49338e-12
7.83369e-12
6.51235e-12
5.44576e-12
2.7263e-10
6.38574e-10
5.2959e-10
4.40057e-10
3.6946e-10
3.12996e-10
2.67367e-10
2.30139e-10
1.99553e-10
1.77823e-10
4.8323e-07
6.96684e-08
6.11161e-08
5.38186e-08
4.77248e-08
4.25933e-08
3.82366e-08
3.45102e-08
3.1316e-08
3.04399e-08
5.87529e-13
5.67032e-13
4.63653e-13
4.48963e-13
4.3512e-13
4.22566e-13
4.10997e-13
4.00944e-13
3.91705e-13
3.81699e-13
8.14016e-13
7.44785e-13
6.76827e-13
6.25184e-13
5.78077e-13
5.35977e-13
4.97783e-13
4.64204e-13
4.35828e-13
3.95308e-13
1.05373e-12
9.32519e-13
8.95674e-13
8.05519e-13
7.24887e-13
6.53964e-13
5.92564e-13
5.39689e-13
4.91956e-13
4.13978e-13
1.44526e-12
1.26476e-12
1.22508e-12
1.06966e-12
9.34936e-13
8.20842e-13
7.24281e-13
6.42516e-13
5.70682e-13
4.3981e-13
2.0656e-12
1.79828e-12
1.69749e-12
1.43509e-12
1.21576e-12
1.03689e-12
8.89934e-13
7.68865e-13
6.65072e-13
4.72728e-13
3.05764e-12
2.63817e-12
2.37455e-12
1.93449e-12
1.58546e-12
1.31074e-12
1.09329e-12
9.19751e-13
7.7433e-13
5.11623e-13
4.66477e-12
3.94726e-12
3.35077e-12
2.61975e-12
2.06927e-12
1.65483e-12
1.33857e-12
1.09509e-12
8.9836e-13
5.56811e-13
7.43344e-12
6.00648e-12
4.77156e-12
3.56414e-12
2.70416e-12
2.08586e-12
1.63351e-12
1.2975e-12
1.03676e-12
6.07089e-13
4.30407e-10
3.07514e-11
2.47889e-11
1.80655e-11
1.34478e-11
1.01966e-11
7.86314e-12
6.16054e-12
4.89877e-12
3.90485e-12
4.13255e-07
7.35344e-09
5.46631e-09
4.21821e-09
3.30488e-09
2.62433e-09
2.10942e-09
1.71444e-09
1.40841e-09
1.2083e-09
3.82371e-13
3.59786e-13
1.7222e-13
1.51839e-13
1.31544e-13
1.12467e-13
9.46414e-14
7.82379e-14
6.37842e-14
3.84783e-14
5.30947e-13
4.59574e-13
3.86013e-13
3.36484e-13
2.89843e-13
2.48211e-13
2.11496e-13
1.79715e-13
1.53095e-13
8.00936e-14
5.95832e-13
4.90392e-13
5.23692e-13
4.56706e-13
3.9632e-13
3.44981e-13
3.0235e-13
2.6834e-13
2.39182e-13
1.19805e-13
7.31512e-13
6.37546e-13
7.61007e-13
6.59577e-13
5.70219e-13
4.96442e-13
4.35707e-13
3.864e-13
3.43221e-13
1.71093e-13
9.63823e-13
9.48291e-13
1.10877e-12
9.44574e-13
8.04441e-13
6.90434e-13
5.97717e-13
5.22516e-13
4.56345e-13
2.24294e-13
1.35509e-12
1.49233e-12
1.61277e-12
1.33867e-12
1.1126e-12
9.34037e-13
7.91252e-13
6.77776e-13
5.79368e-13
2.80745e-13
2.00531e-12
2.37261e-12
2.34374e-12
1.8807e-12
1.51662e-12
1.23828e-12
1.0219e-12
8.53378e-13
7.12337e-13
3.40423e-13
3.3066e-12
3.77813e-12
3.40737e-12
2.62796e-12
2.04551e-12
1.61756e-12
1.29627e-12
1.05244e-12
8.56373e-13
4.03256e-13
4.8874e-10
8.06399e-12
4.78344e-12
3.55359e-12
2.68141e-12
2.06056e-12
1.60784e-12
1.27378e-12
1.01261e-12
4.7379e-13
4.09968e-07
2.34447e-09
2.58509e-10
1.73181e-10
1.19126e-10
8.37157e-11
5.99738e-11
4.37311e-11
3.24343e-11
2.46971e-11
3.8193e-13
3.58895e-13
1.71793e-13
1.51234e-13
1.30833e-13
1.11675e-13
9.41252e-14
7.76458e-14
6.27497e-14
3.69176e-14
5.30533e-13
4.59142e-13
3.85809e-13
3.36424e-13
2.89797e-13
2.47836e-13
2.11097e-13
1.7965e-13
1.52746e-13
7.91652e-14
5.95111e-13
4.89755e-13
5.23825e-13
4.56841e-13
3.96152e-13
3.44945e-13
3.0224e-13
2.67961e-13
2.38662e-13
1.19099e-13
7.29996e-13
6.36756e-13
7.61166e-13
6.59866e-13
5.70451e-13
4.9657e-13
4.35909e-13
3.86511e-13
3.43149e-13
1.70077e-13
9.60182e-13
9.47191e-13
1.1098e-12
9.45403e-13
8.0521e-13
6.91399e-13
5.98085e-13
5.22326e-13
4.56505e-13
2.24076e-13
1.3461e-12
1.49104e-12
1.61393e-12
1.34059e-12
1.11424e-12
9.35594e-13
7.92699e-13
6.78622e-13
5.80142e-13
2.80751e-13
1.98436e-12
2.37138e-12
2.34706e-12
1.8842e-12
1.52016e-12
1.24144e-12
1.02441e-12
8.55274e-13
7.14304e-13
3.41224e-13
3.27979e-12
3.77742e-12
3.41389e-12
2.63484e-12
2.05201e-12
1.62332e-12
1.30098e-12
1.05635e-12
8.59488e-13
4.05101e-13
5.21017e-10
9.27677e-12
4.9915e-12
3.67164e-12
2.7495e-12
2.09929e-12
1.62915e-12
1.28472e-12
1.01751e-12
4.72181e-13
4.35531e-07
2.56734e-09
2.24479e-11
7.70153e-12
5.05966e-12
3.48841e-12
2.48834e-12
1.82901e-12
1.36721e-12
7.05263e-13
3.81966e-13
3.58551e-13
1.7228e-13
1.51767e-13
1.31163e-13
1.11889e-13
9.41262e-14
7.7963e-14
6.3167e-14
3.68102e-14
5.3142e-13
4.5959e-13
3.87003e-13
3.37442e-13
2.90746e-13
2.48537e-13
2.11487e-13
1.79872e-13
1.53359e-13
7.97309e-14
5.9698e-13
4.91535e-13
5.26191e-13
4.587e-13
3.97908e-13
3.46163e-13
3.0313e-13
2.68598e-13
2.39171e-13
1.19677e-13
7.33833e-13
6.4078e-13
7.65038e-13
6.62965e-13
5.73011e-13
4.98474e-13
4.37195e-13
3.87677e-13
3.43858e-13
1.7052e-13
9.67527e-13
9.5465e-13
1.11595e-12
9.50424e-13
8.09134e-13
6.94737e-13
6.00761e-13
5.2445e-13
4.57957e-13
2.24993e-13
1.35966e-12
1.50432e-12
1.62464e-12
1.34872e-12
1.12056e-12
9.40867e-13
7.96919e-13
6.81593e-13
5.82638e-13
2.82415e-13
2.00945e-12
2.39423e-12
2.36527e-12
1.89804e-12
1.53077e-12
1.25001e-12
1.03112e-12
8.60415e-13
7.18172e-13
3.43904e-13
3.33494e-12
3.81852e-12
3.44535e-12
2.6581e-12
2.06939e-12
1.6368e-12
1.3117e-12
1.06446e-12
8.65513e-13
4.0904e-13
5.54753e-10
9.68983e-12
5.05495e-12
3.71409e-12
2.7796e-12
2.12142e-12
1.64557e-12
1.29686e-12
1.02675e-12
4.78361e-13
4.74325e-07
2.76205e-09
2.17982e-11
5.19662e-12
3.70231e-12
2.72703e-12
2.04878e-12
1.568e-12
1.20789e-12
5.59522e-13
3.81897e-13
3.58287e-13
1.72817e-13
1.52409e-13
1.31751e-13
1.12497e-13
9.46252e-14
7.82927e-14
6.50824e-14
5.77108e-14
5.32386e-13
4.60181e-13
3.88657e-13
3.38704e-13
2.91854e-13
2.4962e-13
2.12448e-13
1.80563e-13
1.53896e-13
8.63868e-14
5.99204e-13
4.93556e-13
5.28857e-13
4.61072e-13
3.99786e-13
3.47745e-13
3.04192e-13
2.69504e-13
2.40231e-13
1.2317e-13
7.38316e-13
6.4534e-13
7.69258e-13
6.66692e-13
5.76169e-13
5.01072e-13
4.39028e-13
3.88854e-13
3.45495e-13
1.73414e-13
9.76086e-13
9.63148e-13
1.1229e-12
9.56098e-13
8.13729e-13
6.98748e-13
6.04166e-13
5.27085e-13
4.60154e-13
2.28055e-13
1.37582e-12
1.51892e-12
1.63663e-12
1.35841e-12
1.12801e-12
9.47103e-13
8.024e-13
6.85938e-13
5.85874e-13
2.86131e-13
2.03892e-12
2.41973e-12
2.38521e-12
1.91388e-12
1.54306e-12
1.2601e-12
1.03953e-12
8.67153e-13
7.23446e-13
3.48787e-13
3.36233e-12
3.8631e-12
3.48006e-12
2.68434e-12
2.08939e-12
1.65234e-12
1.32477e-12
1.07527e-12
8.73683e-13
4.15414e-13
5.53088e-10
9.35688e-12
5.11296e-12
3.75843e-12
2.81247e-12
2.14651e-12
1.66579e-12
1.3121e-12
1.03879e-12
4.87481e-13
4.93676e-07
2.68201e-09
1.99464e-11
5.23521e-12
3.74374e-12
2.75983e-12
2.07545e-12
1.58836e-12
1.22392e-12
5.70765e-13
3.8184e-13
3.57101e-13
1.72926e-13
1.52623e-13
1.32855e-13
1.16434e-13
1.09053e-13
2.09091e-13
7.47222e-13
1.98415e-12
5.32549e-13
4.59439e-13
3.89032e-13
3.39364e-13
2.93051e-13
2.52171e-13
2.18638e-13
2.22953e-13
4.70816e-13
1.30747e-12
5.99833e-13
4.93141e-13
5.2941e-13
4.61776e-13
4.01098e-13
3.50426e-13
3.10109e-13
2.88541e-13
3.82084e-13
8.73123e-13
7.39871e-13
6.45039e-13
7.69827e-13
6.67533e-13
5.77467e-13
5.03613e-13
4.45086e-13
4.0155e-13
4.11902e-13
6.2874e-13
9.78569e-13
9.62558e-13
1.12314e-12
9.56874e-13
8.15227e-13
7.01063e-13
6.09852e-13
5.38494e-13
4.99747e-13
5.02852e-13
1.37863e-12
1.51751e-12
1.63631e-12
1.35931e-12
1.13e-12
9.50512e-13
8.09199e-13
6.9867e-13
6.15539e-13
4.56674e-13
2.04091e-12
2.41699e-12
2.38446e-12
1.91527e-12
1.54602e-12
1.26508e-12
1.0478e-12
8.80914e-13
7.4962e-13
4.61891e-13
3.20881e-12
3.85727e-12
3.47926e-12
2.68735e-12
2.09455e-12
1.65906e-12
1.33416e-12
1.09143e-12
9.0027e-13
4.97304e-13
3.56133e-10
7.01793e-12
5.09873e-12
3.76418e-12
2.82075e-12
2.15664e-12
1.67929e-12
1.33218e-12
1.066e-12
5.52087e-13
3.7756e-07
1.28562e-09
1.0642e-11
5.19429e-12
3.75352e-12
2.77346e-12
2.09317e-12
1.61256e-12
1.25364e-12
6.26527e-13
4.14907e-13
4.54749e-13
2.54486e-13
1.55365e-13
2.61161e-13
7.35328e-13
1.71281e-12
6.89642e-12
2.61014e-11
5.51915e-11
5.96939e-13
6.31503e-13
4.97693e-13
3.67481e-13
3.06251e-13
6.28394e-13
1.30042e-12
4.31289e-12
1.56231e-11
3.66512e-11
7.26222e-13
7.95033e-13
7.05527e-13
5.39758e-13
3.94089e-13
5.23337e-13
1.11877e-12
2.94296e-12
1.00558e-11
2.44014e-11
9.49993e-13
1.07888e-12
1.01073e-12
7.95381e-13
5.9105e-13
5.41319e-13
1.02922e-12
2.1892e-12
6.94247e-12
1.67582e-11
1.3052e-12
1.5173e-12
1.4285e-12
1.13398e-12
8.63875e-13
6.85177e-13
9.25149e-13
1.84241e-12
5.08981e-12
1.18652e-11
1.86065e-12
2.18473e-12
2.00632e-12
1.58048e-12
1.21095e-12
9.29392e-13
9.37377e-13
1.69782e-12
3.92497e-12
8.63943e-12
2.72183e-12
3.2053e-12
2.81678e-12
2.17433e-12
1.65363e-12
1.25102e-12
1.06748e-12
1.52366e-12
3.16113e-12
6.45342e-12
3.96008e-12
4.7663e-12
3.9671e-12
2.97243e-12
2.21748e-12
1.65358e-12
1.30245e-12
1.45545e-12
2.64429e-12
4.93603e-12
2.62111e-10
6.80421e-12
5.61267e-12
4.06019e-12
2.94374e-12
2.14868e-12
1.62164e-12
1.50786e-12
2.28665e-12
3.86149e-12
1.15751e-07
3.08366e-09
1.46755e-11
5.42318e-12
3.86072e-12
2.74872e-12
2.01085e-12
1.66389e-12
2.06404e-12
3.09599e-12
2.49878e-12
2.34021e-12
1.49257e-12
1.74975e-13
2.75394e-12
9.27639e-12
3.0788e-11
1.3346e-10
3.54916e-10
4.58235e-10
3.52172e-12
3.38583e-12
2.498e-12
1.11704e-12
1.37604e-12
6.52858e-12
2.13227e-11
8.10891e-11
2.18911e-10
2.91079e-10
4.78754e-12
4.63506e-12
3.65369e-12
2.25729e-12
2.24572e-13
4.23362e-12
1.48653e-11
5.25493e-11
1.41336e-10
2.00166e-10
6.45105e-12
6.20403e-12
5.03783e-12
3.52032e-12
1.35883e-12
2.3593e-12
1.03073e-11
3.56567e-11
9.49595e-11
1.4295e-10
8.68686e-12
8.20825e-12
6.72136e-12
4.98031e-12
2.75175e-12
7.78145e-13
7.05642e-12
2.47364e-11
6.59054e-11
1.04611e-10
1.17475e-11
1.08149e-11
8.80566e-12
6.68315e-12
4.23586e-12
1.08429e-12
4.52397e-12
1.73441e-11
4.6954e-11
7.80301e-11
1.60236e-11
1.42824e-11
1.1436e-11
8.70965e-12
5.8998e-12
2.61412e-12
2.46697e-12
1.23298e-11
3.41704e-11
5.91301e-11
2.21664e-11
1.89836e-11
1.48076e-11
1.11631e-11
7.77493e-12
4.20484e-12
9.82703e-13
8.64647e-12
2.52443e-11
4.54142e-11
7.47373e-10
2.58632e-11
1.92152e-11
1.4186e-11
9.93413e-12
5.90832e-12
1.62156e-12
5.81994e-12
1.88382e-11
3.52688e-11
1.03306e-06
4.3332e-09
2.82889e-11
1.79796e-11
1.24415e-11
7.73877e-12
3.14004e-12
3.60859e-12
1.41046e-11
2.76348e-11
3.27714e-12
2.9479e-12
1.93657e-12
1.98049e-12
8.62259e-12
3.21009e-11
1.49285e-10
5.00873e-10
8.67817e-10
9.80686e-10
4.33391e-12
4.03882e-12
3.07112e-12
1.62815e-12
5.3536e-12
2.13777e-11
8.97347e-11
3.0054e-10
5.33384e-10
5.86857e-10
5.61429e-12
5.29821e-12
4.34939e-12
2.67074e-12
2.8816e-12
1.40124e-11
5.68654e-11
1.88567e-10
3.51192e-10
3.8181e-10
7.24813e-12
6.81703e-12
5.78708e-12
4.13032e-12
1.93476e-12
8.74232e-12
3.71664e-11
1.22896e-10
2.39383e-10
2.5848e-10
9.38294e-12
8.69899e-12
7.45737e-12
5.73685e-12
3.02506e-12
5.00704e-12
2.44713e-11
8.21919e-11
1.67102e-10
1.7969e-10
1.22438e-11
1.10857e-11
9.45107e-12
7.51218e-12
4.76932e-12
2.57354e-12
1.5869e-11
5.58828e-11
1.18732e-10
1.27532e-10
1.61683e-11
1.41834e-11
1.18915e-11
9.5358e-12
6.65167e-12
2.66836e-12
9.91489e-12
3.84608e-11
8.53188e-11
9.19794e-11
2.16996e-11
1.82926e-11
1.49491e-11
1.18997e-11
8.66496e-12
4.44904e-12
5.60926e-12
2.64799e-11
6.18839e-11
6.71907e-11
3.44192e-10
2.51517e-11
1.8864e-11
1.47295e-11
1.08844e-11
6.51308e-12
2.84756e-12
1.79899e-11
4.51592e-11
4.95223e-11
2.28757e-07
1.01834e-08
7.28375e-11
1.81587e-11
1.33664e-11
8.62119e-12
2.89521e-12
1.17862e-11
3.3014e-11
3.66979e-11
1.03821e-12
1.28839e-12
1.54146e-12
3.18441e-12
8.3155e-12
2.41999e-11
8.43449e-11
2.29985e-10
3.38936e-10
3.33229e-10
1.13958e-12
1.30654e-12
1.42995e-12
2.43258e-12
5.97884e-12
1.70928e-11
5.66129e-11
1.49606e-10
2.0622e-10
1.61338e-10
1.24677e-12
1.36788e-12
1.44731e-12
1.98139e-12
4.30954e-12
1.21067e-11
3.87257e-11
9.99474e-11
1.31833e-10
7.18235e-11
1.36123e-12
1.46039e-12
1.54179e-12
1.82062e-12
3.19393e-12
8.59091e-12
2.70203e-11
6.84192e-11
8.74685e-11
3.14228e-11
1.48475e-12
1.57389e-12
1.67525e-12
1.84422e-12
2.53379e-12
6.1063e-12
1.90026e-11
4.7903e-11
5.94816e-11
1.53056e-11
1.62852e-12
1.70601e-12
1.82624e-12
1.9569e-12
2.25166e-12
4.4409e-12
1.34305e-11
3.41057e-11
4.11821e-11
1.10677e-11
1.80036e-12
1.86054e-12
1.98734e-12
2.11088e-12
2.22085e-12
3.35805e-12
9.50772e-12
2.44169e-11
2.884e-11
1.05422e-11
2.13283e-12
2.0419e-12
2.16349e-12
2.28186e-12
2.31702e-12
2.77463e-12
6.80295e-12
1.7595e-11
2.03532e-11
1.032e-11
8.47082e-10
1.61441e-11
2.35258e-12
2.46264e-12
2.47238e-12
2.55599e-12
4.95991e-12
1.2744e-11
1.44178e-11
9.90618e-12
3.87274e-07
1.25776e-08
5.10901e-11
2.89994e-12
2.64883e-12
2.55394e-12
3.74444e-12
9.24838e-12
1.01823e-11
9.18431e-12
7.75014e-13
1.47735e-12
1.6033e-12
2.51411e-12
4.12692e-12
6.79289e-12
1.45842e-11
5.62859e-11
2.00515e-10
5.29617e-10
7.11414e-13
1.32699e-12
1.38627e-12
2.13891e-12
3.47179e-12
5.73639e-12
1.10012e-11
3.50017e-11
1.22289e-10
3.17156e-10
6.48676e-13
1.18574e-12
1.19392e-12
1.81086e-12
2.91225e-12
4.7925e-12
8.71329e-12
2.31173e-11
7.81982e-11
1.9867e-10
5.95892e-13
1.06444e-12
1.03304e-12
1.55032e-12
2.45396e-12
4.01153e-12
7.04386e-12
1.6162e-11
5.19572e-11
1.29427e-10
5.49875e-13
9.60459e-13
8.95889e-13
1.32595e-12
2.07547e-12
3.38343e-12
5.76643e-12
1.18816e-11
3.55818e-11
8.7029e-11
5.10726e-13
8.71343e-13
7.80684e-13
1.14548e-12
1.77872e-12
2.85961e-12
4.77832e-12
9.08606e-12
2.49814e-11
6.01119e-11
4.77078e-13
7.9507e-13
6.82671e-13
9.9184e-13
1.5219e-12
2.42477e-12
4.0142e-12
7.16354e-12
1.79275e-11
4.2488e-11
9.80214e-13
7.30711e-13
6.00448e-13
8.62141e-13
1.31195e-12
2.07489e-12
3.39765e-12
5.78644e-12
1.31065e-11
3.06411e-11
1.24279e-09
4.54621e-11
6.18909e-13
7.50582e-13
1.13733e-12
1.786e-12
2.89313e-12
4.76564e-12
9.74932e-12
2.25102e-11
3.84953e-07
3.85644e-08
2.84448e-10
3.10294e-12
9.43087e-13
1.535e-12
2.46589e-12
3.97739e-12
7.34858e-12
1.67943e-11
1.04566e-12
1.83282e-12
1.63468e-12
2.16666e-12
3.01244e-12
4.35706e-12
6.67389e-12
1.23611e-11
4.98364e-11
1.78179e-10
9.73156e-13
1.68049e-12
1.46509e-12
1.93533e-12
2.66518e-12
3.79589e-12
5.67485e-12
9.91861e-12
3.49457e-11
1.07443e-10
9.03176e-13
1.53446e-12
1.30183e-12
1.71167e-12
2.34171e-12
3.30691e-12
4.82705e-12
7.87553e-12
2.46395e-11
6.86199e-11
8.41811e-13
1.40676e-12
1.16284e-12
1.51765e-12
2.06618e-12
2.8927e-12
4.16088e-12
6.35738e-12
1.77552e-11
4.58795e-11
7.88429e-13
1.29529e-12
1.04302e-12
1.35111e-12
1.83436e-12
2.54767e-12
3.62572e-12
5.27626e-12
1.29555e-11
3.17512e-11
7.41887e-13
1.1978e-12
9.38871e-13
1.20873e-12
1.62953e-12
2.25101e-12
3.18863e-12
4.48745e-12
9.55179e-12
2.25775e-11
7.0096e-13
1.11176e-12
8.48668e-13
1.08481e-12
1.45379e-12
2.00171e-12
2.81921e-12
3.88298e-12
7.10022e-12
1.64014e-11
1.37944e-12
1.03868e-12
7.70632e-13
9.76772e-13
1.30088e-12
1.78253e-12
2.4997e-12
3.39948e-12
5.3232e-12
1.21197e-11
1.7804e-09
8.02694e-11
8.15215e-13
8.80231e-13
1.16799e-12
1.59166e-12
2.22649e-12
2.99616e-12
4.03408e-12
9.06371e-12
4.71893e-07
6.74967e-08
6.91123e-10
3.45299e-12
9.73167e-13
1.4251e-12
1.98703e-12
2.65047e-12
3.0693e-12
6.83866e-12
1.44055e-12
2.30664e-12
1.65127e-12
1.89294e-12
2.27128e-12
2.81866e-12
3.77584e-12
5.71873e-12
1.31254e-11
2.88272e-11
1.36251e-12
2.15891e-12
1.53377e-12
1.76343e-12
2.11265e-12
2.59617e-12
3.34466e-12
4.71067e-12
1.05623e-11
2.11247e-11
1.284e-12
2.01163e-12
1.41002e-12
1.62353e-12
1.94537e-12
2.37727e-12
2.99613e-12
3.95792e-12
8.25584e-12
1.56973e-11
1.21456e-12
1.88001e-12
1.29831e-12
1.49538e-12
1.79265e-12
2.18583e-12
2.72119e-12
3.42349e-12
6.40267e-12
1.18658e-11
1.153e-12
1.76227e-12
1.19807e-12
1.37849e-12
1.65458e-12
2.01513e-12
2.49555e-12
3.03467e-12
4.94845e-12
9.0942e-12
1.09813e-12
1.65607e-12
1.10803e-12
1.27376e-12
1.52648e-12
1.85953e-12
2.29696e-12
2.73858e-12
3.81269e-12
7.02581e-12
1.04948e-12
1.56078e-12
1.02711e-12
1.1785e-12
1.4106e-12
1.71918e-12
2.12509e-12
2.4972e-12
2.93216e-12
5.4529e-12
1.80181e-12
1.47871e-12
9.5437e-13
1.09185e-12
1.30516e-12
1.59099e-12
1.9682e-12
2.29817e-12
2.24843e-12
4.25106e-12
2.17162e-09
1.15935e-10
1.10387e-12
1.01171e-12
1.20837e-12
1.47305e-12
1.82393e-12
2.12515e-12
1.71679e-12
3.32209e-12
3.849e-07
9.25181e-08
1.08946e-09
3.60118e-12
1.02911e-12
1.36101e-12
1.68788e-12
1.96569e-12
1.29779e-12
2.59022e-12
2.01072e-12
2.90384e-12
1.61713e-12
1.5975e-12
1.65823e-12
1.799e-12
2.13543e-12
2.91075e-12
6.15679e-12
8.55902e-12
1.92839e-12
2.77054e-12
1.55733e-12
1.5559e-12
1.62486e-12
1.7449e-12
1.97898e-12
2.47157e-12
5.02373e-12
7.05812e-12
1.84565e-12
2.63297e-12
1.48008e-12
1.49414e-12
1.57179e-12
1.68446e-12
1.86024e-12
2.15797e-12
3.98994e-12
5.73603e-12
1.77068e-12
2.50615e-12
1.40495e-12
1.42974e-12
1.51459e-12
1.62664e-12
1.7731e-12
1.94937e-12
3.14685e-12
4.66157e-12
1.70255e-12
2.38877e-12
1.33247e-12
1.36611e-12
1.45682e-12
1.56988e-12
1.70214e-12
1.81032e-12
2.46276e-12
3.78442e-12
1.6413e-12
2.28086e-12
1.26402e-12
1.3029e-12
1.39675e-12
1.51357e-12
1.64452e-12
1.71031e-12
1.91075e-12
3.06808e-12
1.58545e-12
2.18119e-12
1.19967e-12
1.2417e-12
1.33667e-12
1.45612e-12
1.58928e-12
1.63554e-12
1.45956e-12
2.48355e-12
2.32657e-12
2.09487e-12
1.13907e-12
1.18301e-12
1.27852e-12
1.39819e-12
1.53313e-12
1.57539e-12
1.09493e-12
2.00323e-12
2.44966e-09
1.44429e-10
1.89908e-12
1.12676e-12
1.22134e-12
1.34129e-12
1.47754e-12
1.52271e-12
8.02432e-13
1.60694e-12
1.24592e-07
1.0299e-07
2.41359e-09
1.75747e-11
1.08028e-12
1.27911e-12
1.4202e-12
1.46787e-12
5.5649e-13
1.27515e-12
2.7753e-12
3.57888e-12
1.46667e-12
1.21341e-12
1.06461e-12
1.00361e-12
1.13175e-12
1.51417e-12
3.18184e-12
3.71609e-12
2.69551e-12
3.47512e-12
1.46374e-12
1.24664e-12
1.11713e-12
1.03597e-12
1.07312e-12
1.29297e-12
2.72367e-12
3.26551e-12
2.61366e-12
3.36262e-12
1.43977e-12
1.25589e-12
1.14829e-12
1.0655e-12
1.04862e-12
1.13757e-12
2.24127e-12
2.78588e-12
2.53809e-12
3.2548e-12
1.40797e-12
1.25286e-12
1.16613e-12
1.0919e-12
1.04871e-12
1.04542e-12
1.82687e-12
2.37315e-12
2.46845e-12
3.15288e-12
1.37304e-12
1.24237e-12
1.17424e-12
1.11155e-12
1.05878e-12
1.00145e-12
1.47057e-12
2.0168e-12
2.40364e-12
3.05516e-12
1.33501e-12
1.22537e-12
1.17413e-12
1.12538e-12
1.07512e-12
9.86262e-13
1.16373e-12
1.70758e-12
2.34388e-12
2.96338e-12
1.29571e-12
1.20361e-12
1.16774e-12
1.13304e-12
1.0908e-12
9.86845e-13
9.02084e-13
1.43997e-12
3.06092e-12
2.88333e-12
1.25626e-12
1.17952e-12
1.15568e-12
1.13386e-12
1.10265e-12
9.96888e-13
6.78655e-13
1.21032e-12
2.77635e-09
1.60674e-10
2.52063e-12
1.15529e-12
1.14018e-12
1.12962e-12
1.10876e-12
1.00894e-12
4.87976e-13
1.01294e-12
1.76277e-07
9.41142e-08
2.26985e-09
2.67263e-11
1.09046e-12
1.11665e-12
1.10982e-12
1.01795e-12
3.20159e-13
8.46841e-13
3.67806e-12
4.23576e-12
1.15679e-12
7.6275e-13
4.95541e-13
3.50776e-13
4.84013e-13
7.90123e-13
1.93898e-12
1.97694e-12
3.60639e-12
4.17165e-12
1.19973e-12
8.43968e-13
6.00059e-13
4.21314e-13
4.27832e-13
6.34977e-13
1.77587e-12
1.85313e-12
3.53403e-12
4.10067e-12
1.22046e-12
9.01127e-13
6.83743e-13
5.00088e-13
4.23793e-13
5.14225e-13
1.54215e-12
1.65852e-12
3.4653e-12
4.028e-12
1.23033e-12
9.43911e-13
7.49998e-13
5.74333e-13
4.56184e-13
4.36803e-13
1.33423e-12
1.48356e-12
3.40029e-12
3.95619e-12
1.23124e-12
9.74042e-13
8.02997e-13
6.39935e-13
5.05004e-13
4.0687e-13
1.14804e-12
1.32584e-12
3.33974e-12
3.88559e-12
1.22572e-12
9.95518e-13
8.45979e-13
6.97838e-13
5.59596e-13
4.15752e-13
9.83591e-13
1.18482e-12
3.28217e-12
3.8164e-12
1.21546e-12
1.0094e-12
8.78894e-13
7.46532e-13
6.13325e-13
4.4896e-13
8.40455e-13
1.06019e-12
3.95885e-12
3.7581e-12
1.20178e-12
1.01697e-12
9.03747e-13
7.87161e-13
6.63243e-13
4.94102e-13
7.18211e-13
9.50508e-13
3.07139e-09
1.6026e-10
3.13119e-12
1.02488e-12
9.23701e-13
8.20758e-13
7.06697e-13
5.42558e-13
6.16566e-13
8.56039e-13
5.05027e-07
6.12161e-08
1.94986e-09
3.29781e-11
1.02436e-12
8.4603e-13
7.44153e-13
5.87061e-13
5.35997e-13
7.78039e-13
4.54475e-12
4.74531e-12
7.39576e-13
4.96018e-13
2.72359e-13
1.50234e-13
2.65355e-13
4.84536e-13
1.40289e-12
1.23929e-12
4.48417e-12
4.72467e-12
7.86562e-13
5.34747e-13
3.1159e-13
1.24613e-13
1.62547e-13
3.81546e-13
1.39079e-12
1.24911e-12
4.42524e-12
4.69953e-12
8.21205e-13
5.71884e-13
3.61011e-13
1.63265e-13
7.56567e-14
2.8144e-13
1.28814e-12
1.17527e-12
4.36777e-12
4.66952e-12
8.48749e-13
6.04843e-13
4.10497e-13
2.21544e-13
4.63374e-14
1.88159e-13
1.19534e-12
1.10734e-12
4.31307e-12
4.63629e-12
8.69124e-13
6.35057e-13
4.57164e-13
2.81534e-13
1.0919e-13
1.03502e-13
1.1101e-12
1.04471e-12
4.26006e-12
4.60032e-12
8.84637e-13
6.60981e-13
4.99615e-13
3.37686e-13
1.76698e-13
3.49963e-14
1.0325e-12
9.87713e-13
4.20976e-12
4.56396e-12
8.95708e-13
6.83395e-13
5.37544e-13
3.89426e-13
2.3888e-13
5.91088e-14
9.63831e-13
9.36409e-13
4.84706e-12
4.53617e-12
9.02366e-13
7.01359e-13
5.70842e-13
4.357e-13
2.9545e-13
1.22149e-13
9.02993e-13
8.90609e-13
3.27762e-09
1.46254e-10
3.24773e-12
7.21749e-13
5.99544e-13
4.76267e-13
3.46927e-13
1.8252e-13
8.49967e-13
8.49325e-13
8.02449e-07
2.28011e-08
1.08034e-09
2.34691e-11
7.40263e-13
5.13347e-13
3.93596e-13
2.39325e-13
8.04231e-13
8.23855e-13
5.0987e-12
5.00478e-12
3.86767e-13
5.87854e-13
5.09199e-13
4.39463e-13
4.01496e-13
4.42605e-13
1.18066e-12
9.30387e-13
5.04519e-12
5.01151e-12
3.56095e-13
5.28461e-13
4.55886e-13
3.91914e-13
3.55833e-13
4.06566e-13
1.24065e-12
9.99259e-13
4.9959e-12
5.01853e-12
3.4077e-13
4.76875e-13
4.08898e-13
3.46501e-13
3.12975e-13
3.64906e-13
1.19966e-12
9.77537e-13
4.94742e-12
5.01906e-12
3.38431e-13
4.32634e-13
3.68316e-13
3.08659e-13
2.74283e-13
3.2619e-13
1.16072e-12
9.55958e-13
4.89997e-12
5.01443e-12
3.46942e-13
3.97774e-13
3.37071e-13
2.78312e-13
2.41539e-13
2.90497e-13
1.1234e-12
9.35799e-13
4.85498e-12
5.00687e-12
3.61128e-13
3.70616e-13
3.11679e-13
2.53681e-13
2.14192e-13
2.5912e-13
1.08858e-12
9.16796e-13
4.81127e-12
4.99654e-12
3.78003e-13
3.50311e-13
2.94084e-13
2.36603e-13
1.94101e-13
2.30725e-13
1.05504e-12
8.99315e-13
5.4255e-12
4.99442e-12
3.95962e-13
3.35119e-13
2.81891e-13
2.25474e-13
1.78794e-13
2.07454e-13
1.0242e-12
8.81662e-13
3.3785e-09
1.33125e-10
3.00718e-12
3.25119e-13
2.73857e-13
2.19871e-13
1.71946e-13
1.88966e-13
9.93332e-13
8.65013e-13
9.85372e-07
3.3071e-08
9.51295e-10
1.85665e-11
3.21375e-13
2.2064e-13
1.74859e-13
1.8118e-13
9.64843e-13
9.04155e-13
5.10187e-12
4.97585e-12
3.53647e-13
6.11628e-13
5.38814e-13
4.65489e-13
4.13316e-13
4.34175e-13
1.11639e-12
8.88761e-13
5.04829e-12
4.98481e-12
2.94438e-13
5.43491e-13
4.81698e-13
4.17154e-13
3.7308e-13
4.0655e-13
1.18537e-12
9.61141e-13
4.99933e-12
4.9948e-12
2.54754e-13
4.81345e-13
4.28457e-13
3.7148e-13
3.33034e-13
3.69816e-13
1.15198e-12
9.42632e-13
4.95122e-12
4.99772e-12
2.35501e-13
4.26301e-13
3.80348e-13
3.29999e-13
2.96262e-13
3.36264e-13
1.12002e-12
9.24197e-13
4.9051e-12
4.99648e-12
2.358e-13
3.80272e-13
3.3964e-13
2.93978e-13
2.63228e-13
3.04314e-13
1.08933e-12
9.07312e-13
4.86043e-12
4.99117e-12
2.49227e-13
3.41936e-13
3.05647e-13
2.62893e-13
2.33398e-13
2.7492e-13
1.06036e-12
8.91214e-13
4.81734e-12
4.98295e-12
2.69732e-13
3.10007e-13
2.77276e-13
2.37476e-13
2.08547e-13
2.4808e-13
1.03245e-12
8.76567e-13
5.43127e-12
4.98291e-12
2.93507e-13
2.84965e-13
2.54976e-13
2.17023e-13
1.86996e-13
2.24062e-13
1.00586e-12
8.61719e-13
3.3785e-09
1.33126e-10
2.98957e-12
2.65067e-13
2.36148e-13
2.00969e-13
1.71508e-13
2.03641e-13
9.79947e-13
8.47671e-13
9.85372e-07
3.3071e-08
9.51277e-10
1.85445e-11
2.60779e-13
1.92079e-13
1.65873e-13
1.91747e-13
9.54585e-13
9.02486e-13
4.5471e-12
4.66516e-12
6.41777e-13
5.08234e-13
3.33307e-13
2.26291e-13
2.61376e-13
4.23457e-13
1.18076e-12
1.10114e-12
4.48818e-12
4.65277e-12
6.75383e-13
5.16949e-13
3.3606e-13
1.93865e-13
1.82315e-13
3.43018e-13
1.19983e-12
1.122e-12
4.43173e-12
4.63681e-12
7.05258e-13
5.33043e-13
3.56684e-13
1.97583e-13
1.1891e-13
2.59083e-13
1.12438e-12
1.05976e-12
4.37679e-12
4.6156e-12
7.3052e-13
5.51566e-13
3.8505e-13
2.25453e-13
9.10656e-14
1.81445e-13
1.05599e-12
1.00267e-12
4.32391e-12
4.59028e-12
7.53166e-13
5.71407e-13
4.16858e-13
2.64188e-13
1.15721e-13
1.15112e-13
9.93415e-13
9.50463e-13
4.2733e-12
4.56218e-12
7.71357e-13
5.91154e-13
4.49291e-13
3.06352e-13
1.62449e-13
6.93305e-14
9.37233e-13
9.04374e-13
4.2245e-12
4.53237e-12
7.86109e-13
6.09489e-13
4.80297e-13
3.48197e-13
2.12797e-13
7.53229e-14
8.86956e-13
8.6286e-13
4.86239e-12
4.511e-12
7.97474e-13
6.26074e-13
5.09088e-13
3.87217e-13
2.61236e-13
1.17181e-13
8.43243e-13
8.26181e-13
3.27762e-09
1.46256e-10
3.20877e-12
6.44241e-13
5.34847e-13
4.23995e-13
3.07149e-13
1.66528e-13
8.05478e-13
7.94603e-13
8.02449e-07
2.28011e-08
1.0803e-09
2.34224e-11
6.65066e-13
4.5747e-13
3.49802e-13
2.16158e-13
7.73154e-13
7.8865e-13
3.67648e-12
4.13522e-12
1.00932e-12
6.56852e-13
3.95971e-13
2.19307e-13
3.31636e-13
6.06832e-13
1.45219e-12
1.66966e-12
3.6108e-12
4.08706e-12
1.05938e-12
7.34545e-13
4.9894e-13
3.08623e-13
2.90394e-13
4.82457e-13
1.36019e-12
1.57808e-12
3.54422e-12
4.03025e-12
1.09018e-12
7.94419e-13
5.83636e-13
3.97831e-13
3.02975e-13
3.82009e-13
1.18946e-12
1.4147e-12
3.48003e-12
3.97116e-12
1.10929e-12
8.39908e-13
6.52302e-13
4.77742e-13
3.49413e-13
3.20393e-13
1.03536e-12
1.26709e-12
3.41913e-12
3.91057e-12
1.12052e-12
8.7634e-13
7.08963e-13
5.47663e-13
4.0818e-13
3.05098e-13
8.97827e-13
1.13464e-12
3.36173e-12
3.85044e-12
1.12411e-12
9.02705e-13
7.55192e-13
6.0919e-13
4.69887e-13
3.25821e-13
7.77309e-13
1.01651e-12
3.30683e-12
3.79065e-12
1.12309e-12
9.22622e-13
7.92261e-13
6.61273e-13
5.27929e-13
3.68631e-13
6.73907e-13
9.13905e-13
3.98264e-12
3.74064e-12
1.11712e-12
9.36179e-13
8.22904e-13
7.05396e-13
5.81538e-13
4.1949e-13
5.8855e-13
8.23685e-13
3.07139e-09
1.60263e-10
3.0899e-12
9.4976e-13
8.4684e-13
7.42452e-13
6.28757e-13
4.71676e-13
5.2013e-13
7.4798e-13
5.05027e-07
6.12161e-08
1.94983e-09
3.29414e-11
9.50962e-13
7.71603e-13
6.69177e-13
5.19573e-13
4.70352e-13
6.90938e-13
2.77738e-12
3.48779e-12
1.30415e-12
1.03645e-12
8.74848e-13
7.89649e-13
8.60568e-13
1.13574e-12
2.13145e-12
2.97278e-12
2.70701e-12
3.40541e-12
1.32338e-12
1.08901e-12
9.4443e-13
8.45178e-13
8.45092e-13
9.93397e-13
1.85415e-12
2.63594e-12
2.63287e-12
3.31148e-12
1.31901e-12
1.11725e-12
9.93194e-13
8.94826e-13
8.52048e-13
8.96635e-13
1.52714e-12
2.25348e-12
2.56267e-12
3.21946e-12
1.30567e-12
1.1309e-12
1.02687e-12
9.37385e-13
8.73937e-13
8.47531e-13
1.23744e-12
1.92022e-12
2.49755e-12
3.13017e-12
1.28547e-12
1.13598e-12
1.04963e-12
9.72006e-13
9.03894e-13
8.31479e-13
9.87866e-13
1.62982e-12
2.43611e-12
3.04416e-12
1.26115e-12
1.13262e-12
1.06329e-12
9.99199e-13
9.35328e-13
8.36984e-13
7.71889e-13
1.3776e-12
2.37902e-12
2.96108e-12
1.23406e-12
1.12429e-12
1.06935e-12
1.01784e-12
9.6294e-13
8.53944e-13
5.84535e-13
1.15992e-12
3.09077e-12
2.88943e-12
1.20461e-12
1.11061e-12
1.06985e-12
1.03093e-12
9.84415e-13
8.76208e-13
4.22037e-13
9.72822e-13
2.77635e-09
1.60678e-10
2.48986e-12
1.09693e-12
1.06464e-12
1.03669e-12
1.00116e-12
8.98891e-13
2.84302e-13
8.1364e-13
1.76277e-07
9.41142e-08
2.26983e-09
2.66969e-11
1.0262e-12
1.03433e-12
1.0117e-12
9.16815e-13
1.59044e-13
6.81019e-13
2.02818e-12
2.84309e-12
1.46145e-12
1.38118e-12
1.38151e-12
1.44534e-12
1.63981e-12
2.09099e-12
3.66493e-12
6.28235e-12
1.95542e-12
2.73436e-12
1.434e-12
1.37683e-12
1.38885e-12
1.44402e-12
1.57691e-12
1.85575e-12
3.0398e-12
5.26667e-12
1.87847e-12
2.6153e-12
1.38406e-12
1.34701e-12
1.37194e-12
1.42643e-12
1.52592e-12
1.6875e-12
2.4318e-12
4.3046e-12
1.80782e-12
2.50266e-12
1.33105e-12
1.3102e-12
1.34532e-12
1.40497e-12
1.49147e-12
1.57544e-12
1.92753e-12
3.50861e-12
1.74271e-12
2.39692e-12
1.27683e-12
1.26949e-12
1.31399e-12
1.37913e-12
1.46327e-12
1.50286e-12
1.51561e-12
2.85866e-12
1.68264e-12