/*--------------------------------*- C++ -*----------------------------------*\
| =========                 |                                                 |
| \\      /  F ield         | OpenFOAM: The Open Source CFD Toolbox           |
|  \\    /   O peration     | Version:  4.1                                   |
|   \\  /    A nd           | Web:      www.OpenFOAM.org                      |
|    \\/     M anipulation  |                                                 |
\*---------------------------------------------------------------------------*/
FoamFile
{
    version     2.0;
    format      ascii;
    class       surfaceScalarField;
    location    "0.94";
    object      phi;
}
// * * * * * * * * * * * * * * * * * * * * * * * * * * * * * * * * * * * * * //

dimensions      [1 0 -1 0 0 0 0];

internalField   nonuniform List<scalar> 
51500
(
3.61313e-13
1.92303e-14
1.37424e-11
-7.19599e-16
2.30795e-14
1.35915e-11
-3.63902e-15
2.14388e-14
1.34404e-11
-3.16853e-15
1.97419e-14
1.32924e-11
-3.04663e-15
1.80185e-14
1.31453e-11
-2.96522e-15
1.62881e-14
1.30001e-11
-3.09977e-15
1.45857e-14
1.2856e-11
-3.00775e-15
1.29389e-14
1.27151e-11
-3.19338e-15
1.1286e-14
1.25762e-11
9.6788e-15
1.24425e-11
-7.30752e-17
3.61519e-13
1.05934e-14
1.70966e-11
-1.17516e-14
1.19543e-14
1.65141e-11
-1.17151e-14
1.01557e-14
1.59474e-11
-1.14177e-14
8.44199e-15
1.54042e-11
-1.10486e-14
6.88739e-15
1.48844e-11
-1.06346e-14
5.4695e-15
1.43851e-11
-1.03118e-14
4.14332e-15
1.39055e-11
-1.00279e-14
3.47673e-15
1.34458e-11
-9.92521e-15
2.23469e-15
1.30025e-11
9.03198e-16
1.25884e-11
-9.06176e-16
3.5662e-13
1.34546e-14
2.15096e-11
-2.71356e-14
1.44885e-14
2.02467e-11
-2.33436e-14
1.19393e-14
1.90558e-11
-2.19919e-14
9.66156e-15
1.79492e-11
-2.07128e-14
7.64433e-15
1.6918e-11
-1.97872e-14
5.8484e-15
1.5958e-11
-1.86274e-14
4.2837e-15
1.50655e-11
-1.78088e-14
2.87931e-15
1.42301e-11
-1.7384e-14
1.65685e-15
1.34518e-11
6.36319e-16
1.27379e-11
-1.58879e-15
3.43369e-13
1.78029e-14
2.73844e-11
-4.89071e-14
1.79859e-14
2.50512e-11
-3.87329e-14
1.44038e-14
2.29344e-11
-3.56496e-14
1.13007e-14
2.10206e-11
-3.28828e-14
8.70338e-15
1.92997e-11
-3.04144e-14
6.50809e-15
1.77472e-11
-2.81759e-14
4.65628e-15
1.63432e-11
-2.61777e-14
3.06464e-15
1.50722e-11
-2.47669e-14
1.72037e-15
1.39187e-11
5.97998e-16
1.28896e-11
-2.41148e-15
3.1533e-13
2.40139e-14
3.53172e-11
-8.88321e-14
2.2706e-14
3.1305e-11
-5.97311e-14
1.75564e-14
2.78068e-11
-5.32468e-14
1.33555e-14
2.47544e-11
-4.77765e-14
9.98469e-15
2.21019e-11
-4.3005e-14
7.26756e-15
1.97854e-11
-3.90131e-14
5.04503e-15
1.77568e-11
-3.53778e-14
3.25405e-15
1.59763e-11
-3.2748e-14
1.79472e-15
1.44066e-11
6.41142e-16
1.30447e-11
-3.2049e-15
2.61534e-13
3.31167e-14
4.61824e-11
-1.59747e-13
2.9241e-14
3.95395e-11
-8.8181e-14
2.17221e-14
3.39878e-11
-7.61016e-14
1.5904e-14
2.93222e-11
-6.62295e-14
1.15194e-14
2.5412e-11
-5.81116e-14
8.12528e-15
2.21149e-11
-5.12274e-14
5.5174e-15
1.93232e-11
-4.53854e-14
3.47153e-15
1.69481e-11
-4.10037e-14
1.88155e-15
1.49156e-11
7.17552e-16
1.32024e-11
-4.11238e-15
1.66969e-13
5.83028e-14
6.1263e-11
-2.50051e-13
4.76854e-14
5.05365e-11
-1.27615e-13
3.37989e-14
4.18977e-11
-1.05865e-13
2.37285e-14
3.49493e-11
-8.92948e-14
1.64913e-14
2.93433e-11
-7.58923e-14
1.12236e-14
2.47877e-11
-6.52137e-14
7.30425e-15
2.10607e-11
-5.63712e-14
4.4075e-15
1.7992e-11
-4.97894e-14
2.22332e-15
1.54481e-11
5.57536e-16
1.33626e-11
-4.97562e-15
7.17556e-14
-7.46896e-13
8.2595e-11
-3.66465e-13
-8.35754e-13
6.54035e-11
-1.80207e-13
-8.61443e-13
5.2142e-11
-1.43435e-13
-8.77997e-13
4.19477e-11
-1.1639e-13
-8.89271e-13
3.40543e-11
-9.58342e-14
-8.96927e-13
2.78835e-11
-7.97547e-14
-9.02092e-13
2.30144e-11
-6.71531e-14
-9.05567e-13
1.91392e-11
-5.72795e-14
-9.07963e-13
1.60251e-11
-9.28692e-13
1.35495e-11
-5.93991e-15
4.16817e-12
-1.11581e-09
2.01107e-10
3.91611e-12
-1.2358e-09
1.62134e-10
3.55971e-12
-1.24946e-09
1.35994e-10
3.23964e-12
-1.25976e-09
1.16238e-10
2.95487e-12
-1.26817e-09
1.0112e-10
2.70247e-12
-1.27512e-09
8.93918e-11
2.47874e-12
-1.28091e-09
8.01866e-11
2.27967e-12
-1.28577e-09
7.2883e-11
2.00508e-12
-1.2901e-09
6.70306e-11
-1.33204e-09
6.33877e-11
-6.94041e-15
-7.95224e-10
1.97318e-07
-8.10714e-07
3.60328e-10
1.69075e-07
-9.35375e-07
4.4853e-10
1.49272e-07
-9.37802e-07
4.39907e-10
1.32588e-07
-9.39409e-07
4.2927e-10
1.18389e-07
-9.40833e-07
4.17712e-10
1.06247e-07
-9.4211e-07
4.05674e-10
9.5805e-08
-9.4327e-07
3.79477e-10
8.67759e-08
-9.44332e-07
6.07387e-11
7.89431e-08
-9.45485e-07
7.42195e-08
-8.01702e-15
-1.00197e-06
3.39886e-13
8.64241e-14
8.84166e-13
-1.66724e-14
8.17324e-14
8.69297e-13
-2.48356e-14
7.21057e-14
8.55712e-13
-2.38165e-14
6.2747e-14
8.40137e-13
-2.3354e-14
5.37204e-14
8.26272e-13
-2.31927e-14
4.49578e-14
8.13227e-13
-2.31236e-14
3.64877e-14
7.98504e-13
-2.29012e-14
2.83197e-14
7.85946e-13
-2.46836e-14
2.03378e-14
7.72948e-13
1.28315e-14
7.5915e-13
-1.59898e-15
2.8574e-13
7.97686e-14
1.2193e-12
-6.6796e-14
7.27997e-14
1.1592e-12
-8.25741e-14
6.16256e-14
1.10142e-12
-7.9032e-14
5.09176e-14
1.0459e-12
-7.69934e-14
4.02458e-14
9.93785e-13
-7.49059e-14
2.80883e-14
9.43606e-13
-7.26391e-14
2.00312e-14
8.98409e-13
-7.19531e-14
1.31784e-14
8.53991e-13
-7.5121e-14
7.36949e-15
8.13838e-13
2.49413e-15
7.73099e-13
-4.23598e-15
2.05597e-13
1.00753e-13
1.71067e-12
-1.69072e-13
9.02078e-14
1.56232e-12
-1.56087e-13
7.56142e-14
1.43383e-12
-1.47672e-13
6.20496e-14
1.30999e-12
-1.40545e-13
4.98346e-14
1.2008e-12
-1.34182e-13
3.87251e-14
1.1013e-12
-1.28494e-13
2.86256e-14
1.0118e-12
-1.23482e-13
1.95685e-14
9.30556e-13
-1.28579e-13
1.13404e-14
8.55438e-13
4.10895e-15
7.89324e-13
-6.6518e-15
8.7291e-14
1.23058e-13
2.44131e-12
-2.93827e-13
1.07154e-13
2.14057e-12
-2.5071e-13
8.77691e-14
1.88572e-12
-2.31562e-13
7.05155e-14
1.6571e-12
-2.16398e-13
5.54339e-14
1.46054e-12
-2.02748e-13
4.21925e-14
1.29052e-12
-1.89817e-13
3.06619e-14
1.1442e-12
-1.79387e-13
2.0542e-14
1.01658e-12
-1.83143e-13
1.17066e-14
9.0242e-13
4.08082e-15
8.03514e-13
-9.65742e-15
-2.73117e-14
1.51846e-13
3.5544e-12
-4.50811e-13
1.28234e-13
2.97992e-12
-3.70991e-13
1.02679e-13
2.51195e-12
-3.3491e-13
8.05728e-14
2.1155e-12
-3.0664e-13
6.18599e-14
1.78921e-12
-2.80882e-13
4.60933e-14
1.52099e-12
-2.58047e-13
3.27586e-14
1.29769e-12
-2.39198e-13
2.15474e-14
1.11053e-12
-2.39989e-13
1.20345e-14
9.52993e-13
4.19334e-15
8.20522e-13
-1.27068e-14
-1.53932e-13
1.88604e-13
5.29323e-12
-6.53957e-13
1.5579e-13
4.2163e-12
-5.24487e-13
1.2101e-13
3.38835e-12
-4.6253e-13
9.25404e-14
2.72313e-12
-4.13478e-13
6.93865e-14
2.2058e-12
-3.70736e-13
5.04855e-14
1.79899e-12
-3.3334e-13
3.51383e-14
1.47714e-12
-3.03314e-13
2.2575e-14
1.2182e-12
-2.98766e-13
1.243e-14
1.01002e-12
4.1534e-15
8.39448e-13
-1.56435e-14
-5.25757e-13
2.54149e-13
7.79615e-12
-9.2419e-13
2.14424e-13
6.07962e-12
-7.20102e-13
1.61976e-13
4.63358e-12
-6.1927e-13
1.20784e-13
3.53823e-12
-5.40519e-13
8.85147e-14
2.73733e-12
-4.73377e-13
6.29707e-14
2.13781e-12
-4.17082e-13
4.23626e-14
1.68452e-12
-3.71194e-13
2.53064e-14
1.33952e-12
-3.60122e-13
1.06573e-14
1.06973e-12
3.5264e-15
8.59726e-13
-1.86205e-14
-9.94236e-13
2.77716e-13
1.03824e-11
-1.28339e-12
1.59543e-13
8.25437e-12
-9.69902e-13
1.02164e-13
6.42955e-12
-8.11822e-13
6.06963e-14
4.65171e-12
-6.90177e-13
2.99286e-14
3.4246e-12
-5.90986e-13
6.74389e-15
2.55539e-12
-5.08521e-13
-1.09025e-14
1.93263e-12
-4.44274e-13
-2.45113e-14
1.47621e-12
-4.23129e-13
-3.51432e-14
1.13671e-12
-4.38868e-14
8.81678e-13
-2.16374e-14
-1.93566e-12
-7.7623e-12
3.04296e-11
-9.84107e-13
-9.33746e-11
1.62948e-11
-8.30891e-13
-8.48298e-11
1.16595e-11
-7.11512e-13
-7.6963e-11
8.65068e-12
-6.20003e-13
-7.05962e-11
6.6809e-12
-5.4844e-13
-6.53776e-11
5.3458e-12
-4.92436e-13
-6.10799e-11
4.41679e-12
-4.51177e-13
-5.75253e-11
3.75359e-12
-5.92888e-13
-5.45907e-11
3.26465e-12
-5.32368e-11
2.91509e-12
-2.47419e-14
-1.51198e-09
2.38459e-08
1.19867e-07
-2.53141e-10
1.38788e-08
-1.98716e-09
-4.07623e-10
1.05601e-08
-2.5772e-09
-4.03882e-10
8.18546e-09
-2.59083e-09
-3.97481e-10
6.43766e-09
-2.58311e-09
-3.89549e-10
5.12841e-09
-2.56415e-09
-3.80671e-10
4.13389e-09
-2.53889e-09
-3.71503e-10
3.36867e-09
-2.5111e-09
-3.7658e-10
2.77382e-09
-2.49918e-09
2.35455e-09
-2.81099e-14
-3.57266e-09
3.41171e-13
8.24429e-14
3.68843e-14
-1.56499e-14
7.82521e-14
3.47859e-14
-2.30672e-14
6.90124e-14
3.30927e-14
-2.05322e-14
6.01202e-14
3.17355e-14
-1.8673e-14
5.15116e-14
2.93193e-14
-2.07313e-14
4.31119e-14
2.6783e-14
-1.90866e-14
3.51279e-14
2.59205e-14
-1.97563e-14
2.73255e-14
2.44416e-14
-2.35968e-14
1.97854e-14
2.33705e-14
1.26706e-14
2.32227e-14
-1.26136e-15
2.89772e-13
5.99369e-14
5.84249e-14
-6.41608e-14
5.49691e-14
5.32829e-14
-7.37488e-14
4.66525e-14
5.06534e-14
-6.78774e-14
3.8608e-14
4.48149e-14
-6.71194e-14
3.1154e-14
4.02843e-14
-6.2974e-14
2.43065e-14
3.80756e-14
-6.25759e-14
1.79296e-14
3.23641e-14
-6.20467e-14
1.21304e-14
2.91957e-14
-7.13094e-14
6.8948e-15
2.78607e-14
2.44856e-15
2.47556e-14
-4.49185e-15
2.1074e-13
7.67403e-14
8.89877e-14
-1.6484e-13
6.94467e-14
8.01008e-14
-1.40256e-13
5.85486e-14
7.43061e-14
-1.27222e-13
4.85514e-14
6.58056e-14
-1.21172e-13
3.95808e-14
5.68975e-14
-1.14438e-13
3.18436e-14
4.8959e-14
-1.09386e-13
2.42005e-14
4.25372e-14
-1.07808e-13
1.67686e-14
3.76688e-14
-1.21142e-13
9.70014e-15
3.31925e-14
3.34081e-15
2.80613e-14
-7.23401e-15
9.0386e-14
9.54614e-14
1.42031e-13
-2.88846e-13
8.36449e-14
1.26172e-13
-2.25271e-13
6.88129e-14
1.1316e-13
-2.00152e-13
5.57978e-14
9.44999e-14
-1.86417e-13
4.4605e-14
7.91107e-14
-1.72963e-13
3.59409e-14
6.69574e-14
-1.59939e-13
2.62538e-14
5.6659e-14
-1.56598e-13
1.74016e-14
4.78933e-14
-1.73114e-13
9.9547e-15
4.26053e-14
3.53667e-15
3.37219e-14
-1.04829e-14
-2.80184e-14
1.20489e-13
2.37375e-13
-4.46381e-13
1.01498e-13
2.01605e-13
-3.34191e-13
8.15125e-14
1.73997e-13
-2.87694e-13
6.43369e-14
1.40652e-13
-2.61513e-13
5.00648e-14
1.13228e-13
-2.37714e-13
3.92705e-14
9.20398e-14
-2.16895e-13
2.83396e-14
7.58995e-14
-2.07151e-13
1.87118e-14
6.40188e-14
-2.26943e-13
1.0556e-14
5.44129e-14
3.7582e-15
4.13875e-14
-1.30503e-14
-1.64964e-13
1.53329e-13
4.05926e-13
-6.52537e-13
1.25839e-13
3.33538e-13
-4.73665e-13
9.75383e-14
2.71891e-13
-3.7627e-13
7.46279e-14
2.08116e-13
-3.3557e-13
5.67951e-14
1.63027e-13
-2.96879e-13
4.3484e-14
1.28761e-13
-2.6614e-13
3.02955e-14
1.03272e-13
-2.60551e-13
1.96168e-14
8.52213e-14
-2.82905e-13
1.06856e-14
6.6962e-14
3.5828e-15
4.88978e-14
-1.65161e-14
-5.79503e-13
1.8746e-13
7.07558e-13
-9.3121e-13
1.56401e-13
5.53546e-13
-6.20995e-13
1.17876e-13
4.23104e-13
-4.97352e-13
8.82668e-14
3.12467e-13
-4.32256e-13
6.74235e-14
2.34024e-13
-3.74478e-13
5.00233e-14
1.783e-13
-3.25699e-13
3.4427e-14
1.39563e-13
-3.16109e-13
2.18766e-14
1.09796e-13
-3.40964e-13
1.20399e-14
8.6549e-14
4.45651e-15
5.98657e-14
-1.95523e-14
-1.10703e-12
3.58348e-13
1.26405e-12
-1.30832e-12
2.26989e-13
9.26871e-13
-8.07351e-13
1.59109e-13
6.6781e-13
-6.52066e-13
1.11158e-13
4.67256e-13
-5.48652e-13
7.68212e-14
3.36339e-13
-4.63282e-13
5.18545e-14
2.47017e-13
-3.94823e-13
3.35281e-14
1.84283e-13
-3.55422e-13
2.00268e-14
1.40493e-13
-4.01043e-13
9.96275e-15
1.10469e-13
2.58645e-15
7.15505e-14
-2.28875e-14
-2.59375e-12
8.74363e-11
9.78274e-12
-1.64311e-12
-8.36056e-14
1.37465e-12
-1.06906e-12
-9.66579e-13
8.64634e-13
-8.54588e-13
-9.9349e-13
6.04241e-13
-7.02638e-13
-1.01872e-12
4.41338e-13
-5.83489e-13
-1.03495e-12
3.35858e-13
-4.89282e-13
-1.04185e-12
2.64295e-13
-4.32752e-13
-1.04079e-12
2.13267e-13
-4.84134e-13
-1.03381e-12
1.75831e-13
-1.02257e-12
1.30895e-13
-2.62561e-14
-1.0715e-09
8.82398e-09
1.06095e-07
-7.00154e-11
8.68724e-10
3.09353e-10
-6.9976e-11
4.98334e-10
-1.33056e-10
-5.98414e-11
3.3431e-10
-1.12577e-10
-5.10793e-11
2.30487e-10
-9.27064e-11
-4.38788e-11
1.62267e-10
-7.59835e-11
-3.7928e-11
1.16473e-10
-6.1434e-11
-3.29896e-11
8.51209e-11
-4.84898e-11
-2.90233e-11
6.32924e-11
-3.91547e-11
4.79273e-11
-2.97425e-14
-4.17782e-11
3.41448e-13
8.10968e-14
1.17065e-14
-1.55245e-14
7.70784e-14
1.06015e-14
-2.2443e-14
6.80127e-14
1.06993e-14
-2.01966e-14
5.92354e-14
6.21786e-15
-1.84515e-14
5.07971e-14
6.34493e-15
-1.95926e-14
4.26277e-14
4.37435e-15
-1.84238e-14
3.46945e-14
3.2148e-15
-1.92312e-14
2.70266e-14
1.15769e-15
-2.30629e-14
1.9653e-14
8.53701e-16
1.26248e-14
8.39012e-16
-1.54716e-15
2.9131e-13
5.82554e-14
1.91666e-14
-6.31594e-14
5.3544e-14
1.67393e-14
-7.19892e-14
4.54554e-14
1.74402e-14
-6.47966e-14
3.77385e-14
1.40362e-14
-6.15672e-14
3.0482e-14
1.07969e-14
-6.21812e-14
2.37342e-14
7.20545e-15
-5.94049e-14
1.75963e-14
8.06804e-15
-5.89217e-14
1.19504e-14
5.0829e-15
-7.02577e-14
6.79586e-15
3.85952e-15
2.44595e-15
3.29613e-15
-4.22123e-15
2.14441e-13
7.39837e-14
2.84565e-14
-1.61795e-13
6.69875e-14
2.63314e-14
-1.34864e-13
5.62918e-14
2.71919e-14
-1.17907e-13
4.62995e-14
2.1418e-14
-1.13878e-13
3.73621e-14
1.75576e-14
-1.03719e-13
2.93093e-14
1.45476e-14
-9.87818e-14
2.17979e-14
1.15115e-14
-1.04144e-13
1.49935e-14
8.92188e-15
-1.19143e-13
9.40788e-15
1.01739e-14
3.11245e-15
7.95543e-15
-7.01262e-15
9.49754e-14
9.20453e-14
4.65029e-14
-2.83708e-13
8.05237e-14
4.49844e-14
-2.1642e-13
6.60775e-14
4.58641e-14
-1.79561e-13
5.33811e-14
3.78823e-14
-1.67174e-13
4.21233e-14
3.10247e-14
-1.55554e-13
3.22618e-14
2.60262e-14
-1.44806e-13
2.35799e-14
2.14398e-14
-1.49364e-13
1.58723e-14
1.81508e-14
-1.70329e-13
9.57353e-15
1.54935e-14
3.62133e-15
1.07577e-14
-1.06365e-14
-2.08566e-14
1.16095e-13
8.08501e-14
-4.37917e-13
9.79182e-14
8.12569e-14
-3.17003e-13
7.83702e-14
7.79525e-14
-2.58824e-13
6.13897e-14
6.27087e-14
-2.3507e-13
4.73706e-14
5.20306e-14
-2.14067e-13
3.55353e-14
4.22904e-14
-1.95345e-13
2.56535e-14
3.49001e-14
-1.97494e-13
1.80001e-14
3.06976e-14
-2.23196e-13
9.49339e-15
2.75351e-14
3.51985e-15
1.77951e-14
-1.33181e-14
-1.55047e-13
1.47824e-13
1.44337e-13
-6.39545e-13
1.21197e-13
1.42106e-13
-4.2566e-13
9.35821e-14
1.3104e-13
-3.54954e-13
7.14109e-14
1.05065e-13
-3.16098e-13
5.36091e-14
8.44516e-14
-2.80707e-13
3.91208e-14
6.96354e-14
-2.50123e-13
2.74492e-14
5.72043e-14
-2.49054e-13
1.7806e-14
4.75956e-14
-2.7807e-13
1.04993e-14
4.14977e-14
3.73261e-15
2.71174e-14
-1.67182e-14
-5.58321e-13
1.82405e-13
2.58102e-13
-9.11605e-13
1.50555e-13
2.52428e-13
-5.71794e-13
1.12978e-13
2.16099e-13
-4.75411e-13
8.35145e-14
1.6908e-13
-4.12432e-13
6.09871e-14
1.33187e-13
-3.5712e-13
4.3614e-14
1.06861e-13
-3.12033e-13
2.98748e-14
8.62609e-14
-2.85149e-13
1.907e-14
7.22376e-14
-3.35555e-13
1.09792e-14
6.09194e-14
3.45663e-15
3.85231e-14
-1.99413e-14
-1.07535e-12
3.52297e-13
4.72214e-13
-1.27731e-12
2.20591e-13
4.41074e-13
-7.69848e-13
2.06215e-13
3.52577e-13
-6.25906e-13
1.44576e-13
2.6586e-13
-5.26792e-13
1.00415e-13
2.03663e-13
-4.45658e-13
6.8437e-14
1.58491e-13
-3.80228e-13
4.50045e-14
1.26154e-13
-3.34508e-13
2.76481e-14
1.02831e-13
-3.95513e-13
1.44365e-14
8.40154e-14
4.13156e-15
5.43707e-14
-2.28827e-14
-2.55848e-12
9.20908e-11
1.4711e-11
-1.5694e-12
1.29676e-12
8.73253e-13
-1.02609e-12
2.82318e-13
5.61329e-13
-8.14949e-13
1.73417e-13
4.09669e-13
-6.64738e-13
1.06186e-13
3.02948e-13
-5.47451e-13
6.11187e-14
2.29671e-13
-4.55257e-13
3.11133e-14
1.76098e-13
-3.91378e-13
1.10542e-14
1.38187e-13
-4.57493e-13
-2.31957e-15
1.09164e-13
-1.08366e-14
6.77198e-14
-2.63986e-14
-1.001e-09
1.22315e-08
1.05917e-07
-1.31134e-11
1.78869e-10
4.77186e-10
-4.0118e-12
1.91426e-11
-1.86862e-12
-4.61734e-12
1.07074e-11
-2.16537e-12
-3.52052e-12
6.4811e-12
-1.14814e-12
-2.71242e-12
4.08432e-12
-7.28671e-13
-2.12072e-12
2.65144e-12
-4.4756e-13
-1.68415e-12
1.76945e-12
-2.58201e-13
-1.38822e-12
1.20623e-12
-1.33513e-13
8.02258e-13
-3.00864e-14
7.57404e-14
3.4134e-13
8.11388e-14
1.62967e-14
-1.59009e-14
7.7091e-14
1.40543e-14
-2.25819e-14
6.80979e-14
1.19596e-14
-2.05512e-14
5.93051e-14
7.55073e-15
-1.71212e-14
5.0835e-14
6.14443e-15
-2.02323e-14
4.26143e-14
3.51599e-15
-1.93307e-14
3.47466e-14
5.80156e-15
-1.8847e-14
2.71039e-14
4.59049e-15
-2.29698e-14
1.9687e-14
6.83434e-16
1.26754e-14
1.72797e-16
-1.93465e-15
2.91049e-13
5.83254e-14
2.49936e-14
-6.31623e-14
5.36319e-14
2.44478e-14
-7.24183e-14
4.54751e-14
1.86151e-14
-6.53894e-14
3.7708e-14
1.64104e-14
-6.28647e-14
3.04984e-14
1.11726e-14
-6.0456e-14
2.37931e-14
8.54725e-15
-5.97584e-14
1.76007e-14
6.07163e-15
-5.97832e-14
1.19755e-14
7.02128e-15
-7.00546e-14
6.8568e-15
6.21233e-15
2.49728e-15
1.52703e-15
-4.39015e-15
2.14176e-13
7.40448e-14
3.74127e-14
-1.62197e-13
6.70201e-14
3.54146e-14
-1.35925e-13
5.63631e-14
3.39334e-14
-1.1516e-13
4.6517e-14
3.26948e-14
-1.10732e-13
3.74981e-14
2.26968e-14
-1.05348e-13
2.94663e-14
1.67317e-14
-9.8084e-14
2.20685e-14
1.50689e-14
-1.04131e-13
1.51027e-14
1.1604e-14
-1.18981e-13
8.83092e-15
1.10977e-14
3.02402e-15
6.11497e-15
-7.39881e-15
9.4746e-14
9.22007e-14
6.3025e-14
-2.84173e-13
8.07795e-14
6.21312e-14
-2.16607e-13
6.62308e-14
6.21759e-14
-1.80004e-13
5.33825e-14
4.9348e-14
-1.66474e-13
4.22144e-14
4.11349e-14
-1.56211e-13
3.21677e-14
3.2234e-14
-1.44499e-13
2.34389e-14
2.98422e-14
-1.49574e-13
1.60463e-14
2.51948e-14
-1.70426e-13
1.00981e-14
2.12529e-14
3.83775e-15
2.0295e-14
-1.01197e-14
-2.10599e-14
1.16408e-13
1.08886e-13
-4.38952e-13
9.81044e-14
1.08316e-13
-3.18031e-13
7.86425e-14
1.0764e-13
-2.58054e-13
6.17065e-14
8.94325e-14
-2.35818e-13
4.75592e-14
7.27627e-14
-2.14632e-13
3.59095e-14
6.32048e-14
-1.94687e-13
2.61493e-14
5.4934e-14
-1.95956e-13
1.76711e-14
4.2547e-14
-2.23758e-13
9.32907e-15
3.42881e-14
3.70488e-15
2.38244e-14
-1.32698e-14
-1.55916e-13
1.48297e-13
1.86426e-13
-6.40767e-13
1.21728e-13
1.97868e-13
-4.25837e-13
9.39635e-14
1.7846e-13
-3.55728e-13
7.17478e-14
1.44481e-13
-3.1601e-13
5.39311e-14
1.17993e-13
-2.81393e-13
3.93298e-14
9.794e-14
-2.50753e-13
2.75591e-14
7.79538e-14
-2.42794e-13
1.83786e-14
6.93148e-14
-2.78716e-13
1.08366e-14
5.7672e-14
3.7164e-15
3.6286e-14
-1.65983e-14
-5.60538e-13
1.82977e-13
3.33476e-13
-9.14393e-13
1.51345e-13
3.45042e-13
-5.72306e-13
1.13583e-13
3.0547e-13
-4.76598e-13
8.39573e-14
2.34083e-13
-4.13192e-13
6.13506e-14
1.92127e-13
-3.58267e-13
4.38247e-14
1.50754e-13
-3.12279e-13
3.01228e-14
1.2449e-13
-2.85142e-13
1.90734e-14
1.01079e-13
-3.36762e-13
1.11367e-14
8.24308e-14
4.13691e-15
5.50007e-14
-1.97683e-14
-1.0799e-12
3.57941e-13
6.03121e-13
-1.28219e-12
2.22041e-13
6.04873e-13
-7.71511e-13
1.40714e-13
4.97541e-13
-6.27807e-13
1.04483e-13
3.78209e-13
-5.2861e-13
7.84527e-14
2.93253e-13
-4.47056e-13
5.58104e-14
2.33884e-13
-3.81273e-13
3.73316e-14
1.81877e-13
-3.35743e-13
2.34477e-14
1.47048e-13
-3.96902e-13
1.27783e-14
1.18498e-13
4.93343e-15
7.55974e-14
-2.30963e-14
-2.61761e-12
9.80172e-11
2.31174e-11
-1.53363e-12
1.22742e-12
1.29537e-12
-1.02981e-12
2.02674e-13
8.11248e-13
-8.18879e-13
1.75224e-13
5.85944e-13
-6.67301e-13
1.17123e-13
4.38253e-13
-5.49915e-13
7.69949e-14
3.30321e-13
-4.56733e-13
4.88099e-14
2.52207e-13
-3.92632e-13
2.87965e-14
2.00906e-13
-4.59333e-13
1.44159e-14
1.5796e-13
4.56297e-15
1.00193e-13
-2.64879e-14
-1.05831e-09
1.97692e-08
1.121e-07
-9.24593e-12
2.05274e-10
5.37896e-10
-1.62076e-12
3.28739e-12
2.04168e-12
-1.15302e-12
1.20859e-12
1.20283e-13
-9.06714e-13
8.14398e-13
8.08408e-14
-7.16505e-13
5.74094e-13
6.78018e-14
-5.74838e-13
4.17663e-13
5.67305e-14
-4.78976e-13
3.11501e-13
4.75237e-14
-5.41569e-13
2.35758e-13
4.53466e-14
1.44705e-13
-3.00387e-14
3.50123e-14
3.41015e-13
8.12802e-14
2.2987e-14
-1.62221e-14
7.72357e-14
1.46735e-14
-2.32398e-14
6.81441e-14
1.88995e-14
-2.00232e-14
5.9412e-14
1.29155e-14
-1.9209e-14
5.0883e-14
7.74684e-15
-1.92494e-14
4.26707e-14
4.43478e-15
-1.93085e-14
3.47507e-14
1.92422e-15
-1.98377e-14
2.71296e-14
1.51463e-15
-2.30422e-14
1.97605e-14
1.61972e-15
1.27004e-14
2.92702e-15
-1.40729e-15
2.90712e-13
5.85162e-14
3.92037e-14
-6.39156e-14
5.37932e-14
3.48706e-14
-7.16836e-14
4.56599e-14
3.30283e-14
-6.7024e-14
3.78401e-14
2.13471e-14
-6.22007e-14
3.06226e-14
2.05394e-14
-6.12844e-14
2.38772e-14
1.24975e-14
-5.85594e-14
1.76934e-14
7.98004e-15
-5.95936e-14
1.20324e-14
5.32498e-15
-7.04787e-14
6.91612e-15
5.22316e-15
2.56363e-15
5.56303e-15
-4.42615e-15
2.1354e-13
7.43582e-14
5.18656e-14
-1.63253e-13
6.72812e-14
5.26748e-14
-1.35776e-13
5.65976e-14
5.64332e-14
-1.16929e-13
4.66354e-14
4.26469e-14
-1.14104e-13
3.76274e-14
3.25475e-14
-1.03945e-13
2.95348e-14
2.6339e-14
-9.89218e-14
2.22068e-14
1.73222e-14
-1.03693e-13
1.53845e-14
1.63811e-14
-1.19278e-13
9.13429e-15
1.17708e-14
3.33358e-15
1.1189e-14
-7.53065e-15
9.39553e-14
9.27095e-14
9.19665e-14
-2.85462e-13
8.11939e-14
9.06949e-14
-2.17766e-13
6.66024e-14
9.38047e-14
-1.80078e-13
5.37574e-14
7.62918e-14
-1.68002e-13
4.25452e-14
5.87318e-14
-1.55465e-13
3.25641e-14
4.15155e-14
-1.44972e-13
2.36851e-14
3.30493e-14
-1.50267e-13
1.61445e-14
2.99962e-14
-1.70467e-13
1.00881e-14
2.55736e-14
3.63638e-15
1.54476e-14
-1.02375e-14
-2.25113e-14
1.17144e-13
1.61015e-13
-4.40897e-13
9.87933e-14
1.64211e-13
-3.19565e-13
7.91255e-14
1.61044e-13
-2.5903e-13
6.21008e-14
1.29783e-13
-2.36346e-13
4.78424e-14
1.06559e-13
-2.15789e-13
3.61491e-14
8.5813e-14
-1.95056e-13
2.61183e-14
6.03183e-14
-1.97483e-13
1.78225e-14
5.1221e-14
-2.24128e-13
9.78218e-15
4.28804e-14
3.95667e-15
2.70044e-14
-1.33125e-14
-1.58028e-13
1.49539e-13
2.81768e-13
-6.44312e-13
1.22717e-13
2.93406e-13
-4.27496e-13
9.48499e-14
2.70624e-13
-3.57382e-13
7.23995e-14
2.11824e-13
-3.16833e-13
5.45739e-14
1.70897e-13
-2.83572e-13
3.97169e-14
1.3568e-13
-2.51151e-13
2.80751e-14
1.11682e-13
-2.42582e-13
1.85271e-14
7.99902e-14
-2.79764e-13
1.09883e-14
6.70397e-14
4.06268e-15
4.30565e-14
-1.63114e-14
-5.66646e-13
1.84663e-13
4.99783e-13
-9.19877e-13
1.52899e-13
5.12888e-13
-5.76718e-13
1.14737e-13
4.42189e-13
-4.78597e-13
8.49317e-14
3.46957e-13
-4.16003e-13
6.20432e-14
2.6996e-13
-3.59977e-13
4.45515e-14
2.15332e-13
-3.14095e-13
3.0684e-14
1.6971e-13
-2.86401e-13
1.95842e-14
1.20925e-13
-3.38155e-13
1.15508e-14
1.00407e-13
4.48855e-15
6.1957e-14
-1.97247e-14
-1.0911e-12
3.62978e-13
9.13198e-13
-1.2919e-12
2.24803e-13
8.98179e-13
-7.77216e-13
1.39241e-13
7.2648e-13
-6.32266e-13
1.01876e-13
5.47004e-13
-5.32095e-13
7.30118e-14
4.17452e-13
-4.50247e-13
5.41744e-14
3.19771e-13
-3.83907e-13
3.69343e-14
2.51491e-13
-3.37995e-13
2.35326e-14
1.7469e-13
-3.99046e-13
1.29936e-14
1.37602e-13
5.19934e-15
8.62384e-14
-2.29615e-14
-2.66818e-12
1.03816e-10
2.91467e-11
-1.51382e-12
1.28497e-12
1.84735e-12
-1.03924e-12
1.99178e-13
1.18718e-12
-8.25947e-13
1.65913e-13
8.58204e-13
-6.73114e-13
1.08872e-13
6.29152e-13
-5.54784e-13
6.76433e-14
4.68808e-13
-4.60219e-13
3.18867e-14
3.46892e-13
-3.95941e-13
1.75408e-14
2.52238e-13
-4.62668e-13
9.0544e-15
1.89976e-13
3.75574e-15
1.14539e-13
-2.65103e-14
-1.12507e-09
2.59294e-08
1.20889e-07
-9.53173e-12
2.94924e-10
5.77864e-10
-1.64407e-12
3.00575e-12
2.28479e-12
-1.06247e-12
1.05632e-12
1.10471e-13
-8.44868e-13
7.61876e-13
6.59041e-14
-6.75014e-13
5.60702e-13
5.03644e-14
-5.46705e-13
4.17172e-13
3.94365e-14
-4.57513e-13
3.13881e-13
3.14381e-14
-5.29127e-13
2.37983e-13
2.54551e-14
1.41748e-13
-3.02672e-14
2.09488e-14
3.40465e-13
8.14903e-14
2.96826e-14
-1.64212e-14
7.74416e-14
2.82103e-14
-2.38965e-14
6.8257e-14
2.22235e-14
-1.97119e-14
5.95169e-14
1.82229e-14
-1.96714e-14
5.09939e-14
8.26183e-15
-2.01594e-14
4.27687e-14
7.92555e-15
-1.9093e-14
3.48615e-14
6.60046e-15
-1.97897e-14
2.72126e-14
1.078e-14
-2.27382e-14
1.98499e-14
3.20071e-14
1.27667e-14
8.84219e-14
-1.96826e-15
2.90139e-13
5.87027e-14
5.17203e-14
-6.45461e-14
5.39695e-14
4.44917e-14
-7.22481e-14
4.58651e-14
4.46719e-14
-6.65847e-14
3.79963e-14
3.49534e-14
-6.37493e-14
3.07248e-14
1.83183e-14
-6.12445e-14
2.39877e-14
1.35713e-14
-5.98467e-14
1.77859e-14
1.38813e-14
-5.91916e-14
1.2163e-14
1.38351e-14
-7.04624e-14
6.99775e-15
2.21454e-14
2.62866e-15
6.21721e-14
-4.63865e-15
2.12796e-13
7.47524e-14
7.47103e-14
-1.64235e-13
6.75763e-14
6.75924e-14
-1.36783e-13
5.6831e-14
6.88881e-14
-1.17899e-13
4.68598e-14
5.64148e-14
-1.11712e-13
3.7799e-14
4.39626e-14
-1.06129e-13
2.9606e-14
2.35107e-14
-9.72797e-14
2.23004e-14
1.93868e-14
-1.04837e-13
1.53266e-14
2.32058e-14
-1.19429e-13
9.76427e-15
2.95197e-14
3.26225e-15
4.93945e-14
-7.7592e-15
9.29658e-14
9.33168e-14
1.19355e-13
-2.86855e-13
8.17125e-14
1.17486e-13
-2.18883e-13
6.70428e-14
1.19307e-13
-1.8123e-13
5.41463e-14
9.76636e-14
-1.68625e-13
4.29776e-14
7.92289e-14
-1.56228e-13
3.30131e-14
4.93047e-14
-1.44784e-13
2.39943e-14
3.86069e-14
-1.49689e-13
1.64452e-14
4.19483e-14
-1.71432e-13
9.68296e-15
4.21212e-14
4.16569e-15
4.98475e-14
-9.95406e-15
-2.42402e-14
1.18072e-13
2.06817e-13
-4.43141e-13
9.96096e-14
2.09543e-13
-3.21671e-13
7.97876e-14
2.02237e-13
-2.60004e-13
6.25911e-14
1.66153e-13
-2.37203e-13
4.82241e-14
1.35296e-13
-2.1733e-13
3.64671e-14
1.07838e-13
-1.95386e-13
2.64849e-14
6.64585e-14
-1.98667e-13
1.77379e-14
5.76759e-14
-2.24849e-13
1.01115e-14
6.42866e-14
4.25634e-15
5.88975e-14
-1.34411e-14
-1.60699e-13
1.5101e-13
3.67339e-13
-6.48156e-13
1.23871e-13
3.72208e-13
-4.31351e-13
9.57898e-14
3.40731e-13
-3.5919e-13
7.32562e-14
2.7651e-13
-3.18229e-13
5.52603e-14
2.22125e-13
-2.85065e-13
4.02977e-14
1.81357e-13
-2.53059e-13
2.84135e-14
1.08992e-13
-2.4172e-13
1.89073e-14
8.73564e-14
-2.80843e-13
1.14387e-14
8.28977e-14
4.07265e-15
7.46029e-14
-1.65686e-14
-5.74084e-13
1.87518e-13
6.46091e-13
-9.2627e-13
1.54787e-13
6.4949e-13
-5.80671e-13
1.16143e-13
5.64583e-13
-4.8209e-13
8.60158e-14
4.43304e-13
-4.18386e-13
6.29308e-14
3.49444e-13
-3.62545e-13
4.52405e-14
2.78546e-13
-3.16639e-13
3.15492e-14
1.85505e-13
-2.87072e-13
2.01023e-14
1.30421e-13
-3.40147e-13
1.16939e-14
1.09814e-13
4.88018e-15
9.74891e-14
-1.9762e-14
-1.10452e-12
3.5647e-13
1.1541e-12
-1.30272e-12
2.27776e-13
1.12263e-12
-7.83986e-13
1.41686e-13
9.20445e-13
-6.37583e-13
1.03302e-13
6.97258e-13
-5.3651e-13
7.40332e-14
5.32941e-13
-4.53317e-13
5.46222e-14
4.15205e-13
-3.88097e-13
3.75027e-14
3.20895e-13
-3.40468e-13
2.42104e-14
1.92037e-13
-4.01834e-13
1.36285e-14
1.49699e-13
5.67295e-15
1.25697e-13
-2.30649e-14
-2.60046e-12
9.75339e-11
2.34376e-11
-1.60234e-12
1.11507e-12
2.09071e-12
-1.05112e-12
2.01236e-13
1.50314e-12
-8.34463e-13
1.68703e-13
1.08557e-12
-6.80034e-13
1.10696e-13
8.0476e-13
-5.60316e-13
6.88861e-14
6.0652e-13
-4.6544e-13
3.27953e-14
4.66104e-13
-3.99476e-13
1.8209e-14
2.70825e-13
-4.67068e-13
9.52903e-15
2.02063e-13
4.21877e-15
1.3277e-13
-2.6569e-14
-1.06769e-09
2.21887e-08
1.23348e-07
-8.27215e-12
1.87144e-10
5.35172e-10
-1.59885e-12
3.13367e-12
1.63952e-12
-1.07545e-12
1.62269e-12
8.77594e-14
-8.54049e-13
1.17396e-12
6.42568e-14
-6.82357e-13
8.59402e-13
5.01259e-14
-5.53706e-13
6.41294e-13
3.98541e-14
-4.62339e-13
3.89684e-13
3.23194e-14
-5.35133e-13
2.68934e-13
2.64912e-14
1.62846e-13
-3.00734e-14
2.23141e-14
3.4026e-13
8.16454e-14
1.51545e-14
-1.7121e-14
7.74097e-14
-4.12764e-15
-2.3757e-14
6.8343e-14
1.95107e-15
-2.06353e-14
5.95924e-14
7.01207e-15
-2.02181e-14
5.11183e-14
2.28776e-14
-2.10932e-14
4.29597e-14
5.25443e-14
-2.06707e-14
3.51322e-14
1.05804e-13
-1.92323e-14
2.76545e-14
3.89802e-13
-9.50136e-15
2.04905e-14
1.49996e-12
1.28818e-14
3.99684e-12
-1.53399e-14
2.89421e-13
5.88615e-14
2.22162e-14
-6.48179e-14
5.40201e-14
-6.12415e-15
-7.27322e-14
4.58625e-14
6.84184e-15
-6.69824e-14
3.8064e-14
1.10936e-14
-6.44496e-14
3.08407e-14
2.54045e-14
-6.15187e-14
2.41459e-14
5.23296e-14
-6.1991e-14
1.79727e-14
9.21261e-14
-6.39484e-14
1.2421e-14
2.58281e-13
-6.93078e-14
7.43721e-15
8.95316e-13
2.71804e-15
2.62735e-12
-1.47491e-14
2.11889e-13
7.49737e-14
2.92371e-14
-1.64937e-13
6.76893e-14
-7.89244e-15
-1.36675e-13
5.70238e-14
1.09887e-14
-1.18884e-13
4.7023e-14
1.72393e-14
-1.12212e-13
3.80042e-14
2.95156e-14
-1.06387e-13
2.99734e-14
5.64173e-14
-1.00763e-13
2.26738e-14
9.84614e-14
-1.07248e-13
1.5548e-14
1.96328e-13
-1.23861e-13
9.29163e-15
5.87937e-13
3.51004e-15
1.73523e-12
-1.14709e-14
9.22839e-14
9.37567e-14
5.04105e-14
-2.87416e-13
8.19268e-14
1.16791e-15
-2.19299e-13
6.72305e-14
2.80029e-14
-1.8181e-13
5.43958e-14
3.49134e-14
-1.68235e-13
4.32284e-14
4.78267e-14
-1.56677e-13
3.31412e-14
6.89188e-14
-1.47886e-13
2.43943e-14
1.0946e-13
-1.53035e-13
1.70101e-14
1.73773e-13
-1.77292e-13
9.93856e-15
4.31304e-13
4.45221e-15
1.20084e-12
-8.99151e-15
-2.52855e-14
1.18811e-13
8.97357e-14
-4.4389e-13
1.00005e-13
3.30808e-14
-3.21475e-13
8.01852e-14
6.43127e-14
-2.60894e-13
6.30626e-14
6.94286e-14
-2.37858e-13
4.86869e-14
7.72943e-14
-2.16982e-13
3.70762e-14
1.19783e-13
-1.97413e-13
2.67561e-14
1.28551e-13
-2.03704e-13
1.7936e-14
1.78043e-13
-2.31389e-13
1.07446e-14
3.55931e-13
4.24326e-15
8.72964e-13
-1.03539e-14
-1.62639e-13
1.52074e-13
1.64546e-13
-6.49148e-13
1.24458e-13
1.00834e-13
-4.30697e-13
9.64051e-14
1.32196e-13
-3.60862e-13
7.38376e-14
1.30501e-13
-3.18284e-13
5.58454e-14
1.30778e-13
-2.87214e-13
4.07794e-14
1.67836e-13
-2.5462e-13
2.87693e-14
1.64054e-13
-2.46378e-13
1.93119e-14
2.13492e-13
-2.88136e-13
1.16333e-14
3.26759e-13
4.5804e-15
6.722e-13
-1.25182e-14
-5.79445e-13
1.94567e-13
3.05344e-13
-9.27589e-13
1.55963e-13
2.317e-13
-5.82139e-13
1.1697e-13
2.51686e-13
-4.83955e-13
8.68452e-14
2.29336e-13
-4.19365e-13
6.36606e-14
2.11661e-13
-3.65476e-13
4.5935e-14
2.04609e-13
-3.18228e-13
3.24591e-14
1.7439e-13
-2.91562e-13
2.09623e-14
2.51134e-13
-3.47897e-13
1.24013e-14
3.2803e-13
5.11314e-15
5.51017e-13
-1.65918e-14
-1.11225e-12
3.1361e-13
5.36977e-13
-1.3049e-12
1.85775e-13
4.74172e-13
-7.8673e-13
1.45507e-13
4.5303e-13
-6.40434e-13
1.04682e-13
3.87935e-13
-5.38797e-13
7.53591e-14
3.37189e-13
-4.55828e-13
5.59102e-14
3.01239e-13
-3.91702e-13
3.86174e-14
3.65324e-13
-3.44582e-13
2.48832e-14
3.05359e-13
-4.10678e-13
1.43513e-14
3.54402e-13
6.33508e-15
4.79361e-13
-2.17036e-14
-2.1229e-12
4.11754e-11
-4.35689e-12
-1.77309e-12
3.45186e-13
6.67738e-13
-1.05894e-12
2.48695e-13
7.77334e-13
-8.38228e-13
1.7228e-13
6.29956e-13
-6.84298e-13
1.12795e-13
5.17459e-13
-5.6323e-13
7.09431e-14
4.37415e-13
-4.72301e-13
3.40743e-14
5.10241e-13
-4.03247e-13
1.8992e-14
3.50226e-13
-4.76607e-13
1.01005e-14
3.96081e-13
4.81409e-15
4.4221e-13
-2.59686e-14
-4.67138e-10
-1.04524e-08
8.93574e-08
-2.49558e-12
-2.34304e-10
1.35467e-10
-1.32005e-12
-2.6424e-13
-6.45393e-13
-1.0904e-12
1.02345e-12