/*--------------------------------*- C++ -*----------------------------------*\
| =========                 |                                                 |
| \\      /  F ield         | OpenFOAM: The Open Source CFD Toolbox           |
|  \\    /   O peration     | Version:  4.1                                   |
|   \\  /    A nd           | Web:      www.OpenFOAM.org                      |
|    \\/     M anipulation  |                                                 |
\*---------------------------------------------------------------------------*/
FoamFile
{
    version     2.0;
    format      ascii;
    class       volVectorField;
    location    "0.94";
    object      U;
}
// * * * * * * * * * * * * * * * * * * * * * * * * * * * * * * * * * * * * * //

dimensions      [0 1 -1 0 0 0 0];

internalField   nonuniform List<vector> 
18000
(
(8.93665e-14 3.8386e-13 -5.7438e-12)
(9.40176e-14 3.83695e-13 -5.68075e-12)
(8.46514e-14 -9.66948e-15 -5.61749e-12)
(7.55173e-14 -1.44996e-14 -5.55574e-12)
(6.66351e-14 -1.4209e-14 -5.49435e-12)
(5.80061e-14 -1.3805e-14 -5.43373e-12)
(4.96836e-14 -1.38359e-14 -5.37362e-12)
(4.17447e-14 -1.38582e-14 -5.31483e-12)
(3.40133e-14 -1.36222e-14 -5.25686e-12)
(2.66325e-14 -9.82491e-15 -5.20113e-12)
(1.37557e-13 3.93749e-13 -7.14276e-12)
(1.49137e-13 3.80201e-13 -6.89966e-12)
(1.3035e-13 -4.85889e-14 -6.66271e-12)
(1.12529e-13 -5.1962e-14 -6.43625e-12)
(9.60415e-14 -5.01824e-14 -6.21949e-12)
(8.07413e-14 -4.81716e-14 -6.01129e-12)
(6.63698e-14 -4.62777e-14 -5.81123e-12)
(5.3212e-14 -4.46579e-14 -5.61949e-12)
(4.08481e-14 -4.28792e-14 -5.43453e-12)
(2.94256e-14 -3.05688e-14 -5.26194e-12)
(1.54375e-13 3.94998e-13 -8.98237e-12)
(1.60902e-13 3.62286e-13 -8.4558e-12)
(1.32969e-13 -1.05445e-13 -7.95818e-12)
(1.0788e-13 -1.04056e-13 -7.49701e-12)
(8.57634e-14 -9.702e-14 -7.06714e-12)
(6.61914e-14 -9.09764e-14 -6.66692e-12)
(4.88025e-14 -8.53435e-14 -6.29475e-12)
(3.33956e-14 -8.00763e-14 -5.94636e-12)
(1.97423e-14 -7.52927e-14 -5.62175e-12)
(7.72207e-15 -5.23372e-14 -5.32408e-12)
(2.09996e-13 3.81006e-13 -1.14292e-11)
(2.06324e-13 3.20569e-13 -1.04569e-11)
(1.64801e-13 -1.87523e-13 -9.57337e-12)
(1.29396e-13 -1.7538e-13 -8.7762e-12)
(9.96798e-14 -1.5899e-13 -8.05918e-12)
(7.45778e-14 -1.44506e-13 -7.41221e-12)
(5.35405e-14 -1.31654e-13 -6.82693e-12)
(3.55863e-14 -1.20238e-13 -6.29701e-12)
(2.05094e-14 -1.09619e-13 -5.81604e-12)
(7.88731e-15 -7.46517e-14 -5.38711e-12)
(2.92152e-13 3.39255e-13 -1.47302e-11)
(2.69159e-13 2.39316e-13 -1.30593e-11)
(2.06937e-13 -3.06857e-13 -1.16007e-11)
(1.56643e-13 -2.74147e-13 -1.03301e-11)
(1.16636e-13 -2.39977e-13 -9.22557e-12)
(8.46183e-14 -2.11129e-13 -8.26064e-12)
(5.88513e-14 -1.86769e-13 -7.41538e-12)
(3.80976e-14 -1.65924e-13 -6.67326e-12)
(2.13834e-14 -1.47243e-13 -6.01886e-12)
(7.96319e-15 -9.80847e-14 -5.45144e-12)
(4.16561e-13 2.49212e-13 -1.92462e-11)
(3.58341e-13 9.1613e-14 -1.64822e-11)
(2.63584e-13 -4.81805e-13 -1.41701e-11)
(1.91508e-13 -4.10977e-13 -1.22295e-11)
(1.37441e-13 -3.46614e-13 -1.06023e-11)
(9.62878e-14 -2.94824e-13 -9.22969e-12)
(6.48709e-14 -2.52541e-13 -8.06693e-12)
(4.07905e-14 -2.17518e-13 -7.07732e-12)
(2.22724e-14 -1.87813e-13 -6.23016e-12)
(8.05978e-15 -1.22529e-13 -5.51669e-12)
(6.08235e-13 7.49384e-14 -2.55065e-11)
(4.84989e-13 -1.68475e-13 -2.10479e-11)
(3.38765e-13 -7.42651e-13 -1.74547e-11)
(2.34627e-13 -6.02807e-13 -1.45674e-11)
(1.6106e-13 -4.87686e-13 -1.22362e-11)
(1.08214e-13 -3.99658e-13 -1.03408e-11)
(6.99221e-14 -3.30793e-13 -8.78919e-12)
(4.20445e-14 -2.7638e-13 -7.51102e-12)
(2.16099e-14 -2.32068e-13 -6.45111e-12)
(6.57173e-15 -1.48015e-13 -5.58286e-12)
(-3.79881e-12 -2.51161e-13 -3.4358e-11)
(-4.1295e-12 -6.22878e-13 -2.7221e-11)
(-4.11894e-12 -1.13476e-12 -2.17115e-11)
(-4.0445e-12 -8.73399e-13 -1.74783e-11)
(-3.9382e-12 -6.75101e-13 -1.41975e-11)
(-3.81589e-12 -5.31378e-13 -1.16306e-11)
(-3.68727e-12 -4.24138e-13 -9.60359e-12)
(-3.55789e-12 -3.4274e-13 -7.98933e-12)
(-3.43156e-12 -2.79744e-13 -6.6914e-12)
(-3.37947e-12 -1.74707e-13 -5.66043e-12)
(-6.8482e-09 -1.90323e-12 -9.80663e-11)
(-7.04754e-09 -1.68198e-12 -8.15914e-11)
(-6.65895e-09 -1.12052e-12 -6.83161e-11)
(-6.30129e-09 -6.75247e-13 -5.79485e-11)
(-5.97606e-09 -3.87062e-13 -4.97428e-11)
(-5.67989e-09 -1.98409e-13 -4.31506e-11)
(-5.40953e-09 -7.36299e-14 -3.77853e-11)
(-5.16211e-09 8.05958e-15 -3.33664e-11)
(-4.93592e-09 -1.21947e-13 -2.96869e-11)
(-4.86751e-09 -3.74944e-13 -2.70663e-11)
(7.64225e-07 -1.97827e-09 -7.98742e-08)
(3.82486e-08 -6.46239e-10 -7.06089e-08)
(2.8778e-08 9.18282e-10 -6.24009e-08)
(2.36984e-08 8.54629e-10 -5.54564e-08)
(1.936e-08 7.82921e-10 -4.95408e-08)
(1.56206e-08 7.1724e-10 -4.44778e-08)
(1.23759e-08 6.57844e-10 -4.01205e-08)
(9.54052e-09 6.02162e-10 -3.635e-08)
(6.38324e-09 1.82436e-10 -3.30751e-08)
(-1.36832e-07 -3.93052e-10 -3.11147e-08)
(2.51807e-13 3.63932e-13 -6.22857e-12)
(2.36676e-13 3.44649e-13 -6.15753e-12)
(2.07895e-13 -4.84403e-14 -6.08668e-12)
(1.80094e-13 -5.27624e-14 -6.0166e-12)
(1.53407e-13 -5.22586e-14 -5.94779e-12)
(1.27637e-13 -5.15779e-14 -5.88016e-12)
(1.02834e-13 -5.1107e-14 -5.8121e-12)
(7.90264e-14 -5.05034e-14 -5.7465e-12)
(5.59018e-14 -4.92664e-14 -5.68146e-12)
(3.42669e-14 -2.86624e-14 -5.61821e-12)
(5.01774e-13 3.19944e-13 -7.81052e-12)
(4.64265e-13 2.38032e-13 -7.53467e-12)
(3.98532e-13 -1.8713e-13 -7.26535e-12)
(3.369e-13 -1.85391e-13 -7.00892e-12)
(2.79381e-13 -1.79071e-13 -6.76399e-12)
(2.25698e-13 -1.72971e-13 -6.5286e-12)
(1.75574e-13 -1.66944e-13 -6.30399e-12)
(1.28686e-13 -1.61583e-13 -6.08806e-12)
(8.48291e-14 -1.54316e-13 -5.88119e-12)
(4.45483e-14 -8.78268e-14 -5.6865e-12)
(6.12589e-13 2.41611e-13 -9.91985e-12)
(5.47133e-13 7.23093e-14 -9.31161e-12)
(4.53774e-13 -3.81043e-13 -8.74196e-12)
(3.695e-13 -3.63524e-13 -8.21351e-12)
(2.94358e-13 -3.41949e-13 -7.72426e-12)
(2.27237e-13 -3.21742e-13 -7.26988e-12)
(1.67159e-13 -3.03409e-13 -6.84892e-12)
(1.13407e-13 -2.86357e-13 -6.45617e-12)
(6.54342e-14 -2.67841e-13 -6.0905e-12)
(2.30956e-14 -1.50361e-13 -5.75717e-12)
(7.92246e-13 1.09459e-13 -1.27669e-11)
(6.83032e-13 -1.80613e-13 -1.16283e-11)
(5.50176e-13 -6.51232e-13 -1.06025e-11)
(4.353e-13 -6.01285e-13 -9.68092e-12)
(3.37452e-13 -5.49819e-13 -8.8569e-12)
(2.53591e-13 -5.04169e-13 -8.1173e-12)
(1.81808e-13 -4.6312e-13 -7.45223e-12)
(1.20383e-13 -4.26109e-13 -6.85266e-12)
(6.77041e-14 -3.8906e-13 -6.30935e-12)
(2.35051e-14 -2.15057e-13 -5.82739e-12)
(1.04019e-12 -1.07644e-13 -1.66768e-11)
(8.62892e-13 -5.65033e-13 -1.46873e-11)
(6.72946e-13 -1.02809e-12 -1.29689e-11)
(5.16361e-13 -9.18235e-13 -1.14825e-11)
(3.88587e-13 -8.15288e-13 -1.02005e-11)
(2.83966e-13 -7.26824e-13 -9.08949e-12)
(1.98271e-13 -6.49848e-13 -8.12258e-12)
(1.27989e-13 -5.82933e-13 -7.27846e-12)
(7.02404e-14 -5.19525e-13 -6.53818e-12)
(2.38259e-14 -2.82665e-13 -5.90023e-12)
(1.38708e-12 -4.57872e-13 -2.21431e-11)
(1.10561e-12 -1.14624e-12 -1.87811e-11)
(8.31232e-13 -1.5559e-12 -1.60116e-11)
(6.16737e-13 -1.34232e-12 -1.37093e-11)
(4.49678e-13 -1.15479e-12 -1.18009e-11)
(3.18978e-13 -9.99149e-13 -1.02071e-11)
(2.16537e-13 -8.68505e-13 -8.86929e-12)
(1.3607e-13 -7.58678e-13 -7.73882e-12)
(7.29036e-14 -6.59517e-13 -6.77847e-12)
(2.41073e-14 -3.52779e-13 -5.9748e-12)
(1.88431e-12 -1.01399e-12 -2.99188e-11)
(1.43609e-12 -2.02481e-12 -2.43557e-11)
(1.03701e-12 -2.30349e-12 -1.99671e-11)
(7.41596e-13 -1.91164e-12 -1.64849e-11)
(5.22628e-13 -1.58973e-12 -1.37191e-11)
(3.59232e-13 -1.33266e-12 -1.14983e-11)
(2.36719e-13 -1.12483e-12 -9.70076e-12)
(1.44745e-13 -9.5575e-13 -8.23542e-12)
(7.55299e-14 -8.10001e-13 -7.02923e-12)
(2.43855e-14 -4.26202e-13 -6.05075e-12)
(2.465e-12 -1.91591e-12 -4.12755e-11)
(1.51164e-12 -3.36919e-12 -3.20813e-11)
(9.74177e-13 -3.36582e-12 -2.51905e-11)
(6.05824e-13 -2.68029e-12 -1.9993e-11)
(3.4985e-13 -2.14844e-12 -1.60473e-11)
(1.70518e-13 -1.74154e-12 -1.30095e-11)
(4.43575e-14 -1.42515e-12 -1.06454e-11)
(-4.43433e-14 -1.17685e-12 -8.78419e-12)
(-1.06861e-13 -9.71626e-13 -7.30274e-12)
(-1.51217e-13 -5.02284e-13 -6.13879e-12)
(-2.86554e-10 -5.04802e-12 -1.14015e-10)
(-7.16432e-10 -6.83209e-12 -9.28958e-11)
(-5.9424e-10 -5.45903e-12 -7.64366e-11)
(-4.93727e-10 -4.24241e-12 -6.39267e-11)
(-4.14442e-10 -3.35361e-12 -5.4277e-11)
(-3.51013e-10 -2.69532e-12 -4.66805e-11)
(-2.99745e-10 -2.19751e-12 -4.06006e-11)
(-2.57912e-10 -1.81615e-12 -3.56623e-11)
(-2.23541e-10 -1.51452e-12 -3.15963e-11)
(-1.99123e-10 -9.58883e-13 -2.87002e-11)
(5.3936e-07 -3.04853e-09 -8.9299e-08)
(-9.13659e-09 -2.40299e-09 -7.82524e-08)
(-1.1043e-08 -8.09691e-10 -6.82524e-08)
(-1.03735e-08 -7.458e-10 -5.99939e-08)
(-9.70788e-09 -6.97204e-10 -5.31099e-08)
(-9.08128e-09 -6.49062e-10 -4.73208e-08)
(-8.50382e-09 -6.03339e-10 -4.24113e-08)
(-7.97958e-09 -5.60771e-10 -3.82155e-08)
(-7.56169e-09 -5.32323e-10 -3.46095e-08)
(-1.16159e-08 -5.7739e-10 -3.24154e-08)
(2.32474e-13 3.66978e-13 -5.03115e-13)
(2.19266e-13 3.45135e-13 -4.94322e-13)
(1.92227e-13 -4.81806e-14 -4.85688e-13)
(1.66462e-13 -5.25295e-14 -4.77008e-13)
(1.4176e-13 -5.15955e-14 -4.68596e-13)
(1.17895e-13 -5.12135e-14 -4.60474e-13)
(9.53884e-14 -5.07496e-14 -4.52261e-13)
(7.36012e-14 -4.98791e-14 -4.44817e-13)
(5.27383e-14 -4.90122e-14 -4.37275e-13)
(3.32649e-14 -2.58388e-14 -4.29783e-13)
(5.04332e-13 3.30827e-13 -6.95955e-13)
(4.65442e-13 2.37917e-13 -6.60891e-13)
(3.98881e-13 -1.87259e-13 -6.26249e-13)
(3.36524e-13 -1.8495e-13 -5.94e-13)
(2.7864e-13 -1.78555e-13 -5.64107e-13)
(2.2471e-13 -1.71991e-13 -5.36312e-13)
(1.74714e-13 -1.65682e-13 -5.09109e-13)
(1.27948e-13 -1.60131e-13 -4.83536e-13)
(8.42931e-14 -1.52872e-13 -4.61145e-13)
(4.46657e-14 -7.98356e-14 -4.37783e-13)
(6.2386e-13 2.61233e-13 -9.81726e-13)
(5.54397e-13 6.76695e-14 -8.95062e-13)
(4.58411e-13 -3.84397e-13 -8.17893e-13)
(3.71967e-13 -3.65828e-13 -7.47226e-13)
(2.9537e-13 -3.42706e-13 -6.84029e-13)
(2.27421e-13 -3.21564e-13 -6.2633e-13)
(1.66859e-13 -3.02304e-13 -5.74645e-13)
(1.13084e-13 -2.84877e-13 -5.28084e-13)
(6.49602e-14 -2.65366e-13 -4.84919e-13)
(2.31364e-14 -1.36247e-13 -4.47508e-13)
(8.18276e-13 1.40361e-13 -1.40867e-12)
(7.00515e-13 -1.97147e-13 -1.23204e-12)
(5.61385e-13 -6.63369e-13 -1.07973e-12)
(4.4208e-13 -6.09956e-13 -9.47123e-13)
(3.41045e-13 -5.55028e-13 -8.33355e-13)
(2.55289e-13 -5.06471e-13 -7.35358e-13)
(1.82335e-13 -4.63139e-13 -6.50937e-13)
(1.20285e-13 -4.25131e-13 -5.77244e-13)
(6.74952e-14 -3.86702e-13 -5.12612e-13)
(2.35068e-14 -1.9588e-13 -4.56805e-13)
(1.09219e-12 -6.4632e-14 -2.06502e-12)
(8.96625e-13 -6.07201e-13 -1.72239e-12)
(6.94474e-13 -1.05873e-12 -1.44397e-12)
(5.29138e-13 -9.40056e-13 -1.21344e-12)
(3.95717e-13 -8.29096e-13 -1.02368e-12)
(2.87584e-13 -7.34581e-13 -8.68246e-13)
(1.99808e-13 -6.53449e-13 -7.39468e-13)
(1.28336e-13 -5.83458e-13 -6.3228e-13)
(7.03483e-14 -5.16904e-13 -5.42245e-13)
(2.41178e-14 -2.5747e-13 -4.68156e-13)
(1.48363e-12 -4.06101e-13 -3.09852e-12)
(1.16605e-12 -1.24093e-12 -2.45135e-12)
(8.6855e-13 -1.62212e-12 -1.95745e-12)
(6.38078e-13 -1.38824e-12 -1.56707e-12)
(4.61547e-13 -1.18377e-12 -1.26616e-12)
(3.24979e-13 -1.0161e-12 -1.03005e-12)
(2.19201e-13 -8.77214e-13 -8.44045e-13)
(1.37174e-13 -7.61655e-13 -6.95604e-13)
(7.32123e-14 -6.57467e-13 -5.7432e-13)
(2.45562e-14 -3.22846e-13 -4.79808e-13)
(2.0597e-12 -9.62579e-13 -4.76276e-12)
(1.54086e-12 -2.21986e-12 -3.55547e-12)
(1.09878e-12 -2.43548e-12 -2.68933e-12)
(7.76091e-13 -1.99963e-12 -2.04545e-12)
(5.41344e-13 -1.64367e-12 -1.57674e-12)
(3.68719e-13 -1.36468e-12 -1.22756e-12)
(2.41164e-13 -1.14156e-12 -9.65479e-13)
(1.46585e-13 -9.62771e-13 -7.6589e-13)
(7.60804e-14 -8.09363e-13 -6.10051e-13)
(2.49727e-14 -3.90872e-13 -4.93399e-13)
(3.20747e-12 -1.8942e-12 -7.53999e-12)
(2.07464e-12 -3.75781e-12 -5.26822e-12)
(1.40596e-12 -3.61484e-12 -3.75485e-12)
(9.49714e-13 -2.83837e-12 -2.70214e-12)
(6.35484e-13 -2.24288e-12 -1.9813e-12)
(4.1624e-13 -1.79609e-12 -1.47302e-12)
(2.62012e-13 -1.45421e-12 -1.11e-12)
(1.52981e-13 -1.19032e-12 -8.45344e-13)
(7.54857e-14 -9.73202e-13 -6.5039e-13)
(2.17081e-14 -4.62205e-13 -5.07588e-13)
(4.86622e-10 -4.38617e-12 -1.72841e-11)
(-3.1876e-11 -7.0669e-12 -1.20168e-11)
(-2.61358e-11 -5.47427e-12 -8.57277e-12)
(-1.90143e-11 -4.09304e-12 -6.28056e-12)
(-1.41179e-11 -3.1058e-12 -4.74533e-12)
(-1.06656e-11 -2.39959e-12 -3.68363e-12)
(-8.18581e-12 -1.88142e-12 -2.93145e-12)
(-6.37532e-12 -1.49655e-12 -2.38627e-12)
(-5.03626e-12 -1.19419e-12 -1.98171e-12)
(-4.03912e-12 -5.77379e-13 -1.6939e-12)
(4.67428e-07 -1.8299e-09 -1.02341e-08)
(1.19712e-09 -1.6493e-09 -8.06597e-09)
(-7.9267e-10 -2.06721e-10 -6.12991e-09)
(-6.55603e-10 -1.53703e-10 -4.7246e-09)
(-5.37724e-10 -1.22921e-10 -3.69812e-09)
(-4.45616e-10 -9.9213e-11 -2.93377e-09)
(-3.72348e-10 -8.08304e-11 -2.35592e-09)
(-3.13754e-10 -6.64503e-11 -1.91297e-09)
(-2.69113e-10 -5.51188e-11 -1.56958e-09)
(-3.23629e-10 -4.88117e-11 -1.32728e-09)
(2.26795e-13 3.67628e-13 -2.36468e-14)
(2.14232e-13 3.45377e-13 -2.25668e-14)
(1.87823e-13 -4.77726e-14 -2.01184e-14)
(1.6258e-13 -5.21163e-14 -1.9023e-14)
(1.38546e-13 -5.14971e-14 -1.73741e-14)
(1.15518e-13 -5.08409e-14 -1.61641e-14)
(9.33844e-14 -5.02054e-14 -1.49553e-14)
(7.21918e-14 -4.94329e-14 -1.34089e-14)
(5.20194e-14 -4.83147e-14 -1.29319e-14)
(3.30209e-14 -2.51688e-14 -1.30877e-14)
(4.98024e-13 3.3396e-13 -3.57632e-14)
(4.60056e-13 2.4009e-13 -3.24157e-14)
(3.94333e-13 -1.85299e-13 -2.98894e-14)
(3.32791e-13 -1.82969e-13 -2.63589e-14)
(2.75645e-13 -1.76097e-13 -2.32602e-14)
(2.22422e-13 -1.7007e-13 -2.15304e-14)
(1.72998e-13 -1.64227e-13 -1.88726e-14)
(1.26874e-13 -1.57983e-13 -1.68845e-14)
(8.37657e-14 -1.50809e-13 -1.55114e-14)
(4.45946e-14 -7.75303e-14 -1.45435e-14)
(6.15582e-13 2.68786e-13 -5.6836e-14)
(5.47706e-13 7.27728e-14 -5.04034e-14)
(4.52912e-13 -3.79487e-13 -4.36138e-14)
(3.676e-13 -3.61149e-13 -3.77154e-14)
(2.91969e-13 -3.38722e-13 -3.26998e-14)
(2.24777e-13 -3.17818e-13 -2.83058e-14)
(1.65167e-13 -2.98575e-13 -2.41657e-14)
(1.12065e-13 -2.81332e-13 -2.14799e-14)
(6.45804e-14 -2.62087e-13 -1.91125e-14)
(2.32999e-14 -1.3238e-13 -1.74504e-14)
(8.07629e-13 1.55475e-13 -9.21963e-14)
(6.92009e-13 -1.87358e-13 -7.9334e-14)
(5.54794e-13 -6.55039e-13 -6.64253e-14)
(4.36952e-13 -6.0236e-13 -5.55545e-14)
(3.37195e-13 -5.48033e-13 -4.63507e-14)
(2.52585e-13 -5.00109e-13 -3.93943e-14)
(1.80604e-13 -4.57486e-13 -3.29259e-14)
(1.19402e-13 -4.19625e-13 -2.76934e-14)
(6.73471e-14 -3.81646e-13 -2.43866e-14)
(2.39172e-14 -1.90931e-13 -2.10342e-14)
(1.07858e-12 -3.77147e-14 -1.55877e-13)
(8.86181e-13 -5.9113e-13 -1.27629e-13)
(6.86675e-13 -1.04477e-12 -1.02587e-13)
(5.23272e-13 -9.28158e-13 -8.2124e-14)
(3.91634e-13 -8.18846e-13 -6.65627e-14)
(2.84847e-13 -7.25378e-13 -5.34868e-14)
(1.98215e-13 -6.45061e-13 -4.36466e-14)
(1.27797e-13 -5.75963e-13 -3.74493e-14)
(7.01395e-14 -5.10468e-13 -3.26101e-14)
(2.45572e-14 -2.51103e-13 -2.71557e-14)
(1.46609e-12 -3.58379e-13 -2.69364e-13)
(1.15321e-12 -1.21554e-12 -2.07828e-13)
(8.59201e-13 -1.60161e-12 -1.609e-13)
(6.3149e-13 -1.37109e-12 -1.23092e-13)
(4.57164e-13 -1.16885e-12 -9.61412e-14)
(3.22289e-13 -1.0035e-12 -7.62741e-14)
(2.17863e-13 -8.66151e-13 -6.07938e-14)
(1.36683e-13 -7.5289e-13 -4.97769e-14)
(7.32745e-14 -6.50145e-13 -3.99174e-14)
(2.5136e-14 -3.14856e-13 -3.34703e-14)
(2.03728e-12 -8.79771e-13 -4.71917e-13)
(1.5248e-12 -2.18217e-12 -3.44283e-13)
(1.08777e-12 -2.40526e-12 -2.50362e-13)
(7.68814e-13 -1.97537e-12 -1.85001e-13)
(5.36775e-13 -1.62383e-12 -1.38495e-13)
(3.66118e-13 -1.34813e-12 -1.05578e-13)
(2.39872e-13 -1.12799e-12 -8.22552e-14)
(1.46133e-13 -9.52128e-13 -6.52404e-14)
(7.66729e-14 -8.00575e-13 -5.19649e-14)
(2.57576e-14 -3.81995e-13 -4.18596e-14)
(3.19717e-12 -1.75003e-12 -8.42867e-13)
(2.05758e-12 -3.70259e-12 -5.72861e-13)
(1.39527e-12 -3.57188e-12 -3.94795e-13)
(9.4441e-13 -2.80566e-12 -2.76093e-13)
(6.33953e-13 -2.21679e-12 -1.98881e-13)
(4.17308e-13 -1.77587e-12 -1.45862e-13)
(2.64679e-13 -1.43835e-12 -1.09027e-13)
(1.56715e-13 -1.17737e-12 -8.36022e-14)
(7.99382e-14 -9.63307e-13 -6.60615e-14)
(2.65442e-14 -4.52487e-13 -5.19403e-14)
(5.52927e-10 -4.02701e-12 -1.97231e-12)
(5.89238e-12 -6.89488e-12 -9.87813e-13)
(8.54964e-13 -5.30512e-12 -6.42364e-13)
(5.55225e-13 -3.95746e-12 -4.4044e-13)
(3.58602e-13 -2.99616e-12 -3.12295e-13)
(2.15457e-13 -2.30984e-12 -2.30091e-13)
(1.14726e-13 -1.80706e-12 -1.74185e-13)
(4.45122e-14 -1.43402e-12 -1.35735e-13)
(-4.13913e-15 -1.1405e-12 -1.08253e-13)
(-3.50831e-14 -5.27472e-13 -8.87203e-14)
(4.6382e-07 -1.58474e-09 -1.25494e-09)
(2.16581e-09 -1.46527e-09 -4.447e-10)
(-3.08047e-11 -3.39619e-11 -2.88853e-10)
(-2.71315e-11 -1.51679e-11 -1.9345e-10)
(-1.94895e-11 -1.07044e-11 -1.32928e-10)
(-1.42931e-11 -7.74531e-12 -9.33076e-11)
(-1.06518e-11 -5.69921e-12 -6.67683e-11)
(-8.06029e-12 -4.26504e-12 -4.86282e-11)
(-6.25323e-12 -3.22726e-12 -3.6014e-11)
(-6.2699e-12 -2.08986e-12 -2.71487e-11)
(2.26905e-13 3.6755e-13 -1.1611e-14)
(2.1425e-13 3.44756e-13 -1.05255e-14)
(1.88023e-13 -4.85789e-14 -7.98842e-15)
(1.62706e-13 -5.26284e-14 -5.70108e-15)
(1.38604e-13 -5.17552e-14 -4.51887e-15)
(1.15447e-13 -5.12171e-14 -3.4685e-15)
(9.34933e-14 -5.09065e-14 -2.77666e-15)
(7.23766e-14 -4.97605e-14 -1.56408e-15)
(5.20938e-14 -4.82282e-14 -5.35156e-16)
(3.31479e-14 -2.54064e-14 -4.94727e-16)
(4.98636e-13 3.33715e-13 -1.64373e-14)
(4.60584e-13 2.39756e-13 -1.46819e-14)
(3.94853e-13 -1.85697e-13 -1.15441e-14)
(3.33144e-13 -1.83817e-13 -9.85123e-15)
(2.75957e-13 -1.76909e-13 -6.86902e-15)
(2.22657e-13 -1.70353e-13 -4.92428e-15)
(1.73253e-13 -1.64329e-13 -4.27242e-15)
(1.27242e-13 -1.58451e-13 -3.70265e-15)
(8.41291e-14 -1.50929e-13 -2.5949e-15)
(4.49839e-14 -7.74274e-14 -1.8259e-15)
(6.16779e-13 2.68629e-13 -2.72316e-14)
(5.48855e-13 7.20396e-14 -2.42257e-14)
(4.5381e-13 -3.80648e-13 -1.95944e-14)
(3.68403e-13 -3.62183e-13 -1.55485e-14)
(2.92713e-13 -3.39183e-13 -1.23109e-14)
(2.25534e-13 -3.18342e-13 -9.79119e-15)
(1.65731e-13 -2.98993e-13 -7.89106e-15)
(1.126e-13 -2.81397e-13 -6.67973e-15)
(6.51478e-14 -2.61963e-13 -6.25024e-15)
(2.3775e-14 -1.32512e-13 -5.60688e-15)
(8.09812e-13 1.55334e-13 -4.66674e-14)
(6.9413e-13 -1.88435e-13 -4.07175e-14)
(5.56537e-13 -6.56288e-13 -3.38783e-14)
(4.38463e-13 -6.03596e-13 -2.75597e-14)
(3.38555e-13 -5.48999e-13 -2.25564e-14)
(2.53664e-13 -5.00937e-13 -1.84304e-14)
(1.8158e-13 -4.58263e-13 -1.56072e-14)
(1.20373e-13 -4.20182e-13 -1.33044e-14)
(6.83103e-14 -3.82003e-13 -1.1305e-14)
(2.46302e-14 -1.90539e-13 -1.06599e-14)
(1.08256e-12 -3.7565e-14 -8.21204e-14)
(8.89647e-13 -5.93161e-13 -7.11451e-14)
(6.89625e-13 -1.04765e-12 -5.78565e-14)
(5.2571e-13 -9.30332e-13 -4.64087e-14)
(3.93688e-13 -8.20621e-13 -3.86258e-14)
(2.86626e-13 -7.27134e-13 -3.16398e-14)
(1.99748e-13 -6.45986e-13 -2.57578e-14)
(1.29104e-13 -5.76229e-13 -2.24781e-14)
(7.14077e-14 -5.11136e-13 -1.96883e-14)
(2.56498e-14 -2.51645e-13 -1.69045e-14)
(1.47284e-12 -3.59059e-13 -1.45332e-13)
(1.15893e-12 -1.21983e-12 -1.20765e-13)
(8.63779e-13 -1.60583e-12 -9.64427e-14)
(6.3535e-13 -1.37506e-12 -7.69939e-14)
(4.60247e-13 -1.17195e-12 -6.20166e-14)
(3.2494e-13 -1.00608e-12 -5.14769e-14)
(2.20075e-13 -8.68429e-13 -4.13369e-14)
(1.38519e-13 -7.54377e-13 -3.46597e-14)
(7.47705e-14 -6.51381e-13 -3.0198e-14)
(2.64284e-14 -3.15493e-13 -2.56139e-14)
(2.04867e-12 -8.80785e-13 -2.59568e-13)
(1.53429e-12 -2.19108e-12 -2.076e-13)
(1.09483e-12 -2.4139e-12 -1.59823e-13)
(7.74332e-13 -1.98226e-12 -1.23632e-13)
(5.41207e-13 -1.62952e-12 -9.82776e-14)
(3.69568e-13 -1.35277e-12 -7.81256e-14)
(2.42705e-13 -1.13153e-12 -6.29235e-14)
(1.48535e-13 -9.54754e-13 -5.18457e-14)
(7.85661e-14 -8.03141e-13 -4.34026e-14)
(2.74093e-14 -3.83348e-13 -3.64375e-14)
(3.2373e-12 -1.75247e-12 -4.66534e-13)
(2.07199e-12 -3.72094e-12 -3.54342e-13)
(1.40586e-12 -3.58807e-12 -2.59166e-13)
(9.52661e-13 -2.81795e-12 -1.94482e-13)
(6.40278e-13 -2.22656e-12 -1.48959e-13)
(4.22258e-13 -1.7836e-12 -1.1598e-13)
(2.68536e-13 -1.44429e-12 -9.14956e-14)
(1.59696e-13 -1.18213e-12 -7.34167e-14)
(8.22294e-14 -9.67078e-13 -5.96133e-14)
(2.84145e-14 -4.54675e-13 -5.01859e-14)
(5.89446e-10 -4.09254e-12 -1.22771e-12)
(7.81101e-12 -6.98461e-12 -5.98107e-13)
(1.81417e-12 -5.33159e-12 -4.17141e-13)
(1.16175e-12 -3.97674e-12 -3.02393e-13)
(7.48555e-13 -3.01101e-12 -2.2338e-13)
(4.74563e-13 -2.32106e-12 -1.68566e-13)
(2.90845e-13 -1.81554e-12 -1.28419e-13)
(1.6673e-13 -1.44039e-12 -1.0065e-13)
(8.20223e-14 -1.1455e-12 -7.95968e-14)
(2.58457e-14 -5.29689e-13 -6.43623e-14)
(4.92742e-07 -1.67787e-09 -9.0975e-10)
(2.46609e-09 -1.53439e-09 -2.76149e-11)
(8.00126e-12 -2.16162e-11 -1.06639e-11)
(2.63152e-13 -6.03543e-12 -6.27896e-12)
(1.92012e-13 -4.27988e-12 -3.79655e-12)
(1.47444e-13 -3.13916e-12 -2.3875e-12)
(1.03726e-13 -2.35053e-12 -1.54589e-12)
(6.80178e-14 -1.7947e-12 -1.02779e-12)
(3.89108e-14 -1.37997e-12 -6.97711e-13)
(2.7306e-15 -6.37844e-13 -4.79385e-13)
(2.27394e-13 3.67215e-13 -1.38892e-14)
(2.14698e-13 3.43982e-13 -1.16249e-14)
(1.88231e-13 -4.96396e-14 -9.78628e-15)
(1.63038e-13 -5.34453e-14 -6.67462e-15)
(1.38761e-13 -5.23416e-14 -5.12502e-15)
(1.15603e-13 -5.14902e-14 -3.00455e-15)
(9.3505e-14 -5.092e-14 -2.09234e-15)
(7.24478e-14 -5.02887e-14 -1.56899e-15)
(5.22916e-14 -4.87045e-14 -8.44983e-16)
(3.3213e-14 -2.50741e-14 -1.60145e-15)
(4.99942e-13 3.33359e-13 -2.02297e-14)
(4.61767e-13 2.38348e-13 -1.804e-14)
(3.95708e-13 -1.86972e-13 -1.27697e-14)
(3.33996e-13 -1.84619e-13 -1.05541e-14)
(2.76596e-13 -1.77855e-13 -7.98629e-15)
(2.23191e-13 -1.70934e-13 -5.78034e-15)
(1.73637e-13 -1.64569e-13 -4.16091e-15)
(1.27565e-13 -1.58519e-13 -3.42041e-15)
(8.45938e-14 -1.51448e-13 -3.41051e-15)
(4.53642e-14 -7.79172e-14 -2.81661e-15)
(6.19173e-13 2.67865e-13 -3.23152e-14)
(5.50894e-13 7.02848e-14 -2.88273e-14)
(4.55687e-13 -3.82378e-13 -2.31713e-14)
(3.69825e-13 -3.63585e-13 -1.87754e-14)
(2.93987e-13 -3.40621e-13 -1.45132e-14)
(2.26561e-13 -3.19251e-13 -1.13489e-14)
(1.66711e-13 -2.99561e-13 -9.3149e-15)
(1.13422e-13 -2.81794e-13 -8.50709e-15)
(6.58561e-14 -2.62351e-13 -7.36302e-15)
(2.46392e-14 -1.3297e-13 -6.69707e-15)
(8.13945e-13 1.5366e-13 -5.63295e-14)
(6.97586e-13 -1.91244e-13 -4.86045e-14)
(5.59487e-13 -6.59184e-13 -4.00967e-14)
(4.40837e-13 -6.05974e-13 -3.23104e-14)
(3.40611e-13 -5.50976e-13 -2.61635e-14)
(2.55496e-13 -5.02325e-13 -2.09718e-14)
(1.83076e-13 -4.59145e-13 -1.80635e-14)
(1.21669e-13 -4.21084e-13 -1.61138e-14)
(6.93325e-14 -3.82525e-13 -1.45613e-14)
(2.56315e-14 -1.90793e-13 -1.26254e-14)
(1.08938e-12 -4.095e-14 -9.8961e-14)
(8.95371e-13 -5.98172e-13 -8.38499e-14)
(6.9417e-13 -1.05235e-12 -6.87439e-14)
(5.29439e-13 -9.34232e-13 -5.59402e-14)
(3.96755e-13 -8.23677e-13 -4.63754e-14)
(2.89309e-13 -7.29789e-13 -3.88479e-14)
(2.01796e-13 -6.48252e-13 -3.1847e-14)
(1.30858e-13 -5.78098e-13 -2.71514e-14)
(7.29222e-14 -5.12448e-13 -2.29332e-14)
(2.68284e-14 -2.52276e-13 -2.07999e-14)
(1.48427e-12 -3.65294e-13 -1.72662e-13)
(1.16821e-12 -1.22922e-12 -1.44541e-13)
(8.70987e-13 -1.61453e-12 -1.14766e-13)
(6.40885e-13 -1.38177e-12 -9.14202e-14)
(4.64765e-13 -1.17715e-12 -7.44633e-14)
(3.28485e-13 -1.01062e-12 -6.19583e-14)
(2.22999e-13 -8.72139e-13 -5.04154e-14)
(1.40875e-13 -7.56992e-13 -4.19792e-14)
(7.6776e-14 -6.53691e-13 -3.61864e-14)
(2.81041e-14 -3.16695e-13 -3.16865e-14)
(2.06794e-12 -8.93687e-13 -3.05641e-13)
(1.54909e-12 -2.20857e-12 -2.44822e-13)
(1.10593e-12 -2.42932e-12 -1.9036e-13)
(7.82736e-13 -1.99414e-12 -1.4833e-13)
(5.47684e-13 -1.63871e-12 -1.18507e-13)
(3.74609e-13 -1.36038e-12 -9.51566e-14)
(2.46756e-13 -1.13758e-12 -7.69346e-14)
(1.51643e-13 -9.59546e-13 -6.22274e-14)
(8.10054e-14 -8.06775e-13 -5.23086e-14)
(2.94877e-14 -3.85365e-13 -4.48186e-14)
(3.28297e-12 -1.77813e-12 -5.44289e-13)
(2.09587e-12 -3.75462e-12 -4.16956e-13)
(1.42271e-12 -3.61576e-12 -3.10212e-13)
(9.64951e-13 -2.83859e-12 -2.34633e-13)
(6.4928e-13 -2.24212e-12 -1.80998e-13)
(4.2904e-13 -1.79583e-12 -1.42139e-13)
(2.73612e-13 -1.45418e-12 -1.13174e-13)
(1.63627e-13 -1.1898e-12 -8.90733e-14)
(8.52512e-14 -9.72827e-13 -7.21024e-14)
(3.0781e-14 -4.57728e-13 -6.08102e-14)
(6.27615e-10 -4.12664e-12 -7.62349e-13)
(8.33806e-12 -7.08281e-12 -7.018e-13)
(1.86806e-12 -5.38172e-12 -5.04461e-13)
(1.19385e-12 -4.01221e-12 -3.65612e-13)
(7.69139e-13 -3.03709e-12 -2.71946e-13)
(4.88286e-13 -2.3409e-12 -2.05618e-13)
(3.00366e-13 -1.83058e-12 -1.57723e-13)
(1.73487e-13 -1.45177e-12 -1.22495e-13)
(8.68741e-14 -1.1543e-12 -9.71651e-14)
(2.93444e-14 -5.34593e-13 -7.90486e-14)
(5.36633e-07 -1.74519e-09 -4.43831e-10)
(2.66523e-09 -1.6314e-09 -7.33406e-13)
(1.06934e-11 -2.21971e-11 -1.06999e-12)
(1.17054e-12 -5.71779e-12 -7.09061e-13)
(7.67411e-13 -4.0899e-12 -4.78352e-13)
(5.15874e-13 -3.02327e-12 -3.35646e-13)
(3.47507e-13 -2.27878e-12 -2.43223e-13)
(2.32742e-13 -1.74954e-12 -1.78795e-13)
(1.53517e-13 -1.35118e-12 -1.35144e-13)
(9.93584e-14 -6.1629e-13 -1.05052e-13)
(2.28064e-13 3.6663e-13 -1.58237e-14)
(2.15369e-13 3.43127e-13 -1.38674e-14)
(1.8858e-13 -5.05358e-14 -1.05634e-14)
(1.63382e-13 -5.44782e-14 -8.42698e-15)
(1.39091e-13 -5.3214e-14 -6.37318e-15)
(1.15894e-13 -5.24226e-14 -4.41737e-15)
(9.3817e-14 -5.14789e-14 -3.04374e-15)
(7.27111e-14 -5.02848e-14 -5.52831e-15)
(5.26216e-14 -4.83313e-14 -1.77973e-14)
(3.34664e-14 -2.54852e-14 -4.99357e-14)
(5.0152e-13 3.32708e-13 -2.40418e-14)
(4.63201e-13 2.36868e-13 -1.9966e-14)
(3.96896e-13 -1.88592e-13 -1.59576e-14)
(3.34969e-13 -1.85688e-13 -1.25266e-14)
(2.77407e-13 -1.78799e-13 -1.02234e-14)
(2.23946e-13 -1.71883e-13 -7.80435e-15)
(1.74369e-13 -1.65296e-13 -6.65295e-15)
(1.28324e-13 -1.58807e-13 -6.70778e-15)
(8.51924e-14 -1.51363e-13 -1.21219e-14)
(4.58531e-14 -7.86545e-14 -3.55407e-14)
(6.22001e-13 2.66915e-13 -3.80356e-14)
(5.53246e-13 6.85518e-14 -3.19751e-14)
(4.57756e-13 -3.84445e-13 -2.57251e-14)
(3.71585e-13 -3.65505e-13 -2.0997e-14)
(2.95405e-13 -3.42082e-13 -1.72015e-14)
(2.27816e-13 -3.20434e-13 -1.43804e-14)
(1.67834e-13 -3.00203e-13 -1.22736e-14)
(1.14547e-13 -2.82316e-13 -1.20736e-14)
(6.6897e-14 -2.62975e-13 -1.5441e-14)
(2.53345e-14 -1.33964e-13 -2.88189e-14)
(8.1889e-13 1.51621e-13 -6.45693e-14)
(7.01662e-13 -1.94462e-13 -5.40794e-14)
(5.62855e-13 -6.62325e-13 -4.43392e-14)
(4.43708e-13 -6.08863e-13 -3.65724e-14)
(3.43126e-13 -5.53403e-13 -3.04887e-14)
(2.57694e-13 -5.04243e-13 -2.65445e-14)
(1.8494e-13 -4.60401e-13 -2.32425e-14)
(1.23192e-13 -4.21825e-13 -2.07796e-14)
(7.07143e-14 -3.83813e-13 -2.18094e-14)
(2.68266e-14 -1.92173e-13 -2.90257e-14)
(1.09757e-12 -4.48906e-14 -1.133e-13)
(9.02138e-13 -6.03999e-13 -9.33974e-14)
(6.99575e-13 -1.05774e-12 -7.56729e-14)
(5.33825e-13 -9.38704e-13 -6.27423e-14)
(4.00477e-13 -8.27274e-13 -5.28163e-14)
(2.92528e-13 -7.33022e-13 -4.53909e-14)
(2.04533e-13 -6.50995e-13 -3.9879e-14)
(1.32991e-13 -5.80252e-13 -3.50151e-14)
(7.4701e-14 -5.14237e-13 -3.17351e-14)
(2.85944e-14 -2.539e-13 -3.58967e-14)
(1.49797e-12 -3.72949e-13 -1.99727e-13)
(1.17894e-12 -1.2399e-12 -1.60755e-13)
(8.79372e-13 -1.62444e-12 -1.28123e-13)
(6.47625e-13 -1.38984e-12 -1.04354e-13)
(4.7013e-13 -1.18333e-12 -8.59901e-14)
(3.32909e-13 -1.01584e-12 -7.34839e-14)
(2.26628e-13 -8.76887e-13 -6.18549e-14)
(1.43732e-13 -7.60794e-13 -5.27704e-14)
(7.92137e-14 -6.56407e-13 -4.70193e-14)
(3.01204e-14 -3.18963e-13 -4.63627e-14)
(2.09087e-12 -9.09083e-13 -3.50727e-13)
(1.56624e-12 -2.22877e-12 -2.7195e-13)
(1.11884e-12 -2.44648e-12 -2.12401e-13)
(7.92735e-13 -2.00788e-12 -1.68874e-13)
(5.55414e-13 -1.64949e-12 -1.35585e-13)
(3.8068e-13 -1.3693e-12 -1.11989e-13)
(2.51654e-13 -1.14521e-12 -9.15129e-14)
(1.55453e-13 -9.65609e-13 -7.70031e-14)
(8.39709e-14 -8.11461e-13 -6.63037e-14)
(3.18703e-14 -3.88653e-13 -6.0394e-14)
(3.2889e-12 -1.80839e-12 -6.19284e-13)
(2.12259e-12 -3.79271e-12 -4.60474e-13)
(1.44272e-12 -3.64688e-12 -3.47347e-13)
(9.79556e-13 -2.86233e-12 -2.66025e-13)
(6.6018e-13 -2.26033e-12 -2.07278e-13)
(4.37239e-13 -1.81e-12 -1.65534e-13)
(2.79949e-13 -1.46623e-12 -1.34943e-13)
(1.68467e-13 -1.19989e-12 -1.08752e-13)
(8.89386e-14 -9.80298e-13 -9.02861e-14)
(3.36428e-14 -4.62273e-13 -7.78376e-14)
(6.25732e-10 -3.82288e-12 1.4773e-12)
(7.84862e-12 -7.06522e-12 -7.39469e-13)
(1.89562e-12 -5.43557e-12 -5.68624e-13)
(1.21619e-12 -4.05331e-12 -4.15279e-13)
(7.85005e-13 -3.06766e-12 -3.12951e-13)
(4.99698e-13 -2.36431e-12 -2.40619e-13)
(3.08656e-13 -1.84943e-12 -1.90093e-13)
(1.79505e-13 -1.46623e-12 -1.46955e-13)
(9.13483e-14 -1.16553e-12 -1.20031e-13)
(3.25827e-14 -5.41394e-13 -1.00022e-13)
(5.58521e-07 -1.33734e-09 2.72945e-09)
(2.5646e-09 -1.62119e-09 4.24799e-11)
(8.58833e-12 -2.08578e-11 -6.70639e-13)
(1.20381e-12 -5.76371e-12 -6.41751e-13)
(7.94537e-13 -4.13424e-12 -4.65406e-13)
(5.33541e-13 -3.05713e-12 -3.44328e-13)
(3.59505e-13 -2.30563e-12 -2.61568e-13)
(2.41161e-13 -1.77001e-12 -1.95487e-13)
(1.59299e-13 -1.36683e-12 -1.54249e-13)
(1.03679e-13 -6.25144e-13 -1.24225e-13)
(2.28478e-13 3.66461e-13 -1.14023e-14)
(2.1507e-13 3.42008e-13 -1.28016e-15)
(1.88678e-13 -5.17064e-14 -1.69466e-15)
(1.63579e-13 -5.50748e-14 -4.96566e-15)
(1.3962e-13 -5.39881e-14 -1.35628e-14)
(1.16846e-13 -5.30161e-14 -2.98172e-14)
(9.52807e-14 -5.09322e-14 -5.95801e-14)
(7.59611e-14 -4.614e-14 -2.19228e-13)
(5.91611e-14 -3.76649e-14 -8.42469e-13)
(3.7872e-14 -4.54691e-14 -2.24402e-12)
(5.02626e-13 3.31938e-13 -1.42146e-14)
(4.63213e-13 2.35828e-13 2.485e-15)
(3.97272e-13 -1.89463e-13 -8.70012e-16)
(3.35515e-13 -1.86621e-13 -4.00667e-15)
(2.78304e-13 -1.79756e-13 -1.26093e-14)
(2.25253e-13 -1.72827e-13 -2.80583e-14)
(1.76005e-13 -1.66097e-13 -5.11951e-14)
(1.30701e-13 -1.5972e-13 -1.45026e-13)
(8.88008e-14 -1.51879e-13 -5.02772e-13)
(4.66131e-14 -1.14376e-13 -1.47407e-12)
(6.23911e-13 2.65936e-13 -2.35545e-14)
(5.53871e-13 6.7124e-14 1.10843e-15)
(4.5849e-13 -3.85404e-13 -5.73494e-16)
(3.72618e-13 -3.66151e-13 -5.62239e-15)
(2.96791e-13 -3.43006e-13 -1.36472e-14)
(2.29724e-13 -3.21782e-13 -2.93981e-14)
(1.70062e-13 -3.02158e-13 -5.36056e-14)
(1.17038e-13 -2.84517e-13 -1.09173e-13)
(7.02767e-14 -2.6855e-13 -3.31371e-13)
(2.65846e-14 -1.73018e-13 -9.7219e-13)
(8.22351e-13 1.50609e-13 -4.16526e-14)
(7.03074e-13 -1.95549e-13 -4.58914e-15)
(5.6444e-13 -6.63276e-13 -6.42205e-15)
(4.45588e-13 -6.09648e-13 -1.21266e-14)