/*--------------------------------*- C++ -*----------------------------------*\
| =========                 |                                                 |
| \\      /  F ield         | OpenFOAM: The Open Source CFD Toolbox           |
|  \\    /   O peration     | Version:  4.1                                   |
|   \\  /    A nd           | Web:      www.OpenFOAM.org                      |
|    \\/     M anipulation  |                                                 |
\*---------------------------------------------------------------------------*/
FoamFile
{
    version     2.0;
    format      ascii;
    class       surfaceScalarField;
    location    "9.8";
    object      phi;
}
// * * * * * * * * * * * * * * * * * * * * * * * * * * * * * * * * * * * * * //

dimensions      [1 0 -1 0 0 0 0];

internalField   nonuniform List<scalar> 
150500
(
0.0168001
1.76552e-10
-3.26839e-12
0.0168001
9.72136e-10
-1.16037e-11
0.0168001
3.51344e-09
-1.34224e-11
0.0168
8.97827e-09
-2.15031e-11
0.0168
2.46734e-08
-2.206e-11
0.0167999
5.62534e-08
-2.96404e-11
0.0167998
1.48727e-07
-3.1876e-11
0.0167994
3.24324e-07
-4.3801e-11
0.0167982
9.16987e-07
-6.13949e-11
0.0167962
1.9081e-06
-1.03258e-10
0.0167886
6.15922e-06
-2.12489e-10
0.0167715
1.56561e-05
-5.70706e-10
0.0167092
5.6937e-05
-1.24505e-09
0.0164997
0.000192702
-4.76091e-09
0.0153923
0.0010665
-8.87462e-09
0.0142422
0.00114997
8.11931e-10
0.0130777
0.00116348
3.75227e-10
0.0118383
0.00123598
-5.25275e-10
0.0105117
0.00132199
-6.66015e-10
0.00907687
0.00143013
-7.56953e-10
0.00751955
0.00155447
-5.01281e-10
0.00583458
0.00168282
-2.79719e-10
0.00402929
0.00180321
-1.11945e-10
0.00209538
0.0019319
8.56958e-11
0.00209315
3.18472e-10
0.0168001
3.66864e-10
-3.27834e-12
0.0168001
1.99689e-09
-1.1659e-11
0.0168001
7.17187e-09
-1.34224e-11
0.0168
1.83175e-08
-2.15207e-11
0.0168
5.03547e-08
-2.20565e-11
0.0167999
1.14582e-07
-2.96312e-11
0.0167997
3.0346e-07
-3.18245e-11
0.0167994
6.57262e-07
-4.36963e-11
0.0167982
1.87808e-06
-6.09998e-11
0.0167961
3.83884e-06
-1.02693e-10
0.0167882
1.26535e-05
-2.09455e-10
0.0167709
3.14563e-05
-5.62424e-10
0.0167067
0.00011589
-1.2199e-09
0.0164978
0.000385031
-4.6586e-09
0.0153941
0.00212904
-8.78344e-09
0.0142389
0.00230515
8.03539e-10
0.0130877
0.00231358
3.48052e-10
0.0118585
0.00246174
-5.54735e-10
0.0105374
0.0026384
-6.83986e-10
0.0090908
0.00287217
-7.59562e-10
0.00751536
0.00312701
-5.0132e-10
0.00580993
0.00338628
-2.89914e-10
0.00397291
0.00363795
-1.32686e-10
0.00202064
0.003882
4.69857e-11
0.00411163
2.48449e-10
0.0168001
6.39746e-10
-3.30226e-12
0.0168001
2.96201e-09
-1.17573e-11
0.0168
1.12001e-08
-1.34302e-11
0.0168
2.83738e-08
-2.15396e-11
0.0168
7.81407e-08
-2.20423e-11
0.0167999
1.77998e-07
-2.95848e-11
0.0167997
4.68811e-07
-3.16866e-11
0.0167993
1.02574e-06
-4.32894e-11
0.0167981
2.8596e-06
-6.02703e-11
0.0167958
5.98122e-06
-9.98366e-11
0.0167882
1.8872e-05
-2.04423e-10
0.0167709
4.73421e-05
-5.40062e-10
0.0167095
0.000172042
-1.17492e-09
0.0165195
0.000559143
-4.43804e-09
0.0154649
0.00314168
-8.72036e-09
0.0143114
0.00345867
7.20206e-10
0.0131669
0.00345702
2.67698e-10
0.0119462
0.00367888
-5.95415e-10
0.0106312
0.00394859
-6.97724e-10
0.00918471
0.00431407
-7.38605e-10
0.00759924
0.00470956
-4.90284e-10
0.00587695
0.00510642
-3.11037e-10
0.00401676
0.00549594
-1.83874e-10
0.00203622
0.00586031
-5.50169e-11
0.00614548
7.2989e-11
0.0168001
7.6332e-10
-3.50286e-12
0.0168001
4.14788e-09
-1.16403e-11
0.0168
1.54201e-08
-1.36717e-11
0.0168
3.95148e-08
-2.14897e-11
0.0168
1.08912e-07
-2.22521e-11
0.0167999
2.49205e-07
-2.97289e-11
0.0167997
6.50871e-07
-3.21345e-11
0.0167992
1.46457e-06
-4.5431e-11
0.016798
3.83178e-06
-5.8079e-11
0.0167951
8.7026e-06
-1.20065e-10
0.0167885
2.40756e-05
-1.54189e-10
0.0167706
6.39073e-05
-5.80213e-10
0.0167124
0.000224262
-1.02187e-09
0.0165519
0.000705235
-3.72637e-09
0.0155574
0.00409286
-8.3967e-09
0.0144085
0.00460698
4.93047e-10
0.0132718
0.00459227
2.86364e-11
0.0120674
0.00487914
-6.91683e-10
0.0107682
0.00524297
-7.42418e-10
0.00934078
0.00573662
-7.30311e-10
0.00776372
0.00628371
-5.18083e-10
0.00602677
0.00684058
-3.77277e-10
0.00413991
0.0073802
-2.84747e-10
0.00211012
0.00788759
-2.11175e-10
0.00825288
-1.56764e-10
0.0168001
9.40847e-10
-3.51424e-12
0.0168001
5.22803e-09
-1.16113e-11
0.0168
1.94687e-08
-1.37192e-11
0.0168
5.00429e-08
-2.14956e-11
0.0168
1.37831e-07
-2.2284e-11
0.0167999
3.15876e-07
-2.97299e-11
0.0167997
8.24067e-07
-3.20648e-11
0.0167993
1.85111e-06
-4.50877e-11
0.016798
4.86754e-06
-5.72314e-11
0.0167957
1.08704e-05
-1.16763e-10
0.0167878
3.04862e-05
-1.45744e-10
0.0167721
7.83446e-05
-5.48629e-10
0.016714
0.000276418
-9.51309e-10
0.0165558
0.000849861
-3.43375e-09
0.0156178
0.00498607
-8.16488e-09
0.0144812
0.00574345
4.41788e-10
0.0133678
0.00570409
-9.13607e-11
0.0121954
0.00604707
-7.27614e-10
0.0109293
0.00650454
-7.39372e-10
0.0095311
0.00712967
-6.92481e-10
0.00798426
0.0078272
-5.45086e-10
0.00626542
0.00855704
-4.5569e-10
0.00434805
0.00929487
-3.99916e-10
0.00224156
0.00999128
-3.73398e-10
0.0104914
-3.76291e-10
0.0168001
1.16416e-09
-3.47645e-12
0.0168001
6.40808e-09
-1.1626e-11
0.0168
2.38662e-08
-1.37412e-11
0.0168
6.1243e-08
-2.15599e-11
0.0168
1.69517e-07
-2.2409e-11
0.0167999
3.90613e-07
-2.99776e-11
0.0167997
1.0104e-06
-3.23411e-11
0.0167991
2.36272e-06
-4.57533e-11
0.0167981
5.69022e-06
-5.72363e-11
0.0167947
1.40379e-05
-1.16061e-10
0.0167883
3.5413e-05
-1.42411e-10
0.0167714
9.38967e-05
-5.23607e-10
0.0167276
0.000314189
-9.07579e-10
0.0165721
0.000992336
-3.23017e-09
0.0157364
0.00577491
-8.00597e-09
0.0145886
0.00689226
5.53854e-10
0.0134888
0.00680256
-1.17684e-10
0.0123531
0.00717837
-7.23132e-10
0.0111432
0.00770963
-7.12278e-10
0.00979829
0.00846997
-6.42987e-10
0.00828283
0.00933861
-5.53288e-10
0.00657608
0.0102601
-5.08518e-10
0.00463824
0.0112297
-4.94807e-10
0.00243601
0.0121904
-5.12835e-10
0.0129241
-5.64442e-10
0.0168001
1.17871e-09
-3.4114e-12
0.0168001
6.51525e-09
-1.16575e-11
0.0168001
2.42891e-08
-1.36548e-11
0.0168001
6.22032e-08
-2.15196e-11
0.0168
1.72019e-07
-2.22383e-11
0.0168
3.92903e-07
-2.97322e-11
0.0168
1.0369e-06
-3.18784e-11
0.0168
2.289e-06
-4.47022e-11
0.0167992
6.26992e-06
-5.61068e-11
0.0167997
1.34185e-05
-1.04977e-10
0.0167918
4.17649e-05
-1.85222e-10
0.0167867
9.77023e-05
-4.49865e-10
0.0167133
0.000381688
-8.82794e-10
0.0165753
0.00111658
-3.17228e-09
0.0158631
0.00643812
-7.9511e-09
0.0146915
0.00806657
8.12921e-10
0.0136089
0.0078843
-3.14679e-11
0.012524
0.00825889
-6.79717e-10
0.0113809
0.00884792
-6.61296e-10
0.0101307
0.0097154
-5.90763e-10
0.008689
0.0107772
-5.46894e-10
0.00702296
0.0119233
-5.41615e-10
0.00507347
0.0131761
-5.53093e-10
0.00275594
0.0145047
-6.06725e-10
0.0156765
-7.01565e-10
0.0168001
1.16308e-09
-3.36272e-12
0.0168001
6.49417e-09
-1.16523e-11
0.0168001
2.41991e-08
-1.36376e-11
0.0168001
6.20472e-08
-2.14757e-11
0.0168001
1.70539e-07
-2.21367e-11
0.0168001
3.8596e-07
-2.95011e-11
0.0168
1.03903e-06
-3.13899e-11
0.0168002
2.11416e-06
-4.29988e-11
0.0167993
6.88522e-06
-5.52795e-11
0.0168009
1.16392e-05
-9.50443e-11
0.0167911
5.01382e-05
-1.82878e-10
0.0167906
9.68015e-05
-3.88362e-10
0.0167222
0.000444492
-1.01973e-09
0.0166215
0.00120602
-3.01028e-09
0.0162134
0.00679405
-8.12955e-09
0.0149678
0.00931665
1.00572e-09
0.0138533
0.00899926
6.97913e-11
0.0128056
0.00930262
-6.19483e-10
0.011735
0.00991405
-5.96596e-10
0.0105585
0.0108866
-5.29692e-10
0.0092126
0.0121185
-5.10845e-10
0.00761993
0.0135121
-5.32354e-10
0.00570059
0.0150923
-5.68703e-10
0.00327289
0.0169293
-6.44603e-10
0.0189458
-7.74628e-10
0.0168001
1.67978e-09
-3.34142e-12
0.0168001
7.61531e-09
-1.15973e-11
0.0168
2.99684e-08
-1.37185e-11
0.0168
7.45793e-08
-2.14392e-11
0.0168
2.09406e-07
-2.21919e-11
0.0167999
4.69683e-07
-2.95046e-11
0.0167997
1.25908e-06
-3.14086e-11
0.0167991
2.68055e-06
-4.39596e-11
0.0167979
7.78037e-06
-5.25076e-11
0.0167953
1.42545e-05
-1.13593e-10
0.0167896
5.42987e-05
-1.2909e-10
0.0167866
9.9082e-05
-4.22593e-10
0.0167655
0.00045978
-8.97452e-10
0.0167445
0.00121704
-2.81477e-09
0.016943
0.00654128
-8.01496e-09
0.015557
0.0107075
7.95003e-10
0.0143063
0.0102516
1.93051e-11
0.0132558
0.0103502
-5.58195e-10
0.0122622
0.0109045
-5.48105e-10
0.0111726
0.0119724
-5.20441e-10
0.00992677
0.0133605
-5.07226e-10
0.00850473
0.0149306
-5.29086e-10
0.00674965
0.0168441
-5.5642e-10
0.004234
0.0194423
-6.22613e-10
0.0231767
-7.63805e-10
0.0168001
-3.38174e-12
3.13097e-09
0.0168001
-1.15143e-11
3.41864e-09
0.0168
-1.3852e-11
4.39106e-08
0.0168001
-2.14526e-11
4.5149e-08
0.0168
-2.21494e-11
2.96802e-07
0.0168001
-2.91675e-11
2.98666e-07
0.0167996
-3.05219e-11
1.81289e-06
0.0168006
-4.04658e-11
1.63225e-06
0.0167965
-5.13883e-11
1.16902e-05
0.0168038
-8.77464e-11
6.74763e-06
0.0167738
-1.43625e-10
8.2965e-05
0.016833
-3.59873e-10
3.8825e-05
0.0167044
-8.58139e-10
0.000582551
0.0169697
-2.54249e-09
0.000943396
0.0182152
-7.73427e-09
0.0052401
0.0166617
-1.593e-10
0.0122612
0.0150831
-4.49541e-10
0.0118287
0.0140483
-3.91339e-10
0.0113826
0.0129792
-4.69324e-10
0.0119694
0.0120077
-5.57612e-10
0.0129397
0.0109568
-5.26996e-10
0.0144076
0.00979052
-5.24814e-10
0.0160932
0.00821615
-5.33841e-10
0.0184149
0.00584506
-5.60317e-10
0.0218103
-6.4469e-10
0.0290193
0.0168001
1.71511e-10
-1.04393e-15
0.0168001
9.3707e-10
-5.11114e-15
0.0168
3.48307e-09
-1.39504e-14
0.0168
8.93659e-09
-2.96178e-14
0.0168
2.4636e-08
-7.35351e-14
0.0167999
5.6221e-08
-1.45047e-13
0.0167998
1.48724e-07
-3.96518e-13
0.0167994
3.24384e-07
-7.4377e-13
0.0167982
9.17264e-07
-2.48182e-12
0.0167962
1.90872e-06
-4.09129e-12
0.0167885
6.16173e-06
-1.65147e-11
0.0167715
1.56637e-05
-3.78306e-11
0.0167092
5.69651e-05
-1.16507e-10
0.0164995
0.000192841
-3.88553e-10
0.0153915
0.00106693
-8.6532e-10
0.0142412
0.00115017
-1.34356e-11
0.0130766
0.0011636
-3.8331e-11
0.0118371
0.00123605
-1.02084e-10
0.0105104
0.00132204
-1.11175e-10
0.00907558
0.00143023
-1.16419e-10
0.00751812
0.00155462
-8.4385e-11
0.00583304
0.00168292
-7.3444e-11
0.00402784
0.00180313
-1.07695e-10
0.00209438
0.00193148
-9.63971e-11
0.00209216
-7.36062e-11
0.0168001
3.49922e-10
-1.04533e-15
0.0168001
1.91499e-09
-5.11847e-15
0.0168
7.11523e-09
-1.39619e-14
0.0168
1.82267e-08
-2.96424e-14
0.0168
5.02747e-08
-7.35459e-14
0.0167999
1.14496e-07
-1.45112e-13
0.0167997
3.03412e-07
-3.96099e-13
0.0167994
6.57311e-07
-7.44218e-13
0.0167982
1.87818e-06
-2.47203e-12
0.0167961
3.84032e-06
-4.08861e-12
0.0167882
1.26553e-05
-1.64244e-11
0.0167709
3.14739e-05
-3.75263e-11
0.0167066
0.000115941
-1.15675e-10
0.0164975
0.000385341
-3.84148e-10
0.0153932
0.00212996
-8.64924e-10
0.0142378
0.00230555
-1.1872e-11
0.0130866
0.00231378
-3.8441e-11
0.0118573
0.00246185
-1.03108e-10
0.0105362
0.00263849
-1.11539e-10
0.00908955
0.00287233
-1.15822e-10
0.0075141
0.00312717
-1.00289e-10
0.00580878
0.00338628
-7.36182e-11
0.00397198
0.00363767
-1.00695e-10
0.00202009
0.00388121
-1.01368e-10
0.0041101
-7.44789e-11
0.0168001
5.43271e-10
-1.05125e-15
0.0168001
2.97178e-09
-5.15052e-15
0.0168
1.10372e-08
-1.40215e-14
0.0168
2.83021e-08
-2.97638e-14
0.0168
7.79405e-08
-7.36143e-14
0.0167999
1.77786e-07
-1.45141e-13
0.0167997
4.68412e-07
-3.94796e-13
0.0167993
1.02445e-06
-7.39192e-13
0.0167981
2.86004e-06
-2.45644e-12
0.0167959
5.97147e-06
-4.02404e-12
0.0167882
1.88958e-05
-1.62847e-11
0.0167709
4.73339e-05
-3.67359e-11
0.0167094
0.000172161
-1.14316e-10
0.016519
0.000559764
-3.75199e-10
0.0154637
0.00314327
-8.72323e-10
0.0143101
0.00345919
-1.099e-11
0.0131656
0.00345717
-3.97216e-11
0.011945
0.00367897
-1.04855e-10
0.01063
0.00394864
-1.12009e-10
0.00918358
0.00431419
-1.14592e-10
0.00759821
0.0047096
-8.27508e-11
0.00587614
0.00510623
-7.32666e-11
0.00401622
0.00549541
-7.13553e-11
0.00203596
0.00585925
-1.08109e-10
0.0061437
-9.61275e-11
0.0168001
7.61687e-10
-1.10163e-15
0.0168001
4.139e-09
-5.37506e-15
0.0168
1.53968e-08
-1.47749e-14
0.0168
3.94678e-08
-3.14839e-14
0.0168
1.08846e-07
-7.84406e-14
0.0167999
2.49093e-07
-1.56549e-13
0.0167997
6.50708e-07
-4.16907e-13
0.0167992
1.46433e-06
-8.4538e-13
0.016798
3.83125e-06
-2.38621e-12
0.0167951
8.70295e-06
-4.94691e-12
0.0167885
2.40777e-05
-1.4316e-11
0.0167706
6.3929e-05
-3.85942e-11
0.0167124
0.00022434
-1.09225e-10
0.0165521
0.000705602
-3.46027e-10
0.0155576
0.00409432
-8.76831e-10
0.0144086
0.00460768
-1.29335e-11
0.0132717
0.00459265
-5.81411e-11
0.012067
0.00487941
-1.09041e-10
0.0107678
0.00524314
-1.13801e-10
0.0093403
0.00573678
-1.13917e-10
0.00776328
0.0062837
-9.92189e-11
0.00602644
0.0068403
-9.15543e-11
0.00413973
0.00737954
-7.24489e-11
0.00211007
0.00788643
-6.90215e-11
0.00825107
-7.39343e-11
0.0168001
9.59848e-10
-1.11694e-15
0.0168001
5.23746e-09
-5.44899e-15
0.0168
1.94706e-08
-1.49677e-14
0.0168
5.00233e-08
-3.18906e-14
0.0168
1.37754e-07
-7.91025e-14
0.0167999
3.15683e-07
-1.57615e-13
0.0167997
8.23725e-07
-4.17549e-13
0.0167993
1.85008e-06
-8.41621e-13
0.016798
4.86752e-06
-2.37998e-12
0.0167957
1.08674e-05
-4.88027e-12
0.0167878
3.04943e-05
-1.42206e-11
0.0167721
7.83543e-05
-3.75349e-11
0.0167139
0.00027649
-1.0805e-10
0.0165558
0.000850125
-3.36543e-10
0.015618
0.00498727
-8.90443e-10
0.0144816
0.005744
-2.6313e-12
0.0133682
0.00570451
-3.99603e-11
0.0121957
0.00604743
-1.10809e-10
0.0109294
0.0065048
-1.13714e-10
0.00953118
0.00712991
-1.11919e-10
0.00798432
0.00782721
-9.18545e-11
0.00626552
0.00855674
-9.36854e-11
0.00434818
0.00929421
-9.08052e-11
0.00224166
0.00999016
-8.90683e-11
0.0104897
-8.85425e-11
0.0168001
1.19546e-09
-1.17866e-15
0.0168001
6.41767e-09
-5.71839e-15
0.0168
2.39252e-08
-1.57631e-14
0.0168
6.13026e-08
-3.3682e-14
0.0168
1.69661e-07
-8.2309e-14
0.0167999
3.9087e-07
-1.63212e-13
0.0167997
1.01092e-06
-4.23805e-13
0.0167991
2.3641e-06
-8.46291e-13
0.0167981
5.6915e-06
-2.41225e-12
0.0167947
1.40472e-05
-4.77653e-12
0.0167883
3.53967e-05
-1.45341e-11
0.0167715
9.39358e-05
-3.63328e-11
0.0167276
0.000314226
-1.09232e-10
0.0165722
0.000992477
-3.33035e-10
0.0157367
0.00577588
-9.15569e-10
0.0145891
0.00689256
1.74481e-11
0.0134894
0.00680295
-3.35363e-11
0.0123537
0.00717876
-1.10347e-10
0.0111437
0.00770996
-1.12293e-10
0.00979877
0.00847023
-1.0924e-10
0.00828326
0.00933869
-9.37124e-11
0.00657646
0.0102599
-9.36935e-11
0.00463858
0.0112291
-9.20002e-11
0.00243623
0.0121895
-8.69731e-11
0.0129226
-9.22043e-11
0.0168001
1.20286e-09
-1.12422e-15
0.0168001
6.53822e-09
-5.46125e-15
0.0168001
2.43235e-08
-1.50875e-14
0.0168001
6.22589e-08
-3.2226e-14
0.0168
1.72128e-07
-8.02594e-14
0.0168
3.93131e-07
-1.61221e-13
0.0168
1.03739e-06
-4.24148e-13
0.0168
2.29036e-06
-8.8072e-13
0.0167992
6.27172e-06
-2.37136e-12
0.0167997
1.34253e-05
-4.96259e-12
0.0167918
4.17725e-05
-1.53546e-11
0.0167867
9.77397e-05
-3.64545e-11
0.0167134
0.00038166
-1.01357e-10
0.0165753
0.00111677
-3.39207e-10
0.0158629
0.0064391
-9.3795e-10
0.0146917
0.00806648
4.39022e-11
0.0136094
0.0078845
-4.28825e-11
0.0125245
0.00825919
-1.08924e-10
0.0113815
0.00884822
-1.10105e-10
0.0101312
0.00971566
-9.96351e-11
0.00868957
0.0107773
-9.81367e-11
0.0070235
0.0119231
-9.2323e-11
0.00507393
0.0131756
-9.23205e-11
0.00275623
0.0145039
-9.22247e-11
0.0156753
-9.38311e-11
0.0168001
1.17217e-09
-1.02053e-15
0.0168001
6.52689e-09
-5.02137e-15
0.0168001
2.41869e-08
-1.35734e-14
0.0168001
6.20632e-08
-2.87781e-14
0.0168001
1.70531e-07
-7.07226e-14
0.0168001
3.86002e-07
-1.39103e-13
0.0168
1.03916e-06
-3.77728e-13
0.0168002
2.11431e-06
-7.04366e-13
0.0167993
6.88735e-06
-2.34096e-12
0.0168009
1.16355e-05
-3.89989e-12
0.0167911
5.01663e-05
-1.56145e-11
0.0167907
9.6799e-05
-2.92995e-11
0.0167221
0.000444619
-1.26222e-10
0.0166213
0.00120627
-3.28723e-10
0.0162124
0.00679564
-9.80026e-10
0.0149673
0.00931611
6.8794e-11
0.0138533
0.00899898
-2.09633e-11
0.0128059
0.00930265
-1.05048e-10
0.0117355
0.00991421
-1.05798e-10
0.010559
0.0108868
-1.0293e-10
0.00921318
0.0121185
-8.59415e-11
0.0076205
0.013512
-9.15111e-11
0.00570107
0.015092
-9.11581e-11
0.0032732
0.0169287
-9.06953e-11
0.018945
-9.28382e-11
0.0168001
1.64345e-09
-9.19562e-16
0.0168001
7.72772e-09
-4.61271e-15
0.0168
2.98178e-08
-1.20109e-14
0.0168
7.44681e-08
-2.52134e-14
0.0168
2.09224e-07
-6.01233e-14
0.0167999
4.69687e-07
-1.14786e-13
0.0167997
1.25933e-06
-3.25484e-13
0.0167991
2.68217e-06
-5.00063e-13
0.0167979
7.7818e-06
-2.37243e-12
0.0167953
1.42662e-05
-1.90443e-12
0.0167896
5.43071e-05
-1.8921e-11
0.0167866
9.91275e-05
-2.34914e-11
0.0167655
0.00045988
-1.30431e-10
0.0167443
0.00121746
-3.18097e-10
0.0169416
0.00654388
-9.98836e-10
0.015556
0.0107066
5.09937e-11
0.014306
0.0102507
-2.26467e-11
0.0132557
0.01035
-9.47617e-11
0.0122623
0.0109045
-9.21742e-11
0.0111729
0.0119723
-1.03785e-10
0.0099272
0.0133604
-9.61873e-11
0.0085052
0.0149304
-9.01808e-11
0.0067501
0.0168437
-8.98798e-11
0.00423434
0.0194418
-8.61051e-11
0.0231763
-8.72594e-11
0.0168001
-9.54796e-16
2.9982e-09
0.0168001
-4.6935e-15
3.80909e-09
0.0168
-1.25965e-14
4.27397e-08
0.0168001
-2.67116e-14
4.56359e-08
0.0168
-6.52111e-14
2.95593e-07
0.0168001
-1.29262e-13
2.99377e-07
0.0167996
-3.4594e-13
1.8122e-06
0.0168006
-6.80377e-13
1.63408e-06
0.0167965
-2.14655e-12
1.1691e-05
0.0168039
-3.35346e-12
6.75808e-06
0.0167738
-1.5783e-11
8.29842e-05
0.016833
-2.52839e-11
3.88759e-05
0.0167043
-1.16686e-10
0.000582701
0.016969
-2.96902e-10
0.00094439
0.0182127
-9.84397e-10
0.00524443
0.0166597
-5.19758e-11
0.0122598
0.0150823
-8.17932e-11
0.0118265
0.0140476
-8.08774e-11
0.0113822
0.012979
-9.42905e-11
0.0119689
0.0120077
-9.41351e-11
0.0129394
0.0109571
-8.86784e-11
0.0144073
0.00979089
-9.55401e-11
0.0160929
0.00821657
-8.80036e-11
0.0184146
0.00584542
-7.85372e-11
0.0218099
-7.34445e-11
0.0290192
0.0168001
1.7151e-10
1.18429e-16
0.0168001
9.37064e-10
-4.26242e-16
0.0168
3.48305e-09
-1.42364e-15
0.0168
8.93656e-09
-3.06747e-15
0.0168
2.46359e-08
-8.94267e-15
0.0167999
5.6221e-08
-1.81522e-14
0.0167998
1.48724e-07
-5.40978e-14
0.0167994
3.24385e-07
-1.02586e-13
0.0167982
9.1727e-07
-3.55756e-13
0.0167962
1.90873e-06
-5.85434e-13
0.0167885
6.1618e-06
-2.41433e-12
0.0167715
1.5664e-05
-5.5286e-12
0.0167092
5.69661e-05
-1.71966e-11
0.0164994
0.000192848
-5.74622e-11
0.0153915
0.00106695
-1.29014e-10
0.0142412
0.00115017
-2.69727e-12
0.0130765
0.0011636
-6.69181e-12
0.0118371
0.00123605
-1.58027e-11
0.0105104
0.00132204
-1.71085e-11
0.00907554
0.00143023
-1.78159e-11
0.00751808
0.00155462
-1.55054e-11
0.005833
0.00168292
-1.39602e-11
0.0040278
0.00180313
-1.32152e-11
0.00209435
0.00193146
-1.24118e-11
0.00209214
-1.15599e-11
0.0168001
3.49918e-10
1.18328e-16
0.0168001
1.91496e-09
-2.42787e-16
0.0168
7.11515e-09
-1.42551e-15
0.0168
1.82265e-08
-3.07207e-15
0.0168
5.02743e-08
-8.94931e-15
0.0167999
1.14495e-07
-1.81727e-14
0.0167997
3.0341e-07
-5.40721e-14
0.0167994
6.57308e-07
-1.02704e-13
0.0167982
1.87818e-06
-3.54589e-13
0.0167961
3.84035e-06
-5.85274e-13
0.0167882
1.26553e-05
-2.40299e-12
0.0167709
3.14745e-05
-5.48661e-12
0.0167066
0.000115943
-1.7086e-11
0.0164975
0.000385355
-5.68406e-11
0.0153932
0.00213
-1.2901e-10
0.0142378
0.00230555
-2.91109e-12
0.0130866
0.00231378
-6.70066e-12
0.0118573
0.00246185
-1.59492e-11
0.0105362
0.00263849
-1.71608e-11
0.00908951
0.00287233
-1.7734e-11
0.00751406
0.00312717
-1.54171e-11
0.00580874
0.00338628
-1.39038e-11
0.00397196
0.00363767
-1.31956e-11
0.00202007
0.00388119
-1.24323e-11
0.00411006
-1.16539e-11
0.0168001
5.43247e-10
1.17773e-16
0.0168001
2.97166e-09
-2.4799e-16
0.0168
1.10368e-08
-1.43467e-15
0.0168
2.83009e-08
-3.09212e-15
0.0168
7.79374e-08
-8.97195e-15
0.0167999
1.77778e-07
-1.82061e-14
0.0167997
4.68396e-07
-5.39686e-14
0.0167993
1.02439e-06
-1.02136e-13
0.0167981
2.86004e-06
-3.52847e-13
0.0167959
5.97101e-06
-5.76546e-13
0.0167882
1.88966e-05
-2.3861e-12
0.0167709
4.73334e-05
-5.37687e-12
0.0167094
0.000172165
-1.69082e-11
0.016519
0.000559791
-5.55837e-11
0.0154637
0.00314333
-1.30217e-10
0.01431
0.00345919
-2.65802e-12
0.0131656
0.00345717
-6.87799e-12
0.0119449
0.00367897
-1.62142e-11
0.01063
0.00394864
-1.72476e-11
0.00918354
0.00431418
-1.75832e-11
0.00759818
0.00470959
-1.52777e-11
0.00587611
0.00510622
-1.39284e-11
0.00401621
0.00549539
-1.32961e-11
0.00203595
0.00585922
-1.26906e-11
0.00614365
-1.21279e-11
0.0168001
7.61679e-10
1.11146e-16
0.0168001
4.13894e-09
-4.61167e-16
0.0168
1.53966e-08
-1.5444e-15
0.0168
3.94672e-08
-3.34325e-15
0.0168
1.08845e-07
-9.69162e-15
0.0167999
2.4909e-07
-1.99107e-14
0.0167997
6.50701e-07
-5.7321e-14
0.0167992
1.46431e-06
-1.1798e-13
0.016798
3.83121e-06
-3.43171e-13
0.0167951
8.70293e-06
-7.13885e-13
0.0167885
2.40776e-05
-2.1012e-12
0.0167706
6.39297e-05
-5.66005e-12
0.0167124
0.000224342
-1.61974e-11
0.0165521
0.000705618
-5.13906e-11
0.0155576
0.00409438
-1.31105e-10
0.0144086
0.00460768
-2.62881e-12
0.0132716
0.00459265
-7.82587e-12
0.012067
0.00487941
-1.68434e-11
0.0107678
0.00524314
-1.75454e-11
0.00934028
0.00573679
-1.75343e-11
0.00776327
0.0062837
-1.53202e-11
0.00602644
0.00684029
-1.41465e-11
0.00413973
0.00737952
-1.36005e-11
0.00211007
0.0078864
-1.31729e-11
0.00825102
-1.28512e-11
0.0168001
9.59817e-10
1.09036e-16
0.0168001
5.23732e-09
-4.72795e-16
0.0168
1.94701e-08
-1.57487e-15
0.0168
5.0022e-08
-3.40823e-15
0.0168
1.37751e-07
-9.8073e-15
0.0167999
3.15676e-07
-2.01062e-14
0.0167997
8.23713e-07
-5.75409e-14
0.0167993
1.85005e-06
-1.17683e-13
0.016798
4.86749e-06
-3.43081e-13
0.0167957
1.08673e-05
-7.05637e-13
0.0167878
3.04943e-05
-2.09263e-12
0.0167721
7.83547e-05
-5.5168e-12
0.0167139
0.000276491
-1.60622e-11
0.0165558
0.000850137
-5.00986e-11
0.015618
0.00498732
-1.33379e-10
0.0144816
0.00574399
-1.4389e-12
0.0133682
0.00570452
-7.78947e-12
0.0121957
0.00604744
-1.7137e-11
0.0109294
0.00650481
-1.75883e-11
0.00953118
0.00712991
-1.73194e-11
0.00798432
0.00782721
-1.54107e-11
0.00626553
0.00855673
-1.44723e-11
0.00434819
0.00929419
-1.39904e-11
0.00224167
0.00999013
-1.36819e-11
0.0104897
-1.35386e-11
0.0168001
1.19548e-09
1.0022e-16
0.0168001
6.41781e-09
-3.45086e-16
0.0168
2.39256e-08
-1.69368e-15
0.0168
6.13038e-08
-3.67626e-15
0.0168
1.69664e-07
-1.02949e-14
0.0167999
3.90876e-07
-2.09691e-14
0.0167997
1.01093e-06
-5.85803e-14
0.0167991
2.36412e-06
-1.18677e-13
0.0167981
5.69155e-06
-3.48513e-13
0.0167947
1.40472e-05
-6.92249e-13
0.0167883
3.53964e-05
-2.14353e-12
0.0167715
9.39363e-05
-5.3526e-12
0.0167276
0.00031423
-1.62737e-11
0.0165722
0.000992483
-4.96865e-11
0.0157367
0.00577594
-1.3739e-10
0.0145891
0.00689253
1.18695e-12
0.0134894
0.00680294
-7.04208e-12
0.0123537
0.00717876
-1.71264e-11
0.0111437
0.00770996
-1.74519e-11
0.00979879
0.00847023
-1.70247e-11
0.00828328
0.00933869
-1.53411e-11
0.00657647
0.0102599
-1.45383e-11
0.00463859
0.0112291
-1.42102e-11
0.00243623
0.0121894
-1.40636e-11
0.0129226
-1.40785e-11
0.0168001
1.20291e-09
1.07367e-16
0.0168001
6.53848e-09
-4.77842e-16
0.0168001
2.43244e-08
-1.5997e-15
0.0168001
6.22614e-08
-3.47241e-15
0.0168
1.72135e-07
-1.00171e-14
0.0168
3.93148e-07
-2.07115e-14
0.0168
1.03742e-06
-5.87436e-14
0.0168
2.29048e-06
-1.23888e-13
0.0167992
6.27184e-06
-3.43346e-13
0.0167997
1.3426e-05
-7.21202e-13
0.0167918
4.17729e-05
-2.26672e-12
0.0167867
9.77434e-05
-5.38476e-12
0.0167134
0.00038165
-1.51462e-11
0.0165753
0.00111679
-5.06947e-11
0.0158629
0.00643917
-1.41022e-10
0.0146917
0.00806643
5.04781e-12
0.0136094
0.00788448
-5.91441e-12
0.0125245
0.00825919
-1.69933e-11
0.0113815
0.00884823
-1.72182e-11
0.0101313
0.00971566
-1.67795e-11
0.00868959
0.0107773
-1.53706e-11
0.00702352
0.0119231
-1.47332e-11
0.00507394
0.0131756
-1.43474e-11
0.00275624
0.0145039
-1.42495e-11
0.0156753
-1.43826e-11
0.0168001
1.17221e-09
1.20219e-16
0.0168001
6.52708e-09
-4.15945e-16
0.0168001
2.41877e-08
-1.38356e-15
0.0168001
6.20652e-08
-2.97972e-15
0.0168001
1.70537e-07
-8.64849e-15
0.0168001
3.86017e-07
-1.75271e-14
0.0168
1.03919e-06
-5.20768e-14
0.0168002
2.11441e-06
-9.82869e-14
0.0167993
6.88741e-06
-3.39625e-13
0.0168009
1.16364e-05
-5.66399e-13
0.0167911
5.01655e-05
-2.3094e-12
0.0167907
9.68022e-05
-4.33793e-12
0.0167221
0.000444621
-1.88449e-11
0.0166213
0.00120629
-4.92192e-11
0.0162123
0.00679579
-1.47494e-10
0.0149672
0.00931602
8.65925e-12
0.0138532
0.00899893
-3.91013e-12
0.0128059
0.00930262
-1.65235e-11
0.0117355
0.00991421
-1.66992e-11
0.010559
0.0108868
-1.63482e-11
0.0092132
0.0121185
-1.51263e-11
0.00762052
0.013512
-1.46025e-11
0.00570108
0.015092
-1.4326e-11
0.00327321
0.0169287
-1.41727e-11
0.018945
-1.43807e-11
0.0168001
1.64346e-09
1.31432e-16
0.0168001
7.72783e-09
-1.62065e-16
0.0168
2.9818e-08
-1.16027e-15
0.0168
7.44689e-08
-2.47125e-15
0.0168
2.09226e-07
-7.1283e-15
0.0167999
4.6969e-07
-1.40368e-14
0.0167997
1.25935e-06
-4.45882e-14
0.0167991
2.68215e-06
-6.85678e-14
0.0167979
7.78201e-06
-3.45223e-13
0.0167953
1.4266e-05
-2.72776e-13
0.0167896
5.43089e-05
-2.80455e-12
0.0167866
9.91288e-05
-3.48202e-12
0.0167655
0.000459895
-1.94885e-11
0.0167443
0.00121751
-4.7682e-11
0.0169414
0.00654419
-1.50408e-10
0.0155559
0.0107064
5.90732e-12
0.0143059
0.0102506
-3.50648e-12
0.0132556
0.0103499
-1.55189e-11
0.0122623
0.0109045
-1.60712e-11
0.0111729
0.0119723
-1.66192e-11
0.0099272
0.0133604
-1.54088e-11
0.00850522
0.0149304
-1.47336e-11
0.00675012
0.0168437
-1.43708e-11
0.00423435
0.0194418
-1.3746e-11
0.0231763
-1.38452e-11
0.0168001
1.27718e-16
2.99827e-09
0.0168001
-3.69357e-16
3.80938e-09
0.0168
-1.24347e-15
4.27411e-08
0.0168001
-2.68872e-15
4.56386e-08
0.0168
-7.87892e-15
2.95604e-07
0.0168001
-1.61795e-14
2.99392e-07
0.0167996
-4.76693e-14
1.81228e-06
0.0168006
-9.52238e-14
1.63412e-06
0.0167965
-3.12549e-13
1.16916e-05
0.0168038
-4.8629e-13
6.75799e-06
0.0167738
-2.34558e-12
8.29887e-05
0.016833
-3.74311e-12
3.88778e-05
0.0167043
-1.74665e-11
0.000582728
0.0169689
-4.45294e-11
0.000944504
0.0182123
-1.48214e-10
0.00524499
0.0166594
-1.13313e-11
0.0122596
0.0150822
-1.34662e-11
0.0118263
0.0140475
-1.31803e-11
0.0113822
0.0129789
-1.52584e-11
0.0119689
0.0120077
-1.77609e-11
0.0129394
0.010957
-1.62221e-11
0.0144073
0.0097909
-1.55282e-11
0.0160928
0.00821659
-1.43926e-11
0.0184145
0.00584544
-1.29857e-11
0.0218099
-1.22969e-11
0.0290192
0.0168001
1.7151e-10
-7.95576e-17
0.0168001
9.37063e-10
-3.44221e-16
0.0168
3.48305e-09
-1.12171e-15
0.0168
8.93655e-09
-2.38431e-15
0.0168
2.46359e-08
-6.90787e-15
0.0167999
5.62209e-08
-1.39764e-14
0.0167998
1.48724e-07
-4.17529e-14
0.0167994
3.24385e-07
-7.91012e-14
0.0167982
9.17271e-07
-2.75541e-13
0.0167962
1.90873e-06
-4.56501e-13
0.0167885
6.16181e-06
-1.8469e-12
0.0167715
1.5664e-05
-4.48103e-12
0.0167092
5.69663e-05
-1.26564e-11
0.0164994
0.000192849
-4.71617e-11
0.0153915
0.00106695
-1.06989e-10
0.0142412
0.00115017
-3.3944e-12
0.0130765
0.0011636
-5.81434e-12
0.0118371
0.00123605
-1.2892e-11
0.0105104
0.00132204
-1.38132e-11
0.00907554
0.00143024
-1.40384e-11
0.00751807
0.00155462
-1.17668e-11
0.005833
0.00168292
-1.02895e-11
0.0040278
0.00180313
-9.59201e-12
0.00209435
0.00193146
-8.85231e-12
0.00209213
-8.17047e-12
0.0168001
3.49918e-10
-7.9799e-17
0.0168001
1.91496e-09
-3.45192e-16
0.0168
7.11514e-09
-1.12441e-15
0.0168
1.82265e-08
-2.39033e-15
0.0168
5.02742e-08
-6.91942e-15
0.0167999
1.14495e-07
-1.4005e-14
0.0167997
3.03409e-07
-4.17692e-14
0.0167994
6.57307e-07
-7.92562e-14
0.0167982
1.87817e-06
-2.74883e-13
0.0167961
3.84035e-06
-4.56669e-13
0.0167882
1.26553e-05
-1.8403e-12
0.0167709
3.14746e-05
-4.44944e-12
0.0167066
0.000115943
-1.25772e-11
0.0164975
0.000385357
-4.66608e-11
0.0153932
0.00213
-1.0688e-10
0.0142378
0.00230555
-3.1941e-12
0.0130865
0.00231378
-5.79863e-12
0.0118573
0.00246185
-1.29682e-11
0.0105362
0.00263849
-1.38105e-11
0.00908951
0.00287233
-1.3923e-11
0.00751405
0.00312717
-1.16518e-11
0.00580874
0.00338627
-1.01971e-11
0.00397195
0.00363766
-9.525e-12
0.00202007
0.00388119
-8.81591e-12
0.00411005
-8.19364e-12
0.0168001
5.43244e-10
-8.07028e-17
0.0168001
2.97164e-09
-3.49199e-16
0.0168
1.10367e-08
-1.13422e-15
0.0168
2.83008e-08
-2.41113e-15
0.0168
7.7937e-08
-6.95106e-15
0.0167999
1.77777e-07
-1.40587e-14
0.0167997
4.68394e-07
-4.17676e-14
0.0167993
1.02438e-06
-7.89589e-14
0.0167981
2.86004e-06
-2.7405e-13
0.0167959
5.97095e-06
-4.504e-13
0.0167882
1.88968e-05
-1.83189e-12
0.0167709
4.73333e-05
-4.3651e-12
0.0167094
0.000172166
-1.24565e-11
0.016519
0.000559795
-4.56731e-11
0.0154637
0.00314334
-1.0782e-10
0.01431
0.00345919
-3.07573e-12
0.0131656
0.00345717
-5.90987e-12
0.0119449
0.00367897
-1.31262e-11
0.01063
0.00394864
-1.38231e-11
0.00918354
0.00431418
-1.37431e-11
0.00759818
0.00470959
-1.14865e-11
0.00587611
0.00510621
-1.01618e-11
0.0040162
0.00549539
-9.55231e-12
0.00203595
0.00585922
-8.95398e-12
0.00614365
-8.50526e-12
0.0168001
7.61678e-10
-8.72308e-17
0.0168001
4.13893e-09
-3.74805e-16
0.0168
1.53965e-08
-1.22371e-15
0.0168
3.94671e-08
-2.61389e-15
0.0168
1.08845e-07
-7.53035e-15
0.0167999
2.49089e-07
-1.54256e-14
0.0167997
6.507e-07
-4.44921e-14
0.0167992
1.46431e-06
-9.15536e-14
0.016798
3.83121e-06
-2.67229e-13
0.0167951
8.70292e-06
-5.59688e-13
0.0167885
2.40776e-05
-1.61999e-12
0.0167706
6.39298e-05
-4.60319e-12
0.0167124
0.000224342
-1.19601e-11
0.0165521
0.00070562
-4.23268e-11
0.0155576
0.00409439
-1.08577e-10
0.0144086
0.00460768
-3.29422e-12
0.0132716
0.00459265
-6.63535e-12
0.012067
0.00487941
-1.35726e-11
0.0107678
0.00524314
-1.3998e-11
0.00934028
0.00573679
-1.36327e-11
0.00776327
0.0062837
-1.1442e-11
0.00602643
0.00684029
-1.02571e-11
0.00413972
0.00737952
-9.70908e-12
0.00211007
0.0078864
-9.2407e-12
0.00825102
-8.98115e-12
0.0168001
9.59812e-10
-8.95356e-17
0.0168001
5.2373e-09
-3.85685e-16
0.0168
1.947e-08
-1.25199e-15
0.0168
5.00218e-08
-2.67348e-15
0.0168
1.37751e-07
-7.64599e-15
0.0167999
3.15675e-07
-1.56294e-14
0.0167997
8.23711e-07
-4.48139e-14
0.0167993
1.85005e-06
-9.16067e-14
0.016798
4.86749e-06
-2.68103e-13
0.0167957
1.08673e-05
-5.5461e-13
0.0167878
3.04943e-05
-1.61967e-12
0.0167721
7.83547e-05
-4.49945e-12
0.0167139
0.000276491
-1.1895e-11
0.0165558
0.000850138
-4.1345e-11
0.015618
0.00498733
-1.10518e-10
0.0144816
0.00574399
-2.01209e-12
0.0133682
0.00570451
-6.54813e-12
0.0121957
0.00604744
-1.37289e-11
0.0109294
0.0065048
-1.39518e-11