/*--------------------------------*- C++ -*----------------------------------*\
| =========                 |                                                 |
| \\      /  F ield         | OpenFOAM: The Open Source CFD Toolbox           |
|  \\    /   O peration     | Version:  4.1                                   |
|   \\  /    A nd           | Web:      www.OpenFOAM.org                      |
|    \\/     M anipulation  |                                                 |
\*---------------------------------------------------------------------------*/
FoamFile
{
    version     2.0;
    format      ascii;
    class       volScalarField;
    location    "5.98";
    object      T;
}
// * * * * * * * * * * * * * * * * * * * * * * * * * * * * * * * * * * * * * //

dimensions      [0 0 0 1 0 0 0];

internalField   nonuniform List<scalar> 
52500
(
0.999996
1.00002
1.00004
1.00016
1.0003
1.00098
1.00182
1.00544
1.01123
1.02944
1.07835
1.17572
1.53357
2.34459
2.66017
2.73034
2.7249
2.7222
2.73673
2.74875
2.76264
2.77157
2.77969
2.78584
2.7887
0.999996
1.00002
1.00004
1.00016
1.0003
1.00097
1.00179
1.00536
1.01109
1.029
1.07744
1.17316
1.52905
2.33487
2.65705
2.7303
2.72469
2.72187
2.73626
2.74813
2.76184
2.77027
2.77838
2.78363
2.78564
0.999996
1.00002
1.00004
1.00016
1.00029
1.00094
1.00175
1.00519
1.01082
1.02811
1.07551
1.1679
1.51877
2.31279
2.64888
2.72916
2.72322
2.72009
2.7344
2.74602
2.75953
2.76813
2.77509
2.78099
2.78178
0.999995
1.00002
1.00004
1.00015
1.00028
1.0009
1.00167
1.00494
1.01041
1.02673
1.07256
1.15972
1.50262
2.278
2.63599
2.72723
2.72088
2.71667
2.73042
2.74242
2.75401
2.7624
2.77088
2.77462
2.77693
0.999995
1.00002
1.00004
1.00014
1.00026
1.00086
1.00159
1.0047
1.00983
1.02543
1.06827
1.15174
1.46998
2.2196
2.61689
2.72313
2.71613
2.71073
2.7237
2.73636
2.74916
2.75516
2.76079
2.76745
2.76655
0.999995
1.00002
1.00004
1.00013
1.00025
1.00081
1.00148
1.00449
1.0091
1.02415
1.06234
1.14196
1.42631
2.14003
2.58989
2.71746
2.71087
2.70166
2.71569
2.72344
2.73815
2.74697
2.75286
2.75519
2.75686
0.999995
1.00001
1.00003
1.00012
1.00023
1.00075
1.00137
1.00429
1.00824
1.02316
1.0545
1.13041
1.37399
2.03803
2.55373
2.70845
2.7021
2.69212
2.70731
2.71567
2.72339
2.72992
2.73672
2.74
2.73657
0.999995
1.00001
1.00003
1.00011
1.00021
1.00068
1.00124
1.00387
1.00739
1.02109
1.04755
1.11828
1.32176
1.92359
2.50453
2.68988
2.68046
2.6721
2.68786
2.70148
2.71232
2.71406
2.71773
2.71716
2.71357
0.999995
1.00001
1.00002
1.0001
1.00019
1.00061
1.00111
1.00348
1.0066
1.01904
1.04212
1.10634
1.28309
1.82085
2.4772
2.68049
2.67171
2.65696
2.67154
2.67699
2.68923
2.69164
2.69106
2.68538
2.66221
0.999994
1.00001
1.00002
1.00008
1.00016
1.00051
1.00096
1.00289
1.00585
1.01556
1.03883
1.09019
1.25958
1.69869
2.42164
2.65496
2.65292
2.65239
2.65535
2.66239
2.66567
2.66501
2.65645
2.63538
2.58555
1
1.00003
1.00005
1.00017
1.00031
1.00099
1.00183
1.00545
1.01124
1.02946
1.07837
1.17576
1.53361
2.34471
2.66025
2.7304
2.72497
2.72228
2.73681
2.74882
2.76272
2.77165
2.77977
2.78593
2.78878
1
1.00003
1.00005
1.00017
1.00031
1.00098
1.0018
1.00537
1.0111
1.02902
1.07745
1.17321
1.52909
2.33499
2.65713
2.73037
2.72476
2.72194
2.73633
2.7482
2.76191
2.77035
2.77846
2.78371
2.78573
1
1.00003
1.00005
1.00017
1.0003
1.00095
1.00175
1.0052
1.01083
1.02813
1.07552
1.16795
1.5188
2.31291
2.64896
2.72923
2.72328
2.72016
2.73447
2.74609
2.7596
2.76821
2.77516
2.78107
2.78186
1
1.00003
1.00005
1.00016
1.00029
1.00091
1.00168
1.00495
1.01042
1.02675
1.07257
1.15976
1.50266
2.27812
2.63606
2.7273
2.72095
2.71674
2.7305
2.74249
2.75408
2.76248
2.77096
2.7747
2.77701
1
1.00002
1.00005
1.00015
1.00027
1.00086
1.0016
1.00471
1.00984
1.02545
1.06828
1.15178
1.47001
2.21973
2.61696
2.7232
2.71619
2.7108
2.72376
2.73643
2.74924
2.75524
2.76086
2.76752
2.76663
1
1.00002
1.00004
1.00014
1.00026
1.00082
1.00149
1.0045
1.00911
1.02417
1.06234
1.142
1.4263
2.14012
2.58996
2.71753
2.71093
2.70173
2.71576
2.72351
2.73821
2.74705
2.75294
2.75526
2.75693
1
1.00002
1.00004
1.00013
1.00024
1.00076
1.00138
1.0043
1.00824
1.02318
1.05451
1.13045
1.37401
2.03813
2.55379
2.70851
2.70217
2.69218
2.70737
2.71574
2.72345
2.72999
2.73679
2.74007
2.73664
1
1.00002
1.00004
1.00012
1.00022
1.00069
1.00125
1.00388
1.0074
1.02111
1.04756
1.11831
1.32178
1.92369
2.50459
2.68995
2.68053
2.67217
2.68792
2.70154
2.71239
2.71413
2.7178
2.71723
2.71364
1
1.00002
1.00003
1.00011
1.00019
1.00062
1.00112
1.00349
1.00661
1.01906
1.04213
1.10637
1.28311
1.82094
2.47723
2.68056
2.67178
2.65702
2.6716
2.67705
2.68929
2.6917
2.69112
2.68544
2.66227
1
1.00001
1.00003
1.00009
1.00017
1.00052
1.00097
1.0029
1.00585
1.01558
1.03883
1.09021
1.25956
1.69877
2.42168
2.65501
2.65296
2.65245
2.65542
2.66247
2.66573
2.66507
2.65651
2.63544
2.5856
1
1.00003
1.00005
1.00017
1.00031
1.00099
1.00183
1.00545
1.01124
1.02946
1.07837
1.17576
1.53361
2.34471
2.66025
2.7304
2.72497
2.72228
2.73681
2.74882
2.76272
2.77165
2.77977
2.78593
2.78878
1
1.00003
1.00005
1.00017
1.00031
1.00098
1.0018
1.00537
1.0111
1.02902
1.07745
1.17321
1.52909
2.33499
2.65713
2.73037
2.72476
2.72194
2.73633
2.7482
2.76191
2.77035
2.77846
2.78372
2.78573
1
1.00003
1.00005
1.00017
1.0003
1.00095
1.00175
1.0052
1.01083
1.02813
1.07552
1.16795
1.5188
2.31291
2.64896
2.72923
2.72328
2.72016
2.73447
2.74609
2.7596
2.76821
2.77516
2.78107
2.78186
1
1.00003
1.00005
1.00016
1.00029
1.00091
1.00168
1.00495
1.01042
1.02675
1.07257
1.15976
1.50266
2.27812
2.63606
2.7273
2.72095
2.71674
2.7305
2.74249
2.75408
2.76248
2.77096
2.7747
2.77701
1
1.00002
1.00005
1.00015
1.00027
1.00086
1.0016
1.00471
1.00984
1.02545
1.06828
1.15178
1.47002
2.21973
2.61696
2.7232
2.71619
2.7108
2.72376
2.73643
2.74924
2.75524
2.76086
2.76752
2.76663
1
1.00002
1.00004
1.00014
1.00026
1.00082
1.00149
1.0045
1.00911
1.02417
1.06235
1.142
1.42631
2.14013
2.58996
2.71753
2.71093
2.70173
2.71576
2.72351
2.73821
2.74705
2.75294
2.75526
2.75693
1
1.00002
1.00004
1.00013
1.00024
1.00076
1.00138
1.0043
1.00824
1.02318
1.05451
1.13045
1.37401
2.03814
2.55379
2.70851
2.70217
2.69218
2.70737
2.71574
2.72345
2.72999
2.73679
2.74007
2.73664
1
1.00002
1.00004
1.00012
1.00022
1.00069
1.00125
1.00388
1.0074
1.02111
1.04756
1.11831
1.32178
1.9237
2.50459
2.68995
2.68053
2.67217
2.68792
2.70154
2.71239
2.71413
2.7178
2.71723
2.71364
1
1.00002
1.00003
1.00011
1.00019
1.00062
1.00112
1.00349
1.00661
1.01906
1.04213
1.10637
1.28311
1.82095
2.47723
2.68056
2.67178
2.65702
2.6716
2.67705
2.68929
2.6917
2.69112
2.68544
2.66227
1
1.00001
1.00003
1.00009
1.00017
1.00052
1.00097
1.0029
1.00585
1.01558
1.03883
1.09021
1.25956
1.69878
2.42168
2.65501
2.65296
2.65245
2.65542
2.66247
2.66573
2.66507
2.65651
2.63544
2.5856
1
1.00003
1.00005
1.00017
1.00031
1.00099
1.00183
1.00545
1.01124
1.02946
1.07837
1.17576
1.53361
2.34471
2.66025
2.7304
2.72497
2.72228
2.73681
2.74882
2.76272
2.77165
2.77977
2.78593
2.78878
1
1.00003
1.00005
1.00017
1.00031
1.00098
1.0018
1.00537
1.0111
1.02902
1.07745
1.17321
1.52909
2.33499
2.65713
2.73037
2.72476
2.72194
2.73633
2.7482
2.76191
2.77035
2.77846
2.78372
2.78573
1
1.00003
1.00005
1.00017
1.0003
1.00095
1.00175
1.0052
1.01083
1.02813
1.07552
1.16795
1.5188
2.31291
2.64896
2.72923
2.72328
2.72016
2.73447
2.74609
2.7596
2.76821
2.77516
2.78107
2.78186
1
1.00003
1.00005
1.00016
1.00029
1.00091
1.00168
1.00495
1.01042
1.02675
1.07257
1.15976
1.50266
2.27812
2.63606
2.7273
2.72095
2.71674
2.7305
2.74249
2.75408
2.76248
2.77096
2.7747
2.77701
1
1.00002
1.00005
1.00015
1.00027
1.00086
1.0016
1.00471
1.00984
1.02545
1.06828
1.15178
1.47002
2.21973
2.61696
2.7232
2.71619
2.7108
2.72376
2.73643
2.74924
2.75524
2.76086
2.76752
2.76663
1
1.00002
1.00004
1.00014
1.00026
1.00082
1.00149
1.0045
1.00911
1.02417
1.06234
1.142
1.42631
2.14013
2.58996
2.71753
2.71093
2.70173
2.71576
2.72351
2.73821
2.74705
2.75294
2.75526
2.75693
1
1.00002
1.00004
1.00013
1.00024
1.00076
1.00138
1.0043
1.00824
1.02318
1.05451
1.13045
1.37401
2.03814
2.55379
2.70851
2.70217
2.69218
2.70737
2.71574
2.72345
2.72999
2.73679
2.74007
2.73664
1
1.00002
1.00004
1.00012
1.00022
1.00069
1.00125
1.00388
1.0074
1.02111
1.04756
1.11831
1.32178
1.9237
2.50459
2.68995
2.68053
2.67217
2.68792
2.70154
2.71239
2.71413
2.7178
2.71723
2.71364
1
1.00002
1.00003
1.00011
1.00019
1.00062
1.00112
1.00349
1.00661
1.01906
1.04213
1.10637
1.28311
1.82095
2.47723
2.68056
2.67178
2.65702
2.6716
2.67705
2.68929
2.6917
2.69112
2.68544
2.66227
1
1.00001
1.00003
1.00009
1.00017
1.00052
1.00097
1.0029
1.00585
1.01558
1.03883
1.09021
1.25956
1.69878
2.42168
2.65501
2.65296
2.65245
2.65542
2.66247
2.66573
2.66507
2.65651
2.63544
2.5856
1
1.00003
1.00005
1.00017
1.00031
1.00099
1.00183
1.00545
1.01124
1.02946
1.07837
1.17576
1.53361
2.34471
2.66025
2.7304
2.72497
2.72228
2.73681
2.74882
2.76272
2.77165
2.77977
2.78593
2.78878
1
1.00003
1.00005
1.00017
1.00031
1.00098
1.0018
1.00537
1.0111
1.02902
1.07745
1.17321
1.52909
2.33499
2.65713
2.73037
2.72476
2.72194
2.73633
2.7482
2.76191
2.77035
2.77846
2.78372
2.78573
1
1.00003
1.00005
1.00017
1.0003
1.00095
1.00175
1.0052
1.01083
1.02813
1.07552
1.16795
1.5188
2.31291
2.64896
2.72923
2.72328
2.72016
2.73447
2.74609
2.7596
2.76821
2.77516
2.78107
2.78186
1
1.00003
1.00005
1.00016
1.00029
1.00091
1.00168
1.00495
1.01042
1.02675
1.07257
1.15976
1.50266
2.27812
2.63606
2.7273
2.72095
2.71674
2.7305
2.74249
2.75408
2.76248
2.77096
2.7747
2.77701
1
1.00002
1.00005
1.00015
1.00027
1.00086
1.0016
1.00471
1.00984
1.02545
1.06828
1.15178
1.47002
2.21973
2.61696
2.7232
2.71619
2.7108
2.72376
2.73643
2.74924
2.75524
2.76086
2.76752
2.76663
1
1.00002
1.00004
1.00014
1.00026
1.00082
1.00149
1.0045
1.00911
1.02417
1.06235
1.142
1.42631
2.14013
2.58996
2.71753
2.71093
2.70173
2.71576
2.72351
2.73821
2.74705
2.75294
2.75526
2.75693
1
1.00002
1.00004
1.00013
1.00024
1.00076
1.00138
1.0043
1.00824
1.02318
1.05451
1.13045
1.37401
2.03814
2.55379
2.70851
2.70217
2.69218
2.70737
2.71574
2.72345
2.72999
2.73679
2.74007
2.73664
1
1.00002
1.00004
1.00012
1.00022
1.00069
1.00125
1.00388
1.0074
1.02111
1.04756
1.11831
1.32179
1.9237
2.50459
2.68995
2.68053
2.67217
2.68792
2.70154
2.71239
2.71413
2.7178
2.71723
2.71364
1
1.00002
1.00003
1.00011
1.00019
1.00062
1.00112
1.00349
1.00661
1.01906
1.04213
1.10637
1.28311
1.82095
2.47723
2.68056
2.67178
2.65702
2.6716
2.67705
2.68929
2.6917
2.69112
2.68544
2.66228
1
1.00001
1.00003
1.00009
1.00017
1.00052
1.00097
1.0029
1.00585
1.01558
1.03883
1.09021
1.25956
1.69878
2.42168
2.65501
2.65296
2.65245
2.65542
2.66247
2.66573
2.66507
2.65651
2.63544
2.5856
1
1.00003
1.00005
1.00017
1.00031
1.00099
1.00183
1.00545
1.01124
1.02946
1.07837
1.17576
1.53361
2.34471
2.66025
2.7304
2.72497
2.72228
2.73681
2.74882
2.76272
2.77165
2.77977
2.78593
2.78878
1
1.00003
1.00005
1.00017
1.00031
1.00098
1.0018
1.00537
1.0111
1.02902
1.07745
1.17321
1.52909
2.33499
2.65713
2.73037
2.72476
2.72194
2.73633
2.7482
2.76191
2.77035
2.77846
2.78372
2.78573
1
1.00003
1.00005
1.00017
1.0003
1.00095
1.00175
1.0052
1.01083
1.02813
1.07552
1.16795
1.5188
2.31291
2.64896
2.72923
2.72328
2.72016
2.73447
2.74609
2.7596
2.76821
2.77516
2.78107
2.78186
1
1.00003
1.00005
1.00016
1.00029
1.00091
1.00168
1.00495
1.01042
1.02675
1.07257
1.15976
1.50266
2.27812
2.63606
2.7273
2.72095
2.71674
2.7305
2.74249
2.75408
2.76248
2.77096
2.7747
2.77701
1
1.00002
1.00005
1.00015
1.00027
1.00086
1.0016
1.00471
1.00984
1.02545
1.06828
1.15178
1.47002
2.21973
2.61696
2.7232
2.71619
2.7108
2.72376
2.73643
2.74924
2.75524
2.76086
2.76752
2.76663
1
1.00002
1.00004
1.00014
1.00026
1.00082
1.00149
1.0045
1.00911
1.02417
1.06235
1.142
1.42631
2.14013
2.58996
2.71753
2.71093
2.70173
2.71576
2.72351
2.73821
2.74705
2.75294
2.75526
2.75693
1
1.00002
1.00004
1.00013
1.00024
1.00076
1.00138
1.0043
1.00824
1.02318
1.05451
1.13045
1.37401
2.03814
2.55379
2.70851
2.70217
2.69218
2.70737
2.71574
2.72345
2.72999
2.73679
2.74007
2.73664
1
1.00002
1.00004
1.00012
1.00022
1.00069
1.00125
1.00388
1.0074
1.02111
1.04756
1.11831
1.32178
1.9237
2.50459
2.68995
2.68053
2.67217
2.68792
2.70154
2.71239
2.71413
2.7178
2.71723
2.71364
1
1.00002
1.00003
1.00011
1.00019
1.00062
1.00112
1.00349
1.00661
1.01906
1.04213
1.10637
1.28311
1.82095
2.47723
2.68056
2.67178
2.65702
2.6716
2.67705
2.68929
2.6917
2.69112
2.68544
2.66228
1
1.00001
1.00003
1.00009
1.00017
1.00052
1.00097
1.0029
1.00585
1.01558
1.03883
1.09021
1.25956
1.69878
2.42168
2.65501
2.65296
2.65245
2.65542
2.66247
2.66573
2.66507
2.65651
2.63544
2.5856
1
1.00003
1.00005
1.00017
1.00031
1.00099
1.00183
1.00545
1.01124
1.02946
1.07837
1.17576
1.53361
2.34471
2.66025
2.7304
2.72497
2.72228
2.73681
2.74882
2.76272
2.77165
2.77977
2.78593
2.78878
1
1.00003
1.00005
1.00017
1.00031
1.00098
1.0018
1.00537
1.0111
1.02902
1.07745
1.17321
1.52909
2.33499
2.65713
2.73037
2.72476
2.72194
2.73633
2.7482
2.76191
2.77035
2.77846
2.78372
2.78573
1
1.00003
1.00005
1.00017
1.0003
1.00095
1.00175
1.0052
1.01083
1.02813
1.07552
1.16795
1.5188
2.31291
2.64896
2.72923
2.72328
2.72016
2.73447
2.74609
2.7596
2.76821
2.77516
2.78107
2.78186
1
1.00003
1.00005
1.00016
1.00029
1.00091
1.00168
1.00495
1.01042
1.02675
1.07257
1.15976
1.50266
2.27812
2.63606
2.7273
2.72095
2.71674
2.7305
2.74249
2.75408
2.76248
2.77096
2.7747
2.77701
1
1.00002
1.00005
1.00015
1.00027
1.00086
1.0016
1.00471
1.00984
1.02545
1.06828
1.15178
1.47002
2.21973
2.61696
2.7232
2.71619
2.7108
2.72376
2.73643
2.74924
2.75524
2.76086
2.76752
2.76663
1
1.00002
1.00004
1.00014
1.00026
1.00082
1.00149
1.0045
1.00911
1.02417
1.06234
1.142
1.42631
2.14013
2.58996
2.71753
2.71093
2.70173
2.71576
2.72351
2.73821
2.74705
2.75294
2.75526
2.75693
1
1.00002
1.00004
1.00013
1.00024
1.00076
1.00138
1.0043
1.00824
1.02318
1.05451
1.13045
1.37401
2.03814
2.55379
2.70851
2.70217
2.69218
2.70737
2.71574
2.72345
2.72999
2.73679
2.74007
2.73664
1
1.00002
1.00004
1.00012
1.00022
1.00069
1.00125
1.00388
1.0074
1.02111
1.04756
1.11831
1.32178
1.9237
2.50459
2.68995
2.68053
2.67217
2.68792
2.70154
2.71239
2.71413
2.7178
2.71723
2.71364
1
1.00002
1.00003
1.00011
1.00019
1.00062
1.00112
1.00349
1.00661
1.01906
1.04213
1.10637
1.28311
1.82095
2.47723
2.68056
2.67178
2.65702
2.6716
2.67705
2.68929
2.6917
2.69112
2.68544
2.66228
1
1.00001
1.00003
1.00009
1.00017
1.00052
1.00097
1.0029
1.00585
1.01558
1.03883
1.09021
1.25956
1.69878
2.42168
2.65501
2.65296
2.65245
2.65542
2.66247
2.66573
2.66507
2.65651
2.63544
2.5856
1
1.00003
1.00005
1.00017
1.00031
1.00099
1.00183
1.00545
1.01124
1.02946
1.07837
1.17576
1.53361
2.34471
2.66025
2.7304
2.72497
2.72228
2.73681
2.74882
2.76272
2.77165
2.77977
2.78593
2.78878
1
1.00003
1.00005
1.00017
1.00031
1.00098
1.0018
1.00537
1.0111
1.02902
1.07745
1.17321
1.52909
2.33499
2.65713
2.73037
2.72476
2.72194
2.73633
2.7482
2.76191
2.77035
2.77846
2.78372
2.78573
1
1.00003
1.00005
1.00017
1.0003
1.00095
1.00175
1.0052
1.01083
1.02813
1.07552
1.16795
1.5188
2.31291
2.64896
2.72923
2.72328
2.72016
2.73447
2.74609
2.7596
2.76821
2.77516
2.78107
2.78186
1
1.00003
1.00005
1.00016
1.00029
1.00091
1.00168
1.00495
1.01042
1.02675
1.07257
1.15976
1.50266
2.27812
2.63606
2.7273
2.72095
2.71674
2.7305
2.74249
2.75408
2.76248
2.77096
2.7747
2.77701
1
1.00002
1.00005
1.00015
1.00027
1.00086
1.0016
1.00471
1.00984
1.02545
1.06828
1.15178
1.47002
2.21973
2.61696
2.7232
2.71619
2.7108
2.72376
2.73643
2.74924
2.75524
2.76086
2.76752
2.76663
1
1.00002
1.00004
1.00014
1.00026
1.00082
1.00149
1.0045
1.00911
1.02417
1.06235
1.142
1.42631
2.14013
2.58996
2.71753
2.71093
2.70173
2.71576
2.72351
2.73821
2.74705
2.75294
2.75526
2.75693
1
1.00002
1.00004
1.00013
1.00024
1.00076
1.00138
1.0043
1.00824
1.02318
1.05451
1.13045
1.37401
2.03814
2.55379
2.70851
2.70217
2.69218
2.70737
2.71574
2.72345
2.72999
2.73679
2.74007
2.73664
1
1.00002
1.00004
1.00012
1.00022
1.00069
1.00125
1.00388
1.0074
1.02111
1.04756
1.11831
1.32178
1.9237
2.50459
2.68995
2.68053
2.67217
2.68792
2.70154
2.71239
2.71413
2.7178
2.71723
2.71364
1
1.00002
1.00003
1.00011
1.00019
1.00062
1.00112
1.00349
1.00661
1.01906
1.04213
1.10637
1.28311
1.82095
2.47723
2.68056
2.67178
2.65702
2.6716
2.67705
2.68929
2.6917
2.69112
2.68544
2.66228
1
1.00001
1.00003
1.00009
1.00017
1.00052
1.00097
1.0029
1.00585
1.01558
1.03883
1.09021
1.25956
1.69878
2.42168
2.65501
2.65296
2.65245
2.65542
2.66247
2.66573
2.66507
2.65651
2.63544
2.5856
1
1.00003
1.00005
1.00017
1.00031
1.00099
1.00183
1.00545
1.01124
1.02946
1.07837
1.17576
1.53361
2.34471
2.66025
2.7304
2.72497
2.72228
2.73681
2.74882
2.76272
2.77165
2.77977
2.78593
2.78878
1
1.00003
1.00005
1.00017
1.00031
1.00098
1.0018
1.00537
1.0111
1.02902
1.07745
1.17321
1.52909
2.33499
2.65713
2.73037
2.72476
2.72194
2.73633
2.7482
2.76191
2.77035
2.77846
2.78371
2.78573
1
1.00003
1.00005
1.00017
1.0003
1.00095
1.00175
1.0052
1.01083
1.02813
1.07552
1.16795
1.5188
2.31291
2.64896
2.72923
2.72328
2.72016
2.73447
2.74609
2.7596
2.76821
2.77516
2.78107
2.78186
1
1.00003
1.00005
1.00016
1.00029
1.00091
1.00168
1.00495
1.01042
1.02675
1.07257
1.15976
1.50266
2.27812
2.63606
2.7273
2.72095
2.71674
2.7305
2.74249
2.75408
2.76248
2.77096
2.7747
2.77701
1
1.00002
1.00005
1.00015
1.00027
1.00086
1.0016
1.00471
1.00984
1.02545
1.06828
1.15178
1.47001
2.21973
2.61696
2.7232
2.71619
2.7108
2.72376
2.73643
2.74924
2.75524
2.76086
2.76752
2.76663
1
1.00002
1.00004
1.00014
1.00026
1.00082
1.00149
1.0045
1.00911
1.02417
1.06234
1.142
1.4263
2.14012
2.58996
2.71753
2.71093
2.70173
2.71576
2.72351
2.73821
2.74705
2.75294
2.75526
2.75693
1
1.00002
1.00004
1.00013
1.00024
1.00076
1.00138
1.0043
1.00824
1.02318
1.05451
1.13045
1.37401
2.03813
2.55379
2.70851
2.70217
2.69218
2.70737
2.71574
2.72345
2.72999
2.73679
2.74007
2.73664
1
1.00002
1.00004
1.00012
1.00022
1.00069
1.00125
1.00388
1.0074
1.02111
1.04756
1.11831
1.32178
1.92369
2.50459
2.68995
2.68053
2.67217
2.68792
2.70154
2.71239
2.71413
2.7178
2.71723
2.71364
1
1.00002
1.00003
1.00011
1.00019
1.00062
1.00112
1.00349
1.00661
1.01906
1.04213
1.10637
1.28311
1.82094
2.47723
2.68056
2.67178
2.65702
2.6716
2.67705
2.68929
2.6917
2.69112
2.68544
2.66227
1
1.00001
1.00003
1.00009
1.00017
1.00052
1.00097
1.0029
1.00585
1.01558
1.03883
1.09021
1.25956
1.69877
2.42168
2.65501
2.65296
2.65245
2.65542
2.66247
2.66573
2.66507
2.65651
2.63544
2.5856
0.999996
1.00002
1.00004
1.00016
1.0003
1.00098
1.00182
1.00544
1.01123
1.02944
1.07835
1.17572
1.53357
2.34459
2.66017
2.73034
2.7249
2.7222
2.73673
2.74875
2.76264
2.77157
2.77969
2.78584
2.7887
0.999996
1.00002
1.00004
1.00016
1.0003
1.00097
1.00179
1.00536
1.01109
1.029
1.07744
1.17316
1.52905
2.33487
2.65705
2.7303
2.72469
2.72187
2.73626
2.74813
2.76184
2.77027
2.77838
2.78363
2.78564
0.999996
1.00002
1.00004
1.00016
1.00029
1.00094
1.00175
1.00519
1.01082
1.02811
1.07551
1.1679
1.51877
2.31279
2.64888
2.72916
2.72322
2.72009
2.7344
2.74602
2.75953
2.76813
2.77509
2.78099
2.78178
0.999995
1.00002
1.00004
1.00015
1.00028
1.0009
1.00167
1.00494
1.01041
1.02673
1.07256
1.15972
1.50262
2.278
2.63599
2.72723
2.72088
2.71667
2.73042
2.74242
2.75401
2.7624
2.77088
2.77462
2.77693
0.999995
1.00002
1.00004
1.00014
1.00026
1.00086
1.00159
1.0047
1.00983
1.02543
1.06827
1.15174
1.46998
2.2196
2.61689
2.72313
2.71613
2.71073
2.7237
2.73636
2.74916
2.75516
2.76079
2.76745
2.76655
0.999995
1.00002
1.00004
1.00013
1.00025
1.00081
1.00148
1.00449
1.0091
1.02415
1.06234
1.14196
1.42631
2.14003
2.58989
2.71746
2.71087
2.70166
2.71569
2.72344
2.73815
2.74697
2.75286
2.75519
2.75686
0.999995
1.00001
1.00003
1.00012
1.00023
1.00075
1.00137
1.00429
1.00824
1.02316
1.0545
1.13041
1.37399
2.03803
2.55373
2.70845
2.7021
2.69212
2.70731
2.71567
2.72339
2.72992
2.73672
2.74
2.73657
0.999995
1.00001
1.00003
1.00011
1.00021
1.00068
1.00124
1.00387
1.00739
1.02109
1.04755
1.11828
1.32176
1.92359
2.50453
2.68988
2.68046
2.6721
2.68786
2.70148
2.71232
2.71406
2.71773
2.71716
2.71357
0.999995
1.00001
1.00002
1.0001
1.00019
1.00061
1.00111
1.00348
1.0066
1.01904
1.04212
1.10634
1.28309
1.82085
2.4772
2.68049
2.67171
2.65696
2.67154
2.67699
2.68923
2.69164
2.69106
2.68538
2.66221
0.999994
1.00001
1.00002
1.00008
1.00016
1.00051
1.00096
1.00289
1.00585
1.01556
1.03883
1.09019
1.25958
1.69869
2.42164
2.65496
2.65292
2.65239
2.65535
2.66239
2.66567
2.66501
2.65645
2.63538
2.58555
0.999996
1
1.00003
1.00005
1.00019
1.00035
1.00109
1.00208
1.006
1.01292
1.03304
1.08968
1.20214
1.59556
2.4117
2.60831
2.63091
2.63388
2.6344
2.6408
2.6404
2.63327
2.61334
2.56403
2.3866
0.999996
1
1.00002
1.00005
1.00016
1.0003
1.00097
1.00179
1.00538
1.01097
1.029
1.07606
1.17156
1.51541
2.29675
2.57465
2.62978
2.62133
2.61475
2.61557
2.61339
2.59957
2.56524
2.50419
2.32318
0.999995
0.999999
1.00002
1.00004
1.00014
1.00025
1.00082
1.00152
1.00449
1.00932
1.02416
1.06414
1.1432
1.43581
2.13472
2.50856
2.62203
2.61293
2.59668
2.58912
2.58308
2.56794
2.52864
2.46993
2.32014
0.999995
0.999998
1.00001
1.00003
1.00012
1.00022
1.0007
1.00128
1.00398
1.0076
1.0216
1.04927
1.12038
1.33395
1.93382
2.4211
2.60176
2.59497
2.58667
2.5666
2.55096
2.52685
2.49157
2.44744
2.33088
0.999995
0.999997
1.00001
1.00002
1.00009
1.00017
1.00056
1.00104
1.00321
1.00618
1.01767
1.03864
1.10062
1.25187
1.77564
2.2985
2.55385
2.56266
2.5658
2.55574
2.53269
2.50584
2.45046
2.41482
2.33269
0.999994
0.999998
1
1.00002
1.00005
1.00018
1.00034
1.00105
1.002
1.00576
1.01232
1.03138
1.08467
1.1881
1.55951
2.29845
2.49289
2.52245
2.52202
2.52292
2.51333
2.49222
2.44035
2.38943
2.32649
0.999994
0.999997
1
1.00002
1.00004
1.00015
1.00027
1.00086
1.00159
1.0047
1.00975
1.02517
1.06681
1.14815
1.45201
2.14655
2.4443
2.51462
2.49983
2.49429
2.48176
2.46633
2.43126
2.37975
2.3225
0.999994
0.999995
0.999998
1.00001
1.00003
1.00011
1.00021
1.00068
1.00126
1.00388
1.0075
1.02108
1.04832
1.11902
1.32336
1.9277
2.32602
2.48916
2.48526
2.47606
2.45608
2.4376
2.41135
2.36621
2.31351
0.999993
0.999994
0.999998
1
1.00003
1.00006
1.00021
1.00039
1.0012
1.00228
1.00661
1.01392
1.03585
1.09235
1.22012
1.5813
2.26172
2.44042
2.45319
2.44857
2.43637
2.41086
2.39395
2.35889
2.31073
0.999992
0.999993
0.999996
1
1.00002
1.00004
1.00015
1.00028
1.00089
1.00169
1.00482
1.01044
1.02613
1.07119
1.15528
1.47529
2.14342
2.38989
2.4341
2.42337
2.41111
2.3861
2.35923
2.33735
2.30355
0.999992
0.999993
0.999994
1
1.00001
1.00004
1.00008
1.00026
1.0005
1.00141
1.00311
1.00767
1.02045
1.04554
1.13541
1.30285
1.85801
2.2818
2.41394
2.41
2.39829
2.37705
2.34713
2.31558
2.28908
0.999992
0.999992
0.999993
0.999998
1
1.00003
1.00006
1.0002
1.00037
1.00119
1.00219
1.00659
1.01327
1.03511
1.08704
1.21033
1.54618
2.18538
2.35589
2.37563
2.3705
2.3559
2.32974
2.29916
2.26778
0.999991
0.999992
0.999993
0.999995
1
1.00001
1.00005
1.0001
1.00034
1.00064
1.00187
1.00385
1.01
1.02493
1.05746
1.16575
1.38547
1.96101
2.30075
2.36009
2.35678
2.34037
2.31815
2.28947
2.26008
0.999991
0.999991
0.999992
0.999993
0.999999
1.00001
1.00004
1.00007
1.00025
1.00046
1.00143
1.00268
1.00767
1.01644
1.04122
1.11059
1.25365
1.66413
2.14993
2.32644
2.32946
2.32038
2.30045
2.2722
2.24498
0.999991
0.999991
0.999992
0.999993
0.999995
1
1.00002
1.00007
1.00013
1.00041
1.00078
1.00235
1.00457
1.01278
1.02788
1.0711
1.17455
1.49136
1.98779
2.26283
2.30799
2.30494
2.29114
2.26382
2.23456
0.999991
0.999991
0.999991
0.999992
0.999994
1
1.00001
1.00004
1.00009
1.00029
1.00053
1.00163
1.00308
1.00874
1.01886
1.04691
1.1251
1.29334
1.74209
2.13501
2.26452
2.27386
2.26907
2.2548
2.22832
0.999991
0.999991
0.999991
0.999992
0.999993
0.999996
1.00001
1.00002
1.00007
1.00015
1.00046
1.00086
1.00257
1.00503
1.01397
1.03009
1.07875
1.1838
1.54674
1.9737
2.20751
2.2418
2.24083
2.2313
2.21274
0.999991
0.999991
0.999991
0.999991
0.999993
0.999994
1
1.00001
1.00005
1.00009
1.00031
1.00057
1.00175
1.00328
1.00946
1.01983
1.04999
1.12723
1.31225
1.74956
2.10017
2.20989
2.22039
2.2148
2.20267
0.999991
0.999991
0.999991
0.999991
0.999992
0.999993
0.999996
1.00001
1.00002
1.00008
1.00015
1.00047
1.00089
1.0026
1.00517
1.01415
1.0305
1.08049
1.18362
1.56373
1.92012
2.14338
2.17872
2.18928
2.18254
0.999991
0.999991
0.999991
0.999991
0.999991
0.999992
0.999995
0.999999
1.00001
1.00003
1.00012
1.00023
1.00071
1.00135
1.00381
1.00809
1.02013
1.05252
1.11384
1.33373
1.79825
2.06232
2.14531
2.15717
2.15372
0.999991
0.999991
0.999991
0.999991
0.999991
0.999992
0.999993
0.999996
1.00001
1.00002
1.00008
1.00015
1.00047
1.00087
1.00263
1.00501
1.01425
1.02935
1.07889
1.17705
1.54191
1.89437
2.1029
2.13046
2.13425
0.999991
0.999991
0.999991
0.999991
0.999991
0.999991
0.999992
0.999995
0.999998
1.00001
1.00003
1.00012
1.00022
1.00068
1.00129
1.00367
1.00764
1.01932
1.0493
1.10878
1.30845
1.75252
2.01518
2.10422
2.1089
0.999991
0.999991
0.999991
0.999991
0.999991
0.999991
0.999992
0.999993
0.999996
1.00001
1.00002
1.00007
1.00014
1.00044
1.00082
1.00247
1.00464
1.01329
1.02697
1.0723
1.16184
1.47892
1.85554
2.06078
2.09061
0.999991
0.999991
0.999991
0.999991
0.999991
0.999991
0.999991
0.999992
0.999994
1
1.00001
1.00004
1.00008
1.00027
1.0005
1.00153
1.00281
1.00826
1.01652
1.04264
1.10354
1.24777
1.61151
1.9412
2.06014
0.999991
0.999991
0.999991
0.999991
0.999991
0.999991
0.999991
0.999992
0.999993
0.999996
1
1.00002
1.00005
1.00016
1.0003
1.00092
1.00168
1.005
1.00967
1.02583
1.0605
1.13943
1.37053
1.81141
1.99546
0.999991
0.999991
0.999991
0.999991
0.999991
0.999991
0.999991
0.999991
0.999992
0.999993
0.999998
1
1.00003
1.00007
1.00022
1.00041
1.00123
1.00236
1.00652
1.01388
1.03434
1.0872
1.19813
1.50643
1.86984
0.999991
0.999991
0.999991
0.999991
0.999991
0.999991
0.999991
0.999991
0.999991
0.999993
0.999994
1
1.00001
1.00005
1.0001
1.00031
1.0006
1.00174
1.0034
1.00932
1.01982
1.05042
1.11685
1.31868
1.65922
0.999991
0.999991
0.999991
0.999991
0.999991
0.999991
0.999991
0.999991
0.999991
0.999992
0.999993
0.999996
1.00001
1.00002
1.00007
1.00014
1.00044
1.00082
1.00239
1.00466
1.0127
1.02691
1.06902
1.15737
1.44848
0.999991
0.999991
0.999991
0.999991
0.999991
0.999991
0.999991
0.999991
0.999991
0.999991
0.999992
0.999994
1
1.00001
1.00004
1.00008
1.00026
1.00048
1.00145
1.00268
1.00781
1.01523
1.04129
1.09088
1.23871
0.999991
0.999991
0.999991
0.999991
0.999991
0.999991
0.999991
0.999991
0.999991
0.999991
0.999991
0.999993
0.999995
1
1.00001
1.00006
1.00012
1.00036
1.00068
1.00197
1.00387
1.01061
1.02203
1.05847
1.12748
0.999991
0.999991
0.999991
0.999991
0.999991
0.999991
0.999991
0.999991
0.999991
0.999991
0.999991
0.999992
0.999994
0.999997
1.00001
1.00002
1.00009
1.00018
1.00053
1.00101
1.00293
1.00574
1.01555
1.03359
1.08484
0.999991
0.999991
0.999991
0.999991
0.999991
0.999991
0.999991
0.999991
0.999991
0.999991
0.999991
0.999992
0.999993
0.999996
1
1.00002
1.00005
1.00016
1.0003
1.00094
1.00175
1.0052
1.0102
1.02755
1.06438
0.999991
0.999991
0.999991
0.999991
0.999991
0.999991
0.999991
0.999991
0.999991
0.999991
0.999991
0.999991
0.999992
0.999995
0.999999
1.00002
1.00004
1.00013
1.00025
1.00079
1.00148
1.00448
1.00898
1.02419
1.05997
0.999991
0.999991
0.999991
0.999991
0.999991
0.999991
0.999991
0.999991
0.999991
0.999991
0.999991
0.999991
0.999992
0.999993
0.999999
1.00001
1.00004
1.00008
1.00026
1.00054
1.00141
1.00351
1.0081
1.02337
1.05001
0.999991
0.999991
0.999991
0.999991
0.999991
0.999991
0.999991
0.999991
0.999991
0.999991
0.999991
0.999991
0.999992
0.999994
0.999997
1.00001
1.00003
1.00011
1.00022
1.00067
1.00137
1.00365
1.00893
1.02118
1.06187
0.999991
0.999991
0.999991
0.999991
0.999991
0.999991
0.999991
0.999991
0.999991
0.999991
0.999991
0.999991
0.999992
0.999993
0.999999
1.00001
1.00004
1.00008
1.00023
1.00051
1.00129
1.00343
1.00771
1.02288
1.04856
0.999991
0.999991
0.999991
0.999991
0.999991
0.999991
0.999991
0.999991
0.999991
0.999991
0.999991
0.999991
0.999992
0.999994
0.999997
1.00001
1.00003
1.00011
1.00021
1.00068
1.00132
1.00382
1.00848
1.02126
1.05991
0.999991
0.999991
0.999991
0.999991
0.999991
0.999991
0.999991
0.999991
0.999991
0.999991
0.999991
0.999991
0.999992
0.999994
0.999997
1.00001
1.00003
1.00011
1.00021
1.00068
1.00129
1.0038
1.00828
1.02099
1.05856
0.999991
0.999991
0.999991
0.999991
0.999991
0.999991
0.999991
0.999991
0.999991
0.999991
0.999991
0.999991
0.999992
0.999993
0.999999
1.00001
1.00004
1.00008
1.00025
1.00049
1.00139
1.00318
1.00778
1.02186
1.04837
0.999991
0.999991
0.999991
0.999991
0.999991
0.999991
0.999991
0.999991
0.999991
0.999991
0.999991
0.999991
0.999992
0.999993
0.999999
1.00001
1.00004
1.00008
1.00027
1.0005
1.00159
1.0031
1.00852
1.02062
1.04888
1
1.00001
1.00003
1.00006
1.00019
1.00036
1.0011
1.00209
1.00602
1.01293
1.03305
1.0897
1.20218
1.59558
2.41179
2.60838
2.63095
2.63393
2.63446
2.64086
2.64046
2.63333
2.6134
2.56409
2.38664
1
1.00001
1.00003
1.00005
1.00017
1.00031
1.00098
1.0018
1.00539
1.01098
1.02903
1.07606
1.17159
1.51542
2.29682
2.57473
2.62982
2.62137
2.6148
2.61563
2.61345
2.59963
2.56529
2.50424
2.32321
1
1.00001
1.00002
1.00005
1.00015
1.00026
1.00083
1.00152
1.0045
1.00933
1.02418
1.06415
1.14324
1.43583
2.1348
2.50863
2.62208
2.61298
2.59672
2.58917
2.58313
2.56799
2.52869
2.46997
2.32018
1
1.00001
1.00002
1.00004
1.00012
1.00022
1.00071
1.00129
1.00399
1.00761
1.02162
1.04928
1.12041
1.33397
1.9339
2.42117
2.60182
2.59503
2.58672
2.56664
2.551
2.5269
2.49162
2.44748
2.33092
1
1
1.00002
1.00003
1.0001
1.00018
1.00057
1.00105
1.00322
1.00619
1.01768
1.03866
1.10065
1.25188
1.77571
2.29853
2.55391
2.56272
2.56586
2.55579
2.53273
2.50588
2.4505
2.41487
2.33273
1
1.00001
1.00001
1.00003
1.00006
1.00019
1.00035
1.00106
1.00201
1.00577
1.01233
1.0314
1.08468
1.18814
1.55955
2.29853
2.49295
2.5225
2.52207
2.52297
2.51338
2.49226
2.44038
2.38948
2.32653
1
1
1.00001
1.00003
1.00005
1.00015
1.00028
1.00087
1.0016
1.00471
1.00976
1.02519
1.06682
1.14819
1.45204
2.14665
2.44436
2.51467
2.49987
2.49434
2.48181
2.46638
2.4313
2.37978
2.32254
1
1
1.00001
1.00002
1.00004
1.00012
1.00022
1.00069
1.00127
1.00389
1.00751
1.0211
1.04833
1.11905
1.32338
1.92778
2.3261
2.48921
2.48531
2.47611
2.45612
2.43764
2.4114
2.36625
2.31354
1
1
1.00001
1.00001
1.00004
1.00007
1.00022
1.0004
1.00121
1.00229
1.00662
1.01393
1.03586
1.09236
1.22015
1.58134
2.26177
2.44049
2.45324
2.44862
2.43641
2.41089
2.39399
2.35893
2.31077
1
1
1
1.00001