/*--------------------------------*- C++ -*----------------------------------*\
| =========                 |                                                 |
| \\      /  F ield         | OpenFOAM: The Open Source CFD Toolbox           |
|  \\    /   O peration     | Version:  4.1                                   |
|   \\  /    A nd           | Web:      www.OpenFOAM.org                      |
|    \\/     M anipulation  |                                                 |
\*---------------------------------------------------------------------------*/
FoamFile
{
    version     2.0;
    format      ascii;
    class       volScalarField;
    location    "1.86";
    object      Ma;
}
// * * * * * * * * * * * * * * * * * * * * * * * * * * * * * * * * * * * * * //

dimensions      [0 0 0 0 0 0 0];

internalField   nonuniform List<scalar> 
52500
(
3.00002
2.99998
2.99994
2.99976
2.99951
2.99849
2.99705
2.9913
2.98258
2.95137
2.89141
2.72889
2.33092
1.57284
0.624327
0.213004
0.323232
0.358156
0.324519
0.266327
0.211942
0.170172
0.12901
0.0816177
0.0450374
3.00002
2.99998
2.99994
2.99976
2.99952
2.99851
2.99708
2.9914
2.98279
2.95191
2.89307
2.73215
2.34137
1.58878
0.636076
0.223375
0.329086
0.363162
0.32941
0.271844
0.218308
0.177485
0.138063
0.0958308
0.0693336
3.00002
2.99998
2.99994
2.99977
2.99953
2.99854
2.99715
2.99158
2.98317
2.9529
2.89603
2.73788
2.36182
1.61837
0.660191
0.243656
0.340222
0.372814
0.339767
0.284291
0.233274
0.195515
0.160841
0.127328
0.109797
3.00002
2.99999
2.99994
2.99978
2.99954
2.99859
2.99724
2.99184
2.98372
2.95432
2.89976
2.74567
2.38513
1.65158
0.69209
0.271065
0.353581
0.384126
0.353239
0.301805
0.254948
0.221576
0.19264
0.166769
0.154481
3.00002
2.99999
2.99995
2.99979
2.99956
2.99865
2.99736
2.99219
2.98444
2.9563
2.90421
2.75701
2.41002
1.69904
0.731642
0.303585
0.369206
0.395638
0.368389
0.322881
0.281477
0.253034
0.229846
0.210279
0.201829
3.00002
2.99999
2.99995
2.9998
2.99959
2.99873
2.99751
2.99262
2.98531
2.95865
2.90952
2.77028
2.43934
1.75554
0.780612
0.343668
0.387857
0.407385
0.385705
0.348184
0.312537
0.289489
0.272457
0.258963
0.254454
3.00002
2.99999
2.99996
2.99982
2.99962
2.99883
2.99771
2.9932
2.98646
2.96198
2.91572
2.78826
2.4695
1.83306
0.842059
0.395392
0.407204
0.417999
0.406092
0.377249
0.347966
0.330937
0.320825
0.314512
0.316016
3.00002
3
2.99997
2.99984
2.99967
2.99897
2.99796
2.99407
2.98779
2.96669
2.92136
2.8079
2.50157
1.92268
0.9178
0.453636
0.423233
0.4333
0.429754
0.40885
0.386782
0.376599
0.375143
0.3785
0.391728
3.00002
3
2.99997
2.99986
2.99971
2.99909
2.9982
2.99482
2.98911
2.97063
2.92906
2.82672
2.54208
2.01572
1.01403
0.522808
0.440004
0.451415
0.456176
0.442849
0.429658
0.427895
0.436565
0.455625
0.494564
3.00002
3
2.99998
2.99989
2.99975
2.99923
2.99844
2.99564
2.99044
2.97493
2.93763
2.84955
2.59375
2.12175
1.15395
0.610326
0.462756
0.475262
0.486249
0.479675
0.475421
0.482607
0.507457
0.556922
0.663803
3
2.99997
2.99992
2.99974
2.99949
2.99847
2.99703
2.99128
2.98256
2.95134
2.89137
2.72882
2.33079
1.57261
0.624151
0.21269
0.323018
0.357959
0.324302
0.266068
0.21162
0.169769
0.128474
0.0807571
0.0434296
3
2.99997
2.99992
2.99975
2.9995
2.99849
2.99706
2.99138
2.98276
2.95188
2.89303
2.73209
2.34125
1.58857
0.635901
0.223073
0.328883
0.362977
0.329204
0.271596
0.218
0.177104
0.13757
0.0951089
0.068315
3
2.99997
2.99992
2.99975
2.99951
2.99852
2.99713
2.99156
2.98315
2.95287
2.89599
2.73782
2.36173
1.61822
0.660041
0.243382
0.340038
0.372645
0.339574
0.284059
0.232991
0.195175
0.160424
0.126793
0.109166
3
2.99997
2.99993
2.99976
2.99952
2.99857
2.99722
2.99182
2.98369
2.95429
2.89973
2.74561
2.38506
1.65144
0.691946
0.27081
0.35341
0.383971
0.353062
0.301594
0.254695
0.221282
0.192299
0.166367
0.15404
3
2.99997
2.99993
2.99977
2.99954
2.99863
2.99734
2.99217
2.98441
2.95627
2.90418
2.75695
2.40997
1.69891
0.731504
0.303354
0.369044
0.395492
0.368223
0.322688
0.281254
0.252782
0.229565
0.209966
0.201498
3
2.99997
2.99993
2.99978
2.99957
2.99871
2.99749
2.9926
2.98529
2.95862
2.90949
2.77022
2.43929
1.75542
0.780482
0.343457
0.387704
0.407244
0.38555
0.34801
0.312339
0.289272
0.272225
0.258715
0.254197
3
2.99997
2.99994
2.9998
2.99961
2.99881
2.99769
2.99318
2.98643
2.96195
2.9157
2.78821
2.46948
1.83294
0.841944
0.395209
0.407067
0.417865
0.405949
0.377093
0.347794
0.330753
0.320633
0.314313
0.315815
3
2.99998
2.99995
2.99982
2.99965
2.99895
2.99794
2.99404
2.98777
2.96666
2.92134
2.80785
2.50156
1.92259
0.9177
0.453477
0.423107
0.433176
0.429625
0.408711
0.386632
0.376442
0.374984
0.378341
0.391572
3
2.99998
2.99995
2.99985
2.99969
2.99907
2.99818
2.9948
2.98909
2.9706
2.92903
2.82667
2.54204
2.01562
1.01392
0.522653
0.439879
0.451295
0.456056
0.442724
0.429528
0.427763
0.436435
0.4555
0.494448
3
2.99999
2.99996
2.99987
2.99974
2.99921
2.99842
2.99562
2.99041
2.97491
2.9376
2.8495
2.59369
2.12164
1.15381
0.610178
0.462631
0.475143
0.486133
0.47956
0.475307
0.482495
0.507352
0.556827
0.663726
3
2.99997
2.99992
2.99974
2.99949
2.99847
2.99703
2.99128
2.98256
2.95134
2.89137
2.72882
2.33079
1.57261
0.624149
0.21269
0.323018
0.357959
0.324302
0.266067
0.21162
0.169769
0.128474
0.0807571
0.04343
3
2.99997
2.99992
2.99975
2.9995
2.99849
2.99706
2.99138
2.98276
2.95188
2.89303
2.73208
2.34125
1.58857
0.635899
0.223072
0.328883
0.362977
0.329203
0.271595
0.218
0.177104
0.13757
0.0951089
0.0683152
3
2.99997
2.99992
2.99975
2.99951
2.99852
2.99713
2.99156
2.98315
2.95287
2.89599
2.73782
2.36173
1.61822
0.660039
0.243382
0.340037
0.372645
0.339574
0.284059
0.232991
0.195175
0.160424
0.126793
0.109166
3
2.99997
2.99993
2.99976
2.99952
2.99857
2.99722
2.99182
2.98369
2.95429
2.89973
2.74561
2.38506
1.65144
0.691944
0.270809
0.35341
0.383971
0.353062
0.301593
0.254695
0.221282
0.192298
0.166367
0.15404
3
2.99997
2.99993
2.99977
2.99954
2.99863
2.99734
2.99217
2.98441
2.95627
2.90418
2.75695
2.40997
1.69891
0.731503
0.303353
0.369044
0.395492
0.368223
0.322688
0.281254
0.252782
0.229565
0.209966
0.201498
3
2.99997
2.99993
2.99978
2.99957
2.99871
2.99749
2.9926
2.98529
2.95862
2.90949
2.77022
2.43928
1.75542
0.78048
0.343456
0.387704
0.407244
0.38555
0.34801
0.312339
0.289272
0.272225
0.258715
0.254197
3
2.99997
2.99994
2.9998
2.99961
2.99881
2.99769
2.99318
2.98643
2.96195
2.9157
2.78821
2.46948
1.83293
0.841942
0.395208
0.407066
0.417865
0.405949
0.377093
0.347794
0.330753
0.320633
0.314313
0.315815
3
2.99998
2.99995
2.99982
2.99965
2.99895
2.99794
2.99404
2.98777
2.96666
2.92134
2.80785
2.50156
1.92259
0.917698
0.453476
0.423107
0.433176
0.429625
0.408711
0.386632
0.376442
0.374984
0.378341
0.391572
3
2.99998
2.99995
2.99985
2.99969
2.99907
2.99818
2.9948
2.98909
2.9706
2.92903
2.82667
2.54204
2.01562
1.01391
0.522651
0.439879
0.451295
0.456056
0.442724
0.429528
0.427763
0.436435
0.4555
0.494449
3
2.99999
2.99996
2.99987
2.99974
2.99921
2.99842
2.99562
2.99041
2.97491
2.9376
2.8495
2.59369
2.12164
1.15381
0.610177
0.462631
0.475143
0.486133
0.479559
0.475307
0.482495
0.507352
0.556827
0.663726
3
2.99997
2.99992
2.99974
2.99949
2.99847
2.99703
2.99128
2.98256
2.95134
2.89137
2.72882
2.33078
1.5726
0.624148
0.21269
0.323018
0.357959
0.324302
0.266067
0.21162
0.169768
0.128474
0.080757
0.0434301
3
2.99997
2.99992
2.99975
2.9995
2.99849
2.99706
2.99138
2.98276
2.95188
2.89303
2.73208
2.34125
1.58857
0.635898
0.223072
0.328882
0.362976
0.329203
0.271595
0.218
0.177104
0.13757
0.0951088
0.0683153
3
2.99997
2.99992
2.99975
2.99951
2.99852
2.99713
2.99156
2.98315
2.95287
2.89599
2.73782
2.36173
1.61822
0.660038
0.243382
0.340037
0.372645
0.339574
0.284058
0.232991
0.195175
0.160424
0.126793
0.109166
3
2.99997
2.99993
2.99976
2.99952
2.99857
2.99722
2.99182
2.98369
2.95429
2.89973
2.74561
2.38506
1.65144
0.691944
0.270809
0.35341
0.383971
0.353062
0.301593
0.254695
0.221282
0.192298
0.166367
0.15404
3
2.99997
2.99993
2.99977
2.99954
2.99863
2.99734
2.99217
2.98441
2.95627
2.90418
2.75695
2.40996
1.69891
0.731502
0.303353
0.369044
0.395493
0.368223
0.322688
0.281254
0.252782
0.229565
0.209966
0.201498
3
2.99997
2.99993
2.99978
2.99957
2.99871
2.99749
2.9926
2.98529
2.95862
2.90949
2.77022
2.43928
1.75542
0.78048
0.343456
0.387704
0.407244
0.38555
0.34801
0.312339
0.289272
0.272225
0.258715
0.254197
3
2.99997
2.99994
2.9998
2.99961
2.99881
2.99769
2.99318
2.98643
2.96195
2.9157
2.78821
2.46948
1.83293
0.841941
0.395207
0.407067
0.417865
0.405949
0.377093
0.347794
0.330753
0.320633
0.314313
0.315815
3
2.99998
2.99995
2.99982
2.99965
2.99895
2.99794
2.99404
2.98777
2.96666
2.92134
2.80785
2.50156
1.92259
0.917698
0.453475
0.423107
0.433176
0.429625
0.408711
0.386632
0.376442
0.374984
0.378341
0.391572
3
2.99998
2.99995
2.99985
2.99969
2.99907
2.99818
2.9948
2.98909
2.9706
2.92903
2.82667
2.54204
2.01562
1.01391
0.522651
0.439879
0.451295
0.456056
0.442724
0.429528
0.427763
0.436435
0.4555
0.494449
3
2.99999
2.99996
2.99987
2.99974
2.99921
2.99842
2.99562
2.99041
2.97491
2.9376
2.8495
2.59369
2.12164
1.15381
0.610177
0.462631
0.475143
0.486133
0.479559
0.475307
0.482495
0.507352
0.556827
0.663726
3
2.99997
2.99992
2.99974
2.99949
2.99847
2.99703
2.99128
2.98256
2.95134
2.89137
2.72882
2.33078
1.5726
0.624148
0.21269
0.323018
0.357959
0.324302
0.266067
0.21162
0.169768
0.128474
0.0807572
0.0434299
3
2.99997
2.99992
2.99975
2.9995
2.99849
2.99706
2.99138
2.98276
2.95188
2.89303
2.73208
2.34125
1.58857
0.635898
0.223072
0.328882
0.362976
0.329203
0.271595
0.218
0.177104
0.137569
0.095109
0.0683152
3
2.99997
2.99992
2.99975
2.99951
2.99852
2.99713
2.99156
2.98315
2.95287
2.89599
2.73782
2.36172
1.61822
0.660038
0.243381
0.340037
0.372645
0.339574
0.284058
0.232991
0.195175
0.160424
0.126793
0.109166
3
2.99997
2.99993
2.99976
2.99952
2.99857
2.99722
2.99182
2.98369
2.95429
2.89973
2.74561
2.38506
1.65144
0.691943
0.270809
0.35341
0.383971
0.353061
0.301593
0.254695
0.221281
0.192298
0.166367
0.15404
3
2.99997
2.99993
2.99977
2.99954
2.99863
2.99734
2.99217
2.98441
2.95627
2.90418
2.75695
2.40996
1.69891
0.731502
0.303352
0.369044
0.395492
0.368223
0.322688
0.281253
0.252781
0.229565
0.209966
0.201498
3
2.99997
2.99993
2.99978
2.99957
2.99871
2.99749
2.9926
2.98529
2.95862
2.90949
2.77022
2.43928
1.75542
0.780479
0.343456
0.387703
0.407244
0.38555
0.34801
0.312339
0.289272
0.272225
0.258715
0.254197
3
2.99997
2.99994
2.9998
2.99961
2.99881
2.99769
2.99318
2.98643
2.96195
2.9157
2.78821
2.46948
1.83293
0.841941
0.395207
0.407066
0.417865
0.405949
0.377093
0.347794
0.330753
0.320633
0.314313
0.315815
3
2.99998
2.99995
2.99982
2.99965
2.99895
2.99794
2.99404
2.98777
2.96666
2.92134
2.80785
2.50156
1.92259
0.917697
0.453475
0.423107
0.433176
0.429625
0.408711
0.386632
0.376442
0.374984
0.378341
0.391572
3
2.99998
2.99995
2.99985
2.99969
2.99907
2.99818
2.9948
2.98909
2.9706
2.92903
2.82667
2.54204
2.01562
1.01391
0.52265
0.439879
0.451295
0.456055
0.442724
0.429528
0.427763
0.436435
0.4555
0.494448
3
2.99999
2.99996
2.99987
2.99974
2.99921
2.99842
2.99562
2.99041
2.97491
2.9376
2.8495
2.59369
2.12164
1.1538
0.610176
0.46263
0.475142
0.486133
0.479559
0.475307
0.482495
0.507352
0.556827
0.663726
3
2.99997
2.99992
2.99974
2.99949
2.99847
2.99703
2.99128
2.98256
2.95134
2.89137
2.72882
2.33079
1.57261
0.624148
0.21269
0.323018
0.357959
0.324302
0.266067
0.21162
0.169768
0.128474
0.0807571
0.0434301
3
2.99997
2.99992
2.99975
2.9995
2.99849
2.99706
2.99138
2.98276
2.95188
2.89303
2.73208
2.34125
1.58857
0.635898
0.223072
0.328882
0.362976
0.329203
0.271595
0.218
0.177104
0.13757
0.0951089
0.0683153
3
2.99997
2.99992
2.99975
2.99951
2.99852
2.99713
2.99156
2.98315
2.95287
2.89599
2.73782
2.36173
1.61822
0.660038
0.243382
0.340037
0.372645
0.339574
0.284058
0.232991
0.195175
0.160424
0.126793
0.109166
3
2.99997
2.99993
2.99976
2.99952
2.99857
2.99722
2.99182
2.98369
2.95429
2.89973
2.74561
2.38506
1.65144
0.691944
0.270809
0.35341
0.383971
0.353062
0.301593
0.254695
0.221282
0.192298
0.166367
0.15404
3
2.99997
2.99993
2.99977
2.99954
2.99863
2.99734
2.99217
2.98441
2.95627
2.90418
2.75695
2.40996
1.69891
0.731502
0.303353
0.369044
0.395492
0.368223
0.322688
0.281254
0.252782
0.229565
0.209966
0.201498
3
2.99997
2.99993
2.99978
2.99957
2.99871
2.99749
2.9926
2.98529
2.95862
2.90949
2.77022
2.43928
1.75542
0.78048
0.343456
0.387703
0.407244
0.38555
0.34801
0.312339
0.289272
0.272225
0.258715
0.254197
3
2.99997
2.99994
2.9998
2.99961
2.99881
2.99769
2.99318
2.98643
2.96195
2.9157
2.78821
2.46948
1.83293
0.841941
0.395207
0.407066
0.417865
0.405949
0.377093
0.347794
0.330753
0.320633
0.314313
0.315815
3
2.99998
2.99995
2.99982
2.99965
2.99895
2.99794
2.99404
2.98777
2.96666
2.92134
2.80785
2.50156
1.92259
0.917698
0.453475
0.423107
0.433176
0.429625
0.408711
0.386632
0.376442
0.374984
0.378341
0.391572
3
2.99998
2.99995
2.99985
2.99969
2.99907
2.99818
2.9948
2.98909
2.9706
2.92903
2.82667
2.54204
2.01562
1.01391
0.522651
0.439879
0.451295
0.456055
0.442724
0.429528
0.427763
0.436435
0.4555
0.494449
3
2.99999
2.99996
2.99987
2.99974
2.99921
2.99842
2.99562
2.99041
2.97491
2.9376
2.8495
2.59369
2.12164
1.15381
0.610176
0.462631
0.475143
0.486133
0.479559
0.475307
0.482495
0.507352
0.556827
0.663726
3
2.99997
2.99992
2.99974
2.99949
2.99847
2.99703
2.99128
2.98256
2.95134
2.89137
2.72882
2.33078
1.5726
0.624148
0.21269
0.323018
0.357959
0.324302
0.266067
0.21162
0.169768
0.128474
0.080757
0.0434301
3
2.99997
2.99992
2.99975
2.9995
2.99849
2.99706
2.99138
2.98276
2.95188
2.89303
2.73208
2.34125
1.58857
0.635898
0.223072
0.328882
0.362976
0.329203
0.271595
0.218
0.177104
0.13757
0.0951088
0.0683153
3
2.99997
2.99992
2.99975
2.99951
2.99852
2.99713
2.99156
2.98315
2.95287
2.89599
2.73782
2.36173
1.61822
0.660038
0.243382
0.340037
0.372645
0.339574
0.284058
0.232991
0.195175
0.160424
0.126793
0.109166
3
2.99997
2.99993
2.99976
2.99952
2.99857
2.99722
2.99182
2.98369
2.95429
2.89973
2.74561
2.38506
1.65144
0.691944
0.270809
0.35341
0.383971
0.353062
0.301593
0.254695
0.221282
0.192298
0.166367
0.15404
3
2.99997
2.99993
2.99977
2.99954
2.99863
2.99734
2.99217
2.98441
2.95627
2.90418
2.75695
2.40996
1.69891
0.731502
0.303353
0.369044
0.395493
0.368223
0.322688
0.281254
0.252782
0.229565
0.209966
0.201498
3
2.99997
2.99993
2.99978
2.99957
2.99871
2.99749
2.9926
2.98529
2.95862
2.90949
2.77022
2.43928
1.75542
0.78048
0.343456
0.387704
0.407244
0.38555
0.34801
0.312339
0.289272
0.272225
0.258715
0.254197
3
2.99997
2.99994
2.9998
2.99961
2.99881
2.99769
2.99318
2.98643
2.96195
2.9157
2.78821
2.46948
1.83293
0.841941
0.395207
0.407067
0.417865
0.405949
0.377093
0.347794
0.330753
0.320633
0.314313
0.315815
3
2.99998
2.99995
2.99982
2.99965
2.99895
2.99794
2.99404
2.98777
2.96666
2.92134
2.80785
2.50156
1.92259
0.917698
0.453475
0.423107
0.433176
0.429625
0.408711
0.386632
0.376442
0.374984
0.378341
0.391572
3
2.99998
2.99995
2.99985
2.99969
2.99907
2.99818
2.9948
2.98909
2.9706
2.92903
2.82667
2.54204
2.01562
1.01391
0.522651
0.439879
0.451295
0.456056
0.442724
0.429528
0.427763
0.436435
0.4555
0.494449
3
2.99999
2.99996
2.99987
2.99974
2.99921
2.99842
2.99562
2.99041
2.97491
2.9376
2.8495
2.59369
2.12164
1.15381
0.610177
0.462631
0.475143
0.486133
0.479559
0.475307
0.482495
0.507352
0.556827
0.663726
3
2.99997
2.99992
2.99974
2.99949
2.99847
2.99703
2.99128
2.98256
2.95134
2.89137
2.72882
2.33079
1.57261
0.624149
0.21269
0.323018
0.357959
0.324302
0.266067
0.21162
0.169769
0.128474
0.0807571
0.04343
3
2.99997
2.99992
2.99975
2.9995
2.99849
2.99706
2.99138
2.98276
2.95188
2.89303
2.73208
2.34125
1.58857
0.635899
0.223072
0.328883
0.362977
0.329203
0.271595
0.218
0.177104
0.13757
0.0951089
0.0683152
3
2.99997
2.99992
2.99975
2.99951
2.99852
2.99713
2.99156
2.98315
2.95287
2.89599
2.73782
2.36173
1.61822
0.660039
0.243382
0.340037
0.372645
0.339574
0.284059
0.232991
0.195175
0.160424
0.126793
0.109166
3
2.99997
2.99993
2.99976
2.99952
2.99857
2.99722
2.99182
2.98369
2.95429
2.89973
2.74561
2.38506
1.65144
0.691944
0.270809
0.35341
0.383971
0.353062
0.301593
0.254695
0.221282
0.192298
0.166367
0.15404
3
2.99997
2.99993
2.99977
2.99954
2.99863
2.99734
2.99217
2.98441
2.95627
2.90418
2.75695
2.40997
1.69891
0.731503
0.303353
0.369044
0.395492
0.368223
0.322688
0.281254
0.252782
0.229565
0.209966
0.201498
3
2.99997
2.99993
2.99978
2.99957
2.99871
2.99749
2.9926
2.98529
2.95862
2.90949
2.77022
2.43928
1.75542
0.78048
0.343456
0.387704
0.407244
0.38555
0.34801
0.312339
0.289272
0.272225
0.258715
0.254197
3
2.99997
2.99994
2.9998
2.99961
2.99881
2.99769
2.99318
2.98643
2.96195
2.9157
2.78821
2.46948
1.83293
0.841942
0.395208
0.407066
0.417865
0.405949
0.377093
0.347794
0.330753
0.320633
0.314313
0.315815
3
2.99998
2.99995
2.99982
2.99965
2.99895
2.99794
2.99404
2.98777
2.96666
2.92134
2.80785
2.50156
1.92259
0.917698
0.453476
0.423107
0.433176
0.429625
0.408711
0.386632
0.376442
0.374984
0.378341
0.391572
3
2.99998
2.99995
2.99985
2.99969
2.99907
2.99818
2.9948
2.98909
2.9706
2.92903
2.82667
2.54204
2.01562
1.01391
0.522651
0.439879
0.451295
0.456056
0.442724
0.429528
0.427763
0.436435
0.4555
0.494449
3
2.99999
2.99996
2.99987
2.99974
2.99921
2.99842
2.99562
2.99041
2.97491
2.9376
2.8495
2.59369
2.12164
1.15381
0.610177
0.462631
0.475143
0.486133
0.479559
0.475307
0.482495
0.507352
0.556827
0.663726
3
2.99997
2.99992
2.99974
2.99949
2.99847
2.99703
2.99128
2.98256
2.95134
2.89137
2.72882
2.33079
1.57261
0.624151
0.21269
0.323018
0.357959
0.324302
0.266068
0.21162
0.169769
0.128474
0.0807571
0.0434296
3
2.99997
2.99992
2.99975
2.9995
2.99849
2.99706
2.99138
2.98276
2.95188
2.89303
2.73209
2.34125
1.58857
0.635901
0.223073
0.328883
0.362977
0.329204
0.271596
0.218
0.177104
0.13757
0.0951089
0.068315
3
2.99997
2.99992
2.99975
2.99951
2.99852
2.99713
2.99156
2.98315
2.95287
2.89599
2.73782
2.36173
1.61822
0.660041
0.243382
0.340038
0.372645
0.339574
0.284059
0.232991
0.195175
0.160424
0.126793
0.109166
3
2.99997
2.99993
2.99976
2.99952
2.99857
2.99722
2.99182
2.98369
2.95429
2.89973
2.74561
2.38506
1.65144
0.691946
0.27081
0.35341
0.383971
0.353062
0.301594
0.254695
0.221282
0.192299
0.166367
0.15404
3
2.99997
2.99993
2.99977
2.99954
2.99863
2.99734
2.99217
2.98441
2.95627
2.90418
2.75695
2.40997
1.69891
0.731504
0.303354
0.369044
0.395492
0.368223
0.322688
0.281254
0.252782
0.229565
0.209966
0.201498
3
2.99997
2.99993
2.99978
2.99957
2.99871
2.99749
2.9926
2.98529
2.95862
2.90949
2.77022
2.43929
1.75542
0.780482
0.343457
0.387704
0.407244
0.38555
0.34801
0.312339
0.289272
0.272225
0.258715
0.254197
3
2.99997
2.99994
2.9998
2.99961
2.99881
2.99769
2.99318
2.98643
2.96195
2.9157
2.78821
2.46948
1.83294
0.841944
0.395209
0.407067
0.417865
0.405949
0.377093
0.347794
0.330753
0.320633
0.314313
0.315815
3
2.99998
2.99995
2.99982
2.99965
2.99895
2.99794
2.99404
2.98777
2.96666
2.92134
2.80785
2.50156
1.92259
0.9177
0.453477
0.423107
0.433176
0.429625
0.408711
0.386632
0.376442
0.374984
0.378341
0.391572
3
2.99998
2.99995
2.99985
2.99969
2.99907
2.99818
2.9948
2.98909
2.9706
2.92903
2.82667
2.54204
2.01562
1.01392
0.522653
0.439879
0.451295
0.456056
0.442724
0.429528
0.427763
0.436435
0.4555
0.494448
3
2.99999
2.99996
2.99987
2.99974
2.99921
2.99842
2.99562
2.99041
2.97491
2.9376
2.8495
2.59369
2.12164
1.15381
0.610178
0.462631
0.475143
0.486133
0.47956
0.475307
0.482495
0.507352
0.556827
0.663726
3.00002
2.99998
2.99994
2.99976
2.99951
2.99849
2.99705
2.9913
2.98258
2.95137
2.89141
2.7289
2.33092
1.57284
0.624328
0.213004
0.323232
0.358156
0.324519
0.266327
0.211943
0.170172
0.12901
0.0816176
0.0450377
3.00002
2.99998
2.99994
2.99976
2.99952
2.99851
2.99708
2.9914
2.98279
2.95191
2.89307
2.73216
2.34137
1.58878
0.636077
0.223375
0.329086
0.363162
0.32941
0.271844
0.218308
0.177485
0.138063
0.0958308
0.0693338
3.00002
2.99998
2.99994
2.99977
2.99953
2.99854
2.99715
2.99158
2.98317
2.9529
2.89603
2.73788
2.36182
1.61837
0.660192
0.243656
0.340222
0.372814
0.339767
0.284291
0.233274
0.195515
0.160841
0.127328
0.109797
3.00002
2.99999
2.99994
2.99978
2.99954
2.99859
2.99724
2.99184
2.98372
2.95432
2.89976
2.74567
2.38513
1.65158
0.692091
0.271065
0.353581
0.384125
0.35324
0.301805
0.254948
0.221576
0.19264
0.166769
0.154481
3.00002
2.99999
2.99995
2.99979
2.99956
2.99865
2.99736
2.99219
2.98444
2.9563
2.90421
2.75701
2.41002
1.69904
0.731642
0.303585
0.369206
0.395638
0.368389
0.322881
0.281477
0.253034
0.229846
0.210279
0.201829
3.00002
2.99999
2.99995
2.9998
2.99959
2.99873
2.99751
2.99262
2.98531
2.95865
2.90952
2.77028
2.43934
1.75554
0.780613
0.343668
0.387857
0.407385
0.385705
0.348184
0.312537
0.289489
0.272457
0.258963
0.254454
3.00002
2.99999
2.99996
2.99982
2.99962
2.99883
2.99771
2.9932
2.98646
2.96198
2.91572
2.78826
2.4695
1.83306
0.84206
0.395392
0.407204
0.417999
0.406092
0.377249
0.347966
0.330938
0.320825
0.314512
0.316016
3.00002
3
2.99997
2.99984
2.99967
2.99897
2.99796
2.99407
2.98779
2.96669
2.92136
2.8079
2.50157
1.92268
0.917801
0.453636
0.423233
0.433299
0.429754
0.40885
0.386782
0.376599
0.375143
0.3785
0.391728
3.00002
3
2.99997
2.99986
2.99971
2.99909
2.9982
2.99482
2.98911
2.97063
2.92906
2.82672
2.54208
2.01573
1.01404
0.522809
0.440004
0.451415
0.456176
0.442849
0.429658
0.427895
0.436565
0.455625
0.494564
3.00002
3
2.99998
2.99989
2.99975
2.99923
2.99844
2.99564
2.99044
2.97493
2.93763
2.84955
2.59375
2.12175
1.15395
0.610326
0.462756
0.475262
0.486249
0.479675
0.475421
0.482607
0.507457
0.556922
0.663803
3.00002
3.00001
2.99997
2.99992
2.99972
2.99943
2.99828
2.99652
2.9903
2.97872
2.94426
2.86074
2.67324
2.16982
1.35479
0.705704
0.495124
0.508676
0.522832
0.521583
0.523837
0.541485
0.58693
0.678989
0.86376
3.00002
3.00001
2.99998
2.99993
2.99975
2.9995
2.99844
2.99696
2.99102
2.98204
2.94988
2.88771
2.72079
2.31517
1.55704
0.808432
0.537528
0.550984
0.564504
0.56775
0.575242
0.602648
0.663525
0.775492
0.970986
3.00002
3.00001
2.99999
2.99995
2.9998
2.99958
2.9987
2.99745
2.99248
2.98506
2.9579
2.90917
2.76607
2.44992
1.76485
0.924455
0.596478
0.601399
0.611075
0.618524
0.629455
0.661934
0.728823
0.838156
1.00698
3.00002
3.00002
2.99999
2.99996
2.99984
2.99966
2.99895
2.99794
2.99392
2.9879
2.96637
2.92492
2.81329
2.52836
1.96789
1.0364
0.660019
0.639622
0.652563
0.666254
0.682384
0.716592
0.78034
0.877916
1.02027
3.00002
3.00002
3
2.99998
2.99988
2.99974
2.99921
2.99841
2.99552
2.99036
2.97454
2.9379
2.84916
2.60111
2.13368
1.22448
0.761703
0.668561
0.682452
0.701711
0.727413
0.764085
0.823958
0.907703
1.02648
3.00002
3.00002
3.00001
2.99998
2.99993
2.99974
2.99947
2.9984
2.99678
2.99099
2.98054
2.94873
2.87387
2.70198
2.25171
1.48078
0.886403
0.707065
0.714814
0.734727
0.765165
0.803538
0.860945
0.936228
1.03453
3.00002
3.00002
3.00001
2.99999
2.99995
2.99979
2.99958
2.99869
2.99743
2.99243
2.98495
2.9578
2.90825
2.76682
2.44615
1.77376
1.02668
0.764753
0.757874
0.773444
0.803077
0.839624
0.890647
0.959166
1.0447
3.00002
3.00002
3.00002
3
2.99997
2.99985
2.99968
2.99901
2.99803
2.99424
2.98846
2.96781
2.92963
2.8222
2.56513
2.01556
1.1859
0.837721
0.800466
0.814164
0.840542
0.876954
0.920651
0.980248
1.05473
3.00003
3.00002
3.00002
3.00001
2.99997
2.99992
2.99971
2.99941
2.99824
2.99646
2.99017
2.97868
2.94455
2.86289
2.6809
2.19608
1.43306
0.951554
0.840667
0.848118
0.870422
0.905897
0.947527
0.999823
1.06488
3.00003
3.00003
3.00002
3.00001
2.99998
2.99994
2.99978
2.99955
2.99861
2.99727
2.99203
2.984
2.95566
2.90235
2.75415
2.41463
1.7182
1.10194
0.898724
0.887541
0.901744
0.931301
0.972139
1.0192
1.0761
3.00003
3.00003
3.00002
3.00002
3
2.99995
2.99988
2.99961
2.99921
2.99767
2.99536
2.98693
2.97257
2.92745
2.82639
2.59495
2.05154
1.29899
0.977886
0.930375
0.937016
0.960502
0.997023
1.03883
1.08831
3.00003
3.00003
3.00003
3.00002
3.00001
2.99997
2.99992
2.99972
2.99944
2.99832
2.99668
2.99058
2.9804
2.94787
2.87538
2.70632
2.27117
1.55076
1.09088
0.97277
0.9704
0.987941
1.02017
1.06078
1.1047
3.00003
3.00003
3.00003
3.00002
3.00001
3
2.99994
2.99986
2.99954
2.99907
2.99729
2.99453
2.98504
2.96731
2.91657
2.79291
2.53323
1.91736
1.28292
1.04087
1.01191
1.01989
1.0449
1.08258
1.12275
3.00003
3.00003
3.00003
3.00003
3.00002
3.00001
2.99997
2.99991
2.99968
2.99936
2.99809
2.99622
2.98937
2.9777
2.94143
2.85862
2.67471
2.19071
1.48445
1.12116
1.05177
1.05375
1.07284
1.10471
1.14261
3.00003
3.00003
3.00003
3.00003
3.00002
3.00001
2.99999
2.99993
2.99984
2.99948
2.99895
2.99696
2.99381
2.98329
2.96237
2.90556
2.76259
2.46992
1.79791
1.27933
1.10502
1.08923
1.09987
1.12576
1.16126
3.00003
3.00003
3.00003
3.00003
3.00002
3.00002
3.00001
2.99996
2.9999
2.99965
2.99929
2.99787
2.99584
2.98808
2.97582
2.93524
2.84956
2.64949
2.16272
1.48635
1.18468
1.12882
1.13096
1.15046
1.18081
3.00003
3.00003
3.00003
3.00003
3.00003
3.00002
3.00001
2.99999
2.99992
2.99982
2.99944
2.99887
2.99674
2.99345
2.98215
2.96103
2.90092
2.75571
2.45276
1.7902
1.33119
1.17939
1.16316
1.17265
1.19684
3.00003
3.00003
3.00003
3.00003
3.00003
3.00002
3.00002
3
2.99996
2.99989
2.99963
2.99926
2.99782
2.99574
2.98781
2.97549
2.93448
2.85099
2.64893
2.17867
1.53366
1.25948
1.20691
1.20389
1.21849
3.00003
3.00003
3.00003
3.00003
3.00003
3.00003
3.00002
3.00001
2.99999
2.99992
2.99982
2.99945
2.99888
2.99679
2.99354
2.98235
2.96201
2.90366
2.76816
2.46923
1.86019
1.40263
1.25443
1.23704
1.24372
3.00003
3.00003
3.00003
3.00003
3.00003
3.00003
3.00002
3.00002
3
2.99997
2.99987
2.99972
2.99915
2.99829
2.99516
2.99015
2.97347
2.94286
2.85435
2.67326
2.21022
1.61736
1.3377
1.27621
1.27222
3.00003
3.00003
3.00003
3.00003
3.00003
3.00003
3.00003
3.00002
3.00001
2.99999
2.99993
2.99984
2.99948
2.99896
2.99698
2.99407
2.98334
2.96593
2.91149
2.79597
2.52738
1.96873
1.49704
1.32949
1.30481
3.00003
3.00003
3.00003
3.00003
3.00003
3.00003
3.00003
3.00002
3.00002
3
2.99998
2.99989
2.99975
2.99924
2.99848
2.9957
2.99131
2.97648
2.94981
2.87196
2.71316
2.30375
1.72844
1.42389
1.34382
3.00003
3.00003
3.00003
3.00003
3.00003
3.00003
3.00003
3.00003
3.00002
3.00001
3
2.99994
2.99986
2.99955
2.99911
2.99741
2.99496
2.98586
2.97136
2.92575
2.82914
2.61346
2.10881
1.61322
1.40687
3.00003
3.00003
3.00003
3.00003
3.00003
3.00003
3.00003
3.00003
3.00003
3.00002
3.00001
2.99998
2.99993
2.99975
2.99948
2.99847
2.99702
2.99166
2.98305
2.95568
2.89697
2.76468
2.40907
1.85521
1.50297
3.00003
3.00003
3.00003
3.00003
3.00003
3.00003
3.00003
3.00003
3.00003
3.00002
3.00002
3
2.99997
2.99986
2.9997
2.9991
2.99823
2.99496
2.98998
2.97266
2.94292
2.85301
2.67846
2.2204
1.7162
3.00003
3.00003
3.00003
3.00003
3.00003
3.00003
3.00003
3.00003
3.00003
3.00003
3.00002
3.00001
2.99999
2.99995
2.99981
2.99959
2.9988
2.9976
2.99333
2.98644
2.96414
2.92077
2.8099
2.5522
2.02942
3.00003
3.00003
3.00003
3.00003
3.00003
3.00003
3.00003
3.00003
3.00003
3.00003
3.00003
3.00002
3.00001
2.99997
2.99992
2.99973
2.99944
2.9984
2.9968
2.99128
2.98175
2.9533
2.89051
2.75151
2.39718
3.00003
3.00003
3.00003
3.00003
3.00003
3.00003
3.00003
3.00003
3.00003
3.00003
3.00003
3.00002
3.00002
3
2.99996
2.99989
2.99963
2.99925
2.99787
2.99574
2.9884
2.97596
2.93884
2.86157
2.67564
3.00003
3.00003
3.00003
3.00003
3.00003
3.00003
3.00003
3.00003
3.00003
3.00003
3.00003
3.00003
3.00002
3.00001
2.99999
2.99995
2.9998
2.99959
2.99879
2.99763
2.99333
2.98675
2.96455
2.9235
2.81664
3.00003
3.00003
3.00003
3.00003
3.00003
3.00003
3.00003
3.00003
3.00003
3.00003
3.00003
3.00003
3.00003
3.00002
3.00001
2.99998
2.99993
2.99974
2.99947
2.99848
2.99697
2.99177
2.98288
2.95621
2.89813
3.00003
3.00003
3.00003
3.00003
3.00003
3.00003
3.00003
3.00003
3.00003
3.00003
3.00003
3.00003
3.00003
3.00002
3.00002
3.00001
2.99996
2.9999
2.99966
2.99931
2.99805
2.9961
2.98941
2.97816
2.94433
3.00003
3.00003
3.00003
3.00003
3.00003
3.00003
3.00003
3.00003
3.00003
3.00003
3.00003
3.00003
3.00003
3.00003
3.00002
3.00001
3
2.99995
2.99986
2.99957
2.99913
2.99756
2.99517
2.98687
2.97303
3.00003
3.00003
3.00003
3.00003
3.00003
3.00003
3.00003
3.00003
3.00003
3.00003
3.00003
3.00003
3.00003
3.00003
3.00003
3.00002
3.00001
2.99998
2.99994
2.99978
2.99955
2.99868
2.99742
2.99282
2.98565
3.00003
3.00003
3.00003
3.00003
3.00003
3.00003
3.00003
3.00003
3.00003
3.00003
3.00003
3.00003
3.00003
3.00003
3.00003
3.00003
3.00002
3.00001
2.99997
2.99992
2.99973
2.99944
2.99841
2.99683
2.99135
3.00003
3.00003
3.00003
3.00003
3.00003
3.00003
3.00003
3.00003
3.00003
3.00003
3.00003
3.00003
3.00003
3.00003
3.00003
3.00003
3.00002
3.00002
3
2.99996
2.9999
2.99967
2.99931
2.99809
2.99615
3.00003
3.00003
3.00003
3.00003
3.00003
3.00003
3.00003
3.00003
3.00003
3.00003
3.00003
3.00003
3.00003
3.00003
3.00003
3.00003
3.00003
3.00002
3.00001
3
2.99995
2.99987
2.9996
2.99919
2.99776
3.00003
3.00003
3.00003
3.00003
3.00003
3.00003
3.00003
3.00003
3.00003
3.00003
3.00003
3.00003
3.00003
3.00003
3.00003
3.00003
3.00003
3.00003
3.00002
3.00001
2.99999
2.99993
2.99984
2.99952
2.99902
3.00003
3.00003
3.00003
3.00003
3.00003
3.00003
3.00003
3.00003
3.00003
3.00003
3.00003
3.00003
3.00003
3.00003
3.00003
3.00003
3.00003
3.00003
3.00003
3.00002
3.00001
2.99998
2.99993
2.99976
2.99951
3.00003
3.00003
3.00003
3.00003
3.00003
3.00003
3.00003
3.00003
3.00003
3.00003
3.00003
3.00003
3.00003
3.00003
3.00003
3.00003
3.00003
3.00003
3.00003
3.00002
3.00002
3.00001
2.99997
2.99991
2.99969
3.00003
3.00003
3.00003
3.00003
3.00003
3.00003
3.00003
3.00003
3.00003
3.00003
3.00003
3.00003
3.00003
3.00003
3.00003
3.00003
3.00003
3.00003
3.00003
3.00003
3.00002
3.00001
2.99998
2.99994
2.99979
3
2.99999
2.99996
2.9999
2.9997
2.99941
2.99826
2.9965
2.99028
2.97869
2.94422
2.8607
2.67317
2.16973
1.35464
0.705576
0.495004
0.50856
0.522721
0.521476
0.523734
0.541388
0.586845
0.678921
0.863716
3
2.99999
2.99996
2.99992
2.99973
2.99948
2.99842
2.99694
2.99099
2.98201
2.94985
2.88768
2.72073
2.31509
1.5569
0.808319
0.537411
0.55087
0.564398
0.56765
0.575149
0.602564
0.663453
0.775436
0.97095
3
3
2.99997
2.99993
2.99978
2.99956
2.99868
2.99743
2.99246
2.98504
2.95788
2.90914
2.76601
2.44987
1.76473
0.924366
0.596373
0.601303
0.610983
0.618434
0.629371
0.661859
0.728759
0.838106
1.00694
3
3
2.99998
2.99994
2.99982
2.99964
2.99893
2.99792
2.99389
2.98788
2.96633
2.9249
2.81324
2.52833
1.96778
1.0363
0.659915
0.639542
0.652485
0.666178
0.682311
0.716525
0.780282
0.877867
1.02024
3
3
2.99998