/*--------------------------------*- C++ -*----------------------------------*\
| =========                 |                                                 |
| \\      /  F ield         | OpenFOAM: The Open Source CFD Toolbox           |
|  \\    /   O peration     | Version:  4.1                                   |
|   \\  /    A nd           | Web:      www.OpenFOAM.org                      |
|    \\/     M anipulation  |                                                 |
\*---------------------------------------------------------------------------*/
FoamFile
{
    version     2.0;
    format      ascii;
    class       volScalarField;
    location    "0.68";
    object      T;
}
// * * * * * * * * * * * * * * * * * * * * * * * * * * * * * * * * * * * * * //

dimensions      [0 0 0 1 0 0 0];

internalField   nonuniform List<scalar> 
52500
(
0.999994
0.999998
1
1.00003
1.00006
1.0002
1.00037
1.00122
1.00227
1.00686
1.01435
1.03765
1.10153
1.23661
1.68693
2.56182
2.79974
2.80428
2.80782
2.82595
2.95169
3.12543
2.99641
2.64509
2.56322
0.999994
0.999998
1
1.00003
1.00006
1.0002
1.00037
1.00121
1.00224
1.00679
1.01417
1.03724
1.10026
1.2336
1.68104
2.55521
2.79771
2.80332
2.80667
2.82425
2.94848
3.12263
2.99582
2.64331
2.56091
0.999994
0.999998
1
1.00003
1.00005
1.0002
1.00036
1.00118
1.00218
1.00668
1.01375
1.03652
1.09732
1.22751
1.66808
2.53934
2.79219
2.80057
2.80354
2.81976
2.93997
3.1179
2.99831
2.64535
2.55941
0.999994
0.999998
1
1.00002
1.00005
1.00019
1.00034
1.00112
1.00208
1.00642
1.01309
1.03545
1.09295
1.21952
1.64736
2.51088
2.7835
2.79654
2.79719
2.80991
2.92204
3.10773
3.00426
2.64947
2.55667
0.999994
0.999997
1
1.00002
1.00005
1.00017
1.00032
1.00105
1.00195
1.00595
1.0124
1.03306
1.08926
1.20494
1.62332
2.4676
2.7738
2.79157
2.78848
2.79655
2.8959
3.09119
3.01298
2.65858
2.5499
0.999994
0.999997
1
1.00002
1.00004
1.00016
1.00029
1.00097
1.0018
1.00547
1.01151
1.03037
1.08349
1.18694
1.59185
2.40709
2.76078
2.78494
2.77663
2.78057
2.86472
3.06906
3.01887
2.67015
2.5434
0.999994
0.999996
0.999999
1.00002
1.00004
1.00014
1.00026
1.00086
1.00163
1.00485
1.01049
1.02724
1.07616
1.16848
1.5529
2.32289
2.7361
2.77761
2.76461
2.76543
2.8271
3.02992
3.0146
2.6878
2.52955
0.999994
0.999995
0.999998
1.00001
1.00003
1.00012
1.00023
1.00075
1.00144
1.00418
1.00937
1.02359
1.06758
1.1463
1.49545
2.20038
2.70244
2.7717
2.74863
2.74181
2.78863
2.98673
3.00529
2.70262
2.5125
0.999993
0.999995
0.999997
1.00001
1.00003
1.00011
1.0002
1.00067
1.00125
1.00373
1.00811
1.02044
1.05784
1.12536
1.41986
2.03488
2.66651
2.7628
2.72968
2.71642
2.75189
2.93723
2.98858
2.72538
2.47377
0.999993
0.999994
0.999996
1.00001
1.00002
1.00009
1.00017
1.00056
1.00106
1.00324
1.00672
1.01788
1.04742
1.10842
1.33325
1.90867
2.56842
2.72014
2.69756
2.69336
2.71844
2.87268
2.95734
2.72618
2.4051
1
1.00001
1.00001
1.00004
1.00007
1.00021
1.00038
1.00123
1.00228
1.00687
1.01436
1.03767
1.10155
1.23666
1.68701
2.56195
2.79981
2.80436
2.80791
2.82605
2.95179
3.12552
2.9965
2.64517
2.56331
1
1.00001
1.00001
1.00004
1.00006
1.00021
1.00038
1.00122
1.00225
1.0068
1.01418
1.03726
1.10028
1.23366
1.68112
2.55533
2.79779
2.80341
2.80676
2.82435
2.94858
3.12272
2.9959
2.64334
2.56099
1
1.00001
1.00001
1.00003
1.00006
1.0002
1.00037
1.00119
1.00219
1.00669
1.01376
1.03653
1.09735
1.22755
1.66816
2.53947
2.79226
2.80065
2.80363
2.81986
2.94006
3.118
2.99839
2.64537
2.55948
1
1.00001
1.00001
1.00003
1.00006
1.00019
1.00035
1.00113
1.00209
1.00643
1.0131
1.03547
1.09297
1.21956
1.64743
2.51105
2.78357
2.79661
2.79728
2.81001
2.92212
3.10781
3.00436
2.64954
2.55675
1
1
1.00001
1.00003
1.00006
1.00018
1.00033
1.00106
1.00196
1.00596
1.01241
1.03308
1.08927
1.20502
1.62337
2.46777
2.77384
2.79164
2.78857
2.79664
2.89598
3.09128
3.01305
2.65869
2.55001
1
1
1.00001
1.00003
1.00005
1.00017
1.0003
1.00098
1.00181
1.00548
1.01152
1.03039
1.08351
1.18699
1.59191
2.40727
2.76082
2.785
2.77672
2.78065
2.8648
3.06915
3.01894
2.67026
2.54352
1
1
1.00001
1.00003
1.00005
1.00015
1.00027
1.00087
1.00164
1.00487
1.0105
1.02726
1.07618
1.16853
1.55297
2.3231
2.73612
2.77767
2.7647
2.76552
2.82718
3.03001
3.01471
2.68797
2.52968
1
1
1.00001
1.00002
1.00004
1.00013
1.00024
1.00076
1.00145
1.00419
1.00938
1.02361
1.0676
1.14635
1.49553
2.20061
2.70244
2.77176
2.74872
2.7419
2.7887
2.98678
3.0054
2.70279
2.51263
1
1
1.00001
1.00002
1.00004
1.00012
1.00021
1.00068
1.00126
1.00374
1.00813
1.02046
1.05786
1.12541
1.41995
2.03513
2.66651
2.76287
2.72978
2.71651
2.75196
2.93726
2.98867
2.72555
2.47388
1
1
1
1.00002
1.00003
1.0001
1.00018
1.00057
1.00107
1.00326
1.00673
1.0179
1.04743
1.10846
1.33331
1.90885
2.56853
2.72024
2.69764
2.69342
2.71848
2.87272
2.95743
2.72632
2.4052
1
1.00001
1.00001
1.00004
1.00007
1.00021
1.00038
1.00123
1.00228
1.00687
1.01436
1.03767
1.10155
1.23666
1.68701
2.56195
2.79982
2.80436
2.80791
2.82605
2.95178
3.12554
2.99655
2.64522
2.56333
1
1.00001
1.00001
1.00004
1.00006
1.00021
1.00038
1.00122
1.00225
1.0068
1.01418
1.03726
1.10028
1.23366
1.68112
2.55533
2.79779
2.80341
2.80676
2.82435
2.94857
3.12273
2.99596
2.64343
2.56102
1
1.00001
1.00001
1.00003
1.00006
1.0002
1.00037
1.00119
1.00219
1.00669
1.01376
1.03653
1.09735
1.22755
1.66816
2.53947
2.79226
2.80065
2.80363
2.81986
2.94005
3.118
2.99844
2.64546
2.55951
1
1.00001
1.00001
1.00003
1.00006
1.00019
1.00035
1.00113
1.00209
1.00643
1.0131
1.03547
1.09297
1.21956
1.64743
2.51105
2.78357
2.79661
2.79728
2.81001
2.92212
3.10782
3.0044
2.6496
2.55677
1
1
1.00001
1.00003
1.00006
1.00018
1.00033
1.00106
1.00196
1.00596
1.01241
1.03308
1.08927
1.20502
1.62337
2.46777
2.77385
2.79164
2.78858
2.79665
2.89599
3.0913
3.01307
2.65869
2.55001
1
1
1.00001
1.00003
1.00005
1.00017
1.0003
1.00098
1.00181
1.00548
1.01152
1.03039
1.08351
1.18699
1.59191
2.40727
2.76082
2.78501
2.77672
2.78066
2.8648
3.06916
3.01894
2.67023
2.54351
1
1
1.00001
1.00003
1.00005
1.00015
1.00027
1.00087
1.00164
1.00487
1.0105
1.02726
1.07618
1.16853
1.55297
2.3231
2.73613
2.77768
2.7647
2.76552
2.82719
3.03002
3.01469
2.6879
2.52967
1
1
1.00001
1.00002
1.00004
1.00013
1.00024
1.00076
1.00145
1.00419
1.00938
1.02361
1.0676
1.14635
1.49553
2.20061
2.70245
2.77176
2.74872
2.7419
2.78871
2.9868
3.00538
2.70272
2.51262
1
1
1.00001
1.00002
1.00004
1.00012
1.00021
1.00068
1.00126
1.00374
1.00813
1.02046
1.05786
1.12541
1.41995
2.03513
2.66652
2.76287
2.72978
2.71651
2.75197
2.93728
2.98865
2.72546
2.47386
1
1
1
1.00002
1.00003
1.0001
1.00018
1.00057
1.00107
1.00326
1.00673
1.0179
1.04743
1.10846
1.33331
1.90885
2.56854
2.72024
2.69764
2.69342
2.71849
2.87274
2.95742
2.72623
2.40518
1
1.00001
1.00001
1.00004
1.00007
1.00021
1.00038
1.00123
1.00228
1.00687
1.01436
1.03767
1.10155
1.23666
1.68701
2.56195
2.79981
2.80436
2.80791
2.82605
2.95179
3.12555
2.99657
2.64522
2.56332
1
1.00001
1.00001
1.00004
1.00006
1.00021
1.00038
1.00122
1.00225
1.0068
1.01418
1.03726
1.10028
1.23366
1.68112
2.55534
2.79778
2.8034
2.80676
2.82435
2.94858
3.12275
2.99597
2.64342
2.56101
1
1.00001
1.00001
1.00003
1.00006
1.0002
1.00037
1.00119
1.00219
1.00669
1.01376
1.03653
1.09735
1.22756
1.66816
2.53947
2.79226
2.80065
2.80363
2.81986
2.94006
3.11802
2.99846
2.64545
2.55951
1
1.00001
1.00001
1.00003
1.00006
1.00019
1.00035
1.00113
1.00209
1.00643
1.0131
1.03547
1.09297
1.21956
1.64743
2.51105
2.78356
2.79661
2.79728
2.81001
2.92212
3.10784
3.00439
2.64958
2.55677
1
1
1.00001
1.00003
1.00006
1.00018
1.00033
1.00106
1.00196
1.00596
1.01241
1.03308
1.08927
1.20502
1.62337
2.46778
2.77384
2.79164
2.78857
2.79665
2.89599
3.0913
3.01309
2.65868
2.55
1
1
1.00001
1.00003
1.00005
1.00017
1.0003
1.00098
1.00181
1.00548
1.01152
1.03039
1.08351
1.18699
1.59191
2.40728
2.76081
2.785
2.77672
2.78065
2.86481
3.06917
3.01896
2.67024
2.5435
1
1
1.00001
1.00003
1.00005
1.00015
1.00027
1.00087
1.00164
1.00487
1.0105
1.02726
1.07618
1.16853
1.55298
2.32311
2.73612
2.77767
2.7647
2.76552
2.82719
3.03003
3.01471
2.68791
2.52966
1
1
1.00001
1.00002
1.00004
1.00013
1.00024
1.00076
1.00145
1.00419
1.00938
1.02361
1.0676
1.14635
1.49554
2.20062
2.70244
2.77176
2.74872
2.7419
2.7887
2.98681
3.0054
2.70271
2.5126
1
1
1.00001
1.00002
1.00004
1.00012
1.00021
1.00068
1.00126
1.00374
1.00813
1.02046
1.05786
1.12541
1.41996
2.03515
2.66651
2.76287
2.72979
2.71651
2.75196
2.93729
2.98867
2.72546
2.47385
1
1
1
1.00002
1.00003
1.0001
1.00018
1.00057
1.00107
1.00326
1.00673
1.0179
1.04743
1.10847
1.33332
1.90886
2.56854
2.72024
2.69765
2.69342
2.71848
2.87274
2.95744
2.72624
2.40517
1
1.00001
1.00001
1.00004
1.00007
1.00021
1.00038
1.00123
1.00228
1.00687
1.01436
1.03767
1.10155
1.23666
1.68701
2.56195
2.79982
2.80436
2.80791
2.82605
2.95178
3.12555
2.99655
2.64521
2.56332
1
1.00001
1.00001
1.00004
1.00006
1.00021
1.00038
1.00122
1.00225
1.0068
1.01418
1.03726
1.10028
1.23366
1.68112
2.55534
2.7978
2.80341
2.80676
2.82435
2.94857
3.12274
2.99596
2.64341
2.56101
1
1.00001
1.00001
1.00003
1.00006
1.0002
1.00037
1.00119
1.00219
1.00669
1.01376
1.03653
1.09735
1.22756
1.66816
2.53947
2.79227
2.80065
2.80363
2.81986
2.94005
3.11801
2.99845
2.64545
2.5595
1
1.00001
1.00001
1.00003
1.00006
1.00019
1.00035
1.00113
1.00209
1.00643
1.0131
1.03547
1.09297
1.21956
1.64743
2.51105
2.78358
2.79661
2.79728
2.81001
2.92212
3.10783
3.00441
2.64959
2.55677
1
1
1.00001
1.00003
1.00006
1.00018
1.00033
1.00106
1.00196
1.00596
1.01241
1.03308
1.08927
1.20502
1.62337
2.46778
2.77385
2.79164
2.78858
2.79665
2.89599
3.0913
3.01309
2.65869
2.55
1
1
1.00001
1.00003
1.00005
1.00017
1.0003
1.00098
1.00181
1.00548
1.01152
1.03039
1.08351
1.18699
1.59191
2.40728
2.76083
2.78501
2.77672
2.78066
2.86481
3.06917
3.01896
2.67023
2.54349
1
1
1.00001
1.00003
1.00005
1.00015
1.00027
1.00087
1.00164
1.00487
1.0105
1.02726
1.07618
1.16853
1.55298
2.32311
2.73614
2.77768
2.7647
2.76552
2.82719
3.03003
3.01472
2.68791
2.52964
1
1
1.00001
1.00002
1.00004
1.00013
1.00024
1.00076
1.00145
1.00419
1.00938
1.02361
1.0676
1.14635
1.49553
2.20061
2.70246
2.77176
2.74872
2.7419
2.78871
2.98681
3.0054
2.70273
2.51259
1
1
1.00001
1.00002
1.00004
1.00012
1.00021
1.00068
1.00126
1.00374
1.00813
1.02046
1.05786
1.12541
1.41995
2.03514
2.66653
2.76287
2.72978
2.71651
2.75197
2.93729
2.98867
2.72548
2.47384
1
1
1
1.00002
1.00003
1.0001
1.00018
1.00057
1.00107
1.00326
1.00673
1.0179
1.04743
1.10846
1.33331
1.90885
2.56855
2.72024
2.69765
2.69342
2.71849
2.87274
2.95743
2.72626
2.40517
1
1.00001
1.00001
1.00004
1.00007
1.00021
1.00038
1.00123
1.00228
1.00687
1.01436
1.03767
1.10155
1.23666
1.68701
2.56195
2.79982
2.80436
2.80791
2.82605
2.95178
3.12555
2.99657
2.64521
2.56332
1
1.00001
1.00001
1.00004
1.00006
1.00021
1.00038
1.00122
1.00225
1.0068
1.01418
1.03726
1.10028
1.23366
1.68112
2.55533
2.79779
2.80341
2.80676
2.82435
2.94857
3.12275
2.99597
2.64342
2.56101
1
1.00001
1.00001
1.00003
1.00006
1.0002
1.00037
1.00119
1.00219
1.00669
1.01376
1.03653
1.09735
1.22755
1.66816
2.53947
2.79227
2.80065
2.80363
2.81986
2.94006
3.11802
2.99845
2.64545
2.5595
1
1.00001
1.00001
1.00003
1.00006
1.00019
1.00035
1.00113
1.00209
1.00643
1.0131
1.03547
1.09297
1.21956
1.64743
2.51105
2.78357
2.79661
2.79728
2.81001
2.92212
3.10783
3.0044
2.64959
2.55677
1
1
1.00001
1.00003
1.00006
1.00018
1.00033
1.00106
1.00196
1.00596
1.01241
1.03308
1.08927
1.20502
1.62337
2.46777
2.77385
2.79164
2.78858
2.79665
2.89599
3.09131
3.01307
2.65868
2.55
1
1
1.00001
1.00003
1.00005
1.00017
1.0003
1.00098
1.00181
1.00548
1.01152
1.03039
1.08351
1.18699
1.59191
2.40728
2.76082
2.78501
2.77672
2.78065
2.8648
3.06917
3.01896
2.67023
2.5435
1
1
1.00001
1.00003
1.00005
1.00015
1.00027
1.00087
1.00164
1.00487
1.0105
1.02726
1.07618
1.16853
1.55298
2.32311
2.73613
2.77768
2.7647
2.76552
2.82718
3.03003
3.01471
2.6879
2.52966
1
1
1.00001
1.00002
1.00004
1.00013
1.00024
1.00076
1.00145
1.00419
1.00938
1.02361
1.0676
1.14635
1.49553
2.20061
2.70245
2.77176
2.74872
2.7419
2.7887
2.98681
3.0054
2.70272
2.5126
1
1
1.00001
1.00002
1.00004
1.00012
1.00021
1.00068
1.00126
1.00374
1.00813
1.02046
1.05786
1.12541
1.41995
2.03514
2.66652
2.76287
2.72978
2.71651
2.75196
2.93728
2.98867
2.72547
2.47385
1
1
1
1.00002
1.00003
1.0001
1.00018
1.00057
1.00107
1.00326
1.00673
1.0179
1.04743
1.10847
1.33331
1.90885
2.56854
2.72024
2.69765
2.69342
2.71849
2.87274
2.95744
2.72625
2.40517
1
1.00001
1.00001
1.00004
1.00007
1.00021
1.00038
1.00123
1.00228
1.00687
1.01436
1.03767
1.10155
1.23666
1.68701
2.56195
2.79981
2.80436
2.80791
2.82605
2.95179
3.12555
2.99657
2.64522
2.56332
1
1.00001
1.00001
1.00004
1.00006
1.00021
1.00038
1.00122
1.00225
1.0068
1.01418
1.03726
1.10028
1.23366
1.68112
2.55534
2.79778
2.8034
2.80676
2.82435
2.94858
3.12275
2.99597
2.64342
2.56101
1
1.00001
1.00001
1.00003
1.00006
1.0002
1.00037
1.00119
1.00219
1.00669
1.01376
1.03653
1.09735
1.22756
1.66816
2.53947
2.79226
2.80065
2.80363
2.81986
2.94006
3.11802
2.99846
2.64545
2.55951
1
1.00001
1.00001
1.00003
1.00006
1.00019
1.00035
1.00113
1.00209
1.00643
1.0131
1.03547
1.09297
1.21956
1.64743
2.51105
2.78356
2.79661
2.79728
2.81001
2.92212
3.10784
3.00439
2.64958
2.55677
1
1
1.00001
1.00003
1.00006
1.00018
1.00033
1.00106
1.00196
1.00596
1.01241
1.03308
1.08927
1.20502
1.62337
2.46778
2.77384
2.79164
2.78857
2.79665
2.89599
3.0913
3.01309
2.65868
2.55
1
1
1.00001
1.00003
1.00005
1.00017
1.0003
1.00098
1.00181
1.00548
1.01152
1.03039
1.08351
1.18699
1.59191
2.40728
2.76081
2.785
2.77672
2.78065
2.86481
3.06917
3.01896
2.67024
2.5435
1
1
1.00001
1.00003
1.00005
1.00015
1.00027
1.00087
1.00164
1.00487
1.0105
1.02726
1.07618
1.16853
1.55298
2.32311
2.73612
2.77767
2.7647
2.76552
2.82719
3.03003
3.01471
2.68791
2.52966
1
1
1.00001
1.00002
1.00004
1.00013
1.00024
1.00076
1.00145
1.00419
1.00938
1.02361
1.0676
1.14635
1.49554
2.20062
2.70244
2.77176
2.74872
2.7419
2.7887
2.98681
3.0054
2.70271
2.5126
1
1
1.00001
1.00002
1.00004
1.00012
1.00021
1.00068
1.00126
1.00374
1.00813
1.02046
1.05786
1.12541
1.41996
2.03515
2.6665
2.76287
2.72979
2.71651
2.75196
2.93729
2.98867
2.72546
2.47385
1
1
1
1.00002
1.00003
1.0001
1.00018
1.00057
1.00107
1.00326
1.00673
1.0179
1.04743
1.10847
1.33332
1.90886
2.56854
2.72024
2.69765
2.69342
2.71848
2.87274
2.95744
2.72624
2.40517
1
1.00001
1.00001
1.00004
1.00007
1.00021
1.00038
1.00123
1.00228
1.00687
1.01436
1.03767
1.10155
1.23666
1.68701
2.56195
2.79982
2.80436
2.80791
2.82605
2.95178
3.12554
2.99655
2.64522
2.56333
1
1.00001
1.00001
1.00004
1.00006
1.00021
1.00038
1.00122
1.00225
1.0068
1.01418
1.03726
1.10028
1.23366
1.68112
2.55533
2.79779
2.80341
2.80676
2.82435
2.94857
3.12273
2.99596
2.64343
2.56102
1
1.00001
1.00001
1.00003
1.00006
1.0002
1.00037
1.00119
1.00219
1.00669
1.01376
1.03653
1.09735
1.22755
1.66816
2.53947
2.79226
2.80065
2.80363
2.81986
2.94005
3.118
2.99844
2.64546
2.55951
1
1.00001
1.00001
1.00003
1.00006
1.00019
1.00035
1.00113
1.00209
1.00643
1.0131
1.03547
1.09297
1.21956
1.64743
2.51105
2.78357
2.79661
2.79728
2.81001
2.92212
3.10782
3.0044
2.6496
2.55677
1
1
1.00001
1.00003
1.00006
1.00018
1.00033
1.00106
1.00196
1.00596
1.01241
1.03308
1.08927
1.20502
1.62337
2.46777
2.77385
2.79164
2.78858
2.79665
2.89599
3.0913
3.01307
2.65869
2.55001
1
1
1.00001
1.00003
1.00005
1.00017
1.0003
1.00098
1.00181
1.00548
1.01152
1.03039
1.08351
1.18699
1.59191
2.40727
2.76082
2.78501
2.77672
2.78066
2.8648
3.06916
3.01894
2.67023
2.54351
1
1
1.00001
1.00003
1.00005
1.00015
1.00027
1.00087
1.00164
1.00487
1.0105
1.02726
1.07618
1.16853
1.55297
2.3231
2.73613
2.77768
2.7647
2.76552
2.82719
3.03002
3.01469
2.6879
2.52967
1
1
1.00001
1.00002
1.00004
1.00013
1.00024
1.00076
1.00145
1.00419
1.00938
1.02361
1.0676
1.14635
1.49553
2.20061
2.70245
2.77176
2.74872
2.7419
2.78871
2.9868
3.00538
2.70272
2.51262
1
1
1.00001
1.00002
1.00004
1.00012
1.00021
1.00068
1.00126
1.00374
1.00813
1.02046
1.05786
1.12541
1.41995
2.03513
2.66652
2.76287
2.72978
2.71651
2.75197
2.93728
2.98865
2.72546
2.47386
1
1
1
1.00002
1.00003
1.0001
1.00018
1.00057
1.00107
1.00326
1.00673
1.0179
1.04743
1.10846
1.33331
1.90885
2.56854
2.72024
2.69764
2.69342
2.71849
2.87274
2.95742
2.72623
2.40518
1
1.00001
1.00001
1.00004
1.00007
1.00021
1.00038
1.00123
1.00228
1.00687
1.01436
1.03767
1.10155
1.23666
1.68701
2.56195
2.79981
2.80436
2.80791
2.82605
2.95179
3.12552
2.9965
2.64517
2.56331
1
1.00001
1.00001
1.00004
1.00006
1.00021
1.00038
1.00122
1.00225
1.0068
1.01418
1.03726
1.10028
1.23366
1.68112
2.55533
2.79779
2.80341
2.80676
2.82435
2.94858
3.12272
2.9959
2.64334
2.56099
1
1.00001
1.00001
1.00003
1.00006
1.0002
1.00037
1.00119
1.00219
1.00669
1.01376
1.03653
1.09735
1.22755
1.66816
2.53947
2.79226
2.80065
2.80363
2.81986
2.94006
3.118
2.99839
2.64537
2.55948
1
1.00001
1.00001
1.00003
1.00006
1.00019
1.00035
1.00113
1.00209
1.00643
1.0131
1.03547
1.09297
1.21956
1.64743
2.51105
2.78357
2.79661
2.79728
2.81001
2.92212
3.10781
3.00436
2.64954
2.55675
1
1
1.00001
1.00003
1.00006
1.00018
1.00033
1.00106
1.00196
1.00596
1.01241
1.03308
1.08927
1.20502
1.62337
2.46777
2.77384
2.79164
2.78857
2.79664
2.89598
3.09128
3.01305
2.65869
2.55001
1
1
1.00001
1.00003
1.00005
1.00017
1.0003
1.00098
1.00181
1.00548
1.01152
1.03039
1.08351
1.18699
1.59191
2.40727
2.76082
2.785
2.77672
2.78065
2.8648
3.06915
3.01894
2.67026
2.54352
1
1
1.00001
1.00003
1.00005
1.00015
1.00027
1.00087
1.00164
1.00487
1.0105
1.02726
1.07618
1.16853
1.55297
2.3231
2.73612
2.77767
2.7647
2.76552
2.82718
3.03001
3.01471
2.68797
2.52968
1
1
1.00001
1.00002
1.00004
1.00013
1.00024
1.00076
1.00145
1.00419
1.00938
1.02361
1.0676
1.14635
1.49553
2.20061
2.70244
2.77176
2.74872
2.7419
2.7887
2.98678
3.0054
2.70279
2.51263
1
1
1.00001
1.00002
1.00004
1.00012
1.00021
1.00068
1.00126
1.00374
1.00813
1.02046
1.05786
1.12541
1.41995
2.03513
2.66651
2.76287
2.72978
2.71651
2.75196
2.93726
2.98867
2.72555
2.47388
1
1
1
1.00002
1.00003
1.0001
1.00018
1.00057
1.00107
1.00326
1.00673
1.0179
1.04743
1.10846
1.33331
1.90885
2.56853
2.72024
2.69764
2.69342
2.71848
2.87272
2.95743
2.72632
2.4052
0.999994
0.999998
1
1.00003
1.00006
1.0002
1.00037
1.00122
1.00227
1.00686
1.01435
1.03765
1.10153
1.23661
1.68693
2.56182
2.79973
2.80427
2.80781
2.82596
2.95169
3.12544
2.99643
2.64516
2.56322
0.999994
0.999998
1
1.00003
1.00006
1.0002
1.00037
1.00121
1.00224
1.00679
1.01417
1.03724
1.10026
1.2336
1.68104
2.55521
2.79771
2.80332
2.80667
2.82426
2.94849
3.12264
2.99583
2.64337
2.56091
0.999994
0.999998
1
1.00003
1.00005
1.0002
1.00036
1.00118
1.00218
1.00668
1.01375
1.03652
1.09732
1.22751
1.66808
2.53934
2.79218
2.80056
2.80354
2.81977
2.93997
3.1179
2.99831
2.64541
2.55941
0.999994
0.999998
1
1.00002
1.00005
1.00019
1.00034
1.00112
1.00208
1.00642
1.01309
1.03545
1.09295
1.21952
1.64736
2.51088
2.7835
2.79654
2.79719
2.80992
2.92205
3.10774
3.00425
2.6495
2.55667
0.999994
0.999997
1
1.00002
1.00005
1.00017
1.00032
1.00105
1.00195
1.00595
1.0124
1.03306
1.08926
1.20495
1.62332
2.4676
2.7738
2.79157
2.78848
2.79656
2.8959
3.0912
3.01295
2.65856
2.54988
0.999994
0.999997
1
1.00002
1.00004
1.00016
1.00029
1.00097
1.0018
1.00547
1.01151
1.03037
1.08349
1.18694
1.59185
2.4071
2.76078
2.78493
2.77663
2.78057
2.86471
3.06906
3.01887
2.67013
2.54338
0.999994
0.999996
0.999999
1.00002
1.00004
1.00014
1.00026
1.00086
1.00163
1.00485
1.01049
1.02724
1.07616
1.16848
1.55291
2.3229
2.73609
2.77761
2.76461
2.76544
2.8271
3.02991
3.01463
2.6878
2.52952
0.999994
0.999995
0.999998
1.00001
1.00003
1.00012
1.00023
1.00075
1.00144
1.00418
1.00937
1.02359
1.06758
1.1463
1.49546
2.20038
2.70243
2.7717
2.74863
2.74181
2.78864
2.98673
3.00534
2.70262
2.51246
0.999993
0.999995
0.999997
1.00001
1.00003
1.00011
1.0002
1.00067
1.00125
1.00373
1.00811
1.02044
1.05784
1.12536
1.41987
2.03489
2.6665
2.7628
2.72968
2.71642
2.7519
2.93724
2.98862
2.72543
2.47374
0.999993
0.999994
0.999996
1.00001
1.00002
1.00009
1.00017
1.00056
1.00106
1.00324
1.00672
1.01788
1.04742
1.10843
1.33325
1.90868
2.56842
2.72014
2.69756
2.69335
2.71844
2.87268
2.95738
2.72623
2.40507
0.999993
0.999993
0.999997
1
1.00002
1.00005
1.00019
1.00036
1.00115
1.00223
1.00652
1.01445
1.03708
1.10292
1.24505
1.68631
2.53466
2.6848
2.66923
2.66974
2.68526
2.79619
2.89502
2.74117
2.24216
0.999992
0.999993
0.999996
1
1.00002
1.00004
1.00016
1.0003
1.001
1.00185
1.00578
1.01169
1.03206
1.08339
1.19819
1.58392
2.43123
2.66513
2.65411
2.64684
2.65178
2.71803
2.81395
2.74229
2.28872
0.999992
0.999992
0.999995
0.999998
1.00001
1.00003
1.00013
1.00024
1.0008
1.00151
1.00453
1.00966
1.02513
1.06959
1.15419
1.49809
2.24508
2.60367
2.62823
2.61911
2.62127
2.65055
2.72425
2.71316
2.42212
0.999992
0.999992
0.999994
0.999997
1.00001
1.00003
1.0001
1.0002
1.00066
1.00122
1.00388
1.00761
1.02138
1.05246
1.12375
1.37299
1.99368
2.51989
2.61356
2.59954
2.60072
2.6097
2.6491
2.65101
2.554
0.999992
0.999992
0.999993
0.999995
1.00001
1.00002
1.00008
1.00015
1.00051
1.00095
1.00302
1.00584
1.01726
1.03764
1.10175
1.25467
1.81615
2.30411
2.548
2.56612
2.57934
2.57852
2.58476
2.5816
2.54203
0.999991
0.999992
0.999992
0.999995
0.999999
1.00002
1.00004
1.00015
1.00028
1.00089
1.00173
1.005
1.0112
1.0284
1.08005
1.17664
1.55173
2.27292
2.48113
2.51719
2.51988
2.51427
2.50361
2.48881
2.47394
0.999991
0.999991
0.999992
0.999994
0.999997
1.00001
1.00003
1.00011
1.00021
1.00072
1.00132
1.00416
1.00826
1.02267
1.05769
1.13377
1.40444
2.06813
2.40887
2.49839
2.49269
2.48059
2.46222
2.44388
2.43226
0.999991
0.999991
0.999992
0.999993
0.999995
1.00001
1.00002
1.00008
1.00015
1.00051
1.00095
1.003
1.00584
1.01696
1.03799
1.09908
1.25729
1.78178
2.2417
2.44476
2.45343
2.44241
2.42364
2.39861
2.37011
0.999991
0.999991
0.999991
0.999992
0.999995
0.999998
1.00001
1.00004
1.00013
1.00026
1.00082
1.00161
1.00458
1.0104
1.0261
1.07348
1.16134
1.50244
2.14691
2.37857
2.41283
2.39556
2.38507
2.36948
2.34481
0.999991
0.999991
0.999991
0.999992
0.999994
0.999996
1.00001
1.00002
1.00009
1.00018
1.00061
1.00113
1.00358
1.00709
1.0201
1.04781
1.11801
1.33077
1.92978
2.2528
2.37271
2.37103
2.35887
2.33606
2.31177
0.999991
0.999991
0.999991
0.999991
0.999992
0.999995
0.999999
1.00002
1.00004
1.00015
1.00029
1.00091
1.00179
1.00522
1.01154
1.03013
1.08028
1.1921
1.52
2.12824
2.30128
2.3212
2.30789
2.29717
2.28553
0.999991
0.999991
0.999991
0.999991
0.999992
0.999994
0.999996
1.00001
1.00002
1.0001
1.00019
1.00063
1.00118
1.00373
1.00742
1.02075
1.05111
1.12152
1.35234
1.92154
2.19639
2.28826
2.28851
2.27638
2.25105
0.999991
0.999991
0.999991
0.999991
0.999991
0.999992
0.999995
0.999999
1.00002
1.00004
1.00015
1.00028
1.0009
1.00177
1.00525
1.01131
1.03042
1.07756
1.19316
1.49852
2.05878
2.22009
2.24328
2.23528
2.22553
0.999991
0.999991
0.999991
0.999991
0.999991
0.999992
0.999993
0.999996
1.00001
1.00002
1.00009
1.00017
1.00058
1.00109
1.00344
1.00692
1.01907
1.04814
1.11118
1.33028
1.82764
2.13163
2.21614
2.21488
2.19271
0.999991
0.999991
0.999991
0.999991
0.999991
0.999991
0.999992
0.999994
0.999998
1.00001
1.00003
1.00013
1.00025
1.00078
1.00156
1.00452
1.01009
1.02656
1.06977
1.16893
1.44795
1.97157
2.14246
2.17191
2.1683
0.999991
0.999991
0.999991
0.999991
0.999991
0.999991
0.999991
0.999993
0.999995
1
1.00002
1.00007
1.00014
1.00048
1.0009
1.00284
1.00572
1.01596
1.03888
1.09278
1.26496
1.67705
2.04948
2.13575
2.13259
0.999991
0.999991
0.999991
0.999991
0.999991
0.999991
0.999991
0.999992
0.999994
0.999996
1.00001
1.00002
1.0001
1.00019
1.00061
1.00122
1.00349
1.00802
1.02013
1.05653
1.12415
1.37507
1.83965
2.05189
2.09577
0.999991
0.999991
0.999991
0.999991
0.999991
0.999991
0.999991
0.999991
0.999992
0.999994
1
1.00001
1.00005
1.0001
1.00036
1.00067
1.00217
1.00418
1.01254
1.02656
1.07244
1.17339
1.51304
1.86277
2.01089
0.999991
0.999991
0.999991
0.999991
0.999991
0.999991
0.999991
0.999991
0.999991
0.999993
0.999995
1
1.00001
1.00006
1.00013
1.00043
1.00085
1.00247
1.00559
1.014
1.03848
1.0844
1.25577
1.61461
1.93212
0.999991
0.999991
0.999991
0.999991
0.999991
0.999991
0.999991
0.999991
0.999991
0.999992
0.999993
0.999996
1.00001
1.00002
1.00008
1.00016
1.00052
1.00106
1.00301
1.00702
1.01752
1.04904
1.10704
1.32204
1.711
0.999991
0.999991
0.999991
0.999991
0.999991
0.999991
0.999991
0.999991
0.999991
0.999991
0.999992
0.999993
0.999999
1.00001
1.00004
1.00008
1.00027
1.00052
1.0017
1.00328
1.01008
1.02085
1.05965
1.13515
1.41545
0.999991
0.999991
0.999991
0.999991
0.999991
0.999991
0.999991
0.999991
0.999991
0.999991
0.999991
0.999992
0.999994
1
1.00001
1.00004
1.00009
1.00031
1.00061
1.00187
1.00387
1.01079
1.02514
1.06222
1.16346
0.999991
0.999991
0.999991
0.999991
0.999991
0.999991
0.999991
0.999991
0.999991
0.999991
0.999991
0.999992
0.999992
0.999996
0.999999
1.00002
1.00004
1.00015
1.00028
1.0009
1.0017
1.00532
1.01064
1.03062
1.06877
0.999991
0.999991
0.999991
0.999991
0.999991
0.999991
0.999991
0.999991
0.999991
0.999991
0.999991
0.999991
0.999992
0.999993
0.999995
1
1.00001
1.00006
1.00012
1.0004
1.00076
1.00234
1.00481
1.01285
1.03225
0.999991
0.999991
0.999991
0.999991
0.999991
0.999991
0.999991
0.999991
0.999991
0.999991
0.999991
0.999991
0.999992
0.999992
0.999994
0.999998
1
1.00003
1.00005
1.00018
1.00033
1.00105
1.002
1.00606
1.01251
0.999991
0.999991
0.999991
0.999991
0.999991
0.999991
0.999991
0.999991
0.999991
0.999991
0.999991
0.999991
0.999992
0.999992
0.999993
0.999996
1
1.00001
1.00003
1.00006
1.00019
1.00036
1.00106
1.00209
1.00611
0.999991
0.999991
0.999991
0.999991
0.999991
0.999991
0.999991
0.999991
0.999991
0.999991
0.999991
0.999991
0.999992
0.999992
0.999994
0.999995
0.999999
1
1.00002
1.00004
1.00008
1.0002
1.00038
1.0011
1.00214
0.999991
0.999991
0.999991
0.999991
0.999991
0.999991
0.999991
0.999991
0.999991
0.999991
0.999991
0.999991
0.999992
0.999992
0.999993
0.999995
0.999998
1
1.00001
1.00003
1.00005
1.00011
1.00022
1.00043
1.00113
0.999991
0.999991
0.999991
0.999991
0.999991
0.999991
0.999991
0.999991
0.999991
0.999991
0.999991
0.999991
0.999992
0.999992
0.999993
0.999995
0.999999
1
1.00001
1.00002
1.00005
1.00008
1.00015
1.00026
1.00054
0.999991
0.999991
0.999991
0.999991
0.999991
0.999991
0.999991
0.999991
0.999991
0.999991
0.999991
0.999991
0.999992
0.999992
0.999993
0.999995
0.999999
1
1.00001
1.00002
1.00005
1.00008
1.00015
1.00021
1.00038
0.999991
0.999991
0.999991
0.999991
0.999991
0.999991
0.999991
0.999991
0.999991
0.999991
0.999991
0.999991
0.999992
0.999992
0.999994
0.999995
0.999998
1
1.00001
1.00003
1.00004
1.00009
1.00013
1.00023
1.00032
0.999991
0.999991
0.999991
0.999991
0.999991
0.999991
0.999991
0.999991
0.999991
0.999991
0.999991
0.999991
0.999991
0.999992
0.999994
0.999995
0.999998
1
1.00001
1.00002
1.00005
1.00008
1.00014
1.00021
1.00035
0.999991
0.999991
0.999991
0.999991
0.999991
0.999991
0.999991
0.999991
0.999991
0.999991
0.999991
0.999991
0.999991
0.999992
0.999993
0.999995
0.999998
1
1.00001
1.00002
1.00005
1.00008
1.00014
1.00021
1.00033
0.999991
0.999991
0.999991
0.999991
0.999991
0.999991
0.999991
0.999991
0.999991
0.999991
0.999991
0.999991
0.999991
0.999992
0.999993
0.999995
0.999998
1
1.00001
1.00002
1.00005
1.00008
1.00013
1.00021
1.00033
0.999991
0.999991
0.999991
0.999991
0.999991
0.999991
0.999991
0.999991
0.999991
0.999991
0.999991
0.999991
0.999991
0.999992
0.999993
0.999995
0.999998
1
1.00001
1.00002
1.00004
1.00008
1.00013
1.00021
1.00033
0.999991
0.999991
0.999991
0.999991
0.999991
0.999991
0.999991
0.999991
0.999991
0.999991
0.999991
0.999991
0.999991
0.999992
0.999993
0.999995
0.999998
1
1.00001
1.00002
1.00004
1.00008
1.00013
1.00021
1.00033
0.999991
0.999991
0.999991
0.999991
0.999991
0.999991
0.999991
0.999991
0.999991
0.999991
0.999991
0.999991
0.999991
0.999992
0.999993
0.999995
0.999998
1
1.00001
1.00002
1.00004
1.00008
1.00013
1.00021
1.00033
0.999991
0.999991
0.999991
0.999991
0.999991
0.999991
0.999991
0.999991
0.999991
0.999991
0.999991
0.999991
0.999991
0.999992
0.999993
0.999995
0.999998
1
1.00001
1.00002
1.00004
1.00008
1.00013
1.00021
1.00033
0.999991
0.999991
0.999991
0.999991
0.999991
0.999991
0.999991
0.999991
0.999991
0.999991
0.999991
0.999991
0.999991
0.999992
0.999993
0.999995
0.999998
1
1.00001
1.00002
1.00004
1.00008
1.00013
1.00021
1.00033
0.999991
0.999991
0.999991
0.999991
0.999991
0.999991
0.999991
0.999991
0.999991
0.999991
0.999991
0.999991
0.999991
0.999992
0.999993
0.999995
0.999998
1
1.00001
1.00002
1.00004
1.00008
1.00013
1.00021
1.00033
1
1
1.00001
1.00001
1.00003
1.00006
1.0002
1.00037
1.00116
1.00224
1.00653
1.01446
1.03709
1.10294
1.2451
1.68639
2.53476
2.68487
2.66929
2.66978
2.68529
2.79623
2.8951
2.74128
2.24223
1
1
1
1.00001
1.00003
1.00005
1.00017
1.00031
1.00101
1.00186
1.00579
1.0117
1.03208
1.08341
1.19825
1.58398
2.43136
2.6652
2.65418
2.64689
2.65182
2.71806
2.81402
2.74238
2.28878
1
1
1
1.00001
1.00002
1.00004
1.00014
1.00025
1.00081
1.00152
1.00455
1.00967
1.02515
1.06961
1.15424
1.49817
2.24525
2.60377
2.62828
2.61915
2.6213
2.65059
2.72431
2.71323
2.4222
1
1
1
1.00001
1.00002
1.00003
1.00011
1.00021
1.00067
1.00123
1.00389
1.00762
1.02139
1.05247
1.12379
1.37306
1.99383
2.51999
2.61361
2.59958
2.60075
2.60972
2.64916
2.65106
2.55405
1
1
1
1
1.00001
1.00003
1.00009
1.00016
1.00052
1.00096
1.00303
1.00585
1.01727
1.03765
1.10179
1.25471
1.81625
2.30427
2.54804
2.56615
2.57937
2.57857
2.58484
2.58169
2.54211
1
1
1
1
1.00001
1.00003
1.00005
1.00015
1.00029
1.0009
1.00174
1.00501
1.01121
1.02842
1.08007
1.17669
1.5518
2.27306
2.48119
2.51722
2.51993
2.51434
2.50369
2.48889
2.47401
1
1
1
1
1.00001
1.00002
1.00004
1.00012
1.00022
1.00073
1.00133
1.00417
1.00827
1.02269
1.0577
1.13381
1.40449
2.0683
2.40895
2.49843
2.49272
2.48063
2.46227
2.44392
2.4323
1
1
1
1
1
1.00001
1.00003
1.00009
1.00016
1.00052
1.00096
1.00301
1.00585
1.01698
1.038
1.09911
1.25735
1.78193
2.24185
2.44483
2.45348
2.44246
2.42369
2.39866
2.37015
1
1
1
1
1
1.00001
1.00002
1.00004
1.00014
1.00027
1.00083
1.00162
1.00459
1.01041
1.02612
1.0735
1.16138
1.50251
2.14705
2.37865
2.41287
2.39558
2.38509
2.36951
2.34483
1
1
1
1
1
1.00001
1.00002
1.00003
1.0001
1.00019
1.00062
1.00114
1.00359
1.0071
1.02011
1.04782
1.11806
1.33083
1.92996
2.25285
2.37274
2.37106
2.35892
2.33612
2.31182
1
1
1
1
1
1
1.00001
1.00003
1.00005
1.00016
1.0003
1.00092
1.0018
1.00523
1.01155
1.03015
1.08029
1.19217
1.52006
2.1283
2.30132
2.32124
2.30793
2.29719
2.28555