/*--------------------------------*- C++ -*----------------------------------*\
| =========                 |                                                 |
| \\      /  F ield         | OpenFOAM: The Open Source CFD Toolbox           |
|  \\    /   O peration     | Version:  4.1                                   |
|   \\  /    A nd           | Web:      www.OpenFOAM.org                      |
|    \\/     M anipulation  |                                                 |
\*---------------------------------------------------------------------------*/
FoamFile
{
    version     2.0;
    format      ascii;
    class       volVectorField;
    location    "0.68";
    object      U;
}
// * * * * * * * * * * * * * * * * * * * * * * * * * * * * * * * * * * * * * //

dimensions      [0 1 -1 0 0 0 0];

internalField   nonuniform List<vector> 
52500
(
(3 4.45249e-09 -0.00571424)
(3 1.9138e-08 -0.00571427)
(2.99999 7.35117e-08 -0.00571431)
(2.99998 1.89009e-07 -0.00571446)
(2.99995 4.97142e-07 -0.00571472)
(2.99986 1.12105e-06 -0.00571555)
(2.99969 2.78184e-06 -0.0057171)
(2.99918 6.03876e-06 -0.00572181)
(2.99819 1.54234e-05 -0.0057312)
(2.99503 3.19418e-05 -0.0057567)
(2.98949 9.20899e-05 -0.00582023)
(2.96839 0.000180938 -0.00594732)
(2.92807 0.000562589 -0.00643972)
(2.78401 0.00137259 -0.00719953)
(2.35754 0.00365628 -0.0104315)
(1.39771 0.0106082 -0.0159937)
(0.532678 0.0252365 -0.0189613)
(0.498614 0.0286647 -0.0190667)
(0.502856 0.0318833 -0.0191826)
(0.471548 0.0345924 -0.0194187)
(0.398345 0.0372265 -0.0204124)
(0.27987 0.0394455 -0.0217285)
(0.182174 0.040925 -0.0209558)
(0.116575 0.0415488 -0.0186422)
(0.043885 0.0401862 -0.0181966)
(3 1.35194e-08 -0.00571424)
(3 5.8592e-08 -0.00571427)
(2.99999 2.2713e-07 -0.00571431)
(2.99998 5.84396e-07 -0.00571446)
(2.99995 1.55192e-06 -0.00571472)
(2.99986 3.52132e-06 -0.00571553)
(2.99969 8.74154e-06 -0.00571706)
(2.99919 1.9035e-05 -0.00572172)
(2.99822 4.81549e-05 -0.00573098)
(2.9951 9.86945e-05 -0.00575625)
(2.98961 0.000288252 -0.00581884)
(2.96877 0.000537706 -0.00594458)
(2.9291 0.00177497 -0.0064304)
(2.78634 0.0041603 -0.00717825)
(2.36569 0.0114449 -0.0103868)
(1.41471 0.0327625 -0.0158985)
(0.541824 0.0755369 -0.0188494)
(0.496645 0.0805578 -0.0189627)
(0.501428 0.0849986 -0.0190705)
(0.471206 0.0884539 -0.0192944)
(0.399052 0.0922941 -0.0202638)
(0.281668 0.0946244 -0.0215691)
(0.183383 0.0946336 -0.0208153)
(0.117036 0.0916112 -0.0185115)
(0.0452786 0.087913 -0.0180685)
(3 2.21973e-08 -0.00571424)
(3 9.76813e-08 -0.00571427)
(2.99999 3.82994e-07 -0.00571431)
(2.99998 9.83258e-07 -0.00571445)
(2.99995 2.66436e-06 -0.0057147)
(2.99987 6.08652e-06 -0.00571549)
(2.9997 1.54198e-05 -0.00571699)
(2.99921 3.41331e-05 -0.00572154)
(2.99826 8.5954e-05 -0.00573053)
(2.99523 0.000183943 -0.00575552)
(2.98986 0.000500622 -0.00581576)
(2.96959 0.000980244 -0.00594004)
(2.9312 0.0030127 -0.00640959)
(2.79133 0.00707295 -0.00713744)
(2.38325 0.0196891 -0.0102945)
(1.45236 0.055343 -0.0157216)
(0.564248 0.130576 -0.0187028)
(0.49528 0.137101 -0.0188404)
(0.502253 0.14316 -0.0189409)
(0.474984 0.149071 -0.0191475)
(0.404832 0.156672 -0.0200744)
(0.289141 0.161912 -0.0213886)
(0.189227 0.162918 -0.0206874)
(0.119721 0.157523 -0.0184029)
(0.0472124 0.152251 -0.0179434)
(3 3.05794e-08 -0.00571424)
(3 1.37611e-07 -0.00571427)
(2.99999 5.33638e-07 -0.00571431)
(2.99998 1.35985e-06 -0.00571444)
(2.99995 3.68177e-06 -0.00571468)
(2.99987 8.37596e-06 -0.00571543)
(2.99972 2.15277e-05 -0.00571686)
(2.99925 4.81192e-05 -0.0057212)
(2.99834 0.000122386 -0.00572982)
(2.99544 0.00027586 -0.00575385)
(2.99028 0.000694464 -0.00581112)
(2.97082 0.00155818 -0.00593331)
(2.93435 0.00400898 -0.00637919)
(2.79897 0.0102166 -0.0070844)
(2.40897 0.0277881 -0.0101493)
(1.5104 0.0754368 -0.0154504)
(0.598804 0.186381 -0.0185236)
(0.493133 0.193544 -0.018706)
(0.505232 0.199988 -0.0187865)
(0.483449 0.209265 -0.0189589)
(0.416143 0.220408 -0.0198176)
(0.302679 0.229713 -0.0211639)
(0.199997 0.233569 -0.0205727)
(0.125094 0.226712 -0.0182994)
(0.0502655 0.220809 -0.0178031)
(3 4.39326e-08 -0.00571424)
(3 1.96567e-07 -0.00571426)
(2.99999 7.15406e-07 -0.0057143)
(2.99998 1.77023e-06 -0.00571442)
(2.99996 4.64073e-06 -0.00571465)
(2.99988 1.04003e-05 -0.00571535)
(2.99974 2.65015e-05 -0.00571669)
(2.9993 5.90726e-05 -0.00572075)
(2.99845 0.000150853 -0.00572886)
(2.99571 0.000340807 -0.00575098)
(2.99093 0.00086148 -0.00580599)
(2.9723 0.00196214 -0.00591794)
(2.93864 0.00512934 -0.00635261)
(2.80923 0.012599 -0.00698831)
(2.44185 0.03651 -0.00998666)
(1.58292 0.09432 -0.0150801)
(0.643144 0.244638 -0.0183265)
(0.488844 0.249712 -0.0185651)
(0.510649 0.254754 -0.0186175)
(0.496756 0.267511 -0.0187436)
(0.432564 0.281978 -0.0195019)
(0.322674 0.296891 -0.0208887)
(0.21618 0.306082 -0.0204643)
(0.133598 0.299066 -0.0182165)
(0.0552543 0.29352 -0.0176236)
(3 1.18421e-07 -0.00571424)
(3 3.66452e-07 -0.00571426)
(2.99999 1.00367e-06 -0.0057143)
(2.99998 2.20044e-06 -0.00571441)
(2.99996 5.47256e-06 -0.00571462)
(2.99989 1.2013e-05 -0.00571526)
(2.99976 3.07291e-05 -0.00571649)
(2.99935 6.87784e-05 -0.00572022)
(2.99858 0.000176681 -0.00572774)
(2.99603 0.000399288 -0.00574803)
(2.99164 0.00102355 -0.00579941)
(2.9743 0.00225994 -0.00590129)
(2.94346 0.00639735 -0.00631115)
(2.82248 0.0144958 -0.00687668)
(2.4838 0.0448783 -0.00976286)
(1.6724 0.114034 -0.014621)
(0.701474 0.306145 -0.0180855)
(0.484413 0.305708 -0.0184095)
(0.52019 0.30763 -0.0184254)
(0.51625 0.323577 -0.0185089)
(0.455472 0.342329 -0.0191489)
(0.3505 0.365451 -0.0205652)
(0.239468 0.382967 -0.0203195)
(0.146547 0.378544 -0.018132)
(0.0627986 0.375426 -0.0174291)
(3 2.26189e-07 -0.00571424)
(3 5.51925e-07 -0.00571426)
(3 1.22123e-06 -0.00571429)
(2.99999 2.41323e-06 -0.00571439)
(2.99996 5.80763e-06 -0.00571458)
(2.9999 1.25345e-05 -0.00571515)
(2.99978 3.26946e-05 -0.00571626)
(2.99942 7.34633e-05 -0.00571957)
(2.99873 0.000193705 -0.00572642)
(2.99641 0.000441509 -0.00574423)
(2.99249 0.0011537 -0.00579188)
(2.97669 0.00257523 -0.00588188)
(2.9491 0.00743039 -0.00625959)
(2.83813 0.0168175 -0.00676082)
(2.53415 0.0530955 -0.0094866)
(1.78477 0.13437 -0.0140096)
(0.776215 0.369498 -0.0177469)
(0.48293 0.361413 -0.0182426)
(0.536125 0.358588 -0.0182271)
(0.543761 0.377646 -0.018273)
(0.486856 0.401588 -0.0187452)
(0.387941 0.435155 -0.0201214)
(0.272183 0.464558 -0.0200903)
(0.167068 0.468382 -0.0180597)
(0.0751289 0.471729 -0.0171593)
(3 2.73179e-07 -0.00571424)
(3 6.1389e-07 -0.00571426)
(3 1.26339e-06 -0.00571428)
(2.99999 2.42301e-06 -0.00571437)
(2.99997 5.70671e-06 -0.00571454)
(2.99992 1.21314e-05 -0.00571505)
(2.99981 3.14828e-05 -0.00571602)
(2.99949 6.9564e-05 -0.00571891)
(2.99888 0.000188924 -0.00572498)
(2.99683 0.00041318 -0.00574011)
(2.99342 0.00119281 -0.00578341)
(2.97943 0.00253393 -0.00585925)
(2.95564 0.00798461 -0.00619868)
(2.85691 0.0177841 -0.00662181)
(2.59327 0.0614911 -0.00909487)
(1.923 0.151948 -0.0131679)
(0.871782 0.431957 -0.0173243)
(0.490823 0.417522 -0.0180711)
(0.561482 0.409287 -0.0179906)
(0.580743 0.430615 -0.017973)
(0.527407 0.460349 -0.0183301)
(0.435842 0.506405 -0.0196403)
(0.318075 0.551252 -0.019805)
(0.200552 0.571928 -0.0179325)
(0.0953785 0.591299 -0.0168264)
(3 2.89214e-07 -0.00571424)
(3 6.49601e-07 -0.00571425)
(3 1.33965e-06 -0.00571428)
(2.99999 2.58402e-06 -0.00571436)
(2.99997 6.0354e-06 -0.0057145)
(2.99993 1.28612e-05 -0.00571495)
(2.99983 3.26302e-05 -0.0057158)
(2.99955 7.14602e-05 -0.00571838)
(2.99901 0.00019083 -0.00572357)
(2.99725 0.000401634 -0.00573722)
(2.99426 0.00121693 -0.00577394)
(2.98226 0.00238754 -0.00583988)
(2.96212 0.00823555 -0.00612922)
(2.87874 0.0170985 -0.00649045)
(2.66005 0.0655008 -0.00858481)
(2.08595 0.159183 -0.0120966)
(0.996886 0.47946 -0.0168469)
(0.518841 0.470618 -0.017857)
(0.598671 0.462313 -0.0177142)
(0.626526 0.482754 -0.0176516)
(0.577086 0.51939 -0.0179178)
(0.494842 0.578746 -0.0191064)
(0.381479 0.643928 -0.0194382)
(0.257489 0.692216 -0.0177956)
(0.132173 0.749098 -0.0162781)
(3 2.50448e-07 -0.00571424)
(3 5.40902e-07 -0.00571425)
(3 1.46244e-06 -0.00571427)
(2.99999 2.09449e-06 -0.00571434)
(2.99998 7.0292e-06 -0.00571446)
(2.99994 1.04339e-05 -0.00571484)
(2.99986 3.87551e-05 -0.00571557)
(2.99962 5.6965e-05 -0.00571774)
(2.99916 0.000226033 -0.00572215)
(2.99769 0.000299295 -0.00573424)
(2.99508 0.00145306 -0.00576374)
(2.9852 0.00133629 -0.0058243)
(2.96816 0.0105151 -0.00605487)
(2.90102 0.00878656 -0.00638536)
(2.72742 0.0741943 -0.0080058)
(2.25797 0.133553 -0.011255)
(1.15148 0.476439 -0.0159914)
(0.583608 0.514837 -0.0173972)
(0.646906 0.524429 -0.0173314)
(0.675049 0.535804 -0.0173453)
(0.632622 0.579016 -0.0175206)
(0.564953 0.650046 -0.0184743)
(0.467872 0.740871 -0.0189507)
(0.355491 0.840741 -0.0174539)
(0.201782 1.00157 -0.0154068)
(3 3.57358e-09 -2.91548e-09)
(3 1.98894e-08 -7.6588e-09)
(2.99999 7.16755e-08 -1.07411e-08)
(2.99998 1.84443e-07 -1.58853e-08)
(2.99995 4.86634e-07 -1.64027e-08)
(2.99986 1.10099e-06 -2.08836e-08)
(2.99969 2.7492e-06 -2.12129e-08)
(2.99918 5.98879e-06 -2.57525e-08)
(2.99819 1.53576e-05 -2.70044e-08)
(2.99503 3.18884e-05 -3.53889e-08)
(2.98948 9.19529e-05 -4.08632e-08)
(2.96838 0.000181087 -7.54957e-08)
(2.92805 0.000562108 -8.2324e-08)
(2.78398 0.00137316 -2.83352e-07)
(2.35744 0.00365527 -2.94966e-07)
(1.3975 0.0106106 -1.13985e-06)
(0.532596 0.0252372 -6.30004e-07)
(0.498663 0.028665 8.70462e-08)
(0.50289 0.0318833 3.16118e-08)
(0.471564 0.0345927 1.05132e-08)
(0.398358 0.0372271 1.05668e-08)
(0.279886 0.0394456 1.55429e-08)
(0.182182 0.040923 -2.76846e-08)
(0.116586 0.0415481 -1.00959e-07)
(0.0438981 0.0401976 -1.45963e-07)
(3 1.10083e-08 -2.93398e-09)
(3 6.05694e-08 -7.62707e-09)
(2.99999 2.20769e-07 -1.07724e-08)
(2.99998 5.68513e-07 -1.591e-08)
(2.99995 1.51576e-06 -1.64514e-08)
(2.99986 3.45336e-06 -2.09509e-08)
(2.99969 8.63e-06 -2.12661e-08)
(2.99919 1.88611e-05 -2.57808e-08)
(2.99821 4.79183e-05 -2.69022e-08)
(2.99509 9.84072e-05 -3.45011e-08)
(2.98961 0.000287776 -4.1344e-08)
(2.96876 0.000537817 -7.19568e-08)
(2.92908 0.00177346 -8.67589e-08)
(2.78631 0.00416199 -2.76205e-07)
(2.36559 0.0114437 -3.10953e-07)
(1.4145 0.0327689 -1.10664e-06)
(0.541744 0.0755386 -6.33612e-07)
(0.496697 0.0805582 8.62926e-08)
(0.501464 0.0849987 2.70202e-08)
(0.471222 0.0884553 6.63164e-09)
(0.399066 0.0922977 8.91014e-09)
(0.281682 0.094629 1.42559e-08)
(0.183385 0.0946353 -2.58314e-08)
(0.117035 0.0916118 -1.04843e-07)
(0.0452779 0.0879175 -1.39101e-07)
(3 1.82427e-08 -2.96849e-09)
(3 9.91762e-08 -7.56706e-09)
(2.99999 3.67846e-07 -1.08385e-08)
(2.99998 9.46067e-07 -1.59679e-08)
(2.99995 2.58596e-06 -1.65791e-08)
(2.99987 5.94745e-06 -2.11485e-08)
(2.9997 1.52023e-05 -2.15291e-08)
(2.99921 3.38114e-05 -2.61989e-08)
(2.99826 8.55204e-05 -2.71963e-08)
(2.99523 0.000183265 -3.39554e-08)
(2.98985 0.000499989 -4.30725e-08)
(2.96959 0.000978501 -5.83868e-08)
(2.93118 0.00301302 -1.09822e-07)
(2.7913 0.00706975 -2.28037e-07)
(2.38316 0.0196958 -3.61417e-07)
(1.45216 0.0553509 -1.06674e-06)
(0.56417 0.130579 -6.51455e-07)
(0.495338 0.1371 8.43026e-08)
(0.502291 0.143161 1.90175e-08)
(0.475002 0.149074 -5.15472e-10)
(0.404848 0.15668 5.82921e-09)
(0.289157 0.16192 1.07143e-08)
(0.189234 0.16292 -3.14253e-08)
(0.119723 0.157521 -9.94478e-08)
(0.0472113 0.15225 -1.29525e-07)
(3 2.45402e-08 -3.01215e-09)
(3 1.33173e-07 -7.49555e-09)
(2.99999 4.95915e-07 -1.09465e-08)
(2.99998 1.27332e-06 -1.60828e-08)
(2.99995 3.52049e-06 -1.68005e-08)
(2.99987 8.11483e-06 -2.14837e-08)
(2.99972 2.11611e-05 -2.20298e-08)
(2.99925 4.76441e-05 -2.71135e-08)
(2.99834 0.00012182 -2.85875e-08)
(2.99544 0.000275167 -3.86677e-08)
(2.99027 0.000693903 -4.27206e-08)
(2.97081 0.00155658 -8.41375e-08)
(2.93433 0.00400967 -7.23919e-08)
(2.79895 0.0102143 -3.04355e-07)
(2.4089 0.0277893 -2.0496e-07)
(1.51019 0.0754559 -1.15892e-06)
(0.598743 0.186376 -6.3783e-07)
(0.493201 0.193541 8.6721e-08)
(0.505272 0.199991 1.40799e-08)
(0.483468 0.209272 -2.13272e-08)
(0.416162 0.22042 8.32074e-09)
(0.302697 0.229725 1.2014e-08)
(0.200007 0.233575 -3.35603e-08)
(0.1251 0.226711 -9.01357e-08)
(0.0502679 0.220803 -1.22276e-07)
(3 2.99885e-08 -3.07213e-09)
(3 1.62159e-07 -7.44241e-09)
(2.99999 6.04535e-07 -1.11485e-08)
(2.99998 1.55262e-06 -1.6331e-08)
(2.99995 4.29715e-06 -1.71272e-08)
(2.99988 9.91689e-06 -2.19333e-08)
(2.99973 2.5904e-05 -2.24056e-08)
(2.9993 5.83898e-05 -2.7416e-08)
(2.99845 0.000150141 -2.8634e-08)
(2.99571 0.000340195 -3.8077e-08)
(2.99092 0.000860894 -4.18484e-08)
(2.97229 0.00196262 -9.21313e-08)
(2.93862 0.00512751 -5.4522e-08)
(2.8092 0.0126045 -3.09103e-07)
(2.44177 0.0365023 -2.45349e-07)
(1.58276 0.0943349 -8.91209e-07)
(0.64309 0.244621 -6.92549e-07)
(0.488918 0.249708 8.54975e-08)
(0.510687 0.254761 9.4212e-13)
(0.496772 0.267523 -2.11392e-08)
(0.432582 0.281993 -3.20982e-10)
(0.322694 0.296904 1.70385e-08)
(0.216194 0.306091 -2.49008e-08)
(0.133605 0.29907 -7.85788e-08)
(0.0552565 0.293517 -1.15588e-07)
(3 3.35876e-08 -3.15312e-09)
(3 1.80017e-07 -7.43904e-09)
(2.99999 6.79147e-07 -1.1433e-08)
(2.99998 1.74226e-06 -1.67078e-08)
(2.99996 4.89694e-06 -1.75431e-08)
(2.99989 1.13406e-05 -2.25082e-08)
(2.99976 3.00076e-05 -2.30196e-08)
(2.99935 6.80318e-05 -2.82507e-08)
(2.99857 0.000175949 -2.94691e-08)
(2.99603 0.00039862 -3.78658e-08)
(2.99163 0.00102297 -4.28683e-08)
(2.97429 0.0022601 -7.06831e-08)
(2.94345 0.00639601 -1.03576e-07)
(2.82245 0.0144996 -2.0792e-07)
(2.48372 0.0448749 -3.51847e-07)
(1.67224 0.114035 -8.50571e-07)
(0.701412 0.30612 -7.52926e-07)
(0.484487 0.305704 1.27112e-07)
(0.520222 0.30764 9.02039e-09)
(0.51626 0.323593 -2.84685e-08)
(0.455487 0.342347 -1.16692e-08)
(0.350517 0.365464 2.95077e-08)
(0.239483 0.382976 -1.86913e-08)
(0.146555 0.378549 -5.95998e-08)
(0.0628003 0.375428 -9.87568e-08)
(3 3.45015e-08 -4.19949e-09)
(3 1.8487e-07 -8.4439e-09)
(2.99999 7.0143e-07 -1.26267e-08)
(2.99998 1.79366e-06 -1.78738e-08)
(2.99996 5.11179e-06 -1.861e-08)
(2.9999 1.18124e-05 -2.34841e-08)
(2.99978 3.19698e-05 -2.35509e-08)
(2.99942 7.27672e-05 -2.855e-08)
(2.99872 0.000193044 -2.94303e-08)
(2.99641 0.000440919 -3.78516e-08)
(2.99248 0.00115323 -4.24736e-08)
(2.97668 0.00257488 -7.06965e-08)
(2.94909 0.00743023 -1.04294e-07)
(2.8381 0.0168175 -1.93344e-07)
(2.53407 0.0530957 -3.79703e-07)
(1.78461 0.134371 -8.48572e-07)
(0.776143 0.369475 -8.36295e-07)
(0.482999 0.361408 1.81347e-07)
(0.536147 0.3586 3.37995e-08)
(0.543762 0.377665 -3.08646e-08)
(0.486864 0.401605 -1.83661e-08)
(0.387958 0.435167 2.18695e-08)
(0.272197 0.464568 -1.13478e-08)
(0.167074 0.468389 -5.2256e-08)
(0.0751314 0.471736 -8.8156e-08)
(3 3.4276e-08 -6.56828e-09)
(3 1.85621e-07 -1.03655e-08)
(2.99999 6.94603e-07 -1.40926e-08)
(2.99999 1.77403e-06 -1.87905e-08)
(2.99997 4.98193e-06 -1.94386e-08)
(2.99991 1.13968e-05 -2.39255e-08)
(2.99981 3.0723e-05 -2.38044e-08)
(2.99949 6.88631e-05 -2.85174e-08)
(2.99888 0.00018828 -2.9464e-08)
(2.99683 0.000412755 -3.77847e-08)
(2.99342 0.00119256 -4.20521e-08)
(2.97943 0.00253439 -7.22117e-08)
(2.95562 0.00798561 -1.05976e-07)
(2.85688 0.0177864 -2.07847e-07)
(2.59318 0.0614944 -3.66186e-07)
(1.92283 0.151954 -8.8515e-07)
(0.871704 0.431934 -9.80626e-07)
(0.490877 0.417518 2.20959e-07)
(0.561492 0.409299 7.16577e-08)
(0.580737 0.430633 -2.08231e-08)
(0.52741 0.460365 -1.54293e-08)
(0.435856 0.506413 9.15946e-09)
(0.318091 0.551261 -1.89419e-08)
(0.200559 0.57194 -5.06174e-08)
(0.0953817 0.591312 -7.9667e-08)
(3 3.67742e-08 -9.06928e-09)
(3 2.01137e-07 -1.2405e-08)
(3 7.46089e-07 -1.56941e-08)
(2.99999 1.91176e-06 -1.97986e-08)
(2.99997 5.28672e-06 -2.03779e-08)
(2.99992 1.21041e-05 -2.40718e-08)
(2.99983 3.18428e-05 -2.43191e-08)
(2.99955 7.07133e-05 -2.79291e-08)
(2.99901 0.000190102 -2.89102e-08)
(2.99724 0.000400925 -3.50502e-08)
(2.99426 0.00121643 -4.08101e-08)
(2.98225 0.0023864 -6.25254e-08)
(2.96211 0.00823754 -1.02713e-07)
(2.87871 0.0170997 -1.93847e-07)
(2.65997 0.0655106 -3.96815e-07)
(2.08576 0.159201 -9.33997e-07)
(0.996788 0.479455 -1.30969e-06)
(0.51887 0.470625 2.06902e-07)
(0.59867 0.462323 9.08614e-08)
(0.626517 0.482768 3.07584e-09)
(0.577089 0.519401 -1.16629e-09)
(0.494857 0.57875 -4.40119e-10)
(0.381499 0.643934 -1.46301e-08)
(0.257499 0.692231 -4.29994e-08)
(0.132178 0.749115 -6.69574e-08)
(3 5.72148e-08 -1.17676e-08)
(3 1.42248e-07 -1.45442e-08)
(3 8.96753e-07 -1.73466e-08)
(2.99999 1.50772e-06 -2.07651e-08)
(2.99998 6.2814e-06 -2.12819e-08)
(2.99994 9.73611e-06 -2.44117e-08)
(2.99986 3.79515e-05 -2.47503e-08)
(2.99962 5.6269e-05 -2.8099e-08)
(2.99915 0.000225287 -2.94068e-08)
(2.99768 0.000298738 -3.7405e-08)
(2.99508 0.00145251 -3.93029e-08)
(2.9852 0.00133647 -8.29824e-08)
(2.96815 0.0105162 -6.06425e-08)
(2.90099 0.00879168 -2.29145e-07)
(2.72735 0.0742051 -3.3699e-07)
(2.25779 0.133601 -9.79372e-07)
(1.15137 0.476521 -1.68634e-06)
(0.583619 0.514856 1.09893e-07)
(0.646913 0.524425 4.85319e-08)
(0.675057 0.535811 5.39829e-08)
(0.632637 0.57902 1.42055e-08)
(0.564974 0.650048 2.86404e-09)
(0.467898 0.740876 -2.24761e-08)
(0.355508 0.840757 -4.56991e-08)
(0.201789 1.00159 -4.68193e-08)
(3 3.57356e-09 -3.32461e-13)
(3 1.98892e-08 -1.88169e-12)
(2.99999 7.16751e-08 -3.81007e-12)
(2.99998 1.84442e-07 -7.87126e-12)
(2.99995 4.86633e-07 -1.26043e-11)
(2.99986 1.10099e-06 -2.17896e-11)
(2.99969 2.74919e-06 -3.63827e-11)
(2.99918 5.98878e-06 -6.35717e-11)
(2.99819 1.53575e-05 -1.25181e-10)
(2.99503 3.18881e-05 -2.37516e-10)
(2.98948 9.19528e-05 -5.01631e-10)
(2.96838 0.000181084 -1.09056e-09)
(2.92805 0.000562108 -1.89625e-09)
(2.78398 0.00137314 -5.70341e-09)
(2.35744 0.00365526 -7.23545e-09)
(1.3975 0.0106105 -1.99659e-08)
(0.532596 0.0252371 -9.94084e-09)
(0.498662 0.0286648 -2.16171e-10)
(0.50289 0.0318831 -2.01147e-09)
(0.471564 0.0345924 7.5721e-10)
(0.398362 0.0372267 8.16117e-09)
(0.279896 0.0394451 4.0809e-09)
(0.182192 0.0409238 7.63381e-09)
(0.116587 0.041549 -3.23544e-08)
(0.0438944 0.0401922 -4.21976e-08)
(3 1.10082e-08 -3.37127e-13)
(3 6.05683e-08 -1.90357e-12)
(2.99999 2.20766e-07 -3.87275e-12)
(2.99998 5.68506e-07 -8.01797e-12)
(2.99995 1.51575e-06 -1.28261e-11)
(2.99986 3.45334e-06 -2.21929e-11)
(2.99969 8.62999e-06 -3.63223e-11)
(2.99919 1.88611e-05 -6.22787e-11)
(2.99821 4.79182e-05 -1.22917e-10)
(2.99509 9.84073e-05 -2.16932e-10)
(2.98961 0.000287776 -5.30832e-10)
(2.96876 0.000537812 -1.03934e-09)
(2.92908 0.00177346 -2.1211e-09)
(2.78631 0.00416195 -5.81973e-09)
(2.3656 0.0114436 -8.19194e-09)
(1.41451 0.0327686 -2.05862e-08)
(0.541744 0.0755381 -1.0927e-08)
(0.496696 0.0805576 -1.63132e-10)
(0.501464 0.0849977 -2.53362e-09)
(0.471224 0.0884538 -9.73342e-12)
(0.39907 0.0922954 7.2176e-09)
(0.281692 0.0946255 4.98767e-09)
(0.183397 0.094634 9.5589e-09)
(0.117043 0.0916158 -2.6099e-08)
(0.0452836 0.0879235 -3.91924e-08)
(3 1.82423e-08 -3.44344e-13)
(3 9.91738e-08 -1.92898e-12)
(2.99999 3.67838e-07 -3.99722e-12)
(2.99998 9.46046e-07 -8.30734e-12)
(2.99995 2.58592e-06 -1.36907e-11)
(2.99987 5.94737e-06 -2.41464e-11)
(2.9997 1.52022e-05 -4.006e-11)
(2.99921 3.38112e-05 -6.90332e-11)
(2.99826 8.55202e-05 -1.31184e-10)
(2.99523 0.000183266 -2.04798e-10)
(2.98985 0.000499987 -6.16119e-10)
(2.96959 0.000978505 -7.02556e-10)
(2.93118 0.003013 -3.06274e-09)
(2.7913 0.00706973 -4.97939e-09)
(2.38316 0.0196955 -1.08987e-08)
(1.45216 0.0553505 -2.26544e-08)
(0.56417 0.130579 -1.36981e-08)
(0.495337 0.137099 -1.46988e-10)
(0.50229 0.14316 -3.57719e-09)
(0.475002 0.149072 -1.63231e-09)
(0.40485 0.156676 5.16234e-09)
(0.289163 0.161915 6.61978e-09)
(0.18924 0.162919 8.24344e-09)
(0.119727 0.157528 -1.75032e-08)
(0.0472155 0.152264 -3.49972e-08)
(3 2.45396e-08 -3.43815e-13)
(3 1.33169e-07 -1.9261e-12)
(2.99999 4.95901e-07 -4.01736e-12)
(2.99998 1.27328e-06 -8.34387e-12)
(2.99995 3.5204e-06 -1.42055e-11)
(2.99987 8.11467e-06 -2.53961e-11)
(2.99972 2.11608e-05 -4.60153e-11)
(2.99925 4.76435e-05 -8.44228e-11)
(2.99834 0.000121819 -1.68916e-10)
(2.99544 0.000275166 -3.44646e-10)
(2.99028 0.000693898 -6.59919e-10)
(2.97081 0.00155657 -1.48911e-09)
(2.93433 0.00400964 -2.48286e-09)
(2.79895 0.0102142 -7.78182e-09)
(2.4089 0.0277891 -8.67799e-09)
(1.51019 0.0754554 -3.02104e-08)
(0.598742 0.186375 -1.72184e-08)
(0.493199 0.193539 2.87152e-10)
(0.505271 0.199989 -4.91627e-09)
(0.483467 0.209269 -3.72995e-09)
(0.416162 0.220415 2.19741e-09)
(0.302699 0.22972 9.08121e-09)
(0.200008 0.233573 1.02659e-08)
(0.1251 0.226719 -1.65599e-08)
(0.0502696 0.220822 -2.95149e-08)
(3 2.99874e-08 -3.48937e-13)
(3 1.62151e-07 -1.95566e-12)
(2.99999 6.04508e-07 -4.06995e-12)
(2.99998 1.55255e-06 -8.4606e-12)
(2.99995 4.29701e-06 -1.4173e-11)
(2.99988 9.91662e-06 -2.51302e-11)
(2.99973 2.59035e-05 -4.45187e-11)
(2.9993 5.83889e-05 -8.02053e-11)
(2.99845 0.000150139 -1.67272e-10)
(2.99571 0.000340191 -3.37995e-10)
(2.99092 0.000860888 -7.09919e-10)
(2.97229 0.0019626 -1.83177e-09)
(2.93862 0.00512749 -2.46289e-09)
(2.8092 0.0126043 -9.09952e-09)
(2.44177 0.0365022 -1.18114e-08)
(1.58276 0.0943344 -3.08371e-08)
(0.643088 0.24462 -2.45698e-08)
(0.488917 0.249707 3.38426e-10)
(0.510686 0.254759 -6.71319e-09)
(0.49677 0.26752 -4.86166e-09)
(0.432581 0.281989 1.20417e-09)
(0.322692 0.296901 1.12779e-08)
(0.216191 0.306088 1.20474e-08)
(0.133604 0.299076 -8.22494e-09)
(0.055257 0.293535 -2.32426e-08)
(3 3.35842e-08 -3.56364e-13)
(3 1.7999e-07 -1.99522e-12)
(2.99999 6.7908e-07 -4.18479e-12)
(2.99998 1.74211e-06 -8.701e-12)
(2.99996 4.89668e-06 -1.47288e-11)
(2.99989 1.13402e-05 -2.63106e-11)
(2.99976 3.00069e-05 -4.67985e-11)
(2.99935 6.80307e-05 -8.48759e-11)
(2.99857 0.000175947 -1.72809e-10)
(2.99603 0.000398617 -3.27754e-10)
(2.99163 0.00102297 -7.72289e-10)
(2.97429 0.00226008 -1.41056e-09)
(2.94345 0.00639598 -3.88603e-09)
(2.82245 0.0144994 -7.33536e-09)
(2.48372 0.0448748 -1.83141e-08)
(1.67224 0.114035 -3.69241e-08)
(0.70141 0.306119 -3.45599e-08)
(0.484485 0.305703 3.17674e-09)
(0.52022 0.307638 -6.42604e-09)
(0.516258 0.323591 -5.70037e-09)
(0.455485 0.342344 2.93676e-10)
(0.350514 0.365462 1.41266e-08)
(0.239477 0.382973 1.78647e-08)
(0.146553 0.378553 -1.0507e-08)
(0.0627999 0.375443 -2.39753e-08)
(3 3.44949e-08 -3.84282e-13)
(3 1.8482e-07 -2.2086e-12)
(2.99999 7.01321e-07 -4.44501e-12)
(2.99998 1.79343e-06 -9.25726e-12)
(2.99996 5.11142e-06 -1.52835e-11)
(2.9999 1.18118e-05 -2.7437e-11)
(2.99978 3.1969e-05 -4.87014e-11)
(2.99942 7.27658e-05 -9.02431e-11)
(2.99872 0.000193041 -1.89544e-10)
(2.99641 0.000440916 -3.8053e-10)
(2.99248 0.00115323 -8.52043e-10)
(2.97668 0.00257487 -1.72433e-09)
(2.94909 0.0074302 -4.46559e-09)
(2.8381 0.0168175 -8.42929e-09)
(2.53407 0.0530955 -2.10419e-08)
(1.7846 0.134371 -4.4889e-08)
(0.776141 0.369474 -4.64055e-08)
(0.482997 0.361407 7.64432e-09)
(0.536146 0.358599 -4.03705e-09)
(0.54376 0.377663 -6.48299e-09)
(0.486863 0.401604 -2.98178e-09)
(0.387952 0.435166 1.75769e-08)
(0.272188 0.464564 1.45568e-08)
(0.167072 0.46839 -8.63585e-09)
(0.0751304 0.471748 -1.82265e-08)
(3 3.42677e-08 -4.46014e-13)
(3 1.85561e-07 -2.62715e-12)
(2.99999 6.94476e-07 -4.84278e-12)
(2.99999 1.77378e-06 -9.89862e-12)
(2.99997 4.98152e-06 -1.52143e-11)
(2.99991 1.13962e-05 -2.64508e-11)
(2.99981 3.0722e-05 -4.49725e-11)
(2.99949 6.88614e-05 -8.1233e-11)
(2.99888 0.000188277 -1.80371e-10)
(2.99683 0.000412749 -3.50792e-10)
(2.99342 0.00119255 -8.92862e-10)
(2.97943 0.00253437 -1.74062e-09)
(2.95562 0.00798558 -5.11998e-09)
(2.85688 0.0177864 -9.4293e-09)
(2.59318 0.0614942 -2.73491e-08)
(1.92283 0.151953 -5.32365e-08)
(0.871702 0.431933 -6.57666e-08)
(0.490875 0.417517 1.17797e-08)
(0.56149 0.409297 4.17576e-11)
(0.580734 0.430632 -6.4042e-09)
(0.527408 0.460364 -5.75381e-09)
(0.435851 0.506413 1.78768e-08)
(0.318081 0.551259 2.77547e-08)
(0.200555 0.571937 -9.99973e-09)
(0.0953806 0.591319 -1.69831e-08)
(3 3.67656e-08 -5.27648e-13)
(3 2.01074e-07 -3.13878e-12)
(3 7.45956e-07 -5.45972e-12)
(2.99999 1.91149e-06 -1.09773e-11)
(2.99997 5.2863e-06 -1.57058e-11)
(2.99992 1.21034e-05 -2.57118e-11)
(2.99983 3.18418e-05 -3.89313e-11)
(2.99955 7.07118e-05 -6.22949e-11)
(2.99901 0.0001901 -1.36406e-10)
(2.99724 0.00040092 -1.94995e-10)
(2.99426 0.00121642 -8.41766e-10)
(2.98225 0.00238638 -1.06632e-09)
(2.96211 0.00823751 -5.19209e-09)
(2.87871 0.0170997 -8.38826e-09)
(2.65997 0.0655105 -3.41485e-08)
(2.08575 0.159201 -6.44266e-08)
(0.996785 0.479454 -1.01638e-07)
(0.518867 0.470624 1.16345e-08)
(0.598668 0.462321 2.69727e-09)
(0.626515 0.482767 -4.36613e-09)
(0.577087 0.519401 -6.06265e-09)
(0.494852 0.57875 2.12428e-08)
(0.381487 0.643934 2.78091e-08)
(0.257493 0.692224 -1.45177e-08)
(0.132177 0.749119 -1.77155e-08)
(3 5.71931e-08 -6.10757e-13)
(3 1.42216e-07 -3.6863e-12)
(3 8.96591e-07 -6.17341e-12)
(2.99999 1.50754e-06 -1.22629e-11)
(2.99998 6.28098e-06 -1.72872e-11)
(2.99994 9.73571e-06 -2.8264e-11)
(2.99986 3.79508e-05 -4.17759e-11)
(2.99962 5.62686e-05 -6.69931e-11)
(2.99915 0.000225287 -1.26473e-10)
(2.99768 0.000298739 -1.49679e-10)
(2.99508 0.00145251 -7.77326e-10)
(2.9852 0.00133648 -6.82792e-11)
(2.96815 0.0105162 -6.73707e-09)
(2.90099 0.00879166 -5.10481e-09)
(2.72735 0.0742052 -3.92712e-08)
(2.25778 0.133601 -7.58907e-08)
(1.15137 0.476522 -1.47817e-07)
(0.583615 0.514855 3.66221e-09)
(0.646911 0.524424 -5.13788e-10)
(0.675054 0.535811 2.08875e-09)
(0.632634 0.579021 -3.27352e-09)
(0.56497 0.650048 1.13342e-08)
(0.467885 0.740875 2.70383e-08)
(0.355499 0.840748 -3.02956e-08)
(0.20179 1.00159 -5.14929e-09)
(3 3.57341e-09 5.85596e-15)
(3 1.98886e-08 2.53308e-14)
(2.99999 7.16725e-08 8.52629e-14)
(2.99998 1.84435e-07 2.04361e-13)
(2.99995 4.86614e-07 4.0982e-13)
(2.99986 1.10094e-06 9.42122e-13)
(2.99969 2.74911e-06 3.23507e-13)
(2.99918 5.98862e-06 6.11932e-14)
(2.99819 1.53573e-05 -1.47727e-11)
(2.99503 3.18886e-05 -4.19911e-11)
(2.98948 9.19503e-05 -1.58484e-10)
(2.96838 0.00018109 -4.49653e-10)
(2.92805 0.000562089 -1.36427e-09)
(2.78398 0.00137315 -4.84924e-09)
(2.35744 0.00365518 -1.15733e-08)
(1.3975 0.0106105 -4.0005e-08)
(0.532595 0.0252367 -4.62267e-08)
(0.498667 0.0286645 -1.50542e-08)
(0.502893 0.031883 -1.2214e-08)
(0.471567 0.0345925 -1.23026e-08)
(0.398365 0.0372266 -1.6134e-08)
(0.279899 0.0394446 -1.67899e-08)
(0.182193 0.0409226 -1.90555e-08)
(0.11659 0.0415487 -1.33822e-08)
(0.0439001 0.0401967 -1.18167e-08)
(3 1.1008e-08 4.45102e-15)
(3 6.05681e-08 1.91341e-14)
(2.99999 2.20762e-07 6.85574e-14)
(2.99998 5.68495e-07 1.62302e-13)
(2.99995 1.5157e-06 3.88862e-13)
(2.99986 3.4532e-06 9.25543e-13)
(2.99969 8.62963e-06 9.68345e-13)
(2.99919 1.88603e-05 2.0845e-12)
(2.99821 4.79165e-05 -9.67868e-12)
(2.99509 9.84044e-05 -2.01565e-11)
(2.98961 0.000287766 -1.59694e-10)
(2.96876 0.000537819 -3.50482e-10)
(2.92908 0.00177339 -1.46403e-09)
(2.78631 0.00416197 -4.60341e-09)
(2.36559 0.0114434 -1.18352e-08)
(1.4145 0.0327684 -3.95013e-08)
(0.541743 0.0755372 -4.64999e-08)
(0.496701 0.0805569 -1.52156e-08)
(0.501467 0.0849975 -1.21472e-08)
(0.471226 0.0884539 -1.22914e-08)
(0.399073 0.0922956 -1.56611e-08)
(0.281694 0.0946254 -1.63764e-08)
(0.183398 0.0946325 -1.59991e-08)
(0.117043 0.0916139 -1.47439e-08)
(0.0452854 0.0879256 -1.43263e-08)
(3 1.82425e-08 2.89636e-15)
(3 9.91756e-08 1.50832e-14)
(2.99999 3.67841e-07 4.16541e-14)
(2.99998 9.46057e-07 9.59154e-14)
(2.99995 2.58591e-06 2.02855e-13)
(2.99987 5.94733e-06 4.84999e-13)
(2.9997 1.52019e-05 5.43222e-13)
(2.99921 3.38102e-05 1.77778e-12)
(2.99826 8.55176e-05 -6.50713e-12)
(2.99523 0.000183256 3.77878e-12)
(2.98985 0.000499978 -1.7128e-10)
(2.96959 0.000978452 -8.71054e-11)
(2.93118 0.00301299 -1.83424e-09)
(2.79129 0.00706955 -3.71901e-09)
(2.38315 0.0196956 -1.24941e-08)
(1.45216 0.05535 -3.88613e-08)
(0.564169 0.130577 -4.73047e-08)
(0.495342 0.137098 -1.54502e-08)
(0.502294 0.143159 -1.2266e-08)
(0.475004 0.149072 -1.2386e-08)
(0.404853 0.156677 -1.46834e-08)
(0.289166 0.161916 -1.53931e-08)
(0.18924 0.162918 -1.1663e-08)
(0.119726 0.157527 -1.52472e-08)
(0.0472163 0.152266 -1.60942e-08)
(3 2.454e-08 4.11092e-15)
(3 1.33171e-07 2.16459e-14)
(2.99999 4.95909e-07 5.45514e-14)
(2.99998 1.2733e-06 1.27199e-13)
(2.99995 3.52045e-06 2.03545e-13)
(2.99987 8.11478e-06 4.537e-13)
(2.99972 2.1161e-05 -4.99874e-14)
(2.99925 4.76438e-05 -1.16587e-13)
(2.99834 0.000121819 -1.09325e-11)
(2.99544 0.000275163 -2.06684e-11)
(2.99027 0.000693897 -1.54661e-10)
(2.97081 0.00155653 -2.43875e-10)
(2.93433 0.00400965 -1.54761e-09)
(2.79895 0.0102141 -3.76569e-09)
(2.40889 0.0277889 -1.24207e-08)
(1.51018 0.0754549 -3.79192e-08)
(0.598741 0.186373 -4.85785e-08)
(0.493204 0.193538 -1.55685e-08)
(0.505275 0.199989 -1.23198e-08)
(0.483469 0.20927 -1.19568e-08)
(0.416164 0.220416 -1.29955e-08)
(0.302702 0.229721 -1.44304e-08)
(0.200009 0.233572 -1.04906e-08)
(0.125099 0.226718 -1.60028e-08)
(0.0502695 0.220824 -1.62944e-08)
(3 2.99878e-08 4.41811e-15)
(3 1.62154e-07 2.24874e-14)
(2.99999 6.04517e-07 5.76091e-14)
(2.99998 1.55258e-06 1.34618e-13)
(2.99995 4.29707e-06 2.08939e-13)
(2.99988 9.91674e-06 4.56324e-13)
(2.99973 2.59038e-05 -4.82815e-14)
(2.9993 5.83896e-05 -1.39322e-13)
(2.99845 0.000150141 -9.85837e-12)
(2.99571 0.000340196 -1.72862e-11)
(2.99092 0.000860889 -1.42958e-10)
(2.97229 0.00196263 -2.11606e-10)
(2.93862 0.00512743 -1.5192e-09)
(2.8092 0.0126045 -3.19377e-09)
(2.44177 0.0365015 -1.32199e-08)
(1.58276 0.0943336 -3.46346e-08)
(0.643087 0.244616 -5.09792e-08)
(0.488922 0.249705 -1.5692e-08)
(0.510689 0.254759 -1.15676e-08)
(0.496771 0.267521 -1.13959e-08)
(0.432583 0.28199 -1.06522e-08)
(0.322695 0.296901 -1.521e-08)
(0.21619 0.306088 -1.14528e-08)
(0.133603 0.299074 -1.84063e-08)
(0.0552572 0.293536 -1.3079e-08)
(3 3.35852e-08 3.63529e-15)
(3 1.79996e-07 1.68728e-14)
(2.99999 6.791e-07 5.10756e-14)
(2.99998 1.74216e-06 1.22285e-13)
(2.99996 4.89679e-06 2.24407e-13)
(2.99989 1.13404e-05 5.27082e-13)
(2.99976 3.00073e-05 1.12352e-13)
(2.99935 6.80315e-05 2.44402e-13)
(2.99857 0.000175948 -1.00091e-11)
(2.99603 0.000398618 -2.00566e-11)
(2.99163 0.00102297 -1.39534e-10)
(2.97429 0.00226009 -2.58791e-10)
(2.94345 0.00639592 -1.49063e-09)
(2.82245 0.0144995 -3.14204e-09)
(2.48372 0.0448742 -1.29019e-08)
(1.67223 0.114034 -3.40212e-08)