/*--------------------------------*- C++ -*----------------------------------*\
| =========                 |                                                 |
| \\      /  F ield         | OpenFOAM: The Open Source CFD Toolbox           |
|  \\    /   O peration     | Version:  4.1                                   |
|   \\  /    A nd           | Web:      www.OpenFOAM.org                      |
|    \\/     M anipulation  |                                                 |
\*---------------------------------------------------------------------------*/
FoamFile
{
    version     2.0;
    format      ascii;
    class       volScalarField;
    location    "3.64";
    object      p;
}
// * * * * * * * * * * * * * * * * * * * * * * * * * * * * * * * * * * * * * //

dimensions      [1 -1 -2 0 0 0 0];

internalField   nonuniform List<scalar> 
52500
(
1.00001
1.00003
1.0001
1.00022
1.00064
1.00131
1.00377
1.0074
1.0229
1.04082
1.14892
1.26123
2.01272
3.35739
8.07486
11.5843
11.2151
10.9718
11.0501
11.2746
11.5115
11.657
11.7653
11.8525
11.9185
1.00001
1.00003
1.0001
1.00022
1.00063
1.0013
1.00372
1.00731
1.02258
1.04029
1.14677
1.25743
1.99599
3.31868
7.97054
11.593
11.2123
10.961
11.0404
11.2662
11.5029
11.6484
11.7582
11.8468
11.9144
1.00001
1.00003
1.0001
1.00021
1.00062
1.00126
1.00361
1.00712
1.02192
1.03922
1.14232
1.24963
1.9604
3.23529
7.73639
11.6103
11.2026
10.9293
11.0079
11.2321
11.466
11.609
11.7182
11.806
11.8736
1.00001
1.00003
1.00009
1.0002
1.00059
1.00121
1.00346
1.00684
1.02093
1.03759
1.13561
1.23793
1.90697
3.10971
7.37471
11.6384
11.1892
10.8775
10.9527
11.1714
11.4009
11.539
11.6445
11.7299
11.7982
1.00001
1.00002
1.00009
1.00019
1.00056
1.00116
1.0033
1.00661
1.0196
1.0367
1.12473
1.22569
1.83331
2.94618
6.88709
11.6675
11.174
10.8084
10.8773
11.0858
11.3098
11.4411
11.541
11.6228
11.6922
1.00001
1.00002
1.00008
1.00018
1.00053
1.00108
1.00308
1.00621
1.01805
1.03509
1.11248
1.2104
1.7491
2.75519
6.29616
11.6665
11.1505
10.7242
10.7831
10.9743
11.1893
11.3093
11.3982
11.4724
11.5435
1
1.00002
1.00008
1.00017
1.00048
1.00099
1.00282
1.0057
1.01644
1.03234
1.10085
1.19307
1.66261
2.55292
5.64167
11.5728
11.0875
10.6226
10.6693
10.8342
11.0331
11.1364
11.207
11.2634
11.3284
1
1.00002
1.00007
1.00015
1.00044
1.0009
1.00256
1.00517
1.01492
1.0294
1.09122
1.17495
1.59595
2.3936
5.20883
11.191
10.9128
10.5078
10.5359
10.6596
10.8327
10.9103
10.9493
10.9692
11.0084
1
1.00002
1.00006
1.00013
1.00039
1.0008
1.00228
1.00461
1.01333
1.02608
1.08236
1.15269
1.53719
2.2332
4.78051
10.5105
10.6092
10.4306
10.3945
10.4569
10.5853
10.623
10.6104
10.5527
10.494
1
1.00001
1.00005
1.00011
1.00033
1.00067
1.00192
1.00373
1.01168
1.02036
1.07479
1.12559
1.48434
2.06529
4.34358
9.65953
10.4502
10.3324
10.2202
10.242
10.2938
10.2742
10.1794
9.9527
9.59287
1.00001
1.00003
1.00011
1.00023
1.00065
1.00132
1.00377
1.00741
1.02291
1.04085
1.14894
1.26129
2.01281
3.3577
8.0755
11.5841
11.2151
10.9719
11.0501
11.2747
11.5116
11.657
11.7653
11.8525
11.9186
1.00001
1.00003
1.0001
1.00022
1.00064
1.0013
1.00372
1.00732
1.02259
1.04031
1.1468
1.25749
1.99607
3.31899
7.97119
11.5929
11.2123
10.9611
11.0405
11.2662
11.5029
11.6484
11.7583
11.8468
11.9144
1.00001
1.00003
1.0001
1.00022
1.00062
1.00127
1.00362
1.00713
1.02193
1.03924
1.14235
1.24969
1.96048
3.23558
7.73703
11.6102
11.2026
10.9293
11.008
11.2321
11.466
11.6091
11.7182
11.8061
11.8736
1.00001
1.00003
1.0001
1.00021
1.0006
1.00122
1.00347
1.00685
1.02094
1.03761
1.13563
1.23798
1.90706
3.10999
7.37535
11.6383
11.1892
10.8776
10.9528
11.1714
11.4009
11.539
11.6445
11.73
11.7983
1.00001
1.00003
1.00009
1.0002
1.00057
1.00117
1.00331
1.00662
1.01961
1.03673
1.12473
1.22576
1.83335
2.94643
6.88765
11.6674
11.1741
10.8085
10.8774
11.0858
11.3099
11.4412
11.541
11.6228
11.6923
1.00001
1.00003
1.00009
1.00019
1.00053
1.00109
1.00308
1.00622
1.01806
1.03511
1.11249
1.21045
1.74915
2.7554
6.29667
11.6665
11.1506
10.7243
10.7832
10.9743
11.1893
11.3094
11.3983
11.4724
11.5435
1.00001
1.00002
1.00008
1.00017
1.00049
1.001
1.00283
1.0057
1.01645
1.03235
1.10086
1.19311
1.66265
2.55308
5.64196
11.573
11.0876
10.6227
10.6693
10.8343
11.0332
11.1365
11.207
11.2635
11.3284
1
1.00002
1.00007
1.00016
1.00044
1.00091
1.00256
1.00518
1.01493
1.02941
1.09124
1.17499
1.59598
2.39373
5.2091
11.1914
10.9129
10.5078
10.536
10.6596
10.8328
10.9104
10.9494
10.9692
11.0084
1
1.00002
1.00006
1.00014
1.0004
1.00081
1.00229
1.00462
1.01334
1.02609
1.08237
1.15274
1.53721
2.23334
4.78073
10.5109
10.6093
10.4306
10.3945
10.457
10.5854
10.6231
10.6105
10.5527
10.494
1
1.00002
1.00005
1.00012
1.00033
1.00067
1.00192
1.00374
1.01169
1.02038
1.0748
1.12562
1.48436
2.06543
4.34375
9.65996
10.4502
10.3324
10.2203
10.2421
10.2938
10.2743
10.1795
9.95274
9.59292
1.00001
1.00003
1.00011
1.00023
1.00065
1.00132
1.00377
1.00741
1.02291
1.04085
1.14894
1.26129
2.01281
3.35771
8.07554
11.5841
11.2151
10.9719
11.0501
11.2747
11.5116
11.657
11.7653
11.8525
11.9186
1.00001
1.00003
1.0001
1.00022
1.00064
1.0013
1.00372
1.00732
1.02259
1.04031
1.1468
1.25749
1.99608
3.319
7.97122
11.5929
11.2123
10.9611
11.0405
11.2662
11.5029
11.6484
11.7583
11.8468
11.9144
1.00001
1.00003
1.0001
1.00022
1.00062
1.00127
1.00362
1.00713
1.02193
1.03924
1.14235
1.24969
1.96049
3.23559
7.73706
11.6102
11.2026
10.9294
11.008
11.2321
11.466
11.6091
11.7183
11.8061
11.8736
1.00001
1.00003
1.0001
1.00021
1.0006
1.00122
1.00347
1.00685
1.02094
1.03761
1.13564
1.23798
1.90706
3.11
7.37539
11.6382
11.1892
10.8776
10.9528
11.1714
11.4009
11.539
11.6445
11.73
11.7983
1.00001
1.00003
1.00009
1.0002
1.00057
1.00117
1.00331
1.00662
1.01961
1.03673
1.12473
1.22576
1.83335
2.94644
6.88768
11.6674
11.1741
10.8085
10.8774
11.0858
11.3099
11.4412
11.541
11.6228
11.6923
1.00001
1.00003
1.00009
1.00019
1.00053
1.00109
1.00308
1.00622
1.01806
1.03511
1.11249
1.21045
1.74915
2.75541
6.2967
11.6665
11.1506
10.7243
10.7832
10.9743
11.1893
11.3094
11.3983
11.4724
11.5435
1.00001
1.00002
1.00008
1.00017
1.00049
1.001
1.00283
1.0057
1.01645
1.03235
1.10086
1.19311
1.66265
2.55308
5.64198
11.573
11.0876
10.6227
10.6693
10.8343
11.0332
11.1365
11.207
11.2635
11.3284
1
1.00002
1.00007
1.00016
1.00044
1.00091
1.00256
1.00518
1.01493
1.02941
1.09124
1.17499
1.59598
2.39374
5.20911
11.1914
10.9129
10.5078
10.536
10.6596
10.8328
10.9104
10.9494
10.9692
11.0084
1
1.00002
1.00006
1.00014
1.0004
1.00081
1.00229
1.00462
1.01334
1.02609
1.08237
1.15274
1.53721
2.23334
4.78075
10.511
10.6093
10.4306
10.3945
10.457
10.5854
10.6231
10.6105
10.5527
10.494
1
1.00002
1.00005
1.00012
1.00033
1.00067
1.00192
1.00374
1.01169
1.02038
1.0748
1.12562
1.48436
2.06544
4.34376
9.65998
10.4502
10.3324
10.2203
10.2421
10.2938
10.2743
10.1795
9.95275
9.59292
1.00001
1.00003
1.00011
1.00023
1.00065
1.00132
1.00377
1.00741
1.02291
1.04085
1.14894
1.26129
2.01281
3.35771
8.07554
11.5841
11.2151
10.9719
11.0501
11.2747
11.5116
11.657
11.7653
11.8525
11.9186
1.00001
1.00003
1.0001
1.00022
1.00064
1.0013
1.00372
1.00732
1.02259
1.04031
1.1468
1.25749
1.99608
3.319
7.97122
11.5929
11.2123
10.9611
11.0405
11.2662
11.5029
11.6484
11.7583
11.8468
11.9144
1.00001
1.00003
1.0001
1.00022
1.00062
1.00127
1.00362
1.00713
1.02193
1.03924
1.14235
1.24969
1.96049
3.23559
7.73706
11.6102
11.2026
10.9294
11.008
11.2321
11.466
11.6091
11.7183
11.8061
11.8736
1.00001
1.00003
1.0001
1.00021
1.0006
1.00122
1.00347
1.00685
1.02094
1.03761
1.13564
1.23798
1.90706
3.11
7.37539
11.6382
11.1892
10.8776
10.9528
11.1714
11.4009
11.539
11.6445
11.73
11.7983
1.00001
1.00003
1.00009
1.0002
1.00057
1.00117
1.00331
1.00662
1.01961
1.03673
1.12473
1.22576
1.83335
2.94644
6.88768
11.6674
11.1741
10.8085
10.8774
11.0858
11.3099
11.4412
11.541
11.6228
11.6923
1.00001
1.00003
1.00009
1.00019
1.00053
1.00109
1.00308
1.00622
1.01806
1.03511
1.11249
1.21045
1.74915
2.75541
6.2967
11.6665
11.1506
10.7243
10.7832
10.9743
11.1893
11.3094
11.3983
11.4724
11.5435
1.00001
1.00002
1.00008
1.00017
1.00049
1.001
1.00283
1.0057
1.01645
1.03235
1.10086
1.19311
1.66265
2.55308
5.64198
11.573
11.0876
10.6227
10.6693
10.8343
11.0332
11.1365
11.207
11.2635
11.3284
1
1.00002
1.00007
1.00016
1.00044
1.00091
1.00256
1.00518
1.01493
1.02941
1.09124
1.17499
1.59598
2.39374
5.20911
11.1914
10.9129
10.5078
10.536
10.6596
10.8328
10.9104
10.9494
10.9692
11.0084
1
1.00002
1.00006
1.00014
1.0004
1.00081
1.00229
1.00462
1.01334
1.02609
1.08237
1.15274
1.53721
2.23334
4.78075
10.511
10.6093
10.4306
10.3945
10.457
10.5854
10.6231
10.6105
10.5527
10.494
1
1.00002
1.00005
1.00012
1.00033
1.00067
1.00192
1.00374
1.01169
1.02038
1.0748
1.12562
1.48436
2.06544
4.34376
9.65999
10.4502
10.3324
10.2203
10.2421
10.2938
10.2743
10.1795
9.95275
9.59292
1.00001
1.00003
1.00011
1.00023
1.00065
1.00132
1.00377
1.00741
1.02291
1.04085
1.14894
1.26129
2.01281
3.35771
8.07554
11.5841
11.2151
10.9719
11.0501
11.2747
11.5116
11.657
11.7653
11.8525
11.9186
1.00001
1.00003
1.0001
1.00022
1.00064
1.0013
1.00372
1.00732
1.02259
1.04031
1.1468
1.25749
1.99608
3.319
7.97122
11.5929
11.2123
10.9611
11.0405
11.2662
11.5029
11.6484
11.7583
11.8468
11.9144
1.00001
1.00003
1.0001
1.00022
1.00062
1.00127
1.00362
1.00713
1.02193
1.03924
1.14235
1.24969
1.96049
3.23559
7.73706
11.6102
11.2026
10.9294
11.008
11.2321
11.466
11.6091
11.7183
11.8061
11.8736
1.00001
1.00003
1.0001
1.00021
1.0006
1.00122
1.00347
1.00685
1.02094
1.03761
1.13564
1.23798
1.90706
3.11
7.37539
11.6382
11.1892
10.8776
10.9528
11.1714
11.4009
11.539
11.6445
11.73
11.7983
1.00001
1.00003
1.00009
1.0002
1.00057
1.00117
1.00331
1.00662
1.01961
1.03673
1.12473
1.22576
1.83335
2.94644
6.88769
11.6674
11.1741
10.8085
10.8774
11.0858
11.3099
11.4412
11.541
11.6228
11.6923
1.00001
1.00003
1.00009
1.00019
1.00053
1.00109
1.00308
1.00622
1.01806
1.03511
1.11249
1.21045
1.74915
2.75541
6.2967
11.6665
11.1506
10.7243
10.7832
10.9743
11.1893
11.3094
11.3983
11.4724
11.5435
1.00001
1.00002
1.00008
1.00017
1.00049
1.001
1.00283
1.0057
1.01645
1.03235
1.10086
1.19311
1.66265
2.55308
5.64198
11.573
11.0876
10.6227
10.6693
10.8343
11.0332
11.1365
11.207
11.2635
11.3284
1
1.00002
1.00007
1.00016
1.00044
1.00091
1.00256
1.00518
1.01493
1.02941
1.09124
1.17499
1.59598
2.39374
5.20911
11.1914
10.9129
10.5078
10.536
10.6596
10.8328
10.9104
10.9494
10.9692
11.0084
1
1.00002
1.00006
1.00014
1.0004
1.00081
1.00229
1.00462
1.01334
1.02609
1.08237
1.15274
1.53721
2.23334
4.78075
10.511
10.6093
10.4306
10.3945
10.457
10.5854
10.6231
10.6105
10.5527
10.494
1
1.00002
1.00005
1.00012
1.00033
1.00067
1.00192
1.00374
1.01169
1.02038
1.0748
1.12562
1.48436
2.06544
4.34376
9.65999
10.4502
10.3324
10.2203
10.2421
10.2938
10.2743
10.1795
9.95275
9.59292
1.00001
1.00003
1.00011
1.00023
1.00065
1.00132
1.00377
1.00741
1.02291
1.04085
1.14894
1.26129
2.01281
3.35771
8.07554
11.5841
11.2151
10.9719
11.0501
11.2747
11.5116
11.657
11.7653
11.8525
11.9186
1.00001
1.00003
1.0001
1.00022
1.00064
1.0013
1.00372
1.00732
1.02259
1.04031
1.1468
1.25749
1.99608
3.319
7.97122
11.5929
11.2123
10.9611
11.0405
11.2662
11.5029
11.6484
11.7583
11.8468
11.9144
1.00001
1.00003
1.0001
1.00022
1.00062
1.00127
1.00362
1.00713
1.02193
1.03924
1.14235
1.24969
1.96049
3.23559
7.73706
11.6102
11.2026
10.9294
11.008
11.2321
11.466
11.6091
11.7183
11.8061
11.8736
1.00001
1.00003
1.0001
1.00021
1.0006
1.00122
1.00347
1.00685
1.02094
1.03761
1.13564
1.23798
1.90706
3.11
7.37539
11.6382
11.1892
10.8776
10.9528
11.1714
11.4009
11.539
11.6445
11.73
11.7983
1.00001
1.00003
1.00009
1.0002
1.00057
1.00117
1.00331
1.00662
1.01961
1.03673
1.12473
1.22576
1.83335
2.94644
6.88768
11.6674
11.1741
10.8085
10.8774
11.0858
11.3099
11.4412
11.541
11.6228
11.6923
1.00001
1.00003
1.00009
1.00019
1.00053
1.00109
1.00308
1.00622
1.01806
1.03511
1.11249
1.21045
1.74915
2.75541
6.2967
11.6665
11.1506
10.7243
10.7832
10.9743
11.1893
11.3094
11.3983
11.4724
11.5435
1.00001
1.00002
1.00008
1.00017
1.00049
1.001
1.00283
1.0057
1.01645
1.03235
1.10086
1.19311
1.66265
2.55308
5.64198
11.573
11.0876
10.6227
10.6693
10.8343
11.0332
11.1365
11.207
11.2635
11.3284
1
1.00002
1.00007
1.00016
1.00044
1.00091
1.00256
1.00518
1.01493
1.02941
1.09124
1.17499
1.59598
2.39374
5.20911
11.1914
10.9129
10.5078
10.536
10.6596
10.8328
10.9104
10.9494
10.9692
11.0084
1
1.00002
1.00006
1.00014
1.0004
1.00081
1.00229
1.00462
1.01334
1.02609
1.08237
1.15274
1.53721
2.23334
4.78075
10.511
10.6093
10.4306
10.3945
10.457
10.5854
10.6231
10.6105
10.5527
10.494
1
1.00002
1.00005
1.00012
1.00033
1.00067
1.00192
1.00374
1.01169
1.02038
1.0748
1.12562
1.48436
2.06544
4.34376
9.65999
10.4502
10.3324
10.2203
10.2421
10.2938
10.2743
10.1795
9.95275
9.59292
1.00001
1.00003
1.00011
1.00023
1.00065
1.00132
1.00377
1.00741
1.02291
1.04085
1.14894
1.26129
2.01281
3.35771
8.07554
11.5841
11.2151
10.9719
11.0501
11.2747
11.5116
11.657
11.7653
11.8525
11.9186
1.00001
1.00003
1.0001
1.00022
1.00064
1.0013
1.00372
1.00732
1.02259
1.04031
1.1468
1.25749
1.99608
3.319
7.97122
11.5929
11.2123
10.9611
11.0405
11.2662
11.5029
11.6484
11.7583
11.8468
11.9144
1.00001
1.00003
1.0001
1.00022
1.00062
1.00127
1.00362
1.00713
1.02193
1.03924
1.14235
1.24969
1.96049
3.23559
7.73706
11.6102
11.2026
10.9294
11.008
11.2321
11.466
11.6091
11.7183
11.8061
11.8736
1.00001
1.00003
1.0001
1.00021
1.0006
1.00122
1.00347
1.00685
1.02094
1.03761
1.13564
1.23798
1.90706
3.11
7.37539
11.6382
11.1892
10.8776
10.9528
11.1714
11.4009
11.539
11.6445
11.73
11.7983
1.00001
1.00003
1.00009
1.0002
1.00057
1.00117
1.00331
1.00662
1.01961
1.03673
1.12473
1.22576
1.83335
2.94644
6.88768
11.6674
11.1741
10.8085
10.8774
11.0858
11.3099
11.4412
11.541
11.6228
11.6923
1.00001
1.00003
1.00009
1.00019
1.00053
1.00109
1.00308
1.00622
1.01806
1.03511
1.11249
1.21045
1.74915
2.75541
6.2967
11.6665
11.1506
10.7243
10.7832
10.9743
11.1893
11.3094
11.3983
11.4724
11.5435
1.00001
1.00002
1.00008
1.00017
1.00049
1.001
1.00283
1.0057
1.01645
1.03235
1.10086
1.19311
1.66265
2.55308
5.64198
11.573
11.0876
10.6227
10.6693
10.8343
11.0332
11.1365
11.207
11.2635
11.3284
1
1.00002
1.00007
1.00016
1.00044
1.00091
1.00256
1.00518
1.01493
1.02941
1.09124
1.17499
1.59598
2.39374
5.20911
11.1914
10.9129
10.5078
10.536
10.6596
10.8328
10.9104
10.9494
10.9692
11.0084
1
1.00002
1.00006
1.00014
1.0004
1.00081
1.00229
1.00462
1.01334
1.02609
1.08237
1.15274
1.53721
2.23334
4.78075
10.511
10.6093
10.4306
10.3945
10.457
10.5854
10.6231
10.6105
10.5527
10.494
1
1.00002
1.00005
1.00012
1.00033
1.00067
1.00192
1.00374
1.01169
1.02038
1.0748
1.12562
1.48436
2.06544
4.34376
9.65999
10.4502
10.3324
10.2203
10.2421
10.2938
10.2743
10.1795
9.95275
9.59292
1.00001
1.00003
1.00011
1.00023
1.00065
1.00132
1.00377
1.00741
1.02291
1.04085
1.14894
1.26129
2.01281
3.35771
8.07554
11.5841
11.2151
10.9719
11.0501
11.2747
11.5116
11.657
11.7653
11.8525
11.9186
1.00001
1.00003
1.0001
1.00022
1.00064
1.0013
1.00372
1.00732
1.02259
1.04031
1.1468
1.25749
1.99608
3.319
7.97122
11.5929
11.2123
10.9611
11.0405
11.2662
11.5029
11.6484
11.7583
11.8468
11.9144
1.00001
1.00003
1.0001
1.00022
1.00062
1.00127
1.00362
1.00713
1.02193
1.03924
1.14235
1.24969
1.96049
3.23559
7.73706
11.6102
11.2026
10.9294
11.008
11.2321
11.466
11.6091
11.7183
11.8061
11.8736
1.00001
1.00003
1.0001
1.00021
1.0006
1.00122
1.00347
1.00685
1.02094
1.03761
1.13564
1.23798
1.90706
3.11
7.37539
11.6382
11.1892
10.8776
10.9528
11.1714
11.4009
11.539
11.6445
11.73
11.7983
1.00001
1.00003
1.00009
1.0002
1.00057
1.00117
1.00331
1.00662
1.01961
1.03673
1.12473
1.22576
1.83335
2.94644
6.88768
11.6674
11.1741
10.8085
10.8774
11.0858
11.3099
11.4412
11.541
11.6228
11.6923
1.00001
1.00003
1.00009
1.00019
1.00053
1.00109
1.00308
1.00622
1.01806
1.03511
1.11249
1.21045
1.74915
2.75541
6.2967
11.6665
11.1506
10.7243
10.7832
10.9743
11.1893
11.3094
11.3983
11.4724
11.5435
1.00001
1.00002
1.00008
1.00017
1.00049
1.001
1.00283
1.0057
1.01645
1.03235
1.10086
1.19311
1.66265
2.55308
5.64198
11.573
11.0876
10.6227
10.6693
10.8343
11.0332
11.1365
11.207
11.2635
11.3284
1
1.00002
1.00007
1.00016
1.00044
1.00091
1.00256
1.00518
1.01493
1.02941
1.09124
1.17499
1.59598
2.39374
5.20911
11.1914
10.9129
10.5078
10.536
10.6596
10.8328
10.9104
10.9494
10.9692
11.0084
1
1.00002
1.00006
1.00014
1.0004
1.00081
1.00229
1.00462
1.01334
1.02609
1.08237
1.15274
1.53721
2.23334
4.78075
10.511
10.6093
10.4306
10.3945
10.457
10.5854
10.6231
10.6105
10.5527
10.494
1
1.00002
1.00005
1.00012
1.00033
1.00067
1.00192
1.00374
1.01169
1.02038
1.0748
1.12562
1.48436
2.06544
4.34376
9.65998
10.4502
10.3324
10.2203
10.2421
10.2938
10.2743
10.1795
9.95275
9.59292
1.00001
1.00003
1.00011
1.00023
1.00065
1.00132
1.00377
1.00741
1.02291
1.04085
1.14894
1.26129
2.01281
3.3577
8.0755
11.5841
11.2151
10.9719
11.0501
11.2747
11.5116
11.657
11.7653
11.8525
11.9186
1.00001
1.00003
1.0001
1.00022
1.00064
1.0013
1.00372
1.00732
1.02259
1.04031
1.1468
1.25749
1.99607
3.31899
7.97119
11.5929
11.2123
10.9611
11.0405
11.2662
11.5029
11.6484
11.7583
11.8468
11.9144
1.00001
1.00003
1.0001
1.00022
1.00062
1.00127
1.00362
1.00713
1.02193
1.03924
1.14235
1.24969
1.96048
3.23558
7.73703
11.6102
11.2026
10.9293
11.008
11.2321
11.466
11.6091
11.7182
11.8061
11.8736
1.00001
1.00003
1.0001
1.00021
1.0006
1.00122
1.00347
1.00685
1.02094
1.03761
1.13563
1.23798
1.90706
3.10999
7.37535
11.6383
11.1892
10.8776
10.9528
11.1714
11.4009
11.539
11.6445
11.73
11.7983
1.00001
1.00003
1.00009
1.0002
1.00057
1.00117
1.00331
1.00662
1.01961
1.03673
1.12473
1.22576
1.83335
2.94643
6.88765
11.6674
11.1741
10.8085
10.8774
11.0858
11.3099
11.4412
11.541
11.6228
11.6923
1.00001
1.00003
1.00009
1.00019
1.00053
1.00109
1.00308
1.00622
1.01806
1.03511
1.11249
1.21045
1.74915
2.7554
6.29667
11.6665
11.1506
10.7243
10.7832
10.9743
11.1893
11.3094
11.3983
11.4724
11.5435
1.00001
1.00002
1.00008
1.00017
1.00049
1.001
1.00283
1.0057
1.01645
1.03235
1.10086
1.19311
1.66265
2.55308
5.64196
11.573
11.0876
10.6227
10.6693
10.8343
11.0332
11.1365
11.207
11.2635
11.3284
1
1.00002
1.00007
1.00016
1.00044
1.00091
1.00256
1.00518
1.01493
1.02941
1.09124
1.17499
1.59598
2.39373
5.2091
11.1914
10.9129
10.5078
10.536
10.6596
10.8328
10.9104
10.9494
10.9692
11.0084
1
1.00002
1.00006
1.00014
1.0004
1.00081
1.00229
1.00462
1.01334
1.02609
1.08237
1.15274
1.53721
2.23334
4.78073
10.5109
10.6093
10.4306
10.3945
10.457
10.5854
10.6231
10.6105
10.5527
10.494
1
1.00002
1.00005
1.00012
1.00033
1.00067
1.00192
1.00374
1.01169
1.02038
1.0748
1.12562
1.48436
2.06543
4.34375
9.65996
10.4502
10.3324
10.2203
10.2421
10.2938
10.2743
10.1795
9.95274
9.59292
1.00001
1.00003
1.0001
1.00022
1.00064
1.00131
1.00377
1.0074
1.0229
1.04082
1.14892
1.26123
2.01272
3.3574
8.07486
11.5843
11.2151
10.9718
11.0501
11.2746
11.5115
11.657
11.7653
11.8525
11.9185
1.00001
1.00003
1.0001
1.00022
1.00063
1.0013
1.00372
1.00731
1.02258
1.04029
1.14677
1.25743
1.99599
3.31868
7.97055
11.593
11.2123
10.961
11.0404
11.2662
11.5029
11.6484
11.7582
11.8468
11.9144
1.00001
1.00003
1.0001
1.00021
1.00062
1.00126
1.00361
1.00712
1.02192
1.03922
1.14232
1.24963
1.9604
3.23529
7.73639
11.6103
11.2026
10.9293
11.0079
11.2321
11.466
11.609
11.7182
11.806
11.8736
1.00001
1.00003
1.00009
1.0002
1.00059
1.00121
1.00346
1.00684
1.02093
1.03759
1.13561
1.23793
1.90697
3.10971
7.37472
11.6384
11.1892
10.8775
10.9527
11.1714
11.4009
11.539
11.6445
11.7299
11.7982
1.00001
1.00002
1.00009
1.00019
1.00056
1.00116
1.0033
1.00661
1.0196
1.0367
1.12473
1.22569
1.83331
2.94618
6.88709
11.6675
11.174
10.8084
10.8773
11.0858
11.3098
11.4411
11.541
11.6228
11.6922
1.00001
1.00002
1.00008
1.00018
1.00053
1.00108
1.00308
1.00621
1.01805
1.03509
1.11248
1.2104
1.7491
2.75519
6.29616
11.6665
11.1505
10.7242
10.7831
10.9743
11.1893
11.3093
11.3982
11.4724
11.5435
1
1.00002
1.00008
1.00017
1.00048
1.00099
1.00282
1.0057
1.01644
1.03234
1.10085
1.19307
1.66261
2.55292
5.64167
11.5728
11.0875
10.6226
10.6693
10.8342
11.0331
11.1364
11.207
11.2634
11.3284
1
1.00002
1.00007
1.00015
1.00044
1.0009
1.00256
1.00517
1.01492
1.0294
1.09122
1.17495
1.59595
2.3936
5.20883
11.191
10.9128
10.5078
10.5359
10.6596
10.8327
10.9103
10.9493
10.9692
11.0084
1
1.00002
1.00006
1.00013
1.00039
1.0008
1.00228
1.00461
1.01333
1.02608
1.08236
1.15269
1.53719
2.2332
4.78051
10.5105
10.6092
10.4306
10.3945
10.4569
10.5853
10.623
10.6104
10.5527
10.494
1
1.00001
1.00005
1.00011
1.00033
1.00067
1.00192
1.00373
1.01168
1.02036
1.07479
1.12559
1.48434
2.06529
4.34358
9.65953
10.4502
10.3324
10.2202
10.242
10.2938
10.2742
10.1794
9.9527
9.59287
1
1.00001
1.00004
1.00012
1.00025
1.00072
1.00146
1.00422
1.00824
1.0258
1.04575
1.16662
1.29954
2.12749
3.68258
8.66068
10.3528
10.2448
10.0417
10.0077
9.98087
9.88329
9.61992
9.00957
7.47288
1
1.00001
1.00003
1.0001
1.00022
1.00062
1.00127
1.00363
1.00715
1.02198
1.03931
1.14216
1.24999
1.95397
3.20789
7.48031
10.2684
10.1487
9.87811
9.76224
9.67117
9.47419
9.05702
8.2234
6.62572
1
1.00001
1.00003
1.00009
1.00019
1.00054
1.0011
1.00313
1.00631
1.01837
1.03536
1.11506
1.21279
1.76263
2.76935
6.2128
10.1789
10.0516
9.73251
9.52006
9.36426
9.08556
8.57511
7.7199
6.41767
1
1.00001
1.00002
1.00007
1.00015
1.00045
1.00091
1.00258
1.00522
1.01499
1.02965
1.09048
1.1775
1.58195
2.35468
4.91468
9.91309
9.87326
9.61066
9.2962
9.07133
8.74875
8.22106
7.43044
6.37554
1
1.00001
1.00002
1.00006
1.00012
1.00036
1.00073
1.00207
1.00419
1.0121
1.02348
1.07444
1.13718
1.47678
2.07967
4.23432
9.10531
9.58489
9.42432
9.09013
8.81132
8.46504
7.96286
7.25537
6.36753
1
1
1.00002
1.00004
1.00011
1.00024
1.00068
1.00137
1.00394
1.00763
1.02406
1.04202
1.15402
1.27122
2.03689
3.38397
7.69113
9.30237
9.20459
8.93692
8.59585
8.23004
7.75836
7.12717
6.36331
1
1
1.00001
1.00003
1.00009
1.00019
1.00056
1.00114
1.00321
1.00646
1.01893
1.03576
1.11903
1.21695
1.78073
2.79434
6.14452
9.1249
9.06455
8.82795
8.42797
8.04321
7.59226
7.02359
6.35372
0.999998
1
1.00001
1.00002
1.00007
1.00015
1.00043
1.00088
1.00247
1.005
1.01434
1.02834
1.08629
1.16932
1.54865
2.26468
4.54783
8.77147
8.92443
8.74023
8.32947
7.89703
7.45641
6.94068
6.34606
0.999996
0.999998
1
1.00002
1.00004
1.00013
1.00027
1.00077
1.00156
1.00443
1.00873
1.02652
1.04791
1.16832
1.30651
2.09775
3.57261
7.83848
8.69769
8.56904
8.23673
7.77862
7.34293
6.86953
6.33649
0.999995
0.999996
0.999999
1.00001
1.00003
1.00009
1.0002
1.00057
1.00117
1.00333
1.00655
1.01994
1.03575
1.12705
1.22324
1.82489
2.86447
6.22923
8.41785
8.36895
8.14992
7.6987
7.25968
6.81496
6.32997
0.999994
0.999994
0.999998
1
1.00002
1.00005
1.00017
1.00035
1.00099
1.00197
1.0058
1.01072
1.03586
1.06073
1.22282
1.43511
2.39384
4.43629
7.99237
8.22737
8.0717
7.68709
7.21189
6.77454
6.32534
0.999993
0.999993
0.999996
1
1.00001
1.00004
1.00012
1.00026
1.00073
1.00148
1.00419
1.00827
1.02493
1.04525
1.15732
1.28423
2.00886
3.30828
7.01319
8.02646
7.93224
7.65704
7.19847
6.75431
6.32622
0.999992
0.999993
0.999994
0.999998
1
1.00003
1.00007
1.00021
1.00042
1.00121
1.00236
1.0072
1.01271
1.04509
1.07421
1.27951
1.55099
2.76109
5.34365
7.70995
7.7262
7.58315
7.2178
6.75716
6.33063
0.999992
0.999992
0.999993
0.999996
1
1.00002
1.00005
1.00015
1.00031
1.00088
1.00179
1.00501
1.01005
1.02918
1.05577
1.17728
1.35448
2.11064
3.57705
7.08595
7.61189
7.50747
7.22293
6.77512
6.34468
0.999991
0.999992
0.999992
0.999994
0.999999
1.00001
1.00004
1.00008
1.00025
1.00051
1.00142
1.00288
1.00819
1.01586
1.04945
1.08867
1.30673
1.6307
2.90532
5.63155
7.36551
7.35271
7.20107
6.83492
6.37799
0.999991
0.999991
0.999992
0.999993
0.999996
1
1.00002
1.00005
1.00016
1.00034
1.00096
1.00196
1.00547
1.0108
1.03222
1.0586
1.19813
1.37896
2.19956
3.81197
6.85153
7.24689
7.1491
6.88331
6.43719
0.999991
0.999991
0.999991
0.999992
0.999994
0.999999
1.00001
1.00004
1.00009
1.00027
1.00055
1.00154
1.00312
1.00879
1.01737
1.0518
1.09866
1.31321
1.69088
2.92476
5.65576
7.0226
7.01258
6.87162
6.5397
0.999991
0.999991
0.999991
0.999992
0.999993
0.999996
1
1.00002
1.00006
1.00017
1.00036
1.00101
1.00205
1.00571
1.01128
1.03344
1.06104
1.20424
1.39364
2.22529
3.86004
6.52362
6.89845
6.81815
6.58811
0.999991
0.999991
0.999991
0.999991
0.999992
0.999994
0.999999
1.00001
1.00004
1.00009
1.00027
1.00056
1.00157
1.00317
1.00892
1.0177
1.0517
1.10274
1.30767
1.68782
2.85864
5.38917
6.66336
6.6757
6.56869
0.999991
0.99999
0.999991
0.999991
0.999991
0.999993
0.999995
1
1.00002
1.00007
1.00015
1.00042
1.00086
1.00237
1.00478
1.0134
1.02642
1.07822
1.15272
1.46746
2.03832
3.64773
6.14756
6.56209
6.50807
0.999991
0.99999
0.99999
0.999991
0.999991
0.999992
0.999994
0.999999
1.00001
1.00004
1.00009
1.00026
1.00054
1.0015
1.00304
1.00843
1.01678
1.04829
1.09532
1.28443
1.62574
2.69295
4.98334
6.31631
6.38356
0.999991
0.99999
0.99999
0.99999
0.999991
0.999991
0.999993
0.999995
1
1.00002
1.00006
1.00013
1.00038
1.00078
1.00216
1.00435
1.0121
1.02394
1.06927
1.13846
1.40474
1.89857
3.22651
5.77066
6.27139
0.999991
0.99999
0.99999
0.99999
0.99999
0.999991
0.999992
0.999993
0.999998
1.00001
1.00003
1.00008
1.00024
1.00049
1.00134
1.00271
1.00748
1.01474
1.04333
1.07977
1.25712
1.51674
2.49569
4.49753
5.97437
0.999991
0.99999
0.99999
0.99999
0.99999
0.999991
0.999991
0.999992
0.999995
1
1.00002
1.00005
1.00014
1.00029
1.0008
1.00163
1.00445
1.00894
1.02492
1.04923
1.14356
1.29316
1.83778
2.89193
5.30654
0.999991
0.99999
0.99999
0.99999
0.99999
0.99999
0.999991
0.999991
0.999993
0.999996
1.00001
1.00002
1.00008
1.00017
1.00048
1.00098
1.00269
1.00542
1.01503
1.02951
1.08777
1.16593
1.52291
2.12619
3.84917
0.999991
0.99999
0.99999
0.99999
0.99999
0.99999
0.99999
0.999991
0.999992
0.999994
0.999998
1.00001
1.00004
1.00011
1.00024
1.00066
1.00134
1.00367
1.0073
1.02081
1.03888
1.12322
1.22715
1.71157
2.5319
0.999991
0.99999
0.99999
0.99999
0.99999
0.99999
0.99999
0.999991
0.999991
0.999992
0.999996
1
1.00002
1.00005
1.00016
1.00033
1.00089
1.00181
1.00496
1.00976
1.02834
1.05175
1.16585
1.31164
1.919
0.999991
0.99999
0.99999
0.99999
0.99999
0.99999
0.99999
0.99999
0.999991
0.999992
0.999993
0.999998
1.00001
1.00003
1.00008
1.00022
1.00045
1.00123
1.00249
1.00687
1.01348
1.03932
1.07362
1.22638
1.46471
0.999991
0.99999
0.99999
0.99999
0.99999
0.99999
0.99999
0.99999
0.99999
0.999991
0.999992
0.999995
0.999999
1.00001
1.00004
1.00012
1.00026
1.0007
1.00143
1.00387
1.00778
1.0215
1.04201
1.12313
1.24111
0.999991
0.99999
0.99999
0.99999
0.99999
0.99999
0.99999
0.99999
0.99999
0.999991
0.999991
0.999992
0.999996
1
1.00002
1.00005
1.00016
1.00034
1.00091
1.00186
1.00502
1.00999
1.02816
1.05286
1.16148
0.999991
0.99999
0.99999
0.99999
0.99999
0.99999
0.99999
0.99999
0.99999
0.99999
0.999991
0.999992
0.999993
0.999998
1.00001
1.00003
1.00007
1.00022
1.00045
1.00121
1.00245
1.00666
1.01329
1.03694
1.07457
0.999991
0.99999
0.99999
0.99999
0.99999
0.99999
0.99999
0.99999
0.99999
0.99999
0.999991
0.999991
0.999992
0.999994
1
1.00001
1.00004
1.0001
1.00028
1.00058
1.00156
1.00315
1.00855
1.01722
1.047
0.999991
0.99999
0.99999
0.99999
0.99999
0.99999
0.99999
0.99999
0.99999
0.99999
0.99999
0.999991
0.999991
0.999992
0.999996
1
1.00002
1.00005
1.00015
1.00031
1.00085
1.00172
1.0046
1.00925
1.02492
0.999991
0.99999
0.99999
0.99999
0.99999
0.99999
0.99999
0.99999
0.99999
0.99999
0.99999
0.99999
0.999991
0.999992
0.999993
0.999997
1
1.00003
1.00007
1.0002
1.00041
1.0011
1.00222
1.00597
1.01199
0.999991
0.99999
0.99999
0.99999
0.99999
0.99999
0.99999
0.99999
0.99999
0.99999
0.99999
0.99999
0.999991
0.999991
0.999992
0.999994
1
1.00001
1.00004
1.0001
1.00028
1.00058
1.00158
1.0032
1.00869
0.999991
0.99999
0.99999
0.99999
0.99999
0.99999
0.99999
0.99999
0.99999
0.99999
0.99999
0.99999
0.99999
0.999991
0.999991
0.999993
0.999996
1.00001
1.00002
1.00008
1.00017
1.00049
1.001
1.00277
1.00556
0.999991
0.99999
0.99999
0.99999
0.99999
0.99999
0.99999
0.99999
0.99999
0.99999
0.99999
0.99999
0.99999
0.999991
0.999991
0.999992
0.999996
1
1.00002
1.00006
1.00017
1.00036
1.00101
1.00206
1.00586
0.999991
0.99999
0.99999
0.99999
0.99999
0.99999
0.99999
0.99999
0.99999
0.99999
0.99999
0.99999
0.99999
0.999991
0.999991
0.999992
0.999995
1
1.00002
1.00005
1.00015
1.00032
1.00093
1.0019
1.00548
0.999991
0.99999
0.99999
0.99999
0.99999
0.99999
0.99999
0.99999
0.99999
0.99999
0.99999
0.99999
0.99999
0.999991
0.999991
0.999992
0.999994
1
1.00001
1.00006
1.00012
1.00037
1.00076
1.0022
1.00431
0.999991
0.99999
0.99999
0.99999
0.99999
0.99999
0.99999
0.99999
0.99999
0.99999
0.99999
0.99999
0.99999
0.999991
0.999991
0.999992
0.999994
1
1.00001
1.00006
1.00013
1.00038
1.00079
1.00226
1.00459
1
1.00002
1.00004
1.00012
1.00026
1.00073
1.00147
1.00423
1.00825
1.02581
1.04577
1.16665
1.29959
2.12755
3.68281
8.66112
10.3528
10.2449
10.0418
10.0078
9.98091
9.88332
9.61996
9.0096
7.4729
1
1.00002
1.00004
1.00011
1.00022
1.00063
1.00128
1.00364
1.00716
1.02199
1.03932
1.14219
1.25004
1.95403
3.20811
7.48077
10.2684
10.1487
9.87815
9.76227
9.6712
9.47422
9.05704
8.22342
6.62575
1
1.00001
1.00003
1.00009
1.00019
1.00055
1.00111
1.00314
1.00632
1.01838
1.03539
1.11507
1.21285
1.76265
2.76955
6.21324
10.1789
10.0517
9.73254
9.52009
9.36428
9.08559
8.57514
7.71993
6.4177
1
1.00001
1.00003
1.00008
1.00016
1.00045
1.00092
1.00259
1.00523
1.015
1.02967
1.09049
1.17753
1.58198
2.35481
4.91491
9.91329
9.87338
9.61069
9.29621
9.07135
8.74878
8.22108
7.43046
6.37556
1
1.00001
1.00002
1.00006
1.00013
1.00036
1.00074
1.00208
1.0042
1.01211
1.0235
1.07444
1.13724
1.47679
2.07979
4.23449
9.10569
9.58497
9.42437
9.09014
8.81134
8.46506
7.96288
7.25539
6.36756
1
1.00001
1.00002
1.00004
1.00012
1.00024
1.00068
1.00138
1.00395
1.00764
1.02407
1.04204
1.15404
1.27127
2.03693
3.38417
7.69151
9.30241
9.20462
8.93693
8.59587
8.23006
7.75838
7.12719
6.36334
1
1
1.00002
1.00003
1.0001
1.0002
1.00056
1.00115
1.00322
1.00647
1.01894
1.03579
1.11903
1.21702
1.78075
2.79452
6.14489
9.12492
9.06457
8.82795
8.42798
8.04323
7.59228
7.02361
6.35374
1
1
1.00001
1.00003
1.00008
1.00016
1.00043
1.00088
1.00248
1.00501
1.01435
1.02835
1.08631
1.16936
1.54869
2.26484
4.54822
8.77153
8.92443
8.74022
8.32947
7.89704
7.45643
6.9407
6.34608
1
1
1.00001
1.00002
1.00005
1.00014
1.00028
1.00078
1.00157
1.00444
1.00874
1.02653
1.04793
1.16834
1.30656
2.09781
3.57279
7.83869
8.69772
8.56906
8.23674
7.77863
7.34294
6.86955
6.33651
1