/*--------------------------------*- C++ -*----------------------------------*\
| =========                 |                                                 |
| \\      /  F ield         | OpenFOAM: The Open Source CFD Toolbox           |
|  \\    /   O peration     | Version:  4.1                                   |
|   \\  /    A nd           | Web:      www.OpenFOAM.org                      |
|    \\/     M anipulation  |                                                 |
\*---------------------------------------------------------------------------*/
FoamFile
{
    version     2.0;
    format      ascii;
    class       volScalarField;
    location    "6.72";
    object      p;
}
// * * * * * * * * * * * * * * * * * * * * * * * * * * * * * * * * * * * * * //

dimensions      [1 -1 -2 0 0 0 0];

internalField   nonuniform List<scalar> 
52500
(
1.00001
1.00003
1.00012
1.00026
1.00074
1.00151
1.00432
1.00859
1.02595
1.0476
1.16776
1.30476
2.14016
3.73787
9.06621
11.4672
11.2322
11.072
11.1485
11.3667
11.6059
11.758
11.8729
11.9652
12.0379
1.00001
1.00003
1.00012
1.00025
1.00073
1.00149
1.00426
1.00844
1.02565
1.04671
1.1663
1.30012
2.12808
3.70299
8.97787
11.4655
11.2248
11.0597
11.1376
11.3573
11.596
11.7479
11.8644
11.9583
12.0325
1.00001
1.00003
1.00011
1.00024
1.00071
1.00145
1.00414
1.00819
1.02503
1.04523
1.16265
1.29128
2.1011
3.62759
8.77992
11.4616
11.2057
11.0258
11.1035
11.3223
11.5573
11.7059
11.8213
11.9138
11.987
1.00001
1.00003
1.00011
1.00023
1.00068
1.00139
1.00397
1.00783
1.02408
1.04323
1.1566
1.27777
2.06314
3.50923
8.47321
11.4601
11.177
10.9711
11.0468
11.2611
11.4891
11.6316
11.743
11.8322
11.9048
1.00001
1.00003
1.0001
1.00022
1.00064
1.00131
1.00376
1.00739
1.02283
1.0407
1.14845
1.26037
2.00948
3.35135
8.05272
11.464
11.1426
10.8988
10.9707
11.1772
11.3958
11.5291
11.6337
11.718
11.7907
1.00001
1.00003
1.00009
1.00021
1.0006
1.00123
1.00352
1.00694
1.02131
1.0382
1.13817
1.24245
1.92784
3.15871
7.50458
11.4764
11.1086
10.8105
10.8753
11.0683
11.2745
11.3948
11.4881
11.5632
11.6351
1.00001
1.00002
1.00009
1.00019
1.00056
1.00115
1.00328
1.00658
1.01946
1.0366
1.12374
1.22466
1.82741
2.9328
6.83276
11.4828
11.0745
10.7086
10.7628
10.9348
11.1224
11.2226
11.2956
11.352
11.4158
1
1.00002
1.00008
1.00018
1.00051
1.00105
1.00298
1.00603
1.01748
1.03422
1.10841
1.20461
1.72009
2.68722
6.0662
11.4391
11.0205
10.5954
10.6353
10.7753
10.9368
11.0077
11.0468
11.0649
11.1005
1
1.00002
1.00007
1.00016
1.00046
1.00094
1.00267
1.0054
1.01559
1.03076
1.09506
1.18438
1.62113
2.45668
5.35865
11.1971
10.8911
10.4802
10.4944
10.5844
10.7094
10.7381
10.7244
10.666
10.6067
1
1.00002
1.00006
1.00014
1.0004
1.00082
1.00234
1.00473
1.0137
1.02689
1.08434
1.15894
1.54997
2.27455
4.8558
10.6139
10.6081
10.3971
10.3315
10.3707
10.4359
10.4146
10.3205
10.1004
9.76144
1.00001
1.00004
1.00012
1.00026
1.00074
1.00152
1.00432
1.0086
1.02596
1.04763
1.16776
1.30485
2.1402
3.73812
9.06671
11.4672
11.2323
11.0721
11.1486
11.3667
11.6059
11.7581
11.873
11.9653
12.038
1.00001
1.00004
1.00012
1.00026
1.00073
1.0015
1.00426
1.00845
1.02566
1.04674
1.1663
1.3002
2.12812
3.70325
8.97838
11.4655
11.2249
11.0598
11.1377
11.3573
11.5961
11.748
11.8646
11.9584
12.0327
1.00001
1.00003
1.00012
1.00025
1.00071
1.00145
1.00415
1.0082
1.02504
1.04525
1.16268
1.29134
2.10117
3.62787
8.78047
11.4615
11.2058
11.0258
11.1036
11.3224
11.5574
11.706
11.8214
11.9139
11.9871
1.00001
1.00003
1.00011
1.00024
1.00068
1.00139
1.00398
1.00784
1.02409
1.04326
1.15662
1.27783
2.06321
3.50953
8.4738
11.46
11.177
10.9712
11.0469
11.2611
11.4892
11.6316
11.7431
11.8323
11.9049
1.00001
1.00003
1.0001
1.00023
1.00065
1.00132
1.00376
1.0074
1.02285
1.04072
1.14847
1.26042
2.00956
3.35164
8.05334
11.4639
11.1426
10.8989
10.9708
11.1773
11.3959
11.5291
11.6338
11.7181
11.7908
1.00001
1.00003
1.0001
1.00021
1.00061
1.00124
1.00353
1.00695
1.02132
1.03822
1.1382
1.24251
1.92793
3.159
7.50522
11.4763
11.1087
10.8106
10.8754
11.0684
11.2745
11.3949
11.4881
11.5633
11.6352
1.00001
1.00003
1.00009
1.0002
1.00057
1.00116
1.00329
1.00659
1.01947
1.03663
1.12374
1.22473
1.82745
2.93306
6.83336
11.4827
11.0745
10.7087
10.7629
10.9348
11.1225
11.2227
11.2957
11.3521
11.4159
1.00001
1.00003
1.00008
1.00018
1.00052
1.00106
1.00299
1.00604
1.01749
1.03423
1.10842
1.20466
1.72015
2.68744
6.06675
11.4391
11.0206
10.5955
10.6354
10.7754
10.9369
11.0078
11.0469
11.0649
11.1005
1.00001
1.00002
1.00008
1.00016
1.00046
1.00095
1.00268
1.00541
1.0156
1.03077
1.09508
1.18442
1.62117
2.45684
5.35895
11.1973
10.8913
10.4803
10.4945
10.5845
10.7095
10.7382
10.7245
10.666
10.6067
1
1.00002
1.00007
1.00014
1.00041
1.00083
1.00235
1.00474
1.01371
1.0269
1.08435
1.15898
1.54999
2.2747
4.85604
10.6143
10.6083
10.3972
10.3316
10.3708
10.436
10.4147
10.3206
10.1005
9.76149
1.00001
1.00004
1.00012
1.00026
1.00074
1.00152
1.00432
1.0086
1.02596
1.04763
1.16776
1.30485
2.14021
3.73814
9.06675
11.4672
11.2323
11.0721
11.1486
11.3667
11.6059
11.7581
11.873
11.9653
12.038
1.00001
1.00004
1.00012
1.00026
1.00073
1.0015
1.00426
1.00845
1.02566
1.04674
1.1663
1.3002
2.12812
3.70326
8.97842
11.4655
11.2249
11.0598
11.1377
11.3573
11.5961
11.748
11.8646
11.9584
12.0327
1.00001
1.00003
1.00012
1.00025
1.00071
1.00145
1.00415
1.0082
1.02504
1.04525
1.16268
1.29135
2.10118
3.62789
8.78052
11.4615
11.2058
11.0259
11.1036
11.3224
11.5574
11.706
11.8214
11.9139
11.9872
1.00001
1.00003
1.00011
1.00024
1.00068
1.00139
1.00398
1.00784
1.02409
1.04326
1.15662
1.27783
2.06322
3.50955
8.47385
11.46
11.177
10.9712
11.0469
11.2611
11.4892
11.6316
11.7431
11.8323
11.9049
1.00001
1.00003
1.0001
1.00023
1.00065
1.00132
1.00376
1.0074
1.02285
1.04072
1.14847
1.26043
2.00957
3.35166
8.05339
11.4639
11.1426
10.8989
10.9708
11.1773
11.3959
11.5291
11.6338
11.7181
11.7908
1.00001
1.00003
1.0001
1.00021
1.00061
1.00124
1.00353
1.00695
1.02132
1.03822
1.1382
1.24251
1.92794
3.15902
7.50528
11.4763
11.1087
10.8106
10.8754
11.0684
11.2745
11.3949
11.4881
11.5633
11.6352
1.00001
1.00003
1.00009
1.0002
1.00057
1.00116
1.00329
1.00659
1.01947
1.03663
1.12374
1.22473
1.82746
2.93307
6.83341
11.4827
11.0745
10.7087
10.7629
10.9348
11.1225
11.2227
11.2957
11.3521
11.4159
1.00001
1.00003
1.00008
1.00018
1.00052
1.00106
1.00299
1.00604
1.01749
1.03423
1.10842
1.20466
1.72015
2.68745
6.0668
11.4391
11.0206
10.5955
10.6354
10.7754
10.9369
11.0078
11.0469
11.0649
11.1005
1.00001
1.00002
1.00008
1.00016
1.00046
1.00095
1.00268
1.00541
1.0156
1.03077
1.09508
1.18442
1.62117
2.45685
5.35898
11.1973
10.8913
10.4803
10.4945
10.5845
10.7095
10.7382
10.7245
10.666
10.6067
1
1.00002
1.00007
1.00014
1.00041
1.00083
1.00235
1.00474
1.01371
1.0269
1.08435
1.15898
1.55
2.27471
4.85606
10.6144
10.6084
10.3972
10.3316
10.3708
10.436
10.4147
10.3206
10.1005
9.76149
1.00001
1.00004
1.00012
1.00026
1.00074
1.00152
1.00432
1.0086
1.02596
1.04763
1.16776
1.30485
2.14021
3.73814
9.06675
11.4672
11.2323
11.0721
11.1486
11.3667
11.6059
11.7581
11.873
11.9653
12.038
1.00001
1.00004
1.00012
1.00026
1.00073
1.0015
1.00426
1.00845
1.02566
1.04674
1.1663
1.3002
2.12812
3.70327
8.97842
11.4655
11.2249
11.0598
11.1377
11.3573
11.5961
11.748
11.8646
11.9584
12.0327
1.00001
1.00003
1.00012
1.00025
1.00071
1.00145
1.00415
1.0082
1.02504
1.04525
1.16268
1.29135
2.10118
3.62789
8.78052
11.4615
11.2058
11.0259
11.1036
11.3224
11.5574
11.706
11.8214
11.9139
11.9872
1.00001
1.00003
1.00011
1.00024
1.00068
1.00139
1.00398
1.00784
1.02409
1.04326
1.15662
1.27783
2.06322
3.50955
8.47385
11.46
11.177
10.9712
11.0469
11.2611
11.4892
11.6316
11.7431
11.8323
11.9049
1.00001
1.00003
1.0001
1.00023
1.00065
1.00132
1.00376
1.0074
1.02285
1.04072
1.14847
1.26043
2.00957
3.35166
8.05339
11.4639
11.1426
10.8989
10.9708
11.1773
11.3959
11.5291
11.6338
11.7181
11.7908
1.00001
1.00003
1.0001
1.00021
1.00061
1.00124
1.00353
1.00695
1.02132
1.03822
1.1382
1.24251
1.92794
3.15902
7.50528
11.4763
11.1087
10.8106
10.8754
11.0684
11.2745
11.3949
11.4881
11.5633
11.6352
1.00001
1.00003
1.00009
1.0002
1.00057
1.00116
1.00329
1.00659
1.01947
1.03663
1.12374
1.22473
1.82746
2.93307
6.83341
11.4827
11.0745
10.7087
10.7629
10.9348
11.1225
11.2227
11.2957
11.3521
11.4159
1.00001
1.00003
1.00008
1.00018
1.00052
1.00106
1.00299
1.00604
1.01749
1.03423
1.10842
1.20466
1.72015
2.68746
6.0668
11.4391
11.0206
10.5955
10.6354
10.7754
10.9369
11.0078
11.0469
11.0649
11.1005
1.00001
1.00002
1.00008
1.00016
1.00046
1.00095
1.00268
1.00541
1.0156
1.03077
1.09508
1.18442
1.62117
2.45685
5.35898
11.1973
10.8913
10.4803
10.4945
10.5845
10.7095
10.7382
10.7245
10.666
10.6067
1
1.00002
1.00007
1.00014
1.00041
1.00083
1.00235
1.00474
1.01371
1.0269
1.08435
1.15898
1.55
2.27471
4.85607
10.6144
10.6084
10.3972
10.3316
10.3708
10.436
10.4147
10.3206
10.1005
9.76149
1.00001
1.00004
1.00012
1.00026
1.00074
1.00152
1.00432
1.0086
1.02596
1.04763
1.16776
1.30485
2.14021
3.73815
9.06677
11.4672
11.2323
11.0721
11.1486
11.3667
11.6059
11.7581
11.873
11.9653
12.038
1.00001
1.00004
1.00012
1.00026
1.00073
1.0015
1.00426
1.00845
1.02566
1.04674
1.1663
1.3002
2.12813
3.70327
8.97844
11.4655
11.2249
11.0598
11.1377
11.3573
11.5961
11.748
11.8646
11.9584
12.0327
1.00001
1.00003
1.00012
1.00025
1.00071
1.00145
1.00415
1.0082
1.02504
1.04525
1.16268
1.29135
2.10118
3.6279
8.78054
11.4615
11.2058
11.0259
11.1036
11.3224
11.5574
11.706
11.8214
11.9139
11.9872
1.00001
1.00003
1.00011
1.00024
1.00068
1.00139
1.00398
1.00784
1.02409
1.04326
1.15662
1.27783
2.06322
3.50955
8.47386
11.46
11.177
10.9712
11.0469
11.2611
11.4892
11.6316
11.7431
11.8323
11.9049
1.00001
1.00003
1.0001
1.00023
1.00065
1.00132
1.00376
1.0074
1.02285
1.04072
1.14847
1.26043
2.00957
3.35167
8.05341
11.4639
11.1426
10.8989
10.9708
11.1773
11.3959
11.5291
11.6338
11.7181
11.7908
1.00001
1.00003
1.0001
1.00021
1.00061
1.00124
1.00353
1.00695
1.02132
1.03822
1.1382
1.24251
1.92794
3.15902
7.50529
11.4763
11.1087
10.8106
10.8754
11.0684
11.2745
11.3949
11.4881
11.5633
11.6352
1.00001
1.00003
1.00009
1.0002
1.00057
1.00116
1.00329
1.00659
1.01947
1.03663
1.12374
1.22473
1.82746
2.93308
6.83343
11.4827
11.0745
10.7087
10.7629
10.9349
11.1225
11.2227
11.2957
11.3521
11.4159
1.00001
1.00003
1.00008
1.00018
1.00052
1.00106
1.00299
1.00604
1.01749
1.03423
1.10842
1.20466
1.72016
2.68746
6.06682
11.4391
11.0206
10.5955
10.6354
10.7754
10.9369
11.0078
11.0469
11.0649
11.1005
1.00001
1.00002
1.00008
1.00016
1.00046
1.00095
1.00268
1.00541
1.0156
1.03077
1.09508
1.18442
1.62117
2.45685
5.35899
11.1973
10.8913
10.4803
10.4945
10.5845
10.7095
10.7382
10.7245
10.666
10.6067
1
1.00002
1.00007
1.00014
1.00041
1.00083
1.00235
1.00474
1.01371
1.0269
1.08435
1.15898
1.55
2.27472
4.85607
10.6144
10.6084
10.3972
10.3316
10.3708
10.436
10.4147
10.3206
10.1005
9.76149
1.00001
1.00004
1.00012
1.00026
1.00074
1.00152
1.00432
1.0086
1.02596
1.04763
1.16776
1.30485
2.14021
3.73815
9.06677
11.4672
11.2323
11.0721
11.1486
11.3667
11.6059
11.7581
11.873
11.9653
12.038
1.00001
1.00004
1.00012
1.00026
1.00073
1.0015
1.00426
1.00845
1.02566
1.04674
1.1663
1.3002
2.12813
3.70327
8.97844
11.4655
11.2249
11.0598
11.1377
11.3573
11.5961
11.748
11.8646
11.9584
12.0327
1.00001
1.00003
1.00012
1.00025
1.00071
1.00145
1.00415
1.0082
1.02504
1.04525
1.16268
1.29135
2.10118
3.6279
8.78054
11.4615
11.2058
11.0259
11.1036
11.3224
11.5574
11.706
11.8214
11.9139
11.9872
1.00001
1.00003
1.00011
1.00024
1.00068
1.00139
1.00398
1.00784
1.02409
1.04326
1.15662
1.27783
2.06322
3.50955
8.47386
11.46
11.177
10.9712
11.0469
11.2611
11.4892
11.6316
11.7431
11.8323
11.9049
1.00001
1.00003
1.0001
1.00023
1.00065
1.00132
1.00376
1.0074
1.02285
1.04072
1.14847
1.26043
2.00957
3.35167
8.05341
11.4639
11.1426
10.8989
10.9708
11.1773
11.3959
11.5291
11.6338
11.7181
11.7908
1.00001
1.00003
1.0001
1.00021
1.00061
1.00124
1.00353
1.00695
1.02132
1.03822
1.1382
1.24251
1.92794
3.15902
7.5053
11.4763
11.1087
10.8106
10.8754
11.0684
11.2745
11.3949
11.4881
11.5633
11.6352
1.00001
1.00003
1.00009
1.0002
1.00057
1.00116
1.00329
1.00659
1.01947
1.03663
1.12374
1.22473
1.82746
2.93308
6.83343
11.4827
11.0745
10.7087
10.7629
10.9349
11.1225
11.2227
11.2957
11.3521
11.4159
1.00001
1.00003
1.00008
1.00018
1.00052
1.00106
1.00299
1.00604
1.01749
1.03423
1.10842
1.20466
1.72016
2.68746
6.06682
11.4391
11.0206
10.5955
10.6354
10.7754
10.9369
11.0078
11.0469
11.0649
11.1005
1.00001
1.00002
1.00008
1.00016
1.00046
1.00095
1.00268
1.00541
1.0156
1.03077
1.09508
1.18442
1.62117
2.45686
5.35899
11.1973
10.8913
10.4803
10.4945
10.5845
10.7095
10.7382
10.7245
10.666
10.6067
1
1.00002
1.00007
1.00014
1.00041
1.00083
1.00235
1.00474
1.01371
1.0269
1.08435
1.15898
1.55
2.27472
4.85607
10.6144
10.6084
10.3972
10.3316
10.3708
10.436
10.4147
10.3206
10.1005
9.76149
1.00001
1.00004
1.00012
1.00026
1.00074
1.00152
1.00432
1.0086
1.02596
1.04763
1.16776
1.30485
2.14021
3.73814
9.06676
11.4672
11.2323
11.0721
11.1486
11.3667
11.6059
11.7581
11.873
11.9653
12.038
1.00001
1.00004
1.00012
1.00026
1.00073
1.0015
1.00426
1.00845
1.02566
1.04674
1.1663
1.3002
2.12813
3.70327
8.97843
11.4655
11.2249
11.0598
11.1377
11.3573
11.5961
11.748
11.8646
11.9584
12.0327
1.00001
1.00003
1.00012
1.00025
1.00071
1.00145
1.00415
1.0082
1.02504
1.04525
1.16268
1.29135
2.10118
3.62789
8.78053
11.4615
11.2058
11.0259
11.1036
11.3224
11.5574
11.706
11.8214
11.9139
11.9872
1.00001
1.00003
1.00011
1.00024
1.00068
1.00139
1.00398
1.00784
1.02409
1.04326
1.15662
1.27783
2.06322
3.50955
8.47385
11.46
11.177
10.9712
11.0469
11.2611
11.4892
11.6316
11.7431
11.8323
11.9049
1.00001
1.00003
1.0001
1.00023
1.00065
1.00132
1.00376
1.0074
1.02285
1.04072
1.14847
1.26043
2.00957
3.35166
8.0534
11.4639
11.1426
10.8989
10.9708
11.1773
11.3959
11.5291
11.6338
11.7181
11.7908
1.00001
1.00003
1.0001
1.00021
1.00061
1.00124
1.00353
1.00695
1.02132
1.03822
1.1382
1.24251
1.92794
3.15902
7.50528
11.4763
11.1087
10.8106
10.8754
11.0684
11.2745
11.3949
11.4881
11.5633
11.6352
1.00001
1.00003
1.00009
1.0002
1.00057
1.00116
1.00329
1.00659
1.01947
1.03663
1.12374
1.22473
1.82746
2.93308
6.83342
11.4827
11.0745
10.7087
10.7629
10.9349
11.1225
11.2227
11.2957
11.3521
11.4159
1.00001
1.00003
1.00008
1.00018
1.00052
1.00106
1.00299
1.00604
1.01749
1.03423
1.10842
1.20466
1.72016
2.68746
6.06681
11.4391
11.0206
10.5955
10.6354
10.7754
10.9369
11.0078
11.0469
11.0649
11.1005
1.00001
1.00002
1.00008
1.00016
1.00046
1.00095
1.00268
1.00541
1.0156
1.03077
1.09508
1.18442
1.62117
2.45685
5.35898
11.1973
10.8913
10.4803
10.4945
10.5845
10.7095
10.7382
10.7245
10.666
10.6067
1
1.00002
1.00007
1.00014
1.00041
1.00083
1.00235
1.00474
1.01371
1.0269
1.08435
1.15898
1.55
2.27471
4.85607
10.6144
10.6084
10.3972
10.3316
10.3708
10.436
10.4147
10.3206
10.1005
9.76149
1.00001
1.00004
1.00012
1.00026
1.00074
1.00152
1.00432
1.0086
1.02596
1.04763
1.16776
1.30485
2.14021
3.73814
9.06675
11.4672
11.2323
11.0721
11.1486
11.3667
11.6059
11.7581
11.873
11.9653
12.038
1.00001
1.00004
1.00012
1.00026
1.00073
1.0015
1.00426
1.00845
1.02566
1.04674
1.1663
1.3002
2.12812
3.70327
8.97842
11.4655
11.2249
11.0598
11.1377
11.3573
11.5961
11.748
11.8646
11.9584
12.0327
1.00001
1.00003
1.00012
1.00025
1.00071
1.00145
1.00415
1.0082
1.02504
1.04525
1.16268
1.29135
2.10118
3.62789
8.78052
11.4615
11.2058
11.0259
11.1036
11.3224
11.5574
11.706
11.8214
11.9139
11.9872
1.00001
1.00003
1.00011
1.00024
1.00068
1.00139
1.00398
1.00784
1.02409
1.04326
1.15662
1.27783
2.06322
3.50955
8.47385
11.46
11.177
10.9712
11.0469
11.2611
11.4892
11.6316
11.7431
11.8323
11.9049
1.00001
1.00003
1.0001
1.00023
1.00065
1.00132
1.00376
1.0074
1.02285
1.04072
1.14847
1.26043
2.00957
3.35166
8.05339
11.4639
11.1426
10.8989
10.9708
11.1773
11.3959
11.5291
11.6338
11.7181
11.7908
1.00001
1.00003
1.0001
1.00021
1.00061
1.00124
1.00353
1.00695
1.02132
1.03822
1.1382
1.24251
1.92794
3.15902
7.50528
11.4763
11.1087
10.8106
10.8754
11.0684
11.2745
11.3949
11.4881
11.5633
11.6352
1.00001
1.00003
1.00009
1.0002
1.00057
1.00116
1.00329
1.00659
1.01947
1.03663
1.12374
1.22473
1.82746
2.93307
6.83341
11.4827
11.0745
10.7087
10.7629
10.9348
11.1225
11.2227
11.2957
11.3521
11.4159
1.00001
1.00003
1.00008
1.00018
1.00052
1.00106
1.00299
1.00604
1.01749
1.03423
1.10842
1.20466
1.72015
2.68745
6.0668
11.4391
11.0206
10.5955
10.6354
10.7754
10.9369
11.0078
11.0469
11.0649
11.1005
1.00001
1.00002
1.00008
1.00016
1.00046
1.00095
1.00268
1.00541
1.0156
1.03077
1.09508
1.18442
1.62117
2.45685
5.35898
11.1973
10.8913
10.4803
10.4945
10.5845
10.7095
10.7382
10.7245
10.666
10.6067
1
1.00002
1.00007
1.00014
1.00041
1.00083
1.00235
1.00474
1.01371
1.0269
1.08435
1.15898
1.55
2.27471
4.85606
10.6144
10.6084
10.3972
10.3316
10.3708
10.436
10.4147
10.3206
10.1005
9.76149
1.00001
1.00004
1.00012
1.00026
1.00074
1.00152
1.00432
1.0086
1.02596
1.04763
1.16776
1.30485
2.1402
3.73812
9.0667
11.4672
11.2323
11.0721
11.1486
11.3667
11.6059
11.7581
11.873
11.9653
12.038
1.00001
1.00004
1.00012
1.00026
1.00073
1.0015
1.00426
1.00845
1.02566
1.04674
1.1663
1.3002
2.12812
3.70325
8.97837
11.4655
11.2249
11.0598
11.1377
11.3573
11.5961
11.748
11.8646
11.9584
12.0327
1.00001
1.00003
1.00012
1.00025
1.00071
1.00145
1.00415
1.0082
1.02504
1.04525
1.16268
1.29134
2.10117
3.62787
8.78047
11.4615
11.2058
11.0258
11.1036
11.3224
11.5574
11.706
11.8214
11.9139
11.9871
1.00001
1.00003
1.00011
1.00024
1.00068
1.00139
1.00398
1.00784
1.02409
1.04326
1.15662
1.27783
2.06321
3.50953
8.4738
11.46
11.177
10.9712
11.0469
11.2611
11.4892
11.6316
11.7431
11.8323
11.9049
1.00001
1.00003
1.0001
1.00023
1.00065
1.00132
1.00376
1.0074
1.02285
1.04072
1.14847
1.26042
2.00956
3.35164
8.05334
11.4639
11.1426
10.8989
10.9708
11.1773
11.3959
11.5291
11.6338
11.7181
11.7908
1.00001
1.00003
1.0001
1.00021
1.00061
1.00124
1.00353
1.00695
1.02132
1.03822
1.1382
1.24251
1.92793
3.159
7.50522
11.4763
11.1087
10.8106
10.8754
11.0684
11.2745
11.3949
11.4881
11.5633
11.6352
1.00001
1.00003
1.00009
1.0002
1.00057
1.00116
1.00329
1.00659
1.01947
1.03663
1.12374
1.22473
1.82745
2.93306
6.83336
11.4827
11.0745
10.7087
10.7629
10.9348
11.1225
11.2227
11.2957
11.3521
11.4159
1.00001
1.00003
1.00008
1.00018
1.00052
1.00106
1.00299
1.00604
1.01749
1.03423
1.10842
1.20466
1.72015
2.68744
6.06675
11.4391
11.0206
10.5955
10.6354
10.7754
10.9369
11.0078
11.0469
11.0649
11.1005
1.00001
1.00002
1.00008
1.00016
1.00046
1.00095
1.00268
1.00541
1.0156
1.03077
1.09508
1.18442
1.62117
2.45684
5.35895
11.1973
10.8913
10.4803
10.4945
10.5845
10.7095
10.7382
10.7245
10.666
10.6067
1
1.00002
1.00007
1.00014
1.00041
1.00083
1.00235
1.00474
1.01371
1.0269
1.08435
1.15898
1.54999
2.2747
4.85604
10.6143
10.6083
10.3972
10.3316
10.3708
10.436
10.4147
10.3206
10.1005
9.76149
1.00001
1.00003
1.00012
1.00026
1.00074
1.00151
1.00432
1.00859
1.02595
1.0476
1.16776
1.30476
2.14016
3.73786
9.0662
11.4672
11.2322
11.072
11.1485
11.3667
11.6059
11.758
11.8729
11.9652
12.0379
1.00001
1.00003
1.00012
1.00025
1.00073
1.00149
1.00426
1.00844
1.02565
1.04671
1.1663
1.30012
2.12808
3.70298
8.97787
11.4655
11.2248
11.0597
11.1376
11.3573
11.596
11.7479
11.8644
11.9583
12.0325
1.00001
1.00003
1.00011
1.00024
1.00071
1.00145
1.00414
1.00819
1.02503
1.04523
1.16265
1.29128
2.1011
3.62759
8.77992
11.4616
11.2057
11.0258
11.1035
11.3223
11.5573
11.7059
11.8213
11.9138
11.987
1.00001
1.00003
1.00011
1.00023
1.00068
1.00139
1.00397
1.00783
1.02408
1.04323
1.1566
1.27777
2.06314
3.50923
8.4732
11.4601
11.177
10.9711
11.0468
11.2611
11.4891
11.6316
11.743
11.8322
11.9048
1.00001
1.00003
1.0001
1.00022
1.00064
1.00131
1.00376
1.00739
1.02283
1.0407
1.14845
1.26037
2.00947
3.35135
8.05271
11.464
11.1426
10.8988
10.9707
11.1772
11.3958
11.5291
11.6337
11.718
11.7907
1.00001
1.00003
1.00009
1.00021
1.0006
1.00123
1.00352
1.00694
1.02131
1.0382
1.13817
1.24245
1.92784
3.15871
7.50457
11.4764
11.1086
10.8105
10.8753
11.0683
11.2745
11.3948
11.4881
11.5632
11.6351
1.00001
1.00002
1.00009
1.00019
1.00056
1.00115
1.00328
1.00658
1.01946
1.0366
1.12374
1.22466
1.82741
2.93279
6.83275
11.4828
11.0745
10.7086
10.7628
10.9348
11.1224
11.2226
11.2956
11.352
11.4158
1
1.00002
1.00008
1.00018
1.00051
1.00105
1.00298
1.00603
1.01748
1.03422
1.10841
1.20461
1.72009
2.68721
6.06619
11.4391
11.0205
10.5954
10.6353
10.7753
10.9368
11.0077
11.0468
11.0649
11.1005
1
1.00002
1.00007
1.00016
1.00046
1.00094
1.00267
1.0054
1.01559
1.03076
1.09506
1.18438
1.62112
2.45668
5.35864
11.1971
10.8911
10.4802
10.4944
10.5844
10.7094
10.7381
10.7244
10.666
10.6067
1
1.00002
1.00006
1.00014
1.0004
1.00082
1.00234
1.00473
1.0137
1.02689
1.08434
1.15894
1.54997
2.27454
4.8558
10.6139
10.6081
10.3971
10.3315
10.3707
10.4359
10.4146
10.3205
10.1004
9.76143
1
1.00002
1.00004
1.00014
1.00029
1.00084
1.00171
1.00491
1.00967
1.02974
1.05363
1.19185
1.35414
2.2962
4.14863
9.7114
10.4328
10.2989
10.1468
10.1431
10.1301
10.0453
9.79855
9.22482
7.7802
1
1.00002
1.00004
1.00012
1.00026
1.00074
1.00151
1.00429
1.00858
1.02559
1.0476
1.1639
1.30139
2.10737
3.64335
8.60222
10.3132
10.202
9.97506
9.90408
9.82916
9.65419
9.27028
8.50061
7.03352
1
1.00001
1.00003
1.0001
1.00022
1.00062
1.00127
1.00361
1.0071
1.02178
1.03894
1.14044
1.24621
1.93993
3.17027
7.38001
10.2195
10.0987
9.81761
9.66527
9.53706
9.28432
8.81528
8.04421
6.89065
1
1.00001
1.00003
1.00009
1.00018
1.00053
1.00108
1.00306
1.00617
1.01797
1.0345
1.11259
1.20732
1.74369
2.72071
6.06251
10.0975
9.98608
9.68472
9.43991
9.25457
8.96287
8.48225
7.78013
6.87318
1
1.00001
1.00002
1.00007
1.00015
1.00043
1.00088
1.0025
1.00505
1.01456
1.02879
1.08788
1.17391
1.56498
2.31848
4.81287
9.75867
9.78731
9.58339
9.24431
9.00256
8.69439
8.2379
7.61095
6.85332
1
1
1.00002
1.00005
1.00014
1.00029
1.00082
1.00167
1.00476
1.00937
1.02868
1.05165
1.18377
1.33699
2.21795
3.91889
8.8791
9.54686
9.39987
9.07756
8.7889
8.46856
8.04353
7.4854
6.82588
1
1
1.00002
1.00004
1.00011
1.00023
1.00066
1.00135
1.00382
1.00755
1.02293
1.04134
1.14715
1.26046
1.97509
3.24902
7.36701
9.27629
9.19412
8.94948
8.61163
8.2787
7.87846
7.37816
6.79477
0.999999
1
1.00001
1.00003
1.00009
1.00018
1.00052
1.00107
1.00303
1.00612
1.0178
1.03431
1.11087
1.20684
1.72815
2.68006
5.84682
9.07599
9.0536
8.86678
8.48452
8.12756
7.74438
7.28724
6.76338
0.999998
1
1
1.00002
1.00005
1.00016
1.00033
1.00093
1.00189
1.0054
1.01053
1.0327
1.05824
1.20503
1.40298
2.29216
4.22723
8.6293
8.94794
8.78553
8.41245
8.01191
7.6298
7.20592
6.73214
0.999996
0.999997
1
1.00001
1.00004
1.00012
1.00025
1.0007
1.00143
1.00408
1.008
1.02455
1.04389
1.15668
1.27985
2.03311
3.38131
7.48956
8.72199
8.61997
8.33528
7.91551
7.53227
7.13658
6.70336
0.999994
0.999995
0.999999
1.00001
1.00003
1.00007
1.00021
1.00043
1.00122
1.00237
1.00739
1.01284
1.04671
1.07649
1.29314
1.58766
2.88782
5.79289
8.45359
8.43586
8.25644
7.86598
7.45592
7.07203
6.67238
0.999993
0.999994
0.999997
1
1.00002
1.00005
1.00016
1.00033
1.00093
1.0019
1.00537
1.01074
1.03167
1.06001
1.19461
1.39505
2.23695
3.98043
7.94479
8.32837
8.18736
7.84615
7.40456
7.02019
6.64588
0.999993
0.999993
0.999995
1
1.00001
1.00004
1.00009
1.00027
1.00057
1.0016
1.00321
1.00934
1.0176
1.05754
1.10157
1.35952
1.76255
3.29484
6.67226
8.10116
8.03855
7.80816
7.37603
6.98311
6.62301
0.999992
0.999993
0.999994
0.999998
1
1.00003
1.00007
1.0002
1.00041
1.00115
1.00234
1.00666
1.01295
1.04037
1.07113
1.25451
1.49925
2.60084
4.93504
7.7177
7.85376
7.72339
7.38692
6.97583
6.61229
0.999992
0.999992
0.999993
0.999995
1
1.00001
1.00005
1.00012
1.00034
1.00069
1.00196
1.00395
1.01127
1.02239
1.06622
1.13401
1.40492
1.9319
3.52715
6.88024
7.68898
7.61186
7.37725
6.98467
6.61478
0.999991
0.999991
0.999992
0.999993
0.999998
1.00001
1.00003
1.00008
1.00023
1.00048
1.00134
1.00273
1.0077
1.01514
1.0459
1.08408
1.28406
1.58511
2.77567
5.31494
7.3984
7.44968
7.33522
7.02923
6.62923
0.999991
0.999991
0.999991
0.999993
0.999995
1
1.00002
1.00006
1.00013
1.00038
1.00077
1.00216
1.00437
1.01237
1.02457
1.07216
1.14618
1.43694
1.99792
3.61284
6.7775
7.33959
7.26738
7.05046
6.66848
0.999991
0.999991
0.999991
0.999992
0.999993
0.999999
1.00001
1.00004
1.00009
1.00025
1.00052
1.00145
1.00294
1.00824
1.01637
1.04841
1.0917
1.29482
1.63199
2.82877
5.42909
7.09767
7.12928
7.02868
6.76013
0.999991
0.999991
0.999991
0.999991
0.999993
0.999995
1
1.00002
1.00006
1.00014
1.00039
1.0008
1.00224
1.00451
1.01278
1.02524
1.0748
1.14926
1.45203
2.02183
3.6463
6.56042
7.03094
6.97372
6.79196
0.999991
0.999991
0.999991
0.999991
0.999992
0.999994
0.999998
1.00001
1.00003
1.0001
1.00021
1.0006
1.00122
1.00342
1.00668
1.02018
1.03591
1.12392
1.21822
1.77104
2.67929
5.3498
6.80289
6.85538
6.76962
0.999991
0.99999
0.999991
0.999991
0.999991
0.999993
0.999995
1
1.00002
1.00006
1.00014
1.00039
1.00081
1.00224
1.00454
1.01275
1.02527
1.0742
1.14821
1.44676
1.99913
3.56675
6.26247
6.75055
6.71088
0.999991
0.99999
0.99999
0.999991
0.999991
0.999992
0.999994
0.999997
1.00001
1.00003
1.0001
1.00021
1.00058
1.00119
1.00331
1.00648
1.01942
1.03473
1.11897
1.20912
1.73327
2.57888
5.06606
6.50736
6.60987
0.999991
0.99999
0.99999
0.99999
0.999991
0.999991
0.999992
0.999995
1
1.00002
1.00006
1.00013
1.00038
1.00077
1.00213
1.00431
1.01199
1.02386
1.06879
1.1389
1.40653
1.90814
3.28376
5.93551
6.50367
0.999991
0.99999
0.99999
0.99999
0.99999
0.999991
0.999992
0.999993
0.999998
1.00001
1.00003
1.00008
1.00023
1.00048
1.00133
1.0027
1.00746
1.01487
1.04306
1.08194
1.25748
1.53368
2.53432
4.64285
6.21004
0.999991
0.99999
0.99999
0.99999
0.99999
0.999991
0.999991
0.999992
0.999995
1
1.00002
1.00004
1.00014
1.00029
1.00081
1.00165
1.00452
1.00909
1.02551
1.05024
1.14859
1.30187
1.88153
2.97094
5.55124
0.999991
0.99999
0.99999
0.99999
0.99999
0.99999
0.999991
0.999991
0.999993
0.999997
1
1.00003
1.00007
1.0002
1.00042
1.00116
1.00236
1.00652
1.01297
1.03751
1.07156
1.22097
1.46098
2.29738
4.03346
0.999991
0.99999
0.99999
0.99999
0.99999
0.99999
0.999991
0.999991
0.999992
0.999994
1
1.00001
1.00005
1.0001
1.0003
1.00061
1.00169
1.00341
1.00948
1.0191
1.05361
1.11152
1.31293
1.70456
2.81319
0.999991
0.99999
0.99999
0.99999
0.99999
0.99999
0.99999
0.999991
0.999991
0.999993
0.999996
1
1.00002
1.00007
1.00015
1.00044
1.0009
1.00246
1.00496
1.01376
1.02714
1.07945
1.15418
1.4659
2.01623
0.999991
0.99999
0.99999
0.99999
0.99999
0.99999
0.99999
0.999991
0.999991
0.999992
0.999994
1
1.00001
1.00004
1.0001
1.00029
1.0006
1.00167
1.00338
1.00939
1.01869
1.0543
1.10562
1.32492
1.71955
0.999991
0.99999
0.99999
0.99999
0.99999
0.99999
0.99999
0.99999
0.999991
0.999991
0.999993
0.999996
1.00001
1.00003
1.00009
1.00019
1.00055
1.00112
1.00315
1.00634
1.01838
1.03525
1.11323
1.21291
1.73262
0.999991
0.99999
0.99999
0.99999
0.99999
0.99999
0.99999
0.99999
0.999991
0.999991
0.999992
0.999996
1
1.00002
1.00006
1.00018
1.00038
1.00109
1.00211
1.00663
1.0115
1.0422
1.069
1.26705
1.53617
0.999991
0.99999
0.99999
0.99999
0.99999
0.99999
0.99999
0.99999
0.999991
0.999991
0.999993
0.999995
1
1.00002
1.00007
1.00015
1.00045
1.00093
1.00268
1.00541
1.01596
1.03086
1.10053
1.18921
1.66969
0.999991
0.99999
0.99999
0.99999
0.99999
0.99999
0.99999
0.99999
0.999991
0.999991
0.999992
0.999995
1
1.00002
1.00007
1.00015
1.00043
1.00089
1.00257
1.00519
1.01539
1.02974
1.09749
1.18321
1.65319
0.999991
0.99999
0.99999
0.99999
0.99999
0.99999
0.99999
0.99999
0.99999
0.999991
0.999992
0.999995
1
1.00002
1.00005
1.00015
1.00032
1.00095
1.00183
1.00592
1.01019
1.0384
1.06234
1.24645
1.48746
0.999991
0.99999
0.99999
0.99999
0.99999
0.99999
0.99999
0.99999
0.999991
0.999991
0.999992
0.999994
1
1.00002
1.00006
1.00014
1.0004
1.00083
1.00243
1.00479
1.01498
1.02689
1.09712
1.17199
1.63714
0.999991
0.99999
0.99999
0.99999
0.99999
0.99999
0.99999
0.99999
0.99999
0.999991
0.999992
0.999995
1
1.00002
1.00005
1.00015
1.00031
1.00092
1.00179
1.00573
1.00991
1.03714
1.06033
1.23815
1.46373
0.999991
0.99999
0.99999
0.99999
0.99999
0.99999
0.99999
0.99999
0.999991
0.999991
0.999992
0.999994
1
1.00002
1.00006
1.00014
1.00041
1.00084
1.00243
1.00491
1.01451
1.02808
1.09161
1.17108
1.60795
0.999991
0.99999
0.99999
0.99999
0.99999
0.99999
0.99999
0.99999
0.999991
0.999991
0.999992
0.999994
1
1.00001
1.00006
1.00013
1.0004
1.00083
1.00239
1.00483
1.01427
1.02748
1.09033
1.16778
1.59842
0.999991
0.99999
0.99999
0.99999
0.99999
0.99999
0.99999
0.99999
0.99999
0.999991
0.999992
0.999995
1
1.00002
1.00005
1.00016
1.00033
1.00096
1.00195
1.00568
1.01101
1.03534
1.06186
1.2307
1.44513
0.999991
0.99999
0.99999
0.99999
0.99999
0.99999
0.99999
0.99999
0.999991
0.999991
0.999992
0.999995
1
1.00002
1.00005
1.00016
1.00034
1.00097
1.00198
1.00571
1.01128
1.03485
1.06326
1.22573
1.44061
1
1.00002
1.00005
1.00014
1.0003
1.00085
1.00172
1.00492
1.00968
1.02975
1.05366
1.19185
1.35422
2.29623
4.14889
9.71183
10.433
10.2989
10.1469
10.1432
10.1302
10.0454
9.79862
9.22488
7.78026
1
1.00002
1.00004
1.00013
1.00026
1.00075
1.00152
1.0043
1.00859
1.02561
1.04763
1.16392
1.30145
2.10742
3.64359
8.60266
10.3132
10.2021
9.97513
9.90415
9.82923
9.65426
9.27035
8.50067
7.03359
1
1.00002
1.00004
1.00011
1.00022
1.00063
1.00127
1.00362
1.00711
1.02179
1.03896
1.14047
1.24626
1.93998
3.17049
7.38045
10.2195
10.0987
9.81767
9.66533
9.53712
9.28438
8.81534
8.04427
6.89071
1
1.00001
1.00003
1.00009
1.00019
1.00053
1.00109
1.00307
1.00618
1.01798
1.03452
1.11259
1.20738
1.74371
2.72091
6.06295
10.0976
9.98617
9.68478
9.43997
9.25463
8.96292
8.48231
7.78019
6.87324
1
1.00001
1.00003
1.00007
1.00016
1.00044
1.00089
1.00251
1.00506
1.01457
1.02881
1.08789
1.17394
1.56502
2.31861
4.81312
9.75895
9.7874
9.58346
9.24436
9.00261
8.69445
8.23795
7.611
6.85337
1
1.00001
1.00002
1.00005
1.00014
1.0003
1.00083
1.00168
1.00477
1.00938
1.02869
1.05167
1.18379
1.33705
2.21804
3.91914
8.87955
9.54694
9.39993
9.0776
8.78894
8.46861
8.04357
7.48545
6.82593
1
1.00001
1.00002
1.00004
1.00012
1.00024
1.00067
1.00135
1.00383
1.00756
1.02295
1.04136
1.14717
1.26051
1.97516
3.24926
7.36747
9.27635
9.19417
8.94951
8.61167
8.27874
7.8785
7.3782
6.79482
1
1
1.00002
1.00003
1.00009
1.00019
1.00053
1.00108
1.00304
1.00613
1.01781
1.03433
1.11089
1.20689
1.72819
2.68025
5.84725
9.0761
9.05368
8.86682
8.48453
8.12759
7.74441
7.28728
6.76343
1
1
1.00001
1.00003
1.00006
1.00016
1.00034
1.00094
1.0019
1.00541