/*--------------------------------*- C++ -*----------------------------------*\
| =========                 |                                                 |
| \\      /  F ield         | OpenFOAM: The Open Source CFD Toolbox           |
|  \\    /   O peration     | Version:  4.1                                   |
|   \\  /    A nd           | Web:      www.OpenFOAM.org                      |
|    \\/     M anipulation  |                                                 |
\*---------------------------------------------------------------------------*/
FoamFile
{
    version     2.0;
    format      ascii;
    class       volVectorField;
    location    "6.72";
    object      U;
}
// * * * * * * * * * * * * * * * * * * * * * * * * * * * * * * * * * * * * * //

dimensions      [0 1 -1 0 0 0 0];

internalField   nonuniform List<vector> 
52500
(
(3 1.67593e-08 -0.00571426)
(2.99998 9.30831e-08 -0.00571441)
(2.99996 3.47368e-07 -0.00571463)
(2.99988 8.98003e-07 -0.00571534)
(2.99973 2.47333e-06 -0.00571665)
(2.9993 5.74101e-06 -0.00572061)
(2.99847 1.45238e-05 -0.00572829)
(2.99588 3.50941e-05 -0.00574962)
(2.99129 7.69762e-05 -0.00579978)
(2.97428 0.000203943 -0.00590531)
(2.9437 0.000412038 -0.00629115)
(2.82963 0.00106774 -0.00685824)
(2.51561 0.00294625 -0.00950042)
(1.7657 0.00747848 -0.0144589)
(0.781374 0.0210278 -0.0178511)
(0.501986 0.0213082 -0.0184922)
(0.556747 0.0225749 -0.0185143)
(0.569633 0.024852 -0.0185679)
(0.520106 0.0270811 -0.0187479)
(0.433236 0.0292265 -0.0189312)
(0.347122 0.0318051 -0.0191284)
(0.276299 0.034965 -0.0192969)
(0.205619 0.0383769 -0.0194612)
(0.124373 0.0424953 -0.0196145)
(0.0557581 0.0488872 -0.0197794)
(3 4.8151e-08 -0.00571426)
(2.99998 2.67325e-07 -0.0057144)
(2.99996 9.96353e-07 -0.00571463)
(2.99988 2.56881e-06 -0.00571532)
(2.99974 7.07604e-06 -0.00571661)
(2.99931 1.63466e-05 -0.00572051)
(2.99849 4.1759e-05 -0.00572809)
(2.99593 9.82785e-05 -0.00574892)
(2.99143 0.000229082 -0.0057988)
(2.97455 0.000565631 -0.00590158)
(2.94444 0.00130515 -0.00628642)
(2.83156 0.00318677 -0.00684109)
(2.52129 0.00926084 -0.0094648)
(1.77884 0.0234302 -0.0143718)
(0.788902 0.0645662 -0.0177482)
(0.498813 0.0623441 -0.0184203)
(0.555424 0.0634256 -0.0184396)
(0.569016 0.0677918 -0.0184849)
(0.519115 0.0718475 -0.0186569)
(0.43221 0.0756313 -0.0188323)
(0.346297 0.0801677 -0.0190211)
(0.275053 0.0854752 -0.0191793)
(0.203267 0.0905828 -0.0193345)
(0.120527 0.0957777 -0.0194769)
(0.0515104 0.101673 -0.0196248)
(3 7.6428e-08 -0.00571426)
(2.99998 4.24188e-07 -0.0057144)
(2.99996 1.58017e-06 -0.00571462)
(2.99989 4.06618e-06 -0.00571529)
(2.99974 1.12117e-05 -0.00571654)
(2.99933 2.58045e-05 -0.00572032)
(2.99854 6.66102e-05 -0.0057277)
(2.99603 0.000152968 -0.00574777)
(2.99168 0.00037843 -0.00579677)
(2.97516 0.000870141 -0.00589538)
(2.94594 0.00228828 -0.00627427)
(2.83571 0.00537661 -0.0068077)
(2.53403 0.0154955 -0.00938485)
(1.80887 0.0404129 -0.0141959)
(0.807776 0.111695 -0.0175964)
(0.495449 0.105904 -0.0183358)
(0.555878 0.106766 -0.0183525)
(0.571161 0.11413 -0.018389)
(0.520898 0.121331 -0.0185536)
(0.434318 0.128714 -0.0187203)
(0.349103 0.137267 -0.0188993)
(0.277767 0.146789 -0.0190491)
(0.205146 0.156041 -0.0191933)
(0.121205 0.164875 -0.0193234)
(0.0505436 0.172605 -0.0194599)
(3 1.01184e-07 -0.00571426)
(2.99998 5.60456e-07 -0.00571439)
(2.99996 2.09271e-06 -0.0057146)
(2.99989 5.37908e-06 -0.00571525)
(2.99976 1.4883e-05 -0.00571644)
(2.99936 3.4224e-05 -0.00572006)
(2.9986 8.91705e-05 -0.00572715)
(2.99619 0.000202747 -0.00574621)
(2.99203 0.000518618 -0.00579367)
(2.97612 0.00115697 -0.00588693)
(2.94829 0.00323647 -0.00625345)
(2.84169 0.00748471 -0.00675614)
(2.55371 0.0218204 -0.00927525)
(1.85521 0.0574415 -0.01394)
(0.834355 0.159953 -0.0174043)
(0.488049 0.149644 -0.0182461)
(0.555852 0.149641 -0.018259)
(0.574707 0.159836 -0.018281)
(0.524765 0.17021 -0.018436)
(0.439357 0.181511 -0.0185919)
(0.355469 0.194418 -0.0187548)
(0.284461 0.208693 -0.0188877)
(0.211148 0.222894 -0.019032)
(0.125527 0.236171 -0.0191557)
(0.0518019 0.246206 -0.0192894)
(3 1.16853e-07 -0.00571425)
(2.99998 6.45794e-07 -0.00571438)
(2.99996 2.41554e-06 -0.00571458)
(2.9999 6.18762e-06 -0.00571519)
(2.99977 1.71774e-05 -0.00571632)
(2.9994 3.92777e-05 -0.00571973)
(2.99868 0.000104089 -0.00572645)
(2.99639 0.000229683 -0.00574426)
(2.99248 0.000630358 -0.00578958)
(2.97739 0.00133529 -0.00587628)
(2.95135 0.00404505 -0.00622529)
(2.84997 0.00888053 -0.00669045)
(2.58058 0.030108 -0.00911311)
(1.91871 0.0750755 -0.0135833)
(0.871205 0.211408 -0.0171567)
(0.479164 0.195067 -0.0181476)
(0.557116 0.192466 -0.018155)
(0.581043 0.20482 -0.018161)
(0.531786 0.218055 -0.018302)
(0.448081 0.233396 -0.0184498)
(0.365887 0.250746 -0.0186065)
(0.295494 0.270013 -0.0187187)
(0.221525 0.289792 -0.0188261)
(0.133372 0.308445 -0.0189505)
(0.0550481 0.321626 -0.0190715)
(3 1.21878e-07 -0.00571425)
(2.99999 6.73032e-07 -0.00571437)
(2.99996 2.51104e-06 -0.00571456)
(2.9999 6.38906e-06 -0.00571513)
(2.99978 1.77165e-05 -0.00571619)
(2.99943 3.99472e-05 -0.0057194)
(2.99876 0.000108752 -0.00572567)
(2.99663 0.000221527 -0.00574252)
(2.99296 0.000711296 -0.00578434)
(2.97892 0.00126851 -0.00586663)
(2.95475 0.0049416 -0.00618792)
(2.8616 0.00973393 -0.00662988)
(2.61576 0.0382898 -0.0088303)
(2.00206 0.0917399 -0.0130726)
(0.926275 0.263079 -0.0168294)
(0.476635 0.242321 -0.0180186)
(0.564564 0.236052 -0.0180313)
(0.593924 0.249647 -0.0180119)
(0.545089 0.26523 -0.0181519)
(0.463117 0.284845 -0.0182609)
(0.382335 0.307259 -0.0184109)
(0.31236 0.332475 -0.0185318)
(0.237489 0.359165 -0.0186266)
(0.145889 0.385226 -0.0187163)
(0.0607674 0.403876 -0.0188459)
(3 1.37596e-07 -0.00571425)
(2.99999 7.60518e-07 -0.00571437)
(2.99997 2.83379e-06 -0.00571454)
(2.99991 7.22952e-06 -0.00571508)
(2.9998 2.00003e-05 -0.00571606)
(2.99947 4.52549e-05 -0.00571909)
(2.99883 0.000122369 -0.00572485)
(2.99689 0.000251205 -0.00574145)
(2.99336 0.000806523 -0.00577793)
(2.98085 0.00134482 -0.00586042)
(2.95859 0.00576694 -0.00613362)
(2.87546 0.0107832 -0.00656022)
(2.65844 0.0431149 -0.00847198)
(2.10446 0.10359 -0.0124205)
(1.00191 0.30682 -0.0164192)
(0.48791 0.290656 -0.0178505)
(0.581869 0.283003 -0.0178667)
(0.615911 0.296006 -0.0178381)
(0.567239 0.312628 -0.0179851)
(0.487089 0.336219 -0.018088)
(0.407497 0.364153 -0.0181821)
(0.33779 0.396458 -0.0182716)
(0.261866 0.43216 -0.0183569)
(0.16592 0.469071 -0.0184373)
(0.0710243 0.498067 -0.0185264)
(3 1.59345e-07 -0.00571425)
(2.99999 8.80691e-07 -0.00571435)
(2.99997 3.28253e-06 -0.00571451)
(2.99992 8.41613e-06 -0.005715)
(2.99981 2.32604e-05 -0.0057159)
(2.99952 5.31676e-05 -0.00571866)
(2.99893 0.000140409 -0.00572388)
(2.9972 0.000307091 -0.00573916)
(2.99387 0.000865843 -0.00577118)
(2.98299 0.00168169 -0.00585039)
(2.9628 0.00588804 -0.00607701)
(2.89045 0.0113223 -0.00648205)
(2.70418 0.0430265 -0.00809309)
(2.22008 0.104745 -0.0116692)
(1.1011 0.31956 -0.0159313)
(0.524696 0.335617 -0.01763)
(0.61317 0.335682 -0.0176356)
(0.648036 0.344922 -0.0176044)
(0.599934 0.360985 -0.0177385)
(0.522381 0.388507 -0.0178702)
(0.443724 0.422456 -0.0179623)
(0.374305 0.462906 -0.0180163)
(0.298117 0.509774 -0.0180553)
(0.19831 0.562785 -0.018083)
(0.0893993 0.612811 -0.0181509)
(3 1.74812e-07 -0.00571425)
(2.99999 9.59825e-07 -0.00571434)
(2.99997 3.56488e-06 -0.00571448)
(2.99993 9.13586e-06 -0.00571492)
(2.99983 2.51173e-05 -0.00571573)
(2.99957 5.74512e-05 -0.00571819)
(2.99904 0.000149839 -0.00572286)
(2.9975 0.000333501 -0.00573656)
(2.9945 0.000877221 -0.00576488)
(2.98499 0.0019107 -0.00583706)
(2.96679 0.00540417 -0.00602998)
(2.90448 0.0117361 -0.00641016)
(2.74609 0.0375011 -0.00774803)
(2.32714 0.0922867 -0.0110031)
(1.21653 0.281495 -0.0154232)
(0.584943 0.369706 -0.0173597)
(0.648163 0.394023 -0.0173875)
(0.67993 0.394012 -0.0173812)
(0.638174 0.410306 -0.017507)
(0.567129 0.440878 -0.0175647)
(0.49144 0.481956 -0.0176436)
(0.423848 0.531187 -0.0176817)
(0.350517 0.591309 -0.0176788)
(0.252445 0.669073 -0.0176312)
(0.124826 0.762813 -0.017521)
(3 3.12008e-07 -0.00571425)
(2.99999 5.58477e-07 -0.00571433)
(2.99998 4.54931e-06 -0.00571445)
(2.99994 6.70021e-06 -0.00571483)
(2.99985 3.08266e-05 -0.00571554)
(2.99962 4.32737e-05 -0.00571767)
(2.99916 0.000184396 -0.00572179)
(2.9978 0.000244142 -0.00573362)
(2.99519 0.00111784 -0.00575881)
(2.98673 0.00118761 -0.00582062)
(2.97112 0.00736386 -0.00599586)
(2.91576 0.00567945 -0.00631445)
(2.77749 0.0471236 -0.00754185)
(2.40422 0.066236 -0.010329)
(1.34429 0.256239 -0.0151857)
(0.652282 0.421702 -0.0171422)
(0.665535 0.449213 -0.0171105)
(0.691593 0.443116 -0.0171898)
(0.670421 0.460763 -0.0172896)
(0.613611 0.492231 -0.0173485)
(0.546996 0.540104 -0.017343)
(0.485862 0.59801 -0.0173145)
(0.424693 0.676403 -0.0172161)
(0.344975 0.796074 -0.0170135)
(0.193334 1.00402 -0.0166003)
(2.99999 1.72769e-08 -2.5942e-09)
(2.99998 9.31345e-08 -8.65064e-09)
(2.99995 3.48163e-07 -1.01597e-08)
(2.99988 8.9803e-07 -1.6016e-08)
(2.99973 2.47371e-06 -1.64703e-08)
(2.9993 5.73881e-06 -2.2033e-08)
(2.99847 1.45181e-05 -2.29632e-08)
(2.99588 3.50577e-05 -3.36044e-08)
(2.99129 7.69574e-05 -3.06228e-08)
(2.97428 0.00020371 -8.78923e-08)
(2.94369 0.000412036 -9.71142e-09)
(2.82961 0.00106722 -2.18165e-07)
(2.51559 0.00294596 -9.58834e-08)
(1.76563 0.00747748 -5.28697e-07)
(0.781359 0.021025 -5.30383e-07)
(0.502032 0.0213061 -4.07215e-09)
(0.556782 0.0225725 -5.74476e-08)
(0.569665 0.0248484 -8.31482e-08)
(0.520144 0.027077 -7.84774e-08)
(0.433279 0.0292232 -7.0793e-08)
(0.347164 0.0318049 -7.6795e-08)
(0.276334 0.0349687 -8.63495e-08)
(0.205644 0.038383 -9.4067e-08)
(0.124387 0.0425015 -1.01349e-07)
(0.0557627 0.0488919 -1.06906e-07)
(2.99999 4.95563e-08 -2.58383e-09)
(2.99998 2.68185e-07 -8.65872e-09)
(2.99996 1.00113e-06 -1.01481e-08)
(2.99988 2.57202e-06 -1.60277e-08)
(2.99974 7.09627e-06 -1.64687e-08)
(2.99931 1.63812e-05 -2.20822e-08)
(2.99849 4.1839e-05 -2.30394e-08)
(2.99593 9.85344e-05 -3.42052e-08)
(2.99143 0.000229247 -3.03507e-08)
(2.97455 0.000567378 -9.19106e-08)
(2.94443 0.00130337 -6.02117e-09)
(2.83155 0.00318875 -2.26804e-07)
(2.52127 0.00925608 -9.28252e-08)
(1.77877 0.0234225 -5.39304e-07)
(0.788892 0.0645498 -5.3952e-07)
(0.498865 0.0623357 7.2157e-09)
(0.555457 0.063423 -5.19851e-08)
(0.569038 0.0677906 -8.35487e-08)
(0.519136 0.0718471 -8.01365e-08)
(0.432229 0.0756313 -7.32744e-08)
(0.346312 0.080171 -7.53093e-08)
(0.275065 0.0854826 -8.17995e-08)
(0.203276 0.0905929 -8.83036e-08)
(0.120533 0.095788 -9.44685e-08)
(0.0515127 0.101682 -9.91412e-08)
(2.99999 7.84191e-08 -2.56598e-09)
(2.99998 4.25536e-07 -8.65832e-09)
(2.99996 1.587e-06 -1.00878e-08)
(2.99989 4.06841e-06 -1.60402e-08)
(2.99974 1.12391e-05 -1.61544e-08)
(2.99933 2.58451e-05 -2.17181e-08)
(2.99854 6.67069e-05 -2.20832e-08)
(2.99603 0.000153265 -3.01179e-08)
(2.99168 0.000378635 -3.21583e-08)
(2.97516 0.000872093 -5.7678e-08)
(2.94593 0.00228638 -7.04789e-08)
(2.8357 0.00537885 -1.60487e-07)
(2.53399 0.0154903 -1.77116e-07)
(1.80877 0.0404041 -5.86741e-07)
(0.807738 0.111675 -5.98263e-07)
(0.495475 0.105895 3.39878e-08)
(0.555889 0.106765 -3.15553e-08)
(0.571165 0.114131 -7.96268e-08)
(0.520902 0.121333 -7.99295e-08)
(0.434322 0.128717 -7.57961e-08)
(0.349106 0.137272 -7.21868e-08)
(0.27777 0.146798 -7.50202e-08)
(0.205148 0.156052 -7.94403e-08)
(0.121207 0.164887 -8.40937e-08)
(0.0505447 0.172615 -8.77234e-08)
(3 1.0359e-07 -2.5439e-09)
(2.99998 5.61991e-07 -8.66716e-09)
(2.99996 2.09805e-06 -1.00463e-08)
(2.99989 5.37756e-06 -1.61108e-08)
(2.99975 1.48975e-05 -1.60063e-08)
(2.99936 3.4232e-05 -2.17675e-08)
(2.9986 8.91935e-05 -2.1961e-08)
(2.99619 0.000202769 -3.02382e-08)
(2.99203 0.00051867 -3.18889e-08)
(2.97611 0.00115702 -5.86011e-08)
(2.94828 0.00323642 -7.25566e-08)
(2.84167 0.00748481 -1.63525e-07)
(2.55366 0.0218189 -1.86865e-07)
(1.85512 0.0574386 -6.18598e-07)
(0.834315 0.159939 -6.53984e-07)
(0.488077 0.149638 5.87983e-08)
(0.555859 0.149641 -1.90584e-08)
(0.574705 0.159837 -7.95139e-08)
(0.524763 0.170212 -8.05654e-08)
(0.439356 0.181514 -7.62701e-08)
(0.355468 0.194423 -6.85294e-08)
(0.284461 0.208701 -6.90371e-08)
(0.211148 0.222905 -7.15604e-08)
(0.125527 0.236182 -7.45605e-08)
(0.0518024 0.246217 -7.7185e-08)
(3 1.19301e-07 -2.51769e-09)
(2.99998 6.48135e-07 -8.67013e-09)
(2.99996 2.41814e-06 -1.00188e-08)
(2.9999 6.19391e-06 -1.61715e-08)
(2.99977 1.71836e-05 -1.58699e-08)
(2.99939 3.92933e-05 -2.18006e-08)
(2.99868 0.000104116 -2.18176e-08)
(2.99639 0.000229757 -3.00923e-08)
(2.99248 0.000630456 -3.16445e-08)
(2.97738 0.00133562 -5.7507e-08)
(2.95134 0.00404548 -7.2874e-08)
(2.84995 0.00888169 -1.58129e-07)
(2.58053 0.030108 -2.04627e-07)
(1.91861 0.0750767 -6.3055e-07)
(0.871162 0.211399 -7.12702e-07)
(0.47919 0.195062 7.1094e-08)
(0.557121 0.192464 -1.23514e-08)
(0.581037 0.204821 -8.04566e-08)
(0.53178 0.218057 -8.17048e-08)
(0.448076 0.233399 -7.64582e-08)
(0.365884 0.250752 -6.57431e-08)
(0.295492 0.270021 -6.40237e-08)
(0.221523 0.289801 -6.48811e-08)
(0.133371 0.308456 -6.64921e-08)
(0.0550483 0.321637 -6.78369e-08)
(3 1.23531e-07 -2.4948e-09)
(2.99998 6.76496e-07 -8.66326e-09)
(2.99996 2.50885e-06 -1.00437e-08)
(2.9999 6.40129e-06 -1.60423e-08)
(2.99978 1.77061e-05 -1.59965e-08)
(2.99943 3.9952e-05 -2.15909e-08)
(2.99876 0.000108739 -2.17226e-08)
(2.99662 0.000221454 -2.93135e-08)
(2.99295 0.000711369 -3.14037e-08)
(2.97891 0.00126741 -5.41005e-08)
(2.95474 0.00494389 -7.07523e-08)
(2.86158 0.00973313 -1.508e-07)
(2.61571 0.038296 -2.08046e-07)
(2.00195 0.0917498 -6.26021e-07)
(0.926224 0.263086 -7.8155e-07)
(0.476652 0.242322 7.78892e-08)
(0.564563 0.236051 -1.17787e-08)
(0.593913 0.249647 -8.18483e-08)
(0.545079 0.265232 -8.25536e-08)
(0.46311 0.284848 -7.57943e-08)
(0.382331 0.307264 -6.31934e-08)
(0.312357 0.332482 -6.00887e-08)
(0.237487 0.359174 -5.96197e-08)
(0.145888 0.385236 -5.96807e-08)
(0.0607673 0.403887 -6.039e-08)
(3 1.39612e-07 -2.48447e-09)
(2.99999 7.64129e-07 -8.63003e-09)
(2.99997 2.83469e-06 -1.01247e-08)
(2.99991 7.24142e-06 -1.59026e-08)
(2.9998 2.00074e-05 -1.62606e-08)
(2.99947 4.5288e-05 -2.15756e-08)
(2.99883 0.000122432 -2.21298e-08)
(2.99689 0.000251376 -3.13085e-08)
(2.99335 0.000806809 -2.90253e-08)
(2.98085 0.00134537 -7.99066e-08)
(2.95858 0.0057689 -1.4476e-08)
(2.87545 0.0107853 -2.06578e-07)
(2.65841 0.0431198 -1.12125e-07)
(2.10437 0.103602 -5.8436e-07)
(1.00188 0.306836 -7.86956e-07)
(0.487937 0.290658 4.38291e-08)
(0.581875 0.282999 -3.03441e-08)
(0.615906 0.296005 -8.57457e-08)
(0.567233 0.312629 -8.48075e-08)
(0.487084 0.336222 -7.55916e-08)
(0.407494 0.364158 -6.26452e-08)
(0.337788 0.396464 -5.82621e-08)
(0.261864 0.432168 -5.65391e-08)
(0.165919 0.46908 -5.54012e-08)
(0.0710242 0.498077 -5.49291e-08)
(3 1.62238e-07 -2.45448e-09)
(2.99999 8.83143e-07 -8.62618e-09)
(2.99997 3.28681e-06 -1.00937e-08)
(2.99992 8.42398e-06 -1.58355e-08)
(2.99981 2.32801e-05 -1.60566e-08)
(2.99952 5.32138e-05 -2.11096e-08)
(2.99893 0.000140518 -2.10986e-08)
(2.99719 0.000307439 -2.71914e-08)
(2.99387 0.000866196 -2.89707e-08)
(2.98299 0.00168409 -4.9817e-08)
(2.96279 0.00588842 -4.33579e-08)
(2.89044 0.0113276 -1.44829e-07)
(2.70414 0.0430304 -1.51808e-07)
(2.21999 0.104762 -5.17653e-07)
(1.10105 0.319608 -7.92198e-07)
(0.524695 0.335628 -8.57713e-09)
(0.613167 0.335679 -5.63535e-08)
(0.648031 0.344922 -8.60395e-08)
(0.599929 0.360986 -8.31217e-08)
(0.522378 0.388511 -7.40707e-08)
(0.443723 0.42246 -6.39e-08)
(0.374304 0.462911 -5.86707e-08)
(0.298117 0.509781 -5.53626e-08)
(0.19831 0.562794 -5.20555e-08)
(0.0893996 0.61282 -5.13566e-08)
(3 1.7443e-07 -2.42672e-09)
(2.99999 9.61651e-07 -8.63025e-09)
(2.99997 3.55953e-06 -1.00943e-08)
(2.99993 9.12814e-06 -1.58315e-08)
(2.99983 2.5105e-05 -1.60261e-08)
(2.99957 5.74384e-05 -2.10386e-08)
(2.99904 0.000149834 -2.08601e-08)
(2.99749 0.000333525 -2.65898e-08)
(2.9945 0.000877276 -2.84312e-08)
(2.98499 0.00191115 -4.09525e-08)
(2.96678 0.00540467 -4.54841e-08)
(2.90447 0.0117374 -1.2441e-07)
(2.74607 0.0375068 -1.1101e-07)
(2.32709 0.0923004 -3.79255e-07)
(1.21649 0.281554 -4.76524e-07)
(0.584948 0.369712 -1.79018e-07)
(0.648174 0.394013 -1.18408e-07)
(0.679939 0.394011 -8.23324e-08)
(0.638179 0.410308 -8.04237e-08)
(0.567132 0.440881 -7.38798e-08)
(0.491443 0.481959 -6.65546e-08)
(0.423851 0.531192 -6.10583e-08)
(0.35052 0.591314 -5.75857e-08)
(0.252448 0.669081 -5.05289e-08)
(0.124827 0.762823 -4.92941e-08)
(3 2.97558e-07 -2.46207e-09)
(2.99999 6.11308e-07 -8.58274e-09)
(2.99998 4.43818e-06 -1.02235e-08)
(2.99993 6.73206e-06 -1.58942e-08)
(2.99985 3.06968e-05 -1.61423e-08)
(2.99962 4.33e-05 -2.11226e-08)
(2.99916 0.000184264 -2.09311e-08)
(2.9978 0.000244184 -2.66143e-08)
(2.99519 0.00111765 -2.83192e-08)
(2.98672 0.00118798 -4.12086e-08)
(2.97112 0.00736287 -4.13272e-08)
(2.91576 0.00568409 -1.28122e-07)
(2.77747 0.0471208 -7.42747e-08)
(2.40418 0.0662532 -3.78088e-07)
(1.34425 0.256262 -4.08966e-07)
(0.652257 0.4217 -3.64677e-07)
(0.665551 0.449209 -2.08716e-07)
(0.691619 0.443117 -4.08949e-08)
(0.670435 0.460766 -6.49092e-08)
(0.613621 0.492236 -7.16175e-08)
(0.547004 0.540108 -6.9392e-08)
(0.485869 0.598014 -6.62313e-08)
(0.4247 0.676408 -5.97992e-08)
(0.344981 0.796082 -4.93353e-08)
(0.193337 1.00403 -4.85729e-08)
(2.99999 1.72769e-08 -4.55162e-13)
(2.99998 9.31356e-08 -2.37458e-12)
(2.99995 3.48167e-07 -5.54993e-12)
(2.99988 8.98033e-07 -1.16695e-11)
(2.99973 2.47373e-06 -2.39724e-11)
(2.9993 5.73884e-06 -4.62772e-11)
(2.99847 1.45182e-05 -1.02457e-10)
(2.99588 3.50578e-05 -2.1991e-10)
(2.99129 7.69575e-05 -4.51489e-10)
(2.97427 0.000203711 -1.20128e-09)
(2.94369 0.000412035 -2.13609e-09)
(2.82961 0.00106723 -6.00954e-09)
(2.51559 0.00294595 -1.40755e-08)
(1.76563 0.00747746 -3.51625e-08)
(0.781355 0.0210249 -4.60582e-08)
(0.502033 0.0213061 2.67754e-09)
(0.556782 0.0225724 -1.24639e-09)
(0.569665 0.0248483 -4.73185e-09)
(0.520144 0.027077 -4.82575e-09)
(0.433279 0.0292232 -4.61485e-09)
(0.347164 0.0318049 -4.30347e-09)
(0.276334 0.0349687 -4.27054e-09)
(0.205644 0.038383 -4.27775e-09)
(0.124386 0.0425015 -4.22817e-09)
(0.0557625 0.0488918 -4.14329e-09)
(2.99999 4.9557e-08 -4.53358e-13)
(2.99998 2.6819e-07 -2.35539e-12)
(2.99996 1.00115e-06 -5.49683e-12)
(2.99988 2.57206e-06 -1.16846e-11)
(2.99974 7.0964e-06 -2.36395e-11)
(2.99931 1.63815e-05 -4.60269e-11)
(2.99849 4.18396e-05 -1.01717e-10)
(2.99593 9.85365e-05 -2.18435e-10)
(2.99143 0.000229248 -4.51959e-10)
(2.97455 0.000567393 -1.18557e-09)
(2.94443 0.00130335 -2.17724e-09)
(2.83155 0.00318875 -5.95756e-09)
(2.52127 0.00925613 -1.42222e-08)
(1.77876 0.0234224 -3.54006e-08)
(0.788889 0.0645496 -4.66544e-08)
(0.498867 0.0623357 2.88761e-09)
(0.555457 0.063423 -1.19933e-09)
(0.569038 0.0677905 -4.70048e-09)
(0.519135 0.0718471 -4.77664e-09)
(0.432228 0.0756313 -4.54947e-09)
(0.346311 0.0801711 -4.23747e-09)
(0.275065 0.0854827 -4.2072e-09)
(0.203276 0.0905929 -4.23165e-09)
(0.120533 0.0957879 -4.20154e-09)
(0.0515127 0.101682 -4.15399e-09)
(2.99999 7.84201e-08 -4.39115e-13)
(2.99998 4.25541e-07 -2.29172e-12)
(2.99996 1.58702e-06 -5.2819e-12)
(2.99989 4.06846e-06 -1.12281e-11)
(2.99974 1.12392e-05 -2.22766e-11)
(2.99933 2.58455e-05 -4.29739e-11)
(2.99854 6.67076e-05 -9.55422e-11)
(2.99603 0.000153267 -1.90505e-10)
(2.99168 0.000378636 -4.65328e-10)
(2.97516 0.000872107 -9.48129e-10)
(2.94593 0.00228637 -2.65147e-09)
(2.8357 0.00537885 -5.79828e-09)
(2.53399 0.0154903 -1.34013e-08)
(1.80877 0.040404 -3.69374e-08)
(0.807734 0.111674 -4.78145e-08)
(0.495477 0.105895 3.33524e-09)
(0.55589 0.106765 -1.23498e-09)
(0.571165 0.114131 -4.74001e-09)
(0.520902 0.121333 -4.75145e-09)
(0.434322 0.128717 -4.46228e-09)
(0.349106 0.137272 -4.15659e-09)
(0.27777 0.146798 -4.14433e-09)
(0.205148 0.156052 -4.18322e-09)
(0.121207 0.164887 -4.20566e-09)
(0.0505447 0.172615 -4.21923e-09)
(3 1.03592e-07 -4.33535e-13)
(2.99998 5.61999e-07 -2.26123e-12)
(2.99996 2.09808e-06 -5.20271e-12)
(2.99989 5.37763e-06 -1.10603e-11)
(2.99975 1.48977e-05 -2.19236e-11)
(2.99936 3.42325e-05 -4.23199e-11)
(2.9986 8.91944e-05 -9.43448e-11)
(2.99619 0.000202772 -1.89485e-10)
(2.99203 0.000518673 -4.62573e-10)
(2.97611 0.00115704 -9.50956e-10)
(2.94828 0.00323643 -2.69139e-09)
(2.84167 0.00748487 -5.80566e-09)
(2.55366 0.0218186 -1.38209e-08)
(1.85511 0.0574383 -3.7758e-08)
(0.834312 0.159938 -5.01505e-08)
(0.488079 0.149637 4.34626e-09)
(0.55586 0.149641 -9.96036e-10)
(0.574706 0.159837 -4.70087e-09)
(0.524763 0.170212 -4.66962e-09)
(0.439356 0.181514 -4.33004e-09)
(0.355468 0.194423 -4.01233e-09)
(0.284461 0.208701 -4.02774e-09)
(0.211148 0.222905 -4.09341e-09)
(0.125527 0.236182 -4.16344e-09)
(0.0518024 0.246217 -4.2549e-09)
(3 1.19303e-07 -4.12153e-13)
(2.99998 6.48142e-07 -2.16746e-12)
(2.99996 2.41817e-06 -4.88352e-12)
(2.9999 6.19398e-06 -1.03704e-11)
(2.99977 1.71838e-05 -1.98901e-11)
(2.99939 3.92937e-05 -3.76374e-11)
(2.99868 0.000104117 -8.48017e-11)
(2.99639 0.00022976 -1.50758e-10)
(2.99248 0.000630459 -4.61269e-10)
(2.97738 0.00133563 -7.33291e-10)
(2.95134 0.00404549 -2.76987e-09)
(2.84995 0.00888175 -4.73502e-09)
(2.58053 0.0301078 -1.81405e-08)
(1.9186 0.0750765 -3.81912e-08)
(0.871158 0.211398 -5.51623e-08)
(0.479192 0.195062 5.42313e-09)
(0.557121 0.192464 -1.69602e-10)
(0.581037 0.204821 -4.44272e-09)
(0.53178 0.218057 -4.45759e-09)
(0.448076 0.233399 -4.12391e-09)
(0.365884 0.250752 -3.75435e-09)
(0.295492 0.270021 -3.79776e-09)
(0.221524 0.289802 -3.9359e-09)
(0.133371 0.308456 -4.08382e-09)
(0.0550483 0.321637 -4.21835e-09)
(3 1.23533e-07 -4.07379e-13)
(2.99998 6.76502e-07 -2.14456e-12)
(2.99996 2.50887e-06 -4.82598e-12)
(2.9999 6.40137e-06 -1.02337e-11)
(2.99978 1.77063e-05 -1.9669e-11)
(2.99943 3.99524e-05 -3.72701e-11)
(2.99876 0.00010874 -8.42709e-11)
(2.99662 0.000221457 -1.52464e-10)
(2.99295 0.000711372 -4.59716e-10)
(2.97891 0.00126743 -7.51971e-10)
(2.95474 0.00494388 -2.82109e-09)
(2.86158 0.00973317 -4.81503e-09)
(2.61571 0.038296 -1.85298e-08)
(2.00194 0.0917499 -3.9307e-08)
(0.926219 0.263086 -6.07982e-08)
(0.476653 0.242321 6.71087e-09)
(0.564562 0.236051 5.34614e-10)
(0.593912 0.249647 -4.38763e-09)
(0.545079 0.265232 -4.39802e-09)
(0.463109 0.284848 -3.97588e-09)
(0.382331 0.307264 -3.47059e-09)
(0.312357 0.332482 -3.50159e-09)
(0.237487 0.359174 -3.65764e-09)
(0.145888 0.385236 -3.83679e-09)
(0.0607673 0.403887 -4.04937e-09)
(3 1.39612e-07 -3.84307e-13)
(2.99999 7.64132e-07 -2.06392e-12)
(2.99997 2.8347e-06 -4.53158e-12)
(2.99991 7.24146e-06 -9.38201e-12)
(2.9998 2.00075e-05 -1.775e-11)
(2.99947 4.52881e-05 -3.22463e-11)
(2.99883 0.000122432 -7.35737e-11)
(2.99689 0.000251377 -1.07506e-10)
(2.99335 0.000806812 -4.68733e-10)
(2.98085 0.00134538 -3.37332e-10)
(2.95858 0.00576891 -3.44482e-09)
(2.87545 0.0107854 -3.78149e-09)
(2.65841 0.04312 -1.92463e-08)
(2.10436 0.103602 -3.89974e-08)
(1.00188 0.306836 -6.63006e-08)
(0.487937 0.290658 5.56483e-09)
(0.581874 0.282999 7.97894e-10)
(0.615905 0.296004 -4.16424e-09)
(0.567232 0.312629 -4.27459e-09)
(0.487084 0.336222 -3.91522e-09)
(0.407494 0.364158 -3.27654e-09)
(0.337788 0.396464 -3.25725e-09)
(0.261864 0.432168 -3.41224e-09)
(0.165919 0.46908 -3.63196e-09)
(0.0710243 0.498077 -3.84337e-09)
(3 1.62238e-07 -3.9458e-13)
(2.99999 8.83144e-07 -2.09692e-12)
(2.99997 3.28681e-06 -4.68466e-12)
(2.99992 8.42398e-06 -9.75472e-12)
(2.99981 2.32801e-05 -1.88995e-11)
(2.99952 5.32137e-05 -3.53822e-11)
(2.99893 0.000140519 -7.79525e-11)
(2.99719 0.000307438 -1.46098e-10)
(2.99387 0.000866202 -4.17036e-10)
(2.98299 0.00168407 -6.02171e-10)
(2.96279 0.00588849 -2.82264e-09)
(2.89044 0.0113276 -3.78306e-09)
(2.70414 0.043031 -1.71213e-08)
(2.21999 0.104763 -3.62139e-08)
(1.10104 0.319613 -6.92709e-08)
(0.524692 0.335628 9.39027e-10)
(0.613165 0.335678 -1.64507e-09)
(0.648029 0.344921 -4.36717e-09)
(0.599928 0.360986 -4.29392e-09)
(0.522376 0.38851 -3.93278e-09)
(0.443722 0.42246 -3.31765e-09)
(0.374303 0.462911 -3.19162e-09)
(0.298117 0.509781 -3.24455e-09)
(0.19831 0.562794 -3.35992e-09)
(0.0893996 0.61282 -3.60748e-09)
(3 1.74431e-07 -3.83832e-13)
(2.99999 9.61656e-07 -2.0482e-12)
(2.99997 3.55955e-06 -4.5214e-12)
(2.99993 9.12819e-06 -9.40098e-12)
(2.99983 2.51052e-05 -1.77889e-11)
(2.99957 5.74388e-05 -3.31036e-11)
(2.99904 0.000149835 -7.05189e-11)
(2.99749 0.000333527 -1.34124e-10)
(2.9945 0.000877283 -3.4191e-10)
(2.98499 0.00191116 -6.65133e-10)
(2.96678 0.00540474 -1.85234e-09)
(2.90447 0.0117375 -4.10521e-09)
(2.74607 0.0375075 -1.07171e-08)
(2.32708 0.0923017 -2.47534e-08)
(1.21648 0.28156 -4.15919e-08)
(0.584947 0.369712 -1.42257e-08)
(0.648174 0.394011 -7.89364e-09)
(0.679938 0.39401 -4.51316e-09)
(0.638178 0.410307 -4.48197e-09)
(0.567131 0.44088 -4.29832e-09)
(0.491442 0.481959 -3.79065e-09)
(0.42385 0.531191 -3.55866e-09)
(0.350519 0.591314 -3.48119e-09)
(0.252447 0.669081 -3.34155e-09)
(0.124827 0.762823 -3.55659e-09)
(3 2.97557e-07 -3.76928e-13)
(2.99999 6.1132e-07 -2.01382e-12)
(2.99998 4.43819e-06 -4.40653e-12)
(2.99993 6.73213e-06 -9.1257e-12)
(2.99985 3.06969e-05 -1.69823e-11)
(2.99962 4.33004e-05 -3.13478e-11)
(2.99916 0.000184265 -6.57725e-11)
(2.9978 0.000244186 -1.24365e-10)
(2.99519 0.00111766 -3.13159e-10)
(2.98672 0.00118799 -6.30396e-10)
(2.97112 0.00736292 -1.53944e-09)
(2.91576 0.00568419 -4.24533e-09)
(2.77747 0.0471211 -8.09687e-09)
(2.40418 0.066254 -2.46255e-08)
(1.34424 0.256264 -3.72696e-08)
(0.652254 0.421699 -3.13915e-08)
(0.665552 0.449208 -1.68784e-08)
(0.69162 0.443116 -1.22824e-09)
(0.670435 0.460766 -3.60894e-09)
(0.61362 0.492235 -4.35956e-09)
(0.547003 0.540107 -4.37636e-09)
(0.485869 0.598013 -4.2317e-09)
(0.4247 0.676408 -3.9739e-09)
(0.344981 0.796081 -3.6494e-09)
(0.193337 1.00403 -4.18e-09)
(2.99999 1.72769e-08 -5.36315e-14)
(2.99998 9.31356e-08 -2.3694e-13)
(2.99995 3.48167e-07 -7.89975e-13)
(2.99988 8.98033e-07 -1.72052e-12)
(2.99973 2.47374e-06 -4.88074e-12)
(2.9993 5.73884e-06 -1.01847e-11)
(2.99847 1.45182e-05 -2.73632e-11)
(2.99588 3.50578e-05 -6.26375e-11)
(2.99129 7.69575e-05 -1.36028e-10)
(2.97427 0.000203711 -3.77288e-10)
(2.94369 0.000412035 -6.8591e-10)
(2.82961 0.00106723 -1.95164e-09)
(2.51559 0.00294595 -4.6758e-09)
(1.76563 0.00747746 -1.17234e-08)
(0.781355 0.0210249 -1.55058e-08)
(0.502034 0.0213061 9.0935e-10)
(0.556782 0.0225724 -2.93918e-10)
(0.569665 0.0248483 -1.4031e-09)
(0.520144 0.027077 -1.42442e-09)
(0.433279 0.0292232 -1.33393e-09)
(0.347164 0.0318049 -1.16356e-09)
(0.276334 0.0349687 -1.11542e-09)
(0.205644 0.038383 -1.06222e-09)
(0.124386 0.0425015 -1.02799e-09)
(0.0557625 0.0488918 -9.84177e-10)
(2.99999 4.95571e-08 -5.27842e-14)
(2.99998 2.6819e-07 -2.33701e-13)
(2.99996 1.00115e-06 -7.80355e-13)
(2.99988 2.57206e-06 -1.68887e-12)
(2.99974 7.0964e-06 -4.83843e-12)
(2.99931 1.63815e-05 -1.00706e-11)
(2.99849 4.18396e-05 -2.71616e-11)
(2.99593 9.85365e-05 -6.22033e-11)
(2.99143 0.000229248 -1.36095e-10)
(2.97455 0.000567393 -3.72695e-10)
(2.94443 0.00130335 -6.98754e-10)
(2.83155 0.00318875 -1.93598e-09)
(2.52127 0.00925613 -4.72521e-09)
(1.77876 0.0234224 -1.18077e-08)
(0.788888 0.0645496 -1.5715e-08)
(0.498867 0.0623357 9.75104e-10)
(0.555457 0.063423 -2.78223e-10)
(0.569038 0.0677905 -1.39446e-09)
(0.519135 0.0718471 -1.41149e-09)
(0.432228 0.0756313 -1.31753e-09)
(0.346311 0.0801711 -1.14702e-09)
(0.275065 0.0854827 -1.09897e-09)
(0.203276 0.0905929 -1.04961e-09)
(0.120533 0.095788 -1.01938e-09)
(0.0515127 0.101682 -9.8335e-10)
(2.99999 7.84201e-08 -4.8257e-14)
(2.99998 4.25541e-07 -2.14631e-13)
(2.99996 1.58702e-06 -7.12404e-13)
(2.99989 4.06847e-06 -1.54153e-12)
(2.99974 1.12392e-05 -4.39502e-12)
(2.99933 2.58455e-05 -9.05605e-12)
(2.99854 6.67076e-05 -2.51311e-11)
(2.99603 0.000153267 -5.27815e-11)
(2.99168 0.000378636 -1.40944e-10)
(2.97516 0.000872107 -2.92979e-10)
(2.94593 0.00228637 -8.55884e-10)
(2.8357 0.00537885 -1.88275e-09)
(2.53399 0.0154903 -4.46298e-09)
(1.80877 0.040404 -1.23219e-08)
(0.807734 0.111674 -1.61301e-08)
(0.495477 0.105895 1.11375e-09)
(0.55589 0.106765 -2.87011e-10)
(0.571165 0.114131 -1.40985e-09)
(0.520902 0.121333 -1.40977e-09)
(0.434322 0.128717 -1.30048e-09)
(0.349106 0.137272 -1.13109e-09)
(0.27777 0.146798 -1.08718e-09)
(0.205148 0.156052 -1.04063e-09)
(0.121207 0.164887 -1.02293e-09)
(0.0505447 0.172615 -1.0013e-09)
(3 1.03592e-07 -4.65694e-14)
(2.99998 5.61999e-07 -2.06468e-13)
(2.99996 2.09808e-06 -6.89177e-13)
(2.99989 5.37763e-06 -1.49045e-12)
(2.99975 1.48977e-05 -4.28707e-12)
(2.99936 3.42325e-05 -8.85207e-12)
(2.9986 8.91944e-05 -2.47559e-11)
(2.99619 0.000202772 -5.24638e-11)
(2.99203 0.000518673 -1.40175e-10)
(2.97611 0.00115704 -2.93995e-10)
(2.94828 0.00323643 -8.69945e-10)
(2.84167 0.00748488 -1.88673e-09)
(2.55366 0.0218186 -4.61022e-09)
(1.85511 0.0574383 -1.26107e-08)
(0.834311 0.159938 -1.6949e-08)
(0.488079 0.149637 1.43372e-09)
(0.55586 0.149641 -2.05694e-10)
(0.574706 0.159837 -1.40444e-09)
(0.524763 0.170212 -1.39597e-09)
(0.439356 0.181514 -1.277e-09)
(0.355468 0.194423 -1.10238e-09)
(0.284461 0.208701 -1.06622e-09)
(0.211148 0.222905 -1.02715e-09)
(0.125527 0.236182 -1.02272e-09)
(0.0518024 0.246217 -1.01962e-09)
(3 1.19303e-07 -3.98965e-14)
(2.99998 6.48142e-07 -1.7829e-13)
(2.99996 2.41817e-06 -5.8924e-13)
(2.9999 6.19398e-06 -1.27244e-12)
(2.99977 1.71838e-05 -3.63947e-12)
(2.99939 3.92937e-05 -7.34987e-12)
(2.99868 0.000104117 -2.16889e-11)
(2.99639 0.00022976 -3.99092e-11)
(2.99248 0.000630459 -1.39945e-10)
(2.97738 0.00133563 -2.23174e-10)
(2.95134 0.00404549 -8.96375e-10)
(2.84995 0.00888175 -1.5368e-09)
(2.58053 0.0301077 -6.034e-09)
(1.9186 0.0750765 -1.27675e-08)
(0.871158 0.211398 -1.86404e-08)
(0.479192 0.195062 1.77691e-09)
(0.557121 0.192464 6.17976e-11)
(0.581037 0.204821 -1.33348e-09)
(0.53178 0.218057 -1.34476e-09)
(0.448076 0.233399 -1.23555e-09)
(0.365884 0.250752 -1.04328e-09)
(0.295492 0.270021 -1.0171e-09)
(0.221524 0.289802 -9.98905e-10)
(0.133371 0.308456 -1.01539e-09)
(0.0550483 0.321637 -1.02416e-09)
(3 1.23533e-07 -3.87419e-14)
(2.99998 6.76503e-07 -1.7229e-13)
(2.99996 2.50887e-06 -5.74061e-13)
(2.9999 6.40137e-06 -1.23877e-12)
(2.99978 1.77063e-05 -3.58693e-12)
(2.99943 3.99524e-05 -7.27316e-12)