/*--------------------------------*- C++ -*----------------------------------*\
| =========                 |                                                 |
| \\      /  F ield         | OpenFOAM: The Open Source CFD Toolbox           |
|  \\    /   O peration     | Version:  4.1                                   |
|   \\  /    A nd           | Web:      www.OpenFOAM.org                      |
|    \\/     M anipulation  |                                                 |
\*---------------------------------------------------------------------------*/
FoamFile
{
    version     2.0;
    format      ascii;
    class       volScalarField;
    location    "4.86";
    object      T;
}
// * * * * * * * * * * * * * * * * * * * * * * * * * * * * * * * * * * * * * //

dimensions      [0 0 0 1 0 0 0];

internalField   nonuniform List<scalar> 
52500
(
0.999995
1.00002
1.00004
1.00015
1.00028
1.0009
1.00167
1.00494
1.0104
1.02676
1.07255
1.15993
1.50256
2.27707
2.64347
2.73158
2.72563
2.72128
2.73612
2.74798
2.76144
2.76956
2.77649
2.78133
2.78447
0.999995
1.00002
1.00004
1.00015
1.00027
1.00089
1.00165
1.00487
1.01026
1.02636
1.07151
1.15755
1.49563
2.26422
2.63987
2.73156
2.72545
2.72084
2.73552
2.74726
2.76045
2.76828
2.77518
2.779
2.78138
0.999995
1.00002
1.00004
1.00014
1.00027
1.00086
1.0016
1.00475
1.00995
1.02571
1.06922
1.15346
1.4777
2.2334
2.62978
2.72988
2.72362
2.71841
2.7332
2.74465
2.7581
2.76507
2.772
2.77659
2.77785
0.999995
1.00002
1.00004
1.00014
1.00026
1.00083
1.00154
1.00457
1.00949
1.02469
1.06578
1.14723
1.4506
2.18479
2.61364
2.72674
2.72009
2.71362
2.72817
2.73998
2.75367
2.76139
2.7668
2.76983
2.7732
0.999995
1.00001
1.00003
1.00013
1.00024
1.0008
1.00146
1.00446
1.00887
1.02393
1.06023
1.13894
1.41239
2.11464
2.59053
2.72167
2.71537
2.70595
2.72133
2.73023
2.74437
2.75212
2.76027
2.76397
2.7634
0.999995
1.00001
1.00003
1.00012
1.00023
1.00075
1.00136
1.00424
1.00814
1.02292
1.05366
1.12892
1.36786
2.02524
2.55911
2.71379
2.70728
2.69728
2.71359
2.72372
2.73413
2.7425
2.74714
2.74979
2.75367
0.999995
1.00001
1.00003
1.00011
1.00021
1.00068
1.00124
1.00388
1.0074
1.02112
1.04761
1.11836
1.32219
1.92472
2.51464
2.69807
2.68919
2.67899
2.69575
2.7096
2.72179
2.72736
2.73515
2.73744
2.73404
0.999995
1.00001
1.00003
1.0001
1.00019
1.00062
1.00113
1.00353
1.0067
1.01928
1.0428
1.10782
1.28816
1.83509
2.49118
2.68856
2.68
2.66762
2.6819
2.69122
2.70485
2.70893
2.71037
2.71009
2.71024
0.999995
1.00001
1.00002
1.00009
1.00017
1.00055
1.00101
1.00316
1.00598
1.0172
1.03866
1.09463
1.26301
1.71754
2.45769
2.67563
2.65885
2.66022
2.66815
2.67327
2.68374
2.68786
2.68905
2.68282
2.65789
0.999994
1.00001
1.00002
1.00007
1.00014
1.00045
1.00086
1.00242
1.00534
1.01323
1.03606
1.07924
1.24414
1.60597
2.37041
2.64505
2.65432
2.6523
2.65287
2.65896
2.65884
2.65678
2.64758
2.62712
2.57902
1
1.00003
1.00005
1.00016
1.00029
1.00091
1.00168
1.00495
1.01041
1.02677
1.07257
1.15997
1.50259
2.2772
2.64354
2.73165
2.7257
2.72135
2.73619
2.74805
2.76151
2.76964
2.77656
2.78141
2.78455
1
1.00002
1.00005
1.00016
1.00028
1.0009
1.00166
1.00488
1.01027
1.02638
1.07152
1.15759
1.49567
2.26435
2.63994
2.73163
2.72552
2.72092
2.73559
2.74733
2.76053
2.76835
2.77526
2.77908
2.78146
1
1.00002
1.00005
1.00015
1.00027
1.00087
1.00161
1.00476
1.00996
1.02573
1.06923
1.1535
1.47774
2.23352
2.62986
2.72995
2.72369
2.71848
2.73328
2.74473
2.75818
2.76514
2.77208
2.77667
2.77793
1
1.00002
1.00004
1.00015
1.00026
1.00084
1.00154
1.00458
1.0095
1.02471
1.0658
1.14726
1.45064
2.18492
2.61371
2.72681
2.72016
2.71369
2.72824
2.74005
2.75374
2.76146
2.76687
2.76991
2.77327
1
1.00002
1.00004
1.00014
1.00025
1.0008
1.00146
1.00447
1.00887
1.02395
1.06023
1.13897
1.41239
2.11473
2.5906
2.72173
2.71544
2.70602
2.7214
2.7303
2.74444
2.75218
2.76034
2.76405
2.76348
1
1.00002
1.00004
1.00013
1.00024
1.00075
1.00137
1.00425
1.00815
1.02293
1.05367
1.12896
1.36788
2.02534
2.55918
2.71386
2.70735
2.69735
2.71366
2.72379
2.7342
2.74257
2.74721
2.74987
2.75375
1
1.00002
1.00004
1.00012
1.00022
1.00069
1.00125
1.00389
1.00741
1.02113
1.04762
1.11839
1.32222
1.92483
2.51471
2.69814
2.68926
2.67906
2.69582
2.70967
2.72186
2.72743
2.73522
2.73751
2.73411
1
1.00002
1.00003
1.00011
1.0002
1.00063
1.00114
1.00353
1.00671
1.01929
1.04281
1.10785
1.28817
1.83518
2.4912
2.68862
2.68007
2.66769
2.68197
2.6913
2.70492
2.709
2.71043
2.71015
2.71031
1
1.00002
1.00003
1.0001
1.00018
1.00056
1.00101
1.00317
1.00599
1.01721
1.03867
1.09466
1.26302
1.71765
2.45773
2.67569
2.6589
2.66028
2.66821
2.67333
2.68381
2.68792
2.68911
2.68288
2.65795
1
1.00001
1.00002
1.00008
1.00015
1.00046
1.00086
1.00243
1.00535
1.01325
1.03607
1.07927
1.24415
1.60604
2.37048
2.64512
2.65437
2.65235
2.65292
2.65902
2.6589
2.65685
2.64764
2.62718
2.57908
1
1.00003
1.00005
1.00016
1.00029
1.00091
1.00168
1.00495
1.01041
1.02677
1.07257
1.15997
1.5026
2.2772
2.64354
2.73165
2.7257
2.72135
2.73619
2.74805
2.76151
2.76964
2.77656
2.78141
2.78455
1
1.00002
1.00005
1.00016
1.00028
1.0009
1.00166
1.00488
1.01027
1.02638
1.07152
1.15759
1.49567
2.26435
2.63994
2.73163
2.72552
2.72092
2.73559
2.74733
2.76053
2.76835
2.77526
2.77908
2.78146
1
1.00002
1.00005
1.00015
1.00027
1.00087
1.00161
1.00476
1.00996
1.02573
1.06923
1.1535
1.47774
2.23352
2.62986
2.72995
2.72369
2.71848
2.73328
2.74473
2.75818
2.76514
2.77208
2.77667
2.77793
1
1.00002
1.00004
1.00015
1.00026
1.00084
1.00154
1.00458
1.0095
1.02471
1.0658
1.14726
1.45064
2.18493
2.61371
2.72681
2.72016
2.71369
2.72824
2.74005
2.75374
2.76146
2.76687
2.76991
2.77327
1
1.00002
1.00004
1.00014
1.00025
1.0008
1.00146
1.00447
1.00887
1.02395
1.06023
1.13897
1.41239
2.11474
2.5906
2.72173
2.71544
2.70602
2.7214
2.7303
2.74444
2.75218
2.76034
2.76405
2.76348
1
1.00002
1.00004
1.00013
1.00024
1.00075
1.00137
1.00425
1.00815
1.02293
1.05367
1.12896
1.36788
2.02534
2.55918
2.71386
2.70735
2.69735
2.71366
2.72379
2.7342
2.74257
2.74721
2.74987
2.75375
1
1.00002
1.00004
1.00012
1.00022
1.00069
1.00125
1.00389
1.00741
1.02113
1.04762
1.11839
1.32222
1.92483
2.51471
2.69815
2.68926
2.67906
2.69582
2.70967
2.72186
2.72743
2.73522
2.73751
2.73411
1
1.00002
1.00003
1.00011
1.0002
1.00063
1.00114
1.00353
1.00671
1.01929
1.04281
1.10785
1.28817
1.83518
2.4912
2.68862
2.68007
2.66769
2.68197
2.6913
2.70492
2.709
2.71043
2.71015
2.71031
1
1.00002
1.00003
1.0001
1.00018
1.00056
1.00101
1.00317
1.00599
1.01721
1.03867
1.09466
1.26302
1.71765
2.45773
2.67569
2.6589
2.66028
2.66821
2.67333
2.68381
2.68792
2.68911
2.68288
2.65795
1
1.00001
1.00002
1.00008
1.00015
1.00046
1.00086
1.00243
1.00535
1.01325
1.03607
1.07927
1.24415
1.60604
2.37048
2.64512
2.65437
2.65235
2.65292
2.65902
2.6589
2.65685
2.64764
2.62718
2.57908
1
1.00003
1.00005
1.00016
1.00029
1.00091
1.00168
1.00495
1.01041
1.02677
1.07257
1.15997
1.5026
2.2772
2.64354
2.73165
2.7257
2.72135
2.73619
2.74805
2.76151
2.76964
2.77656
2.78141
2.78455
1
1.00002
1.00005
1.00016
1.00028
1.0009
1.00166
1.00488
1.01027
1.02638
1.07152
1.15759
1.49567
2.26435
2.63994
2.73163
2.72552
2.72092
2.73559
2.74733
2.76053
2.76835
2.77526
2.77908
2.78146
1
1.00002
1.00005
1.00015
1.00027
1.00087
1.00161
1.00476
1.00996
1.02573
1.06923
1.1535
1.47774
2.23353
2.62986
2.72995
2.72369
2.71848
2.73328
2.74473
2.75818
2.76514
2.77208
2.77667
2.77793
1
1.00002
1.00004
1.00015
1.00026
1.00084
1.00154
1.00458
1.0095
1.02471
1.0658
1.14726
1.45064
2.18493
2.61371
2.72681
2.72016
2.71369
2.72824
2.74005
2.75374
2.76146
2.76687
2.76991
2.77327
1
1.00002
1.00004
1.00014
1.00025
1.0008
1.00146
1.00447
1.00887
1.02395
1.06023
1.13897
1.41239
2.11474
2.5906
2.72173
2.71544
2.70602
2.7214
2.7303
2.74444
2.75218
2.76034
2.76405
2.76348
1
1.00002
1.00004
1.00013
1.00024
1.00075
1.00137
1.00425
1.00815
1.02293
1.05367
1.12896
1.36788
2.02534
2.55918
2.71386
2.70735
2.69735
2.71366
2.72379
2.7342
2.74257
2.74721
2.74987
2.75375
1
1.00002
1.00004
1.00012
1.00022
1.00069
1.00125
1.00389
1.00741
1.02113
1.04762
1.11839
1.32222
1.92483
2.51471
2.69815
2.68926
2.67906
2.69582
2.70967
2.72186
2.72743
2.73522
2.73751
2.73411
1
1.00002
1.00003
1.00011
1.0002
1.00063
1.00114
1.00353
1.00671
1.01929
1.04281
1.10785
1.28817
1.83519
2.4912
2.68862
2.68007
2.66769
2.68197
2.6913
2.70492
2.709
2.71043
2.71015
2.71031
1
1.00002
1.00003
1.0001
1.00018
1.00056
1.00101
1.00317
1.00599
1.01721
1.03867
1.09466
1.26302
1.71765
2.45773
2.67569
2.6589
2.66028
2.66821
2.67333
2.68381
2.68792
2.68911
2.68288
2.65795
1
1.00001
1.00002
1.00008
1.00015
1.00046
1.00086
1.00243
1.00535
1.01325
1.03607
1.07927
1.24415
1.60604
2.37048
2.64512
2.65437
2.65235
2.65292
2.65902
2.6589
2.65685
2.64764
2.62718
2.57908
1
1.00003
1.00005
1.00016
1.00029
1.00091
1.00168
1.00495
1.01041
1.02677
1.07257
1.15997
1.5026
2.2772
2.64354
2.73165
2.7257
2.72135
2.73619
2.74805
2.76151
2.76964
2.77656
2.78141
2.78455
1
1.00002
1.00005
1.00016
1.00028
1.0009
1.00166
1.00488
1.01027
1.02638
1.07152
1.15759
1.49567
2.26435
2.63994
2.73163
2.72552
2.72092
2.73559
2.74733
2.76053
2.76835
2.77526
2.77908
2.78146
1
1.00002
1.00005
1.00015
1.00027
1.00087
1.00161
1.00476
1.00996
1.02573
1.06923
1.1535
1.47774
2.23353
2.62986
2.72995
2.72369
2.71848
2.73328
2.74473
2.75818
2.76514
2.77208
2.77667
2.77793
1
1.00002
1.00004
1.00015
1.00026
1.00084
1.00154
1.00458
1.0095
1.02471
1.0658
1.14726
1.45064
2.18493
2.61371
2.72681
2.72016
2.71369
2.72824
2.74005
2.75374
2.76146
2.76687
2.76991
2.77327
1
1.00002
1.00004
1.00014
1.00025
1.0008
1.00146
1.00447
1.00887
1.02395
1.06023
1.13897
1.41239
2.11474
2.5906
2.72173
2.71544
2.70602
2.7214
2.7303
2.74444
2.75218
2.76034
2.76405
2.76348
1
1.00002
1.00004
1.00013
1.00024
1.00075
1.00137
1.00425
1.00815
1.02293
1.05367
1.12896
1.36788
2.02534
2.55918
2.71386
2.70735
2.69735
2.71366
2.72379
2.7342
2.74257
2.74721
2.74987
2.75375
1
1.00002
1.00004
1.00012
1.00022
1.00069
1.00125
1.00389
1.00741
1.02113
1.04762
1.11839
1.32222
1.92483
2.51471
2.69815
2.68926
2.67906
2.69582
2.70967
2.72186
2.72743
2.73522
2.73751
2.73411
1
1.00002
1.00003
1.00011
1.0002
1.00063
1.00114
1.00353
1.00671
1.01929
1.04281
1.10785
1.28817
1.83519
2.4912
2.68862
2.68007
2.66769
2.68197
2.6913
2.70492
2.709
2.71043
2.71015
2.71031
1
1.00002
1.00003
1.0001
1.00018
1.00056
1.00101
1.00317
1.00599
1.01721
1.03867
1.09466
1.26302
1.71765
2.45773
2.67569
2.6589
2.66028
2.66821
2.67333
2.68381
2.68792
2.68911
2.68288
2.65795
1
1.00001
1.00002
1.00008
1.00015
1.00046
1.00086
1.00243
1.00535
1.01325
1.03607
1.07927
1.24415
1.60604
2.37048
2.64512
2.65437
2.65235
2.65292
2.65902
2.6589
2.65685
2.64764
2.62718
2.57908
1
1.00003
1.00005
1.00016
1.00029
1.00091
1.00168
1.00495
1.01041
1.02677
1.07257
1.15997
1.5026
2.2772
2.64354
2.73165
2.7257
2.72135
2.73619
2.74805
2.76151
2.76964
2.77656
2.78141
2.78455
1
1.00002
1.00005
1.00016
1.00028
1.0009
1.00166
1.00488
1.01027
1.02638
1.07152
1.15759
1.49567
2.26435
2.63994
2.73163
2.72552
2.72092
2.73559
2.74733
2.76053
2.76835
2.77526
2.77908
2.78146
1
1.00002
1.00005
1.00015
1.00027
1.00087
1.00161
1.00476
1.00996
1.02573
1.06923
1.1535
1.47774
2.23353
2.62986
2.72995
2.72369
2.71848
2.73328
2.74473
2.75818
2.76514
2.77208
2.77667
2.77793
1
1.00002
1.00004
1.00015
1.00026
1.00084
1.00154
1.00458
1.0095
1.02471
1.0658
1.14726
1.45064
2.18493
2.61371
2.72681
2.72016
2.71369
2.72824
2.74005
2.75374
2.76146
2.76687
2.76991
2.77327
1
1.00002
1.00004
1.00014
1.00025
1.0008
1.00146
1.00447
1.00887
1.02395
1.06023
1.13897
1.41239
2.11474
2.5906
2.72173
2.71544
2.70602
2.7214
2.7303
2.74444
2.75218
2.76034
2.76405
2.76348
1
1.00002
1.00004
1.00013
1.00024
1.00075
1.00137
1.00425
1.00815
1.02293
1.05367
1.12896
1.36788
2.02534
2.55918
2.71386
2.70735
2.69735
2.71366
2.72379
2.7342
2.74257
2.74721
2.74987
2.75375
1
1.00002
1.00004
1.00012
1.00022
1.00069
1.00125
1.00389
1.00741
1.02113
1.04762
1.11839
1.32222
1.92483
2.51471
2.69815
2.68926
2.67906
2.69582
2.70967
2.72186
2.72743
2.73522
2.73751
2.73411
1
1.00002
1.00003
1.00011
1.0002
1.00063
1.00114
1.00353
1.00671
1.01929
1.04281
1.10785
1.28817
1.83519
2.4912
2.68862
2.68007
2.66769
2.68197
2.6913
2.70492
2.709
2.71043
2.71015
2.71031
1
1.00002
1.00003
1.0001
1.00018
1.00056
1.00101
1.00317
1.00599
1.01721
1.03867
1.09466
1.26302
1.71765
2.45773
2.67569
2.6589
2.66028
2.66821
2.67333
2.68381
2.68792
2.68911
2.68288
2.65795
1
1.00001
1.00002
1.00008
1.00015
1.00046
1.00086
1.00243
1.00535
1.01325
1.03607
1.07927
1.24415
1.60604
2.37048
2.64512
2.65437
2.65235
2.65292
2.65902
2.6589
2.65685
2.64764
2.62718
2.57908
1
1.00003
1.00005
1.00016
1.00029
1.00091
1.00168
1.00495
1.01041
1.02677
1.07257
1.15997
1.5026
2.2772
2.64354
2.73165
2.7257
2.72135
2.73619
2.74805
2.76151
2.76964
2.77656
2.78141
2.78455
1
1.00002
1.00005
1.00016
1.00028
1.0009
1.00166
1.00488
1.01027
1.02638
1.07152
1.15759
1.49567
2.26435
2.63994
2.73163
2.72552
2.72092
2.73559
2.74733
2.76053
2.76835
2.77526
2.77908
2.78146
1
1.00002
1.00005
1.00015
1.00027
1.00087
1.00161
1.00476
1.00996
1.02573
1.06923
1.1535
1.47774
2.23353
2.62986
2.72995
2.72369
2.71848
2.73328
2.74473
2.75818
2.76514
2.77208
2.77667
2.77793
1
1.00002
1.00004
1.00015
1.00026
1.00084
1.00154
1.00458
1.0095
1.02471
1.0658
1.14726
1.45064
2.18493
2.61371
2.72681
2.72016
2.71369
2.72824
2.74005
2.75374
2.76146
2.76687
2.76991
2.77327
1
1.00002
1.00004
1.00014
1.00025
1.0008
1.00146
1.00447
1.00887
1.02395
1.06023
1.13897
1.41239
2.11474
2.5906
2.72173
2.71544
2.70602
2.7214
2.7303
2.74444
2.75218
2.76034
2.76405
2.76348
1
1.00002
1.00004
1.00013
1.00024
1.00075
1.00137
1.00425
1.00815
1.02293
1.05367
1.12896
1.36788
2.02534
2.55918
2.71386
2.70735
2.69735
2.71366
2.72379
2.7342
2.74257
2.74721
2.74987
2.75375
1
1.00002
1.00004
1.00012
1.00022
1.00069
1.00125
1.00389
1.00741
1.02113
1.04762
1.11839
1.32222
1.92483
2.51471
2.69815
2.68926
2.67906
2.69582
2.70967
2.72186
2.72743
2.73522
2.73751
2.73411
1
1.00002
1.00003
1.00011
1.0002
1.00063
1.00114
1.00353
1.00671
1.01929
1.04281
1.10785
1.28817
1.83519
2.4912
2.68862
2.68007
2.66769
2.68197
2.6913
2.70492
2.709
2.71043
2.71015
2.71031
1
1.00002
1.00003
1.0001
1.00018
1.00056
1.00101
1.00317
1.00599
1.01721
1.03867
1.09466
1.26302
1.71765
2.45773
2.67569
2.6589
2.66028
2.66821
2.67333
2.68381
2.68792
2.68911
2.68288
2.65795
1
1.00001
1.00002
1.00008
1.00015
1.00046
1.00086
1.00243
1.00535
1.01325
1.03607
1.07927
1.24415
1.60604
2.37048
2.64512
2.65437
2.65235
2.65292
2.65902
2.6589
2.65685
2.64764
2.62718
2.57908
1
1.00003
1.00005
1.00016
1.00029
1.00091
1.00168
1.00495
1.01041
1.02677
1.07257
1.15997
1.5026
2.2772
2.64354
2.73165
2.7257
2.72135
2.73619
2.74805
2.76151
2.76964
2.77656
2.78141
2.78455
1
1.00002
1.00005
1.00016
1.00028
1.0009
1.00166
1.00488
1.01027
1.02638
1.07152
1.15759
1.49567
2.26435
2.63994
2.73163
2.72552
2.72092
2.73559
2.74733
2.76053
2.76835
2.77526
2.77908
2.78146
1
1.00002
1.00005
1.00015
1.00027
1.00087
1.00161
1.00476
1.00996
1.02573
1.06923
1.1535
1.47774
2.23352
2.62986
2.72995
2.72369
2.71848
2.73328
2.74473
2.75818
2.76514
2.77208
2.77667
2.77793
1
1.00002
1.00004
1.00015
1.00026
1.00084
1.00154
1.00458
1.0095
1.02471
1.0658
1.14726
1.45064
2.18493
2.61371
2.72681
2.72016
2.71369
2.72824
2.74005
2.75374
2.76146
2.76687
2.76991
2.77327
1
1.00002
1.00004
1.00014
1.00025
1.0008
1.00146
1.00447
1.00887
1.02395
1.06023
1.13897
1.41239
2.11474
2.5906
2.72173
2.71544
2.70602
2.7214
2.7303
2.74444
2.75218
2.76034
2.76405
2.76348
1
1.00002
1.00004
1.00013
1.00024
1.00075
1.00137
1.00425
1.00815
1.02293
1.05367
1.12896
1.36788
2.02534
2.55918
2.71386
2.70735
2.69735
2.71366
2.72379
2.7342
2.74257
2.74721
2.74987
2.75375
1
1.00002
1.00004
1.00012
1.00022
1.00069
1.00125
1.00389
1.00741
1.02113
1.04762
1.11839
1.32222
1.92483
2.51471
2.69815
2.68926
2.67906
2.69582
2.70967
2.72186
2.72743
2.73522
2.73751
2.73411
1
1.00002
1.00003
1.00011
1.0002
1.00063
1.00114
1.00353
1.00671
1.01929
1.04281
1.10785
1.28817
1.83518
2.4912
2.68862
2.68007
2.66769
2.68197
2.6913
2.70492
2.709
2.71043
2.71015
2.71031
1
1.00002
1.00003
1.0001
1.00018
1.00056
1.00101
1.00317
1.00599
1.01721
1.03867
1.09466
1.26302
1.71765
2.45773
2.67569
2.6589
2.66028
2.66821
2.67333
2.68381
2.68792
2.68911
2.68288
2.65795
1
1.00001
1.00002
1.00008
1.00015
1.00046
1.00086
1.00243
1.00535
1.01325
1.03607
1.07927
1.24415
1.60604
2.37048
2.64512
2.65437
2.65235
2.65292
2.65902
2.6589
2.65685
2.64764
2.62718
2.57908
1
1.00003
1.00005
1.00016
1.00029
1.00091
1.00168
1.00495
1.01041
1.02677
1.07257
1.15997
1.50259
2.2772
2.64354
2.73165
2.7257
2.72135
2.73619
2.74805
2.76151
2.76964
2.77656
2.78141
2.78455
1
1.00002
1.00005
1.00016
1.00028
1.0009
1.00166
1.00488
1.01027
1.02638
1.07152
1.15759
1.49567
2.26435
2.63994
2.73163
2.72552
2.72092
2.73559
2.74733
2.76053
2.76835
2.77526
2.77908
2.78146
1
1.00002
1.00005
1.00015
1.00027
1.00087
1.00161
1.00476
1.00996
1.02573
1.06923
1.1535
1.47774
2.23352
2.62986
2.72995
2.72369
2.71848
2.73328
2.74473
2.75818
2.76514
2.77208
2.77667
2.77793
1
1.00002
1.00004
1.00015
1.00026
1.00084
1.00154
1.00458
1.0095
1.02471
1.0658
1.14726
1.45064
2.18492
2.61371
2.72681
2.72016
2.71369
2.72824
2.74005
2.75374
2.76146
2.76687
2.76991
2.77327
1
1.00002
1.00004
1.00014
1.00025
1.0008
1.00146
1.00447
1.00887
1.02395
1.06023
1.13897
1.41239
2.11473
2.5906
2.72173
2.71544
2.70602
2.7214
2.7303
2.74444
2.75218
2.76034
2.76405
2.76348
1
1.00002
1.00004
1.00013
1.00024
1.00075
1.00137
1.00425
1.00815
1.02293
1.05367
1.12896
1.36788
2.02534
2.55918
2.71386
2.70735
2.69735
2.71366
2.72379
2.7342
2.74257
2.74721
2.74987
2.75375
1
1.00002
1.00004
1.00012
1.00022
1.00069
1.00125
1.00389
1.00741
1.02113
1.04762
1.11839
1.32222
1.92483
2.51471
2.69814
2.68926
2.67906
2.69582
2.70967
2.72186
2.72743
2.73522
2.73751
2.73411
1
1.00002
1.00003
1.00011
1.0002
1.00063
1.00114
1.00353
1.00671
1.01929
1.04281
1.10785
1.28817
1.83518
2.4912
2.68862
2.68007
2.66769
2.68197
2.6913
2.70492
2.709
2.71043
2.71015
2.71031
1
1.00002
1.00003
1.0001
1.00018
1.00056
1.00101
1.00317
1.00599
1.01721
1.03867
1.09466
1.26302
1.71765
2.45773
2.67569
2.6589
2.66028
2.66821
2.67333
2.68381
2.68792
2.68911
2.68288
2.65795
1
1.00001
1.00002
1.00008
1.00015
1.00046
1.00086
1.00243
1.00535
1.01325
1.03607
1.07927
1.24415
1.60604
2.37048
2.64512
2.65437
2.65235
2.65292
2.65902
2.6589
2.65685
2.64764
2.62718
2.57908
0.999995
1.00002
1.00004
1.00015
1.00028
1.0009
1.00167
1.00494
1.0104
1.02676
1.07255
1.15993
1.50256
2.27707
2.64347
2.73158
2.72563
2.72128
2.73612
2.74798
2.76144
2.76956
2.77649
2.78133
2.78447
0.999995
1.00002
1.00004
1.00015
1.00027
1.00089
1.00165
1.00487
1.01026
1.02636
1.07151
1.15755
1.49563
2.26422
2.63987
2.73156
2.72545
2.72084
2.73552
2.74726
2.76045
2.76828
2.77518
2.779
2.78138
0.999995
1.00002
1.00004
1.00014
1.00027
1.00086
1.0016
1.00475
1.00995
1.02571
1.06922
1.15346
1.4777
2.2334
2.62978
2.72988
2.72362
2.71841
2.7332
2.74465
2.7581
2.76507
2.772
2.77659
2.77785
0.999995
1.00002
1.00004
1.00014
1.00026
1.00083
1.00154
1.00457
1.00949
1.02469
1.06578
1.14723
1.4506
2.18479
2.61364
2.72674
2.72009
2.71362
2.72817
2.73998
2.75367
2.76139
2.7668
2.76983
2.7732
0.999995
1.00001
1.00003
1.00013
1.00024
1.0008
1.00146
1.00446
1.00887
1.02393
1.06023
1.13894
1.41239
2.11464
2.59053
2.72167
2.71537
2.70595
2.72133
2.73023
2.74437
2.75212
2.76027
2.76397
2.7634
0.999995
1.00001
1.00003
1.00012
1.00023
1.00075
1.00136
1.00424
1.00814
1.02292
1.05366
1.12892
1.36786
2.02524
2.55911
2.71379
2.70728
2.69728
2.71359
2.72372
2.73413
2.7425
2.74714
2.74979
2.75367
0.999995
1.00001
1.00003
1.00011
1.00021
1.00068
1.00124
1.00388
1.0074
1.02112
1.04761
1.11836
1.32219
1.92472
2.51464
2.69807
2.68919
2.67899
2.69575
2.7096
2.72179
2.72736
2.73515
2.73744
2.73404
0.999995
1.00001
1.00003
1.0001
1.00019
1.00062
1.00113
1.00353
1.0067
1.01928
1.0428
1.10782
1.28816
1.83509
2.49118
2.68856
2.68
2.66762
2.6819
2.69122
2.70485
2.70893
2.71037
2.71009
2.71024
0.999995
1.00001
1.00002
1.00009
1.00017
1.00055
1.00101
1.00316
1.00598
1.0172
1.03866
1.09463
1.26301
1.71754
2.45769
2.67563
2.65885
2.66022
2.66815
2.67327
2.68374
2.68786
2.68905
2.68282
2.65789
0.999994
1.00001
1.00002
1.00007
1.00014
1.00045
1.00086
1.00242
1.00534
1.01323
1.03606
1.07924
1.24414
1.60597
2.37041
2.64505
2.65432
2.6523
2.65287
2.65896
2.65884
2.65678
2.64758
2.62712
2.57902
0.999996
1
1.00002
1.00005
1.00017
1.00032
1.00099
1.0019
1.00538
1.01186
1.02971
1.08218
1.18056
1.55377
2.34411
2.58547
2.63991
2.63491
2.63422
2.63894
2.63826
2.63063
2.60929
2.55707
2.36947
0.999996
1
1.00002
1.00004
1.00015
1.00027
1.00087
1.00161
1.00475
1.00998
1.02569
1.06922
1.15314
1.47496
2.21767
2.54118
2.6338
2.62555
2.61312
2.61081
2.60594
2.59056
2.55653
2.49509
2.30075
0.999995
0.999999
1.00001
1.00003
1.00013
1.00023
1.00076
1.00138
1.0043
1.00828
1.023
1.05512
1.13014
1.3759
2.0259
2.46492
2.61902
2.61193
2.601
2.59073
2.58201
2.56324
2.51884
2.45795
2.30026
0.999995
0.999998
1.00001
1.00003
1.0001
1.00019
1.00062
1.00114
1.00355
1.00673
1.01942
1.04235
1.10866
1.2798
1.82313
2.36286
2.58179
2.57749
2.57366
2.56075
2.54556
2.52137
2.48118
2.43299
2.31371
0.999995
0.999997
1.00001
1.00002
1.00008
1.00015
1.0005
1.00092
1.00283
1.00547
1.01534
1.03504
1.08505
1.23391
1.63761
2.29173
2.54721
2.55595
2.55449
2.54647
2.52713
2.50038
2.44125
2.40012
2.31613
0.999994
0.999997
1
1.00002
1.00005
1.00016
1.0003
1.00092
1.00178
1.00494
1.01111
1.02716
1.07617
1.16362
1.51625
2.23121
2.4659
2.52207
2.5148
2.51208
2.50173
2.48291
2.43402
2.37732
2.30947
0.999994
0.999996
0.999999
1.00002
1.00004
1.00013
1.00024
1.00078
1.00142
1.00435
1.00859
1.02319
1.05767
1.1328
1.38886
2.03343
2.40327
2.51047
2.50191
2.49125
2.4682
2.44759
2.41686
2.36555
2.30495
0.999993
0.999995
0.999998
1.00001
1.00003
1.0001
1.00019
1.0006
1.0011
1.00339
1.00651
1.01853
1.04091
1.10438
1.26689
1.79349
2.25795
2.47094
2.4745
2.46917
2.45461
2.4252
2.3934
2.34676
2.29271
0.999993
0.999994
0.999997
1
1.00002
1.00005
1.00018
1.00034
1.00105
1.00199
1.00574
1.01219
1.03114
1.08302
1.18537
1.53792
2.21586
2.41672
2.44086
2.43242
2.42418
2.40443
2.37993
2.33957
2.28914
0.999992
0.999993
0.999996
0.999999
1.00002
1.00004
1.00013
1.00025
1.00079
1.00149
1.0043
1.00913
1.02321
1.06203
1.13764
1.41251
2.05822
2.35079
2.42177
2.41466
2.39759
2.3723
2.34768
2.32083
2.28061
0.999992
0.999993
0.999994
0.999999
1
1.00003
1.00007
1.00023
1.00044
1.00128
1.00265
1.00684
1.01708
1.03938
1.11319
1.25227
1.71926
2.20507
2.39146
2.39371
2.38426
2.36249
2.33241
2.30131
2.27051
0.999992
0.999992
0.999993
0.999997
1
1.00002
1.00005
1.00017
1.00032
1.00101
1.00187
1.00551
1.0114
1.02947
1.07734
1.17216
1.49738
2.11946
2.33023
2.36071
2.35473
2.33964
2.31452
2.28144
2.24963
0.999991
0.999992
0.999993
0.999994
1
1.00001
1.00004
1.00009
1.00028
1.00054
1.00152
1.00329
1.00821
1.02152
1.04836
1.14189
1.31691
1.86923
2.23494
2.33844
2.33654
2.32615
2.30519
2.2747
2.23921
0.999991
0.999991
0.999992
0.999993
0.999998
1
1.00003
1.00006
1.00021
1.00038
1.00121
1.00223
1.00672
1.01336
1.03558
1.08521
1.21195
1.52402
2.11251
2.28291
2.299
2.29597
2.28287
2.25922
2.22867
0.999991
0.999991
0.999991
0.999993
0.999994
1
1.00001
1.00005
1.0001
1.00034
1.00063
1.00191
1.00373
1.01019
1.02326
1.05587
1.15271
1.36613
1.8882
2.21492
2.28026
2.27828
2.26563
2.24652
2.21818
0.999991
0.999991
0.999991
0.999992
0.999993
0.999998
1
1.00003
1.00007
1.00023
1.00043
1.00133
1.00247
1.00714
1.0149
1.03786
1.09838
1.22481
1.58976
2.05218
2.23731
2.24837
2.2432
2.22797
2.20368
0.999991
0.999991
0.999991
0.999991
0.999993
0.999995
1
1.00001
1.00006
1.00012
1.00037
1.00069
1.00207
1.00402
1.01119
1.02457
1.06049
1.15401
1.40156
1.88525
2.16641
2.2239
2.22248
2.20997
2.19067
0.999991
0.999991
0.999991
0.999991
0.999992
0.999993
0.999999
1.00001
1.00004
1.00007
1.00024
1.00045
1.00139
1.00259
1.00746
1.01551
1.03939
1.10123
1.23388
1.60175
2.01505
2.17987
2.19665
2.19192
2.17798
0.999991
0.999991
0.999991
0.999991
0.999991
0.999993
0.999995
1
1.00001
1.00006
1.00012
1.00037
1.00071
1.00209
1.0041
1.01134
1.02444
1.06308
1.14784
1.425
1.83404
2.09411
2.15896
2.16482
2.15955
0.999991
0.999991
0.999991
0.999991
0.999991
0.999992
0.999994
0.999997
1.00001
1.00003
1.0001
1.00018
1.00057
1.00107
1.00315
1.00617
1.01678
1.03764
1.09132
1.2324
1.62648
1.96727
2.11453
2.13339
2.1318
0.999991
0.999991
0.999991
0.999991
0.999991
0.999991
0.999993
0.999995
1
1.00001
1.00006
1.00011
1.00036
1.00067
1.00204
1.00384
1.01094
1.02264
1.05869
1.13748
1.37472
1.78126
2.04115
2.10336
2.11046
0.999991
0.999991
0.999991
0.999991
0.999991
0.999991
0.999992
0.999994
0.999997
1.00001
1.00002
1.00009
1.00017
1.00052
1.00097
1.00285
1.00558
1.01516
1.03327
1.08258
1.20023
1.55111
1.8941
2.06336
2.07794
0.999991
0.999991
0.999991
0.999991
0.999991
0.999991
0.999991
0.999993
0.999994
1
1.00001
1.00005
1.0001
1.00033
1.0006
1.00182
1.0034
1.00961
1.0204
1.04925
1.12576
1.29905
1.71643
1.99186
2.0584
0.999991
0.999991
0.999991
0.999991
0.999991
0.999991
0.999991
0.999992
0.999993
0.999997
1
1.00003
1.00006
1.00019
1.00035
1.00109
1.002
1.00583
1.01151
1.03017
1.06928
1.16731
1.40915
1.83415
2.00573
0.999991
0.999991
0.999991
0.999991
0.999991
0.999991
0.999991
0.999991
0.999992
0.999995
0.999998
1.00001
1.00003
1.00011
1.00021
1.00066
1.0012
1.00359
1.00686
1.01873
1.04229
1.09861
1.26413
1.6681
1.90281
0.999991
0.999991
0.999991
0.999991
0.999991
0.999991
0.999991
0.999991
0.999992
0.999993
0.999996
1
1.00002
1.00005
1.00015
1.00029
1.00088
1.00166
1.0047
1.00964
1.02454
1.06051
1.13545
1.36203
1.78162
0.999991
0.999991
0.999991
0.999991
0.999991
0.999991
0.999991
0.999991
0.999991
0.999992
0.999993
0.999998
1
1.00003
1.00007
1.00021
1.0004
1.00118
1.00227
1.00621
1.01331
1.03254
1.08331
1.18333
1.48018
0.999991
0.999991
0.999991
0.999991
0.999991
0.999991
0.999991
0.999991
0.999991
0.999991
0.999993
0.999994
1
1.00001
1.00005
1.00009
1.0003
1.00056
1.00164
1.00315
1.00868
1.01826
1.04588
1.10764
1.27879
0.999991
0.999991
0.999991
0.999991
0.999991
0.999991
0.999991
0.999991
0.999991
0.999991
0.999992
0.999993
0.999997
1
1.00002
1.00005
1.00017
1.00031
1.00095
1.00175
1.0051
1.00992
1.02638
1.0589
1.14325
0.999991
0.999991
0.999991
0.999991
0.999991
0.999991
0.999991
0.999991
0.999991
0.999991
0.999991
0.999992
0.999993
0.999998
1.00001
1.00003
1.00007
1.00022
1.00041
1.00121
1.00231
1.00646
1.01322
1.03325
1.07906
0.999991
0.999991
0.999991
0.999991
0.999991
0.999991
0.999991
0.999991
0.999991
0.999991
0.999991
0.999991
0.999993
0.999994
1
1.00001
1.00005
1.00009
1.00029
1.00056
1.0016
1.00311
1.00844
1.01767
1.04507
0.999991
0.999991
0.999991
0.999991
0.999991
0.999991
0.999991
0.999991
0.999991
0.999991
0.999991
0.999991
0.999992
0.999993
0.999995
1
1.00002
1.00006
1.00013
1.00039
1.00074
1.00212
1.00413
1.01116
1.02338
0.999991
0.999991
0.999991
0.999991
0.999991
0.999991
0.999991
0.999991
0.999991
0.999991
0.999991
0.999991
0.999991
0.999992
0.999993
0.999999
1.00001
1.00004
1.00007
1.00023
1.00043
1.00129
1.00241
1.00683
1.0134
0.999991
0.999991
0.999991
0.999991
0.999991
0.999991
0.999991
0.999991
0.999991
0.999991
0.999991
0.999991
0.999991
0.999991
0.999993
0.999995
1
1.00001
1.00006
1.00012
1.00037
1.0007
1.00206
1.00398
1.01087
0.999991
0.999991
0.999991
0.999991
0.999991
0.999991
0.999991
0.999991
0.999991
0.999991
0.999991
0.999991
0.999991
0.999991
0.999992
0.999995
0.999999
1.00001
1.00003
1.00012
1.00024
1.00074
1.0014
1.00411
1.00832
0.999991
0.999991
0.999991
0.999991
0.999991
0.999991
0.999991
0.999991
0.999991
0.999991
0.999991
0.999991
0.999991
0.999991
0.999992
0.999993
0.999999
1.00001
1.00004
1.00008
1.00026
1.0005
1.00139
1.00314
1.00763
0.999991
0.999991
0.999991
0.999991
0.999991
0.999991
0.999991
0.999991
0.999991
0.999991
0.999991
0.999991
0.999991
0.999991
0.999992
0.999994
0.999997
1.00001
1.00003
1.00011
1.00021
1.00068
1.00126
1.00385
1.00764
0.999991
0.999991
0.999991
0.999991
0.999991
0.999991
0.999991
0.999991
0.999991
0.999991
0.999991
0.999991
0.999991
0.999991
0.999992
0.999994
0.999997
1.00001
1.00003
1.00011
1.0002
1.00066
1.00123
1.00377
1.00751
0.999991
0.999991
0.999991
0.999991
0.999991
0.999991
0.999991
0.999991
0.999991
0.999991
0.999991
0.999991
0.999991
0.999991
0.999992
0.999993
0.999999
1.00001
1.00004
1.00007
1.00025
1.00048
1.00139
1.00297
1.00755
0.999991
0.999991
0.999991
0.999991
0.999991
0.999991
0.999991
0.999991
0.999991
0.999991
0.999991
0.999991
0.999991
0.999991
0.999992
0.999993
0.999999
1.00001
1.00004
1.00008
1.00026
1.00048
1.00153
1.00291
1.00822
1
1.00001
1.00003
1.00006
1.00018
1.00032
1.00099
1.0019
1.00539
1.01187
1.02972
1.08219
1.1806
1.55379
2.3442
2.58554
2.63996
2.63496
2.63427
2.639
2.63832
2.63069
2.60935
2.55713
2.36952
1
1.00001
1.00003
1.00005
1.00015
1.00028
1.00088
1.00162
1.00476
1.00999
1.02571
1.06923
1.15317
1.47499
2.21776
2.54125
2.63385
2.6256
2.61317
2.61086
2.60599
2.59061
2.55659
2.49514
2.30079
1
1.00001
1.00002
1.00004
1.00013
1.00024
1.00077
1.00139
1.00431
1.00829
1.02302
1.05513
1.13017
1.3759
2.02597
2.46499
2.61908
2.61199
2.60105
2.59078
2.58207
2.56329
2.51889
2.458
2.3003
1
1.00001
1.00002
1.00003
1.00011
1.0002
1.00063
1.00115
1.00356
1.00674
1.01944
1.04236
1.10868
1.27982
1.82318
2.36292
2.58185
2.57755
2.57371
2.5608
2.54561
2.52142
2.48123
2.43304
2.31375
1
1
1.00002
1.00003
1.00009
1.00016
1.00051
1.00093
1.00284
1.00548
1.01535
1.03505
1.08507
1.23391
1.63768
2.29178
2.54727
2.55601
2.55454
2.54652
2.52717
2.50042
2.44129
2.40016
2.31617
1
1
1.00001
1.00003
1.00005
1.00017
1.00031
1.00093
1.00179
1.00495
1.01112
1.02717
1.07618
1.16365
1.51627
2.23129
2.46596
2.52212
2.51485
2.51213
2.50178
2.48295
2.43406
2.37736
2.30951
1
1
1.00001
1.00002
1.00004
1.00014
1.00025
1.00079
1.00143
1.00437
1.00859
1.02321
1.05767
1.13283
1.38885
2.03349
2.40333
2.51052
2.50196
2.4913
2.46824
2.44764
2.41689
2.3656
2.30499
1
1
1.00001
1.00002
1.00003
1.00011
1.00019
1.00061
1.00111
1.0034
1.00652
1.01854
1.04092
1.10441
1.26691
1.79357
2.258
2.47099
2.47455
2.46922
2.45466
2.42524
2.39344
2.3468
2.29275
1
1
1.00001
1.00001
1.00003
1.00006
1.00019
1.00035
1.00106
1.002
1.00575
1.0122
1.03116
1.08303
1.18541
1.53795
2.21593
2.41676
2.4409
2.43246