/*--------------------------------*- C++ -*----------------------------------*\
| =========                 |                                                 |
| \\      /  F ield         | OpenFOAM: The Open Source CFD Toolbox           |
|  \\    /   O peration     | Version:  4.1                                   |
|   \\  /    A nd           | Web:      www.OpenFOAM.org                      |
|    \\/     M anipulation  |                                                 |
\*---------------------------------------------------------------------------*/
FoamFile
{
    version     2.0;
    format      ascii;
    class       volVectorField;
    location    "4.86";
    object      U;
}
// * * * * * * * * * * * * * * * * * * * * * * * * * * * * * * * * * * * * * //

dimensions      [0 1 -1 0 0 0 0];

internalField   nonuniform List<vector> 
52500
(
(3 1.36843e-08 -0.00571425)
(2.99998 7.57697e-08 -0.00571439)
(2.99996 2.83395e-07 -0.00571458)
(2.9999 7.27319e-07 -0.00571521)
(2.99977 2.02046e-06 -0.00571635)
(2.99939 4.63339e-06 -0.00571982)
(2.99866 1.22497e-05 -0.00572665)
(2.99635 2.73114e-05 -0.00574477)
(2.99238 7.36531e-05 -0.00579078)
(2.97709 0.000158452 -0.00587918)
(2.95064 0.00046957 -0.00623375)
(2.84787 0.00104192 -0.00670963)
(2.57427 0.00340663 -0.00917408)
(1.90535 0.00846449 -0.0137421)
(0.855017 0.0241676 -0.0175599)
(0.458988 0.0230057 -0.0185071)
(0.542634 0.0236704 -0.0185192)
(0.567257 0.0257254 -0.0185525)
(0.515381 0.02773 -0.01874)
(0.425715 0.0296931 -0.0189226)
(0.339132 0.0320699 -0.0191209)
(0.269172 0.0349617 -0.019285)
(0.19948 0.0380826 -0.019447)
(0.11977 0.0417376 -0.0196015)
(0.0524386 0.0468658 -0.0197517)
(3 3.95347e-08 -0.00571425)
(2.99998 2.18496e-07 -0.00571438)
(2.99996 8.17208e-07 -0.00571458)
(2.9999 2.08964e-06 -0.00571519)
(2.99977 5.80839e-06 -0.00571632)
(2.9994 1.3237e-05 -0.00571973)
(2.99868 3.538e-05 -0.00572646)
(2.9964 7.67994e-05 -0.0057443)
(2.99249 0.000218366 -0.00578965)
(2.97741 0.000450843 -0.00587659)
(2.9514 0.00141509 -0.00622594)
(2.85011 0.00304437 -0.00669343)
(2.58115 0.0109663 -0.00912209)
(1.9209 0.026571 -0.0136325)
(0.863141 0.0745745 -0.0174398)
(0.454292 0.0672913 -0.0184307)
(0.541112 0.0660364 -0.0184427)
(0.566806 0.0696206 -0.0184674)
(0.514547 0.0730342 -0.0186471)
(0.424816 0.076356 -0.018823)
(0.338319 0.0803004 -0.0190134)
(0.267931 0.0848396 -0.0191688)
(0.19732 0.08912 -0.019324)
(0.116444 0.0933262 -0.0194643)
(0.0488992 0.0975199 -0.0195997)
(3 6.36092e-08 -0.00571425)
(2.99998 3.50987e-07 -0.00571438)
(2.99996 1.31518e-06 -0.00571457)
(2.9999 3.35925e-06 -0.00571517)
(2.99978 9.36836e-06 -0.00571627)
(2.99941 2.13245e-05 -0.00571959)
(2.99872 5.74806e-05 -0.00572612)
(2.9965 0.000123701 -0.00574355)
(2.99269 0.000360924 -0.00578734)
(2.97807 0.00073406 -0.0058724)
(2.95286 0.00237382 -0.00620949)
(2.85515 0.00502684 -0.0066662)
(2.59637 0.0189467 -0.00899643)
(1.9563 0.0455442 -0.0134027)
(0.885266 0.129097 -0.0172527)
(0.450808 0.114581 -0.0183356)
(0.543359 0.110931 -0.0183486)
(0.571356 0.117016 -0.0183629)
(0.51875 0.123322 -0.0185367)
(0.429287 0.130115 -0.0187031)
(0.343112 0.137536 -0.018888)
(0.272221 0.145677 -0.0190307)
(0.200426 0.153619 -0.0191794)
(0.117977 0.160902 -0.0193195)
(0.0485557 0.166249 -0.0194445)
(3 8.0412e-08 -0.00571425)
(2.99999 4.4363e-07 -0.00571437)
(2.99996 1.6586e-06 -0.00571456)
(2.9999 4.2182e-06 -0.00571513)
(2.99978 1.17449e-05 -0.00571618)
(2.99944 2.64837e-05 -0.00571937)
(2.99877 7.27039e-05 -0.00572561)
(2.99665 0.000147424 -0.0057424)
(2.993 0.000482627 -0.00578393)
(2.97906 0.000852161 -0.00586597)
(2.95507 0.00340827 -0.00618489)
(2.86275 0.00668235 -0.00662542)
(2.61937 0.0265147 -0.00880963)
(2.01069 0.0634495 -0.0130577)
(0.919771 0.18252 -0.0170052)
(0.447202 0.162019 -0.0182265)
(0.548612 0.155564 -0.0182375)
(0.580694 0.163995 -0.0182362)
(0.528124 0.173315 -0.0184019)
(0.439262 0.184132 -0.0185623)
(0.353392 0.195412 -0.0187407)
(0.28203 0.20756 -0.0188804)
(0.20886 0.219762 -0.0190113)
(0.123783 0.230888 -0.0191361)
(0.0504475 0.237993 -0.0192765)
(3 9.8131e-08 -0.00571425)
(2.99999 5.42127e-07 -0.00571437)
(2.99997 2.02034e-06 -0.00571454)
(2.99991 5.1413e-06 -0.00571509)
(2.99979 1.42444e-05 -0.00571609)
(2.99946 3.20829e-05 -0.00571916)
(2.99882 8.78449e-05 -0.00572502)
(2.99684 0.000175083 -0.00574167)
(2.99328 0.000596166 -0.00577927)
(2.98046 0.000933616 -0.00586161)
(2.95784 0.0043683 -0.00614507)
(2.87282 0.00803782 -0.00657488)
(2.65039 0.0327588 -0.00854645)
(2.08465 0.0783477 -0.0125805)
(0.971084 0.230593 -0.0166876)
(0.450528 0.209793 -0.0180937)
(0.560166 0.200998 -0.0181065)
(0.596847 0.210775 -0.0180805)
(0.544268 0.222479 -0.0182464)
(0.456014 0.237344 -0.0183793)
(0.369978 0.252856 -0.0185519)
(0.297698 0.269665 -0.0186834)
(0.222512 0.286976 -0.0188244)
(0.133667 0.302914 -0.0189476)
(0.0546951 0.312607 -0.019063)
(3 1.23759e-07 -0.00571425)
(2.99999 6.83953e-07 -0.00571436)
(2.99997 2.55265e-06 -0.00571452)
(2.99991 6.53824e-06 -0.00571504)
(2.99981 1.81134e-05 -0.00571598)
(2.9995 4.13272e-05 -0.00571885)
(2.99889 0.000110222 -0.0057243)
(2.99707 0.000236802 -0.00574028)
(2.99363 0.000700017 -0.00577384)
(2.98215 0.00127748 -0.00585562)
(2.96114 0.00488612 -0.00609809)
(2.88463 0.00927188 -0.00651402)
(2.6866 0.0360958 -0.00824144)
(2.1742 0.0875203 -0.0119934)
(1.04106 0.267328 -0.016301)
(0.46859 0.258559 -0.0179254)
(0.580571 0.251134 -0.017935)
(0.620959 0.260466 -0.0179042)
(0.568596 0.273078 -0.018074)
(0.481142 0.291433 -0.0182065)
(0.394573 0.311586 -0.0183454)
(0.320924 0.333829 -0.0184708)
(0.24315 0.357586 -0.0185791)
(0.148895 0.380571 -0.0186885)
(0.0615317 0.395278 -0.0188343)
(3 1.3963e-07 -0.00571425)
(2.99999 7.71479e-07 -0.00571435)
(2.99997 2.87682e-06 -0.0057145)
(2.99992 7.37988e-06 -0.00571497)
(2.99982 2.03841e-05 -0.00571583)
(2.99954 4.66576e-05 -0.00571846)
(2.99898 0.000122365 -0.00572343)
(2.99733 0.000271644 -0.00573802)
(2.99415 0.000730519 -0.00576836)
(2.98391 0.00153314 -0.00584442)
(2.96466 0.00473255 -0.00605522)
(2.89712 0.00962863 -0.00644822)
(2.72441 0.0338801 -0.00793165)
(2.27408 0.0828404 -0.0113495)
(1.13644 0.254077 -0.0158359)
(0.518502 0.294986 -0.0176737)
(0.616481 0.303109 -0.0176638)
(0.654827 0.311445 -0.0176476)
(0.602769 0.324596 -0.0178217)
(0.516895 0.34694 -0.01797)
(0.429433 0.372671 -0.01811)
(0.35377 0.401514 -0.0182067)
(0.272989 0.433551 -0.0183229)
(0.172422 0.466821 -0.0184172)
(0.0734523 0.491646 -0.0185122)
(3 1.47114e-07 -0.00571425)
(2.99999 8.12307e-07 -0.00571434)
(2.99997 3.0194e-06 -0.00571447)
(2.99993 7.73499e-06 -0.0057149)
(2.99984 2.12631e-05 -0.00571568)
(2.99958 4.85412e-05 -0.00571806)
(2.99907 0.000126356 -0.00572258)
(2.99758 0.000280503 -0.00573585)
(2.99469 0.000733556 -0.00576325)
(2.98546 0.0016111 -0.00583292)
(2.968 0.00438747 -0.00602126)
(2.9075 0.00995629 -0.00638272)
(2.75422 0.0297162 -0.00770429)
(2.34632 0.0735805 -0.0108089)
(1.22888 0.215635 -0.0156587)
(0.562633 0.33317 -0.0175118)
(0.636429 0.365377 -0.0174763)
(0.674865 0.364074 -0.0174586)
(0.632906 0.37625 -0.0176021)
(0.555641 0.402759 -0.0177054)
(0.471275 0.435533 -0.0178374)
(0.396012 0.472744 -0.0179064)
(0.314281 0.515699 -0.0179628)
(0.208464 0.564648 -0.0180192)
(0.0938388 0.610724 -0.0181188)
(3 1.7755e-07 -0.00571425)
(2.99999 9.72534e-07 -0.00571433)
(2.99998 3.62252e-06 -0.00571445)
(2.99994 9.32134e-06 -0.00571483)
(2.99986 2.57102e-05 -0.00571552)
(2.99963 5.94218e-05 -0.00571766)
(2.99917 0.00015227 -0.00572167)
(2.99783 0.000359259 -0.00573358)
(2.99526 0.000827928 -0.00575801)
(2.98693 0.00213132 -0.00581992)
(2.97171 0.00449311 -0.00599159)
(2.91715 0.0115801 -0.00629959)
(2.78156 0.0285288 -0.00753135)
(2.41355 0.0728059 -0.0101236)
(1.34937 0.206341 -0.0153663)
(0.638975 0.384539 -0.0173184)
(0.647058 0.417868 -0.0172399)
(0.674649 0.413012 -0.0172998)
(0.654752 0.42752 -0.0173933)
(0.593312 0.456434 -0.0174547)
(0.517607 0.497822 -0.0175391)
(0.447092 0.545576 -0.0175803)
(0.369623 0.602353 -0.0176005)
(0.265877 0.676275 -0.0175724)
(0.131983 0.767685 -0.0174631)
(3 2.71128e-07 -0.00571424)
(2.99999 4.71461e-07 -0.00571431)
(2.99998 3.93883e-06 -0.00571441)
(2.99995 5.77212e-06 -0.00571473)
(2.99988 2.66539e-05 -0.00571531)
(2.99969 3.72616e-05 -0.00571702)
(2.99932 0.000159346 -0.00572051)
(2.99814 0.000207775 -0.00572916)
(2.99617 0.000968107 -0.00575301)
(2.98849 0.000960059 -0.00579508)
(2.97598 0.0064553 -0.00597193)
(2.92667 0.00401624 -0.00620054)
(2.80826 0.041442 -0.00739718)
(2.48068 0.0533615 -0.00946441)
(1.49607 0.222116 -0.0147341)
(0.737917 0.438279 -0.0169567)
(0.656465 0.45232 -0.0171411)
(0.681003 0.452307 -0.0171681)
(0.67581 0.473037 -0.0171842)
(0.630758 0.505622 -0.0172312)
(0.569292 0.555385 -0.0172193)
(0.508209 0.614619 -0.0171831)
(0.444971 0.692056 -0.0170896)
(0.361822 0.810221 -0.0168967)
(0.204281 1.01916 -0.0164945)
(3 1.40128e-08 -2.52326e-09)
(2.99998 7.59925e-08 -8.66706e-09)
(2.99996 2.83868e-07 -1.00243e-08)
(2.99989 7.27686e-07 -1.61534e-08)
(2.99976 2.02174e-06 -1.58865e-08)
(2.99939 4.63513e-06 -2.17699e-08)
(2.99866 1.22536e-05 -2.17856e-08)
(2.99634 2.73209e-05 -3.00485e-08)
(2.99238 7.36678e-05 -3.12526e-08)
(2.97708 0.0001585 -5.74107e-08)
(2.95063 0.000469638 -7.04233e-08)
(2.84786 0.00104216 -1.57075e-07)
(2.57423 0.00340657 -1.81193e-07)
(1.90525 0.00846496 -6.03409e-07)
(0.854987 0.0241676 -6.59613e-07)
(0.459028 0.0230059 8.75768e-08)
(0.542648 0.0236708 -1.23892e-08)
(0.567262 0.0257256 -6.96605e-08)
(0.515386 0.02773 -6.97742e-08)
(0.425722 0.029693 -6.57781e-08)
(0.339139 0.0320698 -6.25797e-08)
(0.269178 0.0349616 -6.42202e-08)
(0.199486 0.0380828 -6.57026e-08)
(0.119774 0.0417384 -6.77389e-08)
(0.0524416 0.0468679 -7.06446e-08)
(3 4.03271e-08 -2.51666e-09)
(2.99998 2.1931e-07 -8.66829e-09)
(2.99996 8.17481e-07 -1.00199e-08)
(2.9999 2.09323e-06 -1.61553e-08)
(2.99977 5.8083e-06 -1.58683e-08)
(2.99939 1.32427e-05 -2.17564e-08)
(2.99868 3.53873e-05 -2.17381e-08)
(2.99639 7.68259e-05 -2.99142e-08)
(2.99249 0.000218398 -3.11495e-08)
(2.97741 0.000450962 -5.66475e-08)
(2.95139 0.00141527 -7.00612e-08)
(2.85009 0.00304491 -1.53418e-07)
(2.58111 0.0109666 -1.87693e-07)
(1.9208 0.026573 -5.97951e-07)
(0.863109 0.0745758 -6.66899e-07)
(0.454329 0.0672931 8.88326e-08)
(0.541125 0.0660382 -1.15839e-08)
(0.566809 0.069622 -6.99783e-08)
(0.514551 0.0730351 -7.00325e-08)
(0.42482 0.0763566 -6.57764e-08)
(0.338324 0.0803009 -6.21059e-08)
(0.267935 0.0848401 -6.35571e-08)
(0.197323 0.0891209 -6.4873e-08)
(0.116447 0.0933279 -6.66421e-08)
(0.0489011 0.0975233 -6.92249e-08)
(3 6.48105e-08 -2.50738e-09)
(2.99998 3.52417e-07 -8.66457e-09)
(2.99996 1.31515e-06 -1.00354e-08)
(2.9999 3.36664e-06 -1.60902e-08)
(2.99977 9.36706e-06 -1.59456e-08)
(2.99941 2.13362e-05 -2.16676e-08)
(2.99871 5.74961e-05 -2.17362e-08)
(2.99649 0.00012376 -2.96638e-08)
(2.99269 0.000361 -3.11354e-08)
(2.97806 0.000734345 -5.56669e-08)
(2.95285 0.00237429 -6.93853e-08)
(2.85513 0.00502792 -1.50135e-07)
(2.59633 0.0189482 -1.86505e-07)
(1.9562 0.0455484 -5.86497e-07)
(0.885232 0.1291 -6.77791e-07)
(0.450842 0.114582 9.07743e-08)
(0.543368 0.110931 -1.03444e-08)
(0.571356 0.117016 -7.07844e-08)
(0.518751 0.123322 -7.11363e-08)
(0.429289 0.130116 -6.68302e-08)
(0.343115 0.137536 -6.2434e-08)
(0.272223 0.145678 -6.34511e-08)
(0.200429 0.15362 -6.43521e-08)
(0.117978 0.160905 -6.54807e-08)
(0.0485567 0.166254 -6.70497e-08)
(3 8.14664e-08 -2.49264e-09)
(2.99998 4.45865e-07 -8.66071e-09)
(2.99996 1.65639e-06 -1.0049e-08)
(2.9999 4.22534e-06 -1.60138e-08)
(2.99978 1.17329e-05 -1.60123e-08)
(2.99943 2.64753e-05 -2.15337e-08)
(2.99876 7.26677e-05 -2.16369e-08)
(2.99665 0.000147272 -2.90719e-08)
(2.993 0.000482622 -3.07849e-08)
(2.97906 0.000850677 -5.2789e-08)
(2.95506 0.00341052 -6.63789e-08)
(2.86274 0.00668079 -1.42975e-07)
(2.61933 0.0265219 -1.80926e-07)
(2.01059 0.0634608 -5.6926e-07)
(0.91973 0.182535 -7.05497e-07)
(0.447223 0.162026 8.11816e-08)
(0.548614 0.155565 -1.41226e-08)
(0.580688 0.163995 -7.0809e-08)
(0.52812 0.173315 -7.13155e-08)
(0.43926 0.184132 -6.71986e-08)
(0.353391 0.195412 -6.3062e-08)
(0.282029 0.20756 -6.40278e-08)
(0.20886 0.219764 -6.4218e-08)
(0.123783 0.23089 -6.43778e-08)
(0.0504477 0.237998 -6.48419e-08)
(3 9.93718e-08 -2.48625e-09)
(2.99999 5.45425e-07 -8.63838e-09)
(2.99996 2.02078e-06 -1.01187e-08)
(2.99991 5.15198e-06 -1.59177e-08)
(2.99979 1.42513e-05 -1.62827e-08)
(2.99946 3.21138e-05 -2.16492e-08)
(2.99881 8.79003e-05 -2.22461e-08)
(2.99684 0.000175237 -3.1963e-08)
(2.99328 0.000596405 -2.85297e-08)
(2.98046 0.000933964 -8.37492e-08)
(2.95783 0.00437017 -5.06823e-09)
(2.8728 0.00803912 -2.103e-07)
(2.65037 0.0327636 -6.8603e-08)
(2.08458 0.0783586 -5.23735e-07)
(0.971075 0.230611 -6.73956e-07)
(0.450575 0.209802 5.52725e-08)
(0.560185 0.201001 -3.74478e-08)
(0.596856 0.210777 -7.73418e-08)
(0.544273 0.22248 -7.49982e-08)
(0.456018 0.237345 -6.86867e-08)
(0.36998 0.252856 -6.53997e-08)
(0.297699 0.269665 -6.59533e-08)
(0.222511 0.286977 -6.53941e-08)
(0.133666 0.302917 -6.46068e-08)
(0.054695 0.312611 -6.38353e-08)
(3 1.26064e-07 -2.46783e-09)
(2.99999 6.86806e-07 -8.61675e-09)
(2.99997 2.55749e-06 -1.00996e-08)
(2.99991 6.54889e-06 -1.58236e-08)
(2.99981 1.81388e-05 -1.60562e-08)
(2.9995 4.13859e-05 -2.10926e-08)
(2.99888 0.000110352 -2.11213e-08)
(2.99707 0.000237206 -2.71706e-08)
(2.99363 0.000700398 -2.89921e-08)
(2.98215 0.00128009 -5.08525e-08)
(2.96113 0.00488611 -3.79599e-08)
(2.88461 0.00927708 -1.49974e-07)
(2.68657 0.0360952 -1.19693e-07)
(2.17413 0.0875263 -4.77466e-07)
(1.04104 0.267339 -6.72923e-07)
(0.468623 0.258562 3.35337e-08)
(0.580588 0.251135 -4.07027e-08)
(0.620971 0.260469 -7.46705e-08)
(0.568607 0.273082 -7.33432e-08)
(0.481151 0.291437 -6.96624e-08)
(0.394579 0.311588 -6.80753e-08)
(0.320927 0.333831 -6.86661e-08)
(0.243152 0.357587 -6.75438e-08)
(0.148895 0.380574 -6.60436e-08)
(0.0615316 0.395283 -6.49013e-08)
(3 1.42246e-07 -2.44018e-09)
(2.99999 7.73148e-07 -8.62153e-09)
(2.99997 2.87984e-06 -1.0082e-08)
(2.99992 7.38411e-06 -1.58046e-08)
(2.99982 2.03929e-05 -1.5991e-08)
(2.99954 4.66743e-05 -2.09834e-08)
(2.99898 0.000122404 -2.08218e-08)
(2.99733 0.000271731 -2.65801e-08)
(2.99415 0.000730677 -2.8542e-08)
(2.9839 0.0015339 -4.14201e-08)
(2.96465 0.00473306 -4.75981e-08)
(2.89711 0.00963115 -1.23765e-07)
(2.72438 0.0338841 -1.36291e-07)
(2.27401 0.0828538 -4.44403e-07)
(1.1364 0.254118 -7.08558e-07)
(0.518502 0.294993 -1.00421e-08)
(0.616484 0.30311 -4.5326e-08)
(0.654832 0.311448 -6.54654e-08)
(0.602776 0.3246 -6.66898e-08)
(0.516902 0.346945 -6.69997e-08)
(0.42944 0.372674 -6.73698e-08)
(0.353775 0.401517 -6.89504e-08)
(0.272992 0.433553 -6.93801e-08)
(0.172424 0.466823 -6.83616e-08)
(0.0734526 0.49165 -6.70584e-08)
(3 1.49315e-07 -2.41548e-09)
(2.99999 8.1382e-07 -8.62788e-09)
(2.99997 3.02074e-06 -1.00793e-08)
(2.99993 7.73679e-06 -1.57991e-08)
(2.99984 2.1265e-05 -1.59659e-08)
(2.99958 4.85437e-05 -2.09299e-08)
(2.99907 0.000126359 -2.06594e-08)
(2.99758 0.000280502 -2.62153e-08)
(2.99469 0.000733594 -2.75482e-08)
(2.98545 0.00161098 -3.92879e-08)
(2.968 0.00438817 -4.05308e-08)
(2.90749 0.00995672 -1.15154e-07)
(2.7542 0.0297219 -8.4167e-08)
(2.34627 0.0735942 -3.1993e-07)
(1.22885 0.215688 -3.94371e-07)
(0.562641 0.333178 -1.71591e-07)
(0.636445 0.36538 -8.50887e-08)
(0.674878 0.364077 -6.81523e-08)
(0.632917 0.376254 -6.83909e-08)
(0.555651 0.402764 -6.81444e-08)
(0.471283 0.435537 -6.89733e-08)
(0.396019 0.472748 -6.994e-08)
(0.314286 0.515703 -7.05005e-08)
(0.208467 0.564652 -7.07126e-08)
(0.0938395 0.610728 -7.07725e-08)
(3 1.7771e-07 -2.39614e-09)
(2.99999 9.71297e-07 -8.62755e-09)
(2.99998 3.61821e-06 -1.00898e-08)
(2.99994 9.29281e-06 -1.57981e-08)
(2.99986 2.56952e-05 -1.59884e-08)
(2.99963 5.93651e-05 -2.09725e-08)
(2.99917 0.000152204 -2.08137e-08)
(2.99783 0.000359107 -2.66375e-08)
(2.99526 0.000827814 -2.77619e-08)
(2.98692 0.00213094 -4.43354e-08)
(2.97171 0.00449255 -3.21793e-08)
(2.91714 0.0115807 -1.28429e-07)
(2.78154 0.0285312 -4.68719e-08)
(2.41352 0.072809 -2.97074e-07)
(1.34933 0.206362 -3.25719e-07)
(0.638967 0.38454 -2.80069e-07)
(0.647077 0.417873 -7.70217e-08)
(0.674667 0.413017 -6.45765e-08)
(0.654768 0.427526 -6.69348e-08)
(0.593325 0.45644 -6.77855e-08)
(0.517617 0.497827 -6.95992e-08)
(0.447101 0.545581 -7.12939e-08)
(0.36963 0.602358 -7.2212e-08)
(0.265881 0.676279 -7.36777e-08)
(0.131984 0.76769 -7.57501e-08)
(3 2.56944e-07 -2.41225e-09)
(2.99999 5.27528e-07 -8.65258e-09)
(2.99998 3.8329e-06 -1.01399e-08)
(2.99995 5.81243e-06 -1.62751e-08)
(2.99988 2.65258e-05 -1.57682e-08)
(2.99969 3.73055e-05 -2.16698e-08)
(2.99932 0.000159228 -2.09126e-08)
(2.99814 0.000207864 -2.78358e-08)
(2.99617 0.000967986 -2.69007e-08)
(2.98849 0.000960707 -4.39635e-08)
(2.97598 0.00645453 -4.47339e-08)
(2.92666 0.0040193 -9.50793e-08)
(2.80824 0.0414391 -4.6605e-08)
(2.48065 0.0533698 -3.11648e-07)
(1.49605 0.222118 -2.64994e-07)
(0.737896 0.438278 -3.43309e-07)
(0.656484 0.452325 -6.01638e-08)
(0.681021 0.452315 -5.27768e-08)
(0.675826 0.473045 -6.38387e-08)
(0.630773 0.505628 -6.63004e-08)
(0.569304 0.555392 -6.94076e-08)
(0.508219 0.614626 -7.10563e-08)
(0.444979 0.692061 -7.40379e-08)
(0.361827 0.810226 -7.80684e-08)
(0.204283 1.01917 -8.48994e-08)
(3 1.40134e-08 -3.79104e-13)
(2.99998 7.59953e-08 -2.0173e-12)
(2.99996 2.83879e-07 -4.39944e-12)
(2.99989 7.27715e-07 -9.32682e-12)
(2.99976 2.02182e-06 -1.69689e-11)
(2.99939 4.63534e-06 -3.21115e-11)
(2.99866 1.22541e-05 -6.59405e-11)
(2.99634 2.73225e-05 -1.29549e-10)
(2.99238 7.36692e-05 -3.02436e-10)
(2.97708 0.000158508 -6.15215e-10)
(2.95063 0.000469642 -1.7102e-09)
(2.84786 0.0010422 -3.63323e-09)
(2.57422 0.00340643 -8.69131e-09)
(1.90525 0.00846485 -2.35815e-08)
(0.854985 0.0241672 -3.21246e-08)
(0.459031 0.0230057 4.50584e-09)
(0.542649 0.0236706 -2.99506e-10)
(0.567262 0.0257255 -2.37919e-09)
(0.515387 0.0277299 -2.14939e-09)
(0.425723 0.0296929 -1.80074e-09)
(0.33914 0.0320697 -2.1073e-09)
(0.269179 0.0349616 -2.56055e-09)
(0.199487 0.0380828 -3.00369e-09)
(0.119775 0.0417386 -3.51014e-09)
(0.0524423 0.0468684 -4.20683e-09)
(3 4.03277e-08 -3.67613e-13)
(2.99998 2.19314e-07 -1.96874e-12)
(2.99996 8.17493e-07 -4.22686e-12)
(2.9999 2.09326e-06 -8.95189e-12)
(2.99977 5.80839e-06 -1.58321e-11)
(2.99939 1.32429e-05 -2.94414e-11)
(2.99868 3.53878e-05 -6.05739e-11)
(2.99639 7.68274e-05 -1.0612e-10)
(2.99249 0.000218399 -3.04512e-10)
(2.97741 0.000450969 -4.82582e-10)
(2.95139 0.00141527 -1.75802e-09)
(2.85009 0.00304494 -2.98517e-09)
(2.58111 0.0109664 -1.13089e-08)
(1.9208 0.0265728 -2.35976e-08)
(0.863107 0.0745752 -3.39641e-08)
(0.45433 0.0672928 5.09238e-09)
(0.541125 0.0660381 2.81905e-10)
(0.566809 0.0696219 -2.20795e-09)
(0.514551 0.073035 -2.08605e-09)
(0.42482 0.0763565 -1.82296e-09)
(0.338324 0.0803008 -2.03961e-09)
(0.267935 0.0848401 -2.42507e-09)
(0.197324 0.089121 -2.84419e-09)
(0.116447 0.0933282 -3.28952e-09)
(0.0489014 0.097524 -3.87498e-09)
(3 6.48106e-08 -3.66219e-13)
(2.99998 3.52417e-07 -1.96238e-12)
(2.99996 1.31515e-06 -4.21256e-12)
(2.9999 3.36664e-06 -8.91475e-12)
(2.99977 9.36706e-06 -1.57979e-11)
(2.99941 2.13362e-05 -2.93883e-11)
(2.99871 5.7496e-05 -6.07685e-11)
(2.99649 0.00012376 -1.07238e-10)
(2.99269 0.000360999 -3.0795e-10)
(2.97806 0.000734343 -4.94266e-10)
(2.95285 0.00237429 -1.81186e-09)
(2.85513 0.00502791 -3.10172e-09)
(2.59632 0.0189482 -1.17371e-08)
(1.9562 0.0455483 -2.46315e-08)
(0.88523 0.129099 -3.63374e-08)
(0.450843 0.114581 5.86392e-09)
(0.543368 0.110931 7.62399e-10)
(0.571356 0.117016 -2.17164e-09)
(0.518751 0.123322 -2.14093e-09)
(0.429289 0.130115 -1.95351e-09)
(0.343115 0.137536 -2.03997e-09)
(0.272223 0.145678 -2.30973e-09)
(0.200429 0.15362 -2.63222e-09)
(0.117978 0.160905 -2.92596e-09)
(0.0485568 0.166254 -3.2646e-09)
(3 8.14671e-08 -3.65783e-13)
(2.99998 4.45868e-07 -1.96018e-12)
(2.99996 1.65641e-06 -4.21268e-12)
(2.9999 4.22537e-06 -8.90867e-12)
(2.99978 1.1733e-05 -1.58512e-11)
(2.99943 2.64755e-05 -2.95331e-11)
(2.99876 7.26683e-05 -6.1363e-11)
(2.99665 0.000147274 -1.09573e-10)
(2.993 0.000482623 -3.11836e-10)
(2.97906 0.000850692 -5.10647e-10)
(2.95506 0.00341051 -1.85753e-09)
(2.86273 0.00668081 -3.16615e-09)
(2.61933 0.0265219 -1.20056e-08)
(2.01059 0.0634607 -2.53662e-08)
(0.919727 0.182534 -3.90911e-08)
(0.447225 0.162025 6.38441e-09)
(0.548614 0.155565 9.73959e-10)
(0.580688 0.163995 -2.22801e-09)
(0.52812 0.173315 -2.23872e-09)
(0.439259 0.184132 -2.0848e-09)
(0.353391 0.195412 -2.05275e-09)
(0.282029 0.20756 -2.23386e-09)
(0.20886 0.219764 -2.42241e-09)
(0.123782 0.230891 -2.54676e-09)
(0.0504477 0.237999 -2.65997e-09)
(3 9.93718e-08 -3.51393e-13)
(2.99999 5.45425e-07 -1.91643e-12)
(2.99996 2.02078e-06 -4.0432e-12)
(2.99991 5.15199e-06 -8.33874e-12)
(2.99979 1.42513e-05 -1.4725e-11)
(2.99946 3.21138e-05 -2.62233e-11)
(2.99881 8.79003e-05 -5.48806e-11)
(2.99684 0.000175237 -7.78562e-11)
(2.99328 0.000596405 -3.28008e-10)
(2.98046 0.000933966 -2.2388e-10)
(2.95783 0.00437017 -2.36393e-09)
(2.8728 0.00803913 -2.53884e-09)
(2.65036 0.0327636 -1.29795e-08)
(2.08457 0.0783586 -2.59956e-08)
(0.971072 0.230611 -4.31121e-08)
(0.450576 0.209802 6.5318e-09)
(0.560185 0.201001 1.31068e-09)
(0.596855 0.210777 -2.18207e-09)
(0.544273 0.22248 -2.27836e-09)
(0.456017 0.237345 -2.20659e-09)
(0.369979 0.252856 -1.99075e-09)
(0.297698 0.269665 -2.07838e-09)
(0.222511 0.286977 -2.17736e-09)
(0.133666 0.302917 -2.19032e-09)
(0.0546949 0.312612 -2.14504e-09)
(3 1.26064e-07 -3.64177e-13)
(2.99999 6.86804e-07 -1.96301e-12)
(2.99997 2.55748e-06 -4.23315e-12)
(2.99991 6.54887e-06 -8.78916e-12)
(2.99981 1.81387e-05 -1.60603e-11)
(2.9995 4.13857e-05 -2.9645e-11)
(2.99888 0.000110352 -6.0985e-11)
(2.99707 0.000237204 -1.14246e-10)
(2.99363 0.000700398 -3.05391e-10)
(2.98215 0.00128008 -4.7389e-10)
(2.96113 0.00488613 -1.99967e-09)
(2.88461 0.00927709 -2.89035e-09)
(2.68657 0.0360954 -1.20794e-08)
(2.17412 0.0875267 -2.55886e-08)
(1.04103 0.26734 -4.60982e-08)
(0.468623 0.258561 5.66177e-09)
(0.580588 0.251135 1.3946e-09)
(0.62097 0.260469 -2.1072e-09)
(0.568606 0.273082 -2.32613e-09)
(0.48115 0.291437 -2.44037e-09)
(0.394579 0.311588 -2.04922e-09)
(0.320927 0.33383 -2.01324e-09)
(0.243152 0.357587 -2.00666e-09)
(0.148895 0.380574 -1.89997e-09)
(0.0615315 0.395283 -1.73662e-09)
(3 1.42247e-07 -3.597e-13)
(2.99999 7.73152e-07 -1.94159e-12)
(2.99997 2.87985e-06 -4.16739e-12)
(2.99992 7.38414e-06 -8.63873e-12)
(2.99982 2.0393e-05 -1.56404e-11)
(2.99954 4.66746e-05 -2.87042e-11)
(2.99898 0.000122405 -5.83978e-11)
(2.99733 0.000271732 -1.08767e-10)
(2.99415 0.000730682 -2.79601e-10)
(2.9839 0.0015339 -5.03991e-10)
(2.96465 0.00473311 -1.74714e-09)
(2.8971 0.00963121 -2.72163e-09)
(2.72438 0.0338845 -1.10408e-08)
(2.274 0.0828548 -2.40668e-08)
(1.1364 0.254121 -4.89199e-08)
(0.518501 0.294994 2.31123e-09)
(0.616483 0.303109 5.72528e-10)
(0.654831 0.311448 -2.07072e-09)
(0.602775 0.3246 -2.34688e-09)
(0.516901 0.346944 -2.52775e-09)
(0.429439 0.372674 -2.0667e-09)
(0.353775 0.401517 -1.92498e-09)
(0.272991 0.433553 -1.89645e-09)
(0.172423 0.466824 -1.70437e-09)
(0.0734525 0.491651 -1.4252e-09)
(3 1.49316e-07 -3.50075e-13)
(2.99999 8.13823e-07 -1.89782e-12)
(2.99997 3.02075e-06 -4.02337e-12)
(2.99993 7.73682e-06 -8.32778e-12)
(2.99984 2.12651e-05 -1.46836e-11)
(2.99958 4.85438e-05 -2.67537e-11)
(2.99907 0.000126359 -5.20942e-11)
(2.99758 0.000280503 -9.69248e-11)
(2.99469 0.000733598 -2.30995e-10)
(2.98545 0.00161099 -4.45996e-10)
(2.968 0.00438822 -1.18101e-09)
(2.90749 0.00995675 -2.62439e-09)
(2.7542 0.0297223 -6.5955e-09)
(2.34627 0.0735953 -1.5123e-08)
(1.22884 0.215692 -2.59501e-08)
(0.562641 0.333178 -9.65011e-09)
(0.636445 0.365379 -3.47789e-09)
(0.674878 0.364076 -2.93714e-09)
(0.632917 0.376253 -2.98784e-09)
(0.55565 0.402763 -2.92161e-09)
(0.471282 0.435537 -2.4502e-09)
(0.396018 0.472747 -2.11242e-09)
(0.314285 0.515703 -1.94566e-09)
(0.208467 0.564652 -1.66005e-09)
(0.0938393 0.610729 -1.27147e-09)
(3 1.7771e-07 -3.47879e-13)
(2.99999 9.71301e-07 -1.88324e-12)
(2.99998 3.61823e-06 -3.99409e-12)
(2.99994 9.29284e-06 -8.26344e-12)
(2.99986 2.56953e-05 -1.45859e-11)
(2.99963 5.93653e-05 -2.66461e-11)
(2.99917 0.000152205 -5.1879e-11)
(2.99783 0.000359108 -9.94782e-11)
(2.99526 0.000827819 -2.16308e-10)
(2.98692 0.00213095 -5.15382e-10)
(2.97171 0.00449258 -8.48455e-10)
(2.91714 0.0115807 -2.91175e-09)
(2.78154 0.0285314 -4.70498e-09)
(2.41351 0.0728094 -1.27697e-08)
(1.34933 0.206364 -2.21573e-08)
(0.638965 0.38454 -1.73051e-08)
(0.647078 0.417872 -3.65664e-09)
(0.674668 0.413017 -2.98472e-09)
(0.654768 0.427525 -3.14163e-09)
(0.593325 0.456439 -3.05818e-09)
(0.517617 0.497827 -2.77456e-09)
(0.4471 0.545581 -2.36963e-09)
(0.369629 0.602358 -2.17131e-09)
(0.265881 0.676279 -1.76718e-09)
(0.131984 0.76769 -1.32172e-09)
(3 2.56942e-07 -3.39222e-13)
(2.99999 5.27541e-07 -1.8246e-12)
(2.99998 3.8329e-06 -3.7912e-12)
(2.99995 5.8125e-06 -8.00284e-12)
(2.99988 2.65259e-05 -1.30443e-11)
(2.99969 3.73059e-05 -2.39909e-11)
(2.99932 0.000159229 -4.28044e-11)
(2.99814 0.000207866 -7.95292e-11)
(2.99617 0.000967992 -1.7111e-10)
(2.98849 0.000960722 -3.30207e-10)
(2.97598 0.00645456 -8.57376e-10)
(2.92666 0.00401938 -1.81443e-09)
(2.80824 0.0414393 -3.93269e-09)
(2.48064 0.0533701 -1.28007e-08)
(1.49604 0.222119 -1.95015e-08)
(0.737894 0.438277 -2.18702e-08)
(0.656485 0.452325 -2.93562e-09)
(0.681022 0.452315 -2.47611e-09)
(0.675826 0.473045 -3.07489e-09)
(0.630773 0.505628 -3.08527e-09)
(0.569304 0.555392 -2.88779e-09)
(0.508219 0.614625 -2.71266e-09)
(0.444978 0.692061 -2.42444e-09)
(0.361827 0.810225 -2.04209e-09)
(0.204283 1.01917 -1.67403e-09)
(3 1.40134e-08 -7.7236e-15)
(2.99998 7.59955e-08 -3.39591e-14)
(2.99996 2.83879e-07 -1.16076e-13)
(2.99989 7.27716e-07 -2.50957e-13)
(2.99976 2.02183e-06 -7.49425e-13)
(2.99939 4.63535e-06 -1.5468e-12)
(2.99866 1.22541e-05 -4.56733e-12)
(2.99634 2.73226e-05 -9.52204e-12)
(2.99238 7.36692e-05 -2.8031e-11)
(2.97708 0.000158509 -5.61539e-11)
(2.95063 0.000469643 -1.8757e-10)
(2.84786 0.0010422 -3.93848e-10)
(2.57422 0.00340643 -1.12583e-09)
(1.90525 0.00846484 -3.03568e-09)
(0.854985 0.0241672 -4.56952e-09)
(0.459031 0.0230057 -4.59611e-11)
(0.542649 0.0236706 -3.9209e-10)
(0.567262 0.0257255 -7.25107e-10)
(0.515387 0.0277299 -7.78387e-10)
(0.425723 0.0296929 -8.45261e-10)
(0.33914 0.0320697 -8.34574e-10)
(0.269179 0.0349616 -8.33498e-10)
(0.199487 0.0380828 -8.51354e-10)
(0.119775 0.0417386 -8.53884e-10)
(0.0524423 0.0468684 -8.68194e-10)
(3 4.03278e-08 -6.79494e-15)
(2.99998 2.19314e-07 -3.00896e-14)
(2.99996 8.17493e-07 -1.01824e-13)
(2.9999 2.09326e-06 -2.1981e-13)
(2.99977 5.80839e-06 -6.51412e-13)
(2.99939 1.32429e-05 -1.31422e-12)
(2.99868 3.53878e-05 -4.08094e-12)
(2.99639 7.68275e-05 -7.40652e-12)
(2.99249 0.000218399 -2.80692e-11)
(2.97741 0.000450969 -4.37282e-11)
(2.95139 0.00141527 -1.90928e-10)
(2.85009 0.00304494 -3.28041e-10)
(2.58111 0.0109664 -1.37763e-09)
(1.9208 0.0265728 -3.01688e-09)
(0.863107 0.0745751 -4.72797e-09)
(0.45433 0.0672928 3.66066e-12)
(0.541125 0.0660381 -3.49513e-10)
(0.566809 0.0696219 -7.16521e-10)
(0.514551 0.073035 -7.77448e-10)
(0.42482 0.0763565 -8.52897e-10)
(0.338324 0.0803008 -8.42188e-10)
(0.267935 0.0848401 -8.42458e-10)
(0.197324 0.089121 -8.611e-10)
(0.116447 0.0933283 -8.60871e-10)
(0.0489014 0.0975241 -8.69172e-10)
(3 6.48106e-08 -6.67877e-15)
(2.99998 3.52417e-07 -2.95675e-14)
(2.99996 1.31515e-06 -1.00389e-13)
(2.9999 3.36664e-06 -2.16677e-13)
(2.99977 9.36706e-06 -6.46764e-13)
(2.99941 2.13362e-05 -1.30687e-12)
(2.99871 5.7496e-05 -4.08335e-12)
(2.99649 0.00012376 -7.4773e-12)
(2.99269 0.000360999 -2.82381e-11)
(2.97806 0.000734343 -4.45306e-11)
(2.95285 0.00237429 -1.94804e-10)
(2.85513 0.00502791 -3.36382e-10)
(2.59632 0.0189482 -1.40967e-09)
(1.9562 0.0455483 -3.09903e-09)
(0.88523 0.129099 -4.96568e-09)
(0.450843 0.114581 6.3486e-11)
(0.543368 0.110931 -3.12687e-10)
(0.571356 0.117016 -7.21339e-10)
(0.518751 0.123322 -7.91358e-10)
(0.429289 0.130115 -8.80217e-10)
(0.343115 0.137536 -8.73438e-10)
(0.272223 0.145678 -8.77067e-10)
(0.200429 0.153621 -8.97504e-10)
(0.117978 0.160905 -8.93233e-10)
(0.0485568 0.166254 -8.88333e-10)
(3 8.14672e-08 -6.68523e-15)
(2.99998 4.45868e-07 -2.94733e-14)
(2.99996 1.65641e-06 -1.00581e-13)
(2.9999 4.22538e-06 -2.17048e-13)
(2.99978 1.1733e-05 -6.52291e-13)
(2.99943 2.64755e-05 -1.32223e-12)
(2.99876 7.26683e-05 -4.13671e-12)
(2.99665 0.000147274 -7.69942e-12)
(2.993 0.000482623 -2.85199e-11)
(2.97906 0.000850692 -4.60027e-11)
(2.95506 0.00341051 -1.98513e-10)
(2.86273 0.00668081 -3.4075e-10)
(2.61933 0.0265219 -1.42894e-09)
(2.01059 0.0634607 -3.16127e-09)
(0.919727 0.182534 -5.2792e-09)
(0.447225 0.162025 1.00772e-10)
(0.548614 0.155565 -2.92999e-10)
(0.580688 0.163995 -7.41191e-10)
(0.52812 0.173315 -8.21205e-10)
(0.439259 0.184132 -9.27915e-10)
(0.353391 0.195412 -9.29746e-10)
(0.282029 0.20756 -9.38276e-10)
(0.20886 0.219764 -9.61772e-10)
(0.123782 0.230891 -9.54394e-10)
(0.0504477 0.237999 -9.38784e-10)
(3 9.93718e-08 -5.60942e-15)
(2.99999 5.45425e-07 -2.54476e-14)
(2.99996 2.02078e-06 -8.46828e-14)
(2.99991 5.15199e-06 -1.79412e-13)
(2.99979 1.42513e-05 -5.3742e-13)
(2.99946 3.21138e-05 -1.04117e-12)
(2.99881 8.79003e-05 -3.53769e-12)
(2.99684 0.000175237 -4.66904e-12)
(2.99328 0.000596405 -3.02313e-11)
(2.98046 0.000933966 -1.6332e-11)
(2.95783 0.00437017 -2.52519e-10)
(2.8728 0.00803913 -2.70303e-10)
(2.65036 0.0327636 -1.52142e-09)
(2.08457 0.0783586 -3.20478e-09)
(0.971071 0.230611 -5.72077e-09)
(0.450576 0.209802 1.01996e-10)
(0.560185 0.201001 -2.69765e-10)
(0.596855 0.210777 -7.66523e-10)
(0.544273 0.22248 -8.62324e-10)
(0.456017 0.237345 -9.93351e-10)
(0.369979 0.252856 -1.0061e-09)
(0.297698 0.269665 -1.02152e-09)
(0.222511 0.286977 -1.05116e-09)
(0.133666 0.302917 -1.04492e-09)
(0.0546949 0.312612 -1.01927e-09)
(3 1.26064e-07 -6.88077e-15)
(2.99999 6.86804e-07 -3.03058e-14)
(2.99997 2.55748e-06 -1.03647e-13)
(2.99991 6.54887e-06 -2.24627e-13)
(2.99981 1.81387e-05 -6.72247e-13)
(2.9995 4.13857e-05 -1.38685e-12)
(2.99888 0.000110352 -4.16921e-12)
(2.99707 0.000237204 -8.33043e-12)