/*--------------------------------*- C++ -*----------------------------------*\
| =========                 |                                                 |
| \\      /  F ield         | OpenFOAM: The Open Source CFD Toolbox           |
|  \\    /   O peration     | Version:  4.1                                   |
|   \\  /    A nd           | Web:      www.OpenFOAM.org                      |
|    \\/     M anipulation  |                                                 |
\*---------------------------------------------------------------------------*/
FoamFile
{
    version     2.0;
    format      ascii;
    class       volScalarField;
    location    "0.64";
    object      Ma;
}
// * * * * * * * * * * * * * * * * * * * * * * * * * * * * * * * * * * * * * //

dimensions      [0 0 0 0 0 0 0];

internalField   nonuniform List<scalar> 
18000
(
5.35612e-12
5.29606e-12
5.22496e-12
5.16609e-12
5.10777e-12
5.05022e-12
4.99327e-12
4.93742e-12
4.8824e-12
4.82904e-12
6.69288e-12
6.4589e-12
6.22312e-12
6.0065e-12
5.79919e-12
5.60051e-12
5.40983e-12
5.22724e-12
5.05157e-12
4.88648e-12
8.46441e-12
7.95278e-12
7.46651e-12
7.02266e-12
6.61002e-12
6.22665e-12
5.87064e-12
5.53855e-12
5.22942e-12
4.94508e-12
1.08442e-11
9.89078e-12
9.02797e-12
8.25611e-12
7.56391e-12
6.94124e-12
6.38e-12
5.87315e-12
5.41468e-12
5.00465e-12
1.40905e-11
1.24357e-11
1.10039e-11
9.76432e-12
8.69134e-12
7.75846e-12
6.94486e-12
6.2332e-12
5.60831e-12
5.06537e-12
1.85917e-11
1.58213e-11
1.35311e-11
1.16211e-11
1.00301e-11
8.69617e-12
7.57237e-12
6.62069e-12
5.81051e-12
5.12712e-12
2.49368e-11
2.03932e-11
1.67956e-11
1.39255e-11
1.16288e-11
9.77596e-12
8.27035e-12
7.03801e-12
6.02217e-12
5.18989e-12
3.40965e-11
2.66963e-11
2.11221e-11
1.68852e-11
1.36434e-11
1.11363e-11
9.17792e-12
7.63422e-12
6.40601e-12
5.43902e-12
4.38332e-09
4.37634e-09
4.11757e-09
3.88378e-09
3.67332e-09
3.48321e-09
3.31085e-09
3.15402e-09
3.01108e-09
2.93769e-09
4.7437e-07
5.35706e-08
4.56949e-08
3.97746e-08
3.48181e-08
3.06418e-08
2.7104e-08
2.40941e-08
2.14409e-08
8.33726e-08
5.66381e-12
5.59708e-12
5.52314e-12
5.45819e-12
5.39449e-12
5.33199e-12
5.26953e-12
5.20899e-12
5.14924e-12
5.0909e-12
7.12577e-12
6.86632e-12
6.61494e-12
6.37657e-12
6.1492e-12
5.93149e-12
5.72375e-12
5.52469e-12
5.33438e-12
5.1537e-12
9.07266e-12
8.50359e-12
7.98096e-12
7.49035e-12
7.0368e-12
6.61657e-12
6.22764e-12
5.86588e-12
5.52971e-12
5.21878e-12
1.17178e-11
1.06533e-11
9.71347e-12
8.85582e-12
8.09027e-12
7.4046e-12
6.78939e-12
6.23613e-12
5.73606e-12
5.28479e-12
1.53733e-11
1.35132e-11
1.1931e-11
1.05418e-11
9.34665e-12
8.31369e-12
7.4173e-12
6.63682e-12
5.95399e-12
5.3535e-12
2.05216e-11
1.73726e-11
1.48025e-11
1.26394e-11
1.08526e-11
9.36544e-12
8.12091e-12
7.07291e-12
6.18505e-12
5.42448e-12
2.79143e-11
2.26733e-11
1.8564e-11
1.52725e-11
1.26691e-11
1.05876e-11
8.90972e-12
7.54688e-12
6.42846e-12
5.49782e-12
3.88006e-11
3.0076e-11
2.35581e-11
1.86116e-11
1.48764e-11
1.20163e-11
9.80121e-12
8.06529e-12
6.68924e-12
5.57625e-12
1.44899e-10
3.17342e-10
2.60289e-10
2.1489e-10
1.79401e-10
1.51269e-10
1.28704e-10
1.10409e-10
9.54413e-11
8.3937e-11
3.24579e-07
4.92036e-08
4.29085e-08
3.76359e-08
3.32654e-08
2.96068e-08
2.65162e-08
2.38838e-08
2.16303e-08
2.05449e-08
4.978e-13
4.76058e-13
3.49936e-13
3.34722e-13
3.20776e-13
3.08298e-13
2.9708e-13
2.87592e-13
2.792e-13
2.69839e-13
6.90023e-13
6.20575e-13
5.52529e-13
5.02625e-13
4.57591e-13
4.1754e-13
3.81887e-13
3.5131e-13
3.25855e-13
2.84371e-13
8.61139e-13
7.48689e-13
7.3715e-13
6.56684e-13
5.85445e-13
5.23572e-13
4.7077e-13
4.26147e-13
3.86843e-13
3.04397e-13
1.15625e-12
1.00986e-12
1.02657e-12
8.9265e-13
7.77515e-13
6.80642e-13
5.99152e-13
5.31227e-13
4.72032e-13
3.34011e-13
1.63484e-12
1.45445e-12
1.44592e-12
1.22222e-12
1.03629e-12
8.84878e-13
7.60962e-13
6.59433e-13
5.72539e-13
3.7143e-13
2.41273e-12
2.17451e-12
2.05013e-12
1.67588e-12
1.37847e-12
1.14434e-12
9.58811e-13
8.10772e-13
6.8692e-13
4.15343e-13
3.68835e-12
3.31347e-12
2.9246e-12
2.29982e-12
1.82745e-12
1.47058e-12
1.19699e-12
9.85641e-13
8.14623e-13
4.64967e-13
5.86875e-12
5.11833e-12
4.2002e-12
3.16136e-12
2.41707e-12
1.8788e-12
1.48237e-12
1.18633e-12
9.55466e-13
5.19537e-13
2.29653e-10
1.1427e-11
9.17389e-12
6.70133e-12
5.01177e-12
3.82904e-12
2.98218e-12
2.36333e-12
1.89795e-12
1.38739e-12
2.77609e-07
3.62666e-09
2.67479e-09
2.0504e-09
1.59721e-09
1.2622e-09
1.01042e-09
8.18366e-10
6.70093e-10
5.64723e-10
3.84392e-13
3.60634e-13
1.72023e-13
1.51262e-13
1.30912e-13
1.11802e-13
9.3941e-14
7.75517e-14
6.30077e-14
3.71387e-14
5.31905e-13
4.5963e-13
3.85916e-13
3.35934e-13
2.89313e-13
2.47656e-13
2.10921e-13
1.7923e-13
1.52802e-13
7.94597e-14
5.95651e-13
4.89179e-13
5.235e-13
4.55651e-13
3.95444e-13
3.44256e-13
3.01683e-13
2.67646e-13
2.39061e-13
1.19597e-13
7.29415e-13
6.35124e-13
7.60566e-13
6.57903e-13
5.68988e-13
4.9553e-13
4.34941e-13
3.85659e-13
3.4333e-13
1.71009e-13
9.58116e-13
9.44474e-13
1.10777e-12
9.42139e-13
8.02711e-13
6.89201e-13
5.9666e-13
5.21569e-13
4.56604e-13
2.24504e-13
1.34298e-12
1.48626e-12
1.6104e-12
1.33476e-12
1.11018e-12
9.32339e-13
7.90009e-13
6.76518e-13
5.79564e-13
2.81086e-13
1.98113e-12
2.36373e-12
2.33832e-12
1.87456e-12
1.51307e-12
1.2359e-12
1.02022e-12
8.51819e-13
7.12585e-13
3.40858e-13
3.11781e-12
3.76186e-12
3.39697e-12
2.61834e-12
2.04027e-12
1.61423e-12
1.2939e-12
1.05049e-12
8.5666e-13
4.0384e-13
2.52084e-10
6.76804e-12
4.89676e-12
3.616e-12
2.71444e-12
2.07615e-12
1.61359e-12
1.27365e-12
1.0117e-12
4.7017e-13
2.7475e-07
1.11501e-09
8.71977e-11
5.77137e-11
3.94182e-11
2.7548e-11
1.96607e-11
1.42954e-11
1.05706e-11
7.8735e-12
3.84333e-13
3.60152e-13
1.72186e-13
1.51305e-13
1.3089e-13
1.11685e-13
9.40496e-14
7.76225e-14
6.28379e-14
3.68675e-14
5.32149e-13
4.59763e-13
3.86429e-13
3.36429e-13
2.89838e-13
2.47882e-13
2.11048e-13
1.79557e-13
1.53047e-13
7.93742e-14
5.9627e-13
4.89844e-13
5.24714e-13
4.56604e-13
3.96008e-13
3.44888e-13
3.02225e-13
2.67914e-13
2.39068e-13
1.19556e-13
7.3068e-13
6.36715e-13
7.62336e-13
6.59529e-13
5.70244e-13
4.96493e-13
4.35776e-13
3.86335e-13
3.43714e-13
1.70731e-13
9.60205e-13
9.47503e-13
1.11115e-12
9.44783e-13
8.04808e-13
6.91141e-13
5.97965e-13
5.22275e-13
4.57327e-13
2.2491e-13
1.34596e-12
1.49179e-12
1.61562e-12
1.33938e-12
1.11378e-12
9.35343e-13
7.92498e-13
6.78248e-13
5.81004e-13
2.81876e-13
1.98471e-12
2.37377e-12
2.34797e-12
1.88224e-12
1.51935e-12
1.24101e-12
1.0242e-12
8.54832e-13
7.15225e-13
3.42454e-13
3.12379e-12
3.78036e-12
3.41364e-12
2.63165e-12
2.05091e-12
1.62256e-12
1.30045e-12
1.05573e-12
8.60661e-13
4.06587e-13
2.63478e-10
7.04391e-12
4.98433e-12
3.67018e-12
2.74907e-12
2.09873e-12
1.62854e-12
1.28384e-12
1.01874e-12
4.73923e-13
2.92209e-07
1.20485e-09
1.20189e-11
5.32141e-12
3.78238e-12
2.76753e-12
2.06879e-12
1.57712e-12
1.21396e-12
5.68882e-13
3.84385e-13
3.59807e-13
1.72735e-13
1.51828e-13
1.31228e-13
1.11974e-13
9.41137e-14
7.7908e-14
6.32023e-14
3.68353e-14
5.33021e-13
4.60241e-13
3.87691e-13
3.37503e-13
2.90779e-13
2.48576e-13
2.11505e-13
1.79846e-13
1.53617e-13
7.98568e-14
5.98134e-13
4.9164e-13
5.27048e-13
4.58523e-13
3.97722e-13
3.4612e-13
3.03104e-13
2.68537e-13
2.39627e-13
1.20067e-13
7.34527e-13
6.40805e-13
7.66146e-13
6.62627e-13
5.72789e-13
4.98401e-13
4.37187e-13
3.87451e-13
3.44422e-13
1.71306e-13
9.67675e-13
9.55137e-13
1.11738e-12
9.49785e-13
8.0878e-13
6.94432e-13
6.00602e-13
5.24352e-13
4.58796e-13
2.25847e-13
1.35997e-12
1.50532e-12
1.62643e-12
1.34759e-12
1.12019e-12
9.40601e-13
7.96724e-13
6.81321e-13
5.83509e-13
2.83606e-13
2.01098e-12
2.39721e-12
2.36636e-12
1.89627e-12
1.53008e-12
1.24954e-12
1.03092e-12
8.59958e-13
7.19256e-13
3.45267e-13
3.17649e-12
3.82264e-12
3.44549e-12
2.65514e-12
2.0685e-12
1.63615e-12
1.31107e-12
1.06382e-12
8.6683e-13
4.107e-13
2.79716e-10
7.20464e-12
5.04169e-12
3.71022e-12
2.77807e-12
2.12036e-12
1.64474e-12
1.29593e-12
1.02814e-12
4.80274e-13
3.18799e-07
1.29968e-09
1.22241e-11
5.13758e-12
3.69143e-12
2.72125e-12
2.04522e-12
1.56528e-12
1.20831e-12
5.60834e-13
3.8436e-13
3.59524e-13
1.73331e-13
1.52461e-13
1.31832e-13
1.12525e-13
9.45828e-14
7.8156e-14
6.35135e-14
4.03988e-14
5.34021e-13
4.60884e-13
3.89327e-13
3.38769e-13
2.919e-13
2.49674e-13
2.12405e-13
1.80506e-13
1.53875e-13
8.12805e-14
6.00412e-13
4.93753e-13
5.2975e-13
4.60895e-13
3.99634e-13
3.47703e-13
3.04219e-13
2.69393e-13
2.40362e-13
1.21231e-13
7.39128e-13
6.45641e-13
7.70555e-13
6.66364e-13
5.75977e-13
5.00942e-13
4.39003e-13
3.88756e-13
3.4576e-13
1.72661e-13
9.76628e-13
9.64126e-13
1.12475e-12
9.55665e-13
8.13493e-13
6.98459e-13
6.03899e-13
5.26902e-13
4.60791e-13
2.27782e-13
1.37707e-12
1.52093e-12
1.63906e-12
1.35764e-12
1.12793e-12
9.46927e-13
8.01996e-13
6.85511e-13
5.86689e-13
2.86341e-13
2.04273e-12
2.42481e-12
2.38767e-12
1.91282e-12
1.54294e-12
1.25983e-12
1.0393e-12
8.66573e-13
7.24345e-13
3.49375e-13
3.23139e-12
3.87167e-12
3.48263e-12
2.68292e-12
2.08946e-12
1.65231e-12
1.32417e-12
1.07421e-12
8.74741e-13
4.16465e-13
2.87151e-10
7.24562e-12
5.10595e-12
3.75686e-12
2.81243e-12
2.14621e-12
1.66493e-12
1.31101e-12
1.03986e-12
4.88675e-13
3.40143e-07
1.32009e-09
1.20363e-11
5.20625e-12
3.74299e-12
2.7593e-12
2.07421e-12
1.58705e-12
1.22487e-12
5.72208e-13
3.84417e-13
3.58523e-13
1.73682e-13
1.52837e-13
1.32595e-13
1.14205e-13
9.88759e-14
1.18753e-13
3.54196e-13
1.07353e-12
5.34643e-13
4.60592e-13
3.90194e-13
3.39774e-13
2.93105e-13
2.51327e-13
2.15094e-13
1.9239e-13
2.59847e-13
7.04141e-13
6.01926e-13
4.94245e-13
5.3125e-13
4.6233e-13
4.01266e-13
3.49862e-13
3.07505e-13
2.75927e-13
2.80886e-13
4.77078e-13
7.42452e-13
6.47238e-13
7.72863e-13
6.68516e-13
5.78085e-13
5.03523e-13
4.42952e-13
3.94634e-13
3.65597e-13
3.69719e-13
9.82869e-13
9.67271e-13
1.12812e-12
9.58882e-13
8.16518e-13
7.01505e-13
6.08423e-13
5.33315e-13
4.75023e-13
3.39078e-13
1.38771e-12
1.52653e-12
1.64436e-12
1.36271e-12
1.13271e-12
9.51824e-13
8.08252e-13
6.93648e-13
5.99811e-13
3.55554e-13
2.06053e-12
2.43485e-12
2.39672e-12
1.9212e-12
1.55053e-12
1.26735e-12
1.04779e-12
8.77011e-13
7.38332e-13
3.9814e-13
3.21854e-12
3.88998e-12
3.49854e-12
2.69727e-12
2.10202e-12
1.66356e-12
1.33573e-12
1.08815e-12
8.91422e-13
4.55388e-13
2.14127e-10
6.707e-12
5.13036e-12
3.781e-12
2.83265e-12
2.16386e-12
1.68212e-12
1.3298e-12
1.05959e-12
5.2298e-13
2.86617e-07
7.78747e-10
9.38591e-12
5.23333e-12
3.77352e-12
2.78559e-12
2.09829e-12
1.61139e-12
1.24951e-12
6.05389e-13
3.97129e-13
4.27269e-13
2.34145e-13
1.57587e-13
2.01072e-13
5.17771e-13
1.125e-12
4.44178e-12
1.67461e-11
4.54186e-11
5.63319e-13
5.82695e-13
4.66616e-13
3.61701e-13
2.97133e-13
4.75767e-13
9.0167e-13
2.80833e-12
9.8321e-12
2.97031e-11
6.60886e-13
7.0947e-13
6.51767e-13
5.16605e-13
3.98729e-13
4.42194e-13
8.36181e-13
1.94509e-12
6.2773e-12
1.94002e-11
8.40249e-13
9.50325e-13
9.31394e-13
7.51929e-13
5.88595e-13
5.20046e-13
7.97339e-13
1.47702e-12
4.36041e-12
1.311e-11
1.1303e-12
1.33899e-12
1.31923e-12
1.06743e-12
8.45289e-13
6.90796e-13
7.86859e-13
1.25238e-12
3.27341e-12
9.1679e-12
1.59217e-12
1.94697e-12
1.86094e-12
1.48835e-12
1.17446e-12
9.35968e-13
8.77522e-13
1.27832e-12
2.62429e-12
6.61849e-12
2.32207e-12
2.89096e-12
2.6269e-12
2.05317e-12
1.59724e-12
1.24977e-12
1.05577e-12
1.25084e-12
2.22471e-12
4.9191e-12
3.44759e-12
4.35727e-12
3.72289e-12
2.81922e-12
2.14129e-12
1.64051e-12
1.31105e-12
1.29875e-12
1.97714e-12
3.75759e-12
7.9846e-11
6.18024e-12
5.31248e-12
3.8703e-12
2.84745e-12
2.1242e-12
1.63527e-12
1.43233e-12
1.82174e-12
2.95055e-12
4.75002e-08
1.38349e-09
5.72126e-12
5.2369e-12
3.74363e-12
2.71455e-12
2.0256e-12
1.63913e-12
1.75394e-12
2.39003e-12
2.51595e-12
2.36479e-12
1.51165e-12
1.58845e-13
2.69939e-12
8.86975e-12
2.76037e-11
1.13822e-10
3.89272e-10
5.70317e-10
3.54485e-12
3.4213e-12
2.5308e-12
1.14532e-12
1.3454e-12
6.35667e-12
1.97664e-11
7.07749e-11
2.30549e-10
3.6488e-10
4.81232e-12
4.67825e-12
3.69958e-12
2.29744e-12
2.52872e-13
4.14864e-12
1.40511e-11
4.69652e-11
1.45602e-10
2.46338e-10
6.47462e-12
6.25319e-12
5.09333e-12
3.57799e-12
1.41396e-12
2.31072e-12
9.92992e-12
3.25957e-11
9.66467e-11
1.71841e-10
8.70154e-12
8.26108e-12
6.78507e-12
5.05079e-12
2.81748e-12
7.70671e-13
6.86652e-12
2.31629e-11
6.66371e-11
1.22998e-10
1.17405e-11
1.08651e-11
8.87455e-12
6.76544e-12
4.32223e-12
1.18049e-12
4.42521e-12
1.64469e-11
4.73137e-11
9.00258e-11
1.59754e-11
1.43173e-11
1.15034e-11
8.80066e-12
5.99934e-12
2.71212e-12
2.42007e-12
1.18118e-11
3.43688e-11
6.71549e-11
2.20389e-11
1.89814e-11
1.48633e-11
1.12599e-11
7.88684e-12
4.31926e-12
1.05458e-12
8.34113e-12
2.53669e-11
5.0898e-11
3.55455e-10
2.5413e-11
1.92425e-11
1.42799e-11
1.0055e-11
6.03686e-12
1.76853e-12
5.63686e-12
1.89248e-11
3.90798e-11
7.51299e-07
2.17617e-09
2.53801e-11
1.80415e-11
1.25694e-11
7.87953e-12
3.28271e-12
3.50889e-12
1.41638e-11
3.03042e-11
3.34246e-12
3.00619e-12
1.98025e-12
1.95746e-12
8.45999e-12
3.01796e-11
1.32684e-10
5.48386e-10
1.0905e-09
1.2664e-09
4.42597e-12
4.1238e-12
3.14312e-12
1.65076e-12
5.27983e-12
2.04951e-11
8.14047e-11
3.16264e-10
6.69685e-10
7.60858e-10
5.74196e-12
5.4171e-12
4.45096e-12
2.74184e-12
2.83816e-12
1.35725e-11
5.2571e-11
1.94287e-10
4.30986e-10
4.8263e-10
7.42497e-12
6.98047e-12
5.92904e-12
4.23697e-12
1.95414e-12
8.5425e-12
3.49725e-11
1.25124e-10
2.86399e-10
3.17647e-10
9.62975e-12
8.92109e-12
7.65003e-12
5.88735e-12
3.11865e-12
4.88975e-12
2.34104e-11
8.32565e-11
1.95318e-10
2.15401e-10
1.25909e-11
1.13882e-11
9.7091e-12
7.71855e-12
4.90829e-12
2.53675e-12
1.528e-11
5.64411e-11
1.36291e-10
1.4977e-10
1.66619e-11
1.45974e-11
1.22352e-11
9.80977e-12
6.84544e-12
2.75334e-12
9.57307e-12
3.8785e-11
9.65659e-11
1.06252e-10
2.24047e-11
1.8865e-11
1.54076e-11
1.22583e-11
8.9248e-12
4.60409e-12
5.39902e-12
2.66845e-11
6.92748e-11
7.66001e-11
1.89174e-10
2.48338e-11
1.94767e-11
1.51965e-11
1.12222e-11
6.72198e-12
2.76883e-12
1.81192e-11
5.01283e-11
5.58635e-11
1.5438e-07
7.28145e-09
4.1207e-11
1.87676e-11
1.37994e-11
8.89549e-12
3.01395e-12
1.18595e-11
3.64069e-11
4.1019e-11
1.02548e-12
1.27722e-12
1.53996e-12
3.21019e-12
8.4454e-12
2.47889e-11
8.65118e-11
2.65037e-10
3.92205e-10
2.81399e-10
1.11735e-12
1.28516e-12
1.41663e-12
2.44184e-12
6.03143e-12
1.73357e-11
5.76493e-11
1.69073e-10
2.39142e-10
1.04209e-10
1.21383e-12
1.33522e-12
1.41929e-12
1.97836e-12
4.33856e-12
1.22192e-11
3.92343e-11
1.11136e-10
1.51337e-10
4.07212e-11
1.31505e-12
1.4143e-12
1.49933e-12
1.80005e-12
3.20582e-12
8.65157e-12
2.72144e-11
7.49935e-11
9.89253e-11
2.6384e-11
1.42277e-12
1.51171e-12
1.61599e-12
1.80273e-12
2.53154e-12
6.15004e-12
1.90767e-11
5.1753e-11
6.62579e-11
2.34201e-11
1.54533e-12
1.62504e-12
1.74828e-12
1.89474e-12
2.22708e-12
4.46109e-12
1.34554e-11
3.65086e-11
4.52148e-11
2.10613e-11
1.68866e-12
1.75525e-12
1.88792e-12
2.0268e-12
2.16938e-12
3.36571e-12
9.52272e-12
2.59387e-11
3.12778e-11
1.85692e-11
1.89502e-12
1.90548e-12
2.03835e-12
2.17316e-12
2.2387e-12
2.75964e-12
6.81389e-12
1.85791e-11
2.18432e-11
1.62089e-11
4.96076e-10
7.2748e-12
2.19779e-12
2.32761e-12
2.36721e-12
2.51029e-12
4.96595e-12
1.3397e-11
1.53247e-11
1.41398e-11
2.63564e-07
8.01571e-09
2.18217e-11
2.50977e-12
2.51347e-12
2.47469e-12
3.74424e-12
9.69921e-12
1.07246e-11
1.22632e-11
7.83004e-13
1.48952e-12
1.60603e-12
2.51748e-12
4.14216e-12
6.98863e-12
1.46418e-11
5.54382e-11
2.28061e-10
6.64155e-10
7.18647e-13
1.33794e-12
1.39113e-12
2.1447e-12
3.48054e-12
5.8347e-12
1.11443e-11
3.44725e-11
1.38638e-10
3.81493e-10
6.55917e-13
1.19601e-12
1.19756e-12
1.81862e-12
2.91846e-12
4.83893e-12
8.79132e-12
2.27739e-11
8.81269e-11
2.31914e-10
6.0275e-13
1.07452e-12
1.03661e-12
1.55655e-12
2.46063e-12
4.03791e-12
7.08431e-12
1.5975e-11
5.81107e-11
1.47587e-10
5.56688e-13
9.70396e-13
9.00375e-13
1.33382e-12
2.08488e-12
3.39798e-12
5.79372e-12
1.17954e-11
3.94488e-11
9.74009e-11
5.17361e-13
8.81433e-13
7.86061e-13
1.15292e-12
1.78557e-12
2.87063e-12
4.80016e-12
9.05951e-12
2.74408e-11
6.62364e-11
4.83468e-13
8.04882e-13
6.88999e-13
1.00034e-12
1.53041e-12
2.43592e-12
4.02927e-12
7.17589e-12
1.95133e-11
4.62378e-11
5.95142e-13
7.38923e-13
6.07828e-13
8.71101e-13
1.32064e-12
2.08457e-12
3.40875e-12
5.82424e-12
1.41385e-11
3.2999e-11
7.61824e-10
2.05267e-11
5.67162e-13
7.61772e-13
1.1465e-12
1.79403e-12
2.90154e-12
4.81376e-12
1.0421e-11
2.40035e-11
2.61895e-07
2.56688e-08
1.2949e-10
1.51838e-12
9.79828e-13
1.5429e-12
2.47416e-12
4.02489e-12
7.78691e-12
1.77389e-11
1.05581e-12
1.84571e-12
1.62759e-12
2.17015e-12
3.01953e-12
4.37409e-12
6.83924e-12
1.29324e-11
5.03316e-11
1.6544e-10
9.82866e-13
1.69233e-12
1.45881e-12
1.9369e-12
2.67115e-12
3.80967e-12
5.75065e-12
1.01858e-11
3.56846e-11
1.00752e-10
9.12348e-13
1.5451e-12
1.29632e-12
1.71257e-12
2.34666e-12
3.31646e-12
4.87083e-12
8.01281e-12
2.53649e-11
6.49413e-11
8.50548e-13
1.41662e-12
1.15753e-12
1.51841e-12
2.07025e-12
2.90053e-12
4.19033e-12
6.47265e-12
1.82801e-11
4.37643e-11
7.96891e-13
1.30454e-12
1.03799e-12
1.35173e-12
1.83645e-12
2.5534e-12
3.64546e-12
5.38267e-12
1.33087e-11
3.05076e-11
7.50105e-13
1.20647e-12
9.34286e-13
1.2088e-12
1.6313e-12
2.25593e-12
3.20105e-12
4.58167e-12
9.78999e-12
2.18279e-11
7.08893e-13
1.11984e-12
8.44529e-13
1.08469e-12
1.455e-12
2.0044e-12
2.8261e-12
3.96443e-12
7.27689e-12
1.59205e-11
8.60566e-13
1.04418e-12
7.66671e-13
9.76541e-13
1.30175e-12
1.78453e-12
2.50297e-12
3.46954e-12
5.4566e-12
1.17989e-11
1.11182e-09
3.64487e-11
7.38918e-13
8.81603e-13
1.16865e-12
1.59314e-12
2.22798e-12
3.0574e-12
4.1267e-12
8.85216e-12
3.21664e-07
4.51444e-08
3.17108e-10
2.15781e-12
1.02053e-12
1.42548e-12
1.98561e-12
2.70294e-12
3.13003e-12
6.69803e-12
1.46086e-12
2.32868e-12
1.64079e-12
1.89758e-12
2.27744e-12
2.82357e-12
3.78965e-12
5.85419e-12
1.43787e-11
2.6776e-11
1.38175e-12
2.17928e-12
1.52373e-12
1.76657e-12
2.11781e-12
2.59975e-12
3.35552e-12
4.79688e-12
1.13808e-11
2.00286e-11
1.30243e-12
2.03063e-12
1.40059e-12
1.62573e-12
1.94969e-12
2.38082e-12
3.00518e-12
4.02969e-12
8.78845e-12
1.51184e-11
1.23231e-12
1.89787e-12
1.28939e-12
1.4969e-12
1.79601e-12
2.18881e-12
2.72886e-12
3.4891e-12
6.75321e-12
1.15696e-11
1.17023e-12
1.77896e-12
1.18953e-12
1.37969e-12
1.65693e-12
2.01729e-12
2.50106e-12
3.09665e-12
5.1816e-12
8.94125e-12
1.11504e-12
1.67182e-12
1.09993e-12
1.27426e-12
1.52861e-12
1.86174e-12
2.30085e-12
2.79702e-12
3.96766e-12
6.94859e-12
1.06589e-12
1.57559e-12
1.01956e-12
1.17864e-12
1.41213e-12
1.72017e-12
2.12737e-12
2.55273e-12
3.03555e-12
5.4197e-12
1.22814e-12
1.48947e-12
9.47137e-13
1.09189e-12
1.30627e-12
1.59115e-12
1.96914e-12
2.34967e-12
2.31732e-12
4.2421e-12
1.40409e-09
5.32184e-11
9.32393e-13
1.0124e-12
1.2095e-12
1.47274e-12
1.82406e-12
2.17184e-12
1.76239e-12
3.32751e-12
2.62025e-07
6.22493e-08
5.01617e-10
2.56885e-12
1.08161e-12
1.36279e-12
1.68587e-12
2.00711e-12
1.32625e-12
2.60277e-12
2.05192e-12
2.94396e-12
1.60167e-12
1.60066e-12
1.66199e-12
1.79887e-12
2.14151e-12
2.93476e-12
6.4301e-12
8.46911e-12
1.96812e-12
2.80827e-12
1.5424e-12
1.55892e-12
1.62856e-12
1.74502e-12
1.98553e-12
2.5052e-12
5.22679e-12
7.02204e-12
1.88391e-12
2.66854e-12
1.46593e-12
1.49654e-12
1.57527e-12
1.68468e-12
1.86692e-12
2.19801e-12
4.1396e-12
5.72973e-12
1.80775e-12
2.53975e-12
1.39144e-12
1.4317e-12
1.51776e-12
1.62707e-12
1.77973e-12
1.99289e-12
3.25916e-12
4.67394e-12
1.73874e-12
2.42067e-12
1.31973e-12
1.36756e-12
1.45926e-12
1.57024e-12
1.70873e-12
1.85481e-12
2.54819e-12
3.81024e-12
1.6765e-12
2.31107e-12
1.25199e-12
1.30406e-12
1.39924e-12
1.51366e-12
1.64946e-12
1.75505e-12
1.97511e-12
3.10222e-12
1.61985e-12
2.21013e-12
1.18836e-12
1.24249e-12
1.33879e-12
1.45606e-12
1.59318e-12
1.67885e-12
1.50794e-12
2.5207e-12
1.77023e-12
2.11835e-12
1.12842e-12
1.18354e-12
1.28038e-12
1.39805e-12
1.53627e-12
1.61603e-12
1.13052e-12
2.04059e-12
1.65474e-09
6.75413e-11
1.16754e-12
1.12655e-12
1.22307e-12
1.34104e-12
1.47992e-12
1.56037e-12
8.27298e-13
1.64337e-12
8.3661e-08
7.04077e-08
1.12901e-09
4.00743e-12
1.12644e-12
1.28122e-12
1.42046e-12
1.50229e-12
5.72607e-13
1.31087e-12
2.85514e-12
3.64499e-12
1.4399e-12
1.21367e-12
1.06627e-12
1.00339e-12
1.13446e-12
1.52696e-12
3.2798e-12
3.74929e-12
2.7728e-12
3.53794e-12
1.43898e-12
1.24751e-12
1.11879e-12
1.03634e-12
1.07663e-12
1.31284e-12
2.80955e-12
3.30973e-12
2.689e-12
3.42294e-12
1.41639e-12
1.25672e-12
1.14996e-12
1.06618e-12
1.0529e-12
1.16333e-12
2.31339e-12
2.83386e-12
2.6117e-12
3.31268e-12
1.38593e-12
1.25373e-12
1.16792e-12
1.09259e-12
1.0534e-12
1.07505e-12
1.88764e-12
2.42224e-12
2.54021e-12
3.20811e-12
1.35217e-12
1.24315e-12
1.176e-12
1.11265e-12
1.06426e-12
1.03271e-12
1.52223e-12
2.06586e-12
2.47411e-12
3.10859e-12
1.3153e-12
1.22605e-12
1.17582e-12
1.12627e-12
1.08007e-12
1.0182e-12
1.20778e-12
1.75603e-12
2.41306e-12
3.01484e-12
1.27697e-12
1.20426e-12
1.16946e-12
1.13369e-12
1.09513e-12
1.01892e-12
9.39413e-13
1.48732e-12
2.55028e-12
2.92779e-12
1.23835e-12
1.18012e-12
1.15751e-12
1.13438e-12
1.10631e-12
1.02766e-12
7.10124e-13
1.25588e-12
1.93432e-09
7.65198e-11
1.37209e-12
1.15347e-12
1.14187e-12
1.13007e-12
1.11208e-12
1.03869e-12
5.14858e-13
1.05702e-12
1.22512e-07
6.561e-08
1.07636e-09
7.2898e-12
1.09511e-12
1.11843e-12
1.11193e-12
1.04559e-12
3.43605e-13
8.89748e-13
3.81869e-12
4.33015e-12
1.1219e-12
7.61378e-13
4.95191e-13
3.50182e-13
4.85194e-13
7.91749e-13
1.99127e-12
2.02163e-12
3.74355e-12
4.26342e-12
1.16647e-12
8.43011e-13
6.00164e-13
4.20775e-13
4.29205e-13
6.41494e-13
1.82659e-12
1.90381e-12
3.6684e-12
4.18989e-12
1.18844e-12
9.00722e-13
6.84213e-13
4.99848e-13
4.25364e-13
5.26878e-13
1.58826e-12
1.70922e-12
3.59719e-12
4.11489e-12
1.19927e-12
9.43409e-13
7.50752e-13
5.74411e-13
4.57858e-13
4.55742e-13
1.37598e-12
1.53386e-12
3.52974e-12
4.04082e-12
1.20151e-12
9.73968e-13
8.03922e-13
6.40394e-13
5.07256e-13
4.29991e-13
1.18626e-12
1.37526e-12
3.46698e-12
3.96803e-12
1.19702e-12
9.95515e-13
8.46958e-13
6.9835e-13
5.6216e-13
4.40625e-13
1.01881e-12
1.23336e-12
3.4075e-12
3.89678e-12
1.18772e-12
1.00964e-12
8.79946e-13
7.4716e-13
6.16155e-13
4.73473e-13
8.72883e-13
1.10747e-12
3.53298e-12
3.8304e-12
1.17507e-12
1.0174e-12
9.05007e-13
7.87828e-13
6.65995e-13
5.17232e-13
7.4787e-13
9.96375e-13
2.19044e-09
7.82231e-11
1.47955e-12
1.021e-12
9.24678e-13
8.21442e-13
7.09659e-13
5.64401e-13
6.43472e-13
9.00129e-13
3.48288e-07
4.49642e-08
9.54685e-10
1.0179e-11
9.33484e-13
8.46706e-13
7.47355e-13
6.07643e-13
5.60169e-13
8.21182e-13
4.75637e-12
4.86365e-12
7.31407e-13
4.97546e-13
2.72323e-13
1.51449e-13
2.66163e-13
4.72883e-13
1.43694e-12
1.28246e-12
4.69189e-12
4.84138e-12
7.71512e-13
5.35681e-13
3.11322e-13
1.24608e-13
1.63049e-13
3.69183e-13
1.42613e-12
1.29732e-12
4.62974e-12
4.81469e-12
8.00748e-13
5.72298e-13
3.6068e-13
1.62715e-13
7.60834e-14
2.69466e-13
1.32175e-12
1.22324e-12
4.56932e-12
4.78301e-12
8.24134e-13
6.05231e-13
4.10348e-13
2.2083e-13
4.57588e-14
1.7683e-13
1.22712e-12
1.15491e-12
4.51157e-12
4.74831e-12
8.41941e-13
6.35488e-13
4.57099e-13
2.80957e-13
1.08696e-13
9.31786e-14
1.14044e-12
1.09185e-12
4.45598e-12
4.71099e-12
8.55381e-13
6.61498e-13
4.99795e-13
3.37307e-13
1.76562e-13
3.10417e-14
1.06171e-12
1.03413e-12
4.40313e-12
4.67292e-12
8.64934e-13
6.83896e-13
5.37819e-13
3.89245e-13
2.38996e-13
6.89038e-14
9.91759e-13
9.8195e-13
4.52267e-12
4.63707e-12
8.70355e-13
7.01988e-13
5.71159e-13
4.35564e-13
2.95781e-13
1.32246e-13
9.29638e-13
9.35084e-13
2.38033e-09
7.37097e-11
1.36596e-12
7.1798e-13
5.99995e-13
4.76452e-13
3.47662e-13
1.92437e-13
8.7548e-13
8.92757e-13
5.52979e-07
1.91155e-08
5.70108e-10
7.92226e-12
6.3351e-13
5.13442e-13
3.94452e-13
2.48851e-13
8.28721e-13
8.65217e-13
5.36182e-12
5.13811e-12
4.80055e-13
5.97934e-13
5.10032e-13
4.40243e-13
4.01009e-13
4.24107e-13
1.2071e-12
9.72281e-13
5.30452e-12
5.14446e-12
4.29077e-13
5.38047e-13
4.57073e-13
3.92631e-13
3.55308e-13
3.86229e-13
1.2692e-12
1.0453e-12
5.2518e-12
5.1505e-12
3.90157e-13
4.85121e-13
4.09851e-13
3.47643e-13
3.1235e-13
3.4446e-13
1.22766e-12
1.02298e-12
5.20012e-12
5.15014e-12
3.64591e-13
4.40153e-13
3.69417e-13
3.09745e-13
2.73809e-13
3.05875e-13
1.18819e-12
1.00097e-12
5.14985e-12
5.14485e-12
3.51478e-13
4.04432e-13
3.38355e-13
2.79197e-13
2.40774e-13
2.70219e-13
1.15053e-12
9.80442e-13
5.1017e-12
5.13633e-12
3.47919e-13
3.76454e-13
3.13033e-13
2.54602e-13
2.13541e-13
2.39136e-13
1.11507e-12
9.60864e-13
5.05517e-12
5.12486e-12
3.50427e-13
3.55129e-13
2.9522e-13
2.37461e-13
1.93493e-13
2.11127e-13
1.08118e-12
9.42829e-13
5.17347e-12
5.11461e-12
3.56727e-13
3.39204e-13
2.82827e-13
2.26256e-13
1.78514e-13
1.88503e-13
1.04965e-12
9.24674e-13
2.47924e-09
6.85748e-11
1.11494e-12
3.27754e-13
2.74962e-13
2.20573e-13
1.71546e-13
1.71026e-13
1.01851e-12
9.07623e-13
6.79072e-07
1.91883e-08
4.46037e-10
6.09583e-12
2.55732e-13
2.22527e-13
1.74744e-13
1.65464e-13
9.90216e-13
9.34279e-13
5.36624e-12
5.10912e-12
4.67891e-13
6.22655e-13
5.39653e-13
4.65841e-13
4.12684e-13
4.16136e-13
1.14065e-12
9.2849e-13
5.30883e-12
5.11742e-12
3.94716e-13
5.53727e-13
4.82834e-13
4.1802e-13
3.7219e-13
3.86513e-13
1.21206e-12
1.00501e-12
5.25637e-12
5.12659e-12
3.3388e-13
4.90989e-13
4.29642e-13
3.72194e-13
3.32142e-13
3.49959e-13
1.17832e-12
9.86102e-13
5.20508e-12
5.12878e-12
2.88128e-13
4.34999e-13
3.81889e-13
3.311e-13
2.95421e-13
3.16488e-13
1.14609e-12
9.67439e-13
5.15559e-12
5.12661e-12
2.58997e-13
3.88232e-13
3.41322e-13
2.94962e-13
2.62277e-13
2.84901e-13
1.11516e-12
9.50245e-13
5.108e-12
5.12042e-12
2.44978e-13
3.49002e-13
3.07012e-13
2.64107e-13
2.3295e-13
2.55657e-13
1.08571e-12
9.33825e-13
5.0621e-12
5.11143e-12
2.4286e-13
3.16492e-13
2.78581e-13
2.38467e-13
2.08038e-13
2.29315e-13
1.05734e-12
9.18549e-13
5.1805e-12
5.10315e-12
2.49282e-13
2.90555e-13
2.56091e-13
2.17874e-13
1.86497e-13
2.05716e-13
1.03061e-12
9.03495e-13
2.47924e-09
6.85747e-11
1.07979e-12
2.69867e-13
2.37792e-13
2.02065e-13
1.71143e-13
1.85778e-13
1.0043e-12
8.89151e-13
6.79072e-07
1.91883e-08
4.46017e-10
6.07046e-12
1.99078e-13
1.94777e-13
1.65677e-13
1.75451e-13
9.79392e-13
9.30509e-13
4.76167e-12
4.78365e-12
6.54215e-13
5.11752e-13
3.33541e-13
2.27135e-13
2.61728e-13
4.11209e-13
1.20761e-12
1.13749e-12
4.69896e-12
4.76962e-12
6.76097e-13
5.19312e-13
3.36136e-13
1.94227e-13
1.8225e-13
3.28868e-13
1.22897e-12
1.16383e-12
4.63909e-12
4.75181e-12
6.96939e-13
5.34595e-13
3.56596e-13
1.97609e-13
1.18581e-13
2.44588e-13
1.15251e-12
1.10172e-12
4.58085e-12
4.72882e-12
7.15579e-13
5.5281e-13
3.85001e-13
2.2501e-13
9.04869e-14
1.66342e-13
1.08306e-12
1.04474e-12
4.52505e-12
4.70218e-12
7.33004e-13
5.72515e-13
4.16946e-13
2.63767e-13
1.15157e-13
9.80946e-14
1.01952e-12
9.92715e-13
4.47164e-12
4.6728e-12
7.47517e-13
5.92098e-13
4.49485e-13
3.06142e-13
1.62056e-13
5.23484e-14
9.62525e-13
9.46125e-13
4.42041e-12
4.64169e-12
7.59307e-13
6.10336e-13
4.80577e-13
3.48096e-13
2.12721e-13
7.00839e-14
9.11586e-13
9.0415e-13
4.54132e-12
4.61201e-12
7.68276e-13
6.26801e-13
5.09397e-13
3.87356e-13
2.61419e-13
1.18988e-13
8.66949e-13
8.66903e-13
2.38034e-09
7.37104e-11
1.29526e-12
6.41353e-13
5.35385e-13
4.24138e-13
3.07454e-13
1.7079e-13
8.28525e-13
8.34725e-13
5.52979e-07
1.91155e-08
5.70067e-10
7.87362e-12
5.64169e-13
4.57752e-13
3.50183e-13
2.21617e-13
7.95623e-13
8.27098e-13
3.82012e-12
4.22895e-12
9.82139e-13
6.55649e-13
3.95134e-13
2.18576e-13
3.32679e-13
6.07375e-13
1.48717e-12
1.70362e-12
3.75092e-12
4.17844e-12
1.03185e-12
7.33836e-13
4.98554e-13
3.07752e-13
2.91467e-13
4.86574e-13
1.39603e-12
1.6181e-12
3.68167e-12
4.11941e-12
1.06247e-12
7.94036e-13
5.83654e-13
3.97499e-13
3.04255e-13
3.91418e-13
1.22255e-12
1.45501e-12
3.61465e-12
4.05789e-12
1.08189e-12
8.39849e-13
6.52572e-13
4.77604e-13
3.50726e-13
3.3569e-13
1.06626e-12
1.30768e-12
3.55142e-12
3.99534e-12
1.09345e-12
8.76208e-13
7.09475e-13
5.47876e-13
4.09931e-13
3.24332e-13
9.27003e-13
1.17534e-12
3.49161e-12
3.93316e-12
1.09792e-12
9.02933e-13
7.55944e-13
6.09397e-13
4.71862e-13
3.46447e-13
8.0489e-13
1.05713e-12
3.43479e-12
3.87149e-12
1.09747e-12
9.22854e-13
7.93158e-13
6.61584e-13
5.30237e-13
3.88858e-13
6.99839e-13
9.53977e-13
3.56199e-12
3.8135e-12
1.09217e-12
9.36508e-13
8.23676e-13
7.058e-13
5.83918e-13
4.38723e-13
6.12738e-13
8.63418e-13
2.19044e-09
7.8226e-11
1.41224e-12
9.46253e-13
8.47568e-13
7.43096e-13
6.31153e-13
4.89746e-13
5.42531e-13
7.86655e-13
3.48288e-07
4.49642e-08
9.54656e-10
1.01407e-11
8.61552e-13
7.72336e-13
6.71709e-13
5.36595e-13
4.90584e-13
7.29769e-13
2.85947e-12
3.55386e-12
1.27866e-12
1.03659e-12
8.75846e-13
7.89373e-13
8.62804e-13
1.14649e-12
2.18518e-12
2.99942e-12
2.78669e-12
3.46881e-12
1.29952e-12
1.08963e-12
9.45852e-13
8.45586e-13
8.47928e-13
1.00937e-12
1.90412e-12
2.6713e-12
2.71031e-12
3.3723e-12
1.29656e-12
1.11776e-12
9.94511e-13
8.95202e-13
8.55408e-13
9.16868e-13
1.56962e-12
2.29039e-12
2.63846e-12
3.27798e-12
1.28434e-12
1.13155e-12
1.02831e-12
9.37873e-13
8.77942e-13
8.70529e-13
1.27467e-12
1.95788e-12
2.57148e-12
3.1864e-12
1.26532e-12
1.13652e-12
1.05113e-12
9.72607e-13
9.07932e-13
8.56402e-13
1.02004e-12
1.66804e-12
2.50854e-12
3.09813e-12
1.24208e-12
1.13332e-12
1.06491e-12
9.9981e-13
9.38816e-13
8.62755e-13
7.99421e-13
1.41572e-12
2.45022e-12
3.01338e-12
1.21577e-12
1.12489e-12
1.07099e-12
1.01827e-12
9.65964e-13
8.79928e-13
6.08155e-13
1.19758e-12
2.58748e-12
2.93464e-12
1.18736e-12
1.11133e-12
1.07135e-12
1.03103e-12
9.87307e-13
9.01568e-13
4.42626e-13
1.00994e-12
1.93433e-09
7.65242e-11
1.32926e-12
1.09537e-12
1.0661e-12
1.03719e-12
1.00388e-12
9.23137e-13
3.02484e-13
8.50083e-13
1.22512e-07
6.561e-08
1.07634e-09
7.25937e-12
1.03057e-12
1.03612e-12
1.01342e-12
9.39546e-13
1.76352e-13
7.17592e-13
2.07055e-12
2.88429e-12
1.44581e-12
1.38362e-12
1.38484e-12
1.44565e-12
1.64404e-12
2.11049e-12
3.76948e-12
6.2764e-12
1.9962e-12
2.7732e-12
1.41914e-12
1.37907e-12
1.39222e-12
1.44442e-12
1.58169e-12
1.8822e-12
3.12677e-12
5.27012e-12
1.91793e-12
2.65192e-12
1.37008e-12
1.34893e-12
1.37481e-12
1.42683e-12
1.53089e-12
1.7178e-12
2.49781e-12
4.31756e-12
1.84587e-12
2.53731e-12
1.31797e-12
1.31177e-12
1.34815e-12
1.40533e-12
1.49561e-12
1.6089e-12
1.9781e-12
3.53253e-12
1.77986e-12
2.4299e-12
1.26464e-12
1.27073e-12
1.31645e-12
1.37945e-12
1.46685e-12
1.53773e-12
1.55313e-12
2.88718e-12