/*--------------------------------*- C++ -*----------------------------------*\
| =========                 |                                                 |
| \\      /  F ield         | OpenFOAM: The Open Source CFD Toolbox           |
|  \\    /   O peration     | Version:  4.1                                   |
|   \\  /    A nd           | Web:      www.OpenFOAM.org                      |
|    \\/     M anipulation  |                                                 |
\*---------------------------------------------------------------------------*/
FoamFile
{
    version     2.0;
    format      ascii;
    class       surfaceScalarField;
    location    "0.64";
    object      phi;
}
// * * * * * * * * * * * * * * * * * * * * * * * * * * * * * * * * * * * * * //

dimensions      [1 0 -1 0 0 0 0];

internalField   nonuniform List<scalar> 
51500
(
3.6483e-13
1.63061e-14
1.44483e-11
-1.27984e-15
2.09233e-14
1.42856e-11
-2.82955e-15
1.96117e-14
1.41239e-11
-2.74012e-15
1.82176e-14
1.39648e-11
-2.64519e-15
1.67825e-14
1.38072e-11
-2.58684e-15
1.53201e-14
1.36517e-11
-2.67288e-15
1.38684e-14
1.34977e-11
-2.61516e-15
1.24403e-14
1.33467e-11
-2.64356e-15
1.10022e-14
1.31979e-11
9.57576e-15
1.30535e-11
-7.71952e-17
3.67236e-13
1.01523e-14
1.80708e-11
-1.08773e-14
1.04822e-14
1.74377e-11
-1.01598e-14
8.92784e-15
1.68257e-11
-9.95199e-15
7.45119e-15
1.62396e-11
-9.65335e-15
6.10302e-15
1.56787e-11
-9.30606e-15
4.92484e-15
1.51411e-11
-9.05059e-15
4.27032e-15
1.46252e-11
-8.798e-15
3.2512e-15
1.41311e-11
-8.53937e-15
1.99403e-15
1.36558e-11
8.26643e-16
1.3209e-11
-8.26813e-16
3.65681e-13
1.10884e-14
2.28733e-11
-2.40494e-14
1.24971e-14
2.14892e-11
-2.01559e-14
1.03156e-14
2.01934e-11
-1.91102e-14
8.37267e-15
1.89917e-11
-1.80782e-14
6.64296e-15
1.78747e-11
-1.72756e-14
5.10095e-15
1.68369e-11
-1.63463e-14
3.74254e-15
1.58732e-11
-1.56419e-14
2.5217e-15
1.49743e-11
-1.49137e-14
1.45281e-15
1.41375e-11
5.47674e-16
1.33679e-11
-1.5207e-15
3.57721e-13
1.45727e-14
2.93264e-11
-4.25568e-14
1.53715e-14
2.67463e-11
-3.326e-14
1.23507e-14
2.44234e-11
-3.08122e-14
9.73352e-15
2.23327e-11
-2.85313e-14
7.52617e-15
2.04582e-11
-2.65103e-14
5.64745e-15
1.87721e-11
-2.466e-14
4.05149e-15
1.72526e-11
-2.29841e-14
2.67765e-15
1.58804e-11
-2.13773e-14
1.50489e-15
1.46392e-11
5.28242e-16
1.35293e-11
-2.30501e-15
3.38126e-13
1.95305e-14
3.81336e-11
-6.81456e-14
1.92327e-14
3.36528e-11
-5.09343e-14
1.49287e-14
2.97783e-11
-4.5762e-14
1.14188e-14
2.64194e-11
-4.12806e-14
8.58133e-15
2.35126e-11
-3.7373e-14
6.27629e-15
2.09859e-11
-3.40355e-14
4.38248e-15
1.87825e-11
-3.10409e-14
2.83707e-15
1.68555e-11
-2.82639e-14
1.56613e-15
1.51637e-11
5.53679e-16
1.36939e-11
-3.08174e-15
2.98374e-13
2.67824e-14
5.03523e-11
-1.31477e-13
2.45259e-14
4.28444e-11
-7.46584e-14
1.83166e-14
3.66298e-11
-6.50013e-14
1.35035e-14
3.14522e-11
-5.69495e-14
9.83683e-15
2.71405e-11
-5.0272e-14
6.98481e-15
2.35265e-11
-4.46023e-14
4.76368e-15
2.04825e-11
-3.97853e-14
3.00785e-15
1.79052e-11
-3.54482e-14
1.6326e-15
1.57115e-11
5.62455e-16
1.38614e-11
-3.95192e-15
2.20114e-13
4.6858e-14
6.75881e-11
-2.09222e-13
3.98959e-14
5.52632e-11
-1.07244e-13
2.85246e-14
4.54833e-11
-8.9911e-14
2.02598e-14
3.76998e-11
-7.63628e-14
1.42789e-14
3.14739e-11
-6.54384e-14
9.87362e-15
2.64527e-11
-5.66276e-14
6.57464e-15
2.23736e-11
-4.92958e-14
4.10379e-15
1.90358e-11
-4.30951e-14
2.21551e-15
1.62849e-11
7.68313e-16
1.40317e-11
-4.80735e-15
1.36533e-13
-3.42749e-13
9.24214e-11
-3.08936e-13
-3.80771e-13
7.22761e-11
-1.51317e-13
-3.98038e-13
5.70575e-11
-1.21795e-13
-4.09083e-13
4.55165e-11
-9.97878e-14
-4.16395e-13
3.66808e-11
-8.29116e-14
-4.212e-13
2.98406e-11
-6.96625e-14
-4.24318e-13
2.44892e-11
-5.91909e-14
-4.26319e-13
2.02625e-11
-5.0384e-14
-4.27579e-13
1.68905e-11
-4.34634e-13
1.42131e-11
-5.74692e-15
3.15347e-12
-8.07992e-10
1.66493e-10
2.65204e-12
-8.68109e-10
1.28154e-10
2.40106e-12
-8.74078e-10
1.02241e-10
2.17851e-12
-8.78485e-10
8.34122e-11
1.98126e-12
-8.8199e-10
6.95836e-11
1.80704e-12
-8.84808e-10
5.92744e-11
1.65309e-12
-8.87093e-10
5.14934e-11
1.51682e-12
-8.88958e-10
4.55548e-11
1.36773e-12
-8.90561e-10
4.09741e-11
-9.09725e-10
3.77901e-11
-6.71577e-15
-3.49267e-10
1.44468e-07
-8.46271e-07
3.0756e-10
1.22625e-07
-9.36709e-07
3.30815e-10
1.07399e-07
-9.3874e-07
3.21273e-10
9.47452e-08
-9.4025e-07
3.11086e-10
8.41225e-08
-9.41569e-07
3.00738e-10
7.51366e-08
-9.42737e-07
2.9048e-10
6.74791e-08
-9.43782e-07
2.76272e-10
6.09082e-08
-9.44727e-07
1.13122e-10
5.52392e-08
-9.45671e-07
5.13098e-08
-7.76722e-15
-9.84504e-07
3.4174e-13
8.92624e-14
6.30543e-13
-1.83377e-14
8.42158e-14
6.19793e-13
-2.53494e-14
7.42267e-14
6.09813e-13
-2.45514e-14
6.45422e-14
5.98226e-13
-2.41292e-14
5.51945e-14
5.87974e-13
-2.39549e-14
4.61394e-14
5.78448e-13
-2.38375e-14
3.73887e-14
5.67633e-13
-2.36133e-14
2.89445e-14
5.58358e-13
-2.55791e-14
2.07232e-14
5.48933e-13
1.29305e-14
5.39057e-13
-1.58771e-15
2.8495e-13
8.35721e-14
8.74472e-13
-7.02612e-14
7.60316e-14
8.30303e-13
-8.51203e-14
6.43743e-14
7.88547e-13
-8.19433e-14
5.32529e-14
7.47663e-13
-7.96916e-14
4.24406e-14
7.09672e-13
-7.75203e-14
2.98036e-14
6.73158e-13
-7.52525e-14
2.08484e-14
6.40125e-13
-7.40988e-14
1.36623e-14
6.07787e-13
-7.79806e-14
7.59787e-15
5.78792e-13
2.54805e-15
5.49327e-13
-4.2852e-15
2.00304e-13
1.05547e-13
1.23337e-12
-1.7773e-13
9.4112e-14
1.12485e-12
-1.61625e-13
7.87172e-14
1.03137e-12
-1.53256e-13
6.45288e-14
9.4037e-13
-1.45882e-13
5.17534e-14
8.60543e-13
-1.39129e-13
4.0172e-14
7.88125e-13
-1.32976e-13
2.96825e-14
7.22986e-13
-1.27608e-13
2.02426e-14
6.63836e-13
-1.33121e-13
1.1736e-14
6.09697e-13
4.18701e-15
5.61305e-13
-6.85606e-15
7.9002e-14
1.29482e-13
1.77236e-12
-3.07595e-13
1.12226e-13
1.5504e-12
-2.60322e-13
9.16964e-14
1.36403e-12
-2.41001e-13
7.35474e-14
1.19562e-12
-2.24965e-13
5.76956e-14
1.05141e-12
-2.1035e-13
4.38442e-14
9.27032e-13
-1.96886e-13
3.17905e-14
8.20059e-13
-1.85306e-13
2.12774e-14
7.27655e-13
-1.89778e-13
1.20953e-14
6.4464e-13
4.18567e-15
5.72294e-13
-9.81572e-15
-4.2759e-14
1.60615e-13
2.60136e-12
-4.72064e-13
1.35007e-13
2.17449e-12
-3.86458e-13
1.07635e-13
1.82875e-12
-3.49583e-13
8.42199e-14
1.53451e-12
-3.19272e-13
6.45279e-14
1.29435e-12
-2.9201e-13
4.79754e-14
1.09716e-12
-2.678e-13
3.40328e-14
9.3365e-13
-2.47361e-13
2.23164e-14
7.97362e-13
-2.4868e-13
1.24392e-14
6.82753e-13
4.27153e-15
5.85564e-13
-1.29146e-14
-1.79233e-13
2.01023e-13
3.91114e-12
-6.86404e-13
1.64537e-13
3.10209e-12
-5.48424e-13
1.27312e-13
2.48482e-12
-4.83889e-13
9.70445e-14
1.98785e-12
-4.31455e-13
7.25079e-14
1.60446e-12
-3.85969e-13
5.25965e-14
1.30411e-12
-3.46456e-13
3.64984e-14
1.06739e-12
-3.13818e-13
2.3414e-14
8.78341e-13
-3.09678e-13
1.28541e-14
7.26438e-13
4.26532e-15
6.0043e-13
-1.59096e-14
-5.93621e-13
2.55659e-13
6.03029e-12
-9.72147e-13
2.10935e-13
4.51624e-12
-7.55975e-13
1.58909e-13
3.42453e-12
-6.49991e-13
1.18364e-13
2.60025e-12
-5.65303e-13
8.68505e-14
2.00277e-12
-4.937e-13
6.22577e-14
1.55785e-12
-4.33763e-13
4.28758e-14
1.22312e-12
-3.84422e-13
2.75181e-14
9.69937e-13
-3.73273e-13
1.5011e-14
7.7177e-13
4.18169e-15
6.16954e-13
-1.89195e-14
-1.09734e-12
3.09364e-13
9.56703e-12
-1.35471e-12
2.14324e-13
6.71949e-12
-1.02317e-12
1.50342e-13
4.79341e-12
-8.55106e-13
1.03547e-13
3.44482e-12
-7.23979e-13
6.90668e-14
2.52132e-12
-6.17564e-13
4.32833e-14
1.87152e-12
-5.29831e-13
2.38235e-14
1.40962e-12
-4.60404e-13
8.98011e-15
1.0729e-12
-4.38725e-13
-2.42982e-15
8.23657e-13
-1.12539e-14
6.34127e-13
-2.20505e-14
-1.93198e-12
5.34582e-12
1.8631e-11
-1.33072e-12
-3.88878e-11
9.91537e-12
-9.65293e-13
-3.54593e-11
6.75366e-12
-8.08101e-13
-3.25117e-11
4.7633e-12
-6.89979e-13
-3.02261e-11
3.50253e-12
-5.98659e-13
-2.84435e-11
2.67931e-12
-5.29855e-13
-2.70516e-11
2.12806e-12
-5.28909e-13
-2.59654e-11
1.75012e-12
-5.66541e-13
-2.51241e-11
1.48076e-12
-2.47208e-11
1.28374e-12
-2.52359e-14
-9.32675e-10
1.32949e-08
8.49665e-08
-2.82824e-10
6.94374e-09
-1.67553e-09
-3.20784e-10
5.22143e-09
-1.92244e-09
-3.11779e-10
4.01304e-09
-1.90406e-09
-3.02205e-10
3.13322e-09
-1.87626e-09
-2.92461e-10
2.48104e-09
-1.84459e-09
-2.82781e-10
1.99001e-09
-1.81176e-09
-2.73366e-10
1.61506e-09
-1.77961e-09
-2.68751e-10
1.32526e-09
-1.75536e-09
1.10994e-09
-2.86238e-14
-2.14266e-09
3.44041e-13
8.21613e-14
2.27583e-14
-1.66448e-14
7.79937e-14
2.11117e-14
-2.24171e-14
6.87959e-14
1.96874e-14
-2.02994e-14
5.99305e-14
1.8125e-14
-1.86694e-14
5.13549e-14
1.62369e-14
-2.03326e-14
4.30086e-14
1.41306e-14
-1.90285e-14
3.5035e-14
1.32872e-14
-1.94605e-14
2.72674e-14
1.23156e-14
-2.35052e-14
1.97634e-14
1.1419e-14
1.26326e-14
1.14738e-14
-1.31969e-15
2.92692e-13
5.94326e-14
3.66168e-14
-6.49166e-14
5.45542e-14
3.29418e-14
-7.23396e-14
4.62613e-14
3.20087e-14
-6.7143e-14
3.83138e-14
2.71996e-14
-6.6023e-14
3.0931e-14
2.38611e-14
-6.25487e-14
2.41241e-14
2.20224e-14
-6.18007e-14
1.78091e-14
1.78055e-14
-6.09905e-14
1.20563e-14
1.5853e-14
-7.13484e-14
6.86355e-15
1.48508e-14
2.41912e-15
1.3356e-14
-4.43135e-15
2.14045e-13
7.60289e-14
5.54572e-14
-1.65418e-13
6.8697e-14
5.00002e-14
-1.37433e-13
5.78305e-14
4.77425e-14
-1.25498e-13
4.78649e-14
4.1628e-14
-1.19427e-13
3.883e-14
3.53745e-14
-1.12946e-13
3.05837e-14
2.96733e-14
-1.07852e-13
2.3635e-14
2.53917e-14
-1.05814e-13
1.65208e-14
2.24236e-14
-1.21253e-13
9.5833e-15
1.93215e-14
3.32637e-15
1.60926e-14
-7.2416e-15
9.29551e-14
9.45244e-14
8.87388e-14
-2.89263e-13
8.27706e-14
8.13128e-14
-2.20587e-13
6.79736e-14
7.5391e-14
-1.96614e-13
5.49591e-14
6.23042e-14
-1.83225e-13
4.36385e-14
5.20243e-14
-1.70119e-13
3.4014e-14
4.38912e-14
-1.56074e-13
2.57534e-14
3.69442e-14
-1.53625e-13
1.71502e-14
3.11712e-14
-1.73194e-13
9.81798e-15
2.78274e-14
3.48976e-15
2.10241e-14
-1.03932e-14
-2.5103e-14
1.1925e-13
1.50821e-13
-4.46548e-13
1.0055e-13
1.33598e-13
-3.26557e-13
8.05267e-14
1.19616e-13
-2.71967e-13
6.33758e-14
9.69227e-14
-2.48271e-13
4.90713e-14
7.81742e-14
-2.25646e-13
3.72893e-14
6.37713e-14
-2.05253e-13
2.78689e-14
5.31281e-14
-2.03002e-13
1.84498e-14
4.54353e-14
-2.26995e-13
1.04366e-14
3.88107e-14
3.63441e-15
2.83844e-14
-1.31429e-14
-1.61758e-13
1.52148e-13
2.61109e-13
-6.52414e-13
1.24429e-13
2.27107e-13
-4.56609e-13
9.62712e-14
1.91167e-13
-3.69016e-13
7.35582e-14
1.48852e-13
-3.2833e-13
5.55388e-14
1.17567e-13
-2.91406e-13
4.10609e-14
9.36906e-14
-2.60345e-13
2.97184e-14
7.63111e-14
-2.53595e-13
1.93619e-14
6.36537e-14
-2.83021e-13
1.05039e-14
5.06816e-14
3.61521e-15
3.64105e-14
-1.64818e-14
-5.76614e-13
1.9208e-13
4.59713e-13
-9.29679e-13
1.54732e-13
3.83829e-13
-5.90787e-13
1.15787e-13
3.0411e-13
-4.91092e-13
8.59332e-14
2.29349e-13
-4.25766e-13
6.30131e-14
1.74462e-13
-3.69046e-13
4.58053e-14
1.35296e-13
-3.21091e-13
3.27926e-14
1.07792e-13
-2.95436e-13
2.06713e-14
8.58939e-14
-3.40888e-13
1.12932e-14
6.94645e-14
3.97597e-15
4.66317e-14
-1.96436e-14
-1.10462e-12
3.24176e-13
8.32508e-13
-1.30447e-12
2.23927e-13
6.52194e-13
-7.89949e-13
1.57365e-13
4.86749e-13
-6.44943e-13
1.10101e-13
3.48134e-13
-5.42124e-13
7.62699e-14
2.56085e-13
-4.57651e-13
5.17216e-14
1.92771e-13
-3.90184e-13
3.37129e-14
1.46724e-13
-3.43578e-13
2.04511e-14
1.14676e-13
-4.01081e-13
1.05772e-14
9.1591e-14
3.32216e-15
5.8234e-14
-2.29606e-14
-2.18464e-12
4.62868e-11
5.22015e-12
-1.77013e-12
1.08671e-12
9.93555e-13
-1.05309e-12
4.4763e-13
6.71262e-13
-8.38423e-13
2.15407e-13
4.68814e-13
-6.84625e-13
4.50818e-14
3.39447e-13
-5.64987e-13
-7.88748e-14
2.53368e-13
-4.70719e-13
-1.69079e-13
1.94517e-13
-4.0504e-13
-2.34076e-13
1.52781e-13
-4.70251e-13
-2.80319e-13
1.22754e-13
-3.09434e-13
8.29501e-14
-2.63125e-14
-5.80775e-10
5.51079e-09
7.59143e-08
-3.67512e-11
3.12333e-10
1.48631e-10
-3.70033e-11
1.67026e-10
-5.48987e-11
-3.11193e-11
1.10777e-10
-4.40028e-11
-2.62395e-11
7.56693e-11
-3.38514e-11
-2.23122e-11
5.28884e-11
-2.4985e-11
-1.91159e-11
3.77719e-11
-1.84222e-11
-1.64987e-11
2.75028e-11
-1.50392e-11
-1.43392e-11
2.03829e-11
-1.2385e-11
1.52202e-11
-2.98342e-14
-1.00271e-11
3.44238e-13
8.11364e-14
1.06041e-14
-1.66017e-14
7.70969e-14
9.53e-15
-2.20341e-14
6.80446e-14
7.95338e-15
-1.98767e-14
5.92669e-14
6.35749e-15
-1.88397e-14
5.08194e-14
4.6725e-15
-1.95393e-14
4.26425e-14
3.7941e-15
-1.81587e-14
3.4711e-14
2.14285e-15
-1.91962e-14
2.70483e-14
1.15613e-15
-2.30759e-14
1.96667e-14
7.62177e-16
1.26197e-14
4.36609e-16
-1.57795e-15
2.93831e-13
5.81895e-14
1.78775e-14
-6.41376e-14
5.34939e-14
1.55458e-14
-7.11472e-14
4.53632e-14
1.60578e-14
-6.44381e-14
3.76662e-14
1.2819e-14
-6.20238e-14
3.04275e-14
9.40408e-15
-6.20148e-14
2.36969e-14
6.93086e-15
-5.88542e-14
1.75639e-14
5.81764e-15
-5.89065e-14
1.19254e-14
4.50138e-15
-7.03908e-14
6.79376e-15
3.77992e-15
2.41921e-15
2.14964e-15
-4.37085e-15
2.16824e-13
7.39666e-14
2.60161e-14
-1.63096e-13
6.69148e-14
2.44245e-14
-1.33011e-13
5.62189e-14
2.58443e-14
-1.16847e-13
4.62783e-14
1.98696e-14
-1.13674e-13
3.73757e-14
1.64929e-14
-1.03709e-13
2.93407e-14
1.36804e-14
-9.85516e-14
2.18175e-14
1.07533e-14
-1.03169e-13
1.50214e-14
8.88392e-15
-1.19626e-13
9.38624e-15
7.65708e-15
3.09422e-15
5.6767e-15
-7.13188e-15
9.65957e-14
9.197e-14
4.28745e-14
-2.85296e-13
8.04666e-14
4.24792e-14
-2.13087e-13
6.60045e-14
4.4613e-14
-1.79171e-13
5.32809e-14
3.64498e-14
-1.67026e-13
4.20366e-14
2.97824e-14
-1.55647e-13
3.21731e-14
2.49643e-14
-1.44458e-13
2.35554e-14
2.06517e-14
-1.47562e-13
1.59639e-14
1.75647e-14
-1.71104e-13
9.59223e-15
1.48252e-14
3.58595e-15
1.02672e-14
-1.0492e-14
-1.93033e-14
1.15898e-13
7.50091e-14
-4.39906e-13
9.78662e-14
7.77672e-14
-3.02295e-13
7.82042e-14
7.62294e-14
-2.5831e-13
6.1332e-14
6.12686e-14
-2.3496e-13
4.73242e-14
5.12832e-14
-2.13828e-13
3.55011e-14
4.21048e-14
-1.94892e-13
2.55837e-14
3.49446e-14
-1.93519e-13
1.76974e-14
3.0503e-14
-2.24208e-13
9.54732e-15
2.73302e-14
3.5542e-15
1.76573e-14
-1.33428e-14
-1.53444e-13
1.47776e-13
1.34106e-13
-6.42188e-13
1.20905e-13
1.37112e-13
-4.15423e-13
9.33922e-14
1.29093e-13
-3.54776e-13
7.13e-14
1.03832e-13
-3.15731e-13
5.35219e-14
8.41177e-14
-2.80401e-13
3.90893e-14
6.97524e-14
-2.50107e-13
2.74301e-14
5.77445e-14
-2.35975e-13
1.78697e-14
4.81306e-14
-2.793e-13
1.04951e-14
4.25003e-14
3.68813e-15
2.74128e-14
-1.66978e-14
-5.57749e-13
1.87334e-13
2.3934e-13
-9.13784e-13
1.50586e-13
2.45451e-13
-5.65433e-13
1.1267e-13
2.13801e-13
-4.75237e-13
8.33334e-14
1.68348e-13
-4.11744e-13
6.08432e-14
1.33558e-13
-3.56828e-13
4.34488e-14
1.08186e-13
-3.11807e-13
2.97128e-14
8.72061e-14
-2.81467e-13
1.9036e-14
7.35638e-14
-3.37017e-13
1.08996e-14
6.19138e-14
3.41714e-15
3.9634e-14
-1.98856e-14
-1.07621e-12
3.18152e-13
4.33211e-13
-1.2789e-12
1.77133e-13
4.28241e-13
-7.6356e-13
1.84434e-13
3.49956e-13
-6.25393e-13
1.3002e-13
2.66712e-13
-5.25998e-13
9.0644e-14
2.05724e-13
-4.45198e-13
6.20848e-14
1.60958e-13
-3.79605e-13
4.11232e-14
1.29288e-13
-3.32081e-13
2.56027e-14
1.05114e-13
-3.97156e-13
1.39251e-14
8.60203e-14
5.20931e-15
5.62289e-14
-2.29313e-14
-2.14796e-12
4.71801e-11
7.68385e-12
-1.7264e-12
6.80667e-13
7.90105e-13
-1.02272e-12
2.40351e-13
5.69145e-13
-8.13707e-13
1.56151e-13
4.18259e-13
-6.6341e-13
1.01221e-13
3.10493e-13
-5.4635e-13
6.3959e-14
2.36323e-13
-4.54379e-13
3.84996e-14
1.82293e-13
-3.88059e-13
2.09196e-14
1.43607e-13
-4.59004e-13
8.7051e-15
1.13385e-13
3.42056e-16
6.95543e-14
-2.64858e-14
-5.39938e-10
7.99102e-09
7.56428e-08
-6.10792e-12
6.9691e-11
2.22301e-10
-2.2218e-12
5.20402e-12
3.62302e-13
-2.43333e-12
2.91634e-12
5.45972e-14
-1.86657e-12
1.81586e-12
1.42921e-13
-1.45011e-12
1.18133e-12
1.85055e-13
-1.1444e-12
7.94715e-13
2.01909e-13
-9.20167e-13
5.51289e-13
2.04346e-13
-8.06276e-13
3.90345e-13
1.99208e-13
2.50597e-13
-3.01124e-14
2.70779e-13
3.4412e-13
8.12262e-14
1.85601e-14
-1.69536e-14
7.71563e-14
1.57057e-14
-2.20527e-14
6.81357e-14
1.24867e-14
-2.0482e-14
5.9343e-14
7.66723e-15
-1.72881e-14
5.08683e-14
7.67257e-15
-1.99746e-14
4.26472e-14
3.54675e-15
-1.91534e-14
3.47629e-14
5.16479e-15
-1.88625e-14
2.71197e-14
4.31099e-15
-2.3069e-14
1.97061e-14
8.85159e-16
1.2649e-14
2.02565e-16
-1.82428e-15
2.93538e-13
5.82913e-14
2.6578e-14
-6.43078e-14
5.36071e-14
2.67082e-14
-7.1321e-14
4.54331e-14
1.98062e-14
-6.53843e-14
3.76748e-14
1.69148e-14
-6.28888e-14
3.04885e-14
1.1283e-14
-6.07137e-14
2.37875e-14
9.45545e-15
-5.92742e-14
1.75981e-14
6.42858e-15
-5.93361e-14
1.1959e-14
7.62039e-15
-7.04679e-14
6.84653e-15
6.22429e-15
2.47867e-15
1.64407e-15
-4.34743e-15
2.16475e-13
7.41162e-14
4.17477e-14
-1.63629e-13
6.70302e-14
3.6471e-14
-1.34257e-13
5.63582e-14
3.54491e-14
-1.14631e-13
4.65113e-14
3.23671e-14
-1.11338e-13
3.74812e-14
2.31338e-14
-1.04964e-13
2.94145e-14
1.68984e-14
-9.84599e-14
2.19949e-14
1.51585e-14
-1.03266e-13
1.51713e-14
1.21734e-14
-1.19531e-13
9.17552e-15
1.31772e-14
3.04931e-15
6.20333e-15
-7.43286e-15
9.62154e-14
9.22419e-14
6.50739e-14
-2.85947e-13
8.07776e-14
6.33015e-14
-2.13813e-13
6.62042e-14
6.20766e-14
-1.79596e-13
5.33649e-14
5.05087e-14
-1.66796e-13
4.22062e-14
4.16456e-14
-1.56165e-13
3.2228e-14
3.35357e-14
-1.44383e-13
2.35449e-14
3.07729e-14
-1.48149e-13
1.61128e-14
2.52103e-14
-1.7118e-13
9.99592e-15
2.5824e-14
3.76163e-15
1.98709e-14
-1.01566e-14
-1.98859e-14
1.16359e-13
1.09843e-13
-4.41218e-13
9.81897e-14
1.10142e-13
-3.05601e-13
7.85624e-14
1.08086e-13
-2.57956e-13
6.16865e-14
9.19424e-14
-2.35797e-13
4.75512e-14
7.361e-14
-2.14478e-13
3.58155e-14
6.45021e-14
-1.94761e-13
2.59611e-14
5.67594e-14
-1.90882e-13
1.73251e-14
4.36181e-14
-2.24714e-13
9.45726e-15
3.59407e-14
3.70246e-15
2.45848e-14
-1.33125e-14
-1.54741e-13
1.48473e-13
1.90431e-13
-6.44004e-13
1.21603e-13
2.0268e-13
-4.16835e-13
9.38949e-14
1.80946e-13
-3.558e-13
7.1719e-14
1.476e-13
-3.16139e-13
5.38936e-14
1.20457e-13
-2.81272e-13
3.93779e-14
1.00824e-13
-2.50925e-13
2.7557e-14
8.00838e-14
-2.34612e-13
1.8312e-14
7.35931e-14
-2.80047e-13
1.07396e-14
5.93492e-14
3.7919e-15
3.80935e-14
-1.66041e-14
-5.6103e-13
1.88354e-13
3.39134e-13
-9.17445e-13
1.51536e-13
3.48612e-13
-5.6711e-13
1.13432e-13
3.09993e-13
-4.76946e-13
8.39288e-14
2.36971e-13
-4.12863e-13
6.13326e-14
1.94008e-13
-3.58434e-13
4.3775e-14
1.52949e-13
-3.12316e-13
3.015e-14
1.27374e-13
-2.82217e-13
1.91707e-14
1.03896e-13
-3.3819e-13
1.11496e-14
8.64339e-14
4.0631e-15
5.58039e-14
-1.98322e-14
-1.08279e-12
3.21274e-13
6.04579e-13
-1.28493e-12
1.82374e-13
6.12726e-13
-7.66659e-13
1.39504e-13
5.02527e-13
-6.28164e-13
1.00826e-13
3.81595e-13
-5.28409e-13
7.22393e-14
2.97547e-13
-4.46922e-13
5.39216e-14
2.35784e-13
-3.81223e-13
3.6534e-14
1.84046e-13
-3.33553e-13
2.30607e-14
1.51026e-13
-3.98668e-13
1.26145e-14
1.23306e-13
4.84395e-15
7.75608e-14
-2.31527e-14
-2.17427e-12
4.9322e-11
1.18302e-11
-1.73411e-12
6.25375e-13
1.1486e-12
-1.02834e-12
1.58131e-13
8.16648e-13
-8.18775e-13
1.7035e-13
5.92244e-13
-6.67068e-13
1.1251e-13
4.4525e-13
-5.49569e-13
7.20538e-14
3.37778e-13
-4.56672e-13
4.28284e-14
2.57199e-13
-3.90264e-13
1.77591e-14
2.07456e-13
-4.61437e-13
8.43956e-15
1.64801e-13
3.27338e-15
1.03928e-13
-2.65335e-14
-5.64689e-10
1.26974e-08
7.9891e-08
-4.71276e-12
1.00635e-10
2.45582e-10
-1.3382e-12
1.66872e-12
8.00761e-13
-1.07825e-12
8.71596e-13
1.53925e-13
-8.49688e-13
5.98957e-13
8.50082e-14
-6.77414e-13
4.26868e-13
6.10296e-14
-5.47769e-13
3.13187e-13
4.68642e-14
-4.55304e-13
2.35216e-13
3.69408e-14
-5.30308e-13
1.79542e-13
2.9624e-14
1.10501e-13
-3.00795e-14
2.53088e-14
3.43785e-13
8.13791e-14
2.21285e-14
-1.72878e-14
7.73053e-14
1.49417e-14
-2.26732e-14
6.82084e-14
1.83283e-14
-1.98943e-14
5.94504e-14
1.31241e-14
-1.95773e-14
5.09145e-14
7.67965e-15
-1.91959e-14
4.27155e-14
4.63074e-15
-1.88801e-14
3.47857e-14
2.1065e-15
-1.97788e-14
2.71525e-14
1.28563e-15
-2.31047e-14
1.9775e-14
1.29469e-15
1.2677e-14
1.39579e-15
-1.55843e-15
2.93156e-13
5.84802e-14
3.72924e-14
-6.49753e-14
5.37663e-14
3.37772e-14
-7.07933e-14
4.56089e-14
3.20746e-14
-6.69375e-14
3.77986e-14
2.09189e-14
-6.14859e-14
3.06166e-14
2.14963e-14
-6.16661e-14
2.38616e-14
1.20426e-14
-5.71583e-14
1.76837e-14
8.29912e-15
-5.92999e-14
1.20182e-14
5.32151e-15
-7.08104e-14
6.90893e-15
4.51878e-15
2.54067e-15
4.72338e-15
-4.36435e-15
2.15791e-13
7.44299e-14
4.73379e-14
-1.64626e-13
6.72903e-14
5.09264e-14
-1.34431e-13
5.65661e-14
5.37073e-14
-1.15377e-13
4.66626e-14
4.28497e-14
-1.14604e-13
3.76028e-14
3.18692e-14
-1.03984e-13
2.95399e-14
2.64225e-14
-9.90778e-14
2.21553e-14
1.78536e-14
-1.02844e-13
1.53703e-14
1.8399e-14
-1.19848e-13
9.4811e-15
1.20904e-14
3.45857e-15
8.38393e-15
-7.46842e-15
9.54014e-14
9.27354e-14
8.99772e-14
-2.87279e-13
8.11987e-14
8.74352e-14
-2.14582e-13
6.65737e-14
9.13011e-14
-1.80176e-13
5.37175e-14
7.50262e-14
-1.67767e-13
4.25258e-14
5.83746e-14
-1.55751e-13
3.25636e-14
4.22875e-14
-1.45163e-13
2.37699e-14
3.43311e-14
-1.48144e-13
1.62523e-14
3.22166e-14
-1.71359e-13
9.94707e-15
2.61377e-14
3.52394e-15
1.52431e-14
-1.02925e-14
-2.13067e-14
1.17125e-13
1.56461e-13
-4.43261e-13
9.88862e-14
1.59967e-13
-3.0579e-13
7.90727e-14
1.56903e-13
-2.59085e-13
6.21042e-14
1.26542e-13
-2.3633e-13
4.78708e-14
1.0457e-13
-2.15516e-13
3.6102e-14
8.41279e-14
-1.95251e-13
2.60475e-14
6.16076e-14
-1.92744e-13
1.75784e-14
5.28664e-14
-2.25164e-13
9.89961e-15
4.4399e-14
3.99485e-15
2.81535e-14
-1.32954e-14
-1.56883e-13
1.49718e-13
2.72908e-13
-6.4758e-13
1.22589e-13
2.84799e-13
-4.18535e-13
9.47672e-14
2.63516e-13
-3.57516e-13
7.23628e-14
2.06209e-13
-3.17056e-13
5.44915e-14
1.67653e-13
-2.83232e-13
3.97616e-14
1.26996e-13
-2.51471e-13
2.80431e-14
1.12484e-13
-2.35332e-13
1.84909e-14
8.27212e-14
-2.81052e-13
1.09845e-14
6.92661e-14
3.87115e-15
4.49615e-14
-1.64666e-14
-5.67272e-13
1.90089e-13
4.87737e-13
-9.22973e-13
1.53102e-13
5.01532e-13
-5.71269e-13
1.14599e-13
4.29581e-13
-4.79144e-13
8.49031e-14
3.3972e-13
-4.15539e-13
6.20566e-14
2.65261e-13
-3.60155e-13
4.44575e-14
2.10394e-13
-3.14152e-13
3.06638e-14
1.68698e-13
-2.83178e-13
1.96409e-14
1.24269e-13
-3.39774e-13
1.15053e-14
1.03597e-13
4.4513e-15
6.46451e-14
-1.97494e-14
-1.09422e-12
3.25784e-13
8.82888e-13
-1.29464e-12
1.85907e-13
8.77957e-13
-7.72424e-13
1.40588e-13
7.09788e-13
-6.3261e-13
1.0158e-13
5.34535e-13
-5.32046e-13
7.26891e-14
4.07074e-13
-4.50037e-13
5.38685e-14
3.12652e-13
-3.83814e-13
3.68799e-14
2.46702e-13
-3.35643e-13
2.3516e-14
1.79856e-13
-4.00945e-13
1.30208e-14
1.4224e-13
5.17843e-15
8.94219e-14
-2.30569e-14
-2.21177e-12
5.23705e-11
1.54706e-11
-1.7471e-12
6.48724e-13
1.63313e-12
-1.03783e-12
1.67167e-13
1.15631e-12
-8.25919e-13
1.65564e-13
8.36605e-13
-6.72862e-13
1.08199e-13
6.12366e-13
-5.54485e-13
6.68497e-14
4.55076e-13
-4.60151e-13
3.15749e-14
3.35897e-13
-3.93508e-13
1.74929e-14
2.61707e-13
-4.64914e-13
9.06442e-15
1.9542e-13
3.7146e-15
1.18768e-13
-2.65567e-14
-6.03099e-10
1.73528e-08
8.60306e-08
-4.85937e-12
1.48472e-10
2.66182e-10
-1.33736e-12
2.34007e-12
8.44235e-13
-1.06687e-12
1.13706e-12
8.70994e-14
-8.43419e-13
8.12748e-13
6.40821e-14
-6.73982e-13
5.92684e-13
4.97013e-14
-5.46192e-13
4.35351e-13
3.92477e-14
-4.54657e-13
3.26955e-13
3.15312e-14
-5.31454e-13
2.49863e-13
2.57364e-14
1.48012e-13
-3.02898e-14
2.13681e-14
3.43277e-13
8.15825e-14
2.88227e-14
-1.75388e-14
7.75053e-14
2.81607e-14
-2.32568e-14
6.83301e-14
2.23182e-14
-1.99709e-14
5.95548e-14
1.77669e-14
-1.99382e-14
5.10371e-14
8.2631e-15
-1.98153e-14
4.28057e-14
5.75534e-15
-1.90954e-14
3.48834e-14
5.32468e-15
-1.95232e-14
2.72306e-14
5.43982e-15
-2.30285e-14
1.98476e-14
1.16112e-14
1.27527e-14
3.22507e-14
-1.6623e-15
2.92619e-13
5.86833e-14
4.98401e-14
-6.55855e-14
5.39511e-14
4.49769e-14
-7.14571e-14
4.57949e-14
4.43385e-14
-6.5968e-14
3.79648e-14
3.45965e-14
-6.41125e-14
3.07031e-14
1.92466e-14
-6.11332e-14
2.39761e-14
1.25013e-14
-5.9451e-14
1.77755e-14
9.59757e-15
-5.89762e-14
1.21369e-14
1.05633e-14
-7.07616e-14
6.9931e-15
1.0875e-14
2.60768e-15
2.48814e-14
-4.45585e-15
2.14998e-13
7.48276e-14
7.26662e-14
-1.657e-13
6.75896e-14
6.88018e-14
-1.34936e-13
5.68284e-14
6.93437e-14
-1.17143e-13
4.68766e-14
5.55857e-14
-1.1212e-13
3.78124e-14
4.32506e-14
-1.0569e-13
2.9636e-14
2.40499e-14
-9.78782e-14
2.23079e-14
1.97774e-14
-1.03697e-13
1.54001e-14
2.11466e-14
-1.19954e-13
9.76184e-15
2.18182e-14
3.31405e-15
2.50964e-14
-7.60243e-15
9.43695e-14
9.33398e-14
1.1632e-13
-2.8874e-13
8.17372e-14
1.1924e-13
-2.15591e-13
6.70163e-14
1.1936e-13
-1.81261e-13
5.40983e-14
9.60935e-14
-1.68523e-13
4.29208e-14
7.80062e-14
-1.56278e-13
3.29764e-14
5.79959e-14
-1.45059e-13
2.40332e-14
3.77474e-14
-1.4815e-13
1.64852e-14
3.27059e-14
-1.72013e-13
9.65688e-15
3.69402e-14
4.06833e-15
3.27599e-14
-1.01082e-14
-2.30479e-14
1.18072e-13
2.02531e-13
-4.45642e-13
9.97026e-14
2.10879e-13
-3.0863e-13
7.97481e-14
2.01992e-13
-2.60092e-13
6.26146e-14
1.63946e-13
-2.37232e-13
4.82732e-14
1.32665e-13
-2.1692e-13
3.64214e-14
1.07911e-13
-1.95598e-13
2.64032e-14
6.81711e-14
-1.95292e-13
1.77201e-14
5.52256e-14
-2.25787e-13
1.03989e-14
5.14308e-14
4.22899e-15
4.67936e-14
-1.34242e-14
-1.59624e-13
1.51234e-13
3.61124e-13
-6.51575e-13
1.23796e-13
3.73111e-13
-4.21691e-13
9.57237e-14
3.39405e-13
-3.59346e-13
7.32268e-14
2.73363e-13
-3.18659e-13
5.51938e-14
2.18205e-13
-2.84636e-13
4.03436e-14
1.78503e-13
-2.53109e-13
2.84656e-14
1.13069e-13
-2.35855e-13
1.88566e-14
8.76493e-14
-2.82159e-13
1.14035e-14
7.42579e-14
4.09258e-15
6.5456e-14
-1.65794e-14
-5.74983e-13
1.92662e-13
6.38626e-13
-9.29744e-13
1.54994e-13
6.50266e-13
-5.75166e-13
1.16065e-13
5.62075e-13
-4.82673e-13
8.60149e-14
4.3777e-13
-4.18225e-13
6.29374e-14
3.4424e-13
-3.62458e-13
4.51812e-14
2.74777e-13
-3.16702e-13
3.13666e-14
2.05881e-13
-2.84135e-13
2.01456e-14
1.34003e-13
-3.41743e-13
1.17476e-14
1.0666e-13
4.82717e-15
9.06966e-14
-1.97353e-14
-1.10836e-12
3.2797e-13
1.14439e-12
-1.30602e-12
1.87665e-13
1.12729e-12
-7.7937e-13
1.42862e-13
9.15919e-13
-6.38154e-13
1.03224e-13
6.90537e-13
-5.36466e-13
7.39638e-14
5.27169e-13
-4.53412e-13
5.46135e-14
4.10972e-13
-3.87623e-13
3.76398e-14
3.17863e-13
-3.38074e-13
2.42127e-14
1.97181e-13
-4.03787e-13
1.36425e-14
1.5071e-13
5.65811e-15
9.7849e-14
-2.31416e-14
-2.22287e-12
5.14874e-11
1.52189e-11
-1.76796e-12
6.19335e-13
2.0355e-12
-1.04947e-12
1.64454e-13
1.49515e-12
-8.34734e-13
1.68821e-13
1.07816e-12
-6.79986e-13
1.10589e-13
7.98019e-13
-5.60043e-13
6.87621e-14
6.00615e-13
-4.65265e-13
3.26878e-14
4.57584e-13
-3.97035e-13
1.81687e-14
2.8107e-13
-4.69282e-13
9.51498e-15
2.07023e-13
4.17592e-15
1.2553e-13
-2.66228e-14
-6.00334e-10
1.77122e-08
8.99151e-08
-4.63748e-12
1.24978e-10
2.60868e-10
-1.34632e-12
2.81733e-12
6.97014e-13
-1.08069e-12
1.64674e-12
8.52403e-14
-8.5384e-13
1.17869e-12
6.40648e-14
-6.82221e-13
8.56211e-13
5.00944e-14
-5.53243e-13
6.32727e-13
3.98384e-14
-4.59919e-13
4.44326e-13
3.22831e-14
-5.37586e-13
2.77184e-13
2.6504e-14
1.61184e-13
-3.02174e-14
2.23235e-14
3.42991e-13
8.1778e-14
2.17751e-14
-1.82003e-14
7.75581e-14
6.54389e-15
-2.32625e-14
6.84548e-14
8.91021e-15
-2.06485e-14
5.96596e-14
9.37224e-15
-2.0197e-14
5.11447e-14
1.62625e-14
-2.0465e-14
4.29454e-14
2.97118e-14
-2.00977e-14
3.50631e-14
5.28046e-14
-2.01761e-14
2.74923e-14
1.7948e-13
-1.99053e-14
2.0224e-14
7.0581e-13
1.30143e-14
2.17732e-12
-7.59635e-15
2.91913e-13
5.89037e-14
3.40915e-14
-6.59746e-14
5.40798e-14
1.14072e-14
-7.1919e-14
4.58693e-14
1.93368e-14
-6.69408e-14
3.80618e-14
1.79474e-14
-6.42353e-14
3.08299e-14
2.05803e-14
-6.12254e-14
2.41206e-14
3.46442e-14
-6.0118e-14
1.79234e-14
5.19166e-14
-6.23332e-14
1.23178e-14
1.25617e-13
-7.19105e-14
7.28739e-15
4.21755e-13
2.75855e-15
1.41727e-12
-7.5647e-15
2.13999e-13
7.51395e-14
4.79472e-14
-1.66661e-13
6.78181e-14
1.92789e-14
-1.3522e-13
5.70772e-14
3.17867e-14
-1.18398e-13
4.70751e-14
3.04805e-14
-1.11757e-13
3.80513e-14
3.25368e-14
-1.06287e-13
2.99267e-14
4.40589e-14
-9.9351e-14
2.26178e-14
6.35879e-14
-1.0464e-13
1.55751e-14
1.05274e-13
-1.23433e-13
9.28573e-15
2.82022e-13
3.52538e-15
9.27935e-13
-6.10037e-15
9.35107e-14
9.39198e-14
8.06782e-14
-2.89854e-13
8.21092e-14
4.32595e-14
-2.16683e-13
6.73341e-14
6.03846e-14
-1.81524e-13
5.44279e-14
5.69527e-14
-1.68736e-13
4.31976e-14
5.74809e-14
-1.56736e-13
3.32028e-14
6.34736e-14
-1.46811e-13
2.43945e-14
8.03068e-14
-1.49635e-13
1.69302e-14
1.0676e-13
-1.75891e-13
9.92017e-15
2.17718e-13
4.40791e-15
6.44687e-13
-7.40033e-15
-2.45556e-14
1.19023e-13
1.40933e-13
-4.47288e-13
1.00336e-13
9.70106e-14
-3.08829e-13
8.03128e-14
1.14103e-13
-2.61256e-13
6.31904e-14
1.03693e-13
-2.37785e-13
4.87782e-14
9.6929e-14
-2.17394e-13
3.69574e-14
1.26213e-13
-1.97e-13
2.66461e-14
1.07984e-13
-1.98644e-13
1.79528e-14
1.24889e-13
-2.29883e-13
1.09352e-14
1.97197e-13
4.18299e-15
4.78522e-13
-1.14949e-14
-1.62252e-13
1.5265e-13
2.50964e-13
-6.54126e-13
1.24733e-13
1.98648e-13
-4.22718e-13
9.65874e-14
2.07835e-13
-3.61566e-13
7.39431e-14
1.81271e-13
-3.19152e-13
5.58695e-14
1.61467e-13
-2.87057e-13
4.08969e-14
1.86072e-13
-2.54327e-13
2.89822e-14
1.52088e-13
-2.37786e-13
1.93098e-14
1.66005e-13
-2.86882e-13
1.16747e-14
2.03905e-13
4.8126e-15
3.84009e-13
-1.56661e-14
-5.8234e-13
1.97207e-13
4.51164e-13
-9.33714e-13
1.56509e-13
3.83425e-13
-5.78322e-13
1.17254e-13
3.64115e-13
-4.85396e-13
8.70717e-14
3.04769e-13
-4.20015e-13
6.38046e-14
2.58957e-13
-3.6531e-13
4.59569e-14
2.62194e-13
-3.1879e-13
3.21264e-14
1.71417e-13
-2.87103e-13
2.07552e-14
2.14476e-13
-3.46842e-13
1.23207e-14
2.32289e-13
5.10144e-15
3.3389e-13
-1.8977e-14
-1.12068e-12
3.18294e-13
8.03358e-13
-1.31282e-12
1.83471e-13
7.09421e-13
-7.84349e-13
1.45325e-13
6.19814e-13
-6.4255e-13
1.04752e-13
4.97208e-13
-5.39798e-13
7.5329e-14
4.04664e-13
-4.5671e-13
5.55708e-14
3.83221e-13
-3.91689e-13
3.86863e-14
3.83663e-13
-3.41248e-13
2.49244e-14
2.44763e-13
-4.10028e-13
1.43456e-14
2.78456e-13
6.26878e-15
3.13492e-13
-2.26126e-14
-2.08882e-12
2.83986e-11
3.14498e-12
-1.80532e-12
3.91128e-13
1.21524e-12
-1.05863e-12
2.65422e-13
1.02822e-12
-8.41153e-13
1.72421e-13
7.88927e-13
-6.85858e-13
1.13222e-13
6.14409e-13
-5.64597e-13
7.10716e-14
5.70666e-13
-4.71836e-13
3.40668e-14
5.40725e-13
-4.0086e-13
1.90055e-14
2.98285e-13
-4.76662e-13
1.00681e-14
3.37162e-13
4.76944e-15
3.1468e-13
-2.63756e-14
-3.49653e-10
-3.02069e-10
7.24929e-08
-2.8652e-12
-5.74483e-11
9.5896e-11
-1.31239e-12
1.2886e-12
-2.33208e-14
-1.09346e-12
1.23856e-12