/*--------------------------------*- C++ -*----------------------------------*\
| =========                 |                                                 |
| \\      /  F ield         | OpenFOAM: The Open Source CFD Toolbox           |
|  \\    /   O peration     | Version:  4.1                                   |
|   \\  /    A nd           | Web:      www.OpenFOAM.org                      |
|    \\/     M anipulation  |                                                 |
\*---------------------------------------------------------------------------*/
FoamFile
{
    version     2.0;
    format      ascii;
    class       volVectorField;
    location    "0.64";
    object      U;
}
// * * * * * * * * * * * * * * * * * * * * * * * * * * * * * * * * * * * * * //

dimensions      [0 1 -1 0 0 0 0];

internalField   nonuniform List<vector> 
18000
(
(8.4422e-14 3.87469e-13 -6.04675e-12)
(8.98674e-14 3.86588e-13 -5.97863e-12)
(8.10986e-14 -9.84696e-15 -5.91079e-12)
(7.2544e-14 -1.31452e-14 -5.84429e-12)
(6.42257e-14 -1.29091e-14 -5.7784e-12)
(5.61262e-14 -1.25808e-14 -5.71336e-12)
(4.83033e-14 -1.25787e-14 -5.649e-12)
(4.07886e-14 -1.25818e-14 -5.58588e-12)
(3.34791e-14 -1.23743e-14 -5.52367e-12)
(2.64309e-14 -9.32774e-15 -5.46335e-12)
(1.23177e-13 3.99257e-13 -7.56058e-12)
(1.37123e-13 3.87301e-13 -7.29584e-12)
(1.20234e-13 -4.51244e-14 -7.03946e-12)
(1.04235e-13 -4.70597e-14 -6.7946e-12)
(8.93901e-14 -4.5471e-14 -6.56025e-12)
(7.55643e-14 -4.3714e-14 -6.33564e-12)
(6.25778e-14 -4.20679e-14 -6.12005e-12)
(5.06143e-14 -4.06384e-14 -5.91358e-12)
(3.93723e-14 -3.91361e-14 -5.71491e-12)
(2.8926e-14 -2.90686e-14 -5.52825e-12)
(1.34178e-13 4.03433e-13 -9.56692e-12)
(1.44561e-13 3.76234e-13 -8.98849e-12)
(1.19695e-13 -9.59578e-14 -8.44597e-12)
(9.74106e-14 -9.37032e-14 -7.94407e-12)
(7.76574e-14 -8.76231e-14 -7.47745e-12)
(6.01179e-14 -8.23226e-14 -7.04389e-12)
(4.44591e-14 -7.73825e-14 -6.64125e-12)
(3.05377e-14 -7.27796e-14 -6.26564e-12)
(1.81496e-14 -6.85895e-14 -5.91597e-12)
(7.17247e-15 -4.97013e-14 -5.59448e-12)
(1.81277e-13 3.94204e-13 -1.22611e-11)
(1.83996e-13 3.45639e-13 -1.11833e-11)
(1.47402e-13 -1.68806e-13 -1.02115e-11)
(1.16207e-13 -1.57055e-13 -9.33865e-12)
(8.98612e-14 -1.42859e-13 -8.5559e-12)
(6.75093e-14 -1.30268e-13 -7.85172e-12)
(4.86406e-14 -1.19086e-13 -7.21698e-12)
(3.25049e-14 -1.09069e-13 -6.64372e-12)
(1.88511e-14 -9.98738e-14 -6.12516e-12)
(7.32634e-15 -7.09028e-14 -5.66165e-12)
(2.50448e-13 3.60207e-13 -1.59355e-11)
(2.38153e-13 2.82675e-13 -1.40645e-11)
(1.83828e-13 -2.73624e-13 -1.24451e-11)
(1.3987e-13 -2.44109e-13 -1.10435e-11)
(1.04651e-13 -2.14677e-13 -9.8302e-12)
(7.62802e-14 -1.89693e-13 -8.77529e-12)
(5.33299e-14 -1.68443e-13 -7.85521e-12)
(3.47275e-14 -1.50198e-13 -7.05036e-12)
(1.96161e-14 -1.33987e-13 -6.34362e-12)
(7.40081e-15 -9.30227e-14 -5.73004e-12)
(3.54748e-13 2.82985e-13 -2.10291e-11)
(3.14473e-13 1.64995e-13 -1.78961e-11)
(2.32493e-13 -4.26097e-13 -1.5301e-11)
(1.69991e-13 -3.63755e-13 -1.31417e-11)
(1.22693e-13 -3.08558e-13 -1.13429e-11)
(8.64813e-14 -2.63783e-13 -9.83465e-12)
(5.86222e-14 -2.27056e-13 -8.56393e-12)
(3.70968e-14 -1.96587e-13 -7.48776e-12)
(2.04414e-14 -1.70766e-13 -6.57157e-12)
(7.49582e-15 -1.16079e-13 -5.7995e-12)
(5.15958e-13 1.29584e-13 -2.82076e-11)
(4.23504e-13 -4.52499e-14 -2.30683e-11)
(2.97918e-13 -6.51283e-13 -1.89885e-11)
(2.08162e-13 -5.303e-13 -1.57446e-11)
(1.44202e-13 -4.31944e-13 -1.31486e-11)
(9.78661e-14 -3.56119e-13 -1.1054e-11)
(6.40183e-14 -2.96565e-13 -9.35189e-12)
(3.9147e-14 -2.4916e-13 -7.95858e-12)
(2.07683e-14 -2.10673e-13 -6.81e-12)
(7.10368e-15 -1.4011e-13 -5.86999e-12)
(-1.55473e-12 -1.60556e-13 -3.8544e-11)
(-1.73215e-12 -4.15499e-13 -3.01508e-11)
(-1.80166e-12 -9.87833e-13 -2.38084e-11)
(-1.81514e-12 -7.63682e-13 -1.90016e-11)
(-1.79692e-12 -5.95004e-13 -1.53192e-11)
(-1.76046e-12 -4.71721e-13 -1.24668e-11)
(-1.71401e-12 -3.7916e-13 -1.02341e-11)
(-1.66256e-12 -3.08537e-13 -8.46996e-12)
(-1.60937e-12 -2.53678e-13 -7.06206e-12)
(-1.57915e-12 -1.65072e-13 -5.94516e-12)
(-4.95851e-09 -1.08082e-12 -7.97294e-11)
(-4.95085e-09 -1.03902e-12 -6.30984e-11)
(-4.65821e-09 -1.16667e-12 -5.06304e-11)
(-4.39379e-09 -7.86146e-13 -4.13052e-11)
(-4.15573e-09 -5.31915e-13 -3.42263e-11)
(-3.94068e-09 -3.6041e-13 -2.87548e-11)
(-3.74571e-09 -2.42606e-13 -2.44592e-11)
(-3.5683e-09 -1.60804e-13 -2.10386e-11)
(-3.40659e-09 -1.63624e-13 -1.82779e-11)
(-3.32356e-09 -2.42072e-13 -1.61919e-11)
(5.33466e-07 -1.03279e-09 -5.87047e-08)
(3.22742e-08 -4.83916e-11 -5.13004e-08)
(2.55049e-08 7.09971e-10 -4.49629e-08)
(2.12113e-08 6.45982e-10 -3.96817e-08)
(1.7583e-08 5.84445e-10 -3.52454e-08)
(1.44873e-08 5.30037e-10 -3.14904e-08)
(1.18249e-08 4.8206e-10 -2.82888e-08)
(9.51732e-09 4.39016e-10 -2.55401e-08)
(7.18904e-09 2.28595e-10 -2.31667e-08)
(-9.18348e-08 -1.80701e-10 -2.15308e-08)
(2.58794e-13 3.66139e-13 -6.39215e-12)
(2.42767e-13 3.44636e-13 -6.3183e-12)
(2.13074e-13 -5.14205e-14 -6.24486e-12)
(1.84467e-13 -5.42082e-14 -6.17223e-12)
(1.56987e-13 -5.36465e-14 -6.1009e-12)
(1.30499e-13 -5.29628e-14 -6.03079e-12)
(1.05013e-13 -5.2452e-14 -5.96062e-12)
(8.0534e-14 -5.18409e-14 -5.8925e-12)
(5.68349e-14 -5.07569e-14 -5.82519e-12)
(3.44993e-14 -2.94759e-14 -5.7595e-12)
(5.18284e-13 3.19718e-13 -8.03884e-12)
(4.78217e-13 2.33222e-13 -7.7501e-12)
(4.10124e-13 -1.94648e-13 -7.47015e-12)
(3.46464e-13 -1.91046e-13 -7.20338e-12)
(2.87082e-13 -1.84416e-13 -6.94863e-12)
(2.31682e-13 -1.78016e-13 -6.70433e-12)
(1.79996e-13 -1.71814e-13 -6.47089e-12)
(1.31713e-13 -1.66146e-13 -6.24686e-12)
(8.65772e-14 -1.59101e-13 -6.03242e-12)
(4.50036e-14 -9.05179e-14 -5.82986e-12)
(6.35419e-13 2.36976e-13 -1.02421e-11)
(5.65612e-13 5.94394e-14 -9.60387e-12)
(4.68478e-13 -3.95481e-13 -9.00856e-12)
(3.81212e-13 -3.75114e-13 -8.45744e-12)
(3.03454e-13 -3.52667e-13 -7.9476e-12)
(2.34041e-13 -3.31669e-13 -7.47476e-12)
(1.72026e-13 -3.12442e-13 -7.03672e-12)
(1.16595e-13 -2.94648e-13 -6.62889e-12)
(6.71874e-14 -2.76021e-13 -6.24969e-12)
(2.34999e-14 -1.5474e-13 -5.90229e-12)
(8.24485e-13 9.7481e-14 -1.32312e-11)
(7.08164e-13 -2.06648e-13 -1.20302e-11)
(5.69377e-13 -6.76403e-13 -1.09539e-11)
(4.50043e-13 -6.21574e-13 -9.98976e-12)
(3.48432e-13 -5.67955e-13 -9.12879e-12)
(2.61558e-13 -5.20223e-13 -8.35707e-12)
(1.87307e-13 -4.77395e-13 -7.66416e-12)
(1.23857e-13 -4.38773e-13 -7.04061e-12)
(6.95803e-14 -4.01087e-13 -6.47681e-12)
(2.3885e-14 -2.21356e-13 -5.97489e-12)
(1.0864e-12 -1.31658e-13 -1.73584e-11)
(8.97457e-13 -6.1192e-13 -1.52498e-11)
(6.98206e-13 -1.06962e-12 -1.34378e-11)
(5.34897e-13 -9.51266e-13 -1.18766e-11)
(4.01904e-13 -8.43652e-13 -1.05331e-11)
(2.93263e-13 -7.51006e-13 -9.37123e-12)
(2.04438e-13 -6.70559e-13 -8.36236e-12)
(1.31754e-13 -6.00644e-13 -7.48346e-12)
(7.21803e-14 -5.35754e-13 -6.71443e-12)
(2.42067e-14 -2.90941e-13 -6.04974e-12)
(1.45502e-12 -5.0202e-13 -2.31664e-11)
(1.15331e-12 -1.22694e-12 -1.95825e-11)
(8.64701e-13 -1.62282e-12 -1.66458e-11)
(6.40249e-13 -1.39374e-12 -1.42173e-11)
(4.65862e-13 -1.19697e-12 -1.22109e-11)
(3.298e-13 -1.0338e-12 -1.054e-11)
(2.23455e-13 -8.97156e-13 -9.14109e-12)
(1.40165e-13 -7.82325e-13 -7.9625e-12)
(7.49582e-14 -6.80341e-13 -6.96402e-12)
(2.4521e-14 -3.63189e-13 -6.12627e-12)
(1.98662e-12 -1.09471e-12 -3.14998e-11)
(1.50328e-12 -2.16151e-12 -2.55164e-11)
(1.08205e-12 -2.40792e-12 -2.08361e-11)
(7.71859e-13 -1.98969e-12 -1.71465e-11)
(5.42594e-13 -1.6511e-12 -1.42276e-11)
(3.72052e-13 -1.38091e-12 -1.18928e-11)
(2.44623e-13 -1.163e-12 -1.00099e-11)
(1.49277e-13 -9.86085e-13 -8.47985e-12)
(7.77707e-14 -8.35787e-13 -7.22435e-12)
(2.4889e-14 -4.38772e-13 -6.20451e-12)
(2.76958e-12 -2.05926e-12 -4.37619e-11)
(1.89653e-12 -3.59844e-12 -3.3783e-11)
(1.2862e-12 -3.52853e-12 -2.6387e-11)
(8.62088e-13 -2.79678e-12 -2.08522e-11)
(5.65437e-13 -2.23576e-12 -1.66719e-11)
(3.55728e-13 -1.80732e-12 -1.34695e-11)
(2.06479e-13 -1.47515e-12 -1.09883e-11)
(9.99179e-14 -1.21504e-12 -9.043e-12)
(2.35713e-14 -1.00279e-12 -7.50122e-12)
(-3.04609e-14 -5.17156e-13 -6.28749e-12)
(-1.37288e-10 -4.37492e-12 -8.94818e-11)
(-3.52153e-10 -6.46734e-12 -6.9635e-11)
(-2.89226e-10 -5.47299e-12 -5.51191e-11)
(-2.38981e-10 -4.19309e-12 -4.44748e-11)
(-1.99626e-10 -3.261e-12 -3.6537e-11)
(-1.68384e-10 -2.57762e-12 -3.04892e-11)
(-1.43294e-10 -2.06623e-12 -2.57976e-11)
(-1.22931e-10 -1.67807e-12 -2.20987e-11)
(-1.06261e-10 -1.3724e-12 -1.91366e-11)
(-9.3443e-11 -7.80593e-13 -1.69081e-11)
(3.61673e-07 -1.88609e-09 -6.35471e-08)
(-7.51194e-09 -1.50213e-09 -5.51378e-08)
(-8.06152e-09 -6.62257e-10 -4.78667e-08)
(-7.47314e-09 -6.00696e-10 -4.19148e-08)
(-6.92177e-09 -5.49112e-10 -3.69893e-08)
(-6.42079e-09 -5.02279e-10 -3.28712e-08)
(-5.97093e-09 -4.60131e-10 -2.93958e-08)
(-5.57001e-09 -4.22367e-10 -2.64377e-08)
(-5.23528e-09 -3.9111e-10 -2.39021e-08)
(-7.04926e-09 -3.99514e-10 -2.21455e-08)
(2.31031e-13 3.70257e-13 -3.55981e-13)
(2.17949e-13 3.46831e-13 -3.49703e-13)
(1.91078e-13 -4.94775e-14 -3.43195e-13)
(1.65455e-13 -5.2284e-14 -3.36601e-13)
(1.40916e-13 -5.13913e-14 -3.30469e-13)
(1.17268e-13 -5.09418e-14 -3.2452e-13)
(9.48662e-14 -5.04848e-14 -3.18465e-13)
(7.32504e-14 -4.96775e-14 -3.13104e-13)
(5.25625e-14 -4.88204e-14 -3.07624e-13)
(3.31259e-14 -2.56782e-14 -3.02397e-13)
(5.02935e-13 3.34682e-13 -4.9446e-13)
(4.64194e-13 2.3989e-13 -4.68955e-13)
(3.97699e-13 -1.88224e-13 -4.44042e-13)
(3.35567e-13 -1.84407e-13 -4.20423e-13)
(2.7787e-13 -1.77873e-13 -3.98957e-13)
(2.24119e-13 -1.71392e-13 -3.78879e-13)
(1.7424e-13 -1.65215e-13 -3.59188e-13)
(1.27644e-13 -1.59546e-13 -3.40922e-13)
(8.41737e-14 -1.5265e-13 -3.24846e-13)
(4.44392e-14 -7.95013e-14 -3.08567e-13)
(6.21991e-13 2.66339e-13 -7.00986e-13)
(5.52662e-13 6.99931e-14 -6.38082e-13)
(4.56712e-13 -3.84871e-13 -5.82086e-13)
(3.70663e-13 -3.64454e-13 -5.3081e-13)
(2.94354e-13 -3.41512e-13 -4.85219e-13)
(2.26595e-13 -3.20502e-13 -4.43638e-13)
(1.66255e-13 -3.01291e-13 -4.06522e-13)
(1.12676e-13 -2.83744e-13 -3.73151e-13)
(6.47724e-14 -2.64974e-13 -3.42259e-13)
(2.28994e-14 -1.35819e-13 -3.15641e-13)
(8.16089e-13 1.47061e-13 -1.01174e-12)
(6.98438e-13 -1.94622e-13 -8.8298e-13)
(5.59389e-13 -6.63098e-13 -7.72198e-13)
(4.40532e-13 -6.07581e-13 -6.75801e-13)
(3.39869e-13 -5.53079e-13 -5.93622e-13)
(2.54388e-13 -5.04794e-13 -5.2293e-13)
(1.81691e-13 -4.6158e-13 -4.61982e-13)
(1.19895e-13 -4.23469e-13 -4.09288e-13)
(6.72948e-14 -3.86043e-13 -3.62826e-13)
(2.32896e-14 -1.9512e-13 -3.22778e-13)
(1.08952e-12 -5.48121e-14 -1.49365e-12)
(8.94229e-13 -6.04201e-13 -1.24219e-12)
(6.92055e-13 -1.05769e-12 -1.03847e-12)
(5.27285e-13 -9.36492e-13 -8.7007e-13)
(3.94345e-13 -8.26206e-13 -7.32433e-13)
(2.86587e-13 -7.32119e-13 -6.19771e-13)
(1.99105e-13 -6.51106e-13 -5.26891e-13)
(1.27916e-13 -5.81188e-13 -4.49962e-13)
(7.01153e-14 -5.16077e-13 -3.85139e-13)
(2.3831e-14 -2.56644e-13 -3.31895e-13)
(1.48124e-12 -3.90853e-13 -2.25928e-12)
(1.16283e-12 -1.23747e-12 -1.78014e-12)
(8.65473e-13 -1.62021e-12 -1.41625e-12)
(6.35943e-13 -1.38309e-12 -1.1303e-12)
(4.59942e-13 -1.17959e-12 -9.10624e-13)
(3.23848e-13 -1.01268e-12 -7.3876e-13)
(2.18439e-13 -8.74172e-13 -6.0401e-13)
(1.36689e-13 -7.5878e-13 -4.96964e-13)
(7.29504e-14 -6.56491e-13 -4.0948e-13)
(2.43029e-14 -3.21769e-13 -3.41592e-13)
(2.05767e-12 -9.41077e-13 -3.50618e-12)
(1.53669e-12 -2.21821e-12 -2.60217e-12)
(1.09501e-12 -2.43135e-12 -1.95898e-12)
(7.73623e-13 -1.99227e-12 -1.48407e-12)
(5.39519e-13 -1.63817e-12 -1.14015e-12)
(3.67385e-13 -1.36006e-12 -8.85094e-13)
(2.40274e-13 -1.13757e-12 -6.94382e-13)
(1.46013e-13 -9.59225e-13 -5.49606e-13)
(7.5867e-14 -8.07982e-13 -4.36836e-13)
(2.47479e-14 -3.8951e-13 -3.52699e-13)
(3.03568e-12 -1.85919e-12 -5.60481e-12)
(2.07097e-12 -3.75805e-12 -3.88851e-12)
(1.40536e-12 -3.60814e-12 -2.75454e-12)
(9.50387e-13 -2.82821e-12 -1.97243e-12)
(6.36883e-13 -2.23576e-12 -1.44006e-12)
(4.18245e-13 -1.79027e-12 -1.06688e-12)
(2.6444e-13 -1.44921e-12 -8.01586e-13)
(1.55657e-13 -1.18573e-12 -6.09297e-13)
(7.8421e-14 -9.71368e-13 -4.67782e-13)
(2.44495e-14 -4.6073e-13 -3.64176e-13)
(2.59584e-10 -3.72774e-12 -1.04741e-11)
(-8.74511e-12 -6.51361e-12 -6.94495e-12)
(-7.5012e-12 -5.37516e-12 -4.75017e-12)
(-5.49479e-12 -4.01288e-12 -3.34452e-12)
(-4.12145e-12 -3.04074e-12 -2.43274e-12)
(-3.15371e-12 -2.34506e-12 -1.8225e-12)
(-2.45835e-12 -1.83536e-12 -1.40409e-12)
(-1.94772e-12 -1.45679e-12 -1.11055e-12)
(-1.56616e-12 -1.16207e-12 -8.98627e-13)
(-1.26578e-12 -5.4848e-13 -7.48855e-13)
(3.14034e-07 -9.4048e-10 -5.15536e-09)
(5.05576e-10 -8.51336e-10 -3.98183e-09)
(-3.99015e-10 -1.10172e-10 -2.99773e-09)
(-3.24334e-10 -8.20554e-11 -2.2955e-09)
(-2.63343e-10 -6.46037e-11 -1.78657e-09)
(-2.16377e-10 -5.14811e-11 -1.41058e-09)
(-1.79531e-10 -4.14913e-11 -1.12821e-09)
(-1.50389e-10 -3.37879e-11 -9.12952e-10)
(-1.27838e-10 -2.7749e-11 -7.4675e-10)
(-1.38932e-10 -2.3518e-11 -6.23177e-10)
(2.26838e-13 3.70721e-13 -1.54326e-14)
(2.14225e-13 3.46938e-13 -1.46053e-14)
(1.87853e-13 -4.93389e-14 -1.24234e-14)
(1.62617e-13 -5.20786e-14 -1.13898e-14)
(1.38567e-13 -5.13599e-14 -9.89129e-15)
(1.15527e-13 -5.0742e-14 -8.84831e-15)
(9.34047e-14 -5.00937e-14 -7.8746e-15)
(7.22338e-14 -4.93458e-14 -6.74495e-15)
(5.20467e-14 -4.82989e-14 -6.31533e-15)
(3.30056e-14 -2.51987e-14 -6.41313e-15)
(4.98057e-13 3.36947e-13 -2.33679e-14)
(4.60023e-13 2.41561e-13 -2.09394e-14)
(3.94194e-13 -1.86782e-13 -1.88391e-14)
(3.32719e-13 -1.82992e-13 -1.61575e-14)
(2.75585e-13 -1.76072e-13 -1.37597e-14)
(2.22373e-13 -1.70011e-13 -1.23599e-14)
(1.72955e-13 -1.64074e-13 -1.05082e-14)
(1.26858e-13 -1.57919e-13 -9.29516e-15)
(8.37989e-14 -1.50978e-13 -8.3165e-15)
(4.44465e-14 -7.77672e-14 -7.64526e-15)
(6.15484e-13 2.71867e-13 -3.75358e-14)
(5.4748e-13 7.39017e-14 -3.31969e-14)
(4.52462e-13 -3.81132e-13 -2.83166e-14)
(3.67321e-13 -3.60905e-13 -2.39303e-14)
(2.91793e-13 -3.38511e-13 -2.06785e-14)
(2.24655e-13 -3.17673e-13 -1.75709e-14)
(1.6505e-13 -2.98392e-13 -1.46887e-14)
(1.11973e-13 -2.81049e-13 -1.2857e-14)
(6.45716e-14 -2.62408e-13 -1.11303e-14)
(2.30546e-14 -1.32915e-13 -1.04992e-14)
(8.07534e-13 1.58438e-13 -6.16676e-14)
(6.91772e-13 -1.86805e-13 -5.36752e-14)
(5.543e-13 -6.56634e-13 -4.48237e-14)
(4.36644e-13 -6.01668e-13 -3.69468e-14)
(3.37006e-13 -5.4761e-13 -3.0729e-14)
(2.52446e-13 -4.99896e-13 -2.60386e-14)
(1.80526e-13 -4.57253e-13 -2.17024e-14)
(1.19385e-13 -4.19276e-13 -1.8233e-14)
(6.73458e-14 -3.82216e-13 -1.59859e-14)
(2.37137e-14 -1.91502e-13 -1.40322e-14)
(1.07823e-12 -3.436e-14 -1.06093e-13)
(8.85854e-13 -5.9102e-13 -8.80497e-14)
(6.85908e-13 -1.04654e-12 -7.10173e-14)
(5.22885e-13 -9.27098e-13 -5.68833e-14)
(3.91355e-13 -8.18197e-13 -4.63907e-14)
(2.84654e-13 -7.24953e-13 -3.75325e-14)
(1.9809e-13 -6.44581e-13 -3.09385e-14)
(1.27688e-13 -5.75482e-13 -2.67816e-14)
(7.01399e-14 -5.11269e-13 -2.33789e-14)
(2.43893e-14 -2.52048e-13 -1.97832e-14)
(1.46596e-12 -3.53998e-13 -1.85048e-13)
(1.15217e-12 -1.21601e-12 -1.45828e-13)
(8.58002e-13 -1.60325e-12 -1.13717e-13)
(6.30967e-13 -1.36912e-12 -8.83704e-14)
(4.5679e-13 -1.16794e-12 -6.97155e-14)
(3.22066e-13 -1.00289e-12 -5.58752e-14)
(2.17696e-13 -8.65692e-13 -4.52559e-14)
(1.36536e-13 -7.52182e-13 -3.74502e-14)
(7.32671e-14 -6.5088e-13 -3.04907e-14)
(2.49661e-14 -3.15943e-13 -2.62374e-14)
(2.03713e-12 -8.7611e-13 -3.26071e-13)
(1.52277e-12 -2.18472e-12 -2.44464e-13)
(1.08599e-12 -2.40555e-12 -1.80532e-13)
(7.67939e-13 -1.9722e-12 -1.36181e-13)
(5.36202e-13 -1.62239e-12 -1.03623e-13)
(3.65752e-13 -1.34717e-12 -8.05821e-14)
(2.39632e-13 -1.12729e-12 -6.37026e-14)
(1.46053e-13 -9.51209e-13 -5.12415e-14)
(7.66421e-14 -8.01459e-13 -4.17212e-14)
(2.55666e-14 -3.83258e-13 -3.42747e-14)
(3.00845e-12 -1.74513e-12 -5.88417e-13)
(2.05037e-12 -3.7071e-12 -4.09116e-13)
(1.39263e-12 -3.57041e-12 -2.88371e-13)
(9.43066e-13 -2.80058e-12 -2.06451e-13)
(6.33195e-13 -2.21454e-12 -1.51987e-13)
(4.16865e-13 -1.7744e-12 -1.14259e-13)
(2.6445e-13 -1.43714e-12 -8.73345e-14)
(1.56619e-13 -1.17614e-12 -6.83993e-14)
(7.99842e-14 -9.64333e-13 -5.48547e-14)
(2.63816e-14 -4.53996e-13 -4.40662e-14)
(2.85176e-10 -3.4936e-12 -1.13377e-12)
(4.13682e-12 -6.409e-12 -6.65796e-13)
(1.59075e-12 -5.28828e-12 -4.42232e-13)
(1.02856e-12 -3.94775e-12 -3.06336e-13)
(6.62174e-13 -2.99081e-12 -2.18648e-13)
(4.16572e-13 -2.30604e-12 -1.61105e-13)
(2.51081e-13 -1.80412e-12 -1.21647e-13)
(1.38882e-13 -1.43116e-12 -9.43051e-14)
(6.24724e-14 -1.14046e-12 -7.46216e-14)
(1.18037e-14 -5.28333e-13 -6.06639e-14)
(3.10842e-07 -8.03691e-10 -4.70569e-10)
(1.00321e-09 -7.49863e-10 -1.50376e-10)
(-9.65967e-12 -1.71421e-11 -9.66705e-11)
(-8.43235e-12 -8.86149e-12 -6.41394e-11)
(-6.02076e-12 -6.29114e-12 -4.37381e-11)
(-4.40055e-12 -4.5765e-12 -3.05134e-11)
(-3.27548e-12 -3.39357e-12 -2.17377e-11)
(-2.48036e-12 -2.5622e-12 -1.57753e-11)
(-1.92183e-12 -1.95544e-12 -1.16407e-11)
(-1.79763e-12 -1.0828e-12 -8.65711e-12)
(2.27126e-13 3.70621e-13 -1.11286e-14)
(2.14413e-13 3.46343e-13 -1.00244e-14)
(1.88114e-13 -5.00518e-14 -7.56444e-15)
(1.62804e-13 -5.26019e-14 -5.57334e-15)
(1.38691e-13 -5.17235e-14 -4.29126e-15)
(1.15531e-13 -5.10797e-14 -3.07982e-15)
(9.35339e-14 -5.06708e-14 -2.41727e-15)
(7.24177e-14 -4.96574e-14 -1.45113e-15)
(5.21446e-14 -4.83206e-14 -4.83722e-16)
(3.3078e-14 -2.5407e-14 -3.3959e-16)
(4.98886e-13 3.36636e-13 -1.61627e-14)
(4.60748e-13 2.40981e-13 -1.43705e-14)
(3.94854e-13 -1.87365e-13 -1.10775e-14)
(3.33169e-13 -1.83811e-13 -9.33693e-15)
(2.76029e-13 -1.76903e-13 -6.39437e-15)
(2.22739e-13 -1.70337e-13 -4.74372e-15)
(1.7329e-13 -1.64216e-13 -4.00931e-15)
(1.27232e-13 -1.58329e-13 -3.45647e-15)
(8.41409e-14 -1.51314e-13 -2.47521e-15)
(4.48208e-14 -7.78052e-14 -1.31891e-15)
(6.16987e-13 2.71507e-13 -2.64037e-14)
(5.48865e-13 7.29844e-14 -2.34681e-14)
(4.53625e-13 -3.82459e-13 -1.90572e-14)
(3.68273e-13 -3.61959e-13 -1.49098e-14)
(2.92657e-13 -3.39022e-13 -1.21432e-14)
(2.2548e-13 -3.18304e-13 -9.68907e-15)
(1.6569e-13 -2.98998e-13 -7.84003e-15)
(1.12556e-13 -2.81361e-13 -6.4946e-15)
(6.51323e-14 -2.62449e-13 -5.90335e-15)
(2.36312e-14 -1.3308e-13 -5.21033e-15)
(8.10209e-13 1.57767e-13 -4.52831e-14)
(6.94198e-13 -1.88264e-13 -3.9528e-14)
(5.56282e-13 -6.58296e-13 -3.2752e-14)
(4.38335e-13 -6.03258e-13 -2.66691e-14)
(3.38461e-13 -5.48814e-13 -2.17572e-14)
(2.53623e-13 -5.00877e-13 -1.79656e-14)
(1.81572e-13 -4.58115e-13 -1.52719e-14)
(1.2038e-13 -4.19983e-13 -1.29408e-14)
(6.82984e-14 -3.82656e-13 -1.12612e-14)
(2.44603e-14 -1.91315e-13 -1.05294e-14)
(1.08286e-12 -3.5471e-14 -7.93211e-14)
(8.89775e-13 -5.93894e-13 -6.87013e-14)
(6.89139e-13 -1.04992e-12 -5.57063e-14)
(5.25536e-13 -9.2969e-13 -4.50354e-14)
(3.93567e-13 -8.20224e-13 -3.75565e-14)
(2.8654e-13 -7.26878e-13 -3.10873e-14)
(1.99682e-13 -6.45872e-13 -2.5587e-14)
(1.29027e-13 -5.76203e-13 -2.20606e-14)
(7.14134e-14 -5.12089e-13 -1.92981e-14)
(2.54411e-14 -2.52624e-13 -1.67724e-14)
(1.4737e-12 -3.56928e-13 -1.40109e-13)
(1.15861e-12 -1.22169e-12 -1.16839e-13)
(8.6305e-13 -1.60858e-12 -9.32964e-14)
(6.35096e-13 -1.37378e-12 -7.47388e-14)
(4.60048e-13 -1.17155e-12 -6.0549e-14)
(3.24799e-13 -1.00588e-12 -5.03366e-14)
(2.19912e-13 -8.68259e-13 -4.08523e-14)
(1.38388e-13 -7.53986e-13 -3.43152e-14)
(7.47708e-14 -6.5238e-13 -2.98493e-14)
(2.62563e-14 -3.16801e-13 -2.54704e-14)
(2.05014e-12 -8.81531e-13 -2.48618e-13)
(1.53317e-12 -2.19588e-12 -2.00024e-13)
(1.09376e-12 -2.41586e-12 -1.54604e-13)
(7.73928e-13 -1.98025e-12 -1.20093e-13)
(5.40896e-13 -1.62881e-12 -9.57105e-14)
(3.69375e-13 -1.35241e-12 -7.66466e-14)
(2.42573e-13 -1.13138e-12 -6.19007e-14)
(1.48462e-13 -9.54294e-13 -5.11858e-14)
(7.85257e-14 -8.04215e-13 -4.30063e-14)
(2.72039e-14 -3.84792e-13 -3.61387e-14)
(3.03447e-12 -1.75636e-12 -4.44321e-13)
(2.06661e-12 -3.72913e-12 -3.39579e-13)
(1.40444e-12 -3.5889e-12 -2.51121e-13)
(9.51915e-13 -2.81471e-12 -1.89581e-13)
(6.39801e-13 -2.22561e-12 -1.45814e-13)
(4.21881e-13 -1.78295e-12 -1.13784e-13)
(2.68341e-13 -1.44379e-12 -9.03061e-14)
(1.59598e-13 -1.18148e-12 -7.2512e-14)
(8.22595e-14 -9.68438e-13 -5.91595e-14)
(2.81944e-14 -4.56434e-13 -4.97221e-14)
(2.98068e-10 -3.5325e-12 -9.11452e-13)
(4.62575e-12 -6.46381e-12 -5.7492e-13)
(1.82076e-12 -5.32166e-12 -4.05487e-13)
(1.17307e-12 -3.97228e-12 -2.94479e-13)
(7.54978e-13 -3.00929e-12 -2.18085e-13)
(4.78279e-13 -2.31991e-12 -1.64982e-13)
(2.93061e-13 -1.81464e-12 -1.26259e-13)
(1.68086e-13 -1.43932e-12 -9.93312e-14)
(8.30225e-14 -1.14688e-12 -7.86677e-14)
(2.62112e-14 -5.31743e-13 -6.36555e-14)
(3.30595e-07 -8.41189e-10 -3.80864e-10)
(1.12149e-09 -7.74804e-10 -7.75325e-12)
(3.79858e-12 -1.27327e-11 -2.88972e-12)
(9.50555e-13 -5.68661e-12 -1.73351e-12)
(6.37292e-13 -4.09178e-12 -1.07859e-12)
(4.32376e-13 -3.02102e-12 -7.00175e-13)
(2.91803e-13 -2.27427e-12 -4.69872e-13)
(1.94843e-13 -1.74368e-12 -3.24575e-13)
(1.27177e-13 -1.34823e-12 -2.28923e-13)
(7.83328e-14 -6.1726e-13 -1.64602e-13)
(2.27652e-13 3.70277e-13 -1.38279e-14)
(2.14883e-13 3.45541e-13 -1.16723e-14)
(1.88388e-13 -5.1082e-14 -9.60351e-15)
(1.63138e-13 -5.33558e-14 -6.73414e-15)
(1.38843e-13 -5.23312e-14 -5.14605e-15)
(1.15721e-13 -5.14644e-14 -3.00085e-15)
(9.35982e-14 -5.07198e-14 -2.06773e-15)
(7.2507e-14 -5.00991e-14 -1.39098e-15)
(5.23305e-14 -4.87243e-14 -6.64965e-16)
(3.31501e-14 -2.52415e-14 -8.28209e-16)
(5.00209e-13 3.36219e-13 -2.01995e-14)
(4.61931e-13 2.39642e-13 -1.79684e-14)
(3.95765e-13 -1.88643e-13 -1.31329e-14)
(3.34008e-13 -1.8474e-13 -1.05771e-14)
(2.76674e-13 -1.77795e-13 -8.16698e-15)
(2.23285e-13 -1.70882e-13 -5.85358e-15)
(1.73711e-13 -1.64519e-13 -4.25238e-15)
(1.27582e-13 -1.58469e-13 -3.36943e-15)
(8.46052e-14 -1.51782e-13 -3.06872e-15)
(4.51866e-14 -7.81965e-14 -2.47739e-15)
(6.19371e-13 2.7067e-13 -3.24411e-14)
(5.50895e-13 7.12506e-14 -2.87181e-14)
(4.55418e-13 -3.84212e-13 -2.30461e-14)
(3.69711e-13 -3.63416e-13 -1.87727e-14)
(2.93924e-13 -3.40398e-13 -1.45079e-14)
(2.26513e-13 -3.19225e-13 -1.13761e-14)
(1.66663e-13 -2.99553e-13 -9.31362e-15)
(1.13361e-13 -2.81751e-13 -8.30685e-15)
(6.58863e-14 -2.62877e-13 -7.28593e-15)
(2.44584e-14 -1.33467e-13 -6.40365e-15)
(8.143e-13 1.56034e-13 -5.62461e-14)
(6.97655e-13 -1.91159e-13 -4.83795e-14)
(5.59159e-13 -6.61133e-13 -3.96712e-14)
(4.40725e-13 -6.05579e-13 -3.23655e-14)
(3.40504e-13 -5.50744e-13 -2.62094e-14)
(2.55442e-13 -5.02246e-13 -2.12909e-14)
(1.83076e-13 -4.59126e-13 -1.82818e-14)
(1.21673e-13 -4.20821e-13 -1.5985e-14)
(6.93528e-14 -3.83178e-13 -1.43521e-14)
(2.54764e-14 -1.9172e-13 -1.25245e-14)
(1.08969e-12 -3.88327e-14 -9.82006e-14)
(8.9552e-13 -5.98974e-13 -8.36327e-14)
(6.93705e-13 -1.05464e-12 -6.80907e-14)
(5.29266e-13 -9.33515e-13 -5.56701e-14)
(3.96649e-13 -8.23298e-13 -4.61011e-14)
(2.89191e-13 -7.29476e-13 -3.86076e-14)
(2.01756e-13 -6.48076e-13 -3.18523e-14)
(1.30814e-13 -5.77996e-13 -2.71475e-14)
(7.29111e-14 -5.13403e-13 -2.30507e-14)
(2.66663e-14 -2.53276e-13 -2.07049e-14)
(1.48517e-12 -3.63368e-13 -1.72058e-13)
(1.16785e-12 -1.2312e-12 -1.43903e-13)
(8.70273e-13 -1.61726e-12 -1.14199e-13)
(6.40643e-13 -1.38047e-12 -9.13237e-14)
(4.64552e-13 -1.17679e-12 -7.44504e-14)
(3.28356e-13 -1.01036e-12 -6.17438e-14)
(2.22846e-13 -8.7194e-13 -5.05922e-14)
(1.40771e-13 -7.56678e-13 -4.23316e-14)
(7.68022e-14 -6.54675e-13 -3.62946e-14)
(2.79175e-14 -3.18084e-13 -3.15566e-14)
(2.06944e-12 -8.94936e-13 -3.04701e-13)
(1.54795e-12 -2.21359e-12 -2.43933e-13)
(1.10484e-12 -2.43125e-12 -1.8933e-13)
(7.82314e-13 -1.99217e-12 -1.47977e-13)
(5.47362e-13 -1.63802e-12 -1.18146e-13)
(3.74374e-13 -1.35991e-12 -9.48451e-14)
(2.46581e-13 -1.13738e-12 -7.71934e-14)
(1.51573e-13 -9.59004e-13 -6.26696e-14)
(8.09996e-14 -8.07978e-13 -5.28114e-14)
(2.92578e-14 -3.86956e-13 -4.46797e-14)
(3.0727e-12 -1.78312e-12 -5.42442e-13)
(2.09048e-12 -3.76316e-12 -4.15325e-13)
(1.42131e-12 -3.61658e-12 -3.09155e-13)
(9.64208e-13 -2.83535e-12 -2.34015e-13)
(6.4882e-13 -2.24124e-12 -1.80512e-13)
(4.28672e-13 -1.79519e-12 -1.4165e-13)
(2.7341e-13 -1.45352e-12 -1.12672e-13)
(1.63537e-13 -1.18905e-12 -8.94058e-14)
(8.52655e-14 -9.74278e-13 -7.27397e-14)
(3.05665e-14 -4.59645e-13 -6.07816e-14)
(3.16439e-10 -3.59283e-12 -9.8406e-13)
(4.80917e-12 -6.54333e-12 -7.05158e-13)
(1.85235e-12 -5.37145e-12 -5.0202e-13)
(1.19361e-12 -4.00781e-12 -3.64408e-13)
(7.69069e-13 -3.03539e-12 -2.71103e-13)
(4.88189e-13 -2.33973e-12 -2.05126e-13)
(3.00235e-13 -1.82965e-12 -1.57593e-13)
(1.73333e-13 -1.4507e-12 -1.2285e-13)
(8.68689e-14 -1.15584e-12 -9.76499e-14)
(2.90959e-14 -5.36795e-13 -7.90698e-14)
(3.60677e-07 -8.90996e-10 -3.26782e-10)
(1.21913e-09 -8.22092e-10 -2.05453e-12)
(4.57262e-12 -1.3024e-11 -8.58034e-13)
(1.17377e-12 -5.66245e-12 -5.86457e-13)
(7.77761e-13 -4.08245e-12 -4.13131e-13)
(5.21862e-13 -3.01937e-12 -2.994e-13)
(3.50923e-13 -2.27631e-12 -2.22167e-13)
(2.34756e-13 -1.74731e-12 -1.67055e-13)
(1.54835e-13 -1.35218e-12 -1.28247e-13)
(1.00087e-13 -6.18377e-13 -1.00973e-13)
(2.2832e-13 3.69739e-13 -1.61261e-14)
(2.15539e-13 3.44663e-13 -1.41142e-14)
(1.8877e-13 -5.20069e-14 -1.08108e-14)
(1.63478e-13 -5.43721e-14 -8.44682e-15)
(1.392e-13 -5.32067e-14 -6.19628e-15)
(1.1599e-13 -5.2304e-14 -4.20637e-15)
(9.38696e-14 -5.13106e-14 -2.5305e-15)
(7.27323e-14 -5.02225e-14 -2.52414e-15)
(5.25567e-14 -4.85839e-14 -6.39126e-15)
(3.33782e-14 -2.53465e-14 -1.8234e-14)
(5.01808e-13 3.35609e-13 -2.4118e-14)
(4.63375e-13 2.38226e-13 -2.04924e-14)
(3.96934e-13 -1.90239e-13 -1.63596e-14)
(3.35004e-13 -1.8576e-13 -1.27857e-14)
(2.77482e-13 -1.78779e-13 -1.02208e-14)
(2.24025e-13 -1.71894e-13 -7.46343e-15)
(1.744e-13 -1.65219e-13 -5.95759e-15)
(1.28287e-13 -1.58821e-13 -4.84154e-15)
(8.51683e-14 -1.51729e-13 -5.62536e-15)
(4.57086e-14 -7.8445e-14 -1.46084e-14)
(6.22262e-13 2.6967e-13 -3.87139e-14)
(5.53307e-13 6.93536e-14 -3.30713e-14)
(4.57507e-13 -3.86257e-13 -2.65328e-14)
(3.71495e-13 -3.65273e-13 -2.16344e-14)
(2.95333e-13 -3.41914e-13 -1.72513e-14)
(2.27795e-13 -3.20395e-13 -1.42886e-14)
(1.67801e-13 -3.00279e-13 -1.17326e-14)
(1.14475e-13 -2.82266e-13 -1.06732e-14)
(6.68682e-14 -2.63355e-13 -1.10793e-14)
(2.51912e-14 -1.33961e-13 -1.52308e-14)
(8.19291e-13 1.53896e-13 -6.59638e-14)
(7.0184e-13 -1.94542e-13 -5.60486e-14)
(5.62624e-13 -6.64344e-13 -4.58601e-14)
(4.43595e-13 -6.08431e-13 -3.74879e-14)
(3.43028e-13 -5.53172e-13 -3.11313e-14)
(2.57619e-13 -5.04124e-13 -2.6412e-14)
(1.84927e-13 -4.60404e-13 -2.27057e-14)
(1.23217e-13 -4.21752e-13 -1.97615e-14)
(7.07053e-14 -3.84295e-13 -1.84917e-14)
(2.66628e-14 -1.92511e-13 -1.96877e-14)
(1.09802e-12 -4.28827e-14 -1.15651e-13)
(9.02441e-13 -6.05015e-13 -9.67539e-14)
(6.99239e-13 -1.06028e-12 -7.83749e-14)
(5.33716e-13 -9.38095e-13 -6.43271e-14)
(4.00392e-13 -8.26964e-13 -5.36517e-14)
(2.92383e-13 -7.32709e-13 -4.57004e-14)
(2.04447e-13 -6.50753e-13 -3.90923e-14)
(1.3297e-13 -5.80119e-13 -3.37482e-14)
(7.47374e-14 -5.15097e-13 -2.94737e-14)
(2.83635e-14 -2.5448e-13 -2.91115e-14)
(1.49921e-12 -3.71415e-13 -2.04199e-13)
(1.1789e-12 -1.24237e-12 -1.66233e-13)
(8.78862e-13 -1.62751e-12 -1.32515e-13)
(6.47511e-13 -1.38871e-12 -1.07201e-13)
(4.69995e-13 -1.18316e-12 -8.76072e-14)
(3.32784e-13 -1.01565e-12 -7.37679e-14)
(2.26495e-13 -8.76488e-13 -6.12947e-14)
(1.43655e-13 -7.60373e-13 -5.19424e-14)
(7.9257e-14 -6.57462e-13 -4.51793e-14)
(2.99276e-14 -3.19952e-13 -4.10286e-14)
(2.09304e-12 -9.1128e-13 -3.60328e-13)
(1.5657e-12 -2.23495e-12 -2.82121e-13)
(1.11813e-12 -2.44923e-12 -2.19592e-13)
(7.92502e-13 -2.00629e-12 -1.73431e-13)
(5.55179e-13 -1.64918e-12 -1.3856e-13)
(3.80505e-13 -1.36893e-12 -1.13228e-13)
(2.51456e-13 -1.14491e-12 -9.23472e-14)
(1.5537e-13 -9.65013e-13 -7.62727e-14)
(8.39945e-14 -8.12619e-13 -6.46326e-14)
(3.16701e-14 -3.89922e-13 -5.6547e-14)
(3.10775e-12 -1.81584e-12 -6.40434e-13)
(2.11888e-12 -3.80361e-12 -4.79339e-13)
(1.44184e-12 -3.6492e-12 -3.59317e-13)
(9.7909e-13 -2.86005e-12 -2.73725e-13)
(6.59847e-13 -2.26006e-12 -2.12068e-13)
(4.36938e-13 -1.80979e-12 -1.68223e-13)
(2.79719e-13 -1.46555e-12 -1.35214e-13)
(1.68348e-13 -1.19878e-12 -1.07772e-13)
(8.89536e-14 -9.81648e-13 -8.87128e-14)
(3.34397e-14 -4.63995e-13 -7.48089e-14)
(3.24853e-10 -3.56598e-12 -4.73454e-13)
(4.78581e-12 -6.60636e-12 -8.06578e-13)
(1.88271e-12 -5.42973e-12 -5.86271e-13)
(1.21532e-12 -4.05045e-12 -4.27382e-13)
(7.84473e-13 -3.067e-12 -3.20275e-13)
(4.99278e-13 -2.36366e-12 -2.4449e-13)
(3.08292e-13 -1.84845e-12 -1.90629e-13)
(1.79241e-13 -1.46501e-12 -1.46957e-13)
(9.12647e-14 -1.16691e-12 -1.18516e-13)
(3.23335e-14 -5.43309e-13 -9.7143e-14)
(3.84825e-07 -7.59523e-10 9.00809e-10)
(1.23318e-09 -8.42456e-10 1.00745e-11)
(4.15654e-12 -1.29373e-11 -8.85994e-13)
(1.19657e-12 -5.72969e-12 -6.58208e-13)
(7.94153e-13 -4.13259e-12 -4.72947e-13)
(5.33352e-13 -3.05618e-12 -3.47636e-13)
(3.59179e-13 -2.30427e-12 -2.61319e-13)
(2.40894e-13 -1.76839e-12 -1.96802e-13)
(1.59239e-13 -1.36811e-12 -1.52665e-13)
(1.03457e-13 -6.27334e-13 -1.21845e-13)
(2.28932e-13 3.69469e-13 -1.53501e-14)
(2.15602e-13 3.43499e-13 -7.26216e-15)
(1.8905e-13 -5.32725e-14 -5.81631e-15)
(1.63762e-13 -5.51605e-14 -6.23187e-15)
(1.396e-13 -5.40396e-14 -9.7812e-15)
(1.16592e-13 -5.30214e-14 -1.70242e-14)
(9.47059e-14 -5.16047e-14 -2.96904e-14)
(7.43765e-14 -4.93484e-14 -1.00418e-13)
(5.58338e-14 -4.55849e-14 -3.94191e-13)
(3.6313e-14 -3.63435e-14 -1.21347e-12)
(5.03333e-13 3.34805e-13 -2.09706e-14)
(4.6402e-13 2.37002e-13 -7.68434e-15)
(3.97721e-13 -1.914e-13 -8.0279e-15)
(3.3577e-13 -1.86991e-13 -7.96589e-15)
(2.7836e-13 -1.79885e-13 -1.10645e-14)
(2.25088e-13 -1.72803e-13 -1.80481e-14)
(1.75585e-13 -1.66101e-13 -2.82857e-14)
(1.29816e-13 -1.60172e-13 -6.97858e-14)
(8.74415e-14 -1.5343e-13 -2.3503e-13)
(4.71311e-14 -9.75441e-14 -7.89242e-13)
(6.24902e-13 2.68466e-13 -3.44153e-14)
(5.54884e-13 6.75081e-14 -1.48423e-14)
(4.58936e-13 -3.87891e-13 -1.29453e-14)
(3.72895e-13 -3.66563e-13 -1.3311e-14)
(2.96874e-13 -3.43115e-13 -1.5332e-14)
(2.29516e-13 -3.21705e-13 -2.24561e-14)
(1.69615e-13 -3.01869e-13 -3.37791e-14)
(1.1632e-13 -2.83928e-13 -5.75145e-14)
(6.9202e-14 -2.67024e-13 -1.57786e-13)
(2.67918e-14 -1.54758e-13 -5.16394e-13)
(8.23936e-13 1.52198e-13 -5.95165e-14)
(7.04707e-13 -1.96793e-13 -2.95098e-14)
(5.65232e-13 -6.66648e-13 -2.55913e-14)
(4.46101e-13 -6.1026e-13 -2.49703e-14)