/*--------------------------------*- C++ -*----------------------------------*\
| =========                 |                                                 |
| \\      /  F ield         | OpenFOAM: The Open Source CFD Toolbox           |
|  \\    /   O peration     | Version:  4.1                                   |
|   \\  /    A nd           | Web:      www.OpenFOAM.org                      |
|    \\/     M anipulation  |                                                 |
\*---------------------------------------------------------------------------*/
FoamFile
{
    version     2.0;
    format      ascii;
    class       surfaceScalarField;
    location    "8.02";
    object      phi;
}
// * * * * * * * * * * * * * * * * * * * * * * * * * * * * * * * * * * * * * //

dimensions      [1 0 -1 0 0 0 0];

internalField   nonuniform List<scalar> 
150500
(
0.0168001
1.86971e-10
-3.54997e-12
0.0168001
1.0447e-09
-1.1566e-11
0.0168001
3.88099e-09
-1.36809e-11
0.0168
9.989e-09
-2.1392e-11
0.0168
2.74458e-08
-2.19004e-11
0.0167999
6.28918e-08
-2.89752e-11
0.0167998
1.63206e-07
-2.97203e-11
0.0167994
3.682e-07
-4.05424e-11
0.0167983
9.51585e-07
-4.31333e-11
0.0167962
2.17525e-06
-8.94689e-11
0.0167895
5.87113e-06
-6.07701e-11
0.0167736
1.57158e-05
-3.34369e-10
0.0167171
5.39791e-05
-3.12441e-10
0.0165428
0.000169316
-1.49242e-09
0.0155164
0.00101004
-3.08808e-09
0.0143646
0.0011522
-7.29536e-11
0.0131904
0.00117382
-2.77894e-10
0.0119391
0.00124976
-5.12615e-10
0.0106015
0.00133571
-5.30553e-10
0.00916196
0.00143784
-5.43509e-10
0.00759787
0.00156243
-5.50008e-10
0.0059001
0.00169612
-5.75199e-10
0.00407687
0.00182189
-5.94652e-10
0.00212127
0.00195395
-6.0938e-10
0.00211968
-6.18574e-10
0.0168001
3.84498e-10
-3.54026e-12
0.0168001
2.14195e-09
-1.15738e-11
0.0168001
7.96182e-09
-1.36718e-11
0.0168
2.04506e-08
-2.14e-11
0.0168
5.62658e-08
-2.19072e-11
0.0167999
1.28693e-07
-2.90039e-11
0.0167997
3.34784e-07
-2.97846e-11
0.0167994
7.51293e-07
-4.06936e-11
0.0167982
1.95952e-06
-4.33868e-11
0.016796
4.4199e-06
-9.01864e-11
0.016789
1.21529e-05
-6.1049e-11
0.0167726
3.18462e-05
-3.35152e-10
0.016713
0.000111037
-3.11626e-10
0.0165325
0.000344866
-1.48164e-09
0.0154917
0.00203431
-3.08485e-09
0.0143238
0.00232062
-5.07573e-11
0.0131613
0.00233603
-2.69389e-10
0.0119227
0.00248675
-5.07859e-10
0.0105922
0.00266438
-5.24634e-10
0.00913974
0.00288858
-5.3675e-10
0.0075568
0.00314374
-5.44426e-10
0.00583974
0.00341151
-5.7075e-10
0.00399536
0.00366492
-5.90357e-10
0.00203208
0.00391556
-6.04774e-10
0.00415015
-6.13728e-10
0.0168001
5.9431e-10
-3.52237e-12
0.0168001
3.31493e-09
-1.15863e-11
0.0168001
1.23218e-08
-1.36548e-11
0.0168
3.17028e-08
-2.14139e-11
0.0168
8.71754e-08
-2.19146e-11
0.0167999
1.99788e-07
-2.90417e-11
0.0167997
5.18596e-07
-2.98629e-11
0.0167993
1.16913e-06
-4.07587e-11
0.0167981
3.02868e-06
-4.37786e-11
0.0167957
6.82741e-06
-8.97648e-11
0.0167884
1.86905e-05
-6.17815e-11
0.016772
4.80163e-05
-3.31507e-10
0.0167124
0.000168062
-3.15055e-10
0.0165358
0.000516642
-1.47284e-09
0.0155125
0.00304071
-3.13553e-09
0.0143334
0.00350054
-1.82141e-11
0.0131765
0.00349265
-2.58006e-10
0.0119502
0.00371135
-4.9793e-10
0.0106313
0.00398149
-5.10367e-10
0.00918376
0.00433443
-5.19314e-10
0.00759805
0.00472782
-5.31484e-10
0.00587575
0.00513225
-5.59209e-10
0.00400965
0.00552974
-5.80185e-10
0.00203407
0.00588949
-5.94742e-10
0.00618262
-6.05709e-10
0.0168001
8.39489e-10
-3.4967e-12
0.0168001
4.63046e-09
-1.16112e-11
0.0168
1.72408e-08
-1.36522e-11
0.0168
4.42799e-08
-2.14911e-11
0.0168
1.22369e-07
-2.20973e-11
0.0167999
2.82302e-07
-2.95341e-11
0.0167997
7.24624e-07
-3.08446e-11
0.0167991
1.71478e-06
-4.5471e-11
0.016798
3.99704e-06
-4.17541e-11
0.0167946
1.01874e-05
-1.26655e-10
0.0167885
2.41026e-05
-1.85036e-11
0.0167714
6.47346e-05
-3.74135e-10
0.0167155
0.000221431
-2.50916e-10
0.0165489
0.000678491
-1.44307e-09
0.0155714
0.00400073
-3.13021e-09
0.0143854
0.0046877
4.40278e-11
0.0132352
0.00464271
-2.56532e-10
0.0120276
0.00491736
-4.98805e-10
0.01073
0.00527737
-5.01542e-10
0.00930384
0.00575914
-4.96675e-10
0.00772552
0.00630393
-5.13714e-10
0.00600209
0.00685392
-5.42941e-10
0.00412775
0.00740276
-5.65161e-10
0.0020969
0.00791872
-5.80032e-10
0.00827793
-5.94745e-10
0.0168001
9.6118e-10
-3.44786e-12
0.0168001
5.30916e-09
-1.16344e-11
0.0168001
1.97754e-08
-1.35529e-11
0.0168
5.07532e-08
-2.15415e-11
0.0168
1.40311e-07
-2.17209e-11
0.0168
3.22554e-07
-2.91863e-11
0.0167998
8.39071e-07
-2.97995e-11
0.0167996
1.91871e-06
-4.0781e-11
0.0167986
4.88499e-06
-4.44791e-11
0.0167977
1.11098e-05
-8.13502e-11
0.0167891
3.1925e-05
-1.07796e-10
0.0167751
7.85513e-05
-2.71086e-10
0.0167279
0.000266085
-3.71226e-10
0.0165604
0.000840893
-1.49007e-09
0.0156702
0.00487275
-3.27428e-09
0.0144683
0.00589128
2.01029e-10
0.0133219
0.00578885
-1.69142e-10
0.0121402
0.00609763
-4.62164e-10
0.0108748
0.00654053
-4.68943e-10
0.00948633
0.00714681
-4.69456e-10
0.0079433
0.0078464
-4.84563e-10
0.00621942
0.0085764
-5.13222e-10
0.00431272
0.00930806
-5.38392e-10
0.0022303
0.00999945
-5.56089e-10
0.0105066
-5.76752e-10
0.0168001
9.98075e-10
-3.4016e-12
0.0168001
5.5056e-09
-1.16493e-11
0.0168001
2.05508e-08
-1.34842e-11
0.0168001
5.24941e-08
-2.17102e-11
0.0168
1.45556e-07
-2.14378e-11
0.0168
3.31473e-07
-2.93719e-11
0.0168
8.81605e-07
-2.96718e-11
0.0168
1.92268e-06
-4.12001e-11
0.0167993
5.40916e-06
-4.43516e-11
0.0167991
1.13528e-05
-8.29537e-11
0.0167938
3.64328e-05
-1.1095e-10
0.016788
8.40713e-05
-2.70385e-10
0.0167108
0.000340747
-3.83762e-10
0.0165682
0.000978435
-1.49786e-09
0.015777
0.0056451
-3.40901e-09
0.0145439
0.00712648
3.46968e-10
0.0134151
0.00691785
-8.99821e-11
0.0122737
0.00723731
-4.31645e-10
0.0110654
0.00774729
-4.3507e-10
0.00972237
0.00848627
-4.26867e-10
0.00822342
0.00934394
-4.35854e-10
0.00653516
0.0102631
-4.7163e-10
0.00460882
0.0112334
-5.02088e-10
0.00241329
0.0121938
-5.2246e-10
0.0129183
-5.50409e-10
0.0168001
9.88356e-10
-3.36131e-12
0.0168001
5.50026e-09
-1.16437e-11
0.0168001
2.05465e-08
-1.34983e-11
0.0168001
5.24935e-08
-2.15953e-11
0.0168001
1.45066e-07
-2.15093e-11
0.0168001
3.27281e-07
-2.91401e-11
0.0168
8.92017e-07
-2.94639e-11
0.0168002
1.78935e-06
-4.00545e-11
0.0167994
5.99642e-06
-4.39676e-11
0.0168008
1.00217e-05
-7.70596e-11
0.0167925
4.39813e-05
-1.08464e-10
0.01679
8.62932e-05
-2.49189e-10
0.0167303
0.000397975
-4.19883e-10
0.0166198
0.00108501
-1.45914e-09
0.016119
0.00612566
-3.58269e-09
0.0148058
0.00844286
3.83474e-10
0.0136379
0.0080866
-5.49371e-11
0.0125076
0.00836664
-4.18805e-10
0.0113495
0.00890552
-4.21472e-10
0.0100858
0.00974953
-4.03321e-10
0.00863637
0.010792
-3.94259e-10
0.0069734
0.0119245
-4.23605e-10
0.00503794
0.0131673
-4.53059e-10
0.00273959
0.0144906
-4.74517e-10
0.0156563
-5.07455e-10
0.0168001
1.16513e-09
-3.34073e-12
0.0168001
6.44673e-09
-1.16043e-11
0.0168001
2.39677e-08
-1.36127e-11
0.0168
6.13698e-08
-2.13973e-11
0.0168
1.69227e-07
-2.19159e-11
0.0168
3.85531e-07
-2.91371e-11
0.0167998
1.02332e-06
-3.01136e-11
0.0167994
2.19351e-06
-4.29229e-11
0.0167987
6.54045e-06
-4.1086e-11
0.0167972
1.15562e-05
-1.13053e-10
0.0167929
4.75334e-05
-3.12071e-11
0.0167875
9.17666e-05
-3.34242e-10
0.01677
0.000412909
-2.67049e-10
0.0167394
0.00111231
-1.35596e-09
0.0168135
0.00603021
-3.44082e-09
0.0154015
0.00985813
3.1087e-10
0.0141088
0.00938063
-1.16946e-10
0.0129424
0.00953184
-4.08038e-10
0.0118038
0.0100415
-4.05338e-10
0.0105844
0.010968
-3.7904e-10
0.00921342
0.0121619
-3.63736e-10
0.00760536
0.0135313
-3.83866e-10
0.00568112
0.0150904
-4.05447e-10
0.00325256
0.0169177
-4.22636e-10
0.0189073
-4.52744e-10
0.0168001
1.53424e-09
-3.30031e-12
0.0168001
6.88318e-09
-1.15967e-11
0.0168001
2.72484e-08
-1.35889e-11
0.0168
6.75469e-08
-2.13214e-11
0.0168
1.90165e-07
-2.1668e-11
0.0168
4.25908e-07
-2.85312e-11
0.0167999
1.13838e-06
-2.87106e-11
0.0167996
2.45708e-06
-3.71244e-11
0.0167992
6.85647e-06
-4.18377e-11
0.0167971
1.35776e-05
-6.27118e-11
0.0167974
4.66173e-05
-8.53185e-11
0.0168021
8.68677e-05
-2.16195e-10
0.0168254
0.000387178
-3.61891e-10
0.0169371
0.000996908
-1.19523e-09
0.0179488
0.00499855
-3.30636e-09
0.0164093
0.0114001
-1.04918e-10
0.0148381
0.0109531
-2.58066e-10
0.0136434
0.0107264
-3.70816e-10
0.0125237
0.0111605
-3.66139e-10
0.0113371
0.0121532
-3.4775e-10
0.0100093
0.0134886
-3.3905e-10
0.00853739
0.0150021
-3.49153e-10
0.006749
0.0168775
-3.5632e-10
0.00422192
0.0194433
-3.6437e-10
0.0231274
-3.83746e-10
0.0168001
-3.34583e-12
2.78658e-09
0.0168001
-1.15211e-11
2.70603e-09
0.0168
-1.37551e-11
3.85198e-08
0.0168001
-2.13842e-11
3.70183e-08
0.0168
-2.17736e-11
2.58206e-07
0.0168002
-2.85369e-11
2.45205e-07
0.0167998
-2.85141e-11
1.55644e-06
0.0168008
-3.65854e-11
1.37518e-06
0.0167979
-4.01838e-11
9.70991e-06
0.0168051
-5.98232e-11
6.31127e-06
0.0167829
-7.10275e-11
6.83788e-05
0.016838
-2.11255e-10
3.14258e-05
0.0167374
-2.31803e-10
0.000485646
0.0171004
-8.50966e-10
0.000634012
0.0182843
-1.83707e-09
0.0037997
0.0172417
-1.39987e-09
0.0124342
0.0155468
-5.96482e-10
0.0126459
0.0144965
-3.63471e-10
0.0117761
0.0133488
-3.33221e-10
0.0123077
0.0122915
-3.27321e-10
0.0132097
0.0111485
-3.19457e-10
0.0146307
0.00988457
-3.19016e-10
0.0162649
0.0082372
-3.18401e-10
0.0185238
0.00583081
-3.09335e-10
0.0218484
-3.11782e-10
0.0289564
0.0168001
1.91803e-10
-6.2017e-16
0.0168001
1.04495e-09
-3.23956e-15
0.0168
3.88721e-09
-7.59748e-15
0.0168
9.99027e-09
-1.59326e-14
0.0168
2.74445e-08
-3.31556e-14
0.0167999
6.28765e-08
-6.33897e-14
0.0167998
1.6316e-07
-1.47697e-13
0.0167994
3.68086e-07
-2.89582e-13
0.0167983
9.5137e-07
-7.68452e-13
0.0167962
2.17469e-06
-1.56433e-12
0.0167895
5.87064e-06
-4.34757e-12
0.0167736
1.57151e-05
-1.16506e-11
0.0167171
5.39789e-05
-3.19517e-11
0.0165428
0.000169324
-1.00281e-10
0.0155164
0.00101004
-2.58107e-10
0.0143646
0.00115217
5.29898e-12
0.0131905
0.0011738
-9.61147e-12
0.0119391
0.00124975
-2.95097e-11
0.0106016
0.0013357
-3.08955e-11
0.00916201
0.00143785
-3.08363e-11
0.00759791
0.00156245
-2.87863e-11
0.00590013
0.00169614
-2.83151e-11
0.00407688
0.00182191
-2.85455e-11
0.00212126
0.00195396
-2.89649e-11
0.00211967
-2.93066e-11
0.0168001
3.93433e-10
-6.22798e-16
0.0168001
2.14343e-09
-3.251e-15
0.0168
7.97292e-09
-7.63634e-15
0.0168
2.04504e-08
-1.60181e-14
0.0168
5.62551e-08
-3.33842e-14
0.0167999
1.28639e-07
-6.38663e-14
0.0167997
3.34634e-07
-1.48852e-13
0.0167994
7.50974e-07
-2.92094e-13
0.0167982
1.95847e-06
-7.73407e-13
0.016796
4.41912e-06
-1.57645e-12
0.016789
1.21481e-05
-4.36598e-12
0.0167726
3.18464e-05
-1.16532e-11
0.016713
0.000111033
-3.20275e-11
0.0165325
0.000344882
-1.00091e-10
0.0154917
0.0020343
-2.58974e-10
0.0143239
0.00232055
6.99675e-12
0.0131614
0.00233599
-9.03183e-12
0.0119227
0.00248673
-2.93882e-11
0.0105923
0.00266437
-3.0621e-11
0.0091398
0.0028886
-3.04083e-11
0.00755686
0.00314376
-2.84013e-11
0.00583978
0.00341155
-2.80578e-11
0.00399537
0.00366495
-2.83207e-11
0.00203207
0.00391558
-2.87638e-11
0.00415014
-2.91141e-11
0.0168001
6.074e-10
-6.28262e-16
0.0168001
3.31558e-09
-3.27563e-15
0.0168
1.23302e-08
-7.71331e-15
0.0168
3.16834e-08
-1.61831e-14
0.0168
8.70888e-08
-3.37879e-14
0.0167999
1.99551e-07
-6.46432e-14
0.0167997
5.18046e-07
-1.5066e-13
0.0167993
1.16687e-06
-2.94537e-13
0.0167981
3.02888e-06
-7.82061e-13
0.0167957
6.81107e-06
-1.5791e-12
0.0167884
1.87093e-05
-4.40486e-12
0.016772
4.79941e-05
-1.1588e-11
0.0167124
0.000168092
-3.22493e-11
0.0165358
0.00051666
-9.99116e-11
0.0155124
0.00304073
-2.62446e-10
0.0143334
0.00350042
1.12456e-11
0.0131765
0.00349257
-7.80059e-12
0.0119503
0.00371132
-2.91579e-11
0.0106314
0.00398148
-3.01484e-11
0.00918381
0.00433445
-2.96332e-11
0.00759809
0.00472785
-2.78901e-11
0.00587577
0.0051323
-2.7684e-11
0.00400966
0.0055298
-2.79695e-11
0.00203407
0.00588953
-2.83976e-11
0.00618261
-2.87407e-11
0.0168001
8.63261e-10
-6.56999e-16
0.0168001
4.63772e-09
-3.38798e-15
0.0168
1.73004e-08
-8.13587e-15
0.0168
4.42935e-08
-1.71545e-14
0.0168
1.22556e-07
-3.66305e-14
0.0167999
2.8255e-07
-7.14625e-14
0.0167997
7.25215e-07
-1.6448e-13
0.0167991
1.71698e-06
-3.58312e-13
0.016798
3.99649e-06
-7.58122e-13
0.0167946
1.0206e-05
-2.07037e-12
0.0167885
2.40694e-05
-3.3004e-12
0.0167714
6.47731e-05
-1.19695e-11
0.0167155
0.000221367
-3.18235e-11
0.016549
0.000678449
-9.97511e-11
0.0155717
0.00400057
-2.67638e-10
0.0143858
0.00468752
1.26931e-11
0.0132355
0.00464268
-6.46998e-12
0.0120279
0.00491736
-2.88233e-11
0.0107302
0.00527738
-2.95436e-11
0.00930404
0.00575918
-2.83579e-11
0.00772566
0.00630401
-2.68445e-11
0.00600219
0.00685402
-2.68947e-11
0.0041278
0.00740285
-2.73541e-11
0.00209692
0.00791879
-2.78406e-11
0.00827793
-2.8223e-11
0.0168001
9.84268e-10
-6.40813e-16
0.0168001
5.32184e-09
-3.30471e-15
0.0168001
1.98268e-08
-7.84999e-15
0.0168
5.07162e-08
-1.67121e-14
0.0168
1.40471e-07
-3.46508e-14
0.0168
3.22587e-07
-6.74738e-14
0.0167998
8.39298e-07
-1.56175e-13
0.0167996
1.91893e-06
-3.1487e-13
0.0167986
4.88598e-06
-7.92375e-13
0.0167977
1.11103e-05
-1.64311e-12
0.0167891
3.19293e-05
-4.79428e-12
0.0167751
7.85523e-05
-1.15505e-11
0.0167279
0.000266078
-2.99948e-11
0.0165603
0.000840886
-1.02544e-10
0.01567
0.00487267
-2.72883e-10
0.0144682
0.00589095
2.18065e-11
0.013322
0.00578872
-5.19168e-12
0.0121403
0.00609757
-2.83035e-11
0.0108749
0.00654053
-2.87967e-11
0.00948649
0.00714684
-2.7914e-11
0.00794346
0.00784648
-2.6208e-11
0.00621955
0.00857652
-2.62453e-11
0.0043128
0.00930819
-2.6673e-11
0.00223035
0.00999956
-2.71211e-11
0.0105066
-2.76302e-11
0.0168001
1.01802e-09
-6.32258e-16
0.0168001
5.5247e-09
-3.25605e-15
0.0168001
2.05644e-08
-7.72635e-15
0.0168001
5.25651e-08
-1.6455e-14
0.0168
1.45559e-07
-3.4084e-14
0.0168
3.31598e-07
-6.64089e-14
0.0168
8.81745e-07
-1.54179e-13
0.0168
1.92319e-06
-3.12068e-13
0.0167993
5.40932e-06
-7.88909e-13
0.0167991
1.13546e-05
-1.6332e-12
0.0167938
3.64344e-05
-4.86522e-12
0.016788
8.40852e-05
-1.13604e-11
0.0167108
0.00034074
-3.08781e-11
0.0165681
0.0009785
-1.02344e-10
0.0157766
0.00564525
-2.79463e-10
0.0145437
0.00712606
2.99813e-11
0.0134149
0.0069176
-2.38685e-12
0.0122737
0.00723716
-2.70739e-11
0.0110654
0.0077472
-2.68106e-11
0.00972246
0.00848628
-2.53468e-11
0.00822353
0.00934401
-2.40246e-11
0.00653526
0.0102633
-2.50983e-11
0.00460891
0.0112336
-2.59254e-11
0.00241334
0.012194
-2.63979e-11
0.0129184
-2.70322e-11
0.0168001
9.99843e-10
-5.95976e-16
0.0168001
5.5313e-09
-3.10007e-15
0.0168001
2.0519e-08
-7.19645e-15
0.0168001
5.25885e-08
-1.52934e-14
0.0168001
1.44948e-07
-3.07471e-14
0.0168001
3.27305e-07
-5.8819e-14
0.0168
8.91844e-07
-1.38361e-13
0.0168002
1.78859e-06
-2.51631e-13
0.0167994
5.99814e-06
-7.79038e-13
0.0168008
1.00099e-05
-1.28601e-12
0.0167925
4.40188e-05
-4.9498e-12
0.01679
8.62624e-05
-9.20062e-12
0.0167302
0.000398085
-3.8663e-11
0.0166196
0.00108514
-9.92872e-11
0.0161183
0.00612627
-2.92063e-10
0.0148053
0.00844233
3.68722e-11
0.0136375
0.00808619
3.39348e-12
0.0125074
0.00836637
-2.55428e-11
0.0113493
0.00890533
-2.57008e-11
0.0100858
0.00974943
-2.43863e-11
0.00863641
0.010792
-2.24832e-11
0.00697347
0.0119246
-2.33782e-11
0.005038
0.0131675
-2.43582e-11
0.00273964
0.0144907
-2.50842e-11
0.0156564
-2.60535e-11
0.0168001
1.18486e-09
-5.54974e-16
0.0168001
6.45681e-09
-2.94803e-15
0.0168001
2.39975e-08
-6.66146e-15
0.0168
6.14019e-08
-1.38309e-14
0.0168
1.69368e-07
-2.73782e-14
0.0168
3.85852e-07
-5.033e-14
0.0167998
1.02417e-06
-1.20646e-13
0.0167994
2.19672e-06
-1.78858e-13
0.0167987
6.54171e-06
-7.95134e-13
0.0167972
1.15807e-05
-6.23183e-13
0.0167929
4.75201e-05
-6.05088e-12
0.0167874
9.18312e-05
-7.426e-12
0.01677
0.000412887
-4.02541e-11
0.0167394
0.00111249
-9.65859e-11
0.0168132
0.00603116
-2.96587e-10
0.0154011
0.0098576
3.89533e-11
0.0141085
0.00938012
8.5896e-12
0.0129422
0.00953151
-2.17009e-11
0.0118037
0.0100414
-2.29861e-11
0.0105843
0.0109678
-2.27108e-11
0.00921337
0.0121618
-2.09344e-11
0.00760536
0.0135313
-2.18191e-11
0.00568115
0.0150905
-2.2968e-11
0.00325258
0.0169179
-2.39996e-11
0.0189074
-2.50746e-11
0.0168001
1.49845e-09
-5.68744e-16
0.0168001
6.99642e-09
-2.98993e-15
0.0168001
2.70915e-08
-6.86231e-15
0.0168
6.74369e-08
-1.43337e-14
0.0168
1.89955e-07
-2.88908e-14
0.0168
4.25851e-07
-5.46751e-14
0.0167999
1.13849e-06
-1.25502e-13
0.0167996
2.45805e-06
-2.39256e-13
0.0167992
6.85822e-06
-6.77218e-13
0.0167971
1.35853e-05
-1.20233e-12
0.0167974
4.66271e-05
-4.80074e-12
0.0168021
8.68949e-05
-7.10858e-12
0.0168253
0.000387259
-3.62623e-11
0.0169369
0.000997168
-8.84016e-11
0.0179477
0.00500039
-2.89698e-10
0.0164084
0.0113993
8.43777e-12
0.0148377
0.0109522
-3.75803e-12
0.013643
0.0107259
-2.04424e-11
0.0125235
0.0111602
-2.15379e-11
0.011337
0.012153
-2.16142e-11
0.0100092
0.0134885
-1.98728e-11
0.00853733
0.0150021
-2.04845e-11
0.00674899
0.0168776
-2.1221e-11
0.00422193
0.0194434
-2.25907e-11
0.0231276
-2.41341e-11
0.0168001
-5.49619e-16
2.65865e-09
0.0168001
-2.90219e-15
3.08195e-09
0.0168
-6.56304e-15
3.73464e-08
0.0168001
-1.36492e-14
3.74871e-08
0.0168
-2.68365e-14
2.56949e-07
0.0168002
-5.03276e-14
2.45842e-07
0.0167998
-1.12312e-13
1.55544e-06
0.0168008
-2.15323e-13
1.37628e-06
0.0167979
-5.70482e-13
9.70991e-06
0.0168051
-1.13312e-12
6.31537e-06
0.0167829
-3.20892e-12
6.83793e-05
0.016838
-7.83841e-12
3.14572e-05
0.0167375
-2.1676e-11
0.000485655
0.0171005
-5.74464e-11
0.000634249
0.0182857
-1.55746e-10
0.00380021
0.0172422
-1.06018e-10
0.0124343
0.0155468
-3.87752e-11
0.0126456
0.0144964
-2.51134e-11
0.0117758
0.0133486
-2.29472e-11
0.0123074
0.0122913
-2.21247e-11
0.0132095
0.0111484
-2.03602e-11
0.0146305
0.00988448
-2.03645e-11
0.0162649
0.00823715
-2.08956e-11
0.0185238
0.00583079
-2.21461e-11
0.0218485
-2.49718e-11
0.0289565
0.0168001
1.91802e-10
1.74637e-16
0.0168001
1.04494e-09
-2.39388e-17
0.0168
3.88718e-09
-3.21816e-16
0.0168
9.9902e-09
-6.9564e-16
0.0168
2.74443e-08
-1.98898e-15
0.0167999
6.28761e-08
-4.07292e-15
0.0167998
1.63159e-07
-1.15492e-14
0.0167994
3.68084e-07
-2.36544e-14
0.0167983
9.51365e-07
-6.77883e-14
0.0167962
2.17468e-06
-1.40493e-13
0.0167895
5.87062e-06
-4.02904e-13
0.0167736
1.57151e-05
-1.08671e-12
0.0167171
5.39789e-05
-3.02946e-12
0.0165428
0.000169324
-9.54446e-12
0.0155164
0.00101004
-2.47781e-11
0.0143646
0.00115217
2.64533e-13
0.0131905
0.0011738
-1.06774e-12
0.0119391
0.00124975
-2.90957e-12
0.0106016
0.0013357
-3.03703e-12
0.00916202
0.00143785
-3.01427e-12
0.00759792
0.00156245
-2.77308e-12
0.00590013
0.00169614
-2.68705e-12
0.00407688
0.00182191
-2.68183e-12
0.00212126
0.00195396
-2.70415e-12
0.00211968
-2.71632e-12
0.0168001
3.9343e-10
1.74684e-16
0.0168001
2.14342e-09
5.3956e-18
0.0168
7.97286e-09
-3.2556e-16
0.0168
2.04502e-08
-7.03845e-16
0.0168
5.62546e-08
-2.01064e-15
0.0167999
1.28638e-07
-4.11812e-15
0.0167997
3.34631e-07
-1.16594e-14
0.0167994
7.50968e-07
-2.38946e-14
0.0167982
1.95846e-06
-6.82723e-14
0.016796
4.4191e-06
-1.41668e-13
0.016789
1.2148e-05
-4.04804e-13
0.0167726
3.18464e-05
-1.08733e-12
0.016713
0.000111033
-3.03791e-12
0.0165325
0.000344883
-9.53e-12
0.0154917
0.0020343
-2.4869e-11
0.0143239
0.00232054
4.25003e-13
0.0131614
0.00233599
-1.01145e-12
0.0119228
0.00248673
-2.89863e-12
0.0105923
0.00266437
-3.01295e-12
0.00913981
0.0028886
-2.97747e-12
0.00755686
0.00314377
-2.74044e-12
0.00583978
0.00341155
-2.6662e-12
0.00399538
0.00366496
-2.66409e-12
0.00203208
0.00391559
-2.68812e-12
0.00415014
-2.70037e-12
0.0168001
6.07387e-10
1.74838e-16
0.0168001
3.31553e-09
7.21757e-18
0.0168
1.233e-08
-3.32977e-16
0.0168
3.16828e-08
-7.19691e-16
0.0168
8.70872e-08
-2.04916e-15
0.0167999
1.99547e-07
-4.19172e-15
0.0167997
5.18037e-07
-1.18328e-14
0.0167993
1.16683e-06
-2.41255e-14
0.0167981
3.02888e-06
-6.91345e-14
0.0167957
6.81084e-06
-1.41917e-13
0.0167884
1.87095e-05
-4.08925e-13
0.016772
4.79939e-05
-1.08175e-12
0.0167124
0.000168092
-3.06184e-12
0.0165358
0.000516662
-9.52052e-12
0.0155124
0.00304073
-2.52184e-11
0.0143334
0.00350041
7.66488e-13
0.0131765
0.00349257
-8.9296e-13
0.0119503
0.00371132
-2.88006e-12
0.0106314
0.00398148
-2.9739e-12
0.00918381
0.00433445
-2.91534e-12
0.00759809
0.00472785
-2.70024e-12
0.00587578
0.0051323
-2.64103e-12
0.00400966
0.0055298
-2.64262e-12
0.00203407
0.00588953
-2.66693e-12
0.00618261
-2.67884e-12
0.0168001
8.63268e-10
1.75327e-16
0.0168001
4.63775e-09
-7.28008e-17
0.0168
1.73006e-08
-3.73216e-16
0.0168
4.42937e-08
-8.12412e-16
0.0168
1.22557e-07
-2.31959e-15
0.0167999
2.82552e-07
-4.8441e-15
0.0167997
7.25219e-07
-1.31509e-14
0.0167991
1.717e-06
-3.02518e-14
0.016798
3.99647e-06
-6.67966e-14
0.0167946
1.02062e-05
-1.89312e-13
0.0167885
2.4069e-05
-3.59267e-13
0.0167714
6.47732e-05
-1.12082e-12
0.0167155
0.000221368
-3.02308e-12
0.016549
0.00067845
-9.5169e-12
0.0155717
0.00400058
-2.57421e-11
0.0143858
0.00468751
1.23832e-12
0.0132355
0.00464268
-7.63332e-13
0.0120279
0.00491736
-2.85598e-12
0.0107302
0.00527739
-2.92654e-12
0.00930404
0.00575919
-2.81557e-12
0.00772567
0.00630402
-2.62259e-12
0.00600219
0.00685402
-2.59011e-12
0.0041278
0.00740286
-2.60862e-12
0.00209692
0.0079188
-2.64053e-12
0.00827794
-2.65632e-12
0.0168001
9.84273e-10
1.75206e-16
0.0168001
5.32187e-09
-4.80175e-17
0.0168001
1.98269e-08
-3.49261e-16
0.0168
5.07166e-08
-7.55507e-16
0.0168
1.40472e-07
-2.15502e-15
0.0168
3.22589e-07
-4.43954e-15
0.0167998
8.39302e-07
-1.2363e-14
0.0167996
1.91894e-06
-2.60048e-14
0.0167986
4.886e-06
-7.02172e-14
0.0167977
1.11104e-05
-1.47992e-13
0.0167891
3.19294e-05
-4.46279e-13
0.0167751
7.85526e-05
-1.08041e-12
0.0167279
0.000266078
-2.85853e-12
0.0165603
0.000840888
-9.79091e-12
0.01567
0.00487268
-2.62833e-11
0.0144682
0.00589094
1.81927e-12
0.013322
0.00578871
-6.35972e-13
0.0121403
0.00609757
-2.81707e-12
0.0108749
0.00654053
-2.87124e-12
0.0094865
0.00714685
-2.78875e-12
0.00794346
0.00784649
-2.58743e-12
0.00621956
0.00857653
-2.55689e-12
0.00431281
0.0093082
-2.57863e-12
0.00223035
0.00999957
-2.61234e-12
0.0105066
-2.63798e-12
0.0168001
1.01803e-09
1.74967e-16
0.0168001
5.52479e-09
6.74154e-18
0.0168001
2.05647e-08
-3.39128e-16
0.0168001
5.25659e-08
-7.33164e-16
0.0168
1.45562e-07
-2.10668e-15
0.0168
3.31604e-07
-4.34634e-15
0.0168
8.81758e-07
-1.21908e-14
0.0168
1.92324e-06
-2.57723e-14
0.0167993
5.40936e-06
-6.99967e-14
0.0167991
1.13548e-05
-1.47258e-13
0.0167938
3.64345e-05
-4.53676e-13
0.016788
8.40864e-05
-1.06402e-12
0.0167108
0.000340736
-2.94715e-12
0.0165681
0.000978502
-9.78437e-12
0.0157766
0.00564527
-2.69522e-11
0.0145437
0.00712604
2.58623e-12
0.013415
0.0069176
-3.57493e-13
0.0122737
0.00723716
-2.71446e-12
0.0110655
0.0077472
-2.71184e-12
0.00972247
0.00848629
-2.58939e-12
0.00822354
0.00934401
-2.42972e-12
0.00653527
0.0102633
-2.48801e-12
0.00460891
0.0112336
-2.55131e-12
0.00241334
0.012194
-2.59489e-12
0.0129184
-2.63338e-12
0.0168001
9.99862e-10
1.73767e-16
0.0168001
5.53139e-09
1.10131e-17
0.0168001
2.05193e-08
-2.91299e-16
0.0168001
5.25894e-08
-6.29e-16
0.0168001
1.44951e-07
-1.80297e-15
0.0168001
3.27311e-07
-3.65357e-15
0.0168
8.91857e-07
-1.0748e-14
0.0168002
1.78863e-06
-2.01836e-14
0.0167994
5.99817e-06
-6.92218e-14
0.0168008
1.00102e-05
-1.14973e-13
0.0167925
4.40184e-05
-4.62268e-13
0.01679
8.62635e-05
-8.61888e-13
0.0167302
0.000398086
-3.68343e-12
0.0166196
0.00108514
-9.50245e-12
0.0161183
0.00612631
-2.81674e-11
0.0148053
0.0084423
3.22651e-12
0.0136375
0.00808618
1.7081e-13
0.0125074
0.00836637
-2.59527e-12
0.0113493
0.00890533
-2.6377e-12
0.0100858
0.00974943
-2.54005e-12
0.00863641
0.010792
-2.33304e-12
0.00697348
0.0119246
-2.38755e-12
0.005038
0.0131675
-2.47669e-12
0.00273964
0.0144907
-2.55438e-12
0.0156564
-2.62618e-12
0.0168001
1.18486e-09
1.71641e-16
0.0168001
6.45679e-09
5.31877e-17
0.0168001
2.39975e-08
-2.42211e-16
0.0168
6.14017e-08
-5.16949e-16
0.0168
1.69367e-07
-1.48743e-15
0.0168
3.8585e-07
-2.93369e-15
0.0167998
1.02417e-06
-9.1966e-15
0.0167994
2.19669e-06
-1.37833e-14
0.0167987
6.54177e-06
-7.07918e-14
0.0167972
1.15804e-05
-5.54588e-14
0.0167929
4.75208e-05
-5.63526e-13
0.0167874
9.18318e-05
-7.00291e-13
0.01677
0.000412891
-3.82639e-12
0.0167394
0.0011125
-9.2459e-12
0.0168131
0.00603125
-2.85818e-11
0.0154011
0.00985756
3.40017e-12
0.0141085
0.00938009
6.33295e-13
0.0129422
0.00953149
-2.27893e-12
0.0118037
0.0100414
-2.4273e-12
0.0105843
0.0109678
-2.43852e-12
0.00921337
0.0121619
-2.2473e-12
0.00760536
0.0135314
-2.31898e-12
0.00568115
0.0150905
-2.43436e-12
0.00325259
0.0169179
-2.56221e-12
0.0189074
-2.66547e-12
0.0168001
1.49846e-09
1.72351e-16
0.0168001
6.99649e-09
4.1281e-17
0.0168001
2.70917e-08
-2.60329e-16
0.0168
6.74374e-08
-5.62216e-16
0.0168
1.89956e-07
-1.62399e-15
0.0168
4.25855e-07
-3.32171e-15
0.0167999
1.1385e-06
-9.64034e-15
0.0167996
2.45807e-06
-1.91652e-14
0.0167992
6.8583e-06
-6.01638e-14
0.0167971
1.35853e-05
-1.07897e-13
0.0167974
4.6628e-05
-4.49558e-13
0.0168021
8.68955e-05
-6.65375e-13
0.0168253
0.000387268
-3.45365e-12
0.0169369
0.000997192
-8.4576e-12
0.0179476
0.00500057
-2.7882e-11
0.0164084
0.0113993
4.59448e-13
0.0148376
0.0109521
-5.81575e-13
0.013643
0.0107259
-2.19847e-12
0.0125235
0.0111602
-2.33375e-12
0.011337
0.012153
-2.38828e-12
0.0100092
0.0134885
-2.22185e-12
0.00853733
0.0150021
-2.29683e-12
0.00674899
0.0168776
-2.39309e-12
0.00422193
0.0194434
-2.59276e-12
0.0231276
-2.80619e-12
0.0168001
1.71913e-16
2.65864e-09
0.0168001
6.69173e-17
3.08207e-09
0.0168
-2.28659e-16
3.73466e-08
0.0168001
-4.9273e-16
3.7488e-08
0.0168
-1.42405e-15
2.56951e-07
0.0168002
-2.90661e-15
2.45847e-07
0.0167998
-8.39712e-15
1.55546e-06
0.0168008
-1.69252e-14
1.3763e-06
0.0167979
-5.0106e-14
9.71006e-06
0.0168051
-1.01479e-13
6.31547e-06
0.0167829
-2.98761e-13
6.83803e-05
0.016838
-7.33437e-13
3.14579e-05
0.0167375
-2.06574e-12
0.000485662
0.0171005
-5.49195e-12
0.000634267
0.0182858
-1.50157e-11
0.00380027
0.0172423
-1.05074e-11
0.0124344
0.0155468
-3.98119e-12
0.0126456
0.0144964
-2.68048e-12
0.0117758
0.0133486
-2.53215e-12
0.0123073
0.0122913
-2.47928e-12
0.0132095
0.0111483
-2.34882e-12
0.0146305
0.00988448
-2.38473e-12
0.0162649
0.00823714
-2.51993e-12
0.0185239
0.00583079
-2.79015e-12
0.0218485
-3.292e-12
0.0289566
0.0168001
1.91802e-10
-6.88765e-17
0.0168001
1.04494e-09
-2.66089e-16
0.0168
3.88718e-09
-7.75061e-16
0.0168
9.99019e-09
-1.57073e-15
0.0168
2.74443e-08
-4.23673e-15
0.0167999
6.2876e-08
-8.50832e-15
0.0167998
1.63159e-07
-2.36729e-14
0.0167994
3.68083e-07
-4.83134e-14
0.0167983
9.51365e-07
-1.3693e-13
0.0167962
2.17468e-06
-2.84642e-13
0.0167895
5.87062e-06
-8.04327e-13
0.0167736
1.57151e-05
-2.19316e-12
0.0167171
5.39789e-05
-6.02999e-12
0.0165428
0.000169325
-1.91814e-11
0.0155164
0.00101004
-5.0627e-11
0.0143646
0.00115217
1.98792e-12
0.0131905
0.0011738
-7.98106e-13
0.0119391
0.00124975
-4.71111e-12
0.0106016
0.0013357
-4.92429e-12
0.00916202
0.00143785
-4.74839e-12
0.00759792
0.00156245
-4.21608e-12
0.00590013
0.00169614
-4.06559e-12
0.00407688
0.00182191
-4.05608e-12
0.00212126
0.00195396
-4.17492e-12
0.00211968
-4.21578e-12
0.0168001
3.9343e-10
-6.97015e-17
0.0168001
2.14341e-09
-2.69174e-16
0.0168
7.97285e-09
-7.83828e-16
0.0168
2.04502e-08
-1.58934e-15
0.0168
5.62545e-08
-4.28481e-15
0.0167999
1.28638e-07
-8.60806e-15
0.0167997
3.34631e-07
-2.3915e-14
0.0167994
7.50968e-07
-4.88418e-14
0.0167982
1.95845e-06
-1.37982e-13
0.016796
4.4191e-06
-2.87243e-13
0.016789
1.2148e-05
-8.0831e-13
0.0167726
3.18464e-05
-2.19535e-12
0.016713
0.000111033
-6.04642e-12
0.0165325
0.000344883
-1.91456e-11
0.0154917
0.0020343
-5.07548e-11
0.0143239
0.00232054
2.32e-12
0.0131614
0.00233599
-6.6164e-13
0.0119228
0.00248673
-4.68224e-12
0.0105923
0.00266437
-4.86331e-12
0.00913981
0.0028886
-4.65662e-12
0.00755686
0.00314377
-4.137e-12
0.00583978
0.00341155
-4.01654e-12
0.00399538
0.00366496
-4.01567e-12
0.00203208
0.00391559
-4.14032e-12
0.00415014
-4.18402e-12
0.0168001
6.07385e-10
-7.14117e-17
0.0168001
3.31552e-09
-2.75688e-16
0.0168
1.233e-08
-8.01123e-16
0.0168
3.16828e-08
-1.62494e-15
0.0168
8.7087e-08
-4.36932e-15
0.0167999
1.99547e-07
-8.76938e-15
0.0167997
5.18036e-07
-2.42939e-14
0.0167993
1.16683e-06
-4.93571e-14
0.0167981
3.02888e-06
-1.3985e-13
0.0167957
6.81082e-06
-2.87941e-13
0.0167884
1.87095e-05
-8.1697e-13
0.016772
4.79938e-05
-2.18529e-12
0.0167124
0.000168092
-6.09539e-12
0.0165358
0.000516662
-1.91228e-11
0.0155124
0.00304073
-5.1428e-11
0.0143334
0.00350041
3.02655e-12
0.0131765
0.00349257
-3.45529e-13
0.0119503
0.00371132
-4.63372e-12
0.0106314
0.00398148
-4.76712e-12
0.00918381
0.00433445
-4.49854e-12
0.00759809
0.00472785
-4.05343e-12
0.00587578
0.0051323
-3.96572e-12
0.00400966
0.0055298
-3.97292e-12
0.00203407
0.00588953
-4.09728e-12
0.00618261
-4.14364e-12
0.0168001
8.63268e-10
-7.976e-17
0.0168001
4.63776e-09
-3.03495e-16
0.0168
1.73006e-08
-8.92441e-16
0.0168
4.42937e-08
-1.8281e-15
0.0168
1.22557e-07
-4.94909e-15
0.0167999
2.82552e-07
-1.0159e-14
0.0167997
7.2522e-07
-2.70957e-14
0.0167991
1.717e-06
-6.22752e-14
0.016798
3.99647e-06
-1.35094e-13
0.0167946
1.02062e-05
-3.87384e-13
0.0167885
2.4069e-05
-7.13158e-13
0.0167714
6.47732e-05
-2.27123e-12
0.0167155
0.000221368
-6.01038e-12
0.016549
0.00067845
-1.91116e-11
0.0155717
0.00400058
-5.24466e-11
0.0143858
0.00468751
4.00023e-12
0.0132355
0.00464268
-1.95173e-13
0.0120279
0.00491736
-4.56363e-12
0.0107302
0.00527739
-4.65148e-12
0.00930404
0.00575919
-4.24091e-12
0.00772567
0.00630402
-3.85736e-12
0.00600219
0.00685402
-3.83267e-12
0.0041278
0.00740286
-3.89113e-12
0.00209692
0.0079188
-4.0387e-12
0.00827794
-4.1026e-12
0.0168001
9.84273e-10
-7.49446e-17
0.0168001
5.32188e-09
-2.88097e-16
0.0168001
1.98269e-08
-8.39905e-16
0.0168
5.07166e-08
-1.70637e-15
0.0168
1.40472e-07
-4.60575e-15
0.0168
3.22589e-07
-9.31502e-15
0.0167998
8.39302e-07
-2.54696e-14
0.0167996
1.91894e-06
-5.34199e-14
0.0167986
4.886e-06
-1.42449e-13
0.0167977
1.11104e-05
-3.01357e-13
0.0167891
3.19294e-05
-8.95979e-13
0.0167751
7.85526e-05
-2.18684e-12
0.0167279
0.000266078
-5.68951e-12
0.0165603
0.000840888
-1.96839e-11
0.01567
0.00487269
-5.35139e-11
0.0144682
0.00589094
5.20648e-12
0.013322
0.00578871
-4.02997e-14
0.0121403
0.00609757
-4.45134e-12
0.0108749
0.00654053
-4.50038e-12
0.0094865
0.00714685