/*--------------------------------*- C++ -*----------------------------------*\
| =========                 |                                                 |
| \\      /  F ield         | OpenFOAM: The Open Source CFD Toolbox           |
|  \\    /   O peration     | Version:  4.1                                   |
|   \\  /    A nd           | Web:      www.OpenFOAM.org                      |
|    \\/     M anipulation  |                                                 |
\*---------------------------------------------------------------------------*/
FoamFile
{
    version     2.0;
    format      ascii;
    class       volVectorField;
    location    "1.24";
    object      U;
}
// * * * * * * * * * * * * * * * * * * * * * * * * * * * * * * * * * * * * * //

dimensions      [0 1 -1 0 0 0 0];

internalField   nonuniform List<vector> 
52500
(
(3 9.91235e-09 -0.00571425)
(2.99999 5.45207e-08 -0.00571431)
(2.99998 2.01427e-07 -0.00571442)
(2.99995 5.18597e-07 -0.00571476)
(2.99988 1.41377e-06 -0.00571538)
(2.99967 3.24332e-06 -0.0057173)
(2.99927 8.30494e-06 -0.00572101)
(2.99804 1.89276e-05 -0.00573177)
(2.99579 4.66532e-05 -0.00575562)
(2.98771 0.00011058 -0.00581034)
(2.97367 0.000263069 -0.00598939)
(2.91997 0.000640183 -0.00627585)
(2.78592 0.00173019 -0.00756236)
(2.41547 0.0041851 -0.0101683)
(1.31094 0.0122061 -0.0158558)
(0.545646 0.0270558 -0.0187703)
(0.498722 0.0292059 -0.0189073)
(0.504487 0.0305326 -0.0190103)
(0.477895 0.0315858 -0.0191704)
(0.406121 0.0319261 -0.0193003)
(0.313005 0.032103 -0.0194586)
(0.239073 0.0331032 -0.0195767)
(0.184936 0.0353979 -0.019647)
(0.117205 0.0392435 -0.0201372)
(0.0256422 0.0443743 -0.0199228)
(3 2.93021e-08 -0.00571425)
(2.99999 1.60403e-07 -0.00571431)
(2.99998 5.98307e-07 -0.00571442)
(2.99995 1.539e-06 -0.00571475)
(2.99988 4.24142e-06 -0.00571536)
(2.99968 9.77079e-06 -0.00571724)
(2.99929 2.51309e-05 -0.00572089)
(2.99807 5.76829e-05 -0.00573143)
(2.99586 0.000141207 -0.00575495)
(2.98789 0.000331393 -0.00580826)
(2.97412 0.000810845 -0.0059861)
(2.92113 0.00189528 -0.0062641)
(2.78905 0.00533184 -0.00754079)
(2.42344 0.0129529 -0.0100724)
(1.32659 0.0378763 -0.0157702)
(0.55453 0.0814967 -0.018655)
(0.495362 0.0822617 -0.0188083)
(0.502862 0.0816611 -0.018908)
(0.478435 0.082124 -0.019056)
(0.408244 0.0814798 -0.0191846)
(0.316177 0.0806892 -0.0193399)
(0.241625 0.0808255 -0.0194546)
(0.185395 0.0827326 -0.0195217)
(0.115571 0.0869282 -0.0200023)
(0.0232111 0.0907306 -0.0197662)
(3 4.80859e-08 -0.00571424)
(2.99999 2.63585e-07 -0.00571431)
(2.99998 9.81651e-07 -0.00571441)
(2.99995 2.52016e-06 -0.00571473)
(2.99988 6.96429e-06 -0.00571532)
(2.99969 1.6017e-05 -0.00571713)
(2.99931 4.15164e-05 -0.00572065)
(2.99814 9.55277e-05 -0.00573074)
(2.99601 0.000234057 -0.00575363)
(2.98826 0.000556587 -0.00580474)
(2.97499 0.00133639 -0.00597829)
(2.92356 0.0031937 -0.00624448)
(2.79574 0.00862987 -0.00749241)
(2.4407 0.0228166 -0.00989246)
(1.3618 0.0644117 -0.0156034)
(0.577027 0.142158 -0.0185015)
(0.491303 0.139227 -0.0186966)
(0.503411 0.136043 -0.0187915)
(0.48344 0.137067 -0.0189201)
(0.415828 0.136991 -0.019055)
(0.325447 0.137483 -0.0192025)
(0.250307 0.139211 -0.019315)
(0.191795 0.143798 -0.0193804)
(0.119593 0.151813 -0.0198508)
(0.0246852 0.156394 -0.0196154)
(3 6.82866e-08 -0.00571424)
(2.99999 3.72675e-07 -0.00571431)
(2.99998 1.379e-06 -0.0057144)
(2.99995 3.54667e-06 -0.0057147)
(2.99989 9.76062e-06 -0.00571526)
(2.99971 2.25026e-05 -0.00571696)
(2.99935 5.81524e-05 -0.0057203)
(2.99823 0.000134204 -0.00572971)
(2.99625 0.000328665 -0.00575179)
(2.9888 0.000774824 -0.00579884)
(2.97634 0.00186791 -0.00596786)
(2.92692 0.00445891 -0.006216)
(2.80654 0.0116981 -0.00742681)
(2.46672 0.0326386 -0.00964559)
(1.41508 0.09035 -0.0153347)
(0.614038 0.205057 -0.0183002)
(0.485461 0.195216 -0.018574)
(0.506617 0.187942 -0.0186622)
(0.494029 0.189598 -0.0187662)
(0.430056 0.190821 -0.0189014)
(0.341837 0.193921 -0.0190404)
(0.265746 0.19864 -0.0191435)
(0.204254 0.207269 -0.0192023)
(0.128162 0.220266 -0.019661)
(0.0286569 0.226287 -0.0194563)
(3 7.57668e-08 -0.00571424)
(2.99999 4.07358e-07 -0.0057143)
(2.99998 1.53475e-06 -0.00571439)
(2.99996 3.93842e-06 -0.00571466)
(2.9999 1.11092e-05 -0.00571518)
(2.99973 2.58365e-05 -0.00571674)
(2.99941 6.82303e-05 -0.00571984)
(2.99836 0.000159984 -0.00572838)
(2.99655 0.000395865 -0.00574919)
(2.98954 0.000945764 -0.00579194)
(2.9781 0.0023332 -0.00595299)
(2.93136 0.00556645 -0.00617995)
(2.82091 0.014803 -0.00734154)
(2.50117 0.0414966 -0.00933067)
(1.4911 0.116821 -0.0149564)
(0.666938 0.270961 -0.0180389)
(0.478589 0.25035 -0.0184423)
(0.51378 0.236897 -0.0185232)
(0.511417 0.239069 -0.018601)
(0.451884 0.242195 -0.0187312)
(0.365936 0.249314 -0.0188469)
(0.288089 0.258802 -0.0189584)
(0.222687 0.272969 -0.0190132)
(0.141278 0.29206 -0.0194415)
(0.0351258 0.301086 -0.019266)
(3 7.08976e-08 -0.00571424)
(2.99999 3.79032e-07 -0.00571429)
(2.99999 1.43542e-06 -0.00571437)
(2.99996 3.65436e-06 -0.00571462)
(2.99991 1.04163e-05 -0.00571509)
(2.99976 2.39655e-05 -0.00571649)
(2.99946 6.55008e-05 -0.00571933)
(2.9985 0.00014606 -0.0057267)
(2.9969 0.00040888 -0.00574639)
(2.9904 0.000886111 -0.00578271)
(2.98024 0.00264295 -0.00593548)
(2.93681 0.00585569 -0.00613415)
(2.83868 0.0180898 -0.00723331)
(2.54479 0.0474998 -0.00895059)
(1.59716 0.143425 -0.0144071)
(0.740574 0.338874 -0.017703)
(0.474006 0.304122 -0.018298)
(0.5276 0.282859 -0.0183797)
(0.53789 0.285928 -0.0184162)
(0.48318 0.291772 -0.0185258)
(0.399404 0.304764 -0.0186134)
(0.318819 0.321482 -0.0187155)
(0.248161 0.343706 -0.0187711)
(0.159755 0.371071 -0.0191886)
(0.0447383 0.386151 -0.0190477)
(3 7.21595e-08 -0.00571424)
(2.99999 3.86739e-07 -0.00571429)
(2.99999 1.43581e-06 -0.00571436)
(2.99996 3.64575e-06 -0.00571459)
(2.99992 1.01672e-05 -0.00571501)
(2.99978 2.29752e-05 -0.00571631)
(2.99951 6.30956e-05 -0.00571886)
(2.99865 0.000129896 -0.00572583)
(2.99717 0.000417513 -0.00574309)
(2.99138 0.000750061 -0.00577714)
(2.98229 0.00292158 -0.00591095)
(2.94359 0.00566221 -0.00609114)
(2.85823 0.021049 -0.00706878)
(2.59677 0.0504934 -0.0085511)
(1.74214 0.165595 -0.0136743)
(0.836567 0.402985 -0.017287)
(0.476956 0.355802 -0.0181475)
(0.552296 0.327265 -0.0182151)
(0.576398 0.331448 -0.0181856)
(0.525794 0.340662 -0.0182744)
(0.443505 0.361578 -0.0183692)
(0.359212 0.387934 -0.0184642)
(0.282484 0.42085 -0.0184819)
(0.186193 0.459585 -0.0188196)
(0.0596048 0.486589 -0.0187361)
(3 8.67291e-08 -0.00571424)
(3 4.10103e-07 -0.00571428)
(2.99999 1.56366e-06 -0.00571435)
(2.99997 3.98315e-06 -0.00571456)
(2.99992 1.11298e-05 -0.00571494)
(2.9998 2.5312e-05 -0.00571611)
(2.99955 6.86129e-05 -0.00571837)
(2.9988 0.000145767 -0.00572498)
(2.99742 0.000445082 -0.00573951)
(2.99247 0.00080319 -0.00577225)
(2.98437 0.00314824 -0.00588226)
(2.95122 0.00575298 -0.00604792)
(2.8788 0.0227245 -0.00687166)
(2.65491 0.0524493 -0.00815832)
(1.92113 0.178457 -0.012777)
(0.956478 0.456178 -0.0168089)
(0.503162 0.407707 -0.0179455)
(0.595094 0.374127 -0.0179573)
(0.628473 0.378017 -0.0178682)
(0.579038 0.391293 -0.0179629)
(0.497419 0.42133 -0.0180517)
(0.409308 0.459465 -0.0181603)
(0.327008 0.506528 -0.0181605)
(0.224035 0.561214 -0.0184476)
(0.0834829 0.61112 -0.0183471)
(3 1.04878e-07 -0.00571424)
(3 4.13377e-07 -0.00571428)
(2.99999 1.66677e-06 -0.00571434)
(2.99997 4.25605e-06 -0.00571452)
(2.99993 1.19383e-05 -0.00571485)
(2.99983 2.73957e-05 -0.00571588)
(2.99961 7.32972e-05 -0.00571784)
(2.99896 0.00016307 -0.00572372)
(2.99771 0.000450794 -0.0057358)
(2.99362 0.000934697 -0.00576724)
(2.98645 0.00295631 -0.00585276)
(2.9593 0.0059946 -0.00600795)
(2.89981 0.0202493 -0.00665618)
(2.71647 0.0506937 -0.00776303)
(2.12522 0.159379 -0.0116655)
(1.12389 0.446593 -0.016002)
(0.570841 0.436702 -0.0175717)
(0.648605 0.42077 -0.017597)
(0.681841 0.426763 -0.0175508)
(0.633314 0.447634 -0.0176807)
(0.555281 0.484417 -0.0177574)
(0.468279 0.535665 -0.0178002)
(0.384873 0.5981 -0.0177643)
(0.282047 0.678228 -0.0178846)
(0.125248 0.774879 -0.0176906)
(3 1.23077e-07 -0.00571424)
(3 2.45382e-07 -0.00571427)
(2.99999 2.0809e-06 -0.00571432)
(2.99998 3.24142e-06 -0.00571447)
(2.99994 1.41405e-05 -0.00571476)
(2.99985 2.14031e-05 -0.00571562)
(2.99967 8.5847e-05 -0.0057173)
(2.99911 0.00012379 -0.00572217)
(2.99806 0.000527512 -0.00573258)
(2.99456 0.000617108 -0.00575803)
(2.98862 0.00351073 -0.00583173)
(2.96526 0.00258232 -0.00596066)
(2.91823 0.0228577 -0.00651661)
(2.76288 0.0279456 -0.00738953)
(2.28609 0.13496 -0.0105751)
(1.2963 0.344657 -0.0156002)
(0.617422 0.456227 -0.0174605)
(0.679297 0.481725 -0.0173952)
(0.715955 0.481148 -0.017343)
(0.676929 0.507192 -0.0174246)
(0.610727 0.548361 -0.0174421)
(0.534295 0.610772 -0.0174091)
(0.461297 0.694006 -0.0172592)
(0.377887 0.819249 -0.017233)
(0.201258 1.03484 -0.0167148)
(3 1.00027e-08 -2.38444e-09)
(2.99999 5.42651e-08 -8.73362e-09)
(2.99998 2.01087e-07 -1.01834e-08)
(2.99994 5.17693e-07 -1.60588e-08)
(2.99988 1.41217e-06 -1.65278e-08)
(2.99967 3.24011e-06 -2.20164e-08)
(2.99927 8.29955e-06 -2.33065e-08)
(2.99804 1.89202e-05 -3.28044e-08)
(2.99578 4.66302e-05 -3.63022e-08)
(2.9877 0.000110659 -8.70115e-08)
(2.97366 0.000262871 -5.27075e-08)
(2.91995 0.000640609 -2.6911e-07)
(2.78586 0.0017297 -2.57805e-07)
(2.41533 0.00418503 -8.54434e-07)
(1.3107 0.0122036 -1.39617e-06)
(0.545526 0.0270441 -1.09554e-06)
(0.498862 0.0292002 2.84639e-07)
(0.50459 0.0305332 1.7654e-07)
(0.477958 0.0315917 8.15681e-08)
(0.40618 0.0319356 9.5601e-08)
(0.313052 0.0321127 1.35228e-07)
(0.239094 0.0331099 1.17728e-07)
(0.184944 0.0354002 1.227e-07)
(0.117205 0.039242 1.5742e-07)
(0.025642 0.0443715 1.82802e-07)
(3 2.95944e-08 -2.3831e-09)
(2.99999 1.59744e-07 -8.7396e-09)
(2.99998 5.97351e-07 -1.01865e-08)
(2.99995 1.53674e-06 -1.60703e-08)
(2.99988 4.2373e-06 -1.65398e-08)
(2.99968 9.76303e-06 -2.20388e-08)
(2.99928 2.51165e-05 -2.33123e-08)
(2.99807 5.76545e-05 -3.26287e-08)
(2.99586 0.000141156 -3.65715e-08)
(2.98788 0.00033142 -8.3185e-08)
(2.97411 0.00081053 -5.83599e-08)
(2.92111 0.00189589 -2.55968e-07)
(2.78899 0.00533124 -2.73036e-07)
(2.4233 0.0129512 -8.46378e-07)
(1.32635 0.0378681 -1.42635e-06)
(0.554409 0.0814612 -1.14726e-06)
(0.495508 0.0822479 2.91455e-07)
(0.502964 0.0816636 1.7911e-07)
(0.478493 0.0821383 6.83293e-08)
(0.408296 0.0815012 9.45508e-08)
(0.316219 0.0807108 1.37291e-07)
(0.241643 0.0808411 1.25133e-07)
(0.185402 0.0827388 1.3021e-07)
(0.115571 0.0869265 1.64133e-07)
(0.0232101 0.0907253 1.90356e-07)
(3 4.81013e-08 -2.37763e-09)
(2.99999 2.62415e-07 -8.74983e-09)
(2.99998 9.79261e-07 -1.01894e-08)
(2.99995 2.51558e-06 -1.60825e-08)
(2.99988 6.95643e-06 -1.65639e-08)
(2.99969 1.60034e-05 -2.20944e-08)
(2.99931 4.14893e-05 -2.34281e-08)
(2.99813 9.54702e-05 -3.29274e-08)
(2.99601 0.000233941 -3.68034e-08)
(2.98826 0.000556431 -8.22164e-08)
(2.97498 0.0013359 -6.24805e-08)
(2.92354 0.0031933 -2.39769e-07)
(2.79568 0.00862984 -2.9229e-07)
(2.44055 0.0228084 -8.39263e-07)
(1.36155 0.0643973 -1.4961e-06)
(0.576898 0.142096 -1.27765e-06)
(0.491458 0.139207 3.27498e-07)
(0.503507 0.13605 1.84887e-07)
(0.483486 0.137092 5.24574e-08)
(0.415868 0.137027 8.74457e-08)
(0.325477 0.137517 1.43947e-07)
(0.250318 0.139235 1.43158e-07)
(0.191797 0.143807 1.47854e-07)
(0.119591 0.15181 1.76652e-07)
(0.0246834 0.156385 1.99475e-07)
(3 6.81102e-08 -2.37685e-09)
(2.99999 3.7142e-07 -8.7591e-09)
(2.99998 1.37762e-06 -1.02055e-08)
(2.99995 3.54125e-06 -1.61063e-08)
(2.99989 9.7593e-06 -1.66031e-08)
(2.99971 2.24954e-05 -2.21562e-08)
(2.99935 5.81394e-05 -2.35844e-08)
(2.99823 0.000134136 -3.31365e-08)
(2.99624 0.000328588 -3.76494e-08)
(2.98879 0.000774358 -8.20694e-08)
(2.97633 0.0018676 -6.4939e-08)
(2.9269 0.00445692 -2.46986e-07)
(2.80648 0.0116977 -2.5854e-07)
(2.46657 0.032626 -9.79254e-07)
(1.41481 0.0903264 -1.48297e-06)
(0.613885 0.204971 -1.47493e-06)
(0.485624 0.195191 4.03813e-07)
(0.506701 0.187957 2.05577e-07)
(0.494057 0.189635 4.39536e-08)
(0.430074 0.190869 8.22718e-08)
(0.34185 0.193965 1.45615e-07)
(0.265746 0.198669 1.65593e-07)
(0.20425 0.207278 1.74088e-07)
(0.128158 0.22026 1.94646e-07)
(0.028654 0.226272 2.13235e-07)
(3 7.61579e-08 -2.38298e-09)
(2.99999 4.06396e-07 -8.77277e-09)
(2.99998 1.53517e-06 -1.02192e-08)
(2.99995 3.93507e-06 -1.6165e-08)
(2.9999 1.11209e-05 -1.66225e-08)
(2.99973 2.58537e-05 -2.23695e-08)
(2.9994 6.82814e-05 -2.39336e-08)
(2.99836 0.000160157 -3.48028e-08)
(2.99654 0.000395985 -3.84155e-08)
(2.98953 0.000947098 -9.28771e-08)
(2.97808 0.00233222 -6.25644e-08)
(2.93133 0.005569 -2.78389e-07)
(2.82084 0.0147969 -2.58674e-07)
(2.50101 0.04149 -1.04905e-06)
(1.49078 0.116787 -1.6035e-06)
(0.666748 0.270861 -1.74339e-06)
(0.478751 0.250326 5.47993e-07)
(0.513843 0.236921 2.53052e-07)
(0.511417 0.239118 5.172e-08)
(0.451876 0.242253 8.13165e-08)
(0.365929 0.249364 1.46722e-07)
(0.288076 0.258833 1.89361e-07)
(0.222676 0.272977 2.05002e-07)
(0.14127 0.292049 2.16511e-07)
(0.0351219 0.301064 2.26288e-07)
(3 7.0669e-08 -2.37114e-09)
(2.99999 3.78154e-07 -8.78481e-09)
(2.99998 1.43319e-06 -1.01829e-08)
(2.99996 3.65867e-06 -1.62127e-08)
(2.99991 1.04231e-05 -1.6315e-08)
(2.99975 2.39939e-05 -2.19998e-08)
(2.99946 6.55584e-05 -2.28502e-08)
(2.9985 0.000146225 -3.03272e-08)
(2.9969 0.00040908 -3.83071e-08)
(2.9904 0.00088697 -5.78599e-08)
(2.98023 0.00264289 -1.05962e-07)
(2.93679 0.0058585 -1.98315e-07)
(2.83861 0.0180841 -3.61017e-07)
(2.54461 0.0475016 -1.06378e-06)
(1.59676 0.143393 -1.78915e-06)
(0.740342 0.338768 -2.16073e-06)
(0.474157 0.304107 6.53769e-07)
(0.527631 0.2829 3.20271e-07)
(0.537853 0.285992 8.08387e-08)
(0.48314 0.291841 1.05052e-07)
(0.399374 0.304816 1.63177e-07)
(0.318796 0.321509 2.15696e-07)
(0.248145 0.343708 2.35066e-07)
(0.159744 0.371053 2.36171e-07)
(0.0447339 0.386122 2.32554e-07)
(3 7.04687e-08 -2.38358e-09)
(2.99999 3.85158e-07 -8.78122e-09)
(2.99999 1.43209e-06 -1.02324e-08)
(2.99996 3.6532e-06 -1.60771e-08)
(2.99991 1.01781e-05 -1.65227e-08)
(2.99978 2.3023e-05 -2.19796e-08)
(2.99951 6.31954e-05 -2.3353e-08)
(2.99864 0.000130121 -3.27615e-08)
(2.99716 0.000417944 -3.77386e-08)
(2.99138 0.000750705 -7.83613e-08)
(2.98227 0.00292333 -8.2635e-08)
(2.94357 0.00566417 -2.18854e-07)
(2.85816 0.0210508 -4.31824e-07)
(2.59659 0.0504964 -9.83914e-07)
(1.74167 0.165575 -2.18906e-06)
(0.836304 0.40288 -2.84288e-06)
(0.477074 0.355786 8.34975e-07)
(0.552274 0.327307 4.5195e-07)
(0.576313 0.331517 1.61628e-07)
(0.525721 0.340733 1.70438e-07)
(0.443458 0.361624 1.91453e-07)
(0.359186 0.387951 2.39766e-07)
(0.282469 0.420842 2.55664e-07)
(0.186183 0.459561 2.46775e-07)
(0.0596008 0.486553 2.271e-07)
(3 7.69973e-08 -2.40306e-09)
(2.99999 4.19144e-07 -8.77741e-09)
(2.99999 1.56306e-06 -1.02333e-08)
(2.99997 3.9912e-06 -1.60036e-08)
(2.99992 1.11444e-05 -1.63065e-08)
(2.9998 2.53651e-05 -2.14644e-08)
(2.99955 6.87142e-05 -2.21946e-08)
(2.9988 0.000146091 -2.90362e-08)
(2.99742 0.000445522 -3.58081e-08)
(2.99247 0.000805128 -5.95451e-08)
(2.98436 0.00314924 -9.12305e-08)
(2.9512 0.00575764 -2.01768e-07)
(2.87873 0.0227282 -4.29401e-07)
(2.65472 0.0524512 -1.09931e-06)
(1.92058 0.178454 -2.40177e-06)
(0.956142 0.456111 -3.69989e-06)
(0.503166 0.40771 9.80306e-07)
(0.595009 0.374164 5.72106e-07)
(0.628364 0.378078 2.75011e-07)
(0.578959 0.391349 2.55313e-07)
(0.497378 0.421358 2.18037e-07)
(0.409295 0.459466 2.47576e-07)
(0.327004 0.506509 2.53797e-07)
(0.224031 0.561184 2.41047e-07)
(0.0834815 0.611081 2.09912e-07)
(3 8.16689e-08 -2.54425e-09)
(3 4.45442e-07 -8.49639e-09)
(2.99999 1.66487e-06 -1.0371e-08)
(2.99997 4.26096e-06 -1.5946e-08)
(2.99993 1.19333e-05 -1.635e-08)
(2.99982 2.73952e-05 -2.11668e-08)
(2.99961 7.33227e-05 -2.21473e-08)
(2.99896 0.000163169 -2.79649e-08)
(2.99771 0.000451107 -3.50836e-08)
(2.99362 0.000935722 -5.03881e-08)
(2.98643 0.00295835 -1.00924e-07)
(2.95927 0.00600055 -1.70979e-07)
(2.89973 0.0202654 -4.91321e-07)
(2.71627 0.0507305 -1.12868e-06)
(2.12463 0.159525 -2.69442e-06)
(1.12343 0.44687 -4.69742e-06)
(0.570822 0.436794 7.55883e-07)
(0.648575 0.420796 5.70402e-07)
(0.681801 0.426798 3.53907e-07)
(0.633289 0.447662 3.21481e-07)
(0.555279 0.484428 2.26213e-07)
(0.468294 0.535654 2.29841e-07)
(0.384888 0.598075 2.26949e-07)
(0.282055 0.678195 2.17921e-07)
(0.125252 0.774843 1.8373e-07)
(3 1.28536e-07 -2.85436e-09)
(3 3.05509e-07 -7.82365e-09)
(2.99999 1.99238e-06 -1.07148e-08)
(2.99997 3.2811e-06 -1.59539e-08)
(2.99994 1.40083e-05 -1.64522e-08)
(2.99985 2.13892e-05 -2.13268e-08)
(2.99966 8.56769e-05 -2.15132e-08)
(2.99911 0.000123742 -2.71969e-08)
(2.99806 0.000527432 -3.10649e-08)
(2.99455 0.000617442 -4.3184e-08)
(2.98861 0.00351231 -7.06227e-08)
(2.96525 0.00258632 -1.2271e-07)
(2.91818 0.022874 -2.5691e-07)
(2.76279 0.0279973 -7.70802e-07)
(2.28581 0.135113 -9.87794e-07)
(1.29592 0.345124 -2.89159e-06)
(0.617492 0.456254 -1.8274e-07)
(0.679379 0.481689 2.9208e-07)
(0.716028 0.481134 2.3119e-07)
(0.676979 0.507192 2.47646e-07)
(0.610774 0.548361 2.27074e-07)
(0.53434 0.610758 2.21271e-07)
(0.461334 0.69398 2.03453e-07)
(0.37791 0.819218 1.79357e-07)
(0.201271 1.03481 1.49514e-07)
(3 1.00027e-08 -5.15667e-13)
(2.99999 5.42654e-08 -2.6412e-12)
(2.99998 2.01087e-07 -6.37803e-12)
(2.99994 5.17691e-07 -1.33823e-11)
(2.99988 1.41216e-06 -2.82394e-11)
(2.99967 3.24009e-06 -5.44814e-11)
(2.99927 8.29953e-06 -1.25789e-10)
(2.99804 1.89203e-05 -2.61424e-10)
(2.99578 4.663e-05 -5.95044e-10)
(2.9877 0.000110663 -1.54647e-09)
(2.97366 0.000262865 -2.74013e-09)
(2.91995 0.00064063 -7.97288e-09)
(2.78586 0.00172968 -1.63856e-08)
(2.41533 0.00418503 -3.87934e-08)
(1.31069 0.0122035 -7.32722e-08)
(0.545521 0.0270436 -5.43721e-08)
(0.498868 0.0292 1.62291e-08)
(0.504594 0.0305332 1.01719e-08)
(0.477961 0.0315919 4.74888e-09)
(0.406182 0.031936 5.03913e-09)
(0.313055 0.032113 6.20941e-09)
(0.239095 0.0331101 4.33195e-09)
(0.184944 0.0354003 3.50326e-09)
(0.117207 0.0392422 3.56799e-09)
(0.0256421 0.0443712 7.07193e-09)
(3 2.95949e-08 -5.19079e-13)
(2.99999 1.59746e-07 -2.64992e-12)
(2.99998 5.97356e-07 -6.43038e-12)
(2.99995 1.53675e-06 -1.35168e-11)
(2.99988 4.23732e-06 -2.84479e-11)
(2.99968 9.76307e-06 -5.47807e-11)
(2.99928 2.51165e-05 -1.2446e-10)
(2.99807 5.76545e-05 -2.49357e-10)
(2.99586 0.000141156 -6.00564e-10)
(2.98788 0.000331423 -1.34183e-09)
(2.97411 0.000810525 -3.01351e-09)
(2.92111 0.00189592 -7.27122e-09)
(2.78899 0.00533123 -1.71592e-08)
(2.42329 0.0129512 -3.84046e-08)
(1.32634 0.0378677 -7.47558e-08)
(0.554403 0.0814597 -5.69374e-08)
(0.495515 0.0822473 1.655e-08)
(0.502968 0.0816637 1.02621e-08)
(0.478495 0.0821388 3.91364e-09)
(0.408298 0.081502 4.99697e-09)
(0.316221 0.0807115 6.35005e-09)
(0.241644 0.0808415 4.75318e-09)
(0.185402 0.0827389 3.9535e-09)
(0.115573 0.0869265 3.98965e-09)
(0.0232111 0.0907252 7.34139e-09)
(3 4.81015e-08 -5.10345e-13)
(2.99999 2.62413e-07 -2.60333e-12)
(2.99998 9.79261e-07 -6.34947e-12)
(2.99995 2.51558e-06 -1.3336e-11)
(2.99988 6.95646e-06 -2.85873e-11)
(2.99969 1.60035e-05 -5.5604e-11)
(2.99931 4.14895e-05 -1.27162e-10)
(2.99813 9.54715e-05 -2.61267e-10)
(2.99601 0.000233942 -5.97706e-10)
(2.98826 0.000556438 -1.32383e-09)
(2.97498 0.00133589 -3.13729e-09)
(2.92354 0.00319331 -6.54431e-09)
(2.79568 0.00862987 -1.80268e-08)
(2.44055 0.0228081 -3.81828e-08)
(1.36154 0.0643968 -7.79807e-08)
(0.576892 0.142093 -6.31333e-08)
(0.491465 0.139206 1.83019e-08)
(0.503511 0.13605 1.03518e-08)
(0.483488 0.137093 2.94021e-09)
(0.415869 0.137028 4.48953e-09)
(0.325479 0.137518 6.58439e-09)
(0.250318 0.139236 5.61802e-09)
(0.191797 0.143807 4.84733e-09)
(0.119593 0.15181 4.48374e-09)
(0.0246849 0.156385 7.65253e-09)
(3 6.81097e-08 -5.02445e-13)
(2.99999 3.7142e-07 -2.60902e-12)
(2.99998 1.37761e-06 -6.19574e-12)
(2.99995 3.54123e-06 -1.29472e-11)
(2.99989 9.75926e-06 -2.69122e-11)
(2.99971 2.24953e-05 -5.11072e-11)
(2.99935 5.81391e-05 -1.18769e-10)
(2.99823 0.000134135 -2.26821e-10)
(2.99624 0.000328585 -6.01951e-10)
(2.98879 0.000774358 -1.19301e-09)
(2.97633 0.00186758 -3.14912e-09)
(2.9269 0.00445691 -6.9228e-09)
(2.80648 0.0116976 -1.59341e-08)
(2.46656 0.0326256 -4.61237e-08)
(1.41479 0.0903254 -7.63296e-08)
(0.613878 0.204968 -7.23742e-08)
(0.485631 0.19519 2.2235e-08)
(0.506704 0.187957 1.10821e-08)
(0.494058 0.189637 2.17842e-09)
(0.430075 0.19087 3.88771e-09)
(0.341851 0.193966 6.38924e-09)
(0.265746 0.19867 6.56561e-09)
(0.204249 0.207278 6.06732e-09)
(0.128159 0.22026 5.12607e-09)
(0.0286559 0.226272 8.55182e-09)
(3 7.61607e-08 -5.36706e-13)
(2.99999 4.06414e-07 -2.71226e-12)
(2.99998 1.53523e-06 -6.68848e-12)
(2.99995 3.93521e-06 -1.42592e-11)
(2.9999 1.11213e-05 -3.00685e-11)
(2.99973 2.58544e-05 -5.87982e-11)
(2.9994 6.82828e-05 -1.31072e-10)
(2.99836 0.00016016 -2.60508e-10)
(2.99654 0.00039599 -6.33961e-10)
(2.98953 0.000947108 -1.18989e-09)
(2.97808 0.00233222 -3.51011e-09)
(2.93133 0.00556902 -6.40676e-09)
(2.82084 0.0147968 -1.83069e-08)
(2.501 0.0414899 -4.41655e-08)
(1.49077 0.116786 -8.48104e-08)
(0.666741 0.270856 -8.39443e-08)
(0.478758 0.250325 2.9036e-08)
(0.513846 0.236922 1.30152e-08)
(0.511417 0.239119 2.0323e-09)
(0.451876 0.242255 3.3577e-09)
(0.365929 0.249366 5.98521e-09)
(0.288076 0.258834 7.42058e-09)
(0.222675 0.272977 7.46108e-09)
(0.141272 0.292048 5.93944e-09)
(0.0351242 0.301065 9.56886e-09)
(3 7.06727e-08 -4.57503e-13)
(2.99999 3.78172e-07 -2.36151e-12)
(2.99998 1.43326e-06 -5.61304e-12)
(2.99996 3.65886e-06 -1.19163e-11)
(2.99991 1.04236e-05 -2.4787e-11)
(2.99975 2.39951e-05 -4.80586e-11)
(2.99946 6.5561e-05 -1.14584e-10)
(2.9985 0.000146232 -2.19313e-10)
(2.9969 0.00040909 -6.11335e-10)
(2.9904 0.000887006 -1.12957e-09)
(2.98023 0.00264291 -3.63327e-09)
(2.93679 0.0058586 -6.87012e-09)
(2.83861 0.0180841 -1.85702e-08)
(2.54461 0.0475017 -4.83765e-08)
(1.59674 0.143392 -9.17564e-08)
(0.740333 0.338764 -1.04902e-07)
(0.474164 0.304106 3.38849e-08)
(0.527632 0.282902 1.57664e-08)
(0.537851 0.285994 2.94474e-09)
(0.483139 0.291843 4.09525e-09)
(0.399374 0.304817 6.42477e-09)
(0.318796 0.32151 8.30673e-09)
(0.248144 0.343707 8.68038e-09)
(0.159746 0.371052 6.49817e-09)
(0.0447365 0.386122 1.04357e-08)
(3 7.04696e-08 -4.41987e-13)
(2.99999 3.85163e-07 -2.31011e-12)
(2.99999 1.43211e-06 -5.37206e-12)
(2.99996 3.65325e-06 -1.11986e-11)
(2.99991 1.01783e-05 -2.26593e-11)
(2.99978 2.30234e-05 -4.23562e-11)
(2.99951 6.31966e-05 -9.83952e-11)
(2.99864 0.000130123 -1.64004e-10)
(2.99716 0.00041795 -5.72495e-10)
(2.99138 0.000750731 -7.12967e-10)
(2.98227 0.00292335 -3.80723e-09)
(2.94356 0.00566429 -5.23499e-09)
(2.85815 0.0210507 -2.15037e-08)
(2.59658 0.0504968 -4.38145e-08)
(1.74165 0.165575 -1.09528e-07)
(0.836294 0.402876 -1.36251e-07)
(0.47708 0.355785 4.22647e-08)
(0.552273 0.327308 2.1596e-08)
(0.576309 0.331519 6.56815e-09)
(0.525718 0.340735 6.99425e-09)
(0.443457 0.361625 7.48941e-09)
(0.359185 0.387951 9.12431e-09)
(0.282468 0.420841 9.61066e-09)
(0.186185 0.459559 7.0215e-09)
(0.059604 0.486553 1.06982e-08)
(3 7.69987e-08 -4.32685e-13)
(2.99999 4.1915e-07 -2.26896e-12)
(2.99999 1.56309e-06 -5.21627e-12)
(2.99997 3.99126e-06 -1.08919e-11)
(2.99992 1.11446e-05 -2.15828e-11)
(2.9998 2.53655e-05 -4.0353e-11)
(2.99955 6.87151e-05 -9.01025e-11)
(2.9988 0.000146092 -1.49499e-10)
(2.99742 0.000445529 -5.31467e-10)
(2.99247 0.000805132 -5.39884e-10)
(2.98436 0.00314927 -3.8979e-09)
(2.95119 0.00575771 -4.39374e-09)
(2.87873 0.0227283 -2.40225e-08)
(2.65471 0.0524515 -4.28006e-08)
(1.92056 0.178454 -1.23249e-07)
(0.95613 0.456109 -1.74767e-07)
(0.503168 0.40771 4.78395e-08)
(0.595006 0.374166 2.63755e-08)
(0.628361 0.378079 1.16645e-08)
(0.578956 0.39135 1.08482e-08)
(0.497377 0.421358 8.71663e-09)
(0.409295 0.459465 9.39228e-09)
(0.327004 0.506508 9.67549e-09)
(0.224033 0.561182 7.08984e-09)
(0.083485 0.611082 1.00594e-08)
(3 8.16714e-08 -4.11835e-13)
(3 4.45453e-07 -2.20309e-12)
(2.99999 1.66492e-06 -4.99388e-12)
(2.99997 4.26107e-06 -1.03961e-11)
(2.99993 1.19336e-05 -2.06e-11)
(2.99982 2.73959e-05 -3.84143e-11)
(2.99961 7.33245e-05 -8.81623e-11)
(2.99896 0.000163173 -1.64113e-10)
(2.99771 0.00045112 -4.91503e-10)
(2.99362 0.000935736 -8.00251e-10)
(2.98643 0.00295845 -3.61103e-09)
(2.95927 0.0060007 -4.56953e-09)
(2.89973 0.0202662 -2.463e-08)
(2.71627 0.0507318 -4.51353e-08)
(2.1246 0.159531 -1.3276e-07)
(1.12341 0.446881 -2.18562e-07)
(0.570823 0.436797 3.54621e-08)
(0.648575 0.420796 2.53085e-08)
(0.6818 0.426798 1.51725e-08)
(0.633289 0.447662 1.38745e-08)
(0.55528 0.484428 9.32144e-09)
(0.468296 0.535653 8.62139e-09)
(0.384889 0.598073 8.52712e-09)
(0.282057 0.678193 6.26759e-09)
(0.125256 0.774844 9.581e-09)
(3 1.28535e-07 -3.75662e-13)
(3 3.05523e-07 -2.06451e-12)
(2.99999 1.9924e-06 -4.47931e-12)
(2.99997 3.28118e-06 -9.34597e-12)
(2.99994 1.40085e-05 -1.71042e-11)
(2.99985 2.13896e-05 -3.14806e-11)
(2.99966 8.56783e-05 -6.50028e-11)
(2.99911 0.000123744 -1.20127e-10)
(2.99806 0.000527442 -3.26395e-10)
(2.99455 0.000617455 -5.63906e-10)
(2.98861 0.00351241 -2.10181e-09)
(2.96525 0.00258642 -3.37365e-09)
(2.91818 0.0228749 -1.1802e-08)
(2.76279 0.027999 -3.27291e-08)
(2.2858 0.13512 -4.7987e-08)
(1.2959 0.345142 -1.3317e-07)
(0.617496 0.456255 -9.97729e-09)
(0.679383 0.481687 1.18748e-08)
(0.716031 0.481133 9.82353e-09)
(0.676982 0.507191 1.08869e-08)
(0.610777 0.54836 9.6058e-09)
(0.534343 0.610756 8.9032e-09)
(0.461335 0.693978 7.81357e-09)
(0.377912 0.819216 4.95338e-09)
(0.201275 1.03481 8.65707e-09)
(3 1.00027e-08 -1.90348e-13)
(2.99999 5.42653e-08 -8.51871e-13)
(2.99998 2.01087e-07 -2.74224e-12)
(2.99994 5.1769e-07 -5.92636e-12)
(2.99988 1.41216e-06 -1.62716e-11)
(2.99967 3.24008e-06 -3.34266e-11)
(2.99927 8.29951e-06 -9.09729e-11)
(2.99804 1.89203e-05 -1.9783e-10)
(2.99578 4.66299e-05 -4.76837e-10)
(2.9877 0.000110665 -1.27289e-09)
(2.97366 0.000262864 -2.3013e-09)
(2.91995 0.000640635 -6.7566e-09)
(2.78586 0.00172968 -1.41219e-08)
(2.41533 0.00418504 -3.35659e-08)
(1.31068 0.0122035 -6.40678e-08)
(0.545519 0.0270435 -4.81209e-08)
(0.498869 0.0291999 1.43943e-08)
(0.504595 0.0305332 9.18902e-09)
(0.477961 0.0315919 4.39634e-09)
(0.406182 0.031936 4.72406e-09)
(0.313055 0.0321131 6.54067e-09)
(0.239095 0.0331101 6.47236e-09)
(0.184944 0.0354002 7.00505e-09)
(0.117207 0.039242 8.99813e-09)
(0.0256427 0.0443715 9.72663e-09)
(3 2.95949e-08 -1.92193e-13)
(2.99999 1.59747e-07 -8.54915e-13)
(2.99998 5.97357e-07 -2.7728e-12)
(2.99995 1.53675e-06 -6.01086e-12)
(2.99988 4.23732e-06 -1.63834e-11)
(2.99968 9.76306e-06 -3.35519e-11)
(2.99928 2.51165e-05 -8.96079e-11)
(2.99807 5.76544e-05 -1.87264e-10)
(2.99586 0.000141156 -4.80362e-10)
(2.98788 0.000331424 -1.10009e-09)
(2.97411 0.000810524 -2.52545e-09)
(2.92111 0.00189593 -6.16415e-09)
(2.78899 0.00533123 -1.47535e-08)
(2.42329 0.0129512 -3.32098e-08)
(1.32634 0.0378677 -6.52539e-08)
(0.554402 0.0814594 -5.02844e-08)
(0.495516 0.0822472 1.46503e-08)
(0.502969 0.0816637 9.24184e-09)
(0.478495 0.0821389 3.77229e-09)
(0.408298 0.0815021 4.73894e-09)
(0.316221 0.0807116 6.59638e-09)
(0.241644 0.0808416 6.71944e-09)
(0.185402 0.0827389 7.23212e-09)
(0.115573 0.0869264 9.22935e-09)
(0.0232112 0.0907255 9.97956e-09)
(3 4.81014e-08 -1.84534e-13)
(2.99999 2.62413e-07 -8.14075e-13)
(2.99998 9.7926e-07 -2.69718e-12)
(2.99995 2.51558e-06 -5.84755e-12)
(2.99988 6.95646e-06 -1.64423e-11)
(2.99969 1.60035e-05 -3.41166e-11)
(2.99931 4.14895e-05 -9.14742e-11)
(2.99813 9.54716e-05 -1.96147e-10)
(2.99601 0.000233941 -4.76307e-10)
(2.98826 0.000556439 -1.07497e-09)
(2.97498 0.00133589 -2.62592e-09)
(2.92354 0.00319331 -5.50917e-09)
(2.79568 0.00862989 -1.5445e-08)
(2.44054 0.022808 -3.28911e-08)
(1.36153 0.0643967 -6.78198e-08)
(0.57689 0.142093 -5.5643e-08)
(0.491466 0.139206 1.6178e-08)
(0.503512 0.13605 9.50087e-09)
(0.483488 0.137093 3.11308e-09)
(0.41587 0.137028 4.43633e-09)
(0.325479 0.137518 6.83393e-09)
(0.250318 0.139236 7.35151e-09)
(0.191797 0.143807 7.79512e-09)
(0.119593 0.15181 9.63373e-09)
(0.0246848 0.156385 1.01342e-08)
(3 6.81095e-08 -1.75168e-13)
(2.99999 3.71419e-07 -7.99711e-13)
(2.99998 1.37761e-06 -2.54115e-12)
(2.99995 3.54123e-06 -5.47501e-12)
(2.99989 9.75924e-06 -1.50728e-11)
(2.99971 2.24952e-05 -3.0646e-11)
(2.99935 5.8139e-05 -8.49297e-11)
(2.99823 0.000134134 -1.71905e-10)
(2.99624 0.000328584 -4.75805e-10)
(2.98879 0.000774357 -9.91281e-10)
(2.97633 0.00186758 -2.59637e-09)
(2.9269 0.0044569 -5.82959e-09)
(2.80648 0.0116976 -1.35456e-08)
(2.46656 0.0326256 -3.93961e-08)
(1.41479 0.0903253 -6.61977e-08)
(0.613876 0.204967 -6.35394e-08)
(0.485632 0.19519 1.95368e-08)
(0.506705 0.187957 1.02735e-08)
(0.494058 0.189637 2.58558e-09)
(0.430075 0.190871 4.05623e-09)
(0.341851 0.193966 6.79747e-09)
(0.265746 0.19867 8.09316e-09)
(0.204249 0.207278 8.6259e-09)
(0.128159 0.220259 1.01267e-08)
(0.0286557 0.226272 1.0232e-08)
(3 7.61614e-08 -1.85627e-13)
(2.99999 4.06418e-07 -8.29201e-13)
(2.99998 1.53525e-06 -2.72165e-12)
(2.99995 3.93525e-06 -5.91349e-12)
(2.9999 1.11214e-05 -1.64359e-11)
(2.99973 2.58546e-05 -3.38567e-11)
(2.9994 6.82832e-05 -9.03058e-11)
(2.99836 0.000160161 -1.87602e-10)
(2.99654 0.000395992 -4.91884e-10)
(2.98953 0.000947112 -9.89735e-10)
(2.97808 0.00233222 -2.80665e-09)
(2.93133 0.00556903 -5.56935e-09)
(2.82084 0.0147968 -1.50321e-08)
(2.501 0.0414899 -3.84812e-08)
(1.49076 0.116785 -7.21504e-08)
(0.666738 0.270856 -7.34033e-08)
(0.478759 0.250324 2.51266e-08)
(0.513846 0.236922 1.20251e-08)
(0.511417 0.23912 2.62761e-09)
(0.451876 0.242255 3.802e-09)
(0.365929 0.249366 6.54026e-09)
(0.288076 0.258834 8.74222e-09)
(0.222675 0.272976 9.55014e-09)
(0.141272 0.292048 1.06711e-08)
(0.0351239 0.301065 1.01416e-08)
(3 7.06735e-08 -1.33372e-13)
(2.99999 3.78176e-07 -5.89051e-13)
(2.99998 1.43328e-06 -2.0059e-12)
(2.99996 3.6589e-06 -4.34208e-12)
(2.99991 1.04237e-05 -1.28698e-11)
(2.99975 2.39954e-05 -2.6563e-11)
(2.99946 6.55617e-05 -7.7931e-11)
(2.9985 0.000146234 -1.54749e-10)
(2.9969 0.000409092 -4.71016e-10)
(2.9904 0.000887015 -8.732e-10)
(2.98023 0.00264292 -2.94e-09)
(2.93679 0.00585862 -5.49698e-09)
(2.83861 0.0180841 -1.57927e-08)
(2.5446 0.0475017 -4.00379e-08)
(1.59674 0.143392 -7.84687e-08)