/*--------------------------------*- C++ -*----------------------------------*\
| =========                 |                                                 |
| \\      /  F ield         | OpenFOAM: The Open Source CFD Toolbox           |
|  \\    /   O peration     | Version:  4.1                                   |
|   \\  /    A nd           | Web:      www.OpenFOAM.org                      |
|    \\/     M anipulation  |                                                 |
\*---------------------------------------------------------------------------*/
FoamFile
{
    version     2.0;
    format      ascii;
    class       surfaceScalarField;
    location    "6.86";
    object      phi;
}
// * * * * * * * * * * * * * * * * * * * * * * * * * * * * * * * * * * * * * //

dimensions      [1 0 -1 0 0 0 0];

internalField   nonuniform List<scalar> 
150500
(
0.0168001
2.27169e-10
-3.49733e-12
0.0168001
1.25972e-09
-1.16122e-11
0.0168
4.68585e-09
-1.36544e-11
0.0168
1.20889e-08
-2.14916e-11
0.0168
3.32239e-08
-2.2076e-11
0.0167999
7.695e-08
-2.94711e-11
0.0167997
1.94794e-07
-3.05733e-11
0.0167992
4.68809e-07
-4.44285e-11
0.0167979
1.04225e-06
-4.0308e-11
0.016795
2.78148e-06
-1.16706e-10
0.0167881
5.91659e-06
-8.59947e-12
0.0167707
1.64614e-05
-3.20633e-10
0.0167125
5.41377e-05
-1.21634e-10
0.016537
0.00016741
-1.0108e-09
0.0154962
0.00101139
-1.985e-09
0.0143221
0.00117717
-4.85436e-11
0.0131326
0.00118983
-2.87422e-10
0.0118689
0.00126162
-3.90961e-10
0.0105248
0.00134221
-3.72979e-10
0.00908719
0.00143563
-3.58545e-10
0.00753154
0.00155422
-4.35478e-10
0.00584533
0.00168432
-5.25932e-10
0.0040388
0.00180492
-6.02892e-10
0.00210295
0.00193427
-6.87901e-10
0.00210075
-7.68359e-10
0.0168001
4.41667e-10
-3.48349e-12
0.0168001
2.43919e-09
-1.16237e-11
0.0168
9.08789e-09
-1.36401e-11
0.0168
2.33706e-08
-2.1502e-11
0.0168
6.45118e-08
-2.20868e-11
0.0167999
1.49045e-07
-2.95329e-11
0.0167997
3.80689e-07
-3.06953e-11
0.0167992
9.06903e-07
-4.52177e-11
0.016798
2.07348e-06
-4.00108e-11
0.0167953
5.37382e-06
-1.21827e-10
0.016788
1.22001e-05
-3.2421e-12
0.0167703
3.31212e-05
-3.32595e-10
0.0167086
0.000111803
-1.14718e-10
0.0165257
0.000342196
-1.02113e-09
0.0154675
0.00203982
-1.99154e-09
0.0142706
0.00237747
1.91792e-11
0.0130925
0.00236822
-2.61082e-10
0.0118441
0.00250799
-3.93549e-10
0.0105096
0.0026749
-3.79969e-10
0.00906181
0.00288157
-3.69818e-10
0.00748937
0.00312525
-4.39156e-10
0.00578859
0.00338339
-5.15235e-10
0.0039596
0.00363233
-5.81087e-10
0.00201514
0.00387708
-6.50369e-10
0.00411382
-7.11691e-10
0.0168001
6.09209e-10
-3.45652e-12
0.0168001
3.38455e-09
-1.16279e-11
0.0168001
1.25837e-08
-1.35613e-11
0.0168
3.23765e-08
-2.15178e-11
0.0168
8.91798e-08
-2.17179e-11
0.0168
2.05013e-07
-2.91546e-11
0.0167998
5.31621e-07
-2.97707e-11
0.0167994
1.20803e-06
-4.23384e-11
0.0167982
3.09551e-06
-4.04666e-11
0.0167966
6.92436e-06
-1.09318e-10
0.0167877
2.0042e-05
-1.91398e-11
0.0167713
4.86731e-05
-3.27957e-10
0.0167133
0.000165874
-1.62761e-10
0.0165301
0.000517663
-1.10168e-09
0.0155045
0.00303492
-2.22472e-09
0.0142915
0.00359445
1.66554e-10
0.0131104
0.00354964
-1.44181e-10
0.0118721
0.00374418
-3.65693e-10
0.0105491
0.00399592
-3.71852e-10
0.00910616
0.00432274
-3.78335e-10
0.00752943
0.00470057
-4.2624e-10
0.00582085
0.00509021
-4.82236e-10
0.00397811
0.00547343
-5.29999e-10
0.00201732
0.00583649
-5.74574e-10
0.00612916
-6.10728e-10
0.0168001
7.74984e-10
-3.4275e-12
0.0168001
4.26549e-09
-1.1641e-11
0.0168001
1.58965e-08
-1.35095e-11
0.0168
4.07213e-08
-2.15994e-11
0.0168
1.12845e-07
-2.15371e-11
0.0168
2.59258e-07
-2.91516e-11
0.0167998
6.76558e-07
-2.94075e-11
0.0167994
1.54766e-06
-4.03374e-11
0.0167984
3.94487e-06
-4.23161e-11
0.0167962
9.01699e-06
-7.8338e-11
0.0167891
2.59665e-05
-9.45913e-11
0.0167728
6.42442e-05
-2.38628e-10
0.0167159
0.000218823
-2.75041e-10
0.0165366
0.000688215
-1.16146e-09
0.0155542
0.00398577
-2.38436e-09
0.0143186
0.00483448
2.91574e-10
0.0131399
0.00472865
-8.17652e-11
0.0119237
0.00495817
-3.67265e-10
0.0106273
0.00529034
-3.80033e-10
0.00920915
0.00573906
-3.87677e-10
0.00764812
0.00626019
-4.05969e-10
0.00593522
0.00680124
-4.42244e-10
0.00407951
0.00732761
-4.69527e-10
0.00207829
0.00783588
-4.8946e-10
0.00820547
-5.05033e-10
0.0168001
8.22195e-10
-3.38956e-12
0.0168001
4.53631e-09
-1.16518e-11
0.0168001
1.69551e-08
-1.34512e-11
0.0168001
4.32705e-08
-2.17542e-11
0.0168
1.2023e-07
-2.12684e-11
0.0168
2.7326e-07
-2.93055e-11
0.0167999
7.32895e-07
-2.92277e-11
0.0167999
1.57769e-06
-4.04842e-11
0.016799
4.58045e-06
-4.19754e-11
0.0167986
9.4093e-06
-7.83968e-11
0.0167922
3.11417e-05
-9.61401e-11
0.016785
7.06796e-05
-2.35407e-10
0.0167004
0.000299417
-2.84191e-10
0.0165362
0.000843712
-1.16952e-09
0.0156151
0.00487419
-2.49002e-09
0.0143467
0.00610854
3.40669e-10
0.0131859
0.00589065
-6.63782e-11
0.0120045
0.00613774
-3.80515e-10
0.0107475
0.00654534
-3.92226e-10
0.00936248
0.00712187
-3.92005e-10
0.00783768
0.00778361
-3.86021e-10
0.00614875
0.00848824
-4.03784e-10
0.0042626
0.00921218
-4.15373e-10
0.00220185
0.00989547
-4.17115e-10
0.0104054
-4.14588e-10
0.0168001
8.51109e-10
-3.35842e-12
0.0168001
4.727e-09
-1.16426e-11
0.0168001
1.76799e-08
-1.34867e-11
0.0168001
4.51038e-08
-2.15809e-11
0.0168
1.25051e-07
-2.14461e-11
0.0168
2.81837e-07
-2.90278e-11
0.0168
7.73429e-07
-2.9125e-11
0.0168
1.5431e-06
-3.94166e-11
0.0167991
5.24513e-06
-4.17783e-11
0.0167997
8.74429e-06
-7.33629e-11
0.016791
3.87901e-05
-9.31642e-11
0.0167843
7.65968e-05
-2.20187e-10
0.0167244
0.000355359
-2.94058e-10
0.016589
0.000972357
-1.13087e-09
0.0159281
0.00549995
-2.59649e-09
0.0145856
0.00745793
3.55941e-10
0.0133902
0.00708772
-7.74837e-11
0.0122098
0.00731771
-3.95632e-10
0.0109912
0.00776396
-4.03583e-10
0.00964159
0.0084713
-3.93832e-10
0.00813686
0.00928795
-3.69596e-10
0.00645872
0.0101648
-3.73202e-10
0.00456037
0.0111092
-3.70231e-10
0.00238914
0.0120651
-3.55394e-10
0.0127927
-3.42475e-10
0.0168001
1.01285e-09
-3.34077e-12
0.0168001
5.58948e-09
-1.16072e-11
0.0168001
2.08028e-08
-1.35959e-11
0.0168
5.31627e-08
-2.13848e-11
0.0168
1.46999e-07
-2.18697e-11
0.0168
3.34222e-07
-2.90658e-11
0.0167998
8.95278e-07
-2.98698e-11
0.0167994
1.88991e-06
-4.2787e-11
0.0167987
5.84415e-06
-3.8694e-11
0.0167975
9.93858e-06
-1.12962e-10
0.0167918
4.32481e-05
-9.52844e-12
0.0167853
8.29122e-05
-3.14219e-10
0.0167587
0.000378025
-1.22198e-10
0.0166985
0.00102645
-1.0259e-09
0.0165401
0.00562244
-2.41311e-09
0.0151293
0.00887541
1.53776e-10
0.0138265
0.00839227
-1.92311e-10
0.0126063
0.00853486
-4.11972e-10
0.0113978
0.00896918
-4.08628e-10
0.0100969
0.00977023
-3.87245e-10
0.00862326
0.0107609
-3.59422e-10
0.00694494
0.0118421
-3.51931e-10
0.00500657
0.0130465
-3.38779e-10
0.00272263
0.0143482
-3.13054e-10
0.0155136
-2.87414e-10
0.0168001
1.12742e-09
-3.30435e-12
0.0168001
6.22902e-09
-1.15887e-11
0.0168001
2.32006e-08
-1.35643e-11
0.0168
5.94551e-08
-2.12722e-11
0.0168
1.64269e-07
-2.15725e-11
0.0168
3.75544e-07
-2.83479e-11
0.0167999
9.87926e-07
-2.83672e-11
0.0167995
2.18941e-06
-3.64697e-11
0.0167993
5.96475e-06
-3.90128e-11
0.0167966
1.25248e-05
-6.81359e-11
0.0167975
4.13169e-05
-5.40989e-11
0.0167974
8.2511e-05
-2.15997e-10
0.0168125
0.000358943
-2.00383e-10
0.0168809
0.00095324
-8.92215e-10
0.0175434
0.00492335
-2.22912e-09
0.016063
0.0103585
-1.08379e-10
0.0145141
0.00994484
-3.10015e-10
0.0132541
0.00979719
-4.06457e-10
0.0120426
0.0101826
-3.97177e-10
0.0107401
0.0110718
-3.79231e-10
0.00929873
0.0122016
-3.57179e-10
0.00764477
0.0134947
-3.39959e-10
0.00569785
0.0149922
-3.17019e-10
0.00325751
0.0167872
-2.79671e-10
0.0187694
-2.45682e-10
0.0168001
1.41463e-09
-3.26533e-12
0.0168001
6.31152e-09
-1.15958e-11
0.0168001
2.50458e-08
-1.35604e-11
0.0168001
6.20041e-08
-2.12661e-11
0.0168
1.74559e-07
-2.15151e-11
0.0168
3.90603e-07
-2.82316e-11
0.0167999
1.04068e-06
-2.79257e-11
0.0167999
2.25997e-06
-3.552e-11
0.0167996
6.13678e-06
-3.76773e-11
0.0167993
1.27392e-05
-5.36703e-11
0.0168009
3.89725e-05
-6.1748e-11
0.0168025
8.04548e-05
-1.59228e-10
0.0168505
0.000308103
-1.74659e-10
0.0170143
0.000782989
-6.49391e-10
0.0182945
0.0036266
-1.25389e-09
0.0170999
0.0115402
-9.86018e-10
0.0152786
0.0117612
-5.71848e-10
0.0141038
0.0109707
-3.31432e-10
0.0128703
0.0114152
-3.48073e-10
0.0116258
0.0123153
-3.76865e-10
0.0102193
0.0136076
-3.62287e-10
0.00866509
0.0150479
-3.36628e-10
0.00681512
0.0168412
-3.13595e-10
0.00425867
0.0193429
-2.61481e-10
0.0230265
-2.16235e-10
0.0168001
-3.31283e-12
2.53096e-09
0.0168001
-1.15311e-11
2.3059e-09
0.0168001
-1.37349e-11
3.46764e-08
0.0168001
-2.13515e-11
3.24151e-08
0.0168
-2.16752e-11
2.31453e-07
0.0168002
-2.83523e-11
2.14376e-07
0.0167998
-2.80441e-11
1.3894e-06
0.0168009
-3.56188e-11
1.19956e-06
0.0167983
-3.76614e-11
8.61451e-06
0.0168054
-5.50441e-11
5.48831e-06
0.016783
-5.45105e-11
6.07868e-05
0.016838
-1.8324e-10
2.46802e-05
0.0167091
-1.0802e-10
0.000434066
0.0169946
-6.5665e-10
0.00049639
0.0173505
-1.01205e-09
0.00325613
0.0168868
-1.76272e-09
0.0119782
0.0160243
-9.5091e-10
0.0126121
0.0148
-1.1162e-10
0.0121967
0.0136381
-2.93592e-10
0.0125763
0.0125601
-3.50002e-10
0.0133915
0.0113831
-3.63891e-10
0.014783
0.0100727
-3.49304e-10
0.0163567
0.00836757
-3.11089e-10
0.0185446
0.00590417
-2.42747e-10
0.0218049
-1.89698e-10
0.0289288
0.0168001
2.34092e-10
-6.17995e-16
0.0168001
1.26009e-09
-3.22081e-15
0.0168
4.69765e-09
-7.54878e-15
0.0168
1.21001e-08
-1.58784e-14
0.0168
3.32366e-08
-3.2731e-14
0.0167999
7.69806e-08
-6.32553e-14
0.0167997
1.94839e-07
-1.40437e-13
0.0167992
4.68681e-07
-3.02236e-13
0.0167979
1.04298e-06
-6.22423e-13
0.016795
2.78002e-06
-1.69467e-12
0.0167881
5.9207e-06
-2.5236e-12
0.0167707
1.64547e-05
-9.5547e-12
0.0167125
5.41342e-05
-2.21409e-11
0.0165371
0.000167374
-7.71658e-11
0.0154964
0.00101122
-2.06494e-10
0.0143225
0.00117704
1.79588e-11
0.013133
0.00118975
-3.60771e-12
0.0118694
0.00126156
-2.25906e-11
0.0105254
0.00134213
-2.32341e-11
0.00908789
0.00143551
-2.28199e-11
0.00753235
0.00155411
-2.22092e-11
0.00584615
0.00168431
-2.28426e-11
0.00403948
0.00180506
-2.35574e-11
0.00210334
0.00193455
-2.38063e-11
0.00210112
-2.35472e-11
0.0168001
4.54865e-10
-6.17201e-16
0.0168001
2.4476e-09
-3.2135e-15
0.0168
9.13545e-09
-7.5419e-15
0.0168
2.33966e-08
-1.58706e-14
0.0168
6.47233e-08
-3.28048e-14
0.0167999
1.49377e-07
-6.35502e-14
0.0167997
3.81446e-07
-1.41252e-13
0.0167992
9.0924e-07
-3.07588e-13
0.016798
2.07445e-06
-6.22094e-13
0.0167952
5.38594e-06
-1.72799e-12
0.016788
1.21913e-05
-3.7254e-12
0.0167703
3.31306e-05
-9.62779e-12
0.0167086
0.000111744
-2.45784e-11
0.0165258
0.000342096
-7.7143e-11
0.015468
0.00203931
-2.07083e-10
0.0142712
0.0023772
2.55936e-11
0.0130931
0.00236817
-3.17635e-12
0.0118447
0.00250794
-2.25188e-11
0.0105102
0.00267483
-2.30426e-11
0.00906234
0.00288146
-2.24954e-11
0.00748984
0.0031252
-2.19703e-11
0.00578897
0.00338346
-2.25879e-11
0.00395988
0.00363256
-2.33086e-11
0.00201529
0.00387749
-2.35123e-11
0.00411434
-2.32671e-11
0.0168001
6.23745e-10
-5.93012e-16
0.0168001
3.39159e-09
-3.09366e-15
0.0168001
1.26214e-08
-7.14827e-15
0.0168
3.23735e-08
-1.51867e-14
0.0168
8.9277e-08
-3.04527e-14
0.0168
2.05112e-07
-5.91613e-14
0.0167998
5.31883e-07
-1.33363e-13
0.0167994
1.20887e-06
-2.81782e-13
0.0167982
3.09593e-06
-6.25912e-13
0.0167965
6.93489e-06
-1.61642e-12
0.0167877
2.00215e-05
-3.1896e-12
0.0167712
4.86971e-05
-9.49484e-12
0.0167132
0.000165837
-2.52009e-11
0.0165299
0.000517599
-7.79758e-11
0.0155042
0.00303461
-2.11569e-10
0.0142913
0.00359409
2.33549e-11
0.0131103
0.00354944
-2.18194e-12
0.0118722
0.00374403
-2.22498e-11
0.0105492
0.00399579
-2.25702e-11
0.00910626
0.00432262
-2.17942e-11
0.00752952
0.00470053
-2.14557e-11
0.00582091
0.0050903
-2.2178e-11
0.00397814
0.00547368
-2.29478e-11
0.00201734
0.0058369
-2.3243e-11
0.00612969
-2.31759e-11
0.0168001
7.93596e-10
-5.92031e-16
0.0168001
4.27556e-09
-3.08238e-15
0.0168001
1.59376e-08
-7.13393e-15
0.0168
4.06817e-08
-1.51714e-14
0.0168
1.12978e-07
-3.0319e-14
0.0168
2.59259e-07
-5.86236e-14
0.0167998
6.76708e-07
-1.31435e-13
0.0167994
1.54777e-06
-2.63983e-13
0.0167984
3.9453e-06
-6.48706e-13
0.0167962
9.01783e-06
-1.34601e-12
0.0167891
2.59675e-05
-3.86203e-12
0.0167728
6.42469e-05
-9.20122e-12
0.0167159
0.000218821
-2.37689e-11
0.0165366
0.000688216
-8.04335e-11
0.0155539
0.00398566
-2.14077e-10
0.0143183
0.00483413
2.70967e-11
0.0131397
0.00472841
-2.59158e-12
0.0119235
0.00495797
-2.25488e-11
0.0106272
0.00529017
-2.2377e-11
0.00920903
0.00573893
-2.10324e-11
0.007648
0.00626015
-2.07133e-11
0.0059351
0.00680132
-2.1599e-11
0.00407942
0.00732782
-2.2305e-11
0.00207823
0.00783626
-2.26469e-11
0.00820594
-2.2974e-11
0.0168001
8.37597e-10
-5.85042e-16
0.0168001
4.55379e-09
-3.03561e-15
0.0168001
1.6955e-08
-7.04808e-15
0.0168001
4.33634e-08
-1.50098e-14
0.0168
1.20185e-07
-3.00941e-14
0.0168
2.73391e-07
-5.84679e-14
0.0167999
7.32974e-07
-1.30719e-13
0.0167999
1.57817e-06
-2.66181e-13
0.016799
4.58043e-06
-6.44504e-13
0.0167986
9.41087e-06
-1.35354e-12
0.0167922
3.11433e-05
-3.92798e-12
0.016785
7.06918e-05
-9.13918e-12
0.0167004
0.000299422
-2.45758e-11
0.0165361
0.000843778
-8.10951e-11
0.0156148
0.00487432
-2.21128e-10
0.0143464
0.0061082
3.05834e-11
0.0131856
0.00589038
-9.94729e-13
0.0120042
0.00613751
-2.16837e-11
0.0107473
0.00654514
-2.12962e-11
0.00936224
0.00712172
-1.95396e-11
0.00783746
0.00778355
-1.92611e-11
0.00614855
0.0084883
-2.04026e-11
0.00426244
0.00921236
-2.15076e-11
0.00220177
0.00989576
-2.21994e-11
0.0104058
-2.26616e-11
0.0168001
8.6075e-10
-5.53899e-16
0.0168001
4.75485e-09
-2.91107e-15
0.0168001
1.7652e-08
-6.58091e-15
0.0168001
4.5199e-08
-1.39652e-14
0.0168
1.24929e-07
-2.69956e-14
0.0168
2.81843e-07
-5.12187e-14
0.0168
7.73209e-07
-1.16244e-13
0.0168
1.54207e-06
-2.0982e-13
0.0167991
5.24689e-06
-6.37376e-13
0.0167997
8.72982e-06
-1.0481e-12
0.016791
3.883e-05
-3.99729e-12
0.0167843
7.65641e-05
-7.41417e-12
0.0167243
0.000355473
-3.09674e-11
0.0165889
0.000972483
-7.92117e-11
0.0159276
0.00550047
-2.32191e-10
0.0145851
0.00745759
3.6725e-11
0.0133898
0.00708735
2.93476e-12
0.0122094
0.00731743
-2.11061e-11
0.0109909
0.00776373
-2.08416e-11
0.00964126
0.00847113
-1.88873e-11
0.00813656
0.00928785
-1.79088e-11
0.00645847
0.0101648
-1.89872e-11
0.00456019
0.0111093
-2.01691e-11
0.00238903
0.0120653
-2.08836e-11
0.012793
-2.17663e-11
0.0168001
1.03095e-09
-5.17948e-16
0.0168001
5.61232e-09
-2.78285e-15
0.0168001
2.0839e-08
-6.10933e-15
0.0168
5.32381e-08
-1.26449e-14
0.0168
1.47204e-07
-2.39044e-14
0.0168
3.34668e-07
-4.32715e-14
0.0167998
8.96281e-07
-9.9254e-14
0.0167994
1.89355e-06
-1.3957e-13
0.0167987
5.84591e-06
-6.48506e-13
0.0167975
9.96061e-06
-4.14027e-13
0.0167919
4.32389e-05
-4.69378e-12
0.0167853
8.29676e-05
-5.64599e-12
0.0167587
0.000378014
-3.05205e-11
0.0166985
0.00102659
-7.72403e-11
0.0165399
0.00562316
-2.36968e-10
0.0151291
0.00887509
3.16328e-11
0.0138263
0.00839193
5.07746e-12
0.0126061
0.0085346
-1.82777e-11
0.0113975
0.00896898
-1.85637e-11
0.0100965
0.00977008
-1.74578e-11
0.00862295
0.0107607
-1.65506e-11
0.00694468
0.011842
-1.77618e-11
0.00500637
0.0130465
-1.90448e-11
0.00272252
0.0143483
-1.99347e-11
0.0155137
-2.0756e-11
0.0168001
1.14658e-09
-5.34168e-16
0.0168001
6.2327e-09
-2.83471e-15
0.0168001
2.32161e-08
-6.34951e-15
0.0168
5.94572e-08
-1.32434e-14
0.0168
1.643e-07
-2.57174e-14
0.0168
3.75635e-07
-4.83755e-14
0.0167999
9.88277e-07
-1.06622e-13
0.0167996
2.19034e-06
-2.03832e-13
0.0167993
5.96675e-06
-5.71685e-13
0.0167966
1.25343e-05
-8.99861e-13
0.0167975
4.1323e-05
-3.99059e-12
0.0167974
8.25442e-05
-6.15903e-12
0.0168124
0.000358992
-2.88334e-11
0.0168808
0.000953424
-7.16911e-11
0.0175428
0.00492454
-2.3079e-10
0.0160626
0.0103581
5.60184e-12
0.0145138
0.00994431
-5.9172e-12
0.0132538
0.00979691
-1.79331e-11
0.0120423
0.0101824
-1.78829e-11
0.0107398
0.0110717
-1.75255e-11
0.00929844
0.0122015
-1.66355e-11
0.00764452
0.0134946
-1.72868e-11
0.00569767
0.0149921
-1.81991e-11
0.0032574
0.0167872
-1.89138e-11
0.0187695
-1.96362e-11
0.0168001
1.37781e-09
-5.12138e-16
0.0168001
6.42334e-09
-2.74054e-15
0.0168001
2.48885e-08
-6.00891e-15
0.0168001
6.1877e-08
-1.24933e-14
0.0168
1.74306e-07
-2.32737e-14
0.0168
3.90395e-07
-4.31422e-14
0.0167999
1.04042e-06
-8.98078e-14
0.0167999
2.25988e-06
-1.68243e-13
0.0167996
6.13665e-06
-4.36178e-13
0.0167993
1.27405e-05
-7.75988e-13
0.0168009
3.8974e-05
-2.85311e-12
0.0168025
8.04634e-05
-4.02833e-12
0.0168506
0.000308131
-2.0092e-11
0.0170144
0.000783056
-4.81181e-11
0.0182953
0.00362713
-1.26845e-10
0.0171
0.0115406
-8.9008e-11
0.0152786
0.0117608
-3.67914e-11
0.0141037
0.0109705
-1.26304e-11
0.0128701
0.0114151
-1.53136e-11
0.0116255
0.0123152
-1.98243e-11
0.0102191
0.0136075
-1.92514e-11
0.00866489
0.0150478
-1.9069e-11
0.00681496
0.0168411
-1.92229e-11
0.00425858
0.0193428
-1.93673e-11
0.0230265
-1.95369e-11
0.0168001
-5.06848e-16
2.40157e-09
0.0168001
-2.71023e-15
2.68241e-09
0.0168001
-5.92311e-15
3.35229e-08
0.0168001
-1.22707e-14
3.28602e-08
0.0168
-2.27598e-14
2.30241e-07
0.0168002
-4.19954e-14
2.14865e-07
0.0167998
-8.7636e-14
1.38822e-06
0.0168009
-1.65118e-13
1.20021e-06
0.0167983
-4.19693e-13
8.61292e-06
0.0168054
-8.24609e-13
5.49117e-06
0.016783
-2.24328e-12
6.07762e-05
0.016838
-5.74815e-12
2.47088e-05
0.0167092
-1.3923e-11
0.000434021
0.0169945
-4.60617e-11
0.000496565
0.0173508
-1.0568e-10
0.00325635
0.0168872
-1.74731e-10
0.0119783
0.016024
-8.60426e-11
0.0126125
0.0147999
8.39488e-12
0.0121965
0.013638
-1.31329e-11
0.0125761
0.01256
-1.96808e-11
0.0133914
0.0113829
-2.23222e-11
0.0147828
0.0100725
-2.21818e-11
0.0163566
0.00836746
-2.16958e-11
0.0185445
0.00590411
-2.09643e-11
0.0218048
-2.14678e-11
0.0289288
0.0168001
2.34092e-10
1.93284e-16
0.0168001
1.2601e-09
1.77708e-17
0.0168
4.69768e-09
-1.65265e-16
0.0168
1.21001e-08
-3.60067e-16
0.0168
3.32368e-08
-1.02116e-15
0.0167999
7.69809e-08
-2.13029e-15
0.0167997
1.9484e-07
-5.74021e-15
0.0167992
4.68681e-07
-1.31343e-14
0.0167979
1.04299e-06
-2.8869e-14
0.016795
2.78002e-06
-8.13617e-14
0.0167881
5.92073e-06
-1.51645e-13
0.0167707
1.64547e-05
-4.78702e-13
0.0167125
5.41342e-05
-1.27148e-12
0.0165371
0.000167374
-4.00928e-12
0.0154964
0.00101122
-1.08458e-11
0.0143225
0.00117704
7.82372e-13
0.013133
0.00118975
-2.78917e-13
0.0118694
0.00126156
-1.22902e-12
0.0105254
0.00134213
-1.26249e-12
0.00908789
0.00143551
-1.22303e-12
0.00753236
0.00155411
-1.17185e-12
0.00584615
0.00168431
-1.16736e-12
0.00403948
0.00180506
-1.2035e-12
0.00210334
0.00193455
-1.21583e-12
0.00210112
-1.23592e-12
0.0168001
4.54876e-10
1.93224e-16
0.0168001
2.44766e-09
1.96698e-17
0.0168
9.13568e-09
-1.64731e-16
0.0168
2.33971e-08
-3.5918e-16
0.0168
6.47248e-08
-1.02295e-15
0.0167999
1.4938e-07
-2.14078e-15
0.0167997
3.81453e-07
-5.76878e-15
0.0167992
9.09262e-07
-1.33713e-14
0.016798
2.07446e-06
-2.88111e-14
0.0167952
5.38605e-06
-8.2879e-14
0.016788
1.21912e-05
-1.50747e-13
0.0167703
3.31307e-05
-4.81628e-13
0.0167086
0.000111743
-1.27207e-12
0.0165258
0.000342096
-4.00411e-12
0.015468
0.00203931
-1.08698e-11
0.0142712
0.00237719
8.71437e-13
0.0130931
0.00236817
-2.58713e-13
0.0118447
0.00250794
-1.22837e-12
0.0105102
0.00267483
-1.25628e-12
0.00906234
0.00288146
-1.21232e-12
0.00748984
0.0031252
-1.16003e-12
0.00578897
0.00338346
-1.15879e-12
0.00395987
0.00363256
-1.19265e-12
0.00201529
0.00387749
-1.20167e-12
0.00411433
-1.21926e-12
0.0168001
6.23746e-10
1.90798e-16
0.0168001
3.3916e-09
5.03502e-17
0.0168001
1.26214e-08
-1.47208e-16
0.0168
3.23736e-08
-3.18359e-16
0.0168
8.92773e-08
-9.19194e-16
0.0168
2.05112e-07
-1.91088e-15
0.0167998
5.31885e-07
-5.36822e-15
0.0167994
1.20888e-06
-1.19951e-14
0.0167982
3.09594e-06
-2.89812e-14
0.0167965
6.93498e-06
-7.64654e-14
0.0167877
2.00213e-05
-1.59532e-13
0.0167712
4.86971e-05
-4.72145e-13
0.0167132
0.000165838
-1.30095e-12
0.0165299
0.000517599
-4.03318e-12
0.0155042
0.00303461
-1.10686e-11
0.0142913
0.00359408
1.04349e-12
0.0131103
0.00354944
-2.12549e-13
0.0118722
0.00374403
-1.2217e-12
0.0105492
0.00399579
-1.24149e-12
0.00910627
0.00432262
-1.18873e-12
0.00752952
0.00470053
-1.14114e-12
0.00582091
0.0050903
-1.14446e-12
0.00397814
0.00547368
-1.17829e-12
0.00201734
0.0058369
-1.1837e-12
0.00612969
-1.19581e-12
0.0168001
7.93602e-10
1.90743e-16
0.0168001
4.2756e-09
5.30615e-17
0.0168001
1.59377e-08
-1.46169e-16
0.0168
4.0682e-08
-3.16513e-16
0.0168
1.12979e-07
-9.09297e-16
0.0168
2.5926e-07
-1.87753e-15
0.0167998
6.76711e-07
-5.25294e-15
0.0167994
1.54777e-06
-1.11024e-14
0.0167984
3.94532e-06
-2.99368e-14
0.0167962
9.01786e-06
-6.32455e-14
0.0167891
2.59676e-05
-1.90873e-13
0.0167728
6.4247e-05
-4.56985e-13
0.0167159
0.000218821
-1.22196e-12
0.0165366
0.000688216
-4.14188e-12
0.0155539
0.00398566
-1.11747e-11
0.0143184
0.00483412
1.22251e-12
0.0131397
0.0047284
-2.31861e-13
0.0119235
0.00495797
-1.2436e-12
0.0106272
0.00529018
-1.24386e-12
0.00920903
0.00573893
-1.16651e-12
0.00764801
0.00626015
-1.12048e-12
0.0059351
0.00680133
-1.12484e-12
0.00407943
0.00732783
-1.15772e-12
0.00207823
0.00783626
-1.15675e-12
0.00820594
-1.16783e-12
0.0168001
8.3761e-10
1.89733e-16
0.0168001
4.55385e-09
6.55519e-17
0.0168001
1.69553e-08
-1.41675e-16
0.0168001
4.3364e-08
-3.07237e-16
0.0168
1.20187e-07
-8.93451e-16
0.0168
2.73396e-07
-1.85665e-15
0.0167999
7.32984e-07
-5.18466e-15
0.0167999
1.57821e-06
-1.11123e-14
0.016799
4.58046e-06
-2.95933e-14
0.0167986
9.41106e-06
-6.31053e-14
0.0167922
3.11435e-05
-1.93079e-13
0.016785
7.06928e-05
-4.50958e-13
0.0167004
0.000299419
-1.25627e-12
0.0165361
0.00084378
-4.15016e-12
0.0156148
0.00487433
-1.14707e-11
0.0143464
0.00610818
1.3947e-12
0.0131856
0.00589038
-1.99146e-13
0.0120042
0.00613751
-1.21538e-12
0.0107473
0.00654515
-1.21016e-12
0.00936225
0.00712173
-1.11904e-12
0.00783747
0.00778356
-1.07413e-12
0.00614856
0.00848831
-1.08528e-12
0.00426244
0.00921237
-1.13127e-12
0.00220177
0.00989577
-1.13575e-12
0.0104058
-1.14174e-12
0.0168001
8.60765e-10
1.86566e-16
0.0168001
4.75491e-09
9.39097e-17
0.0168001
1.76522e-08
-1.19498e-16
0.0168001
4.51997e-08
-2.58229e-16
0.0168
1.2493e-07
-7.44922e-16
0.0168
2.81848e-07
-1.51035e-15
0.0168
7.7322e-07
-4.47577e-15
0.0168
1.54211e-06
-8.38662e-15
0.0167991
5.2469e-06
-2.90584e-14
0.0167997
8.73011e-06
-4.80595e-14
0.016791
3.88297e-05
-1.95067e-13
0.0167843
7.65651e-05
-3.62957e-13
0.0167243
0.000355473
-1.56076e-12
0.0165889
0.000972487
-4.02295e-12
0.0159276
0.0055005
-1.19302e-11
0.0145851
0.00745757
1.68794e-12
0.0133898
0.00708734
6.25114e-15
0.0122094
0.00731743
-1.1968e-12
0.0109908
0.00776373
-1.19588e-12
0.00964126
0.00847113
-1.09757e-12
0.00813656
0.00928786
-1.03103e-12
0.00645848
0.0101648
-1.04296e-12
0.00456019
0.0111093
-1.09106e-12
0.00238903
0.0120654
-1.09611e-12
0.012793
-1.10678e-12
0.0168001
1.03095e-09
1.82005e-16
0.0168001
5.6123e-09
1.22146e-16
0.0168001
2.08389e-08
-9.72538e-17
0.0168
5.32378e-08
-2.07369e-16
0.0168
1.47203e-07
-5.95491e-16
0.0168
3.34666e-07
-1.16667e-15
0.0167998
8.96278e-07
-3.6994e-15
0.0167994
1.89352e-06
-5.25932e-15
0.0167987
5.84595e-06
-2.93292e-14
0.0167975
9.96045e-06
-1.92423e-14
0.0167919
4.32394e-05
-2.39262e-13
0.0167853
8.29678e-05
-2.78851e-13
0.0167587
0.000378018
-1.61977e-12
0.0166985
0.0010266
-3.88629e-12
0.0165398
0.00562323
-1.204e-11
0.0151291
0.00887506
1.41585e-12
0.0138263
0.00839191
7.29789e-14
0.0126061
0.00853459
-1.09204e-12
0.0113975
0.00896898
-1.11028e-12
0.0100965
0.00977008
-1.04647e-12
0.00862294
0.0107607
-9.93242e-13
0.00694467
0.011842
-1.01476e-12
0.00500637
0.0130465
-1.06729e-12
0.00272252
0.0143483
-1.08188e-12
0.0155137
-1.08287e-12
0.0168001
1.14659e-09
1.8426e-16
0.0168001
6.23274e-09
1.10742e-16
0.0168001
2.32163e-08
-1.07314e-16
0.0168
5.94577e-08
-2.32716e-16
0.0168
1.64301e-07
-6.71512e-16
0.0168
3.75638e-07
-1.38338e-15
0.0167999
9.88287e-07
-3.99436e-15
0.0167996
2.19036e-06
-8.04376e-15
0.0167993
5.96682e-06
-2.56712e-14
0.0167966
1.25344e-05
-4.01284e-14
0.0167975
4.13236e-05
-1.92299e-13
0.0167974
8.25457e-05
-2.93872e-13
0.0168124
0.000359
-1.42459e-12
0.0168808
0.000953444
-3.56176e-12
0.0175428
0.00492467
-1.15746e-11
0.0160625
0.010358
1.19077e-13
0.0145138
0.00994426
-5.01185e-13
0.0132537
0.00979689
-1.08301e-12
0.0120422
0.0101824
-1.08111e-12
0.0107397
0.0110717
-1.04979e-12
0.00929842
0.0122015
-1.01587e-12
0.00764451
0.0134946
-1.02385e-12
0.00569767
0.0149921
-1.06459e-12
0.0032574
0.0167872
-1.0788e-12
0.0187695
-1.07471e-12
0.0168001
1.37781e-09
1.8155e-16
0.0168001
6.42338e-09
1.30483e-16
0.0168001
2.48886e-08
-9.07376e-17
0.0168001
6.18773e-08
-1.9629e-16
0.0168
1.74307e-07
-5.53031e-16
0.0168
3.90397e-07
-1.12984e-15
0.0167999
1.04043e-06
-3.17923e-15
0.0167999
2.25989e-06
-6.32893e-15
0.0167996
6.13668e-06
-1.90069e-14
0.0167993
1.27405e-05
-3.45719e-14
0.0168009
3.89744e-05
-1.34528e-13
0.0168025
8.04635e-05
-1.93728e-13
0.0168506
0.000308136
-9.7528e-13
0.0170145
0.000783065
-2.36595e-12
0.0182954
0.00362719
-6.285e-12
0.0171
0.0115406
-4.56004e-12
0.0152786
0.0117608
-2.05239e-12
0.0141036
0.0109705
-8.41632e-13
0.0128701
0.0114151
-9.60286e-13
0.0116255
0.0123152
-1.15509e-12
0.0102191
0.0136075
-1.13959e-12
0.00866487
0.0150478
-1.12386e-12
0.00681495
0.0168411
-1.13313e-12
0.00425858
0.0193429
-1.13938e-12
0.0230265
-1.12288e-12
0.0168001
1.80838e-16
2.40156e-09
0.0168001
1.38591e-16
2.68249e-09
0.0168001
-8.41095e-17
3.35229e-08
0.0168001
-1.81437e-16
3.28606e-08
0.0168
-5.20449e-16
2.30242e-07
0.0168002
-1.06194e-15
2.14867e-07
0.0167998
-3.04899e-15
1.38822e-06
0.0168009
-6.13069e-15
1.20022e-06
0.0167983
-1.80908e-14
8.61298e-06
0.0168054
-3.67004e-14
5.49122e-06
0.016783
-1.04405e-13
6.07765e-05
0.016838
-2.74912e-13
2.47093e-05
0.0167092
-6.72471e-13
0.000434024
0.0169945
-2.24857e-12
0.000496574
0.0173508
-5.2118e-12
0.00325639
0.0168872
-8.76348e-12
0.0119784
0.016024
-4.47417e-12
0.0126125
0.0147999
1.55816e-13
0.0121964
0.013638
-8.42198e-13
0.0125761
0.01256
-1.14466e-12
0.0133914
0.0113829
-1.27548e-12
0.0147828
0.0100725
-1.27572e-12
0.0163566
0.00836745
-1.26535e-12
0.0185445
0.0059041
-1.24982e-12
0.0218048
-1.26183e-12
0.0289288
0.0168001
2.34092e-10
-1.45972e-16
0.0168001
1.2601e-09
-5.18731e-16
0.0168
4.69768e-09
-1.48058e-15
0.0168
1.21001e-08
-3.02608e-15
0.0168
3.32368e-08
-8.13308e-15
0.0167999
7.6981e-08
-1.66997e-14
0.0167997
1.9484e-07
-4.40553e-14
0.0167992
4.68681e-07
-1.00914e-13
0.0167979
1.04299e-06
-2.15562e-13
0.016795
2.78002e-06
-6.186e-13
0.0167881
5.92073e-06
-1.09903e-12
0.0167707
1.64547e-05
-3.54843e-12
0.0167125
5.41342e-05
-9.27357e-12
0.0165371
0.000167374
-2.91787e-11
0.0154964
0.00101122
-8.04218e-11
0.0143225
0.00117704
8.39379e-12
0.013133
0.00118975
1.26636e-13
0.0118694
0.00126156
-7.05722e-12
0.0105254
0.00134213
-7.15797e-12
0.00908789
0.00143551
-6.71064e-12
0.00753236
0.00155411
-6.09506e-12
0.00584615
0.00168431
-6.29267e-12
0.00403948
0.00180506
-6.41416e-12
0.00210334
0.00193455
-6.49421e-12
0.00210112
-6.42467e-12
0.0168001
4.54877e-10
-1.45718e-16
0.0168001
2.44766e-09
-5.16496e-16
0.0168
9.13569e-09
-1.47925e-15
0.0168
2.33971e-08
-3.02587e-15
0.0168
6.47249e-08
-8.16734e-15
0.0167999
1.49381e-07
-1.68301e-14
0.0167997
3.81453e-07
-4.43892e-14
0.0167992
9.09263e-07
-1.03189e-13
0.016798
2.07446e-06
-2.15262e-13
0.0167952
5.38605e-06
-6.33346e-13
0.016788
1.21912e-05
-1.09036e-12
0.0167703
3.31307e-05
-3.58227e-12
0.0167086
0.000111743
-9.28483e-12
0.0165258
0.000342096
-2.91825e-11
0.015468
0.00203931
-8.06236e-11
0.0142712
0.00237719
9.0819e-12
0.0130931
0.00236818
3.05378e-13
0.0118447
0.00250794
-7.02648e-12
0.0105102
0.00267483
-7.08448e-12
0.00906234
0.00288146
-6.59116e-12
0.00748984
0.0031252
-6.01077e-12
0.00578897
0.00338346
-6.19634e-12
0.00395987
0.00363256
-6.314e-12
0.00201529
0.00387749
-6.37145e-12
0.00411433
-6.29078e-12
0.0168001
6.23746e-10
-1.31044e-16
0.0168001
3.39161e-09
-4.6928e-16
0.0168001
1.26214e-08
-1.33116e-15
0.0168
3.23736e-08
-2.68921e-15
0.0168
8.92774e-08
-7.3264e-15
0.0168
2.05112e-07
-1.49578e-14
0.0167998
5.31885e-07
-4.11873e-14
0.0167994
1.20888e-06
-9.18097e-14
0.0167982
3.09594e-06
-2.17871e-13
0.0167965
6.93499e-06
-5.80235e-13
0.0167877
2.00213e-05
-1.17179e-12
0.0167712
4.86971e-05
-3.51751e-12
0.0167132
0.000165838
-9.56873e-12
0.0165299
0.000517599
-2.95364e-11
0.0155042
0.00303461
-8.24473e-11
0.0142913
0.00359408
1.04265e-11
0.0131103
0.00354944
7.01781e-13
0.0118722
0.00374403
-6.92703e-12
0.0105492
0.00399579
-6.91847e-12
0.00910627
0.00432262
-6.35353e-12
0.00752952
0.00470053
-5.84678e-12
0.00582091
0.0050903
-6.06701e-12
0.00397814
0.00547368
-6.19049e-12
0.00201734
0.0058369
-6.26389e-12
0.00612969
-6.23137e-12
0.0168001
7.93603e-10
-1.30689e-16
0.0168001
4.27561e-09
-4.67062e-16
0.0168001
1.59377e-08
-1.32987e-15
0.0168
4.0682e-08
-2.6893e-15
0.0168
1.12979e-07
-7.3e-15
0.0168
2.5926e-07
-1.48094e-14
0.0167998
6.76711e-07
-4.05912e-14
0.0167994
1.54777e-06
-8.56556e-14
0.0167984
3.94532e-06
-2.26692e-13
0.0167962
9.01786e-06
-4.81259e-13
0.0167891
2.59676e-05
-1.42725e-12
0.0167728
6.4247e-05
-3.41392e-12
0.0167159
0.000218821
-9.04231e-12
0.0165366
0.000688216
-3.05136e-11
0.0155539
0.00398566
-8.35308e-11
0.0143184
0.00483412
1.18095e-11
0.0131397
0.0047284
5.23805e-13
0.0119235
0.00495797
-7.08212e-12
0.0106272
0.00529018
-6.90217e-12
0.00920903
0.00573893
-6.14052e-12
0.00764801
0.00626015
-5.63903e-12
0.0059351
0.00680133
-5.90872e-12
0.00407943
0.00732783
-6.01128e-12
0.00207823
0.00783626
-6.09559e-12
0.00820594
-6.16993e-12
0.0168001
8.37611e-10
-1.26041e-16
0.0168001
4.55385e-09
-4.48877e-16
0.0168001
1.69553e-08
-1.3e-15
0.0168001
4.3364e-08
-2.63173e-15
0.0168
1.20187e-07
-7.23524e-15
0.0168
2.73396e-07
-1.47847e-14
0.0167999
7.32985e-07
-4.04236e-14
0.0167999
1.57821e-06
-8.67356e-14
0.016799
4.58047e-06
-2.25711e-13
0.0167986
9.41107e-06
-4.8562e-13
0.0167922
3.11435e-05
-1.4564e-12
0.016785
7.06928e-05
-3.40086e-12
0.0167004
0.000299419
-9.37893e-12
0.0165361
0.00084378
-3.08295e-11
0.0156148
0.00487433
-8.64322e-11
0.0143464
0.00610818
1.31018e-11
0.0131856
0.00589038
1.14434e-12
0.0120042
0.00613751
-6.79435e-12
0.0107473
0.00654515