/*--------------------------------*- C++ -*----------------------------------*\
| =========                 |                                                 |
| \\      /  F ield         | OpenFOAM: The Open Source CFD Toolbox           |
|  \\    /   O peration     | Version:  4.1                                   |
|   \\  /    A nd           | Web:      www.OpenFOAM.org                      |
|    \\/     M anipulation  |                                                 |
\*---------------------------------------------------------------------------*/
FoamFile
{
    version     2.0;
    format      ascii;
    class       volVectorField;
    location    "6.86";
    object      U;
}
// * * * * * * * * * * * * * * * * * * * * * * * * * * * * * * * * * * * * * //

dimensions      [0 1 -1 0 0 0 0];

internalField   nonuniform List<vector> 
52500
(
(3 1.69157e-08 -0.00571426)
(2.99998 9.40346e-08 -0.00571441)
(2.99996 3.50271e-07 -0.00571464)
(2.99988 9.04901e-07 -0.00571536)
(2.99973 2.48574e-06 -0.00571668)
(2.9993 5.7572e-06 -0.0057207)
(2.99845 1.45395e-05 -0.00572847)
(2.99583 3.49043e-05 -0.00575022)
(2.99116 7.69222e-05 -0.00580067)
(2.97401 0.000202232 -0.00590852)
(2.943 0.000410596 -0.0062957)
(2.82769 0.00106206 -0.00687365)
(2.50975 0.00293034 -0.00953326)
(1.75184 0.00744229 -0.0145276)
(0.773301 0.020857 -0.0178799)
(0.50542 0.0212323 -0.0184909)
(0.557755 0.0225127 -0.0185147)
(0.569375 0.0247837 -0.0185706)
(0.519865 0.0270232 -0.0187508)
(0.433226 0.0292015 -0.0189321)
(0.347238 0.0318284 -0.0191307)
(0.276331 0.0350401 -0.0192975)
(0.205525 0.0384623 -0.0194646)
(0.124128 0.0425162 -0.0196172)
(0.0555634 0.0487601 -0.0197792)
(3 4.9852e-08 -0.00571426)
(2.99998 2.76633e-07 -0.00571441)
(2.99996 1.03204e-06 -0.00571463)
(2.99988 2.66348e-06 -0.00571534)
(2.99973 7.33899e-06 -0.00571664)
(2.99931 1.69951e-05 -0.0057206)
(2.99847 4.31836e-05 -0.00572827)
(2.99588 0.000103213 -0.00574953)
(2.9913 0.000231995 -0.00579968)
(2.97428 0.000599176 -0.00590486)
(2.94373 0.00127125 -0.00629096)
(2.82962 0.00322663 -0.00685655)
(2.5154 0.00916536 -0.00949795)
(1.76486 0.0232666 -0.0144417)
(0.780798 0.0640199 -0.0177781)
(0.502264 0.0621869 -0.0184194)
(0.556318 0.0633507 -0.0184405)
(0.568595 0.0677214 -0.0184882)
(0.518675 0.0718077 -0.0186604)
(0.431953 0.0756481 -0.0188341)
(0.34616 0.0802349 -0.0190239)
(0.274911 0.0855732 -0.0191808)
(0.203138 0.0906705 -0.0193374)
(0.120364 0.0957688 -0.0194793)
(0.0514131 0.10148 -0.0196253)
(3 7.82637e-08 -0.00571426)
(2.99998 4.34411e-07 -0.0057144)
(2.99996 1.61821e-06 -0.00571462)
(2.99989 4.16625e-06 -0.00571531)
(2.99974 1.14805e-05 -0.00571657)
(2.99933 2.64514e-05 -0.0057204)
(2.99852 6.79993e-05 -0.00572787)
(2.99599 0.000157512 -0.00574822)
(2.99158 0.000381135 -0.00579772)
(2.97486 0.000900114 -0.00589783)
(2.94524 0.00225296 -0.00628063)
(2.83373 0.0053773 -0.00682301)
(2.52781 0.0155484 -0.00942247)
(1.79431 0.0402156 -0.0142702)
(0.799466 0.110937 -0.0176278)
(0.49916 0.105743 -0.0183345)
(0.556956 0.106726 -0.0183525)
(0.570955 0.114097 -0.0183915)
(0.520719 0.121334 -0.0185563)
(0.434321 0.128778 -0.0187216)
(0.349186 0.137375 -0.0189016)
(0.277805 0.146903 -0.0190499)
(0.205165 0.156127 -0.019196)
(0.121158 0.16485 -0.019326)
(0.0505247 0.172374 -0.0194602)
(3 1.03279e-07 -0.00571426)
(2.99998 5.72604e-07 -0.00571439)
(2.99996 2.13581e-06 -0.0057146)
(2.99989 5.49394e-06 -0.00571526)
(2.99975 1.51777e-05 -0.00571647)
(2.99935 3.49247e-05 -0.00572014)
(2.99858 9.06425e-05 -0.00572732)
(2.99614 0.000206874 -0.0057467)
(2.99192 0.000523075 -0.00579461)
(2.97582 0.00117412 -0.00588957)
(2.94755 0.00324785 -0.00625985)
(2.8398 0.00753383 -0.00677214)
(2.54746 0.0216279 -0.00930859)
(1.8405 0.0570376 -0.0140138)
(0.826867 0.158399 -0.0174367)
(0.492739 0.148951 -0.0182443)
(0.557361 0.149404 -0.0182584)
(0.57478 0.159746 -0.0182824)
(0.524858 0.170231 -0.0184378)
(0.439638 0.181613 -0.0185918)
(0.355808 0.194584 -0.0187562)
(0.284717 0.20886 -0.0188873)
(0.211336 0.223011 -0.0190346)
(0.125585 0.236161 -0.0191564)
(0.0518298 0.24599 -0.0192893)
(3 1.19135e-07 -0.00571425)
(2.99998 6.58706e-07 -0.00571439)
(2.99996 2.46298e-06 -0.00571458)
(2.9999 6.31389e-06 -0.00571521)
(2.99977 1.75157e-05 -0.00571635)
(2.99939 4.01016e-05 -0.0057198)
(2.99866 0.000105883 -0.00572661)
(2.99635 0.000235191 -0.00574461)
(2.99239 0.000635769 -0.00579056)
(2.9771 0.00136192 -0.00587831)
(2.95068 0.00405711 -0.00623218)
(2.84785 0.00900442 -0.00670359)
(2.5739 0.0296249 -0.00915943)
(1.90291 0.0746392 -0.0136728)
(0.862066 0.209458 -0.0171973)
(0.482583 0.194115 -0.0181504)
(0.557637 0.192154 -0.0181586)
(0.580325 0.204669 -0.0181655)
(0.531323 0.218019 -0.0183051)
(0.448021 0.233449 -0.01845)
(0.366066 0.25091 -0.0186082)
(0.295695 0.270213 -0.018718)
(0.221712 0.289957 -0.0188281)
(0.133437 0.308494 -0.0189534)
(0.0550949 0.321479 -0.0190715)
(3 1.24156e-07 -0.00571425)
(2.99999 6.85523e-07 -0.00571438)
(2.99996 2.55917e-06 -0.00571456)
(2.9999 6.51556e-06 -0.00571515)
(2.99978 1.80771e-05 -0.00571622)
(2.99943 4.08289e-05 -0.00571946)
(2.99874 0.0001108 -0.00572582)
(2.99658 0.000228386 -0.00574285)
(2.99287 0.000716667 -0.00578534)
(2.97862 0.00131891 -0.00586849)
(2.95409 0.00491371 -0.0061951)
(2.85934 0.00985897 -0.00664153)
(2.60891 0.0381348 -0.00888443)
(1.98562 0.0917385 -0.0131699)
(0.916162 0.261839 -0.016875)
(0.479049 0.241277 -0.0180237)
(0.564059 0.235516 -0.0180366)
(0.592223 0.249342 -0.018023)
(0.543803 0.265077 -0.0181628)
(0.462419 0.284783 -0.0182674)
(0.382081 0.307333 -0.0184159)
(0.312287 0.332627 -0.0185323)
(0.237524 0.359323 -0.018629)
(0.14588 0.385309 -0.018717)
(0.0607809 0.403787 -0.0188454)
(3 1.38388e-07 -0.00571425)
(2.99999 7.6478e-07 -0.00571437)
(2.99997 2.85034e-06 -0.00571454)
(2.99991 7.26828e-06 -0.00571509)
(2.99979 2.01166e-05 -0.00571608)
(2.99947 4.54863e-05 -0.00571914)
(2.99882 0.000123182 -0.00572497)
(2.99685 0.000252316 -0.0057416)
(2.9933 0.000812052 -0.00577897)
(2.98053 0.00136432 -0.0058612)
(2.95798 0.00578533 -0.00614285)
(2.87322 0.0109141 -0.00657117)
(2.65151 0.0435016 -0.00853034)
(2.08758 0.104458 -0.012525)
(0.990019 0.307474 -0.0164717)
(0.487741 0.289414 -0.0178591)
(0.579919 0.281475 -0.0178724)
(0.613061 0.294989 -0.0178411)
(0.564907 0.31201 -0.0179899)
(0.485499 0.335846 -0.0180922)
(0.40656 0.363985 -0.0181881)
(0.33723 0.396441 -0.0182744)
(0.261588 0.432219 -0.018361)
(0.165735 0.469113 -0.018441)
(0.0709701 0.497973 -0.0185261)
(3 1.59298e-07 -0.00571425)
(2.99999 8.8044e-07 -0.00571436)
(2.99997 3.28115e-06 -0.00571451)
(2.99992 8.40653e-06 -0.00571501)
(2.99981 2.3236e-05 -0.00571593)
(2.99951 5.30345e-05 -0.00571872)
(2.99892 0.000140547 -0.00572401)
(2.99715 0.000304518 -0.00573952)
(2.9938 0.000876302 -0.00577205)
(2.9827 0.00165886 -0.00585205)
(2.96224 0.00603866 -0.00608434)
(2.88842 0.0114431 -0.00649216)
(2.698 0.0443354 -0.00814399)
(2.20397 0.10768 -0.0117683)
(1.08721 0.327901 -0.0159862)
(0.519843 0.336179 -0.0176563)
(0.609048 0.333647 -0.0176706)
(0.644093 0.343398 -0.0176313)
(0.596561 0.359894 -0.017757)
(0.519775 0.387663 -0.0178788)
(0.441932 0.421835 -0.0179707)
(0.373111 0.462522 -0.0180203)
(0.297414 0.509564 -0.0180601)
(0.197873 0.562668 -0.0180853)
(0.0892168 0.612586 -0.0181513)
(3 1.76868e-07 -0.00571425)
(2.99999 9.713e-07 -0.00571434)
(2.99997 3.60794e-06 -0.00571449)
(2.99993 9.24839e-06 -0.00571493)
(2.99983 2.54313e-05 -0.00571575)
(2.99956 5.81896e-05 -0.00571824)
(2.99903 0.000151811 -0.00572297)
(2.99746 0.000337869 -0.00573686)
(2.99443 0.000892111 -0.00576557)
(2.98479 0.00192394 -0.00583869)
(2.9663 0.00555676 -0.00603436)
(2.90309 0.0118531 -0.00641998)
(2.74214 0.0388425 -0.00777544)
(2.31771 0.0951033 -0.0110793)
(1.20482 0.292387 -0.0154233)
(0.581371 0.369885 -0.0173583)
(0.646907 0.390267 -0.0173932)
(0.678517 0.392069 -0.0173905)
(0.635862 0.40892 -0.0175188)
(0.564658 0.439694 -0.0175761)
(0.489365 0.480878 -0.0176545)
(0.422249 0.530322 -0.0176897)
(0.349451 0.590694 -0.0176864)
(0.251734 0.668665 -0.0176379)
(0.124463 0.762266 -0.0175232)
(3 3.16091e-07 -0.00571425)
(2.99999 5.67664e-07 -0.00571433)
(2.99998 4.61165e-06 -0.00571445)
(2.99994 6.79737e-06 -0.00571484)
(2.99985 3.12552e-05 -0.00571556)
(2.99962 4.38986e-05 -0.00571772)
(2.99915 0.000186979 -0.0057219)
(2.99777 0.000247847 -0.00573388)
(2.99512 0.00113333 -0.00575943)
(2.98655 0.00120957 -0.00582215)
(2.97066 0.00746562 -0.00599931)
(2.91465 0.00587285 -0.00632482)
(2.77407 0.0478242 -0.00755964)
(2.39635 0.0680245 -0.0104183)
(1.33098 0.261244 -0.0152213)
(0.644285 0.420078 -0.0171508)
(0.665842 0.446876 -0.0171202)
(0.693715 0.441267 -0.0171941)
(0.669895 0.459327 -0.0173)
(0.611975 0.490993 -0.017357)
(0.545129 0.538794 -0.0173524)
(0.48419 0.596742 -0.0173228)
(0.423445 0.675337 -0.0172226)
(0.344 0.795203 -0.0170204)
(0.192699 1.00289 -0.016606)
(2.99999 1.74317e-08 -2.60262e-09)
(2.99998 9.40515e-08 -8.64229e-09)
(2.99995 3.50952e-07 -1.01645e-08)
(2.99988 9.05106e-07 -1.60008e-08)
(2.99973 2.48561e-06 -1.64438e-08)
(2.99929 5.75472e-06 -2.19609e-08)
(2.99845 1.45326e-05 -2.28044e-08)
(2.99583 3.48669e-05 -3.31519e-08)
(2.99116 7.68997e-05 -3.01097e-08)
(2.97401 0.000201997 -8.58525e-08)
(2.94299 0.0004106 -8.19998e-09)
(2.82768 0.00106155 -2.11032e-07)
(2.50973 0.0029301 -8.35929e-08)
(1.75178 0.0074415 -4.94442e-07)
(0.77329 0.0208553 -4.77781e-07)
(0.505463 0.0212327 -5.42381e-09)
(0.557787 0.0225136 -5.25547e-08)
(0.569404 0.0247837 -7.56721e-08)
(0.519898 0.0270216 -7.23753e-08)
(0.433265 0.0291981 -6.86299e-08)
(0.347278 0.0318246 -8.10749e-08)
(0.276371 0.0350385 -9.62492e-08)
(0.205561 0.0384652 -1.09106e-07)
(0.124153 0.0425239 -1.2319e-07)
(0.0555741 0.0487702 -1.36458e-07)
(2.99999 5.13639e-08 -2.59232e-09)
(2.99998 2.77385e-07 -8.65088e-09)
(2.99995 1.03664e-06 -1.01539e-08)
(2.99988 2.66678e-06 -1.60086e-08)
(2.99973 7.35728e-06 -1.6452e-08)
(2.9993 1.70261e-05 -2.20072e-08)
(2.99847 4.32526e-05 -2.28964e-08)
(2.99588 0.000103407 -3.37418e-08)
(2.9913 0.000232169 -2.98967e-08)
(2.97428 0.000600105 -8.9603e-08)
(2.94372 0.001271 -4.41683e-09)
(2.82961 0.0032268 -2.18944e-07)
(2.51538 0.00916174 -7.9891e-08)
(1.7648 0.0232591 -5.01738e-07)
(0.780796 0.064003 -4.83446e-07)
(0.50232 0.0621786 6.91138e-09)
(0.556357 0.0633483 -4.77483e-08)
(0.568629 0.06772 -7.62065e-08)
(0.518709 0.0718061 -7.36758e-08)
(0.431987 0.0756456 -7.06412e-08)
(0.346189 0.0802335 -8.1726e-08)
(0.274934 0.0855758 -9.43668e-08)
(0.203156 0.0906787 -1.05277e-07)
(0.120376 0.0957828 -1.16623e-07)
(0.0514179 0.101498 -1.2658e-07)
(2.99999 8.0341e-08 -2.57224e-09)
(2.99998 4.35619e-07 -8.65388e-09)
(2.99996 1.62476e-06 -1.0095e-08)
(2.99988 4.16867e-06 -1.60199e-08)
(2.99974 1.15054e-05 -1.6176e-08)
(2.99932 2.64886e-05 -2.17231e-08)
(2.99852 6.80867e-05 -2.22055e-08)
(2.99598 0.000157783 -3.15905e-08)
(2.99157 0.000381306 -3.02467e-08)
(2.97486 0.000901957 -8.04777e-08)
(2.94523 0.002251 -1.5779e-08)
(2.83372 0.00537927 -2.16387e-07)
(2.52778 0.0155428 -1.08447e-07)
(1.79422 0.0402062 -5.44882e-07)
(0.79943 0.110915 -5.45963e-07)
(0.499184 0.105732 3.36847e-08)
(0.556968 0.106722 -2.64756e-08)
(0.570964 0.114095 -7.12224e-08)
(0.520732 0.121332 -7.22734e-08)
(0.434334 0.128777 -7.22167e-08)
(0.349198 0.137376 -7.95449e-08)
(0.277814 0.146909 -8.87478e-08)
(0.205171 0.156138 -9.65745e-08)
(0.121162 0.164868 -1.0372e-07)
(0.0505262 0.172396 -1.09416e-07)
(3 1.05774e-07 -2.55064e-09)
(2.99998 5.73929e-07 -8.66364e-09)
(2.99996 2.14171e-06 -1.00564e-08)
(2.99989 5.49052e-06 -1.60806e-08)
(2.99975 1.51931e-05 -1.60417e-08)
(2.99935 3.49298e-05 -2.1721e-08)
(2.99858 9.06634e-05 -2.19362e-08)
(2.99614 0.000206917 -3.00981e-08)
(2.99192 0.000523067 -3.16396e-08)
(2.97581 0.00117482 -5.78516e-08)
(2.94754 0.00324612 -6.97104e-08)
(2.83979 0.00753524 -1.59468e-07)
(2.54742 0.0216252 -1.74058e-07)
(1.84041 0.0570338 -5.83603e-07)
(0.826831 0.158384 -6.00435e-07)
(0.492765 0.148943 5.65001e-08)
(0.557369 0.1494 -1.52849e-08)
(0.574781 0.159743 -7.18251e-08)
(0.52486 0.170228 -7.40096e-08)
(0.43964 0.181612 -7.40534e-08)
(0.35581 0.194586 -7.6123e-08)
(0.284718 0.208868 -8.19489e-08)
(0.211336 0.223024 -8.63299e-08)
(0.125584 0.23618 -8.93099e-08)
(0.0518296 0.246012 -9.16124e-08)
(3 1.21697e-07 -2.52241e-09)
(2.99998 6.60906e-07 -8.67163e-09)
(2.99996 2.46623e-06 -1.00131e-08)
(2.99989 6.318e-06 -1.61957e-08)
(2.99976 1.75232e-05 -1.58419e-08)
(2.99939 4.01137e-05 -2.18359e-08)
(2.99866 0.000105906 -2.18046e-08)
(2.99634 0.000235249 -3.02131e-08)
(2.99238 0.000635845 -3.14057e-08)
(2.97709 0.00136219 -5.79563e-08)
(2.95067 0.00405744 -7.10452e-08)
(2.84783 0.00900538 -1.58075e-07)
(2.57386 0.0296248 -1.8233e-07)
(1.90281 0.0746398 -6.01859e-07)
(0.862028 0.209447 -6.54445e-07)
(0.482609 0.194107 6.57545e-08)
(0.557643 0.192148 -1.22319e-08)
(0.580322 0.204664 -7.44721e-08)
(0.53132 0.218016 -7.64178e-08)
(0.448018 0.233448 -7.49724e-08)
(0.366064 0.250913 -7.27698e-08)
(0.295692 0.270221 -7.54382e-08)
(0.221709 0.28997 -7.71198e-08)
(0.133435 0.308512 -7.71261e-08)
(0.055094 0.3215 -7.63117e-08)
(3 1.25953e-07 -2.49922e-09)
(2.99998 6.88766e-07 -8.6647e-09)
(2.99996 2.55669e-06 -1.00391e-08)
(2.9999 6.52793e-06 -1.60662e-08)
(2.99978 1.80637e-05 -1.59721e-08)
(2.99942 4.08289e-05 -2.16248e-08)
(2.99874 0.000110773 -2.17199e-08)
(2.99658 0.000228277 -2.93871e-08)
(2.99286 0.000716693 -3.12723e-08)
(2.97862 0.00131762 -5.41663e-08)
(2.95408 0.00491597 -6.91601e-08)
(2.85932 0.00985778 -1.48566e-07)
(2.60886 0.0381406 -1.93875e-07)
(1.98552 0.0917476 -5.98179e-07)
(0.916115 0.261843 -7.24969e-07)
(0.479065 0.241274 6.93538e-08)
(0.564058 0.23551 -1.35523e-08)
(0.592213 0.249337 -7.75833e-08)
(0.543794 0.265074 -7.89364e-08)
(0.462412 0.284782 -7.56222e-08)
(0.382075 0.307336 -7.00566e-08)
(0.312281 0.332635 -7.03754e-08)
(0.23752 0.359335 -6.95988e-08)
(0.145877 0.385326 -6.66639e-08)
(0.0607795 0.403808 -6.4196e-08)
(3 1.404e-07 -2.48606e-09)
(2.99999 7.68538e-07 -8.6383e-09)
(2.99997 2.85097e-06 -1.01201e-08)
(2.99991 7.28116e-06 -1.59194e-08)
(2.99979 2.01228e-05 -1.62853e-08)
(2.99946 4.55203e-05 -2.1648e-08)
(2.99882 0.000123243 -2.22626e-08)
(2.99685 0.000252489 -3.18458e-08)
(2.99329 0.000812322 -2.90188e-08)
(2.98053 0.0013648 -8.27309e-08)
(2.95797 0.00578726 -1.0352e-08)
(2.87321 0.0109159 -2.11377e-07)
(2.65148 0.0435061 -9.33285e-08)
(2.0875 0.104468 -5.62179e-07)
(0.989993 0.307487 -7.356e-07)
(0.487768 0.289413 3.2621e-08)
(0.579927 0.281468 -3.40321e-08)
(0.613058 0.294983 -8.05288e-08)
(0.564902 0.312007 -8.00041e-08)
(0.485493 0.335846 -7.48338e-08)
(0.406554 0.363988 -6.85403e-08)
(0.337224 0.396448 -6.6945e-08)
(0.261583 0.43223 -6.45028e-08)
(0.165731 0.469129 -5.97731e-08)
(0.0709687 0.497992 -5.49517e-08)
(3 1.62107e-07 -2.45898e-09)
(2.99999 8.83255e-07 -8.62458e-09)
(2.99997 3.28549e-06 -1.00968e-08)
(2.99992 8.41535e-06 -1.58361e-08)
(2.99981 2.32579e-05 -1.60659e-08)
(2.99951 5.30868e-05 -2.11187e-08)
(2.99891 0.00014067 -2.11546e-08)
(2.99715 0.000304911 -2.72154e-08)
(2.99379 0.000876709 -2.92145e-08)
(2.9827 0.00166151 -5.05089e-08)
(2.96224 0.006039 -4.14845e-08)
(2.88841 0.0114492 -1.48841e-07)
(2.69797 0.0443382 -1.39855e-07)
(2.20389 0.107695 -5.07481e-07)
(1.08716 0.327943 -7.5538e-07)
(0.519847 0.336183 -1.80667e-08)
(0.609049 0.33364 -5.74573e-08)
(0.644091 0.343395 -7.98969e-08)
(0.596557 0.359893 -7.81821e-08)
(0.51977 0.387663 -7.41205e-08)
(0.441926 0.421838 -6.90308e-08)
(0.373106 0.462528 -6.56206e-08)
(0.29741 0.509574 -6.13844e-08)
(0.197871 0.562682 -5.45333e-08)
(0.0892156 0.612603 -4.82541e-08)
(3 1.76547e-07 -2.42993e-09)
(2.99999 9.73165e-07 -8.6298e-09)
(2.99997 3.6028e-06 -1.00937e-08)
(2.99992 9.24082e-06 -1.58312e-08)
(2.99983 2.54196e-05 -1.60218e-08)
(2.99956 5.81777e-05 -2.10293e-08)
(2.99903 0.00015181 -2.08173e-08)
(2.99746 0.000337899 -2.64916e-08)
(2.99443 0.000892189 -2.81513e-08)
(2.98478 0.0019245 -3.99188e-08)
(2.96629 0.00555723 -4.62721e-08)
(2.90308 0.0118548 -1.11007e-07)
(2.74211 0.0388474 -1.20301e-07)
(2.31766 0.0951156 -3.82069e-07)
(1.20478 0.292437 -4.71909e-07)
(0.581365 0.369887 -1.90597e-07)
(0.646915 0.390254 -1.11079e-07)
(0.678526 0.392066 -6.50742e-08)
(0.635865 0.408921 -6.89717e-08)
(0.564657 0.439696 -7.47575e-08)
(0.489362 0.480881 -7.13104e-08)
(0.422246 0.530328 -6.64042e-08)
(0.349449 0.590703 -6.2194e-08)
(0.251733 0.668678 -5.26279e-08)
(0.124462 0.762282 -4.40396e-08)
(3 3.01649e-07 -2.46526e-09)
(2.99999 6.20182e-07 -8.58161e-09)
(2.99997 4.49998e-06 -1.02235e-08)
(2.99993 6.82833e-06 -1.58947e-08)
(2.99985 3.11253e-05 -1.6141e-08)
(2.99962 4.39228e-05 -2.11192e-08)
(2.99915 0.000186845 -2.09072e-08)
(2.99777 0.000247882 -2.65691e-08)
(2.99512 0.00113313 -2.81542e-08)
(2.98655 0.00120986 -4.10211e-08)
(2.97065 0.00746463 -4.08623e-08)
(2.91464 0.00587647 -1.29446e-07)
(2.77405 0.0478212 -7.69836e-08)
(2.39631 0.0680387 -3.90478e-07)
(1.33094 0.261264 -4.18468e-07)
(0.644255 0.420074 -3.58332e-07)
(0.665855 0.446871 -1.92135e-07)
(0.693739 0.441266 -1.96103e-08)
(0.669906 0.459329 -5.88527e-08)
(0.61198 0.490997 -7.08061e-08)
(0.545131 0.538798 -7.34997e-08)
(0.48419 0.596747 -7.07955e-08)
(0.423446 0.675345 -6.37682e-08)
(0.344002 0.795214 -5.12372e-08)
(0.1927 1.0029 -4.16548e-08)
(2.99999 1.74317e-08 -4.68152e-13)
(2.99998 9.40518e-08 -2.43335e-12)
(2.99995 3.50952e-07 -5.73926e-12)
(2.99988 9.05107e-07 -1.20809e-11)
(2.99973 2.48561e-06 -2.51038e-11)
(2.99929 5.75471e-06 -4.86189e-11)
(2.99845 1.45325e-05 -1.08534e-10)
(2.99583 3.48666e-05 -2.33735e-10)
(2.99116 7.68995e-05 -4.79109e-10)
(2.97401 0.000201995 -1.28781e-09)
(2.94299 0.0004106 -2.24745e-09)
(2.82768 0.00106154 -6.4127e-09)
(2.50973 0.00293009 -1.47669e-08)
(1.75178 0.00744149 -3.68912e-08)
(0.773286 0.0208553 -4.73832e-08)
(0.505465 0.0212327 3.32351e-09)
(0.557788 0.0225136 -7.01854e-10)
(0.569404 0.0247836 -4.35853e-09)
(0.519898 0.0270216 -4.47474e-09)
(0.433265 0.0291981 -4.32674e-09)
(0.347278 0.0318246 -4.14174e-09)
(0.276371 0.0350385 -4.21109e-09)
(0.205561 0.0384652 -4.3125e-09)
(0.124153 0.0425239 -4.33109e-09)
(0.0555739 0.0487702 -4.27052e-09)
(2.99999 5.13648e-08 -4.67531e-13)
(2.99998 2.77391e-07 -2.42768e-12)
(2.99995 1.03666e-06 -5.73375e-12)
(2.99988 2.66683e-06 -1.20744e-11)
(2.99973 7.35742e-06 -2.51602e-11)
(2.9993 1.70264e-05 -4.88464e-11)
(2.99847 4.32533e-05 -1.09164e-10)
(2.99588 0.000103409 -2.37884e-10)
(2.9913 0.000232171 -4.78918e-10)
(2.97428 0.000600114 -1.31327e-09)
(2.94372 0.00127099 -2.23647e-09)
(2.82961 0.00322681 -6.46778e-09)
(2.51538 0.0091617 -1.48259e-08)
(1.76479 0.023259 -3.70716e-08)
(0.780792 0.0640026 -4.79244e-08)
(0.502322 0.0621785 3.66409e-09)
(0.556358 0.0633483 -6.20677e-10)
(0.568629 0.06772 -4.3495e-09)
(0.518709 0.0718061 -4.44214e-09)
(0.431987 0.0756456 -4.2689e-09)
(0.346189 0.0802335 -4.09942e-09)
(0.274934 0.0855759 -4.16661e-09)
(0.203156 0.0906788 -4.26775e-09)
(0.120376 0.0957829 -4.27702e-09)
(0.0514179 0.101498 -4.21722e-09)
(2.99999 8.0342e-08 -4.48632e-13)
(2.99998 4.35625e-07 -2.33474e-12)
(2.99996 1.62479e-06 -5.42785e-12)
(2.99988 4.16872e-06 -1.15353e-11)
(2.99974 1.15056e-05 -2.33338e-11)
(2.99932 2.64889e-05 -4.54127e-11)
(2.99852 6.80874e-05 -1.03016e-10)
(2.99598 0.000157786 -2.17751e-10)
(2.99157 0.000381307 -4.82042e-10)
(2.97486 0.000901973 -1.22812e-09)
(2.94523 0.00225098 -2.36663e-09)
(2.83372 0.00537927 -6.39128e-09)
(2.52778 0.0155428 -1.52905e-08)
(1.79421 0.0402061 -3.78798e-08)
(0.799425 0.110914 -4.9892e-08)
(0.499186 0.105732 4.3276e-09)
(0.556969 0.106722 -4.3314e-10)
(0.570964 0.114095 -4.30914e-09)
(0.520732 0.121333 -4.36322e-09)
(0.434334 0.128777 -4.14804e-09)
(0.349198 0.137376 -4.01492e-09)
(0.277814 0.146909 -4.10342e-09)
(0.205171 0.156138 -4.21372e-09)
(0.121162 0.164868 -4.238e-09)
(0.0505262 0.172396 -4.20673e-09)
(3 1.05774e-07 -4.47839e-13)
(2.99998 5.73933e-07 -2.32603e-12)
(2.99996 2.14172e-06 -5.41643e-12)
(2.99989 5.49055e-06 -1.15226e-11)
(2.99975 1.51931e-05 -2.32274e-11)
(2.99935 3.49299e-05 -4.49892e-11)
(2.99858 9.06637e-05 -1.01507e-10)
(2.99614 0.000206918 -2.03922e-10)
(2.99192 0.000523067 -4.99757e-10)
(2.97581 0.00117482 -1.02314e-09)
(2.94754 0.0032461 -2.86967e-09)
(2.83979 0.00753524 -6.21467e-09)
(2.54742 0.0216252 -1.45572e-08)
(1.84041 0.0570337 -3.97446e-08)
(0.826827 0.158383 -5.20496e-08)
(0.492768 0.148942 5.02097e-09)
(0.55737 0.149399 -5.11589e-10)
(0.574781 0.159743 -4.38386e-09)
(0.52486 0.170228 -4.34425e-09)
(0.439641 0.181612 -4.02219e-09)
(0.35581 0.194587 -3.8953e-09)
(0.284718 0.208868 -4.0147e-09)
(0.211336 0.223024 -4.11835e-09)
(0.125584 0.23618 -4.15128e-09)
(0.0518296 0.246012 -4.18875e-09)
(3 1.21699e-07 -4.42372e-13)
(2.99998 6.60914e-07 -2.2897e-12)
(2.99996 2.46626e-06 -5.34923e-12)
(2.99989 6.31808e-06 -1.13955e-11)
(2.99976 1.75234e-05 -2.30487e-11)
(2.99939 4.01142e-05 -4.48592e-11)
(2.99866 0.000105907 -1.00936e-10)
(2.99634 0.000235252 -2.05591e-10)
(2.99238 0.000635849 -4.96727e-10)
(2.97709 0.00136221 -1.02951e-09)
(2.95067 0.00405744 -2.92581e-09)
(2.84783 0.00900545 -6.19909e-09)
(2.57386 0.0296246 -1.52539e-08)
(1.9028 0.0746396 -4.10244e-08)
(0.862024 0.209446 -5.61467e-08)
(0.482611 0.194107 5.66382e-09)
(0.557644 0.192148 -2.10065e-10)
(0.580322 0.204664 -4.24004e-09)
(0.53132 0.218016 -4.15912e-09)
(0.448018 0.233448 -3.76346e-09)
(0.366064 0.250913 -3.65125e-09)
(0.295692 0.270221 -3.82145e-09)
(0.221709 0.289971 -3.9963e-09)
(0.133435 0.308512 -4.09673e-09)
(0.055094 0.3215 -4.15433e-09)
(3 1.25955e-07 -4.18127e-13)
(2.99998 6.88776e-07 -2.19269e-12)
(2.99996 2.55673e-06 -4.98516e-12)
(2.9999 6.52804e-06 -1.05819e-11)
(2.99978 1.8064e-05 -2.0634e-11)
(2.99942 4.08297e-05 -3.92123e-11)
(2.99874 0.000110775 -8.96682e-11)
(2.99658 0.000228283 -1.61823e-10)
(2.99286 0.000716699 -4.91349e-10)
(2.97862 0.00131766 -7.9793e-10)
(2.95408 0.00491596 -2.98414e-09)
(2.85932 0.0098579 -5.07653e-09)
(2.60886 0.0381404 -1.94027e-08)
(1.98551 0.0917475 -4.11455e-08)
(0.91611 0.261842 -6.25657e-08)
(0.479066 0.241273 6.7846e-09)
(0.564058 0.23551 5.34646e-10)
(0.592213 0.249337 -4.15208e-09)
(0.543794 0.265074 -4.09863e-09)
(0.462412 0.284783 -3.66181e-09)
(0.382075 0.307337 -3.42411e-09)
(0.312281 0.332635 -3.59426e-09)
(0.23752 0.359335 -3.79016e-09)
(0.145877 0.385326 -3.89408e-09)
(0.0607795 0.403808 -4.03129e-09)
(3 1.404e-07 -3.90251e-13)
(2.99999 7.68541e-07 -2.09278e-12)
(2.99997 2.85098e-06 -4.61777e-12)
(2.99991 7.28119e-06 -9.56192e-12)
(2.99979 2.01229e-05 -1.82239e-11)
(2.99946 4.55204e-05 -3.30481e-11)
(2.99882 0.000123243 -7.64793e-11)
(2.99685 0.00025249 -1.07444e-10)
(2.99329 0.000812325 -4.99966e-10)
(2.98053 0.0013648 -3.1616e-10)
(2.95797 0.00578727 -3.72965e-09)
(2.87321 0.010916 -3.91538e-09)
(2.65148 0.0435062 -2.06547e-08)
(2.08749 0.104469 -4.13435e-08)
(0.989987 0.307487 -6.9118e-08)
(0.487768 0.289412 5.81463e-09)
(0.579926 0.281467 9.36158e-10)
(0.613057 0.294983 -3.62539e-09)
(0.564901 0.312007 -3.68451e-09)
(0.485492 0.335846 -3.42164e-09)
(0.406553 0.363988 -3.19826e-09)
(0.337224 0.396448 -3.40012e-09)
(0.261583 0.432231 -3.62548e-09)
(0.165731 0.469129 -3.77258e-09)
(0.0709687 0.497992 -3.89422e-09)
(3 1.62107e-07 -4.02851e-13)
(2.99999 8.83256e-07 -2.13308e-12)
(2.99997 3.28549e-06 -4.80397e-12)
(2.99992 8.41536e-06 -1.00261e-11)
(2.99981 2.32579e-05 -1.96295e-11)
(2.99951 5.30868e-05 -3.70065e-11)
(2.99891 0.000140671 -8.21825e-11)
(2.99715 0.00030491 -1.57233e-10)
(2.99379 0.000876717 -4.40865e-10)
(2.9827 0.0016615 -6.87728e-10)
(2.96223 0.00603908 -2.98719e-09)
(2.88841 0.0114493 -4.32336e-09)
(2.69797 0.0443388 -1.84616e-08)
(2.20388 0.107696 -3.96195e-08)
(1.08716 0.327947 -7.44238e-08)
(0.519845 0.336183 1.00565e-09)
(0.609047 0.333639 -1.16729e-09)
(0.64409 0.343394 -3.58003e-09)
(0.596556 0.359893 -3.57213e-09)
(0.519769 0.387663 -3.47016e-09)
(0.441925 0.421838 -3.2596e-09)
(0.373105 0.462528 -3.36338e-09)
(0.297409 0.509574 -3.52753e-09)
(0.197871 0.562682 -3.65144e-09)
(0.0892155 0.612603 -3.76675e-09)
(3 1.76548e-07 -3.85654e-13)
(2.99999 9.73171e-07 -2.0597e-12)
(2.99997 3.60282e-06 -4.53825e-12)
(2.99992 9.24087e-06 -9.44103e-12)
(2.99983 2.54198e-05 -1.7724e-11)
(2.99956 5.8178e-05 -3.29273e-11)
(2.99903 0.000151812 -6.90953e-11)
(2.99746 0.000337901 -1.29585e-10)
(2.99443 0.000892197 -3.36208e-10)
(2.98478 0.00192451 -5.94284e-10)
(2.96629 0.00555731 -2.13996e-09)
(2.90308 0.0118548 -2.8708e-09)
(2.74211 0.0388481 -1.30135e-08)
(2.31766 0.0951171 -2.76533e-08)
(1.20478 0.292443 -4.5501e-08)
(0.581362 0.369887 -1.65892e-08)
(0.646914 0.390252 -7.08911e-09)
(0.678525 0.392066 -2.54802e-09)
(0.635864 0.40892 -3.08882e-09)
(0.564656 0.439696 -3.95364e-09)
(0.489361 0.480881 -3.81112e-09)
(0.422245 0.530328 -3.76976e-09)
(0.349448 0.590703 -3.80396e-09)
(0.251733 0.668678 -3.84273e-09)
(0.124462 0.762282 -3.85903e-09)
(3 3.01648e-07 -3.81377e-13)
(2.99999 6.20194e-07 -2.03543e-12)
(2.99997 4.49998e-06 -4.4695e-12)
(2.99993 6.82839e-06 -9.26439e-12)
(2.99985 3.11254e-05 -1.7318e-11)
(2.99962 4.3923e-05 -3.20253e-11)
(2.99915 0.000186846 -6.73961e-11)
(2.99777 0.000247883 -1.2715e-10)
(2.99512 0.00113314 -3.23663e-10)
(2.98655 0.00120986 -6.32409e-10)
(2.97065 0.00746469 -1.69031e-09)
(2.91464 0.00587651 -4.12549e-09)
(2.77405 0.0478216 -9.21413e-09)
(2.39631 0.0680396 -2.68449e-08)
(1.33093 0.261266 -4.15165e-08)
(0.644251 0.420073 -3.39373e-08)
(0.665855 0.44687 -1.67717e-08)
(0.69374 0.441265 1.62443e-09)
(0.669906 0.459328 -2.68146e-09)
(0.611979 0.490996 -3.98875e-09)
(0.54513 0.538798 -4.49084e-09)
(0.484189 0.596746 -4.47039e-09)
(0.423446 0.675344 -4.3998e-09)
(0.344001 0.795214 -4.31606e-09)
(0.1927 1.0029 -4.48367e-09)
(2.99999 1.74317e-08 -6.0502e-14)
(2.99998 9.40518e-08 -2.67673e-13)
(2.99995 3.50952e-07 -8.88516e-13)
(2.99988 9.05107e-07 -1.93529e-12)
(2.99973 2.48561e-06 -5.45251e-12)
(2.99929 5.75471e-06 -1.13697e-11)
(2.99845 1.45325e-05 -3.02842e-11)
(2.99583 3.48666e-05 -6.94394e-11)
(2.99116 7.68995e-05 -1.47885e-10)
(2.97401 0.000201995 -4.17746e-10)
(2.94299 0.0004106 -7.23268e-10)
(2.82768 0.00106154 -2.11766e-09)
(2.50973 0.00293009 -4.89093e-09)
(1.75178 0.00744149 -1.2278e-08)
(0.773286 0.0208552 -1.58128e-08)
(0.505465 0.0212327 1.27897e-09)
(0.557788 0.0225136 -2.81397e-11)
(0.569404 0.0247836 -1.20928e-09)
(0.519898 0.0270216 -1.22612e-09)
(0.433265 0.0291981 -1.1384e-09)
(0.347278 0.0318246 -1.02769e-09)
(0.276371 0.0350385 -1.04225e-09)
(0.205561 0.0384652 -1.05585e-09)
(0.124153 0.0425239 -1.06024e-09)
(0.0555739 0.0487702 -1.04769e-09)
(2.99999 5.13649e-08 -6.03677e-14)
(2.99998 2.77391e-07 -2.66261e-13)
(2.99995 1.03666e-06 -8.87353e-13)
(2.99988 2.66683e-06 -1.93453e-12)
(2.99973 7.35743e-06 -5.47441e-12)
(2.9993 1.70264e-05 -1.14555e-11)
(2.99847 4.32533e-05 -3.05058e-11)
(2.99588 0.000103409 -7.09629e-11)
(2.9913 0.000232171 -1.47708e-10)
(2.97428 0.000600115 -4.27385e-10)
(2.94372 0.00127099 -7.18618e-10)
(2.82961 0.00322681 -2.13895e-09)
(2.51538 0.0091617 -4.91197e-09)
(1.76479 0.023259 -1.23467e-08)
(0.780792 0.0640026 -1.60061e-08)
(0.502322 0.0621785 1.38926e-09)
(0.556358 0.0633483 -1.91901e-12)
(0.568629 0.06772 -1.20758e-09)
(0.518709 0.0718061 -1.2173e-09)
(0.431987 0.0756456 -1.12218e-09)
(0.346189 0.0802335 -1.01614e-09)
(0.274934 0.0855759 -1.02975e-09)
(0.203156 0.0906788 -1.04229e-09)
(0.120376 0.0957829 -1.04302e-09)
(0.0514179 0.101498 -1.02847e-09)
(2.99999 8.0342e-08 -5.35225e-14)
(2.99998 4.35625e-07 -2.38123e-13)
(2.99996 1.62479e-06 -7.89995e-13)
(2.99988 4.16872e-06 -1.70712e-12)
(2.99974 1.15056e-05 -4.90423e-12)
(2.99932 2.64889e-05 -1.01893e-11)
(2.99852 6.80875e-05 -2.83539e-11)
(2.99598 0.000157786 -6.34288e-11)
(2.99157 0.000381307 -1.4934e-10)
(2.97486 0.000901974 -3.93581e-10)
(2.94523 0.00225098 -7.70357e-10)
(2.83372 0.00537927 -2.10663e-09)
(2.52778 0.0155428 -5.08559e-09)
(1.79421 0.0402061 -1.26338e-08)
(0.799425 0.110914 -1.6694e-08)
(0.499186 0.105732 1.60323e-09)
(0.556969 0.106722 6.00196e-11)
(0.570964 0.114095 -1.19686e-09)
(0.520732 0.121333 -1.19585e-09)
(0.434334 0.128777 -1.08928e-09)
(0.349198 0.137376 -9.94527e-10)
(0.277814 0.146909 -1.01415e-09)
(0.205171 0.156138 -1.02762e-09)
(0.121162 0.164868 -1.02986e-09)
(0.0505262 0.172396 -1.02051e-09)
(3 1.05774e-07 -5.33424e-14)
(2.99998 5.73933e-07 -2.36802e-13)
(2.99996 2.14172e-06 -7.88218e-13)
(2.99989 5.49055e-06 -1.70537e-12)
(2.99975 1.51931e-05 -4.8755e-12)
(2.99935 3.49299e-05 -1.00595e-11)
(2.99858 9.06637e-05 -2.78731e-11)
(2.99614 0.000206918 -5.88965e-11)
(2.99192 0.000523067 -1.55408e-10)
(2.97581 0.00117482 -3.25315e-10)
(2.94754 0.0032461 -9.39911e-10)
(2.83979 0.00753524 -2.04969e-09)
(2.54742 0.0216252 -4.85191e-09)
(1.84041 0.0570337 -1.32801e-08)
(0.826827 0.158383 -1.74588e-08)
(0.492768 0.148942 1.8239e-09)
(0.55737 0.149399 3.1944e-11)
(0.574781 0.159743 -1.22869e-09)
(0.52486 0.170228 -1.20003e-09)
(0.439641 0.181612 -1.06151e-09)
(0.35581 0.194587 -9.68059e-10)
(0.284718 0.208868 -9.95022e-10)
(0.211336 0.223024 -1.00661e-09)
(0.125584 0.23618 -1.00973e-09)
(0.0518296 0.246012 -1.01462e-09)
(3 1.21699e-07 -5.16729e-14)
(2.99998 6.60914e-07 -2.26943e-13)
(2.99996 2.46626e-06 -7.68947e-13)
(2.99989 6.31808e-06 -1.66663e-12)
(2.99976 1.75234e-05 -4.82699e-12)
(2.99939 4.01142e-05 -1.0031e-11)
(2.99866 0.000105907 -2.77223e-11)
(2.99634 0.000235252 -5.95303e-11)
(2.99238 0.000635849 -1.54691e-10)
(2.97709 0.00136221 -3.27931e-10)
(2.95067 0.00405744 -9.6067e-10)
(2.84783 0.00900545 -2.04855e-09)
(2.57386 0.0296246 -5.09802e-09)
(1.9028 0.0746396 -1.37395e-08)
(0.862024 0.209446 -1.88812e-08)
(0.482611 0.194107 2.02974e-09)
(0.557644 0.192148 1.29485e-10)
(0.580322 0.204664 -1.19058e-09)
(0.53132 0.218016 -1.1519e-09)
(0.448018 0.233448 -9.94135e-10)
(0.366064 0.250913 -9.03309e-10)
(0.295692 0.270221 -9.45347e-10)
(0.221709 0.289971 -9.75635e-10)
(0.133435 0.308512 -9.94887e-10)
(0.055094 0.3215 -1.00413e-09)
(3 1.25955e-07 -4.39609e-14)
(2.99998 6.88776e-07 -1.95796e-13)
(2.99996 2.55674e-06 -6.50553e-13)
(2.9999 6.52805e-06 -1.40488e-12)
(2.99978 1.8064e-05 -4.03872e-12)
(2.99942 4.08297e-05 -8.18443e-12)