/*--------------------------------*- C++ -*----------------------------------*\
| =========                 |                                                 |
| \\      /  F ield         | OpenFOAM: The Open Source CFD Toolbox           |
|  \\    /   O peration     | Version:  4.1                                   |
|   \\  /    A nd           | Web:      www.OpenFOAM.org                      |
|    \\/     M anipulation  |                                                 |
\*---------------------------------------------------------------------------*/
FoamFile
{
    version     2.0;
    format      ascii;
    class       volScalarField;
    location    "0.58";
    object      Ma;
}
// * * * * * * * * * * * * * * * * * * * * * * * * * * * * * * * * * * * * * //

dimensions      [0 0 0 0 0 0 0];

internalField   nonuniform List<scalar> 
18000
(
5.41155e-12
5.35055e-12
5.27869e-12
5.21896e-12
5.15979e-12
5.10143e-12
5.04368e-12
4.98706e-12
4.93122e-12
4.87706e-12
6.76965e-12
6.53168e-12
6.29232e-12
6.07232e-12
5.86175e-12
5.66002e-12
5.46643e-12
5.28114e-12
5.10293e-12
4.93524e-12
8.57234e-12
8.05105e-12
7.55637e-12
7.10493e-12
6.68546e-12
6.29586e-12
5.93421e-12
5.59707e-12
5.28334e-12
4.99454e-12
1.09987e-11
1.00255e-11
9.14595e-12
8.35991e-12
7.65544e-12
7.02215e-12
6.45165e-12
5.93673e-12
5.4713e-12
5.05487e-12
1.43158e-11
1.26231e-11
1.11606e-11
9.89633e-12
8.80298e-12
7.8533e-12
7.02577e-12
6.30244e-12
5.66784e-12
5.11639e-12
1.89272e-11
1.60863e-11
1.37417e-11
1.17905e-11
1.01672e-11
8.80783e-12
7.66384e-12
6.69612e-12
5.87308e-12
5.17888e-12
2.54496e-11
2.07742e-11
1.70825e-11
1.41448e-11
1.17981e-11
9.90784e-12
8.37403e-12
7.12023e-12
6.08791e-12
5.24243e-12
3.48882e-11
2.72364e-11
2.1495e-11
1.71433e-11
1.38203e-11
1.12544e-11
9.25245e-12
7.67573e-12
6.42188e-12
5.43208e-12
4.02167e-09
3.99156e-09
3.75223e-09
3.53676e-09
3.3432e-09
3.16865e-09
3.01062e-09
2.86701e-09
2.7362e-09
2.6637e-09
4.32877e-07
4.99013e-08
4.25295e-08
3.69528e-08
3.2294e-08
2.83749e-08
2.50587e-08
2.22391e-08
1.97566e-08
7.51287e-08
5.69326e-12
5.62602e-12
5.55164e-12
5.48623e-12
5.42205e-12
5.3591e-12
5.29628e-12
5.23529e-12
5.1751e-12
5.11634e-12
7.16709e-12
6.90524e-12
6.65201e-12
6.41173e-12
6.18257e-12
5.96322e-12
5.75381e-12
5.55331e-12
5.36163e-12
5.17951e-12
9.13108e-12
8.55648e-12
8.02927e-12
7.53448e-12
7.07718e-12
6.6536e-12
6.26152e-12
5.89702e-12
5.55843e-12
5.24489e-12
1.18023e-11
1.07264e-11
9.77735e-12
8.91187e-12
8.13958e-12
7.44805e-12
6.82775e-12
6.27007e-12
5.76631e-12
5.31135e-12
1.54977e-11
1.3616e-11
1.20166e-11
1.06136e-11
9.40713e-12
8.36488e-12
7.46082e-12
6.67395e-12
5.98592e-12
5.38049e-12
2.07093e-11
1.75197e-11
1.49187e-11
1.27323e-11
1.09274e-11
9.42606e-12
8.17029e-12
7.11356e-12
6.2187e-12
5.45183e-12
2.82057e-11
2.28876e-11
1.87239e-11
1.5394e-11
1.27622e-11
1.06597e-11
8.96613e-12
7.59137e-12
6.464e-12
5.52559e-12
3.92652e-11
3.03951e-11
2.37819e-11
1.87719e-11
1.49928e-11
1.21019e-11
9.86495e-12
8.11342e-12
6.7261e-12
5.60365e-12
1.2402e-10
2.65032e-10
2.16848e-10
1.7874e-10
1.49022e-10
1.25515e-10
1.06693e-10
9.14545e-11
7.90016e-11
6.92899e-11
2.92996e-07
4.49246e-08
3.91281e-08
3.4292e-08
3.02893e-08
2.69429e-08
2.41188e-08
2.17154e-08
1.96587e-08
1.85871e-08
4.81386e-13
4.59263e-13
3.27294e-13
3.11821e-13
2.97702e-13
2.85067e-13
2.73793e-13
2.64283e-13
2.55978e-13
2.46582e-13
6.67078e-13
5.97351e-13
5.28942e-13
4.79175e-13
4.34338e-13
3.94458e-13
3.59125e-13
3.28906e-13
3.0392e-13
2.61495e-13
8.24226e-13
7.13095e-13
7.07043e-13
6.28326e-13
5.5875e-13
4.9855e-13
4.47337e-13
4.04212e-13
3.66547e-13
2.8226e-13
1.09941e-12
9.59798e-13
9.8896e-13
8.59158e-13
7.47759e-13
6.54156e-13
5.75588e-13
5.10301e-13
4.53574e-13
3.13136e-13
1.54825e-12
1.38673e-12
1.39828e-12
1.18213e-12
1.00265e-12
8.56546e-13
7.37041e-13
6.39206e-13
5.55595e-13
3.51801e-13
2.28085e-12
2.0831e-12
1.98855e-12
1.62717e-12
1.33983e-12
1.11353e-12
9.34087e-13
7.90853e-13
6.71134e-13
3.97007e-13
3.48502e-12
3.18823e-12
2.84316e-12
2.2394e-12
1.78233e-12
1.43654e-12
1.17108e-12
9.65807e-13
7.99645e-13
4.47764e-13
5.54092e-12
4.94157e-12
4.08992e-12
3.0848e-12
2.36332e-12
1.84055e-12
1.45475e-12
1.1662e-12
9.4097e-13
5.03366e-13
1.96408e-10
9.42742e-12
7.55937e-12
5.53395e-12
4.14809e-12
3.17809e-12
2.48239e-12
1.97294e-12
1.58774e-12
1.10438e-12
2.5119e-07
3.01793e-09
2.22115e-09
1.70023e-09
1.32286e-09
1.04436e-09
8.35333e-10
6.76075e-10
5.53218e-10
4.64559e-10
3.8483e-13
3.60828e-13
1.72037e-13
1.51196e-13
1.30841e-13
1.11729e-13
9.38627e-14
7.74845e-14
6.29421e-14
3.69972e-14
5.32147e-13
4.59683e-13
3.85957e-13
3.35865e-13
2.89251e-13
2.47595e-13
2.10846e-13
1.79166e-13
1.52817e-13
7.94282e-14
5.95717e-13
4.89029e-13
5.23533e-13
4.55515e-13
3.9533e-13
3.44154e-13
3.01603e-13
2.67545e-13
2.39071e-13
1.19616e-13
7.292e-13
6.3481e-13
7.60561e-13
6.57654e-13
5.68827e-13
4.95412e-13
4.34834e-13
3.85549e-13
3.43369e-13
1.71041e-13
9.57387e-13
9.44002e-13
1.10772e-12
9.41754e-13
8.02456e-13
6.89025e-13
5.96519e-13
5.21413e-13
4.56678e-13
2.24592e-13
1.34137e-12
1.4855e-12
1.61017e-12
1.33414e-12
1.10983e-12
9.32099e-13
7.89839e-13
6.76301e-13
5.79641e-13
2.81204e-13
1.97793e-12
2.36265e-12
2.33762e-12
1.87356e-12
1.51253e-12
1.23556e-12
1.01996e-12
8.51533e-13
7.12689e-13
3.41013e-13
3.09318e-12
3.75995e-12
3.39549e-12
2.61678e-12
2.03946e-12
1.61371e-12
1.29353e-12
1.05016e-12
8.56757e-13
4.04013e-13
2.1418e-10
6.59619e-12
4.9109e-12
3.62349e-12
2.71851e-12
2.07815e-12
1.61445e-12
1.27381e-12
1.01192e-12
4.70219e-13
2.47813e-07
9.266e-10
6.59848e-11
4.35334e-11
2.9699e-11
2.07431e-11
1.47997e-11
1.07583e-11
7.95358e-12
5.88243e-12
3.84808e-13
3.60397e-13
1.7227e-13
1.51317e-13
1.30902e-13
1.11691e-13
9.40316e-14
7.76155e-14
6.28564e-14
3.68578e-14
5.32477e-13
4.59889e-13
3.86564e-13
3.36433e-13
2.89841e-13
2.47888e-13
2.1104e-13
1.79538e-13
1.53105e-13
7.94205e-14
5.96514e-13
4.89864e-13
5.24884e-13
4.56574e-13
3.95998e-13
3.44866e-13
3.02214e-13
2.67893e-13
2.3915e-13
1.19662e-13
7.30828e-13
6.36729e-13
7.62568e-13
6.59446e-13
5.70207e-13
4.96485e-13
4.35756e-13
3.86297e-13
3.43826e-13
1.70873e-13
9.60214e-13
9.47597e-13
1.11144e-12
9.44648e-13
8.04737e-13
6.91093e-13
5.97942e-13
5.22269e-13
4.57496e-13
2.25081e-13
1.34595e-12
1.49196e-12
1.61598e-12
1.33912e-12
1.1137e-12
9.35293e-13
7.92463e-13
6.78191e-13
5.81184e-13
2.82101e-13
1.98489e-12
2.37431e-12
2.34818e-12
1.88185e-12
1.51919e-12
1.24093e-12
1.02417e-12
8.54727e-13
7.15408e-13
3.42722e-13
3.10479e-12
3.78122e-12
3.41365e-12
2.63102e-12
2.05069e-12
1.62243e-12
1.30037e-12
1.0556e-12
8.60882e-13
4.06876e-13
2.22445e-10
6.79452e-12
4.98325e-12
3.6695e-12
2.74882e-12
2.09856e-12
1.62842e-12
1.28367e-12
1.01899e-12
4.74275e-13
2.63758e-07
9.94703e-10
1.08459e-11
5.20772e-12
3.72377e-12
2.73431e-12
2.04914e-12
1.56493e-12
1.20666e-12
5.62487e-13
3.84875e-13
3.60062e-13
1.72827e-13
1.51839e-13
1.31242e-13
1.1199e-13
9.41159e-14
7.78995e-14
6.32043e-14
3.68358e-14
5.33349e-13
4.60371e-13
3.87835e-13
3.37517e-13
2.90788e-13
2.4859e-13
2.11506e-13
1.79838e-13
1.53665e-13
7.98876e-14
5.98371e-13
4.91658e-13
5.27217e-13
4.58495e-13
3.97691e-13
3.46107e-13
3.031e-13
2.68518e-13
2.39712e-13
1.20154e-13
7.34663e-13
6.40816e-13
7.66374e-13
6.6256e-13
5.7275e-13
4.98388e-13
4.37188e-13
3.87411e-13
3.4454e-13
1.71461e-13
9.67697e-13
9.5523e-13
1.11767e-12
9.49672e-13
8.0872e-13
6.94366e-13
6.00567e-13
5.24331e-13
4.58974e-13
2.26037e-13
1.36005e-12
1.50552e-12
1.6268e-12
1.34737e-12
1.12014e-12
9.40551e-13
7.96655e-13
6.81262e-13
5.83717e-13
2.83849e-13
2.0113e-12
2.39782e-12
2.36659e-12
1.89592e-12
1.52997e-12
1.24944e-12
1.03088e-12
8.59874e-13
7.19469e-13
3.45545e-13
3.15706e-12
3.82364e-12
3.44554e-12
2.65455e-12
2.06832e-12
1.63602e-12
1.31096e-12
1.0637e-12
8.67093e-13
4.11024e-13
2.35727e-10
6.92983e-12
5.04009e-12
3.70937e-12
2.77773e-12
2.12012e-12
1.64458e-12
1.29577e-12
1.02843e-12
4.80664e-13
2.87839e-07
1.07228e-09
1.10477e-11
5.13132e-12
3.69045e-12
2.72064e-12
2.04482e-12
1.5649e-12
1.20851e-12
5.61187e-13
3.84863e-13
3.59767e-13
1.7344e-13
1.52469e-13
1.3185e-13
1.12527e-13
9.45742e-14
7.81335e-14
6.34374e-14
3.90697e-14
5.34346e-13
4.61018e-13
3.89458e-13
3.38778e-13
2.91908e-13
2.49685e-13
2.12411e-13
1.805e-13
1.53886e-13
8.09135e-14
6.0065e-13
4.9379e-13
5.29922e-13
4.60854e-13
3.99599e-13
3.4769e-13
3.04221e-13
2.69381e-13
2.40413e-13
1.21087e-13
7.39283e-13
6.45698e-13
7.70823e-13
6.66296e-13
5.7593e-13
5.00916e-13
4.38997e-13
3.88737e-13
3.45841e-13
1.72654e-13
9.7672e-13
9.64295e-13
1.1251e-12
9.55592e-13
8.13462e-13
6.98389e-13
6.03842e-13
5.2686e-13
4.60931e-13
2.27834e-13
1.37728e-12
1.5213e-12
1.63948e-12
1.35747e-12
1.12795e-12
9.4689e-13
8.01902e-13
6.85408e-13
5.86877e-13
2.86466e-13
2.04341e-12
2.42575e-12
2.3881e-12
1.91256e-12
1.5429e-12
1.25978e-12
1.03924e-12
8.66447e-13
7.24548e-13
3.49555e-13
3.21451e-12
3.87335e-12
3.48306e-12
2.68257e-12
2.08944e-12
1.65227e-12
1.32404e-12
1.07401e-12
8.7497e-13
4.16717e-13
2.43145e-10
6.99604e-12
5.1052e-12
3.75645e-12
2.81237e-12
2.14609e-12
1.66471e-12
1.3108e-12
1.04009e-12
4.88962e-13
3.08286e-07
1.0986e-09
1.09909e-11
5.20286e-12
3.74298e-12
2.75917e-12
2.07399e-12
1.58683e-12
1.22509e-12
5.72553e-13
3.84944e-13
3.5881e-13
1.73844e-13
1.52873e-13
1.32566e-13
1.13947e-13
9.78411e-14
1.07433e-13
2.96158e-13
9.11883e-13
5.3505e-13
4.60828e-13
3.90428e-13
3.39856e-13
2.93106e-13
2.51221e-13
2.14699e-13
1.89324e-13
2.32832e-13
5.98545e-13
6.02325e-13
4.94489e-13
5.31616e-13
4.62443e-13
4.01306e-13
3.4977e-13
3.07157e-13
2.74584e-13
2.70194e-13
4.09777e-13
7.42932e-13
6.47711e-13
7.73466e-13
6.68699e-13
5.78201e-13
5.03514e-13
4.42649e-13
3.93777e-13
3.60997e-13
3.28364e-13
9.83649e-13
9.68245e-13
1.12909e-12
9.59244e-13
8.1678e-13
7.01593e-13
6.08197e-13
5.32624e-13
4.72404e-13
3.14989e-13
1.38935e-12
1.52838e-12
1.64592e-12
1.36331e-12
1.13323e-12
9.52064e-13
8.08101e-13
6.92922e-13
5.97981e-13
3.41439e-13
2.06412e-12
2.43847e-12
2.39908e-12
1.92227e-12
1.55137e-12
1.26776e-12
1.04778e-12
8.76403e-13
7.36902e-13
3.89347e-13
3.21956e-12
3.89651e-12
3.50227e-12
2.69908e-12
2.10342e-12
1.66441e-12
1.33599e-12
1.0876e-12
8.90251e-13
4.49504e-13
1.86987e-10
6.64128e-12
5.13621e-12
3.78407e-12
2.83487e-12
2.16521e-12
1.68259e-12
1.32936e-12
1.05871e-12
5.1876e-13
2.65642e-07
6.78028e-10
9.10963e-12
5.23885e-12
3.77733e-12
2.7878e-12
2.09913e-12
1.61115e-12
1.24898e-12
6.02272e-13
3.94495e-13
4.22105e-13
2.30153e-13
1.57994e-13
1.90093e-13
4.74723e-13
1.01531e-12
3.97754e-12
1.51313e-11
4.2927e-11
5.57945e-13
5.73321e-13
4.60699e-13
3.60539e-13
2.95894e-13
4.46672e-13
8.26025e-13
2.52605e-12
8.87226e-12
2.79645e-11
6.50025e-13
6.92714e-13
6.41509e-13
5.12205e-13
3.99551e-13
4.27898e-13
7.81559e-13
1.76033e-12
5.63246e-12
1.81806e-11
8.21684e-13
9.25147e-13
9.16421e-13
7.43804e-13
5.88048e-13
5.1669e-13
7.52692e-13
1.3496e-12
3.86445e-12
1.22416e-11
1.10052e-12
1.30442e-12
1.29892e-12
1.05517e-12
8.41894e-13
6.91783e-13
7.61962e-13
1.15966e-12
2.91188e-12
8.53858e-12
1.54676e-12
1.90183e-12
1.8344e-12
1.47167e-12
1.168e-12
9.37095e-13
8.67175e-13
1.20248e-12
2.36343e-12
6.15435e-12
2.25545e-12
2.83291e-12
2.5931e-12
2.03177e-12
1.58753e-12
1.24967e-12
1.05374e-12
1.20188e-12
2.03737e-12
4.57058e-12
3.36245e-12
4.28424e-12
3.68081e-12
2.79296e-12
2.12859e-12
1.63869e-12
1.31254e-12
1.27114e-12
1.84504e-12
3.4934e-12
5.38817e-11
6.20021e-12
5.26243e-12
3.83908e-12
2.83211e-12
2.12091e-12
1.63788e-12
1.41898e-12
1.73131e-12
2.74893e-12
3.46959e-08
1.11824e-09
5.70416e-12
5.20618e-12
3.72574e-12
2.71047e-12
2.02893e-12
1.63469e-12
1.69479e-12
2.23572e-12
2.51932e-12
2.3698e-12
1.51556e-12
1.56972e-13
2.6882e-12
8.788e-12
2.70123e-11
1.08977e-10
3.91313e-10
6.05156e-10
3.54933e-12
3.4284e-12
2.53778e-12
1.15121e-12
1.33971e-12
6.31925e-12
1.94692e-11
6.8352e-11
2.30389e-10
3.84868e-10
4.8169e-12
4.6867e-12
3.70878e-12
2.30572e-12
2.60888e-13
4.13255e-12
1.38957e-11
4.56868e-11
1.45214e-10
2.58061e-10
6.47863e-12
6.26264e-12
5.10431e-12
3.58972e-12
1.42549e-12
2.30193e-12
9.86057e-12
3.18994e-11
9.64723e-11
1.7885e-10
8.70309e-12
8.27085e-12
6.79737e-12
5.0649e-12
2.831e-12
7.71281e-13
6.83094e-12
2.2783e-11
6.65343e-11
1.27357e-10
1.17366e-11
1.08739e-11
8.88748e-12
6.78166e-12
4.33987e-12
1.2004e-12
4.40731e-12
1.62509e-11
4.72523e-11
9.28157e-11
1.59612e-11
1.43223e-11
1.15154e-11
8.81825e-12
6.0193e-12
2.73234e-12
2.41234e-12
1.17029e-11
3.43338e-11
6.89884e-11
2.20045e-11
1.89778e-11
1.48722e-11
1.12781e-11
7.90896e-12
4.34299e-12
1.07149e-12
8.27907e-12
2.53479e-11
5.2131e-11
2.91829e-10
2.53801e-11
1.92446e-11
1.42965e-11
1.00785e-11
6.06301e-12
1.79858e-12
5.60096e-12
1.89162e-11
3.99255e-11
6.90879e-07
1.819e-09
2.5205e-11
1.80505e-11
1.25938e-11
7.90783e-12
3.31195e-12
3.49057e-12
1.416e-11
3.08902e-11
3.35586e-12
3.01812e-12
1.98928e-12
1.95266e-12
8.42791e-12
2.98332e-11
1.28507e-10
5.52526e-10
1.15973e-09
1.36421e-09
4.44491e-12
4.1413e-12
3.1577e-12
1.65568e-12
5.26338e-12
2.03334e-11
7.94273e-11
3.1677e-10
7.06392e-10
8.11575e-10
5.7683e-12
5.44164e-12
4.47192e-12
2.7565e-12
2.8301e-12
1.349e-11
5.15812e-11
1.94164e-10
4.51039e-10
5.09684e-10
7.46153e-12
7.01425e-12
5.95846e-12
4.25899e-12
1.95856e-12
8.5069e-12
3.44706e-11
1.25047e-10
2.97701e-10
3.32472e-10
9.68096e-12
8.96714e-12
7.68999e-12
5.91865e-12
3.13804e-12
4.86824e-12
2.31519e-11
8.32024e-11
2.0197e-10
2.24014e-10
1.26631e-11
1.14509e-11
9.76272e-12
7.76147e-12
4.93711e-12
2.53064e-12
1.51506e-11
5.64215e-11
1.40329e-10
1.54994e-10
1.6765e-11
1.46833e-11
1.23067e-11
9.86684e-12
6.88581e-12
2.77123e-12
9.50091e-12
3.87787e-11
9.91055e-11
1.09538e-10
2.25534e-11
1.89839e-11
1.55031e-11
1.23331e-11
8.97911e-12
4.63603e-12
5.35636e-12
2.66851e-11
7.09182e-11
7.87311e-11
1.63884e-10
2.49079e-11
1.96043e-11
1.5294e-11
1.12927e-11
6.76546e-12
2.75403e-12
1.81218e-11
5.12197e-11
5.72806e-11
1.39609e-07
6.66127e-09
3.68764e-11
1.88957e-11
1.389e-11
8.9528e-12
3.03925e-12
1.186e-11
3.71451e-11
4.19744e-11
1.02284e-12
1.27491e-12
1.53963e-12
3.21568e-12
8.47408e-12
2.49004e-11
8.69316e-11
2.73476e-10
4.11347e-10
2.48286e-10
1.11278e-12
1.2809e-12
1.41373e-12
2.44351e-12
6.04467e-12
1.7386e-11
5.7834e-11
1.73686e-10
2.49776e-10
8.84061e-11
1.2071e-12
1.32859e-12
1.41351e-12
1.97773e-12
4.34436e-12
1.22413e-11
3.93198e-11
1.13737e-10
1.57107e-10
3.95469e-11
1.3056e-12
1.4049e-12
1.49057e-12
1.79583e-12
3.20819e-12
8.66344e-12
2.72399e-11
7.65095e-11
1.01978e-10
3.11859e-11
1.41009e-12
1.49902e-12
1.60386e-12
1.79423e-12
2.53112e-12
6.15877e-12
1.90832e-11
5.26527e-11
6.79461e-11
2.77357e-11
1.52823e-12
1.60843e-12
1.73223e-12
1.88196e-12
2.22211e-12
4.46517e-12
1.34551e-11
3.70453e-11
4.61876e-11
2.41265e-11
1.66569e-12
1.73365e-12
1.86747e-12
2.00947e-12
2.15887e-12
3.36742e-12
9.52244e-12
2.62728e-11
3.18509e-11
2.06636e-11
1.85555e-12
1.87751e-12
2.01251e-12
2.15077e-12
2.22264e-12
2.75676e-12
6.81388e-12
1.87927e-11
2.21846e-11
1.76409e-11
4.34695e-10
6.025e-12
2.16587e-12
2.29979e-12
2.34553e-12
2.50114e-12
4.96609e-12
1.35377e-11
1.55284e-11
1.51307e-11
2.38773e-07
7.1643e-09
1.76507e-11
2.46005e-12
2.4856e-12
2.45854e-12
3.74376e-12
9.79611e-12
1.08442e-11
1.29649e-11
7.84607e-13
1.49202e-12
1.60661e-12
2.51805e-12
4.14448e-12
7.02614e-12
1.46598e-11
5.52123e-11
2.34681e-10
6.94372e-10
7.20104e-13
1.34021e-12
1.39194e-12
2.14584e-12
3.48208e-12
5.85298e-12
1.11787e-11
3.43289e-11
1.4265e-10
3.95781e-10
6.57376e-13
1.19808e-12
1.19825e-12
1.82015e-12
2.91964e-12
4.84796e-12
8.80832e-12
2.26872e-11
9.05296e-11
2.39171e-10
6.04117e-13
1.07657e-12
1.03734e-12
1.55776e-12
2.46192e-12
4.04305e-12
7.09463e-12
1.59315e-11
5.95767e-11
1.51503e-10
5.5808e-13
9.72428e-13
9.013e-13
1.33542e-12
2.08675e-12
3.4008e-12
5.80082e-12
1.17771e-11
4.03592e-11
9.95949e-11
5.18703e-13
8.83472e-13
7.87129e-13
1.15445e-12
1.78696e-12
2.87278e-12
4.80563e-12
9.05805e-12
2.80212e-11
6.75415e-11
4.84742e-13
8.06852e-13
6.90328e-13
1.00201e-12
1.53214e-12
2.43817e-12
4.03293e-12
7.18322e-12
1.98843e-11
4.70313e-11
5.53097e-13
7.40715e-13
6.09273e-13
8.72923e-13
1.32243e-12
2.08643e-12
3.41127e-12
5.83504e-12
1.43762e-11
3.34877e-11
6.7491e-10
1.6774e-11
5.60007e-13
7.63952e-13
1.14834e-12
1.79562e-12
2.90341e-12
4.82554e-12
1.05741e-11
2.43086e-11
2.37232e-07
2.31544e-08
1.05982e-10
1.26789e-12
9.8527e-13
1.54449e-12
2.47595e-12
4.03589e-12
7.88618e-12
1.79298e-11
1.05787e-12
1.84827e-12
1.62605e-12
2.17085e-12
3.02117e-12
4.37753e-12
6.86871e-12
1.30656e-11
5.06138e-11
1.61975e-10
9.84845e-13
1.69467e-12
1.45746e-12
1.93725e-12
2.67243e-12
3.81244e-12
5.76465e-12
1.02479e-11
3.59181e-11
9.89787e-11
9.1417e-13
1.54718e-12
1.29516e-12
1.71277e-12
2.3477e-12
3.31834e-12
4.87926e-12
8.0437e-12
2.55611e-11
6.40008e-11
8.5232e-13
1.4186e-12
1.15642e-12
1.51856e-12
2.07107e-12
2.90206e-12
4.19585e-12
6.49885e-12
1.84125e-11
4.32457e-11
7.986e-13
1.30638e-12
1.03693e-12
1.35184e-12
1.83683e-12
2.55454e-12
3.64917e-12
5.4057e-12
1.33955e-11
3.02039e-11
7.51788e-13
1.20821e-12
9.33336e-13
1.20881e-12
1.63162e-12
2.2569e-12
3.20332e-12
4.60151e-12
9.85704e-12
2.16334e-11
7.10504e-13
1.1215e-12
8.43657e-13
1.08462e-12
1.45522e-12
2.00494e-12
2.82738e-12
3.98129e-12
7.32495e-12
1.57967e-11
8.04033e-13
1.04552e-12
7.65842e-13
9.76474e-13
1.30191e-12
1.78492e-12
2.50368e-12
3.48389e-12
5.48915e-12
1.17209e-11
9.89008e-10
2.98138e-11
7.28096e-13
8.81752e-13
1.16875e-12
1.59346e-12
2.22829e-12
3.0699e-12
4.1482e-12
8.80284e-12
2.91474e-07
4.07619e-08
2.59909e-10
1.87228e-12
1.02716e-12
1.4254e-12
1.98533e-12
2.71359e-12
3.14395e-12
6.66638e-12
1.465e-12
2.33314e-12
1.63865e-12
1.89857e-12
2.27873e-12
2.82472e-12
3.79236e-12
5.87764e-12
1.46777e-11
2.63505e-11
1.38565e-12
2.1834e-12
1.52173e-12
1.76722e-12
2.11883e-12
2.60055e-12
3.35763e-12
4.81357e-12
1.15605e-11
1.98062e-11
1.30619e-12
2.03451e-12
1.39871e-12
1.62619e-12
1.95057e-12
2.38165e-12
3.0069e-12
4.0442e-12
8.90143e-12
1.50001e-11
1.23593e-12
1.9015e-12
1.28758e-12
1.49722e-12
1.79668e-12
2.18951e-12
2.73024e-12
3.50267e-12
6.82697e-12
1.15069e-11
1.17375e-12
1.78231e-12
1.18779e-12
1.37993e-12
1.65742e-12
2.01787e-12
2.50198e-12
3.10954e-12
5.23028e-12
8.90956e-12
1.11848e-12
1.67499e-12
1.09829e-12
1.27437e-12
1.52906e-12
1.86227e-12
2.30152e-12
2.80911e-12
4.00011e-12
6.93333e-12
1.06924e-12
1.57858e-12
1.01801e-12
1.17868e-12
1.41245e-12
1.72054e-12
2.12762e-12
2.56416e-12
3.05713e-12
5.41369e-12
1.16755e-12
1.492e-12
9.45672e-13
1.09191e-12
1.30651e-12
1.59136e-12
1.96911e-12
2.36012e-12
2.33164e-12
4.241e-12
1.25869e-09
4.36278e-11
9.18328e-13
1.01257e-12
1.20973e-12
1.47287e-12
1.82382e-12
2.18128e-12
1.77192e-12
3.32909e-12
2.37313e-07
5.62741e-08
4.11407e-10
2.29812e-12
1.09005e-12
1.36275e-12
1.68541e-12
2.01552e-12
1.33226e-12
2.60553e-12
2.06033e-12
2.95211e-12
1.59849e-12
1.60136e-12
1.66275e-12
1.79886e-12
2.14266e-12
2.93996e-12
6.48449e-12
8.45241e-12
1.97625e-12
2.81596e-12
1.53933e-12
1.55955e-12
1.62933e-12
1.74503e-12
1.98672e-12
2.5124e-12
5.26781e-12
7.01601e-12
1.89173e-12
2.67579e-12
1.46305e-12
1.49704e-12
1.576e-12
1.68477e-12
1.86809e-12
2.20645e-12
4.17006e-12
5.72914e-12
1.81533e-12
2.54657e-12
1.38867e-12
1.43211e-12
1.51839e-12
1.62717e-12
1.7809e-12
2.00202e-12
3.28237e-12
4.67708e-12
1.74611e-12
2.42716e-12
1.31714e-12
1.36787e-12
1.45981e-12
1.57036e-12
1.70989e-12
1.86408e-12
2.56598e-12
3.81612e-12
1.68366e-12
2.31723e-12
1.24955e-12
1.3043e-12
1.39974e-12
1.51373e-12
1.65028e-12
1.7643e-12
1.98847e-12
3.10964e-12
1.62684e-12
2.21603e-12
1.18607e-12
1.24265e-12
1.33928e-12
1.4561e-12
1.59372e-12
1.68784e-12
1.51803e-12
2.52865e-12
1.71466e-12
2.12359e-12
1.12626e-12
1.18367e-12
1.28077e-12
1.39808e-12
1.53665e-12
1.62447e-12
1.13794e-12
2.04852e-12
1.49718e-09
5.55834e-11
1.12872e-12
1.12672e-12
1.22344e-12
1.341e-12
1.4802e-12
1.56819e-12
8.32551e-13
1.65107e-12
7.54475e-08
6.38571e-08
9.2865e-10
2.67888e-12
1.13454e-12
1.2816e-12
1.42034e-12
1.50942e-12
5.7608e-13
1.31843e-12
2.87154e-12
3.65846e-12
1.43441e-12
1.21377e-12
1.06661e-12
1.00334e-12
1.1349e-12
1.52973e-12
3.29993e-12
3.7566e-12
2.78867e-12
3.55075e-12
1.43392e-12
1.24772e-12
1.11913e-12
1.0364e-12
1.07722e-12
1.31711e-12
2.82726e-12
3.31924e-12
2.70449e-12
3.43524e-12
1.41159e-12
1.25695e-12
1.1503e-12
1.06629e-12
1.05369e-12
1.1688e-12
2.32828e-12
2.84413e-12
2.6268e-12
3.32444e-12
1.38142e-12
1.25397e-12
1.16828e-12
1.0927e-12
1.05423e-12
1.08131e-12
1.90016e-12
2.43268e-12
2.55494e-12
3.21938e-12
1.3479e-12
1.24335e-12
1.1764e-12
1.1128e-12
1.06522e-12
1.03929e-12
1.53283e-12
2.07615e-12
2.48855e-12
3.11946e-12
1.31127e-12
1.22624e-12
1.17623e-12
1.12639e-12
1.08093e-12
1.0249e-12
1.21686e-12
1.76618e-12
2.42725e-12
3.02532e-12
1.27314e-12
1.20446e-12
1.16985e-12
1.13373e-12
1.09589e-12
1.02562e-12
9.47094e-13
1.49718e-12
2.50445e-12
2.93739e-12
1.23471e-12
1.18029e-12
1.15793e-12
1.13442e-12
1.10694e-12
1.03411e-12
7.16616e-13
1.26539e-12
1.76101e-09
6.32109e-11
1.29838e-12
1.1535e-12
1.14227e-12
1.13012e-12
1.11265e-12
1.04483e-12
5.20391e-13
1.06619e-12
1.11639e-07
5.97378e-08
8.88003e-10
5.17758e-12
1.09989e-12
1.11865e-12
1.11225e-12
1.05134e-12
3.48387e-13
8.98645e-13
3.84768e-12
4.34943e-12
1.11502e-12
7.61152e-13
4.95156e-13
3.50034e-13
4.85394e-13
7.92159e-13
2.00199e-12
2.03105e-12
3.77185e-12
4.28218e-12
1.15986e-12
8.42871e-13
6.0021e-13
4.20655e-13
4.29415e-13
6.42987e-13
1.83701e-12
1.91444e-12
3.69608e-12
4.20808e-12
1.18213e-12
9.00703e-13
6.84272e-13
4.99788e-13
4.25631e-13
5.29647e-13
1.59776e-12
1.71981e-12
3.62436e-12
4.1326e-12
1.19313e-12
9.43393e-13
7.50872e-13
5.74401e-13
4.58125e-13
4.59782e-13
1.38454e-12
1.54435e-12
3.55643e-12
4.05808e-12
1.19561e-12
9.74009e-13
8.04125e-13
6.40454e-13
5.07652e-13
4.34896e-13
1.19408e-12
1.38558e-12
3.4932e-12
3.98484e-12
1.19134e-12
9.95592e-13
8.4714e-13
6.98416e-13
5.62632e-13
4.45797e-13
1.026e-12
1.24344e-12
3.43333e-12
3.91318e-12
1.18225e-12
1.00974e-12
8.80151e-13
7.47251e-13
6.16694e-13
4.78579e-13
8.79534e-13
1.1173e-12
3.50257e-12
3.84574e-12
1.16982e-12
1.01756e-12
9.05246e-13
7.87917e-13
6.66511e-13
5.22066e-13
7.53902e-13
1.00589e-12
2.00327e-09
6.49497e-11
1.3459e-12
1.02087e-12
9.24908e-13
8.21549e-13
7.10207e-13
5.68943e-13
6.48931e-13
9.09251e-13
3.16598e-07
4.1354e-08
7.9257e-10
7.50376e-12
9.31484e-13
8.46894e-13
7.47823e-13
6.11912e-13
5.65069e-13
8.301e-13
4.80014e-12
4.88781e-12
7.31487e-13
4.97792e-13
2.7227e-13
1.51695e-13
2.66353e-13
4.70497e-13
1.44393e-12
1.29149e-12
4.73486e-12
4.86516e-12
7.69916e-13
5.35803e-13
3.11263e-13
1.24618e-13
1.63184e-13
3.66681e-13
1.43334e-12
1.30732e-12
4.67204e-12
4.83816e-12
7.97926e-13
5.72344e-13
3.60638e-13
1.62613e-13
7.61858e-14
2.67129e-13
1.32861e-12
1.2332e-12
4.61098e-12
4.80616e-12
8.20347e-13
6.05299e-13
4.103e-13
2.207e-13
4.56337e-14
1.74726e-13
1.23363e-12
1.16478e-12
4.5526e-12
4.77114e-12
8.37523e-13
6.35558e-13
4.57099e-13
2.80852e-13
1.08588e-13
9.15552e-14
1.14666e-12
1.10161e-12
4.49649e-12
4.73355e-12
8.50473e-13
6.61605e-13
4.99818e-13
3.3725e-13
1.76467e-13
3.20419e-14
1.06763e-12
1.04375e-12
4.44314e-12
4.69513e-12
8.59607e-13
6.83993e-13
5.37874e-13
3.89197e-13
2.39007e-13
7.15701e-14
9.97466e-13
9.91371e-13
4.5101e-12
4.65831e-12
8.64801e-13
7.02128e-13
5.71205e-13
4.35541e-13
2.95833e-13
1.347e-13
9.35079e-13
9.4431e-13
2.18451e-09
6.16043e-11
1.17827e-12
7.1784e-13
6.00082e-13
4.76494e-13
3.4776e-13
1.94742e-13
8.80682e-13
9.01795e-13
5.02489e-07
1.80615e-08
4.80107e-10
5.97083e-12
6.29084e-13
5.13409e-13
3.94588e-13
2.51022e-13
8.33701e-13
8.73815e-13
5.41631e-12
5.16529e-12
5.01567e-13
5.99776e-13
5.10147e-13
4.40364e-13
4.00923e-13
4.2025e-13
1.21252e-12
9.8095e-13
5.35825e-12
5.17152e-12
4.47419e-13
5.39717e-13
4.57252e-13
3.92772e-13
3.55206e-13
3.82018e-13
1.27504e-12
1.05479e-12
5.3048e-12
5.1774e-12
4.04583e-13
4.86542e-13
4.1002e-13
3.47911e-13
3.12253e-13
3.40181e-13
1.2334e-12
1.03241e-12
5.25245e-12
5.17686e-12
3.74943e-13
4.41468e-13
3.69605e-13
3.09996e-13
2.73765e-13
3.01609e-13
1.19381e-12
1.01031e-12
5.20154e-12
5.17141e-12
3.57653e-13
4.05578e-13
3.38508e-13
2.79389e-13
2.40714e-13
2.66001e-13
1.15606e-12
9.89675e-13
5.15279e-12
5.16274e-12
3.50291e-13
3.77483e-13
3.13258e-13
2.54832e-13
2.13486e-13
2.34932e-13
1.12049e-12
9.69985e-13
5.10569e-12
5.15104e-12
3.49438e-13
3.55946e-13
2.95401e-13
2.37662e-13
1.93424e-13
2.07057e-13
1.08647e-12
9.51783e-13
5.17367e-12
5.13983e-12
3.52932e-13
3.39933e-13
2.83001e-13
2.2642e-13
1.78495e-13
1.84538e-13
1.05483e-12
9.33585e-13
2.27974e-09
5.75065e-11
8.80614e-13
3.28467e-13
2.75148e-13
2.20729e-13
1.71497e-13
1.6731e-13
1.02366e-12
9.16444e-13
6.17037e-07
1.69399e-08
3.68715e-10
4.56527e-12
2.59567e-13
2.22742e-13
1.74749e-13
1.62286e-13
9.95331e-13
9.40534e-13
5.42099e-12
5.13625e-12
4.92765e-13
6.24623e-13
5.3978e-13
4.65895e-13
4.12575e-13
4.12392e-13
1.14562e-12
9.36678e-13
5.36279e-12
5.14444e-12
4.17541e-13
5.55551e-13
4.8303e-13
4.18185e-13
3.72048e-13
3.82369e-13
1.21754e-12
1.01408e-12
5.30963e-12
5.15342e-12
3.5382e-13
4.92621e-13
4.29838e-13
3.72385e-13
3.32006e-13
3.45824e-13
1.18373e-12
9.9509e-13
5.25767e-12
5.15548e-12
3.04395e-13
4.36513e-13
3.82176e-13
3.31349e-13
2.95305e-13
3.12344e-13
1.15139e-12
9.76392e-13
5.20746e-12
5.15314e-12
2.70613e-13
3.8963e-13
3.41597e-13
2.95169e-13
2.62128e-13
2.80824e-13
1.12042e-12
9.59137e-13
5.15928e-12
5.14681e-12
2.51448e-13
3.5024e-13
3.07248e-13
2.64388e-13
2.32915e-13
2.51614e-13
1.09085e-12
9.42637e-13
5.11279e-12
5.13763e-12
2.44224e-13
3.17607e-13
2.78798e-13
2.38683e-13
2.07968e-13
2.25391e-13
1.06243e-12
9.27242e-13
5.18096e-12
5.12839e-12
2.46235e-13
2.91549e-13
2.56237e-13
2.18045e-13
1.86494e-13
2.01886e-13
1.03562e-12
9.12173e-13
2.27974e-09
5.75062e-11
8.3804e-13
2.70899e-13
2.38089e-13
2.0229e-13
1.71113e-13
1.82059e-13
1.00924e-12
8.9774e-13
6.17037e-07
1.69399e-08
3.68694e-10
4.53864e-12
2.06221e-13
1.95098e-13
1.65645e-13
1.72135e-13
9.84437e-13
9.36326e-13
4.80603e-12
4.80783e-12
6.58863e-13
5.12366e-13
3.33526e-13
2.27327e-13
2.61855e-13
4.08698e-13
1.21313e-12
1.14507e-12
4.74254e-12
4.79343e-12
6.78179e-13
5.19723e-13
3.36108e-13
1.94294e-13
1.82283e-13
3.25978e-13
1.23492e-12
1.17251e-12
4.68195e-12
4.77532e-12
6.96973e-13
5.34866e-13
3.56587e-13
1.9759e-13
1.18563e-13
2.41648e-13
1.15824e-12
1.11044e-12
4.62302e-12
4.7519e-12
7.14115e-13
5.53029e-13
3.84995e-13
2.24906e-13
9.04196e-14
1.63313e-13
1.08854e-12
1.05342e-12
4.56668e-12
4.72502e-12
7.30329e-13
5.72689e-13
4.1696e-13
2.63682e-13
1.1505e-13
9.46696e-14
1.02482e-12
1.00144e-12
4.51262e-12
4.69533e-12
7.43982e-13
5.92279e-13
4.49527e-13
3.06108e-13
1.61972e-13
4.8998e-14
9.67724e-13
9.54791e-13
4.46085e-12
4.66397e-12
7.55078e-13
6.10494e-13
4.80633e-13
3.48064e-13
2.12694e-13
6.95713e-14
9.1665e-13
9.12747e-13
4.52933e-12
4.6333e-12
7.63519e-13
6.26926e-13
5.09457e-13
3.87386e-13
2.61447e-13
1.19726e-13
8.71818e-13
8.75354e-13
2.18451e-09
6.16047e-11
1.09954e-12
6.41316e-13
5.35484e-13
4.24157e-13
3.07502e-13
1.71928e-13
8.33221e-13
8.43021e-13
5.02489e-07
1.80615e-08
4.80066e-10
5.92068e-12
5.60815e-13
4.5776e-13
3.50233e-13
2.22922e-13
8.00149e-13
8.35027e-13
3.84971e-12
4.24807e-12
9.7698e-13
6.55438e-13
3.94991e-13
2.1844e-13
3.32875e-13
6.07561e-13
1.49434e-12
1.71071e-12
3.77981e-12
4.19712e-12
1.02657e-12
7.33723e-13
4.98476e-13
3.07557e-13
2.91629e-13
4.87549e-13
1.40338e-12
1.62649e-12
3.70998e-12
4.13758e-12
1.05715e-12
7.94022e-13
5.83667e-13
3.97421e-13
3.04412e-13
3.93506e-13
1.22933e-12
1.4634e-12
3.6424e-12
4.0756e-12
1.07658e-12
8.39888e-13
6.52653e-13
4.77566e-13
3.50925e-13
3.38952e-13
1.07264e-12
1.31615e-12
3.57869e-12
4.01266e-12
1.08821e-12
8.76224e-13
7.09588e-13
5.47905e-13
4.10248e-13
3.28355e-13
9.32947e-13
1.18377e-12
3.51835e-12
3.95001e-12
1.09282e-12
9.03022e-13
7.56089e-13
6.09404e-13
4.72236e-13
3.50779e-13
8.10521e-13
1.06562e-12
3.46118e-12
3.888e-12
1.09247e-12
9.2293e-13
7.93358e-13
6.61617e-13
5.30629e-13
3.93085e-13
7.0513e-13
9.62307e-13
3.53234e-12
3.82894e-12
1.08737e-12
9.36636e-13
8.23831e-13
7.05867e-13
5.84334e-13
4.42734e-13
6.17631e-13
8.71627e-13
2.00328e-09
6.49524e-11
1.27478e-12
9.46159e-13
8.47761e-13
7.43195e-13
6.31584e-13
4.93529e-13
5.47099e-13
7.94666e-13
3.16598e-07
4.1354e-08
7.92541e-10
7.46427e-12
8.597e-13
7.72497e-13
6.72141e-13
5.40111e-13
4.94724e-13
7.37765e-13
2.87634e-12
3.56736e-12
1.27346e-12
1.03665e-12
8.76022e-13
7.89294e-13
8.63255e-13
1.14876e-12
2.19637e-12
3.00516e-12
2.80301e-12
3.48175e-12
1.29468e-12
1.0898e-12
9.4616e-13
8.45625e-13
8.48441e-13
1.01276e-12
1.9145e-12
2.67879e-12
2.72622e-12
3.38475e-12
1.29197e-12
1.11789e-12
9.94831e-13
8.95284e-13
8.56031e-13
9.2115e-13
1.57847e-12
2.29822e-12
2.654e-12
3.28988e-12
1.27999e-12
1.13173e-12
1.02862e-12
9.37928e-13
8.78625e-13
8.75379e-13
1.28239e-12
1.96585e-12
2.58666e-12
3.19785e-12
1.2612e-12
1.13668e-12
1.05147e-12
9.72686e-13
9.08642e-13
8.61622e-13
1.02669e-12
1.67601e-12
2.52343e-12
3.10915e-12
1.23819e-12
1.13349e-12
1.06528e-12
9.99853e-13
9.39413e-13
8.68168e-13
8.05108e-13
1.42366e-12
2.46481e-12
3.02404e-12
1.2121e-12
1.12502e-12
1.07133e-12
1.01838e-12
9.66455e-13
8.85285e-13
6.13041e-13
1.20543e-12
2.54267e-12
2.94435e-12
1.18386e-12
1.11153e-12
1.07166e-12
1.03104e-12
9.87804e-13
9.06839e-13
4.46883e-13
1.01768e-12
1.76101e-09
6.32155e-11
1.25496e-12
1.09542e-12
1.06647e-12
1.03728e-12
1.00432e-12
9.28198e-13
3.06258e-13
8.57685e-13
1.11639e-07
5.97378e-08
8.87984e-10
5.14607e-12
1.03512e-12
1.03633e-12
1.01362e-12
9.44347e-13
1.79891e-13
7.25201e-13
2.0792e-12
2.89269e-12
1.44261e-12
1.38416e-12
1.38549e-12
1.44572e-12
1.64482e-12
2.11473e-12
3.79206e-12
6.27379e-12
2.00452e-12
2.78111e-12
1.41611e-12
1.37955e-12
1.39293e-12
1.44453e-12
1.58252e-12
1.8878e-12
3.14518e-12
5.27071e-12
1.92596e-12
2.65936e-12
1.36727e-12
1.34933e-12
1.37537e-12
1.42695e-12
1.53181e-12
1.72417e-12
2.51179e-12
4.32078e-12
1.85364e-12
2.54436e-12
1.3153e-12
1.31211e-12
1.34872e-12
1.40542e-12
1.49634e-12
1.6159e-12
1.98881e-12
3.53776e-12
1.78741e-12
2.43662e-12
1.26216e-12
1.27096e-12
1.31697e-12
1.37955e-12
1.46737e-12
1.54499e-12
1.56111e-12
2.89323e-12
1.72634e-12