/*--------------------------------*- C++ -*----------------------------------*\
| =========                 |                                                 |
| \\      /  F ield         | OpenFOAM: The Open Source CFD Toolbox           |
|  \\    /   O peration     | Version:  4.1                                   |
|   \\  /    A nd           | Web:      www.OpenFOAM.org                      |
|    \\/     M anipulation  |                                                 |
\*---------------------------------------------------------------------------*/
FoamFile
{
    version     2.0;
    format      ascii;
    class       surfaceScalarField;
    location    "0.58";
    object      phi;
}
// * * * * * * * * * * * * * * * * * * * * * * * * * * * * * * * * * * * * * //

dimensions      [1 0 -1 0 0 0 0];

internalField   nonuniform List<scalar> 
51500
(
3.65545e-13
1.56103e-14
1.45945e-11
-1.38961e-15
2.04659e-14
1.44294e-11
-2.71351e-15
1.92261e-14
1.42654e-11
-2.64569e-15
1.78972e-14
1.41041e-11
-2.56781e-15
1.65216e-14
1.39442e-11
-2.507e-15
1.51171e-14
1.37866e-11
-2.58603e-15
1.3718e-14
1.36305e-11
-2.53147e-15
1.23366e-14
1.34774e-11
-2.55089e-15
1.09409e-14
1.33264e-11
9.55516e-15
1.31799e-11
-7.35089e-17
3.68404e-13
1.0216e-14
1.82734e-11
-1.06878e-14
1.01788e-14
1.76296e-11
-9.84796e-15
8.67508e-15
1.70081e-11
-9.65104e-15
7.24777e-15
1.64131e-11
-9.36682e-15
5.95083e-15
1.58436e-11
-9.0314e-15
4.95888e-15
1.52979e-11
-8.78829e-15
4.3096e-15
1.47743e-11
-8.55096e-15
3.16446e-15
1.42731e-11
-8.26748e-15
1.94463e-15
1.37911e-11
8.11718e-16
1.33374e-11
-8.11417e-16
3.67569e-13
1.05975e-14
2.31581e-11
-2.33966e-14
1.20828e-14
2.17483e-11
-1.95074e-14
9.97957e-15
2.04304e-11
-1.85202e-14
8.10637e-15
1.92086e-11
-1.75328e-14
6.43639e-15
1.80736e-11
-1.6763e-14
4.94572e-15
1.70193e-11
-1.58741e-14
3.63111e-15
1.60407e-11
-1.52025e-14
2.44839e-15
1.51285e-11
-1.44354e-14
1.41108e-15
1.42796e-11
5.29778e-16
1.34982e-11
-1.50422e-15
3.60732e-13
1.38999e-14
2.97341e-11
-4.11986e-14
1.48271e-14
2.71014e-11
-3.21382e-14
1.1924e-14
2.47348e-11
-2.9817e-14
9.40826e-15
2.26066e-11
-2.76386e-14
7.28314e-15
2.06997e-11
-2.57026e-14
5.47036e-15
1.89855e-11
-2.39326e-14
3.92613e-15
1.74415e-11
-2.23337e-14
2.59676e-15
1.60481e-11
-2.07185e-14
1.46005e-15
1.47885e-11
5.12228e-16
1.36616e-11
-2.28441e-15
3.42949e-13
1.85906e-14
3.87285e-11
-6.57337e-14
1.85054e-14
3.41471e-11
-4.91222e-14
1.43829e-14
3.01922e-11
-4.42109e-14
1.10171e-14
2.6768e-11
-3.99421e-14
8.2898e-15
2.38073e-11
-3.62164e-14
6.07206e-15
2.12362e-11
-3.30094e-14
4.24687e-15
1.8996e-11
-3.01497e-14
2.75091e-15
1.70382e-11
-2.73969e-14
1.52022e-15
1.53207e-11
5.37268e-16
1.38283e-11
-3.05962e-15
3.06199e-13
2.54421e-14
5.12389e-11
-1.25213e-13
2.35347e-14
4.35442e-11
-7.1866e-14
1.76051e-14
3.71868e-11
-6.27039e-14
1.30049e-14
3.18999e-11
-5.5022e-14
9.48959e-15
2.75028e-11
-4.86542e-14
6.74949e-15
2.38214e-11
-4.3243e-14
4.60895e-15
2.0724e-11
-3.86276e-14
2.9145e-15
1.81043e-11
-3.43692e-14
1.58234e-15
1.58766e-11
5.41798e-16
1.39978e-11
-3.92069e-15
2.33475e-13
4.43344e-14
6.89448e-11
-2.0026e-13
3.8185e-14
5.62704e-11
-1.03005e-13
2.73653e-14
4.62434e-11
-8.65907e-14
1.94928e-14
3.82801e-11
-7.36812e-14
1.37816e-14
3.19217e-11
-6.32764e-14
9.56191e-15
2.68013e-11
-5.48557e-14
6.39532e-15
2.26476e-11
-4.78443e-14
4.01331e-15
1.9253e-11
-4.17778e-14
2.18848e-15
1.64585e-11
7.85521e-16
1.41702e-11
-4.77287e-15
1.50772e-13
-2.77418e-13
9.45496e-11
-2.9617e-13
-3.08532e-13
7.37538e-11
-1.4518e-13
-3.24542e-13
5.81077e-11
-1.17206e-13
-3.34817e-13
4.62747e-11
-9.62664e-14
-3.41621e-13
3.72364e-11
-8.01782e-14
-3.46102e-13
3.02529e-11
-6.75347e-14
-3.49023e-13
2.4799e-11
-5.7507e-14
-3.50908e-13
2.0498e-11
-4.89594e-14
-3.52103e-13
1.70715e-11
-3.5758e-13
1.43518e-11
-5.70572e-15
2.92086e-12
-7.41329e-10
1.61899e-10
2.39439e-12
-7.91771e-10
1.2339e-10
2.16655e-12
-7.96525e-10
9.73342e-11
1.96481e-12
-8.00004e-10
7.85407e-11
1.78607e-12
-8.02746e-10
6.48347e-11
1.62826e-12
-8.0493e-10
5.46878e-11
1.48888e-12
-8.06681e-10
4.70822e-11
1.36558e-12
-8.08096e-10
4.1318e-11
1.23589e-12
-8.09296e-10
3.69024e-11
-8.24915e-10
3.37845e-11
-6.67175e-15
-2.81097e-10
1.329e-07
-8.53472e-07
2.88718e-10
1.12576e-07
-9.36974e-07
3.04298e-10
9.84298e-08
-9.38937e-07
2.94985e-10
8.67094e-08
-9.40426e-07
2.85216e-10
7.68971e-08
-9.41723e-07
2.75389e-10
6.86153e-08
-9.42867e-07
2.6572e-10
6.15709e-08
-9.43889e-07
2.5331e-10
5.55357e-08
-9.4481e-07
1.19266e-10
5.03348e-08
-9.45714e-07
4.66393e-08
-7.7102e-15
-9.80955e-07
3.42111e-13
8.98634e-14
5.76844e-13
-1.86801e-14
8.47398e-14
5.67028e-13
-2.54574e-14
7.46745e-14
5.57797e-13
-2.46949e-14
6.49224e-14
5.47078e-13
-2.43015e-14
5.55061e-14
5.37563e-13
-2.41193e-14
4.63892e-14
5.28802e-13
-2.39727e-14
3.75775e-14
5.18881e-13
-2.3777e-14
2.90766e-14
5.10306e-13
-2.57588e-14
2.08046e-14
5.01642e-13
1.29514e-14
4.92568e-13
-1.59204e-15
2.8475e-13
8.43656e-14
8.01115e-13
-7.09842e-14
7.6708e-14
7.60352e-13
-8.56519e-14
6.49473e-14
7.22104e-13
-8.25523e-14
5.37303e-14
6.84349e-13
-8.02661e-14
4.28659e-14
6.49426e-13
-7.80909e-14
3.04666e-14
6.15842e-13
-7.57701e-14
2.1026e-14
5.85401e-13
-7.4568e-14
1.37634e-14
5.5568e-13
-7.85748e-14
7.6474e-15
5.29099e-13
2.55836e-15
5.02044e-13
-4.29843e-15
1.99144e-13
1.06565e-13
1.131e-12
-1.79553e-13
9.4939e-14
1.03114e-12
-1.62817e-13
7.93768e-14
9.45383e-13
-1.54431e-13
6.50566e-14
8.61542e-13
-1.47015e-13
5.21609e-14
7.8809e-13
-1.4017e-13
4.04821e-14
7.21636e-13
-1.33919e-13
2.99051e-14
6.61686e-13
-1.28458e-13
2.0385e-14
6.07345e-13
-1.34096e-13
1.18146e-14
5.57672e-13
4.20416e-15
5.13179e-13
-6.88295e-15
7.71923e-14
1.30861e-13
1.6276e-12
-3.1051e-13
1.1331e-13
1.42314e-12
-2.62392e-13
9.25312e-14
1.25181e-12
-2.43006e-13
7.41875e-14
1.09669e-12
-2.26762e-13
5.81744e-14
9.63979e-13
-2.1198e-13
4.419e-14
8.49508e-13
-1.98365e-13
3.20303e-14
7.51164e-13
-1.86569e-13
2.14324e-14
6.66348e-13
-1.9117e-13
1.2179e-14
5.90121e-13
4.2109e-15
5.23503e-13
-9.84282e-15
-4.61469e-14
1.62496e-13
2.39276e-12
-4.76624e-13
1.3646e-13
1.99933e-12
-3.898e-13
1.08696e-13
1.68089e-12
-3.5269e-13
8.50043e-14
1.40938e-12
-3.21961e-13
6.50967e-14
1.18812e-12
-2.94362e-13
4.83776e-14
1.00656e-12
-2.69857e-13
3.4301e-14
8.56069e-13
-2.49093e-13
2.24817e-14
7.30779e-13
-2.50503e-13
1.25281e-14
6.25514e-13
4.28666e-15
5.35942e-13
-1.29668e-14
-1.85472e-13
2.03737e-13
3.60503e-12
-6.9343e-13
1.66431e-13
2.85727e-12
-5.53576e-13
1.28674e-13
2.28769e-12
-4.88466e-13
9.80083e-14
1.82841e-12
-4.3527e-13
7.31789e-14
1.47471e-12
-3.89228e-13
5.30482e-14
1.1978e-12
-3.49198e-13
3.67877e-14
9.79794e-13
-3.16046e-13
2.35884e-14
8.05974e-13
-3.11983e-13
1.29368e-14
6.6623e-13
4.29002e-15
5.49966e-13
-1.59608e-14
-6.08361e-13
2.57643e-13
5.57154e-12
-9.82602e-13
2.10814e-13
4.16862e-12
-7.63794e-13
1.58592e-13
3.15812e-12
-6.56553e-13
1.17942e-13
2.39556e-12
-5.70597e-13
8.63825e-14
1.84342e-12
-4.98046e-13
6.18119e-14
1.43282e-12
-4.37277e-13
4.25188e-14
1.12432e-12
-3.87253e-13
2.73127e-14
8.91093e-13
-3.76021e-13
1.50611e-14
7.08656e-13
4.80607e-15
5.65657e-13
-1.8992e-14
-1.12017e-12
3.13799e-13
8.86404e-12
-1.3704e-12
2.21118e-13
6.21713e-12
-1.03478e-12
1.56016e-13
4.42937e-12
-8.64412e-13
1.08463e-13
3.17924e-12
-7.31195e-13
7.34931e-14
2.3245e-12
-6.23189e-13
4.74065e-14
1.72374e-12
-5.34336e-13
2.77701e-14
1.29728e-12
-4.63835e-13
1.28428e-14
9.86858e-13
-4.42002e-13
1.40356e-15
7.57235e-13
-7.3798e-15
5.81945e-13
-2.2131e-14
-1.94888e-12
7.25315e-12
1.671e-11
-1.60445e-12
-3.03921e-11
8.93621e-12
-1.00053e-12
-2.782e-11
6.03349e-12
-8.34909e-13
-2.56438e-11
4.21165e-12
-7.11557e-13
-2.399e-11
3.06343e-12
-6.17671e-13
-2.273e-11
2.31769e-12
-5.7524e-13
-2.1773e-11
1.82103e-12
-5.47111e-13
-2.10507e-11
1.48247e-12
-5.61531e-13
-2.05143e-11
1.24297e-12
-2.02805e-11
1.06673e-12
-2.53376e-14
-8.28851e-10
1.14446e-08
7.80227e-08
-2.78525e-10
5.78979e-09
-1.58099e-09
-2.99267e-10
4.34314e-09
-1.77592e-09
-2.89767e-10
3.33192e-09
-1.75362e-09
-2.80008e-10
2.59748e-09
-1.72386e-09
-2.7029e-10
2.05427e-09
-1.6914e-09
-2.60785e-10
1.64605e-09
-1.65853e-09
-2.51632e-10
1.33484e-09
-1.62677e-09
-2.46158e-10
1.09461e-09
-1.60186e-09
9.14335e-10
-2.8722e-14
-1.88853e-09
3.44638e-13
8.20969e-14
2.05333e-14
-1.68488e-14
7.79308e-14
1.88761e-14
-2.22623e-14
6.8745e-14
1.74996e-14
-2.02421e-14
5.98864e-14
1.59288e-14
-1.86705e-14
5.13196e-14
1.42154e-14
-2.02232e-14
4.29845e-14
1.21556e-14
-1.90012e-14
3.50097e-14
1.12822e-14
-1.94092e-14
2.72526e-14
1.03643e-14
-2.3484e-14
1.9757e-14
9.51621e-15
1.26243e-14
9.58299e-15
-1.33465e-15
2.9328e-13
5.93159e-14
3.30369e-14
-6.50529e-14
5.44586e-14
2.97046e-14
-7.20163e-14
4.61731e-14
2.89169e-14
-6.69482e-14
3.82454e-14
2.43247e-14
-6.57766e-14
3.08776e-14
2.12022e-14
-6.25351e-14
2.40841e-14
1.93544e-14
-6.1517e-14
1.77831e-14
1.55566e-14
-6.07937e-14
1.20392e-14
1.37027e-14
-7.13437e-14
6.8568e-15
1.2812e-14
2.41274e-15
1.13933e-14
-4.42701e-15
2.14739e-13
7.58671e-14
4.99807e-14
-1.65492e-13
6.85329e-14
4.51578e-14
-1.36791e-13
5.76733e-14
4.34686e-14
-1.25088e-13
4.77246e-14
3.77852e-14
-1.18931e-13
3.86943e-14
3.19072e-14
-1.12701e-13
3.04209e-14
2.65296e-14
-1.07394e-13
2.33635e-14
2.27054e-14
-1.05351e-13
1.64609e-14
1.99443e-14
-1.21266e-13
9.55441e-15
1.71179e-14
3.33372e-15
1.42047e-14
-7.24247e-15
9.35233e-14
9.43054e-14
8.00685e-14
-2.89283e-13
8.2575e-14
7.39746e-14
-2.19448e-13
6.77931e-14
6.92904e-14
-1.95631e-13
5.4785e-14
5.715e-14
-1.82363e-13
4.34597e-14
4.76394e-14
-1.69311e-13
3.37456e-14
4.01331e-14
-1.54097e-13
2.56048e-14
3.37538e-14
-1.529e-13
1.70823e-14
2.85013e-14
-1.73188e-13
9.79382e-15
2.54307e-14
3.47936e-15
1.90691e-14
-1.03817e-14
-2.44041e-14
1.18958e-13
1.36647e-13
-4.46473e-13
1.00325e-13
1.22449e-13
-3.24586e-13
8.03044e-14
1.10643e-13
-2.70161e-13
6.31724e-14
8.98279e-14
-2.46324e-13
4.8884e-14
7.25254e-14
-2.24078e-13
3.70237e-14
5.92027e-14
-2.03922e-13
2.77264e-14
4.94468e-14
-2.01911e-13
1.83991e-14
4.23965e-14
-2.26976e-13
1.04009e-14
3.63161e-14
3.60937e-15
2.62622e-14
-1.31637e-14
-1.60936e-13
1.51823e-13
2.37191e-13
-6.52206e-13
1.24093e-13
2.09557e-13
-4.45059e-13
9.59802e-14
1.77881e-13
-3.67626e-13
7.33326e-14
1.39194e-13
-3.27004e-13
5.53044e-14
1.10222e-13
-2.90387e-13
4.07724e-14
8.80738e-14
-2.59211e-13
2.95469e-14
7.19888e-14
-2.50906e-13
1.92813e-14
6.0079e-14
-2.82992e-13
1.04749e-14
4.81355e-14
3.60903e-15
3.43466e-14
-1.64799e-14
-5.7554e-13
1.92838e-13
4.1817e-13
-9.2906e-13
1.54422e-13
3.55874e-13
-5.867e-13
1.1549e-13
2.84657e-13
-4.8977e-13
8.5666e-14
2.15654e-13
-4.2438e-13
6.27496e-14
1.64814e-13
-3.67887e-13
4.52951e-14
1.28362e-13
-3.20192e-13
3.25292e-14
1.02512e-13
-2.92395e-13
2.05029e-14
8.21231e-14
-3.40835e-13
1.11816e-14
6.67725e-14
3.89752e-15
4.4515e-14
-1.96605e-14
-1.10356e-12
3.19455e-13
7.57211e-13
-1.30314e-12
2.23255e-13
6.06194e-13
-7.86419e-13
1.56927e-13
4.56662e-13
-6.43284e-13
1.09812e-13
3.28505e-13
-5.40657e-13
7.6085e-14
2.42878e-13
-4.5644e-13
5.16184e-14
1.83916e-13
-3.89142e-13
3.36708e-14
1.40715e-13
-3.41802e-13
2.04519e-14
1.10467e-13
-4.01017e-13
1.06144e-14
8.86196e-14
3.37984e-15
5.61367e-14
-2.29834e-14
-2.1271e-12
3.94696e-11
4.52422e-12
-1.7777e-12
1.11881e-12
9.4057e-13
-1.04955e-12
5.42181e-13
6.45822e-13
-8.35611e-13
3.06291e-13
4.52296e-13
-6.81747e-13
1.3431e-13
3.27625e-13
-5.62193e-13
9.1991e-15
2.44218e-13
-4.68073e-13
-8.1955e-14
1.86977e-13
-4.01533e-13
-1.47948e-13
1.46313e-13
-4.68477e-13
-1.95418e-13
1.17072e-13
-2.26288e-13
7.7778e-14
-2.63199e-14
-4.99117e-10
4.91392e-09
7.00233e-08
-3.11328e-11
2.4035e-10
1.24736e-10
-3.13514e-11
1.25676e-10
-4.24491e-11
-2.62704e-11
8.31381e-11
-3.33606e-11
-2.20913e-11
5.6677e-11
-2.48655e-11
-1.87408e-11
3.95618e-11
-1.7185e-11
-1.60236e-11
2.82286e-11
-1.33124e-11
-1.38067e-11
2.05379e-11
-1.06357e-11
-1.19749e-11
1.52125e-11
-8.53866e-12
1.13265e-11
-2.98635e-14
-6.03941e-12
3.44796e-13
8.11474e-14
1.05495e-14
-1.68242e-14
7.71043e-14
9.45183e-15
-2.19205e-14
6.80519e-14
7.87361e-15
-1.9764e-14
5.92741e-14
6.31107e-15
-1.90094e-14
5.08235e-14
4.49237e-15
-1.94908e-14
4.2644e-14
3.61559e-15
-1.81612e-14
3.47136e-14
1.96069e-15
-1.91887e-14
2.70519e-14
1.15615e-15
-2.30843e-14
1.96704e-14
7.62283e-16
1.26138e-14
3.88031e-16
-1.57166e-15
2.94339e-13
5.81758e-14
1.77981e-14
-6.43515e-14
5.34837e-14
1.54921e-14
-7.09233e-14
4.53489e-14
1.60081e-14
-6.43275e-14
3.76547e-14
1.27448e-14
-6.2285e-14
3.04162e-14
9.2413e-15
-6.1873e-14
2.36925e-14
6.7819e-15
-5.88732e-14
1.75587e-14
5.67697e-15
-5.87897e-14
1.19199e-14
4.34337e-15
-7.04668e-14
6.79347e-15
3.564e-15
2.41638e-15
2.12796e-15
-4.37215e-15
2.17304e-13
7.3969e-14
2.5822e-14
-1.63356e-13
6.69009e-14
2.43105e-14
-1.3258e-13
5.6205e-14
2.58416e-14
-1.16763e-13
4.62751e-14
1.97461e-14
-1.13598e-13
3.73807e-14
1.64252e-14
-1.03676e-13
2.93372e-14
1.36246e-14
-9.86237e-14
2.18186e-14
1.0722e-14
-1.0288e-13
1.50317e-14
8.79146e-15
-1.19737e-13
9.38122e-15
7.56682e-15
3.10637e-15
5.55761e-15
-7.1386e-15
9.69053e-14
9.1957e-14
4.26582e-14
-2.85613e-13
8.04602e-14
4.24565e-14
-2.12268e-13
6.59871e-14
4.46729e-14
-1.79141e-13
5.32617e-14
3.64531e-14
-1.67035e-13
4.20229e-14
2.98255e-14
-1.55617e-13
3.21651e-14
2.50167e-14
-1.44444e-13
2.35565e-14
2.07123e-14
-1.47121e-13
1.59787e-14
1.7609e-14
-1.7124e-13
9.58359e-15
1.48529e-14
3.56047e-15
1.0195e-14
-1.04858e-14
-1.90018e-14
1.15866e-13
7.46741e-14
-4.40332e-13
9.78586e-14
7.78338e-14
-2.98619e-13
7.81773e-14
7.64723e-14
-2.58255e-13
6.13237e-14
6.14228e-14
-2.34933e-13
4.73149e-14
5.1511e-14
-2.13795e-13
3.54938e-14
4.23455e-14
-1.94869e-13
2.55665e-14
3.52079e-14
-1.91042e-13
1.75537e-14
3.07416e-14
-2.24427e-13
9.63872e-15
2.73715e-14
3.56241e-15
1.77477e-14
-1.33344e-14
-1.53145e-13
1.47768e-13
1.33247e-13
-6.42742e-13
1.20855e-13
1.37245e-13
-4.13863e-13
9.33592e-14
1.2956e-13
-3.5478e-13
7.12799e-14
1.0425e-13
-3.15647e-13
5.35106e-14
8.45522e-14
-2.80383e-13
3.90838e-14
7.01343e-14
-2.50124e-13
2.74164e-14
5.82234e-14
-2.34544e-13
1.79195e-14
4.85044e-14
-2.79575e-13
1.04973e-14
4.27918e-14
3.68022e-15
2.76127e-14
-1.6675e-14
-5.57627e-13
1.88267e-13
2.37952e-13
-9.14264e-13
1.50569e-13
2.45686e-13
-5.64257e-13
1.12614e-13
2.14559e-13
-4.75218e-13
8.33023e-14
1.69073e-13
-4.11625e-13
6.08151e-14
1.34274e-13
-3.56842e-13
4.34201e-14
1.0896e-13
-3.11701e-13
2.97087e-14
8.79505e-14
-2.80825e-13
1.89908e-14
7.39894e-14
-3.37335e-13
1.08809e-14
6.23542e-14
3.42895e-15
4.00347e-14
-1.98771e-14
-1.07643e-12
3.13834e-13
4.29649e-13
-1.27927e-12
1.75605e-13
4.28722e-13
-7.62359e-13
1.77743e-13
3.51574e-13
-6.25342e-13
1.25862e-13
2.68359e-13
-5.25857e-13
8.80156e-14
2.07245e-13
-4.45099e-13
6.0407e-14
1.62316e-13
-3.79542e-13
4.00596e-14
1.30329e-13
-3.31579e-13
2.4955e-14
1.059e-13
-3.97492e-13
1.3577e-14
8.66364e-14
5.09818e-15
5.68146e-14
-2.2948e-14
-2.09164e-12
4.00042e-11
6.59088e-12
-1.73808e-12
5.95289e-13
7.83262e-13
-1.02186e-12
2.30725e-13
5.73432e-13
-8.13591e-13
1.51041e-13
4.21648e-13
-6.63216e-13
9.85771e-14
3.1334e-13
-5.46207e-13
6.28834e-14
2.38626e-13
-4.54291e-13
3.83812e-14
1.8414e-13
-3.87511e-13
2.13731e-14
1.45312e-13
-4.5937e-13
9.4864e-15
1.14729e-13
1.27172e-15
7.05272e-14
-2.64894e-14
-4.64016e-10
7.1563e-09
6.9596e-08
-5.19809e-12
5.59834e-11
1.83197e-10
-1.99492e-12
3.8944e-12
5.56154e-13
-2.14104e-12
2.20398e-12
1.68784e-13
-1.64779e-12
1.3941e-12
2.21998e-13
-1.28453e-12
9.20897e-13
2.48748e-13
-1.01712e-12
6.29027e-13
2.40992e-13
-8.21415e-13
4.42986e-13
2.26933e-13
-7.35414e-13
3.18246e-13
2.10822e-13
2.0239e-13
-3.01068e-14
2.60464e-13
3.4467e-13
8.12427e-14
1.84565e-14
-1.71689e-14
7.7171e-14
1.57558e-14
-2.19054e-14
6.81447e-14
1.30959e-14
-2.04744e-14
5.93499e-14
7.67104e-15
-1.73596e-14
5.08744e-14
7.90537e-15
-1.98979e-14
4.26548e-14
3.57476e-15
-1.91182e-14
3.47661e-14
5.01037e-15
-1.88571e-14
2.71222e-14
4.13228e-15
-2.30908e-14
1.97097e-14
8.85239e-16
1.26441e-14
2.06049e-16
-1.79956e-15
2.94045e-13
5.82844e-14
2.70886e-14
-6.45434e-14
5.36004e-14
2.68861e-14
-7.1071e-14
4.54258e-14
2.0021e-14
-6.53813e-14
3.76697e-14
1.70158e-14
-6.2889e-14
3.04834e-14
1.1304e-14
-6.07696e-14
2.37832e-14
9.45047e-15
-5.91693e-14
1.75975e-14
6.42502e-15
-5.92376e-14
1.19554e-14
7.68607e-15
-7.05483e-14
6.84624e-15
6.22872e-15
2.47471e-15
1.69352e-15
-4.34548e-15
2.16936e-13
7.41344e-14
4.25396e-14
-1.63911e-13
6.70329e-14
3.72594e-14
-1.33853e-13
5.63514e-14
3.5829e-14
-1.14691e-13
4.65094e-14
3.29005e-14
-1.1127e-13
3.74874e-14
2.33239e-14
-1.04941e-13
2.94169e-14
1.71251e-14
-9.85638e-14
2.19865e-14
1.51826e-14
-1.02996e-13
1.51843e-14
1.23602e-14
-1.19663e-13
9.23058e-15
1.33824e-14
3.05521e-15
6.26323e-15
-7.43437e-15
9.65e-14
9.22502e-14
6.58737e-14
-2.86321e-13
8.07808e-14
6.32954e-14
-2.13032e-13
6.62005e-14
6.24487e-14
-1.7958e-13
5.33612e-14
5.0785e-14
-1.66851e-13
4.22012e-14
4.15661e-14
-1.56147e-13
3.2235e-14
3.37173e-14
-1.44404e-13
2.35632e-14
3.10432e-14
-1.47738e-13
1.61265e-14
2.51603e-14
-1.71345e-13
9.96923e-15
2.59428e-14
3.74587e-15
1.97568e-14
-1.01661e-14
-1.96503e-14
1.16346e-13
1.09674e-13
-4.41705e-13
9.82069e-14
1.10237e-13
-3.00898e-13
7.85474e-14
1.08656e-13
-2.5798e-13
6.16848e-14
9.25816e-14
-2.35793e-13
4.75508e-14
7.37511e-14
-2.14446e-13
3.57987e-14
6.5412e-14
-1.94774e-13
2.59261e-14
5.69661e-14
-1.88719e-13
1.72931e-14
4.38291e-14
-2.24911e-13
9.48045e-15
3.64172e-14
3.69438e-15
2.47113e-14
-1.33207e-14
-1.54499e-13
1.48511e-13
1.91565e-13
-6.44681e-13
1.21573e-13
2.03486e-13
-4.15349e-13
9.38803e-14
1.81702e-13
-3.55845e-13
7.1709e-14
1.48202e-13
-3.16171e-13
5.38851e-14
1.20956e-13
-2.81237e-13
3.93834e-14
1.01594e-13
-2.50967e-13
2.75637e-14
8.03393e-14
-2.33724e-13
1.83055e-14
7.58306e-14
-2.80319e-13
1.07431e-14
6.0042e-14
3.80751e-15
3.85667e-14
-1.65946e-14
-5.61145e-13
1.89389e-13
3.40143e-13
-9.18064e-13
1.51555e-13
3.50196e-13
-5.66114e-13
1.13407e-13
3.11678e-13
-4.77015e-13
8.39276e-14
2.38357e-13
-4.12813e-13
6.13299e-14
1.94455e-13
-3.58444e-13
4.37762e-14
1.53323e-13
-3.12371e-13
3.01422e-14
1.27757e-13
-2.81573e-13
1.91849e-14
1.04682e-13
-3.38508e-13
1.1137e-14
8.68655e-14
4.04872e-15
5.57741e-14
-1.98357e-14
-1.0834e-12
3.16724e-13
6.05852e-13
-1.28551e-12
1.78842e-13
6.15132e-13
-7.65696e-13
1.3944e-13
5.04157e-13
-6.28254e-13
1.00594e-13
3.82455e-13
-5.28337e-13
7.20132e-14
2.97946e-13
-4.46948e-13
5.36788e-14
2.35532e-13
-3.81211e-13
3.6458e-14
1.84565e-13
-3.33104e-13
2.3027e-14
1.51757e-13
-3.99025e-13
1.26005e-14
1.23311e-13
4.83315e-15
7.78248e-14
-2.31518e-14
-2.11412e-12
4.15624e-11
9.98623e-12
-1.74724e-12
5.48769e-13
1.13093e-12
-1.02777e-12
1.54797e-13
8.17354e-13
-8.18763e-13
1.68415e-13
5.9323e-13
-6.67021e-13
1.10873e-13
4.4622e-13
-5.49529e-13
7.04583e-14
3.38811e-13
-4.56652e-13
3.93387e-14
2.5901e-13
-3.89828e-13
1.73079e-14
2.08203e-13
-4.6185e-13
8.50195e-15
1.66715e-13
3.27651e-15
1.05881e-13
-2.65484e-14
-4.83419e-10
1.13531e-08
7.34837e-08
-4.13209e-12
8.40232e-11
2.0077e-10
-1.30657e-12
1.49476e-12
6.4618e-13
-1.07151e-12
8.18146e-13
1.47179e-13
-8.44548e-13
5.71527e-13
8.43675e-14
-6.73923e-13
4.12736e-13
5.94372e-14
-5.45399e-13
3.06178e-13
4.52897e-14
-4.53033e-13
2.32151e-13
3.54861e-14
-5.29562e-13
1.7866e-13
2.83041e-14
1.09583e-13
-3.01128e-14
2.37014e-14
3.44347e-13
8.13986e-14
2.19778e-14
-1.75051e-14
7.73197e-14
1.50401e-14
-2.25305e-14
6.8221e-14
1.8142e-14
-1.98962e-14
5.94573e-14
1.31661e-14
-1.96157e-14
5.09211e-14
7.60381e-15
-1.91792e-14
4.27228e-14
4.74027e-15
-1.88835e-14
3.47917e-14
2.1794e-15
-1.97053e-14
2.71588e-14
1.11033e-15
-2.31289e-14
1.97775e-14
9.44435e-16
1.26739e-14
1.23631e-15
-1.54889e-15
2.93655e-13
5.84732e-14
3.68427e-14
-6.51951e-14
5.37602e-14
3.33384e-14
-7.05808e-14
4.5599e-14
3.20351e-14
-6.68832e-14
3.77922e-14
2.09194e-14
-6.17166e-14
3.06133e-14
2.16717e-14
-6.16732e-14
2.38609e-14
1.21679e-14
-5.7358e-14
1.76834e-14
8.51951e-15
-5.92031e-14
1.20158e-14
5.26075e-15
-7.08706e-14
6.9089e-15
4.5059e-15
2.53603e-15
4.05454e-15
-4.35979e-15
2.16245e-13
7.4447e-14
4.68665e-14
-1.64905e-13
6.72917e-14
5.0167e-14
-1.34068e-13
5.65589e-14
5.2907e-14
-1.15381e-13
4.66643e-14
4.24474e-14
-1.1433e-13
3.76023e-14
3.17012e-14
-1.04043e-13
2.95377e-14
2.61427e-14
-9.91461e-14
2.21416e-14
1.79387e-14
-1.02604e-13
1.53644e-14
1.8508e-14
-1.19969e-13
9.47225e-15
1.21469e-14
3.47291e-15
8.32579e-15
-7.45476e-15
9.56856e-14
9.27386e-14
8.92491e-14
-2.87647e-13
8.12007e-14
8.68307e-14
-2.13802e-13
6.65714e-14
9.043e-14
-1.80226e-13
5.37116e-14
7.44932e-14
-1.67713e-13
4.25216e-14
5.83704e-14
-1.5581e-13
3.25638e-14
4.25275e-14
-1.45183e-13
2.37914e-14
3.47508e-14
-1.47682e-13
1.62671e-14
3.41167e-14
-1.71534e-13
9.94166e-15
2.64395e-14
3.53626e-15
1.54612e-14
-1.03004e-14
-2.10631e-14
1.17121e-13
1.55447e-13
-4.43734e-13
9.89043e-14
1.59053e-13
-3.01667e-13
7.90589e-14
1.55927e-13
-2.59127e-13
6.21048e-14
1.25808e-13
-2.36323e-13
4.7877e-14
1.04022e-13
-2.1545e-13
3.60911e-14
8.36418e-14
-1.95295e-13
2.60255e-14
6.18411e-14
-1.90115e-13
1.75806e-14
5.31461e-14
-2.25384e-13
9.93078e-15
4.47278e-14
3.99719e-15
2.86115e-14
-1.32947e-14
-1.56654e-13
1.49752e-13
2.70911e-13
-6.48246e-13
1.22563e-13
2.82456e-13
-4.17097e-13
9.47526e-14
2.62147e-13
-3.57572e-13
7.23582e-14
2.05637e-13
-3.17112e-13
5.44762e-14
1.66886e-13
-2.83186e-13
3.97692e-14
1.25419e-13
-2.51437e-13
2.80473e-14
1.12594e-13
-2.34617e-13
1.84564e-14
8.29693e-14
-2.81318e-13
1.09851e-14
6.98061e-14
3.88235e-15
4.53355e-14
-1.64875e-14
-5.67386e-13
1.91153e-13
4.84972e-13
-9.23606e-13
1.53122e-13
4.98532e-13
-5.70207e-13
1.14576e-13
4.26908e-13
-4.79294e-13
8.48965e-14
3.37339e-13
-4.15454e-13
6.20555e-14
2.64246e-13
-3.60164e-13
4.4448e-14
2.09439e-13
-3.14181e-13
3.06422e-14
1.66895e-13
-2.82594e-13
1.96601e-14
1.25213e-13
-3.40101e-13
1.14843e-14
1.04356e-13
4.44282e-15
6.53374e-14
-1.97498e-14
-1.09486e-12
3.21091e-13
8.75688e-13
-1.29523e-12
1.81733e-13
8.72602e-13
-7.71469e-13
1.40732e-13
7.05264e-13
-6.32714e-13
1.0153e-13
5.31311e-13
-5.3199e-13
7.26622e-14
4.04579e-13
-4.50039e-13
5.38297e-14
3.11022e-13
-3.83773e-13
3.68994e-14
2.45172e-13
-3.35238e-13
2.35175e-14
1.80939e-13
-4.0131e-13
1.3033e-14
1.43634e-13
5.17614e-15
9.02114e-14
-2.30801e-14
-2.14889e-12
4.41046e-11
1.32141e-11
-1.7611e-12
5.67227e-13
1.60022e-12
-1.03727e-12
1.5933e-13
1.14952e-12
-8.25912e-13
1.6555e-13
8.31645e-13
-6.72831e-13
1.0813e-13
6.08176e-13
-5.5439e-13
6.67709e-14
4.5219e-13
-4.60184e-13
3.15372e-14
3.30562e-13
-3.93022e-13
1.74829e-14
2.63946e-13
-4.65366e-13
9.06337e-15
1.96839e-13
3.70378e-15
1.19862e-13
-2.65697e-14
-5.16372e-10
1.55931e-08
7.90639e-08
-4.25171e-12
1.2425e-10
2.17857e-10
-1.30866e-12
2.22369e-12
6.71406e-13
-1.0676e-12
1.15795e-12
8.58845e-14
-8.43224e-13
8.2605e-13
6.38456e-14
-6.73875e-13
5.99126e-13
4.96073e-14
-5.46145e-13
4.39138e-13
3.92217e-14
-4.54112e-13
3.28811e-13
3.15433e-14
-5.3196e-13
2.52419e-13
2.57697e-14
1.49561e-13
-3.02883e-14
2.14287e-14
3.43852e-13
8.1601e-14
2.85521e-14
-1.77747e-14
7.75157e-14
2.80508e-14
-2.30899e-14
6.83464e-14
2.22783e-14
-2.00816e-14
5.95616e-14
1.76217e-14
-1.99089e-14
5.10467e-14
8.38338e-15
-1.97929e-14
4.28122e-14
6.13896e-15
-1.90245e-14
3.48878e-14
5.15668e-15
-1.94834e-14
2.723e-14
4.74043e-15
-2.30798e-14
1.98461e-14
9.09215e-15
1.27504e-14
2.48112e-14
-1.63866e-15
2.93116e-13
5.86782e-14
4.93547e-14
-6.57864e-14
5.39461e-14
4.48605e-14
-7.13079e-14
4.5778e-14
4.40698e-14
-6.5824e-14
3.79571e-14
3.43217e-14
-6.41958e-14
3.06974e-14
1.96408e-14
-6.09833e-14
2.39734e-14
1.24568e-14
-5.95887e-14
1.77734e-14
1.06287e-14
-5.88548e-14
1.21347e-14
1.02394e-14
-7.08085e-14
6.99251e-15
9.59256e-15
2.6031e-15
1.99898e-14
-4.4487e-15
2.15439e-13
7.48434e-14
7.20889e-14
-1.65993e-13
6.7596e-14
6.87766e-14
-1.34519e-13
5.68269e-14
6.92016e-14
-1.17112e-13
4.6879e-14
5.54079e-14
-1.11993e-13
3.78182e-14
4.29603e-14
-1.05739e-13
2.96456e-14
2.43324e-14
-9.7957e-14
2.23121e-14
1.94797e-14
-1.03485e-13
1.54116e-14
2.09023e-14
-1.20056e-13
9.76824e-15
2.09018e-14
3.3279e-15
2.18794e-14
-7.58183e-15
9.46577e-14
9.33436e-14
1.15292e-13
-2.89128e-13
8.17411e-14
1.19024e-13
-2.14763e-13
6.70152e-14
1.19014e-13
-1.81264e-13
5.40923e-14
9.56394e-14
-1.68483e-13
4.29071e-14
7.76529e-14
-1.56322e-13
3.29642e-14
5.89365e-14
-1.4509e-13
2.40414e-14
3.78292e-14
-1.47764e-13
1.64814e-14
3.20993e-14
-1.72138e-13
9.65869e-15
3.50936e-14
4.05117e-15
3.05029e-14
-1.01505e-14
-2.2804e-14
1.18073e-13
2.00982e-13
-4.46136e-13
9.97176e-14
2.10339e-13
-3.0386e-13
7.97369e-14
2.01127e-13
-2.60155e-13
6.26256e-14
1.63114e-13
-2.37239e-13
4.82847e-14
1.32025e-13
-2.16802e-13
3.641e-14
1.0765e-13
-1.95679e-13
2.63902e-14
6.88138e-14
-1.931e-13
1.77307e-14
5.52281e-14
-2.25988e-13
1.0445e-14
4.96806e-14
4.21683e-15
4.51752e-14
-1.34346e-14
-1.5942e-13
1.51275e-13
3.58741e-13
-6.52242e-13
1.2378e-13
3.72062e-13
-4.20156e-13
9.57118e-14
3.3789e-13
-3.5945e-13
7.32098e-14
2.71759e-13
-3.18762e-13
5.51821e-14
2.17046e-13
-2.84518e-13
4.03568e-14
1.77779e-13
-2.53103e-13
2.84683e-14
1.14332e-13
-2.35099e-13
1.88428e-14
8.80925e-14
-2.82447e-13
1.13923e-14
7.36286e-14
4.11456e-15
6.43431e-14
-1.6564e-14
-5.75152e-13
1.93672e-13
6.35186e-13
-9.30417e-13
1.55016e-13
6.48096e-13
-5.74169e-13
1.16046e-13
5.59601e-13
-4.82767e-13
8.60167e-14
4.35776e-13
-4.182e-13
6.2934e-14
3.4261e-13
-3.62472e-13
4.51707e-14
2.73435e-13
-3.16661e-13
3.13366e-14
2.07827e-13
-2.83651e-13
2.01451e-14
1.35068e-13
-3.42063e-13
1.17588e-14
1.07054e-13
4.81184e-15
7.63316e-14
-1.97396e-14
-1.10912e-12
3.2408e-13
1.13955e-12
-1.30668e-12
1.84016e-13
1.12447e-12
-7.78436e-13
1.42983e-13
9.12631e-13
-6.38282e-13
1.03193e-13
6.87783e-13
-5.36427e-13
7.39503e-14
5.25268e-13
-4.5346e-13
5.45943e-14
4.09172e-13
-3.87509e-13
3.7663e-14
3.16855e-13
-3.37637e-13
2.42202e-14
1.98769e-13
-4.04176e-13
1.36472e-14
1.51747e-13
5.6569e-15
9.6272e-14
-2.3159e-14
-2.16678e-12
4.373e-11
1.35078e-11
-1.78105e-12
5.50569e-13
2.01831e-12
-1.04891e-12
1.59777e-13
1.48991e-12
-8.34798e-13
1.68855e-13
1.07485e-12
-6.79968e-13
1.10574e-13
7.95544e-13
-5.59988e-13
6.87522e-14
5.98062e-13
-4.65202e-13
3.26736e-14
4.5518e-13
-3.96598e-13
1.81602e-14
2.83569e-13
-4.69724e-13
9.5124e-15
2.08643e-13
4.16668e-15
1.25114e-13
-2.66395e-14
-5.18591e-10
1.64424e-08
8.29204e-08
-4.12419e-12
1.09818e-10
2.16047e-10
-1.32168e-12
2.74097e-12
5.72098e-13
-1.08147e-12
1.64777e-12
8.48747e-14
-8.53759e-13
1.17644e-12
6.40318e-14
-6.82195e-13
8.52944e-13
5.00714e-14
-5.53186e-13
6.29464e-13
3.9822e-14
-4.59432e-13
4.48261e-13
3.22658e-14
-5.38092e-13
2.79235e-13
2.64986e-14
1.61802e-13
-3.02456e-14
2.23164e-14
3.43555e-13
8.18035e-14
2.28643e-14
-1.84281e-14
7.75834e-14
8.43974e-15
-2.31357e-14
6.84764e-14
1.02254e-14
-2.06498e-14
5.967e-14
9.85477e-15
-2.02054e-14
5.11506e-14
1.52722e-14
-2.03542e-14
4.29452e-14
2.60547e-14
-1.9952e-14
3.50528e-14
4.46779e-14
-2.01558e-14
2.74662e-14
1.47666e-13
-2.10695e-14
2.01786e-14
5.86572e-13
1.30119e-14
1.85166e-12
-6.36145e-15
2.92407e-13
5.89089e-14
3.60366e-14
-6.62006e-14
5.40908e-14
1.46943e-14
-7.17829e-14
4.58678e-14
2.16313e-14
-6.68456e-14
3.80648e-14
1.93285e-14
-6.41848e-14
3.08262e-14
1.79342e-14
-6.12837e-14
2.41147e-14
3.18204e-14
-5.97535e-14
1.79159e-14
4.56321e-14
-6.19493e-14
1.23013e-14
1.05425e-13
-7.20722e-14
7.26213e-15
3.5147e-13
2.75378e-15
1.20289e-12
-6.4033e-15
2.14427e-13
7.51692e-14
5.10084e-14
-1.67004e-13
6.78417e-14
2.41855e-14
-1.34818e-13
5.70874e-14
3.56005e-14
-1.18538e-13
4.70816e-14
3.29152e-14
-1.11557e-13
3.80651e-14
3.33294e-14
-1.06345e-13
2.9925e-14
4.21137e-14
-9.92204e-14
2.25984e-14
5.7877e-14
-1.0411e-13
1.5579e-14
9.136e-14
-1.23242e-13
9.2902e-15
2.37082e-13
3.53102e-15
7.86804e-13
-5.75495e-15
9.3768e-14
9.3947e-14
8.566e-14
-2.90334e-13
8.21424e-14
5.08758e-14
-2.15968e-13
6.7352e-14
6.62446e-14
-1.81524e-13
5.44373e-14
6.09306e-14
-1.68783e-13
4.31908e-14
5.9366e-14
-1.56818e-13
3.32034e-14
6.26662e-14
-1.46636e-13
2.43992e-14
7.56975e-14
-1.48912e-13
1.69188e-14
9.64358e-14
-1.75596e-13
9.9336e-15
1.86484e-13
4.38709e-15
5.4861e-13
-7.35826e-15
-2.43878e-14
1.19058e-13
1.49351e-13
-4.47958e-13
1.00395e-13
1.08572e-13
-3.04484e-13
8.0332e-14
1.23188e-13
-2.61364e-13
6.3208e-14
1.09867e-13
-2.37829e-13
4.87942e-14
1.00467e-13
-2.17381e-13
3.69437e-14
1.27411e-13
-1.97003e-13
2.66325e-14
1.04758e-13
-1.96536e-13
1.79499e-14
1.16982e-13
-2.29625e-13
1.09149e-14
1.73695e-13
4.19593e-15
4.10975e-13
-1.21817e-14
-1.62158e-13
1.52749e-13
2.652e-13
-6.55099e-13
1.24779e-13
2.16659e-13
-4.21447e-13
9.66154e-14
2.21557e-13
-3.61695e-13
7.39614e-14
1.90412e-13
-3.1936e-13
5.58727e-14
1.67081e-13
-2.8693e-13
4.09147e-14
1.89846e-13
-2.54374e-13
2.90236e-14
1.50228e-13
-2.36719e-13
1.93085e-14
1.58663e-13
-2.86663e-13
1.16963e-14
1.85674e-13
4.8054e-15
3.34675e-13
-1.58751e-14
-5.82857e-13
1.97767e-13
4.7552e-13
-9.34898e-13
1.56612e-13
4.11783e-13
-5.77528e-13
1.17306e-13
3.84801e-13
-4.8566e-13
8.71089e-14
3.18376e-13
-4.20185e-13
6.38296e-14
2.67464e-13
-3.6521e-13
4.59608e-14
2.7263e-13
-3.18946e-13
3.20588e-14
1.73616e-13
-2.86295e-13
2.07393e-14
2.0876e-13
-3.46711e-13
1.22904e-14
2.17628e-13
5.09757e-15
2.97018e-13
-1.91453e-14
-1.12223e-12
3.1834e-13
8.46938e-13
-1.31431e-12
1.83657e-13
7.53657e-13
-7.83832e-13
1.45345e-13
6.50678e-13
-6.4292e-13
1.04762e-13
5.16936e-13
-5.40021e-13
7.53292e-14
4.16912e-13
-4.56858e-13
5.54102e-14
4.01534e-13
-3.91611e-13
3.8703e-14
3.87403e-13
-3.40716e-13
2.49273e-14
2.2847e-13
-4.09974e-13
1.4345e-14
2.66644e-13
6.25935e-15
2.85515e-13
-2.27349e-14
-2.07492e-12
2.54777e-11
4.12222e-12
-1.81124e-12
3.85698e-13
1.30621e-12
-1.05846e-12
2.63219e-13
1.07532e-12
-8.417e-13
1.72497e-13
8.17699e-13
-6.86182e-13
1.13284e-13
6.31931e-13
-5.64809e-13
7.10902e-14
5.97296e-13
-4.71692e-13
3.4063e-14
5.469e-13
-4.00466e-13
1.90084e-14
2.93528e-13
-4.76723e-13
1.00628e-14
3.27897e-13
4.75864e-15
2.93158e-13
-2.64574e-14
-3.19724e-10
8.13491e-10
6.84911e-08
-2.82889e-12
-3.52177e-11
8.54453e-11
-1.31434e-12
1.48784e-12
2.79336e-14
-1.09436e-12
1.28121e-12
8.29804e-14
-8.63265e-13
1.0312e-12
6.4325e-14
-6.89829e-13