/*--------------------------------*- C++ -*----------------------------------*\
| =========                 |                                                 |
| \\      /  F ield         | OpenFOAM: The Open Source CFD Toolbox           |
|  \\    /   O peration     | Version:  4.1                                   |
|   \\  /    A nd           | Web:      www.OpenFOAM.org                      |
|    \\/     M anipulation  |                                                 |
\*---------------------------------------------------------------------------*/
FoamFile
{
    version     2.0;
    format      ascii;
    class       volVectorField;
    location    "0.58";
    object      U;
}
// * * * * * * * * * * * * * * * * * * * * * * * * * * * * * * * * * * * * * //

dimensions      [0 1 -1 0 0 0 0];

internalField   nonuniform List<vector> 
18000
(
(8.33869e-14 3.88203e-13 -6.10957e-12)
(8.89961e-14 3.87182e-13 -6.04039e-12)
(8.03523e-14 -9.87905e-15 -5.97159e-12)
(7.19202e-14 -1.28554e-14 -5.90411e-12)
(6.37157e-14 -1.26344e-14 -5.83726e-12)
(5.5731e-14 -1.23308e-14 -5.77131e-12)
(4.80128e-14 -1.23152e-14 -5.70604e-12)
(4.05897e-14 -1.23111e-14 -5.64204e-12)
(3.33615e-14 -1.21214e-14 -5.57891e-12)
(2.63915e-14 -9.2294e-15 -5.51767e-12)
(1.20165e-13 4.00378e-13 -7.64755e-12)
(1.34611e-13 3.88766e-13 -7.37827e-12)
(1.18119e-13 -4.4392e-14 -7.11781e-12)
(1.02505e-13 -4.60359e-14 -6.86911e-12)
(8.79983e-14 -4.44854e-14 -6.63106e-12)
(7.4487e-14 -4.27787e-14 -6.40299e-12)
(6.17862e-14 -4.11794e-14 -6.18409e-12)
(5.00753e-14 -3.98062e-14 -5.97457e-12)
(3.90616e-14 -3.83566e-14 -5.77303e-12)
(2.88278e-14 -2.87472e-14 -5.58342e-12)
(1.29918e-13 4.05187e-13 -9.68913e-12)
(1.41122e-13 3.79153e-13 -9.09971e-12)
(1.16912e-13 -9.39585e-14 -8.54772e-12)
(9.52205e-14 -9.15367e-14 -8.0372e-12)
(7.59627e-14 -8.56539e-14 -7.56285e-12)
(5.88478e-14 -8.05121e-14 -7.12224e-12)
(4.35537e-14 -7.57189e-14 -6.71321e-12)
(2.9945e-14 -7.12587e-14 -6.33187e-12)
(1.78218e-14 -6.71901e-14 -5.977e-12)
(7.06236e-15 -4.91354e-14 -5.65044e-12)
(1.75182e-13 3.96969e-13 -1.2436e-11)
(1.7927e-13 3.50941e-13 -1.13356e-11)
(1.43731e-13 -1.64832e-13 -1.03451e-11)
(1.13429e-13 -1.53206e-13 -9.45621e-12)
(8.78012e-14 -1.39483e-13 -8.65955e-12)
(6.60247e-14 -1.27282e-13 -7.94334e-12)
(4.7612e-14 -1.16437e-13 -7.2981e-12)
(3.18575e-14 -1.06736e-13 -6.7157e-12)
(1.85051e-14 -9.78395e-14 -6.18925e-12)
(7.2057e-15 -7.0112e-14 -5.71848e-12)
(2.41547e-13 3.64645e-13 -1.61906e-11)
(2.31563e-13 2.9189e-13 -1.42765e-11)
(1.78941e-13 -2.66563e-13 -1.26227e-11)
(1.36328e-13 -2.3776e-13 -1.1193e-11)
(1.02124e-13 -2.09345e-13 -9.95668e-12)
(7.45353e-14 -1.85202e-13 -8.88273e-12)
(5.2176e-14 -1.64604e-13 -7.94686e-12)
(3.40165e-14 -1.46904e-13 -7.12878e-12)
(1.92505e-14 -1.31218e-13 -6.41104e-12)
(7.28321e-15 -9.19677e-14 -5.78779e-12)
(3.41436e-13 2.90206e-13 -2.1409e-11)
(3.05089e-13 1.80727e-13 -1.81961e-11)
(2.25885e-13 -4.14198e-13 -1.55398e-11)
(1.65436e-13 -3.53775e-13 -1.33337e-11)
(1.19578e-13 -3.00514e-13 -1.14983e-11)
(8.44181e-14 -2.5723e-13 -9.96122e-12)
(5.73135e-14 -2.21717e-13 -8.66759e-12)
(3.63252e-14 -1.92203e-13 -7.57324e-12)
(2.00567e-14 -1.6719e-13 -6.64247e-12)
(7.38217e-15 -1.14731e-13 -5.85809e-12)
(4.95743e-13 1.41421e-13 -2.87883e-11)
(4.10112e-13 -1.86021e-14 -2.34997e-11)
(2.89039e-13 -6.31661e-13 -1.93142e-11)
(2.02405e-13 -5.14875e-13 -1.59934e-11)
(1.40511e-13 -4.20134e-13 -1.33406e-11)
(9.55684e-14 -3.46929e-13 -1.12036e-11)
(6.26693e-14 -2.89365e-13 -9.46948e-12)
(3.84374e-14 -2.43461e-13 -8.05182e-12)
(2.04903e-14 -2.06191e-13 -6.88454e-12)
(7.11711e-15 -1.38441e-13 -5.92949e-12)
(-1.19471e-12 -1.40695e-13 -3.94531e-11)
(-1.3533e-12 -3.70239e-13 -3.07824e-11)
(-1.4353e-12 -9.56064e-13 -2.42576e-11)
(-1.46281e-12 -7.40197e-13 -1.9326e-11)
(-1.45882e-12 -5.77946e-13 -1.55569e-11)
(-1.43631e-12 -4.5906e-13 -1.26433e-11)
(-1.40323e-12 -3.69677e-13 -1.03669e-11)
(-1.36445e-12 -3.01353e-13 -8.57091e-12)
(-1.32315e-12 -2.48208e-13 -7.1397e-12)
(-1.29842e-12 -1.63049e-13 -6.00474e-12)
(-4.54933e-09 -9.60997e-13 -7.69683e-11)
(-4.51552e-09 -9.40763e-13 -6.02326e-11)
(-4.24488e-09 -1.16629e-12 -4.78513e-11)
(-4.00119e-09 -7.99049e-13 -3.86741e-11)
(-3.78226e-09 -5.52244e-13 -3.17663e-11)
(-3.58481e-09 -3.84668e-13 -2.64701e-11)
(-3.40605e-09 -2.68677e-13 -2.23445e-11)
(-3.24359e-09 -1.8732e-13 -1.90837e-11)
(-3.0956e-09 -1.74894e-13 -1.64704e-11)
(-3.01359e-09 -2.25753e-13 -1.44817e-11)
(4.86751e-07 -8.77731e-10 -5.40471e-08)
(3.11068e-08 2.97249e-11 -4.71141e-08)
(2.48109e-08 6.59951e-10 -4.12212e-08)
(2.06845e-08 5.97914e-10 -3.63268e-08)
(1.7206e-08 5.39581e-10 -3.22269e-08)
(1.42451e-08 4.88335e-10 -2.87647e-08)
(1.17037e-08 4.43364e-10 -2.58183e-08)
(9.50489e-09 4.03311e-10 -2.32928e-08)
(7.32985e-09 2.26571e-10 -2.11147e-08)
(-8.27133e-08 -1.47584e-10 -1.95753e-08)
(2.60273e-13 3.66582e-13 -6.42546e-12)
(2.44052e-13 3.44622e-13 -6.35108e-12)
(2.14167e-13 -5.20371e-14 -6.27708e-12)
(1.85392e-13 -5.45056e-14 -6.20394e-12)
(1.57741e-13 -5.39374e-14 -6.13206e-12)
(1.31103e-13 -5.32634e-14 -6.06146e-12)
(1.05469e-13 -5.2729e-14 -5.99088e-12)
(8.08522e-14 -5.21226e-14 -5.92225e-12)
(5.70318e-14 -5.10714e-14 -5.85444e-12)
(3.45478e-14 -2.96445e-14 -5.78828e-12)
(5.21798e-13 3.19635e-13 -8.0855e-12)
(4.81182e-13 2.32182e-13 -7.79408e-12)
(4.12588e-13 -1.96216e-13 -7.51198e-12)
(3.48491e-13 -1.92233e-13 -7.2431e-12)
(2.88712e-13 -1.85552e-13 -6.98634e-12)
(2.32946e-13 -1.79103e-13 -6.74019e-12)
(1.80929e-13 -1.72836e-13 -6.50486e-12)
(1.32349e-13 -1.67099e-13 -6.27922e-12)
(8.69502e-14 -1.60115e-13 -6.06324e-12)
(4.50939e-14 -9.10794e-14 -5.85904e-12)
(6.40311e-13 2.35957e-13 -1.0308e-11)
(5.69563e-13 5.66798e-14 -9.66359e-12)
(4.71624e-13 -3.98543e-13 -9.06305e-12)
(3.83706e-13 -3.77584e-13 -8.50725e-12)
(3.05386e-13 -3.5495e-13 -7.99319e-12)
(2.35489e-13 -3.3378e-13 -7.51657e-12)
(1.7306e-13 -3.14352e-13 -7.07499e-12)
(1.17265e-13 -2.96387e-13 -6.66408e-12)
(6.7554e-14 -2.77755e-13 -6.28213e-12)
(2.35811e-14 -1.55665e-13 -5.93181e-12)
(8.3146e-13 9.48719e-14 -1.33265e-11)
(7.13576e-13 -2.12252e-13 -1.21126e-11)
(5.73499e-13 -6.8177e-13 -1.10258e-11)
(4.53195e-13 -6.25925e-13 -1.0053e-11)
(3.50776e-13 -5.71817e-13 -9.1844e-12)
(2.63256e-13 -5.23647e-13 -8.40608e-12)
(1.88478e-13 -4.8044e-13 -7.70743e-12)
(1.24595e-13 -4.41461e-13 -7.07891e-12)
(6.99736e-14 -4.03633e-13 -6.51094e-12)
(2.39714e-14 -2.22672e-13 -6.00492e-12)
(1.09648e-12 -1.36901e-13 -1.74988e-11)
(9.04961e-13 -6.22123e-13 -1.53655e-11)
(7.0366e-13 -1.07858e-12 -1.35341e-11)
(5.38886e-13 -9.58374e-13 -1.19574e-11)
(4.04758e-13 -8.49721e-13 -1.06012e-11)
(2.95248e-13 -7.56169e-13 -9.42888e-12)
(2.0575e-13 -6.74965e-13 -8.41139e-12)
(1.32559e-13 -6.04402e-13 -7.5253e-12)
(7.25994e-14 -5.39183e-13 -6.75039e-12)
(2.42926e-14 -2.92683e-13 -6.08022e-12)
(1.47001e-12 -5.11673e-13 -2.33781e-11)
(1.16375e-12 -1.24462e-12 -1.97478e-11)
(8.71993e-13 -1.63735e-12 -1.67762e-11)
(6.45339e-13 -1.40486e-12 -1.43217e-11)
(4.6935e-13 -1.20605e-12 -1.2295e-11)
(3.32123e-13 -1.04123e-12 -1.06082e-11)
(2.24928e-13 -9.03267e-13 -9.19662e-12)
(1.41034e-13 -7.87338e-13 -8.00821e-12)
(7.53849e-14 -6.84756e-13 -7.00183e-12)
(2.46063e-14 -3.65385e-13 -6.15715e-12)
(2.00936e-12 -1.11254e-12 -3.18283e-11)
(1.51813e-12 -2.19177e-12 -2.57566e-11)
(1.09193e-12 -2.4308e-12 -2.10154e-11)
(7.78436e-13 -2.00671e-12 -1.72828e-11)
(5.46893e-13 -1.66437e-12 -1.43321e-11)
(3.74789e-13 -1.39131e-12 -1.19736e-11)
(2.46306e-13 -1.17119e-12 -1.00731e-11)
(1.50228e-13 -9.92561e-13 -8.52976e-12)
(7.82272e-14 -8.41247e-13 -7.2642e-12)
(2.49837e-14 -4.41405e-13 -6.23582e-12)
(2.81807e-12 -2.09097e-12 -4.42846e-11)
(1.94971e-12 -3.64949e-12 -3.41383e-11)
(1.32721e-12 -3.56453e-12 -2.66358e-11)
(8.94665e-13 -2.82241e-12 -2.10305e-11)
(5.92099e-13 -2.2548e-12 -1.68014e-11)
(3.782e-13 -1.82153e-12 -1.35648e-11)
(2.25939e-13 -1.48587e-12 -1.10592e-11)
(1.1717e-13 -1.22322e-12 -9.09664e-12)
(3.91652e-14 -1.00941e-12 -7.54235e-12)
(-1.60504e-14 -5.20286e-13 -6.31839e-12)
(-1.11012e-10 -4.29606e-12 -8.57066e-11)
(-2.92418e-10 -6.44156e-12 -6.60267e-11)
(-2.39743e-10 -5.4831e-12 -5.17944e-11)
(-1.97886e-10 -4.18848e-12 -4.14334e-11)
(-1.65152e-10 -3.24782e-12 -3.37599e-11)
(-1.39202e-10 -2.55933e-12 -2.79535e-11)
(-1.18386e-10 -2.04513e-12 -2.34795e-11)
(-1.01509e-10 -1.65569e-12 -1.99755e-11)
(-8.77014e-11 -1.34975e-12 -1.71874e-11)
(-7.69254e-11 -7.53057e-13 -1.50753e-11)
(3.26349e-07 -1.67688e-09 -5.81115e-08)
(-7.04957e-09 -1.34078e-09 -5.03172e-08)
(-7.40945e-09 -6.23009e-10 -4.36394e-08)
(-6.85033e-09 -5.62917e-10 -3.81832e-08)
(-6.33162e-09 -5.12345e-10 -3.36745e-08)
(-5.86333e-09 -4.67005e-10 -2.99094e-08)
(-5.44485e-09 -4.26571e-10 -2.67351e-08)
(-5.07316e-09 -3.90594e-10 -2.40354e-08)
(-4.76096e-09 -3.60238e-10 -2.17227e-08)
(-6.2279e-09 -3.63581e-10 -2.00821e-08)
(2.30717e-13 3.70939e-13 -3.25252e-13)
(2.17652e-13 3.47187e-13 -3.1948e-13)
(1.90825e-13 -4.97377e-14 -3.13411e-13)
(1.65234e-13 -5.22267e-14 -3.07289e-13)
(1.40734e-13 -5.13485e-14 -3.0166e-13)
(1.17131e-13 -5.0875e-14 -2.96156e-13)
(9.47422e-14 -5.04086e-14 -2.90576e-13)
(7.31703e-14 -4.96341e-14 -2.85629e-13)
(5.25215e-14 -4.87862e-14 -2.80593e-13)
(3.30957e-14 -2.56446e-14 -2.75816e-13)
(5.02585e-13 3.35459e-13 -4.52177e-13)
(4.63876e-13 2.40305e-13 -4.28732e-13)
(3.97411e-13 -1.88383e-13 -4.05824e-13)
(3.35332e-13 -1.84268e-13 -3.84052e-13)
(2.77681e-13 -1.77717e-13 -3.6439e-13)
(2.2398e-13 -1.71279e-13 -3.45919e-13)
(1.74121e-13 -1.65098e-13 -3.27881e-13)
(1.27566e-13 -1.59393e-13 -3.11111e-13)
(8.41436e-14 -1.52593e-13 -2.9642e-13)
(4.43893e-14 -7.94247e-14 -2.81508e-13)
(6.21493e-13 2.67405e-13 -6.41719e-13)
(5.52218e-13 7.05274e-14 -5.8392e-13)
(4.56293e-13 -3.849e-13 -5.32476e-13)
(3.70342e-13 -3.64127e-13 -4.85378e-13)
(2.94105e-13 -3.41212e-13 -4.43499e-13)
(2.26399e-13 -3.2025e-13 -4.05374e-13)
(1.66121e-13 -3.01056e-13 -3.71361e-13)
(1.12577e-13 -2.83467e-13 -3.40746e-13)
(6.47293e-14 -2.64867e-13 -3.1246e-13)
(2.28519e-14 -1.3572e-13 -2.88159e-13)
(8.15463e-13 1.48513e-13 -9.27412e-13)
(6.97887e-13 -1.93978e-13 -8.08995e-13)
(5.58884e-13 -6.62917e-13 -7.07161e-13)
(4.40148e-13 -6.06988e-13 -6.18599e-13)
(3.3958e-13 -5.52592e-13 -5.43163e-13)
(2.54168e-13 -5.04381e-13 -4.78261e-13)
(1.81542e-13 -4.61209e-13 -4.22366e-13)
(1.198e-13 -4.23077e-13 -3.7413e-13)
(6.72492e-14 -3.85857e-13 -3.31547e-13)
(2.32486e-14 -1.94949e-13 -2.94895e-13)
(1.08868e-12 -5.25978e-14 -1.37122e-12)
(8.93539e-13 -6.03305e-13 -1.13976e-12)
(6.91419e-13 -1.05726e-12 -9.5225e-13)
(5.26813e-13 -9.35595e-13 -7.97393e-13)
(3.93997e-13 -8.25469e-13 -6.70938e-13)
(2.86337e-13 -7.31498e-13 -5.67465e-13)
(1.98929e-13 -6.50547e-13 -4.8223e-13)
(1.27818e-13 -5.80646e-13 -4.11702e-13)
(7.00588e-14 -5.15835e-13 -3.52309e-13)
(2.37736e-14 -2.56443e-13 -3.03461e-13)
(1.48027e-12 -3.87328e-13 -2.07789e-12)
(1.16185e-12 -1.23624e-12 -1.63587e-12)
(8.64627e-13 -1.61941e-12 -1.30056e-12)
(6.3538e-13 -1.38175e-12 -1.03734e-12)
(4.59529e-13 -1.17853e-12 -8.35266e-13)
(3.2356e-13 -1.01182e-12 -6.77236e-13)
(2.18253e-13 -8.73403e-13 -5.53491e-13)
(1.36569e-13 -7.5808e-13 -4.5523e-13)
(7.28891e-14 -6.56208e-13 -3.74985e-13)
(2.42463e-14 -3.21499e-13 -3.12724e-13)
(2.05661e-12 -9.35859e-13 -3.23117e-12)
(1.53535e-12 -2.21691e-12 -2.39559e-12)
(1.09394e-12 -2.42977e-12 -1.80178e-12)
(7.72932e-13 -1.99025e-12 -1.36401e-12)
(5.39036e-13 -1.63672e-12 -1.04725e-12)
(3.67049e-13 -1.35885e-12 -8.12549e-13)
(2.40055e-13 -1.13658e-12 -6.37168e-13)
(1.45875e-13 -9.58364e-13 -5.04197e-13)
(7.58108e-14 -8.07587e-13 -4.00656e-13)
(2.46968e-14 -3.8919e-13 -3.23343e-13)
(3.01148e-12 -1.85078e-12 -5.17724e-12)
(2.06861e-12 -3.75669e-12 -3.58669e-12)
(1.40387e-12 -3.6056e-12 -2.53768e-12)
(9.49507e-13 -2.82535e-12 -1.81555e-12)
(6.36392e-13 -2.23377e-12 -1.32453e-12)
(4.18027e-13 -1.78873e-12 -9.80725e-13)
(2.64408e-13 -1.44794e-12 -7.36499e-13)
(1.55754e-13 -1.18462e-12 -5.59667e-13)
(7.86192e-14 -9.7087e-13 -4.29613e-13)
(2.4656e-14 -4.60362e-13 -3.34336e-13)
(2.21982e-10 -3.6381e-12 -9.37525e-12)
(-5.85671e-12 -6.44154e-12 -6.16169e-12)
(-5.18982e-12 -5.36059e-12 -4.18018e-12)
(-3.83067e-12 -4.00087e-12 -2.91861e-12)
(-2.8989e-12 -3.03136e-12 -2.10516e-12)
(-2.24029e-12 -2.33737e-12 -1.564e-12)
(-1.76472e-12 -1.82896e-12 -1.19513e-12)
(-1.41298e-12 -1.45129e-12 -9.37851e-13)
(-1.14834e-12 -1.15781e-12 -7.53359e-13)
(-9.35872e-13 -5.44759e-13 -6.23314e-13)
(2.84154e-07 -7.9604e-10 -4.31293e-09)
(4.07395e-10 -7.21617e-10 -3.3123e-09)
(-3.33078e-10 -9.37129e-11 -2.489e-09)
(-2.6976e-10 -6.97611e-11 -1.9033e-09)
(-2.18626e-10 -5.47312e-11 -1.47958e-09)
(-1.79334e-10 -4.34867e-11 -1.16706e-09)
(-1.48591e-10 -3.49596e-11 -9.32659e-10)
(-1.24328e-10 -2.84076e-11 -7.54183e-10)
(-1.05515e-10 -2.32835e-11 -6.16496e-10)
(-1.12203e-10 -1.95219e-11 -5.131e-10)
(2.26858e-13 3.71341e-13 -1.41766e-14)
(2.14235e-13 3.47242e-13 -1.33239e-14)
(1.87865e-13 -4.96504e-14 -1.11975e-14)
(1.6263e-13 -5.20429e-14 -1.0193e-14)
(1.38571e-13 -5.13277e-14 -8.71611e-15)
(1.15526e-13 -5.07282e-14 -7.68721e-15)
(9.34074e-14 -5.00663e-14 -6.73981e-15)
(7.22412e-14 -4.93347e-14 -5.67195e-15)
(5.20552e-14 -4.83057e-14 -5.26951e-15)
(3.29894e-14 -2.52024e-14 -5.34671e-15)
(4.9807e-13 3.37549e-13 -2.13397e-14)
(4.60026e-13 2.41834e-13 -1.9132e-14)
(3.94178e-13 -1.87095e-13 -1.70499e-14)
(3.32714e-13 -1.82979e-13 -1.45017e-14)
(2.7557e-13 -1.76079e-13 -1.22098e-14)
(2.22366e-13 -1.70009e-13 -1.08738e-14)
(1.72948e-13 -1.64034e-13 -9.22142e-15)
(1.26851e-13 -1.579e-13 -8.07048e-15)
(8.38088e-14 -1.51051e-13 -7.17761e-15)
(4.4417e-14 -7.78425e-14 -6.55291e-15)
(6.15476e-13 2.72482e-13 -3.44167e-14)
(5.47436e-13 7.41318e-14 -3.04463e-14)
(4.52385e-13 -3.81454e-13 -2.58692e-14)
(3.67278e-13 -3.60868e-13 -2.17406e-14)
(2.9176e-13 -3.38482e-13 -1.87186e-14)
(2.24636e-13 -3.17639e-13 -1.57856e-14)
(1.65029e-13 -2.9837e-13 -1.32126e-14)
(1.11955e-13 -2.80993e-13 -1.14654e-14)
(6.45676e-14 -2.62471e-13 -9.88699e-15)
(2.30281e-14 -1.33024e-13 -9.39923e-15)
(8.07534e-13 1.58996e-13 -5.67714e-14)
(6.91737e-13 -1.86715e-13 -4.95432e-14)
(5.54199e-13 -6.56942e-13 -4.13045e-14)
(4.36587e-13 -6.01538e-13 -3.39596e-14)
(3.36976e-13 -5.47551e-13 -2.82167e-14)
(2.52424e-13 -4.99863e-13 -2.38906e-14)
(1.80512e-13 -4.5721e-13 -1.99102e-14)
(1.1938e-13 -4.19211e-13 -1.6725e-14)
(6.73486e-14 -3.82314e-13 -1.46528e-14)
(2.3674e-14 -1.91622e-13 -1.29024e-14)
(1.07818e-12 -3.373e-14 -9.80439e-14)
(8.85807e-13 -5.91043e-13 -8.16415e-14)
(6.85759e-13 -1.0469e-12 -6.58349e-14)
(5.22813e-13 -9.26879e-13 -5.28121e-14)
(3.91306e-13 -8.18078e-13 -4.31494e-14)
(2.84623e-13 -7.24881e-13 -3.49493e-14)
(1.98066e-13 -6.44516e-13 -2.89044e-14)
(1.27665e-13 -5.75384e-13 -2.50843e-14)
(7.01459e-14 -5.11419e-13 -2.18663e-14)
(2.43441e-14 -2.52245e-13 -1.85752e-14)
(1.46595e-12 -3.53207e-13 -1.71155e-13)
(1.15199e-12 -1.21617e-12 -1.35714e-13)
(8.57783e-13 -1.6036e-12 -1.0596e-13)
(6.30874e-13 -1.36874e-12 -8.27445e-14)
(4.56724e-13 -1.16778e-12 -6.54592e-14)
(3.22026e-13 -1.0028e-12 -5.25963e-14)
(2.17658e-13 -8.65628e-13 -4.27935e-14)
(1.36518e-13 -7.52033e-13 -3.54327e-14)
(7.32679e-14 -6.51037e-13 -2.89726e-14)
(2.49318e-14 -3.16176e-13 -2.50474e-14)
(2.03715e-12 -8.75492e-13 -3.01909e-13)
(1.52239e-12 -2.18526e-12 -2.28025e-13)
(1.08565e-12 -2.40567e-12 -1.6912e-13)
(7.67778e-13 -1.97159e-12 -1.28141e-13)
(5.36094e-13 -1.62213e-12 -9.79701e-14)
(3.65683e-13 -1.34703e-12 -7.65494e-14)
(2.39593e-13 -1.12717e-12 -6.07085e-14)
(1.46039e-13 -9.51003e-13 -4.89934e-14)
(7.66335e-14 -8.0166e-13 -4.01193e-14)
(2.55344e-14 -3.83544e-13 -3.30593e-14)
(2.98452e-12 -1.74438e-12 -5.44492e-13)
(2.04929e-12 -3.70811e-12 -3.81927e-13)
(1.39213e-12 -3.57018e-12 -2.70818e-13)
(9.42818e-13 -2.79961e-12 -1.95048e-13)
(6.33045e-13 -2.21414e-12 -1.4434e-13)
(4.16777e-13 -1.77414e-12 -1.09192e-13)
(2.64412e-13 -1.43693e-12 -8.38433e-14)
(1.56591e-13 -1.17591e-12 -6.59222e-14)
(7.99774e-14 -9.64543e-13 -5.30837e-14)
(2.63408e-14 -4.54315e-13 -4.28117e-14)
(2.4229e-10 -3.42674e-12 -1.02455e-12)
(3.87305e-12 -6.34856e-12 -6.2249e-13)
(1.65869e-12 -5.28629e-12 -4.16478e-13)
(1.07203e-12 -3.94622e-12 -2.89774e-13)
(6.89769e-13 -2.99009e-12 -2.07524e-13)
(4.34732e-13 -2.30553e-12 -1.53171e-13)
(2.63333e-13 -1.80375e-12 -1.15722e-13)
(1.47322e-13 -1.43078e-12 -8.97362e-14)
(6.84032e-14 -1.14061e-12 -7.09391e-14)
(1.59051e-14 -5.2862e-13 -5.76348e-14)
(2.80367e-07 -6.79623e-10 -3.62944e-10)
(8.25584e-10 -6.36015e-10 -1.13499e-10)
(-6.91851e-12 -1.49779e-11 -7.28071e-11)
(-6.08357e-12 -8.05274e-12 -4.82072e-11)
(-4.34597e-12 -5.73137e-12 -3.28216e-11)
(-3.18053e-12 -4.1787e-12 -2.28729e-11)
(-2.37207e-12 -3.10635e-12 -1.62813e-11)
(-1.80098e-12 -2.35128e-12 -1.18057e-11)
(-1.39904e-12 -1.79903e-12 -8.70505e-12)
(-1.29475e-12 -9.61955e-13 -6.45676e-12)
(2.27168e-13 3.71228e-13 -1.10699e-14)
(2.14451e-13 3.46648e-13 -9.97831e-15)
(1.88136e-13 -5.03419e-14 -7.54082e-15)
(1.62823e-13 -5.25877e-14 -5.58698e-15)
(1.38707e-13 -5.17279e-14 -4.22446e-15)
(1.1555e-13 -5.10574e-14 -3.00949e-15)
(9.35419e-14 -5.06171e-14 -2.33604e-15)
(7.24238e-14 -4.96362e-14 -1.38484e-15)
(5.21544e-14 -4.83408e-14 -4.83722e-16)
(3.30649e-14 -2.54064e-14 -3.0783e-16)
(4.98933e-13 3.37232e-13 -1.6126e-14)
(4.60782e-13 2.41227e-13 -1.43379e-14)
(3.9486e-13 -1.8771e-13 -1.10477e-14)
(3.33176e-13 -1.83812e-13 -9.26382e-15)
(2.76035e-13 -1.76902e-13 -6.30657e-15)
(2.2275e-13 -1.70334e-13 -4.72478e-15)
(1.73298e-13 -1.64196e-13 -3.94792e-15)
(1.27227e-13 -1.58306e-13 -3.41544e-15)
(8.41496e-14 -1.51386e-13 -2.43696e-15)
(4.47882e-14 -7.78842e-14 -1.33605e-15)
(6.17038e-13 2.72084e-13 -2.63137e-14)
(5.48866e-13 7.31789e-14 -2.33821e-14)
(4.53581e-13 -3.82815e-13 -1.89818e-14)
(3.6825e-13 -3.61938e-13 -1.48116e-14)
(2.92648e-13 -3.39016e-13 -1.21118e-14)
(2.25472e-13 -3.1828e-13 -9.68777e-15)
(1.65683e-13 -2.98987e-13 -7.84003e-15)
(1.12547e-13 -2.81339e-13 -6.49712e-15)
(6.51333e-14 -2.62544e-13 -5.86232e-15)
(2.35995e-14 -1.33208e-13 -5.16245e-15)
(8.10297e-13 1.58237e-13 -4.51207e-14)
(6.9422e-13 -1.88269e-13 -3.94061e-14)
(5.56223e-13 -6.58697e-13 -3.25877e-14)
(4.38309e-13 -6.03168e-13 -2.65176e-14)
(3.38449e-13 -5.48778e-13 -2.16155e-14)
(2.53622e-13 -5.00869e-13 -1.79153e-14)
(1.8157e-13 -4.58094e-13 -1.52134e-14)
(1.20384e-13 -4.19939e-13 -1.2886e-14)
(6.82896e-14 -3.82787e-13 -1.12424e-14)
(2.44251e-14 -1.91486e-13 -1.04457e-14)
(1.08292e-12 -3.50528e-14 -7.89394e-14)
(8.89806e-13 -5.94079e-13 -6.83619e-14)
(6.89045e-13 -1.05039e-12 -5.54671e-14)
(5.25504e-13 -9.29543e-13 -4.48453e-14)
(3.93543e-13 -8.20154e-13 -3.7381e-14)
(2.86521e-13 -7.26831e-13 -3.09882e-14)
(1.9967e-13 -6.45847e-13 -2.5587e-14)
(1.29013e-13 -5.762e-13 -2.20502e-14)
(7.14098e-14 -5.12286e-13 -1.92261e-14)
(2.53982e-14 -2.52825e-13 -1.67465e-14)
(1.47388e-12 -3.56488e-13 -1.39346e-13)
(1.15853e-12 -1.22208e-12 -1.16304e-13)
(8.62908e-13 -1.60914e-12 -9.28492e-14)
(6.35044e-13 -1.37351e-12 -7.44239e-14)
(4.60009e-13 -1.17148e-12 -6.03233e-14)
(3.24772e-13 -1.00584e-12 -5.01221e-14)
(2.19883e-13 -8.68228e-13 -4.07943e-14)
(1.38361e-13 -7.53922e-13 -3.43689e-14)
(7.4781e-14 -6.52587e-13 -2.97742e-14)
(2.62228e-14 -3.17059e-13 -2.54704e-14)
(2.05046e-12 -8.81724e-13 -2.47098e-13)
(1.53296e-12 -2.19687e-12 -1.98897e-13)
(1.09355e-12 -2.41625e-12 -1.53833e-13)
(7.7385e-13 -1.97984e-12 -1.19612e-13)
(5.40837e-13 -1.62866e-12 -9.52708e-14)
(3.69346e-13 -1.35234e-12 -7.63965e-14)
(2.42544e-13 -1.13136e-12 -6.18112e-14)
(1.48445e-13 -9.54184e-13 -5.10583e-14)
(7.85204e-14 -8.04428e-13 -4.29011e-14)
(2.7167e-14 -3.85105e-13 -3.60878e-14)
(3.00936e-12 -1.75723e-12 -4.41203e-13)
(2.06588e-12 -3.73084e-12 -3.37473e-13)
(1.40415e-12 -3.5891e-12 -2.49979e-13)
(9.51776e-13 -2.81406e-12 -1.88871e-13)
(6.39714e-13 -2.22541e-12 -1.45334e-13)
(4.21815e-13 -1.78284e-12 -1.13479e-13)
(2.683e-13 -1.44372e-12 -9.00856e-14)
(1.5958e-13 -1.18135e-12 -7.2376e-14)
(8.22519e-14 -9.68698e-13 -5.90316e-14)
(2.81518e-14 -4.56778e-13 -4.96214e-14)
(2.51641e-10 -3.46346e-12 -8.728e-13)
(4.21955e-12 -6.40002e-12 -5.71526e-13)
(1.82067e-12 -5.32052e-12 -4.03725e-13)
(1.17384e-12 -3.97134e-12 -2.93233e-13)
(7.55398e-13 -3.00895e-12 -2.17341e-13)
(4.78514e-13 -2.3197e-12 -1.64449e-13)
(2.93209e-13 -1.81449e-12 -1.25998e-13)
(1.68173e-13 -1.43912e-12 -9.91483e-14)
(8.31013e-14 -1.14716e-12 -7.85791e-14)
(2.62151e-14 -5.32153e-13 -6.35819e-14)
(2.98407e-07 -7.07586e-10 -2.97038e-10)
(9.15905e-10 -6.53877e-10 -5.69525e-12)
(3.28751e-12 -1.16221e-11 -2.16526e-12)
(1.0157e-12 -5.65282e-12 -1.31447e-12)
(6.79106e-13 -4.07411e-12 -8.30306e-13)
(4.58823e-13 -3.00998e-12 -5.47061e-13)
(3.09124e-13 -2.2672e-12 -3.72667e-13)
(2.06435e-13 -1.73891e-12 -2.61322e-13)
(1.35166e-13 -1.34553e-12 -1.87062e-13)
(8.47529e-14 -6.15706e-13 -1.36755e-13)
(2.27702e-13 3.70898e-13 -1.37942e-14)
(2.14922e-13 3.45855e-13 -1.17122e-14)
(1.88418e-13 -5.13741e-14 -9.57367e-15)
(1.63155e-13 -5.33414e-14 -6.74034e-15)
(1.3886e-13 -5.23346e-14 -5.12749e-15)
(1.15741e-13 -5.14606e-14 -3.0354e-15)
(9.36136e-14 -5.06967e-14 -2.0665e-15)
(7.25239e-14 -5.00576e-14 -1.3922e-15)
(5.23369e-14 -4.87206e-14 -6.64965e-16)
(3.31418e-14 -2.52561e-14 -7.35372e-16)
(5.00264e-13 3.36805e-13 -2.01903e-14)
(4.61962e-13 2.39903e-13 -1.79201e-14)
(3.95777e-13 -1.88989e-13 -1.32195e-14)
(3.34012e-13 -1.84765e-13 -1.05771e-14)
(2.76686e-13 -1.77795e-13 -8.20643e-15)
(2.23304e-13 -1.70882e-13 -5.86999e-15)
(1.73728e-13 -1.64501e-13 -4.27368e-15)
(1.27591e-13 -1.58451e-13 -3.32343e-15)
(8.4612e-14 -1.51843e-13 -3.00579e-15)
(4.51566e-14 -7.82546e-14 -2.45902e-15)
(6.19417e-13 2.71236e-13 -3.24494e-14)
(5.50893e-13 7.14449e-14 -2.86703e-14)
(4.55365e-13 -3.84576e-13 -2.29828e-14)
(3.69689e-13 -3.63396e-13 -1.87236e-14)
(2.9391e-13 -3.40362e-13 -1.45368e-14)
(2.26509e-13 -3.19208e-13 -1.142e-14)
(1.66654e-13 -2.99553e-13 -9.31362e-15)
(1.13351e-13 -2.81731e-13 -8.29551e-15)
(6.58891e-14 -2.62977e-13 -7.22501e-15)
(2.44179e-14 -1.33575e-13 -6.37664e-15)
(8.14372e-13 1.56504e-13 -5.61714e-14)
(6.9767e-13 -1.91157e-13 -4.83479e-14)
(5.59099e-13 -6.61526e-13 -3.96193e-14)
(4.40701e-13 -6.05505e-13 -3.23324e-14)
(3.40487e-13 -5.50704e-13 -2.62013e-14)
(2.5543e-13 -5.02232e-13 -2.13532e-14)
(1.83076e-13 -4.59126e-13 -1.83208e-14)
(1.21675e-13 -4.20773e-13 -1.59952e-14)
(6.93557e-14 -3.83315e-13 -1.43107e-14)
(2.54422e-14 -1.919e-13 -1.25405e-14)
(1.08975e-12 -3.84037e-14 -9.80144e-14)
(8.95551e-13 -5.99128e-13 -8.35558e-14)
(6.93614e-13 -1.0551e-12 -6.80511e-14)
(5.29236e-13 -9.33386e-13 -5.56415e-14)
(3.96631e-13 -8.23235e-13 -4.60259e-14)
(2.89164e-13 -7.2941e-13 -3.85452e-14)
(2.01749e-13 -6.48036e-13 -3.18629e-14)
(1.30817e-13 -5.7797e-13 -2.71475e-14)
(7.29148e-14 -5.13604e-13 -2.31113e-14)
(2.66354e-14 -2.53494e-13 -2.07246e-14)
(1.48536e-12 -3.6298e-13 -1.7202e-13)
(1.16778e-12 -1.2316e-12 -1.43707e-13)
(8.70131e-13 -1.61781e-12 -1.1416e-13)
(6.40603e-13 -1.38021e-12 -9.13831e-14)
(4.6451e-13 -1.17673e-12 -7.44418e-14)
(3.28329e-13 -1.01031e-12 -6.16645e-14)
(2.22817e-13 -8.71866e-13 -5.06125e-14)
(1.40749e-13 -7.56609e-13 -4.24377e-14)
(7.68043e-14 -6.54908e-13 -3.63646e-14)
(2.788e-14 -3.18365e-13 -3.15505e-14)
(2.06977e-12 -8.95172e-13 -3.04533e-13)
(1.54774e-12 -2.2146e-12 -2.43807e-13)
(1.10464e-12 -2.43164e-12 -1.89215e-13)
(7.82231e-13 -1.99178e-12 -1.47914e-13)
(5.47296e-13 -1.63791e-12 -1.18079e-13)
(3.74336e-13 -1.35981e-12 -9.47779e-14)
(2.46545e-13 -1.13733e-12 -7.71824e-14)
(1.51547e-13 -9.58904e-13 -6.27891e-14)
(8.09889e-14 -8.08219e-13 -5.2846e-14)
(2.92111e-14 -3.87277e-13 -4.46748e-14)
(3.04643e-12 -1.78413e-12 -5.42119e-13)
(2.08973e-12 -3.76492e-12 -4.14988e-13)
(1.42102e-12 -3.61677e-12 -3.0892e-13)
(9.6405e-13 -2.83471e-12 -2.33862e-13)
(6.48734e-13 -2.24106e-12 -1.80373e-13)
(4.28602e-13 -1.79506e-12 -1.41492e-13)
(2.73377e-13 -1.45341e-12 -1.12552e-13)
(1.63517e-13 -1.18892e-12 -8.94826e-14)
(8.52686e-14 -9.74569e-13 -7.28458e-14)
(3.05245e-14 -4.60018e-13 -6.07816e-14)
(2.66669e-10 -3.52462e-12 -9.93548e-13)
(4.36188e-12 -6.47656e-12 -7.04831e-13)
(1.85042e-12 -5.37024e-12 -5.01504e-13)
(1.1935e-12 -4.00686e-12 -3.6415e-13)
(7.68979e-13 -3.03504e-12 -2.70868e-13)
(4.88119e-13 -2.33949e-12 -2.04953e-13)
(3.00181e-13 -1.82948e-12 -1.57557e-13)
(1.73285e-13 -1.45051e-12 -1.22951e-13)
(8.68673e-14 -1.15616e-12 -9.7775e-14)
(2.90377e-14 -5.37241e-13 -7.90935e-14)
(3.2565e-07 -7.51545e-10 -2.85687e-10)
(9.95975e-10 -6.92632e-10 -1.9873e-12)
(3.84667e-12 -1.18626e-11 -8.41209e-13)
(1.17365e-12 -5.65619e-12 -5.76979e-13)
(7.78488e-13 -4.08171e-12 -4.07919e-13)
(5.22277e-13 -3.0189e-12 -2.96433e-13)
(3.51145e-13 -2.27599e-12 -2.20379e-13)
(2.34888e-13 -1.74695e-12 -1.66117e-13)
(1.54928e-13 -1.35245e-12 -1.27731e-13)
(1.00109e-13 -6.1884e-13 -1.00618e-13)
(2.2837e-13 3.70375e-13 -1.61711e-14)
(2.15568e-13 3.44967e-13 -1.41778e-14)
(1.88812e-13 -5.23113e-14 -1.08431e-14)
(1.63494e-13 -5.43524e-14 -8.43566e-15)
(1.39225e-13 -5.32005e-14 -6.17278e-15)
(1.16007e-13 -5.22734e-14 -4.19157e-15)
(9.38813e-14 -5.12711e-14 -2.48989e-15)
(7.27277e-14 -5.01995e-14 -2.20371e-15)
(5.25457e-14 -4.86312e-14 -5.00377e-15)
(3.33657e-14 -2.53551e-14 -1.406e-14)
(5.01863e-13 3.36188e-13 -2.41298e-14)
(4.634e-13 2.38507e-13 -2.05381e-14)
(3.96939e-13 -1.90566e-13 -1.64268e-14)
(3.35004e-13 -1.8578e-13 -1.27857e-14)
(2.77496e-13 -1.78773e-13 -1.02234e-14)
(2.24039e-13 -1.71899e-13 -7.46343e-15)
(1.74406e-13 -1.65224e-13 -5.88617e-15)
(1.28279e-13 -1.58827e-13 -4.6165e-15)
(8.51622e-14 -1.51773e-13 -4.87268e-15)
(4.56785e-14 -7.84377e-14 -1.18787e-14)
(6.22312e-13 2.70222e-13 -3.88039e-14)
(5.5332e-13 6.95142e-14 -3.32269e-14)
(4.57449e-13 -3.8662e-13 -2.66338e-14)
(3.71473e-13 -3.65225e-13 -2.17313e-14)
(2.95318e-13 -3.41874e-13 -1.72657e-14)
(2.27792e-13 -3.2038e-13 -1.42731e-14)
(1.67796e-13 -3.00287e-13 -1.1665e-14)
(1.14472e-13 -2.82259e-13 -1.04956e-14)
(6.68684e-14 -2.63438e-13 -1.05248e-14)
(2.51607e-14 -1.33992e-13 -1.34297e-14)
(8.19369e-13 1.54367e-13 -6.61218e-14)
(7.01877e-13 -1.94561e-13 -5.63625e-14)
(5.62582e-13 -6.64762e-13 -4.60891e-14)
(4.43581e-13 -6.08337e-13 -3.76393e-14)
(3.4301e-13 -5.53113e-13 -3.12676e-14)
(2.57603e-13 -5.04098e-13 -2.64094e-14)
(1.84925e-13 -4.604e-13 -2.26394e-14)
(1.23222e-13 -4.21733e-13 -1.96492e-14)
(7.07114e-14 -3.84405e-13 -1.8102e-14)
(2.66313e-14 -1.92625e-13 -1.84988e-14)
(1.09811e-12 -4.2466e-14 -1.15978e-13)
(9.02488e-13 -6.05202e-13 -9.7297e-14)
(6.99168e-13 -1.06077e-12 -7.87565e-14)
(5.33709e-13 -9.37984e-13 -6.46057e-14)
(4.00376e-13 -8.26923e-13 -5.3816e-14)
(2.92345e-13 -7.32637e-13 -4.5718e-14)
(2.04429e-13 -6.50698e-13 -3.89652e-14)
(1.32967e-13 -5.80083e-13 -3.35491e-14)
(7.47482e-14 -5.15271e-13 -2.92022e-14)
(2.83144e-14 -2.54644e-13 -2.82305e-14)
(1.49944e-12 -3.71113e-13 -2.04891e-13)
(1.17888e-12 -1.24285e-12 -1.67079e-13)
(8.78749e-13 -1.62806e-12 -1.33172e-13)
(6.47476e-13 -1.38847e-12 -1.07637e-13)
(4.6997e-13 -1.18317e-12 -8.78774e-14)
(3.32761e-13 -1.01561e-12 -7.38e-14)
(2.26463e-13 -8.76389e-13 -6.12569e-14)
(1.43642e-13 -7.60271e-13 -5.17315e-14)
(7.92614e-14 -6.57694e-13 -4.49222e-14)
(2.98882e-14 -3.20184e-13 -4.03581e-14)
(2.09346e-12 -9.11682e-13 -3.6183e-13)
(1.56557e-12 -2.23613e-12 -2.83694e-13)
(1.11797e-12 -2.44975e-12 -2.20649e-13)
(7.92432e-13 -2.00595e-12 -1.74096e-13)
(5.55126e-13 -1.64911e-12 -1.39068e-13)
(3.80475e-13 -1.36886e-12 -1.13377e-13)
(2.51413e-13 -1.14484e-12 -9.25041e-14)
(1.55348e-13 -9.64881e-13 -7.61612e-14)
(8.39933e-14 -8.12865e-13 -6.44466e-14)
(3.16329e-14 -3.90203e-13 -5.60484e-14)
(3.08377e-12 -1.81724e-12 -6.43652e-13)
(2.11832e-12 -3.80574e-12 -4.82258e-13)
(1.44162e-12 -3.64962e-12 -3.61199e-13)
(9.78988e-13 -2.85956e-12 -2.74935e-13)
(6.59774e-13 -2.25998e-12 -2.12872e-13)
(4.36873e-13 -1.80972e-12 -1.68546e-13)
(2.79677e-13 -1.46541e-12 -1.3522e-13)
(1.68328e-13 -1.19856e-12 -1.07688e-13)
(8.8958e-14 -9.81924e-13 -8.85409e-14)
(3.34006e-14 -4.64353e-13 -7.43949e-14)
(2.75063e-10 -3.52667e-12 -6.82403e-13)
(4.37409e-12 -6.54615e-12 -8.14899e-13)
(1.88117e-12 -5.42906e-12 -5.89129e-13)
(1.21522e-12 -4.04977e-12 -4.29442e-13)
(7.84371e-13 -3.06683e-12 -3.21426e-13)
(4.99196e-13 -2.36349e-12 -2.44959e-13)
(3.08229e-13 -1.84821e-12 -1.90554e-13)
(1.79193e-13 -1.46477e-12 -1.47025e-13)
(9.12529e-14 -1.1672e-12 -1.18286e-13)
(3.22834e-14 -5.43712e-13 -9.67516e-14)
(3.48784e-07 -6.54602e-10 6.69271e-10)
(1.0178e-09 -7.13369e-10 6.62939e-12)
(3.58483e-12 -1.1872e-11 -9.09625e-13)
(1.19552e-12 -5.72558e-12 -6.61476e-13)
(7.94046e-13 -4.13242e-12 -4.74511e-13)
(5.33255e-13 -3.05597e-12 -3.48244e-13)
(3.59083e-13 -2.30403e-12 -2.6134e-13)
(2.4081e-13 -1.7681e-12 -1.97241e-13)
(1.59214e-13 -1.36838e-12 -1.52475e-13)
(1.03398e-13 -6.27804e-13 -1.21551e-13)
(2.29017e-13 3.70092e-13 -1.59937e-14)
(2.15693e-13 3.43802e-13 -8.32793e-15)
(1.89122e-13 -5.35991e-14 -6.59961e-15)
(1.63791e-13 -5.51724e-14 -6.47991e-15)
(1.39603e-13 -5.40398e-14 -9.22824e-15)
(1.16556e-13 -5.3008e-14 -1.49709e-14)
(9.46189e-14 -5.16651e-14 -2.51241e-14)
(7.41334e-14 -4.97005e-14 -8.25084e-14)
(5.53213e-14 -4.65873e-14 -3.27165e-13)
(3.59657e-14 -3.46767e-14 -1.03046e-12)
(5.03458e-13 3.35376e-13 -2.20806e-14)
(4.64164e-13 2.37238e-13 -9.57382e-15)
(3.97799e-13 -1.91792e-13 -9.31417e-15)
(3.3582e-13 -1.87058e-13 -8.71618e-15)
(2.7837e-13 -1.79881e-13 -1.08813e-14)
(2.25063e-13 -1.72795e-13 -1.64749e-14)
(1.7552e-13 -1.66085e-13 -2.47136e-14)
(1.29675e-13 -1.60153e-13 -5.84367e-14)
(8.72126e-14 -1.53545e-13 -1.95467e-13)
(4.70975e-14 -9.4605e-14 -6.68878e-13)
(6.2507e-13 2.68987e-13 -3.61985e-14)
(5.55067e-13 6.75906e-14 -1.7728e-14)
(4.59008e-13 -3.88365e-13 -1.52003e-14)
(3.72953e-13 -3.66633e-13 -1.47624e-14)
(2.96893e-13 -3.4314e-13 -1.57591e-14)
(2.29481e-13 -3.21675e-13 -2.13715e-14)
(1.69539e-13 -3.01802e-13 -3.05538e-14)
(1.16206e-13 -2.83789e-13 -4.96673e-14)
(6.9027e-14 -2.66761e-13 -1.32362e-13)
(2.67463e-14 -1.51613e-13 -4.373e-13)
(8.24207e-13 1.52556e-13 -6.24402e-14)
(7.05001e-13 -1.97013e-13 -3.39771e-14)
(5.65365e-13 -6.67288e-13 -2.90432e-14)
(4.46194e-13 -6.10348e-13 -2.73147e-14)