/*--------------------------------*- C++ -*----------------------------------*\
| =========                 |                                                 |
| \\      /  F ield         | OpenFOAM: The Open Source CFD Toolbox           |
|  \\    /   O peration     | Version:  4.1                                   |
|   \\  /    A nd           | Web:      www.OpenFOAM.org                      |
|    \\/     M anipulation  |                                                 |
\*---------------------------------------------------------------------------*/
FoamFile
{
    version     2.0;
    format      ascii;
    class       volScalarField;
    location    "4.08";
    object      Ma;
}
// * * * * * * * * * * * * * * * * * * * * * * * * * * * * * * * * * * * * * //

dimensions      [0 0 0 0 0 0 0];

internalField   nonuniform List<scalar> 
52500
(
3.00002
2.99997
2.99991
2.99969
2.99937
2.99806
2.99619
2.98905
2.97706
2.93839
2.84982
2.64602
2.10333
1.26756
0.527873
0.276825
0.328559
0.344079
0.311756
0.257203
0.204751
0.162911
0.121929
0.0765265
0.0434416
3.00002
2.99997
2.99992
2.99969
2.99937
2.99809
2.99624
2.98919
2.97738
2.9392
2.85197
2.65063
2.1148
1.28217
0.535646
0.277334
0.330351
0.346635
0.314537
0.260776
0.209621
0.169248
0.130444
0.0901556
0.0661706
3.00002
2.99997
2.99992
2.9997
2.99939
2.99814
2.99635
2.98947
2.97804
2.9408
2.85647
2.66011
2.14038
1.31527
0.554221
0.280994
0.336279
0.354348
0.323089
0.271424
0.22321
0.186282
0.152341
0.120341
0.104341
3.00002
2.99998
2.99992
2.99971
2.99942
2.99822
2.9965
2.98989
2.97902
2.94326
2.86324
2.6745
2.17963
1.36733
0.582688
0.287575
0.34608
0.367036
0.337241
0.288583
0.244152
0.211493
0.183038
0.158022
0.146462
3.00002
2.99998
2.99993
2.99973
2.99944
2.99829
2.99667
2.99022
2.98023
2.94567
2.87361
2.69373
2.23561
1.44175
0.62319
0.301201
0.361768
0.385789
0.357405
0.312223
0.271508
0.243048
0.21947
0.199866
0.191384
3.00002
2.99998
2.99993
2.99974
2.99948
2.9984
2.99688
2.99081
2.98166
2.94889
2.88565
2.71676
2.30248
1.53668
0.675196
0.325384
0.385427
0.411331
0.384232
0.342255
0.305366
0.280822
0.262005
0.247366
0.241789
3.00002
2.99998
2.99994
2.99977
2.99953
2.99854
2.99715
2.9916
2.98326
2.9532
2.8973
2.74126
2.37448
1.64831
0.738088
0.36455
0.420505
0.44477
0.418707
0.379984
0.346206
0.325544
0.311209
0.302049
0.301778
3.00002
2.99999
2.99995
2.99979
2.99957
2.99868
2.99741
2.99237
2.98481
2.95735
2.90702
2.76388
2.42963
1.73866
0.792882
0.399282
0.448895
0.47061
0.451094
0.420161
0.391994
0.37648
0.368648
0.367439
0.377163
3.00002
2.99999
2.99996
2.99982
2.99962
2.99882
2.9977
2.99317
2.98644
2.96191
2.91633
2.78974
2.47704
1.84867
0.874306
0.457503
0.472617
0.48555
0.479848
0.459358
0.440277
0.432262
0.433225
0.446251
0.480825
3.00002
3
2.99997
2.99985
2.99969
2.99904
2.99807
2.99456
2.98828
2.96911
2.92418
2.81815
2.52006
1.96275
0.986693
0.530119
0.489574
0.502426
0.507336
0.497125
0.489575
0.491558
0.508627
0.551383
0.65277
3
2.99995
2.9999
2.99967
2.99935
2.99804
2.99617
2.98903
2.97704
2.93836
2.84979
2.64595
2.10326
1.26743
0.527739
0.27662
0.328373
0.343895
0.31155
0.256951
0.204429
0.1625
0.121371
0.0756201
0.0417991
3
2.99995
2.9999
2.99967
2.99935
2.99807
2.99622
2.98917
2.97736
2.93917
2.85194
2.65056
2.11472
1.28204
0.535512
0.27713
0.330166
0.346453
0.314335
0.26053
0.20931
0.168857
0.129929
0.0893976
0.0651202
3
2.99996
2.9999
2.99968
2.99937
2.99812
2.99632
2.98944
2.97802
2.94077
2.85644
2.66004
2.14031
1.31514
0.554091
0.280792
0.336098
0.35417
0.322892
0.271189
0.22292
0.18593
0.151905
0.119782
0.103689
3
2.99996
2.99991
2.99969
2.9994
2.9982
2.99648
2.98987
2.979
2.94322
2.8632
2.67443
2.17956
1.3672
0.582561
0.287373
0.345901
0.366863
0.337052
0.288361
0.243888
0.211186
0.18268
0.157603
0.146006
3
2.99996
2.99991
2.99971
2.99942
2.99827
2.99664
2.9902
2.9802
2.94563
2.87359
2.69367
2.23557
1.44164
0.62309
0.301025
0.361609
0.385633
0.357233
0.312024
0.271275
0.242785
0.219176
0.199541
0.191042
3
2.99996
2.99992
2.99973
2.99946
2.99838
2.99686
2.99079
2.98163
2.94886
2.88562
2.71671
2.30243
1.53656
0.675096
0.325214
0.385276
0.411188
0.384076
0.342078
0.305164
0.2806
0.261764
0.247109
0.241524
3
2.99997
2.99992
2.99975
2.99951
2.99852
2.99713
2.99158
2.98324
2.95317
2.89727
2.74121
2.37441
1.64818
0.737988
0.364389
0.420364
0.444638
0.418567
0.379829
0.346032
0.325357
0.311012
0.301844
0.301571
3
2.99997
2.99993
2.99977
2.99955
2.99866
2.99739
2.99234
2.98479
2.95733
2.90699
2.76383
2.42959
1.73856
0.792802
0.399141
0.448772
0.470493
0.45097
0.420026
0.391846
0.376324
0.368487
0.367276
0.377003
3
2.99997
2.99994
2.9998
2.9996
2.9988
2.99768
2.99315
2.98642
2.96188
2.9163
2.78969
2.47701
1.84857
0.874224
0.457371
0.472506
0.485442
0.479736
0.459239
0.44015
0.432131
0.433094
0.446123
0.480707
3
2.99998
2.99995
2.99983
2.99967
2.99902
2.99805
2.99454
2.98826
2.96908
2.92415
2.8181
2.52003
1.96266
0.986613
0.529998
0.489468
0.502323
0.507233
0.497018
0.489466
0.491449
0.508521
0.551287
0.652691
3
2.99995
2.9999
2.99967
2.99935
2.99804
2.99617
2.98903
2.97704
2.93836
2.84979
2.64595
2.10326
1.26743
0.527738
0.276621
0.328374
0.343895
0.31155
0.256951
0.204429
0.1625
0.121371
0.0756202
0.0417992
3
2.99995
2.9999
2.99967
2.99935
2.99807
2.99622
2.98917
2.97736
2.93917
2.85194
2.65056
2.11472
1.28203
0.53551
0.277131
0.330166
0.346453
0.314335
0.26053
0.20931
0.168857
0.129929
0.0893977
0.0651203
3
2.99996
2.9999
2.99968
2.99937
2.99812
2.99632
2.98944
2.97802
2.94077
2.85644
2.66004
2.14031
1.31513
0.55409
0.280793
0.336098
0.35417
0.322892
0.271189
0.22292
0.18593
0.151905
0.119782
0.103689
3
2.99996
2.99991
2.99969
2.9994
2.9982
2.99648
2.98987
2.979
2.94322
2.8632
2.67443
2.17955
1.36719
0.582559
0.287374
0.345901
0.366863
0.337052
0.288361
0.243888
0.211186
0.18268
0.157603
0.146006
3
2.99996
2.99991
2.99971
2.99942
2.99827
2.99664
2.9902
2.9802
2.94563
2.87359
2.69367
2.23557
1.44163
0.623088
0.301026
0.361609
0.385633
0.357233
0.312024
0.271275
0.242785
0.219176
0.199541
0.191042
3
2.99996
2.99992
2.99973
2.99946
2.99838
2.99686
2.99079
2.98163
2.94886
2.88562
2.71671
2.30242
1.53655
0.675093
0.325214
0.385276
0.411187
0.384076
0.342077
0.305164
0.2806
0.261764
0.247109
0.241524
3
2.99997
2.99992
2.99975
2.99951
2.99852
2.99713
2.99158
2.98324
2.95317
2.89727
2.74121
2.37441
1.64818
0.737985
0.364389
0.420363
0.444638
0.418567
0.379828
0.346032
0.325357
0.311012
0.301844
0.301571
3
2.99997
2.99993
2.99977
2.99955
2.99866
2.99739
2.99234
2.98479
2.95733
2.90699
2.76383
2.42958
1.73856
0.792801
0.399142
0.448772
0.470493
0.450969
0.420026
0.391846
0.376323
0.368487
0.367276
0.377004
3
2.99997
2.99994
2.9998
2.9996
2.9988
2.99768
2.99315
2.98642
2.96188
2.9163
2.78969
2.47701
1.84856
0.874221
0.45737
0.472507
0.485442
0.479736
0.459238
0.44015
0.432131
0.433094
0.446123
0.480708
3
2.99998
2.99995
2.99983
2.99967
2.99902
2.99805
2.99454
2.98826
2.96908
2.92415
2.8181
2.52002
1.96266
0.98661
0.529996
0.489469
0.502323
0.507233
0.497018
0.489466
0.491449
0.508521
0.551287
0.652691
3
2.99995
2.9999
2.99967
2.99935
2.99804
2.99617
2.98903
2.97704
2.93836
2.84979
2.64595
2.10326
1.26743
0.527737
0.276621
0.328374
0.343895
0.31155
0.256951
0.204429
0.1625
0.121371
0.0756202
0.0417992
3
2.99995
2.9999
2.99967
2.99935
2.99807
2.99622
2.98917
2.97736
2.93917
2.85194
2.65056
2.11472
1.28203
0.53551
0.277131
0.330166
0.346453
0.314335
0.26053
0.20931
0.168857
0.129929
0.0893977
0.0651203
3
2.99996
2.9999
2.99968
2.99937
2.99812
2.99632
2.98944
2.97802
2.94077
2.85644
2.66004
2.14031
1.31513
0.554089
0.280793
0.336098
0.35417
0.322892
0.271189
0.22292
0.18593
0.151905
0.119782
0.103689
3
2.99996
2.99991
2.99969
2.9994
2.9982
2.99648
2.98987
2.979
2.94322
2.8632
2.67443
2.17955
1.36719
0.582559
0.287374
0.345901
0.366863
0.337052
0.288361
0.243888
0.211186
0.18268
0.157603
0.146006
3
2.99996
2.99991
2.99971
2.99942
2.99827
2.99664
2.9902
2.9802
2.94563
2.87359
2.69367
2.23557
1.44163
0.623088
0.301026
0.361609
0.385633
0.357233
0.312024
0.271275
0.242785
0.219176
0.199541
0.191042
3
2.99996
2.99992
2.99973
2.99946
2.99838
2.99686
2.99079
2.98163
2.94886
2.88562
2.71671
2.30242
1.53655
0.675093
0.325214
0.385276
0.411187
0.384076
0.342077
0.305163
0.2806
0.261764
0.247109
0.241524
3
2.99997
2.99992
2.99975
2.99951
2.99852
2.99713
2.99158
2.98324
2.95317
2.89727
2.74121
2.37441
1.64818
0.737985
0.364389
0.420363
0.444638
0.418567
0.379828
0.346032
0.325357
0.311012
0.301844
0.301571
3
2.99997
2.99993
2.99977
2.99955
2.99866
2.99739
2.99234
2.98479
2.95733
2.90699
2.76383
2.42958
1.73856
0.792801
0.399142
0.448772
0.470493
0.450969
0.420026
0.391846
0.376323
0.368487
0.367276
0.377004
3
2.99997
2.99994
2.9998
2.9996
2.9988
2.99768
2.99315
2.98642
2.96188
2.9163
2.78969
2.47701
1.84856
0.874221
0.45737
0.472507
0.485442
0.479736
0.459238
0.44015
0.432131
0.433094
0.446123
0.480708
3
2.99998
2.99995
2.99983
2.99967
2.99902
2.99805
2.99454
2.98826
2.96908
2.92415
2.8181
2.52002
1.96266
0.986609
0.529996
0.489469
0.502323
0.507233
0.497018
0.489466
0.491449
0.508521
0.551287
0.652691
3
2.99995
2.9999
2.99967
2.99935
2.99804
2.99617
2.98903
2.97704
2.93836
2.84979
2.64595
2.10326
1.26743
0.527737
0.276621
0.328374
0.343895
0.31155
0.256951
0.204429
0.1625
0.121371
0.0756202
0.0417992
3
2.99995
2.9999
2.99967
2.99935
2.99807
2.99622
2.98917
2.97736
2.93917
2.85194
2.65056
2.11472
1.28203
0.53551
0.277131
0.330166
0.346453
0.314335
0.26053
0.20931
0.168857
0.129929
0.0893977
0.0651203
3
2.99996
2.9999
2.99968
2.99937
2.99812
2.99632
2.98944
2.97802
2.94077
2.85644
2.66004
2.14031
1.31513
0.554089
0.280793
0.336098
0.35417
0.322892
0.271189
0.22292
0.18593
0.151905
0.119782
0.103689
3
2.99996
2.99991
2.99969
2.9994
2.9982
2.99648
2.98987
2.979
2.94322
2.8632
2.67443
2.17955
1.36719
0.582559
0.287374
0.345901
0.366863
0.337052
0.288361
0.243888
0.211186
0.18268
0.157603
0.146006
3
2.99996
2.99991
2.99971
2.99942
2.99827
2.99664
2.9902
2.9802
2.94563
2.87359
2.69367
2.23557
1.44163
0.623088
0.301026
0.361609
0.385633
0.357233
0.312024
0.271275
0.242785
0.219176
0.199541
0.191042
3
2.99996
2.99992
2.99973
2.99946
2.99838
2.99686
2.99079
2.98163
2.94886
2.88562
2.71671
2.30242
1.53655
0.675093
0.325214
0.385276
0.411187
0.384076
0.342077
0.305163
0.2806
0.261764
0.247109
0.241524
3
2.99997
2.99992
2.99975
2.99951
2.99852
2.99713
2.99158
2.98324
2.95317
2.89727
2.74121
2.37441
1.64818
0.737985
0.364389
0.420363
0.444638
0.418567
0.379828
0.346032
0.325357
0.311012
0.301844
0.301571
3
2.99997
2.99993
2.99977
2.99955
2.99866
2.99739
2.99234
2.98479
2.95733
2.90699
2.76383
2.42958
1.73856
0.792801
0.399142
0.448772
0.470493
0.450969
0.420026
0.391846
0.376323
0.368487
0.367276
0.377004
3
2.99997
2.99994
2.9998
2.9996
2.9988
2.99768
2.99315
2.98642
2.96188
2.9163
2.78969
2.47701
1.84856
0.874221
0.45737
0.472507
0.485442
0.479736
0.459238
0.44015
0.432131
0.433094
0.446123
0.480708
3
2.99998
2.99995
2.99983
2.99967
2.99902
2.99805
2.99454
2.98826
2.96908
2.92415
2.8181
2.52002
1.96266
0.986609
0.529996
0.489469
0.502324
0.507233
0.497018
0.489466
0.491449
0.508521
0.551287
0.652691
3
2.99995
2.9999
2.99967
2.99935
2.99804
2.99617
2.98903
2.97704
2.93836
2.84979
2.64595
2.10326
1.26743
0.527737
0.276621
0.328374
0.343895
0.31155
0.256951
0.204429
0.1625
0.121371
0.0756202
0.0417992
3
2.99995
2.9999
2.99967
2.99935
2.99807
2.99622
2.98917
2.97736
2.93917
2.85194
2.65056
2.11472
1.28203
0.53551
0.277131
0.330166
0.346453
0.314335
0.26053
0.20931
0.168857
0.129929
0.0893977
0.0651203
3
2.99996
2.9999
2.99968
2.99937
2.99812
2.99632
2.98944
2.97802
2.94077
2.85644
2.66004
2.14031
1.31513
0.554089
0.280793
0.336098
0.35417
0.322892
0.271189
0.22292
0.18593
0.151905
0.119782
0.103689
3
2.99996
2.99991
2.99969
2.9994
2.9982
2.99648
2.98987
2.979
2.94322
2.8632
2.67443
2.17955
1.36719
0.582559
0.287374
0.345901
0.366863
0.337052
0.288361
0.243888
0.211186
0.18268
0.157603
0.146006
3
2.99996
2.99991
2.99971
2.99942
2.99827
2.99664
2.9902
2.9802
2.94563
2.87359
2.69367
2.23557
1.44163
0.623088
0.301026
0.361609
0.385633
0.357233
0.312024
0.271275
0.242785
0.219176
0.199541
0.191042
3
2.99996
2.99992
2.99973
2.99946
2.99838
2.99686
2.99079
2.98163
2.94886
2.88562
2.71671
2.30242
1.53655
0.675093
0.325214
0.385276
0.411187
0.384076
0.342077
0.305163
0.2806
0.261764
0.247109
0.241524
3
2.99997
2.99992
2.99975
2.99951
2.99852
2.99713
2.99158
2.98324
2.95317
2.89727
2.74121
2.37441
1.64818
0.737985
0.364389
0.420363
0.444638
0.418567
0.379828
0.346032
0.325357
0.311012
0.301844
0.301571
3
2.99997
2.99993
2.99977
2.99955
2.99866
2.99739
2.99234
2.98479
2.95733
2.90699
2.76383
2.42958
1.73856
0.792801
0.399142
0.448772
0.470493
0.450969
0.420026
0.391846
0.376323
0.368487
0.367276
0.377004
3
2.99997
2.99994
2.9998
2.9996
2.9988
2.99768
2.99315
2.98642
2.96188
2.9163
2.78969
2.47701
1.84856
0.874221
0.45737
0.472507
0.485442
0.479736
0.459238
0.44015
0.432131
0.433094
0.446123
0.480708
3
2.99998
2.99995
2.99983
2.99967
2.99902
2.99805
2.99454
2.98826
2.96908
2.92415
2.8181
2.52002
1.96266
0.986609
0.529996
0.489469
0.502324
0.507233
0.497018
0.489466
0.491449
0.508521
0.551287
0.652691
3
2.99995
2.9999
2.99967
2.99935
2.99804
2.99617
2.98903
2.97704
2.93836
2.84979
2.64595
2.10326
1.26743
0.527737
0.276621
0.328374
0.343895
0.31155
0.256951
0.204429
0.1625
0.121371
0.0756202
0.0417992
3
2.99995
2.9999
2.99967
2.99935
2.99807
2.99622
2.98917
2.97736
2.93917
2.85194
2.65056
2.11472
1.28203
0.53551
0.277131
0.330166
0.346453
0.314335
0.26053
0.20931
0.168857
0.129929
0.0893977
0.0651203
3
2.99996
2.9999
2.99968
2.99937
2.99812
2.99632
2.98944
2.97802
2.94077
2.85644
2.66004
2.14031
1.31513
0.554089
0.280793
0.336098
0.35417
0.322892
0.271189
0.22292
0.18593
0.151905
0.119782
0.103689
3
2.99996
2.99991
2.99969
2.9994
2.9982
2.99648
2.98987
2.979
2.94322
2.8632
2.67443
2.17955
1.36719
0.582559
0.287374
0.345901
0.366863
0.337052
0.288361
0.243888
0.211186
0.18268
0.157603
0.146006
3
2.99996
2.99991
2.99971
2.99942
2.99827
2.99664
2.9902
2.9802
2.94563
2.87359
2.69367
2.23557
1.44163
0.623088
0.301026
0.361609
0.385633
0.357233
0.312024
0.271275
0.242785
0.219176
0.199541
0.191042
3
2.99996
2.99992
2.99973
2.99946
2.99838
2.99686
2.99079
2.98163
2.94886
2.88562
2.71671
2.30242
1.53655
0.675093
0.325214
0.385276
0.411187
0.384076
0.342077
0.305163
0.2806
0.261764
0.247109
0.241524
3
2.99997
2.99992
2.99975
2.99951
2.99852
2.99713
2.99158
2.98324
2.95317
2.89727
2.74121
2.37441
1.64818
0.737985
0.364389
0.420363
0.444638
0.418567
0.379828
0.346032
0.325357
0.311012
0.301844
0.301571
3
2.99997
2.99993
2.99977
2.99955
2.99866
2.99739
2.99234
2.98479
2.95733
2.90699
2.76383
2.42958
1.73856
0.792801
0.399142
0.448772
0.470493
0.450969
0.420026
0.391846
0.376323
0.368487
0.367276
0.377004
3
2.99997
2.99994
2.9998
2.9996
2.9988
2.99768
2.99315
2.98642
2.96188
2.9163
2.78969
2.47701
1.84856
0.874221
0.45737
0.472507
0.485442
0.479736
0.459238
0.44015
0.432131
0.433094
0.446123
0.480708
3
2.99998
2.99995
2.99983
2.99967
2.99902
2.99805
2.99454
2.98826
2.96908
2.92415
2.8181
2.52002
1.96266
0.986609
0.529996
0.489469
0.502323
0.507233
0.497018
0.489466
0.491449
0.508521
0.551287
0.652691
3
2.99995
2.9999
2.99967
2.99935
2.99804
2.99617
2.98903
2.97704
2.93836
2.84979
2.64595
2.10326
1.26743
0.527738
0.276621
0.328374
0.343895
0.31155
0.256951
0.204429
0.1625
0.121371
0.0756202
0.0417992
3
2.99995
2.9999
2.99967
2.99935
2.99807
2.99622
2.98917
2.97736
2.93917
2.85194
2.65056
2.11472
1.28203
0.53551
0.277131
0.330166
0.346453
0.314335
0.26053
0.20931
0.168857
0.129929
0.0893977
0.0651203
3
2.99996
2.9999
2.99968
2.99937
2.99812
2.99632
2.98944
2.97802
2.94077
2.85644
2.66004
2.14031
1.31513
0.55409
0.280793
0.336098
0.35417
0.322892
0.271189
0.22292
0.18593
0.151905
0.119782
0.103689
3
2.99996
2.99991
2.99969
2.9994
2.9982
2.99648
2.98987
2.979
2.94322
2.8632
2.67443
2.17955
1.36719
0.582559
0.287374
0.345901
0.366863
0.337052
0.288361
0.243888
0.211186
0.18268
0.157603
0.146006
3
2.99996
2.99991
2.99971
2.99942
2.99827
2.99664
2.9902
2.9802
2.94563
2.87359
2.69367
2.23557
1.44163
0.623088
0.301026
0.361609
0.385633
0.357233
0.312024
0.271275
0.242785
0.219176
0.199541
0.191042
3
2.99996
2.99992
2.99973
2.99946
2.99838
2.99686
2.99079
2.98163
2.94886
2.88562
2.71671
2.30242
1.53655
0.675093
0.325214
0.385276
0.411187
0.384076
0.342077
0.305164
0.2806
0.261764
0.247109
0.241524
3
2.99997
2.99992
2.99975
2.99951
2.99852
2.99713
2.99158
2.98324
2.95317
2.89727
2.74121
2.37441
1.64818
0.737985
0.364389
0.420363
0.444638
0.418567
0.379828
0.346032
0.325357
0.311012
0.301844
0.301571
3
2.99997
2.99993
2.99977
2.99955
2.99866
2.99739
2.99234
2.98479
2.95733
2.90699
2.76383
2.42958
1.73856
0.792801
0.399142
0.448772
0.470493
0.450969
0.420026
0.391846
0.376323
0.368487
0.367276
0.377004
3
2.99997
2.99994
2.9998
2.9996
2.9988
2.99768
2.99315
2.98642
2.96188
2.9163
2.78969
2.47701
1.84856
0.874221
0.45737
0.472507
0.485442
0.479736
0.459238
0.44015
0.432131
0.433094
0.446123
0.480708
3
2.99998
2.99995
2.99983
2.99967
2.99902
2.99805
2.99454
2.98826
2.96908
2.92415
2.8181
2.52002
1.96266
0.98661
0.529996
0.489469
0.502323
0.507233
0.497018
0.489466
0.491449
0.508521
0.551287
0.652691
3
2.99995
2.9999
2.99967
2.99935
2.99804
2.99617
2.98903
2.97704
2.93836
2.84979
2.64595
2.10326
1.26743
0.527739
0.27662
0.328373
0.343895
0.31155
0.256951
0.204429
0.1625
0.121371
0.0756201
0.0417991
3
2.99995
2.9999
2.99967
2.99935
2.99807
2.99622
2.98917
2.97736
2.93917
2.85194
2.65056
2.11472
1.28204
0.535512
0.27713
0.330166
0.346453
0.314335
0.26053
0.20931
0.168857
0.129929
0.0893976
0.0651202
3
2.99996
2.9999
2.99968
2.99937
2.99812
2.99632
2.98944
2.97802
2.94077
2.85644
2.66004
2.14031
1.31514
0.554091
0.280792
0.336098
0.35417
0.322892
0.271189
0.22292
0.18593
0.151905
0.119782
0.103689
3
2.99996
2.99991
2.99969
2.9994
2.9982
2.99648
2.98987
2.979
2.94322
2.8632
2.67443
2.17956
1.3672
0.582561
0.287373
0.345901
0.366863
0.337052
0.288361
0.243888
0.211186
0.18268
0.157603
0.146006
3
2.99996
2.99991
2.99971
2.99942
2.99827
2.99664
2.9902
2.9802
2.94563
2.87359
2.69367
2.23557
1.44164
0.62309
0.301025
0.361609
0.385633
0.357233
0.312024
0.271275
0.242785
0.219176
0.199541
0.191042
3
2.99996
2.99992
2.99973
2.99946
2.99838
2.99686
2.99079
2.98163
2.94886
2.88562
2.71671
2.30243
1.53656
0.675096
0.325214
0.385276
0.411188
0.384076
0.342078
0.305164
0.2806
0.261764
0.247109
0.241524
3
2.99997
2.99992
2.99975
2.99951
2.99852
2.99713
2.99158
2.98324
2.95317
2.89727
2.74121
2.37441
1.64818
0.737988
0.364389
0.420364
0.444638
0.418567
0.379829
0.346032
0.325357
0.311012
0.301844
0.301571
3
2.99997
2.99993
2.99977
2.99955
2.99866
2.99739
2.99234
2.98479
2.95733
2.90699
2.76383
2.42959
1.73856
0.792802
0.399141
0.448772
0.470493
0.45097
0.420026
0.391846
0.376324
0.368487
0.367276
0.377003
3
2.99997
2.99994
2.9998
2.9996
2.9988
2.99768
2.99315
2.98642
2.96188
2.9163
2.78969
2.47701
1.84857
0.874224
0.457371
0.472506
0.485442
0.479736
0.459239
0.44015
0.432131
0.433094
0.446123
0.480707
3
2.99998
2.99995
2.99983
2.99967
2.99902
2.99805
2.99454
2.98826
2.96908
2.92415
2.8181
2.52003
1.96266
0.986613
0.529998
0.489468
0.502323
0.507233
0.497018
0.489466
0.491449
0.508521
0.551287
0.652691
3.00002
2.99997
2.99991
2.99969
2.99937
2.99806
2.99619
2.98905
2.97706
2.93839
2.84982
2.64602
2.10333
1.26756
0.527873
0.276825
0.328559
0.344079
0.311756
0.257203
0.204751
0.162911
0.121929
0.0765265
0.0434416
3.00002
2.99997
2.99992
2.99969
2.99937
2.99809
2.99624
2.98919
2.97738
2.9392
2.85197
2.65063
2.1148
1.28217
0.535646
0.277334
0.330351
0.346635
0.314537
0.260776
0.209621
0.169248
0.130444
0.0901556
0.0661706
3.00002
2.99997
2.99992
2.9997
2.99939
2.99814
2.99635
2.98947
2.97804
2.9408
2.85647
2.66011
2.14038
1.31527
0.554221
0.280994
0.336279
0.354348
0.323089
0.271424
0.22321
0.186282
0.152341
0.120341
0.104341
3.00002
2.99998
2.99992
2.99971
2.99942
2.99822
2.9965
2.98989
2.97902
2.94326
2.86324
2.6745
2.17963
1.36733
0.582688
0.287575
0.34608
0.367036
0.337241
0.288583
0.244152
0.211493
0.183038
0.158022
0.146462
3.00002
2.99998
2.99993
2.99973
2.99944
2.99829
2.99667
2.99022
2.98023
2.94567
2.87361
2.69373
2.23561
1.44175
0.62319
0.301201
0.361768
0.385789
0.357405
0.312223
0.271508
0.243048
0.21947
0.199866
0.191384
3.00002
2.99998
2.99993
2.99974
2.99948
2.9984
2.99688
2.99081
2.98166
2.94889
2.88565
2.71676
2.30248
1.53668
0.675196
0.325384
0.385427
0.411331
0.384232
0.342255
0.305366
0.280822
0.262005
0.247366
0.241789
3.00002
2.99998
2.99994
2.99977
2.99953
2.99854
2.99715
2.9916
2.98326
2.9532
2.8973
2.74126
2.37448
1.64831
0.738088
0.364551
0.420505
0.44477
0.418707
0.379984
0.346206
0.325544
0.311209
0.302049
0.301778
3.00002
2.99999
2.99995
2.99979
2.99957
2.99868
2.99741
2.99237
2.98481
2.95735
2.90702
2.76388
2.42963
1.73866
0.792882
0.399282
0.448895
0.47061
0.451094
0.420161
0.391994
0.37648
0.368648
0.367439
0.377163
3.00002
2.99999
2.99996
2.99982
2.99962
2.99882
2.9977
2.99317
2.98644
2.96191
2.91633
2.78974
2.47704
1.84867
0.874306
0.457503
0.472617
0.48555
0.479848
0.459358
0.440277
0.432262
0.433225
0.446251
0.480825
3.00002
3
2.99997
2.99985
2.99969
2.99904
2.99807
2.99456
2.98828
2.96911
2.92418
2.81815
2.52006
1.96275
0.986693
0.530119
0.489574
0.502426
0.507336
0.497125
0.489575
0.491558
0.508627
0.551383
0.65277
3.00002
3.00001
2.99996
2.9999
2.99965
2.99928
2.99786
2.99571
2.98796
2.97401
2.93158
2.83072
2.60655
2.02564
1.16525
0.619848
0.513135
0.525759
0.537135
0.535946
0.537874
0.552475
0.591656
0.676568
0.85635
3.00002
3.00001
2.99997
2.99992
2.99969
2.99939
2.99813
2.99633
2.98946
2.97798
2.94086
2.8565
2.66112
2.14518
1.3325
0.711589
0.53637
0.550822
0.568511
0.576002
0.586699
0.614026
0.671081
0.776475
0.966512
3.00002
3.00001
2.99998
2.99993
2.99974
2.99947
2.99837
2.99684
2.99066
2.98138
2.94834
2.88313
2.71342
2.29126
1.5335
0.8205
0.572925
0.58543
0.603669
0.617167
0.634259
0.669695
0.735214
0.840007
1.0039
3.00002
3.00001
2.99999
2.99995
2.99979
2.99957
2.99866
2.99739
2.99231
2.98473
2.95717
2.90753
2.76372
2.44316
1.76256
0.942827
0.629891
0.63329
0.647436
0.66383
0.683654
0.721545
0.785651
0.87976
1.01709
3.00002
3.00002
2.99999
2.99996
2.99984
2.99965
2.99894
2.9979
2.99386
2.98765
2.96589
2.92415
2.81056
2.53039
1.95158
1.06424
0.695575
0.673634
0.687536
0.705221
0.727795
0.765277
0.827902
0.910889
1.0259
3.00002
3.00002
3.00001
2.99996
2.9999
2.99967
2.99933
2.99801
2.99599
2.98891
2.97578
2.93721
2.8435
2.63833
2.09013
1.27914
0.800267
0.70903
0.721294
0.740068
0.76636
0.802577
0.859171
0.935851
1.0342
3.00002
3.00002
3.00001
2.99998
2.99993
2.99973
2.99945
2.99833
2.99675
2.99048
2.98086
2.94753
2.87905
2.70783
2.27514
1.52453
0.921273
0.744849
0.750206
0.769956
0.801203
0.837657
0.887901
0.955566
1.04128
3.00002
3.00002
3.00001
2.99999
2.99995
2.9998
2.99958
2.99873
2.99749
2.99268
2.98532
2.95923
2.91123
2.77415
2.46969
1.80838
1.07731
0.806027
0.791342
0.805129
0.832997
0.870158
0.916409
0.976231
1.05025
3.00002
3.00002
3.00001
3
2.99996
2.99989
2.99962
2.99923
2.99773
2.99549
2.9873
2.97326
2.92924
2.82896
2.60408
2.04809
1.25634
0.880194
0.83224
0.843605
0.866909
0.900875
0.941824
0.994256
1.05906
3.00003
3.00002
3.00002
3.00001
2.99997
2.99992
2.99972
2.99943
2.9983
2.99663
2.99045
2.97995
2.94669
2.87133
2.69629
2.24295
1.49258
0.993974
0.871372
0.875027
0.896334
0.929789
0.968223
1.01361
1.06967
3.00003
3.00003
3.00002
3.00001
3
2.99994
2.99985
2.99951
2.99901
2.99717
2.99413
2.98428
2.96371
2.90976
2.76975
2.48631
1.81535
1.17212
0.933704
0.914002
0.926382
0.954553
0.991859
1.03366
1.0819
3.00003
3.00003
3.00002
3.00002
3.00001
2.99996
2.9999
2.99964
2.99928
2.99784
2.99575
2.98792
2.97491
2.93333
2.84025
2.63039
2.10459
1.36105
1.01147
0.953992
0.961138
0.982837
1.01607
1.0546
1.09845
3.00003
3.00003
3.00003
3.00002
3.00001
2.99999
2.99992
2.99981
2.9994
2.99879
2.9966
2.99278
2.98095
2.95459
2.88916
2.71483
2.37254
1.61769
1.14505
1.00058
0.994547
1.00757
1.03588
1.07329
1.11343
3.00003
3.00003
3.00003
3.00002
3.00001
3
2.99995
2.99987
2.99956
2.99912
2.9974
2.99491
2.98539
2.97031
2.92114
2.81887
2.56757
2.03081
1.33284
1.07357
1.03694
1.0415
1.06184
1.09427
1.13106
3.00003
3.00003
3.00003
3.00002
3.00002
3.00001
2.99998
2.9999
2.99977
2.99928
2.99856
2.99585
2.99164
2.97724
2.94984
2.87427
2.68955
2.30463
1.56811
1.175
1.07483
1.07145
1.08536
1.11219
1.14814
3.00003
3.00003
3.00003
3.00003
3.00002
3.00001
3
2.99994
2.99985
2.99952
2.99903
2.99717
2.99443
2.98438
2.96751
2.9154
2.79754
2.54213
1.94894
1.35675
1.13658
1.10881
1.11443
1.13532
1.16578
3.00003
3.00003
3.00003
3.00003
3.00002
3.00002
3
2.99998
2.99988
2.99975
2.99922
2.99844
2.99552
2.99098
2.97536
2.94658
2.86666
2.68034
2.26536
1.5707
1.22642
1.14641
1.14347
1.15724
1.18225
3.00003
3.00003
3.00003
3.00003
3.00003
3.00002
3.00001
3
2.99993
2.99984
2.99949
2.99899
2.99704
2.99418
2.98375
2.96622
2.91239
2.79136
2.52815
1.93374
1.39798
1.20392
1.17765
1.18318
1.20294
3.00003
3.00003
3.00003
3.00003
3.00003
3.00002
3.00002
3
2.99998
2.99988
2.99974
2.99921
2.9984
2.99548
2.99081
2.97516
2.94624
2.86373
2.68837
2.2522
1.62242
1.30074
1.22045
1.2139
1.22342
3.00003
3.00003
3.00003
3.00003
3.00003
3.00003
3.00002
3.00002
2.99999
2.99995
2.99981
2.99959
2.99879
2.99759
2.9932
2.98622
2.96308
2.91904
2.80173
2.53726
1.97513
1.45665
1.27459
1.247
1.24996
3.00003
3.00003
3.00003
3.00003
3.00003
3.00003
3.00002
3.00002
3
2.99998
2.99989
2.99975
2.99923
2.99848
2.99564
2.99137
2.97626
2.95014
2.87318
2.71006
2.32004
1.69657
1.37199
1.28663
1.27724
3.00003
3.00003
3.00003
3.00003
3.00003
3.00003
3.00003
3.00002
3.00002
2.99999
2.99996
2.99982
2.99963
2.9989
2.9978
2.99385
2.98754
2.96687
2.92786
2.82262
2.59423
2.07913
1.54494
1.341
1.31122
3.00003
3.00003
3.00003
3.00003
3.00003
3.00003
3.00003
3.00003
3.00002
3.00001
2.99998
2.9999
2.99978
2.99931
2.99865
2.99609
2.99238
2.97874
2.95652
2.88875
2.74503
2.4145
1.79145
1.44094
1.34458
3.00003
3.00003
3.00003
3.00003
3.00003
3.00003
3.00003
3.00003
3.00002
3.00002
3
2.99995
2.99988
2.9996
2.9992
2.99768
2.99547
2.98736
2.97443
2.93322
2.85247
2.64915
2.21611
1.64454
1.41242
3.00003
3.00003
3.00003
3.00003
3.00003
3.00003
3.00003
3.00003
3.00003
3.00002
3.00001
2.99998
2.99994
2.99977
2.99953
2.99861
2.99727
2.99228
2.98464
2.95872
2.91002
2.78434
2.48552
1.92403
1.53576
3.00003
3.00003
3.00003
3.00003
3.00003
3.00003
3.00003
3.00003
3.00003
3.00003
3.00002
3.00001
2.99997
2.9999
2.99968
2.99934
2.99812
2.99626
2.98973
2.97883
2.94519
2.87347
2.70991
2.31637
1.74958
3.00003
3.00003
3.00003
3.00003
3.00003
3.00003
3.00003
3.00003
3.00003
3.00003
3.00002
3.00001
3
2.99994
2.99986
2.99956
2.9991
2.99747
2.99492
2.98637
2.97117
2.92759
2.82879
2.62049
2.1323
3.00003
3.00003
3.00003
3.00003
3.00003
3.00003
3.00003
3.00003
3.00003
3.00003
3.00003
3.00002
3.00001
2.99999
2.99991
2.99979
2.99938
2.99875
2.99649
2.99293
2.98122
2.95956
2.90107
2.77028
2.47056
3.00003
3.00003
3.00003
3.00003
3.00003
3.00003
3.00003
3.00003
3.00003
3.00003
3.00003
3.00002
3.00002
3
2.99996
2.99989
2.99965
2.9993
2.99798
2.99605
2.98904
2.97795
2.94256
2.8734
2.70199
3.00003
3.00003
3.00003
3.00003
3.00003
3.00003
3.00003
3.00003
3.00003
3.00003
3.00003
3.00003
3.00002
3.00001
3
2.99994
2.99985
2.99955
2.99908
2.99741
2.99485
2.98607
2.97117
2.92727
2.83336
3.00003
3.00003
3.00003
3.00003
3.00003
3.00003
3.00003
3.00003
3.00003
3.00003
3.00003
3.00003
3.00003
3.00002
3.00001
2.99999
2.99991
2.9998
2.99939
2.99877
2.9966
2.99311
2.98181
2.96132
2.90352
3.00003
3.00003
3.00003
3.00003
3.00003
3.00003
3.00003
3.00003
3.00003
3.00003
3.00003
3.00003
3.00003
3.00002
3.00002
3
2.99997
2.99988
2.99973
2.9992
2.9984
2.99562
2.9911
2.97669
2.95046
3.00003
3.00003
3.00003
3.00003
3.00003
3.00003
3.00003
3.00003
3.00003
3.00003
3.00003
3.00003
3.00003
3.00003
3.00002
3.00001
3
2.99994
2.99986
2.99957
2.99914
2.99758
2.99521
2.98715
2.97361
3.00003
3.00003
3.00003
3.00003
3.00003
3.00003
3.00003
3.00003
3.00003
3.00003
3.00003
3.00003
3.00003
3.00003
3.00003
3.00002
3.00001
2.99999
2.99992
2.99981
2.99942
2.99883
2.99674
2.99351
2.98247
3.00003
3.00003
3.00003
3.00003
3.00003
3.00003
3.00003
3.00003
3.00003
3.00003
3.00003
3.00003
3.00003
3.00003
3.00003
3.00002
3.00002
3
2.99997
2.99985
2.99968
2.99905
2.9981
2.9947
2.98925
3.00003
3.00003
3.00003
3.00003
3.00003
3.00003
3.00003
3.00003
3.00003
3.00003
3.00003
3.00003
3.00003
3.00003
3.00003
3.00003
3.00002
3.00001
2.99997
2.99991
2.9997
2.99937
2.99818
2.99619
2.98987
3.00003
3.00003
3.00003
3.00003
3.00003
3.00003
3.00003
3.00003
3.00003
3.00003
3.00003
3.00003
3.00003
3.00003
3.00003
3.00003
3.00002
3.00001
2.99999
2.9999
2.99978
2.9993
2.99858
2.996
2.9912
3.00003
3.00003
3.00003
3.00003
3.00003
3.00003
3.00003
3.00003
3.00003
3.00003
3.00003
3.00003
3.00003
3.00003
3.00003
3.00003
3.00002
3.00001
2.99999
2.99991
2.99979
2.99934
2.99862
2.99617
2.9912
3.00003
3.00003
3.00003
3.00003
3.00003
3.00003
3.00003
3.00003
3.00003
3.00003
3.00003
3.00003
3.00003
3.00003
3.00003
3.00003
3.00002
3.00001
2.99998
2.99993
2.99973
2.99944
2.99832
2.99648
2.99034
3.00003
3.00003
3.00003
3.00003
3.00003
3.00003
3.00003
3.00003
3.00003
3.00003
3.00003
3.00003
3.00003
3.00003
3.00003
3.00003
3.00002
3.00001
2.99997
2.99992
2.99971
2.99941
2.99818
2.99639
2.98959
3
2.99999
2.99994
2.99988
2.99963
2.99926
2.99784
2.99569
2.98794
2.97399
2.93154
2.83069
2.60648
2.02558
1.16515
0.619739
0.513033
0.52566
0.537037
0.535848
0.537777
0.552383
0.591571
0.676498
0.856304
3
2.99999
2.99995
2.9999
2.99967
2.99937
2.99811
2.99631
2.98943
2.97796
2.94082
2.85647
2.66106
2.14512
1.3324
0.71149
0.536269
0.550723
0.568417
0.575912
0.586613
0.613947
0.67101
0.776418
0.966474
3
2.99999
2.99996
2.99991
2.99972
2.99945
2.99835
2.99682
2.99064
2.98135
2.94831
2.88311
2.71337
2.29124
1.53341
0.820422
0.572829
0.585335
0.603581
0.617084
0.634181
0.669623
0.735152
0.839958
1.00387
3
3
2.99997
2.99993
2.99977
2.99955
2.99864
2.99737
2.99229
2.98471
2.95715
2.9075
2.76368
2.44312
1.76249
0.942759
0.629801
0.633206
0.647357
0.663755
0.683583
0.721481
0.785595
0.879713
1.01705
3
3
2.99998
2.99994
2.99982
2.99963
2.99892