/*--------------------------------*- C++ -*----------------------------------*\
| =========                 |                                                 |
| \\      /  F ield         | OpenFOAM: The Open Source CFD Toolbox           |
|  \\    /   O peration     | Version:  4.1                                   |
|   \\  /    A nd           | Web:      www.OpenFOAM.org                      |
|    \\/     M anipulation  |                                                 |
\*---------------------------------------------------------------------------*/
FoamFile
{
    version     2.0;
    format      ascii;
    class       volScalarField;
    location    "0.08";
    object      Ma;
}
// * * * * * * * * * * * * * * * * * * * * * * * * * * * * * * * * * * * * * //

dimensions      [0 0 0 0 0 0 0];

internalField   nonuniform List<scalar> 
18000
(
5.90077e-12
5.83145e-12
5.75259e-12
5.68503e-12
5.61842e-12
5.55272e-12
5.48795e-12
5.42412e-12
5.36117e-12
5.29954e-12
7.45176e-12
7.17731e-12
6.90575e-12
6.65472e-12
6.41488e-12
6.18551e-12
5.96623e-12
5.75635e-12
5.55546e-12
5.36444e-12
9.5383e-12
8.92808e-12
8.35723e-12
7.83653e-12
7.35515e-12
6.90958e-12
6.4969e-12
6.11409e-12
5.75876e-12
5.43039e-12
1.23924e-11
1.12358e-11
1.02028e-11
9.28744e-12
8.47108e-12
7.74118e-12
7.08711e-12
6.49982e-12
5.97136e-12
5.49747e-12
1.63686e-11
1.4321e-11
1.25741e-11
1.10825e-11
9.80245e-12
8.69926e-12
7.74478e-12
6.91603e-12
6.1938e-12
5.56576e-12
2.20225e-11
1.85106e-11
1.56569e-11
1.33221e-11
1.14001e-11
9.80719e-12
8.47917e-12
7.36558e-12
6.42666e-12
5.63509e-12
3.02491e-11
2.42998e-11
1.97156e-11
1.61415e-11
1.33287e-11
1.10933e-11
9.30095e-12
7.85162e-12
6.67048e-12
5.70561e-12
4.2535e-11
3.24537e-11
2.51337e-11
1.97247e-11
1.56719e-11
1.25924e-11
1.02227e-11
8.37775e-12
6.92579e-12
5.77738e-12
6.13532e-10
5.79372e-10
5.39844e-10
5.0544e-10
4.75196e-10
4.4838e-10
4.24433e-10
4.02913e-10
3.83466e-10
3.66509e-10
7.93139e-08
2.02106e-08
1.72238e-08
1.48321e-08
1.28743e-08
1.12514e-08
9.89078e-09
8.73876e-09
7.75039e-09
5.09029e-09
5.9461e-12
5.87419e-12
5.79609e-12
5.72678e-12
5.65866e-12
5.59165e-12
5.52559e-12
5.46076e-12
5.39688e-12
5.33426e-12
7.52267e-12
7.24024e-12
6.97071e-12
6.71393e-12
6.46904e-12
6.23523e-12
6.01214e-12
5.79901e-12
5.59537e-12
5.40067e-12
9.6364e-12
9.01313e-12
8.4462e-12
7.91517e-12
7.42501e-12
6.97196e-12
6.55291e-12
6.16464e-12
5.80466e-12
5.46892e-12
1.25354e-11
1.13599e-11
1.03298e-11
9.39626e-12
8.5648e-12
7.82235e-12
7.15787e-12
6.56194e-12
6.02605e-12
5.53927e-12
1.65844e-11
1.45101e-11
1.27593e-11
1.12359e-11
9.93039e-12
8.80667e-12
7.83567e-12
6.99349e-12
6.2602e-12
5.61183e-12
2.23583e-11
1.88071e-11
1.59311e-11
1.35407e-11
1.15763e-11
9.95051e-12
8.59689e-12
7.46314e-12
6.50803e-12
5.68661e-12
3.07862e-11
2.47747e-11
2.0126e-11
1.64556e-11
1.35727e-11
1.12852e-11
9.45371e-12
7.97474e-12
6.77032e-12
5.76381e-12
4.34204e-11
3.32269e-11
2.57546e-11
2.01791e-11
1.60108e-11
1.28495e-11
1.04209e-11
8.53269e-12
7.0482e-12
5.84345e-12
6.37886e-11
4.58309e-11
3.38004e-11
2.53577e-11
1.93702e-11
1.50377e-11
1.18463e-11
9.45725e-12
7.64154e-12
6.21059e-12
3.52975e-08
6.60305e-09
5.6802e-09
4.93785e-09
4.3327e-09
3.83294e-09
3.41545e-09
3.06315e-09
2.76321e-09
2.51728e-09
3.91486e-13
3.6573e-13
1.77744e-13
1.5659e-13
1.36611e-13
1.17975e-13
1.00854e-13
8.54813e-14
7.22102e-14
5.0572e-14
5.38333e-13
4.64494e-13
3.90547e-13
3.39572e-13
2.93161e-13
2.51472e-13
2.14749e-13
1.83459e-13
1.5796e-13
8.74555e-14
6.03735e-13
4.95316e-13
5.29431e-13
4.59571e-13
3.99221e-13
3.47996e-13
3.05362e-13
2.70854e-13
2.43234e-13
1.26462e-13
7.40636e-13
6.43743e-13
7.67705e-13
6.61806e-13
5.72969e-13
4.99182e-13
4.38274e-13
3.8852e-13
3.47188e-13
1.76656e-13
9.74871e-13
9.56429e-13
1.11674e-12
9.46118e-13
8.06544e-13
6.92737e-13
5.99783e-13
5.2389e-13
4.60385e-13
2.30079e-13
1.3702e-12
1.50193e-12
1.62093e-12
1.33836e-12
1.11404e-12
9.3563e-13
7.92807e-13
6.77895e-13
5.8303e-13
2.86576e-13
2.02691e-12
2.38626e-12
2.34895e-12
1.87701e-12
1.51625e-12
1.23841e-12
1.02214e-12
8.52376e-13
7.15622e-13
3.4604e-13
3.11511e-12
3.79329e-12
3.40661e-12
2.6183e-12
2.04202e-12
1.61511e-12
1.29418e-12
1.04984e-12
8.58902e-13
4.08559e-13
1.55775e-11
6.03486e-12
4.95238e-12
3.63977e-12
2.72794e-12
2.08204e-12
1.61533e-12
1.27239e-12
1.01342e-12
4.74236e-13
3.41844e-08
7.58302e-11
4.75272e-11
3.57701e-11
2.74512e-11
2.14256e-11
1.6973e-11
1.36247e-11
1.10666e-11
8.9739e-12
3.88723e-13
3.62714e-13
1.7254e-13
1.51064e-13
1.30667e-13
1.115e-13
9.36493e-14
7.73267e-14
6.28603e-14
3.66947e-14
5.3461e-13
4.60527e-13
3.86667e-13
3.35669e-13
2.89164e-13
2.47368e-13
2.10505e-13
1.78983e-13
1.53224e-13
7.95939e-14
5.97114e-13
4.88586e-13
5.24467e-13
4.54848e-13
3.94767e-13
3.43752e-13
3.01291e-13
2.67001e-13
2.39548e-13
1.20355e-13
7.29073e-13
6.33641e-13
7.61533e-13
6.56371e-13
5.68111e-13
4.94846e-13
4.3439e-13
3.85036e-13
3.44047e-13
1.71705e-13
9.5475e-13
9.42528e-13
1.10885e-12
9.39644e-13
8.01155e-13
6.88232e-13
5.95971e-13
5.20636e-13
4.57626e-13
2.25778e-13
1.33542e-12
1.48328e-12
1.61076e-12
1.33063e-12
1.10809e-12
9.30999e-13
7.89115e-13
6.74937e-13
5.80656e-13
2.82782e-13
1.96677e-12
2.36076e-12
2.33576e-12
1.86792e-12
1.50987e-12
1.23385e-12
1.01883e-12
8.49951e-13
7.13847e-13
3.42775e-13
3.00865e-12
3.75739e-12
3.38946e-12
2.6079e-12
2.03554e-12
1.61109e-12
1.29165e-12
1.04825e-12
8.5799e-13
4.06007e-13
1.57037e-11
5.99403e-12
4.93606e-12
3.63195e-12
2.72437e-12
2.08066e-12
1.61507e-12
1.27264e-12
1.01384e-12
4.72496e-13
3.56557e-08
4.29213e-11
7.14257e-12
5.00677e-12
3.61288e-12
2.66462e-12
2.00375e-12
1.53321e-12
1.18828e-12
5.4985e-13
3.88827e-13
3.62487e-13
1.73005e-13
1.51442e-13
1.30991e-13
1.1177e-13
9.38995e-14
7.75384e-14
6.30026e-14
3.67968e-14
5.35261e-13
4.60956e-13
3.87675e-13
3.36516e-13
2.89883e-13
2.4796e-13
2.10989e-13
1.79396e-13
1.53526e-13
7.97904e-14
5.98536e-13
4.90006e-13
5.2627e-13
4.5634e-13
3.95964e-13
3.4475e-13
3.02061e-13
2.67556e-13
2.39928e-13
1.20612e-13
7.32029e-13
6.3684e-13
7.64459e-13
6.58772e-13
5.70032e-13
4.96381e-13
4.35625e-13
3.85971e-13
3.44719e-13
1.72115e-13
9.60545e-13
9.48471e-13
1.11377e-12
9.43564e-13
8.04288e-13
6.90689e-13
5.97894e-13
5.22154e-13
4.58786e-13
2.26591e-13
1.34644e-12
1.49376e-12
1.61906e-12
1.33715e-12
1.11318e-12
9.3502e-13
7.92306e-13
6.7746e-13
5.82637e-13
2.84148e-13
1.98741e-12
2.37925e-12
2.35004e-12
1.8788e-12
1.51827e-12
1.24038e-12
1.02394e-12
8.53957e-13
7.17051e-13
3.45055e-13
3.04736e-12
3.79045e-12
3.41406e-12
2.62613e-12
2.04926e-12
1.62155e-12
1.29971e-12
1.05453e-12
8.62911e-13
4.09481e-13
1.57507e-11
6.05385e-12
4.97869e-12
3.6624e-12
2.74653e-12
2.09709e-12
1.62746e-12
1.28212e-12
1.02119e-12
4.77532e-13
3.56778e-08
4.305e-11
7.20065e-12
5.04747e-12
3.64206e-12
2.68588e-12
2.0194e-12
1.54493e-12
1.19722e-12
5.55501e-13
3.88901e-13
3.62158e-13
1.73608e-13
1.51948e-13
1.31394e-13
1.12121e-13
9.41848e-14
7.7798e-14
6.32106e-14
3.69133e-14
5.36079e-13
4.61497e-13
3.88962e-13
3.37619e-13
2.90808e-13
2.48726e-13
2.11623e-13
1.79896e-13
1.53915e-13
8.00687e-14
6.00368e-13
4.91843e-13
5.2855e-13
4.58252e-13
3.97538e-13
3.45986e-13
3.03064e-13
2.68292e-13
2.40436e-13
1.20943e-13
7.35849e-13
6.4098e-13
7.68266e-13
6.61839e-13
5.72538e-13
4.98345e-13
4.37137e-13
3.87153e-13
3.45572e-13
1.72706e-13
9.68075e-13
9.56165e-13
1.12009e-12
9.48576e-13
8.08286e-13
6.93891e-13
6.004e-13
5.24093e-13
4.60295e-13
2.27672e-13
1.36075e-12
1.50739e-12
1.62981e-12
1.34553e-12
1.11975e-12
9.40188e-13
7.96398e-13
6.80674e-13
5.85194e-13
2.85961e-13
2.01426e-12
2.40324e-12
2.36847e-12
1.89286e-12
1.52909e-12
1.24882e-12
1.03055e-12
8.59146e-13
7.21149e-13
3.47956e-13
3.0978e-12
3.83336e-12
3.44591e-12
2.64972e-12
2.06698e-12
1.63502e-12
1.31009e-12
1.06261e-12
8.69255e-13
4.13884e-13
1.58451e-11
6.13151e-12
5.03387e-12
3.70174e-12
2.77515e-12
2.1183e-12
1.6434e-12
1.2943e-12
1.03062e-12
4.84001e-13
3.56556e-08
4.32109e-11
7.29221e-12
5.11037e-12
3.6864e-12
2.71789e-12
2.04298e-12
1.56265e-12
1.21074e-12
5.64642e-13
3.88991e-13
3.6179e-13
1.74327e-13
1.52563e-13
1.31933e-13
1.12568e-13
9.45628e-14
7.80869e-14
6.34345e-14
3.70722e-14
5.37088e-13
4.62163e-13
3.90537e-13
3.38925e-13
2.91946e-13
2.49713e-13
2.12422e-13
1.80517e-13
1.54319e-13
8.03661e-14
6.02612e-13
4.9408e-13
5.31337e-13
4.60561e-13
3.99428e-13
3.47555e-13
3.04264e-13
2.69182e-13
2.41075e-13
1.2133e-13
7.40531e-13
6.46019e-13
7.72891e-13
6.65594e-13
5.75567e-13
5.00772e-13
4.39003e-13
3.88578e-13
3.46666e-13
1.73425e-13
9.77295e-13
9.65563e-13
1.12781e-12
9.54734e-13
8.13155e-13
6.97763e-13
6.03468e-13
5.26485e-13
4.62132e-13
2.28973e-13
1.37828e-12
1.52393e-12
1.6429e-12
1.35576e-12
1.12781e-12
9.4652e-13
8.01387e-13
6.84592e-13
5.88296e-13
2.88192e-13
2.04717e-12
2.43254e-12
2.391e-12
1.91007e-12
1.54233e-12
1.2591e-12
1.0386e-12
8.65468e-13
7.26184e-13
3.51541e-13
3.15964e-12
3.88589e-12
3.48495e-12
2.67859e-12
2.08866e-12
1.65152e-12
1.32282e-12
1.07249e-12
8.76977e-13
4.19307e-13
1.60015e-11
6.22679e-12
5.10158e-12
3.75003e-12
2.81027e-12
2.14425e-12
1.66294e-12
1.3092e-12
1.04209e-12
4.91844e-13
3.57835e-08
4.3659e-11
7.40524e-12
5.18781e-12
3.74096e-12
2.75722e-12
2.07199e-12
1.5844e-12
1.22725e-12
5.75774e-13
3.89101e-13
3.6127e-13
1.7513e-13
1.53237e-13
1.32537e-13
1.13105e-13
9.50434e-14
7.85532e-14
6.42355e-14
4.45069e-14
5.38246e-13
4.62836e-13
3.92284e-13
3.40436e-13
2.93244e-13
2.50836e-13
2.13375e-13
1.81374e-13
1.55141e-13
8.31083e-14
6.0521e-13
4.96496e-13
5.34454e-13
4.63165e-13
4.01606e-13
3.49357e-13
3.05744e-13
2.70337e-13
2.42055e-13
1.2328e-13
7.45972e-13
6.51518e-13
7.78041e-13
6.69811e-13
5.78981e-13
5.03565e-13
4.41285e-13
3.90362e-13
3.48136e-13
1.75463e-13
9.87981e-13
9.75854e-13
1.13637e-12
9.61604e-13
8.18665e-13
7.02186e-13
6.07067e-13
5.29409e-13
4.64539e-13
2.31496e-13
1.3985e-12
1.5422e-12
1.65738e-12
1.36715e-12
1.1368e-12
9.53724e-13
8.07235e-13
6.89379e-13
5.92164e-13
2.91716e-13
2.08481e-12
2.46476e-12
2.41582e-12
1.92919e-12
1.55717e-12
1.27079e-12
1.04797e-12
8.73076e-13
7.32257e-13
3.56484e-13
3.22987e-12
3.94332e-12
3.52794e-12
2.71072e-12
2.11296e-12
1.67018e-12
1.33741e-12
1.08421e-12
8.86376e-13
4.26335e-13
1.6112e-11
6.33075e-12
5.17614e-12
3.80366e-12
2.84962e-12
2.17367e-12
1.6853e-12
1.32666e-12
1.05594e-12
5.01663e-13
3.78544e-08
4.35196e-11
7.52842e-12
5.27357e-12
3.80201e-12
2.80169e-12
2.10506e-12
1.60972e-12
1.24702e-12
5.89469e-13
3.88019e-13
3.85e-13
1.99683e-13
1.61072e-13
1.3298e-13
1.47502e-13
2.2531e-13
5.72508e-13
2.46986e-12
9.00998e-12
5.37068e-13
5.04618e-13
4.17761e-13
3.51224e-13
2.93838e-13
2.63233e-13
2.8552e-13
4.80326e-13
1.51651e-12
5.70264e-12
6.03811e-13
5.66757e-13
5.68764e-13
4.80483e-13
4.04713e-13
3.52097e-13
3.50172e-13
4.42996e-13
1.0252e-12
3.59539e-12
7.42929e-13
7.3705e-13
8.13591e-13
6.88423e-13
5.82961e-13
5.02392e-13
4.63442e-13
4.87907e-13
7.95051e-13
2.40331e-12
9.8042e-13
1.05553e-12
1.16535e-12
9.75755e-13
8.20002e-13
6.9778e-13
6.16341e-13
5.89285e-13
7.23661e-13
1.70555e-12
1.38181e-12
1.59502e-12
1.66989e-12
1.36965e-12
1.13052e-12
9.43993e-13
8.07851e-13
7.34639e-13
7.52451e-13
1.28692e-12
2.05241e-12
2.46969e-12
2.3988e-12
1.91084e-12
1.53706e-12
1.25221e-12
1.04053e-12
9.02273e-13
8.39889e-13
1.03743e-12
3.17145e-12
3.87396e-12
3.46387e-12
2.66002e-12
2.07157e-12
1.63832e-12
1.32097e-12
1.10059e-12
9.66407e-13
8.98245e-13
1.35102e-11
6.14802e-12
5.04191e-12
3.70619e-12
2.778e-12
2.12318e-12
1.65772e-12
1.33194e-12
1.12539e-12
8.34507e-13
2.76913e-08
3.36576e-11
7.27382e-12
5.10797e-12
3.68769e-12
2.72552e-12
2.06239e-12
1.60355e-12
1.30039e-12
8.28193e-13
2.54665e-12
2.41186e-12
1.54944e-12
1.6368e-13
2.59327e-12
8.12685e-12
2.18407e-11
6.65654e-11
2.79674e-10
1.21228e-09
3.58428e-12
3.48708e-12
2.59831e-12
1.20385e-12
1.29902e-12
6.00441e-12
1.68169e-11
4.81808e-11
1.74037e-10
6.80886e-10
4.84969e-12
4.75491e-12
3.78553e-12
2.37773e-12
3.50462e-13
4.00861e-12
1.26257e-11
3.5419e-11
1.15437e-10
4.11953e-10
6.50195e-12
6.33608e-12
5.19388e-12
3.68975e-12
1.52782e-12
2.24057e-12
9.30508e-12
2.64669e-11
8.03507e-11
2.63928e-10
8.69689e-12
8.3408e-12
6.89392e-12
5.18236e-12
2.95123e-12
8.06829e-13
6.57149e-12
1.98981e-11
5.78272e-11
1.76947e-10
1.16689e-11
1.09268e-11
8.98259e-12
6.91283e-12
4.49031e-12
1.37638e-12
4.28066e-12
1.4875e-11
4.26027e-11
1.23042e-10
1.57767e-11
1.43256e-11
1.15923e-11
8.95623e-12
6.18608e-12
2.90999e-12
2.36807e-12
1.10122e-11
3.18924e-11
8.81191e-11
2.15887e-11
1.88795e-11
1.49085e-11
1.14108e-11
8.08949e-12
4.54866e-12
1.24171e-12
7.92786e-12
2.40961e-11
6.46244e-11
3.02678e-11
2.51147e-11
1.91963e-11
1.44061e-11
1.02656e-11
6.28527e-12
2.05787e-12
5.42202e-12
1.82421e-11
4.8298e-11
1.09009e-07
5.24732e-11
2.48078e-11
1.80946e-11
1.27782e-11
8.14357e-12
3.56788e-12
3.42251e-12
1.37791e-11
3.65863e-11
3.47247e-12
3.12206e-12
2.06802e-12
1.91164e-12
8.18052e-12
2.68157e-11
9.23614e-11
4.32223e-10
2.36996e-09
3.2027e-09
4.61029e-12
4.2946e-12
3.28447e-12
1.70119e-12
5.12581e-12
1.8894e-11
6.33223e-11
2.58882e-10
1.24396e-09
1.59937e-09
5.99897e-12
5.65689e-12
4.65577e-12
2.88475e-12
2.76902e-12
1.28254e-11
4.39164e-11
1.64878e-10
7.09732e-10
8.81844e-10
7.78283e-12
7.31109e-12
6.21715e-12
4.45292e-12
2.00243e-12
8.22957e-12
3.06677e-11
1.09724e-10
4.31268e-10
5.22819e-10
1.01326e-11
9.37304e-12
8.04295e-12
6.19558e-12
3.3073e-12
4.71734e-12
2.12466e-11
7.51705e-11
2.75224e-10
3.2766e-10
1.33027e-11
1.20061e-11
1.02374e-11
8.14224e-12
5.19261e-12
2.49493e-12
1.42837e-11
5.23987e-11
1.82541e-10
2.14433e-10
1.76835e-11
1.54468e-11
1.29425e-11
1.03738e-11
7.24441e-12
2.9317e-12
9.06439e-12
3.67899e-11
1.24674e-10
1.45177e-10
2.38931e-11
2.00448e-11
1.63542e-11
1.30001e-11
9.46382e-12
4.91756e-12
5.11864e-12
2.57225e-11
8.70603e-11
1.0094e-10
3.60209e-11
2.63272e-11
2.07487e-11
1.61662e-11
1.19229e-11
7.15221e-12
2.69761e-12
1.76212e-11
6.17263e-11
7.16496e-11
1.79858e-08
9.81178e-10
2.64926e-11
2.00427e-11
1.47014e-11
9.46668e-12
3.25743e-12
1.15633e-11
4.41271e-11
5.14927e-11
9.99657e-13
1.25506e-12
1.53659e-12
3.26439e-12
8.73158e-12
2.60802e-11
8.96334e-11
3.66561e-10
7.95359e-10
8.12512e-10
1.0733e-12
1.24503e-12
1.38824e-12
2.45647e-12
6.16686e-12
1.79983e-11
5.90304e-11
2.21928e-10
4.25509e-10
4.24217e-10
1.14911e-12
1.27219e-12
1.36353e-12
1.97242e-12
4.39363e-12
1.25256e-11
3.97862e-11
1.4012e-10
2.43365e-10
2.39522e-10
1.22388e-12
1.32422e-12
1.4145e-12
1.75972e-12
3.2283e-12
8.78646e-12
2.72889e-11
9.14678e-11
1.46301e-10
1.45245e-10
1.30004e-12
1.39e-12
1.49817e-12
1.72122e-12
2.52841e-12
6.22854e-12
1.89809e-11
6.13351e-11
9.14297e-11
9.3628e-11
1.37979e-12
1.4646e-12
1.59247e-12
1.77158e-12
2.18115e-12
4.49968e-12
1.33436e-11
4.20731e-11
5.88812e-11
6.36236e-11
1.46625e-12
1.54614e-12
1.68906e-12
1.85843e-12
2.06902e-12
3.38427e-12
9.4536e-12
2.93214e-11
3.88239e-11
4.52499e-11
1.56334e-12
1.63548e-12
1.78614e-12
1.95604e-12
2.08459e-12
2.73597e-12
6.77404e-12
2.07096e-11
2.60614e-11
3.3471e-11
4.18691e-11
1.74605e-12
1.88486e-12
2.05534e-12
2.15684e-12
2.42576e-12
4.94674e-12
1.47886e-11
1.77443e-11
2.56138e-11
3.15922e-08
8.66453e-10
2.00652e-12
2.15075e-12
2.24438e-12
2.32209e-12
3.73196e-12
1.06473e-11
1.21185e-11
2.01059e-11
7.98268e-13
1.51375e-12
1.6112e-12
2.52152e-12
4.15597e-12
7.30079e-12
1.51315e-11
4.92344e-11
3.33673e-10
9.91247e-10
7.32675e-13
1.35998e-12
1.39828e-12
2.15509e-12
3.49255e-12
5.98264e-12
1.15348e-11
3.16503e-11
1.96834e-10
5.31391e-10
6.69694e-13
1.21629e-12
1.20457e-12
1.83231e-12
2.92814e-12
4.91586e-12
9.01785e-12
2.15657e-11
1.21091e-10
3.06612e-10
6.15754e-13
1.09416e-12
1.04351e-12
1.56767e-12
2.47211e-12
4.08199e-12
7.22204e-12
1.55172e-11
7.72982e-11
1.87207e-10
5.69608e-13
9.89932e-13
9.09099e-13
1.34874e-12
2.10125e-12
3.42134e-12
5.88942e-12
1.1682e-11
5.09069e-11
1.19486e-10
5.29872e-13
9.00598e-13
7.96323e-13
1.1675e-12
1.79806e-12
2.88916e-12
4.87028e-12
9.11464e-12
3.44379e-11
7.90485e-11
4.95504e-13
8.2345e-13
7.01317e-13
1.01594e-12
1.54666e-12
2.45611e-12
4.07375e-12
7.30127e-12
2.38499e-11
5.38724e-11
4.65811e-13
7.56403e-13
6.20841e-13
8.8836e-13
1.33784e-12
2.10155e-12
3.43772e-12
5.96915e-12
1.68622e-11
3.76477e-11
7.4444e-11
7.78343e-13
5.52115e-13
7.80743e-13
1.16332e-12
1.80858e-12
2.92244e-12
4.95603e-12
1.21458e-11
2.68819e-11
3.10462e-08
3.04667e-09
2.23109e-12
6.7398e-13
1.01275e-12
1.55874e-12
2.49222e-12
4.15049e-12
8.88028e-12
1.95334e-11
1.07516e-12
1.86885e-12
1.61165e-12
2.17786e-12
3.03746e-12
4.41048e-12
7.08178e-12
1.42879e-11
5.7983e-11
1.11331e-10
1.00157e-12
1.71372e-12
1.4451e-12
1.93997e-12
2.68422e-12
3.83579e-12
5.87246e-12
1.07441e-11
4.05215e-11
7.4562e-11
9.298e-13
1.56462e-12
1.28445e-12
1.71401e-12
2.35718e-12
3.33353e-12
4.94616e-12
8.35747e-12
2.84883e-11
5.15048e-11
8.67399e-13
1.43487e-12
1.14619e-12
1.51954e-12
2.07812e-12
2.91564e-12
4.23914e-12
6.74529e-12
2.02913e-11
3.65135e-11
8.13174e-13
1.32165e-12
1.02729e-12
1.35256e-12
1.83978e-12
2.56462e-12
3.67855e-12
5.61054e-12
1.4627e-11
2.64144e-11
7.6584e-13
1.22242e-12
9.24617e-13
1.20866e-12
1.63426e-12
2.26574e-12
3.22041e-12
4.77276e-12
1.06601e-11
1.94223e-11
7.24253e-13
1.13494e-12
8.35689e-13
1.08405e-12
1.45683e-12
2.00973e-12
2.83671e-12
4.12529e-12
7.84533e-12
1.4474e-11
6.87776e-13
1.05749e-12
7.58391e-13
9.75819e-13
1.303e-12
1.7884e-12
2.51033e-12
3.60552e-12
5.82666e-12
1.09093e-11
1.13471e-10
1.15163e-12
6.9075e-13
8.81602e-13
1.16926e-12
1.59632e-12
2.2307e-12
3.17579e-12
4.36552e-12
8.30147e-12
3.79938e-08
5.4076e-09
5.05281e-12
7.75695e-13
1.04948e-12
1.42497e-12
1.98277e-12
2.80407e-12
3.2828e-12
6.35336e-12
1.5003e-12
2.37129e-12
1.62104e-12
1.90743e-12
2.28944e-12
2.83506e-12
3.81751e-12
6.04764e-12
1.71874e-11
2.34524e-11
1.41899e-12
2.21874e-12
1.50493e-12
1.773e-12
2.12754e-12
2.60798e-12
3.37539e-12
4.9515e-12
1.30773e-11
1.82501e-11
1.33834e-12
2.06737e-12
1.38268e-12
1.63049e-12
1.95803e-12
2.3895e-12
3.02041e-12
4.17079e-12
9.86141e-12
1.41598e-11
1.26702e-12
1.93205e-12
1.27227e-12
1.50034e-12
1.80286e-12
2.19663e-12
2.74021e-12
3.62329e-12
7.45671e-12
1.1047e-11
1.20391e-12
1.81086e-12
1.17327e-12
1.38238e-12
1.66171e-12
2.02391e-12
2.50799e-12
3.22355e-12
5.64889e-12
8.65759e-12
1.14785e-12
1.70197e-12
1.08453e-12
1.27578e-12
1.53292e-12
1.86739e-12
2.30674e-12
2.91526e-12
4.28243e-12
6.80915e-12
1.09789e-12
1.60398e-12
1.00491e-12
1.1793e-12
1.41556e-12
1.7246e-12
2.12861e-12
2.6639e-12
3.24568e-12
5.36848e-12
1.05338e-12
1.51544e-12
9.33445e-13
1.09211e-12
1.30877e-12
1.59412e-12
1.96746e-12
2.45029e-12
2.45654e-12
4.2391e-12
1.56227e-10
1.68113e-12
8.69056e-13
1.01332e-12
1.21162e-12
1.47481e-12
1.82058e-12
2.26252e-12
1.85539e-12
3.34805e-12
2.95698e-08
7.54207e-09
8.45631e-12
9.17206e-13
1.12039e-12
1.36193e-12
1.68094e-12
2.08736e-12
1.3857e-12
2.63502e-12
2.13296e-12
3.02219e-12
1.57063e-12
1.60795e-12
1.66957e-12
1.79998e-12
2.14999e-12
2.99033e-12
6.93206e-12
8.3242e-12
2.04606e-12
2.88187e-12
1.51254e-12
1.56501e-12
1.6362e-12
1.74726e-12
1.99347e-12
2.57854e-12
5.61249e-12
6.97267e-12
1.95909e-12
2.73791e-12
1.43792e-12
1.50164e-12
1.58228e-12
1.68752e-12
1.87443e-12
2.28251e-12
4.43374e-12
5.73497e-12
1.88054e-12
2.60511e-12
1.36486e-12
1.43605e-12
1.52422e-12
1.63015e-12
1.78683e-12
2.08251e-12
3.4856e-12
4.71682e-12
1.8096e-12
2.48281e-12
1.29488e-12
1.37077e-12
1.46449e-12
1.57341e-12
1.71624e-12
1.94502e-12
2.72169e-12
3.8765e-12
1.74541e-12
2.37021e-12
1.2286e-12
1.30668e-12
1.40384e-12
1.51613e-12
1.65409e-12
1.84453e-12
2.10521e-12
3.18025e-12
1.68725e-12
2.26646e-12
1.16609e-12
1.24466e-12
1.3434e-12
1.45816e-12
1.59513e-12
1.76509e-12
1.60644e-12
2.60226e-12
1.63454e-12
2.17073e-12
1.10753e-12
1.18527e-12
1.28403e-12
1.39996e-12
1.53706e-12
1.697e-12
1.20345e-12
2.12152e-12
2.02309e-10
2.38695e-12
1.05263e-12
1.12876e-12
1.22631e-12
1.34224e-12
1.47954e-12
1.63487e-12
8.79325e-13
1.72181e-12
6.65205e-09
8.80242e-09
1.70293e-11
1.05043e-12
1.16788e-12
1.28219e-12
1.41825e-12
1.57047e-12
6.07633e-13
1.38714e-12
3.01393e-12
3.77382e-12
1.38688e-12
1.2157e-12
1.06945e-12
1.003e-12
1.1378e-12
1.55549e-12
3.4748e-12
3.82744e-12
2.92652e-12
3.66073e-12
1.38989e-12
1.25046e-12
1.12287e-12
1.03658e-12
1.08061e-12
1.3564e-12
2.98163e-12
3.40951e-12
2.83877e-12
3.54047e-12
1.37002e-12
1.25962e-12
1.15392e-12
1.06681e-12
1.05764e-12
1.2185e-12
2.45827e-12
2.93839e-12
2.75771e-12
3.42543e-12
1.34266e-12
1.25667e-12
1.17199e-12
1.09325e-12
1.05841e-12
1.13766e-12
2.00959e-12
2.52756e-12
2.68295e-12
3.31616e-12
1.311e-12
1.24558e-12
1.18012e-12
1.11393e-12
1.07062e-12
1.09822e-12
1.6253e-12
2.16923e-12
2.61404e-12
3.21265e-12
1.27648e-12
1.22832e-12
1.17999e-12
1.12772e-12
1.08591e-12
1.08447e-12
1.29579e-12
1.85709e-12
2.55052e-12
3.11489e-12
1.24047e-12
1.20669e-12
1.17321e-12
1.13468e-12
1.09976e-12
1.08461e-12
1.01374e-12
1.58544e-12
2.49204e-12
3.02269e-12
1.2039e-12
1.18204e-12
1.16123e-12
1.13545e-12
1.10971e-12
1.09096e-12
7.72679e-13
1.35007e-12
2.50543e-10
3.25894e-12
1.16725e-12
1.15542e-12
1.14537e-12
1.13108e-12
1.11521e-12
1.09898e-12
5.68121e-13
1.14749e-12
1.94306e-08
8.50389e-09
1.76589e-11
1.10679e-12
1.12412e-12
1.1197e-12
1.1131e-12
1.10205e-12
3.8922e-13
9.77156e-13
4.10054e-12
4.51462e-12
1.06039e-12
7.602e-13
4.95126e-13
3.48442e-13
4.86673e-13
7.97294e-13
2.09567e-12
2.11651e-12
4.01891e-12
4.4432e-12
1.10699e-12
8.4294e-13
6.00801e-13
4.18795e-13
4.30318e-13
6.58437e-13
1.92746e-12
2.01018e-12
3.93805e-12
4.36436e-12
1.13104e-12
9.01478e-13
6.85023e-13
4.98852e-13
4.26838e-13
5.56161e-13
1.67976e-12
1.8146e-12
3.86158e-12
4.28485e-12
1.14353e-12
9.44278e-13
7.5204e-13
5.7373e-13
4.5935e-13
4.96811e-13
1.45849e-12
1.63738e-12
3.78955e-12
4.20619e-12
1.14784e-12
9.75365e-13
8.0593e-13
6.4072e-13
5.09925e-13
4.78706e-13
1.26169e-12
1.47706e-12
3.72205e-12
4.129e-12
1.14567e-12
9.97153e-13
8.4878e-13
6.98683e-13
5.65557e-13
4.91886e-13
1.088e-12
1.33285e-12
3.65871e-12
4.05382e-12
1.13863e-12
1.01126e-12
8.82162e-13
7.47739e-13
6.19741e-13
5.24054e-13
9.36199e-13
1.20396e-12
3.5995e-12
3.98105e-12
1.12783e-12
1.01926e-12
9.07709e-13
7.88621e-13
6.69513e-13
5.6529e-13
8.0554e-13
1.08962e-12
2.95593e-10
4.22567e-12
1.11415e-12
1.02234e-12
9.26903e-13
8.22432e-13
7.13809e-13
6.09395e-13
6.96019e-13
9.89421e-13
4.79314e-08
6.3742e-09
1.65307e-11
1.01056e-12
9.38722e-13
8.48012e-13
7.50579e-13
6.50182e-13
6.06747e-13
9.08364e-13
5.1842e-12
5.09559e-12
7.58543e-13
4.99093e-13
2.71843e-13
1.53991e-13
2.68334e-13
4.50371e-13
1.50434e-12
1.37147e-12
5.11224e-12
5.06985e-12
7.79951e-13
5.36607e-13
3.1037e-13
1.24663e-13
1.65053e-13
3.46503e-13
1.49556e-12
1.39621e-12
5.04321e-12
5.0397e-12
7.95209e-13
5.72753e-13
3.60091e-13
1.61659e-13
7.75545e-14
2.49181e-13
1.38794e-12
1.32139e-12
4.97658e-12
5.00477e-12
8.07812e-13
6.06024e-13
4.0982e-13
2.19427e-13
4.46874e-14
1.60686e-13
1.28955e-12
1.25197e-12
4.91286e-12
4.96689e-12
8.18008e-13
6.36236e-13
4.57087e-13
2.79923e-13
1.07312e-13
8.67363e-14
1.19994e-12
1.18767e-12
4.85208e-12
4.92706e-12
8.25548e-13
6.6259e-13
5.00029e-13
3.36814e-13
1.7549e-13
5.82175e-14
1.11883e-12
1.12853e-12
4.79417e-12
4.88608e-12
8.30412e-13
6.84982e-13
5.38277e-13
3.88693e-13
2.38603e-13
1.01309e-13
1.04619e-12
1.0744e-12
4.73938e-12
4.84466e-12
8.32715e-13
7.03539e-13
5.71711e-13
4.35182e-13
2.95924e-13
1.59993e-13
9.8154e-13
1.02524e-12
3.31183e-10
5.09952e-12
8.32843e-13
7.18741e-13
6.00871e-13
4.76711e-13
3.48131e-13
2.17775e-13
9.24881e-13
9.80823e-13
7.37447e-08
3.42594e-09
1.11118e-11
7.28938e-13
6.25307e-13
5.13272e-13
3.95331e-13
2.72667e-13
8.76254e-13
9.49531e-13
5.89633e-12
5.39783e-12
7.09168e-13
6.10332e-13
5.11181e-13
4.42221e-13
4.00448e-13
3.8654e-13
1.25931e-12
1.05675e-12
5.83138e-12
5.403e-12
6.35826e-13
5.49613e-13
4.58841e-13
3.94415e-13
3.55155e-13
3.44517e-13
1.32498e-12
1.13828e-12
5.77156e-12
5.40759e-12
5.70333e-13
4.95023e-13
4.11496e-13
3.50189e-13
3.12153e-13
3.02375e-13
1.28244e-12
1.11501e-12
5.71325e-12
5.40583e-12
5.15928e-13
4.49203e-13
3.71525e-13
3.12244e-13
2.73808e-13
2.63544e-13
1.24196e-12
1.09251e-12
5.65688e-12
5.39922e-12
4.72313e-13
4.12302e-13
3.39581e-13
2.81259e-13
2.4096e-13
2.28327e-13
1.20343e-12
1.07104e-12
5.60274e-12
5.38903e-12
4.38e-13
3.83287e-13
3.1479e-13
2.56958e-13
2.13941e-13
1.97261e-13
1.16686e-12
1.05043e-12
5.55059e-12
5.3759e-12
4.11145e-13
3.60943e-13
2.96545e-13
2.39348e-13
1.9336e-13
1.70765e-13
1.13203e-12
1.03075e-12
5.50098e-12
5.36069e-12
3.90629e-13
3.4427e-13
2.84049e-13
2.27835e-13
1.78988e-13
1.4967e-13
1.09911e-12
1.01185e-12
3.50854e-10
5.62163e-12
3.75386e-13
3.32447e-13
2.76452e-13
2.22049e-13
1.71556e-13
1.35195e-13
1.06762e-12
9.93698e-13
8.96471e-08
2.23839e-09
7.6722e-12
3.20772e-13
2.74589e-13
2.23997e-13
1.75071e-13
1.35839e-13
1.039e-12
9.97135e-13
5.90323e-12
5.36829e-12
7.21184e-13
6.36446e-13
5.40731e-13
4.66694e-13
4.12049e-13
3.79629e-13
1.18861e-12
1.00843e-12
5.83803e-12
5.37569e-12
6.33728e-13
5.66628e-13
4.84343e-13
4.19756e-13
3.7187e-13
3.45471e-13
1.26435e-12
1.09375e-12
5.77844e-12
5.38315e-12
5.54669e-13
5.02282e-13
4.31215e-13
3.7442e-13
3.31858e-13
3.09152e-13
1.22992e-12
1.07415e-12
5.72044e-12
5.38415e-12
4.86694e-13
4.45785e-13
3.83972e-13
3.33517e-13
2.95187e-13
2.75371e-13
1.19699e-12
1.05533e-12
5.66448e-12
5.38032e-12
4.30017e-13
3.97749e-13
3.43289e-13
2.97628e-13
2.62232e-13
2.4413e-13
1.16534e-12
1.03733e-12
5.6107e-12
5.37278e-12
3.83391e-13
3.57425e-13
3.08827e-13
2.66794e-13
2.33118e-13
2.15572e-13
1.13514e-12
1.02019e-12
5.55901e-12
5.36216e-12
3.45708e-13
3.24075e-13
2.80237e-13
2.4088e-13
2.08126e-13
1.9009e-13
1.10613e-12
1.00381e-12
5.50982e-12
5.3494e-12
3.16074e-13
2.97238e-13
2.5723e-13
2.19902e-13
1.87292e-13
1.67865e-13
1.07842e-12
9.88139e-13
3.50855e-10
5.61313e-12
2.93807e-13
2.76396e-13
2.39654e-13
2.04121e-13
1.71466e-13
1.49604e-13
1.05182e-12
9.73206e-13
8.96471e-08
2.23839e-09
7.64655e-12
2.55372e-13
2.29199e-13
1.96806e-13
1.65952e-13
1.43623e-13
1.02748e-12
9.88909e-13
5.19545e-12
5.01552e-12
7.2738e-13
5.157e-13
3.32929e-13
2.29012e-13
2.63437e-13
3.87015e-13
1.26088e-12
1.21238e-12
5.12507e-12
4.99825e-12
7.23957e-13
5.2215e-13
3.35671e-13
1.95079e-13
1.83295e-13
3.01474e-13
1.28607e-12
1.24951e-12
5.05807e-12
4.97707e-12
7.23706e-13
5.36477e-13
3.56349e-13
1.97671e-13
1.19252e-13
2.17055e-13
1.20755e-12
1.18763e-12
4.99349e-12
4.95078e-12
7.26194e-13
5.54264e-13
3.84819e-13
2.24184e-13
9.03101e-14
1.38279e-13
1.13576e-12
1.1306e-12
4.93161e-12
4.92107e-12
7.3048e-13
5.73903e-13
4.17101e-13
2.63206e-13
1.13975e-13
6.72073e-14
1.07057e-12
1.07838e-12
4.87245e-12
4.88882e-12
7.35114e-13
5.93479e-13
4.49842e-13
3.0581e-13
1.61178e-13
2.6963e-14
1.01196e-12
1.03095e-12
4.81612e-12
4.85497e-12
7.39166e-13
6.11706e-13
4.81089e-13
3.47841e-13
2.12114e-13
7.46838e-14
9.59643e-13
9.88102e-13
4.76279e-12
4.82008e-12
7.42206e-13
6.28117e-13
5.09983e-13
3.87519e-13
2.61279e-13
1.31387e-13
9.13387e-13
9.49751e-13
3.31186e-10
5.08259e-12
7.44079e-13
6.42496e-13
5.36252e-13
4.24377e-13
3.07488e-13
1.85382e-13
8.73199e-13
9.15896e-13
7.37447e-08
3.42594e-09
1.10666e-11
6.53056e-13
5.59122e-13
4.57794e-13
3.50615e-13
2.37229e-13
8.39464e-13
9.05164e-13
4.10795e-12
4.4127e-12
9.39555e-13
6.54417e-13
3.94255e-13
2.16484e-13
3.34096e-13
6.09904e-13
1.55716e-12
1.77478e-12
4.03233e-12
4.35763e-12
9.87089e-13
7.33423e-13
4.98235e-13
3.05432e-13
2.92394e-13
4.97855e-13
1.46736e-12
1.70162e-12
3.9569e-12
4.2939e-12
1.01673e-12
7.94076e-13
5.8402e-13
3.96454e-13
3.05145e-13
4.13703e-13
1.28821e-12
1.53879e-12
3.88483e-12
4.22799e-12
1.03606e-12
8.4069e-13
6.53355e-13
4.7699e-13
3.51733e-13
3.69045e-13
1.12737e-12
1.39144e-12
3.81657e-12
4.16139e-12
1.04782e-12
8.76959e-13
7.10497e-13
5.47876e-13
4.12221e-13
3.64478e-13
9.84454e-13
1.25883e-12
3.75211e-12
4.095e-12
1.05326e-12
9.04319e-13
7.57246e-13
6.09329e-13
4.7445e-13
3.89342e-13
8.5899e-13
1.1404e-12
3.69128e-12
4.0294e-12
1.05372e-12
9.24444e-13
7.95097e-13
6.61793e-13
5.33152e-13
4.30554e-13
7.50633e-13
1.03552e-12
3.63414e-12
3.96518e-12
1.05002e-12
9.38463e-13
8.25462e-13
7.06327e-13
5.86642e-13
4.7832e-13
6.59574e-13
9.4377e-13
2.95596e-10
4.21905e-12
1.04309e-12
9.47606e-13
8.49516e-13
7.4395e-13
6.34396e-13
5.27169e-13
5.86169e-13
8.64951e-13
4.79314e-08
6.3742e-09
1.64973e-11
9.42564e-13
8.66336e-13
7.73541e-13
6.74602e-13
5.7207e-13
5.3009e-13
8.08239e-13
3.02268e-12
3.68341e-12
1.22893e-12
1.03781e-12
8.77889e-13
7.88871e-13
8.65898e-13
1.1695e-12
2.29504e-12
3.05965e-12
2.94477e-12
3.59286e-12
1.25297e-12
1.09166e-12
9.48995e-13
8.45915e-13
8.51083e-13
1.04374e-12
2.00595e-12
2.74761e-12
2.86435e-12
3.49139e-12
1.25274e-12
1.11967e-12
9.97675e-13
8.95745e-13
8.59104e-13
9.59704e-13
1.65583e-12
2.3688e-12
2.78883e-12
3.39212e-12
1.24278e-12
1.13396e-12
1.03176e-12
9.38394e-13
8.82506e-13
9.18705e-13
1.35031e-12
2.0373e-12
2.71826e-12
3.296e-12
1.22632e-12
1.13856e-12
1.05476e-12
9.73391e-13
9.12447e-13
9.08333e-13
1.08522e-12
1.74761e-12
2.65252e-12
3.20363e-12
1.20526e-12
1.13551e-12
1.06843e-12
1.00031e-12
9.4233e-13
9.16199e-13
8.55182e-13
1.49498e-12
2.59134e-12
3.11513e-12
1.18091e-12
1.12669e-12
1.07449e-12
1.0195e-12
9.68557e-13
9.33132e-13
6.55898e-13
1.27567e-12
2.53454e-12
3.03071e-12
1.15446e-12
1.11346e-12
1.07439e-12
1.03179e-12
9.89833e-13
9.53129e-13
4.84085e-13
1.0864e-12
2.50546e-10
3.27362e-12
1.12654e-12
1.09707e-12
1.06939e-12
1.03826e-12
1.00604e-12
9.72829e-13
3.38769e-13
9.24932e-13
1.94306e-08
8.50389e-09
1.76375e-11
1.05872e-12
1.05805e-12
1.0371e-12
1.01404e-12
9.86528e-13
2.10167e-13
7.92494e-13
2.15344e-12
2.96458e-12
1.41522e-12
1.38895e-12
1.3909e-12
1.44767e-12
1.6493e-12
2.15402e-12
3.99408e-12
6.24197e-12
2.07595e-12
2.84883e-12
1.39021e-12
1.38374e-12
1.39842e-12
1.44687e-12
1.58715e-12
1.9385e-12
3.31043e-12
5.28091e-12
1.99506e-12
2.7233e-12
1.34297e-12
1.35294e-12
1.3805e-12
1.42988e-12
1.53621e-12
1.78052e-12
2.63732e-12
4.35545e-12
1.92063e-12
2.60498e-12
1.29236e-12
1.31496e-12
1.35366e-12
1.40822e-12
1.49943e-12
1.67709e-12
2.08492e-12
3.58754e-12
1.85253e-12
2.49407e-12
1.24079e-12
1.27312e-12
1.32107e-12
1.38215e-12
1.46896e-12
1.60841e-12
1.633e-12
2.94948e-12