/*--------------------------------*- C++ -*----------------------------------*\
| =========                 |                                                 |
| \\      /  F ield         | OpenFOAM: The Open Source CFD Toolbox           |
|  \\    /   O peration     | Version:  4.1                                   |
|   \\  /    A nd           | Web:      www.OpenFOAM.org                      |
|    \\/     M anipulation  |                                                 |
\*---------------------------------------------------------------------------*/
FoamFile
{
    version     2.0;
    format      ascii;
    class       surfaceScalarField;
    location    "0.08";
    object      phi;
}
// * * * * * * * * * * * * * * * * * * * * * * * * * * * * * * * * * * * * * //

dimensions      [1 0 -1 0 0 0 0];

internalField   nonuniform List<scalar> 
51500
(
3.71653e-13
8.71867e-15
1.58826e-11
-2.28626e-15
1.61903e-14
1.56957e-11
-1.88539e-15
1.571e-14
1.55117e-11
-1.88475e-15
1.50086e-14
1.53297e-11
-1.85542e-15
1.41966e-14
1.51502e-11
-1.84055e-15
1.33144e-14
1.49732e-11
-1.83668e-15
1.23791e-14
1.47987e-11
-1.80997e-15
1.14099e-14
1.46267e-11
-1.77564e-15
1.0405e-14
1.44569e-11
9.37201e-15
1.42908e-11
-7.82794e-17
3.78635e-13
5.80858e-15
2.00693e-11
-8.86714e-15
8.95646e-15
1.93291e-11
-7.21355e-15
7.69796e-15
1.86222e-11
-7.05834e-15
6.49925e-15
1.79453e-11
-6.87167e-15
5.37661e-15
1.72987e-11
-6.70971e-15
4.32049e-15
1.66802e-11
-6.5428e-15
3.32473e-15
1.60889e-11
-6.38439e-15
2.38866e-15
1.55229e-11
-6.1042e-15
1.50342e-15
1.49812e-11
6.71877e-16
1.44659e-11
-7.0343e-16
3.84395e-13
7.16238e-15
2.57007e-11
-1.74355e-14
8.4935e-15
2.40556e-11
-1.41835e-14
7.05903e-15
2.25381e-11
-1.35675e-14
5.78662e-15
2.11338e-11
-1.29427e-14
4.64037e-15
1.98356e-11
-1.23837e-14
3.60137e-15
1.86339e-11
-1.18584e-14
2.66121e-15
1.75209e-11
-1.1381e-14
1.80766e-15
1.64885e-11
-1.06707e-14
1.04005e-15
1.55301e-11
3.75427e-16
1.46442e-11
-1.37845e-15
3.87864e-13
8.97593e-15
3.34029e-11
-2.86669e-14
1.02531e-14
3.02854e-11
-2.35538e-14
8.21408e-15
2.75173e-11
-2.1922e-14
6.56411e-15
2.50485e-11
-2.03747e-14
5.15305e-15
2.28467e-11
-1.90119e-14
3.92299e-15
2.08779e-11
-1.78186e-14
2.84679e-15
1.91137e-11
-1.67673e-14
1.90206e-15
1.75297e-11
-1.54341e-14
1.07572e-15
1.61042e-11
3.81256e-16
1.48255e-11
-2.10227e-15
3.87038e-13
1.1452e-14
4.41334e-11
-4.34457e-14
1.27242e-14
3.8614e-11
-3.60161e-14
9.73061e-15
3.39159e-11
-3.26206e-14
7.50435e-15
2.98926e-11
-2.9502e-14
5.74742e-15
2.64396e-11
-2.68147e-14
4.28548e-15
2.34637e-11
-2.45301e-14
3.04879e-15
2.0889e-11
-2.26002e-14
2.00035e-15
1.86534e-11
-2.04108e-14
1.11446e-15
1.67052e-11
3.93188e-16
1.50102e-11
-2.85384e-15
3.78418e-13
1.49199e-14
5.93916e-11
-6.32332e-14
1.60379e-14
4.99254e-11
-5.24849e-14
1.17818e-14
4.22359e-11
-4.61948e-14
8.68145e-15
3.59371e-11
-4.0718e-14
6.44268e-15
3.07518e-11
-3.60123e-14
4.69185e-15
2.64545e-11
-3.21076e-14
3.27087e-15
2.28718e-11
-2.89115e-14
2.10646e-15
1.98676e-11
-2.55996e-14
1.15571e-15
1.73346e-11
3.99323e-16
1.5198e-11
-3.6568e-15
3.55306e-13
1.99027e-14
8.15932e-11
-1.11609e-13
1.81264e-14
6.55567e-11
-7.42249e-14
1.31453e-14
5.31912e-11
-6.34951e-14
9.6326e-15
4.35477e-11
-5.43982e-14
7.00756e-15
3.59584e-11
-4.68858e-14
5.05214e-15
2.99272e-11
-4.068e-14
3.77193e-15
2.50911e-11
-3.57647e-14
3.96822e-15
2.11807e-11
-3.10404e-14
2.64998e-15
1.79939e-11
9.28727e-16
1.5389e-11
-4.48795e-15
3.03437e-13
2.01005e-14
1.14752e-10
-1.68855e-13
2.00043e-14
8.75764e-11
-1.03342e-13
1.24229e-14
6.7819e-11
-8.55662e-14
6.99367e-15
5.32226e-11
-7.12219e-14
3.03248e-15
4.22858e-11
-5.96891e-14
9.30686e-17
3.39757e-11
-5.04568e-14
-2.12162e-15
2.75811e-11
-4.32016e-14
-3.81532e-15
2.26026e-11
-3.67059e-14
-5.12617e-15
1.86846e-11
-6.28933e-15
1.55836e-11
-5.36485e-15
6.90197e-13
-1.12588e-10
1.63645e-10
2.01445e-13
-1.14624e-10
1.17441e-10
1.90437e-13
-1.14426e-10
8.61937e-11
1.78444e-13
-1.14234e-10
6.45252e-11
1.66241e-13
-1.14053e-10
4.91986e-11
1.5443e-13
-1.13884e-10
3.81539e-11
1.43315e-13
-1.13726e-10
3.00624e-11
1.32994e-13
-1.13579e-10
2.40463e-11
1.22791e-13
-1.13442e-10
1.9513e-11
-1.13532e-10
1.60784e-11
-6.29011e-15
-9.2987e-12
2.08944e-08
-9.14783e-07
3.62977e-11
1.73389e-08
-9.39164e-07
3.4605e-11
1.49015e-08
-9.40714e-07
3.55926e-11
1.29435e-08
-9.42002e-07
3.54589e-11
1.13464e-08
-9.43092e-07
3.49081e-11
1.00268e-08
-9.44027e-07
3.41444e-11
8.92398e-09
-9.44836e-07
3.33493e-11
7.99303e-09
-9.45544e-07
3.21407e-11
7.2001e-09
-9.4617e-07
6.52945e-09
-7.23857e-15
-9.50616e-07
3.45156e-13
9.5332e-14
8.85917e-14
-2.16762e-14
8.94897e-14
8.65636e-14
-2.63865e-14
7.87443e-14
8.47617e-14
-2.60659e-14
6.83523e-14
8.22828e-14
-2.57904e-14
5.83233e-14
8.0106e-14
-2.55541e-14
4.86374e-14
7.8184e-14
-2.5342e-14
3.92889e-14
7.61068e-14
-2.51379e-14
3.026e-14
7.44964e-14
-2.74265e-14
2.15335e-14
7.29203e-14
1.31445e-14
7.13301e-14
-1.55605e-15
2.82493e-13
9.15196e-14
1.25594e-13
-7.7381e-14
8.27701e-14
1.18564e-13
-9.07384e-14
7.00513e-14
1.12895e-13
-8.79951e-14
5.79815e-14
1.05656e-13
-8.54917e-14
4.65096e-14
9.90292e-14
-8.30322e-14
3.51123e-14
9.29334e-14
-8.07361e-14
2.27182e-14
8.74683e-14
-7.86472e-14
1.47041e-14
8.25594e-14
-8.39085e-14
8.0917e-15
7.81585e-14
2.65955e-15
7.35297e-14
-4.37237e-15
1.87853e-13
1.15909e-13
1.7885e-13
-1.96025e-13
1.02508e-13
1.63226e-13
-1.73861e-13
8.53877e-14
1.50978e-13
-1.65168e-13
6.98618e-14
1.36059e-13
-1.57164e-13
5.58662e-14
1.23075e-13
-1.49626e-13
4.32595e-14
1.11661e-13
-1.42581e-13
3.19086e-14
1.016e-13
-1.36199e-13
2.17086e-14
9.26238e-14
-1.42711e-13
1.25466e-14
8.46777e-14
4.35102e-15
7.66746e-14
-7.26003e-15
5.98498e-14
1.43615e-13
2.62142e-13
-3.37314e-13
1.23339e-13
2.31244e-13
-2.815e-13
1.00229e-13
2.06043e-13
-2.61341e-13
8.00676e-14
1.78774e-13
-2.43227e-13
6.2559e-14
1.55716e-13
-2.26739e-13
4.73736e-14
1.3616e-13
-2.11608e-13
3.42115e-14
1.19586e-13
-1.98157e-13
2.28073e-14
1.05507e-13
-2.0371e-13
1.29232e-14
9.31257e-14
4.4073e-15
8.07508e-14
-1.02377e-14
-7.86164e-14
1.80245e-13
3.95086e-13
-5.19047e-13
1.49959e-13
3.35628e-13
-4.20942e-13
1.18577e-13
2.86495e-13
-3.81284e-13
9.22811e-14
2.38284e-13
-3.46559e-13
7.0335e-14
1.9961e-13
-3.15865e-13
5.2017e-14
1.67991e-13
-2.88544e-13
3.67301e-14
1.42309e-13
-2.64785e-13
2.39676e-14
1.21111e-13
-2.67002e-13
1.33187e-14
1.03564e-13
4.45559e-15
8.58143e-14
-1.33058e-14
-3.16338e-13
2.29475e-13
6.12589e-13
-7.59426e-13
1.84407e-13
4.97283e-13
-6.0206e-13
1.41472e-13
4.04498e-13
-5.30935e-13
1.07008e-13
3.21551e-13
-4.70618e-13
7.93989e-14
2.58318e-13
-4.18865e-13
5.72594e-14
2.09207e-13
-3.74254e-13
3.94922e-14
1.70876e-13
-3.36237e-13
2.52092e-14
1.40574e-13
-3.32741e-13
1.37322e-14
1.16311e-13
4.50543e-15
9.21517e-14
-1.64283e-14
-7.49883e-13
2.9648e-13
9.75798e-13
-1.08271e-12
2.29455e-13
7.54072e-13
-8.3789e-13
1.70258e-13
5.79758e-13
-7.17906e-13
1.24825e-13
4.39023e-13
-6.1953e-13
8.99811e-14
3.37423e-13
-5.37802e-13
6.31835e-14
2.62383e-13
-4.69584e-13
4.25082e-14
2.06379e-13
-4.12796e-13
2.65315e-14
1.64214e-13
-4.01009e-13
1.41444e-14
1.31337e-13
4.57613e-15
9.97482e-14
-1.96069e-14
-1.34849e-12
3.03809e-13
1.60396e-12
-1.52297e-12
2.51596e-13
1.16794e-12
-1.14582e-12
1.77461e-13
8.43508e-13
-9.51646e-13
1.24653e-13
6.06085e-13
-7.98145e-13
8.65854e-14
4.44252e-13
-6.75064e-13
5.88474e-14
3.31048e-13
-5.75383e-13
3.84586e-14
2.50734e-13
-4.94881e-13
2.3366e-14
1.92352e-13
-4.71767e-13
1.21344e-14
1.49293e-13
3.78541e-15
1.08457e-13
-2.28719e-14
-2.25034e-12
5.10524e-12
2.80609e-12
-2.12611e-12
2.34455e-12
1.78952e-12
-1.54493e-12
1.80966e-12
1.20294e-12
-1.2419e-12
1.36572e-12
8.14301e-13
-1.01132e-12
9.88229e-13
5.67374e-13
-8.32883e-13
6.62434e-13
4.05114e-13
-6.93021e-13
3.77755e-13
2.96037e-13
-5.83221e-13
1.26412e-13
2.21136e-13
-5.46479e-13
-9.74455e-14
1.68181e-13
-2.94462e-13
1.18746e-13
-2.62095e-14
-9.85612e-11
6.9502e-10
2.09278e-08
-5.72696e-11
1.19931e-10
-3.33277e-10
-5.36148e-11
8.67959e-11
-3.21805e-10
-5.0018e-11
6.50401e-11
-3.07431e-10
-4.68979e-11
4.97954e-11
-2.94081e-10
-4.41602e-11
3.88743e-11
-2.81941e-10
-4.17348e-11
3.08994e-11
-2.71016e-10
-3.95691e-11
2.49798e-11
-2.61254e-10
-3.76108e-11
2.05213e-11
-2.52634e-10
1.69416e-11
-2.96896e-14
-2.14846e-10
3.49584e-13
8.13349e-14
9.94291e-15
-1.85022e-14
7.72539e-14
8.6115e-15
-2.01595e-14
6.8183e-14
7.51413e-15
-1.93277e-14
5.94006e-14
5.75069e-15
-1.87168e-14
5.09087e-14
4.27602e-15
-1.88602e-14
4.26927e-14
2.90883e-15
-1.80635e-14
3.47672e-14
2.06044e-15
-1.84588e-14
2.7098e-14
1.32679e-15
-2.32988e-14
1.96836e-14
7.3988e-16
1.2552e-14
5.28506e-16
-1.48492e-15
2.98629e-13
5.81973e-14
1.65793e-14
-6.60716e-14
5.35041e-14
1.45195e-14
-6.67679e-14
4.53144e-14
1.44244e-14
-6.34927e-14
3.75902e-14
1.12052e-14
-6.14016e-14
3.03808e-14
8.6304e-15
-5.89063e-14
2.36885e-14
6.67488e-15
-5.70839e-14
1.75115e-14
4.95615e-15
-5.69826e-14
1.18652e-14
3.70928e-15
-7.11818e-14
6.77709e-15
2.99651e-15
2.35778e-15
1.95596e-15
-4.39622e-15
2.21159e-13
7.41785e-14
2.38073e-14
-1.65579e-13
6.69588e-14
2.21739e-14
-1.23651e-13
5.62173e-14
2.32041e-14
-1.15748e-13
4.6416e-14
1.88785e-14
-1.0987e-13
3.74944e-14
1.52851e-14
-1.04144e-13
2.93598e-14
1.23017e-14
-9.9109e-14
2.19103e-14
1.01065e-14
-9.65577e-14
1.51261e-14
8.46002e-15
-1.20996e-13
8.85674e-15
7.17693e-15
3.13697e-15
5.0133e-15
-7.30622e-15
9.92451e-14
9.20669e-14
3.90799e-14
-2.88538e-13
8.0568e-14
3.88373e-14
-1.95388e-13
6.59977e-14
4.0169e-14
-1.80106e-13
5.32086e-14
3.26896e-14
-1.67409e-13
4.20234e-14
2.69454e-14
-1.55863e-13
3.21957e-14
2.24047e-14
-1.45066e-13
2.35593e-14
1.89689e-14
-1.38219e-13
1.59085e-14
1.62042e-14
-1.72696e-13
9.18074e-15
1.42053e-14
3.21295e-15
9.6854e-15
-1.03296e-14
-1.69831e-14
1.15842e-13
6.78368e-14
-4.44241e-13
9.79601e-14
6.96709e-14
-2.87236e-13
7.80778e-14
6.30611e-14
-2.58989e-13
6.13364e-14
5.37218e-14
-2.35453e-13
4.72716e-14
4.16074e-14
-2.14385e-13
3.54149e-14
3.83499e-14
-1.9574e-13
2.53717e-14
3.06293e-14
-1.81651e-13
1.68321e-14
2.46727e-14
-2.26348e-13
9.57467e-15
2.40783e-14
3.30949e-15
1.61562e-14
-1.33821e-14
-1.51394e-13
1.47987e-13
1.19988e-13
-6.47835e-13
1.20595e-13
1.16491e-13
-4.05068e-13
9.31768e-14
1.03979e-13
-3.56216e-13
7.11547e-14
8.34663e-14
-3.15916e-13
5.34142e-14
6.72198e-14
-2.81147e-13
3.90313e-14
5.52793e-14
-2.51249e-13
2.73255e-14
4.56641e-14
-2.2759e-13
1.77815e-14
3.82429e-14
-2.82056e-13
9.92918e-15
3.23383e-14
3.3936e-15
2.2837e-14
-1.65354e-14
-5.58186e-13
1.92428e-13
2.1337e-13
-9.18879e-13
1.50345e-13
1.97903e-13
-5.56964e-13
1.12245e-13
1.6635e-13
-4.76534e-13
8.30885e-14
1.29227e-13
-4.11596e-13
6.06225e-14
1.01693e-13
-3.57446e-13
4.31794e-14
8.11149e-14
-3.12213e-13
2.95471e-14
6.55854e-14
-2.76367e-13
1.87823e-14
5.37189e-14
-3.39842e-13
1.0334e-14
4.44946e-14
3.49122e-15
2.96644e-14
-1.97693e-14
-1.0805e-12
2.98825e-13
3.58522e-13
-1.28303e-12
1.91615e-13
3.34129e-13
-7.54569e-13
1.39235e-13
2.6535e-13
-6.26222e-13
1.00495e-13
1.98559e-13
-5.25649e-13
7.25633e-14
1.5139e-13
-4.44832e-13
5.30199e-14
1.17378e-13
-3.79553e-13
3.63469e-14
9.24054e-14
-3.28066e-13
2.28125e-14
7.39617e-14
-3.99781e-13
1.24019e-14
6.00058e-14
4.42861e-15
3.86011e-14
-2.30775e-14
-1.86721e-12
2.62717e-12
8.28871e-13
-1.77322e-12
2.9053e-13
5.66448e-13
-1.01398e-12
2.20068e-13
4.21586e-13
-8.1343e-13
1.48696e-13
3.02786e-13
-6.62136e-13
9.96697e-14
2.22546e-13
-5.45239e-13
6.54765e-14
1.67134e-13
-4.53716e-13
4.12995e-14
1.27984e-13
-3.83122e-13
2.40471e-14
9.97475e-14
-4.61966e-13
1.16785e-14
7.90085e-14
2.79446e-15
4.96894e-14
-2.64569e-14
-3.81729e-11
6.7227e-10
2.10256e-08
-2.74346e-12
3.5687e-12
8.23247e-12
-2.17106e-12
1.02623e-12
4.23547e-12
-1.78379e-12
6.92612e-13
4.08208e-12
-1.45186e-12
4.83838e-13
3.78884e-12
-1.18925e-12
3.48328e-13
3.33501e-12
-9.82253e-13
2.59085e-13
2.10799e-12
-8.20083e-13
1.97626e-13
1.81611e-12
-7.56355e-13
1.52461e-13
1.73733e-12
9.64933e-14
-3.00016e-14
1.8049e-12
3.4948e-13
8.12551e-14
1.21946e-14
-1.86694e-14
7.71838e-14
1.11727e-14
-2.02118e-14
6.81246e-14
9.70389e-15
-1.92732e-14
5.93473e-14
8.22642e-15
-1.8927e-14
5.08648e-14
4.95933e-15
-1.86317e-14
4.26681e-14
4.05569e-15
-1.79977e-14
3.47478e-14
2.10629e-15
-1.85204e-14
2.70897e-14
1.03822e-15
-2.32507e-14
1.96945e-14
5.18501e-16
1.25721e-14
1.27988e-16
-1.54802e-15
2.98603e-13
5.81009e-14
2.12039e-14
-6.61631e-14
5.3425e-14
1.86739e-14
-6.66144e-14
4.52458e-14
1.86073e-14
-6.3124e-14
3.75501e-14
1.42572e-14
-6.07991e-14
3.03584e-14
1.08434e-14
-5.87095e-14
2.36737e-14
7.88094e-15
-5.677e-14
1.7515e-14
6.06584e-15
-5.64436e-14
1.18823e-14
5.0017e-15
-7.10859e-14
6.79827e-15
3.25182e-15
2.38718e-15
2.06017e-15
-4.38777e-15
2.21265e-13
7.4028e-14
3.04063e-14
-1.65652e-13
6.68366e-14
2.93389e-14
-1.22676e-13
5.61197e-14
3.10316e-14
-1.15123e-13
4.63054e-14
2.34812e-14
-1.09395e-13
3.73969e-14
1.89912e-14
-1.0357e-13
2.9287e-14
1.56615e-14
-9.85476e-14
2.1864e-14
1.21463e-14
-9.60935e-14
1.50809e-14
1.12897e-14
-1.20801e-13
8.87839e-15
9.00337e-15
3.16729e-15
6.92015e-15
-7.29733e-15
9.94793e-14
9.19155e-14
4.96502e-14
-2.88491e-13
8.0451e-14
4.92135e-14
-1.94606e-13
6.58931e-14
5.1997e-14
-1.79232e-13
5.31367e-14
4.27179e-14
-1.66714e-13
4.19661e-14
3.49852e-14
-1.55107e-13
3.21626e-14
3.07072e-14
-1.44518e-13
2.35268e-14
2.43554e-14
-1.37384e-13
1.59216e-14
2.08528e-14
-1.72503e-13
9.2149e-15
1.76804e-14
3.27619e-15
1.19949e-14
-1.03426e-14
-1.65984e-14
1.15694e-13
8.66502e-14
-4.44148e-13
9.78687e-14
9.00516e-14
-2.86127e-13
7.80078e-14
8.90046e-14
-2.58088e-13
6.1293e-14
7.23921e-14
-2.34568e-13
4.72501e-14
5.95215e-14
-2.13716e-13
3.54013e-14
4.90778e-14
-1.94992e-13
2.53804e-14
4.2867e-14
-1.80913e-13
1.68648e-14
3.63312e-14
-2.26203e-13
9.61241e-15
3.11588e-14
3.42561e-15
2.19328e-14
-1.33819e-14
-1.50909e-13
1.4785e-13
1.52495e-13
-6.47737e-13
1.2054e-13
1.58946e-13
-4.03789e-13
9.31517e-14
1.49883e-13
-3.55257e-13
7.11568e-14
1.20089e-13
-3.15075e-13
5.34295e-14
9.72597e-14
-2.80448e-13
3.90617e-14
8.07681e-14
-2.50531e-13
2.7378e-14
6.77478e-14
-2.27028e-13
1.78207e-14
5.60477e-14
-2.81992e-13
9.98689e-15
4.80452e-14
3.47884e-15
3.14783e-14
-1.65957e-14
-5.57288e-13
1.92329e-13
2.71325e-13
-9.18828e-13
1.50359e-13
2.82659e-13
-5.55703e-13
1.12307e-13
2.4636e-13
-4.75643e-13
8.31543e-14
1.94198e-13
-4.10856e-13
6.07006e-14
1.53777e-13
-3.56825e-13
4.32622e-14
1.25183e-13
-3.11735e-13
2.9612e-14
1.01732e-13
-2.75902e-13
1.88776e-14
8.49142e-14
-3.40016e-13
1.04686e-14
7.18333e-14
3.59958e-15
4.65503e-14
-1.98062e-14
-1.07975e-12
2.99347e-13
4.83994e-13
-1.28304e-12
1.90072e-13
4.89781e-13
-7.5362e-13
1.37626e-13
4.00917e-13
-6.25529e-13
9.89058e-14
3.06204e-13
-5.25168e-13
7.07108e-14
2.36917e-13
-4.44553e-13
5.06248e-14
1.86259e-13
-3.79316e-13
3.56409e-14
1.48122e-13
-3.27821e-13
2.2486e-14
1.20359e-13
-4.0035e-13
1.22812e-14
9.74243e-14
4.49264e-15
6.40738e-14
-2.30957e-14
-1.86726e-12
2.5897e-12
1.20369e-12
-1.77345e-12
2.85015e-13
8.47696e-13
-1.01357e-12
2.4335e-13
6.51417e-13
-8.13412e-13
1.61385e-13
4.74951e-13
-6.62277e-13
1.0501e-13
3.54074e-13
-5.45462e-13
6.46096e-14
2.70101e-13
-4.54022e-13
3.01634e-14
2.08532e-13
-3.83364e-13
1.64856e-14
1.64032e-13
-4.62927e-13
8.34545e-15
1.306e-13
2.91221e-15
8.08029e-14
-2.65332e-14
-3.78431e-11
1.03104e-09
2.13993e-08
-2.11599e-12
3.79662e-12
4.339e-12
-1.35395e-12
9.0843e-13
2.08581e-13
-1.05121e-12
6.34731e-13
1.52562e-13
-8.27837e-13
4.56125e-13
1.1205e-13
-6.62219e-13
3.35277e-13
7.35253e-14
-5.37118e-13
2.5126e-13
5.18332e-14
-4.4276e-13
1.91671e-13
3.98439e-14
-5.27897e-13
1.48874e-13
3.16484e-14
9.01926e-14
-3.00664e-14
2.59342e-14
3.49285e-13
8.13851e-14
1.74834e-14
-1.89487e-14
7.72921e-14
1.45615e-14
-2.03242e-14
6.82153e-14
1.25093e-14
-1.9675e-14
5.94182e-14
8.7308e-15
-1.88644e-14
5.09247e-14
7.52156e-15
-1.88283e-14
4.27185e-14
4.74791e-15
-1.81915e-14
3.47954e-14
3.77891e-15
-1.85252e-14
2.71379e-14
2.42642e-15
-2.3282e-14
1.97359e-14
1.19115e-15
1.26119e-14
3.17412e-16
-1.56906e-15
2.98268e-13
5.82445e-14
2.83755e-14
-6.65071e-14
5.35564e-14
2.45323e-14
-6.69351e-14
4.53558e-14
2.38663e-14
-6.34055e-14
3.76393e-14
1.88993e-14
-6.09138e-14
3.04402e-14
1.33724e-14
-5.88702e-14
2.37465e-14
1.10226e-14
-5.67562e-14
1.7576e-14
8.16379e-15
-5.67183e-14
1.194e-14
6.47097e-15
-7.11375e-14
6.85178e-15
4.83293e-15
2.43493e-15
2.54134e-15
-4.38733e-15
2.20735e-13
7.42616e-14
4.0046e-14
-1.66373e-13
6.70365e-14
3.72979e-14
-1.23225e-13
5.62919e-14
3.89806e-14
-1.15366e-13
4.64635e-14
3.19693e-14
-1.09559e-13
3.75298e-14
2.47797e-14
-1.0394e-13
2.94121e-14
2.00856e-14
-9.84988e-14
2.19794e-14
1.79239e-14
-9.64332e-14
1.51605e-14
1.30689e-14
-1.20873e-13
8.94575e-15
1.28387e-14
3.21091e-15
7.54797e-15
-7.36542e-15
9.88818e-14
9.22996e-14
6.63809e-14
-2.89492e-13
8.07943e-14
6.718e-14
-1.95214e-13
6.61722e-14
6.63758e-14
-1.79739e-13
5.33687e-14
5.49097e-14
-1.67017e-13
4.21646e-14
4.55355e-14
-1.55492e-13
3.23138e-14
3.63765e-14
-1.44771e-13
2.36804e-14
3.23076e-14
-1.37626e-13
1.60767e-14
2.74653e-14
-1.72712e-13
9.37062e-15
2.51058e-14
3.44618e-15
1.77302e-14
-1.03069e-14
-1.76572e-14
1.16305e-13
1.1299e-13
-4.4576e-13
9.83799e-14
1.16781e-13
-2.87075e-13
7.84371e-14
1.1383e-13
-2.5886e-13
6.16459e-14
9.45751e-14
-2.3528e-13
4.75442e-14
7.87832e-14
-2.14152e-13
3.56696e-14
6.55974e-14
-1.95469e-13
2.5591e-14
5.45998e-14
-1.81289e-13
1.70287e-14
4.65336e-14
-2.26607e-13
9.73601e-15
4.15583e-14
3.5216e-15
2.67534e-14
-1.3401e-14
-1.52622e-13
1.48811e-13
2.02851e-13
-6.50363e-13
1.21346e-13
2.09649e-13
-4.0542e-13
9.37861e-14
1.93374e-13
-3.56585e-13
7.16745e-14
1.55926e-13
-3.16098e-13
5.38517e-14
1.27905e-13
-2.8138e-13
3.94064e-14
1.06272e-13
-2.51301e-13
2.76656e-14
8.65318e-14
-2.2766e-13
1.80827e-14
7.46689e-14
-2.82725e-13
1.02475e-14
6.25733e-14
3.69029e-15
4.26454e-14
-1.65744e-14
-5.62114e-13
1.93843e-13
3.58759e-13
-9.23311e-13
1.51555e-13
3.66898e-13
-5.58332e-13
1.13233e-13
3.2305e-13
-4.77852e-13
8.38841e-14
2.51325e-13
-4.12593e-13
6.1285e-14
2.02843e-13
-3.58353e-13
4.37241e-14
1.60944e-13
-3.12931e-13
2.99916e-14
1.31318e-13
-2.76913e-13
1.91863e-14
1.07848e-13
-3.41244e-13
1.06798e-14
9.014e-14
3.84561e-15
5.94563e-14
-1.98272e-14
-1.08882e-12
3.02182e-13
6.38104e-13
-1.29051e-12
1.91861e-13
6.41853e-13
-7.58008e-13
1.38964e-13
5.26261e-13
-6.29079e-13
9.99038e-14
3.99023e-13
-5.28035e-13
7.14557e-14
3.07468e-13
-4.46907e-13
5.11361e-14
2.39979e-13
-3.81203e-13
3.61402e-14
1.91828e-13
-3.29492e-13
2.29125e-14
1.53951e-13
-4.02182e-13
1.26372e-14
1.26153e-13
4.77875e-15
8.0586e-14
-2.31716e-14
-1.88414e-12
2.59151e-12
1.57468e-12
-1.78578e-12
2.88001e-13
1.11359e-12
-1.02086e-12
2.45328e-13
8.50254e-13
-8.19072e-13
1.62692e-13
6.20636e-13
-6.66716e-13
1.05798e-13
4.62716e-13
-5.49076e-13
6.48029e-14
3.49757e-13
-4.56907e-13
3.04557e-14
2.69991e-13
-3.8577e-13
1.68748e-14
2.13014e-13
-4.6568e-13
8.67775e-15
1.69135e-13
3.22479e-15
1.06173e-13
-2.65987e-14
-3.7859e-11
1.29895e-09
2.14306e-08
-2.13131e-12
5.32085e-12
4.30895e-12
-1.36332e-12
1.35371e-12
1.14155e-13
-1.05842e-12
9.42563e-13
8.28399e-14
-8.33461e-13
6.75134e-13
6.29904e-14
-6.66635e-13
4.94664e-13
4.8946e-14
-5.40631e-13
3.708e-13
3.87132e-14
-4.45623e-13
2.82746e-13
3.11028e-14
-5.31322e-13
2.17228e-13
2.53488e-14
1.3388e-13
-3.01738e-14
2.09924e-14
3.48969e-13
8.15471e-14
1.99547e-14
-1.92911e-14
7.74331e-14
1.66975e-14
-2.07324e-14
6.83284e-14
1.5833e-14
-1.96865e-14
5.95169e-14
1.23336e-14
-1.92714e-14
5.09993e-14
7.95097e-15
-1.88494e-14
4.2786e-14
5.62381e-15
-1.82774e-14
3.48523e-14
3.04772e-15
-1.87098e-14
2.71919e-14
1.86102e-15
-2.33371e-14
1.97883e-14
9.53978e-16
1.26616e-14
6.90996e-16
-1.55063e-15
2.97816e-13
5.84285e-14
3.40837e-14
-6.69613e-14
5.37192e-14
3.07535e-14
-6.71388e-14
4.54972e-14
2.90333e-14
-6.39829e-14
3.77569e-14
2.31129e-14
-6.09125e-14
3.05445e-14
1.90065e-14
-5.91541e-14
2.38384e-14
1.27442e-14
-5.67885e-14
1.7661e-14
9.08312e-15
-5.68525e-14
1.20121e-14
6.55234e-15
-7.12232e-14
6.9218e-15
5.76443e-15
2.49391e-15
4.29503e-15
-4.40208e-15
2.20018e-13
7.45705e-14
4.8027e-14
-1.67298e-13
6.73114e-14
4.51683e-14
-1.23674e-13
5.65116e-14
4.74795e-14
-1.1587e-13
4.66536e-14
3.79444e-14
-1.0982e-13
3.76994e-14
3.10501e-14
-1.04086e-13
2.95429e-14
2.50703e-14
-9.89017e-14
2.21081e-14
1.90573e-14
-9.61817e-14
1.53061e-14
1.82518e-14
-1.21046e-13
9.05666e-15
1.3812e-14
3.36876e-15
1.01679e-14
-7.35544e-15
9.81038e-14
9.27852e-14
7.95805e-14
-2.90837e-13
8.12176e-14
7.89071e-14
-1.95867e-13
6.65314e-14
8.25117e-14
-1.80321e-13
5.36751e-14
6.72869e-14
-1.67665e-13
4.24276e-14
5.51499e-14
-1.55728e-13
3.25554e-14
4.60899e-14
-1.45155e-13
2.38763e-14
3.90017e-14
-1.37843e-13
1.62372e-14
3.37333e-14
-1.72979e-13
9.52995e-15
2.85195e-14
3.53601e-15
1.85261e-14
-1.03435e-14
-1.90507e-14
1.17102e-13
1.38888e-13
-4.47837e-13
9.90565e-14
1.43784e-13
-2.88233e-13
7.89883e-14
1.42699e-13
-2.59857e-13
6.20991e-14
1.14599e-13
-2.36126e-13
4.79175e-14
9.38494e-14
-2.14853e-13
3.59926e-14
7.88427e-14
-1.96049e-13
2.58627e-14
6.58101e-14
-1.81669e-13
1.72828e-14
5.70473e-14
-2.27166e-13
9.9399e-15
4.87074e-14
3.75202e-15
3.33468e-14
-1.34205e-14
-1.54868e-13
1.50053e-13
2.42414e-13
-6.53789e-13
1.22366e-13
2.56815e-13
-4.0747e-13
9.46119e-14
2.36641e-13
-3.58265e-13
7.23337e-14
1.89607e-13
-3.17447e-13
5.4406e-14
1.53653e-13
-2.82619e-13
3.98451e-14
1.24411e-13
-2.52201e-13
2.80382e-14
1.05781e-13
-2.28525e-13
1.8377e-14
8.9306e-14
-2.83664e-13
1.05106e-14
7.78006e-14
3.90069e-15
5.06542e-14
-1.66022e-14
-5.68489e-13
1.95797e-13
4.33564e-13
-9.29e-13
1.53111e-13
4.50332e-13
-5.61882e-13
1.1443e-13
3.8806e-13
-4.80541e-13
8.48342e-14
3.05417e-13
-4.14974e-13
6.20205e-14
2.40825e-13
-3.60238e-13
4.43256e-14
1.9504e-13
-3.14528e-13
3.04854e-14
1.59779e-13
-2.7823e-13
1.95892e-14
1.34661e-13
-3.42787e-13
1.10103e-14
1.12103e-13
4.14336e-15
7.15028e-14
-1.98626e-14
-1.1006e-12
3.05861e-13
7.76364e-13
-1.30013e-12
1.94209e-13
7.79916e-13
-7.63731e-13
1.4071e-13
6.34435e-13
-6.33668e-13
1.01219e-13
4.81787e-13
-5.3173e-13
7.24673e-14
3.71309e-13
-4.499e-13
5.18372e-14
2.91526e-13
-3.83702e-13
3.67856e-14
2.31065e-13
-3.31565e-13
2.34812e-14
1.86979e-13
-4.04561e-13
1.31037e-14
1.54364e-13
5.16133e-15
9.81253e-14
-2.32115e-14
-1.90614e-12
2.60468e-12
1.90774e-12
-1.80175e-12
2.92146e-13
1.34822e-12
-1.03027e-12
2.49224e-13
1.02979e-12
-8.26366e-13
1.65514e-13
7.49788e-13
-6.72513e-13
1.07904e-13
5.55844e-13
-5.53711e-13
6.65626e-14
4.22143e-13
-4.60609e-13
3.13851e-14
3.25293e-13
-3.88875e-13
1.74252e-14
2.55569e-13
-4.69206e-13
9.04266e-15
2.05007e-13
3.61782e-15
1.28945e-13
-2.66824e-14
-3.79647e-11
1.56577e-09
2.14716e-08
-2.15508e-12
6.44806e-12
4.29894e-12
-1.3785e-12
1.64622e-12
1.13706e-13
-1.06986e-12
1.14518e-12
8.29717e-14
-8.4225e-13
8.18778e-13
6.33086e-14
-6.73488e-13
6.0052e-13
4.93414e-14
-5.46065e-13
4.4798e-13
3.91464e-14
-4.50072e-13
3.40462e-13
3.15643e-14
-5.36275e-13
2.67934e-13
2.58475e-14
1.63202e-13
-3.03078e-14
2.15395e-14
3.4858e-13
8.17474e-14
2.45352e-14
-1.96877e-14
7.76098e-14
2.36778e-14
-2.11011e-14
6.84669e-14
2.02631e-14
-2.00589e-14
5.96304e-14
1.53494e-14
-1.9445e-14
5.11023e-14
1.08836e-14
-1.92092e-14
4.28687e-14
6.0057e-15
-1.82236e-14
3.49283e-14
3.80956e-15
-1.8847e-14
2.72579e-14
1.93423e-15
-2.33875e-14
1.9853e-14
1.53836e-15
1.27271e-14
6.33218e-16
-1.56429e-15
2.9727e-13
5.86524e-14
4.23925e-14
-6.75146e-14
5.39153e-14
3.95944e-14
-6.75516e-14
4.56657e-14
3.84356e-14
-6.39824e-14
3.79003e-14
2.95282e-14
-6.16262e-14
3.06647e-14
2.15731e-14
-5.92216e-14
2.39534e-14
1.44595e-14
-5.70301e-14
1.776e-14
1.03482e-14
-5.68865e-14
1.21097e-14
7.12288e-15
-7.12834e-14
7.00452e-15
5.18359e-15
2.56409e-15
4.31195e-15
-4.40837e-15
2.19135e-13
7.49431e-14
6.17029e-14
-1.68428e-13
6.76366e-14
6.11962e-14
-1.24279e-13
5.67863e-14
6.19122e-14
-1.1632e-13
4.68915e-14
4.95251e-14
-1.10158e-13
3.79048e-14
3.943e-14
-1.04635e-13
2.97136e-14
3.02231e-14
-9.87944e-14
2.22846e-14
2.23584e-14
-9.66857e-14
1.54397e-14
1.73032e-14
-1.212e-13
9.20536e-15
1.41933e-14
3.47566e-15
9.61184e-15
-7.37583e-15
9.71321e-14
9.33939e-14
9.95838e-14
-2.92423e-13
8.17463e-14
1.05578e-13
-1.96775e-13
6.69764e-14
1.0612e-13
-1.81088e-13
5.40423e-14
8.59678e-14
-1.68272e-13
4.27419e-14
6.97663e-14
-1.56236e-13
3.28437e-14
5.78017e-14
-1.45471e-13
2.4108e-14
4.34679e-14
-1.38175e-13
1.6449e-14
3.57237e-14
-1.73351e-13
9.70134e-15
2.9669e-14
3.7635e-15
1.88184e-14
-1.03264e-14
-2.07829e-14
1.1806e-13
1.74273e-13
-4.5034e-13
9.98783e-14
1.87616e-13
-2.89806e-13
7.96559e-14
1.80402e-13
-2.61081e-13
6.26576e-14
1.46265e-13
-2.37066e-13
4.83901e-14
1.19731e-13
-2.15764e-13
3.63636e-14
9.85589e-14
-1.9669e-13
2.62067e-14
8.06821e-14
-1.82309e-13
1.75667e-14
6.3614e-14
-2.27802e-13
1.02346e-14
5.26413e-14
3.97211e-15
3.30314e-14
-1.34502e-14
-1.57605e-13
1.51581e-13
3.1222e-13
-6.5797e-13
1.23619e-13
3.32113e-13
-4.09967e-13
9.56123e-14
3.03652e-13
-3.60289e-13
7.31459e-14
2.43347e-13
-3.19253e-13
5.50605e-14
1.96955e-13
-2.83911e-13
4.041e-14
1.60991e-13
-2.53481e-13
2.84961e-14
1.3083e-13
-2.2939e-13
1.87833e-14
1.01228e-13
-2.84844e-13
1.08147e-14
8.38752e-14
4.17591e-15
5.23503e-14
-1.66217e-14
-5.76265e-13
1.982e-13
5.5458e-13
-9.3603e-13
1.55012e-13
5.84997e-13
-5.66045e-13
1.15903e-13
5.05988e-13
-4.84018e-13
8.59856e-14
3.94449e-13
-4.17744e-13
6.29424e-14
3.11692e-13
-3.62562e-13
4.50603e-14
2.48348e-13
-3.16463e-13
3.10771e-14
1.99113e-13
-2.79851e-13
2.00586e-14
1.52388e-13
-3.44702e-13
1.14125e-14
1.23655e-13
4.50141e-15
7.74691e-14
-1.98979e-14
-1.1151e-12
3.10378e-13
9.89726e-13
-1.31191e-12
1.97078e-13
1.02547e-12
-7.70742e-13
1.42853e-13
8.30667e-13
-6.39274e-13
1.02838e-13
6.2477e-13
-5.36226e-13
7.36836e-14
4.78216e-13
-4.53597e-13
5.268e-14
3.70936e-13
-3.86752e-13
3.75732e-14
2.91286e-13
-3.34067e-13
2.41721e-14
2.27239e-13
-4.07487e-13
1.36639e-14
1.73562e-13
5.6296e-15
1.0757e-13
-2.32984e-14
-1.9332e-12
2.62626e-12
2.40112e-12
-1.82128e-12
2.97276e-13
1.78639e-12
-1.04182e-12
2.54029e-13
1.35169e-12
-8.35367e-13
1.68989e-13
9.76385e-13
-6.79571e-13
1.10501e-13
7.20989e-13
-5.59364e-13
6.86992e-14
5.40382e-13
-4.65176e-13
3.25599e-14
4.12974e-13
-3.92647e-13
1.81069e-14
3.16569e-13
-4.73499e-13
9.49745e-15
2.36168e-13
4.0983e-15
1.43747e-13
-2.68028e-14
-3.82021e-11
2.02378e-09
2.15813e-08
-2.18464e-12
8.16999e-12
4.3659e-12
-1.39716e-12
2.17221e-12
1.13702e-13
-1.08394e-12
1.49915e-12
8.33926e-14
-8.53033e-13
1.06391e-12
6.38272e-14
-6.81926e-13
7.70963e-13
4.98963e-14
-5.52778e-13
5.70685e-13
3.97199e-14
-4.55402e-13
4.2888e-13
3.21574e-14
-5.42398e-13
3.12485e-13
2.64644e-14
1.85752e-13
-3.04164e-14
2.22389e-14
3.4813e-13
8.19803e-14
3.7567e-14
-2.01862e-14
7.7798e-14
2.23368e-14
-2.15083e-14
6.86264e-14
1.97424e-14
-2.02876e-14
5.97612e-14
1.4964e-14
-2.00173e-14
5.12118e-14
1.44722e-14
-1.8991e-14
4.29685e-14
8.64841e-15
-1.88171e-14
3.50177e-14
6.6829e-15
-1.86996e-14
2.73467e-14
6.87613e-15
-2.35388e-14
1.99338e-14
1.57241e-14
1.2813e-14
4.95062e-14
-1.53501e-15
2.96596e-13
5.89214e-14
6.03723e-14
-6.81277e-14
5.41473e-14
3.78279e-14
-6.81579e-14
4.58547e-14
3.76646e-14
-6.43523e-14
3.80678e-14
2.95084e-14
-6.20417e-14
3.08129e-14
2.62271e-14
-5.93128e-14
2.40855e-14
1.82914e-14
-5.72469e-14
1.78804e-14
1.46681e-14
-5.71871e-14
1.22175e-14
1.32097e-14
-7.14825e-14
7.11139e-15
1.71041e-14
2.65387e-15
3.74602e-14
-4.36933e-15
2.18084e-13
7.53722e-14
8.69759e-14
-1.69749e-13
6.80035e-14
5.84961e-14
-1.24858e-13
5.71044e-14
6.15944e-14
-1.16893e-13
4.71586e-14
4.99023e-14
-1.1064e-13
3.81341e-14
4.04897e-14
-1.04912e-13
2.9934e-14
2.69685e-14
-9.92357e-14
2.24544e-14
2.88377e-14
-9.65281e-14
1.56224e-14
2.56646e-14
-1.21545e-13
9.34724e-15
2.61314e-14
3.64757e-15
3.50718e-14
-7.3253e-15
9.5996e-14
9.41075e-14
1.46079e-13
-2.94246e-13
8.2348e-14
1.03612e-13
-1.97821e-13
6.74762e-14
1.06984e-13
-1.81996e-13
5.44671e-14
8.80542e-14
-1.68803e-13
4.31132e-14
7.31743e-14
-1.57027e-13
3.31504e-14
8.21585e-14
-1.45837e-13
2.44099e-14
5.32362e-14
-1.3857e-13
1.67127e-14
4.70403e-14
-1.73856e-13
9.93169e-15
4.41165e-14
3.9794e-15
4.22283e-14
-1.03435e-14
-2.28266e-14
1.19201e-13
2.56765e-13
-4.53206e-13
1.00814e-13
1.87961e-13
-2.91513e-13
8.04282e-14
1.84769e-13
-2.62452e-13
6.33093e-14
1.51646e-13
-2.3824e-13
4.89391e-14
1.31155e-13
-2.16729e-13
3.68442e-14
1.37022e-13
-1.97521e-13
2.66082e-14
7.21721e-14
-1.83054e-13
1.79033e-14
7.88567e-14
-2.28659e-13
1.05552e-14
7.07799e-14
4.2317e-15
5.68079e-14
-1.34563e-14
-1.60936e-13
1.53372e-13
4.56318e-13
-6.62672e-13
1.25058e-13
3.38852e-13
-4.128e-13
9.67797e-14
3.13647e-13
-3.62651e-13
7.40952e-14
2.59753e-13
-3.21171e-13
5.58409e-14
2.39023e-13
-2.85568e-13
4.1052e-14
2.21731e-13
-2.55007e-13
2.9032e-14
1.81983e-13
-2.30485e-13
1.92127e-14
1.0729e-13
-2.863e-13
1.11882e-14
1.0683e-13
4.55415e-15
7.82243e-14
-1.66614e-14
-5.85527e-13
2.01021e-13
8.11574e-13
-9.43872e-13
1.5721e-13
6.2271e-13
-5.70897e-13
1.17612e-13
5.92578e-13
-4.87937e-13
8.73254e-14
4.81081e-13
-4.20976e-13
6.40095e-14
4.03573e-13
-3.6524e-13
4.59233e-14
3.45756e-13
-3.18916e-13
3.17846e-14
2.8732e-13
-2.8172e-13
2.06802e-14
1.4532e-13
-3.46971e-13
1.18769e-14
1.53625e-13
4.87486e-15
1.0607e-13
-1.99463e-14
-1.132e-12
3.15682e-13
1.44559e-12
-1.32516e-12
2.00392e-13
1.26439e-12
-7.78845e-13
1.45331e-13
1.06292e-12
-6.45668e-13
1.04725e-13
8.17529e-13
-5.41441e-13
7.5132e-14
6.46304e-13
-4.57843e-13
5.37124e-14
5.22249e-13
-3.90341e-13
3.84996e-14
4.20787e-13
-3.37226e-13
2.49732e-14
2.42135e-13
-4.10966e-13
1.43356e-14
1.78967e-13
6.17978e-15
1.40639e-13
-2.33826e-14
-1.96444e-12
2.55473e-12
3.34176e-12
-1.84342e-12
3.0302e-13
2.35398e-12
-1.05505e-12
2.59666e-13
1.81195e-12
-8.45609e-13
1.7305e-13
1.32612e-12
-6.87801e-13
1.13541e-13
9.97169e-13
-5.65869e-13
7.11738e-14
7.67641e-13
-4.70558e-13
3.40037e-14
5.961e-13
-3.9724e-13
1.89331e-14
4.34856e-13
-4.78637e-13
1.00436e-14
2.28484e-13
4.67142e-15
1.82113e-13
-2.69125e-14
-3.82499e-11
1.97775e-09
2.19759e-08
-2.21651e-12
9.71754e-12
3.8014e-12
-1.41849e-12
2.97484e-12
1.12898e-13
-1.10009e-12
2.0746e-12
8.38908e-14
-8.65533e-13
1.49252e-12
6.44305e-14