/*--------------------------------*- C++ -*----------------------------------*\
| =========                 |                                                 |
| \\      /  F ield         | OpenFOAM: The Open Source CFD Toolbox           |
|  \\    /   O peration     | Version:  4.1                                   |
|   \\  /    A nd           | Web:      www.OpenFOAM.org                      |
|    \\/     M anipulation  |                                                 |
\*---------------------------------------------------------------------------*/
FoamFile
{
    version     2.0;
    format      ascii;
    class       volScalarField;
    location    "4.16";
    object      T;
}
// * * * * * * * * * * * * * * * * * * * * * * * * * * * * * * * * * * * * * //

dimensions      [0 0 0 1 0 0 0];

internalField   nonuniform List<scalar> 
52500
(
0.999995
1.00002
1.00004
1.00015
1.00028
1.0009
1.00167
1.00491
1.01037
1.02663
1.07228
1.15918
1.50101
2.27363
2.64242
2.73147
2.72567
2.72112
2.73648
2.74752
2.76149
2.76926
2.77569
2.78092
2.78435
0.999995
1.00002
1.00004
1.00015
1.00027
1.00088
1.00164
1.00485
1.01022
1.02628
1.0712
1.15701
1.49323
2.26005
2.63863
2.73133
2.72535
2.72047
2.73568
2.74661
2.76033
2.76784
2.77424
2.77864
2.78109
0.999995
1.00002
1.00004
1.00014
1.00027
1.00086
1.0016
1.00473
1.00991
1.02562
1.0689
1.15288
1.47519
2.22889
2.62845
2.72966
2.72354
2.71805
2.73335
2.74401
2.7579
2.76462
2.77096
2.77621
2.7776
0.999995
1.00002
1.00004
1.00014
1.00025
1.00083
1.00153
1.00455
1.00945
1.02459
1.06546
1.14662
1.44802
2.17995
2.61217
2.7265
2.71996
2.71321
2.72825
2.73932
2.75344
2.7609
2.76561
2.76935
2.77292
0.999995
1.00001
1.00003
1.00013
1.00024
1.00079
1.00145
1.00445
1.00882
1.02388
1.0598
1.13831
1.40951
2.10912
2.58884
2.72134
2.71519
2.7054
2.7214
2.72932
2.74416
2.75206
2.75917
2.76342
2.76307
0.999995
1.00001
1.00003
1.00012
1.00023
1.00074
1.00135
1.00422
1.00809
1.02281
1.0533
1.12829
1.3652
2.01945
2.5572
2.71331
2.70694
2.69661
2.71344
2.723
2.73297
2.7415
2.74587
2.74903
2.75323
0.999995
1.00001
1.00003
1.00011
1.00021
1.00068
1.00124
1.00386
1.00736
1.02102
1.0473
1.11776
1.31973
1.91892
2.51217
2.69714
2.68816
2.67803
2.69525
2.70885
2.72191
2.72642
2.73369
2.73646
2.73339
0.999995
1.00001
1.00003
1.0001
1.00019
1.00062
1.00112
1.00351
1.00667
1.01919
1.0426
1.10723
1.2869
1.82998
2.49174
2.68847
2.67956
2.66626
2.68128
2.68919
2.70403
2.70826
2.70859
2.70856
2.70909
0.999995
1.00001
1.00002
1.00009
1.00017
1.00055
1.001
1.00314
1.00596
1.01706
1.03853
1.09395
1.26234
1.71166
2.45673
2.67521
2.65903
2.66018
2.66746
2.67222
2.68203
2.68693
2.68727
2.68079
2.65611
0.999994
1.00001
1.00002
1.00007
1.00014
1.00044
1.00085
1.00241
1.00531
1.01316
1.0359
1.07885
1.24333
1.60239
2.36728
2.64375
2.6543
2.65218
2.65258
2.65801
2.65743
2.65497
2.64513
2.62385
2.57504
1
1.00003
1.00005
1.00016
1.00029
1.0009
1.00167
1.00493
1.01038
1.02665
1.0723
1.15922
1.50105
2.27376
2.64249
2.73154
2.72574
2.72119
2.73655
2.74759
2.76157
2.76934
2.77577
2.781
2.78444
1
1.00002
1.00005
1.00016
1.00028
1.00089
1.00165
1.00486
1.01023
1.02629
1.07122
1.15705
1.49327
2.26017
2.6387
2.7314
2.72542
2.72054
2.73575
2.74668
2.7604
2.76792
2.77432
2.77872
2.78117
1
1.00002
1.00005
1.00015
1.00027
1.00087
1.00161
1.00474
1.00992
1.02563
1.06892
1.15292
1.47523
2.22901
2.62852
2.72973
2.72361
2.71812
2.73342
2.74408
2.75797
2.7647
2.77104
2.77629
2.77768
1
1.00002
1.00004
1.00015
1.00026
1.00083
1.00154
1.00456
1.00946
1.02461
1.06547
1.14666
1.44806
2.18009
2.61224
2.72657
2.72003
2.71328
2.72832
2.73939
2.75351
2.76097
2.76569
2.76942
2.77299
1
1.00002
1.00004
1.00014
1.00025
1.0008
1.00146
1.00446
1.00883
1.0239
1.0598
1.13834
1.40951
2.10922
2.58891
2.7214
2.71526
2.70547
2.72146
2.72939
2.74423
2.75213
2.75924
2.76349
2.76315
1
1.00002
1.00004
1.00013
1.00024
1.00075
1.00136
1.00423
1.0081
1.02283
1.05331
1.12832
1.36522
2.01956
2.55726
2.71337
2.70701
2.69668
2.71351
2.72307
2.73303
2.74156
2.74594
2.7491
2.75331
1
1.00002
1.00004
1.00012
1.00022
1.00069
1.00125
1.00387
1.00737
1.02103
1.04731
1.11779
1.31976
1.91903
2.51223
2.69721
2.68823
2.6781
2.69531
2.70892
2.72198
2.72649
2.73376
2.73654
2.73346
1
1.00002
1.00003
1.00011
1.0002
1.00062
1.00113
1.00352
1.00668
1.0192
1.04261
1.10725
1.28692
1.83007
2.49177
2.68853
2.67962
2.66632
2.68135
2.68925
2.7041
2.70832
2.70865
2.70863
2.70916
1
1.00002
1.00003
1.0001
1.00017
1.00056
1.00101
1.00315
1.00596
1.01707
1.03854
1.09398
1.26234
1.71177
2.45677
2.67527
2.65908
2.66023
2.66752
2.67228
2.68209
2.68699
2.68734
2.68085
2.65616
1
1.00001
1.00002
1.00008
1.00015
1.00045
1.00086
1.00242
1.00532
1.01318
1.03591
1.07888
1.24334
1.60246
2.36735
2.64381
2.65435
2.65223
2.65264
2.65807
2.65749
2.65503
2.64519
2.6239
2.57509
1
1.00003
1.00005
1.00016
1.00029
1.0009
1.00167
1.00493
1.01038
1.02665
1.0723
1.15922
1.50105
2.27376
2.64249
2.73154
2.72574
2.72119
2.73655
2.74759
2.76157
2.76934
2.77577
2.781
2.78444
1
1.00002
1.00005
1.00016
1.00028
1.00089
1.00165
1.00486
1.01023
1.02629
1.07122
1.15705
1.49327
2.26018
2.6387
2.7314
2.72542
2.72054
2.73575
2.74668
2.7604
2.76792
2.77432
2.77872
2.78117
1
1.00002
1.00005
1.00015
1.00027
1.00087
1.00161
1.00474
1.00992
1.02563
1.06892
1.15292
1.47523
2.22902
2.62852
2.72973
2.72361
2.71812
2.73342
2.74408
2.75797
2.7647
2.77104
2.77629
2.77768
1
1.00002
1.00004
1.00015
1.00026
1.00083
1.00154
1.00456
1.00946
1.02461
1.06547
1.14666
1.44806
2.18009
2.61224
2.72657
2.72003
2.71328
2.72832
2.73939
2.75351
2.76097
2.76569
2.76942
2.77299
1
1.00002
1.00004
1.00014
1.00025
1.0008
1.00146
1.00446
1.00883
1.0239
1.0598
1.13834
1.40952
2.10923
2.58891
2.7214
2.71526
2.70547
2.72147
2.72939
2.74423
2.75213
2.75924
2.76349
2.76315
1
1.00002
1.00004
1.00013
1.00024
1.00075
1.00136
1.00423
1.0081
1.02283
1.05331
1.12832
1.36522
2.01956
2.55726
2.71337
2.70701
2.69668
2.71351
2.72307
2.73303
2.74156
2.74594
2.7491
2.75331
1
1.00002
1.00004
1.00012
1.00022
1.00069
1.00125
1.00387
1.00737
1.02103
1.04731
1.11779
1.31977
1.91903
2.51223
2.69721
2.68823
2.6781
2.69531
2.70892
2.72198
2.72649
2.73376
2.73654
2.73346
1
1.00002
1.00003
1.00011
1.0002
1.00062
1.00113
1.00352
1.00668
1.0192
1.04261
1.10726
1.28692
1.83008
2.49177
2.68853
2.67962
2.66633
2.68135
2.68925
2.7041
2.70832
2.70865
2.70863
2.70916
1
1.00002
1.00003
1.0001
1.00017
1.00056
1.00101
1.00315
1.00596
1.01707
1.03854
1.09398
1.26235
1.71177
2.45677
2.67527
2.65908
2.66023
2.66752
2.67228
2.68209
2.68699
2.68734
2.68085
2.65616
1
1.00001
1.00002
1.00008
1.00015
1.00045
1.00086
1.00242
1.00532
1.01318
1.03591
1.07888
1.24334
1.60246
2.36735
2.64381
2.65435
2.65223
2.65264
2.65807
2.65749
2.65503
2.64519
2.6239
2.57509
1
1.00003
1.00005
1.00016
1.00029
1.0009
1.00167
1.00493
1.01038
1.02665
1.0723
1.15922
1.50105
2.27376
2.64249
2.73154
2.72574
2.72119
2.73655
2.74759
2.76157
2.76934
2.77577
2.781
2.78444
1
1.00002
1.00005
1.00016
1.00028
1.00089
1.00165
1.00486
1.01023
1.02629
1.07122
1.15705
1.49327
2.26018
2.6387
2.7314
2.72542
2.72054
2.73575
2.74668
2.7604
2.76792
2.77432
2.77872
2.78117
1
1.00002
1.00005
1.00015
1.00027
1.00087
1.00161
1.00474
1.00992
1.02563
1.06892
1.15292
1.47523
2.22902
2.62852
2.72973
2.72361
2.71812
2.73342
2.74408
2.75797
2.7647
2.77104
2.77629
2.77768
1
1.00002
1.00004
1.00015
1.00026
1.00083
1.00154
1.00456
1.00946
1.02461
1.06547
1.14666
1.44806
2.18009
2.61224
2.72657
2.72003
2.71328
2.72832
2.73939
2.75351
2.76097
2.76569
2.76942
2.77299
1
1.00002
1.00004
1.00014
1.00025
1.0008
1.00146
1.00446
1.00883
1.0239
1.0598
1.13834
1.40952
2.10923
2.58891
2.7214
2.71526
2.70547
2.72147
2.72939
2.74423
2.75213
2.75924
2.76349
2.76315
1
1.00002
1.00004
1.00013
1.00024
1.00075
1.00136
1.00423
1.0081
1.02283
1.05331
1.12832
1.36522
2.01956
2.55726
2.71337
2.70701
2.69668
2.71351
2.72307
2.73303
2.74156
2.74594
2.7491
2.75331
1
1.00002
1.00004
1.00012
1.00022
1.00069
1.00125
1.00387
1.00737
1.02103
1.04731
1.11779
1.31977
1.91903
2.51223
2.69721
2.68823
2.6781
2.69531
2.70892
2.72198
2.72649
2.73376
2.73654
2.73346
1
1.00002
1.00003
1.00011
1.0002
1.00062
1.00113
1.00352
1.00668
1.0192
1.04261
1.10726
1.28692
1.83008
2.49177
2.68853
2.67962
2.66633
2.68135
2.68925
2.7041
2.70832
2.70865
2.70863
2.70916
1
1.00002
1.00003
1.0001
1.00017
1.00056
1.00101
1.00315
1.00596
1.01707
1.03854
1.09398
1.26235
1.71177
2.45677
2.67527
2.65908
2.66023
2.66752
2.67228
2.68209
2.68699
2.68734
2.68085
2.65616
1
1.00001
1.00002
1.00008
1.00015
1.00045
1.00086
1.00242
1.00532
1.01318
1.03591
1.07888
1.24334
1.60246
2.36735
2.64381
2.65435
2.65223
2.65264
2.65807
2.65749
2.65503
2.64519
2.6239
2.57509
1
1.00003
1.00005
1.00016
1.00029
1.0009
1.00167
1.00493
1.01038
1.02665
1.0723
1.15922
1.50105
2.27376
2.64249
2.73154
2.72574
2.72119
2.73655
2.74759
2.76157
2.76934
2.77577
2.781
2.78444
1
1.00002
1.00005
1.00016
1.00028
1.00089
1.00165
1.00486
1.01023
1.02629
1.07122
1.15705
1.49327
2.26018
2.6387
2.7314
2.72542
2.72054
2.73575
2.74668
2.7604
2.76792
2.77432
2.77872
2.78117
1
1.00002
1.00005
1.00015
1.00027
1.00087
1.00161
1.00474
1.00992
1.02563
1.06892
1.15292
1.47523
2.22902
2.62852
2.72973
2.72361
2.71812
2.73342
2.74408
2.75797
2.7647
2.77104
2.77629
2.77768
1
1.00002
1.00004
1.00015
1.00026
1.00083
1.00154
1.00456
1.00946
1.02461
1.06547
1.14666
1.44806
2.18009
2.61224
2.72657
2.72003
2.71328
2.72832
2.73939
2.75351
2.76097
2.76569
2.76942
2.77299
1
1.00002
1.00004
1.00014
1.00025
1.0008
1.00146
1.00446
1.00883
1.0239
1.0598
1.13834
1.40952
2.10923
2.58891
2.7214
2.71526
2.70547
2.72147
2.72939
2.74423
2.75213
2.75924
2.76349
2.76315
1
1.00002
1.00004
1.00013
1.00024
1.00075
1.00136
1.00423
1.0081
1.02283
1.05331
1.12832
1.36522
2.01956
2.55726
2.71337
2.70701
2.69668
2.71351
2.72307
2.73303
2.74156
2.74594
2.7491
2.75331
1
1.00002
1.00004
1.00012
1.00022
1.00069
1.00125
1.00387
1.00737
1.02103
1.04731
1.11779
1.31977
1.91903
2.51223
2.69721
2.68823
2.6781
2.69531
2.70892
2.72198
2.72649
2.73376
2.73654
2.73346
1
1.00002
1.00003
1.00011
1.0002
1.00062
1.00113
1.00352
1.00668
1.0192
1.04261
1.10726
1.28692
1.83008
2.49177
2.68853
2.67962
2.66633
2.68135
2.68925
2.7041
2.70832
2.70865
2.70863
2.70916
1
1.00002
1.00003
1.0001
1.00017
1.00056
1.00101
1.00315
1.00596
1.01707
1.03854
1.09398
1.26235
1.71177
2.45677
2.67527
2.65908
2.66023
2.66752
2.67228
2.68209
2.68699
2.68734
2.68085
2.65616
1
1.00001
1.00002
1.00008
1.00015
1.00045
1.00086
1.00242
1.00532
1.01318
1.03591
1.07888
1.24334
1.60246
2.36735
2.64381
2.65435
2.65223
2.65264
2.65807
2.65749
2.65503
2.64519
2.6239
2.57509
1
1.00003
1.00005
1.00016
1.00029
1.0009
1.00167
1.00493
1.01038
1.02665
1.0723
1.15922
1.50105
2.27376
2.64249
2.73154
2.72574
2.72119
2.73655
2.74759
2.76157
2.76934
2.77577
2.781
2.78444
1
1.00002
1.00005
1.00016
1.00028
1.00089
1.00165
1.00486
1.01023
1.02629
1.07122
1.15705
1.49327
2.26018
2.6387
2.7314
2.72542
2.72054
2.73575
2.74668
2.7604
2.76792
2.77432
2.77872
2.78117
1
1.00002
1.00005
1.00015
1.00027
1.00087
1.00161
1.00474
1.00992
1.02563
1.06892
1.15292
1.47523
2.22902
2.62852
2.72973
2.72361
2.71812
2.73342
2.74408
2.75797
2.7647
2.77104
2.77629
2.77768
1
1.00002
1.00004
1.00015
1.00026
1.00083
1.00154
1.00456
1.00946
1.02461
1.06547
1.14666
1.44806
2.18009
2.61224
2.72657
2.72003
2.71328
2.72832
2.73939
2.75351
2.76097
2.76569
2.76942
2.77299
1
1.00002
1.00004
1.00014
1.00025
1.0008
1.00146
1.00446
1.00883
1.0239
1.0598
1.13834
1.40952
2.10923
2.58891
2.7214
2.71526
2.70547
2.72147
2.72939
2.74423
2.75213
2.75924
2.76349
2.76315
1
1.00002
1.00004
1.00013
1.00024
1.00075
1.00136
1.00423
1.0081
1.02283
1.05331
1.12832
1.36522
2.01956
2.55726
2.71337
2.70701
2.69668
2.71351
2.72307
2.73303
2.74156
2.74594
2.7491
2.75331
1
1.00002
1.00004
1.00012
1.00022
1.00069
1.00125
1.00387
1.00737
1.02103
1.04731
1.11779
1.31977
1.91903
2.51223
2.69721
2.68823
2.6781
2.69531
2.70892
2.72198
2.72649
2.73376
2.73654
2.73346
1
1.00002
1.00003
1.00011
1.0002
1.00062
1.00113
1.00352
1.00668
1.0192
1.04261
1.10726
1.28692
1.83008
2.49177
2.68853
2.67962
2.66633
2.68135
2.68925
2.7041
2.70832
2.70865
2.70863
2.70916
1
1.00002
1.00003
1.0001
1.00017
1.00056
1.00101
1.00315
1.00596
1.01707
1.03854
1.09398
1.26235
1.71177
2.45677
2.67527
2.65908
2.66023
2.66752
2.67228
2.68209
2.68699
2.68734
2.68085
2.65616
1
1.00001
1.00002
1.00008
1.00015
1.00045
1.00086
1.00242
1.00532
1.01318
1.03591
1.07888
1.24334
1.60246
2.36735
2.64381
2.65435
2.65223
2.65264
2.65807
2.65749
2.65503
2.64519
2.6239
2.57509
1
1.00003
1.00005
1.00016
1.00029
1.0009
1.00167
1.00493
1.01038
1.02665
1.0723
1.15922
1.50105
2.27376
2.64249
2.73154
2.72574
2.72119
2.73655
2.74759
2.76157
2.76934
2.77577
2.781
2.78444
1
1.00002
1.00005
1.00016
1.00028
1.00089
1.00165
1.00486
1.01023
1.02629
1.07122
1.15705
1.49327
2.26018
2.6387
2.7314
2.72542
2.72054
2.73575
2.74668
2.7604
2.76792
2.77432
2.77872
2.78117
1
1.00002
1.00005
1.00015
1.00027
1.00087
1.00161
1.00474
1.00992
1.02563
1.06892
1.15292
1.47523
2.22902
2.62852
2.72973
2.72361
2.71812
2.73342
2.74408
2.75797
2.7647
2.77104
2.77629
2.77768
1
1.00002
1.00004
1.00015
1.00026
1.00083
1.00154
1.00456
1.00946
1.02461
1.06547
1.14666
1.44806
2.18009
2.61224
2.72657
2.72003
2.71328
2.72832
2.73939
2.75351
2.76097
2.76569
2.76942
2.77299
1
1.00002
1.00004
1.00014
1.00025
1.0008
1.00146
1.00446
1.00883
1.0239
1.0598
1.13834
1.40952
2.10923
2.58891
2.7214
2.71526
2.70547
2.72147
2.72939
2.74423
2.75213
2.75924
2.76349
2.76315
1
1.00002
1.00004
1.00013
1.00024
1.00075
1.00136
1.00423
1.0081
1.02283
1.05331
1.12832
1.36522
2.01956
2.55726
2.71337
2.70701
2.69668
2.71351
2.72307
2.73303
2.74156
2.74594
2.7491
2.75331
1
1.00002
1.00004
1.00012
1.00022
1.00069
1.00125
1.00387
1.00737
1.02103
1.04731
1.11779
1.31977
1.91903
2.51223
2.69721
2.68823
2.6781
2.69531
2.70892
2.72198
2.72649
2.73376
2.73654
2.73346
1
1.00002
1.00003
1.00011
1.0002
1.00062
1.00113
1.00352
1.00668
1.0192
1.04261
1.10726
1.28692
1.83008
2.49177
2.68853
2.67962
2.66633
2.68135
2.68925
2.7041
2.70832
2.70865
2.70863
2.70916
1
1.00002
1.00003
1.0001
1.00017
1.00056
1.00101
1.00315
1.00596
1.01707
1.03854
1.09398
1.26235
1.71177
2.45677
2.67527
2.65908
2.66023
2.66752
2.67228
2.68209
2.68699
2.68734
2.68085
2.65616
1
1.00001
1.00002
1.00008
1.00015
1.00045
1.00086
1.00242
1.00532
1.01318
1.03591
1.07888
1.24334
1.60246
2.36735
2.64381
2.65435
2.65223
2.65264
2.65807
2.65749
2.65503
2.64519
2.6239
2.57509
1
1.00003
1.00005
1.00016
1.00029
1.0009
1.00167
1.00493
1.01038
1.02665
1.0723
1.15922
1.50105
2.27376
2.64249
2.73154
2.72574
2.72119
2.73655
2.74759
2.76157
2.76934
2.77577
2.781
2.78444
1
1.00002
1.00005
1.00016
1.00028
1.00089
1.00165
1.00486
1.01023
1.02629
1.07122
1.15705
1.49327
2.26018
2.6387
2.7314
2.72542
2.72054
2.73575
2.74668
2.7604
2.76792
2.77432
2.77872
2.78117
1
1.00002
1.00005
1.00015
1.00027
1.00087
1.00161
1.00474
1.00992
1.02563
1.06892
1.15292
1.47523
2.22902
2.62852
2.72973
2.72361
2.71812
2.73342
2.74408
2.75797
2.7647
2.77104
2.77629
2.77768
1
1.00002
1.00004
1.00015
1.00026
1.00083
1.00154
1.00456
1.00946
1.02461
1.06547
1.14666
1.44806
2.18009
2.61224
2.72657
2.72003
2.71328
2.72832
2.73939
2.75351
2.76097
2.76569
2.76942
2.77299
1
1.00002
1.00004
1.00014
1.00025
1.0008
1.00146
1.00446
1.00883
1.0239
1.0598
1.13834
1.40952
2.10923
2.58891
2.7214
2.71526
2.70547
2.72147
2.72939
2.74423
2.75213
2.75924
2.76349
2.76315
1
1.00002
1.00004
1.00013
1.00024
1.00075
1.00136
1.00423
1.0081
1.02283
1.05331
1.12832
1.36522
2.01956
2.55726
2.71337
2.70701
2.69668
2.71351
2.72307
2.73303
2.74156
2.74594
2.7491
2.75331
1
1.00002
1.00004
1.00012
1.00022
1.00069
1.00125
1.00387
1.00737
1.02103
1.04731
1.11779
1.31977
1.91903
2.51223
2.69721
2.68823
2.6781
2.69531
2.70892
2.72198
2.72649
2.73376
2.73654
2.73346
1
1.00002
1.00003
1.00011
1.0002
1.00062
1.00113
1.00352
1.00668
1.0192
1.04261
1.10726
1.28692
1.83008
2.49177
2.68853
2.67962
2.66633
2.68135
2.68925
2.7041
2.70832
2.70865
2.70863
2.70916
1
1.00002
1.00003
1.0001
1.00017
1.00056
1.00101
1.00315
1.00596
1.01707
1.03854
1.09398
1.26235
1.71177
2.45677
2.67527
2.65908
2.66023
2.66752
2.67228
2.68209
2.68699
2.68734
2.68085
2.65616
1
1.00001
1.00002
1.00008
1.00015
1.00045
1.00086
1.00242
1.00532
1.01318
1.03591
1.07888
1.24334
1.60246
2.36735
2.64381
2.65435
2.65223
2.65264
2.65807
2.65749
2.65503
2.64519
2.6239
2.57509
1
1.00003
1.00005
1.00016
1.00029
1.0009
1.00167
1.00493
1.01038
1.02665
1.0723
1.15922
1.50105
2.27376
2.64249
2.73154
2.72574
2.72119
2.73655
2.74759
2.76157
2.76934
2.77577
2.781
2.78444
1
1.00002
1.00005
1.00016
1.00028
1.00089
1.00165
1.00486
1.01023
1.02629
1.07122
1.15705
1.49327
2.26017
2.6387
2.7314
2.72542
2.72054
2.73575
2.74668
2.7604
2.76792
2.77432
2.77872
2.78117
1
1.00002
1.00005
1.00015
1.00027
1.00087
1.00161
1.00474
1.00992
1.02563
1.06892
1.15292
1.47523
2.22901
2.62852
2.72973
2.72361
2.71812
2.73342
2.74408
2.75797
2.7647
2.77104
2.77629
2.77768
1
1.00002
1.00004
1.00015
1.00026
1.00083
1.00154
1.00456
1.00946
1.02461
1.06547
1.14666
1.44806
2.18009
2.61224
2.72657
2.72003
2.71328
2.72832
2.73939
2.75351
2.76097
2.76569
2.76942
2.77299
1
1.00002
1.00004
1.00014
1.00025
1.0008
1.00146
1.00446
1.00883
1.0239
1.0598
1.13834
1.40951
2.10922
2.58891
2.7214
2.71526
2.70547
2.72146
2.72939
2.74423
2.75213
2.75924
2.76349
2.76315
1
1.00002
1.00004
1.00013
1.00024
1.00075
1.00136
1.00423
1.0081
1.02283
1.05331
1.12832
1.36522
2.01956
2.55726
2.71337
2.70701
2.69668
2.71351
2.72307
2.73303
2.74156
2.74594
2.7491
2.75331
1
1.00002
1.00004
1.00012
1.00022
1.00069
1.00125
1.00387
1.00737
1.02103
1.04731
1.11779
1.31976
1.91903
2.51223
2.69721
2.68823
2.6781
2.69531
2.70892
2.72198
2.72649
2.73376
2.73654
2.73346
1
1.00002
1.00003
1.00011
1.0002
1.00062
1.00113
1.00352
1.00668
1.0192
1.04261
1.10725
1.28692
1.83007
2.49177
2.68853
2.67962
2.66632
2.68135
2.68925
2.7041
2.70832
2.70865
2.70863
2.70916
1
1.00002
1.00003
1.0001
1.00017
1.00056
1.00101
1.00315
1.00596
1.01707
1.03854
1.09398
1.26234
1.71177
2.45677
2.67527
2.65908
2.66023
2.66752
2.67228
2.68209
2.68699
2.68734
2.68085
2.65616
1
1.00001
1.00002
1.00008
1.00015
1.00045
1.00086
1.00242
1.00532
1.01318
1.03591
1.07888
1.24334
1.60246
2.36735
2.64381
2.65435
2.65223
2.65264
2.65807
2.65749
2.65503
2.64519
2.6239
2.57509
0.999995
1.00002
1.00004
1.00015
1.00028
1.0009
1.00167
1.00491
1.01037
1.02663
1.07228
1.15918
1.50101
2.27363
2.64242
2.73147
2.72567
2.72112
2.73648
2.74752
2.76149
2.76926
2.77569
2.78092
2.78435
0.999995
1.00002
1.00004
1.00015
1.00027
1.00088
1.00164
1.00485
1.01022
1.02628
1.0712
1.15701
1.49323
2.26005
2.63863
2.73133
2.72535
2.72047
2.73568
2.74661
2.76033
2.76784
2.77424
2.77864
2.78109
0.999995
1.00002
1.00004
1.00014
1.00027
1.00086
1.0016
1.00473
1.00991
1.02562
1.0689
1.15288
1.47519
2.22889
2.62845
2.72966
2.72354
2.71805
2.73335
2.74401
2.7579
2.76462
2.77096
2.77621
2.7776
0.999995
1.00002
1.00004
1.00014
1.00025
1.00083
1.00153
1.00455
1.00945
1.02459
1.06546
1.14662
1.44802
2.17995
2.61217
2.7265
2.71996
2.71321
2.72825
2.73932
2.75344
2.7609
2.76561
2.76935
2.77292
0.999995
1.00001
1.00003
1.00013
1.00024
1.00079
1.00145
1.00445
1.00882
1.02388
1.0598
1.13831
1.40951
2.10912
2.58884
2.72134
2.71519
2.7054
2.7214
2.72932
2.74416
2.75206
2.75917
2.76342
2.76307
0.999995
1.00001
1.00003
1.00012
1.00023
1.00074
1.00135
1.00422
1.00809
1.02281
1.0533
1.12829
1.3652
2.01945
2.5572
2.71331
2.70694
2.69661
2.71344
2.723
2.73297
2.7415
2.74587
2.74903
2.75323
0.999995
1.00001
1.00003
1.00011
1.00021
1.00068
1.00124
1.00386
1.00736
1.02102
1.0473
1.11776
1.31973
1.91892
2.51217
2.69714
2.68816
2.67803
2.69525
2.70885
2.72191
2.72642
2.73369
2.73646
2.73339
0.999995
1.00001
1.00003
1.0001
1.00019
1.00062
1.00112
1.00351
1.00667
1.01919
1.0426
1.10723
1.2869
1.82998
2.49174
2.68847
2.67956
2.66626
2.68128
2.68919
2.70403
2.70826
2.70859
2.70856
2.70909
0.999995
1.00001
1.00002
1.00009
1.00017
1.00055
1.001
1.00314
1.00596
1.01706
1.03853
1.09395
1.26234
1.71166
2.45673
2.67521
2.65903
2.66018
2.66746
2.67222
2.68203
2.68693
2.68727
2.68079
2.65611
0.999994
1.00001
1.00002
1.00007
1.00014
1.00044
1.00085
1.00241
1.00531
1.01316
1.0359
1.07885
1.24333
1.60239
2.36728
2.64375
2.6543
2.65218
2.65258
2.65801
2.65743
2.65497
2.64513
2.62385
2.57504
0.999996
1
1.00002
1.00005
1.00017
1.00031
1.00098
1.00189
1.00535
1.01181
1.02954
1.08182
1.17953
1.55169
2.34041
2.58354
2.6395
2.63457
2.63384
2.63822
2.63715
2.62885
2.60626
2.55237
2.35788
0.999996
0.999999
1.00002
1.00004
1.00015
1.00027
1.00086
1.00161
1.00473
1.00994
1.02559
1.06885
1.1525
1.47208
2.21285
2.53873
2.633
2.6247
2.61249
2.60981
2.60434
2.58813
2.55278
2.488
2.29198
0.999995
0.999999
1.00001
1.00003
1.00013
1.00023
1.00076
1.00137
1.00428
1.00824
1.02294
1.0547
1.12949
1.37298
2.01982
2.46201
2.61771
2.61072
2.60008
2.58984
2.58056
2.56047
2.51423
2.44889
2.28991
0.999995
0.999998
1.00001
1.00003
1.0001
1.00019
1.00062
1.00113
1.00354
1.00669
1.01934
1.04207
1.10823
1.27766
1.81946
2.35896
2.57993
2.5761
2.57215
2.55913
2.54339
2.51877
2.47651
2.42336
2.30241
0.999995
0.999997
1.00001
1.00002
1.00008
1.00015
1.00049
1.00091
1.00281
1.00544
1.01517
1.03492
1.08433
1.23286
1.6312
2.28745
2.54448
2.55476
2.55308
2.5448
2.52438
2.49666
2.43583
2.39091
2.30178
0.999994
0.999997
1
1.00002
1.00004
1.00016
1.00029
1.00091
1.00177
1.0049
1.01104
1.02693
1.07566
1.16228
1.51336
2.22617
2.46217
2.52053
2.51322
2.51018
2.49954
2.47933
2.42911
2.36637
2.29585
0.999994
0.999996
0.999999
1.00002
1.00003
1.00013
1.00024
1.00077
1.00141
1.00434
1.00851
1.02312
1.05699
1.13187
1.38445
2.02568
2.39895
2.50855
2.50042
2.48909
2.46469
2.44351
2.41213
2.35743
2.29149
0.999993
0.999995
0.999997
1.00001
1.00003
1.0001
1.00018
1.00059
1.00109
1.00336
1.00645
1.01835
1.04042
1.10334
1.26304
1.78316
2.25231
2.46808
2.47249
2.46703
2.45134
2.42121
2.38689
2.33901
2.28066
0.999993
0.999993
0.999997
1
1.00002
1.00005
1.00018
1.00033
1.00104
1.00198
1.00569
1.01208
1.03084
1.08225
1.18301
1.5343
2.21137
2.4136
2.43867
2.42988
2.42115
2.40149
2.37372
2.3319
2.2778
0.999992
0.999993
0.999996
0.999999
1.00002
1.00004
1.00013
1.00025
1.00078
1.00148
1.00427
1.00905
1.02305
1.06142
1.13661
1.40777
2.05103
2.34699
2.41956
2.41238
2.39391
2.36925
2.34246
2.31338
2.27021
0.999992
0.999992
0.999994
0.999999
1
1.00003
1.00007
1.00023
1.00043
1.00127
1.00262
1.00679
1.01684
1.03897
1.11167
1.24876
1.70878
2.19862
2.38856
2.39114
2.38106
2.35861
2.32834
2.29518
2.26142
0.999992
0.999992
0.999993
0.999997
1
1.00002
1.00005
1.00017
1.00032
1.001
1.00186
1.00544
1.0113
1.0291
1.07657
1.16984
1.49346
2.11382
2.32674
2.35803
2.35181
2.3361
2.30901
2.27616
2.2417
0.999991
0.999992
0.999993
0.999994
1
1.00001
1.00004
1.00009
1.00028
1.00053
1.00151
1.00326
1.00814
1.02127
1.04788
1.14025
1.31317
1.86186
2.22944
2.33521
2.3334
2.32274
2.30048
2.26791
2.23385
0.999991
0.999991
0.999992
0.999993
0.999998
1
1.00003
1.00006
1.00021
1.00038
1.0012
1.00221
1.00666
1.01322
1.03518
1.08461
1.20893
1.52066
2.1086
2.27819
2.2952
2.29207
2.27935
2.25243
2.22107
0.999991
0.999991
0.999991
0.999993
0.999994
1
1.00001
1.00005
1.0001
1.00033
1.00063
1.00189
1.00368
1.01006
1.02298
1.0552
1.15098
1.36052
1.87943
2.20906
2.2764
2.27433
2.26133
2.24265
2.21056
0.999991
0.999991
0.999991
0.999992
0.999993
0.999998
1
1.00003
1.00007
1.00023
1.00042
1.00131
1.00243
1.00703
1.01466
1.03719
1.09688
1.21964
1.58031
2.04363
2.23293
2.24423
2.2391
2.2237
2.19908
0.999991
0.999991
0.999991
0.999991
0.999993
0.999995
1
1.00001
1.00006
1.00011
1.00036
1.00068
1.00205
1.00396
1.01102
1.02421
1.05938
1.15204
1.39217
1.87633
2.16101
2.22027
2.21891
2.20581
2.18693
0.999991
0.999991
0.999991
0.999991
0.999992
0.999993
0.999999
1.00001
1.00004
1.00007
1.00024
1.00044
1.00136
1.00254
1.00732
1.01524
1.03861
1.09967
1.22787
1.59249
2.00719
2.17578
2.19234
2.1877
2.17298
0.999991
0.999991
0.999991
0.999991
0.999991
0.999993
0.999995
1
1.00001
1.00006
1.00012
1.00037
1.0007
1.00206
1.00404
1.01114
1.02408
1.06168
1.146
1.41299
1.82674
2.08965
2.15621
2.16151
2.1557
0.999991
0.999991
0.999991
0.999991
0.999991
0.999992
0.999994
0.999997
1.00001
1.00002
1.00009
1.00018
1.00056
1.00105
1.0031
1.00606
1.01651
1.03684
1.08991
1.22658
1.615
1.959
2.11025
2.12977
2.12835
0.999991
0.999991
0.999991
0.999991
0.999991
0.999991
0.999993
0.999995
1
1.00001
1.00006
1.00011
1.00036
1.00066
1.002
1.00377
1.01074
1.02226
1.05726
1.13553
1.36319
1.77222
2.03574
2.10096
2.10714
0.999991
0.999991
0.999991
0.999991
0.999991
0.999991
0.999992
0.999994
0.999996
1.00001
1.00002
1.00008
1.00016
1.00051
1.00096
1.0028
1.00547
1.01491
1.03239
1.08118
1.19423
1.53762
1.88803
2.05706
2.07324
0.999991
0.999991
0.999991
0.999991
0.999991
0.999991
0.999991
0.999993
0.999994
1
1.00001
1.00005
1.0001
1.00032
1.00059
1.00178
1.00333
1.00944
1.01974
1.05018
1.12164
1.30556
1.68985
1.9854
2.05603
0.999991
0.999991
0.999991
0.999991
0.999991
0.999991
0.999991
0.999992
0.999993
0.999997
1
1.00003
1.00006
1.00019
1.00035
1.00107
1.00197
1.00577
1.01124
1.03009
1.0674
1.16731
1.39841
1.82989
2.00381
0.999991
0.999991
0.999991
0.999991
0.999991
0.999991
0.999991
0.999991
0.999992
0.999995
0.999998
1.00001
1.00003
1.00011
1.00021
1.00064
1.00118
1.00353
1.00674
1.01846
1.0413
1.09725
1.25696
1.65829
1.89545
0.999991
0.999991
0.999991
0.999991
0.999991
0.999991
0.999991
0.999991
0.999992
0.999992
0.999996
1
1.00002
1.00004
1.00015
1.00029
1.00086
1.00163
1.00463
1.00945
1.02409
1.05937
1.13239
1.35565
1.77218
0.999991
0.999991
0.999991
0.999991
0.999991
0.999991
0.999991
0.999991
0.999991
0.999992
0.999993
0.999998
1
1.00003
1.00006
1.00021
1.00039
1.00116
1.00223
1.00607
1.01303
1.03163
1.08131
1.17673
1.46961
0.999991
0.999991
0.999991
0.999991
0.999991
0.999991
0.999991
0.999991
0.999991
0.999991
0.999993
0.999994
1
1.00001
1.00005
1.00009
1.00029
1.00055
1.0016
1.00308
1.00853
1.01786
1.04543
1.10573
1.27562
0.999991
0.999991
0.999991
0.999991
0.999991
0.999991
0.999991
0.999991
0.999991
0.999991
0.999992
0.999993
0.999997
1
1.00002
1.00005
1.00016
1.00031
1.00093
1.00171
1.00501
1.0097
1.02587
1.05786
1.13966
0.999991
0.999991
0.999991
0.999991
0.999991
0.999991
0.999991
0.999991
0.999991
0.999991
0.999991
0.999992
0.999993
0.999998
1
1.00003
1.00007
1.00021
1.0004
1.00118
1.00225
1.00624
1.01294
1.03215
1.07807
0.999991
0.999991
0.999991
0.999991
0.999991
0.999991
0.999991
0.999991
0.999991
0.999991
0.999991
0.999991
0.999993
0.999994
1
1.00001
1.00004
1.00009
1.00028
1.00054
1.00155
1.00302
1.00817
1.01715
1.04342
0.999991
0.999991
0.999991
0.999991
0.999991
0.999991
0.999991
0.999991
0.999991
0.999991
0.999991
0.999991
0.999991
0.999993
0.999995
1
1.00001
1.00006
1.00012
1.00037
1.0007
1.002
1.0039
1.01049
1.02204
0.999991
0.999991
0.999991
0.999991
0.999991
0.999991
0.999991
0.999991
0.999991
0.999991
0.999991
0.999991
0.999991
0.999992
0.999993
0.999998
1
1.00003
1.00006
1.0002
1.00038
1.00113
1.00212
1.00598
1.01176
0.999991
0.999991
0.999991
0.999991
0.999991
0.999991
0.999991
0.999991
0.999991
0.999991
0.999991
0.999991
0.999991
0.999991
0.999992
0.999994
1
1.00001
1.00004
1.00009
1.00028
1.00054
1.00156
1.00301
1.00831
0.999991
0.999991
0.999991
0.999991
0.999991
0.999991
0.999991
0.999991
0.999991
0.999991
0.999991
0.999991
0.999991
0.999991
0.999992
0.999994
0.999996
1.00001
1.00002
1.00008
1.00016
1.00049
1.00092
1.00272
1.00546
0.999991
0.999991
0.999991
0.999991
0.999991
0.999991
0.999991
0.999991
0.999991
0.999991
0.999991
0.999991
0.999991
0.999991
0.999992
0.999992
0.999996
1
1.00002
1.00005
1.00016
1.00032
1.00096
1.00195
1.00525
0.999991
0.999991
0.999991
0.999991
0.999991
0.999991
0.999991
0.999991
0.999991
0.999991
0.999991
0.999991
0.999991
0.999991
0.999991
0.999993
0.999994
1
1.00001
1.00006
1.00011
1.00037
1.00073
1.00205
1.0047
0.999991
0.999991
0.999991
0.999991
0.999991
0.999991
0.999991
0.999991
0.999991
0.999991
0.999991
0.999991
0.999991
0.999991
0.999991
0.999993
0.999994
1
1.00001
1.00005
1.00011
1.00035
1.00071
1.00196
1.00471
0.999991
0.999991
0.999991
0.999991
0.999991
0.999991
0.999991
0.999991
0.999991
0.999991
0.999991
0.999991
0.999991
0.999991
0.999991
0.999992
0.999995
0.999999
1.00002
1.00004
1.00015
1.00029
1.00092
1.0018
1.00508
0.999991
0.999991
0.999991
0.999991
0.999991
0.999991
0.999991
0.999991
0.999991
0.999991
0.999991
0.999991
0.999991
0.999991
0.999992
0.999992
0.999996
1
1.00002
1.00004
1.00016
1.0003
1.00098
1.00183
1.00549
1
1.00001
1.00003
1.00006
1.00017
1.00032
1.00099
1.0019
1.00536
1.01182
1.02956
1.08183
1.17957
1.55171
2.34051
2.58361
2.63955
2.63463
2.6339
2.63828
2.6372
2.6289
2.60631
2.55242
2.35791
1
1.00001
1.00003
1.00005
1.00015
1.00028
1.00087
1.00161
1.00474
1.00994
1.0256
1.06887
1.15253
1.47211
2.21294
2.53879
2.63305
2.62476
2.61254
2.60986
2.60439
2.58818
2.55283
2.48804
2.29201
1
1.00001
1.00002
1.00004
1.00013
1.00024
1.00076
1.00138
1.00429
1.00825
1.02296
1.0547
1.12952
1.37298
2.01989
2.46208
2.61777
2.61077
2.60013
2.58989
2.58061
2.56052
2.51427
2.44893
2.28994
1
1.00001
1.00002
1.00003
1.00011
1.0002
1.00063
1.00114
1.00354
1.0067
1.01935
1.04208
1.10825
1.27768
1.81951
2.35902
2.57999
2.57616
2.57221
2.55918
2.54343
2.51881
2.47656
2.42341
2.30244
1
1
1.00001
1.00003
1.00009
1.00016
1.0005
1.00092
1.00282
1.00545
1.01519
1.03492
1.08435
1.23285
1.63126
2.28751
2.54454
2.55481
2.55313
2.54485
2.52442
2.49669
2.43586
2.39095
2.30181
1
1
1.00001
1.00003
1.00005
1.00016
1.0003
1.00092
1.00178
1.00491
1.01105
1.02694
1.07567
1.16231
1.51338
2.22625
2.46223
2.52057
2.51326
2.51022
2.49959
2.47937
2.42914
2.36641
2.29588
1
1
1.00001
1.00002
1.00004
1.00014
1.00025
1.00078
1.00142
1.00436
1.00852
1.02314
1.05699
1.1319
1.38445
2.02574
2.39901
2.50859
2.50046
2.48914
2.46473
2.44355
2.41216
2.35746
2.29152
1
1
1.00001
1.00002
1.00003
1.00011
1.00019
1.0006
1.0011
1.00337
1.00646
1.01836
1.04043
1.10336
1.26306
1.78324
2.25236
2.46813
2.47253
2.46707
2.45138
2.42126
2.38693
2.33904
2.28068
1
1
1.00001
1.00001
1.00003
1.00006
1.00019
1.00034
1.00105
1.00198
1.0057
1.01209
1.03085
1.08227
1.18304
1.53433
2.21142
2.41364
2.43871
2.42992
2.42119
2.40153