/*--------------------------------*- C++ -*----------------------------------*\
| =========                 |                                                 |
| \\      /  F ield         | OpenFOAM: The Open Source CFD Toolbox           |
|  \\    /   O peration     | Version:  4.1                                   |
|   \\  /    A nd           | Web:      www.OpenFOAM.org                      |
|    \\/     M anipulation  |                                                 |
\*---------------------------------------------------------------------------*/
FoamFile
{
    version     2.0;
    format      ascii;
    class       volVectorField;
    location    "5.96";
    object      U;
}
// * * * * * * * * * * * * * * * * * * * * * * * * * * * * * * * * * * * * * //

dimensions      [0 1 -1 0 0 0 0];

internalField   nonuniform List<vector> 
52500
(
(3 1.50478e-08 -0.00571426)
(2.99998 8.37485e-08 -0.0057144)
(2.99996 3.11242e-07 -0.00571462)
(2.99989 8.01597e-07 -0.0057153)
(2.99974 2.20263e-06 -0.00571654)
(2.99933 5.0659e-06 -0.00572033)
(2.99854 1.30418e-05 -0.00572772)
(2.99604 2.9769e-05 -0.00574781)
(2.99169 7.41271e-05 -0.00579681)
(2.97519 0.000167149 -0.00589553)
(2.94602 0.000449474 -0.00627412)
(2.83606 0.00104946 -0.00680771)
(2.5355 0.00286275 -0.00938468)
(1.81315 0.00759518 -0.0142174)
(0.809586 0.021411 -0.0177412)
(0.491849 0.0214613 -0.018487)
(0.55504 0.0227494 -0.0185042)
(0.572259 0.0250197 -0.0185492)
(0.522747 0.0272045 -0.0187327)
(0.435421 0.0292843 -0.0189149)
(0.348801 0.0318602 -0.0191155)
(0.277841 0.0350762 -0.0192858)
(0.207086 0.0385748 -0.0194574)
(0.125342 0.0428124 -0.0196224)
(0.0556338 0.0491692 -0.0197742)
(3 4.51536e-08 -0.00571426)
(2.99998 2.50732e-07 -0.0057144)
(2.99996 9.33494e-07 -0.00571461)
(2.99989 2.40161e-06 -0.00571528)
(2.99975 6.61401e-06 -0.00571651)
(2.99934 1.52045e-05 -0.00572024)
(2.99856 3.92975e-05 -0.00572753)
(2.99609 8.95333e-05 -0.00574728)
(2.9918 0.000225026 -0.00579577)
(2.9755 0.000505309 -0.00589266)
(2.94677 0.00137818 -0.00626726)
(2.83791 0.00320869 -0.00679046)
(2.54147 0.00896189 -0.0093492)
(1.82688 0.0237676 -0.0141276)
(0.816775 0.0658333 -0.0176367)
(0.487955 0.0628174 -0.0184153)
(0.553242 0.0639233 -0.0184301)
(0.571094 0.068259 -0.0184673)
(0.521043 0.0721841 -0.0186431)
(0.433522 0.0757875 -0.0188182)
(0.346996 0.080264 -0.0190108)
(0.27558 0.0856426 -0.0191701)
(0.203793 0.0908507 -0.0193339)
(0.120825 0.0962121 -0.0194841)
(0.0511313 0.102185 -0.0196173)
(3 7.41382e-08 -0.00571426)
(2.99998 4.10691e-07 -0.00571439)
(2.99996 1.53384e-06 -0.0057146)
(2.99989 3.94558e-06 -0.00571525)
(2.99976 1.09115e-05 -0.00571644)
(2.99936 2.51215e-05 -0.00572006)
(2.9986 6.52636e-05 -0.00572716)
(2.99619 0.000149224 -0.00574623)
(2.99203 0.000377058 -0.00579367)
(2.97613 0.000848605 -0.005887)
(2.94833 0.00234281 -0.00625323)
(2.84188 0.0054479 -0.0067562)
(2.55448 0.0155023 -0.00927397)
(1.85763 0.0410911 -0.0139491)
(0.83413 0.114548 -0.0174821)
(0.482389 0.107058 -0.0183326)
(0.552388 0.107541 -0.0183454)
(0.572104 0.11484 -0.0183739)
(0.521702 0.121905 -0.0185418)
(0.434554 0.129156 -0.0187074)
(0.34883 0.137594 -0.0188903)
(0.277403 0.147087 -0.0190422)
(0.204879 0.156424 -0.0191896)
(0.120883 0.165375 -0.0193367)
(0.0499182 0.173033 -0.0194565)
(3 9.44227e-08 -0.00571425)
(2.99998 5.22093e-07 -0.00571439)
(2.99996 1.95206e-06 -0.00571458)
(2.9999 5.00354e-06 -0.00571521)
(2.99977 1.38777e-05 -0.00571635)
(2.99939 3.17624e-05 -0.0057198)
(2.99866 8.38792e-05 -0.00572661)
(2.99635 0.000186109 -0.00574464)
(2.99239 0.000504018 -0.00579056)
(2.97711 0.00107767 -0.00587841)
(2.95071 0.00321707 -0.00623197)
(2.84802 0.00713053 -0.0067038)
(2.57462 0.0235555 -0.00915802)
(1.90522 0.0592033 -0.0136814)
(0.860281 0.166218 -0.017279)
(0.473085 0.152427 -0.0182436)
(0.551556 0.150696 -0.0182544)
(0.575198 0.16059 -0.0182676)
(0.525184 0.170821 -0.0184239)
(0.439235 0.182133 -0.0185819)
(0.354844 0.194907 -0.018742)
(0.283798 0.209023 -0.0188836)
(0.210649 0.223199 -0.0190315)
(0.125052 0.236473 -0.0191562)
(0.0510483 0.246245 -0.0192854)
(3 1.0653e-07 -0.00571425)
(2.99999 5.88238e-07 -0.00571438)
(2.99996 2.19823e-06 -0.00571457)
(2.9999 5.60458e-06 -0.00571516)
(2.99978 1.55685e-05 -0.00571624)
(2.99942 3.52689e-05 -0.00571952)
(2.99873 9.53302e-05 -0.00572596)
(2.99654 0.00019997 -0.00574319)
(2.99278 0.000608077 -0.00578626)
(2.97836 0.00116685 -0.00587032)
(2.95351 0.00409836 -0.00620153)
(2.85742 0.00840175 -0.00665242)
(2.60325 0.0320223 -0.00893223)
(1.97262 0.0771114 -0.0132665)
(0.903254 0.21935 -0.0170039)
(0.468415 0.199043 -0.0181288)
(0.556281 0.193932 -0.0181379)
(0.584492 0.205866 -0.0181364)
(0.534534 0.218975 -0.0182815)
(0.44971 0.23442 -0.0184344)
(0.366388 0.251543 -0.0185919)
(0.295569 0.27049 -0.0187058)
(0.221461 0.290142 -0.0188257)
(0.133103 0.308626 -0.0189626)
(0.0544383 0.321303 -0.0190685)
(3 1.19027e-07 -0.00571425)
(2.99999 6.57761e-07 -0.00571437)
(2.99997 2.45094e-06 -0.00571455)
(2.99991 6.23958e-06 -0.0057151)
(2.99979 1.72737e-05 -0.00571612)
(2.99945 3.89378e-05 -0.00571923)
(2.9988 0.000106099 -0.00572521)
(2.99677 0.00021382 -0.00574184)
(2.99319 0.000708071 -0.00578085)
(2.97997 0.00116425 -0.00586261)
(2.95689 0.00507603 -0.00615918)
(2.86933 0.00957315 -0.00659113)
(2.63961 0.0384583 -0.00863329)
(2.05921 0.0920102 -0.0127228)
(0.962783 0.268183 -0.0166522)
(0.470676 0.246674 -0.0179914)
(0.568046 0.23845 -0.0180046)
(0.601527 0.251446 -0.0179732)
(0.551558 0.266858 -0.0181198)
(0.467865 0.286632 -0.0182323)
(0.385116 0.308712 -0.0183919)
(0.314124 0.333419 -0.0185124)
(0.238688 0.359834 -0.0186211)
(0.146392 0.385622 -0.018719)
(0.0604589 0.403491 -0.0188419)
(3 1.4143e-07 -0.00571425)
(2.99999 7.81834e-07 -0.00571436)
(2.99997 2.91511e-06 -0.00571453)
(2.99991 7.45763e-06 -0.00571504)
(2.9998 2.06322e-05 -0.00571599)
(2.99949 4.69394e-05 -0.0057189)
(2.99888 0.000125545 -0.00572439)
(2.99704 0.000265846 -0.00574054)
(2.99357 0.000804004 -0.00577447)
(2.98194 0.0014309 -0.00585689)
(2.96069 0.00564931 -0.00610323)
(2.88307 0.0106322 -0.00652172)
(2.68185 0.0417068 -0.0082758)
(2.16254 0.10085 -0.012053)
(1.04326 0.30557 -0.0162218)
(0.489777 0.295872 -0.0178114)
(0.590052 0.288528 -0.0178276)
(0.627703 0.300223 -0.0177905)
(0.577917 0.316079 -0.0179435)
(0.495665 0.339388 -0.0180503)
(0.413336 0.366775 -0.0181542)
(0.341938 0.398407 -0.0182466)
(0.264889 0.43359 -0.0183473)
(0.167644 0.470059 -0.0184367)
(0.0713125 0.49818 -0.0185201)
(3 1.5857e-07 -0.00571425)
(2.99999 8.76003e-07 -0.00571435)
(2.99997 3.26424e-06 -0.0057145)
(2.99992 8.37083e-06 -0.00571497)
(2.99982 2.31115e-05 -0.00571582)
(2.99954 5.28794e-05 -0.00571844)
(2.99898 0.000138686 -0.0057234)
(2.99734 0.000307756 -0.00573794)
(2.99417 0.000828488 -0.00576818)
(2.98395 0.00173687 -0.00584404)
(2.96473 0.00537215 -0.00605407)
(2.89737 0.0109389 -0.00644632)
(2.7251 0.0385277 -0.00792244)
(2.27613 0.0942165 -0.0113222)
(1.15059 0.289008 -0.0157103)
(0.542804 0.332579 -0.0175347)
(0.628919 0.341226 -0.0175302)
(0.664369 0.350912 -0.0175214)
(0.614997 0.366671 -0.0176808)
(0.535145 0.393498 -0.0178127)
(0.453238 0.426803 -0.0179243)
(0.381436 0.466482 -0.0179709)
(0.30347 0.512569 -0.0180317)
(0.201743 0.56508 -0.0180743)
(0.0906154 0.614326 -0.018138)
(3 1.78263e-07 -0.00571425)
(2.99999 9.7811e-07 -0.00571434)
(2.99997 3.63711e-06 -0.00571447)
(2.99993 9.33003e-06 -0.00571489)
(2.99984 2.56846e-05 -0.00571566)
(2.99959 5.89229e-05 -0.005718)
(2.99909 0.000152659 -0.00572244)
(2.99761 0.000347709 -0.00573553)
(2.99477 0.000859201 -0.00576244)
(2.98569 0.00206677 -0.00583121)
(2.9685 0.00491106 -0.00601592)
(2.90909 0.0118047 -0.00637219)
(2.75881 0.0330896 -0.00766537)
(2.35833 0.0821843 -0.0107073)
(1.2562 0.242514 -0.015508)
(0.591915 0.371745 -0.0173688)
(0.652117 0.402499 -0.0173431)
(0.687864 0.401489 -0.0173066)
(0.649201 0.417511 -0.017441)
(0.579033 0.44737 -0.0175087)
(0.502235 0.488128 -0.0176089)
(0.43297 0.536747 -0.0176379)
(0.358027 0.596038 -0.017641)
(0.257938 0.673348 -0.0176067)
(0.127437 0.767109 -0.0174969)
(3 2.97117e-07 -0.00571425)
(2.99999 5.22767e-07 -0.00571432)
(2.99998 4.31972e-06 -0.00571444)
(2.99994 6.32474e-06 -0.00571479)
(2.99986 2.92467e-05 -0.00571545)
(2.99965 4.08271e-05 -0.00571743)
(2.99922 0.000174793 -0.0057213)
(2.99793 0.000229371 -0.00573193)
(2.9956 0.00105883 -0.00575673)
(2.9873 0.00109762 -0.00580947)
(2.97297 0.00699748 -0.00599162)
(2.91969 0.00499079 -0.00626959)
(2.78791 0.0448304 -0.00750311)
(2.43092 0.0610315 -0.00999772)
(1.3948 0.24061 -0.0150784)
(0.675981 0.429804 -0.0170876)
(0.663168 0.456308 -0.0171193)
(0.691953 0.448646 -0.0171665)
(0.676158 0.466501 -0.0172136)
(0.622558 0.498291 -0.0172729)
(0.557198 0.546847 -0.0172878)
(0.495812 0.605094 -0.0172651)
(0.433825 0.683385 -0.0171742)
(0.352898 0.803357 -0.016971)
(0.198137 1.01306 -0.016552)
(2.99999 1.54426e-08 -2.5658e-09)
(2.99998 8.38737e-08 -8.65583e-09)
(2.99996 3.12171e-07 -1.00829e-08)
(2.99989 8.00869e-07 -1.60122e-08)
(2.99974 2.20487e-06 -1.61431e-08)
(2.99933 5.06611e-06 -2.16456e-08)
(2.99854 1.30439e-05 -2.1985e-08)
(2.99603 2.97692e-05 -3.00167e-08)
(2.99168 7.41305e-05 -3.18094e-08)
(2.97518 0.000167154 -5.82195e-08)
(2.94601 0.000449487 -7.19934e-08)
(2.83604 0.00104954 -1.65224e-07)
(2.53546 0.00286287 -1.84785e-07)
(1.81305 0.00759567 -6.20451e-07)
(0.809553 0.0214113 -6.26658e-07)
(0.49189 0.0214618 8.20085e-08)
(0.555058 0.0227497 -2.61467e-10)
(0.572268 0.0250198 -5.96936e-08)
(0.522757 0.0272047 -6.18978e-08)
(0.435432 0.0292845 -6.22466e-08)
(0.348811 0.0318606 -6.34667e-08)
(0.277849 0.0350767 -6.95773e-08)
(0.207093 0.0385756 -7.68648e-08)
(0.125347 0.0428136 -8.49153e-08)
(0.0556368 0.0491714 -9.24301e-08)
(2.99999 4.62588e-08 -2.5579e-09)
(2.99998 2.51256e-07 -8.66024e-09)
(2.99996 9.35967e-07 -1.00687e-08)
(2.99989 2.39991e-06 -1.60433e-08)
(2.99975 6.61999e-06 -1.60919e-08)
(2.99934 1.52054e-05 -2.16762e-08)
(2.99856 3.93035e-05 -2.19555e-08)
(2.99608 8.95353e-05 -3.00469e-08)
(2.9918 0.000225039 -3.1752e-08)
(2.97549 0.000505332 -5.8182e-08)
(2.94676 0.00137824 -7.18587e-08)
(2.83789 0.00320895 -1.64156e-07)
(2.54142 0.00896226 -1.84085e-07)
(1.82678 0.0237692 -6.16976e-07)
(0.816742 0.0658342 -6.28143e-07)
(0.487997 0.0628188 8.34015e-08)
(0.55326 0.0639241 -1.22629e-09)
(0.571103 0.0682593 -6.06099e-08)
(0.521052 0.0721844 -6.24268e-08)
(0.433533 0.0757881 -6.23842e-08)
(0.347006 0.080265 -6.33519e-08)
(0.275588 0.0856441 -6.93167e-08)
(0.2038 0.0908527 -7.64166e-08)
(0.12083 0.0962149 -8.41334e-08)
(0.0511338 0.102189 -9.14709e-08)
(3 7.5912e-08 -2.54369e-09)
(2.99998 4.11753e-07 -8.66482e-09)
(2.99996 1.53765e-06 -1.00482e-08)
(2.99989 3.94232e-06 -1.6091e-08)
(2.99975 1.0921e-05 -1.60101e-08)
(2.99936 2.51217e-05 -2.17219e-08)
(2.9986 6.52717e-05 -2.19017e-08)
(2.99619 0.000149222 -3.0076e-08)
(2.99203 0.000377073 -3.16152e-08)
(2.97613 0.000848627 -5.79711e-08)
(2.94832 0.00234288 -7.14569e-08)
(2.84186 0.00544833 -1.61558e-07)
(2.55444 0.015503 -1.82971e-07)
(1.85753 0.0410939 -6.10405e-07)
(0.834098 0.11455 -6.35658e-07)
(0.482429 0.10706 8.61348e-08)
(0.552405 0.107542 -3.22556e-09)
(0.572112 0.11484 -6.30968e-08)
(0.521711 0.121905 -6.41831e-08)
(0.434564 0.129157 -6.30351e-08)
(0.34884 0.137595 -6.35419e-08)
(0.277412 0.147089 -6.92411e-08)
(0.204886 0.156427 -7.59437e-08)
(0.120888 0.165379 -8.28567e-08)
(0.0499204 0.17304 -8.93706e-08)
(3 9.64232e-08 -2.52242e-09)
(2.99998 5.23825e-07 -8.67024e-09)
(2.99996 1.95423e-06 -1.00195e-08)
(2.99989 5.0064e-06 -1.61785e-08)
(2.99976 1.38819e-05 -1.58702e-08)
(2.99939 3.17692e-05 -2.18211e-08)
(2.99866 8.38916e-05 -2.18304e-08)
(2.99634 0.000186148 -3.02107e-08)
(2.99238 0.000504067 -3.14581e-08)
(2.9771 0.00107789 -5.79816e-08)
(2.9507 0.00321745 -7.10366e-08)
(2.84801 0.00713167 -1.58069e-07)
(2.57457 0.0235567 -1.80622e-07)
(1.90513 0.0592078 -5.98117e-07)
(0.860249 0.16622 -6.4534e-07)
(0.473123 0.152429 8.91663e-08)
(0.55157 0.150697 -4.62684e-09)
(0.575202 0.160591 -6.62998e-08)
(0.52519 0.170821 -6.73303e-08)
(0.439242 0.182134 -6.53198e-08)
(0.354852 0.194909 -6.41028e-08)
(0.283805 0.209027 -6.8599e-08)
(0.210655 0.223204 -7.4895e-08)
(0.125056 0.23648 -8.0475e-08)
(0.0510502 0.246254 -8.56865e-08)
(3 1.0822e-07 -2.50362e-09)
(2.99998 5.90483e-07 -8.66521e-09)
(2.99996 2.19554e-06 -1.00424e-08)
(2.9999 5.6137e-06 -1.60791e-08)
(2.99978 1.55503e-05 -1.59819e-08)
(2.99942 3.52537e-05 -2.16681e-08)
(2.99873 9.52723e-05 -2.17855e-08)
(2.99654 0.000199759 -2.95478e-08)
(2.99278 0.000608003 -3.13894e-08)
(2.97835 0.00116508 -5.45617e-08)
(2.9535 0.00410065 -6.83553e-08)
(2.85741 0.0083997 -1.47667e-07)
(2.60321 0.0320296 -1.82758e-07)
(1.97252 0.077123 -5.76501e-07)
(0.903214 0.219363 -6.78498e-07)
(0.46844 0.199048 8.75941e-08)
(0.556287 0.193931 -7.50102e-09)
(0.58449 0.205865 -6.73747e-08)
(0.534534 0.218974 -6.85261e-08)
(0.449713 0.234421 -6.62602e-08)
(0.366392 0.251545 -6.47515e-08)
(0.295573 0.270493 -6.78698e-08)
(0.221465 0.290148 -7.29434e-08)
(0.133106 0.308634 -7.68384e-08)
(0.0544397 0.321314 -8.06691e-08)
(3 1.20624e-07 -2.48848e-09)
(2.99999 6.61528e-07 -8.65479e-09)
(2.99996 2.45116e-06 -1.01147e-08)
(2.99991 6.2528e-06 -1.59582e-08)
(2.99979 1.72795e-05 -1.63538e-08)
(2.99945 3.89721e-05 -2.18371e-08)
(2.9988 0.000106158 -2.26208e-08)
(2.99677 0.000213988 -3.32628e-08)
(2.99319 0.000708329 -2.91173e-08)
(2.97996 0.00116464 -9.03062e-08)
(2.95688 0.00507798 -1.22334e-09)
(2.86932 0.0095745 -2.2635e-07)
(2.63958 0.0384629 -5.82875e-08)
(2.05914 0.0920211 -5.33459e-07)
(0.962772 0.268199 -6.5797e-07)
(0.470723 0.246682 6.50236e-08)
(0.568065 0.238451 -2.80227e-08)
(0.601535 0.251446 -7.52405e-08)
(0.551564 0.266858 -7.38199e-08)
(0.46787 0.286632 -6.82231e-08)
(0.385121 0.308713 -6.69742e-08)
(0.314128 0.333422 -6.83023e-08)
(0.238691 0.359839 -7.2675e-08)
(0.146395 0.385631 -7.44073e-08)
(0.0604599 0.403503 -7.63398e-08)
(3 1.43877e-07 -2.47171e-09)
(2.99999 7.85338e-07 -8.61801e-09)
(2.99997 2.91989e-06 -1.01063e-08)
(2.99991 7.4692e-06 -1.5836e-08)
(2.9998 2.06594e-05 -1.60861e-08)
(2.99949 4.70044e-05 -2.11501e-08)
(2.99887 0.000125689 -2.12483e-08)
(2.99704 0.00026631 -2.74272e-08)
(2.99357 0.000804429 -2.94844e-08)
(2.98193 0.00143382 -5.20954e-08)
(2.96068 0.00564922 -3.90543e-08)
(2.88306 0.010638 -1.55452e-07)
(2.68182 0.0417056 -1.21108e-07)
(2.16247 0.100856 -4.83257e-07)
(1.04324 0.305581 -6.57492e-07)
(0.489812 0.295874 5.68077e-08)
(0.590069 0.288529 -2.82754e-08)
(0.627712 0.300224 -7.34553e-08)
(0.577926 0.316081 -7.34182e-08)
(0.495672 0.33939 -7.04018e-08)
(0.413341 0.366778 -6.87358e-08)
(0.341942 0.39841 -6.88172e-08)
(0.264892 0.433596 -7.06559e-08)
(0.167646 0.470068 -7.11591e-08)
(0.0713132 0.498193 -7.15007e-08)
(3 1.61357e-07 -2.43965e-09)
(2.99999 8.7782e-07 -8.62725e-09)
(2.99997 3.26686e-06 -1.009e-08)
(2.99992 8.3741e-06 -1.58279e-08)
(2.99982 2.3118e-05 -1.60386e-08)
(2.99954 5.28918e-05 -2.10801e-08)
(2.99898 0.000138719 -2.10211e-08)
(2.99733 0.000307835 -2.69705e-08)
(2.99417 0.00082864 -2.93043e-08)
(2.98395 0.00173764 -4.29306e-08)
(2.96472 0.00537267 -5.00289e-08)
(2.89736 0.0109417 -1.28484e-07)
(2.72507 0.038532 -1.40437e-07)
(2.27606 0.0942311 -4.48035e-07)
(1.15056 0.28905 -6.95869e-07)
(0.542808 0.332588 1.38165e-08)
(0.628922 0.341227 -3.24161e-08)
(0.664372 0.350913 -6.60961e-08)
(0.615 0.366673 -6.84357e-08)
(0.53515 0.3935 -6.91036e-08)
(0.453243 0.426806 -6.74739e-08)
(0.38144 0.466487 -6.85727e-08)
(0.303473 0.512576 -6.99583e-08)
(0.201745 0.565089 -6.9223e-08)
(0.090616 0.614339 -6.78791e-08)
(3 1.78034e-07 -2.41589e-09)
(2.99999 9.7812e-07 -8.62887e-09)
(2.99997 3.62835e-06 -1.00966e-08)
(2.99993 9.31192e-06 -1.58237e-08)
(2.99984 2.56468e-05 -1.60224e-08)
(2.99959 5.88484e-05 -2.10277e-08)
(2.99909 0.000152522 -2.08266e-08)
(2.99761 0.000347318 -2.64994e-08)
(2.99477 0.000858931 -2.7976e-08)
(2.98568 0.00206448 -4.00459e-08)
(2.96849 0.00491194 -4.16899e-08)
(2.90908 0.0118021 -1.1454e-07)
(2.75879 0.0330973 -8.53074e-08)
(2.35829 0.0821995 -3.12095e-07)
(1.25617 0.242572 -3.7518e-07)
(0.591923 0.371752 -1.34893e-07)
(0.652129 0.402499 -7.47317e-08)
(0.687873 0.401489 -7.29598e-08)
(0.649208 0.417512 -7.17942e-08)
(0.57904 0.447372 -6.92755e-08)
(0.502241 0.488131 -6.69592e-08)
(0.432975 0.536752 -6.73838e-08)
(0.358031 0.596045 -6.73493e-08)
(0.257941 0.673357 -6.60142e-08)
(0.127438 0.767123 -6.36685e-08)
(3 2.82712e-07 -2.44437e-09)
(2.99999 5.76653e-07 -8.62104e-09)
(2.99998 4.2104e-06 -1.02558e-08)
(2.99994 6.35988e-06 -1.60211e-08)
(2.99986 2.91163e-05 -1.64258e-08)
(2.99965 4.08616e-05 -2.1807e-08)
(2.99922 0.000174665 -2.22335e-08)
(2.99792 0.000229433 -3.20186e-08)
(2.9956 0.00105869 -2.66822e-08)
(2.9873 0.00109802 -8.46471e-08)
(2.97296 0.00699701 1.04147e-08)
(2.91968 0.00499283 -1.131e-07)
(2.7879 0.0448279 6.11104e-08)
(2.43089 0.0610416 -3.25761e-07)
(1.39478 0.240624 -2.91651e-07)
(0.675982 0.4298 -3.20373e-07)
(0.663194 0.456308 -8.59837e-08)
(0.691974 0.448648 -7.627e-08)
(0.676174 0.466504 -7.14616e-08)
(0.622571 0.498294 -7.06342e-08)
(0.557208 0.546851 -6.87554e-08)
(0.49582 0.605099 -6.86211e-08)
(0.433831 0.683391 -6.7467e-08)
(0.352902 0.803366 -6.45546e-08)
(0.198139 1.01307 -6.0137e-08)
(2.99999 1.54426e-08 -3.78706e-13)
(2.99998 8.38735e-08 -2.0223e-12)
(2.99996 3.1217e-07 -4.39556e-12)
(2.99989 8.00866e-07 -9.31042e-12)
(2.99974 2.20486e-06 -1.68828e-11)
(2.99933 5.0661e-06 -3.18784e-11)
(2.99854 1.30438e-05 -6.52138e-11)
(2.99603 2.97691e-05 -1.2684e-10)
(2.99168 7.41303e-05 -2.98798e-10)
(2.97518 0.000167154 -6.00282e-10)
(2.94601 0.000449486 -1.65877e-09)
(2.83604 0.00104954 -3.58053e-09)
(2.53546 0.00286286 -8.33577e-09)
(1.81304 0.00759566 -2.28678e-08)
(0.809551 0.0214113 -2.97383e-08)
(0.491891 0.0214618 2.28175e-09)
(0.555059 0.0227497 -8.23815e-10)
(0.572268 0.0250198 -3.06853e-09)
(0.522757 0.0272046 -3.10721e-09)
(0.435432 0.0292845 -3.087e-09)
(0.348811 0.0318606 -3.36451e-09)
(0.27785 0.0350768 -3.76602e-09)
(0.207093 0.0385756 -4.26856e-09)
(0.125347 0.0428136 -4.81909e-09)
(0.055637 0.0491715 -5.44297e-09)
(2.99999 4.62587e-08 -3.79412e-13)
(2.99998 2.51256e-07 -2.02448e-12)
(2.99996 9.35966e-07 -4.40496e-12)
(2.99989 2.3999e-06 -9.33272e-12)
(2.99975 6.61998e-06 -1.69424e-11)
(2.99934 1.52054e-05 -3.20035e-11)
(2.99856 3.93034e-05 -6.55465e-11)
(2.99608 8.95351e-05 -1.27514e-10)
(2.9918 0.000225038 -3.00605e-10)
(2.97549 0.000505331 -6.03133e-10)
(2.94676 0.00137824 -1.67104e-09)
(2.83789 0.00320894 -3.58831e-09)
(2.54142 0.00896224 -8.42036e-09)
(1.82677 0.0237691 -2.29998e-08)
(0.81674 0.065834 -3.01033e-08)
(0.487998 0.0628187 2.43324e-09)
(0.553261 0.063924 -8.29808e-10)
(0.571103 0.0682592 -3.07252e-09)
(0.521053 0.0721844 -3.08968e-09)
(0.433533 0.0757881 -3.05656e-09)
(0.347007 0.080265 -3.33385e-09)
(0.275589 0.0856441 -3.72908e-09)
(0.203801 0.0908528 -4.23673e-09)
(0.12083 0.096215 -4.77922e-09)
(0.051134 0.102189 -5.3981e-09)
(3 7.5912e-08 -3.80162e-13)
(2.99998 4.11753e-07 -2.02567e-12)
(2.99996 1.53765e-06 -4.4144e-12)
(2.99989 3.94231e-06 -9.35544e-12)
(2.99975 1.0921e-05 -1.70105e-11)
(2.99936 2.51216e-05 -3.21477e-11)
(2.9986 6.52716e-05 -6.59921e-11)
(2.99619 0.000149222 -1.28431e-10)
(2.99203 0.000377072 -3.03575e-10)
(2.97613 0.000848626 -6.07688e-10)
(2.94832 0.00234288 -1.6966e-09)
(2.84186 0.00544832 -3.6097e-09)
(2.55444 0.0155029 -8.62652e-09)
(1.85753 0.0410938 -2.34071e-08)
(0.834096 0.114549 -3.11477e-08)
(0.482431 0.10706 2.80694e-09)
(0.552406 0.107542 -8.07712e-10)
(0.572112 0.11484 -3.09586e-09)
(0.521711 0.121905 -3.09481e-09)
(0.434564 0.129157 -3.04202e-09)
(0.34884 0.137595 -3.31306e-09)
(0.277412 0.14709 -3.68719e-09)
(0.204886 0.156427 -4.1846e-09)
(0.120888 0.16538 -4.69524e-09)
(0.0499205 0.17304 -5.23981e-09)
(3 9.64239e-08 -3.79714e-13)
(2.99998 5.23829e-07 -2.01941e-12)
(2.99996 1.95425e-06 -4.40684e-12)
(2.99989 5.00643e-06 -9.344e-12)
(2.99976 1.3882e-05 -1.70185e-11)
(2.99939 3.17694e-05 -3.22052e-11)
(2.99866 8.3892e-05 -6.63387e-11)
(2.99634 0.000186149 -1.30007e-10)
(2.99238 0.000504068 -3.06415e-10)
(2.9771 0.0010779 -6.18998e-10)
(2.9507 0.00321745 -1.74209e-09)
(2.84801 0.0071317 -3.68167e-09)
(2.57457 0.0235565 -8.95616e-09)
(1.90512 0.0592076 -2.41378e-08)
(0.860246 0.166219 -3.30214e-08)
(0.473125 0.152428 3.35001e-09)
(0.551571 0.150697 -6.179e-10)
(0.575203 0.16059 -3.10181e-09)
(0.52519 0.170821 -3.12686e-09)
(0.439243 0.182134 -3.07371e-09)
(0.354852 0.194909 -3.25345e-09)
(0.283806 0.209027 -3.55898e-09)
(0.210655 0.223204 -4.03642e-09)
(0.125056 0.23648 -4.49536e-09)
(0.0510503 0.246254 -4.93655e-09)
(3 1.08221e-07 -3.67659e-13)
(2.99998 5.9049e-07 -1.96923e-12)
(2.99996 2.19557e-06 -4.23328e-12)
(2.9999 5.61378e-06 -8.95785e-12)
(2.99978 1.55505e-05 -1.59101e-11)
(2.99942 3.52542e-05 -2.96385e-11)
(2.99873 9.52734e-05 -6.12553e-11)
(2.99654 0.000199763 -1.08831e-10)
(2.99278 0.000608006 -3.08939e-10)
(2.97835 0.0011651 -5.02065e-10)
(2.9535 0.00410063 -1.81447e-09)
(2.85741 0.00839976 -3.08502e-09)
(2.60321 0.0320293 -1.16301e-08)
(1.97252 0.0771227 -2.4519e-08)
(0.903211 0.219362 -3.6634e-08)
(0.468441 0.199048 4.49126e-09)
(0.556287 0.193931 5.73858e-11)
(0.58449 0.205865 -2.96928e-09)
(0.534534 0.218974 -3.08085e-09)
(0.449713 0.23442 -3.09669e-09)
(0.366392 0.251545 -3.14949e-09)
(0.295573 0.270493 -3.36993e-09)
(0.221465 0.290148 -3.77551e-09)
(0.133106 0.308634 -4.13198e-09)
(0.0544398 0.321314 -4.49363e-09)
(3 1.20624e-07 -3.5071e-13)
(2.99999 6.61527e-07 -1.91605e-12)
(2.99996 2.45116e-06 -4.02967e-12)
(2.99991 6.2528e-06 -8.30444e-12)
(2.99979 1.72795e-05 -1.45724e-11)
(2.99945 3.8972e-05 -2.57884e-11)
(2.9988 0.000106158 -5.39467e-11)
(2.99677 0.000213988 -7.22848e-11)
(2.99319 0.000708328 -3.28817e-10)
(2.97996 0.00116464 -1.93823e-10)
(2.95688 0.00507797 -2.39166e-09)
(2.86932 0.0095745 -2.46824e-09)
(2.63958 0.0384629 -1.29691e-08)
(2.05913 0.092021 -2.56593e-08)
(0.962769 0.268199 -4.14718e-08)
(0.470724 0.246681 5.4504e-09)
(0.568064 0.238451 8.46425e-10)
(0.601534 0.251445 -2.84218e-09)
(0.551564 0.266858 -3.06038e-09)
(0.46787 0.286632 -3.18624e-09)
(0.385121 0.308713 -3.06075e-09)
(0.314128 0.333422 -3.18745e-09)
(0.238691 0.35984 -3.59969e-09)
(0.146395 0.385631 -3.83948e-09)
(0.0604599 0.403504 -4.04871e-09)
(3 1.43876e-07 -3.68564e-13)
(2.99999 7.85333e-07 -1.98352e-12)
(2.99997 2.91987e-06 -4.2926e-12)
(2.99991 7.46915e-06 -8.91779e-12)
(2.9998 2.06593e-05 -1.63575e-11)
(2.99949 4.7004e-05 -3.02395e-11)
(2.99887 0.000125689 -6.22572e-11)
(2.99704 0.000266307 -1.16743e-10)
(2.99357 0.000804428 -3.1017e-10)
(2.98193 0.0014338 -4.84184e-10)
(2.96068 0.00564924 -2.01671e-09)
(2.88306 0.010638 -2.92283e-09)
(2.68182 0.0417057 -1.21199e-08)
(2.16246 0.100856 -2.55769e-08)
(1.04323 0.305581 -4.51861e-08)
(0.489813 0.295874 5.39859e-09)
(0.590069 0.288529 1.26814e-09)
(0.627711 0.300224 -2.68337e-09)
(0.577925 0.316081 -3.05567e-09)
(0.495672 0.33939 -3.38642e-09)
(0.413341 0.366777 -3.0552e-09)
(0.341942 0.39841 -3.03551e-09)
(0.264892 0.433597 -3.27424e-09)
(0.167646 0.470068 -3.39996e-09)
(0.0713131 0.498194 -3.49802e-09)
(3 1.61357e-07 -3.68245e-13)
(2.99999 8.77822e-07 -1.98069e-12)
(2.99997 3.26687e-06 -4.2866e-12)
(2.99992 8.37412e-06 -8.89726e-12)
(2.99982 2.31181e-05 -1.62748e-11)
(2.99954 5.2892e-05 -2.99873e-11)
(2.99898 0.00013872 -6.13463e-11)
(2.99733 0.000307836 -1.14626e-10)
(2.99417 0.000828645 -2.92228e-10)
(2.98395 0.00173765 -5.29049e-10)
(2.96472 0.00537272 -1.79336e-09)
(2.89736 0.0109418 -2.8154e-09)
(2.72507 0.0385324 -1.1178e-08)
(2.27605 0.0942322 -2.43203e-08)
(1.15055 0.289053 -4.90726e-08)
(0.542806 0.332588 2.58705e-09)
(0.62892 0.341227 6.93787e-10)
(0.66437 0.350912 -2.66246e-09)
(0.614999 0.366673 -3.1083e-09)
(0.535148 0.3935 -3.54521e-09)
(0.453242 0.426806 -3.09564e-09)
(0.38144 0.466487 -3.0122e-09)
(0.303473 0.512576 -3.16101e-09)
(0.201744 0.56509 -3.17036e-09)
(0.0906158 0.61434 -3.06115e-09)
(3 1.78032e-07 -3.60317e-13)
(2.99999 9.78111e-07 -1.94666e-12)
(2.99997 3.62832e-06 -4.16363e-12)
(2.99993 9.31183e-06 -8.62938e-12)
(2.99984 2.56465e-05 -1.53467e-11)
(2.99959 5.88478e-05 -2.80412e-11)
(2.99909 0.000152521 -5.45279e-11)
(2.99761 0.000347313 -1.01331e-10)
(2.99477 0.000858931 -2.37631e-10)
(2.98568 0.00206445 -4.55368e-10)
(2.96849 0.00491199 -1.19899e-09)
(2.90908 0.0118021 -2.56366e-09)
(2.75879 0.0330978 -6.57395e-09)
(2.35828 0.0822006 -1.47716e-08)
(1.25617 0.242577 -2.52707e-08)
(0.591923 0.371752 -7.90689e-09)
(0.652129 0.402499 -3.24416e-09)
(0.687872 0.401488 -3.72872e-09)
(0.649207 0.417512 -3.82405e-09)
(0.579039 0.447371 -3.86766e-09)
(0.50224 0.488131 -3.37597e-09)
(0.432974 0.536752 -3.19384e-09)
(0.35803 0.596045 -3.15265e-09)
(0.25794 0.673358 -3.05141e-09)
(0.127437 0.767123 -2.77414e-09)
(3 2.8271e-07 -4.0002e-13)
(2.99999 5.76666e-07 -2.10506e-12)
(2.99998 4.21041e-06 -4.72253e-12)
(2.99994 6.35995e-06 -9.87335e-12)
(2.99986 2.91165e-05 -1.88591e-11)
(2.99965 4.0862e-05 -3.62023e-11)
(2.99922 0.000174666 -7.10431e-11)
(2.99792 0.000229435 -1.75176e-10)
(2.9956 0.0010587 -2.16132e-10)
(2.9873 0.00109803 -1.02569e-09)
(2.97296 0.00699705 -4.20417e-10)
(2.91968 0.00499291 -3.90033e-09)
(2.7879 0.0448281 -4.05716e-09)
(2.43089 0.0610421 -1.3661e-08)
(1.39478 0.240625 -2.37532e-08)
(0.67598 0.429799 -2.14474e-08)
(0.663194 0.456307 -4.32309e-09)
(0.691974 0.448648 -3.95129e-09)
(0.676173 0.466503 -4.10657e-09)
(0.62257 0.498293 -4.1158e-09)
(0.557207 0.546851 -3.78598e-09)
(0.495819 0.605098 -3.6663e-09)
(0.43383 0.683391 -3.46482e-09)
(0.352902 0.803366 -3.23835e-09)
(0.198139 1.01307 -3.03807e-09)
(2.99999 1.54426e-08 -2.13386e-14)
(2.99998 8.38736e-08 -9.49539e-14)
(2.99996 3.1217e-07 -3.13801e-13)
(2.99989 8.00866e-07 -6.78812e-13)
(2.99974 2.20486e-06 -1.92294e-12)
(2.99933 5.0661e-06 -3.9612e-12)
(2.99854 1.30438e-05 -1.09102e-11)
(2.99603 2.97691e-05 -2.29469e-11)
(2.99168 7.41303e-05 -6.06609e-11)
(2.97518 0.000167154 -1.26574e-10)
(2.94601 0.000449486 -3.65538e-10)
(2.83604 0.00104954 -7.98724e-10)
(2.53546 0.00286286 -1.88328e-09)
(1.81304 0.00759566 -5.19409e-09)
(0.809551 0.0214113 -6.80074e-09)
(0.491891 0.0214618 5.54535e-10)
(0.555059 0.0227497 -1.4051e-10)
(0.572268 0.0250198 -6.62303e-10)
(0.522757 0.0272046 -6.83509e-10)
(0.435432 0.0292845 -7.1255e-10)
(0.348811 0.0318606 -8.26925e-10)
(0.27785 0.0350768 -9.80879e-10)
(0.207093 0.0385756 -1.15837e-09)
(0.125347 0.0428136 -1.32383e-09)
(0.055637 0.0491715 -1.50767e-09)
(2.99999 4.62587e-08 -2.16155e-14)
(2.99998 2.51256e-07 -9.61955e-14)
(2.99996 9.35966e-07 -3.17702e-13)
(2.99989 2.3999e-06 -6.87083e-13)
(2.99975 6.61998e-06 -1.94477e-12)
(2.99934 1.52054e-05 -4.00551e-12)
(2.99856 3.93034e-05 -1.10229e-11)
(2.99608 8.95351e-05 -2.31823e-11)
(2.9918 0.000225038 -6.12394e-11)
(2.97549 0.000505331 -1.27626e-10)
(2.94676 0.00137824 -3.69152e-10)
(2.83789 0.00320894 -8.02475e-10)
(2.54142 0.00896224 -1.90497e-09)
(1.82677 0.0237691 -5.23146e-09)
(0.81674 0.065834 -6.88998e-09)
(0.487998 0.0628187 5.88747e-10)
(0.553261 0.063924 -1.4397e-10)
(0.571103 0.0682592 -6.63322e-10)
(0.521053 0.0721844 -6.77546e-10)
(0.433533 0.0757881 -7.01588e-10)
(0.347007 0.080265 -8.1469e-10)
(0.275589 0.0856441 -9.68993e-10)
(0.2038 0.0908528 -1.1494e-09)
(0.12083 0.096215 -1.31936e-09)
(0.051134 0.102189 -1.50893e-09)
(3 7.5912e-08 -2.20014e-14)
(2.99998 4.11753e-07 -9.79625e-14)
(2.99996 1.53765e-06 -3.23166e-13)
(2.99989 3.94231e-06 -6.98613e-13)
(2.99975 1.0921e-05 -1.9767e-12)
(2.99936 2.51216e-05 -4.07006e-12)
(2.9986 6.52716e-05 -1.12007e-11)
(2.99619 0.000149222 -2.35622e-11)
(2.99203 0.000377072 -6.22694e-11)
(2.97613 0.000848626 -1.29525e-10)
(2.94832 0.00234288 -3.76791e-10)
(2.84186 0.00544832 -8.11739e-10)
(2.55444 0.0155029 -1.95788e-09)
(1.85753 0.0410938 -5.34254e-09)
(0.834096 0.114549 -7.14448e-09)
(0.482431 0.10706 6.74159e-10)
(0.552406 0.107542 -1.4348e-10)
(0.572112 0.11484 -6.72595e-10)
(0.521711 0.121905 -6.80807e-10)
(0.434564 0.129157 -6.98254e-10)
(0.34884 0.137595 -8.07382e-10)
(0.277412 0.14709 -9.60648e-10)
(0.204886 0.156427 -1.13868e-09)
(0.120888 0.16538 -1.30315e-09)
(0.0499205 0.17304 -1.48317e-09)
(3 9.64238e-08 -2.22221e-14)
(2.99998 5.23829e-07 -9.87279e-14)
(2.99996 1.95425e-06 -3.26488e-13)
(2.99989 5.00643e-06 -7.05241e-13)
(2.99976 1.3882e-05 -2.00451e-12)
(2.99939 3.17694e-05 -4.13342e-12)
(2.99866 8.3892e-05 -1.14052e-11)
(2.99634 0.000186149 -2.42177e-11)
(2.99238 0.000504068 -6.35149e-11)
(2.9771 0.0010779 -1.3365e-10)
(2.9507 0.00321745 -3.90509e-10)
(2.84801 0.0071317 -8.36168e-10)
(2.57457 0.0235566 -2.04471e-09)
(1.90512 0.0592076 -5.54423e-09)
(0.860246 0.166219 -7.60969e-09)
(0.473125 0.152428 8.00637e-10)
(0.551571 0.150697 -1.02772e-10)
(0.575203 0.16059 -6.82243e-10)
(0.52519 0.170821 -6.96917e-10)
(0.439243 0.182134 -7.15029e-10)
(0.354852 0.194909 -7.91506e-10)
(0.283806 0.209027 -9.25251e-10)
(0.210655 0.223204 -1.10146e-09)
(0.125056 0.23648 -1.25373e-09)
(0.0510503 0.246254 -1.41318e-09)
(3 1.08221e-07 -1.97911e-14)
(2.99998 5.9049e-07 -8.84759e-14)
(2.99996 2.19557e-06 -2.90282e-13)
(2.9999 5.61378e-06 -6.26346e-13)
(2.99978 1.55505e-05 -1.77213e-12)
(2.99942 3.52542e-05 -3.58882e-12)
(2.99873 9.52734e-05 -1.03743e-11)
(2.99654 0.000199763 -1.95246e-11)
(2.99278 0.000608006 -6.50393e-11)
(2.97835 0.0011651 -1.0764e-10)
(2.9535 0.00410063 -4.12121e-10)
(2.85741 0.00839976 -7.05686e-10)
(2.60321 0.0320293 -2.69037e-09)
(1.97252 0.0771227 -5.68247e-09)
(0.903211 0.219363 -8.51032e-09)
(0.468441 0.199048 1.07149e-09)
(0.556287 0.193931 5.71458e-11)
(0.58449 0.205865 -6.5962e-10)
(0.534534 0.218974 -6.95368e-10)
(0.449713 0.234421 -7.30102e-10)
(0.366392 0.251545 -7.70021e-10)
(0.295573 0.270493 -8.74523e-10)
(0.221465 0.290148 -1.0308e-09)
(0.133106 0.308634 -1.14742e-09)
(0.0544398 0.321314 -1.2928e-09)
(3 1.20624e-07 -1.68296e-14)
(2.99999 6.61527e-07 -7.70254e-14)
(2.99996 2.45116e-06 -2.47126e-13)
(2.99991 6.2528e-06 -5.25649e-13)
(2.99979 1.72795e-05 -1.47811e-12)
(2.99945 3.8972e-05 -2.87441e-12)
(2.9988 0.000106158 -8.98899e-12)
(2.99677 0.000213988 -1.22045e-11)
(2.99319 0.000708328 -7.0253e-11)