/*--------------------------------*- C++ -*----------------------------------*\
| =========                 |                                                 |
| \\      /  F ield         | OpenFOAM: The Open Source CFD Toolbox           |
|  \\    /   O peration     | Version:  4.1                                   |
|   \\  /    A nd           | Web:      www.OpenFOAM.org                      |
|    \\/     M anipulation  |                                                 |
\*---------------------------------------------------------------------------*/
FoamFile
{
    version     2.0;
    format      ascii;
    class       volScalarField;
    location    "0.84";
    object      Ma;
}
// * * * * * * * * * * * * * * * * * * * * * * * * * * * * * * * * * * * * * //

dimensions      [0 0 0 0 0 0 0];

internalField   nonuniform List<scalar> 
18000
(
5.17614e-12
5.11911e-12
5.05047e-12
4.99439e-12
4.93877e-12
4.88382e-12
4.82942e-12
4.77615e-12
4.72367e-12
4.67303e-12
6.44425e-12
6.2232e-12
5.99889e-12
5.79323e-12
5.5964e-12
5.40746e-12
5.22605e-12
5.05223e-12
4.88476e-12
4.72803e-12
8.11605e-12
7.63528e-12
7.17598e-12
6.75648e-12
6.36571e-12
6.00221e-12
5.66442e-12
5.34854e-12
5.05435e-12
4.78423e-12
1.03476e-11
9.45714e-12
8.64761e-12
7.92099e-12
7.26807e-12
6.67952e-12
6.14785e-12
5.66686e-12
5.2308e-12
4.84137e-12
1.33696e-11
1.18347e-11
1.05004e-11
9.33915e-12
8.33116e-12
7.45202e-12
6.68306e-12
6.00894e-12
5.41518e-12
4.89968e-12
1.75233e-11
1.49749e-11
1.28563e-11
1.10773e-11
9.5889e-12
8.33597e-12
7.27664e-12
6.37659e-12
5.60758e-12
4.95896e-12
2.33147e-11
1.91823e-11
1.58799e-11
1.32236e-11
1.10853e-11
9.35137e-12
7.93563e-12
6.77202e-12
5.809e-12
5.01917e-12
3.16579e-11
2.50568e-11
2.00165e-11
1.61514e-11
1.31777e-11
1.08688e-11
9.06066e-12
7.63369e-12
6.49824e-12
5.62157e-12
5.52168e-09
5.62449e-09
5.307e-09
5.01665e-09
4.7535e-09
4.5145e-09
4.29682e-09
4.098e-09
3.91639e-09
3.84844e-09
6.11379e-07
6.53587e-08
5.58813e-08
4.89154e-08
4.30404e-08
3.80626e-08
3.38289e-08
3.02171e-08
2.70233e-08
1.10581e-07
5.56693e-12
5.50189e-12
5.42938e-12
5.36595e-12
5.30378e-12
5.24275e-12
5.18156e-12
5.12251e-12
5.06412e-12
5.00724e-12
6.99016e-12
6.73852e-12
6.49327e-12
6.26113e-12
6.03968e-12
5.82727e-12
5.62483e-12
5.43055e-12
5.24475e-12
5.0688e-12
8.88123e-12
8.33e-12
7.82244e-12
7.34545e-12
6.90419e-12
6.49494e-12
6.11618e-12
5.76341e-12
5.43528e-12
5.1328e-12
1.14417e-11
1.04141e-11
9.50418e-12
8.67203e-12
7.92857e-12
7.26202e-12
6.66347e-12
6.12453e-12
5.63658e-12
5.19739e-12
1.49673e-11
1.31777e-11
1.16512e-11
1.03069e-11
9.14844e-12
8.14594e-12
7.27452e-12
6.51487e-12
5.84914e-12
5.2648e-12
1.99112e-11
1.68934e-11
1.44232e-11
1.23359e-11
1.06078e-11
9.16674e-12
7.95882e-12
6.93959e-12
6.07441e-12
5.33454e-12
2.69696e-11
2.19771e-11
1.8043e-11
1.48762e-11
1.23647e-11
1.03516e-11
8.72491e-12
7.40089e-12
6.31182e-12
5.40644e-12
3.73025e-11
2.90425e-11
2.28318e-11
1.80904e-11
1.44977e-11
1.17377e-11
9.59385e-12
7.90915e-12
6.56973e-12
5.48785e-12
2.27046e-10
5.21184e-10
4.30725e-10
3.5717e-10
2.99334e-10
2.53208e-10
2.1602e-10
1.8574e-10
1.60895e-10
1.42755e-10
4.30183e-07
6.30139e-08
5.51725e-08
4.85218e-08
4.29815e-08
3.83253e-08
3.43786e-08
3.10075e-08
2.81189e-08
2.71214e-08
5.5657e-13
5.35774e-13
4.25922e-13
4.11192e-13
3.97378e-13
3.84966e-13
3.73618e-13
3.63831e-13
3.54932e-13
3.45212e-13
7.71514e-13
7.02389e-13
6.34688e-13
5.83764e-13
5.37577e-13
4.96343e-13
4.59114e-13
4.26678e-13
3.99374e-13
3.58981e-13
9.88792e-13
8.70819e-13
8.41951e-13
7.55165e-13
6.77827e-13
6.10039e-13
5.51566e-13
5.0149e-13
4.5662e-13
3.77829e-13
1.34901e-12
1.17981e-12
1.15776e-12
1.00961e-12
8.8151e-13
7.73233e-13
6.81746e-13
6.04675e-13
5.37063e-13
4.04582e-13
1.9237e-12
1.68395e-12
1.61218e-12
1.36271e-12
1.1546e-12
9.84962e-13
8.45761e-13
7.31235e-13
6.33174e-13
4.3874e-13
2.84709e-12
2.48406e-12
2.26474e-12
1.84655e-12
1.51482e-12
1.25369e-12
1.04698e-12
8.82115e-13
7.4398e-13
4.79011e-13
4.34888e-12
3.73707e-12
3.20702e-12
2.51113e-12
1.98664e-12
1.59154e-12
1.2897e-12
1.05713e-12
8.69166e-13
5.25475e-13
6.92607e-12
5.71249e-12
4.57981e-12
3.42789e-12
2.60623e-12
2.01475e-12
1.58124e-12
1.2589e-12
1.00836e-12
5.76996e-13
3.57149e-10
2.25714e-11
1.81661e-11
1.3231e-11
9.85094e-12
7.4769e-12
5.77575e-12
4.53624e-12
3.61559e-12
2.84488e-12
3.67623e-07
5.99117e-09
4.44401e-09
3.42181e-09
2.67584e-09
2.12145e-09
1.70293e-09
1.38248e-09
1.13446e-09
9.67525e-10
3.83012e-13
3.60049e-13
1.72094e-13
1.51589e-13
1.31283e-13
1.12182e-13
9.43268e-14
7.79239e-14
6.34284e-14
3.78766e-14
5.3122e-13
4.59551e-13
3.85921e-13
3.36245e-13
2.89612e-13
2.47988e-13
2.1127e-13
1.79499e-13
1.52937e-13
7.97954e-14
5.95668e-13
4.89896e-13
5.23555e-13
4.56279e-13
3.95961e-13
3.44674e-13
3.02091e-13
2.6808e-13
2.3909e-13
1.19671e-13
7.30608e-13
6.36571e-13
7.60769e-13
6.58923e-13
5.69729e-13
4.96066e-13
4.35389e-13
3.86123e-13
3.43238e-13
1.71016e-13
9.61486e-13
9.46734e-13
1.1083e-12
9.43648e-13
8.03746e-13
6.89945e-13
5.97316e-13
5.22168e-13
4.56376e-13
2.24311e-13
1.35023e-12
1.48986e-12
1.61173e-12
1.33721e-12
1.11165e-12
9.33401e-13
7.90771e-13
6.77295e-13
5.79395e-13
2.80813e-13
1.99561e-12
2.36894e-12
2.34156e-12
1.87843e-12
1.51528e-12
1.23736e-12
1.02125e-12
8.52793e-13
7.12378e-13
3.4053e-13
3.23107e-12
3.77141e-12
3.4033e-12
2.62442e-12
2.04353e-12
1.61632e-12
1.29539e-12
1.05171e-12
8.5642e-13
4.03397e-13
4.01195e-10
7.54747e-12
4.82474e-12
3.57667e-12
2.69342e-12
2.06588e-12
1.60941e-12
1.27312e-12
1.01159e-12
4.71391e-13
3.6493e-07
1.88131e-09
1.88375e-10
1.2575e-10
8.629e-11
6.05194e-11
4.32883e-11
3.15313e-11
2.33611e-11
1.76756e-11
3.82731e-13
3.59313e-13
1.71922e-13
1.51257e-13
1.30853e-13
1.11682e-13
9.41076e-14
7.76293e-14
6.27835e-14
3.69035e-14
5.31073e-13
4.59347e-13
3.86015e-13
3.36424e-13
2.89813e-13
2.47847e-13
2.1109e-13
1.79622e-13
1.52838e-13
7.9241e-14
5.95488e-13
4.89781e-13
5.24128e-13
4.56758e-13
3.96098e-13
3.44933e-13
3.02231e-13
2.67955e-13
2.388e-13
1.19238e-13
7.30202e-13
6.36732e-13
7.61555e-13
6.59755e-13
5.70381e-13
4.96542e-13
4.35854e-13
3.86455e-13
3.43327e-13
1.70288e-13
9.60179e-13
9.47259e-13
1.11023e-12
9.45206e-13
8.05074e-13
6.91305e-13
5.98045e-13
5.22301e-13
4.56775e-13
2.24344e-13
1.34604e-12
1.49128e-12
1.61448e-12
1.34018e-12
1.11407e-12
9.35501e-13
7.9264e-13
6.78489e-13
5.80421e-13
2.81122e-13
1.98437e-12
2.37214e-12
2.34734e-12
1.88352e-12
1.51988e-12
1.24129e-12
1.02434e-12
8.55125e-13
7.14607e-13
3.41646e-13
3.21519e-12
3.77813e-12
3.41376e-12
2.63375e-12
2.05162e-12
1.62305e-12
1.30079e-12
1.05615e-12
8.59896e-13
4.05589e-13
4.25384e-10
8.32119e-12
4.98886e-12
3.67165e-12
2.74956e-12
2.09919e-12
1.62897e-12
1.28443e-12
1.01792e-12
4.72757e-13
3.87327e-07
2.05494e-09
1.79678e-11
6.41091e-12
4.35553e-12
3.08814e-12
2.25469e-12
1.68894e-12
1.28165e-12
6.29616e-13
3.82767e-13
3.58977e-13
1.72426e-13
1.51789e-13
1.31183e-13
1.11914e-13
9.41202e-14
7.79386e-14
6.31733e-14
3.681e-14
5.31953e-13
4.59802e-13
3.87231e-13
3.37463e-13
2.90762e-13
2.48545e-13
2.11491e-13
1.7987e-13
1.5344e-13
7.97677e-14
5.97354e-13
4.91569e-13
5.2647e-13
4.58636e-13
3.9785e-13
3.46155e-13
3.0312e-13
2.68587e-13
2.39316e-13
1.19794e-13
7.34059e-13
6.40783e-13
7.65403e-13
6.62848e-13
5.72941e-13
4.98461e-13
4.37173e-13
3.87589e-13
3.4405e-13
1.70775e-13
9.67594e-13
9.54807e-13
1.11643e-12
9.50197e-13
8.09021e-13
6.9464e-13
6.00704e-13
5.24407e-13
4.58222e-13
2.25268e-13
1.35976e-12
1.50465e-12
1.62523e-12
1.34834e-12
1.12044e-12
9.40778e-13
7.96861e-13
6.81499e-13
5.82912e-13
2.82819e-13
2.00992e-12
2.39522e-12
2.36565e-12
1.89745e-12
1.53052e-12
1.24985e-12
1.03107e-12
8.60252e-13
7.18524e-13
3.4436e-13
3.26954e-12
3.81969e-12
3.44538e-12
2.65711e-12
2.06909e-12
1.63658e-12
1.31148e-12
1.06423e-12
8.65952e-13
4.09603e-13
4.52974e-10
8.62328e-12
5.04935e-12
3.71291e-12
2.77911e-12
2.12108e-12
1.64529e-12
1.29653e-12
1.0272e-12
4.78999e-13
4.22423e-07
2.21514e-09
1.78517e-11
5.17024e-12
3.69698e-12
2.72431e-12
2.04717e-12
1.56688e-12
1.20789e-12
5.59824e-13
3.82722e-13
3.58715e-13
1.72982e-13
1.52433e-13
1.31779e-13
1.12503e-13
9.46165e-14
7.82316e-14
6.4235e-14
4.9627e-14
5.32931e-13
4.60421e-13
3.88874e-13
3.38732e-13
2.91879e-13
2.49626e-13
2.12426e-13
1.80548e-13
1.5384e-13
8.38822e-14
5.99609e-13
4.93624e-13
5.29166e-13
4.61003e-13
3.99735e-13
3.47743e-13
3.04203e-13
2.69463e-13
2.40256e-13
1.22222e-13
7.38597e-13
6.45439e-13
7.69702e-13
6.66581e-13
5.76099e-13
5.01035e-13
4.39008e-13
3.88807e-13
3.45567e-13
1.73006e-13
9.76288e-13
9.63481e-13
1.12354e-12
9.55971e-13
8.13646e-13
6.98658e-13
6.04073e-13
5.2702e-13
4.60342e-13
2.27852e-13
1.37628e-12
1.51962e-12
1.63747e-12
1.35818e-12
1.12797e-12
9.47053e-13
8.02282e-13
6.85821e-13
5.86106e-13
2.86123e-13
2.04026e-12
2.42148e-12
2.38607e-12
1.91358e-12
1.54305e-12
1.26e-12
1.03947e-12
8.66971e-13
7.23705e-13
3.4893e-13
3.3095e-12
3.86597e-12
3.481e-12
2.68391e-12
2.08945e-12
1.65237e-12
1.32456e-12
1.0749e-12
8.74019e-13
4.15721e-13
4.56387e-10
8.475e-12
5.10986e-12
3.75802e-12
2.8125e-12
2.14648e-12
1.66552e-12
1.31173e-12
1.03913e-12
4.87835e-13
4.43575e-07
2.18367e-09
1.67834e-11
5.22315e-12
3.74329e-12
2.75966e-12
2.07499e-12
1.58791e-12
1.22423e-12
5.71172e-13
3.82696e-13
3.5757e-13
1.73169e-13
1.52699e-13
1.32744e-13
1.15486e-13
1.04547e-13
1.72896e-13
5.97399e-13
1.66442e-12
5.33257e-13
4.59809e-13
3.89417e-13
3.39496e-13
2.93078e-13
2.51836e-13
2.17099e-13
2.09459e-13
3.86601e-13
1.09436e-12
6.0054e-13
4.93472e-13
5.30021e-13
4.61963e-13
4.01141e-13
3.50213e-13
3.09076e-13
2.83015e-13
3.38696e-13
7.31764e-13
7.40753e-13
6.45729e-13
7.70818e-13
6.67874e-13
5.77683e-13
5.03587e-13
4.44262e-13
3.98651e-13
3.91352e-13
5.34137e-13
9.80058e-13
9.64078e-13
1.1248e-12
9.57564e-13
8.15659e-13
7.01223e-13
6.09331e-13
5.36383e-13
4.88939e-13
4.41066e-13
1.38177e-12
1.52044e-12
1.63901e-12
1.36048e-12
1.13092e-12
9.50962e-13
8.08854e-13
6.96738e-13
6.08865e-13
4.17523e-13
2.04764e-12
2.42277e-12
2.38854e-12
1.91729e-12
1.54758e-12
1.26588e-12
1.04779e-12
8.79445e-13
7.44996e-13
4.3691e-13
3.21293e-12
3.86803e-12
3.48566e-12
2.69076e-12
2.09711e-12
1.66062e-12
1.33474e-12
1.09023e-12
8.96739e-13
4.80945e-13
3.08454e-10
6.92545e-12
5.10953e-12
3.76992e-12
2.82481e-12
2.15912e-12
1.68033e-12
1.33133e-12
1.06347e-12
5.40851e-13
3.49616e-07
1.11969e-09
1.026e-11
5.2099e-12
3.76037e-12
2.77762e-12
2.09505e-12
1.61215e-12
1.25199e-12
6.1846e-13
4.08204e-13
4.45367e-13
2.47635e-13
1.56132e-13
2.40403e-13
6.62612e-13
1.50981e-12
6.05057e-12
2.30966e-11
5.23423e-11
5.84631e-13
6.14975e-13
4.87105e-13
3.65555e-13
3.02684e-13
5.76647e-13
1.16387e-12
3.79309e-12
1.3713e-11
3.46124e-11
7.02725e-13
7.66266e-13
6.87243e-13
5.31864e-13
3.95734e-13
4.94755e-13
1.02273e-12
2.59547e-12
8.80331e-12
2.29146e-11
9.10858e-13
1.03572e-12
9.83666e-13
7.80478e-13
5.90288e-13
5.33425e-13
9.50846e-13
1.93435e-12
6.08831e-12
1.56586e-11
1.24312e-12
1.45716e-12
1.39093e-12
1.11098e-12
8.57414e-13
6.87145e-13
8.76854e-13
1.62813e-12
4.4902e-12
1.10426e-11
1.7653e-12
2.10367e-12
1.9558e-12
1.54836e-12
1.19811e-12
9.31759e-13
9.15987e-13
1.55175e-12
3.49583e-12
8.01702e-12
2.57924e-12
3.09669e-12
2.74993e-12
2.13167e-12
1.63356e-12
1.25048e-12
1.06328e-12
1.42827e-12
2.85144e-12
5.97749e-12
3.7781e-12
4.62308e-12
3.87999e-12
2.91768e-12
2.18996e-12
1.6486e-12
1.30554e-12
1.40007e-12
2.42245e-12
4.56862e-12
1.92352e-10
6.36332e-12
5.50454e-12
3.99112e-12
2.90832e-12
2.13919e-12
1.62629e-12
1.48109e-12
2.13069e-12
3.57532e-12
9.24854e-08
2.45206e-09
1.00465e-11
5.35628e-12
3.81713e-12
2.73505e-12
2.01546e-12
1.65517e-12
1.95892e-12
2.8726e-12
2.50453e-12
2.34833e-12
1.49887e-12
1.68464e-13
2.7362e-12
9.14258e-12
2.9654e-11
1.27837e-10
3.68133e-10
4.86049e-10
3.52956e-12
3.39764e-12
2.50864e-12
1.12623e-12
1.3654e-12
6.47421e-12
2.07855e-11
7.8013e-11
2.23981e-10
3.11295e-10
4.79612e-12
4.64956e-12
3.66897e-12
2.27044e-12
2.31654e-13
4.20448e-12
1.45859e-11
5.08532e-11
1.43396e-10
2.1353e-10
6.45952e-12
6.22072e-12
5.05644e-12
3.53937e-12
1.37674e-12
2.34223e-12
1.01754e-11
3.47283e-11
9.58626e-11
1.51558e-10
8.693e-12
8.2265e-12
6.74299e-12
5.00376e-12
2.77331e-12
7.73767e-13
6.99066e-12
2.42649e-11
6.63348e-11
1.10183e-10
1.17474e-11
1.08325e-11
8.82931e-12
6.71077e-12
4.2643e-12
1.11573e-12
4.48932e-12
1.70619e-11
4.71768e-11
8.17085e-11
1.60115e-11
1.4295e-11
1.14594e-11
8.74052e-12
5.93291e-12
2.64622e-12
2.44977e-12
1.21637e-11
3.42955e-11
6.1609e-11
2.21318e-11
1.89849e-11
1.48272e-11
1.11963e-11
7.81248e-12
4.24211e-12
1.00417e-12
8.54683e-12
2.532e-11
4.71241e-11
6.03911e-10
2.56346e-11
1.9226e-11
1.42187e-11
9.97505e-12
5.95076e-12
1.66996e-12
5.75915e-12
1.8888e-11
3.64662e-11
9.42624e-07
3.54908e-09
2.67998e-11
1.80029e-11
1.24853e-11
7.78551e-12
3.18699e-12
3.57447e-12
1.41371e-11
2.84788e-11
3.29862e-12
2.96704e-12
1.95089e-12
1.97306e-12
8.56861e-12
3.14017e-11
1.44609e-10
5.18619e-10
9.23552e-10
1.04952e-09
4.3641e-12
4.06668e-12
3.09489e-12
1.63535e-12
5.33067e-12
2.1066e-11
8.7271e-11
3.0706e-10
5.70966e-10
6.33486e-10
5.65609e-12
5.33718e-12
4.38267e-12
2.69402e-12
2.86654e-12
1.386e-11
5.55692e-11
1.91145e-10
3.74409e-10
4.10438e-10
7.30602e-12
6.87053e-12
5.83344e-12
4.16523e-12
1.94071e-12
8.67144e-12
3.65044e-11
1.23998e-10
2.53447e-10
2.75837e-10
9.46355e-12
8.77159e-12
7.52026e-12
5.78599e-12
3.05564e-12
4.96627e-12
2.41556e-11
8.2745e-11
1.7568e-10
1.90391e-10
1.2357e-11
1.11847e-11
9.53532e-12
7.57952e-12
4.81472e-12
2.56015e-12
1.56846e-11
5.61708e-11
1.24147e-10
1.34301e-10
1.6329e-11
1.43189e-11
1.20038e-11
9.62504e-12
6.71486e-12
2.69586e-12
9.80561e-12
3.86253e-11
8.88164e-11
9.63719e-11
2.19276e-11
1.84799e-11
1.5099e-11
1.20165e-11
8.7494e-12
4.49994e-12
5.5405e-12
2.65806e-11
6.4203e-11
7.0113e-11
2.87215e-10
2.48974e-11
1.90644e-11
1.48816e-11
1.09943e-11
6.5812e-12
2.82094e-12
1.80521e-11
4.67293e-11
5.15071e-11
2.03871e-07
9.25292e-09
6.06391e-11
1.83564e-11
1.35071e-11
8.71044e-12
2.93331e-12
1.18223e-11
3.40918e-11
3.80591e-11
1.03406e-12
1.28475e-12
1.54097e-12
3.19258e-12
8.35542e-12
2.43999e-11
8.5103e-11
2.40491e-10
3.53087e-10
3.34042e-10
1.13228e-12
1.29945e-12
1.42569e-12
2.43578e-12
5.9938e-12
1.71723e-11
5.69775e-11
1.55478e-10
2.15093e-10
1.48479e-10
1.23592e-12
1.35711e-12
1.43814e-12
1.98041e-12
4.31922e-12
1.21448e-11
3.8908e-11
1.03362e-10
1.37243e-10
6.13687e-11
1.34605e-12
1.44524e-12
1.52785e-12
1.81387e-12
3.1979e-12
8.61137e-12
2.70962e-11
7.04271e-11
9.07452e-11
2.62951e-11
1.46435e-12
1.55341e-12
1.65579e-12
1.8306e-12
2.53302e-12
6.12078e-12
1.90342e-11
4.90817e-11
6.14721e-11
1.53189e-11
1.60121e-12
1.67936e-12
1.80067e-12
1.93649e-12
2.24355e-12
4.44759e-12
1.34431e-11
3.48576e-11
4.23934e-11
1.33401e-11
1.76368e-12
1.82596e-12
1.95468e-12
2.0833e-12
2.20391e-12
3.36047e-12
9.51544e-12
2.48976e-11
2.95836e-11
1.27616e-11
2.04398e-12
1.99707e-12
2.12253e-12
2.24624e-12
2.29129e-12
2.76959e-12
6.80853e-12
1.79078e-11
2.08128e-11
1.20533e-11
7.21982e-10
1.26883e-11
2.30177e-12
2.41836e-12
2.43791e-12
2.5408e-12
4.96284e-12
1.29523e-11
1.47015e-11
1.11901e-11
3.46083e-07
1.10007e-08
3.96951e-11
2.73634e-12
2.60447e-12
2.52782e-12
3.74474e-12
9.39245e-12
1.03539e-11
1.01353e-11
7.77662e-13
1.48138e-12
1.6042e-12
2.51531e-12
4.13267e-12
6.85948e-12
1.45994e-11
5.60287e-11
2.09054e-10
5.71939e-10
7.1382e-13
1.33061e-12
1.388e-12
2.14087e-12
3.47488e-12
5.77029e-12
1.10437e-11
3.48486e-11
1.27205e-10
3.37503e-10
6.51057e-13
1.18912e-12
1.19518e-12
1.81346e-12
2.91438e-12
4.80819e-12
8.73985e-12
2.30165e-11
8.11916e-11
2.09209e-10
5.98153e-13
1.06779e-12
1.03421e-12
1.55239e-12
2.45623e-12
4.02045e-12
7.05547e-12
1.61046e-11
5.38168e-11
1.35223e-10
5.52126e-13
9.6374e-13
8.97346e-13
1.32857e-12
2.0786e-12
3.38834e-12
5.77415e-12
1.18541e-11
3.67576e-11
9.03649e-11
5.12941e-13
8.7468e-13
7.82462e-13
1.14795e-12
1.78104e-12
2.86327e-12
4.78463e-12
9.07629e-12
2.57329e-11
6.20943e-11
4.79217e-13
7.98351e-13
6.84716e-13
9.94639e-13
1.52474e-12
2.42847e-12
4.01864e-12
7.16385e-12
1.84109e-11
4.36981e-11
8.1841e-13
7.33255e-13
6.02926e-13
8.65139e-13
1.31481e-12
2.07819e-12
3.40105e-12
5.79559e-12
1.34228e-11
3.14058e-11
1.07393e-09
3.59846e-11
5.99568e-13
7.54331e-13
1.14037e-12
1.78871e-12
2.89576e-12
4.77971e-12
9.95702e-12
2.30008e-11
3.43981e-07
3.42061e-08
2.25763e-10
2.52366e-12
9.57216e-13
1.53766e-12
2.46853e-12
3.99185e-12
7.48465e-12
1.71068e-11
1.04902e-12
1.83713e-12
1.6324e-12
2.16781e-12
3.01461e-12
4.36283e-12
6.73306e-12
1.25317e-11
4.98513e-11
1.74631e-10
9.76344e-13
1.68445e-12
1.46308e-12
1.9358e-12
2.66707e-12
3.80049e-12
5.70134e-12
9.99883e-12
3.51063e-11
1.05518e-10
9.06217e-13
1.53804e-12
1.30004e-12
1.71196e-12
2.34334e-12
3.31016e-12
4.84208e-12
7.91973e-12
2.48285e-11
6.75494e-11
8.44709e-13
1.41006e-12
1.1611e-12
1.51793e-12
2.06756e-12
2.89532e-12
4.17103e-12
6.39273e-12
1.79083e-11
4.52579e-11
7.91222e-13
1.29837e-12
1.04137e-12
1.35134e-12
1.83505e-12
2.54959e-12
3.63254e-12
5.31e-12
1.30612e-11
3.13842e-11
7.44642e-13
1.20068e-12
9.3737e-13
1.20879e-12
1.63014e-12
2.25261e-12
3.19299e-12
4.51782e-12
9.62292e-12
2.23566e-11
7.03565e-13
1.11439e-12
8.47304e-13
1.08481e-12
1.45422e-12
2.00259e-12
2.82161e-12
3.90954e-12
7.14851e-12
1.62651e-11
1.1614e-12
1.04022e-12
7.69377e-13
9.76697e-13
1.30116e-12
1.78319e-12
2.50074e-12
3.42252e-12
5.36105e-12
1.2027e-11
1.54756e-09
6.36611e-11
7.84205e-13
8.80776e-13
1.16827e-12
1.59213e-12
2.22695e-12
3.01637e-12
4.062e-12
8.99922e-12
4.2195e-07
5.99649e-08
5.50018e-10
3.06722e-12
9.91579e-13
1.42539e-12
1.98651e-12
2.66782e-12
3.08785e-12
6.79464e-12
1.44727e-12
2.31396e-12
1.64783e-12
1.89442e-12
2.27328e-12
2.82004e-12
3.78065e-12
5.76803e-12
1.35029e-11
2.81636e-11
1.3689e-12
2.16565e-12
1.53041e-12
1.76443e-12
2.11439e-12
2.59726e-12
3.3484e-12
4.74001e-12
1.08119e-11
2.07833e-11
1.29008e-12
2.01791e-12
1.40689e-12
1.62426e-12
1.9468e-12
2.37831e-12
2.99927e-12
3.98174e-12
8.42599e-12
1.55128e-11
1.22043e-12
1.88596e-12
1.29538e-12
1.49586e-12
1.79376e-12
2.1867e-12
2.72393e-12
3.44507e-12
6.51557e-12
1.17697e-11
1.1587e-12
1.76781e-12
1.19524e-12
1.37887e-12
1.65537e-12
2.01572e-12
2.4976e-12
3.05489e-12
5.02411e-12
9.0438e-12
1.10367e-12
1.66128e-12
1.10535e-12
1.27391e-12
1.52716e-12
1.86014e-12
2.2984e-12
2.75771e-12
3.86291e-12
6.99975e-12
1.05488e-12
1.56571e-12
1.02463e-12
1.17854e-12
1.41111e-12
1.71926e-12
2.12612e-12
2.5155e-12
2.96576e-12
5.44123e-12
1.55824e-12
1.48188e-12
9.51937e-13
1.09182e-12
1.30554e-12
1.59078e-12
1.96884e-12
2.3153e-12
2.27088e-12
4.2475e-12
1.90835e-09
9.22756e-11
1.01473e-12
1.0119e-12
1.2087e-12
1.47271e-12
1.82432e-12
2.14073e-12
1.73162e-12
3.32366e-12
3.44068e-07
8.23571e-08
8.6806e-10
3.28851e-12
1.04737e-12
1.36169e-12
1.68742e-12
1.97942e-12
1.30699e-12
2.59426e-12
2.0243e-12
2.91706e-12
1.61202e-12
1.5985e-12
1.65946e-12
1.799e-12
2.13754e-12
2.91849e-12
6.24796e-12
8.52786e-12
1.94144e-12
2.78298e-12
1.55243e-12
1.55687e-12
1.6261e-12
1.74495e-12
1.98129e-12
2.4824e-12
5.09097e-12
7.04504e-12
1.85825e-12
2.6447e-12
1.47544e-12
1.49492e-12
1.5729e-12
1.68449e-12
1.86262e-12
2.17093e-12
4.03934e-12
5.73352e-12
1.78292e-12
2.51726e-12
1.40048e-12
1.43039e-12
1.51564e-12
1.62677e-12
1.77545e-12
1.96347e-12
3.1837e-12
4.66515e-12
1.71447e-12
2.39928e-12
1.32826e-12
1.36659e-12
1.45761e-12
1.57e-12
1.70447e-12
1.82479e-12
2.49058e-12
3.79239e-12
1.65291e-12
2.29083e-12
1.26004e-12
1.30327e-12
1.39759e-12
1.51362e-12
1.64631e-12
1.72488e-12
1.93174e-12
3.0789e-12
1.5968e-12
2.19074e-12
1.19594e-12
1.24198e-12
1.33732e-12
1.45604e-12
1.59083e-12
1.64964e-12
1.4753e-12
2.49546e-12
2.08597e-12
2.10207e-12
1.13554e-12
1.1832e-12
1.2791e-12
1.39808e-12
1.53442e-12
1.58864e-12
1.10649e-12
2.01528e-12
2.18336e-09
1.15657e-10
1.5178e-12
1.12639e-12
1.22189e-12
1.34122e-12
1.47854e-12
1.53498e-12
8.10501e-13
1.61869e-12
1.10974e-07
9.21598e-08
1.93356e-09
1.16158e-11
1.09567e-12
1.28001e-12
1.42043e-12
1.47906e-12
5.61607e-13
1.28671e-12
2.8015e-12
3.60066e-12
1.45788e-12
1.21344e-12
1.06516e-12
1.00357e-12
1.13272e-12
1.51826e-12
3.21394e-12
3.72651e-12
2.7209e-12
3.49584e-12
1.4556e-12
1.24689e-12
1.11767e-12
1.03611e-12
1.07434e-12
1.29936e-12
2.75175e-12
3.27966e-12
2.63837e-12
3.38254e-12
1.43209e-12
1.25609e-12
1.14883e-12
1.06577e-12
1.05011e-12
1.14588e-12
2.26491e-12
2.80127e-12
2.56229e-12
3.2739e-12
1.40071e-12
1.25311e-12
1.16673e-12
1.09216e-12
1.0503e-12
1.05503e-12
1.84678e-12
2.38901e-12
2.49204e-12
3.17109e-12
1.36617e-12
1.2426e-12
1.17481e-12
1.11195e-12
1.06069e-12
1.0116e-12
1.48752e-12
2.0327e-12
2.42681e-12
3.07282e-12
1.32854e-12
1.22554e-12
1.17468e-12
1.12568e-12
1.07684e-12
9.9667e-13
1.17817e-12
1.72336e-12
2.36662e-12
2.98038e-12
1.28956e-12
1.20377e-12
1.16824e-12
1.13334e-12
1.09238e-12
9.97244e-13
9.14316e-13
1.45537e-12
2.83353e-12
2.89736e-12
1.25034e-12
1.17967e-12
1.15624e-12
1.13411e-12
1.10395e-12
1.0069e-12
6.88963e-13
1.22515e-12
2.50017e-09
1.29441e-10
1.9577e-12
1.15419e-12
1.14066e-12
1.12981e-12
1.10999e-12
1.01865e-12
4.96797e-13
1.02729e-12
1.58465e-07
8.477e-08
1.82638e-09
1.84109e-11
1.0852e-12
1.1174e-12
1.11065e-12
1.02695e-12
3.27889e-13
8.60878e-13
3.72416e-12
4.26688e-12
1.14508e-12
7.62247e-13
4.95466e-13
3.50618e-13
4.84413e-13
7.9058e-13
1.95613e-12
1.99139e-12
3.65131e-12
4.20187e-12
1.18862e-12
8.43585e-13
6.00067e-13
4.21127e-13
4.28338e-13
6.36974e-13
1.79254e-12
1.86959e-12
3.57811e-12
4.1301e-12
1.20972e-12
9.00915e-13
6.83944e-13
5.00009e-13
4.24374e-13
5.18221e-13
1.55733e-12
1.675e-12
3.50856e-12
4.05665e-12
1.21997e-12
9.43691e-13
7.5021e-13
5.74359e-13
4.56835e-13
4.42858e-13
1.34799e-12
1.49989e-12
3.44273e-12
3.98411e-12
1.22132e-12
9.73953e-13
8.03295e-13
6.40112e-13
5.05804e-13
4.14334e-13
1.16064e-12
1.34195e-12
3.38143e-12
3.91277e-12
1.21611e-12
9.95459e-13
8.46323e-13
6.9803e-13
5.60518e-13
4.23862e-13
9.95235e-13
1.20068e-12
3.32327e-12
3.84294e-12
1.20616e-12
1.00942e-12
8.79231e-13
7.46794e-13
6.14292e-13
4.56933e-13
8.51122e-13
1.0756e-12
3.76009e-12
3.78124e-12
1.19281e-12
1.01705e-12
9.0418e-13
7.87414e-13
6.64185e-13
5.01665e-13
7.27963e-13
9.65463e-13
2.78778e-09
1.30161e-10
2.3768e-12
1.02282e-12
9.24001e-13
8.21039e-13
7.07715e-13
5.49669e-13
6.25419e-13
8.70453e-13
4.53095e-07
5.61271e-08
1.58593e-09
2.34654e-11
9.6977e-13
8.4623e-13
7.45293e-13
5.9377e-13
5.43961e-13
7.92106e-13
4.614e-12
4.78431e-12
7.35369e-13
4.96599e-13
2.72394e-13
1.50626e-13
2.65585e-13
4.80686e-13
1.41407e-12
1.25334e-12
4.55211e-12
4.76319e-12
7.80311e-13
5.35105e-13
3.11488e-13
1.24609e-13
1.62697e-13
3.77448e-13
1.40242e-12
1.26483e-12
4.49217e-12
4.7375e-12
8.13299e-13
5.72042e-13
3.60885e-13
1.63059e-13
7.57444e-14
2.77415e-13
1.29921e-12
1.19093e-12
4.43368e-12
4.70694e-12
8.39585e-13
6.04947e-13
4.10452e-13
2.21315e-13
4.61452e-14
1.84264e-13
1.2058e-12
1.12285e-12
4.37804e-12
4.67326e-12
8.59213e-13
6.35203e-13
4.57137e-13
2.81336e-13
1.09042e-13
9.97199e-14
1.12008e-12
1.06011e-12
4.32413e-12
4.63683e-12
8.74105e-13
6.61167e-13
4.9969e-13
3.37561e-13
1.76672e-13
3.22289e-14
1.04212e-12
1.00284e-12
4.27304e-12
4.59991e-12
8.84732e-13
6.83574e-13
5.37647e-13
3.89381e-13
2.38924e-13
6.16488e-14
9.73042e-13
9.51289e-13
4.68407e-12
4.56872e-12
8.91e-13
7.01551e-13
5.70976e-13
4.35652e-13
2.95601e-13
1.25142e-13
9.11764e-13
9.05136e-13
2.99348e-09
1.20069e-10
2.43712e-12
7.19672e-13
5.99688e-13
4.76319e-13
3.47208e-13
1.85554e-13
8.58362e-13
8.63504e-13
7.19838e-07
2.18142e-08
9.01498e-10
1.71527e-11
6.79938e-13
5.13369e-13
3.93916e-13
2.42271e-13
8.12345e-13
8.37383e-13
5.1847e-12
5.04877e-12
4.14972e-13
5.91382e-13
5.09506e-13
4.39717e-13
4.0132e-13
4.36595e-13
1.18936e-12
9.4409e-13
5.12997e-12
5.05539e-12
3.7666e-13
5.31866e-13
4.56352e-13
3.9214e-13
3.55635e-13
3.99905e-13
1.25003e-12
1.01435e-12
5.07952e-12
5.06205e-12
3.52755e-13
4.79836e-13
4.09251e-13
3.46839e-13
3.12726e-13
3.58266e-13
1.20887e-12
9.92404e-13
5.03001e-12
5.06226e-12
3.42313e-13
4.3528e-13
3.68724e-13
3.09007e-13
2.74068e-13
3.19594e-13
1.16975e-12
9.70648e-13
4.98168e-12
5.05746e-12
3.4375e-13
4.00156e-13
3.37554e-13
2.78591e-13
2.41211e-13
2.8389e-13
1.13238e-12
9.50414e-13
4.93563e-12
5.04954e-12
3.52457e-13
3.72653e-13
3.12151e-13
2.53985e-13
2.13954e-13
2.52659e-13
1.0973e-12
9.31181e-13
4.89098e-12
5.03881e-12
3.65097e-13
3.52019e-13
2.94528e-13
2.36882e-13
1.93854e-13
2.24344e-13
1.06369e-12
9.13577e-13
5.2883e-12
5.03328e-12
3.7965e-13
3.36552e-13
2.82215e-13
2.25738e-13
1.78645e-13
2.01289e-13
1.03261e-12
8.95736e-13
3.09669e-09
1.10192e-10
2.24075e-12
3.25436e-13
2.74236e-13
2.20078e-13
1.71795e-13
1.83119e-13
1.0016e-12
8.78945e-13
8.83981e-07
2.79262e-08
7.59381e-10
1.34236e-11
2.70136e-13
2.21469e-13
1.74822e-13
1.75989e-13
9.73202e-13
9.13936e-13
5.18826e-12
5.01981e-12
3.8967e-13
6.15476e-13
5.39118e-13
4.65639e-13
4.13114e-13
4.28286e-13
1.12436e-12
9.01767e-13
5.13345e-12
5.02854e-12
3.24905e-13
5.47095e-13
4.8212e-13
4.17457e-13
3.72776e-13
3.99965e-13
1.19412e-12
9.7552e-13
5.08333e-12
5.03831e-12
2.76691e-13
4.84822e-13
4.28876e-13
3.71676e-13
3.32751e-13
3.63321e-13
1.16063e-12
9.56892e-13
5.03422e-12
5.04092e-12
2.47077e-13
4.29384e-13
3.80886e-13
3.30337e-13
2.95972e-13
3.29832e-13
1.1286e-12
9.38342e-13
4.98697e-12
5.03941e-12
2.36799e-13
3.83128e-13
3.40222e-13
2.94287e-13
2.62866e-13
2.97985e-13
1.09786e-12
9.2136e-13
4.94138e-12
5.03379e-12
2.41345e-13
3.44473e-13
3.06156e-13
2.63213e-13
2.33191e-13
2.68692e-13
1.06874e-12
9.05193e-13
4.89735e-12
5.02529e-12
2.55323e-13
3.12293e-13
2.77768e-13
2.3781e-13
2.08307e-13
2.41974e-13
1.04066e-12
8.90269e-13
5.2945e-12
5.02176e-12
2.74356e-13
2.86951e-13
2.55423e-13
2.17276e-13
1.868e-13
2.18122e-13
1.01403e-12
8.75374e-13
3.09669e-09
1.10193e-10
2.21958e-12
2.66181e-13
2.36684e-13
2.0132e-13
1.71378e-13
1.97819e-13
9.87992e-13
8.61229e-13
8.83981e-07
2.79262e-08
7.59362e-10
1.34007e-11
2.04812e-13
1.93217e-13
1.65833e-13
1.864e-13
9.6277e-13
9.11615e-13
4.61732e-12
4.70421e-12
6.43968e-13
5.09485e-13
3.33413e-13
2.26558e-13
2.61474e-13
4.19436e-13
1.18958e-12
1.113e-12
4.55716e-12
4.6913e-12
6.7392e-13
5.17805e-13
3.36114e-13
1.93969e-13
1.82249e-13
3.38382e-13
1.20942e-12
1.13563e-12
4.49959e-12
4.6747e-12
7.01021e-13
5.33614e-13
3.5666e-13
1.97619e-13
1.18768e-13
2.54276e-13
1.13363e-12
1.07343e-12
4.44357e-12
4.65294e-12
7.24213e-13
5.51993e-13
3.85031e-13
2.25308e-13
9.08433e-14
1.76458e-13
1.06494e-12
1.01644e-12
4.38972e-12
4.62717e-12
7.45301e-13
5.71789e-13
4.16878e-13
2.6405e-13
1.15528e-13
1.09512e-13
1.00205e-12
9.6428e-13
4.33821e-12
4.59868e-12
7.62381e-13
5.91478e-13
4.4936e-13
3.06272e-13
1.62338e-13
6.37104e-14
9.45512e-13
9.17979e-13
4.28863e-12
4.56842e-12
7.76212e-13
6.09774e-13
4.80399e-13
3.48175e-13
2.12772e-13
7.31669e-14
8.95066e-13
8.76328e-13
4.70064e-12
4.54358e-12
7.86817e-13
6.26338e-13
5.09188e-13
3.87264e-13
2.61309e-13
1.17445e-13
8.51048e-13
8.39489e-13
2.99349e-09
1.2007e-10
2.39018e-12
6.42521e-13
5.35021e-13
4.24074e-13
3.07263e-13
1.67706e-13
8.13112e-13
8.07748e-13
7.19838e-07
2.18142e-08
9.01456e-10
1.71059e-11
6.0608e-13
4.57583e-13
3.49942e-13
2.17783e-13
7.80597e-13
8.01227e-13
3.72357e-12
4.16613e-12
1.00003e-12
6.56409e-13
3.9566e-13
2.19045e-13
3.31987e-13
6.06963e-13
1.46365e-12
1.68066e-12
3.65671e-12
4.11714e-12
1.05003e-12
7.34302e-13
4.98796e-13
3.08338e-13
2.90788e-13
4.83684e-13
1.37193e-12
1.59106e-12
3.58929e-12
4.05966e-12
1.08077e-12
7.94254e-13
5.83656e-13
3.97725e-13
3.03446e-13
3.84976e-13
1.20035e-12
1.42785e-12
3.52418e-12
3.99976e-12
1.10003e-12
8.39823e-13
6.52379e-13
4.77707e-13
3.49891e-13
3.25289e-13
1.0455e-12
1.28026e-12
3.46256e-12
3.93852e-12
1.11135e-12
8.76249e-13
7.0912e-13
5.4773e-13
4.08803e-13
3.11361e-13
9.07423e-13
1.14792e-12
3.40431e-12
3.87771e-12
1.11526e-12
9.02727e-13
7.55444e-13
6.09326e-13
4.70559e-13
3.32501e-13
7.86377e-13
1.02971e-12
3.34879e-12
3.8173e-12
1.11444e-12
9.22664e-13
7.92515e-13
6.61402e-13
5.28737e-13
3.75202e-13
6.82458e-13
9.26993e-13
3.78581e-12
3.76399e-12
1.10867e-12
9.3623e-13
8.23172e-13
7.05568e-13
5.82345e-13
4.25733e-13
5.96549e-13
8.36668e-13
2.78778e-09
1.30164e-10
2.32751e-12
9.47898e-13
8.47033e-13
7.427e-13
6.29617e-13
4.77561e-13
5.27525e-13
7.60658e-13
4.53095e-07
5.61271e-08
1.5859e-09
2.34285e-11
8.96637e-13
7.71846e-13
6.70072e-13
5.25143e-13
4.7702e-13
7.03648e-13
2.80437e-12
3.50957e-12
1.29577e-12
1.03649e-12
8.75182e-13
7.89552e-13
8.61338e-13
1.1392e-12
2.14897e-12
2.98133e-12
2.73323e-12
3.42631e-12
1.31547e-12
1.08918e-12
9.44908e-13
8.45323e-13
8.46063e-13
9.98532e-13
1.87044e-12
2.64731e-12
2.6583e-12
3.33152e-12
1.31164e-12
1.11735e-12
9.93613e-13
8.94996e-13
8.53228e-13
9.03173e-13
1.54102e-12
2.26539e-12
2.58756e-12
3.23876e-12
1.29866e-12
1.13108e-12
1.02733e-12
9.37597e-13
8.75301e-13
8.55005e-13
1.2496e-12
1.93246e-12
2.52183e-12
3.14872e-12
1.27883e-12
1.13611e-12
1.05009e-12
9.72259e-13
9.05262e-13
8.39533e-13
9.98361e-13
1.64225e-12
2.45991e-12
3.06197e-12
1.25487e-12
1.1328e-12
1.06378e-12
9.99454e-13
9.36527e-13
8.45333e-13
7.80848e-13
1.39e-12
2.40242e-12
2.97833e-12
1.228e-12
1.1245e-12
1.06988e-12
1.018e-12
9.64051e-13
8.62414e-13
5.9226e-13
1.17221e-12
2.8661e-12
2.9037e-12
1.1989e-12
1.1108e-12
1.07032e-12
1.03104e-12
9.85493e-13
8.84454e-13
4.28792e-13
9.84922e-13
2.50017e-09
1.29445e-10
1.92199e-12
1.09596e-12
1.06507e-12
1.03684e-12
1.00216e-12
9.06788e-13
2.90234e-13
8.25504e-13
1.58465e-07
8.477e-08
1.82636e-09
1.83815e-11
1.02111e-12
1.03511e-12
1.01236e-12
9.24179e-13
1.64726e-13
6.92929e-13
2.04216e-12
2.85669e-12
1.45627e-12
1.38197e-12
1.38263e-12
1.44542e-12
1.64128e-12
2.09716e-12
3.6975e-12
6.28221e-12
1.96885e-12
2.74723e-12
1.42912e-12
1.3775e-12
1.38994e-12
1.44416e-12
1.57861e-12
1.86427e-12
3.06782e-12
5.26795e-12
1.8915e-12
2.6274e-12
1.37944e-12
1.34765e-12
1.37284e-12
1.42658e-12
1.52768e-12
1.69731e-12
2.45306e-12
4.30855e-12
1.82038e-12
2.51409e-12
1.32672e-12
1.31074e-12
1.34624e-12
1.40513e-12
1.49297e-12
1.58623e-12
1.94382e-12
3.51612e-12
1.75496e-12
2.40779e-12
1.27281e-12
1.2699e-12
1.31478e-12
1.37923e-12
1.46467e-12
1.51415e-12
1.5277e-12
2.8678e-12
1.69461e-12
2.30817e-12