/*--------------------------------*- C++ -*----------------------------------*\
| =========                 |                                                 |
| \\      /  F ield         | OpenFOAM: The Open Source CFD Toolbox           |
|  \\    /   O peration     | Version:  4.1                                   |
|   \\  /    A nd           | Web:      www.OpenFOAM.org                      |
|    \\/     M anipulation  |                                                 |
\*---------------------------------------------------------------------------*/
FoamFile
{
    version     2.0;
    format      ascii;
    class       surfaceScalarField;
    location    "0.84";
    object      phi;
}
// * * * * * * * * * * * * * * * * * * * * * * * * * * * * * * * * * * * * * //

dimensions      [1 0 -1 0 0 0 0];

internalField   nonuniform List<scalar> 
51500
(
3.62475e-13
1.83264e-14
1.39732e-11
-9.11509e-16
2.23829e-14
1.38184e-11
-3.29803e-15
2.08479e-14
1.36639e-11
-3.03147e-15
1.92475e-14
1.35122e-11
-2.91206e-15
1.76163e-14
1.33617e-11
-2.84441e-15
1.59735e-14
1.32131e-11
-2.95825e-15
1.43536e-14
1.30658e-11
-2.87694e-15
1.27773e-14
1.29216e-11
-2.99932e-15
1.11935e-14
1.27795e-11
9.64478e-15
1.26423e-11
-7.54605e-17
3.63385e-13
1.00503e-14
1.74142e-11
-1.14736e-14
1.14723e-14
1.68154e-11
-1.11962e-14
9.75331e-15
1.6234e-11
-1.09426e-14
8.11653e-15
1.5677e-11
-1.05845e-14
6.6304e-15
1.51438e-11
-1.01979e-14
5.27129e-15
1.4632e-11
-9.89825e-15
4.07631e-15
1.41406e-11
-9.62489e-15
3.51249e-15
1.36697e-11
-9.45153e-15
2.15641e-15
1.32161e-11
8.78284e-16
1.27914e-11
-8.77553e-16
3.59583e-13
1.26827e-14
2.19534e-11
-2.61433e-14
1.38396e-14
2.06513e-11
-2.22942e-14
1.14096e-14
1.94265e-11
-2.10435e-14
9.24058e-15
1.82892e-11
-1.98458e-14
7.31687e-15
1.723e-11
-1.89594e-14
5.60384e-15
1.62448e-11
-1.78778e-14
4.10616e-15
1.53293e-11
-1.70989e-14
2.76115e-15
1.44732e-11
-1.65361e-14
1.58964e-15
1.36759e-11
6.05271e-16
1.2944e-11
-1.56602e-15
3.48031e-13
1.67512e-14
2.80144e-11
-4.68636e-14
1.71333e-14
2.56017e-11
-3.69383e-14
1.3732e-14
2.34185e-11
-3.40645e-14
1.07881e-14
2.14476e-11
-3.14553e-14
8.31787e-15
1.9677e-11
-2.91346e-14
6.22581e-15
1.80812e-11
-2.70256e-14
4.45915e-15
1.66399e-11
-2.51267e-14
2.93713e-15
1.53361e-11
-2.36189e-14
1.65025e-15
1.41541e-11
5.75965e-16
1.30989e-11
-2.37614e-15
3.22687e-13
2.256e-14
3.62276e-11
-8.21978e-14
2.15782e-14
3.20653e-11
-5.68434e-14
1.67016e-14
2.84464e-11
-5.07975e-14
1.27243e-14
2.52953e-11
-4.56487e-14
9.52654e-15
2.25607e-11
-4.11508e-14
6.9432e-15
2.01763e-11
-3.73941e-14
4.82661e-15
1.80911e-11
-3.39457e-14
3.1187e-15
1.62634e-11
-3.12295e-14
1.71955e-15
1.46539e-11
6.12645e-16
1.3257e-11
-3.16565e-15
2.73396e-13
3.10718e-14
4.7525e-11
-1.50821e-13
2.77141e-14
4.06065e-11
-8.37596e-14
2.0614e-14
3.48426e-11
-7.2479e-14
1.51201e-14
3.00126e-11
-6.31976e-14
1.09682e-14
2.59733e-11
-5.55452e-14
7.75026e-15
2.2574e-11
-4.90532e-14
5.26933e-15
1.97008e-11
-4.35481e-14
3.31625e-15
1.72602e-11
-3.91221e-14
1.79591e-15
1.51755e-11
6.49009e-16
1.34179e-11
-4.0599e-15
1.80255e-13
5.4699e-14
6.32898e-11
-2.37126e-13
4.52271e-14
5.20565e-11
-1.20979e-13
3.2136e-14
4.30543e-11
-1.00669e-13
2.26422e-14
3.5839e-11
-8.50755e-14
1.58042e-14
3.0034e-11
-7.24684e-14
1.08136e-14
2.53286e-11
-6.24084e-14
7.09352e-15
2.14879e-11
-5.40475e-14
4.33661e-15
1.83324e-11
-4.75268e-14
2.24769e-15
1.57214e-11
6.53146e-16
1.35814e-11
-4.91794e-15
9.22124e-14
-5.98721e-13
8.57319e-11
-3.4839e-13
-6.67307e-13
6.76029e-11
-1.70903e-13
-6.89732e-13
5.37203e-11
-1.36481e-13
-7.04098e-13
4.3097e-11
-1.1104e-13
-7.13742e-13
3.49026e-11
-9.16608e-14
-7.20184e-13
2.85168e-11
-7.64931e-14
-7.2444e-13
2.34924e-11
-6.45835e-14
-7.27228e-13
1.95036e-11
-5.50288e-14
-7.29064e-13
1.6306e-11
-7.44042e-13
1.3765e-11
-5.87594e-15
3.85924e-12
-1.01779e-09
1.87592e-10
3.49951e-12
-1.11574e-09
1.49067e-10
3.1763e-12
-1.12656e-09
1.23145e-10
2.88753e-12
-1.13467e-09
1.03819e-10
2.631e-12
-1.14126e-09
8.92397e-11
2.40392e-12
-1.14666e-09
7.80839e-11
2.20288e-12
-1.15113e-09
6.94444e-11
2.02436e-12
-1.15486e-09
6.26787e-11
1.79752e-12
-1.15815e-09
5.73255e-11
-1.19159e-09
5.38493e-11
-6.86734e-15
-6.27507e-10
1.80574e-07
-8.22485e-07
3.50918e-10
1.54263e-07
-9.35822e-07
4.11899e-10
1.35843e-07
-9.38106e-07
4.02618e-10
1.20391e-07
-9.39683e-07
3.91854e-10
1.07301e-07
-9.41072e-07
3.80461e-10
9.61465e-08
-9.42315e-07
3.68816e-10
8.65827e-08
-9.43437e-07
3.47253e-10
7.83336e-08
-9.4446e-07
8.17345e-11
7.11903e-08
-9.45541e-07
6.66641e-08
-7.93983e-15
-9.962e-07
3.40504e-13
8.73377e-14
8.02279e-13
-1.72237e-14
8.25348e-14
7.88658e-13
-2.50137e-14
7.27918e-14
7.7626e-13
-2.40456e-14
6.33293e-14
7.62008e-13
-2.36095e-14
5.41969e-14
7.49295e-13
-2.34402e-14
4.53393e-14
7.37391e-13
-2.3359e-14
3.67791e-14
7.23911e-13
-2.31126e-14
2.85214e-14
7.12398e-13
-2.49808e-14
2.0462e-14
7.00528e-13
1.28627e-14
6.8803e-13
-1.59703e-15
2.85525e-13
8.10101e-14
1.10839e-12
-6.7924e-14
7.38498e-14
1.05331e-12
-8.3389e-14
6.25214e-14
1.00058e-12
-7.99884e-14
5.16856e-14
9.49747e-13
-7.78733e-14
4.09902e-14
9.02211e-13
-7.57436e-14
2.85849e-14
8.56438e-13
-7.34972e-14
2.02956e-14
8.15143e-13
-7.26289e-14
1.33356e-14
7.74504e-13
-7.60573e-14
7.44178e-15
7.3789e-13
2.51269e-15
7.00825e-13
-4.23685e-15
2.03925e-13
1.02299e-13
1.55783e-12
-1.7187e-13
9.14689e-14
1.42201e-12
-1.57856e-13
7.6615e-14
1.3046e-12
-1.49497e-13
6.28468e-14
1.19118e-12
-1.42277e-13
5.04565e-14
1.09138e-12
-1.35753e-13
3.91929e-14
1.00048e-12
-1.29958e-13
2.89666e-14
9.18636e-13
-1.24836e-13
1.97841e-14
8.44528e-13
-1.30029e-13
1.14695e-14
7.76135e-13
4.13193e-15
7.1559e-13
-6.7342e-15
8.46603e-14
1.25116e-13
2.22813e-12
-2.98262e-13
1.08779e-13
1.95206e-12
-2.53803e-13
8.90337e-14
1.71884e-12
-2.34591e-13
7.14927e-14
1.50921e-12
-2.19184e-13
5.61619e-14
1.32922e-12
-2.0518e-13
4.2727e-14
1.17362e-12
-1.92121e-13
3.10263e-14
1.03985e-12
-1.81308e-13
2.07858e-14
9.23512e-13
-1.85279e-13
1.1833e-14
8.19229e-13
4.11409e-15
7.28811e-13
-9.72443e-15
-3.22071e-14
1.54652e-13
3.25274e-12
-4.57603e-13
1.3041e-13
2.7241e-12
-3.75958e-13
1.04267e-13
2.29423e-12
-3.39627e-13
8.17451e-14
1.93001e-12
-3.10714e-13
6.27179e-14
1.63077e-12
-2.84472e-13
4.66984e-14
1.38504e-12
-2.61174e-13
3.31688e-14
1.1806e-12
-2.41871e-13
2.17896e-14
1.00958e-12
-2.42799e-13
1.21669e-14
8.65885e-13
4.22005e-15
7.44548e-13
-1.27676e-14
-1.61457e-13
1.92505e-13
4.85905e-12
-6.64309e-13
1.58568e-13
3.86445e-12
-5.32114e-13
1.23019e-13
3.10192e-12
-4.69394e-13
9.39809e-14
2.48914e-12
-4.19266e-13
7.03872e-14
2.01388e-12
-3.75641e-13
5.1164e-14
1.64056e-12
-3.37584e-13
3.55763e-14
1.34568e-12
-3.06693e-13
2.28501e-14
1.10893e-12
-3.02302e-13
1.25674e-14
9.18568e-13
4.18599e-15
7.62173e-13
-1.57227e-14
-5.47392e-13
2.53719e-13
7.434e-12
-9.39404e-13
2.13187e-13
5.58951e-12
-7.3149e-13
1.61066e-13
4.25246e-12
-6.29115e-13
1.20243e-13
3.24083e-12
-5.48487e-13
8.83671e-14
2.50364e-12
-4.79921e-13
6.32698e-14
1.95256e-12
-4.22451e-13
4.3212e-14
1.53666e-12
-3.75468e-13
2.69244e-14
1.22077e-12
-3.64394e-13
1.29009e-14
9.7365e-13
3.55687e-15
7.81305e-13
-1.87116e-14
-1.0271e-12
2.90275e-13
1.08152e-11
-1.30592e-12
1.82169e-13
8.25506e-12
-9.86799e-13
1.22336e-13
5.91686e-12
-8.25664e-13
7.87869e-14
4.27094e-12
-7.01066e-13
4.65131e-14
3.1379e-12
-5.99547e-13
2.22284e-14
2.33733e-12
-5.15418e-13
3.77592e-15
1.76528e-12
-4.49489e-13
-1.04198e-14
1.34681e-12
-4.28175e-13
-2.14553e-14
1.03579e-12
-3.02793e-14
8.01577e-13
-2.17484e-14
-1.91568e-12
-2.89573e-12
2.60324e-11
-1.04646e-12
-7.31169e-11
1.38435e-11
-8.70144e-13
-6.64069e-11
9.74624e-12
-7.39175e-13
-6.03523e-11
7.11472e-12
-6.39135e-13
-5.55009e-11
5.41398e-12
-5.60947e-13
-5.15678e-11
4.27702e-12
-4.99945e-13
-4.83646e-11
3.49678e-12
-4.5593e-13
-4.57455e-11
2.94777e-12
-5.84369e-13
-4.36079e-11
2.54769e-12
-4.25757e-11
2.25893e-12
-2.49065e-14
-1.30729e-09
2.01127e-08
1.08193e-07
-2.42234e-10
1.13681e-08
-1.91229e-09
-3.82238e-10
8.61723e-09
-2.37276e-09
-3.76318e-10
6.66084e-09
-2.37358e-09
-3.68487e-10
5.22611e-09
-2.35737e-09
-3.59624e-10
4.15504e-09
-2.33265e-09
-3.50192e-10
3.3438e-09
-2.30356e-09
-3.40668e-10
2.72112e-09
-2.2732e-09
-3.41449e-10
2.23796e-09
-2.25548e-09
1.89118e-09
-2.82673e-14
-3.06713e-09
3.42102e-13
8.23569e-14
3.15939e-14
-1.59803e-14
7.81767e-14
2.97676e-14
-2.2868e-14
6.89474e-14
2.82183e-14
-2.04543e-14
6.00638e-14
2.67754e-14
-1.86388e-14
5.14653e-14
2.44261e-14
-2.06165e-14
4.30824e-14
2.20469e-14
-1.90909e-14
3.51027e-14
2.12411e-14
-1.964e-14
2.73082e-14
1.99526e-14
-2.35656e-14
1.97786e-14
1.89697e-14
1.26584e-14
1.88288e-14
-1.29367e-15
2.90735e-13
5.9784e-14
5.04151e-14
-6.44282e-14
5.48398e-14
4.57655e-14
-7.33e-14
4.6532e-14
4.3861e-14
-6.76524e-14
3.85182e-14
3.83066e-14
-6.67899e-14
3.10849e-14
3.42566e-14
-6.27769e-14
2.42488e-14
3.21996e-14
-6.24192e-14
1.78889e-14
2.68881e-14
-6.17002e-14
1.21085e-14
2.42411e-14
-7.13223e-14
6.88523e-15
2.30799e-14
2.43876e-15
2.04965e-14
-4.47667e-15
2.11794e-13
7.6518e-14
7.66597e-14
-1.6506e-13
6.92098e-14
6.90838e-14
-1.39388e-13
5.8321e-14
6.44707e-14
-1.26706e-13
4.83189e-14
5.68561e-14
-1.20666e-13
3.93179e-14
4.89405e-14
-1.14003e-13
3.12079e-14
4.1887e-14
-1.08882e-13
2.40815e-14
3.62984e-14
-1.07222e-13
1.66963e-14
3.19888e-14
-1.21188e-13
9.65582e-15
2.80681e-14
3.34627e-15
2.36236e-14
-7.24095e-15
9.11874e-14
9.5178e-14
1.22514e-13
-2.8903e-13
8.33745e-14
1.0985e-13
-2.23904e-13
6.85424e-14
9.92654e-14
-1.99067e-13
5.55331e-14
8.26833e-14
-1.8562e-13
4.42537e-14
6.91654e-14
-1.72019e-13
3.56129e-14
5.85831e-14
-1.59023e-13
2.60939e-14
4.94807e-14
-1.55758e-13
1.73174e-14
4.17554e-14
-1.73142e-13
9.92472e-15
3.7242e-14
3.50937e-15
2.89723e-14
-1.04658e-14
-2.715e-14
1.20116e-13
2.05809e-13
-4.46533e-13
1.01214e-13
1.76842e-13
-3.31908e-13
8.12099e-14
1.54176e-13
-2.83198e-13
6.40236e-14
1.24444e-13
-2.58625e-13
4.97227e-14
1.00391e-13
-2.35193e-13
3.87191e-14
8.16711e-14
-2.13366e-13
2.82211e-14
6.7595e-14
-2.05875e-13
1.86388e-14
5.7176e-14
-2.27008e-13
1.0516e-14
4.85994e-14
3.72355e-15
3.67115e-14
-1.3075e-14
-1.64059e-13
1.53038e-13
3.5331e-13
-6.52653e-13
1.25419e-13
2.94805e-13
-4.69724e-13
9.71434e-14
2.42479e-13
-3.73757e-13
7.42756e-14
1.86367e-13
-3.33044e-13
5.63568e-14
1.46406e-13
-2.9491e-13
4.28424e-14
1.15951e-13
-2.64085e-13
3.01182e-14
9.32687e-14
-2.58649e-13
1.95393e-14
7.72736e-14
-2.82981e-13
1.06255e-14
6.09658e-14
3.59838e-15
4.43232e-14
-1.65003e-14
-5.78964e-13
1.88974e-13
6.18312e-13
-9.30974e-13
1.55753e-13
4.9203e-13
-6.073e-13
1.16987e-13
3.79793e-13
-4.95269e-13
8.71667e-14
2.82275e-13
-4.30231e-13
6.46359e-14
2.12086e-13
-3.72697e-13
4.90248e-14
1.62448e-13
-3.24134e-13
3.38254e-14
1.27904e-13
-3.12649e-13
2.14353e-14
1.00919e-13
-3.40977e-13
1.17553e-14
8.02978e-14
4.28696e-15
5.49815e-14
-1.95781e-14
-1.10624e-12
3.44887e-13
1.11656e-12
-1.30751e-12
2.26072e-13
8.28422e-13
-8.01619e-13
1.58659e-13
6.02241e-13
-6.49896e-13
1.10916e-13
4.23947e-13
-5.46623e-13
7.67409e-14
3.07103e-13
-4.61465e-13
5.19103e-14
2.27214e-13
-3.93313e-13
3.36869e-14
1.70331e-13
-3.50839e-13
2.0264e-14
1.3076e-13
-4.01105e-13
1.02701e-14
1.03528e-13
2.93505e-15
6.66265e-14
-2.29133e-14
-2.43293e-12
7.24313e-11
8.02811e-12
-1.71449e-12
5.19527e-13
1.22031e-12
-1.06412e-12
-2.96793e-13
7.83891e-13
-8.48704e-13
-4.31646e-13
5.46501e-13
-6.95921e-13
-5.34291e-13
3.96906e-13
-5.76384e-13
-6.08223e-13
2.99729e-13
-4.82006e-13
-6.59552e-13
2.33708e-13
-4.20847e-13
-6.9372e-13
1.86807e-13
-4.78493e-13
-7.14736e-13
1.52592e-13
-7.23452e-13
1.09894e-13
-2.62834e-14
-8.92837e-10
7.66383e-09
9.59528e-08
-5.8052e-11
6.44584e-10
2.4762e-10
-5.8225e-11
3.63108e-10
-1.04346e-10
-4.95225e-11
2.42716e-10
-8.70899e-11
-4.21062e-11
1.6684e-10
-7.06547e-11
-3.60527e-11
1.17175e-10
-5.6794e-11
-3.10784e-11
8.39502e-11
-4.46225e-11
-2.69647e-11
6.12781e-11
-3.36738e-11
-2.36176e-11
4.55155e-11
-2.886e-11
3.43068e-11
-2.97761e-14
-2.88978e-11
3.4238e-13
8.11083e-14
1.12454e-14
-1.58729e-14
7.70824e-14
1.01466e-14
-2.23211e-14
6.80217e-14
8.55983e-15
-2.01491e-14
5.9243e-14
6.72529e-15
-1.85808e-14
5.08073e-14
6.18945e-15
-1.95747e-14
4.26353e-14
3.84215e-15
-1.82001e-14
3.46993e-14
3.06395e-15
-1.91828e-14
2.70329e-14
1.15768e-15
-2.30792e-14
1.96567e-14
7.61906e-16
1.26239e-14
6.69042e-16
-1.54846e-15
2.92149e-13
5.82336e-14
1.8625e-14
-6.3474e-14
5.35274e-14
1.6237e-14
-7.17661e-14
4.54203e-14
1.68377e-14
-6.45863e-14
3.77134e-14
1.35234e-14
-6.17427e-14
3.04602e-14
1.01817e-14
-6.21876e-14
2.37196e-14
6.5971e-15
-5.91822e-14
1.75872e-14
6.60748e-15
-5.88997e-14
1.1942e-14
4.42528e-15
-7.03009e-14
6.79443e-15
3.81378e-15
2.43699e-15
2.88277e-15
-4.2672e-15
2.15234e-13
7.39732e-14
2.74594e-14
-1.62237e-13
6.69634e-14
2.55003e-14
-1.34271e-13
5.62694e-14
2.65956e-14
-1.17136e-13
4.62939e-14
2.07544e-14
-1.13995e-13
3.73703e-14
1.70956e-14
-1.0361e-13
2.93221e-14
1.41157e-14
-9.87542e-14
2.18095e-14
1.11976e-14
-1.03827e-13
1.50199e-14
9.53749e-15
-1.19294e-13
9.41833e-15
8.31206e-15
3.09286e-15
6.31449e-15
-7.06184e-15
9.55294e-14
9.20189e-14
4.49296e-14
-2.84242e-13
8.05012e-14
4.37899e-14
-2.15417e-13
6.60527e-14
4.51447e-14
-1.79349e-13
5.33387e-14
3.71777e-14
-1.67178e-13
4.20882e-14
3.03909e-14
-1.55509e-13
3.22319e-14
2.54715e-14
-1.44707e-13
2.35645e-14
2.09434e-14
-1.48799e-13
1.58779e-14
1.77632e-14
-1.70598e-13
9.55534e-15
1.51373e-14
3.62478e-15
1.05352e-14
-1.05731e-14
-2.03295e-14
1.16023e-13
7.8121e-14
-4.38567e-13
9.78965e-14
7.95321e-14
-3.14933e-13
7.83123e-14
7.68669e-14
-2.5854e-13
6.13738e-14
6.19873e-14
-2.35032e-13
4.73614e-14
5.14216e-14
-2.13975e-13
3.55245e-14
4.19516e-14
-1.95213e-13
2.56174e-14
3.46429e-14
-1.96588e-13
1.79389e-14
3.04803e-14
-2.23507e-13
9.49435e-15
2.73659e-14
3.52839e-15
1.75951e-14
-1.33437e-14
-1.545e-13
1.47808e-13
1.39956e-13
-6.404e-13
1.21097e-13
1.39562e-13
-4.21634e-13
9.35136e-14
1.29584e-13
-3.54819e-13
7.13718e-14
1.04151e-13
-3.15989e-13
5.35685e-14
8.38213e-14
-2.80629e-13
3.90967e-14
6.93247e-14
-2.50062e-13
2.74561e-14
5.71565e-14
-2.44538e-13
1.7815e-14
4.7531e-14
-2.78467e-13
1.05038e-14
4.16543e-14
3.71155e-15
2.70801e-14
-1.67221e-14
-5.58132e-13
1.84001e-13
2.49956e-13
-9.12305e-13
1.50588e-13
2.48557e-13
-5.69572e-13
1.12871e-13
2.14151e-13
-4.75339e-13
8.34467e-14
1.68049e-13
-4.12205e-13
6.09401e-14
1.32797e-13
-3.56969e-13
4.35677e-14
1.06958e-13
-3.11971e-13
2.97961e-14
8.62814e-14
-2.83771e-13
1.90443e-14
7.24637e-14
-3.36044e-13
1.09362e-14
6.10538e-14
3.44262e-15
3.87634e-14
-1.99237e-14
-1.07564e-12
3.38349e-13
4.55918e-13
-1.27778e-12
1.89175e-13
4.34264e-13
-7.67727e-13
2.0179e-13
3.49755e-13
-6.25699e-13
1.41491e-13
2.64899e-13
-5.2649e-13
9.82577e-14
2.03488e-13
-4.45524e-13
6.70637e-14
1.58683e-13
-3.7999e-13
4.426e-14
1.26858e-13
-3.3366e-13
2.74145e-14
1.0344e-13
-3.96054e-13
1.4687e-14
8.44779e-14
5.02826e-15
5.47483e-14
-2.28997e-14
-2.39588e-12
7.54592e-11
1.20757e-11
-1.65532e-12
1.05553e-12
8.35746e-13
-1.02515e-12
2.71429e-13
5.61007e-13
-8.14456e-13
1.70618e-13
4.10299e-13
-6.64164e-13
1.07082e-13
3.04151e-13
-5.46997e-13
6.4353e-14
2.30715e-13
-4.54876e-13
3.564e-14
1.77184e-13
-3.90129e-13
1.62122e-14
1.39151e-13
-4.5795e-13
3.04908e-15
1.09834e-13
-5.58672e-15
6.77281e-14
-2.64151e-14
-8.32376e-10
1.0791e-08
9.58429e-08
-1.02895e-11
1.3439e-10
3.81324e-10
-3.28752e-12
1.28406e-11
-8.22658e-13
-3.74239e-12
7.15554e-12
-1.09091e-12
-2.85474e-12
4.34656e-12
-5.53289e-13
-2.20248e-12
2.7523e-12
-2.98592e-13
-1.72528e-12
1.7978e-12
-1.34461e-13
-1.37388e-12
1.20872e-12
-2.89757e-14
-1.14815e-12
8.29878e-13
3.67491e-14
5.46837e-13
-3.00966e-14
1.98468e-13
3.42265e-13
8.11695e-14
1.77105e-14
-1.62506e-14
7.71137e-14
1.50773e-14
-2.2417e-14
6.81106e-14
1.23948e-14
-2.0547e-14
5.93179e-14
7.61734e-15
-1.7126e-14
5.08466e-14
6.46587e-15
-2.02233e-14
4.26246e-14
3.50252e-15
-1.91751e-14
3.47551e-14
5.7235e-15
-1.88648e-14
2.71081e-14
4.60075e-15
-2.30099e-14
1.96939e-14
7.61662e-16
1.26676e-14
2.40543e-16
-1.89063e-15
2.91873e-13
5.83148e-14
2.53201e-14
-6.35463e-14
5.36237e-14
2.58525e-14
-7.20733e-14
4.54612e-14
1.89457e-14
-6.53883e-14
3.7696e-14
1.65461e-14
-6.28778e-14
3.0497e-14
1.12321e-14
-6.05176e-14
2.37923e-14
8.7331e-15
-5.96594e-14
1.75987e-14
6.18605e-15
-5.96031e-14
1.19718e-14
7.25518e-15
-7.01949e-14
6.85199e-15
6.15839e-15
2.49128e-15
1.53717e-15
-4.37996e-15
2.14935e-13
7.40666e-14
3.78239e-14
-1.62677e-13
6.70226e-14
3.54356e-14
-1.35431e-13
5.63621e-14
3.43461e-14
-1.14824e-13
4.65174e-14
3.26282e-14
-1.11121e-13
3.7488e-14
2.27505e-14
-1.05332e-13
2.94409e-14
1.67574e-14
-9.80853e-14
2.2046e-14
1.51675e-14
-1.03946e-13
1.51136e-14
1.1701e-14
-1.1915e-13
8.92191e-15
1.13965e-14
3.0355e-15
6.18633e-15
-7.40857e-15
9.52413e-14
9.22065e-14
6.33957e-14
-2.84762e-13
8.07785e-14
6.2547e-14
-2.15764e-13
6.62217e-14
6.21359e-14
-1.79857e-13
5.33772e-14
4.95967e-14
-1.66602e-13
4.22089e-14
4.13353e-14
-1.5616e-13
3.21918e-14
3.25576e-14
-1.44468e-13
2.3468e-14
3.01098e-14
-1.49154e-13
1.60719e-14
2.54594e-14
-1.70664e-13
1.00643e-14
2.20959e-14
3.80828e-15
2.0132e-14
-1.01345e-14
-2.06435e-14
1.16401e-13
1.09903e-13
-4.39705e-13
9.81318e-14
1.0879e-13
-3.16027e-13
7.86148e-14
1.07424e-13
-2.58065e-13
6.16974e-14
8.96984e-14
-2.35752e-13
4.75581e-14
7.33488e-14
-2.14625e-13
3.58767e-14
6.32198e-14
-1.94686e-13
2.60871e-14
5.64445e-14
-1.95113e-13
1.74947e-14
4.2799e-14
-2.24072e-13
9.3683e-15
3.48507e-14
3.7092e-15
2.41742e-14
-1.32813e-14
-1.55532e-13
1.48353e-13
1.87422e-13
-6.41839e-13
1.21687e-13
1.98863e-13
-4.22278e-13
9.39402e-14
1.7948e-13
-3.55759e-13
7.17402e-14
1.45373e-13
-3.16027e-13
5.39203e-14
1.1901e-13
-2.81367e-13
3.93473e-14
9.86005e-14
-2.50816e-13
2.75592e-14
7.87053e-14
-2.38707e-13
1.83647e-14
6.99382e-14
-2.79159e-13
1.08034e-14
5.83353e-14
3.76689e-15
3.67442e-14
-1.66017e-14
-5.60708e-13
1.84688e-13
3.34958e-13
-9.15405e-13
1.51434e-13
3.46393e-13
-5.70496e-13
1.13527e-13
3.06757e-13
-4.76716e-13
8.39454e-14
2.34522e-13
-4.13074e-13
6.13421e-14
1.92937e-13
-3.58328e-13
4.38059e-14
1.5148e-13
-3.12286e-13
3.0131e-14
1.2538e-13
-2.84131e-13
1.91052e-14
1.01886e-13
-3.3723e-13
1.1138e-14
8.38249e-14
4.09867e-15
5.52411e-14
-1.98138e-14
-1.08084e-12
3.42873e-13
6.02587e-13
-1.28308e-12
1.8484e-13
6.06853e-13
-7.69867e-13
1.40054e-13
4.99542e-13
-6.27916e-13
1.02432e-13
3.79321e-13
-5.28543e-13
7.42159e-14
2.94547e-13
-4.47006e-13
5.50368e-14
2.35063e-13
-3.81244e-13
3.6976e-14
1.82374e-13
-3.35013e-13
2.32707e-14
1.47978e-13
-3.97498e-13
1.2702e-14
1.20514e-13
4.89784e-15
7.67619e-14
-2.30952e-14
-2.44132e-12
7.99369e-11
1.88988e-11
-1.6509e-12
9.82307e-13
1.23425e-12
-1.02969e-12
1.99176e-13
8.1416e-13
-8.18789e-13
1.75753e-13
5.88841e-13
-6.67244e-13
1.17145e-13
4.40295e-13
-5.49778e-13
7.65199e-14
3.32882e-13
-4.56707e-13
4.80421e-14
2.5375e-13
-3.91821e-13
2.76717e-14
2.02777e-13
-4.60034e-13
1.00869e-14
1.60244e-13
2.41064e-15
1.0117e-13
-2.64992e-14
-8.77399e-10
1.73615e-08
1.01276e-07
-7.40387e-12
1.6637e-10
4.2772e-10
-1.35083e-12
2.72261e-12
1.53362e-12
-1.11887e-12
1.11038e-12
1.58029e-13
-8.80423e-13
7.64432e-13
8.344e-14
-6.98392e-13
5.46782e-13
6.58946e-14
-5.62269e-13
4.02152e-13
5.32039e-14
-4.68141e-13
3.02155e-13
4.34826e-14
-5.36074e-13
1.83224e-13
3.59397e-14
1.16563e-13
-3.00491e-14
3.3584e-14
3.41933e-13
8.13138e-14
2.2416e-14
-1.65658e-14
7.72606e-14
1.47213e-14
-2.3082e-14
6.81635e-14
1.86661e-14
-1.99497e-14
5.94247e-14
1.29423e-14
-1.93779e-14
5.0893e-14
7.56541e-15
-1.92559e-14
4.26841e-14
4.46825e-15
-1.90574e-14
3.47636e-14
1.97289e-15
-1.98884e-14
2.71343e-14
1.34638e-15
-2.30385e-14
1.97649e-14
1.46224e-15
1.26892e-14
2.19693e-15
-1.49338e-15
2.91526e-13
5.85045e-14
3.86906e-14
-6.42758e-14
5.37824e-14
3.43729e-14
-7.13936e-14
4.56443e-14
3.27305e-14
-6.69926e-14
3.78278e-14
2.119e-14
-6.19095e-14
3.06222e-14
2.07482e-14
-6.12915e-14
2.38742e-14
1.24838e-14
-5.82933e-14
1.76891e-14
8.15339e-15
-5.94623e-14
1.20283e-14
5.33212e-15
-7.05887e-14
6.91303e-15
4.88377e-15
2.55665e-15
5.23801e-15
-4.40446e-15
2.14282e-13
7.43788e-14
5.03632e-14
-1.63705e-13
6.72853e-14
5.24952e-14
-1.35349e-13
5.65878e-14
5.5583e-14
-1.16201e-13
4.6641e-14
4.25812e-14
-1.14487e-13
3.76156e-14
3.25209e-14
-1.03943e-13
2.95297e-14
2.63389e-14
-9.89269e-14
2.21886e-14
1.75254e-14
-1.03488e-13
1.53909e-14
1.68909e-14
-1.19447e-13
9.35683e-15
1.18328e-14
3.35339e-15
9.24642e-15
-7.52154e-15
9.44426e-14
9.2718e-14
9.14586e-14
-2.86064e-13
8.11953e-14
8.98347e-14
-2.16822e-13
6.6588e-14
9.28725e-14
-1.80054e-13
5.37441e-14
7.59448e-14
-1.67994e-13
4.25394e-14
5.86618e-14
-1.55549e-13
3.25647e-14
4.20432e-14
-1.44974e-13
2.37131e-14
3.35881e-14
-1.49666e-13
1.61671e-14
3.06098e-14
-1.7076e-13
1.00419e-14
2.58284e-14
3.58308e-15
1.5175e-14
-1.02537e-14
-2.21065e-14
1.17141e-13
1.59596e-13
-4.4169e-13
9.88211e-14
1.63105e-13
-3.17331e-13
7.91143e-14
1.6023e-13
-2.59021e-13
6.21025e-14
1.288e-13
-2.36386e-13
4.7851e-14
1.05744e-13
-2.15669e-13
3.61335e-14
8.55764e-14
-1.95139e-13
2.60995e-14
6.07467e-14
-1.96496e-13
1.7712e-14
5.18734e-14
-2.24469e-13
9.80185e-15
4.32828e-14
3.96168e-15
2.71966e-14
-1.33034e-14
-1.57655e-13
1.49597e-13
2.78768e-13
-6.45376e-13
1.2268e-13
2.91036e-13
-4.24085e-13
9.4818e-14
2.68379e-13
-3.57393e-13
7.23843e-14
2.09812e-13
-3.16928e-13
5.45493e-14
1.69748e-13
-2.83421e-13
3.97367e-14
1.34696e-13
-2.51311e-13
2.80647e-14
1.11854e-13
-2.3907e-13
1.85202e-14
8.07851e-14
-2.80198e-13
1.0992e-14
6.7449e-14
3.9937e-15
4.37027e-14
-1.63632e-14
-5.66842e-13
1.86371e-13
4.96612e-13
-9.20916e-13
1.52987e-13
5.09242e-13
-5.74861e-13
1.14686e-13
4.38768e-13
-4.78734e-13
8.49237e-14
3.45232e-13
-4.15857e-13
6.20436e-14
2.68032e-13
-3.60038e-13
4.45149e-14
2.134e-13
-3.14135e-13
3.06733e-14
1.69856e-13
-2.85194e-13
1.96047e-14
1.21727e-13
-3.387e-13
1.15417e-14
1.01366e-13
4.47658e-15
6.28028e-14
-1.97305e-14
-1.09212e-12
3.47807e-13
9.03537e-13
-1.29277e-12
2.24442e-13
8.92596e-13
-7.75617e-13
1.39824e-13
7.21362e-13
-6.32374e-13
1.01776e-13
5.43282e-13
-5.3207e-13
7.28789e-14
4.14614e-13
-4.50189e-13
5.40268e-14
3.16877e-13
-3.83867e-13
3.69001e-14
2.5016e-13
-3.37154e-13
2.35196e-14
1.76291e-13
-3.99688e-13
1.29993e-14
1.38898e-13
5.19056e-15
8.70519e-14
-2.29968e-14
-2.48809e-12
8.48253e-11
2.4187e-11
-1.65672e-12
1.02675e-12
1.76675e-12
-1.03916e-12
1.97761e-13
1.17704e-12
-8.25908e-13
1.65702e-13
8.51595e-13
-6.73035e-13
1.08546e-13
6.2448e-13
-5.54681e-13
6.7274e-14
4.64495e-13
-4.60194e-13
3.17431e-14
3.45247e-13
-3.95083e-13
1.75245e-14
2.54041e-13
-4.63426e-13
9.06148e-15
1.91213e-13
3.74323e-15
1.15778e-13
-2.65231e-14
-9.35086e-10
2.3127e-08
1.09282e-07
-7.64651e-12
2.41968e-10
4.61218e-10
-1.37427e-12
2.70701e-12
1.68644e-12
-1.06393e-12
1.08681e-12
9.54246e-14
-8.44229e-13
7.81814e-13
6.52671e-14
-6.74519e-13
5.72916e-13
5.01419e-14
-5.46491e-13
4.24036e-13
3.93754e-14
-4.5648e-13
3.1947e-13
3.14777e-14
-5.29883e-13
2.41557e-13
2.55662e-14
1.43695e-13
-3.02542e-14
2.1108e-14
3.41404e-13
8.15235e-14
2.96245e-14
-1.67819e-14
7.74638e-14
2.83471e-14
-2.3713e-14
6.82799e-14
2.23052e-14
-1.9801e-14
5.95309e-14
1.8115e-14
-1.97938e-14
5.10078e-14
8.25068e-15
-1.99946e-14
4.27812e-14
7.48205e-15
-1.92369e-14
3.48704e-14
6.0795e-15
-1.96557e-14
2.72203e-14
8.6224e-15
-2.28467e-14
1.98496e-14
2.35461e-14
1.27633e-14
6.60497e-14
-1.87675e-15
2.90957e-13
5.86965e-14
5.11811e-14
-6.48927e-14
5.39665e-14
4.49204e-14
-7.19649e-14
4.58431e-14
4.46717e-14
-6.64823e-14
3.79848e-14
3.49536e-14
-6.38701e-14
3.07209e-14
1.87693e-14
-6.10346e-14
2.39845e-14
1.30801e-14
-5.98282e-14
1.77804e-14
1.32759e-14
-5.90948e-14
1.21529e-14
1.24788e-14
-7.05656e-14
6.99566e-15
1.73984e-14
2.62089e-15
4.72107e-14
-4.56774e-15
2.13534e-13
7.47757e-14
7.42311e-14
-1.64736e-13
6.75769e-14
6.81315e-14
-1.36209e-13
5.68273e-14
6.92868e-14
-1.17534e-13
4.68666e-14
5.62489e-14
-1.1195e-13
3.77994e-14
4.36892e-14
-1.05945e-13
2.96156e-14
2.36228e-14
-9.74965e-14
2.23053e-14
2.06618e-14
-1.04436e-13
1.53677e-14
2.23379e-14
-1.19614e-13
9.77434e-15
2.63444e-14
3.2865e-15
3.97101e-14
-7.68417e-15
9.34336e-14
9.33261e-14
1.18849e-13
-2.87488e-13
8.1723e-14
1.18401e-13
-2.1787e-13
6.70392e-14
1.1981e-13
-1.81224e-13
5.41291e-14
9.74481e-14
-1.68598e-13
4.29562e-14
7.89505e-14
-1.56288e-13
3.29982e-14
5.041e-14
-1.44795e-13
2.40063e-14
3.80519e-14
-1.49263e-13
1.64498e-14
4.11058e-14
-1.71619e-13
9.65113e-15
3.98836e-14
4.12786e-15
4.291e-14
-9.99981e-15
-2.38421e-14
1.18072e-13
2.06071e-13
-4.4397e-13
9.96395e-14
2.1064e-13
-3.19656e-13
7.97725e-14
2.02635e-13
-2.60001e-13
6.25949e-14
1.65786e-13
-2.37203e-13
4.8242e-14
1.34673e-13
-2.17221e-13
3.64567e-14
1.08068e-13
-1.95423e-13
2.64549e-14
6.67553e-14
-1.97971e-13
1.77229e-14
5.63695e-14
-2.25144e-13
1.01663e-14
6.26692e-14
4.25617e-15
5.40269e-14
-1.34307e-14
-1.60342e-13
1.51089e-13
3.66536e-13
-6.49288e-13
1.23849e-13
3.73778e-13
-4.27627e-13
9.57701e-14
3.41043e-13
-3.59198e-13
7.32545e-14
2.76142e-13
-3.18358e-13
5.52364e-14
2.21191e-13
-2.84941e-13
4.03096e-14
1.80696e-13
-2.53083e-13
2.84408e-14
1.10141e-13
-2.39252e-13
1.88844e-14
8.71378e-14
-2.81236e-13
1.14455e-14
7.88784e-14
4.07378e-15
7.09596e-14
-1.66013e-14
-5.74399e-13
1.89155e-13
6.45344e-13
-9.27426e-13
1.54875e-13
6.51923e-13
-5.78772e-13
1.16112e-13
5.65006e-13
-4.82305e-13
8.6013e-14
4.42309e-13
-4.18333e-13
6.29357e-14
3.48482e-13
-3.62466e-13
4.52166e-14
2.77714e-13
-3.16741e-13
3.14725e-14
1.97116e-13
-2.85943e-13
2.0136e-14
1.31333e-13
-3.40667e-13
1.1713e-14
1.07866e-13
4.85715e-15
9.47756e-14
-1.97639e-14
-1.10581e-12
3.45229e-13
1.15413e-12
-1.30383e-12
2.2755e-13
1.12763e-12
-7.82441e-13
1.42198e-13
9.21365e-13
-6.37762e-13
1.03294e-13
6.96339e-13
-5.36534e-13
7.40183e-14
5.31465e-13
-4.53325e-13
5.46422e-14
4.14741e-13
-3.87943e-13
3.75514e-14
3.20139e-13
-3.39623e-13
2.42073e-14
1.93417e-13
-4.02493e-13
1.36301e-14
1.49261e-13
5.66978e-15
1.06083e-13
-2.30744e-14
-2.45651e-12
8.09428e-11
2.08085e-11
-1.69109e-12
9.20868e-13
2.07865e-12
-1.05086e-12
2.00333e-13
1.50367e-12
-8.34524e-13
1.68732e-13
1.08483e-12
-6.80038e-13
1.10649e-13
8.03321e-13
-5.60238e-13
6.88336e-14
6.05709e-13
-4.65369e-13
3.27562e-14
4.63881e-13
-3.98662e-13
1.81964e-14
2.73704e-13
-4.67798e-13
9.52365e-15
2.03176e-13
4.20315e-15
1.29541e-13
-2.65846e-14
-9.02014e-10
2.10618e-08
1.12485e-07
-6.85866e-12
1.70324e-10
4.35083e-10
-1.32732e-12
3.05137e-12
1.26185e-12
-1.07748e-12
1.63445e-12
8.67477e-14
-8.53994e-13
1.17735e-12
6.41895e-14
-6.8231e-13
8.60411e-13
5.01256e-14
-5.53509e-13
6.39324e-13
3.98587e-14
-4.61583e-13
4.20529e-13
3.23222e-14
-5.35939e-13
2.714e-13
2.65081e-14
1.61529e-13
-3.00801e-14
2.23312e-14
3.41164e-13
8.16905e-14
1.75518e-14
-1.74777e-14
7.74624e-14
-4.03577e-16
-2.36168e-14
6.83799e-14
4.35771e-15
-2.05703e-14
5.96171e-14
7.82298e-15
-2.02783e-14
5.11254e-14
2.03174e-14
-2.08534e-14
4.29523e-14
4.40785e-14
-2.05158e-14
3.51041e-14
8.57906e-14
-1.97946e-14
2.75945e-14
3.10118e-13
-1.10223e-14
2.03979e-14
1.1989e-12
1.29552e-14
3.36072e-12
-1.25082e-14
2.90258e-13
5.88784e-14
2.65286e-14
-6.52149e-14
5.4039e-14
-5.11621e-17
-7.24252e-14
4.58678e-14
1.12379e-14
-6.70474e-14
3.80599e-14
1.33734e-14
-6.43679e-14
3.08374e-14
2.44419e-14
-6.13838e-14
2.41409e-14
4.58185e-14
-6.13373e-14
1.79554e-14
7.71445e-14
-6.34852e-14
1.23826e-14
2.08064e-13
-7.05676e-14
7.38362e-15
7.144e-13
2.74406e-15
2.20229e-12
-1.21095e-14
2.12578e-13
7.5033e-14
3.6025e-14
-1.65509e-13
6.77329e-14
1.62848e-15
-1.36279e-13
5.70443e-14
1.82424e-14
-1.18543e-13
4.70479e-14
2.18114e-14
-1.11818e-13
3.8021e-14
3.04225e-14
-1.0665e-13
2.99462e-14
5.16734e-14
-1.00046e-13
2.26538e-14
8.57524e-14
-1.06372e-13
1.55552e-14
1.62017e-13
-1.23854e-13
9.27528e-15
4.70766e-13
3.50883e-15
1.45e-12
-8.16296e-15
9.26685e-14
9.38148e-14
6.14399e-14
-2.88216e-13
8.19929e-14
1.59749e-14
-2.18561e-13
6.72672e-14
3.92364e-14
-1.81711e-13
5.44021e-14
4.25882e-14
-1.68377e-13
4.32164e-14
5.10531e-14
-1.56729e-13
3.31653e-14
6.68371e-14
-1.47422e-13
2.43945e-14
9.87303e-14
-1.5194e-13
1.69768e-14
1.48582e-13
-1.76863e-13
9.92621e-15
3.49565e-13
4.44762e-15
1.00317e-12
-8.25815e-15
-2.50629e-14
1.18892e-13
1.08429e-13
-4.45031e-13
1.0012e-13
5.5391e-14
-3.19757e-13
8.02294e-14
8.17486e-14
-2.60989e-13
6.31089e-14
8.14046e-14
-2.37803e-13
4.87181e-14
8.41166e-14
-2.17169e-13
3.70384e-14
1.22226e-13
-1.97228e-13
2.67151e-14
1.20985e-13
-2.02267e-13
1.79529e-14
1.57612e-13
-2.30859e-13
1.08906e-14
2.95529e-13
4.23083e-15
7.32115e-13
-9.99613e-15
-1.62532e-13
1.52275e-13
1.95918e-13
-6.50839e-13
1.24555e-13
1.34299e-13
-4.27512e-13
9.64709e-14
1.58641e-13
-3.61109e-13
7.38792e-14
1.4827e-13
-3.18537e-13
5.58628e-14
1.41488e-13
-2.87244e-13
4.08134e-14
1.73699e-13
-2.54435e-13
2.88412e-14
1.59553e-13
-2.42602e-13
1.93113e-14
1.9564e-13
-2.87655e-13
1.163e-14
2.8007e-13
4.69326e-15
5.69149e-13
-1.36573e-14
-5.80448e-13
1.95411e-13
3.57986e-13
-9.29677e-13
1.56146e-13
2.82817e-13
-5.80806e-13
1.1707e-13
2.90304e-13
-4.84444e-13
8.69253e-14
2.55631e-13
-4.1961e-13
6.37011e-14
2.2811e-13
-3.65436e-13
4.59499e-14
2.24886e-13
-3.18385e-13
3.2331e-14
1.71931e-13
-2.90029e-13
2.08659e-14
2.37371e-13
-3.47473e-13
1.23858e-14
2.92059e-13
5.12856e-15
4.7313e-13
-1.80086e-14
-1.11519e-12
3.16124e-13
6.34328e-13
-1.3076e-12
1.84745e-13
5.53813e-13
-7.85952e-13
1.45363e-13
5.09484e-13
-6.41208e-13
1.04705e-13
4.25893e-13
-5.39073e-13
7.53597e-14
3.60936e-13
-4.56199e-13
5.58445e-14
3.15841e-13
-3.91704e-13
3.86476e-14
3.71481e-13
-3.43405e-13
2.48996e-14
2.96041e-13
-4.10386e-13
1.43524e-14
3.26127e-13
6.3116e-15
4.19626e-13
-2.21268e-14
-2.11968e-12
3.73736e-11
-1.22131e-12
-1.78423e-12
3.7731e-13
8.6912e-13
-1.05892e-12
2.6382e-13
8.61665e-13
-8.39228e-13
1.72275e-13
6.84688e-13
-6.84792e-13
1.12946e-13
5.51411e-13
-5.63759e-13
7.0994e-14
4.71763e-13
-4.72184e-13
3.40726e-14
5.20381e-13
-4.02369e-13
1.89954e-14
3.17645e-13
-4.76577e-13
1.00887e-14
3.74214e-13
4.79916e-15
3.96231e-13
-2.61362e-14
-4.35e-10
-6.49716e-09
8.42647e-08
-2.74438e-12
-1.62922e-10
1.25292e-10
-1.31663e-12
3.67149e-13
-3.53018e-13
-1.09114e-12
1.10092e-12