/*--------------------------------*- C++ -*----------------------------------*\
| =========                 |                                                 |
| \\      /  F ield         | OpenFOAM: The Open Source CFD Toolbox           |
|  \\    /   O peration     | Version:  4.1                                   |
|   \\  /    A nd           | Web:      www.OpenFOAM.org                      |
|    \\/     M anipulation  |                                                 |
\*---------------------------------------------------------------------------*/
FoamFile
{
    version     2.0;
    format      ascii;
    class       volVectorField;
    location    "0.84";
    object      U;
}
// * * * * * * * * * * * * * * * * * * * * * * * * * * * * * * * * * * * * * //

dimensions      [0 1 -1 0 0 0 0];

internalField   nonuniform List<vector> 
18000
(
(8.77665e-14 3.85054e-13 -5.84278e-12)
(9.26702e-14 3.84643e-13 -5.77807e-12)
(8.34995e-14 -9.73333e-15 -5.71332e-12)
(7.45521e-14 -1.40574e-14 -5.64998e-12)
(6.58508e-14 -1.37866e-14 -5.58717e-12)
(5.73959e-14 -1.34071e-14 -5.52509e-12)
(4.92384e-14 -1.34311e-14 -5.46362e-12)
(4.14365e-14 -1.34361e-14 -5.40341e-12)
(3.38394e-14 -1.32111e-14 -5.34408e-12)
(2.65659e-14 -9.66366e-15 -5.28684e-12)
(1.32883e-13 3.95549e-13 -7.27886e-12)
(1.45233e-13 3.82508e-13 -7.02883e-12)
(1.27062e-13 -4.74704e-14 -6.78559e-12)
(1.09827e-13 -5.03771e-14 -6.55316e-12)
(9.38774e-14 -4.86511e-14 -6.33071e-12)
(7.90559e-14 -4.67091e-14 -6.11714e-12)
(6.51385e-14 -4.49092e-14 -5.91205e-12)
(5.23691e-14 -4.3353e-14 -5.71553e-12)
(4.03676e-14 -4.1664e-14 -5.52615e-12)
(2.92619e-14 -3.00783e-14 -5.34897e-12)
(1.47834e-13 3.97761e-13 -9.17243e-12)
(1.55611e-13 3.66824e-13 -8.62911e-12)
(1.28665e-13 -1.02386e-13 -8.117e-12)
(1.0448e-13 -1.00694e-13 -7.64269e-12)
(8.31329e-14 -9.39574e-14 -7.20087e-12)
(6.42163e-14 -8.81532e-14 -6.78984e-12)
(4.73884e-14 -8.27477e-14 -6.40783e-12)
(3.2462e-14 -7.77034e-14 -6.05058e-12)
(1.92228e-14 -7.31155e-14 -5.71783e-12)
(7.53766e-15 -5.14815e-14 -5.41248e-12)
(2.0074e-13 3.85298e-13 -1.16989e-11)
(1.9911e-13 3.28683e-13 -1.06926e-11)
(1.59167e-13 -1.81492e-13 -9.78065e-12)
(1.25124e-13 -1.69449e-13 -8.95908e-12)
(9.64955e-14 -1.53754e-13 -8.22086e-12)
(7.22817e-14 -1.39884e-13 -7.55536e-12)
(5.19522e-14 -1.27578e-13 -6.95411e-12)
(3.45766e-14 -1.16608e-13 -6.41015e-12)
(1.997e-14 -1.06454e-13 -5.91697e-12)
(7.70134e-15 -7.34456e-14 -5.47687e-12)
(2.78755e-13 3.46009e-13 -1.51194e-11)
(2.59167e-13 2.53264e-13 -1.33845e-11)
(1.99473e-13 -2.96154e-13 -1.18744e-11)
(1.5122e-13 -2.64422e-13 -1.05616e-11)
(1.12754e-13 -2.31779e-13 -9.42208e-12)
(8.19121e-14 -2.04159e-13 -8.4281e-12)
(5.70562e-14 -1.80829e-13 -7.55863e-12)
(3.70047e-14 -1.60824e-13 -6.79632e-12)
(2.08094e-14 -1.42924e-13 -6.12485e-12)
(7.78251e-15 -9.64541e-14 -5.54249e-12)
(3.96798e-13 2.60037e-13 -1.98196e-11)
(3.44269e-13 1.1514e-13 -1.69382e-11)
(2.53579e-13 -4.63898e-13 -1.45356e-11)
(1.84565e-13 -3.95739e-13 -1.25249e-11)
(1.32673e-13 -3.34319e-13 -1.08426e-11)
(9.31083e-14 -2.84777e-13 -9.42629e-12)
(6.28389e-14 -2.44269e-13 -8.22869e-12)
(3.95917e-14 -2.10714e-13 -7.21108e-12)
(2.1674e-14 -1.82276e-13 -6.34158e-12)
(7.87602e-15 -1.2044e-13 -5.60911e-12)
(5.79044e-13 9.23629e-14 -2.63709e-11)
(4.65484e-13 -1.29162e-13 -2.16969e-11)
(3.25788e-13 -7.13402e-13 -1.79489e-11)
(2.26239e-13 -5.79475e-13 -1.49478e-11)
(1.55734e-13 -4.69707e-13 -1.25317e-11)
(1.04975e-13 -3.85572e-13 -1.05723e-11)
(6.81153e-14 -3.19701e-13 -8.97216e-12)
(4.12072e-14 -2.6755e-13 -7.65686e-12)
(2.14351e-14 -2.25111e-13 -6.56822e-12)
(6.84163e-15 -1.45447e-13 -5.67666e-12)
(-2.97365e-12 -2.22533e-13 -3.56924e-11)
(-3.24036e-12 -5.57102e-13 -2.81571e-11)
(-3.25926e-12 -1.08788e-12 -2.23838e-11)
(-3.21705e-12 -8.3822e-13 -1.79682e-11)
(-3.14294e-12 -6.49364e-13 -1.45593e-11)
(-3.05196e-12 -5.12126e-13 -1.19009e-11)
(-2.95336e-12 -4.09575e-13 -9.80773e-12)
(-2.85246e-12 -3.31647e-13 -8.14511e-12)
(-2.75287e-12 -2.71286e-13 -6.81165e-12)
(-2.70656e-12 -1.71577e-13 -5.75287e-12)
(-6.24638e-09 -1.5836e-12 -9.11922e-11)
(-6.36293e-09 -1.434e-12 -7.47178e-11)
(-6.00385e-09 -1.14322e-12 -6.17667e-11)
(-5.67544e-09 -7.19615e-13 -5.1794e-11)
(-5.37778e-09 -4.42351e-13 -4.40071e-11)
(-5.10742e-09 -2.5912e-13 -3.78279e-11)
(-4.86117e-09 -1.36412e-13 -3.28555e-11)
(-4.63625e-09 -5.43258e-14 -2.88026e-11)
(-4.4308e-09 -1.31625e-13 -2.546e-11)
(-4.35394e-09 -3.20065e-13 -2.30222e-11)
(6.87811e-07 -1.63206e-09 -7.31879e-08)
(3.62304e-08 -4.09511e-10 -6.44595e-08)
(2.7722e-08 8.56146e-10 -5.68139e-08)
(2.28958e-08 7.9061e-10 -5.03769e-08)
(1.87871e-08 7.21301e-10 -4.49187e-08)
(1.52569e-08 6.58606e-10 -4.02642e-08)
(1.22023e-08 6.02397e-10 -3.62707e-08)
(9.53986e-09 5.50534e-10 -3.2824e-08)
(6.67037e-09 2.08043e-10 -2.98361e-08)
(-1.21945e-07 -3.13768e-10 -2.79554e-08)
(2.54056e-13 3.64667e-13 -6.28255e-12)
(2.38644e-13 3.44648e-13 -6.21053e-12)
(2.09571e-13 -4.94302e-14 -6.13885e-12)
(1.81513e-13 -5.32344e-14 -6.06792e-12)
(1.54565e-13 -5.2706e-14 -5.99831e-12)
(1.28562e-13 -5.20279e-14 -5.92985e-12)
(1.03539e-13 -5.15437e-14 -5.8611e-12)
(7.95138e-14 -5.09256e-14 -5.79467e-12)
(5.62027e-14 -4.97416e-14 -5.72889e-12)
(3.43392e-14 -2.89342e-14 -5.66485e-12)
(5.07083e-13 3.19914e-13 -7.88568e-12)
(4.68756e-13 2.36512e-13 -7.60565e-12)
(4.02267e-13 -1.89567e-13 -7.33281e-12)
(3.39989e-13 -1.87225e-13 -7.073e-12)
(2.81864e-13 -1.80814e-13 -6.82489e-12)
(2.27627e-13 -1.74602e-13 -6.58655e-12)
(1.77007e-13 -1.68516e-13 -6.35906e-12)
(1.29666e-13 -1.63049e-13 -6.14042e-12)
(8.5387e-14 -1.55861e-13 -5.93108e-12)
(4.46988e-14 -8.86969e-14 -5.73382e-12)
(6.19913e-13 2.40148e-13 -1.00259e-11)
(5.53062e-13 6.81952e-14 -9.40781e-12)
(4.58495e-13 -3.85692e-13 -8.82975e-12)
(3.73262e-13 -3.67262e-13 -8.29389e-12)
(2.97288e-13 -3.4542e-13 -7.79787e-12)
(2.2943e-13 -3.24928e-13 -7.3374e-12)
(1.68732e-13 -3.06314e-13 -6.9108e-12)
(1.14437e-13 -2.89051e-13 -6.51312e-12)
(6.59963e-14 -2.70476e-13 -6.143e-12)
(2.32292e-14 -1.51771e-13 -5.80506e-12)
(8.02526e-13 1.05651e-13 -1.29194e-11)
(6.91059e-13 -1.88932e-13 -1.17603e-11)
(5.56324e-13 -6.59326e-13 -1.07181e-11)
(4.40023e-13 -6.07792e-13 -9.78252e-12)
(3.40981e-13 -5.55651e-13 -8.94641e-12)
(2.56156e-13 -5.09332e-13 -8.19621e-12)
(1.83577e-13 -4.67715e-13 -7.52208e-12)
(1.2151e-13 -4.30209e-13 -6.91466e-12)
(6.83118e-14 -3.92939e-13 -6.36456e-12)
(2.36224e-14 -2.17099e-13 -5.8761e-12)
(1.05484e-12 -1.15276e-13 -1.69003e-11)
(8.7389e-13 -5.79929e-13 -1.48719e-11)
(6.81001e-13 -1.04136e-12 -1.31229e-11)
(5.2229e-13 -9.28805e-13 -1.16121e-11)
(3.92853e-13 -8.24378e-13 -1.03099e-11)
(2.86952e-13 -7.34586e-13 -9.18225e-12)
(2.00251e-13 -6.5649e-13 -8.20149e-12)
(1.29203e-13 -5.88648e-13 -7.34604e-12)
(7.08715e-14 -5.24786e-13 -6.5963e-12)
(2.39482e-14 -2.85337e-13 -5.94954e-12)
(1.40849e-12 -4.71836e-13 -2.24779e-11)
(1.12071e-12 -1.17177e-12 -1.90437e-11)
(8.4185e-13 -1.5772e-12 -1.62197e-11)
(6.24232e-13 -1.35871e-12 -1.38761e-11)
(4.54852e-13 -1.16828e-12 -1.19357e-11)
(3.22447e-13 -1.01025e-12 -1.03166e-11)
(2.18759e-13 -8.77708e-13 -8.9588e-12)
(1.37387e-13 -7.66284e-13 -7.81253e-12)
(7.35723e-14 -6.66234e-13 -6.83962e-12)
(2.42381e-14 -3.56147e-13 -6.02476e-12)
(1.9167e-12 -1.03944e-12 -3.04346e-11)
(1.45728e-12 -2.06781e-12 -2.47352e-11)
(1.05125e-12 -2.33652e-12 -2.02518e-11)
(7.51215e-13 -1.93638e-12 -1.67019e-11)
(5.29013e-13 -1.60929e-12 -1.38861e-11)
(3.63349e-13 -1.34809e-12 -1.1628e-11)
(2.39268e-13 -1.13706e-12 -9.80246e-12)
(1.46214e-13 -9.65496e-13 -8.31599e-12)
(7.62587e-14 -8.18339e-13 -7.09354e-12)
(2.45554e-14 -4.30283e-13 -6.10147e-12)
(2.57964e-12 -1.96155e-12 -4.20782e-11)
(1.66466e-12 -3.44175e-12 -3.26345e-11)
(1.10018e-12 -3.4171e-12 -2.55805e-11)
(7.10525e-13 -2.71704e-12 -2.02733e-11)
(4.38685e-13 -2.17616e-12 -1.62513e-11)
(2.47261e-13 -1.76253e-12 -1.31598e-11)
(1.11744e-13 -1.44116e-12 -1.07575e-11)
(1.56696e-14 -1.18912e-12 -8.86878e-12)
(-5.26318e-14 -9.81662e-13 -7.36748e-12)
(-1.00948e-13 -5.07066e-13 -6.18721e-12)
(-2.34457e-10 -4.76964e-12 -1.04838e-10)
(-5.83569e-10 -6.66587e-12 -8.42119e-11)
(-4.8244e-10 -5.45909e-12 -6.84905e-11)
(-4.00074e-10 -4.22249e-12 -5.66796e-11)
(-3.35269e-10 -3.31917e-12 -4.76685e-11)
(-2.8356e-10 -2.65238e-12 -4.0648e-11)
(-2.41857e-10 -2.14991e-12 -3.50838e-11)
(-2.07892e-10 -1.76614e-12 -3.06056e-11)
(-1.80019e-10 -1.46235e-12 -2.69492e-11)
(-1.59669e-10 -8.92013e-13 -2.42877e-11)
(4.79906e-07 -2.63884e-09 -8.09695e-08)
(-8.71912e-09 -2.08421e-09 -7.0726e-08)
(-1.00987e-08 -7.68786e-10 -6.15933e-08)
(-9.44486e-09 -7.04938e-10 -5.40728e-08)
(-8.80868e-09 -6.54058e-10 -4.7819e-08)
(-8.21727e-09 -6.05322e-10 -4.25699e-08)
(-7.67714e-09 -5.59942e-10 -3.81255e-08)
(-7.18991e-09 -5.18263e-10 -3.43323e-08)
(-6.79426e-09 -4.8747e-10 -3.1075e-08)
(-1.00103e-08 -5.18294e-10 -2.90009e-08)
(2.32017e-13 3.68043e-13 -4.5521e-13)
(2.18858e-13 3.45676e-13 -4.47254e-13)
(1.91867e-13 -4.86128e-14 -4.39348e-13)
(1.66147e-13 -5.24488e-14 -4.31351e-13)
(1.41496e-13 -5.15273e-14 -4.23611e-13)
(1.177e-13 -5.11307e-14 -4.16204e-13)
(9.52306e-14 -5.06715e-14 -4.08704e-13)
(7.34907e-14 -4.98104e-14 -4.01938e-13)
(5.26816e-14 -4.89414e-14 -3.95068e-13)
(3.32203e-14 -2.5793e-14 -3.88291e-13)
(5.03933e-13 3.32099e-13 -6.30601e-13)
(4.65084e-13 2.38545e-13 -5.98563e-13)
(3.98536e-13 -1.87606e-13 -5.6709e-13)
(3.36246e-13 -1.84778e-13 -5.3758e-13)
(2.78415e-13 -1.78342e-13 -5.10473e-13)
(2.24535e-13 -1.718e-13 -4.85184e-13)
(1.74572e-13 -1.65556e-13 -4.60348e-13)
(1.27861e-13 -1.59969e-13 -4.37137e-13)
(8.42579e-14 -1.52801e-13 -4.16786e-13)
(4.45909e-14 -7.97291e-14 -3.95733e-13)
(6.23345e-13 2.62874e-13 -8.90955e-13)
(5.539e-13 6.8374e-14 -8.11894e-13)
(4.57917e-13 -3.846e-13 -7.41458e-13)
(3.71582e-13 -3.65415e-13 -6.77012e-13)
(2.9507e-13 -3.42362e-13 -6.19527e-13)
(2.27165e-13 -3.21261e-13 -5.6704e-13)
(1.66674e-13 -3.01995e-13 -5.20024e-13)
(1.12966e-13 -2.84528e-13 -4.77693e-13)
(6.49008e-14 -2.65265e-13 -4.38524e-13)
(2.306e-14 -1.36122e-13 -4.04555e-13)
(8.17711e-13 1.42485e-13 -1.28078e-12)
(6.99947e-13 -1.96429e-13 -1.11945e-12)
(5.60812e-13 -6.63385e-13 -9.80363e-13)
(4.41635e-13 -6.09264e-13 -8.59348e-13)
(3.40699e-13 -5.54474e-13 -7.5572e-13)
(2.55026e-13 -5.05979e-13 -6.66513e-13)
(1.82142e-13 -4.62652e-13 -5.89653e-13)
(1.20165e-13 -4.24643e-13 -5.22728e-13)
(6.74386e-14 -3.86526e-13 -4.63947e-13)
(2.34307e-14 -1.95645e-13 -4.13149e-13)
(1.09157e-12 -6.15814e-14 -1.88188e-12)
(8.96017e-13 -6.06464e-13 -1.56813e-12)
(6.93803e-13 -1.05857e-12 -1.31337e-12)
(5.28615e-13 -9.39037e-13 -1.10258e-12)
(3.95325e-13 -8.28276e-13 -9.29542e-13)
(2.873e-13 -7.33874e-13 -7.87829e-13)
(1.99602e-13 -6.52767e-13 -6.70558e-13)
(1.28212e-13 -5.82759e-13 -5.73037e-13)
(7.02802e-14 -5.16693e-13 -4.91173e-13)
(2.40183e-14 -2.57242e-13 -4.23838e-13)
(1.48325e-12 -4.01443e-13 -2.83097e-12)
(1.16526e-12 -1.24024e-12 -2.23657e-12)
(8.67722e-13 -1.62184e-12 -1.78378e-12)
(6.37477e-13 -1.38681e-12 -1.42648e-12)
(4.61102e-13 -1.1826e-12 -1.15153e-12)
(3.24652e-13 -1.01512e-12 -9.35929e-13)
(2.18982e-13 -8.76313e-13 -7.66293e-13)
(1.37039e-13 -7.6081e-13 -6.31178e-13)
(7.31278e-14 -6.57234e-13 -5.2075e-13)
(2.4478e-14 -3.22528e-13 -4.34825e-13)
(2.0593e-12 -9.56207e-13 -4.36499e-12)
(1.53986e-12 -2.22014e-12 -3.25204e-12)
(1.0978e-12 -2.43476e-12 -2.45591e-12)
(7.75437e-13 -1.99763e-12 -1.86534e-12)
(5.40837e-13 -1.64213e-12 -1.4362e-12)
(3.68339e-13 -1.36339e-12 -1.117e-12)
(2.40909e-13 -1.14039e-12 -8.77791e-13)
(1.46424e-13 -9.61729e-13 -6.95735e-13)
(7.60178e-14 -8.09021e-13 -5.53785e-13)
(2.49002e-14 -3.90459e-13 -4.47613e-13)
(3.13998e-12 -1.88304e-12 -6.92796e-12)
(2.07525e-12 -3.75831e-12 -4.83094e-12)
(1.40734e-12 -3.61354e-12 -3.43644e-12)
(9.51113e-13 -2.83572e-12 -2.4687e-12)
(6.36849e-13 -2.24099e-12 -1.80739e-12)
(4.17633e-13 -1.79446e-12 -1.3421e-12)
(2.63419e-13 -1.45274e-12 -1.01023e-12)
(1.54372e-13 -1.18898e-12 -7.688e-13)
(7.69109e-14 -9.72751e-13 -5.91047e-13)
(2.30141e-14 -4.61774e-13 -4.60843e-13)
(4.03777e-10 -4.12346e-12 -1.47361e-11)
(-2.24416e-11 -6.8428e-12 -1.0083e-11)
(-1.85066e-11 -5.43582e-12 -7.097e-12)
(-1.34614e-11 -4.06225e-12 -5.13432e-12)
(-1.0001e-11 -3.08042e-12 -3.83439e-12)
(-7.56471e-12 -2.37818e-12 -2.94556e-12)
(-5.81664e-12 -1.86323e-12 -2.32264e-12)
(-4.54169e-12 -1.4808e-12 -1.876e-12)
(-3.5976e-12 -1.18129e-12 -1.54743e-12)
(-2.88345e-12 -5.65637e-13 -1.31345e-12)
(4.15829e-07 -1.5028e-09 -8.39346e-09)
(9.27247e-10 -1.35582e-09 -6.57618e-09)
(-6.5067e-10 -1.72184e-10 -4.98256e-09)
(-5.35099e-10 -1.28178e-10 -3.83202e-09)
(-4.37369e-10 -1.02e-10 -2.99386e-09)
(-3.61417e-10 -8.19936e-11 -2.37136e-09)
(-3.01282e-10 -6.65762e-11 -1.90177e-09)
(-2.53369e-10 -5.45709e-11 -1.54247e-09)
(-2.16593e-10 -4.51129e-11 -1.26428e-09)
(-2.52212e-10 -3.94145e-11 -1.06444e-09)
(2.26801e-13 3.68661e-13 -2.05751e-14)
(2.14222e-13 3.45912e-13 -1.96425e-14)
(1.87826e-13 -4.82837e-14 -1.72786e-14)
(1.62583e-13 -5.21297e-14 -1.62066e-14)
(1.38559e-13 -5.14704e-14 -1.45994e-14)
(1.15527e-13 -5.08003e-14 -1.34656e-14)
(9.33884e-14 -5.01604e-14 -1.23017e-14)
(7.22028e-14 -4.93893e-14 -1.09424e-14)
(5.20252e-14 -4.83063e-14 -1.04643e-14)
(3.30175e-14 -2.5184e-14 -1.05798e-14)
(4.98032e-13 3.34955e-13 -3.12417e-14)
(4.6004e-13 2.40595e-13 -2.81989e-14)
(3.94272e-13 -1.85789e-13 -2.58522e-14)
(3.32757e-13 -1.82972e-13 -2.26074e-14)
(2.75625e-13 -1.76069e-13 -1.97481e-14)
(2.22408e-13 -1.70066e-13 -1.81441e-14)
(1.72988e-13 -1.64194e-13 -1.57616e-14)
(1.26866e-13 -1.5795e-13 -1.40683e-14)
(8.37712e-14 -1.5085e-13 -1.28573e-14)
(4.45471e-14 -7.76031e-14 -1.19755e-14)
(6.15541e-13 2.69816e-13 -4.97616e-14)
(5.47632e-13 7.31379e-14 -4.41091e-14)
(4.52754e-13 -3.80039e-13 -3.79933e-14)
(3.67502e-13 -3.61055e-13 -3.26162e-14)
(2.91906e-13 -3.38637e-13 -2.82875e-14)
(2.24731e-13 -3.17751e-13 -2.43681e-14)
(1.65137e-13 -2.98519e-13 -2.06762e-14)
(1.12043e-13 -2.81248e-13 -1.83013e-14)
(6.45782e-14 -2.6218e-13 -1.61459e-14)
(2.32153e-14 -1.32555e-13 -1.48747e-14)
(8.07586e-13 1.56496e-13 -8.09904e-14)
(6.91924e-13 -1.8716e-13 -6.99536e-14)
(5.54632e-13 -6.5558e-13 -5.84781e-14)
(4.36839e-13 -6.02115e-13 -4.8743e-14)
(3.3713e-13 -5.47876e-13 -4.06053e-14)
(2.52539e-13 -5.00014e-13 -3.45234e-14)
(1.80575e-13 -4.5739e-13 -2.87749e-14)
(1.19397e-13 -4.19518e-13 -2.4172e-14)
(6.73453e-14 -3.8185e-13 -2.13045e-14)
(2.38534e-14 -1.91118e-13 -1.84434e-14)
(1.07845e-12 -3.65549e-14 -1.37527e-13)
(8.86057e-13 -5.91068e-13 -1.13171e-13)
(6.86418e-13 -1.04537e-12 -9.10352e-14)
(5.23136e-13 -9.27804e-13 -7.28426e-14)
(3.91539e-13 -8.18588e-13 -5.91332e-14)
(2.8478e-13 -7.25218e-13 -4.7609e-14)
(1.98159e-13 -6.44903e-13 -3.89506e-14)
(1.27754e-13 -5.75811e-13 -3.3522e-14)
(7.01354e-14 -5.1071e-13 -2.91984e-14)
(2.45059e-14 -2.51405e-13 -2.44708e-14)
(1.46604e-12 -3.56855e-13 -2.38695e-13)
(1.15285e-12 -1.21565e-12 -1.85192e-13)
(8.58788e-13 -1.60214e-12 -1.43631e-13)
(6.31316e-13 -1.37042e-12 -1.10351e-13)
(4.57029e-13 -1.16852e-12 -8.64055e-14)
(3.22202e-13 -1.00331e-12 -6.88071e-14)
(2.17802e-13 -8.65988e-13 -5.5043e-14)
(1.36633e-13 -7.52634e-13 -4.52033e-14)
(7.32759e-14 -6.50379e-13 -3.64524e-14)
(2.50734e-14 -3.1521e-13 -3.0807e-14)
(2.0372e-12 -8.78453e-13 -4.19126e-13)
(1.5241e-12 -2.18299e-12 -3.07953e-13)
(1.08716e-12 -2.40533e-12 -2.2484e-13)
(7.68513e-13 -1.97431e-12 -1.6723e-13)
(5.3657e-13 -1.62335e-12 -1.25671e-13)
(3.65991e-13 -1.34778e-12 -9.64084e-14)
(2.39787e-13 -1.12773e-12 -7.54424e-14)
(1.461e-13 -9.51805e-13 -6.00536e-14)
(7.66606e-14 -8.00858e-13 -4.8207e-14)
(2.56899e-14 -3.82417e-13 -3.90692e-14)
(3.12023e-12 -1.74836e-12 -7.55164e-13)
(2.0548e-12 -3.70402e-12 -5.13884e-13)
(1.39439e-12 -3.57133e-12 -3.56005e-13)
(9.43958e-13 -2.80395e-12 -2.50685e-13)
(6.33696e-13 -2.216e-12 -1.81745e-13)
(4.17169e-13 -1.77537e-12 -1.34276e-13)
(2.64608e-13 -1.43794e-12 -1.00997e-13)
(1.56693e-13 -1.17693e-12 -7.79171e-14)
(7.99655e-14 -9.63632e-13 -6.19415e-14)
(2.64939e-14 -4.52977e-13 -4.90134e-14)
(4.53881e-10 -3.80843e-12 -1.63093e-12)
(5.23005e-12 -6.69521e-12 -8.57095e-13)
(1.18939e-12 -5.29792e-12 -5.59655e-13)
(7.70916e-13 -3.9538e-12 -3.8416e-13)
(4.97372e-13 -2.994e-12 -2.72511e-13)
(3.07607e-13 -2.30825e-12 -2.0051e-13)
(1.77324e-13 -1.80583e-12 -1.51526e-13)
(8.78983e-14 -1.43285e-12 -1.17811e-13)
(2.65314e-14 -1.14033e-12 -9.3622e-14)
(-1.33749e-14 -5.27631e-13 -7.65045e-14)
(4.12867e-07 -1.29468e-09 -9.45909e-10)
(1.72781e-09 -1.19981e-09 -3.24726e-10)
(-2.23134e-11 -2.71624e-11 -2.10202e-10)
(-1.95157e-11 -1.26234e-11 -1.40358e-10)
(-1.39795e-11 -8.91545e-12 -9.62074e-11)
(-1.02318e-11 -6.45505e-12 -6.73925e-11)
(-7.61465e-12 -4.75695e-12 -4.81449e-11)
(-5.75705e-12 -3.5674e-12 -3.50247e-11)
(-4.45857e-12 -2.70475e-12 -2.59105e-11)
(-4.3632e-12 -1.67177e-12 -1.9444e-11)
(2.26982e-13 3.68572e-13 -1.1441e-14)
(2.14306e-13 3.45283e-13 -1.03286e-14)
(1.88054e-13 -4.9067e-14 -7.82181e-15)
(1.62739e-13 -5.26218e-14 -5.62543e-15)
(1.38635e-13 -5.17403e-14 -4.47186e-15)
(1.15474e-13 -5.11825e-14 -3.35745e-15)
(9.35148e-14 -5.08312e-14 -2.6622e-15)
(7.23876e-14 -4.97114e-14 -1.56408e-15)
(5.21119e-14 -4.82655e-14 -4.83722e-16)
(3.31275e-14 -2.5407e-14 -4.93505e-16)
(4.98726e-13 3.34683e-13 -1.63506e-14)
(4.60643e-13 2.40154e-13 -1.4592e-14)
(3.94854e-13 -1.86255e-13 -1.13347e-14)
(3.33151e-13 -1.83815e-13 -9.67808e-15)
(2.75987e-13 -1.76906e-13 -6.66924e-15)
(2.22685e-13 -1.70342e-13 -4.79801e-15)
(1.73272e-13 -1.64299e-13 -4.21354e-15)
(1.27242e-13 -1.58411e-13 -3.61934e-15)
(8.41291e-14 -1.51049e-13 -2.52827e-15)
(4.49332e-14 -7.75603e-14 -1.63118e-15)
(6.16843e-13 2.6958e-13 -2.69201e-14)
(5.48858e-13 7.23428e-14 -2.39308e-14)
(4.53751e-13 -3.81261e-13 -1.94274e-14)
(3.68361e-13 -3.621e-13 -1.5356e-14)
(2.92696e-13 -3.39119e-13 -1.22716e-14)
(2.25515e-13 -3.1834e-13 -9.74078e-15)
(1.65715e-13 -2.98992e-13 -7.82982e-15)
(1.12588e-13 -2.81396e-13 -6.62054e-15)
(6.51404e-14 -2.62129e-13 -6.10601e-15)
(2.37307e-14 -1.32685e-13 -5.47552e-15)
(8.09922e-13 1.56155e-13 -4.61128e-14)
(6.9415e-13 -1.88366e-13 -4.02202e-14)
(5.56453e-13 -6.56958e-13 -3.34626e-14)
(4.38424e-13 -6.03486e-13 -2.7228e-14)
(3.38515e-13 -5.48943e-13 -2.22486e-14)
(2.53649e-13 -5.00917e-13 -1.82119e-14)
(1.81573e-13 -4.58207e-13 -1.53823e-14)
(1.20372e-13 -4.2012e-13 -1.31565e-14)
(6.83102e-14 -3.82209e-13 -1.12699e-14)
(2.45743e-14 -1.90788e-13 -1.0639e-14)
(1.08267e-12 -3.68194e-14 -8.09861e-14)
(8.89684e-13 -5.93359e-13 -7.01812e-14)
(6.89459e-13 -1.0484e-12 -5.69876e-14)
(5.2565e-13 -9.30133e-13 -4.59328e-14)
(3.93644e-13 -8.20489e-13 -3.82303e-14)
(2.86598e-13 -7.27042e-13 -3.13629e-14)
(1.99724e-13 -6.45951e-13 -2.56426e-14)
(1.29076e-13 -5.76213e-13 -2.23126e-14)
(7.14111e-14 -5.11449e-13 -1.95683e-14)
(2.55768e-14 -2.51962e-13 -1.6828e-14)
(1.47315e-12 -3.58363e-13 -1.43327e-13)
(1.15882e-12 -1.22046e-12 -1.19203e-13)
(8.63532e-13 -1.60674e-12 -9.52377e-14)
(6.35262e-13 -1.37464e-12 -7.61338e-14)
(4.60183e-13 -1.17181e-12 -6.14157e-14)
(3.24891e-13 -1.006e-12 -5.10174e-14)
(2.20024e-13 -8.68381e-13 -4.11763e-14)
(1.38475e-13 -7.5424e-13 -3.44763e-14)
(7.477e-14 -6.51706e-13 -3.00707e-14)
(2.63711e-14 -3.15928e-13 -2.55261e-14)
(2.04913e-12 -8.81016e-13 -2.55229e-13)
(1.5339e-12 -2.19268e-12 -2.04704e-13)
(1.09446e-12 -2.41454e-12 -1.57802e-13)
(7.74191e-13 -1.98158e-12 -1.22248e-13)
(5.41104e-13 -1.62928e-12 -9.73729e-14)
(3.69501e-13 -1.35265e-12 -7.76326e-14)
(2.42662e-13 -1.13148e-12 -6.25463e-14)
(1.48514e-13 -9.54601e-13 -5.15908e-14)
(7.85498e-14 -8.03495e-13 -4.32615e-14)
(2.73356e-14 -3.83844e-13 -3.63396e-14)
(3.15386e-12 -1.75369e-12 -4.5783e-13)
(2.06982e-12 -3.72362e-12 -3.48631e-13)
(1.40541e-12 -3.58831e-12 -2.56008e-13)
(9.52399e-13 -2.81685e-12 -1.92606e-13)
(6.40116e-13 -2.22623e-12 -1.47752e-13)
(4.22125e-13 -1.78338e-12 -1.15142e-13)
(2.6847e-13 -1.44411e-12 -9.10687e-14)
(1.59665e-13 -1.18192e-12 -7.31111e-14)
(8.22424e-14 -9.67549e-13 -5.9484e-14)
(2.83408e-14 -4.55252e-13 -5.00404e-14)
(4.81249e-10 -3.86213e-12 -1.09864e-12)
(6.5157e-12 -6.76965e-12 -5.89031e-13)
(1.81835e-12 -5.32734e-12 -4.12798e-13)
(1.16747e-12 -3.97531e-12 -2.9929e-13)
(7.5182e-13 -3.01042e-12 -2.21393e-13)
(4.76446e-13 -2.32066e-12 -1.6716e-13)
(2.9197e-13 -1.81521e-12 -1.27539e-13)
(1.67422e-13 -1.44002e-12 -1.00083e-13)
(8.25085e-14 -1.14595e-12 -7.91877e-14)
(2.60674e-14 -5.30369e-13 -6.40855e-14)
(4.38207e-07 -1.3676e-09 -7.13586e-10)
(1.95876e-09 -1.25221e-09 -1.89288e-11)
(6.26604e-12 -1.79727e-11 -7.13819e-12)
(5.73036e-13 -5.87901e-12 -4.20906e-12)
(3.93496e-13 -4.19498e-12 -2.55531e-12)
(2.76881e-13 -3.08567e-12 -1.61516e-12)
(1.8941e-13 -2.31588e-12 -1.05255e-12)
(1.25942e-13 -1.77156e-12 -7.04928e-13)
(7.93744e-14 -1.36524e-12 -4.82033e-13)
(3.81568e-14 -6.28036e-13 -3.33954e-13)
(2.27481e-13 3.68229e-13 -1.38417e-14)
(2.14763e-13 3.44511e-13 -1.16212e-14)
(1.88278e-13 -5.01134e-14 -9.74649e-15)
(1.63071e-13 -5.3421e-14 -6.69074e-15)
(1.38787e-13 -5.23381e-14 -5.12873e-15)
(1.15639e-13 -5.14827e-14 -2.98234e-15)
(9.35398e-14 -5.08404e-14 -2.12804e-15)
(7.24591e-14 -5.02268e-14 -1.47569e-15)
(5.23032e-14 -4.8704e-14 -7.58036e-16)
(3.31827e-14 -2.51315e-14 -1.29484e-15)
(5.00032e-13 3.34311e-13 -2.02074e-14)
(4.61822e-13 2.38768e-13 -1.79931e-14)
(3.95724e-13 -1.87533e-13 -1.28795e-14)
(3.34003e-13 -1.84654e-13 -1.05771e-14)
(2.76624e-13 -1.77844e-13 -8.02446e-15)
(2.23223e-13 -1.70908e-13 -5.79423e-15)
(1.73661e-13 -1.64548e-13 -4.21479e-15)
(1.27565e-13 -1.58516e-13 -3.42414e-15)
(8.45934e-14 -1.51555e-13 -3.28588e-15)
(4.52998e-14 -7.80079e-14 -2.67211e-15)
(6.19232e-13 2.6879e-13 -3.23387e-14)
(5.50893e-13 7.06024e-14 -2.88164e-14)
(4.556e-13 -3.82976e-13 -2.31228e-14)
(3.69786e-13 -3.63523e-13 -1.87873e-14)
(2.93967e-13 -3.40552e-13 -1.45132e-14)
(2.26545e-13 -3.19251e-13 -1.13489e-14)
(1.66687e-13 -2.99561e-13 -9.3149e-15)
(1.13408e-13 -2.81789e-13 -8.40382e-15)
(6.58695e-14 -2.62517e-13 -7.3568e-15)
(2.45832e-14 -1.33123e-13 -6.54238e-15)
(8.14056e-13 1.54459e-13 -5.63017e-14)
(6.97608e-13 -1.91202e-13 -4.85128e-14)
(5.59372e-13 -6.59835e-13 -3.99268e-14)
(4.40794e-13 -6.05842e-13 -3.23187e-14)
(3.40573e-13 -5.50905e-13 -2.6181e-14)
(2.55473e-13 -5.02314e-13 -2.11042e-14)
(1.83073e-13 -4.59117e-13 -1.81297e-14)
(1.21669e-13 -4.2098e-13 -1.61126e-14)
(6.93451e-14 -3.82746e-13 -1.45074e-14)
(2.558e-14 -1.91096e-13 -1.25664e-14)
(1.08949e-12 -4.02425e-14 -9.88198e-14)
(8.95414e-13 -5.98438e-13 -8.37806e-14)
(6.94019e-13 -1.05312e-12 -6.85516e-14)
(5.29378e-13 -9.33979e-13 -5.58116e-14)
(3.96719e-13 -8.23557e-13 -4.62974e-14)
(2.89271e-13 -7.29691e-13 -3.87502e-14)
(2.01788e-13 -6.48187e-13 -3.18563e-14)
(1.30833e-13 -5.78054e-13 -2.71514e-14)
(7.29169e-14 -5.12751e-13 -2.29395e-14)
(2.67688e-14 -2.52601e-13 -2.07431e-14)
(1.48456e-12 -3.64671e-13 -1.72359e-13)
(1.16809e-12 -1.22988e-12 -1.44312e-13)
(8.70751e-13 -1.61543e-12 -1.146e-13)
(6.40798e-13 -1.38134e-12 -9.13326e-14)
(4.64695e-13 -1.17702e-12 -7.44619e-14)
(3.28449e-13 -1.01053e-12 -6.18956e-14)
(2.22951e-13 -8.7208e-13 -5.04775e-14)
(1.4084e-13 -7.56885e-13 -4.20683e-14)
(7.67862e-14 -6.54005e-13 -3.61406e-14)
(2.80411e-14 -3.17165e-13 -3.16531e-14)
(2.06841e-12 -8.94087e-13 -3.05274e-13)
(1.5487e-12 -2.21024e-12 -2.44523e-13)
(1.10556e-12 -2.42999e-12 -1.9006e-13)
(7.82595e-13 -1.99347e-12 -1.48231e-13)
(5.47573e-13 -1.63845e-12 -1.18365e-13)
(3.74531e-13 -1.36022e-12 -9.50294e-14)
(2.46695e-13 -1.13752e-12 -7.70585e-14)
(1.51625e-13 -9.59356e-13 -6.23323e-14)
(8.10075e-14 -8.07165e-13 -5.2474e-14)
(2.94142e-14 -3.85897e-13 -4.4769e-14)
(3.19686e-12 -1.77977e-12 -5.4359e-13)
(2.0937e-12 -3.75741e-12 -4.1643e-13)
(1.42229e-12 -3.616e-12 -3.0989e-13)
(9.64708e-13 -2.83751e-12 -2.34451e-13)
(6.49123e-13 -2.24182e-12 -1.80871e-13)
(4.2891e-13 -1.79561e-12 -1.41939e-13)
(2.7354e-13 -1.45396e-12 -1.12997e-13)
(1.63598e-13 -1.18953e-12 -8.91662e-14)
(8.52569e-14 -9.73309e-13 -7.23377e-14)
(3.07087e-14 -4.58378e-13 -6.08015e-14)
(5.12465e-10 -3.91039e-12 -8.78609e-13)
(6.89995e-12 -6.86122e-12 -7.04203e-13)
(1.86149e-12 -5.37734e-12 -5.03703e-13)
(1.19378e-12 -4.01087e-12 -3.65293e-13)
(7.69179e-13 -3.03653e-12 -2.71704e-13)
(4.88295e-13 -2.34051e-12 -2.05499e-13)
(3.00359e-13 -1.83026e-12 -1.57669e-13)
(1.73453e-13 -1.45139e-12 -1.22599e-13)
(8.68803e-14 -1.1548e-12 -9.72837e-14)
(2.92646e-14 -5.35332e-13 -7.90249e-14)
(4.77914e-07 -1.43256e-09 -4.28534e-10)
(2.12288e-09 -1.33194e-09 -1.5998e-12)
(8.14353e-12 -1.8457e-11 -9.67413e-13)
(1.17268e-12 -5.69385e-12 -6.48696e-13)
(7.72629e-13 -4.08634e-12 -4.46453e-13)
(5.18875e-13 -3.02151e-12 -3.18136e-13)
(3.49227e-13 -2.27772e-12 -2.33145e-13)
(2.33755e-13 -1.74868e-12 -1.73125e-13)
(1.54167e-13 -1.35144e-12 -1.3172e-13)
(9.97701e-14 -6.1692e-13 -1.03004e-13)
(2.28157e-13 3.67667e-13 -1.59474e-14)
(2.15429e-13 3.43657e-13 -1.39721e-14)
(1.88639e-13 -5.10183e-14 -1.06367e-14)
(1.63417e-13 -5.44536e-14 -8.43814e-15)
(1.39127e-13 -5.32147e-14 -6.32617e-15)
(1.15926e-13 -5.23758e-14 -4.31496e-15)
(9.38388e-14 -5.14314e-14 -2.82097e-15)
(7.272e-14 -5.02746e-14 -4.24905e-15)
(5.25965e-14 -4.84218e-14 -1.30519e-14)
(3.34365e-14 -2.54461e-14 -3.72413e-14)
(5.01623e-13 3.33666e-13 -2.40641e-14)
(4.6327e-13 2.3731e-13 -2.0168e-14)
(3.96907e-13 -1.8913e-13 -1.61049e-14)
(3.34984e-13 -1.85718e-13 -1.26549e-14)
(2.77439e-13 -1.78801e-13 -1.02234e-14)
(2.23975e-13 -1.71863e-13 -7.67682e-15)
(1.74377e-13 -1.65264e-13 -6.33095e-15)
(1.28313e-13 -1.58824e-13 -5.95681e-15)
(8.51832e-14 -1.51487e-13 -9.41591e-15)
(4.58036e-14 -7.85577e-14 -2.71485e-14)
(6.22087e-13 2.67839e-13 -3.82903e-14)
(5.53269e-13 6.88106e-14 -3.23655e-14)
(4.57675e-13 -3.85065e-13 -2.60307e-14)
(3.71552e-13 -3.65416e-13 -2.11882e-14)
(2.95385e-13 -3.42022e-13 -1.72015e-14)
(2.27814e-13 -3.20433e-13 -1.43804e-14)
(1.67817e-13 -3.00237e-13 -1.20452e-14)
(1.14527e-13 -2.82298e-13 -1.14893e-14)
(6.68868e-14 -2.63106e-13 -1.36705e-14)
(2.52891e-14 -1.33927e-13 -2.33458e-14)
(8.19027e-13 1.52376e-13 -6.51561e-14)
(7.01719e-13 -1.94492e-13 -5.4753e-14)
(5.62787e-13 -6.63003e-13 -4.49277e-14)
(4.4367e-13 -6.08713e-13 -3.69386e-14)
(3.43087e-13 -5.53321e-13 -3.07263e-14)
(2.57668e-13 -5.0421e-13 -2.65312e-14)
(1.84934e-13 -4.6039e-13 -2.30449e-14)
(1.23201e-13 -4.2179e-13 -2.03139e-14)
(7.07053e-14 -3.83974e-13 -2.04199e-14)
(2.6776e-14 -1.92247e-13 -2.52115e-14)
(1.09773e-12 -4.42257e-14 -1.14247e-13)
(9.02243e-13 -6.0433e-13 -9.46284e-14)
(6.99475e-13 -1.0586e-12 -7.67164e-14)
(5.33784e-13 -9.38524e-13 -6.33196e-14)
(4.00446e-13 -8.27166e-13 -5.31087e-14)
(2.92481e-13 -7.3292e-13 -4.55646e-14)
(2.04504e-13 -6.50911e-13 -3.95903e-14)
(1.32971e-13 -5.80211e-13 -3.45161e-14)
(7.46982e-14 -5.14514e-13 -3.07477e-14)
(2.85182e-14 -2.54049e-13 -3.31451e-14)
(1.4984e-12 -3.72456e-13 -2.01444e-13)
(1.17894e-12 -1.24073e-12 -1.62842e-13)
(8.79208e-13 -1.62549e-12 -1.29695e-13)
(6.47597e-13 -1.38948e-12 -1.05402e-13)
(4.70087e-13 -1.18325e-12 -8.65838e-14)
(3.32869e-13 -1.01578e-12 -7.36579e-14)
(2.26591e-13 -8.76775e-13 -6.16348e-14)
(1.437e-13 -7.60683e-13 -5.25136e-14)
(7.9231e-14 -6.56725e-13 -4.62405e-14)
(3.00581e-14 -3.19255e-13 -4.42869e-14)
(2.0916e-12 -9.09856e-13 -3.54324e-13)
(1.56607e-12 -2.23086e-12 -2.75692e-13)
(1.11861e-12 -2.44742e-12 -2.15056e-13)
(7.92673e-13 -2.00739e-12 -1.70619e-13)
(5.55344e-13 -1.64941e-12 -1.36699e-13)
(3.80615e-13 -1.36916e-12 -1.12448e-13)
(2.51586e-13 -1.14512e-12 -9.178e-14)
(1.55431e-13 -9.65425e-13 -7.67335e-14)
(8.39897e-14 -8.11813e-13 -6.55765e-14)
(3.17968e-14 -3.89058e-13 -5.88624e-14)
(3.21657e-12 -1.81096e-12 -6.27359e-13)
(2.12115e-12 -3.79639e-12 -4.67548e-13)
(1.44248e-12 -3.64769e-12 -3.51787e-13)
(9.7941e-13 -2.8616e-12 -2.68881e-13)
(6.6008e-13 -2.26027e-12 -2.08998e-13)
(4.37146e-13 -1.80996e-12 -1.66604e-13)
(2.79865e-13 -1.46599e-12 -1.35061e-13)
(1.68432e-13 -1.1995e-12 -1.08354e-13)
(8.89392e-14 -9.80743e-13 -8.9619e-14)
(3.35704e-14 -4.6283e-13 -7.66527e-14)
(5.16327e-10 -3.72663e-12 6.40324e-13)
(6.63263e-12 -6.88153e-12 -7.67459e-13)
(1.89022e-12 -5.43305e-12 -5.74897e-13)
(1.21583e-12 -4.05248e-12 -4.19643e-13)
(7.84818e-13 -3.06747e-12 -3.15626e-13)
(4.99567e-13 -2.36415e-12 -2.42205e-13)
(3.08536e-13 -1.84912e-12 -1.90371e-13)
(1.79423e-13 -1.46582e-12 -1.46902e-13)
(9.131e-14 -1.16599e-12 -1.19438e-13)
(3.24959e-14 -5.42011e-13 -9.89192e-14)
(5.01841e-07 -1.13751e-09 1.98574e-09)
(2.07648e-09 -1.33828e-09 2.8461e-11)
(6.79547e-12 -1.77141e-11 -7.64615e-13)
(1.20096e-12 -5.74961e-12 -6.47697e-13)
(7.94447e-13 -4.13347e-12 -4.67713e-13)
(5.33533e-13 -3.0568e-12 -3.45494e-13)
(3.59433e-13 -2.30513e-12 -2.61325e-13)
(2.41115e-13 -1.76946e-12 -1.9572e-13)
(1.59296e-13 -1.36727e-12 -1.53562e-13)
(1.03616e-13 -6.25819e-13 -1.23273e-13)
(2.28637e-13 3.67455e-13 -1.28707e-14)
(2.15258e-13 3.42501e-13 -3.39674e-15)
(1.88802e-13 -5.22278e-14 -3.11704e-15)
(1.63646e-13 -5.51017e-14 -5.41212e-15)
(1.39605e-13 -5.40178e-14 -1.21377e-14)
(1.16746e-13 -5.30394e-14 -2.50667e-14)
(9.50579e-14 -5.123e-14 -4.82704e-14)
(7.53641e-14 -4.75221e-14 -1.7414e-13)
(5.79211e-14 -4.08706e-14 -6.7215e-13)
(3.73971e-14 -4.23279e-14 -1.88222e-12)
(5.02875e-13 3.32899e-13 -1.66567e-14)
(4.63492e-13 2.3621e-13 -1.08026e-15)
(3.97432e-13 -1.90111e-13 -3.39214e-15)
(3.356e-13 -1.86743e-13 -5.35078e-15)
(2.78319e-13 -1.79829e-13 -1.20278e-14)
(2.25197e-13 -1.72836e-13 -2.43487e-14)
(1.75844e-13 -1.66116e-13 -4.25814e-14)
(1.30373e-13 -1.59979e-13 -1.16477e-13)
(8.83184e-14 -1.5259e-13 -4.0028e-13)
(4.69226e-14 -1.08445e-13 -1.23247e-12)
(6.24269e-13 2.66755e-13 -2.74974e-14)
(5.54216e-13 6.72423e-14 -4.43234e-15)
(4.5866e-13 -3.86246e-13 -4.91239e-15)
(3.72714e-13 -3.66304e-13 -8.26892e-15)
(2.9682e-13 -3.43026e-13 -1.41346e-14)
(2.29652e-13 -3.21766e-13 -2.67687e-14)
(1.69902e-13 -3.02095e-13 -4.63423e-14)
(1.16771e-13 -2.84345e-13 -8.96487e-14)
(6.98815e-14 -2.68016e-13 -2.64799e-13)
(2.67385e-14 -1.6654e-13 -8.1053e-13)
(8.22922e-13 1.51081e-13 -4.82111e-14)
(7.03651e-13 -1.95987e-13 -1.33317e-14)
(5.64727e-13 -6.64404e-13 -1.3146e-14)
(4.45772e-13 -6.09884e-13 -1.66377e-14)
(3.45358e-13 -5.54388e-13 -2.32084e-14)