/*--------------------------------*- C++ -*----------------------------------*\
| =========                 |                                                 |
| \\      /  F ield         | OpenFOAM: The Open Source CFD Toolbox           |
|  \\    /   O peration     | Version:  4.1                                   |
|   \\  /    A nd           | Web:      www.OpenFOAM.org                      |
|    \\/     M anipulation  |                                                 |
\*---------------------------------------------------------------------------*/
FoamFile
{
    version     2.0;
    format      ascii;
    class       volScalarField;
    location    "7.46";
    object      T;
}
// * * * * * * * * * * * * * * * * * * * * * * * * * * * * * * * * * * * * * //

dimensions      [0 0 0 1 0 0 0];

internalField   nonuniform List<scalar> 
52500
(
0.999996
1.00002
1.00005
1.00018
1.00034
1.00109
1.002
1.0061
1.01222
1.03287
1.08407
1.19472
1.57178
2.41964
2.68118
2.72907
2.72489
2.72461
2.73869
2.75057
2.7644
2.77325
2.78083
2.78641
2.79013
0.999996
1.00002
1.00005
1.00018
1.00033
1.00108
1.00198
1.00602
1.01208
1.03248
1.0833
1.19218
1.56719
2.41104
2.67829
2.72899
2.7246
2.72415
2.7381
2.74983
2.76343
2.77193
2.77952
2.78409
2.78726
0.999996
1.00002
1.00005
1.00018
1.00032
1.00105
1.00193
1.00588
1.0118
1.03171
1.08165
1.18697
1.55691
2.39151
2.67088
2.72788
2.72309
2.72229
2.73607
2.74775
2.76107
2.76934
2.77584
2.7813
2.78321
0.999996
1.00002
1.00005
1.00017
1.00031
1.00101
1.00185
1.00557
1.01141
1.03011
1.07952
1.17941
1.54136
2.3602
2.65914
2.72578
2.72032
2.71847
2.73195
2.74311
2.7566
2.76512
2.77206
2.77517
2.77838
0.999996
1.00002
1.00004
1.00016
1.00029
1.00095
1.00176
1.00523
1.01088
1.02829
1.07588
1.16894
1.52062
2.31662
2.64325
2.72326
2.71718
2.71354
2.72662
2.7368
2.74818
2.75565
2.76178
2.76838
2.76794
0.999995
1.00002
1.00004
1.00015
1.00027
1.00088
1.00164
1.00485
1.01021
1.02624
1.07104
1.15662
1.49148
2.25736
2.62107
2.71967
2.71262
2.70742
2.72029
2.73059
2.74185
2.74848
2.75364
2.75503
2.75815
0.999995
1.00002
1.00004
1.00014
1.00025
1.00082
1.00152
1.00452
1.00937
1.02441
1.06487
1.14559
1.44328
2.17015
2.59137
2.7128
2.70606
2.69724
2.70918
2.71767
2.72715
2.73351
2.73881
2.74151
2.7378
0.999995
1.00001
1.00003
1.00013
1.00023
1.00077
1.00139
1.00435
1.00839
1.02338
1.0559
1.13256
1.38372
2.05751
2.5515
2.70293
2.6959
2.68687
2.69988
2.70774
2.71688
2.71819
2.71958
2.71805
2.71534
0.999995
1.00001
1.00003
1.00011
1.00021
1.00068
1.00125
1.00389
1.00742
1.02117
1.04785
1.11878
1.32427
1.92913
2.49817
2.685
2.67845
2.66594
2.67939
2.68537
2.69552
2.69874
2.69637
2.6883
2.66466
0.999995
1.00001
1.00002
1.0001
1.00018
1.00059
1.0011
1.00337
1.00655
1.01846
1.042
1.10449
1.2812
1.82379
2.44852
2.66635
2.66089
2.65564
2.66809
2.67004
2.67209
2.67099
2.66186
2.64098
2.59118
1
1.00003
1.00006
1.00019
1.00034
1.0011
1.00201
1.00611
1.01223
1.03289
1.08408
1.19476
1.57181
2.41976
2.68126
2.72914
2.72496
2.72468
2.73876
2.75066
2.76448
2.77333
2.78092
2.7865
2.79022
1
1.00003
1.00006
1.00019
1.00034
1.00109
1.00198
1.00603
1.01209
1.0325
1.08331
1.19222
1.56722
2.41115
2.67837
2.72907
2.72467
2.72423
2.73818
2.74991
2.76351
2.77201
2.77961
2.78417
2.78734
1
1.00003
1.00006
1.00018
1.00033
1.00106
1.00194
1.00589
1.01181
1.03172
1.08166
1.18701
1.55693
2.39163
2.67096
2.72795
2.72316
2.72236
2.73615
2.74783
2.76115
2.76942
2.77592
2.78139
2.78329
1
1.00003
1.00005
1.00018
1.00032
1.00101
1.00186
1.00558
1.01142
1.03014
1.07952
1.17945
1.54137
2.36031
2.65922
2.72585
2.7204
2.71854
2.73202
2.74319
2.75668
2.7652
2.77214
2.77525
2.77846
1
1.00003
1.00005
1.00017
1.0003
1.00096
1.00177
1.00524
1.01089
1.0283
1.0759
1.16898
1.52066
2.31674
2.64333
2.72333
2.71725
2.71362
2.7267
2.73688
2.74825
2.75573
2.76186
2.76845
2.76802
1
1.00002
1.00005
1.00016
1.00028
1.00089
1.00165
1.00486
1.01022
1.02626
1.07105
1.15666
1.49152
2.2575
2.62114
2.71974
2.71269
2.7075
2.72036
2.73067
2.74192
2.74856
2.75372
2.75511
2.75823
1
1.00002
1.00004
1.00014
1.00026
1.00083
1.00153
1.00453
1.00938
1.02443
1.06489
1.14563
1.44332
2.17028
2.59144
2.71285
2.70612
2.69731
2.70924
2.71774
2.72722
2.73358
2.73888
2.74158
2.73788
1
1.00002
1.00004
1.00013
1.00024
1.00077
1.0014
1.00436
1.0084
1.0234
1.05591
1.1326
1.38373
2.05763
2.55157
2.703
2.69597
2.68694
2.69995
2.70781
2.71695
2.71826
2.71965
2.71812
2.71541
1
1.00002
1.00004
1.00012
1.00022
1.00069
1.00125
1.00389
1.00743
1.02119
1.04786
1.11882
1.32431
1.92925
2.49825
2.68507
2.67852
2.66601
2.67946
2.68544
2.69559
2.69881
2.69643
2.68837
2.66473
1
1.00002
1.00003
1.0001
1.00019
1.0006
1.00111
1.00338
1.00656
1.01848
1.04201
1.10453
1.28122
1.82392
2.44854
2.66642
2.66097
2.65571
2.66816
2.67011
2.67215
2.67105
2.66193
2.64105
2.59123
1
1.00003
1.00006
1.00019
1.00034
1.0011
1.00201
1.00611
1.01223
1.03289
1.08408
1.19476
1.57181
2.41976
2.68127
2.72914
2.72496
2.72468
2.73876
2.75066
2.76448
2.77333
2.78092
2.7865
2.79022
1
1.00003
1.00006
1.00019
1.00034
1.00109
1.00198
1.00603
1.0121
1.0325
1.08331
1.19222
1.56722
2.41116
2.67837
2.72907
2.72467
2.72423
2.73818
2.74991
2.76351
2.77201
2.77961
2.78417
2.78734
1
1.00003
1.00006
1.00018
1.00033
1.00106
1.00194
1.00589
1.01181
1.03172
1.08166
1.18701
1.55694
2.39163
2.67096
2.72795
2.72316
2.72236
2.73615
2.74783
2.76115
2.76942
2.77592
2.78139
2.78329
1
1.00003
1.00005
1.00018
1.00032
1.00101
1.00186
1.00558
1.01142
1.03014
1.07952
1.17945
1.54137
2.36031
2.65922
2.72585
2.7204
2.71854
2.73202
2.74319
2.75668
2.7652
2.77214
2.77525
2.77846
1
1.00003
1.00005
1.00017
1.0003
1.00096
1.00177
1.00524
1.01089
1.0283
1.0759
1.16898
1.52066
2.31675
2.64333
2.72333
2.71725
2.71362
2.7267
2.73688
2.74825
2.75573
2.76186
2.76845
2.76802
1
1.00002
1.00005
1.00016
1.00028
1.00089
1.00165
1.00486
1.01022
1.02626
1.07105
1.15666
1.49152
2.25751
2.62115
2.71974
2.71269
2.7075
2.72036
2.73067
2.74192
2.74856
2.75372
2.75511
2.75823
1
1.00002
1.00004
1.00014
1.00026
1.00083
1.00153
1.00453
1.00938
1.02443
1.06489
1.14563
1.44333
2.17029
2.59144
2.71285
2.70612
2.69731
2.70924
2.71774
2.72722
2.73358
2.73888
2.74158
2.73788
1
1.00002
1.00004
1.00013
1.00024
1.00077
1.0014
1.00436
1.0084
1.0234
1.05591
1.1326
1.38374
2.05764
2.55157
2.703
2.69597
2.68694
2.69995
2.70781
2.71695
2.71826
2.71965
2.71812
2.71541
1
1.00002
1.00004
1.00012
1.00022
1.00069
1.00125
1.00389
1.00743
1.02119
1.04786
1.11882
1.32431
1.92926
2.49825
2.68508
2.67852
2.66601
2.67946
2.68544
2.69559
2.69881
2.69643
2.68837
2.66473
1
1.00002
1.00003
1.0001
1.00019
1.0006
1.00111
1.00338
1.00656
1.01848
1.04201
1.10453
1.28122
1.82393
2.44854
2.66642
2.66097
2.65571
2.66816
2.67011
2.67215
2.67105
2.66193
2.64105
2.59123
1
1.00003
1.00006
1.00019
1.00034
1.0011
1.00201
1.00611
1.01223
1.03289
1.08408
1.19476
1.57181
2.41976
2.68127
2.72914
2.72496
2.72468
2.73876
2.75066
2.76448
2.77333
2.78092
2.7865
2.79022
1
1.00003
1.00006
1.00019
1.00034
1.00109
1.00198
1.00603
1.0121
1.0325
1.08331
1.19222
1.56722
2.41116
2.67837
2.72907
2.72467
2.72423
2.73818
2.74991
2.76351
2.77201
2.77961
2.78417
2.78734
1
1.00003
1.00006
1.00018
1.00033
1.00106
1.00194
1.00589
1.01181
1.03172
1.08166
1.18701
1.55694
2.39163
2.67096
2.72795
2.72316
2.72236
2.73615
2.74783
2.76115
2.76942
2.77592
2.78139
2.78329
1
1.00003
1.00005
1.00018
1.00032
1.00101
1.00186
1.00558
1.01142
1.03014
1.07952
1.17945
1.54137
2.36031
2.65922
2.72585
2.7204
2.71854
2.73202
2.74319
2.75668
2.7652
2.77214
2.77525
2.77846
1
1.00003
1.00005
1.00017
1.0003
1.00096
1.00177
1.00524
1.01089
1.0283
1.0759
1.16898
1.52066
2.31675
2.64333
2.72333
2.71725
2.71362
2.7267
2.73688
2.74825
2.75573
2.76186
2.76845
2.76802
1
1.00002
1.00005
1.00016
1.00028
1.00089
1.00165
1.00486
1.01022
1.02626
1.07105
1.15666
1.49152
2.25751
2.62115
2.71974
2.71269
2.7075
2.72036
2.73067
2.74192
2.74856
2.75372
2.75511
2.75823
1
1.00002
1.00004
1.00014
1.00026
1.00083
1.00153
1.00453
1.00938
1.02443
1.06489
1.14563
1.44333
2.17029
2.59144
2.71285
2.70612
2.69731
2.70924
2.71774
2.72722
2.73358
2.73888
2.74158
2.73788
1
1.00002
1.00004
1.00013
1.00024
1.00077
1.0014
1.00436
1.0084
1.0234
1.05591
1.1326
1.38374
2.05764
2.55157
2.703
2.69597
2.68694
2.69995
2.70781
2.71695
2.71826
2.71965
2.71813
2.71541
1
1.00002
1.00004
1.00012
1.00022
1.00069
1.00125
1.00389
1.00743
1.02119
1.04786
1.11882
1.32431
1.92926
2.49825
2.68508
2.67852
2.66601
2.67946
2.68544
2.69559
2.69881
2.69643
2.68837
2.66473
1
1.00002
1.00003
1.0001
1.00019
1.0006
1.00111
1.00338
1.00656
1.01848
1.04201
1.10453
1.28122
1.82393
2.44854
2.66642
2.66097
2.65571
2.66816
2.67011
2.67215
2.67105
2.66193
2.64105
2.59123
1
1.00003
1.00006
1.00019
1.00034
1.0011
1.00201
1.00611
1.01223
1.03289
1.08408
1.19477
1.57181
2.41977
2.68127
2.72914
2.72496
2.72468
2.73876
2.75066
2.76448
2.77333
2.78092
2.7865
2.79022
1
1.00003
1.00006
1.00019
1.00034
1.00109
1.00198
1.00603
1.0121
1.0325
1.08331
1.19222
1.56722
2.41116
2.67837
2.72907
2.72467
2.72423
2.73818
2.74991
2.76351
2.77201
2.77961
2.78417
2.78734
1
1.00003
1.00006
1.00018
1.00033
1.00106
1.00194
1.00589
1.01181
1.03172
1.08166
1.18701
1.55694
2.39163
2.67096
2.72795
2.72316
2.72236
2.73615
2.74783
2.76115
2.76942
2.77592
2.78139
2.78329
1
1.00003
1.00005
1.00018
1.00032
1.00101
1.00186
1.00558
1.01142
1.03014
1.07952
1.17945
1.54138
2.36031
2.65922
2.72585
2.7204
2.71854
2.73202
2.74319
2.75668
2.7652
2.77214
2.77525
2.77846
1
1.00003
1.00005
1.00017
1.0003
1.00096
1.00177
1.00524
1.01089
1.0283
1.0759
1.16898
1.52067
2.31675
2.64333
2.72333
2.71725
2.71362
2.7267
2.73688
2.74825
2.75573
2.76186
2.76845
2.76802
1
1.00002
1.00005
1.00016
1.00028
1.00089
1.00165
1.00486
1.01022
1.02626
1.07105
1.15666
1.49153
2.25751
2.62115
2.71974
2.71269
2.7075
2.72036
2.73067
2.74192
2.74856
2.75372
2.75511
2.75823
1
1.00002
1.00004
1.00014
1.00026
1.00083
1.00153
1.00453
1.00938
1.02443
1.06489
1.14563
1.44333
2.17029
2.59144
2.71285
2.70612
2.69731
2.70924
2.71775
2.72722
2.73358
2.73888
2.74158
2.73788
1
1.00002
1.00004
1.00013
1.00024
1.00077
1.0014
1.00436
1.0084
1.0234
1.05591
1.1326
1.38374
2.05764
2.55157
2.703
2.69597
2.68694
2.69995
2.70781
2.71695
2.71826
2.71965
2.71813
2.71541
1
1.00002
1.00004
1.00012
1.00022
1.00069
1.00125
1.00389
1.00743
1.02119
1.04786
1.11882
1.32431
1.92926
2.49826
2.68508
2.67852
2.66601
2.67946
2.68544
2.69559
2.69881
2.69643
2.68837
2.66473
1
1.00002
1.00003
1.0001
1.00019
1.0006
1.00111
1.00338
1.00656
1.01848
1.04201
1.10453
1.28122
1.82393
2.44854
2.66642
2.66097
2.65571
2.66816
2.67011
2.67215
2.67105
2.66193
2.64105
2.59123
1
1.00003
1.00006
1.00019
1.00034
1.0011
1.00201
1.00611
1.01223
1.03289
1.08408
1.19477
1.57181
2.41977
2.68127
2.72914
2.72496
2.72468
2.73876
2.75066
2.76448
2.77333
2.78092
2.7865
2.79022
1
1.00003
1.00006
1.00019
1.00034
1.00109
1.00198
1.00603
1.0121
1.0325
1.08331
1.19222
1.56722
2.41116
2.67837
2.72907
2.72467
2.72423
2.73818
2.74991
2.76351
2.77201
2.77961
2.78417
2.78734
1
1.00003
1.00006
1.00018
1.00033
1.00106
1.00194
1.00589
1.01181
1.03172
1.08166
1.18701
1.55694
2.39163
2.67096
2.72795
2.72316
2.72236
2.73615
2.74783
2.76115
2.76942
2.77592
2.78139
2.78329
1
1.00003
1.00005
1.00018
1.00032
1.00101
1.00186
1.00558
1.01142
1.03014
1.07952
1.17945
1.54138
2.36031
2.65922
2.72585
2.7204
2.71854
2.73202
2.74319
2.75668
2.7652
2.77214
2.77525
2.77846
1
1.00003
1.00005
1.00017
1.0003
1.00096
1.00177
1.00524
1.01089
1.0283
1.0759
1.16898
1.52067
2.31675
2.64333
2.72333
2.71725
2.71362
2.7267
2.73688
2.74825
2.75573
2.76186
2.76845
2.76802
1
1.00002
1.00005
1.00016
1.00028
1.00089
1.00165
1.00486
1.01022
1.02626
1.07105
1.15666
1.49153
2.25751
2.62115
2.71974
2.71269
2.7075
2.72036
2.73067
2.74192
2.74856
2.75372
2.75511
2.75823
1
1.00002
1.00004
1.00014
1.00026
1.00083
1.00153
1.00453
1.00938
1.02443
1.06489
1.14563
1.44333
2.17029
2.59144
2.71285
2.70612
2.69731
2.70924
2.71775
2.72722
2.73358
2.73888
2.74158
2.73788
1
1.00002
1.00004
1.00013
1.00024
1.00077
1.0014
1.00436
1.0084
1.0234
1.05591
1.1326
1.38374
2.05764
2.55157
2.703
2.69597
2.68694
2.69995
2.70781
2.71695
2.71826
2.71965
2.71813
2.71541
1
1.00002
1.00004
1.00012
1.00022
1.00069
1.00125
1.00389
1.00743
1.02119
1.04786
1.11882
1.32431
1.92926
2.49826
2.68508
2.67852
2.66601
2.67946
2.68544
2.69559
2.69881
2.69643
2.68837
2.66473
1
1.00002
1.00003
1.0001
1.00019
1.0006
1.00111
1.00338
1.00656
1.01848
1.04201
1.10453
1.28122
1.82393
2.44854
2.66642
2.66097
2.65571
2.66816
2.67011
2.67215
2.67105
2.66193
2.64105
2.59123
1
1.00003
1.00006
1.00019
1.00034
1.0011
1.00201
1.00611
1.01223
1.03289
1.08408
1.19477
1.57181
2.41976
2.68127
2.72914
2.72496
2.72468
2.73876
2.75066
2.76448
2.77333
2.78092
2.7865
2.79022
1
1.00003
1.00006
1.00019
1.00034
1.00109
1.00198
1.00603
1.0121
1.0325
1.08331
1.19222
1.56722
2.41116
2.67837
2.72907
2.72467
2.72423
2.73818
2.74991
2.76351
2.77201
2.77961
2.78417
2.78734
1
1.00003
1.00006
1.00018
1.00033
1.00106
1.00194
1.00589
1.01181
1.03172
1.08166
1.18701
1.55694
2.39163
2.67096
2.72795
2.72316
2.72236
2.73615
2.74783
2.76115
2.76942
2.77592
2.78139
2.78329
1
1.00003
1.00005
1.00018
1.00032
1.00101
1.00186
1.00558
1.01142
1.03014
1.07952
1.17945
1.54137
2.36031
2.65922
2.72585
2.7204
2.71854
2.73202
2.74319
2.75668
2.7652
2.77214
2.77525
2.77846
1
1.00003
1.00005
1.00017
1.0003
1.00096
1.00177
1.00524
1.01089
1.0283
1.0759
1.16898
1.52066
2.31675
2.64333
2.72333
2.71725
2.71362
2.7267
2.73688
2.74825
2.75573
2.76186
2.76845
2.76802
1
1.00002
1.00005
1.00016
1.00028
1.00089
1.00165
1.00486
1.01022
1.02626
1.07105
1.15666
1.49153
2.25751
2.62115
2.71974
2.71269
2.7075
2.72036
2.73067
2.74192
2.74856
2.75372
2.75511
2.75823
1
1.00002
1.00004
1.00014
1.00026
1.00083
1.00153
1.00453
1.00938
1.02443
1.06489
1.14563
1.44333
2.17029
2.59144
2.71285
2.70612
2.69731
2.70924
2.71774
2.72722
2.73358
2.73888
2.74158
2.73788
1
1.00002
1.00004
1.00013
1.00024
1.00077
1.0014
1.00436
1.0084
1.0234
1.05591
1.1326
1.38374
2.05764
2.55157
2.703
2.69597
2.68694
2.69995
2.70781
2.71695
2.71826
2.71965
2.71813
2.71541
1
1.00002
1.00004
1.00012
1.00022
1.00069
1.00125
1.00389
1.00743
1.02119
1.04786
1.11882
1.32431
1.92926
2.49825
2.68508
2.67852
2.66601
2.67946
2.68544
2.69559
2.69881
2.69643
2.68837
2.66473
1
1.00002
1.00003
1.0001
1.00019
1.0006
1.00111
1.00338
1.00656
1.01848
1.04201
1.10453
1.28122
1.82393
2.44854
2.66642
2.66097
2.65571
2.66816
2.67011
2.67215
2.67105
2.66193
2.64105
2.59123
1
1.00003
1.00006
1.00019
1.00034
1.0011
1.00201
1.00611
1.01223
1.03289
1.08408
1.19476
1.57181
2.41976
2.68127
2.72914
2.72496
2.72468
2.73876
2.75066
2.76448
2.77333
2.78092
2.7865
2.79022
1
1.00003
1.00006
1.00019
1.00034
1.00109
1.00198
1.00603
1.0121
1.0325
1.08331
1.19222
1.56722
2.41116
2.67837
2.72907
2.72467
2.72423
2.73818
2.74991
2.76351
2.77201
2.77961
2.78417
2.78734
1
1.00003
1.00006
1.00018
1.00033
1.00106
1.00194
1.00589
1.01181
1.03172
1.08166
1.18701
1.55694
2.39163
2.67096
2.72795
2.72316
2.72236
2.73615
2.74783
2.76115
2.76942
2.77592
2.78139
2.78329
1
1.00003
1.00005
1.00018
1.00032
1.00101
1.00186
1.00558
1.01142
1.03014
1.07952
1.17945
1.54137
2.36031
2.65922
2.72585
2.7204
2.71854
2.73202
2.74319
2.75668
2.7652
2.77214
2.77525
2.77846
1
1.00003
1.00005
1.00017
1.0003
1.00096
1.00177
1.00524
1.01089
1.0283
1.0759
1.16898
1.52066
2.31675
2.64333
2.72333
2.71725
2.71362
2.7267
2.73688
2.74825
2.75573
2.76186
2.76845
2.76802
1
1.00002
1.00005
1.00016
1.00028
1.00089
1.00165
1.00486
1.01022
1.02626
1.07105
1.15666
1.49152
2.25751
2.62115
2.71974
2.71269
2.7075
2.72036
2.73067
2.74192
2.74856
2.75372
2.75511
2.75823
1
1.00002
1.00004
1.00014
1.00026
1.00083
1.00153
1.00453
1.00938
1.02443
1.06489
1.14563
1.44333
2.17029
2.59144
2.71285
2.70612
2.69731
2.70924
2.71774
2.72722
2.73358
2.73888
2.74158
2.73788
1
1.00002
1.00004
1.00013
1.00024
1.00077
1.0014
1.00436
1.0084
1.0234
1.05591
1.1326
1.38374
2.05764
2.55157
2.703
2.69597
2.68694
2.69995
2.70781
2.71695
2.71826
2.71965
2.71813
2.71541
1
1.00002
1.00004
1.00012
1.00022
1.00069
1.00125
1.00389
1.00743
1.02119
1.04786
1.11882
1.32431
1.92926
2.49825
2.68508
2.67852
2.66601
2.67946
2.68544
2.69559
2.69881
2.69643
2.68837
2.66473
1
1.00002
1.00003
1.0001
1.00019
1.0006
1.00111
1.00338
1.00656
1.01848
1.04201
1.10453
1.28122
1.82393
2.44854
2.66642
2.66097
2.65571
2.66816
2.67011
2.67215
2.67105
2.66193
2.64105
2.59123
1
1.00003
1.00006
1.00019
1.00034
1.0011
1.00201
1.00611
1.01223
1.03289
1.08408
1.19476
1.57181
2.41976
2.68126
2.72914
2.72496
2.72468
2.73876
2.75066
2.76448
2.77333
2.78092
2.7865
2.79022
1
1.00003
1.00006
1.00019
1.00034
1.00109
1.00198
1.00603
1.01209
1.0325
1.08331
1.19222
1.56722
2.41115
2.67837
2.72907
2.72467
2.72423
2.73818
2.74991
2.76351
2.77201
2.77961
2.78417
2.78734
1
1.00003
1.00006
1.00018
1.00033
1.00106
1.00194
1.00589
1.01181
1.03172
1.08166
1.18701
1.55693
2.39163
2.67096
2.72795
2.72316
2.72236
2.73615
2.74783
2.76115
2.76942
2.77592
2.78139
2.78329
1
1.00003
1.00005
1.00018
1.00032
1.00101
1.00186
1.00558
1.01142
1.03014
1.07952
1.17945
1.54137
2.36031
2.65922
2.72585
2.7204
2.71854
2.73202
2.74319
2.75668
2.7652
2.77214
2.77525
2.77846
1
1.00003
1.00005
1.00017
1.0003
1.00096
1.00177
1.00524
1.01089
1.0283
1.0759
1.16898
1.52066
2.31674
2.64333
2.72333
2.71725
2.71362
2.7267
2.73688
2.74825
2.75573
2.76186
2.76845
2.76802
1
1.00002
1.00005
1.00016
1.00028
1.00089
1.00165
1.00486
1.01022
1.02626
1.07105
1.15666
1.49152
2.2575
2.62114
2.71974
2.71269
2.7075
2.72036
2.73067
2.74192
2.74856
2.75372
2.75511
2.75823
1
1.00002
1.00004
1.00014
1.00026
1.00083
1.00153
1.00453
1.00938
1.02443
1.06489
1.14563
1.44332
2.17028
2.59144
2.71285
2.70612
2.69731
2.70924
2.71774
2.72722
2.73358
2.73888
2.74158
2.73788
1
1.00002
1.00004
1.00013
1.00024
1.00077
1.0014
1.00436
1.0084
1.0234
1.05591
1.1326
1.38373
2.05763
2.55157
2.703
2.69597
2.68694
2.69995
2.70781
2.71695
2.71826
2.71965
2.71812
2.71541
1
1.00002
1.00004
1.00012
1.00022
1.00069
1.00125
1.00389
1.00743
1.02119
1.04786
1.11882
1.32431
1.92925
2.49825
2.68507
2.67852
2.66601
2.67946
2.68544
2.69559
2.69881
2.69643
2.68837
2.66473
1
1.00002
1.00003
1.0001
1.00019
1.0006
1.00111
1.00338
1.00656
1.01848
1.04201
1.10453
1.28122
1.82392
2.44854
2.66642
2.66097
2.65571
2.66816
2.67011
2.67215
2.67105
2.66193
2.64105
2.59123
0.999996
1.00002
1.00005
1.00018
1.00034
1.00109
1.002
1.0061
1.01222
1.03287
1.08407
1.19472
1.57178
2.41964
2.68118
2.72907
2.72489
2.72461
2.73869
2.75057
2.7644
2.77325
2.78083
2.78641
2.79013
0.999996
1.00002
1.00005
1.00018
1.00033
1.00108
1.00198
1.00602
1.01208
1.03248
1.0833
1.19218
1.56719
2.41104
2.67829
2.72899
2.7246
2.72415
2.7381
2.74983
2.76343
2.77193
2.77952
2.78409
2.78726
0.999996
1.00002
1.00005
1.00018
1.00032
1.00105
1.00193
1.00588
1.0118
1.03171
1.08165
1.18697
1.55691
2.39151
2.67088
2.72788
2.72309
2.72229
2.73607
2.74775
2.76107
2.76934
2.77584
2.7813
2.78321
0.999996
1.00002
1.00005
1.00017
1.00031
1.00101
1.00185
1.00557
1.01141
1.03011
1.07952
1.17941
1.54136
2.3602
2.65914
2.72578
2.72032
2.71847
2.73195
2.74311
2.7566
2.76512
2.77206
2.77517
2.77838
0.999996
1.00002
1.00004
1.00016
1.00029
1.00095
1.00176
1.00523
1.01088
1.02829
1.07588
1.16894
1.52062
2.31662
2.64325
2.72326
2.71718
2.71354
2.72662
2.7368
2.74818
2.75565
2.76178
2.76838
2.76794
0.999995
1.00002
1.00004
1.00015
1.00027
1.00088
1.00164
1.00485
1.01021
1.02624
1.07104
1.15662
1.49148
2.25736
2.62107
2.71967
2.71262
2.70742
2.72029
2.73059
2.74185
2.74848
2.75364
2.75503
2.75815
0.999995
1.00002
1.00004
1.00014
1.00025
1.00082
1.00152
1.00452
1.00937
1.02441
1.06487
1.14559
1.44328
2.17015
2.59137
2.7128
2.70606
2.69724
2.70918
2.71767
2.72715
2.73351
2.73881
2.74151
2.7378
0.999995
1.00001
1.00003
1.00013
1.00023
1.00077
1.00139
1.00435
1.00839
1.02338
1.0559
1.13256
1.38372
2.05751
2.5515
2.70293
2.6959
2.68687
2.69988
2.70774
2.71688
2.71819
2.71958
2.71805
2.71534
0.999995
1.00001
1.00003
1.00011
1.00021
1.00068
1.00125
1.00389
1.00742
1.02117
1.04785
1.11878
1.32427
1.92912
2.49817
2.685
2.67845
2.66594
2.67939
2.68537
2.69552
2.69874
2.69637
2.6883
2.66466
0.999995
1.00001
1.00002
1.0001
1.00018
1.00059
1.0011
1.00337
1.00655
1.01846
1.042
1.10449
1.2812
1.82379
2.44853
2.66635
2.66089
2.65564
2.66809
2.67004
2.67209
2.67099
2.66186
2.64098
2.59118
0.999997
1
1.00003
1.00006
1.00021
1.00039
1.00122
1.00232
1.00671
1.01437
1.0368
1.09861
1.22888
1.64485
2.47085
2.6289
2.62735
2.63124
2.63722
2.64993
2.64913
2.6422
2.62181
2.57213
2.41028
0.999996
1
1.00003
1.00005
1.00019
1.00034
1.0011
1.00201
1.00617
1.01222
1.03313
1.08304
1.19563
1.56142
2.38236
2.603
2.6261
2.61838
2.61667
2.6231
2.62137
2.60807
2.57586
2.51728
2.35466
0.999996
1
1.00002
1.00004
1.00015
1.00029
1.00092
1.0017
1.00501
1.01047
1.02702
1.07248
1.1604
1.49533
2.24589
2.54843
2.62234
2.61345
2.59646
2.59478
2.59233
2.57792
2.53858
2.48311
2.35665
0.999995
0.999999
1.00002
1.00003
1.00013
1.00024
1.00078
1.00143
1.00429
1.0087
1.023
1.05929
1.13444
1.40198
2.06015
2.48342
2.61417
2.60348
2.58968
2.56973
2.55648
2.54128
2.50813
2.46299
2.364
0.999995
0.999998
1.00001
1.00003
1.0001
1.0002
1.00064
1.00118
1.00364
1.00702
1.01991
1.04476
1.11302
1.29736
1.88637
2.35822
2.57079
2.57645
2.57387
2.56104
2.53528
2.50995
2.46924
2.43821
2.36744
0.999994
0.999998
1
1.00003
1.00006
1.00021
1.00038
1.0012
1.00228
1.00658
1.01402
1.03591
1.09506
1.22132
1.61075
2.35829
2.52959
2.53142
2.53599
2.53423
2.52109
2.49688
2.44508
2.40221
2.35951
0.999994
0.999997
1
1.00002
1.00005
1.00017
1.00031
1.001
1.00182
1.00559
1.01102
1.02985
1.07491
1.17228
1.50398
2.24807
2.48789
2.52291
2.50927
2.50466
2.49606
2.48105
2.44388
2.38381
2.33804
0.999994
0.999996
0.999999
1.00002
1.00003
1.00013
1.00024
1.00075
1.00141
1.00408
1.00871
1.02215
1.05946
1.1323
1.39887
2.04081
2.4149
2.51261
2.5011
2.48495
2.46209
2.44439
2.42875
2.38478
2.32816
0.999993
0.999994
0.999999
1
1.00003
1.00007
1.00023
1.00043
1.00126
1.00263
1.00677
1.01707
1.03923
1.11343
1.25329
1.73606
2.25821
2.48178
2.48408
2.47473
2.45442
2.42319
2.39575
2.37385
2.32708
0.999993
0.999993
0.999997
1
1.00002
1.00005
1.00018
1.00033
1.00105
1.00196
1.00575
1.01204
1.03107
1.08279
1.18487
1.53936
2.22531
2.41863
2.44645
2.44134
2.4332
2.41383
2.37969
2.3511
2.3203
0.999992
0.999993
0.999994
1
1.00001
1.00005
1.00009
1.0003
1.00059
1.00165
1.00367
1.009
1.02431
1.05364
1.16265
1.3667
1.99809
2.36495
2.43399
2.42732
2.40973
2.39282
2.36833
2.33535
2.3076
0.999992
0.999993
0.999994
0.999999
1.00001
1.00003
1.00007
1.00024
1.00044
1.00138
1.00262
1.00741
1.01631
1.04025
1.11136
1.25069
1.67704
2.21313
2.40482
2.40445
2.39319
2.37412
2.35147
2.32215
2.29465
0.999992
0.999992
0.999993
0.999995
1
1.00002
1.00007
1.00013
1.00042
1.00079
1.00241
1.00469
1.01315
1.02926
1.07284
1.18767
1.51287
2.064
2.34891
2.38293
2.37556
2.3593
2.33715
2.30798
2.28026
0.999991
0.999992
0.999993
0.999994
1
1.00001
1.00005
1.00009
1.0003
1.00056
1.00174
1.00332
1.00923
1.02076
1.05047
1.14038
1.32757
1.83017
2.22794
2.35391
2.3535
2.34345
2.3282
2.30107
2.27329
0.999991
0.999991
0.999992
0.999994
0.999996
1.00001
1.00002
1.00008
1.00016
1.00051
1.00097
1.00289
1.00567
1.01573
1.03441
1.08948
1.21342
1.63779
2.06818
2.29334
2.32254
2.31929
2.30936
2.28852
2.26246
0.999991
0.999991
0.999992
0.999993
0.999995
1
1.00001
1.00006
1.00011
1.00036
1.00066
1.00205
1.00387
1.01101
1.0239
1.05899
1.15551
1.38793
1.90492
2.21295
2.28893
2.29478
2.28947
2.27802
2.25527
0.999991
0.999991
0.999991
0.999992
0.999994
0.999997
1.00001
1.00003
1.0001
1.00019
1.00058
1.0011
1.00327
1.00643
1.01761
1.03978
1.09844
1.25105
1.69824
2.08849
2.24902
2.2625
2.25751
2.25034
2.23607
0.999991
0.999991
0.999991
0.999992
0.999993
0.999995
1
1.00001
1.00006
1.00012
1.0004
1.00074
1.00227
1.00429
1.01231
1.02588
1.06683
1.16176
1.44785
1.91387
2.18565
2.24173
2.24246
2.2353
2.22312
0.999991
0.999991
0.999991
0.999991
0.999992
0.999994
0.999997
1.00001
1.00003
1.0001
1.0002
1.00062
1.00118
1.00349
1.00693
1.01869
1.04333
1.10475
1.27305
1.75092
2.05707
2.19274
2.21106
2.20906
2.20429
0.999991
0.999991
0.999991
0.999991
0.999992
0.999993
0.999996
1
1.00002
1.00005
1.00017
1.00031
1.00096
1.00182
1.00522
1.01085
1.02765
1.07099
1.1571
1.43803
1.95646
2.14267
2.18536
2.18849
2.18491
0.999991
0.999991
0.999991
0.999991
0.999991
0.999992
0.999994
0.999998
1.00001
1.00003
1.00011
1.00021
1.00065
1.0012
1.00362
1.00692
1.01933
1.04279
1.1049
1.27104
1.74164
2.03302
2.16008
2.17027
2.17185
0.999991
0.999991
0.999991
0.999991
0.999991
0.999992
0.999993
0.999996
1
1.00002
1.00005
1.00016
1.00031
1.00095
1.0018
1.00517
1.0106
1.02727
1.06833
1.15423
1.41957
1.91635
2.10742
2.15781
2.16864
0.999991
0.999991
0.999991
0.999991
0.999991
0.999991
0.999992
0.999994
0.999997
1.00001
1.00003
1.00011
1.0002
1.00063
1.00115
1.0035
1.00661
1.01855
1.04044
1.09872
1.25365
1.67405
2.00053
2.14048
2.17313
0.999991
0.999991
0.999991
0.999991
0.999991
0.999991
0.999991
0.999993
0.999995
1
1.00001
1.00006
1.00012
1.0004
1.00073
1.00222
1.00414
1.01189
1.02447
1.06365
1.14936
1.40952
1.83949
2.0994
2.18819
0.999991
0.999991
0.999991
0.999991
0.999991
0.999991
0.999991
0.999992
0.999993
0.999999
1.00001
1.00004
1.00007
1.00025
1.00046
1.00139
1.00259
1.00752
1.01521
1.03907
1.0954
1.22691
1.55771
1.99081
2.22234
0.999991
0.999991
0.999991
0.999991
0.999991
0.999991
0.999991
0.999991
0.999993
0.999995
1
1.00001
1.00006
1.00013
1.00039
1.00074
1.00221
1.0043
1.01189
1.02619
1.06419
1.1639
1.42759
1.91003
2.29202
0.999991
0.999991
0.999991
0.999991
0.999991
0.999991
0.999991
0.999991
0.999992
0.999995
0.999998
1.00001
1.00003
1.00012
1.00023
1.00071
1.00135
1.004
1.008
1.02154
1.05111
1.12337
1.32933
1.91482
2.35303
0.999991
0.999991
0.999991
0.999991
0.999991
0.999991
0.999991
0.999991
0.999992
0.999993
0.999999
1.00001
1.00004
1.00007
1.00025
1.00046
1.00144
1.00278
1.00778
1.01758
1.04307
1.12032
1.27966
1.73417
2.53166
0.999991
0.999991
0.999991
0.999991
0.999991
0.999991
0.999991
0.999991
0.999992
0.999993
0.999998
1
1.00003
1.00006
1.00022
1.00041
1.0013
1.00252
1.00713
1.01611
1.04001
1.11308
1.26242
1.72545
2.58782
0.999991
0.999991
0.999991
0.999991
0.999991
0.999991
0.999991
0.999991
0.999991
0.999993
0.999995
1.00001
1.00002
1.00008
1.00015
1.00047
1.00097
1.00263
1.00632
1.01545
1.0433
1.09688
1.29017
1.806
2.51614
0.999991
0.999991
0.999991
0.999991
0.999991
0.999991
0.999991
0.999991
0.999992
0.999993
0.999996
1
1.00002
1.00005
1.00018
1.00037
1.00105
1.00237
1.00589
1.01606
1.0365
1.11011
1.24615
1.7121
2.58372
0.999991
0.999991
0.999991
0.999991
0.999991
0.999991
0.999991
0.999991
0.999991
0.999993
0.999995
1
1.00002
1.00007
1.00014
1.00047
1.00091
1.00262
1.00587
1.01494
1.04109
1.09335
1.27998
1.76983
2.50082
0.999991
0.999991
0.999991
0.999991
0.999991
0.999991
0.999991
0.999991
0.999991
0.999993
0.999995
1
1.00002
1.00007
1.00014
1.00045
1.00088
1.00254
1.00574
1.01453
1.04034
1.09119
1.27653
1.75497
2.49916
0.999991
0.999991
0.999991
0.999991
0.999991
0.999991
0.999991
0.999991
0.999992
0.999992
0.999996
1
1.00002
1.00005
1.00017
1.00034
1.00095
1.00226
1.00555
1.01537
1.03513
1.10595
1.23683
1.69314
2.55848
0.999991
0.999991
0.999991
0.999991
0.999991
0.999991
0.999991
0.999991
0.999991
0.999993
0.999995
1
1.00001
1.00006
1.00013
1.00039
1.00087
1.00227
1.00591
1.01396
1.04035
1.08839
1.27527
1.73998
2.48437
0.999991
0.999991
0.999991
0.999991
0.999991
0.999991
0.999991
0.999991
0.999992
0.999992
0.999996
1
1.00002
1.00005
1.00016
1.00033
1.00093
1.00223
1.00545
1.01521
1.03457
1.10496
1.23285
1.68876
2.54151
0.999991
0.999991
0.999991
0.999991
0.999991
0.999991
0.999991
0.999991
0.999991
0.999993
0.999995
1
1.00001
1.00007
1.00013
1.00044
1.00086
1.00251
1.00559
1.01448
1.03936
1.09086
1.26902
1.74807
2.46245
0.999991
0.999991
0.999991
0.999991
0.999991
0.999991
0.999991
0.999991
0.999991
0.999993
0.999995
1
1.00001
1.00007
1.00013
1.00044
1.00086
1.00253
1.00556
1.01455
1.0391
1.09085
1.26736
1.74939
2.45784
0.999991
0.999991
0.999991
0.999991
0.999991
0.999991
0.999991
0.999991
0.999992
0.999992
0.999996
1
1.00002
1.00005
1.00018
1.00034
1.0011
1.00217
1.00606
1.01443
1.03535
1.10318
1.23249
1.68547
2.52987
0.999991
0.999991
0.999991
0.999991
0.999991
0.999991
0.999991
0.999991
0.999992
0.999992
0.999996
1
1.00002
1.00005
1.00019
1.00035
1.00116
1.00217
1.0066
1.01391
1.03689
1.10025
1.2338
1.68051
2.53552
1
1.00001
1.00004
1.00007
1.00022
1.0004
1.00123
1.00233
1.00672
1.01438
1.03681
1.09862
1.22891
1.64491
2.47095
2.62897
2.62741
2.6313
2.63729
2.65
2.64919
2.64226
2.62187
2.57218
2.41032
1
1.00001
1.00003
1.00006
1.00019
1.00035
1.00111
1.00202
1.00618
1.01223
1.03314
1.08305
1.19567
1.56145
2.38248
2.60308
2.62615
2.61843
2.61673
2.62317
2.62144
2.60813
2.57591
2.51733
2.3547
1
1.00001
1.00003
1.00005
1.00016
1.00029
1.00093
1.00171
1.00502
1.01048
1.02703
1.0725
1.16044
1.49537
2.24602
2.54851
2.62239
2.6135
2.59652
2.59484
2.59239
2.57797
2.53863
2.48315
2.35668
1
1.00001
1.00002
1.00004
1.00014
1.00025
1.00078
1.00143
1.00431
1.00871
1.02302
1.0593
1.13448
1.40199
2.06025
2.4835
2.61422
2.60353
2.58973
2.56979
2.55654
2.54134
2.50818
2.46303
2.36403
1
1.00001
1.00002
1.00004
1.00011
1.00021
1.00065
1.00119
1.00365
1.00703
1.01993
1.04478
1.11305
1.2974
1.8865
2.3583
2.57086
2.57652
2.57393
2.5611
2.53533
2.51
2.46929
2.43825
2.36747
1
1.00001
1.00001
1.00004
1.00007
1.00021
1.00039
1.00121
1.00229
1.00659
1.01403
1.03593
1.09508
1.22136
1.6108
2.35835
2.52965
2.53148
2.53604
2.53429
2.52114
2.49693
2.44513
2.40226
2.35954
1
1
1.00001
1.00003
1.00006
1.00018
1.00032
1.00101
1.00183
1.0056
1.01103
1.02987
1.07492
1.17232
1.50402
2.24816
2.48797
2.52296
2.50933
2.5047
2.49611
2.4811
2.44392
2.38384
2.33808
1
1
1.00001
1.00002
1.00004
1.00013
1.00024
1.00076
1.00142
1.00409
1.00872
1.02216
1.05948
1.13234
1.39892
2.04093
2.41499
2.51266
2.50114
2.48501
2.46213
2.44444
2.4288
2.38482
2.32819
1
1
1.00001
1.00001
1.00004
1.00008
1.00023
1.00044
1.00127
1.00264
1.00679
1.01708
1.03925
1.11345
1.25335
1.7362
2.25831
2.48184
2.48413
2.47478
2.45447
2.42323
2.39579
2.37389
2.32712
1
1
1.00001
1.00001
1.00003
1.00006
1.00019
1.00034