/*--------------------------------*- C++ -*----------------------------------*\
| =========                 |                                                 |
| \\      /  F ield         | OpenFOAM: The Open Source CFD Toolbox           |
|  \\    /   O peration     | Version:  4.1                                   |
|   \\  /    A nd           | Web:      www.OpenFOAM.org                      |
|    \\/     M anipulation  |                                                 |
\*---------------------------------------------------------------------------*/
FoamFile
{
    version     2.0;
    format      ascii;
    class       volScalarField;
    location    "7.94";
    object      Ma;
}
// * * * * * * * * * * * * * * * * * * * * * * * * * * * * * * * * * * * * * //

dimensions      [0 0 0 0 0 0 0];

internalField   nonuniform List<scalar> 
52500
(
3.00001
2.99996
2.99989
2.9996
2.99921
2.99758
2.99528
2.98624
2.972
2.92359
2.82038
2.57092
1.96862
1.07287
0.444639
0.317907
0.342545
0.345435
0.314794
0.262641
0.211041
0.168508
0.126571
0.0799544
0.0459371
3.00001
2.99996
2.99989
2.99961
2.99921
2.99761
2.99534
2.9864
2.97231
2.9244
2.82207
2.57538
1.97595
1.08279
0.450917
0.318486
0.343757
0.347202
0.316832
0.265439
0.215128
0.174162
0.13455
0.0934206
0.0693967
3.00001
2.99996
2.99989
2.99962
2.99923
2.99767
2.99545
2.98671
2.97294
2.92606
2.82563
2.58469
1.99207
1.10504
0.465586
0.321124
0.347904
0.352881
0.323553
0.274313
0.227208
0.190067
0.155899
0.123868
0.108741
3.00001
2.99996
2.9999
2.99963
2.99926
2.99775
2.99561
2.98721
2.9739
2.92868
2.83097
2.5988
2.01711
1.1403
0.488086
0.325065
0.354515
0.362176
0.334635
0.288711
0.246028
0.213894
0.185966
0.161915
0.151924
3.00001
2.99997
2.9999
2.99965
2.9993
2.99788
2.99585
2.988
2.97517
2.93273
2.83784
2.61746
2.05123
1.18991
0.518051
0.32993
0.363163
0.374446
0.349245
0.307411
0.269852
0.243285
0.221371
0.203629
0.197377
3.00002
2.99997
2.99991
2.99968
2.99935
2.99803
2.99612
2.98885
2.9767
2.93739
2.84772
2.64131
2.09463
1.25451
0.554485
0.335004
0.373189
0.389107
0.366757
0.329832
0.297834
0.277119
0.26162
0.250122
0.247502
3.00002
2.99997
2.99992
2.9997
2.9994
2.99817
2.99641
2.98965
2.97848
2.94194
2.85966
2.66696
2.15978
1.34214
0.603812
0.346295
0.388087
0.40825
0.388363
0.356443
0.330501
0.315851
0.306981
0.302524
0.305872
3.00002
2.99998
2.99993
2.99973
2.99945
2.9983
2.99669
2.99027
2.9804
2.94601
2.87516
2.69661
2.24429
1.45565
0.666775
0.368311
0.411382
0.434158
0.415649
0.388091
0.367619
0.359665
0.358575
0.363429
0.377482
3.00002
2.99998
2.99994
2.99976
2.99951
2.99848
2.99702
2.99122
2.98248
2.95108
2.89166
2.72911
2.33867
1.59272
0.74111
0.40447
0.445349
0.467339
0.449919
0.426799
0.411316
0.409122
0.417017
0.436555
0.474269
3.00002
2.99999
2.99995
2.99979
2.99957
2.99868
2.99738
2.99236
2.98458
2.9572
2.90547
2.76014
2.42467
1.71692
0.825145
0.453277
0.485242
0.500738
0.487559
0.469917
0.460328
0.464237
0.485389
0.532072
0.633911
2.99999
2.99994
2.99987
2.99958
2.99919
2.99756
2.99526
2.98622
2.97198
2.92356
2.82035
2.57084
1.96855
1.07273
0.444468
0.317726
0.342368
0.345254
0.314592
0.262395
0.210729
0.168111
0.126033
0.0790855
0.0443831
2.99999
2.99994
2.99987
2.99959
2.9992
2.99759
2.99532
2.98637
2.97228
2.92436
2.82204
2.57531
1.97589
1.08265
0.45075
0.318308
0.343584
0.347024
0.316634
0.265198
0.214826
0.173782
0.13405
0.0926884
0.068393
2.99999
2.99994
2.99987
2.9996
2.99921
2.99765
2.99542
2.98669
2.97291
2.92603
2.8256
2.58462
1.992
1.10491
0.465423
0.320949
0.347733
0.352706
0.32336
0.274083
0.226925
0.189724
0.155474
0.123325
0.108113
3
2.99995
2.99988
2.99961
2.99924
2.99773
2.99559
2.98718
2.97387
2.92863
2.83095
2.59874
2.01705
1.14017
0.48794
0.324902
0.354356
0.362013
0.334455
0.288499
0.245774
0.213597
0.185617
0.161508
0.151483
3
2.99995
2.99989
2.99964
2.99929
2.99786
2.99583
2.98797
2.97515
2.9327
2.83781
2.61738
2.05115
1.18976
0.5179
0.329763
0.363003
0.374287
0.349073
0.307215
0.269626
0.243029
0.221085
0.203313
0.197045
3
2.99995
2.99989
2.99966
2.99933
2.99801
2.9961
2.98883
2.97667
2.93735
2.84768
2.64123
2.09454
1.25436
0.55434
0.334838
0.37303
0.38895
0.366592
0.32965
0.297632
0.2769
0.261385
0.249872
0.247244
3
2.99996
2.9999
2.99969
2.99938
2.99815
2.99639
2.98963
2.97846
2.9419
2.85962
2.66688
2.15969
1.34198
0.603673
0.346129
0.387929
0.408097
0.388204
0.356273
0.33032
0.315662
0.306786
0.302324
0.305671
3
2.99996
2.99991
2.99971
2.99943
2.99828
2.99667
2.99025
2.98038
2.94597
2.87514
2.69654
2.24422
1.45549
0.666657
0.368159
0.411235
0.434016
0.415503
0.387935
0.367458
0.359502
0.358413
0.36327
0.377326
3
2.99997
2.99992
2.99974
2.99949
2.99846
2.997
2.9912
2.98245
2.95105
2.89163
2.72905
2.33858
1.59256
0.740991
0.404318
0.445207
0.467204
0.449781
0.426658
0.411173
0.408981
0.416882
0.436428
0.474154
3
2.99997
2.99993
2.99977
2.99955
2.99866
2.99736
2.99234
2.98455
2.95717
2.90543
2.76007
2.42461
1.71678
0.825047
0.453144
0.485123
0.500622
0.487438
0.469791
0.460203
0.464116
0.485276
0.531974
0.633834
2.99999
2.99994
2.99987
2.99958
2.99919
2.99756
2.99526
2.98622
2.97198
2.92356
2.82035
2.57084
1.96854
1.07273
0.444465
0.317727
0.342369
0.345254
0.314592
0.262395
0.210729
0.168111
0.126033
0.0790855
0.0443831
2.99999
2.99994
2.99987
2.99959
2.9992
2.99759
2.99532
2.98637
2.97228
2.92436
2.82204
2.5753
1.97588
1.08265
0.450747
0.318309
0.343584
0.347024
0.316633
0.265198
0.214826
0.173782
0.13405
0.0926884
0.068393
2.99999
2.99994
2.99987
2.9996
2.99921
2.99765
2.99542
2.98669
2.97291
2.92603
2.8256
2.58462
1.992
1.1049
0.46542
0.32095
0.347734
0.352706
0.32336
0.274083
0.226925
0.189724
0.155474
0.123325
0.108113
3
2.99995
2.99988
2.99961
2.99924
2.99773
2.99559
2.98718
2.97387
2.92863
2.83095
2.59873
2.01705
1.14016
0.487937
0.324903
0.354356
0.362013
0.334455
0.288499
0.245774
0.213597
0.185617
0.161509
0.151483
3
2.99995
2.99989
2.99964
2.99929
2.99786
2.99583
2.98797
2.97515
2.9327
2.8378
2.61738
2.05114
1.18975
0.517897
0.329764
0.363004
0.374287
0.349073
0.307215
0.269626
0.243029
0.221085
0.203313
0.197045
3
2.99995
2.99989
2.99966
2.99933
2.99801
2.9961
2.98883
2.97667
2.93735
2.84768
2.64123
2.09454
1.25435
0.554337
0.334839
0.373031
0.38895
0.366592
0.32965
0.297632
0.2769
0.261385
0.249872
0.247244
3
2.99996
2.9999
2.99969
2.99938
2.99815
2.99639
2.98963
2.97846
2.9419
2.85962
2.66688
2.15968
1.34197
0.603669
0.34613
0.387929
0.408097
0.388204
0.356273
0.33032
0.315662
0.306786
0.302324
0.305671
3
2.99996
2.99991
2.99971
2.99943
2.99828
2.99667
2.99025
2.98038
2.94597
2.87514
2.69654
2.24421
1.45548
0.666652
0.368159
0.411234
0.434015
0.415502
0.387935
0.367458
0.359502
0.358413
0.36327
0.377327
3
2.99997
2.99992
2.99974
2.99949
2.99846
2.997
2.9912
2.98245
2.95105
2.89163
2.72905
2.33857
1.59255
0.740986
0.404316
0.445205
0.467202
0.44978
0.426658
0.411173
0.408981
0.416882
0.436429
0.474154
3
2.99997
2.99993
2.99977
2.99955
2.99866
2.99736
2.99234
2.98455
2.95717
2.90543
2.76007
2.4246
1.71677
0.825043
0.453143
0.485122
0.500621
0.487437
0.469791
0.460202
0.464115
0.485276
0.531974
0.633834
2.99999
2.99994
2.99987
2.99958
2.99919
2.99756
2.99526
2.98622
2.97198
2.92356
2.82035
2.57084
1.96854
1.07273
0.444465
0.317727
0.342369
0.345254
0.314592
0.262395
0.210729
0.168111
0.126033
0.0790855
0.0443831
2.99999
2.99994
2.99987
2.99959
2.9992
2.99759
2.99532
2.98637
2.97228
2.92436
2.82204
2.5753
1.97588
1.08265
0.450747
0.318309
0.343584
0.347024
0.316633
0.265198
0.214826
0.173782
0.13405
0.0926884
0.068393
2.99999
2.99994
2.99987
2.9996
2.99921
2.99765
2.99542
2.98669
2.97291
2.92603
2.8256
2.58462
1.992
1.1049
0.46542
0.32095
0.347734
0.352706
0.32336
0.274083
0.226925
0.189724
0.155474
0.123325
0.108113
3
2.99995
2.99988
2.99961
2.99924
2.99773
2.99559
2.98718
2.97387
2.92863
2.83095
2.59873
2.01705
1.14016
0.487936
0.324903
0.354356
0.362013
0.334455
0.288499
0.245774
0.213597
0.185617
0.161509
0.151483
3
2.99995
2.99989
2.99964
2.99929
2.99786
2.99583
2.98797
2.97515
2.9327
2.8378
2.61738
2.05114
1.18975
0.517896
0.329764
0.363004
0.374287
0.349073
0.307214
0.269626
0.243029
0.221085
0.203313
0.197045
3
2.99995
2.99989
2.99966
2.99933
2.99801
2.9961
2.98883
2.97667
2.93735
2.84768
2.64123
2.09454
1.25435
0.554336
0.334839
0.373031
0.38895
0.366592
0.32965
0.297632
0.2769
0.261385
0.249872
0.247244
3
2.99996
2.9999
2.99969
2.99938
2.99815
2.99639
2.98963
2.97846
2.9419
2.85962
2.66688
2.15968
1.34197
0.603668
0.34613
0.387929
0.408096
0.388204
0.356273
0.33032
0.315662
0.306786
0.302324
0.305671
3
2.99996
2.99991
2.99971
2.99943
2.99828
2.99667
2.99025
2.98038
2.94597
2.87514
2.69654
2.24421
1.45548
0.666652
0.368159
0.411234
0.434015
0.415502
0.387935
0.367458
0.359502
0.358413
0.36327
0.377327
3
2.99997
2.99992
2.99974
2.99949
2.99846
2.997
2.9912
2.98245
2.95105
2.89163
2.72905
2.33857
1.59255
0.740986
0.404316
0.445205
0.467202
0.44978
0.426658
0.411173
0.408981
0.416882
0.436429
0.474154
3
2.99997
2.99993
2.99977
2.99955
2.99866
2.99736
2.99234
2.98455
2.95717
2.90543
2.76007
2.4246
1.71677
0.825043
0.453143
0.485122
0.500621
0.487437
0.46979
0.460202
0.464115
0.485276
0.531974
0.633834
2.99999
2.99994
2.99987
2.99958
2.99919
2.99756
2.99526
2.98622
2.97198
2.92356
2.82035
2.57084
1.96854
1.07273
0.444464
0.317727
0.342369
0.345254
0.314592
0.262395
0.210729
0.168111
0.126033
0.0790855
0.0443831
2.99999
2.99994
2.99987
2.99959
2.9992
2.99759
2.99532
2.98637
2.97228
2.92436
2.82204
2.5753
1.97588
1.08265
0.450746
0.318309
0.343584
0.347024
0.316633
0.265198
0.214826
0.173782
0.13405
0.0926884
0.068393
2.99999
2.99994
2.99987
2.9996
2.99921
2.99765
2.99542
2.98669
2.97291
2.92603
2.8256
2.58462
1.992
1.1049
0.465419
0.32095
0.347734
0.352706
0.32336
0.274083
0.226925
0.189724
0.155474
0.123325
0.108113
3
2.99995
2.99988
2.99961
2.99924
2.99773
2.99559
2.98718
2.97387
2.92863
2.83095
2.59873
2.01704
1.14016
0.487936
0.324904
0.354356
0.362013
0.334455
0.288499
0.245774
0.213597
0.185617
0.161509
0.151483
3
2.99995
2.99989
2.99964
2.99929
2.99786
2.99583
2.98797
2.97515
2.9327
2.8378
2.61738
2.05114
1.18975
0.517896
0.329764
0.363004
0.374287
0.349073
0.307214
0.269626
0.243029
0.221085
0.203313
0.197045
3
2.99995
2.99989
2.99966
2.99933
2.99801
2.9961
2.98883
2.97667
2.93735
2.84768
2.64123
2.09454
1.25435
0.554336
0.334839
0.373031
0.38895
0.366592
0.32965
0.297632
0.2769
0.261385
0.249872
0.247245
3
2.99996
2.9999
2.99969
2.99938
2.99815
2.99639
2.98963
2.97846
2.9419
2.85962
2.66688
2.15968
1.34197
0.603668
0.34613
0.387929
0.408096
0.388204
0.356273
0.33032
0.315662
0.306786
0.302324
0.305672
3
2.99996
2.99991
2.99971
2.99943
2.99828
2.99667
2.99025
2.98038
2.94597
2.87514
2.69654
2.24421
1.45548
0.666651
0.368159
0.411234
0.434015
0.415502
0.387935
0.367458
0.359502
0.358413
0.36327
0.377327
3
2.99997
2.99992
2.99974
2.99949
2.99846
2.997
2.9912
2.98245
2.95105
2.89163
2.72905
2.33857
1.59254
0.740985
0.404316
0.445204
0.467202
0.44978
0.426657
0.411173
0.408981
0.416882
0.436429
0.474154
3
2.99997
2.99993
2.99977
2.99955
2.99866
2.99736
2.99234
2.98455
2.95717
2.90543
2.76007
2.4246
1.71677
0.825042
0.453142
0.485122
0.500621
0.487437
0.46979
0.460202
0.464115
0.485276
0.531974
0.633834
2.99999
2.99994
2.99987
2.99958
2.99919
2.99756
2.99526
2.98622
2.97198
2.92356
2.82035
2.57084
1.96854
1.07273
0.444464
0.317727
0.342369
0.345254
0.314592
0.262395
0.210729
0.168111
0.126033
0.0790855
0.0443831
2.99999
2.99994
2.99987
2.99959
2.9992
2.99759
2.99532
2.98637
2.97228
2.92436
2.82204
2.5753
1.97588
1.08265
0.450746
0.318309
0.343584
0.347024
0.316633
0.265198
0.214826
0.173782
0.13405
0.0926884
0.068393
2.99999
2.99994
2.99987
2.9996
2.99921
2.99765
2.99542
2.98669
2.97291
2.92603
2.8256
2.58462
1.992
1.1049
0.465419
0.32095
0.347734
0.352706
0.32336
0.274083
0.226925
0.189724
0.155474
0.123325
0.108113
3
2.99995
2.99988
2.99961
2.99924
2.99773
2.99559
2.98718
2.97387
2.92863
2.83095
2.59873
2.01704
1.14016
0.487935
0.324904
0.354356
0.362013
0.334455
0.288499
0.245774
0.213597
0.185617
0.161509
0.151483
3
2.99995
2.99989
2.99964
2.99929
2.99786
2.99583
2.98797
2.97515
2.93269
2.8378
2.61738
2.05114
1.18975
0.517896
0.329764
0.363004
0.374287
0.349073
0.307214
0.269626
0.243029
0.221085
0.203313
0.197045
3
2.99995
2.99989
2.99966
2.99933
2.99801
2.9961
2.98883
2.97667
2.93735
2.84768
2.64123
2.09454
1.25435
0.554336
0.334839
0.373031
0.38895
0.366592
0.32965
0.297632
0.2769
0.261385
0.249872
0.247245
3
2.99996
2.9999
2.99969
2.99938
2.99815
2.99639
2.98963
2.97846
2.9419
2.85962
2.66688
2.15968
1.34196
0.603667
0.34613
0.387929
0.408096
0.388204
0.356273
0.33032
0.315662
0.306786
0.302324
0.305672
3
2.99996
2.99991
2.99971
2.99943
2.99828
2.99667
2.99025
2.98038
2.94597
2.87514
2.69654
2.24421
1.45548
0.666651
0.368159
0.411234
0.434015
0.415502
0.387935
0.367458
0.359502
0.358413
0.36327
0.377327
3
2.99997
2.99992
2.99974
2.99949
2.99846
2.997
2.9912
2.98245
2.95105
2.89163
2.72905
2.33857
1.59254
0.740984
0.404316
0.445204
0.467201
0.44978
0.426657
0.411173
0.408981
0.416882
0.436429
0.474154
3
2.99997
2.99993
2.99977
2.99955
2.99866
2.99736
2.99234
2.98455
2.95717
2.90543
2.76007
2.4246
1.71677
0.825042
0.453142
0.485122
0.500621
0.487437
0.46979
0.460202
0.464115
0.485276
0.531974
0.633834
2.99999
2.99994
2.99987
2.99958
2.99919
2.99756
2.99526
2.98622
2.97198
2.92356
2.82035
2.57084
1.96854
1.07273
0.444464
0.317727
0.342369
0.345254
0.314592
0.262395
0.210729
0.168111
0.126033
0.0790855
0.0443831
2.99999
2.99994
2.99987
2.99959
2.9992
2.99759
2.99532
2.98637
2.97228
2.92436
2.82204
2.5753
1.97588
1.08265
0.450746
0.318309
0.343584
0.347024
0.316633
0.265198
0.214826
0.173782
0.13405
0.0926884
0.068393
2.99999
2.99994
2.99987
2.9996
2.99921
2.99765
2.99542
2.98669
2.97291
2.92603
2.8256
2.58462
1.992
1.1049
0.465419
0.32095
0.347734
0.352706
0.32336
0.274083
0.226925
0.189724
0.155474
0.123325
0.108113
3
2.99995
2.99988
2.99961
2.99924
2.99773
2.99559
2.98718
2.97387
2.92863
2.83095
2.59873
2.01705
1.14016
0.487936
0.324904
0.354356
0.362013
0.334455
0.288499
0.245774
0.213597
0.185617
0.161509
0.151483
3
2.99995
2.99989
2.99964
2.99929
2.99786
2.99583
2.98797
2.97515
2.9327
2.8378
2.61738
2.05114
1.18975
0.517896
0.329764
0.363004
0.374287
0.349073
0.307214
0.269626
0.243029
0.221085
0.203313
0.197045
3
2.99995
2.99989
2.99966
2.99933
2.99801
2.9961
2.98883
2.97667
2.93735
2.84768
2.64123
2.09454
1.25435
0.554336
0.334839
0.373031
0.38895
0.366592
0.32965
0.297632
0.2769
0.261385
0.249872
0.247244
3
2.99996
2.9999
2.99969
2.99938
2.99815
2.99639
2.98963
2.97846
2.9419
2.85962
2.66688
2.15968
1.34197
0.603668
0.34613
0.387929
0.408096
0.388204
0.356273
0.33032
0.315662
0.306786
0.302324
0.305671
3
2.99996
2.99991
2.99971
2.99943
2.99828
2.99667
2.99025
2.98038
2.94597
2.87514
2.69654
2.24421
1.45548
0.666651
0.368159
0.411234
0.434015
0.415502
0.387935
0.367458
0.359502
0.358413
0.36327
0.377327
3
2.99997
2.99992
2.99974
2.99949
2.99846
2.997
2.9912
2.98245
2.95105
2.89163
2.72905
2.33857
1.59255
0.740985
0.404316
0.445205
0.467202
0.44978
0.426658
0.411173
0.408981
0.416882
0.436429
0.474154
3
2.99997
2.99993
2.99977
2.99955
2.99866
2.99736
2.99234
2.98455
2.95717
2.90543
2.76007
2.4246
1.71677
0.825043
0.453143
0.485122
0.500621
0.487437
0.46979
0.460202
0.464115
0.485276
0.531974
0.633834
2.99999
2.99994
2.99987
2.99958
2.99919
2.99756
2.99526
2.98622
2.97198
2.92356
2.82035
2.57084
1.96854
1.07273
0.444465
0.317727
0.342369
0.345254
0.314592
0.262395
0.210729
0.168111
0.126033
0.0790855
0.0443831
2.99999
2.99994
2.99987
2.99959
2.9992
2.99759
2.99532
2.98637
2.97228
2.92436
2.82204
2.5753
1.97588
1.08265
0.450747
0.318309
0.343584
0.347024
0.316633
0.265198
0.214826
0.173782
0.13405
0.0926884
0.068393
2.99999
2.99994
2.99987
2.9996
2.99921
2.99765
2.99542
2.98669
2.97291
2.92603
2.8256
2.58462
1.992
1.1049
0.46542
0.32095
0.347734
0.352706
0.32336
0.274083
0.226925
0.189724
0.155474
0.123325
0.108113
3
2.99995
2.99988
2.99961
2.99924
2.99773
2.99559
2.98718
2.97387
2.92863
2.83095
2.59873
2.01705
1.14016
0.487936
0.324903
0.354356
0.362013
0.334455
0.288499
0.245774
0.213597
0.185617
0.161509
0.151483
3
2.99995
2.99989
2.99964
2.99929
2.99786
2.99583
2.98797
2.97515
2.9327
2.8378
2.61738
2.05114
1.18975
0.517897
0.329764
0.363004
0.374287
0.349073
0.307215
0.269626
0.243029
0.221085
0.203313
0.197045
3
2.99995
2.99989
2.99966
2.99933
2.99801
2.9961
2.98883
2.97667
2.93735
2.84768
2.64123
2.09454
1.25435
0.554337
0.334839
0.373031
0.38895
0.366592
0.32965
0.297632
0.2769
0.261385
0.249872
0.247244
3
2.99996
2.9999
2.99969
2.99938
2.99815
2.99639
2.98963
2.97846
2.9419
2.85962
2.66688
2.15968
1.34197
0.603668
0.34613
0.387929
0.408097
0.388204
0.356273
0.33032
0.315662
0.306786
0.302324
0.305671
3
2.99996
2.99991
2.99971
2.99943
2.99828
2.99667
2.99025
2.98038
2.94597
2.87514
2.69654
2.24421
1.45548
0.666652
0.368159
0.411234
0.434015
0.415502
0.387935
0.367458
0.359502
0.358413
0.36327
0.377327
3
2.99997
2.99992
2.99974
2.99949
2.99846
2.997
2.9912
2.98245
2.95105
2.89163
2.72905
2.33857
1.59255
0.740986
0.404316
0.445205
0.467202
0.44978
0.426658
0.411173
0.408981
0.416882
0.436429
0.474154
3
2.99997
2.99993
2.99977
2.99955
2.99866
2.99736
2.99234
2.98455
2.95717
2.90543
2.76007
2.4246
1.71677
0.825043
0.453143
0.485122
0.500621
0.487437
0.469791
0.460202
0.464115
0.485276
0.531974
0.633834
2.99999
2.99994
2.99987
2.99958
2.99919
2.99756
2.99526
2.98622
2.97198
2.92356
2.82035
2.57084
1.96855
1.07273
0.444468
0.317726
0.342368
0.345254
0.314592
0.262395
0.210729
0.168111
0.126033
0.0790855
0.0443831
2.99999
2.99994
2.99987
2.99959
2.9992
2.99759
2.99532
2.98637
2.97228
2.92436
2.82204
2.57531
1.97589
1.08265
0.45075
0.318308
0.343584
0.347024
0.316634
0.265198
0.214826
0.173782
0.13405
0.0926884
0.068393
2.99999
2.99994
2.99987
2.9996
2.99921
2.99765
2.99542
2.98669
2.97291
2.92603
2.8256
2.58462
1.992
1.10491
0.465423
0.320949
0.347733
0.352706
0.32336
0.274083
0.226925
0.189724
0.155474
0.123325
0.108113
3
2.99995
2.99988
2.99961
2.99924
2.99773
2.99559
2.98718
2.97387
2.92863
2.83095
2.59874
2.01705
1.14017
0.48794
0.324902
0.354356
0.362013
0.334455
0.288499
0.245774
0.213597
0.185617
0.161508
0.151483
3
2.99995
2.99989
2.99964
2.99929
2.99786
2.99583
2.98797
2.97515
2.9327
2.83781
2.61738
2.05115
1.18976
0.5179
0.329763
0.363003
0.374287
0.349073
0.307215
0.269626
0.243029
0.221085
0.203313
0.197045
3
2.99995
2.99989
2.99966
2.99933
2.99801
2.9961
2.98883
2.97667
2.93735
2.84768
2.64123
2.09454
1.25436
0.55434
0.334838
0.37303
0.38895
0.366592
0.32965
0.297632
0.2769
0.261385
0.249872
0.247244
3
2.99996
2.9999
2.99969
2.99938
2.99815
2.99639
2.98963
2.97846
2.9419
2.85962
2.66688
2.15969
1.34198
0.603673
0.346129
0.387929
0.408097
0.388204
0.356273
0.33032
0.315662
0.306786
0.302324
0.305671
3
2.99996
2.99991
2.99971
2.99943
2.99828
2.99667
2.99025
2.98038
2.94597
2.87514
2.69654
2.24422
1.45549
0.666657
0.368159
0.411235
0.434016
0.415503
0.387935
0.367458
0.359502
0.358413
0.36327
0.377326
3
2.99997
2.99992
2.99974
2.99949
2.99846
2.997
2.9912
2.98245
2.95105
2.89163
2.72905
2.33858
1.59256
0.740991
0.404318
0.445207
0.467204
0.449781
0.426658
0.411173
0.408981
0.416882
0.436428
0.474154
3
2.99997
2.99993
2.99977
2.99955
2.99866
2.99736
2.99234
2.98455
2.95717
2.90543
2.76007
2.42461
1.71678
0.825047
0.453144
0.485123
0.500622
0.487438
0.469791
0.460203
0.464116
0.485276
0.531974
0.633834
3.00001
2.99996
2.99989
2.9996
2.99921
2.99758
2.99528
2.98624
2.972
2.92359
2.82038
2.57092
1.96862
1.07287
0.444639
0.317907
0.342545
0.345435
0.314794
0.262641
0.211041
0.168508
0.126571
0.0799544
0.0459371
3.00001
2.99996
2.99989
2.99961
2.99921
2.99761
2.99534
2.9864
2.97231
2.9244
2.82207
2.57538
1.97595
1.08279
0.450917
0.318486
0.343757
0.347202
0.316832
0.265439
0.215128
0.174162
0.13455
0.0934206
0.0693967
3.00001
2.99996
2.99989
2.99962
2.99923
2.99767
2.99545
2.98671
2.97294
2.92606
2.82563
2.58469
1.99207
1.10504
0.465586
0.321124
0.347904
0.352881
0.323553
0.274313
0.227208
0.190067
0.155899
0.123868
0.108741
3.00001
2.99996
2.9999
2.99963
2.99926
2.99775
2.99561
2.98721
2.9739
2.92868
2.83097
2.5988
2.01711
1.1403
0.488086
0.325064
0.354515
0.362177
0.334635
0.288711
0.246028
0.213894
0.185966
0.161915
0.151924
3.00001
2.99997
2.9999
2.99965
2.9993
2.99788
2.99585
2.988
2.97517
2.93273
2.83784
2.61746
2.05123
1.18991
0.518051
0.32993
0.363163
0.374446
0.349245
0.307411
0.269852
0.243285
0.221371
0.203629
0.197377
3.00002
2.99997
2.99991
2.99968
2.99935
2.99803
2.99612
2.98885
2.9767
2.93739
2.84772
2.64131
2.09463
1.25451
0.554485
0.335004
0.373189
0.389107
0.366757
0.329832
0.297834
0.277119
0.26162
0.250122
0.247502
3.00002
2.99997
2.99992
2.9997
2.9994
2.99817
2.99641
2.98965
2.97848
2.94194
2.85966
2.66696
2.15978
1.34214
0.603813
0.346295
0.388087
0.40825
0.388363
0.356443
0.330501
0.315851
0.306981
0.302524
0.305872
3.00002
2.99998
2.99993
2.99973
2.99945
2.9983
2.99669
2.99027
2.9804
2.94601
2.87516
2.69661
2.24429
1.45565
0.666775
0.368311
0.411382
0.434158
0.415649
0.388091
0.367619
0.359665
0.358575
0.363429
0.377482
3.00002
2.99998
2.99994
2.99976
2.99951
2.99848
2.99702
2.99122
2.98248
2.95108
2.89166
2.72911
2.33867
1.59272
0.74111
0.40447
0.445349
0.467339
0.449919
0.426799
0.411316
0.409122
0.417017
0.436555
0.474269
3.00002
2.99999
2.99995
2.99979
2.99957
2.99868
2.99738
2.99236
2.98458
2.9572
2.90547
2.76014
2.42467
1.71692
0.825146
0.453277
0.485242
0.500738
0.487559
0.469917
0.460328
0.464237
0.485389
0.532072
0.633911
3.00002
3
2.99994
2.99986
2.99954
2.99908
2.99727
2.99455
2.98468
2.96724
2.91372
2.78834
2.50762
1.85481
0.955587
0.521214
0.521589
0.530041
0.527163
0.515253
0.511709
0.524133
0.563076
0.646423
0.813642
3.00002
3
2.99995
2.99988
2.99959
2.99919
2.99755
2.99522
2.98602
2.97172
2.92275
2.82032
2.56821
1.97585
1.09938
0.602169
0.544595
0.556172
0.562801
0.559538
0.562982
0.584806
0.63743
0.735219
0.899967
3.00002
3.00001
2.99996
2.9999
2.99966
2.99932
2.99794
2.99597
2.98839
2.97598
2.93518
2.84402
2.63261
2.08747
1.25545
0.68735
0.562045
0.577666
0.59426
0.600979
0.611846
0.640756
0.698405
0.79088
0.924843
3.00002
3.00001
2.99997
2.99992
2.99972
2.99943
2.99828
2.99663
2.9903
2.97989
2.94584
2.86974
2.6908
2.2198
1.44406
0.783864
0.584631
0.601743
0.622511
0.638937
0.657158
0.689681
0.744897
0.825619
0.936449
3.00002
3.00001
2.99998
2.99994
2.99977
2.99953
2.99856
2.99717
2.99172
2.98333
2.95373
2.89757
2.7417
2.38075
1.64882
0.90761
0.632818
0.638534
0.655324
0.675022
0.697221
0.731627
0.784161
0.853156
0.945653
3.00002
3.00001
3
2.99994
2.99986
2.99955
2.99909
2.99731
2.99462
2.98493
2.96775
2.91554
2.79321
2.52066
1.89794
1.05824
0.699652
0.683638
0.695929
0.714018
0.734651
0.766767
0.81698
0.879616
0.95632
3.00002
3.00001
3
2.99996
2.99989
2.99963
2.99926
2.99776
2.99564
2.98725
2.97428
2.92971
2.83655
2.61069
2.06033
1.23594
0.783402
0.71577
0.729025
0.747155
0.770128
0.799361
0.842881
0.901953
0.969841
3.00002
3.00002
3.00001
2.99997
2.99992
2.99973
2.99944
2.99832
2.99665
2.99054
2.97987
2.94666
2.86967
2.69255
2.22358
1.45723
0.892665
0.745556
0.754394
0.773443
0.800846
0.831226
0.868262
0.919212
0.981408
3.00002
3.00002
3.00001
2.99999
2.99993
2.99984
2.9995
2.99897
2.9971
2.99383
2.98363
2.96088
2.90402
2.75093
2.44656
1.72772
1.05461
0.799648
0.788473
0.802443
0.828268
0.860009
0.895866
0.937964
0.992043
3.00002
3.00002
3.00001
3
2.99995
2.99988
2.9996
2.9992
2.9976
2.99527
2.98647
2.97189
2.92488
2.82022
2.57962
2.00676
1.21526
0.868832
0.827791
0.837995
0.858936
0.887438
0.920958
0.959028
1.00436
3.00003
3.00002
3.00002
3.00001
2.99998
2.9999
2.99978
2.9993
2.99859
2.99607
2.99149
2.97773
2.94578
2.86898
2.65699
2.25342
1.4178
0.972583
0.861273
0.866461
0.886071
0.913488
0.943548
0.979043
1.01882
3.00003
3.00002
3.00002
3.00001
2.99999
2.99993
2.99983
2.99946
2.99892
2.99681
2.99368
2.98235
2.96193
2.90174
2.75485
2.44959
1.7543
1.13224
0.915884
0.901169
0.913527
0.937293
0.966071
0.997459
1.03339
3.00003
3.00003
3.00002
3.00002
3
2.99997
2.99985
2.99968
2.99903
2.99806
2.9944
2.98864
2.96876
2.93196
2.82573
2.59637
2.04707
1.30944
0.988931
0.935283
0.942212
0.961307
0.988351
1.01731
1.04885
3.00003
3.00003
3.00002
3.00002
3.00001
2.99998
2.9999
2.99978
2.99931
2.99863
2.996
2.99203
2.97801
2.9521
2.87829
2.69751
2.32407
1.5662
1.11406
0.976511
0.971403
0.983022
1.00638
1.03471
1.06413
3.00003
3.00003
3.00003
3.00002
3.00002
2.99999
2.99995
2.99982
2.99961
2.99883
2.99766
2.99334
2.98644
2.96326
2.91926
2.79707
2.53109
1.92927
1.27558
1.03697
1.00612
1.01151
1.02871
1.05342
1.07955
3.00003
3.00003
3.00003
3.00002
3.00002
3
2.99998
2.99988
2.99974
2.99918
2.99838
2.99528
2.99063
2.97398
2.94419
2.85944
2.65929
2.22874
1.47931
1.11818
1.03921
1.03808
1.05088
1.07083
1.09329
3.00003
3.00003
3.00003
3.00003
3.00002
3.00001
2.99999
2.99994
2.99978
2.99955
2.99864
2.9973
2.99231
2.98437
2.95781
2.90566
2.76874
2.44939
1.80732
1.2578
1.08386
1.06628
1.07403
1.08947
1.10769
3.00003
3.00003
3.00003
3.00003
3.00002
3.00002
3
2.99997
2.99986
2.9997
2.99907
2.99816
2.99468
2.98939
2.97063
2.93794
2.83855
2.63878
2.13173
1.46756
1.16146
1.09734
1.0943
1.10235
1.11305
3.00003
3.00003
3.00003
3.00003
3.00003
3.00002
3.00001
2.99998
2.99994
2.99976
2.9995
2.99853
2.99708
2.99171
2.98311
2.95474
2.89732
2.75249
2.40832
1.74811
1.28894
1.13951
1.11767
1.11397
1.11322
3.00003
3.00003
3.00003
3.00003
3.00003
3.00002
3.00002
3
2.99995
2.99988
2.99961
2.99922
2.99772
2.99546
2.9874
2.9737
2.93156
2.83827
2.62848
2.13569
1.4762
1.20287
1.14176
1.1218
1.10499
3.00003
3.00003
3.00003
3.00003
3.00003
3.00003
3.00002
3.00001
2.99998
2.99993
2.99975
2.99948
2.99846
2.99698
2.99134
2.98272
2.95295
2.8966
2.74864
2.40028
1.75319
1.31175
1.16153
1.1173
1.0795
3.00003
3.00003
3.00003
3.00003
3.00003
3.00003
3.00002
3.00002
3
2.99995
2.99988
2.9996
2.9992
2.99767
2.99537
2.98707
2.97333
2.93031
2.83896
2.62144
2.14216
1.48911
1.20052
1.10369
1.02667
3.00003
3.00003
3.00003
3.00003
3.00003
3.00003
3.00003
3.00002
3.00001
2.99998
2.99993
2.99974
2.99947
2.99841
2.9969
2.99107
2.98231
2.95172
2.89432
2.74473
2.38735
1.75331
1.26663
1.05755
0.933966
3.00003
3.00003
3.00003
3.00003
3.00003
3.00003
3.00003
3.00002
3.00002
2.99999
2.99996
2.99983
2.99964
2.99891
2.99786
2.9938
2.98776
2.96604
2.92831
2.81607
2.58262
2.0409
1.35526
0.978518
0.81138
3.00003
3.00003
3.00003
3.00003
3.00003
3.00003
3.00003
3.00002
3.00002
3
2.99998
2.99989
2.99975
2.99922
2.99846
2.9955
2.99104
2.97527
2.94591
2.86355
2.65946
2.24876
1.46128
0.885975
0.668858
3.00003
3.00003
3.00003
3.00003
3.00003
3.00003
3.00003
3.00003
3.00002
3.00001
2.99998
2.99993
2.99975
2.99948
2.99845
2.99688
2.99109
2.98154
2.95028
2.88458
2.7189
2.32162
1.57604
0.777868
0.508955
3.00003
3.00003
3.00003
3.00003
3.00003
3.00003
3.00003
3.00003
3.00002
3.00001
3
2.99993
2.99984
2.99949
2.99895
2.99706
2.99353
2.98306
2.95829
2.89839
2.7302
2.40056
1.63779
0.739594
0.384091
3.00003
3.00003
3.00003
3.00003
3.00003
3.00003
3.00003
3.00003
3.00002
3.00002
2.99999
2.99995
2.9998
2.99957
2.99869
2.99738
2.99232
2.98431
2.95651
2.90081
2.75237
2.38891
1.66386
0.706063
0.306091
3.00003
3.00003
3.00003
3.00003
3.00003
3.00003
3.00003
3.00003
3.00002
3.00002
2.99999
2.99996
2.99981
2.99961
2.99877
2.99755
2.99274
2.9852
2.95863
2.90565
2.76231
2.4088
1.68913
0.711838
0.284606
3.00003
3.00003
3.00003
3.00003
3.00003
3.00003
3.00003
3.00003
3.00002
3.00002
3
2.99995
2.99987
2.99956
2.99909
2.99743
2.99435
2.98507
2.96334
2.9091
2.76078
2.45765
1.73407
0.785894
0.323566
3.00003
3.00003
3.00003
3.00003
3.00003
3.00003
3.00003
3.00003
3.00002
3.00002
3
2.99997
2.99984
2.99966
2.99896
2.99782
2.99392
2.98611
2.96349
2.90819
2.77868
2.42803
1.74675
0.76244
0.314118
3.00003
3.00003
3.00003
3.00003
3.00003
3.00003
3.00003
3.00003
3.00002
3.00002
3
2.99995
2.99987
2.99956
2.99912
2.99733
2.9946
2.98468
2.96637
2.91101
2.77554
2.47592
1.77432
0.832013
0.347887
3.00003
3.00003
3.00003
3.00003
3.00003
3.00003
3.00003
3.00003
3.00002
3.00002
3
2.99995
2.99988
2.99958
2.99914
2.9974
2.99474
2.98503
2.96722
2.91274
2.781
2.48509
1.79179
0.852567
0.357217
3.00003
3.00003
3.00003
3.00003
3.00003
3.00003
3.00003
3.00003
3.00002
3.00002
3
2.99997
2.99986
2.99969
2.99906
2.99798
2.99441
2.98681
2.96577
2.9126
2.79022
2.44841
1.79246
0.802227
0.339581
3.00003
3.00003
3.00003
3.00003
3.00003
3.00003
3.00003
3.00003
3.00003
3.00002
3.00001
2.99996
2.99989
2.99961
2.99918
2.9976
2.99489
2.98605
2.96704
2.91586
2.78268
2.4985
1.80917
0.879661
0.376025
3.00003
3.00003
3.00003
3.00003
3.00003
3.00003
3.00003
3.00003
3.00002
3.00002
3
2.99997
2.99986
2.9997
2.99906
2.998
2.99438
2.987
2.96585
2.91354
2.79177
2.45603
1.80492
0.817849
0.348896
3.00003
3.00003
3.00003
3.00003
3.00003
3.00003
3.00003
3.00003
3.00003
3.00002
3
2.99995
2.99988
2.99959
2.99917
2.99747
2.99487
2.98539
2.96803
2.91492
2.78604
2.5001
1.81882
0.892952
0.383345
3.00003
3.00003
3.00003
3.00003
3.00003
3.00003
3.00003
3.00003
3.00003
3.00002
3
2.99995
2.99988
2.99959
2.99916
2.99745
2.99484
2.98537
2.96778
2.91484
2.7843
2.49915
1.81606
0.889754
0.383622
3.00003
3.00003
3.00003
3.00003
3.00003
3.00003
3.00003
3.00003
3.00002
3.00002
3
2.99997
2.99984
2.99966
2.99893
2.99787
2.99366
2.98698
2.96381
2.91539
2.7899
2.46732
1.81695
0.829869
0.361478
3.00003
3.00003
3.00003
3.00003
3.00003
3.00003
3.00003
3.00003
3.00002
3.00002
3
2.99996
2.99983
2.99965
2.99887
2.99778
2.9933
2.98665
2.9619
2.91654
2.78633
2.47402
1.82032
0.831936
0.36432
3
2.99998
2.99993
2.99984
2.99952
2.99906
2.99725
2.99453
2.98466
2.96722
2.91368
2.7883
2.50755
1.8547
0.955426
0.521068
0.521482
0.529938
0.527057
0.515143
0.511599
0.524028
0.562984
0.646349
0.813595
3
2.99999
2.99993
2.99986
2.99957
2.99917
2.99752
2.9952
2.98599
2.9717
2.92271
2.82029
2.56813
1.97577
1.09923
0.602039
0.5445
0.556079
0.562707
0.559441
0.562886
0.584715
0.637352
0.735158
0.899926
3
2.99999
2.99995
2.99989
2.99964
2.9993
2.99792
2.99595
2.98837
2.97596
2.93514
2.84398
2.63253
2.08738
1.2553
0.687228
0.561954
0.577578
0.594173
0.600893
0.611761
0.640676
0.698337
0.790825
0.924803
3
2.99999
2.99996
2.9999
2.9997
2.99942
2.99826
2.99661
2.99028