/*--------------------------------*- C++ -*----------------------------------*\
| =========                 |                                                 |
| \\      /  F ield         | OpenFOAM: The Open Source CFD Toolbox           |
|  \\    /   O peration     | Version:  4.1                                   |
|   \\  /    A nd           | Web:      www.OpenFOAM.org                      |
|    \\/     M anipulation  |                                                 |
\*---------------------------------------------------------------------------*/
FoamFile
{
    version     2.0;
    format      ascii;
    class       volScalarField;
    location    "6.22";
    object      Ma;
}
// * * * * * * * * * * * * * * * * * * * * * * * * * * * * * * * * * * * * * //

dimensions      [0 0 0 0 0 0 0];

internalField   nonuniform List<scalar> 
52500
(
3.00001
2.99997
2.9999
2.99965
2.99929
2.99785
2.99579
2.98781
2.97483
2.93171
2.83559
2.61219
2.04095
1.17478
0.492338
0.299665
0.337011
0.347107
0.316488
0.263487
0.211123
0.168645
0.126991
0.08039
0.0462206
3.00001
2.99997
2.9999
2.99965
2.9993
2.99788
2.99585
2.98798
2.97514
2.93262
2.83751
2.61677
2.0491
1.18636
0.498764
0.299728
0.338034
0.348672
0.31817
0.265852
0.214819
0.17393
0.134605
0.0935577
0.0696854
3.00002
2.99997
2.99991
2.99966
2.99932
2.99794
2.99596
2.98834
2.97577
2.93452
2.84154
2.62631
2.06641
1.21209
0.513313
0.301168
0.341721
0.353934
0.32427
0.274063
0.226365
0.189383
0.155539
0.123739
0.108979
3.00002
2.99997
2.99991
2.99968
2.99935
2.99803
2.99613
2.98887
2.97672
2.93743
2.8477
2.64112
2.09365
1.25267
0.535558
0.303156
0.347373
0.362427
0.334417
0.287517
0.244456
0.212651
0.185125
0.161447
0.151982
3.00002
2.99997
2.99992
2.9997
2.99939
2.99813
2.99633
2.98944
2.97797
2.94065
2.85606
2.65932
2.13841
1.31316
0.569424
0.30984
0.357627
0.375957
0.349741
0.306537
0.268197
0.241682
0.220259
0.202898
0.197095
3.00002
2.99998
2.99993
2.99972
2.99943
2.99824
2.99656
2.99003
2.97947
2.94423
2.86691
2.68158
2.2001
1.39534
0.614954
0.322853
0.373563
0.39549
0.370842
0.331797
0.297952
0.276304
0.260551
0.249177
0.246938
3.00002
2.99998
2.99993
2.99974
2.99947
2.99836
2.9968
2.99054
2.98112
2.9475
2.88138
2.70814
2.27795
1.50155
0.673766
0.34712
0.398092
0.422131
0.398586
0.363084
0.33391
0.317169
0.307109
0.301998
0.30536
3.00002
2.99998
2.99994
2.99976
2.99952
2.99852
2.9971
2.99146
2.98297
2.9524
2.89517
2.7366
2.3608
1.62701
0.742422
0.38604
0.434396
0.456796
0.434123
0.401841
0.376362
0.364493
0.360734
0.364092
0.377811
3.00002
2.99999
2.99995
2.99979
2.99957
2.99867
2.9974
2.99234
2.98477
2.95718
2.90686
2.76293
2.43039
1.73742
0.808756
0.426054
0.467644
0.486769
0.469938
0.444886
0.425061
0.418637
0.422728
0.439579
0.476823
3.00002
2.99999
2.99996
2.99982
2.99963
2.99886
2.99775
2.99345
2.98669
2.96354
2.91632
2.79341
2.48111
1.85373
0.901413
0.488085
0.494225
0.50568
0.502567
0.486601
0.476023
0.477129
0.49492
0.539257
0.641069
3
2.99995
2.99989
2.99963
2.99928
2.99783
2.99577
2.98779
2.9748
2.93167
2.83555
2.61212
2.04087
1.17465
0.492186
0.299471
0.336826
0.346921
0.316282
0.263238
0.210809
0.168246
0.126454
0.0795261
0.0446782
3
2.99995
2.99989
2.99964
2.99929
2.99786
2.99583
2.98796
2.97511
2.93258
2.83747
2.6167
2.04903
1.18623
0.498619
0.29954
0.337855
0.34849
0.317969
0.265609
0.214514
0.173549
0.134105
0.0928265
0.0686873
3
2.99995
2.99989
2.99965
2.99931
2.99792
2.99594
2.98831
2.97575
2.93449
2.8415
2.62624
2.06634
1.21196
0.513173
0.300981
0.341544
0.353757
0.324074
0.273829
0.226079
0.189037
0.155112
0.123195
0.108354
3
2.99995
2.99989
2.99966
2.99933
2.99801
2.99611
2.98885
2.9767
2.93739
2.84767
2.64105
2.09358
1.25254
0.535425
0.302969
0.347198
0.362254
0.334228
0.287296
0.244193
0.212347
0.184771
0.161037
0.151542
3
2.99996
2.9999
2.99968
2.99937
2.99811
2.99631
2.98941
2.97794
2.94061
2.85603
2.65925
2.13835
1.31303
0.569297
0.309653
0.357454
0.375788
0.349559
0.30633
0.26796
0.241417
0.219967
0.202578
0.196762
3
2.99996
2.99991
2.9997
2.99941
2.99822
2.99654
2.99001
2.97945
2.94419
2.86689
2.68152
2.20009
1.39524
0.614858
0.322689
0.373408
0.395338
0.370677
0.331611
0.297743
0.276076
0.260307
0.248921
0.246678
3
2.99996
2.99991
2.99972
2.99945
2.99834
2.99678
2.99051
2.98109
2.94747
2.88136
2.70808
2.27792
1.50145
0.673679
0.346968
0.397951
0.421995
0.398439
0.36292
0.333729
0.316976
0.306907
0.301792
0.305156
3
2.99997
2.99992
2.99975
2.9995
2.9985
2.99708
2.99144
2.98294
2.95237
2.89514
2.73655
2.36075
1.62691
0.742331
0.385891
0.434262
0.45667
0.433991
0.401696
0.376205
0.364329
0.360568
0.363927
0.377651
3
2.99997
2.99993
2.99977
2.99955
2.99865
2.99738
2.99231
2.98474
2.95716
2.90684
2.76288
2.43035
1.73733
0.808679
0.425919
0.467524
0.486655
0.469819
0.444759
0.424927
0.418499
0.422591
0.439447
0.476704
3
2.99998
2.99994
2.99981
2.99961
2.99884
2.99773
2.99342
2.98667
2.96351
2.9163
2.79336
2.48111
1.85365
0.901339
0.487961
0.494119
0.505575
0.502459
0.486488
0.475907
0.477013
0.494809
0.539155
0.640986
3
2.99995
2.99989
2.99963
2.99928
2.99783
2.99577
2.98779
2.9748
2.93167
2.83555
2.61212
2.04087
1.17464
0.492184
0.299472
0.336826
0.34692
0.316281
0.263238
0.210809
0.168246
0.126454
0.0795261
0.0446782
3
2.99995
2.99989
2.99964
2.99929
2.99786
2.99583
2.98796
2.97511
2.93258
2.83747
2.6167
2.04903
1.18623
0.498618
0.299541
0.337855
0.34849
0.317969
0.265609
0.214514
0.173549
0.134105
0.0928265
0.0686874
3
2.99995
2.99989
2.99965
2.99931
2.99792
2.99594
2.98831
2.97575
2.93449
2.8415
2.62624
2.06633
1.21196
0.513171
0.300982
0.341544
0.353757
0.324074
0.273829
0.226079
0.189037
0.155112
0.123195
0.108354
3
2.99995
2.99989
2.99966
2.99933
2.99801
2.99611
2.98885
2.9767
2.93739
2.84767
2.64105
2.09358
1.25254
0.535423
0.30297
0.347199
0.362254
0.334228
0.287296
0.244194
0.212347
0.184772
0.161037
0.151542
3
2.99996
2.9999
2.99968
2.99937
2.99811
2.99631
2.98941
2.97794
2.94061
2.85603
2.65925
2.13834
1.31303
0.569295
0.309653
0.357454
0.375788
0.349559
0.30633
0.26796
0.241417
0.219967
0.202578
0.196763
3
2.99996
2.99991
2.9997
2.99941
2.99822
2.99654
2.99001
2.97945
2.94419
2.86689
2.68152
2.20008
1.39523
0.614855
0.322689
0.373408
0.395337
0.370677
0.33161
0.297743
0.276076
0.260307
0.248921
0.246678
3
2.99996
2.99991
2.99972
2.99945
2.99834
2.99678
2.99051
2.98109
2.94746
2.88136
2.70808
2.27792
1.50145
0.673676
0.346968
0.39795
0.421994
0.398438
0.362919
0.333729
0.316976
0.306907
0.301792
0.305156
3
2.99997
2.99992
2.99975
2.9995
2.9985
2.99708
2.99144
2.98294
2.95237
2.89514
2.73655
2.36075
1.6269
0.742328
0.38589
0.434261
0.456669
0.43399
0.401695
0.376205
0.364329
0.360567
0.363927
0.377651
3
2.99997
2.99993
2.99977
2.99955
2.99865
2.99738
2.99231
2.98474
2.95716
2.90684
2.76288
2.43035
1.73733
0.808678
0.425918
0.467524
0.486654
0.469818
0.444759
0.424926
0.418499
0.422591
0.439447
0.476704
3
2.99998
2.99994
2.99981
2.99961
2.99884
2.99773
2.99342
2.98667
2.96351
2.9163
2.79336
2.4811
1.85364
0.901335
0.48796
0.494119
0.505575
0.502459
0.486487
0.475906
0.477012
0.494808
0.539155
0.640986
3
2.99995
2.99989
2.99963
2.99928
2.99783
2.99577
2.98779
2.9748
2.93167
2.83555
2.61212
2.04087
1.17464
0.492184
0.299472
0.336826
0.34692
0.316281
0.263238
0.210809
0.168246
0.126454
0.0795261
0.0446782
3
2.99995
2.99989
2.99964
2.99929
2.99786
2.99583
2.98796
2.97511
2.93258
2.83747
2.6167
2.04903
1.18623
0.498618
0.299541
0.337855
0.34849
0.317969
0.265609
0.214514
0.173549
0.134105
0.0928265
0.0686874
3
2.99995
2.99989
2.99965
2.99931
2.99792
2.99594
2.98831
2.97575
2.93449
2.8415
2.62624
2.06633
1.21196
0.513171
0.300982
0.341544
0.353757
0.324074
0.273829
0.226079
0.189037
0.155112
0.123195
0.108354
3
2.99995
2.99989
2.99966
2.99933
2.99801
2.99611
2.98885
2.9767
2.93739
2.84767
2.64105
2.09358
1.25254
0.535423
0.30297
0.347199
0.362254
0.334228
0.287296
0.244194
0.212347
0.184772
0.161037
0.151542
3
2.99996
2.9999
2.99968
2.99937
2.99811
2.99631
2.98941
2.97794
2.94061
2.85603
2.65925
2.13834
1.31303
0.569295
0.309653
0.357454
0.375788
0.349559
0.30633
0.26796
0.241417
0.219967
0.202578
0.196763
3
2.99996
2.99991
2.9997
2.99941
2.99822
2.99654
2.99001
2.97945
2.94419
2.86689
2.68152
2.20008
1.39523
0.614855
0.322689
0.373408
0.395337
0.370677
0.33161
0.297743
0.276076
0.260307
0.248921
0.246678
3
2.99996
2.99991
2.99972
2.99945
2.99834
2.99678
2.99051
2.98109
2.94746
2.88136
2.70808
2.27792
1.50145
0.673676
0.346968
0.39795
0.421994
0.398438
0.362919
0.333729
0.316976
0.306907
0.301792
0.305156
3
2.99997
2.99992
2.99975
2.9995
2.9985
2.99708
2.99144
2.98294
2.95237
2.89514
2.73655
2.36075
1.6269
0.742328
0.38589
0.434261
0.456669
0.43399
0.401695
0.376205
0.364329
0.360567
0.363927
0.377651
3
2.99997
2.99993
2.99977
2.99955
2.99865
2.99738
2.99231
2.98474
2.95716
2.90684
2.76288
2.43035
1.73733
0.808678
0.425918
0.467524
0.486654
0.469818
0.444759
0.424926
0.418499
0.422591
0.439447
0.476704
3
2.99998
2.99994
2.99981
2.99961
2.99884
2.99773
2.99342
2.98667
2.96351
2.9163
2.79336
2.4811
1.85364
0.901335
0.48796
0.494119
0.505575
0.502459
0.486487
0.475906
0.477012
0.494808
0.539155
0.640986
3
2.99995
2.99989
2.99963
2.99928
2.99783
2.99577
2.98779
2.9748
2.93167
2.83555
2.61212
2.04087
1.17464
0.492183
0.299472
0.336826
0.34692
0.316281
0.263238
0.210809
0.168246
0.126454
0.0795261
0.0446782
3
2.99995
2.99989
2.99964
2.99929
2.99786
2.99583
2.98796
2.97511
2.93258
2.83747
2.6167
2.04903
1.18623
0.498617
0.299541
0.337855
0.34849
0.317969
0.265609
0.214514
0.173549
0.134105
0.0928265
0.0686874
3
2.99995
2.99989
2.99965
2.99931
2.99792
2.99594
2.98831
2.97575
2.93449
2.8415
2.62624
2.06633
1.21196
0.513171
0.300982
0.341544
0.353757
0.324074
0.273829
0.226079
0.189037
0.155112
0.123195
0.108354
3
2.99995
2.99989
2.99966
2.99933
2.99801
2.99611
2.98885
2.9767
2.93739
2.84767
2.64105
2.09358
1.25254
0.535423
0.30297
0.347199
0.362254
0.334228
0.287296
0.244194
0.212347
0.184772
0.161037
0.151542
3
2.99996
2.9999
2.99968
2.99937
2.99811
2.99631
2.98941
2.97794
2.94061
2.85603
2.65925
2.13834
1.31303
0.569294
0.309653
0.357454
0.375787
0.349559
0.30633
0.26796
0.241417
0.219967
0.202578
0.196763
3
2.99996
2.99991
2.9997
2.99941
2.99822
2.99654
2.99001
2.97945
2.94419
2.86689
2.68152
2.20008
1.39523
0.614854
0.322689
0.373408
0.395337
0.370677
0.33161
0.297743
0.276076
0.260307
0.248921
0.246678
3
2.99996
2.99991
2.99972
2.99945
2.99834
2.99678
2.99051
2.98109
2.94746
2.88136
2.70808
2.27791
1.50145
0.673676
0.346968
0.39795
0.421994
0.398438
0.362919
0.333728
0.316975
0.306907
0.301792
0.305156
3
2.99997
2.99992
2.99975
2.9995
2.9985
2.99708
2.99144
2.98294
2.95237
2.89514
2.73655
2.36075
1.6269
0.742327
0.38589
0.434261
0.456668
0.43399
0.401695
0.376205
0.364329
0.360567
0.363927
0.377651
3
2.99997
2.99993
2.99977
2.99955
2.99865
2.99738
2.99231
2.98474
2.95716
2.90684
2.76288
2.43035
1.73733
0.808677
0.425918
0.467524
0.486654
0.469818
0.444758
0.424926
0.418499
0.422591
0.439447
0.476704
3
2.99998
2.99994
2.99981
2.99961
2.99884
2.99773
2.99342
2.98667
2.96351
2.9163
2.79336
2.4811
1.85364
0.901335
0.48796
0.494119
0.505575
0.502459
0.486487
0.475906
0.477012
0.494808
0.539155
0.640986
3
2.99995
2.99989
2.99963
2.99928
2.99783
2.99577
2.98779
2.9748
2.93167
2.83555
2.61212
2.04087
1.17464
0.492183
0.299472
0.336826
0.34692
0.316281
0.263238
0.210809
0.168246
0.126454
0.0795261
0.0446782
3
2.99995
2.99989
2.99964
2.99929
2.99786
2.99583
2.98796
2.97511
2.93258
2.83747
2.6167
2.04903
1.18623
0.498617
0.299541
0.337855
0.34849
0.317969
0.265609
0.214514
0.173549
0.134105
0.0928265
0.0686874
3
2.99995
2.99989
2.99965
2.99931
2.99792
2.99594
2.98831
2.97575
2.93449
2.8415
2.62624
2.06633
1.21196
0.513171
0.300982
0.341544
0.353757
0.324074
0.273829
0.226079
0.189037
0.155112
0.123195
0.108354
3
2.99995
2.99989
2.99966
2.99933
2.99801
2.99611
2.98885
2.9767
2.93739
2.84767
2.64105
2.09358
1.25254
0.535423
0.30297
0.347199
0.362254
0.334228
0.287296
0.244194
0.212347
0.184772
0.161037
0.151542
3
2.99996
2.9999
2.99968
2.99937
2.99811
2.99631
2.98941
2.97794
2.94061
2.85603
2.65925
2.13834
1.31303
0.569294
0.309653
0.357454
0.375787
0.349559
0.30633
0.26796
0.241417
0.219967
0.202578
0.196763
3
2.99996
2.99991
2.9997
2.99941
2.99822
2.99654
2.99001
2.97945
2.94419
2.86689
2.68152
2.20008
1.39523
0.614854
0.322689
0.373408
0.395337
0.370677
0.33161
0.297743
0.276075
0.260307
0.248921
0.246678
3
2.99996
2.99991
2.99972
2.99945
2.99834
2.99678
2.99051
2.98109
2.94746
2.88136
2.70808
2.27791
1.50145
0.673676
0.346968
0.39795
0.421994
0.398438
0.362919
0.333728
0.316975
0.306907
0.301792
0.305156
3
2.99997
2.99992
2.99975
2.9995
2.9985
2.99708
2.99144
2.98294
2.95237
2.89514
2.73655
2.36075
1.6269
0.742327
0.38589
0.434261
0.456668
0.43399
0.401695
0.376205
0.364329
0.360567
0.363927
0.377651
3
2.99997
2.99993
2.99977
2.99955
2.99865
2.99738
2.99231
2.98474
2.95716
2.90684
2.76288
2.43035
1.73733
0.808677
0.425918
0.467524
0.486654
0.469818
0.444758
0.424926
0.418499
0.42259
0.439447
0.476703
3
2.99998
2.99994
2.99981
2.99961
2.99884
2.99773
2.99342
2.98667
2.96351
2.9163
2.79336
2.4811
1.85364
0.901334
0.48796
0.494119
0.505575
0.502459
0.486487
0.475906
0.477012
0.494808
0.539155
0.640986
3
2.99995
2.99989
2.99963
2.99928
2.99783
2.99577
2.98779
2.9748
2.93167
2.83555
2.61212
2.04087
1.17464
0.492184
0.299472
0.336826
0.34692
0.316281
0.263238
0.210809
0.168246
0.126454
0.0795261
0.0446782
3
2.99995
2.99989
2.99964
2.99929
2.99786
2.99583
2.98796
2.97511
2.93258
2.83747
2.6167
2.04903
1.18623
0.498617
0.299541
0.337855
0.34849
0.317969
0.265609
0.214514
0.173549
0.134105
0.0928265
0.0686874
3
2.99995
2.99989
2.99965
2.99931
2.99792
2.99594
2.98831
2.97575
2.93449
2.8415
2.62624
2.06633
1.21196
0.513171
0.300982
0.341544
0.353757
0.324074
0.273829
0.226079
0.189037
0.155112
0.123195
0.108354
3
2.99995
2.99989
2.99966
2.99933
2.99801
2.99611
2.98885
2.9767
2.93739
2.84767
2.64105
2.09358
1.25254
0.535423
0.30297
0.347199
0.362254
0.334228
0.287296
0.244194
0.212347
0.184772
0.161037
0.151542
3
2.99996
2.9999
2.99968
2.99937
2.99811
2.99631
2.98941
2.97794
2.94061
2.85603
2.65925
2.13834
1.31303
0.569295
0.309653
0.357454
0.375788
0.349559
0.30633
0.26796
0.241417
0.219967
0.202578
0.196763
3
2.99996
2.99991
2.9997
2.99941
2.99822
2.99654
2.99001
2.97945
2.94419
2.86689
2.68152
2.20008
1.39523
0.614855
0.322689
0.373408
0.395337
0.370677
0.33161
0.297743
0.276076
0.260307
0.248921
0.246678
3
2.99996
2.99991
2.99972
2.99945
2.99834
2.99678
2.99051
2.98109
2.94746
2.88136
2.70808
2.27791
1.50145
0.673676
0.346968
0.39795
0.421994
0.398438
0.362919
0.333729
0.316976
0.306907
0.301792
0.305156
3
2.99997
2.99992
2.99975
2.9995
2.9985
2.99708
2.99144
2.98294
2.95237
2.89514
2.73655
2.36075
1.6269
0.742328
0.38589
0.434261
0.456669
0.43399
0.401695
0.376205
0.364329
0.360567
0.363927
0.377651
3
2.99997
2.99993
2.99977
2.99955
2.99865
2.99738
2.99231
2.98474
2.95716
2.90684
2.76288
2.43035
1.73733
0.808677
0.425918
0.467524
0.486654
0.469818
0.444759
0.424926
0.418499
0.422591
0.439447
0.476704
3
2.99998
2.99994
2.99981
2.99961
2.99884
2.99773
2.99342
2.98667
2.96351
2.9163
2.79336
2.4811
1.85364
0.901335
0.48796
0.494119
0.505575
0.502459
0.486487
0.475906
0.477012
0.494808
0.539155
0.640986
3
2.99995
2.99989
2.99963
2.99928
2.99783
2.99577
2.98779
2.9748
2.93167
2.83555
2.61212
2.04087
1.17464
0.492184
0.299472
0.336826
0.34692
0.316281
0.263238
0.210809
0.168246
0.126454
0.0795261
0.0446782
3
2.99995
2.99989
2.99964
2.99929
2.99786
2.99583
2.98796
2.97511
2.93258
2.83747
2.6167
2.04903
1.18623
0.498618
0.299541
0.337855
0.34849
0.317969
0.265609
0.214514
0.173549
0.134105
0.0928265
0.0686874
3
2.99995
2.99989
2.99965
2.99931
2.99792
2.99594
2.98831
2.97575
2.93449
2.8415
2.62624
2.06633
1.21196
0.513171
0.300982
0.341544
0.353757
0.324074
0.273829
0.226079
0.189037
0.155112
0.123195
0.108354
3
2.99995
2.99989
2.99966
2.99933
2.99801
2.99611
2.98885
2.9767
2.93739
2.84767
2.64105
2.09358
1.25254
0.535423
0.30297
0.347199
0.362254
0.334228
0.287296
0.244194
0.212347
0.184772
0.161037
0.151542
3
2.99996
2.9999
2.99968
2.99937
2.99811
2.99631
2.98941
2.97794
2.94061
2.85603
2.65925
2.13834
1.31303
0.569295
0.309653
0.357454
0.375788
0.349559
0.30633
0.26796
0.241417
0.219967
0.202578
0.196763
3
2.99996
2.99991
2.9997
2.99941
2.99822
2.99654
2.99001
2.97945
2.94419
2.86689
2.68152
2.20008
1.39523
0.614855
0.322689
0.373408
0.395337
0.370677
0.33161
0.297743
0.276076
0.260307
0.248921
0.246678
3
2.99996
2.99991
2.99972
2.99945
2.99834
2.99678
2.99051
2.98109
2.94746
2.88136
2.70808
2.27792
1.50145
0.673676
0.346968
0.39795
0.421994
0.398438
0.362919
0.333729
0.316976
0.306907
0.301792
0.305156
3
2.99997
2.99992
2.99975
2.9995
2.9985
2.99708
2.99144
2.98294
2.95237
2.89514
2.73655
2.36075
1.6269
0.742328
0.38589
0.434261
0.456669
0.43399
0.401695
0.376205
0.364329
0.360567
0.363927
0.377651
3
2.99997
2.99993
2.99977
2.99955
2.99865
2.99738
2.99231
2.98474
2.95716
2.90684
2.76288
2.43035
1.73733
0.808678
0.425918
0.467524
0.486654
0.469818
0.444759
0.424926
0.418499
0.422591
0.439447
0.476704
3
2.99998
2.99994
2.99981
2.99961
2.99884
2.99773
2.99342
2.98667
2.96351
2.9163
2.79336
2.4811
1.85364
0.901335
0.48796
0.494119
0.505575
0.502459
0.486487
0.475906
0.477012
0.494808
0.539155
0.640986
3
2.99995
2.99989
2.99963
2.99928
2.99783
2.99577
2.98779
2.9748
2.93167
2.83555
2.61212
2.04087
1.17465
0.492186
0.299471
0.336826
0.346921
0.316282
0.263238
0.210809
0.168246
0.126454
0.0795261
0.0446782
3
2.99995
2.99989
2.99964
2.99929
2.99786
2.99583
2.98796
2.97511
2.93258
2.83747
2.6167
2.04903
1.18623
0.498619
0.29954
0.337855
0.34849
0.317969
0.265609
0.214514
0.173549
0.134105
0.0928265
0.0686873
3
2.99995
2.99989
2.99965
2.99931
2.99792
2.99594
2.98831
2.97575
2.93449
2.8415
2.62624
2.06634
1.21196
0.513173
0.300981
0.341544
0.353757
0.324074
0.273829
0.226079
0.189037
0.155112
0.123195
0.108354
3
2.99995
2.99989
2.99966
2.99933
2.99801
2.99611
2.98885
2.9767
2.93739
2.84767
2.64105
2.09358
1.25255
0.535425
0.302969
0.347198
0.362254
0.334228
0.287296
0.244193
0.212347
0.184771
0.161037
0.151542
3
2.99996
2.9999
2.99968
2.99937
2.99811
2.99631
2.98941
2.97794
2.94061
2.85603
2.65925
2.13835
1.31303
0.569297
0.309653
0.357454
0.375788
0.349559
0.30633
0.26796
0.241417
0.219967
0.202578
0.196762
3
2.99996
2.99991
2.9997
2.99941
2.99822
2.99654
2.99001
2.97945
2.94419
2.86689
2.68152
2.20009
1.39524
0.614858
0.322689
0.373408
0.395338
0.370677
0.331611
0.297743
0.276076
0.260307
0.248921
0.246678
3
2.99996
2.99991
2.99972
2.99945
2.99834
2.99678
2.99051
2.98109
2.94747
2.88136
2.70808
2.27792
1.50145
0.673679
0.346968
0.397951
0.421995
0.398439
0.36292
0.333729
0.316976
0.306907
0.301792
0.305156
3
2.99997
2.99992
2.99975
2.9995
2.9985
2.99708
2.99144
2.98294
2.95237
2.89514
2.73655
2.36075
1.62691
0.742331
0.385891
0.434262
0.45667
0.433991
0.401696
0.376205
0.364329
0.360568
0.363927
0.377651
3
2.99997
2.99993
2.99977
2.99955
2.99865
2.99738
2.99231
2.98474
2.95716
2.90684
2.76288
2.43035
1.73733
0.808679
0.425919
0.467524
0.486655
0.469819
0.444759
0.424927
0.418499
0.422591
0.439447
0.476704
3
2.99998
2.99994
2.99981
2.99961
2.99884
2.99773
2.99342
2.98667
2.96351
2.9163
2.79336
2.48111
1.85365
0.901339
0.487961
0.494119
0.505575
0.502459
0.486488
0.475907
0.477013
0.494809
0.539155
0.640986
3.00001
2.99997
2.9999
2.99965
2.99929
2.99785
2.99579
2.98781
2.97483
2.93171
2.83559
2.61219
2.04095
1.17478
0.492338
0.299665
0.337011
0.347107
0.316488
0.263487
0.211123
0.168645
0.126991
0.0803899
0.0462206
3.00001
2.99997
2.9999
2.99965
2.9993
2.99788
2.99585
2.98798
2.97514
2.93262
2.83751
2.61677
2.0491
1.18636
0.498764
0.299728
0.338034
0.348672
0.31817
0.265852
0.214819
0.17393
0.134605
0.0935577
0.0696854
3.00002
2.99997
2.99991
2.99966
2.99932
2.99794
2.99596
2.98834
2.97577
2.93452
2.84154
2.62631
2.06641
1.21209
0.513313
0.301168
0.341721
0.353934
0.32427
0.274063
0.226365
0.189383
0.155539
0.123739
0.108979
3.00002
2.99997
2.99991
2.99968
2.99935
2.99803
2.99613
2.98887
2.97672
2.93743
2.8477
2.64112
2.09365
1.25267
0.535559
0.303156
0.347373
0.362427
0.334417
0.287517
0.244456
0.212651
0.185125
0.161447
0.151982
3.00002
2.99997
2.99992
2.9997
2.99939
2.99813
2.99633
2.98944
2.97797
2.94065
2.85606
2.65932
2.13842
1.31316
0.569424
0.30984
0.357627
0.375957
0.349741
0.306537
0.268197
0.241682
0.220259
0.202898
0.197095
3.00002
2.99998
2.99993
2.99972
2.99943
2.99824
2.99656
2.99003
2.97947
2.94423
2.86691
2.68158
2.2001
1.39534
0.614955
0.322853
0.373563
0.39549
0.370842
0.331797
0.297952
0.276304
0.260551
0.249176
0.246938
3.00002
2.99998
2.99993
2.99974
2.99947
2.99836
2.9968
2.99054
2.98112
2.9475
2.88138
2.70814
2.27795
1.50155
0.673767
0.34712
0.398092
0.422131
0.398586
0.363084
0.33391
0.317169
0.307109
0.301998
0.30536
3.00002
2.99998
2.99994
2.99976
2.99952
2.99852
2.9971
2.99146
2.98297
2.9524
2.89517
2.73661
2.3608
1.62701
0.742422
0.38604
0.434396
0.456796
0.434124
0.401841
0.376362
0.364493
0.360734
0.364092
0.377811
3.00002
2.99999
2.99995
2.99979
2.99957
2.99867
2.9974
2.99234
2.98477
2.95718
2.90686
2.76293
2.43039
1.73742
0.808756
0.426054
0.467644
0.486769
0.469938
0.444886
0.425061
0.418637
0.422728
0.439579
0.476823
3.00002
2.99999
2.99996
2.99982
2.99963
2.99886
2.99775
2.99345
2.98669
2.96354
2.91632
2.79341
2.48111
1.85373
0.901413
0.488086
0.494225
0.50568
0.502567
0.486601
0.476023
0.477129
0.49492
0.539257
0.641069
3.00002
3
2.99995
2.99988
2.9996
2.99919
2.99759
2.9952
2.98641
2.97116
2.92319
2.81258
2.56175
1.94836
1.06641
0.571292
0.518458
0.529039
0.534955
0.528479
0.52691
0.538809
0.576036
0.658634
0.83022
3.00002
3.00001
2.99996
2.9999
2.99965
2.9993
2.99787
2.99584
2.98791
2.97527
2.93266
2.8398
2.6209
2.06631
1.22168
0.657332
0.538406
0.552591
0.56626
0.569266
0.576106
0.599543
0.652785
0.752639
0.926536
3.00002
3.00001
2.99997
2.99992
2.99971
2.99941
2.99821
2.99649
2.98992
2.97905
2.94365
2.86416
2.67816
2.18886
1.39623
0.752781
0.562535
0.578529
0.598016
0.609025
0.623442
0.655071
0.714981
0.811271
0.956807
3.00002
3.00001
2.99998
2.99994
2.99975
2.9995
2.99847
2.99702
2.99122
2.9825
2.95119
2.89185
2.73124
2.34188
1.61172
0.866449
0.604739
0.615032
0.632065
0.649564
0.66915
0.704536
0.763264
0.847699
0.968609
3.00002
3.00001
2.99999
2.99995
2.99981
2.9996
2.99877
2.99757
2.9929
2.98573
2.96027
2.91365
2.77765
2.48159
1.81031
1.00014
0.66903
0.659286
0.671548
0.689559
0.711374
0.7465
0.803594
0.876762
0.977452
3.00002
3.00001
3
2.99995
2.99988
2.99961
2.99921
2.99767
2.99536
2.98692
2.9724
2.92673
2.82221
2.58685
2.00352
1.16955
0.74816
0.699641
0.711473
0.72791
0.749689
0.782615
0.835015
0.901902
0.986924
3.00002
3.00002
3.00001
2.99997
2.99991
2.99969
2.99938
2.99812
2.99631
2.98943
2.97804
2.94122
2.85843
2.66696
2.16439
1.38019
0.851205
0.729215
0.740783
0.758634
0.784046
0.815766
0.861801
0.922811
0.996585
3.00002
3.00002
3.00001
2.99998
2.99994
2.99976
2.99951
2.9985
2.99706
2.99141
2.98272
2.95218
2.8934
2.73447
2.35744
1.62744
0.984469
0.773629
0.770808
0.786128
0.814211
0.847009
0.887887
0.942079
1.00728
3.00002
3.00002
3.00001
3
2.99994
2.99986
2.99955
2.9991
2.99735
2.99472
2.98516
2.96862
2.91769
2.80201
2.53646
1.94896
1.16147
0.843821
0.81291
0.822467
0.845764
0.878156
0.913712
0.960143
1.01732
3.00003
3.00002
3.00002
3.00001
2.99997
2.99991
2.99967
2.99934
2.99803
2.99607
2.98897
2.97657
2.93836
2.84941
2.64996
2.13043
1.35567
0.926992
0.847344
0.856216
0.876318
0.906345
0.941221
0.980832
1.02935
3.00003
3.00002
3.00002
3.00001
2.99999
2.99992
2.99982
2.99943
2.99884
2.99675
2.993
2.98165
2.95558
2.89214
2.71831
2.37904
1.61147
1.06758
0.893018
0.88766
0.901592
0.928674
0.963945
1.00199
1.04419
3.00003
3.00003
3.00002
3.00001
3
2.99995
2.99987
2.99956
2.99912
2.99738
2.99486
2.9852
2.96973
2.91932
2.81224
2.55277
1.99063
1.24853
0.964385
0.928015
0.934645
0.956656
0.988665
1.02349
1.06184
3.00003
3.00003
3.00002
3.00002
3
2.99998
2.99989
2.99976
2.99925
2.9985
2.99573
2.99118
2.97634
2.94533
2.86513
2.65846
2.24704
1.45688
1.05651
0.962085
0.963919
0.982183
1.01101
1.04358
1.07815
3.00003
3.00003
3.00003
3.00002
3.00001
2.99999
2.99993
2.99983
2.99946
2.99892
2.99682
2.99373
2.98244
2.96273
2.90347
2.76345
2.46643
1.80026
1.21791
1.01778
1.00022
1.0107
1.03449
1.06545
1.0973
3.00003
3.00003
3.00003
3.00002
3.00002
3
2.99997
2.99986
2.9997
2.99908
2.99816
2.99472
2.9893
2.97071
2.93646
2.83766
2.62628
2.11314
1.41128
1.09704
1.03618
1.0395
1.05694
1.08491
1.11586
3.00003
3.00003
3.00003
3.00003
3.00002
3.00001
2.99999
2.99991
2.9998
2.99937
2.99875
2.99635
2.99278
2.97991
2.95728
2.89045
2.73405
2.39904
1.70558
1.23338
1.08563
1.07281
1.08185
1.10364
1.13357
3.00003
3.00003
3.00003
3.00003
3.00002
3.00002
3
2.99996
2.99984
2.99966
2.99898
2.99796
2.99422
2.98822
2.96815
2.93099
2.82366
2.60333
2.05557
1.42041
1.15744
1.11055
1.11229
1.12786
1.15223
3.00003
3.00003
3.00003
3.00003
3.00003
3.00002
3.00001
2.99999
2.9999
2.99978
2.99932
2.99866
2.99609
2.99229
2.97845
2.95479
2.88444
2.72555
2.3716
1.69371
1.27719
1.15318
1.14109
1.14899
1.16834
3.00003
3.00003
3.00003
3.00003
3.00003
3.00002
3.00002
2.99999
2.99996
2.99984
2.99965
2.99896
2.9979
2.99412
2.98792
2.96769
2.92962
2.82104
2.60029
2.04498
1.46523
1.22245
1.1791
1.17635
1.18957
3.00003
3.00003
3.00003
3.00003
3.00003
3.00003
3.00002
3.00001
2.99998
2.99993
2.99974
2.99946
2.99841
2.99682
2.99125
2.98152
2.95229
2.88575
2.73733
2.3451
1.71315
1.32048
1.21742
1.20525
1.21198
3.00003
3.00003
3.00003
3.00003
3.00003
3.00003
3.00002
3.00002
2.99999
2.99996
2.99984
2.99965
2.99895
2.99793
2.99409
2.9882
2.96774
2.93171
2.82486
2.61097
2.07856
1.51046
1.27754
1.23823
1.23645
3.00003
3.00003
3.00003
3.00003
3.00003
3.00003
3.00003
3.00002
3.00001
2.99998
2.99993
2.99975
2.99948
2.99847
2.99696
2.99159
2.98242
2.95431
2.89186
2.74964
2.38311
1.77034
1.37839
1.27218
1.26129
3.00003
3.00003
3.00003
3.00003
3.00003
3.00003
3.00003
3.00002
3.00002
3
2.99997
2.99985
2.99967
2.99901
2.99806
2.99444
2.98899
2.9698
2.93687
2.83746
2.64157
2.14608
1.57606
1.3359
1.2918
3.00003
3.00003
3.00003
3.00003
3.00003
3.00003
3.00003
3.00003
3.00002
3.00001
2.99999
2.99991
2.99981
2.9994
2.99881
2.99655
2.99328
2.98115
2.96146
2.90058
2.7706
2.47503
1.87561
1.46576
1.3324
3.00003
3.00003
3.00003
3.00003
3.00003
3.00003
3.00003
3.00003
3.00002
3.00002
3
2.99996
2.9999
2.99965
2.99929
2.99793
2.99596
2.9886
2.97719
2.93955
2.86488
2.68296
2.2614
1.67117
1.40988
3.00003
3.00003
3.00003
3.00003
3.00003
3.00003
3.00003
3.00003
3.00003
3.00002
3.00001
3
2.99993
2.99984
2.99951
2.999
2.99716
2.99433
2.98459
2.96753
2.91762
2.80663
2.55896
2.03358
1.56528
3.00003
3.00003
3.00003
3.00003
3.00003
3.00003
3.00003
3.00003
3.00003
3.00002
3.00002
3
2.99998
2.99989
2.99976
2.99929
2.99856
2.99598
2.99181
2.97816
2.95323
2.88147
2.73598
2.35677
1.8136
3.00003
3.00003
3.00003
3.00003
3.00003
3.00003
3.00003
3.00003
3.00003
3.00003
3.00002
3.00002
2.99999
2.99996
2.99984
2.99966
2.999
2.998
2.99444
2.98876
2.97014
2.93584
2.84094
2.6433
2.1725
3.00003
3.00003
3.00003
3.00003
3.00003
3.00003
3.00003
3.00003
3.00003
3.00003
3.00003
3.00002
3.00001
2.99999
2.99991
2.99981
2.9994
2.99881
2.99662
2.99329
2.98178
2.96162
2.90386
2.77879
2.48975
3.00003
3.00003
3.00003
3.00003
3.00003
3.00003
3.00003
3.00003
3.00003
3.00003
3.00003
3.00002
3.00002
3
2.99997
2.99986
2.9997
2.99911
2.99821
2.99503
2.9899
2.97311
2.94215
2.85513
2.67507
3.00003
3.00003
3.00003
3.00003
3.00003
3.00003
3.00003
3.00003
3.00003
3.00003
3.00003
3.00003
3.00002
3.00001
2.99998
2.99993
2.99974
2.99947
2.99844
2.99688
2.99117
2.982
2.95169
2.89143
2.73639
3.00003
3.00003
3.00003
3.00003
3.00003
3.00003
3.00003
3.00003
3.00003
3.00003
3.00003
3.00003
3.00002
3.00001
2.99999
2.99993
2.99983
2.99946
2.99892
2.99682
2.99363
2.98225
2.96148
2.90049
2.75228
3.00003
3.00003
3.00003
3.00003
3.00003
3.00003
3.00003
3.00003
3.00003
3.00003
3.00003
3.00003
3.00002
3.00001
3
2.99994
2.99986
2.99952
2.99903
2.99711
2.99417
2.98366
2.9641
2.9063
2.76292
3.00003
3.00003
3.00003
3.00003
3.00003
3.00003
3.00003
3.00003
3.00003
3.00003
3.00003
3.00003
3.00002
3.00002
3
2.99996
2.99983
2.99963
2.99887
2.99769
2.99339
2.98571
2.96138
2.90585
2.77053
3.00003
3.00003
3.00003
3.00003
3.00003
3.00003
3.00003
3.00003
3.00003
3.00003
3.00003
3.00003
3.00002
3.00002
3
2.99995
2.99987
2.99958
2.99912
2.99747
2.99449
2.98532
2.96428
2.91095
2.76719
3.00003
3.00003
3.00003
3.00003
3.00003
3.00003
3.00003
3.00003
3.00003
3.00003
3.00003
3.00003
3.00002
3.00002
3
2.99996
2.99984
2.99965
2.99891
2.99777
2.99366
2.98606
2.96267
2.90745
2.77579
3.00003
3.00003
3.00003
3.00003
3.00003
3.00003
3.00003
3.00003
3.00003
3.00003
3.00003
3.00003
3.00002
3.00002
3
2.99995
2.99987
2.99955
2.9991
2.99728
2.9945
2.98451
2.96582
2.91018
2.77231
3.00003
3.00003
3.00003
3.00003
3.00003
3.00003
3.00003
3.00003
3.00003
3.00003
3.00003
3.00003
3.00002
3.00002
3
2.99995
2.99987
2.99955
2.99909
2.99728
2.99449
2.98452
2.96581
2.91027
2.77254
3.00003
3.00003
3.00003
3.00003
3.00003
3.00003
3.00003
3.00003
3.00003
3.00003
3.00003
3.00003
3.00002
3.00002
3
2.99996
2.99983
2.99964
2.99886
2.99773
2.99331
2.98623
2.96164
2.9108
2.77729
3.00003
3.00003
3.00003
3.00003
3.00003
3.00003
3.00003
3.00003
3.00003
3.00003
3.00003
3.00003
3.00002
3.00002
2.99999
2.99996
2.99982
2.99962
2.9988
2.99765
2.99295
2.98595
2.95999
2.91238
2.7752
3
2.99999
2.99994
2.99986
2.99958
2.99917
2.99757
2.99517
2.98638
2.97113
2.92316
2.81254
2.56169
1.9483
1.06631
0.571178
0.518357
0.528941
0.534858
0.528379
0.526809
0.53871
0.575945
0.658557
0.830168
3
2.99999
2.99994
2.99988
2.99963
2.99928
2.99785
2.99582
2.98789
2.97524
2.93262
2.83978
2.62084
2.06628
1.22159
0.657235
0.53831
0.552498
0.566169
0.569176
0.576017
0.599458
0.652708
0.752576
0.926489
3
2.99999
2.99995
2.9999
2.99969
2.99939
2.99819
2.99647
2.9899
2.97903
2.94362
2.86413
2.67811
2.18881
1.39614
0.752691
0.562438
0.578437
0.59793
0.608942
0.623361
0.654995
0.714914
0.811215
0.956762
3
2.99999
2.99996
2.99992
2.99974
2.99948
2.99845
2.997
2.9912
2.98247
2.95116
2.89183
2.73119
2.34183
1.61163
0.866368
0.604643
0.614942
0.631981
0.649487
0.669077