/*--------------------------------*- C++ -*----------------------------------*\
| =========                 |                                                 |
| \\      /  F ield         | OpenFOAM: The Open Source CFD Toolbox           |
|  \\    /   O peration     | Version:  4.1                                   |
|   \\  /    A nd           | Web:      www.OpenFOAM.org                      |
|    \\/     M anipulation  |                                                 |
\*---------------------------------------------------------------------------*/
FoamFile
{
    version     2.0;
    format      ascii;
    class       volVectorField;
    location    "6.22";
    object      U;
}
// * * * * * * * * * * * * * * * * * * * * * * * * * * * * * * * * * * * * * //

dimensions      [0 1 -1 0 0 0 0];

internalField   nonuniform List<vector> 
52500
(
(3 1.48615e-08 -0.00571426)
(2.99998 8.27478e-08 -0.0057144)
(2.99996 3.07295e-07 -0.00571462)
(2.99989 7.91115e-07 -0.00571531)
(2.99974 2.17213e-06 -0.00571657)
(2.99933 4.98963e-06 -0.00572039)
(2.99852 1.28578e-05 -0.00572785)
(2.996 2.91794e-05 -0.00574816)
(2.9916 7.34183e-05 -0.00579755)
(2.97496 0.000163536 -0.00589744)
(2.94547 0.000449119 -0.00627912)
(2.83455 0.00102425 -0.00681955)
(2.53066 0.00295525 -0.00941342)
(1.8017 0.00758987 -0.0142758)
(0.802885 0.0213615 -0.0177676)
(0.49436 0.0214099 -0.018488)
(0.555565 0.0226441 -0.0185061)
(0.571887 0.0248924 -0.018552)
(0.522561 0.0270759 -0.018735)
(0.435458 0.0291736 -0.0189148)
(0.348946 0.0317726 -0.0191151)
(0.277893 0.0350169 -0.0192839)
(0.207223 0.0385483 -0.0194471)
(0.125623 0.0428162 -0.0196176)
(0.055978 0.0493372 -0.019779)
(3 4.49056e-08 -0.00571426)
(2.99998 2.49525e-07 -0.0057144)
(2.99996 9.2833e-07 -0.00571461)
(2.99989 2.38839e-06 -0.00571529)
(2.99975 6.57526e-06 -0.00571653)
(2.99934 1.51106e-05 -0.0057203)
(2.99854 3.90558e-05 -0.00572766)
(2.99605 8.885e-05 -0.00574765)
(2.99172 0.000223816 -0.0057965)
(2.97527 0.000501121 -0.00589466)
(2.94621 0.00137393 -0.00627221)
(2.83646 0.0031799 -0.00680267)
(2.53667 0.00901059 -0.00937488)
(1.81546 0.0236763 -0.014185)
(0.810543 0.0654238 -0.0176627)
(0.490953 0.0625829 -0.0184158)
(0.554048 0.0636769 -0.0184317)
(0.570938 0.0680302 -0.0184698)
(0.521053 0.0720064 -0.0186452)
(0.433757 0.0756863 -0.0188176)
(0.347349 0.0802353 -0.0190102)
(0.275855 0.0856598 -0.0191678)
(0.204156 0.090897 -0.019323)
(0.121268 0.0963 -0.0194788)
(0.0514977 0.102436 -0.0196216)
(3 7.41304e-08 -0.00571426)
(2.99998 4.10829e-07 -0.00571439)
(2.99996 1.53343e-06 -0.0057146)
(2.99989 3.94449e-06 -0.00571526)
(2.99975 1.09019e-05 -0.00571647)
(2.99935 2.50924e-05 -0.00572013)
(2.99859 6.51414e-05 -0.00572729)
(2.99615 0.000148847 -0.0057466)
(2.99195 0.000375843 -0.00579441)
(2.9759 0.000845717 -0.005889)
(2.94776 0.00233029 -0.00625827)
(2.8404 0.00542614 -0.00676834)
(2.5496 0.0153862 -0.00930098)
(1.84593 0.0408477 -0.0140091)
(0.827887 0.113597 -0.0175101)
(0.485657 0.106547 -0.0183334)
(0.553359 0.107142 -0.0183469)
(0.572136 0.114457 -0.018376)
(0.521951 0.121564 -0.0185437)
(0.435077 0.128872 -0.0187064)
(0.349503 0.137432 -0.0188889)
(0.277999 0.147063 -0.0190391)
(0.205544 0.156493 -0.0191792)
(0.121559 0.165586 -0.0193305)
(0.0503482 0.17358 -0.0194592)
(3 9.57785e-08 -0.00571425)
(2.99998 5.2971e-07 -0.00571439)
(2.99996 1.98015e-06 -0.00571459)
(2.99989 5.07853e-06 -0.00571522)
(2.99976 1.40768e-05 -0.00571637)
(2.99938 3.22524e-05 -0.00571987)
(2.99865 8.48953e-05 -0.00572674)
(2.99631 0.000189447 -0.00574502)
(2.9923 0.000506176 -0.00579131)
(2.97687 0.00109298 -0.00588047)
(2.95012 0.00321341 -0.00623716)
(2.84649 0.00719448 -0.00671638)
(2.56959 0.0231014 -0.00918654)
(1.89316 0.0586748 -0.013745)
(0.854097 0.164405 -0.0173095)
(0.476823 0.151515 -0.0182444)
(0.552675 0.150207 -0.0182557)
(0.575241 0.160139 -0.01827)
(0.525383 0.170388 -0.0184268)
(0.439693 0.181705 -0.0185811)
(0.355487 0.194613 -0.0187443)
(0.284392 0.208964 -0.0188794)
(0.211317 0.223369 -0.0190194)
(0.125748 0.236953 -0.0191566)
(0.0515073 0.24725 -0.0192883)
(3 1.0944e-07 -0.00571425)
(2.99998 6.04338e-07 -0.00571438)
(2.99996 2.26001e-06 -0.00571457)
(2.9999 5.7713e-06 -0.00571517)
(2.99978 1.60389e-05 -0.00571626)
(2.99941 3.64597e-05 -0.00571958)
(2.99872 9.79411e-05 -0.00572608)
(2.9965 0.000209392 -0.00574346)
(2.99271 0.000613824 -0.00578707)
(2.97812 0.00122498 -0.00587181)
(2.95298 0.00406228 -0.00620731)
(2.85561 0.0085344 -0.00666173)
(2.59777 0.0314706 -0.00897597)
(1.95955 0.076455 -0.0133441)
(0.895616 0.216987 -0.0170418)
(0.471197 0.19772 -0.0181328)
(0.556537 0.193269 -0.0181413)
(0.58373 0.205285 -0.0181417)
(0.534024 0.218404 -0.0182859)
(0.44955 0.233825 -0.0184346)
(0.366565 0.251096 -0.0185944)
(0.295816 0.270355 -0.0187076)
(0.221897 0.290312 -0.0188147)
(0.133691 0.309258 -0.0189514)
(0.0548049 0.322677 -0.0190694)
(3 1.18874e-07 -0.00571425)
(2.99999 6.56747e-07 -0.00571437)
(2.99997 2.44789e-06 -0.00571455)
(2.99991 6.22851e-06 -0.00571511)
(2.99979 1.7252e-05 -0.00571614)
(2.99945 3.88637e-05 -0.00571926)
(2.99879 0.000106047 -0.00572532)
(2.99674 0.000213359 -0.00574192)
(2.99315 0.000706351 -0.00578174)
(2.97969 0.00117889 -0.00586313)
(2.95637 0.00503767 -0.00616724)
(2.86742 0.00958205 -0.00660038)
(2.63365 0.0383832 -0.00868412)
(2.04505 0.0918306 -0.012811)
(0.953654 0.266594 -0.0166975)
(0.472 0.245331 -0.0179984)
(0.56709 0.237554 -0.0180111)
(0.599596 0.250654 -0.0179815)
(0.549955 0.266062 -0.018128)
(0.466721 0.285773 -0.0182355)
(0.384522 0.308009 -0.018393)
(0.313742 0.333119 -0.018516)
(0.238568 0.359919 -0.0186126)
(0.146617 0.386273 -0.0187171)
(0.0606987 0.405091 -0.0188429)
(3 1.39371e-07 -0.00571425)
(2.99999 7.70485e-07 -0.00571436)
(2.99997 2.87156e-06 -0.00571453)
(2.99991 7.33919e-06 -0.00571505)
(2.9998 2.02985e-05 -0.00571601)
(2.99949 4.6086e-05 -0.00571895)
(2.99886 0.000123729 -0.00572451)
(2.997 0.000258863 -0.00574085)
(2.99351 0.000801359 -0.00577531)
(2.98167 0.00138608 -0.00585802)
(2.96016 0.00568565 -0.00611043)
(2.8812 0.0106163 -0.00653158)
(2.67612 0.0420391 -0.00832307)
(2.14823 0.101417 -0.0121453)
(1.03323 0.30546 -0.0162701)
(0.489399 0.294276 -0.0178216)
(0.58796 0.286894 -0.0178389)
(0.624698 0.298843 -0.0178028)
(0.575155 0.314816 -0.0179547)
(0.493378 0.338145 -0.0180598)
(0.411781 0.365724 -0.0181582)
(0.340765 0.397768 -0.0182529)
(0.264094 0.43344 -0.0183363)
(0.167387 0.470595 -0.0184309)
(0.0712927 0.499779 -0.0185207)
(3 1.5901e-07 -0.00571425)
(2.99999 8.78527e-07 -0.00571435)
(2.99997 3.27465e-06 -0.0057145)
(2.99992 8.3998e-06 -0.00571497)
(2.99982 2.3205e-05 -0.00571584)
(2.99954 5.31158e-05 -0.0057185)
(2.99897 0.000139465 -0.00572352)
(2.9973 0.000309315 -0.00573825)
(2.99409 0.00083866 -0.00576894)
(2.98371 0.00173188 -0.00584566)
(2.96424 0.00550004 -0.00605979)
(2.89564 0.0110507 -0.00645536)
(2.71988 0.0396446 -0.00796487)
(2.26204 0.0968567 -0.0114101)
(1.13812 0.296774 -0.0157687)
(0.538228 0.333353 -0.0175556)
(0.624823 0.33974 -0.0175535)
(0.660043 0.349128 -0.01754)
(0.610938 0.36484 -0.017693)
(0.531594 0.391795 -0.017828)
(0.450522 0.425327 -0.0179307)
(0.379285 0.465401 -0.0179855)
(0.301826 0.51207 -0.0180337)
(0.200843 0.565252 -0.0180746)
(0.0902528 0.615579 -0.0181407)
(3 1.75828e-07 -0.00571425)
(2.99999 9.64709e-07 -0.00571434)
(2.99997 3.58639e-06 -0.00571447)
(2.99993 9.19124e-06 -0.0057149)
(2.99984 2.53017e-05 -0.00571567)
(2.99958 5.79324e-05 -0.00571805)
(2.99908 0.000150747 -0.00572255)
(2.99758 0.000339326 -0.00573579)
(2.9947 0.000860577 -0.00576305)
(2.98551 0.00201013 -0.00583268)
(2.96807 0.00503335 -0.00601935)
(2.90796 0.0117669 -0.00638166)
(2.75572 0.034213 -0.00768507)
(2.3508 0.084846 -0.0107798)
(1.24672 0.252689 -0.0154846)
(0.590346 0.371284 -0.01737)
(0.651022 0.400594 -0.0173585)
(0.685653 0.399414 -0.0173249)
(0.646139 0.415305 -0.0174577)
(0.575654 0.445279 -0.0175206)
(0.499077 0.486186 -0.0176124)
(0.43018 0.535138 -0.0176441)
(0.355635 0.595016 -0.017643)
(0.256279 0.672942 -0.0176079)
(0.126567 0.767542 -0.0175029)
(3 3.0115e-07 -0.00571425)
(2.99999 5.33242e-07 -0.00571432)
(2.99998 4.3826e-06 -0.00571444)
(2.99994 6.43361e-06 -0.0057148)
(2.99986 2.96773e-05 -0.00571548)
(2.99964 4.1533e-05 -0.00571751)
(2.9992 0.000177392 -0.00572143)
(2.99789 0.000233584 -0.00573253)
(2.99549 0.00107483 -0.00575721)
(2.98716 0.00112213 -0.00581267)
(2.9725 0.00709614 -0.00599216)
(2.91872 0.00515287 -0.00628093)
(2.78547 0.0454103 -0.00751119)
(2.42446 0.0622467 -0.0100763)
(1.38234 0.244343 -0.0151067)
(0.670486 0.427603 -0.0170988)
(0.663834 0.454593 -0.0171108)
(0.691472 0.447179 -0.0171741)
(0.674437 0.464814 -0.0172332)
(0.619975 0.496419 -0.0172988)
(0.554197 0.544832 -0.0173024)
(0.492746 0.603122 -0.017277)
(0.430874 0.681731 -0.0171809)
(0.350406 0.802068 -0.0169767)
(0.196533 1.01203 -0.016565)
(2.99999 1.52457e-08 -2.57076e-09)
(2.99998 8.28632e-08 -8.65233e-09)
(2.99996 3.08151e-07 -1.00887e-08)
(2.99988 7.90503e-07 -1.59942e-08)
(2.99974 2.174e-06 -1.61514e-08)
(2.99933 4.98952e-06 -2.16038e-08)
(2.99852 1.28588e-05 -2.1927e-08)
(2.996 2.91759e-05 -2.98212e-08)
(2.9916 7.34208e-05 -3.15943e-08)
(2.97495 0.000163516 -5.71989e-08)
(2.94546 0.000449178 -7.20307e-08)
(2.83453 0.00102413 -1.5882e-07)
(2.53062 0.00295675 -2.03983e-07)
(1.8016 0.00759112 -6.0537e-07)
(0.802845 0.0213644 -6.30536e-07)
(0.494391 0.021412 6.53804e-08)
(0.555576 0.022645 -8.19249e-09)
(0.571889 0.0248927 -7.00544e-08)
(0.522563 0.0270758 -7.40138e-08)
(0.435461 0.0291735 -7.502e-08)
(0.34895 0.0317727 -7.19744e-08)
(0.277897 0.0350171 -7.35097e-08)
(0.207226 0.0385486 -7.55229e-08)
(0.125625 0.0428169 -7.71588e-08)
(0.0559796 0.0493384 -7.8877e-08)
(2.99999 4.60118e-08 -2.56309e-09)
(2.99998 2.49957e-07 -8.65677e-09)
(2.99996 9.30876e-07 -1.00758e-08)
(2.99989 2.38682e-06 -1.60216e-08)
(2.99974 6.58119e-06 -1.61094e-08)
(2.99933 1.51116e-05 -2.16355e-08)
(2.99854 3.90619e-05 -2.19119e-08)
(2.99605 8.88513e-05 -2.99102e-08)
(2.99171 0.000223833 -3.14883e-08)
(2.97526 0.000501137 -5.76554e-08)
(2.9462 0.00137407 -7.05963e-08)
(2.83644 0.0031801 -1.62359e-07)
(2.53662 0.00901255 -1.80134e-07)
(1.81536 0.0236791 -6.08801e-07)
(0.81051 0.0654286 -6.21025e-07)
(0.49099 0.0625861 6.26832e-08)
(0.554064 0.0636781 -1.31277e-08)
(0.570943 0.0680303 -7.21744e-08)
(0.521057 0.072006 -7.51115e-08)
(0.433761 0.0756861 -7.51666e-08)
(0.347353 0.0802355 -7.20502e-08)
(0.275859 0.0856604 -7.34997e-08)
(0.204159 0.090898 -7.53719e-08)
(0.121271 0.0963015 -7.69878e-08)
(0.0514992 0.102438 -7.88793e-08)
(3 7.59101e-08 -2.54864e-09)
(2.99998 4.11819e-07 -8.66326e-09)
(2.99996 1.53734e-06 -1.00513e-08)
(2.99989 3.94138e-06 -1.60714e-08)
(2.99975 1.09116e-05 -1.60221e-08)
(2.99935 2.50931e-05 -2.16789e-08)
(2.99858 6.51505e-05 -2.18447e-08)
(2.99615 0.000148848 -2.99054e-08)
(2.99195 0.000375864 -3.12983e-08)
(2.9759 0.000845763 -5.72181e-08)
(2.94775 0.00233043 -6.97579e-08)
(2.84039 0.00542675 -1.58261e-07)
(2.54956 0.0153873 -1.77656e-07)
(1.84584 0.0408516 -5.96213e-07)
(0.827854 0.113603 -6.21793e-07)
(0.485691 0.106551 6.06343e-08)
(0.553372 0.107144 -1.75134e-08)
(0.57214 0.114459 -7.47531e-08)
(0.521955 0.121565 -7.66092e-08)
(0.435081 0.128872 -7.52441e-08)
(0.349508 0.137433 -7.2044e-08)
(0.278004 0.147065 -7.36236e-08)
(0.205547 0.156494 -7.55355e-08)
(0.121561 0.165589 -7.70898e-08)
(0.0503495 0.173583 -7.91124e-08)
(3 9.78465e-08 -2.52748e-09)
(2.99998 5.31394e-07 -8.66839e-09)
(2.99996 1.98271e-06 -1.00237e-08)
(2.99989 5.07988e-06 -1.61553e-08)
(2.99976 1.4082e-05 -1.58883e-08)
(2.99938 3.22568e-05 -2.1774e-08)
(2.99865 8.49051e-05 -2.1777e-08)
(2.99631 0.000189475 -3.0026e-08)
(2.9923 0.000506215 -3.11414e-08)
(2.97686 0.00109316 -5.71356e-08)
(2.95011 0.00321378 -6.90795e-08)
(2.84648 0.00719558 -1.5396e-07)
(2.56955 0.0231033 -1.73699e-07)
(1.89307 0.0586807 -5.78655e-07)
(0.854063 0.164412 -6.25824e-07)
(0.476853 0.151519 6.13877e-08)
(0.552685 0.15021 -1.91084e-08)
(0.575242 0.16014 -7.73368e-08)
(0.525384 0.170388 -7.89499e-08)
(0.439696 0.181706 -7.65978e-08)
(0.355491 0.194614 -7.23383e-08)
(0.284396 0.208966 -7.3478e-08)
(0.21132 0.223371 -7.56734e-08)
(0.12575 0.236956 -7.72499e-08)
(0.0515085 0.247255 -7.91026e-08)
(3 1.11337e-07 -2.50721e-09)
(2.99998 6.06219e-07 -8.66584e-09)
(2.99996 2.25748e-06 -1.00374e-08)
(2.9999 5.7783e-06 -1.60961e-08)
(2.99977 1.60182e-05 -1.59534e-08)
(2.99941 3.64349e-05 -2.16813e-08)
(2.99871 9.7864e-05 -2.17405e-08)
(2.9965 0.000209119 -2.95381e-08)
(2.9927 0.000613689 -3.10513e-08)
(2.97812 0.00122294 -5.43481e-08)
(2.95297 0.00406459 -6.62093e-08)
(2.8556 0.00853195 -1.44931e-07)
(2.59773 0.0314791 -1.67584e-07)
(1.95946 0.0764686 -5.52498e-07)
(0.895575 0.217005 -6.46765e-07)
(0.471215 0.197728 5.42988e-08)
(0.556539 0.19327 -2.45466e-08)
(0.583726 0.205285 -7.91281e-08)
(0.534022 0.218403 -8.02926e-08)
(0.449549 0.233825 -7.69826e-08)
(0.366566 0.251096 -7.27659e-08)
(0.295818 0.270356 -7.36059e-08)
(0.2219 0.290314 -7.51375e-08)
(0.133693 0.309262 -7.63646e-08)
(0.0548059 0.322683 -7.82941e-08)
(3 1.20428e-07 -2.48934e-09)
(2.99999 6.60505e-07 -8.6638e-09)
(2.99996 2.44735e-06 -1.01106e-08)
(2.99991 6.24119e-06 -1.59778e-08)
(2.99979 1.7253e-05 -1.63842e-08)
(2.99945 3.88888e-05 -2.19247e-08)
(2.99879 0.000106077 -2.27641e-08)
(2.99673 0.000213452 -3.38988e-08)
(2.99314 0.000706553 -2.88675e-08)
(2.97969 0.00117827 -9.31955e-08)
(2.95636 0.00504015 5.46634e-09)
(2.8674 0.00958239 -2.29014e-07)
(2.63363 0.03839 -2.94822e-08)
(2.04498 0.0918445 -5.00575e-07)
(0.953645 0.266617 -6.14167e-07)
(0.472039 0.245343 2.28061e-08)
(0.567106 0.237557 -5.09869e-08)
(0.599602 0.250654 -8.85349e-08)
(0.54996 0.266061 -8.599e-08)
(0.466725 0.285773 -7.80639e-08)
(0.384526 0.308009 -7.49719e-08)
(0.313744 0.33312 -7.5088e-08)
(0.23857 0.359922 -7.64602e-08)
(0.146619 0.386278 -7.73355e-08)
(0.0606997 0.405098 -7.86152e-08)
(3 1.4168e-07 -2.47614e-09)
(2.99999 7.74414e-07 -8.61806e-09)
(2.99997 2.87656e-06 -1.01157e-08)
(2.99991 7.35233e-06 -1.58501e-08)
(2.9998 2.03295e-05 -1.614e-08)
(2.99949 4.61609e-05 -2.12588e-08)
(2.99886 0.000123896 -2.15785e-08)
(2.997 0.000259392 -2.83806e-08)
(2.99351 0.000801864 -2.87889e-08)
(2.98167 0.0013893 -7.02296e-08)
(2.96015 0.00568568 -1.13715e-08)
(2.88119 0.0106228 -1.76313e-07)
(2.6761 0.0420377 -6.1693e-08)
(2.14818 0.101423 -4.40967e-07)
(1.03322 0.305475 -5.84834e-07)
(0.489436 0.294282 6.30899e-09)
(0.587981 0.286896 -6.25446e-08)
(0.624712 0.298845 -9.09626e-08)
(0.575167 0.314818 -8.73764e-08)
(0.493388 0.338147 -7.86453e-08)
(0.411788 0.365724 -7.68089e-08)
(0.34077 0.397769 -7.65056e-08)
(0.264098 0.433443 -7.73108e-08)
(0.167389 0.4706 -7.72924e-08)
(0.0712937 0.499787 -7.8393e-08)
(3 1.61894e-07 -2.44327e-09)
(2.99999 8.80471e-07 -8.62557e-09)
(2.99997 3.27806e-06 -1.00881e-08)
(2.99992 8.4047e-06 -1.58227e-08)
(2.99982 2.32166e-05 -1.60243e-08)
(2.99953 5.31403e-05 -2.10488e-08)
(2.99897 0.000139532 -2.09288e-08)
(2.9973 0.000309483 -2.67777e-08)
(2.99409 0.000838882 -2.87102e-08)
(2.98371 0.00173371 -4.18867e-08)
(2.96424 0.00550005 -4.55862e-08)
(2.89563 0.0110545 -1.21993e-07)
(2.71986 0.0396461 -1.15381e-07)
(2.26198 0.0968671 -4.015e-07)
(1.13809 0.296807 -6.09976e-07)
(0.538233 0.333359 -3.91483e-08)
(0.62483 0.339741 -7.24008e-08)
(0.660052 0.34913 -8.31597e-08)
(0.610949 0.364843 -8.19982e-08)
(0.531605 0.391798 -7.67049e-08)
(0.450532 0.42533 -7.67258e-08)
(0.379292 0.465404 -7.75043e-08)
(0.301831 0.512074 -7.77602e-08)
(0.200846 0.565258 -7.7747e-08)
(0.0902542 0.615588 -7.83494e-08)
(3 1.75449e-07 -2.4184e-09)
(2.99999 9.65588e-07 -8.62822e-09)
(2.99997 3.57855e-06 -1.00936e-08)
(2.99993 9.17672e-06 -1.582e-08)
(2.99984 2.52717e-05 -1.60069e-08)
(2.99958 5.78766e-05 -2.09963e-08)
(2.99907 0.000150648 -2.07445e-08)
(2.99758 0.000339043 -2.63366e-08)
(2.9947 0.000860422 -2.76103e-08)
(2.98551 0.00200832 -3.93473e-08)
(2.96806 0.00503419 -3.98615e-08)
(2.90795 0.0117648 -1.12187e-07)
(2.75571 0.0342185 -7.63213e-08)
(2.35076 0.0848567 -2.98953e-07)
(1.24669 0.252731 -3.58196e-07)
(0.590349 0.371285 -1.67665e-07)
(0.651035 0.400594 -1.03977e-07)
(0.685667 0.399416 -8.25587e-08)
(0.646153 0.415308 -7.98438e-08)
(0.575666 0.445282 -7.39395e-08)
(0.499088 0.48619 -7.50446e-08)
(0.430189 0.535142 -7.58178e-08)
(0.355642 0.595021 -7.61462e-08)
(0.256284 0.67295 -7.64703e-08)
(0.126568 0.767552 -7.77985e-08)
(3 2.8671e-07 -2.45098e-09)
(2.99999 5.86842e-07 -8.60019e-09)
(2.99998 4.27281e-06 -1.02503e-08)
(2.99994 6.46789e-06 -1.59671e-08)
(2.99986 2.95467e-05 -1.63283e-08)
(2.99964 4.15656e-05 -2.15666e-08)
(2.9992 0.000177262 -2.17797e-08)
(2.99789 0.000233641 -3.04508e-08)
(2.99548 0.00107469 -2.61654e-08)
(2.98716 0.0011225 -7.53761e-08)
(2.97249 0.00709562 3.36807e-09)
(2.91871 0.00515507 -1.37324e-07)
(2.78546 0.0454073 2.66865e-08)
(2.42443 0.0622549 -3.04907e-07)
(1.38232 0.244351 -2.99205e-07)
(0.670481 0.427595 -3.16599e-07)
(0.663855 0.454592 -9.22842e-08)
(0.691491 0.447183 -7.76384e-08)
(0.674454 0.464819 -7.58228e-08)
(0.61999 0.496424 -7.40482e-08)
(0.55421 0.544837 -7.42412e-08)
(0.492756 0.603127 -7.47843e-08)
(0.430883 0.681736 -7.51878e-08)
(0.350412 0.802076 -7.43894e-08)
(0.196536 1.01204 -7.65979e-08)
(2.99999 1.52456e-08 -3.86702e-13)
(2.99998 8.28627e-08 -2.05867e-12)
(2.99996 3.08149e-07 -4.51349e-12)
(2.99988 7.90497e-07 -9.56314e-12)
(2.99974 2.17398e-06 -1.76074e-11)
(2.99933 4.98947e-06 -3.33199e-11)
(2.99852 1.28587e-05 -6.97008e-11)
(2.996 2.91756e-05 -1.3425e-10)
(2.9916 7.34205e-05 -3.31642e-10)
(2.97495 0.000163514 -6.38087e-10)
(2.94546 0.000449179 -1.93114e-09)
(2.83453 0.00102412 -3.78462e-09)
(2.53061 0.00295683 -1.07658e-08)
(1.8016 0.00759114 -2.55861e-08)
(0.802842 0.0213645 -3.45271e-08)
(0.494392 0.0214121 2.25975e-09)
(0.555576 0.0226449 -8.98523e-10)
(0.571888 0.0248926 -3.50144e-09)
(0.522562 0.0270757 -3.57002e-09)
(0.435461 0.0291735 -3.47441e-09)
(0.34895 0.0317726 -3.52223e-09)
(0.277897 0.0350171 -3.71365e-09)
(0.207226 0.0385486 -3.89918e-09)
(0.125625 0.0428169 -3.99044e-09)
(0.0559797 0.0493384 -4.12046e-09)
(2.99999 4.60117e-08 -3.88834e-13)
(2.99998 2.49957e-07 -2.06641e-12)
(2.99996 9.30875e-07 -4.54562e-12)
(2.99989 2.38682e-06 -9.63429e-12)
(2.99974 6.58118e-06 -1.78355e-11)
(2.99933 1.51116e-05 -3.38551e-11)
(2.99854 3.90619e-05 -7.08517e-11)
(2.99605 8.8851e-05 -1.3927e-10)
(2.99171 0.000223833 -3.31085e-10)
(2.97526 0.000501136 -6.73259e-10)
(2.9462 0.00137407 -1.87423e-09)
(2.83644 0.00318008 -4.07673e-09)
(2.53662 0.00901261 -9.51452e-09)
(1.81536 0.0236791 -2.62169e-08)
(0.810508 0.0654285 -3.43718e-08)
(0.490992 0.0625861 2.22944e-09)
(0.554065 0.063678 -1.10291e-09)
(0.570943 0.0680302 -3.55355e-09)
(0.521057 0.0720059 -3.57138e-09)
(0.433761 0.0756861 -3.44094e-09)
(0.347353 0.0802355 -3.50922e-09)
(0.275859 0.0856604 -3.69654e-09)
(0.204159 0.090898 -3.88469e-09)
(0.121271 0.0963015 -3.98587e-09)
(0.0514992 0.102438 -4.13205e-09)
(3 7.59102e-08 -3.88025e-13)
(2.99998 4.1182e-07 -2.06085e-12)
(2.99996 1.53734e-06 -4.53235e-12)
(2.99989 3.94139e-06 -9.6087e-12)
(2.99975 1.09116e-05 -1.77652e-11)
(2.99935 2.50931e-05 -3.36988e-11)
(2.99858 6.51505e-05 -7.05751e-11)
(2.99615 0.000148848 -1.3798e-10)
(2.99195 0.000375864 -3.3165e-10)
(2.9759 0.000845763 -6.64811e-10)
(2.94775 0.00233042 -1.88372e-09)
(2.84039 0.00542675 -4.02399e-09)
(2.54956 0.0153873 -9.72809e-09)
(1.84583 0.0408515 -2.64748e-08)
(0.827852 0.113602 -3.53764e-08)
(0.485693 0.106551 2.44721e-09)
(0.553373 0.107144 -1.16353e-09)
(0.57214 0.114458 -3.53561e-09)
(0.521955 0.121565 -3.51828e-09)
(0.435081 0.128872 -3.36892e-09)
(0.349508 0.137433 -3.46868e-09)
(0.278004 0.147065 -3.66201e-09)
(0.205547 0.156495 -3.85995e-09)
(0.121561 0.165589 -3.97189e-09)
(0.0503496 0.173583 -4.13406e-09)
(3 9.78473e-08 -3.86143e-13)
(2.99998 5.31398e-07 -2.0482e-12)
(2.99996 1.98272e-06 -4.50515e-12)
(2.99989 5.07992e-06 -9.55482e-12)
(2.99976 1.40821e-05 -1.76678e-11)
(2.99938 3.22571e-05 -3.35434e-11)
(2.99865 8.49057e-05 -7.04167e-11)
(2.99631 0.000189477 -1.38542e-10)
(2.9923 0.000506217 -3.3234e-10)
(2.97686 0.00109317 -6.7147e-10)
(2.95011 0.00321379 -1.92176e-09)
(2.84648 0.00719561 -4.07428e-09)
(2.56955 0.0231031 -1.00679e-08)
(1.89307 0.0586805 -2.72081e-08)
(0.854061 0.164411 -3.74189e-08)
(0.476855 0.151518 3.0584e-09)
(0.552686 0.150209 -8.9783e-10)
(0.575242 0.16014 -3.43819e-09)
(0.525384 0.170388 -3.42767e-09)
(0.439696 0.181706 -3.29347e-09)
(0.355491 0.194614 -3.38217e-09)
(0.284396 0.208966 -3.55921e-09)
(0.21132 0.223371 -3.79282e-09)
(0.12575 0.236956 -3.92549e-09)
(0.0515086 0.247255 -4.09327e-09)
(3 1.11339e-07 -3.71789e-13)
(2.99998 6.06227e-07 -1.98678e-12)
(2.99996 2.25751e-06 -4.29694e-12)
(2.9999 5.77839e-06 -9.09618e-12)
(2.99977 1.60184e-05 -1.63614e-11)
(2.99941 3.64355e-05 -3.05516e-11)
(2.99871 9.78654e-05 -6.44178e-11)
(2.9965 0.000209123 -1.14556e-10)
(2.9927 0.000613692 -3.3308e-10)
(2.97812 0.00122296 -5.39382e-10)
(2.95297 0.00406458 -1.99422e-09)
(2.8556 0.00853202 -3.39795e-09)
(2.59773 0.0314789 -1.30265e-08)
(1.95946 0.0764684 -2.76402e-08)
(0.895572 0.217005 -4.13912e-08)
(0.471216 0.197728 4.25759e-09)
(0.556539 0.19327 -1.68501e-10)
(0.583726 0.205285 -3.23213e-09)
(0.534022 0.218403 -3.28649e-09)
(0.449549 0.233825 -3.21058e-09)
(0.366566 0.251096 -3.24089e-09)
(0.295819 0.270356 -3.39302e-09)
(0.2219 0.290315 -3.62209e-09)
(0.133693 0.309262 -3.7691e-09)
(0.054806 0.322683 -3.95679e-09)
(3 1.20428e-07 -3.50814e-13)
(2.99999 6.60506e-07 -1.91729e-12)
(2.99996 2.44735e-06 -4.03394e-12)
(2.99991 6.2412e-06 -8.3053e-12)
(2.99979 1.7253e-05 -1.46319e-11)
(2.99945 3.88888e-05 -2.57668e-11)
(2.99879 0.000106078 -5.51255e-11)
(2.99673 0.000213452 -6.99551e-11)
(2.99314 0.000706553 -3.52522e-10)
(2.97969 0.00117828 -1.77492e-10)
(2.95636 0.00504014 -2.65096e-09)
(2.8674 0.00958241 -2.6543e-09)
(2.63363 0.03839 -1.45636e-08)
(2.04497 0.0918444 -2.88784e-08)
(0.953641 0.266616 -4.66949e-08)
(0.47204 0.245343 5.1056e-09)
(0.567106 0.237557 5.55694e-10)
(0.599602 0.250654 -3.06818e-09)
(0.54996 0.266061 -3.20696e-09)
(0.466725 0.285773 -3.18686e-09)
(0.384526 0.308009 -3.07888e-09)
(0.313744 0.33312 -3.19349e-09)
(0.23857 0.359922 -3.44728e-09)
(0.146619 0.386278 -3.62952e-09)
(0.0606997 0.405099 -3.77927e-09)
(3 1.41679e-07 -3.66293e-13)
(2.99999 7.7441e-07 -1.97432e-12)
(2.99997 2.87655e-06 -4.26221e-12)
(2.99991 7.35229e-06 -8.85574e-12)
(2.9998 2.03294e-05 -1.61872e-11)
(2.99949 4.61605e-05 -2.98753e-11)
(2.99886 0.000123895 -6.16651e-11)
(2.997 0.000259389 -1.12741e-10)
(2.99351 0.000801863 -3.35738e-10)
(2.98167 0.00138927 -3.46631e-10)
(2.96015 0.0056857 -2.43811e-09)
(2.88119 0.0106228 -2.95994e-09)
(2.6761 0.0420379 -1.39373e-08)
(2.14817 0.101424 -2.88927e-08)
(1.03321 0.305475 -5.11276e-08)
(0.489436 0.294281 4.77548e-09)
(0.58798 0.286895 7.75581e-10)
(0.624711 0.298844 -2.9424e-09)
(0.575167 0.314817 -3.20131e-09)
(0.493387 0.338147 -3.30138e-09)
(0.411788 0.365724 -2.98236e-09)
(0.34077 0.397769 -3.03054e-09)
(0.264098 0.433443 -3.25725e-09)
(0.167389 0.470601 -3.41743e-09)
(0.0712937 0.499787 -3.54138e-09)
(3 1.61895e-07 -3.68077e-13)
(2.99999 8.80473e-07 -1.97896e-12)
(2.99997 3.27806e-06 -4.29116e-12)
(2.99992 8.40472e-06 -8.90652e-12)
(2.99982 2.32167e-05 -1.64078e-11)
(2.99953 5.31404e-05 -3.02775e-11)
(2.99897 0.000139532 -6.29271e-11)
(2.9973 0.000309484 -1.17794e-10)
(2.99409 0.000838886 -3.08324e-10)
(2.98371 0.00173371 -5.51872e-10)
(2.96424 0.0055001 -1.97796e-09)
(2.89563 0.0110546 -2.97301e-09)
(2.71986 0.0396466 -1.26159e-08)
(2.26197 0.0968682 -2.73443e-08)
(1.13809 0.296811 -5.51919e-08)
(0.538231 0.333359 1.22427e-09)
(0.624829 0.33974 -2.44138e-10)
(0.66005 0.349129 -3.01727e-09)
(0.610948 0.364843 -3.3294e-09)
(0.531604 0.391798 -3.47761e-09)
(0.450531 0.42533 -3.05565e-09)
(0.379291 0.465404 -3.0454e-09)
(0.301831 0.512074 -3.19214e-09)
(0.200846 0.565258 -3.29699e-09)
(0.0902541 0.615588 -3.37093e-09)
(3 1.75448e-07 -3.61376e-13)
(2.99999 9.65584e-07 -1.94921e-12)
(2.99997 3.57853e-06 -4.18817e-12)
(2.99993 9.17667e-06 -8.6809e-12)
(2.99984 2.52716e-05 -1.56506e-11)
(2.99958 5.78763e-05 -2.86896e-11)
(2.99907 0.000150647 -5.73925e-11)
(2.99758 0.00033904 -1.074e-10)
(2.9947 0.000860424 -2.60318e-10)
(2.98551 0.0020083 -5.06886e-10)
(2.96806 0.00503424 -1.33071e-09)
(2.90795 0.0117648 -3.0646e-09)
(2.7557 0.034219 -7.46567e-09)
(2.35076 0.0848578 -1.74121e-08)
(1.24669 0.252736 -2.95829e-08)
(0.590349 0.371285 -1.07384e-08)
(0.651034 0.400593 -4.70532e-09)
(0.685666 0.399415 -4.06224e-09)
(0.646152 0.415307 -4.01535e-09)
(0.575665 0.445282 -3.76922e-09)
(0.499087 0.48619 -3.39173e-09)
(0.430188 0.535142 -3.26624e-09)
(0.355642 0.595021 -3.29654e-09)
(0.256283 0.67295 -3.35916e-09)
(0.126568 0.767552 -3.40909e-09)
(3 2.86708e-07 -3.85818e-13)
(2.99999 5.86855e-07 -2.0435e-12)
(2.99998 4.27281e-06 -4.53191e-12)
(2.99994 6.46796e-06 -9.44379e-12)
(2.99986 2.95468e-05 -1.78534e-11)
(2.99964 4.15659e-05 -3.39155e-11)
(2.9992 0.000177263 -6.76667e-11)
(2.99789 0.000233643 -1.59218e-10)
(2.99548 0.0010747 -2.29871e-10)
(2.98716 0.00112251 -9.54738e-10)
(2.97249 0.00709566 -6.63877e-10)
(2.91871 0.00515515 -4.00264e-09)
(2.78546 0.0454075 -5.44116e-09)
(2.42443 0.0622555 -1.61066e-08)
(1.38232 0.244352 -2.89198e-08)
(0.670479 0.427594 -2.53296e-08)
(0.663856 0.454592 -4.794e-09)
(0.691491 0.447182 -3.78281e-09)
(0.674453 0.464818 -4.12772e-09)
(0.619989 0.496423 -4.03807e-09)
(0.554209 0.544837 -3.84121e-09)
(0.492756 0.603127 -3.77208e-09)
(0.430882 0.681736 -3.70635e-09)
(0.350412 0.802076 -3.69724e-09)
(0.196536 1.01204 -4.09839e-09)
(2.99999 1.52456e-08 -2.33599e-14)
(2.99998 8.28627e-08 -1.0378e-13)
(2.99996 3.08149e-07 -3.45071e-13)
(2.99988 7.90497e-07 -7.46372e-13)
(2.99974 2.17398e-06 -2.1365e-12)
(2.99933 4.98947e-06 -4.39271e-12)
(2.99852 1.28587e-05 -1.23622e-11)
(2.996 2.91756e-05 -2.54782e-11)
(2.9916 7.34205e-05 -7.16909e-11)
(2.97495 0.000163514 -1.4136e-10)
(2.94546 0.000449179 -4.55754e-10)
(2.83453 0.00102412 -8.9941e-10)
(2.53061 0.00295683 -2.64016e-09)
(1.8016 0.00759114 -6.31019e-09)
(0.802842 0.0213645 -8.64081e-09)
(0.494392 0.0214121 5.12346e-10)
(0.555576 0.0226449 -1.9055e-10)
(0.571888 0.0248926 -8.22756e-10)
(0.522562 0.0270757 -8.51231e-10)
(0.435461 0.0291735 -8.43793e-10)
(0.34895 0.0317726 -8.54407e-10)
(0.277897 0.0350171 -8.67538e-10)
(0.207226 0.0385486 -9.18077e-10)
(0.125625 0.0428169 -9.39278e-10)
(0.0559797 0.0493384 -9.43678e-10)
(2.99999 4.60117e-08 -2.39072e-14)
(2.99998 2.49957e-07 -1.06066e-13)
(2.99996 9.30875e-07 -3.53573e-13)
(2.99989 2.38682e-06 -7.64676e-13)
(2.99974 6.58118e-06 -2.19459e-12)
(2.99933 1.51116e-05 -4.52733e-12)
(2.99854 3.90619e-05 -1.26543e-11)
(2.99605 8.8851e-05 -2.67231e-11)
(2.99171 0.000223833 -7.16434e-11)
(2.97526 0.000501136 -1.50058e-10)
(2.9462 0.00137407 -4.42689e-10)
(2.83644 0.00318008 -9.71275e-10)
(2.53662 0.00901262 -2.34122e-09)
(1.81536 0.0236791 -6.47014e-09)
(0.810508 0.0654285 -8.6161e-09)
(0.490992 0.0625861 5.06089e-10)
(0.554065 0.063678 -2.37665e-10)
(0.570943 0.0680302 -8.36393e-10)
(0.521057 0.072006 -8.53395e-10)
(0.433761 0.0756861 -8.38347e-10)
(0.347353 0.0802355 -8.53717e-10)
(0.275859 0.0856604 -8.6752e-10)
(0.204159 0.090898 -9.19684e-10)
(0.121271 0.0963015 -9.45195e-10)
(0.0514992 0.102438 -9.56529e-10)
(3 7.59102e-08 -2.37929e-14)
(2.99998 4.1182e-07 -1.0564e-13)
(2.99996 1.53734e-06 -3.51849e-13)
(2.99989 3.94139e-06 -7.60808e-13)
(2.99975 1.09116e-05 -2.18366e-12)
(2.99935 2.50931e-05 -4.49971e-12)
(2.99858 6.51505e-05 -1.26134e-11)
(2.99615 0.000148848 -2.64642e-11)
(2.99195 0.000375864 -7.1941e-11)
(2.9759 0.000845763 -1.48329e-10)
(2.94775 0.00233042 -4.45957e-10)
(2.84039 0.00542675 -9.60547e-10)
(2.54956 0.0153873 -2.39862e-09)
(1.84583 0.0408515 -6.546e-09)
(0.827852 0.113602 -8.88217e-09)
(0.485693 0.106551 5.60071e-10)
(0.553373 0.107144 -2.50073e-10)
(0.57214 0.114458 -8.36311e-10)
(0.521955 0.121565 -8.46562e-10)
(0.435081 0.128872 -8.29981e-10)
(0.349508 0.137433 -8.53373e-10)
(0.278004 0.147065 -8.73264e-10)
(0.205547 0.156495 -9.30053e-10)
(0.121561 0.165589 -9.60181e-10)
(0.0503496 0.173583 -9.80859e-10)
(3 9.78473e-08 -2.34657e-14)
(2.99998 5.31398e-07 -1.03945e-13)
(2.99996 1.98272e-06 -3.47493e-13)
(2.99989 5.07992e-06 -7.5098e-13)
(2.99976 1.40821e-05 -2.16898e-12)
(2.99938 3.22571e-05 -4.47598e-12)
(2.99865 8.49057e-05 -1.26109e-11)
(2.99631 0.000189477 -2.66641e-11)
(2.9923 0.000506217 -7.23392e-11)
(2.97686 0.00109317 -1.50306e-10)
(2.95011 0.00321379 -4.56453e-10)
(2.84648 0.00719561 -9.75057e-10)
(2.56955 0.0231031 -2.48887e-09)
(1.89307 0.0586805 -6.7405e-09)
(0.854061 0.164411 -9.40912e-09)
(0.476855 0.151518 7.06849e-10)
(0.552686 0.150209 -1.8571e-10)
(0.575242 0.16014 -8.21301e-10)
(0.525384 0.170388 -8.34851e-10)
(0.439696 0.181706 -8.27356e-10)
(0.355491 0.194614 -8.50509e-10)
(0.284396 0.208966 -8.71693e-10)
(0.21132 0.223371 -9.44454e-10)
(0.12575 0.236956 -9.82577e-10)
(0.0515086 0.247255 -1.01077e-09)
(3 1.11339e-07 -2.02906e-14)
(2.99998 6.06227e-07 -9.03726e-14)
(2.99996 2.25751e-06 -3.00339e-13)
(2.9999 5.77839e-06 -6.48157e-13)
(2.99977 1.60184e-05 -1.87045e-12)
(2.99941 3.64355e-05 -3.78843e-12)
(2.99871 9.78654e-05 -1.12451e-11)
(2.9965 0.000209123 -2.10337e-11)
(2.9927 0.000613692 -7.2874e-11)
(2.97812 0.00122296 -1.19075e-10)
(2.95297 0.00406458 -4.75525e-10)
(2.8556 0.00853202 -8.1423e-10)
(2.59773 0.0314789 -3.2123e-09)
(1.95946 0.0764684 -6.86153e-09)
(0.895572 0.217005 -1.04076e-08)
(0.471216 0.197728 9.93994e-10)
(0.556539 0.19327 -1.2354e-11)
(0.583726 0.205285 -7.8502e-10)
(0.534022 0.218403 -8.16831e-10)
(0.449549 0.233825 -8.29147e-10)
(0.366566 0.251096 -8.4594e-10)
(0.295819 0.270356 -8.65773e-10)
(0.2219 0.290315 -9.43415e-10)
(0.133693 0.309262 -9.89031e-10)
(0.054806 0.322683 -1.02727e-09)
(3 1.20428e-07 -1.60771e-14)
(2.99999 6.60506e-07 -7.36393e-14)
(2.99996 2.44735e-06 -2.38242e-13)
(2.99991 6.2412e-06 -5.0384e-13)
(2.99979 1.7253e-05 -1.44972e-12)
(2.99945 3.88888e-05 -2.77564e-12)
(2.99879 0.000106078 -9.19136e-12)
(2.99673 0.000213452 -1.11607e-11)