/*--------------------------------*- C++ -*----------------------------------*\
| =========                 |                                                 |
| \\      /  F ield         | OpenFOAM: The Open Source CFD Toolbox           |
|  \\    /   O peration     | Version:  4.1                                   |
|   \\  /    A nd           | Web:      www.OpenFOAM.org                      |
|    \\/     M anipulation  |                                                 |
\*---------------------------------------------------------------------------*/
FoamFile
{
    version     2.0;
    format      ascii;
    class       volVectorField;
    location    "7";
    object      U;
}
// * * * * * * * * * * * * * * * * * * * * * * * * * * * * * * * * * * * * * //

dimensions      [0 1 -1 0 0 0 0];

internalField   nonuniform List<vector> 
500
(
(3.00001 -6.15355e-08 4.38078e-17)
(3 -5.26342e-08 8.52792e-20)
(3 -1.97628e-08 9.95168e-18)
(3 -1.18928e-08 1.35139e-24)
(3 -4.48868e-09 1.2355e-23)
(3.00001 -2.08233e-07 4.35811e-17)
(3 -1.80098e-07 1.72344e-19)
(3 -6.92148e-08 1.00384e-17)
(3 -3.87739e-08 1.51734e-17)
(3 -1.34418e-08 1.23568e-23)
(3.00002 -4.40195e-07 8.67024e-17)
(3.00001 -3.84738e-07 2.633e-19)
(3 -1.5015e-07 1.03732e-17)
(3 -7.94038e-08 2.9786e-17)
(3 -2.61069e-08 1.31609e-23)
(3.00002 -7.59375e-07 8.63164e-17)
(3.00001 -6.70465e-07 1.5442e-17)
(3.00001 -2.64557e-07 3.02677e-17)
(3.00001 -1.32847e-07 2.88397e-17)
(3.00001 -4.21152e-08 2.28832e-23)
(3.00003 -1.16821e-06 4.31267e-17)
(3.00001 -1.04074e-06 3.02205e-17)
(3.00001 -4.14315e-07 1.07637e-17)
(3.00001 -1.98894e-07 2.7905e-17)
(3.00001 -6.13406e-08 2.45052e-23)
(3.00003 -1.6694e-06 4.30542e-17)
(3.00001 -1.49891e-06 3.02222e-17)
(3.00001 -6.01165e-07 3.0396e-17)
(3.00001 -2.77548e-07 2.65619e-17)
(3.00001 -8.3789e-08 -1.27224e-17)
(3.00004 -2.26575e-06 4.29805e-17)
(3.00002 -2.04827e-06 3.022e-17)
(3.00001 -8.26779e-07 3.00305e-17)
(3.00001 -3.68938e-07 1.05181e-17)
(3.00001 -1.09544e-07 -1.27224e-17)
(3.00004 -2.96025e-06 4.29051e-17)
(3.00002 -2.69198e-06 3.02142e-17)
(3.00001 -1.09272e-06 2.96494e-17)
(3.00001 -4.73289e-07 9.71883e-18)
(3.00001 -1.38733e-07 -1.27223e-17)
(3.00004 -3.75591e-06 9.35408e-19)
(3.00002 -3.43317e-06 3.03931e-17)
(3.00001 -1.40052e-06 4.79697e-17)
(3.00001 -5.90861e-07 -5.59671e-18)
(3.00001 -1.71513e-07 -1.27223e-17)
(3.00005 -4.65587e-06 4.27538e-17)
(3.00002 -4.27485e-06 3.05629e-17)
(3.00002 -1.75159e-06 4.69105e-17)
(3.00001 -7.21963e-07 -6.29605e-18)
(3.00001 -2.08058e-07 -2.51519e-17)
(3.00005 -5.66324e-06 1.2969e-18)
(3.00003 -5.21998e-06 3.05261e-17)
(3.00002 -2.1473e-06 2.70771e-17)
(3.00002 -8.66879e-07 -7.43419e-18)
(3.00002 -2.48558e-07 -3.75057e-17)
(3.00006 -6.7812e-06 1.48232e-18)
(3.00003 -6.27141e-06 3.02848e-17)
(3.00002 -2.5889e-06 8.01569e-18)
(3.00002 -1.02592e-06 5.68057e-18)
(3.00002 -2.93205e-07 -3.75055e-17)
(3.00007 -8.01287e-06 8.33705e-17)
(3.00003 -7.43188e-06 3.00371e-17)
(3.00002 -3.07758e-06 7.64073e-18)
(3.00002 -1.19933e-06 -1.00884e-17)
(3.00002 -3.42201e-07 -3.75054e-17)
(3.00007 -9.36136e-06 8.31988e-17)
(3.00003 -8.70402e-06 5.76078e-17)
(3.00002 -3.61443e-06 -1.14159e-17)
(3.00002 -1.38736e-06 -2.4709e-17)
(3.00002 -3.95745e-07 -2.53853e-17)
(3.00008 -1.08298e-05 1.63448e-16)
(3.00004 -1.00903e-05 2.89782e-17)
(3.00003 -4.2004e-06 -1.17027e-17)
(3.00002 -1.59022e-06 -2.47355e-17)
(3.00002 -4.54037e-07 -2.53852e-17)
(3.00008 -1.2421e-05 1.62517e-16)
(3.00004 -1.15931e-05 2.84996e-17)
(3.00003 -4.83637e-06 -1.2293e-17)
(3.00002 -1.80806e-06 -3.85825e-17)
(3.00002 -5.17275e-07 -2.53851e-17)
(3.00009 -1.41381e-05 1.61569e-16)
(3.00004 -1.32146e-05 2.77978e-17)
(3.00003 -5.52304e-06 -3.08502e-17)
(3.00003 -2.041e-06 -3.80422e-17)
(3.00003 -5.85653e-07 -2.5385e-17)
(3.00009 -1.59837e-05 1.60606e-16)
(3.00005 -1.49567e-05 2.70889e-17)
(3.00003 -6.26103e-06 -3.10022e-17)
(3.00003 -2.28909e-06 -3.7514e-17)
(3.00003 -6.59363e-07 -2.53849e-17)
(3.0001 -1.79607e-05 1.59625e-16)
(3.00005 -1.68212e-05 2.65907e-17)
(3.00003 -7.05075e-06 -1.34305e-17)
(3.00003 -2.55238e-06 -3.69983e-17)
(3.00003 -7.38586e-07 -2.53848e-17)
(3.0001 -2.00713e-05 1.58825e-16)
(3.00005 -1.88096e-05 5.27047e-17)
(3.00004 -7.89253e-06 -3.18569e-17)
(3.00003 -2.83079e-06 -4.93809e-17)
(3.00003 -8.23503e-07 -1.37614e-17)
(3.00011 -2.23181e-05 2.34996e-16)
(3.00006 -2.09232e-05 2.5197e-17)
(3.00004 -8.78647e-06 -1.51285e-17)
(3.00004 -3.12427e-06 -6.10872e-17)
(3.00003 -9.14284e-07 -1.37613e-17)
(3.00011 -2.47031e-05 3.10163e-16)
(3.00006 -2.31629e-05 5.13108e-17)
(3.00004 -9.73254e-06 7.61405e-19)
(3.00004 -3.43263e-06 -7.21253e-17)
(3.00004 -1.01109e-06 -1.37613e-17)
(3.00012 -2.72283e-05 3.08111e-16)
(3.00006 -2.55294e-05 5.06169e-17)
(3.00004 -1.07305e-05 -1.0019e-18)
(3.00004 -3.75568e-06 -6.94517e-17)
(3.00004 -1.11408e-06 -1.37612e-17)
(3.00012 -2.98953e-05 3.81407e-16)
(3.00007 -2.80231e-05 4.96681e-17)
(3.00005 -1.17799e-05 -1.9723e-17)
(3.00004 -4.09315e-06 -6.79048e-17)
(3.00004 -1.22338e-06 -3.63037e-17)
(3.00013 -3.27055e-05 3.03912e-16)
(3.00007 -3.06438e-05 4.8713e-17)
(3.00005 -1.28802e-05 -2.02436e-17)
(3.00004 -4.44471e-06 -3.96945e-17)
(3.00004 -1.33915e-06 -1.39421e-17)
(3.00013 -3.56601e-05 3.75694e-16)
(3.00007 -3.33912e-05 2.21904e-17)
(3.00005 -1.40305e-05 -2.0109e-17)
(3.00005 -4.80999e-06 -1.51823e-17)
(3.00005 -1.46148e-06 -5.82986e-17)
(3.00014 -3.87598e-05 3.72459e-16)
(3.00008 -3.62645e-05 -3.73805e-18)
(3.00006 -1.52299e-05 -2.00624e-17)
(3.00005 -5.1885e-06 -1.8391e-17)
(3.00005 -1.5905e-06 -8.02915e-17)
(3.00014 -4.2005e-05 3.6919e-16)
(3.00008 -3.92624e-05 -3.93735e-18)
(3.00006 -1.64769e-05 -2.01018e-17)
(3.00005 -5.57978e-06 -2.14972e-17)
(3.00005 -1.72629e-06 -8.02911e-17)
(3.00015 -4.53958e-05 3.65886e-16)
(3.00008 -4.23832e-05 -4.15021e-18)
(3.00006 -1.77702e-05 -2.095e-17)
(3.00006 -5.98322e-06 -5.03047e-17)
(3.00005 -1.86893e-06 -1.01908e-16)
(3.00015 -4.89317e-05 3.62549e-16)
(3.00009 -4.56249e-05 -3.89901e-18)
(3.00006 -1.9108e-05 1.03986e-17)
(3.00006 -6.39821e-06 -5.18741e-17)
(3.00006 -2.01849e-06 -8.0481e-17)
(3.00016 -5.26123e-05 2.88257e-16)
(3.00009 -4.89848e-05 -3.69375e-18)
(3.00007 -2.04884e-05 8.54022e-18)
(3.00006 -6.82407e-06 -5.33885e-17)
(3.00006 -2.175e-06 -8.04806e-17)
(3.00016 -5.6436e-05 2.85517e-16)
(3.00009 -5.24598e-05 -4.03349e-18)
(3.00007 -2.19092e-05 -2.49211e-17)
(3.00007 -7.26001e-06 -5.37144e-17)
(3.00006 -2.33851e-06 -5.94414e-17)
(3.00017 -6.04015e-05 3.52345e-16)
(3.0001 -5.60461e-05 -3.91293e-18)
(3.00008 -2.33679e-05 4.82967e-18)
(3.00007 -7.7053e-06 -7.66044e-17)
(3.00007 -2.50901e-06 -3.85988e-17)
(3.00017 -6.45064e-05 3.48422e-16)
(3.0001 -5.97398e-05 -5.0835e-17)
(3.00008 -2.48619e-05 3.33678e-17)
(3.00007 -8.159e-06 -7.56348e-17)
(3.00007 -2.6865e-06 -5.92426e-17)
(3.00018 -6.87483e-05 3.44015e-16)
(3.00011 -6.35361e-05 -9.65345e-17)
(3.00008 -2.63883e-05 3.07535e-17)
(3.00008 -8.62027e-06 -5.1485e-17)
(3.00007 -2.87095e-06 -5.92422e-17)
(3.00018 -7.31242e-05 2.72038e-16)
(3.00011 -6.74297e-05 -9.44476e-17)
(3.00009 -2.7944e-05 2.81992e-17)
(3.00008 -9.08811e-06 -5.0767e-17)
(3.00008 -3.0623e-06 -3.9017e-17)
(3.00019 -7.76301e-05 2.68295e-16)
(3.00012 -7.14149e-05 -9.24101e-17)
(3.00009 -2.95256e-05 2.4941e-17)
(3.00008 -9.56153e-06 -7.27969e-17)
(3.00008 -3.26049e-06 -3.90707e-17)
(3.00019 -8.22624e-05 2.64543e-16)
(3.00012 -7.54855e-05 -9.04367e-17)
(3.00009 -3.11294e-05 2.10152e-17)
(3.00009 -1.00395e-05 -9.32458e-17)
(3.00009 -3.46541e-06 -3.91434e-17)
(3.0002 -8.7016e-05 2.60299e-16)
(3.00012 -7.96347e-05 -1.34142e-16)
(3.0001 -3.2752e-05 -1.2146e-17)
(3.00009 -1.05209e-05 -8.9958e-17)
(3.00009 -3.67698e-06 -3.91914e-17)
(3.0002 -9.18861e-05 2.55082e-16)
(3.00013 -8.38549e-05 -2.21163e-16)
(3.0001 -3.4389e-05 -1.40126e-17)
(3.0001 -1.10047e-05 -6.48709e-17)
(3.00009 -3.89502e-06 -3.91887e-17)
(3.0002 -9.6867e-05 1.22253e-16)
(3.00013 -8.81387e-05 -1.73759e-16)
(3.00011 -3.60364e-05 -4.29773e-17)
(3.0001 -1.14897e-05 -1.98854e-17)
(3.0001 -4.1194e-06 -3.91458e-17)
(3.00021 -0.000101952 2.45624e-16)
(3.00014 -9.24775e-05 -1.70752e-16)
(3.00011 -3.769e-05 -1.46376e-17)
(3.0001 -1.19747e-05 -4.37239e-17)
(3.0001 -4.34993e-06 -5.80884e-17)
(3.00021 -0.000107136 2.40901e-16)
(3.00014 -9.68626e-05 -1.6723e-16)
(3.00012 -3.93452e-05 1.23393e-17)
(3.00011 -1.24587e-05 -4.46392e-17)
(3.00011 -4.58641e-06 -5.80397e-17)
(3.00022 -0.00011241 2.36674e-16)
(3.00015 -0.000101285 -1.21667e-16)
(3.00012 -4.09975e-05 -1.59335e-17)
(3.00011 -1.29403e-05 -3.74081e-18)
(3.00011 -4.82862e-06 -5.80042e-17)
(3.00022 -0.000117767 3.54751e-16)
(3.00015 -0.000105735 -1.20634e-16)
(3.00013 -4.26421e-05 -7.0324e-17)
(3.00012 -1.34185e-05 -7.37335e-18)
(3.00012 -5.07631e-06 -5.79785e-17)
(3.00023 -0.0001232 4.69192e-16)
(3.00016 -0.000110202 -1.61687e-16)
(3.00013 -4.42744e-05 -9.50651e-17)
(3.00012 -1.38921e-05 -1.08147e-17)
(3.00012 -5.32923e-06 -5.79572e-17)
(3.00023 -0.0001287 5.80425e-16)
(3.00016 -0.000114677 -1.60221e-16)
(3.00014 -4.58895e-05 -9.04631e-17)
(3.00013 -1.43599e-05 2.3561e-17)
(3.00013 -5.58709e-06 -9.37843e-17)
(3.00024 -0.000134258 6.88189e-16)
(3.00017 -0.000119149 -1.99212e-16)
(3.00014 -4.74826e-05 -8.5419e-17)
(3.00013 -1.48209e-05 3.75328e-17)
(3.00013 -5.84958e-06 -5.83525e-17)
(3.00024 -0.000139864 6.76301e-16)
(3.00017 -0.000123608 -2.36735e-16)
(3.00015 -4.90489e-05 -8.07637e-17)
(3.00014 -1.52738e-05 3.06323e-17)
(3.00014 -6.11644e-06 -5.83321e-17)
(3.00024 -0.000145511 6.64634e-16)
(3.00018 -0.000128042 -2.33277e-16)
(3.00015 -5.05838e-05 -7.6378e-17)
(3.00014 -1.57178e-05 2.66983e-17)
(3.00014 -6.38728e-06 -2.37833e-17)
(3.00025 -0.000151187 6.53017e-16)
(3.00018 -0.00013244 -2.29191e-16)
(3.00016 -5.20824e-05 -4.69548e-17)
(3.00015 -1.61518e-05 2.30213e-17)
(3.00015 -6.66179e-06 -2.37698e-17)
(3.00025 -0.000156884 5.28389e-16)
(3.00019 -0.000136792 -3.02013e-16)
(3.00016 -5.35402e-05 -4.42888e-17)
(3.00016 -1.65748e-05 1.70284e-17)
(3.00015 -6.93964e-06 -5.74062e-17)
(3.00026 -0.000162592 4.06742e-16)
(3.0002 -0.000141087 -2.96117e-16)
(3.00017 -5.49527e-05 -4.19655e-17)
(3.00016 -1.6986e-05 1.13774e-17)
(3.00016 -7.22041e-06 -5.74055e-17)
(3.00026 -0.0001683 3.9707e-16)
(3.0002 -0.000145314 -2.91328e-16)
(3.00018 -5.63155e-05 -8.84766e-17)
(3.00017 -1.73845e-05 6.05659e-18)
(3.00017 -7.50381e-06 -5.74119e-17)
(3.00027 -0.000174 6.02324e-16)
(3.00021 -0.000149463 -2.86447e-16)
(3.00018 -5.76251e-05 -8.30172e-17)
(3.00017 -1.77698e-05 3.68957e-17)
(3.00017 -7.78944e-06 -5.74249e-17)
(3.00027 -0.000179679 5.89979e-16)
(3.00021 -0.000153522 -2.8149e-16)
(3.00019 -5.88769e-05 -7.81419e-17)
(3.00018 -1.81409e-05 2.68133e-17)
(3.00018 -8.07688e-06 -8.92831e-17)
(3.00028 -0.000185331 5.76787e-16)
(3.00022 -0.000157485 -3.46998e-16)
(3.0002 -6.00685e-05 -2.55934e-17)
(3.00019 -1.84978e-05 5.72355e-17)
(3.00019 -8.36591e-06 -2.64565e-17)
(3.00028 -0.000190943 6.6549e-16)
(3.00023 -0.000161337 -4.09672e-16)
(3.0002 -6.11953e-05 -2.22415e-17)
(3.00019 -1.88394e-05 4.78032e-17)
(3.00019 -8.65598e-06 -5.73656e-17)
(3.00028 -0.000196508 6.49876e-16)
(3.00023 -0.000165073 -4.00013e-16)
(3.00021 -6.22559e-05 -2.09991e-17)
(3.0002 -1.9166e-05 5.3522e-18)
(3.0002 -8.94688e-06 -5.73387e-17)
(3.00029 -0.000202015 6.3323e-16)
(3.00024 -0.000168682 -4.5781e-16)
(3.00022 -6.32469e-05 2.42523e-17)
(3.00021 -1.9477e-05 1.18656e-20)
(3.00021 -9.23825e-06 -5.73556e-17)
(3.00029 -0.000207456 6.16634e-16)
(3.00024 -0.000172156 -4.45418e-16)
(3.00022 -6.41659e-05 2.43121e-17)
(3.00021 -1.97722e-05 2.76139e-17)
(3.00021 -9.5296e-06 -5.74129e-17)
(3.0003 -0.000212824 6.00152e-16)
(3.00025 -0.000175492 -4.33116e-16)
(3.00023 -6.50131e-05 2.41245e-17)
(3.00022 -2.00522e-05 2.26984e-17)
(3.00022 -9.82088e-06 -2.83433e-17)
(3.0003 -0.000218105 5.83836e-16)
(3.00026 -0.000178675 -4.22001e-16)
(3.00024 -6.57837e-05 -1.70205e-17)
(3.00023 -2.03158e-05 4.71094e-17)
(3.00023 -1.01115e-05 -5.70944e-17)
(3.00031 -0.000223301 7.55064e-16)
(3.00026 -0.000181708 -4.10946e-16)
(3.00024 -6.64812e-05 -1.43465e-17)
(3.00024 -2.05649e-05 3.52481e-17)
(3.00023 -1.04013e-05 -8.51463e-17)
(3.00031 -0.000228396 7.35131e-16)
(3.00027 -0.000184578 -4.63186e-16)
(3.00025 -6.7101e-05 -1.07337e-17)
(3.00024 -2.07982e-05 5.47146e-17)
(3.00024 -1.069e-05 -8.50893e-17)
(3.00032 -0.000233387 7.15499e-16)
(3.00028 -0.000187285 -4.50605e-16)
(3.00026 -6.76452e-05 -9.48536e-18)
(3.00025 -2.10168e-05 1.19722e-17)
(3.00025 -1.09774e-05 -8.5149e-17)
(3.00032 -0.000238272 6.96167e-16)
(3.00029 -0.000189828 -4.38197e-16)
(3.00027 -6.81158e-05 -8.80045e-18)
(3.00026 -2.12218e-05 2.9786e-18)
(3.00026 -1.12633e-05 -8.51918e-17)
(3.00033 -0.000243032 8.53325e-16)
(3.00029 -0.000192191 -3.65896e-16)
(3.00027 -6.85071e-05 -8.61488e-18)
(3.00027 -2.14114e-05 -5.28407e-18)
(3.00026 -1.1547e-05 -8.52022e-17)
(3.00034 -0.000247684 8.32548e-16)
(3.0003 -0.000194393 -3.54478e-16)
(3.00028 -6.88308e-05 2.92068e-17)
(3.00027 -2.159e-05 -1.29218e-17)
(3.00027 -1.18292e-05 -8.52098e-17)
(3.00034 -0.000252199 8.13067e-16)
(3.00031 -0.00019641 -2.84347e-16)
(3.00029 -6.90769e-05 6.38856e-17)
(3.00028 -2.17542e-05 -1.99765e-17)
(3.00028 -1.21088e-05 -8.52247e-17)
(3.00035 -0.000256588 6.28677e-16)
(3.00032 -0.000198256 -2.18455e-16)
(3.0003 -6.92546e-05 2.21669e-17)
(3.00029 -2.19072e-05 -2.64485e-17)
(3.00029 -1.23861e-05 -8.52406e-17)
(3.00035 -0.000260854 6.1361e-16)
(3.00032 -0.000199936 -2.1127e-16)
(3.0003 -6.93686e-05 2.18209e-17)
(3.0003 -2.20509e-05 1.61663e-17)
(3.0003 -1.26615e-05 -1.34537e-16)
(3.00036 -0.000264963 5.98715e-16)
(3.00033 -0.000201419 -2.04117e-16)
(3.00031 -6.94063e-05 2.06237e-17)
(3.00031 -2.21804e-05 9.32231e-19)
(3.0003 -1.29333e-05 -1.3454e-16)
(3.00037 -0.000268961 5.83987e-16)
(3.00034 -0.000202757 -1.97199e-16)
(3.00032 -6.93943e-05 1.57183e-17)
(3.00031 -2.23053e-05 -6.42793e-17)
(3.00031 -1.32035e-05 -1.34537e-16)
(3.00037 -0.000272799 5.69425e-16)
(3.00034 -0.000203905 -1.90588e-16)
(3.00033 -6.93134e-05 1.06135e-17)
(3.00032 -2.24186e-05 -7.15288e-17)
(3.00032 -1.34703e-05 -1.3453e-16)
(3.00038 -0.000276493 7.05357e-16)
(3.00035 -0.000204882 -2.36106e-16)
(3.00034 -6.91732e-05 5.36544e-18)
(3.00033 -2.2523e-05 -7.80902e-17)
(3.00033 -1.37339e-05 -1.34521e-16)
(3.00038 -0.000280072 6.87196e-16)
(3.00036 -0.000205724 -2.2833e-16)
(3.00034 -6.89957e-05 2.62927e-18)
(3.00034 -2.26267e-05 -4.0481e-17)
(3.00034 -1.39962e-05 -1.79403e-16)
(3.00039 -0.000283461 8.09953e-16)
(3.00037 -0.000206353 -2.18725e-16)
(3.00035 -6.87413e-05 6.3135e-17)
(3.00034 -2.27144e-05 -5.5373e-17)
(3.00034 -1.42532e-05 -1.7939e-16)
(3.00039 -0.000286739 7.93313e-16)
(3.00037 -0.000206865 -2.07538e-16)
(3.00036 -6.84643e-05 1.1769e-16)
(3.00035 -2.2806e-05 -6.88471e-17)
(3.00035 -1.45093e-05 -1.79374e-16)
(3.0004 -0.000289873 7.7387e-16)
(3.00038 -0.000207217 -1.97049e-16)
(3.00036 -6.81334e-05 1.05238e-16)
(3.00035 -2.28882e-05 -8.10168e-17)
(3.00035 -1.47613e-05 -1.79358e-16)
(3.0004 -0.000292794 7.54213e-16)
(3.00038 -0.000207365 -1.852e-16)
(3.00036 -6.7749e-05 1.52941e-16)
(3.00036 -2.29636e-05 -9.19801e-17)
(3.00036 -1.50095e-05 -1.79341e-16)
(3.0004 -0.000295669 7.34974e-16)
(3.00038 -0.000207454 -1.7418e-16)
(3.00037 -6.73534e-05 1.36696e-16)
(3.00036 -2.3042e-05 -1.01831e-16)
(3.00036 -1.52557e-05 -1.79322e-16)
(3.0004 -0.000298282 4.51677e-16)
(3.00038 -0.000207313 -2.53775e-16)
(3.00037 -6.69045e-05 1.21037e-16)
(3.00036 -2.3114e-05 -1.06128e-16)
(3.00036 -1.5498e-05 -1.39514e-16)
(3.0004 -0.000300745 4.3715e-16)
(3.00038 -0.000207018 -2.39264e-16)
(3.00037 -6.64012e-05 1.59047e-16)
(3.00036 -2.31718e-05 -1.55962e-16)
(3.00036 -1.57332e-05 -1.78452e-16)
(3.0004 -0.000303061 4.25022e-16)
(3.00038 -0.000206611 -1.38387e-16)
(3.00037 -6.58912e-05 1.89789e-16)
(3.00036 -2.32373e-05 -1.94589e-16)
(3.00036 -1.59669e-05 -1.40291e-16)
(3.00039 -0.000305188 4.15194e-16)
(3.00038 -0.000206051 -4.34548e-17)
(3.00036 -6.53493e-05 1.65493e-16)
(3.00036 -2.32978e-05 -1.88058e-16)
(3.00036 -1.61951e-05 -1.40267e-16)
(3.00038 -0.000307137 4.05707e-16)
(3.00037 -0.000205356 -3.46638e-17)
(3.00036 -6.47822e-05 1.95366e-16)
(3.00035 -2.33546e-05 -1.73651e-16)
(3.00035 -1.64173e-05 -6.77456e-17)
(3.00037 -0.000308852 3.96345e-16)
(3.00036 -0.000204492 -2.87972e-17)
(3.00035 -6.41833e-05 1.22082e-16)
(3.00035 -2.34045e-05 -1.22978e-16)
(3.00034 -1.66318e-05 -6.76741e-17)
(3.00036 -0.000310339 3.86914e-16)
(3.00035 -0.000203474 -2.56038e-17)
(3.00034 -6.35517e-05 5.55887e-17)
(3.00034 -2.34451e-05 -1.1613e-16)
(3.00034 -1.68364e-05 -6.74319e-17)
(3.00035 -0.000311569 3.75664e-16)
(3.00034 -0.000202307 -9.753e-17)
(3.00033 -6.29028e-05 9.06005e-17)
(3.00033 -2.34812e-05 -1.46086e-16)
(3.00032 -1.70305e-05 -6.72362e-17)
(3.00034 -0.000312496 3.64492e-16)
(3.00033 -0.000200961 -8.9131e-17)
(3.00032 -6.22154e-05 1.22356e-16)
(3.00031 -2.35e-05 -1.36177e-16)
(3.00031 -1.72083e-05 -6.70678e-17)
(3.00032 -0.000313084 3.53491e-16)
(3.00031 -0.000199447 -8.15683e-17)
(3.0003 -6.15056e-05 1.09259e-16)
(3.0003 -2.35061e-05 -5.87025e-17)
(3.0003 -1.73677e-05 -6.68763e-17)
(3.0003 -0.00031332 3.41033e-16)
(3.0003 -0.000197786 -1.4623e-16)
(3.00029 -6.07806e-05 9.17164e-17)
(3.00028 -2.34973e-05 -1.34216e-16)
(3.00028 -1.75038e-05 -1.30289e-16)
(3.00029 -0.000313089 3.28868e-16)
(3.00028 -0.000195918 -1.37023e-16)
(3.00027 -6.00151e-05 7.56106e-17)
(3.00027 -2.34586e-05 -1.33216e-16)
(3.00027 -1.7608e-05 -1.29846e-16)
(3.00027 -0.000312336 3.16895e-16)
(3.00026 -0.000193839 -1.28597e-16)
(3.00025 -5.92084e-05 5.56545e-17)
(3.00025 -2.33842e-05 -2.03667e-16)
(3.00025 -1.7673e-05 -1.89857e-16)
(3.00025 -0.000311017 3.06503e-16)
(3.00025 -0.0001916 -5.77954e-17)
(3.00024 -5.84128e-05 -4.7331e-17)
(3.00023 -2.32914e-05 -2.00843e-16)
(3.00023 -1.76977e-05 -1.88786e-16)
(3.00023 -0.00030908 1.05947e-16)
(3.00023 -0.000189192 -5.98226e-17)
(3.00022 -5.76101e-05 -1.40501e-16)
(3.00022 -2.31622e-05 -2.05359e-16)
(3.00022 -1.76702e-05 -2.45077e-16)
(3.00022 -0.000306468 2.85285e-16)
(3.00022 -0.00018659 -6.16969e-17)
(3.00021 -5.67673e-05 -1.48166e-16)
(3.00021 -2.29741e-05 -2.67448e-16)
(3.00021 -1.7578e-05 -2.43007e-16)
(3.00022 -0.000303147 4.54377e-16)
(3.00022 -0.000183767 -6.32764e-17)
(3.00021 -5.5837e-05 -1.54417e-16)
(3.00021 -2.26985e-05 -2.61512e-16)
(3.00021 -1.74068e-05 -2.40346e-16)
(3.00017 -0.000299163 2.61055e-16)
(3.00017 -0.000180709 -6.10512e-17)
(3.00017 -5.4738e-05 -7.96917e-17)
(3.00016 -2.2316e-05 -2.0693e-16)
(3.00016 -1.71655e-05 -2.90706e-16)
)
;

boundaryField
{
    axis
    {
        type            empty;
    }
    inlet
    {
        type            fixedValue;
        value           uniform (3 0 0);
    }
    wall
    {
        type            zeroGradient;
    }
    outlet
    {
        type            zeroGradient;
    }
    front
    {
        type            wedge;
    }
    back
    {
        type            wedge;
    }
}


// ************************************************************************* //
