/*--------------------------------*- C++ -*----------------------------------*\
| =========                 |                                                 |
| \\      /  F ield         | OpenFOAM: The Open Source CFD Toolbox           |
|  \\    /   O peration     | Version:  4.1                                   |
|   \\  /    A nd           | Web:      www.OpenFOAM.org                      |
|    \\/     M anipulation  |                                                 |
\*---------------------------------------------------------------------------*/
FoamFile
{
    version     2.0;
    format      ascii;
    class       surfaceScalarField;
    location    "3.6";
    object      phi;
}
// * * * * * * * * * * * * * * * * * * * * * * * * * * * * * * * * * * * * * //

dimensions      [1 0 -1 0 0 0 0];

internalField   nonuniform List<scalar> 
150500
(
0.0168001
1.74331e-10
-3.38555e-12
0.0168001
9.64761e-10
-1.16469e-11
0.0168001
3.60063e-09
-1.34675e-11
0.0168
9.20687e-09
-2.17085e-11
0.0168
2.55471e-08
-2.13378e-11
0.0168
5.81683e-08
-2.92614e-11
0.0167998
1.55739e-07
-2.93216e-11
0.0167995
3.36298e-07
-4.04682e-11
0.0167985
9.73852e-07
-4.26848e-11
0.0167966
2.00975e-06
-7.8781e-11
0.0167897
6.61691e-06
-1.0172e-10
0.0167753
1.49544e-05
-2.43322e-10
0.0167099
6.4836e-05
-3.41372e-10
0.0165279
0.000182407
-1.29972e-09
0.015452
0.00107644
-2.88249e-09
0.0141629
0.0012885
6.19331e-10
0.0129202
0.00124208
7.83026e-12
0.0116286
0.00129072
-3.18759e-10
0.0102695
0.00135865
-3.13268e-10
0.00882308
0.00144441
-2.79351e-10
0.00727198
0.0015499
-2.42391e-10
0.00560925
0.00166013
-2.3316e-10
0.00384886
0.00176054
-2.19371e-10
0.00198405
0.00186566
-2.08542e-10
0.00198173
-2.05047e-10
0.0168001
3.46588e-10
-3.37817e-12
0.0168001
1.91053e-09
-1.16466e-11
0.0168001
7.14547e-09
-1.34721e-11
0.0168
1.82279e-08
-2.1676e-11
0.0168
5.07742e-08
-2.13673e-11
0.0168
1.15421e-07
-2.92066e-11
0.0167998
3.11387e-07
-2.92882e-11
0.0167995
6.68051e-07
-4.02677e-11
0.0167985
1.97174e-06
-4.25498e-11
0.0167966
4.01787e-06
-7.78976e-11
0.0167894
1.35024e-05
-1.00802e-10
0.0167746
3.02441e-05
-2.39664e-10
0.016707
0.000131919
-3.38741e-10
0.0165203
0.000369502
-1.27949e-09
0.0154559
0.00214134
-2.86554e-09
0.0141369
0.00260688
6.13595e-10
0.0129087
0.00246977
2.69547e-12
0.0116359
0.00256256
-3.23451e-10
0.0102863
0.00270783
-3.16742e-10
0.0088275
0.00290124
-2.80895e-10
0.0072572
0.00311899
-2.4229e-10
0.00557823
0.00333651
-2.32584e-10
0.00379716
0.00354178
-2.17311e-10
0.00192305
0.00374063
-2.03898e-10
0.00390223
-1.98323e-10
0.0168001
5.03661e-10
-3.3656e-12
0.0168001
2.75748e-09
-1.16416e-11
0.0168001
1.03042e-08
-1.34918e-11
0.0168
2.61677e-08
-2.15895e-11
0.0168
7.31522e-08
-2.14641e-11
0.0168
1.65799e-07
-2.90825e-11
0.0167998
4.49933e-07
-2.92627e-11
0.0167996
9.61323e-07
-3.9891e-11
0.0167986
2.84897e-06
-4.24105e-11
0.016797
5.80025e-06
-7.63001e-11
0.0167903
1.98681e-05
-9.91297e-11
0.0167761
4.49416e-05
-2.32386e-10
0.0167122
0.000195358
-3.31245e-10
0.0165358
0.000546206
-1.23236e-09
0.0155601
0.00311751
-2.82064e-09
0.0142169
0.0039494
6.0085e-10
0.0129855
0.00370068
-2.33459e-13
0.0117233
0.00382383
-3.28072e-10
0.0103849
0.0040458
-3.22234e-10
0.00892622
0.00435798
-2.85518e-10
0.00734998
0.00469415
-2.43147e-10
0.00565301
0.00503089
-2.31373e-10
0.00384567
0.0053493
-2.13725e-10
0.00194355
0.00564363
-1.97074e-10
0.00584345
-1.86917e-10
0.0168001
5.65777e-10
-3.34544e-12
0.0168001
3.14969e-09
-1.16364e-11
0.0168001
1.17822e-08
-1.35067e-11
0.0168001
3.00299e-08
-2.14896e-11
0.0168
8.32693e-08
-2.15374e-11
0.0168
1.86787e-07
-2.88934e-11
0.0167999
5.20699e-07
-2.90862e-11
0.0167999
9.9463e-07
-3.90388e-11
0.016799
3.71475e-06
-4.17202e-11
0.0167995
5.45502e-06
-7.20653e-11
0.0167902
2.88657e-05
-9.39829e-11
0.0167826
5.299e-05
-2.1861e-10
0.0167197
0.000257765
-3.14216e-10
0.0165698
0.00069645
-1.16304e-09
0.0157641
0.00392351
-2.78537e-09
0.0144017
0.0053112
4.99918e-10
0.013162
0.0049398
-3.11253e-11
0.0119057
0.00507922
-3.26142e-10
0.010578
0.00537307
-3.19465e-10
0.0091258
0.00580807
-2.82622e-10
0.0075485
0.00627035
-2.43656e-10
0.00584528
0.00673154
-2.33876e-10
0.0040028
0.00719206
-2.14258e-10
0.002029
0.00761842
-1.94906e-10
0.00787026
-1.7938e-10
0.0168001
7.5966e-10
-3.33952e-12
0.0168001
4.18862e-09
-1.15991e-11
0.0168001
1.56003e-08
-1.35996e-11
0.0168
3.98491e-08
-2.13667e-11
0.0168
1.10383e-07
-2.18446e-11
0.0168
2.50973e-07
-2.89995e-11
0.0167998
6.74996e-07
-2.97376e-11
0.0167994
1.41982e-06
-4.23794e-11
0.0167986
4.45639e-06
-3.8367e-11
0.0167967
7.40545e-06
-1.11103e-10
0.0167921
3.33479e-05
-9.64369e-12
0.0167817
6.37658e-05
-3.08396e-10
0.0167468
0.000292159
-1.2367e-10
0.0166513
0.000792219
-1.02074e-09
0.0162017
0.00437318
-2.43282e-09
0.0148162
0.0066961
2.52771e-10
0.0135154
0.00624022
-1.75839e-10
0.0122371
0.0063567
-3.52196e-10
0.0109179
0.00669214
-3.30603e-10
0.00947045
0.00725367
-2.81061e-10
0.00788548
0.00785418
-2.52796e-10
0.00614929
0.00846466
-2.44662e-10
0.00425602
0.00908544
-2.23181e-10
0.00219441
0.00968103
-2.03243e-10
0.0100626
-1.85329e-10
0.0168001
9.07681e-10
-3.31134e-12
0.0168001
4.99162e-09
-1.15791e-11
0.0168001
1.85997e-08
-1.35639e-11
0.0168
4.75628e-08
-2.12511e-11
0.0168
1.31842e-07
-2.15466e-11
0.0168
3.01275e-07
-2.82908e-11
0.0167999
7.96234e-07
-2.82775e-11
0.0167995
1.76243e-06
-3.63109e-11
0.0167991
4.85864e-06
-3.86774e-11
0.0167965
1.00106e-05
-6.79686e-11
0.0167959
3.38502e-05
-5.13262e-11
0.0167911
6.89078e-05
-2.15663e-10
0.0167857
0.000297077
-1.85516e-10
0.0167801
0.000798022
-8.73288e-10
0.0169315
0.00422159
-2.17116e-09
0.015517
0.00811007
-5.70805e-11
0.0140733
0.00768349
-2.68326e-10
0.0127404
0.00768879
-3.30528e-10
0.0114078
0.00802461
-3.08476e-10
0.00998021
0.00867936
-2.6766e-10
0.00838422
0.0094496
-2.55356e-10
0.00662203
0.0102245
-2.53721e-10
0.00465194
0.0110556
-2.35225e-10
0.00242871
0.0119053
-2.18318e-10
0.0124894
-2.03896e-10
0.0168001
9.50762e-10
-3.27513e-12
0.0168001
5.26125e-09
-1.1584e-11
0.0168001
1.95829e-08
-1.35415e-11
0.0168001
5.02555e-08
-2.12223e-11
0.0168
1.38204e-07
-2.1451e-11
0.0168
3.16158e-07
-2.81243e-11
0.0168
8.2377e-07
-2.77954e-11
0.0167999
1.8323e-06
-3.53585e-11
0.0167999
4.83891e-06
-3.73685e-11
0.0167994
1.05823e-05
-5.38189e-11
0.0168024
3.07027e-05
-5.90281e-11
0.0168026
6.89678e-05
-1.61813e-10
0.0168508
0.000248456
-1.59018e-10
0.0169836
0.000665345
-6.39854e-10
0.0180713
0.00313367
-1.23356e-09
0.0166895
0.00949124
-8.67383e-10
0.0149044
0.00946833
-4.52197e-10
0.0134908
0.00910163
-2.87316e-10
0.0121337
0.00938129
-2.72012e-10
0.010687
0.0101244
-2.53603e-10
0.00907961
0.0110559
-2.51396e-10
0.00726437
0.0120377
-2.54518e-10
0.00521612
0.013104
-2.44294e-10
0.00283362
0.0142888
-2.35618e-10
0.0153216
-2.29374e-10
0.0168001
1.03153e-09
-3.24283e-12
0.0168001
5.72994e-09
-1.15934e-11
0.0168001
2.13772e-08
-1.35406e-11
0.0168001
5.50831e-08
-2.12201e-11
0.0168
1.51513e-07
-2.14332e-11
0.0168
3.47855e-07
-2.80835e-11
0.0167999
9.03859e-07
-2.76761e-11
0.0167997
2.03367e-06
-3.50629e-11
0.0167993
5.24642e-06
-3.6684e-11
0.016798
1.19004e-05
-5.21713e-11
0.0167978
3.07983e-05
-5.43004e-11
0.0167899
7.70875e-05
-1.57042e-10
0.0168086
0.000229356
-1.25592e-10
0.0168293
0.000644736
-5.45716e-10
0.0172003
0.0027622
-1.09451e-09
0.0166587
0.0100321
-1.52467e-09
0.0151763
0.0109504
-6.08918e-10
0.0140364
0.0102408
-2.14791e-10
0.012803
0.0106142
-2.13097e-10
0.0114425
0.0114834
-2.24625e-10
0.00989821
0.0125991
-2.39046e-10
0.00811543
0.0138187
-2.44126e-10
0.00602174
0.0151979
-2.39143e-10
0.00343417
0.0168776
-2.41043e-10
0.0187546
-2.49013e-10
0.0168001
1.38338e-09
-3.21645e-12
0.0168001
6.17868e-09
-1.1595e-11
0.0168001
2.51703e-08
-1.35548e-11
0.0168
6.0639e-08
-2.12242e-11
0.0168
1.76803e-07
-2.14781e-11
0.0168
3.8688e-07
-2.81768e-11
0.0167999
1.03278e-06
-2.79889e-11
0.0167995
2.34325e-06
-3.58741e-11
0.0167993
5.42522e-06
-3.74936e-11
0.0167977
1.3636e-05
-6.08148e-11
0.0167967
3.16066e-05
-4.35538e-11
0.0168016
7.24338e-05
-1.886e-10
0.0167948
0.000235704
-7.06606e-11
0.0168034
0.000636357
-5.45797e-10
0.0169958
0.00256925
-8.94066e-10
0.0163088
0.0107181
-1.71397e-09
0.0157205
0.0115383
-2.75879e-10
0.0145287
0.011432
-1.5071e-10
0.0133176
0.0118254
-1.72168e-10
0.0121625
0.0126368
-1.90017e-10
0.0107723
0.0139885
-2.18494e-10
0.00915306
0.0154349
-2.20466e-10
0.00720521
0.0171457
-2.22976e-10
0.00451713
0.0195668
-2.27316e-10
0.023271
-2.48377e-10
0.0168001
-3.23968e-12
1.98446e-09
0.0168001
-1.16299e-11
1.44827e-09
0.0168001
-1.36248e-11
2.62442e-08
0.0168001
-2.18701e-11
2.23062e-08
0.0168001
-2.11857e-11
1.72809e-07
0.0168003
-2.91202e-11
1.4509e-07
0.0168003
-2.81163e-11
1.05012e-06
0.0168019
-3.74748e-11
7.27085e-07
0.0168002
-3.63091e-11
7.10615e-06
0.0168112
-5.9832e-11
2.87054e-06
0.0167893
-6.191e-11
5.34777e-05
0.0168515
-1.38271e-10
1.03978e-05
0.0167077
-7.35222e-11
0.00037909
0.0169906
-5.7391e-10
0.000353437
0.0169256
-6.81311e-10
0.00263393
0.01654
-1.84343e-09
0.0111023
0.0156938
-1.58105e-10
0.0123842
0.0148301
-9.89571e-11
0.0122951
0.0139187
-1.59943e-10
0.0127364
0.0129196
-1.75022e-10
0.0136351
0.0118482
-1.96105e-10
0.015059
0.010572
-1.94571e-10
0.0167094
0.00880837
-1.92554e-10
0.0189082
0.00622822
-1.92709e-10
0.0221478
-2.08704e-10
0.029499
0.0168001
1.78013e-10
-4.87941e-16
0.0168001
9.67866e-10
-2.61754e-15
0.0168001
3.602e-09
-5.59393e-15
0.0168
9.22415e-09
-1.18411e-14
0.0168
2.55481e-08
-2.08197e-14
0.0168
5.8197e-08
-3.86564e-14
0.0167998
1.55782e-07
-7.94263e-14
0.0167995
3.3644e-07
-1.39454e-13
0.0167985
9.74056e-07
-4.0412e-13
0.0167966
2.0104e-06
-6.51108e-13
0.0167897
6.61808e-06
-2.45421e-12
0.0167753
1.49574e-05
-4.58931e-12
0.0167099
6.48423e-05
-1.91648e-11
0.0165279
0.00018243
-4.87247e-11
0.0154518
0.00107653
-1.37384e-10
0.0141627
0.0012885
3.40636e-11
0.0129201
0.00124208
6.28597e-12
0.0116284
0.00129072
-1.00217e-11
0.0102694
0.00135864
-9.44918e-12
0.00882298
0.0014444
-7.91292e-12
0.0072719
0.00154988
-8.0222e-12
0.00560919
0.00166011
-9.31369e-12
0.00384883
0.00176052
-1.01071e-11
0.00198404
0.00186563
-1.09253e-11
0.00198171
-1.18428e-11
0.0168001
3.52885e-10
-4.87566e-16
0.0168001
1.91875e-09
-2.61618e-15
0.0168001
7.14343e-09
-5.5911e-15
0.0168
1.82731e-08
-1.18326e-14
0.0168
5.07582e-08
-2.08093e-14
0.0168
1.15488e-07
-3.86393e-14
0.0167998
3.11458e-07
-7.93803e-14
0.0167995
6.68339e-07
-1.39603e-13
0.0167984
1.97212e-06
-4.03518e-13
0.0167966
4.01917e-06
-6.51958e-13
0.0167894
1.3505e-05
-2.45219e-12
0.0167746
3.02508e-05
-4.58225e-12
0.016707
0.000131934
-1.90907e-11
0.0165203
0.000369554
-4.85127e-11
0.0154557
0.00214155
-1.37576e-10
0.0141367
0.00260687
3.41791e-11
0.0129085
0.00246976
6.38839e-12
0.0116358
0.00256254
-9.9746e-12
0.0102861
0.00270781
-9.35346e-12
0.00882738
0.00290121
-7.77504e-12
0.00725709
0.00311896
-7.86869e-12
0.00557815
0.00333647
-9.11188e-12
0.0037971
0.00354172
-9.93134e-12
0.00192303
0.00374056
-1.07673e-11
0.00390219
-1.17121e-11
0.0168001
5.13048e-10
-4.85982e-16
0.0168001
2.76753e-09
-2.60962e-15
0.0168001
1.03062e-08
-5.57246e-15
0.0168
2.62159e-08
-1.17855e-14
0.0168
7.31451e-08
-2.07057e-14
0.0168
1.65866e-07
-3.84321e-14
0.0167998
4.50016e-07
-7.88358e-14
0.0167995
9.61549e-07
-1.38975e-13
0.0167986
2.8492e-06
-4.00173e-13
0.016797
5.80037e-06
-6.49208e-13
0.0167903
1.98716e-05
-2.44087e-12
0.0167761
4.49526e-05
-4.55129e-12
0.0167122
0.000195386
-1.89376e-11
0.0165358
0.000546308
-4.81258e-11
0.0155598
0.0031179
-1.38716e-10
0.0142167
0.0039494
3.40888e-11
0.0129853
0.00370064
6.06365e-12
0.0117231
0.0038238
-9.89504e-12
0.0103847
0.00404577
-9.23898e-12
0.00892602
0.00435795
-7.6197e-12
0.00734979
0.0046941
-7.62463e-12
0.00565284
0.00503083
-8.73262e-12
0.00384554
0.0053492
-9.51992e-12
0.00194348
0.00564351
-1.036e-11
0.00584334
-1.12855e-11
0.0168001
5.70124e-10
-4.83208e-16
0.0168001
3.17319e-09
-2.59704e-15
0.0168001
1.17596e-08
-5.53904e-15
0.0168001
3.00912e-08
-1.17065e-14
0.0168
8.31899e-08
-2.05513e-14
0.0168
1.86784e-07
-3.81629e-14
0.0167999
5.20534e-07
-7.8138e-14
0.0167999
9.93776e-07
-1.39037e-13
0.016799
3.71656e-06
-3.94915e-13
0.0167995
5.44326e-06
-6.51343e-13
0.0167902
2.89031e-05
-2.42105e-12
0.0167827
5.29559e-05
-4.47531e-12
0.0167196
0.000257894
-1.86238e-11
0.0165697
0.00069661
-4.72351e-11
0.0157635
0.00392425
-1.39643e-10
0.0144012
0.00531121
3.25453e-11
0.0131616
0.00493964
4.68664e-12
0.0119054
0.00507912
-9.77542e-12
0.0105777
0.005373
-9.16035e-12
0.0091255
0.00580803
-7.57214e-12
0.00754823
0.00627028
-7.29294e-12
0.00584505
0.00673144
-8.28791e-12
0.00400262
0.00719191
-8.9097e-12
0.00202889
0.00761821
-9.63151e-12
0.00787004
-1.04364e-11
0.0168001
7.73547e-10
-4.62516e-16
0.0168001
4.2093e-09
-2.52962e-15
0.0168001
1.56359e-08
-5.29153e-15
0.0168
3.99281e-08
-1.09073e-14
0.0168
1.10589e-07
-1.89636e-14
0.0168
2.51431e-07
-3.37209e-14
0.0167998
6.75997e-07
-6.86821e-14
0.0167994
1.42332e-06
-1.00653e-13
0.0167986
4.45813e-06
-3.97038e-13
0.0167967
7.42754e-06
-3.04366e-13
0.0167921
3.33386e-05
-2.43554e-12
0.0167816
6.38193e-05
-3.47852e-12
0.0167468
0.00029216
-1.89281e-11
0.0166513
0.000792373
-4.51393e-11
0.0162017
0.00437397
-1.38429e-10
0.0148163
0.00669608
2.62064e-11
0.0135153
0.00624015
5.11215e-12
0.012237
0.00635665
-9.00232e-12
0.0109177
0.0066921
-8.85933e-12
0.00947029
0.00725365
-7.66815e-12
0.0078853
0.00785414
-6.83442e-12
0.00614912
0.00846457
-7.56835e-12
0.00425586
0.00908526
-8.00591e-12
0.00219432
0.00968077
-8.62217e-12
0.0100622
-9.33627e-12
0.0168001
9.25552e-10
-4.69681e-16
0.0168001
5.00385e-09
-2.54994e-15
0.0168001
1.86269e-08
-5.39759e-15
0.0168
4.76048e-08
-1.11818e-14
0.0168
1.31941e-07
-1.97798e-14
0.0168
3.01477e-07
-3.61434e-14
0.0167999
7.96734e-07
-7.14477e-14
0.0167995
1.76358e-06
-1.32597e-13
0.0167991
4.86083e-06
-3.48005e-13
0.0167966
1.00205e-05
-5.35911e-13
0.0167959
3.38565e-05
-2.34332e-12
0.0167911
6.89413e-05
-3.54672e-12
0.0167857
0.000297127
-1.66582e-11
0.01678
0.000798204
-4.12322e-11
0.0169311
0.0042227
-1.32483e-10
0.0155168
0.00810985
8.26444e-12
0.0140733
0.00768328
8.13898e-13
0.0127404
0.00768873
-8.13315e-12
0.0114077
0.00802459
-8.38244e-12
0.00998016
0.00867935
-7.94142e-12
0.00838417
0.00944957
-6.59743e-12
0.00662196
0.0102244
-7.01968e-12
0.00465186
0.0110554
-7.21073e-12
0.00242865
0.011905
-7.49602e-12
0.0124891
-7.95744e-12
0.0168001
9.6689e-10
-4.54984e-16
0.0168001
5.26993e-09
-2.48397e-15
0.0168001
1.95953e-08
-5.17643e-15
0.0168001
5.02703e-08
-1.07001e-14
0.0168
1.38231e-07
-1.82937e-14
0.0168
3.16206e-07
-3.30298e-14
0.0168
8.23876e-07
-6.16723e-14
0.0167999
1.83254e-06
-1.12726e-13
0.0167999
4.83943e-06
-2.70164e-13
0.0167994
1.05836e-05
-4.76208e-13
0.0168024
3.07066e-05
-1.70503e-12
0.0168027
6.89735e-05
-2.36993e-12
0.0168509
0.000248487
-1.19052e-11
0.0169838
0.00066544
-2.81782e-11
0.018072
0.00313415
-7.40202e-11
0.0166898
0.00949156
-4.39106e-11
0.0149045
0.00946823
-1.32094e-11
0.0134909
0.00910158
-8.50622e-12
0.0121338
0.0093813
-8.68984e-12
0.0106871
0.0101244
-8.89411e-12
0.00907966
0.0110559
-7.17929e-12
0.0072644
0.0120376
-6.81494e-12
0.00521612
0.0131039
-6.67945e-12
0.00283361
0.0142885
-6.49844e-12
0.0153213
-6.55102e-12
0.0168001
1.04307e-09
-4.50594e-16
0.0168001
5.7337e-09
-2.46179e-15
0.0168001
2.13695e-08
-5.1139e-15
0.0168001
5.50514e-08
-1.05597e-14
0.0168
1.51421e-07
-1.79202e-14
0.0168
3.47718e-07
-3.22527e-14
0.0167999
9.03525e-07
-5.94976e-14
0.0167997
2.03299e-06
-1.08938e-13
0.0167993
5.24538e-06
-2.52087e-13
0.016798
1.18962e-05
-4.74343e-13
0.0167978
3.08016e-05
-1.36864e-12
0.01679
7.70713e-05
-2.75432e-12
0.0168086
0.000229386
-9.03146e-12
0.0168295
0.000644754
-2.27525e-11
0.0172006
0.00276252
-6.58878e-11
0.0166592
0.0100323
-8.81546e-11
0.0151765
0.0109505
-2.916e-11
0.0140366
0.0102409
-7.32609e-12
0.0128032
0.0106142
-7.73012e-12
0.0114427
0.0114835
-8.93186e-12
0.00989833
0.012599
-8.25314e-12
0.00811555
0.0138187
-7.26443e-12
0.00602182
0.0151978
-6.55898e-12
0.0034342
0.0168774
-5.78044e-12
0.0187543
-5.31534e-12
0.0168001
1.3591e-09
-4.57019e-16
0.0168001
6.28519e-09
-2.48361e-15
0.0168001
2.52169e-08
-5.21528e-15
0.0168
6.03982e-08
-1.07746e-14
0.0168
1.76833e-07
-1.8702e-14
0.0168
3.8646e-07
-3.39624e-14
0.0167999
1.03256e-06
-6.48894e-14
0.0167995
2.34252e-06
-1.23846e-13
0.0167993
5.42493e-06
-2.67406e-13
0.0167977
1.36365e-05
-6.43226e-13
0.0167967
3.16004e-05
-1.07283e-12
0.0168016
7.24502e-05
-3.87508e-12
0.0167948
0.000235705
-6.89182e-12
0.0168034
0.000636377
-2.19085e-11
0.0169959
0.00256945
-5.6976e-11
0.0163089
0.0107182
-1.01343e-10
0.0157206
0.0115383
-1.13157e-11
0.0145289
0.011432
-4.58269e-12
0.0133178
0.0118254
-6.88336e-12
0.0121626
0.0126368
-7.83756e-12
0.0107724
0.0139885
-8.7344e-12
0.00915322
0.0154349
-7.1761e-12
0.00720534
0.0171456
-6.49934e-12
0.00451722
0.0195666
-5.11313e-12
0.0232708
-4.34007e-12
0.0168001
-4.50467e-16
1.84917e-09
0.0168001
-2.42766e-15
1.81433e-09
0.0168001
-5.01664e-15
2.50502e-08
0.0168001
-1.05851e-14
2.28242e-08
0.0168001
-1.70743e-14
1.71408e-07
0.0168003
-3.12952e-14
1.45738e-07
0.0168003
-5.52063e-14
1.04906e-06
0.0168019
-1.01757e-13
7.28199e-07
0.0168002
-2.20162e-13
7.10497e-06
0.0168112
-4.22618e-13
2.87634e-06
0.0167893
-1.12876e-12
5.3475e-05
0.0168515
-2.48882e-12
1.04184e-05
0.0167077
-5.88265e-12
0.000379056
0.0169906
-2.22737e-11
0.000353543
0.0169257
-4.7477e-11
0.00263391
0.0165401
-1.12071e-10
0.0111025
0.0156939
-6.21103e-12
0.0123842
0.0148302
-2.93751e-12
0.0122952
0.0139188
-7.23479e-12
0.0127364
0.0129197
-7.90177e-12
0.013635
0.0118483
-8.43968e-12
0.015059
0.0105722
-7.51807e-12
0.0167093
0.00880853
-5.99809e-12
0.0189082
0.00622835
-4.24451e-12
0.0221477
-3.53308e-12
0.0294988
0.0168001
1.78013e-10
1.76566e-16
0.0168001
9.67867e-10
1.83587e-16
0.0168001
3.602e-09
-3.15257e-17
0.0168
9.22415e-09
-6.80464e-17
0.0168
2.55482e-08
-1.82228e-16
0.0168
5.81971e-08
-3.68351e-16
0.0167998
1.55782e-07
-9.98986e-16
0.0167995
3.3644e-07
-1.9096e-15
0.0167985
9.74056e-07
-5.83218e-15
0.0167966
2.0104e-06
-1.01251e-14
0.0167897
6.61809e-06
-3.60586e-14
0.0167753
1.49574e-05
-6.91093e-14
0.0167099
6.48425e-05
-2.64504e-13
0.0165279
0.00018243
-6.64514e-13
0.0154518
0.00107653
-1.77382e-12
0.0141627
0.00128849
3.79238e-13
0.0129201
0.00124208
-2.58018e-13
0.0116285
0.00129072
-6.0475e-13
0.0102694
0.00135864
-6.15942e-13
0.00882299
0.0014444
-6.82024e-13
0.00727191
0.00154988
-7.75939e-13
0.0056092
0.00166011
-9.44213e-13
0.00384883
0.00176052
-9.79884e-13
0.00198404
0.00186564
-1.04507e-12
0.00198171
-1.13223e-12
0.0168001
3.52886e-10
1.76482e-16
0.0168001
1.91876e-09
1.83646e-16
0.0168001
7.14344e-09
-3.17332e-17
0.0168
1.82731e-08
-6.85131e-17
0.0168
5.07583e-08
-1.83666e-16
0.0168
1.15489e-07
-3.71363e-16
0.0167998
3.11459e-07
-1.00828e-15
0.0167995
6.6834e-07
-1.9301e-15
0.0167985
1.97213e-06
-5.89069e-15
0.0167966
4.01917e-06
-1.02473e-14
0.0167894
1.3505e-05
-3.64826e-14
0.0167746
3.02508e-05
-6.98882e-14
0.016707
0.000131935
-2.67149e-13
0.0165203
0.000369555
-6.71207e-13
0.0154557
0.00214155
-1.80519e-12
0.0141367
0.00260686
3.79364e-13
0.0129085
0.00246976
-2.60319e-13
0.0116358
0.00256254
-5.99468e-13
0.0102861
0.00270781
-6.0779e-13
0.00882738
0.00290121
-6.69901e-13
0.0072571
0.00311896
-7.63407e-13
0.00557815
0.00333647
-9.29345e-13
0.0037971
0.00354173
-9.65582e-13
0.00192303
0.00374056
-1.03147e-12
0.0039022
-1.12087e-12
0.0168001
5.1305e-10
1.76189e-16
0.0168001
2.76754e-09
1.84148e-16
0.0168001
1.03063e-08
-3.19314e-17
0.0168
2.6216e-08
-6.8929e-17
0.0168
7.31453e-08
-1.85358e-16
0.0168
1.65866e-07
-3.74856e-16
0.0167998
4.50018e-07
-1.02116e-15
0.0167996
9.61553e-07
-1.95875e-15
0.0167986
2.84921e-06
-5.98485e-15
0.016797
5.8004e-06
-1.04375e-14
0.0167903
1.98717e-05
-3.72883e-14
0.0167761
4.49527e-05
-7.1305e-14
0.0167122
0.000195387
-2.73013e-13
0.0165358
0.000546309
-6.87169e-13
0.0155598
0.00311791
-1.88833e-12
0.0142167
0.00394939
3.7169e-13
0.0129853
0.00370064
-2.66298e-13
0.0117231
0.00382379
-5.94407e-13
0.0103847
0.00404576
-5.99169e-13
0.00892602
0.00435795
-6.56681e-13
0.0073498
0.0046941
-7.43567e-13
0.00565285
0.00503083
-9.0489e-13
0.00384554
0.00534921
-9.37368e-13
0.00194348
0.00564351
-1.00253e-12
0.00584334
-1.0915e-12
0.0168001
5.70133e-10
1.75717e-16
0.0168001
3.17322e-09
1.85277e-16
0.0168001
1.17597e-08
-3.20534e-17
0.0168001
3.00916e-08
-6.91823e-17
0.0168
8.31908e-08
-1.87051e-16
0.0168
1.86786e-07
-3.78635e-16
0.0167999
5.2054e-07
-1.03691e-15
0.0167999
9.93793e-07
-1.99772e-15
0.016799
3.71656e-06
-6.10652e-15
0.0167995
5.4434e-06
-1.07034e-14
0.0167902
2.89029e-05
-3.8352e-14
0.0167827
5.29564e-05
-7.26716e-14
0.0167196
0.000257895
-2.80806e-13
0.0165697
0.000696613
-7.06803e-13
0.0157635
0.00392427
-2.00972e-12
0.0144012
0.0053112
3.35287e-13
0.0131616
0.00493963
-2.69747e-13
0.0119054
0.00507912
-5.88234e-13
0.0105777
0.005373
-5.90427e-13
0.0091255
0.00580803
-6.42218e-13
0.00754823
0.00627028
-7.18129e-13
0.00584506
0.00673144
-8.73351e-13
0.00400262
0.00719191
-8.97566e-13
0.00202889
0.00761822
-9.55686e-13
0.00787005
-1.03973e-12
0.0168001
7.73544e-10
1.72194e-16
0.0168001
4.2093e-09
1.92134e-16
0.0168001
1.56359e-08
-2.95242e-17
0.0168
3.99281e-08
-6.35004e-17
0.0168
1.10589e-07
-1.71545e-16
0.0168
2.5143e-07
-3.43763e-16
0.0167998
6.75997e-07
-9.65236e-16
0.0167994
1.42331e-06
-1.69262e-15
0.0167986
4.45816e-06
-6.23555e-15
0.0167967
7.42746e-06
-7.90702e-15
0.0167921
3.33389e-05
-4.38206e-14
0.0167816
6.38195e-05
-6.59474e-14
0.0167468
0.000292163
-2.93198e-13
0.0166513
0.000792379
-7.15992e-13
0.0162017
0.00437401
-2.12457e-12
0.0148162
0.00669606
2.12549e-13
0.0135153
0.00624013
-2.59641e-13
0.012237
0.00635664
-5.69394e-13
0.0109177
0.0066921
-5.79243e-13
0.00947029
0.00725364
-6.27784e-13
0.0078853
0.00785413
-6.80731e-13
0.00614912
0.00846457
-8.19961e-13
0.00425587
0.00908526
-8.38258e-13
0.00219432
0.00968078
-8.88834e-13
0.0100623
-9.70041e-13
0.0168001
9.25559e-10
1.73412e-16
0.0168001
5.00388e-09
1.90109e-16
0.0168001
1.8627e-08
-3.05211e-17
0.0168
4.76051e-08
-6.60067e-17
0.0168
1.31942e-07
-1.79408e-16
0.0168
3.01479e-07
-3.65884e-16
0.0167999
7.9674e-07
-9.95305e-16
0.0167995
1.76359e-06
-1.9876e-15
0.0167991
4.86088e-06
-5.87309e-15
0.0167966
1.00205e-05
-9.90418e-15
0.0167959
3.38569e-05
-3.98314e-14
0.0167911
6.89422e-05
-6.65539e-14
0.0167857
0.000297131
-2.81046e-13
0.01678
0.000798216
-7.02818e-13
0.0169311
0.00422277
-2.20941e-12
0.0155168
0.00810983
-1.08083e-13
0.0140732
0.00768325
-3.17223e-13
0.0127403
0.00768871
-5.39298e-13
0.0114077
0.00802458
-5.57575e-13
0.00998015
0.00867934
-6.21852e-13
0.00838416
0.00944956
-6.53194e-13
0.00662196
0.0102244
-7.71482e-13
0.00465186
0.0110554
-7.79531e-13
0.00242865
0.011905
-8.15285e-13
0.0124891
-8.85349e-13
0.0168001
9.66892e-10
1.71044e-16
0.0168001
5.26994e-09
1.97057e-16
0.0168001
1.95953e-08
-2.67815e-17
0.0168001
5.02705e-08
-5.79531e-17
0.0168
1.38231e-07
-1.55048e-16
0.0168
3.16207e-07
-3.155e-16
0.0168
8.23878e-07
-8.40661e-16
0.0167999
1.83254e-06
-1.67271e-15
0.0167999
4.83945e-06
-4.73683e-15
0.0167994
1.05836e-05
-8.65961e-15
0.0168024
3.07068e-05
-3.20459e-14
0.0168027
6.89736e-05
-4.53279e-14
0.0168509
0.00024849
-2.23957e-13
0.0169838
0.000665446
-5.2623e-13
0.0180721
0.00313418
-1.39303e-12
0.0166898
0.00949158
-1.04348e-12
0.0149045
0.00946822
-5.43238e-13
0.0134909
0.00910157
-5.24207e-13
0.0121338
0.0093813
-5.47708e-13
0.010687
0.0101244
-6.17742e-13
0.00907965
0.0110558
-6.29734e-13
0.0072644
0.0120376
-7.09698e-13
0.00521612
0.0131039
-7.21248e-13
0.00283361
0.0142885
-7.44818e-13
0.0153213
-8.08354e-13
0.0168001
1.04307e-09
1.70242e-16
0.0168001
5.7337e-09
1.9901e-16
0.0168001
2.13695e-08
-2.65367e-17
0.0168001
5.50513e-08
-5.73179e-17
0.0168
1.51421e-07
-1.54518e-16
0.0168
3.47717e-07
-3.14159e-16
0.0167999
9.03523e-07
-8.43086e-16
0.0167997
2.03299e-06
-1.68728e-15
0.0167993
5.24538e-06
-4.692e-15
0.016798
1.18962e-05
-9.16129e-15
0.0167978
3.08017e-05
-2.78597e-14
0.01679
7.70709e-05
-5.67034e-14
0.0168086
0.000229388
-1.85993e-13
0.0168295
0.000644756
-4.68278e-13
0.0172006
0.00276254
-1.36061e-12
0.0166592
0.0100323
-1.9161e-12
0.0151766
0.0109505
-8.11618e-13
0.0140366
0.0102408
-4.74816e-13
0.0128032
0.0106142
-5.07343e-13
0.0114427
0.0114835
-5.9526e-13
0.00989832
0.012599
-6.27812e-13
0.00811555
0.0138187
-6.82186e-13
0.00602182
0.0151978
-6.8279e-13
0.0034342
0.0168774
-6.99645e-13
0.0187543
-7.55714e-13
0.0168001
1.3591e-09
1.71144e-16
0.0168001
6.28523e-09
1.95994e-16
0.0168001
2.52171e-08
-3.01696e-17
0.0168
6.03983e-08
-6.50733e-17
0.0168
1.76834e-07
-1.8077e-16
0.0168
3.86461e-07
-3.70378e-16
0.0167999
1.03256e-06
-1.0167e-15
0.0167995
2.34253e-06
-2.12718e-15
0.0167993
5.42496e-06
-5.35573e-15
0.0167977
1.36365e-05
-1.35682e-14
0.0167967
3.16005e-05
-2.34306e-14
0.0168016
7.24508e-05
-8.55992e-14
0.0167948
0.000235706
-1.54283e-13
0.0168034
0.000636379
-4.89673e-13
0.0169959
0.00256946
-1.28467e-12
0.0163089
0.0107182
-2.34377e-12
0.0157207
0.0115383
-4.82911e-13
0.0145289
0.011432
-3.86852e-13
0.0133178
0.0118254
-4.73596e-13
0.0121626
0.0126368
-5.29478e-13
0.0107724
0.0139885
-5.9852e-13
0.00915322
0.0154349
-6.43052e-13
0.00720534
0.0171456
-6.72484e-13
0.00451722
0.0195666
-7.38783e-13
0.0232708
-7.53447e-13
0.0168001
1.70348e-16
1.84915e-09
0.0168001
2.02317e-16
1.8144e-09
0.0168001
-2.52289e-17
2.50501e-08
0.0168001
-5.45684e-17
2.28245e-08
0.0168001
-1.48472e-16
1.71408e-07
0.0168003
-3.0454e-16
1.4574e-07
0.0168003
-8.12997e-16
1.04906e-06
0.0168019
-1.68474e-15
7.28206e-07
0.0168002
-4.45479e-15
7.105e-06
0.0168112
-9.03196e-15
2.87639e-06
0.0167893
-2.62109e-14
5.34752e-05
0.0168515
-5.8251e-14
1.04187e-05
0.0167077
-1.43059e-13
0.000379057
0.0169906
-5.32494e-13
0.000353546
0.0169257
-1.15763e-12
0.00263391
0.0165401
-2.75494e-12
0.0111026
0.0156939
-3.72316e-13
0.0123842
0.0148302
-3.24492e-13
0.0122952
0.0139188
-4.57655e-13
0.0127364
0.0129197
-5.001e-13
0.013635
0.0118483
-5.5564e-13
0.015059
0.0105722
-5.98726e-13
0.0167093
0.00880853
-6.19227e-13
0.0189082
0.00622834
-6.44643e-13
0.0221477
-8.48309e-13
0.0294989
0.0168001
1.78013e-10
-2.22516e-18
0.0168001
9.67867e-10
-9.6765e-18
0.0168001
3.602e-09
-3.05957e-17
0.0168
9.22415e-09
-6.33657e-17
0.0168
2.55482e-08
-1.61135e-16
0.0168
5.81971e-08
-3.05815e-16
0.0167998
1.55782e-07
-7.66601e-16
0.0167995
3.3644e-07
-1.40086e-15
0.0167985
9.74056e-07
-4.08196e-15
0.0167966
2.0104e-06
-7.00492e-15
0.0167897
6.61809e-06
-2.44413e-14
0.0167753
1.49574e-05
-4.76635e-14
0.0167099
6.48425e-05
-1.78097e-13
0.0165279
0.00018243
-4.62119e-13
0.0154518
0.00107653
-1.28671e-12
0.0141627
0.00128849
2.93298e-13
0.0129201
0.00124208
-6.18352e-14
0.0116285
0.00129072
-2.06378e-13
0.0102694
0.00135864
-1.53827e-13
0.00882299
0.0014444
-1.60337e-13
0.00727191
0.00154988
-1.93192e-13
0.0056092
0.00166011
-4.28009e-13
0.00384883
0.00176052
-4.80831e-13
0.00198404
0.00186564
-5.5077e-13
0.00198171
-6.70364e-13
0.0168001
3.52886e-10
-2.26835e-18
0.0168001
1.91876e-09
-9.92384e-18
0.0168001
7.14344e-09
-3.12648e-17
0.0168
1.82731e-08
-6.46845e-17
0.0168
5.07583e-08
-1.64401e-16
0.0168
1.15489e-07
-3.11684e-16
0.0167998
3.11459e-07
-7.8118e-16
0.0167995
6.6834e-07
-1.42869e-15
0.0167985
1.97213e-06
-4.15859e-15
0.0167966
4.01917e-06
-7.14823e-15
0.0167894
1.3505e-05
-2.49256e-14
0.0167746
3.02508e-05
-4.85166e-14
0.016707
0.000131935
-1.8116e-13
0.0165203
0.000369555
-4.68667e-13
0.0154557
0.00214155
-1.30976e-12
0.0141367
0.00260686
3.01957e-13
0.0129085
0.00246976
-5.76661e-14
0.0116358
0.00256254
-1.79162e-13
0.0102861
0.00270781
-1.44767e-13
0.00882738
0.00290121
-1.49977e-13
0.0072571
0.00311896
-1.84536e-13
0.00557815
0.00333647
-4.04867e-13
0.0037971
0.00354173
-4.63471e-13
0.00192303
0.00374057
-5.3547e-13
0.0039022
-6.57703e-13
0.0168001
5.1305e-10
-2.34205e-18
0.0168001
2.76754e-09
-1.02152e-17
0.0168001
1.03063e-08
-3.23897e-17
0.0168
2.6216e-08
-6.68733e-17
0.0168
7.31454e-08
-1.69821e-16
0.0168
1.65866e-07
-3.21413e-16
0.0167998
4.50018e-07
-8.05745e-16
0.0167996
9.61553e-07
-1.47533e-15
0.0167986
2.84921e-06
-4.29611e-15
0.016797
5.8004e-06
-7.39786e-15
0.0167903
1.98717e-05
-2.58818e-14
0.0167761
4.49527e-05
-5.01593e-14
0.0167122
0.000195387
-1.87922e-13
0.0165358
0.000546309
-4.844e-13
0.0155598
0.00311791
-1.3751e-12
0.0142167
0.00394939
3.14628e-13
0.0129853
0.00370064
-5.12525e-14
0.0117231
0.00382379
-1.54882e-13
0.0103847
0.00404576
-1.32962e-13
0.00892602
0.00435795
-1.37003e-13
0.0073498
0.0046941
-1.71465e-13
0.00565285
0.00503083
-3.6022e-13
0.00384554
0.00534921
-4.23825e-13
0.00194348
0.00564351
-4.97795e-13
0.00584334
-6.18999e-13
0.0168001
5.70133e-10
-2.43691e-18
0.0168001
3.17322e-09
-1.06218e-17
0.0168001
1.17597e-08
-3.3634e-17
0.0168001
3.00916e-08
-6.93195e-17
0.0168
8.31908e-08
-1.76307e-16
0.0168
1.86786e-07
-3.33126e-16
0.0167999
5.2054e-07
-8.37376e-16
0.0167999
9.93793e-07
-1.53626e-15
0.016799
3.71656e-06
-4.48253e-15
0.0167995
5.4434e-06
-7.73517e-15
0.0167902
2.89029e-05
-2.71932e-14
0.0167827
5.29564e-05
-5.19635e-14
0.0167196
0.000257895
-1.97477e-13
0.0165697
0.000696613
-5.05102e-13
0.0157635
0.00392427
-1.47427e-12
0.0144012
0.0053112
3.14762e-13
0.0131616
0.00493963
-3.78393e-14
0.0119054
0.00507912
-1.37382e-13
0.0105777
0.005373
-1.19258e-13
0.0091255
0.00580803
-1.22646e-13
0.00754823
0.00627028
-1.52736e-13
0.00584506
0.00673144
-2.77111e-13
0.00400262
0.00719191
-3.45671e-13
0.00202889
0.00761822
-4.19773e-13
0.00787005
-5.40251e-13
0.0168001
7.73544e-10
-2.33358e-18
0.0168001
4.2093e-09
-1.02101e-17
0.0168001
1.56359e-08
-3.22245e-17
0.0168
3.99281e-08
-6.61609e-17
0.0168
1.10589e-07
-1.6776e-16
0.0168
2.5143e-07
-3.12917e-16
0.0167998
6.75997e-07
-8.03335e-16
0.0167994
1.42331e-06
-1.32919e-15
0.0167986
4.45816e-06
-4.7135e-15
0.0167967
7.42746e-06
-5.67354e-15
0.0167921
3.33389e-05
-3.22426e-14
0.0167816
6.38195e-05
-4.76562e-14
0.0167468
0.000292163
-2.11466e-13
0.0166513
0.000792379
-5.19119e-13
0.0162017
0.00437401
-1.56982e-12
0.0148162
0.00669606
2.60184e-13
0.0135153
0.00624013
-1.30569e-14
0.012237
0.00635664
-1.14833e-13
0.0109177
0.0066921