/*--------------------------------*- C++ -*----------------------------------*\
| =========                 |                                                 |
| \\      /  F ield         | OpenFOAM: The Open Source CFD Toolbox           |
|  \\    /   O peration     | Version:  4.1                                   |
|   \\  /    A nd           | Web:      www.OpenFOAM.org                      |
|    \\/     M anipulation  |                                                 |
\*---------------------------------------------------------------------------*/
FoamFile
{
    version     2.0;
    format      ascii;
    class       volScalarField;
    location    "9.48";
    object      T;
}
// * * * * * * * * * * * * * * * * * * * * * * * * * * * * * * * * * * * * * //

dimensions      [0 0 0 1 0 0 0];

internalField   nonuniform List<scalar> 
52500
(
0.999997
1.00003
1.00005
1.0002
1.00037
1.00118
1.00216
1.0066
1.01324
1.03547
1.09039
1.21315
1.61029
2.48376
2.70265
2.72798
2.72548
2.72619
2.73977
2.75189
2.76529
2.77375
2.78083
2.78569
2.78962
0.999997
1.00003
1.00005
1.0002
1.00036
1.00117
1.00214
1.00655
1.01311
1.03516
1.08944
1.2109
1.60495
2.47604
2.69951
2.72746
2.72482
2.72531
2.73887
2.75081
2.76422
2.77226
2.77936
2.7835
2.78668
0.999996
1.00002
1.00005
1.00019
1.00035
1.00115
1.0021
1.00643
1.01282
1.03457
1.08739
1.2065
1.59339
2.45917
2.69194
2.72599
2.72309
2.72342
2.737
2.74836
2.76171
2.76993
2.77636
2.78016
2.78238
0.999996
1.00002
1.00005
1.00019
1.00034
1.00111
1.00203
1.00622
1.01241
1.03342
1.08496
1.19863
1.57845
2.43311
2.68121
2.72403
2.72002
2.72004
2.73268
2.74466
2.75615
2.76415
2.77166
2.77578
2.77777
0.999996
1.00002
1.00005
1.00018
1.00033
1.00106
1.00194
1.00593
1.01186
1.03189
1.08171
1.18822
1.55811
2.3953
2.6665
2.72168
2.71639
2.71538
2.72673
2.7386
2.75145
2.75707
2.76185
2.76584
2.76706
0.999996
1.00002
1.00004
1.00017
1.00031
1.00099
1.00182
1.00552
1.01119
1.02971
1.07782
1.17573
1.53209
2.34318
2.64696
2.71847
2.71263
2.70867
2.72105
2.72757
2.74102
2.74913
2.75371
2.75653
2.75755
0.999995
1.00002
1.00004
1.00015
1.00028
1.00091
1.00169
1.00501
1.01043
1.02699
1.07262
1.16038
1.50279
2.27981
2.62185
2.71471
2.70799
2.70239
2.71448
2.72197
2.72825
2.73418
2.73799
2.73912
2.73688
0.999995
1.00002
1.00004
1.00014
1.00026
1.00084
1.00154
1.00463
1.00949
1.02489
1.06567
1.14759
1.45023
2.18565
2.5887
2.70694
2.6992
2.69058
2.70075
2.71057
2.71871
2.71968
2.72108
2.71926
2.71486
0.999995
1.00001
1.00003
1.00013
1.00023
1.00077
1.0014
1.00437
1.00841
1.02354
1.05597
1.13303
1.38533
2.06106
2.54668
2.69819
2.69088
2.67952
2.68829
2.69225
2.69973
2.69998
2.69609
2.68713
2.66385
0.999995
1.00001
1.00003
1.00011
1.0002
1.00066
1.00123
1.00377
1.00737
1.02056
1.04784
1.11744
1.32268
1.94127
2.479
2.66999
2.6678
2.66157
2.67507
2.67653
2.67986
2.67696
2.666
2.64343
2.59214
1.00001
1.00003
1.00006
1.00021
1.00037
1.00119
1.00217
1.00661
1.01326
1.03548
1.09041
1.21321
1.61041
2.48397
2.70278
2.72806
2.72557
2.72629
2.73987
2.75199
2.76539
2.77384
2.78092
2.78578
2.7897
1.00001
1.00003
1.00006
1.0002
1.00037
1.00118
1.00215
1.00656
1.01312
1.03517
1.08947
1.21095
1.60508
2.47624
2.69964
2.72755
2.72491
2.7254
2.73896
2.7509
2.76431
2.77234
2.77944
2.78359
2.78676
1.00001
1.00003
1.00006
1.0002
1.00036
1.00116
1.00211
1.00644
1.01283
1.03458
1.08741
1.20654
1.59351
2.45937
2.69207
2.72607
2.72317
2.72351
2.73709
2.74845
2.7618
2.77001
2.77644
2.78024
2.78246
1.00001
1.00003
1.00006
1.00019
1.00035
1.00112
1.00204
1.00623
1.01242
1.03344
1.08498
1.1987
1.57852
2.43329
2.68132
2.7241
2.7201
2.72011
2.73276
2.74474
2.75623
2.76423
2.77174
2.77586
2.77785
1
1.00003
1.00006
1.00019
1.00033
1.00107
1.00195
1.00594
1.01188
1.03191
1.08173
1.18828
1.55818
2.39549
2.66661
2.72174
2.71646
2.71546
2.72681
2.73868
2.75153
2.75715
2.76193
2.76592
2.76714
1
1.00003
1.00005
1.00017
1.00031
1.001
1.00183
1.00553
1.0112
1.02974
1.07783
1.17578
1.53214
2.34336
2.64707
2.71854
2.7127
2.70874
2.72113
2.72764
2.74109
2.7492
2.75379
2.75661
2.75763
1
1.00003
1.00005
1.00016
1.00029
1.00092
1.00169
1.00502
1.01045
1.02701
1.07264
1.16044
1.50287
2.28002
2.62195
2.71478
2.70805
2.70246
2.71455
2.72206
2.72832
2.73426
2.73806
2.7392
2.73696
1
1.00002
1.00004
1.00015
1.00027
1.00084
1.00155
1.00464
1.0095
1.02491
1.06568
1.14764
1.45031
2.18589
2.58881
2.70701
2.69927
2.69065
2.70082
2.71064
2.71879
2.71976
2.72116
2.71934
2.71494
1
1.00002
1.00004
1.00013
1.00024
1.00078
1.00141
1.00438
1.00842
1.02356
1.05599
1.13307
1.38542
2.0613
2.54679
2.69826
2.69095
2.67959
2.68837
2.69233
2.6998
2.70005
2.69616
2.68721
2.66392
1
1.00002
1.00004
1.00012
1.00021
1.00067
1.00124
1.00378
1.00738
1.02057
1.04786
1.11749
1.32277
1.94153
2.47912
2.67007
2.66787
2.66164
2.67514
2.6766
2.67993
2.67703
2.66607
2.6435
2.59221
1.00001
1.00003
1.00006
1.00021
1.00037
1.00119
1.00217
1.00661
1.01326
1.03548
1.09042
1.21321
1.61042
2.48398
2.70278
2.72806
2.72557
2.72629
2.73987
2.75199
2.76539
2.77384
2.78092
2.78578
2.7897
1.00001
1.00003
1.00006
1.0002
1.00037
1.00118
1.00215
1.00656
1.01312
1.03517
1.08947
1.21095
1.60508
2.47625
2.69965
2.72755
2.72491
2.7254
2.73896
2.7509
2.76431
2.77234
2.77944
2.78359
2.78676
1.00001
1.00003
1.00006
1.0002
1.00036
1.00116
1.00211
1.00644
1.01283
1.03458
1.08741
1.20655
1.59352
2.45938
2.69207
2.72607
2.72317
2.72351
2.73709
2.74845
2.7618
2.77001
2.77644
2.78024
2.78246
1.00001
1.00003
1.00006
1.00019
1.00035
1.00112
1.00204
1.00623
1.01243
1.03344
1.08498
1.1987
1.57853
2.43331
2.68132
2.7241
2.7201
2.72011
2.73276
2.74474
2.75623
2.76423
2.77174
2.77586
2.77786
1
1.00003
1.00006
1.00019
1.00033
1.00107
1.00195
1.00594
1.01188
1.03191
1.08173
1.18829
1.55819
2.39551
2.66661
2.72174
2.71646
2.71546
2.72681
2.73868
2.75153
2.75716
2.76193
2.76592
2.76714
1
1.00003
1.00005
1.00017
1.00031
1.001
1.00183
1.00553
1.0112
1.02974
1.07783
1.17579
1.53215
2.34338
2.64707
2.71854
2.7127
2.70874
2.72113
2.72764
2.74109
2.7492
2.75379
2.75662
2.75763
1
1.00003
1.00005
1.00016
1.00029
1.00092
1.00169
1.00502
1.01045
1.02701
1.07264
1.16044
1.50288
2.28004
2.62196
2.71478
2.70805
2.70246
2.71455
2.72206
2.72833
2.73426
2.73806
2.7392
2.73696
1
1.00002
1.00004
1.00015
1.00027
1.00084
1.00155
1.00464
1.0095
1.02491
1.06568
1.14764
1.45032
2.18591
2.58882
2.70701
2.69927
2.69065
2.70082
2.71064
2.71879
2.71976
2.72116
2.71934
2.71494
1
1.00002
1.00004
1.00013
1.00024
1.00078
1.00141
1.00438
1.00842
1.02356
1.05599
1.13308
1.38543
2.06132
2.5468
2.69827
2.69095
2.6796
2.68837
2.69233
2.6998
2.70005
2.69616
2.68721
2.66392
1
1.00002
1.00004
1.00012
1.00021
1.00067
1.00124
1.00378
1.00738
1.02057
1.04786
1.11749
1.32278
1.94156
2.47913
2.67007
2.66787
2.66164
2.67514
2.6766
2.67993
2.67703
2.66607
2.64351
2.59221
1.00001
1.00003
1.00006
1.00021
1.00037
1.00119
1.00217
1.00661
1.01326
1.03548
1.09042
1.21321
1.61042
2.48398
2.70278
2.72806
2.72557
2.72629
2.73987
2.75199
2.76539
2.77384
2.78092
2.78578
2.7897
1.00001
1.00003
1.00006
1.0002
1.00037
1.00118
1.00215
1.00656
1.01312
1.03517
1.08947
1.21095
1.60509
2.47626
2.69965
2.72755
2.72491
2.7254
2.73896
2.75091
2.76431
2.77234
2.77944
2.78359
2.78676
1.00001
1.00003
1.00006
1.0002
1.00036
1.00116
1.00211
1.00644
1.01283
1.03458
1.08741
1.20655
1.59352
2.45938
2.69207
2.72607
2.72317
2.72351
2.73709
2.74845
2.7618
2.77001
2.77644
2.78024
2.78246
1.00001
1.00003
1.00006
1.00019
1.00035
1.00112
1.00204
1.00623
1.01243
1.03344
1.08498
1.1987
1.57853
2.43331
2.68132
2.7241
2.7201
2.72011
2.73276
2.74474
2.75623
2.76423
2.77174
2.77586
2.77786
1
1.00003
1.00006
1.00019
1.00033
1.00107
1.00195
1.00594
1.01188
1.03191
1.08173
1.18829
1.55819
2.39551
2.66661
2.72174
2.71646
2.71546
2.72681
2.73868
2.75153
2.75716
2.76193
2.76592
2.76714
1
1.00003
1.00005
1.00017
1.00031
1.001
1.00183
1.00553
1.0112
1.02974
1.07783
1.17579
1.53215
2.34338
2.64707
2.71854
2.7127
2.70874
2.72113
2.72764
2.74109
2.7492
2.75379
2.75662
2.75763
1
1.00003
1.00005
1.00016
1.00029
1.00092
1.00169
1.00502
1.01045
1.02701
1.07264
1.16044
1.50288
2.28004
2.62196
2.71478
2.70805
2.70246
2.71456
2.72206
2.72833
2.73426
2.73806
2.7392
2.73696
1
1.00002
1.00004
1.00015
1.00027
1.00084
1.00155
1.00464
1.0095
1.02491
1.06568
1.14764
1.45032
2.18591
2.58882
2.70701
2.69927
2.69065
2.70082
2.71064
2.71879
2.71976
2.72116
2.71934
2.71494
1
1.00002
1.00004
1.00013
1.00024
1.00078
1.00141
1.00438
1.00842
1.02356
1.05599
1.13308
1.38543
2.06133
2.5468
2.69827
2.69095
2.6796
2.68837
2.69233
2.6998
2.70005
2.69616
2.68721
2.66392
1
1.00002
1.00004
1.00012
1.00021
1.00067
1.00124
1.00378
1.00738
1.02057
1.04786
1.11749
1.32278
1.94156
2.47913
2.67007
2.66787
2.66164
2.67514
2.6766
2.67993
2.67703
2.66607
2.64351
2.59221
1.00001
1.00003
1.00006
1.00021
1.00037
1.00119
1.00217
1.00661
1.01326
1.03548
1.09042
1.21321
1.61042
2.48398
2.70278
2.72806
2.72557
2.72629
2.73987
2.75199
2.76539
2.77384
2.78092
2.78578
2.7897
1.00001
1.00003
1.00006
1.0002
1.00037
1.00118
1.00215
1.00656
1.01312
1.03517
1.08947
1.21095
1.60509
2.47626
2.69965
2.72755
2.72491
2.7254
2.73896
2.75091
2.76431
2.77234
2.77944
2.78359
2.78677
1.00001
1.00003
1.00006
1.0002
1.00036
1.00116
1.00211
1.00644
1.01283
1.03458
1.08741
1.20655
1.59352
2.45938
2.69207
2.72607
2.72317
2.72351
2.73709
2.74845
2.7618
2.77001
2.77644
2.78024
2.78246
1.00001
1.00003
1.00006
1.00019
1.00035
1.00112
1.00204
1.00623
1.01243
1.03344
1.08498
1.1987
1.57853
2.43331
2.68132
2.7241
2.7201
2.72011
2.73276
2.74474
2.75623
2.76423
2.77174
2.77586
2.77786
1
1.00003
1.00006
1.00019
1.00033
1.00107
1.00195
1.00594
1.01188
1.03191
1.08173
1.18829
1.55819
2.39551
2.66661
2.72174
2.71646
2.71546
2.72681
2.73868
2.75153
2.75716
2.76193
2.76592
2.76714
1
1.00003
1.00005
1.00017
1.00031
1.001
1.00183
1.00553
1.0112
1.02974
1.07783
1.17579
1.53215
2.34338
2.64708
2.71854
2.7127
2.70874
2.72113
2.72764
2.74109
2.7492
2.75379
2.75662
2.75763
1
1.00003
1.00005
1.00016
1.00029
1.00092
1.00169
1.00502
1.01045
1.02701
1.07264
1.16044
1.50288
2.28004
2.62196
2.71478
2.70805
2.70246
2.71456
2.72206
2.72833
2.73426
2.73806
2.7392
2.73696
1
1.00002
1.00004
1.00015
1.00027
1.00084
1.00155
1.00464
1.0095
1.02491
1.06568
1.14764
1.45032
2.18591
2.58882
2.70701
2.69927
2.69065
2.70082
2.71064
2.71879
2.71976
2.72116
2.71934
2.71494
1
1.00002
1.00004
1.00013
1.00024
1.00078
1.00141
1.00438
1.00842
1.02356
1.05599
1.13308
1.38543
2.06133
2.5468
2.69827
2.69095
2.6796
2.68837
2.69233
2.6998
2.70005
2.69616
2.68721
2.66392
1
1.00002
1.00004
1.00012
1.00021
1.00067
1.00124
1.00378
1.00738
1.02057
1.04786
1.11749
1.32278
1.94157
2.47913
2.67007
2.66787
2.66164
2.67514
2.67661
2.67994
2.67703
2.66607
2.64351
2.59221
1.00001
1.00003
1.00006
1.00021
1.00037
1.00119
1.00217
1.00661
1.01326
1.03548
1.09042
1.21321
1.61042
2.48398
2.70278
2.72806
2.72557
2.72629
2.73987
2.75199
2.76539
2.77384
2.78092
2.78578
2.7897
1.00001
1.00003
1.00006
1.0002
1.00037
1.00118
1.00215
1.00656
1.01312
1.03517
1.08947
1.21095
1.60509
2.47626
2.69965
2.72755
2.72491
2.7254
2.73896
2.75091
2.76431
2.77234
2.77944
2.78359
2.78677
1.00001
1.00003
1.00006
1.0002
1.00036
1.00116
1.00211
1.00644
1.01283
1.03458
1.08741
1.20655
1.59352
2.45938
2.69207
2.72607
2.72317
2.72351
2.73709
2.74845
2.7618
2.77001
2.77644
2.78024
2.78246
1.00001
1.00003
1.00006
1.00019
1.00035
1.00112
1.00204
1.00623
1.01243
1.03344
1.08498
1.1987
1.57853
2.43331
2.68132
2.7241
2.7201
2.72011
2.73276
2.74474
2.75623
2.76423
2.77174
2.77586
2.77786
1
1.00003
1.00006
1.00019
1.00033
1.00107
1.00195
1.00594
1.01188
1.03191
1.08173
1.18829
1.55819
2.39551
2.66661
2.72174
2.71646
2.71546
2.72681
2.73868
2.75153
2.75716
2.76193
2.76592
2.76714
1
1.00003
1.00005
1.00017
1.00031
1.001
1.00183
1.00553
1.0112
1.02974
1.07783
1.17579
1.53215
2.34338
2.64708
2.71854
2.7127
2.70874
2.72113
2.72764
2.74109
2.7492
2.75379
2.75662
2.75763
1
1.00003
1.00005
1.00016
1.00029
1.00092
1.00169
1.00502
1.01045
1.02701
1.07264
1.16044
1.50288
2.28004
2.62196
2.71478
2.70805
2.70246
2.71456
2.72206
2.72833
2.73426
2.73806
2.7392
2.73696
1
1.00002
1.00004
1.00015
1.00027
1.00084
1.00155
1.00464
1.0095
1.02491
1.06568
1.14764
1.45032
2.18591
2.58882
2.70701
2.69927
2.69065
2.70082
2.71064
2.71879
2.71976
2.72116
2.71934
2.71494
1
1.00002
1.00004
1.00013
1.00024
1.00078
1.00141
1.00438
1.00842
1.02356
1.05599
1.13308
1.38543
2.06133
2.5468
2.69827
2.69095
2.6796
2.68837
2.69233
2.6998
2.70005
2.69616
2.68721
2.66392
1
1.00002
1.00004
1.00012
1.00021
1.00067
1.00124
1.00378
1.00738
1.02057
1.04786
1.11749
1.32278
1.94157
2.47913
2.67007
2.66787
2.66164
2.67514
2.67661
2.67994
2.67703
2.66607
2.64351
2.59221
1.00001
1.00003
1.00006
1.00021
1.00037
1.00119
1.00217
1.00661
1.01326
1.03548
1.09042
1.21321
1.61042
2.48398
2.70278
2.72806
2.72557
2.72629
2.73987
2.75199
2.76539
2.77384
2.78092
2.78578
2.7897
1.00001
1.00003
1.00006
1.0002
1.00037
1.00118
1.00215
1.00656
1.01312
1.03517
1.08947
1.21095
1.60509
2.47626
2.69965
2.72755
2.72491
2.7254
2.73896
2.75091
2.76431
2.77234
2.77944
2.78359
2.78676
1.00001
1.00003
1.00006
1.0002
1.00036
1.00116
1.00211
1.00644
1.01283
1.03458
1.08741
1.20655
1.59352
2.45938
2.69207
2.72607
2.72317
2.72351
2.73709
2.74845
2.7618
2.77001
2.77644
2.78024
2.78246
1.00001
1.00003
1.00006
1.00019
1.00035
1.00112
1.00204
1.00623
1.01243
1.03344
1.08498
1.1987
1.57853
2.43331
2.68132
2.7241
2.7201
2.72011
2.73276
2.74474
2.75623
2.76423
2.77174
2.77586
2.77786
1
1.00003
1.00006
1.00019
1.00033
1.00107
1.00195
1.00594
1.01188
1.03191
1.08173
1.18829
1.55819
2.39551
2.66661
2.72174
2.71646
2.71546
2.72681
2.73868
2.75153
2.75716
2.76193
2.76592
2.76714
1
1.00003
1.00005
1.00017
1.00031
1.001
1.00183
1.00553
1.0112
1.02974
1.07783
1.17579
1.53215
2.34338
2.64707
2.71854
2.7127
2.70874
2.72113
2.72764
2.74109
2.7492
2.75379
2.75662
2.75763
1
1.00003
1.00005
1.00016
1.00029
1.00092
1.00169
1.00502
1.01045
1.02701
1.07264
1.16044
1.50288
2.28004
2.62196
2.71478
2.70805
2.70246
2.71456
2.72206
2.72833
2.73426
2.73806
2.7392
2.73696
1
1.00002
1.00004
1.00015
1.00027
1.00084
1.00155
1.00464
1.0095
1.02491
1.06568
1.14764
1.45032
2.18591
2.58882
2.70701
2.69927
2.69065
2.70082
2.71064
2.71879
2.71976
2.72116
2.71934
2.71494
1
1.00002
1.00004
1.00013
1.00024
1.00078
1.00141
1.00438
1.00842
1.02356
1.05599
1.13308
1.38543
2.06133
2.5468
2.69827
2.69095
2.6796
2.68837
2.69233
2.6998
2.70005
2.69616
2.68721
2.66392
1
1.00002
1.00004
1.00012
1.00021
1.00067
1.00124
1.00378
1.00738
1.02057
1.04786
1.11749
1.32278
1.94156
2.47913
2.67007
2.66787
2.66164
2.67514
2.6766
2.67994
2.67703
2.66607
2.64351
2.59221
1.00001
1.00003
1.00006
1.00021
1.00037
1.00119
1.00217
1.00661
1.01326
1.03548
1.09042
1.21321
1.61042
2.48398
2.70278
2.72806
2.72557
2.72629
2.73987
2.75199
2.76539
2.77384
2.78092
2.78578
2.7897
1.00001
1.00003
1.00006
1.0002
1.00037
1.00118
1.00215
1.00656
1.01312
1.03517
1.08947
1.21095
1.60508
2.47625
2.69965
2.72755
2.72491
2.7254
2.73896
2.7509
2.76431
2.77234
2.77944
2.78359
2.78676
1.00001
1.00003
1.00006
1.0002
1.00036
1.00116
1.00211
1.00644
1.01283
1.03458
1.08741
1.20655
1.59352
2.45938
2.69207
2.72607
2.72317
2.72351
2.73709
2.74845
2.7618
2.77001
2.77644
2.78024
2.78246
1.00001
1.00003
1.00006
1.00019
1.00035
1.00112
1.00204
1.00623
1.01243
1.03344
1.08498
1.1987
1.57853
2.43331
2.68132
2.7241
2.7201
2.72011
2.73276
2.74474
2.75623
2.76423
2.77174
2.77586
2.77786
1
1.00003
1.00006
1.00019
1.00033
1.00107
1.00195
1.00594
1.01188
1.03191
1.08173
1.18829
1.55819
2.39551
2.66661
2.72174
2.71646
2.71546
2.72681
2.73868
2.75153
2.75716
2.76193
2.76592
2.76714
1
1.00003
1.00005
1.00017
1.00031
1.001
1.00183
1.00553
1.0112
1.02974
1.07783
1.17579
1.53215
2.34338
2.64707
2.71854
2.7127
2.70874
2.72113
2.72764
2.74109
2.7492
2.75379
2.75662
2.75763
1
1.00003
1.00005
1.00016
1.00029
1.00092
1.00169
1.00502
1.01045
1.02701
1.07264
1.16044
1.50288
2.28004
2.62196
2.71478
2.70805
2.70246
2.71455
2.72206
2.72833
2.73426
2.73806
2.7392
2.73696
1
1.00002
1.00004
1.00015
1.00027
1.00084
1.00155
1.00464
1.0095
1.02491
1.06568
1.14764
1.45032
2.18591
2.58882
2.70701
2.69927
2.69065
2.70082
2.71064
2.71879
2.71976
2.72116
2.71934
2.71494
1
1.00002
1.00004
1.00013
1.00024
1.00078
1.00141
1.00438
1.00842
1.02356
1.05599
1.13308
1.38543
2.06132
2.5468
2.69827
2.69095
2.6796
2.68837
2.69233
2.6998
2.70005
2.69616
2.68721
2.66392
1
1.00002
1.00004
1.00012
1.00021
1.00067
1.00124
1.00378
1.00738
1.02057
1.04786
1.11749
1.32278
1.94156
2.47913
2.67007
2.66787
2.66164
2.67514
2.6766
2.67993
2.67703
2.66607
2.64351
2.59221
1.00001
1.00003
1.00006
1.00021
1.00037
1.00119
1.00217
1.00661
1.01326
1.03548
1.09041
1.21321
1.61041
2.48397
2.70278
2.72806
2.72557
2.72629
2.73987
2.75199
2.76539
2.77384
2.78092
2.78578
2.7897
1.00001
1.00003
1.00006
1.0002
1.00037
1.00118
1.00215
1.00656
1.01312
1.03517
1.08947
1.21095
1.60508
2.47624
2.69964
2.72755
2.72491
2.7254
2.73896
2.7509
2.76431
2.77234
2.77944
2.78359
2.78676
1.00001
1.00003
1.00006
1.0002
1.00036
1.00116
1.00211
1.00644
1.01283
1.03458
1.08741
1.20654
1.59351
2.45937
2.69207
2.72607
2.72317
2.72351
2.73709
2.74845
2.7618
2.77001
2.77644
2.78024
2.78246
1.00001
1.00003
1.00006
1.00019
1.00035
1.00112
1.00204
1.00623
1.01242
1.03344
1.08498
1.1987
1.57852
2.43329
2.68132
2.7241
2.7201
2.72011
2.73276
2.74474
2.75623
2.76423
2.77174
2.77586
2.77785
1
1.00003
1.00006
1.00019
1.00033
1.00107
1.00195
1.00594
1.01188
1.03191
1.08173
1.18828
1.55818
2.39549
2.66661
2.72174
2.71646
2.71546
2.72681
2.73868
2.75153
2.75715
2.76193
2.76592
2.76714
1
1.00003
1.00005
1.00017
1.00031
1.001
1.00183
1.00553
1.0112
1.02974
1.07783
1.17578
1.53214
2.34336
2.64707
2.71854
2.7127
2.70874
2.72113
2.72764
2.74109
2.7492
2.75379
2.75661
2.75763
1
1.00003
1.00005
1.00016
1.00029
1.00092
1.00169
1.00502
1.01045
1.02701
1.07264
1.16044
1.50287
2.28002
2.62195
2.71478
2.70805
2.70246
2.71455
2.72206
2.72832
2.73426
2.73806
2.7392
2.73696
1
1.00002
1.00004
1.00015
1.00027
1.00084
1.00155
1.00464
1.0095
1.02491
1.06568
1.14764
1.45031
2.18589
2.58881
2.70701
2.69927
2.69065
2.70082
2.71064
2.71879
2.71976
2.72116
2.71934
2.71494
1
1.00002
1.00004
1.00013
1.00024
1.00078
1.00141
1.00438
1.00842
1.02356
1.05599
1.13307
1.38542
2.0613
2.54679
2.69826
2.69095
2.67959
2.68837
2.69233
2.6998
2.70005
2.69616
2.68721
2.66392
1
1.00002
1.00004
1.00012
1.00021
1.00067
1.00124
1.00378
1.00738
1.02057
1.04786
1.11749
1.32277
1.94153
2.47912
2.67007
2.66787
2.66164
2.67514
2.6766
2.67993
2.67703
2.66607
2.6435
2.59221
0.999997
1.00003
1.00005
1.0002
1.00037
1.00118
1.00216
1.0066
1.01324
1.03547
1.09039
1.21315
1.61029
2.48376
2.70264
2.72798
2.72548
2.72618
2.73977
2.75189
2.76529
2.77375
2.78083
2.78569
2.78962
0.999997
1.00003
1.00005
1.0002
1.00036
1.00117
1.00214
1.00655
1.01311
1.03516
1.08944
1.2109
1.60495
2.47603
2.69951
2.72746
2.72482
2.72531
2.73887
2.75081
2.76422
2.77226
2.77936
2.7835
2.78668
0.999996
1.00002
1.00005
1.00019
1.00035
1.00115
1.0021
1.00643
1.01282
1.03457
1.08739
1.2065
1.59339
2.45917
2.69194
2.72599
2.72309
2.72342
2.737
2.74836
2.76171
2.76993
2.77636
2.78016
2.78238
0.999996
1.00002
1.00005
1.00019
1.00034
1.00111
1.00203
1.00622
1.01241
1.03342
1.08496
1.19863
1.57845
2.43311
2.68121
2.72403
2.72002
2.72004
2.73268
2.74466
2.75615
2.76415
2.77166
2.77578
2.77777
0.999996
1.00002
1.00005
1.00018
1.00033
1.00106
1.00194
1.00593
1.01186
1.03189
1.08171
1.18822
1.55811
2.3953
2.6665
2.72168
2.71639
2.71538
2.72673
2.7386
2.75145
2.75707
2.76185
2.76584
2.76706
0.999996
1.00002
1.00004
1.00017
1.00031
1.00099
1.00182
1.00552
1.01119
1.02971
1.07782
1.17573
1.53209
2.34318
2.64696
2.71847
2.71263
2.70867
2.72105
2.72757
2.74102
2.74913
2.75371
2.75653
2.75755
0.999995
1.00002
1.00004
1.00015
1.00028
1.00091
1.00169
1.00501
1.01043
1.02699
1.07262
1.16038
1.50279
2.27981
2.62185
2.71471
2.70799
2.70239
2.71448
2.72197
2.72825
2.73418
2.73799
2.73912
2.73688
0.999995
1.00002
1.00004
1.00014
1.00026
1.00084
1.00154
1.00463
1.00949
1.02489
1.06567
1.14759
1.45023
2.18565
2.5887
2.70694
2.6992
2.69058
2.70075
2.71057
2.71871
2.71968
2.72108
2.71926
2.71486
0.999995
1.00001
1.00003
1.00013
1.00023
1.00077
1.0014
1.00437
1.00841
1.02354
1.05597
1.13303
1.38533
2.06106
2.54668
2.69819
2.69088
2.67952
2.68829
2.69225
2.69973
2.69998
2.69609
2.68713
2.66385
0.999995
1.00001
1.00003
1.00011
1.0002
1.00066
1.00123
1.00377
1.00737
1.02056
1.04784
1.11744
1.32268
1.94127
2.479
2.66999
2.6678
2.66157
2.67507
2.67653
2.67986
2.67696
2.666
2.64343
2.59214
0.999997
1
1.00003
1.00007
1.00023
1.00043
1.00132
1.00257
1.0071
1.01624
1.03943
1.11187
1.25399
1.69715
2.49488
2.65131
2.63769
2.63793
2.64716
2.65441
2.65425
2.64712
2.62613
2.57545
2.41431
0.999996
1
1.00003
1.00006
1.00021
1.00038
1.00123
1.00224
1.00686
1.01367
1.03671
1.09253
1.22114
1.61719
2.44998
2.62883
2.62711
2.6218
2.62266
2.63013
2.62889
2.61576
2.58396
2.5257
2.36777
0.999996
1
1.00002
1.00005
1.00018
1.00033
1.00105
1.00192
1.0059
1.01169
1.03159
1.07971
1.18523
1.54124
2.34263
2.58461
2.621
2.61481
2.6011
2.60226
2.59986
2.58511
2.54592
2.49291
2.37216
0.999996
1
1.00002
1.00004
1.00015
1.00027
1.00087
1.00161
1.00474
1.00991
1.02545
1.06843
1.15048
1.47091
2.18709
2.53314
2.6189
2.60776
2.59584
2.57799
2.56953
2.55344
2.5187
2.4749
2.38088
0.999995
0.999998
1.00001
1.00003
1.00012
1.00023
1.00073
1.00135
1.00416
1.00813
1.02248
1.05368
1.12877
1.3636
2.03324
2.4291
2.59854
2.59183
2.58503
2.56959
2.54577
2.52612
2.48546
2.4556
2.3901
0.999994
0.999999
1.00001
1.00003
1.00007
1.00023
1.00043
1.00132
1.00259
1.007
1.01647
1.03929
1.11191
1.25339
1.68811
2.37394
2.55561
2.555
2.55592
2.55052
2.53322
2.51215
2.46773
2.42546
2.38582
0.999994
0.999998
1
1.00003
1.00006
1.0002
1.00036
1.00115
1.0021
1.00647
1.01272
1.03451
1.08555
1.20326
1.57156
2.32299
2.52679
2.5335
2.52817
2.52385
2.51289
2.4993
2.46719
2.41824
2.37503
0.999994
0.999997
1
1.00002
1.00004
1.00015
1.00027
1.00086
1.00164
1.00469
1.01021
1.02553
1.07041
1.15318
1.48113
2.19632
2.46834
2.52674
2.511
2.50531
2.49117
2.47556
2.45983
2.42372
2.37755
0.999994
0.999995
1
1.00001
1.00004
1.00008
1.00027
1.00052
1.00146
1.0032
1.00793
1.0212
1.04711
1.14193
1.32044
1.92112
2.36816
2.51165
2.50538
2.4942
2.48357
2.46216
2.4451
2.42318
2.38619
0.999993
0.999994
0.999998
1
1.00003
1.00006
1.00022
1.0004
1.00128
1.00238
1.00705
1.01461
1.03786
1.0972
1.23466
1.60517
2.28892
2.46797
2.48061
2.4761
2.46698
2.4549
2.43564
2.4198
2.39753
0.999992
0.999994
0.999995
1
1.00001
1.00006
1.00012
1.00038
1.00073
1.00213
1.00448
1.01146
1.02966
1.06718
1.19768
1.4728
2.13372
2.43628
2.47574
2.46581
2.4564
2.44422
2.43062
2.41953
2.40582
0.999992
0.999993
0.999994
1
1.00001
1.00005
1.00009
1.0003
1.00056
1.00175
1.00335
1.00932
1.02129
1.05122
1.1464
1.34088
1.87305
2.33815
2.46524
2.46253
2.45264
2.44466
2.43283
2.42539
2.41686
0.999992
0.999992
0.999994
0.999997
1.00001
1.00002
1.00009
1.00017
1.00055
1.00103
1.0031
1.0061
1.01701
1.03768
1.09774
1.239
1.71962
2.17394
2.42339
2.45049
2.45293
2.44855
2.44201
2.43688
2.4272
0.999992
0.999992
0.999993
0.999995
1
1.00001
1.00006
1.00013
1.00041
1.00076
1.00232
1.00446
1.01251
1.02815
1.06804
1.18594
1.47508
2.06907
2.36886
2.44103
2.44952
2.45932
2.45848
2.45469
2.44486
0.999991
0.999992
0.999992
0.999995
0.999998
1.00001
1.00003
1.00012
1.00023
1.00072
1.00136
1.00402
1.00818
1.02152
1.05416
1.12426
1.35451
1.92954
2.29253
2.44078
2.45894
2.46848
2.47079
2.46648
2.45632
0.999991
0.999991
0.999992
0.999994
0.999996
1.00001
1.00002
1.00009
1.00017
1.00055
1.00101
1.0031
1.00595
1.01708
1.03642
1.09728
1.23163
1.72114
2.15739
2.41811
2.46843
2.47457
2.48544
2.47964
2.46717
0.999991
0.999991
0.999992
0.999993
0.999996
1
1.00002
1.00005
1.00016
1.0003
1.00094
1.00179
1.0051
1.01103
1.02765
1.0751
1.16345
1.49844
2.15754
2.41018
2.49386
2.49202
2.49131
2.48386
2.46768
0.999991
0.999991
0.999992
0.999992
0.999995
0.999998
1.00001
1.00003
1.00012
1.00024
1.00076
1.0014
1.00428
1.00837
1.02321
1.05458
1.1323
1.36626
2.01844
2.37395
2.52819
2.52587
2.5109
2.49451
2.46957
0.999991
0.999991
0.999991
0.999992
0.999993
0.999998
1
1.00003
1.00007
1.00023
1.00043
1.00131
1.00261
1.00708
1.0165
1.03965
1.11071
1.26022
1.66703
2.38667
2.55809
2.55382
2.5269
2.5018
2.47224
0.999991
0.999991
0.999991
0.999992
0.999993
0.999995
1.00001
1.00002
1.00007
1.00014
1.00046
1.00087
1.00256
1.00538
1.01391
1.03625
1.08195
1.24132
1.61167
2.32551
2.6178
2.61637
2.57422
2.52689
2.48306
0.999991
0.999991
0.999991
0.999991
0.999993
0.999995
1
1.00001
1.00006
1.00012
1.00038
1.00072
1.0021
1.00451
1.01144
1.03074
1.06866
1.21058
1.51166
2.21255
2.59977
2.66253
2.62019
2.57815
2.5213
0.999991
0.999991
0.999991
0.999992
0.999992
0.999995
0.999999
1.00002
1.00004
1.00014
1.00026
1.00082
1.00159
1.00451
1.01003
1.02497
1.06972
1.1523
1.47989
2.20629
2.56907
2.68055
2.63759
2.59874
2.55525
0.999991
0.999991
0.999991
0.999991
0.999992
0.999995
0.999998
1.00001
1.00003
1.00013
1.00023
1.00077
1.00141
1.00441
1.00855
1.02392
1.05754
1.13709
1.39997
2.09063
2.56311
2.70429
2.66617
2.617
2.57677
0.999991
0.999991
0.999991
0.999991
0.999992
0.999994
0.999997
1.00001
1.00003
1.00011
1.00021
1.00068
1.00125
1.00392
1.00754
1.02154
1.04925
1.12233
1.33908
1.96142
2.54258
2.71002
2.6757
2.62681
2.59421
0.999991
0.999991
0.999991
0.999991
0.999992
0.999994
0.999997
1.00001
1.00002
1.0001
1.00019
1.0006
1.00112
1.00347
1.00681
1.0191
1.04449
1.10979
1.30247
1.88125
2.50072
2.71369
2.68676
2.64324
2.61217
0.999991
0.999991
0.999991
0.999991
0.999992
0.999993
0.999997
1
1.00003
1.00006
1.00021
1.0004
1.00121
1.00251
1.00653
1.01643
1.0382
1.11243
1.25313
1.71256
2.55552
2.72496
2.68955
2.66293
2.63018
0.999991
0.999991
0.999991
0.999991
0.999992
0.999993
0.999995
1
1.00002
1.00007
1.00014
1.00045
1.00091
1.00248
1.0059
1.01414
1.03999
1.08651
1.27073
1.69727
2.47193
2.72373
2.70575
2.6831
2.64684
0.999991
0.999991
0.999991
0.999991
0.999992
0.999993
0.999997
1
1.00002
1.00005
1.00019
1.00035
1.00112
1.00215
1.00629
1.01356
1.03501
1.09503
1.22055
1.63866
2.49129
2.70906
2.70859
2.6878
2.6553
0.999991
0.999991
0.999991
0.999991
0.999992
0.999992
0.999996
1
1.00002
1.00005
1.00017
1.00032
1.00103
1.00198
1.00577
1.01255
1.03227
1.08918
1.20322
1.60591
2.45712
2.71087
2.71774
2.69394
2.65959
0.999991
0.999991
0.999991
0.999991
0.999991
0.999993
0.999994
1
1.00001
1.00005
1.00011
1.00033
1.00074
1.00184
1.00495
1.01113
1.03299
1.06915
1.22987
1.54159
2.33848
2.71379
2.73699
2.71064
2.67401
0.999991
0.999991
0.999991
0.999991
0.999991
0.999992
0.999995
0.999999
1.00002
1.00004
1.00014
1.00027
1.00081
1.00175
1.0046
1.01171
1.0276
1.08147
1.17565
1.56424
2.36171
2.69913
2.73573
2.7109
2.67189
0.999991
0.999991
0.999991
0.999991
0.999991
0.999992
0.999994
1
1.00001
1.00005
1.0001
1.00033
1.00065
1.00181
1.00423
1.01028
1.02917
1.0633
1.20558
1.47613
2.24513
2.71119
2.74859
2.71979
2.67541
0.999991
0.999991
0.999991
0.999991
0.999991
0.999992
0.999994
1
1.00001
1.00005
1.00009
1.00031
1.0006
1.0017
1.00394
1.00963
1.02733
1.05977
1.19379
1.45065
2.1897
2.70278
2.75342
2.72557
2.67942
0.999991
0.999991
0.999991
0.999991
0.999991
0.999992
0.999994
0.999998
1.00001
1.00003
1.00011
1.00023
1.00066
1.0015
1.00373
1.01017
1.02299
1.06975
1.14616
1.49243
2.21394
2.69677
2.75037
2.72209
2.67435
0.999991
0.999991
0.999991
0.999991
0.999991
0.999992
0.999993
0.999999
1.00001
1.00004
1.00008
1.00025
1.00055
1.00142
1.00373
1.00853
1.02504
1.05323
1.17484
1.40349
2.10321
2.71072
2.76274
2.73079
2.67878
0.999991
0.999991
0.999991
0.999991
0.999991
0.999992
0.999994
0.999997
1.00001
1.00003
1.00011
1.00021
1.00064
1.00137
1.00354
1.00908
1.02092
1.06261
1.13213
1.44116
2.11823
2.7058
2.75716
2.72639
2.67384
0.999991
0.999991
0.999991
0.999991
0.999991
0.999992
0.999993
0.999999
1.00001
1.00004
1.00008
1.00026
1.00051
1.00146
1.00328
1.00816
1.02259
1.05024
1.15777
1.36507
2.01825
2.69909
2.76018
2.72959
2.67672
0.999991
0.999991
0.999991
0.999991
0.999991
0.999992
0.999993
0.999999
1.00001
1.00004
1.00008
1.00026
1.0005
1.00145
1.00316
1.00791
1.02162
1.04833
1.15061
1.34837
1.97367
2.67966
2.76029
2.73224
2.68243
0.999991
0.999991
0.999991
0.999991
0.999991
0.999992
0.999994
0.999997
1.00001
1.00003
1.00011
1.00021
1.00068
1.00128
1.00387
1.00801
1.02108
1.05561
1.12678
1.38543
2.05605
2.69149
2.75473
2.72792
2.68059
0.999991
0.999991
0.999991
0.999991
0.999991
0.999992
0.999994
0.999997
1.00001
1.00003
1.00011
1.00021
1.0007
1.00129
1.00402
1.00785
1.0221
1.05263
1.12795
1.37161
2.04723
2.68707
2.75376
2.72729
2.68149
1.00001
1.00001
1.00004
1.00008
1.00024
1.00044
1.00133
1.00258
1.00711
1.01625
1.03945
1.1119
1.25406
1.69725
2.4949
2.65139
2.63777
2.63801
2.64724
2.65448
2.65431
2.64718
2.6262
2.57551
2.41437
1
1.00001
1.00004
1.00007
1.00022
1.00039
1.00123
1.00225
1.00687
1.01368
1.03673
1.09256
1.2212
1.6173
2.4501
2.62891
2.62719
2.62187
2.62273
2.6302
2.62896
2.61582
2.58403
2.52576
2.36783
1
1.00001
1.00003
1.00006
1.00019
1.00033
1.00106
1.00193
1.00591
1.0117
1.03161
1.07973
1.18529
1.54131
2.34283
2.5847
2.62105
2.61487
2.60117
2.60233
2.59993
2.58518
2.54598
2.49297
2.37222
1
1.00001
1.00003
1.00005
1.00015
1.00028
1.00088
1.00162
1.00475
1.00992
1.02547
1.06846
1.15053
1.47101
2.18731
2.53324
2.61896
2.60783
2.59591
2.57807
2.5696
2.55352
2.51876
2.47496
2.38094
1
1.00001
1.00002
1.00004
1.00013
1.00024
1.00074
1.00136
1.00417
1.00814
1.02249
1.0537
1.12882
1.36368
2.03344
2.42923
2.59862
2.5919
2.5851
2.56966
2.54585
2.5262
2.48554
2.45567
2.39017
1
1.00001
1.00001
1.00004
1.00008
1.00024
1.00044
1.00133
1.0026
1.00702
1.01648
1.03931
1.11194
1.25346
1.68834
2.374
2.55569
2.55507
2.55598
2.55058
2.5333
2.51223
2.46782
2.42554
2.3859
1
1.00001
1.00001
1.00004
1.00006
1.0002
1.00037
1.00116
1.00211
1.00649
1.01273
1.03453
1.08557
1.20333
1.57164
2.32313
2.52689
2.53356
2.52825
2.52392
2.51296
2.49938
2.46728
2.41834
2.37513
1
1
1.00001
1.00003
1.00005
1.00015
1.00028
1.00087
1.00165
1.0047
1.01022
1.02555
1.07043
1.15325
1.4812
2.19653
2.46844
2.52681
2.51107
2.50539
2.49127
2.47566
2.45992
2.42382
2.37765
1
1
1.00001
1.00002
1.00005
1.00009
1.00028
1.00052
1.00147
1.00321