/*--------------------------------*- C++ -*----------------------------------*\
| =========                 |                                                 |
| \\      /  F ield         | OpenFOAM: The Open Source CFD Toolbox           |
|  \\    /   O peration     | Version:  4.1                                   |
|   \\  /    A nd           | Web:      www.OpenFOAM.org                      |
|    \\/     M anipulation  |                                                 |
\*---------------------------------------------------------------------------*/
FoamFile
{
    version     2.0;
    format      ascii;
    class       volScalarField;
    location    "0.28";
    object      Ma;
}
// * * * * * * * * * * * * * * * * * * * * * * * * * * * * * * * * * * * * * //

dimensions      [0 0 0 0 0 0 0];

internalField   nonuniform List<scalar> 
18000
(
5.69908e-12
5.63324e-12
5.55729e-12
5.49295e-12
5.42947e-12
5.36679e-12
5.30497e-12
5.24408e-12
5.18409e-12
5.12559e-12
7.16965e-12
6.91037e-12
6.65229e-12
6.41421e-12
6.18655e-12
5.9687e-12
5.76014e-12
5.56045e-12
5.369e-12
5.18774e-12
9.13722e-12
8.5644e-12
8.02552e-12
7.53372e-12
7.07822e-12
6.656e-12
6.26453e-12
5.90083e-12
5.56284e-12
5.25085e-12
1.18114e-11
1.07321e-11
9.76366e-12
8.90259e-12
8.13308e-12
7.44365e-12
6.82448e-12
6.26738e-12
5.76515e-12
5.31511e-12
1.55084e-11
1.36114e-11
1.19847e-11
1.0589e-11
9.38738e-12
8.34859e-12
7.44723e-12
6.66254e-12
5.97675e-12
5.38072e-12
2.07172e-11
1.74927e-11
1.48552e-11
1.26828e-11
1.08868e-11
9.39212e-12
8.14129e-12
7.08873e-12
6.19807e-12
5.44716e-12
2.82108e-11
2.28108e-11
1.86083e-11
1.53051e-11
1.26898e-11
1.06e-11
8.91629e-12
7.54887e-12
6.42984e-12
5.51475e-12
3.92498e-11
3.02217e-11
2.35783e-11
1.8618e-11
1.48719e-11
1.20059e-11
9.78728e-12
8.05095e-12
6.67774e-12
5.59025e-12
2.06446e-09
1.99028e-09
1.86225e-09
1.74897e-09
1.64831e-09
1.55833e-09
1.47747e-09
1.40443e-09
1.33818e-09
1.28841e-09
2.22506e-07
3.10944e-08
2.63956e-08
2.27224e-08
1.96865e-08
1.71513e-08
1.50155e-08
1.32021e-08
1.16193e-08
3.3339e-08
5.84336e-12
5.77337e-12
5.69685e-12
5.62906e-12
5.56253e-12
5.49722e-12
5.4325e-12
5.36919e-12
5.30682e-12
5.24578e-12
7.37799e-12
7.10391e-12
6.84105e-12
6.59099e-12
6.35257e-12
6.12466e-12
5.90714e-12
5.6992e-12
5.50043e-12
5.31092e-12
9.43032e-12
8.82704e-12
8.27637e-12
7.76019e-12
7.28345e-12
6.8425e-12
6.43434e-12
6.05585e-12
5.70464e-12
5.37789e-12
1.22358e-11
1.11013e-11
1.01044e-11
9.19871e-12
8.39151e-12
7.66996e-12
7.02351e-12
6.44324e-12
5.92048e-12
5.44669e-12
1.6139e-11
1.41442e-11
1.24559e-11
1.09816e-11
9.71697e-12
8.62667e-12
7.683e-12
6.86355e-12
6.14868e-12
5.51792e-12
2.16801e-11
1.82786e-11
1.55164e-11
1.32099e-11
1.13112e-11
9.73656e-12
8.42302e-12
7.32089e-12
6.3903e-12
5.59123e-12
2.97207e-11
2.39975e-11
1.95501e-11
1.60204e-11
1.32409e-11
1.10297e-11
9.25482e-12
7.81861e-12
6.64566e-12
5.66697e-12
4.16956e-11
3.20557e-11
2.49415e-11
1.96005e-11
1.55932e-11
1.25432e-11
1.01934e-11
8.36121e-12
6.91639e-12
5.74537e-12
6.57037e-11
7.84963e-11
6.22345e-11
5.00733e-11
4.09251e-11
3.39059e-11
2.84278e-11
2.40877e-11
2.06029e-11
1.77323e-11
1.36538e-07
2.25259e-08
1.94897e-08
1.70075e-08
1.49693e-08
1.32762e-08
1.1855e-08
1.0651e-08
9.62309e-09
8.89574e-09
4.1427e-13
3.89868e-13
2.22562e-13
2.04327e-13
1.87477e-13
1.72351e-13
1.59068e-13
1.47961e-13
1.38671e-13
1.26754e-13
5.71915e-13
4.99759e-13
4.28034e-13
3.77862e-13
3.32397e-13
2.9181e-13
2.56318e-13
2.26279e-13
2.01842e-13
1.47634e-13
6.6442e-13
5.56616e-13
5.7793e-13
5.05981e-13
4.43187e-13
3.89635e-13
3.44837e-13
3.08019e-13
2.77469e-13
1.76099e-13
8.44236e-13
7.3538e-13
8.28426e-13
7.16035e-13
6.20798e-13
5.41408e-13
4.75541e-13
4.21479e-13
3.75685e-13
2.17295e-13
1.14769e-12
1.08225e-12
1.19474e-12
1.01147e-12
8.60352e-13
7.37399e-13
6.36996e-13
5.55023e-13
4.85677e-13
2.6485e-13
1.65507e-12
1.67264e-12
1.72419e-12
1.41942e-12
1.17666e-12
9.84601e-13
8.31429e-13
7.08667e-13
6.06657e-13
3.17674e-13
2.49761e-12
2.62414e-12
2.49056e-12
1.98045e-12
1.59124e-12
1.2938e-12
1.06347e-12
8.83819e-13
7.38547e-13
3.74613e-13
3.92014e-12
4.13888e-12
3.60669e-12
2.75391e-12
2.13428e-12
1.67934e-12
1.33968e-12
1.08281e-12
8.81698e-13
4.35275e-13
6.61557e-11
6.30198e-12
5.07044e-12
3.72017e-12
2.78554e-12
2.12744e-12
1.65337e-12
1.30591e-12
1.04196e-12
5.15054e-13
1.19044e-07
7.59688e-10
5.47961e-10
4.16229e-10
3.21813e-10
2.52726e-10
2.01246e-10
1.62262e-10
1.3232e-10
1.09129e-10
3.87088e-13
3.61871e-13
1.7227e-13
1.51041e-13
1.30684e-13
1.11537e-13
9.3675e-14
7.73285e-14
6.28476e-14
3.66935e-14
5.33534e-13
4.60124e-13
3.86312e-13
3.35667e-13
2.89149e-13
2.47409e-13
2.10586e-13
1.79016e-13
1.53034e-13
7.94661e-14
5.96417e-13
4.88627e-13
5.24e-13
4.55018e-13
3.94912e-13
3.43848e-13
3.01343e-13
2.67195e-13
2.39296e-13
1.19959e-13
7.28817e-13
6.33831e-13
7.60973e-13
6.5674e-13
5.68259e-13
4.94997e-13
4.34504e-13
3.85186e-13
3.43708e-13
1.71339e-13
9.55184e-13
9.42646e-13
1.10808e-12
9.40287e-13
8.01509e-13
6.88404e-13
5.96056e-13
5.20897e-13
4.5722e-13
2.25211e-13
1.33643e-12
1.48339e-12
1.61002e-12
1.33167e-12
1.10853e-12
9.31279e-13
7.89271e-13
6.75378e-13
5.80187e-13
2.82055e-13
1.96836e-12
2.36014e-12
2.33572e-12
1.86962e-12
1.51058e-12
1.23428e-12
1.01908e-12
8.5046e-13
7.13311e-13
3.41966e-13
3.02134e-12
3.75583e-12
3.39062e-12
2.61067e-12
2.03659e-12
1.61178e-12
1.29213e-12
1.04886e-12
8.57407e-13
4.05084e-13
7.0142e-11
6.08898e-12
4.93715e-12
3.6351e-12
2.72543e-12
2.08141e-12
1.61564e-12
1.27341e-12
1.01307e-12
4.71366e-13
1.21389e-07
2.54714e-10
1.11188e-11
7.29428e-12
5.10051e-12
3.66136e-12
2.68799e-12
2.01234e-12
1.52912e-12
8.85262e-13
3.87206e-13
3.61646e-13
1.72706e-13
1.51394e-13
1.30956e-13
1.11729e-13
9.3948e-14
7.75809e-14
6.29439e-14
3.68205e-14
5.34155e-13
4.60527e-13
3.87239e-13
3.36476e-13
2.89867e-13
2.47932e-13
2.10994e-13
1.79443e-13
1.53371e-13
7.96548e-14
5.97713e-13
4.89929e-13
5.25725e-13
4.56419e-13
3.9596e-13
3.44792e-13
3.02107e-13
2.67709e-13
2.39615e-13
1.20221e-13
7.31553e-13
6.36777e-13
7.63713e-13
6.59065e-13
5.70053e-13
4.96419e-13
4.35687e-13
3.86087e-13
3.44366e-13
1.716e-13
9.60371e-13
9.48141e-13
1.11283e-12
9.43992e-13
8.04479e-13
6.9082e-13
5.97881e-13
5.22244e-13
4.58258e-13
2.25959e-13
1.34614e-12
1.49299e-12
1.61783e-12
1.33788e-12
1.11334e-12
9.35119e-13
7.9235e-13
6.77759e-13
5.82074e-13
2.83302e-13
1.9862e-12
2.37713e-12
2.34925e-12
1.87996e-12
1.51859e-12
1.24058e-12
1.02399e-12
8.54245e-13
7.16412e-13
3.4411e-13
3.05389e-12
3.78636e-12
3.41375e-12
2.62801e-12
2.04975e-12
1.62189e-12
1.29997e-12
1.05493e-12
8.62108e-13
4.08431e-13
7.06186e-11
6.15253e-12
4.97964e-12
3.66534e-12
2.74739e-12
2.09762e-12
1.62781e-12
1.28272e-12
1.02032e-12
4.76223e-13
1.25399e-07
2.61018e-10
7.72481e-12
5.05515e-12
3.64533e-12
2.68806e-12
2.02088e-12
1.54633e-12
1.19674e-12
5.54526e-13
3.87309e-13
3.6131e-13
1.73304e-13
1.51904e-13
1.31329e-13
1.1207e-13
9.41486e-14
7.78382e-14
6.3198e-14
3.68623e-14
5.34987e-13
4.61027e-13
3.88522e-13
3.37574e-13
2.90799e-13
2.48685e-13
2.11579e-13
1.79856e-13
1.53806e-13
7.9992e-14
5.99555e-13
4.91755e-13
5.28018e-13
4.58345e-13
3.97576e-13
3.4603e-13
3.03081e-13
2.68382e-13
2.40139e-13
1.20617e-13
7.3536e-13
6.40914e-13
7.67495e-13
6.62151e-13
5.72636e-13
4.98353e-13
4.37116e-13
3.87287e-13
3.45167e-13
1.72185e-13
9.67883e-13
9.55755e-13
1.11913e-12
9.49019e-13
8.08444e-13
6.94072e-13
6.0044e-13
5.24218e-13
4.59782e-13
2.26992e-13
1.36045e-12
1.50659e-12
1.62861e-12
1.34629e-12
1.11988e-12
9.40298e-13
7.96462e-13
6.80922e-13
5.84651e-13
2.85104e-13
2.01302e-12
2.40101e-12
2.36767e-12
1.89407e-12
1.52941e-12
1.24906e-12
1.03063e-12
8.59414e-13
7.20492e-13
3.46991e-13
3.10438e-12
3.82929e-12
3.44576e-12
2.6516e-12
2.06747e-12
1.63538e-12
1.3104e-12
1.06305e-12
8.68391e-13
4.12761e-13
7.17088e-11
6.2319e-12
5.03527e-12
3.70485e-12
2.77609e-12
2.11895e-12
1.64384e-12
1.29491e-12
1.02969e-12
4.82695e-13
1.29205e-07
2.6713e-10
7.81914e-12
5.11447e-12
3.6875e-12
2.71858e-12
2.04348e-12
1.56341e-12
1.20975e-12
5.63215e-13
3.87358e-13
3.60987e-13
1.73978e-13
1.52533e-13
1.31906e-13
1.12555e-13
9.45538e-14
7.80666e-14
6.33819e-14
3.71029e-14
5.35997e-13
4.61712e-13
3.90102e-13
3.38872e-13
2.91947e-13
2.49708e-13
2.12444e-13
1.80515e-13
1.54093e-13
8.03127e-14
6.01834e-13
4.93972e-13
5.30767e-13
4.60658e-13
3.99497e-13
3.47615e-13
3.04228e-13
2.69281e-13
2.40799e-13
1.21049e-13
7.40042e-13
6.45918e-13
7.72095e-13
6.6588e-13
5.75696e-13
5.00839e-13
4.3897e-13
3.8866e-13
3.46354e-13
1.72997e-13
9.77138e-13
9.65095e-13
1.12676e-12
9.55098e-13
8.13282e-13
6.98016e-13
6.03574e-13
5.26644e-13
4.61655e-13
2.28395e-13
1.37809e-12
1.52298e-12
1.64161e-12
1.3565e-12
1.1279e-12
9.46676e-13
8.01557e-13
6.84915e-13
5.87747e-13
2.87397e-13
2.04622e-12
2.43006e-12
2.38999e-12
1.91123e-12
1.54265e-12
1.25942e-12
1.03888e-12
8.65812e-13
7.25532e-13
3.50652e-13
3.16704e-12
3.88134e-12
3.48472e-12
2.68053e-12
2.08918e-12
1.65194e-12
1.32332e-12
1.07304e-12
8.76142e-13
4.18211e-13
7.50089e-11
6.33046e-12
5.10319e-12
3.75341e-12
2.81149e-12
2.14518e-12
1.66365e-12
1.30988e-12
1.04125e-12
4.90567e-13
1.4433e-07
2.84388e-10
7.94634e-12
5.19225e-12
3.74249e-12
2.75828e-12
2.07285e-12
1.5855e-12
1.2263e-12
5.74395e-13
3.87443e-13
3.60262e-13
1.74636e-13
1.5308e-13
1.3252e-13
1.13248e-13
9.54293e-14
8.07496e-14
9.7717e-14
2.57987e-13
5.3702e-13
4.62047e-13
3.9158e-13
3.4022e-13
2.93163e-13
2.50898e-13
2.13623e-13
1.82352e-13
1.62263e-13
1.85492e-13
6.04163e-13
4.9571e-13
5.3336e-13
4.62926e-13
4.0149e-13
3.49449e-13
3.06047e-13
2.71066e-13
2.44989e-13
1.67518e-13
7.44993e-13
6.5008e-13
7.76321e-13
6.69437e-13
5.7868e-13
5.03505e-13
4.41594e-13
3.91142e-13
3.49885e-13
1.96266e-13
9.86805e-13
9.73052e-13
1.13368e-12
9.60843e-13
8.17988e-13
7.01967e-13
6.07346e-13
5.30213e-13
4.65748e-13
2.43436e-13
1.39599e-12
1.53722e-12
1.65321e-12
1.36594e-12
1.13552e-12
9.53141e-13
8.07456e-13
6.90324e-13
5.93059e-13
2.99775e-13
2.07881e-12
2.45548e-12
2.40985e-12
1.9269e-12
1.55516e-12
1.26972e-12
1.04787e-12
8.74073e-13
7.32803e-13
3.62424e-13
3.22428e-12
3.92658e-12
3.51892e-12
2.70695e-12
2.10972e-12
1.66825e-12
1.33699e-12
1.08531e-12
8.8675e-13
4.30709e-13
6.91824e-11
6.38747e-12
5.16226e-12
3.79745e-12
2.84477e-12
2.17095e-12
1.6844e-12
1.32752e-12
1.05624e-12
5.04897e-13
1.43556e-07
2.33926e-10
7.90609e-12
5.26168e-12
3.79398e-12
2.79718e-12
2.103e-12
1.61019e-12
1.24728e-12
5.9183e-13
3.8701e-13
3.98261e-13
2.11076e-13
1.59939e-13
1.4588e-13
2.66083e-13
5.11302e-13
1.80384e-12
7.79852e-12
2.62916e-11
5.39721e-13
5.29646e-13
4.33224e-13
3.54848e-13
2.92847e-13
3.18142e-13
4.73862e-13
1.21954e-12
4.52807e-12
1.67027e-11
6.1136e-13
6.13197e-13
5.94517e-13
4.91875e-13
4.03023e-13
3.71177e-13
5.04773e-13
9.11237e-13
2.85382e-12
1.05717e-11
7.55088e-13
8.0574e-13
8.48969e-13
7.07458e-13
5.85061e-13
5.05063e-13
5.5217e-13
7.78091e-13
1.95263e-12
6.98749e-12
9.95146e-13
1.14363e-12
1.20945e-12
1.00174e-12
8.27147e-13
6.95923e-13
6.58331e-13
7.69668e-13
1.47126e-12
4.82242e-12
1.39167e-12
1.69822e-12
1.72113e-12
1.40106e-12
1.14146e-12
9.418e-13
8.2519e-13
8.82475e-13
1.23732e-12
3.46631e-12
2.04102e-12
2.58234e-12
2.45429e-12
1.94485e-12
1.54976e-12
1.25024e-12
1.04496e-12
9.95419e-13
1.17276e-12
2.59071e-12
3.10665e-12
3.9859e-12
3.51699e-12
2.69174e-12
2.08237e-12
1.63478e-12
1.31843e-12
1.15511e-12
1.23742e-12
2.01573e-12
1.73337e-11
6.21596e-12
5.07989e-12
3.72755e-12
2.78152e-12
2.11507e-12
1.65023e-12
1.36151e-12
1.32099e-12
1.63855e-12
1.93884e-08
2.20317e-10
7.10021e-12
5.10471e-12
3.67588e-12
2.70785e-12
2.04761e-12
1.61513e-12
1.43017e-12
1.40181e-12
2.53593e-12
2.39493e-12
1.53564e-12
1.5614e-13
2.63157e-12
8.38638e-12
2.39462e-11
8.16967e-11
3.62746e-10
8.73662e-10
3.5708e-12
3.46368e-12
2.57368e-12
1.18201e-12
1.31393e-12
6.13035e-12
1.79043e-11
5.52717e-11
2.12205e-10
5.25797e-10
4.83764e-12
4.72825e-12
3.75477e-12
2.34816e-12
3.10397e-13
4.05652e-12
1.31268e-11
3.90768e-11
1.34265e-10
3.35228e-10
6.49488e-12
6.30797e-12
5.15857e-12
3.64928e-12
1.48551e-12
2.2626e-12
9.53677e-12
2.84105e-11
9.01453e-11
2.23082e-10
8.7035e-12
8.31552e-12
6.85657e-12
5.13548e-12
2.90094e-12
7.85943e-13
6.668e-12
2.09031e-11
6.31182e-11
1.53813e-10
1.17036e-11
1.09103e-11
8.94743e-12
6.86146e-12
4.42934e-12
1.30384e-12
4.32648e-12
1.53179e-11
4.55312e-11
1.09251e-10
1.58648e-11
1.43331e-11
1.15665e-11
8.90303e-12
6.11912e-12
2.83687e-12
2.38132e-12
1.12294e-11
3.34958e-11
7.95427e-11
2.17835e-11
1.89337e-11
1.49021e-11
1.13617e-11
8.01778e-12
4.46468e-12
1.16737e-12
8.03415e-12
2.48769e-11
5.91034e-11
6.39242e-11
2.52457e-11
1.92293e-11
1.43683e-11
1.01927e-11
6.19544e-12
1.95198e-12
5.47337e-12
1.86487e-11
4.46402e-11
3.62676e-07
4.65991e-10
2.49183e-11
1.80828e-11
1.27089e-11
8.04945e-12
3.4623e-12
3.43732e-12
1.40058e-11
3.41197e-11
3.4248e-12
3.0796e-12
2.03576e-12
1.92829e-12
8.27493e-12
2.80407e-11
1.0503e-10
5.27835e-10
1.69613e-09
2.16648e-09
4.54255e-12
4.23164e-12
3.23255e-12
1.68203e-12
5.18041e-12
1.94822e-11
6.88537e-11
3.00004e-10
9.6373e-10
1.18281e-09
5.90427e-12
5.56843e-12
4.5802e-12
2.8322e-12
2.79241e-12
1.30848e-11
4.65599e-11
1.84031e-10
5.81585e-10
6.94527e-10
7.65066e-12
7.18892e-12
6.11058e-12
4.37305e-12
1.98342e-12
8.34559e-12
3.19816e-11
1.19237e-10
3.67641e-10
4.30377e-10
9.9464e-12
9.20574e-12
7.89741e-12
6.08105e-12
3.2382e-12
4.77176e-12
2.18897e-11
8.01454e-11
2.41429e-10
2.78526e-10
1.30384e-11
1.17769e-11
1.00413e-11
7.98485e-12
5.08697e-12
2.50613e-12
1.45464e-11
5.49976e-11
1.63596e-10
1.8672e-10
1.73027e-11
1.51309e-11
1.26795e-11
1.01641e-11
7.09597e-12
2.86512e-12
9.19215e-12
3.81378e-11
1.13447e-10
1.28816e-10
2.33349e-11
1.96046e-11
1.60014e-11
1.27236e-11
9.26296e-12
4.80152e-12
5.18862e-12
2.63521e-11
8.00393e-11
9.09857e-11
6.70712e-11
2.56685e-11
2.02729e-11
1.58042e-11
1.16615e-11
6.9921e-12
2.70856e-12
1.79405e-11
5.71951e-11
6.53085e-11
6.63113e-08
3.36208e-09
2.65601e-11
1.95661e-11
1.43648e-11
9.25292e-12
3.16828e-12
1.17466e-11
4.1139e-11
4.73318e-11
1.00914e-12
1.26314e-12
1.53786e-12
3.24444e-12
8.62567e-12
2.55526e-11
8.89358e-11
3.24927e-10
5.78199e-10
1.94983e-10
1.08941e-12
1.25955e-12
1.39868e-12
2.45135e-12
6.11622e-12
1.77169e-11
5.86393e-11
2.00703e-10
3.31548e-10
1.63649e-10
1.17283e-12
1.295e-12
1.38386e-12
1.97454e-12
4.37369e-12
1.23913e-11
3.96254e-11
1.28572e-10
1.99218e-10
1.18277e-10
1.25718e-12
1.35698e-12
1.44555e-12
1.77432e-12
3.2202e-12
8.72437e-12
2.72739e-11
8.49793e-11
1.24246e-10
8.40409e-11
1.34505e-12
1.43423e-12
1.54141e-12
1.7508e-12
2.52925e-12
6.20137e-12
1.90561e-11
5.76174e-11
7.98674e-11
6.04735e-11
1.44048e-12
1.5233e-12
1.64962e-12
1.8165e-12
2.19733e-12
4.48559e-12
1.34176e-11
3.9957e-11
5.26237e-11
4.45654e-11
1.54783e-12
1.6227e-12
1.76229e-12
1.92029e-12
2.10534e-12
3.37682e-12
9.49862e-12
2.80427e-11
3.54005e-11
3.37402e-11
1.67633e-12
1.73428e-12
1.8791e-12
2.0357e-12
2.14074e-12
2.74353e-12
6.79999e-12
1.99066e-11
2.42464e-11
2.62306e-11
1.72914e-10
2.29289e-12
2.00071e-12
2.15591e-12
2.23399e-12
2.45555e-12
4.9596e-12
1.42663e-11
1.6737e-11
2.09102e-11
1.14587e-07
3.21407e-09
4.27304e-12
2.26942e-12
2.34266e-12
2.37695e-12
3.73862e-12
1.02929e-11
1.15483e-11
1.69519e-11
7.92718e-13
1.50486e-12
1.60938e-12
2.52038e-12
4.15281e-12
7.20148e-12
1.48895e-11
5.30546e-11
2.80519e-10
8.66247e-10
7.27557e-13
1.35196e-12
1.39569e-12
2.15144e-12
3.48889e-12
5.93687e-12
1.13728e-11
3.31155e-11
1.6903e-10
4.74521e-10
6.64753e-13
1.20885e-12
1.20189e-12
1.8276e-12
2.92505e-12
4.89086e-12
8.91753e-12
2.20748e-11
1.05953e-10
2.78475e-10
6.11082e-13
1.08704e-12
1.04092e-12
1.56377e-12
2.46826e-12
4.06748e-12
7.16074e-12
1.56696e-11
6.87693e-11
1.72401e-10
5.64989e-13
9.82819e-13
9.05945e-13
1.34337e-12
2.09593e-12
3.4139e-12
5.84723e-12
1.1702e-11
4.59518e-11
1.11315e-10
5.25381e-13
8.93734e-13
7.92568e-13
1.16219e-12
1.79372e-12
2.88303e-12
4.84009e-12
9.07703e-12
3.14844e-11
7.43703e-11
4.91155e-13
8.16769e-13
6.97007e-13
1.01041e-12
1.5409e-12
2.44919e-12
4.05497e-12
7.24075e-12
2.20532e-11
5.11111e-11
4.68059e-13
7.50004e-13
6.16254e-13
8.82126e-13
1.33164e-12
2.09562e-12
3.42588e-12
5.90514e-12
1.57495e-11
3.59758e-11
2.87846e-10
3.88665e-12
5.46979e-13
7.74239e-13
1.15739e-12
1.80354e-12
2.91408e-12
4.89633e-12
1.14506e-11
2.5849e-11
1.13663e-07
1.0908e-08
2.44195e-11
6.11116e-13
1.00488e-12
1.5527e-12
2.48552e-12
4.09939e-12
8.44493e-12
1.88918e-11
1.06816e-12
1.8607e-12
1.61769e-12
2.17492e-12
3.0305e-12
4.39623e-12
7.00237e-12
1.38325e-11
5.32158e-11
1.37531e-10
9.94838e-13
1.70616e-12
1.45033e-12
1.93901e-12
2.67916e-12
3.8263e-12
5.83039e-12
1.05365e-11
3.78244e-11
8.69568e-11
9.23454e-13
1.55762e-12
1.28903e-12
1.71367e-12
2.35317e-12
3.32743e-12
4.91993e-12
8.22081e-12
2.69279e-11
5.7713e-11
8.61307e-13
1.42838e-12
1.15052e-12
1.51923e-12
2.07513e-12
2.91006e-12
4.22204e-12
6.64236e-12
1.93524e-11
3.97781e-11
8.07329e-13
1.31556e-12
1.03137e-12
1.35234e-12
1.83857e-12
2.56046e-12
3.66692e-12
5.52703e-12
1.40473e-11
2.82012e-11
7.60174e-13
1.21675e-12
9.28288e-13
1.20878e-12
1.63317e-12
2.26205e-12
3.2139e-12
4.70358e-12
1.02958e-11
2.04329e-11
7.18705e-13
1.12968e-12
8.3904e-13
1.08432e-12
1.45619e-12
2.00777e-12
2.83319e-12
4.06725e-12
7.6122e-12
1.50639e-11
6.90289e-13
1.05257e-12
7.61508e-13
9.76139e-13
1.30262e-12
1.78702e-12
2.50757e-12
3.5565e-12
5.67735e-12
1.12676e-11
4.31306e-10
6.88743e-12
6.95291e-13
8.81976e-13
1.16911e-12
1.59513e-12
2.2297e-12
3.13314e-12
4.27029e-12
8.52094e-12
1.39795e-07
1.92973e-08
6.00502e-11
7.87159e-13
1.04644e-12
1.42481e-12
1.98383e-12
2.76756e-12
3.2223e-12
6.48882e-12
1.486e-12
2.35585e-12
1.62812e-12
1.9038e-12
2.2851e-12
2.83076e-12
3.80687e-12
5.98251e-12
1.62235e-11
2.44138e-11
1.40548e-12
2.20441e-12
1.5117e-12
1.77056e-12
2.12403e-12
2.60482e-12
3.36822e-12
4.89564e-12
1.24835e-11
1.87866e-11
1.32529e-12
2.05414e-12
1.38917e-12
1.62859e-12
1.95498e-12
2.38618e-12
3.01516e-12
4.11866e-12
9.48071e-12
1.44556e-11
1.2544e-12
1.91971e-12
1.27843e-12
1.49891e-12
1.80034e-12
2.19362e-12
2.73649e-12
3.57341e-12
7.20582e-12
1.1215e-11
1.19167e-12
1.79934e-12
1.17911e-12
1.38118e-12
1.65996e-12
2.02125e-12
2.50588e-12
3.17656e-12
5.4802e-12
8.74951e-12
1.13591e-12
1.69104e-12
1.0901e-12
1.27509e-12
1.53138e-12
1.86524e-12
2.30465e-12
2.87166e-12
4.16751e-12
6.85541e-12
1.08629e-12
1.5937e-12
1.01017e-12
1.17898e-12
1.41427e-12
1.72283e-12
2.12833e-12
2.62298e-12
3.16869e-12
5.38562e-12
1.05072e-12
1.50569e-12
9.38371e-13
1.09201e-12
1.30783e-12
1.59284e-12
1.9683e-12
2.41357e-12
2.40543e-12
4.23862e-12
5.73393e-10
1.01877e-11
8.76693e-13
1.01318e-12
1.21082e-12
1.47386e-12
1.82205e-12
2.22951e-12
1.82119e-12
3.33935e-12
1.13058e-07
2.68041e-08
9.54521e-11
1.02151e-12
1.11572e-12
1.36202e-12
1.68288e-12
2.05818e-12
1.36357e-12
2.62174e-12
2.10344e-12
2.99374e-12
1.58202e-12
1.60515e-12
1.66686e-12
1.79893e-12
2.14777e-12
2.96869e-12
6.75402e-12
8.37413e-12
2.01766e-12
2.85507e-12
1.52349e-12
1.56274e-12
1.63334e-12
1.7456e-12
1.99171e-12
2.55089e-12
5.47371e-12
6.98873e-12
1.9317e-12
2.71269e-12
1.44813e-12
1.4997e-12
1.57976e-12
1.68566e-12
1.87284e-12
2.25106e-12
4.32615e-12
5.7303e-12
1.85399e-12
2.58132e-12
1.37456e-12
1.43439e-12
1.52193e-12
1.62825e-12
1.78539e-12
2.04951e-12
3.40253e-12
4.69727e-12
1.7838e-12
2.46023e-12
1.30387e-12
1.36953e-12
1.46266e-12
1.57161e-12
1.71455e-12
1.91197e-12
2.65798e-12
3.8499e-12
1.72026e-12
2.34872e-12
1.23718e-12
1.30561e-12
1.40219e-12
1.51461e-12
1.65336e-12
1.81194e-12
2.0575e-12
3.15014e-12
1.66265e-12
2.246e-12
1.17425e-12
1.24373e-12
1.34177e-12
1.45673e-12
1.59533e-12
1.73382e-12
1.57019e-12
2.57112e-12
1.61915e-12
2.15133e-12
1.11522e-12
1.18452e-12
1.28273e-12
1.39865e-12
1.53762e-12
1.66774e-12
1.17663e-12
2.09087e-12
7.16379e-10
1.32725e-11
1.06382e-12
1.12789e-12
1.2252e-12
1.34122e-12
1.48053e-12
1.6081e-12
8.601e-13
1.69214e-12
3.42427e-08
3.09261e-08
2.16892e-10
9.64421e-13
1.16198e-12
1.28217e-12
1.41951e-12
1.54592e-12
5.94456e-13
1.35845e-12
2.95575e-12
3.72697e-12
1.40626e-12
1.21468e-12
1.06829e-12
1.00311e-12
1.13682e-12
1.54471e-12
3.40332e-12
3.79696e-12
2.87016e-12
3.61605e-12
1.40787e-12
1.24915e-12
1.12128e-12
1.03664e-12
1.07967e-12
1.33991e-12
2.91845e-12
3.37103e-12
2.78389e-12
3.49769e-12
1.38693e-12
1.25842e-12
1.15232e-12
1.06659e-12
1.05671e-12
1.19771e-12
2.40506e-12
2.89868e-12
2.70421e-12
3.38445e-12
1.35847e-12
1.25546e-12
1.17041e-12
1.09295e-12
1.05736e-12
1.11422e-12
1.96478e-12
2.48779e-12
2.63062e-12
3.27687e-12
1.326e-12
1.24455e-12
1.1786e-12
1.11339e-12
1.0691e-12
1.0738e-12
1.58753e-12
2.13038e-12
2.56273e-12
3.17484e-12
1.29061e-12
1.22731e-12
1.17842e-12
1.12707e-12
1.08451e-12
1.05991e-12
1.26355e-12
1.81931e-12
2.50008e-12
3.07851e-12
1.25371e-12
1.20568e-12
1.17177e-12
1.13407e-12
1.09894e-12
1.06035e-12
9.86555e-13
1.54884e-12
2.45108e-12
2.98771e-12
1.2163e-12
1.18115e-12
1.15989e-12
1.13484e-12
1.10927e-12
1.06754e-12
7.49875e-13
1.31496e-12
8.69167e-10
1.54852e-11
1.18389e-12
1.15448e-12
1.1442e-12
1.13049e-12
1.11484e-12
1.0767e-12
5.4879e-13
1.11388e-12
5.66608e-08
2.94968e-08
2.11648e-10
1.06171e-12
1.11934e-12
1.11978e-12
1.11313e-12
1.08126e-12
3.72755e-13
9.4483e-13
3.99686e-12
4.44748e-12
1.08153e-12
7.60355e-13
4.95121e-13
3.49177e-13
4.86268e-13
7.94845e-13
2.05737e-12
2.08084e-12
3.91756e-12
4.37773e-12
1.12756e-12
8.42628e-13
6.00561e-13
4.19639e-13
4.30172e-13
6.51602e-13
1.89054e-12
1.97037e-12
3.83883e-12
4.30082e-12
1.15103e-12
9.00964e-13
6.84684e-13
4.99336e-13
4.26604e-13
5.44828e-13
1.64629e-12
1.77523e-12
3.7644e-12
4.223e-12
1.16285e-12
9.43681e-13
7.51464e-13
5.74092e-13
4.59226e-13
4.81231e-13
1.42832e-12
1.59881e-12
3.69397e-12
4.14608e-12
1.16649e-12
9.7458e-13
8.05164e-13
6.40647e-13
5.09343e-13
4.60532e-13
1.23418e-12
1.43925e-12
3.62819e-12
4.0705e-12
1.16349e-12
9.96312e-13
8.48099e-13
6.98631e-13
5.64676e-13
4.72844e-13
1.06276e-12
1.29592e-12
3.56635e-12
3.99676e-12
1.1556e-12
1.01045e-12
8.81262e-13
7.47624e-13
6.18863e-13
5.05151e-13
9.13195e-13
1.1682e-12
3.51665e-12
3.92554e-12
1.14407e-12
1.01846e-12
9.06712e-13
7.88406e-13
6.68687e-13
5.47388e-13
7.84559e-13
1.05512e-12
1.0109e-09
1.65164e-11
1.136e-12
1.02149e-12
9.26101e-13
8.22097e-13
7.12695e-13
5.926e-13
6.76941e-13
9.56431e-13
1.56394e-07
2.14362e-08
1.94747e-10
1.2117e-12
9.36217e-13
8.47711e-13
7.49783e-13
6.34279e-13
5.899e-13
8.76223e-13
5.02628e-12
5.01109e-12
7.41776e-13
4.98763e-13
2.72026e-13
1.53038e-13
2.67481e-13
4.58453e-13
1.47965e-12
1.33826e-12
4.95707e-12
4.98658e-12
7.70543e-13
5.36329e-13
3.1075e-13
1.24633e-13
1.64127e-13
3.54434e-13
1.47027e-12
1.35949e-12
4.89063e-12
4.95779e-12
7.91435e-13
5.72594e-13
3.60343e-13
1.62055e-13
7.68719e-14
2.55972e-13
1.36371e-12
1.28494e-12
4.82622e-12
4.92396e-12
8.08333e-13
6.05697e-13
4.10052e-13
2.2002e-13
4.50644e-14
1.6544e-13
1.26679e-12
1.21605e-12
4.76479e-12
4.88738e-12
8.21704e-13
6.35916e-13
4.57161e-13
2.8035e-13
1.07924e-13
8.648e-14
1.17824e-12
1.15214e-12
4.70591e-12
4.84848e-12
8.31657e-13
6.62122e-13
4.99966e-13
3.37e-13
1.75988e-13
4.49155e-14
1.09803e-12
1.09365e-12
4.64986e-12
4.80844e-12
8.38465e-13
6.84515e-13
5.38138e-13
3.88972e-13
2.38858e-13
8.80235e-14
1.02639e-12
1.04019e-12
4.60468e-12
4.76826e-12
8.42115e-13
7.02959e-13
5.71506e-13
4.35366e-13
2.95943e-13
1.48824e-13
9.62644e-13
9.9195e-13
1.12083e-09
1.64557e-11
8.51974e-13
7.18191e-13
6.00576e-13
4.76663e-13
3.4807e-13
2.07729e-13
9.06972e-13
9.48369e-13
2.46983e-07
1.06517e-08
1.26213e-10
9.89986e-13
6.24823e-13
5.13286e-13
3.95123e-13
2.63255e-13
8.59038e-13
9.18411e-13
5.69863e-12
5.3036e-12
6.20571e-13
6.07109e-13
5.10719e-13
4.41485e-13
4.00503e-13
4.00365e-13
1.2403e-12
1.0256e-12
5.63657e-12
5.30915e-12
5.53729e-13
5.46571e-13
4.58097e-13
3.93663e-13
3.5507e-13
3.60058e-13
1.30462e-12
1.10381e-12
5.57935e-12
5.31418e-12
4.95447e-13
4.92421e-13
4.10895e-13
3.4918e-13
3.12073e-13
3.18034e-13
1.26252e-12
1.08102e-12
5.5235e-12
5.31291e-12
4.49168e-13
4.46822e-13
3.7067e-13
3.1129e-13
2.7372e-13
2.79388e-13
1.22238e-12
1.05857e-12
5.46934e-12
5.30677e-12
4.14115e-13
4.10276e-13
3.39081e-13
2.80521e-13
2.40715e-13
2.43908e-13
1.18423e-12
1.03759e-12
5.41754e-12
5.29725e-12
3.89129e-13
3.81573e-13
3.14201e-13
2.56055e-13
2.13548e-13
2.12921e-13
1.148e-12
1.01718e-12
5.36747e-12
5.28468e-12
3.71566e-13
3.59454e-13
2.96068e-13
2.38708e-13
1.93276e-13
1.85771e-13
1.11357e-12
9.98259e-13
5.32745e-12
5.27031e-12
3.60145e-13
3.42919e-13
2.83665e-13
2.27239e-13
1.78644e-13
1.63979e-13
1.08113e-12
9.79658e-13
1.18059e-09
1.58566e-11
3.70239e-13
3.3127e-13
2.7597e-13
2.21522e-13
1.7146e-13
1.4828e-13
1.0498e-12
9.61916e-13
3.02875e-07
7.63327e-09
9.06899e-11
5.2683e-13
2.73167e-13
2.2358e-13
1.74825e-13
1.46356e-13
1.02137e-12
9.73415e-13
5.70462e-12
5.27426e-12
6.25517e-13
6.32745e-13
5.40361e-13
4.66342e-13
4.12069e-13
3.93146e-13
1.1711e-12
9.78843e-13
5.64235e-12
5.28209e-12
5.42264e-13
5.63289e-13
4.8378e-13
4.19087e-13
3.71726e-13
3.60747e-13
1.24543e-12
1.06096e-12
5.58538e-12
5.29001e-12
4.67945e-13
4.99355e-13
4.30663e-13
3.73586e-13
3.31707e-13
3.2426e-13
1.21124e-12
1.04166e-12
5.52985e-12
5.29143e-12
4.05546e-13
4.42961e-13
3.83242e-13
3.32656e-13
2.9504e-13
2.90642e-13
1.17852e-12
1.02283e-12
5.4764e-12
5.28819e-12
3.5546e-13
3.95276e-13
3.42656e-13
2.96562e-13
2.61994e-13
2.59347e-13
1.14707e-12
1.00508e-12
5.42491e-12
5.28122e-12
3.16666e-13
3.55282e-13
3.0833e-13
2.65833e-13
2.32825e-13
2.30502e-13
1.11717e-12
9.88276e-13
5.37524e-12
5.27103e-12
2.88091e-13
3.22147e-13
2.79772e-13
2.39993e-13
2.07859e-13
2.04667e-13
1.08838e-12
9.72273e-13
5.33566e-12
5.25902e-12
2.68664e-13
2.95605e-13
2.56859e-13
2.19074e-13
1.8676e-13
1.81893e-13
1.0611e-12
9.56923e-13
1.18059e-09
1.58541e-11
2.78137e-13
2.74855e-13
2.39228e-13
2.03423e-13
1.71171e-13
1.6293e-13
1.03453e-12
9.42185e-13
3.02875e-07
7.63327e-09
9.06681e-11
4.64637e-13
2.27217e-13
1.96259e-13
1.65681e-13
1.5517e-13
1.01014e-12
9.6693e-13
5.03531e-12
4.93117e-12
6.93485e-13
5.14795e-13
3.33233e-13
2.28342e-13
2.62645e-13
3.95753e-13
1.24145e-12
1.18456e-12
4.96782e-12
4.91503e-12
6.99398e-13
5.21429e-13
3.35871e-13
1.94713e-13
1.82759e-13
3.11324e-13
1.26523e-12
1.21767e-12
4.90341e-12
4.89516e-12
7.07045e-13
5.35999e-13
3.56493e-13
1.97693e-13
1.1878e-13
2.26765e-13
1.18754e-12
1.1558e-12
4.84114e-12
4.86978e-12
7.1583e-13
5.53813e-13
3.84931e-13
2.24467e-13
9.02126e-14
1.48147e-13
1.11663e-12
1.09879e-12
4.78164e-12
4.84144e-12
7.25172e-13
5.73465e-13
4.17055e-13
2.63409e-13
1.14403e-13
7.77801e-14
1.05195e-12
1.04663e-12
4.72448e-12
4.81025e-12
7.33824e-13
5.93083e-13
4.49747e-13
3.0593e-13
1.61517e-13
3.34229e-14
9.93973e-13
9.99535e-13
4.67006e-12
4.77737e-12
7.40958e-13
6.11246e-13
4.80937e-13
3.47948e-13
2.1239e-13
7.04999e-14
9.42295e-13
9.57107e-13
4.62643e-12
4.74356e-12
7.46422e-13
6.27591e-13
5.09766e-13
3.87477e-13
2.61411e-13
1.25546e-13
8.96555e-13
9.191e-13
1.12083e-09
1.64522e-11
7.58673e-13
6.41907e-13
5.35932e-13
4.24285e-13
3.07574e-13
1.79117e-13
8.56994e-13
8.85924e-13
2.46983e-07
1.06517e-08
1.26172e-10
9.10791e-13
5.58568e-13
4.57731e-13
3.50491e-13
2.30782e-13
8.23482e-13
8.76208e-13
4.00209e-12
4.34576e-12
9.53195e-13
6.54748e-13
3.9455e-13
2.17283e-13
3.33689e-13
6.08729e-13
1.5314e-12
1.74808e-12
3.92875e-12
4.29237e-12
1.00178e-12
7.33382e-13
4.98236e-13
3.06365e-13
2.92269e-13
4.93237e-13
1.44125e-12
1.67041e-12
3.85567e-12
4.2303e-12
1.03197e-12
7.93924e-13
5.83828e-13
3.96904e-13
3.05037e-13
4.05036e-13
1.26416e-12
1.50757e-12
3.78542e-12
4.16592e-12
1.05135e-12
8.40223e-13
6.52991e-13
4.77329e-13
3.51685e-13
3.56392e-13
1.10508e-12
1.36025e-12
3.71902e-12
4.10098e-12
1.06317e-12
8.76529e-13
7.10101e-13
5.4793e-13
4.11706e-13
3.49448e-13
9.63506e-13
1.22771e-12
3.6562e-12
4.03607e-12
1.06834e-12
9.03659e-13
7.56746e-13
6.09406e-13
4.73879e-13
3.73388e-13
8.39383e-13
1.10958e-12
3.597e-12
3.97199e-12
1.06853e-12
9.2364e-13
7.94411e-13
6.61785e-13
5.32449e-13
4.15026e-13
7.32118e-13
1.00529e-12
3.54948e-12
3.90932e-12
1.06426e-12
9.37551e-13
8.24704e-13
7.06203e-13
5.85938e-13
4.63534e-13
6.42524e-13
9.14051e-13
1.01091e-09
1.65176e-11
1.06281e-12
9.46798e-13
8.48755e-13
7.43637e-13
6.33521e-13
5.13159e-13
5.70325e-13
8.3601e-13
1.56394e-07
2.14362e-08
1.94717e-10
1.1467e-12
8.64125e-13
7.73233e-13
6.73825e-13
5.58723e-13
5.15816e-13
7.79268e-13
2.96281e-12
3.63622e-12
1.24698e-12
1.03712e-12
8.7717e-13
7.89115e-13
8.65038e-13
1.16089e-12
2.25436e-12
3.03644e-12
2.88684e-12
3.5477e-12
1.26995e-12
1.09087e-12
9.47709e-13
8.45798e-13
8.50443e-13
1.03076e-12
1.96832e-12
2.7187e-12
2.80792e-12
3.44809e-12
1.26863e-12
1.11879e-12
9.96458e-13
8.95577e-13
8.58333e-13
9.43625e-13
1.62398e-12
2.33926e-12
2.73384e-12
3.3507e-12
1.25778e-12
1.13296e-12
1.03045e-12
9.38181e-13
8.81398e-13
9.00706e-13
1.3224e-12
2.00753e-12
2.66444e-12
3.25614e-12
1.24042e-12
1.13768e-12
1.05338e-12
9.72999e-13
9.11423e-13
8.89017e-13
1.06121e-12
1.71789e-12
2.59981e-12
3.16536e-12
1.21856e-12
1.13459e-12
1.06717e-12
9.99983e-13
9.417e-13
8.96392e-13
8.34624e-13
1.46541e-12
2.53963e-12
3.07816e-12
1.19349e-12
1.12584e-12
1.07317e-12
1.01893e-12
9.68268e-13
9.13427e-13
6.38385e-13
1.24655e-12
2.49232e-12
2.99528e-12
1.16629e-12
1.11266e-12
1.07326e-12
1.03127e-12
9.89596e-13
9.33972e-13
4.68971e-13
1.05797e-12
8.6917e-10
1.54918e-11
1.14232e-12
1.09633e-12
1.06827e-12
1.03771e-12
1.00595e-12
9.54416e-13
3.25597e-13
8.97158e-13
5.66608e-08
2.94969e-08
2.11628e-10
1.01739e-12
1.05362e-12
1.03722e-12
1.0142e-12
9.69171e-13
1.97909e-13
7.64723e-13
2.12328e-12
2.93539e-12
1.42634e-12
1.38693e-12
1.3887e-12
1.44641e-12
1.64817e-12
2.13756e-12
3.91069e-12
6.25627e-12
2.04692e-12
2.8213e-12
1.40063e-12
1.38203e-12
1.39634e-12
1.44535e-12
1.58602e-12
1.91749e-12
3.242e-12
5.27447e-12
1.96697e-12
2.69731e-12
1.35288e-12
1.35148e-12
1.37842e-12
1.42813e-12
1.53522e-12
1.75736e-12
2.58532e-12
4.33982e-12
1.89329e-12
2.58038e-12
1.30174e-12
1.31376e-12
1.3517e-12
1.40655e-12
1.49897e-12
1.6521e-12
2.04515e-12
3.56631e-12
1.82601e-12
2.47077e-12
1.24951e-12
1.27216e-12
1.31949e-12
1.38054e-12
1.46908e-12
1.58264e-12
1.60313e-12
2.92573e-12