/*--------------------------------*- C++ -*----------------------------------*\
| =========                 |                                                 |
| \\      /  F ield         | OpenFOAM: The Open Source CFD Toolbox           |
|  \\    /   O peration     | Version:  4.1                                   |
|   \\  /    A nd           | Web:      www.OpenFOAM.org                      |
|    \\/     M anipulation  |                                                 |
\*---------------------------------------------------------------------------*/
FoamFile
{
    version     2.0;
    format      ascii;
    class       surfaceScalarField;
    location    "0.28";
    object      phi;
}
// * * * * * * * * * * * * * * * * * * * * * * * * * * * * * * * * * * * * * //

dimensions      [1 0 -1 0 0 0 0];

internalField   nonuniform List<scalar> 
51500
(
3.69177e-13
1.04462e-14
1.53521e-11
-1.93647e-15
1.80208e-14
1.51743e-11
-2.18488e-15
1.71911e-14
1.49985e-11
-2.19537e-15
1.62155e-14
1.4825e-11
-2.14182e-15
1.51652e-14
1.46538e-11
-2.11856e-15
1.40636e-14
1.44848e-11
-2.13168e-15
1.2934e-14
1.43179e-11
-2.10724e-15
1.17927e-14
1.41536e-11
-2.07457e-15
1.06272e-14
1.39917e-11
9.44642e-15
1.38338e-11
-7.28584e-17
3.74468e-13
7.66159e-15
1.93273e-11
-9.65032e-15
9.28678e-15
1.86272e-11
-8.26751e-15
8.12866e-15
1.79559e-11
-8.10899e-15
7.11769e-15
1.73132e-11
-7.8817e-15
6.1526e-15
1.66986e-11
-7.66281e-15
4.96716e-15
1.61104e-11
-7.4513e-15
3.79848e-15
1.55473e-11
-7.26453e-15
2.70957e-15
1.50081e-11
-6.95447e-15
1.68476e-15
1.44913e-11
7.30501e-16
1.40017e-11
-7.46582e-16
3.77429e-13
9.67255e-15
2.46462e-11
-1.99488e-14
9.93953e-15
2.30999e-11
-1.62065e-14
8.25218e-15
2.1666e-11
-1.54775e-14
6.73603e-15
2.03378e-11
-1.47469e-14
5.37497e-15
1.91077e-11
-1.41217e-14
4.15138e-15
1.79675e-11
-1.34786e-14
3.05685e-15
1.69103e-11
-1.29276e-14
2.06997e-15
1.5928e-11
-1.21344e-14
1.19286e-15
1.50152e-11
4.37532e-16
1.41725e-11
-1.42811e-15
3.76555e-13
1.23828e-14
3.18754e-11
-3.39372e-14
1.2e-14
2.8962e-11
-2.64292e-14
9.71448e-15
2.63625e-11
-2.46882e-14
7.72866e-15
2.40365e-11
-2.30529e-14
6.02445e-15
2.19579e-11
-2.15789e-14
4.55581e-15
2.00957e-11
-2.02259e-14
3.28855e-15
1.84233e-11
-1.89902e-14
2.18563e-15
1.69186e-11
-1.75094e-14
1.23346e-15
1.55622e-11
4.33565e-16
1.43464e-11
-2.1786e-15
3.68536e-13
1.59326e-14
4.18717e-11
-5.28415e-14
1.47088e-14
3.67498e-11
-3.98329e-14
1.1542e-14
3.23654e-11
-3.62398e-14
8.93318e-15
2.85941e-11
-3.30369e-14
6.79003e-15
2.53478e-11
-3.02263e-14
5.01817e-15
2.25414e-11
-2.77825e-14
3.53883e-15
2.01064e-11
-2.5579e-14
2.30761e-15
1.79868e-11
-2.31685e-14
1.28144e-15
1.61344e-11
4.52752e-16
1.4524e-11
-2.93732e-15
3.47964e-13
2.07529e-14
5.5959e-11
-8.98353e-14
1.83369e-14
4.72503e-11
-5.74604e-14
1.38963e-14
4.01257e-11
-5.07875e-14
1.04105e-14
3.42543e-11
-4.51086e-14
7.6919e-15
2.9401e-11
-4.03375e-14
5.53402e-15
2.53623e-11
-3.62392e-14
3.81831e-15
2.19828e-11
-3.26935e-14
2.43854e-15
1.91392e-11
-2.90701e-14
1.32813e-15
1.67332e-11
4.5275e-16
1.4704e-11
-3.76543e-15
3.04049e-13
4.06944e-14
7.62314e-11
-1.50635e-13
3.8515e-14
6.16418e-11
-8.1065e-14
2.62207e-14
5.02747e-11
-6.92931e-14
1.53065e-14
4.13448e-11
-5.98397e-14
1.10412e-14
3.42759e-11
-5.20947e-14
7.82537e-15
2.86282e-11
-4.57371e-14
5.35422e-15
2.40783e-11
-4.0412e-14
3.44888e-15
2.03837e-11
-3.52883e-14
1.96034e-15
1.73604e-11
7.85017e-16
1.48873e-11
-4.60309e-15
2.29173e-13
-4.14766e-14
1.06112e-10
-2.24835e-13
-4.98129e-14
8.17084e-11
-1.12804e-13
-6.07e-14
6.37203e-11
-9.29621e-14
-6.80193e-14
5.0304e-11
-7.77202e-14
-7.30656e-14
4.01733e-11
-6.5826e-14
-7.65833e-14
3.24237e-11
-5.63311e-14
-7.90561e-14
2.64248e-11
-4.86786e-14
-8.08188e-14
2.17301e-11
-4.16751e-14
-8.2088e-14
1.80171e-11
-8.36678e-14
1.50748e-11
-5.50688e-15
1.63612e-12
-3.80479e-10
1.53351e-10
1.08664e-12
-3.94725e-10
1.11843e-10
9.84009e-13
-3.95301e-10
8.36963e-11
8.92723e-13
-3.95628e-10
6.39863e-11
8.11397e-13
-3.9582e-10
4.99655e-11
7.39333e-13
-3.95917e-10
3.98301e-11
6.75557e-13
-3.95946e-10
3.24017e-11
6.1908e-13
-3.95928e-10
2.68909e-11
5.67101e-13
-3.9588e-10
2.27573e-11
-3.9909e-10
1.96867e-11
-6.44385e-15
-5.09116e-11
6.93067e-08
-8.89965e-07
1.57567e-10
5.80599e-08
-9.3829e-07
1.54542e-10
5.03015e-08
-9.39973e-07
1.48974e-10
4.39787e-08
-9.41347e-07
1.43363e-10
3.876e-08
-9.42525e-07
1.37857e-10
3.44062e-08
-9.43547e-07
1.32547e-10
3.07387e-08
-9.44444e-07
1.27365e-10
2.7622e-08
-9.4524e-07
9.62985e-11
2.49531e-08
-9.45968e-07
2.28318e-08
-7.42483e-15
-9.62918e-07
3.43959e-13
9.30425e-14
2.9294e-13
-2.04555e-14
8.75017e-14
2.87613e-13
-2.60133e-14
7.70425e-14
2.82779e-13
-2.54702e-14
6.69201e-14
2.76745e-13
-2.51871e-14
5.71447e-14
2.71352e-13
-2.49516e-14
4.76992e-14
2.6667e-13
-2.4778e-14
3.85744e-14
2.61262e-13
-2.45792e-14
2.97655e-14
2.5673e-13
-2.67135e-14
2.12304e-14
2.52135e-13
1.30647e-14
2.47319e-13
-1.58294e-15
2.83521e-13
8.85337e-14
4.0986e-13
-7.47268e-14
8.02502e-14
3.8838e-13
-8.85957e-14
6.79397e-14
3.68787e-13
-8.57332e-14
5.62212e-14
3.48449e-13
-8.32988e-14
4.50358e-14
3.29891e-13
-8.09763e-14
3.38802e-14
3.1209e-13
-7.86822e-14
2.19857e-14
2.95919e-13
-7.69381e-14
1.43104e-14
2.80631e-13
-8.16687e-14
7.90708e-15
2.66768e-13
2.61509e-15
2.52623e-13
-4.33963e-15
1.92731e-13
1.11985e-13
5.81884e-13
-1.89126e-13
9.93281e-14
5.29867e-13
-1.69249e-13
8.28599e-14
4.8591e-13
-1.60649e-13
6.78489e-14
4.41664e-13
-1.52923e-13
5.43115e-14
4.02763e-13
-1.457e-13
4.21009e-14
3.67971e-13
-1.38938e-13
3.1078e-14
3.36519e-13
-1.3296e-13
2.11571e-14
3.08202e-13
-1.39143e-13
1.22411e-14
2.82582e-13
4.28597e-15
2.59085e-13
-7.10456e-15
6.72719e-14
1.38226e-13
8.43742e-13
-3.26035e-13
1.19103e-13
7.37554e-13
-2.73423e-13
9.69874e-14
6.49113e-13
-2.53663e-13
7.75971e-14
5.6668e-13
-2.36292e-13
6.07173e-14
4.96672e-13
-2.20568e-13
4.60356e-14
4.36468e-13
-2.06077e-13
3.3297e-14
3.84868e-13
-1.93312e-13
2.22327e-14
3.40694e-13
-1.98512e-13
1.26087e-14
3.0123e-13
4.33809e-15
2.6591e-13
-1.00365e-14
-6.46736e-14
1.72662e-13
1.25265e-12
-5.01078e-13
1.44255e-13
1.04686e-12
-4.0773e-13
1.14393e-13
8.80695e-13
-3.69278e-13
8.92009e-14
7.35193e-13
-3.36204e-13
6.81302e-14
6.18116e-13
-3.06841e-13
5.04892e-14
5.22057e-13
-2.80722e-13
3.57101e-14
4.42739e-13
-2.58267e-13
2.3344e-14
3.77243e-13
-2.60077e-13
1.29896e-14
3.22403e-13
4.37981e-15
2.73948e-13
-1.31924e-14
-2.29852e-13
2.18482e-13
1.91005e-12
-7.31378e-13
1.76712e-13
1.51323e-12
-5.8143e-13
1.36021e-13
1.21161e-12
-5.12961e-13
1.03192e-13
9.6428e-13
-4.55729e-13
7.67728e-14
7.75027e-13
-4.06423e-13
5.54827e-14
6.27755e-13
-3.6375e-13
3.83549e-14
5.12084e-13
-3.27817e-13
2.45342e-14
4.20492e-13
-3.24054e-13
1.33995e-14
3.46989e-13
4.4106e-15
2.83485e-13
-1.62524e-14
-6.88937e-13
2.78084e-13
2.99044e-12
-1.03975e-12
2.18285e-13
2.23733e-12
-8.0621e-13
1.62833e-13
1.69219e-12
-6.91852e-13
1.19933e-13
1.27811e-12
-5.989e-13
8.68461e-14
9.7953e-13
-5.21073e-13
6.13022e-14
7.59266e-13
-4.55996e-13
4.14851e-14
5.9443e-13
-4.02145e-13
2.61223e-14
4.70374e-13
-3.90574e-13
1.41575e-14
3.73673e-13
4.89638e-15
2.94456e-13
-1.93448e-14
-1.2484e-12
3.31837e-13
4.83107e-12
-1.45694e-12
2.42108e-13
3.384e-12
-1.09814e-12
1.71811e-13
2.40271e-12
-9.14568e-13
1.2122e-13
1.71616e-12
-7.69795e-13
8.44316e-14
1.25002e-12
-6.53199e-13
5.73794e-14
9.24186e-13
-5.58166e-13
3.73172e-14
6.93993e-13
-4.81874e-13
2.23212e-14
5.2727e-13
-4.59331e-13
1.10475e-14
4.04445e-13
2.59312e-15
3.0636e-13
-2.2575e-14
-2.09938e-12
1.07299e-11
8.31546e-12
-1.98553e-12
-1.91332e-12
4.73736e-12
-1.418e-12
-2.24986e-12
3.11931e-12
-1.1567e-12
-2.57419e-12
2.0961e-12
-9.5596e-13
-2.91621e-12
1.45843e-12
-7.97669e-13
-3.26396e-12
1.04748e-12
-6.71756e-13
-3.61001e-12
7.76303e-13
-5.72761e-13
-3.94959e-12
5.93624e-13
-5.44819e-13
-4.2799e-12
4.66071e-13
-4.58351e-12
3.66786e-13
-2.58365e-14
-3.64001e-10
3.83381e-09
4.35645e-08
-1.72638e-10
1.44946e-09
-9.34949e-10
-1.67387e-10
1.07235e-09
-9.56448e-10
-1.58949e-10
8.14322e-10
-9.29361e-10
-1.51178e-10
6.296e-10
-9.01832e-10
-1.44025e-10
4.94684e-10
-8.75377e-10
-1.37438e-10
3.94395e-10
-8.50622e-10
-1.31366e-10
3.18666e-10
-8.27876e-10
-1.26038e-10
2.60667e-10
-8.08141e-10
2.15087e-10
-2.92977e-14
-7.86359e-10
3.47588e-13
8.16833e-14
1.25314e-14
-1.78282e-14
7.75615e-14
1.09555e-14
-2.13033e-14
6.84355e-14
9.54584e-15
-1.99015e-14
5.96184e-14
8.1064e-15
-1.88624e-14
5.10963e-14
6.63519e-15
-1.96952e-14
4.28247e-14
4.83366e-15
-1.87523e-14
3.48729e-14
3.99677e-15
-1.90716e-14
2.71676e-14
3.38507e-15
-2.3379e-14
1.97176e-14
2.62677e-15
1.25846e-14
2.59939e-15
-1.39992e-15
2.96424e-13
5.86878e-14
2.02432e-14
-6.56987e-14
5.39216e-14
1.78168e-14
-7.00052e-14
4.56867e-14
1.76719e-14
-6.58894e-14
3.78806e-14
1.41682e-14
-6.44265e-14
3.05978e-14
1.15592e-14
-6.18121e-14
2.38633e-14
9.59371e-15
-6.013e-14
1.76299e-14
7.43403e-15
-5.95424e-14
1.19394e-14
5.92764e-15
-7.1257e-14
6.81205e-15
5.2773e-15
2.37831e-15
4.00308e-15
-4.4127e-15
2.18441e-13
7.49202e-14
2.9813e-14
-1.6567e-13
6.76407e-14
2.74501e-14
-1.32535e-13
5.68332e-14
2.78667e-14
-1.22472e-13
4.69494e-14
2.3212e-14
-1.16025e-13
3.79695e-14
1.91519e-14
-1.10172e-13
2.97621e-14
1.52981e-14
-1.0417e-13
2.23263e-14
1.30248e-14
-1.02579e-13
1.59728e-14
1.11038e-14
-1.21175e-13
9.37177e-15
9.23742e-15
3.32244e-15
7.2304e-15
-7.26134e-15
9.67543e-14
9.30627e-14
4.83976e-14
-2.89065e-13
8.14453e-14
4.68185e-14
-2.11512e-13
6.67882e-14
4.68791e-14
-1.84593e-13
5.38707e-14
3.82479e-14
-1.71726e-13
4.26165e-14
3.1781e-14
-1.59962e-13
3.27539e-14
2.64343e-14
-1.47624e-13
2.4126e-14
2.2309e-14
-1.4832e-13
1.65225e-14
1.88564e-14
-1.72973e-13
9.66608e-15
1.6757e-14
3.41522e-15
1.18279e-14
-1.03448e-14
-2.03353e-14
1.17244e-13
8.36875e-14
-4.45474e-13
9.90243e-14
8.14901e-14
-2.99305e-13
7.90386e-14
7.76887e-14
-2.62982e-13
6.21183e-14
6.37714e-14
-2.39419e-13
4.79251e-14
5.19115e-14
-2.18033e-13
3.60159e-14
4.27451e-14
-1.98642e-13
2.60652e-14
3.61922e-14
-1.89836e-13
1.78952e-14
3.11479e-14
-2.26686e-13
1.01486e-14
2.68428e-14
3.50058e-15
1.83362e-14
-1.33261e-14
-1.55817e-13
1.4978e-13
1.47327e-13
-6.50226e-13
1.2216e-13
1.43982e-13
-4.15921e-13
9.4405e-14
1.29035e-13
-3.60954e-13
7.20964e-14
1.03322e-13
-3.20322e-13
5.41814e-14
8.32862e-14
-2.85034e-13
3.96681e-14
6.75968e-14
-2.54359e-13
2.7944e-14
5.60197e-14
-2.33149e-13
1.88745e-14
4.72933e-14
-2.82564e-13
1.03807e-14
3.93158e-14
3.52609e-15
2.67872e-14
-1.65213e-14
-5.67103e-13
1.94172e-13
2.61229e-13
-9.24112e-13
1.52338e-13
2.50906e-13
-5.68496e-13
1.13773e-13
2.11866e-13
-4.82378e-13
8.42629e-14
1.64689e-13
-4.16939e-13
6.15612e-14
1.29152e-13
-3.61871e-13
4.39686e-14
1.02708e-13
-3.15487e-13
3.05199e-14
8.33634e-14
-2.81908e-13
1.98322e-14
6.81778e-14
-3.40424e-13
1.08167e-14
5.65116e-14
3.67774e-15
3.70644e-14
-1.97271e-14
-1.09322e-12
3.04025e-13
4.70552e-13
-1.2931e-12
2.86674e-13
4.34247e-13
-7.67989e-13
2.0503e-13
3.45477e-13
-6.33793e-13
1.44167e-13
2.56881e-13
-5.32185e-13
1.00365e-13
1.95129e-13
-4.49848e-13
6.83637e-14
1.51266e-13
-3.83642e-13
4.46327e-14
1.18812e-13
-3.33369e-13
2.6748e-14
9.52238e-14
-4.00441e-13
1.27065e-14
7.75159e-14
3.4541e-15
4.8755e-14
-2.30449e-14
-1.93293e-12
1.28347e-11
1.91888e-12
-1.78621e-12
7.02406e-13
7.38637e-13
-1.02972e-12
4.4819e-13
5.47225e-13
-8.2266e-13
3.01567e-13
3.91872e-13
-6.69658e-13
1.97597e-13
2.87578e-13
-5.51269e-13
1.23182e-13
2.15615e-13
-4.58422e-13
6.94776e-14
1.64968e-13
-3.88987e-13
3.05085e-14
1.28477e-13
-4.63308e-13
2.08433e-15
1.02018e-13
-1.8142e-14
6.43394e-14
-2.63903e-14
-1.73378e-10
2.26705e-09
4.04403e-08
-9.59907e-12
3.68798e-11
3.89583e-11
-9.50389e-12
1.49654e-11
-2.50477e-13
-7.77994e-12
9.74284e-12
5.92708e-13
-6.42082e-12
6.58217e-12
1.41393e-12
-5.35966e-12
4.57382e-12
1.89988e-12
-4.51939e-12
3.25706e-12
2.23755e-12
-3.84813e-12
2.36816e-12
2.46896e-12
-3.31721e-12
1.75493e-12
2.6238e-12
1.27962e-12
-2.99535e-14
3.68484e-12
3.47569e-13
8.12001e-14
1.07389e-14
-1.79458e-14
7.71434e-14
9.72855e-15
-2.10706e-14
6.80926e-14
8.34357e-15
-1.96323e-14
5.93139e-14
6.35494e-15
-1.92217e-14
5.08479e-14
4.20577e-15
-1.93126e-14
4.26553e-14
3.39949e-15
-1.77553e-14
3.47374e-14
2.03175e-15
-1.9133e-14
2.70718e-14
7.88445e-16
-2.31681e-14
1.96868e-14
4.22813e-16
1.25864e-14
1.1225e-16
-1.53805e-15
2.96885e-13
5.81277e-14
1.88006e-14
-6.54245e-14
5.34493e-14
1.66732e-14
-6.93622e-14
4.52859e-14
1.68064e-14
-6.4576e-14
3.75876e-14
1.30987e-14
-6.29405e-14
3.03763e-14
9.33853e-15
-6.09028e-14
2.3679e-14
6.93176e-15
-5.90491e-14
1.75296e-14
5.40187e-15
-5.82416e-14
1.18963e-14
4.14508e-15
-7.08551e-14
6.79265e-15
2.79474e-15
2.40076e-15
1.63255e-15
-4.35589e-15
2.19692e-13
7.39945e-14
2.69862e-14
-1.64714e-13
6.68464e-14
2.54739e-14
-1.30034e-13
5.61473e-14
2.72245e-14
-1.16042e-13
4.62841e-14
2.08673e-14
-1.12059e-13
3.73924e-14
1.70784e-14
-1.03708e-13
2.93223e-14
1.44687e-14
-9.89181e-14
2.18505e-14
1.11579e-14
-1.0131e-13
1.50804e-14
9.31536e-15
-1.20321e-13
9.30696e-15
7.95955e-15
3.2224e-15
5.61527e-15
-7.23922e-15
9.8451e-14
9.19127e-14
4.43869e-14
-2.87284e-13
8.04427e-14
4.46984e-14
-2.03455e-13
6.59205e-14
4.72316e-14
-1.79067e-13
5.31822e-14
3.84415e-14
-1.67048e-13
4.19747e-14
3.12751e-14
-1.55443e-13
3.21462e-14
2.68503e-14
-1.44567e-13
2.35739e-14
2.16887e-14
-1.42985e-13
1.6034e-14
1.8859e-14
-1.71974e-13
9.53346e-15
1.58774e-14
3.45332e-15
1.06433e-14
-1.03821e-14
-1.75287e-14
1.15742e-13
7.86831e-14
-4.42547e-13
9.78463e-14
8.23643e-14
-2.89823e-13
7.80549e-14
8.11688e-14
-2.58069e-13
6.12947e-14
6.54957e-14
-2.34795e-13
4.72798e-14
5.46012e-14
-2.13661e-13
3.54559e-14
4.50716e-14
-1.94899e-13
2.54456e-14
3.79827e-14
-1.83534e-13
1.70971e-14
3.2705e-14
-2.25478e-13
9.92045e-15
2.89328e-14
3.57676e-15
1.97676e-14
-1.33485e-14
-1.51736e-13
1.47777e-13
1.38172e-13
-6.45662e-13
1.20643e-13
1.45216e-13
-4.07274e-13
9.32145e-14
1.37619e-13
-3.54955e-13
7.11962e-14
1.10421e-13
-3.1527e-13
5.34472e-14
8.99448e-14
-2.80459e-13
3.90608e-14
7.46817e-14
-2.50254e-13
2.7423e-14
6.24241e-14
-2.29541e-13
1.79761e-14
5.1905e-14
-2.81004e-13
1.03998e-14
4.55367e-14
3.6402e-15
2.94743e-14
-1.66317e-14
-5.57222e-13
1.9158e-13
2.46879e-13
-9.16897e-13
1.50437e-13
2.58867e-13
-5.5878e-13
1.12407e-13
2.27908e-13
-4.75393e-13
8.3187e-14
1.79281e-13
-4.11101e-13
6.07262e-14
1.42831e-13
-3.56794e-13
4.33079e-14
1.16138e-13
-3.11591e-13
2.96689e-14
9.40272e-14
-2.77838e-13
1.90519e-14
7.88885e-14
-3.38902e-13
1.08504e-14
6.6803e-14
3.63254e-15
4.26186e-14
-1.98478e-14
-1.07804e-12
3.0149e-13
4.4132e-13
-1.28131e-12
1.81245e-13
4.50964e-13
-7.56883e-13
1.38802e-13
3.72528e-13
-6.25307e-13
9.99157e-14
2.85096e-13
-5.25377e-13
7.18207e-14
2.20904e-13
-4.44666e-13
5.35551e-14
1.73812e-13
-3.79334e-13
3.62218e-14
1.3817e-13
-3.29284e-13
2.27135e-14
1.12232e-13
-3.99178e-13
1.23745e-14
9.1692e-14
4.5805e-15
6.0023e-14
-2.30469e-14
-1.91215e-12
1.28403e-11
2.63034e-12
-1.76791e-12
3.35359e-13
7.92817e-13
-1.01699e-12
2.60361e-13
6.06545e-13
-8.13347e-13
1.7375e-13
4.44647e-13
-6.62576e-13
1.15939e-13
3.30752e-13
-5.45707e-13
7.59086e-14
2.52727e-13
-4.5406e-13
4.78468e-14
1.95825e-13
-3.84937e-13
2.79553e-14
1.55258e-13
-4.61426e-13
1.3645e-14
1.23029e-13
2.88742e-15
7.53196e-14
-2.65354e-14
-1.66294e-10
3.4277e-09
4.1108e-08
-2.57483e-12
1.63913e-11
4.51484e-11
-1.40294e-12
1.25464e-12
5.61867e-13
-1.13946e-12
8.24513e-13
4.16536e-13
-8.949e-13
5.80225e-13
3.224e-13
-7.13544e-13
4.20019e-13
1.77697e-13
-5.76724e-13
3.11602e-13
1.38654e-13
-4.76707e-13
2.35722e-13
1.18317e-13
-5.49592e-13
1.81368e-13
1.03973e-13
1.1121e-13
-3.00695e-14
9.90835e-14
3.47432e-13
8.13266e-14
1.86411e-14
-1.82391e-14
7.72468e-14
1.62591e-14
-2.11852e-14
6.81861e-14
1.23985e-14
-2.01889e-14
5.93921e-14
8.249e-15
-1.85095e-14
5.09063e-14
8.30791e-15
-1.94754e-14
4.26935e-14
4.05483e-15
-1.8965e-14
3.47817e-14
4.22457e-15
-1.88425e-14
2.71347e-14
3.21083e-15
-2.31975e-14
1.97277e-14
8.90762e-16
1.2624e-14
3.1721e-16
-1.67509e-15
2.96593e-13
5.82628e-14
2.92117e-14
-6.5741e-14
5.35708e-14
2.39939e-14
-6.95123e-14
4.53863e-14
2.16738e-14
-6.53819e-14
3.76502e-14
1.76922e-14
-6.2864e-14
3.04587e-14
1.23886e-14
-6.09493e-14
2.37616e-14
9.93768e-15
-5.88163e-14
1.75874e-14
6.8503e-15
-5.86561e-14
1.19455e-14
6.75558e-15
-7.09161e-14
6.84679e-15
5.37884e-15
2.45173e-15
2.06179e-15
-4.36847e-15
2.19206e-13
7.42033e-14
4.05474e-14
-1.65382e-13
6.70322e-14
3.6242e-14
-1.30992e-13
5.63209e-14
3.76389e-14
-1.15605e-13
4.64725e-14
3.07823e-14
-1.10981e-13
3.75047e-14
2.39719e-14
-1.04669e-13
2.94304e-14
1.82431e-14
-9.87331e-14
2.19509e-14
1.58e-14
-1.01536e-13
1.51872e-14
1.24114e-14
-1.20356e-13
9.2406e-15
1.3462e-14
3.10403e-15
6.74213e-15
-7.42158e-15
9.7924e-14
9.22961e-14
6.96499e-14
-2.88192e-13
8.0793e-14
6.54467e-14
-2.04552e-13
6.61776e-14
6.47591e-14
-1.79689e-13
5.33781e-14
5.29071e-14
-1.6693e-13
4.21813e-14
4.42771e-14
-1.56218e-13
3.22614e-14
3.3972e-14
-1.44489e-13
2.3698e-14
3.45427e-14
-1.43935e-13
1.61626e-14
2.67343e-14
-1.7216e-13
9.79163e-15
2.55724e-14
3.6888e-15
1.91057e-14
-1.02353e-14
-1.84934e-14
1.16303e-13
1.08435e-13
-4.4414e-13
9.83077e-14
1.12587e-13
-2.90918e-13
7.84751e-14
1.11883e-13
-2.58514e-13
6.16506e-14
9.26026e-14
-2.35629e-13
4.75529e-14
7.82983e-14
-2.14117e-13
3.57481e-14
6.80501e-14
-1.95265e-13
2.57029e-14
5.72027e-14
-1.83738e-13
1.71856e-14
4.55622e-14
-2.25863e-13
9.97802e-15
4.11804e-14
3.63158e-15
2.516e-14
-1.3401e-14
-1.53348e-13
1.48692e-13
1.99448e-13
-6.48106e-13
1.2143e-13
2.05731e-13
-4.08975e-13
9.38256e-14
1.87965e-13
-3.56186e-13
7.16897e-14
1.51604e-13
-3.16174e-13
5.38627e-14
1.22468e-13
-2.81347e-13
3.93892e-14
1.04051e-13
-2.51109e-13
2.7657e-14
8.30587e-14
-2.29832e-13
1.82921e-14
7.66541e-14
-2.8176e-13
1.06811e-14
6.18583e-14
3.83851e-15
4.02087e-14
-1.65603e-14
-5.61723e-13
1.93021e-13
3.48168e-13
-9.21177e-13
1.51575e-13
3.55984e-13
-5.61351e-13
1.13298e-13
3.17024e-13
-4.77435e-13
8.3903e-14
2.43433e-13
-4.12719e-13
6.13054e-14
1.98247e-13
-3.58379e-13
4.37676e-14
1.56318e-13
-3.12653e-13
3.00612e-14
1.29282e-13
-2.7869e-13
1.92737e-14
1.05795e-13
-3.40155e-13
1.108e-14
8.83511e-14
3.9889e-15
5.82097e-14
-1.98214e-14
-1.08659e-12
3.04189e-13
6.18247e-13
-1.28844e-12
1.82395e-13
6.25898e-13
-7.61051e-13
1.3919e-13
5.0902e-13
-6.28705e-13
1.00044e-13
3.87133e-13
-5.28104e-13
7.15412e-14
3.00584e-13
-4.47008e-13
5.30192e-14
2.34146e-13
-3.81136e-13
3.63346e-14
1.90016e-13
-3.30895e-13
2.29461e-14
1.52744e-13
-4.0093e-13
1.26096e-14
1.25178e-13
4.79314e-15
8.10405e-14
-2.31499e-14
-1.92823e-12
1.28881e-11
3.54477e-12
-1.77979e-12
3.29292e-13
1.08818e-12
-1.02394e-12
2.39196e-13
8.25207e-13
-8.18886e-13
1.6307e-13
6.01245e-13
-6.66791e-13
1.06178e-13
4.54205e-13
-5.49255e-13
6.52754e-14
3.45266e-13
-4.56776e-13
3.06134e-14
2.66436e-13
-3.87347e-13
1.69007e-14
2.08754e-13
-4.64165e-13
8.6744e-15
1.69352e-13
3.25769e-15
1.11025e-13
-2.65528e-14
-1.68221e-10
4.54015e-09
4.20792e-08
-2.45307e-12
2.3838e-11
4.659e-11
-1.3099e-12
1.26987e-12
2.16243e-13
-1.05885e-12
8.55778e-13
9.32545e-14
-8.34219e-13
6.15448e-13
6.7505e-14
-6.6708e-13
4.54176e-13
5.13274e-14
-5.40852e-13
3.41919e-13
3.9975e-14
-4.47246e-13
2.62284e-13
3.16937e-14
-5.29752e-13
2.03513e-13
2.54745e-14
1.24789e-13
-3.01612e-14
2.07921e-14
3.47143e-13
8.14893e-14
1.94621e-14
-1.86022e-14
7.73856e-14
1.54295e-14
-2.1677e-14
6.82877e-14
1.72433e-14
-1.98983e-14
5.94947e-14
1.30521e-14
-1.96777e-14
5.09672e-14
7.43607e-15
-1.92399e-14
4.27607e-14
5.00886e-15
-1.88796e-14
3.48245e-14
2.53201e-15
-1.93024e-14
2.71775e-14
1.46028e-15
-2.32425e-14
1.97834e-14
8.85967e-16
1.26644e-14
3.88699e-16
-1.53003e-15
2.9615e-13
5.84444e-14
3.42594e-14
-6.62585e-14
5.37309e-14
3.24209e-14
-6.9464e-14
4.55372e-14
3.13567e-14
-6.6269e-14
3.77657e-14
2.26636e-14
-6.25235e-14
3.05723e-14
2.02519e-14
-6.15213e-14
2.38487e-14
1.25251e-14
-5.82632e-14
1.76721e-14
9.01003e-15
-5.871e-14
1.20143e-14
5.7106e-15
-7.10814e-14
6.91689e-15
5.19026e-15
2.51101e-15
3.38847e-15
-4.38321e-15
2.18489e-13
7.45246e-14
4.74031e-14
-1.66316e-13
6.73032e-14
4.85608e-14
-1.31469e-13
5.65374e-14
4.80434e-14
-1.16086e-13
4.66626e-14
4.14385e-14
-1.1158e-13
3.76624e-14
3.2005e-14
-1.04561e-13
2.95222e-14
2.58012e-14
-9.92743e-14
2.21404e-14
1.86651e-14
-1.01079e-13
1.53871e-14
1.92262e-14
-1.20611e-13
9.22103e-15
1.27912e-14
3.48736e-15
9.40591e-15
-7.39166e-15
9.7112e-14
9.27586e-14
8.36628e-14
-2.89507e-13
8.12154e-14
8.41586e-14
-2.04796e-13
6.65427e-14
8.5485e-14
-1.80152e-13
5.36912e-14
7.14268e-14
-1.68185e-13
4.24699e-14
5.61693e-14
-1.55615e-13
3.25834e-14
4.63366e-14
-1.45267e-13
2.3866e-14
3.58553e-14
-1.44162e-13
1.62743e-14
3.52054e-14
-1.72373e-13
9.92937e-15
2.78353e-14
3.68212e-15
1.69605e-14
-1.03309e-14
-1.98439e-14
1.17115e-13
1.49425e-13
-4.46169e-13
9.89933e-14
1.52847e-13
-2.92219e-13
7.90164e-14
1.49362e-13
-2.59457e-13
6.20971e-14
1.21904e-13
-2.36372e-13
4.78895e-14
9.90013e-14
-2.14982e-13
3.60302e-14
7.98447e-14
-1.95831e-13
2.59312e-14
6.32485e-14
-1.83994e-13
1.74696e-14
5.58077e-14
-2.26444e-13
1.01744e-14
4.63623e-14
3.91436e-15
3.14052e-14
-1.33593e-14
-1.55583e-13
1.49924e-13
2.44111e-13
-6.51539e-13
1.22434e-13
2.7192e-13
-4.1105e-13
9.46673e-14
2.51192e-13
-3.57934e-13
7.23457e-14
2.00057e-13
-3.17322e-13
5.44458e-14
1.6254e-13
-2.82827e-13
3.98203e-14
1.23764e-13
-2.5184e-13
2.8056e-14
1.09754e-13
-2.30714e-13
1.84726e-14
8.58812e-14
-2.82738e-13
1.09535e-14
7.40213e-14
4.06029e-15
4.86078e-14
-1.65336e-14
-5.68058e-13
1.94961e-13
4.43469e-13
-9.26781e-13
1.53149e-13
4.82911e-13
-5.6514e-13
1.14473e-13
4.07864e-13
-4.79958e-13
8.48569e-14
3.24403e-13
-4.15211e-13
6.20296e-14
2.4523e-13
-3.60196e-13
4.43721e-14
1.97659e-13
-3.14341e-13
3.05776e-14
1.57982e-13
-2.7988e-13
1.97253e-14
1.35271e-13
-3.41725e-13
1.1439e-14
1.10557e-13
4.33565e-15
6.84258e-14
-1.98095e-14
-1.09822e-12
3.07913e-13
7.98833e-13
-1.29819e-12
1.84649e-13
8.36864e-13
-7.66733e-13
1.4092e-13
6.74029e-13
-6.3323e-13
1.01329e-13
5.06709e-13
-5.3186e-13
7.25606e-14
3.79108e-13
-4.49908e-13
5.37129e-14
2.97647e-13
-3.83736e-13
3.69737e-14
2.30328e-13
-3.32973e-13
2.35011e-14
1.8702e-13
-4.03264e-13
1.30721e-14
1.53877e-13
5.17616e-15
9.42607e-14
-2.31724e-14
-1.95108e-12
1.31566e-11
4.71285e-12
-1.79575e-12
3.33856e-13
1.45728e-12
-1.03342e-12
2.41525e-13
1.09069e-12
-8.26077e-13
1.65513e-13
7.90167e-13
-6.72622e-13
1.07927e-13
5.65313e-13
-5.53944e-13
6.65755e-14
4.2346e-13
-4.60485e-13
3.14186e-14
3.21759e-13
-3.90469e-13
1.7444e-14
2.57242e-13
-4.67628e-13
9.05198e-15
2.03464e-13
3.6458e-15
1.2441e-13
-2.66972e-14
-1.72346e-10
6.77464e-09
4.31212e-08
-2.48037e-12
3.42307e-11
4.8153e-11
-1.32337e-12
1.78902e-12
2.11326e-13
-1.06964e-12
1.17305e-12
8.33242e-14
-8.42445e-13
8.34066e-13
6.33844e-14
-6.73577e-13
6.04875e-13
4.93928e-14
-5.46071e-13
4.45495e-13
3.91704e-14
-4.51552e-13
3.35832e-13
3.15834e-14
-5.34558e-13
2.6471e-13
2.58459e-14
1.58168e-13
-3.02863e-14
2.15584e-14
3.46701e-13
8.16935e-14
2.74957e-14
-1.89264e-14
7.75746e-14
2.63528e-14
-2.21208e-14
6.84241e-14
2.1476e-14
-2.03781e-14
5.96051e-14
1.66362e-14
-1.97978e-14
5.10821e-14
1.0518e-14
-1.9773e-14
4.28476e-14
5.53491e-15
-1.86898e-14
3.49129e-14
3.73155e-15
-1.92648e-14
2.72387e-14
2.85478e-15
-2.32886e-14
1.98437e-14
2.36175e-15
1.2736e-14
3.62652e-15
-1.59508e-15
2.95608e-13
5.86614e-14
4.59379e-14
-6.68162e-14
5.39251e-14
4.30581e-14
-7.00733e-14
4.57015e-14
4.17664e-14
-6.59923e-14
3.79206e-14
3.19489e-14
-6.37763e-14
3.0678e-14
2.27828e-14
-6.12801e-14
2.39599e-14
1.30502e-14
-5.93304e-14
1.77654e-14
9.42022e-15
-5.85362e-14
1.21259e-14
7.8661e-15
-7.10679e-14
6.99895e-15
6.69251e-15
2.57962e-15
6.25907e-15
-4.42116e-15
2.17641e-13
7.4907e-14
6.7557e-14
-1.67475e-13
6.76241e-14
6.62123e-14
-1.31642e-13
5.68096e-14
6.6967e-14
-1.17508e-13
4.68796e-14
5.30746e-14
-1.11324e-13
3.78684e-14
4.1549e-14
-1.05742e-13
2.9693e-14
2.68458e-14
-9.84296e-14
2.23111e-14
1.97901e-14
-1.01995e-13
1.54631e-14
1.58895e-14
-1.20701e-13
9.48253e-15
1.47998e-14
3.39689e-15
1.30867e-14
-7.46907e-15
9.61277e-14
9.33715e-14
1.08575e-13
-2.91117e-13
8.17429e-14
1.13934e-13
-2.04881e-13
6.69923e-14
1.14261e-13
-1.81173e-13
5.40695e-14
9.18639e-14
-1.68577e-13
4.2809e-14
7.47712e-14
-1.56444e-13
3.28946e-14
6.03993e-14
-1.4517e-13
2.40915e-14
4.02788e-14
-1.44782e-13
1.64842e-14
3.20235e-14
-1.72835e-13
9.90965e-15
2.76073e-14
3.99914e-15
2.45114e-14
-1.02895e-14
-2.16065e-14
1.18068e-13
1.91015e-13
-4.48654e-13
9.98126e-14
2.02096e-13
-2.93746e-13
7.96907e-14
1.93521e-13
-2.60692e-13
6.26438e-14
1.56076e-13
-2.37217e-13
4.83524e-14
1.26801e-13
-2.16191e-13
3.63845e-14
1.04589e-13
-1.96208e-13
2.63095e-14
7.39273e-14
-1.85103e-13
1.76779e-14
5.79295e-14
-2.27041e-13
1.05357e-14
4.73632e-14
4.14167e-15
3.51615e-14
-1.34569e-14
-1.58348e-13
1.51468e-13
3.4267e-13
-6.55659e-13
1.23689e-13
3.57433e-13
-4.13683e-13
9.56567e-14
3.24909e-13
-3.59894e-13
7.3173e-14
2.59613e-13
-3.19147e-13
5.51034e-14
2.08911e-13
-2.84071e-13
4.03941e-14
1.71261e-13
-2.53335e-13
2.84832e-14
1.31096e-13
-2.31414e-13
1.8879e-14
9.36875e-14
-2.83904e-13
1.12932e-14
7.6015e-14
4.32629e-15
4.89427e-14
-1.65519e-14
-5.75883e-13
1.97363e-13
6.09742e-13
-9.3378e-13
1.5505e-13
6.23911e-13
-5.69225e-13
1.15958e-13
5.37898e-13
-4.83515e-13
8.60047e-14
4.19346e-13
-4.17922e-13
6.29464e-14
3.31529e-13
-3.62564e-13
4.51159e-14
2.63612e-13
-3.16463e-13
3.12018e-14
2.09565e-13
-2.8134e-13
2.01639e-14
1.42599e-13
-3.43655e-13
1.18251e-14
1.14108e-13
4.71969e-15
6.9673e-14
-1.97951e-14
-1.11277e-12
3.1247e-13
1.09441e-12
-1.30992e-12
1.87321e-13
1.09027e-12
-7.7381e-13
1.43095e-13
8.84427e-13
-6.38908e-13
1.02983e-13
6.65645e-13
-5.36305e-13
7.38083e-14
5.09101e-13
-4.5362e-13
5.39867e-14
3.94472e-13
-3.86936e-13
3.77743e-14
3.08145e-13
-3.35515e-13
2.4212e-14
2.09888e-13
-4.06152e-13
1.36549e-14
1.61334e-13
5.64464e-15
9.63283e-14
-2.32644e-14
-1.97999e-12
1.36013e-11
5.81103e-12
-1.8152e-12
3.39538e-13
1.92011e-12
-1.04509e-12
2.46838e-13
1.44476e-12
-8.3515e-13
1.68992e-13
1.04231e-12
-6.79778e-13
1.1053e-13
7.69178e-13
-5.59671e-13
6.87192e-14
5.75763e-13
-4.65055e-13
3.26024e-14
4.38901e-13
-3.94329e-13
1.81247e-14
3.20474e-13
-4.71942e-13
9.50162e-15
2.21008e-13
4.12372e-15
1.30215e-13
-2.6746e-14
-1.82357e-10
8.55142e-09
4.65776e-08
-2.5173e-12
3.89414e-11
5.13198e-11
-1.34041e-12
2.39642e-12
2.06908e-13
-1.08379e-12
1.60331e-12
8.36915e-14
-8.53351e-13
1.13638e-12
6.38906e-14
-6.82083e-13
8.21917e-13
4.99481e-14
-5.52865e-13
6.06721e-13
3.975e-14
-4.5707e-13
4.49872e-13
3.21899e-14
-5.40628e-13
2.94303e-13
2.64809e-14
1.71167e-13
-3.03505e-14
2.22695e-14
3.46276e-13
8.19127e-14
2.6623e-14
-1.9495e-14
7.77186e-14
1.73356e-14
-2.23511e-14
6.85758e-14
1.64078e-14
-2.07452e-14
5.97232e-14
1.28296e-14
-2.01795e-14
5.11891e-14
1.20476e-14
-1.99712e-14
4.29537e-14
1.27412e-14
-1.92985e-14
3.50266e-14
1.59079e-14
-1.94636e-14
2.73722e-14
3.73841e-14
-2.34825e-14
1.99937e-14
1.50669e-13
1.29048e-14
5.22217e-13
-2.14e-15
2.94926e-13
5.89269e-14
4.34724e-14
-6.7353e-14
5.41294e-14
2.93863e-14
-7.07852e-14
4.5861e-14
3.18569e-14
-6.63677e-14
3.80733e-14
2.57503e-14
-6.42148e-14
3.08126e-14
2.94105e-14
-6.11878e-14
2.40934e-14
2.13596e-14
-5.91626e-14
1.78878e-14
2.23638e-14
-5.98552e-14
1.22408e-14
3.45871e-14
-7.18649e-14
7.15492e-15
9.62444e-14
2.69843e-15
3.38561e-13
-4.19131e-15
2.1659e-13
7.52971e-14
6.26324e-14
-1.68669e-13
6.79412e-14
4.63559e-14
-1.32221e-13
5.71012e-14
5.23087e-14
-1.18567e-13
4.71211e-14
4.37686e-14
-1.11406e-13
3.81217e-14
3.73956e-14
-1.05863e-13
2.99438e-14
3.5281e-14
-9.93236e-14
2.25277e-14
3.6173e-14
-1.01617e-13
1.56557e-14
4.14204e-14
-1.22021e-13
9.34591e-15
7.5691e-14
3.57149e-15
2.26552e-13
-7.07485e-15
9.50585e-14
9.40641e-14
1.04224e-13
-2.92706e-13
8.22814e-14
8.52493e-14
-2.06588e-13
6.74388e-14
9.28228e-14
-1.8184e-13
5.44634e-14
7.85133e-14
-1.68915e-13
4.31334e-14
6.78884e-14
-1.57224e-13
3.31653e-14
5.18619e-14
-1.45962e-13
2.43928e-14
5.84022e-14
-1.44011e-13
1.67912e-14
5.90994e-14
-1.74228e-13
1.00666e-14
7.73295e-14
4.27315e-15
1.70635e-13
-1.00345e-14
-2.3546e-14
1.19177e-13
1.80883e-13
-4.51155e-13
1.00666e-13
1.60284e-13
-2.95314e-13
8.04085e-14
1.633e-13
-2.62012e-13
6.32714e-14
1.37206e-13
-2.38062e-13
4.88932e-14
1.16678e-13
-2.17175e-13
3.68928e-14
1.33114e-13
-1.97177e-13
2.66412e-14
8.64958e-14
-1.8604e-13
1.79851e-14
8.82741e-14
-2.28687e-13
1.08608e-14
9.47709e-14
4.28058e-15
1.46345e-13
-1.32008e-14
-1.61585e-13
1.53177e-13
3.5684e-13
-6.59721e-13
1.24968e-13
2.96414e-13
-4.16147e-13
9.67179e-14
2.81608e-13
-3.6216e-13
7.40571e-14
2.31399e-13
-3.20534e-13
5.58672e-14
1.92098e-13
-2.86118e-13
4.10034e-14
2.09007e-13
-2.54717e-13
2.90924e-14
1.14968e-13
-2.32633e-13
1.92568e-14
1.31759e-13
-2.8607e-13
1.16932e-14
1.2477e-13
4.79861e-15
1.43175e-13
-1.64662e-14
-5.84955e-13
2.0021e-13
6.88692e-13
-9.40458e-13
1.57033e-13
5.36177e-13
-5.73543e-13
1.17543e-13
4.74925e-13
-4.87003e-13
8.72757e-14
3.78103e-13
-4.20869e-13
6.3956e-14
3.26101e-13
-3.65009e-13
4.59568e-14
3.19572e-13
-3.19279e-13
3.18561e-14
2.67491e-13
-2.83103e-13
2.07295e-14
1.61194e-13
-3.4651e-13
1.22188e-14
1.67499e-13
5.07239e-15
1.54413e-13
-1.9757e-14
-1.12882e-12
3.16641e-13
1.28632e-12
-1.32109e-12
1.91662e-13
9.47695e-13
-7.81052e-13
1.4543e-13
8.03218e-13
-6.44687e-13
1.04776e-13
6.51081e-13
-5.41051e-13
7.5242e-14
5.50476e-13
-4.57476e-13
5.44699e-14
4.80774e-13
-3.9095e-13
3.87887e-14
4.06903e-13
-3.38518e-13
2.50096e-14
2.13574e-13
-4.1017e-13
1.43423e-14
2.24647e-13
6.20503e-15
1.77447e-13
-2.3221e-14
-1.99845e-12
1.08087e-11
5.17868e-12
-1.83503e-12
3.30383e-13
1.85139e-12
-1.05693e-12
2.58252e-13
1.48994e-12
-8.44288e-13
1.72868e-13
1.12392e-12
-6.87411e-13
1.13472e-13
8.78613e-13
-5.65566e-13
7.11576e-14
7.11098e-13
-4.70832e-13
3.40314e-14
5.76914e-13
-3.98793e-13
1.89719e-14
2.87938e-13
-4.77518e-13
1.00473e-14
2.70297e-13
4.70567e-15
2.10372e-13
-2.67811e-14
-1.53226e-10
3.0244e-09
4.44067e-08
-2.42439e-12
1.49834e-11
3.12172e-11
-1.36669e-12
2.56538e-12
1.14153e-13
-1.09838e-12
1.82022e-12
8.39241e-14
-8.64904e-13
1.3456e-12
6.43952e-14