/*--------------------------------*- C++ -*----------------------------------*\
| =========                 |                                                 |
| \\      /  F ield         | OpenFOAM: The Open Source CFD Toolbox           |
|  \\    /   O peration     | Version:  4.1                                   |
|   \\  /    A nd           | Web:      www.OpenFOAM.org                      |
|    \\/     M anipulation  |                                                 |
\*---------------------------------------------------------------------------*/
FoamFile
{
    version     2.0;
    format      ascii;
    class       volVectorField;
    location    "0.28";
    object      U;
}
// * * * * * * * * * * * * * * * * * * * * * * * * * * * * * * * * * * * * * //

dimensions      [0 1 -1 0 0 0 0];

internalField   nonuniform List<vector> 
18000
(
(7.79351e-14 3.91919e-13 -6.43537e-12)
(8.44242e-14 3.90206e-13 -6.36075e-12)
(7.6446e-14 -9.97783e-15 -6.28687e-12)
(6.86566e-14 -1.1376e-14 -6.21416e-12)
(6.10728e-14 -1.12135e-14 -6.14242e-12)
(5.36812e-14 -1.10192e-14 -6.07157e-12)
(4.64968e-14 -1.0957e-14 -6.00168e-12)
(3.95403e-14 -1.0891e-14 -5.93284e-12)
(3.27633e-14 -1.07645e-14 -5.86501e-12)
(2.61808e-14 -8.6962e-15 -5.79886e-12)
(1.04344e-13 4.06191e-13 -8.10067e-12)
(1.21441e-13 3.96436e-13 -7.80717e-12)
(1.07035e-13 -4.04627e-14 -7.52531e-12)
(9.34324e-14 -4.06555e-14 -7.25611e-12)
(8.0732e-14 -3.93011e-14 -6.99869e-12)
(6.88383e-14 -3.79365e-14 -6.75234e-12)
(5.7665e-14 -3.663e-14 -6.51648e-12)
(4.72442e-14 -3.5417e-14 -6.29063e-12)
(3.74476e-14 -3.42486e-14 -6.07411e-12)
(2.82994e-14 -2.70903e-14 -5.86911e-12)
(1.0748e-13 4.14344e-13 -1.03287e-11)
(1.23034e-13 3.94461e-13 -9.68067e-12)
(1.02324e-13 -8.34214e-14 -9.07885e-12)
(8.37213e-14 -8.01377e-14 -8.52262e-12)
(6.70875e-14 -7.53387e-14 -8.00743e-12)
(5.21893e-14 -7.10296e-14 -7.52987e-12)
(3.88253e-14 -6.70373e-14 -7.08707e-12)
(2.68368e-14 -6.33206e-14 -6.67566e-12)
(1.60889e-14 -5.98472e-14 -6.29331e-12)
(6.47405e-15 -4.61987e-14 -5.94045e-12)
(1.42853e-13 4.11488e-13 -1.33559e-11)
(1.54279e-13 3.78992e-13 -1.21351e-11)
(1.24412e-13 -1.4379e-13 -1.10447e-11)
(9.88252e-14 -1.3299e-13 -1.00707e-11)
(7.69665e-14 -1.21723e-13 -9.20038e-12)
(5.82548e-14 -1.11664e-13 -8.42056e-12)
(4.22606e-14 -1.0266e-13 -7.7202e-12)
(2.84932e-14 -9.45605e-14 -7.09003e-12)
(1.67035e-14 -8.71797e-14 -6.5219e-12)
(6.58774e-15 -6.59574e-14 -6.01298e-12)
(1.9393e-13 3.88245e-13 -1.75404e-11)
(1.96504e-13 3.41007e-13 -1.53945e-11)
(1.53022e-13 -2.29041e-13 -1.35563e-11)
(1.17605e-13 -2.04329e-13 -1.19777e-11)
(8.88248e-14 -1.81276e-13 -1.06187e-11)
(6.53501e-14 -1.6147e-13 -9.44372e-12)
(4.6114e-14 -1.44469e-13 -8.42419e-12)
(3.03228e-14 -1.29736e-13 -7.5366e-12)
(1.73495e-14 -1.16731e-13 -6.76087e-12)
(6.68718e-15 -8.64299e-14 -6.08696e-12)
(2.69599e-13 3.29032e-13 -2.34349e-11)
(2.54849e-13 2.6517e-13 -1.97873e-11)
(1.90678e-13 -3.50702e-13 -1.6802e-11)
(1.41224e-13 -3.0078e-13 -1.4345e-11)
(1.03149e-13 -2.57963e-13 -1.23138e-11)
(7.35396e-14 -2.22796e-13 -1.06234e-11)
(5.04208e-14 -1.93659e-13 -9.20862e-12)
(3.22959e-14 -1.69206e-13 -8.01811e-12)
(1.80371e-14 -1.48475e-13 -7.0107e-12)
(6.79414e-15 -1.07661e-13 -6.1618e-12)
(3.85055e-13 2.05889e-13 -3.19138e-11)
(3.37248e-13 1.25763e-13 -2.58049e-11)
(2.41002e-13 -5.26451e-13 -2.10449e-11)
(1.71265e-13 -4.32648e-13 -1.73094e-11)
(1.20493e-13 -3.57399e-13 -1.43519e-11)
(8.30478e-14 -2.98398e-13 -1.19885e-11)
(5.52038e-14 -2.51413e-13 -1.00843e-11)
(3.4376e-14 -2.13619e-13 -8.53781e-12)
(1.8706e-14 -1.82751e-13 -7.27219e-12)
(6.8625e-15 -1.29665e-13 -6.23786e-12)
(8.58602e-14 -3.16931e-14 -4.44059e-11)
(-9.14748e-15 -1.2264e-13 -3.41917e-11)
(-1.28145e-13 -7.84028e-13 -2.6664e-11)
(-2.02145e-13 -6.14328e-13 -2.10539e-11)
(-2.47765e-13 -4.86926e-13 -1.68167e-11)
(-2.74988e-13 -3.91929e-13 -1.35747e-11)
(-2.90224e-13 -3.19573e-13 -1.10646e-11)
(-2.97531e-13 -2.63538e-13 -9.09991e-12)
(-2.99628e-13 -2.19556e-13 -7.54584e-12)
(-3.00687e-13 -1.52469e-13 -6.31564e-12)
(-2.33465e-09 -5.25503e-13 -6.89027e-11)
(-2.25116e-09 -5.18285e-13 -5.09961e-11)
(-2.10654e-09 -1.09142e-12 -3.84822e-11)
(-1.97851e-09 -7.984e-13 -2.95929e-11)
(-1.8647e-09 -5.95387e-13 -2.3156e-11)
(-1.76295e-09 -4.52524e-13 -1.84063e-11)
(-1.67149e-09 -3.49737e-13 -1.48419e-11)
(-1.58888e-09 -2.74367e-13 -1.21258e-11)
(-1.51394e-09 -2.24387e-13 -1.0026e-11)
(-1.45764e-09 -1.79657e-13 -8.40962e-12)
(2.50139e-07 -2.79741e-10 -2.83089e-08)
(2.53892e-08 1.98784e-10 -2.435e-08)
(2.11247e-08 3.61275e-10 -2.11051e-08)
(1.7891e-08 3.20777e-10 -1.84576e-08)
(1.52058e-08 2.85762e-10 -1.62718e-08)
(1.2951e-08 2.559e-10 -1.44478e-08)
(1.10386e-08 2.30292e-10 -1.29108e-08)
(9.40173e-09 2.08155e-10 -1.16043e-08)
(7.92775e-09 1.57211e-10 -1.0485e-08)
(-3.64768e-08 -3.12388e-11 -9.59908e-09)
(2.68095e-13 3.68803e-13 -6.59525e-12)
(2.50817e-13 3.44477e-13 -6.51789e-12)
(2.19941e-13 -5.52474e-14 -6.44124e-12)
(1.90248e-13 -5.60919e-14 -6.36545e-12)
(1.61711e-13 -5.54784e-14 -6.29095e-12)
(1.34267e-13 -5.4827e-14 -6.21769e-12)
(1.07872e-13 -5.42434e-14 -6.14497e-12)
(8.25078e-14 -5.36338e-14 -6.07373e-12)
(5.80592e-14 -5.26999e-14 -6.00345e-12)
(3.48141e-14 -3.05088e-14 -5.93472e-12)
(5.40506e-13 3.1901e-13 -8.32359e-12)
(4.96913e-13 2.26583e-13 -8.01856e-12)
(4.25676e-13 -2.04489e-13 -7.72532e-12)
(3.59234e-13 -1.98592e-13 -7.44552e-12)
(2.97338e-13 -1.91545e-13 -7.17838e-12)
(2.39646e-13 -1.84781e-13 -6.92263e-12)
(1.85864e-13 -1.78297e-13 -6.67819e-12)
(1.35714e-13 -1.72193e-13 -6.44416e-12)
(8.89048e-14 -1.65351e-13 -6.22017e-12)
(4.55924e-14 -9.39707e-14 -6.00769e-12)
(6.66549e-13 2.30299e-13 -1.06458e-11)
(5.90686e-13 4.18456e-14 -9.96906e-12)
(4.88387e-13 -4.14778e-13 -9.34167e-12)
(3.97014e-13 -3.90802e-13 -8.76194e-12)
(3.15668e-13 -3.67021e-13 -8.22603e-12)
(2.43181e-13 -3.44957e-13 -7.72987e-12)
(1.78532e-13 -3.24543e-13 -7.27018e-12)
(1.20878e-13 -3.05646e-13 -6.8435e-12)
(6.95083e-14 -2.8684e-13 -6.44729e-12)
(2.4009e-14 -1.60515e-13 -6.08221e-12)
(8.69132e-13 8.06077e-14 -1.38156e-11)
(7.42719e-13 -2.42592e-13 -1.25353e-11)
(5.95613e-13 -7.10429e-13 -1.13941e-11)
(4.7008e-13 -6.49192e-13 -1.03762e-11)
(3.63288e-13 -5.9244e-13 -9.46841e-12)
(2.72284e-13 -5.41844e-13 -8.65633e-12)
(1.9469e-13 -4.96511e-13 -7.92825e-12)
(1.28515e-13 -4.55703e-13 -7.27428e-12)
(7.20576e-14 -4.17156e-13 -6.68485e-12)
(2.4416e-14 -2.29649e-13 -6.15788e-12)
(1.15153e-12 -1.65461e-13 -1.8222e-11)
(9.45692e-13 -6.77541e-13 -1.59599e-11)
(7.33174e-13 -1.12676e-12 -1.40279e-11)
(5.60381e-13 -9.96635e-13 -1.23716e-11)
(4.20073e-13 -8.82253e-13 -1.095e-11)
(3.05828e-13 -7.83735e-13 -9.72361e-12)
(2.12722e-13 -6.98435e-13 -8.66158e-12)
(1.36784e-13 -6.24399e-13 -7.73884e-12)
(7.47923e-14 -5.57312e-13 -6.93365e-12)
(2.47562e-14 -3.0178e-13 -6.23545e-12)
(1.55292e-12 -5.64674e-13 -2.44725e-11)
(1.22104e-12 -1.34154e-12 -2.06002e-11)
(9.11727e-13 -1.7161e-12 -1.74469e-11)
(6.72915e-13 -1.46514e-12 -1.48581e-11)
(4.88149e-13 -1.25509e-12 -1.2726e-11)
(3.44583e-13 -1.08112e-12 -1.0957e-11)
(2.32823e-13 -9.35851e-13 -9.48061e-12)
(1.45667e-13 -8.13994e-13 -8.24124e-12)
(7.76861e-14 -7.08053e-13 -7.19461e-12)
(2.50672e-14 -3.76894e-13 -6.31445e-12)
(2.13692e-12 -1.21112e-12 -3.35353e-11)
(1.60049e-12 -2.35966e-12 -2.69999e-11)
(1.14626e-12 -2.55628e-12 -2.19402e-11)
(8.14275e-13 -2.09952e-12 -1.79845e-11)
(5.70147e-13 -1.7362e-12 -1.48685e-11)
(3.89532e-13 -1.4472e-12 -1.23883e-11)
(2.55299e-13 -1.21498e-12 -1.03967e-11)
(1.55294e-13 -1.02707e-12 -8.78452e-12)
(8.06736e-14 -8.7022e-13 -7.46773e-12)
(2.54673e-14 -4.55319e-13 -6.39519e-12)
(3.0281e-12 -2.26853e-12 -4.70211e-11)
(2.13752e-12 -3.93667e-12 -3.59891e-11)
(1.46101e-12 -3.76422e-12 -2.79277e-11)
(9.94377e-13 -2.9635e-12 -2.19539e-11)
(6.69171e-13 -2.35855e-12 -1.74704e-11)
(4.40321e-13 -1.89837e-12 -1.40565e-11)
(2.78062e-13 -1.5435e-12 -1.14253e-11)
(1.62479e-13 -1.2668e-12 -9.37299e-12)
(7.98817e-14 -1.04458e-12 -7.75453e-12)
(2.13999e-14 -5.36894e-13 -6.47788e-12)
(-1.22227e-11 -4.1564e-12 -7.32054e-11)
(-7.04063e-11 -6.53912e-12 -5.37315e-11)
(-5.74792e-11 -5.60188e-12 -4.02784e-11)
(-4.73589e-11 -4.21977e-12 -3.0801e-11)
(-3.94673e-11 -3.23056e-12 -2.39939e-11)
(-3.32274e-11 -2.51222e-12 -1.90033e-11)
(-2.82322e-11 -1.98102e-12 -1.52783e-11)
(-2.41888e-11 -1.58226e-12 -1.24529e-11)
(-2.08831e-11 -1.27371e-12 -1.02763e-11)
(-1.81097e-11 -6.58717e-13 -8.6068e-12)
(1.51654e-07 -7.38282e-10 -2.93749e-08)
(-4.00327e-09 -6.104e-10 -2.51613e-08)
(-3.83863e-09 -3.64656e-10 -2.17103e-08)
(-3.50149e-09 -3.22141e-10 -1.89177e-08)
(-3.20215e-09 -2.86799e-10 -1.66279e-08)
(-2.93972e-09 -2.56756e-10 -1.47275e-08)
(-2.71044e-09 -2.3105e-10 -1.31336e-08)
(-2.51026e-09 -2.08913e-10 -1.1784e-08)
(-2.33857e-09 -1.89612e-10 -1.06314e-08)
(-2.60608e-09 -1.80178e-10 -9.71942e-09)
(2.28887e-13 3.74312e-13 -1.64844e-13)
(2.16002e-13 3.4898e-13 -1.61587e-13)
(1.89394e-13 -5.09596e-14 -1.57911e-13)
(1.63993e-13 -5.18816e-14 -1.54446e-13)
(1.39689e-13 -5.10865e-14 -1.51216e-13)
(1.16334e-13 -5.05453e-14 -1.48099e-13)
(9.40878e-14 -5.0033e-14 -1.45022e-13)
(7.27369e-14 -4.93477e-14 -1.42465e-13)
(5.22937e-14 -4.85685e-14 -1.39715e-13)
(3.29503e-14 -2.54711e-14 -1.37225e-13)
(5.00393e-13 3.39589e-13 -2.30121e-13)
(4.61945e-13 2.42636e-13 -2.17772e-13)
(3.95669e-13 -1.89058e-13 -2.05461e-13)
(3.33935e-13 -1.83454e-13 -1.93878e-13)
(2.7655e-13 -1.76834e-13 -1.83501e-13)
(2.23113e-13 -1.70479e-13 -1.73645e-13)
(1.73426e-13 -1.64332e-13 -1.64355e-13)
(1.27102e-13 -1.58554e-13 -1.55706e-13)
(8.39295e-14 -1.52182e-13 -1.48135e-13)
(4.41337e-14 -7.89833e-14 -1.40401e-13)
(6.18356e-13 2.73033e-13 -3.28858e-13)
(5.49495e-13 7.35791e-14 -2.98682e-13)
(4.53791e-13 -3.84656e-13 -2.71358e-13)
(3.68419e-13 -3.62138e-13 -2.46622e-13)
(2.9262e-13 -3.39523e-13 -2.24739e-13)
(2.25262e-13 -3.18767e-13 -2.04858e-13)
(1.65305e-13 -2.99629e-13 -1.87362e-13)
(1.11991e-13 -2.81924e-13 -1.71516e-13)
(6.44489e-14 -2.64108e-13 -1.56967e-13)
(2.25845e-14 -1.35065e-13 -1.4471e-13)
(8.1127e-13 1.56519e-13 -4.79205e-13)
(6.94319e-13 -1.89864e-13 -4.17221e-13)
(5.55748e-13 -6.61379e-13 -3.6355e-13)
(4.37773e-13 -6.03468e-13 -3.16923e-13)
(3.37811e-13 -5.49638e-13 -2.77632e-13)
(2.52873e-13 -5.01833e-13 -2.43749e-13)
(1.80662e-13 -4.59005e-13 -2.14785e-13)
(1.19261e-13 -4.20839e-13 -1.89881e-13)
(6.69898e-14 -3.84627e-13 -1.68023e-13)
(2.30231e-14 -1.93896e-13 -1.49371e-13)
(1.0828e-12 -4.02735e-14 -7.15492e-13)
(8.8887e-13 -5.97283e-13 -5.93617e-13)
(6.87328e-13 -1.05374e-12 -4.94227e-13)
(5.23905e-13 -9.29982e-13 -4.12518e-13)
(3.91873e-13 -8.20944e-13 -3.46329e-13)
(2.84823e-13 -7.27691e-13 -2.92143e-13)
(1.97891e-13 -6.47156e-13 -2.47796e-13)
(1.27199e-13 -5.77496e-13 -2.11236e-13)
(6.97329e-14 -5.14278e-13 -1.80506e-13)
(2.34862e-14 -2.55278e-13 -1.55136e-13)
(1.47254e-12 -3.67015e-13 -1.09688e-12)
(1.15509e-12 -1.22714e-12 -8.60785e-13)
(8.59179e-13 -1.61302e-12 -6.82045e-13)
(6.31773e-13 -1.37306e-12 -5.42625e-13)
(4.56941e-13 -1.17193e-12 -4.35863e-13)
(3.21808e-13 -1.00645e-12 -3.52657e-13)
(2.17106e-13 -8.68877e-13 -2.87651e-13)
(1.35832e-13 -7.53999e-13 -2.36344e-13)
(7.25654e-14 -6.5416e-13 -1.94651e-13)
(2.39317e-14 -3.19867e-13 -1.62126e-13)
(2.04634e-12 -9.04311e-13 -1.72609e-12)
(1.52555e-12 -2.20445e-12 -1.27563e-12)
(1.08671e-12 -2.41774e-12 -9.55643e-13)
(7.6824e-13 -1.97722e-12 -7.21662e-13)
(5.35859e-13 -1.62737e-12 -5.52727e-13)
(3.64956e-13 -1.35132e-12 -4.28184e-13)
(2.38722e-13 -1.13057e-12 -3.3537e-13)
(1.4509e-13 -9.5311e-13 -2.65288e-13)
(7.55093e-14 -8.04995e-13 -2.10847e-13)
(2.44133e-14 -3.87382e-13 -1.70198e-13)
(2.92876e-12 -1.79809e-12 -2.80348e-12)
(2.05184e-12 -3.73893e-12 -1.93315e-12)
(1.39274e-12 -3.58559e-12 -1.36171e-12)
(9.42662e-13 -2.80623e-12 -9.71566e-13)
(6.32154e-13 -2.22048e-12 -7.07391e-13)
(4.15493e-13 -1.77863e-12 -5.23102e-13)
(2.63061e-13 -1.44007e-12 -3.92736e-13)
(1.55216e-13 -1.17793e-12 -2.98613e-13)
(7.86771e-14 -9.67574e-13 -2.29493e-13)
(2.48643e-14 -4.58177e-13 -1.78798e-13)
(7.46276e-11 -3.33752e-12 -4.64423e-12)
(1.84484e-12 -6.21782e-12 -2.96145e-12)
(9.87788e-13 -5.30331e-12 -1.95115e-12)
(5.88595e-13 -3.95396e-12 -1.31696e-12)
(3.30757e-13 -2.99699e-12 -9.16749e-13)
(1.63899e-13 -2.31018e-12 -6.55348e-13)
(5.58707e-14 -1.80692e-12 -4.80589e-13)
(-1.34511e-14 -1.43256e-12 -3.61215e-13)
(-5.75417e-14 -1.1443e-12 -2.77369e-13)
(-8.25079e-14 -5.33621e-13 -2.19085e-13)
(1.34677e-07 -2.45335e-10 -1.12337e-09)
(8.60639e-11 -2.26588e-10 -8.24602e-10)
(-8.33286e-11 -3.01735e-11 -6.13578e-10)
(-6.63505e-11 -2.2219e-11 -4.65681e-10)
(-5.33803e-11 -1.70043e-11 -3.59753e-10)
(-4.3474e-11 -1.32288e-11 -2.82291e-10)
(-3.58122e-11 -1.04436e-11 -2.24607e-10)
(-2.98215e-11 -8.3551e-12 -1.80947e-10)
(-2.51371e-11 -6.75433e-12 -1.47422e-10)
(-2.38074e-11 -5.13395e-12 -1.21039e-10)
(2.26965e-13 3.74414e-13 -9.57521e-15)
(2.14306e-13 3.4873e-13 -8.748e-15)
(1.87943e-13 -5.11624e-14 -6.80352e-15)
(1.62705e-13 -5.19192e-14 -5.68992e-15)
(1.38614e-13 -5.12552e-14 -4.39888e-15)
(1.15538e-13 -5.0629e-14 -3.3957e-15)
(9.34567e-14 -4.99076e-14 -2.65358e-15)
(7.22851e-14 -4.92486e-14 -1.84891e-15)
(5.20944e-14 -4.83706e-14 -1.48423e-15)
(3.29146e-14 -2.52555e-14 -1.47929e-15)
(4.9818e-13 3.40554e-13 -1.42081e-14)
(4.60088e-13 2.43211e-13 -1.26283e-14)
(3.94132e-13 -1.88606e-13 -1.0497e-14)
(3.32674e-13 -1.82964e-13 -8.49173e-15)
(2.75549e-13 -1.76196e-13 -6.65651e-15)
(2.22369e-13 -1.69914e-13 -5.53665e-15)
(1.72934e-13 -1.63821e-13 -4.40648e-15)
(1.26829e-13 -1.57864e-13 -3.59945e-15)
(8.38532e-14 -1.51447e-13 -3.01319e-15)
(4.427e-14 -7.82081e-14 -2.57659e-15)
(6.15518e-13 2.75523e-13 -2.31184e-14)
(5.47295e-13 7.52221e-14 -2.04008e-14)
(4.52036e-13 -3.83191e-13 -1.68306e-14)
(3.67061e-13 -3.6068e-13 -1.36921e-14)
(2.91631e-13 -3.38292e-13 -1.14423e-14)
(2.24571e-13 -3.17516e-13 -9.33356e-15)
(1.64932e-13 -2.98279e-13 -7.74051e-15)
(1.11866e-13 -2.80759e-13 -6.60543e-15)
(6.45502e-14 -2.62866e-13 -5.51543e-15)
(2.28825e-14 -1.33668e-13 -5.34906e-15)
(8.07612e-13 1.61707e-13 -3.89002e-14)
(6.91618e-13 -1.8635e-13 -3.41391e-14)
(5.53747e-13 -6.58621e-13 -2.82933e-14)
(4.36365e-13 -6.00939e-13 -2.30018e-14)
(3.36849e-13 -5.4727e-13 -1.90236e-14)
(2.5234e-13 -4.99695e-13 -1.6003e-14)
(1.80462e-13 -4.57067e-13 -1.3312e-14)
(1.19354e-13 -4.18971e-13 -1.1295e-14)
(6.73322e-14 -3.82859e-13 -9.87794e-15)
(2.34778e-14 -1.92218e-13 -8.81861e-15)
(1.07807e-12 -3.07833e-14 -6.82576e-14)
(8.85659e-13 -5.9129e-13 -5.79757e-14)
(6.85085e-13 -1.04886e-12 -4.66962e-14)
(5.22526e-13 -9.25855e-13 -3.80918e-14)
(3.91098e-13 -8.17532e-13 -3.11908e-14)
(2.84495e-13 -7.24568e-13 -2.55475e-14)
(1.97937e-13 -6.44293e-13 -2.15942e-14)
(1.27563e-13 -5.75053e-13 -1.86374e-14)
(7.01981e-14 -5.12242e-13 -1.624e-14)
(2.41405e-14 -2.53252e-13 -1.4222e-14)
(1.46613e-12 -3.49716e-13 -1.1955e-13)
(1.15123e-12 -1.21721e-12 -9.8178e-14)
(8.56782e-13 -1.60557e-12 -7.74942e-14)
(6.30475e-13 -1.36694e-12 -6.18798e-14)
(4.56425e-13 -1.16708e-12 -4.9889e-14)
(3.21829e-13 -1.00244e-12 -4.06544e-14)
(2.17487e-13 -8.65411e-13 -3.36557e-14)
(1.36407e-13 -7.51296e-13 -2.82691e-14)
(7.32925e-14 -6.51868e-13 -2.37323e-14)
(2.47682e-14 -3.17473e-13 -2.06658e-14)
(2.0376e-12 -8.73371e-13 -2.1131e-13)
(1.52071e-12 -2.18851e-12 -1.66606e-13)
(1.08419e-12 -2.40657e-12 -1.26842e-13)
(7.67103e-13 -1.96876e-12 -9.84942e-14)
(5.35641e-13 -1.62107e-12 -7.73534e-14)
(3.6536e-13 -1.34638e-12 -6.16591e-14)
(2.39432e-13 -1.12671e-12 -4.9876e-14)
(1.45976e-13 -9.50164e-13 -4.09396e-14)
(7.65803e-14 -8.02649e-13 -3.41657e-14)
(2.53786e-14 -3.84987e-13 -2.87212e-14)
(2.91617e-12 -1.74276e-12 -3.78308e-13)
(2.04531e-12 -3.71399e-12 -2.80905e-13)
(1.38984e-12 -3.56947e-12 -2.06026e-13)
(9.41768e-13 -2.79525e-12 -1.53433e-13)
(6.32416e-13 -2.21257e-12 -1.16745e-13)
(4.16371e-13 -1.77304e-12 -9.06022e-14)
(2.64197e-13 -1.43605e-12 -7.11256e-14)
(1.5647e-13 -1.1749e-12 -5.70896e-14)
(7.99685e-14 -9.65616e-13 -4.66174e-14)
(2.61246e-14 -4.55958e-13 -3.8179e-14)
(7.92874e-11 -3.23865e-12 -6.81749e-13)
(3.00573e-12 -6.18058e-12 -4.71756e-13)
(1.79201e-12 -5.28021e-12 -3.29364e-13)
(1.15692e-12 -3.93951e-12 -2.35652e-13)
(7.43478e-13 -2.9875e-12 -1.72686e-13)
(4.70009e-13 -2.30382e-12 -1.29593e-13)
(2.87015e-13 -1.80249e-12 -9.90621e-14)
(1.63583e-13 -1.42929e-12 -7.72637e-14)
(7.98026e-14 -1.14172e-12 -6.13353e-14)
(2.35534e-14 -5.30457e-13 -4.95737e-14)
(1.37335e-07 -2.15048e-10 -6.42242e-11)
(2.01001e-10 -2.06022e-10 -1.4073e-11)
(6.6934e-13 -8.85544e-12 -8.90931e-12)
(2.73962e-13 -5.83314e-12 -5.83125e-12)
(1.5364e-13 -4.20834e-12 -3.94533e-12)
(7.56326e-14 -3.10512e-12 -2.74071e-12)
(2.56896e-14 -2.33582e-12 -1.94721e-12)
(-6.36436e-15 -1.7882e-12 -1.40913e-12)
(-2.71237e-14 -1.3845e-12 -1.03697e-12)
(-4.87091e-14 -6.47838e-13 -7.62267e-13)
(2.27384e-13 3.74282e-13 -1.07987e-14)
(2.14646e-13 3.48193e-13 -9.78884e-15)
(1.88239e-13 -5.18601e-14 -7.46124e-15)
(1.62935e-13 -5.25294e-14 -5.52745e-15)
(1.38788e-13 -5.16952e-14 -4.08962e-15)
(1.15651e-13 -5.0944e-14 -2.87376e-15)
(9.35807e-14 -5.03591e-14 -2.0308e-15)
(7.24554e-14 -4.95283e-14 -1.0816e-15)
(5.22031e-14 -4.84339e-14 -4.83722e-16)
(3.3012e-14 -2.54064e-14 -2.66297e-16)
(4.99199e-13 3.40223e-13 -1.60642e-14)
(4.60959e-13 2.4245e-13 -1.42154e-14)
(3.94872e-13 -1.89458e-13 -1.10555e-14)
(3.33245e-13 -1.83807e-13 -8.85982e-15)
(2.76071e-13 -1.769e-13 -6.31675e-15)
(2.22812e-13 -1.70332e-13 -4.85862e-15)
(1.73311e-13 -1.64113e-13 -3.66727e-15)
(1.27226e-13 -1.58177e-13 -3.00389e-15)
(8.42017e-14 -1.51704e-13 -2.20375e-15)
(4.46181e-14 -7.82822e-14 -1.59445e-15)
(6.17276e-13 2.74929e-13 -2.60063e-14)
(5.48844e-13 7.40451e-14 -2.28934e-14)
(4.53347e-13 -3.84584e-13 -1.8582e-14)
(3.68139e-13 -3.61807e-13 -1.46721e-14)
(2.92581e-13 -3.39025e-13 -1.18838e-14)
(2.25421e-13 -3.18214e-13 -9.65675e-15)
(1.6564e-13 -2.98874e-13 -7.77879e-15)
(1.12498e-13 -2.81135e-13 -6.4946e-15)
(6.51347e-14 -2.63088e-13 -5.80637e-15)
(2.34309e-14 -1.33886e-13 -5.06301e-15)
(8.10704e-13 1.60583e-13 -4.45661e-14)
(6.943e-13 -1.8829e-13 -3.88844e-14)
(5.55925e-13 -6.60677e-13 -3.19305e-14)
(4.38199e-13 -6.02735e-13 -2.60455e-14)
(3.38392e-13 -5.48619e-13 -2.13347e-14)
(2.53609e-13 -5.00803e-13 -1.75988e-14)
(1.81592e-13 -4.58007e-13 -1.50626e-14)
(1.20352e-13 -4.19701e-13 -1.28809e-14)
(6.82357e-14 -3.83421e-13 -1.11684e-14)
(2.42697e-14 -1.92349e-13 -1.02131e-14)
(1.08324e-12 -3.30193e-14 -7.7785e-14)
(8.89995e-13 -5.95044e-13 -6.7149e-14)
(6.88588e-13 -1.05262e-12 -5.44485e-14)
(5.25365e-13 -9.28796e-13 -4.42694e-14)
(3.93449e-13 -8.19904e-13 -3.6728e-14)
(2.86446e-13 -7.26547e-13 -3.05239e-14)
(1.99597e-13 -6.45798e-13 -2.55817e-14)
(1.28948e-13 -5.76191e-13 -2.19028e-14)
(7.14282e-14 -5.13156e-13 -1.91655e-14)
(2.5185e-14 -2.5384e-13 -1.68563e-14)
(1.47479e-12 -3.54418e-13 -1.37257e-13)
(1.15822e-12 -1.22415e-12 -1.14498e-13)
(8.62256e-13 -1.61194e-12 -9.14581e-14)
(6.348e-13 -1.37213e-12 -7.32934e-14)
(4.59858e-13 -1.17114e-12 -5.94853e-14)
(3.24638e-13 -1.00572e-12 -4.92506e-14)
(2.19751e-13 -8.68134e-13 -4.07092e-14)
(1.38278e-13 -7.53441e-13 -3.43558e-14)
(7.48437e-14 -6.53609e-13 -2.94739e-14)
(2.6031e-14 -3.18449e-13 -2.53962e-14)
(2.05217e-12 -8.82809e-13 -2.42553e-13)
(1.53194e-12 -2.20184e-12 -1.94902e-13)
(1.09258e-12 -2.41819e-12 -1.51195e-13)
(7.73488e-13 -1.97778e-12 -1.18001e-13)
(5.40571e-13 -1.62811e-12 -9.40408e-14)
(3.69184e-13 -1.35202e-12 -7.55734e-14)
(2.42431e-13 -1.13119e-12 -6.14533e-14)
(1.48387e-13 -9.53655e-13 -5.07834e-14)
(7.84966e-14 -8.05584e-13 -4.27049e-14)
(2.69681e-14 -3.86705e-13 -3.60283e-14)
(2.94059e-12 -1.76194e-12 -4.31346e-13)
(2.0632e-12 -3.73962e-12 -3.30336e-13)
(1.40262e-12 -3.59012e-12 -2.45651e-13)
(9.51086e-13 -2.81086e-12 -1.86276e-13)
(6.39277e-13 -2.22453e-12 -1.43654e-13)
(4.21519e-13 -1.78234e-12 -1.12422e-13)
(2.68125e-13 -1.44334e-12 -8.9354e-14)
(1.59484e-13 -1.18061e-12 -7.19546e-14)
(8.22671e-14 -9.70104e-13 -5.88196e-14)
(2.79243e-14 -4.58619e-13 -4.91142e-14)
(7.98246e-11 -3.27708e-12 -7.76189e-13)
(3.05556e-12 -6.22923e-12 -5.59139e-13)
(1.81906e-12 -5.31724e-12 -3.97131e-13)
(1.17497e-12 -3.96642e-12 -2.88704e-13)
(7.55901e-13 -3.00734e-12 -2.14623e-13)
(4.78778e-13 -2.31868e-12 -1.62746e-13)
(2.93363e-13 -1.81381e-12 -1.2535e-13)
(1.68213e-13 -1.43808e-12 -9.84944e-14)
(8.32298e-14 -1.14869e-12 -7.83576e-14)
(2.60584e-14 -5.34397e-13 -6.34698e-14)
(1.41873e-07 -2.14544e-10 -2.17455e-11)
(2.10956e-10 -2.06647e-10 -1.21708e-12)
(1.93975e-12 -8.49125e-12 -7.18782e-13)
(1.14806e-12 -5.58158e-12 -4.87352e-13)
(7.63593e-13 -4.03849e-12 -3.41532e-13)
(5.11779e-13 -2.98765e-12 -2.46678e-13)
(3.43538e-13 -2.253e-12 -1.8274e-13)
(2.29342e-13 -1.72887e-12 -1.38028e-13)
(1.50809e-13 -1.34133e-12 -1.06214e-13)
(9.67231e-14 -6.14256e-13 -8.32551e-14)
(2.27937e-13 3.73989e-13 -1.36605e-14)
(2.15099e-13 3.47403e-13 -1.18344e-14)
(1.88579e-13 -5.28475e-14 -9.40333e-15)
(1.63254e-13 -5.32542e-14 -6.90281e-15)
(1.38978e-13 -5.23067e-14 -5.07677e-15)
(1.15843e-13 -5.14428e-14 -3.22789e-15)
(9.37004e-14 -5.06156e-14 -2.02834e-15)
(7.25745e-14 -4.98631e-14 -1.34924e-15)
(5.23534e-14 -4.86924e-14 -6.64965e-16)
(3.31174e-14 -2.53447e-14 -4.22656e-16)
(5.00529e-13 3.39723e-13 -2.01771e-14)
(4.62107e-13 2.41251e-13 -1.76999e-14)
(3.95816e-13 -1.90675e-13 -1.36591e-14)
(3.34058e-13 -1.84806e-13 -1.07387e-14)
(2.76724e-13 -1.77758e-13 -8.23188e-15)
(2.23382e-13 -1.70951e-13 -6.01519e-15)
(1.73792e-13 -1.64549e-13 -4.40398e-15)
(1.27641e-13 -1.58439e-13 -3.22521e-15)
(8.46607e-14 -1.52004e-13 -2.70842e-15)
(4.50046e-14 -7.84824e-14 -2.32921e-15)
(6.19647e-13 2.7404e-13 -3.24674e-14)
(5.50894e-13 7.23521e-14 -2.85092e-14)
(4.5508e-13 -3.86323e-13 -2.28536e-14)
(3.69585e-13 -3.63267e-13 -1.85815e-14)
(2.93837e-13 -3.40247e-13 -1.46796e-14)
(2.26452e-13 -3.19131e-13 -1.17251e-14)
(1.66625e-13 -2.99538e-13 -9.51903e-15)
(1.1335e-13 -2.81568e-13 -8.24892e-15)
(6.59104e-14 -2.63474e-13 -7.10814e-15)
(2.42011e-14 -1.34153e-13 -6.27474e-15)
(8.14738e-13 1.58853e-13 -5.59402e-14)
(6.97777e-13 -1.91167e-13 -4.84239e-14)
(5.58792e-13 -6.6346e-13 -3.93749e-14)
(4.40589e-13 -6.05014e-13 -3.23132e-14)
(3.40429e-13 -5.50575e-13 -2.64388e-14)
(2.55376e-13 -5.02201e-13 -2.17054e-14)
(1.83092e-13 -4.59021e-13 -1.86041e-14)
(1.2166e-13 -4.20627e-13 -1.61202e-14)
(6.93539e-14 -3.84043e-13 -1.41203e-14)
(2.52829e-14 -1.9275e-13 -1.25282e-14)
(1.0901e-12 -3.62608e-14 -9.72882e-14)
(8.9572e-13 -5.99986e-13 -8.32812e-14)
(6.93182e-13 -1.05737e-12 -6.77077e-14)
(5.29086e-13 -9.3264e-13 -5.53129e-14)
(3.96498e-13 -8.22969e-13 -4.57182e-14)
(2.89057e-13 -7.2911e-13 -3.82438e-14)
(2.01689e-13 -6.47903e-13 -3.18722e-14)
(1.30754e-13 -5.77846e-13 -2.73142e-14)
(7.29561e-14 -5.14503e-13 -2.35444e-14)
(2.64607e-14 -2.54595e-13 -2.08147e-14)
(1.48633e-12 -3.61125e-13 -1.7163e-13)
(1.16745e-12 -1.23368e-12 -1.42998e-13)
(8.69446e-13 -1.62053e-12 -1.13899e-13)
(6.40404e-13 -1.37896e-12 -9.13861e-14)
(4.64342e-13 -1.17649e-12 -7.43239e-14)
(3.28206e-13 -1.01007e-12 -6.12551e-14)
(2.22675e-13 -8.71665e-13 -5.08285e-14)
(1.40666e-13 -7.56215e-13 -4.27522e-14)
(7.68293e-14 -6.55957e-13 -3.66204e-14)
(2.76958e-14 -3.19803e-13 -3.16643e-14)
(2.07147e-12 -8.96474e-13 -3.03668e-13)
(1.54674e-12 -2.21978e-12 -2.43222e-13)
(1.10359e-12 -2.43352e-12 -1.88523e-13)
(7.8184e-13 -1.98971e-12 -1.47559e-13)
(5.46998e-13 -1.63739e-12 -1.17389e-13)
(3.74145e-13 -1.35945e-12 -9.4405e-14)
(2.46382e-13 -1.1371e-12 -7.69181e-14)
(1.51478e-13 -9.58362e-13 -6.31728e-14)
(8.09712e-14 -8.09376e-13 -5.29935e-14)
(2.89955e-14 -3.88925e-13 -4.48447e-14)
(2.97352e-12 -1.78936e-12 -5.4023e-13)
(2.08693e-12 -3.77401e-12 -4.13215e-13)
(1.41945e-12 -3.61777e-12 -3.07564e-13)
(9.63306e-13 -2.83148e-12 -2.33079e-13)
(6.48278e-13 -2.24025e-12 -1.79598e-13)
(4.28272e-13 -1.79446e-12 -1.40674e-13)
(2.7322e-13 -1.45285e-12 -1.11881e-13)
(1.634e-13 -1.18816e-12 -8.97491e-14)
(8.52814e-14 -9.76019e-13 -7.32116e-14)
(3.03062e-14 -4.62006e-13 -6.08848e-14)
(8.10546e-11 -3.3337e-12 -9.77748e-13)
(3.09653e-12 -6.29527e-12 -7.01173e-13)
(1.84502e-12 -5.36658e-12 -4.98578e-13)
(1.19283e-12 -4.00186e-12 -3.6249e-13)
(7.68423e-13 -3.03338e-12 -2.69516e-13)
(4.87762e-13 -2.33829e-12 -2.03974e-13)
(2.99894e-13 -1.82872e-12 -1.57047e-13)
(1.73042e-13 -1.44955e-12 -1.23138e-13)
(8.68109e-14 -1.15759e-12 -9.79053e-14)
(2.87442e-14 -5.39546e-13 -7.93441e-14)
(1.46178e-07 -2.22503e-10 -6.06716e-11)
(2.17516e-10 -2.09817e-10 -1.31124e-12)
(1.99894e-12 -8.57986e-12 -8.04803e-13)
(1.1724e-12 -5.63883e-12 -5.57494e-13)
(7.79749e-13 -4.07915e-12 -3.96811e-13)
(5.22877e-13 -3.01707e-12 -2.89663e-13)
(3.51398e-13 -2.27483e-12 -2.16086e-13)
(2.35059e-13 -1.7454e-12 -1.64154e-13)
(1.55054e-13 -1.35393e-12 -1.26781e-13)
(9.99528e-14 -6.21297e-13 -1.00137e-13)
(2.28623e-13 3.73526e-13 -1.63761e-14)
(2.15719e-13 3.46498e-13 -1.4204e-14)
(1.89013e-13 -5.38154e-14 -1.10172e-14)
(1.63606e-13 -5.42473e-14 -8.43194e-15)
(1.39316e-13 -5.31545e-14 -6.03918e-15)
(1.16098e-13 -5.21569e-14 -4.08175e-15)
(9.39468e-14 -5.11062e-14 -2.41358e-15)
(7.27433e-14 -5.00712e-14 -1.43886e-15)
(5.25194e-14 -4.88067e-14 -1.29931e-15)
(3.33089e-14 -2.54577e-14 -2.12183e-15)
(5.02155e-13 3.39101e-13 -2.41521e-14)
(4.63555e-13 2.39892e-13 -2.08664e-14)
(3.96966e-13 -1.92174e-13 -1.66156e-14)
(3.35038e-13 -1.85937e-13 -1.28049e-14)
(2.77555e-13 -1.78771e-13 -1.00656e-14)
(2.24111e-13 -1.71851e-13 -7.37884e-15)
(1.74455e-13 -1.65233e-13 -5.68946e-15)
(1.28274e-13 -1.58863e-13 -4.17263e-15)
(8.51839e-14 -1.52074e-13 -3.17606e-15)
(4.55202e-14 -7.85351e-14 -4.03388e-15)
(6.22549e-13 2.72984e-13 -3.91445e-14)
(5.53387e-13 7.02933e-14 -3.39354e-14)
(4.57151e-13 -3.88411e-13 -2.72087e-14)
(3.7135e-13 -3.65011e-13 -2.20965e-14)
(2.95292e-13 -3.41729e-13 -1.75526e-14)
(2.2777e-13 -3.20289e-13 -1.43248e-14)
(1.67774e-13 -3.00308e-13 -1.16688e-14)
(1.14449e-13 -2.82164e-13 -1.00057e-14)
(6.68736e-14 -2.63948e-13 -8.8687e-15)
(2.49968e-14 -1.34388e-13 -8.39988e-15)
(8.19738e-13 1.56768e-13 -6.67701e-14)
(7.02014e-13 -1.94663e-13 -5.7532e-14)
(5.62304e-13 -6.66831e-13 -4.68432e-14)
(4.43483e-13 -6.0778e-13 -3.83414e-14)
(3.42907e-13 -5.52843e-13 -3.16591e-14)
(2.57514e-13 -5.04032e-13 -2.66676e-14)
(1.84915e-13 -4.60384e-13 -2.23782e-14)
(1.23216e-13 -4.21659e-13 -1.92971e-14)
(7.07317e-14 -3.8504e-13 -1.70358e-14)
(2.64969e-14 -1.93314e-13 -1.53369e-14)
(1.09852e-12 -4.04217e-14 -1.17283e-13)
(9.02702e-13 -6.06215e-13 -9.91374e-14)
(6.98799e-13 -1.06315e-12 -8.03034e-14)
(5.33621e-13 -9.3732e-13 -6.56218e-14)
(4.00257e-13 -8.26724e-13 -5.42532e-14)
(2.92172e-13 -7.32256e-13 -4.56502e-14)
(2.04335e-13 -6.50442e-13 -3.84222e-14)
(1.32922e-13 -5.79876e-13 -3.29687e-14)
(7.48278e-14 -5.16126e-13 -2.85166e-14)
(2.81135e-14 -2.55576e-13 -2.5701e-14)
(1.50052e-12 -3.69404e-13 -2.07001e-13)
(1.17873e-12 -1.2452e-12 -1.70164e-13)
(8.78191e-13 -1.63089e-12 -1.3556e-13)
(6.47308e-13 -1.38722e-12 -1.09146e-13)
(4.69822e-13 -1.18309e-12 -8.899e-14)
(3.32631e-13 -1.01541e-12 -7.37122e-14)
(2.26293e-13 -8.76033e-13 -6.11934e-14)
(1.43583e-13 -7.59738e-13 -5.13594e-14)
(7.92755e-14 -6.58738e-13 -4.41434e-14)
(2.97037e-14 -3.21495e-13 -3.85063e-14)
(2.0954e-12 -9.13377e-13 -3.66598e-13)
(1.56484e-12 -2.24185e-12 -2.89806e-13)
(1.11711e-12 -2.45214e-12 -2.24648e-13)
(7.92101e-13 -2.00423e-12 -1.7662e-13)
(5.5485e-13 -1.64878e-12 -1.40595e-13)
(3.80283e-13 -1.36848e-12 -1.13637e-13)
(2.51189e-13 -1.14445e-12 -9.27684e-14)
(1.55279e-13 -9.64187e-13 -7.58478e-14)
(8.39806e-14 -8.14042e-13 -6.37733e-14)
(3.14281e-14 -3.917e-13 -5.44734e-14)
(3.01444e-12 -1.82354e-12 -6.52921e-13)
(2.11605e-12 -3.81602e-12 -4.93125e-13)
(1.44027e-12 -3.65145e-12 -3.68556e-13)
(9.78372e-13 -2.85687e-12 -2.79526e-13)
(6.59376e-13 -2.25953e-12 -2.15586e-13)
(4.36538e-13 -1.80936e-12 -1.69249e-13)
(2.79471e-13 -1.46466e-12 -1.34732e-13)
(1.68205e-13 -1.19747e-12 -1.07615e-13)
(8.89654e-14 -9.83323e-13 -8.78454e-14)
(3.31826e-14 -4.66273e-13 -7.32087e-14)
(8.47868e-11 -3.39963e-12 -1.14802e-12)
(3.1512e-12 -6.37641e-12 -8.40614e-13)
(1.87675e-12 -5.42704e-12 -5.99396e-13)
(1.21473e-12 -4.0456e-12 -4.36104e-13)
(7.83859e-13 -3.06562e-12 -3.2441e-13)
(4.98796e-13 -2.36244e-12 -2.4567e-13)
(3.07919e-13 -1.84712e-12 -1.89793e-13)
(1.78947e-13 -1.46366e-12 -1.479e-13)
(9.11881e-14 -1.16861e-12 -1.17531e-13)
(3.20354e-14 -5.45818e-13 -9.53654e-14)
(1.63291e-07 -2.20549e-10 3.43627e-11)
(2.35311e-10 -2.1943e-10 -1.00436e-12)
(2.01975e-12 -8.70704e-12 -9.65597e-13)
(1.19207e-12 -5.71283e-12 -6.71215e-13)
(7.93469e-13 -4.13148e-12 -4.78712e-13)
(5.32693e-13 -3.05492e-12 -3.49386e-13)
(3.58599e-13 -2.30285e-12 -2.60864e-13)
(2.40431e-13 -1.76651e-12 -1.98155e-13)
(1.59117e-13 -1.36981e-12 -1.5224e-13)
(1.03106e-13 -6.30172e-13 -1.20669e-13)
(2.29364e-13 3.73095e-13 -1.83169e-14)
(2.16159e-13 3.45299e-13 -1.31282e-14)
(1.89457e-13 -5.51153e-14 -1.02488e-14)
(1.63953e-13 -5.52177e-14 -8.07849e-15)
(1.39657e-13 -5.40383e-14 -7.38012e-15)
(1.16452e-13 -5.29071e-14 -7.48115e-15)
(9.43425e-14 -5.17164e-14 -9.02662e-15)
(7.3285e-14 -5.04596e-14 -2.07198e-14)
(5.34014e-14 -4.90813e-14 -8.34353e-14)
(3.42953e-14 -2.80064e-14 -2.885e-13)
(5.03981e-13 3.38308e-13 -2.62421e-14)
(4.64847e-13 2.38444e-13 -1.80022e-14)
(3.98139e-13 -1.93722e-13 -1.49854e-14)
(3.36048e-13 -1.87307e-13 -1.20957e-14)
(2.78459e-13 -1.79879e-13 -1.06026e-14)
(2.25e-13 -1.72738e-13 -1.05859e-14)
(1.75314e-13 -1.65958e-13 -1.16132e-14)
(1.29159e-13 -1.59785e-13 -1.86898e-14)
(8.6266e-14 -1.53246e-13 -5.2679e-14)
(4.65324e-14 -8.30178e-14 -1.8704e-13)
(6.25764e-13 2.71661e-13 -4.28201e-14)
(5.55845e-13 6.80718e-14 -3.05364e-14)
(4.5925e-13 -3.90624e-13 -2.50089e-14)
(3.73195e-13 -3.66858e-13 -2.10687e-14)
(2.96974e-13 -3.43228e-13 -1.81238e-14)
(2.29363e-13 -3.21543e-13 -1.75722e-14)
(1.69238e-13 -3.01509e-13 -1.84601e-14)
(1.1579e-13 -2.83156e-13 -2.15643e-14)
(6.8308e-14 -2.65438e-13 -4.12513e-14)
(2.62928e-14 -1.39391e-13 -1.25693e-13)
(8.25329e-13 1.54472e-13 -7.339e-14)
(7.06263e-13 -1.98076e-13 -5.3744e-14)
(5.65889e-13 -6.70236e-13 -4.44235e-14)
(4.46576e-13 -6.10552e-13 -3.76792e-14)