/*--------------------------------*- C++ -*----------------------------------*\
| =========                 |                                                 |
| \\      /  F ield         | OpenFOAM: The Open Source CFD Toolbox           |
|  \\    /   O peration     | Version:  4.1                                   |
|   \\  /    A nd           | Web:      www.OpenFOAM.org                      |
|    \\/     M anipulation  |                                                 |
\*---------------------------------------------------------------------------*/
FoamFile
{
    version     2.0;
    format      ascii;
    class       volScalarField;
    location    "1.3";
    object      T;
}
// * * * * * * * * * * * * * * * * * * * * * * * * * * * * * * * * * * * * * //

dimensions      [0 0 0 1 0 0 0];

internalField   nonuniform List<scalar> 
52500
(
0.999995
1.00001
1.00002
1.00009
1.00017
1.00055
1.00101
1.00322
1.00614
1.01789
1.04005
1.10144
1.27661
1.81054
2.50735
2.76822
2.7712
2.76932
2.7866
2.79598
2.80514
2.8065
2.79968
2.83845
2.80993
0.999994
1.00001
1.00002
1.00009
1.00016
1.00054
1.00099
1.00317
1.00603
1.0176
1.03958
1.09953
1.27463
1.79475
2.50296
2.76801
2.76953
2.76943
2.78626
2.79478
2.80375
2.80472
2.79765
2.83614
2.80549
0.999994
1.00001
1.00002
1.00008
1.00016
1.00052
1.00096
1.00305
1.00583
1.01682
1.03876
1.09566
1.27049
1.75971
2.49276
2.76642
2.76493
2.76822
2.78454
2.7924
2.8009
2.80192
2.79495
2.83305
2.80171
0.999994
1.00001
1.00002
1.00008
1.00015
1.00049
1.00091
1.00286
1.0056
1.01553
1.03789
1.08979
1.26338
1.7064
2.47707
2.76107
2.7615
2.7656
2.77949
2.78771
2.7954
2.79577
2.78842
2.82606
2.79732
0.999994
1.00001
1.00002
1.00007
1.00014
1.00046
1.00084
1.00263
1.00525
1.01436
1.03597
1.08391
1.25118
1.6498
2.44632
2.74978
2.75817
2.76141
2.76958
2.78176
2.78755
2.78934
2.78222
2.81587
2.78963
0.999994
1
1.00001
1.00006
1.00012
1.00041
1.00077
1.00235
1.00486
1.01287
1.03375
1.07716
1.23785
1.58966
2.39135
2.732
2.75367
2.75545
2.75924
2.77333
2.77529
2.77616
2.77038
2.80534
2.78186
0.999994
1
1.00001
1.00006
1.00011
1.00037
1.00069
1.00206
1.00442
1.01135
1.03084
1.0691
1.21995
1.51882
2.31193
2.70656
2.748
2.74743
2.74926
2.76153
2.76388
2.7639
2.75597
2.7825
2.76453
0.999994
1
1.00001
1.00005
1.0001
1.00033
1.00062
1.00188
1.00393
1.01028
1.02712
1.06181
1.19349
1.45344
2.19944
2.66979
2.74327
2.74084
2.73696
2.74503
2.74319
2.74384
2.73527
2.76146
2.74261
0.999994
1
1.00001
1.00004
1.00009
1.0003
1.00055
1.00174
1.0034
1.00935
1.02287
1.05386
1.16336
1.38494
2.06645
2.62248
2.7291
2.72369
2.71016
2.71797
2.71724
2.71977
2.71209
2.71871
2.69162
0.999994
0.999999
1.00001
1.00004
1.00007
1.00025
1.00046
1.00145
1.00285
1.00785
1.01891
1.04466
1.13332
1.31274
1.85441
2.54567
2.70879
2.69932
2.67743
2.68695
2.68856
2.68685
2.67584
2.67201
2.61335
1
1.00001
1.00003
1.0001
1.00017
1.00056
1.00102
1.00323
1.00615
1.0179
1.04006
1.10149
1.27664
1.81076
2.50747
2.76821
2.77125
2.76936
2.78664
2.79604
2.80524
2.8066
2.79978
2.83855
2.81002
1
1.00001
1.00003
1.00009
1.00017
1.00055
1.001
1.00318
1.00604
1.01762
1.0396
1.09958
1.27465
1.79498
2.50306
2.76804
2.76956
2.76946
2.7863
2.79484
2.80384
2.80481
2.79774
2.83624
2.80558
1
1.00001
1.00003
1.00009
1.00016
1.00053
1.00097
1.00306
1.00584
1.01685
1.03877
1.09571
1.2705
1.75995
2.49287
2.76645
2.76496
2.76824
2.78458
2.79246
2.801
2.80202
2.79505
2.83315
2.8018
1
1.00001
1.00003
1.00009
1.00016
1.0005
1.00092
1.00287
1.00561
1.01555
1.0379
1.08984
1.2634
1.70662
2.47718
2.76111
2.76152
2.76562
2.77955
2.78779
2.7955
2.79586
2.78851
2.82615
2.7974
1
1.00001
1.00002
1.00008
1.00014
1.00047
1.00085
1.00264
1.00527
1.01438
1.03598
1.08395
1.2512
1.64997
2.44649
2.74982
2.75818
2.76143
2.76965
2.78184
2.78765
2.78943
2.78231
2.81596
2.78971
1
1.00001
1.00002
1.00007
1.00013
1.00042
1.00078
1.00236
1.00487
1.01289
1.03376
1.0772
1.23787
1.58981
2.39159
2.73204
2.75369
2.75549
2.7593
2.77341
2.7754
2.77625
2.77046
2.80543
2.78193
1
1.00001
1.00002
1.00006
1.00012
1.00038
1.0007
1.00207
1.00443
1.01137
1.03086
1.06914
1.22001
1.51903
2.31215
2.70662
2.74803
2.74746
2.7493
2.76161
2.76399
2.76399
2.75605
2.78257
2.76459
1
1.00001
1.00002
1.00006
1.00011
1.00034
1.00063
1.00189
1.00394
1.0103
1.02713
1.06184
1.19356
1.45361
2.1998
2.66985
2.74329
2.74087
2.73703
2.74513
2.74331
2.74393
2.73534
2.76153
2.74266
1
1.00001
1.00002
1.00005
1.00009
1.00031
1.00055
1.00175
1.00341
1.00937
1.02288
1.0539
1.16342
1.38515
2.06683
2.62265
2.72918
2.72377
2.71028
2.71809
2.71734
2.71985
2.71215
2.71877
2.69167
1
1.00001
1.00001
1.00004
1.00008
1.00026
1.00047
1.00146
1.00286
1.00786
1.01893
1.0447
1.1334
1.31293
1.85502
2.54577
2.70881
2.69937
2.6775
2.68701
2.68861
2.6869
2.67589
2.67206
2.61339
1
1.00001
1.00003
1.0001
1.00017
1.00056
1.00102
1.00323
1.00615
1.0179
1.04006
1.10149
1.27664
1.81077
2.50748
2.76821
2.77125
2.76936
2.78664
2.79604
2.80524
2.8066
2.79978
2.83855
2.81004
1
1.00001
1.00003
1.00009
1.00017
1.00055
1.001
1.00318
1.00604
1.01762
1.0396
1.09958
1.27465
1.79499
2.50307
2.76803
2.76956
2.76946
2.7863
2.79484
2.80384
2.80481
2.79774
2.83624
2.8056
1
1.00001
1.00003
1.00009
1.00016
1.00053
1.00097
1.00306
1.00584
1.01685
1.03877
1.09571
1.2705
1.75995
2.49287
2.76645
2.76495
2.76824
2.78458
2.79246
2.801
2.80202
2.79505
2.83315
2.80182
1
1.00001
1.00003
1.00009
1.00016
1.0005
1.00092
1.00287
1.00561
1.01555
1.0379
1.08984
1.2634
1.70663
2.47718
2.76111
2.76152
2.76562
2.77955
2.78779
2.7955
2.79586
2.78851
2.82615
2.79741
1
1.00001
1.00002
1.00008
1.00014
1.00047
1.00085
1.00264
1.00527
1.01438
1.03598
1.08395
1.2512
1.64998
2.4465
2.74982
2.75818
2.76143
2.76965
2.78184
2.78765
2.78944
2.78231
2.81596
2.78972
1
1.00001
1.00002
1.00007
1.00013
1.00042
1.00078
1.00236
1.00487
1.01289
1.03376
1.0772
1.23787
1.58982
2.3916
2.73204
2.75369
2.75548
2.75929
2.77341
2.7754
2.77625
2.77046
2.80543
2.78195
1
1.00001
1.00002
1.00006
1.00012
1.00038
1.0007
1.00207
1.00443
1.01137
1.03086
1.06914
1.22002
1.51904
2.31216
2.70662
2.74803
2.74745
2.7493
2.76161
2.76399
2.76399
2.75605
2.78257
2.76461
1
1.00001
1.00002
1.00006
1.00011
1.00034
1.00063
1.00189
1.00394
1.0103
1.02714
1.06185
1.19356
1.45361
2.19982
2.66984
2.74329
2.74086
2.73703
2.74513
2.74331
2.74393
2.73534
2.76153
2.74268
1
1.00001
1.00002
1.00005
1.00009
1.00031
1.00055
1.00175
1.00341
1.00937
1.02288
1.0539
1.16343
1.38515
2.06685
2.62265
2.72918
2.72377
2.71028
2.71809
2.71734
2.71985
2.71215
2.71876
2.69168
1
1.00001
1.00001
1.00004
1.00008
1.00026
1.00047
1.00146
1.00286
1.00786
1.01893
1.0447
1.1334
1.31293
1.85504
2.54577
2.70881
2.69937
2.6775
2.68701
2.68861
2.6869
2.67589
2.67206
2.6134
1
1.00001
1.00003
1.0001
1.00017
1.00056
1.00102
1.00323
1.00615
1.0179
1.04006
1.10149
1.27664
1.81077
2.50748
2.76821
2.77125
2.76936
2.78664
2.79604
2.80524
2.8066
2.79978
2.83855
2.81004
1
1.00001
1.00003
1.00009
1.00017
1.00055
1.001
1.00318
1.00604
1.01762
1.0396
1.09958
1.27465
1.79499
2.50307
2.76803
2.76956
2.76946
2.7863
2.79484
2.80384
2.80481
2.79774
2.83624
2.8056
1
1.00001
1.00003
1.00009
1.00016
1.00053
1.00097
1.00306
1.00584
1.01685
1.03877
1.09571
1.27051
1.75996
2.49287
2.76645
2.76495
2.76824
2.78458
2.79246
2.801
2.80202
2.79505
2.83315
2.80182
1
1.00001
1.00003
1.00009
1.00016
1.0005
1.00092
1.00287
1.00561
1.01555
1.0379
1.08984
1.2634
1.70663
2.47718
2.76111
2.76152
2.76562
2.77955
2.78779
2.7955
2.79586
2.78851
2.82615
2.79742
1
1.00001
1.00002
1.00008
1.00014
1.00047
1.00085
1.00264
1.00527
1.01438
1.03598
1.08395
1.2512
1.64998
2.4465
2.74982
2.75818
2.76143
2.76965
2.78184
2.78765
2.78944
2.78231
2.81596
2.78973
1
1.00001
1.00002
1.00007
1.00013
1.00042
1.00078
1.00236
1.00487
1.01289
1.03376
1.0772
1.23787
1.58982
2.3916
2.73204
2.75369
2.75548
2.75929
2.77341
2.7754
2.77625
2.77046
2.80543
2.78195
1
1.00001
1.00002
1.00006
1.00012
1.00038
1.0007
1.00207
1.00443
1.01137
1.03086
1.06914
1.22002
1.51904
2.31216
2.70662
2.74803
2.74745
2.7493
2.76161
2.76399
2.76399
2.75605
2.78257
2.76461
1
1.00001
1.00002
1.00006
1.00011
1.00034
1.00063
1.00189
1.00394
1.0103
1.02714
1.06185
1.19356
1.45361
2.19982
2.66985
2.74329
2.74086
2.73703
2.74513
2.74331
2.74393
2.73534
2.76153
2.74268
1
1.00001
1.00002
1.00005
1.00009
1.00031
1.00055
1.00175
1.00341
1.00937
1.02288
1.0539
1.16343
1.38516
2.06685
2.62265
2.72918
2.72377
2.71028
2.71809
2.71734
2.71985
2.71215
2.71876
2.69168
1
1.00001
1.00001
1.00004
1.00008
1.00026
1.00047
1.00146
1.00286
1.00786
1.01893
1.0447
1.1334
1.31293
1.85504
2.54578
2.70881
2.69937
2.6775
2.68701
2.68861
2.6869
2.67589
2.67206
2.6134
1
1.00001
1.00003
1.0001
1.00017
1.00056
1.00102
1.00323
1.00615
1.0179
1.04006
1.10149
1.27664
1.81078
2.50748
2.76821
2.77125
2.76936
2.78664
2.79604
2.80524
2.8066
2.79978
2.83855
2.81003
1
1.00001
1.00003
1.00009
1.00017
1.00055
1.001
1.00318
1.00605
1.01762
1.0396
1.09958
1.27465
1.795
2.50307
2.76803
2.76956
2.76945
2.7863
2.79484
2.80384
2.80481
2.79774
2.83624
2.80559
1
1.00001
1.00003
1.00009
1.00016
1.00053
1.00097
1.00306
1.00584
1.01685
1.03877
1.09571
1.27051
1.75996
2.49287
2.76645
2.76495
2.76824
2.78458
2.79246
2.801
2.80202
2.79505
2.83315
2.80181
1
1.00001
1.00003
1.00009
1.00016
1.0005
1.00092
1.00287
1.00561
1.01555
1.0379
1.08984
1.26341
1.70664
2.47719
2.7611
2.76151
2.76562
2.77954
2.78779
2.7955
2.79586
2.78851
2.82616
2.79741
1
1.00001
1.00002
1.00008
1.00014
1.00047
1.00085
1.00264
1.00527
1.01438
1.03598
1.08395
1.2512
1.64998
2.44651
2.74982
2.75818
2.76143
2.76965
2.78183
2.78765
2.78944
2.78231
2.81596
2.78972
1
1.00001
1.00002
1.00007
1.00013
1.00042
1.00078
1.00236
1.00487
1.01289
1.03376
1.0772
1.23787
1.58983
2.39161
2.73204
2.75368
2.75548
2.75929
2.77341
2.7754
2.77625
2.77046
2.80543
2.78194
1
1.00001
1.00002
1.00006
1.00012
1.00038
1.0007
1.00207
1.00443
1.01137
1.03086
1.06914
1.22002
1.51905
2.31216
2.70662
2.74802
2.74745
2.7493
2.76161
2.76399
2.76399
2.75605
2.78257
2.76461
1
1.00001
1.00002
1.00006
1.00011
1.00034
1.00063
1.00189
1.00394
1.0103
1.02714
1.06185
1.19356
1.45362
2.19983
2.66984
2.74328
2.74086
2.73703
2.74513
2.74331
2.74393
2.73534
2.76153
2.74268
1
1.00001
1.00002
1.00005
1.00009
1.00031
1.00055
1.00175
1.00341
1.00937
1.02288
1.0539
1.16343
1.38516
2.06686
2.62266
2.72918
2.72377
2.71028
2.71809
2.71734
2.71985
2.71215
2.71877
2.69168
1
1.00001
1.00001
1.00004
1.00008
1.00026
1.00047
1.00146
1.00286
1.00786
1.01893
1.0447
1.13341
1.31294
1.85506
2.54578
2.70881
2.69937
2.6775
2.68701
2.68861
2.6869
2.67589
2.67206
2.6134
1
1.00001
1.00003
1.0001
1.00017
1.00056
1.00102
1.00323
1.00615
1.0179
1.04006
1.10149
1.27664
1.81077
2.50748
2.76821
2.77125
2.76936
2.78664
2.79604
2.80524
2.8066
2.79978
2.83855
2.81004
1
1.00001
1.00003
1.00009
1.00017
1.00055
1.001
1.00318
1.00604
1.01762
1.0396
1.09958
1.27465
1.795
2.50307
2.76803
2.76956
2.76945
2.7863
2.79484
2.80384
2.80481
2.79774
2.83624
2.8056
1
1.00001
1.00003
1.00009
1.00016
1.00053
1.00097
1.00306
1.00584
1.01685
1.03877
1.09571
1.27051
1.75996
2.49287
2.76645
2.76495
2.76824
2.78458
2.79246
2.801
2.80202
2.79505
2.83315
2.80182
1
1.00001
1.00003
1.00009
1.00016
1.0005
1.00092
1.00287
1.00561
1.01555
1.0379
1.08984
1.26341
1.70664
2.47718
2.7611
2.76151
2.76562
2.77955
2.78779
2.7955
2.79586
2.78851
2.82616
2.79741
1
1.00001
1.00002
1.00008
1.00014
1.00047
1.00085
1.00264
1.00527
1.01438
1.03598
1.08395
1.2512
1.64998
2.4465
2.74982
2.75818
2.76143
2.76965
2.78183
2.78765
2.78944
2.78231
2.81596
2.78972
1
1.00001
1.00002
1.00007
1.00013
1.00042
1.00078
1.00236
1.00487
1.01289
1.03376
1.0772
1.23787
1.58982
2.3916
2.73204
2.75369
2.75548
2.75929
2.77341
2.7754
2.77625
2.77046
2.80543
2.78195
1
1.00001
1.00002
1.00006
1.00012
1.00038
1.0007
1.00207
1.00443
1.01137
1.03086
1.06914
1.22002
1.51904
2.31216
2.70662
2.74803
2.74745
2.7493
2.76161
2.76399
2.76399
2.75605
2.78257
2.76461
1
1.00001
1.00002
1.00006
1.00011
1.00034
1.00063
1.00189
1.00394
1.0103
1.02714
1.06185
1.19356
1.45361
2.19982
2.66984
2.74329
2.74086
2.73703
2.74513
2.74331
2.74393
2.73534
2.76153
2.74268
1
1.00001
1.00002
1.00005
1.00009
1.00031
1.00055
1.00175
1.00341
1.00937
1.02288
1.0539
1.16343
1.38516
2.06686
2.62266
2.72918
2.72377
2.71028
2.71809
2.71734
2.71985
2.71215
2.71877
2.69168
1
1.00001
1.00001
1.00004
1.00008
1.00026
1.00047
1.00146
1.00286
1.00786
1.01893
1.0447
1.13341
1.31294
1.85505
2.54578
2.70881
2.69937
2.6775
2.68701
2.68861
2.6869
2.67589
2.67206
2.6134
1
1.00001
1.00003
1.0001
1.00017
1.00056
1.00102
1.00323
1.00615
1.0179
1.04006
1.10149
1.27664
1.81077
2.50748
2.76821
2.77125
2.76936
2.78664
2.79604
2.80524
2.8066
2.79978
2.83855
2.81004
1
1.00001
1.00003
1.00009
1.00017
1.00055
1.001
1.00318
1.00604
1.01762
1.0396
1.09958
1.27465
1.79499
2.50307
2.76803
2.76956
2.76946
2.7863
2.79484
2.80384
2.80481
2.79774
2.83624
2.8056
1
1.00001
1.00003
1.00009
1.00016
1.00053
1.00097
1.00306
1.00584
1.01685
1.03877
1.09571
1.27051
1.75996
2.49287
2.76645
2.76495
2.76824
2.78458
2.79246
2.801
2.80202
2.79505
2.83315
2.80182
1
1.00001
1.00003
1.00009
1.00016
1.0005
1.00092
1.00287
1.00561
1.01555
1.0379
1.08984
1.2634
1.70663
2.47718
2.76111
2.76152
2.76562
2.77955
2.78779
2.7955
2.79586
2.78851
2.82615
2.79742
1
1.00001
1.00002
1.00008
1.00014
1.00047
1.00085
1.00264
1.00527
1.01438
1.03598
1.08395
1.2512
1.64998
2.4465
2.74982
2.75818
2.76143
2.76965
2.78184
2.78765
2.78944
2.78231
2.81596
2.78973
1
1.00001
1.00002
1.00007
1.00013
1.00042
1.00078
1.00236
1.00487
1.01289
1.03376
1.0772
1.23787
1.58982
2.3916
2.73204
2.75369
2.75548
2.75929
2.77341
2.7754
2.77625
2.77046
2.80543
2.78195
1
1.00001
1.00002
1.00006
1.00012
1.00038
1.0007
1.00207
1.00443
1.01137
1.03086
1.06914
1.22002
1.51904
2.31216
2.70662
2.74803
2.74745
2.7493
2.76161
2.76399
2.76399
2.75605
2.78257
2.76461
1
1.00001
1.00002
1.00006
1.00011
1.00034
1.00063
1.00189
1.00394
1.0103
1.02714
1.06185
1.19356
1.45361
2.19982
2.66985
2.74329
2.74086
2.73703
2.74513
2.74331
2.74393
2.73534
2.76153
2.74268
1
1.00001
1.00002
1.00005
1.00009
1.00031
1.00055
1.00175
1.00341
1.00937
1.02288
1.0539
1.16343
1.38516
2.06685
2.62265
2.72918
2.72377
2.71028
2.71809
2.71734
2.71985
2.71215
2.71876
2.69168
1
1.00001
1.00001
1.00004
1.00008
1.00026
1.00047
1.00146
1.00286
1.00786
1.01893
1.0447
1.1334
1.31293
1.85504
2.54578
2.70881
2.69937
2.6775
2.68701
2.68861
2.6869
2.67589
2.67206
2.6134
1
1.00001
1.00003
1.0001
1.00017
1.00056
1.00102
1.00323
1.00615
1.0179
1.04006
1.10149
1.27664
1.81077
2.50748
2.76821
2.77125
2.76936
2.78664
2.79604
2.80524
2.8066
2.79978
2.83855
2.81004
1
1.00001
1.00003
1.00009
1.00017
1.00055
1.001
1.00318
1.00604
1.01762
1.0396
1.09958
1.27465
1.79499
2.50307
2.76803
2.76956
2.76946
2.7863
2.79484
2.80384
2.80481
2.79774
2.83624
2.8056
1
1.00001
1.00003
1.00009
1.00016
1.00053
1.00097
1.00306
1.00584
1.01685
1.03877
1.09571
1.2705
1.75995
2.49287
2.76645
2.76495
2.76824
2.78458
2.79246
2.801
2.80202
2.79505
2.83315
2.80182
1
1.00001
1.00003
1.00009
1.00016
1.0005
1.00092
1.00287
1.00561
1.01555
1.0379
1.08984
1.2634
1.70663
2.47718
2.76111
2.76152
2.76562
2.77955
2.78779
2.7955
2.79586
2.78851
2.82615
2.79741
1
1.00001
1.00002
1.00008
1.00014
1.00047
1.00085
1.00264
1.00527
1.01438
1.03598
1.08395
1.2512
1.64998
2.4465
2.74982
2.75818
2.76143
2.76965
2.78184
2.78765
2.78944
2.78231
2.81596
2.78972
1
1.00001
1.00002
1.00007
1.00013
1.00042
1.00078
1.00236
1.00487
1.01289
1.03376
1.0772
1.23787
1.58982
2.3916
2.73204
2.75369
2.75548
2.75929
2.77341
2.7754
2.77625
2.77046
2.80543
2.78195
1
1.00001
1.00002
1.00006
1.00012
1.00038
1.0007
1.00207
1.00443
1.01137
1.03086
1.06914
1.22002
1.51904
2.31216
2.70662
2.74803
2.74745
2.7493
2.76161
2.76399
2.76399
2.75605
2.78257
2.76461
1
1.00001
1.00002
1.00006
1.00011
1.00034
1.00063
1.00189
1.00394
1.0103
1.02714
1.06185
1.19356
1.45361
2.19982
2.66984
2.74329
2.74086
2.73703
2.74513
2.74331
2.74393
2.73534
2.76153
2.74268
1
1.00001
1.00002
1.00005
1.00009
1.00031
1.00055
1.00175
1.00341
1.00937
1.02288
1.0539
1.16343
1.38515
2.06685
2.62265
2.72918
2.72377
2.71028
2.71809
2.71734
2.71985
2.71215
2.71876
2.69168
1
1.00001
1.00001
1.00004
1.00008
1.00026
1.00047
1.00146
1.00286
1.00786
1.01893
1.0447
1.1334
1.31293
1.85504
2.54577
2.70881
2.69937
2.6775
2.68701
2.68861
2.6869
2.67589
2.67206
2.6134
1
1.00001
1.00003
1.0001
1.00017
1.00056
1.00102
1.00323
1.00615
1.0179
1.04006
1.10149
1.27664
1.81076
2.50747
2.76821
2.77125
2.76936
2.78664
2.79604
2.80524
2.8066
2.79978
2.83855
2.81002
1
1.00001
1.00003
1.00009
1.00017
1.00055
1.001
1.00318
1.00604
1.01762
1.0396
1.09958
1.27465
1.79498
2.50306
2.76804
2.76956
2.76946
2.7863
2.79484
2.80384
2.80481
2.79774
2.83624
2.80558
1
1.00001
1.00003
1.00009
1.00016
1.00053
1.00097
1.00306
1.00584
1.01685
1.03877
1.09571
1.2705
1.75995
2.49287
2.76645
2.76496
2.76824
2.78458
2.79246
2.801
2.80202
2.79505
2.83315
2.8018
1
1.00001
1.00003
1.00009
1.00016
1.0005
1.00092
1.00287
1.00561
1.01555
1.0379
1.08984
1.2634
1.70662
2.47718
2.76111
2.76152
2.76562
2.77955
2.78779
2.7955
2.79586
2.78851
2.82615
2.7974
1
1.00001
1.00002
1.00008
1.00014
1.00047
1.00085
1.00264
1.00527
1.01438
1.03598
1.08395
1.2512
1.64997
2.44649
2.74982
2.75818
2.76143
2.76965
2.78184
2.78765
2.78943
2.78231
2.81596
2.78971
1
1.00001
1.00002
1.00007
1.00013
1.00042
1.00078
1.00236
1.00487
1.01289
1.03376
1.0772
1.23787
1.58981
2.39159
2.73204
2.75369
2.75549
2.7593
2.77341
2.7754
2.77625
2.77046
2.80543
2.78193
1
1.00001
1.00002
1.00006
1.00012
1.00038
1.0007
1.00207
1.00443
1.01137
1.03086
1.06914
1.22001
1.51903
2.31215
2.70662
2.74803
2.74746
2.7493
2.76161
2.76399
2.76399
2.75605
2.78257
2.76459
1
1.00001
1.00002
1.00006
1.00011
1.00034
1.00063
1.00189
1.00394
1.0103
1.02713
1.06184
1.19356
1.45361
2.1998
2.66985
2.74329
2.74087
2.73703
2.74513
2.74331
2.74393
2.73534
2.76153
2.74266
1
1.00001
1.00002
1.00005
1.00009
1.00031
1.00055
1.00175
1.00341
1.00937
1.02288
1.0539
1.16342
1.38515
2.06683
2.62265
2.72918
2.72377
2.71028
2.71809
2.71734
2.71985
2.71215
2.71877
2.69167
1
1.00001
1.00001
1.00004
1.00008
1.00026
1.00047
1.00146
1.00286
1.00786
1.01893
1.0447
1.1334
1.31293
1.85502
2.54577
2.70881
2.69937
2.6775
2.68701
2.68861
2.6869
2.67589
2.67206
2.61339
0.999995
1.00001
1.00002
1.00009
1.00017
1.00055
1.00101
1.00322
1.00614
1.01789
1.04005
1.10144
1.27661
1.81054
2.50735
2.76822
2.7712
2.76932
2.7866
2.79598
2.80514
2.8065
2.79968
2.83845
2.80994
0.999994
1.00001
1.00002
1.00009
1.00016
1.00054
1.00099
1.00317
1.00603
1.0176
1.03958
1.09953
1.27463
1.79475
2.50296
2.76801
2.76953
2.76943
2.78626
2.79478
2.80375
2.80472
2.79764
2.83614
2.8055
0.999994
1.00001
1.00002
1.00008
1.00016
1.00052
1.00096
1.00305
1.00583
1.01682
1.03876
1.09566
1.27049
1.75971
2.49276
2.76642
2.76493
2.76822
2.78454
2.7924
2.8009
2.80192
2.79495
2.83305
2.80172
0.999994
1.00001
1.00002
1.00008
1.00015
1.00049
1.00091
1.00286
1.0056
1.01553
1.03789
1.08979
1.26338
1.7064
2.47706
2.76107
2.7615
2.7656
2.77949
2.78771
2.7954
2.79577
2.78842
2.82606
2.79733
0.999994
1.00001
1.00002
1.00007
1.00014
1.00046
1.00084
1.00263
1.00525
1.01436
1.03597
1.08391
1.25118
1.6498
2.44632
2.74978
2.75817
2.76141
2.76958
2.78176
2.78755
2.78934
2.78222
2.81587
2.78964
0.999994
1
1.00001
1.00006
1.00012
1.00041
1.00077
1.00235
1.00486
1.01287
1.03375
1.07716
1.23785
1.58966
2.39135
2.732
2.75367
2.75545
2.75924
2.77333
2.77529
2.77616
2.77038
2.80534
2.78187
0.999994
1
1.00001
1.00006
1.00011
1.00037
1.00069
1.00206
1.00442
1.01135
1.03084
1.0691
1.21995
1.51882
2.31193
2.70656
2.748
2.74743
2.74926
2.76153
2.76388
2.7639
2.75597
2.7825
2.76454
0.999994
1
1.00001
1.00005
1.0001
1.00033
1.00062
1.00188
1.00393
1.01028
1.02712
1.06181
1.19349
1.45344
2.19944
2.66979
2.74327
2.74084
2.73696
2.74503
2.74319
2.74384
2.73527
2.76146
2.74262
0.999994
1
1.00001
1.00004
1.00009
1.0003
1.00055
1.00174
1.0034
1.00935
1.02287
1.05386
1.16336
1.38494
2.06645
2.62248
2.7291
2.72369
2.71016
2.71797
2.71724
2.71977
2.71209
2.71871
2.69163
0.999994
0.999999
1.00001
1.00004
1.00007
1.00025
1.00046
1.00145
1.00285
1.00785
1.01891
1.04466
1.13332
1.31274
1.85441
2.54567
2.70879
2.69932
2.67743
2.68695
2.68856
2.68685
2.67584
2.67201
2.61336
0.999995
0.999997
1.00001
1.00002
1.00008
1.00016
1.00052
1.00098
1.00301
1.00607
1.01689
1.04137
1.09994
1.28244
1.80514
2.44196
2.68925
2.68305
2.67178
2.66874
2.66764
2.66072
2.62773
2.57931
2.39669
0.999994
0.999996
1.00001
1.00002
1.00007
1.00013
1.00046
1.00083
1.00267
1.00511
1.0146
1.03422
1.08261
1.23948
1.63131
2.38283
2.66298
2.66739
2.66538
2.65605
2.65088
2.63749
2.59577
2.52192
2.31909
0.999994
0.999995
1
1.00001
1.00006
1.00011
1.00036
1.00068
1.00204
1.00432
1.01111
1.02971
1.06712
1.20927
1.49461
2.23885
2.6009
2.65551
2.65206
2.64148
2.6187
2.59296
2.55025
2.48525
2.32073
0.999994
0.999995
1
1.00001
1.00005
1.00009
1.0003
1.00056
1.00175
1.0035
1.00948
1.02363
1.05519
1.1679
1.3909
2.08227
2.52699
2.63288
2.62671
2.6208
2.60023
2.5698
2.50351
2.44843
2.3268
0.999993
0.999994
0.999999
1
1.00003
1.00007
1.00024
1.00045
1.0014
1.00276
1.00753
1.01821
1.04304
1.12753
1.29411
1.8142
2.42138
2.5903
2.58826
2.58011
2.56546
2.54382
2.48853
2.42121
2.32524
0.999993
0.999994
0.999996
1.00001
1.00002
1.00007
1.00014
1.00046
1.00087
1.00266
1.00533
1.01491
1.0355
1.088
1.23866
1.68715
2.2813
2.54883
2.55079
2.54514
2.5268
2.50573
2.46421
2.4086
2.32417
0.999992
0.999993
0.999995
1
1.00001
1.00006
1.00011
1.00037
1.00068
1.00214
1.00414
1.01153
1.02732
1.06534
1.19089
1.46769
2.13493
2.49347
2.53329
2.52126
2.49605
2.47247
2.43013
2.3805
2.31772
0.999992
0.999993
0.999994
0.999999
1.00001
1.00004
1.00008
1.00027
1.00051
1.0016
1.00312
1.00856
1.02051
1.04857
1.14427
1.33367
1.88219
2.37417
2.50762
2.5047
2.48514
2.44516
2.41055
2.36191
2.30358
0.999992
0.999992
0.999994
0.999996
1.00001
1.00002
1.00008
1.00016
1.0005
1.00095
1.0029
1.00574
1.0162
1.03619
1.09477
1.23458
1.71748
2.1888
2.44468
2.4692
2.46277
2.43793
2.39109
2.35002
2.29846
0.999991
0.999992
0.999993
0.999995
1
1.00001
1.00006
1.00011
1.00037
1.00068
1.00213
1.00411
1.01171
1.02641
1.06501
1.17849
1.46332
2.0483
2.3711
2.42499
2.42054
2.40921
2.37738
2.32983
2.28634
0.999991
0.999991
0.999992
0.999994
0.999997
1.00001
1.00003
1.0001
1.0002
1.00064
1.0012
1.00364
1.00736
1.01969
1.04927
1.11436
1.32782
1.86591
2.26561
2.39429
2.39468
2.38575
2.36552
2.3233
2.27931
0.999991
0.999991
0.999992
0.999993
0.999995
1
1.00002
1.00007
1.00014
1.00046
1.00085
1.00265
1.00505
1.01488
1.03106
1.08563
1.19856
1.63567
2.05432
2.31844
2.34629
2.34165
2.33024
2.30584
2.26538
0.999991
0.999991
0.999991
0.999992
0.999995
0.999998
1.00001
1.00003
1.00012
1.00023
1.00072
1.00139
1.00395
1.0086
1.02147
1.05841
1.12671
1.39047
1.93644
2.22918
2.31748
2.32041
2.30787
2.29066
2.25642
0.999991
0.999991
0.999991
0.999992
0.999994
0.999996
1.00001
1.00002
1.00008
1.00016
1.00051
1.00094
1.00291
1.00559
1.01605
1.03439
1.09126
1.21895
1.66806
2.06629
2.25775
2.27919
2.27336
2.25905
2.23236
0.999991
0.999991
0.999991
0.999992
0.999992
0.999995
0.999999
1.00002
1.00004
1.00013
1.00025
1.00077
1.00148
1.00416
1.00914
1.02257
1.06173
1.13234
1.41112
1.9502
2.18737
2.24472
2.25015
2.23912
2.21811
0.999991
0.999991
0.999991
0.999991
0.999992
0.999994
0.999996
1.00001
1.00002
1.00008
1.00016
1.00053
1.00098
1.003
1.00578
1.01647
1.03598
1.09286
1.23088
1.67459
2.04862
2.20615
2.21533
2.20923
2.19604
0.999991
0.999991
0.999991
0.999991
0.999991
0.999992
0.999995
0.999999
1.00002
1.00004
1.00013
1.00025
1.00077
1.00147
1.00415
1.00908
1.02244
1.06092
1.13046
1.39996
1.91239
2.13446
2.18632
2.18398
2.16968
0.999991
0.999991
0.999991
0.999991
0.999991
0.999992
0.999994
0.999996
1.00001
1.00002
1.00008
1.00016
1.00051
1.00094
1.00287
1.00553
1.01568
1.03404
1.08776
1.21509
1.62356
1.98642
2.14152
2.16145
2.15592
0.999991
0.999991
0.999991
0.999991
0.999991
0.999991
0.999992
0.999995
0.999998
1.00001
1.00003
1.00012
1.00023
1.00071
1.00138
1.00388
1.00844
1.02088
1.05606
1.12115
1.36532
1.84874
2.06272
2.11602
2.1247
0.999991
0.999991
0.999991
0.999991
0.999991
0.999991
0.999992
0.999993
0.999997
1
1.00002
1.00005
1.00018
1.00035
1.00106
1.00202
1.00583
1.01216
1.03095
1.07745
1.18323
1.46749
1.9215
2.07992
2.0923
0.999991
0.999991
0.999991
0.999991
0.999991
0.999991
0.999991
0.999992
0.999994
0.999997
1.00001
1.00003
1.00011
1.00021
1.00066
1.00121
1.00369
1.00718
1.01946
1.04643
1.10599
1.30029
1.73492
1.99685
2.07115
0.999991
0.999991
0.999991
0.999991
0.999991
0.999991
0.999991
0.999992
0.999992
0.999996
1
1.00002
1.00004
1.00015
1.00029
1.0009
1.0017
1.00496
1.01012
1.02637
1.06438
1.15234
1.39304
1.83641
2.01514
0.999991
0.999991
0.999991
0.999991
0.999991
0.999991
0.999991
0.999991
0.999992
0.999994
0.999996
1.00001
1.00002
1.00009
1.00017
1.00053
1.00098
1.00299
1.00569
1.01591
1.03533
1.08467
1.22306
1.56647
1.89785
0.999991
0.999991
0.999991
0.999991
0.999991
0.999991
0.999991
0.999991
0.999991
0.999992
0.999994
1
1.00001
1.00005
1.00009
1.0003
1.00056
1.00172
1.00321
1.00942
1.01903
1.0509
1.11673
1.32325
1.66635
0.999991
0.999991
0.999991
0.999991
0.999991
0.999991
0.999991
0.999991
0.999991
0.999992
0.999992
0.999996
1
1.00002
1.00005
1.00016
1.00031
1.00095
1.00176
1.00524
1.01023
1.02794
1.06183
1.15844
1.3701
0.999991
0.999991
0.999991
0.999991
0.999991
0.999991
0.999991
0.999991
0.999991
0.999991
0.999992
0.999993
0.999998
1
1.00003
1.00006
1.00021
1.0004
1.00119
1.0023
1.00654
1.01348
1.03529
1.08127
1.21198
0.999991
0.999991
0.999991
0.999991
0.999991
0.999991
0.999991
0.999991
0.999991
0.999991
0.999991
0.999992
0.999994
1
1.00001
1.00004
1.00009
1.00027
1.00053
1.00155
1.00304
1.00849
1.01775
1.04731
1.10469
0.999991
0.999991
0.999991
0.999991
0.999991
0.999991
0.999991
0.999991
0.999991
0.999991
0.999991
0.999991
0.999993
0.999995
1
1.00001
1.00006
1.00011
1.00035
1.00067
1.00195
1.00385
1.01055
1.02234
1.05793
0.999991
0.999991
0.999991
0.999991
0.999991
0.999991
0.999991
0.999991
0.999991
0.999991
0.999991
0.999991
0.999992
0.999993
0.999997
1
1.00003
1.00005
1.00018
1.00034
1.00103
1.00195
1.00554
1.0111
1.02925
0.999991
0.999991
0.999991
0.999991
0.999991
0.999991
0.999991
0.999991
0.999991
0.999991
0.999991
0.999991
0.999991
0.999992
0.999993
0.999998
1
1.00003
1.00007
1.00022
1.00042
1.00123
1.0024
1.0066
1.0139
0.999991
0.999991
0.999991
0.999991
0.999991
0.999991
0.999991
0.999991
0.999991
0.999991
0.999991
0.999991
0.999991
0.999991
0.999992
0.999994
1
1.00001
1.00004
1.00009
1.00027
1.00052
1.0015
1.00295
1.0082
0.999991
0.999991
0.999991
0.999991
0.999991
0.999991
0.999991
0.999991
0.999991
0.999991
0.999991
0.999991
0.999991
0.999991
0.999991
0.999993
0.999994
1
1.00001
1.00005
1.0001
1.00032
1.00062
1.00178
1.0035
0.999991
0.999991
0.999991
0.999991
0.999991
0.999991
0.999991
0.999991
0.999991
0.999991
0.999991
0.999991
0.999991
0.999991
0.999991
0.999992
0.999993
0.999996
1
1.00002
1.00005
1.00016
1.0003
1.0009
1.00168
0.999991
0.999991
0.999991
0.999991
0.999991
0.999991
0.999991
0.999991
0.999991
0.999991
0.999991
0.999991
0.999991
0.999991
0.999991
0.999991
0.999992
0.999993
0.999997
1
1.00002
1.00005
1.00017
1.00034
1.00097
0.999991
0.999991
0.999991
0.999991
0.999991
0.999991
0.999991
0.999991
0.999991
0.999991
0.999991
0.999991
0.999991
0.999991
0.999991
0.999991
0.999991
0.999992
0.999993
0.999998
1
1.00003
1.00006
1.0002
1.00038
0.999991
0.999991
0.999991
0.999991
0.999991
0.999991
0.999991
0.999991
0.999991
0.999991
0.999991
0.999991
0.999991
0.999991
0.999991
0.999991
0.999991
0.999991
0.999992
0.999993
0.999999
1.00001
1.00003
1.00007
1.00022
0.999991
0.999991
0.999991
0.999991
0.999991
0.999991
0.999991
0.999991
0.999991
0.999991
0.999991
0.999991
0.999991
0.999991
0.999991
0.999991
0.999991
0.999991
0.999991
0.999992
0.999994
0.999999
1.00001
1.00004
1.00008
0.999991
0.999991
0.999991
0.999991
0.999991
0.999991
0.999991
0.999991
0.999991
0.999991
0.999991
0.999991
0.999991
0.999991
0.999991
0.999991
0.999991
0.999991
0.999991
0.999991
0.999992
0.999995
0.999998
1.00001
1.00003
0.999991
0.999991
0.999991
0.999991
0.999991
0.999991
0.999991
0.999991
0.999991
0.999991
0.999991
0.999991
0.999991
0.999991
0.999991
0.999991
0.999991
0.999991
0.999991
0.999991
0.999992
0.999992
0.999995
1
1.00002
0.999991
0.999991
0.999991
0.999991
0.999991
0.999991
0.999991
0.999991
0.999991
0.999991
0.999991
0.999991
0.999991
0.999991
0.999991
0.999991
0.999991
0.999991
0.999991
0.999991
0.999991
0.999992
0.999994
0.999996
1.00001
1
1
1.00001
1.00003
1.00009
1.00017
1.00053
1.00099
1.00302
1.00609
1.01692
1.04138
1.09999
1.28248
1.80549
2.44196
2.68921
2.68303
2.67178
2.66876
2.66765
2.66073
2.62777
2.57935
2.39671
1
1
1.00001
1.00002
1.00008
1.00014
1.00047
1.00084
1.00268
1.00512
1.01462
1.03423
1.08265
1.23952
1.63153
2.38302
2.66302
2.66738
2.66538
2.65606
2.65091
2.63754
2.59582
2.52197
2.31911
1
1
1.00001
1.00002
1.00007
1.00012
1.00037
1.00069
1.00205
1.00433
1.01113
1.02972
1.06716
1.20931
1.49482
2.23915
2.60098
2.65549
2.65206
2.64151
2.61877
2.59304
2.55032
2.4853
2.32076
1
1
1.00001
1.00002
1.00005
1.0001
1.00031
1.00057
1.00176
1.00352
1.0095
1.02365
1.05523
1.16796
1.39106
2.08249
2.52712
2.63292
2.62672
2.62083
2.60029
2.56987
2.50358
2.4485
2.32685
1
1
1.00001
1.00001
1.00004
1.00008
1.00025
1.00046
1.00141
1.00277
1.00754
1.01822
1.04308
1.12759
1.29427
1.8146
2.42155
2.59037
2.58832
2.58016
2.56551
2.54387
2.4886
2.42128
2.3253
1
1
1
1.00001
1.00003
1.00008
1.00015
1.00047
1.00088
1.00268
1.00534
1.01494
1.03551
1.08807
1.23867
1.68753
2.28136
2.54879
2.55079
2.54516
2.52689
2.5058
2.46427
2.40866
2.32423
1
1
1
1.00001
1.00002
1.00007
1.00012
1.00038
1.00069
1.00215
1.00415
1.01155
1.02733
1.06538
1.19092
1.4679
2.13515
2.49349
2.53328
2.52129
2.49609
2.47253
2.4302
2.38056
2.31778
1
1
1
1.00001
1.00002
1.00005
1.00009
1.00028
1.00052
1.00161
1.00313
1.00857
1.02053
1.04859
1.14432
1.3338
1.88244
2.37429
2.50764
2.50473
2.48518
2.44519
2.41057
2.36194
2.30362
1
1
1
1
1.00002
1.00003
1.00009
1.00016
1.00051
1.00096
1.00291
1.00576
1.01621
1.03621
1.09481
1.23465
1.71769
2.18896
2.44468
2.46921
2.4628
2.43797
2.39113
2.35004
2.29849
1
1
1
1
1.00001
1.00002
1.00007