/*--------------------------------*- C++ -*----------------------------------*\
| =========                 |                                                 |
| \\      /  F ield         | OpenFOAM: The Open Source CFD Toolbox           |
|  \\    /   O peration     | Version:  4.1                                   |
|   \\  /    A nd           | Web:      www.OpenFOAM.org                      |
|    \\/     M anipulation  |                                                 |
\*---------------------------------------------------------------------------*/
FoamFile
{
    version     2.0;
    format      ascii;
    class       volScalarField;
    location    "0.12";
    object      p;
}
// * * * * * * * * * * * * * * * * * * * * * * * * * * * * * * * * * * * * * //

dimensions      [1 -1 -2 0 0 0 0];

internalField   nonuniform List<scalar> 
52500
(
0.0976781
0.0815631
0.0838243
0.0905232
0.103006
0.12968
0.16162
0.195486
0.254647
0.37391
0.513091
0.602724
0.680788
0.75444
0.820402
0.87464
0.921045
0.952323
1.01605
1.16822
1.61286
3.18241
9.27159
10.7062
8.04291
0.0976784
0.0815642
0.0838258
0.0905258
0.103011
0.129692
0.161638
0.195505
0.254673
0.373933
0.513107
0.602734
0.680795
0.754444
0.820406
0.874638
0.921055
0.95226
1.01575
1.16707
1.60769
3.15609
9.14855
10.5981
7.94909
0.0976789
0.0815635
0.0838256
0.0905266
0.103016
0.129702
0.161649
0.195515
0.254696
0.373949
0.513114
0.602742
0.680805
0.754452
0.820418
0.874632
0.921082
0.952096
1.01497
1.16413
1.59496
3.09437
8.87432
10.3838
7.76211
0.0976855
0.0815885
0.0838538
0.0905608
0.103067
0.12978
0.161709
0.195555
0.254699
0.373938
0.513092
0.602733
0.680806
0.754452
0.820432
0.874609
0.921136
0.951732
1.01337
1.15832
1.57116
2.98572
8.42111
10.1035
7.51668
0.0976869
0.0815915
0.0838564
0.0905582
0.10307
0.129782
0.161698
0.195546
0.254705
0.373952
0.513099
0.602742
0.680819
0.754454
0.820456
0.874569
0.9212
0.951197
1.01049
1.14848
1.5332
2.82469
7.78703
9.80327
7.26233
0.0976865
0.0815629
0.0838227
0.0905251
0.10295
0.129534
0.161406
0.195264
0.254646
0.373843
0.513127
0.60276
0.680832
0.754447
0.82047
0.874558
0.921059
0.951235
1.00639
1.13368
1.47974
2.61266
6.95635
9.51471
7.03155
0.0976935
0.0815866
0.0838494
0.0905575
0.102997
0.1296
0.16145
0.195293
0.254648
0.373829
0.513099
0.602743
0.680835
0.754437
0.820476
0.8746
0.920725
0.951522
1.00123
1.11419
1.41184
2.35611
5.89973
9.23675
6.83489
0.0976982
0.0816209
0.0838892
0.0905968
0.103131
0.129876
0.161777
0.195598
0.25473
0.373961
0.513084
0.602732
0.680844
0.754429
0.820474
0.874674
0.920244
0.951789
0.995125
1.09168
1.33661
2.07544
4.62929
8.9189
6.6455
0.0976944
0.0815897
0.083853
0.0905623
0.103006
0.129618
0.161468
0.195309
0.254669
0.373846
0.51311
0.60274
0.680857
0.754411
0.820442
0.874772
0.919623
0.951929
0.988401
1.06773
1.26081
1.81533
3.57857
8.06039
6.48916
0.0976939
0.0815876
0.0838508
0.0905599
0.103005
0.129623
0.161483
0.195326
0.254692
0.37387
0.513136
0.602748
0.68088
0.754402
0.820398
0.87491
0.918895
0.951921
0.981528
1.0442
1.1892
1.58353
2.80311
6.50772
6.14939
0.0976864
0.0815883
0.0838537
0.0905605
0.103069
0.129786
0.161726
0.195575
0.25473
0.373967
0.513112
0.602747
0.680816
0.754469
0.820429
0.874665
0.921066
0.952346
1.01608
1.16827
1.61299
3.18283
9.27261
10.706
8.04281
0.0976811
0.0815712
0.0838333
0.0905317
0.103023
0.129704
0.161639
0.195504
0.254683
0.373953
0.513116
0.602748
0.680812
0.754462
0.820424
0.874655
0.92107
0.952278
1.01578
1.16711
1.6078
3.15647
9.14948
10.598
7.94894
0.0976922
0.0815843
0.0838469
0.0905545
0.102995
0.129603
0.161457
0.195294
0.254618
0.373774
0.513076
0.602733
0.680805
0.754456
0.820425
0.874643
0.921094
0.95211
1.01499
1.16416
1.59504
3.09467
8.8751
10.3842
7.76168
0.0976795
0.081563
0.0838238
0.09052
0.103003
0.129671
0.1616
0.195466
0.254647
0.373924
0.513105
0.60274
0.680806
0.754451
0.820432
0.874613
0.921143
0.951741
1.01339
1.15835
1.57122
2.98597
8.42171
10.104
7.51623
0.0976922
0.0815842
0.0838468
0.0905543
0.102994
0.129602
0.161454
0.195289
0.254607
0.373759
0.513066
0.602725
0.680804
0.754442
0.82045
0.874569
0.921206
0.951205
1.0105
1.1485
1.53325
2.82489
7.78749
9.80379
7.26191
0.0976808
0.0815707
0.0838324
0.0905302
0.103019
0.129694
0.161619
0.19548
0.254645
0.373911
0.51309
0.602727
0.680807
0.754431
0.820462
0.874558
0.921064
0.951245
1.00641
1.1337
1.47978
2.61282
6.95671
9.51502
7.03124
0.0976855
0.0815877
0.083853
0.0905593
0.103065
0.129777
0.161709
0.195556
0.254693
0.373923
0.513088
0.602724
0.680816
0.754423
0.82047
0.874599
0.92073
0.951532
1.00124
1.11422
1.41189
2.35628
5.90031
9.23677
6.83466
0.0976792
0.081564
0.0838255
0.0905249
0.10301
0.12969
0.161635
0.1955
0.254665
0.37392
0.513101
0.602723
0.68082
0.754405
0.820455
0.874665
0.920244
0.951795
0.995135
1.0917
1.33665
2.07558
4.6298
8.91906
6.64518
0.0976787
0.0815643
0.0838259
0.0905257
0.103011
0.129691
0.161638
0.195505
0.254667
0.373924
0.51311
0.602721
0.680832
0.754389
0.820428
0.874766
0.919625
0.951937
0.988412
1.06775
1.26084
1.81541
3.57881
8.06091
6.48889
0.0976784
0.0815638
0.0838251
0.0905241
0.103008
0.129683
0.161624
0.19549
0.254646
0.373903
0.513099
0.602705
0.68084
0.754371
0.820378
0.874902
0.918896
0.951929
0.981538
1.04422
1.18922
1.58357
2.80326
6.50812
6.14925
0.0976784
0.0815637
0.083825
0.0905241
0.103007
0.129682
0.161621
0.195485
0.25464
0.373893
0.513086
0.602722
0.680788
0.754444
0.820409
0.874651
0.921058
0.952339
1.01608
1.16827
1.61299
3.18284
9.27262
10.706
8.04281
0.0976787
0.0815642
0.0838258
0.0905255
0.103011
0.12969
0.161634
0.195499
0.254657
0.37391
0.513095
0.602728
0.680793
0.754447
0.820413
0.874649
0.921067
0.952276
1.01578
1.16711
1.6078
3.15648
9.14949
10.598
7.94894
0.0976792
0.0815638
0.0838252
0.0905244
0.103009
0.129687
0.16163
0.195493
0.254653
0.373905
0.513088
0.602725
0.680793
0.754446
0.820418
0.874637
0.921092
0.952108
1.01499
1.16416
1.59504
3.09467
8.87511
10.3842
7.76168
0.097685
0.0815868
0.0838517
0.0905572
0.10306
0.129765
0.161688
0.195531
0.254655
0.373883
0.513062
0.602712
0.68079
0.754442
0.820429
0.874612
0.921144
0.951742
1.01339
1.15835
1.57122
2.98597
8.42171
10.104
7.51622
0.0976797
0.0815672
0.0838284
0.0905245
0.10301
0.129681
0.161609
0.195469
0.254628
0.373893
0.513081
0.602722
0.680796
0.754435
0.820444
0.874565
0.921203
0.951204
1.0105
1.1485
1.53325
2.82489
7.7875
9.8038
7.26191
0.0976838
0.0815571
0.0838163
0.0905183
0.102939
0.129516
0.161376
0.195235
0.254583
0.373763
0.513086
0.602726
0.680802
0.754424
0.820456
0.874554
0.921062
0.951243
1.00641
1.1337
1.47978
2.61282
6.95672
9.51502
7.03124
0.0976797
0.0815673
0.0838285
0.0905246
0.103011
0.129682
0.161612
0.195473
0.254635
0.3739
0.513089
0.602723
0.680811
0.754417
0.820463
0.874595
0.920727
0.95153
1.00124
1.11422
1.41189
2.35629
5.90031
9.23677
6.83466
0.0976855
0.0815878
0.0838531
0.0905595
0.103066
0.129779
0.161712
0.195557
0.254692
0.373921
0.513087
0.602719
0.680824
0.754411
0.820462
0.87467
0.920248
0.951798
0.995137
1.0917
1.33665
2.07558
4.6298
8.91906
6.64518
0.0976796
0.0815633
0.0838245
0.0905233
0.103007
0.129684
0.161629
0.195495
0.254668
0.373931
0.513109
0.602723
0.680837
0.754397
0.820435
0.874772
0.91963
0.95194
0.988415
1.06775
1.26084
1.81541
3.57882
8.06091
6.48889
0.0976855
0.0815878
0.0838531
0.0905595
0.103066
0.129778
0.161712
0.195557
0.254692
0.373922
0.51309
0.602706
0.680849
0.754384
0.82039
0.874912
0.918903
0.951933
0.981542
1.04422
1.18923
1.58357
2.80326
6.50812
6.14925
0.0976784
0.0815636
0.0838249
0.0905239
0.103007
0.12968
0.161616
0.195477
0.254624
0.373872
0.51307
0.602711
0.680781
0.75444
0.820407
0.874651
0.921059
0.95234
1.01608
1.16827
1.61299
3.18284
9.27262
10.706
8.04281
0.0976784
0.0815636
0.0838249
0.0905239
0.103007
0.12968
0.161617
0.195478
0.254624
0.373873
0.513071
0.602712
0.680782
0.754439
0.820408
0.874646
0.921067
0.952276
1.01578
1.16711
1.60781
3.15648
9.14949
10.598
7.94894
0.0976784
0.0815636
0.0838249
0.0905239
0.103007
0.12968
0.161617
0.195478
0.254624
0.373873
0.513071
0.602712
0.680782
0.754438
0.820412
0.874634
0.92109
0.952108
1.01499
1.16416
1.59504
3.09467
8.87511
10.3842
7.76168
0.0976784
0.0815636
0.0838249
0.0905239
0.103007
0.12968
0.161617
0.195478
0.254624
0.373873
0.513071
0.602712
0.680783
0.754434
0.820422
0.874607
0.921141
0.95174
1.01339
1.15835
1.57122
2.98597
8.42171
10.104
7.51622
0.0976784
0.0815636
0.0838249
0.0905239
0.103007
0.12968
0.161617
0.195478
0.254624
0.373873
0.513071
0.602711
0.680786
0.754427
0.820439
0.874562
0.921202
0.951203
1.0105
1.1485
1.53325
2.82489
7.7875
9.80379
7.26191
0.0976784
0.0815636
0.0838249
0.0905239
0.103007
0.12968
0.161617
0.195478
0.254624
0.373872
0.513072
0.602709
0.68079
0.754417
0.820453
0.874553
0.921062
0.951244
1.00641
1.1337
1.47979
2.61282
6.95671
9.51502
7.03124
0.0976784
0.0815636
0.0838249
0.0905239
0.103007
0.12968
0.161617
0.195478
0.254624
0.373872
0.513073
0.602707
0.680797
0.754406
0.820456
0.874591
0.920725
0.95153
1.00124
1.11422
1.41189
2.35629
5.90031
9.23677
6.83466
0.0976784
0.0815636
0.0838249
0.0905239
0.103007
0.12968
0.161617
0.195478
0.254624
0.373873
0.513074
0.602703
0.680805
0.754393
0.820448
0.874661
0.920242
0.951795
0.995135
1.0917
1.33665
2.07558
4.6298
8.91907
6.64518
0.0976784
0.0815636
0.0838249
0.0905239
0.103007
0.12968
0.161617
0.195478
0.254624
0.373873
0.513075
0.602698
0.680816
0.75438
0.820423
0.874764
0.919625
0.951938
0.988414
1.06775
1.26084
1.81541
3.57882
8.06091
6.48889
0.0976784
0.0815636
0.0838249
0.0905239
0.103007
0.12968
0.161617
0.195478
0.254624
0.373873
0.513077
0.60269
0.680831
0.754366
0.820376
0.874902
0.918897
0.951931
0.98154
1.04422
1.18923
1.58357
2.80327
6.50812
6.14925
0.097678
0.0815619
0.083823
0.0905212
0.103006
0.129681
0.161611
0.195471
0.254623
0.373868
0.513066
0.602711
0.680782
0.754438
0.820403
0.874644
0.921051
0.952332
1.01607
1.16826
1.61298
3.18282
9.2727
10.706
8.04284
0.0976781
0.0815623
0.0838235
0.0905216
0.103006
0.129682
0.161612
0.195472
0.254624
0.37387
0.513068
0.602712
0.680783
0.754439
0.820406
0.874641
0.92106
0.952269
1.01577
1.1671
1.6078
3.15647
9.14959
10.5979
7.94901
0.0976785
0.0815625
0.0838236
0.0905221
0.103004
0.129675
0.161608
0.19547
0.25462
0.373878
0.513071
0.602714
0.680786
0.754441
0.820413
0.874632
0.921085
0.952103
1.01499
1.16417
1.59506
3.09472
8.87524
10.3837
7.76202
0.0976785
0.0815627
0.0838239
0.0905224
0.103005
0.129676
0.161609
0.19547
0.25462
0.373878
0.51307
0.602713
0.680786
0.754437
0.820422
0.874605
0.921137
0.951736
1.01339
1.15835
1.57125
2.98602
8.42185
10.1034
7.51651
0.0976782
0.0815627
0.0838239
0.0905222
0.103007
0.129683
0.161614
0.195473
0.254626
0.373871
0.513067
0.602709
0.680786
0.754427
0.820437
0.874557
0.921196
0.951197
1.01049
1.1485
1.53326
2.82492
7.78769
9.80361
7.26194
0.097678
0.0815627
0.0838245
0.0905246
0.103009
0.129681
0.161612
0.195473
0.254624
0.373872
0.513065
0.602706
0.680789
0.754415
0.820449
0.874547
0.921055
0.951237
1.0064
1.1337
1.47978
2.61281
6.95671
9.51496
7.03125
0.0976781
0.0815619
0.083823
0.0905211
0.103005
0.129678
0.161608
0.195469
0.254619
0.37387
0.513068
0.602708
0.680802
0.754411
0.820458
0.874589
0.920721
0.951525
1.00124
1.11421
1.41188
2.35625
5.90019
9.23681
6.83472
0.0976783
0.0815624
0.0838236
0.0905222
0.103004
0.129675
0.161608
0.19547
0.254618
0.373878
0.513073
0.602705
0.68081
0.754397
0.820449
0.874659
0.920238
0.95179
0.995129
1.09169
1.33664
2.07555
4.62968
8.91908
6.64526
0.0976782
0.0815627
0.083824
0.0905222
0.103007
0.129684
0.161616
0.195477
0.254631
0.373877
0.513075
0.6027
0.680818
0.754379
0.820419
0.874758
0.919617
0.95193
0.988405
1.06774
1.26083
1.81539
3.57874
8.06084
6.48897
0.0976782
0.0815631
0.0838245
0.090523
0.103008
0.129687
0.161622
0.195484
0.254642
0.373887
0.513081
0.602691
0.680829
0.754362
0.820369
0.874893
0.918887
0.951921
0.981531
1.04421
1.18922
1.58356
2.80322
6.50802
6.14931
0.0976784
0.0815636
0.0838249
0.0905239
0.103007
0.12968
0.161616
0.195477
0.254625
0.373873
0.51307
0.602711
0.680781
0.754439
0.820407
0.87465
0.921058
0.95234
1.01608
1.16827
1.61299
3.18282
9.27254
10.7059
8.0428
0.0976784
0.0815638
0.0838251
0.0905242
0.103007
0.129681
0.161617
0.195479
0.254625
0.373874
0.513071
0.602712
0.680781
0.754439
0.820408
0.874646
0.921066
0.952275
1.01578
1.16711
1.6078
3.15646
9.14943
10.598
7.94894
0.0976784
0.0815637
0.0838251
0.090524
0.103007
0.12968
0.161617
0.195479
0.254625
0.373873
0.513071
0.602712
0.680782
0.754438
0.820412
0.874634
0.92109
0.952107
1.01499
1.16416
1.59503
3.09466
8.87507
10.3842
7.7617
0.0976784
0.0815637
0.0838251
0.0905242
0.103007
0.12968
0.161617
0.195479
0.254624
0.373874
0.51307
0.60271
0.680783
0.754434
0.820422
0.874607
0.921141
0.95174
1.01339
1.15835
1.57122
2.98596
8.42168
10.104
7.51626
0.0976784
0.0815637
0.083825
0.090524
0.103007
0.12968
0.161617
0.195479
0.254625
0.373873
0.513071
0.60271
0.680786
0.754427
0.820439
0.874562
0.921202
0.951203
1.0105
1.1485
1.53325
2.82488
7.78748
9.8038
7.26195
0.0976784
0.0815637
0.0838251
0.0905242
0.103007
0.12968
0.161617
0.195479
0.254624
0.373874
0.51307
0.602708
0.68079
0.754417
0.820453
0.874553
0.921062
0.951244
1.00641
1.1337
1.47978
2.61282
6.95671
9.51503
7.03129
0.0976784
0.0815637
0.0838251
0.090524
0.103007
0.12968
0.161617
0.195479
0.254625
0.373874
0.513073
0.602707
0.680796
0.754406
0.820456
0.87459
0.920725
0.95153
1.00124
1.11422
1.41189
2.35628
5.9003
9.2368
6.83467
0.0976784
0.0815638
0.0838252
0.0905242
0.103007
0.129681
0.161618
0.19548
0.254626
0.373875
0.513075
0.602704
0.680805
0.754393
0.820448
0.87466
0.920241
0.951795
0.995134
1.0917
1.33665
2.07557
4.62978
8.91908
6.6452
0.0976784
0.0815637
0.083825
0.090524
0.103007
0.129681
0.161619
0.195481
0.254629
0.37388
0.51308
0.602701
0.680818
0.75438
0.820422
0.874763
0.919624
0.951937
0.988412
1.06775
1.26084
1.8154
3.5788
8.06089
6.48891
0.0976784
0.0815637
0.083825
0.090524
0.103007
0.129682
0.161621
0.195484
0.254635
0.373887
0.513087
0.602697
0.680835
0.754369
0.820377
0.874902
0.918897
0.95193
0.981539
1.04422
1.18922
1.58357
2.80325
6.50809
6.14926
0.0976784
0.0815636
0.0838249
0.0905239
0.103007
0.12968
0.161616
0.195477
0.254624
0.373872
0.51307
0.602711
0.680781
0.75444
0.820407
0.874651
0.921059
0.95234
1.01608
1.16827
1.61299
3.18284
9.27262
10.706
8.04281
0.0976784
0.0815636
0.0838249
0.0905239
0.103007
0.12968
0.161617
0.195478
0.254624
0.373873
0.513071
0.602712
0.680782
0.754439
0.820408
0.874646
0.921067
0.952276
1.01578
1.16711
1.60781
3.15648
9.14949
10.598
7.94894
0.0976784
0.0815636
0.0838249
0.0905239
0.103007
0.12968
0.161617
0.195478
0.254624
0.373873
0.513071
0.602712
0.680782
0.754438
0.820412
0.874634
0.92109
0.952108
1.01499
1.16416
1.59504
3.09468
8.87511
10.3842
7.76168
0.0976784
0.0815636
0.0838249
0.0905239
0.103007
0.12968
0.161617
0.195478
0.254624
0.373873
0.513071
0.602712
0.680783
0.754434
0.820422
0.874607
0.921141
0.95174
1.01339
1.15835
1.57122
2.98597
8.42171
10.104
7.51622
0.0976784
0.0815636
0.0838249
0.0905239
0.103007
0.12968
0.161617
0.195478
0.254624
0.373873
0.513071
0.602711
0.680786
0.754427
0.820439
0.874562
0.921202
0.951203
1.0105
1.1485
1.53325
2.82489
7.7875
9.8038
7.26191
0.0976784
0.0815636
0.0838249
0.0905239
0.103007
0.12968
0.161617
0.195478
0.254624
0.373872
0.513072
0.602709
0.68079
0.754417
0.820453
0.874553
0.921062
0.951244
1.00641
1.1337
1.47979
2.61282
6.95672
9.51502
7.03124
0.0976784
0.0815636
0.0838249
0.0905239
0.103007
0.12968
0.161617
0.195478
0.254624
0.373872
0.513073
0.602707
0.680797
0.754406
0.820456
0.874591
0.920725
0.95153
1.00124
1.11422
1.41189
2.35629
5.90031
9.23677
6.83466
0.0976784
0.0815636
0.0838249
0.0905239
0.103007
0.12968
0.161617
0.195478
0.254624
0.373872
0.513074
0.602703
0.680805
0.754393
0.820448
0.874661
0.920242
0.951795
0.995136
1.0917
1.33665
2.07558
4.6298
8.91907
6.64518
0.0976784
0.0815636
0.0838249
0.0905239
0.103007
0.12968
0.161617
0.195478
0.254624
0.373873
0.513075
0.602698
0.680816
0.75438
0.820423
0.874764
0.919625
0.951938
0.988414
1.06775
1.26084
1.81541
3.57882
8.06091
6.48889
0.0976784
0.0815636
0.0838249
0.0905239
0.103007
0.12968
0.161617
0.195478
0.254624
0.373873
0.513077
0.60269
0.680831
0.754366
0.820376
0.874902
0.918897
0.951931
0.98154
1.04422
1.18923
1.58357
2.80327
6.50812
6.14925
0.0976784
0.0815637
0.083825
0.0905241
0.103007
0.129682
0.161621
0.195485
0.25464
0.373893
0.513086
0.602722
0.680788
0.754444
0.820409
0.874651
0.921058
0.952339
1.01608
1.16827
1.61299
3.18284
9.27262
10.706
8.04281
0.0976787
0.0815642
0.0838258
0.0905255
0.103011
0.12969
0.161634
0.195499
0.254657
0.37391
0.513095
0.602728
0.680793
0.754447
0.820413
0.874649
0.921067
0.952276
1.01578
1.16711
1.6078
3.15648
9.14949
10.598
7.94894
0.0976792
0.0815638
0.0838252
0.0905244
0.103009
0.129687
0.16163
0.195493
0.254653
0.373905
0.513088
0.602725
0.680793
0.754446
0.820418
0.874637
0.921092
0.952108
1.01499
1.16416
1.59504
3.09467
8.87511
10.3842
7.76168
0.097685
0.0815868
0.0838517
0.0905572
0.10306
0.129765
0.161688
0.195531
0.254655
0.373883
0.513062
0.602712
0.68079
0.754442
0.820429
0.874612
0.921144
0.951742
1.01339
1.15835
1.57122
2.98597
8.42171
10.104
7.51622
0.0976797
0.0815672
0.0838284
0.0905245
0.10301
0.129681
0.161609
0.195469
0.254628
0.373893
0.513081
0.602722
0.680796
0.754435
0.820444
0.874565
0.921203
0.951204
1.0105
1.1485
1.53325
2.82489
7.7875
9.8038
7.26191
0.0976838
0.0815571
0.0838163
0.0905183
0.102939
0.129516
0.161376
0.195235
0.254583
0.373763
0.513086
0.602726
0.680802
0.754424
0.820456
0.874554
0.921062
0.951243
1.00641
1.1337
1.47978
2.61282
6.95672
9.51502
7.03124
0.0976798
0.0815673
0.0838285
0.0905246
0.103011
0.129682
0.161612
0.195473
0.254635
0.3739
0.513089
0.602723
0.680811
0.754417
0.820463
0.874595
0.920727
0.95153
1.00124
1.11422
1.41189
2.35629
5.90031
9.23677
6.83466
0.0976855
0.0815878
0.0838531
0.0905596
0.103066
0.129779
0.161712
0.195557
0.254692
0.373921
0.513087
0.602719
0.680824
0.754411
0.820462
0.87467
0.920248
0.951798
0.995137
1.0917
1.33665
2.07558
4.6298
8.91906
6.64518
0.0976796
0.0815633
0.0838245
0.0905233
0.103007
0.129684
0.161629
0.195495
0.254668
0.373931
0.513109
0.602723
0.680837
0.754397
0.820435
0.874772
0.91963
0.95194
0.988415
1.06775
1.26084
1.81541
3.57882
8.06091
6.48889
0.0976855
0.0815878
0.0838531
0.0905595
0.103066
0.129778
0.161712
0.195557
0.254692
0.373922
0.51309
0.602706
0.680849
0.754384
0.82039
0.874912
0.918903
0.951933
0.981542
1.04422
1.18923
1.58357
2.80326
6.50812
6.14925
0.0976864
0.0815883
0.0838537
0.0905605
0.103069
0.129786
0.161726
0.195575
0.25473
0.373967
0.513112
0.602748
0.680816
0.754469
0.820429
0.874665
0.921066
0.952346
1.01608
1.16827
1.61299
3.18283
9.27261
10.706
8.04282
0.0976811
0.0815712
0.0838333
0.0905317
0.103023
0.129704
0.161639
0.195504
0.254683
0.373953
0.513116
0.602748
0.680812
0.754462
0.820424
0.874655
0.92107
0.952278
1.01578
1.16711
1.6078
3.15647
9.14948
10.598
7.94894
0.0976922
0.0815843
0.0838469
0.0905545
0.102995
0.129603
0.161457
0.195294
0.254618
0.373774
0.513076
0.602733
0.680805
0.754456
0.820425
0.874643
0.921094
0.95211
1.01499
1.16416
1.59504
3.09467
8.8751
10.3842
7.76168
0.0976795
0.081563
0.0838238
0.09052
0.103003
0.129671
0.1616
0.195466
0.254647
0.373923
0.513105
0.60274
0.680806
0.754451
0.820432
0.874613
0.921143
0.951741
1.01339
1.15835
1.57122
2.98597
8.4217
10.104
7.51623
0.0976922
0.0815842
0.0838468
0.0905543
0.102994
0.129602
0.161454
0.195289
0.254607
0.373759
0.513066
0.602725
0.680804
0.754442
0.82045
0.874569
0.921206
0.951205
1.0105
1.1485
1.53325
2.82489
7.78749
9.80379
7.26191
0.0976808
0.0815707
0.0838325
0.0905302
0.103019
0.129694
0.161619
0.19548
0.254645
0.373912
0.51309
0.602727
0.680807
0.754431
0.820462
0.874558
0.921064
0.951245
1.00641
1.1337
1.47978
2.61282
6.95671
9.51502
7.03124
0.0976855
0.0815877
0.083853
0.0905593
0.103065
0.129777
0.161709
0.195555
0.254693
0.373923
0.513088
0.602724
0.680816
0.754423
0.82047
0.874599
0.92073
0.951532
1.00124
1.11422
1.41189
2.35628
5.90031
9.23677
6.83466
0.0976792
0.081564
0.0838255
0.0905249
0.10301
0.129689
0.161635
0.1955
0.254665
0.37392
0.513101
0.602723
0.68082
0.754405
0.820455
0.874665
0.920243
0.951795
0.995135
1.0917
1.33665
2.07558
4.6298
8.91906
6.64518
0.0976787
0.0815643
0.0838259
0.0905257
0.103011
0.129691
0.161638
0.195505
0.254668
0.373924
0.51311
0.602721
0.680832
0.754389
0.820428
0.874766
0.919625
0.951937
0.988412
1.06775
1.26084
1.81541
3.57881
8.06091
6.48889
0.0976784
0.0815638
0.0838251
0.0905241
0.103008
0.129683
0.161624
0.19549
0.254647
0.373903
0.513099
0.602705
0.68084
0.754371
0.820378
0.874902
0.918896
0.951929
0.981538
1.04422
1.18922
1.58357
2.80326
6.50812
6.14925
0.0976793
0.0815637
0.0838253
0.090525
0.103011
0.129694
0.161644
0.195512
0.254693
0.373962
0.513117
0.602742
0.680804
0.754453
0.820411
0.874645
0.921046
0.952325
1.01606
1.16823
1.6129
3.1825
9.27184
10.7057
8.04327
0.0976847
0.0815859
0.0838507
0.0905554
0.103061
0.129771
0.161693
0.195538
0.254681
0.373916
0.513081
0.602728
0.6808
0.754452
0.820413
0.874642
0.921056
0.952261
1.01575
1.16707
1.60769
3.15611
9.14871
10.598
7.94906
0.0976795
0.0815668
0.0838282
0.0905253
0.103013
0.12969
0.161625
0.195496
0.254681
0.373966
0.51312
0.602746
0.680807
0.754451
0.820415
0.874627
0.921076
0.952091
1.01497
1.16413
1.59496
3.09437
8.87438
10.3839
7.76206
0.0976845
0.0815575
0.0838172
0.0905199
0.102947
0.129536
0.161406
0.195264
0.254648
0.373816
0.513117
0.602754
0.680817
0.754454
0.820428
0.874603
0.921129
0.951725
1.01337
1.15832
1.57115
2.9857
8.42107
10.1035
7.5167
0.0976867
0.0815906
0.0838554
0.0905585
0.103067
0.12978
0.161695
0.195538
0.254691
0.373941
0.513092
0.602735
0.68081
0.754444
0.820446
0.874559
0.921191
0.951189
1.01048
1.14847
1.53319
2.82466
7.78695
9.80332
7.26237
0.0976967
0.0816159
0.0838842
0.0905927
0.103125
0.129868
0.161772
0.195598
0.254732
0.37396
0.513081
0.602733
0.680824
0.754447
0.820472
0.874557
0.921056
0.951231
1.00639
1.13368
1.47973
2.61264
6.95626
9.51472
7.03157
0.0976869
0.0815639
0.0838235
0.0905254
0.102949
0.129529
0.16139
0.195249
0.254639
0.373841
0.513121
0.602749
0.680829
0.754426
0.820463
0.874587
0.920713
0.951513
1.00122
1.11419
1.41183
2.35609
5.89964
9.23674
6.83489
0.0976946
0.0815864
0.0838496
0.0905583
0.103004
0.12962
0.161483
0.195328
0.254701
0.373887
0.513134
0.602761
0.680859
0.754434
0.820472
0.874668
0.920237
0.951781
0.995117
1.09167
1.3366
2.07543
4.62924
8.91887
6.6455
0.0976879
0.0815938
0.0838586
0.090561
0.10307
0.129774
0.16168
0.195522
0.254688
0.373955
0.5131
0.602731
0.680854
0.754409
0.820441
0.87477
0.919619
0.951924
0.988396
1.06773
1.26081
1.81533
3.57855
8.06034
6.48915
0.0977015
0.0816124
0.0838798
0.090594
0.103061
0.129716
0.161558
0.195382
0.254714
0.37385
0.513099
0.602738
0.680888
0.754416
0.820408
0.874916
0.918896
0.951919
0.981525
1.0442
1.1892
1.58352
2.8031
6.50769
6.14938
0.0976885
0.0815948
0.0838602
0.0905642
0.103078
0.129796
0.161729
0.195585
0.254776
0.374041
0.513164
0.602745
0.6809
0.754404
0.820317
0.875081
0.918112
0.95163
0.97477
1.02064
1.12206
1.38496
2.17663
4.59507
5.06793
0.0976938
0.081587
0.0838504
0.0905605
0.103006
0.129629
0.1615
0.195351
0.254721
0.3739
0.513161
0.602744
0.680896
0.754426
0.820231
0.875181
0.917757
0.950437
0.972552
1.00095
1.06259
1.21159
1.62135
2.78755
4.00326
0.0976893
0.0815963
0.0838623
0.0905683
0.103085
0.129812
0.161761
0.195613
0.254805
0.374061
0.513178
0.602753
0.680897
0.754446
0.82021
0.87516
0.917779
0.949304
0.971618
0.988577
1.02309
1.10044
1.2969
1.83478
3.08367
0.0976955
0.0816195
0.0838888
0.0906002
0.103137
0.129894
0.161822
0.195659
0.254822
0.374058
0.51316
0.602747
0.6809
0.754446
0.82023
0.875108
0.917861
0.948839
0.970697
0.984828
1.00088
1.03498
1.11655
1.32486
1.8372
0.0976946
0.0815898
0.0838538
0.0905656
0.103015
0.129642
0.161511
0.195353
0.254729
0.373907
0.513165
0.602754
0.680901
0.754444
0.82022
0.875115
0.917804
0.948876
0.969961
0.984051
0.992907
1.00532
1.03281
1.09926
1.26458
0.0976964
0.0815927
0.0838563
0.0905638
0.103011
0.129628
0.161488
0.195336
0.254724
0.37392
0.513168
0.602759
0.680905
0.754447
0.820223
0.875113
0.917813
0.948822
0.969955
0.983518
0.991629
0.997107
1.00502
1.02251
1.06315
0.0977027
0.0816167
0.083884
0.0905974
0.10306
0.129697
0.161529
0.195353
0.254701
0.37387
0.513122
0.602736
0.680895
0.754443
0.820222
0.875114
0.917812
0.948824
0.969912
0.983493
0.991251
0.995734
0.998967
1.00312
1.01201
0.0977034
0.0816177
0.0838853
0.0905994
0.103065
0.129709
0.161546
0.19537
0.254726
0.37389
0.513137
0.602746
0.680902
0.754449
0.820226
0.875116
0.917814
0.948823
0.96991
0.983469
0.991195
0.995478
0.997923
0.999649
1.00151
0.0976973
0.0815951
0.0838593
0.0905682
0.103019
0.129643
0.161504
0.195351
0.254746
0.37394
0.513178
0.602767
0.680913
0.754454
0.820228
0.875117
0.917814
0.948822
0.969908
0.983467
0.991183
0.99543
0.997758
0.999024
0.999839
0.0977019
0.0816142
0.0838821
0.0905994
0.103068
0.129725
0.16158
0.195404
0.254758
0.373913
0.513154
0.602754
0.680907
0.754452
0.820228
0.875117
0.917814
0.948823
0.969908
0.983466
0.991181
0.995422
0.997729
0.998928
0.999548
0.0976997
0.0816242
0.0838934
0.090603
0.103142
0.1299
0.16182
0.195654
0.254827
0.374076
0.51317
0.602758
0.68091
0.754455
0.82023
0.875118
0.917814
0.948823
0.969908
0.983467
0.99118
0.99542
0.997725
0.998912
0.9995
0.0976952
0.0815907
0.0838547
0.0905657
0.103014
0.129639
0.161517
0.195371
0.254769
0.37396
0.513196
0.602774
0.680914
0.754453
0.820226
0.875114
0.917812
0.948821
0.969907
0.983465
0.99118
0.99542
0.997724
0.998909
0.999493
0.0976954
0.0815912
0.0838552
0.0905662
0.103015
0.129641
0.161517
0.195369
0.254767
0.373954
0.513194
0.602772
0.680913
0.754452
0.820225
0.875114
0.917811
0.948821
0.969907
0.983466
0.99118
0.99542
0.997724
0.998909
0.999492
0.0976997
0.081624
0.0838932
0.0906026
0.103141
0.129898
0.161817
0.195649
0.254817
0.374062
0.513161
0.602753
0.680906
0.754452
0.820228
0.875116
0.917813
0.948822
0.969908
0.983466
0.99118
0.99542
0.997724
0.998909
0.999492
0.0977012
0.0816127
0.0838801
0.0905966
0.103062
0.129712
0.161557
0.195383
0.254729
0.373889
0.513139
0.602743
0.680898
0.754444
0.820222
0.875112
0.917811
0.948821
0.969907
0.983466
0.99118
0.99542
0.997724
0.998909
0.999492
0.0976963
0.0815933
0.0838571
0.0905648
0.103013
0.129631
0.161492
0.19534
0.254732
0.373927
0.51318
0.602767
0.680909
0.754448
0.820222
0.875111
0.917809
0.94882
0.969906
0.983465
0.99118
0.99542
0.997724
0.998909
0.999492
0.0976963
0.0815935
0.0838574
0.0905652
0.103014
0.129633
0.161495
0.195343
0.254738
0.373932
0.513183
0.60277
0.680912
0.75445
0.820224
0.875113
0.917811
0.948821
0.969907
0.983466
0.99118
0.99542
0.997724
0.998909
0.999492
0.0977018
0.0816133
0.083881
0.0905981
0.103066
0.129723
0.161576
0.195406
0.254768
0.373928
0.513164
0.60276
0.68091
0.754453
0.820228
0.875117
0.917813
0.948822
0.969908
0.983466
0.99118
0.99542
0.997724
0.998909
0.999492
0.0977007
0.0816264
0.0838961
0.0906064
0.103147
0.129904
0.16183
0.19566
0.254836
0.37408
0.51317
0.602761
0.680914
0.754459
0.820234
0.875121
0.917816
0.948824
0.969909
0.983467
0.99118
0.99542
0.997724
0.998909
0.999492
0.0977022
0.0816141
0.0838821
0.0906
0.10307
0.129731
0.161591
0.19542
0.254787
0.373946
0.513173
0.602766
0.680915
0.754457
0.820231
0.875119
0.917815
0.948823
0.969908
0.983466
0.99118
0.99542
0.997724
0.998909
0.999492
0.0976966
0.0815938
0.0838575
0.0905652
0.103013
0.12963
0.161488
0.195336
0.254731
0.373931
0.513178
0.602767
0.680912
0.754451
0.820225
0.875114
0.917811
0.948821
0.969907
0.983465
0.99118
0.99542
0.997724
0.998909
0.999492
0.0977031
0.0816178
0.0838857
0.0906006
0.103068
0.129718
0.161564
0.195393
0.254756
0.373923
0.513162
0.602762
0.680911
0.754453
0.820227
0.875116
0.917813
0.948821
0.969907
0.983465
0.99118
0.99542
0.997724
0.998909
0.999492
0.0976966
0.0815937
0.0838574
0.090565
0.103012
0.12963
0.161488
0.195337
0.254732
0.373932
0.513179
0.602768
0.680912
0.754452
0.820225
0.875114
0.917811
0.94882
0.969907
0.983465
0.99118
0.99542
0.997724
0.998909
0.999492
0.0977023
0.0816144
0.0838825
0.0906005
0.103071
0.129733
0.161594
0.195424
0.254793
0.373953
0.513177
0.602768
0.680917
0.754458
0.820232
0.875119
0.917815
0.948823
0.969908
0.983466
0.99118
0.99542
0.997724
0.998909
0.999492
0.0977008
0.0816268
0.0838965
0.0906068
0.103148
0.129906
0.161833
0.195663
0.254842
0.374086
0.513175
0.602764
0.680917
0.754461
0.820236
0.875122
0.917817
0.948824
0.969909
0.983467
0.99118
0.99542
0.997724
0.998909
0.999492
0.0977021
0.0816142
0.0838822
0.0906004
0.10307
0.129732
0.161592
0.195424
0.254791
0.373953
0.513175
0.602766
0.680916
0.754459
0.820233
0.87512
0.917816
0.948823
0.969908
0.983466
0.991181
0.99542
0.997724
0.998909
0.999492
0.0976968
0.081594
0.0838578
0.0905653
0.103014
0.129632
0.161489
0.195336
0.254733
0.373929
0.513179
0.602768
0.680913
0.754452
0.820226
0.875115
0.917812
0.948821
0.969907
0.983466
0.99118
0.99542
0.997724
0.998909
0.999492
0.0977031
0.0816179
0.0838858
0.0906008
0.103068
0.129716
0.161561
0.195389
0.254747
0.373915
0.513153
0.602756
0.680908
0.754452
0.820228
0.875117
0.917814
0.948822
0.969908
0.983466
0.99118
0.99542
0.997724
0.998909
0.999492
0.0976966
0.0815933
0.0838569
0.0905643
0.103011
0.129627
0.161484
0.195331
0.254722
0.373919
0.513169
0.602761
0.680908
0.754449
0.820224
0.875113
0.917811
0.948821
0.969907
0.983466
0.99118
0.99542
0.997724
0.998909
0.999492
0.0977018
0.0816139
0.0838817
0.0905989
0.103067
0.129723
0.161576
0.1954
0.254753
0.373908
0.513152
0.602752
0.680905
0.75445
0.820226
0.875116
0.917813
0.948822
0.969908
0.983466
0.991181
0.99542
0.997724
0.998909
0.999492
0.0976997
0.081624
0.0838931
0.0906024
0.103142
0.129899
0.161815
0.195646
0.254814
0.374057
0.51316
0.602753
0.680906
0.754452
0.820229
0.875118
0.917815
0.948823
0.969909
0.983467
0.991181
0.99542
0.997724
0.998909
0.999492
0.0976952
0.0815904
0.0838544
0.0905651
0.103014
0.129638
0.161514
0.195365
0.25476
0.373944
0.513189
0.602768
0.680909
0.754448
0.820222
0.875112
0.91781
0.94882
0.969907
0.983466
0.99118
0.99542
0.997724
0.998909
0.999492
0.0976948
0.08159
0.0838537
0.0905636