/*--------------------------------*- C++ -*----------------------------------*\
| =========                 |                                                 |
| \\      /  F ield         | OpenFOAM: The Open Source CFD Toolbox           |
|  \\    /   O peration     | Version:  4.1                                   |
|   \\  /    A nd           | Web:      www.OpenFOAM.org                      |
|    \\/     M anipulation  |                                                 |
\*---------------------------------------------------------------------------*/
FoamFile
{
    version     2.0;
    format      ascii;
    class       surfaceScalarField;
    location    "0.12";
    object      phi;
}
// * * * * * * * * * * * * * * * * * * * * * * * * * * * * * * * * * * * * * //

dimensions      [1 0 -1 0 0 0 0];

internalField   nonuniform List<scalar> 
150500
(
0.00200993
1.09615e-09
-3.58374e-11
0.00204768
3.40796e-09
-1.06267e-10
0.00213643
6.83003e-09
-1.2363e-10
0.00215495
6.84781e-09
-1.57043e-10
0.00216116
-2.50016e-09
-2.61312e-10
0.00242935
-2.42246e-08
-4.44093e-10
0.00282615
-5.95399e-08
-4.5003e-10
0.00340675
-9.91322e-08
-3.77006e-10
0.00449939
-1.46976e-07
-3.49406e-10
0.00538301
-1.59374e-07
-2.44006e-10
0.00582436
-1.29908e-07
-8.73026e-11
0.00646343
-9.71309e-08
-9.93866e-11
0.00725028
-7.17803e-08
-1.18376e-10
0.00806801
-5.06084e-08
-1.22563e-10
0.00883189
-3.52148e-08
-1.13905e-10
0.00950231
-1.57919e-08
-1.03843e-10
0.0100175
-1.97862e-08
-8.52047e-11
0.0104621
7.44833e-08
-9.31782e-11
0.0106728
4.57239e-07
-1.19679e-10
0.0104583
1.92674e-06
-2.05766e-10
0.00939942
9.24519e-06
-5.5523e-10
0.0055477
5.65412e-05
-1.92511e-09
-0.00472528
0.000437807
-4.86393e-09
-0.00280312
0.000642532
1.26571e-09
0.000520974
4.44325e-10
0.00200993
3.76871e-09
-1.18346e-11
0.00204768
-5.19474e-09
-2.98522e-11
0.00213645
-1.4825e-08
-3.12827e-11
0.002155
-3.34195e-08
-2.49634e-11
0.00216124
-6.94231e-08
-4.65281e-11
0.0024295
-1.32566e-07
-4.88121e-11
0.00282636
-2.12571e-07
-1.43078e-12
0.00340703
-2.80016e-07
8.34056e-12
0.00449987
-3.43347e-07
-3.94836e-11
0.00538322
-3.14048e-07
-8.14912e-11
0.00582449
-2.31224e-07
-3.95881e-11
0.00646351
-1.69258e-07
-5.98486e-11
0.00725033
-1.3006e-07
-7.04306e-11
0.00806804
-9.57679e-08
-7.39791e-11
0.00883191
-7.3027e-08
-7.25075e-11
0.00950234
-2.90948e-08
-7.11415e-11
0.0100174
-5.07589e-08
-6.47681e-11
0.0104624
2.06988e-07
-7.32996e-11
0.0106754
1.24754e-06
-1.02245e-10
0.0104658
5.09947e-06
-1.80145e-10
0.00942193
2.36988e-05
-4.97931e-10
0.005638
0.00013882
-1.75583e-09
-0.00454627
0.00104765
-4.46607e-09
-0.00276346
0.00144496
5.12737e-10
0.00117527
7.0759e-10
0.00200991
8.67552e-09
-5.72457e-11
0.00204765
-2.21482e-08
-8.77739e-11
0.00213642
-5.28284e-08
-8.9602e-11
0.00215513
-1.00825e-07
-1.17166e-10
0.00216138
-1.80549e-07
9.01191e-11
0.00242954
-3.2653e-07
4.11511e-10
0.00282628
-4.519e-07
8.14001e-10
0.00340697
-5.3091e-07
9.38003e-10
0.00450025
-4.82927e-07
3.27628e-10
0.00538337
-4.22944e-07
7.43236e-10
0.00582474
-2.87135e-07
1.61964e-10
0.0064638
-2.01262e-07
3.90428e-11
0.0072506
-1.51905e-07
1.68588e-12
0.00806826
-1.08318e-07
-1.61876e-11
0.00883204
-9.03328e-08
-3.06709e-11
0.00950252
-1.65044e-08
-4.28163e-11
0.0100172
-8.73167e-08
-4.94378e-11
0.0104632
4.95512e-07
-5.55433e-11
0.0106816
2.71651e-06
-7.45372e-11
0.0104837
1.07822e-05
-1.248e-10
0.00947503
4.75757e-05
-3.32051e-10
0.00584541
0.000262305
-1.36458e-09
-0.00414894
0.00191911
-3.70731e-09
-0.00267828
0.00255201
-1.67687e-09
0.00204755
2.01424e-09
0.00200998
-3.55656e-08
2.58181e-11
0.002048
-1.0622e-07
1.07374e-10
0.0021371
-2.27141e-07
1.26616e-10
0.00215621
-3.63588e-07
1.71246e-10
0.00216297
-4.22997e-07
2.66659e-10
0.00243104
-4.47208e-07
4.54152e-10
0.00282773
-3.77775e-07
4.60727e-10
0.00340812
-2.63479e-07
3.7894e-10
0.00450017
-2.16926e-07
2.19139e-10
0.00538337
-1.66132e-07
6.00886e-11
0.0058247
-1.38575e-07
-5.79413e-11
0.00646377
-1.36197e-07
-3.04181e-11
0.00725058
-1.26916e-07
-2.86898e-12
0.00806827
-9.15537e-08
5.63082e-12
0.00883201
-9.54022e-08
-2.93339e-12
0.00950269
1.81141e-08
-1.80411e-11
0.0100167
-8.98491e-08
-3.17036e-11
0.0104645
8.74817e-07
-3.87357e-11
0.0106933
5.13438e-06
-5.40873e-11
0.0105168
1.9697e-05
-9.85765e-11
0.00956808
8.26051e-05
-2.50353e-10
0.00620377
0.000424445
-1.09929e-09
-0.00349364
0.00302916
-2.83637e-09
-0.00255376
0.00393882
-2.50177e-09
0.00308414
2.14195e-09
0.00200996
-1.20221e-07
-2.27633e-11
0.00204825
-2.04664e-07
3.08854e-11
0.00213755
-4.43333e-07
4.04789e-11
0.00215732
-6.64832e-07
1.65686e-11
0.00216406
-6.25632e-07
3.17691e-10
0.0024316
-5.05567e-07
7.55269e-10
0.00282821
-2.75056e-07
1.02801e-09
0.00340877
-6.68007e-09
1.09023e-09
0.00450112
4.30261e-08
4.13725e-10
0.00538393
2.44285e-07
8.23554e-10
0.00582523
5.36297e-08
1.40773e-10
0.00646422
-2.79343e-08
7.3118e-11
0.00725093
-6.29624e-08
6.2234e-11
0.00806855
-4.53255e-08
4.81812e-11
0.00883213
-7.4557e-08
2.43855e-11
0.00950299
2.08226e-08
-8.94048e-14
0.0100165
1.15117e-07
-2.42632e-11
0.010464
5.41862e-07
-3.35445e-11
0.0107105
8.1367e-06
-4.75073e-11
0.0105674
3.16836e-05
-8.49629e-11
0.00970455
0.000125911
-2.0124e-10
0.0067182
0.00059938
-8.84839e-10
-0.00255713
0.00421366
-2.19994e-09
-0.00236893
0.00555193
-2.42643e-09
0.00427924
1.97985e-09
0.00200988
-1.87985e-10
2.44132e-11
0.00204704
-4.37452e-08
-3.28592e-11
0.00213558
-8.47373e-08
-4.1214e-11
0.00215156
-1.40295e-07
-2.11119e-11
0.00215562
-2.18543e-07
-2.86476e-10
0.00242214
-3.46663e-07
-6.67021e-10
0.00281731
-4.63932e-07
-8.99446e-10
0.00339937
-5.37507e-07
-9.13292e-10
0.0045012
-4.99889e-07
2.16182e-12
0.00538343
-4.08103e-07
-2.90213e-10
0.00582525
-2.61773e-07
1.5712e-10
0.00646432
-1.7196e-07
1.38131e-10
0.00725101
-1.34461e-07
1.05428e-10
0.00806864
-7.07699e-08
6.50749e-11
0.0088322
-8.79773e-08
3.2996e-11
0.00950271
-5.14562e-09
3.50322e-13
0.0100184
3.86875e-07
-2.28583e-11
0.0104576
4.68483e-07
-4.14042e-11
0.0107187
1.10535e-05
-5.447e-11
0.0106258
4.47983e-05
-8.76188e-11
0.00988081
0.000170074
-1.75754e-10
0.00737897
0.000754736
-6.85522e-10
-0.00133152
0.00516779
-1.68126e-09
-0.0020929
0.00744031
-1.44967e-09
0.00578162
1.44126e-09
0.00200993
6.70152e-08
3.43361e-11
0.00204743
7.65072e-08
-4.54831e-12
0.00213638
1.67143e-07
-1.48021e-11
0.00215285
2.41165e-07
-7.6461e-12
0.00215738
1.60547e-07
-2.84052e-10
0.00242354
4.92121e-09
-7.42075e-10
0.00281857
-3.33063e-07
-1.09538e-09
0.0034004
-6.42866e-07
-1.11093e-09
0.00450134
-5.71838e-07
-1.87779e-10
0.00538357
-6.73762e-07
-4.01537e-10
0.0058254
-3.53088e-07
4.38179e-11
0.00646449
-1.93303e-07
8.31082e-11
0.00725113
-1.31924e-07
8.1709e-11
0.00806877
-4.473e-08
5.77132e-11
0.00883234
-6.39919e-08
2.74046e-11
0.00950218
1.04096e-08
1.2053e-12
0.0100211
6.89159e-07
-2.23824e-11
0.0104498
8.92314e-07
-4.00637e-11
0.0107295
1.41357e-05
-5.77828e-11
0.0106951
5.58285e-05
-1.00436e-10
0.0100987
0.000201126
-2.24596e-10
0.00816128
0.000831925
-7.37858e-10
0.000350274
0.00527027
-2.71206e-09
-0.00159769
0.00993013
-7.27492e-11
0.00794053
1.04262e-09
0.00200999
-6.40211e-08
8.16873e-11
0.00204863
-8.8931e-08
2.39845e-10
0.00213833
-1.95701e-07
2.68379e-10
0.0021588
-2.94232e-07
3.02538e-10
0.00216612
-2.42923e-07
5.0384e-10
0.00243366
-1.53153e-07
7.78614e-10
0.00283027
5.47672e-09
6.01992e-10
0.0034106
2.6025e-07
4.1735e-10
0.00450184
2.1388e-07
2.72072e-10
0.00538422
3.31419e-07
1.73195e-10
0.00582539
1.27194e-07
-7.38245e-11
0.0064644
5.5493e-08
3.80521e-11
0.00725101
3.16044e-09
9.97416e-11
0.00806871
4.91431e-08
1.01951e-10
0.00883235
3.9702e-09
7.75123e-11
0.00950125
4.91532e-08
3.80307e-11
0.0100244
1.08315e-06
2.34907e-12
0.0104413
1.55786e-06
-2.61107e-11
0.0107393
1.69536e-05
-4.25021e-11
0.0107682
6.4271e-05
-7.9397e-11
0.0103379
0.000219492
-1.72619e-10
0.00906198
0.000830665
-5.7035e-10
0.00379412
0.00440114
-2.31059e-09
-0.000481002
0.0132546
-7.72366e-10
0.0109771
1.47084e-09
0.00200994
-3.12358e-09
6.78047e-11
0.00204745
1.0817e-08
1.07226e-10
0.00213643
2.54495e-08
1.14153e-10
0.00215294
4.6281e-08
1.54224e-10
0.00215746
7.30854e-08
-2.23471e-11
0.00242373
1.15774e-07
-3.04925e-10
0.00281873
1.53649e-07
-7.20266e-10
0.00340059
1.70162e-07
-8.31397e-10
0.00450169
1.36646e-07
5.62456e-12
0.00538369
8.40989e-08
-3.34352e-10
0.00582546
3.13017e-08
2.78604e-12
0.00646456
2.75203e-08
8.04112e-11
0.0072511
-1.71332e-10
1.04945e-10
0.00806883
6.59281e-08
9.1315e-11
0.00883256
4.85393e-08
5.98477e-11
0.00950009
7.07413e-08
2.58723e-11
0.0100284
1.48499e-06
-6.83518e-12
0.0104335
2.23806e-06
-3.2793e-11
0.0107488
1.91528e-05
-4.5806e-11
0.0108392
7.00743e-05
-7.14315e-11
0.010554
0.000226907
-1.19752e-10
0.00971632
0.000792038
-3.13161e-10
0.00661104
0.00357426
-1.09542e-09
0.00115161
0.0146674
-2.33663e-09
0.015565
1.16858e-09
0.00200993
6.69504e-11
6.51518e-08
0.00204744
1.00458e-10
1.2181e-07
0.00213641
1.08198e-10
2.52845e-07
0.00215296
1.50424e-10
3.58775e-07
0.00215744
-1.03089e-11
3.28919e-07
0.00242384
-2.51862e-10
2.63202e-07
0.00281893
-5.95114e-10
1.32096e-07
0.00340085
-6.94052e-10
-5.02331e-08
0.00450216
1.91332e-10
-1.2208e-07
0.00538404
-1.41407e-10
-3.16051e-07
0.00582564
1.57877e-10
-1.51349e-07
0.00646466
1.79422e-10
-3.62229e-08
0.00725111
1.69031e-10
-2.88931e-08
0.0080688
1.26546e-10
5.29567e-08
0.00883288
8.10681e-11
9.97669e-08
0.00949859
3.55449e-11
3.9445e-08
0.0100323
-2.91725e-12
1.8285e-06
0.0104272
-3.19499e-11
2.9227e-06
0.0107556
-4.22052e-11
2.07027e-05
0.010896
-5.91286e-11
7.51741e-05
0.0107454
-9.65153e-11
0.000231562
0.0101077
-1.88735e-10
0.000746308
0.00810439
-6.89773e-10
0.00299688
0.00362216
-1.76391e-09
0.0139125
6.05557e-10
0.0223712
0.00200996
-3.50934e-08
4.02288e-11
0.00204797
-8.03497e-08
1.21574e-10
0.00213708
-1.82978e-07
1.41529e-10
0.00215622
-2.82162e-07
1.80602e-10
0.00216294
-2.77428e-07
3.00993e-10
0.00243116
-1.96542e-07
5.09131e-10
0.00282793
-4.88221e-08
5.208e-10
0.00340845
1.38588e-07
4.52673e-10
0.00450079
2.43355e-07
4.62863e-10
0.00538361
2.44205e-07
3.83078e-10
0.00582482
1.5164e-07
1.40552e-10
0.00646382
6.58447e-08
1.31734e-10
0.00725061
1.95015e-08
1.39117e-10
0.00806828
-6.71538e-10
1.24091e-10
0.0088321
-9.06735e-09
9.42798e-11
0.00950246
-3.4942e-09
6.1452e-11
0.0100176
-1.64994e-08
3.35477e-11
0.0104622
7.66549e-08
2.70586e-11
0.0106728
4.61486e-07
1.78502e-11
0.0104582
1.94167e-06
5.54409e-12
0.00939912
9.29752e-06
-6.42294e-12
0.00554662
5.67583e-05
-2.57622e-11
-0.00472684
0.000439464
-5.44315e-11
-0.00280301
0.000642016
-9.16253e-12
0.00052043
2.26507e-12
0.00200993
-6.70012e-08
1.19761e-11
0.00204788
-1.45575e-07
3.51558e-11
0.00213682
-2.84014e-07
3.72945e-11
0.00215577
-4.10141e-07
3.21178e-11
0.00216213
-3.63751e-07
6.22683e-11
0.0024301
-2.68196e-07
6.97806e-11
0.00282697
-1.06609e-07
1.64783e-11
0.00340781
1.05116e-07
2.2031e-11
0.00450074
1.67271e-07
1.46813e-10
0.00538359
3.69406e-07
2.27991e-10
0.00582478
1.813e-07
1.15479e-10
0.00646375
6.58556e-08
1.07347e-10
0.00725053
9.989e-09
9.62701e-11
0.00806819
-1.25575e-08
7.49389e-11
0.00883202
-2.71089e-08
4.98636e-11
0.00950243
-5.18042e-09
2.75167e-11
0.0100175
-4.37663e-08
1.21195e-11
0.0104625
2.11059e-07
8.3276e-12
0.0106753
1.2577e-06
4.05405e-12
0.0104657
5.13238e-06
-3.31971e-12
0.00942164
2.38224e-05
-8.6092e-12
0.0056369
0.000139273
-2.23987e-11
-0.0045485
0.00105095
-4.86134e-11
-0.00276341
0.00144357
-6.16441e-12
0.00117454
4.41407e-12
0.00200994
3.04755e-09
6.66456e-11
0.00204741
9.99209e-09
1.01882e-10
0.00213629
1.4421e-08
1.08585e-10
0.00215271
2.50945e-08
1.46541e-10
0.00215711
1.10924e-08
-6.58861e-11
0.00242342
4.40879e-09
-4.00437e-10
0.00281838
-2.11941e-09
-8.36816e-10
0.00339993
9.09333e-09
-9.6363e-10
0.00450033
7.86832e-08
-1.63756e-10
0.00538339
3.021e-08
-6.37255e-10
0.00582519
4.27497e-08
-5.26798e-11
0.00646418
2.86708e-08
4.0115e-11
0.00725087
1.68551e-08
6.30312e-11
0.00806846
1.34968e-08
5.27828e-11
0.0088322
-9.25562e-09
3.68341e-11
0.00950265
3.44725e-08
2.18874e-11
0.0100173
-6.13422e-08
9.62218e-12
0.0104633
5.08376e-07
6.1829e-12
0.0106817
2.72656e-06
3.23332e-12
0.0104837
1.07989e-05
-6.28094e-12
0.0094749
4.76369e-05
-7.9732e-12
0.00584505
0.000262573
-1.96399e-11
-0.00414859
0.00192082
-4.18601e-11
-0.00267789
0.00255196
-4.29119e-12
0.00204708
7.73553e-12
0.0020099
-2.76028e-09
-2.36081e-11
0.00204774
-9.02156e-09
-1.00512e-10
0.00213656
-1.29429e-08
-1.17737e-10
0.00215532
-2.22219e-08
-1.56431e-10
0.00216154
-6.85899e-09
-2.3817e-10
0.00242947
9.77505e-09
-3.91758e-10
0.00282629
3.39392e-08
-3.72666e-10
0.00340714
4.63411e-08
-2.76752e-10
0.00450026
-5.52968e-10
-3.25549e-11
0.00538342
7.00952e-08
2.13099e-10
0.00582465
2.9068e-08
2.22779e-10
0.00646365
1.7335e-08
1.44228e-10
0.00725044
3.8949e-09
8.37676e-11
0.00806814
9.55463e-09
3.43251e-11
0.00883192
-2.67528e-08
1.37002e-11
0.00950264
5.89858e-08
2.34035e-12
0.0100167
-6.66686e-08
-3.5612e-12
0.0104645
8.82143e-07
-5.52409e-12
0.0106934
5.13592e-06
-6.78594e-12
0.0105168
1.96998e-05
-8.22146e-12
0.00956797
8.26249e-05
-9.79807e-12
0.00620338
0.000424587
-1.58398e-11
-0.00349389
0.00302978
-3.86518e-11
-0.00255349
0.00393924
-3.72486e-12
0.00308414
9.15103e-12
0.00200994
6.85502e-08
6.75078e-11
0.0020474
1.47237e-07
9.25042e-11
0.00213629
2.86085e-07
1.02051e-10
0.00215271
4.14218e-07
1.46771e-10
0.00215712
3.73605e-07
-6.6978e-11
0.0024234
2.92237e-07
-3.29514e-10
0.00281835
1.50672e-07
-7.12841e-10
0.00339985
-1.80522e-09
-8.47137e-10
0.00450011
-2.3855e-08
-1.02638e-10
0.00538329
-2.04567e-07
-6.49014e-10
0.00582512
-6.773e-08
-6.49206e-11
0.00646413
7.4357e-09
1.21179e-11
0.00725083
2.98171e-08
2.52285e-11
0.00806847
5.4745e-08
3.30745e-11
0.00883208
6.59247e-09
3.15987e-11
0.00950298
8.08091e-08
2.24696e-11
0.0100165
1.49206e-07
1.11389e-11
0.010464
5.55329e-07
7.22455e-12
0.0107106
8.13945e-06
4.58861e-12
0.0105674
3.16785e-05
-1.81637e-12
0.00970447
0.000125904
-5.99597e-12
0.00671781
0.000599439
-1.41576e-11
-0.00255741
0.00421347
-3.47214e-11
-0.00236859
0.00555301
-3.95237e-12
0.00427929
9.11134e-12
0.00200993
3.36048e-08
-1.29076e-11
0.00204789
8.7622e-08
6.69155e-11
0.00213682
2.01338e-07
7.82409e-11
0.00215575
3.17653e-07
6.07192e-11
0.00216211
3.4004e-07
3.53896e-10
0.00242994
3.1655e-07
7.68467e-10
0.00282674
2.30961e-07
1.05379e-09
0.00340745
1.01923e-07
1.07273e-09
0.00450007
3.85905e-08
2.43903e-10
0.00538335
-2.38749e-08
7.2448e-10
0.0058246
1.52303e-08
3.71846e-11
0.00646362
4.82471e-08
2.13497e-12
0.0072504
4.81639e-08
1.85724e-11
0.00806816
7.32823e-08
2.64404e-11
0.00883186
1.98253e-08
2.7619e-11
0.00950248
6.30594e-08
2.14332e-11
0.0100182
4.27158e-07
8.34233e-12
0.0104575
4.89568e-07
6.7794e-12
0.0107187
1.10585e-05
6.03235e-12
0.0106258
4.47869e-05
4.46269e-12
0.0098808
0.000170022
4.4349e-15
0.00737873
0.000754641
-1.12205e-11
-0.0013318
0.00516647
-3.54208e-11
-0.00209256
0.00744226
-4.83444e-12
0.00578183
8.1034e-12
0.00200997
-5.1451e-09
2.33332e-11
0.002048
1.1461e-08
1.09926e-10
0.00213711
2.81071e-08
1.31541e-10
0.00215624
5.68068e-08
1.8354e-10
0.00216295
1.12796e-07
2.60538e-10
0.00243102
2.02562e-07
4.0946e-10
0.00282773
2.77325e-07
4.1198e-10
0.0034081
3.28365e-07
3.50707e-10
0.00450004
3.17067e-07
3.10189e-10
0.00538339
2.61741e-07
9.78899e-11
0.00582464
1.73756e-07
-9.89192e-13
0.00646368
1.3178e-07
3.62807e-12
0.00725044
8.65223e-08
2.09193e-11
0.00806823
1.02898e-07
2.18719e-11
0.00883195
3.27564e-08
3.14532e-11
0.00950191
7.15403e-08
2.39596e-11
0.0100209
7.22024e-07
1.24145e-11
0.0104497
9.09292e-07
7.24493e-12
0.0107294
1.41466e-05
5.644e-12
0.0106951
5.584e-05
3.05514e-12
0.0100985
0.000201153
-8.48969e-13
0.00816057
0.000832063
-8.8143e-12
0.00034842
0.00527118
-3.09634e-11
-0.00159815
0.00992985
-3.08901e-13
0.00794049
8.50595e-12
0.00200992
-2.52152e-09
-2.72006e-11
0.00204766
7.66123e-09
-1.00242e-10
0.00213642
1.88964e-08
-1.16063e-10
0.00215496
3.65568e-08
-1.45692e-10
0.00216117
6.38861e-08
-2.33158e-10
0.00242945
1.18722e-07
-3.72272e-10
0.00282628
1.83965e-07
-3.2456e-10
0.00340694
2.33361e-07
-2.43121e-10
0.00449974
2.53734e-07
-1.1493e-10
0.00538314
2.27386e-07
-5.93836e-12
0.0058244
1.54138e-07
6.71492e-11
0.00646348
1.08035e-07
1.57711e-11
0.00725025
5.67223e-08
-1.52547e-11
0.00806812
8.88503e-08
-2.47584e-11
0.00883192
3.4378e-08
-2.85531e-11
0.00950096
6.6855e-08
-2.30515e-11
0.0100242
1.09162e-06
-2.0488e-11
0.0104412
1.56117e-06
-9.76704e-12
0.0107393
1.69544e-05
-8.42257e-12
0.0107682
6.42767e-05
-7.29867e-12
0.0103379
0.000219518
-5.66029e-12
0.00906154
0.00083083
-6.34381e-12
0.00379294
0.00440186
-2.06352e-11
-0.000480981
0.0132565
-9.27279e-15
0.010976
1.00757e-11
0.00200993
9.3243e-10
-3.87383e-12
0.00204768
7.73424e-10
4.32525e-12
0.00213645
5.66423e-10
5.99095e-12
0.00215501
1.30132e-09
9.8657e-12
0.00216122
4.22422e-09
1.58806e-11
0.00242948
1.58114e-08
2.75188e-11
0.00282633
3.40438e-08
3.61815e-11
0.00340696
5.34476e-08
4.1307e-11
0.00449968
7.66852e-08
-2.64624e-12
0.00538321
7.79215e-08
-2.74386e-11
0.00582443
5.43904e-08
3.17519e-12
0.0064635
4.74035e-08
-6.75479e-12
0.0072502
1.76626e-09
-2.19253e-11
0.00806813
6.28213e-08
-3.06602e-11
0.00883204
3.60507e-08
-2.89433e-11
0.00949974
5.83548e-08
-2.5255e-11
0.0100282
1.47412e-06
-2.35268e-11
0.0104333
2.22906e-06
-1.01864e-11
0.0107488
1.91471e-05
-9.84861e-12
0.0108392
7.00728e-05
-8.92709e-12
0.0105541
0.000226916
-6.96804e-12
0.00971589
0.00079212
-5.69894e-12
0.0066114
0.00357448
-1.03339e-11
0.00115249
0.0146698
-8.46718e-12
0.0155637
1.10671e-11
0.00200993
-3.07752e-11
-9.04547e-10
0.00204769
-1.01369e-10
-5.74996e-10
0.00213645
-1.19004e-10
-1.90144e-10
0.00215498
-1.54054e-10
-4.94001e-10
0.00216118
-2.91363e-10
-2.82121e-09
0.00242936
-4.94159e-10
-1.20327e-08
0.00282617
-4.72181e-10
-2.59063e-08
0.00340675
-3.64801e-10
-3.96948e-08
0.00449935
-1.9159e-10
-5.4408e-08
0.00538309
-9.76939e-11
-5.28182e-08
0.00582433
3.66745e-11
-4.27963e-08
0.00646345
-4.94163e-12
-1.13623e-08
0.00725013
-3.85233e-11
-4.30024e-08
0.00806805
-5.18648e-11
2.29155e-08
0.00883235
-5.156e-11
6.80621e-08
0.00949823
-4.38303e-11
1.02912e-08
0.0100321
-3.55549e-11
1.80688e-06
0.0104271
-1.65277e-11
2.90882e-06
0.0107555
-1.26027e-11
2.06932e-05
0.010896
-1.10958e-11
7.51691e-05
0.0107455
-7.49056e-12
0.00023156
0.0101075
-3.8272e-12
0.000746321
0.00810471
-4.73954e-12
0.0029969
0.00362237
-9.91482e-12
0.0139142
1.00231e-11
0.0223694
0.00200993
-9.99861e-10
5.8583e-14
0.00204769
-7.9977e-10
4.64109e-13
0.00213645
-5.49684e-10
5.80675e-13
0.00215498
-1.59933e-09
8.45303e-13
0.00216118
-5.66284e-09
2.56356e-12
0.00242934
-2.07544e-08
8.35417e-12
0.00282612
-4.59031e-08
2.29326e-11
0.00340667
-7.15087e-08
3.51336e-11
0.00449923
-9.68673e-08
6.21622e-11
0.005383
-9.95874e-08
8.31478e-11
0.00582431
-7.2143e-08
5.81276e-11
0.00646335
-4.90206e-08
3.74024e-11
0.00725021
-3.44733e-08
2.43587e-11
0.00806796
-2.34048e-08
1.54493e-11
0.00883187
-1.72001e-08
6.16654e-12
0.00950231
-4.51247e-09
-2.37918e-13
0.0100175
-1.42181e-08
-3.7472e-12
0.0104622
7.78857e-08
-4.45516e-12
0.0106728
4.62115e-07
-5.3032e-12
0.0104582
1.94223e-06
-5.66664e-12
0.00939915
9.29995e-06
-5.2086e-12
0.00554663
5.67635e-05
-1.47848e-12
-0.00472683
0.000439472
6.625e-12
-0.00280301
0.000642016
-6.13512e-13
0.00052043
9.9949e-13
0.00200993
2.91553e-09
1.38117e-12
0.00204768
-7.05722e-09
2.54619e-12
0.00213645
-1.79197e-08
3.74342e-12
0.002155
-3.45425e-08
6.49729e-12
0.00216122
-5.96395e-08
1.33269e-11
0.00242945
-1.06623e-07
5.06e-11
0.00282628
-1.60091e-07
9.47741e-11
0.00340687
-1.96027e-07
1.14159e-10
0.0044995
-2.03498e-07
1.80738e-10
0.0053831
-1.75045e-07
1.94888e-10
0.00582438
-1.15339e-07
1.26067e-10
0.00646341
-7.65647e-08
7.98178e-11
0.00725026
-5.69959e-08
4.89224e-11
0.00806799
-4.11098e-08
2.78524e-11
0.00883189
-3.58011e-08
1.63393e-11
0.00950235
-6.42734e-09
1.00471e-11
0.0100174
-3.96531e-08
2.93447e-12
0.0104625
2.14347e-07
1.21315e-12
0.0106754
1.26072e-06
-9.85697e-13
0.0104657
5.13424e-06
-3.30436e-12
0.00942166
2.38256e-05
-4.47452e-12
0.0056369
0.000139278
-2.60557e-12
-0.0045485
0.00105095
5.99613e-12
-0.0027634
0.00144357
-6.58343e-13
0.00117454
1.97037e-13
0.00200992
6.1756e-09
3.4684e-12
0.00204766
-7.5959e-09
7.15158e-13
0.00213642
-2.19947e-08
1.06764e-12
0.00215496
-4.72271e-08
2.04367e-12
0.00216117
-9.60957e-08
8.90918e-12
0.00242941
-1.6688e-07
2.85158e-11
0.00282622
-2.1781e-07
5.58071e-11
0.00340684
-2.4593e-07
6.29881e-11
0.00449953
-2.02903e-07
1.60972e-10
0.00538304
-1.44406e-07
1.3666e-10
0.00582435
-9.44631e-08
8.4411e-11
0.00646341
-7.2988e-08
6.75962e-11
0.00725027
-6.27453e-08
5.66388e-11
0.00806801
-4.53698e-08
4.25911e-11
0.00883188
-4.82327e-08
2.64388e-11
0.00950243
1.14564e-08
1.10561e-11
0.0100172
-7.40472e-08
5.36045e-12
0.0104632
5.02908e-07
3.57326e-12
0.0106817
2.72466e-06
1.35701e-12
0.0104837
1.08006e-05
-1.48023e-12
0.00947492
4.76394e-05
-3.09422e-12
0.00584506
0.000262577
-2.44907e-12
-0.00414859
0.00192082
7.92136e-12
-0.00267789
0.00255196
-2.56526e-13
0.00204708
-4.69829e-13
0.00200998
-3.7225e-08
3.3385e-11
0.00204801
-7.72117e-08
1.1548e-10
0.00213711
-1.74664e-07
1.32667e-10
0.00215621
-2.6805e-07
1.64298e-10
0.00216291
-2.59401e-07
2.64259e-10
0.00243084
-1.84326e-07
4.10602e-10
0.00282748
-5.47248e-08
3.48602e-10
0.00340773
1.13676e-07
2.62625e-10
0.00449936
1.72165e-07
1.63726e-10
0.00538315
1.67094e-07
3.68832e-11
0.00582448
8.88512e-08
-4.00258e-11
0.00646352
2.51992e-08
1.0366e-12
0.00725036
-7.84052e-09
3.5405e-11
0.0080681
-4.49412e-09
4.44705e-11
0.0088319
-3.48219e-08
3.76397e-11
0.00950263
5.61427e-08
2.84946e-11
0.0100167
-6.85111e-08
1.42696e-11
0.0104645
8.8533e-07
1.1459e-11
0.0106934
5.14145e-06
7.32855e-12
0.0105168
1.97043e-05
1.01672e-12
0.00956797
8.26286e-05
-2.12683e-12
0.00620337
0.000424589
-2.98574e-12
-0.00349389
0.00302978
8.22175e-12
-0.00255349
0.00393924
5.92521e-13
0.00308414
-1.15867e-13
0.00200992
-6.5398e-08
5.81325e-12
0.00204787
-1.08806e-07
1.24441e-11
0.00213677
-2.23131e-07
1.38402e-11
0.00215565
-3.06466e-07
2.46367e-12
0.00216194
-2.51355e-07
1.50058e-11
0.00242979
-1.54887e-07
2.3632e-12
0.0028266
3.16612e-09
-3.28417e-11
0.00340725
2.54775e-07
-3.88805e-11
0.00449974
2.08362e-07
1.81694e-11
0.00538325
3.49608e-07
8.57405e-11
0.00582452
1.46224e-07
4.32253e-11
0.00646354
5.57122e-08
5.98303e-11
0.00725034
1.13107e-08
5.4555e-11
0.0080681
1.73855e-08
3.95657e-11
0.00883181
-2.73989e-08
2.01697e-11
0.00950279
5.36525e-08
1.03871e-11
0.0100164
1.35182e-07
3.89622e-12
0.0104639
5.48725e-07
1.02359e-12
0.0107105
8.13833e-06
-2.22092e-13
0.0105674
3.16821e-05
-3.07824e-12
0.00970449
0.000125907
-3.97467e-12
0.00671781
0.000599439
-2.5591e-12
-0.00255742
0.00421347
7.19507e-12
-0.00236858
0.00555301
2.31721e-12
0.00427929
1.27384e-12
0.00200989
6.49213e-08
2.9833e-11
0.00204695
1.081e-07
-2.73621e-11
0.00213536
2.22008e-07
-3.63174e-11
0.00215118
3.04245e-07
-2.83553e-11
0.00215515
2.46446e-07
-3.31568e-10
0.00242154
1.4073e-07
-7.97475e-10
0.00281657
-3.94973e-08
-1.18673e-09
0.00339838
-3.24831e-07
-1.2011e-09
0.00449965
-2.87995e-07
-1.59073e-10
0.00538297
-4.46438e-07
-5.55543e-10
0.0058248
-2.12761e-07
6.03584e-11
0.00646384
-9.18355e-08
8.95106e-11
0.00725057
-5.02877e-08
6.32009e-11
0.00806829
4.10483e-09
2.83627e-11
0.00883196
-2.76828e-08
1.21979e-11
0.00950256
3.66373e-08
5.04106e-12
0.0100183
4.14051e-07
1.00096e-12
0.0104575
4.82664e-07
-5.22179e-12
0.0107187
1.1056e-05
-6.141e-12
0.0106258
4.47858e-05
-7.6209e-12
0.00988081
0.000170024
-6.24158e-12
0.00737874
0.000754645
-1.58387e-12
-0.0013318
0.00516648
8.818e-12
-0.00209256
0.00744226
3.1415e-12
0.00578183
2.03395e-12
0.00200992
3.59679e-08
5.58463e-12
0.00204787
7.60465e-08
1.46066e-11
0.00213677
1.73264e-07
1.47992e-11
0.00215565
2.65059e-07
3.01977e-12
0.00216193
2.52215e-07
1.64368e-11
0.00242981
1.62087e-07
6.93623e-12
0.00282663
4.22998e-09
-2.06927e-11
0.00340731
-2.039e-07
-2.32171e-11
0.00449986
-3.01276e-07
4.3764e-11
0.0053833
-2.80378e-07
1.50657e-10
0.00582456
-1.78819e-07
8.8077e-11
0.00646358
-8.15206e-08
8.5956e-11
0.00725035
-4.77471e-08
7.34777e-11
0.00806815
1.59542e-08
5.60028e-11
0.00883188
-2.1185e-08
3.70402e-11
0.00950187
3.63547e-08
1.61974e-11
0.0100209
7.04128e-07
7.00436e-12
0.0104497
9.00848e-07
5.03898e-13
0.0107294
1.41417e-05
-8.85059e-13
0.0106951
5.58378e-05
-2.85649e-12
0.0100985
0.000201153
-3.2755e-12
0.00816057
0.000832067
-2.16018e-12
0.000348417
0.0052712
5.75087e-12
-0.00159815
0.00992985
-1.58362e-12
0.00794049
1.58188e-12
0.00200997
-4.30482e-09
3.62573e-11
0.002048
1.56911e-11
1.2082e-10
0.00213711
-2.16242e-09
1.40462e-10
0.00215624
-1.17679e-09
1.78518e-10
0.00216296
1.10236e-08
2.9393e-10
0.00243105
2.36675e-08
4.89036e-10
0.00282775
2.04867e-08
4.83712e-10
0.0034081
1.75979e-08
4.08143e-10
0.00449999
1.04781e-09
3.60371e-10
0.00538338
-1.05339e-08
2.58837e-10
0.00582462
-8.35456e-09
7.59952e-11
0.00646368
5.88258e-09
8.5422e-11
0.00725042
-1.03021e-08
9.71656e-11
0.00806826
4.55286e-08
8.64847e-11
0.00883203
4.21644e-09
6.86437e-11
0.00950104
4.91365e-08
4.6422e-11
0.0100243
1.08155e-06
2.76334e-11
0.0104413
1.55602e-06
1.00119e-11
0.0107393
1.69522e-05
6.10541e-12
0.0107682
6.42756e-05
2.92766e-12
0.0103379
0.000219518
-7.08201e-13
0.00906154
0.000830832
-3.20143e-12
0.00379292
0.00440187
1.81609e-12
-0.000480981
0.0132565
-3.73055e-12
0.010976
5.75477e-13
0.0020099
4.30087e-09
6.66316e-12
0.00204764
-2.83298e-11
-1.40318e-12
0.00213638
2.13956e-09
-1.77297e-12
0.0021549
1.1563e-09
-2.36343e-12
0.0021611
-1.0992e-08
2.11714e-12
0.00242937
-2.35439e-08
2.45063e-11
0.00282623
-2.02873e-08
6.95334e-11
0.00340697
-1.71899e-08
9.54361e-11
0.00449993
5.83189e-11
2.39705e-10
0.00538319
9.39666e-09
3.05163e-10
0.00582444
5.80563e-09
1.81031e-10
0.00646355
8.62637e-09
1.29606e-10
0.00725027
-2.92069e-08
1.07733e-10
0.0080682
3.41463e-08
8.63024e-11
0.00883211
1.98368e-08
6.17399e-11
0.00949979
4.38744e-08
4.06927e-11
0.0100282
1.46607e-06
2.11211e-11
0.0104334
2.22533e-06
6.05716e-12
0.0107488
1.91452e-05
4.83441e-12
0.0108392
7.00722e-05
1.62676e-12
0.0105541
0.000226916
-1.20452e-12
0.00971588
0.000792121
-3.54162e-12
0.00661139
0.00357448
-1.86999e-12
0.00115249
0.0146698
-1.22729e-12
0.0155637
-1.01794e-14
0.00200997
3.59242e-11
-3.59606e-08
0.002048
1.20375e-10
-7.60415e-08
0.00213711
1.39797e-10
-1.73261e-07
0.00215624
1.77441e-10
-2.65058e-07
0.00216296
2.90576e-10
-2.52193e-07
0.00243105
4.79315e-10
-1.62023e-07
0.00282775
4.71516e-10
-4.17518e-09
0.0034081
3.96849e-10
2.04182e-07
0.00449999
3.39241e-10
3.02152e-07
0.00538339
2.51703e-10
2.81374e-07
0.0058246
7.52175e-11
1.7255e-07
0.00646372
8.5092e-11
1.00725e-07
0.00725037
9.50475e-11
1.16297e-08
0.00806825
8.96256e-11
4.81669e-08
0.00883251
7.34562e-11
7.96514e-08
0.00949835
4.93641e-11
1.4916e-08
0.0100322
2.80199e-11
1.80858e-06
0.0104272
8.72247e-12
2.90853e-06
0.0107556
6.08685e-12
2.06932e-05
0.010896
3.11306e-12
7.51691e-05
0.0107454
-5.32923e-13
0.00023156
0.0101075
-3.75141e-12
0.000746321
0.00810471
-3.34339e-12
0.0029969
0.00362237
1.33992e-12
0.0139142
3.53677e-13
0.0223694
0.00200993
-8.86023e-12
2.19152e-12
0.00204769
-2.16933e-11
8.39641e-12
0.00213645
-7.32774e-11
9.18478e-12
0.00215498
-2.05945e-11
1.30325e-11
0.00216119
-6.27156e-11
5.26741e-12
0.0024293
-7.4344e-11
-2.50613e-12
0.00282605
-1.85006e-09
2.78037e-11
0.00340654
-2.95921e-09
3.25308e-11
0.00449894
-1.20576e-09
3.91673e-12
0.00538287
-1.92264e-09
1.62837e-11
0.00582421
-2.16362e-09
1.24858e-11
0.00646328
-1.28523e-09
1.23923e-12
0.00725016
-4.00459e-10
-1.81066e-12
0.00806793
1.21696e-09
8.0712e-12
0.00883186
-5.18152e-10
1.99295e-11
0.00950231
6.25212e-09
3.1529e-11
0.0100175
-8.13423e-09
3.68805e-11
0.0104622
8.17187e-08
3.76929e-11
0.0106728
4.64539e-07
4.16681e-11
0.0104582
1.94349e-06
4.74875e-11
0.00939916
9.30011e-06
6.94157e-11
0.00554664
5.67621e-05
1.15269e-10
-0.00472683
0.000439469
-4.0714e-10
-0.00280301
0.000642017
-5.22743e-10
0.000520431
-1.57339e-10
0.00200993
-4.16338e-12
1.4996e-12
0.00204769
-9.17645e-12
6.51363e-12
0.00213645
-2.30117e-11
7.26673e-12
0.00215498
-1.87125e-11
1.12778e-11
0.00216119
-3.55118e-11
2.44977e-12
0.00242931
-8.88621e-11
-6.16915e-12
0.00282607
-6.30568e-10
2.24926e-11
0.00340656
-9.96671e-10
2.14181e-11
0.00449892
-7.62392e-10
-1.66356e-12
0.00538288
-8.17424e-10
9.07536e-12
0.00582423
-8.5776e-10
1.25804e-11
0.00646328
-3.80326e-10
-1.06561e-12
0.00725016
-6.63374e-10
-6.91436e-12
0.00806793
1.80804e-09
-8.52288e-13
0.00883185
-4.33661e-09
1.22693e-11
0.00950233
1.51664e-08
2.51242e-11
0.0100174
-2.62926e-08
3.15655e-11
0.0104625
2.22468e-07
3.16168e-11
0.0106754
1.26593e-06
3.35636e-11
0.0104657
5.13746e-06
3.26903e-11
0.00942167
2.38272e-05
3.1102e-11
0.00563691
0.000139278
4.62586e-11
-0.00454849
0.00105095
-4.75079e-10
-0.0027634
0.00144357
4.36649e-10
0.00117454
-3.9203e-10
0.00200993
-9.15663e-12
-2.98224e-13
0.00204769
-7.84093e-12
5.54599e-12
0.00213645
-5.22606e-12
6.69082e-12
0.00215498
-6.22128e-12
9.19934e-12
0.00216119
-1.91809e-11
1.30638e-11
0.00242931
-4.75466e-11
2.6133e-11
0.00282607
-1.3164e-10
4.4549e-11
0.00340656
-2.15852e-10
4.13385e-11
0.00449892
-2.80618e-10
1.75291e-11
0.00538288
-2.83527e-10
-2.37814e-11
0.00582423
-3.71136e-10
-3.45072e-13
0.00646328
1.92738e-10
-8.05025e-12
0.00725016
-1.48192e-09
-1.55361e-11
0.00806793
3.99075e-09
-1.21135e-11
0.00883183
-1.14684e-08
-2.87902e-12
0.0095024
3.46441e-08
1.37803e-11
0.0100171
-5.80822e-08
2.45329e-11
0.0104632
5.12182e-07
2.08635e-11
0.0106817
2.73007e-06
1.05671e-11
0.0104837
1.08034e-05
-1.68705e-11
0.00947494
4.76404e-05
-1.22732e-10
0.00584507
0.000262576
-2.44313e-10
-0.00414858
0.00192082
-7.41723e-10
-0.00267789
0.00255196
2.97024e-09
0.00204708
-1.88047e-09
0.00200993
3.03587e-11
-5.35171e-13
0.00204769
6.70085e-11
3.65386e-12
0.00213645
1.00642e-10
4.40976e-12
0.00215498
1.27273e-10
6.0569e-12
0.00216119
1.39751e-10
8.21274e-12
0.00242931
2.22414e-10
1.62283e-11
0.00282607
2.84926e-10
3.10104e-11
0.00340656
2.83883e-10
3.31436e-11
0.00449892
2.50034e-10
1.5637e-11
0.00538288
1.30253e-10
-2.30538e-11
0.00582423
-3.0232e-10
3.7147e-12
0.00646329
7.66661e-10
-3.98332e-12
0.00725016