/*--------------------------------*- C++ -*----------------------------------*\
| =========                 |                                                 |
| \\      /  F ield         | OpenFOAM: The Open Source CFD Toolbox           |
|  \\    /   O peration     | Version:  4.1                                   |
|   \\  /    A nd           | Web:      www.OpenFOAM.org                      |
|    \\/     M anipulation  |                                                 |
\*---------------------------------------------------------------------------*/
FoamFile
{
    version     2.0;
    format      ascii;
    class       volScalarField;
    location    "0.12";
    object      T;
}
// * * * * * * * * * * * * * * * * * * * * * * * * * * * * * * * * * * * * * //

dimensions      [0 0 0 1 0 0 0];

internalField   nonuniform List<scalar> 
52500
(
0.366783
0.367882
0.37319
0.394585
0.480953
0.526779
0.519887
0.504099
0.519237
0.601611
0.768081
0.8683
0.924753
0.959263
0.981246
0.993457
1.00239
1.01159
1.024
1.08363
1.26798
1.8173
2.46923
2.55937
2.17029
0.366784
0.367884
0.373193
0.39459
0.480967
0.526797
0.519904
0.504111
0.519247
0.601616
0.768085
0.868304
0.924757
0.959266
0.981249
0.993457
1.00238
1.01157
1.02389
1.08311
1.26574
1.81099
2.45695
2.55277
2.16334
0.366787
0.367889
0.373193
0.394579
0.480988
0.526829
0.519941
0.504149
0.519278
0.601627
0.768075
0.868284
0.92474
0.959253
0.981243
0.993448
1.00238
1.01151
1.02359
1.08181
1.26026
1.7959
2.4287
2.53966
2.14876
0.366826
0.367929
0.373214
0.394593
0.480963
0.526794
0.519885
0.504082
0.519232
0.601633
0.768072
0.868289
0.92475
0.959258
0.981255
0.993444
1.00236
1.01137
1.023
1.07922
1.25001
1.76856
2.37957
2.52217
2.12974
0.366841
0.367941
0.373177
0.394489
0.480838
0.52674
0.519835
0.504031
0.51919
0.601615
0.768037
0.868256
0.924728
0.959236
0.981255
0.993425
1.00232
1.01112
1.02199
1.07483
1.23369
1.72588
2.30684
2.50381
2.1098
0.366805
0.367897
0.373308
0.394872
0.481307
0.527297
0.520518
0.5047
0.519639
0.601499
0.767998
0.868215
0.924707
0.959212
0.981245
0.993436
1.00219
1.01083
1.0207
1.06835
1.2109
1.66453
2.20649
2.48776
2.09086
0.366847
0.36794
0.373311
0.394846
0.481259
0.527258
0.520466
0.504646
0.5196
0.601496
0.767972
0.868192
0.9247
0.9592
0.981222
0.993513
1.00192
1.01051
1.01906
1.05988
1.18208
1.57994
2.07676
2.46695
2.08086
0.366901
0.368003
0.373204
0.394482
0.480809
0.526683
0.519748
0.503926
0.519117
0.601626
0.768032
0.868248
0.92475
0.959229
0.981196
0.993656
1.00158
1.00999
1.01717
1.05015
1.15018
1.47572
1.9117
2.446
2.05229
0.366851
0.367946
0.373319
0.394855
0.481277
0.527277
0.520484
0.504659
0.519612
0.601505
0.767979
0.868186
0.924716
0.959206
0.981095
0.993821
1.00117
1.00913
1.01508
1.03981
1.11843
1.36232
1.76866
2.36347
2.05217
0.366849
0.367943
0.373312
0.394846
0.481279
0.52729
0.5205
0.504668
0.519615
0.601499
0.767984
0.868184
0.924734
0.959215
0.98101
0.993978
1.00083
1.00794
1.0129
1.02973
1.08756
1.26179
1.60989
2.25035
2.01575
0.36683
0.367933
0.373216
0.394594
0.480974
0.526808
0.5199
0.504091
0.519238
0.601639
0.768081
0.8683
0.924759
0.959274
0.981258
0.99347
1.0024
1.01161
1.02402
1.08365
1.26804
1.81743
2.4694
2.55939
2.17037
0.366803
0.367903
0.373182
0.394541
0.480906
0.526747
0.519841
0.504039
0.519193
0.601612
0.768076
0.8683
0.924759
0.959273
0.981258
0.993468
1.0024
1.01158
1.02391
1.08314
1.2658
1.81111
2.45714
2.5528
2.16342
0.36684
0.36793
0.373309
0.394851
0.481275
0.527289
0.520504
0.504678
0.519609
0.601445
0.767946
0.868197
0.924693
0.95923
0.981235
0.993448
1.00238
1.01152
1.0236
1.08182
1.26031
1.79592
2.42892
2.53937
2.14911
0.366791
0.36789
0.373178
0.394545
0.480906
0.526745
0.519842
0.504041
0.519188
0.60159
0.768068
0.868297
0.924759
0.959268
0.981265
0.993455
1.00237
1.01138
1.02301
1.07924
1.25005
1.76856
2.3798
2.52186
2.1301
0.36684
0.36793
0.373309
0.39485
0.481273
0.527287
0.520502
0.504674
0.519605
0.601437
0.767941
0.868192
0.924695
0.95922
0.98125
0.993427
1.00232
1.01113
1.022
1.07484
1.23373
1.72586
2.30709
2.5035
2.11015
0.366802
0.3679
0.373179
0.394536
0.480894
0.526735
0.519827
0.504025
0.519177
0.601588
0.76806
0.868288
0.924763
0.959253
0.981276
0.993461
1.00221
1.01084
1.02071
1.06836
1.21094
1.66448
2.20675
2.48734
2.09125
0.366826
0.367929
0.37321
0.394586
0.480958
0.526796
0.519889
0.504082
0.519225
0.601612
0.768065
0.868285
0.924768
0.959248
0.981257
0.99354
1.00194
1.01053
1.01908
1.0599
1.18212
1.58
2.07693
2.46699
2.08104
0.366787
0.367887
0.373196
0.394591
0.480971
0.526798
0.519903
0.504106
0.51924
0.601607
0.768084
0.868295
0.924783
0.959252
0.981213
0.993671
1.00159
1.01
1.01718
1.05016
1.15021
1.47574
1.9119
2.44592
2.05235
0.366786
0.367885
0.373194
0.394589
0.480966
0.526799
0.519907
0.504113
0.519245
0.601606
0.768086
0.868292
0.924792
0.959258
0.981131
0.993849
1.00119
1.00915
1.0151
1.03983
1.11846
1.36231
1.76891
2.36315
2.05225
0.366784
0.367883
0.373191
0.394585
0.480957
0.52679
0.519897
0.504104
0.519236
0.601593
0.768081
0.868281
0.9248
0.959261
0.981042
0.994003
1.00086
1.00796
1.01291
1.02975
1.08758
1.2618
1.61003
2.25006
2.01584
0.366784
0.367883
0.373191
0.394585
0.480956
0.526789
0.519896
0.504103
0.519233
0.601589
0.768071
0.868301
0.92476
0.959273
0.981257
0.993469
1.0024
1.01161
1.02402
1.08365
1.26804
1.81743
2.4694
2.5594
2.17037
0.366786
0.367885
0.373194
0.394589
0.480965
0.526797
0.519904
0.504109
0.51924
0.601599
0.768077
0.868304
0.924761
0.959274
0.981258
0.993468
1.0024
1.01158
1.02391
1.08314
1.2658
1.81111
2.45714
2.5528
2.16342
0.366787
0.367887
0.373195
0.39459
0.480968
0.526794
0.519899
0.504101
0.519235
0.601598
0.768075
0.868302
0.924761
0.959272
0.981261
0.993465
1.00239
1.01153
1.02361
1.08183
1.26031
1.79592
2.42892
2.53937
2.14911
0.366824
0.367925
0.373206
0.39458
0.480944
0.526783
0.519874
0.504069
0.51921
0.601588
0.768047
0.868283
0.924751
0.959264
0.981263
0.993454
1.00237
1.01139
1.02301
1.07924
1.25005
1.76856
2.37981
2.52186
2.1301
0.366797
0.367894
0.373171
0.394526
0.48088
0.526725
0.519821
0.504022
0.519171
0.601575
0.768054
0.868288
0.924757
0.959259
0.981273
0.993442
1.00233
1.01113
1.022
1.07484
1.23373
1.72586
2.30709
2.5035
2.11015
0.366791
0.367879
0.373305
0.394884
0.481325
0.527323
0.520546
0.504727
0.519641
0.601437
0.76797
0.868211
0.924712
0.95922
0.981254
0.993447
1.0022
1.01084
1.02071
1.06836
1.21094
1.66448
2.20675
2.48734
2.09125
0.366797
0.367894
0.373171
0.394527
0.480882
0.526727
0.519824
0.504025
0.519175
0.60158
0.768059
0.868285
0.924769
0.959248
0.981256
0.993539
1.00194
1.01053
1.01908
1.0599
1.18212
1.58
2.07693
2.46699
2.08104
0.366826
0.367928
0.37321
0.394586
0.480959
0.526798
0.519891
0.504085
0.519226
0.60161
0.768064
0.868281
0.924775
0.959247
0.981211
0.99367
1.00159
1.01
1.01718
1.05016
1.15021
1.47574
1.9119
2.44592
2.05235
0.366788
0.367889
0.373198
0.394593
0.480973
0.526794
0.519896
0.504099
0.519236
0.601614
0.768091
0.868293
0.924793
0.959259
0.981133
0.99385
1.00119
1.00915
1.0151
1.03983
1.11846
1.36231
1.76891
2.36315
2.05225
0.366826
0.367928
0.37321
0.394586
0.480959
0.526798
0.519891
0.504084
0.519226
0.60161
0.768068
0.868268
0.924793
0.959258
0.981041
0.994003
1.00086
1.00796
1.01291
1.02975
1.08758
1.2618
1.61003
2.25006
2.01584
0.366784
0.367883
0.373191
0.394584
0.480954
0.526786
0.519892
0.504097
0.519227
0.601577
0.768062
0.868297
0.924757
0.959272
0.981256
0.99347
1.0024
1.01161
1.02402
1.08365
1.26804
1.81743
2.4694
2.5594
2.17037
0.366784
0.367883
0.373191
0.394584
0.480954
0.526786
0.519892
0.504097
0.519227
0.601577
0.768062
0.868296
0.924757
0.959272
0.981257
0.993468
1.0024
1.01158
1.02391
1.08314
1.2658
1.81111
2.45714
2.5528
2.16342
0.366784
0.367883
0.373191
0.394584
0.480954
0.526786
0.519892
0.504097
0.519227
0.601577
0.768062
0.868296
0.924758
0.95927
0.98126
0.993464
1.00239
1.01153
1.02361
1.08183
1.26031
1.79592
2.42892
2.53937
2.14911
0.366784
0.367883
0.373191
0.394584
0.480954
0.526786
0.519892
0.504097
0.519227
0.601577
0.768062
0.868296
0.924759
0.959267
0.981265
0.993455
1.00237
1.01139
1.02301
1.07924
1.25005
1.76856
2.3798
2.52186
2.1301
0.366784
0.367883
0.373191
0.394584
0.480954
0.526786
0.519892
0.504097
0.519227
0.601577
0.768062
0.868295
0.924761
0.959262
0.981275
0.993443
1.00233
1.01113
1.022
1.07484
1.23373
1.72586
2.30709
2.5035
2.11015
0.366784
0.367883
0.37319
0.394584
0.480954
0.526785
0.519891
0.504097
0.519226
0.601577
0.768063
0.868293
0.924766
0.959255
0.981277
0.993462
1.00221
1.01084
1.02072
1.06836
1.21094
1.66448
2.20675
2.48734
2.09125
0.366784
0.367883
0.373191
0.394584
0.480954
0.526786
0.519892
0.504097
0.519227
0.601577
0.768064
0.86829
0.924772
0.95925
0.981257
0.99354
1.00195
1.01053
1.01908
1.0599
1.18212
1.58
2.07693
2.46699
2.08104
0.366784
0.367883
0.373191
0.394584
0.480954
0.526786
0.519892
0.504097
0.519227
0.601577
0.768065
0.868286
0.924778
0.959249
0.981211
0.993671
1.00159
1.01
1.01719
1.05016
1.15021
1.47574
1.9119
2.44592
2.05235
0.366784
0.367883
0.373191
0.394584
0.480954
0.526786
0.519892
0.504097
0.519227
0.601577
0.768066
0.868281
0.924786
0.959255
0.98113
0.993849
1.00119
1.00915
1.0151
1.03983
1.11846
1.36231
1.76891
2.36315
2.05225
0.366784
0.367883
0.373191
0.394584
0.480954
0.526786
0.519892
0.504097
0.519227
0.601577
0.768068
0.868274
0.924796
0.959259
0.981041
0.994004
1.00086
1.00796
1.01291
1.02975
1.08758
1.2618
1.61003
2.25006
2.01584
0.366782
0.367882
0.373186
0.394568
0.480939
0.526807
0.519922
0.504131
0.519252
0.601578
0.768044
0.868271
0.924733
0.959253
0.981243
0.993459
1.00239
1.0116
1.02402
1.08365
1.26804
1.81742
2.46939
2.5594
2.17037
0.366783
0.367883
0.373186
0.394568
0.480939
0.526808
0.519922
0.504129
0.519252
0.60158
0.768046
0.868272
0.924734
0.959253
0.981244
0.993458
1.00239
1.01158
1.0239
1.08314
1.2658
1.81111
2.45711
2.5528
2.16342
0.366784
0.367883
0.37319
0.394584
0.480952
0.52677
0.519871
0.504078
0.519215
0.601588
0.768067
0.868295
0.924754
0.959266
0.981256
0.99346
1.00239
1.01152
1.02361
1.08183
1.26031
1.79602
2.42885
2.53971
2.14882
0.366784
0.367883
0.37319
0.394585
0.480953
0.526771
0.519871
0.504078
0.519215
0.601589
0.768067
0.868295
0.924755
0.959263
0.981261
0.993451
1.00237
1.01138
1.02301
1.07924
1.25005
1.76866
2.37974
2.52226
2.12977
0.366784
0.367884
0.373186
0.394569
0.480941
0.526808
0.519922
0.504129
0.519252
0.601581
0.768047
0.86827
0.924738
0.959243
0.981261
0.993433
1.00232
1.01113
1.022
1.07484
1.23374
1.72588
2.30706
2.50352
2.11011
0.366782
0.367882
0.373189
0.394575
0.480966
0.526805
0.519916
0.504132
0.51926
0.601595
0.768053
0.868268
0.92474
0.959233
0.98126
0.993449
1.0022
1.01084
1.02071
1.06836
1.21094
1.66447
2.20674
2.48729
2.09127
0.366783
0.367882
0.373187
0.39457
0.480936
0.526797
0.519912
0.504127
0.519255
0.601593
0.768054
0.868266
0.924747
0.959229
0.981242
0.993529
1.00194
1.01052
1.01907
1.05989
1.18211
1.57999
2.07692
2.46698
2.08105
0.366783
0.367882
0.373191
0.394587
0.480951
0.526767
0.519869
0.504081
0.51922
0.601595
0.768073
0.868285
0.924774
0.959243
0.981206
0.993666
1.00159
1.01
1.01718
1.05016
1.1502
1.47573
1.91188
2.44592
2.05236
0.366784
0.367883
0.373186
0.394569
0.480941
0.52681
0.519924
0.504132
0.519255
0.601583
0.768052
0.868258
0.924763
0.959236
0.981116
0.993839
1.00118
1.00914
1.01509
1.03982
1.11845
1.3623
1.7689
2.36314
2.05226
0.366783
0.367883
0.373187
0.39457
0.480945
0.526817
0.519934
0.504141
0.519262
0.601587
0.768057
0.868251
0.924774
0.95924
0.981027
0.993993
1.00085
1.00796
1.01291
1.02975
1.08758
1.26179
1.61002
2.25005
2.01585
0.366784
0.367883
0.373191
0.394584
0.480954
0.526786
0.519892
0.504098
0.519227
0.601578
0.768062
0.868297
0.924757
0.959272
0.981256
0.993469
1.0024
1.01161
1.02402
1.08365
1.26804
1.81742
2.4694
2.55939
2.17037
0.366784
0.367883
0.373191
0.394584
0.480955
0.526786
0.519892
0.504097
0.519227
0.601578
0.768062
0.868296
0.924757
0.959271
0.981257
0.993468
1.0024
1.01158
1.02391
1.08314
1.2658
1.8111
2.45714
2.5528
2.16342
0.366784
0.367883
0.373191
0.394584
0.480954
0.526786
0.519891
0.504097
0.519227
0.601578
0.768062
0.868296
0.924757
0.95927
0.98126
0.993464
1.00239
1.01153
1.02361
1.08182
1.26031
1.79592
2.42892
2.53937
2.14912
0.366784
0.367883
0.373192
0.394587
0.480955
0.526783
0.51989
0.504099
0.519231
0.601586
0.768066
0.868296
0.924757
0.959266
0.981264
0.993454
1.00237
1.01139
1.02301
1.07924
1.25005
1.76856
2.3798
2.52186
2.1301
0.366784
0.367883
0.373191
0.394584
0.480954
0.526785
0.519891
0.504097
0.519227
0.601578
0.768063
0.868295
0.924761
0.959261
0.981275
0.993443
1.00233
1.01113
1.022
1.07484
1.23373
1.72586
2.30709
2.5035
2.11015
0.366784
0.367883
0.373192
0.394587
0.480955
0.526783
0.51989
0.504099
0.519231
0.601586
0.768067
0.868293
0.924764
0.959253
0.981275
0.99346
1.00221
1.01084
1.02072
1.06836
1.21094
1.66448
2.20675
2.48734
2.09127
0.366784
0.367883
0.373191
0.394584
0.480954
0.526786
0.519892
0.504097
0.519227
0.601578
0.768064
0.86829
0.924771
0.959249
0.981257
0.99354
1.00195
1.01053
1.01908
1.0599
1.18211
1.58
2.07694
2.46698
2.08101
0.366784
0.367883
0.373191
0.394584
0.480955
0.526786
0.519892
0.504098
0.519228
0.601578
0.768066
0.868287
0.924778
0.959248
0.981211
0.993671
1.00159
1.01
1.01718
1.05016
1.15021
1.47574
1.9119
2.44592
2.05231
0.366784
0.367883
0.373191
0.394584
0.480955
0.526787
0.519893
0.504099
0.519229
0.601581
0.768069
0.868283
0.924787
0.959255
0.98113
0.993849
1.00119
1.00915
1.0151
1.03983
1.11845
1.36231
1.76891
2.36315
2.05223
0.366784
0.367883
0.373191
0.394584
0.480956
0.526788
0.519895
0.504101
0.519231
0.601585
0.768074
0.868277
0.924798
0.95926
0.981041
0.994004
1.00086
1.00796
1.01291
1.02975
1.08758
1.2618
1.61003
2.25006
2.01583
0.366784
0.367883
0.373191
0.394584
0.480954
0.526786
0.519892
0.504097
0.519226
0.601577
0.768062
0.868297
0.924757
0.959272
0.981256
0.993469
1.0024
1.01161
1.02402
1.08365
1.26804
1.81743
2.4694
2.55939
2.17037
0.366784
0.367883
0.373191
0.394584
0.480954
0.526786
0.519892
0.504097
0.519227
0.601577
0.768062
0.868296
0.924757
0.959272
0.981257
0.993468
1.0024
1.01158
1.02391
1.08314
1.2658
1.81111
2.45714
2.5528
2.16342
0.366784
0.367883
0.373191
0.394584
0.480954
0.526786
0.519892
0.504097
0.519227
0.601577
0.768062
0.868296
0.924758
0.95927
0.98126
0.993464
1.00239
1.01153
1.02361
1.08183
1.26031
1.79592
2.42892
2.53937
2.14911
0.366784
0.367883
0.373191
0.394584
0.480954
0.526786
0.519892
0.504097
0.519227
0.601577
0.768062
0.868296
0.924759
0.959267
0.981265
0.993455
1.00237
1.01139
1.02301
1.07924
1.25005
1.76856
2.37981
2.52186
2.1301
0.366784
0.367883
0.373191
0.394584
0.480954
0.526786
0.519892
0.504097
0.519227
0.601577
0.768062
0.868295
0.924761
0.959262
0.981275
0.993443
1.00233
1.01113
1.022
1.07484
1.23373
1.72586
2.30709
2.5035
2.11015
0.366784
0.367883
0.37319
0.394584
0.480954
0.526785
0.519891
0.504097
0.519226
0.601577
0.768063
0.868293
0.924766
0.959255
0.981277
0.993462
1.00221
1.01084
1.02072
1.06836
1.21094
1.66448
2.20675
2.48734
2.09125
0.366784
0.367883
0.373191
0.394584
0.480954
0.526786
0.519892
0.504097
0.519227
0.601577
0.768064
0.86829
0.924772
0.95925
0.981257
0.99354
1.00195
1.01053
1.01908
1.0599
1.18212
1.58
2.07693
2.46699
2.08104
0.366784
0.367883
0.373191
0.394584
0.480954
0.526786
0.519892
0.504097
0.519227
0.601577
0.768065
0.868286
0.924778
0.959249
0.981211
0.993671
1.00159
1.01
1.01719
1.05016
1.15021
1.47574
1.9119
2.44592
2.05235
0.366784
0.367883
0.373191
0.394584
0.480954
0.526786
0.519892
0.504097
0.519227
0.601577
0.768066
0.868281
0.924786
0.959255
0.98113
0.993849
1.00119
1.00915
1.0151
1.03983
1.11846
1.36231
1.76891
2.36315
2.05225
0.366784
0.367883
0.373191
0.394584
0.480954
0.526786
0.519892
0.504097
0.519227
0.601577
0.768068
0.868274
0.924796
0.959259
0.981041
0.994004
1.00086
1.00796
1.01291
1.02975
1.08758
1.2618
1.61003
2.25006
2.01584
0.366784
0.367883
0.373191
0.394585
0.480956
0.526789
0.519896
0.504103
0.519233
0.601589
0.768071
0.868301
0.92476
0.959273
0.981257
0.993469
1.0024
1.01161
1.02402
1.08365
1.26804
1.81743
2.4694
2.5594
2.17037
0.366786
0.367885
0.373194
0.394589
0.480965
0.526797
0.519904
0.504109
0.51924
0.601599
0.768077
0.868304
0.924761
0.959274
0.981258
0.993468
1.0024
1.01158
1.02391
1.08314
1.2658
1.81111
2.45714
2.5528
2.16342
0.366787
0.367887
0.373195
0.39459
0.480968
0.526794
0.519899
0.504101
0.519235
0.601598
0.768075
0.868302
0.924761
0.959272
0.981261
0.993465
1.00239
1.01153
1.02361
1.08183
1.26031
1.79592
2.42892
2.53937
2.14911
0.366824
0.367925
0.373206
0.39458
0.480944
0.526783
0.519874
0.504069
0.51921
0.601588
0.768047
0.868283
0.924751
0.959264
0.981263
0.993454
1.00237
1.01139
1.02301
1.07924
1.25005
1.76856
2.37981
2.52186
2.1301
0.366797
0.367894
0.373171
0.394526
0.48088
0.526725
0.519821
0.504022
0.519171
0.601575
0.768054
0.868288
0.924757
0.959259
0.981273
0.993442
1.00233
1.01113
1.022
1.07484
1.23373
1.72586
2.30709
2.5035
2.11015
0.366791
0.367879
0.373306
0.394884
0.481325
0.527323
0.520546
0.504727
0.519641
0.601437
0.76797
0.868211
0.924712
0.95922
0.981254
0.993447
1.0022
1.01084
1.02071
1.06836
1.21094
1.66448
2.20675
2.48734
2.09125
0.366797
0.367894
0.373171
0.394527
0.480882
0.526727
0.519824
0.504025
0.519175
0.60158
0.768059
0.868285
0.924769
0.959248
0.981256
0.993539
1.00194
1.01053
1.01908
1.0599
1.18212
1.58
2.07693
2.46699
2.08104
0.366826
0.367928
0.37321
0.394586
0.480959
0.526798
0.519891
0.504085
0.519226
0.60161
0.768064
0.868281
0.924775
0.959247
0.981211
0.99367
1.00159
1.01
1.01718
1.05016
1.15021
1.47574
1.9119
2.44592
2.05235
0.366788
0.367889
0.373198
0.394593
0.480973
0.526794
0.519896
0.504099
0.519236
0.601614
0.768091
0.868293
0.924793
0.959259
0.981133
0.99385
1.00119
1.00915
1.0151
1.03983
1.11846
1.36231
1.76891
2.36315
2.05225
0.366826
0.367928
0.37321
0.394586
0.480959
0.526798
0.519891
0.504084
0.519226
0.60161
0.768068
0.868268
0.924793
0.959258
0.981041
0.994003
1.00086
1.00796
1.01291
1.02975
1.08758
1.2618
1.61003
2.25006
2.01584
0.36683
0.367933
0.373216
0.394594
0.480974
0.526808
0.5199
0.504091
0.519238
0.601639
0.768081
0.8683
0.924759
0.959274
0.981258
0.99347
1.0024
1.01161
1.02402
1.08365
1.26804
1.81743
2.4694
2.55939
2.17037
0.366803
0.367903
0.373182
0.394541
0.480906
0.526747
0.519841
0.504039
0.519193
0.601612
0.768076
0.8683
0.924759
0.959273
0.981258
0.993468
1.0024
1.01158
1.02391
1.08314
1.2658
1.81111
2.45714
2.5528
2.16342
0.36684
0.36793
0.373309
0.394851
0.481275
0.527289
0.520504
0.504678
0.519609
0.601445
0.767946
0.868197
0.924693
0.95923
0.981235
0.993448
1.00238
1.01152
1.0236
1.08182
1.26031
1.79592
2.42892
2.53937
2.14911
0.366791
0.36789
0.373178
0.394545
0.480906
0.526745
0.519842
0.50404
0.519188
0.60159
0.768068
0.868297
0.924759
0.959268
0.981265
0.993455
1.00237
1.01138
1.02301
1.07924
1.25005
1.76856
2.3798
2.52186
2.1301
0.36684
0.36793
0.373309
0.39485
0.481273
0.527287
0.520502
0.504674
0.519605
0.601437
0.767941
0.868192
0.924695
0.95922
0.98125
0.993427
1.00232
1.01113
1.022
1.07484
1.23373
1.72586
2.30709
2.5035
2.11015
0.366802
0.3679
0.373179
0.394537
0.480894
0.526735
0.519827
0.504026
0.519177
0.601588
0.768061
0.868288
0.924763
0.959253
0.981276
0.993461
1.00221
1.01084
1.02071
1.06836
1.21094
1.66448
2.20675
2.48734
2.09125
0.366826
0.367929
0.37321
0.394586
0.480958
0.526796
0.519889
0.504082
0.519225
0.601612
0.768065
0.868285
0.924768
0.959248
0.981257
0.99354
1.00194
1.01053
1.01908
1.0599
1.18212
1.58
2.07693
2.46699
2.08104
0.366787
0.367887
0.373196
0.394591
0.48097
0.526797
0.519902
0.504106
0.51924
0.601606
0.768084
0.868295
0.924783
0.959252
0.981213
0.993671
1.00159
1.01
1.01718
1.05016
1.15021
1.47574
1.9119
2.44592
2.05235
0.366786
0.367885
0.373194
0.394589
0.480967
0.526799
0.519907
0.504113
0.519245
0.601606
0.768087
0.868292
0.924792
0.959258
0.981131
0.993849
1.00119
1.00915
1.0151
1.03983
1.11846
1.36231
1.76891
2.36315
2.05225
0.366784
0.367883
0.373191
0.394585
0.480957
0.52679
0.519897
0.504104
0.519236
0.601593
0.768081
0.86828
0.9248
0.959261
0.981042
0.994003
1.00086
1.00796
1.01291
1.02975
1.08758
1.2618
1.61003
2.25006
2.01584
0.366787
0.367888
0.373199
0.394598
0.480978
0.526793
0.519898
0.504106
0.519251
0.601647
0.768103
0.868308
0.924756
0.959265
0.981246
0.993456
1.00238
1.01159
1.02401
1.08363
1.26799
1.8174
2.46918
2.55971
2.17
0.366823
0.367926
0.3732
0.394562
0.480929
0.526802
0.519904
0.504104
0.519243
0.601612
0.768044
0.868263
0.924725
0.959245
0.981235
0.993448
1.00238
1.01157
1.02389
1.08311
1.26575
1.81101
2.45692
2.55276
2.16334
0.366795
0.367893
0.373174
0.394535
0.480891
0.52673
0.519827
0.504035
0.519195
0.601631
0.768084
0.868296
0.92475
0.959259
0.981247
0.993449
1.00237
1.01151
1.02359
1.08181
1.26026
1.7959
2.42868
2.53966
2.14877
0.366795
0.367889
0.373305
0.394865
0.481314
0.527414
0.520664
0.504845
0.519738
0.601474
0.767952
0.868168
0.924657
0.959193
0.981212
0.993415
1.00234
1.01136
1.02299
1.07922
1.25
1.76856
2.37956
2.52218
2.12974
0.366836
0.367936
0.373191
0.394532
0.480892
0.526734
0.519815
0.504006
0.519173
0.601618
0.768055
0.868277
0.924744
0.959246
0.98126
0.993428
1.00232
1.01112
1.02199
1.07482
1.23369
1.72587
2.30683
2.50381
2.1098
0.36689
0.367995
0.373211
0.394503
0.480836
0.526737
0.519816
0.504002
0.519177
0.601643
0.76803
0.868238
0.924717
0.959217
0.981247
0.993436
1.00219
1.01082
1.0207
1.06835
1.2109
1.66452
2.20648
2.48776
2.09086
0.366807
0.367899
0.373306
0.394867
0.481305
0.527292
0.520505
0.504681
0.51962
0.601485
0.76799
0.868208
0.92471
0.959205
0.981223
0.993512
1.00192
1.01051
1.01906
1.05988
1.18208
1.57994
2.07675
2.46695
2.08086
0.366852
0.367946
0.373312
0.394846
0.481277
0.52727
0.520474
0.504643
0.519601
0.60152
0.76799
0.868196
0.92471
0.9592
0.981175
0.99364
1.00156
1.00998
1.01717
1.05015
1.15018
1.47571
1.91169
2.446
2.05229
0.366843
0.367944
0.373187
0.394514
0.480856
0.526696
0.51977
0.50396
0.519142
0.601628
0.76806
0.86826
0.924766
0.959237
0.981114
0.993833
1.00117
1.00913
1.01508
1.03981
1.11843
1.36232
1.76865
2.36346
2.05217
0.366893
0.367992
0.37332
0.394809
0.481223
0.527336
0.520566
0.50475
0.51969
0.601535
0.767935
0.86811
0.924667
0.959166
0.980976
0.993957
1.00082
1.00793
1.01289
1.02973
1.08756
1.26179
1.60989
2.25034
2.01575
0.366847
0.367948
0.373192
0.394522
0.480881
0.526737
0.519823
0.504013
0.519189
0.601668
0.768101
0.868258
0.924801
0.959262
0.980932
0.99407
1.00071
1.00619
1.01046
1.01948
1.05789
1.17135
1.44076
2.01096
1.8297
0.366847
0.367941
0.373325
0.394875
0.481312
0.527311
0.520527
0.504708
0.519656
0.601538
0.76802
0.868181
0.924742
0.959248
0.980874
0.99395
1.00095
1.00449
1.00852
1.01241
1.03198
1.09042
1.27385
1.55329
1.71822
0.366849
0.367952
0.373207
0.394552
0.48093
0.526776
0.519862
0.504047
0.519217
0.601685
0.768116
0.86827
0.924795
0.959294
0.980895
0.993908
1.00096
1.0041
1.00601
1.00844
1.01533
1.04369
1.12499
1.29908
1.60106
0.366889
0.367992
0.37321
0.394522
0.480884
0.526748
0.519821
0.504001
0.519185
0.601683
0.768091
0.868251
0.924785
0.959285
0.980896
0.993897
1.00091
1.00405
1.00488
1.00575
1.00772
1.01694
1.04703
1.13728
1.28059
0.366852
0.367949
0.37333
0.394879
0.481321
0.527316
0.520524
0.504694
0.519645
0.601539
0.768018
0.868183
0.924737
0.959253
0.980871
0.993883
1.0009
1.00396
1.00473
1.00434
1.00452
1.00592
1.01402
1.03817
1.10596
0.366864
0.367958
0.373301
0.394805
0.481215
0.527236
0.520444
0.504619
0.519589
0.601532
0.768002
0.868171
0.92473
0.959249
0.980869
0.99388
1.0009
1.00395
1.00464
1.00431
1.00309
1.00297
1.00385
1.00888
1.02318
0.366902
0.367997
0.373311
0.394796
0.481191
0.527218
0.520411
0.504578
0.519556
0.601508
0.767965
0.868148
0.924716
0.959242
0.980865
0.993878
1.0009
1.00394
1.00463
1.00425
1.00307
1.00194
1.00171
1.00215
1.0044
0.366905
0.368002
0.373313
0.394796
0.481203
0.527235
0.520426
0.504583
0.519556
0.601504
0.767964
0.868151
0.924721
0.959246
0.980869
0.993881
1.0009
1.00394
1.00463
1.00424
1.00301
1.0019
1.00116
1.0009
1.00105
0.366868
0.367963
0.373307
0.394814
0.481233
0.52725
0.520454
0.504624
0.519596
0.601546
0.768011
0.868175
0.924732
0.95925
0.98087
0.993881
1.0009
1.00394
1.00462
1.00424
1.00301
1.00187
1.00112
1.00065
1.00044
0.366895
0.367994
0.373335
0.394853
0.481289
0.527303
0.520498
0.504653
0.519613
0.601529
0.767989
0.868166
0.92473
0.959252
0.980872
0.993882
1.0009
1.00395
1.00462
1.00424
1.00301
1.00187
1.0011
1.00062
1.00034
0.366908
0.368013
0.373216
0.394498
0.48084
0.526712
0.519779
0.503955
0.519154
0.601689
0.768088
0.868246
0.924781
0.959283
0.980891
0.993894
1.00091
1.00395
1.00463
1.00424
1.00301
1.00187
1.0011
1.00061
1.00032
0.366854
0.367951
0.373326
0.394868
0.481304
0.527308
0.520521
0.504695
0.519653
0.601567
0.768035
0.86819
0.924741
0.959255
0.980872
0.993882
1.0009
1.00394
1.00462
1.00424
1.00301
1.00187
1.0011
1.00061
1.00032
0.366856
0.367953
0.373324
0.394863
0.481305
0.527314
0.520524
0.504689
0.519642
0.601548
0.768025
0.868189
0.924743
0.959258
0.980875
0.993884
1.0009
1.00395
1.00462
1.00424
1.00301
1.00187
1.0011
1.00061
1.00032
0.366908
0.368013
0.373215
0.394497
0.480837
0.52671
0.519777
0.503953
0.51915
0.601682
0.768083
0.868244
0.924779
0.959282
0.98089
0.993893
1.00091
1.00395
1.00463
1.00424
1.00301
1.00187
1.0011
1.00061
1.00032
0.366891
0.36799
0.373334
0.394852
0.481275
0.527285
0.520481
0.504646
0.51961
0.601529
0.767987
0.868162
0.924725
0.959246
0.980868
0.993879
1.0009
1.00394
1.00462
1.00424
1.00301
1.00187
1.0011
1.00061
1.00032
0.366864
0.367958
0.373299
0.394801
0.481219
0.527247
0.520453
0.504618
0.519584
0.601517
0.767998
0.868174
0.924734
0.959253
0.980871
0.993882
1.0009
1.00394
1.00462
1.00424
1.00301
1.00187
1.0011
1.00061
1.00032
0.366864
0.367958
0.373299
0.394802
0.481221
0.527249
0.520455
0.50462
0.519586
0.60152
0.768
0.868175
0.924736
0.959254
0.980872
0.993882
1.0009
1.00394
1.00462
1.00424
1.00301
1.00187
1.0011
1.00061
1.00032
0.366894
0.367993
0.373334
0.394852
0.481287
0.527304
0.520499
0.504654
0.519615
0.601536
0.767994
0.868169
0.924732
0.959252
0.980872
0.993882
1.0009
1.00395
1.00462
1.00424
1.00301
1.00187
1.0011
1.00061
1.00032
0.366912
0.368019
0.373223
0.394507
0.48085
0.526719
0.519784
0.503956
0.519155
0.601694
0.76809
0.868247
0.924782
0.959284
0.980892
0.993895
1.00091
1.00395
1.00463
1.00424
1.00301
1.00187
1.0011
1.00061
1.00032
0.366896
0.367996
0.373337
0.394856
0.481297
0.527312
0.520507
0.504661
0.519623
0.601548
0.768001
0.868172
0.924733
0.959253
0.980872
0.993882
1.0009
1.00395
1.00462
1.00424
1.00301
1.00187
1.0011
1.00061
1.00032
0.366865
0.367959
0.373303
0.394808
0.481221
0.527238
0.520444
0.504617
0.51959
0.601538
0.768008
0.868175
0.924732
0.95925
0.980869
0.99388
1.0009
1.00394
1.00462
1.00424
1.00301
1.00187
1.0011
1.00061
1.00032
0.366904
0.368001
0.373313
0.394798
0.481209
0.527249
0.520444
0.504601
0.519573
0.601519
0.767976
0.868158
0.924725
0.959248
0.980869
0.993881
1.0009
1.00394
1.00462
1.00424
1.00301
1.00187
1.0011
1.00061
1.00032
0.366865
0.367959
0.373303
0.394808
0.48122
0.527238
0.520444
0.504617
0.51959
0.601539
0.768009
0.868176
0.924733
0.95925
0.980869
0.99388
1.0009
1.00394
1.00462
1.00424
1.00301
1.00187
1.0011
1.00061
1.00032
0.366896
0.367997
0.373338
0.394857
0.481298
0.527314
0.52051
0.504664
0.519626
0.601552
0.768004
0.868173
0.924734
0.959253
0.980873
0.993883
1.0009
1.00395
1.00462
1.00424
1.00301
1.00187
1.0011
1.00061
1.00032
0.366913
0.36802
0.373222
0.394506
0.480851
0.526722
0.519786
0.503955
0.519153
0.601691
0.768089
0.868248
0.924784
0.959286
0.980894
0.993896
1.00091
1.00395
1.00463
1.00424
1.00301
1.00187
1.0011
1.00061
1.00032
0.366895
0.367995
0.37334
0.394862
0.481298
0.527308
0.520506
0.504668
0.519635
0.601568
0.768012
0.868173
0.924731
0.95925
0.98087
0.993881
1.0009
1.00394
1.00462
1.00424
1.00301
1.00187
1.0011
1.00061
1.00032
0.366866
0.367961
0.3733
0.394803
0.481222
0.527244
0.520446
0.504611
0.51958
0.601522
0.768
0.868175
0.924735
0.959253
0.980872
0.993882
1.0009
1.00394
1.00462
1.00424
1.00301
1.00187
1.0011
1.00061
1.00032
0.366903
0.368
0.373315
0.394803
0.481207
0.527241
0.520438
0.504603
0.519579
0.601532
0.767981
0.868157
0.924721
0.959244
0.980867
0.993879
1.0009
1.00394
1.00462
1.00424
1.00301
1.00187
1.0011
1.00061
1.00032
0.366864
0.367959
0.373302
0.394807
0.481218
0.527235
0.52044
0.504614
0.519586
0.601532
0.768003
0.868172
0.924731
0.959249
0.980869
0.99388
1.0009
1.00394
1.00462
1.00424
1.00301
1.00187
1.0011
1.00061
1.00032
0.366894
0.367994
0.373334
0.394852
0.481286
0.527302
0.520496
0.504651
0.519611
0.601525
0.767987
0.868165
0.92473
0.959251
0.980872
0.993882
1.0009
1.00395
1.00462
1.00424
1.00301
1.00187
1.0011
1.00061
1.00032
0.366908
0.368013
0.373214
0.394495
0.480838
0.526713
0.519778
0.503949
0.519144
0.601671
0.768077
0.868243
0.924781
0.959284
0.980892
0.993895
1.00091
1.00395
1.00463
1.00424
1.00301
1.00187
1.0011
1.00061
1.00032
0.366854
0.367951
0.373323
0.394862
0.481302
0.527313
0.520523
0.504688
0.519639
0.60154
0.76802
0.868186
0.924742
0.959257
0.980874
0.993883
1.0009
1.00395
1.00462
1.00424
1.00301
1.00187
1.0011
1.00061
1.00032
0.366853
0.367949
0.37332
0.394856
0.481293
0.527302
0.520509
0.504675
0.519625
0.601519
0.768007
0.868181
0.924738
0.959255
0.980873
0.993882
1.0009
1.00395
1.00462
1.00424
1.00301
1.00187
1.0011
1.00061
1.00032
0.366903
0.368006
0.373207
0.394486
0.480824
0.526706
0.519775
0.503949
0.51914
0.601655
0.768067
0.868238
0.924777
0.959281
0.98089
0.993893
1.00091
1.00395
1.00463
1.00424
1.00301
1.00187
1.0011
1.00061
1.00032
0.366851
0.367946
0.373316
0.394851
0.48128
0.527288
0.520494
0.504663
0.519612
0.601501
0.767994
0.868174
0.924734
0.959252
0.980871
0.993882
1.0009
1.00395
1.00462
1.00424
1.00301
1.00187
1.0011
1.00061
1.00032
0.36685
0.367944
0.373318
0.394856
0.481289
0.527295
0.520509
0.504686
0.51964
0.601542
0.768018
0.868182
0.924736
0.959251
0.98087
0.99388
1.0009
1.00394
1.00462
1.00424
1.00301
1.00187
1.0011
1.00061
1.00032
0.366849
0.367952
0.373196
0.394526
0.480885
0.526731
0.519811
0.503999
0.51918
0.601671
0.768103
0.86826
0.924789
0.959287
0.980893
0.993895
1.00091
1.00395
1.00463
1.00424
1.00301
1.00187
1.0011
1.00061
1.00032
0.366896
0.367992
0.373326