/*--------------------------------*- C++ -*----------------------------------*\
| =========                 |                                                 |
| \\      /  F ield         | OpenFOAM: The Open Source CFD Toolbox           |
|  \\    /   O peration     | Version:  4.1                                   |
|   \\  /    A nd           | Web:      www.OpenFOAM.org                      |
|    \\/     M anipulation  |                                                 |
\*---------------------------------------------------------------------------*/
FoamFile
{
    version     2.0;
    format      ascii;
    class       volVectorField;
    location    "2.76";
    object      U;
}
// * * * * * * * * * * * * * * * * * * * * * * * * * * * * * * * * * * * * * //

dimensions      [0 1 -1 0 0 0 0];

internalField   nonuniform List<vector> 
52500
(
(3 1.28501e-08 -0.00571425)
(2.99998 7.11501e-08 -0.00571438)
(2.99996 2.65742e-07 -0.00571458)
(2.9999 6.79678e-07 -0.00571519)
(2.99977 1.88668e-06 -0.00571631)
(2.9994 4.29535e-06 -0.00571969)
(2.99869 1.14883e-05 -0.00572635)
(2.99643 2.4782e-05 -0.00574408)
(2.99256 7.11636e-05 -0.00578876)
(2.97768 0.000145393 -0.00587522)
(2.952 0.000460355 -0.00621893)
(2.85248 0.000977512 -0.00668332)
(2.58874 0.0036003 -0.00906429)
(1.93982 0.00859338 -0.0135492)
(0.874158 0.024761 -0.0174576)
(0.450271 0.02336 -0.0184973)
(0.541385 0.023858 -0.0185063)
(0.56887 0.0259078 -0.0185355)
(0.516665 0.0279574 -0.0187206)
(0.426255 0.0300242 -0.0189143)
(0.33877 0.0324898 -0.0191154)
(0.268689 0.035525 -0.0192822)
(0.19821 0.0387458 -0.0195016)
(0.116902 0.0419952 -0.0196605)
(0.0495405 0.044959 -0.0198039)
(3 3.82798e-08 -0.00571425)
(2.99998 2.11503e-07 -0.00571438)
(2.99996 7.91464e-07 -0.00571457)
(2.9999 2.02229e-06 -0.00571517)
(2.99977 5.62943e-06 -0.00571628)
(2.99941 1.28126e-05 -0.00571962)
(2.99871 3.44402e-05 -0.00572617)
(2.99648 7.41737e-05 -0.00574369)
(2.99266 0.000215231 -0.00578761)
(2.978 0.000438525 -0.00587305)
(2.95271 0.00140828 -0.00621085)
(2.85487 0.00298678 -0.00666937)
(2.59583 0.0111517 -0.00900327)
(1.95594 0.0267166 -0.0134316)
(0.883516 0.0756867 -0.0173318)
(0.446894 0.06785 -0.0184175)
(0.540991 0.066265 -0.0184266)
(0.569471 0.0698728 -0.0184469)
(0.516846 0.0733852 -0.0186245)
(0.426335 0.0769102 -0.018811)
(0.338886 0.0809324 -0.0190042)
(0.268396 0.0855511 -0.0191632)
(0.197173 0.0898299 -0.0193718)
(0.115129 0.0933476 -0.0195181)
(0.0476015 0.0948755 -0.0196549)
(3 6.10072e-08 -0.00571425)
(2.99999 3.36798e-07 -0.00571438)
(2.99996 1.26089e-06 -0.00571456)
(2.9999 3.21662e-06 -0.00571515)
(2.99978 8.96542e-06 -0.00571622)
(2.99943 2.03366e-05 -0.00571947)
(2.99874 5.52233e-05 -0.00572583)
(2.99658 0.000116181 -0.00574293)
(2.99287 0.000354869 -0.00578531)
(2.97866 0.00068283 -0.00586876)
(2.95418 0.00241165 -0.00619435)
(2.85991 0.00493101 -0.00664177)
(2.61106 0.0189634 -0.0088777)
(1.99174 0.0454834 -0.0131965)
(0.906018 0.130153 -0.0171404)
(0.443825 0.115285 -0.0183214)
(0.54375 0.111314 -0.0183315)
(0.574621 0.117498 -0.0183409)
(0.521705 0.123986 -0.018512)
(0.431467 0.131091 -0.018691)
(0.344314 0.138692 -0.0188724)
(0.273357 0.146908 -0.0190235)
(0.201051 0.154742 -0.0192277)
(0.117494 0.160962 -0.0193716)
(0.048087 0.162984 -0.0195001)
(3 7.69595e-08 -0.00571425)
(2.99999 4.2487e-07 -0.00571437)
(2.99997 1.58518e-06 -0.00571455)
(2.99991 4.02413e-06 -0.00571511)
(2.99979 1.1178e-05 -0.00571614)
(2.99945 2.50814e-05 -0.00571928)
(2.99879 6.93818e-05 -0.00572535)
(2.99673 0.000135901 -0.00574202)
(2.99314 0.000473745 -0.00578183)
(2.97968 0.000759938 -0.00586365)
(2.95634 0.00345983 -0.00616722)
(2.86752 0.00647068 -0.00660214)
(2.63422 0.0263252 -0.008685)
(2.04675 0.0628141 -0.0128429)
(0.941918 0.182573 -0.016885)
(0.441998 0.163038 -0.018209)
(0.550054 0.156313 -0.0182179)
(0.584808 0.164763 -0.0182118)
(0.531844 0.174284 -0.0183757)
(0.442162 0.185473 -0.018549)
(0.35523 0.197035 -0.0187245)
(0.283781 0.209251 -0.0188682)
(0.210111 0.221273 -0.0190547)
(0.123776 0.23108 -0.019187)
(0.0504048 0.234426 -0.0193307)
(3 9.92749e-08 -0.00571425)
(2.99999 5.48617e-07 -0.00571436)
(2.99997 2.04523e-06 -0.00571454)
(2.99991 5.21861e-06 -0.00571507)
(2.9998 1.44537e-05 -0.00571606)
(2.99947 3.27257e-05 -0.00571907)
(2.99884 8.87466e-05 -0.00572477)
(2.99692 0.000181544 -0.0057414)
(2.99339 0.000591783 -0.00577717)
(2.9811 0.000953422 -0.00586013)
(2.95906 0.00429397 -0.00612588)
(2.87745 0.00789024 -0.00655244)
(2.6649 0.031817 -0.00842179)
(2.1207 0.076338 -0.0123574)
(0.995802 0.227706 -0.0165612)
(0.449833 0.211366 -0.0180663)
(0.563743 0.203048 -0.0180767)
(0.602487 0.212409 -0.018049)
(0.54934 0.224071 -0.018209)
(0.460099 0.239247 -0.0183629)
(0.372732 0.255037 -0.0185378)
(0.300175 0.27186 -0.0186674)
(0.224476 0.288904 -0.0188626)
(0.134185 0.303414 -0.0189961)
(0.0549897 0.309123 -0.0191152)
(3 1.24021e-07 -0.00571425)
(2.99999 6.85717e-07 -0.00571436)
(2.99997 2.55843e-06 -0.00571452)
(2.99992 6.56543e-06 -0.00571502)
(2.99981 1.81624e-05 -0.00571593)
(2.99951 4.15808e-05 -0.00571873)
(2.99891 0.000109742 -0.00572404)
(2.99715 0.000241289 -0.00573957)
(2.99378 0.000677151 -0.00577208)
(2.98272 0.00131428 -0.00585226)
(2.96227 0.00461631 -0.00608308)
(2.88881 0.00887624 -0.00649253)
(2.69955 0.0338287 -0.008134)
(2.20833 0.082288 -0.0117797)
(1.06909 0.252386 -0.0161719)
(0.475605 0.25796 -0.0178875)
(0.587082 0.254043 -0.0178945)
(0.62814 0.263038 -0.0178661)
(0.575204 0.275489 -0.018038)
(0.486731 0.294051 -0.0181708)
(0.398563 0.314411 -0.0183275)
(0.32434 0.336622 -0.018446)
(0.245975 0.360053 -0.0186074)
(0.150098 0.381595 -0.0187318)
(0.0622114 0.392271 -0.0188832)
(3 1.36278e-07 -0.00571425)
(2.99999 7.53215e-07 -0.00571435)
(2.99997 2.80506e-06 -0.00571449)
(2.99992 7.1932e-06 -0.00571495)
(2.99983 1.98235e-05 -0.00571579)
(2.99955 4.53236e-05 -0.00571836)
(2.999 0.000118459 -0.00572322)
(2.99739 0.000262814 -0.00573747)
(2.99428 0.000698656 -0.005767)
(2.98435 0.00149572 -0.00584163)
(2.9655 0.00442709 -0.00604451)
(2.90025 0.00920951 -0.00643388)
(2.7339 0.0311949 -0.00785134)
(2.29747 0.0761526 -0.0112197)
(1.16153 0.232169 -0.015737)
(0.528327 0.29301 -0.0176381)
(0.621017 0.307135 -0.0176263)
(0.659818 0.315149 -0.0176148)
(0.608568 0.327998 -0.0177918)
(0.522593 0.35032 -0.0179393)
(0.434057 0.376247 -0.0180873)
(0.357939 0.405067 -0.0181866)
(0.276685 0.436723 -0.0183446)
(0.174449 0.468643 -0.0184549)
(0.0746434 0.489603 -0.0185553)
(3 1.46889e-07 -0.00571425)
(2.99999 8.1048e-07 -0.00571434)
(2.99997 3.01558e-06 -0.00571447)
(2.99993 7.72544e-06 -0.00571489)
(2.99984 2.12715e-05 -0.00571565)
(2.99959 4.86014e-05 -0.00571798)
(2.99909 0.000126621 -0.00572238)
(2.99763 0.000282448 -0.00573535)
(2.99481 0.000728207 -0.00576207)
(2.9858 0.00165534 -0.00583016)
(2.9688 0.0042026 -0.00601379)
(2.90986 0.0100969 -0.00636543)
(2.76087 0.0280728 -0.00765586)
(2.36308 0.0697907 -0.0106673)
(1.25569 0.201732 -0.0156288)
(0.574374 0.333629 -0.0174875)
(0.637182 0.368006 -0.0174437)
(0.675085 0.367032 -0.0174261)
(0.635678 0.379553 -0.0175651)
(0.559854 0.406202 -0.0176795)
(0.475569 0.439495 -0.0178052)
(0.400405 0.476914 -0.0178739)
(0.318607 0.519571 -0.0179747)
(0.211362 0.567528 -0.0180474)
(0.0956637 0.610272 -0.0181538)
(3 1.75007e-07 -0.00571425)
(2.99999 9.58398e-07 -0.00571432)
(2.99998 3.56933e-06 -0.00571444)
(2.99994 9.18623e-06 -0.00571481)
(2.99986 2.53314e-05 -0.00571549)
(2.99964 5.85766e-05 -0.00571756)
(2.9992 0.000149882 -0.00572145)
(2.99789 0.0003545 -0.00573293)
(2.99543 0.000812294 -0.00575691)
(2.98722 0.0020992 -0.00581492)
(2.97263 0.00438986 -0.00598754)
(2.91918 0.0113801 -0.00627577)
(2.78705 0.0274413 -0.00750691)
(2.42785 0.0713527 -0.00993884)
(1.37816 0.198985 -0.0153142)
(0.655423 0.384831 -0.0172779)
(0.646773 0.417142 -0.0172344)
(0.674373 0.413596 -0.0172878)
(0.656297 0.429542 -0.0173537)
(0.596475 0.459269 -0.0174292)
(0.521499 0.50161 -0.0175188)
(0.45143 0.549929 -0.0175452)
(0.374485 0.606803 -0.017605)
(0.269825 0.680396 -0.0175899)
(0.134702 0.769741 -0.0174871)
(3 2.63501e-07 -0.00571424)
(2.99999 4.52398e-07 -0.00571431)
(2.99998 3.81672e-06 -0.00571441)
(2.99995 5.56699e-06 -0.00571471)
(2.99988 2.57683e-05 -0.00571528)
(2.9997 3.58139e-05 -0.00571694)
(2.99934 0.000153747 -0.00572035)
(2.99819 0.000197408 -0.00572873)
(2.99627 0.000939793 -0.0057521)
(2.98876 0.000865462 -0.00579278)
(2.97664 0.00634144 -0.00596594)
(2.92824 0.00357404 -0.00618698)
(2.8138 0.0406285 -0.0073675)
(2.49337 0.0512816 -0.00934344)
(1.52315 0.218106 -0.0146225)
(0.757347 0.438635 -0.0168991)
(0.656251 0.45168 -0.0171377)
(0.681098 0.45228 -0.0171608)
(0.677328 0.474319 -0.0171601)
(0.633536 0.507996 -0.0171978)
(0.573005 0.558701 -0.0171915)
(0.512611 0.618849 -0.0171484)
(0.450464 0.696991 -0.017071)
(0.367288 0.815868 -0.0169003)
(0.208465 1.02554 -0.0164947)
(3 1.31147e-08 -2.51404e-09)
(2.99998 7.13553e-08 -8.66104e-09)
(2.99996 2.65697e-07 -1.00321e-08)
(2.9999 6.8062e-07 -1.60894e-08)
(2.99977 1.88577e-06 -1.59098e-08)
(2.9994 4.29551e-06 -2.16311e-08)
(2.99869 1.14868e-05 -2.15801e-08)
(2.99643 2.47822e-05 -2.94391e-08)
(2.99256 7.1159e-05 -3.00798e-08)
(2.97768 0.000145399 -5.43293e-08)
(2.95199 0.000460382 -6.31512e-08)
(2.85247 0.000977637 -1.40608e-07)
(2.5887 0.00360073 -1.4585e-07)
(1.93974 0.00859486 -5.09341e-07)
(0.874131 0.024764 -5.60059e-07)
(0.450295 0.0233619 5.03217e-08)
(0.541391 0.0238591 -2.83997e-08)
(0.568868 0.0259082 -8.23482e-08)
(0.516664 0.0279574 -8.41572e-08)
(0.426256 0.0300242 -8.23471e-08)
(0.338772 0.0324899 -6.95801e-08)
(0.26869 0.0355251 -6.96873e-08)
(0.198213 0.0387458 -6.99749e-08)
(0.116906 0.0419956 -6.84541e-08)
(0.0495423 0.0449605 -6.99669e-08)
(3 3.90087e-08 -2.50875e-09)
(2.99998 2.12208e-07 -8.66151e-09)
(2.99996 7.91153e-07 -1.00374e-08)
(2.9999 2.02566e-06 -1.60705e-08)
(2.99977 5.62672e-06 -1.5942e-08)
(2.99941 1.28151e-05 -2.16152e-08)
(2.99871 3.44406e-05 -2.1608e-08)
(2.99648 7.41951e-05 -2.94084e-08)
(2.99266 0.000215249 -3.01652e-08)
(2.97799 0.000438672 -5.41349e-08)
(2.9527 0.0014086 -6.27175e-08)
(2.85485 0.00298758 -1.38777e-07)
(2.59579 0.0111536 -1.4099e-07)
(1.95586 0.0267214 -4.94029e-07)
(0.883489 0.0756939 -5.50069e-07)
(0.446915 0.0678519 4.63217e-08)
(0.540994 0.0662647 -3.06794e-08)
(0.569467 0.0698723 -8.37581e-08)
(0.516843 0.0733847 -8.52225e-08)
(0.426335 0.0769101 -8.26017e-08)
(0.338887 0.0809325 -6.97314e-08)
(0.268396 0.0855513 -6.97714e-08)
(0.197175 0.0898299 -6.95617e-08)
(0.115131 0.0933481 -6.77701e-08)
(0.0476024 0.0948775 -6.8921e-08)
(3 6.19486e-08 -2.49945e-09)
(2.99998 3.37582e-07 -8.65958e-09)
(2.99996 1.25772e-06 -1.00525e-08)
(2.9999 3.21857e-06 -1.60194e-08)
(2.99978 8.94295e-06 -1.60133e-08)
(2.99942 2.03006e-05 -2.15462e-08)
(2.99874 5.51289e-05 -2.16008e-08)
(2.99658 0.000115855 -2.90378e-08)
(2.99286 0.000354678 -3.0089e-08)
(2.97865 0.000680546 -5.18833e-08)
(2.95417 0.00241391 -5.96004e-08)
(2.8599 0.00492802 -1.31881e-07)
(2.61103 0.0189726 -1.28932e-07)
(1.99166 0.0454978 -4.65979e-07)
(0.905983 0.130178 -5.46985e-07)
(0.443831 0.115294 2.5443e-08)
(0.543745 0.111313 -3.9703e-08)
(0.574613 0.117495 -8.50428e-08)
(0.521699 0.123984 -8.5914e-08)
(0.431464 0.131089 -8.25064e-08)
(0.344312 0.138692 -7.03831e-08)
(0.273355 0.146908 -7.04705e-08)
(0.20105 0.154742 -6.96197e-08)
(0.117495 0.160962 -6.72283e-08)
(0.0480871 0.162986 -6.74202e-08)
(3 7.77776e-08 -2.49005e-09)
(2.99999 4.27583e-07 -8.66161e-09)
(2.99996 1.58379e-06 -1.01145e-08)
(2.9999 4.03067e-06 -1.59763e-08)
(2.99979 1.11731e-05 -1.63842e-08)
(2.99945 2.50832e-05 -2.19238e-08)
(2.99879 6.93742e-05 -2.2705e-08)
(2.99673 0.000135823 -3.39096e-08)
(2.99313 0.000473852 -2.78437e-08)
(2.97968 0.000758827 -9.3441e-08)
(2.95634 0.00346228 1.53871e-08)
(2.86751 0.0064701 -2.21445e-07)
(2.63421 0.026333 2.43029e-08)
(2.04671 0.0628286 -4.02087e-07)
(0.941924 0.182602 -4.64518e-07)
(0.442037 0.16305 -1.54327e-08)
(0.550072 0.156313 -7.6157e-08)
(0.584817 0.164762 -9.49787e-08)
(0.531848 0.174282 -9.09823e-08)
(0.442164 0.185473 -8.37721e-08)
(0.355229 0.197036 -7.35146e-08)
(0.283779 0.209252 -7.25312e-08)
(0.21011 0.221273 -7.06616e-08)
(0.123776 0.23108 -6.70769e-08)
(0.0504045 0.234428 -6.67183e-08)
(3 1.00851e-07 -2.48318e-09)
(2.99999 5.52349e-07 -8.61977e-09)
(2.99997 2.05013e-06 -1.01265e-08)
(2.99991 5.23266e-06 -1.58758e-08)
(2.9998 1.44871e-05 -1.62063e-08)
(2.99947 3.28071e-05 -2.1447e-08)
(2.99883 8.89244e-05 -2.17474e-08)
(2.99692 0.000182102 -3.0412e-08)
(2.99338 0.000592347 -2.66127e-08)
(2.9811 0.000956436 -7.49209e-08)
(2.95905 0.00429432 2.90888e-09)
(2.87744 0.00789622 -1.77839e-07)
(2.66489 0.031816 8.99326e-10)
(2.12066 0.0763435 -3.48824e-07)
(0.995805 0.22772 -4.17178e-07)
(0.449867 0.211372 -4.81996e-08)
(0.563765 0.203051 -9.2947e-08)
(0.602504 0.212413 -9.49079e-08)
(0.549353 0.224075 -8.97751e-08)
(0.460108 0.239251 -8.2344e-08)
(0.372736 0.25504 -7.54748e-08)
(0.300176 0.271861 -7.34665e-08)
(0.224477 0.288904 -7.25828e-08)
(0.134186 0.303413 -6.80944e-08)
(0.0549898 0.309124 -6.72763e-08)
(3 1.26519e-07 -2.45841e-09)
(2.99999 6.87973e-07 -8.61557e-09)
(2.99997 2.56361e-06 -1.00879e-08)
(2.99992 6.57532e-06 -1.58031e-08)
(2.99981 1.81862e-05 -1.59973e-08)
(2.99951 4.16337e-05 -2.09788e-08)
(2.99891 0.000109858 -2.0802e-08)
(2.99715 0.000241635 -2.65158e-08)
(2.99378 0.00067748 -2.71626e-08)
(2.98272 0.00131657 -4.73872e-08)
(2.96226 0.00461621 -2.72415e-08)
(2.8888 0.00888079 -1.28026e-07)
(2.69954 0.0338279 -5.10219e-08)
(2.20829 0.0822934 -3.18609e-07)
(1.06908 0.252405 -4.16611e-07)
(0.475614 0.257963 -7.17042e-08)
(0.587095 0.254047 -8.94733e-08)
(0.628154 0.263045 -8.53559e-08)
(0.575219 0.275497 -8.23775e-08)
(0.486743 0.294058 -7.85173e-08)
(0.398571 0.314417 -7.42526e-08)
(0.324345 0.336625 -7.29788e-08)
(0.245979 0.360054 -7.29867e-08)
(0.150101 0.381595 -6.90959e-08)
(0.0622123 0.392272 -6.97914e-08)
(3 1.38714e-07 -2.4332e-09)
(2.99999 7.54788e-07 -8.61823e-09)
(2.99997 2.80759e-06 -1.00742e-08)
(2.99992 7.19679e-06 -1.57822e-08)
(2.99983 1.98307e-05 -1.59338e-08)
(2.99955 4.53374e-05 -2.08659e-08)
(2.999 0.000118492 -2.04933e-08)
(2.99739 0.000262885 -2.59105e-08)
(2.99428 0.000698768 -2.66235e-08)
(2.98435 0.00149638 -3.75542e-08)
(2.96549 0.0044273 -3.57911e-08)
(2.90024 0.00921156 -1.00405e-07)
(2.73389 0.0311963 -5.75754e-08)
(2.29744 0.0761591 -2.6123e-07)
(1.16151 0.232189 -2.87112e-07)
(0.528325 0.293011 -1.47293e-07)
(0.621027 0.307136 -9.40834e-08)
(0.659833 0.315154 -7.43074e-08)
(0.608582 0.328006 -7.30597e-08)
(0.522607 0.350329 -7.34477e-08)
(0.434068 0.376254 -7.08995e-08)
(0.357947 0.405072 -7.08081e-08)
(0.276692 0.436726 -7.32163e-08)
(0.174454 0.468644 -7.06479e-08)
(0.0746454 0.489605 -7.1709e-08)
(3 1.49084e-07 -2.40978e-09)
(2.99999 8.11793e-07 -8.62544e-09)
(2.99997 3.01646e-06 -1.0075e-08)
(2.99993 7.72606e-06 -1.57828e-08)
(2.99984 2.12694e-05 -1.59273e-08)
(2.99959 4.85941e-05 -2.08483e-08)
(2.99909 0.000126593 -2.04429e-08)
(2.99763 0.00028237 -2.57465e-08)
(2.99481 0.000728164 -2.63415e-08)
(2.9858 0.00165396 -3.67113e-08)
(2.9688 0.00420336 -3.4132e-08)
(2.90985 0.0100949 -9.6632e-08)
(2.76086 0.0280758 -4.97295e-08)
(2.36306 0.0697943 -2.34736e-07)
(1.25566 0.201743 -2.82988e-07)
(0.57436 0.333627 -2.16972e-07)
(0.637191 0.368008 -1.02407e-07)
(0.675101 0.367038 -6.32925e-08)
(0.635693 0.379561 -6.4344e-08)
(0.559869 0.406211 -6.8223e-08)
(0.475582 0.439504 -6.71188e-08)
(0.400416 0.476922 -6.73874e-08)
(0.318616 0.519576 -6.98909e-08)
(0.21137 0.567532 -7.01141e-08)
(0.0956669 0.610277 -7.23479e-08)
(3 1.75088e-07 -2.3893e-09)
(2.99999 9.56797e-07 -8.62795e-09)
(2.99998 3.56457e-06 -1.00877e-08)
(2.99994 9.15652e-06 -1.57914e-08)
(2.99986 2.53142e-05 -1.59911e-08)
(2.99964 5.85151e-05 -2.0974e-08)
(2.9992 0.000149806 -2.09289e-08)
(2.99789 0.000354326 -2.69512e-08)
(2.99543 0.000812123 -2.59727e-08)
(2.98722 0.00209871 -6.38757e-08)
(2.97263 0.00438901 9.46571e-10)
(2.91918 0.0113799 -1.48565e-07)
(2.78705 0.0274415 2.067e-08)
(2.42783 0.0713514 -2.41197e-07)
(1.37814 0.198991 -2.30455e-07)
(0.655412 0.384829 -2.63566e-07)
(0.646787 0.417147 -7.0447e-08)
(0.674389 0.413604 -5.59148e-08)
(0.656312 0.429551 -5.92354e-08)
(0.59649 0.459279 -6.16358e-08)
(0.521514 0.501619 -6.38698e-08)
(0.451443 0.549938 -6.33719e-08)
(0.374496 0.60681 -6.53545e-08)
(0.269834 0.680402 -6.67116e-08)
(0.134707 0.769749 -6.96037e-08)
(3 2.49237e-07 -2.4082e-09)
(2.99999 5.08904e-07 -8.65584e-09)
(2.99998 3.71145e-06 -1.01381e-08)
(2.99995 5.60801e-06 -1.62731e-08)
(2.99988 2.56415e-05 -1.5752e-08)
(2.99969 3.58602e-05 -2.16382e-08)
(2.99934 0.00015364 -2.08205e-08)
(2.99818 0.00019753 -2.75952e-08)
(2.99627 0.000939624 -2.64193e-08)
(2.98876 0.000867123 -4.26374e-08)
(2.97663 0.00633984 -4.1493e-08)
(2.92824 0.00357799 -8.78427e-08)
(2.81379 0.0406227 -2.98044e-08)
(2.49335 0.0512865 -2.61565e-07)
(1.52313 0.2181 -1.97027e-07)
(0.757326 0.438632 -2.98641e-07)
(0.656264 0.451684 -5.00594e-08)
(0.681112 0.452288 -4.28798e-08)
(0.677341 0.474328 -5.30295e-08)
(0.633549 0.508005 -5.65535e-08)
(0.573019 0.558711 -5.94124e-08)
(0.512624 0.618859 -5.83015e-08)
(0.450476 0.697 -5.86226e-08)
(0.367299 0.815876 -5.97887e-08)
(0.208471 1.02555 -5.97414e-08)
(3 1.31148e-08 -3.29588e-13)
(2.99998 7.13555e-08 -1.7984e-12)
(2.99996 2.65698e-07 -3.67499e-12)
(2.9999 6.80622e-07 -7.75555e-12)
(2.99977 1.88577e-06 -1.25356e-11)
(2.9994 4.29552e-06 -2.2781e-11)
(2.99869 1.14869e-05 -4.18945e-11)
(2.99643 2.47823e-05 -7.15813e-11)
(2.99256 7.11591e-05 -1.91822e-10)
(2.97768 0.000145399 -3.00626e-10)
(2.95199 0.000460383 -1.08983e-09)
(2.85247 0.000977638 -1.85092e-09)
(2.5887 0.00360074 -7.14785e-09)
(1.93974 0.00859487 -1.51018e-08)
(0.874129 0.024764 -2.24864e-08)
(0.450296 0.0233619 2.8655e-09)
(0.541391 0.0238591 -8.62942e-11)
(0.568868 0.0259082 -1.81402e-09)
(0.516664 0.0279574 -1.83197e-09)
(0.426256 0.0300241 -1.80645e-09)
(0.338772 0.0324899 -1.78828e-09)
(0.268691 0.0355251 -2.04556e-09)
(0.198213 0.0387457 -2.21695e-09)
(0.116906 0.0419956 -2.38203e-09)
(0.0495424 0.0449606 -2.6263e-09)
(3 3.90088e-08 -3.28719e-13)
(2.99998 2.12209e-07 -1.79489e-12)
(2.99996 7.91155e-07 -3.66421e-12)
(2.9999 2.02567e-06 -7.73037e-12)
(2.99977 5.62673e-06 -1.24756e-11)
(2.99941 1.28152e-05 -2.26565e-11)
(2.99871 3.44407e-05 -4.16017e-11)
(2.99648 7.41952e-05 -7.10597e-11)
(2.99266 0.000215249 -1.90509e-10)
(2.97799 0.000438673 -2.98691e-10)
(2.9527 0.0014086 -1.08713e-09)
(2.85485 0.00298758 -1.84744e-09)
(2.59579 0.0111536 -7.14261e-09)
(1.95586 0.0267214 -1.51348e-08)
(0.883487 0.0756938 -2.27966e-08)
(0.446916 0.0678519 2.88826e-09)
(0.540994 0.0662647 -7.45496e-11)
(0.569467 0.0698723 -1.7942e-09)
(0.516843 0.0733847 -1.80912e-09)
(0.426335 0.07691 -1.78237e-09)
(0.338887 0.0809325 -1.76874e-09)
(0.268396 0.0855513 -2.02534e-09)
(0.197175 0.08983 -2.18857e-09)
(0.115131 0.0933481 -2.35686e-09)
(0.0476025 0.0948776 -2.59782e-09)
(3 6.19494e-08 -3.26906e-13)
(2.99998 3.37586e-07 -1.78703e-12)
(2.99996 1.25774e-06 -3.6423e-12)
(2.9999 3.21861e-06 -7.67791e-12)
(2.99978 8.94306e-06 -1.23737e-11)
(2.99942 2.03008e-05 -2.24747e-11)
(2.99874 5.51295e-05 -4.11954e-11)
(2.99658 0.000115857 -7.11286e-11)
(2.99286 0.00035468 -1.88371e-10)
(2.97865 0.00068056 -3.02188e-10)
(2.95417 0.0024139 -1.08977e-09)
(2.8599 0.00492805 -1.84998e-09)
(2.61102 0.0189726 -7.13743e-09)
(1.99166 0.0454978 -1.52004e-08)
(0.905981 0.130178 -2.35379e-08)
(0.443832 0.115294 2.94954e-09)
(0.543745 0.111313 -1.91389e-11)
(0.574613 0.117495 -1.76817e-09)
(0.521699 0.123984 -1.79095e-09)
(0.431464 0.131089 -1.77464e-09)
(0.344313 0.138692 -1.75358e-09)
(0.273355 0.146908 -1.99269e-09)
(0.201051 0.154742 -2.13833e-09)
(0.117495 0.160962 -2.28851e-09)
(0.0480871 0.162986 -2.492e-09)
(3 7.77781e-08 -3.13414e-13)
(2.99999 4.27585e-07 -1.74483e-12)
(2.99996 1.58379e-06 -3.48152e-12)
(2.9999 4.0307e-06 -7.12939e-12)
(2.99979 1.11732e-05 -1.1327e-11)
(2.99945 2.50833e-05 -1.93622e-11)
(2.99879 6.93746e-05 -3.50775e-11)
(2.99673 0.000135825 -4.30673e-11)
(2.99313 0.000473854 -1.95702e-10)
(2.97968 0.000758836 -7.90414e-11)
(2.95634 0.00346228 -1.42946e-09)
(2.86751 0.00647012 -1.34093e-09)
(2.63421 0.026333 -7.73195e-09)
(2.0467 0.0628286 -1.52682e-08)
(0.941922 0.182602 -2.49864e-08)
(0.442038 0.16305 2.88311e-09)
(0.550072 0.156313 1.46665e-10)
(0.584816 0.164762 -1.70267e-09)
(0.531848 0.174282 -1.7577e-09)
(0.442163 0.185473 -1.77253e-09)
(0.355229 0.197035 -1.73036e-09)
(0.283779 0.209252 -1.93029e-09)
(0.21011 0.221273 -2.05818e-09)
(0.123776 0.231081 -2.15997e-09)
(0.0504046 0.234428 -2.32578e-09)
(3 1.0085e-07 -3.16452e-13)
(2.99999 5.52347e-07 -1.75545e-12)
(2.99997 2.05012e-06 -3.53297e-12)
(2.99991 5.23264e-06 -7.25267e-12)
(2.9998 1.44871e-05 -1.17172e-11)
(2.99947 3.28069e-05 -2.04115e-11)
(2.99883 8.89241e-05 -3.6964e-11)
(2.99692 0.000182101 -5.46775e-11)
(2.99338 0.000592347 -1.88983e-10)
(2.9811 0.000956427 -1.4908e-10)
(2.95905 0.00429434 -1.29816e-09)
(2.87744 0.00789623 -1.43682e-09)
(2.66489 0.0318161 -7.23548e-09)
(2.12066 0.0763437 -1.48303e-08)
(0.995803 0.22772 -2.60107e-08)
(0.449867 0.211372 2.18445e-09)
(0.563765 0.203051 1.66489e-10)
(0.602503 0.212412 -1.64852e-09)
(0.549353 0.224075 -1.74518e-09)
(0.460107 0.239251 -1.79126e-09)
(0.372736 0.25504 -1.70469e-09)
(0.300176 0.271861 -1.81548e-09)
(0.224477 0.288904 -1.97065e-09)
(0.134186 0.303414 -2.01384e-09)
(0.0549898 0.309124 -2.12973e-09)
(3 1.26519e-07 -3.20077e-13)
(2.99999 6.87974e-07 -1.76619e-12)
(2.99997 2.56362e-06 -3.58535e-12)
(2.99992 6.57532e-06 -7.38659e-12)
(2.99981 1.81862e-05 -1.20858e-11)
(2.99951 4.16337e-05 -2.14871e-11)
(2.99891 0.000109858 -3.80005e-11)
(2.99715 0.000241634 -6.82055e-11)
(2.99378 0.000677483 -1.65038e-10)
(2.98272 0.00131657 -2.46231e-10)
(2.96226 0.00461624 -1.04034e-09)
(2.8888 0.00888084 -1.44895e-09)
(2.69954 0.0338282 -6.34203e-09)
(2.20829 0.082294 -1.3654e-08)
(1.06908 0.252407 -2.63096e-08)
(0.475613 0.257964 2.56167e-10)
(0.587094 0.254047 -4.35053e-10)
(0.628154 0.263044 -1.63093e-09)
(0.575218 0.275497 -1.75453e-09)
(0.486743 0.294058 -1.87182e-09)
(0.398571 0.314417 -1.70653e-09)
(0.324345 0.336625 -1.74879e-09)
(0.245979 0.360054 -1.86038e-09)
(0.150101 0.381595 -1.84478e-09)
(0.0622123 0.392272 -1.9258e-09)
(3 1.38715e-07 -3.14369e-13)
(2.99999 7.5479e-07 -1.73977e-12)
(2.99997 2.8076e-06 -3.49904e-12)
(2.99992 7.19681e-06 -7.19817e-12)
(2.99983 1.98308e-05 -1.14925e-11)
(2.99955 4.53375e-05 -2.02422e-11)
(2.999 0.000118492 -3.3963e-11)
(2.99739 0.000262886 -6.00677e-11)
(2.99428 0.000698772 -1.31016e-10)
(2.98435 0.00149639 -2.26863e-10)
(2.96549 0.00442733 -7.54161e-10)
(2.90024 0.0092116 -1.00633e-09)
(2.73389 0.0311965 -4.50729e-09)
(2.29743 0.0761598 -9.51711e-09)
(1.16151 0.232192 -1.58792e-08)
(0.528324 0.293011 -5.64511e-09)
(0.621027 0.307136 -2.12121e-09)
(0.659833 0.315154 -1.69997e-09)
(0.608582 0.328006 -1.7854e-09)
(0.522607 0.350329 -1.96323e-09)
(0.434068 0.376254 -1.75998e-09)
(0.357947 0.405072 -1.73583e-09)
(0.276692 0.436726 -1.80995e-09)
(0.174454 0.468644 -1.72377e-09)
(0.0746454 0.489606 -1.69538e-09)
(3 1.49084e-07 -3.1254e-13)
(2.99999 8.11792e-07 -1.73018e-12)
(2.99997 3.01646e-06 -3.47303e-12)
(2.99993 7.72605e-06 -7.13868e-12)
(2.99984 2.12693e-05 -1.13236e-11)
(2.99959 4.85941e-05 -1.98812e-11)
(2.99909 0.000126592 -3.28855e-11)
(2.99763 0.000282369 -5.79821e-11)
(2.99481 0.000728164 -1.22115e-10)
(2.9858 0.00165395 -2.23087e-10)
(2.9688 0.00420337 -6.07089e-10)
(2.90985 0.0100949 -1.13922e-09)
(2.76085 0.0280759 -3.46014e-09)
(2.36305 0.0697946 -7.68783e-09)
(1.25566 0.201744 -1.49816e-08)
(0.574358 0.333627 -1.06317e-08)
(0.637191 0.368008 -4.04281e-09)
(0.675101 0.367038 -1.60855e-09)
(0.635693 0.379561 -1.7457e-09)
(0.559869 0.406211 -2.04357e-09)
(0.475582 0.439504 -1.91759e-09)
(0.400415 0.476921 -1.80894e-09)
(0.318616 0.519576 -1.78226e-09)
(0.21137 0.567532 -1.64722e-09)
(0.0956669 0.610277 -1.4781e-09)
(3 1.75087e-07 -3.16656e-13)
(2.99999 9.56797e-07 -1.74417e-12)
(2.99998 3.56458e-06 -3.53944e-12)
(2.99994 9.15652e-06 -7.26752e-12)
(2.99986 2.53143e-05 -1.18512e-11)
(2.99964 5.85151e-05 -2.09154e-11)
(2.9992 0.000149806 -3.67213e-11)
(2.99789 0.000354326 -6.79348e-11)
(2.99543 0.000812124 -1.2152e-10)
(2.98722 0.00209872 -4.34045e-10)
(2.97263 0.00438902 -2.94224e-10)
(2.91918 0.0113799 -1.80159e-09)
(2.78705 0.0274416 -2.40904e-09)
(2.42783 0.0713515 -7.28937e-09)
(1.37814 0.198991 -1.35901e-08)
(0.65541 0.384829 -1.24784e-08)
(0.646788 0.417147 -1.89261e-09)
(0.674389 0.413604 -1.25409e-09)
(0.656312 0.429551 -1.76321e-09)
(0.59649 0.459278 -1.91121e-09)
(0.521513 0.501619 -2.0442e-09)
(0.451442 0.549938 -1.86713e-09)
(0.374496 0.60681 -1.79816e-09)
(0.269834 0.680402 -1.58596e-09)
(0.134707 0.76975 -1.31494e-09)
(3 2.49234e-07 -3.15722e-13)
(2.99999 5.08914e-07 -1.72007e-12)
(2.99998 3.71144e-06 -3.44747e-12)
(2.99995 5.60806e-06 -7.25983e-12)
(2.99988 2.56415e-05 -1.09622e-11)
(2.99969 3.58604e-05 -1.968e-11)
(2.99934 0.000153641 -3.12797e-11)
(2.99818 0.000197531 -5.47885e-11)
(2.99627 0.000939627 -1.09652e-10)
(2.98876 0.000867138 -1.99581e-10)
(2.97663 0.00633985 -5.07194e-10)
(2.92824 0.00357804 -1.04818e-09)
(2.81379 0.0406228 -2.32787e-09)
(2.49335 0.0512867 -7.42453e-09)
(1.52313 0.2181 -1.20551e-08)
(0.757325 0.438632 -1.45568e-08)
(0.656264 0.451685 -1.33985e-09)
(0.681112 0.452288 -1.04106e-09)
(0.677341 0.474328 -1.77221e-09)
(0.633549 0.508005 -1.92207e-09)
(0.573018 0.558711 -2.04964e-09)
(0.512624 0.618858 -1.94172e-09)
(0.450476 0.697 -1.77746e-09)
(0.367299 0.815876 -1.53182e-09)
(0.208471 1.02555 -1.15226e-09)
(3 1.31148e-08 4.08445e-15)
(2.99998 7.13555e-08 1.82273e-14)
(2.99996 2.65698e-07 6.02136e-14)
(2.9999 6.80622e-07 1.29958e-13)
(2.99977 1.88577e-06 3.69985e-13)
(2.9994 4.29552e-06 7.49399e-13)
(2.99869 1.14868e-05 2.16772e-12)
(2.99643 2.47823e-05 4.05016e-12)
(2.99256 7.11591e-05 1.34616e-11)
(2.97768 0.000145399 2.19872e-11)
(2.95199 0.000460382 8.21614e-11)
(2.85247 0.000977638 1.39472e-10)
(2.5887 0.00360074 5.12405e-10)
(1.93974 0.00859487 1.0143e-09)
(0.874129 0.024764 1.33213e-09)
(0.450296 0.0233619 -6.79117e-10)
(0.541391 0.0238591 -3.82512e-10)
(0.568868 0.0259082 -2.96814e-10)
(0.516664 0.0279574 -3.41838e-10)
(0.426256 0.0300241 -4.51075e-10)
(0.338772 0.0324899 -5.05714e-10)
(0.268691 0.0355251 -6.27713e-10)
(0.198213 0.0387457 -7.11845e-10)
(0.116906 0.0419956 -7.55793e-10)
(0.0495424 0.0449606 -8.82883e-10)
(3 3.90088e-08 3.96506e-15)
(2.99998 2.12209e-07 1.76885e-14)
(2.99996 7.91155e-07 5.85274e-14)
(2.9999 2.02567e-06 1.26251e-13)
(2.99977 5.62673e-06 3.60561e-13)
(2.99941 1.28152e-05 7.30265e-13)
(2.99871 3.44407e-05 2.1198e-12)
(2.99648 7.41951e-05 3.96364e-12)
(2.99266 0.000215249 1.32148e-11)
(2.97799 0.000438673 2.16121e-11)
(2.9527 0.0014086 8.11467e-11)
(2.85485 0.00298758 1.37979e-10)
(2.59579 0.0111536 5.07307e-10)
(1.95586 0.0267214 1.00825e-09)
(0.883487 0.0756938 1.34227e-09)
(0.446916 0.0678519 -6.75974e-10)
(0.540994 0.0662646 -3.77949e-10)
(0.569467 0.0698723 -2.92811e-10)
(0.516843 0.0733847 -3.37055e-10)
(0.426335 0.07691 -4.4403e-10)
(0.338887 0.0809325 -5.01434e-10)
(0.268396 0.0855512 -6.24196e-10)
(0.197175 0.0898299 -7.04499e-10)
(0.115131 0.0933481 -7.53824e-10)
(0.0476025 0.0948777 -8.79005e-10)
(3 6.19493e-08 3.71531e-15)
(2.99998 3.37585e-07 1.65417e-14)
(2.99996 1.25773e-06 5.51369e-14)
(2.9999 3.21861e-06 1.18956e-13)
(2.99978 8.94305e-06 3.43471e-13)
(2.99942 2.03008e-05 6.98085e-13)
(2.99874 5.51295e-05 2.03994e-12)
(2.99658 0.000115857 3.8789e-12)
(2.99286 0.00035468 1.27593e-11)
(2.97865 0.000680559 2.14206e-11)
(2.95417 0.0024139 7.95852e-11)
(2.8599 0.00492804 1.35458e-10)
(2.61102 0.0189726 4.96216e-10)
(1.99166 0.0454978 9.92258e-10)
(0.905981 0.130178 1.36087e-09)
(0.443831 0.115294 -6.7424e-10)
(0.543745 0.111313 -3.74952e-10)
(0.574613 0.117495 -2.90991e-10)
(0.521699 0.123984 -3.3635e-10)
(0.431464 0.131089 -4.44508e-10)
(0.344313 0.138692 -5.05458e-10)
(0.273355 0.146908 -6.25778e-10)
(0.201051 0.154742 -6.98845e-10)
(0.117495 0.160962 -7.42136e-10)
(0.0480872 0.162986 -8.51791e-10)
(3 7.77781e-08 2.56464e-15)
(2.99999 4.27585e-07 1.17415e-14)
(2.99996 1.58379e-06 3.82119e-14)
(2.9999 4.0307e-06 8.07445e-14)
(2.99979 1.11732e-05 2.34081e-13)
(2.99945 2.50833e-05 4.47886e-13)
(2.99879 6.93746e-05 1.49664e-12)
(2.99673 0.000135824 1.7333e-12)
(2.99313 0.000473854 1.26826e-11)
(2.97968 0.000758836 5.25114e-12)
(2.95634 0.00346228 1.00205e-10)
(2.86751 0.00647012 9.63096e-11)
(2.63421 0.026333 5.22585e-10)
(2.0467 0.0628286 9.68769e-10)
(0.941922 0.182602 1.41252e-09)
(0.442037 0.16305 -6.616e-10)
(0.550072 0.156313 -3.81353e-10)
(0.584816 0.164762 -2.9689e-10)
(0.531848 0.174282 -3.40447e-10)
(0.442163 0.185473 -4.48603e-10)
(0.355229 0.197035 -5.13526e-10)
(0.283779 0.209251 -6.20811e-10)
(0.21011 0.221273 -6.88541e-10)
(0.123776 0.231081 -7.14062e-10)
(0.0504046 0.234428 -8.0615e-10)
(3 1.0085e-07 2.7092e-15)
(2.99999 5.52348e-07 1.21475e-14)
(2.99997 2.05012e-06 4.02848e-14)
(2.99991 5.23264e-06 8.62564e-14)
(2.9998 1.44871e-05 2.51098e-13)
(2.99947 3.28069e-05 4.99817e-13)
(2.99883 8.89241e-05 1.55762e-12)
(2.99692 0.000182101 2.40825e-12)
(2.99338 0.000592347 1.1645e-11)
(2.9811 0.000956427 9.43726e-12)
(2.95905 0.00429433 8.66926e-11)
(2.87744 0.00789623 9.77911e-11)
(2.66489 0.0318161 4.65491e-10)
(2.12066 0.0763437 8.98361e-10)
(0.995803 0.22772 1.41296e-09)
(0.449867 0.211372 -6.01487e-10)
(0.563765 0.203051 -3.76122e-10)
(0.602503 0.212412 -3.04842e-10)
(0.549353 0.224075 -3.45502e-10)
(0.460107 0.239251 -4.50389e-10)
(0.372736 0.25504 -5.16999e-10)
(0.300176 0.271861 -5.94253e-10)
(0.224477 0.288904 -6.77024e-10)
(0.134186 0.303414 -6.79417e-10)
(0.0549899 0.309124 -7.54055e-10)
(3 1.26519e-07 2.76728e-15)
(2.99999 6.87974e-07 1.2201e-14)
(2.99997 2.56362e-06 4.10548e-14)
(2.99992 6.57532e-06 8.91394e-14)
(2.99981 1.81862e-05 2.57526e-13)
(2.99951 4.16337e-05 5.31317e-13)
(2.99891 0.000109858 1.51509e-12)
(2.99715 0.000241634 3.05792e-12)
(2.99378 0.000677482 9.31855e-12)
(2.98272 0.00131657 1.50975e-11)