/*--------------------------------*- C++ -*----------------------------------*\
| =========                 |                                                 |
| \\      /  F ield         | OpenFOAM: The Open Source CFD Toolbox           |
|  \\    /   O peration     | Version:  4.1                                   |
|   \\  /    A nd           | Web:      www.OpenFOAM.org                      |
|    \\/     M anipulation  |                                                 |
\*---------------------------------------------------------------------------*/
FoamFile
{
    version     2.0;
    format      ascii;
    class       volScalarField;
    location    "0.74";
    object      Ma;
}
// * * * * * * * * * * * * * * * * * * * * * * * * * * * * * * * * * * * * * //

dimensions      [0 0 0 0 0 0 0];

internalField   nonuniform List<scalar> 
18000
(
5.26521e-12
5.20669e-12
5.13683e-12
5.07938e-12
5.02243e-12
4.96619e-12
4.91055e-12
4.85601e-12
4.80225e-12
4.75028e-12
6.56716e-12
6.33976e-12
6.10979e-12
5.89869e-12
5.69672e-12
5.50297e-12
5.31701e-12
5.13882e-12
4.96733e-12
4.80645e-12
8.28805e-12
7.79215e-12
7.31954e-12
6.88807e-12
6.48652e-12
6.1132e-12
5.76644e-12
5.44256e-12
5.14098e-12
4.86391e-12
1.05924e-11
9.67106e-12
8.83535e-12
8.08645e-12
7.41425e-12
6.80887e-12
6.26265e-12
5.76892e-12
5.32181e-12
4.92222e-12
1.37244e-11
1.21308e-11
1.07486e-11
9.54892e-12
8.50898e-12
7.60338e-12
6.81245e-12
6.11986e-12
5.51075e-12
4.9817e-12
1.80481e-11
1.53911e-11
1.31885e-11
1.13453e-11
9.80651e-12
8.51378e-12
7.42278e-12
6.49728e-12
5.70799e-12
5.0422e-12
2.41093e-11
1.97767e-11
1.633e-11
1.35691e-11
1.13531e-11
9.56082e-12
8.10092e-12
6.90348e-12
5.91444e-12
5.1037e-12
3.28383e-11
2.58439e-11
2.05407e-11
1.64914e-11
1.33838e-11
1.09752e-11
9.09076e-12
7.60397e-12
6.42069e-12
5.49584e-12
4.96518e-09
5.0069e-09
4.71764e-09
4.45472e-09
4.21723e-09
4.00212e-09
3.80664e-09
3.62843e-09
3.46582e-09
3.39355e-09
5.43119e-07
5.95536e-08
5.08626e-08
4.44005e-08
3.89705e-08
3.43826e-08
3.04886e-08
2.71714e-08
2.42423e-08
9.70287e-08
5.61511e-12
5.54924e-12
5.47602e-12
5.41181e-12
5.34891e-12
5.28715e-12
5.22531e-12
5.16554e-12
5.10646e-12
5.04887e-12
7.05754e-12
6.80205e-12
6.55374e-12
6.31851e-12
6.09413e-12
5.8791e-12
5.67404e-12
5.47735e-12
5.28932e-12
5.11103e-12
8.97632e-12
8.41627e-12
7.90124e-12
7.41747e-12
6.97012e-12
6.55541e-12
6.1716e-12
5.81436e-12
5.48226e-12
5.17558e-12
1.15787e-11
1.05329e-11
9.60811e-12
8.76331e-12
8.00891e-12
7.33286e-12
6.72608e-12
6.18004e-12
5.68606e-12
5.24086e-12
1.51686e-11
1.33442e-11
1.17901e-11
1.04235e-11
9.2469e-12
8.22931e-12
7.34546e-12
6.57551e-12
5.90128e-12
5.30893e-12
2.02136e-11
1.71309e-11
1.46113e-11
1.24865e-11
1.07293e-11
9.26543e-12
8.0394e-12
7.00586e-12
6.12943e-12
5.37928e-12
2.74369e-11
2.23218e-11
1.83011e-11
1.50727e-11
1.25158e-11
1.04688e-11
8.81671e-12
7.47345e-12
6.36979e-12
5.45191e-12
3.80417e-11
2.95535e-11
2.31912e-11
1.83485e-11
1.46852e-11
1.18757e-11
9.69653e-12
7.98639e-12
6.62879e-12
5.53141e-12
1.84012e-10
4.13843e-10
3.40755e-10
2.81971e-10
2.35874e-10
1.99217e-10
1.69736e-10
1.4578e-10
1.26152e-10
1.11441e-10
3.77304e-07
5.61943e-08
4.91045e-08
4.31283e-08
3.81622e-08
3.39968e-08
3.04721e-08
2.74656e-08
2.48905e-08
2.38233e-08
5.26547e-13
5.05339e-13
3.87933e-13
3.73045e-13
3.59214e-13
3.46818e-13
3.35568e-13
3.26025e-13
3.17402e-13
3.07935e-13
7.29982e-13
6.60814e-13
5.93072e-13
5.42782e-13
4.97272e-13
4.56713e-13
4.20355e-13
3.88977e-13
3.62641e-13
3.21996e-13
9.24363e-13
8.0934e-13
7.88916e-13
7.05368e-13
6.31182e-13
5.66391e-13
5.10811e-13
4.63537e-13
4.21457e-13
3.4123e-13
1.25235e-12
1.09457e-12
1.09133e-12
9.50366e-13
8.28826e-13
7.26299e-13
6.39839e-13
5.67406e-13
5.04043e-13
3.69207e-13
1.7797e-12
1.56895e-12
1.52799e-12
1.29142e-12
1.09453e-12
9.34078e-13
8.02589e-13
6.94611e-13
6.02187e-13
4.04863e-13
2.63155e-12
2.32897e-12
2.15614e-12
1.76e-12
1.44549e-12
1.19797e-12
1.00195e-12
8.45627e-13
7.14702e-13
4.46803e-13
4.02279e-12
3.52501e-12
3.06435e-12
2.40404e-12
1.90569e-12
1.52986e-12
1.24232e-12
1.0205e-12
8.4113e-13
4.9472e-13
6.40513e-12
5.4157e-12
4.38858e-12
3.29307e-12
2.51012e-12
1.94546e-12
1.53067e-12
1.2217e-12
9.8114e-13
5.47708e-13
2.90204e-10
1.61343e-11
1.29702e-11
9.45217e-12
7.04765e-12
5.36232e-12
4.15589e-12
3.27691e-12
2.62068e-12
2.01235e-12
3.22306e-07
4.74651e-09
3.51155e-09
2.69791e-09
2.10571e-09
1.66676e-09
1.33612e-09
1.08344e-09
8.88105e-10
7.52928e-10
3.83683e-13
3.60327e-13
1.72029e-13
1.51398e-13
1.31079e-13
1.11969e-13
9.40968e-14
7.76977e-14
6.31774e-14
3.74289e-14
5.31548e-13
4.59574e-13
3.85893e-13
3.3606e-13
2.89447e-13
2.47807e-13
2.11073e-13
1.7934e-13
1.52843e-13
7.95916e-14
5.95619e-13
4.89495e-13
5.23505e-13
4.55926e-13
3.95683e-13
3.4445e-13
3.01852e-13
2.67847e-13
2.39061e-13
1.19604e-13
7.29914e-13
6.35761e-13
7.60637e-13
6.58372e-13
5.69316e-13
4.95778e-13
4.35147e-13
3.8586e-13
3.43269e-13
1.71e-13
9.59606e-13
9.45464e-13
1.10798e-12
9.42846e-13
8.03176e-13
6.89539e-13
5.96961e-13
5.21856e-13
4.56472e-13
2.24392e-13
1.34622e-12
1.48785e-12
1.61095e-12
1.33591e-12
1.11086e-12
9.32825e-13
7.90358e-13
6.76884e-13
5.79455e-13
2.80919e-13
1.98759e-12
2.36599e-12
2.33976e-12
1.8764e-12
1.5141e-12
1.23657e-12
1.02069e-12
8.52295e-13
7.12466e-13
3.40677e-13
3.16815e-12
3.76599e-12
3.39985e-12
2.62122e-12
2.04178e-12
1.61521e-12
1.29461e-12
1.05107e-12
8.56506e-13
4.0359e-13
3.22287e-10
7.11655e-12
4.86492e-12
3.5988e-12
2.70518e-12
2.07155e-12
1.61165e-12
1.27329e-12
1.01146e-12
4.70414e-13
3.19978e-07
1.47155e-09
1.31621e-10
8.75178e-11
5.99104e-11
4.19377e-11
2.99567e-11
2.18009e-11
1.61341e-11
1.2122e-11
3.83527e-13
3.5973e-13
1.72051e-13
1.51281e-13
1.30871e-13
1.11687e-13
9.40867e-14
7.76198e-14
6.282e-14
3.68912e-14
5.31612e-13
4.59557e-13
3.86222e-13
3.36427e-13
2.89831e-13
2.47865e-13
2.11074e-13
1.79592e-13
1.52937e-13
7.93082e-14
5.95871e-13
4.89807e-13
5.24423e-13
4.56671e-13
3.96047e-13
3.44923e-13
3.02224e-13
2.67946e-13
2.38942e-13
1.19385e-13
7.30432e-13
6.36715e-13
7.61939e-13
6.59647e-13
5.70313e-13
4.96517e-13
4.35811e-13
3.86391e-13
3.43509e-13
1.70507e-13
9.60188e-13
9.47369e-13
1.11068e-12
9.45001e-13
8.04939e-13
6.91223e-13
5.98007e-13
5.22287e-13
4.57052e-13
2.24626e-13
1.34599e-12
1.49153e-12
1.61505e-12
1.33978e-12
1.11392e-12
9.35411e-13
7.92571e-13
6.7838e-13
5.80704e-13
2.81494e-13
1.98448e-12
2.37293e-12
2.34763e-12
1.88287e-12
1.51961e-12
1.24116e-12
1.02426e-12
8.54978e-13
7.14912e-13
3.42052e-13
3.1637e-12
3.77911e-12
3.41368e-12
2.63269e-12
2.05126e-12
1.6228e-12
1.30061e-12
1.05594e-12
8.60288e-13
4.0608e-13
3.3957e-10
7.58778e-12
4.98644e-12
3.6711e-12
2.74941e-12
2.09898e-12
1.62876e-12
1.28414e-12
1.01832e-12
4.73338e-13
3.39456e-07
1.60096e-09
1.45551e-11
5.68384e-12
3.97057e-12
2.87278e-12
2.13006e-12
1.61433e-12
1.2364e-12
5.88955e-13
3.83572e-13
3.59394e-13
1.72578e-13
1.51808e-13
1.31206e-13
1.11944e-13
9.41121e-14
7.79175e-14
6.31922e-14
3.68196e-14
5.32486e-13
4.60023e-13
3.8746e-13
3.37482e-13
2.90772e-13
2.48554e-13
2.115e-13
1.79859e-13
1.53531e-13
7.98137e-14
5.97737e-13
4.91607e-13
5.26757e-13
4.58573e-13
3.9778e-13
3.46146e-13
3.03114e-13
2.68576e-13
2.39471e-13
1.19916e-13
7.34295e-13
6.4079e-13
7.65773e-13
6.62738e-13
5.72862e-13
4.9842e-13
4.3718e-13
3.87521e-13
3.44241e-13
1.71039e-13
9.67639e-13
9.54973e-13
1.1169e-12
9.49973e-13
8.08899e-13
6.94536e-13
6.0065e-13
5.24373e-13
4.58507e-13
2.25561e-13
1.35986e-12
1.50498e-12
1.62582e-12
1.34796e-12
1.12032e-12
9.40694e-13
7.96778e-13
6.81408e-13
5.83225e-13
2.83213e-13
2.01044e-12
2.39622e-12
2.36602e-12
1.89683e-12
1.53029e-12
1.24969e-12
1.03101e-12
8.601e-13
7.18884e-13
3.44807e-13
3.2172e-12
3.82107e-12
3.44542e-12
2.65614e-12
2.06879e-12
1.63636e-12
1.31127e-12
1.06401e-12
8.66389e-13
4.10154e-13
3.61256e-10
7.80697e-12
5.04502e-12
3.71158e-12
2.77861e-12
2.12075e-12
1.64501e-12
1.2962e-12
1.02767e-12
4.79643e-13
3.70597e-07
1.72738e-09
1.4687e-11
5.15128e-12
3.69364e-12
2.72253e-12
2.04605e-12
1.566e-12
1.20805e-12
5.60287e-13
3.83536e-13
3.59121e-13
1.73155e-13
1.52446e-13
1.31807e-13
1.12513e-13
9.46058e-14
7.81934e-14
6.37548e-14
4.39511e-14
5.33481e-13
4.60657e-13
3.89101e-13
3.38752e-13
2.91894e-13
2.49646e-13
2.12403e-13
1.80534e-13
1.53842e-13
8.22608e-14
6.00016e-13
4.9369e-13
5.29462e-13
4.60949e-13
3.99684e-13
3.47727e-13
3.04207e-13
2.69424e-13
2.40304e-13
1.21607e-13
7.38871e-13
6.45539e-13
7.70133e-13
6.66471e-13
5.76045e-13
5.0099e-13
4.38998e-13
3.88776e-13
3.45655e-13
1.72769e-13
9.76472e-13
9.63807e-13
1.12417e-12
9.5582e-13
8.13565e-13
6.9857e-13
6.03986e-13
5.26968e-13
4.6055e-13
2.27756e-13
1.37669e-12
1.52029e-12
1.63828e-12
1.35791e-12
1.12794e-12
9.46989e-13
8.02157e-13
6.85662e-13
5.8638e-13
2.86215e-13
2.04153e-12
2.42318e-12
2.38692e-12
1.91322e-12
1.54299e-12
1.25991e-12
1.03939e-12
8.66785e-13
7.24009e-13
3.49116e-13
3.26607e-12
3.86883e-12
3.48185e-12
2.68345e-12
2.08946e-12
1.65236e-12
1.32436e-12
1.07455e-12
8.74371e-13
4.16069e-13
3.67568e-10
7.77773e-12
5.10759e-12
3.75748e-12
2.81248e-12
2.14638e-12
1.66525e-12
1.31137e-12
1.03948e-12
4.88231e-13
3.92383e-07
1.72864e-09
1.41569e-11
5.21352e-12
3.74303e-12
2.75948e-12
2.07458e-12
1.58746e-12
1.22455e-12
5.71656e-13
3.83547e-13
3.58049e-13
1.73418e-13
1.52769e-13
1.32658e-13
1.14759e-13
1.01225e-13
1.42719e-13
4.66032e-13
1.35993e-12
5.33956e-13
4.60198e-13
3.89804e-13
3.39635e-13
2.93089e-13
2.51564e-13
2.15947e-13
1.99457e-13
3.16015e-13
8.92549e-13
6.01239e-13
4.9385e-13
5.30639e-13
4.62152e-13
4.01182e-13
3.50019e-13
3.08224e-13
2.78899e-13
3.05143e-13
5.99182e-13
7.41615e-13
6.46467e-13
7.71847e-13
6.68216e-13
5.7789e-13
5.03545e-13
4.43547e-13
3.9639e-13
3.76197e-13
4.47324e-13
9.81501e-13
9.65648e-13
1.12647e-12
9.58233e-13
8.16084e-13
7.01378e-13
6.0886e-13
5.34676e-13
4.80859e-13
3.86158e-13
1.38481e-12
1.52348e-12
1.64171e-12
1.36163e-12
1.13183e-12
9.51394e-13
8.08542e-13
6.95073e-13
6.03687e-13
3.83721e-13
2.05423e-12
2.42877e-12
2.39267e-12
1.9193e-12
1.54909e-12
1.26663e-12
1.04777e-12
8.78153e-13
7.41288e-13
4.15651e-13
3.21619e-12
3.87893e-12
3.49216e-12
2.6941e-12
2.09961e-12
1.66211e-12
1.33527e-12
1.08914e-12
8.93806e-13
4.67001e-13
2.60907e-10
6.81862e-12
5.12011e-12
3.77561e-12
2.82879e-12
2.16152e-12
1.68127e-12
1.33055e-12
1.06134e-12
5.31176e-13
3.19381e-07
9.49376e-10
9.83786e-12
5.22277e-12
3.76705e-12
2.78169e-12
2.09675e-12
1.61176e-12
1.25061e-12
6.11415e-13
4.02251e-13
4.36177e-13
2.40861e-13
1.56872e-13
2.20294e-13
5.90009e-13
1.31379e-12
5.23431e-12
1.99344e-11
4.91182e-11
5.73372e-13
5.98652e-13
4.76726e-13
3.63613e-13
2.99634e-13
5.25589e-13
1.03091e-12
3.29228e-12
1.17553e-11
3.23132e-11
6.80836e-13
7.37723e-13
6.69292e-13
5.2413e-13
3.97284e-13
4.67603e-13
9.28515e-13
2.26349e-12
7.53166e-12
2.12558e-11
8.74059e-13
9.92801e-13
9.57154e-13
7.6595e-13
5.89453e-13
5.26332e-13
8.73385e-13
1.69892e-12
5.22267e-12
1.4447e-11
1.18446e-12
1.39763e-12
1.35442e-12
1.08874e-12
8.51207e-13
6.89007e-13
8.30651e-13
1.42578e-12
3.88253e-12
1.01459e-11
1.67514e-12
2.02432e-12
1.90726e-12
1.51756e-12
1.18593e-12
9.33945e-13
8.96009e-13
1.41148e-12
3.06108e-12
7.34491e-12
2.4449e-12
2.9917e-12
2.6866e-12
2.09117e-12
1.61469e-12
1.25005e-12
1.05939e-12
1.33705e-12
2.53854e-12
5.46713e-12
3.60563e-12
4.48608e-12
3.79835e-12
2.86653e-12
2.16449e-12
1.64421e-12
1.3084e-12
1.34771e-12
2.19946e-12
4.1763e-12
1.31425e-10
6.19691e-12
5.4039e-12
3.92765e-12
2.87614e-12
2.13098e-12
1.63084e-12
1.45589e-12
1.97525e-12
3.27184e-12
6.96488e-08
1.88342e-09
6.98043e-12
5.29369e-12
3.77792e-12
2.72358e-12
2.02037e-12
1.64692e-12
1.85524e-12
2.63736e-12
2.51026e-12
2.35651e-12
1.50521e-12
1.63041e-13
2.7179e-12
9.00638e-12
2.86091e-11
1.21264e-10
3.80436e-10
5.2219e-10
3.53727e-12
3.40945e-12
2.51949e-12
1.13567e-12
1.35516e-12
6.41783e-12
2.02692e-11
7.4567e-11
2.28056e-10
3.35739e-10
4.80439e-12
4.66403e-12
3.68428e-12
2.28384e-12
2.4115e-13
4.17615e-12
1.4315e-11
4.89868e-11
1.44904e-10
2.28853e-10
6.46737e-12
6.23711e-12
5.07493e-12
3.55859e-12
1.39511e-12
2.32605e-12
1.00498e-11
3.37018e-11
9.64596e-11
1.61133e-10
8.69795e-12
8.24412e-12
6.76425e-12
5.02724e-12
2.79522e-12
7.71224e-13
6.92755e-12
2.375e-11
6.65933e-11
1.16297e-10
1.1745e-11
1.08494e-11
8.8523e-12
6.73822e-12
4.29312e-12
1.14778e-12
4.45639e-12
1.67624e-11
4.73037e-11
8.56883e-11
1.59955e-11
1.43071e-11
1.14821e-11
8.77084e-12
5.9661e-12
2.6789e-12
2.43414e-12
1.19905e-11
3.43652e-11
6.42783e-11
2.20894e-11
1.89841e-11
1.48463e-11
1.12287e-11
7.84977e-12
4.28031e-12
1.02819e-12
8.44465e-12
2.53627e-11
4.89489e-11
4.72965e-10
2.54948e-11
1.92355e-11
1.42504e-11
1.00153e-11
5.99362e-12
1.71894e-12
5.69783e-12
1.8918e-11
3.77349e-11
8.48802e-07
2.82873e-09
2.58877e-11
1.8024e-11
1.2528e-11
7.83246e-12
3.23453e-12
3.54105e-12
1.41574e-11
2.93677e-11
3.32038e-12
2.98648e-12
1.96544e-12
1.96533e-12
8.51409e-12
3.0774e-11
1.3905e-10
5.35442e-10
9.95245e-10
1.13983e-09
4.3948e-12
4.09503e-12
3.11896e-12
1.64287e-12
5.30665e-12
2.07727e-11
8.44867e-11
3.12509e-10
6.16104e-10
6.90716e-10
5.69865e-12
5.37678e-12
4.41653e-12
2.71774e-12
2.85208e-12
1.37137e-11
5.41335e-11
1.93138e-10
4.00895e-10
4.43744e-10
7.36496e-12
6.925e-12
5.88078e-12
4.20079e-12
1.94719e-12
8.60488e-12
3.57685e-11
1.24773e-10
2.69045e-10
2.95427e-10
9.5458e-12
8.84559e-12
7.58447e-12
5.83611e-12
3.08684e-12
4.92713e-12
2.38086e-11
8.31201e-11
1.85054e-10
2.02246e-10
1.24727e-11
1.12854e-11
9.62129e-12
7.64829e-12
4.86102e-12
2.54789e-12
1.5488e-11
5.63636e-11
1.29978e-10
1.41685e-10
1.64935e-11
1.44568e-11
1.21181e-11
9.71636e-12
6.77941e-12
2.72419e-12
9.69129e-12
3.87366e-11
9.2559e-11
1.01117e-10
2.21626e-11
1.86707e-11
1.52516e-11
1.2136e-11
8.83601e-12
4.55155e-12
5.4702e-12
2.66505e-11
6.66634e-11
7.32433e-11
2.35549e-10
2.47991e-11
1.92684e-11
1.50371e-11
1.11068e-11
6.65078e-12
2.79452e-12
1.80961e-11
4.83841e-11
5.36177e-11
1.79077e-07
8.28561e-09
5.00244e-11
1.8559e-11
1.36514e-11
8.80184e-12
2.97288e-12
1.18472e-11
3.52218e-11
3.94976e-11
1.0298e-12
1.28103e-12
1.54049e-12
3.20123e-12
8.39916e-12
2.45974e-11
8.58086e-11
2.52127e-10
3.69447e-10
3.19056e-10
1.12486e-12
1.29229e-12
1.42128e-12
2.43894e-12
6.01078e-12
1.72524e-11
5.73229e-11
1.61948e-10
2.25749e-10
1.29091e-10
1.22494e-12
1.34622e-12
1.42878e-12
1.9794e-12
4.32891e-12
1.21822e-11
3.90781e-11
1.07082e-10
1.43614e-10
4.98771e-11
1.33064e-12
1.42986e-12
1.51371e-12
1.80699e-12
3.20186e-12
8.63161e-12
2.71613e-11
7.26185e-11
9.45301e-11
2.3619e-11
1.44368e-12
1.53268e-12
1.63602e-12
1.81676e-12
2.53225e-12
6.1354e-12
1.90592e-11
5.03533e-11
6.37103e-11
1.80604e-11
1.57348e-12
1.6524e-12
1.77469e-12
1.91578e-12
2.23536e-12
4.45434e-12
1.34516e-11
3.56574e-11
4.37355e-11
1.67071e-11
1.72647e-12
1.79087e-12
1.92155e-12
2.05528e-12
2.18675e-12
3.36301e-12
9.52055e-12
2.54044e-11
3.03907e-11
1.54387e-11
1.96557e-12
1.95158e-12
2.08081e-12
2.21e-12
2.26518e-12
2.76456e-12
6.8122e-12
1.82357e-11
2.13087e-11
1.40149e-11
6.04955e-10
9.73786e-12
2.2502e-12
2.37334e-12
2.40287e-12
2.52556e-12
4.96487e-12
1.317e-11
1.50031e-11
1.2599e-11
3.04846e-07
9.47998e-09
2.99706e-11
2.60916e-12
2.55935e-12
2.50138e-12
3.74469e-12
9.54264e-12
1.05343e-11
1.11599e-11
7.80329e-13
1.48544e-12
1.60511e-12
2.5164e-12
4.13773e-12
6.92481e-12
1.4618e-11
5.57536e-11
2.18103e-10
6.16546e-10
7.16225e-13
1.33425e-12
1.38968e-12
2.14278e-12
3.4778e-12
5.80323e-12
1.10913e-11
3.46754e-11
1.32597e-10
3.58877e-10
6.53468e-13
1.19254e-12
1.19639e-12
1.81605e-12
2.91645e-12
4.82367e-12
8.76486e-12
2.29028e-11
8.44776e-11
2.20266e-10
6.0046e-13
1.07115e-12
1.03539e-12
1.5545e-12
2.45845e-12
4.02923e-12
7.0689e-12
1.60425e-11
5.58587e-11
1.41284e-10
5.54398e-13
9.67045e-13
8.98837e-13
1.33117e-12
2.08173e-12
3.39321e-12
5.78321e-12
1.18253e-11
3.80418e-11
9.38176e-11
5.1514e-13
8.7807e-13
7.84275e-13
1.15041e-12
1.78332e-12
2.86698e-12
4.79188e-12
9.06714e-12
2.65496e-11
6.41401e-11
4.81349e-13
8.01628e-13
6.86845e-13
9.97492e-13
1.52756e-12
2.43219e-12
4.02367e-12
7.16689e-12
1.89364e-11
4.49416e-11
6.90262e-13
7.36018e-13
6.05385e-13
8.68112e-13
1.31771e-12
2.08142e-12
3.40475e-12
5.80849e-12
1.37664e-11
3.21945e-11
9.13591e-10
2.76815e-11
5.82139e-13
7.58061e-13
1.14343e-12
1.79138e-12
2.89858e-12
4.79575e-12
1.01804e-11
2.3499e-11
3.02962e-07
2.99075e-08
1.7415e-10
1.99222e-12
9.69406e-13
1.5403e-12
2.47128e-12
4.00768e-12
7.63045e-12
1.7422e-11
1.05242e-12
1.84141e-12
1.63004e-12
2.16899e-12
3.017e-12
4.36846e-12
6.78777e-12
1.2725e-11
5.00022e-11
1.70423e-10
9.79609e-13
1.68843e-12
1.46096e-12
1.93634e-12
2.66906e-12
3.80507e-12
5.72658e-12
1.00881e-11
3.53589e-11
1.03336e-10
9.09252e-13
1.54159e-12
1.29821e-12
1.71226e-12
2.34499e-12
3.31334e-12
4.85661e-12
7.9645e-12
2.5072e-11
6.63311e-11
8.47609e-13
1.41331e-12
1.15934e-12
1.5182e-12
2.0689e-12
2.89793e-12
4.18085e-12
6.43122e-12
1.8082e-11
4.45541e-11
7.94059e-13
1.30146e-12
1.03968e-12
1.35155e-12
1.8358e-12
2.55148e-12
3.63909e-12
5.34552e-12
1.3178e-11
3.09707e-11
7.47382e-13
1.20359e-12
9.35825e-13
1.2088e-12
1.63075e-12
2.25427e-12
3.19712e-12
4.54925e-12
9.70116e-12
2.21082e-11
7.06208e-13
1.1171e-12
8.45929e-13
1.08476e-12
1.45463e-12
2.0035e-12
2.82389e-12
3.93669e-12
7.20492e-12
1.6108e-11
9.8864e-13
1.04207e-12
7.68048e-13
9.76627e-13
1.30146e-12
1.78384e-12
2.50184e-12
3.44589e-12
5.40624e-12
1.19192e-11
1.32465e-09
4.90656e-11
7.59679e-13
8.81229e-13
1.16847e-12
1.59265e-12
2.22745e-12
3.03677e-12
4.09299e-12
8.92903e-12
3.71874e-07
5.25139e-08
4.25397e-10
2.6285e-12
1.00735e-12
1.42551e-12
1.98603e-12
2.68531e-12
3.10811e-12
6.74787e-12
1.45403e-12
2.32128e-12
1.64435e-12
1.89596e-12
2.27532e-12
2.82173e-12
3.7852e-12
5.81276e-12
1.39083e-11
2.74869e-11
1.37531e-12
2.17242e-12
1.52705e-12
1.7655e-12
2.1161e-12
2.59846e-12
3.35199e-12
4.76872e-12
1.10891e-11
2.0406e-11
1.29623e-12
2.02426e-12
1.40375e-12
1.62499e-12
1.94826e-12
2.3795e-12
3.00228e-12
4.00564e-12
8.60408e-12
1.53191e-11
1.22635e-12
1.89192e-12
1.2924e-12
1.49635e-12
1.79487e-12
2.1877e-12
2.72646e-12
3.4669e-12
6.63262e-12
1.16714e-11
1.16443e-12
1.77337e-12
1.1924e-12
1.37932e-12
1.65615e-12
2.01642e-12
2.49942e-12
3.07554e-12
5.10188e-12
8.99297e-12
1.10932e-12
1.66653e-12
1.10263e-12
1.27409e-12
1.52789e-12
1.86089e-12
2.29969e-12
2.77717e-12
3.91459e-12
6.97407e-12
1.06035e-12
1.57064e-12
1.02211e-12
1.17859e-12
1.4116e-12
1.71963e-12
2.12684e-12
2.53395e-12
3.00021e-12
5.43014e-12
1.36744e-12
1.4855e-12
9.49532e-13
1.09185e-12
1.30591e-12
1.59089e-12
1.9691e-12
2.33241e-12
2.29384e-12
4.24449e-12
1.65248e-09
7.13776e-11
9.63886e-13
1.01212e-12
1.20909e-12
1.47264e-12
1.82434e-12
2.15627e-12
1.74683e-12
3.32534e-12
3.0311e-07
7.22669e-08
6.72158e-10
2.96382e-12
1.06525e-12
1.36252e-12
1.68668e-12
1.99323e-12
1.31649e-12
2.59847e-12
2.03801e-12
2.93042e-12
1.60689e-12
1.59955e-12
1.66072e-12
1.79894e-12
2.13956e-12
2.92645e-12
6.33916e-12
8.49789e-12
1.95469e-12
2.79556e-12
1.54746e-12
1.55788e-12
1.62731e-12
1.74502e-12
1.98347e-12
2.49358e-12
5.15869e-12
7.03302e-12
1.87101e-12
2.65657e-12
1.47071e-12
1.49572e-12
1.57407e-12
1.68456e-12
1.86486e-12
2.18427e-12
4.08922e-12
5.73132e-12
1.79527e-12
2.52845e-12
1.39598e-12
1.43105e-12
1.5167e-12
1.62692e-12
1.77766e-12
1.97798e-12
3.22109e-12
4.66925e-12
1.72656e-12
2.40994e-12
1.32403e-12
1.36708e-12
1.45841e-12
1.57009e-12
1.70667e-12
1.83963e-12
2.51906e-12
3.80101e-12
1.66465e-12
2.30089e-12
1.25603e-12
1.30369e-12
1.39839e-12
1.51362e-12
1.64797e-12
1.73982e-12
1.95319e-12
3.09027e-12
1.60828e-12
2.20038e-12
1.19218e-12
1.24223e-12
1.33803e-12
1.45603e-12
1.59208e-12
1.6641e-12
1.4914e-12
2.50783e-12
1.90143e-12
2.10995e-12
1.13199e-12
1.18337e-12
1.27972e-12
1.39805e-12
1.53546e-12
1.60219e-12
1.11836e-12
2.02772e-12
1.91839e-09
9.00187e-11
1.28782e-12
1.12635e-12
1.22249e-12
1.34115e-12
1.47932e-12
1.54753e-12
8.18803e-13
1.63083e-12
9.73299e-08
8.12995e-08
1.50517e-09
7.15563e-12
1.11155e-12
1.28067e-12
1.4205e-12
1.49056e-12
5.66997e-13
1.29861e-12
2.8281e-12
3.62272e-12
1.44896e-12
1.21354e-12
1.06571e-12
1.00347e-12
1.13363e-12
1.52251e-12
3.24663e-12
3.73758e-12
2.74667e-12
3.51678e-12
1.44736e-12
1.24717e-12
1.11823e-12
1.03624e-12
1.07553e-12
1.30596e-12
2.78042e-12
3.29437e-12
2.66351e-12
3.40264e-12
1.42428e-12
1.25639e-12
1.14938e-12
1.06599e-12
1.05155e-12
1.15447e-12
2.28895e-12
2.81728e-12
2.58681e-12
3.2932e-12
1.39338e-12
1.25339e-12
1.16731e-12
1.09238e-12
1.05187e-12
1.06491e-12
1.86702e-12
2.40534e-12
2.51594e-12
3.18949e-12
1.35922e-12
1.24286e-12
1.17539e-12
1.11232e-12
1.06251e-12
1.02202e-12
1.50475e-12
2.04906e-12
2.45029e-12
3.09062e-12
1.32197e-12
1.22575e-12
1.17522e-12
1.12602e-12
1.07852e-12
1.00728e-12
1.19287e-12
1.73949e-12
2.38968e-12
2.99754e-12
1.28332e-12
1.20398e-12
1.16882e-12
1.13354e-12
1.09385e-12
1.00795e-12
9.26788e-13
1.47116e-12
2.66485e-12
2.91223e-12
1.24437e-12
1.17986e-12
1.15684e-12
1.13428e-12
1.10518e-12
1.01716e-12
6.99439e-13
1.24034e-12
2.21951e-09
1.01359e-10
1.58635e-12
1.15365e-12
1.14126e-12
1.12995e-12
1.11108e-12
1.02856e-12
5.05743e-13
1.04194e-12
1.40544e-07
7.52692e-08
1.42818e-09
1.20065e-11
1.08826e-12
1.11799e-12
1.11138e-12
1.03615e-12
3.35734e-13
8.75183e-13
3.77102e-12
4.29833e-12
1.13345e-12
7.61781e-13
4.95322e-13
3.50436e-13
4.84809e-13
7.91127e-13
1.97358e-12
2.00629e-12
3.69703e-12
4.23247e-12
1.17754e-12
8.43273e-13
6.00141e-13
4.20946e-13
4.28774e-13
6.39148e-13
1.80943e-12
1.88644e-12
3.62289e-12
4.15984e-12
1.19905e-12
9.00786e-13
6.84089e-13
4.99937e-13
4.24879e-13
5.22449e-13
1.57269e-12
1.69192e-12
3.55248e-12
4.08561e-12
1.2096e-12
9.43509e-13
7.50497e-13
5.74393e-13
4.57397e-13
4.49177e-13
1.36191e-12
1.51667e-12
3.48587e-12
4.01233e-12
1.2114e-12
9.73926e-13
8.03587e-13
6.40266e-13
5.06556e-13
4.22014e-13
1.17335e-12
1.35837e-12
3.42383e-12
3.94023e-12
1.20654e-12
9.95451e-13
8.46645e-13
6.98199e-13
5.6136e-13
4.32146e-13
1.00696e-12
1.21686e-12
3.36505e-12
3.86972e-12
1.1969e-12
1.0095e-12
8.79589e-13
7.46987e-13
6.1524e-13
4.65106e-13
8.61933e-13
1.09136e-12
3.62014e-12
3.80539e-12
1.1839e-12
1.01719e-12
9.04611e-13
7.87649e-13
6.65093e-13
5.09349e-13
7.37882e-13
9.80788e-13
2.49417e-09
1.0276e-10
1.83229e-12
1.02161e-12
9.24312e-13
8.21259e-13
7.087e-13
5.56942e-13
6.34382e-13
8.85144e-13
4.0085e-07
5.07117e-08
1.25345e-09
1.59288e-11
9.43788e-13
8.4645e-13
7.4639e-13
6.00625e-13
5.52037e-13
8.06501e-13
4.68451e-12
4.82376e-12
7.32616e-13
4.97106e-13
2.72379e-13
1.51038e-13
2.65859e-13
4.76803e-13
1.42545e-12
1.26774e-12
4.62135e-12
4.80211e-12
7.75263e-13
5.35425e-13
3.11403e-13
1.24605e-13
1.62856e-13
3.73328e-13
1.41418e-12
1.28089e-12
4.56034e-12
4.7759e-12
8.06445e-13
5.72183e-13
3.60785e-13
1.6288e-13
7.58955e-14
2.73418e-13
1.31042e-12
1.2069e-12
4.50085e-12
4.74477e-12
8.31352e-13
6.05109e-13
4.10407e-13
2.21074e-13
4.59603e-14
1.80485e-13
1.21639e-12
1.13869e-12
4.44421e-12
4.7106e-12
8.501e-13
6.35344e-13
4.57122e-13
2.81138e-13
1.08881e-13
9.62363e-14
1.13018e-12
1.07583e-12
4.38942e-12
4.67372e-12
8.64314e-13
6.61333e-13
4.99749e-13
3.3744e-13
1.76659e-13
3.08021e-14
1.05187e-12
1.01832e-12
4.3375e-12
4.63624e-12
8.7445e-13
6.83744e-13
5.37728e-13
3.89314e-13
2.38977e-13
6.49352e-14
9.82359e-13
9.66488e-13
4.57814e-12
4.60241e-12
8.80293e-13
7.01766e-13
5.71079e-13
4.35608e-13
2.95686e-13
1.28507e-13
9.20636e-13
9.19956e-13
2.69446e-09
9.58035e-11
1.81176e-12
7.1851e-13
5.99831e-13
4.76376e-13
3.47456e-13
1.88858e-13
8.66901e-13
8.78013e-13
6.36683e-07
2.06071e-08
7.30529e-10
1.19883e-11
6.48389e-13
5.13427e-13
3.94196e-13
2.45435e-13
8.20483e-13
8.51148e-13
5.27241e-12
5.0932e-12
4.46173e-13
5.94727e-13
5.09804e-13
4.40008e-13
4.01148e-13
4.3043e-13
1.19816e-12
9.58037e-13
5.2164e-12
5.09973e-12
4.01111e-13
5.35076e-13
4.56722e-13
3.92392e-13
3.55476e-13
3.93134e-13
1.25955e-12
1.0297e-12
5.1648e-12
5.10603e-12
3.69306e-13
4.82573e-13
4.09551e-13
3.47224e-13
3.12516e-13
3.51463e-13
1.21819e-12
1.00752e-12
5.11426e-12
5.10599e-12
3.51038e-13
4.37818e-13
3.69096e-13
3.0935e-13
2.73923e-13
3.1283e-13
1.1789e-12
9.8565e-13
5.06496e-12
5.1009e-12
3.45173e-13
4.02359e-13
3.3801e-13
2.7889e-13
2.40922e-13
2.77114e-13
1.14141e-12
9.65287e-13
5.01784e-12
5.09269e-12
3.4788e-13
3.74606e-13
3.12602e-13
2.54259e-13
2.13735e-13
2.46031e-13
1.10614e-12
9.45881e-13
4.97227e-12
5.08158e-12
3.55708e-13
3.53632e-13
2.94908e-13
2.37161e-13
1.93648e-13
2.17812e-13
1.07239e-12
9.28088e-13
5.20651e-12
5.07337e-12
3.66364e-13
3.37905e-13
2.82527e-13
2.25998e-13
1.78578e-13
1.94973e-13
1.04108e-12
9.10066e-13
2.79703e-09
8.85799e-11
1.61084e-12
3.26504e-13
2.74611e-13
2.20304e-13
1.71656e-13
1.77118e-13
1.00999e-12
8.93152e-13
7.81884e-07
2.33074e-08
5.91704e-10
9.30389e-12
2.54139e-13
2.22072e-13
1.74789e-13
1.7074e-13
9.81686e-13
9.24007e-13
5.2764e-12
5.06424e-12
4.27836e-13
6.19169e-13
5.39412e-13
4.65747e-13
4.12896e-13
4.2226e-13
1.13244e-12
9.15016e-13
5.22029e-12
5.07276e-12
3.58506e-13
5.50533e-13
4.82486e-13
4.17732e-13
3.72487e-13
3.93308e-13
1.203e-12
9.90125e-13
5.169e-12
5.08222e-12
3.03333e-13
4.88064e-13
4.29263e-13
3.71883e-13
3.32444e-13
3.56711e-13
1.16941e-12
9.71362e-13
5.11883e-12
5.08462e-12
2.64871e-13
4.32291e-13
3.81413e-13
3.30687e-13
2.95678e-13
3.2325e-13
1.13729e-12
9.52748e-13
5.07044e-12
5.08278e-12
2.44565e-13
3.85783e-13
3.40793e-13
2.94608e-13
2.62545e-13
2.91532e-13
1.10646e-12
9.35648e-13
5.02388e-12
5.07688e-12
2.39738e-13
3.4683e-13
3.06612e-13
2.63653e-13
2.3304e-13
2.62263e-13
1.07721e-12
9.19395e-13
4.97894e-12
5.06813e-12
2.46015e-13
3.14503e-13
2.78191e-13
2.38117e-13
2.08155e-13
2.35723e-13
1.04895e-12
9.04274e-13
5.21311e-12
5.06189e-12
2.59236e-13
2.88813e-13
2.55784e-13
2.17577e-13
1.86608e-13
2.11986e-13
1.02226e-12
8.89279e-13
2.79703e-09
8.85799e-11
1.58425e-12
2.67981e-13
2.37242e-13
2.01685e-13
1.71236e-13
1.91865e-13
9.96135e-13
8.75071e-13
7.81884e-07
2.33074e-08
5.91685e-10
9.27995e-12
1.91485e-13
1.941e-13
1.65755e-13
1.80949e-13
9.71033e-13
9.20955e-13
4.68882e-12
4.7437e-12
6.48073e-13
5.1066e-13
3.33496e-13
2.26845e-13
2.61577e-13
4.15353e-13
1.19855e-12
1.12511e-12
4.62744e-12
4.73024e-12
6.74126e-13
5.18589e-13
3.36126e-13
1.94105e-13
1.82229e-13
3.33654e-13
1.21915e-12
1.14958e-12
4.56868e-12
4.71301e-12
6.98203e-13
5.34115e-13
3.56612e-13
1.97655e-13
1.18648e-13
2.49421e-13
1.14302e-12
1.08741e-12
4.51154e-12
4.69066e-12
7.19205e-13
5.52423e-13
3.85015e-13
2.25171e-13
9.06466e-14
1.71397e-13
1.07399e-12
1.0305e-12
4.45678e-12
4.66449e-12
7.38533e-13
5.72167e-13
4.16908e-13
2.63912e-13
1.15344e-13
1.03824e-13
1.01074e-12
9.78369e-13
4.40432e-12
4.63556e-12
7.54387e-13
5.91793e-13
4.49422e-13
3.06201e-13
1.62189e-13
5.80295e-14
9.53971e-13
9.31918e-13
4.35393e-12
4.60485e-12
7.67242e-13
6.10053e-13
4.80488e-13
3.48139e-13
2.12745e-13
7.13895e-14
9.03263e-13
8.90077e-13
4.59582e-12
4.57728e-12
7.7706e-13
6.26569e-13
5.09301e-13
3.87301e-13
2.61365e-13
1.18042e-13
8.58911e-13
8.53052e-13
2.69447e-09
9.58045e-11
1.75413e-12
6.41677e-13
5.35199e-13
4.24112e-13
3.07362e-13
1.69108e-13
8.20783e-13
8.21115e-13
6.36683e-07
2.06071e-08
7.30487e-10
1.1941e-11
5.76804e-13
4.57695e-13
3.50078e-13
2.19594e-13
7.88118e-13
8.14041e-13
3.77146e-12
4.1974e-12
9.90939e-13
6.56005e-13
3.95378e-13
2.18814e-13
3.32344e-13
6.07135e-13
1.47531e-12
1.692e-12
3.70342e-12
4.14761e-12
1.04083e-12
7.34053e-13
4.98669e-13
3.08052e-13
2.91153e-13
4.85053e-13
1.38389e-12
1.60443e-12
3.63509e-12
4.08938e-12
1.07151e-12
7.94096e-13
5.83671e-13
3.97629e-13
3.03871e-13
3.88093e-13
1.21136e-12
1.44127e-12
3.56904e-12
4.02865e-12
1.09088e-12
8.39825e-13
6.52463e-13
4.77645e-13
3.50341e-13
3.30403e-13
1.05579e-12
1.29379e-12
3.50665e-12
3.96678e-12
1.10231e-12
8.76208e-13
7.09287e-13
5.47807e-13
4.09396e-13
3.17777e-13
9.17153e-13
1.16148e-12
3.44759e-12
3.90528e-12
1.10653e-12
9.02795e-13
7.55691e-13
6.09395e-13
4.71218e-13
3.39357e-13
7.95587e-13
1.04328e-12
3.39142e-12
3.84423e-12
1.1059e-12
9.22734e-13
7.92822e-13
6.61538e-13
5.29512e-13
3.81924e-13
6.91104e-13
9.40321e-13
3.64765e-12
3.78834e-12
1.10034e-12
9.36342e-13
8.23433e-13
7.05688e-13
5.83147e-13
4.32155e-13
6.04617e-13
8.49904e-13
2.49418e-09
1.02762e-10
1.77369e-12
9.46793e-13
8.47288e-13
7.42911e-13
6.30423e-13
4.8357e-13
5.35016e-13
7.73541e-13
4.0085e-07
5.07117e-08
1.25342e-09
1.58915e-11
8.71301e-13
7.72073e-13
6.70947e-13
5.30826e-13
4.83763e-13
7.16585e-13
2.8317e-12
3.53161e-12
1.28727e-12
1.03651e-12
8.75518e-13
7.89447e-13
8.62084e-13
1.14279e-12
2.16687e-12
2.99018e-12
2.7598e-12
3.44743e-12
1.30753e-12
1.08939e-12
9.45391e-13
8.45444e-13
8.46999e-13
1.00386e-12
1.88707e-12
2.65914e-12
2.68409e-12
3.35179e-12
1.30417e-12
1.11751e-12
9.94019e-13
8.95091e-13
8.5433e-13
9.0992e-13
1.55514e-12
2.27767e-12
2.61284e-12
3.25828e-12
1.29153e-12
1.13128e-12
1.02782e-12
9.37756e-13
8.76678e-13
8.6267e-13
1.26201e-12
1.94496e-12
2.54646e-12
3.16747e-12
1.27212e-12
1.13629e-12
1.05059e-12
9.7245e-13
9.06635e-13
8.47854e-13
1.00908e-12
1.65497e-12
2.48407e-12
3.07994e-12
1.24851e-12
1.13305e-12
1.06432e-12
9.99671e-13
9.37738e-13
8.5391e-13
7.90047e-13
1.4027e-12
2.42617e-12
2.99576e-12
1.22188e-12
1.12471e-12
1.07041e-12
1.01814e-12
9.65104e-13
8.71101e-13
6.00154e-13
1.18478e-12
2.69991e-12
2.91883e-12
1.19315e-12
1.11103e-12
1.07083e-12
1.03106e-12
9.8642e-13
8.92951e-13
4.35664e-13
9.9733e-13
2.21951e-09
1.01364e-10
1.54619e-12
1.09547e-12
1.06555e-12
1.03704e-12
1.00308e-12
9.14869e-13
2.9629e-13
8.37647e-13
1.40544e-07
7.52692e-08
1.42816e-09
1.19768e-11
1.02406e-12
1.03569e-12
1.01293e-12
9.31739e-13
1.7049e-13
7.05093e-13
2.05626e-12
2.8704e-12
1.45107e-12
1.38276e-12
1.38378e-12
1.44554e-12
1.64266e-12
2.10367e-12
3.73277e-12
6.27988e-12
1.98246e-12
2.76017e-12
1.42415e-12
1.37829e-12
1.39109e-12
1.4443e-12
1.58019e-12
1.87307e-12
3.0968e-12
5.26906e-12
1.90463e-12
2.63959e-12
1.3748e-12
1.34829e-12
1.37382e-12
1.42668e-12
1.52935e-12
1.70742e-12
2.47508e-12
4.31271e-12
1.83306e-12
2.52566e-12
1.32237e-12
1.31124e-12
1.34718e-12
1.40522e-12
1.49437e-12
1.59742e-12
1.9607e-12
3.52414e-12
1.76738e-12
2.41878e-12
1.26875e-12
1.27032e-12
1.3156e-12
1.37934e-12
1.46587e-12
1.52579e-12
1.54022e-12