/*--------------------------------*- C++ -*----------------------------------*\
| =========                 |                                                 |
| \\      /  F ield         | OpenFOAM: The Open Source CFD Toolbox           |
|  \\    /   O peration     | Version:  4.1                                   |
|   \\  /    A nd           | Web:      www.OpenFOAM.org                      |
|    \\/     M anipulation  |                                                 |
\*---------------------------------------------------------------------------*/
FoamFile
{
    version     2.0;
    format      ascii;
    class       surfaceScalarField;
    location    "0.74";
    object      phi;
}
// * * * * * * * * * * * * * * * * * * * * * * * * * * * * * * * * * * * * * //

dimensions      [1 0 -1 0 0 0 0];

internalField   nonuniform List<scalar> 
51500
(
3.6364e-13
1.73582e-14
1.42084e-11
-1.09138e-15
2.16657e-14
1.40497e-11
-3.04692e-15
2.02387e-14
1.38916e-11
-2.88975e-15
1.87405e-14
1.37363e-11
-2.77955e-15
1.72054e-14
1.35823e-11
-2.71437e-15
1.56511e-14
1.34303e-11
-2.8218e-15
1.41135e-14
1.32797e-11
-2.73906e-15
1.26126e-14
1.31322e-11
-2.82703e-15
1.10984e-14
1.29867e-11
9.61231e-15
1.2846e-11
-7.52436e-17
3.65296e-13
9.90992e-15
1.77389e-11
-1.11816e-14
1.0981e-14
1.71232e-11
-1.06754e-14
9.3432e-15
1.65267e-11
-1.04539e-14
7.78581e-15
1.59553e-11
-1.01235e-14
6.36814e-15
1.54085e-11
-9.75544e-15
5.07104e-15
1.4884e-11
-9.47409e-15
4.17095e-15
1.43806e-11
-9.21547e-15
3.39412e-15
1.38981e-11
-8.98574e-15
2.0761e-15
1.34338e-11
8.51546e-16
1.29981e-11
-8.55652e-16
3.62589e-13
1.18936e-14
2.24078e-11
-2.51149e-14
1.31761e-14
2.10655e-11
-2.12285e-14
1.08684e-14
1.98056e-11
-2.00843e-14
8.81151e-15
1.86366e-11
-1.89638e-14
6.98325e-15
1.75489e-11
-1.81232e-14
5.35471e-15
1.65377e-11
-1.71164e-14
3.92572e-15
1.55985e-11
-1.63765e-14
2.64116e-15
1.47212e-11
-1.5718e-14
1.52114e-15
1.39044e-11
5.77249e-16
1.3154e-11
-1.54455e-15
3.52809e-13
1.5674e-14
2.86616e-11
-4.47499e-14
1.62621e-14
2.61666e-11
-3.51079e-14
1.30484e-14
2.39147e-11
-3.24555e-14
1.02658e-14
2.18848e-11
-3.00016e-14
7.92573e-15
2.00632e-11
-2.78344e-14
5.93877e-15
1.84228e-11
-2.58573e-14
4.25719e-15
1.6943e-11
-2.40603e-14
2.80936e-15
1.56055e-11
-2.24832e-14
1.57838e-15
1.43943e-11
5.51727e-16
1.33121e-11
-2.34209e-15
3.30284e-13
2.10654e-14
3.71661e-11
-7.50644e-14
2.04203e-14
3.28477e-11
-5.39095e-14
1.58249e-14
2.91034e-11
-4.83052e-14
1.20782e-14
2.58501e-11
-4.34827e-14
9.05915e-15
2.30309e-11
-3.9276e-14
6.61294e-15
2.05763e-11
-3.57292e-14
4.60578e-15
1.8433e-11
-3.25055e-14
2.97875e-15
1.65564e-11
-2.97334e-14
1.64334e-15
1.49062e-11
5.83653e-16
1.34734e-11
-3.12207e-15
2.85669e-13
2.89611e-14
4.89145e-11
-1.41419e-13
2.61424e-14
4.17077e-11
-7.92473e-14
1.94801e-14
3.5723e-11
-6.87755e-14
1.43206e-14
3.07224e-11
-6.01052e-14
1.04075e-14
2.65493e-11
-5.29354e-14
7.3707e-15
2.30444e-11
-4.68446e-14
5.01832e-15
2.00873e-11
-4.16817e-14
3.163e-15
1.75792e-11
-3.72691e-14
1.71396e-15
1.54408e-11
6.00517e-16
1.36375e-11
-4.00613e-15
1.98265e-13
5.0886e-14
6.53969e-11
-2.23524e-13
4.26321e-14
5.36314e-11
-1.14188e-13
3.03779e-14
4.42491e-11
-9.53515e-14
2.14843e-14
3.67554e-11
-8.07636e-14
1.50664e-14
3.0744e-11
-6.89887e-14
1.03633e-14
2.58834e-11
-5.95407e-14
6.85003e-15
2.19255e-11
-5.16922e-14
4.23404e-15
1.86802e-11
-4.52986e-14
2.24314e-15
1.60002e-11
7.22818e-16
1.38044e-11
-4.8633e-15
1.13786e-13
-4.63669e-13
8.90015e-11
-3.29233e-13
-5.15427e-13
6.9892e-11
-1.61279e-13
-5.35067e-13
5.53579e-11
-1.2926e-13
-5.47613e-13
4.42862e-11
-1.05504e-13
-5.55954e-13
3.57779e-11
-8.73575e-14
-5.61459e-13
2.9169e-11
-7.31285e-14
-5.65044e-13
2.3984e-11
-6.19344e-14
-5.67352e-13
1.9878e-11
-5.27212e-14
-5.68819e-13
1.65947e-11
-5.79288e-13
1.39863e-11
-5.81219e-15
3.52031e-12
-9.15234e-10
1.75988e-10
3.07805e-12
-9.93209e-10
1.37688e-10
2.78999e-12
-1.00145e-09
1.11852e-10
2.53374e-12
-1.0076e-09
9.28426e-11
2.30637e-12
-1.01255e-09
7.86994e-11
2.10537e-12
-1.01657e-09
6.80214e-11
1.92759e-12
-1.01987e-09
5.98606e-11
1.77e-12
-1.0226e-09
5.3553e-11
1.58474e-12
-1.02498e-09
4.86265e-11
-1.05082e-09
4.53071e-11
-6.79014e-15
-4.78705e-10
1.62977e-07
-8.34337e-07
3.33108e-10
1.38791e-07
-9.36267e-07
3.72715e-10
1.21893e-07
-9.38419e-07
3.63117e-10
1.07783e-07
-9.39963e-07
3.52493e-10
9.58828e-08
-9.41318e-07
3.41495e-10
8.57792e-08
-9.42523e-07
3.30438e-10
7.71427e-08
-9.43608e-07
3.1284e-10
6.97126e-08
-9.44592e-07
9.64527e-11
6.32901e-08
-9.45603e-07
5.90279e-08
-7.85895e-15
-9.90378e-07
3.4112e-13
8.82847e-14
7.17777e-13
-1.77745e-14
8.33639e-14
7.05561e-13
-2.51789e-14
7.34994e-14
6.94351e-13
-2.42986e-14
6.39254e-14
6.81363e-13
-2.38727e-14
5.46885e-14
6.69906e-13
-2.36764e-14
4.57336e-14
6.59197e-13
-2.36104e-14
3.70795e-14
6.46944e-13
-2.33486e-14
2.87289e-14
6.36555e-13
-2.52799e-14
2.05908e-14
6.25895e-13
1.28958e-14
6.14689e-13
-1.58597e-15
2.85263e-13
8.22744e-14
9.93449e-13
-6.90787e-14
7.49268e-14
9.43689e-13
-8.42594e-14
6.34346e-14
8.9631e-13
-8.09374e-14
5.24676e-14
8.50434e-13
-7.87803e-14
4.17181e-14
8.0752e-13
-7.65987e-14
2.91417e-14
7.66301e-13
-7.43906e-14
2.05664e-14
7.29026e-13
-7.333e-14
1.34979e-14
6.92474e-13
-7.7013e-14
7.51772e-15
6.59551e-13
2.53134e-15
6.26257e-13
-4.25701e-15
2.02167e-13
1.03898e-13
1.39882e-12
-1.74765e-13
9.27682e-14
1.27623e-12
-1.59694e-13
7.76495e-14
1.17054e-12
-1.51354e-13
6.36712e-14
1.06799e-12
-1.4405e-13
5.10955e-14
9.77974e-13
-1.37408e-13
3.96747e-14
8.9613e-13
-1.31453e-13
2.93188e-14
8.224e-13
-1.26213e-13
2.00081e-14
7.55637e-13
-1.31533e-13
1.1602e-14
6.94266e-13
4.15762e-15
6.39559e-13
-6.80922e-15
8.18966e-14
1.27255e-13
2.00526e-12
-3.02851e-13
1.10471e-13
1.75549e-12
-2.57009e-13
9.03433e-14
1.545e-12
-2.37728e-13
7.25064e-14
1.35549e-12
-2.22036e-13
5.6916e-14
1.19287e-12
-2.07716e-13
4.3275e-14
1.05251e-12
-1.94481e-13
3.14015e-14
9.31839e-13
-1.83273e-13
2.10304e-14
8.27217e-13
-1.87486e-13
1.19627e-14
7.33324e-13
4.14578e-15
6.51705e-13
-9.78666e-15
-3.73492e-14
1.57576e-13
2.93528e-12
-4.6469e-13
1.32663e-13
2.45577e-12
-3.81097e-13
1.05916e-13
2.06659e-12
-3.44524e-13
8.29565e-14
1.73637e-12
-3.14936e-13
6.36073e-14
1.4659e-12
-2.88168e-13
4.73275e-14
1.2439e-12
-2.64431e-13
3.35965e-14
1.05931e-12
-2.44576e-13
2.20475e-14
9.05275e-13
-2.45708e-13
1.23014e-14
7.75791e-13
4.24664e-15
6.66299e-13
-1.28309e-14
-1.69836e-13
1.96663e-13
4.39872e-12
-6.75119e-13
1.61487e-13
3.49333e-12
-5.40089e-13
1.25123e-13
2.80096e-12
-4.76497e-13
9.54829e-14
2.24422e-12
-4.25268e-13
7.14259e-14
1.8135e-12
-3.80696e-13
5.18666e-14
1.47573e-12
-3.4197e-13
3.60264e-14
1.20915e-12
-3.10188e-13
2.31281e-14
9.95662e-13
-3.05944e-13
1.27065e-14
8.24063e-13
4.22608e-15
6.82564e-13
-1.58157e-14
-5.69979e-13
2.53951e-13
6.75557e-12
-9.55371e-13
2.11847e-13
5.06896e-12
-7.43457e-13
1.59898e-13
3.84974e-12
-6.39345e-13
1.19313e-13
2.9284e-12
-5.56747e-13
8.77046e-14
2.25893e-12
-4.86687e-13
6.29315e-14
1.75937e-12
-4.28013e-13
4.3283e-14
1.38295e-12
-3.7988e-13
2.75411e-14
1.09764e-12
-3.68764e-13
1.4441e-14
8.74374e-13
3.58494e-15
7.00393e-13
-1.88107e-14
-1.06118e-12
3.00747e-13
1.06691e-11
-1.32966e-12
2.00248e-13
7.51321e-12
-1.00455e-12
1.38226e-13
5.37215e-12
-8.40069e-13
9.29137e-14
3.86904e-12
-7.12338e-13
5.94135e-14
2.83701e-12
-6.08387e-13
3.42747e-14
2.10953e-12
-5.22537e-13
1.52286e-14
1.591e-12
-4.54831e-13
6.30165e-16
1.2124e-12
-4.33382e-13
-1.06554e-14
9.31431e-13
-1.95056e-14
7.19035e-13
-2.19065e-14
-1.91542e-12
1.53504e-12
2.21204e-11
-1.13257e-12
-5.49072e-11
1.17348e-11
-9.14264e-13
-4.99106e-11
8.12481e-12
-7.70729e-13
-4.55054e-11
5.83031e-12
-6.61758e-13
-4.20203e-11
4.36402e-12
-5.76827e-13
-3.92371e-11
3.39601e-12
-5.11106e-13
-3.70061e-11
2.7404e-12
-4.66589e-13
-3.52126e-11
2.28556e-12
-5.75379e-13
-3.37751e-11
1.95761e-12
-3.30652e-11
1.71942e-12
-2.50713e-14
-1.11435e-09
1.65862e-08
9.65605e-08
-2.37167e-10
9.05022e-09
-1.80872e-09
-3.53402e-10
6.83307e-09
-2.15474e-09
-3.45688e-10
5.26695e-09
-2.14483e-09
-3.36783e-10
4.12244e-09
-2.12188e-09
-3.27304e-10
3.27101e-09
-2.09289e-09
-3.17595e-10
2.62801e-09
-2.06125e-09
-3.07983e-10
2.13572e-09
-2.02942e-09
-3.05559e-10
1.75447e-09
-2.0076e-09
1.47598e-09
-2.84471e-14
-2.59022e-09
3.43064e-13
8.22627e-14
2.69262e-14
-1.63102e-14
7.809e-14
2.52194e-14
-2.26698e-14
6.88747e-14
2.37152e-14
-2.03517e-14
6.00016e-14
2.22733e-14
-1.86173e-14
5.14123e-14
2.00652e-14
-2.04911e-14
4.30467e-14
1.77549e-14
-1.90719e-14
3.50712e-14
1.69571e-14
-1.95278e-14
2.72886e-14
1.59094e-14
-2.35396e-14
1.97707e-14
1.49402e-14
1.26458e-14
1.49205e-14
-1.30733e-15
2.91712e-13
5.9617e-14
4.31266e-14
-6.46782e-14
5.47021e-14
3.90146e-14
-7.28295e-14
4.6402e-14
3.76044e-14
-6.74198e-14
3.84183e-14
3.24175e-14
-6.64271e-14
3.10107e-14
2.87857e-14
-6.26235e-14
2.41895e-14
2.67953e-14
-6.21702e-14
1.78497e-14
2.20346e-14
-6.13427e-14
1.2084e-14
1.98277e-14
-7.13356e-14
6.87548e-15
1.87554e-14
2.42891e-15
1.6732e-14
-4.45412e-15
2.12896e-13
7.6282e-14
6.54933e-14
-1.65255e-13
6.89619e-14
5.90949e-14
-1.38461e-13
5.80786e-14
5.56152e-14
-1.26134e-13
4.80958e-14
4.88206e-14
-1.20071e-13
3.90662e-14
4.1828e-14
-1.13488e-13
3.08559e-14
3.53804e-14
-1.08428e-13
2.3902e-14
3.05293e-14
-1.06531e-13
1.66114e-14
2.69747e-14
-1.21231e-13
9.62002e-15
2.34017e-14
3.33264e-15
1.96317e-14
-7.23965e-15
9.20466e-14
9.48648e-14
1.04724e-13
-2.89185e-13
8.30819e-14
9.48647e-14
-2.2231e-13
6.82652e-14
8.67495e-14
-1.97976e-13
5.5249e-14
7.18965e-14
-1.84496e-13
4.39423e-14
6.01717e-14
-1.71137e-13
3.47795e-14
5.08592e-14
-1.57928e-13
2.5935e-14
4.28232e-14
-1.54735e-13
1.72449e-14
3.61389e-14
-1.73178e-13
9.87285e-15
3.23206e-14
3.49899e-15
2.47381e-14
-1.0425e-14
-2.61778e-14
1.19705e-13
1.76905e-13
-4.46598e-13
1.00896e-13
1.54133e-13
-3.294e-13
8.08797e-14
1.36106e-13
-2.76059e-13
6.37052e-14
1.09867e-13
-2.52781e-13
4.93896e-14
8.87028e-14
-2.29571e-13
3.78478e-14
7.21588e-14
-2.08186e-13
2.80704e-14
5.99923e-14
-2.04544e-13
1.85441e-14
5.09399e-14
-2.27018e-13
1.04792e-14
4.33965e-14
3.68249e-15
3.23166e-14
-1.3113e-14
-1.62997e-13
1.5263e-13
3.04854e-13
-6.52616e-13
1.24952e-13
2.59291e-13
-4.64851e-13
9.67243e-14
2.15515e-13
-3.71368e-13
7.39201e-14
1.66613e-13
-3.30612e-13
5.59415e-14
1.3119e-13
-2.93112e-13
4.17156e-14
1.04161e-13
-2.62215e-13
2.99243e-14
8.42224e-14
-2.564e-13
1.94624e-14
7.00523e-14
-2.83016e-13
1.05617e-14
5.54977e-14
3.61073e-15
4.01213e-14
-1.64927e-14
-5.78009e-13
1.90595e-13
5.35373e-13
-9.30477e-13
1.55228e-13
4.35246e-13
-5.98272e-13
1.16329e-13
3.40044e-13
-4.93192e-13
8.64566e-14
2.54525e-13
-4.28046e-13
6.35999e-14
1.92237e-13
-3.70903e-13
4.7662e-14
1.48068e-13
-3.22596e-13
3.32802e-14
1.17339e-13
-3.03862e-13
2.10233e-14
9.29356e-14
-3.40942e-13
1.15069e-14
7.45625e-14
4.1209e-15
5.05204e-14
-1.96154e-14
-1.10573e-12
3.33527e-13
9.69109e-13
-1.30624e-12
2.25029e-13
7.36232e-13
-7.95824e-13
1.58056e-13
5.41689e-13
-6.47527e-13
1.10547e-13
3.84147e-13
-5.44442e-13
7.65438e-14
2.80286e-13
-4.59592e-13
5.18534e-14
2.09145e-13
-3.91798e-13
3.37386e-14
1.57835e-13
-3.46933e-13
2.03986e-14
1.22197e-13
-4.0113e-13
1.04654e-14
9.71977e-14
3.174e-15
6.22552e-14
-2.29283e-14
-2.2973e-12
5.87063e-11
6.52834e-12
-1.74999e-12
9.00168e-13
1.09567e-12
-1.05879e-12
1.65715e-13
7.21026e-13
-8.43329e-13
-3.58019e-14
5.02549e-13
-6.89965e-13
-1.85458e-13
3.6385e-13
-5.70229e-13
-2.9423e-13
2.73031e-13
-4.75848e-13
-3.72501e-13
2.11002e-13
-4.1204e-13
-4.28064e-13
1.67051e-13
-4.7388e-13
-4.66212e-13
1.35372e-13
-4.88151e-13
9.423e-14
-2.63155e-14
-7.29179e-10
6.55909e-09
8.58711e-08
-4.69338e-11
4.59942e-10
1.9423e-10
-4.71921e-11
2.53297e-10
-7.8185e-11
-3.9917e-11
1.68675e-10
-6.41507e-11
-3.38016e-11
1.15588e-10
-5.09792e-11
-2.88446e-11
8.09823e-11
-3.97665e-11
-2.47928e-11
5.79199e-11
-2.96954e-11
-2.14548e-11
4.22299e-11
-2.36133e-11
-1.87158e-11
3.13308e-11
-1.99319e-11
2.35056e-11
-2.98017e-14
-1.83553e-11
3.43307e-13
8.11191e-14
1.08588e-14
-1.62368e-14
7.70886e-14
9.7698e-15
-2.2172e-14
6.80317e-14
8.18285e-15
-2.00499e-14
5.9253e-14
6.54052e-15
-1.87299e-14
5.0814e-14
5.37814e-15
-1.9561e-14
4.26397e-14
4.19288e-15
-1.81129e-14
3.47065e-14
2.77605e-15
-1.9204e-14
2.7041e-14
1.15772e-15
-2.30755e-14
1.96625e-14
7.62072e-16
1.26231e-14
4.71278e-16
-1.54846e-15
2.93001e-13
5.82144e-14
1.82062e-14
-6.38077e-14
5.35117e-14
1.58021e-14
-7.14625e-14
4.53905e-14
1.63931e-14
-6.45242e-14
3.76894e-14
1.3113e-14
-6.18805e-14
3.0444e-14
9.72279e-15
-6.20877e-14
2.37078e-14
7.28621e-15
-5.8989e-14
1.75758e-14
6.1909e-15
-5.89213e-14
1.19347e-14
4.80332e-15
-7.03395e-14
6.79323e-15
3.76989e-15
2.42751e-15
2.4763e-15
-4.32575e-15
2.16033e-13
7.39662e-14
2.66146e-14
-1.6268e-13
6.69382e-14
2.48144e-14
-1.33663e-13
5.62457e-14
2.6143e-14
-1.16828e-13
4.62854e-14
2.02398e-14
-1.13953e-13
3.73694e-14
1.67448e-14
-1.03643e-13
2.93349e-14
1.38679e-14
-9.85584e-14
2.18087e-14
1.09059e-14
-1.03562e-13
1.50003e-14
9.16405e-15
-1.19452e-13
9.4151e-15
7.90062e-15
3.08929e-15
5.95037e-15
-7.10456e-15
9.60721e-14
9.19939e-14
4.3646e-14
-2.8477e-13
8.04815e-14
4.28846e-14
-2.14339e-13
6.60298e-14
4.46589e-14
-1.79214e-13
5.33063e-14
3.67228e-14
-1.67092e-13
4.20654e-14
2.99184e-14
-1.55598e-13
3.21981e-14
2.50802e-14
-1.44602e-13
2.3566e-14
2.07109e-14
-1.48117e-13
1.5945e-14
1.76004e-14
-1.70867e-13
9.55796e-15
1.48987e-14
3.60892e-15
1.04082e-14
-1.05248e-14
-1.98094e-14
1.15955e-13
7.61899e-14
-4.39224e-13
9.78788e-14
7.83036e-14
-3.11171e-13
7.82529e-14
7.62502e-14
-2.58334e-13
6.13562e-14
6.15201e-14
-2.35049e-13
4.73362e-14
5.11321e-14
-2.13863e-13
3.55129e-14
4.19147e-14
-1.95041e-13
2.55913e-14
3.46524e-14
-1.95571e-13
1.78197e-14
3.04069e-14
-2.2385e-13
9.50808e-15
2.73099e-14
3.54773e-15
1.75691e-14
-1.33598e-14
-1.5396e-13
1.47792e-13
1.36525e-13
-6.41287e-13
1.20999e-13
1.37883e-13
-4.18277e-13
9.34537e-14
1.28877e-13
-3.54804e-13
7.13325e-14
1.03681e-13
-3.15848e-13
5.35479e-14
8.37131e-14
-2.805e-13
3.90883e-14
6.93858e-14
-2.50088e-13
2.7455e-14
5.73527e-14
-2.38928e-13
1.78469e-14
4.77271e-14
-2.78874e-13
1.04953e-14
4.19825e-14
3.69199e-15
2.72106e-14
-1.67065e-14
-5.57934e-13
1.8568e-13
2.43576e-13
-9.13025e-13
1.50597e-13
2.46162e-13
-5.67478e-13
1.12767e-13
2.13297e-13
-4.75261e-13
8.33888e-14
1.67805e-13
-4.12002e-13
6.08891e-14
1.32863e-13
-3.56834e-13
4.35142e-14
1.07407e-13
-3.11922e-13
2.97395e-14
8.65077e-14
-2.82576e-13
1.90398e-14
7.29398e-14
-3.36525e-13
1.09154e-14
6.14413e-14
3.43427e-15
3.9204e-14
-1.99127e-14
-1.0759e-12
3.2706e-13
4.42627e-13
-1.27832e-12
1.81656e-13
4.29832e-13
-7.6562e-13
1.94148e-13
3.48843e-13
-6.25534e-13
1.36349e-13
2.65103e-13
-5.26214e-13
9.47886e-14
2.04159e-13
-4.45372e-13
6.47872e-14
1.59381e-13
-3.79796e-13
4.28451e-14
1.27856e-13
-3.32849e-13
2.66378e-14
1.04237e-13
-3.9659e-13
1.44342e-14
8.51164e-14
5.2729e-15
5.52957e-14
-2.29211e-14
-2.25977e-12
6.04855e-11
9.73527e-12
-1.69912e-12
8.50408e-13
8.08395e-13
-1.02401e-12
2.56629e-13
5.63844e-13
-8.14041e-13
1.64277e-13
4.13448e-13
-6.63727e-13
1.05009e-13
3.06837e-13
-5.46643e-13
6.49867e-14
2.32992e-13
-4.5459e-13
3.78623e-14
1.79449e-13
-3.89008e-13
1.93126e-14
1.41019e-13
-4.58464e-13
6.57147e-15
1.1123e-13
-1.98747e-15
6.84012e-14
-2.64441e-14
-6.78715e-10
9.38262e-09
8.57796e-08
-7.96696e-12
9.81774e-11
2.96334e-10
-2.69302e-12
8.30826e-12
-5.61175e-14
-3.01865e-12
4.62652e-12
-3.49829e-13
-2.30707e-12
2.83347e-12
-1.29774e-13
-1.7847e-12
1.81165e-12
3.23097e-16
-1.40232e-12
1.1966e-12
7.73579e-14
-1.12121e-12
8.14457e-13
1.21349e-13
-9.55653e-13
5.65885e-13
1.44536e-13
3.68622e-13
-3.01046e-14
2.58753e-13
3.43189e-13
8.11973e-14
1.8274e-14
-1.66005e-14
7.71347e-14
1.53855e-14
-2.22466e-14
6.81231e-14
1.23722e-14
-2.05202e-14
5.93306e-14
7.66832e-15
-1.71669e-14
5.08577e-14
6.93824e-15
-2.01635e-14
4.26352e-14
3.48389e-15
-1.91037e-14
3.47614e-14
5.5604e-15
-1.88535e-14
2.71138e-14
4.59025e-15
-2.30565e-14
1.97e-14
8.62496e-16
1.26609e-14
3.32589e-16
-1.83837e-15
2.92705e-13
5.83051e-14
2.58372e-14
-6.39252e-14
5.36165e-14
2.65111e-14
-7.17131e-14
4.54476e-14
1.93508e-14
-6.53867e-14
3.76855e-14
1.67235e-14
-6.28864e-14
3.04959e-14
1.12637e-14
-6.06189e-14
2.37917e-14
9.09767e-15
-5.94643e-14
1.7598e-14
6.36809e-15
-5.94777e-14
1.19669e-14
7.46992e-15
-7.03288e-14
6.84767e-15
6.27461e-15
2.48498e-15
1.54901e-15
-4.3663e-15
2.15701e-13
7.40863e-14
3.84466e-14
-1.63154e-13
6.70242e-14
3.57235e-14
-1.34881e-13
5.63587e-14
3.48369e-14
-1.14594e-13
4.65149e-14
3.21851e-14
-1.11343e-13
3.74724e-14
2.29168e-14
-1.05244e-13
2.9417e-14
1.67467e-14
-9.81204e-14
2.20153e-14
1.51674e-14
-1.03735e-13
1.51298e-14
1.18084e-14
-1.19321e-13
9.06229e-15
1.24691e-14
3.04854e-15
6.20575e-15
-7.42678e-15
9.57339e-14
9.22263e-14
6.42159e-14
-2.85351e-13
8.0778e-14
6.34087e-14
-2.14819e-13
6.62161e-14
6.21738e-14
-1.79764e-13
5.33719e-14
4.99895e-14
-1.66672e-13
4.22136e-14
4.16535e-14
-1.56185e-13
3.22162e-14
3.32156e-14
-1.444e-13
2.35096e-14
3.12245e-14
-1.48698e-13
1.60968e-14
2.5464e-14
-1.70909e-13
1.00287e-14
2.49478e-14
3.77651e-15
1.98601e-14
-1.01564e-14
-2.02635e-14
1.16381e-13
1.09722e-13
-4.4045e-13
9.81616e-14
1.09419e-13
-3.13157e-13
7.85843e-14
1.07232e-13
-2.58013e-13
6.16893e-14
9.05435e-14
-2.35759e-13
4.75504e-14
7.3586e-14
-2.14563e-13
3.58432e-14
6.36823e-14
-1.9472e-13
2.60217e-14
5.67442e-14
-1.93821e-13
1.73922e-14
4.33428e-14
-2.24392e-13
9.40818e-15
3.55076e-14
3.71582e-15
2.4363e-14
-1.32971e-14
-1.55135e-13
1.48411e-13
1.8869e-13
-6.42931e-13
1.21644e-13
2.00421e-13
-4.19366e-13
9.39187e-14
1.80533e-13
-3.55791e-13
7.17329e-14
1.46822e-13
-3.16063e-13
5.39104e-14
1.19962e-13
-2.81319e-13
3.93643e-14
9.95158e-14
-2.50879e-13
2.75546e-14
7.93014e-14
-2.3639e-13
1.83422e-14
7.136e-14
-2.7959e-13
1.07717e-14
5.88537e-14
3.7803e-15
3.72314e-14
-1.66113e-14
-5.60861e-13
1.86526e-13
3.37e-13
-9.16426e-13
1.51495e-13
3.47422e-13
-5.68755e-13
1.13478e-13
3.07776e-13
-4.7684e-13
8.39336e-14
2.35322e-13
-4.12962e-13
6.13366e-14
1.93554e-13
-3.58392e-13
4.37884e-14
1.52179e-13
-3.12279e-13
3.0144e-14
1.26424e-13
-2.83199e-13
1.91389e-14
1.02693e-13
-3.37697e-13
1.11422e-14
8.51238e-14
4.07426e-15
5.53524e-14
-1.98385e-14
-1.0818e-12
3.30755e-13
6.02978e-13
-1.28399e-12
1.89737e-13
6.09168e-13
-7.68265e-13
1.3969e-13
5.01198e-13
-6.28027e-13
1.01411e-13
3.80559e-13
-5.28488e-13
7.28727e-14
2.95946e-13
-4.4695e-13
5.44074e-14
2.3585e-13
-3.81225e-13
3.67167e-14
1.83205e-13
-3.34306e-13
2.31421e-14
1.49093e-13
-3.98076e-13
1.26514e-14
1.22839e-13
4.86897e-15
7.74336e-14
-2.31243e-14
-2.29436e-12
6.37108e-11
1.51383e-11
-1.70288e-12
7.83111e-13
1.18596e-12
-1.02914e-12
1.70902e-13
8.15507e-13
-8.18776e-13
1.73574e-13
5.90674e-13
-6.67169e-13
1.15217e-13
4.43034e-13
-5.49636e-13
7.46142e-14
3.35509e-13
-4.56716e-13
4.59724e-14
2.54926e-13
-3.91012e-13
2.325e-14
2.05359e-13
-4.60731e-13
8.43544e-15
1.62633e-13
3.26141e-15
1.02567e-13
-2.65215e-14
-7.12855e-10
1.49958e-08
9.05174e-08
-5.90408e-12
1.31489e-10
3.30314e-10
-1.42031e-12
2.29624e-12
1.12287e-12
-1.09458e-12
9.83248e-13
1.60866e-13
-8.62025e-13
7.33425e-13
8.47877e-14
-6.85798e-13
4.51963e-13
6.35746e-14
-5.53557e-13
3.42218e-13
4.98563e-14
-4.60556e-13
2.51631e-13
3.99094e-14
-5.32443e-13
1.88771e-13
3.24291e-14
1.17015e-13
-3.00638e-14
2.88839e-14
3.42856e-13
8.13463e-14
2.22609e-14
-1.69231e-14
7.72834e-14
1.4842e-14
-2.28881e-14
6.81859e-14
1.84885e-14
-1.99003e-14
5.94377e-14
1.30783e-14
-1.95061e-14
5.09036e-14
7.62166e-15
-1.92371e-14
4.27003e-14
4.50873e-15
-1.88613e-14
3.47766e-14
2.02498e-15
-1.99009e-14
2.71408e-14
1.20588e-15
-2.30562e-14
1.97707e-14
1.32906e-15
1.26804e-14
1.66794e-15
-1.55128e-15
2.92341e-13
5.84925e-14
3.79082e-14
-6.46246e-14
5.37732e-14
3.41003e-14
-7.11038e-14
4.56267e-14
3.23808e-14
-6.69758e-14
3.78128e-14
2.10189e-14
-6.14309e-14
3.06217e-14
2.11267e-14
-6.14768e-14
2.38676e-14
1.19517e-14
-5.7456e-14
1.76845e-14
8.20704e-15
-5.93546e-14
1.20232e-14
5.34083e-15
-7.0711e-14
6.90884e-15
4.62941e-15
2.54901e-15
4.98938e-15
-4.37627e-15
2.15034e-13
7.44022e-14
4.854e-14
-1.64161e-13
6.72909e-14
5.19736e-14
-1.3493e-13
5.65782e-14
5.46703e-14
-1.15591e-13
4.66532e-14
4.28697e-14
-1.1479e-13
3.76026e-14
3.16651e-14
-1.03912e-13
2.95391e-14
2.6446e-14
-9.89669e-14
2.21852e-14
1.76869e-14
-1.03254e-13
1.53841e-14
1.85785e-14
-1.19626e-13
9.46985e-15
1.20041e-14
3.38571e-15
8.66917e-15
-7.49921e-15
9.49338e-14
9.27271e-14
9.0883e-14
-2.86674e-13
8.11941e-14
8.85061e-14
-2.15745e-13
6.6575e-14
9.21084e-14
-1.80126e-13
5.37285e-14
7.55826e-14
-1.6786e-13
4.25352e-14
5.85625e-14
-1.55629e-13
3.2562e-14
4.18572e-14
-1.45123e-13
2.37326e-14
3.3753e-14
-1.48882e-13
1.6209e-14
3.08876e-14
-1.71068e-13
9.97941e-15
2.592e-14
3.54678e-15
1.50764e-14
-1.02665e-14
-2.17029e-14
1.17134e-13
1.58308e-13
-4.42486e-13
9.88544e-14
1.61743e-13
-3.13861e-13
7.91011e-14
1.59148e-13
-2.59054e-13
6.21075e-14
1.27642e-13
-2.36357e-13
4.78603e-14
1.05218e-13
-2.15612e-13
3.61173e-14
8.48039e-14
-1.95175e-13
2.60766e-14
6.11598e-14
-1.95349e-13
1.76243e-14
5.22954e-14
-2.24826e-13
9.8422e-15
4.35503e-14
3.97829e-15
2.76303e-14
-1.32912e-14
-1.57268e-13
1.49657e-13
2.75932e-13
-6.46471e-13
1.22635e-13
2.88116e-13
-4.2113e-13
9.47847e-14
2.657e-13
-3.57463e-13
7.23674e-14
2.07575e-13
-3.16989e-13
5.4521e-14
1.68568e-13
-2.83341e-13
3.97504e-14
1.32373e-13
-2.51343e-13
2.80523e-14
1.12349e-13
-2.3703e-13
1.85018e-14
8.12598e-14
-2.80623e-13
1.09902e-14
6.83004e-14
3.9091e-15
4.43673e-14
-1.64194e-14
-5.67051e-13
1.88225e-13
4.92649e-13
-9.2196e-13
1.53052e-13
5.05663e-13
-5.73012e-13
1.14648e-13
4.34874e-13
-4.7892e-13
8.49163e-14
3.42713e-13
-4.157e-13
6.20482e-14
2.6671e-13
-3.60103e-13
4.44858e-14
2.11965e-13
-3.14146e-13
3.06762e-14
1.69798e-13
-2.84146e-13
1.96265e-14
1.22777e-13
-3.39233e-13
1.15335e-14
1.02391e-13
4.46454e-15
6.37036e-14
-1.97427e-14
-1.09317e-12
3.35495e-13
8.93768e-13
-1.29367e-12
1.9718e-13
8.86355e-13
-7.74034e-13
1.4026e-13
7.15803e-13
-6.32488e-13
1.01671e-13
5.39044e-13
-5.32056e-13
7.27714e-14
4.1121e-13
-4.5011e-13
5.39171e-14
3.14749e-13
-3.83849e-13
3.68739e-14
2.48481e-13
-3.36353e-13
2.35147e-14
1.78181e-13
-4.00323e-13
1.30096e-14
1.40315e-13
5.18367e-15
8.81181e-14
-2.30237e-14
-2.33656e-12
6.76651e-11
1.96122e-11
-1.71358e-12
8.16087e-13
1.69524e-12
-1.03863e-12
1.75472e-13
1.16694e-12
-8.259e-13
1.65609e-13
8.44129e-13
-6.72965e-13
1.0834e-13
6.18619e-13
-5.54585e-13
6.70288e-14
4.59948e-13
-4.6016e-13
3.16475e-14
3.43637e-13
-3.94262e-13
1.75092e-14
2.56281e-13
-4.6418e-13
9.0637e-15
1.92972e-13
3.73025e-15
1.17052e-13
-2.6545e-14
-7.60977e-10
2.02617e-08
9.76681e-08
-6.09847e-12
1.92933e-10
3.5724e-10
-1.41372e-12
2.50246e-12
1.21052e-12
-1.06547e-12
1.11287e-12
9.01061e-14
-8.43772e-13
7.98303e-13
6.46189e-14
-6.74218e-13
5.8278e-13
4.99007e-14
-5.46315e-13
4.29955e-13
3.93055e-14
-4.55546e-13
3.23778e-13
3.15072e-14
-5.3065e-13
2.45532e-13
2.56625e-14
1.45659e-13
-3.02857e-14
2.12506e-14
3.42336e-13
8.15523e-14
2.93147e-14
-1.71555e-14
7.74856e-14
2.82688e-14
-2.34959e-14
6.83047e-14
2.2394e-14
-1.98465e-14
5.95429e-14
1.79358e-14
-1.99357e-14
5.10219e-14
8.24473e-15
-1.98428e-14
4.27927e-14
6.09659e-15
-1.92399e-14
3.48784e-14
5.66237e-15
-1.95723e-14
2.72285e-14
6.89381e-15
-2.2941e-14
1.98497e-14
1.68452e-14
1.27591e-14
4.7386e-14
-1.74036e-15
2.91794e-13
5.86918e-14
5.06278e-14
-6.52415e-14
5.39597e-14
4.50295e-14
-7.17108e-14
4.58195e-14
4.45763e-14
-6.62197e-14
3.79757e-14
3.48167e-14
-6.40638e-14
3.07123e-14
1.90705e-14
-6.10331e-14
2.39829e-14
1.27553e-14
-5.95912e-14
1.77765e-14
1.11957e-14
-5.90738e-14
1.21445e-14
1.13685e-14
-7.06636e-14
6.99402e-15
1.36803e-14
2.61435e-15
3.47821e-14
-4.50464e-15
2.14267e-13
7.48003e-14
7.36198e-14
-1.65223e-13
6.75812e-14
6.85545e-14
-1.35573e-13
5.68281e-14
6.94734e-14
-1.17423e-13
4.68719e-14
5.59132e-14
-1.11969e-13
3.78061e-14
4.34938e-14
-1.05867e-13
2.96165e-14
2.38694e-14
-9.76371e-14
2.23076e-14
2.04612e-14
-1.04107e-13
1.53712e-14
2.16397e-14
-1.1978e-13
9.77241e-15
2.38216e-14
3.29249e-15
3.16238e-14
-7.64428e-15
9.39025e-14
9.33344e-14
1.17872e-13
-2.88111e-13
8.17316e-14
1.19068e-13
-2.16787e-13
6.70306e-14
1.19829e-13
-1.81242e-13
5.41107e-14
9.68235e-14
-1.68606e-13
4.29414e-14
7.83843e-14
-1.56221e-13
3.29933e-14
5.39479e-14
-1.44981e-13
2.40198e-14
3.77739e-14
-1.48662e-13
1.64853e-14
3.40564e-14
-1.71824e-13
9.63845e-15
3.82069e-14
4.10732e-15
3.72928e-14
-1.0043e-14
-2.34454e-14
1.18071e-13
2.04647e-13
-4.448e-13
9.96699e-14
2.11116e-13
-3.16586e-13
7.97562e-14
2.02601e-13
-2.59986e-13
6.26045e-14
1.65056e-13
-2.37247e-13
4.82536e-14
1.33831e-13
-2.17075e-13
3.64418e-14
1.08117e-13
-1.95491e-13
2.64279e-14
6.73268e-14
-1.97059e-13
1.77042e-14
5.55559e-14
-2.2544e-13
1.02938e-14
6.14801e-14
4.24106e-15
5.00052e-14
-1.34278e-14
-1.59982e-13
1.51165e-13
3.6444e-13
-6.50435e-13
1.23825e-13
3.74064e-13
-4.24443e-13
9.575e-14
3.40725e-13
-3.59257e-13
7.32417e-14
2.75061e-13
-3.18484e-13
5.52176e-14
2.19894e-13
-2.84809e-13
4.03218e-14
1.79586e-13
-2.53123e-13
2.84577e-14
1.11459e-13
-2.37313e-13
1.88747e-14
8.72251e-14
-2.81689e-13
1.14189e-14
7.60763e-14
4.07738e-15
6.79202e-14
-1.66137e-14
-5.74696e-13
1.90904e-13
6.42791e-13
-9.28591e-13
1.54943e-13
6.52175e-13
-5.76956e-13
1.16089e-13
5.64294e-13
-4.8247e-13
8.60159e-14
4.40568e-13
-4.18293e-13
6.2936e-14
3.46591e-13
-3.62438e-13
4.52014e-14
2.76373e-13
-3.1676e-13
3.14123e-14
2.02255e-13
-2.84995e-13
2.01527e-14
1.32612e-13
-3.41198e-13
1.1739e-14
1.06802e-13
4.84479e-15
9.25105e-14
-1.97427e-14
-1.10709e-12
3.35753e-13
1.15082e-12
-1.30492e-12
1.97322e-13
1.12921e-12
-7.80912e-13
1.42585e-13
9.19643e-13
-6.37953e-13
1.03264e-13
6.94105e-13
-5.36501e-13
7.3993e-14
5.29561e-13
-4.5338e-13
5.46332e-14
4.13282e-13
-3.8777e-13
3.76002e-14
3.19213e-13
-3.38839e-13
2.4204e-14
1.95072e-13
-4.03141e-13
1.36352e-14
1.49573e-13
5.66225e-15
1.01348e-13
-2.31024e-14
-2.33068e-12
6.55571e-11
1.80589e-11
-1.73794e-12
7.55883e-13
2.06008e-12
-1.05029e-12
1.80048e-13
1.50116e-12
-8.34609e-13
1.68771e-13
1.08237e-12
-6.80026e-13
1.10617e-13
8.01178e-13
-5.60138e-13
6.87921e-14
6.03845e-13
-4.65331e-13
3.27191e-14
4.61134e-13
-3.97814e-13
1.81836e-14
2.77275e-13
-4.68545e-13
9.51918e-15
2.04782e-13
4.18994e-15
1.27092e-13
-2.65933e-14
-7.45879e-10
1.95688e-08
1.01339e-07
-5.64831e-12
1.49062e-10
3.43401e-10
-1.41157e-12
2.94221e-12
9.4924e-13
-1.07922e-12
1.64233e-12
8.59456e-14
-8.53935e-13
1.17895e-12
6.41205e-14
-6.82263e-13
8.59446e-13
5.01192e-14
-5.53356e-13
6.36563e-13
3.98562e-14
-4.60756e-13
4.35167e-13
3.23062e-14
-5.36761e-13
2.74077e-13
2.651e-14
1.6094e-13
-3.01356e-14
2.23312e-14
3.42063e-13
8.17343e-14
1.97615e-14
-1.78261e-14
7.75125e-14
3.21598e-15
-2.34707e-14
6.84167e-14
6.66174e-15
-2.05462e-14
5.9639e-14
8.61086e-15
-2.03024e-14
5.11339e-14
1.81169e-14
-2.06294e-14
4.29483e-14
3.64591e-14
-2.03255e-14
3.50817e-14
6.81428e-14
-2.00893e-14
2.75407e-14
2.40042e-13
-1.63657e-14
2.03075e-14
9.33457e-13
1.29977e-14
2.75221e-12
-9.91113e-15
2.91085e-13
5.88942e-14
3.04641e-14
-6.55957e-14
5.40599e-14
5.77496e-15
-7.21692e-14
4.58707e-14
1.53918e-14
-6.70157e-14
3.80603e-14
1.5687e-14
-6.43284e-14
3.08333e-14
2.36171e-14
-6.12203e-14
2.41344e-14
3.99256e-14
-6.07256e-14
1.79388e-14
6.37579e-14
-6.29334e-14
1.23486e-14
1.63938e-13
-7.14171e-14
7.33371e-15
5.56289e-13
2.758e-15
1.79756e-12
-9.70057e-15
2.13276e-13
7.50863e-14
4.22591e-14
-1.66084e-13
6.77772e-14
1.07965e-14
-1.35815e-13
5.70616e-14
2.5179e-14
-1.18384e-13
4.70625e-14
2.62481e-14
-1.11682e-13
3.8031e-14
3.14235e-14
-1.06532e-13
2.99168e-14
4.74965e-14
-9.96097e-14
2.26325e-14
7.40908e-14
-1.05498e-13
1.55619e-14
1.31694e-13
-1.237e-13
9.27171e-15
3.68626e-13
3.50921e-15
1.17997e-12
-6.91222e-15
9.30833e-14
9.38703e-14
7.14816e-14
-2.89033e-13
8.20526e-14
2.99977e-14
-2.17729e-13
6.73036e-14
5.00473e-14
-1.81612e-13
5.44145e-14
4.99758e-14
-1.68556e-13
4.32172e-14
5.43619e-14
-1.56699e-13
3.31976e-14
6.50684e-14
-1.47102e-13
2.43955e-14
8.89845e-14
-1.50794e-13
1.69514e-14
1.2624e-13
-1.76394e-13
9.91984e-15
2.78214e-13
4.43956e-15
8.17176e-13
-7.71583e-15
-2.48196e-14
1.1896e-13
1.25535e-13
-4.46156e-13
1.0023e-13
7.66794e-14
-3.16924e-13
8.02687e-14
9.83013e-14
-2.61048e-13
6.31505e-14
9.28255e-14
-2.37808e-13
4.87433e-14
9.05853e-14
-2.17309e-13
3.6991e-14
1.24358e-13
-1.97097e-13
2.66785e-14
1.14157e-13
-2.00638e-13
1.79533e-14
1.39884e-13
-2.3035e-13
1.09479e-14
2.42541e-13
4.19813e-15
6.00258e-13
-9.90072e-15
-1.62403e-13
1.52468e-13
2.24774e-13
-6.525e-13
1.2465e-13
1.67321e-13
-4.24984e-13
9.65369e-14
1.83901e-13
-3.6132e-13
7.39156e-14
1.65284e-13
-3.18853e-13
5.58681e-14
1.51743e-13
-2.87154e-13
4.08536e-14
1.79812e-13
-2.54378e-13
2.8912e-14
1.55602e-13
-2.39834e-13
1.93208e-14
1.79857e-13
-2.87245e-13
1.16301e-14
2.39028e-13
4.77397e-15
4.72844e-13
-1.51964e-14
-5.81416e-13
1.96291e-13
4.06783e-13
-9.31718e-13
1.56327e-13
3.33931e-13
-5.79577e-13
1.17162e-13
3.28146e-13
-4.84931e-13
8.70012e-14
2.80847e-13
-4.19817e-13
6.3752e-14
2.43968e-13
-3.65373e-13
4.59597e-14
2.4416e-13
-3.1856e-13
3.22217e-14
1.70644e-13
-2.88572e-13
2.07884e-14
2.25105e-13
-3.47121e-13
1.23691e-14
2.60148e-13
5.12237e-15
4.00501e-13
-1.85967e-14
-1.118e-12
3.17644e-13
7.23162e-13
-1.31024e-12
1.83848e-13
6.32149e-13
-7.85163e-13
1.45317e-13
5.65984e-13
-6.4192e-13
1.04729e-13
4.62566e-13
-5.39401e-13
7.53489e-14
3.83439e-13
-4.56491e-13
5.57449e-14
3.50884e-13
-3.91706e-13
3.86743e-14
3.77554e-13
-3.42287e-13
2.49161e-14
2.78125e-13
-4.10169e-13
1.43485e-14
3.00775e-13
6.28835e-15
3.64249e-13
-2.23957e-14
-2.10784e-12
3.30858e-11
7.25426e-13
-1.79497e-12
3.91376e-13
1.05023e-12
-1.05882e-12
2.67399e-13
9.45877e-13
-8.40206e-13
1.72328e-13
7.38371e-13
-6.85318e-13
1.1309e-13
5.83781e-13
-5.64206e-13
7.10351e-14
5.23309e-13
-4.72033e-13
3.40686e-14
5.30506e-13
-4.0159e-13
1.90001e-14
3.07377e-13
-4.76593e-13
1.00779e-14
3.5454e-13
4.78513e-15
3.53684e-13
-2.62598e-14
-3.95565e-10
-2.76091e-09
7.86633e-08
-2.85852e-12
-1.04043e-10
1.11797e-10
-1.31316e-12
8.80115e-13
-1.40189e-13
-1.0922e-12
1.17301e-12