/*--------------------------------*- C++ -*----------------------------------*\
| =========                 |                                                 |
| \\      /  F ield         | OpenFOAM: The Open Source CFD Toolbox           |
|  \\    /   O peration     | Version:  4.1                                   |
|   \\  /    A nd           | Web:      www.OpenFOAM.org                      |
|    \\/     M anipulation  |                                                 |
\*---------------------------------------------------------------------------*/
FoamFile
{
    version     2.0;
    format      ascii;
    class       volVectorField;
    location    "0.74";
    object      U;
}
// * * * * * * * * * * * * * * * * * * * * * * * * * * * * * * * * * * * * * //

dimensions      [0 1 -1 0 0 0 0];

internalField   nonuniform List<vector> 
18000
(
(8.61141e-14 3.8625e-13 -5.94372e-12)
(9.1289e-14 3.85608e-13 -5.87734e-12)
(8.23143e-14 -9.78689e-15 -5.81105e-12)
(7.35628e-14 -1.36117e-14 -5.74616e-12)
(6.50502e-14 -1.33576e-14 -5.68183e-12)
(5.67697e-14 -1.29947e-14 -5.61828e-12)
(4.87756e-14 -1.30149e-14 -5.5554e-12)
(4.11216e-14 -1.30094e-14 -5.49376e-12)
(3.366e-14 -1.27935e-14 -5.43299e-12)
(2.65039e-14 -9.5067e-15 -5.37424e-12)
(1.28092e-13 3.97391e-13 -7.41814e-12)
(1.41228e-13 3.84882e-13 -7.16088e-12)
(1.23685e-13 -4.63098e-14 -6.91116e-12)
(1.07061e-13 -4.874e-14 -6.67255e-12)
(9.16589e-14 -4.70885e-14 -6.44426e-12)
(7.73325e-14 -4.52318e-14 -6.22524e-12)
(6.38736e-14 -4.34997e-14 -6.015e-12)
(5.15068e-14 -4.2008e-14 -5.81351e-12)
(3.98744e-14 -4.04114e-14 -5.6196e-12)
(2.90959e-14 -2.95799e-14 -5.43771e-12)
(1.41107e-13 4.00555e-13 -9.36721e-12)
(1.50164e-13 3.71456e-13 -8.80668e-12)
(1.24239e-13 -9.92186e-14 -8.27957e-12)
(1.0099e-13 -9.72399e-14 -7.79168e-12)
(8.0428e-14 -9.08191e-14 -7.33763e-12)
(6.2194e-14 -8.52644e-14 -6.91548e-12)
(4.59419e-14 -8.00942e-14 -6.52332e-12)
(3.15049e-14 -7.52703e-14 -6.15699e-12)
(1.86891e-14 -7.08865e-14 -5.81588e-12)
(7.35426e-15 -5.06105e-14 -5.50263e-12)
(1.91167e-13 3.8969e-13 -1.19761e-11)
(1.91674e-13 3.37028e-13 -1.09347e-11)
(1.53373e-13 -1.75247e-13 -9.99332e-12)
(1.20732e-13 -1.63339e-13 -9.1465e-12)
(9.32255e-14 -1.48381e-13 -8.38641e-12)
(6.99254e-14 -1.35134e-13 -7.70184e-12)
(5.03175e-14 -1.234e-13 -7.08411e-12)
(3.35512e-14 -1.1289e-13 -6.52571e-12)
(1.94151e-14 -1.03193e-13 -6.02e-12)
(7.51487e-15 -7.21871e-14 -5.56837e-12)
(2.64858e-13 3.52992e-13 -1.55211e-11)
(2.48836e-13 2.67714e-13 -1.37195e-11)
(1.91771e-13 -2.85075e-13 -1.21558e-11)
(1.45629e-13 -2.54414e-13 -1.07994e-11)
(1.08764e-13 -2.23354e-13 -9.62358e-12)
(7.9133e-14 -1.97018e-13 -8.5996e-12)
(5.5215e-14 -1.74716e-13 -7.70521e-12)
(3.58829e-14 -1.55583e-13 -6.92197e-12)
(2.02199e-14 -1.38515e-13 -6.23312e-12)
(7.59267e-15 -9.47563e-14 -5.63533e-12)
(3.76208e-13 2.71289e-13 -2.04137e-11)
(3.29651e-13 1.3958e-13 -1.74093e-11)
(2.43221e-13 -4.45334e-13 -1.49125e-11)
(1.77396e-13 -3.79987e-13 -1.28289e-11)
(1.2776e-13 -3.21633e-13 -1.10894e-11)
(8.98434e-14 -2.74443e-13 -9.62788e-12)
(6.07566e-14 -2.35784e-13 -8.39436e-12)
(3.83608e-14 -2.0374e-13 -7.34788e-12)
(2.10657e-14 -1.76591e-13 -6.45538e-12)
(7.68741e-15 -1.18285e-13 -5.70336e-12)
(5.48307e-13 1.10553e-13 -2.72708e-11)
(4.44999e-13 -8.81122e-14 -2.23701e-11)
(3.12181e-13 -6.82948e-13 -1.846e-11)
(2.17414e-13 -5.55316e-13 -1.534e-11)
(1.50113e-13 -4.51132e-13 -1.28357e-11)
(1.01527e-13 -3.71071e-13 -1.081e-11)
(6.61464e-14 -3.08295e-13 -9.15969e-12)
(4.02409e-14 -2.58475e-13 -7.80599e-12)
(2.11497e-14 -2.1799e-13 -6.68782e-12)
(7.01678e-15 -1.42818e-13 -5.77239e-12)
(-2.22372e-12 -1.92336e-13 -3.70851e-11)
(-2.44006e-12 -4.88027e-13 -2.91329e-11)
(-2.48584e-12 -1.03895e-12 -2.30824e-11)
(-2.47307e-12 -8.01662e-13 -1.84758e-11)
(-2.42843e-12 -6.22652e-13 -1.49331e-11)
(-2.36617e-12 -4.92252e-13 -1.21795e-11)
(-2.29503e-12 -3.94597e-13 -1.00179e-11)
(-2.22019e-12 -3.20259e-13 -8.30529e-12)
(-2.14504e-12 -2.62601e-13 -6.93526e-12)
(-2.1062e-12 -1.68359e-13 -5.8478e-12)
(-5.6168e-09 -1.31104e-12 -8.50512e-11)
(-5.66423e-09 -1.22178e-12 -6.85307e-11)
(-5.33709e-09 -1.15918e-12 -5.58533e-11)
(-5.03971e-09 -7.57022e-13 -4.62315e-11)
(-4.77108e-09 -4.91001e-13 -3.88229e-11)
(-4.52775e-09 -3.13431e-13 -3.30193e-11)
(-4.30662e-09 -1.93001e-13 -2.84052e-11)
(-4.10502e-09 -1.10849e-13 -2.46864e-11)
(-3.92105e-09 -1.46085e-13 -2.16512e-11)
(-3.8393e-09 -2.76187e-13 -1.93933e-11)
(6.10897e-07 -1.31673e-09 -6.61397e-08)
(3.42394e-08 -2.09879e-10 -5.80284e-08)
(2.66315e-08 7.86871e-10 -5.10049e-08)
(2.20671e-08 7.21188e-10 -4.51211e-08)
(1.81949e-08 6.55235e-10 -4.01553e-08)
(1.48793e-08 5.96273e-10 -3.59363e-08)
(1.20187e-08 5.43851e-10 -3.23277e-08)
(9.53218e-09 4.96187e-10 -2.92214e-08)
(6.93909e-09 2.23506e-10 -2.65338e-08)
(-1.06946e-07 -2.42922e-10 -2.4761e-08)
(2.56388e-13 3.65399e-13 -6.33706e-12)
(2.40678e-13 3.44648e-13 -6.26415e-12)
(2.11299e-13 -5.04124e-14 -6.19158e-12)
(1.82965e-13 -5.37161e-14 -6.11978e-12)
(1.55758e-13 -5.3176e-14 -6.04935e-12)
(1.29516e-13 -5.24813e-14 -5.98008e-12)
(1.04265e-13 -5.19875e-14 -5.9106e-12)
(8.00143e-14 -5.13793e-14 -5.84335e-12)
(5.65147e-14 -5.02402e-14 -5.77679e-12)
(3.44174e-14 -2.92005e-14 -5.71195e-12)
(5.12585e-13 3.19841e-13 -7.96178e-12)
(4.73409e-13 2.34911e-13 -7.67745e-12)
(4.06128e-13 -1.92088e-13 -7.40107e-12)
(3.43174e-13 -1.89112e-13 -7.13781e-12)
(2.84431e-13 -1.82585e-13 -6.88641e-12)
(2.29625e-13 -1.76276e-13 -6.64512e-12)
(1.78479e-13 -1.70144e-13 -6.41469e-12)
(1.30675e-13 -1.64576e-13 -6.19334e-12)
(8.59712e-14 -1.57451e-13 -5.98148e-12)
(4.48547e-14 -8.95988e-14 -5.78158e-12)
(6.2752e-13 2.38613e-13 -1.01333e-11)
(5.59218e-13 6.39011e-14 -9.50525e-12)
(4.63392e-13 -3.9051e-13 -8.91864e-12)
(3.77166e-13 -3.71114e-13 -8.37519e-12)
(3.00319e-13 -3.48985e-13 -7.87232e-12)
(2.31699e-13 -3.28234e-13 -7.40569e-12)
(1.70351e-13 -3.09327e-13 -6.97341e-12)
(1.15501e-13 -2.91816e-13 -6.57069e-12)
(6.65811e-14 -2.73193e-13 -6.19607e-12)
(2.33674e-14 -1.53227e-13 -5.85344e-12)
(8.13267e-13 1.01657e-13 -1.30741e-11)
(6.99433e-13 -1.97612e-13 -1.18943e-11)
(5.62724e-13 -6.67716e-13 -1.08352e-11)
(4.44939e-13 -6.1455e-13 -9.88546e-12)
(3.44639e-13 -5.61684e-13 -9.03703e-12)
(2.58806e-13 -5.1468e-13 -8.27614e-12)
(1.85408e-13 -4.72477e-13 -7.59272e-12)
(1.22666e-13 -4.34425e-13 -6.97731e-12)
(6.89389e-14 -3.96938e-13 -6.42039e-12)
(2.37426e-14 -2.19201e-13 -5.92524e-12)
(1.07023e-12 -1.23269e-13 -1.71274e-11)
(8.85402e-13 -5.95549e-13 -1.50594e-11)
(6.89413e-13 -1.05519e-12 -1.32792e-11)
(5.28465e-13 -9.39806e-13 -1.17434e-11)
(3.9729e-13 -8.33846e-13 -1.04208e-11)
(2.90048e-13 -7.42647e-13 -9.27618e-12)
(2.0231e-13 -6.63387e-13 -8.28143e-12)
(1.30458e-13 -5.94541e-13 -7.41438e-12)
(7.15175e-14 -5.30198e-13 -6.65505e-12)
(2.40705e-14 -2.88104e-13 -5.99939e-12)
(1.43111e-12 -4.86555e-13 -2.2819e-11)
(1.13659e-12 -1.19867e-12 -1.93108e-11)
(8.53002e-13 -1.59949e-12 -1.64311e-11)
(6.32058e-13 -1.37582e-12 -1.40454e-11)
(4.60242e-13 -1.18233e-12 -1.20723e-11)
(3.26055e-13 -1.02179e-12 -1.04276e-11)
(2.21064e-13 -8.87251e-13 -9.04944e-12)
(1.38751e-13 -7.7417e-13 -7.88709e-12)
(7.42523e-14 -6.73178e-13 -6.90149e-12)
(2.43813e-14 -3.59626e-13 -6.07526e-12)
(1.95059e-12 -1.06631e-12 -3.09615e-11)
(1.47962e-12 -2.11332e-12 -2.51221e-11)
(1.06625e-12 -2.37131e-12 -2.05414e-11)
(7.61293e-13 -1.9624e-12 -1.69223e-11)
(5.35663e-13 -1.62973e-12 -1.40556e-11)
(3.67619e-13 -1.36417e-12 -1.17595e-11)
(2.41899e-13 -1.14978e-12 -9.9055e-12)
(1.4772e-13 -9.75608e-13 -8.39745e-12)
(7.70098e-14 -8.26919e-13 -7.15856e-12)
(2.47262e-14 -4.34458e-13 -6.15274e-12)
(2.68061e-12 -2.00898e-12 -4.29086e-11)
(1.79199e-12 -3.51767e-12 -3.3202e-11)
(1.20335e-12 -3.47122e-12 -2.59793e-11)
(7.95211e-13 -2.75582e-12 -2.05598e-11)
(5.09898e-13 -2.20524e-12 -1.64595e-11)
(3.08427e-13 -1.78444e-12 -1.33131e-11)
(1.65284e-13 -1.45782e-12 -1.08718e-11)
(6.33089e-14 -1.20183e-12 -8.95503e-12)
(-9.5424e-15 -9.92036e-13 -7.43369e-12)
(-6.10755e-14 -5.12046e-13 -6.23678e-12)
(-1.84339e-10 -4.54615e-12 -9.66421e-11)
(-4.61879e-10 -6.54479e-12 -7.64446e-11)
(-3.80563e-10 -5.46302e-12 -6.13737e-11)
(-3.15012e-10 -4.20547e-12 -5.01869e-11)
(-2.63553e-10 -3.2878e-12 -4.17481e-11)
(-2.22599e-10 -2.61271e-12 -3.52451e-11)
(-1.89641e-10 -2.1058e-12 -3.01447e-11)
(-1.62847e-10 -1.7198e-12 -2.60805e-11)
(-1.40886e-10 -1.41477e-12 -2.27927e-11)
(-1.24424e-10 -8.32554e-13 -2.03552e-11)
(4.20681e-07 -2.25161e-09 -7.2389e-08)
(-8.17876e-09 -1.78431e-09 -6.30229e-08)
(-9.10565e-09 -7.19929e-10 -5.47992e-08)
(-8.47861e-09 -6.56805e-10 -4.80472e-08)
(-7.88035e-09 -6.04844e-10 -4.2446e-08)
(-7.33069e-09 -5.56504e-10 -3.77537e-08)
(-6.83302e-09 -5.12287e-10 -3.37873e-08)
(-6.38684e-09 -4.72189e-10 -3.04065e-08)
(-6.01889e-09 -4.40481e-10 -2.7506e-08)
(-8.48742e-09 -4.59053e-10 -2.55775e-08)
(2.31536e-13 3.69142e-13 -4.06209e-13)
(2.18419e-13 3.46248e-13 -3.99091e-13)
(1.91483e-13 -4.90509e-14 -3.91864e-13)
(1.65815e-13 -5.23696e-14 -3.84564e-13)
(1.41212e-13 -5.14511e-14 -3.77591e-13)
(1.17488e-13 -5.10415e-14 -3.7088e-13)
(9.50552e-14 -5.05895e-14 -3.6406e-13)
(7.33728e-14 -4.97403e-14 -3.58045e-13)
(5.26213e-14 -4.88782e-14 -3.51844e-13)
(3.31739e-14 -2.57417e-14 -3.45848e-13)
(5.03469e-13 3.33387e-13 -5.63424e-13)
(4.64669e-13 2.39209e-13 -5.34606e-13)
(3.98141e-13 -1.87923e-13 -5.06346e-13)
(3.35927e-13 -1.84602e-13 -4.79768e-13)
(2.78157e-13 -1.7812e-13 -4.55432e-13)
(2.24339e-13 -1.71599e-13 -4.32683e-13)
(1.74415e-13 -1.65399e-13 -4.10361e-13)
(1.2776e-13 -1.59772e-13 -3.89637e-13)
(8.42189e-14 -1.52725e-13 -3.71365e-13)
(4.45155e-14 -7.96158e-14 -3.52691e-13)
(6.22727e-13 2.64577e-13 -7.97431e-13)
(5.53327e-13 6.91448e-14 -7.26281e-13)
(4.57348e-13 -3.84766e-13 -6.62902e-13)
(3.71148e-13 -3.64963e-13 -6.04901e-13)
(2.94732e-13 -3.41953e-13 -5.53298e-13)
(2.26893e-13 -3.20899e-13 -5.06126e-13)
(1.66474e-13 -3.01665e-13 -4.63973e-13)
(1.12829e-13 -2.8415e-13 -4.26094e-13)
(6.48397e-14 -2.65132e-13 -3.90974e-13)
(2.29798e-14 -1.35982e-13 -3.60584e-13)
(8.16985e-13 1.44723e-13 -1.14852e-12)
(6.99258e-13 -1.956e-13 -1.00316e-12)
(5.60146e-13 -6.63304e-13 -8.77918e-13)
(4.4112e-13 -6.0847e-13 -7.68935e-13)
(3.40311e-13 -5.53823e-13 -6.75842e-13)
(2.54726e-13 -5.05416e-13 -5.95717e-13)
(1.81926e-13 -4.62143e-13 -5.26638e-13)
(1.20039e-13 -4.24086e-13 -4.66727e-13)
(6.73687e-14 -3.86306e-13 -4.14033e-13)
(2.33599e-14 -1.95389e-13 -3.68453e-13)
(1.09068e-12 -5.83089e-14 -1.69151e-12)
(8.95217e-13 -6.05475e-13 -1.40812e-12)
(6.93001e-13 -1.05824e-12 -1.17829e-12)
(5.27997e-13 -9.3784e-13 -9.88132e-13)
(3.94869e-13 -8.27304e-13 -8.32505e-13)
(2.86969e-13 -7.33059e-13 -7.0503e-13)
(1.99372e-13 -6.51986e-13 -5.99726e-13)
(1.28072e-13 -5.82007e-13 -5.12291e-13)
(7.02017e-14 -5.16423e-13 -4.38796e-13)
(2.39265e-14 -2.56966e-13 -3.78424e-13)
(1.48246e-12 -3.96373e-13 -2.55131e-12)
(1.1642e-12 -1.23911e-12 -2.01297e-12)
(8.66705e-13 -1.6212e-12 -1.60347e-12)
(6.3677e-13 -1.3851e-12 -1.28098e-12)
(4.60566e-13 -1.1812e-12 -1.03302e-12)
(3.24274e-13 -1.01397e-12 -8.38848e-13)
(2.18729e-13 -8.75311e-13 -6.86277e-13)
(1.36874e-13 -7.5986e-13 -5.64962e-13)
(7.30403e-14 -6.56902e-13 -4.65794e-13)
(2.43939e-14 -3.22169e-13 -3.88768e-13)
(2.0588e-12 -9.49055e-13 -3.94646e-12)
(1.53851e-12 -2.21962e-12 -2.93447e-12)
(1.09655e-12 -2.43341e-12 -2.21258e-12)
(7.7462e-13 -1.99519e-12 -1.67832e-12)
(5.40232e-13 -1.6403e-12 -1.29076e-12)
(3.67892e-13 -1.36185e-12 -1.00289e-12)
(2.40608e-13 -1.13906e-12 -7.8749e-13)
(1.4623e-13 -9.60555e-13 -6.23668e-13)
(7.59474e-14 -8.08555e-13 -4.96049e-13)
(2.48211e-14 -3.90003e-13 -4.00695e-13)
(3.08303e-12 -1.87182e-12 -6.28521e-12)
(2.0739e-12 -3.75887e-12 -4.3717e-12)
(1.40702e-12 -3.6114e-12 -3.10327e-12)
(9.51243e-13 -2.83236e-12 -2.22564e-12)
(6.37243e-13 -2.23863e-12 -1.62706e-12)
(4.18238e-13 -1.79253e-12 -1.20682e-12)
(2.6418e-13 -1.45109e-12 -9.07467e-13)
(1.55228e-13 -1.18745e-12 -6.9015e-13)
(7.78542e-14 -9.72134e-13 -5.30152e-13)
(2.38998e-14 -4.61285e-13 -4.13064e-13)
(3.28067e-10 -3.9056e-12 -1.24787e-11)
(-1.47729e-11 -6.65985e-12 -8.4029e-12)
(-1.23344e-11 -5.40299e-12 -5.831e-12)
(-8.98594e-12 -4.03564e-12 -4.1624e-12)
(-6.69329e-12 -3.05885e-12 -3.06915e-12)
(-5.08007e-12 -2.36011e-12 -2.32986e-12)
(-3.92295e-12 -1.84795e-12 -1.81738e-12)
(-3.07839e-12 -1.46764e-12 -1.45406e-12)
(-2.45081e-12 -1.17065e-12 -1.18915e-12)
(-1.9678e-12 -5.56075e-13 -1.00096e-12)
(3.64583e-07 -1.20618e-09 -6.69582e-09)
(6.9751e-10 -1.08975e-09 -5.21185e-09)
(-5.19054e-10 -1.39895e-10 -3.93631e-09)
(-4.244e-10 -1.04206e-10 -3.02088e-09)
(-3.45715e-10 -8.24952e-11 -2.35567e-09)
(-2.84865e-10 -6.60345e-11 -1.86291e-09)
(-2.3691e-10 -5.34275e-11 -1.49201e-09)
(-1.98842e-10 -4.36557e-11 -1.20874e-09)
(-1.69494e-10 -3.59701e-11 -9.89721e-10)
(-1.90797e-10 -3.09766e-11 -8.29618e-10)
(2.2681e-13 3.69689e-13 -1.7847e-14)
(2.1422e-13 3.46425e-13 -1.69775e-14)
(1.87835e-13 -4.8807e-14 -1.46987e-14)
(1.62594e-13 -5.21126e-14 -1.3668e-14)
(1.38564e-13 -5.14401e-14 -1.20932e-14)
(1.15529e-13 -5.07837e-14 -1.10212e-14)
(9.33998e-14 -5.01135e-14 -9.92263e-15)
(7.22191e-14 -4.93519e-14 -8.71908e-15)
(5.20381e-14 -4.83002e-14 -8.25022e-15)
(3.30151e-14 -2.51773e-14 -8.32363e-15)
(4.98042e-13 3.35965e-13 -2.71052e-14)
(4.60031e-13 2.41087e-13 -2.43613e-14)
(3.94227e-13 -1.86287e-13 -2.21601e-14)
(3.3273e-13 -1.82975e-13 -1.91946e-14)
(2.75608e-13 -1.76076e-13 -1.65885e-14)
(2.22393e-13 -1.70047e-13 -1.50935e-14)
(1.72977e-13 -1.64123e-13 -1.29764e-14)
(1.26866e-13 -1.57923e-13 -1.15493e-14)
(8.37841e-14 -1.50906e-13 -1.04573e-14)
(4.44972e-14 -7.7684e-14 -9.68179e-15)
(6.15513e-13 2.70851e-13 -4.33171e-14)
(5.47556e-13 7.35086e-14 -3.8365e-14)
(4.52609e-13 -3.80598e-13 -3.28897e-14)
(3.67407e-13 -3.60965e-13 -2.80429e-14)
(2.9185e-13 -3.38577e-13 -2.43179e-14)
(2.24696e-13 -3.17718e-13 -2.07846e-14)
(1.65093e-13 -2.98436e-13 -1.75045e-14)
(1.12005e-13 -2.81151e-13 -1.54463e-14)
(6.45764e-14 -2.62299e-13 -1.34417e-14)
(2.31289e-14 -1.32733e-13 -1.25556e-14)
(8.07551e-13 1.57489e-13 -7.07576e-14)
(6.91841e-13 -1.86967e-13 -6.134e-14)
(5.5447e-13 -6.56122e-13 -5.12823e-14)
(4.36735e-13 -6.01889e-13 -4.25304e-14)
(3.37066e-13 -5.47729e-13 -3.53877e-14)
(2.52492e-13 -4.99963e-13 -3.00354e-14)
(1.80552e-13 -4.57324e-13 -2.50151e-14)
(1.19387e-13 -4.19381e-13 -2.10271e-14)
(6.73445e-14 -3.82032e-13 -1.85005e-14)
(2.37828e-14 -1.91317e-13 -1.61369e-14)
(1.07833e-12 -3.54338e-14 -1.20952e-13)
(8.85944e-13 -5.9102e-13 -9.99339e-14)
(6.86156e-13 -1.04597e-12 -8.05309e-14)
(5.23011e-13 -9.27453e-13 -6.44357e-14)
(3.9144e-13 -8.18378e-13 -5.23944e-14)
(2.84713e-13 -7.25082e-13 -4.22619e-14)
(1.98124e-13 -6.44734e-13 -3.47168e-14)
(1.2772e-13 -5.75653e-13 -2.99385e-14)
(7.01312e-14 -5.10987e-13 -2.61264e-14)
(2.44501e-14 -2.51731e-13 -2.1998e-14)
(1.46599e-12 -3.55381e-13 -2.10507e-13)
(1.1525e-12 -1.21581e-12 -1.6452e-13)
(8.58386e-13 -1.60268e-12 -1.27861e-13)
(6.31142e-13 -1.36977e-12 -9.87515e-14)
(4.56903e-13 -1.16823e-12 -7.75797e-14)
(3.22129e-13 -1.00309e-12 -6.19708e-14)
(2.1775e-13 -8.65834e-13 -4.9839e-14)
(1.36583e-13 -7.52405e-13 -4.10923e-14)
(7.32707e-14 -6.50619e-13 -3.32876e-14)
(2.50186e-14 -3.15561e-13 -2.83911e-14)
(2.03715e-12 -8.77218e-13 -3.70309e-13)
(1.52342e-12 -2.18383e-12 -2.74562e-13)
(1.08657e-12 -2.40542e-12 -2.01493e-13)
(7.68219e-13 -1.97326e-12 -1.50947e-13)
(5.36382e-13 -1.62287e-12 -1.14029e-13)
(3.65875e-13 -1.34745e-12 -8.80559e-14)
(2.39709e-13 -1.1275e-12 -6.92339e-14)
(1.46075e-13 -9.51519e-13 -5.53953e-14)
(7.66518e-14 -8.01157e-13 -4.47942e-14)
(2.56306e-14 -3.82838e-13 -3.6543e-14)
(3.05779e-12 -1.74662e-12 -6.68374e-13)
(2.05241e-12 -3.7055e-12 -4.58923e-13)
(1.3935e-12 -3.57084e-12 -3.20451e-13)
(9.43502e-13 -2.80226e-12 -2.27409e-13)
(6.33438e-13 -2.21524e-12 -1.66089e-13)
(4.17021e-13 -1.77487e-12 -1.23705e-13)
(2.64525e-13 -1.43754e-12 -9.37594e-14)
(1.5666e-13 -1.17653e-12 -7.28849e-14)
(7.99873e-14 -9.63962e-13 -5.81809e-14)
(2.64427e-14 -4.53474e-13 -4.64099e-14)
(3.64605e-10 -3.63214e-12 -1.35465e-12)
(4.64316e-12 -6.53469e-12 -7.5134e-13)
(1.42836e-12 -5.29244e-12 -4.94051e-13)
(9.2451e-13 -3.95058e-12 -3.40331e-13)
(5.9581e-13 -2.99223e-12 -2.41885e-13)
(3.72771e-13 -2.307e-12 -1.77985e-13)
(2.2148e-13 -1.80487e-12 -1.34391e-13)
(1.18446e-13 -1.43189e-12 -1.04233e-13)
(4.80872e-14 -1.14033e-12 -8.26565e-14)
(1.76856e-15 -5.27933e-13 -6.73277e-14)
(3.62011e-07 -1.03433e-09 -6.85266e-10)
(1.34016e-09 -9.6132e-10 -2.27168e-10)
(-1.52871e-11 -2.15859e-11 -1.46544e-10)
(-1.33171e-11 -1.05293e-11 -9.75486e-11)
(-9.51823e-12 -7.45104e-12 -6.66942e-11)
(-6.95713e-12 -5.40438e-12 -4.6622e-11)
(-5.17416e-12 -3.99297e-12 -3.32559e-11)
(-3.91171e-12 -3.00351e-12 -2.41668e-11)
(-3.0272e-12 -2.28373e-12 -1.78554e-11)
(-2.89328e-12 -1.33905e-12 -1.33387e-11)
(2.27052e-13 3.69593e-13 -1.12561e-14)
(2.14359e-13 3.45812e-13 -1.01441e-14)
(1.88083e-13 -4.95582e-14 -7.67137e-15)
(1.62772e-13 -5.26147e-14 -5.56714e-15)
(1.38665e-13 -5.17247e-14 -4.38775e-15)
(1.15501e-13 -5.11435e-14 -3.24763e-15)
(9.35311e-14 -5.07561e-14 -2.57851e-15)
(7.24029e-14 -4.96702e-14 -1.55672e-15)
(5.21284e-14 -4.83084e-14 -4.83722e-16)
(3.31101e-14 -2.54076e-14 -4.44643e-16)
(4.98808e-13 3.35657e-13 -1.62665e-14)
(4.60697e-13 2.4057e-13 -1.44604e-14)
(3.94855e-13 -1.86808e-13 -1.12016e-14)
(3.33161e-13 -1.83813e-13 -9.50494e-15)
(2.76015e-13 -1.76905e-13 -6.51272e-15)
(2.22713e-13 -1.70338e-13 -4.79296e-15)
(1.73287e-13 -1.64259e-13 -4.14964e-15)
(1.27241e-13 -1.58371e-13 -3.53107e-15)
(8.41287e-14 -1.51178e-13 -2.49618e-15)
(4.48834e-14 -7.76809e-14 -1.4328e-15)
(6.16909e-13 2.7054e-13 -2.66127e-14)
(5.48859e-13 7.26613e-14 -2.36319e-14)
(4.53688e-13 -3.81863e-13 -1.9243e-14)
(3.68318e-13 -3.62014e-13 -1.51263e-14)
(2.92675e-13 -3.39062e-13 -1.22113e-14)
(2.25495e-13 -3.1834e-13 -9.73302e-15)
(1.657e-13 -2.98992e-13 -7.82982e-15)
(1.12572e-13 -2.81394e-13 -6.52483e-15)
(6.51363e-14 -2.62299e-13 -5.96551e-15)
(2.36848e-14 -1.32868e-13 -5.34047e-15)
(8.10059e-13 1.56973e-13 -4.56109e-14)
(6.94171e-13 -1.88302e-13 -3.98218e-14)
(5.56369e-13 -6.57618e-13 -3.30624e-14)
(4.3838e-13 -6.03378e-13 -2.6954e-14)
(3.38479e-13 -5.48886e-13 -2.19692e-14)
(2.53634e-13 -5.00897e-13 -1.80821e-14)
(1.81573e-13 -4.58155e-13 -1.53628e-14)
(1.20372e-13 -4.20047e-13 -1.30671e-14)
(6.83103e-14 -3.82419e-13 -1.12599e-14)
(2.45171e-14 -1.91048e-13 -1.05959e-14)
(1.08277e-12 -3.61398e-14 -8.00303e-14)
(8.89731e-13 -5.93612e-13 -6.93394e-14)
(6.89293e-13 -1.04915e-12 -5.62024e-14)
(5.25591e-13 -9.29922e-13 -4.54827e-14)
(3.93604e-13 -8.20357e-13 -3.7853e-14)
(2.86571e-13 -7.26958e-13 -3.12271e-14)
(1.99706e-13 -6.45913e-13 -2.55883e-14)
(1.2905e-13 -5.76208e-13 -2.21885e-14)
(7.14101e-14 -5.11769e-13 -1.9466e-14)
(2.55062e-14 -2.52292e-13 -1.67996e-14)
(1.47342e-12 -3.57643e-13 -1.41598e-13)
(1.15871e-12 -1.22109e-12 -1.17905e-13)
(8.63286e-13 -1.60767e-12 -9.42064e-14)
(6.3518e-13 -1.37421e-12 -7.54073e-14)
(4.60116e-13 -1.17168e-12 -6.09601e-14)
(3.24844e-13 -1.00593e-12 -5.06638e-14)
(2.19967e-13 -8.68323e-13 -4.10035e-14)
(1.38433e-13 -7.54124e-13 -3.44357e-14)
(7.47698e-14 -6.52033e-13 -2.996e-14)
(2.6317e-14 -3.16359e-13 -2.54816e-14)
(2.04962e-12 -8.81251e-13 -2.51581e-13)
(1.53353e-12 -2.19427e-12 -2.02157e-13)
(1.09411e-12 -2.41519e-12 -1.55976e-13)
(7.74056e-13 -1.98091e-12 -1.21054e-13)
(5.41003e-13 -1.62905e-12 -9.64875e-14)
(3.69435e-13 -1.35254e-12 -7.71511e-14)
(2.42615e-13 -1.13143e-12 -6.21663e-14)
(1.48491e-13 -9.54448e-13 -5.1369e-14)
(7.85367e-14 -8.0385e-13 -4.31422e-14)
(2.72663e-14 -3.84319e-13 -3.62503e-14)
(3.08684e-12 -1.75499e-12 -4.50436e-13)
(2.06804e-12 -3.72633e-12 -3.43637e-13)
(1.40493e-12 -3.5886e-12 -2.53357e-13)
(9.52151e-13 -2.81578e-12 -1.90967e-13)
(6.39955e-13 -2.22592e-12 -1.4671e-13)
(4.21995e-13 -1.78316e-12 -1.1438e-13)
(2.68408e-13 -1.44394e-12 -9.066e-14)
(1.59627e-13 -1.18171e-12 -7.28068e-14)
(8.2252e-14 -9.68002e-13 -5.93483e-14)
(2.82662e-14 -4.55836e-13 -4.98664e-14)
(3.84159e-10 -3.67697e-12 -9.93352e-13)
(5.46154e-12 -6.59761e-12 -5.81406e-13)
(1.82025e-12 -5.32409e-12 -4.08897e-13)
(1.17099e-12 -3.97381e-12 -2.96723e-13)
(7.53816e-13 -3.00986e-12 -2.19672e-13)
(4.77607e-13 -2.32026e-12 -1.65953e-13)
(2.92664e-13 -1.81491e-12 -1.26806e-13)
(1.67845e-13 -1.43967e-12 -9.96493e-14)
(8.28234e-14 -1.1464e-12 -7.8888e-14)
(2.61766e-14 -5.31054e-13 -6.38524e-14)
(3.84048e-07 -1.08875e-09 -5.37069e-10)
(1.51074e-09 -9.99122e-10 -1.24222e-11)
(4.87629e-12 -1.50369e-11 -4.61284e-12)
(7.96743e-13 -5.76546e-12 -2.73427e-12)
(5.3823e-13 -4.13372e-12 -1.674e-12)
(3.694e-13 -3.04723e-12 -1.06842e-12)
(2.50426e-13 -2.2911e-12 -7.04033e-13)
(1.6706e-13 -1.755e-12 -4.77269e-13)
(1.07961e-13 -1.35497e-12 -3.30322e-13)
(6.24705e-14 -6.214e-13 -2.32266e-13)
(2.27566e-13 3.69249e-13 -1.38279e-14)
(2.14824e-13 3.45028e-13 -1.16337e-14)
(1.88333e-13 -5.05924e-14 -9.67313e-15)
(1.63105e-13 -5.33875e-14 -6.71554e-15)
(1.38815e-13 -5.23353e-14 -5.14852e-15)
(1.1568e-13 -5.14741e-14 -2.96137e-15)
(9.35736e-14 -5.07588e-14 -2.1305e-15)
(7.24754e-14 -5.01636e-14 -1.3922e-15)
(5.23185e-14 -4.87201e-14 -6.84559e-16)
(3.31586e-14 -2.5192e-14 -1.06397e-15)
(5.0012e-13 3.35267e-13 -2.01877e-14)
(4.61877e-13 2.39207e-13 -1.79905e-14)
(3.95745e-13 -1.88086e-13 -1.29959e-14)
(3.34005e-13 -1.84697e-13 -1.05771e-14)
(2.76654e-13 -1.77816e-13 -8.09063e-15)
(2.23255e-13 -1.70881e-13 -5.79423e-15)
(1.73686e-13 -1.64535e-13 -4.25488e-15)
(1.27566e-13 -1.585e-13 -3.41792e-15)
(8.45929e-14 -1.51677e-13 -3.17606e-15)
(4.52395e-14 -7.81071e-14 -2.55577e-15)
(6.19296e-13 2.69726e-13 -3.23761e-14)
(5.50897e-13 7.09296e-14 -2.87727e-14)
(4.5551e-13 -3.83591e-13 -2.30784e-14)
(3.69749e-13 -3.63457e-13 -1.87926e-14)
(2.93945e-13 -3.40469e-13 -1.44647e-14)
(2.26529e-13 -3.19251e-13 -1.13476e-14)
(1.66675e-13 -2.9956e-13 -9.31362e-15)
(1.13386e-13 -2.81787e-13 -8.33581e-15)
(6.588e-14 -2.62695e-13 -7.3568e-15)
(2.45233e-14 -1.33277e-13 -6.46504e-15)
(8.14175e-13 1.55266e-13 -5.63017e-14)
(6.97631e-13 -1.91165e-13 -4.84569e-14)
(5.59259e-13 -6.60487e-13 -3.98117e-14)
(4.40759e-13 -6.05711e-13 -3.23435e-14)
(3.40535e-13 -5.50822e-13 -2.62175e-14)
(2.55457e-13 -5.02267e-13 -2.1189e-14)
(1.83075e-13 -4.59121e-13 -1.82129e-14)
(1.21672e-13 -4.20902e-13 -1.60335e-14)
(6.93592e-14 -3.82966e-13 -1.44235e-14)
(2.55277e-14 -1.9141e-13 -1.24802e-14)
(1.0896e-12 -3.95326e-14 -9.85141e-14)
(8.95464e-13 -5.98711e-13 -8.37172e-14)
(6.93863e-13 -1.05387e-12 -6.8327e-14)
(5.29323e-13 -9.33725e-13 -5.57044e-14)
(3.96684e-13 -8.23424e-13 -4.6225e-14)
(2.89229e-13 -7.29585e-13 -3.86769e-14)
(2.01766e-13 -6.4813e-13 -3.18523e-14)
(1.30827e-13 -5.78016e-13 -2.71514e-14)
(7.2909e-14 -5.13078e-13 -2.29534e-14)
(2.67161e-14 -2.52942e-13 -2.07345e-14)
(1.48487e-12 -3.64018e-13 -1.72157e-13)
(1.16797e-12 -1.23053e-12 -1.44072e-13)
(8.70511e-13 -1.61633e-12 -1.14406e-13)
(6.40715e-13 -1.38091e-12 -9.13058e-14)
(4.64623e-13 -1.17691e-12 -7.44777e-14)
(3.28404e-13 -1.01044e-12 -6.18469e-14)
(2.22899e-13 -8.71994e-13 -5.05301e-14)
(1.40802e-13 -7.56781e-13 -4.21783e-14)
(7.67899e-14 -6.54357e-13 -3.62208e-14)
(2.79796e-14 -3.17627e-13 -3.159e-14)
(2.06891e-12 -8.94509e-13 -3.04999e-13)
(1.54831e-12 -2.21193e-12 -2.4423e-13)
(1.1052e-12 -2.43063e-12 -1.89713e-13)
(7.82448e-13 -1.99279e-12 -1.48065e-13)
(5.47466e-13 -1.63822e-12 -1.18263e-13)
(3.74452e-13 -1.36007e-12 -9.49337e-14)
(2.46639e-13 -1.13746e-12 -7.71535e-14)
(1.51593e-13 -9.59177e-13 -6.24664e-14)
(8.10082e-14 -8.07565e-13 -5.26344e-14)
(2.93391e-14 -3.86422e-13 -4.46959e-14)
(3.1273e-12 -1.78145e-12 -5.42995e-13)
(2.09194e-12 -3.76025e-12 -4.15901e-13)
(1.42182e-12 -3.61625e-12 -3.09542e-13)
(9.64463e-13 -2.83644e-12 -2.34249e-13)
(6.48973e-13 -2.24152e-12 -1.80692e-13)
(4.28786e-13 -1.7954e-12 -1.41823e-13)
(2.7347e-13 -1.45374e-12 -1.12823e-13)
(1.63567e-13 -1.18928e-12 -8.92847e-14)
(8.52679e-14 -9.73789e-13 -7.25665e-14)
(3.06385e-14 -4.59014e-13 -6.0794e-14)
(4.08696e-10 -3.73338e-12 -9.48377e-13)
(5.73213e-12 -6.68277e-12 -7.05154e-13)
(1.85635e-12 -5.37398e-12 -5.02865e-13)
(1.19372e-12 -4.00935e-12 -3.6483e-13)
(7.69166e-13 -3.03597e-12 -2.71433e-13)
(4.8827e-13 -2.34014e-12 -2.05356e-13)
(3.00311e-13 -1.82995e-12 -1.57612e-13)
(1.73402e-13 -1.45101e-12 -1.22721e-13)
(8.68766e-14 -1.15532e-12 -9.74648e-14)
(2.91852e-14 -5.36075e-13 -7.9015e-14)
(4.1928e-07 -1.14739e-09 -3.86693e-10)
(1.64052e-09 -1.06206e-09 -1.99096e-12)
(6.12148e-12 -1.54215e-11 -9.00117e-13)
(1.1736e-12 -5.67588e-12 -6.10302e-13)
(7.75864e-13 -4.08404e-12 -4.26049e-13)
(5.20751e-13 -3.02031e-12 -3.06721e-13)
(3.50297e-13 -2.27695e-12 -2.26468e-13)
(2.34386e-13 -1.74796e-12 -1.69424e-13)
(1.54579e-13 -1.35178e-12 -1.29593e-13)
(9.99909e-14 -6.17632e-13 -1.01738e-13)
(2.28237e-13 3.68697e-13 -1.60512e-14)
(2.15486e-13 3.44161e-13 -1.40282e-14)
(1.88705e-13 -5.15062e-14 -1.07424e-14)
(1.63447e-13 -5.44091e-14 -8.43938e-15)
(1.39162e-13 -5.3218e-14 -6.27422e-15)
(1.15956e-13 -5.23427e-14 -4.24339e-15)
(9.38579e-14 -5.13803e-14 -2.64743e-15)
(7.27329e-14 -5.02563e-14 -3.21901e-15)
(5.25772e-14 -4.84978e-14 -9.29237e-15)
(3.34087e-14 -2.53685e-14 -2.66994e-14)
(5.01718e-13 3.34644e-13 -2.40996e-14)
(4.63328e-13 2.37771e-13 -2.03361e-14)
(3.96921e-13 -1.89685e-13 -1.62342e-14)
(3.34997e-13 -1.85737e-13 -1.27254e-14)
(2.77459e-13 -1.78802e-13 -1.02234e-14)
(2.24004e-13 -1.71867e-13 -7.55056e-15)
(1.74388e-13 -1.65222e-13 -6.08789e-15)
(1.28307e-13 -1.5883e-13 -5.32644e-15)
(8.51771e-14 -1.51612e-13 -7.25658e-15)
(4.57596e-14 -7.84848e-14 -2.01914e-14)
(6.22178e-13 2.68756e-13 -3.8552e-14)
(5.53289e-13 6.90781e-14 -3.27464e-14)
(4.57596e-13 -3.85661e-13 -2.63107e-14)
(3.71524e-13 -3.65344e-13 -2.14139e-14)
(2.9536e-13 -3.41968e-13 -1.71818e-14)
(2.27806e-13 -3.20416e-13 -1.4383e-14)
(1.67804e-13 -3.00257e-13 -1.18704e-14)
(1.14495e-13 -2.82282e-13 -1.10372e-14)
(6.68764e-14 -2.63233e-13 -1.22717e-14)
(2.52358e-14 -1.33927e-13 -1.88525e-14)
(8.19162e-13 1.53135e-13 -6.56507e-14)
(7.01779e-13 -1.9451e-13 -5.54223e-14)
(5.62712e-13 -6.63672e-13 -4.54473e-14)
(4.43627e-13 -6.08574e-13 -3.72112e-14)
(3.4306e-13 -5.53257e-13 -3.08937e-14)
(2.57642e-13 -5.04171e-13 -2.64438e-14)
(1.84929e-13 -4.60391e-13 -2.28227e-14)
(1.23207e-13 -4.21767e-13 -1.9986e-14)
(7.06985e-14 -3.84134e-13 -1.93161e-14)
(2.67205e-14 -1.92363e-13 -2.21185e-14)
(1.09788e-12 -4.35584e-14 -1.1506e-13)
(9.02344e-13 -6.04665e-13 -9.57673e-14)
(6.99359e-13 -1.05946e-12 -7.76865e-14)
(5.33745e-13 -9.38315e-13 -6.38312e-14)
(4.00419e-13 -8.27057e-13 -5.34233e-14)
(2.92439e-13 -7.32825e-13 -4.56488e-14)
(2.04476e-13 -6.50832e-13 -3.9332e-14)
(1.32968e-13 -5.80178e-13 -3.40817e-14)
(7.47154e-14 -5.14794e-13 -2.99901e-14)
(2.84449e-14 -2.54228e-13 -3.09142e-14)
(1.49881e-12 -3.71943e-13 -2.02929e-13)
(1.17893e-12 -1.24155e-12 -1.64643e-13)
(8.79035e-13 -1.62651e-12 -1.31164e-13)
(6.47554e-13 -1.38909e-12 -1.06295e-13)
(4.7004e-13 -1.18319e-12 -8.71199e-14)
(3.32826e-13 -1.01571e-12 -7.37234e-14)
(2.26545e-13 -8.76652e-13 -6.14594e-14)
(1.43673e-13 -7.60529e-13 -5.21573e-14)
(7.92478e-14 -6.57077e-13 -4.56539e-14)
(2.99907e-14 -3.19608e-13 -4.25081e-14)
(2.09233e-12 -9.10586e-13 -3.57535e-13)
(1.56589e-12 -2.23292e-12 -2.79119e-13)
(1.11839e-12 -2.44836e-12 -2.17565e-13)
(7.92595e-13 -2.00685e-12 -1.72146e-13)
(5.55264e-13 -1.6493e-12 -1.3767e-13)
(3.80557e-13 -1.36904e-12 -1.12846e-13)
(2.5152e-13 -1.14502e-12 -9.2076e-14)
(1.55407e-13 -9.65232e-13 -7.65184e-14)
(8.39942e-14 -8.12203e-13 -6.50366e-14)
(3.17322e-14 -3.8947e-13 -5.75726e-14)
(3.1564e-12 -1.81344e-12 -6.34411e-13)
(2.11992e-12 -3.80002e-12 -4.73871e-13)
(1.44218e-12 -3.64847e-12 -3.55749e-13)
(9.79254e-13 -2.86086e-12 -2.71447e-13)
(6.59966e-13 -2.26017e-12 -2.10588e-13)
(4.37044e-13 -1.80989e-12 -1.67509e-13)
(2.79789e-13 -1.46577e-12 -1.35155e-13)
(1.68391e-13 -1.19913e-12 -1.08036e-13)
(8.89478e-14 -9.81192e-13 -8.90877e-14)
(3.35024e-14 -4.63402e-13 -7.56357e-14)
(4.15839e-10 -3.64082e-12 -3.27385e-15)
(5.61485e-12 -6.72912e-12 -7.89416e-13)
(1.88595e-12 -5.43116e-12 -5.80873e-13)
(1.21554e-12 -4.05151e-12 -4.2367e-13)
(7.84646e-13 -3.06724e-12 -3.18067e-13)
(4.99423e-13 -2.36393e-12 -2.43529e-13)
(3.08415e-13 -1.8488e-12 -1.906e-13)
(1.79334e-13 -1.46542e-12 -1.46928e-13)
(9.12854e-14 -1.16644e-12 -1.18893e-13)
(3.24141e-14 -5.4265e-13 -9.79395e-14)
(4.43926e-07 -9.44083e-10 1.37857e-09)
(1.6316e-09 -1.07818e-09 1.78145e-11)
(5.32663e-12 -1.50819e-11 -8.34462e-13)
(1.19863e-12 -5.73831e-12 -6.52906e-13)
(7.94301e-13 -4.13293e-12 -4.70158e-13)
(5.33478e-13 -3.05649e-12 -3.46537e-13)
(3.59328e-13 -2.30468e-12 -2.61271e-13)
(2.41021e-13 -1.76891e-12 -1.96188e-13)
(1.59273e-13 -1.36769e-12 -1.53038e-13)
(1.03544e-13 -6.26555e-13 -1.22461e-13)
(2.28787e-13 3.68446e-13 -1.41791e-14)
(2.15439e-13 3.43003e-13 -5.40112e-15)
(1.88925e-13 -5.27407e-14 -4.50335e-15)
(1.63705e-13 -5.51339e-14 -5.8251e-15)
(1.39598e-13 -5.40334e-14 -1.0876e-14)
(1.16664e-13 -5.30451e-14 -2.08024e-14)
(9.48681e-14 -5.14503e-14 -3.83207e-14)
(7.48372e-14 -4.85747e-14 -1.3458e-13)
(5.68058e-14 -4.34969e-14 -5.22377e-13)
(3.68703e-14 -3.92673e-14 -1.53764e-12)
(5.03114e-13 3.3385e-13 -1.89174e-14)
(4.63765e-13 2.36605e-13 -4.43703e-15)
(3.97581e-13 -1.90755e-13 -5.77595e-15)
(3.35686e-13 -1.86867e-13 -6.67949e-15)
(2.78334e-13 -1.79863e-13 -1.14959e-14)
(2.2515e-13 -1.72825e-13 -2.10494e-14)
(1.75706e-13 -1.66119e-13 -3.49549e-14)
(1.3008e-13 -1.60126e-13 -9.14397e-14)
(8.78617e-14 -1.53103e-13 -3.10914e-13)
(4.70934e-14 -1.02809e-13 -1.00345e-12)
(6.24602e-13 2.67593e-13 -3.11398e-14)
(5.54563e-13 6.73632e-14 -9.82159e-15)
(4.58811e-13 -3.87078e-13 -9.04801e-15)
(3.72805e-13 -3.6645e-13 -1.08291e-14)
(2.96841e-13 -3.43047e-13 -1.469e-14)
(2.29579e-13 -3.21732e-13 -2.44534e-14)
(1.69752e-13 -3.02007e-13 -3.9722e-14)
(1.16533e-13 -2.84142e-13 -7.24381e-14)
(6.95216e-14 -2.67498e-13 -2.06868e-13)
(2.68064e-14 -1.60425e-13 -6.58093e-13)
(8.23448e-13 1.5162e-13 -5.41492e-14)
(7.04196e-13 -1.96398e-13 -2.1663e-14)
(5.64994e-13 -6.65547e-13 -1.95428e-14)
(4.45941e-13 -6.10109e-13 -2.09052e-14)