/*--------------------------------*- C++ -*----------------------------------*\
| =========                 |                                                 |
| \\      /  F ield         | OpenFOAM: The Open Source CFD Toolbox           |
|  \\    /   O peration     | Version:  4.1                                   |
|   \\  /    A nd           | Web:      www.OpenFOAM.org                      |
|    \\/     M anipulation  |                                                 |
\*---------------------------------------------------------------------------*/
FoamFile
{
    version     2.0;
    format      ascii;
    class       surfaceScalarField;
    location    "0.58";
    object      phi;
}
// * * * * * * * * * * * * * * * * * * * * * * * * * * * * * * * * * * * * * //

dimensions      [1 0 -1 0 0 0 0];

internalField   nonuniform List<scalar> 
150500
(
0.0168001
2.35069e-10
-1.08761e-11
0.0168
5.25227e-10
-1.62919e-11
0.0168
1.08105e-09
-2.1745e-11
0.0168
2.06624e-09
-2.86478e-11
0.0168
4.98051e-09
-2.9798e-11
0.0167999
1.06694e-08
-3.61586e-11
0.0167996
2.87106e-08
-3.6597e-11
0.0167993
6.42841e-08
-4.27225e-11
0.0167976
1.79756e-07
-4.45175e-11
0.0167955
4.01753e-07
-5.44711e-11
0.0167857
1.18234e-06
-6.57483e-11
0.0167725
2.57756e-06
-1.0236e-10
0.0167236
8.74355e-06
-1.87946e-10
0.0166411
2.14039e-05
-4.43458e-10
0.0164493
9.06559e-05
-8.68958e-10
0.0156776
0.000290378
-3.23002e-09
0.0129754
0.00181493
-6.35464e-09
0.011807
0.0017071
1.97927e-09
0.00979543
0.00150595
-2.35493e-10
0.00786411
0.00147205
-3.7634e-10
0.00622441
0.00148682
-3.08493e-11
0.00490941
0.00160336
3.82931e-10
0.00388775
0.00181525
4.57995e-10
0.00203433
0.00197517
2.98008e-10
0.00194337
3.16942e-10
0.0168001
4.6803e-10
-1.12979e-11
0.0168
1.04265e-09
-1.66377e-11
0.0168
2.13737e-09
-2.2011e-11
0.0168
4.07475e-09
-2.88161e-11
0.0168
9.76804e-09
-2.99475e-11
0.0167999
2.08267e-08
-3.61882e-11
0.0167997
5.60082e-08
-3.6651e-11
0.0167993
1.24713e-07
-4.26152e-11
0.0167976
3.52302e-07
-4.43864e-11
0.0167956
7.76766e-07
-5.40541e-11
0.0167859
2.35494e-06
-6.51822e-11
0.0167728
5.00509e-06
-1.00263e-10
0.0167249
1.77883e-05
-1.8602e-10
0.0166415
4.15309e-05
-4.28026e-10
0.0164524
0.00018897
-9.16994e-10
0.0156736
0.00057857
-3.2189e-09
0.0129712
0.0035894
-6.47652e-09
0.0118036
0.00343092
2.04056e-09
0.00985352
0.00296028
-1.71796e-10
0.00794552
0.00293055
-3.0837e-10
0.0062968
0.00298527
2.11001e-11
0.00495343
0.00323105
4.10525e-10
0.00392888
0.0036473
4.45496e-10
0.00208625
0.00395014
2.46347e-10
0.00394259
2.71751e-10
0.0168001
6.8974e-10
-1.21371e-11
0.0168
1.53322e-09
-1.73246e-11
0.0168
3.13095e-09
-2.25412e-11
0.0168
5.97013e-09
-2.91508e-11
0.0168
1.41792e-08
-3.02405e-11
0.0167999
3.0163e-08
-3.62485e-11
0.0167997
8.00767e-08
-3.67461e-11
0.0167994
1.77163e-07
-4.2411e-11
0.0167978
5.01398e-07
-4.41982e-11
0.0167959
1.09215e-06
-5.3837e-11
0.0167863
3.39852e-06
-6.39098e-11
0.0167742
7.01868e-06
-1.00578e-10
0.0167262
2.64303e-05
-1.79721e-10
0.0166467
5.90905e-05
-3.81676e-10
0.0164731
0.000280326
-1.06671e-09
0.0156972
0.000834893
-3.11268e-09
0.0131061
0.00518349
-6.72159e-09
0.0119603
0.00517639
2.15291e-09
0.0100375
0.00440491
-5.69645e-11
0.00814746
0.00438902
-2.02169e-10
0.00649059
0.00449651
9.58659e-11
0.00510297
0.00488933
4.35713e-10
0.00404684
0.00553064
4.59373e-10
0.00216974
0.00598271
2.16154e-10
0.00603439
1.8038e-10
0.0168001
8.92322e-10
-1.33755e-11
0.0168001
1.97733e-09
-1.83375e-11
0.0168
4.02599e-09
-2.33273e-11
0.0168
7.69163e-09
-2.96484e-11
0.0168
1.81731e-08
-3.06675e-11
0.0167999
3.8717e-08
-3.63809e-11
0.0167997
1.00942e-07
-3.67985e-11
0.0167995
2.21843e-07
-4.20872e-11
0.0167981
6.19773e-07
-4.38251e-11
0.0167963
1.33201e-06
-5.34962e-11
0.0167869
4.23853e-06
-6.18084e-11
0.0167767
8.65721e-06
-1.11809e-10
0.0167286
3.30816e-05
-1.46805e-10
0.0166572
7.36341e-05
-4.09374e-10
0.0165048
0.000350529
-9.93809e-10
0.0157531
0.00102802
-3.05174e-09
0.0134176
0.00642737
-7.13911e-09
0.0123076
0.00693483
2.2404e-09
0.0103894
0.00586626
1.04215e-10
0.00849055
0.00588362
-3.47348e-11
0.0068062
0.00604095
2.05136e-10
0.00534797
0.00658937
4.72041e-10
0.00426585
0.00747319
4.86345e-10
0.00230219
0.00813629
1.52486e-10
0.00826296
-7.35269e-12
0.0168001
1.07383e-09
-1.49833e-11
0.0168001
2.36467e-09
-1.96523e-11
0.0168
4.7987e-09
-2.43544e-11
0.0168
9.19699e-09
-3.02966e-11
0.0168
2.16857e-08
-3.12337e-11
0.0167999
4.63771e-08
-3.65608e-11
0.0167998
1.19796e-07
-3.68281e-11
0.0167995
2.62926e-07
-4.15318e-11
0.0167985
7.16203e-07
-4.26656e-11
0.0167969
1.50331e-06
-4.98061e-11
0.0167887
4.9023e-06
-5.93391e-11
0.0167834
8.93196e-06
-9.61274e-11
0.0167343
3.93185e-05
-1.46044e-10
0.0166958
7.7296e-05
-3.81546e-10
0.0165364
0.000402172
-9.72489e-10
0.0158159
0.001127
-2.96389e-09
0.0139737
0.00711204
-7.65841e-09
0.0128838
0.00872523
2.31423e-09
0.0109094
0.00740694
4.5902e-10
0.00896695
0.00746057
1.73241e-10
0.00723447
0.00764162
2.64981e-10
0.00569374
0.00832146
5.5735e-10
0.00456483
0.009492
6.32561e-10
0.00251378
0.010404
1.75479e-10
0.0106929
-1.10792e-10
0.0168001
1.22272e-09
-1.6938e-11
0.0168001
2.68323e-09
-2.12413e-11
0.0168
5.47579e-09
-2.55999e-11
0.0168
1.06096e-08
-3.10637e-11
0.0168
2.49614e-08
-3.19039e-11
0.0168
5.36879e-08
-3.67465e-11
0.0167998
1.36565e-07
-3.69116e-11
0.0167996
2.99361e-07
-4.10689e-11
0.0167987
8.00419e-07
-4.16884e-11
0.0167975
1.68425e-06
-4.66115e-11
0.0167911
5.36432e-06
-5.66183e-11
0.0167908
8.80851e-06
-7.05772e-11
0.0167411
4.2516e-05
-1.63647e-10
0.0167588
7.50474e-05
-2.7563e-10
0.016527
0.000404475
-1.02884e-09
0.0159138
0.00112526
-2.70808e-09
0.0149301
0.00693364
-8.26949e-09
0.0137158
0.0104829
1.7436e-09
0.0115683
0.00916543
8.98644e-10
0.00955822
0.00914031
3.56175e-10
0.00775926
0.00929305
2.95691e-10
0.00615946
0.0100853
4.01266e-10
0.00496325
0.0115681
6.57495e-10
0.00277823
0.0128502
1.88914e-10
0.0133668
-2.95886e-10
0.0168001
1.32403e-09
-1.92098e-11
0.0168001
2.9166e-09
-2.30598e-11
0.0168
6.06066e-09
-2.70109e-11
0.0168
1.18972e-08
-3.18876e-11
0.0168
2.84258e-08
-3.26205e-11
0.0168
6.18486e-08
-3.68981e-11
0.0167998
1.56663e-07
-3.69962e-11
0.0167996
3.4667e-07
-4.06072e-11
0.0167988
8.93503e-07
-4.10251e-11
0.0167976
1.94163e-06
-4.48652e-11
0.0167928
5.34646e-06
-5.49937e-11
0.0167907
1.09807e-05
-4.6458e-11
0.0167549
3.68433e-05
-1.74016e-10
0.016742
7.81957e-05
-1.46386e-10
0.016586
0.000325038
-1.02517e-09
0.0161169
0.000977177
-2.43361e-09
0.0163566
0.00550797
-8.69703e-09
0.0146662
0.0122038
9.58263e-10
0.0122274
0.0112827
6.17076e-10
0.0101993
0.0108768
4.04439e-10
0.00834743
0.0109763
3.75428e-10
0.00673989
0.0118054
3.77556e-10
0.00550046
0.0136314
7.51509e-10
0.00318645
0.0154693
1.82101e-10
0.0164236
-3.97512e-10
0.0168001
1.39045e-09
-2.17102e-11
0.0168001
3.12222e-09
-2.50368e-11
0.0168
6.59311e-09
-2.85085e-11
0.0168
1.30194e-08
-3.27221e-11
0.0168
3.13762e-08
-3.33585e-11
0.0167999
6.85098e-08
-3.70435e-11
0.0167998
1.74933e-07
-3.71689e-11
0.0167995
3.90295e-07
-4.02819e-11
0.0167987
1.01031e-06
-4.10001e-11
0.0167974
2.24588e-06
-4.5033e-11
0.0167935
5.86894e-06
-5.00887e-11
0.0167847
1.33301e-05
-6.441e-11
0.0167707
3.44964e-05
-1.02076e-10
0.0167041
9.49481e-05
-1.80009e-10
0.0167002
0.000266612
-4.20407e-10
0.0164644
0.000834669
-1.77138e-09
0.0175435
0.00399155
-4.00125e-09
0.015361
0.0137108
-1.54218e-09
0.0127257
0.0134656
-1.77288e-10
0.0108862
0.012512
6.53275e-10
0.00899393
0.0127641
5.92554e-10
0.00744053
0.0134463
4.7539e-10
0.00624794
0.0155595
6.60383e-10
0.00380567
0.0181932
1.06656e-10
0.020084
-3.24249e-10
0.0168001
1.47093e-09
-2.43213e-11
0.0168001
3.18361e-09
-2.70739e-11
0.0168
6.83791e-09
-2.99922e-11
0.0168
1.32514e-08
-3.34703e-11
0.0168
3.23482e-08
-3.39754e-11
0.0168
6.96182e-08
-3.70165e-11
0.0167998
1.80153e-07
-3.71193e-11
0.0167995
3.99315e-07
-3.97535e-11
0.0167987
1.04633e-06
-4.06562e-11
0.0167976
2.3052e-06
-4.45541e-11
0.0167936
6.19322e-06
-5.0772e-11
0.0167893
1.32215e-05
-6.6091e-11
0.0167682
3.78056e-05
-8.87978e-11
0.0167533
8.34751e-05
-2.30102e-10
0.0166473
0.000290848
-3.26135e-10
0.0166339
0.000749854
-1.14727e-09
0.0168465
0.00349303
-2.82175e-09
0.0151205
0.0142536
-3.8973e-09
0.0132264
0.0148233
-1.34662e-09
0.0116258
0.0140601
9.07623e-10
0.00991617
0.0143518
6.93808e-10
0.00838453
0.0150357
4.44846e-10
0.00735799
0.0172098
5.43063e-10
0.00499134
0.0208488
1.36196e-10
0.0248962
-2.72043e-10
0.0168001
-2.70594e-11
7.65714e-10
0.0168001
-2.91594e-11
1.65603e-09
0.0168001
-3.14095e-11
5.77908e-09
0.0168
-3.40392e-11
5.92809e-09
0.0168
-3.42719e-11
3.18137e-08
0.0168
-3.65445e-11
3.42101e-08
0.0167998
-3.6567e-11
1.99199e-07
0.0167997
-3.86727e-11
2.21282e-07
0.0167987
-3.98091e-11
1.28164e-06
0.0167986
-4.33582e-11
1.30916e-06
0.016793
-5.00675e-11
8.45775e-06
0.0167945
-6.47307e-11
6.48048e-06
0.0167568
-8.4355e-11
5.85731e-05
0.0167814
-2.03086e-10
3.28541e-05
0.0165905
-2.7497e-10
0.000423694
0.0166671
-8.97969e-10
0.00052616
0.0167974
-2.19434e-09
0.00333041
0.0153432
-3.90534e-09
0.0145534
0.0140404
7.05566e-11
0.0158143
0.0125288
6.06558e-10
0.0154368
0.0109745
6.04411e-10
0.0157424
0.00959699
4.84173e-10
0.0164175
0.00869047
5.91756e-10
0.0185443
0.00676883
2.13612e-10
0.0232334
-1.62369e-10
0.0315227
0.0168001
2.9804e-11
-6.10822e-16
0.0168001
1.61021e-10
-3.79952e-15
0.0168001
6.09783e-10
-6.21526e-15
0.0168
1.55328e-09
-1.24775e-14
0.0168
4.44973e-09
-1.36959e-14
0.0167999
1.01965e-08
-1.99168e-14
0.0167997
2.82998e-08
-2.30788e-15
0.0167993
6.40266e-08
1.55309e-14
0.0167976
1.79658e-07
1.44671e-13
0.0167955
4.0197e-07
3.18975e-13
0.0167857
1.18291e-06
1.15898e-12
0.0167725
2.57908e-06
2.10594e-12
0.0167235
8.74619e-06
7.57115e-12
0.0166411
2.14149e-05
1.82e-11
0.0164493
9.06461e-05
4.24286e-11
0.0156777
0.000290445
1.43607e-10
0.0129756
0.00181505
2.40061e-10
0.0118071
0.0017071
-2.12696e-10
0.00979554
0.00150606
-4.86053e-12
0.007864
0.00147207
9.24954e-11
0.00622422
0.00148682
1.09884e-10
0.00490912
0.00160332
7.00518e-11
0.00388733
0.00181506
-1.0809e-10
0.00203398
0.001975
-1.26982e-10
0.00194351
-2.5276e-10
0.0168001
5.89304e-11
-6.2609e-16
0.0168001
3.20262e-10
-3.89015e-15
0.0168001
1.20541e-09
-6.35954e-15
0.0168
3.0661e-09
-1.27477e-14
0.0168
8.7316e-09
-1.42035e-14
0.0167999
1.99064e-08
-2.07138e-14
0.0167997
5.52232e-08
-4.36112e-15
0.0167993
1.24221e-07
1.20883e-14
0.0167977
3.52108e-07
1.36296e-13
0.0167956
7.77065e-07
3.03297e-13
0.0167859
2.35608e-06
1.12203e-12
0.0167728
5.00641e-06
1.99657e-12
0.0167249
1.77951e-05
7.47182e-12
0.0166415
4.1547e-05
1.69123e-11
0.0164524
0.00018898
4.68309e-11
0.0156737
0.000578723
1.43875e-10
0.0129713
0.00358971
2.51714e-10
0.0118037
0.00343092
-2.23225e-10
0.00985358
0.00296044
-2.4398e-11
0.00794537
0.00293056
7.05639e-11
0.00629656
0.00298528
6.61386e-11
0.00495306
0.00323099
6.40478e-11
0.00392815
0.0036472
-7.94934e-11
0.0020854
0.00395002
-8.04059e-11
0.0039424
-2.7093e-10
0.0168001
8.65655e-11
-6.57641e-16
0.0168001
4.73222e-10
-4.08012e-15
0.0168001
1.77005e-09
-6.67614e-15
0.0168
4.50938e-09
-1.33923e-14
0.0168
1.26892e-08
-1.55943e-14
0.0168
2.88441e-08
-2.29721e-14
0.0167997
7.89713e-08
-1.03598e-14
0.0167994
1.76462e-07
1.87408e-15
0.0167978
5.01129e-07
1.22491e-13
0.0167959
1.09261e-06
2.8248e-13
0.0167863
3.40018e-06
1.06758e-12
0.0167743
7.01893e-06
2.02499e-12
0.0167262
2.64462e-05
7.50112e-12
0.0166467
5.90964e-05
1.30621e-11
0.0164731
0.000280401
5.95218e-11
0.0156973
0.000835107
1.35612e-10
0.013106
0.0051841
2.65315e-10
0.0119604
0.0051763
-2.47792e-10
0.0100376
0.00440508
-5.23614e-11
0.00814738
0.00438898
3.67556e-11
0.00649044
0.00449651
4.33397e-11
0.00510278
0.00488916
6.05426e-11
0.00404632
0.00553048
-5.29622e-11
0.00216905
0.00598265
-6.08271e-11
0.00603399
-2.19659e-10
0.0168001
1.11963e-10
-6.96882e-16
0.0168001
6.16217e-10
-4.3275e-15
0.0168001
2.29189e-09
-7.00473e-15
0.0168
5.85235e-09
-1.3997e-14
0.0168
1.6309e-08
-1.64992e-14
0.0168
3.70771e-08
-2.46765e-14
0.0167998
9.95578e-08
-1.39581e-14
0.0167995
2.20933e-07
-5.22043e-15
0.0167981
6.19462e-07
1.17293e-13
0.0167963
1.33317e-06
3.22687e-13
0.0167869
4.24016e-06
1.01731e-12
0.0167767
8.66734e-06
2.86353e-12
0.0167286
3.30856e-05
6.30728e-12
0.0166571
7.36715e-05
1.68549e-11
0.0165047
0.000350589
5.1878e-11
0.0157531
0.00102832
1.3464e-10
0.0134173
0.00642854
2.85486e-10
0.0123076
0.00693465
-2.67568e-10
0.0103896
0.0058663
-7.6315e-11
0.00849055
0.00588347
-2.14614e-11
0.00680621
0.00604078
-4.39524e-12
0.00534784
0.0065892
6.02211e-11
0.0042653
0.00747297
-2.00532e-11
0.00230183
0.00813575
-2.61607e-11
0.00826269
-4.9912e-11
0.0168001
1.35942e-10
-7.44619e-16
0.0168001
7.53558e-10
-4.63894e-15
0.0168001
2.7695e-09
-7.37399e-15
0.0168
7.0774e-09
-1.46134e-14
0.0168
1.95499e-08
-1.70666e-14
0.0168
4.45034e-08
-2.51356e-14
0.0167998
1.18168e-07
-1.69405e-14
0.0167996
2.6175e-07
-1.31509e-14
0.0167985
7.15503e-07
8.04502e-14
0.0167969
1.50362e-06
1.93663e-13
0.0167888
4.90328e-06
9.18694e-13
0.0167834
8.94304e-06
2.07246e-12
0.0167343
3.93189e-05
6.42467e-12
0.0166956
7.73609e-05
1.59881e-11
0.0165363
0.00040225
5.06577e-11
0.0158159
0.00112748
1.3215e-10
0.0139729
0.00711409
3.15214e-10
0.0128835
0.00872489
-2.82577e-10
0.0109095
0.00740677
-1.1937e-10
0.00896687
0.00746022
-6.24875e-11
0.00723451
0.00764118
-3.9972e-11
0.00569389
0.00832104
4.23589e-11
0.00456443
0.00949184
-7.47836e-11
0.00251335
0.0104033
-3.43575e-11
0.0106927
1.56374e-11
0.0168001
1.61458e-10
-8.04046e-16
0.0168001
8.9e-10
-5.02608e-15
0.0168001
3.24224e-09
-7.86407e-15
0.0168
8.29856e-09
-1.54917e-14
0.0168
2.26169e-08
-1.80809e-14
0.0168
5.1597e-08
-2.65661e-14
0.0167998
1.34666e-07
-1.99449e-14
0.0167996
2.97869e-07
-1.8574e-14
0.0167987
7.99249e-07
5.18049e-14
0.0167975
1.68361e-06
8.67989e-14
0.0167911
5.36506e-06
8.09581e-13
0.0167907
8.81169e-06
7.79095e-13
0.0167411
4.253e-05
7.46065e-12
0.0167586
7.50903e-05
8.38694e-12
0.0165272
0.000404673
5.77462e-11
0.0159137
0.00112575
1.05056e-10
0.0149286
0.00693668
3.57682e-10
0.0137155
0.0104826
-2.58705e-10
0.0115683
0.00916428
-1.56443e-10
0.00955827
0.00913967
-1.01132e-10
0.00775925
0.00929268
-6.36073e-11
0.00615935
0.0100848
3.52944e-11
0.00496293
0.0115673
-1.35325e-10
0.00277793
0.0128497
-2.32458e-11
0.0133668
1.28073e-10
0.0168001
1.84722e-10
-8.72485e-16
0.0168001
9.97179e-10
-5.46948e-15
0.0168001
3.6748e-09
-8.40146e-15
0.0168
9.40814e-09
-1.63761e-14
0.0168
2.58521e-08
-1.87915e-14
0.0168
5.94802e-08
-2.7016e-14
0.0167998
1.54436e-07
-1.98909e-14
0.0167996
3.4481e-07
-1.77186e-14
0.0167988
8.91837e-07
4.84181e-14
0.0167976
1.9401e-06
9.24219e-14
0.0167929
5.34657e-06
7.45451e-13
0.0167908
1.09736e-05
-4.92131e-14
0.0167549
3.68676e-05
7.25669e-12
0.0167422
7.8168e-05
3.80869e-12
0.0165858
0.000325328
5.19524e-11
0.0161163
0.000977741
1.01829e-10
0.0163548
0.00551249
3.85081e-10
0.0146661
0.0122029
-2.12428e-10
0.0122277
0.0112812
-1.57758e-10
0.0101995
0.0108761
-1.43447e-10
0.00834763
0.010976
-1.16385e-10
0.00673976
0.011805
-5.42236e-11
0.0055002
0.0136302
-1.92656e-10
0.0031862
0.0154691
-1.02505e-11
0.0164239
2.1125e-10
0.0168001
1.99719e-10
-9.52426e-16
0.0168001
1.06695e-09
-5.95735e-15
0.0168001
3.99387e-09
-9.01662e-15
0.0168
1.02489e-08
-1.73668e-14
0.0168
2.84705e-08
-1.95252e-14
0.0168
6.58247e-08
-2.73581e-14
0.0167998
1.72458e-07
-1.77703e-14
0.0167995
3.88302e-07
-9.10308e-15
0.0167987
1.00868e-06
6.06009e-14
0.0167974
2.24471e-06
1.50453e-13
0.0167935
5.86739e-06
5.14715e-13
0.0167847
1.33292e-05
9.73496e-13
0.0167707
3.44967e-05
3.48269e-12
0.0167042
9.49509e-05
5.02982e-12
0.0167001
0.000266635
2.06046e-11
0.0164642
0.000835124
6.56962e-11
0.0175464
0.00399322
1.48347e-10
0.0153622
0.0137118
-8.25672e-11
0.0127265
0.0134643
-1.71442e-10
0.0108865
0.0125115
-1.87148e-10
0.00899414
0.0127638
-1.65419e-10
0.0074406
0.0134459
-8.92381e-11
0.00624775
0.0155585
-1.4139e-10
0.00380539
0.0181932
1.00506e-11
0.0200844
2.3454e-10
0.0168001
2.20682e-10
-1.03491e-15
0.0168001
1.07565e-09
-6.47733e-15
0.0168001
4.17586e-09
-9.61236e-15
0.0168
1.0336e-08
-1.82465e-14
0.0168
2.94402e-08
-2.00078e-14
0.0168
6.6867e-08
-2.71719e-14
0.0167998
1.77858e-07
-1.63873e-14
0.0167996
3.97603e-07
-5.14945e-15
0.0167987
1.04519e-06
7.41259e-14
0.0167977
2.30468e-06
1.82694e-13
0.0167936
6.19281e-06
6.02861e-13
0.0167893
1.32222e-05
1.22584e-12
0.0167682
3.78076e-05
2.81544e-12
0.0167533
8.34934e-05
8.38071e-12
0.0166473
0.000290876
1.36454e-11
0.0166342
0.000750004
4.14407e-11
0.0168474
0.00349378
9.69897e-11
0.0151222
0.0142538
3.37947e-11
0.0132267
0.0148236
-9.92634e-11
0.0116258
0.0140593
-2.14153e-10
0.00991613
0.0143511
-1.94425e-10
0.0083843
0.0150354
-7.00335e-11
0.00735772
0.0172089
-1.15906e-10
0.00499113
0.0208488
-1.21741e-11
0.0248967
2.01409e-10
0.0168001
-1.12014e-15
2.59766e-10
0.0168001
-7.06615e-15
3.551e-10
0.0168001
-1.02353e-14
3.88935e-09
0.0168001
-1.93821e-14
4.37221e-09
0.0168
-1.90805e-14
2.94835e-08
0.0168
-2.47579e-14
3.27366e-08
0.0167998
-7.35647e-15
1.97434e-07
0.0167997
1.05117e-14
2.20495e-07
0.0167987
1.11998e-13
1.28097e-06
0.0167987
2.31682e-13
1.31017e-06
0.016793
7.60209e-13
8.45689e-06
0.0167945
1.44242e-12
6.48745e-06
0.0167568
3.14026e-12
5.85737e-05
0.0167815
8.71819e-12
3.28761e-05
0.0165906
1.24192e-11
0.000423707
0.0166673
3.62911e-11
0.000526248
0.0167978
8.3676e-11
0.00333066
0.0153435
4.67249e-11
0.0145537
0.0140411
-2.18138e-10
0.0158138
0.0125288
-2.12637e-10
0.0154364
0.0109743
-1.85364e-10
0.015742
0.00959681
-1.01191e-10
0.0164171
0.00869022
-7.68306e-11
0.0185438
0.00676866
-5.02749e-11
0.023233
1.7246e-10
0.031523
0.0168001
2.97977e-11
1.28376e-17
0.0168001
1.60976e-10
-2.7551e-16
0.0168001
6.09692e-10
-1.4557e-15
0.0168
1.55311e-09
-3.39819e-15
0.0168
4.44943e-09
-1.56095e-14
0.0167999
1.0196e-08
-3.1749e-14
0.0167997
2.82987e-08
-9.25473e-14
0.0167993
6.40243e-08
-1.88387e-13
0.0167976
1.79652e-07
-5.5839e-13
0.0167955
4.01957e-07
-1.11486e-12
0.0167857
1.18287e-06
-3.47596e-12
0.0167725
2.57901e-06
-6.51091e-12
0.0167235
8.74604e-06
-2.22421e-11
0.0166411
2.14141e-05
-5.24512e-11
0.0164493
9.06474e-05
-1.28096e-10
0.0156776
0.00029044
-4.32931e-10
0.0129755
0.00181503
-8.12623e-10
0.0118071
0.00170708
5.67999e-10
0.0097956
0.00150603
8.65714e-11
0.00786412
0.00147202
-7.51239e-13
0.00622442
0.00148672
4.06376e-11
0.00490937
0.00160317
1.13574e-10
0.00388753
0.0018151
1.9436e-10
0.00203399
0.00197518
1.58569e-10
0.00194357
1.50947e-10
0.0168001
5.89171e-11
2.39888e-17
0.0168001
3.20168e-10
-2.57505e-16
0.0168001
1.20521e-09
-1.34743e-15
0.0168
3.06572e-09
-3.12062e-15
0.0168
8.73088e-09
-1.49752e-14
0.0167999
1.99051e-08
-3.04332e-14
0.0167997
5.52201e-08
-8.96282e-14
0.0167993
1.24214e-07
-1.82518e-13
0.0167977
3.52095e-07
-5.45754e-13
0.0167956
7.77031e-07
-1.08684e-12
0.0167859
2.35602e-06
-3.41966e-12
0.0167728
5.00629e-06
-6.31134e-12
0.0167249
1.77951e-05
-2.22208e-11
0.0166415
4.1546e-05
-5.00459e-11
0.0164524
0.00018898
-1.38764e-10
0.0156736
0.000578711
-4.34772e-10
0.0129713
0.00358966
-8.41113e-10
0.0118037
0.00343086
5.7474e-10
0.00985365
0.00296039
9.38119e-11
0.00794549
0.00293048
1.12135e-11
0.00629676
0.0029851
5.13898e-11
0.00495329
0.00323072
1.12701e-10
0.00392848
0.00364703
1.92234e-10
0.00208579
0.00395014
1.45705e-10
0.00394287
1.46067e-10
0.0168001
8.65478e-11
4.0838e-17
0.0168001
4.73089e-10
-2.98228e-16
0.0168001
1.76979e-09
-1.20335e-15
0.0168
4.50891e-09
-2.76961e-15
0.0168
1.26885e-08
-1.36985e-14
0.0168
2.88431e-08
-2.76873e-14
0.0167997
7.89695e-08
-8.31057e-14
0.0167994
1.76459e-07
-1.68474e-13
0.0167978
5.01122e-07
-5.17698e-13
0.0167959
1.0926e-06
-1.02005e-12
0.0167863
3.40015e-06
-3.32166e-12
0.0167743
7.01906e-06
-6.05013e-12
0.0167262
2.64455e-05
-2.24077e-11
0.0166467
5.90972e-05
-4.26218e-11
0.0164731
0.000280395
-1.7307e-10
0.0156973
0.000835093
-4.20382e-10
0.013106
0.00518402
-8.97679e-10
0.0119603
0.00517624
5.8917e-10
0.0100376
0.00440502
1.12537e-10
0.0081474
0.00438889
3.28091e-11
0.00649049
0.00449629
6.9866e-11
0.00510279
0.00488889
1.06516e-10
0.00404647
0.00553021
1.76674e-10
0.00216924
0.00598282
1.21434e-10
0.00603467
1.207e-10
0.0168001
1.11941e-10
5.73806e-17
0.0168001
6.16043e-10
-3.40726e-16
0.0168001
2.29156e-09
-1.11063e-15
0.0168
5.85175e-09
-2.58175e-15
0.0168
1.63083e-08
-1.25237e-14
0.0168
3.70763e-08
-2.52814e-14
0.0167998
9.95568e-08
-7.48682e-14
0.0167995
2.20932e-07
-1.5052e-13
0.0167981
6.19453e-07
-4.72902e-13
0.0167963
1.33313e-06
-9.43382e-13
0.0167869
4.2401e-06
-3.11506e-12
0.0167767
8.66692e-06
-5.6722e-12
0.0167286
3.30854e-05
-2.22844e-11
0.0166571
7.36694e-05
-4.10117e-11
0.0165047
0.000350585
-1.71175e-10
0.0157531
0.0010283
-4.21842e-10
0.0134172
0.00642844
-9.95857e-10
0.0123076
0.00693461
5.94416e-10
0.0103895
0.00586626
1.48769e-10
0.00849047
0.00588339
6.48692e-11
0.00680608
0.00604065
8.61421e-11
0.00534773
0.00658888
1.06618e-10
0.00426532
0.00747283
1.89068e-10
0.00230182
0.00813607
9.66043e-11
0.0082633
1.00555e-10
0.0168001
1.35914e-10
7.60941e-17
0.0168001
7.53349e-10
-4.04634e-16
0.0168001
2.7691e-09
-1.02627e-15
0.0168
7.07666e-09
-2.41887e-15
0.0168
1.95488e-08
-1.12859e-14
0.0168
4.45021e-08
-2.30013e-14
0.0167998
1.18166e-07
-6.40495e-14
0.0167996
2.61748e-07
-1.24226e-13
0.0167985
7.15496e-07
-3.8775e-13
0.0167969
1.5036e-06
-7.20471e-13
0.0167888
4.90324e-06
-2.77039e-12
0.0167834
8.94247e-06
-4.81576e-12
0.0167343
3.93189e-05
-2.0864e-11
0.0166956
7.73569e-05
-3.88847e-11
0.0165363
0.000402245
-1.65605e-10
0.0158159
0.00112745
-4.14666e-10
0.0139728
0.00711395
-1.09402e-09
0.0128834
0.0087249
6.02267e-10
0.0109093
0.00740677
1.81973e-10
0.00896675
0.00746018
9.45108e-11
0.0072344
0.00764108
1.12278e-10
0.00569372
0.00832088
7.40901e-11
0.00456434
0.00949191
1.29403e-10
0.00251329
0.0104036
8.27486e-11
0.0106931
7.65534e-11
0.0168001
1.61424e-10
9.15863e-17
0.0168001
8.89757e-10
-4.14486e-16
0.0168001
3.24177e-09
-9.70895e-16
0.0168
8.2977e-09
-2.28664e-15
0.0168
2.26158e-08
-9.73907e-15
0.0168
5.15958e-08
-2.01538e-14
0.0167998
1.34666e-07
-5.61249e-14
0.0167996
2.9787e-07
-1.08868e-13
0.0167987
7.99251e-07
-3.25282e-13
0.0167975
1.68363e-06
-5.41831e-13
0.0167911
5.365e-06
-2.47764e-12
0.0167907
8.81172e-06
-2.62689e-12
0.0167411
4.25289e-05
-2.18888e-11
0.0167586
7.50889e-05
-2.30802e-11
0.0165271
0.000404659
-1.77046e-10
0.0159137
0.00112573
-3.58086e-10
0.0149286
0.00693651
-1.24238e-09
0.0137155
0.0104826
4.76837e-10
0.0115682
0.00916437
2.54542e-10
0.00955812
0.0091397
1.22498e-10
0.00775913
0.00929259
9.07145e-11
0.00615921
0.0100847
1.01673e-10
0.00496278
0.0115677
1.87598e-10
0.00277784
0.0128498
9.22739e-11
0.0133671
4.09358e-11
0.0168001
1.84684e-10
9.7164e-17
0.0168001
9.96915e-10
-4.28882e-16
0.0168001
3.67426e-09
-1.01338e-15
0.0168
9.40715e-09
-2.3837e-15
0.0168
2.58507e-08
-9.32485e-15
0.0168
5.94786e-08
-1.98332e-14
0.0167998
1.54435e-07
-5.13822e-14
0.0167996
3.44812e-07
-9.73713e-14
0.0167988
8.91846e-07
-2.77013e-13
0.0167976
1.94014e-06
-4.7521e-13
0.0167929
5.34656e-06
-2.10119e-12
0.0167908
1.09741e-05
-1.14958e-12
0.0167549
3.68665e-05
-1.90068e-11
0.0167422
7.81695e-05
-1.73101e-11
0.0165858
0.000325313
-1.51237e-10
0.0161163
0.000977712
-3.62182e-10
0.0163548
0.00551225
-1.35999e-09
0.014666
0.012203
3.32924e-10
0.0122275
0.0112813
2.11776e-10
0.0101994
0.0108762
1.40381e-10
0.00834746
0.0109759
1.24385e-10
0.00673963
0.011805
1.17431e-10
0.00550009
0.0136307
1.4289e-10
0.00318607
0.0154693
9.72235e-11
0.0164241
2.63749e-11
0.0168001
1.99675e-10
1.05423e-16
0.0168001
1.06663e-09
-4.38216e-16
0.0168001
3.9932e-09
-1.03637e-15
0.0168
1.02476e-08
-2.51617e-15
0.0168
2.84685e-08
-9.24309e-15
0.0168
6.58222e-08
-2.03787e-14
0.0167998
1.72455e-07
-5.26559e-14
0.0167995
3.88302e-07
-1.02252e-13
0.0167987
1.00868e-06
-2.61671e-13
0.0167974
2.24474e-06
-4.92821e-13
0.0167935
5.86748e-06
-1.39467e-12
0.0167847
1.33293e-05
-2.48499e-12
0.0167707
3.44969e-05
-9.54243e-12
0.0167042
9.49516e-05
-1.46808e-11
0.0167001
0.000266634
-6.83402e-11
0.0164642
0.000835107
-2.09943e-10
0.0175462
0.00399315
-5.9467e-10
0.015362
0.0137118
-6.63513e-11
0.0127263
0.0134644
1.06109e-10
0.0108864
0.0125116
1.81752e-10
0.00899395
0.0127638
1.4992e-10
0.00744039
0.013446
1.07507e-10
0.00624771
0.0155589
7.54767e-11
0.00380527
0.0181937
7.71721e-11
0.0200845
1.37262e-11
0.0168001
2.20608e-10
1.07959e-16
0.0168001
1.07527e-09
-4.16041e-16
0.0168001
4.17503e-09
-1.17089e-15
0.0168
1.03339e-08
-2.7259e-15
0.0168
2.94379e-08
-9.49076e-15
0.0168
6.6862e-08
-2.13706e-14
0.0167998
1.77854e-07
-5.24245e-14
0.0167996
3.97595e-07
-1.01025e-13
0.0167987
1.04518e-06
-2.5431e-13
0.0167977
2.30468e-06
-4.85314e-13
0.0167936
6.19279e-06
-1.31732e-12
0.0167893
1.32222e-05
-2.54408e-12
0.0167682
3.78075e-05
-6.80923e-12
0.0167533
8.34931e-05
-1.72939e-11
0.0166473
0.000290875
-4.45211e-11
0.0166342
0.000750002
-1.29641e-10
0.0168473
0.00349377
-3.92668e-10
0.015122
0.0142539
-4.68352e-10
0.0132265
0.0148237
-7.88206e-11
0.0116257
0.0140595
2.26025e-10
0.00991592
0.0143512
1.42688e-10
0.0083842
0.0150353
8.50872e-11
0.00735775
0.0172093
8.05721e-11
0.00499117
0.0208495
1.00668e-10
0.0248968
2.10492e-12
0.0168001
1.04524e-16
2.59492e-10
0.0168001
-4.27637e-16
3.55097e-10
0.0168001
-1.31058e-15
3.88764e-09
0.0168001
-3.29947e-15
4.37123e-09
0.0168
-1.30835e-14
2.94776e-08
0.0168
-2.82694e-14
3.27306e-08
0.0167998
-6.50231e-14
1.97413e-07
0.0167997
-1.24366e-13
2.20468e-07
0.0167987
-2.94138e-13
1.28089e-06
0.0167987
-5.26612e-13
1.31007e-06
0.016793
-1.43436e-12
8.45661e-06
0.0167945
-2.58857e-12
6.48703e-06
0.0167568
-6.31615e-12
5.85728e-05
0.0167814
-1.52021e-11
3.28748e-05
0.0165906
-3.29142e-11
0.000423705
0.0166673
-9.46309e-11
0.000526251
0.0167977
-2.8962e-10
0.00333067
0.0153434
-4.46248e-10
0.0145538
0.0140409
1.18314e-10
0.015814
0.0125287
1.59878e-10
0.0154366
0.0109741
1.02187e-10
0.0157421
0.00959662
7.28347e-11
0.0164172
0.00869029
1.00192e-11
0.0185439
0.00676875
8.23248e-11
0.0232339
2.33767e-11
0.0315234
0.0168001
2.97994e-11
2.95023e-16
0.0168001
1.60983e-10
9.18453e-16
0.0168001
6.09725e-10
2.61147e-15
0.0168
1.55319e-09
5.24429e-15
0.0168
4.44971e-09
1.53724e-14
0.0167999
1.01967e-08
3.15894e-14
0.0167997
2.83006e-08
9.39905e-14
0.0167993
6.4029e-08
1.91333e-13
0.0167976
1.79663e-07
5.7002e-13
0.0167955
4.01983e-07
1.06548e-12
0.0167857
1.18293e-06
3.75312e-12
0.0167725
2.57915e-06
6.09565e-12
0.0167235
8.74626e-06
2.44806e-11
0.0166411
2.14156e-05
5.83065e-11
0.0164493
9.06441e-05
1.53808e-10
0.0156777
0.000290448
5.1349e-10
0.0129757
0.00181506
1.00197e-09
0.0118072
0.00170708
-7.33373e-10
0.00979563
0.00150605
-2.08588e-10
0.00786408
0.00147201
-1.87525e-10
0.00622434
0.00148671
-2.31794e-10
0.00490931
0.00160313
-2.88066e-10
0.00388752
0.00181504
-2.92331e-10
0.00203406
0.00197515
-3.12348e-10
0.0019437
-3.83158e-10
0.0168001
5.89194e-11
2.85425e-16
0.0168001
3.20178e-10
8.87396e-16
0.0168001
1.20526e-09
2.49815e-15
0.0168
3.06584e-09
4.97547e-15
0.0168
8.73136e-09
1.46234e-14
0.0167999
1.99063e-08
2.9941e-14
0.0167997
5.52239e-08
9.07877e-14
0.0167993
1.24224e-07
1.85804e-13
0.0167977
3.52118e-07
5.60992e-13
0.0167956
7.7709e-07
1.06129e-12
0.0167859
2.35613e-06
3.6855e-12
0.0167728
5.00662e-06
6.02717e-12
0.0167249
1.77953e-05
2.43696e-11
0.0166415
4.15486e-05
5.45284e-11
0.0164524
0.000188979
1.68198e-10
0.0156737
0.000578731
5.15085e-10
0.0129715
0.00358972
1.03882e-09
0.0118038
0.00343087
-7.36874e-10
0.00985368
0.00296042
-2.1315e-10
0.00794545
0.00293046
-2.00862e-10
0.00629667
0.00298508
-2.5102e-10
0.00495322
0.00323065
-3.05856e-10
0.00392842
0.00364695
-3.01287e-10
0.00208573
0.00395015
-3.02782e-10
0.003943
-3.70634e-10
0.0168001
8.65501e-11
2.71125e-16
0.0168001
4.731e-10
8.41766e-16
0.0168001
1.76984e-09
2.30438e-15
0.0168
4.50902e-09
4.51427e-15
0.0168
1.2689e-08
1.30171e-14
0.0168
2.88442e-08
2.61851e-14
0.0167997
7.89734e-08
8.14287e-14
0.0167994
1.76468e-07
1.65944e-13
0.0167978
5.01151e-07
5.21239e-13
0.0167959
1.09266e-06
9.32455e-13
0.0167863
3.40031e-06
3.58834e-12
0.0167743
7.01941e-06
5.42065e-12
0.0167262
2.64465e-05
2.54946e-11
0.0166467
5.90993e-05
4.20468e-11
0.0164731
0.000280404
2.13439e-10
0.0156973
0.000835121
4.95204e-10
0.0131061
0.00518413
1.105e-09
0.0119604
0.00517624
-7.47756e-10
0.0100376
0.00440505
-2.27781e-10
0.00814735
0.00438887
-2.24883e-10
0.00649042
0.00449623
-2.82832e-10
0.0051027
0.00488885
-3.32608e-10
0.00404632
0.00553018
-3.07902e-10
0.00216917
0.00598274
-2.91636e-10
0.0060348
-3.55488e-10
0.0168001
1.11943e-10
2.59576e-16
0.0168001
6.16051e-10
8.09005e-16
0.0168001
2.2916e-09
2.15779e-15
0.0168
5.85185e-09
4.19071e-15
0.0168
1.63087e-08
1.16526e-14
0.0168
3.70772e-08
2.28944e-14
0.0167998
9.95607e-08
7.14695e-14
0.0167995
2.20942e-07
1.44629e-13
0.0167981
6.1949e-07
4.86057e-13
0.0167963
1.33324e-06
9.41213e-13
0.0167869
4.24032e-06
3.39814e-12
0.0167767
8.66772e-06
5.62225e-12
0.0167286
3.30865e-05
2.5895e-11
0.0166571
7.36744e-05
4.28667e-11
0.0165047
0.000350596
2.03571e-10
0.0157531
0.00102835
4.94771e-10
0.0134173
0.00642864
1.20821e-09
0.0123076
0.0069346
-7.5029e-10
0.0103895
0.00586628
-2.60784e-10
0.0084904
0.00588334
-2.63359e-10
0.00680605
0.00604051
-3.16215e-10
0.00534773
0.00658884
-3.73705e-10
0.00426524
0.00747277
-3.44627e-10
0.00230171
0.00813607
-2.79963e-10
0.00826344
-3.29453e-10
0.0168001
1.35914e-10
2.46507e-16
0.0168001
7.53345e-10
7.72839e-16
0.0168001
2.76911e-09
2.0163e-15
0.0168
7.0767e-09
3.92928e-15
0.0168
1.95492e-08
1.06003e-14
0.0168
4.45029e-08
2.08772e-14
0.0167998
1.18169e-07
6.06227e-14
0.0167996
2.61756e-07
1.18487e-13
0.0167985
7.15524e-07
3.93456e-13
0.0167969
1.50367e-06
7.15616e-13
0.0167888
4.90342e-06
2.99031e-12
0.0167834
8.94353e-06
4.91597e-12
0.0167343
3.93198e-05
2.37573e-11
0.0166956
7.73648e-05
4.18321e-11
0.0165363
0.000402262
1.93247e-10
0.0158159
0.00112752
4.82952e-10
0.0139728
0.0071143
1.3134e-09
0.0128834
0.0087249
-7.44251e-10
0.0109093
0.00740675
-3.03451e-10
0.00896673
0.00746008
-2.99612e-10
0.00723425
0.00764102
-3.48571e-10
0.00569352
0.00832076
-3.62643e-10
0.00456428
0.00949159
-2.71999e-10
0.00251325
0.0104037
-2.39297e-10
0.0106933
-2.66698e-10
0.0168001