/*--------------------------------*- C++ -*----------------------------------*\
| =========                 |                                                 |
| \\      /  F ield         | OpenFOAM: The Open Source CFD Toolbox           |
|  \\    /   O peration     | Version:  4.1                                   |
|   \\  /    A nd           | Web:      www.OpenFOAM.org                      |
|    \\/     M anipulation  |                                                 |
\*---------------------------------------------------------------------------*/
FoamFile
{
    version     2.0;
    format      ascii;
    class       surfaceScalarField;
    location    "3.58";
    object      phi;
}
// * * * * * * * * * * * * * * * * * * * * * * * * * * * * * * * * * * * * * //

dimensions      [1 0 -1 0 0 0 0];

internalField   nonuniform List<scalar> 
150500
(
0.0168001
1.74373e-10
-3.3855e-12
0.0168001
9.64995e-10
-1.16469e-11
0.0168001
3.60149e-09
-1.3467e-11
0.0168
9.20908e-09
-2.17082e-11
0.0168
2.55532e-08
-2.13355e-11
0.0168
5.8182e-08
-2.92581e-11
0.0167998
1.55775e-07
-2.93119e-11
0.0167995
3.36375e-07
-4.04504e-11
0.0167985
9.74076e-07
-4.2636e-11
0.0167966
2.01021e-06
-7.8695e-11
0.0167897
6.6184e-06
-1.01476e-10
0.0167753
1.49578e-05
-2.42873e-10
0.0167099
6.4851e-05
-3.40136e-10
0.0165279
0.000182451
-1.29758e-09
0.0154517
0.0010767
-2.88167e-09
0.0141624
0.00128878
6.07648e-10
0.0129195
0.00124238
5.13857e-12
0.0116275
0.001291
-3.17792e-10
0.010268
0.00135893
-3.12292e-10
0.0088214
0.00144457
-2.78046e-10
0.00727021
0.00155005
-2.39497e-10
0.00560775
0.00166004
-2.28865e-10
0.0038479
0.00176037
-2.13837e-10
0.00198355
0.00186528
-2.01994e-10
0.00198104
-1.97607e-10
0.0168001
3.46673e-10
-3.37812e-12
0.0168001
1.911e-09
-1.16466e-11
0.0168001
7.14718e-09
-1.34716e-11
0.0168
1.82322e-08
-2.16756e-11
0.0168
5.07862e-08
-2.1365e-11
0.0168
1.15449e-07
-2.92032e-11
0.0167998
3.1146e-07
-2.92783e-11
0.0167995
6.68206e-07
-4.02495e-11
0.0167984
1.97219e-06
-4.24995e-11
0.0167966
4.0188e-06
-7.7809e-11
0.0167894
1.35055e-05
-1.00547e-10
0.0167746
3.0251e-05
-2.39196e-10
0.016707
0.000131949
-3.37418e-10
0.0165203
0.00036959
-1.27711e-09
0.0154556
0.00214186
-2.86393e-09
0.0141365
0.00260747
6.01756e-10
0.0129079
0.00247037
-2.22248e-13
0.0116348
0.00256311
-3.22885e-10
0.0102848
0.00270839
-3.16243e-10
0.00882578
0.00290159
-2.80154e-10
0.00725545
0.00311922
-2.39982e-10
0.00557677
0.00333633
-2.29008e-10
0.00379624
0.00354142
-2.12608e-10
0.00192255
0.00373991
-1.98219e-10
0.00390085
-1.9169e-10
0.0168001
5.03774e-10
-3.36556e-12
0.0168001
2.75811e-09
-1.16416e-11
0.0168001
1.03065e-08
-1.34913e-11
0.0168
2.61738e-08
-2.15892e-11
0.0168
7.31692e-08
-2.14617e-11
0.0168
1.65838e-07
-2.90789e-11
0.0167998
4.50039e-07
-2.92524e-11
0.0167996
9.61555e-07
-3.98716e-11
0.0167986
2.84967e-06
-4.23577e-11
0.016797
5.80174e-06
-7.62035e-11
0.0167903
1.98726e-05
-9.88524e-11
0.0167761
4.49515e-05
-2.31856e-10
0.0167122
0.000195403
-3.29775e-10
0.0165358
0.000546334
-1.22947e-09
0.0155598
0.00311827
-2.81737e-09
0.0142165
0.00395031
5.8881e-10
0.0129847
0.00370155
-3.38623e-12
0.0117222
0.00382463
-3.27985e-10
0.0103835
0.00404663
-3.22346e-10
0.00892454
0.00435848
-2.85508e-10
0.0073482
0.00469454
-2.41643e-10
0.00565153
0.00503057
-2.28875e-10
0.00384473
0.00534876
-2.10466e-10
0.00194309
0.00564253
-1.9314e-10
0.00584144
-1.8209e-10
0.0168001
5.65961e-10
-3.34539e-12
0.0168001
3.15065e-09
-1.16363e-11
0.0168001
1.17858e-08
-1.35063e-11
0.0168001
3.00389e-08
-2.14891e-11
0.0168
8.32959e-08
-2.15352e-11
0.0168
1.86848e-07
-2.88898e-11
0.0167999
5.20862e-07
-2.90759e-11
0.0167999
9.95052e-07
-3.90193e-11
0.016799
3.71546e-06
-4.16647e-11
0.0167995
5.45809e-06
-7.19669e-11
0.0167902
2.88683e-05
-9.36795e-11
0.0167826
5.30079e-05
-2.18053e-10
0.0167197
0.000257811
-3.12446e-10
0.0165698
0.000696606
-1.15945e-09
0.0157639
0.00392441
-2.77936e-09
0.0144013
0.00531246
4.88111e-10
0.0131613
0.00494096
-3.4492e-11
0.0119047
0.00508028
-3.2636e-10
0.0105766
0.00537411
-3.19772e-10
0.00912423
0.0058087
-2.83046e-10
0.00754686
0.00627087
-2.43393e-10
0.00584391
0.00673112
-2.33296e-10
0.00400193
0.00719137
-2.13454e-10
0.00202857
0.00761694
-1.93998e-10
0.00786764
-1.78073e-10
0.0168001
7.5968e-10
-3.33946e-12
0.0168001
4.18875e-09
-1.15991e-11
0.0168001
1.56009e-08
-1.35992e-11
0.0168
3.98504e-08
-2.13662e-11
0.0168
1.10387e-07
-2.1843e-11
0.0168
2.5098e-07
-2.89967e-11
0.0167998
6.7504e-07
-2.97293e-11
0.0167994
1.41978e-06
-4.23682e-11
0.0167986
4.45714e-06
-3.83074e-11
0.0167967
7.40494e-06
-1.11065e-10
0.016792
3.33558e-05
-9.21731e-12
0.0167817
6.37736e-05
-3.07939e-10
0.0167468
0.000292224
-1.21408e-10
0.0166513
0.000792386
-1.01639e-09
0.0162017
0.00437411
-2.42357e-09
0.014816
0.00669762
2.41806e-10
0.013515
0.00624158
-1.79853e-10
0.0122365
0.00635789
-3.53057e-10
0.010917
0.00669347
-3.31165e-10
0.00946923
0.00725453
-2.81249e-10
0.00788409
0.00785489
-2.53278e-10
0.0061483
0.00846399
-2.45883e-10
0.00425543
0.00908469
-2.25121e-10
0.00219405
0.0096794
-2.0589e-10
0.0100594
-1.88353e-10
0.0168001
9.07724e-10
-3.31129e-12
0.0168001
4.99185e-09
-1.15791e-11
0.0168001
1.86006e-08
-1.35636e-11
0.0168
4.75653e-08
-2.12505e-11
0.0168
1.3185e-07
-2.15447e-11
0.0168
3.01292e-07
-2.8287e-11
0.0167999
7.96284e-07
-2.82673e-11
0.0167995
1.76254e-06
-3.62903e-11
0.0167991
4.85902e-06
-3.862e-11
0.0167965
1.00111e-05
-6.78685e-11
0.0167959
3.3855e-05
-5.09581e-11
0.0167911
6.89107e-05
-2.15079e-10
0.0167857
0.000297125
-1.83218e-10
0.0167802
0.000798134
-8.68269e-10
0.016932
0.00422215
-2.15821e-09
0.0155174
0.00811169
-6.51676e-11
0.0140735
0.00768506
-2.72478e-10
0.0127404
0.00769003
-3.32123e-10
0.0114077
0.00802603
-3.09351e-10
0.00998007
0.00868019
-2.68169e-10
0.00838384
0.00945059
-2.57103e-10
0.00662164
0.0102241
-2.57058e-10
0.00465181
0.0110549
-2.39931e-10
0.00242873
0.0119036
-2.24617e-10
0.0124862
-2.11758e-10
0.0168001
9.50902e-10
-3.27508e-12
0.0168001
5.26202e-09
-1.1584e-11
0.0168001
1.95858e-08
-1.35411e-11
0.0168001
5.02629e-08
-2.12217e-11
0.0168
1.38226e-07
-2.14494e-11
0.0168
3.16207e-07
-2.8121e-11
0.0168
8.23904e-07
-2.77866e-11
0.0167999
1.8326e-06
-3.5341e-11
0.0167999
4.83972e-06
-3.73212e-11
0.0167994
1.05842e-05
-5.37328e-11
0.0168024
3.07068e-05
-5.87191e-11
0.0168026
6.89821e-05
-1.61446e-10
0.0168508
0.000248484
-1.57043e-10
0.0169836
0.000665423
-6.35872e-10
0.0180715
0.00313401
-1.22487e-09
0.0166899
0.00949272
-8.67335e-10
0.0149047
0.00946993
-4.55089e-10
0.0134911
0.00910286
-2.89426e-10
0.012134
0.00938257
-2.73433e-10
0.0106872
0.0101253
-2.53567e-10
0.00907997
0.0110567
-2.53528e-10
0.00726475
0.0120375
-2.5945e-10
0.00521654
0.0131037
-2.51469e-10
0.00283387
0.0142874
-2.44596e-10
0.0153185
-2.40487e-10
0.0168001
1.03176e-09
-3.24278e-12
0.0168001
5.73116e-09
-1.15933e-11
0.0168001
2.13817e-08
-1.35403e-11
0.0168001
5.50941e-08
-2.12196e-11
0.0168
1.51545e-07
-2.14315e-11
0.0168
3.47927e-07
-2.80801e-11
0.0167999
9.04059e-07
-2.7667e-11
0.0167997
2.03412e-06
-3.50447e-11
0.0167993
5.24752e-06
-3.66353e-11
0.016798
1.19035e-05
-5.20751e-11
0.0167978
3.0801e-05
-5.40327e-11
0.0167899
7.71099e-05
-1.56483e-10
0.0168086
0.000229372
-1.23997e-10
0.0168293
0.000644825
-5.41946e-10
0.0172004
0.00276242
-1.08514e-09
0.0166588
0.0100335
-1.51642e-09
0.0151766
0.0109518
-6.10353e-10
0.0140368
0.010242
-2.18131e-10
0.0128034
0.0106154
-2.15618e-10
0.0114431
0.011484
-2.25436e-10
0.00989889
0.0125998
-2.40812e-10
0.00811632
0.0138183
-2.49866e-10
0.00602265
0.0151978
-2.48427e-10
0.00343467
0.0168768
-2.52118e-10
0.0187518
-2.61775e-10
0.0168001
1.38332e-09
-3.21639e-12
0.0168001
6.17876e-09
-1.1595e-11
0.0168001
2.51691e-08
-1.35544e-11
0.0168
6.06398e-08
-2.12236e-11
0.0168
1.76798e-07
-2.14761e-11
0.0168
3.86887e-07
-2.81728e-11
0.0167999
1.03275e-06
-2.7978e-11
0.0167995
2.34329e-06
-3.58513e-11
0.0167993
5.42536e-06
-3.74378e-11
0.0167977
1.3636e-05
-6.06706e-11
0.0167967
3.16091e-05
-4.33374e-11
0.0168016
7.24351e-05
-1.87709e-10
0.0167948
0.000235715
-6.9434e-11
0.0168035
0.00063642
-5.41702e-10
0.0169959
0.00256936
-8.8501e-10
0.0163092
0.0107192
-1.70163e-09
0.0157208
0.0115397
-2.80894e-10
0.0145292
0.011433
-1.56043e-10
0.013318
0.0118267
-1.76592e-10
0.0121628
0.0126374
-1.93396e-10
0.0107726
0.0139892
-2.20638e-10
0.0091538
0.0154341
-2.26371e-10
0.00720632
0.0171455
-2.29895e-10
0.00451798
0.0195664
-2.39557e-10
0.023269
-2.6164e-10
0.0168001
-3.23964e-12
1.98429e-09
0.0168001
-1.16299e-11
1.44845e-09
0.0168001
-1.36246e-11
2.62431e-08
0.0168001
-2.18696e-11
2.23077e-08
0.0168001
-2.11841e-11
1.72804e-07
0.0168003
-2.91171e-11
1.451e-07
0.0168003
-2.81078e-11
1.0501e-06
0.0168019
-3.74569e-11
7.2713e-07
0.0168002
-3.62642e-11
7.10611e-06
0.0168112
-5.97383e-11
2.87088e-06
0.0167893
-6.16641e-11
5.34772e-05
0.0168515
-1.37721e-10
1.04017e-05
0.0167077
-7.23346e-11
0.000379092
0.0169907
-5.69565e-10
0.00035345
0.0169256
-6.73252e-10
0.002634
0.0165404
-1.82753e-09
0.011103
0.0156942
-1.64879e-10
0.0123854
0.0148304
-1.05831e-10
0.0122962
0.0139192
-1.65778e-10
0.0127374
0.0129199
-1.7961e-10
0.0136357
0.0118488
-1.99137e-10
0.0150594
0.0105723
-1.98313e-10
0.016709
0.00880932
-1.98336e-10
0.0189075
0.00622931
-2.01816e-10
0.0221474
-2.20508e-10
0.0294979
0.0168001
1.78056e-10
-4.87493e-16
0.0168001
9.68101e-10
-2.61545e-15
0.0168001
3.60286e-09
-5.58715e-15
0.0168
9.22637e-09
-1.18263e-14
0.0168
2.55542e-08
-2.07781e-14
0.0168
5.82108e-08
-3.85721e-14
0.0167998
1.55818e-07
-7.91833e-14
0.0167995
3.36518e-07
-1.38997e-13
0.0167985
9.74281e-07
-4.0259e-13
0.0167966
2.01086e-06
-6.48557e-13
0.0167897
6.61958e-06
-2.44416e-12
0.0167753
1.49608e-05
-4.57022e-12
0.0167099
6.48575e-05
-1.90851e-11
0.0165278
0.000182474
-4.85181e-11
0.0154516
0.00107679
-1.36776e-10
0.0141623
0.00128878
3.41709e-11
0.0129193
0.00124238
6.90636e-12
0.0116273
0.001291
-9.57848e-12
0.0102679
0.00135892
-8.975e-12
0.00882129
0.00144456
-7.40196e-12
0.00727012
0.00155003
-7.4971e-12
0.00560768
0.00166002
-8.77217e-12
0.00384785
0.00176035
-9.49702e-12
0.00198353
0.00186525
-1.02554e-11
0.00198102
-1.1136e-11
0.0168001
3.52971e-10
-4.87113e-16
0.0168001
1.91922e-09
-2.61407e-15
0.0168001
7.14514e-09
-5.58427e-15
0.0168
1.82775e-08
-1.18178e-14
0.0168
5.07703e-08
-2.07674e-14
0.0168
1.15516e-07
-3.85541e-14
0.0167998
3.11532e-07
-7.91333e-14
0.0167995
6.68495e-07
-1.39138e-13
0.0167984
1.97258e-06
-4.01954e-13
0.0167965
4.0201e-06
-6.49342e-13
0.0167894
1.35081e-05
-2.44184e-12
0.0167746
3.02577e-05
-4.56255e-12
0.016707
0.000131965
-1.90085e-11
0.0165202
0.000369643
-4.82988e-11
0.0154555
0.00214207
-1.36941e-10
0.0141363
0.00260746
3.42734e-11
0.0129077
0.00247036
6.56259e-12
0.0116346
0.0025631
-9.5615e-12
0.0102847
0.00270837
-8.91099e-12
0.00882565
0.00290156
-7.29686e-12
0.00725534
0.00311919
-7.37441e-12
0.00557667
0.00333629
-8.60452e-12
0.00379617
0.00354136
-9.36532e-12
0.00192252
0.00373984
-1.01484e-11
0.00390081
-1.10576e-11
0.0168001
5.13161e-10
-4.85512e-16
0.0168001
2.76816e-09
-2.60757e-15
0.0168001
1.03086e-08
-5.56556e-15
0.0168
2.6222e-08
-1.17707e-14
0.0168
7.31619e-08
-2.06632e-14
0.0168
1.65904e-07
-3.8346e-14
0.0167998
4.50122e-07
-7.85832e-14
0.0167995
9.6178e-07
-1.38501e-13
0.0167986
2.8499e-06
-3.98547e-13
0.016797
5.80185e-06
-6.4651e-13
0.0167903
1.98761e-05
-2.42996e-12
0.0167761
4.49624e-05
-4.53064e-12
0.0167121
0.000195432
-1.88499e-11
0.0165357
0.000546437
-4.78972e-11
0.0155596
0.00311866
-1.38023e-10
0.0142162
0.00395031
3.41649e-11
0.0129844
0.00370153
6.01023e-12
0.011722
0.0038246
-9.53789e-12
0.0103833
0.0040466
-8.85875e-12
0.00892432
0.00435846
-7.21346e-12
0.00734799
0.0046945
-7.19683e-12
0.00565135
0.0050305
-8.29253e-12
0.00384459
0.00534866
-9.03184e-12
0.00194301
0.00564239
-9.8334e-12
0.00584132
-1.07322e-11
0.0168001
5.70312e-10
-4.82723e-16
0.0168001
3.17413e-09
-2.59491e-15
0.0168001
1.17632e-08
-5.532e-15
0.0168001
3.01003e-08
-1.16912e-14
0.0168
8.32161e-08
-2.05071e-14
0.0168
1.86845e-07
-3.80729e-14
0.0167999
5.20696e-07
-7.78718e-14
0.0167999
9.94194e-07
-1.38528e-13
0.016799
3.71727e-06
-3.93199e-13
0.0167995
5.44629e-06
-6.48419e-13
0.0167902
2.89057e-05
-2.40937e-12
0.0167826
5.29737e-05
-4.45319e-12
0.0167196
0.00025794
-1.85303e-11
0.0165696
0.000696767
-4.69901e-11
0.0157634
0.00392516
-1.38881e-10
0.0144008
0.00531248
3.26125e-11
0.0131609
0.0049408
4.87304e-12
0.0119043
0.00508019
-9.48643e-12
0.0105763
0.00537405
-8.86071e-12
0.00912393
0.00580867
-7.27266e-12
0.00754658
0.00627081
-6.97583e-12
0.00584367
0.00673101
-7.94799e-12
0.00400174
0.0071912
-8.51584e-12
0.00202846
0.00761672
-9.20898e-12
0.0078674
-9.99934e-12
0.0168001
7.73562e-10
-4.62083e-16
0.0168001
4.20946e-09
-2.52767e-15
0.0168001
1.56365e-08
-5.28499e-15
0.0168
3.99295e-08
-1.08933e-14
0.0168
1.10593e-07
-1.89223e-14
0.0168
2.51438e-07
-3.36378e-14
0.0167998
6.76043e-07
-6.84268e-14
0.0167994
1.42329e-06
-1.00217e-13
0.0167986
4.45888e-06
-3.952e-13
0.0167967
7.42705e-06
-3.02293e-13
0.0167921
3.33465e-05
-2.41275e-12
0.0167816
6.38271e-05
-3.45804e-12
0.0167468
0.000292224
-1.88272e-11
0.0166513
0.00079254
-4.48836e-11
0.0162017
0.00437489
-1.37607e-10
0.0148161
0.0066976
2.62817e-11
0.0135149
0.00624151
5.25301e-12
0.0122364
0.00635785
-8.80438e-12
0.0109168
0.00669345
-8.66331e-12
0.00946908
0.00725452
-7.48274e-12
0.00788392
0.00785486
-6.62045e-12
0.00614813
0.0084639
-7.32451e-12
0.00425528
0.0090845
-7.70875e-12
0.00219396
0.00967913
-8.30858e-12
0.0100591
-9.02527e-12
0.0168001
9.25593e-10
-4.69211e-16
0.0168001
5.00407e-09
-2.5478e-15
0.0168001
1.86278e-08
-5.39039e-15
0.0168
4.76072e-08
-1.11661e-14
0.0168
1.31948e-07
-1.9734e-14
0.0168
3.01494e-07
-3.60489e-14
0.0167999
7.96784e-07
-7.11718e-14
0.0167995
1.7637e-06
-1.32044e-13
0.0167991
4.86121e-06
-3.46226e-13
0.0167966
1.0021e-05
-5.33099e-13
0.0167959
3.38612e-05
-2.33014e-12
0.0167911
6.89441e-05
-3.52571e-12
0.0167857
0.000297175
-1.65597e-11
0.0167801
0.000798315
-4.09797e-11
0.0169316
0.00422325
-1.31642e-10
0.0155172
0.00811147
8.42054e-12
0.0140734
0.00768486
9.31922e-13
0.0127404
0.00768997
-8.03798e-12
0.0114076
0.00802602
-8.29849e-12
0.00998003
0.00868019
-7.90322e-12
0.0083838
0.00945056
-6.51962e-12
0.00662158
0.010224
-6.90379e-12
0.00465175
0.0110548
-7.03319e-12
0.00242868
0.0119033
-7.30177e-12
0.0124858
-7.77901e-12
0.0168001
9.6703e-10
-4.5454e-16
0.0168001
5.27069e-09
-2.48196e-15
0.0168001
1.95982e-08
-5.16964e-15
0.0168001
5.02778e-08
-1.06854e-14
0.0168
1.38252e-07
-1.82511e-14
0.0168
3.16255e-07
-3.29423e-14
0.0168
8.2401e-07
-6.14214e-14
0.0167999
1.83284e-06
-1.12223e-13
0.0167999
4.84024e-06
-2.68644e-13
0.0167994
1.05855e-05
-4.73414e-13
0.0168024
3.07107e-05
-1.6943e-12
0.0168027
6.8988e-05
-2.35357e-12
0.0168509
0.000248515
-1.18271e-11
0.0169838
0.000665517
-2.79855e-11
0.0180723
0.00313449
-7.34919e-11
0.0166902
0.00949304
-4.34887e-11
0.0149048
0.00946984
-1.30852e-11
0.0134912
0.00910281
-8.51198e-12
0.0121341
0.00938259
-8.72202e-12
0.0106873
0.0101253
-8.93732e-12
0.00908004
0.0110566
-7.20314e-12
0.0072648
0.0120375
-6.83943e-12
0.00521656
0.0131035
-6.65869e-12
0.00283387
0.0142871
-6.42561e-12
0.0153181
-6.48113e-12
0.0168001
1.04332e-09
-4.50114e-16
0.0168001
5.73492e-09
-2.45958e-15
0.0168001
2.1374e-08
-5.10663e-15
0.0168001
5.50625e-08
-1.05438e-14
0.0168
1.51453e-07
-1.78743e-14
0.0168
3.4779e-07
-3.21582e-14
0.0167999
9.03726e-07
-5.92281e-14
0.0167997
2.03344e-06
-1.08393e-13
0.0167993
5.24649e-06
-2.505e-13
0.016798
1.18994e-05
-4.71212e-13
0.0167978
3.08042e-05
-1.35892e-12
0.0167899
7.70939e-05
-2.73391e-12
0.0168086
0.000229402
-8.96537e-12
0.0168294
0.000644842
-2.25843e-11
0.0172007
0.00276273
-6.54024e-11
0.0166593
0.0100336
-8.75313e-11
0.0151769
0.0109519
-2.90548e-11
0.014037
0.010242
-7.44378e-12
0.0128036
0.0106155
-7.88242e-12
0.0114432
0.0114841
-9.1019e-12
0.00989902
0.0125998
-8.33812e-12
0.00811646
0.0138183
-7.39697e-12
0.00602274
0.0151977
-6.71449e-12
0.00343471
0.0168766
-5.86411e-12
0.0187515
-5.34676e-12
0.0168001
1.35902e-09
-4.5643e-16
0.0168001
6.28526e-09
-2.48098e-15
0.0168001
2.52159e-08
-5.20627e-15
0.0168
6.03988e-08
-1.0755e-14
0.0168
1.76828e-07
-1.86441e-14
0.0168
3.86466e-07
-3.38426e-14
0.0167999
1.03252e-06
-6.45441e-14
0.0167995
2.34256e-06
-1.23114e-13
0.0167993
5.42506e-06
-2.65517e-13
0.0167977
1.36364e-05
-6.38349e-13
0.0167967
3.16029e-05
-1.06455e-12
0.0168016
7.24514e-05
-3.84352e-12
0.0167948
0.000235715
-6.83742e-12
0.0168035
0.00063644
-2.17351e-11
0.016996
0.00256955
-5.65414e-11
0.0163092
0.0107193
-1.00626e-10
0.015721
0.0115397
-1.14265e-11
0.0145293
0.0114331
-4.78114e-12
0.0133182
0.0118267
-7.21716e-12
0.012163
0.0126374
-8.13953e-12
0.0107727
0.0139892
-8.93177e-12
0.00915397
0.0154341
-7.36999e-12
0.00720647
0.0171454
-6.65587e-12
0.00451807
0.0195663
-5.37682e-12
0.0232687
-4.52201e-12
0.0168001
-4.49924e-16
1.84901e-09
0.0168001
-2.42527e-15
1.81459e-09
0.0168001
-5.0086e-15
2.50491e-08
0.0168001
-1.05676e-14
2.28258e-08
0.0168001
-1.70237e-14
1.71402e-07
0.0168003
-3.119e-14
1.45747e-07
0.0168003
-5.49157e-14
1.04904e-06
0.0168019
-1.01132e-13
7.28242e-07
0.0168002
-2.18557e-13
7.10493e-06
0.0168112
-4.19172e-13
2.87666e-06
0.0167893
-1.11933e-12
5.34745e-05
0.0168515
-2.46685e-12
1.04222e-05
0.0167077
-5.8356e-12
0.000379058
0.0169906
-2.20831e-11
0.000353555
0.0169257
-4.71195e-11
0.00263398
0.0165404
-1.11274e-10
0.0111032
0.0156942
-6.45022e-12
0.0123854
0.0148305
-3.24824e-12
0.0122962
0.0139193
-7.69207e-12
0.0127374
0.0129201
-8.30061e-12
0.0136357
0.011849
-8.7181e-12
0.0150593
0.0105725
-7.76593e-12
0.0167089
0.00880949
-6.19956e-12
0.0189074
0.00622944
-4.44671e-12
0.0221473
-3.83865e-12
0.0294978
0.0168001
1.78056e-10
1.76224e-16
0.0168001
9.68102e-10
1.8247e-16
0.0168001
3.60287e-09
-3.45564e-17
0.0168
9.22638e-09
-7.46507e-17
0.0168
2.55542e-08
-1.99563e-16
0.0168
5.82108e-08
-4.03483e-16
0.0167998
1.55818e-07
-1.09026e-15
0.0167995
3.36518e-07
-2.08398e-15
0.0167985
9.74281e-07
-6.31666e-15
0.0167966
2.01086e-06
-1.0968e-14
0.0167897
6.61958e-06
-3.84904e-14
0.0167753
1.49608e-05
-7.34419e-14
0.0167099
6.48576e-05
-2.76444e-13
0.0165278
0.000182474
-6.81537e-13
0.0154516
0.00107679
-1.75378e-12
0.0141623
0.00128878
5.85494e-13
0.0129193
0.00124238
-1.34748e-13
0.0116273
0.001291
-5.05622e-13
0.0102679
0.00135892
-5.12037e-13
0.0088213
0.00144456
-5.74167e-13
0.00727013
0.00155003
-6.77415e-13
0.00560769
0.00166002
-8.53925e-13
0.00384786
0.00176035
-8.85042e-13
0.00198354
0.00186525
-9.49463e-13
0.00198102
-1.03641e-12
0.0168001
3.52972e-10
1.76139e-16
0.0168001
1.91922e-09
1.82559e-16
0.0168001
7.14516e-09
-3.47377e-17
0.0168
1.82775e-08
-7.49794e-17
0.0168
5.07704e-08
-2.00829e-16
0.0168
1.15516e-07
-4.06129e-16
0.0167998
3.11532e-07
-1.09854e-15
0.0167995
6.68496e-07
-2.10303e-15
0.0167984
1.97258e-06
-6.36814e-15
0.0167965
4.02011e-06
-1.10827e-14
0.0167894
1.35081e-05
-3.8875e-14
0.0167746
3.02577e-05
-7.41668e-14
0.016707
0.000131965
-2.78763e-13
0.0165202
0.000369644
-6.87705e-13
0.0154555
0.00214208
-1.7852e-12
0.0141363
0.00260746
5.81711e-13
0.0129077
0.00247036
-1.42065e-13
0.0116346
0.00256309
-5.04547e-13
0.0102847
0.00270837
-5.08028e-13
0.00882566
0.00290156
-5.65999e-13
0.00725534
0.00311919
-6.68426e-13
0.00557667
0.00333629
-8.4226e-13
0.00379617
0.00354136
-8.74472e-13
0.00192252
0.00373984
-9.4025e-13
0.00390081
-1.02969e-12
0.0168001
5.13163e-10
1.75853e-16
0.0168001
2.76817e-09
1.83115e-16
0.0168001
1.03086e-08
-3.48588e-17
0.0168
2.62221e-08
-7.52318e-17
0.0168
7.31622e-08
-2.02032e-16
0.0168
1.65905e-07
-4.08643e-16
0.0167998
4.50124e-07
-1.10857e-15
0.0167995
9.61784e-07
-2.1273e-15
0.0167986
2.84991e-06
-6.44433e-15
0.016797
5.80188e-06
-1.12526e-14
0.0167903
1.98762e-05
-3.95904e-14
0.0167761
4.49625e-05
-7.54668e-14
0.0167121
0.000195433
-2.83942e-13
0.0165357
0.000546438
-7.02669e-13
0.0155596
0.00311867
-1.8687e-12
0.0142162
0.00395031
5.66389e-13
0.0129844
0.00370152
-1.56885e-13
0.011722
0.0038246
-5.07269e-13
0.0103833
0.0040466
-5.07347e-13
0.00892433
0.00435846
-5.60802e-13
0.007348
0.0046945
-6.55376e-13
0.00565135
0.0050305
-8.23682e-13
0.00384459
0.00534866
-8.52592e-13
0.00194301
0.00564239
-9.19225e-13
0.00584132
-1.00887e-12
0.0168001
5.70321e-10
1.75361e-16
0.0168001
3.17416e-09
1.84307e-16
0.0168001
1.17633e-08
-3.48376e-17
0.0168001
3.01007e-08
-7.512e-17
0.0168
8.3217e-08
-2.02913e-16
0.0168
1.86847e-07
-4.10808e-16
0.0167999
5.20701e-07
-1.12008e-15
0.0167999
9.94211e-07
-2.15987e-15
0.016799
3.71728e-06
-6.54064e-15
0.0167995
5.44643e-06
-1.14898e-14
0.0167902
2.89056e-05
-4.05265e-14
0.0167826
5.29743e-05
-7.66113e-14
0.0167196
0.000257941
-2.90913e-13
0.0165696
0.00069677
-7.21042e-13
0.0157634
0.00392518
-1.99187e-12
0.0144008
0.00531247
5.18748e-13
0.0131609
0.0049408
-1.7007e-13
0.0119044
0.00508018
-5.10842e-13
0.0105763
0.00537405
-5.092e-13
0.00912393
0.00580867
-5.58332e-13
0.00754659
0.00627081
-6.40899e-13
0.00584367
0.00673101
-8.00229e-13
0.00400175
0.00719121
-8.20117e-13
0.00202847
0.00761673
-8.79753e-13
0.00786741
-9.64307e-13
0.0168001
7.73559e-10
1.71916e-16
0.0168001
4.20946e-09
1.91357e-16
0.0168001
1.56364e-08
-3.17095e-17
0.0168
3.99295e-08
-6.81565e-17
0.0168
1.10593e-07
-1.83792e-16
0.0168
2.51438e-07
-3.68239e-16
0.0167998
6.76042e-07
-1.03086e-15
0.0167994
1.42328e-06
-1.80074e-15
0.0167986
4.45891e-06
-6.63498e-15
0.0167967
7.42697e-06
-8.33415e-15
0.0167921
3.33468e-05
-4.6214e-14
0.0167816
6.38273e-05
-6.89661e-14
0.0167468
0.000292227
-3.03174e-13
0.0166513
0.000792546
-7.29145e-13
0.0162016
0.00437493
-2.11208e-12
0.0148161
0.00669759
3.78826e-13
0.0135149
0.0062415
-1.68009e-13
0.0122364
0.00635784
-5.02761e-13
0.0109168
0.00669344
-5.10789e-13
0.00946908
0.00725451
-5.57741e-13
0.00788392
0.00785485
-6.15447e-13
0.00614813
0.0084639
-7.55445e-13
0.00425528
0.0090845
-7.68265e-13
0.00219396
0.00967913
-8.19193e-13
0.0100591
-9.00549e-13
0.0168001
9.256e-10
1.7315e-16
0.0168001
5.0041e-09
1.8934e-16
0.0168001
1.86279e-08
-3.27031e-17
0.0168
4.76074e-08
-7.07273e-17
0.0168
1.31949e-07
-1.91796e-16
0.0168
3.01496e-07
-3.91151e-16
0.0167999
7.96789e-07
-1.05937e-15
0.0167995
1.76371e-06
-2.11765e-15
0.0167991
4.86125e-06
-6.19528e-15
0.0167966
1.00211e-05
-1.05484e-14
0.0167959
3.38616e-05
-4.14943e-14
0.0167911
6.89449e-05
-6.9725e-14
0.0167857
0.000297179
-2.88859e-13
0.0167801
0.000798326
-7.15335e-13
0.0169315
0.00422332
-2.20814e-12
0.0155172
0.00811145
3.57101e-14
0.0140734
0.00768483
-2.36122e-13
0.0127404
0.00768996
-4.84205e-13
0.0114076
0.00802601
-5.02673e-13
0.00998002
0.00868018
-5.69021e-13
0.00838379
0.00945055
-6.02877e-13
0.00662158
0.010224
-7.16849e-13
0.00465175
0.0110548
-7.16661e-13
0.00242868
0.0119033
-7.50381e-13
0.0124858
-8.20416e-13
0.0168001
9.67032e-10
1.7082e-16
0.0168001
5.27071e-09
1.96524e-16
0.0168001
1.95982e-08
-2.83714e-17
0.0168001
5.02779e-08
-6.14167e-17
0.0168
1.38252e-07
-1.63877e-16
0.0168
3.16256e-07
-3.33382e-16
0.0168
8.24011e-07
-8.84015e-16
0.0167999
1.83285e-06
-1.75868e-15
0.0167999
4.84026e-06
-4.94379e-15
0.0167994
1.05855e-05
-9.03544e-15
0.0168024
3.07109e-05
-3.31843e-14
0.0168027
6.8988e-05
-4.64495e-14
0.0168509
0.000248517
-2.29221e-13
0.0169838
0.000665523
-5.31701e-13
0.0180723
0.00313452
-1.381e-12
0.0166902
0.00949306
-9.4734e-13
0.0149048
0.00946983
-4.8302e-13
0.0134912
0.0091028
-4.82992e-13
0.0121341
0.00938258
-5.09053e-13
0.0106873
0.0101253
-5.80506e-13
0.00908003
0.0110566
-5.93324e-13
0.0072648
0.0120375
-6.68534e-13
0.00521655
0.0131035
-6.67242e-13
0.00283387
0.0142871
-6.78661e-13
0.0153181
-7.37427e-13
0.0168001
1.04331e-09
1.70049e-16
0.0168001
5.73491e-09
1.98574e-16
0.0168001
2.1374e-08
-2.78072e-17
0.0168001
5.50624e-08
-6.01944e-17
0.0168
1.51453e-07
-1.61669e-16
0.0168
3.4779e-07
-3.28766e-16
0.0167999
9.03724e-07
-8.78444e-16
0.0167997
2.03344e-06
-1.75777e-15
0.0167993
5.24648e-06
-4.85795e-15
0.016798
1.18993e-05
-9.48957e-15
0.0167978
3.08043e-05
-2.85747e-14
0.0167899
7.70935e-05
-5.83059e-14
0.0168086
0.000229403
-1.88668e-13
0.0168294
0.000644844
-4.72772e-13
0.0172007
0.00276275
-1.3581e-12
0.0166593
0.0100336
-1.87315e-12
0.0151769
0.0109519
-7.76254e-13
0.014037
0.010242
-4.45039e-13
0.0128036
0.0106155
-4.82606e-13
0.0114432
0.0114841
-5.77021e-13
0.00989901
0.0125998
-6.02887e-13
0.00811645
0.0138183
-6.51315e-13
0.00602274
0.0151977
-6.34e-13
0.00343471
0.0168766
-6.22326e-13
0.0187515
-6.6357e-13
0.0168001
1.35902e-09
1.70913e-16
0.0168001
6.2853e-09
1.95687e-16
0.0168001
2.5216e-08
-3.13741e-17
0.0168
6.0399e-08
-6.77211e-17
0.0168
1.76828e-07
-1.87631e-16
0.0168
3.86468e-07
-3.84379e-16
0.0167999
1.03253e-06
-1.05149e-15
0.0167995
2.34257e-06
-2.19977e-15
0.0167993
5.42509e-06
-5.50663e-15
0.0167977
1.36365e-05
-1.3985e-14
0.0167967
3.16029e-05
-2.37807e-14
0.0168016
7.24519e-05
-8.77672e-14
0.0167948
0.000235717
-1.54948e-13
0.0168035
0.000636441
-4.93861e-13
0.016996
0.00256957
-1.28355e-12
0.0163092
0.0107193
-2.31452e-12
0.015721
0.0115397
-4.51804e-13
0.0145293
0.0114331
-3.62911e-13
0.0133182
0.0118267
-4.68016e-13
0.012163
0.0126374
-5.23392e-13
0.0107727
0.0139892
-5.85055e-13
0.00915396
0.0154341
-6.07302e-13
0.00720646
0.0171454
-5.95952e-13
0.00451807
0.0195663
-6.04503e-13
0.0232687
-6.41653e-13
0.0168001
1.70173e-16
1.84899e-09
0.0168001
2.02154e-16
1.81466e-09
0.0168001
-2.59946e-17
2.5049e-08
0.0168001
-5.62311e-17
2.28261e-08
0.0168001
-1.52492e-16
1.71402e-07
0.0168003
-3.12693e-16
1.45749e-07
0.0168003
-8.31915e-16
1.04904e-06
0.0168019
-1.72217e-15
7.2825e-07
0.0168002
-4.53924e-15
7.10495e-06
0.0168112
-9.18884e-15
2.87671e-06
0.0167893
-2.65638e-14
5.34746e-05
0.0168515
-5.88699e-14
1.04225e-05
0.0167077
-1.44445e-13
0.000379059
0.0169906
-5.34398e-13
0.000353558
0.0169257
-1.15971e-12
0.00263399
0.0165404
-2.73934e-12
0.0111033
0.0156942
-3.53769e-13
0.0123854
0.0148305
-3.13845e-13
0.0122962
0.0139193
-4.69795e-13
0.0127374
0.0129201
-5.06681e-13
0.0136357
0.011849
-5.47065e-13
0.0150593
0.0105725
-5.61279e-13
0.0167089
0.00880949
-5.49783e-13
0.0189074
0.00622944
-5.43001e-13
0.0221473
-6.81444e-13
0.0294978
0.0168001
1.78056e-10
-2.64867e-18
0.0168001
9.68102e-10
-1.15688e-17
0.0168001
3.60287e-09
-3.61708e-17
0.0168
9.22638e-09
-7.44415e-17
0.0168
2.55542e-08
-1.85919e-16
0.0168
5.82108e-08
-3.50979e-16
0.0167998
1.55818e-07
-8.67544e-16
0.0167995
3.36518e-07
-1.58928e-15
0.0167985
9.74281e-07
-4.55464e-15
0.0167966
2.01086e-06
-7.86185e-15
0.0167897
6.61958e-06
-2.67827e-14
0.0167753
1.49608e-05
-5.20625e-14
0.0167099
6.48576e-05
-1.8955e-13
0.0165278
0.000182474
-4.82259e-13
0.0154516
0.00107679
-1.29198e-12
0.0141623
0.00128878
4.15095e-13
0.0129193
0.00124238
-3.89062e-14
0.0116273
0.001291
-2.48101e-13
0.0102679
0.00135892
-1.99545e-13
0.0088213
0.00144456
-2.04568e-13
0.00727013
0.00155003
-2.39636e-13
0.00560769
0.00166002
-4.62117e-13
0.00384786
0.00176035
-5.00121e-13
0.00198354
0.00186525
-5.62063e-13
0.00198102
-6.7671e-13
0.0168001
3.52972e-10
-2.72406e-18
0.0168001
1.91922e-09
-1.18119e-17
0.0168001
7.14516e-09
-3.69281e-17
0.0168
1.82775e-08
-7.57993e-17
0.0168
5.07704e-08
-1.89232e-16
0.0168
1.15516e-07
-3.56905e-16
0.0167998
3.11532e-07
-8.82706e-16
0.0167995
6.68496e-07
-1.61836e-15
0.0167984
1.97258e-06
-4.63566e-15
0.0167965
4.02011e-06
-8.0151e-15
0.0167894
1.35081e-05
-2.73073e-14
0.0167746
3.02577e-05
-5.29999e-14
0.016707
0.000131965
-1.92975e-13
0.0165202
0.000369644
-4.89817e-13
0.0154555
0.00214208
-1.31942e-12
0.0141363
0.00260746
4.20891e-13
0.0129077
0.00247036
-3.46741e-14
0.0116346
0.00256309
-2.34041e-13
0.0102847
0.00270837
-1.71998e-13
0.00882566
0.00290156
-1.66744e-13
0.00725534
0.00311919
-2.08804e-13
0.00557667
0.00333629
-4.41572e-13
0.00379617
0.00354136
-4.85069e-13
0.00192252
0.00373984
-5.49802e-13
0.00390081
-6.66898e-13
0.0168001
5.13163e-10
-2.81215e-18
0.0168001
2.76817e-09
-1.21532e-17
0.0168001
1.03086e-08
-3.80089e-17
0.0168
2.62221e-08
-7.78991e-17
0.0168
7.31622e-08
-1.94563e-16
0.0168
1.65905e-07
-3.66508e-16
0.0167998
4.50124e-07
-9.07697e-16
0.0167995
9.61784e-07
-1.66654e-15
0.0167986
2.84991e-06
-4.77905e-15
0.016797
5.80188e-06
-8.28159e-15
0.0167903
1.98762e-05
-2.834e-14
0.0167761
4.49625e-05
-5.48189e-14
0.0167121
0.000195433
-2.00494e-13
0.0165357
0.000546438
-5.0788e-13
0.0155596
0.00311867
-1.39517e-12
0.0142162
0.00395031
4.28181e-13
0.0129844
0.00370152
-3.06305e-14
0.011722
0.0038246
-2.0747e-13
0.0103833
0.0040466
-1.37953e-13
0.00892433
0.00435846
-1.40719e-13
0.007348
0.0046945
-1.76807e-13
0.00565135
0.0050305
-4.04106e-13
0.00384459
0.00534866
-4.50514e-13
0.00194301
0.00564239
-5.18794e-13
0.00584132
-6.34597e-13
0.0168001
5.70321e-10
-2.85789e-18
0.0168001
3.17416e-09
-1.25666e-17
0.0168001
1.17633e-08
-3.91219e-17
0.0168001
3.01007e-08
-8.02716e-17
0.0168
8.3217e-08
-2.00767e-16
0.0168
1.86847e-07
-3.77723e-16
0.0167999
5.20701e-07
-9.39173e-16
0.0167999
9.94211e-07
-1.72735e-15
0.016799
3.71728e-06
-4.97244e-15
0.0167995
5.44643e-06
-8.63027e-15
0.0167902
2.89056e-05
-2.97493e-14
0.0167826
5.29743e-05
-5.67679e-14
0.0167196
0.000257941
-2.11288e-13
0.0165696
0.00069677
-5.32003e-13
0.0157634
0.00392518
-1.51129e-12
0.0144008
0.00531247
4.20418e-13
0.0131609
0.0049408
-2.37142e-14
0.0119044
0.00508018
-1.51442e-13
0.0105763
0.00537405
-1.20632e-13
0.00912393
0.00580867
-1.2419e-13
0.00754659
0.00627081
-1.53274e-13
0.00584367
0.00673101
-3.47777e-13
0.00400175
0.00719121
-3.87455e-13
0.00202847
0.00761673
-4.51399e-13
0.00786741
-5.62061e-13
0.0168001
7.73559e-10
-2.7393e-18
0.0168001
4.20946e-09
-1.1983e-17
0.0168001
1.56364e-08
-3.73177e-17
0.0168
3.99295e-08
-7.62042e-17
0.0168
1.10593e-07
-1.90248e-16
0.0168
2.51438e-07
-3.53475e-16
0.0167998
6.76042e-07
-8.97164e-16
0.0167994
1.42328e-06
-1.49427e-15
0.0167986
4.45891e-06
-5.20223e-15
0.0167967
7.42697e-06
-6.40524e-15
0.0167921
3.33468e-05
-3.50952e-14
0.0167816
6.38273e-05
-5.2292e-14
0.0167468
0.000292227
-2.26902e-13
0.0166513
0.000792546
-5.50033e-13
0.0162016
0.00437493
-1.62865e-12
0.0148161
0.00669759
3.51437e-13
0.0135149
0.0062415
6.40046e-15
0.0122364
0.00635784
-1.18431e-13
0.0109168