/*--------------------------------*- C++ -*----------------------------------*\
| =========                 |                                                 |
| \\      /  F ield         | OpenFOAM: The Open Source CFD Toolbox           |
|  \\    /   O peration     | Version:  4.1                                   |
|   \\  /    A nd           | Web:      www.OpenFOAM.org                      |
|    \\/     M anipulation  |                                                 |
\*---------------------------------------------------------------------------*/
FoamFile
{
    version     2.0;
    format      ascii;
    class       volScalarField;
    location    "0.48";
    object      p;
}
// * * * * * * * * * * * * * * * * * * * * * * * * * * * * * * * * * * * * * //

dimensions      [1 -1 -2 0 0 0 0];

internalField   nonuniform List<scalar> 
52500
(
0.999992
0.999993
0.999996
1
1.00002
1.00006
1.00021
1.00044
1.0015
1.00275
1.01105
1.0186
1.0835
1.14685
1.63473
2.56354
6.26459
14.0941
12.5277
11.6864
11.7056
11.9194
11.939
12.0586
12.1303
0.999992
0.999993
0.999996
1
1.00002
1.00006
1.00021
1.00043
1.00147
1.00271
1.01082
1.01819
1.08185
1.14335
1.62323
2.53454
6.17546
14.0205
12.539
11.664
11.6882
11.9135
11.938
12.0558
12.1232
0.999992
0.999993
0.999996
1
1.00002
1.00006
1.0002
1.00042
1.00142
1.00264
1.01035
1.01745
1.07834
1.13641
1.59853
2.46977
5.98374
13.8356
12.5494
11.6021
11.6334
11.8813
11.9144
12.0239
12.0833
0.999992
0.999993
0.999995
1
1.00002
1.00005
1.00019
1.00041
1.00134
1.00257
1.00966
1.01648
1.07327
1.12673
1.56011
2.37603
5.69348
13.5172
12.5581
11.5092
11.5501
11.8197
11.8667
11.9596
12.0055
0.999992
0.999992
0.999995
0.999999
1.00002
1.00005
1.00018
1.00038
1.00125
1.00247
1.00883
1.01537
1.06705
1.11499
1.51179
2.24867
5.32721
13.0339
12.5352
11.4436
11.4825
11.7153
11.7975
11.864
11.893
0.999992
0.999992
0.999995
0.999998
1.00002
1.00004
1.00016
1.00035
1.00114
1.00231
1.00795
1.01424
1.05991
1.10207
1.45718
2.08499
4.89377
12.2805
12.4632
11.4611
11.3932
11.5838
11.6941
11.7235
11.7359
0.999992
0.999992
0.999994
0.999996
1.00001
1.00004
1.00014
1.00031
1.00102
1.00209
1.007
1.01321
1.05132
1.09058
1.39129
1.92153
4.35935
11.1302
12.5947
11.4484
11.2716
11.4142
11.5506
11.5334
11.516
0.999992
0.999992
0.999993
0.999995
1.00001
1.00002
1.00012
1.00026
1.00087
1.00182
1.00599
1.01188
1.0427
1.07836
1.32176
1.7552
3.73506
9.55356
12.8184
11.4834
11.1419
11.213
11.3514
11.267
11.1946
0.999992
0.999992
0.999993
0.999993
1
1.00001
1.00009
1.00019
1.00072
1.00149
1.00503
1.01019
1.03534
1.06673
1.25773
1.59313
3.08569
7.49878
12.8123
11.5371
11.0233
10.9892
11.0492
10.8598
10.6586
0.999991
0.999992
0.999992
0.999993
1
1
1.00006
1.0001
1.00051
1.00082
1.00401
1.00651
1.03024
1.04988
1.21897
1.45898
2.6428
5.77412
12.5826
11.5095
10.9249
10.6886
10.6103
10.2463
9.73199
1
1
1
1.00001
1.00003
1.00007
1.00022
1.00045
1.00151
1.00276
1.01106
1.01862
1.08353
1.14692
1.63484
2.5639
6.2655
14.0946
12.5274
11.6866
11.7058
11.9192
11.9387
12.0584
12.1302
1
1
1
1.00001
1.00003
1.00007
1.00022
1.00044
1.00148
1.00272
1.01083
1.01821
1.08188
1.14342
1.62335
2.53491
6.17636
14.021
12.5387
11.6642
11.6884
11.9133
11.9377
12.0556
12.1231
1
1
1
1.00001
1.00003
1.00007
1.00021
1.00043
1.00143
1.00265
1.01036
1.01748
1.07837
1.13648
1.59865
2.47014
5.98458
13.8361
12.5492
11.6023
11.6335
11.8811
11.9142
12.0238
12.0832
1
1
1
1.00001
1.00003
1.00006
1.0002
1.00041
1.00135
1.00258
1.00967
1.0165
1.0733
1.12679
1.56023
2.37637
5.6943
13.5179
12.5579
11.5094
11.5502
11.8195
11.8665
11.9596
12.0055
1
1
1
1.00001
1.00003
1.00006
1.00019
1.00039
1.00126
1.00248
1.00885
1.01539
1.06708
1.11504
1.5119
2.24903
5.32799
13.0348
12.5353
11.4435
11.4824
11.7151
11.7973
11.864
11.893
1
1
1
1.00001
1.00002
1.00005
1.00017
1.00036
1.00115
1.00232
1.00796
1.01426
1.05993
1.10213
1.45726
2.08535
4.89452
12.2819
12.4629
11.4611
11.3931
11.5836
11.6939
11.7235
11.7359
1
1
1
1.00001
1.00002
1.00004
1.00015
1.00032
1.00103
1.0021
1.00701
1.01322
1.05134
1.09063
1.39138
1.92183
4.36019
11.1321
12.594
11.4484
11.2715
11.4141
11.5504
11.5333
11.5161
1
1
1
1
1.00002
1.00003
1.00013
1.00026
1.00088
1.00183
1.006
1.0119
1.04272
1.0784
1.32184
1.75548
3.73591
9.55598
12.8178
11.4831
11.1417
11.2129
11.3512
11.2668
11.1946
1
1
1
1
1.00001
1.00002
1.0001
1.0002
1.00073
1.0015
1.00505
1.0102
1.03535
1.06676
1.25779
1.59336
3.08638
7.50141
12.8119
11.5369
11.023
10.9891
11.0491
10.8599
10.6587
1
1
1
1
1.00001
1.00001
1.00006
1.0001
1.00051
1.00083
1.00402
1.00652
1.03025
1.04992
1.219
1.45916
2.64306
5.77521
12.5826
11.5093
10.9248
10.6885
10.6102
10.2463
9.73206
1
1
1
1.00001
1.00003
1.00007
1.00022
1.00045
1.00151
1.00276
1.01106
1.01862
1.08353
1.14692
1.63483
2.56387
6.26542
14.0945
12.5275
11.6866
11.7058
11.9193
11.9388
12.0585
12.1303
1
1
1
1.00001
1.00003
1.00007
1.00022
1.00044
1.00148
1.00272
1.01083
1.01821
1.08187
1.14342
1.62334
2.53488
6.17627
14.021
12.5387
11.6642
11.6884
11.9134
11.9378
12.0557
12.1232
1
1
1
1.00001
1.00003
1.00007
1.00021
1.00043
1.00143
1.00265
1.01036
1.01747
1.07837
1.13647
1.59864
2.47011
5.98452
13.8361
12.5492
11.6023
11.6335
11.8812
11.9143
12.0238
12.0833
1
1
1
1.00001
1.00003
1.00006
1.0002
1.00041
1.00135
1.00258
1.00967
1.0165
1.07329
1.12679
1.56022
2.37634
5.69425
13.5178
12.5579
11.5094
11.5502
11.8196
11.8666
11.9596
12.0055
1
1
1
1.00001
1.00003
1.00006
1.00019
1.00039
1.00126
1.00248
1.00885
1.01539
1.06708
1.11504
1.51189
2.249
5.32794
13.0347
12.5352
11.4436
11.4825
11.7152
11.7973
11.8639
11.893
1
1
1
1.00001
1.00002
1.00005
1.00017
1.00036
1.00115
1.00232
1.00796
1.01426
1.05993
1.10212
1.45726
2.08532
4.89447
12.2818
12.4629
11.4611
11.3932
11.5837
11.694
11.7235
11.7358
1
1
1
1.00001
1.00002
1.00004
1.00015
1.00032
1.00103
1.0021
1.00701
1.01322
1.05134
1.09063
1.39137
1.92181
4.36012
11.132
12.594
11.4484
11.2716
11.4142
11.5505
11.5334
11.516
1
1
1
1
1.00002
1.00003
1.00013
1.00026
1.00088
1.00183
1.006
1.0119
1.04271
1.0784
1.32183
1.75546
3.73583
9.55575
12.8179
11.4832
11.1418
11.2129
11.3513
11.2669
11.1946
1
1
1
1
1.00001
1.00002
1.0001
1.0002
1.00073
1.0015
1.00505
1.0102
1.03535
1.06676
1.25778
1.59335
3.0863
7.50111
12.8119
11.5369
11.0231
10.9891
11.0492
10.8599
10.6587
1
1
1
1
1.00001
1.00001
1.00006
1.0001
1.00051
1.00083
1.00402
1.00652
1.03025
1.04992
1.21899
1.45915
2.64302
5.77507
12.5825
11.5093
10.9248
10.6885
10.6103
10.2464
9.73206
1
1
1
1.00001
1.00003
1.00007
1.00022
1.00045
1.00151
1.00276
1.01106
1.01862
1.08353
1.14692
1.63485
2.56392
6.2656
14.0947
12.5274
11.6866
11.7058
11.9192
11.9387
12.0585
12.1302
1
1
1
1.00001
1.00003
1.00007
1.00022
1.00044
1.00148
1.00272
1.01083
1.01821
1.08188
1.14342
1.62336
2.53493
6.17644
14.0211
12.5387
11.6642
11.6884
11.9133
11.9378
12.0556
12.1232
1
1
1
1.00001
1.00003
1.00007
1.00021
1.00043
1.00143
1.00265
1.01036
1.01748
1.07837
1.13648
1.59866
2.47017
5.98468
13.8362
12.5492
11.6023
11.6335
11.8811
11.9142
12.0238
12.0833
1
1
1
1.00001
1.00003
1.00006
1.0002
1.00041
1.00135
1.00258
1.00967
1.0165
1.0733
1.12679
1.56024
2.37639
5.69441
13.518
12.5579
11.5094
11.5502
11.8195
11.8665
11.9596
12.0055
1
1
1
1.00001
1.00003
1.00006
1.00019
1.00039
1.00126
1.00248
1.00885
1.01539
1.06708
1.11504
1.51191
2.24905
5.32809
13.035
12.5352
11.4435
11.4824
11.7152
11.7973
11.8639
11.893
1
1
1
1.00001
1.00002
1.00005
1.00017
1.00036
1.00115
1.00232
1.00796
1.01426
1.05993
1.10213
1.45727
2.08537
4.89461
12.2821
12.4628
11.4611
11.3931
11.5836
11.6939
11.7235
11.7359
1
1
1
1.00001
1.00002
1.00004
1.00015
1.00032
1.00103
1.0021
1.00701
1.01322
1.05134
1.09063
1.39139
1.92185
4.36028
11.1323
12.5939
11.4483
11.2715
11.4141
11.5504
11.5333
11.516
1
1
1
1
1.00002
1.00003
1.00013
1.00026
1.00088
1.00183
1.006
1.0119
1.04272
1.0784
1.32185
1.75549
3.73596
9.55616
12.8178
11.4831
11.1417
11.2129
11.3513
11.2669
11.1946
1
1
1
1
1.00001
1.00002
1.0001
1.0002
1.00073
1.0015
1.00505
1.0102
1.03535
1.06676
1.25779
1.59337
3.0864
7.50152
12.8118
11.5368
11.0231
10.9891
11.0491
10.8598
10.6586
1
1
1
1
1.00001
1.00001
1.00006
1.0001
1.00051
1.00083
1.00402
1.00652
1.03025
1.04992
1.219
1.45916
2.64307
5.77522
12.5825
11.5093
10.9248
10.6885
10.6103
10.2463
9.73202
1
1
1
1.00001
1.00003
1.00007
1.00022
1.00045
1.00151
1.00276
1.01106
1.01862
1.08353
1.14692
1.63483
2.56386
6.26538
14.0946
12.5275
11.6866
11.7058
11.9192
11.9388
12.0586
12.1304
1
1
1
1.00001
1.00003
1.00007
1.00022
1.00044
1.00148
1.00272
1.01083
1.01821
1.08187
1.14342
1.62333
2.53487
6.17624
14.021
12.5388
11.6642
11.6883
11.9133
11.9378
12.0557
12.1233
1
1
1
1.00001
1.00003
1.00007
1.00021
1.00043
1.00143
1.00265
1.01036
1.01747
1.07837
1.13647
1.59864
2.4701
5.98449
13.8361
12.5492
11.6023
11.6335
11.8812
11.9143
12.0239
12.0834
1
1
1
1.00001
1.00003
1.00006
1.0002
1.00041
1.00135
1.00258
1.00967
1.0165
1.07329
1.12679
1.56021
2.37634
5.69424
13.5179
12.5579
11.5094
11.5502
11.8196
11.8666
11.9596
12.0056
1
1
1
1.00001
1.00003
1.00006
1.00019
1.00039
1.00126
1.00248
1.00885
1.01539
1.06708
1.11504
1.51189
2.24899
5.32793
13.0348
12.5352
11.4435
11.4824
11.7152
11.7974
11.864
11.8931
1
1
1
1.00001
1.00002
1.00005
1.00017
1.00036
1.00115
1.00232
1.00796
1.01426
1.05993
1.10212
1.45725
2.08532
4.89447
12.2818
12.4629
11.4611
11.3931
11.5837
11.694
11.7236
11.736
1
1
1
1.00001
1.00002
1.00004
1.00015
1.00032
1.00103
1.0021
1.00701
1.01322
1.05133
1.09063
1.39137
1.92181
4.36012
11.132
12.594
11.4484
11.2716
11.4142
11.5505
11.5333
11.5161
1
1
1
1
1.00002
1.00003
1.00013
1.00026
1.00088
1.00183
1.006
1.0119
1.04271
1.0784
1.32183
1.75546
3.73583
9.55577
12.8179
11.4832
11.1418
11.2129
11.3513
11.2669
11.1946
1
1
1
1
1.00001
1.00002
1.0001
1.0002
1.00073
1.0015
1.00505
1.0102
1.03535
1.06676
1.25779
1.59335
3.08631
7.50116
12.8119
11.5369
11.0231
10.9892
11.0492
10.8599
10.6587
1
1
1
1
1.00001
1.00001
1.00006
1.0001
1.00051
1.00083
1.00402
1.00652
1.03025
1.04992
1.21899
1.45915
2.64302
5.77511
12.5825
11.5093
10.9248
10.6885
10.6103
10.2464
9.73205
1
1
1
1.00001
1.00003
1.00007
1.00022
1.00045
1.00151
1.00276
1.01106
1.01862
1.08353
1.14692
1.63484
2.56389
6.26549
14.0946
12.5274
11.6866
11.7058
11.9192
11.9388
12.0585
12.1303
1
1
1
1.00001
1.00003
1.00007
1.00022
1.00044
1.00148
1.00272
1.01083
1.01821
1.08188
1.14342
1.62335
2.5349
6.17634
14.021
12.5387
11.6642
11.6884
11.9133
11.9378
12.0557
12.1232
1
1
1
1.00001
1.00003
1.00007
1.00021
1.00043
1.00143
1.00265
1.01036
1.01747
1.07837
1.13647
1.59865
2.47014
5.98458
13.8361
12.5492
11.6023
11.6335
11.8811
11.9143
12.0238
12.0833
1
1
1
1.00001
1.00003
1.00006
1.0002
1.00041
1.00135
1.00258
1.00967
1.0165
1.07329
1.12679
1.56023
2.37637
5.69432
13.5179
12.5579
11.5094
11.5502
11.8195
11.8666
11.9596
12.0056
1
1
1
1.00001
1.00003
1.00006
1.00019
1.00039
1.00126
1.00248
1.00885
1.01539
1.06708
1.11504
1.5119
2.24902
5.328
13.0348
12.5352
11.4435
11.4824
11.7152
11.7973
11.864
11.893
1
1
1
1.00001
1.00002
1.00005
1.00017
1.00036
1.00115
1.00232
1.00796
1.01426
1.05993
1.10212
1.45726
2.08534
4.89454
12.2819
12.4629
11.4611
11.3931
11.5837
11.694
11.7235
11.7359
1
1
1
1.00001
1.00002
1.00004
1.00015
1.00032
1.00103
1.0021
1.00701
1.01322
1.05134
1.09063
1.39138
1.92183
4.36019
11.1321
12.5939
11.4483
11.2715
11.4142
11.5504
11.5333
11.5161
1
1
1
1
1.00002
1.00003
1.00013
1.00026
1.00088
1.00183
1.006
1.0119
1.04272
1.0784
1.32184
1.75547
3.73589
9.55594
12.8178
11.4831
11.1418
11.2129
11.3513
11.2669
11.1946
1
1
1
1
1.00001
1.00002
1.0001
1.0002
1.00073
1.0015
1.00505
1.0102
1.03535
1.06676
1.25779
1.59336
3.08636
7.50132
12.8119
11.5369
11.0231
10.9892
11.0492
10.8599
10.6587
1
1
1
1
1.00001
1.00001
1.00006
1.0001
1.00051
1.00083
1.00402
1.00652
1.03025
1.04992
1.219
1.45916
2.64304
5.77516
12.5825
11.5093
10.9248
10.6885
10.6103
10.2464
9.73205
1
1
1
1.00001
1.00003
1.00007
1.00022
1.00045
1.00151
1.00276
1.01106
1.01862
1.08353
1.14692
1.63485
2.56392
6.2656
14.0947
12.5274
11.6866
11.7058
11.9192
11.9387
12.0585
12.1302
1
1
1
1.00001
1.00003
1.00007
1.00022
1.00044
1.00148
1.00272
1.01083
1.01821
1.08188
1.14342
1.62336
2.53493
6.17644
14.0211
12.5387
11.6642
11.6884
11.9133
11.9378
12.0556
12.1232
1
1
1
1.00001
1.00003
1.00007
1.00021
1.00043
1.00143
1.00265
1.01036
1.01748
1.07837
1.13648
1.59866
2.47017
5.98468
13.8362
12.5492
11.6023
11.6335
11.8811
11.9142
12.0238
12.0833
1
1
1
1.00001
1.00003
1.00006
1.0002
1.00041
1.00135
1.00258
1.00967
1.0165
1.0733
1.12679
1.56024
2.3764
5.69441
13.518
12.5579
11.5094
11.5502
11.8195
11.8665
11.9596
12.0055
1
1
1
1.00001
1.00003
1.00006
1.00019
1.00039
1.00126
1.00248
1.00885
1.01539
1.06708
1.11504
1.51191
2.24905
5.32809
13.035
12.5352
11.4435
11.4824
11.7152
11.7973
11.8639
11.893
1
1
1
1.00001
1.00002
1.00005
1.00017
1.00036
1.00115
1.00232
1.00796
1.01426
1.05993
1.10213
1.45727
2.08537
4.89461
12.2821
12.4628
11.4611
11.3931
11.5836
11.6939
11.7235
11.7359
1
1
1
1.00001
1.00002
1.00004
1.00015
1.00032
1.00103
1.0021
1.00701
1.01322
1.05134
1.09063
1.39139
1.92185
4.36028
11.1323
12.5939
11.4483
11.2715
11.4141
11.5504
11.5333
11.516
1
1
1
1
1.00002
1.00003
1.00013
1.00026
1.00088
1.00183
1.006
1.0119
1.04272
1.0784
1.32185
1.75549
3.73597
9.55616
12.8178
11.4831
11.1417
11.2129
11.3513
11.2669
11.1946
1
1
1
1
1.00001
1.00002
1.0001
1.0002
1.00073
1.0015
1.00505
1.0102
1.03535
1.06676
1.25779
1.59337
3.08641
7.50152
12.8118
11.5368
11.0231
10.9891
11.0491
10.8598
10.6586
1
1
1
1
1.00001
1.00001
1.00006
1.0001
1.00051
1.00083
1.00402
1.00652
1.03025
1.04992
1.219
1.45916
2.64307
5.77522
12.5825
11.5093
10.9248
10.6885
10.6103
10.2463
9.73202
1
1
1
1.00001
1.00003
1.00007
1.00022
1.00045
1.00151
1.00276
1.01106
1.01862
1.08353
1.14692
1.63483
2.56387
6.26542
14.0945
12.5275
11.6866
11.7058
11.9193
11.9388
12.0585
12.1303
1
1
1
1.00001
1.00003
1.00007
1.00022
1.00044
1.00148
1.00272
1.01083
1.01821
1.08187
1.14342
1.62334
2.53488
6.17627
14.021
12.5387
11.6642
11.6884
11.9134
11.9378
12.0557
12.1232
1
1
1
1.00001
1.00003
1.00007
1.00021
1.00043
1.00143
1.00265
1.01036
1.01747
1.07837
1.13647
1.59864
2.47011
5.98452
13.8361
12.5492
11.6023
11.6335
11.8812
11.9143
12.0238
12.0833
1
1
1
1.00001
1.00003
1.00006
1.0002
1.00041
1.00135
1.00258
1.00967
1.0165
1.07329
1.12679
1.56022
2.37635
5.69425
13.5178
12.5579
11.5094
11.5502
11.8196
11.8666
11.9596
12.0055
1
1
1
1.00001
1.00003
1.00006
1.00019
1.00039
1.00126
1.00248
1.00885
1.01539
1.06708
1.11504
1.51189
2.249
5.32794
13.0347
12.5352
11.4436
11.4825
11.7152
11.7973
11.8639
11.893
1
1
1
1.00001
1.00002
1.00005
1.00017
1.00036
1.00115
1.00232
1.00796
1.01426
1.05993
1.10212
1.45726
2.08532
4.89447
12.2818
12.4629
11.4611
11.3932
11.5837
11.694
11.7235
11.7358
1
1
1
1.00001
1.00002
1.00004
1.00015
1.00032
1.00103
1.0021
1.00701
1.01322
1.05134
1.09063
1.39137
1.92181
4.36012
11.132
12.594
11.4484
11.2716
11.4142
11.5505
11.5334
11.516
1
1
1
1
1.00002
1.00003
1.00013
1.00026
1.00088
1.00183
1.006
1.0119
1.04271
1.0784
1.32183
1.75546
3.73583
9.55575
12.8179
11.4832
11.1418
11.2129
11.3513
11.2669
11.1946
1
1
1
1
1.00001
1.00002
1.0001
1.0002
1.00073
1.0015
1.00505
1.0102
1.03535
1.06676
1.25778
1.59335
3.0863
7.50111
12.8119
11.5369
11.0231
10.9891
11.0492
10.8599
10.6587
1
1
1
1
1.00001
1.00001
1.00006
1.0001
1.00051
1.00083
1.00402
1.00652
1.03025
1.04992
1.21899
1.45915
2.64302
5.77507
12.5825
11.5093
10.9248
10.6885
10.6103
10.2464
9.73206
1
1
1
1.00001
1.00003
1.00007
1.00022
1.00045
1.00151
1.00276
1.01106
1.01862
1.08353
1.14692
1.63484
2.5639
6.2655
14.0946
12.5274
11.6866
11.7058
11.9192
11.9387
12.0584
12.1302
1
1
1
1.00001
1.00003
1.00007
1.00022
1.00044
1.00148
1.00272
1.01083
1.01821
1.08188
1.14342
1.62335
2.53491
6.17635
14.021
12.5387
11.6642
11.6884
11.9133
11.9377
12.0556
12.1231
1
1
1
1.00001
1.00003
1.00007
1.00021
1.00043
1.00143
1.00265
1.01036
1.01748
1.07837
1.13648
1.59865
2.47014
5.98458
13.8361
12.5492
11.6023
11.6335
11.8811
11.9142
12.0238
12.0832
1
1
1
1.00001
1.00003
1.00006
1.0002
1.00041
1.00135
1.00258
1.00967
1.0165
1.0733
1.12679
1.56023
2.37637
5.6943
13.5179
12.5579
11.5094
11.5502
11.8195
11.8665
11.9596
12.0055
1
1
1
1.00001
1.00003
1.00006
1.00019
1.00039
1.00126
1.00248
1.00885
1.01539
1.06708
1.11504
1.5119
2.24903
5.32799
13.0348
12.5353
11.4435
11.4824
11.7151
11.7973
11.864
11.893
1
1
1
1.00001
1.00002
1.00005
1.00017
1.00036
1.00115
1.00232
1.00796
1.01426
1.05993
1.10213
1.45726
2.08535
4.89452
12.2819
12.4629
11.4611
11.3931
11.5836
11.6939
11.7235
11.7359
1
1
1
1.00001
1.00002
1.00004
1.00015
1.00032
1.00103
1.0021
1.00701
1.01322
1.05134
1.09063
1.39138
1.92183
4.36019
11.1321
12.594
11.4484
11.2715
11.4141
11.5504
11.5333
11.5161
1
1
1
1
1.00002
1.00003
1.00013
1.00026
1.00088
1.00183
1.006
1.0119
1.04272
1.0784
1.32184
1.75548
3.73591
9.55597
12.8178
11.4831
11.1417
11.2129
11.3512
11.2668
11.1946
1
1
1
1
1.00001
1.00002
1.0001
1.0002
1.00073
1.0015
1.00505
1.0102
1.03535
1.06676
1.25779
1.59336
3.08637
7.5014
12.8119
11.5369
11.023
10.9892
11.0491
10.8599
10.6587
1
1
1
1
1.00001
1.00001
1.00006
1.0001
1.00051
1.00083
1.00402
1.00652
1.03025
1.04992
1.219
1.45916
2.64306
5.7752
12.5826
11.5093
10.9248
10.6885
10.6102
10.2463
9.73206
0.999992
0.999993
0.999996
1
1.00002
1.00006
1.00021
1.00044
1.0015
1.00275
1.01105
1.0186
1.0835
1.14685
1.63472
2.56354
6.26462
14.0943
12.5278
11.6864
11.7056
11.9195
11.939
12.0586
12.1302
0.999992
0.999993
0.999996
1
1.00002
1.00006
1.00021
1.00043
1.00147
1.00271
1.01082
1.01819
1.08185
1.14335
1.62323
2.53453
6.17549
14.0207
12.539
11.6639
11.6882
11.9136
11.938
12.0557
12.1232
0.999992
0.999993
0.999996
1
1.00002
1.00006
1.0002
1.00042
1.00142
1.00264
1.01035
1.01745
1.07834
1.13641
1.59853
2.46976
5.98377
13.8357
12.5495
11.602
11.6334
11.8814
11.9145
12.0239
12.0833
0.999992
0.999993
0.999995
1
1.00002
1.00005
1.00019
1.00041
1.00134
1.00257
1.00966
1.01648
1.07327
1.12673
1.56011
2.37602
5.69349
13.5173
12.5581
11.5091
11.5501
11.8197
11.8668
11.9597
12.0055
0.999992
0.999992
0.999995
0.999999
1.00002
1.00005
1.00018
1.00038
1.00125
1.00247
1.00883
1.01537
1.06705
1.11499
1.51179
2.24866
5.32721
13.0339
12.5352
11.4436
11.4825
11.7153
11.7975
11.864
11.893
0.999992
0.999992
0.999995
0.999998
1.00002
1.00004
1.00016
1.00035
1.00114
1.00231
1.00795
1.01424
1.05991
1.10207
1.45718
2.08496
4.89382
12.2806
12.4631
11.4611
11.3932
11.5838
11.6941
11.7236
11.7359
0.999992
0.999992
0.999994
0.999996
1.00001
1.00004
1.00014
1.00031
1.00102
1.00209
1.007
1.01321
1.05131
1.09058
1.39128
1.92152
4.35932
11.1302
12.5946
11.4484
11.2717
11.4144
11.5506
11.5333
11.516
0.999992
0.999992
0.999993
0.999995
1.00001
1.00002
1.00012
1.00026
1.00087
1.00182
1.00599
1.01188
1.04269
1.07836
1.32175
1.75519
3.735
9.55348
12.8184
11.4834
11.142
11.2132
11.3514
11.2669
11.1945
0.999992
0.999992
0.999993
0.999993
1
1.00001
1.00009
1.00019
1.00072
1.00149
1.00503
1.01019
1.03533
1.06672
1.25773
1.59312
3.08565
7.49869
12.8123
11.5372
11.0234
10.9894
11.0493
10.8598
10.6585
0.999991
0.999992
0.999992
0.999993
1
1
1.00006
1.0001
1.00051
1.00082
1.00401
1.00651
1.03024
1.04988
1.21897
1.45898
2.64278
5.77409
12.5827
11.5096
10.9251
10.6887
10.6103
10.2462
9.73189
0.999991
0.999992
0.999992
0.999994
0.999996
1.00001
1.00002
1.00013
1.00022
1.00108
1.00174
1.00838
1.01364
1.06477
1.10939
1.50068
2.16544
5.00096
11.7188
11.4303
10.815
10.3588
10.0382
9.29974
7.5661
0.999991
0.999992
0.999992
0.999994
0.999997
1.00001
1.00003
1.00013
1.00028
1.00095
1.00192
1.00671
1.01213
1.05131
1.08804
1.38994
1.89551
4.21103
10.1652
11.2623
10.7586
9.9888
9.41188
8.46495
6.68305
0.999991
0.999992
0.999992
0.999994
0.999997
1.00001
1.00003
1.00011
1.00023
1.00075
1.00156
1.00513
1.01012
1.03688
1.06739
1.27994
1.64545
3.33119
8.10221
11.1848
10.6242
9.64742
8.86432
7.93394
6.46119
0.999991
0.999992
0.999992
0.999993
0.999996
1
1.00002
1.00008
1.00017
1.00057
1.00118
1.00385
1.00776
1.02689
1.05089
1.19571
1.43941
2.51362
5.37878
10.8358
10.3912
9.41792
8.52534
7.60332
6.45116
0.999991
0.999991
0.999992
0.999993
0.999994
1
1.00001
1.00005
1.00012
1.00039
1.00081
1.00269
1.00512
1.01943
1.03341
1.14385
1.28202
2.09217
3.96857
9.61202
9.80413
9.28619
8.35921
7.41474
6.45399
0.999991
0.999991
0.999992
0.999992
0.999994
0.999996
1.00001
1.00002
1.00009
1.00014
1.00064
1.00103
1.00476
1.00772
1.03574
1.06025
1.26578
1.59227
3.07565
7.1253
9.47698
9.15264
8.3328
7.39301
6.4716
0.999991
0.999991
0.999992
0.999992
0.999994
0.999996
1.00001
1.00002
1.00007
1.00015
1.00047
1.00095
1.00317
1.00596
1.02318
1.04083
1.17169
1.34487
2.3065
4.42414
8.94251
8.84498
8.33566
7.42004
6.52064
0.999991
0.999991
0.999992
0.999992
0.999994
0.999996
1
1.00001
1.00005
1.0001
1.00032
1.00064
1.00203
1.00402
1.01428
1.02543
1.10861
1.20168
1.84888
3.16817
7.49336
8.54429
8.26593
7.52659
6.63462
0.999991
0.999991
0.999992
0.999992
0.999993
0.999996
1
1.00001
1.00002
1.00008
1.00013
1.00047
1.00076
1.00313
1.00504
1.02302
1.03816
1.17378
1.34505
2.30833
4.4204
7.97811
8.02923
7.64353
6.82114
0.999991
0.999991
0.999992
0.999992
0.999993
0.999996
1
1.00001
1.00002
1.00006
1.00012
1.00035
1.00068
1.00204
1.00408
1.01348
1.02571
1.09795
1.19891
1.74706
2.94375
6.55674
7.70526
7.56096
7.07775
0.999991
0.999991
0.999992
0.999992
0.999993
0.999996
1
1.00001
1.00002
1.00005
1.00011
1.00019
1.00052
1.00083
1.00294
1.00468
1.01978
1.03279
1.14582
1.28653
2.07966
3.64833
6.97165
7.32429
7.07817
0.999991
0.999991
0.999992
0.999992
0.999993
0.999996
1
1.00001
1.00002
1.00005
1.0001
1.00017
1.00039
1.00068
1.00186
1.00359
1.01084
1.02198
1.07189
1.15895
1.5245
2.38575
4.93596
6.80636
6.91761
0.999991
0.999991
0.999992
0.999992
0.999993
0.999995
1
1.00001
1.00002
1.00005
1.00011
1.00018
1.00033
1.0006
1.00097
1.00265
1.0044
1.01464
1.02552
1.10037
1.19161
1.7442
2.75177
5.50967
6.58932
0.999991
0.999991
0.999992
0.999992
0.999993
0.999995
1
1.00001
1.00002
1.00005
1.0001
1.00017
1.00033
1.00054
1.00089
1.00175
1.00296
1.00809
1.01518
1.04749
1.10101
1.3314
1.79825
3.15846
5.70148
0.999991
0.999991
0.999992
0.999992
0.999993
0.999995
1
1.00001
1.00002
1.00005
1.0001
1.00018
1.00032
1.00056
1.00088
1.00152
1.00257
1.00403
1.01065
1.01828
1.05815
1.11985
1.38637
1.91976
3.44683
0.999991
0.999991
0.999991
0.999992
0.999993
0.999995
0.999999
1.00001
1.00002
1.00005
1.00009
1.00018
1.00031
1.00057
1.00088
1.00152
1.00244
1.00366
1.00669
1.01066
1.02954
1.05123
1.16895
1.36338
2.09056
0.999991
0.999991
0.999992
0.999992
0.999993
0.999995
0.999999
1.00001
1.00002
1.00005
1.0001
1.00017
1.0003
1.00054
1.00087
1.00145
1.0024
1.00373
1.00589
1.00954
1.0144
1.03429
1.05802
1.18378
1.39203
0.999991
0.999991
0.999992
0.999992
0.999993
0.999995
0.999999
1.00001
1.00002
1.00005
1.00009
1.00017
1.0003
1.00052
1.00087
1.00144
1.00239
1.00372
1.0058
1.0091
1.01332
1.02174
1.03474
1.08427
1.1543
0.999991
0.999991
0.999991
0.999992
0.999993
0.999995
0.999999
1.00001
1.00002
1.00005
1.00009
1.00017
1.00029
1.00051
1.00087
1.00141
1.00242
1.00364
1.00593
1.00889
1.0135
1.02014
1.03033
1.04441
1.089
0.999991
0.999991
0.999991
0.999992
0.999993
0.999995
0.999999
1.00001
1.00002
1.00005
1.00009
1.00016
1.0003
1.00051
1.00085
1.00144
1.00233
1.00371
1.0058
1.00887
1.01357
1.01995
1.0295
1.0426
1.06119
0.999991
0.999991
0.999991
0.999992
0.999993
0.999995
0.999999
1.00001
1.00002
1.00005
1.00009
1.00016
1.0003
1.00051
1.00086
1.00145
1.00231
1.00371
1.00581
1.00887
1.01355
1.01993
1.02953
1.04197
1.06046
0.999991
0.999991
0.999991
0.999992
0.999993
0.999995
0.999999
1.00001
1.00002
1.00005
1.00009
1.00016
1.0003
1.00051
1.00086
1.00144
1.00232
1.0037
1.00581
1.00889
1.0135
1.02002
1.02938
1.04216
1.06003
0.999991
0.999991
0.999991
0.999992
0.999993
0.999995
0.999999
1.00001
1.00002
1.00005
1.00009
1.00016
1.0003
1.00051
1.00086
1.00144
1.00232
1.0037
1.0058
1.0089
1.01349
1.02005
1.02933
1.04221
1.05994
0.999991
0.999991
0.999991
0.999992
0.999993
0.999995
0.999999
1.00001
1.00002
1.00005
1.00009
1.00016
1.0003
1.00051
1.00086
1.00144
1.00232
1.0037
1.0058
1.0089
1.01348
1.02006
1.02931
1.04223
1.05991
0.999991
0.999991
0.999991
0.999992
0.999993
0.999995
0.999999
1.00001
1.00002
1.00005
1.00009
1.00016
1.0003
1.00051
1.00086
1.00144
1.00232
1.0037
1.0058
1.0089
1.01348
1.02006
1.02931
1.04224
1.0599
0.999991
0.999991
0.999991
0.999992
0.999993
0.999995
0.999999
1.00001
1.00002
1.00005
1.00009
1.00016
1.0003
1.00051
1.00086
1.00144
1.00232
1.0037
1.0058
1.0089
1.01348
1.02006
1.02931
1.04224
1.0599
0.999991
0.999991
0.999991
0.999992
0.999993
0.999995
0.999999
1.00001
1.00002
1.00005
1.00009
1.00016
1.0003
1.00051
1.00086
1.00144
1.00232
1.0037
1.0058
1.0089
1.01348
1.02006
1.02931
1.04224
1.0599
0.999991
0.999991
0.999991
0.999992
0.999993
0.999995
0.999999
1.00001
1.00002
1.00005
1.00009
1.00016
1.0003
1.00051
1.00086
1.00144
1.00232
1.0037
1.0058
1.0089
1.01348
1.02006
1.02931
1.04224
1.0599
0.999991
0.999991
0.999991
0.999992
0.999993
0.999995
0.999999
1.00001
1.00002
1.00005
1.00009
1.00016
1.0003
1.00051
1.00086
1.00144
1.00232
1.0037
1.0058
1.0089
1.01348
1.02006
1.02931
1.04224
1.0599
0.999991
0.999991
0.999991
0.999992
0.999993
0.999995
0.999999
1.00001
1.00002
1.00005
1.00009
1.00016
1.0003
1.00051
1.00086
1.00144
1.00232
1.0037
1.0058
1.0089
1.01348
1.02006
1.02931
1.04224
1.0599
0.999991
0.999991
0.999991
0.999992
0.999993
0.999995
0.999999
1.00001
1.00002
1.00005
1.00009
1.00016
1.0003
1.00051
1.00086
1.00144
1.00232
1.0037
1.0058
1.0089
1.01348
1.02006
1.02931
1.04224
1.0599
0.999991
0.999991
0.999991
0.999992
0.999993
0.999995
0.999999
1.00001
1.00002
1.00005
1.00009
1.00016
1.0003
1.00051
1.00086
1.00144
1.00232
1.0037
1.0058
1.0089
1.01348
1.02006
1.02931
1.04224
1.0599
0.999991
0.999991
0.999991
0.999992
0.999993
0.999995
0.999999
1.00001
1.00002
1.00005
1.00009
1.00016
1.0003
1.00051
1.00086
1.00144
1.00232
1.0037
1.0058
1.0089
1.01348
1.02006
1.02931
1.04224
1.0599
0.999991
0.999991
0.999991
0.999992
0.999993
0.999995
0.999999
1.00001
1.00002
1.00005
1.00009
1.00016
1.0003
1.00051
1.00086
1.00144
1.00232
1.0037
1.0058
1.0089
1.01348
1.02006
1.02931
1.04224
1.0599
0.999991
0.999991
0.999991
0.999992
0.999993
0.999995
0.999999
1.00001
1.00002
1.00005
1.00009
1.00016
1.0003
1.00051
1.00086
1.00144
1.00232
1.0037
1.0058
1.0089
1.01348
1.02006
1.02931
1.04224
1.05991
0.999991
0.999991
0.999991
0.999992
0.999993
0.999995
0.999999
1.00001
1.00002
1.00005
1.00009
1.00016
1.0003
1.00051
1.00086
1.00144
1.00232
1.0037
1.0058
1.0089
1.01348
1.02006
1.02931
1.04224
1.05991
0.999991
0.999991
0.999991
0.999992
0.999993
0.999995
0.999999
1.00001
1.00002
1.00005
1.00009
1.00016
1.0003
1.00051
1.00086
1.00144
1.00232
1.0037
1.0058
1.0089
1.01348
1.02006
1.02931
1.04224
1.05991
0.999991
0.999991
0.999991
0.999992
0.999993
0.999995
0.999999
1.00001
1.00002
1.00005
1.00009
1.00016
1.0003
1.00051
1.00086
1.00144
1.00232
1.0037
1.0058
1.0089
1.01348
1.02006
1.02931
1.04224
1.05991
0.999991
0.999991
0.999991
0.999992
0.999993
0.999995
0.999999
1.00001
1.00002
1.00005
1.00009
1.00016
1.0003
1.00051
1.00086
1.00144
1.00232
1.0037
1.0058
1.0089
1.01348
1.02006
1.02931
1.04224
1.05991
0.999991
0.999991
0.999991
0.999992
0.999993
0.999995
0.999999
1.00001
1.00002
1.00005
1.00009
1.00016
1.0003
1.00051
1.00086
1.00144
1.00232
1.0037
1.0058
1.0089
1.01348
1.02006
1.02931
1.04224
1.05991
1
1
1
1
1
1.00002
1.00003
1.00014
1.00023
1.00108
1.00175
1.00839
1.01366
1.06479
1.10944
1.50074
2.16573
5.00128
11.7193
11.43
10.8156
10.3589
10.0382
9.29975
7.56614
1
1
1
1
1.00001
1.00002
1.00004
1.00014
1.00029
1.00096
1.00193
1.00673
1.01215
1.05133
1.08809
1.38999
1.89573
4.21148
10.166
11.2621
10.7586
9.9888
9.4119
8.46505
6.68313
1
1
1
1
1.00001
1.00002
1.00004
1.00011
1.00024
1.00076
1.00157
1.00514
1.01013
1.0369
1.06742
1.28001
1.64566
3.33176
8.10371
11.1847
10.624
9.64742
8.86434
7.93404
6.46129
1
1
1
1
1
1.00001
1.00003
1.00009
1.00018
1.00058
1.00119
1.00386
1.00777
1.02691
1.05092
1.19575
1.43956
2.51394
5.38006
10.836
10.3912
9.41785
8.52536
7.60353
6.45121
1
1
1
1
1
1.00001
1.00002
1.00006
1.00012
1.0004
1.00082
1.0027
1.00514
1.01945
1.03344
1.14389
1.28215
2.09229
3.96934
9.61299
9.80433
9.28623
8.35921
7.41482
6.45404
1
1
1
1
1
1
1.00002
1.00003
1.00009
1.00015
1.00065
1.00104
1.00477
1.00773
1.03576
1.06028
1.26583
1.59246
3.07605
7.12635
9.47711
9.1527
8.33281
7.39305
6.47166
1
1
1
1
1
1.00001
1.00001
1.00003
1.00008
1.00016
1.00048
1.00095
1.00318
1.00597
1.02319
1.04088
1.17171
1.34507
2.30657
4.4251
8.94273
8.84516
8.33563
7.42007
6.52069
1
1
1
1
1
1
1.00001
1.00002
1.00006
1.0001
1.00033
1.00065
1.00204
1.00403
1.01429
1.02545
1.10865
1.2018
1.84897
3.16884
7.49415
8.54445
8.26598
7.52657
6.63463
1
1
1
1
1
1
1.00001
1.00002
1.00003
1.00009
1.00014
1.00048
1.00077
1.00314
1.00505
1.02303
1.03818
1.17383
1.34518
2.30862
4.42159
7.97838
8.02932
7.64359
6.82117
1
1
1
1
1
1
1.00001
1.00002
1.00003
1.00007
1.00013
1.00036
1.00069
1.00205
1.00409
1.0135
1.02573
1.09798
1.199
1.74723
2.94428
6.55755
7.70547
7.56107
7.07778
1
1
1
1
1
1
1.00001
1.00002
1.00003
1.00006
1.00012
1.00019
1.00053
1.00084
1.00295
1.00469
1.01979
1.03281
1.14587
1.28662
2.0799
3.64903
6.97205
7.32446
7.07825
1
1
1
1
1
1
1.00001
1.00002
1.00003
1.00006
1.00011
1.00018
1.0004
1.00069
1.00187
1.0036
1.01085
1.022
1.07192
1.15902
1.52463
2.38623
4.93707
6.80671
6.91776
1
1
1
1
1
1
1.00001
1.00002
1.00003
1.00006
1.00011
1.00019
1.00034
1.00061
1.00098
1.00266
1.00441
1.01466
1.02554
1.10041
1.1917
1.74438
2.75228
5.5105
6.58958
1
1
1
1
1
1
1.00001
1.00002
1.00003
1.00006
1.00011
1.00018
1.00034
1.00055
1.0009
1.00176
1.00297
1.0081
1.01519
1.04751
1.10105
1.33148
1.79848
3.15889
5.70204
1
1
1
1
1
1
1.00001
1.00002
1.00003
1.00006
1.00011
1.00018
1.00033
1.00056
1.00089
1.00153
1.00258
1.00404
1.01066
1.0183
1.05817
1.1199
1.38646
1.92004
3.44762
1
1
1
1
1
1
1.00001
1.00002
1.00003
1.00006
1.0001
1.00019
1.00032
1.00058
1.00089
1.00153
1.00245
1.00367
1.00671
1.01067
1.02956
1.05126
1.16899
1.36354
2.09083
1
1
1
1
1
1
1.00001
1.00002
1.00003
1.00006
1.0001
1.00018
1.0003
1.00055
1.00088
1.00146
1.00241
1.00374
1.00591
1.00955
1.01441
1.03431
1.05805
1.18384
1.39219
1
1
1
1
1
1
1.00001
1.00002
1.00003
1.00006
1.0001
1.00018