/*--------------------------------*- C++ -*----------------------------------*\
| =========                 |                                                 |
| \\      /  F ield         | OpenFOAM: The Open Source CFD Toolbox           |
|  \\    /   O peration     | Version:  4.1                                   |
|   \\  /    A nd           | Web:      www.OpenFOAM.org                      |
|    \\/     M anipulation  |                                                 |
\*---------------------------------------------------------------------------*/
FoamFile
{
    version     2.0;
    format      ascii;
    class       surfaceScalarField;
    location    "7.26";
    object      phi;
}
// * * * * * * * * * * * * * * * * * * * * * * * * * * * * * * * * * * * * * //

dimensions      [1 0 -1 0 0 0 0];

internalField   nonuniform List<scalar> 
150500
(
0.0168001
1.99922e-10
-3.5181e-12
0.0168001
1.12042e-09
-1.15822e-11
0.0168001
4.16087e-09
-1.36344e-11
0.0168
1.07299e-08
-2.13786e-11
0.0168
2.93862e-08
-2.18133e-11
0.0167999
6.73681e-08
-2.88439e-11
0.0167997
1.73876e-07
-2.93212e-11
0.0167993
3.91775e-07
-3.97576e-11
0.0167982
1.00694e-06
-4.06479e-11
0.0167959
2.277e-06
-8.45474e-11
0.0167889
6.12321e-06
-4.35976e-11
0.0167726
1.59406e-05
-2.87357e-10
0.0167149
5.46817e-05
-1.82719e-10
0.0165404
0.000168701
-1.06693e-09
0.0155071
0.0010129
-2.08997e-09
0.0143427
0.0011662
-9.48208e-11
0.0131617
0.00118106
-2.75872e-10
0.0119051
0.00125488
-4.32423e-10
0.0105653
0.0013379
-4.43994e-10
0.00912759
0.00143566
-4.67994e-10
0.00756883
0.00155642
-5.26397e-10
0.00587707
0.00168964
-5.99129e-10
0.00406038
0.00181436
-6.68989e-10
0.0021127
0.00194574
-7.40528e-10
0.00211059
-8.32824e-10
0.0168001
4.25359e-10
-3.50823e-12
0.0168001
2.36395e-09
-1.15906e-11
0.0168
8.78373e-09
-1.36264e-11
0.0168
2.26013e-08
-2.1389e-11
0.0168
6.20936e-08
-2.18232e-11
0.0167999
1.42724e-07
-2.88735e-11
0.0167997
3.66592e-07
-2.93819e-11
0.0167992
8.46484e-07
-3.97841e-11
0.016798
2.06675e-06
-4.09514e-11
0.0167953
4.96549e-06
-8.39735e-11
0.0167882
1.23588e-05
-4.43427e-11
0.0167712
3.25979e-05
-2.84311e-10
0.0167111
0.000111737
-1.86152e-10
0.0165307
0.000343393
-1.06651e-09
0.0154853
0.00203763
-2.11961e-09
0.0143021
0.00235133
-9.14538e-11
0.0131313
0.00235194
-2.75077e-10
0.0118875
0.00249693
-4.22402e-10
0.0105546
0.00266895
-4.29493e-10
0.00910343
0.00288474
-4.50447e-10
0.00752382
0.0031337
-5.13794e-10
0.00581339
0.00339791
-5.90186e-10
0.00397616
0.00364937
-6.63727e-10
0.0020217
0.00389818
-7.38222e-10
0.00413003
-8.33631e-10
0.0168001
6.47388e-10
-3.48851e-12
0.0168001
3.57579e-09
-1.16132e-11
0.0168
1.33155e-08
-1.36303e-11
0.0168
3.42263e-08
-2.14639e-11
0.0168
9.44923e-08
-2.20052e-11
0.0167999
2.18072e-07
-2.93578e-11
0.0167997
5.58749e-07
-3.03281e-11
0.0167992
1.32269e-06
-4.44408e-11
0.0167981
3.07605e-06
-3.87761e-11
0.0167951
7.83569e-06
-1.1974e-10
0.0167882
1.8431e-05
-1.29517e-12
0.0167709
4.93176e-05
-3.29099e-10
0.0167107
0.000168829
-1.20465e-10
0.0165332
0.000515157
-1.04623e-09
0.0155041
0.00304554
-2.08826e-09
0.0143051
0.00355264
-6.30811e-11
0.0131382
0.00351891
-2.87681e-10
0.0119074
0.00372607
-4.2585e-10
0.0105872
0.00398721
-4.23995e-10
0.00914395
0.00432607
-4.37397e-10
0.00756117
0.00471442
-5.04894e-10
0.00584484
0.00511175
-5.79503e-10
0.00398967
0.00550187
-6.53874e-10
0.00202383
0.00586202
-7.23591e-10
0.00615181
-8.03724e-10
0.0168001
7.9611e-10
-3.45085e-12
0.0168001
4.40547e-09
-1.1628e-11
0.0168001
1.63942e-08
-1.35445e-11
0.0168
4.21099e-08
-2.15022e-11
0.0168
1.16248e-07
-2.16408e-11
0.0168
2.67243e-07
-2.89857e-11
0.0167998
6.93966e-07
-2.92707e-11
0.0167995
1.58464e-06
-3.95969e-11
0.0167984
4.03326e-06
-4.15665e-11
0.0167971
9.13579e-06
-7.45495e-11
0.0167884
2.62355e-05
-9.01514e-11
0.016773
6.44603e-05
-2.21367e-10
0.0167213
0.000217413
-2.80564e-10
0.0165442
0.000686792
-1.08801e-09
0.0155734
0.0039937
-2.27399e-09
0.0143605
0.00476804
4.64952e-11
0.0131928
0.00468664
-2.0835e-10
0.0119794
0.0049377
-3.97697e-10
0.0106802
0.00528482
-4.03294e-10
0.00925329
0.00575115
-4.17882e-10
0.00768434
0.00628056
-4.80363e-10
0.00596682
0.00682793
-5.50656e-10
0.00410246
0.00736411
-6.19167e-10
0.00208678
0.00787574
-6.74788e-10
0.0082366
-7.32239e-10
0.0168001
8.94776e-10
-3.41265e-12
0.0168001
4.93332e-09
-1.16443e-11
0.0168001
1.84137e-08
-1.34841e-11
0.0168
4.71099e-08
-2.16437e-11
0.0168
1.30625e-07
-2.14235e-11
0.0168
2.98726e-07
-2.91604e-11
0.0167999
7.8843e-07
-2.9232e-11
0.0167997
1.75551e-06
-4.01304e-11
0.0167988
4.74449e-06
-4.16632e-11
0.0167976
1.03159e-05
-7.70841e-11
0.0167913
3.16246e-05
-9.29654e-11
0.0167803
7.50674e-05
-2.29192e-10
0.0167113
0.000283214
-2.70814e-10
0.0165471
0.000844491
-1.12909e-09
0.0156339
0.00488301
-2.42242e-09
0.0143978
0.00600695
1.15056e-10
0.013244
0.00584017
-1.69177e-10
0.0120644
0.00611526
-3.96918e-10
0.0108087
0.00653913
-4.04443e-10
0.0094244
0.0071336
-4.09891e-10
0.00788722
0.00781476
-4.52976e-10
0.00618282
0.00853051
-5.08305e-10
0.00428392
0.00926128
-5.69594e-10
0.0022151
0.009943
-6.12111e-10
0.0104498
-6.48004e-10
0.0168001
9.27627e-10
-3.37404e-12
0.0168001
5.12493e-09
-1.16464e-11
0.0168001
1.91573e-08
-1.34733e-11
0.0168001
4.88489e-08
-2.16566e-11
0.0168
1.35671e-07
-2.13706e-11
0.0168
3.07221e-07
-2.91453e-11
0.0168
8.30492e-07
-2.9141e-11
0.0168
1.74296e-06
-3.97244e-11
0.0167992
5.31832e-06
-4.15938e-11
0.0167993
1.02823e-05
-7.4202e-11
0.0167929
3.70785e-05
-9.12575e-11
0.0167868
8.06457e-05
-2.21059e-10
0.0167132
0.000353623
-2.75601e-10
0.016572
0.000980294
-1.13138e-09
0.0158293
0.00559902
-2.61028e-09
0.0145393
0.00730111
1.02091e-10
0.0133805
0.00699979
-1.84832e-10
0.0122207
0.00727364
-4.09362e-10
0.0110044
0.00775331
-4.16328e-10
0.00966519
0.00847229
-4.1281e-10
0.00816935
0.00930881
-4.30015e-10
0.00648721
0.0102105
-4.72737e-10
0.00458232
0.0111643
-5.16385e-10
0.00239933
0.0121241
-5.41688e-10
0.0128473
-5.58489e-10
0.0168001
9.74558e-10
-3.34522e-12
0.0168001
5.42502e-09
-1.16401e-11
0.0168001
2.02189e-08
-1.35809e-11
0.0168001
5.17312e-08
-2.14572e-11
0.0168
1.42584e-07
-2.199e-11
0.0168
3.22308e-07
-2.941e-11
0.0168
8.7534e-07
-3.052e-11
0.0167999
1.75472e-06
-4.54676e-11
0.0167991
5.98909e-06
-3.88932e-11
0.0168002
9.25124e-06
-1.2732e-10
0.0167908
4.54106e-05
5.7024e-12
0.0167883
8.30997e-05
-3.50071e-10
0.0167436
0.000394809
-7.66026e-11
0.0166543
0.00106418
-1.06624e-09
0.0163074
0.00591618
-2.54224e-09
0.0149398
0.00867435
1.13547e-11
0.013714
0.00822742
-2.99086e-10
0.0125459
0.00844131
-4.59392e-10
0.0113628
0.00893483
-4.50923e-10
0.0100717
0.0097625
-4.2699e-10
0.00861284
0.0107669
-4.22001e-10
0.00694852
0.011873
-4.46305e-10
0.00501325
0.0130976
-4.73095e-10
0.00272897
0.014407
-4.81231e-10
0.0155745
-4.72926e-10
0.0168001
1.1832e-09
-3.32125e-12
0.0168001
6.50546e-09
-1.1582e-11
0.0168001
2.42139e-08
-1.35781e-11
0.0168
6.1888e-08
-2.12767e-11
0.0168
1.71432e-07
-2.16052e-11
0.0167999
3.91383e-07
-2.83984e-11
0.0167998
1.03459e-06
-2.85142e-11
0.0167992
2.28463e-06
-3.67872e-11
0.0167987
6.32565e-06
-3.966e-11
0.016795
1.29115e-05
-7.05402e-11
0.0167952
4.42635e-05
-5.44846e-11
0.0167877
9.01115e-05
-2.32305e-10
0.0167885
0.000390316
-2.11458e-10
0.0168021
0.00104549
-9.78699e-10
0.0171601
0.0055258
-2.48138e-09
0.0157087
0.0101313
-2.91384e-11
0.0143032
0.00963472
-3.16911e-10
0.0130807
0.00966362
-4.42181e-10
0.0119056
0.0101093
-4.36483e-10
0.0106469
0.0110197
-4.28741e-10
0.00923948
0.0121736
-4.16316e-10
0.0076118
0.0134983
-4.26398e-10
0.00568357
0.0150231
-4.36726e-10
0.00325121
0.0168371
-4.3042e-10
0.018824
-3.99088e-10
0.0168001
1.45381e-09
-3.27665e-12
0.0168001
6.48859e-09
-1.15933e-11
0.0168001
2.5735e-08
-1.35643e-11
0.0168001
6.37456e-08
-2.1273e-11
0.0168
1.79378e-07
-2.15429e-11
0.0168
4.01598e-07
-2.82894e-11
0.0168
1.06995e-06
-2.81159e-11
0.0167999
2.32261e-06
-3.59339e-11
0.0167998
6.342e-06
-3.89881e-11
0.0167995
1.30262e-05
-5.65816e-11
0.0168017
4.12036e-05
-7.19382e-11
0.016809
8.23114e-05
-1.78482e-10
0.0168638
0.000331871
-2.73439e-10
0.0170567
0.000846157
-9.20257e-10
0.0185671
0.00398255
-2.56202e-09
0.0170266
0.0116775
-2.94115e-10
0.0151976
0.0114667
-3.83146e-10
0.0139494
0.0109118
-3.54529e-10
0.0127336
0.0113243
-3.81297e-10
0.0114983
0.0122537
-4.17784e-10
0.0101177
0.0135533
-4.09984e-10
0.00859858
0.0150166
-4.10751e-10
0.00677678
0.0168433
-4.08903e-10
0.00423939
0.0193722
-3.96223e-10
0.0230616
-3.4029e-10
0.0168001
-3.32433e-12
2.60963e-09
0.0168001
-1.15229e-11
2.37231e-09
0.0168001
-1.3735e-11
3.5732e-08
0.0168001
-2.13441e-11
3.32248e-08
0.0168
-2.16679e-11
2.38523e-07
0.0168002
-2.83342e-11
2.19437e-07
0.0167998
-2.80146e-11
1.43142e-06
0.0168009
-3.55865e-11
1.22634e-06
0.0167983
-3.76222e-11
8.87266e-06
0.0168056
-5.49302e-11
5.61124e-06
0.0167834
-5.74512e-11
6.27728e-05
0.0168393
-1.76698e-10
2.59286e-05
0.0167184
-1.5334e-10
0.000449726
0.0170292
-6.35688e-10
0.000534766
0.0175349
-1.2946e-09
0.00345574
0.0170607
-1.21044e-09
0.0121415
0.0157729
-7.10155e-10
0.0127524
0.0146824
-2.00116e-10
0.0120031
0.0135321
-3.587e-10
0.0124735
0.0124568
-3.95272e-10
0.0133266
0.0112851
-3.98344e-10
0.0147231
0.00998911
-3.95973e-10
0.016311
0.00830842
-3.88543e-10
0.0185229
0.00587026
-3.7196e-10
0.0218086
-3.00778e-10
0.0289296
0.0168001
2.04844e-10
-5.90216e-16
0.0168001
1.12042e-09
-3.10483e-15
0.0168
4.16509e-09
-7.15053e-15
0.0168
1.07251e-08
-1.49706e-14
0.0168
2.93681e-08
-3.03301e-14
0.0167999
6.73098e-08
-5.76238e-14
0.0167997
1.73728e-07
-1.306e-13
0.0167993
3.91405e-07
-2.55057e-13
0.0167982
1.006e-06
-6.60998e-13
0.0167959
2.27555e-06
-1.34993e-12
0.0167889
6.11834e-06
-3.65677e-12
0.0167726
1.5941e-05
-9.69997e-12
0.0167149
5.46778e-05
-2.64548e-11
0.0165404
0.000168708
-8.18425e-11
0.0155071
0.00101289
-2.14151e-10
0.0143427
0.00116618
1.74644e-11
0.0131617
0.00118104
-9.69668e-13
0.0119051
0.00125487
-1.95868e-11
0.0105653
0.00133789
-2.05191e-11
0.00912766
0.00143565
-2.08092e-11
0.00756893
0.00155639
-2.13877e-11
0.00587724
0.00168959
-2.29531e-11
0.00406061
0.00181431
-2.46343e-11
0.00211293
0.00194574
-2.56889e-11
0.00211082
-2.64591e-11
0.0168001
4.35319e-10
-5.93823e-16
0.0168001
2.36208e-09
-3.12186e-15
0.0168
8.7855e-09
-7.20189e-15
0.0168
2.2576e-08
-1.50795e-14
0.0168
6.19949e-08
-3.05893e-14
0.0167999
1.4247e-07
-5.81019e-14
0.0167997
3.66034e-07
-1.31695e-13
0.0167992
8.44037e-07
-2.56052e-13
0.016798
2.06711e-06
-6.66451e-13
0.0167953
4.94727e-06
-1.34636e-12
0.0167882
1.23764e-05
-3.67984e-12
0.0167712
3.25759e-05
-9.66118e-12
0.0167111
0.000111767
-2.65922e-11
0.0165307
0.000343397
-8.18926e-11
0.0154852
0.00203763
-2.15572e-10
0.0143022
0.00235123
1.86032e-11
0.0131314
0.00235186
-7.17525e-13
0.0118877
0.00249686
-1.93356e-11
0.0105548
0.00266888
-2.00898e-11
0.0091037
0.00288467
-2.02293e-11
0.00752415
0.00313362
-2.09222e-11
0.00581373
0.00339784
-2.26411e-11
0.00397648
0.00364934
-2.4387e-11
0.00202191
0.00389829
-2.55343e-11
0.00413048
-2.62852e-11
0.0168001
6.65798e-10
-6.18673e-16
0.0168001
3.58296e-09
-3.21667e-15
0.0168
1.33662e-08
-7.57175e-15
0.0168
3.42393e-08
-1.59359e-14
0.0168
9.4673e-08
-3.31669e-14
0.0167999
2.18325e-07
-6.44042e-14
0.0167997
5.5935e-07
-1.44442e-13
0.0167992
1.32502e-06
-3.17524e-13
0.016798
3.07548e-06
-6.40723e-13
0.0167951
7.85479e-06
-1.82369e-12
0.0167882
1.83976e-05
-3.95442e-12
0.0167708
4.93583e-05
-1.02153e-11
0.0167108
0.000168738
-2.21399e-11
0.0165334
0.000515102
-8.20733e-11
0.0155045
0.00304526
-2.19395e-10
0.0143055
0.00355246
2.07448e-11
0.0131386
0.00351886
-6.87358e-13
0.0119077
0.00372601
-1.90578e-11
0.0105876
0.00398714
-1.94017e-11
0.00914436
0.00432598
-1.91312e-11
0.00756158
0.00471433
-2.01395e-11
0.00584522
0.00511172
-2.19024e-11
0.00398996
0.00550193
-2.38441e-11
0.002024
0.00586226
-2.50201e-11
0.00615242
-2.57459e-11
0.0168001
8.15228e-10
-5.96843e-16
0.0168001
4.41428e-09
-3.11151e-15
0.0168001
1.64384e-08
-7.19725e-15
0.0168
4.20789e-08
-1.52959e-14
0.0168
1.16367e-07
-3.05584e-14
0.0168
2.67261e-07
-5.89002e-14
0.0167998
6.94111e-07
-1.33065e-13
0.0167995
1.58468e-06
-2.60855e-13
0.0167984
4.03397e-06
-6.74643e-13
0.0167971
9.13521e-06
-1.32065e-12
0.0167884
2.62392e-05
-4.15952e-12
0.016773
6.44558e-05
-9.04042e-12
0.0167212
0.000217415
-2.83833e-11
0.0165441
0.00068676
-8.38683e-11
0.0155731
0.00399352
-2.28974e-10
0.0143604
0.00476771
2.01352e-11
0.0131928
0.00468645
-1.26543e-12
0.0119795
0.00493755
-1.90323e-11
0.0106804
0.00528467
-1.87177e-11
0.00925352
0.00575101
-1.75436e-11
0.00768458
0.00628046
-1.93524e-11
0.00596705
0.00682789
-2.16219e-11
0.00410264
0.00736422
-2.33095e-11
0.00208687
0.00787607
-2.42469e-11
0.0082373
-2.49352e-11
0.0168001
9.13876e-10
-5.94328e-16
0.0168001
4.94798e-09
-3.08873e-15
0.0168001
1.84335e-08
-7.16642e-15
0.0168
4.71189e-08
-1.52383e-14
0.0168
1.3066e-07
-3.06248e-14
0.0168
2.98713e-07
-5.93017e-14
0.0167999
7.88394e-07
-1.34315e-13
0.0167997
1.75539e-06
-2.71829e-13
0.0167988
4.74374e-06
-6.74273e-13
0.0167976
1.03153e-05
-1.41344e-12
0.0167913
3.16217e-05
-4.16124e-12
0.0167803
7.50716e-05
-9.88379e-12
0.0167113
0.00028322
-2.63385e-11
0.016547
0.000844535
-8.87122e-11
0.0156336
0.00488301
-2.4129e-10
0.0143975
0.00600657
2.03703e-11
0.0132438
0.00583989
-2.46117e-12
0.0120643
0.00611502
-1.93149e-11
0.0108086
0.00653891
-1.82409e-11
0.00942439
0.0071334
-1.58238e-11
0.00788725
0.00781462
-1.80468e-11
0.00618287
0.00853046
-2.01222e-11
0.00428396
0.0092614
-2.22779e-11
0.00221513
0.00994334
-2.3443e-11
0.0104505
-2.40855e-11
0.0168001
9.41953e-10
-5.60123e-16
0.0168001
5.14159e-09
-2.93852e-15
0.0168001
1.91247e-08
-6.66673e-15
0.0168001
4.89491e-08
-1.41483e-14
0.0168
1.3542e-07
-2.75719e-14
0.0168
3.07071e-07
-5.23405e-14
0.0168
8.29852e-07
-1.20879e-13
0.0168
1.74011e-06
-2.17743e-13
0.0167992
5.31945e-06
-6.81779e-13
0.0167993
1.02602e-05
-1.11832e-12
0.0167929
3.71189e-05
-4.39664e-12
0.0167868
8.0599e-05
-8.25213e-12
0.0167131
0.000353743
-3.50225e-11
0.0165718
0.000980387
-9.08066e-11
0.0158288
0.00559933
-2.64863e-10
0.0145388
0.00730071
2.58125e-11
0.0133801
0.00699939
8.98996e-13
0.0122203
0.00727331
-1.83319e-11
0.0110041
0.00775301
-1.75985e-11
0.00966497
0.00847202
-1.51946e-11
0.00816919
0.00930861
-1.64029e-11
0.00648709
0.0102104
-1.88288e-11
0.00458225
0.0111644
-2.06359e-11
0.00239928
0.0121244
-2.20468e-11
0.0128479
-2.28418e-11
0.0168001
9.87346e-10
-5.16645e-16
0.0168001
5.46413e-09
-2.78045e-15
0.0168001
2.02439e-08
-6.10418e-15
0.0168001
5.18371e-08
-1.2594e-14
0.0168
1.42824e-07
-2.40363e-14
0.0168
3.22874e-07
-4.2995e-14
0.0168
8.76583e-07
-1.0366e-13
0.0167999
1.75887e-06
-1.30981e-13
0.0167991
5.99104e-06
-7.3671e-13
0.0168001
9.27326e-06
-3.89434e-13
0.0167908
4.53976e-05
-6.9258e-12
0.0167882
8.31673e-05
-6.65681e-12
0.0167437
0.000394758
-3.60608e-11
0.0166544
0.00106426
-9.51607e-11
0.0163074
0.0059165
-2.90621e-10
0.0149398
0.00867401
5.18953e-11
0.0137138
0.0082271
6.41034e-12
0.0125457
0.00844103
-1.75846e-11
0.0113626
0.00893458
-1.75533e-11
0.0100714
0.00976225
-1.57171e-11
0.00861259
0.0107667
-1.49964e-11
0.00694831
0.0118729
-1.71247e-11
0.00501308
0.0130976
-1.9438e-11
0.00272887
0.0144072
-2.0739e-11
0.0155751
-2.13748e-11
0.0168001
1.20291e-09
-5.53736e-16
0.0168001
6.50977e-09
-2.91193e-15
0.0168001
2.42352e-08
-6.67972e-15
0.0168
6.18954e-08
-1.39491e-14
0.0168
1.71483e-07
-2.83747e-14
0.0167999
3.91519e-07
-5.39369e-14
0.0167998
1.03504e-06
-1.26216e-13
0.0167992
2.28588e-06
-2.43207e-13
0.0167987
6.32784e-06
-7.17693e-13
0.016795
1.29222e-05
-1.12799e-12
0.0167952
4.42666e-05
-5.17e-12
0.0167877
9.01444e-05
-8.10001e-12
0.0167884
0.000390317
-3.80113e-11
0.0168021
0.00104557
-9.52688e-11
0.0171598
0.00552632
-3.01707e-10
0.0157085
0.0101309
4.74697e-11
0.0143031
0.00963433
8.25819e-12
0.0130806
0.00966338
-1.52352e-11
0.0119054
0.0101091
-1.62539e-11
0.0106467
0.0110195
-1.7045e-11
0.00923921
0.0121734
-1.44649e-11
0.00761155
0.0134982
-1.56906e-11
0.00568336
0.0150231
-1.76621e-11
0.00325107
0.0168373
-1.93046e-11
0.0188245
-1.9858e-11
0.0168001
1.41722e-09
-5.40558e-16
0.0168001
6.59991e-09
-2.84922e-15
0.0168001
2.55733e-08
-6.49184e-15
0.0168001
6.36214e-08
-1.35338e-14
0.0168
1.7914e-07
-2.72151e-14
0.0168
4.01438e-07
-5.14132e-14
0.0168
1.06982e-06
-1.19113e-13
0.0167999
2.32282e-06
-2.27473e-13
0.0167998
6.34266e-06
-6.56299e-13
0.0167996
1.30292e-05
-1.16643e-12
0.0168017
4.12092e-05
-4.82181e-12
0.016809
8.23289e-05
-6.67238e-12
0.0168638
0.000331923
-3.74785e-11
0.0170566
0.000846353
-9.04296e-11
0.0185663
0.00398369
-3.09253e-10
0.017026
0.0116769
7.38948e-12
0.0151974
0.011466
-2.9642e-12
0.0139492
0.0109116
-1.02655e-11
0.0127334
0.011324
-1.47639e-11
0.0114981
0.0122535
-1.98512e-11
0.0101174
0.0135532
-1.64763e-11
0.00859833
0.0150165
-1.6651e-11
0.00677656
0.0168433
-1.76206e-11
0.00423925
0.0193724
-1.95534e-11
0.0230619
-1.97805e-11
0.0168001
-5.18619e-16
2.4802e-09
0.0168001
-2.75318e-15
2.74267e-09
0.0168001
-6.13283e-15
3.45699e-08
0.0168001
-1.2726e-14
3.36623e-08
0.0168
-2.45728e-14
2.37318e-07
0.0168002
-4.58927e-14
2.19933e-07
0.0167998
-1.01269e-13
1.4303e-06
0.0168009
-1.94268e-13
1.2271e-06
0.0167983
-5.15757e-13
8.87167e-06
0.0168056
-1.01933e-12
5.61416e-06
0.0167834
-3.03068e-12
6.27686e-05
0.0168393
-6.74409e-12
2.59521e-05
0.0167185
-2.09697e-11
0.000449714
0.0170293
-5.35556e-11
0.000534929
0.0175358
-1.45968e-10
0.00345599
0.017061
-1.13184e-10
0.0121416
0.0157726
-5.76739e-11
0.0127522
0.0146822
-1.47279e-13
0.0120028
0.013532
-1.83995e-11
0.0124733
0.0124566
-2.17073e-11
0.0133264
0.0112849
-1.92832e-11
0.014723
0.00998888
-1.88328e-11
0.0163109
0.00830822
-1.92217e-11
0.0185228
0.0058701
-2.13844e-11
0.0218086
-2.28777e-11
0.0289297
0.0168001
2.04842e-10
1.84428e-16
0.0168001
1.12041e-09
3.8108e-17
0.0168
4.16504e-09
-1.93079e-16
0.0168
1.07249e-08
-4.17735e-16
0.0168
2.93678e-08
-1.1842e-15
0.0167999
6.73089e-08
-2.42582e-15
0.0167997
1.73726e-07
-6.80084e-15
0.0167993
3.914e-07
-1.39763e-14
0.0167982
1.00599e-06
-3.92347e-14
0.0167959
2.27553e-06
-8.2204e-14
0.0167889
6.11827e-06
-2.28144e-13
0.0167726
1.5941e-05
-6.12892e-13
0.0167149
5.46778e-05
-1.68732e-12
0.0165404
0.000168709
-5.24207e-12
0.0155071
0.00101289
-1.37667e-11
0.0143427
0.00116618
1.04543e-12
0.0131617
0.00118104
-2.05546e-13
0.0119051
0.00125487
-1.3816e-12
0.0105653
0.00133789
-1.45572e-12
0.00912767
0.00143565
-1.50147e-12
0.00756894
0.00155639
-1.56466e-12
0.00587725
0.00168959
-1.67685e-12
0.00406061
0.00181431
-1.78675e-12
0.00211293
0.00194575
-1.87185e-12
0.00211082
-1.92378e-12
0.0168001
4.35307e-10
1.84718e-16
0.0168001
2.36203e-09
3.34095e-17
0.0168
8.7853e-09
-1.9631e-16
0.0168
2.25755e-08
-4.24588e-16
0.0168
6.19934e-08
-1.2002e-15
0.0167999
1.42467e-07
-2.45515e-15
0.0167997
3.66026e-07
-6.8682e-15
0.0167992
8.44005e-07
-1.40313e-14
0.016798
2.06711e-06
-3.95803e-14
0.0167953
4.94703e-06
-8.19179e-14
0.0167882
1.23766e-05
-2.29663e-13
0.0167712
3.25756e-05
-6.1024e-13
0.0167111
0.000111767
-1.69634e-12
0.0165307
0.000343397
-5.24553e-12
0.0154852
0.00203763
-1.38593e-11
0.0143022
0.00235123
1.11774e-12
0.0131314
0.00235186
-1.42883e-13
0.0118877
0.00249686
-1.36747e-12
0.0105548
0.00266888
-1.43053e-12
0.0091037
0.00288467
-1.46599e-12
0.00752416
0.00313362
-1.53825e-12
0.00581373
0.00339784
-1.6575e-12
0.00397648
0.00364934
-1.77231e-12
0.00202191
0.00389829
-1.86049e-12
0.00413048
-1.9124e-12
0.0168001
6.65807e-10
1.86533e-16
0.0168001
3.583e-09
6.63227e-18
0.0168
1.33664e-08
-2.20219e-16
0.0168
3.42396e-08
-4.80056e-16
0.0168
9.46742e-08
-1.36692e-15
0.0167999
2.18328e-07
-2.86523e-15
0.0167997
5.59356e-07
-7.69275e-15
0.0167992
1.32505e-06
-1.80592e-14
0.016798
3.07547e-06
-3.78194e-14
0.0167951
7.855e-06
-1.13335e-13
0.0167882
1.83972e-05
-1.9445e-13
0.0167708
4.93588e-05
-6.47125e-13
0.0167108
0.000168737
-1.6604e-12
0.0165334
0.000515102
-5.25781e-12
0.0155045
0.00304526
-1.41069e-11
0.0143055
0.00355245
1.2531e-12
0.0131386
0.00351886
-1.43785e-13
0.0119077
0.00372601
-1.35496e-12
0.0105876
0.00398714
-1.39259e-12
0.00914437
0.00432598
-1.40143e-12
0.00756158
0.00471434
-1.49333e-12
0.00584522
0.00511172
-1.61775e-12
0.00398996
0.00550194
-1.74253e-12
0.002024
0.00586226
-1.83247e-12
0.00615242
-1.88331e-12
0.0168001
8.15231e-10
1.85113e-16
0.0168001
4.4143e-09
3.40439e-17
0.0168001
1.64385e-08
-1.97668e-16
0.0168
4.20791e-08
-4.27462e-16
0.0168
1.16367e-07
-1.21147e-15
0.0168
2.67262e-07
-2.48666e-15
0.0167998
6.94113e-07
-6.94266e-15
0.0167995
1.58468e-06
-1.42734e-14
0.0167984
4.03399e-06
-4.0058e-14
0.0167971
9.13518e-06
-7.9942e-14
0.0167884
2.62393e-05
-2.60525e-13
0.016773
6.44556e-05
-5.69519e-13
0.0167212
0.000217416
-1.81204e-12
0.0165441
0.000686759
-5.37235e-12
0.0155732
0.00399352
-1.47262e-11
0.0143604
0.00476769
1.41922e-12
0.0131928
0.00468644
-2.21491e-13
0.0119795
0.00493755
-1.36137e-12
0.0106804
0.00528467
-1.35928e-12
0.00925352
0.00575102
-1.31705e-12
0.00768458
0.00628047
-1.44814e-12
0.00596705
0.00682789
-1.59949e-12
0.00410264
0.00736422
-1.7135e-12
0.00208687
0.00787608
-1.79397e-12
0.00823731
-1.84238e-12
0.0168001
9.13892e-10
1.84928e-16
0.0168001
4.94807e-09
3.92041e-17
0.0168001
1.84338e-08
-1.96096e-16
0.0168
4.71198e-08
-4.23938e-16
0.0168
1.30662e-07
-1.2159e-15
0.0168
2.98718e-07
-2.51099e-15
0.0167999
7.88406e-07
-7.01773e-15
0.0167997
1.75543e-06
-1.49606e-14
0.0167988
4.74377e-06
-4.0027e-14
0.0167976
1.03155e-05
-8.58084e-14
0.0167913
3.16218e-05
-2.6062e-13
0.0167803
7.50725e-05
-6.23108e-13
0.0167113
0.000283216
-1.68205e-12
0.016547
0.000844533
-5.68156e-12
0.0156336
0.00488301
-1.55202e-11
0.0143976
0.00600655
1.58699e-12
0.0132438
0.00583988
-2.7231e-13
0.0120643
0.00611502
-1.39543e-12
0.0108086
0.00653891
-1.34634e-12
0.0094244
0.00713341
-1.22785e-12
0.00788726
0.00781463
-1.37763e-12
0.00618287
0.00853047
-1.52738e-12
0.00428397
0.00926141
-1.66409e-12
0.00221513
0.00994335
-1.75509e-12
0.0104505
-1.79951e-12
0.0168001
9.41975e-10
1.81963e-16
0.0168001
5.14168e-09
7.66827e-17
0.0168001
1.91251e-08
-1.65312e-16
0.0168001
4.89501e-08
-3.56704e-16
0.0168
1.35423e-07
-1.02593e-15
0.0168
3.07077e-07
-2.07631e-15
0.0168
8.29864e-07
-6.17675e-15
0.0168
1.74017e-06
-1.15557e-14
0.0167992
5.31945e-06
-4.05109e-14
0.0167993
1.02605e-05
-6.71379e-14
0.0167929
3.71184e-05
-2.75521e-13
0.0167868
8.05997e-05
-5.19385e-13
0.0167131
0.000353741
-2.23383e-12
0.0165718
0.000980385
-5.81303e-12
0.0158287
0.00559933
-1.70208e-11
0.0145388
0.00730067
1.91832e-12
0.0133801
0.00699938
-7.94352e-14
0.0122204
0.00727331
-1.35941e-12
0.0110041
0.00775302
-1.32747e-12
0.00966498
0.00847202
-1.20304e-12
0.00816919
0.00930862
-1.29838e-12
0.0064871
0.0102104
-1.46307e-12
0.00458225
0.0111644
-1.58795e-12
0.00239928
0.0121244
-1.69335e-12
0.0128479
-1.74432e-12
0.0168001
9.87334e-10
1.772e-16
0.0168001
5.46409e-09
1.13606e-16
0.0168001
2.02437e-08
-1.31413e-16
0.0168001
5.18366e-08
-2.77836e-16
0.0168
1.42822e-07
-8.10315e-16
0.0168
3.2287e-07
-1.55954e-15
0.0168
8.76573e-07
-5.1998e-15
0.0167999
1.75882e-06
-6.65874e-15
0.0167991
5.99104e-06
-4.37571e-14
0.0168001
9.27303e-06
-2.53402e-14
0.0167908
4.53979e-05
-3.66873e-13
0.0167882
8.31666e-05
-4.2738e-13
0.0167437
0.000394759
-2.51486e-12
0.0166544
0.00106426
-6.08398e-12
0.0163074
0.00591653
-1.86325e-11
0.0149397
0.00867397
2.46932e-12
0.0137138
0.00822708
2.38558e-13
0.0125457
0.00844102
-1.33704e-12
0.0113626
0.00893458
-1.34442e-12
0.0100714
0.00976225
-1.25394e-12
0.00861259
0.0107667
-1.24556e-12
0.00694831
0.0118729
-1.3903e-12
0.00501309
0.0130977
-1.54392e-12
0.00272887
0.0144072
-1.64395e-12
0.0155751
-1.6882e-12
0.0168001
1.20292e-09
1.80873e-16
0.0168001
6.5098e-09
8.39698e-17
0.0168001
2.42353e-08
-1.6553e-16
0.0168
6.18957e-08
-3.58165e-16
0.0168
1.71484e-07
-1.06775e-15
0.0167999
3.9152e-07
-2.20357e-15
0.0167998
1.03504e-06
-6.55052e-15
0.0167992
2.28589e-06
-1.31867e-14
0.0167987
6.32788e-06
-4.29904e-14
0.016795
1.29222e-05
-6.80119e-14
0.0167952
4.42668e-05
-3.24091e-13
0.0167877
9.01455e-05
-5.10281e-13
0.0167884
0.00039032
-2.41717e-12
0.0168021
0.00104558
-6.08138e-12
0.0171598
0.00552641
-1.93139e-11
0.0157085
0.0101309
2.40974e-12
0.0143031
0.00963428
3.28919e-13
0.0130805
0.00966336
-1.21765e-12
0.0119054
0.0101091
-1.29183e-12
0.0106467
0.0110195
-1.36279e-12
0.0092392
0.0121734
-1.25285e-12
0.00761154
0.0134982
-1.3477e-12
0.00568336
0.0150231
-1.48653e-12
0.00325107
0.0168373
-1.61718e-12
0.0188245
-1.66248e-12
0.0168001
1.41722e-09
1.79386e-16
0.0168001
6.59997e-09
9.90309e-17
0.0168001
2.55735e-08
-1.53778e-16
0.0168001
6.3622e-08
-3.32154e-16
0.0168
1.79141e-07
-9.95372e-16
0.0168
4.01442e-07
-2.04589e-15
0.0168
1.06983e-06
-6.10944e-15
0.0167999
2.32284e-06
-1.22086e-14
0.0167998
6.34274e-06
-3.91615e-14
0.0167996
1.30293e-05
-7.05172e-14
0.0168017
4.12101e-05
-3.01964e-13
0.016809
8.23298e-05
-4.21017e-13
0.0168638
0.000331932
-2.37826e-12
0.0170566
0.000846379
-5.76559e-12
0.0185662
0.00398385
-1.97604e-11
0.0170259
0.0116769
3.47614e-13
0.0151974
0.0114659
-4.11335e-13
0.0139492
0.0109116
-9.27239e-13
0.0127334
0.011324
-1.22513e-12
0.011498
0.0122535
-1.56888e-12
0.0101174
0.0135532
-1.41087e-12
0.00859832
0.0150165
-1.45026e-12
0.00677656
0.0168433
-1.53344e-12
0.00423924
0.0193724
-1.7096e-12
0.0230619
-1.7662e-12
0.0168001
1.77619e-16
2.48019e-09
0.0168001
1.21817e-16
2.74275e-09
0.0168001
-1.27854e-16
3.45699e-08
0.0168001
-2.75866e-16
3.36627e-08
0.0168
-8.18776e-16
2.37319e-07
0.0168002
-1.68197e-15
2.19936e-07
0.0167998
-4.95185e-15
1.43031e-06
0.0168009
-1.00541e-14
1.22711e-06
0.0167983
-3.01447e-14
8.87175e-06
0.0168056
-6.08914e-14
5.61421e-06
0.0167834
-1.8823e-13
6.27693e-05
0.0168393
-4.22189e-13
2.59526e-05
0.0167185
-1.32918e-12
0.00044972
0.0170293
-3.40683e-12
0.000534942
0.0175359
-9.32942e-12
0.00345605
0.017061
-7.34802e-12
0.0121416
0.0157726
-3.89321e-12
0.0127522
0.0146822
-3.00642e-13
0.0120028
0.0135319
-1.47858e-12
0.0124733
0.0124566
-1.70159e-12
0.0133264
0.0112848
-1.61436e-12
0.014723
0.00998886
-1.61964e-12
0.0163109
0.0083082
-1.71246e-12
0.0185228
0.0058701
-1.94464e-12
0.0218086
-2.14485e-12
0.0289297
0.0168001
2.04842e-10
-1.04957e-16
0.0168001
1.12041e-09
-3.81668e-16
0.0168
4.16503e-09
-1.0745e-15
0.0168
1.07249e-08
-2.16122e-15
0.0168
2.93677e-08
-5.76087e-15
0.0167999
6.73088e-08
-1.15657e-14
0.0167997
1.73726e-07
-3.17867e-14
0.0167993
3.91399e-07
-6.50913e-14
0.0167982
1.00599e-06
-1.80367e-13
0.0167959
2.27553e-06
-3.78878e-13
0.0167889
6.11826e-06
-1.03483e-12
0.0167726
1.5941e-05
-2.79285e-12
0.0167149
5.46778e-05
-7.64159e-12
0.0165404
0.000168709
-2.3658e-11
0.0155071
0.00101289
-6.32182e-11
0.0143427
0.00116618
7.08147e-12
0.0131617
0.00118104
1.22319e-12
0.0119051
0.00125487
-4.51529e-12
0.0105653
0.00133789
-4.79764e-12
0.00912767
0.00143565
-4.91556e-12
0.00756894
0.00155639
-5.29751e-12
0.00587725
0.00168959
-5.96128e-12
0.00406061
0.00181431
-6.66843e-12
0.00211293
0.00194575
-7.08394e-12
0.00211082
-7.47959e-12
0.0168001
4.35306e-10
-1.06798e-16
0.0168001
2.36202e-09
-3.88551e-16
0.0168
8.78529e-09
-1.09235e-15
0.0168
2.25755e-08
-2.19767e-15
0.0168
6.19933e-08
-5.84556e-15
0.0167999
1.42467e-07
-1.17207e-14
0.0167997
3.66026e-07
-3.21458e-14
0.0167992
8.44003e-07
-6.54181e-14
0.016798
2.06711e-06
-1.82209e-13
0.0167953
4.94702e-06
-3.77822e-13
0.0167882
1.23766e-05
-1.04294e-12
0.0167712
3.25756e-05
-2.78299e-12
0.0167111
0.000111767
-7.68948e-12
0.0165307
0.000343397
-2.36856e-11
0.0154852
0.00203763
-6.3631e-11
0.0143022
0.00235123
7.40829e-12
0.0131314
0.00235186
1.28941e-12
0.0118877
0.00249686
-4.43182e-12
0.0105548
0.00266888
-4.6544e-12
0.00910371
0.00288467
-4.7217e-12
0.00752416
0.00313362
-5.15184e-12
0.00581373
0.00339785
-5.85937e-12
0.00397648
0.00364935
-6.59219e-12
0.00202191
0.00389829
-7.03453e-12
0.00413048
-7.41849e-12
0.0168001
6.65808e-10
-1.18776e-16
0.0168001
3.58301e-09
-4.25665e-16
0.0168
1.33664e-08
-1.21836e-15
0.0168
3.42397e-08
-2.48085e-15
0.0168
9.46743e-08
-6.67782e-15
0.0167999
2.18328e-07
-1.37553e-14
0.0167997
5.59356e-07
-3.62323e-14
0.0167992
1.32505e-06
-8.51336e-14
0.016798
3.07547e-06
-1.74013e-13
0.0167951
7.85501e-06
-5.30397e-13
0.0167882
1.83971e-05
-8.7275e-13
0.0167708
4.93588e-05
-2.97014e-12
0.0167108
0.000168737
-7.51735e-12
0.0165334
0.000515102
-2.37715e-11
0.0155045
0.00304526
-6.47985e-11
0.0143055
0.00355245
8.02607e-12
0.0131386
0.00351886
1.25741e-12
0.0119077
0.00372601
-4.35536e-12
0.0105876
0.00398714
-4.44416e-12
0.00914437
0.00432598
-4.38534e-12
0.00756158
0.00471434
-4.9291e-12
0.00584522
0.00511172
-5.63326e-12
0.00398996
0.00550194
-6.43164e-12
0.002024
0.00586226
-6.88733e-12
0.00615242
-7.25215e-12
0.0168001
8.15231e-10
-1.08143e-16
0.0168001
4.4143e-09
-3.92916e-16
0.0168001
1.64385e-08
-1.10579e-15
0.0168
4.20791e-08
-2.22482e-15
0.0168
1.16367e-07
-5.9368e-15
0.0168
2.67262e-07
-1.19458e-14
0.0167998
6.94114e-07
-3.27046e-14
0.0167995
1.58468e-06
-6.70055e-14
0.0167984
4.03399e-06
-1.85559e-13
0.0167971
9.13518e-06
-3.71042e-13
0.0167884
2.62393e-05
-1.19488e-12
0.016773
6.44555e-05
-2.60879e-12
0.0167212
0.000217416
-8.2753e-12
0.0165441
0.000686759
-2.43837e-11
0.0155732
0.00399352
-6.78656e-11
0.0143604
0.00476769
8.79342e-12
0.0131928
0.00468644
1.03025e-12
0.0119795
0.00493755
-4.36781e-12
0.0106804
0.00528467
-4.24365e-12
0.00925352
0.00575102
-3.90631e-12
0.00768458
0.00628047
-4.7342e-12
0.00596705
0.0068279
-5.63339e-12
0.00410264
0.00736422
-6.30283e-12
0.00208687
0.00787608
-6.67363e-12
0.00823731
-7.01349e-12
0.0168001
9.13893e-10
-1.07455e-16
0.0168001
4.94808e-09
-3.88818e-16
0.0168001
1.84338e-08
-1.10291e-15
0.0168
4.71198e-08
-2.21808e-15
0.0168
1.30663e-07
-5.98935e-15
0.0168
2.98718e-07
-1.21289e-14
0.0167999
7.88406e-07
-3.32376e-14
0.0167997
1.75543e-06
-7.07112e-14
0.0167988
4.74377e-06
-1.86291e-13
0.0167976
1.03155e-05
-4.01167e-13
0.0167913
3.16218e-05
-1.20191e-12
0.0167803
7.50725e-05
-2.87411e-12
0.0167113
0.000283216
-7.70327e-12
0.016547
0.000844533
-2.59451e-11
0.0156336
0.00488301
-7.18721e-11
0.0143976
0.00600655
9.55982e-12
0.0132438
0.00583988
5.78957e-13
0.0120643
0.00611502
-4.48547e-12