/*--------------------------------*- C++ -*----------------------------------*\
| =========                 |                                                 |
| \\      /  F ield         | OpenFOAM: The Open Source CFD Toolbox           |
|  \\    /   O peration     | Version:  4.1                                   |
|   \\  /    A nd           | Web:      www.OpenFOAM.org                      |
|    \\/     M anipulation  |                                                 |
\*---------------------------------------------------------------------------*/
FoamFile
{
    version     2.0;
    format      ascii;
    class       volVectorField;
    location    "7.26";
    object      U;
}
// * * * * * * * * * * * * * * * * * * * * * * * * * * * * * * * * * * * * * //

dimensions      [0 1 -1 0 0 0 0];

internalField   nonuniform List<vector> 
52500
(
(2.99999 1.48182e-08 -0.00571426)
(2.99998 8.26585e-08 -0.00571441)
(2.99995 3.06102e-07 -0.00571465)
(2.99988 7.86313e-07 -0.00571539)
(2.99972 2.15263e-06 -0.00571676)
(2.99927 4.91909e-06 -0.00572091)
(2.9984 1.26851e-05 -0.0057289)
(2.99571 2.845e-05 -0.00575139)
(2.99088 7.24671e-05 -0.00580311)
(2.97332 0.000162838 -0.00591473)
(2.94118 0.000416563 -0.00630904)
(2.82289 0.0010253 -0.00691264)
(2.4952 0.00294311 -0.00961353)
(1.71843 0.00743434 -0.0146909)
(0.754003 0.0205541 -0.0179364)
(0.514335 0.0211366 -0.0184791)
(0.560942 0.022427 -0.0185069)
(0.569511 0.02467 -0.0185688)
(0.520233 0.0269076 -0.018749)
(0.434234 0.0291271 -0.0189284)
(0.348551 0.0317789 -0.0191302)
(0.277434 0.0350419 -0.0192981)
(0.206423 0.0385718 -0.0194661)
(0.124667 0.0427455 -0.0196249)
(0.0554772 0.0489155 -0.0197823)
(2.99999 4.64682e-08 -0.00571426)
(2.99998 2.58648e-07 -0.00571441)
(2.99995 9.60224e-07 -0.00571465)
(2.99988 2.46946e-06 -0.00571538)
(2.99972 6.77407e-06 -0.00571672)
(2.99928 1.55341e-05 -0.00572082)
(2.99842 3.98839e-05 -0.00572872)
(2.99575 9.11436e-05 -0.00575091)
(2.99099 0.000223853 -0.00580204)
(2.9736 0.000523974 -0.00591213)
(2.94192 0.00127423 -0.0063031)
(2.82482 0.0031551 -0.00689544)
(2.50097 0.00911242 -0.00957687)
(1.73136 0.0230653 -0.0146068)
(0.761794 0.0626727 -0.0178363)
(0.511867 0.0615157 -0.0184073)
(0.559893 0.0628223 -0.0184321)
(0.569031 0.0672494 -0.0184859)
(0.519321 0.0714691 -0.0186582)
(0.433129 0.0755487 -0.0188302)
(0.347441 0.0803049 -0.0190234)
(0.27581 0.0857988 -0.0191815)
(0.203741 0.0910089 -0.0193411)
(0.120691 0.0961879 -0.0194849)
(0.0513051 0.101762 -0.0196276)
(3 7.99457e-08 -0.00571426)
(2.99998 4.43874e-07 -0.00571441)
(2.99996 1.654e-06 -0.00571463)
(2.99988 4.26146e-06 -0.00571535)
(2.99973 1.17376e-05 -0.00571666)
(2.9993 2.70746e-05 -0.00572064)
(2.99846 6.92749e-05 -0.00572834)
(2.99586 0.000162395 -0.00574981)
(2.99124 0.00038152 -0.00579997)
(2.97418 0.000940081 -0.00590623)
(2.94343 0.00215985 -0.00629184)
(2.82889 0.00535825 -0.00686152)
(2.51328 0.0156211 -0.00950259)
(1.75992 0.0396848 -0.0144441)
(0.779858 0.108728 -0.0176921)
(0.508457 0.10471 -0.0183256)
(0.559951 0.105887 -0.0183469)
(0.570899 0.113382 -0.0183911)
(0.521063 0.120869 -0.0185547)
(0.435304 0.128684 -0.0187192)
(0.350323 0.137526 -0.018899)
(0.278594 0.147251 -0.0190493)
(0.205683 0.156654 -0.0191947)
(0.121416 0.165473 -0.0193357)
(0.0504502 0.172783 -0.0194641)
(3 1.07583e-07 -0.00571426)
(2.99998 5.9683e-07 -0.0057144)
(2.99996 2.22571e-06 -0.00571462)
(2.99989 5.73151e-06 -0.0057153)
(2.99974 1.58159e-05 -0.00571655)
(2.99933 3.64668e-05 -0.00572035)
(2.99853 9.39098e-05 -0.00572776)
(2.99601 0.000217907 -0.00574792)
(2.99164 0.000528211 -0.00579704)
(2.97506 0.00124821 -0.00589609)
(2.94569 0.00314395 -0.00627582)
(2.83512 0.00752145 -0.00681166)
(2.53224 0.0216288 -0.00938875)
(1.80487 0.0563023 -0.0141928)
(0.808278 0.155273 -0.0175023)
(0.503907 0.147426 -0.018234)
(0.561367 0.14822 -0.0182509)
(0.575545 0.158786 -0.0182802)
(0.525985 0.169659 -0.0184336)
(0.441274 0.181618 -0.0185855)
(0.357381 0.194991 -0.0187592)
(0.285859 0.209516 -0.0188974)
(0.212178 0.223821 -0.0190368)
(0.126083 0.237014 -0.0191579)
(0.0518445 0.246569 -0.0192918)
(3 1.25942e-07 -0.00571425)
(2.99998 6.97514e-07 -0.00571439)
(2.99996 2.60362e-06 -0.0057146)
(2.99989 6.68594e-06 -0.00571524)
(2.99976 1.8492e-05 -0.00571642)
(2.99937 4.24353e-05 -0.00572001)
(2.99861 0.000110908 -0.00572704)
(2.99622 0.000249804 -0.00574588)
(2.9921 0.000650906 -0.00579298)
(2.97632 0.00142906 -0.00588505)
(2.94879 0.00408395 -0.00624842)
(2.84307 0.00929941 -0.00674371)
(2.55828 0.0283691 -0.00924379)
(1.86605 0.0733253 -0.0138625)
(0.843701 0.204086 -0.017273)
(0.494883 0.191056 -0.0181413)
(0.561936 0.190407 -0.0181534)
(0.581278 0.203521 -0.0181636)
(0.532762 0.217412 -0.0183055)
(0.450018 0.233414 -0.0184368)
(0.367932 0.251419 -0.0185902)
(0.297054 0.271127 -0.0187073)
(0.222693 0.291112 -0.018827)
(0.134029 0.30966 -0.0189606)
(0.0552181 0.322342 -0.0190726)
(3 1.3567e-07 -0.00571425)
(2.99998 7.49626e-07 -0.00571438)
(2.99996 2.80149e-06 -0.00571457)
(2.9999 7.1627e-06 -0.00571518)
(2.99977 1.98707e-05 -0.00571628)
(2.99941 4.52611e-05 -0.00571963)
(2.9987 0.000120721 -0.00572621)
(2.99646 0.000261043 -0.00574372)
(2.99263 0.000744985 -0.00578789)
(2.97787 0.00151587 -0.00587321)
(2.95243 0.00487433 -0.00621299)
(2.85373 0.0104004 -0.00667037)
(2.592 0.0368082 -0.00901709)
(1.94563 0.0906066 -0.0134073)
(0.892312 0.256182 -0.0169745)
(0.487055 0.236948 -0.018031)
(0.5654 0.233072 -0.0180383)
(0.590896 0.24808 -0.0180308)
(0.54351 0.26466 -0.0181687)
(0.463131 0.284876 -0.0182862)
(0.383126 0.307948 -0.0184253)
(0.313241 0.333704 -0.0185259)
(0.23836 0.360729 -0.0186263)
(0.146421 0.386802 -0.0187163)
(0.0608933 0.404989 -0.0188454)
(3 1.41104e-07 -0.00571425)
(2.99999 7.80001e-07 -0.00571437)
(2.99997 2.90497e-06 -0.00571455)
(2.99991 7.39932e-06 -0.00571511)
(2.99979 2.04559e-05 -0.00571614)
(2.99945 4.61506e-05 -0.00571926)
(2.99879 0.000125063 -0.00572531)
(2.99674 0.000254399 -0.00574191)
(2.99315 0.000822256 -0.00578167)
(2.97971 0.00139678 -0.00586303)
(2.95639 0.00579249 -0.00616665)
(2.86746 0.0110892 -0.00659941)
(2.63373 0.0439738 -0.00867914)
(2.04519 0.105257 -0.0127923)
(0.960611 0.304983 -0.0165916)
(0.488484 0.283811 -0.0178847)
(0.576749 0.276424 -0.0178974)
(0.608259 0.292121 -0.017858)
(0.561545 0.310791 -0.0179854)
(0.483633 0.33549 -0.0180835)
(0.405691 0.364397 -0.0181943)
(0.336899 0.397533 -0.0182805)
(0.261668 0.433744 -0.0183621)
(0.165895 0.4708 -0.0184445)
(0.0709809 0.499444 -0.0185248)
(3 1.60327e-07 -0.00571425)
(2.99999 8.86209e-07 -0.00571436)
(2.99997 3.30068e-06 -0.00571452)
(2.99991 8.43858e-06 -0.00571504)
(2.99981 2.33224e-05 -0.00571599)
(2.99949 5.29985e-05 -0.00571889)
(2.99888 0.000141769 -0.00572437)
(2.99704 0.000299068 -0.00574051)
(2.99358 0.00090766 -0.0057744)
(2.98194 0.00161549 -0.00585672)
(2.9607 0.00637897 -0.00610316)
(2.88303 0.0119938 -0.00652097)
(2.68153 0.0471009 -0.0082753)
(2.16145 0.113781 -0.0120437)
(1.05108 0.343307 -0.01612)
(0.508849 0.333994 -0.0176951)
(0.599996 0.326838 -0.0177139)
(0.635781 0.339361 -0.0176722)
(0.589582 0.357749 -0.0178037)
(0.51438 0.386177 -0.0178903)
(0.438335 0.421263 -0.0179815)
(0.370881 0.462957 -0.0180241)
(0.296242 0.510741 -0.0180613)
(0.197331 0.564268 -0.018086)
(0.0889456 0.614077 -0.0181504)
(3 1.83179e-07 -0.00571425)
(2.99999 1.00639e-06 -0.00571435)
(2.99997 3.7408e-06 -0.00571449)
(2.99992 9.59378e-06 -0.00571495)
(2.99983 2.64104e-05 -0.0057158)
(2.99955 6.04803e-05 -0.00571838)
(2.999 0.00015807 -0.00572326)
(2.99738 0.000351885 -0.00573759)
(2.99425 0.000937231 -0.00576734)
(2.9842 0.00198641 -0.00584225)
(2.96523 0.00594937 -0.00604808)
(2.89911 0.0124206 -0.00643657)
(2.73019 0.0422068 -0.0078773)
(2.28917 0.103141 -0.011225)
(1.1724 0.317823 -0.015552)
(0.567017 0.369125 -0.0173982)
(0.641355 0.379852 -0.0174244)
(0.674047 0.387438 -0.0173978)
(0.629217 0.405839 -0.0175334)
(0.557771 0.437255 -0.0176024)
(0.483959 0.479172 -0.0176806)
(0.418363 0.529624 -0.0177095)
(0.347011 0.591046 -0.0176972)
(0.250352 0.669787 -0.0176439)
(0.123756 0.763323 -0.0175235)
(3 3.25183e-07 -0.00571425)
(2.99999 5.81514e-07 -0.00571433)
(2.99998 4.73869e-06 -0.00571446)
(2.99993 6.95188e-06 -0.00571486)
(2.99985 3.21039e-05 -0.00571561)
(2.9996 4.48427e-05 -0.00571784)
(2.99912 0.000191963 -0.00572217)
(2.99769 0.000252673 -0.00573457)
(2.99495 0.00116466 -0.00576104)
(2.98608 0.00122734 -0.00582591)
(2.96956 0.00775218 -0.00600929)
(2.9115 0.00598934 -0.00634759)
(2.76511 0.0499534 -0.00762263)
(2.37401 0.0730484 -0.0106026)
(1.29276 0.276268 -0.0153013)
(0.622444 0.414312 -0.0171882)
(0.66523 0.439946 -0.0171753)
(0.698021 0.436031 -0.0172099)
(0.666699 0.455061 -0.0173195)
(0.606321 0.487712 -0.0173612)
(0.539483 0.536118 -0.0173682)
(0.479545 0.594878 -0.0173404)
(0.420181 0.674622 -0.0172383)
(0.341787 0.795468 -0.0170298)
(0.191337 1.00306 -0.0166113)
(2.99999 1.51851e-08 -2.61805e-09)
(2.99998 8.26662e-08 -8.61986e-09)
(2.99995 3.06501e-07 -1.01493e-08)
(2.99987 7.86266e-07 -1.5916e-08)
(2.99972 2.15226e-06 -1.62464e-08)
(2.99927 4.91759e-06 -2.14899e-08)
(2.9984 1.26813e-05 -2.1866e-08)
(2.9957 2.84454e-05 -2.96521e-08)
(2.99087 7.24505e-05 -3.03774e-08)
(2.97331 0.000162844 -6.22447e-08)
(2.94117 0.000416532 -3.32331e-08)
(2.82288 0.00102538 -1.89411e-07)
(2.49518 0.00294297 -1.18786e-07)
(1.71836 0.00743417 -5.15513e-07)
(0.753981 0.0205526 -4.91747e-07)
(0.514363 0.0211356 -1.37382e-08)
(0.56096 0.0224264 -4.99791e-08)
(0.569523 0.02467 -8.25666e-08)
(0.520245 0.026908 -8.47068e-08)
(0.434245 0.0291277 -8.78179e-08)
(0.348562 0.0317792 -9.68994e-08)
(0.277445 0.0350414 -1.08953e-07)
(0.206434 0.0385706 -1.20632e-07)
(0.124679 0.0427454 -1.3247e-07)
(0.0554895 0.0489224 -1.47853e-07)
(2.99999 4.75753e-08 -2.61071e-09)
(2.99998 2.58452e-07 -8.62612e-09)
(2.99995 9.60462e-07 -1.01434e-08)
(2.99988 2.46634e-06 -1.59239e-08)
(2.99972 6.76391e-06 -1.6254e-08)
(2.99928 1.55047e-05 -2.15124e-08)
(2.99842 3.9817e-05 -2.19125e-08)
(2.99575 9.08999e-05 -2.96738e-08)
(2.99099 0.000223695 -3.06088e-08)
(2.97359 0.000522467 -6.18434e-08)
(2.94191 0.00127455 -3.37996e-08)
(2.8248 0.00315365 -1.87624e-07)
(2.50094 0.00911364 -1.2116e-07)
(1.73129 0.0230668 -5.18037e-07)
(0.761769 0.0626733 -5.02442e-07)
(0.511895 0.0615174 -1.29418e-08)
(0.559911 0.0628234 -4.98187e-08)
(0.569046 0.0672499 -8.07661e-08)
(0.519338 0.0714693 -8.20481e-08)
(0.433148 0.0755486 -8.4612e-08)
(0.347461 0.0803042 -9.46375e-08)
(0.275829 0.085798 -1.07377e-07)
(0.203758 0.0910089 -1.19702e-07)
(0.120704 0.0961912 -1.32013e-07)
(0.0513143 0.101775 -1.47884e-07)
(2.99999 8.20795e-08 -2.59606e-09)
(2.99998 4.44354e-07 -8.64303e-09)
(2.99995 1.65804e-06 -1.01466e-08)
(2.99988 4.26081e-06 -1.59802e-08)
(2.99973 1.17449e-05 -1.63915e-08)
(2.9993 2.70763e-05 -2.18777e-08)
(2.99846 6.92817e-05 -2.26257e-08)
(2.99586 0.000162408 -3.31731e-08)
(2.99123 0.000381509 -2.89994e-08)
(2.97417 0.000940423 -8.81562e-08)
(2.94342 0.00215837 -3.13308e-09)
(2.82888 0.00535928 -2.1702e-07)
(2.51326 0.0156174 -8.39433e-08)
(1.75986 0.0396807 -5.14606e-07)
(0.779851 0.108718 -5.05557e-07)
(0.508504 0.104707 -7.52339e-09)
(0.559983 0.105886 -5.21532e-08)
(0.570925 0.113382 -8.15407e-08)
(0.52109 0.120868 -8.11093e-08)
(0.435331 0.128684 -8.22703e-08)
(0.350347 0.137526 -9.31514e-08)
(0.278615 0.147252 -1.05664e-07)
(0.205701 0.156657 -1.18185e-07)
(0.121427 0.165482 -1.29756e-07)
(0.0504565 0.172804 -1.4298e-07)
(2.99999 1.10399e-07 -2.56803e-09)
(2.99998 5.98166e-07 -8.65394e-09)
(2.99996 2.23311e-06 -1.00825e-08)
(2.99988 5.73154e-06 -1.60084e-08)
(2.99974 1.584e-05 -1.61188e-08)
(2.99933 3.64955e-05 -2.15974e-08)
(2.99853 9.39816e-05 -2.18343e-08)
(2.99601 0.000218139 -2.95438e-08)
(2.99164 0.00052832 -3.10948e-08)
(2.97505 0.00124994 -5.50497e-08)
(2.94568 0.0031419 -6.66715e-08)
(2.83511 0.00752353 -1.47877e-07)
(2.5322 0.0216239 -1.78568e-07)
(1.80479 0.0562956 -5.43457e-07)
(0.808242 0.155257 -5.64495e-07)
(0.503931 0.147418 1.24219e-08)
(0.561382 0.148218 -3.79715e-08)
(0.575558 0.158785 -7.66486e-08)
(0.526001 0.169658 -7.74787e-08)
(0.441291 0.181617 -7.87663e-08)
(0.357398 0.194992 -8.90585e-08)
(0.285875 0.209519 -1.01032e-07)
(0.212191 0.223828 -1.12634e-07)
(0.126091 0.237028 -1.21751e-07)
(0.0518483 0.246596 -1.31198e-07)
(3 1.28796e-07 -2.5396e-09)
(2.99998 6.99347e-07 -8.66609e-09)
(2.99996 2.60851e-06 -1.00375e-08)
(2.99989 6.68488e-06 -1.61137e-08)
(2.99976 1.85026e-05 -1.59575e-08)
(2.99936 4.24382e-05 -2.17283e-08)
(2.99861 0.000110917 -2.18089e-08)
(2.99622 0.000249808 -2.99522e-08)
(2.9921 0.000650912 -3.11853e-08)
(2.97632 0.00142908 -5.70123e-08)
(2.94878 0.00408394 -6.8844e-08)
(2.84305 0.00929942 -1.54123e-07)
(2.55824 0.0283692 -1.74052e-07)
(1.86596 0.0733238 -5.78076e-07)
(0.843663 0.204073 -6.2624e-07)
(0.494903 0.191047 2.50817e-08)
(0.561942 0.190401 -3.11612e-08)
(0.581279 0.203517 -7.69404e-08)
(0.532767 0.217409 -7.80048e-08)
(0.450025 0.233412 -7.74158e-08)
(0.36794 0.25142 -8.44041e-08)
(0.297062 0.271131 -9.38157e-08)
(0.2227 0.291121 -1.04346e-07)
(0.134033 0.309678 -1.11479e-07)
(0.0552197 0.322373 -1.17144e-07)
(3 1.38167e-07 -2.51085e-09)
(2.99998 7.51972e-07 -8.66755e-09)
(2.99996 2.80027e-06 -1.00292e-08)
(2.9999 7.16911e-06 -1.61226e-08)
(2.99977 1.98539e-05 -1.59163e-08)
(2.99941 4.52384e-05 -2.17126e-08)
(2.9987 0.000120649 -2.1734e-08)
(2.99646 0.000260776 -2.96176e-08)
(2.99262 0.000744847 -3.11606e-08)
(2.97787 0.00151382 -5.47832e-08)
(2.95242 0.00487638 -6.80013e-08)
(2.85371 0.0103975 -1.48957e-07)
(2.59196 0.0368141 -1.84427e-07)
(1.94553 0.0906132 -5.96714e-07)
(0.892265 0.256181 -7.15142e-07)
(0.487066 0.236944 2.36767e-08)
(0.565399 0.233065 -3.34527e-08)
(0.59089 0.248074 -7.95277e-08)
(0.543506 0.264655 -8.06154e-08)
(0.463128 0.284872 -7.84212e-08)
(0.383126 0.307947 -8.06722e-08)
(0.313241 0.333708 -8.80868e-08)
(0.23836 0.360739 -9.56218e-08)
(0.146421 0.386821 -9.97598e-08)
(0.0608929 0.405021 -1.02331e-07)
(3 1.43072e-07 -2.48937e-09)
(2.99999 7.8413e-07 -8.66277e-09)
(2.99996 2.90489e-06 -1.01089e-08)
(2.99991 7.41437e-06 -1.59732e-08)
(2.99979 2.04598e-05 -1.63747e-08)
(2.99945 4.61857e-05 -2.19034e-08)
(2.99879 0.000125119 -2.27482e-08)
(2.99674 0.00025457 -3.38224e-08)
(2.99315 0.000822496 -2.92272e-08)
(2.9797 0.00139717 -9.30841e-08)
(2.95638 0.00579427 -1.61951e-10)
(2.86745 0.0110903 -2.3453e-07)
(2.6337 0.0439762 -6.9821e-08)
(2.04511 0.105263 -5.84988e-07)
(0.960592 0.304983 -7.59891e-07)
(0.488516 0.283809 9.11927e-09)
(0.57676 0.276418 -5.32837e-08)
(0.608261 0.292115 -8.92082e-08)
(0.561543 0.310786 -8.75878e-08)
(0.48363 0.335486 -8.17246e-08)
(0.405687 0.364395 -7.96134e-08)
(0.336895 0.397536 -8.38676e-08)
(0.261665 0.433754 -8.87061e-08)
(0.165893 0.470819 -9.00358e-08)
(0.070979 0.499476 -8.80423e-08)
(3 1.6289e-07 -2.47157e-09)
(2.99999 8.90172e-07 -8.61962e-09)
(2.99997 3.30524e-06 -1.01073e-08)
(2.99991 8.45042e-06 -1.584e-08)
(2.9998 2.33508e-05 -1.60921e-08)
(2.99949 5.30686e-05 -2.11601e-08)
(2.99887 0.000141929 -2.12773e-08)
(2.99704 0.000299585 -2.74778e-08)
(2.99358 0.000908147 -2.97916e-08)
(2.98194 0.00161868 -5.23951e-08)
(2.96069 0.00637881 -4.25615e-08)
(2.88302 0.0120003 -1.60297e-07)
(2.6815 0.0470978 -1.51483e-07)
(2.16137 0.113783 -5.59346e-07)
(1.05105 0.343303 -8.22023e-07)
(0.508869 0.333987 1.81861e-09)
(0.600005 0.32683 -5.61921e-08)
(0.635784 0.339357 -8.61531e-08)
(0.589582 0.357746 -8.53756e-08)
(0.514378 0.386174 -8.32078e-08)
(0.43833 0.421263 -7.95023e-08)
(0.370876 0.462961 -8.11373e-08)
(0.296237 0.510751 -8.31334e-08)
(0.197327 0.564287 -8.20681e-08)
(0.0889426 0.614107 -7.61216e-08)
(3 1.83061e-07 -2.43837e-09)
(2.99999 1.00851e-06 -8.628e-09)
(2.99997 3.73644e-06 -1.00969e-08)
(2.99992 9.5874e-06 -1.58371e-08)
(2.99982 2.64015e-05 -1.60453e-08)
(2.99955 6.04738e-05 -2.10782e-08)
(2.999 0.000158082 -2.09795e-08)
(2.99737 0.000351942 -2.68406e-08)
(2.99425 0.000937364 -2.92755e-08)
(2.9842 0.00198713 -4.2314e-08)
(2.96522 0.00594989 -5.4938e-08)
(2.8991 0.0124231 -1.25325e-07)
(2.73015 0.042211 -1.91517e-07)
(2.28908 0.103155 -5.45929e-07)
(1.17234 0.317862 -9.56364e-07)
(0.567008 0.369127 -5.05742e-08)
(0.641355 0.379843 -7.03081e-08)
(0.674051 0.387436 -6.89599e-08)
(0.629219 0.405838 -7.51279e-08)
(0.55777 0.437254 -8.24376e-08)
(0.483956 0.479173 -7.96965e-08)
(0.418358 0.529628 -7.97748e-08)
(0.347006 0.591055 -7.96653e-08)
(0.250348 0.669804 -7.78667e-08)
(0.123753 0.763351 -6.71982e-08)
(3 3.10737e-07 -2.47383e-09)
(2.99999 6.33304e-07 -8.57556e-09)
(2.99997 4.62611e-06 -1.02237e-08)
(2.99993 6.98257e-06 -1.58895e-08)
(2.99985 3.19766e-05 -1.61368e-08)
(2.9996 4.48738e-05 -2.11083e-08)
(2.99912 0.00019185 -2.08946e-08)
(2.99769 0.000252756 -2.65648e-08)
(2.99494 0.00116461 -2.81901e-08)
(2.98608 0.00122782 -4.10612e-08)
(2.96955 0.0077523 -4.34975e-08)
(2.91149 0.00599299 -1.25336e-07)
(2.76509 0.0499553 -1.09483e-07)
(2.37396 0.0730708 -3.81372e-07)
(1.29271 0.276313 -5.26418e-07)
(0.622439 0.414302 -2.41045e-07)
(0.665243 0.439937 -1.4146e-07)
(0.698037 0.436028 -3.81322e-08)
(0.666706 0.455059 -7.23369e-08)
(0.606323 0.487713 -7.97185e-08)
(0.539482 0.53612 -7.9393e-08)
(0.479542 0.594882 -7.89931e-08)
(0.420177 0.67463 -7.80956e-08)
(0.341783 0.795484 -7.63776e-08)
(0.191333 1.00309 -6.37851e-08)
(2.99999 1.51849e-08 -4.48908e-13)
(2.99998 8.26655e-08 -2.35368e-12)
(2.99995 3.06499e-07 -5.46364e-12)
(2.99987 7.8626e-07 -1.14483e-11)
(2.99972 2.15224e-06 -2.34392e-11)
(2.99927 4.91756e-06 -4.46503e-11)
(2.9984 1.26812e-05 -1.02011e-10)
(2.9957 2.84452e-05 -1.99372e-10)
(2.99087 7.24502e-05 -5.14931e-10)
(2.97331 0.000162844 -1.03779e-09)
(2.94117 0.000416531 -2.73217e-09)
(2.82287 0.00102538 -6.57579e-09)
(2.49517 0.00294296 -1.59812e-08)
(1.71836 0.00743416 -3.90795e-08)
(0.753976 0.0205525 -4.8642e-08)
(0.514365 0.0211356 3.28729e-09)
(0.56096 0.0224264 -2.03543e-10)
(0.569523 0.02467 -3.8302e-09)
(0.520245 0.026908 -4.00724e-09)
(0.434245 0.0291277 -4.00832e-09)
(0.348562 0.0317792 -4.06012e-09)
(0.277445 0.0350414 -4.31376e-09)
(0.206434 0.0385707 -4.59502e-09)
(0.124679 0.0427454 -4.76494e-09)
(0.0554895 0.0489224 -4.8837e-09)
(2.99999 4.75742e-08 -4.51764e-13)
(2.99998 2.58447e-07 -2.36719e-12)
(2.99995 9.60441e-07 -5.50426e-12)
(2.99988 2.46628e-06 -1.15345e-11)
(2.99972 6.76375e-06 -2.36439e-11)
(2.99928 1.55043e-05 -4.5028e-11)
(2.99842 3.98161e-05 -1.02877e-10)
(2.99575 9.08967e-05 -2.00159e-10)
(2.99099 0.000223693 -5.19267e-10)
(2.97359 0.000522447 -1.03528e-09)
(2.94191 0.00127456 -2.7516e-09)
(2.8248 0.00315363 -6.55565e-09)
(2.50094 0.00911364 -1.61105e-08)
(1.73129 0.0230668 -3.93073e-08)
(0.761765 0.0626731 -4.93645e-08)
(0.511897 0.0615174 3.5034e-09)
(0.559911 0.0628233 -1.55422e-10)
(0.569046 0.0672499 -3.78529e-09)
(0.519338 0.0714693 -3.92742e-09)
(0.433148 0.0755487 -3.9001e-09)
(0.347461 0.0803043 -3.97519e-09)
(0.275829 0.085798 -4.25752e-09)
(0.203759 0.0910089 -4.55057e-09)
(0.120704 0.0961913 -4.73511e-09)
(0.0513143 0.101775 -4.84929e-09)
(2.99999 8.20793e-08 -4.71456e-13)
(2.99998 4.44354e-07 -2.44235e-12)
(2.99995 1.65804e-06 -5.79723e-12)
(2.99988 4.2608e-06 -1.22129e-11)
(2.99973 1.17449e-05 -2.56853e-11)
(2.9993 2.70763e-05 -5.00199e-11)
(2.99846 6.92816e-05 -1.1296e-10)
(2.99586 0.000162408 -2.48721e-10)
(2.99123 0.000381508 -4.9921e-10)
(2.97417 0.000940423 -1.40471e-09)
(2.94342 0.00215835 -2.35705e-09)
(2.82888 0.00535929 -6.94754e-09)
(2.51326 0.0156173 -1.58821e-08)
(1.75985 0.0396806 -3.98309e-08)
(0.779847 0.108717 -5.1155e-08)
(0.508506 0.104707 3.90916e-09)
(0.559984 0.105886 -1.50317e-10)
(0.570925 0.113382 -3.74116e-09)
(0.52109 0.120868 -3.80384e-09)
(0.435331 0.128684 -3.70017e-09)
(0.350348 0.137526 -3.83809e-09)
(0.278615 0.147252 -4.13238e-09)
(0.205701 0.156657 -4.46197e-09)
(0.121427 0.165482 -4.65431e-09)
(0.0504565 0.172804 -4.7626e-09)
(2.99999 1.104e-07 -4.54069e-13)
(2.99998 5.98171e-07 -2.35972e-12)
(2.99996 2.23313e-06 -5.50184e-12)
(2.99988 5.73159e-06 -1.16977e-11)
(2.99974 1.58402e-05 -2.36299e-11)
(2.99933 3.64958e-05 -4.56469e-11)
(2.99853 9.39823e-05 -1.03965e-10)
(2.99601 0.000218142 -2.03934e-10)
(2.99164 0.000528321 -5.2611e-10)
(2.97505 0.00124996 -1.01624e-09)
(2.94568 0.00314188 -3.12467e-09)
(2.83511 0.00752353 -6.16773e-09)
(2.5322 0.0216239 -1.74524e-08)
(1.80478 0.0562954 -4.13851e-08)
(0.808238 0.155257 -5.49615e-08)
(0.503933 0.147418 4.41245e-09)
(0.561383 0.148218 -2.62736e-10)
(0.575558 0.158785 -3.75099e-09)
(0.526001 0.169658 -3.686e-09)
(0.441291 0.181617 -3.4118e-09)
(0.357398 0.194992 -3.70703e-09)
(0.285875 0.209519 -4.09958e-09)
(0.212191 0.223828 -4.38683e-09)
(0.126091 0.237028 -4.53553e-09)
(0.0518483 0.246597 -4.63985e-09)
(3 1.28798e-07 -4.52086e-13)
(2.99998 6.99355e-07 -2.34204e-12)
(2.99996 2.60854e-06 -5.47775e-12)
(2.99989 6.68495e-06 -1.16523e-11)
(2.99976 1.85028e-05 -2.3683e-11)
(2.99936 4.24386e-05 -4.5965e-11)
(2.99861 0.000110918 -1.04961e-10)
(2.99622 0.000249811 -2.12612e-10)
(2.9921 0.000650914 -5.26145e-10)
(2.97632 0.00142909 -1.0889e-09)
(2.94878 0.00408394 -3.13424e-09)
(2.84305 0.00929945 -6.77343e-09)
(2.55824 0.0283689 -1.64124e-08)
(1.86595 0.0733234 -4.48076e-08)
(0.843659 0.204071 -6.03758e-08)
(0.494906 0.191046 4.93108e-09)
(0.561944 0.190401 -4.96268e-10)
(0.581279 0.203517 -3.8283e-09)
(0.532767 0.217409 -3.61476e-09)
(0.450025 0.233412 -3.10082e-09)
(0.36794 0.25142 -3.48072e-09)
(0.297062 0.271131 -3.84361e-09)
(0.2227 0.291121 -4.22093e-09)
(0.134033 0.309678 -4.41986e-09)
(0.0552197 0.322373 -4.51171e-09)
(3 1.38169e-07 -4.25083e-13)
(2.99998 7.51987e-07 -2.22358e-12)
(2.99996 2.80032e-06 -5.08309e-12)
(2.9999 7.16927e-06 -1.07914e-11)
(2.99977 1.98543e-05 -2.12715e-11)
(2.99941 4.52394e-05 -4.04667e-11)
(2.9987 0.000120651 -9.43695e-11)
(2.99646 0.000260783 -1.70028e-10)
(2.99262 0.000744852 -5.32386e-10)
(2.97787 0.00151387 -8.62229e-10)
(2.95242 0.00487636 -3.32147e-09)
(2.85371 0.0103976 -5.69786e-09)
(2.59196 0.0368136 -2.21201e-08)
(1.94552 0.0906127 -4.7173e-08)
(0.892259 0.256179 -7.01131e-08)
(0.487068 0.236943 5.91978e-09)
(0.5654 0.233065 1.49057e-10)
(0.59089 0.248074 -3.66151e-09)
(0.543506 0.264655 -3.51609e-09)
(0.463128 0.284872 -3.00445e-09)
(0.383126 0.307947 -3.19881e-09)
(0.313241 0.333708 -3.63623e-09)
(0.23836 0.360739 -3.95717e-09)
(0.146421 0.386821 -4.20112e-09)
(0.0608929 0.405021 -4.32785e-09)
(3 1.43073e-07 -3.90975e-13)
(2.99999 7.84132e-07 -2.09874e-12)
(2.99996 2.90489e-06 -4.63935e-12)
(2.99991 7.41439e-06 -9.57644e-12)
(2.99979 2.04598e-05 -1.84817e-11)
(2.99945 4.61857e-05 -3.31341e-11)
(2.99879 0.000125119 -8.08644e-11)
(2.99674 0.000254569 -1.02093e-10)
(2.99315 0.000822495 -5.75596e-10)
(2.9797 0.00139717 -3.0232e-10)
(2.95638 0.00579424 -4.48787e-09)
(2.86745 0.0110903 -4.65756e-09)
(2.6337 0.0439762 -2.5342e-08)
(2.0451 0.105263 -5.09963e-08)
(0.960586 0.304982 -8.29539e-08)
(0.488517 0.283808 7.54981e-09)
(0.57676 0.276418 1.21048e-09)
(0.60826 0.292114 -3.53889e-09)
(0.561542 0.310786 -3.53317e-09)
(0.48363 0.335486 -3.13289e-09)
(0.405686 0.364396 -2.959e-09)
(0.336895 0.397536 -3.35069e-09)
(0.261665 0.433754 -3.77888e-09)
(0.165893 0.470819 -4.01472e-09)
(0.0709789 0.499476 -4.10787e-09)
(3 1.62889e-07 -4.20209e-13)
(2.99999 8.9017e-07 -2.20257e-12)
(2.99997 3.30523e-06 -5.09295e-12)
(2.99991 8.45039e-06 -1.06444e-11)
(2.9998 2.33507e-05 -2.19006e-11)
(2.99949 5.30683e-05 -4.17519e-11)
(2.99887 0.000141928 -9.86333e-11)
(2.99704 0.000299581 -1.90253e-10)
(2.99358 0.000908147 -5.61251e-10)
(2.98194 0.00161865 -8.74373e-10)
(2.96069 0.00637883 -3.91983e-09)
(2.88301 0.0120003 -5.74119e-09)
(2.68149 0.047098 -2.45488e-08)
(2.16136 0.113783 -5.27853e-08)
(1.05104 0.343303 -9.48168e-08)
(0.508869 0.333986 7.37378e-09)
(0.600004 0.326829 1.56333e-09)
(0.635783 0.339356 -3.09885e-09)
(0.589581 0.357746 -3.30871e-09)
(0.514377 0.386174 -3.43589e-09)
(0.438329 0.421263 -2.90077e-09)
(0.370875 0.462961 -3.12708e-09)
(0.296237 0.510751 -3.50336e-09)
(0.197327 0.564287 -3.81792e-09)
(0.0889425 0.614108 -3.91024e-09)
(3 1.83062e-07 -4.09804e-13)
(2.99999 1.00851e-06 -2.15312e-12)
(2.99997 3.73647e-06 -4.94445e-12)
(2.99992 9.58747e-06 -1.03162e-11)
(2.99982 2.64017e-05 -2.09849e-11)
(2.99955 6.04743e-05 -3.97597e-11)
(2.999 0.000158083 -9.30438e-11)
(2.99737 0.000351945 -1.77902e-10)
(2.99425 0.000937375 -5.13564e-10)
(2.9842 0.00198714 -9.06354e-10)
(2.96522 0.00594999 -3.66714e-09)
(2.8991 0.0124233 -4.80132e-09)
(2.73015 0.0422118 -2.45506e-08)
(2.28907 0.103157 -5.19603e-08)
(1.17233 0.317868 -1.09586e-07)
(0.567005 0.369128 1.36471e-09)
(0.641353 0.379842 -6.14662e-10)
(0.674049 0.387435 -2.11584e-09)
(0.629217 0.405837 -3.03293e-09)
(0.557768 0.437253 -4.0349e-09)
(0.483955 0.479172 -3.34273e-09)
(0.418357 0.529628 -3.3786e-09)
(0.347005 0.591055 -3.57755e-09)
(0.250347 0.669804 -3.98214e-09)
(0.123752 0.763351 -4.02116e-09)
(3 3.10737e-07 -3.92244e-13)
(2.99999 6.33318e-07 -2.07632e-12)
(2.99997 4.62612e-06 -4.65808e-12)
(2.99993 6.98265e-06 -9.67338e-12)
(2.99985 3.19768e-05 -1.88886e-11)
(2.9996 4.48742e-05 -3.53848e-11)
(2.99912 0.000191852 -7.89394e-11)
(2.99769 0.000252758 -1.51695e-10)
(2.99494 0.00116463 -4.03509e-10)
(2.98608 0.00122783 -7.92774e-10)
(2.96955 0.00775243 -2.31498e-09)
(2.91149 0.00599308 -4.89637e-09)
(2.76508 0.0499563 -1.40057e-08)
(2.37395 0.0730731 -3.15185e-08)
(1.29271 0.276321 -5.67488e-08)
(0.622437 0.414301 -2.195e-08)
(0.665243 0.439936 -1.13427e-08)
(0.698037 0.436026 -8.52887e-11)
(0.666705 0.455058 -3.8131e-09)
(0.606322 0.487712 -4.47533e-09)
(0.539481 0.536119 -3.97274e-09)
(0.479541 0.594882 -3.89483e-09)
(0.420176 0.67463 -4.00934e-09)
(0.341783 0.795484 -4.52992e-09)
(0.191333 1.00309 -4.93138e-09)
(2.99999 1.51849e-08 -4.64758e-14)
(2.99998 8.26654e-08 -2.07193e-13)
(2.99995 3.06499e-07 -6.8256e-13)
(2.99987 7.86259e-07 -1.47624e-12)
(2.99972 2.15224e-06 -4.16979e-12)
(2.99927 4.91756e-06 -8.53736e-12)
(2.9984 1.26812e-05 -2.3772e-11)
(2.9957 2.84452e-05 -4.87812e-11)
(2.99087 7.24502e-05 -1.34682e-10)
(2.97331 0.000162844 -2.78861e-10)
(2.94117 0.00041653 -7.39498e-10)
(2.82287 0.00102539 -1.81074e-09)
(2.49517 0.00294296 -4.3656e-09)
(1.71836 0.00743416 -1.07058e-08)
(0.753976 0.0205525 -1.32658e-08)
(0.514365 0.0211356 1.1489e-09)
(0.56096 0.0224264 1.46611e-10)
(0.569523 0.02467 -8.79487e-10)
(0.520245 0.026908 -9.29758e-10)
(0.434245 0.0291277 -9.39379e-10)
(0.348562 0.0317792 -9.86502e-10)
(0.277445 0.0350414 -1.08299e-09)
(0.206434 0.0385707 -1.18619e-09)
(0.124679 0.0427454 -1.24656e-09)
(0.0554895 0.0489224 -1.29887e-09)
(2.99999 4.75742e-08 -4.73729e-14)
(2.99998 2.58447e-07 -2.11486e-13)
(2.99995 9.6044e-07 -6.95037e-13)
(2.99988 2.46628e-06 -1.50262e-12)
(2.99972 6.76374e-06 -4.23192e-12)
(2.99928 1.55042e-05 -8.65139e-12)
(2.99842 3.9816e-05 -2.40359e-11)
(2.99575 9.08965e-05 -4.90179e-11)
(2.99099 0.000223693 -1.36039e-10)
(2.97359 0.000522445 -2.7812e-10)
(2.94191 0.00127456 -7.45722e-10)
(2.8248 0.00315363 -1.80592e-09)
(2.50094 0.00911364 -4.40565e-09)
(1.73129 0.0230668 -1.07781e-08)
(0.761764 0.0626731 -1.34772e-08)
(0.511897 0.0615174 1.20639e-09)
(0.559911 0.0628233 1.57423e-10)
(0.569046 0.0672499 -8.67684e-10)
(0.519338 0.0714693 -9.0756e-10)
(0.433148 0.0755487 -9.08401e-10)
(0.347461 0.0803043 -9.63894e-10)
(0.275829 0.085798 -1.0681e-09)
(0.203759 0.0910089 -1.17548e-09)
(0.120704 0.0961913 -1.23956e-09)
(0.0513144 0.101775 -1.29036e-09)
(2.99999 8.20793e-08 -5.33856e-14)
(2.99998 4.44354e-07 -2.349e-13)
(2.99995 1.65804e-06 -7.84361e-13)
(2.99988 4.2608e-06 -1.70978e-12)
(2.99973 1.17449e-05 -4.85009e-12)
(2.9993 2.70763e-05 -1.01668e-11)
(2.99846 6.92816e-05 -2.70785e-11)
(2.99586 0.000162408 -6.37005e-11)
(2.99123 0.000381508 -1.2998e-10)
(2.97417 0.000940424 -3.89529e-10)
(2.94342 0.00215835 -6.26753e-10)
(2.82888 0.00535929 -1.92921e-09)
(2.51326 0.0156173 -4.33549e-09)
(1.75985 0.0396806 -1.09421e-08)
(0.779847 0.108717 -1.39933e-08)
(0.508507 0.104707 1.31354e-09)
(0.559984 0.105886 1.50905e-10)
(0.570925 0.113382 -8.59289e-10)
(0.52109 0.120868 -8.75723e-10)
(0.435331 0.128684 -8.54421e-10)
(0.350348 0.137526 -9.29552e-10)
(0.278615 0.147252 -1.03626e-09)
(0.205701 0.156657 -1.15381e-09)
(0.121427 0.165482 -1.22062e-09)
(0.0504565 0.172804 -1.26857e-09)
(2.99999 1.104e-07 -4.79195e-14)
(2.99998 5.98172e-07 -2.13767e-13)
(2.99996 2.23313e-06 -7.03603e-13)
(2.99988 5.73159e-06 -1.52062e-12)
(2.99974 1.58402e-05 -4.29506e-12)
(2.99933 3.64958e-05 -8.81048e-12)
(2.99853 9.39823e-05 -2.44312e-11)
(2.99601 0.000218142 -5.01607e-11)
(2.99164 0.000528321 -1.38512e-10)
(2.97505 0.00124996 -2.73132e-10)
(2.94568 0.00314188 -8.56742e-10)
(2.83511 0.00752353 -1.70179e-09)
(2.5322 0.0216239 -4.8092e-09)
(1.80478 0.0562954 -1.14156e-08)
(0.808237 0.155257 -1.51051e-08)
(0.503934 0.147418 1.44594e-09)
(0.561383 0.148218 1.10288e-10)
(0.575558 0.158785 -8.68596e-10)
(0.526001 0.169658 -8.4771e-10)
(0.441291 0.181617 -7.78063e-10)
(0.357398 0.194992 -9.01013e-10)
(0.285875 0.209519 -1.0399e-09)
(0.212191 0.223828 -1.14005e-09)
(0.126091 0.237028 -1.19364e-09)
(0.0518483 0.246597 -1.23866e-09)
(3 1.28798e-07 -4.75504e-14)
(2.99998 6.99355e-07 -2.11052e-13)
(2.99996 2.60854e-06 -7.00788e-13)
(2.99989 6.68495e-06 -1.51405e-12)
(2.99976 1.85028e-05 -4.32948e-12)
(2.99936 4.24387e-05 -8.93715e-12)
(2.99861 0.000110918 -2.48082e-11)
(2.99622 0.000249811 -5.28748e-11)
(2.9921 0.000650914 -1.39048e-10)
(2.97632 0.00142909 -2.95198e-10)
(2.94878 0.00408394 -8.63453e-10)
(2.84305 0.00929946 -1.88127e-09)
(2.55824 0.0283689 -4.53805e-09)
(1.86595 0.0733234 -1.24327e-08)
(0.843659 0.204071 -1.66887e-08)
(0.494906 0.191046 1.58176e-09)
(0.561944 0.190401 3.3455e-11)
(0.581279 0.203517 -8.99552e-10)
(0.532767 0.217409 -8.3545e-10)
(0.450025 0.233412 -6.95985e-10)
(0.36794 0.25142 -8.45715e-10)
(0.297062 0.271131 -9.74147e-10)
(0.2227 0.291121 -1.10183e-09)
(0.134033 0.309678 -1.17087e-09)
(0.0552197 0.322373 -1.21011e-09)
(3 1.3817e-07 -4.01352e-14)
(2.99998 7.51988e-07 -1.78951e-13)
(2.99996 2.80033e-06 -5.9185e-13)
(2.9999 7.16928e-06 -1.27616e-12)
(2.99977 1.98544e-05 -3.66249e-12)