/*--------------------------------*- C++ -*----------------------------------*\
| =========                 |                                                 |
| \\      /  F ield         | OpenFOAM: The Open Source CFD Toolbox           |
|  \\    /   O peration     | Version:  4.1                                   |
|   \\  /    A nd           | Web:      www.OpenFOAM.org                      |
|    \\/     M anipulation  |                                                 |
\*---------------------------------------------------------------------------*/
FoamFile
{
    version     2.0;
    format      ascii;
    class       volVectorField;
    location    "1.66";
    object      U;
}
// * * * * * * * * * * * * * * * * * * * * * * * * * * * * * * * * * * * * * //

dimensions      [0 1 -1 0 0 0 0];

internalField   nonuniform List<vector> 
52500
(
(3 7.16514e-09 -0.00571425)
(2.99999 3.98374e-08 -0.00571435)
(2.99997 1.47467e-07 -0.0057145)
(2.99992 3.78994e-07 -0.00571497)
(2.99982 1.03608e-06 -0.00571583)
(2.99954 2.3662e-06 -0.00571845)
(2.99898 6.13275e-06 -0.00572344)
(2.99734 1.35325e-05 -0.00573802)
(2.99417 3.59837e-05 -0.00576853)
(2.98396 7.57407e-05 -0.00584483)
(2.96463 0.00023719 -0.00605668)
(2.89699 0.000443751 -0.00645619)
(2.72345 0.00168488 -0.00795772)
(2.26369 0.00411393 -0.0115207)
(1.06261 0.0123989 -0.0165785)
(0.386667 0.021012 -0.0185251)
(0.547512 0.023456 -0.0184999)
(0.604203 0.0252177 -0.0184812)
(0.554089 0.0272071 -0.018699)
(0.460046 0.0296738 -0.0189212)
(0.366384 0.0328869 -0.019128)
(0.291418 0.0369789 -0.0194252)
(0.214921 0.0412632 -0.0196714)
(0.129295 0.0450717 -0.0198912)
(0.0514728 0.048687 -0.0200454)
(3 2.23646e-08 -0.00571425)
(2.99999 1.23953e-07 -0.00571435)
(2.99997 4.60121e-07 -0.0057145)
(2.99992 1.18132e-06 -0.00571496)
(2.99983 3.24148e-06 -0.00571581)
(2.99955 7.40646e-06 -0.00571841)
(2.99899 1.92731e-05 -0.00572335)
(2.99737 4.2649e-05 -0.0057378)
(2.99422 0.000113093 -0.00576798)
(2.98413 0.000241863 -0.00584373)
(2.96494 0.00072074 -0.00605251)
(2.89812 0.00146356 -0.00645062)
(2.72684 0.00507665 -0.00792633)
(2.27198 0.012501 -0.011466)
(1.07548 0.0373555 -0.0164765)
(0.398026 0.0617827 -0.0184286)
(0.550869 0.0671878 -0.0184042)
(0.605749 0.0698847 -0.0183882)
(0.554959 0.0730301 -0.0186016)
(0.460568 0.0773984 -0.0188158)
(0.366581 0.0830761 -0.0190131)
(0.290887 0.0897591 -0.0192997)
(0.213535 0.0958657 -0.0195321)
(0.127286 0.100521 -0.0197367)
(0.0491132 0.102907 -0.0198818)
(3 3.83812e-08 -0.00571425)
(2.99999 2.1225e-07 -0.00571434)
(2.99997 7.89539e-07 -0.00571449)
(2.99992 2.02566e-06 -0.00571494)
(2.99983 5.57554e-06 -0.00571578)
(2.99956 1.27473e-05 -0.00571832)
(2.99901 3.3279e-05 -0.00572316)
(2.99742 7.39153e-05 -0.00573733)
(2.99433 0.000195028 -0.00576684)
(2.98446 0.000425267 -0.00584126)
(2.96567 0.0011963 -0.00604471)
(2.90042 0.00264801 -0.00643633)
(2.73359 0.00832725 -0.00787136)
(2.28902 0.0205177 -0.0113377)
(1.10374 0.0613551 -0.0163296)
(0.420786 0.103435 -0.0183198)
(0.557011 0.114331 -0.0182978)
(0.608694 0.118527 -0.0182857)
(0.558137 0.123762 -0.0184924)
(0.464797 0.132107 -0.0186936)
(0.371459 0.142643 -0.0188799)
(0.295312 0.154254 -0.0191526)
(0.216852 0.164874 -0.019379)
(0.129208 0.172901 -0.0195766)
(0.0493303 0.176227 -0.0197102)
(3 5.43583e-08 -0.00571425)
(2.99999 3.00509e-07 -0.00571434)
(2.99997 1.11751e-06 -0.00571448)
(2.99993 2.86691e-06 -0.00571492)
(2.99983 7.88624e-06 -0.00571573)
(2.99957 1.80288e-05 -0.00571819)
(2.99905 4.70009e-05 -0.00572288)
(2.9975 0.000104487 -0.0057366)
(2.99451 0.000274162 -0.00576514)
(2.98495 0.000601779 -0.00583721)
(2.96682 0.00164994 -0.00603407)
(2.90376 0.00375144 -0.00641079)
(2.74307 0.0113282 -0.00780174)
(2.31349 0.0277421 -0.0111135)
(1.1462 0.0827768 -0.0162075)
(0.451849 0.1442 -0.0182066)
(0.564984 0.162401 -0.0181724)
(0.611886 0.166887 -0.0181683)
(0.563325 0.173709 -0.0183655)
(0.472966 0.186878 -0.0185557)
(0.381025 0.202957 -0.0187245)
(0.30458 0.219888 -0.018988)
(0.224869 0.235753 -0.0191956)
(0.134751 0.248137 -0.0193935)
(0.0515198 0.253177 -0.0195285)
(3 7.13515e-08 -0.00571425)
(2.99999 3.94476e-07 -0.00571434)
(2.99997 1.4647e-06 -0.00571447)
(2.99993 3.75697e-06 -0.00571489)
(2.99984 1.03079e-05 -0.00571566)
(2.99959 2.35424e-05 -0.00571802)
(2.99909 6.11412e-05 -0.0057225)
(2.99761 0.000135679 -0.00573564)
(2.99475 0.000354112 -0.0057629)
(2.9856 0.000776374 -0.00583193)
(2.96833 0.00209927 -0.00602023)
(2.90809 0.00481429 -0.00637822)
(2.75521 0.014098 -0.00771243)
(2.3447 0.0349566 -0.0108324)
(1.20242 0.102387 -0.0160475)
(0.493641 0.185709 -0.0180761)
(0.57472 0.212321 -0.018043)
(0.6141 0.214363 -0.0180592)
(0.570207 0.22186 -0.018236)
(0.485106 0.24067 -0.0183953)
(0.394874 0.262805 -0.0185387)
(0.318161 0.285376 -0.0187772)
(0.237188 0.307068 -0.0189873)
(0.143899 0.324865 -0.0191611)
(0.0557681 0.33265 -0.0192911)
(3 9.31714e-08 -0.00571425)
(2.99999 5.13978e-07 -0.00571433)
(2.99998 1.91346e-06 -0.00571446)
(2.99993 4.90632e-06 -0.00571485)
(2.99985 1.35228e-05 -0.00571558)
(2.99961 3.09287e-05 -0.0057178)
(2.99914 8.06489e-05 -0.00572202)
(2.99774 0.000180437 -0.00573444)
(2.99505 0.000458771 -0.00576009)
(2.9864 0.00108314 -0.00582541)
(2.97024 0.0025596 -0.00600339)
(2.91328 0.00646983 -0.00633708)
(2.77007 0.0168507 -0.00760998)
(2.38207 0.0426213 -0.0104786)
(1.2722 0.121305 -0.0158143)
(0.548305 0.231685 -0.0179165)
(0.585735 0.261095 -0.0178711)
(0.613474 0.260573 -0.0179249)
(0.579011 0.269225 -0.0180854)
(0.501859 0.293423 -0.0182073)
(0.413356 0.32278 -0.0183257)
(0.3364 0.352008 -0.0185373)
(0.254517 0.381102 -0.0187377)
(0.157285 0.406632 -0.0189055)
(0.0624216 0.419818 -0.0190461)
(3 1.15588e-07 -0.00571425)
(2.99999 6.36258e-07 -0.00571432)
(2.99998 2.37388e-06 -0.00571444)
(2.99994 6.10446e-06 -0.0057148)
(2.99986 1.68802e-05 -0.00571547)
(2.99965 3.88772e-05 -0.00571751)
(2.99921 0.000100541 -0.00572136)
(2.99792 0.000233494 -0.00573271)
(2.9955 0.000551409 -0.00575657)
(2.98734 0.00142723 -0.00581376)
(2.97288 0.00292615 -0.00598739)
(2.91949 0.00785833 -0.006273)
(2.78716 0.0187027 -0.00751753)
(2.42581 0.0502875 -0.00995688)
(1.36038 0.137842 -0.0155124)
(0.617113 0.282359 -0.0176975)
(0.596013 0.304038 -0.017748)
(0.613729 0.305776 -0.0177986)
(0.590638 0.319138 -0.0179139)
(0.523557 0.346142 -0.0180377)
(0.437592 0.38283 -0.0181226)
(0.36057 0.42025 -0.0183025)
(0.27884 0.459157 -0.0184688)
(0.177797 0.496065 -0.0186198)
(0.0736265 0.520011 -0.0187016)
(3 1.24319e-07 -0.00571424)
(2.99999 6.82981e-07 -0.00571431)
(2.99998 2.5421e-06 -0.00571442)
(2.99995 6.54442e-06 -0.00571474)
(2.99988 1.80483e-05 -0.00571533)
(2.99968 4.16504e-05 -0.00571714)
(2.9993 0.000106954 -0.00572062)
(2.99812 0.000250596 -0.00573029)
(2.99605 0.000587936 -0.00575298)
(2.98836 0.00147258 -0.0058)
(2.97567 0.00324287 -0.00597124)
(2.92589 0.00809782 -0.00621278)
(2.8074 0.020224 -0.00741694)
(2.47444 0.056562 -0.00946872)
(1.4607 0.153658 -0.0150765)
(0.694129 0.336243 -0.0173913)
(0.601839 0.345899 -0.0176351)
(0.618848 0.349581 -0.0176819)
(0.604769 0.369771 -0.0177306)
(0.547854 0.398925 -0.0178418)
(0.468345 0.441853 -0.0178912)
(0.393145 0.489387 -0.0179891)
(0.313233 0.541378 -0.018127)
(0.209815 0.595306 -0.0182103)
(0.0929078 0.641669 -0.0182947)
(3 1.27646e-07 -0.00571424)
(2.99999 6.94465e-07 -0.0057143)
(2.99998 2.57311e-06 -0.0057144)
(2.99995 6.61168e-06 -0.00571468)
(2.99989 1.815e-05 -0.00571521)
(2.99972 4.17831e-05 -0.00571679)
(2.99939 0.000107602 -0.0057199)
(2.99832 0.000246301 -0.00572818)
(2.99652 0.000612295 -0.00574903)
(2.98953 0.00138354 -0.00578881)
(2.97847 0.00367377 -0.00594762)
(2.93301 0.00803342 -0.00615507)
(2.83027 0.0233673 -0.00727831)
(2.5288 0.0596078 -0.00898143)
(1.58622 0.173866 -0.0144663)
(0.789437 0.393541 -0.0169763)
(0.607273 0.39055 -0.0175109)
(0.629307 0.391151 -0.0175401)
(0.624691 0.416833 -0.0175448)
(0.576417 0.449922 -0.0176176)
(0.506696 0.499255 -0.0176327)
(0.43698 0.55847 -0.0176947)
(0.362545 0.625785 -0.0177417)
(0.263133 0.706433 -0.0177178)
(0.129623 0.7996 -0.0176084)
(3 1.97431e-07 -0.00571424)
(2.99999 2.65747e-07 -0.00571429)
(2.99999 2.75762e-06 -0.00571437)
(2.99996 3.64151e-06 -0.00571462)
(2.99991 1.83969e-05 -0.00571507)
(2.99976 2.31958e-05 -0.00571641)
(2.99947 0.000110725 -0.00571916)
(2.99854 0.000118683 -0.00572598)
(2.99699 0.000719491 -0.00574485)
(2.9909 0.000427754 -0.00577785)
(2.98127 0.00527101 -0.00591879)
(2.94152 0.00206074 -0.00609586)
(2.85359 0.0356608 -0.00708367)
(2.58958 0.0408904 -0.00853722)
(1.75543 0.204194 -0.0135861)
(0.910565 0.450232 -0.0163858)
(0.622008 0.437048 -0.0173323)
(0.650304 0.433061 -0.017378)
(0.655078 0.459557 -0.0173474)
(0.614 0.498445 -0.017386)
(0.555624 0.553664 -0.0173587)
(0.494673 0.623516 -0.0173387)
(0.43401 0.712177 -0.0172765)
(0.356111 0.839511 -0.0170928)
(0.200398 1.05311 -0.0166273)
(3 7.30466e-09 -2.43089e-09)
(2.99999 3.98708e-08 -8.61453e-09)
(2.99997 1.47596e-07 -1.00875e-08)
(2.99992 3.79098e-07 -1.57388e-08)
(2.99982 1.0363e-06 -1.59099e-08)
(2.99954 2.3666e-06 -2.07371e-08)
(2.99898 6.13365e-06 -2.02789e-08)
(2.99734 1.35347e-05 -2.53935e-08)
(2.99417 3.59879e-05 -2.54793e-08)
(2.98396 7.57545e-05 -3.5345e-08)
(2.96463 0.000237201 -3.01001e-08)
(2.89699 0.000443812 -9.27258e-08)
(2.72344 0.00168493 -3.44608e-08)
(2.26366 0.00411422 -2.2363e-07)
(1.06259 0.0123997 -2.50597e-07)
(0.38665 0.0210129 -1.73254e-07)
(0.547514 0.0234566 -1.04681e-07)
(0.604204 0.0252181 -1.17106e-07)
(0.554087 0.0272072 -1.36747e-07)
(0.460037 0.0296738 -1.62927e-07)
(0.366375 0.0328863 -1.70223e-07)
(0.291416 0.0369777 -1.64486e-07)
(0.214926 0.0412623 -1.5925e-07)
(0.1293 0.0450726 -1.56375e-07)
(0.0514745 0.0486896 -1.60804e-07)
(3 2.27569e-08 -2.42808e-09)
(2.99999 1.24145e-07 -8.61617e-09)
(2.99997 4.6046e-07 -1.00861e-08)
(2.99992 1.18165e-06 -1.5739e-08)
(2.99982 3.24204e-06 -1.59075e-08)
(2.99955 7.40738e-06 -2.0733e-08)
(2.99899 1.92749e-05 -2.02678e-08)
(2.99736 4.26533e-05 -2.53652e-08)
(2.99422 0.000113101 -2.54327e-08)
(2.98412 0.000241886 -3.51425e-08)
(2.96494 0.000720772 -3.01167e-08)
(2.89812 0.00146364 -9.1712e-08)
(2.72683 0.00507684 -3.41527e-08)
(2.27195 0.0125019 -2.19868e-07)
(1.07547 0.0373579 -2.44296e-07)
(0.398009 0.0617852 -1.72366e-07)
(0.550871 0.0671889 -1.04259e-07)
(0.605752 0.0698854 -1.14533e-07)
(0.554958 0.0730305 -1.33274e-07)
(0.460562 0.0773988 -1.5864e-07)
(0.366574 0.0830757 -1.66524e-07)
(0.290886 0.0897577 -1.61366e-07)
(0.21354 0.0958643 -1.57305e-07)
(0.127291 0.100522 -1.55783e-07)
(0.0491149 0.10291 -1.61222e-07)
(3 3.90211e-08 -2.42305e-09)
(2.99999 2.12635e-07 -8.61731e-09)
(2.99997 7.9002e-07 -1.00857e-08)
(2.99992 2.02614e-06 -1.57388e-08)
(2.99983 5.5762e-06 -1.59055e-08)
(2.99955 1.27483e-05 -2.0729e-08)
(2.99901 3.32807e-05 -2.02593e-08)
(2.99742 7.39193e-05 -2.53399e-08)
(2.99433 0.000195035 -2.53999e-08)
(2.98446 0.000425287 -3.50123e-08)
(2.96566 0.00119634 -2.98939e-08)
(2.90042 0.00264813 -9.16917e-08)
(2.73358 0.00832754 -3.17923e-08)
(2.289 0.020519 -2.11425e-07)
(1.10372 0.0613584 -2.30841e-07)
(0.420772 0.103439 -1.69744e-07)
(0.557015 0.114333 -1.04857e-07)
(0.608699 0.118528 -1.10433e-07)
(0.558138 0.123762 -1.27431e-07)
(0.464792 0.132107 -1.51521e-07)
(0.371453 0.142642 -1.60416e-07)
(0.295312 0.154252 -1.58092e-07)
(0.216858 0.164873 -1.56489e-07)
(0.129213 0.172902 -1.55776e-07)
(0.049332 0.176233 -1.61994e-07)
(3 5.52374e-08 -2.41529e-09)
(2.99999 3.0095e-07 -8.61925e-09)
(2.99997 1.11799e-06 -1.00856e-08)
(2.99993 2.86717e-06 -1.57391e-08)
(2.99983 7.88631e-06 -1.59041e-08)
(2.99957 1.80284e-05 -2.07264e-08)
(2.99904 4.69997e-05 -2.02529e-08)
(2.9975 0.000104486 -2.53158e-08)
(2.99451 0.000274158 -2.53632e-08)
(2.98495 0.00060178 -3.48774e-08)
(2.96682 0.00164994 -2.96788e-08)
(2.90376 0.00375162 -9.02509e-08)
(2.74306 0.0113284 -2.98139e-08)
(2.31346 0.0277435 -2.01465e-07)
(1.14619 0.0827809 -2.18068e-07)
(0.451835 0.144203 -1.68074e-07)
(0.564987 0.162403 -1.05011e-07)
(0.611892 0.166889 -1.0366e-07)
(0.563327 0.173711 -1.19161e-07)
(0.472964 0.186878 -1.42436e-07)
(0.381021 0.202956 -1.49581e-07)
(0.304582 0.219885 -1.56376e-07)
(0.224875 0.235751 -1.5648e-07)
(0.134755 0.24814 -1.56869e-07)
(0.0515215 0.253185 -1.63562e-07)
(3 7.23997e-08 -2.40542e-09)
(2.99999 3.94863e-07 -8.62301e-09)
(2.99997 1.46484e-06 -1.00868e-08)
(2.99993 3.7564e-06 -1.57426e-08)
(2.99984 1.0306e-05 -1.59082e-08)
(2.99959 2.35382e-05 -2.07344e-08)
(2.99908 6.11313e-05 -2.02703e-08)
(2.99761 0.000135662 -2.53337e-08)
(2.99475 0.000354072 -2.54228e-08)
(2.9856 0.000776297 -3.48907e-08)
(2.96833 0.00209919 -2.98545e-08)
(2.90808 0.00481405 -8.8362e-08)
(2.7552 0.0140983 -2.80234e-08)
(2.34468 0.0349567 -1.88898e-07)
(1.2024 0.102392 -1.99229e-07)
(0.493628 0.185713 -1.66644e-07)
(0.574724 0.212322 -1.06673e-07)
(0.614107 0.214365 -9.334e-08)
(0.570211 0.221862 -1.08273e-07)
(0.485105 0.240671 -1.32681e-07)
(0.394871 0.262805 -1.42702e-07)
(0.318163 0.285372 -1.53226e-07)
(0.237194 0.307066 -1.57437e-07)
(0.143904 0.32487 -1.5989e-07)
(0.0557701 0.332661 -1.6693e-07)
(3 9.44594e-08 -2.39424e-09)
(2.99999 5.14234e-07 -8.62839e-09)
(2.99997 1.91277e-06 -1.00927e-08)
(2.99993 4.90368e-06 -1.5752e-08)
(2.99985 1.35149e-05 -1.59272e-08)
(2.99961 3.09106e-05 -2.07674e-08)
(2.99914 8.06015e-05 -2.03521e-08)
(2.99774 0.000180325 -2.54563e-08)
(2.99505 0.000458643 -2.57546e-08)
(2.98639 0.00108188 -3.55628e-08)
(2.97023 0.0025599 -2.96645e-08)
(2.91328 0.00646802 -9.30465e-08)
(2.77006 0.0168526 -1.79083e-08)
(2.38206 0.0426234 -2.03244e-07)
(1.27219 0.121312 -1.64516e-07)
(0.548288 0.231689 -1.71916e-07)
(0.585738 0.261099 -1.16033e-07)
(0.613484 0.260575 -7.56607e-08)
(0.579017 0.269226 -9.51663e-08)
(0.50186 0.293423 -1.23429e-07)
(0.413356 0.322779 -1.32144e-07)
(0.336403 0.352005 -1.49671e-07)
(0.254525 0.3811 -1.54988e-07)
(0.157291 0.406638 -1.59075e-07)
(0.0624235 0.419832 -1.69488e-07)
(3 1.17285e-07 -2.37956e-09)
(2.99999 6.35132e-07 -8.63805e-09)
(2.99998 2.37225e-06 -1.01076e-08)
(2.99994 6.09718e-06 -1.57795e-08)
(2.99986 1.68624e-05 -1.60051e-08)
(2.99964 3.88329e-05 -2.09229e-08)
(2.99921 0.000100443 -2.081e-08)
(2.99792 0.000233198 -2.65476e-08)
(2.9955 0.000551121 -2.56035e-08)
(2.98733 0.00142541 -5.63712e-08)
(2.97287 0.00292614 -3.24946e-09)
(2.91949 0.00785551 -1.22381e-07)
(2.78716 0.0187046 2.83389e-08)
(2.4258 0.0502895 -1.74829e-07)
(1.36039 0.13785 -1.29691e-07)
(0.617109 0.282364 -1.86726e-07)
(0.596026 0.304044 -9.49627e-08)
(0.613744 0.305778 -8.34897e-08)
(0.590651 0.319137 -9.21416e-08)
(0.523566 0.346141 -1.08658e-07)
(0.437597 0.382828 -1.27313e-07)
(0.360577 0.420246 -1.48742e-07)
(0.27885 0.459155 -1.56494e-07)
(0.177804 0.496072 -1.60333e-07)
(0.0736285 0.520028 -1.71524e-07)
(3 1.25831e-07 -2.36024e-09)
(2.99999 6.8127e-07 -8.67643e-09)
(2.99998 2.54184e-06 -1.01113e-08)
(2.99995 6.54102e-06 -1.5859e-08)
(2.99988 1.80453e-05 -1.6137e-08)
(2.99968 4.1644e-05 -2.12814e-08)
(2.9993 0.000106953 -2.14122e-08)
(2.99812 0.000250613 -2.92963e-08)
(2.99604 0.000587929 -2.57824e-08)
(2.98836 0.00147355 -6.45893e-08)
(2.97566 0.00324178 1.12405e-09)
(2.92589 0.00810015 -1.39138e-07)
(2.80739 0.0202201 5.90783e-08)
(2.47444 0.0565594 -1.8936e-07)
(1.46072 0.153654 -7.47756e-08)
(0.694135 0.336242 -1.92349e-07)
(0.601861 0.345902 -8.27518e-08)
(0.618869 0.349584 -7.84211e-08)
(0.604788 0.369771 -9.23997e-08)
(0.54787 0.398925 -1.00286e-07)
(0.468355 0.441852 -1.16985e-07)
(0.393154 0.489385 -1.46147e-07)
(0.313244 0.541379 -1.57605e-07)
(0.209822 0.595316 -1.63924e-07)
(0.0929101 0.64169 -1.73632e-07)
(3 1.25948e-07 -2.34911e-09)
(2.99999 6.91821e-07 -8.69341e-09)
(2.99998 2.56616e-06 -1.00906e-08)
(2.99995 6.59319e-06 -1.58366e-08)
(2.99989 1.81421e-05 -1.60095e-08)
(2.99972 4.17712e-05 -2.09946e-08)
(2.99938 0.000107625 -2.07343e-08)
(2.99832 0.000246456 -2.62445e-08)
(2.99652 0.000612434 -2.61973e-08)
(2.98953 0.00138504 -3.7876e-08)
(2.97846 0.00367294 -3.93238e-08)
(2.933 0.00803705 -6.53554e-08)
(2.83026 0.0233627 -5.66594e-08)
(2.52879 0.0596065 -1.65727e-07)
(1.5862 0.173857 -1.09666e-07)
(0.789423 0.393533 -2.03414e-07)
(0.607287 0.390551 -5.24226e-08)
(0.629323 0.391155 -5.66226e-08)
(0.624708 0.416835 -8.05295e-08)
(0.576435 0.449922 -8.88388e-08)
(0.506708 0.499254 -1.0635e-07)
(0.43699 0.55847 -1.38361e-07)
(0.362555 0.625789 -1.46915e-07)
(0.26314 0.706444 -1.60889e-07)
(0.129626 0.799625 -1.65869e-07)
(3 1.83596e-07 -2.39385e-09)
(2.99999 3.28761e-07 -8.69381e-09)
(2.99998 2.66182e-06 -1.01924e-08)
(2.99996 3.69017e-06 -1.60885e-08)
(2.99991 1.82892e-05 -1.59651e-08)
(2.99976 2.32488e-05 -2.13255e-08)
(2.99947 0.000110635 -2.0783e-08)
(2.99854 0.000118794 -2.67287e-08)
(2.99699 0.000719409 -2.59761e-08)
(2.99089 0.000428217 -3.86078e-08)
(2.98126 0.0052709 -3.97667e-08)
(2.94152 0.00206175 -6.38647e-08)
(2.85357 0.0356589 -6.15198e-08)
(2.58956 0.0408956 -1.53001e-07)
(1.75541 0.204185 -1.49211e-07)
(0.910541 0.450225 -2.45462e-07)
(0.622013 0.437045 -2.61618e-08)
(0.650312 0.433061 -3.66639e-08)
(0.655088 0.459557 -7.0672e-08)
(0.614013 0.498444 -8.11588e-08)
(0.555635 0.553664 -1.03671e-07)
(0.494682 0.623518 -1.19899e-07)
(0.434017 0.712181 -1.41875e-07)
(0.356117 0.839524 -1.6355e-07)
(0.200401 1.05314 -1.51924e-07)
(3 7.30467e-09 -2.82897e-13)
(2.99999 3.98708e-08 -1.59989e-12)
(2.99997 1.47597e-07 -3.03483e-12)
(2.99992 3.79099e-07 -6.18643e-12)
(2.99982 1.0363e-06 -8.61439e-12)
(2.99954 2.3666e-06 -1.43118e-11)
(2.99898 6.13365e-06 -1.72753e-11)
(2.99734 1.35347e-05 -2.66134e-11)
(2.99417 3.59879e-05 -3.23055e-11)
(2.98396 7.57544e-05 -4.71042e-11)
(2.96463 0.000237201 -8.65639e-11)
(2.89699 0.000443812 -9.37681e-11)
(2.72344 0.00168493 -4.42973e-10)
(2.26366 0.00411421 -9.8097e-10)
(1.06259 0.0123996 -2.33682e-09)
(0.38665 0.0210129 -2.68423e-09)
(0.547514 0.0234566 -2.90468e-09)
(0.604204 0.0252181 -4.18854e-09)
(0.554086 0.0272072 -4.86896e-09)
(0.460037 0.0296738 -5.69732e-09)
(0.366375 0.0328862 -5.93215e-09)
(0.291416 0.0369777 -5.75318e-09)
(0.214926 0.0412622 -5.09842e-09)
(0.129301 0.0450728 -5.89526e-09)
(0.0514766 0.0486896 -6.16288e-09)
(3 2.27569e-08 -2.82959e-13)
(2.99999 1.24145e-07 -1.60032e-12)
(2.99997 4.6046e-07 -3.03623e-12)
(2.99992 1.18165e-06 -6.1893e-12)
(2.99982 3.24204e-06 -8.62054e-12)
(2.99955 7.40739e-06 -1.43222e-11)
(2.99899 1.9275e-05 -1.7288e-11)
(2.99736 4.26533e-05 -2.66122e-11)
(2.99422 0.000113101 -3.22674e-11)
(2.98412 0.000241886 -4.65679e-11)
(2.96494 0.000720771 -8.59336e-11)
(2.89812 0.00146365 -8.74799e-11)
(2.72683 0.00507683 -4.29139e-10)
(2.27195 0.0125019 -9.41405e-10)
(1.07547 0.0373578 -2.26045e-09)
(0.39801 0.0617851 -2.61335e-09)
(0.550871 0.0671889 -2.82591e-09)
(0.605752 0.0698855 -4.06781e-09)
(0.554958 0.0730305 -4.72302e-09)
(0.460561 0.0773988 -5.53601e-09)
(0.366573 0.0830756 -5.77659e-09)
(0.290886 0.0897576 -5.6272e-09)
(0.21354 0.0958643 -5.03116e-09)
(0.127291 0.100522 -5.72626e-09)
(0.0491171 0.10291 -6.22963e-09)
(3 3.90211e-08 -2.83138e-13)
(2.99999 2.12636e-07 -1.6007e-12)
(2.99997 7.9002e-07 -3.03908e-12)
(2.99992 2.02614e-06 -6.19512e-12)
(2.99983 5.5762e-06 -8.6379e-12)
(2.99955 1.27483e-05 -1.43574e-11)
(2.99901 3.32807e-05 -1.73762e-11)
(2.99742 7.39194e-05 -2.67897e-11)
(2.99433 0.000195035 -3.25931e-11)
(2.98446 0.000425287 -4.73978e-11)
(2.96566 0.00119634 -8.40305e-11)
(2.90042 0.00264814 -9.50212e-11)
(2.73358 0.00832753 -3.97779e-10)
(2.289 0.020519 -8.83566e-10)
(1.10372 0.0613583 -2.13495e-09)
(0.420772 0.103439 -2.48044e-09)
(0.557014 0.114333 -2.67189e-09)
(0.608698 0.118528 -3.84942e-09)
(0.558138 0.123762 -4.46511e-09)
(0.464792 0.132107 -5.26277e-09)
(0.371453 0.142642 -5.50376e-09)
(0.295312 0.154252 -5.49195e-09)
(0.216858 0.164873 -4.99041e-09)
(0.129213 0.172903 -5.39913e-09)
(0.0493341 0.176233 -6.35672e-09)
(3 5.52374e-08 -2.8321e-13)
(2.99999 3.0095e-07 -1.60044e-12)
(2.99997 1.11799e-06 -3.04045e-12)
(2.99993 2.86717e-06 -6.19779e-12)
(2.99983 7.88631e-06 -8.64665e-12)
(2.99957 1.80284e-05 -1.43767e-11)
(2.99904 4.69997e-05 -1.74186e-11)
(2.9975 0.000104486 -2.68936e-11)
(2.99451 0.000274158 -3.27063e-11)
(2.98495 0.00060178 -4.78791e-11)
(2.96682 0.00164994 -8.30827e-11)
(2.90376 0.00375162 -9.53565e-11)
(2.74306 0.0113284 -3.80459e-10)
(2.31347 0.0277435 -8.18571e-10)
(1.14619 0.0827808 -1.9721e-09)
(0.451835 0.144203 -2.31973e-09)
(0.564987 0.162403 -2.49065e-09)
(0.611891 0.166889 -3.55338e-09)
(0.563327 0.173711 -4.12833e-09)
(0.472963 0.186878 -4.8817e-09)
(0.381021 0.202956 -5.0199e-09)
(0.304581 0.219884 -5.42012e-09)
(0.224875 0.235751 -4.94826e-09)
(0.134756 0.24814 -5.28828e-09)
(0.0515235 0.253186 -6.35404e-09)
(3 7.23997e-08 -2.83381e-13)
(2.99999 3.94864e-07 -1.60064e-12)
(2.99997 1.46484e-06 -3.04324e-12)
(2.99993 3.7564e-06 -6.20297e-12)
(2.99984 1.0306e-05 -8.65813e-12)
(2.99959 2.35382e-05 -1.43982e-11)
(2.99908 6.11314e-05 -1.74449e-11)
(2.99761 0.000135662 -2.69447e-11)
(2.99475 0.000354072 -3.26216e-11)
(2.9856 0.000776297 -4.76857e-11)
(2.96833 0.00209919 -8.10988e-11)
(2.90808 0.00481406 -9.06238e-11)
(2.7552 0.0140983 -3.55378e-10)
(2.34468 0.0349567 -7.32046e-10)
(1.2024 0.102392 -1.76876e-09)
(0.493628 0.185713 -2.12895e-09)
(0.574723 0.212322 -2.30439e-09)
(0.614106 0.214365 -3.23183e-09)
(0.57021 0.221862 -3.72217e-09)
(0.485104 0.240671 -4.43236e-09)
(0.39487 0.262805 -4.69582e-09)
(0.318163 0.285372 -5.1755e-09)
(0.237194 0.307066 -4.9078e-09)
(0.143905 0.32487 -5.29866e-09)
(0.055772 0.332662 -6.28588e-09)
(3 9.44595e-08 -2.83722e-13)
(2.99999 5.14235e-07 -1.60136e-12)
(2.99997 1.91277e-06 -3.0478e-12)
(2.99993 4.90368e-06 -6.21056e-12)
(2.99985 1.35149e-05 -8.67407e-12)
(2.99961 3.09106e-05 -1.44247e-11)
(2.99914 8.06016e-05 -1.74816e-11)
(2.99774 0.000180325 -2.70301e-11)
(2.99505 0.000458643 -3.26074e-11)
(2.98639 0.00108188 -4.81514e-11)
(2.97023 0.0025599 -7.74273e-11)
(2.91328 0.00646803 -1.01756e-10)
(2.77006 0.0168525 -3.10767e-10)
(2.38206 0.0426234 -7.07475e-10)
(1.27219 0.121312 -1.48478e-09)
(0.548288 0.231689 -1.91543e-09)
(0.585738 0.261099 -2.16397e-09)
(0.613484 0.260575 -2.86906e-09)
(0.579016 0.269226 -3.31027e-09)
(0.50186 0.293423 -4.02886e-09)
(0.413355 0.322779 -4.29596e-09)
(0.336403 0.352004 -4.97586e-09)
(0.254525 0.3811 -4.73812e-09)
(0.157291 0.406638 -5.21772e-09)
(0.0624253 0.419833 -6.06207e-09)
(3 1.17285e-07 -2.83854e-13)
(2.99999 6.35132e-07 -1.60107e-12)
(2.99998 2.37225e-06 -3.04695e-12)
(2.99994 6.09718e-06 -6.20806e-12)
(2.99986 1.68624e-05 -8.63217e-12)
(2.99964 3.8833e-05 -1.43238e-11)
(2.99921 0.000100443 -1.70553e-11)
(2.99792 0.000233198 -2.56149e-11)
(2.9955 0.000551121 -3.2995e-11)
(2.98733 0.00142541 -2.04441e-11)
(2.97287 0.00292613 -1.08322e-10)
(2.91949 0.00785551 -3.65563e-11)
(2.78716 0.0187046 -3.36471e-10)
(2.4258 0.0502895 -4.99848e-10)
(1.36039 0.13785 -1.24215e-09)
(0.617109 0.282364 -1.63141e-09)
(0.596025 0.304044 -2.06429e-09)
(0.613744 0.305778 -2.51842e-09)
(0.590651 0.319137 -2.93024e-09)
(0.523565 0.346141 -3.54982e-09)
(0.437596 0.382828 -4.1686e-09)
(0.360576 0.420246 -4.8875e-09)
(0.27885 0.459155 -4.78234e-09)
(0.177804 0.496072 -5.3607e-09)
(0.0736303 0.520029 -5.86941e-09)
(3 1.25831e-07 -2.84351e-13)
(2.99999 6.81268e-07 -1.60415e-12)
(2.99998 2.54184e-06 -3.05399e-12)
(2.99995 6.541e-06 -6.22042e-12)
(2.99988 1.80453e-05 -8.65186e-12)
(2.99968 4.16439e-05 -1.42943e-11)
(2.9993 0.000106953 -1.72634e-11)
(2.99812 0.000250612 -2.36402e-11)
(2.99604 0.000587928 -3.55952e-11)
(2.98836 0.00147354 -2.19442e-11)
(2.97566 0.00324178 -1.00017e-10)
(2.92589 0.00810013 -3.56967e-11)
(2.80739 0.0202201 -2.65967e-10)
(2.47444 0.0565594 -3.48251e-10)
(1.46072 0.153654 -9.14078e-10)
(0.694135 0.336242 -1.29196e-09)
(0.601861 0.345902 -1.87231e-09)
(0.618869 0.349584 -2.19267e-09)
(0.604788 0.369771 -2.99516e-09)
(0.54787 0.398925 -3.31194e-09)
(0.468355 0.441852 -3.84744e-09)
(0.393153 0.489384 -4.87274e-09)
(0.313244 0.541379 -4.99304e-09)
(0.209822 0.595316 -5.69733e-09)
(0.0929117 0.641691 -5.93968e-09)
(3 1.25948e-07 -2.87108e-13)
(2.99999 6.91819e-07 -1.61536e-12)
(2.99998 2.56615e-06 -3.0927e-12)
(2.99995 6.59316e-06 -6.31072e-12)
(2.99989 1.8142e-05 -8.88598e-12)
(2.99972 4.17711e-05 -1.48543e-11)
(2.99938 0.000107624 -1.83805e-11)
(2.99832 0.000246455 -2.7896e-11)
(2.99652 0.000612433 -3.53497e-11)
(2.98953 0.00138504 -5.07045e-11)
(2.97846 0.00367294 -6.6917e-11)
(2.933 0.00803704 -9.42556e-11)
(2.83026 0.0233628 -1.39879e-10)
(2.52879 0.0596065 -3.09083e-10)
(1.5862 0.173857 -4.22975e-10)
(0.789424 0.393534 -8.57643e-10)
(0.607286 0.390551 -1.76285e-09)
(0.629323 0.391155 -2.02684e-09)
(0.624708 0.416835 -2.84691e-09)
(0.576435 0.449922 -3.11692e-09)
(0.506708 0.499254 -3.60413e-09)
(0.43699 0.55847 -4.73913e-09)
(0.362555 0.625788 -4.85867e-09)
(0.263139 0.706444 -5.38408e-09)
(0.129627 0.799626 -5.74077e-09)
(3 1.83593e-07 -2.94016e-13)
(2.99999 3.28769e-07 -1.62767e-12)
(2.99998 2.6618e-06 -3.12624e-12)
(2.99996 3.69018e-06 -6.53656e-12)
(2.99991 1.82891e-05 -8.86403e-12)
(2.99976 2.32489e-05 -1.52694e-11)
(2.99947 0.000110635 -1.86739e-11)
(2.99854 0.000118794 -2.85075e-11)
(2.99699 0.000719408 -3.56287e-11)
(2.99089 0.000428217 -5.03657e-11)
(2.98126 0.0052709 -5.96596e-11)
(2.94152 0.00206175 -8.14293e-11)
(2.85357 0.0356589 -7.14286e-11)
(2.58956 0.0408956 -1.26083e-10)
(1.75541 0.204185 -1.24574e-10)
(0.910542 0.450225 -3.27888e-10)
(0.622013 0.437045 -1.62468e-09)
(0.650312 0.433061 -1.88397e-09)
(0.655088 0.459557 -2.72227e-09)
(0.614013 0.498444 -3.04685e-09)
(0.555635 0.553663 -3.71122e-09)
(0.494682 0.623517 -4.27426e-09)
(0.434017 0.712181 -4.88079e-09)
(0.356117 0.839524 -5.47092e-09)
(0.200402 1.05314 -5.19812e-09)
(3 7.30466e-09 -9.24794e-16)
(2.99999 3.98707e-08 -4.09928e-15)
(2.99997 1.47596e-07 -8.38031e-15)
(2.99992 3.79098e-07 -1.58086e-14)
(2.99982 1.0363e-06 -1.2214e-15)
(2.99954 2.3666e-06 1.3574e-14)
(2.99898 6.13365e-06 2.42245e-13)
(2.99734 1.35347e-05 5.65249e-13)
(2.99417 3.59879e-05 2.04703e-12)
(2.98396 7.57544e-05 5.36143e-12)
(2.96463 0.000237201 8.36291e-13)
(2.89699 0.000443812 6.3698e-11)
(2.72344 0.00168493 -5.48609e-11)
(2.26366 0.00411422 1.67456e-11)
(1.06259 0.0123997 -2.45744e-10)
(0.38665 0.0210129 -6.38085e-10)
(0.547514 0.0234566 -1.17472e-09)
(0.604204 0.0252181 -2.28313e-09)
(0.554086 0.0272072 -2.89971e-09)
(0.460037 0.0296737 -3.80841e-09)
(0.366375 0.0328862 -4.12955e-09)
(0.291415 0.0369776 -3.91806e-09)
(0.214926 0.0412622 -4.043e-09)
(0.129301 0.0450727 -3.78555e-09)
(0.0514773 0.0486897 -3.99716e-09)
(3 2.27569e-08 -1.17003e-15)
(2.99999 1.24145e-07 -5.30158e-15)
(2.99997 4.6046e-07 -1.17122e-14)
(2.99992 1.18165e-06 -2.29711e-14)
(2.99982 3.24203e-06 -1.61337e-14)
(2.99955 7.40738e-06 -1.45534e-14)
(2.99899 1.92749e-05 1.95129e-13)
(2.99736 4.26532e-05 5.11459e-13)
(2.99422 0.000113101 1.94308e-12)
(2.98412 0.000241885 5.91768e-12)
(2.96494 0.000720772 2.45333e-13)
(2.89812 0.00146364 7.15602e-11)
(2.72683 0.00507684 -4.78134e-11)
(2.27195 0.0125019 4.25606e-11)
(1.07546 0.0373579 -2.11703e-10)
(0.398009 0.0617852 -5.89226e-10)
(0.550871 0.0671889 -1.12069e-09)
(0.605752 0.0698854 -2.18798e-09)
(0.554958 0.0730305 -2.77995e-09)
(0.460561 0.0773987 -3.66868e-09)
(0.366573 0.0830756 -4.00926e-09)
(0.290886 0.0897576 -3.8326e-09)
(0.21354 0.0958642 -3.98862e-09)
(0.127291 0.100522 -3.80463e-09)
(0.0491177 0.10291 -3.99705e-09)
(3 3.90211e-08 -1.67857e-15)
(2.99999 2.12635e-07 -7.62291e-15)
(2.99997 7.9002e-07 -1.91877e-14)
(2.99992 2.02614e-06 -3.93418e-14)
(2.99983 5.5762e-06 -6.07671e-14)
(2.99955 1.27483e-05 -1.05844e-13)
(2.99901 3.32807e-05 -4.12774e-14)
(2.99742 7.39193e-05 3.19189e-14)
(2.99433 0.000195035 8.88945e-13)
(2.98446 0.000425286 3.2579e-12)
(2.96566 0.00119634 1.62513e-12)
(2.90041 0.00264813 4.46397e-11)
(2.73358 0.00832754 -1.08294e-11)
(2.289 0.020519 3.72605e-11)
(1.10372 0.0613584 -1.48173e-10)
(0.420772 0.103439 -4.92021e-10)
(0.557014 0.114333 -9.98724e-10)
(0.608698 0.118528 -2.01602e-09)
(0.558138 0.123762 -2.57252e-09)
(0.464792 0.132107 -3.44152e-09)
(0.371453 0.142642 -3.81006e-09)
(0.295312 0.154252 -3.74624e-09)
(0.216858 0.164873 -3.95205e-09)
(0.129213 0.172903 -3.84813e-09)
(0.0493347 0.176233 -3.96118e-09)
(3 5.52374e-08 -2.1116e-15)
(2.99999 3.0095e-07 -9.57575e-15)
(2.99997 1.11798e-06 -2.53539e-14)
(2.99993 2.86717e-06 -5.28292e-14)
(2.99983 7.88631e-06 -9.55852e-14)
(2.99957 1.80284e-05 -1.77693e-13)
(2.99904 4.69997e-05 -2.15164e-13)
(2.9975 0.000104486 -3.27205e-13)
(2.99451 0.000274158 1.02982e-13)
(2.98495 0.00060178 1.53934e-12)
(2.96682 0.00164994 -1.00778e-12)
(2.90376 0.00375162 3.65025e-11)
(2.74306 0.0113284 -1.43615e-11)
(2.31346 0.0277436 4.09252e-11)
(1.14618 0.0827809 -8.28068e-11)
(0.451835 0.144203 -3.67568e-10)
(0.564987 0.162403 -8.43515e-10)
(0.611891 0.166889 -1.77945e-09)
(0.563327 0.173711 -2.30088e-09)
(0.472963 0.186878 -3.14199e-09)
(0.381021 0.202956 -3.5044e-09)
(0.304581 0.219884 -3.7142e-09)
(0.224875 0.235751 -3.99175e-09)
(0.134756 0.24814 -3.91394e-09)
(0.051524 0.253186 -3.98211e-09)
(3 7.23996e-08 -2.71436e-15)
(2.99999 3.94863e-07 -1.24269e-14)
(2.99997 1.46483e-06 -3.38182e-14)
(2.99993 3.75639e-06 -7.11689e-14)
(2.99984 1.0306e-05 -1.39706e-13)
(2.99959 2.35382e-05 -2.66754e-13)
(2.99908 6.11313e-05 -4.15484e-13)
(2.99761 0.000135662 -7.24372e-13)
(2.99475 0.000354072 -7.31652e-13)
(2.9856 0.000776297 -5.55957e-14)
(2.96833 0.00209919 -4.0194e-12)
(2.90808 0.00481405 3.10275e-11)
(2.7552 0.0140983 -1.87279e-11)
(2.34468 0.0349567 5.03917e-11)
(1.2024 0.102392 -1.00652e-11)
(0.493627 0.185713 -2.11082e-10)
(0.574723 0.212322 -6.51519e-10)
(0.614106 0.214365 -1.53267e-09)
(0.57021 0.221862 -2.00684e-09)
(0.485104 0.240671 -2.8314e-09)
(0.39487 0.262804 -3.30441e-09)
(0.318163 0.285372 -3.60964e-09)
(0.237194 0.307066 -4.00409e-09)
(0.143905 0.32487 -3.99564e-09)
(0.0557724 0.332662 -4.08455e-09)
(3 9.44594e-08 -3.5088e-15)
(2.99999 5.14234e-07 -1.60074e-14)
(2.99997 1.91277e-06 -4.41811e-14)
(2.99993 4.90367e-06 -9.2929e-14)
(2.99985 1.35149e-05 -1.8956e-13)
(2.99961 3.09106e-05 -3.63849e-13)
(2.99914 8.06015e-05 -6.25605e-13)