/*--------------------------------*- C++ -*----------------------------------*\
| =========                 |                                                 |
| \\      /  F ield         | OpenFOAM: The Open Source CFD Toolbox           |
|  \\    /   O peration     | Version:  4.1                                   |
|   \\  /    A nd           | Web:      www.OpenFOAM.org                      |
|    \\/     M anipulation  |                                                 |
\*---------------------------------------------------------------------------*/
FoamFile
{
    version     2.0;
    format      ascii;
    class       volScalarField;
    location    "4.84";
    object      Ma;
}
// * * * * * * * * * * * * * * * * * * * * * * * * * * * * * * * * * * * * * //

dimensions      [0 0 0 0 0 0 0];

internalField   nonuniform List<scalar> 
52500
(
3.00002
2.99997
2.99991
2.99968
2.99936
2.99805
2.99617
2.98899
2.97696
2.93808
2.84916
2.6444
2.10038
1.26311
0.526397
0.278253
0.329197
0.344446
0.312277
0.257737
0.205355
0.163546
0.122456
0.0769618
0.043775
3.00002
2.99997
2.99992
2.99969
2.99937
2.99808
2.99623
2.98915
2.97728
2.93896
2.85128
2.64919
2.11094
1.27716
0.533552
0.278086
0.330422
0.346442
0.314484
0.260716
0.209649
0.169352
0.130519
0.0903
0.0664714
3.00002
2.99997
2.99992
2.9997
2.99939
2.99813
2.99633
2.98942
2.97793
2.94054
2.85575
2.65858
2.13628
1.30988
0.552008
0.281735
0.336252
0.353967
0.322785
0.271068
0.222933
0.186085
0.152161
0.120339
0.104595
3.00002
2.99997
2.99992
2.99971
2.99941
2.99821
2.99648
2.98984
2.97891
2.94298
2.86249
2.6729
2.1753
1.36151
0.580356
0.288258
0.345973
0.366535
0.336781
0.288039
0.243688
0.211106
0.182695
0.157891
0.146594
3.00002
2.99998
2.99993
2.99972
2.99944
2.99828
2.99665
2.99019
2.98012
2.94545
2.87269
2.69204
2.23072
1.43513
0.620469
0.301471
0.361386
0.385031
0.356691
0.311417
0.270831
0.242477
0.218951
0.19956
0.191323
3.00002
2.99998
2.99993
2.99974
2.99948
2.99839
2.99687
2.99075
2.98155
2.94859
2.88483
2.71507
2.29771
1.52961
0.672247
0.325121
0.38468
0.410255
0.383177
0.341136
0.30437
0.279956
0.261247
0.246807
0.24144
3.00002
2.99998
2.99994
2.99977
2.99952
2.99853
2.99713
2.99155
2.98315
2.95292
2.89657
2.73967
2.36988
1.64084
0.734722
0.36345
0.41917
0.443275
0.417241
0.378479
0.344952
0.324355
0.310123
0.301127
0.300991
3.00002
2.99999
2.99995
2.99979
2.99957
2.99867
2.9974
2.99232
2.98472
2.95712
2.90651
2.76251
2.42705
1.73333
0.790759
0.399003
0.448466
0.469699
0.449856
0.418602
0.390479
0.375009
0.367161
0.365977
0.375696
3.00002
2.99999
2.99996
2.99982
2.99962
2.99881
2.99768
2.99312
2.98636
2.9616
2.91593
2.78834
2.47533
1.84294
0.87108
0.456191
0.472544
0.485178
0.478954
0.458098
0.438673
0.430559
0.431315
0.444033
0.478233
3.00002
3
2.99997
2.99985
2.99969
2.99903
2.99805
2.99453
2.98822
2.96894
2.92379
2.81725
2.51813
1.95833
0.982758
0.528025
0.489491
0.502168
0.506683
0.496016
0.488045
0.489614
0.506039
0.547931
0.647841
3
2.99995
2.9999
2.99966
2.99934
2.99803
2.99615
2.98897
2.97693
2.93804
2.84912
2.64433
2.10031
1.26298
0.52626
0.278048
0.329011
0.344261
0.312071
0.257484
0.205034
0.163136
0.1219
0.0760605
0.0421459
3
2.99995
2.9999
2.99967
2.99935
2.99806
2.99621
2.98912
2.97725
2.93892
2.85124
2.64912
2.11087
1.27703
0.533417
0.277881
0.330236
0.346259
0.31428
0.260468
0.209337
0.16896
0.130003
0.0895426
0.0654257
3
2.99996
2.9999
2.99968
2.99937
2.99811
2.99631
2.9894
2.97791
2.94051
2.85571
2.65851
2.1362
1.30975
0.551878
0.281533
0.33607
0.353787
0.322587
0.27083
0.222642
0.185732
0.151724
0.119779
0.103943
3
2.99996
2.9999
2.99969
2.99939
2.99819
2.99646
2.98982
2.97889
2.94295
2.86245
2.67283
2.17523
1.36138
0.58023
0.288056
0.345793
0.36636
0.336589
0.287816
0.243422
0.210797
0.182335
0.157471
0.146137
3
2.99996
2.99991
2.99971
2.99942
2.99826
2.99663
2.99017
2.9801
2.94541
2.87267
2.69198
2.23069
1.43503
0.620372
0.301296
0.361226
0.384874
0.356519
0.311217
0.270597
0.242213
0.218655
0.199233
0.190979
3
2.99996
2.99992
2.99972
2.99946
2.99837
2.99685
2.99073
2.98152
2.94856
2.8848
2.71501
2.29766
1.5295
0.67215
0.324953
0.384531
0.410112
0.383022
0.340959
0.304167
0.279732
0.261004
0.246548
0.241173
3
2.99997
2.99992
2.99975
2.9995
2.99851
2.99711
2.99153
2.98313
2.95289
2.89654
2.73962
2.36982
1.64073
0.734625
0.363289
0.419028
0.443142
0.417099
0.378323
0.344777
0.324167
0.309923
0.30092
0.300782
3
2.99997
2.99993
2.99977
2.99955
2.99865
2.99738
2.9923
2.9847
2.95709
2.90649
2.76247
2.42701
1.73324
0.79068
0.398862
0.448343
0.46958
0.449729
0.418464
0.39033
0.374851
0.366998
0.365811
0.375533
3
2.99997
2.99994
2.9998
2.9996
2.99879
2.99766
2.9931
2.98634
2.96157
2.9159
2.78829
2.47531
1.84285
0.871
0.456059
0.472433
0.485068
0.47884
0.457976
0.438544
0.430426
0.431182
0.443902
0.478111
3
2.99998
2.99995
2.99983
2.99967
2.99901
2.99803
2.99451
2.9882
2.96891
2.92376
2.81721
2.5181
1.95825
0.98268
0.527905
0.489385
0.502064
0.506579
0.495907
0.487934
0.489501
0.50593
0.54783
0.647756
3
2.99995
2.9999
2.99966
2.99934
2.99803
2.99615
2.98897
2.97693
2.93804
2.84912
2.64433
2.1003
1.26298
0.526259
0.278049
0.329012
0.344261
0.312071
0.257485
0.205034
0.163137
0.121901
0.0760611
0.0421464
3
2.99995
2.9999
2.99967
2.99935
2.99806
2.99621
2.98912
2.97725
2.93892
2.85124
2.64912
2.11087
1.27703
0.533416
0.277882
0.330236
0.346259
0.31428
0.260468
0.209337
0.16896
0.130004
0.0895429
0.0654261
3
2.99996
2.9999
2.99968
2.99937
2.99811
2.99631
2.9894
2.97791
2.94051
2.85571
2.65851
2.1362
1.30975
0.551876
0.281533
0.33607
0.353787
0.322587
0.27083
0.222642
0.185732
0.151724
0.119779
0.103944
3
2.99996
2.9999
2.99969
2.99939
2.99819
2.99646
2.98982
2.97889
2.94295
2.86245
2.67283
2.17522
1.36137
0.580228
0.288057
0.345793
0.36636
0.336589
0.287816
0.243422
0.210797
0.182335
0.157471
0.146137
3
2.99996
2.99991
2.99971
2.99942
2.99826
2.99663
2.99017
2.9801
2.94541
2.87267
2.69198
2.23069
1.43502
0.62037
0.301296
0.361226
0.384874
0.356518
0.311216
0.270597
0.242212
0.218655
0.199233
0.19098
3
2.99996
2.99992
2.99972
2.99946
2.99837
2.99685
2.99073
2.98152
2.94856
2.8848
2.71501
2.29766
1.52949
0.672148
0.324953
0.38453
0.410112
0.383021
0.340958
0.304167
0.279732
0.261004
0.246548
0.241173
3
2.99997
2.99992
2.99975
2.9995
2.99851
2.99711
2.99153
2.98313
2.95289
2.89654
2.73961
2.36982
1.64072
0.734622
0.363288
0.419027
0.443141
0.417098
0.378322
0.344777
0.324167
0.309923
0.30092
0.300782
3
2.99997
2.99993
2.99977
2.99955
2.99865
2.99738
2.9923
2.9847
2.95709
2.90649
2.76246
2.42701
1.73324
0.790679
0.398862
0.448343
0.46958
0.449728
0.418463
0.390329
0.374851
0.366998
0.365811
0.375533
3
2.99997
2.99994
2.9998
2.9996
2.99879
2.99766
2.9931
2.98634
2.96157
2.9159
2.78829
2.47531
1.84284
0.870998
0.456058
0.472433
0.485068
0.478839
0.457976
0.438543
0.430425
0.431181
0.443902
0.478111
3
2.99998
2.99995
2.99983
2.99967
2.99901
2.99803
2.99451
2.9882
2.96891
2.92376
2.81721
2.5181
1.95825
0.982677
0.527904
0.489385
0.502064
0.506579
0.495907
0.487933
0.489501
0.505929
0.54783
0.647756
3
2.99995
2.9999
2.99966
2.99934
2.99803
2.99615
2.98897
2.97693
2.93804
2.84912
2.64433
2.1003
1.26298
0.526259
0.278049
0.329012
0.344261
0.312071
0.257485
0.205034
0.163137
0.121901
0.0760612
0.0421464
3
2.99995
2.9999
2.99967
2.99935
2.99806
2.99621
2.98912
2.97725
2.93892
2.85124
2.64912
2.11087
1.27703
0.533416
0.277882
0.330236
0.346259
0.31428
0.260468
0.209337
0.16896
0.130004
0.0895429
0.0654262
3
2.99996
2.9999
2.99968
2.99937
2.99811
2.99631
2.9894
2.97791
2.94051
2.85571
2.65851
2.1362
1.30974
0.551876
0.281533
0.33607
0.353787
0.322587
0.27083
0.222642
0.185732
0.151724
0.119779
0.103944
3
2.99996
2.9999
2.99969
2.99939
2.99819
2.99646
2.98982
2.97889
2.94295
2.86245
2.67283
2.17522
1.36137
0.580228
0.288057
0.345793
0.36636
0.336589
0.287816
0.243422
0.210797
0.182335
0.157471
0.146138
3
2.99996
2.99991
2.99971
2.99942
2.99826
2.99663
2.99017
2.9801
2.94541
2.87267
2.69198
2.23069
1.43502
0.62037
0.301296
0.361226
0.384874
0.356518
0.311216
0.270597
0.242212
0.218655
0.199233
0.19098
3
2.99996
2.99992
2.99972
2.99946
2.99837
2.99685
2.99073
2.98152
2.94856
2.8848
2.71501
2.29766
1.52949
0.672148
0.324953
0.38453
0.410112
0.383021
0.340958
0.304167
0.279732
0.261004
0.246548
0.241173
3
2.99997
2.99992
2.99975
2.9995
2.99851
2.99711
2.99153
2.98313
2.95289
2.89654
2.73961
2.36982
1.64072
0.734622
0.363288
0.419027
0.443141
0.417098
0.378322
0.344777
0.324167
0.309923
0.30092
0.300782
3
2.99997
2.99993
2.99977
2.99955
2.99865
2.99738
2.9923
2.9847
2.95709
2.90649
2.76246
2.42701
1.73323
0.790679
0.398862
0.448343
0.46958
0.449728
0.418463
0.390329
0.374851
0.366998
0.365811
0.375533
3
2.99997
2.99994
2.9998
2.9996
2.99879
2.99766
2.9931
2.98634
2.96157
2.9159
2.78829
2.47531
1.84284
0.870998
0.456058
0.472433
0.485068
0.478839
0.457976
0.438543
0.430426
0.431181
0.443902
0.478111
3
2.99998
2.99995
2.99983
2.99967
2.99901
2.99803
2.99451
2.9882
2.96891
2.92376
2.81721
2.5181
1.95825
0.982677
0.527904
0.489385
0.502064
0.506579
0.495907
0.487933
0.489501
0.505929
0.54783
0.647756
3
2.99995
2.9999
2.99966
2.99934
2.99803
2.99615
2.98897
2.97693
2.93804
2.84912
2.64433
2.1003
1.26297
0.526259
0.278049
0.329012
0.344261
0.312071
0.257485
0.205034
0.163137
0.121901
0.0760611
0.0421464
3
2.99995
2.9999
2.99967
2.99935
2.99806
2.99621
2.98912
2.97725
2.93892
2.85124
2.64912
2.11086
1.27703
0.533415
0.277882
0.330236
0.346259
0.31428
0.260468
0.209337
0.16896
0.130004
0.0895429
0.0654261
3
2.99996
2.9999
2.99968
2.99937
2.99811
2.99631
2.9894
2.97791
2.94051
2.85571
2.65851
2.1362
1.30974
0.551876
0.281533
0.33607
0.353787
0.322587
0.27083
0.222642
0.185732
0.151724
0.119779
0.103944
3
2.99996
2.9999
2.99969
2.99939
2.99819
2.99646
2.98982
2.97889
2.94295
2.86245
2.67283
2.17522
1.36137
0.580228
0.288057
0.345793
0.36636
0.336589
0.287816
0.243422
0.210797
0.182334
0.157471
0.146137
3
2.99996
2.99991
2.99971
2.99942
2.99826
2.99663
2.99017
2.9801
2.94541
2.87267
2.69198
2.23068
1.43502
0.620369
0.301296
0.361226
0.384874
0.356518
0.311216
0.270597
0.242212
0.218655
0.199233
0.19098
3
2.99996
2.99992
2.99972
2.99946
2.99837
2.99685
2.99073
2.98152
2.94856
2.8848
2.71501
2.29766
1.52949
0.672148
0.324953
0.38453
0.410111
0.383021
0.340958
0.304167
0.279731
0.261004
0.246548
0.241173
3
2.99997
2.99992
2.99975
2.9995
2.99851
2.99711
2.99153
2.98313
2.95289
2.89654
2.73961
2.36982
1.64072
0.734622
0.363288
0.419027
0.443141
0.417098
0.378322
0.344777
0.324167
0.309923
0.30092
0.300782
3
2.99997
2.99993
2.99977
2.99955
2.99865
2.99738
2.9923
2.9847
2.95709
2.90649
2.76246
2.42701
1.73323
0.790678
0.398862
0.448343
0.46958
0.449728
0.418463
0.390329
0.374851
0.366998
0.365811
0.375533
3
2.99997
2.99994
2.9998
2.9996
2.99879
2.99766
2.9931
2.98634
2.96157
2.9159
2.78829
2.47531
1.84284
0.870997
0.456058
0.472433
0.485068
0.478839
0.457976
0.438543
0.430425
0.431181
0.443902
0.478111
3
2.99998
2.99995
2.99983
2.99967
2.99901
2.99803
2.99451
2.9882
2.96891
2.92376
2.81721
2.5181
1.95824
0.982677
0.527904
0.489385
0.502064
0.506579
0.495907
0.487933
0.489501
0.505929
0.547829
0.647756
3
2.99995
2.9999
2.99966
2.99934
2.99803
2.99615
2.98897
2.97693
2.93804
2.84912
2.64433
2.1003
1.26297
0.526259
0.278049
0.329012
0.344261
0.312071
0.257485
0.205034
0.163137
0.121901
0.0760611
0.0421464
3
2.99995
2.9999
2.99967
2.99935
2.99806
2.99621
2.98912
2.97725
2.93892
2.85124
2.64912
2.11086
1.27703
0.533415
0.277882
0.330236
0.346259
0.31428
0.260468
0.209337
0.16896
0.130004
0.0895429
0.0654261
3
2.99996
2.9999
2.99968
2.99937
2.99811
2.99631
2.9894
2.97791
2.94051
2.85571
2.65851
2.1362
1.30974
0.551876
0.281533
0.33607
0.353787
0.322587
0.27083
0.222642
0.185732
0.151724
0.119779
0.103944
3
2.99996
2.9999
2.99969
2.99939
2.99819
2.99646
2.98982
2.97889
2.94295
2.86245
2.67283
2.17522
1.36137
0.580228
0.288057
0.345793
0.36636
0.336589
0.287816
0.243422
0.210797
0.182334
0.157471
0.146137
3
2.99996
2.99991
2.99971
2.99942
2.99826
2.99663
2.99017
2.9801
2.94541
2.87267
2.69198
2.23068
1.43502
0.620369
0.301296
0.361226
0.384874
0.356518
0.311216
0.270597
0.242212
0.218655
0.199233
0.19098
3
2.99996
2.99992
2.99972
2.99946
2.99837
2.99685
2.99073
2.98152
2.94856
2.8848
2.71501
2.29766
1.52949
0.672148
0.324953
0.38453
0.410111
0.383021
0.340958
0.304167
0.279731
0.261004
0.246548
0.241173
3
2.99997
2.99992
2.99975
2.9995
2.99851
2.99711
2.99153
2.98313
2.95289
2.89654
2.73961
2.36982
1.64072
0.734622
0.363288
0.419027
0.443141
0.417098
0.378322
0.344777
0.324167
0.309923
0.30092
0.300782
3
2.99997
2.99993
2.99977
2.99955
2.99865
2.99738
2.9923
2.9847
2.95709
2.90649
2.76246
2.42701
1.73323
0.790678
0.398862
0.448343
0.46958
0.449728
0.418463
0.390329
0.374851
0.366998
0.365811
0.375533
3
2.99997
2.99994
2.9998
2.9996
2.99879
2.99766
2.9931
2.98634
2.96157
2.9159
2.78829
2.47531
1.84284
0.870997
0.456058
0.472433
0.485068
0.478839
0.457976
0.438543
0.430425
0.431181
0.443902
0.478111
3
2.99998
2.99995
2.99983
2.99967
2.99901
2.99803
2.99451
2.9882
2.96891
2.92376
2.81721
2.5181
1.95824
0.982677
0.527904
0.489385
0.502064
0.506579
0.495907
0.487933
0.489501
0.505929
0.547829
0.647756
3
2.99995
2.9999
2.99966
2.99934
2.99803
2.99615
2.98897
2.97693
2.93804
2.84912
2.64433
2.1003
1.26298
0.526259
0.278049
0.329012
0.344261
0.312071
0.257485
0.205034
0.163137
0.121901
0.0760611
0.0421464
3
2.99995
2.9999
2.99967
2.99935
2.99806
2.99621
2.98912
2.97725
2.93892
2.85124
2.64912
2.11087
1.27703
0.533416
0.277882
0.330236
0.346259
0.31428
0.260468
0.209337
0.16896
0.130004
0.0895429
0.0654262
3
2.99996
2.9999
2.99968
2.99937
2.99811
2.99631
2.9894
2.97791
2.94051
2.85571
2.65851
2.1362
1.30974
0.551876
0.281533
0.33607
0.353787
0.322587
0.27083
0.222642
0.185732
0.151724
0.119779
0.103944
3
2.99996
2.9999
2.99969
2.99939
2.99819
2.99646
2.98982
2.97889
2.94295
2.86245
2.67283
2.17522
1.36137
0.580228
0.288057
0.345793
0.36636
0.336589
0.287816
0.243422
0.210797
0.182335
0.157471
0.146137
3
2.99996
2.99991
2.99971
2.99942
2.99826
2.99663
2.99017
2.9801
2.94541
2.87267
2.69198
2.23069
1.43502
0.62037
0.301296
0.361226
0.384874
0.356518
0.311216
0.270597
0.242212
0.218655
0.199233
0.19098
3
2.99996
2.99992
2.99972
2.99946
2.99837
2.99685
2.99073
2.98152
2.94856
2.8848
2.71501
2.29766
1.52949
0.672148
0.324953
0.38453
0.410112
0.383021
0.340958
0.304167
0.279732
0.261004
0.246548
0.241173
3
2.99997
2.99992
2.99975
2.9995
2.99851
2.99711
2.99153
2.98313
2.95289
2.89654
2.73961
2.36982
1.64072
0.734622
0.363288
0.419027
0.443141
0.417098
0.378322
0.344777
0.324167
0.309923
0.30092
0.300782
3
2.99997
2.99993
2.99977
2.99955
2.99865
2.99738
2.9923
2.9847
2.95709
2.90649
2.76246
2.42701
1.73323
0.790679
0.398862
0.448343
0.46958
0.449728
0.418463
0.390329
0.374851
0.366998
0.365811
0.375533
3
2.99997
2.99994
2.9998
2.9996
2.99879
2.99766
2.9931
2.98634
2.96157
2.9159
2.78829
2.47531
1.84284
0.870998
0.456058
0.472433
0.485068
0.478839
0.457976
0.438543
0.430425
0.431181
0.443902
0.478111
3
2.99998
2.99995
2.99983
2.99967
2.99901
2.99803
2.99451
2.9882
2.96891
2.92376
2.81721
2.5181
1.95825
0.982677
0.527904
0.489385
0.502064
0.506579
0.495907
0.487933
0.489501
0.505929
0.54783
0.647756
3
2.99995
2.9999
2.99966
2.99934
2.99803
2.99615
2.98897
2.97693
2.93804
2.84912
2.64433
2.1003
1.26298
0.526259
0.278049
0.329012
0.344261
0.312071
0.257485
0.205034
0.163137
0.121901
0.0760611
0.0421464
3
2.99995
2.9999
2.99967
2.99935
2.99806
2.99621
2.98912
2.97725
2.93892
2.85124
2.64912
2.11087
1.27703
0.533416
0.277882
0.330236
0.346259
0.31428
0.260468
0.209337
0.16896
0.130004
0.0895429
0.0654261
3
2.99996
2.9999
2.99968
2.99937
2.99811
2.99631
2.9894
2.97791
2.94051
2.85571
2.65851
2.1362
1.30975
0.551876
0.281533
0.33607
0.353787
0.322587
0.27083
0.222642
0.185732
0.151724
0.119779
0.103944
3
2.99996
2.9999
2.99969
2.99939
2.99819
2.99646
2.98982
2.97889
2.94295
2.86245
2.67283
2.17522
1.36137
0.580228
0.288057
0.345793
0.36636
0.336589
0.287816
0.243422
0.210797
0.182335
0.157471
0.146137
3
2.99996
2.99991
2.99971
2.99942
2.99826
2.99663
2.99017
2.9801
2.94541
2.87267
2.69198
2.23069
1.43502
0.62037
0.301296
0.361226
0.384874
0.356518
0.311216
0.270597
0.242212
0.218655
0.199233
0.19098
3
2.99996
2.99992
2.99972
2.99946
2.99837
2.99685
2.99073
2.98152
2.94856
2.8848
2.71501
2.29766
1.52949
0.672148
0.324953
0.38453
0.410112
0.383021
0.340958
0.304167
0.279732
0.261004
0.246548
0.241173
3
2.99997
2.99992
2.99975
2.9995
2.99851
2.99711
2.99153
2.98313
2.95289
2.89654
2.73961
2.36982
1.64072
0.734622
0.363288
0.419027
0.443141
0.417098
0.378322
0.344777
0.324167
0.309923
0.30092
0.300782
3
2.99997
2.99993
2.99977
2.99955
2.99865
2.99738
2.9923
2.9847
2.95709
2.90649
2.76246
2.42701
1.73324
0.790679
0.398862
0.448343
0.46958
0.449728
0.418463
0.390329
0.374851
0.366998
0.365811
0.375533
3
2.99997
2.99994
2.9998
2.9996
2.99879
2.99766
2.9931
2.98634
2.96157
2.9159
2.78829
2.47531
1.84284
0.870998
0.456058
0.472433
0.485068
0.478839
0.457976
0.438543
0.430425
0.431181
0.443902
0.478111
3
2.99998
2.99995
2.99983
2.99967
2.99901
2.99803
2.99451
2.9882
2.96891
2.92376
2.81721
2.5181
1.95825
0.982677
0.527904
0.489385
0.502064
0.506579
0.495907
0.487933
0.489501
0.505929
0.54783
0.647756
3
2.99995
2.9999
2.99966
2.99934
2.99803
2.99615
2.98897
2.97693
2.93804
2.84912
2.64433
2.10031
1.26298
0.52626
0.278048
0.329011
0.344261
0.312071
0.257484
0.205034
0.163136
0.1219
0.0760605
0.0421459
3
2.99995
2.9999
2.99967
2.99935
2.99806
2.99621
2.98912
2.97725
2.93892
2.85124
2.64912
2.11087
1.27703
0.533417
0.277881
0.330236
0.346259
0.31428
0.260468
0.209337
0.16896
0.130003
0.0895426
0.0654257
3
2.99996
2.9999
2.99968
2.99937
2.99811
2.99631
2.9894
2.97791
2.94051
2.85571
2.65851
2.1362
1.30975
0.551878
0.281533
0.33607
0.353787
0.322587
0.27083
0.222642
0.185732
0.151724
0.119779
0.103943
3
2.99996
2.9999
2.99969
2.99939
2.99819
2.99646
2.98982
2.97889
2.94295
2.86245
2.67283
2.17523
1.36138
0.58023
0.288056
0.345793
0.36636
0.336589
0.287816
0.243422
0.210797
0.182335
0.157471
0.146137
3
2.99996
2.99991
2.99971
2.99942
2.99826
2.99663
2.99017
2.9801
2.94541
2.87267
2.69198
2.23069
1.43503
0.620372
0.301296
0.361226
0.384874
0.356519
0.311217
0.270597
0.242213
0.218655
0.199233
0.190979
3
2.99996
2.99992
2.99972
2.99946
2.99837
2.99685
2.99073
2.98152
2.94856
2.8848
2.71501
2.29766
1.5295
0.67215
0.324953
0.384531
0.410112
0.383022
0.340959
0.304167
0.279732
0.261004
0.246548
0.241173
3
2.99997
2.99992
2.99975
2.9995
2.99851
2.99711
2.99153
2.98313
2.95289
2.89654
2.73962
2.36982
1.64073
0.734625
0.363289
0.419028
0.443142
0.417099
0.378323
0.344777
0.324167
0.309923
0.30092
0.300782
3
2.99997
2.99993
2.99977
2.99955
2.99865
2.99738
2.9923
2.9847
2.95709
2.90649
2.76247
2.42701
1.73324
0.79068
0.398862
0.448343
0.46958
0.449729
0.418464
0.39033
0.374851
0.366998
0.365811
0.375533
3
2.99997
2.99994
2.9998
2.9996
2.99879
2.99766
2.9931
2.98634
2.96157
2.9159
2.78829
2.47531
1.84285
0.871
0.456059
0.472433
0.485068
0.47884
0.457976
0.438544
0.430426
0.431182
0.443902
0.478111
3
2.99998
2.99995
2.99983
2.99967
2.99901
2.99803
2.99451
2.9882
2.96891
2.92376
2.81721
2.5181
1.95825
0.98268
0.527905
0.489385
0.502064
0.506579
0.495907
0.487934
0.489501
0.50593
0.54783
0.647756
3.00002
2.99997
2.99991
2.99968
2.99936
2.99805
2.99617
2.98899
2.97696
2.93808
2.84916
2.6444
2.10038
1.26311
0.526397
0.278253
0.329197
0.344446
0.312277
0.257737
0.205355
0.163546
0.122456
0.0769619
0.043775
3.00002
2.99997
2.99992
2.99969
2.99937
2.99808
2.99623
2.98915
2.97728
2.93896
2.85128
2.64919
2.11094
1.27716
0.533552
0.278086
0.330422
0.346442
0.314484
0.260716
0.209649
0.169352
0.130519
0.0903
0.0664714
3.00002
2.99997
2.99992
2.9997
2.99939
2.99813
2.99633
2.98942
2.97793
2.94054
2.85575
2.65858
2.13628
1.30988
0.552008
0.281735
0.336252
0.353967
0.322785
0.271068
0.222933
0.186085
0.152161
0.120339
0.104595
3.00002
2.99997
2.99992
2.99971
2.99941
2.99821
2.99648
2.98984
2.97891
2.94298
2.86249
2.6729
2.1753
1.36151
0.580356
0.288258
0.345973
0.366535
0.336781
0.288039
0.243688
0.211106
0.182695
0.157891
0.146594
3.00002
2.99998
2.99993
2.99972
2.99944
2.99828
2.99665
2.99019
2.98012
2.94545
2.87269
2.69204
2.23072
1.43513
0.620469
0.301471
0.361386
0.385031
0.356691
0.311417
0.270831
0.242477
0.218951
0.19956
0.191323
3.00002
2.99998
2.99993
2.99974
2.99948
2.99839
2.99687
2.99075
2.98155
2.94859
2.88483
2.71507
2.29771
1.52961
0.672247
0.325121
0.38468
0.410255
0.383177
0.341136
0.30437
0.279956
0.261247
0.246808
0.241441
3.00002
2.99998
2.99994
2.99977
2.99952
2.99853
2.99713
2.99155
2.98315
2.95292
2.89657
2.73967
2.36988
1.64084
0.734722
0.36345
0.41917
0.443275
0.417241
0.378479
0.344952
0.324355
0.310123
0.301127
0.300991
3.00002
2.99999
2.99995
2.99979
2.99957
2.99867
2.9974
2.99232
2.98472
2.95712
2.90651
2.76251
2.42705
1.73333
0.790759
0.399003
0.448466
0.469699
0.449856
0.418602
0.390479
0.375009
0.367161
0.365977
0.375696
3.00002
2.99999
2.99996
2.99982
2.99962
2.99881
2.99768
2.99312
2.98636
2.9616
2.91593
2.78834
2.47533
1.84294
0.87108
0.456191
0.472544
0.485178
0.478954
0.458098
0.438673
0.430559
0.431316
0.444033
0.478234
3.00002
3
2.99997
2.99985
2.99969
2.99903
2.99805
2.99453
2.98822
2.96894
2.92379
2.81725
2.51813
1.95833
0.982758
0.528026
0.489491
0.502168
0.506683
0.496016
0.488046
0.489614
0.506039
0.547931
0.647841
3.00002
3.00001
2.99996
2.9999
2.99965
2.99928
2.99785
2.99568
2.98789
2.97388
2.93118
2.82991
2.60448
2.02207
1.16048
0.617229
0.51286
0.525403
0.536489
0.534911
0.53635
0.550218
0.588241
0.671289
0.846901
3.00002
3.00001
2.99997
2.99991
2.99969
2.99938
2.99812
2.99631
2.98941
2.97787
2.94058
2.85572
2.65949
2.14072
1.3268
0.708365
0.535518
0.55
0.567645
0.574833
0.584948
0.611297
0.66679
0.769263
0.952881
3.00002
3.00001
2.99998
2.99993
2.99974
2.99947
2.99837
2.99682
2.99061
2.98128
2.94813
2.88226
2.71177
2.28643
1.52647
0.816751
0.571121
0.583907
0.602446
0.615758
0.632231
0.666532
0.73016
0.831196
0.987688
3.00002
3.00001
2.99999
2.99995
2.99979
2.99956
2.99866
2.99737
2.99227
2.98465
2.95695
2.90694
2.76257
2.43937
1.75757
0.938628
0.627217
0.631658
0.64608
0.662176
0.681319
0.718059
0.780123
0.870215
1.00072
3.00002
3.00002
2.99999
2.99996
2.99983
2.99965
2.99893
2.99788
2.99382
2.98756
2.96555
2.92376
2.80905
2.52801
1.94464
1.05823
0.691891
0.672203
0.686266
0.703651
0.725232
0.761432
0.822067
0.901169
1.00991
3.00002
3.00002
3.00001
2.99996
2.9999
2.99967
2.99932
2.99799
2.99596
2.98881
2.97561
2.93668
2.84237
2.63566
2.0851
1.27208
0.796038
0.707738
0.720222
0.738549
0.76389
0.798709
0.853329
0.926601
1.01947
3.00002
3.00002
3.00001
2.99997
2.99993
2.99973
2.99945
2.99832
2.99673
2.99044
2.98072
2.94726
2.87775
2.70553
2.26822
1.51543
0.916004
0.742956
0.748832
0.768211
0.798415
0.833893
0.882092
0.947489
1.02822
3.00002
3.00002
3.00001
2.99999
2.99995
2.9998
2.99958
2.99871
2.99746
2.9926
2.98516
2.9588
2.91017
2.77164
2.46267
1.79595
1.07058
0.80308
0.789241
0.802946
0.830151
0.866223
0.910605
0.968449
1.03894
3.00002
3.00002
3.00001
3
2.99996
2.99989
2.99962
2.99923
2.99771
2.99545
2.98718
2.973
2.92853
2.82728
2.59986
2.04164
1.24961
0.877298
0.830527
0.841536
0.864244
0.897373
0.936453
0.986895
1.04873
3.00003
3.00002
3.00002
3.00001
2.99997
2.99992
2.99972
2.99943
2.99828
2.9966
2.99038
2.97977
2.94627
2.87008
2.69376
2.23579
1.48382
0.989574
0.869483
0.873161
0.893808
0.926429
0.963502
1.00684
1.06027
3.00003
3.00003
3.00002
3.00001
3
2.99994
2.99985
2.99951
2.999
2.99716
2.99408
2.98415
2.96323
2.90876
2.76666
2.47978
1.80215
1.16504
0.930735
0.911743
0.923822
0.951222
0.987362
1.02769
1.07354
3.00003
3.00003
3.00002
3.00002
3
2.99996
2.99989
2.99964
2.99927
2.99782
2.9957
2.98777
2.97465
2.93252
2.83858
2.62622
2.09765
1.35363
1.0081
0.951751
0.958664
0.979825
1.01171
1.04921
1.09082
3.00003
3.00003
3.00003
3.00002
3.00001
2.99999
2.99992
2.99981
2.9994
2.99878
2.99657
2.99271
2.98078
2.95409
2.88803
2.71175
2.36614
1.60776
1.13977
0.997668
0.991913
1.00462
1.03196
1.06773
1.1071
3.00003
3.00003
3.00003
3.00002
3.00001
3
2.99995
2.99987
2.99956
2.99912
2.99737
2.99486
2.98525
2.96998
2.92031
2.8173
2.56265
2.02385
1.32657
1.06953
1.03403
1.03843
1.05836
1.08931
1.1249
3.00003
3.00003
3.00003
3.00002
3.00002
3.00001
2.99998
2.99989
2.99977
2.99927
2.99854
2.9958
2.99154
2.97696
2.94923
2.8728
2.68594
2.29631
1.5572
1.1682
1.07119
1.06819
1.08196
1.10861
1.14269
3.00003
3.00003
3.00003
3.00003
3.00002
3.00001
3
2.99994
2.99985
2.99951
2.99902
2.99712
2.99434
2.98413
2.96697
2.91397
2.79425
2.5333
1.93422
1.34735
1.13197
1.10526
1.11117
1.132
1.16171
3.00003
3.00003
3.00003
3.00003
3.00002
3.00002
3
2.99998
2.99988
2.99974
2.99921
2.99841
2.99546
2.99085
2.975
2.94575
2.86447
2.67598
2.25326
1.55997
1.2208
1.14315
1.14054
1.15409
1.17923
3.00003
3.00003
3.00003
3.00003
3.00003
3.00002
3.00001
3
2.99993
2.99984
2.99948
2.99897
2.99699
2.99408
2.98344
2.9656
2.91075
2.78783
2.51836
1.91939
1.38962
1.20009
1.17445
1.18025
1.19963
3.00003
3.00003
3.00003
3.00003
3.00003
3.00002
3.00002
3
2.99998
2.99988
2.99973
2.99919
2.99838
2.99541
2.99065
2.97474
2.94535
2.86103
2.68425
2.23799
1.6124
1.2958
1.21767
1.21139
1.22061
3.00003
3.00003
3.00003
3.00003
3.00003
3.00003
3.00002
3.00001
2.99999
2.99995
2.9998
2.99958
2.99877
2.99755
2.99308
2.98598
2.96244
2.91747
2.7984
2.52752
1.95999
1.44791
1.27076
1.24416
1.24721
3.00003
3.00003
3.00003
3.00003
3.00003
3.00003
3.00002
3.00002
3
2.99998
2.99988
2.99975
2.99922
2.99846
2.99556
2.99121
2.97582
2.94922
2.87041
2.70572
2.30528
1.68565
1.3663
1.28373
1.27467
3.00003
3.00003
3.00003
3.00003
3.00003
3.00003
3.00003
3.00002
3.00002
2.99999
2.99995
2.99982
2.99962
2.99888
2.99776
2.99373
2.9873
2.96617
2.92633
2.81897
2.58462
2.06193
1.53471
1.33723
1.30845
3.00003
3.00003
3.00003
3.00003
3.00003
3.00003
3.00003
3.00002
3.00002
3.00001
2.99998
2.9999
2.99977
2.9993
2.99862
2.99602
2.99225
2.97829
2.95598
2.88553
2.74157
2.39781
1.78194
1.43589
1.34166
3.00003
3.00003
3.00003
3.00003
3.00003
3.00003
3.00003
3.00003
3.00002
3.00001
3
2.99995
2.99988
2.99959
2.99919
2.99764
2.9954
2.98712
2.97407
2.9319
2.85031
2.64194
2.20588
1.63692
1.40757
3.00003
3.00003
3.00003
3.00003
3.00003
3.00003
3.00003
3.00003
3.00003
3.00002
3.00001
2.99998
2.99994
2.99977
2.99952
2.99858
2.99723
2.99215
2.98438
2.958
2.90824
2.78054
2.4743
1.9091
1.52677
3.00003
3.00003
3.00003
3.00003
3.00003
3.00003
3.00003
3.00003
3.00003
3.00003
3.00002
3.00001
2.99996
2.9999
2.99967
2.99933
2.99809
2.99619
2.98956
2.97844
2.94425
2.87115
2.70429
2.30547
1.7378
3.00003
3.00003
3.00003
3.00003
3.00003
3.00003
3.00003
3.00003
3.00003
3.00003
3.00002
3.00001
3
2.99994
2.99986
2.99955
2.99908
2.99741
2.99481
2.98607
2.97051
2.92593
2.82465
2.6104
2.11544
3.00003
3.00003
3.00003
3.00003
3.00003
3.00003
3.00003
3.00003
3.00003
3.00003
3.00003
3.00002
3.00001
2.99999
2.99991
2.99979
2.99936
2.99872
2.99642
2.99281
2.98072
2.95899
2.89767
2.76592
2.45054
3.00003
3.00003
3.00003
3.00003
3.00003
3.00003
3.00003
3.00003
3.00003
3.00003
3.00003
3.00002
3.00002
3
2.99996
2.99989
2.99964
2.99928
2.99794
2.99597
2.98881
2.9775
2.94121
2.87111
2.69417
3.00003
3.00003
3.00003
3.00003
3.00003
3.00003
3.00003
3.00003
3.00003
3.00003
3.00003
3.00003
3.00002
3.00001
3
2.99994
2.99985
2.99953
2.99905
2.99735
2.99471
2.9857
2.97036
2.9254
2.82966
3.00003
3.00003
3.00003
3.00003
3.00003
3.00003
3.00003
3.00003
3.00003
3.00003
3.00003
3.00003
3.00003
3.00002
3.00001
2.99999
2.99991
2.99979
2.99937
2.99873
2.99649
2.99289
2.98122
2.9601
2.90017
3.00003
3.00003
3.00003
3.00003
3.00003
3.00003
3.00003
3.00003
3.00003
3.00003
3.00003
3.00003
3.00003
3.00002
3.00002
3
2.99997
2.99987
2.99971
2.99915
2.9983
2.99534
2.99056
2.9752
2.94725
3.00003
3.00003
3.00003
3.00003
3.00003
3.00003
3.00003
3.00003
3.00003
3.00003
3.00003
3.00003
3.00003
3.00003
3.00002
3.00001
2.99999
2.99993
2.99984
2.9995
2.99901
2.9972
2.99447
2.985
2.96948
3.00003
3.00003
3.00003
3.00003
3.00003
3.00003
3.00003
3.00003
3.00003
3.00003
3.00003
3.00003
3.00003
3.00003
3.00002
3.00002
3
2.99998
2.99988
2.99973
2.9992
2.9984
2.9955
2.99098
2.97561
3.00003
3.00003
3.00003
3.00003
3.00003
3.00003
3.00003
3.00003
3.00003
3.00003
3.00003
3.00003
3.00003
3.00003
3.00003
3.00002
3.00001
2.99998
2.99993
2.99974
2.99946
2.9984
2.99681
2.99097
2.98146
3.00003
3.00003
3.00003
3.00003
3.00003
3.00003
3.00003
3.00003
3.00003
3.00003
3.00003
3.00003
3.00003
3.00003
3.00003
3.00002
3.00001
2.99999
2.99993
2.99983
2.99945
2.99887
2.99686
2.99314
2.98213
3.00003
3.00003
3.00003
3.00003
3.00003
3.00003
3.00003
3.00003
3.00003
3.00003
3.00003
3.00003
3.00003
3.00003
3.00003
3.00002
3.00001
2.99998
2.99994
2.99977
2.99952
2.99855
2.99713
2.99162
2.98294
3.00003
3.00003
3.00003
3.00003
3.00003
3.00003
3.00003
3.00003
3.00003
3.00003
3.00003
3.00003
3.00003
3.00003
3.00003
3.00002
3.00001
2.99999
2.99994
2.99978
2.99954
2.99859
2.9972
2.99179
2.98326
3.00003
3.00003
3.00003
3.00003
3.00003
3.00003
3.00003
3.00003
3.00003
3.00003
3.00003
3.00003
3.00003
3.00003
3.00003
3.00002
3.00001
3
2.99993
2.99984
2.99947
2.99892
2.9969
2.99347
2.98245
3.00003
3.00003
3.00003
3.00003
3.00003
3.00003
3.00003
3.00003
3.00003
3.00003
3.00003
3.00003
3.00003
3.00003
3.00003
3.00002
3.00001
2.99999
2.99993
2.99983
2.99944
2.9989
2.99669
2.99345
2.98151
3
2.99999
2.99994
2.99988
2.99963
2.99926
2.99783
2.99566
2.98786
2.97386
2.93115
2.82988
2.60442
2.02202
1.16038
0.61712
0.512756
0.525304
0.536391
0.534812
0.536252
0.550122
0.588151
0.671212
0.846845
3
2.99999
2.99995
2.9999
2.99967
2.99936
2.9981
2.99629
2.98938
2.97784
2.94054
2.85569
2.65943
2.14067
1.32669
0.708267
0.535415
0.5499
0.56755
0.574742
0.58486
0.611214
0.666714
0.769197
0.952828
3
2.99999
2.99996
2.99991
2.99972
2.99945
2.99835
2.9968
2.99059
2.98125
2.94809
2.88225
2.71172
2.2864
1.52638
0.816673
0.571023
0.583811
0.602356
0.615673
0.63215
0.666457
0.730092
0.831136
0.987637
3
3
2.99997
2.99993
2.99977
2.99954
2.99863
2.99735
2.99225
2.98462
2.95692
2.90691
2.76253
2.43933
1.7575
0.938559
0.627125
0.631573
0.645999
0.662099
0.681246
0.71799
0.78006
0.870158
1.00067
3
3
2.99997
2.99994
2.99981
2.99963
2.99891
2.99786