/*--------------------------------*- C++ -*----------------------------------*\
| =========                 |                                                 |
| \\      /  F ield         | OpenFOAM: The Open Source CFD Toolbox           |
|  \\    /   O peration     | Version:  4.1                                   |
|   \\  /    A nd           | Web:      www.OpenFOAM.org                      |
|    \\/     M anipulation  |                                                 |
\*---------------------------------------------------------------------------*/
FoamFile
{
    version     2.0;
    format      ascii;
    class       volScalarField;
    location    "0.76";
    object      Ma;
}
// * * * * * * * * * * * * * * * * * * * * * * * * * * * * * * * * * * * * * //

dimensions      [0 0 0 0 0 0 0];

internalField   nonuniform List<scalar> 
52500
(
4.07954
1.4369
0.32877
0.0153952
0.312341
0.318883
0.2793
0.276874
0.310769
0.326973
0.335113
0.356142
0.372901
0.380019
0.375566
0.352093
0.319601
0.286743
0.260018
0.233617
0.211715
0.190538
0.163745
0.10113
0.052705
4.06648
1.45641
0.337456
0.0368493
0.312865
0.319934
0.280576
0.277455
0.310644
0.326795
0.335578
0.357107
0.374456
0.382168
0.378356
0.355567
0.323566
0.290926
0.264447
0.238889
0.217793
0.197328
0.171649
0.113205
0.073275
4.03221
1.49878
0.356427
0.0616299
0.315541
0.324571
0.285876
0.282368
0.314902
0.331281
0.340651
0.36204
0.379621
0.387479
0.384111
0.362421
0.331528
0.299949
0.274525
0.251061
0.232059
0.213572
0.190696
0.140881
0.11128
3.97895
1.56185
0.383508
0.0875718
0.319403
0.331824
0.294071
0.289567
0.320855
0.337671
0.347653
0.368802
0.386508
0.394473
0.391923
0.372054
0.342878
0.312868
0.288928
0.268402
0.252513
0.236811
0.217512
0.176235
0.153347
3.91042
1.64189
0.41791
0.115412
0.323809
0.340884
0.304597
0.298305
0.328145
0.346161
0.356712
0.377224
0.395209
0.40335
0.401794
0.384276
0.357089
0.329059
0.307005
0.290137
0.278071
0.265426
0.24999
0.216117
0.198029
3.82565
1.73441
0.459113
0.146109
0.327731
0.351163
0.31706
0.308355
0.336511
0.356617
0.367536
0.387254
0.405498
0.413849
0.413509
0.398762
0.373845
0.34816
0.328691
0.316232
0.308193
0.298863
0.288045
0.261159
0.247578
3.72785
1.83059
0.506637
0.180573
0.329895
0.362485
0.330557
0.319511
0.345922
0.368917
0.380149
0.398544
0.417054
0.425893
0.426963
0.415379
0.392819
0.36988
0.353948
0.346006
0.341943
0.337044
0.331908
0.312535
0.305257
3.62424
1.92043
0.560732
0.219108
0.329701
0.374549
0.344158
0.331923
0.356742
0.383024
0.39418
0.410481
0.429729
0.439447
0.441925
0.433696
0.413687
0.394131
0.381996
0.37862
0.379351
0.379907
0.382263
0.37271
0.377129
3.52205
2.01059
0.627541
0.262503
0.327822
0.386041
0.35753
0.34606
0.369721
0.398894
0.409076
0.422964
0.443288
0.454333
0.458251
0.453479
0.436404
0.420369
0.412231
0.413544
0.41988
0.427436
0.439995
0.444805
0.473841
3.42465
2.10451
0.713042
0.31289
0.325169
0.394911
0.371142
0.36263
0.385543
0.415916
0.424572
0.436304
0.457448
0.470401
0.475852
0.473946
0.460895
0.448269
0.444275
0.450009
0.463023
0.480004
0.506599
0.538106
0.632386
4.07971
1.43668
0.328631
0.0135289
0.312234
0.318776
0.279175
0.276697
0.310546
0.326759
0.334956
0.356034
0.37285
0.380001
0.375552
0.352061
0.319531
0.286647
0.259899
0.233471
0.211568
0.190363
0.16353
0.100853
0.0522536
4.06649
1.45623
0.337339
0.0360917
0.312836
0.319941
0.280608
0.277538
0.310771
0.326981
0.335793
0.357349
0.374706
0.382352
0.378459
0.355599
0.323521
0.290844
0.264335
0.23875
0.21765
0.197158
0.171445
0.112956
0.0729573
4.03227
1.49861
0.356302
0.0611539
0.31549
0.324555
0.285878
0.282378
0.314924
0.331332
0.340682
0.362098
0.379687
0.387526
0.384128
0.362393
0.331451
0.299847
0.27441
0.250923
0.231917
0.21341
0.190516
0.140683
0.111076
3.97911
1.56169
0.383401
0.0872356
0.319326
0.331763
0.294017
0.289501
0.320779
0.337594
0.347554
0.368714
0.386425
0.394383
0.391811
0.371908
0.342731
0.312728
0.2888
0.268261
0.25237
0.236657
0.217357
0.176078
0.153201
3.91059
1.64174
0.417827
0.115158
0.32372
0.340799
0.304507
0.298196
0.328024
0.346013
0.356562
0.377074
0.395018
0.403145
0.401573
0.384027
0.356861
0.32887
0.30685
0.289988
0.277928
0.265284
0.249856
0.215989
0.197917
3.82581
1.73429
0.45905
0.145911
0.327647
0.351078
0.316961
0.30824
0.336381
0.35644
0.367344
0.387066
0.405272
0.413591
0.413227
0.398464
0.373592
0.347953
0.32852
0.316079
0.308052
0.298731
0.287926
0.261051
0.247486
3.728
1.83052
0.506591
0.180418
0.329819
0.362402
0.330464
0.319409
0.345812
0.368755
0.379981
0.398407
0.416834
0.425614
0.426657
0.415034
0.392558
0.369676
0.353778
0.345859
0.341808
0.336922
0.3318
0.312441
0.305182
3.62437
1.92038
0.560701
0.218986
0.329631
0.374472
0.344077
0.331841
0.35666
0.382884
0.394051
0.410421
0.429554
0.439193
0.441647
0.433373
0.41344
0.393935
0.381836
0.378484
0.379225
0.379792
0.382165
0.372629
0.377067
3.52216
2.01056
0.627522
0.262408
0.327761
0.385973
0.35746
0.345997
0.369667
0.398789
0.408993
0.42295
0.443168
0.454133
0.45802
0.453221
0.436188
0.420192
0.412085
0.413421
0.419762
0.427328
0.439906
0.444734
0.473787
3.42473
2.1045
0.713027
0.312817
0.325118
0.394851
0.371079
0.362581
0.385514
0.41586
0.424532
0.436317
0.457371
0.470264
0.475683
0.473757
0.460723
0.448118
0.444145
0.449898
0.462917
0.479905
0.506517
0.538047
0.632338
4.07964
1.43683
0.328688
0.013482
0.312243
0.31879
0.279189
0.276735
0.310605
0.326783
0.334928
0.355952
0.372692
0.379815
0.375366
0.3519
0.319426
0.286585
0.259875
0.233471
0.211589
0.190406
0.163589
0.100895
0.0522645
4.06654
1.45635
0.337382
0.0360928
0.312788
0.319873
0.280512
0.277394
0.310588
0.326737
0.335528
0.357049
0.374374
0.382069
0.378239
0.355435
0.323427
0.290787
0.264314
0.23875
0.21767
0.1972
0.1715
0.112993
0.0729629
4.03227
1.49873
0.356358
0.0611766
0.315465
0.324514
0.285822
0.282317
0.314859
0.33125
0.340626
0.362011
0.379578
0.387417
0.384025
0.36231
0.331398
0.299817
0.274398
0.250929
0.231944
0.213454
0.190566
0.140711
0.111077
3.97904
1.56181
0.383452
0.0872536
0.319324
0.331762
0.294016
0.289514
0.320808
0.337641
0.347624
0.368774
0.386482
0.394433
0.391858
0.371962
0.342773
0.312753
0.288814
0.268281
0.252406
0.236705
0.217401
0.176099
0.153199
3.91051
1.64185
0.417868
0.115171
0.323729
0.340819
0.304538
0.298247
0.328097
0.346132
0.356699
0.377214
0.395182
0.40331
0.401734
0.384187
0.356974
0.32894
0.30689
0.290023
0.277974
0.265334
0.249896
0.216006
0.197913
3.82574
1.73438
0.459086
0.14592
0.327654
0.351101
0.317
0.308295
0.336455
0.35658
0.367494
0.387211
0.405475
0.413816
0.41345
0.398681
0.373731
0.34804
0.328576
0.316126
0.308105
0.298782
0.287965
0.261067
0.247482
3.72793
1.83059
0.506623
0.180423
0.329822
0.362424
0.330496
0.319449
0.345863
0.368877
0.38011
0.398502
0.417023
0.425847
0.426893
0.415284
0.392711
0.369768
0.353837
0.34591
0.341865
0.336973
0.331839
0.312457
0.305179
3.6243
1.92043
0.560728
0.218988
0.32963
0.374488
0.344097
0.331858
0.356681
0.382969
0.394132
0.410463
0.429698
0.439389
0.44185
0.43359
0.413574
0.394021
0.381894
0.378536
0.379281
0.379842
0.382203
0.372646
0.377066
3.5221
2.0106
0.627548
0.262409
0.327755
0.385981
0.357468
0.345995
0.369661
0.398828
0.409017
0.422951
0.443262
0.454275
0.458177
0.453385
0.436299
0.420264
0.412137
0.41347
0.419816
0.427378
0.439945
0.444752
0.473789
3.42469
2.10453
0.713052
0.312818
0.325107
0.394852
0.37108
0.362567
0.385489
0.415855
0.424512
0.436298
0.457425
0.470349
0.475784
0.473865
0.460802
0.448173
0.444189
0.449941
0.462969
0.479954
0.506555
0.538067
0.632344
4.07968
1.43681
0.328691
0.0134843
0.312241
0.318786
0.279184
0.276727
0.310593
0.32677
0.334917
0.355945
0.372685
0.379803
0.375343
0.351862
0.319378
0.286539
0.259838
0.233443
0.21158
0.190402
0.163578
0.100888
0.0522625
4.06656
1.45634
0.337387
0.0360948
0.31279
0.319875
0.280515
0.2774
0.310595
0.326746
0.335538
0.357061
0.374384
0.382068
0.378221
0.355399
0.32338
0.290742
0.264277
0.238722
0.217661
0.197196
0.171491
0.112988
0.0729643
4.0323
1.49872
0.356364
0.0611802
0.315466
0.324516
0.285826
0.282324
0.314869
0.331263
0.34064
0.362029
0.379592
0.387422
0.384014
0.362281
0.331359
0.299776
0.274365
0.250903
0.231934
0.21345
0.190558
0.140709
0.111081
3.97906
1.56181
0.383461
0.0872592
0.319326
0.331763
0.294018
0.289517
0.320811
0.337646
0.347621
0.368771
0.386474
0.394411
0.391818
0.371907
0.34271
0.3127
0.288775
0.268254
0.252396
0.2367
0.217396
0.176099
0.153204
3.91052
1.64186
0.417882
0.115179
0.323729
0.340818
0.304536
0.298243
0.32809
0.346117
0.356671
0.377178
0.395135
0.403247
0.401657
0.384099
0.356891
0.328875
0.306843
0.289994
0.277963
0.265328
0.249892
0.216007
0.197917
3.82574
1.7344
0.459103
0.145931
0.327654
0.351097
0.316993
0.308283
0.33644
0.356545
0.367451
0.387168
0.405402
0.413721
0.413349
0.398577
0.373653
0.347979
0.32853
0.316098
0.308092
0.298774
0.287962
0.261068
0.247485
3.72792
1.83061
0.506644
0.180439
0.329822
0.36242
0.330489
0.319436
0.345847
0.368837
0.380067
0.398475
0.416952
0.42575
0.426792
0.415169
0.392633
0.369713
0.353799
0.345887
0.341851
0.336965
0.331836
0.312457
0.305182
3.62429
1.92046
0.560755
0.21901
0.329634
0.374487
0.344092
0.331851
0.356673
0.38294
0.394107
0.410453
0.429645
0.439317
0.441776
0.433508
0.413518
0.393976
0.381864
0.378517
0.379268
0.379835
0.3822
0.372645
0.377068
3.52208
2.01063
0.627582
0.262435
0.327761
0.385981
0.357466
0.345995
0.369664
0.398818
0.409015
0.422949
0.443226
0.454233
0.458133
0.45334
0.436266
0.420234
0.412114
0.413452
0.419804
0.42737
0.439942
0.444751
0.473789
3.42466
2.10456
0.713096
0.312848
0.325116
0.394852
0.371082
0.362575
0.385501
0.415862
0.424527
0.436299
0.457402
0.470335
0.47577
0.473851
0.460794
0.448156
0.444172
0.449924
0.462956
0.479946
0.506552
0.538064
0.63234
4.0795
1.43706
0.32877
0.0134848
0.312245
0.318801
0.27919
0.276724
0.310588
0.326766
0.334913
0.355942
0.372685
0.379805
0.375348
0.351872
0.31939
0.28655
0.25985
0.23346
0.211593
0.190424
0.163609
0.100906
0.0522604
4.0664
1.45659
0.337465
0.0360963
0.31279
0.319885
0.280517
0.277392
0.310584
0.326735
0.335526
0.35705
0.374374
0.382061
0.378218
0.355403
0.323389
0.290753
0.264291
0.238741
0.217677
0.19722
0.171522
0.113009
0.0729625
4.03214
1.49896
0.356441
0.0611845
0.315463
0.324524
0.285827
0.282315
0.314857
0.33125
0.340626
0.362016
0.37958
0.387411
0.384007
0.362282
0.331368
0.299787
0.274377
0.250922
0.231951
0.213473
0.190585
0.140728
0.111079
3.97888
1.56204
0.383534
0.0872661
0.319321
0.331769
0.294018
0.289509
0.320801
0.337635
0.347613
0.368762
0.386458
0.394394
0.391807
0.371905
0.342718
0.31271
0.288786
0.268271
0.252413
0.236719
0.217416
0.176114
0.153201
3.91034
1.64208
0.417952
0.115187
0.323722
0.340823
0.304538
0.298236
0.328078
0.346107
0.356649
0.377152
0.395126
0.40324
0.401651
0.384102
0.3569
0.328886
0.306856
0.290011
0.277979
0.265341
0.249906
0.216018
0.197914
3.82556
1.73459
0.459169
0.145943
0.32764
0.351098
0.316994
0.308277
0.336434
0.356542
0.367454
0.387167
0.405384
0.413703
0.413337
0.398575
0.373662
0.347991
0.328543
0.316114
0.308104
0.298782
0.287971
0.261076
0.247482
3.72776
1.83076
0.506706
0.180453
0.329801
0.362419
0.330488
0.319432
0.345845
0.368835
0.380066
0.398478
0.416939
0.425732
0.426782
0.415167
0.392641
0.369727
0.353814
0.345901
0.341859
0.336971
0.331843
0.312462
0.305177
3.62414
1.92058
0.560817
0.219025
0.329606
0.374484
0.344089
0.331849
0.356674
0.382952
0.394114
0.410438
0.429637
0.439311
0.441774
0.433514
0.413531
0.393993
0.38188
0.378529
0.379276
0.379841
0.382206
0.372646
0.377061
3.52196
2.01074
0.627652
0.262451
0.327728
0.385973
0.357462
0.345995
0.369669
0.398844
0.409038
0.422938
0.443221
0.454239
0.458141
0.453351
0.436283
0.420253
0.412132
0.413464
0.419811
0.427376
0.439946
0.44475
0.473782
3.42457
2.10466
0.713176
0.312866
0.325079
0.394839
0.371079
0.362577
0.385508
0.415888
0.424559
0.436287
0.457398
0.470347
0.475784
0.473866
0.460814
0.448176
0.44419
0.449938
0.462963
0.479952
0.506555
0.53806
0.632334
4.07956
1.43699
0.32875
0.0134843
0.312245
0.3188
0.27919
0.276723
0.310585
0.326761
0.334909
0.355937
0.372676
0.379795
0.375336
0.351855
0.319371
0.286532
0.259836
0.233444
0.21158
0.190412
0.1636
0.100902
0.0522659
4.06646
1.45651
0.337446
0.0360954
0.312793
0.319887
0.280522
0.277398
0.310589
0.32674
0.335532
0.357055
0.374375
0.382059
0.378213
0.355392
0.323373
0.290736
0.264276
0.238724
0.217663
0.197206
0.17151
0.112999
0.0729653
4.03219
1.49889
0.356421
0.0611822
0.315467
0.324526
0.285832
0.282322
0.314863
0.331257
0.340634
0.362023
0.379584
0.387412
0.384004
0.362273
0.331354
0.299772
0.274364
0.250907
0.231938
0.21346
0.190573
0.140717
0.111079
3.97894
1.56197
0.383516
0.087263
0.319324
0.331772
0.294023
0.289515
0.320806
0.33764
0.347619
0.368768
0.386461
0.394395
0.391804
0.371897
0.342706
0.312698
0.288775
0.268259
0.252402
0.236709
0.217406
0.176103
0.1532
3.91041
1.64202
0.417935
0.115183
0.323726
0.340825
0.304541
0.298242
0.328082
0.346111
0.356654
0.377156
0.395128
0.40324
0.401648
0.384094
0.35689
0.328876
0.306846
0.290001
0.27797
0.265333
0.249898
0.216008
0.197912
3.82562
1.73454
0.459152
0.145938
0.327646
0.351101
0.316997
0.308282
0.336438
0.356545
0.367457
0.38717
0.405385
0.413702
0.413333
0.398568
0.373653
0.347982
0.328535
0.316106
0.308097
0.298777
0.287965
0.261067
0.247479
3.72781
1.83072
0.506689
0.180447
0.329809
0.362422
0.330491
0.319436
0.345848
0.368837
0.380068
0.39848
0.416939
0.42573
0.426778
0.415162
0.392634
0.369719
0.353806
0.345894
0.341854
0.336967
0.331837
0.312455
0.305175
3.62419
1.92054
0.560799
0.219018
0.329616
0.374487
0.344093
0.331852
0.356676
0.382953
0.394115
0.41044
0.429637
0.439309
0.44177
0.433509
0.413524
0.393985
0.381872
0.378523
0.379271
0.379836
0.382201
0.372642
0.377061
3.522
2.0107
0.62763
0.262443
0.32774
0.385978
0.357466
0.345998
0.36967
0.398844
0.409039
0.42294
0.443221
0.454237
0.458138
0.453348
0.436277
0.420245
0.412123
0.413457
0.419806
0.427371
0.439941
0.444748
0.473783
3.4246
2.10463
0.713148
0.312856
0.325091
0.394845
0.371083
0.362579
0.385508
0.415888
0.42456
0.436289
0.457398
0.470346
0.475782
0.473863
0.46081
0.448169
0.444182
0.449929
0.462958
0.479947
0.506552
0.538062
0.632335
4.07968
1.43681
0.328691
0.0134842
0.312241
0.318786
0.279184
0.276727
0.310593
0.32677
0.334917
0.355945
0.372685
0.379804
0.375343
0.351862
0.319378
0.286539
0.259838
0.233442
0.21158
0.190402
0.163578
0.100888
0.0522625
4.06657
1.45634
0.337387
0.0360947
0.312791
0.319875
0.280515
0.2774
0.310595
0.326746
0.335538
0.357061
0.374384
0.382068
0.378221
0.355399
0.32338
0.290742
0.264277
0.238722
0.217661
0.197195
0.171491
0.112988
0.0729643
4.0323
1.49872
0.356364
0.0611801
0.315466
0.324516
0.285826
0.282324
0.314869
0.331263
0.34064
0.362029
0.379592
0.387422
0.384014
0.36228
0.331359
0.299776
0.274364
0.250903
0.231934
0.21345
0.190558
0.140709
0.111081
3.97906
1.5618
0.383461
0.0872592
0.319326
0.331763
0.294018
0.289517
0.320811
0.337646
0.347621
0.368771
0.386474
0.394411
0.391818
0.371907
0.34271
0.3127
0.288774
0.268253
0.252396
0.2367
0.217396
0.176099
0.153204
3.91052
1.64186
0.417882
0.115179
0.32373
0.340818
0.304536
0.298243
0.32809
0.346117
0.356671
0.377178
0.395135
0.403247
0.401657
0.384099
0.356891
0.328875
0.306843
0.289994
0.277963
0.265328
0.249892
0.216007
0.197917
3.82574
1.7344
0.459103
0.145931
0.327654
0.351097
0.316993
0.308283
0.33644
0.356545
0.367451
0.387168
0.405402
0.413721
0.413349
0.398577
0.373653
0.347979
0.328529
0.316097
0.308092
0.298774
0.287962
0.261068
0.247485
3.72792
1.83061
0.506644
0.180439
0.329822
0.36242
0.330489
0.319436
0.345847
0.368837
0.380067
0.398475
0.416952
0.42575
0.426792
0.415169
0.392633
0.369713
0.353799
0.345887
0.341851
0.336965
0.331836
0.312457
0.305182
3.62429
1.92046
0.560755
0.219009
0.329634
0.374487
0.344092
0.331851
0.356673
0.38294
0.394107
0.410453
0.429645
0.439317
0.441776
0.433508
0.413517
0.393976
0.381864
0.378517
0.379268
0.379835
0.3822
0.372645
0.377068
3.52208
2.01063
0.627581
0.262435
0.327761
0.385981
0.357466
0.345995
0.369664
0.398818
0.409015
0.42295
0.443226
0.454233
0.458133
0.45334
0.436266
0.420234
0.412114
0.413452
0.419803
0.42737
0.439942
0.444751
0.473789
3.42466
2.10456
0.713095
0.312848
0.325116
0.394852
0.371083
0.362575
0.385501
0.415862
0.424527
0.436299
0.457402
0.470335
0.47577
0.473851
0.460794
0.448156
0.444172
0.449924
0.462956
0.479946
0.506552
0.538064
0.63234
4.07964
1.43683
0.328688
0.013482
0.312243
0.31879
0.279189
0.276735
0.310605
0.326783
0.334928
0.355952
0.372692
0.379815
0.375366
0.3519
0.319426
0.286585
0.259875
0.233471
0.211589
0.190406
0.163589
0.100895
0.0522645
4.06654
1.45635
0.337382
0.0360928
0.312788
0.319873
0.280512
0.277394
0.310588
0.326737
0.335528
0.357049
0.374374
0.382069
0.378239
0.355435
0.323427
0.290787
0.264314
0.23875
0.21767
0.1972
0.1715
0.112993
0.0729629
4.03227
1.49873
0.356358
0.0611766
0.315465
0.324514
0.285822
0.282317
0.314859
0.33125
0.340626
0.362011
0.379578
0.387417
0.384025
0.36231
0.331398
0.299817
0.274398
0.250929
0.231944
0.213454
0.190566
0.140711
0.111077
3.97904
1.56181
0.383452
0.0872536
0.319324
0.331762
0.294016
0.289514
0.320808
0.337641
0.347624
0.368774
0.386482
0.394433
0.391858
0.371962
0.342773
0.312753
0.288814
0.268281
0.252406
0.236705
0.217401
0.176099
0.153199
3.91051
1.64185
0.417868
0.115171
0.323729
0.340819
0.304538
0.298247
0.328097
0.346132
0.356699
0.377214
0.395182
0.40331
0.401734
0.384187
0.356974
0.32894
0.30689
0.290023
0.277974
0.265334
0.249896
0.216006
0.197913
3.82574
1.73438
0.459086
0.14592
0.327654
0.351101
0.317
0.308295
0.336455
0.35658
0.367495
0.387211
0.405475
0.413816
0.41345
0.398681
0.373731
0.34804
0.328576
0.316126
0.308105
0.298782
0.287965
0.261067
0.247482
3.72793
1.83059
0.506623
0.180423
0.329822
0.362424
0.330496
0.319449
0.345863
0.368877
0.38011
0.398502
0.417023
0.425847
0.426893
0.415284
0.392711
0.369768
0.353837
0.34591
0.341865
0.336973
0.331839
0.312457
0.305179
3.6243
1.92043
0.560728
0.218988
0.32963
0.374488
0.344097
0.331858
0.356681
0.382969
0.394132
0.410463
0.429698
0.439389
0.44185
0.43359
0.413574
0.394021
0.381894
0.378536
0.379281
0.379842
0.382203
0.372646
0.377066
3.5221
2.0106
0.627548
0.262409
0.327755
0.385981
0.357468
0.345995
0.369661
0.398828
0.409017
0.422951
0.443262
0.454275
0.458177
0.453385
0.436299
0.420264
0.412137
0.41347
0.419816
0.427378
0.439945
0.444752
0.473789
3.42469
2.10453
0.713052
0.312818
0.325107
0.394852
0.37108
0.362567
0.385489
0.415855
0.424512
0.436298
0.457425
0.470349
0.475784
0.473865
0.460802
0.448173
0.444189
0.449941
0.462969
0.479954
0.506555
0.538067
0.632344
4.07971
1.43668
0.328631
0.0135288
0.312234
0.318776
0.279175
0.276697
0.310546
0.32676
0.334956
0.356034
0.37285
0.380002
0.375553
0.352061
0.319531
0.286648
0.259899
0.233471
0.211568
0.190363
0.16353
0.100853
0.0522536
4.06649
1.45623
0.337339
0.0360917
0.312836
0.319941
0.280608
0.277538
0.310771
0.326981
0.335793
0.357349
0.374707
0.382352
0.378459
0.355599
0.323522
0.290844
0.264336
0.23875
0.21765
0.197158
0.171445
0.112956
0.0729573
4.03227
1.49861
0.356301
0.0611539
0.31549
0.324555
0.285878
0.282378
0.314924
0.331332
0.340682
0.362098
0.379687
0.387526
0.384129
0.362393
0.331451
0.299847
0.274411
0.250924
0.231917
0.21341
0.190516
0.140684
0.111076
3.97911
1.56169
0.383401
0.0872357
0.319326
0.331763
0.294017
0.289501
0.320779
0.337594
0.347554
0.368714
0.386425
0.394384
0.391811
0.371909
0.342731
0.312729
0.288801
0.268261
0.25237
0.236657
0.217357
0.176078
0.153201
3.91059
1.64174
0.417827
0.115158
0.32372
0.340799
0.304507
0.298196
0.328024
0.346013
0.356562
0.377074
0.395019
0.403145
0.401573
0.384027
0.356861
0.328871
0.30685
0.289988
0.277928
0.265284
0.249856
0.215989
0.197917
3.82581
1.73429
0.45905
0.145911
0.327647
0.351078
0.316961
0.30824
0.336381
0.35644
0.367344
0.387066
0.405273
0.413591
0.413228
0.398464
0.373593
0.347954
0.32852
0.316079
0.308052
0.298731
0.287926
0.261051
0.247486
3.728
1.83052
0.506591
0.180418
0.329819
0.362402
0.330464
0.319409
0.345812
0.368755
0.379982
0.398408
0.416834
0.425615
0.426658
0.415035
0.392558
0.369676
0.353778
0.345859
0.341808
0.336922
0.3318
0.312441
0.305182
3.62437
1.92038
0.560701
0.218986
0.329631
0.374472
0.344077
0.331841
0.35666
0.382884
0.394051
0.410422
0.429554
0.439194
0.441648
0.433373
0.413441
0.393935
0.381836
0.378485
0.379225
0.379792
0.382165
0.372629
0.377067
3.52215
2.01056
0.627523
0.262408
0.327761
0.385973
0.35746
0.345996
0.369667
0.398789
0.408993
0.42295
0.443168
0.454134
0.45802
0.453221
0.436188
0.420192
0.412085
0.413421
0.419762
0.427328
0.439906
0.444734
0.473787
3.42473
2.1045
0.713028
0.312817
0.325118
0.394851
0.371079
0.362581
0.385514
0.41586
0.424532
0.436317
0.457371
0.470264
0.475683
0.473757
0.460724
0.448119
0.444145
0.449898
0.462917
0.479905
0.506517
0.538047
0.632338
4.07968
1.43663
0.328683
0.0154054
0.312332
0.318853
0.27925
0.276793
0.310638
0.326786
0.334922
0.355948
0.372722
0.379895
0.375493
0.352058
0.319593
0.286747
0.260027
0.233616
0.2117
0.19051
0.163716
0.101087
0.0527162
4.06659
1.45615
0.337373
0.0368612
0.312874
0.319936
0.280584
0.277477
0.310671
0.326826
0.335635
0.357163
0.374533
0.382268
0.378459
0.35566
0.323632
0.290974
0.264481
0.238907
0.217795
0.197321
0.171641
0.113178
0.0732772
4.0323
1.49854
0.356348
0.0616356
0.315562
0.324594
0.285922
0.282452
0.315018
0.331454
0.340855
0.362269
0.379874
0.387706
0.384294
0.362564
0.331617
0.300012
0.274566
0.251085
0.232068
0.213574
0.190695
0.140861
0.111276
3.97906
1.56163
0.383437
0.0875698
0.319425
0.331847
0.294114
0.289638
0.320947
0.337818
0.347778
0.368939
0.386693
0.394632
0.392036
0.372134
0.342923
0.31291
0.288958
0.268424
0.252523
0.236815
0.217513
0.176219
0.153341
3.91055
1.64169
0.417849
0.115406
0.323822
0.340889
0.30461
0.298328
0.328174
0.346212
0.356738
0.377245
0.395251
0.403379
0.401807
0.384276
0.357073
0.329059
0.307009
0.290147
0.278077
0.26543
0.24999
0.216104
0.198023
3.82578
1.73424
0.459063
0.146103
0.327739
0.351154
0.317043
0.308331
0.336484
0.356569
0.367479
0.38722
0.405432
0.413761
0.41342
0.398674
0.373817
0.348157
0.328693
0.316239
0.308194
0.298863
0.288042
0.261149
0.247573
3.72798
1.83048
0.506597
0.180571
0.329906
0.362467
0.330527
0.319466
0.345869
0.368824
0.380065
0.398516
0.416958
0.425767
0.426846
0.415252
0.392788
0.369883
0.353957
0.346016
0.34194
0.337041
0.331904
0.312527
0.305253
3.62433
1.92034
0.560697
0.219111
0.329715
0.374531
0.344129
0.33188
0.356692
0.382935
0.394117
0.410469
0.429644
0.43934
0.441833
0.433598
0.413657
0.394131
0.38201
0.378632
0.379349
0.379901
0.382258
0.372705
0.377127
3.52212
2.01052
0.627504
0.26251
0.327842
0.386031
0.357508
0.346029
0.369689
0.398837
0.409049
0.42295
0.443217
0.454269
0.4582
0.453443
0.436401
0.420371
0.412242
0.413552
0.419876
0.427429
0.439989
0.444799
0.473836
3.4247
2.10446
0.713003
0.312899
0.325194
0.394908
0.371126
0.362611
0.385529
0.415892
0.424574
0.436292
0.45739
0.470376
0.47584
0.473951
0.460924
0.448278
0.444285
0.450007
0.463014
0.479993
0.506592
0.5381
0.632379
3.33353
2.20469
0.823101
0.373869
0.325057
0.398274
0.385935
0.382683
0.405204
0.43335
0.440463
0.450435
0.472005
0.487371
0.494457
0.495563
0.487008
0.47744
0.476949
0.487237
0.508099
0.535409
0.580319
0.656277
0.827509
3.24493
2.3009
0.977748
0.447757
0.323828
0.396953
0.407425
0.408077
0.427343
0.449627
0.456331
0.465096
0.486526
0.504618
0.513971
0.518184
0.514544
0.507289
0.509538
0.523954
0.551632
0.589872
0.649978
0.745477
0.922567
3.16177
2.40527
1.19115
0.524032
0.32584
0.408722
0.434595
0.435501
0.448737
0.464735
0.472326
0.479672
0.500883
0.522163
0.534061
0.540627
0.541041
0.536267
0.541272
0.559007
0.591769
0.635709
0.703963
0.796277
0.948514
3.08504
2.49592
1.44438
0.592853
0.347113
0.431137
0.462373
0.461469
0.467155
0.479406
0.488812
0.495831
0.514791
0.539447
0.555388
0.564358
0.568813
0.566305
0.572155
0.591225
0.625903
0.673978
0.740955
0.827388
0.950506
3.00848
2.5442
1.6687
0.668528
0.387677
0.452861
0.487402
0.483595
0.484049
0.494318
0.505849
0.512912
0.52984
0.557202
0.576696
0.58755
0.594498
0.595171
0.601016
0.62032
0.654346
0.702878
0.769496
0.849158
0.948194
2.92819
2.56764
1.83936
0.761871
0.447927
0.47871
0.508568
0.503041
0.500236
0.50954
0.523082
0.531561
0.545597
0.574898
0.597258
0.610509
0.619615
0.624753
0.628174
0.646125
0.678535
0.725006
0.788586
0.861378
0.940926
2.85128
2.5979
2.00072
0.908901
0.535376
0.50517
0.521145
0.520419
0.516251
0.525989
0.540904
0.551765
0.563731
0.590316
0.616062
0.632704
0.6439
0.652486
0.655092
0.669587
0.699133
0.742169
0.800213
0.864704
0.935228
2.79548
2.65377
2.18779
1.13051
0.644097
0.520326
0.529752
0.539526
0.534785
0.544481
0.560079
0.572876
0.582539
0.604245
0.633751
0.653654
0.667066
0.677177
0.682899
0.692258
0.718003
0.755501
0.805213
0.863748
0.928164
2.78741
2.73891
2.40475
1.46586
0.740329
0.523417
0.544425
0.560762
0.556442
0.565511
0.580688
0.593388
0.601253
0.617958
0.649417
0.673217
0.688586
0.699684
0.709554
0.713512
0.733508
0.765508
0.805966
0.86027
0.919813
2.84407
2.82861
2.58229
1.82543
0.848609
0.53891
0.56953
0.581231
0.580722
0.58912
0.602007
0.613286
0.620561
0.631481
0.661414
0.689988
0.708304
0.721424
0.732396
0.738499
0.748948
0.773816
0.808716
0.853032
0.909622
2.91321
2.91304
2.71875
2.08624
0.995886
0.606245
0.600171
0.59974
0.609512
0.614949
0.623603
0.632994
0.640191
0.647218
0.6705
0.704951
0.726432
0.740387
0.751255
0.760974
0.764097
0.782101
0.812393
0.849361
0.894746
2.97311
2.98642
2.84313
2.32487
1.25936
0.724413
0.630827
0.626534
0.641715
0.641435
0.645258
0.652607
0.65927
0.66362
0.680321
0.713617
0.741134
0.757033
0.769474
0.78017
0.785729
0.79265
0.815341
0.846907
0.884511
3.01487
3.05442
2.9606
2.58717
1.65513
0.852567
0.656253
0.659652
0.669112
0.668049
0.667686
0.672481
0.678727
0.681805
0.691953
0.723248
0.753913
0.773564
0.785251
0.795336
0.805198
0.809091
0.821019
0.845264
0.877003
3.04716
3.11123
3.04763
2.78337
2.05055
1.03004
0.69614
0.694068
0.692796
0.695324
0.690756
0.693357
0.699093
0.701914
0.705723
0.729396
0.762794
0.788033
0.80213
0.810902
0.820164
0.827368
0.829429
0.846384
0.871964
3.07398
3.1579
3.11443
2.92818
2.36843
1.31088
0.792367
0.731652
0.723049
0.722033
0.716196
0.716323
0.720532
0.723227
0.722643
0.734132
0.773125
0.802041
0.818514
0.827207
0.834255
0.842477
0.846564
0.85018
0.868466
3.0947
3.19536
3.16725
3.04451
2.66318
1.75252
0.927257
0.770753
0.754632
0.746944
0.746061
0.743185
0.743888
0.746062
0.74442
0.745791
0.773509
0.811599
0.833853
0.843455
0.848304
0.854462
0.8623
0.865278
0.86971
3.11057
3.22373
3.20521
3.124
2.86919
2.17793
1.16132
0.818171
0.788278
0.781611
0.778355
0.773078
0.769588
0.77002
0.768816
0.764664
0.774604
0.817547
0.846965
0.860111
0.865904
0.867731
0.873164
0.880569
0.883657
3.12239
3.24551
3.23353
3.18067
3.01488
2.52895
1.5419
0.909357
0.832168
0.824709
0.810768
0.803239
0.797933
0.795997
0.794844
0.789937
0.78814
0.813504
0.853432
0.875314
0.882712
0.886003
0.886758
0.8916
0.898592
3.13098
3.26138
3.25348
3.21919
3.11424
2.80875
2.03383
1.1002
0.883712
0.858797
0.847484
0.83916
0.829886
0.824523
0.822537
0.818391
0.811479
0.816178
0.852858
0.88422
0.89875
0.902289
0.904487
0.906158
0.910924
3.1371
3.27255
3.26686
3.24439
3.1788
2.98961
2.44702
1.44835
0.955067
0.899769
0.891607
0.8786
0.865475
0.857133
0.852448
0.848134
0.840676
0.83405
0.851492
0.887451
0.910858
0.919089
0.920309
0.922687
0.926789
3.14077
3.27914
3.27446
3.25992
3.22027
3.10809
2.78314
1.97966
1.11072
0.950396
0.929368
0.917701
0.907487
0.893048
0.885636
0.87934
0.872371
0.86208
0.859163
0.886908
0.915039
0.933911
0.938164
0.938486
0.941969
3.14106
3.28144
3.27809
3.26983
3.24649
3.17999
2.98737
2.43517
1.45604
1.01689
0.971264
0.960969
0.949016
0.937161
0.922119
0.913181
0.90511
0.895151
0.88325
0.887033
0.922072
0.940547
0.954205
0.956689
0.957366
3.13803
3.28158
3.28029
3.27518
3.26113
3.22287
3.11444
2.79912
2.00827
1.17346
1.02176
1.00022
0.991078
0.981766
0.967139
0.950898
0.939415
0.929487
0.915844
0.904756
0.920831
0.95164
0.965012
0.974136
0.975354
3.13581
3.28125
3.28147
3.27896
3.27117
3.24946
3.18908
3.0139
2.50143
1.55092
1.08814
1.04518
1.03339
1.02324
1.01485
0.995026
0.978012
0.964886
0.951874
0.935182
0.927744
0.952869
0.977313
0.984973
0.9922
3.13485
3.28048
3.28281
3.28156
3.27724
3.26508
3.23187
3.13762
2.86129
2.12938
1.29148
1.09895
1.07368
1.06664
1.05703
1.04798
1.02197
1.00346
0.988906
0.972507
0.954507
0.954437
0.985268
1.00208
1.00423
3.13441
3.28004
3.28375
3.28312
3.28079
3.27425
3.25645
3.20741
3.06484
2.63905
1.74087
1.17767
1.12111
1.10639
1.09959
1.09273
1.0777
1.04719
1.02766
1.01114
0.990692
0.973776
0.985195
1.01195
1.02158
3.13428
3.27984
3.28432
3.28402
3.28283
3.27944
3.27013
3.24467
3.17243
2.95668
2.33367
1.46259
1.18173
1.14913
1.14191
1.13317
1.12677
1.10411
1.07222
1.05125
1.03066
1.00702
0.993132
1.01237
1.03536
3.13432
3.27974
3.28467
3.28455
3.284
3.28232
3.27761
3.26465
3.22905
3.12583
2.81607
2.03132
1.32317
1.20255
1.1817
1.17657
1.16917
1.15836
1.12654
1.09724
1.07321
1.04849
1.02242
1.01606
1.04045
3.13436
3.27968
3.28491
3.28489
3.28464
3.2838
3.28147
3.27517
3.25789
3.20949
3.06543
2.6253
1.75675
1.27903
1.22932
1.21636
1.21066
1.20482
1.18735
1.14667
1.11788
1.09188
1.0624
1.03674
1.03994
3.13435
3.2797
3.28503
3.28503
3.28494
3.28457
3.28351
3.28054
3.2724
3.2498
3.18475
2.98627
2.39341
1.57899
1.29438
1.25981
1.252
1.24579
1.23808
1.21203
1.1681
1.13635
1.10592
1.0714
1.04955
3.13435
3.27974
3.28503
3.28513
3.28511
3.28495
3.28448
3.28315
3.27946
3.26923
3.24055
3.15585
2.8965
2.18829
1.49232
1.31988
1.29228
1.28737
1.28116
1.2678
1.22918
1.18663
1.15207
1.11516
1.07876
3.13435
3.27975
3.28503
3.28518
3.28518
3.28512
3.28493
3.28436
3.28277
3.27836
3.26597
3.23084
3.12504
2.79471
2.01964
1.44778
1.34593
1.32717
1.32176
1.31508
1.2928
1.24186
1.19961
1.16081
1.1177
3.13435
3.27976
3.28502
3.28521
3.28521
3.2852
3.28512
3.28489
3.28425
3.28244
3.27734
3.26284
3.22102
3.09257
2.68567
1.8956
1.44519
1.37479
1.36027
1.35589
1.34513
1.31002
1.25196
1.20779
1.16257
3.13435
3.27976
3.28502
3.28522
3.28522
3.28522
3.2852
3.28511