/*--------------------------------*- C++ -*----------------------------------*\
| =========                 |                                                 |
| \\      /  F ield         | OpenFOAM: The Open Source CFD Toolbox           |
|  \\    /   O peration     | Version:  4.1                                   |
|   \\  /    A nd           | Web:      www.OpenFOAM.org                      |
|    \\/     M anipulation  |                                                 |
\*---------------------------------------------------------------------------*/
FoamFile
{
    version     2.0;
    format      ascii;
    class       volScalarField;
    location    "0.76";
    object      p;
}
// * * * * * * * * * * * * * * * * * * * * * * * * * * * * * * * * * * * * * //

dimensions      [1 -1 -2 0 0 0 0];

internalField   nonuniform List<scalar> 
52500
(
0.0762841
0.206868
0.755202
1.00573
0.825459
0.814421
0.791348
0.741642
0.699364
0.665029
0.6363
0.60401
0.571965
0.544238
0.521496
0.503508
0.493952
0.489373
0.48701
0.481746
0.47203
0.454505
0.430145
0.410238
0.404835
0.076473
0.204812
0.743583
1.01096
0.827894
0.81495
0.791848
0.742383
0.700134
0.665938
0.637096
0.60473
0.572563
0.544664
0.522054
0.503949
0.494219
0.489425
0.487016
0.481682
0.471764
0.454105
0.430168
0.410424
0.405211
0.0770323
0.20054
0.717963
1.02239
0.832978
0.815003
0.791792
0.742844
0.700529
0.666416
0.637223
0.604886
0.57254
0.544398
0.522065
0.503732
0.493772
0.488584
0.486024
0.480483
0.47009
0.45208
0.428921
0.409393
0.404438
0.0779471
0.19442
0.679765
1.03922
0.840773
0.814753
0.791385
0.743643
0.701259
0.667335
0.637613
0.605404
0.572793
0.544431
0.522341
0.503639
0.49321
0.48739
0.484553
0.478673
0.4676
0.448916
0.426845
0.407809
0.40336
0.0791766
0.18694
0.630942
1.05967
0.850068
0.81459
0.790313
0.744832
0.702432
0.668552
0.6382
0.606232
0.573413
0.544754
0.522725
0.503404
0.492307
0.485828
0.482537
0.476136
0.464171
0.444988
0.424229
0.405854
0.402135
0.0808026
0.17889
0.574701
1.08101
0.859348
0.814918
0.788253
0.746045
0.703824
0.670193
0.63905
0.607375
0.574452
0.545493
0.523157
0.50309
0.491125
0.484067
0.479905
0.472555
0.459556
0.440456
0.420878
0.403189
0.400464
0.0828277
0.171574
0.517499
1.09875
0.868015
0.815328
0.784737
0.746851
0.705465
0.672112
0.63994
0.609149
0.575976
0.546521
0.523517
0.502831
0.489853
0.482117
0.476609
0.467809
0.454144
0.435199
0.416489
0.399262
0.397485
0.0851089
0.166148
0.47202
1.10324
0.877545
0.81267
0.779424
0.747076
0.707563
0.674154
0.64055
0.6118
0.578091
0.547799
0.523904
0.502621
0.488708
0.479865
0.472621
0.462462
0.447904
0.428973
0.410516
0.393132
0.391243
0.0873796
0.160827
0.435056
1.09517
0.889879
0.805517
0.773031
0.747038
0.710529
0.67615
0.641521
0.614459
0.580679
0.549483
0.524322
0.502722
0.48758
0.477247
0.468138
0.456664
0.440937
0.421531
0.402371
0.383249
0.378252
0.0895057
0.154874
0.398532
1.07106
0.904553
0.795751
0.766926
0.746853
0.714911
0.678298
0.643259
0.616213
0.583012
0.551513
0.524764
0.503361
0.486069
0.47431
0.463063
0.450709
0.433419
0.41266
0.391205
0.368044
0.351497
0.0762814
0.20689
0.755322
1.00565
0.825411
0.814378
0.791308
0.741603
0.699328
0.665004
0.636268
0.603979
0.571944
0.544213
0.521481
0.503498
0.493961
0.489399
0.487042
0.481783
0.472053
0.454478
0.430091
0.410176
0.404761
0.0764738
0.204833
0.74369
1.01089
0.827854
0.814893
0.791804
0.742357
0.700099
0.665916
0.637053
0.604705
0.572548
0.544643
0.522049
0.503937
0.494227
0.489447
0.487043
0.481714
0.471784
0.454079
0.430117
0.410364
0.40514
0.0770318
0.200558
0.718063
1.02234
0.832939
0.814943
0.791747
0.742825
0.7005
0.666399
0.637187
0.604866
0.572525
0.544382
0.522055
0.503723
0.493779
0.488603
0.486046
0.480504
0.470101
0.452058
0.428873
0.409336
0.40437
0.0779442
0.194435
0.679857
1.03916
0.840723
0.814701
0.791351
0.743628
0.701237
0.66732
0.637595
0.60539
0.572784
0.544417
0.522326
0.503638
0.493217
0.487402
0.484565
0.478681
0.467598
0.448896
0.426804
0.407757
0.403298
0.0791731
0.186952
0.631019
1.0596
0.850033
0.814559
0.79029
0.744812
0.702413
0.668536
0.638199
0.606221
0.573404
0.544741
0.522709
0.503405
0.492313
0.485832
0.48254
0.476134
0.464161
0.444968
0.424194
0.405809
0.402079
0.0807987
0.178897
0.574759
1.08094
0.859326
0.814892
0.788225
0.746013
0.703804
0.670175
0.639065
0.607375
0.57443
0.545473
0.523143
0.503088
0.491129
0.484056
0.479902
0.47255
0.459543
0.440436
0.420848
0.403151
0.400416
0.082824
0.171576
0.517528
1.09869
0.867996
0.815308
0.784716
0.746821
0.705447
0.672096
0.639978
0.609126
0.575948
0.546499
0.52351
0.50283
0.489857
0.482102
0.476605
0.4678
0.454131
0.43518
0.416464
0.399232
0.397442
0.0851054
0.166147
0.472025
1.10319
0.877527
0.812664
0.779413
0.747051
0.707545
0.674147
0.640598
0.61176
0.578045
0.547774
0.523895
0.502619
0.488706
0.479848
0.472611
0.46245
0.447891
0.428956
0.410497
0.393108
0.391207
0.0873767
0.160826
0.435055
1.09512
0.889863
0.805521
0.773023
0.747016
0.710509
0.676147
0.641532
0.614436
0.580633
0.54945
0.524319
0.50271
0.487579
0.477231
0.468129
0.456649
0.440923
0.421515
0.402355
0.383232
0.378221
0.0895036
0.154873
0.398528
1.071
0.904539
0.795762
0.766918
0.74683
0.714884
0.678285
0.643243
0.616197
0.582979
0.55149
0.524755
0.503351
0.486062
0.474293
0.463052
0.450691
0.433404
0.412645
0.391192
0.368032
0.351476
0.076282
0.206873
0.755228
1.00569
0.825438
0.814396
0.791323
0.741618
0.699343
0.665004
0.636295
0.603994
0.571948
0.544233
0.521486
0.503519
0.493978
0.489409
0.487042
0.481767
0.472033
0.454468
0.430096
0.410187
0.40478
0.0764719
0.204816
0.743605
1.01092
0.827874
0.81492
0.791823
0.742364
0.700113
0.665916
0.637086
0.604716
0.572549
0.544659
0.522048
0.503957
0.494241
0.489457
0.487044
0.481701
0.471766
0.45407
0.430122
0.410374
0.405158
0.077031
0.200543
0.717981
1.02236
0.832958
0.814971
0.791766
0.742828
0.700508
0.666397
0.637205
0.604871
0.572529
0.544393
0.522061
0.503737
0.493791
0.488611
0.486048
0.480498
0.470089
0.452048
0.428877
0.409346
0.404389
0.0779451
0.194422
0.679778
1.03918
0.840749
0.814721
0.791361
0.743629
0.701239
0.667318
0.637592
0.605391
0.572787
0.544427
0.52234
0.503647
0.493225
0.48741
0.484569
0.478682
0.467594
0.448887
0.426807
0.407767
0.403316
0.0791744
0.186941
0.630948
1.05962
0.850047
0.814564
0.790292
0.744818
0.702412
0.668536
0.638179
0.606217
0.573406
0.544751
0.522723
0.503407
0.492315
0.485842
0.482546
0.476138
0.464162
0.444962
0.424196
0.405818
0.402097
0.0808002
0.178889
0.574699
1.08097
0.859329
0.814894
0.78823
0.746027
0.703802
0.670177
0.639034
0.607369
0.574446
0.545489
0.523156
0.50309
0.491129
0.484075
0.479908
0.47255
0.459545
0.440433
0.42085
0.403159
0.400433
0.0828256
0.171572
0.517488
1.0987
0.867997
0.815305
0.784715
0.746832
0.705444
0.672097
0.639922
0.609147
0.57597
0.546515
0.523519
0.502831
0.489855
0.48212
0.476608
0.467802
0.454129
0.435177
0.416465
0.399238
0.397458
0.0851069
0.166145
0.472005
1.10319
0.877528
0.81265
0.779404
0.747057
0.707543
0.674142
0.640543
0.611788
0.578074
0.547789
0.523903
0.502622
0.48871
0.479866
0.472619
0.462453
0.447888
0.428952
0.410496
0.393113
0.391221
0.087378
0.160824
0.43504
1.09511
0.88986
0.805501
0.773011
0.747018
0.710509
0.676141
0.641506
0.614455
0.580662
0.549468
0.524321
0.502719
0.487582
0.477246
0.468136
0.456653
0.44092
0.42151
0.402353
0.383234
0.378233
0.0895046
0.154872
0.398517
1.07099
0.904534
0.795739
0.766904
0.746829
0.714889
0.678284
0.643239
0.616212
0.582999
0.551501
0.524761
0.503359
0.48607
0.474308
0.46306
0.450696
0.433401
0.41264
0.391188
0.368032
0.351484
0.0762811
0.206874
0.755232
1.00567
0.825427
0.814389
0.791318
0.741614
0.699338
0.665
0.636291
0.603992
0.571948
0.544237
0.521492
0.503529
0.493992
0.489426
0.487055
0.481775
0.472032
0.454454
0.430076
0.410162
0.404752
0.0764713
0.204817
0.743608
1.0109
0.827864
0.814914
0.791818
0.742361
0.700109
0.665914
0.637083
0.604715
0.57255
0.544663
0.522054
0.503967
0.494256
0.489473
0.487057
0.481708
0.471764
0.454055
0.430102
0.41035
0.405131
0.0770304
0.200543
0.717981
1.02234
0.832949
0.814964
0.791761
0.742827
0.700506
0.666396
0.637202
0.60487
0.572531
0.544398
0.522069
0.503749
0.493807
0.488628
0.486061
0.480504
0.470085
0.452035
0.428858
0.409323
0.404363
0.0779445
0.194421
0.679775
1.03917
0.840741
0.814714
0.791357
0.743628
0.701239
0.66732
0.637591
0.605393
0.572792
0.544434
0.522351
0.503659
0.493241
0.487426
0.484582
0.478687
0.467589
0.448874
0.42679
0.407746
0.403293
0.079174
0.186939
0.63094
1.05961
0.850042
0.814559
0.790289
0.744816
0.702413
0.668537
0.638183
0.606221
0.573412
0.544756
0.522733
0.503422
0.492333
0.485858
0.482557
0.476142
0.464156
0.44495
0.42418
0.405801
0.402077
0.0808
0.178887
0.574687
1.08096
0.859327
0.814891
0.788227
0.746023
0.703803
0.670177
0.639045
0.607374
0.574445
0.545492
0.523165
0.503106
0.491148
0.484086
0.47992
0.472555
0.459539
0.440421
0.420837
0.403145
0.400417
0.0828256
0.171569
0.517472
1.09869
0.867996
0.815304
0.784712
0.746828
0.705444
0.672096
0.639943
0.609143
0.57597
0.546518
0.523528
0.502848
0.489877
0.482133
0.476623
0.467807
0.454125
0.435167
0.416455
0.399227
0.397445
0.0851071
0.166142
0.47199
1.10318
0.877526
0.81265
0.779402
0.747053
0.707542
0.674143
0.640566
0.611782
0.578071
0.547792
0.523911
0.502638
0.488729
0.479877
0.472631
0.462457
0.447884
0.428945
0.410488
0.393105
0.391211
0.0873784
0.160821
0.435024
1.0951
0.889862
0.805502
0.77301
0.747016
0.710507
0.676142
0.64152
0.61445
0.58066
0.549472
0.524329
0.502736
0.4876
0.477258
0.468147
0.456657
0.440917
0.421505
0.402348
0.383229
0.378227
0.0895051
0.154869
0.398502
1.07097
0.904545
0.795749
0.766907
0.746828
0.714886
0.678284
0.643246
0.616207
0.582999
0.551509
0.524769
0.50338
0.486082
0.474318
0.463068
0.450701
0.433401
0.412636
0.391184
0.368029
0.351481
0.0762839
0.206847
0.755077
1.00575
0.82546
0.814389
0.791317
0.74162
0.699344
0.665008
0.636298
0.603999
0.571954
0.544241
0.521496
0.503526
0.49398
0.489404
0.487032
0.481751
0.472016
0.454459
0.430086
0.41017
0.404759
0.0764736
0.20479
0.743454
1.01098
0.827898
0.814913
0.791818
0.742367
0.700116
0.665921
0.637089
0.604721
0.572554
0.544666
0.522057
0.503965
0.494245
0.489455
0.487037
0.481687
0.471748
0.454059
0.430111
0.410358
0.405138
0.0770329
0.200518
0.71783
1.02242
0.832983
0.814964
0.791761
0.742832
0.700513
0.666403
0.637209
0.604876
0.572534
0.5444
0.52207
0.503748
0.493798
0.488613
0.486044
0.480487
0.470071
0.452035
0.428866
0.409331
0.40437
0.0779476
0.194398
0.679629
1.03925
0.840775
0.814715
0.791356
0.743632
0.701245
0.667327
0.637597
0.605396
0.572792
0.544434
0.522351
0.503658
0.493237
0.487417
0.484571
0.478675
0.467577
0.448871
0.426795
0.407752
0.403299
0.0791772
0.186919
0.630806
1.05968
0.850072
0.814562
0.790286
0.74482
0.702419
0.668544
0.638189
0.606228
0.573414
0.544757
0.522733
0.503422
0.492332
0.485854
0.482552
0.476134
0.464144
0.444946
0.424184
0.405806
0.402083
0.0808035
0.178871
0.574571
1.08102
0.859351
0.814896
0.788224
0.746028
0.70381
0.670184
0.639049
0.607376
0.57445
0.545492
0.523164
0.503107
0.491149
0.484085
0.479918
0.47255
0.459528
0.440417
0.420838
0.403149
0.400423
0.0828292
0.17156
0.517388
1.09873
0.868018
0.815308
0.784709
0.746834
0.705453
0.672104
0.639951
0.609144
0.575969
0.546518
0.523527
0.50285
0.48988
0.482134
0.476623
0.467802
0.454117
0.435163
0.416455
0.39923
0.397451
0.0851104
0.166136
0.471944
1.1032
0.87755
0.812646
0.779397
0.747059
0.707553
0.674148
0.640564
0.611793
0.57808
0.547795
0.523912
0.502639
0.488732
0.479879
0.472631
0.462453
0.447878
0.42894
0.410487
0.393107
0.391217
0.0873811
0.160815
0.434986
1.0951
0.889886
0.805492
0.773006
0.747022
0.710519
0.676146
0.641527
0.614451
0.580666
0.549478
0.52433
0.502739
0.487602
0.47726
0.468147
0.456654
0.440911
0.4215
0.402345
0.38323
0.378233
0.0895071
0.154863
0.39847
1.07096
0.904567
0.795737
0.766905
0.746836
0.714901
0.678292
0.643258
0.6162
0.583003
0.551514
0.52477
0.503383
0.486084
0.474321
0.463068
0.450698
0.433395
0.412631
0.391181
0.368029
0.351488
0.0762828
0.206855
0.755121
1.00572
0.825446
0.814384
0.791314
0.741617
0.69934
0.665003
0.636296
0.603997
0.571952
0.544242
0.521495
0.503529
0.493986
0.489412
0.487039
0.481757
0.47202
0.454461
0.430085
0.410167
0.404756
0.0764727
0.204798
0.743498
1.01095
0.827884
0.814908
0.791814
0.742364
0.700112
0.665917
0.637087
0.604719
0.572553
0.544666
0.522057
0.503968
0.494251
0.489463
0.487044
0.481692
0.471752
0.45406
0.43011
0.410356
0.405136
0.0770319
0.200525
0.717873
1.02239
0.832969
0.814959
0.791758
0.742829
0.700509
0.666399
0.637206
0.604874
0.572533
0.5444
0.522071
0.50375
0.493804
0.488621
0.486051
0.480492
0.470075
0.452036
0.428865
0.409328
0.404367
0.0779464
0.194405
0.67967
1.03922
0.840761
0.81471
0.791354
0.74363
0.701242
0.667323
0.637594
0.605394
0.572791
0.544434
0.522351
0.50366
0.493242
0.487423
0.484577
0.47868
0.46758
0.448873
0.426794
0.407751
0.403298
0.079176
0.186925
0.630844
1.05966
0.85006
0.814557
0.790284
0.744817
0.702416
0.66854
0.638186
0.606226
0.573414
0.544756
0.522734
0.503424
0.492336
0.485859
0.482557
0.476139
0.464148
0.444947
0.424183
0.405805
0.402082
0.0808022
0.178876
0.574604
1.081
0.859342
0.814891
0.788223
0.746025
0.703806
0.67018
0.639047
0.607374
0.574449
0.545491
0.523165
0.503109
0.491153
0.48409
0.479923
0.472555
0.459531
0.440418
0.420838
0.403148
0.400422
0.0828279
0.171562
0.517412
1.09872
0.86801
0.815304
0.784708
0.746831
0.705449
0.6721
0.63995
0.609142
0.575968
0.546517
0.523528
0.502851
0.489883
0.482139
0.476628
0.467806
0.45412
0.435165
0.416455
0.399231
0.397451
0.0851092
0.166138
0.471957
1.10319
0.877541
0.812646
0.779397
0.747057
0.707548
0.674145
0.640563
0.611791
0.578078
0.547794
0.523912
0.502641
0.488735
0.479883
0.472635
0.462457
0.447881
0.428942
0.410488
0.393108
0.391217
0.0873801
0.160817
0.434998
1.0951
0.889877
0.805494
0.773006
0.747019
0.710514
0.676142
0.641525
0.614449
0.580664
0.549477
0.52433
0.502741
0.487605
0.477264
0.468151
0.456658
0.440915
0.421502
0.402347
0.383232
0.378232
0.0895063
0.154865
0.39848
1.07096
0.904559
0.79574
0.766905
0.746833
0.714896
0.678289
0.643256
0.616198
0.583002
0.551513
0.52477
0.503384
0.486086
0.474324
0.463071
0.450702
0.433399
0.412634
0.391184
0.368032
0.351487
0.0762811
0.206874
0.755233
1.00567
0.825427
0.814389
0.791318
0.741614
0.699338
0.665
0.636291
0.603992
0.571948
0.544237
0.521492
0.503529
0.493993
0.489426
0.487055
0.481775
0.472032
0.454454
0.430076
0.410162
0.404752
0.0764712
0.204817
0.743609
1.0109
0.827864
0.814913
0.791818
0.742361
0.700109
0.665914
0.637083
0.604715
0.57255
0.544663
0.522054
0.503967
0.494256
0.489474
0.487058
0.481708
0.471764
0.454056
0.430102
0.41035
0.405131
0.0770304
0.200543
0.717982
1.02234
0.832948
0.814964
0.791761
0.742827
0.700506
0.666396
0.637202
0.60487
0.572531
0.544398
0.522069
0.503749
0.493807
0.488628
0.486061
0.480504
0.470085
0.452035
0.428858
0.409323
0.404363
0.0779445
0.194421
0.679775
1.03917
0.840741
0.814714
0.791357
0.743628
0.701239
0.66732
0.637591
0.605393
0.572792
0.544434
0.522351
0.503659
0.493241
0.487426
0.484582
0.478687
0.467589
0.448874
0.42679
0.407746
0.403293
0.079174
0.186939
0.63094
1.05961
0.850041
0.814559
0.790289
0.744816
0.702412
0.668537
0.638183
0.606221
0.573412
0.544756
0.522733
0.503422
0.492333
0.485858
0.482558
0.476142
0.464156
0.44495
0.42418
0.405801
0.402077
0.0808
0.178887
0.574687
1.08096
0.859327
0.814891
0.788227
0.746023
0.703803
0.670177
0.639045
0.607374
0.574445
0.545492
0.523166
0.503106
0.491148
0.484086
0.47992
0.472555
0.459539
0.440422
0.420837
0.403145
0.400417
0.0828255
0.171569
0.517473
1.09869
0.867996
0.815304
0.784712
0.746828
0.705444
0.672096
0.639943
0.609143
0.57597
0.546518
0.523529
0.502848
0.489878
0.482133
0.476623
0.467807
0.454125
0.435167
0.416455
0.399227
0.397445
0.0851071
0.166142
0.47199
1.10318
0.877526
0.81265
0.779402
0.747053
0.707542
0.674143
0.640565
0.611782
0.578071
0.547792
0.523911
0.502638
0.488729
0.479877
0.472631
0.462457
0.447884
0.428945
0.410488
0.393105
0.391211
0.0873784
0.160821
0.435025
1.0951
0.889862
0.805502
0.77301
0.747016
0.710507
0.676142
0.64152
0.61445
0.58066
0.549472
0.524329
0.502737
0.4876
0.477258
0.468147
0.456657
0.440917
0.421505
0.402348
0.383229
0.378227
0.0895051
0.154869
0.398502
1.07097
0.904545
0.795749
0.766907
0.746828
0.714886
0.678284
0.643246
0.616207
0.582999
0.551509
0.524769
0.50338
0.486082
0.474319
0.463068
0.450701
0.433401
0.412636
0.391184
0.368029
0.351481
0.076282
0.206873
0.755228
1.00569
0.825438
0.814396
0.791323
0.741618
0.699343
0.665004
0.636295
0.603994
0.571948
0.544233
0.521486
0.503519
0.493978
0.489409
0.487042
0.481767
0.472033
0.454468
0.430096
0.410187
0.40478
0.0764719
0.204816
0.743606
1.01092
0.827874
0.81492
0.791823
0.742364
0.700113
0.665916
0.637086
0.604716
0.572549
0.544659
0.522048
0.503957
0.494241
0.489457
0.487044
0.481701
0.471766
0.45407
0.430122
0.410374
0.405158
0.077031
0.200543
0.717981
1.02236
0.832958
0.814971
0.791766
0.742828
0.700508
0.666397
0.637205
0.604871
0.572529
0.544393
0.522061
0.503737
0.493791
0.488611
0.486048
0.480498
0.470089
0.452048
0.428877
0.409346
0.404389
0.0779451
0.194422
0.679778
1.03918
0.840749
0.814721
0.791361
0.743629
0.701239
0.667318
0.637592
0.605391
0.572787
0.544427
0.52234
0.503647
0.493225
0.48741
0.484569
0.478682
0.467594
0.448888
0.426807
0.407767
0.403316
0.0791744
0.186941
0.630948
1.05962
0.850047
0.814564
0.790292
0.744818
0.702412
0.668536
0.638179
0.606217
0.573406
0.544751
0.522723
0.503407
0.492315
0.485842
0.482546
0.476138
0.464162
0.444962
0.424196
0.405818
0.402097
0.0808002
0.178889
0.574699
1.08097
0.859329
0.814894
0.78823
0.746027
0.703802
0.670177
0.639034
0.607369
0.574446
0.545489
0.523156
0.50309
0.491129
0.484075
0.479908
0.47255
0.459545
0.440433
0.42085
0.403159
0.400433
0.0828256
0.171572
0.517488
1.0987
0.867997
0.815305
0.784715
0.746832
0.705444
0.672097
0.639922
0.609147
0.57597
0.546515
0.523519
0.502831
0.489855
0.48212
0.476608
0.467802
0.454129
0.435177
0.416465
0.399238
0.397458
0.0851069
0.166145
0.472005
1.10319
0.877528
0.81265
0.779404
0.747057
0.707543
0.674142
0.640543
0.611788
0.578074
0.547789
0.523903
0.502622
0.48871
0.479866
0.472619
0.462453
0.447888
0.428952
0.410496
0.393113
0.391221
0.087378
0.160824
0.43504
1.09511
0.88986
0.805501
0.773011
0.747018
0.710509
0.676141
0.641506
0.614455
0.580662
0.549468
0.524321
0.502719
0.487582
0.477246
0.468136
0.456653
0.44092
0.42151
0.402353
0.383234
0.378233
0.0895046
0.154872
0.398517
1.07099
0.904534
0.795739
0.766904
0.746829
0.714889
0.678284
0.643239
0.616212
0.582999
0.551501
0.524761
0.503359
0.48607
0.474308
0.46306
0.450696
0.433402
0.41264
0.391188
0.368032
0.351484
0.0762814
0.20689
0.755323
1.00565
0.825411
0.814378
0.791308
0.741603
0.699328
0.665004
0.636267
0.603979
0.571944
0.544213
0.521481
0.503497
0.49396
0.489399
0.487042
0.481783
0.472053
0.454478
0.430092
0.410177
0.404761
0.0764738
0.204833
0.743691
1.01089
0.827854
0.814893
0.791804
0.742357
0.700099
0.665915
0.637053
0.604705
0.572548
0.544643
0.522049
0.503936
0.494226
0.489447
0.487043
0.481714
0.471785
0.454079
0.430118
0.410364
0.40514
0.0770318
0.200558
0.718064
1.02234
0.832939
0.814943
0.791747
0.742825
0.7005
0.666399
0.637187
0.604866
0.572525
0.544381
0.522054
0.503723
0.493779
0.488603
0.486045
0.480504
0.470101
0.452058
0.428874
0.409336
0.40437
0.0779442
0.194435
0.679857
1.03916
0.840723
0.814701
0.791351
0.743628
0.701237
0.667319
0.637595
0.60539
0.572784
0.544417
0.522326
0.503638
0.493217
0.487402
0.484565
0.478681
0.467598
0.448896
0.426804
0.407757
0.403298
0.0791731
0.186952
0.63102
1.0596
0.850033
0.814559
0.79029
0.744812
0.702413
0.668536
0.638199
0.606221
0.573404
0.544741
0.522709
0.503405
0.492313
0.485832
0.48254
0.476134
0.464161
0.444968
0.424194
0.405809
0.402079
0.0807987
0.178897
0.574759
1.08094
0.859326
0.814892
0.788225
0.746013
0.703804
0.670175
0.639065
0.607375
0.57443
0.545473
0.523143
0.503088
0.491129
0.484055
0.479902
0.47255
0.459543
0.440436
0.420848
0.403151
0.400416
0.082824
0.171576
0.517528
1.09869
0.867996
0.815308
0.784716
0.746821
0.705447
0.672096
0.639977
0.609126
0.575948
0.546499
0.52351
0.50283
0.489857
0.482102
0.476605
0.4678
0.454131
0.43518
0.416465
0.399232
0.397442
0.0851054
0.166147
0.472025
1.10319
0.877527
0.812664
0.779413
0.747051
0.707545
0.674147
0.640598
0.61176
0.578045
0.547774
0.523895
0.502619
0.488706
0.479848
0.472611
0.46245
0.447891
0.428956
0.410497
0.393108
0.391207
0.0873767
0.160826
0.435055
1.09512
0.889863
0.805521
0.773023
0.747016
0.710509
0.676147
0.641532
0.614436
0.580633
0.54945
0.524318
0.50271
0.487579
0.47723
0.468128
0.456649
0.440923
0.421515
0.402356
0.383232
0.378222
0.0895036
0.154873
0.398527
1.071
0.904539
0.795762
0.766918
0.74683
0.714884
0.678285
0.643243
0.616197
0.582979
0.55149
0.524755
0.503351
0.486062
0.474293
0.463052
0.450691
0.433404
0.412645
0.391192
0.368032
0.351476
0.0762825
0.206898
0.755367
1.00565
0.825415
0.814414
0.791339
0.74162
0.699348
0.665009
0.6363
0.603998
0.571952
0.544229
0.521477
0.503495
0.49394
0.489366
0.487005
0.481745
0.472035
0.454514
0.430148
0.410237
0.40484
0.0764722
0.20484
0.743743
1.01087
0.82785
0.814938
0.791838
0.742372
0.700122
0.665925
0.637085
0.604717
0.572552
0.544652
0.522041
0.50393
0.494203
0.489415
0.48701
0.481682
0.47177
0.454114
0.430171
0.410423
0.405217
0.0770318
0.200566
0.718114
1.02232
0.832933
0.814985
0.791783
0.742847
0.700524
0.666417
0.637194
0.604875
0.572538
0.544393
0.522066
0.503712
0.493757
0.488572
0.486016
0.480483
0.470097
0.45209
0.428924
0.409394
0.404445
0.0779458
0.194443
0.679904
1.03915
0.840726
0.814731
0.79138
0.743652
0.701263
0.667343
0.637582
0.6054
0.572802
0.544433
0.522354
0.503624
0.493196
0.487376
0.484541
0.478668
0.467605
0.448927
0.426849
0.40781
0.403367
0.0791745
0.186959
0.631062
1.0596
0.850031
0.814575
0.790313
0.74484
0.702434
0.668556
0.638182
0.606232
0.573426
0.544756
0.522724
0.503396
0.492293
0.485817
0.482522
0.476128
0.464172
0.444997
0.424233
0.405856
0.402141
0.0807999
0.178904
0.574798
1.08095
0.859323
0.814909
0.788256
0.746047
0.703821
0.670189
0.639056
0.60738
0.57445
0.545488
0.523154
0.503086
0.491122
0.484046
0.479895
0.472551
0.459553
0.440461
0.420882
0.403192
0.400471
0.0828251
0.171582
0.517563
1.09871
0.867996
0.815326
0.784746
0.746854
0.705465
0.672105
0.63998
0.609136
0.575968
0.546509
0.52351
0.502831
0.489853
0.482096
0.476603
0.467802
0.454141
0.435201
0.416493
0.399266
0.397491
0.0851067
0.166152
0.47205
1.10322
0.877526
0.812678
0.779439
0.747083
0.707566
0.674153
0.640597
0.611776
0.578067
0.547785
0.523895
0.502622
0.48871
0.479848
0.472611
0.462451
0.447899
0.428974
0.41052
0.393136
0.391249
0.087378
0.160831
0.435078
1.09516
0.889861
0.80553
0.773047
0.747046
0.710531
0.676153
0.641547
0.614438
0.580657
0.549472
0.524311
0.502727
0.487577
0.477229
0.468124
0.45665
0.440929
0.421529
0.402373
0.383253
0.378257
0.0895048
0.154878
0.398549
1.07106
0.904542
0.795768
0.766938
0.746858
0.71491
0.678298
0.643266
0.616191
0.582998
0.551512
0.524757
0.503374
0.486054
0.474289
0.463043
0.450695
0.43341
0.412657
0.391206
0.368048
0.351501
0.0913943
0.14751
0.363966
1.03392
0.921486
0.786481
0.762707
0.747164
0.72021
0.680745
0.644971
0.617013
0.584826
0.553505
0.525844
0.504346
0.484613
0.471226
0.45804
0.44451
0.425534
0.402622
0.37664
0.343695
0.281491
0.0932048
0.139662
0.32931
0.972364
0.924127
0.786368
0.763047
0.750247
0.726263
0.682895
0.645973
0.616714
0.586208
0.5554
0.527361
0.504983
0.483616
0.468197
0.453652
0.438038
0.417633
0.392457
0.36176
0.320352
0.257809
0.0947599
0.130851
0.284367
0.849643
0.9308
0.806331
0.776715
0.76114
0.7287
0.683498
0.646391
0.615628
0.58811
0.557838
0.529359
0.505714
0.483361
0.465702
0.449605
0.431843
0.410703
0.384008
0.351466
0.309002
0.258046
0.0962225
0.122845
0.237576
0.659813
0.978893
0.835285
0.795138
0.77178
0.729747
0.683479
0.646399
0.615177
0.589922
0.560532
0.531914
0.506115
0.483673
0.463122
0.445805
0.426485
0.405396
0.378245
0.346044
0.307616
0.260643
0.0980513
0.117994
0.203835
0.492661
1.00646
0.859858
0.809998
0.778104
0.731548
0.683911
0.646857
0.615588
0.591105
0.563037
0.534456
0.507326
0.484225
0.461289
0.442662
0.422504
0.401327
0.374708
0.344051
0.308307
0.267176
0.100193
0.115462
0.18589
0.416713
0.993613
0.882841
0.824
0.780518
0.733028
0.685921
0.648772
0.617379
0.592509
0.565422
0.536574
0.508901
0.484977
0.461113
0.440606
0.4202
0.3981
0.372911
0.344207
0.310707
0.27671
0.102113
0.113166
0.170296
0.368288
0.955198
0.911046
0.82671
0.776634
0.732253
0.68901
0.652911
0.621625
0.593576
0.568965
0.539521
0.511391
0.485589
0.461798
0.439241
0.418652
0.396365
0.372687
0.345265
0.315828
0.285758
0.102942
0.109648
0.15271
0.316924
0.871187
0.922242
0.839229
0.772347
0.730677
0.692144
0.65748
0.625834
0.596182
0.571801
0.542768
0.514327
0.487311
0.463444
0.439555
0.418418
0.396346
0.372913
0.347968
0.321616
0.294088
0.101829
0.104453
0.132001
0.248672
0.701303
0.951602
0.849251
0.772029
0.730096
0.696444
0.662398
0.63022
0.6
0.574536
0.546339
0.518037
0.490729
0.465647
0.441118
0.418541
0.396773
0.374025
0.351288
0.327423
0.30194
0.0989553
0.0981361
0.115132
0.189643
0.442026
0.949202
0.858081
0.776098
0.734178
0.702601
0.667628
0.634694
0.604499
0.576726
0.551919
0.523684
0.495824
0.468885
0.444203
0.419784
0.398176
0.376576
0.354777
0.332568
0.309133
0.0966241
0.0909156
0.103244
0.157001
0.346753
0.897948
0.863604
0.792484
0.746613
0.708948
0.672652
0.63907
0.609151
0.580983
0.558029
0.530303
0.501809
0.474125
0.448376
0.423381
0.400559
0.380083
0.358802
0.337312
0.316068
0.0947683
0.0845085
0.0935025
0.133149
0.281212
0.780603
0.865498
0.817112
0.756649
0.7141
0.677315
0.644166
0.614663
0.58707
0.564514
0.537604
0.509157
0.481184
0.454103
0.429475
0.404859
0.383792
0.363207
0.342606
0.32257
0.0936133
0.0789963
0.0848947
0.110613
0.209474
0.573481
0.880632
0.833009
0.766052
0.719886
0.682042
0.649953
0.621292
0.594555
0.570037
0.54574
0.517374
0.489056
0.461524
0.435742
0.411877
0.388228
0.368076
0.348283
0.329085
0.0927427
0.0748203
0.078795
0.0955195
0.157358
0.366231
0.859732
0.837742
0.780388
0.726476
0.68768
0.657086
0.629208
0.602494
0.57642
0.554143
0.526275
0.497974
0.470307
0.443437
0.419286
0.395036
0.374027
0.354637
0.335995
0.0920269
0.0714915
0.0742354
0.0855492
0.126272
0.275183
0.759765
0.835195
0.79936
0.73573
0.696824
0.665872
0.637863
0.610922
0.584418
0.560942
0.535012
0.507412
0.479569
0.452558
0.427298
0.403766
0.381111
0.361606
0.34335
0.0914833
0.0688487
0.0706549
0.0779155
0.10297
0.194934
0.531354
0.831619
0.808795
0.752481
0.708412
0.675556
0.646763
0.619498
0.592466
0.566501
0.545014
0.517519
0.489612
0.462698
0.436834
0.412826
0.390481
0.369312
0.351153
0.0910662
0.0668909
0.0680967
0.0728574
0.0886129
0.143214
0.331005
0.79123
0.805513
0.775983
0.7248
0.686586
0.655512
0.627546
0.600556
0.574377
0.551831
0.527425
0.500081
0.473048
0.447272
0.422769
0.400241
0.378997
0.359432
0.0907613
0.0653931
0.0661799
0.069284
0.079259
0.112335
0.233602
0.648466
0.803247
0.782987
0.739242
0.69724
0.663634
0.635292
0.608838
0.582646
0.557731
0.537505
0.510728
0.483936
0.458062
0.433586
0.410641
0.389329
0.369472
0.0905409
0.0643177
0.0648185
0.0668135
0.0729926
0.0923346
0.159459
0.381697
0.785895
0.782279
0.758346
0.713169
0.674209
0.643864
0.616964
0.591239
0.566027
0.543671
0.521609
0.495257
0.469497
0.445007
0.421932
0.400406
0.380423
0.0903884
0.0635548
0.0638618
0.0651256
0.0689729
0.0806123
0.119076
0.258088
0.678523
0.779457
0.765543
0.727096
0.685409
0.653021
0.625641
0.599997
0.574804
0.550328
0.53116
0.506424
0.481596
0.457191
0.434062
0.41237
0.39217
0.0903077
0.0630548
0.0632335
0.0640126
0.0663724
0.0731847
0.0940941
0.167169
0.414987
0.761926
0.763983
0.744462
0.702427
0.665066
0.634906
0.608581
0.583888
0.559225
0.537587
0.518064
0.494036
0.47005
0.446998
0.42521
0.404848
0.0903333
0.0627634
0.0628561
0.0633217
0.0647512
0.0687955
0.0807973
0.120491
0.262171
0.661456
0.758886
0.747999
0.717759
0.678789
0.646186
0.618025
0.592987
0.568739
0.545957
0.527625
0.50547
0.483023
0.460377
0.438622
0.418337
0.0904404
0.0626632
0.0627081
0.0629658
0.0637632
0.0660803
0.072726
0.0931275
0.164462
0.402974
0.732927
0.745244
0.730004
0.696344
0.658093
0.627857
0.602249
0.57875
0.555817
0.534853
0.517753
0.495718
0.474022
0.452737
0.432487
0.0904876
0.0628092
0.06248
0.0626094
0.0630702
0.0644077
0.0681359
0.0791567
0.115469
0.245152
0.61861
0.735768
0.729574
0.71107
0.676519
0.641105
0.612522
0.588926
0.566458
0.545218
0.526303
0.509174
0.488069
0.467413
0.447158
0.0905022
0.0629212
0.0623133
0.0623839
0.0626441
0.0633984
0.0654885
0.0713606
0.0892822
0.151029
0.346816
0.69365
0.725414
0.715985
0.692506
0.655497
0.624545
0.599885
0.577541
0.556365
0.536179
0.520861
0.501402
0.48183
0.462779
0.0905067
0.0629853
0.0622115
0.062249
0.0623904
0.0628009
0.0639335
0.0670271
0.076046
0.105159
0.209035
0.532516
0.706348
0.713535
0.702255
0.674177
0.638313
0.611668
0.589108
0.568306
0.548131
0.530168
0.51584
0.496803
0.478312
0.0905053
0.0630179
0.0621531
0.0621717
0.0622452
0.0624625
0.063061
0.0646998
0.0692651
0.0832201
0.131085
0.287932
0.627033
0.705349
0.701469
0.687734
0.659068
0.62526
0.601352
0.580254
0.560767
0.542662
0.52668
0.512504
0.494534
0.0905015
0.0630329
0.0621202
0.0621285
0.062165
0.0622754
0.0625832
0.0634213
0.065713
0.0722668
0.0927791
0.164907
0.393739
0.665537
0.695896
0.689469
0.673571
0.64462
0.615326
0.59345
0.574102
0.556186
0.538826
0.526879
0.510593
0.0904999
0.0630374
0.0621023
0.0621057
0.0621233
0.0621774
0.0623283
0.0627394
0.0638658
0.0669787
0.0762409
0.106814
0.213567
0.518373
0.672262
0.685733
0.678603
0.661106
0.63309
0.608444
0.587989
0.570307
0.552969
0.538515
0.5279
0.0905005
0.063034
0.062102
0.0620922
0.0620986
0.0621222
0.0621922
0.0623881
0.0629237
0.0644089
0.0685977
0.081606
0.126317
0.269361
0.580288
0.670802
0.675756
0.668738
0.651232
0.624945
0.603654
0.585506
0.568825
0.553425
0.542393
0.090501
0.0630312
0.0621055
0.0620821
0.0620848
0.0620953
0.0621267
0.0622154
0.0624618
0.0631403
0.0650345
0.070508