/*--------------------------------*- C++ -*----------------------------------*\
| =========                 |                                                 |
| \\      /  F ield         | OpenFOAM: The Open Source CFD Toolbox           |
|  \\    /   O peration     | Version:  4.1                                   |
|   \\  /    A nd           | Web:      www.OpenFOAM.org                      |
|    \\/     M anipulation  |                                                 |
\*---------------------------------------------------------------------------*/
FoamFile
{
    version     2.0;
    format      ascii;
    class       surfaceScalarField;
    location    "0.76";
    object      phi;
}
// * * * * * * * * * * * * * * * * * * * * * * * * * * * * * * * * * * * * * //

dimensions      [1 0 -1 0 0 0 0];

internalField   nonuniform List<scalar> 
150500
(
0.001634
-1.13479e-06
1.21046e-11
0.00165063
7.7944e-06
-9.42956e-11
0.000935328
0.000130637
-5.60643e-10
0.00116493
0.000149872
3.77284e-10
0.00117644
0.000110959
2.22339e-10
0.0011269
0.000109033
1.99742e-10
0.00109575
0.000106469
1.85756e-10
0.00108545
0.000100958
1.80434e-10
0.00108164
9.58323e-05
1.6703e-10
0.0010822
8.88957e-05
1.16315e-10
0.00115779
8.97959e-05
1.51231e-10
0.00119745
9.05551e-05
1.42467e-10
0.00117843
8.58206e-05
9.76947e-11
0.00112199
7.99431e-05
1.1462e-10
0.00100847
7.49672e-05
6.75343e-11
0.000891221
7.22024e-05
4.92574e-11
0.000794317
7.40863e-05
-3.7704e-11
0.000715774
7.97449e-05
-1.22835e-10
0.000647709
8.54376e-05
-1.50986e-10
0.000581587
9.05701e-05
-1.72859e-10
0.000520006
9.62817e-05
-1.08799e-10
0.000433206
0.000100725
1.26476e-10
0.000310222
0.000103994
2.50826e-10
0.000170314
0.000109415
2.9124e-10
0.000116513
3.53798e-10
0.00163845
-2.84649e-06
-3.26722e-12
0.00165769
1.53423e-05
-9.23811e-11
0.000948487
0.000253846
-5.01097e-10
0.0011664
0.000307302
3.28913e-10
0.00117756
0.000220196
1.86839e-10
0.00112531
0.000217935
2.65206e-10
0.00109123
0.000215523
2.07391e-10
0.00108087
0.0002034
1.21568e-10
0.00107824
0.000191044
1.59856e-10
0.00108005
0.000176905
1.06128e-10
0.00115667
0.000178553
1.97431e-10
0.00119893
0.0001788
1.16714e-10
0.0011826
0.000169856
7.20879e-11
0.00112809
0.000159382
9.88912e-11
0.00101631
0.000150005
2.39397e-11
0.0008989
0.000145213
5.73997e-11
0.000801705
0.000148608
-3.58034e-11
0.000722394
0.00015972
-1.0495e-10
0.000654618
0.000171079
-1.27026e-10
0.000587634
0.000181402
-1.47904e-10
0.000524822
0.00019318
-9.62452e-11
0.000437867
0.000202786
1.19662e-10
0.000313987
0.000209818
2.39183e-10
0.000172216
0.00022013
2.82665e-10
0.000233536
3.41751e-10
0.00164778
-4.53128e-06
2.23182e-12
0.00167406
2.10792e-05
-7.84559e-11
0.000988444
0.000350855
-4.68817e-10
0.00118765
0.000476917
2.38068e-10
0.00118766
0.000336304
1.80912e-10
0.00112988
0.0003266
2.80702e-10
0.00109152
0.000324627
2.0703e-10
0.00108463
0.000305298
8.91381e-11
0.00108416
0.000284608
1.35393e-10
0.00108568
0.000264184
8.12255e-11
0.00116114
0.000266939
1.63872e-10
0.00120522
0.000266702
9.30745e-11
0.00119093
0.000254623
6.82305e-11
0.00113708
0.000239852
7.73493e-11
0.00102803
0.000226295
4.83553e-11
0.00091011
0.000218628
4.04607e-11
0.00081278
0.000223057
-3.05199e-11
0.000732651
0.000239065
-8.86203e-11
0.000665908
0.000256298
-1.00163e-10
0.000597645
0.000272571
-9.5483e-11
0.000532792
0.000290962
-4.99945e-11
0.000446314
0.000306498
1.03374e-10
0.000321897
0.000317523
2.2112e-10
0.000177308
0.000332798
2.69946e-10
0.000353532
3.24066e-10
0.00166182
-6.00965e-06
1.29646e-11
0.001699
2.44649e-05
-6.51024e-11
0.0010539
0.00041113
-4.26867e-10
0.00122423
0.000663825
2.76706e-10
0.00120501
0.000461833
2.3002e-10
0.00113816
0.000435458
2.37119e-10
0.00109369
0.000432927
1.54278e-10
0.0010915
0.000407632
6.93048e-11
0.00109332
0.000376712
9.89382e-11
0.00109246
0.000351206
7.18271e-11
0.00116642
0.000353885
8.42665e-11
0.00121333
0.000355179
6.38939e-11
0.00120184
0.000340607
4.29493e-11
0.00114944
0.00032074
6.26556e-11
0.00104478
0.000303337
6.85275e-11
0.000926663
0.000293352
6.41084e-12
0.000829748
0.00029768
-3.47156e-11
0.00074826
0.000317776
-5.5117e-11
0.000681863
0.000341646
-5.67867e-11
0.0006128
0.000363997
-3.7912e-11
0.000546057
0.000389041
8.70938e-12
0.000460029
0.000410172
9.49132e-11
0.000335905
0.000426579
1.92158e-10
0.00018616
0.000448509
2.4338e-10
0.000478192
2.92538e-10
0.00167998
-7.47494e-06
1.55862e-11
0.00173264
2.52515e-05
-5.0763e-11
0.00114738
0.000429404
-3.59775e-10
0.00127376
0.000871527
3.19722e-10
0.00122812
0.000594955
1.63276e-10
0.00114949
0.000546845
1.41147e-10
0.00109837
0.000539262
1.08861e-10
0.00109973
0.000510668
9.4495e-11
0.00110586
0.000468025
8.88775e-11
0.00110277
0.00043898
7.43405e-11
0.00117305
0.000440395
2.97145e-12
0.00122345
0.000443824
4.86612e-11
0.00121587
0.000427924
3.89174e-11
0.00116496
0.000403659
5.83783e-11
0.00106635
0.000382175
7.44109e-11
0.00094751
0.000369082
-3.29599e-12
0.000850907
0.000372348
-3.00275e-11
0.000767883
0.000395227
-1.7728e-11
0.000702544
0.000426044
-1.65196e-11
0.000633388
0.000455804
9.48049e-12
0.000565397
0.000487703
4.57472e-11
0.000479538
0.000513402
9.41094e-11
0.000355106
0.000537957
1.64189e-10
0.000199197
0.000568434
2.10733e-10
0.00061112
2.61905e-10
0.0017017
-8.48239e-06
1.70695e-11
0.00177604
2.3982e-05
-3.08142e-11
0.00127538
0.000407289
-2.63319e-10
0.00133674
0.00110162
3.0807e-10
0.00126119
0.00073217
9.9801e-11
0.00116272
0.000665586
1.20476e-10
0.00110342
0.00064214
1.26714e-10
0.00110821
0.000613025
1.46034e-10
0.00112075
0.000559418
9.04075e-11
0.00111559
0.000527389
8.34894e-11
0.00118087
0.00052596
-6.91438e-11
0.00123522
0.000532364
-2.75738e-12
0.00123221
0.000516122
9.96133e-11
0.00118337
0.000487865
9.20164e-11
0.001092
0.000462523
6.47956e-11
0.000972455
0.000445683
8.86245e-12
0.000875927
0.00044695
-2.08814e-11
0.000792026
0.000471181
5.18735e-11
0.000727731
0.000509485
1.50638e-11
0.000659249
0.000548275
2.3092e-11
0.000592372
0.00058471
6.27354e-11
0.000506378
0.000616063
9.47197e-11
0.000380826
0.000652058
1.38172e-10
0.000217076
0.000694696
1.77246e-10
0.00075775
2.27818e-10
0.00172577
-8.7129e-06
1.64282e-11
0.00182531
2.34448e-05
-7.56058e-12
0.00143794
0.000362975
-1.33859e-10
0.00140225
0.00135067
2.58935e-10
0.00130845
0.000872948
8.57471e-11
0.0011745
0.000788621
9.38057e-11
0.00110723
0.000738512
9.67947e-11
0.00111604
0.000712931
1.38596e-10
0.00113773
0.000651776
8.24733e-11
0.00113163
0.000617617
7.3575e-11
0.00119026
0.000611757
-1.72002e-10
0.00124832
0.000619145
1.07326e-10
0.00125051
0.000604427
1.25612e-10
0.00120479
0.000573372
1.03913e-10
0.00112205
0.000544391
3.38395e-11
0.00100241
0.00052348
4.88838e-12
0.000904934
0.000520984
-1.99149e-11
0.000821425
0.000545699
6.86781e-11
0.000758614
0.000591569
1.65103e-11
0.000693921
0.000636615
4.21828e-11
0.000628684
0.000678904
6.14063e-11
0.000542053
0.000719496
8.63293e-11
0.00041565
0.000768597
1.11389e-10
0.000243586
0.000828904
1.42021e-10
0.000929623
1.9867e-10
0.00174966
-8.42646e-06
1.52699e-11
0.00184629
2.59439e-05
3.80227e-12
0.00158361
0.000336683
-2.25198e-11
0.00144257
0.00159501
2.08633e-10
0.00134562
0.00102319
8.49289e-11
0.0011793
0.000894968
3.07624e-11
0.00111102
0.000824779
5.27866e-11
0.00112511
0.000809387
1.12427e-10
0.0011572
0.000748143
8.00594e-11
0.00115051
0.00071172
2.83485e-11
0.0011983
0.000697258
-2.19547e-10
0.0012624
0.000703538
1.83642e-10
0.00127085
0.000691659
2.09477e-10
0.00122925
0.000659634
1.17232e-10
0.00115566
0.000627107
4.34015e-11
0.00103725
0.000602094
9.21496e-12
0.000938458
0.000594696
9.67882e-12
0.000856973
0.000618437
7.94732e-11
0.000797631
0.000667931
4.3202e-11
0.00073682
0.000721416
5.45244e-11
0.00067259
0.000770623
6.13369e-11
0.000588774
0.000819941
7.80551e-11
0.000462659
0.000886558
8.88661e-11
0.00028288
0.000972871
1.0923e-10
0.00114002
1.70345e-10
0.00177417
-7.91732e-06
1.29107e-11
0.00185133
2.8913e-05
5.97267e-12
0.00161389
0.000315174
5.35663e-12
0.00145861
0.00178337
2.11818e-10
0.00136341
0.00118949
7.26617e-11
0.00117613
0.00098529
-1.93924e-11
0.00111811
0.000898746
3.65319e-11
0.00113938
0.000900952
1.00317e-10
0.00117991
0.000851164
8.86758e-11
0.00117188
0.000810256
1.10559e-11
0.00120385
0.000780735
-4.58966e-11
0.00127551
0.000787191
1.05769e-10
0.00129292
0.000778492
2.05141e-10
0.00125672
0.000745874
1.47361e-10
0.00119258
0.000710963
1.57047e-11
0.00107764
0.000680189
5.29749e-11
0.000976944
0.00066868
5.87059e-12
0.000897705
0.000688999
7.46458e-11
0.000841544
0.000740461
4.23523e-11
0.000786289
0.000799539
6.89279e-11
0.000725678
0.000855915
6.28382e-11
0.000647476
0.000915705
7.27507e-11
0.00052708
0.00100192
6.95322e-11
0.000347561
0.00111892
8.0442e-11
0.00141782
1.38662e-10
0.00180024
9.48065e-12
-7.48281e-06
0.00185296
5.21481e-12
3.14074e-05
0.00164317
2.01502e-11
0.000292607
0.00144255
2.48896e-10
0.00194664
0.00135713
6.14436e-11
0.00137214
0.00116842
-4.95989e-11
0.00105325
0.00113453
3.98763e-11
0.000962469
0.00116408
1.02292e-10
0.00098962
0.00120596
1.2049e-10
0.000963244
0.00119372
5.822e-11
0.000912254
0.00120964
7.09454e-11
0.000865399
0.00128476
7.23642e-11
0.000869009
0.00131465
1.47826e-10
0.000864977
0.00128798
1.0291e-10
0.000833432
0.00122996
3.71296e-11
0.000794746
0.0011233
4.71961e-11
0.000761308
0.00102013
3.36524e-11
0.000742975
0.00094348
7.47343e-11
0.000757515
0.000889848
4.85618e-11
0.000807743
0.000843204
8.10222e-11
0.000868953
0.00079079
6.63011e-11
0.000932197
0.000723554
6.50586e-11
0.0010011
0.00061892
5.94222e-11
0.00110431
0.000452962
5.60903e-11
0.00125771
9.57274e-11
0.00180604
0.00163396
-1.14278e-06
-2.75683e-12
0.00165055
7.80276e-06
8.14115e-11
0.000935079
0.000130846
5.00576e-10
0.00116464
0.000149939
-1.8903e-10
0.00117631
0.000110893
-1.22387e-10
0.0011268
0.000109094
-8.28548e-11
0.00109551
0.000106615
-7.17434e-11
0.00108501
0.00010107
-6.87051e-11
0.00108114
9.58894e-05
-6.65013e-11
0.00108188
8.88259e-05
3.18589e-13
0.00115755
8.96826e-05
-1.45072e-10
0.00119738
9.03213e-05
-7.10423e-11
0.0011785
8.56507e-05
-1.88069e-11
0.00112207
7.99115e-05
-1.12372e-10
0.00100857
7.49937e-05
-2.36051e-11
0.000891272
7.22897e-05
-1.29561e-10
0.000794348
7.41596e-05
-9.84823e-11
0.00071579
7.9807e-05
-4.30004e-11
0.000647724
8.54767e-05
2.36637e-12
0.000581581
9.05955e-05
7.57491e-11
0.000519945
9.62901e-05
1.08449e-10
0.000433026
0.00010071
4.23732e-11
0.000310065
0.000103985
-2.32858e-11
0.000170223
0.000109408
-5.00365e-11
0.000116508
-9.08085e-11
0.00163841
-2.84232e-06
1.07819e-11
0.00165761
1.53542e-05
8.06768e-11
0.000948572
0.000253901
4.53907e-10
0.00116676
0.000307226
-1.53282e-10
0.00117791
0.000220257
-9.38682e-11
0.00112576
0.000217926
-1.25705e-10
0.0010919
0.000215458
-8.73749e-11
0.00108167
0.00020333
-3.16999e-11
0.00107913
0.000190924
-6.28792e-11
0.00108078
0.000176713
-3.08927e-12
0.0011574
0.000178231
-1.69459e-10
0.00119981
0.000178664
-5.0141e-11
0.00118339
0.000169999
-5.71195e-12
0.00112861
0.000159633
-8.79462e-11
0.00101668
0.000150332
7.31199e-12
0.000899066
0.000145418
-1.22288e-10
0.000801779
0.000148763
-7.04753e-11
0.000722421
0.000159817
-4.5804e-11
0.000654642
0.000171161
-4.95209e-12
0.00058763
0.000181473
6.06341e-11
0.000524752
0.000193218
1.03208e-10
0.00043769
0.000202762
3.98859e-11
0.000313827
0.000209801
-2.17894e-11
0.000172121
0.000220112
-4.96035e-11
0.000233515
-8.96174e-11
0.00164775
-4.52222e-06
3.94737e-12
0.00167399
2.1092e-05
7.1105e-11
0.000988345
0.000350909
4.41118e-10
0.00118778
0.000476797
-8.4239e-11
0.00118791
0.000336269
-8.74423e-11
0.00113025
0.000326496
-1.31243e-10
0.001092
0.000324483
-8.63747e-11
0.00108513
0.000305165
-1.39151e-11
0.00108461
0.000284416
-3.69037e-11
0.00108585
0.000263965
7.69186e-12
0.00116125
0.00026661
-8.17928e-11
0.00120544
0.000266698
-2.30992e-11
0.00119114
0.00025489
-1.49072e-11
0.00113721
0.000240203
-6.09312e-11
0.00102809
0.000226686
-3.68502e-11
0.000910113
0.000218882
-8.31952e-11
0.000812748
0.000223267
-5.00709e-11
0.00073262
0.000239201
-3.66296e-11
0.000665859
0.000256407
-9.4819e-12
0.000597578
0.000272661
2.76561e-11
0.000532703
0.000291012
7.12312e-11
0.000446151
0.000306466
3.85332e-11
0.000321745
0.000317497
-1.86101e-11
0.000177217
0.000332765
-4.89205e-11
0.000353493
-8.79888e-11
0.00166179
-6.00675e-06
-3.74813e-12
0.00169894
2.4479e-05
6.42154e-11
0.00105376
0.000411259
4.25947e-10
0.00122418
0.000663656
-1.06802e-10
0.00120507
0.000461709
-1.21631e-10
0.00113833
0.000435327
-9.04498e-11
0.00109391
0.000432778
-4.4345e-11
0.00109164
0.000407489
-2.88993e-12
0.00109339
0.000376577
-6.46136e-12
0.00109237
0.000351146
5.5192e-12
0.00116623
0.00035372
1.24925e-11
0.00121309
0.000355304
-2.99719e-12
0.00120153
0.000340962
-1.65466e-11
0.0011491
0.000321163
-5.15066e-11
0.00104439
0.000303697
-8.0167e-11
0.000926381
0.000293616
-5.58591e-11
0.000829543
0.000297855
-3.14877e-11
0.000748123
0.000317925
-2.95424e-11
0.000681721
0.000341746
-1.99284e-11
0.000612652
0.000364058
-4.27178e-12
0.000545936
0.000389063
2.36681e-11
0.000459879
0.000410135
3.32461e-11
0.000335767
0.000426542
-1.3955e-11
0.000186074
0.00044846
-4.66666e-11
0.000478137
-8.58646e-11
0.00167995
-7.47425e-06
-5.64657e-12
0.00173258
2.52671e-05
5.64114e-11
0.00114727
0.000429581
3.92699e-10
0.00127365
0.000871364
-1.26618e-10
0.00122811
0.000594833
-6.67501e-11
0.00114952
0.00054671
-1.96623e-11
0.00109839
0.000539129
-8.6244e-12
0.00109966
0.000510548
-2.86828e-11
0.0011057
0.00046795
3.71561e-12
0.00110268
0.000438919
2.36773e-12
0.00117297
0.000440577
1.20716e-10
0.0012231
0.000444131
1.93435e-11
0.00121532
0.000428349
-9.48227e-12
0.0011644
0.000404051
-5.38232e-11
0.00106571
0.000382484
-8.07116e-11
0.000946997
0.000369212
-1.19792e-11
0.000850504
0.000372411
-9.6323e-12
0.000767609
0.000395279
-4.40813e-11
0.000702309
0.000426068
-3.19492e-11
0.000633181
0.000455802
-2.3507e-11
0.000565246
0.00048769
-5.31527e-12
0.000479393
0.000513356
2.59189e-11
0.000354986
0.0005379
-1.01459e-11
0.000199126
0.000568367
-4.30086e-11
0.000611053
-8.33361e-11
0.00170168
-8.48361e-06
-6.7214e-12
0.00177598
2.39934e-05
4.32243e-11
0.00127531
0.000407446
3.29752e-10
0.00133667
0.00110149
-9.8734e-11
0.00126116
0.000732084
-1.55868e-11
0.00116273
0.000665466
-9.32302e-12
0.00110338
0.000642063
-2.112e-11
0.00110805
0.000612986
-6.40138e-11
0.00112047
0.000559457
8.30536e-12
0.00111527
0.000527517
-8.09364e-12
0.00118062
0.000526209
1.70637e-10
0.00123471
0.000532767
3.29922e-11
0.00123143
0.00051648
-7.94612e-11
0.00118259
0.000488061
-8.33733e-11
0.00109118
0.000462581
-7.77201e-11
0.000971882
0.000445621
-1.08484e-11
0.000875496
0.000446868
1.88139e-12
0.000791694
0.00047114
-1.15761e-10
0.000727479
0.000509413
-3.86157e-11
0.000659029
0.000548213
-1.70319e-12
0.000592198
0.00058465
-8.97283e-12
0.000506241
0.000615995
1.38422e-11
0.000380717
0.000651991
-7.82951e-12
0.000217013
0.000694615
-3.80635e-11
0.000757666
-8.00816e-11
0.00172575
-8.71409e-06
-6.76865e-12
0.00182528
2.34488e-05
2.5141e-11
0.00143791
0.000363066
2.29194e-10
0.00140223
0.0013506
-4.24137e-11
0.00130841
0.000872897
-6.11545e-12
0.00117451
0.00078857
6.47524e-12
0.00110719
0.000738529
5.47324e-12
0.00111588
0.000713015
-5.22623e-11
0.00113747
0.000651963
1.51889e-11
0.00113138
0.000617894
-1.76636e-12
0.00119019
0.000612134
2.96734e-10
0.00124783
0.000619724
-1.06577e-10
0.0012496
0.000604694
-1.11842e-10
0.00120381
0.000573308
-8.76185e-11
0.00112094
0.00054414
-5.44406e-11
0.00100166
0.000523113
-5.73528e-12
0.000904505
0.000520751
8.28521e-12
0.000821098
0.000545539
-1.06778e-10
0.000758399
0.000591455
-1.29753e-11
0.000693726
0.000636511
-1.22832e-11
0.000628522
0.000678815
6.43492e-12
0.000541924
0.000719415
1.50859e-11
0.000415557
0.000768516
-2.74503e-12
0.000243531
0.000828817
-3.08053e-11
0.000929548
-7.44516e-11
0.00174965
-8.42822e-06
-6.50448e-12
0.0018463
2.59447e-05
1.41168e-11
0.00158371
0.000336732
1.23084e-10
0.00144259
0.001595
1.25555e-11
0.00134562
0.00102318
-4.44935e-12
0.00117932
0.000894999
8.26425e-11
0.00111099
0.000824864
5.23461e-11
0.001125
0.000809557
-2.5556e-11
0.00115698
0.00074843
1.24348e-11
0.00115027
0.00071204
2.10335e-11
0.00119853
0.000697817
2.81212e-10
0.00126207
0.000704213
-1.41966e-10
0.00127002
0.000691864
-1.43162e-10
0.00122831
0.000659413
-7.68307e-11
0.00115455
0.000626678
-4.87624e-11
0.00103645
0.000601629
-1.18603e-11
0.000938011
0.000594374
-1.33478e-11
0.000856652
0.000618209
-1.03907e-10
0.000797436
0.000667798
-4.54108e-11
0.000736647
0.000721295
-1.43748e-11
0.000672442
0.000770509
1.33893e-11
0.000588661
0.000819837
1.77346e-11
0.000462581
0.000886477
2.97996e-12
0.000282836
0.000972784
-2.21991e-11
0.00113993
-6.63702e-11
0.00177416
-7.91992e-06
-5.68582e-12
0.00185135
2.89121e-05
9.70761e-12
0.00161399
0.000315203
8.68871e-11
0.00145866
0.00178336
3.54721e-11
0.00136344
0.00118952
1.09176e-11
0.00117616
0.000985357
1.17798e-10
0.00111808
0.000898858
7.32461e-11
0.00113929
0.000901164
-8.66456e-12
0.00117973
0.000851481
-3.35548e-13
0.00117162
0.000810613
3.71363e-11
0.00120414
0.000781375
1.35231e-10
0.00127538
0.000787794
-9.27877e-11
0.00129231
0.000778584
-1.40091e-10
0.00125598
0.000745604
-8.85639e-11
0.00119175
0.000710554
-1.87783e-11
0.00107698
0.000679715
-5.18898e-11
0.000976552
0.000668382
-1.66152e-11
0.00089742
0.000688778
-9.13018e-11
0.000841372
0.000740325
-4.37812e-11
0.000786133
0.00079941
-1.87361e-11
0.000725545
0.000855784
1.30987e-11
0.000647375
0.00091558
1.84017e-11
0.00052702
0.00100184
1.05035e-11
0.000347528
0.00111884
-1.20283e-11
0.00141772
-5.44236e-11
0.00180024
-4.64094e-12
-7.48475e-06
0.00185299
7.1799e-12
3.14074e-05
0.00164326
5.44741e-11
0.000292624
0.00144263
3.92395e-11
0.00194662
0.00135719
3.2558e-11
0.0013722
0.00116846
1.2618e-10
0.00105335
0.00113452
8.33751e-11
0.000962578
0.00116402
6.57519e-12
0.000989842
0.00120586
-1.9241e-11
0.000963558
0.00119356
2.62435e-12
0.000912588
0.00120986
2.23449e-11
0.000865956
0.00128478
-7.69522e-11
0.000869492
0.00131432
-9.58555e-11
0.000865013
0.00128755
-5.39591e-11
0.000833227
0.00122948
-3.30758e-11
0.000794419
0.00112289
-4.32302e-11
0.000760986
0.00101985
-5.004e-11
0.000742752
0.00094326
-8.40548e-11
0.00075732
0.000889716
-4.48464e-11
0.000807601
0.000843081
-2.49218e-11
0.000868797
0.00079068
1.26894e-11
0.000932056
0.00072347
2.01613e-11
0.00100097
0.000618878
1.45379e-11
0.00110422
0.000452934
-1.11336e-12
0.00125764
-3.54441e-11
0.00180593
0.00163399
-1.1371e-06
3.88696e-12
0.00165061
7.79672e-06
-3.44653e-12
0.000935315
0.000130697
-1.92544e-11
0.00116486
0.000149895
9.15774e-11
0.00117641
0.000110954
5.05411e-11
0.00112687
0.000109076
3.01634e-11
0.00109566
0.000106561
2.25527e-11
0.00108522
0.000101071
1.90286e-11
0.00108132
9.59611e-05
2.09981e-11
0.00108197
8.89667e-05
1.95929e-11
0.00115754
8.98643e-05
1.71636e-11
0.001197
9.04966e-05
9.71604e-12
0.00117791
8.56951e-05
-2.42941e-12
0.00112151
7.98397e-05
-1.75178e-11
0.00100806
7.48844e-05
-2.69305e-11
0.000890971
7.21732e-05
-5.06823e-11
0.000794145
7.40777e-05
-8.59897e-11
0.00071568
7.97444e-05
-9.42653e-11
0.000647616
8.54287e-05
-6.55349e-11
0.000581545
9.0558e-05
-3.59246e-11
0.000519993
9.62679e-05
4.48435e-12
0.000433158
0.0001007
8.84125e-11
0.000310194
0.00010398
1.20862e-10
0.000170301
0.000109403
1.45788e-10
0.000116505
1.64045e-10
0.00163844
-2.84604e-06
3.20198e-12
0.00165767
1.53467e-05
-2.70265e-12
0.000948548
0.000253882
-1.19379e-11
0.00116649
0.000307294
8.51081e-11
0.00117765
0.000220222
4.70268e-11
0.00112544
0.000217976
3.18324e-11
0.00109139
0.0002156
2.20963e-11
0.00108101
0.000203522
1.17969e-11
0.00107836
0.000191203
1.53716e-11
0.00108018
0.00017701
1.18404e-11
0.00115676
0.00017865
1.49856e-11
0.00119886
0.000178755
4.76767e-12
0.00118242
0.000169733
-5.527e-12
0.00112787
0.000159278
-1.83856e-11
0.00101609
0.00014993
-3.77982e-11
0.00089876
0.000145201
-5.77245e-11
0.000801596
0.000148617
-9.08023e-11
0.00072233
0.000159734
-9.65268e-11
0.00065455
0.000171076
-6.89042e-11
0.000587599
0.000181391
-3.29783e-11
0.000524808
0.000193164
8.33951e-12
0.000437819
0.000202746
8.73744e-11
0.000313954
0.000209791
1.17593e-10
0.000172198
0.000220102
1.40414e-10
0.00023351
1.56759e-10
0.00164777
-4.52861e-06
2.62084e-12
0.00167404
2.10846e-05
-4.84575e-13
0.00098848
0.000350888
-1.93553e-12
0.00118772
0.000476891
7.22604e-11
0.00118776
0.000336315
4.28468e-11
0.00113003
0.000326621
3.24773e-11
0.00109171
0.000324687
2.03565e-11
0.00108481
0.000305411
5.91087e-12
0.00108433
0.00028475
8.60042e-12
0.00108581
0.000264278
4.93137e-12
0.00116123
0.000266989
1.51171e-11
0.00120525
0.000266669
2.66543e-12
0.0011909
0.000254558
-7.97892e-12
0.00113699
0.000239791
-1.889e-11
0.00102791
0.000226286
-4.54871e-11
0.00091
0.000218605
-7.43348e-11
0.000812674
0.000223072
-9.65606e-11
0.000732586
0.000239072
-9.95102e-11
0.00066585
0.000256296
-7.34436e-11
0.000597608
0.000272565
-2.79681e-11
0.000532783
0.000290947
1.7402e-11
0.000446283
0.000306447
8.5694e-11
0.000321873
0.000317485
1.12602e-10
0.000177295
0.000332753
1.32761e-10
0.000353488
1.46394e-10
0.00166181
-6.00896e-06
2.36884e-12
0.00169899
2.44701e-05
2.49881e-12
0.00105393
0.000411174
1.5203e-11
0.00122426
0.000663774
6.31775e-11
0.00120508
0.000461818
3.86936e-11
0.00113829
0.00043546
2.96652e-11
0.00109386
0.000432962
1.70306e-11
0.00109166
0.000407718
5.59084e-12
0.00109348
0.000376831
-1.48359e-13
0.00109254
0.000351353
-6.9353e-12
0.00116644
0.00035388
2.79861e-12
0.00121336
0.000355176
-1.02955e-11
0.00120184
0.000340603
-2.66329e-11
0.00114936
0.000320725
-4.17199e-11
0.00104464
0.000303296
-6.50362e-11
0.000926575
0.000293388
-7.01579e-11
0.000829678
0.000297716
-9.60397e-11
0.000748214
0.000317821
-9.72983e-11
0.00068181
0.000341662
-7.11177e-11
0.000612756
0.000363989
-2.29013e-11
0.000546049
0.000389013
1.93313e-11
0.000460012
0.000410115
8.42512e-11
0.000335893
0.000426532
1.03568e-10
0.000186152
0.00044845
1.18199e-10
0.000478132
1.27748e-10
0.00167998
-7.47489e-06
1.93434e-12
0.00173263
2.52567e-05
5.99943e-12
0.00114742
0.000429455
3.67138e-11
0.00127378
0.000871458
5.25881e-11
0.00122819
0.000594927
2.58902e-11
0.00114959
0.00054683
2.35266e-11
0.00109849
0.00053927
1.73388e-11
0.00109987
0.00051071
1.10342e-11
0.00110601
0.000468097
-1.27483e-12
0.00110297
0.000438997
-4.25616e-12
0.00117324
0.000440517
-2.03229e-11
0.00122359
0.000443878
-2.22848e-11
0.00121594
0.000427968
-3.70599e-11
0.00116497
0.000403722
-2.99712e-11
0.00106629
0.000382227
-4.85682e-11
0.000947397
0.000369135
-8.61418e-11
0.00085079
0.000372382
-1.06511e-10
0.000767798
0.000395253
-9.84429e-11
0.000702468
0.000426044
-6.97872e-11
0.000633343
0.000455785
-2.33497e-11
0.000565392
0.000487678
2.55378e-11
0.000479531
0.000513341
7.85495e-11
0.000355109
0.000537893
9.17445e-11
0.000199202
0.000568362
1.00338e-10
0.000611053
1.07112e-10
0.0017017
-8.48312e-06
1.1529e-12
0.00177603
2.39849e-05
9.08077e-12
0.00127544
0.000407325
5.85868e-11
0.00133678
0.00110154
4.2956e-11
0.00126126
0.00073214
1.12394e-11
0.00116282
0.00066556
1.42657e-11
0.00110353
0.000642128
1.6525e-11
0.00110831
0.000613046
1.70638e-11
0.00112084
0.000559476
-2.26358e-12
0.00111561
0.000527484
7.27255e-13
0.00118082
0.000525931
-4.70623e-11
0.00123526
0.000532358
-2.43987e-11
0.00123228
0.000516225
4.22411e-12
0.00118341
0.000487994
-1.35906e-11
0.00109201
0.000462638
-3.90304e-11
0.000972377
0.000445738
-9.29256e-11
0.000875804
0.000446956
-1.13409e-10
0.000791915
0.00047118
-6.08991e-11
0.000727638
0.000509447
-7.05277e-11
0.000659205
0.000548235
-3.16968e-11
0.000592368
0.000584682
3.53926e-11
0.000506384
0.000616004
6.97291e-11
0.000380837
0.000651993
7.59678e-11
0.000217086
0.000694615
8.14673e-11
0.000757673
8.3887e-11
0.00172577
-8.71359e-06
-6.82131e-15
0.00182531
2.34448e-05
1.01699e-11
0.00143803
0.000362985
7.25476e-11
0.0014023
0.00135059
4.2406e-11
0.00130852
0.000872922
5.16386e-12
0.00117459
0.000788591
6.75448e-12
0.00110732
0.000738495
8.56674e-12
0.00111611
0.000712953
1.95749e-11
0.00113781
0.000651851
-2.51028e-12
0.00113171
0.000617757
2.29784e-12
0.00119023
0.000611716
-9.9371e-11
0.00124831
0.000619249
1.67502e-11
0.0012505
0.000604612
9.07415e-13
0.00120473
0.000573505
-1.30261e-11
0.00112195
0.000544457
-5.33721e-11
0.00100231
0.000523459
-1.01393e-10
0.000904831
0.000520942
-1.32418e-10
0.000821317
0.000545657
-7.25858e-11
0.000758535
0.000591511
-8.96643e-11
0.000693877
0.00063657
-2.70933e-11
0.000628678
0.00067886
1.94326e-11
0.000542061
0.000719438
5.4223e-11
0.000415669
0.000768529
5.97363e-11
0.0002436
0.000828824
6.17399e-11
0.000929562
6.31661e-11
0.00174966
-8.42747e-06
-1.09028e-12
0.0018463
2.59426e-05
8.24419e-12
0.00158372
0.000336683
5.27304e-11
0.00144264
0.00159493
7.14097e-11
0.00134569
0.00102317
6.3577e-12
0.00117938
0.000894943
3.73295e-12
0.00111108
0.000824756
8.98893e-12
0.00112516
0.0008094
1.77228e-11
0.00115724
0.000748222
1.59711e-12
0.00115057
0.000711824
-2.83522e-12
0.00119845
0.000697344
-1.00428e-10
0.00126246
0.000703798
2.64168e-11
0.00127078
0.00069189
1.7874e-11
0.00122912
0.000659737
-1.36714e-11
0.00115545
0.000627119
-4.68046e-11
0.00103705
0.000602019
-9.54222e-11
0.000938322
0.000594601
-1.1397e-10
0.000856863
0.000618363
-5.13201e-11
0.000797566
0.000667875
-7.45732e-11
0.000736784
0.00072137
-2.21671e-11
0.000672581
0.000770567
1.37694e-11
0.000588787
0.000819874
4.17189e-11
0.000462683
0.000886498
4.57856e-11
0.0002829
0.000972797
4.42971e-11
0.00113995
4.48135e-11
0.00177417
-7.91882e-06
-1.90856e-12
0.00185135
2.89111e-05
9.16872e-12
0.00161399
0.000315168
5.9914e-11
0.00145869
0.00178326
9.80411e-11
0.00136348
0.00118948
-7.82884e-12
0.0011762
0.000985267
-5.36198e-12
0.00111815
0.00089871
2.73665e-12
0.00113939
0.000900939
1.22447e-11
0.0011799
0.000851232
8.76499e-12
0.00117183
0.000810336
-6.5629e-12
0.00120402
0.000780941
-6.42889e-11
0.00127562
0.000787493
1.96458e-11
0.00129285
0.000778701
1.07997e-11
0.00125657
0.000745943
-1.81101e-11
0.00119239
0.00071095
-4.60407e-11
0.00107744
0.000680104
-1.02178e-10
0.000976799
0.000668585
-1.03074e-10
0.000897589
0.000688912
-6.58064e-11
0.000841482
0.000740404
-6.94849e-11
0.000786252
0.00079949
-2.43332e-11
0.000725665
0.000855855
1.0111e-11
0.000647486
0.000915631
2.77187e-11
0.000527108
0.00100187
3.32044e-11
0.000347584
0.00111886
2.98431e-11
0.00141775
2.96325e-11
0.00180025
-2.17347e-12
-7.48394e-06
0.00185299
1.01366e-11
3.14064e-05
0.00164326
5.76087e-11
0.000292601
0.00144263
1.20523e-10
0.00194655
0.00135721
-6.37436e-11
0.00137214
0.00116849
-4.31731e-11
0.00105323
0.00113456
-1.63989e-11
0.000962417
0.00116408
4.15106e-12
0.000989588
0.00120593
1.12027e-11
0.000963297
0.00119365
-1.35287e-12
0.000912302
0.00120977
-4.11029e-11
0.000865584
0.00128491
2.41113e-11
0.000869312
0.00131462
-1.46673e-12
0.000865147
0.00128786
-4.79924e-11
0.000833482
0.00122982
-4.40302e-11
0.000794727
0.00112315
-1.25481e-10
0.000761254
0.00102001
-6.98834e-11
0.000742904
0.000943374
-5.75465e-11
0.000757439
0.000889794
-5.01175e-11
0.000807688
0.000843178
-2.86793e-11
0.000868892
0.000790779
4.23119e-12
0.000932142
0.00072356
1.45064e-11
0.00100103
0.000618951
1.73936e-11
0.00110426
0.000452982
1.76923e-11
0.00125765
1.11271e-11
0.00180597
0.00163398
-1.13783e-06
-1.50254e-11
0.00165061
7.79784e-06
1.48908e-10
0.000935322
0.000130723
9.31058e-10
0.00116484
0.000149908
-4.48314e-10
0.00117638
0.000110954
-1.86976e-10
0.00112685
0.00010908
3.65358e-12
0.00109564
0.000106571
6.60656e-12
0.00108518
0.00010108
-3.23296e-11
0.00108127
9.5964e-05
-3.1885e-11
0.00108193
8.89556e-05
-4.00628e-11
0.00115751
8.98515e-05
-3.62805e-11
0.00119698
9.04787e-05
-3.67956e-11
0.00117787
8.5687e-05
-3.11259e-11
0.00112146
7.9842e-05
-2.32623e-11
0.00100797
7.48927e-05
-1.97277e-11
0.000890865
7.21804e-05
1.2496e-11
0.000794038
7.40846e-05
6.61756e-11
0.000715592
7.97523e-05
1.17408e-10
0.000647537
8.54345e-05
1.30907e-10
0.000581492
9.0563e-05
1.3588e-10
0.000519966
9.6271e-05
9.80664e-11
0.000433114
0.000100698
-2.46808e-11
0.000310153
0.000103979
-4.64279e-11
0.000170279
0.000109402
-3.56942e-11
0.000116505
-3.40408e-11
0.00163844
-2.8462e-06
-1.29105e-11
0.00165766
1.53488e-05
1.46165e-10
0.000948574
0.000253912
9.1608e-10
0.0011665
0.00030731
-4.43595e-10
0.00117765
0.000220232
-1.90364e-10
0.00112545
0.000217978
2.02428e-12
0.00109142
0.0002156
-4.83403e-13
0.00108104
0.000203521
-2.92832e-11
0.00107838
0.000191196
-3.45432e-11
0.0010802
0.000176987
-4.1501e-11
0.00115679
0.000178619
-3.70763e-11
0.0011989
0.000178734
-3.30993e-11
0.00118243
0.00016974
-2.42042e-11
0.00112784
0.000159303
-1.51472e-11
0.00101601
0.000149964
-1.0313e-11
0.000898661
0.000145215
8.94339e-12
0.000801491
0.000148631
5.11519e-11
0.000722242
0.000159744
9.90579e-11
0.000654471
0.000171086
1.13141e-10
0.000587544
0.000181401
1.22154e-10
0.000524781
0.000193171
9.35083e-11
0.000437777
0.000202742
-1.78501e-11
0.000313916
0.000209789
-4.18755e-11
0.000172177
0.0002201
-3.49396e-11
0.000233509
-3.29247e-11
0.00164777
-4.52886e-06
-1.34123e-11
0.00167404
2.10874e-05
1.40121e-10
0.000988497
0.000350927
8.9794e-10
0.00118772
0.000476916
-4.37018e-10
0.00118776
0.000336323
-1.94087e-10
0.00113004
0.000326617
4.68116e-13
0.00109174
0.000324673
5.34049e-15
0.00108485
0.000305391
-2.6781e-11
0.00108437
0.000284718
-3.78691e-11
0.00108584
0.000264234
-3.9858e-11
0.00116127
0.000266934
-3.86745e-11
0.00120529
0.00026664
-3.31079e-11
0.00119089
0.000254571
-2.10528e-11
0.00113694
0.000239836
-6.79028e-12
0.00102781
0.00022631
-7.10981e-12
0.000909909
0.000218658
5.41427e-12
0.000812583
0.000223108
3.80106e-11
0.000732508
0.000239107
7.39389e-11
0.000665767
0.000256316
8.88725e-11
0.000597541
0.000272575
9.81671e-11
0.000532753
0.00029095
8.26067e-11
0.000446242
0.00030644
-2.93029e-12
0.000321837
0.00031748
-3.49024e-11
0.000177275
0.000332748
-3.35022e-11
0.000353483
-3.12697e-11
0.00166181
-6.00937e-06
-1.67202e-11
0.00169899
2.4473e-05
1.28333e-10
0.00105396
0.000411215
8.62724e-10
0.00122426
0.000663809
-4.32534e-10
0.00120508
0.000461831
-1.95102e-10
0.0011383
0.000435455
-3.8526e-12
0.00109388
0.000432945
7.99427e-12