/*--------------------------------*- C++ -*----------------------------------*\
| =========                 |                                                 |
| \\      /  F ield         | OpenFOAM: The Open Source CFD Toolbox           |
|  \\    /   O peration     | Version:  4.1                                   |
|   \\  /    A nd           | Web:      www.OpenFOAM.org                      |
|    \\/     M anipulation  |                                                 |
\*---------------------------------------------------------------------------*/
FoamFile
{
    version     2.0;
    format      ascii;
    class       volScalarField;
    location    "0.76";
    object      T;
}
// * * * * * * * * * * * * * * * * * * * * * * * * * * * * * * * * * * * * * //

dimensions      [0 0 0 1 0 0 0];

internalField   nonuniform List<scalar> 
52500
(
0.228329
0.75335
1.0457
1.1366
1.21844
1.29032
1.30601
1.29373
1.2882
1.27227
1.18052
1.06855
1.01722
1.01059
1.02663
1.06746
1.08979
1.08581
1.0651
1.05948
1.05594
1.04334
1.01645
0.988114
0.933515
0.229466
0.747303
1.04164
1.13798
1.2195
1.29078
1.30615
1.29363
1.28801
1.27202
1.18028
1.06824
1.0166
1.00952
1.02501
1.06576
1.08876
1.08527
1.0644
1.05831
1.05452
1.04184
1.01529
0.987053
0.932283
0.2325
0.734246
1.0321
1.13966
1.21957
1.28943
1.30668
1.29404
1.28836
1.27314
1.18352
1.07006
1.01595
1.00728
1.02144
1.06211
1.08721
1.08493
1.06424
1.05731
1.05311
1.04044
1.01436
0.986528
0.931146
0.237337
0.714533
1.01785
1.14178
1.21849
1.28529
1.30612
1.29367
1.28835
1.27562
1.19247
1.07521
1.01653
1.00559
1.01831
1.05832
1.08555
1.08479
1.06435
1.05608
1.05123
1.03835
1.01345
0.986073
0.930867
0.243771
0.689473
0.998782
1.14538
1.21636
1.27888
1.30483
1.29286
1.28763
1.27715
1.20171
1.08191
1.01742
1.00301
1.01348
1.05199
1.08252
1.08404
1.06453
1.05451
1.04872
1.03574
1.0122
0.986116
0.930666
0.252092
0.660124
0.97667
1.14947
1.21222
1.27175
1.30325
1.29167
1.28597
1.27836
1.21323
1.09044
1.01882
0.999953
1.00797
1.04434
1.07837
1.08282
1.06452
1.05226
1.04529
1.03271
1.0104
0.986016
0.930598
0.262223
0.629428
0.955296
1.15359
1.20601
1.26368
1.3006
1.29062
1.28449
1.27925
1.22426
1.10055
1.02127
0.996646
1.00164
1.03433
1.07234
1.08059
1.06422
1.04942
1.0416
1.029
1.00848
0.985419
0.928749
0.273595
0.601154
0.943507
1.15571
1.19842
1.25346
1.29659
1.28923
1.28295
1.27981
1.23498
1.11421
1.0256
0.993437
0.995064
1.02283
1.06477
1.07725
1.06385
1.04537
1.03622
1.02534
1.0048
0.982811
0.925405
0.285446
0.573559
0.935592
1.15735
1.19034
1.23996
1.29125
1.28767
1.28188
1.27998
1.24496
1.13077
1.0323
0.99111
0.988641
1.00976
1.05493
1.07269
1.06272
1.04165
1.03107
1.02103
1.00083
0.978692
0.916007
0.297331
0.545629
0.923471
1.15728
1.18086
1.22527
1.28388
1.28553
1.28222
1.27998
1.25286
1.14908
1.04128
0.989626
0.981918
0.997972
1.04275
1.06656
1.06042
1.03895
1.02532
1.01261
0.992638
0.967801
0.893939
0.228314
0.753418
1.04575
1.13661
1.21848
1.29037
1.306
1.29373
1.2882
1.27222
1.18038
1.06851
1.01724
1.01061
1.02663
1.06744
1.08979
1.08581
1.06512
1.05951
1.05596
1.04331
1.01639
0.988045
0.933499
0.229465
0.747352
1.0417
1.13794
1.21941
1.29063
1.30605
1.29353
1.28795
1.27216
1.18085
1.0686
1.01667
1.00947
1.02488
1.06562
1.08872
1.08527
1.06442
1.05834
1.05454
1.04182
1.01523
0.986987
0.932263
0.232495
0.734293
1.03216
1.13964
1.21952
1.28929
1.30655
1.29393
1.28832
1.27333
1.18419
1.07043
1.01614
1.0074
1.02154
1.06216
1.08725
1.08495
1.06425
1.05733
1.05313
1.04042
1.0143
0.986467
0.931123
0.237322
0.714585
1.0179
1.14178
1.21847
1.28525
1.30605
1.2936
1.28829
1.27559
1.1926
1.07536
1.01668
1.00577
1.01854
1.05854
1.08563
1.0848
1.06432
1.05608
1.05123
1.03833
1.01341
0.986021
0.930848
0.243755
0.68952
0.998816
1.14536
1.21636
1.27889
1.30481
1.29283
1.2876
1.2771
1.2013
1.08156
1.01731
1.00299
1.01351
1.05208
1.08257
1.08404
1.06451
1.05451
1.04872
1.03572
1.01217
0.986073
0.930642
0.252075
0.660162
0.97669
1.14945
1.21222
1.27173
1.30321
1.29162
1.28595
1.27826
1.21286
1.09019
1.01875
1.00005
1.00813
1.04448
1.07838
1.08278
1.06448
1.05225
1.04529
1.0327
1.01036
0.985977
0.930579
0.262208
0.629453
0.9553
1.15356
1.206
1.26366
1.30056
1.29057
1.28445
1.27912
1.22379
1.10007
1.02123
0.996964
1.00211
1.03494
1.07261
1.08066
1.06418
1.0494
1.04158
1.02898
1.00845
0.985383
0.928739
0.273581
0.60117
0.943495
1.15569
1.19841
1.25343
1.29656
1.28918
1.2829
1.27973
1.2345
1.1135
1.02549
0.993812
0.995597
1.02354
1.06517
1.0774
1.06384
1.04534
1.03621
1.02533
1.00477
0.982774
0.925399
0.285433
0.57357
0.935576
1.15733
1.19033
1.23994
1.29123
1.28763
1.28184
1.27996
1.24463
1.13016
1.03218
0.991371
0.989041
1.01024
1.05525
1.07281
1.06272
1.04163
1.03106
1.02103
1.00079
0.978653
0.916007
0.297322
0.545635
0.923458
1.15725
1.18085
1.22526
1.28387
1.2855
1.28218
1.27999
1.25267
1.14865
1.04123
0.989754
0.982103
0.998157
1.04289
1.06659
1.0604
1.03891
1.02529
1.0126
0.992605
0.967758
0.893945
0.22832
0.753374
1.04571
1.1366
1.21845
1.29033
1.30599
1.29371
1.28817
1.27215
1.18018
1.0684
1.01727
1.01073
1.02681
1.0676
1.08984
1.08582
1.0651
1.05949
1.05594
1.04331
1.01639
0.988057
0.933513
0.22946
0.747321
1.04165
1.13797
1.21948
1.29074
1.30612
1.29359
1.28797
1.27196
1.18017
1.06823
1.01668
1.00965
1.02515
1.06587
1.08881
1.08529
1.0644
1.05832
1.05453
1.04181
1.01524
0.986998
0.932276
0.232495
0.734262
1.03212
1.13965
1.21955
1.28938
1.30663
1.294
1.28832
1.27314
1.1836
1.07014
1.01602
1.00734
1.02149
1.06214
1.08724
1.08495
1.06425
1.05733
1.05312
1.04041
1.01431
0.986478
0.931137
0.237328
0.714549
1.01786
1.14177
1.21848
1.28526
1.30609
1.29363
1.28831
1.27559
1.19263
1.07536
1.01663
1.00572
1.01848
1.05848
1.08561
1.08481
1.06433
1.05608
1.05123
1.03833
1.01341
0.986032
0.930861
0.243762
0.689486
0.998785
1.14537
1.21636
1.27887
1.30482
1.29284
1.28761
1.27719
1.2017
1.08183
1.01739
1.00298
1.01345
1.05198
1.08253
1.08404
1.06452
1.05452
1.04872
1.03572
1.01217
0.986083
0.930655
0.252083
0.660133
0.976666
1.14946
1.21221
1.27173
1.30323
1.29165
1.28596
1.27834
1.21344
1.09068
1.01887
0.999884
1.00786
1.04421
1.07831
1.0828
1.06453
1.05226
1.04529
1.0327
1.01037
0.985987
0.930592
0.262215
0.629432
0.955285
1.15357
1.206
1.26366
1.30058
1.2906
1.28446
1.27919
1.22433
1.10069
1.02132
0.99665
1.00165
1.03436
1.07233
1.08058
1.06421
1.04942
1.04159
1.02898
1.00846
0.985391
0.928751
0.273588
0.601156
0.943492
1.1557
1.19842
1.25344
1.29658
1.28921
1.28291
1.27978
1.2349
1.11403
1.02553
0.993482
0.995148
1.02299
1.06489
1.07731
1.06386
1.04536
1.03621
1.02533
1.00477
0.982781
0.92541
0.285439
0.573559
0.935575
1.15733
1.19033
1.23994
1.29124
1.28766
1.28187
1.28001
1.24488
1.13052
1.03218
0.991145
0.988729
1.00988
1.05506
1.07276
1.06275
1.04165
1.03106
1.02102
1.00079
0.978658
0.916017
0.297327
0.545627
0.923457
1.15726
1.18085
1.22526
1.28387
1.28552
1.28222
1.28003
1.25282
1.14881
1.04118
0.989642
0.981977
0.998038
1.04282
1.0666
1.06043
1.03895
1.0253
1.0126
0.992604
0.967762
0.893951
0.228317
0.753379
1.04571
1.13659
1.21845
1.29033
1.30599
1.29371
1.28817
1.27215
1.18017
1.0684
1.01727
1.01073
1.02682
1.06762
1.08986
1.08583
1.0651
1.05949
1.05594
1.0433
1.01638
0.988037
0.933492
0.229458
0.747324
1.04165
1.13796
1.21947
1.29073
1.30611
1.29358
1.28796
1.27197
1.18019
1.06824
1.01667
1.00964
1.02515
1.06588
1.08882
1.08529
1.0644
1.05833
1.05453
1.0418
1.01522
0.986978
0.932257
0.232492
0.734264
1.03211
1.13964
1.21955
1.28938
1.30663
1.29399
1.28833
1.27316
1.18366
1.07017
1.01606
1.0074
1.02157
1.06222
1.08728
1.08496
1.06424
1.05733
1.05312
1.0404
1.0143
0.98646
0.931118
0.237326
0.71455
1.01786
1.14177
1.21847
1.28526
1.30608
1.29362
1.2883
1.27561
1.19274
1.07545
1.01667
1.00571
1.01845
1.05847
1.08562
1.08482
1.06433
1.05608
1.05123
1.03832
1.0134
0.986015
0.930844
0.243761
0.689484
0.998778
1.14536
1.21635
1.27887
1.30481
1.29282
1.28759
1.27717
1.20165
1.08179
1.01734
1.00291
1.01338
1.05195
1.08253
1.08405
1.06454
1.05452
1.04872
1.03571
1.01216
0.986069
0.93064
0.252083
0.660129
0.976657
1.14945
1.21221
1.27173
1.30323
1.29164
1.28595
1.27832
1.21324
1.09047
1.0188
0.999949
1.00797
1.0443
1.07832
1.08279
1.06452
1.05226
1.04529
1.03269
1.01036
0.985976
0.930579
0.262216
0.629425
0.955276
1.15356
1.206
1.26366
1.30058
1.2906
1.28447
1.27918
1.22412
1.10041
1.02129
0.996823
1.0019
1.0347
1.07253
1.08066
1.06422
1.04941
1.04158
1.02897
1.00845
0.985383
0.928741
0.27359
0.601147
0.943484
1.15569
1.19841
1.25343
1.29658
1.28921
1.28292
1.27978
1.23476
1.11385
1.02554
0.993634
0.995347
1.02324
1.06506
1.07739
1.06387
1.04536
1.03621
1.02532
1.00476
0.982776
0.925401
0.285442
0.57355
0.935567
1.15733
1.19033
1.23994
1.29124
1.28765
1.28187
1.28
1.24482
1.13047
1.03223
0.991201
0.98879
1.00995
1.0551
1.07278
1.06274
1.04164
1.03106
1.02102
1.00079
0.978654
0.91601
0.297331
0.545616
0.923447
1.15725
1.18084
1.22526
1.28387
1.28552
1.28221
1.28002
1.25281
1.14888
1.04125
0.989619
0.981905
0.997937
1.04274
1.06656
1.06041
1.03894
1.02529
1.01259
0.992601
0.96776
0.893948
0.228332
0.7533
1.04566
1.1366
1.21845
1.29031
1.30598
1.2937
1.28817
1.27216
1.1802
1.06841
1.01728
1.01073
1.02681
1.0676
1.08984
1.08581
1.06509
1.05948
1.05593
1.0433
1.01639
0.988043
0.933494
0.229472
0.747247
1.0416
1.13797
1.21947
1.29072
1.30609
1.29357
1.28796
1.27198
1.18021
1.06825
1.01668
1.00964
1.02515
1.06586
1.0888
1.08528
1.06439
1.05831
1.05451
1.0418
1.01523
0.986984
0.932262
0.232507
0.734188
1.03206
1.13965
1.21955
1.28937
1.30661
1.29398
1.28832
1.27316
1.18366
1.07018
1.01607
1.0074
1.02157
1.0622
1.08726
1.08495
1.06423
1.05731
1.0531
1.0404
1.0143
0.986466
0.931123
0.237343
0.714475
1.0178
1.14178
1.21847
1.28524
1.30607
1.29361
1.2883
1.27563
1.19269
1.07537
1.01664
1.0057
1.01844
1.05845
1.08561
1.0848
1.06433
1.05607
1.05121
1.03831
1.0134
0.986016
0.93085
0.243778
0.689415
0.998729
1.14537
1.21634
1.27885
1.30479
1.29281
1.28758
1.27712
1.20178
1.08199
1.01741
1.00293
1.01339
1.05194
1.08252
1.08404
1.06453
1.05451
1.04871
1.0357
1.01215
0.986065
0.930654
0.252101
0.660066
0.976617
1.14947
1.2122
1.27172
1.30322
1.29163
1.28594
1.27833
1.21311
1.09033
1.01876
0.999937
1.00797
1.0443
1.07831
1.08278
1.06451
1.05225
1.04527
1.03268
1.01035
0.985972
0.930592
0.262233
0.629376
0.955255
1.15358
1.20599
1.26365
1.30058
1.2906
1.28447
1.27922
1.22407
1.10026
1.02121
0.996796
1.00188
1.03469
1.07253
1.08065
1.06421
1.0494
1.04157
1.02896
1.00844
0.985383
0.928745
0.273606
0.601109
0.943486
1.1557
1.1984
1.25342
1.29657
1.28921
1.28293
1.27979
1.23484
1.11396
1.02557
0.993636
0.995342
1.02323
1.06504
1.07738
1.06386
1.04535
1.0362
1.02531
1.00476
0.982783
0.925401
0.285456
0.573516
0.935567
1.15733
1.19031
1.23992
1.29123
1.28765
1.28187
1.27997
1.24488
1.13067
1.03233
0.991225
0.988792
1.00994
1.05508
1.07276
1.06273
1.04164
1.03105
1.02101
1.00079
0.978665
0.916005
0.297342
0.545586
0.923444
1.15725
1.18083
1.22524
1.28386
1.28551
1.28221
1.27997
1.25283
1.14913
1.04138
0.989657
0.981909
0.997929
1.04272
1.06654
1.0604
1.03893
1.0253
1.01259
0.992615
0.96778
0.893939
0.228327
0.753323
1.04567
1.1366
1.21845
1.29031
1.30598
1.2937
1.28817
1.27214
1.18015
1.06839
1.01727
1.01074
1.02683
1.06763
1.08986
1.08582
1.06509
1.05948
1.05594
1.0433
1.01639
0.988042
0.933496
0.229467
0.74727
1.04161
1.13797
1.21947
1.29072
1.3061
1.29357
1.28796
1.27197
1.18018
1.06824
1.01667
1.00965
1.02516
1.06589
1.08882
1.08529
1.06439
1.05832
1.05452
1.0418
1.01523
0.986983
0.93226
0.232502
0.734211
1.03207
1.13965
1.21954
1.28937
1.30661
1.29398
1.28832
1.27315
1.18365
1.07017
1.01606
1.0074
1.02157
1.06222
1.08728
1.08496
1.06424
1.05732
1.05311
1.0404
1.0143
0.986465
0.931121
0.237337
0.714497
1.01782
1.14177
1.21847
1.28524
1.30607
1.29361
1.28829
1.27563
1.19269
1.07537
1.01664
1.0057
1.01845
1.05847
1.08562
1.08481
1.06433
1.05608
1.05122
1.03832
1.0134
0.986019
0.930848
0.243772
0.689436
0.998741
1.14537
1.21634
1.27885
1.30479
1.29281
1.28758
1.27711
1.20177
1.08198
1.01741
1.00293
1.01339
1.05195
1.08254
1.08406
1.06454
1.05452
1.04871
1.03571
1.01216
0.986072
0.930644
0.252095
0.660085
0.976627
1.14946
1.2122
1.27172
1.30322
1.29164
1.28594
1.27832
1.21309
1.09032
1.01875
0.999935
1.00797
1.04431
1.07833
1.0828
1.06452
1.05226
1.04528
1.03269
1.01036
0.985979
0.930583
0.262227
0.629391
0.955259
1.15357
1.20599
1.26365
1.30058
1.2906
1.28447
1.27922
1.22405
1.10024
1.02121
0.996796
1.00188
1.03469
1.07253
1.08066
1.06422
1.04941
1.04158
1.02897
1.00845
0.985386
0.928746
0.2736
0.601121
0.943484
1.15569
1.1984
1.25342
1.29657
1.28921
1.28293
1.27978
1.23482
1.11394
1.02556
0.993636
0.995345
1.02324
1.06505
1.0774
1.06388
1.04536
1.0362
1.02532
1.00476
0.982778
0.925406
0.285451
0.573527
0.935566
1.15733
1.19032
1.23992
1.29123
1.28765
1.28186
1.27996
1.24487
1.13065
1.03232
0.991223
0.988792
1.00994
1.05509
1.07278
1.06275
1.04164
1.03106
1.02102
1.00079
0.978656
0.916015
0.297338
0.545596
0.923445
1.15725
1.18084
1.22524
1.28386
1.28551
1.2822
1.27996
1.25282
1.14912
1.04137
0.989651
0.981905
0.997927
1.04273
1.06656
1.06041
1.03894
1.02529
1.01259
0.992601
0.967763
0.893952
0.228316
0.753379
1.04571
1.13659
1.21845
1.29033
1.30599
1.29371
1.28817
1.27215
1.18017
1.0684
1.01727
1.01073
1.02682
1.06762
1.08986
1.08583
1.0651
1.05949
1.05595
1.0433
1.01638
0.988037
0.933492
0.229458
0.747325
1.04165
1.13796
1.21947
1.29073
1.30611
1.29358
1.28796
1.27197
1.18019
1.06824
1.01667
1.00964
1.02515
1.06588
1.08882
1.08529
1.0644
1.05833
1.05453
1.0418
1.01522
0.986978
0.932257
0.232492
0.734265
1.03211
1.13964
1.21955
1.28938
1.30663
1.29399
1.28833
1.27316
1.18366
1.07017
1.01606
1.0074
1.02157
1.06222
1.08728
1.08496
1.06424
1.05733
1.05312
1.0404
1.0143
0.98646
0.931118
0.237326
0.71455
1.01786
1.14177
1.21847
1.28526
1.30608
1.29362
1.2883
1.27561
1.19274
1.07545
1.01667
1.00571
1.01845
1.05847
1.08562
1.08482
1.06433
1.05608
1.05123
1.03832
1.0134
0.986015
0.930844
0.243761
0.689485
0.998778
1.14536
1.21635
1.27887
1.30481
1.29282
1.28759
1.27717
1.20165
1.08179
1.01734
1.00291
1.01338
1.05195
1.08253
1.08405
1.06454
1.05452
1.04872
1.03571
1.01216
0.986069
0.93064
0.252083
0.660129
0.976657
1.14945
1.21221
1.27173
1.30323
1.29164
1.28595
1.27832
1.21324
1.09047
1.0188
0.999949
1.00797
1.0443
1.07832
1.08279
1.06452
1.05226
1.04529
1.03269
1.01036
0.985976
0.930579
0.262216
0.629426
0.955276
1.15356
1.206
1.26366
1.30058
1.2906
1.28447
1.27918
1.22412
1.10041
1.02129
0.996823
1.0019
1.0347
1.07253
1.08066
1.06422
1.04941
1.04158
1.02897
1.00845
0.985383
0.928741
0.27359
0.601148
0.943484
1.15569
1.19841
1.25343
1.29658
1.28921
1.28292
1.27978
1.23476
1.11385
1.02554
0.993634
0.995347
1.02324
1.06506
1.0774
1.06387
1.04536
1.03621
1.02532
1.00476
0.982776
0.925401
0.285442
0.57355
0.935567
1.15732
1.19033
1.23994
1.29124
1.28765
1.28187
1.28
1.24482
1.13047
1.03223
0.991201
0.98879
1.00995
1.0551
1.07278
1.06275
1.04164
1.03106
1.02102
1.00079
0.978654
0.91601
0.297331
0.545616
0.923447
1.15725
1.18084
1.22526
1.28387
1.28552
1.28221
1.28002
1.25281
1.14888
1.04125
0.989619
0.981905
0.997937
1.04274
1.06656
1.06041
1.03894
1.02529
1.01259
0.992601
0.96776
0.893948
0.22832
0.753374
1.04571
1.1366
1.21845
1.29033
1.30599
1.29371
1.28817
1.27215
1.18018
1.0684
1.01727
1.01073
1.02681
1.0676
1.08984
1.08582
1.0651
1.05949
1.05594
1.04331
1.01639
0.988057
0.933513
0.22946
0.747321
1.04165
1.13797
1.21948
1.29074
1.30612
1.29359
1.28797
1.27196
1.18017
1.06823
1.01668
1.00965
1.02515
1.06587
1.08881
1.08529
1.0644
1.05832
1.05453
1.04181
1.01524
0.986998
0.932276
0.232495
0.734262
1.03212
1.13965
1.21955
1.28938
1.30663
1.294
1.28832
1.27314
1.1836
1.07014
1.01602
1.00734
1.02149
1.06214
1.08724
1.08495
1.06425
1.05733
1.05312
1.04041
1.01431
0.986478
0.931137
0.237328
0.714549
1.01786
1.14177
1.21848
1.28526
1.30609
1.29363
1.28831
1.27559
1.19263
1.07536
1.01663
1.00572
1.01848
1.05848
1.08561
1.08481
1.06433
1.05608
1.05123
1.03833
1.01341
0.986032
0.930861
0.243762
0.689486
0.998785
1.14537
1.21636
1.27887
1.30482
1.29284
1.28761
1.27719
1.2017
1.08183
1.01739
1.00298
1.01345
1.05198
1.08253
1.08404
1.06452
1.05452
1.04872
1.03572
1.01217
0.986083
0.930655
0.252083
0.660133
0.976666
1.14946
1.21221
1.27173
1.30323
1.29165
1.28596
1.27834
1.21344
1.09068
1.01887
0.999884
1.00786
1.04421
1.07831
1.0828
1.06453
1.05226
1.04529
1.0327
1.01037
0.985987
0.930592
0.262215
0.629432
0.955285
1.15357
1.206
1.26366
1.30058
1.2906
1.28446
1.27919
1.22433
1.10069
1.02132
0.99665
1.00165
1.03436
1.07233
1.08058
1.06421
1.04942
1.04159
1.02898
1.00846
0.985391
0.928751
0.273588
0.601156
0.943492
1.1557
1.19842
1.25344
1.29658
1.28921
1.28291
1.27978
1.2349
1.11403
1.02553
0.993482
0.995148
1.02299
1.06489
1.07731
1.06386
1.04536
1.03621
1.02533
1.00477
0.982781
0.92541
0.285439
0.573559
0.935575
1.15733
1.19033
1.23994
1.29124
1.28766
1.28187
1.28001
1.24488
1.13052
1.03218
0.991145
0.988729
1.00988
1.05506
1.07276
1.06275
1.04165
1.03106
1.02102
1.00079
0.978658
0.916017
0.297327
0.545627
0.923457
1.15726
1.18085
1.22526
1.28387
1.28552
1.28222
1.28003
1.25282
1.14881
1.04118
0.989642
0.981977
0.998038
1.04282
1.0666
1.06043
1.03895
1.0253
1.0126
0.992604
0.967762
0.893951
0.228314
0.753419
1.04575
1.13661
1.21848
1.29037
1.306
1.29373
1.2882
1.27222
1.18038
1.06851
1.01724
1.01061
1.02663
1.06744
1.08979
1.08581
1.06512
1.05951
1.05596
1.04331
1.01639
0.988045
0.933499
0.229465
0.747352
1.0417
1.13794
1.21941
1.29063
1.30605
1.29353
1.28795
1.27216
1.18085
1.0686
1.01667
1.00947
1.02488
1.06562
1.08872
1.08527
1.06442
1.05834
1.05454
1.04182
1.01523
0.986987
0.932263
0.232495
0.734293
1.03216
1.13964
1.21952
1.28929
1.30655
1.29393
1.28832
1.27333
1.18419
1.07043
1.01614
1.0074
1.02154
1.06216
1.08725
1.08495
1.06425
1.05733
1.05313
1.04042
1.01431
0.986467
0.931123
0.237322
0.714585
1.0179
1.14178
1.21847
1.28525
1.30605
1.2936
1.28829
1.27559
1.1926
1.07536
1.01668
1.00577
1.01854
1.05854
1.08563
1.0848
1.06431
1.05608
1.05123
1.03833
1.01341
0.986021
0.930848
0.243755
0.68952
0.998817
1.14536
1.21636
1.27889
1.30481
1.29283
1.2876
1.2771
1.2013
1.08156
1.01731
1.00299
1.01351
1.05208
1.08257
1.08404
1.06451
1.05451
1.04872
1.03572
1.01217
0.986073
0.930642
0.252075
0.660162
0.97669
1.14945
1.21222
1.27173
1.30321
1.29162
1.28595
1.27826
1.21287
1.09019
1.01875
1.00005
1.00813
1.04448
1.07838
1.08278
1.06448
1.05225
1.04529
1.0327
1.01036
0.985978
0.930579
0.262208
0.629453
0.9553
1.15356
1.206
1.26366
1.30056
1.29057
1.28445
1.27912
1.22379
1.10007
1.02123
0.996964
1.00211
1.03494
1.07261
1.08066
1.06418
1.0494
1.04158
1.02898
1.00845
0.985383
0.928739
0.273581
0.60117
0.943495
1.15569
1.19841
1.25343
1.29656
1.28918
1.2829
1.27973
1.2345
1.1135
1.02549
0.993811
0.995597
1.02354
1.06517
1.0774
1.06384
1.04534
1.03621
1.02533
1.00477
0.982774
0.925399
0.285433
0.57357
0.935576
1.15733
1.19033
1.23994
1.29123
1.28763
1.28184
1.27996
1.24463
1.13016
1.03218
0.991371
0.98904
1.01024
1.05525
1.07281
1.06272
1.04163
1.03106
1.02103
1.00079
0.978653
0.916007
0.297322
0.545634
0.923458
1.15725
1.18085
1.22526
1.28387
1.2855
1.28218
1.27999
1.25267
1.14865
1.04123
0.989754
0.982103
0.998157
1.04289
1.06659
1.0604
1.03891
1.02529
1.0126
0.992605
0.967759
0.893945
0.228317
0.753432
1.04576
1.1366
1.21847
1.29038
1.30603
1.29375
1.28821
1.27213
1.18005
1.06829
1.01717
1.01062
1.02669
1.0675
1.08978
1.08578
1.06509
1.05949
1.05597
1.0434
1.01653
0.988151
0.933402
0.229456
0.747379
1.0417
1.13798
1.21951
1.2908
1.30617
1.29364
1.28801
1.27199
1.18018
1.06824
1.01662
1.00954
1.02501
1.06574
1.08874
1.08525
1.06439
1.05833
1.05455
1.0419
1.01537
0.987092
0.932177
0.232493
0.734317
1.03216
1.13965
1.21957
1.28943
1.30667
1.29402
1.28836
1.27332
1.18418
1.07045
1.01607
1.00727
1.02135
1.06198
1.08716
1.08491
1.06424
1.05733
1.05315
1.0405
1.01444
0.986567
0.931046
0.237326
0.714601
1.01791
1.14177
1.21848
1.28527
1.30609
1.29362
1.28831
1.27575
1.19336
1.07578
1.01659
1.00539
1.01805
1.05812
1.08548
1.08476
1.06435
1.05609
1.05125
1.0384
1.01352
0.986111
0.930774
0.243759
0.689534
0.998829
1.14537
1.21637
1.2789
1.30483
1.29282
1.2876
1.27715
1.20191
1.08202
1.01732
1.00277
1.01317
1.05166
1.08237
1.08398
1.06455
1.05453
1.04874
1.03577
1.01226
0.98615
0.930588
0.252078
0.660176
0.976703
1.14946
1.21224
1.27178
1.30328
1.29168
1.28598
1.27834
1.2129
1.09004
1.01872
1.0001
1.00821
1.04456
1.0784
1.0828
1.0645
1.05226
1.04529
1.03273
1.01044
0.986044
0.930537
0.26221
0.629466
0.955309
1.15358
1.20603
1.26372
1.30063
1.29066
1.28452
1.27923
1.22383
1.09998
1.02125
0.99706
1.00222
1.03502
1.07265
1.08068
1.06419
1.0494
1.04159
1.029
1.0085
0.985436
0.928721
0.273584
0.601181
0.943502
1.15571
1.19844
1.25349
1.29662
1.28925
1.28297
1.2798
1.23467
1.11381
1.02565
0.993818
0.99554
1.02342
1.06515
1.07741
1.06385
1.04534
1.0362
1.02534
1.00481
0.982817
0.925385
0.285437
0.573581
0.935588
1.15734
1.19035
1.23998
1.29127
1.28767
1.28189
1.27996
1.24481
1.13069
1.03244
0.991275
0.988806
1.00989
1.05504
1.07274
1.06271
1.04162
1.03104
1.02102
1.00082
0.978694
0.915999
0.297326
0.545646
0.923471
1.15728
1.18087
1.22529
1.28389
1.28552
1.28221
1.27995
1.25278
1.14915
1.04143
0.98961
0.9818
0.997761
1.04254
1.06644
1.06034
1.03892
1.0253
1.0126
0.992625
0.967796
0.89394
0.308935
0.516329
0.907092
1.15509
1.16859
1.21295
1.27416
1.28347
1.2831
1.27982
1.25792
1.1685
1.05274
0.989279
0.974608
0.985398
1.02722
1.05804
1.05705
1.03619
1.01682
1.00464
0.98292
0.953712
0.837188
0.320685
0.492323
0.876221
1.14275
1.14769
1.20669
1.26368
1.28237
1.28472
1.27803
1.25952
1.18809
1.06774
0.991997
0.96786
0.972708
1.00685
1.04554
1.0514
1.03502
1.01205
0.994659
0.970222
0.9436
0.841952
0.332135
0.46804
0.81978
1.09867
1.13133
1.20631
1.25465
1.2837
1.28457
1.27299
1.25892
1.20956
1.08589
0.997804
0.963768
0.964221
0.99127
1.03431
1.04562
1.03448
1.00723
0.990246
0.959827
0.936694
0.862144
0.343109
0.44796
0.743078
1.01383
1.13743
1.20321
1.24534
1.2843
1.2833
1.26797
1.25785
1.22292
1.11144
1.01056
0.960425
0.952658
0.96863
1.01387
1.03561
1.03152
1.00551
0.982937
0.953998
0.933251
0.888205
0.354649
0.438026
0.669705
0.936732
1.14972
1.19375
1.23249
1.2812
1.27965
1.26526
1.25713
1.23347
1.13896
1.02572
0.960721
0.943184
0.95128
0.991476
1.02267
1.0249
1.00647
0.981344
0.946525
0.927934
0.89606
0.367516
0.433983
0.613727
0.916684
1.16074
1.18159
1.21957
1.27125
1.27449
1.26457
1.2568
1.23866
1.17069
1.04489
0.965704
0.934056
0.934382
0.962618
1.00653
1.01722
1.00681
0.982133
0.948155
0.922334
0.900836
0.380616
0.428665
0.567955
0.897309
1.16791
1.16474
1.20264
1.25116
1.26811
1.26394
1.25632
1.24208
1.19432
1.07254
0.976834
0.929353
0.92108
0.936081
0.982651
1.0065
1.00382
0.985154
0.953418
0.923934
0.901304
0.390607
0.418265
0.521687
0.852111
1.15412
1.13815
1.1928
1.22643
1.25919
1.2616
1.25589
1.24415
1.21143
1.10661
0.992714
0.931033
0.91024
0.9153
0.950146
0.988164
0.995419
0.987424
0.961597
0.930004
0.904076
0.392057
0.402453
0.472018
0.75411
1.08325
1.12468
1.18517
1.20355
1.24646
1.25839
1.25599
1.24745
1.22462
1.14271
1.01595
0.937573
0.902845
0.899741
0.917722
0.966534
0.98563
0.983703
0.970577
0.938154
0.909496
0.381605
0.387221
0.435265
0.635306
0.923748
1.12762
1.17217
1.18176
1.228
1.25285
1.2547
1.24934
1.23256
1.17928
1.0503
0.951868
0.901973
0.885767
0.891717
0.92723
0.963614
0.973658
0.969144
0.952259
0.918611
0.369735
0.373304
0.409112
0.553408
0.858571
1.14506
1.15334
1.16644
1.21052
1.24586
1.25197
1.24928
1.23773
1.20322
1.09427
0.972543
0.906963
0.877865
0.875386
0.89158
0.937712
0.95962
0.961547
0.954849
0.935895
0.359914
0.361822
0.386816
0.493314
0.789592
1.1359
1.11928
1.158
1.1921
1.23235
1.2468
1.2477
1.24225
1.22103
1.13883
1.0129
0.922009
0.878755
0.862211
0.866082
0.897038
0.937964
0.951187
0.950173
0.941158
0.353672
0.351075
0.36649
0.434872
0.683497
1.03126
1.08555
1.15503
1.17664
1.21154
1.23727
1.24514
1.24403
1.23306
1.17996
1.05066
0.943388
0.883231
0.858201
0.853427
0.863943
0.901962
0.930709
0.93993
0.937477
0.349043
0.342228
0.352291
0.396992
0.566203
0.855576
1.08974
1.147
1.16043
1.18845
1.2264
1.24192
1.24426
1.24004
1.2112
1.10009
0.97852
0.896544
0.856692
0.843609
0.844918
0.863267
0.904172
0.921996
0.926633
0.345253
0.335181
0.34189
0.371744
0.48288
0.762532
1.10938
1.11126
1.13559
1.16869
1.21115
1.2362
1.2433
1.24256
1.23116
1.16279
1.01338
0.914698
0.861234
0.837419
0.831672
0.836642
0.86244
0.899353
0.91275
0.342364
0.329612
0.333877
0.352717
0.419253
0.646189
1.02078
1.05014
1.12238
1.15833
1.18942
1.2235
1.2396
1.24161
1.23878
1.20619
1.07983
0.949646
0.874192
0.838416
0.825466
0.823103
0.830121
0.857539
0.890766
0.34017
0.325485
0.328271
0.340348
0.381367
0.530244
0.817752
1.04978
1.10986
1.13601
1.16923
1.20613
1.23179
1.23909
1.23908
1.22824
1.1588
0.999721
0.898388
0.846201
0.820426
0.814874
0.815058
0.822866
0.848471
0.338554
0.322343
0.324135
0.331837
0.357186
0.447062
0.691378
1.06258
1.06535
1.09947
1.14709
1.18856
1.2185
1.23335
1.23745
1.23595
1.20582
1.08399
0.944963
0.864964
0.825984
0.806231
0.803386
0.804789
0.812672
0.337389
0.320068
0.321242
0.326166
0.341639
0.391764
0.566986
0.894239
1.02522
1.08388
1.12292
1.16014
1.19966
1.22439
1.23391
1.2356
1.2255
1.1652
1.01672
0.904549
0.841595
0.810713
0.793658
0.789347
0.790925
0.336561
0.318458
0.319296
0.322495
0.331931
0.360998
0.465158
0.720093
1.03857
1.05605
1.08688
1.12592
1.173
1.20714
1.22671
1.23342
1.23143
1.20725
1.10274
0.964582
0.872928
0.823444
0.797158
0.780361
0.772425
0.336066
0.317492
0.318173
0.32021
0.325803
0.342313
0.396245
0.577684
0.926724
1.01602
1.0644
1.10085
1.13492
1.18395
1.21181
1.22773
1.23012
1.22194
1.17544
1.04234
0.92893
0.848597
0.806837
0.782795
0.765107
0.336061
0.317118
0.317586
0.318715
0.321991
0.331597
0.361401
0.468373
0.723689
1.01793
1.03768
1.0688
1.10299
1.14254
1.19102
1.21603
1.22592
1.22337
1.20578
1.13232
0.987757
0.897209
0.828544
0.790628
0.766996
0.336534
0.317011
0.317223
0.318002
0.320024
0.325485
0.341517
0.393755
0.570664
0.907128
1.0031
1.04549
1.0758
1.10523
1.14941
1.19382
1.21689
1.22046
1.21457
1.18282
1.07333
0.945322
0.867077
0.807907
0.773555
0.336845
0.317036
0.317114
0.317492
0.318604
0.321685
0.330393
0.357285
0.454007
0.697072
0.997742
1.01482
1.04639
1.07774
1.1054
1.15799
1.19652
1.21323
1.21242
1.20076
1.15035
1.0199
0.910264
0.844022
0.789565
0.336961
0.317173
0.31694
0.317125
0.317744
0.319466
0.324202
0.338079
0.382972
0.54189
0.839765
0.986342
1.02357
1.04882
1.07773
1.10448
1.16405
1.19692
1.20588
1.20096
1.18043
1.10488
0.967474
0.875111
0.820074
0.337011
0.317256
0.31681
0.316906
0.31724
0.318166
0.320691
0.327739
0.349323
0.425358
0.641889
0.958828
0.98933
1.02489
1.05085
1.07245
1.1067
1.1678
1.19328
1.19563
1.18739
1.15335
1.04734
0.924091
0.847784
0.33702
0.317298
0.316732
0.316779
0.31695
0.317431
0.318746
0.322377
0.332922
0.366992
0.493649
0.755898
0.96435
0.999258
1.02338
1.04996
1.06758
1.11153
1.16612
1.18427
1.18294
1.16941
1.11966
0.996656
0.885948
0.337008
0.317323
0.316683
0.316702
0.316781
0.317018
0.317686
0.31953
0.324638
0.340008
0.391541
0.566349
0.866272
0.963448
1.00144
1.02211
1.0431
1.06455
1.11907
1.15776
1.17058
1.16648
1.14627
1.07206
0.943687
0.337001
0.317339
0.316646
0.31665
0.316687
0.31681
0.317143
0.318039
0.320505
0.327503
0.349466
0.428943
0.644746
0.924552
0.967445
0.998882
1.01961
1.03468
1.06246
1.12457
1.15186
1.15686
1.14904
1.11617
1.01707
0.337003
0.317335
0.316626
0.316632
0.316646
0.316699
0.316852
0.317274
0.318433
0.321678
0.331201
0.362436
0.480687
0.722368
0.929957
0.971708
0.994458
1.01326
1.02717
1.06322
1.12127
1.14315
1.14328
1.13118
1.0801
0.337005
0.317328
0.316627
0.316617
0.316621
0.316644
0.316712
0.316902
0.317428
0.318893
0.32303
0.335613
0.377747
0.529586
0.783602
0.929437
0.971765
0.98878
1.00371
1.02198
1.07204
1.11719
1.1312
1.12843
1.10604
0.337005
0.317324
0.316629
0.31661
0.316611
0.316619
0.316647
0.316728
0.316956
0.317587
0.319369
0.32446
0.340392
0.396371
0.573098
0.834734
0.932209
0.966033
0.981652
0.993974
1.02086
1.08288
1.11541
1.12104
1.1126
0.337005
0.317324
0.31663
0.316606
0.316606
0.316608
0.316619
0.316653
0.316745
0.317005
0.317736
0.319829
0.325925
0.345549
0.417804
0.613059
0.856746
0.931984
0.959956
0.972644
0.987734
1.02764
1.09026
1.11098
1.1093
0.337005
0.317324
0.31663
0.316605
0.316604
0.316604
0.316608
0.31662
0.316655
0.316754
0.317043
0.317868
0.320257
0.327332
0.350629
0.439057
0.639366
0.866378
0.930702
0.954226
0.963993
0.985726
1.04399
1.09189
1.10079
0.337005
0.317324
0.316629
0.316605
0.316603
0.316602
0.316603
0.316607
0.316619
0.316654
0.31676
0.317075
0.317981
0.320615
0.32855
0.354839
0.45781
0.643398
0.879405
0.931206
0.946264
0.956387
0.992937
1.05766
1.08874
0.337005
0.317324
0.316629
0.316605
0.316603
0.316602
0.316602
0.316603
0.316606
0.316617
0.316653
0.316767
0.317105
0.318078
0.320901
0.329495
0.3581
0.468975
0.648084
0.896702
0.926003
0.932084
0.954097
1.01904
1.06582
0.337005
0.317324
0.316629
0.316605
0.316603
0.316602
0.316601
0.316602
0.316602
0.316605
0.316617
0.316658
0.316786
0.317155
0.318179
0.321107
0.330006
0.359966
0.467611
0.673336
0.891502
0.901554
0.919041
0.982571
1.04108
0.337005
0.317324
0.316629
0.316605
0.316603
0.316602
0.316601
0.316602
0.316601
0.316602
0.316607
0.316626
0.316688
0.31685
0.317248
0.318293
0.321223
0.329937
0.359313
0.461506
0.688239
0.842832
0.878649
0.953293
1.02184
0.337005
0.317324
0.316629
0.316605
0.316603
0.316602
0.316601
0.316602
0.316601
0.316601
0.316606
0.316621
0.316668
0.316788
0.316975
0.317465
0.318577
0.321369
0.329345
0.355525
0.448306
0.631014
0.792546
0.922484
1.02701
0.337005
0.317324
0.316629
0.316605
0.316603
0.316602
0.316601
0.316602
0.316601
0.316601
0.316606
0.316621
0.316667
0.316787
0.316935
0.317327
0.317918
0.319091
0.322032
0.329891
0.353552
0.436046
0.588421
0.834407
1.08344
0.308929
0.516331
0.907085
1.15506
1.16857
1.21294
1.27416
1.28347
1.28308
1.27984
1.25788
1.16831
1.05274
0.98929
0.974595
0.985357
1.02717
1.058
1.057
1.03614
1.01679
1.00461
0.982882
0.953674
0.83719
0.32068
0.492321
0.876223
1.14273
1.14766
1.20667
1.26368
1.28236
1.28471
1.27806
1.25953
1.18808
1.06775
0.991976
0.967744