/*--------------------------------*- C++ -*----------------------------------*\
| =========                 |                                                 |
| \\      /  F ield         | OpenFOAM: The Open Source CFD Toolbox           |
|  \\    /   O peration     | Version:  4.1                                   |
|   \\  /    A nd           | Web:      www.OpenFOAM.org                      |
|    \\/     M anipulation  |                                                 |
\*---------------------------------------------------------------------------*/
FoamFile
{
    version     2.0;
    format      ascii;
    class       volVectorField;
    location    "0.76";
    object      U;
}
// * * * * * * * * * * * * * * * * * * * * * * * * * * * * * * * * * * * * * //

dimensions      [0 1 -1 0 0 0 0];

internalField   nonuniform List<vector> 
52500
(
(1.94935 -0.000236809 -0.00152028)
(1.24715 0.00207154 -0.00493739)
(0.33589 0.0123855 -0.00730902)
(-0.00610623 0.0130006 -0.00794256)
(0.344401 0.0135329 -0.00846355)
(0.361819 0.0146318 -0.00895536)
(0.31869 0.0152745 -0.00906099)
(0.314401 0.0157277 -0.00896462)
(0.352229 0.0163141 -0.00891346)
(0.368345 0.0162652 -0.00879424)
(0.363653 0.0162261 -0.00815129)
(0.367734 0.0157338 -0.00738194)
(0.375732 0.0149826 -0.00703043)
(0.381687 0.0144561 -0.00698626)
(0.380195 0.0143514 -0.00710735)
(0.363393 0.014902 -0.00739967)
(0.333173 0.0159394 -0.00756844)
(0.298198 0.0172493 -0.00755747)
(0.26762 0.0183005 -0.00743079)
(0.239557 0.0195021 -0.00740506)
(0.21641 0.0210369 -0.00739096)
(0.19316 0.0226639 -0.00731868)
(0.163128 0.0243223 -0.00715565)
(0.0967499 0.0263876 -0.00698735)
(0.0424923 0.0272659 -0.00664079)
(1.94794 -0.000870862 -0.00152727)
(1.25899 0.00625555 -0.00489341)
(0.342197 0.0382909 -0.00725855)
(-0.00657867 0.0379345 -0.00793231)
(0.343453 0.0365826 -0.00845154)
(0.361374 0.0380773 -0.00893659)
(0.318196 0.0386354 -0.00903941)
(0.313086 0.0384971 -0.00894227)
(0.350366 0.0381609 -0.00889085)
(0.366665 0.0363981 -0.00877226)
(0.362759 0.0354034 -0.00813094)
(0.367465 0.0338065 -0.00736344)
(0.376107 0.0322278 -0.00701076)
(0.382626 0.0314883 -0.00696344)
(0.381704 0.0313758 -0.00708016)
(0.365554 0.0325056 -0.00737026)
(0.335771 0.034463 -0.00754194)
(0.300711 0.0370277 -0.00753285)
(0.269923 0.0390163 -0.0074042)
(0.242104 0.0415569 -0.00737417)
(0.218958 0.0449784 -0.00735675)
(0.195376 0.0484 -0.00728221)
(0.164936 0.0515678 -0.00712061)
(0.0978112 0.0550816 -0.00695223)
(0.0426502 0.0560619 -0.00660574)
(1.94426 -0.00165197 -0.00154612)
(1.28423 0.0099577 -0.0048012)
(0.356381 0.0637142 -0.00716693)
(-0.00445741 0.0651618 -0.00792145)
(0.342883 0.0615425 -0.00843109)
(0.362833 0.0641088 -0.00890454)
(0.319952 0.0658585 -0.00901943)
(0.314246 0.0659192 -0.00892165)
(0.351319 0.0652251 -0.00887008)
(0.368442 0.0624245 -0.00875761)
(0.365411 0.0612125 -0.00813246)
(0.369772 0.0589047 -0.00735801)
(0.378345 0.05672 -0.00698987)
(0.384796 0.0558221 -0.00693191)
(0.384108 0.0558161 -0.00703884)
(0.368915 0.0579116 -0.00732689)
(0.340126 0.0612662 -0.00751092)
(0.305347 0.0657074 -0.00750856)
(0.274482 0.069354 -0.00738008)
(0.247253 0.0738623 -0.0073431)
(0.22424 0.0798381 -0.00732125)
(0.200108 0.0858 -0.0072447)
(0.169009 0.0909542 -0.00708555)
(0.100916 0.0966857 -0.00691955)
(0.0435579 0.0979285 -0.00657087)
(1.93843 -0.00238056 -0.00157625)
(1.32016 0.0124866 -0.00466415)
(0.377601 0.0840895 -0.00704052)
(0.000509837 0.0932373 -0.00791109)
(0.341498 0.0872725 -0.00840122)
(0.365189 0.0898763 -0.0088533)
(0.322917 0.0927005 -0.00899205)
(0.315928 0.092641 -0.00889528)
(0.352545 0.0909179 -0.00884676)
(0.371192 0.0871047 -0.00875202)
(0.369797 0.0854841 -0.0081717)
(0.373413 0.0821674 -0.00737423)
(0.38152 0.079061 -0.00697664)
(0.387813 0.077663 -0.00690368)
(0.387747 0.0775807 -0.00699976)
(0.374087 0.0806385 -0.00728162)
(0.346788 0.0854674 -0.00747782)
(0.312528 0.0919585 -0.00748432)
(0.281556 0.0975841 -0.00735644)
(0.255246 0.104285 -0.00730907)
(0.232732 0.11319 -0.00728096)
(0.207888 0.122313 -0.00720089)
(0.175979 0.130114 -0.00704867)
(0.106501 0.138695 -0.00688567)
(0.0451837 0.140731 -0.0065411)
(1.93069 -0.00308318 -0.00161636)
(1.36326 0.0136308 -0.00449141)
(0.40587 0.0982703 -0.00687845)
(0.00940137 0.122903 -0.00790811)
(0.338322 0.114045 -0.00836344)
(0.367708 0.115418 -0.00878647)
(0.326793 0.119108 -0.00895954)
(0.317508 0.118978 -0.00886575)
(0.353781 0.115808 -0.00881861)
(0.374763 0.111861 -0.00873932)
(0.375112 0.110149 -0.00821233)
(0.377743 0.105871 -0.00740018)
(0.385336 0.10187 -0.0069649)
(0.391329 0.0999672 -0.00686901)
(0.391925 0.0998064 -0.00694862)
(0.380192 0.103664 -0.00721864)
(0.354862 0.10978 -0.00743473)
(0.321569 0.11797 -0.00745521)
(0.290689 0.125616 -0.00733211)
(0.265701 0.134602 -0.0072712)
(0.244128 0.146423 -0.00723461)
(0.21859 0.158542 -0.00715196)
(0.185666 0.169517 -0.00700747)
(0.11452 0.181373 -0.00685307)
(0.047766 0.184858 -0.00651012)
(1.9208 -0.00370278 -0.00166827)
(1.4091 0.0134443 -0.00429093)
(0.441345 0.10505 -0.006691)
(0.0245962 0.154503 -0.00790525)
(0.331954 0.141203 -0.00831081)
(0.369795 0.141426 -0.00871377)
(0.331487 0.14508 -0.00892541)
(0.318915 0.145018 -0.00883419)
(0.354776 0.140283 -0.00878407)
(0.3792 0.136772 -0.00872412)
(0.381499 0.135184 -0.00826731)
(0.382834 0.130042 -0.00743759)
(0.389662 0.125048 -0.00695613)
(0.395261 0.122412 -0.00683095)
(0.396713 0.122163 -0.00689248)
(0.387258 0.126653 -0.00714646)
(0.364251 0.134085 -0.00738351)
(0.332445 0.143803 -0.00742224)
(0.302129 0.153862 -0.00730535)
(0.278798 0.165674 -0.0072269)
(0.258329 0.180275 -0.00718017)
(0.2324 0.195399 -0.00709834)
(0.198713 0.210468 -0.00696001)
(0.125592 0.226783 -0.00681644)
(0.0517097 0.233076 -0.00647699)
(1.90894 -0.00404649 -0.00173154)
(1.45226 0.0128644 -0.00408362)
(0.483937 0.104727 -0.00650118)
(0.0469549 0.188008 -0.00789996)
(0.320806 0.168125 -0.00824246)
(0.371068 0.168153 -0.00863521)
(0.33625 0.170207 -0.00888535)
(0.320287 0.170571 -0.00880441)
(0.355677 0.164685 -0.00875048)
(0.384443 0.161966 -0.00870599)
(0.388674 0.160573 -0.0083182)
(0.388514 0.154301 -0.00748508)
(0.394446 0.148313 -0.00695424)
(0.39967 0.144892 -0.00679103)
(0.402067 0.144537 -0.00683044)
(0.3951 0.149364 -0.00705839)
(0.374752 0.158036 -0.00731956)
(0.345143 0.169288 -0.00738176)
(0.316281 0.182309 -0.00727511)
(0.294605 0.196958 -0.00717699)
(0.275286 0.214371 -0.00712199)
(0.249897 0.233225 -0.00703742)
(0.216287 0.253513 -0.00690843)
(0.141314 0.276112 -0.00677168)
(0.0582836 0.288278 -0.00642585)
(1.8957 -0.0040932 -0.00180262)
(1.48892 0.0132605 -0.00390062)
(0.534776 0.103101 -0.00637485)
(0.0755775 0.222956 -0.00788387)
(0.303552 0.195092 -0.00816695)
(0.371457 0.194393 -0.00854632)
(0.340548 0.193708 -0.00883775)
(0.322171 0.19536 -0.00877276)
(0.356773 0.189499 -0.00871568)
(0.390432 0.187733 -0.00868452)
(0.396381 0.186279 -0.00836657)
(0.394728 0.178524 -0.0075558)
(0.399922 0.171484 -0.00696453)
(0.404734 0.167302 -0.00675162)
(0.408001 0.166799 -0.00676656)
(0.403588 0.171618 -0.00696033)
(0.386357 0.181372 -0.00724528)
(0.359917 0.194279 -0.00733306)
(0.333129 0.210262 -0.00724326)
(0.31303 0.227635 -0.00711766)
(0.295595 0.248381 -0.0070511)
(0.271998 0.271945 -0.00697424)
(0.239698 0.298871 -0.00684078)
(0.164317 0.330877 -0.00670654)
(0.0699385 0.355928 -0.00635475)
(1.88172 -0.00396786 -0.0018763)
(1.52261 0.0145366 -0.00372501)
(0.598051 0.103619 -0.00629392)
(0.112453 0.258926 -0.00786758)
(0.279685 0.222786 -0.00809119)
(0.370336 0.218099 -0.00843913)
(0.344583 0.215041 -0.00878283)
(0.32573 0.219158 -0.00874004)
(0.358908 0.215253 -0.00868269)
(0.396981 0.214467 -0.00865919)
(0.404116 0.212024 -0.00841057)
(0.401167 0.203219 -0.0076449)
(0.406041 0.19476 -0.00699018)
(0.410622 0.189542 -0.00671802)
(0.414573 0.188923 -0.00670363)
(0.412614 0.193264 -0.00685239)
(0.399003 0.204094 -0.00715605)
(0.376453 0.218596 -0.00727578)
(0.352502 0.23724 -0.00720569)
(0.334443 0.25737 -0.0070602)
(0.319805 0.281871 -0.00698045)
(0.299642 0.310982 -0.00690393)
(0.271306 0.346557 -0.00676571)
(0.200461 0.391671 -0.00662148)
(0.0925427 0.443917 -0.0062246)
(1.86739 -0.00380418 -0.00194955)
(1.55445 0.0157939 -0.00354683)
(0.677252 0.103965 -0.00618343)
(0.160231 0.295909 -0.00784085)
(0.247864 0.251709 -0.00800999)
(0.366488 0.238124 -0.00832799)
(0.349262 0.23407 -0.00871517)
(0.332402 0.241825 -0.00870212)
(0.363078 0.242265 -0.0086573)
(0.403396 0.242105 -0.00863211)
(0.411434 0.237678 -0.00844117)
(0.407949 0.228598 -0.00774472)
(0.412425 0.218522 -0.00703023)
(0.417223 0.211804 -0.00668965)
(0.421739 0.210789 -0.00663931)
(0.422148 0.214274 -0.0067528)
(0.41269 0.226147 -0.00705126)
(0.394543 0.242078 -0.00720783)
(0.374188 0.263128 -0.00716009)
(0.358863 0.285594 -0.00700926)
(0.348318 0.313759 -0.00690478)
(0.33401 0.348854 -0.00680426)
(0.313505 0.395502 -0.00665698)
(0.259013 0.461632 -0.00647902)
(0.136874 0.582001 -0.00597658)
(1.94937 -0.000239464 2.07899e-08)
(1.24703 0.00207301 -5.89193e-08)
(0.335835 0.0124149 -1.23952e-07)
(-0.00613945 0.0130515 1.58343e-07)
(0.344391 0.0135669 1.09779e-07)
(0.361813 0.0146741 1.37786e-07)
(0.318673 0.0153425 1.40004e-07)
(0.314324 0.0158196 1.45038e-07)
(0.352085 0.0163925 1.3779e-07)
(0.368201 0.016279 1.66019e-07)
(0.363552 0.0161942 3.30294e-08)
(0.367694 0.0156759 9.40195e-08)
(0.375752 0.0149416 1.04396e-07)
(0.381737 0.0144526 2.77383e-08)
(0.380247 0.0143703 6.60937e-08)
(0.363431 0.0149309 -8.1592e-08)
(0.333184 0.0159589 -1.98675e-07)
(0.298194 0.0172592 -2.84198e-07)
(0.267602 0.0183032 -2.41831e-07)
(0.239524 0.0195025 -1.58896e-07)
(0.216386 0.0210362 -2.46965e-08)
(0.193116 0.0226618 2.95062e-07)
(0.16306 0.0243225 4.00102e-07)
(0.0967121 0.0263893 4.32328e-07)
(0.0424866 0.0272715 4.51318e-07)
(1.94795 -0.00087252 1.17175e-08)
(1.25889 0.00626025 -5.59462e-08)
(0.342161 0.0383217 -1.0723e-07)
(-0.00651097 0.037946 1.47131e-07)
(0.343514 0.0365714 1.01887e-07)
(0.361472 0.0380656 1.64376e-07)
(0.318348 0.0386381 1.47283e-07)
(0.313296 0.0384947 1.16521e-07)
(0.350619 0.0381244 1.32745e-07)
(0.367008 0.036327 1.46457e-07)
(0.363182 0.0353175 6.39597e-08)
(0.367858 0.0337321 8.75321e-08)
(0.376443 0.0321888 8.76954e-08)
(0.382865 0.0314796 3.42044e-08)
(0.381849 0.0313927 4.34688e-08)
(0.365635 0.0325325 -5.91492e-08)
(0.335801 0.0344901 -1.69592e-07)
(0.300716 0.0370484 -2.49543e-07)
(0.269908 0.0390322 -2.14612e-07)
(0.242071 0.0415694 -1.42657e-07)
(0.218932 0.0449839 -1.34221e-08)
(0.195331 0.0483957 2.81479e-07)
(0.164869 0.051568 3.81802e-07)
(0.0977699 0.0550824 4.17098e-07)
(0.0426441 0.0560684 4.31712e-07)
(1.94426 -0.0016488 1.31571e-08)
(1.28413 0.00996466 -4.2892e-08)
(0.356332 0.0637191 -9.08006e-08)
(-0.00444622 0.0651325 1.27613e-07)
(0.342925 0.0615241 1.01816e-07)
(0.362906 0.0640888 1.75917e-07)
(0.32007 0.0658347 1.48136e-07)
(0.314377 0.0658887 9.75022e-08)
(0.351458 0.0651815 1.34779e-07)
(0.368636 0.0624027 1.26411e-07)
(0.365647 0.0611857 1.13503e-07)
(0.369969 0.0589186 9.21397e-08)
(0.378504 0.0567758 7.04166e-08)
(0.38492 0.0558928 3.48246e-08)
(0.384196 0.0559035 2.79047e-08)
(0.368958 0.057978 -3.654e-08)
(0.340124 0.0613181 -1.3931e-07)
(0.305325 0.0657438 -2.06935e-07)
(0.274453 0.0693828 -1.78633e-07)
(0.24721 0.0738863 -1.11048e-07)
(0.224202 0.0798508 1.38855e-08)
(0.20006 0.0857928 2.53918e-07)
(0.168947 0.0909521 3.56368e-07)
(0.100877 0.0966837 3.96342e-07)
(0.0435524 0.0979347 4.04493e-07)
(1.93844 -0.00237769 2.08534e-08)
(1.32008 0.0124941 -2.589e-08)
(0.377563 0.0840995 -6.83207e-08)
(0.000498874 0.093213 1.38925e-07)
(0.341515 0.0872546 1.16871e-07)
(0.365224 0.0898534 1.72146e-07)
(0.322979 0.0926643 1.34988e-07)
(0.315979 0.0925995 8.59707e-08)
(0.352569 0.0908733 1.26416e-07)
(0.371203 0.0870982 1.10005e-07)
(0.369798 0.0854858 1.36971e-07)
(0.373406 0.0822345 8.04861e-08)
(0.381502 0.0791809 3.68091e-08)
(0.38779 0.0778072 2.70023e-08)
(0.38771 0.0777299 7.12601e-09)
(0.37402 0.0807513 -5.54966e-08)
(0.346705 0.0855448 -1.18589e-07)
(0.312452 0.0920097 -1.50575e-07)
(0.281497 0.0976167 -1.28115e-07)
(0.255185 0.104308 -6.92453e-08)
(0.232676 0.113203 4.71474e-08)
(0.207833 0.122305 2.3247e-07)
(0.175922 0.130109 3.14832e-07)
(0.106465 0.13869 3.5395e-07)
(0.0451785 0.140735 3.5495e-07)
(1.93071 -0.00308231 2.27415e-08)
(1.36319 0.0136389 -7.93188e-09)
(0.405844 0.0982975 -3.37328e-08)
(0.00939161 0.122885 1.55333e-07)
(0.338329 0.114025 1.02759e-07)
(0.367722 0.115392 1.41907e-07)
(0.326815 0.119075 1.23134e-07)
(0.317509 0.118942 8.50023e-08)
(0.353751 0.115777 1.26295e-07)
(0.374687 0.111847 1.09027e-07)
(0.374962 0.110145 1.36382e-07)
(0.377573 0.105925 9.22481e-08)
(0.38515 0.101974 4.03209e-08)
(0.391144 0.100086 1.86329e-08)
(0.391732 0.0999216 1.50096e-08)
(0.379991 0.103747 -2.37529e-08)
(0.354683 0.109835 -6.48892e-08)
(0.321432 0.118008 -1.02434e-07)
(0.290597 0.125634 -7.09679e-08)
(0.265624 0.134612 -1.12145e-08)
(0.244061 0.146428 6.79688e-08)
(0.218532 0.158535 2.07872e-07)
(0.185616 0.16951 2.73488e-07)
(0.114489 0.181365 3.03253e-07)
(0.0477614 0.184859 3.07545e-07)
(1.92082 -0.00370287 2.39923e-08)
(1.40905 0.0134519 1.3434e-08)
(0.441329 0.105085 1.13005e-08)
(0.0245916 0.15449 1.65646e-07)
(0.331965 0.141187 8.83806e-08)
(0.369801 0.141401 1.29057e-07)
(0.331489 0.145055 1.29896e-07)
(0.318895 0.144999 1.05666e-07)
(0.354723 0.140281 1.34203e-07)
(0.379069 0.136777 1.06997e-07)
(0.381298 0.135192 1.01554e-07)
(0.382633 0.130092 3.34435e-08)
(0.389447 0.125124 3.58491e-08)
(0.395048 0.12248 2.75305e-08)
(0.396497 0.12221 5.65698e-09)
(0.387028 0.126666 -3.06776e-09)
(0.36405 0.134079 -3.10413e-08)
(0.332286 0.143803 -6.27153e-08)
(0.302016 0.15385 -2.31755e-08)
(0.278712 0.165665 3.83533e-08)
(0.258256 0.180268 9.09881e-08)
(0.23234 0.195388 1.89396e-07)
(0.198665 0.210457 2.32834e-07)
(0.125565 0.226771 2.53281e-07)
(0.0517053 0.233074 2.55482e-07)
(1.90896 -0.00404701 2.27267e-08)
(1.45224 0.0128688 3.41688e-08)
(0.48393 0.104755 6.90963e-08)
(0.0469539 0.188001 1.69154e-07)
(0.320822 0.168114 8.23156e-08)
(0.37107 0.168134 1.20639e-07)
(0.336245 0.170197 1.26112e-07)
(0.320265 0.170578 1.11013e-07)
(0.355625 0.164718 1.32311e-07)
(0.384303 0.162005 1.01683e-07)
(0.38846 0.160613 1.19029e-07)
(0.388298 0.154387 1.49717e-08)
(0.394231 0.148393 3.56718e-08)
(0.399485 0.144942 3.72018e-08)
(0.401901 0.144551 -1.03037e-08)
(0.394927 0.149347 -1.29693e-09)
(0.374603 0.157998 -1.89475e-08)
(0.345013 0.169257 -2.27966e-08)
(0.316177 0.182273 2.79506e-09)
(0.294526 0.196929 5.28588e-08)
(0.275217 0.21435 1.15772e-07)
(0.24984 0.233207 1.7842e-07)
(0.216243 0.253497 1.95745e-07)
(0.141292 0.276095 2.0425e-07)
(0.0582811 0.288274 2.15987e-07)
(1.89571 -0.00409384 2.0942e-08)
(1.48891 0.0132622 4.00081e-08)
(0.534776 0.103119 1.07331e-07)
(0.0755795 0.222954 1.7246e-07)
(0.303572 0.195087 8.17751e-08)
(0.371459 0.194386 1.05006e-07)
(0.340545 0.193718 1.14175e-07)
(0.322154 0.195393 1.11549e-07)
(0.356733 0.189561 1.24788e-07)
(0.390308 0.187796 7.26943e-08)
(0.396191 0.186334 3.98381e-08)
(0.394542 0.178605 7.16297e-08)
(0.399735 0.171552 9.83559e-08)
(0.404593 0.167335 6.36954e-08)
(0.407887 0.166796 7.88804e-09)
(0.403466 0.171603 -4.0082e-09)
(0.386247 0.181343 -1.18947e-08)
(0.359814 0.194241 -3.26029e-09)
(0.333037 0.21022 1.47965e-08)
(0.312962 0.227596 6.75265e-08)
(0.295534 0.24835 1.29881e-07)
(0.271945 0.27192 1.7131e-07)
(0.239657 0.298848 1.67272e-07)
(0.164302 0.330855 1.61894e-07)
(0.0699401 0.355922 1.83012e-07)
(1.88174 -0.00396887 1.76752e-08)
(1.52261 0.0145368 3.74589e-08)
(0.598058 0.10363 1.16034e-07)
(0.112458 0.258928 1.94484e-07)
(0.279711 0.222789 8.32834e-08)
(0.370338 0.218104 8.31819e-08)
(0.344582 0.215065 1.14346e-07)
(0.325721 0.219208 1.17551e-07)
(0.358886 0.215333 1.18588e-07)
(0.396891 0.214552 5.85865e-08)
(0.403982 0.212116 9.81088e-08)
(0.401055 0.203284 3.00848e-08)
(0.405919 0.194801 9.77948e-08)
(0.410521 0.18955 8.7664e-08)
(0.414487 0.188898 3.95294e-09)
(0.412518 0.193236 1.65648e-08)
(0.39891 0.204064 -1.29025e-08)
(0.376363 0.218555 4.6576e-09)
(0.352421 0.237198 1.65346e-08)
(0.334384 0.257328 8.51862e-08)
(0.319752 0.281834 1.3534e-07)
(0.299596 0.310951 1.68436e-07)
(0.271268 0.34653 1.48123e-07)
(0.20045 0.391644 1.29994e-07)
(0.0925489 0.443907 1.51803e-07)
(1.8674 -0.00380527 1.27077e-08)
(1.55445 0.0157939 3.06367e-08)
(0.67726 0.103972 1.13924e-07)
(0.16024 0.295914 2.31702e-07)
(0.247899 0.251719 8.35901e-08)
(0.366491 0.238138 6.31826e-08)
(0.349263 0.2341 1.29218e-07)
(0.3324 0.241883 1.39437e-07)
(0.363075 0.242354 1.35117e-07)
(0.403356 0.242205 8.54261e-08)
(0.411363 0.237791 1.28006e-07)
(0.407902 0.228661 5.58725e-09)
(0.412372 0.218542 7.74263e-08)
(0.417164 0.211789 7.34392e-08)
(0.421674 0.210747 1.70759e-08)
(0.422065 0.214224 1.78925e-08)
(0.412607 0.226104 -6.59698e-09)
(0.394464 0.242029 1.33796e-08)
(0.374121 0.263081 2.31033e-08)
(0.358813 0.285546 9.62218e-08)
(0.348272 0.313715 1.3962e-07)
(0.33397 0.348816 1.63735e-07)
(0.313471 0.395471 1.43119e-07)
(0.259005 0.461601 1.07565e-07)
(0.136884 0.581984 1.14085e-07)
(1.94936 -0.000237551 2.51352e-09)
(1.24712 0.00207196 1.87428e-07)
(0.335888 0.0123931 4.33718e-07)
(-0.0061034 0.0130131 -8.19637e-08)
(0.344398 0.013542 -7.89054e-08)
(0.361824 0.0146451 -6.21093e-08)
(0.318689 0.0152987 -6.04026e-08)
(0.314366 0.0157647 -6.44837e-08)
(0.352149 0.0163547 -6.23655e-08)
(0.368216 0.0162867 2.62328e-08)
(0.363489 0.0162311 -1.52007e-07)
(0.367588 0.0157137 -8.07159e-08)
(0.375599 0.0149484 -2.81038e-08)
(0.381574 0.0144218 -1.5485e-07)
(0.380094 0.0143221 -7.08781e-08)
(0.363294 0.0148834 -2.27764e-07)
(0.333085 0.0159269 -2.4434e-07)
(0.29813 0.0172404 -2.07111e-07)
(0.267575 0.0182927 -9.75562e-08)
(0.239523 0.0194963 6.51643e-08)
(0.216407 0.021033 1.63852e-07)
(0.19316 0.0226604 1.93485e-07)
(0.163121 0.0243213 1.30874e-07)
(0.0967565 0.0263878 1.21263e-07)
(0.0425003 0.0272704 7.5904e-08)
(1.94795 -0.000871495 2.50016e-08)
(1.25896 0.00625719 1.87701e-07)
(0.342199 0.0383018 4.02531e-07)
(-0.00655332 0.0379404 -5.71108e-08)
(0.343468 0.0365844 -5.13357e-08)
(0.361408 0.0380846 -1.10619e-07)
(0.318244 0.0386564 -8.0113e-08)
(0.313135 0.0385298 -2.58074e-08)
(0.350406 0.0381966 -6.50315e-08)
(0.366694 0.0364119 1.24368e-08)
(0.362777 0.0354087 -1.87562e-07)
(0.367478 0.0337871 -5.96392e-08)
(0.376106 0.0322004 -1.61661e-08)
(0.382614 0.0314708 -1.30034e-07)
(0.381677 0.0313676 -3.45045e-08)
(0.36551 0.0325089 -2.25518e-07)
(0.335718 0.0344656 -2.24689e-07)
(0.300662 0.0370272 -2.03164e-07)
(0.269886 0.0390112 -1.08302e-07)
(0.242072 0.0415513 4.5209e-08)
(0.218954 0.0449729 1.60514e-07)
(0.195376 0.0483919 1.89876e-07)
(0.164928 0.0515649 1.28187e-07)
(0.097814 0.055079 1.14534e-07)
(0.042658 0.0560654 6.81457e-08)
(1.94426 -0.00165121 1.40297e-08)
(1.2842 0.00996057 1.69693e-07)
(0.356383 0.0637207 4.08499e-07)
(-0.00444099 0.0651574 -9.937e-09)
(0.342898 0.0615425 -4.8578e-08)
(0.362867 0.0641161 -1.16256e-07)
(0.320006 0.0658768 -8.10581e-08)
(0.314301 0.0659512 -1.03754e-08)
(0.351368 0.0652663 -3.87318e-08)
(0.368504 0.0624537 1.79433e-08)
(0.365484 0.0612299 -9.21553e-08)
(0.36983 0.0588954 -2.68991e-08)
(0.378382 0.0566993 -3.21745e-08)
(0.38481 0.055803 -1.03469e-07)
(0.384095 0.0558039 -9.51344e-08)
(0.368879 0.0579052 -1.89372e-07)
(0.340077 0.0612624 -2.10339e-07)
(0.305301 0.0657041 -1.90161e-07)
(0.274448 0.0693485 -1.16473e-07)
(0.247224 0.0738573 -5.10654e-10)
(0.224236 0.0798325 1.26224e-07)
(0.200111 0.085788 1.87204e-07)
(0.169006 0.0909481 1.25993e-07)
(0.100921 0.096679 1.05419e-07)
(0.0435665 0.0979304 5.72072e-08)
(1.93844 -0.00237974 -3.12084e-09)
(1.32015 0.0124898 1.59134e-07)
(0.377609 0.0840964 4.24125e-07)
(0.000520296 0.093232 -3.56691e-08)
(0.341509 0.0872717 -8.94252e-08)
(0.365218 0.0898812 -7.13419e-08)
(0.322969 0.0927131 -3.43441e-08)
(0.315979 0.0926658 3.49629e-09)
(0.352586 0.0909519 -9.03553e-09)
(0.371247 0.0871415 -4.18273e-09)
(0.369873 0.0855155 2.35848e-08)
(0.373481 0.0821855 -1.64622e-08)
(0.381575 0.0790664 -4.75614e-08)
(0.387858 0.0776664 -1.03552e-07)
(0.387776 0.0775867 -1.65514e-07)
(0.374088 0.0806506 -1.50296e-07)
(0.346765 0.0854765 -1.82064e-07)
(0.312494 0.0919632 -1.83873e-07)
(0.281526 0.0975818 -1.27444e-07)
(0.255219 0.10428 -4.44838e-08)
(0.232726 0.113184 6.93299e-08)
(0.207892 0.1223 1.78272e-07)
(0.175982 0.130105 1.20478e-07)
(0.106509 0.138685 8.90871e-08)
(0.045193 0.14073 3.60175e-08)
(1.9307 -0.00308299 -8.49349e-09)
(1.36325 0.0136338 1.47985e-07)
(0.405884 0.0982808 4.33216e-07)
(0.00941282 0.122898 -5.95484e-08)
(0.338332 0.114042 -4.34972e-08)
(0.367734 0.115419 1.10124e-09)
(0.326839 0.119116 5.51782e-09)
(0.317553 0.118995 -2.27946e-08)
(0.353822 0.115833 3.32917e-09)
(0.374829 0.111888 -2.68426e-09)
(0.375178 0.110172 1.0379e-07)
(0.377785 0.105883 3.51892e-09)
(0.385361 0.101882 -4.83456e-08)
(0.391338 0.0999856 -9.74846e-08)
(0.391911 0.0998265 -1.58653e-07)
(0.380157 0.103692 -1.21368e-07)
(0.354811 0.1098 -1.50028e-07)
(0.32152 0.117979 -1.97628e-07)
(0.290653 0.125614 -1.31661e-07)
(0.265673 0.134596 -5.77632e-08)
(0.244122 0.146417 3.87516e-08)
(0.218597 0.158529 1.47665e-07)
(0.185676 0.169507 1.10027e-07)
(0.114532 0.18136 7.03399e-08)
(0.0477757 0.184853 1.35316e-08)
(1.92081 -0.00370292 -1.29108e-08)
(1.40909 0.0134468 1.23078e-07)
(0.441365 0.105062 4.18319e-07)
(0.024611 0.154496 -4.41362e-08)
(0.331966 0.141199 -4.56234e-09)
(0.36982 0.141424 5.32199e-09)
(0.331529 0.145082 -9.90798e-09)
(0.318954 0.145029 -6.04855e-08)
(0.354806 0.140304 8.21397e-09)
(0.379244 0.136798 -1.04545e-08)
(0.381571 0.135205 1.32803e-07)
(0.382902 0.130054 9.99156e-09)
(0.389705 0.125062 -9.00319e-08)
(0.395265 0.122426 -1.1729e-07)
(0.396684 0.122171 -1.46834e-07)
(0.387208 0.126657 -1.26317e-07)
(0.364188 0.134086 -1.3952e-07)
(0.332388 0.143803 -2.30391e-07)
(0.302088 0.153854 -1.36253e-07)
(0.27877 0.165666 -4.20817e-08)
(0.258322 0.18027 3.26969e-08)
(0.232408 0.195387 1.16836e-07)
(0.198725 0.210456 9.21888e-08)
(0.125607 0.226767 5.2144e-08)
(0.0517192 0.233069 -1.08779e-08)
(1.90895 -0.00404681 -1.59412e-08)
(1.45227 0.0128654 8.26053e-08)
(0.483962 0.104734 3.52612e-07)
(0.0469728 0.188002 -5.98133e-12)
(0.320821 0.168121 -9.83653e-10)
(0.371091 0.168149 2.07654e-08)
(0.336287 0.170206 1.95577e-08)
(0.32032 0.170578 -4.20313e-08)
(0.355697 0.164704 1.71768e-08)
(0.384469 0.161995 7.52639e-10)
(0.388717 0.160604 2.2248e-07)
(0.388547 0.154349 -1.06804e-07)
(0.394466 0.148361 -1.28858e-07)
(0.399668 0.144923 -1.22286e-07)
(0.402048 0.144551 -1.20645e-07)
(0.395067 0.149358 -1.27929e-07)
(0.374707 0.158021 -1.52323e-07)
(0.345095 0.169275 -2.39119e-07)
(0.316242 0.182293 -1.37616e-07)
(0.294582 0.196945 -5.29975e-08)
(0.275281 0.214363 4.84949e-08)
(0.249904 0.233214 9.98906e-08)
(0.2163 0.253499 7.8432e-08)
(0.141332 0.276094 3.65341e-08)
(0.0582943 0.288271 -2.72851e-08)
(1.8957 -0.00409358 -1.81451e-08)
(1.48893 0.0132604 5.71078e-08)
(0.534806 0.103104 2.39365e-07)
(0.075598 0.222951 5.68231e-08)
(0.30357 0.195089 1.93908e-09)
(0.371478 0.194388 7.3992e-08)
(0.340581 0.193705 5.99655e-08)
(0.322198 0.195365 -1.00585e-08)
(0.356787 0.189517 1.89313e-08)
(0.390444 0.187758 2.86528e-08)
(0.396386 0.186296 2.10721e-07)
(0.39472 0.178571 -1.41374e-07)
(0.399909 0.171541 -1.5456e-07)
(0.404722 0.167343 -1.13762e-07)
(0.407988 0.166822 -1.08131e-07)
(0.403569 0.171621 -1.28858e-07)
(0.386329 0.18136 -1.68792e-07)
(0.359884 0.194264 -2.24473e-07)
(0.333097 0.210244 -1.52005e-07)
(0.313014 0.227621 -5.27078e-08)
(0.295593 0.24837 5.31534e-08)
(0.272005 0.271932 9.11475e-08)
(0.23971 0.298855 6.9485e-08)
(0.164338 0.330857 2.62126e-08)
(0.0699526 0.355921 -3.82428e-08)
(1.88173 -0.00396845 -1.83082e-08)
(1.52262 0.0145359 5.15942e-08)
(0.598085 0.10362 2.20765e-07)
(0.112477 0.258922 8.56777e-08)
(0.279706 0.222785 3.17356e-09)
(0.370354 0.218094 9.92528e-08)
(0.344611 0.215038 7.23436e-08)
(0.325754 0.219162 4.59195e-09)
(0.35892 0.215272 1.13159e-08)
(0.396983 0.214493 3.50792e-08)
(0.4041 0.212047 7.83115e-08)
(0.401151 0.203254 -8.78122e-08)
(0.406022 0.194806 -1.59252e-07)
(0.410606 0.189579 -1.34445e-07)
(0.41456 0.188942 -6.8041e-08)
(0.412596 0.193271 -1.79604e-07)
(0.398979 0.204089 -1.49127e-07)
(0.376422 0.218584 -2.0831e-07)
(0.352474 0.237226 -1.43866e-07)
(0.33443 0.257358 -6.29649e-08)
(0.319804 0.281859 4.53468e-08)
(0.299649 0.310969 8.34038e-08)
(0.271317 0.346541 6.71191e-08)
(0.200483 0.391649 2.28557e-08)
(0.0925608 0.443909 -4.46743e-08)
(1.8674 -0.00380482 -1.66378e-08)
(1.55446 0.0157933 4.96446e-08)
(0.677285 0.103965 2.01316e-07)
(0.160258 0.295906 1.04885e-07)
(0.247891 0.251712 -2.52457e-08)
(0.366504 0.23812 7.05463e-08)
(0.349287 0.234065 5.91181e-08)
(0.332425 0.241828 1.37384e-08)
(0.363093 0.242285 -1.07274e-08)
(0.403402 0.242134 1.78524e-09)
(0.411416 0.237713 -2.03166e-08)
(0.407933 0.228631 -6.22666e-08)
(0.412414 0.218556 -1.20962e-07)
(0.41721 0.21183 -1.14667e-07)
(0.421726 0.2108 -8.80429e-08)
(0.422129 0.214274 -1.92795e-07)
(0.412663 0.226139 -1.46312e-07)
(0.394513 0.242064 -1.90274e-07)
(0.374162 0.263115 -1.2497e-07)
(0.358851 0.285581 -7.94777e-08)
(0.348317 0.313747 3.03657e-08)
(0.334016 0.348839 7.72782e-08)
(0.313513 0.395485 6.44428e-08)
(0.259033 0.461609 2.47547e-08)
(0.136896 0.58199 -4.60187e-08)
(1.94937 -0.000237771 -1.87702e-08)
(1.24711 0.00207221 3.13633e-07)
(0.33589 0.012396 7.32925e-07)
(-0.00610083 0.013017 -2.26566e-07)
(0.344396 0.0135446 -1.13102e-07)
(0.36182 0.014648 3.83474e-08)
(0.318683 0.0153032 3.58057e-08)
(0.314357 0.0157711 -1.146e-08)
(0.352136 0.0163608 -1.01642e-08)
(0.368201 0.0162894 -2.32425e-08)
(0.363476 0.0162331 -1.76293e-08)
(0.367579 0.0157166 -2.64473e-08)
(0.375591 0.0149551 -3.56939e-08)
(0.381562 0.0144323 -4.92291e-08)
(0.380072 0.0143338 -6.34844e-08)
(0.363258 0.0148928 -4.87422e-08)
(0.333037 0.0159325 -1.0393e-08)
(0.298083 0.0172428 3.89577e-08)
(0.267537 0.0182932 7.46068e-08)
(0.239494 0.0194964 1.20055e-07)
(0.216398 0.0210333 1.36152e-07)
(0.193155 0.0226604 7.22865e-08)
(0.163108 0.0243222 9.01846e-08)
(0.0967485 0.0263889 1.46975e-07)
(0.0424963 0.027272 1.73329e-07)
(1.94795 -0.000871743 -1.7452e-08)
(1.25895 0.00625804 3.1031e-07)
(0.342203 0.0383074 7.37104e-07)
(-0.00654553 0.0379437 -2.27726e-07)
(0.34347 0.0365851 -1.1932e-07)
(0.36141 0.0380845 4.19012e-08)
(0.318247 0.0386566 2.65242e-08)
(0.313141 0.0385298 -1.65141e-08)
(0.350414 0.0381935 -1.95257e-08)
(0.366706 0.0364034 -3.23846e-08)
(0.362793 0.0353982 -2.14907e-08)
(0.367494 0.0337753 -2.87161e-08)
(0.376116 0.03219 -3.36562e-08)
(0.382614 0.0314618 -4.49511e-08)
(0.381661 0.0313612 -6.09876e-08)
(0.365476 0.0325041 -6.19561e-08)
(0.335671 0.0344641 -3.29416e-08)
(0.300615 0.0370276 1.56402e-08)
(0.269848 0.0390125 5.38691e-08)
(0.242043 0.0415533 1.07164e-07)
(0.218945 0.0449749 1.36011e-07)
(0.19537 0.0483922 8.21943e-08)
(0.164916 0.0515666 9.2914e-08)
(0.0978064 0.0550812 1.40782e-07)
(0.0426546 0.0560687 1.65221e-07)
(1.94427 -0.0016513 -1.85663e-08)
(1.2842 0.00996197 3.04106e-07)
(0.356387 0.0637279 7.52193e-07)
(-0.00443702 0.0651613 -2.30919e-07)
(0.342899 0.0615445 -1.26183e-07)
(0.362869 0.0641165 3.87796e-08)
(0.32001 0.0658765 2.50005e-08)
(0.314308 0.0659506 -2.06481e-08)
(0.35138 0.0652622 -3.09992e-08)
(0.368525 0.0624449 -3.91684e-08)
(0.365511 0.0612187 -2.33357e-08)
(0.369856 0.0588883 -3.13606e-08)
(0.378403 0.0567005 -3.40724e-08)
(0.384825 0.0558129 -4.32338e-08)
(0.384098 0.0558157 -6.34331e-08)
(0.36886 0.057918 -8.08666e-08)
(0.34004 0.061271 -5.87606e-08)
(0.305258 0.0657097 -1.68027e-08)
(0.274412 0.0693514 2.40545e-08)
(0.247196 0.0738595 8.46355e-08)
(0.224225 0.0798345 1.35896e-07)
(0.200105 0.0857877 1.05284e-07)
(0.168996 0.0909496 9.73254e-08)
(0.100914 0.0966814 1.33072e-07)
(0.0435639 0.0979343 1.54393e-07)
(1.93844 -0.00237988 -2.52149e-08)
(1.32015 0.0124914 2.87622e-07)
(0.377616 0.0841053 7.72218e-07)
(0.000524797 0.0932378 -2.31833e-07)
(0.341509 0.0872747 -1.30441e-07)
(0.365219 0.089881 3.0296e-08)
(0.322971 0.09271 2.69864e-08)
(0.315983 0.092661 -1.79356e-08)
(0.35259 0.0909432 -4.33099e-08)
(0.371257 0.0871362 -5.67755e-08)
(0.36989 0.0855086 -3.37739e-08)
(0.373492 0.0821921 -3.23294e-08)
(0.38157 0.0790883 -3.24e-08)
(0.387828 0.0776979 -4.65389e-08)
(0.387723 0.0776169 -7.12444e-08)
(0.374023 0.0806727 -7.813e-08)
(0.346696 0.0854884 -8.57843e-08)
(0.312435 0.0919699 -5.3482e-08)
(0.281482 0.0975842 -9.51174e-09)
(0.255188 0.104281 5.68227e-08)
(0.232714 0.113185 1.31838e-07)
(0.207886 0.122299 1.28761e-07)
(0.175972 0.130106 1.02677e-07)
(0.106503 0.138687 1.20261e-07)
(0.0451912 0.140733 1.36875e-07)
(1.9307 -0.00308324 -2.88617e-08)
(1.36325 0.0136353 2.61027e-07)
(0.405894 0.0982901 7.73735e-07)
(0.00941756 0.122905 -2.16003e-07)
(0.33833 0.114047 -1.21865e-07)
(0.367733 0.115419 9.65335e-09)
(0.326837 0.11911 3.35811e-08)
(0.317548 0.118986 -8.84802e-09)
(0.353814 0.115822 -4.47934e-08)
(0.374808 0.111888 -5.5689e-08)
(0.375138 0.110174 -6.80285e-08)
(0.377734 0.105905 -7.08148e-08)
(0.385293 0.101913 -5.18622e-08)
(0.391253 0.100008 -3.73684e-08)
(0.391813 0.0998421 -6.85616e-08)
(0.380057 0.103689 -1.05232e-07)
(0.354722 0.109794 -1.26524e-07)
(0.321451 0.117977 -9.25855e-08)
(0.290604 0.125611 -4.45308e-08)
(0.265641 0.134596 2.77985e-08)
(0.244108 0.146418 1.41995e-07)
(0.218591 0.158526 1.33971e-07)
(0.185668 0.169506 1.02654e-07)
(0.114528 0.181362 1.04429e-07)
(0.0477745 0.184856 1.11433e-07)
(1.92081 -0.00370331 -3.41776e-08)
(1.4091 0.0134478 2.17056e-07)
(0.441379 0.10507 7.46259e-07)
(0.0246172 0.154507 -1.90477e-07)
(0.331963 0.141206 -1.05821e-07)
(0.369815 0.141425 -8.37479e-09)
(0.331521 0.145079 3.32598e-08)
(0.318942 0.145022 -9.08123e-09)
(0.354789 0.140298 -4.86175e-08)
(0.379197 0.1368 -4.44393e-08)
(0.381483 0.13521 -9.5484e-08)
(0.382804 0.130079 -3.86166e-08)
(0.389606 0.125087 -2.51574e-08)
(0.395178 0.122432 -1.991e-08)
(0.396604 0.122162 -5.2982e-08)
(0.387125 0.12663 -1.15701e-07)
(0.364115 0.134057 -1.53058e-07)
(0.332325 0.143785 -7.33147e-08)