/*--------------------------------*- C++ -*----------------------------------*\
| =========                 |                                                 |
| \\      /  F ield         | OpenFOAM: The Open Source CFD Toolbox           |
|  \\    /   O peration     | Version:  4.1                                   |
|   \\  /    A nd           | Web:      www.OpenFOAM.org                      |
|    \\/     M anipulation  |                                                 |
\*---------------------------------------------------------------------------*/
FoamFile
{
    version     2.0;
    format      ascii;
    class       volScalarField;
    location    "4.94";
    object      Ma;
}
// * * * * * * * * * * * * * * * * * * * * * * * * * * * * * * * * * * * * * //

dimensions      [0 0 0 0 0 0 0];

internalField   nonuniform List<scalar> 
52500
(
3.00002
2.99997
2.99991
2.99968
2.99936
2.99805
2.99616
2.98897
2.97691
2.93793
2.84881
2.64356
2.09859
1.26042
0.525119
0.278494
0.329121
0.344197
0.311984
0.257426
0.205093
0.163331
0.122312
0.0768995
0.0437761
3.00002
2.99997
2.99992
2.99969
2.99937
2.99808
2.99622
2.98913
2.97723
2.93884
2.85092
2.64844
2.10876
1.27428
0.532075
0.278159
0.330226
0.346092
0.314106
0.260334
0.209326
0.169079
0.130308
0.0901552
0.0664059
3.00002
2.99997
2.99992
2.9997
2.99939
2.99813
2.99632
2.9894
2.97789
2.94042
2.85538
2.65779
2.13401
1.30685
0.550493
0.281799
0.33603
0.353573
0.322357
0.270631
0.222554
0.185747
0.151873
0.120109
0.104447
3.00002
2.99997
2.99992
2.99971
2.99941
2.9982
2.99647
2.98982
2.97887
2.94286
2.86212
2.67209
2.17296
1.3583
0.578784
0.28828
0.345714
0.366095
0.336301
0.287544
0.243244
0.210693
0.182319
0.157563
0.146339
3.00002
2.99998
2.99993
2.99972
2.99944
2.99828
2.99664
2.99018
2.98007
2.94537
2.87224
2.69122
2.22813
1.43161
0.618733
0.301324
0.361023
0.384502
0.35613
0.310839
0.270304
0.241977
0.218475
0.199119
0.190938
3.00002
2.99998
2.99993
2.99974
2.99948
2.99839
2.99686
2.99073
2.9815
2.94846
2.88443
2.71426
2.29522
1.5259
0.670409
0.324744
0.384174
0.409616
0.382512
0.340459
0.303739
0.279342
0.260649
0.246221
0.240888
3.00002
2.99998
2.99994
2.99977
2.99952
2.99853
2.99712
2.99153
2.98311
2.9528
2.89623
2.73893
2.36754
1.63708
0.732719
0.362696
0.418421
0.442487
0.416432
0.377679
0.344192
0.323606
0.309373
0.300355
0.300209
3.00002
2.99999
2.99995
2.99979
2.99957
2.99867
2.99739
2.99231
2.98469
2.95701
2.90628
2.76188
2.4257
1.73058
0.789366
0.398534
0.44806
0.469139
0.449114
0.417778
0.389627
0.374106
0.366228
0.364951
0.374581
3.00002
2.99999
2.99996
2.99982
2.99962
2.99881
2.99767
2.9931
2.98633
2.96147
2.91574
2.78768
2.47441
1.83994
0.869185
0.455229
0.472264
0.484764
0.478287
0.457291
0.437731
0.429533
0.430156
0.44266
0.476574
3.00002
3
2.99997
2.99985
2.99968
2.99903
2.99805
2.99451
2.98819
2.96886
2.92361
2.81682
2.51716
1.95598
0.980552
0.526713
0.489168
0.501743
0.506061
0.495183
0.487041
0.488425
0.504534
0.545983
0.645257
3
2.99995
2.9999
2.99966
2.99934
2.99803
2.99614
2.98894
2.97688
2.93789
2.84878
2.64349
2.09852
1.26029
0.524981
0.27829
0.328935
0.344012
0.311777
0.257173
0.204771
0.16292
0.121755
0.0759971
0.0421468
3
2.99995
2.9999
2.99967
2.99935
2.99806
2.9962
2.98911
2.97721
2.93881
2.85089
2.64837
2.10868
1.27414
0.531938
0.277954
0.33004
0.345908
0.313901
0.260085
0.209013
0.168686
0.129791
0.0893963
0.0653589
3
2.99996
2.9999
2.99968
2.99937
2.99811
2.9963
2.98938
2.97786
2.94039
2.85535
2.65773
2.13393
1.30672
0.550361
0.281597
0.335847
0.353393
0.322158
0.270393
0.222262
0.185393
0.151435
0.119548
0.103794
3
2.99996
2.9999
2.99969
2.99939
2.99818
2.99645
2.9898
2.97884
2.94282
2.86208
2.67203
2.17288
1.35817
0.578656
0.288078
0.345533
0.365919
0.336109
0.287319
0.242977
0.210383
0.181958
0.157142
0.145881
3
2.99996
2.99991
2.99971
2.99942
2.99826
2.99662
2.99016
2.98005
2.94533
2.87222
2.69116
2.2281
1.4315
0.618633
0.301148
0.360863
0.384344
0.355957
0.310637
0.270069
0.241712
0.218178
0.19879
0.190593
3
2.99996
2.99992
2.99972
2.99946
2.99837
2.99684
2.99071
2.98148
2.94843
2.88441
2.7142
2.29517
1.52579
0.67031
0.324575
0.384024
0.409473
0.382356
0.340281
0.303535
0.279117
0.260405
0.245961
0.240619
3
2.99997
2.99992
2.99975
2.9995
2.99851
2.9971
2.99151
2.98309
2.95277
2.8962
2.73887
2.36748
1.63696
0.73262
0.362533
0.418278
0.442352
0.41629
0.377521
0.344017
0.323417
0.309173
0.300147
0.299999
3
2.99997
2.99993
2.99977
2.99955
2.99865
2.99737
2.99228
2.98466
2.95699
2.90625
2.76183
2.42566
1.73049
0.789286
0.398392
0.447936
0.469019
0.448986
0.417639
0.389476
0.373947
0.366064
0.364784
0.374417
3
2.99997
2.99994
2.9998
2.9996
2.99879
2.99765
2.99308
2.9863
2.96144
2.91571
2.78763
2.47439
1.83983
0.869101
0.455095
0.472152
0.484654
0.478172
0.457169
0.4376
0.429399
0.430021
0.442528
0.476451
3
2.99998
2.99995
2.99983
2.99967
2.99901
2.99803
2.99449
2.98817
2.96883
2.92358
2.81678
2.51713
1.9559
0.98047
0.526591
0.489061
0.501639
0.505956
0.495074
0.486929
0.488312
0.504424
0.545881
0.645171
3
2.99995
2.9999
2.99966
2.99934
2.99803
2.99614
2.98894
2.97688
2.93789
2.84878
2.64348
2.09852
1.26028
0.52498
0.278291
0.328935
0.344012
0.311777
0.257174
0.204771
0.162921
0.121756
0.0759977
0.0421472
3
2.99995
2.9999
2.99967
2.99935
2.99806
2.9962
2.98911
2.97721
2.93881
2.85089
2.64837
2.10868
1.27414
0.531936
0.277955
0.33004
0.345908
0.313901
0.260085
0.209013
0.168686
0.129791
0.0893966
0.0653594
3
2.99996
2.9999
2.99968
2.99937
2.99811
2.9963
2.98938
2.97786
2.94039
2.85535
2.65772
2.13393
1.30672
0.550359
0.281598
0.335847
0.353392
0.322158
0.270393
0.222262
0.185393
0.151435
0.119548
0.103795
3
2.99996
2.9999
2.99969
2.99939
2.99818
2.99645
2.9898
2.97884
2.94282
2.86208
2.67203
2.17288
1.35816
0.578654
0.288079
0.345533
0.365919
0.336109
0.287319
0.242977
0.210383
0.181958
0.157142
0.145882
3
2.99996
2.99991
2.99971
2.99942
2.99826
2.99662
2.99016
2.98005
2.94533
2.87222
2.69116
2.2281
1.43149
0.618631
0.301149
0.360863
0.384344
0.355956
0.310637
0.270069
0.241712
0.218178
0.198791
0.190593
3
2.99996
2.99992
2.99972
2.99946
2.99837
2.99684
2.99071
2.98148
2.94843
2.88441
2.7142
2.29516
1.52578
0.670308
0.324575
0.384024
0.409472
0.382355
0.34028
0.303535
0.279117
0.260405
0.245961
0.24062
3
2.99997
2.99992
2.99975
2.9995
2.99851
2.9971
2.99151
2.98309
2.95277
2.8962
2.73887
2.36747
1.63695
0.732617
0.362533
0.418277
0.442352
0.416289
0.37752
0.344016
0.323417
0.309173
0.300147
0.299999
3
2.99997
2.99993
2.99977
2.99955
2.99865
2.99737
2.99228
2.98466
2.95699
2.90625
2.76183
2.42566
1.73048
0.789285
0.398392
0.447936
0.469018
0.448985
0.417638
0.389476
0.373947
0.366064
0.364784
0.374418
3
2.99997
2.99994
2.9998
2.9996
2.99879
2.99765
2.99308
2.9863
2.96144
2.91571
2.78763
2.47439
1.83983
0.869098
0.455094
0.472152
0.484654
0.478171
0.457168
0.4376
0.429399
0.430021
0.442528
0.476451
3
2.99998
2.99995
2.99983
2.99967
2.99901
2.99803
2.99449
2.98817
2.96883
2.92358
2.81677
2.51713
1.9559
0.980467
0.52659
0.489061
0.501639
0.505956
0.495074
0.486928
0.488311
0.504424
0.545881
0.645171
3
2.99995
2.9999
2.99966
2.99934
2.99803
2.99614
2.98894
2.97688
2.93789
2.84878
2.64348
2.09852
1.26028
0.52498
0.278291
0.328935
0.344012
0.311777
0.257174
0.204771
0.162921
0.121756
0.0759977
0.0421473
3
2.99995
2.9999
2.99967
2.99935
2.99806
2.9962
2.98911
2.97721
2.93881
2.85089
2.64837
2.10868
1.27414
0.531936
0.277955
0.33004
0.345908
0.313901
0.260085
0.209013
0.168686
0.129791
0.0893966
0.0653594
3
2.99996
2.9999
2.99968
2.99937
2.99811
2.9963
2.98938
2.97786
2.94039
2.85535
2.65772
2.13393
1.30671
0.550359
0.281598
0.335847
0.353392
0.322158
0.270393
0.222262
0.185393
0.151435
0.119548
0.103795
3
2.99996
2.9999
2.99969
2.99939
2.99818
2.99645
2.9898
2.97884
2.94282
2.86208
2.67203
2.17288
1.35816
0.578654
0.288079
0.345533
0.365919
0.336109
0.287319
0.242977
0.210383
0.181958
0.157142
0.145882
3
2.99996
2.99991
2.99971
2.99942
2.99826
2.99662
2.99016
2.98005
2.94533
2.87222
2.69116
2.2281
1.43149
0.618631
0.301149
0.360863
0.384344
0.355956
0.310637
0.270069
0.241712
0.218178
0.198791
0.190593
3
2.99996
2.99992
2.99972
2.99946
2.99837
2.99684
2.99071
2.98148
2.94843
2.88441
2.7142
2.29516
1.52578
0.670308
0.324575
0.384024
0.409472
0.382355
0.34028
0.303535
0.279117
0.260405
0.245961
0.24062
3
2.99997
2.99992
2.99975
2.9995
2.99851
2.9971
2.99151
2.98309
2.95277
2.8962
2.73887
2.36747
1.63695
0.732617
0.362533
0.418277
0.442352
0.416289
0.377521
0.344016
0.323417
0.309173
0.300147
0.299999
3
2.99997
2.99993
2.99977
2.99955
2.99865
2.99737
2.99228
2.98466
2.95699
2.90625
2.76183
2.42566
1.73048
0.789285
0.398392
0.447936
0.469018
0.448985
0.417638
0.389476
0.373947
0.366064
0.364784
0.374418
3
2.99997
2.99994
2.9998
2.9996
2.99879
2.99765
2.99308
2.9863
2.96144
2.91571
2.78763
2.47439
1.83983
0.869098
0.455094
0.472152
0.484654
0.478172
0.457168
0.4376
0.429399
0.430021
0.442528
0.476452
3
2.99998
2.99995
2.99983
2.99967
2.99901
2.99803
2.99449
2.98817
2.96883
2.92358
2.81677
2.51713
1.9559
0.980467
0.52659
0.489061
0.501639
0.505956
0.495074
0.486929
0.488311
0.504424
0.545881
0.645171
3
2.99995
2.9999
2.99966
2.99934
2.99803
2.99614
2.98894
2.97688
2.93789
2.84878
2.64348
2.09852
1.26028
0.524979
0.278291
0.328935
0.344012
0.311777
0.257174
0.204771
0.162921
0.121756
0.0759976
0.0421472
3
2.99995
2.9999
2.99967
2.99935
2.99806
2.9962
2.98911
2.97721
2.93881
2.85089
2.64837
2.10867
1.27414
0.531936
0.277955
0.33004
0.345908
0.313901
0.260085
0.209013
0.168686
0.129791
0.0893966
0.0653594
3
2.99996
2.9999
2.99968
2.99937
2.99811
2.9963
2.98938
2.97786
2.94039
2.85535
2.65772
2.13393
1.30671
0.550359
0.281598
0.335847
0.353392
0.322158
0.270393
0.222262
0.185393
0.151435
0.119548
0.103795
3
2.99996
2.9999
2.99969
2.99939
2.99818
2.99645
2.9898
2.97884
2.94282
2.86208
2.67203
2.17288
1.35816
0.578654
0.288079
0.345533
0.365919
0.336109
0.287319
0.242977
0.210383
0.181958
0.157142
0.145882
3
2.99996
2.99991
2.99971
2.99942
2.99826
2.99662
2.99016
2.98005
2.94533
2.87222
2.69116
2.2281
1.43149
0.61863
0.301149
0.360863
0.384344
0.355956
0.310637
0.270068
0.241712
0.218178
0.19879
0.190593
3
2.99996
2.99992
2.99972
2.99946
2.99837
2.99684
2.99071
2.98148
2.94843
2.88441
2.7142
2.29516
1.52578
0.670307
0.324575
0.384024
0.409472
0.382355
0.34028
0.303535
0.279117
0.260405
0.245961
0.24062
3
2.99997
2.99992
2.99975
2.9995
2.99851
2.9971
2.99151
2.98309
2.95277
2.8962
2.73887
2.36747
1.63695
0.732616
0.362533
0.418277
0.442351
0.416289
0.37752
0.344016
0.323417
0.309172
0.300147
0.299999
3
2.99997
2.99993
2.99977
2.99955
2.99865
2.99737
2.99228
2.98466
2.95698
2.90625
2.76183
2.42566
1.73048
0.789284
0.398392
0.447936
0.469018
0.448985
0.417638
0.389475
0.373947
0.366064
0.364784
0.374417
3
2.99997
2.99994
2.9998
2.9996
2.99879
2.99765
2.99308
2.9863
2.96144
2.91571
2.78763
2.47439
1.83983
0.869098
0.455094
0.472152
0.484654
0.478171
0.457168
0.4376
0.429399
0.430021
0.442528
0.476451
3
2.99998
2.99995
2.99983
2.99967
2.99901
2.99803
2.99449
2.98817
2.96883
2.92358
2.81677
2.51713
1.9559
0.980467
0.52659
0.489061
0.501639
0.505955
0.495074
0.486928
0.488311
0.504424
0.545881
0.645171
3
2.99995
2.9999
2.99966
2.99934
2.99803
2.99614
2.98894
2.97688
2.93789
2.84878
2.64348
2.09852
1.26028
0.524979
0.278291
0.328935
0.344012
0.311777
0.257174
0.204771
0.162921
0.121756
0.0759976
0.0421472
3
2.99995
2.9999
2.99967
2.99935
2.99806
2.9962
2.98911
2.97721
2.93881
2.85089
2.64836
2.10867
1.27414
0.531936
0.277955
0.33004
0.345908
0.313901
0.260085
0.209013
0.168686
0.129791
0.0893966
0.0653593
3
2.99996
2.9999
2.99968
2.99937
2.99811
2.9963
2.98938
2.97786
2.94039
2.85535
2.65772
2.13393
1.30671
0.550359
0.281598
0.335847
0.353392
0.322158
0.270393
0.222262
0.185393
0.151435
0.119548
0.103795
3
2.99996
2.9999
2.99969
2.99939
2.99818
2.99645
2.9898
2.97884
2.94282
2.86208
2.67203
2.17288
1.35816
0.578654
0.288079
0.345533
0.365919
0.336109
0.287319
0.242977
0.210383
0.181958
0.157142
0.145882
3
2.99996
2.99991
2.99971
2.99942
2.99826
2.99662
2.99016
2.98005
2.94533
2.87222
2.69116
2.2281
1.43149
0.61863
0.301149
0.360863
0.384344
0.355956
0.310637
0.270068
0.241712
0.218178
0.19879
0.190593
3
2.99996
2.99992
2.99972
2.99946
2.99837
2.99684
2.99071
2.98148
2.94843
2.88441
2.7142
2.29516
1.52578
0.670307
0.324575
0.384023
0.409472
0.382355
0.34028
0.303535
0.279117
0.260405
0.245961
0.24062
3
2.99997
2.99992
2.99975
2.9995
2.99851
2.9971
2.99151
2.98309
2.95277
2.8962
2.73887
2.36747
1.63695
0.732616
0.362533
0.418277
0.442351
0.416289
0.37752
0.344016
0.323417
0.309172
0.300147
0.299999
3
2.99997
2.99993
2.99977
2.99955
2.99865
2.99737
2.99228
2.98466
2.95698
2.90625
2.76183
2.42566
1.73048
0.789284
0.398392
0.447936
0.469018
0.448985
0.417638
0.389475
0.373947
0.366064
0.364784
0.374417
3
2.99997
2.99994
2.9998
2.9996
2.99879
2.99765
2.99308
2.9863
2.96144
2.91571
2.78763
2.47439
1.83983
0.869097
0.455094
0.472152
0.484654
0.478171
0.457168
0.4376
0.429399
0.430021
0.442528
0.476451
3
2.99998
2.99995
2.99983
2.99967
2.99901
2.99803
2.99449
2.98817
2.96883
2.92358
2.81677
2.51713
1.9559
0.980467
0.52659
0.489061
0.501639
0.505955
0.495074
0.486928
0.488311
0.504423
0.545881
0.645171
3
2.99995
2.9999
2.99966
2.99934
2.99803
2.99614
2.98894
2.97688
2.93789
2.84878
2.64348
2.09852
1.26028
0.52498
0.278291
0.328935
0.344012
0.311777
0.257174
0.204771
0.162921
0.121756
0.0759977
0.0421473
3
2.99995
2.9999
2.99967
2.99935
2.99806
2.9962
2.98911
2.97721
2.93881
2.85089
2.64837
2.10868
1.27414
0.531936
0.277955
0.33004
0.345908
0.313901
0.260085
0.209013
0.168686
0.129791
0.0893966
0.0653594
3
2.99996
2.9999
2.99968
2.99937
2.99811
2.9963
2.98938
2.97786
2.94039
2.85535
2.65772
2.13393
1.30671
0.550359
0.281598
0.335847
0.353392
0.322158
0.270393
0.222262
0.185393
0.151435
0.119548
0.103795
3
2.99996
2.9999
2.99969
2.99939
2.99818
2.99645
2.9898
2.97884
2.94282
2.86208
2.67203
2.17288
1.35816
0.578654
0.288079
0.345533
0.365919
0.336109
0.287319
0.242977
0.210383
0.181958
0.157142
0.145882
3
2.99996
2.99991
2.99971
2.99942
2.99826
2.99662
2.99016
2.98005
2.94533
2.87222
2.69116
2.2281
1.43149
0.618631
0.301149
0.360863
0.384344
0.355956
0.310637
0.270069
0.241712
0.218178
0.198791
0.190593
3
2.99996
2.99992
2.99972
2.99946
2.99837
2.99684
2.99071
2.98148
2.94843
2.88441
2.7142
2.29516
1.52578
0.670308
0.324575
0.384024
0.409472
0.382355
0.34028
0.303535
0.279117
0.260405
0.245961
0.24062
3
2.99997
2.99992
2.99975
2.9995
2.99851
2.9971
2.99151
2.98309
2.95277
2.8962
2.73887
2.36747
1.63695
0.732617
0.362533
0.418277
0.442352
0.416289
0.37752
0.344016
0.323417
0.309173
0.300147
0.299999
3
2.99997
2.99993
2.99977
2.99955
2.99865
2.99737
2.99228
2.98466
2.95698
2.90625
2.76183
2.42566
1.73048
0.789285
0.398392
0.447936
0.469018
0.448985
0.417638
0.389476
0.373947
0.366064
0.364784
0.374418
3
2.99997
2.99994
2.9998
2.9996
2.99879
2.99765
2.99308
2.9863
2.96144
2.91571
2.78763
2.47439
1.83983
0.869098
0.455094
0.472152
0.484654
0.478171
0.457168
0.4376
0.429399
0.430021
0.442528
0.476451
3
2.99998
2.99995
2.99983
2.99967
2.99901
2.99803
2.99449
2.98817
2.96883
2.92358
2.81677
2.51713
1.9559
0.980467
0.52659
0.489061
0.501639
0.505956
0.495074
0.486928
0.488311
0.504424
0.545881
0.645171
3
2.99995
2.9999
2.99966
2.99934
2.99803
2.99614
2.98894
2.97688
2.93789
2.84878
2.64348
2.09852
1.26028
0.52498
0.278291
0.328935
0.344012
0.311777
0.257174
0.204771
0.162921
0.121756
0.0759977
0.0421472
3
2.99995
2.9999
2.99967
2.99935
2.99806
2.9962
2.98911
2.97721
2.93881
2.85089
2.64837
2.10868
1.27414
0.531936
0.277955
0.33004
0.345908
0.313901
0.260085
0.209013
0.168686
0.129791
0.0893966
0.0653594
3
2.99996
2.9999
2.99968
2.99937
2.99811
2.9963
2.98938
2.97786
2.94039
2.85535
2.65772
2.13393
1.30672
0.550359
0.281598
0.335847
0.353392
0.322158
0.270393
0.222262
0.185393
0.151435
0.119548
0.103795
3
2.99996
2.9999
2.99969
2.99939
2.99818
2.99645
2.9898
2.97884
2.94282
2.86208
2.67203
2.17288
1.35816
0.578654
0.288079
0.345533
0.365919
0.336109
0.287319
0.242977
0.210383
0.181958
0.157142
0.145882
3
2.99996
2.99991
2.99971
2.99942
2.99826
2.99662
2.99016
2.98005
2.94533
2.87222
2.69116
2.2281
1.43149
0.618631
0.301149
0.360863
0.384344
0.355956
0.310637
0.270069
0.241712
0.218178
0.198791
0.190593
3
2.99996
2.99992
2.99972
2.99946
2.99837
2.99684
2.99071
2.98148
2.94843
2.88441
2.7142
2.29516
1.52578
0.670308
0.324575
0.384024
0.409472
0.382355
0.34028
0.303535
0.279117
0.260405
0.245961
0.24062
3
2.99997
2.99992
2.99975
2.9995
2.99851
2.9971
2.99151
2.98309
2.95277
2.8962
2.73887
2.36747
1.63695
0.732617
0.362533
0.418277
0.442352
0.416289
0.37752
0.344016
0.323417
0.309173
0.300147
0.299999
3
2.99997
2.99993
2.99977
2.99955
2.99865
2.99737
2.99228
2.98466
2.95699
2.90625
2.76183
2.42566
1.73048
0.789285
0.398392
0.447936
0.469018
0.448985
0.417638
0.389476
0.373947
0.366064
0.364784
0.374418
3
2.99997
2.99994
2.9998
2.9996
2.99879
2.99765
2.99308
2.9863
2.96144
2.91571
2.78763
2.47439
1.83983
0.869098
0.455094
0.472152
0.484654
0.478171
0.457168
0.4376
0.429399
0.430021
0.442528
0.476451
3
2.99998
2.99995
2.99983
2.99967
2.99901
2.99803
2.99449
2.98817
2.96883
2.92358
2.81677
2.51713
1.9559
0.980467
0.52659
0.489061
0.501639
0.505956
0.495074
0.486928
0.488311
0.504424
0.545881
0.645171
3
2.99995
2.9999
2.99966
2.99934
2.99803
2.99614
2.98894
2.97688
2.93789
2.84878
2.64349
2.09852
1.26029
0.524981
0.27829
0.328935
0.344012
0.311777
0.257173
0.204771
0.16292
0.121755
0.0759971
0.0421468
3
2.99995
2.9999
2.99967
2.99935
2.99806
2.9962
2.98911
2.97721
2.93881
2.85089
2.64837
2.10868
1.27414
0.531938
0.277954
0.33004
0.345908
0.313901
0.260085
0.209013
0.168686
0.129791
0.0893963
0.0653589
3
2.99996
2.9999
2.99968
2.99937
2.99811
2.9963
2.98938
2.97786
2.94039
2.85535
2.65773
2.13393
1.30672
0.550361
0.281597
0.335847
0.353393
0.322158
0.270393
0.222262
0.185393
0.151435
0.119548
0.103794
3
2.99996
2.9999
2.99969
2.99939
2.99818
2.99645
2.9898
2.97884
2.94282
2.86208
2.67203
2.17288
1.35817
0.578656
0.288078
0.345533
0.365919
0.336109
0.287319
0.242977
0.210383
0.181958
0.157142
0.145881
3
2.99996
2.99991
2.99971
2.99942
2.99826
2.99662
2.99016
2.98005
2.94533
2.87222
2.69116
2.2281
1.4315
0.618633
0.301148
0.360863
0.384344
0.355957
0.310637
0.270069
0.241712
0.218178
0.19879
0.190593
3
2.99996
2.99992
2.99972
2.99946
2.99837
2.99684
2.99071
2.98148
2.94843
2.88441
2.7142
2.29517
1.52579
0.67031
0.324575
0.384024
0.409473
0.382356
0.340281
0.303535
0.279117
0.260405
0.245961
0.240619
3
2.99997
2.99992
2.99975
2.9995
2.99851
2.9971
2.99151
2.98309
2.95277
2.8962
2.73887
2.36748
1.63696
0.73262
0.362533
0.418278
0.442352
0.41629
0.377521
0.344017
0.323417
0.309173
0.300147
0.299999
3
2.99997
2.99993
2.99977
2.99955
2.99865
2.99737
2.99228
2.98466
2.95699
2.90625
2.76183
2.42566
1.73049
0.789286
0.398392
0.447936
0.469019
0.448986
0.417639
0.389476
0.373947
0.366064
0.364784
0.374417
3
2.99997
2.99994
2.9998
2.9996
2.99879
2.99765
2.99308
2.9863
2.96144
2.91571
2.78763
2.47439
1.83983
0.869101
0.455095
0.472152
0.484654
0.478172
0.457169
0.4376
0.429399
0.430021
0.442528
0.476451
3
2.99998
2.99995
2.99983
2.99967
2.99901
2.99803
2.99449
2.98817
2.96883
2.92358
2.81678
2.51713
1.9559
0.98047
0.526591
0.489061
0.501639
0.505956
0.495074
0.486929
0.488312
0.504424
0.545881
0.645171
3.00002
2.99997
2.99991
2.99968
2.99936
2.99805
2.99616
2.98897
2.97691
2.93793
2.84881
2.64356
2.09859
1.26042
0.525119
0.278494
0.329121
0.344197
0.311984
0.257426
0.205093
0.163331
0.122312
0.0768996
0.0437762
3.00002
2.99997
2.99992
2.99969
2.99937
2.99808
2.99622
2.98913
2.97723
2.93884
2.85092
2.64844
2.10876
1.27428
0.532075
0.278159
0.330226
0.346092
0.314106
0.260334
0.209326
0.169079
0.130308
0.0901553
0.066406
3.00002
2.99997
2.99992
2.9997
2.99939
2.99813
2.99632
2.9894
2.97789
2.94042
2.85538
2.65779
2.13401
1.30685
0.550493
0.281799
0.33603
0.353573
0.322357
0.270631
0.222554
0.185747
0.151873
0.120109
0.104447
3.00002
2.99997
2.99992
2.99971
2.99941
2.9982
2.99647
2.98982
2.97887
2.94286
2.86212
2.67209
2.17296
1.3583
0.578785
0.28828
0.345714
0.366095
0.336301
0.287544
0.243244
0.210693
0.182319
0.157564
0.146339
3.00002
2.99998
2.99993
2.99972
2.99944
2.99828
2.99664
2.99018
2.98007
2.94537
2.87224
2.69122
2.22813
1.43161
0.618733
0.301324
0.361024
0.384502
0.35613
0.310839
0.270304
0.241977
0.218475
0.199119
0.190938
3.00002
2.99998
2.99993
2.99974
2.99948
2.99839
2.99686
2.99073
2.9815
2.94846
2.88443
2.71426
2.29522
1.5259
0.670409
0.324744
0.384174
0.409616
0.382512
0.340459
0.303739
0.279342
0.260649
0.246222
0.240888
3.00002
2.99998
2.99994
2.99977
2.99952
2.99853
2.99712
2.99153
2.98311
2.9528
2.89623
2.73893
2.36754
1.63708
0.732719
0.362696
0.418421
0.442487
0.416432
0.377679
0.344192
0.323606
0.309373
0.300356
0.30021
3.00002
2.99999
2.99995
2.99979
2.99957
2.99867
2.99739
2.99231
2.98469
2.95701
2.90628
2.76188
2.4257
1.73058
0.789366
0.398534
0.44806
0.469139
0.449114
0.417778
0.389627
0.374106
0.366228
0.364951
0.374582
3.00002
2.99999
2.99996
2.99982
2.99962
2.99881
2.99767
2.9931
2.98633
2.96147
2.91574
2.78768
2.47441
1.83994
0.869186
0.455229
0.472264
0.484764
0.478287
0.457291
0.437731
0.429533
0.430156
0.442661
0.476575
3.00002
3
2.99997
2.99985
2.99968
2.99903
2.99805
2.99451
2.98819
2.96886
2.92361
2.81682
2.51716
1.95598
0.980552
0.526714
0.489168
0.501743
0.506061
0.495184
0.487042
0.488425
0.504535
0.545983
0.645257
3.00002
3.00001
2.99996
2.9999
2.99964
2.99928
2.99785
2.99567
2.98786
2.97383
2.931
2.82952
2.60347
2.02018
1.15787
0.615638
0.512408
0.524888
0.535816
0.534025
0.53524
0.548779
0.586292
0.668515
0.842304
3.00002
3.00001
2.99997
2.99991
2.99969
2.99938
2.99812
2.9963
2.98939
2.97781
2.94045
2.85535
2.65868
2.13843
1.32373
0.706461
0.534771
0.549269
0.566836
0.573832
0.583655
0.609532
0.664306
0.765623
0.946323
3.00002
3.00001
2.99998
2.99993
2.99974
2.99947
2.99836
2.99681
2.99059
2.98123
2.94803
2.88184
2.71097
2.28395
1.52284
0.814564
0.569904
0.582841
0.601473
0.614563
0.630693
0.664502
0.72729
0.826664
0.980925
3.00002
3.00001
2.99998
2.99995
2.99979
2.99956
2.99865
2.99737
2.99225
2.98461
2.95684
2.90666
2.76198
2.43743
1.75484
0.936171
0.625515
0.630504
0.645011
0.660881
0.679597
0.715688
0.777008
0.865241
0.993631
3.00002
3.00002
2.99999
2.99996
2.99983
2.99965
2.99892
2.99787
2.99379
2.98752
2.96541
2.92352
2.80829
2.52667
1.94086
1.05485
0.689664
0.671088
0.685181
0.70235
0.72343
0.758957
0.81865
0.896003
1.00308
3.00002
3.00002
3.00001
2.99996
2.9999
2.99967
2.99932
2.99798
2.99595
2.98876
2.97553
2.93643
2.8418
2.63429
2.08237
1.26815
0.793468
0.706598
0.719147
0.737234
0.761964
0.796167
0.849906
0.921434
1.01258
3.00002
3.00002
3.00001
2.99997
2.99993
2.99973
2.99945
2.99832
2.99672
2.99042
2.98065
2.94712
2.87711
2.70434
2.26462
1.51049
0.912813
0.74144
0.747586
0.766733
0.796507
0.831099
0.878915
0.942277
1.02186
3.00002
3.00002
3.00001
2.99999
2.99995
2.9998
2.99958
2.99871
2.99745
2.99257
2.98509
2.95859
2.90964
2.77039
2.45899
1.78946
1.0665
0.80093
0.787606
0.80123
0.828205
0.863429
0.907367
0.963748
1.03282
3.00002
3.00002
3.00001
3
2.99996
2.99989
2.99962
2.99922
2.9977
2.99543
2.98712
2.97287
2.92817
2.82638
2.59755
2.03789
1.24539
0.874968
0.828973
0.839817
0.862331
0.894697
0.933182
0.98254
1.04301
3.00003
3.00002
3.00002
3.00001
2.99997
2.99992
2.99972
2.99943
2.99828
2.99659
2.99035
2.97967
2.94604
2.86939
2.69232
2.23161
1.47846
0.986373
0.867721
0.871485
0.891902
0.924126
0.960072
1.00273
1.05501
3.00003
3.00003
3.00002
3.00001
3
2.99994
2.99985
2.99951
2.999
2.99715
2.99405
2.98408
2.96296
2.9082
2.7649
2.47599
1.79441
1.16031
0.928302
0.909794
0.921804
0.948838
0.984401
1.02368
1.06861
3.00003
3.00003
3.00002
3.00002
3
2.99996
2.99989
2.99963
2.99927
2.9978
2.99568
2.9877
2.97451
2.93206
2.83759
2.62368
2.09321
1.34856
1.00533
0.94971
0.956599
0.977515
1.00889
1.04555
1.08604
3.00003
3.00003
3.00003
3.00002
3.00001
2.99999
2.99992
2.99981
2.99939
2.99877
2.99656
2.99267
2.98069
2.95378
2.88735
2.70978
2.36203
1.60115
1.13576
0.995184
0.989722
1.00234
1.02918
1.06414
1.10263
3.00003
3.00003
3.00003
3.00002
3.00001
3
2.99995
2.99987
2.99955
2.99911
2.99736
2.99483
2.98517
2.96978
2.91979
2.81626
2.55942
2.01903
1.32184
1.0663
1.03164
1.03598
1.0557
1.08595
1.12049
3.00003
3.00003
3.00003
3.00002
3.00002
3
2.99998
2.99989
2.99976
2.99927
2.99854
2.99578
2.99148
2.97679
2.94883
2.87186
2.68353
2.2907
1.54954
1.16323
1.06836
1.06559
1.07926
1.10594
1.13881
3.00003
3.00003
3.00003
3.00003
3.00002
3.00001
3
2.99994
2.99985
2.9995
2.99901
2.9971
2.99429
2.98396
2.96664
2.91304
2.79221
2.5273
1.92487
1.34075
1.12846
1.10244
1.1085
1.12908
1.15863
3.00003
3.00003
3.00003
3.00003
3.00002
3.00002
3
2.99998
2.99988
2.99974
2.9992
2.9984
2.99542
2.99076
2.97474
2.94522
2.86283
2.67323
2.24438
1.55252
1.21658
1.14041
1.138
1.15146
1.1765
3.00003
3.00003
3.00003
3.00003
3.00003
3.00002
3.00001
2.99999
2.99993
2.99984
2.99948
2.99896
2.99696
2.99402
2.98325
2.9652
2.90967
2.78555
2.51172
1.90978
1.38357
1.19692
1.17172
1.17755
1.19662
3.00003
3.00003
3.00003
3.00003
3.00003
3.00002
3.00002
3
2.99998
2.99988
2.99973
2.99919
2.99836
2.99536
2.99055
2.97446
2.94477
2.85922
2.68135
2.22822
1.60507
1.29177
1.21504
1.20882
1.21797
3.00003
3.00003
3.00003
3.00003
3.00003
3.00003
3.00002
3.00001
2.99999
2.99995
2.9998
2.99958
2.99875
2.99752
2.99301
2.98583
2.96202
2.91641
2.79616
2.5207
1.94943
1.44128
1.26731
1.24132
1.24454
3.00003
3.00003
3.00003
3.00003
3.00003
3.00003
3.00002
3.00002
3
2.99998
2.99988
2.99974
2.99921
2.99844
2.99551
2.99111
2.97553
2.9486
2.86851
2.70257
2.29491
1.6774
1.36153
1.28091
1.27207
3.00003
3.00003
3.00003
3.00003
3.00003
3.00003
3.00003
3.00002
3.00002
2.99999
2.99995
2.99982
2.99961
2.99886
2.99773
2.99365
2.98714
2.9657
2.92525
2.81641
2.57765
2.04938
1.52715
1.33369
1.30555
3.00003
3.00003
3.00003
3.00003
3.00003
3.00003
3.00003
3.00002
3.00002
3.00001
2.99998
2.9999
2.99977
2.99929
2.99861
2.99598
2.99216
2.97804
2.95537
2.88398
2.73814
2.38858
1.7731
1.43137
1.33879
3.00003
3.00003
3.00003
3.00003
3.00003
3.00003
3.00003
3.00003
3.00002
3.00001
3
2.99995
2.99987
2.99959
2.99918
2.99761
2.99535
2.98696
2.97382
2.93098
2.84853
2.6369
2.19767
1.63021
1.40332
3.00003
3.00003
3.00003
3.00003
3.00003
3.00003
3.00003
3.00003
3.00003
3.00002
3.00001
2.99998
2.99994
2.99976
2.99951
2.99857
2.9972
2.99206
2.9842
2.95757
2.9069
2.77778
2.46572
1.89785
1.51956
3.00003
3.00003
3.00003
3.00003
3.00003
3.00003
3.00003
3.00003
3.00003
3.00003
3.00002
3.00001
2.99996
2.9999
2.99967
2.99932
2.99807
2.99615
2.98944
2.97816
2.94354
2.86944
2.69991
2.2972
1.72859
3.00003
3.00003
3.00003
3.00003
3.00003
3.00003
3.00003
3.00003
3.00003
3.00003
3.00002
3.00001
3
2.99994
2.99985
2.99954
2.99907
2.99738
2.99474
2.98585
2.97007
2.92455
2.8216
2.60201
2.10328
3.00003
3.00003
3.00003
3.00003
3.00003
3.00003
3.00003
3.00003
3.00003
3.00003
3.00003
3.00002
3.00001
2.99999
2.99991
2.99979
2.99936
2.99871
2.99638
2.9927
2.98049
2.9583
2.8965
2.76269
2.44345
3.00003
3.00003
3.00003
3.00003
3.00003
3.00003
3.00003
3.00003
3.00003
3.00003
3.00003
3.00002
3.00002
3
2.99996
2.99989
2.99964
2.99928
2.99792
2.99591
2.98868
2.97718
2.94048
2.86946
2.68967
3.00003
3.00003
3.00003
3.00003
3.00003
3.00003
3.00003
3.00003
3.00003
3.00003
3.00003
3.00003
3.00002
3.00001
3
2.99994
2.99985
2.99953
2.99904
2.99731
2.99463
2.98548
2.96987
2.92403
2.82732
3.00003
3.00003
3.00003
3.00003
3.00003
3.00003
3.00003
3.00003
3.00003
3.00003
3.00003
3.00003
3.00003
3.00002
3.00001
2.99998
2.99991
2.99979
2.99936
2.99871
2.99644
2.99278
2.98091
2.95946
2.89824
3.00003
3.00003
3.00003
3.00003
3.00003
3.00003
3.00003
3.00003
3.00003
3.00003
3.00003
3.00003
3.00003
3.00002
3.00002
3
2.99997
2.99986
2.99971
2.99914
2.99828
2.99526
2.99041
2.97477
2.9463
3.00003
3.00003
3.00003
3.00003
3.00003
3.00003
3.00003
3.00003
3.00003
3.00003
3.00003
3.00003
3.00003
3.00003
3.00002
3.00001
2.99999
2.99993
2.99984
2.99949
2.99899
2.99715
2.99436
2.98473
2.9688
3.00003
3.00003
3.00003
3.00003
3.00003
3.00003
3.00003
3.00003
3.00003
3.00003
3.00003
3.00003
3.00003
3.00003
3.00002
3.00002
3
2.99997
2.99987
2.99972
2.99918
2.99835
2.99537
2.99068
2.9749
3.00003
3.00003
3.00003
3.00003
3.00003
3.00003
3.00003
3.00003
3.00003
3.00003
3.00003
3.00003
3.00003
3.00003
3.00003
3.00002
3.00001
2.99998
2.99992
2.99973
2.99944
2.99834
2.99668
2.99065
2.98051
3.00003
3.00003
3.00003
3.00003
3.00003
3.00003
3.00003
3.00003
3.00003
3.00003
3.00003
3.00003
3.00003
3.00003
3.00003
3.00002
3.00001
2.99999
2.99992
2.99982
2.99943
2.99881
2.99674
2.9927
2.98124
3.00003
3.00003
3.00003
3.00003
3.00003
3.00003
3.00003
3.00003
3.00003
3.00003
3.00003
3.00003
3.00003
3.00003
3.00003
3.00002
3.00001
2.99998
2.99994
2.99976
2.99951
2.99851
2.99701
2.99152
2.98185
3.00003
3.00003
3.00003
3.00003
3.00003
3.00003
3.00003
3.00003
3.00003
3.00003
3.00003
3.00003
3.00003
3.00003
3.00003
3.00002
3.00001
2.99998
2.99994
2.99977
2.99952
2.99855
2.99709
2.99174
2.98216
3.00003
3.00003
3.00003
3.00003
3.00003
3.00003
3.00003
3.00003
3.00003
3.00003
3.00003
3.00003
3.00003
3.00003
3.00003
3.00002
3.00001
2.99999
2.99993
2.99983
2.99945
2.99888
2.99682
2.99308
2.98166
3.00003
3.00003
3.00003
3.00003
3.00003
3.00003
3.00003
3.00003
3.00003
3.00003
3.00003
3.00003
3.00003
3.00003
3.00003
3.00002
3.00001
2.99999
2.99992
2.99982
2.99942
2.99885
2.99653
2.99308
2.98063
3
2.99999
2.99994
2.99988
2.99963
2.99926
2.99783
2.99565
2.98783
2.9738
2.93097
2.82949
2.60341
2.02012
1.15777
0.615527
0.512304
0.524788
0.535717
0.533926
0.535141
0.548682
0.586202
0.668437
0.842249
3
2.99999
2.99995
2.9999
2.99967
2.99936
2.9981
2.99628
2.98936
2.97779
2.94041
2.85532
2.65862
2.13837
1.32363
0.70636
0.534667
0.549169
0.566741
0.57374
0.583566
0.609447
0.664229
0.765557
0.94627
3
2.99999
2.99996
2.99991
2.99972
2.99945
2.99834
2.99679
2.99057
2.98121
2.948
2.88182
2.71092
2.28392
1.52274
0.814483
0.569805
0.582744
0.601382
0.614477
0.630612
0.664426
0.727221
0.826604
0.980874
3
3
2.99997
2.99993
2.99977
2.99954
2.99863
2.99734
2.99223
2.98458
2.95681
2.90663
2.76194
2.43738
1.75477
0.936099
0.625421
0.630417
0.64493
0.660803
0.679523
0.715618