/*--------------------------------*- C++ -*----------------------------------*\
| =========                 |                                                 |
| \\      /  F ield         | OpenFOAM: The Open Source CFD Toolbox           |
|  \\    /   O peration     | Version:  4.1                                   |
|   \\  /    A nd           | Web:      www.OpenFOAM.org                      |
|    \\/     M anipulation  |                                                 |
\*---------------------------------------------------------------------------*/
FoamFile
{
    version     2.0;
    format      ascii;
    class       volScalarField;
    location    "0.44";
    object      Ma;
}
// * * * * * * * * * * * * * * * * * * * * * * * * * * * * * * * * * * * * * //

dimensions      [0 0 0 0 0 0 0];

internalField   nonuniform List<scalar> 
52500
(
3.14288
3.28534
3.28273
3.27515
3.25387
3.19222
2.99164
2.28027
0.719661
0.371763
0.510504
0.34204
0.334908
0.325335
0.285511
0.243035
0.202404
0.167438
0.13592
0.108534
0.089603
0.074212
0.0621103
0.0685024
0.0422459
3.14286
3.28538
3.28283
3.2754
3.25452
3.19422
2.9988
2.30366
0.749759
0.369175
0.51442
0.345296
0.33639
0.327044
0.287461
0.245216
0.205525
0.172061
0.143178
0.119883
0.106854
0.0984704
0.0930197
0.101817
0.0883841
3.1428
3.28546
3.28305
3.27592
3.25594
3.19875
3.01497
2.35814
0.82557
0.354598
0.523586
0.353185
0.341215
0.332474
0.294266
0.253266
0.215832
0.185629
0.161855
0.145227
0.140052
0.139749
0.140912
0.154064
0.148302
3.14266
3.28555
3.28336
3.27659
3.2579
3.20514
3.03738
2.43511
0.946402
0.334966
0.536566
0.365359
0.348298
0.340426
0.304349
0.264992
0.230654
0.204654
0.186858
0.177166
0.179364
0.186514
0.19353
0.212498
0.21241
3.14243
3.28562
3.28369
3.27731
3.26038
3.21314
3.06425
2.52747
1.1132
0.306118
0.550831
0.384385
0.358344
0.351454
0.3185
0.280471
0.249652
0.228069
0.216232
0.212776
0.221301
0.235492
0.247764
0.273196
0.277888
3.14215
3.28566
3.28397
3.27823
3.26339
3.222
3.09332
2.62982
1.32034
0.271714
0.564354
0.410888
0.371099
0.365159
0.336017
0.298943
0.272142
0.25493
0.249066
0.251046
0.265109
0.286812
0.303698
0.337003
0.346723
3.14184
3.28551
3.28448
3.27938
3.26639
3.23094
3.12314
2.73953
1.56537
0.250774
0.574557
0.44646
0.386655
0.381251
0.356863
0.320106
0.297251
0.284301
0.284545
0.291626
0.310385
0.341273
0.362441
0.403491
0.423698
3.14155
3.28535
3.28504
3.28048
3.2693
3.23947
3.15124
2.84648
1.83984
0.321751
0.577746
0.490627
0.405184
0.399479
0.379806
0.34351
0.324073
0.315368
0.321884
0.334755
0.358127
0.397155
0.426401
0.472902
0.512452
3.14134
3.28521
3.2856
3.28154
3.27206
3.24732
3.17619
2.94
2.12037
0.540213
0.567981
0.541327
0.427355
0.419676
0.40462
0.369385
0.352135
0.347935
0.360303
0.37982
0.40746
0.452338
0.495213
0.548861
0.622333
3.14123
3.28499
3.28622
3.28255
3.27454
3.25432
3.19787
3.01777
2.37418
0.849824
0.53652
0.593826
0.455013
0.441739
0.42988
0.39813
0.380731
0.38205
0.399696
0.42519
0.457388
0.507821
0.568551
0.641706
0.783629
3.14287
3.28533
3.28271
3.27514
3.25383
3.19212
2.99131
2.27914
0.718147
0.372245
0.510303
0.34176
0.334661
0.325096
0.285312
0.24287
0.20224
0.167263
0.135709
0.108272
0.0892815
0.0738157
0.0616364
0.0680856
0.0415993
3.14285
3.28537
3.28282
3.27539
3.25449
3.19415
2.99855
2.30287
0.748652
0.368782
0.513612
0.34452
0.335896
0.326702
0.287235
0.245047
0.20537
0.171898
0.142975
0.119637
0.106576
0.0981666
0.0926964
0.101525
0.0880809
3.14279
3.28545
3.28304
3.2759
3.2559
3.19865
3.01464
2.35702
0.824007
0.355323
0.523831
0.353452
0.341494
0.332622
0.29428
0.253236
0.215743
0.185496
0.161666
0.144999
0.139814
0.139515
0.140681
0.153854
0.148115
3.14266
3.28554
3.28335
3.27658
3.25788
3.20507
3.03715
2.43435
0.945169
0.335152
0.536534
0.365427
0.348546
0.340674
0.304481
0.265006
0.230575
0.204516
0.186667
0.176946
0.179148
0.186315
0.193343
0.212327
0.212269
3.14243
3.28562
3.28368
3.2773
3.26035
3.21307
3.06401
2.52671
1.11179
0.306499
0.551072
0.384705
0.358733
0.351733
0.318601
0.280453
0.249536
0.227906
0.216025
0.212553
0.221092
0.235309
0.2476
0.273045
0.277768
3.14214
3.28566
3.28396
3.27822
3.26337
3.22195
3.09316
2.62924
1.31913
0.272193
0.564559
0.411117
0.371329
0.365246
0.335951
0.298798
0.271938
0.254725
0.248841
0.250819
0.264904
0.286638
0.303545
0.336865
0.346618
3.14183
3.2855
3.28448
3.27937
3.26638
3.23092
3.12307
2.73927
1.56475
0.251157
0.574575
0.44637
0.386631
0.381162
0.356721
0.31989
0.296998
0.284038
0.284306
0.291399
0.310183
0.341105
0.3623
0.40336
0.423598
3.14154
3.28534
3.28504
3.28048
3.2693
3.23947
3.15123
2.84641
1.83961
0.321766
0.577721
0.490435
0.405062
0.399324
0.379637
0.343285
0.323814
0.31509
0.32165
0.334543
0.357934
0.396998
0.426268
0.472778
0.512356
3.14133
3.2852
3.2856
3.28154
3.27206
3.24732
3.1762
2.94
2.12027
0.540026
0.568019
0.541189
0.427248
0.41951
0.404405
0.369138
0.351872
0.347686
0.360087
0.37962
0.40729
0.452181
0.495084
0.548748
0.622239
3.14121
3.28498
3.28622
3.28255
3.27454
3.25433
3.19789
3.01781
2.37417
0.849692
0.536589
0.593734
0.454918
0.441608
0.429697
0.397934
0.380506
0.381846
0.39951
0.425026
0.457243
0.507678
0.568431
0.641602
0.783529
3.14287
3.28534
3.28272
3.27514
3.25385
3.19216
2.99143
2.27959
0.718776
0.371973
0.510481
0.342082
0.334977
0.325363
0.285498
0.242974
0.202289
0.16728
0.135702
0.108241
0.0892437
0.0737838
0.0616113
0.0680712
0.0416032
3.14285
3.28537
3.28282
3.27539
3.2545
3.19417
2.99864
2.30314
0.749049
0.369133
0.514182
0.345119
0.336295
0.326966
0.287372
0.24511
0.205387
0.171894
0.14296
0.11961
0.10655
0.098148
0.0926856
0.10152
0.0880873
3.14279
3.28545
3.28305
3.27592
3.25593
3.19871
3.01484
2.35769
0.824903
0.354708
0.523467
0.353044
0.341142
0.332405
0.294166
0.253149
0.215686
0.185456
0.161642
0.144981
0.139802
0.13951
0.140683
0.153858
0.148126
3.14266
3.28554
3.28335
3.27659
3.25789
3.20511
3.03728
2.43478
0.945851
0.334995
0.536432
0.365168
0.348189
0.340342
0.304251
0.264874
0.230503
0.204477
0.186652
0.176943
0.17915
0.186322
0.193355
0.212338
0.212283
3.14242
3.28562
3.28368
3.27731
3.26037
3.21312
3.06417
2.52718
1.11265
0.30613
0.550744
0.384266
0.358305
0.351437
0.318462
0.280375
0.249508
0.227896
0.216037
0.21257
0.22111
0.235327
0.24762
0.273062
0.277785
3.14214
3.28566
3.28396
3.27822
3.26338
3.22197
3.09324
2.62953
1.31972
0.271806
0.564387
0.410899
0.371125
0.365147
0.335932
0.298821
0.27199
0.254771
0.248886
0.250856
0.264935
0.286665
0.303571
0.336885
0.346637
3.14183
3.2855
3.28448
3.27938
3.26639
3.23093
3.1231
2.73937
1.56495
0.25082
0.574547
0.446407
0.386644
0.381222
0.356797
0.319992
0.2971
0.284134
0.284375
0.29145
0.310223
0.341139
0.362329
0.403383
0.423619
3.14154
3.28534
3.28504
3.28047
3.2693
3.23946
3.15122
2.84639
1.83956
0.321636
0.57774
0.490552
0.405165
0.39945
0.37974
0.343398
0.323925
0.315196
0.321725
0.334597
0.357979
0.397032
0.426298
0.472802
0.512376
3.14133
3.2852
3.2856
3.28155
3.27207
3.24732
3.17619
2.93998
2.12021
0.539992
0.568
0.541265
0.427334
0.419629
0.404521
0.369246
0.351981
0.347774
0.360153
0.37967
0.40733
0.452213
0.495112
0.548771
0.622257
3.14121
3.28497
3.28622
3.28255
3.27454
3.25432
3.19788
3.01777
2.37409
0.849608
0.536563
0.593756
0.454968
0.441677
0.429778
0.397982
0.380568
0.381908
0.399563
0.425067
0.457275
0.507704
0.568452
0.641621
0.783545
3.14287
3.28534
3.28272
3.27514
3.25385
3.19215
2.99141
2.27952
0.718684
0.372016
0.510468
0.342064
0.33497
0.325364
0.285507
0.242989
0.202302
0.16729
0.135704
0.108234
0.0892268
0.0737623
0.0615892
0.0680561
0.0416039
3.14285
3.28537
3.28282
3.2754
3.2545
3.19417
2.99863
2.3031
0.748985
0.369123
0.514138
0.345074
0.336275
0.326962
0.28738
0.245122
0.205398
0.1719
0.142959
0.1196
0.106532
0.0981286
0.0926676
0.101507
0.0880846
3.14279
3.28545
3.28305
3.27592
3.25593
3.19871
3.01482
2.35764
0.824833
0.35472
0.523447
0.353029
0.341153
0.332424
0.294188
0.253169
0.215697
0.185459
0.161635
0.144965
0.139783
0.139491
0.140666
0.153845
0.14812
3.14266
3.28554
3.28336
3.27659
3.25789
3.20511
3.03727
2.43473
0.94577
0.334971
0.53647
0.365272
0.348327
0.340473
0.304339
0.264915
0.230514
0.204471
0.186636
0.176921
0.179128
0.186302
0.193336
0.212324
0.212274
3.14242
3.28562
3.28368
3.27731
3.26037
3.21311
3.06413
2.52705
1.11239
0.306286
0.550961
0.384539
0.358526
0.351563
0.318495
0.28038
0.249494
0.227877
0.21601
0.212542
0.221084
0.235305
0.2476
0.273046
0.277774
3.14213
3.28566
3.28396
3.27822
3.26338
3.22198
3.09325
2.62951
1.31965
0.271955
0.564442
0.410962
0.371163
0.36514
0.335895
0.298769
0.27194
0.254726
0.248848
0.250823
0.264906
0.286642
0.303549
0.336868
0.346623
3.14183
3.2855
3.28448
3.27938
3.2664
3.23094
3.12312
2.73943
1.56508
0.250942
0.574495
0.446307
0.386555
0.381148
0.356748
0.319927
0.29704
0.284075
0.284334
0.291416
0.310193
0.341115
0.362308
0.403362
0.423604
3.14154
3.28534
3.28504
3.28048
3.26931
3.23948
3.15125
2.84648
1.83975
0.321689
0.577675
0.490445
0.405052
0.399358
0.379713
0.343364
0.323884
0.315148
0.321691
0.334569
0.357951
0.397007
0.426279
0.472778
0.512359
3.14132
3.28519
3.2856
3.28155
3.27207
3.24733
3.17621
2.94002
2.12032
0.540044
0.567965
0.541212
0.427266
0.419576
0.404497
0.369228
0.351956
0.347748
0.360131
0.379647
0.407307
0.452188
0.495092
0.548747
0.622237
3.14121
3.28497
3.28623
3.28256
3.27455
3.25433
3.1979
3.01781
2.37416
0.849675
0.536532
0.593747
0.454942
0.441675
0.42979
0.398013
0.380584
0.381902
0.399551
0.425051
0.457257
0.507682
0.568432
0.641597
0.783522
3.14287
3.28534
3.28272
3.27515
3.25385
3.19216
2.99142
2.27953
0.718693
0.372006
0.510461
0.342055
0.334967
0.325364
0.285511
0.242996
0.202312
0.167298
0.135713
0.108241
0.0892328
0.0737662
0.0615913
0.0680572
0.0415899
3.14285
3.28537
3.28282
3.2754
3.2545
3.19418
2.99863
2.3031
0.748992
0.369128
0.514147
0.345083
0.336286
0.326971
0.287389
0.245132
0.205407
0.171907
0.142965
0.119604
0.106535
0.0981316
0.0926736
0.101517
0.0880708
3.14279
3.28545
3.28305
3.27592
3.25593
3.19871
3.01483
2.35766
0.824851
0.354716
0.52345
0.353032
0.341157
0.332427
0.294195
0.253178
0.215709
0.18547
0.161645
0.144975
0.139792
0.139502
0.140679
0.153863
0.14811
3.14266
3.28554
3.28336
3.27659
3.25789
3.20511
3.03728
2.43475
0.945805
0.33497
0.536474
0.365276
0.348329
0.340473
0.304341
0.264922
0.230526
0.204485
0.18665
0.176934
0.179141
0.186315
0.193351
0.212346
0.212272
3.14242
3.28562
3.28368
3.27731
3.26037
3.21311
3.06414
2.52709
1.11246
0.306281
0.550962
0.384537
0.35852
0.351557
0.318494
0.280385
0.249505
0.227892
0.216025
0.212556
0.221096
0.235316
0.24761
0.273069
0.277781
3.14213
3.28566
3.28397
3.27823
3.26339
3.22198
3.09326
2.62956
1.31975
0.271944
0.56444
0.410956
0.371153
0.365133
0.335895
0.298775
0.27195
0.25474
0.248862
0.250837
0.264917
0.28665
0.303556
0.336888
0.346631
3.14183
3.2855
3.28448
3.27938
3.2664
3.23094
3.12314
2.73948
1.5652
0.250943
0.57449
0.446301
0.386538
0.381135
0.356744
0.319931
0.297051
0.28409
0.284349
0.29143
0.310204
0.341121
0.36231
0.403375
0.423617
3.14153
3.28534
3.28504
3.28048
3.26931
3.23948
3.15126
2.84652
1.83987
0.321728
0.577665
0.490445
0.405034
0.399344
0.379709
0.343371
0.323897
0.315164
0.321707
0.334585
0.357963
0.397016
0.42628
0.472781
0.512376
3.14132
3.28519
3.2856
3.28155
3.27207
3.24733
3.17622
2.94006
2.12042
0.540139
0.567949
0.541217
0.427254
0.419564
0.404497
0.369237
0.35197
0.347766
0.360149
0.379665
0.407321
0.452202
0.495098
0.548746
0.622254
3.14121
3.28497
3.28623
3.28256
3.27455
3.25433
3.1979
3.01783
2.37425
0.849805
0.536505
0.593755
0.454935
0.441668
0.42979
0.398029
0.380604
0.381923
0.399572
0.425071
0.457273
0.507698
0.568444
0.641596
0.783545
3.14287
3.28534
3.28272
3.27514
3.25384
3.19215
2.99141
2.27949
0.718652
0.37203
0.510472
0.342072
0.334981
0.325372
0.285512
0.242993
0.202304
0.16729
0.135703
0.108231
0.0892231
0.0737586
0.0615856
0.0680538
0.0416039
3.14285
3.28537
3.28282
3.2754
3.2545
3.19417
2.99862
2.30308
0.748964
0.369129
0.514141
0.345081
0.336286
0.32697
0.287384
0.245126
0.2054
0.171901
0.142959
0.119599
0.106531
0.0981268
0.0926657
0.101506
0.0880847
3.14279
3.28545
3.28305
3.27592
3.25593
3.19871
3.01482
2.35763
0.824822
0.35473
0.523452
0.353036
0.341162
0.332431
0.294192
0.253172
0.215699
0.185461
0.161637
0.144968
0.139784
0.139492
0.140665
0.153844
0.14812
3.14266
3.28554
3.28336
3.27659
3.25789
3.20511
3.03727
2.43473
0.945774
0.334979
0.536478
0.365281
0.348336
0.340479
0.304341
0.264916
0.230515
0.204474
0.18664
0.176926
0.179132
0.186304
0.193337
0.212323
0.212274
3.14242
3.28562
3.28368
3.27731
3.26037
3.21311
3.06413
2.52707
1.11242
0.306292
0.550968
0.384546
0.358529
0.351564
0.318495
0.28038
0.249496
0.227881
0.216016
0.212549
0.22109
0.23531
0.247602
0.273047
0.277774
3.14213
3.28566
3.28396
3.27822
3.26338
3.22198
3.09325
2.62954
1.31971
0.271957
0.564446
0.410966
0.371161
0.365137
0.335892
0.298768
0.271941
0.254731
0.248855
0.250832
0.264915
0.286649
0.303554
0.33687
0.346625
3.14183
3.2855
3.28448
3.27938
3.2664
3.23094
3.12313
2.73947
1.56516
0.250952
0.574495
0.446308
0.386545
0.381138
0.356741
0.319922
0.297041
0.284082
0.284344
0.291428
0.310206
0.341124
0.362315
0.403366
0.423606
3.14154
3.28534
3.28504
3.28048
3.26931
3.23948
3.15126
2.84651
1.83985
0.321724
0.577669
0.490447
0.405038
0.399345
0.379705
0.343361
0.323887
0.315157
0.321703
0.334583
0.357968
0.397019
0.426288
0.472785
0.512363
3.14132
3.28519
3.2856
3.28155
3.27207
3.24733
3.17621
2.94005
2.1204
0.540123
0.567955
0.541217
0.427256
0.419562
0.404492
0.369228
0.351962
0.34776
0.360146
0.379663
0.407323
0.452204
0.495104
0.548756
0.622243
3.14121
3.28497
3.28622
3.28255
3.27455
3.25433
3.1979
3.01783
2.37423
0.849784
0.536512
0.593754
0.454935
0.441665
0.429786
0.39802
0.380597
0.381918
0.399569
0.425069
0.457273
0.5077
0.568448
0.64161
0.783531
3.14287
3.28534
3.28272
3.27514
3.25385
3.19215
2.99141
2.27952
0.718684
0.372015
0.510468
0.342063
0.33497
0.325364
0.285507
0.242989
0.202302
0.16729
0.135704
0.108234
0.0892266
0.0737621
0.0615891
0.0680561
0.0416039
3.14285
3.28537
3.28282
3.2754
3.2545
3.19417
2.99863
2.3031
0.748986
0.369123
0.514138
0.345074
0.336276
0.326962
0.28738
0.245122
0.205397
0.1719
0.142959
0.1196
0.106532
0.0981285
0.0926675
0.101507
0.0880846
3.14279
3.28545
3.28305
3.27592
3.25593
3.19871
3.01482
2.35764
0.824833
0.35472
0.523447
0.353029
0.341153
0.332424
0.294188
0.253169
0.215697
0.185459
0.161635
0.144965
0.139783
0.139491
0.140666
0.153845
0.14812
3.14266
3.28554
3.28336
3.27659
3.25789
3.20511
3.03727
2.43473
0.94577
0.334971
0.53647
0.365272
0.348328
0.340474
0.304339
0.264915
0.230513
0.204471
0.186636
0.176921
0.179128
0.186302
0.193336
0.212324
0.212274
3.14242
3.28562
3.28368
3.27731
3.26037
3.21311
3.06413
2.52705
1.11239
0.306286
0.550961
0.384539
0.358526
0.351563
0.318495
0.28038
0.249494
0.227877
0.21601
0.212542
0.221084
0.235305
0.2476
0.273046
0.277774
3.14213
3.28566
3.28396
3.27822
3.26338
3.22198
3.09325
2.62951
1.31965
0.271955
0.564442
0.410962
0.371164
0.36514
0.335895
0.298769
0.27194
0.254726
0.248848
0.250823
0.264906
0.286642
0.303549
0.336868
0.346623
3.14183
3.2855
3.28448
3.27938
3.2664
3.23094
3.12312
2.73943
1.56508
0.250942
0.574495
0.446307
0.386555
0.381148
0.356748
0.319927
0.29704
0.284075
0.284334
0.291416
0.310193
0.341115
0.362308
0.403362
0.423604
3.14154
3.28534
3.28504
3.28048
3.26931
3.23948
3.15125
2.84648
1.83975
0.321689
0.577675
0.490445
0.405052
0.399358
0.379713
0.343364
0.323884
0.315148
0.321691
0.334569
0.357951
0.397007
0.426279
0.472778
0.512359
3.14132
3.28519
3.2856
3.28155
3.27207
3.24733
3.17621
2.94002
2.12032
0.540044
0.567965
0.541212
0.427266
0.419576
0.404497
0.369228
0.351956
0.347748
0.360131
0.379647
0.407307
0.452188
0.495092
0.548747
0.622237
3.14121
3.28497
3.28623
3.28256
3.27455
3.25433
3.1979
3.01781
2.37416
0.849675
0.536532
0.593747
0.454942
0.441675
0.42979
0.398013
0.380584
0.381902
0.399551
0.425051
0.457257
0.507682
0.568432
0.641597
0.783522
3.14287
3.28534
3.28272
3.27514
3.25385
3.19216
2.99143
2.27959
0.718776
0.371973
0.510481
0.342082
0.334977
0.325363
0.285498
0.242974
0.202289
0.16728
0.135702
0.108241
0.0892437
0.0737838
0.0616113
0.0680712
0.0416032
3.14285
3.28537
3.28282
3.27539
3.2545
3.19417
2.99864
2.30314
0.749049
0.369133
0.514182
0.345119
0.336295
0.326966
0.287372
0.24511
0.205387
0.171894
0.14296
0.11961
0.10655
0.098148
0.0926856
0.10152
0.0880873
3.14279
3.28545
3.28305
3.27592
3.25593
3.19871
3.01484
2.35769
0.824903
0.354708
0.523467
0.353044
0.341142
0.332405
0.294166
0.253149
0.215686
0.185456
0.161642
0.144981
0.139802
0.13951
0.140683
0.153858
0.148126
3.14266
3.28554
3.28335
3.27659
3.25789
3.20511
3.03728
2.43478
0.945851
0.334995
0.536432
0.365168
0.348189
0.340342
0.304251
0.264874
0.230503
0.204477
0.186652
0.176943
0.17915
0.186322
0.193355
0.212338
0.212283
3.14242
3.28562
3.28368
3.27731
3.26037
3.21312
3.06417
2.52718
1.11265
0.306129
0.550744
0.384266
0.358305
0.351437
0.318462
0.280375
0.249508
0.227896
0.216037
0.21257
0.22111
0.235327
0.24762
0.273062
0.277785
3.14214
3.28566
3.28396
3.27822
3.26338
3.22197
3.09324
2.62953
1.31972
0.271805
0.564387
0.410899
0.371125
0.365147
0.335932
0.298821
0.27199
0.254771
0.248886
0.250856
0.264935
0.286665
0.303571
0.336885
0.346637
3.14183
3.2855
3.28448
3.27938
3.26639
3.23093
3.1231
2.73937
1.56495
0.25082
0.574547
0.446407
0.386644
0.381222
0.356797
0.319992
0.2971
0.284134
0.284375
0.29145
0.310223
0.341139
0.362329
0.403383
0.423619
3.14154
3.28534
3.28504
3.28047
3.2693
3.23946
3.15122
2.84639
1.83956
0.321636
0.57774
0.490552
0.405165
0.39945
0.37974
0.343398
0.323925
0.315196
0.321725
0.334597
0.357979
0.397032
0.426298
0.472802
0.512376
3.14133
3.2852
3.2856
3.28155
3.27207
3.24732
3.17619
2.93998
2.12021
0.539992
0.568
0.541265
0.427334
0.419629
0.404521
0.369245
0.351981
0.347774
0.360153
0.37967
0.40733
0.452213
0.495112
0.548771
0.622257
3.14121
3.28497
3.28622
3.28255
3.27454
3.25432
3.19788
3.01777
2.37409
0.849607
0.536563
0.593756
0.454968
0.441677
0.429778
0.397982
0.380568
0.381908
0.399563
0.425067
0.457275
0.507704
0.568452
0.641621
0.783545
3.14287
3.28533
3.28271
3.27514
3.25383
3.19212
2.99131
2.27914
0.718149
0.372244
0.510303
0.34176
0.334661
0.325096
0.285312
0.24287
0.20224
0.167263
0.135709
0.108272
0.0892818
0.0738159
0.0616365
0.0680857
0.0415993
3.14285
3.28537
3.28282
3.27539
3.25449
3.19415
2.99855
2.30287
0.748654
0.368782
0.513612
0.34452
0.335896
0.326701
0.287235
0.245047
0.20537
0.171898
0.142975
0.119637
0.106577
0.0981668
0.0926966
0.101525
0.0880809
3.14279
3.28545
3.28304
3.2759
3.2559
3.19865
3.01464
2.35702
0.824008
0.355323
0.523831
0.353452
0.341494
0.332622
0.29428
0.253236
0.215743
0.185496
0.161666
0.144999
0.139815
0.139515
0.140681
0.153854
0.148115
3.14266
3.28554
3.28335
3.27658
3.25788
3.20507
3.03715
2.43435
0.945171
0.335152
0.536534
0.365426
0.348545
0.340673
0.304481
0.265006
0.230574
0.204516
0.186667
0.176946
0.179148
0.186315
0.193343
0.212327
0.212269
3.14243
3.28562
3.28368
3.2773
3.26035
3.21307
3.06401
2.52671
1.11179
0.306498
0.551072
0.384705
0.358732
0.351732
0.318601
0.280453
0.249536
0.227906
0.216025
0.212553
0.221093
0.235309
0.2476
0.273046
0.277768
3.14214
3.28566
3.28396
3.27822
3.26337
3.22195
3.09316
2.62924
1.31913
0.272192
0.564559
0.411116
0.371329
0.365246
0.335951
0.298798
0.271938
0.254725
0.248841
0.250819
0.264904
0.286638
0.303545
0.336865
0.346618
3.14183
3.2855
3.28448
3.27937
3.26638
3.23092
3.12307
2.73927
1.56475
0.251157
0.574575
0.44637
0.386631
0.381162
0.356721
0.31989
0.296998
0.284038
0.284306
0.291399
0.310182
0.341105
0.3623
0.40336
0.423598
3.14154
3.28534
3.28504
3.28048
3.2693
3.23947
3.15123
2.84641
1.83961
0.321766
0.577721
0.490435
0.405062
0.399324
0.379637
0.343285
0.323814
0.31509
0.32165
0.334543
0.357934
0.396998
0.426268
0.472778
0.512356
3.14133
3.2852
3.2856
3.28154
3.27206
3.24732
3.17619
2.94
2.12027
0.540025
0.568018
0.541189
0.427248
0.41951
0.404405
0.369138
0.351872
0.347686
0.360087
0.37962
0.40729
0.452181
0.495084
0.548748
0.622239
3.14121
3.28498
3.28622
3.28255
3.27454
3.25433
3.19789
3.01781
2.37417
0.84969
0.536589
0.593733
0.454918
0.441608
0.429697
0.397935
0.380506
0.381846
0.39951
0.425026
0.457243
0.507677
0.568431
0.641602
0.783529
3.14287
3.28534
3.28273
3.27515
3.25387
3.19222
2.99163
2.28022
0.719612
0.371951
0.51068
0.342213
0.335004
0.325386
0.285545
0.243074
0.202446
0.167485
0.135975
0.108605
0.0896815
0.0742807
0.0621478
0.0685179
0.0422539
3.14286
3.28538
3.28283
3.27541
3.25452
3.19424
2.99884
2.30379
0.749918
0.368999
0.514188
0.344954
0.33609
0.326815
0.287337
0.245164
0.205519
0.17208
0.143206
0.119919
0.106892
0.0984982
0.0930279
0.10182
0.0883896
3.1428
3.28546
3.28306
3.27593
3.25595
3.19877
3.01504
2.35842
0.825977
0.354152
0.523154
0.352675
0.340887
0.332291
0.294189
0.253244
0.215841
0.185651
0.161877
0.145246
0.14007
0.139762
0.140913
0.154058
0.148315
3.14267
3.28555
3.28336
3.27659
3.2579
3.20513
3.03735
2.43504
0.946311
0.334906
0.536791
0.365649
0.348584
0.340666
0.304509
0.265084
0.230705
0.204683
0.186874
0.177174
0.179371
0.186521
0.193531
0.212491
0.212415
3.14243
3.28562
3.28369
3.27731
3.26037
3.21312
3.06416
2.52719
1.11266
0.306341
0.55128
0.384947
0.358801
0.351736
0.31861
0.280534
0.249681
0.228092
0.216237
0.212771
0.221294
0.235489
0.247761
0.27319
0.277889
3.14214
3.28566
3.28397
3.27823
3.26339
3.22199
3.09329
2.62969
1.32006
0.271973
0.564461
0.411021
0.371198
0.365195
0.335987
0.298901
0.272107
0.254915
0.249053
0.251029
0.265093
0.286801
0.303691
0.336997
0.346727
3.14184
3.28551
3.28449
3.27938
3.2664
3.23095
3.12316
2.73958
1.56546
0.250944
0.574392
0.446227
0.386498
0.381176
0.356881
0.320088
0.29722
0.284248
0.28452
0.291604
0.310361
0.341255
0.36243
0.403483
0.423698
3.14155
3.28535
3.28504
3.28047
3.2693
3.23947
3.15124
2.8465
1.83987
0.321669
0.577645
0.490476
0.405072
0.399411
0.379821
0.343517
0.324062
0.315329
0.321864
0.334734
0.358096
0.397133
0.426384
0.472891
0.512449
3.14134
3.2852
3.2856
3.28155
3.27207
3.24732
3.17619
2.93998
2.12024
0.539998
0.567955
0.541305
0.427348
0.419662
0.404609
0.36939
0.352126
0.347916
0.360285
0.379795
0.407428
0.452309
0.49519
0.548847
0.622327
3.14122
3.28498
3.28622
3.28255
3.27454
3.25431
3.19786
3.01772
2.37396
0.849455
0.536566
0.593846
0.455039
0.441765
0.42987
0.398109
0.380722
0.382037
0.399676
0.425164
0.457356
0.507785
0.568522
0.641685
0.783616
3.14117
3.28482
3.28676
3.28339
3.27665
3.26041
3.21638
3.08107
2.59484
1.24764
0.481744
0.639679
0.489752
0.465628
0.454977
0.429722
0.409683
0.417179
0.439198
0.47048
0.507812
0.563835
0.641814
0.741743
0.965085
3.14111
3.28467
3.28718
3.28405
3.27843
3.2654
3.23144
3.13185
2.78484
1.68109
0.428641
0.668204
0.534488
0.490834
0.480525
0.462336
0.439917
0.452097
0.476091
0.513934
0.557641
0.617052
0.707883
0.81858
1.05149
3.14109
3.28456
3.28751
3.28456
3.27988
3.26936
3.24316
3.17018
2.93189
2.10266
0.559999
0.673371
0.591731
0.518251
0.506305
0.492546
0.473368
0.485319
0.511333
0.554389
0.606285
0.666104
0.760746
0.870261
1.07391
3.14108
3.2845
3.28775
3.2849
3.28097
3.2724
3.25197
3.19835
3.03494
2.44807
0.958347
0.641547
0.656367
0.549709
0.532796
0.520114
0.510436
0.516279
0.545628
0.591487
0.649774
0.710687
0.805322
0.909341
1.06467
3.14108
3.28448
3.28787
3.2851
3.28172
3.27459
3.25843
3.21892
3.10643
2.71439
1.51907
0.579369
0.709668
0.5868
0.561231
0.547055
0.547848
0.548502
0.575231
0.621595
0.685859
0.745427
0.839091
0.928833
1.0378
3.14108
3.28448
3.28793
3.28519
3.28222
3.27608
3.26309
3.23358
3.15541
2.90227
2.03819
0.595813
0.727155
0.636556
0.592961
0.575239
0.580669
0.583526
0.599818
0.647259
0.712065
0.768732
0.853121
0.932398
1.01457
3.14108
3.28447
3.28795
3.28524
3.28254
3.27699
3.26641
3.24387
3.18891
3.02507
2.44267
0.963883
0.714366
0.694793
0.627346
0.605727
0.609426
0.618495
0.623841
0.668421
0.727267
0.782027
0.857932
0.931523
1.00319
3.14108
3.28447
3.28796
3.28524
3.28263
3.27744
3.2685
3.25082
3.21108
3.10373
2.75003
1.61661
0.682196
0.745241
0.665781
0.639852
0.635802
0.652415
0.655854
0.686821
0.741021
0.791544
0.861501
0.933968
0.998935
3.14108
3.28447
3.28796
3.28523
3.28261
3.27773
3.26909
3.25547
3.22554
3.1518
2.9374
2.20997
0.806684
0.76344
0.711155
0.677442
0.662944
0.680464
0.689024
0.70229
0.752716
0.800993
0.860228
0.935378
0.99715
3.14108
3.28447
3.28795
3.28522
3.28261
3.2778
3.26894
3.25822
3.23455
3.18125
3.04698
2.61858
1.35129
0.755437
0.761086
0.716486
0.692194
0.699381
0.712603
0.71929
0.761454
0.810394
0.862327
0.928743
0.994307
3.14108
3.28447
3.28796
3.28522
3.28261
3.27783
3.26894
3.25928
3.2395
3.19935
3.11126
2.87099
2.06721
0.862308
0.791938
0.758302
0.72257
0.716576
0.733376
0.751297
0.772328
0.81788
0.867507
0.920665
0.98444
3.14108
3.28447
3.28796
3.28524
3.28261
3.27786
3.26898
3.25948
3.24242
3.20759
3.14478
3.00212
2.57406
1.41692
0.805056
0.802526
0.760615
0.741318
0.760627
0.782251
0.795339
0.827967
0.873334
0.920448
0.971309
3.14108
3.28447
3.28796
3.28524
3.28262
3.27788
3.26896
3.2595
3.24302
3.20995
3.16397
3.06735
2.82855
2.143
1.02151
0.824066
0.804084
0.776936
0.789624
0.813664
0.838876
0.846328
0.880873
0.925118
0.96858
3.14108
3.28447
3.28796
3.28524
3.28262
3.27788
3.26895
3.25948
3.24314
3.2098
3.17244
3.09924
2.93771
2.58075
1.71807
0.905602
0.838377
0.816462
0.819486
0.848479
0.873795
0.890171
0.89675
0.931798
0.973211
3.14108
3.28447
3.28796
3.28525
3.28262
3.27788
3.26896
3.25948
3.24319
3.20979
3.17304
3.1115
2.97473
2.75246
2.29071
1.42638
0.892367
0.85509
0.850769
0.875045
0.910956
0.936569
0.936511
0.946921
0.980265
3.14108
3.28447
3.28796
3.28524
3.28262
3.27788
3.26896
3.25948
3.24319
3.20986
3.17291
3.1129
2.98196
2.81459
2.51224
2.00219
1.2969
0.914959
0.881774
0.899936
0.939177
0.972916
0.992495
0.983948
0.99678
3.14108
3.28447
3.28796
3.28525
3.28262
3.27788
3.26896
3.25948
3.2432
3.20987
3.173
3.11298
2.98243
2.82332
2.56987
2.19321
1.79659
1.27696
0.945222
0.921369
0.956657
1.00219
1.03164
1.03906
1.03172
3.14108
3.28447
3.28796
3.28524
3.28262
3.27787
3.26896
3.25948
3.24319
3.20986
3.173
3.11294
2.98294
2.82214
2.57301
2.2063
1.95752
1.67532
1.28263
0.982826
0.967196
1.01324
1.05791
1.08178
1.07786
3.14108
3.28447
3.28796
3.28524
3.28262
3.27788
3.26896
3.25948
3.24321
3.20989
3.17304
3.113
2.9831
2.82229
2.57301
2.20888
1.96565
1.79789
1.60654
1.30689
1.03601
1.01293
1.06623
1.10527
1.12143
3.14108
3.28447
3.28796
3.28524
3.28262
3.27787
3.26896
3.25948
3.24319
3.20985
3.17299
3.11293
2.98299
2.8222
2.57252
2.20901
1.9644
1.8099
1.69346
1.56232
1.3528
1.11804
1.0592
1.11275
1.1441
3.14108
3.28447
3.28796
3.28525
3.28262
3.27788
3.26896
3.25948
3.2432
3.20988
3.17304
3.11298
2.98303
2.82234
2.57271
2.20924
1.96453
1.81098
1.70206
1.6215
1.54432
1.41624
1.23229
1.12239
1.14717
3.14108
3.28447
3.28796
3.28524
3.28262
3.27787
3.26895
3.25947
3.24318
3.20984
3.17299
3.11293
2.98299
2.82221
2.5726
2.20925
1.96446
1.81112
1.70296
1.62762
1.5867
1.54811
1.47894
1.34963
1.20739
3.14108
3.28447
3.28796
3.28525
3.28262
3.27788
3.26896
3.25948
3.2432
3.20988
3.17305
3.11298
2.98304
2.82235
2.57275
2.20927
1.96453
1.81106
1.70277
1.62768
1.59104
1.57174
1.55972
1.52756
1.4505
3.14108
3.28447
3.28796
3.28524
3.28262
3.27787
3.26895
3.25947
3.24318
3.20984
3.17298
3.11292
2.98298
2.8222
2.57253
2.20916
1.96438
1.81104
1.70294
1.62788
1.59171
1.57461
1.57331
1.57095
1.55882
3.14108
3.28447
3.28796
3.28525
3.28262
3.27788
3.26896
3.25948
3.24321
3.2099
3.17305
3.11301
2.98312
2.82238
2.5729
2.20972
1.96506
1.81194
1.70408
1.62914
1.59309
1.57624
1.5759
1.57959
1.57992
3.14108
3.28447
3.28796
3.28524
3.28262
3.27787
3.26895
3.25947
3.24318
3.20985
3.17299
3.11292
2.98299
2.82221
2.57253
2.20913
1.96434
1.81101
1.70293
1.62789
1.59176
1.57488
1.57456
1.57901
1.58164
3.14108
3.28447
3.28796
3.28525
3.28262
3.27788
3.26896
3.25949
3.2432
3.20988
3.17305
3.11299
2.98306
2.82237
2.57277
2.20927
1.96452
1.81106
1.7028
1.62776
1.59166
1.57478
1.57451
1.57905
1.58217
3.14108
3.28447
3.28796
3.28524
3.28262
3.27787
3.26896
3.25948
3.24319
3.20985
3.173
3.11294
2.98302
2.82223
2.57259
2.20923
1.96444
1.81112
1.70305
1.62799
1.59187
1.57499
1.5747
1.57927
1.58243
3.14108
3.28447
3.28796
3.28525
3.28262
3.27788
3.26896
3.25949
3.2432
3.20988
3.17305
3.11299
2.98305
2.82237
2.57276
2.20929
1.96456
1.81109
1.70279
1.62774
1.59162
1.57474
1.57446
1.57902
1.58223
3.14108
3.28447
3.28796
3.28524
3.28262
3.27788
3.26896
3.25948
3.2432
3.20987
3.17302
3.11295
2.98301
2.82225
2.57257
2.20916
1.96439
1.81103
1.70291
1.62785
1.59172
1.57484
1.57453
1.5791
1.5823
3.14108
3.28447
3.28796
3.28525
3.28262
3.27788
3.26896
3.25948
3.24321
3.20991
3.17306
3.11303
2.98313
2.82242
2.57295
2.20971
1.96506
1.81192
1.70406
1.62912
1.59308
1.57625
1.57603
1.5806
1.58366
3.14108
3.28447
3.28796
3.28525
3.28262
3.27788
3.26896
3.25948
3.2432
3.20988
3.17304
3.11298
2.98302
2.82232
2.57266
2.20909
1.96435
1.81089
1.70264
1.62763
1.59153
1.57466
1.57437
1.57891
1.58213
3.14108
3.28447
3.28796
3.28525
3.28262
3.27788
3.26897
3.25949
3.24321
3.2099
3.17307
3.11301
2.98305
2.82239
2.57275
2.20915
1.9644
1.8109
1.70259
1.62756
1.59147
1.5746
1.57432
1.57888
1.5821
3.14108
3.28447
3.28796
3.28525
3.28262
3.27788
3.26896
3.25948
3.24321
3.2099
3.17307
3.11302
2.98311
2.82241
2.573
2.20973
1.96504
1.81186
1.70397
1.62903
1.593
1.57619
1.57599
1.58058
1.58364
3.14108
3.28447
3.28796
3.28525
3.28263
3.27789
3.26897
3.25949
3.24321
3.2099
3.17309
3.11301
2.98305
2.82241
2.57277
2.20919
1.96444
1.81092
1.70258
1.62753
1.59143
1.57456
1.57428
1.57885
1.58208
3.14108
3.28447
3.28796
3.28525
3.28262
3.27788
3.26897
3.25949
3.24321
3.2099
3.17307
3.11301
2.98304
2.82238
2.57271
2.20908
1.96434
1.81086
1.7026
1.62759
1.59149
1.57462
1.57433
1.57887
1.58209
3.14108
3.28447
3.28796
3.28525
3.28262
3.27789
3.26897
3.25949
3.24323
3.20993
3.1731
3.11306
2.98314
2.82251
2.57304
2.20962
1.96498
1.81171
1.70369
1.62878
1.59275
1.57593
1.57572
1.58028
1.58338
3.14108
3.28447
3.28796
3.28525
3.28263
3.27788
3.26897
3.25949
3.24322
3.2099
3.17307
3.11301
2.98306
2.82234
2.57267
2.20917
1.96442
1.81102
1.70286
1.6278
1.59167
1.57479
1.5745