/*--------------------------------*- C++ -*----------------------------------*\
| =========                 |                                                 |
| \\      /  F ield         | OpenFOAM: The Open Source CFD Toolbox           |
|  \\    /   O peration     | Version:  4.1                                   |
|   \\  /    A nd           | Web:      www.OpenFOAM.org                      |
|    \\/     M anipulation  |                                                 |
\*---------------------------------------------------------------------------*/
FoamFile
{
    version     2.0;
    format      ascii;
    class       volScalarField;
    location    "0.44";
    object      p;
}
// * * * * * * * * * * * * * * * * * * * * * * * * * * * * * * * * * * * * * //

dimensions      [1 -1 -2 0 0 0 0];

internalField   nonuniform List<scalar> 
52500
(
0.0902736
0.0625603
0.06262
0.0629902
0.0642199
0.0679942
0.0805978
0.133597
0.434699
2.00135
1.86014
1.49553
1.38543
1.30565
1.23824
1.18823
1.13931
1.08834
1.03754
0.97764
0.91326
0.853974
0.802231
0.750827
0.739284
0.0902746
0.0625552
0.0626129
0.0629755
0.0641782
0.0678656
0.0801361
0.131387
0.421791
1.96986
1.87701
1.49963
1.38812
1.30837
1.24098
1.19046
1.14182
1.09133
1.0409
0.980961
0.916036
0.855871
0.803537
0.75116
0.739472
0.0902773
0.0625444
0.0625981
0.0629434
0.0640849
0.0675741
0.079105
0.126471
0.392923
1.89694
1.9148
1.50357
1.3887
1.30938
1.24204
1.1907
1.1426
1.09293
1.04321
0.983594
0.917978
0.856269
0.803188
0.749194
0.737393
0.0902823
0.0625313
0.0625806
0.0629017
0.0639516
0.0671576
0.0776748
0.119837
0.352572
1.77086
1.97732
1.51098
1.38979
1.31139
1.24323
1.19066
1.14325
1.09462
1.04576
0.986684
0.920245
0.856392
0.802209
0.744779
0.732671
0.0902892
0.0625222
0.0625661
0.0628493
0.063773
0.0666307
0.0759648
0.112371
0.308821
1.58035
2.06349
1.52214
1.39123
1.31466
1.24362
1.19013
1.14374
1.0962
1.04844
0.990098
0.922962
0.856288
0.800437
0.738036
0.725516
0.0902951
0.0625289
0.0625448
0.0627666
0.0635582
0.0660561
0.0741148
0.104663
0.266919
1.32453
2.16973
1.53857
1.39325
1.31831
1.2443
1.18902
1.14401
1.09766
1.05079
0.993459
0.926076
0.855326
0.797847
0.728575
0.716117
0.0902997
0.0625612
0.0624842
0.0626676
0.0633504
0.0654788
0.0722073
0.0969558
0.22497
1.04144
2.2544
1.56309
1.39662
1.32212
1.24533
1.18864
1.14392
1.09888
1.05233
0.996313
0.929418
0.851822
0.794792
0.716395
0.702496
0.0903039
0.0625947
0.0624183
0.0625738
0.0631494
0.0649258
0.0704098
0.0898171
0.184172
0.773049
2.28323
1.60511
1.40236
1.32538
1.24696
1.18897
1.14356
1.09943
1.05204
0.996705
0.931055
0.846505
0.786801
0.70627
0.681389
0.090306
0.0626245
0.0623572
0.062485
0.0629571
0.0644136
0.0688146
0.0837644
0.150264
0.540272
2.21413
1.69272
1.41129
1.32804
1.25016
1.19001
1.14326
1.09909
1.05092
0.99403
0.930199
0.845451
0.77467
0.692031
0.65136
0.0903058
0.0626519
0.0623
0.062404
0.062784
0.0639514
0.0674218
0.0787963
0.125383
0.386887
1.90947
1.84114
1.42496
1.32995
1.25362
1.19281
1.14351
1.09776
1.0477
0.991126
0.928762
0.843781
0.76226
0.669093
0.603587
0.0902739
0.0625607
0.0626205
0.062991
0.0642218
0.068
0.080619
0.133702
0.435322
2.0026
1.85901
1.49516
1.38533
1.30558
1.2382
1.1882
1.13927
1.08829
1.03746
0.977526
0.913142
0.853867
0.802135
0.750733
0.739191
0.0902748
0.0625556
0.0626133
0.0629761
0.0641799
0.0678702
0.0801521
0.131462
0.422208
1.97115
1.87619
1.49931
1.38807
1.3083
1.24096
1.19044
1.14178
1.09127
1.04082
0.980856
0.915925
0.855769
0.803443
0.751069
0.739382
0.0902776
0.0625448
0.0625985
0.0629442
0.0640869
0.0675799
0.0791254
0.126566
0.393507
1.89816
1.91391
1.50347
1.38868
1.3094
1.24202
1.19069
1.14256
1.09287
1.04313
0.983503
0.917883
0.856177
0.8031
0.749107
0.737307
0.0902825
0.0625316
0.0625809
0.0629023
0.0639533
0.0671624
0.0776898
0.119902
0.352955
1.77222
1.97642
1.51087
1.38977
1.31133
1.24321
1.19065
1.14321
1.09455
1.04568
0.986612
0.920171
0.856313
0.802131
0.744701
0.732593
0.0902893
0.0625224
0.0625663
0.06285
0.0637748
0.0666355
0.0759792
0.112429
0.309123
1.5818
2.06246
1.52217
1.39127
1.31462
1.24361
1.19011
1.14369
1.09613
1.04837
0.990047
0.922911
0.856224
0.800373
0.737971
0.725446
0.0902954
0.0625291
0.0625451
0.0627672
0.0635593
0.0660591
0.0741249
0.104705
0.267137
1.32584
2.16866
1.53854
1.39326
1.31826
1.24428
1.18901
1.14394
1.09758
1.05073
0.993426
0.926046
0.855288
0.797804
0.728527
0.716058
0.0903001
0.0625616
0.0624843
0.0626678
0.0633508
0.06548
0.0722115
0.0969739
0.225074
1.04214
2.25373
1.56299
1.39657
1.32203
1.24525
1.18858
1.14386
1.0988
1.05228
0.99629
0.92941
0.851809
0.794771
0.716367
0.70245
0.0903042
0.0625951
0.0624182
0.0625737
0.0631493
0.0649258
0.0704105
0.0898221
0.184209
0.773258
2.28319
1.60503
1.40229
1.32532
1.24685
1.1889
1.14347
1.09935
1.05199
0.996691
0.931065
0.846526
0.786796
0.706265
0.681363
0.0903064
0.062625
0.0623571
0.0624848
0.0629568
0.0644132
0.0688142
0.083765
0.150275
0.540367
2.21446
1.69259
1.41118
1.32797
1.25006
1.18991
1.14314
1.09901
1.05087
0.994013
0.930214
0.845496
0.774696
0.692045
0.651359
0.0903062
0.0626524
0.0622998
0.0624038
0.0627836
0.0639507
0.0674208
0.0787952
0.125385
0.386928
1.90985
1.84101
1.42482
1.32986
1.2535
1.19265
1.14338
1.09766
1.04763
0.991113
0.928774
0.843836
0.762311
0.669131
0.603601
0.0902739
0.0625606
0.0626204
0.0629907
0.0642212
0.0679979
0.0806109
0.13366
0.435056
2.00194
1.85943
1.49537
1.38535
1.30557
1.23815
1.18816
1.13924
1.08826
1.03745
0.977553
0.913182
0.853905
0.802169
0.750758
0.739216
0.0902748
0.0625554
0.0626132
0.0629759
0.0641793
0.0678686
0.0801464
0.131435
0.422053
1.97047
1.87647
1.49947
1.38805
1.30829
1.2409
1.19038
1.14174
1.09125
1.04082
0.980883
0.915964
0.855806
0.803477
0.751094
0.739406
0.0902776
0.0625446
0.0625983
0.0629438
0.0640858
0.0675766
0.0791134
0.126511
0.393154
1.89753
1.9144
1.50344
1.38863
1.30931
1.24196
1.19062
1.14252
1.09285
1.04314
0.983531
0.917921
0.856214
0.803133
0.749131
0.737329
0.0902826
0.0625315
0.0625808
0.062902
0.0639523
0.0671594
0.0776809
0.119864
0.352737
1.77148
1.97696
1.51085
1.38974
1.31132
1.24316
1.19059
1.14317
1.09454
1.0457
0.986641
0.920208
0.856348
0.802163
0.744722
0.732612
0.0902895
0.0625224
0.0625663
0.0628496
0.0637735
0.0666323
0.07597
0.112393
0.308942
1.58097
2.06313
1.52204
1.39118
1.31458
1.24353
1.19004
1.14365
1.09613
1.04838
0.990073
0.922945
0.856259
0.800402
0.737989
0.725461
0.0902954
0.0625292
0.062545
0.0627668
0.0635586
0.0660574
0.0741195
0.104683
0.267026
1.32519
2.16935
1.53851
1.39321
1.31825
1.24422
1.18894
1.14391
1.09757
1.05074
0.993447
0.926076
0.855319
0.797829
0.72854
0.716069
0.0903001
0.0625617
0.0624842
0.0626676
0.0633505
0.0654795
0.0722099
0.0969675
0.225039
1.04191
2.25406
1.56303
1.39658
1.32203
1.24522
1.18853
1.14383
1.0988
1.05228
0.996302
0.929437
0.851834
0.794794
0.716376
0.702455
0.0903042
0.0625951
0.0624183
0.0625738
0.0631494
0.064926
0.0704109
0.089823
0.184211
0.773227
2.28321
1.60507
1.40232
1.32529
1.24684
1.18886
1.14346
1.09934
1.05198
0.996697
0.931084
0.84655
0.786812
0.706269
0.681363
0.0903064
0.062625
0.0623571
0.0624848
0.0629568
0.0644134
0.0688147
0.0837669
0.150283
0.540405
2.21431
1.69265
1.41125
1.32796
1.25006
1.18989
1.14313
1.099
1.05085
0.994019
0.930234
0.845517
0.774704
0.692045
0.651355
0.0903062
0.0626524
0.0622999
0.0624039
0.0627837
0.0639509
0.0674213
0.0787969
0.125391
0.386957
1.9098
1.84106
1.42493
1.32987
1.25349
1.19266
1.14338
1.09765
1.04762
0.991115
0.928792
0.843855
0.762319
0.669129
0.603596
0.0902739
0.0625606
0.0626203
0.0629907
0.0642212
0.0679982
0.080612
0.133666
0.435095
2.00202
1.85936
1.49536
1.38536
1.30558
1.23816
1.18816
1.13924
1.08826
1.03746
0.977567
0.913205
0.853933
0.802196
0.750774
0.739228
0.0902748
0.0625554
0.0626131
0.0629759
0.0641793
0.0678688
0.0801471
0.131439
0.422079
1.97056
1.87642
1.49946
1.38806
1.3083
1.24091
1.19039
1.14174
1.09125
1.04082
0.980898
0.915988
0.855833
0.803504
0.751109
0.739419
0.0902776
0.0625445
0.0625983
0.0629439
0.0640858
0.0675768
0.0791142
0.126515
0.393179
1.89761
1.91436
1.50345
1.38866
1.30933
1.24198
1.19063
1.14252
1.09285
1.04315
0.983549
0.917945
0.856242
0.803161
0.749147
0.737343
0.0902826
0.0625315
0.0625808
0.0629021
0.0639524
0.0671597
0.0776819
0.119869
0.352762
1.77155
1.97686
1.51087
1.38974
1.31131
1.24316
1.19059
1.14318
1.09454
1.04571
0.986661
0.920233
0.856377
0.802193
0.744741
0.732628
0.0902895
0.0625224
0.0625663
0.0628497
0.0637737
0.0666329
0.0759722
0.112403
0.308991
1.58117
2.06288
1.52211
1.39119
1.31458
1.24354
1.19004
1.14366
1.09613
1.0484
0.990096
0.922974
0.856288
0.800434
0.738009
0.72548
0.0902955
0.0625293
0.062545
0.0627667
0.0635585
0.0660573
0.0741196
0.104685
0.267041
1.32529
2.16912
1.53853
1.39321
1.31822
1.24421
1.18894
1.14391
1.09758
1.05076
0.993473
0.926109
0.855351
0.797865
0.728562
0.716092
0.0903001
0.0625618
0.062484
0.0626675
0.0633502
0.0654789
0.0722085
0.0969632
0.22502
1.0418
2.25414
1.56301
1.39653
1.32199
1.24519
1.18852
1.14382
1.0988
1.05229
0.996332
0.929475
0.851866
0.794835
0.716404
0.70248
0.0903042
0.0625952
0.0624181
0.0625736
0.0631491
0.0649253
0.0704092
0.0898179
0.184187
0.773157
2.28336
1.60506
1.40228
1.32528
1.24679
1.18884
1.14344
1.09934
1.05199
0.996726
0.93112
0.846592
0.786852
0.706307
0.681392
0.0903064
0.0626251
0.062357
0.0624847
0.0629566
0.0644129
0.0688137
0.0837639
0.15027
0.540341
2.21443
1.69263
1.41118
1.32793
1.25001
1.18986
1.14311
1.099
1.05087
0.994046
0.930272
0.845565
0.774748
0.692086
0.651389
0.0903062
0.0626525
0.0622998
0.0624037
0.0627835
0.0639506
0.0674207
0.0787953
0.125386
0.386932
1.90976
1.84103
1.42485
1.32983
1.25345
1.19261
1.14335
1.09764
1.04763
0.991144
0.928826
0.843903
0.762369
0.669173
0.603632
0.0902739
0.0625605
0.0626203
0.0629907
0.0642212
0.0679981
0.0806118
0.133665
0.435091
2.002
1.85934
1.49534
1.38534
1.30556
1.23815
1.18815
1.13923
1.08826
1.03747
0.977584
0.913223
0.85395
0.802214
0.750797
0.739251
0.0902748
0.0625554
0.0626131
0.0629759
0.0641793
0.0678687
0.0801469
0.131438
0.422076
1.97053
1.8764
1.49944
1.38804
1.30828
1.2409
1.19038
1.14174
1.09126
1.04084
0.980914
0.916006
0.855851
0.803522
0.751131
0.73944
0.0902776
0.0625445
0.0625983
0.0629438
0.0640858
0.0675767
0.0791139
0.126514
0.393172
1.89758
1.91434
1.50344
1.38864
1.30931
1.24197
1.19063
1.14252
1.09285
1.04316
0.983562
0.917961
0.856257
0.803177
0.749167
0.737363
0.0902826
0.0625315
0.0625808
0.062902
0.0639523
0.0671595
0.0776815
0.119867
0.352751
1.7715
1.97686
1.51086
1.38973
1.3113
1.24316
1.19059
1.14318
1.09454
1.04571
0.986671
0.920244
0.856389
0.802204
0.744756
0.732647
0.0902895
0.0625224
0.0625663
0.0628497
0.0637736
0.0666326
0.0759714
0.1124
0.308975
1.58109
2.06291
1.52211
1.39118
1.31457
1.24354
1.19005
1.14366
1.09613
1.0484
0.990102
0.92298
0.856298
0.800446
0.73802
0.725501
0.0902955
0.0625293
0.0625449
0.0627666
0.0635584
0.066057
0.0741188
0.104682
0.267023
1.32518
2.16916
1.53853
1.3932
1.31822
1.24422
1.18895
1.14391
1.09758
1.05076
0.993474
0.926114
0.855353
0.797872
0.728567
0.716114
0.0903001
0.0625618
0.062484
0.0626674
0.0633501
0.0654786
0.0722077
0.0969598
0.225002
1.04168
2.2542
1.56302
1.39653
1.32199
1.24519
1.18852
1.14383
1.0988
1.05229
0.996327
0.929467
0.851861
0.794835
0.716406
0.702499
0.0903042
0.0625952
0.062418
0.0625735
0.063149
0.064925
0.0704084
0.0898149
0.18417
0.773095
2.28336
1.60508
1.40228
1.32528
1.2468
1.18884
1.14344
1.09934
1.05199
0.996715
0.931105
0.846571
0.786851
0.706306
0.681406
0.0903064
0.0626251
0.062357
0.0624847
0.0629565
0.0644127
0.0688131
0.0837618
0.150258
0.540271
2.21438
1.6927
1.41119
1.32794
1.25002
1.18986
1.14311
1.099
1.05086
0.994036
0.930255
0.84554
0.774738
0.692082
0.651395
0.0903062
0.0626525
0.0622997
0.0624037
0.0627834
0.0639504
0.0674202
0.0787937
0.125378
0.386885
1.90963
1.8411
1.42485
1.32984
1.25346
1.19261
1.14335
1.09764
1.04763
0.991125
0.928807
0.843873
0.762351
0.669162
0.603634
0.0902739
0.0625606
0.0626203
0.0629907
0.0642213
0.0679983
0.0806125
0.133668
0.435109
2.00203
1.85932
1.49535
1.38535
1.30557
1.23815
1.18816
1.13924
1.08826
1.03747
0.977577
0.913217
0.853945
0.802209
0.750785
0.739239
0.0902748
0.0625554
0.0626131
0.0629759
0.0641794
0.0678689
0.0801475
0.13144
0.422088
1.97057
1.87639
1.49945
1.38805
1.30829
1.24091
1.19039
1.14174
1.09125
1.04083
0.980907
0.915999
0.855845
0.803516
0.75112
0.73943
0.0902776
0.0625445
0.0625983
0.0629439
0.0640859
0.0675769
0.0791144
0.126516
0.393183
1.89761
1.91434
1.50345
1.38865
1.30932
1.24197
1.19063
1.14252
1.09285
1.04315
0.983555
0.917954
0.856252
0.803172
0.749158
0.737354
0.0902826
0.0625315
0.0625808
0.0629021
0.0639524
0.0671597
0.077682
0.119869
0.35276
1.77153
1.97685
1.51087
1.38974
1.3113
1.24316
1.19059
1.14318
1.09454
1.04571
0.986665
0.920239
0.856385
0.802202
0.74475
0.732638
0.0902895
0.0625224
0.0625663
0.0628497
0.0637737
0.0666328
0.075972
0.112402
0.308984
1.58113
2.06289
1.52212
1.39119
1.31458
1.24354
1.19005
1.14366
1.09613
1.0484
0.990097
0.922976
0.856294
0.800441
0.738017
0.725488
0.0902955
0.0625293
0.062545
0.0627667
0.0635585
0.0660572
0.0741192
0.104683
0.26703
1.32522
2.16914
1.53853
1.39321
1.31822
1.24422
1.18894
1.14391
1.09758
1.05076
0.993471
0.926108
0.855352
0.797869
0.728568
0.716098
0.0903001
0.0625618
0.062484
0.0626674
0.0633502
0.0654787
0.072208
0.096961
0.225008
1.04172
2.25418
1.56302
1.39654
1.32199
1.24519
1.18852
1.14382
1.0988
1.05229
0.996327
0.929469
0.851862
0.794835
0.716407
0.702484
0.0903042
0.0625952
0.0624181
0.0625736
0.063149
0.0649252
0.0704087
0.0898157
0.184174
0.77311
2.28336
1.60509
1.40228
1.32528
1.2468
1.18884
1.14344
1.09934
1.05199
0.996717
0.931106
0.846583
0.786849
0.706306
0.681393
0.0903064
0.0626251
0.062357
0.0624847
0.0629566
0.0644128
0.0688133
0.0837623
0.150261
0.540284
2.21439
1.69269
1.41119
1.32794
1.25002
1.18986
1.14311
1.099
1.05086
0.994039
0.930259
0.84555
0.774738
0.692081
0.651387
0.0903062
0.0626525
0.0622998
0.0624037
0.0627835
0.0639505
0.0674204
0.078794
0.125379
0.386893
1.90965
1.8411
1.42485
1.32983
1.25345
1.19261
1.14335
1.09764
1.04762
0.991135
0.928812
0.843884
0.762352
0.669163
0.603626
0.0902739
0.0625606
0.0626203
0.0629907
0.0642212
0.0679982
0.080612
0.133666
0.435095
2.00202
1.85936
1.49536
1.38536
1.30558
1.23816
1.18816
1.13924
1.08826
1.03746
0.977567
0.913205
0.853933
0.802196
0.750773
0.739228
0.0902748
0.0625554
0.0626131
0.0629759
0.0641793
0.0678688
0.0801471
0.131439
0.422079
1.97056
1.87642
1.49946
1.38806
1.3083
1.24091
1.19039
1.14174
1.09125
1.04082
0.980898
0.915988
0.855833
0.803504
0.751109
0.739419
0.0902776
0.0625445
0.0625983
0.0629439
0.0640858
0.0675768
0.0791142
0.126515
0.393179
1.89761
1.91436
1.50345
1.38866
1.30933
1.24198
1.19063
1.14252
1.09285
1.04315
0.983549
0.917945
0.856242
0.803161
0.749147
0.737343
0.0902826
0.0625315
0.0625808
0.0629021
0.0639524
0.0671597
0.0776819
0.119869
0.352762
1.77155
1.97686
1.51087
1.38974
1.31131
1.24316
1.19059
1.14318
1.09454
1.04571
0.986661
0.920233
0.856377
0.802193
0.744741
0.732628
0.0902895
0.0625224
0.0625663
0.0628497
0.0637737
0.0666329
0.0759722
0.112403
0.308991
1.58117
2.06288
1.52211
1.39119
1.31458
1.24354
1.19004
1.14366
1.09613
1.0484
0.990096
0.922974
0.856288
0.800434
0.738009
0.72548
0.0902955
0.0625293
0.062545
0.0627667
0.0635585
0.0660573
0.0741196
0.104685
0.267041
1.32529
2.16912
1.53853
1.39321
1.31822
1.24421
1.18894
1.14391
1.09758
1.05076
0.993473
0.926109
0.855351
0.797865
0.728562
0.716092
0.0903001
0.0625618
0.062484
0.0626675
0.0633502
0.0654789
0.0722085
0.0969632
0.22502
1.0418
2.25414
1.56301
1.39653
1.32199
1.24519
1.18852
1.14382
1.0988
1.05229
0.996332
0.929475
0.851866
0.794835
0.716404
0.70248
0.0903042
0.0625952
0.0624181
0.0625736
0.0631491
0.0649253
0.0704092
0.0898179
0.184187
0.773157
2.28336
1.60506
1.40228
1.32528
1.24679
1.18884
1.14344
1.09934
1.05199
0.996726
0.93112
0.846592
0.786852
0.706307
0.681392
0.0903064
0.0626251
0.062357
0.0624847
0.0629566
0.0644129
0.0688137
0.0837639
0.15027
0.540341
2.21443
1.69263
1.41118
1.32793
1.25001
1.18986
1.14311
1.099
1.05087
0.994046
0.930272
0.845565
0.774748
0.692086
0.651389
0.0903062
0.0626525
0.0622998
0.0624037
0.0627835
0.0639506
0.0674207
0.0787953
0.125386
0.386932
1.90976
1.84103
1.42485
1.32983
1.25345
1.19261
1.14335
1.09764
1.04763
0.991144
0.928826
0.843903
0.762369
0.669173
0.603632
0.0902739
0.0625606
0.0626204
0.0629907
0.0642212
0.0679979
0.0806109
0.13366
0.435056
2.00194
1.85943
1.49537
1.38535
1.30557
1.23815
1.18816
1.13924
1.08826
1.03745
0.977552
0.913181
0.853905
0.802169
0.750758
0.739216
0.0902748
0.0625554
0.0626132
0.0629759
0.0641793
0.0678686
0.0801464
0.131435
0.422053
1.97047
1.87647
1.49947
1.38805
1.30829
1.2409
1.19038
1.14174
1.09125
1.04082
0.980883
0.915964
0.855806
0.803477
0.751094
0.739406
0.0902776
0.0625446
0.0625983
0.0629438
0.0640858
0.0675766
0.0791134
0.126511
0.393154
1.89753
1.9144
1.50344
1.38863
1.30931
1.24196
1.19062
1.14252
1.09285
1.04314
0.983531
0.917921
0.856214
0.803133
0.749131
0.737329
0.0902826
0.0625315
0.0625808
0.062902
0.0639523
0.0671594
0.0776809
0.119864
0.352737
1.77148
1.97696
1.51085
1.38974
1.31132
1.24316
1.19059
1.14317
1.09454
1.0457
0.986641
0.920208
0.856348
0.802163
0.744722
0.732612
0.0902895
0.0625224
0.0625663
0.0628496
0.0637735
0.0666323
0.07597
0.112393
0.308942
1.58097
2.06313
1.52204
1.39118
1.31458
1.24353
1.19004
1.14365
1.09613
1.04838
0.990073
0.922945
0.856259
0.800402
0.737989
0.725461
0.0902954
0.0625292
0.062545
0.0627668
0.0635586
0.0660574
0.0741195
0.104683
0.267026
1.32519
2.16935
1.53851
1.39321
1.31825
1.24422
1.18894
1.14391
1.09757
1.05074
0.993447
0.926076
0.855319
0.797829
0.72854
0.716069
0.0903001
0.0625617
0.0624842
0.0626676
0.0633505
0.0654795
0.0722099
0.0969675
0.225039
1.04191
2.25406
1.56303
1.39658
1.32203
1.24522
1.18853
1.14383
1.0988
1.05228
0.996302
0.929437
0.851834
0.794794
0.716376
0.702455
0.0903042
0.0625951
0.0624183
0.0625738
0.0631494
0.064926
0.0704109
0.089823
0.184211
0.773227
2.28321
1.60507
1.40232
1.32529
1.24684
1.18886
1.14346
1.09934
1.05198
0.996697
0.931084
0.84655
0.786812
0.706269
0.681363
0.0903064
0.062625
0.0623571
0.0624848
0.0629568
0.0644134
0.0688147
0.0837669
0.150283
0.540405
2.21431
1.69265
1.41125
1.32796
1.25006
1.18989
1.14313
1.099
1.05085
0.994019
0.930234
0.845517
0.774704
0.692045
0.651355
0.0903062
0.0626524
0.0622999
0.0624039
0.0627837
0.0639509
0.0674213
0.0787969
0.125391
0.386957
1.9098
1.84106
1.42493
1.32987
1.25349
1.19266
1.14338
1.09765
1.04762
0.991115
0.928792
0.843855
0.762319
0.669129
0.603596
0.0902739
0.0625607
0.0626205
0.062991
0.0642218
0.068
0.0806189
0.133701
0.435321
2.00259
1.85901
1.49516
1.38533
1.30557
1.2382
1.1882
1.13927
1.08829
1.03746
0.977526
0.913141
0.853867
0.802134
0.750733
0.73919
0.0902748
0.0625556
0.0626133
0.0629761
0.0641799
0.0678702
0.0801521
0.131462
0.422207
1.97115
1.87619
1.49931
1.38807
1.3083
1.24096
1.19044
1.14178
1.09127
1.04082
0.980856
0.915925
0.855768
0.803442
0.751069
0.739382
0.0902776
0.0625448
0.0625985
0.0629442
0.0640869
0.0675799
0.0791254
0.126566
0.393507
1.89816
1.91391
1.50347
1.38868
1.3094
1.24202
1.19069
1.14256
1.09286
1.04313
0.983502
0.917882
0.856177
0.803099
0.749107
0.737307
0.0902825
0.0625316
0.0625809
0.0629023
0.0639533
0.0671623
0.0776898
0.119902
0.352954
1.77222
1.97642
1.51087
1.38977
1.31133
1.24321
1.19065
1.14321
1.09455
1.04568
0.986612
0.92017
0.856312
0.802131
0.744701
0.732593
0.0902893
0.0625224
0.0625663
0.06285
0.0637748
0.0666354
0.0759791
0.112429
0.309122
1.5818
2.06247
1.52217
1.39127
1.31462
1.24361
1.19011
1.14369
1.09613
1.04837
0.990047
0.92291
0.856224
0.800373
0.737971
0.725446
0.0902954
0.0625291
0.0625451
0.0627672
0.0635593
0.0660591
0.0741248
0.104705
0.267136
1.32584
2.16866
1.53854
1.39326
1.31826
1.24428
1.18901
1.14394
1.09758
1.05073
0.993426
0.926046
0.855287
0.797804
0.728527
0.716058
0.0903001
0.0625616
0.0624843
0.0626678
0.0633508
0.06548
0.0722115
0.0969739
0.225074
1.04214
2.25373
1.56299
1.39657
1.32203
1.24525
1.18858
1.14386
1.0988
1.05228
0.996289
0.92941
0.851808
0.794771
0.716367
0.70245
0.0903042
0.0625951
0.0624182
0.0625737
0.0631493
0.0649258
0.0704105
0.0898222
0.184209
0.773258
2.2832
1.60503
1.40229
1.32532
1.24685
1.1889
1.14347
1.09935
1.05198
0.996691
0.931065
0.846525
0.786796
0.706265
0.681363
0.0903064
0.062625
0.0623571
0.0624848
0.0629568
0.0644132
0.0688142
0.0837651
0.150275
0.540368
2.21446
1.69259
1.41118
1.32797
1.25006
1.18991
1.14314
1.09901
1.05087
0.994013
0.930214
0.845496
0.774696
0.692045
0.651359
0.0903062
0.0626524
0.0622998
0.0624038
0.0627836
0.0639507
0.0674208
0.0787953
0.125385
0.386929
1.90985
1.84101
1.42482
1.32986
1.2535
1.19265
1.14338
1.09766
1.04763
0.991113
0.928774
0.843836
0.762311
0.669131
0.603601
0.0902736
0.0625603
0.06262
0.0629902
0.0642199
0.0679943
0.0805984
0.1336
0.434724
2.00125
1.86002
1.4955
1.38542
1.30566
1.23823
1.18823
1.13929
1.08831
1.0375
0.977569
0.913185
0.853911
0.802187
0.7508
0.739277
0.0902746
0.0625552
0.0626129
0.0629754
0.064178
0.0678649
0.0801336
0.131375
0.421723
1.96982
1.8771
1.49957
1.38815
1.3084
1.241
1.19046
1.1418
1.0913
1.04086
0.980901
0.91597
0.855814
0.803496
0.751133
0.73946
0.0902774
0.0625443
0.062598
0.0629433
0.0640846
0.067573
0.0791007
0.126448
0.392778
1.8968
1.91518
1.50352
1.38875
1.30939
1.24207
1.19071
1.14259
1.09289
1.04317
0.983541
0.917921
0.856217
0.80315
0.749169
0.737375
0.0902823
0.0625313
0.0625806
0.0629017
0.0639519
0.0671583
0.0776767
0.119842
0.352593
1.7708
1.97725
1.51102
1.38979
1.31139
1.24325
1.19068
1.14324
1.09458
1.04571
0.98664
0.920197
0.856346
0.802175
0.744758
0.73265
0.0902891
0.0625222
0.0625661
0.0628495
0.0637736
0.0666324
0.0759699
0.112391
0.308922
1.58076
2.06295
1.52229
1.39125
1.31467
1.24365
1.19014
1.14372
1.09617
1.0484
0.990061
0.922925
0.856249
0.800408
0.738019
0.725505
0.0902951
0.062529
0.0625448
0.0627667
0.0635583
0.0660566
0.0741169
0.104673
0.266973
1.32485
2.1692
1.5386
1.39324
1.31827
1.2443
1.18904
1.14398
1.09762
1.05076
0.993432
0.92605
0.855298
0.797827
0.728562
0.716105
0.0902997
0.0625613
0.062484
0.0626674
0.0633501
0.0654784
0.0722064
0.0969536
0.224964
1.0414
2.25445
1.56302
1.39654
1.32206
1.24526
1.1886
1.1439
1.09886
1.0523
0.996289
0.929399
0.851808
0.794777
0.716385
0.702485
0.0903039
0.0625947
0.0624182
0.0625737
0.0631493
0.0649255
0.0704091
0.0898157
0.184169
0.773049
2.2836
1.60509
1.40233
1.32538
1.24689
1.18893
1.14352
1.09941
1.05201
0.996684
0.931048
0.846497
0.786795
0.706267
0.681384
0.090306
0.0626246
0.0623571
0.0624849
0.062957
0.0644135
0.0688148
0.0837662
0.150277
0.540381
2.21453
1.69251
1.41121
1.32802
1.25009
1.18996
1.14321
1.09907
1.0509
0.994013
0.930188
0.845452
0.77468
0.692037
0.651363
0.0903058
0.062652
0.0622999
0.0624039
0.062784
0.0639515
0.0674225
0.0787997
0.125402
0.387012
1.90981
1.84082
1.42484
1.32989
1.25353
1.19271
1.14346
1.09773
1.04768
0.991101
0.928749
0.84379
0.762283
0.669112
0.603597
0.0903047
0.0626733
0.0622517
0.0623349
0.0626372
0.0635479
0.0662237
0.0747353
0.107285
0.283389
1.43987
2.01022
1.45066
1.33244
1.26056
1.19671
1.14391
1.09453
1.04346
0.988277
0.927011
0.840044
0.747521
0.632276
0.491884
0.0903042
0.0626901
0.0622127
0.0622796
0.0625163
0.0632167
0.0652378
0.0714328
0.0938027
0.208179
0.935937
2.14704
1.50025
1.33734
1.26782
1.19991
1.14434
1.08821
1.04036
0.985642
0.923317
0.835086
0.734219
0.601409
0.455701
0.0903035
0.0627022
0.0621829
0.0622362
0.0624205
0.0629536
0.0644639
0.0689298
0.0840938
0.152923
0.560774
2.16281
1.60971
1.34675
1.27217
1.20242
1.14588
1.08425
1.04049
0.985685
0.920626
0.833784
0.731323
0.5995
0.460408
0.0903028
0.0627091
0.0621628
0.0622056
0.0623482
0.0627521
0.0638675
0.0670743
0.0774084
0.119
0.35562
1.8923
1.79933
1.36171
1.27365
1.20621
1.14923
1.08465
1.04181
0.986796
0.921075
0.834886
0.733011
0.604668
0.475916
0.0903025
0.0627116
0.0621524
0.0621873
0.0622979
0.0626058
0.0634184
0.065711
0.0727237
0.0984213
0.234545
1.14615
1.94599
1.39768
1.27332
1.20961
1.15024
1.08803
1.04626
0.990432
0.923697
0.83954
0.740524
0.620578
0.508992
0.0903024
0.0627124
0.0621483
0.0621779
0.0622654
0.0625024
0.0630962
0.0647372
0.0694982
0.0857036
0.160612
0.6053
1.98114
1.49639
1.27798
1.20999
1.15398
1.09596
1.05653
0.99865
0.931038
0.851075
0.758781
0.654601
0.55605
0.0903024
0.0627131
0.0621461
0.0621729
0.0622471
0.0624324
0.0628806
0.0640458
0.0672822
0.0775946
0.119362
0.36146
1.8173
1.67498
1.28953
1.2072
1.16091
1.11102
1.07079
1.01146
0.946429
0.874058
0.792745
0.700139
0.605343
0.0903023
0.0627133
0.0621457
0.0621722
0.0622427
0.0624028
0.0627555
0.0635854
0.0658004
0.0722743
0.0954297
0.217513
1.09341
1.75186
1.31835
1.20324
1.1708
1.13134
1.09088
1.03112
0.967529
0.899746
0.827371
0.742459
0.652613
0.0903023
0.0627133
0.062146
0.0621727
0.0622442
0.0624056
0.0626844
0.0632902
0.064825
0.0690058
0.0825386
0.140948
0.486153
1.70807
1.43372
1.20243
1.17712
1.15328
1.11477
1.05611
0.991094
0.926694
0.859734
0.781587
0.69751
0.0903023
0.0627132
0.0621462
0.0621731
0.0622443
0.0624077
0.0626811
0.0631571
0.0642401
0.0669729
0.0749582
0.104413
0.26615
1.34058
1.53124
1.21394
1.18633
1.17281
1.14334
1.08172
1.01912
0.955621
0.889894
0.819338
0.740533
0.0903024
0.0627133
0.0621461
0.0621729
0.0622442
0.06241
0.0626676
0.0631505
0.0639133
0.0656805
0.0704627
0.0859448
0.154635
0.58334
1.47778
1.30713
1.2011
1.19307
1.17141
1.11662
1.05617
0.990057
0.923083
0.855901
0.782807
0.0903024
0.0627134
0.0621457
0.0621724
0.0622429
0.0624077
0.0626688
0.0631224
0.0638019
0.0650413
0.0680199
0.0764953
0.106057
0.261092
1.0984
1.33046
1.24083
1.23181
1.20672
1.15407
1.09384
1.02854
0.96086
0.8932
0.825653
0.0903023
0.0627134
0.0621455
0.0621721
0.0622419
0.0624049
0.0626793
0.0630988
0.0638439
0.0647662
0.0667517
0.0717143
0.0862116
0.14385
0.464357
1.20565
1.26369
1.26104
1.24592
1.20459
1.1336
1.06675
0.999896
0.932156
0.865211
0.0903024
0.0627134
0.0621456
0.0621721
0.0622418
0.0624045
0.0626809
0.063096
0.0638437
0.0647802
0.0662683
0.0694471
0.0773415
0.100875
0.200913
0.669503
1.19206
1.26443
1.26399
1.24223
1.18702
1.1104
1.04212
0.974074
0.906284
0.0903023
0.0627134
0.0621455
0.062172
0.0622418
0.0624044
0.0626806
0.0630986
0.0638319
0.0648184
0.066175
0.0689989
0.0737691
0.0854717
0.121652
0.265512
0.783436
1.20157
1.26557
1.25676
1.22522
1.1647
1.08496
1.01566
0.948566
0.0903023
0.0627134
0.0621455
0.062172
0.0622418
0.0624044
0.0626805
0.063099
0.0638305
0.0648203
0.0661694
0.0690013
0.0730248
0.0802692
0.0976181
0.147549
0.322559
0.841308
1.20726
1.25396
1.23759
1.20167
1.13532
1.05944
0.992636
0.0903023
0.0627134
0.0621455
0.062172
0.0622417
0.0624043
0.0626805
0.0630988
0.0638306
0.0648192
0.0661637
0.0689777
0.073094
0.0795393
0.0919654
0.118778
0.183067
0.366246
0.871813
1.18726
1.22849
1.20844
1.16973
1.09958
1.03514
0.0903023
0.0627134
0.0621455
0.062172
0.0622418
0.0624044
0.0626807
0.0630988
0.0638311
0.0648192
0.0661636
0.068978
0.0730626
0.0796159
0.0919801
0.117932
0.155498
0.221564
0.392042
0.840601
1.14234
1.1899
1.16868
1.13195
1.06396
0.0903024
0.0627134
0.0621456
0.0621721
0.0622418
0.0624045
0.0626804
0.0630984
0.0638309
0.0648182
0.0661625
0.0689763
0.0730563
0.0796198
0.0919921
0.117907
0.154581
0.199307
0.254896
0.391719
0.748839
1.07632
1.1334
1.1218
1.08613
0.0903023
0.0627134
0.0621455
0.062172
0.0622418
0.0624044
0.0626808
0.0630989
0.0638312
0.0648191
0.0661636
0.0689785
0.073056
0.0796251
0.0919896
0.117817
0.155011
0.197164
0.232789
0.274797
0.37321
0.624896
0.972765
1.0643
1.06704
0.0903023
0.0627134
0.0621455
0.062172
0.0622417
0.0624043
0.0626805
0.0630987
0.0638309
0.0648186
0.0661628
0.0689775
0.0730547
0.0796203
0.0919799
0.117797
0.154997
0.197
0.231553
0.255092
0.282913
0.345901
0.49927
0.80676
0.983436
0.0903023
0.0627134
0.0621456
0.0621721
0.0622418
0.0624045
0.0626809
0.063099
0.0638313
0.0648193
0.0661637
0.0689783
0.0730559
0.0796257
0.091985
0.117796
0.15503
0.19698
0.231512
0.254168
0.26655
0.28315
0.321112
0.410612
0.625322
0.0903023
0.0627134
0.0621455
0.062172
0.0622417
0.0624043
0.0626805
0.0630987
0.0638308
0.0648185
0.0661626
0.0689772
0.0730543
0.0796195
0.0919781
0.117791
0.155007
0.196955
0.231489
0.254129
0.265212
0.273469
0.282759
0.303188
0.351032
0.0903023
0.0627134
0.0621456
0.0621721
0.0622419
0.0624045
0.0626809
0.0630991
0.0638314
0.0648194
0.0661639
0.0689786
0.0730563
0.079626
0.0919866
0.117799
0.155035
0.196966
0.23147
0.254105
0.265031
0.272616
0.276731
0.281008
0.291028
0.0903024
0.0627134
0.0621455
0.062172
0.0622418
0.0624044
0.0626804
0.0630983
0.0638307
0.064818
0.0661623
0.0689761
0.0730536
0.0796224
0.0919791
0.117782
0.15501
0.196933
0.231434
0.254085
0.26499
0.272539
0.276296
0.277723
0.280883
0.0903023
0.0627134
0.0621456
0.0621721
0.0622418
0.0624044
0.0626809
0.063099
0.0638313
0.0648193
0.0661638
0.0689785
0.073056
0.0796257
0.0919869
0.117799
0.155041
0.196972
0.23147
0.254095
0.264998
0.272533
0.276214
0.277525
0.279233
0.0903023
0.0627134
0.0621455
0.062172
0.0622417
0.0624043
0.0626805
0.0630986
0.0638308
0.0648184
0.0661625
0.0689769
0.0730537
0.0796181
0.0919765
0.117789
0.155008
0.196955
0.231482
0.254106
0.265009
0.272552
0.276218
0.277539
0.279032
0.0903023
0.0627134
0.0621455
0.062172
0.0622418
0.0624044
0.0626808
0.0630988
0.0638311
0.064819
0.0661634
0.068978
0.0730548
0.0796246
0.0919848
0.117796
0.155033
0.196972
0.231482
0.254118
0.265027
0.272559
0.27623
0.277542
0.278997
0.0903023
0.0627134
0.0621455
0.062172
0.0622417
0.0624043
0.0626805
0.0630986
0.0638308
0.0648184
0.0661624
0.068977
0.0730537
0.0796184
0.0919766
0.117789
0.155002
0.196946
0.231479
0.254113
0.265025
0.272572
0.276238
0.27756
0.279009
0.0903023
0.0627134
0.0621455
0.062172
0.0622418
0.0624044
0.0626806
0.0630987
0.0638309
0.0648186
0.0661629
0.0689778
0.0730546
0.0796232
0.0919841
0.117797
0.155027
0.196959
0.231468
0.254103
0.265015
0.272553
0.276224
0.277541
0.278994
0.0903024
0.0627134
0.0621455
0.062172
0.0622417
0.0624044
0.0626802
0.0630981
0.0638305
0.0648177
0.0661618
0.0689756
0.0730527
0.0796192
0.0919758
0.117781
0.155006
0.196938
0.231442