/*--------------------------------*- C++ -*----------------------------------*\
| =========                 |                                                 |
| \\      /  F ield         | OpenFOAM: The Open Source CFD Toolbox           |
|  \\    /   O peration     | Version:  4.1                                   |
|   \\  /    A nd           | Web:      www.OpenFOAM.org                      |
|    \\/     M anipulation  |                                                 |
\*---------------------------------------------------------------------------*/
FoamFile
{
    version     2.0;
    format      ascii;
    class       surfaceScalarField;
    location    "0.44";
    object      phi;
}
// * * * * * * * * * * * * * * * * * * * * * * * * * * * * * * * * * * * * * //

dimensions      [1 0 -1 0 0 0 0];

internalField   nonuniform List<scalar> 
150500
(
0.00202843
-2.74156e-09
-1.16541e-12
0.002027
3.7257e-09
-1.65677e-12
0.00202474
1.43554e-08
-2.00509e-12
0.00201917
4.73096e-08
-3.32519e-12
0.00200354
1.40724e-07
-8.14662e-12
0.00195992
4.10245e-07
-2.44103e-11
0.00184333
1.38294e-06
-9.02911e-11
0.00156815
6.3286e-06
-4.60143e-10
0.000111147
4.79615e-05
-2.94751e-09
-0.00380048
0.000514951
-5.94579e-09
-0.00265246
0.000466899
5.14268e-09
-0.00237304
0.000361125
1.67248e-09
-0.00217458
0.00033498
4.75557e-10
-0.0017898
0.000307596
3.57168e-10
-0.00145245
0.000269879
1.9273e-10
-0.00119402
0.000258529
1.35739e-10
-0.000972824
0.000253501
1.99287e-10
-0.000748553
0.00025765
2.46778e-10
-0.000552378
0.000257203
3.83335e-10
-0.000413093
0.000256903
5.3512e-10
-0.000315841
0.000261566
5.59779e-10
-0.000239754
0.000265565
5.04233e-10
-0.000180017
0.000267768
4.56061e-10
-9.91701e-05
0.000278866
4.47003e-10
0.000286395
4.42829e-10
0.0020284
-6.12984e-09
-1.13294e-12
0.00202705
4.70793e-09
-1.47193e-12
0.00202493
2.88878e-08
-1.7553e-12
0.00201952
1.01825e-07
-2.84971e-12
0.00200409
3.00182e-07
-6.71579e-12
0.00196114
8.78914e-07
-1.94288e-11
0.00184647
2.95879e-06
-6.81714e-11
0.00157587
1.34208e-05
-3.29061e-10
0.000162552
9.82466e-05
-1.96592e-09
-0.00380773
0.00101386
-6.11361e-09
-0.00264942
0.000913176
3.72726e-09
-0.00236417
0.000719595
1.4942e-09
-0.00216607
0.000668508
2.25411e-10
-0.00178354
0.000614309
3.33267e-10
-0.00143933
0.000540235
1.05298e-10
-0.00117994
0.000516763
8.16806e-11
-0.000957182
0.000506952
1.70513e-10
-0.000732497
0.000515889
2.69855e-10
-0.000535726
0.000514967
3.78022e-10
-0.000397598
0.000514958
4.94637e-10
-0.000302891
0.000524414
5.23367e-10
-0.000229869
0.000532706
4.85193e-10
-0.000173703
0.000537273
4.4473e-10
-9.5169e-05
0.000557622
4.32202e-10
0.000574431
4.25086e-10
0.00202834
-9.36e-09
-9.55922e-13
0.00202722
-2.63222e-09
-1.62913e-12
0.0020254
3.48143e-08
-1.89975e-12
0.00202029
1.49645e-07
-3.18325e-12
0.00200534
4.38218e-07
-8.32381e-12
0.00196399
1.24742e-06
-2.45471e-11
0.00185422
4.1065e-06
-8.68319e-11
0.00159795
1.81083e-05
-4.17567e-10
0.000294944
0.000127688
-2.72959e-09
-0.0037462
0.00141273
-5.74156e-09
-0.00263142
0.00143203
4.01445e-09
-0.00234268
0.00107938
4.91963e-10
-0.00214325
0.00100027
1.13239e-10
-0.00176816
0.000921242
-6.91275e-11
-0.00141652
0.0008155
7.73818e-11
-0.00115622
0.000774513
5.23154e-11
-0.000929732
0.000759534
1.66296e-10
-0.000704262
0.000774503
2.98596e-10
-0.00050693
0.000774104
3.78711e-10
-0.000369262
0.00077371
4.27544e-10
-0.000277624
0.000787972
4.45527e-10
-0.000209999
0.000801861
4.28071e-10
-0.000159638
0.000809153
4.16891e-10
-8.70872e-05
0.000838214
4.09827e-10
0.000865418
4.01835e-10
0.00202826
-1.0827e-08
-8.47992e-13
0.00202758
-2.24728e-08
-1.09381e-12
0.00202618
4.17314e-08
-1.23462e-12
0.00202118
2.04111e-07
-2.48057e-12
0.0020066
5.55813e-07
-7.09102e-12
0.00196739
1.5159e-06
-2.00678e-11
0.00186447
4.89166e-06
-6.37291e-11
0.00163058
2.09153e-05
-2.8295e-10
0.000558055
0.000140089
-1.76405e-09
-0.00374368
0.00168233
-6.38639e-09
-0.00260499
0.00201771
4.02031e-09
-0.00230515
0.00144393
4.95769e-10
-0.0021101
0.00133462
9.86169e-11
-0.00174405
0.00123289
2.5022e-10
-0.00138438
0.00109486
8.69794e-11
-0.00112173
0.00103227
3.67955e-11
-0.000889272
0.00101262
1.80435e-10
-0.000662132
0.00103319
3.18221e-10
-0.000463255
0.00103505
3.49719e-10
-0.0003251
0.00103391
3.36743e-10
-0.000237256
0.00105262
3.47725e-10
-0.000175563
0.00107385
3.70064e-10
-0.00013324
0.00108327
3.61679e-10
-7.14063e-05
0.00112143
3.60827e-10
0.00116271
3.64784e-10
0.00202818
-9.32336e-09
-7.26319e-13
0.00202843
-5.07667e-08
-6.86357e-13
0.00202698
6.7984e-08
-9.45413e-13
0.00202124
2.58446e-07
-2.66406e-12
0.00200728
6.19169e-07
-7.54521e-12
0.00197177
1.6401e-06
-1.9865e-11
0.00187676
5.25587e-06
-6.11121e-11
0.00166735
2.17739e-05
-2.54442e-10
0.000869421
0.00013933
-1.37533e-09
-0.00348727
0.00174066
-6.74166e-09
-0.0025802
0.00269711
4.56219e-09
-0.0022627
0.00181152
-1.73451e-10
-0.00207165
0.00167084
-1.66809e-10
-0.00171832
0.0015496
1.55583e-10
-0.0013473
0.001382
3.45209e-11
-0.00107862
0.00128744
5.14887e-11
-0.00083752
0.00126625
2.20525e-10
-0.000607823
0.00129055
3.19917e-10
-0.000405464
0.00129793
3.00479e-10
-0.00026535
0.00129514
2.37113e-10
-0.000179949
0.00131778
2.38768e-10
-0.000126067
0.00134838
2.94062e-10
-9.55575e-05
0.00135866
2.98628e-10
-4.77289e-05
0.00140916
2.99433e-10
0.0014681
3.24506e-10
0.00202821
-8.8127e-09
-1.3186e-12
0.00202975
-7.11336e-08
-7.01948e-13
0.00202646
9.90553e-08
-1.32643e-12
0.00202044
2.74568e-07
-2.33797e-12
0.0020092
6.26115e-07
-4.51577e-12
0.00197879
1.6622e-06
-1.26919e-11
0.00189192
5.2773e-06
-4.27584e-11
0.00170247
2.12166e-05
-1.81492e-10
0.00107214
0.00013149
-9.79299e-10
-0.00279901
0.00157825
-6.10454e-09
-0.0025567
0.00346713
4.81845e-09
-0.00221521
0.00219194
1.53554e-10
-0.00202095
0.00200927
-3.4381e-11
-0.001688
0.00187037
2.29848e-10
-0.00130409
0.00167857
1.28938e-10
-0.00102552
0.0015411
3.22827e-11
-0.000775887
0.00152037
2.90243e-10
-0.000541878
0.00154526
3.94557e-10
-0.000334399
0.00156298
2.63145e-10
-0.000189881
0.00155813
1.53474e-10
-0.000105681
0.00158207
1.40952e-10
-6.07966e-05
0.00162667
1.75651e-10
-4.63967e-05
0.00163392
1.97503e-10
-1.34318e-05
0.00169837
2.22439e-10
0.0017831
2.73762e-10
0.00202838
-7.7457e-09
-1.76049e-12
0.0020298
-6.81024e-08
-1.6625e-12
0.00202634
1.00388e-07
-5.36564e-13
0.00202176
2.66795e-07
-7.19317e-13
0.00201246
6.03153e-07
-1.52143e-12
0.00198669
1.59202e-06
-4.87267e-12
0.00191107
4.94274e-06
-1.77788e-11
0.00173794
1.91495e-05
-7.80944e-11
0.00118529
0.000112972
-4.64395e-10
-0.00190428
0.00123399
-3.25419e-09
-0.00254586
0.00427705
3.00312e-09
-0.00216075
0.00260694
4.59478e-10
-0.00195916
0.00235318
2.12787e-10
-0.00165407
0.00219486
3.78674e-10
-0.00125892
0.00198505
3.35368e-10
-0.00096225
0.00179518
3.03408e-10
-0.000703883
0.00177206
3.12675e-10
-0.000464266
0.00179482
3.57498e-10
-0.000250381
0.00182924
2.34191e-10
-9.84235e-05
0.00182387
1.08708e-10
-1.56526e-05
0.00184576
3.48661e-11
3.09782e-05
0.0019073
6.18028e-11
1.52776e-05
0.00191735
9.49316e-11
2.66306e-05
0.00197919
1.26208e-10
0.00212761
2.06803e-10
0.00202857
-3.54817e-09
-1.59146e-12
0.00202954
-5.80198e-08
-1.86441e-12
0.0020268
9.73635e-08
3.25542e-13
0.00202313
2.48209e-07
3.83285e-13
0.0020156
5.58283e-07
4.9695e-13
0.0019943
1.46088e-06
-7.31512e-14
0.00193232
4.44451e-06
-3.12603e-12
0.00177775
1.64281e-05
-2.14452e-11
0.0013441
8.84757e-05
-1.60222e-10
-0.00121484
0.000842438
-9.62487e-10
-0.00260763
0.00502505
1.42803e-10
-0.00210978
0.00309462
3.22037e-10
-0.00188778
0.00270113
3.21219e-10
-0.00161257
0.00252185
2.88091e-10
-0.0012088
0.00230265
4.88873e-10
-0.000890926
0.00205632
3.52711e-10
-0.000619335
0.00201926
4.41507e-10
-0.000374688
0.00203967
3.39378e-10
-0.000152989
0.00209664
2.43355e-10
5.46974e-06
0.00210512
6.20435e-11
0.000106525
0.00212043
-4.63921e-11
0.000135615
0.00217454
-9.52829e-11
0.000125957
0.00220708
2.21001e-11
8.28973e-05
0.00226021
1.89899e-11
0.00250216
1.19401e-10
0.00202873
3.12802e-10
-1.59467e-12
0.0020293
-4.91957e-08
-2.15457e-12
0.00202726
9.11521e-08
3.97818e-13
0.00202434
2.20566e-07
6.52109e-13
0.00201852
4.90637e-07
1.3728e-12
0.00200128
1.28602e-06
1.70163e-12
0.0019509
3.86014e-06
1.80595e-12
0.00181941
1.36682e-05
-2.71193e-12
0.00150284
6.64327e-05
-4.61137e-11
-0.000160725
0.000531048
-4.42523e-10
-0.00286052
0.00496725
-1.52163e-09
-0.00204686
0.00382755
5.86729e-10
-0.00180962
0.00305407
4.86067e-10
-0.00156405
0.00285013
2.9254e-10
-0.00115767
0.00262638
4.77164e-10
-0.000813504
0.00233358
4.45678e-10
-0.000525436
0.00225975
5.30875e-10
-0.000273519
0.0022804
3.74331e-10
-4.10879e-05
0.00235264
2.52689e-10
0.000144919
0.00237115
7.78702e-11
0.000257983
0.00237157
-6.69016e-11
0.000278421
0.0024245
-2.06703e-10
0.000258648
0.00248089
-1.14369e-10
0.000183678
0.00255252
-6.47727e-11
0.00294335
3.41927e-12
0.00202882
-1.44861e-12
1.98345e-09
0.00202908
-2.12595e-12
-3.66362e-08
0.00202768
5.92558e-13
7.51131e-08
0.00202556
8.75574e-13
1.81159e-07
0.00202121
1.70096e-12
4.06884e-07
0.00200756
2.66927e-12
1.08526e-06
0.00196709
4.17999e-12
3.24673e-06
0.00185678
4.52093e-12
1.11297e-05
0.0016055
-6.28815e-12
4.91784e-05
0.000510676
-1.89142e-10
0.000347034
-0.00267234
-1.69405e-09
0.00408778
-0.00200749
5.6028e-10
0.00475603
-0.00172449
6.22289e-10
0.00340945
-0.00150207
4.08635e-10
0.00318478
-0.00110795
5.76207e-10
0.00294849
-0.000730698
7.18773e-10
0.00265108
-0.000424775
6.09987e-10
0.00249589
-0.000159019
4.51956e-10
0.00251346
8.91542e-05
3.18942e-10
0.00259822
0.000299376
6.01523e-11
0.00261785
0.000430595
-5.50275e-11
0.00262066
0.000467103
-2.50524e-10
0.00265848
0.000440712
-2.28176e-10
0.00273507
0.000360648
-1.67966e-10
0.00282353
-6.48557e-11
0.00352552
0.00202843
-2.69253e-09
5.04588e-14
0.002027
3.85637e-09
5.2885e-13
0.00202473
1.45882e-08
6.51954e-13
0.00201915
4.7737e-08
1.05086e-12
0.00200351
1.41768e-07
2.75288e-12
0.00195985
4.1294e-07
8.74058e-12
0.00184314
1.39307e-06
3.43435e-11
0.00156769
6.38991e-06
1.84151e-10
0.000108286
4.86116e-05
1.25769e-09
-0.00379958
0.00051746
3.14105e-09
-0.00265089
0.000465149
-1.9375e-09
-0.00237144
0.000360882
-1.01174e-09
-0.00217341
0.0003351
-7.64323e-11
-0.00178909
0.000307893
2.18762e-11
-0.00145218
0.000270113
2.54477e-10
-0.00119394
0.000258653
2.79117e-10
-0.000972844
0.000253521
1.94283e-10
-0.000748607
0.000257591
1.458e-10
-0.000552485
0.000257066
3.7078e-11
-0.000413228
0.000256764
-1.23621e-10
-0.00031595
0.000261457
-1.89328e-10
-0.000239818
0.000265478
-1.78411e-10
-0.000180043
0.000267689
-1.63943e-10
-9.91629e-05
0.00027879
-1.21311e-10
0.00028634
-1.18316e-10
0.0020284
-6.06989e-09
-2.67823e-15
0.00202705
4.93312e-09
4.71638e-13
0.00202493
2.90056e-08
5.72139e-13
0.00201951
1.0166e-07
9.0175e-13
0.00200407
2.99437e-07
2.24498e-12
0.0019611
8.76556e-07
6.73297e-12
0.00184638
2.94978e-06
2.42587e-11
0.00157564
1.33759e-05
1.18763e-10
0.000161827
9.77612e-05
7.27566e-10
-0.00380039
0.00101206
3.2429e-09
-0.00264377
0.000915149
-1.26633e-09
-0.00236109
0.000719814
-7.41299e-10
-0.00216413
0.000669348
1.30507e-10
-0.00178264
0.000615385
3.23517e-11
-0.00143892
0.000541194
3.51381e-10
-0.00117983
0.000517124
3.46685e-10
-0.000957246
0.000507014
2.4401e-10
-0.000732599
0.00051577
9.81222e-11
-0.000535854
0.00051471
1.42323e-11
-0.000397738
0.00051469
-1.25455e-10
-0.00030301
0.000524196
-1.85039e-10
-0.000229944
0.000532526
-1.75487e-10
-0.00017373
0.000537098
-1.60726e-10
-9.51421e-05
0.000557444
-1.17407e-10
0.000574341
-1.13537e-10
0.00202835
-9.16556e-09
-1.43124e-13
0.00202721
-2.22441e-09
8.0809e-13
0.00202539
3.55209e-08
9.26973e-13
0.00202027
1.50779e-07
1.56145e-12
0.00200532
4.40403e-07
4.7995e-12
0.00196394
1.2523e-06
1.47821e-11
0.00185404
4.12093e-06
5.32437e-11
0.00159742
1.81736e-05
2.52666e-10
0.000292069
0.000128291
1.76022e-09
-0.00374917
0.00141582
2.9558e-09
-0.00263395
0.00143134
-2.2794e-09
-0.00234469
0.0010796
8.28587e-11
-0.00214454
0.00100048
2.52153e-10
-0.00176864
0.000921792
4.99044e-10
-0.00141713
0.000815649
3.59209e-10
-0.00115664
0.000774548
3.68996e-10
-0.000930053
0.000759366
2.33586e-10
-0.000704481
0.000774169
6.41637e-11
-0.000507075
0.000773676
-3.08969e-11
-0.000369362
0.000773308
-1.34932e-10
-0.000277691
0.000787641
-1.8518e-10
-0.000210037
0.000801575
-1.79586e-10
-0.000159643
0.000808891
-1.59947e-10
-8.70619e-05
0.000837956
-1.11175e-10
0.000865288
-1.05273e-10
0.00202826
-1.07549e-08
-2.4584e-13
0.00202757
-2.21541e-08
3.27648e-13
0.00202617
4.2045e-08
3.4066e-13
0.00202118
2.04827e-07
1.07403e-12
0.0020066
5.57506e-07
4.41385e-12
0.00196737
1.51927e-06
1.29812e-11
0.00186439
4.89867e-06
3.95684e-11
0.00163032
2.0939e-05
1.68314e-10
0.000555768
0.000140275
1.03069e-09
-0.0037419
0.00168418
3.56793e-09
-0.00260571
0.0020192
-2.52138e-09
-0.00230723
0.0014446
7.38353e-11
-0.00211231
0.00133501
1.76383e-10
-0.00174577
0.001233
5.81798e-11
-0.0013855
0.00109461
3.04342e-10
-0.00112243
0.00103189
4.02409e-10
-0.000889735
0.00101208
2.39301e-10
-0.000662429
0.00103259
5.32029e-11
-0.000463401
0.00103443
-6.0338e-11
-0.000325157
0.00103338
-1.46227e-10
-0.000237272
0.00105218
-1.97855e-10
-0.000175569
0.00107348
-1.85814e-10
-0.000133221
0.00108294
-1.61212e-10
-7.13815e-05
0.00112111
-9.788e-11
0.00116251
-8.94242e-11
0.00202818
-9.34248e-09
-6.60667e-13
0.00202842
-5.09849e-08
-2.69061e-13
0.00202698
6.8424e-08
-8.8469e-15
0.00202125
2.60275e-07
1.48335e-12
0.00200727
6.23096e-07
5.76542e-12
0.00197173
1.64782e-06
1.42e-11
0.00187666
5.27463e-06
4.02135e-11
0.00166709
2.18399e-05
1.596e-10
0.000867507
0.000139724
8.34458e-10
-0.00348996
0.00174504
3.91985e-09
-0.00258312
0.00269869
-3.07034e-09
-0.00226611
0.0018126
7.47014e-10
-0.00207451
0.00167067
4.88082e-10
-0.00172028
0.0015484
2.74223e-10
-0.00134879
0.00138051
4.86979e-10
-0.00107952
0.00128632
4.56685e-10
-0.000838065
0.00126526
1.91183e-10
-0.000608143
0.00128968
3.53435e-11
-0.000405585
0.00129713
-5.81787e-11
-0.000265352
0.00129449
-1.47218e-10
-0.000179911
0.00131726
-2.0058e-10
-0.000126033
0.00134803
-1.91333e-10
-9.552e-05
0.00135831
-1.55314e-10
-4.77028e-05
0.00140882
-8.08269e-11
0.0014678
-7.02929e-11
0.00202821
-8.92829e-09
4.31034e-15
0.00202975
-7.16129e-08
-2.56433e-13
0.00202646
9.96541e-08
6.75167e-13
0.00202043
2.7636e-07
1.66305e-12
0.00200918
6.29768e-07
2.89113e-12
0.00197875
1.67012e-06
7.37978e-12
0.00189182
5.29813e-06
2.31413e-11
0.00170229
2.12933e-05
9.35953e-11
0.00107153
0.000131948
4.96571e-10
-0.00280106
0.00158338
3.02548e-09
-0.00255847
0.00346863
-3.208e-09
-0.00221727
0.00219303
1.26607e-10
-0.00202241
0.00200905
2.67698e-10
-0.00168898
0.00186879
5.55792e-11
-0.00130493
0.00167651
3.06947e-10
-0.00102613
0.00153943
4.44076e-10
-0.000776396
0.001519
1.27904e-10
-0.000542158
0.0015442
1.1114e-11
-0.000334463
0.00156205
-3.79741e-11
-0.000189817
0.00155739
-1.23279e-10
-0.000105588
0.00158148
-1.85386e-10
-6.07116e-05
0.00162634
-1.88546e-10
-4.63277e-05
0.00163358
-1.46788e-10
-1.33849e-05
0.00169801
-5.79967e-11
0.00178273
-4.87855e-11
0.00202838
-7.65707e-09
8.53973e-14
0.0020298
-6.80998e-08
-5.66304e-14
0.00202634
1.01004e-07
4.64821e-13
0.00202175
2.68223e-07
5.95355e-13
0.00201244
6.05886e-07
1.1151e-12
0.00198666
1.59738e-06
2.55721e-12
0.00191102
4.95575e-06
7.36526e-12
0.00173787
1.9192e-05
2.75649e-11
0.00118512
0.000113208
1.55508e-10
-0.00190438
0.00123646
1.04815e-09
-0.00254502
0.00427993
-1.60421e-09
-0.00216004
0.00260821
-2.07062e-10
-0.00195921
0.00235357
-6.43331e-11
-0.00165428
0.00219425
2.36123e-11
-0.00125916
0.00198386
1.09108e-10
-0.000962414
0.00179375
2.20168e-10
-0.000704058
0.00177079
9.71025e-11
-0.000464361
0.00179361
2.91322e-11
-0.000250334
0.00182829
1.4804e-12
-9.82896e-05
0.0018231
-7.93295e-11
-1.55056e-05
0.00184514
-1.66166e-10
3.11406e-05
0.00190693
-1.57464e-10
1.54039e-05
0.00191712
-1.31927e-10
2.66778e-05
0.00197885
-4.78667e-11
0.00212717
-2.19291e-11
0.00202857
-3.43503e-09
-4.40403e-14
0.00202954
-5.80226e-08
-5.10419e-15
0.0020268
9.77846e-08
-1.93082e-13
0.00202313
2.49226e-07
-2.24014e-13
0.00201559
5.60149e-07
-3.55684e-13
0.00199428
1.46398e-06
-6.52968e-13
0.0019323
4.45053e-06
-1.43194e-12
0.00177771
1.6444e-05
-4.43888e-12
0.00134407
8.85517e-05
-1.2539e-11
-0.00121408
0.000843147
1.10568e-10
-0.00260568
0.00502932
-8.21302e-11
-0.0021081
0.00309666
-1.54785e-10
-0.00188708
0.00270234
-1.24923e-10
-0.00161227
0.00252196
1.0356e-10
-0.00120884
0.00230213
5.66354e-11
-0.000890797
0.00205521
1.32862e-10
-0.000619233
0.00201805
4.35031e-11
-0.000374603
0.00203853
5.44738e-11
-0.000152852
0.00209576
2.71834e-11
5.59568e-06
0.00210443
-2.04267e-11
0.000106797
0.00211978
-6.91063e-11
0.000135822
0.00217418
-9.33025e-11
0.000126137
0.00220679
-6.89629e-11
8.29905e-05
0.00225992
-1.80074e-11
0.00250168
-1.34776e-12
0.00202873
5.08903e-10
3.37438e-14
0.0020293
-4.90957e-08
-2.05364e-14
0.00202726
9.1682e-08
-3.50861e-14
0.00202433
2.21585e-07
-5.37264e-14
0.00201851
4.92269e-07
-1.15086e-13
0.00200126
1.2885e-06
-6.44385e-13
0.00195088
3.86414e-06
-2.19491e-12
0.00181938
1.36761e-05
-8.73089e-12
0.00150275
6.64613e-05
-4.13224e-11
-0.000160898
0.000531301
-2.27493e-10
-0.00285937
0.00497197
7.05111e-10
-0.00204532
0.00382896
-2.51813e-10
-0.00180856
0.00305535
-3.05547e-10
-0.00156328
0.00285028
7.65333e-11
-0.00115722
0.00262593
-1.69162e-11
-0.000813134
0.00233259
9.47369e-11
-0.000525218
0.0022587
4.94134e-11
-0.00027331
0.00227937
6.26081e-11
-4.0879e-05
0.00235188
4.4081e-11
0.000145181
0.00237041
-2.78048e-11
0.000258315
0.00237098
-7.40231e-11
0.00027873
0.00242413
-8.8413e-11
0.000258894
0.00248065
-3.94411e-11
0.000183824
0.00255232
6.2003e-13
0.00294289
1.78813e-11
0.00202882
-1.50416e-13
2.11357e-09
0.00202908
-1.39366e-13
-3.64055e-08
0.00202769
-1.82909e-13
7.52222e-08
0.00202556
-2.25653e-13
1.81432e-07
0.00202119
-3.96277e-13
4.07334e-07
0.00200755
-8.82553e-13
1.08622e-06
0.00196708
-2.29068e-12
3.24849e-06
0.00185676
-7.27137e-12
1.11337e-05
0.00160545
-3.34741e-11
4.91916e-05
0.00051035
-1.6697e-10
0.000347145
-0.00267187
2.48305e-10
0.00408945
-0.00200607
-2.10114e-10
0.00475727
-0.00172332
-4.55845e-10
0.00341047
-0.00150121
-1.00252e-11
0.00318498
-0.00110733
3.36383e-11
0.00294827
-0.000730266
-3.10196e-11
0.00265049
-0.000424461
2.50916e-12
0.00249501
-0.000158748
5.97581e-11
0.00251255
8.94216e-05
5.02433e-11
0.00259749
0.000299706
-9.23271e-12
0.00261721
0.000430956
-6.74342e-11
0.00262015
0.000467488
-8.43828e-11
0.00265821
0.000441043
-3.59855e-11
0.00273488
0.000360844
9.0477e-12
0.00282343
2.32857e-11
0.00352514
0.00202843
-2.71977e-09
1.08311e-14
0.002027
3.8141e-09
1.15163e-13
0.00202473
1.45513e-08
1.16388e-13
0.00201916
4.77475e-08
2.10838e-15
0.00200352
1.41767e-07
-2.47167e-13
0.00195988
4.1279e-07
-1.10401e-12
0.00184323
1.39103e-06
-4.64071e-12
0.00156791
6.36784e-06
-2.71329e-11
0.000109583
4.83186e-05
-1.8524e-10
-0.00379989
0.000516768
-3.79165e-10
-0.00265316
0.000466362
3.21779e-10
-0.00237369
0.000361065
7.03074e-11
-0.0021752
0.00033488
-3.9816e-11
-0.00179024
0.000307327
-4.27397e-11
-0.00145291
0.000269587
-2.08373e-11
-0.00119432
0.000258285
-2.32135e-11
-0.000973003
0.000253299
-6.75164e-12
-0.000748636
0.000257469
-1.6898e-11
-0.000552397
0.000257049
-3.94601e-11
-0.000413064
0.000256791
-5.47376e-11
-0.000315785
0.000261492
-8.77398e-11
-0.00023969
0.000265514
-1.15064e-10
-0.000179957
0.000267726
-1.11358e-10
-9.91151e-05
0.000278821
-5.89382e-11
0.00028637
-4.85433e-11
0.0020284
-6.06499e-09
3.45639e-14
0.00202705
4.8438e-09
1.30137e-13
0.00202493
2.91812e-08
1.28314e-13
0.00201952
1.02423e-07
5.20334e-14
0.00200408
3.01405e-07
-1.29514e-13
0.0019611
8.81609e-07
-6.96248e-13
0.0018464
2.96601e-06
-2.95673e-12
0.0015757
1.34486e-05
-1.76001e-11
0.000161712
9.84026e-05
-1.19668e-10
-0.00380539
0.00101494
-4.27114e-10
-0.00264835
0.000913728
2.23526e-10
-0.00236387
0.000719584
5.87124e-11
-0.00216597
0.000668433
-5.49114e-11
-0.00178355
0.000614061
-3.92305e-11
-0.00143949
0.000539919
-3.09944e-11
-0.00118009
0.000516433
-2.96754e-11
-0.000957305
0.000506629
-1.35171e-11
-0.000732571
0.000515584
-1.56587e-11
-0.000535741
0.000514696
-4.07117e-11
-0.000397567
0.00051475
-5.74396e-11
-0.000302844
0.000524269
-8.86012e-11
-0.000229816
0.000532599
-1.15141e-10
-0.000173645
0.000537171
-1.15422e-10
-9.50954e-05
0.000557505
-6.11876e-11
0.000574399
-5.07066e-11
0.00202834
-9.33433e-09
-1.15669e-14
0.00202721
-2.58434e-09
6.46532e-14
0.0020254
3.50328e-08
3.80462e-14
0.00202028
1.50248e-07
-6.35075e-14
0.00200533
4.39532e-07
-2.57899e-13
0.00196396
1.25031e-06
-8.83396e-13
0.00185415
4.11436e-06
-3.40115e-12
0.00159776
1.81418e-05
-1.81722e-11
0.000294006
0.000127942
-1.1661e-10
-0.00374532
0.00141449
-3.88161e-10
-0.00263092
0.00143211
1.66469e-10
-0.00234256
0.00107945
-3.8093e-11
-0.00214327
0.00100022
-1.04541e-10
-0.00176813
0.000921004
-6.93908e-11
-0.00141663
0.000815119
-5.23915e-11
-0.00115635
0.000774131
-2.82065e-11
-0.000929848
0.000759121
-1.04092e-11
-0.000704322
0.000774104
-5.37138e-12
-0.000506907
0.000773741
-3.55565e-11
-0.000369178
0.000773423
-6.58564e-11
-0.000277524
0.00078776
-9.39824e-11
-0.000209908
0.000801689
-1.24165e-10
-0.000159559
0.000808999
-1.28779e-10
-8.7016e-05
0.000838043
-6.27691e-11
0.00086537
-5.32732e-11
0.00202826
-1.08625e-08
3.93355e-14
0.00202758
-2.25453e-08
9.28529e-14
0.00202618
4.19476e-08
4.44839e-14
0.00202118
2.04809e-07
-7.56744e-14
0.00200659
5.5716e-07
-3.09839e-13
0.00196737
1.51825e-06
-1.17212e-12
0.00186443
4.89644e-06
-4.47666e-12
0.00163046
2.09313e-05
-2.09897e-11
0.000557037
0.000140199
-1.16453e-10
-0.00374281
0.00168342
-3.29423e-10
-0.00260408
0.00201829
4.15388e-10
-0.00230473
0.00144414
-7.48661e-11
-0.00210997
0.00133476
8.23222e-12
-0.00174402
0.00123285
8.12204e-11
-0.00138444
0.00109462
1.3592e-11
-0.00112184
0.00103194
-3.36639e-11
-0.000889376
0.00101216
-1.51384e-11
-0.000662174
0.00103275
-8.02718e-12
-0.000463191
0.00103464
-3.70879e-11
-0.000324963
0.00103356
-8.01587e-11
-0.000237103
0.00105235
-1.1334e-10
-0.000175438
0.00107363
-1.54003e-10
-0.00013314
0.00108308
-1.69408e-10
-7.13371e-05
0.00112122
-7.38825e-11
0.00116261
-6.30006e-11
0.00202818
-9.27775e-09
-3.58033e-14
0.00202843
-5.08016e-08
-5.73456e-14
0.00202698
6.8186e-08
-1.27046e-13
0.00202124
2.59023e-07
-2.43948e-13
0.00200726
6.20267e-07
-6.88256e-13
0.00197175
1.64214e-06
-2.45104e-12
0.00187673
5.26045e-06
-9.1538e-12
0.00166726
2.1788e-05
-4.10321e-11
0.000868781
0.000139411
-2.21212e-10
-0.00348766
0.00174175
-9.48391e-10
-0.00257976
0.00269786
1.09516e-09
-0.0022629
0.00181197
-3.70319e-10
-0.00207223
0.00167102
-5.4664e-11
-0.00171887
0.00154948
-4.63789e-12
-0.00134769
0.00138157
-4.63676e-11
-0.00107882
0.00128693
-2.9953e-11
-0.000837608
0.00126574
-1.05795e-11
-0.000607846
0.00129007
-6.49303e-12
-0.000405367
0.0012975
-7.63912e-11
-0.000265166
0.00129476
-1.33444e-10
-0.000179747
0.00131748
-1.64677e-10
-0.000125904
0.00134822
-1.73273e-10
-9.54457e-05
0.00135848
-1.90773e-10
-4.76619e-05
0.00140894
-1.1218e-10
0.00146791
-7.99663e-11
0.00202821
-8.80544e-09
-3.71617e-13
0.00202976
-7.14073e-08
-6.95381e-13
0.00202645
9.95577e-08
2.07799e-13
0.00202043
2.75701e-07
5.88662e-13
0.00200918
6.28138e-07
5.52365e-13
0.00197876
1.66599e-06
4.65617e-13
0.00189186
5.28598e-06
-5.69305e-13
0.00170237
2.12462e-05
-8.08337e-12
0.00107179
0.000131661
-6.6395e-11
-0.00280068
0.00158033
-4.64497e-10
-0.00255717
0.00346752
1.00678e-09
-0.00221589
0.00219255
-9.41662e-11
-0.0020214
0.00200932
3.62667e-11
-0.00168827
0.00186995
1.79575e-10
-0.00130429
0.0016778
3.80972e-11
-0.0010257
0.00154039
-1.89648e-11
-0.00077605
0.00151976
1.60914e-11
-0.000541926
0.00154477
-1.33466e-11
-0.000334293
0.00156252
-9.93466e-11
-0.000189663
0.00155773
-1.61198e-10
-0.000105442
0.00158175
-1.96696e-10
-6.05913e-05
0.00162655
-1.8996e-10
-4.62653e-05
0.00163375
-2.15554e-10
-1.3346e-05
0.00169814
-1.3185e-10
0.00178284
-1.26746e-10
0.00202838
-7.74987e-09
-2.52148e-13
0.0020298
-6.81424e-08
-7.93632e-13
0.00202634
1.00532e-07
8.38633e-13
0.00202175
2.6748e-07
1.01117e-12
0.00201245
6.04647e-07
1.57001e-12
0.00198667
1.59493e-06
2.96298e-12
0.00191104
4.94943e-06
6.96649e-12
0.00173789
1.91703e-05
2.01278e-11
0.00118511
0.000113086
6.96262e-11
-0.00190499
0.00123529
4.07301e-10
-0.00254572
0.00427791
-3.27437e-10
-0.00216089
0.00260767
1.16404e-10
-0.00195941
0.00235336
2.98597e-10
-0.00165432
0.00219466
2.15764e-10
-0.0012591
0.00198446
1.97934e-10
-0.000962406
0.00179455
7.93994e-11
-0.000704005
0.00177149
2.82646e-11
-0.000464292
0.00179424
-2.21748e-11
-0.000250257
0.00182876
-1.05813e-10
-9.81869e-05
0.00182344
-1.80497e-10
-1.53996e-05
0.00184543
-2.29615e-10
3.12526e-05
0.00190715
-1.90189e-10
1.54625e-05
0.00191731
-2.49482e-10
2.66961e-05
0.00197897
-1.65305e-10
0.00212727
-1.47417e-10
0.00202857
-3.42805e-09
-4.52788e-14
0.00202954
-5.81102e-08
-5.80588e-13
0.0020268
9.79994e-08
1.00727e-12
0.00202313
2.49516e-07
1.19462e-12
0.00201558
5.60528e-07
1.8584e-12
0.00199428
1.46429e-06
3.52832e-12
0.00193229
4.45061e-06
8.66408e-12
0.00177768
1.6443e-05
2.79012e-11
0.00134398
8.85429e-05
1.37272e-10
-0.00121302
0.000843027
5.34334e-10
-0.0026072
0.00502671
-9.37482e-10
-0.00210963
0.00309563
7.20853e-12
-0.00188798
0.0027017
2.15835e-10
-0.00161277
0.00252194
7.87501e-11
-0.00120904
0.0023022
2.72004e-10
-0.000891082
0.00205573
1.37111e-10
-0.000619392
0.00201862
1.12196e-10
-0.000374689
0.00203908
-1.3186e-11
-0.000152869
0.00209614
-8.48359e-11
5.62899e-06
0.00210475
-1.72234e-10
0.000106895
0.00212008
-2.17823e-10
0.000135894
0.0021744
-2.49168e-10
0.000126183
0.00220694
-2.35632e-10
8.30035e-05
0.00226004
-2.17194e-10
0.00250177
-1.66959e-10
0.00202873
4.49144e-10
-8.19494e-14
0.0020293
-4.91855e-08
-5.10414e-13
0.00202726
9.13771e-08
6.46691e-13
0.00202433
2.21255e-07
7.99583e-13
0.00201851
4.91937e-07
1.27853e-12
0.00200126
1.28832e-06
2.32834e-12
0.00195088
3.86424e-06
5.36625e-12
0.00181938
1.36773e-05
1.59764e-11
0.00150275
6.64681e-05
7.15364e-11
-0.000161086
0.000531347
3.80559e-10
-0.00286015
0.00497007
-5.75305e-10
-0.00204668
0.00382829
7.0627e-11
-0.00180958
0.00305484
3.44486e-10
-0.00156398
0.00285027
1.45276e-10
-0.00115765
0.00262597
2.80939e-10
-0.000813576
0.00233283
1.88718e-10
-0.000525492
0.00225903
1.189e-10
-0.000273489
0.0022798
-2.47082e-13
-4.09538e-05
0.00235218
-7.5748e-11
0.000145194
0.00237068
-1.59093e-10
0.000258379
0.00237124
-2.25453e-10
0.000278788
0.00242432
-2.79492e-10
0.000258917
0.00248079
-2.54613e-10
0.000183828
0.00255241
-2.33327e-10
0.00294295
-1.94973e-10
0.00202882
1.06796e-13
2.15743e-09
0.00202908
-3.26624e-13
-3.64052e-08
0.00202769
6.422e-13
7.55166e-08
0.00202555
7.74137e-13
1.81806e-07
0.00202119
1.17873e-12
4.07879e-07
0.00200754
1.86964e-12
1.08696e-06
0.00196707
3.55999e-12
3.24968e-06
0.00185675
8.29827e-12
1.1136e-05
0.00160543
3.07363e-11
4.91988e-05
0.000510197
1.44032e-10
0.000347181
-0.0026721
2.1844e-10
0.00408922
-0.00200706
1.06677e-10
0.00475653
-0.00172399
3.8799e-10
0.0034101
-0.00150161
2.18487e-10
0.0031851
-0.0011076
2.22088e-10
0.00294829
-0.000730553
2.69554e-10
0.00265048
-0.000424739
1.54691e-10
0.00249518
-0.000158949
1.96311e-11
0.00251286
8.93003e-05
-4.18787e-11
0.00259777
0.000299682
-1.64766e-10
0.00261745
0.000430991
-1.97384e-10
0.00262036
0.000467526
-2.72241e-10
0.00265836
0.000441052
-2.83367e-10
0.00273498
0.000360835
-2.45159e-10
0.00282349
-2.00708e-10
0.00352515
0.00202843
-2.70677e-09
-2.29554e-15
0.002027
3.8174e-09
1.0402e-13
0.00202473
1.45645e-08
1.07619e-13
0.00201916
4.77828e-08
7.44655e-14
0.00200352
1.41834e-07
1.21091e-13
0.00195987
4.12969e-07
2.59054e-13
0.00184321
1.39172e-06
8.62155e-13
0.00156787
6.37229e-06
3.21888e-12
0.000109394
4.83659e-05
2.07076e-11
-0.00379986
0.000516946
8.03919e-11
-0.00265303
0.00046619
7.71836e-11
-0.00237361
0.000361032
1.14112e-10
-0.0021752
0.000334886
9.12088e-11
-0.00179028
0.000307346
9.92211e-11
-0.00145299
0.000269578
5.4438e-11
-0.0011944
0.000258259
4.91499e-11
-0.000973072
0.000253266
1.60256e-11
-0.000748669
0.000257434
-3.55478e-11
-0.000552392
0.000257014
-7.72409e-11
-0.000413015
0.000256766
-1.08925e-10
-0.000315702
0.000261474
-1.16508e-10
-0.000239595
0.0002655
-1.10926e-10
-0.000179882
0.000267712
-1.11876e-10
-9.9071e-05
0.00027881
-1.43883e-10
0.00028636
-1.41452e-10
0.0020284
-6.08681e-09
-7.16417e-15
0.00202705
4.82049e-09
9.61319e-14
0.00202493
2.91295e-08
1.00299e-13
0.00201952
1.02361e-07
8.06268e-14
0.00200408
3.01306e-07
1.07273e-13
0.0019611
8.81356e-07
2.37477e-13
0.00184639
2.96529e-06
7.13736e-13
0.00157569
1.34462e-05
2.36201e-12
0.000161657
9.8388e-05
1.29214e-11
-0.00380501
0.00101489
9.88192e-11
-0.00264801
0.000913743
1.01754e-10
-0.00236373
0.000719601
1.07575e-10
-0.00216594
0.000668505
8.37021e-11
-0.00178359
0.00061415
9.00032e-11
-0.00143956
0.000539943
4.73541e-11
-0.00118017
0.000516405
4.02533e-11
-0.000957373
0.000506571
1.26131e-11
-0.000732603
0.000515519
-3.29027e-11
-0.000535731
0.000514626
-7.04318e-11
-0.000397515
0.000514698
-1.03026e-10
-0.000302759
0.000524232
-1.13626e-10
-0.000229719
0.00053257
-1.11466e-10
-0.000173568
0.000537145
-1.1083e-10
-9.505e-05
0.000557485
-1.36206e-10
0.000574379
-1.30986e-10
0.00202834
-9.29641e-09
-1.25348e-14
0.00202721
-2.58871e-09
8.86905e-14
0.0020254
3.50718e-08
7.91889e-14
0.00202028
1.50333e-07
6.07086e-14
0.00200533
4.39562e-07
1.52831e-13
0.00196396
1.25011e-06
4.30239e-13
0.00185414
4.11329e-06
1.30994e-12
0.00159774
1.81375e-05
5.07865e-12
0.000293912
0.000127919
3.2755e-11
-0.00374518
0.00141434
1.45145e-10
-0.00263075
0.00143221
1.1778e-10
-0.00234257
0.00107963
8.97993e-11
-0.00214335
0.00100039
6.12927e-11
-0.00176822
0.00092121
6.91799e-11
-0.00141675
0.000815137
3.42e-11
-0.00115646
0.000774066
2.75733e-11
-0.000929935
0.000759016
5.97116e-12
-0.000704363
0.000773995
-2.77211e-11
-0.000506892
0.000773635
-5.64248e-11
-0.000369119
0.000773343
-8.48952e-11
-0.000277436
0.000787702
-9.70843e-11
-0.000209809
0.000801646
-9.35336e-11
-0.00015948
0.000808962
-9.65433e-11
-8.69689e-05
0.000838016
-1.23357e-10
0.000865344
-1.21261e-10
0.00202826
-1.08973e-08
-2.32146e-14