/*--------------------------------*- C++ -*----------------------------------*\
| =========                 |                                                 |
| \\      /  F ield         | OpenFOAM: The Open Source CFD Toolbox           |
|  \\    /   O peration     | Version:  4.1                                   |
|   \\  /    A nd           | Web:      www.OpenFOAM.org                      |
|    \\/     M anipulation  |                                                 |
\*---------------------------------------------------------------------------*/
FoamFile
{
    version     2.0;
    format      ascii;
    class       volScalarField;
    location    "0.44";
    object      T;
}
// * * * * * * * * * * * * * * * * * * * * * * * * * * * * * * * * * * * * * //

dimensions      [0 0 0 1 0 0 0];

internalField   nonuniform List<scalar> 
52500
(
0.335819
0.316586
0.316953
0.318002
0.321015
0.329977
0.361364
0.508781
1.06351
1.84144
1.56815
1.34713
1.28728
1.29549
1.38302
1.40821
1.38534
1.33006
1.31302
1.3013
1.27076
1.23678
1.20357
1.15848
1.09786
0.335821
0.31658
0.316937
0.317966
0.320924
0.329683
0.36018
0.502796
1.04909
1.84055
1.57566
1.34862
1.28687
1.2928
1.38037
1.40814
1.38675
1.33082
1.31308
1.30165
1.27106
1.23703
1.20358
1.15831
1.09638
0.335831
0.316564
0.316901
0.317893
0.320724
0.329018
0.357526
0.489192
1.01397
1.82899
1.59407
1.35221
1.28466
1.28753
1.37396
1.4073
1.38846
1.3322
1.31331
1.3026
1.27224
1.23809
1.20438
1.15883
1.09554
0.335851
0.316546
0.316854
0.317804
0.320453
0.328077
0.35388
0.470788
0.959758
1.80482
1.62144
1.35806
1.28212
1.28152
1.36463
1.40511
1.38987
1.33389
1.3131
1.30339
1.27334
1.23899
1.20553
1.15896
1.09351
0.335885
0.316528
0.316811
0.317717
0.320104
0.326884
0.349557
0.449949
0.892237
1.75691
1.65916
1.36616
1.27733
1.27217
1.34723
1.40006
1.39019
1.33586
1.31251
1.30362
1.27485
1.2403
1.20633
1.15778
1.08856
0.335924
0.316519
0.316785
0.317597
0.319659
0.325562
0.34495
0.428218
0.817073
1.67279
1.70722
1.37801
1.27312
1.26237
1.32685
1.39327
1.38931
1.33844
1.31072
1.30273
1.2757
1.24132
1.20714
1.15537
1.08596
0.335964
0.31655
0.316717
0.317428
0.319217
0.32424
0.340285
0.40633
0.731471
1.5409
1.7562
1.39598
1.27009
1.25163
1.30105
1.38355
1.38678
1.34247
1.3074
1.3004
1.27562
1.23966
1.20655
1.15428
1.07732
0.336002
0.316582
0.31664
0.317267
0.318789
0.322984
0.335955
0.386322
0.638109
1.36837
1.8003
1.42388
1.26966
1.23996
1.27395
1.37034
1.38281
1.34911
1.30293
1.29523
1.27394
1.23763
1.20375
1.15153
1.06905
0.336028
0.316615
0.316562
0.317108
0.31838
0.321829
0.332174
0.36987
0.552081
1.16734
1.82477
1.47481
1.27294
1.2275
1.245
1.34933
1.37646
1.35474
1.29924
1.28785
1.27173
1.23793
1.20069
1.14961
1.04536
0.336038
0.316662
0.316469
0.316956
0.318013
0.320801
0.328923
0.356859
0.485387
1.00309
1.78146
1.54998
1.28253
1.21487
1.21797
1.3177
1.36923
1.35755
1.29691
1.28032
1.26684
1.23932
1.19351
1.14162
1.02076
0.33582
0.316587
0.316955
0.318005
0.32102
0.329991
0.36142
0.509075
1.06424
1.84168
1.56791
1.34713
1.28735
1.29553
1.38304
1.4082
1.38533
1.33004
1.313
1.30127
1.27071
1.23672
1.20351
1.15843
1.09788
0.335822
0.316581
0.316938
0.317968
0.320928
0.329694
0.360222
0.502996
1.04957
1.84075
1.57587
1.34884
1.28688
1.29265
1.38027
1.40816
1.38677
1.3308
1.31306
1.30162
1.27102
1.23698
1.20352
1.15827
1.09638
0.335832
0.316565
0.316903
0.317895
0.320729
0.329032
0.35758
0.489465
1.01477
1.82916
1.59353
1.35216
1.28491
1.28798
1.37436
1.40732
1.3884
1.33216
1.3133
1.30257
1.27221
1.23805
1.20433
1.15879
1.09553
0.335852
0.316547
0.316856
0.317805
0.320457
0.328088
0.353918
0.470965
0.96029
1.80487
1.62101
1.35801
1.28209
1.28153
1.36471
1.40512
1.38982
1.33386
1.31309
1.30337
1.27331
1.23895
1.20549
1.15892
1.09352
0.335885
0.316529
0.316812
0.317719
0.320108
0.326895
0.349594
0.450115
0.892757
1.75725
1.65857
1.36605
1.27766
1.27262
1.34764
1.40008
1.39014
1.33584
1.31249
1.30361
1.27482
1.24025
1.20626
1.15775
1.08862
0.335925
0.31652
0.316785
0.317598
0.319661
0.32557
0.344975
0.428337
0.817491
1.67324
1.70675
1.37801
1.27363
1.26306
1.32761
1.39352
1.38931
1.3383
1.31071
1.30272
1.27567
1.24125
1.20707
1.15534
1.08604
0.335965
0.316551
0.316718
0.317429
0.319218
0.324243
0.340296
0.406381
0.731687
1.54111
1.75595
1.39607
1.27027
1.25173
1.30108
1.38357
1.38677
1.3424
1.3074
1.30042
1.2756
1.2396
1.20647
1.15426
1.07743
0.336003
0.316583
0.316641
0.317267
0.318789
0.322984
0.335957
0.386335
0.638193
1.36846
1.80023
1.42393
1.26956
1.23964
1.27345
1.37003
1.38268
1.34915
1.30291
1.29521
1.27392
1.23754
1.20366
1.1515
1.06917
0.336029
0.316616
0.316562
0.317108
0.31838
0.321829
0.332173
0.369872
0.55211
1.16746
1.82484
1.47479
1.27274
1.22721
1.24465
1.34917
1.37644
1.35476
1.29924
1.28787
1.2717
1.23787
1.20061
1.14957
1.04549
0.33604
0.316664
0.316469
0.316956
0.318013
0.3208
0.328921
0.356855
0.485392
1.00316
1.78166
1.55007
1.28239
1.21463
1.21765
1.3174
1.36918
1.35756
1.2969
1.28031
1.26683
1.23929
1.19345
1.14158
1.0209
0.33582
0.316587
0.316954
0.318004
0.321018
0.329986
0.361399
0.508957
1.06392
1.84149
1.56789
1.34714
1.28742
1.29567
1.38312
1.40821
1.38529
1.33002
1.313
1.30128
1.27073
1.23674
1.20353
1.15844
1.09789
0.335822
0.316581
0.316938
0.317967
0.320927
0.329691
0.360208
0.502928
1.0494
1.84062
1.57557
1.3487
1.28696
1.2929
1.38042
1.40814
1.38672
1.33079
1.31306
1.30163
1.27104
1.23699
1.20354
1.15828
1.09639
0.335832
0.316565
0.316902
0.317894
0.320726
0.329024
0.357548
0.489303
1.01427
1.82907
1.59394
1.35222
1.28469
1.28759
1.37405
1.40731
1.38843
1.33217
1.31329
1.30259
1.27222
1.23807
1.20435
1.15881
1.09554
0.335852
0.316547
0.316855
0.317805
0.320455
0.328082
0.353896
0.470864
0.959994
1.8049
1.62135
1.35807
1.28211
1.28152
1.36467
1.40511
1.38985
1.33386
1.31309
1.30338
1.27333
1.23896
1.2055
1.15893
1.09352
0.335886
0.316529
0.316812
0.317718
0.320105
0.326888
0.34957
0.450012
0.892444
1.75705
1.65906
1.36611
1.27723
1.27201
1.347
1.4
1.39018
1.33588
1.31249
1.30361
1.27483
1.24026
1.20628
1.15776
1.08862
0.335925
0.31652
0.316785
0.317598
0.31966
0.325566
0.344962
0.428277
0.817286
1.6731
1.70707
1.37794
1.27323
1.26256
1.32715
1.39341
1.38933
1.33837
1.31071
1.30272
1.27568
1.24127
1.20708
1.15534
1.08604
0.335965
0.316551
0.316717
0.317428
0.319217
0.324242
0.340291
0.406363
0.731619
1.54113
1.7561
1.39601
1.27018
1.25173
1.30115
1.3836
1.38679
1.34243
1.3074
1.30041
1.27561
1.23962
1.20648
1.15426
1.07743
0.336003
0.316583
0.316641
0.317267
0.31879
0.322985
0.335958
0.386339
0.638209
1.36848
1.80029
1.42389
1.26966
1.23989
1.27387
1.37027
1.38277
1.34912
1.30291
1.29522
1.27392
1.23756
1.20367
1.1515
1.06917
0.336029
0.316616
0.316562
0.317108
0.31838
0.321829
0.332174
0.369876
0.552129
1.16749
1.8248
1.47478
1.2729
1.22746
1.245
1.34934
1.37643
1.35473
1.29923
1.28788
1.27171
1.23788
1.20061
1.14957
1.04549
0.33604
0.316664
0.316469
0.316956
0.318013
0.320801
0.328922
0.35686
0.485411
1.00319
1.78159
1.55001
1.28249
1.2148
1.21789
1.31773
1.3693
1.35753
1.29689
1.28032
1.26684
1.23929
1.19345
1.14158
1.02089
0.33582
0.316587
0.316954
0.318004
0.321018
0.329986
0.361402
0.508975
1.06397
1.84151
1.56788
1.34714
1.28742
1.29567
1.38314
1.40822
1.38528
1.33002
1.313
1.30128
1.27074
1.23675
1.20354
1.15845
1.09789
0.335822
0.316581
0.316937
0.317967
0.320926
0.329691
0.36021
0.502939
1.04943
1.84063
1.57558
1.34871
1.28696
1.29289
1.38043
1.40815
1.38672
1.33079
1.31306
1.30163
1.27105
1.237
1.20355
1.15829
1.0964
0.335832
0.316565
0.316902
0.317894
0.320727
0.329025
0.357551
0.489314
1.0143
1.82907
1.59395
1.35226
1.28474
1.28764
1.37408
1.40732
1.38842
1.33217
1.3133
1.30259
1.27223
1.23808
1.20436
1.15881
1.09555
0.335852
0.316547
0.316855
0.317805
0.320455
0.328082
0.353899
0.470877
0.960027
1.80487
1.62126
1.35801
1.28201
1.28141
1.36458
1.40511
1.38985
1.33388
1.31309
1.30339
1.27334
1.23898
1.20551
1.15894
1.09353
0.335886
0.316529
0.316812
0.317718
0.320106
0.326889
0.349576
0.45004
0.892537
1.75716
1.65887
1.36608
1.27745
1.27234
1.34733
1.40006
1.39018
1.33585
1.3125
1.30362
1.27485
1.24028
1.20629
1.15777
1.08863
0.335926
0.31652
0.316785
0.317597
0.31966
0.325566
0.344962
0.428282
0.817312
1.6731
1.70703
1.37804
1.27338
1.26273
1.32731
1.39348
1.38934
1.33834
1.31072
1.30273
1.2757
1.24128
1.20709
1.15536
1.08605
0.335966
0.316551
0.316717
0.317428
0.319217
0.324241
0.340288
0.40635
0.731577
1.54102
1.75617
1.39608
1.27008
1.25149
1.30085
1.38352
1.38679
1.34244
1.3074
1.30043
1.27562
1.23963
1.2065
1.15428
1.07744
0.336004
0.316584
0.31664
0.317266
0.318789
0.322983
0.335954
0.386323
0.638144
1.36845
1.80038
1.42396
1.2695
1.23961
1.2734
1.37005
1.38272
1.34917
1.30291
1.29522
1.27394
1.23757
1.20369
1.15152
1.06919
0.336029
0.316616
0.316562
0.317108
0.31838
0.321828
0.332172
0.369868
0.552098
1.16744
1.82492
1.47486
1.27279
1.22729
1.24476
1.34928
1.37648
1.35477
1.29924
1.28788
1.27173
1.2379
1.20063
1.14959
1.04551
0.33604
0.316664
0.316469
0.316956
0.318012
0.320799
0.32892
0.356855
0.485395
1.00317
1.78166
1.55009
1.28246
1.21472
1.21778
1.31758
1.36924
1.35757
1.29689
1.28033
1.26685
1.23932
1.19347
1.14161
1.02091
0.33582
0.316587
0.316954
0.318003
0.321018
0.329986
0.361401
0.508973
1.06396
1.84151
1.5679
1.34715
1.28741
1.29565
1.3831
1.40819
1.38528
1.33003
1.313
1.30128
1.27074
1.23675
1.20355
1.15846
1.0979
0.335822
0.316581
0.316937
0.317967
0.320926
0.329691
0.360209
0.502938
1.04942
1.84064
1.57559
1.34872
1.28696
1.29288
1.3804
1.40813
1.38672
1.3308
1.31306
1.30163
1.27105
1.23701
1.20356
1.1583
1.09641
0.335832
0.316565
0.316902
0.317894
0.320726
0.329025
0.35755
0.489311
1.01429
1.82907
1.59396
1.35227
1.28474
1.28763
1.37405
1.4073
1.38841
1.33217
1.31329
1.30259
1.27223
1.23807
1.20436
1.15882
1.09557
0.335852
0.316547
0.316855
0.317805
0.320455
0.328082
0.353898
0.470872
0.960012
1.80486
1.62128
1.35802
1.28201
1.2814
1.36457
1.4051
1.38984
1.33387
1.31309
1.30338
1.27333
1.23897
1.20552
1.15895
1.09354
0.335886
0.316529
0.316812
0.317718
0.320105
0.326889
0.349574
0.450032
0.892511
1.75714
1.6589
1.36609
1.27745
1.27234
1.34733
1.40005
1.39016
1.33584
1.3125
1.30362
1.27486
1.2403
1.20633
1.15778
1.08856
0.335926
0.31652
0.316785
0.317597
0.319659
0.325565
0.34496
0.428272
0.817278
1.67305
1.70706
1.37805
1.27337
1.26271
1.32729
1.39346
1.38933
1.33833
1.31072
1.30274
1.27573
1.24134
1.20716
1.15536
1.08595
0.335966
0.316552
0.316717
0.317428
0.319216
0.32424
0.340286
0.406341
0.731538
1.54095
1.75621
1.39609
1.27008
1.25149
1.30084
1.38351
1.38677
1.34243
1.30741
1.30044
1.27567
1.23972
1.20658
1.15429
1.0773
0.336004
0.316584
0.31664
0.317266
0.318788
0.322982
0.335952
0.386315
0.638103
1.36841
1.80039
1.42399
1.26951
1.23961
1.27338
1.37002
1.38269
1.34916
1.30291
1.29523
1.27398
1.23766
1.20379
1.15156
1.06905
0.336029
0.316616
0.316562
0.317108
0.31838
0.321828
0.332171
0.369863
0.552069
1.16738
1.82494
1.4749
1.2728
1.22728
1.24473
1.34924
1.37646
1.35476
1.29923
1.28789
1.27176
1.23797
1.20072
1.14965
1.04539
0.33604
0.316664
0.316469
0.316956
0.318012
0.320799
0.328919
0.356851
0.485374
1.00311
1.78164
1.55013
1.28247
1.21472
1.21776
1.3175
1.36919
1.35756
1.29689
1.28032
1.26686
1.23936
1.19354
1.14167
1.02081
0.33582
0.316587
0.316954
0.318004
0.321018
0.329987
0.361403
0.508982
1.06398
1.84151
1.56787
1.34714
1.28741
1.29567
1.38314
1.40822
1.38528
1.33003
1.313
1.30128
1.27074
1.23675
1.20355
1.15845
1.0979
0.335822
0.316581
0.316937
0.317967
0.320927
0.329691
0.360211
0.502943
1.04944
1.84063
1.57557
1.34871
1.28696
1.29289
1.38043
1.40815
1.38672
1.33079
1.31306
1.30164
1.27105
1.23701
1.20356
1.15829
1.0964
0.335832
0.316565
0.316902
0.317894
0.320727
0.329025
0.357551
0.489317
1.01431
1.82907
1.59394
1.35226
1.28473
1.28764
1.37408
1.40732
1.38842
1.33217
1.3133
1.30259
1.27224
1.23808
1.20436
1.15882
1.09555
0.335852
0.316547
0.316855
0.317805
0.320455
0.328082
0.353899
0.470876
0.960025
1.80486
1.62126
1.35801
1.28201
1.28141
1.36459
1.40511
1.38985
1.33388
1.31309
1.30339
1.27334
1.23898
1.20552
1.15894
1.09354
0.335886
0.316529
0.316812
0.317718
0.320106
0.326889
0.349575
0.450037
0.892525
1.75715
1.65887
1.36608
1.27745
1.27234
1.34733
1.40006
1.39018
1.33585
1.3125
1.30362
1.27485
1.24028
1.2063
1.15777
1.08864
0.335926
0.31652
0.316785
0.317597
0.31966
0.325565
0.344961
0.428276
0.817291
1.67306
1.70704
1.37804
1.27337
1.26272
1.3273
1.39347
1.38934
1.33834
1.31072
1.30273
1.2757
1.24128
1.2071
1.15536
1.08606
0.335966
0.316551
0.316717
0.317428
0.319217
0.32424
0.340287
0.406344
0.73155
1.54097
1.75619
1.39607
1.27007
1.25148
1.30084
1.38352
1.38679
1.34244
1.3074
1.30042
1.27562
1.23963
1.2065
1.15428
1.07744
0.336004
0.316584
0.31664
0.317266
0.318789
0.322983
0.335952
0.386317
0.638112
1.36842
1.80038
1.42397
1.26949
1.23959
1.27338
1.37005
1.38272
1.34917
1.30291
1.29522
1.27393
1.23757
1.20368
1.15151
1.06919
0.336029
0.316616
0.316562
0.317108
0.31838
0.321828
0.332171
0.369864
0.552075
1.16739
1.82492
1.47488
1.27278
1.22727
1.24473
1.34927
1.37648
1.35477
1.29923
1.28788
1.27172
1.2379
1.20063
1.14959
1.04551
0.33604
0.316664
0.316469
0.316956
0.318012
0.320799
0.32892
0.356852
0.485377
1.00311
1.78164
1.55011
1.28245
1.2147
1.21776
1.31754
1.36923
1.35757
1.29689
1.28032
1.26684
1.23931
1.19347
1.1416
1.02091
0.33582
0.316587
0.316954
0.318004
0.321018
0.329986
0.361402
0.508975
1.06397
1.84151
1.56788
1.34714
1.28742
1.29567
1.38314
1.40822
1.38528
1.33002
1.313
1.30128
1.27074
1.23675
1.20354
1.15845
1.09789
0.335822
0.316581
0.316937
0.317967
0.320926
0.329691
0.36021
0.502939
1.04943
1.84063
1.57558
1.34871
1.28696
1.29289
1.38043
1.40815
1.38672
1.33079
1.31306
1.30163
1.27105
1.237
1.20355
1.15829
1.0964
0.335832
0.316565
0.316902
0.317894
0.320727
0.329025
0.357551
0.489314
1.0143
1.82907
1.59395
1.35226
1.28474
1.28764
1.37408
1.40732
1.38842
1.33217
1.3133
1.30259
1.27223
1.23808
1.20436
1.15881
1.09555
0.335852
0.316547
0.316855
0.317805
0.320455
0.328082
0.353899
0.470877
0.960027
1.80487
1.62126
1.35801
1.28201
1.28141
1.36458
1.40511
1.38985
1.33388
1.31309
1.30339
1.27334
1.23898
1.20551
1.15894
1.09353
0.335886
0.316529
0.316812
0.317718
0.320106
0.326889
0.349576
0.45004
0.892537
1.75716
1.65887
1.36608
1.27745
1.27234
1.34733
1.40006
1.39018
1.33585
1.3125
1.30362
1.27485
1.24028
1.20629
1.15777
1.08863
0.335926
0.31652
0.316785
0.317597
0.31966
0.325566
0.344962
0.428282
0.817312
1.6731
1.70703
1.37804
1.27338
1.26273
1.32731
1.39348
1.38934
1.33834
1.31072
1.30273
1.2757
1.24128
1.20709
1.15536
1.08605
0.335966
0.316551
0.316717
0.317428
0.319217
0.324241
0.340288
0.40635
0.731577
1.54102
1.75617
1.39608
1.27008
1.25149
1.30085
1.38352
1.38679
1.34244
1.3074
1.30043
1.27562
1.23963
1.2065
1.15428
1.07744
0.336004
0.316584
0.31664
0.317266
0.318789
0.322983
0.335954
0.386323
0.638144
1.36845
1.80038
1.42396
1.2695
1.23961
1.2734
1.37005
1.38272
1.34917
1.30291
1.29522
1.27394
1.23757
1.20369
1.15152
1.06919
0.336029
0.316616
0.316562
0.317108
0.31838
0.321828
0.332172
0.369868
0.552098
1.16744
1.82492
1.47486
1.27279
1.22729
1.24476
1.34928
1.37648
1.35477
1.29924
1.28788
1.27173
1.2379
1.20063
1.14959
1.04551
0.33604
0.316664
0.316469
0.316956
0.318012
0.320799
0.32892
0.356855
0.485395
1.00317
1.78166
1.55009
1.28246
1.21472
1.21778
1.31758
1.36924
1.35757
1.29689
1.28033
1.26685
1.23932
1.19347
1.14161
1.02091
0.33582
0.316587
0.316954
0.318004
0.321018
0.329986
0.361399
0.508957
1.06392
1.84149
1.56789
1.34714
1.28742
1.29567
1.38312
1.40821
1.38529
1.33002
1.313
1.30128
1.27073
1.23674
1.20353
1.15844
1.09789
0.335822
0.316581
0.316938
0.317967
0.320927
0.329691
0.360208
0.502928
1.0494
1.84062
1.57557
1.3487
1.28696
1.2929
1.38042
1.40814
1.38672
1.33079
1.31306
1.30163
1.27104
1.23699
1.20354
1.15828
1.09639
0.335832
0.316565
0.316902
0.317894
0.320726
0.329024
0.357548
0.489303
1.01427
1.82907
1.59394
1.35222
1.28469
1.28759
1.37405
1.40731
1.38843
1.33217
1.31329
1.30258
1.27222
1.23807
1.20435
1.15881
1.09554
0.335852
0.316547
0.316855
0.317805
0.320455
0.328082
0.353896
0.470864
0.959994
1.8049
1.62135
1.35807
1.28211
1.28152
1.36467
1.40511
1.38985
1.33386
1.31309
1.30338
1.27333
1.23896
1.2055
1.15893
1.09352
0.335886
0.316529
0.316812
0.317718
0.320105
0.326888
0.34957
0.450012
0.892444
1.75705
1.65906
1.36611
1.27723
1.27201
1.347
1.4
1.39018
1.33588
1.31249
1.30361
1.27483
1.24026
1.20628
1.15776
1.08862
0.335925
0.31652
0.316785
0.317598
0.31966
0.325566
0.344962
0.428277
0.817286
1.6731
1.70707
1.37794
1.27323
1.26256
1.32715
1.39341
1.38933
1.33837
1.31071
1.30272
1.27568
1.24127
1.20708
1.15534
1.08604
0.335965
0.316551
0.316717
0.317428
0.319217
0.324242
0.340291
0.406363
0.731619
1.54113
1.7561
1.39601
1.27018
1.25173
1.30115
1.3836
1.38679
1.34243
1.3074
1.30041
1.27561
1.23962
1.20648
1.15426
1.07743
0.336003
0.316583
0.316641
0.317267
0.31879
0.322985
0.335958
0.386339
0.638209
1.36848
1.80029
1.42389
1.26966
1.23989
1.27387
1.37027
1.38277
1.34912
1.30291
1.29522
1.27392
1.23756
1.20367
1.1515
1.06917
0.336029
0.316616
0.316562
0.317108
0.31838
0.321829
0.332174
0.369876
0.552129
1.16749
1.8248
1.47478
1.2729
1.22746
1.245
1.34934
1.37643
1.35473
1.29923
1.28788
1.27171
1.23788
1.20061
1.14957
1.04549
0.33604
0.316664
0.316469
0.316956
0.318013
0.320801
0.328922
0.35686
0.485411
1.00319
1.78159
1.55001
1.28249
1.2148
1.21789
1.31773
1.3693
1.35753
1.29689
1.28032
1.26684
1.23929
1.19345
1.14158
1.02089
0.33582
0.316587
0.316955
0.318005
0.32102
0.329991
0.361419
0.509074
1.06424
1.84168
1.56791
1.34713
1.28735
1.29553
1.38304
1.4082
1.38533
1.33004
1.313
1.30127
1.27071
1.23672
1.20351
1.15843
1.09788
0.335822
0.316581
0.316938
0.317968
0.320928
0.329694
0.360222
0.502996
1.04957
1.84075
1.57587
1.34884
1.28688
1.29265
1.38027
1.40816
1.38677
1.3308
1.31306
1.30162
1.27102
1.23698
1.20352
1.15827
1.09638
0.335832
0.316565
0.316903
0.317895
0.320729
0.329032
0.35758
0.489464
1.01477
1.82916
1.59353
1.35216
1.28491
1.28798
1.37436
1.40732
1.3884
1.33216
1.3133
1.30257
1.27221
1.23805
1.20433
1.15879
1.09553
0.335852
0.316547
0.316856
0.317805
0.320457
0.328088
0.353918
0.470965
0.960289
1.80487
1.62101
1.35801
1.28209
1.28153
1.36471
1.40512
1.38982
1.33386
1.31309
1.30337
1.27331
1.23895
1.20549
1.15892
1.09352
0.335885
0.316529
0.316812
0.317719
0.320108
0.326895
0.349594
0.450114
0.892757
1.75725
1.65857
1.36605
1.27766
1.27262
1.34764
1.40008
1.39014
1.33584
1.31249
1.30361
1.27482
1.24025
1.20626
1.15775
1.08862
0.335925
0.31652
0.316785
0.317598
0.319661
0.32557
0.344975
0.428337
0.81749
1.67324
1.70676
1.37801
1.27363
1.26306
1.32761
1.39352
1.38931
1.3383
1.31071
1.30272
1.27567
1.24125
1.20707
1.15534
1.08604
0.335965
0.316551
0.316718
0.317429
0.319218
0.324243
0.340296
0.406381
0.731687
1.54111
1.75595
1.39607
1.27027
1.25173
1.30108
1.38357
1.38677
1.3424
1.3074
1.30042
1.2756
1.2396
1.20647
1.15426
1.07743
0.336003
0.316583
0.316641
0.317267
0.318789
0.322984
0.335957
0.386335
0.638194
1.36846
1.80023
1.42393
1.26956
1.23964
1.27345
1.37003
1.38268
1.34915
1.30291
1.29521
1.27392
1.23754
1.20366
1.1515
1.06917
0.336029
0.316616
0.316562
0.317108
0.31838
0.321829
0.332173
0.369872
0.552111
1.16746
1.82484
1.47479
1.27274
1.22721
1.24465
1.34917
1.37644
1.35476
1.29924
1.28787
1.2717
1.23787
1.20061
1.14957
1.04549
0.33604
0.316664
0.316469
0.316956
0.318013
0.3208
0.328921
0.356855
0.485392
1.00316
1.78166
1.55007
1.28239
1.21463
1.21765
1.3174
1.36918
1.35756
1.2969
1.28031
1.26683
1.23929
1.19345
1.14158
1.0209
0.335819
0.316586
0.316953
0.318002
0.321015
0.329977
0.361365
0.508794
1.06354
1.84145
1.56803
1.34708
1.28731
1.29556
1.38306
1.40819
1.38529
1.33004
1.31303
1.30131
1.2708
1.23684
1.20364
1.15846
1.0977
0.335821
0.31658
0.316936
0.317966
0.320923
0.329682
0.360174
0.502763
1.04901
1.84058
1.5759
1.34877
1.28695
1.29281
1.38034
1.40812
1.38675
1.33081
1.31308
1.30166
1.27109
1.23708
1.20364
1.15829
1.09624
0.335831
0.316564
0.316901
0.317893
0.320724
0.329015
0.357515
0.489124
1.01378
1.82887
1.59442
1.3523
1.2845
1.28726
1.37379
1.40728
1.38845
1.33218
1.3133
1.3026
1.27225
1.23812
1.20442
1.15882
1.09542
0.335851
0.316546
0.316855
0.317804
0.320454
0.328078
0.353886
0.470804
0.959791
1.80479
1.62116
1.35785
1.282
1.28146
1.36455
1.40507
1.38986
1.33389
1.31309
1.30337
1.27332
1.23897
1.20553
1.15895
1.09346
0.335885
0.316528
0.316811
0.317717
0.320105
0.326888
0.34957
0.450009
0.892429
1.75713
1.65878
1.36615
1.27786
1.2729
1.34789
1.40014
1.39015
1.3358
1.31249
1.30359
1.27482
1.24027
1.20631
1.15778
1.08857
0.335924
0.316519
0.316785
0.317597
0.319659
0.325564
0.344955
0.428245
0.817174
1.67284
1.70707
1.37818
1.27353
1.26285
1.32739
1.3935
1.38933
1.3383
1.3107
1.3027
1.27568
1.24129
1.20712
1.15536
1.08597
0.335964
0.31655
0.316717
0.317427
0.319216
0.324239
0.340282
0.406322
0.73145
1.54075
1.75626
1.39614
1.26994
1.25119
1.30032
1.38325
1.3867
1.34249
1.30739
1.30039
1.2756
1.23964
1.20654
1.15428
1.07733
0.336002
0.316582
0.31664
0.317267
0.318789
0.322983
0.335954
0.386318
0.638103
1.3684
1.80043
1.42388
1.26939
1.2395
1.27325
1.36996
1.38267
1.34918
1.30291
1.29522
1.27393
1.23762
1.20374
1.15153
1.06906
0.336028
0.316615
0.316562
0.317108
0.31838
0.321829
0.332174
0.369875
0.552116
1.16748
1.82493
1.47474
1.27277
1.22738
1.24481
1.34923
1.37646
1.35478
1.29923
1.28784
1.27172
1.23792
1.20069
1.14961
1.04537
0.336038
0.316663
0.316469
0.316956
0.318013
0.320801
0.328925
0.356868
0.485441
1.00326
1.78165
1.54993
1.28253
1.21494
1.21805
1.31787
1.36934
1.35758
1.29689
1.28031
1.26684
1.23932
1.19352
1.14164
1.02077
0.336041
0.316701
0.316389
0.316829
0.317699
0.319903
0.326169
0.346676
0.435474
0.843681
1.65843
1.63239
1.30472
1.20382
1.1952
1.27291
1.35805
1.35762
1.29839
1.27136
1.26105
1.23704
1.19052
1.13827
0.960933
0.336045
0.316733
0.316324
0.31673
0.317434
0.31917
0.323941
0.338712
0.397556
0.692159
1.43805
1.71525
1.34559
1.19926
1.17532
1.22192
1.33382
1.35325
1.30885
1.26589
1.25425
1.23286
1.18381
1.1386
0.970018
0.336046
0.316757
0.316273
0.316654
0.317217
0.318588
0.322217
0.332844
0.371034
0.557749
1.17586
1.77025
1.42139
1.20284
1.15838
1.17806
1.28431
1.34034
1.3189
1.26712
1.24171
1.22691
1.18164
1.14331
1.00237
0.336045
0.31677
0.316237
0.316604
0.317051
0.31814
0.320925
0.328596
0.353756
0.467686
0.956454
1.76204
1.52931
1.22143
1.14591
1.14595
1.2181
1.32513
1.32008
1.27165
1.2362
1.22012
1.17761
1.14562
1.04855
0.336044
0.316775
0.316216
0.316575
0.316936
0.317813
0.319972
0.325516
0.3423
0.410631
0.745786
1.51926
1.62692
1.26807
1.14009
1.12296
1.15614
1.29197
1.31779
1.28485
1.23707
1.21947
1.16827
1.14499
1.09236
0.336044
0.316777
0.316207
0.316561
0.316858
0.317589
0.319278
0.323329
0.334682
0.375727
0.576431
1.20166
1.69807
1.35895
1.14608
1.10668
1.11423
1.22549
1.30838
1.28957
1.24086
1.22127
1.16952
1.13953
1.11448
0.336044
0.316778
0.316202
0.316554
0.316808
0.317453
0.318778
0.32179
0.329561
0.354855
0.468621
0.958585
1.73468
1.48475
1.17473
1.09915
1.0889
1.15407
1.28343
1.28465
1.25592
1.23214
1.17601
1.1394
1.11933
0.336044
0.316779
0.316202
0.316555
0.316792
0.317386
0.318466
0.320748
0.326213
0.34215
0.402915
0.708883
1.52494
1.57703
1.2338
1.10053
1.08119
1.09982
1.22107
1.27067
1.26282
1.24843
1.19109
1.14197
1.12001
0.336044
0.316779
0.316202
0.316557
0.316794
0.31734
0.318401
0.320027
0.324017
0.334635
0.368832
0.526014
1.08327
1.6492
1.33977
1.11563
1.08277
1.0683
1.14492
1.25283
1.26105
1.25586
1.22314
1.15322
1.12381
0.336044
0.316779
0.316202
0.316559
0.316794
0.317327
0.318442
0.31959
0.322658
0.33015
0.350448
0.427832
0.7978
1.62965
1.45174
1.15915
1.09394
1.06126
1.09765
1.21867
1.2528
1.25373
1.24246
1.1861
1.13556
0.336044
0.316779
0.316202
0.316558
0.316795
0.317323
0.318441
0.31943
0.321923
0.327378
0.340027
0.37883
0.563422
1.18202
1.52635
1.25395
1.12145
1.06535
1.06698
1.1338
1.23024
1.24794
1.24461
1.22222
1.16608
0.336044
0.316779
0.316202
0.316556
0.316794
0.317316
0.318438
0.319398
0.321438
0.326185
0.334767
0.35598
0.434436
0.771919
1.49054
1.32003
1.15433
1.08551
1.04574
1.07109
1.1748
1.23075
1.24109
1.23557
1.2079
0.336044
0.316779
0.316201
0.316555
0.316794
0.317312
0.318446
0.319392
0.321342
0.325894
0.331626
0.345094
0.383762
0.535794
1.039
1.36285
1.18013
1.10297
1.04758
1.03728
1.07849
1.19052
1.23001
1.23383
1.22582
0.336044
0.316779
0.316201
0.316554
0.316794
0.317311
0.318447
0.319395
0.321317
0.325976
0.330219
0.339758
0.364312
0.427787
0.652215
1.17894
1.19072
1.10755
1.05445
1.01536
1.02852
1.09155
1.19713
1.22587
1.22477
0.336044
0.316779
0.316201
0.316554
0.316794
0.317311
0.318445
0.319397
0.321302
0.326001
0.330142
0.337599
0.358358
0.3926
0.483672
0.735022
1.10661
1.09377
1.05428
1.01512
0.989952
1.01125
1.11144
1.19616
1.21603
0.336044
0.316779
0.316201
0.316554
0.316794
0.317311
0.318446
0.319397
0.321302
0.32599
0.330174
0.33734
0.357375
0.379881
0.429456
0.538252
0.747388
0.999221
1.03807
1.01312
0.972449
0.966745
1.00506
1.11821
1.18455
0.336044
0.316779
0.316201
0.316554
0.316793
0.317311
0.318445
0.319397
0.321301
0.325988
0.33016
0.337318
0.357339
0.378292
0.415114
0.486559
0.560437
0.698815
0.939194
0.999511
0.969442
0.934774
0.945623
1.00909
1.1122
0.336044
0.316779
0.316201
0.316554
0.316794
0.317311
0.318446
0.319397
0.321302
0.32599
0.330159
0.337327
0.3572
0.378648
0.414098
0.485206
0.511227
0.556657
0.665767
0.898445
0.959033
0.926813
0.906299
0.931897
1.01877
0.336044
0.316779
0.316201
0.316554
0.316794
0.317311
0.318446
0.319397
0.3213
0.325984
0.330154
0.33732
0.35717
0.378634
0.414134
0.484436
0.510773
0.519032
0.553514
0.646595
0.847413
0.915256
0.886776
0.885597
0.929608
0.336044
0.316779
0.316201
0.316554
0.316794
0.317312
0.318446
0.319397
0.321303
0.325991
0.33016
0.337329
0.357185
0.378636
0.414257
0.484172
0.511671
0.515017
0.526974
0.55825
0.626354
0.772043
0.865816
0.850286
0.871926
0.336044
0.316779
0.316201
0.316554
0.316793
0.317311
0.318445
0.319396
0.321301
0.325987
0.330153
0.337324
0.357181
0.378612
0.414224
0.484134
0.511693
0.514674
0.524828
0.540928
0.55902
0.597713
0.684679
0.796189
0.824074
0.336044
0.316779
0.316201
0.316555
0.316794
0.317312
0.318446
0.319398
0.321304
0.325992
0.33016
0.337329
0.357182
0.378636
0.414242
0.484092
0.511729
0.514636
0.524583
0.539949
0.545179
0.550838
0.569464
0.618822
0.719852
0.336044
0.316779
0.316201
0.316554
0.316793
0.317311
0.318445
0.319396
0.321301
0.325987
0.330152
0.337324
0.357181
0.37861
0.414218
0.484123
0.511711
0.514636
0.52462
0.540042
0.543647
0.542997
0.540865
0.54912
0.576823
0.336044
0.316779
0.316201
0.316554
0.316794
0.317312
0.318446
0.319398
0.321303
0.325992
0.330161
0.337331
0.357185
0.378634
0.414257
0.484113
0.511737
0.514641
0.524545
0.539999
0.543444
0.5422
0.536251
0.533478
0.537526
0.336044
0.316779
0.316201
0.316554
0.316794
0.317311
0.318445
0.319397
0.3213
0.325984
0.330153
0.337319
0.357165
0.378614
0.414195
0.483996
0.511628
0.514516
0.524367
0.539829
0.543269
0.541951
0.535802
0.530544
0.530708
0.336044
0.316779
0.316201
0.316554
0.316794
0.317312
0.318446
0.319398
0.321303
0.325991
0.330161
0.33733
0.357184
0.378634
0.414258
0.48412
0.511745
0.514648
0.524548
0.539993
0.543417
0.542103
0.535976
0.530607
0.529992
0.336044
0.316779
0.316201
0.316554
0.316793
0.317311
0.318445
0.319396
0.321301
0.325986
0.330152
0.337322
0.357178
0.378608
0.414213
0.484126
0.511712
0.514634
0.524612
0.54003
0.543416
0.542086
0.535929
0.530563
0.529799
0.336044
0.316779
0.316201
0.316554
0.316794
0.317312
0.318446
0.319397
0.321303
0.32599
0.330159
0.337327
0.357179
0.378633
0.414247
0.484096
0.511734
0.514636
0.524531
0.539992
0.543427
0.542111
0.53597
0.530585
0.529791
0.336044
0.316779
0.316201
0.316554
0.316793
0.317311
0.318445
0.319396
0.321301
0.325986
0.330151
0.337322
0.357179
0.378606
0.414217
0.484122
0.511703
0.514629
0.524615
0.540038
0.543426
0.542097
0.535941
0.530574
0.52978
0.336044
0.316779
0.316201
0.316554
0.316794
0.317311
0.318446
0.319397
0.321302
0.325988
0.330155
0.337327
0.357183
0.378628
0.414253
0.48412
0.511737
0.514642
0.524552
0.540003
0.543428
0.542112
0.535973
0.530593
0.529794
0.336044
0.316779
0.316201
0.316554
0.316794
0.31731
0.318445
0.319397
0.321299
0.325982
0.33015
0.337316
0.357165
0.378609
0.414186
0.484008
0.511629
0.514516
0.524372
0.539832
0.54327
0.541944
0.535749
0.530324
0.529543
0.336044
0.316779
0.316201
0.316554
0.316793
0.317311
0.318445
0.319397
0.321301
0.325986
0.330152
0.337324
0.357186
0.378614
0.414234
0.484166
0.511737
0.514654
0.524623
0.540025
0.543408
0.542083
0.535942
0.530587
0.529793
0.336044
0.316779
0.316201
0.316554
0.316793
0.31731
0.318445
0.319396
0.3213
0.325984
0.330148
0.337321
0.357183
0.378603
0.414217
0.484165
0.511735
0.514656
0.524644
0.54005
0.543424
0.542093
0.535939
0.530583
0.529788
0.336044
0.316779
0.316201
0.316554
0.316794
0.31731
0.318445
0.319397
0.3213
0.325983
0.330149
0.337317
0.357169
0.378611
0.414172
0.484007
0.511635
0.514524
0.524387
0.539856
0.543299
0.541974
0.535779
0.53035
0.529566
0.336044
0.316779
0.316201
0.316554
0.316793
0.31731
0.318444
0.319396
0.3213
0.325983
0.330146
0.337321
0.357185
0.378599
0.414212
0.484159
0.511727
0.514651
0.524648
0.540059
0.543437
0.542106
0.535951
0.53059
0.529793
0.336044
0.316779
0.316201
0.316554
0.316793
0.31731
0.318445
0.319396
0.3213
0.325984
0.330148
0.337321
0.357184
0.378605
0.414223
0.48418
0.51174
0.514656
0.524633
0.540032
0.543413
0.542088
0.535944
0.530591
0.529796
0.336044
0.316779
0.316201
0.316554
0.316793
0.317309
0.318445
0.319396
0.321298
0.325979
0.330144
0.337314
0.357171
0.378591
0.414167
0.484061
0.511638
0.514537
0.524454
0.53987
0.543269
0.541936
0.53574
0.530339
0.52956
0.336044
0.316779
0.316201
0.316554
0.316793
0.31731
0.318444
0.319396
0.321299
0.325984
0.330148
0.337321
0.35718
0.378613
0.414233
0.484138
0.511734
0.514641
0.524569
0.540014
0.54343
0.542111
0.535967
0.530584
0.529783
0.336044
0.316779
0.316201
0.316554
0.316793
0.317309
0.318445
0.319396
0.321298
0.325979
0.330144
0.337312
0.357166
0.378592
0.41416
0.484051
0.511652
0.514551
0.524462
0.539888
0.543294
0.541962
0.53577
0.530366
0.529582
0.336044
0.316779
0.316201
0.316554
0.316793
0.31731