/*--------------------------------*- C++ -*----------------------------------*\
| =========                 |                                                 |
| \\      /  F ield         | OpenFOAM: The Open Source CFD Toolbox           |
|  \\    /   O peration     | Version:  4.1                                   |
|   \\  /    A nd           | Web:      www.OpenFOAM.org                      |
|    \\/     M anipulation  |                                                 |
\*---------------------------------------------------------------------------*/
FoamFile
{
    version     2.0;
    format      ascii;
    class       volVectorField;
    location    "0.44";
    object      U;
}
// * * * * * * * * * * * * * * * * * * * * * * * * * * * * * * * * * * * * * //

dimensions      [0 1 -1 0 0 0 0];

internalField   nonuniform List<vector> 
52500
(
(1.82129 -7.66974e-07 -0.00215655)
(1.84852 1.49621e-06 -0.00196186)
(1.84812 5.38668e-06 -0.00196437)
(1.84691 1.74479e-05 -0.00197228)
(1.84358 5.16401e-05 -0.00199557)
(1.83372 0.00014625 -0.00206472)
(1.79838 0.000452368 -0.00229858)
(1.62648 0.00172918 -0.0033365)
(0.742077 0.0081364 -0.00755534)
(-0.503184 0.0336919 -0.0130871)
(-0.638391 0.0320062 -0.0106299)
(-0.395849 0.0286385 -0.00924765)
(-0.378855 0.0278511 -0.0088627)
(-0.369144 0.0277615 -0.00892611)
(-0.334473 0.0278452 -0.0095516)
(-0.28682 0.0285722 -0.00976391)
(-0.23623 0.0292558 -0.00964254)
(-0.190489 0.0302682 -0.00929225)
(-0.152269 0.0314092 -0.00920402)
(-0.119007 0.0329004 -0.00914785)
(-0.094451 0.0346608 -0.00895124)
(-0.0737099 0.0360855 -0.00872427)
(-0.0563944 0.0372881 -0.00850013)
(-0.0618957 0.0392187 -0.00818804)
(0.0191375 0.0391493 -0.00777509)
(1.82128 -2.4623e-06 -0.00215656)
(1.84853 4.14517e-06 -0.0019618)
(1.84813 1.6929e-05 -0.00196423)
(1.84695 5.60822e-05 -0.00197197)
(1.84368 0.000163878 -0.00199481)
(1.83406 0.00046621 -0.0020624)
(1.79973 0.00145066 -0.00228973)
(1.63346 0.00558032 -0.00329308)
(0.767447 0.0264733 -0.00742282)
(-0.490495 0.100466 -0.0129831)
(-0.640273 0.0830572 -0.0106268)
(-0.394548 0.0710009 -0.00921646)
(-0.375368 0.0681167 -0.00882265)
(-0.365692 0.0668129 -0.00887133)
(-0.331022 0.0663233 -0.00949449)
(-0.283036 0.0668437 -0.00972328)
(-0.232348 0.0670734 -0.00961219)
(-0.186063 0.0685084 -0.00925811)
(-0.147619 0.0710103 -0.00916416)
(-0.114272 0.0746064 -0.00910805)
(-0.090337 0.0791995 -0.00890887)
(-0.0706012 0.0832756 -0.0086794)
(-0.0536577 0.0863916 -0.00845197)
(-0.0605555 0.0909649 -0.00813659)
(0.0197508 0.0900832 -0.0077168)
(1.82128 -4.30903e-06 -0.00215663)
(1.84853 2.0644e-06 -0.00196165)
(1.84816 2.48807e-05 -0.00196392)
(1.84703 9.47409e-05 -0.00197133)
(1.84392 0.000276116 -0.00199317)
(1.8348 0.00077545 -0.00205726)
(1.80275 0.00239244 -0.00227035)
(1.64931 0.00912063 -0.003197)
(0.830148 0.0434853 -0.00712976)
(-0.447883 0.170918 -0.0128095)
(-0.645657 0.141461 -0.0106986)
(-0.392923 0.119163 -0.00920137)
(-0.369224 0.114744 -0.00877237)
(-0.359821 0.113019 -0.00880203)
(-0.32569 0.113187 -0.00941356)
(-0.277673 0.114335 -0.00967912)
(-0.226731 0.114804 -0.00958535)
(-0.179371 0.116815 -0.0092301)
(-0.140435 0.120828 -0.00912762)
(-0.10672 0.126496 -0.00907482)
(-0.0832028 0.133988 -0.00887514)
(-0.0648005 0.141087 -0.00864231)
(-0.0481965 0.146699 -0.00841096)
(-0.0577366 0.155264 -0.00809106)
(0.020774 0.153637 -0.0076634)
(1.82125 -5.59504e-06 -0.00215677)
(1.84852 -9.18407e-06 -0.00196145)
(1.84819 2.87181e-05 -0.00196349)
(1.84714 0.000132394 -0.00197056)
(1.84425 0.000371975 -0.00199098)
(1.83584 0.00100997 -0.00205005)
(1.80686 0.00306708 -0.00224365)
(1.67078 0.0114581 -0.00306663)
(0.925545 0.0543313 -0.00666905)
(-0.384374 0.233671 -0.0125758)
(-0.651767 0.204687 -0.0108201)
(-0.391507 0.167095 -0.00920181)
(-0.360204 0.160349 -0.00872209)
(-0.351496 0.157761 -0.0087292)
(-0.31825 0.158217 -0.00931532)
(-0.270135 0.160005 -0.00962788)
(-0.218759 0.161232 -0.00955843)
(-0.169819 0.164146 -0.00920657)
(-0.129979 0.169914 -0.00909071)
(-0.0954424 0.1781 -0.00904346)
(-0.0721134 0.188908 -0.00884406)
(-0.0552945 0.199924 -0.00860658)
(-0.0383889 0.208825 -0.0083748)
(-0.0521591 0.222593 -0.00804411)
(0.0227586 0.220819 -0.00760196)
(1.82121 -5.56172e-06 -0.00215699)
(1.84851 -2.78619e-05 -0.0019612)
(1.84825 4.08888e-05 -0.00196309)
(1.8473 0.000174782 -0.00196987)
(1.84464 0.000442268 -0.0019883)
(1.83707 0.00115872 -0.00204095)
(1.81168 0.0034918 -0.00221201)
(1.69533 0.0127662 -0.00292004)
(1.04978 0.0599124 -0.00611123)
(-0.290024 0.283502 -0.0122006)
(-0.654837 0.272909 -0.0110333)
(-0.394417 0.214944 -0.00921775)
(-0.34905 0.205209 -0.00865861)
(-0.340992 0.20196 -0.00863649)
(-0.309187 0.202447 -0.00916497)
(-0.260963 0.204795 -0.00955948)
(-0.208855 0.207205 -0.00952576)
(-0.157826 0.21093 -0.00918706)
(-0.116572 0.218396 -0.00905337)
(-0.0806429 0.228987 -0.0090111)
(-0.0568522 0.243154 -0.00881884)
(-0.0416116 0.2588 -0.00857646)
(-0.0241136 0.270928 -0.00833867)
(-0.0438562 0.290559 -0.00798888)
(0.0258282 0.288681 -0.00752049)
(1.82115 -5.05455e-06 -0.00215723)
(1.84851 -4.62485e-05 -0.00196101)
(1.84833 6.22249e-05 -0.00196288)
(1.84746 0.00020278 -0.00196904)
(1.84506 0.000469745 -0.00198474)
(1.8384 0.00121754 -0.00203054)
(1.81677 0.00366504 -0.00217789)
(1.72085 0.0131358 -0.00276818)
(1.19188 0.0614358 -0.00553522)
(-0.1593 0.31303 -0.0116057)
(-0.650087 0.347846 -0.0113583)
(-0.403958 0.263399 -0.00925763)
(-0.336065 0.249627 -0.00859977)
(-0.32854 0.245587 -0.00854306)
(-0.298797 0.245867 -0.00899681)
(-0.250105 0.248737 -0.00948153)
(-0.196918 0.253037 -0.00948693)
(-0.143543 0.257479 -0.00917358)
(-0.100397 0.266736 -0.00901003)
(-0.0624425 0.279505 -0.00897366)
(-0.0371304 0.296991 -0.00879265)
(-0.0236509 0.318559 -0.00854668)
(-0.00481218 0.333535 -0.00830534)
(-0.0324854 0.360691 -0.007926)
(0.0299082 0.359999 -0.00745428)
(1.82108 -4.66369e-06 -0.00215745)
(1.84851 -5.27958e-05 -0.00196131)
(1.84842 7.41611e-05 -0.00196232)
(1.84762 0.000205057 -0.00196747)
(1.84548 0.000462888 -0.00198107)
(1.83976 0.00120359 -0.00202004)
(1.82184 0.00359663 -0.0021427)
(1.74624 0.01263 -0.00261561)
(1.3375 0.058752 -0.00491606)
(0.0241139 0.310173 -0.0107191)
(-0.628826 0.429171 -0.0117015)
(-0.42364 0.314161 -0.00933304)
(-0.321486 0.294031 -0.00854961)
(-0.314009 0.288538 -0.00844573)
(-0.287194 0.288326 -0.00879536)
(-0.237724 0.291836 -0.00938572)
(-0.182911 0.298307 -0.00943965)
(-0.127019 0.303792 -0.00917209)
(-0.08149 0.314856 -0.00895854)
(-0.041019 0.329895 -0.00892877)
(-0.0121966 0.350237 -0.00876358)
(-0.00083077 0.379877 -0.00849521)
(0.0204635 0.397504 -0.00825757)
(-0.015979 0.433134 -0.00786633)
(0.0360831 0.438227 -0.00733854)
(1.82101 -3.16453e-06 -0.00215766)
(1.84852 -4.76044e-05 -0.00196165)
(1.84851 7.43599e-05 -0.00196157)
(1.84777 0.000194741 -0.00196603)
(1.84589 0.00043757 -0.00197754)
(1.84104 0.00113319 -0.00201004)
(1.8265 0.00334164 -0.00210953)
(1.76918 0.0114185 -0.00247509)
(1.46879 0.0513885 -0.00424288)
(0.260348 0.271636 -0.00957392)
(-0.581676 0.512277 -0.0119742)
(-0.454227 0.369236 -0.0094597)
(-0.306093 0.338643 -0.00851672)
(-0.29743 0.330668 -0.00834438)
(-0.274016 0.329562 -0.00858806)
(-0.223763 0.333979 -0.00926879)
(-0.166858 0.342486 -0.00938533)
(-0.108133 0.349858 -0.00918998)
(-0.0596707 0.36243 -0.00890099)
(-0.0165724 0.380514 -0.0088636)
(0.0187309 0.403685 -0.00870487)
(0.0281288 0.440853 -0.00841722)
(0.0518006 0.464879 -0.00816482)
(0.00863057 0.507333 -0.00778268)
(0.0467765 0.527729 -0.00721444)
(1.82096 -8.12017e-07 -0.0021578)
(1.84853 -4.02564e-05 -0.00196198)
(1.8486 7.12716e-05 -0.00196084)
(1.84791 0.000177758 -0.00196466)
(1.84626 0.000395758 -0.00197417)
(1.8422 0.00102322 -0.00200086)
(1.83057 0.00298882 -0.00208047)
(1.78799 0.0099142 -0.00235787)
(1.57491 0.0419362 -0.00363063)
(0.544087 0.211108 -0.00820791)
(-0.494478 0.586526 -0.0122632)
(-0.493447 0.434262 -0.0096948)
(-0.291979 0.383608 -0.00850949)
(-0.278918 0.37193 -0.00823955)
(-0.259054 0.36966 -0.00837257)
(-0.208609 0.374843 -0.00910148)
(-0.148877 0.385264 -0.00931832)
(-0.087173 0.395371 -0.00920275)
(-0.0346614 0.409126 -0.0088523)
(0.0117782 0.430781 -0.00876661)
(0.0544499 0.456176 -0.00862253)
(0.0647353 0.499029 -0.00835071)
(0.0912314 0.534848 -0.00806674)
(0.046414 0.586602 -0.00769128)
(0.066488 0.632767 -0.00697642)
(1.82092 8.94411e-07 -0.00215785)
(1.84855 -3.185e-05 -0.00196238)
(1.84868 6.33238e-05 -0.00196005)
(1.84803 0.000152348 -0.00196335)
(1.84659 0.000338393 -0.00197113)
(1.84322 0.000885038 -0.00199264)
(1.83403 0.00258178 -0.00205536)
(1.80272 0.00837523 -0.00226399)
(1.65375 0.0330893 -0.00316431)
(0.83548 0.162331 -0.00693652)
(-0.346918 0.626339 -0.0120723)
(-0.530445 0.514869 -0.0101294)
(-0.285107 0.429151 -0.00854086)
(-0.258646 0.412428 -0.00813452)
(-0.242047 0.407948 -0.00817343)
(-0.192587 0.414362 -0.0088638)
(-0.129137 0.426281 -0.00924798)
(-0.064391 0.440362 -0.00919894)
(-0.00632963 0.455051 -0.00880182)
(0.0432645 0.479078 -0.00865941)
(0.0937016 0.506137 -0.00852115)
(0.11014 0.554434 -0.00828642)
(0.14282 0.604433 -0.00793792)
(0.106256 0.677315 -0.00754468)
(0.0989494 0.785482 -0.00669702)
(1.82129 -7.22883e-07 -3.08602e-09)
(1.84852 1.61869e-06 -4.2469e-09)
(1.84812 5.62313e-06 -5.09598e-09)
(1.84691 1.78802e-05 -8.54317e-09)
(1.84357 5.25002e-05 -2.00627e-08)
(1.8337 0.000148105 -5.65906e-08)
(1.79831 0.00045755 -1.87019e-07)
(1.62615 0.00175004 -7.85721e-07)
(0.740808 0.00825331 -3.0977e-06)
(-0.504023 0.0339776 -1.92026e-06)
(-0.638177 0.032055 2.01161e-06)
(-0.395625 0.0287105 4.69866e-07)
(-0.378682 0.0279251 2.75989e-07)
(-0.368981 0.0278244 2.79878e-07)
(-0.334373 0.0278825 3.25489e-07)
(-0.286787 0.0285788 3.06955e-07)
(-0.236232 0.0292485 3.17605e-07)
(-0.190512 0.0302584 3.53177e-07)
(-0.152301 0.031396 3.95916e-07)
(-0.119049 0.0328878 4.07605e-07)
(-0.09449 0.0346504 3.83599e-07)
(-0.0737363 0.0360765 3.51159e-07)
(-0.056412 0.0372807 3.26148e-07)
(-0.061905 0.0392148 3.73982e-07)
(0.0191421 0.0391593 3.58666e-07)
(1.82128 -2.46396e-06 -3.14323e-09)
(1.84852 4.19213e-06 -3.76661e-09)
(1.84813 1.69496e-05 -4.45611e-09)
(1.84694 5.59776e-05 -7.31812e-09)
(1.84368 0.00016359 -1.66356e-08)
(1.83404 0.000465626 -4.58962e-08)
(1.79968 0.00144964 -1.47145e-07)
(1.63323 0.00558123 -6.01631e-07)
(0.766523 0.0264805 -2.30883e-06)
(-0.490162 0.100411 -1.99442e-06)
(-0.6394 0.0829266 1.53915e-06)
(-0.39378 0.0709548 5.03999e-07)
(-0.3749 0.0681417 2.46259e-07)
(-0.365372 0.0668742 2.78805e-07)
(-0.330862 0.0663871 3.07925e-07)
(-0.282989 0.0668898 3.05336e-07)
(-0.232353 0.0670934 3.23602e-07)
(-0.186094 0.0685009 3.52089e-07)
(-0.147658 0.070982 3.68222e-07)
(-0.114316 0.0745764 3.64545e-07)
(-0.0903773 0.0791757 3.49357e-07)
(-0.0706308 0.083256 3.33118e-07)
(-0.0536784 0.0863714 3.16576e-07)
(-0.0605621 0.0909444 3.61259e-07)
(0.0197648 0.090085 3.4378e-07)
(1.82128 -4.21753e-06 -3.04198e-09)
(1.84853 2.37408e-06 -3.10878e-09)
(1.84816 2.53032e-05 -3.66423e-09)
(1.84702 9.52557e-05 -6.0945e-09)
(1.84391 0.000276832 -1.38087e-08)
(1.83479 0.000776514 -3.77997e-08)
(1.80269 0.00239412 -1.2088e-07)
(1.64898 0.00912571 -5.03238e-07)
(0.828925 0.0435038 -2.08988e-06)
(-0.449109 0.170995 -1.99391e-06)
(-0.64594 0.1415 1.11842e-06)
(-0.393319 0.119255 3.98078e-07)
(-0.369655 0.114881 2.08982e-07)
(-0.360132 0.113149 2.3717e-07)
(-0.325872 0.113259 2.90498e-07)
(-0.277792 0.11437 2.95492e-07)
(-0.22681 0.114804 3.18532e-07)
(-0.179441 0.116785 3.42014e-07)
(-0.140488 0.120778 3.25839e-07)
(-0.106759 0.126446 2.88371e-07)
(-0.0832301 0.133947 2.74632e-07)
(-0.0648176 0.141055 2.76337e-07)
(-0.0482084 0.146666 2.90568e-07)
(-0.0577369 0.155229 3.43787e-07)
(0.0207816 0.153629 3.2791e-07)
(1.82125 -5.51435e-06 -3.17368e-09)
(1.84852 -8.84328e-06 -2.88578e-09)
(1.84819 2.9164e-05 -3.36778e-09)
(1.84714 0.000133117 -5.28761e-09)
(1.84424 0.000373454 -1.10179e-08)
(1.83583 0.00101306 -2.84418e-08)
(1.80682 0.00307444 -8.72966e-08)
(1.67057 0.0114833 -3.49764e-07)
(0.924608 0.054465 -1.55547e-06)
(-0.38477 0.233852 -2.19557e-06)
(-0.651697 0.204762 9.89928e-07)
(-0.391653 0.167184 3.80913e-07)
(-0.360575 0.160432 1.55133e-07)
(-0.351875 0.157846 2.24258e-07)
(-0.318556 0.158245 2.53452e-07)
(-0.270339 0.159986 3.04737e-07)
(-0.218888 0.161174 3.3979e-07)
(-0.16991 0.164077 3.36816e-07)
(-0.130038 0.169834 2.70393e-07)
(-0.0954723 0.178026 1.96384e-07)
(-0.072126 0.188847 1.79487e-07)
(-0.0552985 0.199874 2.18378e-07)
(-0.0383916 0.208779 2.38762e-07)
(-0.0521511 0.222547 3.0451e-07)
(0.0227576 0.220802 3.05861e-07)
(1.82121 -5.56028e-06 -3.75956e-09)
(1.84851 -2.78521e-05 -3.08901e-09)
(1.84825 4.11267e-05 -3.59519e-09)
(1.8473 0.000175668 -4.88478e-09)
(1.84464 0.000444257 -8.65775e-09)
(1.83706 0.00116255 -2.37895e-08)
(1.81164 0.00349987 -7.65696e-08)
(1.69513 0.0127893 -2.94173e-07)
(1.04876 0.0600033 -1.20101e-06)
(-0.29078 0.283769 -2.36783e-06)
(-0.655051 0.273093 9.51329e-07)
(-0.394885 0.215031 3.00449e-07)
(-0.349735 0.205197 1.53515e-07)
(-0.341587 0.201893 2.62858e-07)
(-0.309615 0.202317 3.30334e-07)
(-0.261231 0.204646 3.52582e-07)
(-0.209011 0.207064 3.57668e-07)
(-0.157926 0.210817 3.22171e-07)
(-0.116628 0.218283 2.25719e-07)
(-0.0806592 0.228887 1.12387e-07)
(-0.0568478 0.243071 7.91329e-08)
(-0.0416002 0.258731 1.44314e-07)
(-0.0241064 0.270867 1.84024e-07)
(-0.043841 0.290503 2.55209e-07)
(0.02582 0.288661 2.83877e-07)
(1.82115 -5.07631e-06 -3.63802e-09)
(1.84851 -4.65013e-05 -3.89635e-09)
(1.84833 6.26304e-05 -2.96182e-09)
(1.84746 0.000204271 -3.17984e-09)
(1.84506 0.00047283 -7.07269e-09)
(1.8384 0.00122367 -2.09162e-08)
(1.81675 0.00367939 -6.97378e-08)
(1.72072 0.0131798 -2.68215e-07)
(1.1911 0.0616138 -1.11047e-06)
(-0.159888 0.313694 -2.9014e-06)
(-0.650209 0.348158 1.0106e-06)
(-0.404269 0.263576 1.95249e-07)
(-0.336549 0.249697 1.17224e-07)
(-0.328963 0.245521 2.03478e-07)
(-0.299119 0.245694 2.90541e-07)
(-0.250303 0.248518 3.28981e-07)
(-0.197023 0.252827 3.97523e-07)
(-0.143623 0.257307 3.68077e-07)
(-0.100443 0.266594 2.09007e-07)
(-0.0624402 0.279383 5.72462e-08)
(-0.037108 0.296887 -6.01609e-10)
(-0.0236248 0.318472 3.09221e-08)
(-0.00479334 0.333459 9.04371e-08)
(-0.0324578 0.360626 1.94059e-07)
(0.0298992 0.359981 2.53919e-07)
(1.82108 -4.69526e-06 -4.63708e-09)
(1.84851 -5.30257e-05 -6.47203e-09)
(1.84842 7.45637e-05 -6.18468e-10)
(1.84762 0.000206219 -9.23266e-10)
(1.84548 0.000465217 -2.35352e-09)
(1.83976 0.00120842 -9.87181e-09)
(1.82183 0.00360846 -3.8211e-08)
(1.74618 0.0126669 -1.58039e-07)
(1.33717 0.058909 -7.55059e-07)
(0.0238599 0.310876 -2.44239e-06)
(-0.628642 0.429543 8.65749e-07)
(-0.423475 0.31437 1.67917e-07)
(-0.321477 0.29417 1.0048e-07)
(-0.314044 0.2885 2.83406e-07)
(-0.287253 0.288178 3.64191e-07)
(-0.237789 0.291609 4.32929e-07)
(-0.182957 0.298077 3.89646e-07)
(-0.127054 0.303576 3.51485e-07)
(-0.081501 0.314697 2.17879e-07)
(-0.0409944 0.32976 4.84754e-08)
(-0.0121545 0.350115 -9.30384e-08)
(-0.000785797 0.379776 -6.22633e-08)
(0.020496 0.397419 -9.81663e-09)
(-0.0159382 0.433061 1.04032e-07)
(0.036075 0.438209 2.11007e-07)
(1.82101 -3.10126e-06 -4.52777e-09)
(1.84852 -4.75833e-05 -7.03516e-09)
(1.84851 7.47981e-05 4.99971e-10)
(1.84777 0.000195668 6.00871e-10)
(1.84589 0.000439258 5.30622e-10)
(1.84104 0.00113624 -2.68806e-09)
(1.8265 0.00334821 -1.61902e-08)
(1.76917 0.0114366 -8.0717e-08)
(1.4687 0.0514624 -4.48977e-07)
(0.260179 0.272007 -1.1005e-06)
(-0.581427 0.512626 3.54205e-08)
(-0.453881 0.369436 1.10744e-07)
(-0.305839 0.338769 1.32243e-07)
(-0.297251 0.330624 2.88667e-07)
(-0.273915 0.3294 4.14583e-07)
(-0.223739 0.333752 4.43252e-07)
(-0.166852 0.34226 4.36419e-07)
(-0.108125 0.349649 3.70674e-07)
(-0.0596444 0.36227 2.55422e-07)
(-0.0165316 0.380375 3.4811e-08)
(0.0187912 0.403554 -1.35334e-07)
(0.0281937 0.440738 -2.2592e-07)
(0.051845 0.464781 -6.12162e-08)
(0.00868483 0.507252 1.19212e-09)
(0.0467734 0.52771 1.38207e-07)
(1.82096 -7.12521e-07 -4.32156e-09)
(1.84853 -4.01913e-05 -8.18207e-09)
(1.8486 7.16542e-05 1.37014e-09)
(1.84791 0.000178597 2.25958e-09)
(1.84626 0.000397196 4.7325e-09)
(1.8422 0.00102544 3.93087e-09)
(1.83058 0.00299255 -1.39742e-09)
(1.78799 0.009922 -3.49781e-08)
(1.57489 0.0419629 -2.19637e-07)
(0.543912 0.211239 -1.00875e-06)
(-0.494386 0.586818 -4.97942e-07)
(-0.493144 0.434456 2.17346e-07)
(-0.291698 0.383716 1.21147e-07)
(-0.278705 0.371885 2.53786e-07)
(-0.258901 0.369491 3.40994e-07)
(-0.208529 0.374642 4.55949e-07)
(-0.148831 0.385059 5.19938e-07)
(-0.0871329 0.395194 4.00804e-07)
(-0.0346124 0.408979 2.82086e-07)
(0.0118333 0.430646 5.17036e-08)
(0.0545217 0.456051 -1.61633e-07)
(0.0648187 0.498901 -3.27829e-07)
(0.0912924 0.534737 -1.77376e-07)
(0.0464841 0.586516 -7.92991e-08)
(0.0664896 0.63275 2.54418e-08)
(1.82092 9.65739e-07 -4.4272e-09)
(1.84855 -3.17171e-05 -8.51898e-09)
(1.84868 6.35741e-05 1.54832e-09)
(1.84803 0.000152805 2.4562e-09)
(1.8466 0.000339139 4.91705e-09)
(1.84322 0.000886276 6.6696e-09)
(1.83404 0.00258381 6.8591e-09)
(1.80273 0.00837912 -8.08714e-09)
(1.65375 0.0331006 -9.98943e-08)
(0.835393 0.162385 -6.25316e-07)
(-0.346955 0.626584 -1.03832e-06)
(-0.530229 0.515059 2.19584e-07)
(-0.284837 0.429251 1.11493e-07)
(-0.258437 0.412413 2.70912e-07)
(-0.24187 0.407829 4.40804e-07)
(-0.192477 0.414202 5.65303e-07)
(-0.129074 0.426117 5.45785e-07)
(-0.0643329 0.440229 4.70944e-07)
(-0.00626884 0.454924 3.43253e-07)
(0.0433266 0.478965 4.89451e-08)
(0.0937799 0.506025 -1.4056e-07)
(0.110234 0.554307 -3.65979e-07)
(0.142898 0.604316 -3.07736e-07)
(0.106344 0.677219 -2.01755e-07)
(0.0989614 0.785462 -5.23184e-08)
(1.82129 -7.65649e-07 1.73079e-10)
(1.84852 1.51858e-06 2.48149e-09)
(1.84812 5.43851e-06 2.89454e-09)
(1.84691 1.75703e-05 3.95532e-09)
(1.84357 5.19597e-05 9.3203e-09)
(1.83371 0.000147097 2.75794e-08)
(1.79834 0.000455053 9.92911e-08)
(1.62628 0.00174011 4.47037e-07)
(0.741347 0.00819385 1.9664e-06)
(-0.503637 0.0338266 1.89139e-06)
(-0.638398 0.0320164 -1.01378e-06)
(-0.396007 0.028644 -6.04168e-07)
(-0.379057 0.02785 -7.69801e-08)
(-0.369311 0.0277386 -1.5407e-08)
(-0.334608 0.027811 1.47998e-07)
(-0.286916 0.0285376 1.66782e-07)
(-0.236289 0.029227 1.31171e-07)
(-0.190533 0.0302459 1.13385e-07)
(-0.152293 0.0313935 2.77204e-09)
(-0.119013 0.0328898 -1.9007e-07)
(-0.0944443 0.0346533 -3.09159e-07)
(-0.073696 0.0360796 -3.32632e-07)
(-0.0563776 0.0372837 -3.24552e-07)
(-0.0618856 0.0392172 -2.21853e-07)
(0.0191478 0.0391613 -1.95116e-07)
(1.82128 -2.43035e-06 7.21447e-11)
(1.84852 4.25604e-06 2.3723e-09)
(1.84813 1.71648e-05 2.70926e-09)
(1.84694 5.65676e-05 3.58319e-09)
(1.84368 0.00016489 7.87154e-09)
(1.83405 0.000468393 2.18232e-08)
(1.7997 0.00145626 7.13813e-08)
(1.63331 0.00559996 2.89426e-07)
(0.766864 0.0265613 1.13356e-06)
(-0.490583 0.10064 1.95673e-06)
(-0.640042 0.0830535 -6.51951e-07)
(-0.394457 0.0710124 -4.56812e-07)
(-0.375377 0.0681158 5.28724e-08)
(-0.36573 0.0667849 4.94379e-09)
(-0.331068 0.0662752 1.95159e-07)
(-0.283086 0.0667942 2.07327e-07)
(-0.232387 0.0670277 1.57277e-07)
(-0.1861 0.0684697 9.30013e-08)
(-0.14764 0.0709781 -2.22301e-08)
(-0.114277 0.0745825 -1.94843e-07)
(-0.0903311 0.0791837 -3.0432e-07)
(-0.0705904 0.0832641 -3.28054e-07)
(-0.0536443 0.0863794 -3.22131e-07)
(-0.0605433 0.0909513 -2.19436e-07)
(0.0197703 0.0900911 -1.92374e-07)
(1.82127 -4.29069e-06 -4.28158e-10)
(1.84853 2.13154e-06 3.26996e-09)
(1.84816 2.50466e-05 3.63498e-09)
(1.84703 9.51253e-05 5.6291e-09)
(1.84391 0.000276942 1.62287e-08)
(1.8348 0.000777287 4.79389e-08)
(1.80273 0.0023972 1.60199e-07)
(1.64918 0.00913779 6.51481e-07)
(0.829624 0.04356 2.97764e-06)
(-0.448166 0.171099 1.83838e-06)
(-0.64556 0.141491 -1.27005e-06)
(-0.392855 0.119186 4.33976e-08)
(-0.369244 0.114751 5.90341e-08)
(-0.359861 0.113002 2.36932e-07)
(-0.325729 0.113143 1.83621e-07)
(-0.277716 0.114282 2.24686e-07)
(-0.226767 0.114744 1.58759e-07)
(-0.179403 0.11676 6.62997e-08)
(-0.140449 0.12078 -6.76155e-08)
(-0.106713 0.126459 -2.13466e-07)
(-0.0831823 0.133962 -3.01486e-07)
(-0.0647769 0.141069 -3.24172e-07)
(-0.0481746 0.146681 -3.21041e-07)
(-0.0577184 0.155242 -2.16798e-07)
(0.0207868 0.153641 -1.89095e-07)
(1.82125 -5.58781e-06 -7.17691e-10)
(1.84852 -9.17182e-06 1.57737e-09)
(1.84819 2.89199e-05 1.45093e-09)
(1.84714 0.000132975 3.75311e-09)
(1.84425 0.000373136 1.42655e-08)
(1.83583 0.00101212 4.02476e-08)
(1.80685 0.00307165 1.13888e-07)
(1.67069 0.0114725 4.18815e-07)
(0.925138 0.054394 1.82201e-06)
(-0.384546 0.233823 2.38988e-06)
(-0.651637 0.204759 -1.21248e-06)
(-0.391354 0.167144 4.56192e-09)
(-0.360161 0.160376 9.30911e-08)
(-0.351497 0.157768 9.55123e-08)
(-0.318275 0.158198 1.93517e-07)
(-0.270173 0.159959 2.4288e-07)
(-0.218793 0.161165 1.62875e-07)
(-0.169845 0.164079 4.09669e-08)
(-0.129983 0.169855 -9.84466e-08)
(-0.0954209 0.17805 -2.24775e-07)
(-0.0720772 0.18887 -3.01876e-07)
(-0.0552575 0.199896 -3.22715e-07)
(-0.0383583 0.2088 -3.20203e-07)
(-0.0521334 0.222565 -2.11874e-07)
(0.0227624 0.220818 -1.8394e-07)
(1.82121 -5.5758e-06 -1.84828e-09)
(1.84851 -2.79368e-05 -7.55257e-10)
(1.84825 4.09849e-05 -4.69822e-10)
(1.8473 0.00017514 4.21815e-09)
(1.84464 0.000442977 1.69518e-08)
(1.83707 0.00115999 3.97856e-08)
(1.81166 0.00349432 1.01577e-07)
(1.69526 0.0127731 3.43316e-07)
(1.0494 0.0599389 1.30764e-06)
(-0.29025 0.283578 2.42571e-06)
(-0.654749 0.272993 -1.12256e-06)
(-0.394333 0.21499 1.82315e-07)
(-0.349088 0.205211 2.30101e-07)
(-0.341063 0.201938 1.47395e-07)
(-0.309269 0.20239 2.65008e-07)
(-0.26104 0.204724 2.81292e-07)
(-0.208906 0.20713 1.4865e-07)
(-0.157849 0.210865 2.65291e-08)
(-0.116567 0.218331 -1.09737e-07)
(-0.0806093 0.228926 -2.23085e-07)
(-0.0568009 0.243104 -3.01567e-07)
(-0.0415601 0.25876 -3.20708e-07)
(-0.024075 0.270894 -3.18099e-07)
(-0.0438251 0.290524 -2.03318e-07)
(0.0258241 0.28868 -1.77804e-07)
(1.82115 -5.0263e-06 -8.24227e-10)
(1.84851 -4.63249e-05 -3.23348e-09)
(1.84833 6.25335e-05 2.61567e-09)
(1.84746 0.000203513 8.03795e-09)
(1.84506 0.000471053 1.20101e-08)
(1.8384 0.00121987 2.73406e-08)
(1.81676 0.00366985 7.65338e-08)
(1.72079 0.0131489 2.6095e-07)
(1.19149 0.0614846 9.89716e-07)
(-0.159679 0.313221 2.41437e-06)
(-0.650139 0.347958 -1.21805e-06)
(-0.404018 0.263471 3.95326e-08)
(-0.336219 0.249644 1.65238e-07)
(-0.328692 0.245562 1.36335e-07)
(-0.29892 0.245795 2.21681e-07)
(-0.250184 0.248657 2.84282e-07)
(-0.196959 0.252956 1.49765e-07)
(-0.143568 0.257408 1.14609e-09)
(-0.100395 0.266667 -1.03798e-07)
(-0.0624012 0.279436 -2.1115e-07)
(-0.0370673 0.296929 -2.99997e-07)
(-0.0235879 0.318507 -3.15391e-07)
(-0.00476556 0.333489 -3.17857e-07)
(-0.0324445 0.36065 -1.87846e-07)
(0.0299022 0.360001 -1.75057e-07)
(1.82108 -4.68933e-06 -3.35021e-10)
(1.84851 -5.29466e-05 -2.57819e-09)
(1.84842 7.43713e-05 3.8703e-09)
(1.84762 0.000205682 4.76571e-09)
(1.84548 0.000464126 7.98654e-09)
(1.83976 0.00120595 1.68521e-08)
(1.82184 0.00360187 4.46789e-08)
(1.7462 0.0126453 1.44537e-07)
(1.33728 0.0588147 5.84468e-07)
(0.0238599 0.310458 1.72685e-06)
(-0.628802 0.429304 -1.06106e-06)
(-0.423595 0.314263 -6.03057e-08)
(-0.321539 0.294101 1.14666e-07)
(-0.314091 0.288549 1.34137e-07)
(-0.287277 0.288292 2.20866e-07)
(-0.237791 0.291768 2.46538e-07)
(-0.182955 0.298223 1.36915e-07)
(-0.127041 0.303705 9.85046e-09)
(-0.0814829 0.314783 -7.27048e-08)
(-0.0409723 0.329821 -1.89535e-07)
(-0.0121226 0.350164 -3.06847e-07)
(-0.000754696 0.379815 -2.84195e-07)
(0.020518 0.397452 -3.31003e-07)
(-0.0159274 0.433086 -2.01451e-07)
(0.0360768 0.43823 -1.55131e-07)
(1.82101 -3.13807e-06 -2.49754e-10)
(1.84852 -4.76616e-05 -1.7605e-09)
(1.84851 7.46534e-05 2.27341e-09)
(1.84777 0.000195489 2.71453e-09)
(1.84589 0.000438973 4.17948e-09)
(1.84104 0.00113554 7.91178e-09)
(1.8265 0.00334616 1.92318e-08)
(1.76916 0.0114296 5.91989e-08)
(1.46868 0.0514309 2.51771e-07)
(0.26014 0.271837 6.24919e-07)
(-0.581659 0.512421 -4.40756e-07)
(-0.454129 0.369341 -8.29007e-08)
(-0.306093 0.33872 3.38434e-08)
(-0.297469 0.330678 1.26398e-07)
(-0.274068 0.329516 2.00928e-07)
(-0.223821 0.333899 2.33972e-07)
(-0.166901 0.342395 1.17388e-07)
(-0.108146 0.349768 4.8705e-08)
(-0.0596562 0.362354 -3.25495e-08)
(-0.0165261 0.380437 -1.54155e-07)
(0.018813 0.403605 -2.55031e-07)
(0.0282173 0.440777 -3.31887e-07)
(0.0518606 0.464814 -2.93172e-07)
(0.00869229 0.507278 -2.27535e-07)
(0.0467739 0.527731 -1.52177e-07)
(1.82096 -7.35331e-07 -9.86688e-11)
(1.84853 -4.02493e-05 -1.59713e-09)
(1.8486 7.1625e-05 1.77464e-09)
(1.84791 0.000178622 2.15391e-09)
(1.84626 0.000397306 3.34035e-09)
(1.8422 0.00102566 4.49562e-09)
(1.83058 0.00299293 7.52866e-09)
(1.78799 0.00992254 1.5979e-08)
(1.57486 0.0419629 6.35208e-08)
(0.543886 0.211224 1.95759e-07)
(-0.494497 0.586681 7.9171e-08)
(-0.493343 0.434366 -1.17578e-07)
(-0.291954 0.383683 -5.74839e-09)
(-0.27893 0.371939 1.25463e-07)
(-0.259075 0.369605 1.49783e-07)
(-0.208637 0.374755 2.0133e-07)
(-0.148908 0.385166 1.28613e-07)
(-0.087179 0.395285 5.72024e-08)
(-0.0346424 0.40905 -8.05703e-09)
(0.0118274 0.430704 -1.42094e-07)
(0.0545335 0.456097 -2.69349e-07)
(0.0648351 0.498937 -3.39778e-07)
(0.0913024 0.534767 -2.74155e-07)
(0.0464874 0.58654 -2.2599e-07)
(0.0664887 0.632768 -1.61062e-07)
(1.82092 9.59881e-07 -1.58916e-10)
(1.84855 -3.17553e-05 -1.47203e-09)
(1.84868 6.35544e-05 1.22469e-09)
(1.84803 0.000152791 1.43804e-09)
(1.8466 0.00033913 1.99846e-09)
(1.84322 0.00088633 2.27408e-09)
(1.83403 0.00258408 2.05465e-09)
(1.80273 0.00838004 -9.21767e-10)
(1.65373 0.0331042 -1.08377e-08)
(0.835321 0.162398 -3.34509e-08)
(-0.346991 0.62651 2.60904e-07)
(-0.530336 0.514967 -6.53773e-08)
(-0.285006 0.429234 -7.32454e-08)
(-0.258569 0.412459 1.09286e-07)
(-0.24199 0.407916 1.52665e-07)
(-0.192566 0.414286 1.52633e-07)
(-0.129139 0.426193 1.10054e-07)
(-0.0643821 0.44029 7.63895e-08)
(-0.00630566 0.454981 1.49265e-08)
(0.0433132 0.479014 -1.34453e-07)
(0.0937827 0.506063 -2.38868e-07)
(0.110244 0.554337 -3.2532e-07)
(0.142903 0.60434 -3.01751e-07)
(0.106343 0.677239 -2.36586e-07)
(0.0989589 0.785477 -1.70547e-07)
(1.82129 -7.523e-07 2.78642e-11)
(1.84852 1.54798e-06 7.98181e-10)
(1.84812 5.4955e-06 7.64717e-10)
(1.84691 1.76766e-05 2.87638e-10)
(1.84357 5.21439e-05 -4.68952e-10)
(1.83371 0.000147425 -3.05155e-09)
(1.79834 0.000455715 -1.26311e-08)
(1.62626 0.00174207 -6.80841e-08)
(0.741267 0.00820294 -3.01673e-07)
(-0.503696 0.0338471 -2.04598e-07)
(-0.638379 0.0320195 2.50338e-07)
(-0.395985 0.0286545 1.05099e-07)
(-0.379048 0.0278627 2.86222e-08)
(-0.369313 0.0277486 3.08733e-08)
(-0.334621 0.0278139 2.03958e-08)
(-0.286935 0.0285349 1.70855e-08)
(-0.236306 0.029222 7.90777e-09)
(-0.190545 0.0302413 -3.91125e-08)
(-0.152297 0.0313892 -8.65801e-08)
(-0.119006 0.0328863 -1.47878e-07)
(-0.0944256 0.0346505 -2.02602e-07)
(-0.0736709 0.0360772 -2.29882e-07)
(-0.0563504 0.0372816 -2.34914e-07)
(-0.0618676 0.0392158 -2.07931e-07)
(0.0191521 0.0391601 -1.8391e-07)
(1.82128 -2.44195e-06 5.97283e-11)
(1.84853 4.21924e-06 8.83793e-10)
(1.84813 1.71015e-05 8.55591e-10)
(1.84695 5.64667e-05 4.64617e-10)
(1.84368 0.000164722 -8.27579e-11)
(1.83405 0.000468129 -1.65849e-09)
(1.7997 0.00145591 -7.51611e-09)
(1.6333 0.00560011 -4.35958e-08)
(0.76681 0.0265665 -1.99048e-07)
(-0.49057 0.100642 -2.28134e-07)
(-0.639991 0.0830318 2.06665e-07)
(-0.394408 0.0709977 9.42777e-08)
(-0.375355 0.0681071 1.28054e-08)
(-0.365725 0.0667834 2.79753e-08)
(-0.331078 0.0662739 8.72987e-09)
(-0.283103 0.0667905 6.18017e-09)
(-0.232403 0.067021 -8.17002e-10)
(-0.186111 0.0684611 -3.64342e-08)
(-0.147643 0.0709686 -8.50572e-08)
(-0.114269 0.0745746 -1.46719e-07)
(-0.0903117 0.0791771 -2.00437e-07)
(-0.0705649 0.0832582 -2.29216e-07)
(-0.0536165 0.0863739 -2.35665e-07)
(-0.0605247 0.0909472 -2.03124e-07)
(0.0197747 0.0900875 -1.77041e-07)
(1.82127 -4.27671e-06 -5.89058e-11)
(1.84853 2.14764e-06 5.14192e-10)
(1.84816 2.50982e-05 3.96617e-10)
(1.84703 9.52263e-05 -1.05178e-11)
(1.84391 0.000277062 -3.91272e-10)
(1.8348 0.000777339 -1.6419e-09)
(1.80272 0.00239693 -7.04545e-09)
(1.64917 0.00913644 -3.78571e-08)
(0.829566 0.043555 -1.62649e-07)
(-0.448187 0.171092 -1.73986e-07)
(-0.64553 0.141507 1.64032e-07)
(-0.392834 0.119216 2.49374e-08)
(-0.369253 0.114787 -2.97737e-08)
(-0.35988 0.113037 -1.75966e-09)
(-0.325756 0.113159 -1.49757e-08)
(-0.277743 0.11428 -1.72349e-09)
(-0.226788 0.114731 -4.01323e-09)
(-0.179417 0.116744 -2.43039e-08)
(-0.140452 0.120764 -7.81499e-08)
(-0.106703 0.126445 -1.42793e-07)
(-0.0831618 0.13395 -1.91538e-07)
(-0.0647508 0.141059 -2.16324e-07)
(-0.0481459 0.146671 -2.28123e-07)
(-0.0576993 0.155235 -1.9589e-07)
(0.0207914 0.153634 -1.74103e-07)
(1.82125 -5.59589e-06 4.462e-11)
(1.84852 -9.21398e-06 5.41181e-10)
(1.84819 2.88699e-05 3.1646e-10)
(1.84714 0.000132901 -1.98712e-11)
(1.84425 0.000372949 -1.18824e-10)
(1.83583 0.00101159 -1.53324e-09)
(1.80685 0.00307003 -8.29102e-09)
(1.67068 0.0114668 -3.82452e-08)
(0.925076 0.0543684 -1.32326e-07)
(-0.384553 0.233738 -7.66356e-08)
(-0.651662 0.204777 2.68274e-07)
(-0.391468 0.16716 -9.92491e-09)
(-0.360319 0.16037 4.06599e-08)
(-0.35165 0.15775 7.90625e-08)
(-0.318395 0.158161 3.08395e-08)
(-0.270247 0.159926 -1.74008e-08)
(-0.218832 0.161133 -2.08389e-08)
(-0.169861 0.164055 -2.6112e-08)
(-0.129985 0.16983 -7.35397e-08)
(-0.0954086 0.17803 -1.36926e-07)
(-0.0720548 0.188853 -1.75752e-07)
(-0.0552302 0.199881 -2.03421e-07)
(-0.0383279 0.208786 -2.14979e-07)
(-0.052113 0.222554 -1.8153e-07)
(0.0227673 0.220808 -1.80299e-07)
(1.82121 -5.58128e-06 -5.65177e-11)
(1.84851 -2.80498e-05 -9.83522e-11)
(1.84825 4.10768e-05 -2.38591e-10)
(1.8473 0.000175475 -2.52132e-10)
(1.84464 0.000443597 -7.297e-10)
(1.83706 0.00116109 -4.8222e-09)
(1.81166 0.00349659 -2.07896e-08)
(1.69522 0.0127789 -8.58066e-08)
(1.04921 0.0599557 -3.30964e-07)
(-0.290499 0.28364 -4.72324e-07)
(-0.654978 0.273067 5.97389e-07)
(-0.394669 0.21503 -2.13414e-07)
(-0.349421 0.205204 -1.10943e-08)
(-0.34132 0.201883 1.29362e-08)
(-0.309424 0.202308 -3.20652e-08)
(-0.261118 0.204646 -3.6517e-08)
(-0.20894 0.207071 -2.41045e-08)
(-0.157865 0.210823 -2.67661e-08)
(-0.116569 0.218296 -7.77938e-08)