/*--------------------------------*- C++ -*----------------------------------*\
| =========                 |                                                 |
| \\      /  F ield         | OpenFOAM: The Open Source CFD Toolbox           |
|  \\    /   O peration     | Version:  4.1                                   |
|   \\  /    A nd           | Web:      www.OpenFOAM.org                      |
|    \\/     M anipulation  |                                                 |
\*---------------------------------------------------------------------------*/
FoamFile
{
    version     2.0;
    format      ascii;
    class       volScalarField;
    location    "0.36";
    object      Ma;
}
// * * * * * * * * * * * * * * * * * * * * * * * * * * * * * * * * * * * * * //

dimensions      [0 0 0 0 0 0 0];

internalField   nonuniform List<scalar> 
18000
(
5.62068e-12
5.55614e-12
5.48137e-12
5.41826e-12
5.35597e-12
5.29447e-12
5.23378e-12
5.17404e-12
5.11519e-12
5.05789e-12
7.06031e-12
6.8069e-12
6.55395e-12
6.3209e-12
6.09791e-12
5.88448e-12
5.68003e-12
5.4843e-12
5.2965e-12
5.11895e-12
8.98239e-12
8.42381e-12
7.89716e-12
7.41645e-12
6.97088e-12
6.55766e-12
6.17434e-12
5.81802e-12
5.48664e-12
5.18099e-12
1.15879e-11
1.05381e-11
9.59427e-12
8.75391e-12
8.00235e-12
7.32841e-12
6.72263e-12
6.17712e-12
5.68503e-12
5.24419e-12
1.51793e-11
1.33392e-11
1.17582e-11
1.03988e-11
9.2272e-12
8.213e-12
7.33197e-12
6.56418e-12
5.89246e-12
5.30871e-12
2.02209e-11
1.7104e-11
1.45481e-11
1.24373e-11
1.06892e-11
9.23194e-12
8.01061e-12
6.98147e-12
6.10934e-12
5.37405e-12
2.7441e-11
2.22454e-11
1.81861e-11
1.49849e-11
1.24444e-11
1.041e-11
8.7677e-12
7.43163e-12
6.33645e-12
5.44053e-12
3.80213e-11
2.93819e-11
2.29911e-11
1.81998e-11
1.45701e-11
1.1786e-11
9.62566e-12
7.93166e-12
6.58956e-12
5.52659e-12
2.61146e-09
2.53705e-09
2.37692e-09
2.23457e-09
2.1077e-09
1.99402e-09
1.89164e-09
1.79902e-09
1.71491e-09
1.65604e-09
2.79099e-07
3.60994e-08
3.0669e-08
2.64634e-08
2.29774e-08
2.0061e-08
1.76016e-08
1.55134e-08
1.36849e-08
4.45756e-08
5.80287e-12
5.7336e-12
5.6577e-12
5.59054e-12
5.52462e-12
5.45997e-12
5.39578e-12
5.33308e-12
5.2713e-12
5.21088e-12
7.32102e-12
7.05026e-12
6.79002e-12
6.54259e-12
6.30669e-12
6.08109e-12
5.86574e-12
5.65985e-12
5.463e-12
5.27549e-12
9.34939e-12
8.75385e-12
8.20959e-12
7.69923e-12
7.22776e-12
6.79152e-12
6.38767e-12
6.01301e-12
5.66521e-12
5.34201e-12
1.21183e-11
1.09998e-11
1.00159e-11
9.12114e-12
8.32338e-12
7.61002e-12
6.97064e-12
6.39647e-12
5.87889e-12
5.4102e-12
1.59648e-11
1.40009e-11
1.23369e-11
1.0882e-11
9.63315e-12
8.55592e-12
7.62295e-12
6.81238e-12
6.10475e-12
5.48088e-12
2.14159e-11
1.80724e-11
1.53542e-11
1.30805e-11
1.12072e-11
9.65255e-12
8.35468e-12
7.26491e-12
6.34398e-12
5.55363e-12
2.93071e-11
2.36951e-11
1.93254e-11
1.58503e-11
1.31111e-11
1.09295e-11
9.17674e-12
7.75719e-12
6.59659e-12
5.62883e-12
4.10297e-11
3.16022e-11
2.46256e-11
1.93751e-11
1.54301e-11
1.24234e-11
1.01043e-11
8.29403e-12
6.86474e-12
5.70688e-12
7.25677e-11
1.1424e-10
9.20307e-11
7.50085e-11
6.19662e-11
5.18002e-11
4.37585e-11
3.73135e-11
3.20881e-11
2.78189e-11
1.77874e-07
2.86678e-08
2.48497e-08
2.17108e-08
1.91277e-08
1.69781e-08
1.51711e-08
1.36382e-08
1.23287e-08
1.14648e-08
4.29067e-13
4.05301e-13
2.48074e-13
2.30888e-13
2.15123e-13
2.01018e-13
1.88717e-13
1.78391e-13
1.69731e-13
1.59059e-13
5.93158e-13
5.21762e-13
4.51119e-13
4.0121e-13
3.5615e-13
3.15994e-13
2.80849e-13
2.51088e-13
2.26836e-13
1.77313e-13
7.0129e-13
5.9318e-13
6.07491e-13
5.34159e-13
4.69869e-13
4.14868e-13
3.68704e-13
3.30439e-13
2.98238e-13
2.02811e-13
9.04804e-13
7.88658e-13
8.65136e-13
7.48813e-13
6.49808e-13
5.67117e-13
4.98323e-13
4.41673e-13
3.93315e-13
2.40509e-13
1.24507e-12
1.15469e-12
1.24137e-12
1.05051e-12
8.9272e-13
7.64388e-13
6.59576e-13
5.73979e-13
5.01285e-13
2.85301e-13
1.81025e-12
1.77024e-12
1.78506e-12
1.46707e-12
1.21382e-12
1.0138e-12
8.54539e-13
7.27083e-13
6.21009e-13
3.3604e-13
2.74678e-12
2.7586e-12
2.57234e-12
2.04017e-12
1.63494e-12
1.32621e-12
1.08777e-12
9.02281e-13
7.52166e-13
3.91372e-13
4.33508e-12
4.3314e-12
3.71992e-12
2.83077e-12
2.187e-12
1.71618e-12
1.36578e-12
1.10168e-12
8.94981e-13
4.50805e-13
9.47844e-11
6.4734e-12
5.18337e-12
3.80628e-12
2.85497e-12
2.18627e-12
1.70462e-12
1.35136e-12
1.08215e-12
5.70623e-13
1.54523e-07
1.22602e-09
8.91786e-10
6.78877e-10
5.25819e-10
4.13548e-10
3.29722e-10
2.66135e-10
2.17233e-10
1.8003e-10
3.86466e-13
3.6158e-13
1.72184e-13
1.51056e-13
1.30703e-13
1.11561e-13
9.36976e-14
7.73568e-14
6.28605e-14
3.67233e-14
5.33141e-13
4.59987e-13
3.86194e-13
3.35699e-13
2.89151e-13
2.47443e-13
2.10639e-13
1.79036e-13
1.52962e-13
7.94325e-14
5.96178e-13
4.88686e-13
5.23832e-13
4.55128e-13
3.95e-13
3.43897e-13
3.01388e-13
2.67278e-13
2.39212e-13
1.19833e-13
7.28819e-13
6.34007e-13
7.60796e-13
6.5694e-13
5.68385e-13
4.95077e-13
4.34565e-13
3.8525e-13
3.43595e-13
1.71236e-13
9.55563e-13
9.42857e-13
1.10789e-12
9.40626e-13
8.01719e-13
6.88523e-13
5.96128e-13
5.21007e-13
4.57067e-13
2.25022e-13
1.33731e-12
1.48369e-12
1.6099e-12
1.33223e-12
1.10879e-12
9.31446e-13
7.89391e-13
6.75592e-13
5.80019e-13
2.81804e-13
1.96998e-12
2.36038e-12
2.33599e-12
1.87049e-12
1.51099e-12
1.23455e-12
1.01923e-12
8.50705e-13
7.13143e-13
3.41685e-13
3.03324e-12
3.7561e-12
3.39153e-12
2.61206e-12
2.03717e-12
1.61219e-12
1.29243e-12
1.04916e-12
8.57198e-13
4.04762e-13
1.01329e-10
6.17406e-12
4.9354e-12
3.63509e-12
2.72522e-12
2.08136e-12
1.61571e-12
1.27367e-12
1.01276e-12
4.70953e-13
1.54693e-07
3.9163e-10
1.83683e-11
1.19576e-11
8.2096e-12
5.78373e-12
4.16748e-12
3.06307e-12
2.28881e-12
1.53067e-12
3.86564e-13
3.61311e-13
1.72592e-13
1.51378e-13
1.30941e-13
1.11715e-13
9.39716e-14
7.75927e-14
6.29241e-14
3.68317e-14
5.33708e-13
4.60352e-13
3.87062e-13
3.36467e-13
2.89862e-13
2.47918e-13
2.10996e-13
1.79465e-13
1.53307e-13
7.95976e-14
5.97388e-13
4.89906e-13
5.25493e-13
4.56459e-13
3.9597e-13
3.44829e-13
3.02138e-13
2.67749e-13
2.39489e-13
1.20069e-13
7.3136e-13
6.36767e-13
7.63403e-13
6.59159e-13
5.70089e-13
4.96433e-13
4.3571e-13
3.86142e-13
3.44221e-13
1.71412e-13
9.60318e-13
9.48e-13
1.11246e-12
9.44157e-13
8.04549e-13
6.90896e-13
5.97897e-13
5.22251e-13
4.58047e-13
2.25725e-13
1.34605e-12
1.49269e-12
1.61733e-12
1.33821e-12
1.11342e-12
9.35153e-13
7.9237e-13
6.77896e-13
5.8184e-13
2.82967e-13
1.98577e-12
2.37634e-12
2.34895e-12
1.88045e-12
1.51873e-12
1.24067e-12
1.02403e-12
8.54367e-13
7.1614e-13
3.43738e-13
3.06153e-12
3.78489e-12
3.41369e-12
2.62879e-12
2.04999e-12
1.62203e-12
1.30008e-12
1.05509e-12
8.6177e-13
4.0801e-13
1.02661e-10
6.24864e-12
4.98033e-12
3.66654e-12
2.74777e-12
2.09785e-12
1.62796e-12
1.28298e-12
1.01997e-12
4.75698e-13
1.60157e-07
4.06384e-10
8.20949e-12
5.06622e-12
3.65081e-12
2.69155e-12
2.02311e-12
1.54795e-12
1.19725e-12
5.54757e-13
3.8667e-13
3.60987e-13
1.73174e-13
1.51891e-13
1.31309e-13
1.12042e-13
9.41358e-14
7.78577e-14
6.31998e-14
3.68595e-14
5.34551e-13
4.60845e-13
3.8834e-13
3.37556e-13
2.90804e-13
2.48672e-13
2.11554e-13
1.79831e-13
1.53772e-13
7.99696e-14
5.99238e-13
4.91727e-13
5.27805e-13
4.58381e-13
3.97592e-13
3.46051e-13
3.031e-13
2.68417e-13
2.40026e-13
1.20503e-13
7.35173e-13
6.40892e-13
7.67197e-13
6.6227e-13
5.72655e-13
4.98346e-13
4.37135e-13
3.8733e-13
3.44998e-13
1.71989e-13
9.67822e-13
9.55604e-13
1.11875e-12
9.492e-13
8.08507e-13
6.9415e-13
6.00458e-13
5.24249e-13
4.59585e-13
2.26736e-13
1.36033e-12
1.50628e-12
1.62812e-12
1.34658e-12
1.11994e-12
9.40362e-13
7.96503e-13
6.81016e-13
5.84415e-13
2.84765e-13
2.01255e-12
2.40014e-12
2.36739e-12
1.89455e-12
1.52955e-12
1.24917e-12
1.03069e-12
8.59533e-13
7.20227e-13
3.46595e-13
3.11224e-12
3.82771e-12
3.44574e-12
2.65238e-12
2.06768e-12
1.63554e-12
1.31055e-12
1.06322e-12
8.68042e-13
4.12298e-13
1.05962e-10
6.33332e-12
5.03617e-12
3.70614e-12
2.77653e-12
2.11925e-12
1.64402e-12
1.29516e-12
1.02936e-12
4.82158e-13
1.72242e-07
4.2568e-10
8.31972e-12
5.11726e-12
3.68809e-12
2.71899e-12
2.04376e-12
1.56377e-12
1.20939e-12
5.6265e-13
3.86691e-13
3.60666e-13
1.73827e-13
1.52513e-13
1.31897e-13
1.1255e-13
9.45468e-14
7.80739e-14
6.33766e-14
3.72082e-14
5.35557e-13
4.6153e-13
3.89932e-13
3.38841e-13
2.91935e-13
2.49707e-13
2.12441e-13
1.80502e-13
1.54023e-13
8.03565e-14
6.0152e-13
4.93929e-13
5.30549e-13
4.60714e-13
3.99517e-13
3.47635e-13
3.04215e-13
2.69298e-13
2.40682e-13
1.20987e-13
7.39843e-13
6.4586e-13
7.71764e-13
6.66003e-13
5.75764e-13
5.0085e-13
4.38976e-13
3.88675e-13
3.46216e-13
1.72862e-13
9.77036e-13
9.64882e-13
1.12633e-12
9.55241e-13
8.13328e-13
6.98117e-13
6.0364e-13
5.26699e-13
4.61453e-13
2.28199e-13
1.37793e-12
1.52255e-12
1.64105e-12
1.35679e-12
1.12792e-12
9.46717e-13
8.01626e-13
6.85051e-13
5.87524e-13
2.87107e-13
2.04564e-12
2.42898e-12
2.38954e-12
1.91161e-12
1.54272e-12
1.25954e-12
1.039e-12
8.65979e-13
7.25276e-13
3.50327e-13
3.17459e-12
3.87928e-12
3.48436e-12
2.68113e-12
2.08932e-12
1.65208e-12
1.32351e-12
1.07327e-12
8.75816e-13
4.17789e-13
1.1106e-10
6.43221e-12
5.10359e-12
3.75448e-12
2.81183e-12
2.14549e-12
1.66393e-12
1.3101e-12
1.04095e-12
4.90105e-13
1.88651e-07
4.51622e-10
8.44707e-12
5.19432e-12
3.74281e-12
2.75859e-12
2.07316e-12
1.5859e-12
1.22596e-12
5.73883e-13
3.86788e-13
3.5987e-13
1.7443e-13
1.53018e-13
1.32526e-13
1.13354e-13
9.57586e-14
8.38739e-14
1.34472e-13
4.02279e-13
5.36505e-13
4.61719e-13
3.9129e-13
3.40124e-13
2.93144e-13
2.50959e-13
2.13788e-13
1.83268e-13
1.71698e-13
2.72625e-13
6.03698e-13
4.9538e-13
5.32906e-13
4.62822e-13
4.01439e-13
3.49517e-13
3.06256e-13
2.71617e-13
2.48278e-13
2.1318e-13
7.44504e-13
6.49453e-13
7.75574e-13
6.69257e-13
5.78561e-13
5.03507e-13
4.41814e-13
3.91623e-13
3.51465e-13
2.1823e-13
9.86113e-13
9.71813e-13
1.1325e-12
9.60457e-13
8.17693e-13
7.01874e-13
6.07519e-13
5.30702e-13
4.66795e-13
2.54867e-13
1.39454e-12
1.53496e-12
1.65137e-12
1.36533e-12
1.13496e-12
9.52872e-13
8.076e-13
6.90867e-13
5.93831e-13
3.06678e-13
2.0755e-12
2.45123e-12
2.40717e-12
1.9258e-12
1.55422e-12
1.2692e-12
1.04783e-12
8.74601e-13
7.33447e-13
3.67132e-13
3.22271e-12
3.91916e-12
3.51485e-12
2.70504e-12
2.10815e-12
1.66733e-12
1.33677e-12
1.08584e-12
8.87313e-13
4.34154e-13
9.70207e-11
6.4381e-12
5.15577e-12
3.7943e-12
2.8424e-12
2.16961e-12
1.684e-12
1.32795e-12
1.0566e-12
5.07488e-13
1.79302e-07
3.38713e-10
8.17302e-12
5.25608e-12
3.79001e-12
2.79498e-12
2.102e-12
1.61038e-12
1.24758e-12
5.93788e-13
3.88003e-13
4.04192e-13
2.15972e-13
1.59446e-13
1.55416e-13
3.20104e-13
6.37827e-13
2.361e-12
9.77015e-12
3.15617e-11
5.43029e-13
5.40674e-13
4.40126e-13
3.56333e-13
2.93138e-13
3.48667e-13
5.62413e-13
1.54884e-12
5.67967e-12
2.02043e-11
6.18782e-13
6.33494e-13
6.06223e-13
4.96969e-13
4.02205e-13
3.83485e-13
5.79881e-13
1.12428e-12
3.57755e-12
1.28851e-11
7.67856e-13
8.36104e-13
8.65522e-13
7.16353e-13
5.85885e-13
5.07302e-13
6.00283e-13
9.18674e-13
2.43467e-12
8.55704e-12
1.0148e-12
1.18393e-12
1.23098e-12
1.01451e-12
8.30667e-13
6.9498e-13
6.81914e-13
8.61926e-13
1.80567e-12
5.91604e-12
1.41885e-12
1.74796e-12
1.74765e-12
1.41747e-12
1.14748e-12
9.407e-13
8.34642e-13
9.57633e-13
1.47896e-12
4.24708e-12
2.07476e-12
2.64123e-12
2.48564e-12
1.9643e-12
1.55785e-12
1.24988e-12
1.04705e-12
1.0436e-12
1.38103e-12
3.15961e-12
3.14036e-12
4.05236e-12
3.55194e-12
2.7132e-12
2.09158e-12
1.63484e-12
1.31708e-12
1.18236e-12
1.38537e-12
2.4362e-12
7.92231e-12
6.23819e-12
5.11585e-12
3.749e-12
2.79023e-12
2.11469e-12
1.64704e-12
1.37534e-12
1.4206e-12
1.95104e-12
7.8754e-09
3.8718e-10
6.84814e-12
5.12134e-12
3.68178e-12
2.70539e-12
2.04229e-12
1.62e-12
1.49415e-12
1.6332e-12
2.5316e-12
2.38821e-12
1.5302e-12
1.54933e-13
2.64677e-12
8.49191e-12
2.48062e-11
8.9266e-11
3.7791e-10
7.81912e-10
3.56521e-12
3.45427e-12
2.56399e-12
1.17359e-12
1.32039e-12
6.18077e-12
1.83418e-11
5.8794e-11
2.20352e-10
4.79816e-10
4.83243e-12
4.71729e-12
3.7425e-12
2.33664e-12
2.95812e-13
4.07607e-12
1.33308e-11
4.07499e-11
1.3885e-10
3.1096e-10
6.49119e-12
6.29619e-12
5.14426e-12
3.63325e-12
1.46913e-12
2.27233e-12
9.62087e-12
2.92409e-11
9.27526e-11
2.09564e-10
8.70462e-12
8.30435e-12
6.84116e-12
5.11667e-12
2.88186e-12
7.80148e-13
6.70911e-12
2.13319e-11
6.45995e-11
1.45903e-10
1.17147e-11
1.09019e-11
8.93226e-12
6.84048e-12
4.40529e-12
1.27562e-12
4.34659e-12
1.55219e-11
4.63515e-11
1.04419e-10
1.58946e-11
1.43328e-11
1.15544e-11
8.88096e-12
6.09248e-12
2.80844e-12
2.38837e-12
1.13263e-11
3.38698e-11
7.6482e-11
2.18503e-11
1.89497e-11
1.48966e-11
1.13406e-11
7.98892e-12
4.43171e-12
1.13995e-12
8.08209e-12
2.50791e-11
5.71022e-11
1.07987e-10
2.52851e-11
1.92373e-11
1.43509e-11
1.01628e-11
6.15986e-12
1.91049e-12
5.49739e-12
1.87614e-11
4.32983e-11
4.55057e-07
7.50717e-10
2.49544e-11
1.80755e-11
1.26794e-11
8.0118e-12
3.42144e-12
3.44589e-12
1.40698e-11
3.32067e-11
3.40615e-12
3.06298e-12
2.02313e-12
1.93485e-12
8.3143e-12
2.85466e-11
1.11497e-10
5.4346e-10
1.51282e-09
1.88896e-09
4.51605e-12
4.2071e-12
3.21224e-12
1.67473e-12
5.20244e-12
1.97214e-11
7.16699e-11
3.08217e-10
8.801e-10
1.06078e-09
5.8673e-12
5.53395e-12
4.55075e-12
2.81161e-12
2.80208e-12
1.3192e-11
4.78004e-11
1.88543e-10
5.40828e-10
6.35801e-10
7.59917e-12
7.14138e-12
6.06913e-12
4.34196e-12
1.97636e-12
8.38679e-12
3.25623e-11
1.21737e-10
3.46488e-10
3.99983e-10
9.87401e-12
9.1407e-12
7.84082e-12
6.03674e-12
3.21099e-12
4.79565e-12
2.21692e-11
8.15159e-11
2.29804e-10
2.61831e-10
1.29359e-11
1.16879e-11
9.96526e-12
7.92385e-12
5.04604e-12
2.51169e-12
1.46725e-11
5.57078e-11
1.56892e-10
1.77107e-10
1.71555e-11
1.50086e-11
1.25775e-11
1.00828e-11
7.03849e-12
2.83935e-12
9.25322e-12
3.84443e-11
1.09351e-10
1.2313e-10
2.31201e-11
1.94346e-11
1.58649e-11
1.26167e-11
9.18522e-12
4.75639e-12
5.22134e-12
2.6508e-11
7.7455e-11
8.74251e-11
8.77993e-11
2.54225e-11
2.00895e-11
1.56645e-11
1.15606e-11
6.93012e-12
2.71536e-12
1.80244e-11
5.55137e-11
6.30005e-11
8.57641e-08
4.27405e-09
2.76312e-11
1.93825e-11
1.42346e-11
9.17056e-12
3.13351e-12
1.17964e-11
4.00213e-11
4.58033e-11
1.01286e-12
1.26633e-12
1.53837e-12
3.23659e-12
8.58418e-12
2.53469e-11
8.84297e-11
3.0957e-10
5.20388e-10
1.1103e-10
1.09575e-12
1.26529e-12
1.40277e-12
2.44929e-12
6.09651e-12
1.76108e-11
5.845e-11
1.92848e-10
3.04515e-10
1.03967e-10
1.1821e-12
1.30404e-12
1.39188e-12
1.9754e-12
4.36584e-12
1.23416e-11
3.95677e-11
1.24395e-10
1.85572e-10
8.49732e-11
1.27028e-12
1.3699e-12
1.45772e-12
1.78011e-12
3.21696e-12
8.70707e-12
2.72812e-11
8.26532e-11
1.17082e-10
6.56236e-11
1.36268e-12
1.4517e-12
1.55837e-12
1.76252e-12
2.52967e-12
6.19018e-12
1.90749e-11
5.62727e-11
7.60033e-11
4.99058e-11
1.46427e-12
1.54636e-12
1.67203e-12
1.83418e-12
2.2039e-12
4.48013e-12
1.34347e-11
3.91729e-11
5.05163e-11
3.82414e-11
1.57978e-12
1.65272e-12
1.79088e-12
1.94449e-12
2.11975e-12
3.37413e-12
9.50923e-12
2.75674e-11
3.43005e-11
2.98014e-11
1.72227e-12
1.77301e-12
1.91542e-12
2.0669e-12
2.16282e-12
2.74685e-12
6.80626e-12
1.9606e-11
2.36246e-11
2.36911e-11
2.35251e-10
2.88258e-12
2.04573e-12
2.19508e-12
2.26422e-12
2.46764e-12
4.96267e-12
1.40688e-11
1.63789e-11
1.92273e-11
1.4774e-07
4.21731e-09
6.65728e-12
2.31535e-12
2.38136e-12
2.39879e-12
3.74047e-12
1.01578e-11
1.13424e-11
1.5806e-11
7.9054e-13
1.50138e-12
1.60863e-12
2.51982e-12
4.15107e-12
7.15724e-12
1.47966e-11
5.38744e-11
2.65541e-10
8.17653e-10
7.2556e-13
1.3488e-12
1.39471e-12
2.14995e-12
3.4872e-12
5.91589e-12
1.13165e-11
3.35478e-11
1.60687e-10
4.52555e-10
6.62772e-13
1.20593e-12
1.20089e-12
1.82563e-12
2.92368e-12
4.87992e-12
8.88354e-12
2.22799e-11
1.01131e-10
2.67485e-10
6.09219e-13
1.08423e-12
1.03993e-12
1.56216e-12
2.46663e-12
4.06125e-12
7.14045e-12
1.57462e-11
6.59475e-11
1.6658e-10
5.63145e-13
9.80011e-13
9.04718e-13
1.34124e-12
2.09354e-12
3.41062e-12
5.83305e-12
1.17188e-11
4.42692e-11
1.08091e-10
5.23598e-13
8.9099e-13
7.91113e-13
1.16009e-12
1.79195e-12
2.88039e-12
4.82969e-12
9.06802e-12
3.04614e-11
7.2516e-11
4.89443e-13
8.1411e-13
6.95233e-13
1.00817e-12
1.53856e-12
2.44629e-12
4.04842e-12
7.22185e-12
2.14192e-11
5.00101e-11
4.7602e-13
7.47453e-13
6.14408e-13
8.7968e-13
1.32916e-12
2.09318e-12
3.42164e-12
5.88366e-12
1.53507e-11
3.53078e-11
3.83261e-10
6.38243e-12
5.47061e-13
7.71594e-13
1.15498e-12
1.80145e-12
2.91102e-12
4.8754e-12
1.11981e-11
2.54364e-11
1.46657e-07
1.41205e-08
4.04074e-11
6.6741e-13
1.0007e-12
1.55043e-12
2.48286e-12
4.08102e-12
8.28519e-12
1.86347e-11
1.06541e-12
1.85742e-12
1.62002e-12
2.17379e-12
3.02786e-12
4.39092e-12
6.96874e-12
1.3614e-11
5.22813e-11
1.45394e-10
9.92148e-13
1.7031e-12
1.45229e-12
1.93854e-12
2.6773e-12
3.8226e-12
5.81353e-12
1.04627e-11
3.71547e-11
9.07699e-11
9.20973e-13
1.55485e-12
1.29071e-12
1.71345e-12
2.35167e-12
3.325e-12
4.90943e-12
8.16996e-12
2.64445e-11
5.97356e-11
8.58905e-13
1.42576e-12
1.15214e-12
1.51909e-12
2.07404e-12
2.90787e-12
4.21521e-12
6.60243e-12
1.90342e-11
4.08804e-11
8.05013e-13
1.31314e-12
1.0329e-12
1.3522e-12
1.83813e-12
2.55883e-12
3.66224e-12
5.49396e-12
1.38431e-11
2.88172e-11
7.57917e-13
1.21448e-12
9.29668e-13
1.20878e-12
1.63276e-12
2.26063e-12
3.2112e-12
4.67601e-12
1.01647e-11
2.07871e-11
7.16513e-13
1.12753e-12
8.40306e-13
1.08441e-12
1.45596e-12
2.00702e-12
2.83173e-12
4.04413e-12
7.52816e-12
1.52774e-11
7.00779e-13
1.05065e-12
7.62721e-13
9.76239e-13
1.30245e-12
1.78647e-12
2.5065e-12
3.53699e-12
5.62302e-12
1.13986e-11
5.70701e-10
1.13548e-11
7.0042e-13
8.81986e-13
1.16906e-12
1.59468e-12
2.22933e-12
3.11615e-12
4.23529e-12
8.60176e-12
1.80362e-07
2.49478e-08
9.94426e-11
9.70353e-13
1.04337e-12
1.42494e-12
1.98427e-12
2.75307e-12
3.19999e-12
6.53927e-12
1.48035e-12
2.34974e-12
1.63094e-12
1.90238e-12
2.28341e-12
2.82909e-12
3.80283e-12
5.95608e-12
1.58124e-11
2.48859e-11
1.40015e-12
2.19877e-12
1.51438e-12
1.76964e-12
2.12265e-12
2.60363e-12
3.36537e-12
4.8739e-12
1.22363e-11
1.90389e-11
1.32015e-12
2.04887e-12
1.39172e-12
1.62793e-12
1.95377e-12
2.38491e-12
3.01302e-12
4.09843e-12
9.32519e-12
1.4591e-11
1.24942e-12
1.91482e-12
1.2809e-12
1.49841e-12
1.79934e-12
2.19247e-12
2.7349e-12
3.55408e-12
7.1042e-12
1.12889e-11
1.18683e-12
1.79475e-12
1.18142e-12
1.38082e-12
1.65928e-12
2.02028e-12
2.50492e-12
3.1583e-12
5.41287e-12
8.79032e-12
1.13123e-12
1.68672e-12
1.09228e-12
1.27488e-12
1.53077e-12
1.86443e-12
2.3038e-12
2.85464e-12
4.12214e-12
6.87642e-12
1.08169e-12
1.58963e-12
1.01229e-12
1.17889e-12
1.41376e-12
1.72218e-12
2.12819e-12
2.60702e-12
3.13843e-12
5.39286e-12
1.06021e-12
1.50193e-12
9.40324e-13
1.09199e-12
1.30746e-12
1.59242e-12
1.96854e-12
2.39911e-12
2.38539e-12
4.23878e-12
7.49249e-10
1.67517e-11
8.83753e-13
1.01306e-12
1.21054e-12
1.47353e-12
1.82254e-12
2.21651e-12
1.80782e-12
3.33639e-12
1.46306e-07
3.45958e-08
1.57815e-10
1.2796e-12
1.11142e-12
1.36221e-12
1.68357e-12
2.04669e-12
1.35499e-12
2.61699e-12
2.09178e-12
2.98253e-12
1.5865e-12
1.60411e-12
1.66575e-12
1.79882e-12
2.14653e-12
2.96057e-12
6.68249e-12
8.39431e-12
2.00648e-12
2.84449e-12
1.52776e-12
1.56191e-12
1.63225e-12
1.74529e-12
1.9906e-12
2.54024e-12
5.41875e-12
6.99569e-12
1.92092e-12
2.70275e-12
1.45217e-12
1.49898e-12
1.57875e-12
1.68522e-12
1.87184e-12
2.23887e-12
4.28388e-12
5.72937e-12
1.84354e-12
2.57194e-12
1.37837e-12
1.43373e-12
1.521e-12
1.62774e-12
1.78448e-12
2.03663e-12
3.36996e-12
4.69089e-12
1.77364e-12
2.45134e-12
1.30744e-12
1.36908e-12
1.46192e-12
1.57105e-12
1.7136e-12
1.89903e-12
2.63306e-12
3.84015e-12
1.71034e-12
2.3402e-12
1.24054e-12
1.30525e-12
1.40154e-12
1.51416e-12
1.65282e-12
1.79915e-12
2.0388e-12
3.13879e-12
1.65297e-12
2.23793e-12
1.17744e-12
1.24338e-12
1.34115e-12
1.45637e-12
1.59515e-12
1.72147e-12
1.55606e-12
2.55934e-12
1.62349e-12
2.14371e-12
1.11823e-12
1.18427e-12
1.28218e-12
1.39829e-12
1.53762e-12
1.65616e-12
1.16613e-12
2.07917e-12
9.23454e-10
2.16695e-11
1.0724e-12
1.12754e-12
1.22475e-12
1.341e-12
1.4807e-12
1.59744e-12
8.52609e-13
1.68076e-12
4.52531e-08
3.97372e-08
3.58906e-10
9.32788e-13
1.15679e-12
1.28224e-12
1.41991e-12
1.53619e-12
5.89406e-13
1.34745e-12
2.93292e-12
3.70852e-12
1.41387e-12
1.21436e-12
1.06782e-12
1.00317e-12
1.13637e-12
1.54053e-12
3.3753e-12
3.78559e-12
2.84805e-12
3.5984e-12
1.41496e-12
1.24875e-12
1.12065e-12
1.0366e-12
1.07914e-12
1.3336e-12
2.8937e-12
3.35646e-12
2.7624e-12
3.48085e-12
1.39361e-12
1.25799e-12
1.15169e-12
1.06653e-12
1.05608e-12
1.18973e-12
2.38421e-12
2.88354e-12
2.68323e-12
3.36828e-12
1.36464e-12
1.25502e-12
1.16984e-12
1.09287e-12
1.05671e-12
1.10518e-12
1.94724e-12
2.47258e-12
2.61011e-12
3.26136e-12
1.3319e-12
1.24419e-12
1.17798e-12
1.11323e-12
1.06825e-12
1.06435e-12
1.57268e-12
2.11545e-12
2.54259e-12
3.15992e-12
1.29617e-12
1.22697e-12
1.17782e-12
1.12687e-12
1.08374e-12
1.05036e-12
1.25089e-12
1.80477e-12
2.48034e-12
3.06419e-12
1.25894e-12
1.20533e-12
1.17126e-12
1.13393e-12
1.0983e-12
1.05084e-12
9.75875e-13
1.5347e-12
2.44501e-12
2.974e-12
1.22124e-12
1.18086e-12
1.15937e-12
1.13474e-12
1.10884e-12
1.0584e-12
7.40898e-13
1.3014e-12
1.11117e-09
2.50419e-11
1.19622e-12
1.15414e-12
1.14375e-12
1.13039e-12
1.1144e-12
1.06798e-12
5.41098e-13
1.10084e-12
7.14227e-08
3.7706e-08
3.47788e-10
1.28729e-12
1.11553e-12
1.11979e-12
1.11302e-12
1.07304e-12
3.66164e-13
9.32221e-13
3.95637e-12
4.42101e-12
1.09026e-12
7.60512e-13
4.95105e-13
3.4939e-13
4.86077e-13
7.94019e-13
2.04238e-12
2.06714e-12
3.878e-12
4.35194e-12
1.13603e-12
8.4262e-13
6.00462e-13
4.19919e-13
4.3e-13
6.49125e-13
1.87603e-12
1.95501e-12
3.80006e-12
4.27579e-12
1.15923e-12
9.00815e-13
6.84572e-13
4.99519e-13
4.26398e-13
5.40564e-13
1.63312e-12
1.76003e-12
3.72638e-12
4.1986e-12
1.17082e-12
9.43575e-13
7.51263e-13
5.74195e-13
4.59006e-13
4.75282e-13
1.41647e-12
1.58389e-12
3.65662e-12
4.12235e-12
1.17417e-12
9.74368e-13
8.04878e-13
6.40607e-13
5.08974e-13
4.53495e-13
1.22335e-12
1.42457e-12
3.59156e-12
4.0474e-12
1.1708e-12
9.96078e-13
8.47844e-13
6.98575e-13
5.64232e-13
4.65452e-13
1.05286e-12
1.2816e-12
3.53024e-12
3.97421e-12
1.16258e-12
1.01022e-12
8.80945e-13
7.47521e-13
6.18344e-13
4.97863e-13
9.04104e-13
1.15431e-12
3.4937e-12
3.90382e-12
1.15081e-12
1.0182e-12
9.06318e-13
7.88281e-13
6.68165e-13
5.40442e-13
7.76294e-13
1.04169e-12
1.28487e-09
2.63192e-11
1.15434e-12
1.02122e-12
9.25793e-13
8.21936e-13
7.12116e-13
5.86108e-13
6.69374e-13
9.43553e-13
1.99404e-07
2.70566e-08
3.17479e-10
1.88505e-12
9.34554e-13
8.47432e-13
7.49312e-13
6.28176e-13
5.8322e-13
8.63709e-13
4.96473e-12
4.97779e-12
7.37381e-13
4.98544e-13
2.72062e-13
1.52646e-13
2.67154e-13
4.61701e-13
1.46996e-12
1.32542e-12
4.89663e-12
4.95377e-12
7.68892e-13
5.3619e-13
3.10869e-13
1.24614e-13
1.63841e-13
3.57665e-13
1.46029e-12
1.34524e-12
4.83116e-12
4.92553e-12
7.91811e-13
5.72532e-13
3.60442e-13
1.6221e-13
7.66532e-14
2.58842e-13
1.35424e-12
1.27085e-12
4.76764e-12
4.89219e-12
8.1033e-13
6.05571e-13
4.10129e-13
2.20217e-13
4.52247e-14
1.67691e-13
1.25784e-12
1.20205e-12
4.70709e-12
4.85606e-12
8.24808e-13
6.35791e-13
4.57159e-13
2.80488e-13
1.08136e-13
8.72574e-14
1.16974e-12
1.13837e-12
4.64894e-12
4.8175e-12
8.35653e-13
6.61985e-13
4.99919e-13
3.3708e-13
1.7615e-13
4.04349e-14
1.08984e-12
1.08008e-12
4.59361e-12
4.77787e-12
8.43135e-13
6.84361e-13
5.38045e-13
3.89052e-13
2.38936e-13
8.3196e-14
1.01858e-12
1.02688e-12
4.56109e-12
4.73836e-12
8.47247e-13
7.02719e-13
5.7142e-13
4.35412e-13
2.95921e-13
1.44754e-13
9.55182e-13
9.78962e-13
1.41845e-09
2.57081e-11
8.77537e-13
7.1801e-13
6.00431e-13
4.76629e-13
3.48003e-13
2.04028e-13
8.9986e-13
9.35713e-13
3.15622e-07
1.3006e-08
2.02222e-10
1.60867e-12
6.24627e-13
5.13309e-13
3.95005e-13
2.59785e-13
8.52219e-13
9.06278e-13
5.62173e-12
5.26637e-12
5.87139e-13
6.05472e-13
5.10548e-13
4.41145e-13
4.00578e-13
4.05763e-13
1.2328e-12
1.01347e-12
5.56076e-12
5.27209e-12
5.23253e-13
5.45032e-13
4.57853e-13
3.93387e-13
3.55077e-13
3.66078e-13
1.29664e-12
1.09043e-12
5.50454e-12
5.27728e-12
4.6842e-13
4.91042e-13
4.10673e-13
3.48822e-13
3.1208e-13
3.24089e-13
1.25468e-12
1.06779e-12
5.44972e-12
5.27626e-12
4.2605e-13
4.45595e-13
3.70371e-13
3.10928e-13
2.73675e-13
2.85477e-13
1.21469e-12
1.04543e-12
5.39641e-12
5.27029e-12
3.9514e-13
4.09191e-13
3.38901e-13
2.80224e-13
2.40658e-13
2.49975e-13
1.17667e-12
1.02455e-12
5.34543e-12
5.261e-12
3.74448e-13
3.80662e-13
3.13975e-13
2.55704e-13
2.13466e-13
2.18965e-13
1.14058e-12
1.00428e-12
5.29617e-12
5.24862e-12
3.61159e-13
3.58666e-13
2.95894e-13
2.38405e-13
1.93306e-13
1.91589e-13
1.10624e-12
9.856e-13
5.26845e-12
5.23486e-12
3.53701e-13
3.42219e-13
2.83509e-13
2.27017e-13
1.78551e-13
1.69566e-13
1.07405e-12
9.67108e-13
1.49051e-09
2.44167e-11
4.12316e-13
3.30654e-13
2.75768e-13
2.21318e-13
1.71457e-13
1.53437e-13
1.04274e-12
9.49522e-13
3.8731e-07
9.87455e-09
1.47402e-10
1.0861e-12
2.71338e-13
2.23387e-13
1.74782e-13
1.50598e-13
1.01439e-12
9.6438e-13
5.62734e-12
5.23709e-12
5.88827e-13
6.30881e-13
5.40199e-13
4.66166e-13
4.12165e-13
3.98415e-13
1.16423e-12
9.67368e-13
5.56619e-12
5.24508e-12
5.0744e-13
5.6154e-13
4.83631e-13
4.18851e-13
3.71689e-13
3.66653e-13
1.23794e-12
1.04819e-12
5.51027e-12
5.25317e-12
4.3544e-13
4.97767e-13
4.3044e-13
3.73247e-13
3.3171e-13
3.30142e-13
1.20387e-12
1.02902e-12
5.45573e-12
5.25479e-12
3.75812e-13
4.41449e-13
3.82997e-13
3.32305e-13
2.95017e-13
2.96578e-13
1.17123e-12
1.01016e-12
5.4031e-12
5.25178e-12
3.29114e-13
3.94005e-13
3.4242e-13
2.9616e-13
2.61949e-13
2.65197e-13
1.13988e-12
9.92564e-13
5.35257e-12
5.24498e-12
2.9454e-13
3.54101e-13
3.08099e-13
2.65461e-13
2.3279e-13
2.36295e-13
1.11006e-12
9.75831e-13
5.30376e-12
5.23506e-12
2.70737e-13
3.21102e-13
2.79565e-13
2.39637e-13
2.07829e-13
2.10354e-13
1.08136e-12
9.59997e-13
5.27641e-12
5.2235e-12
2.56496e-13
2.94675e-13
2.56691e-13
2.18766e-13
1.8664e-13
1.87361e-13
1.05425e-12
9.44772e-13
1.49051e-09
2.44153e-11
3.27994e-13
2.73991e-13
2.39011e-13
2.03141e-13
1.71101e-13
1.68115e-13
1.0277e-12
9.30093e-13
3.8731e-07
9.87455e-09
1.47381e-10
1.0445e-12
2.24592e-13
1.95988e-13
1.65638e-13
1.59738e-13
1.00323e-12
9.58526e-13
4.97289e-12
4.89784e-12
6.82369e-13
5.14235e-13
3.33334e-13
2.28061e-13
2.62386e-13
3.99243e-13
1.23376e-12
1.17376e-12
4.90652e-12
4.88219e-12
6.91952e-13
5.21034e-13
3.35958e-13
1.94574e-13
1.8259e-13
3.1524e-13
1.25704e-12
1.20535e-12
4.84312e-12
4.86287e-12
7.02654e-13
5.35737e-13
3.56551e-13
1.97675e-13
1.18659e-13
2.30722e-13
1.17961e-12
1.14339e-12
4.78179e-12
4.83792e-12
7.13806e-13
5.5364e-13
3.84957e-13
2.24575e-13
9.02244e-14
1.52159e-13
1.10905e-12
1.08638e-12
4.72319e-12
4.81005e-12
7.25109e-13
5.73274e-13
4.17031e-13
2.63472e-13
1.14564e-13
8.21977e-14
1.04463e-12
1.03433e-12
4.66684e-12
4.77927e-12
7.35201e-13
5.92887e-13
4.49707e-13
3.05967e-13
1.61636e-13
3.7204e-14
9.86914e-13
9.8735e-13
4.61312e-12
4.74682e-12
7.43471e-13
6.11058e-13
4.80861e-13
3.47967e-13
2.12501e-13
6.96495e-14
9.35426e-13
9.45049e-13
4.58217e-12
4.71358e-12
7.49787e-13
6.27387e-13
5.09679e-13
3.87451e-13
2.6145e-13
1.23655e-13
8.899e-13
9.07172e-13
1.41845e-09
2.57065e-11
7.83686e-13
6.41685e-13
5.35815e-13
4.24236e-13
3.07583e-13
1.76962e-13
8.50618e-13
8.74282e-13
3.15622e-07
1.3006e-08
2.02181e-10
1.54126e-12
5.58243e-13
4.5776e-13
3.50412e-13
2.2849e-13
8.17158e-13
8.6498e-13
3.96071e-12
4.31935e-12
9.59176e-13
6.54927e-13
3.94653e-13
2.17557e-13
3.33492e-13
6.08363e-13
1.52131e-12
1.73778e-12
3.88826e-12
4.26668e-12
1.00808e-12
7.33436e-13
4.98293e-13
3.06676e-13
2.92135e-13
4.91586e-13
1.43095e-12
1.65833e-12
3.81612e-12
4.20525e-12
1.03847e-12
7.93928e-13
5.83751e-13
3.97087e-13
3.04935e-13
4.01777e-13
1.25477e-12
1.49545e-12
3.74658e-12
4.14154e-12
1.05783e-12
8.40101e-13
6.5289e-13
4.77405e-13
3.51531e-13
3.51566e-13
1.09631e-12
1.34816e-12
3.6809e-12
4.07715e-12
1.06965e-12
8.76408e-13
7.09946e-13
5.47936e-13
4.11362e-13
3.43651e-13
9.55216e-13
1.21567e-12
3.61876e-12
4.01283e-12
1.07468e-12
9.03467e-13
7.56556e-13
6.09445e-13
4.73528e-13
3.67208e-13
8.31595e-13
1.0976e-12
3.56014e-12
3.94935e-12
1.07475e-12
9.23389e-13
7.94122e-13
6.61737e-13
5.32001e-13
4.09027e-13
7.24807e-13
9.93561e-13
3.5258e-12
3.88747e-12
1.07026e-12
9.37247e-13
8.24435e-13
7.06118e-13
5.85537e-13
4.57838e-13
6.35819e-13
9.02515e-13
1.28487e-09
2.63212e-11
1.08024e-12
9.46536e-13
8.48463e-13
7.43514e-13
6.33026e-13
5.07772e-13
5.64047e-13
8.24732e-13
1.99404e-07
2.70566e-08
3.17449e-10
1.83002e-12
8.62556e-13
7.72991e-13
6.7344e-13
5.53589e-13
5.10124e-13
7.67969e-13
2.93939e-12
3.61762e-12
1.2541e-12
1.03695e-12
8.76881e-13
7.89188e-13
8.64615e-13
1.15757e-12
2.23855e-12
3.02767e-12
2.86411e-12
3.52989e-12
1.27666e-12
1.09057e-12
9.47274e-13
8.4579e-13
8.50003e-13
1.0258e-12
1.95366e-12
2.70765e-12
2.7858e-12
3.43102e-12
1.27493e-12
1.11853e-12
9.95987e-13
8.95531e-13
8.57868e-13
9.37453e-13
1.6116e-12
2.32799e-12
2.71222e-12
3.3343e-12
1.26375e-12
1.13258e-12
1.02993e-12
9.38119e-13
8.80801e-13
8.9376e-13
1.31152e-12
1.9961e-12
2.64335e-12
3.24041e-12
1.24601e-12
1.13739e-12
1.05286e-12
9.72886e-13
9.10811e-13
8.81519e-13
1.05181e-12
1.70639e-12
2.57911e-12
3.15022e-12
1.22381e-12
1.13427e-12
1.06667e-12
9.9991e-13
9.41248e-13
8.88694e-13
8.26582e-13
1.45395e-12
2.51936e-12
3.06358e-12
1.19849e-12
1.12558e-12
1.07267e-12
1.01876e-12
9.67891e-13
9.05719e-13
6.31472e-13
1.23524e-12
2.4857e-12
2.9814e-12
1.17102e-12
1.11237e-12
1.07283e-12
1.03117e-12
9.89236e-13
9.26523e-13
4.62982e-13
1.04698e-12
1.11117e-09
2.50475e-11
1.15405e-12
1.09604e-12
1.06781e-12
1.0376e-12
1.00565e-12
9.47214e-13
3.2038e-13
8.86365e-13
7.14227e-08
3.7706e-08
3.47768e-10
1.24383e-12
1.05005e-12
1.03718e-12
1.01413e-12
9.62375e-13
1.93028e-13
7.53942e-13
2.11139e-12
2.92387e-12
1.43072e-12
1.38618e-12
1.38779e-12
1.44609e-12
1.6475e-12
2.13125e-12
3.87825e-12
6.26155e-12
2.03549e-12
2.81045e-12
1.40477e-12
1.38138e-12
1.39545e-12
1.44498e-12
1.58532e-12
1.90936e-12
3.21548e-12
5.27299e-12
1.9559e-12
2.68705e-12
1.35677e-12
1.35093e-12
1.37758e-12
1.42761e-12
1.5346e-12
1.74834e-12
2.56519e-12
4.33422e-12
1.88256e-12
2.57064e-12
1.30542e-12
1.31332e-12
1.35088e-12
1.40602e-12
1.49853e-12
1.64234e-12
2.02973e-12
3.5583e-12
1.81561e-12
2.46157e-12
1.25292e-12
1.2718e-12
1.31881e-12
1.38013e-12
1.46888e-12
1.57247e-12
1.5916e-12
2.91667e-12
1.75385e-12
2.35927e-12
1.20097e-12