/*--------------------------------*- C++ -*----------------------------------*\
| =========                 |                                                 |
| \\      /  F ield         | OpenFOAM: The Open Source CFD Toolbox           |
|  \\    /   O peration     | Version:  4.1                                   |
|   \\  /    A nd           | Web:      www.OpenFOAM.org                      |
|    \\/     M anipulation  |                                                 |
\*---------------------------------------------------------------------------*/
FoamFile
{
    version     2.0;
    format      ascii;
    class       surfaceScalarField;
    location    "0.36";
    object      phi;
}
// * * * * * * * * * * * * * * * * * * * * * * * * * * * * * * * * * * * * * //

dimensions      [1 0 -1 0 0 0 0];

internalField   nonuniform List<scalar> 
51500
(
3.68206e-13
1.13199e-14
1.51457e-11
-1.80048e-15
1.87024e-14
1.49713e-11
-2.31117e-15
1.77542e-14
1.47989e-11
-2.31873e-15
1.6678e-14
1.46286e-11
-2.25509e-15
1.55383e-14
1.44605e-11
-2.22869e-15
1.43525e-14
1.42946e-11
-2.24843e-15
1.31499e-14
1.41308e-11
-2.22216e-15
1.19408e-14
1.39695e-11
-2.1983e-15
1.07123e-14
1.38106e-11
9.4754e-15
1.36558e-11
-7.32921e-17
3.72826e-13
8.37293e-15
1.90395e-11
-9.94659e-15
9.16965e-15
1.83548e-11
-8.69091e-15
7.96197e-15
1.76972e-11
-8.52392e-15
6.97893e-15
1.70677e-11
-8.28306e-15
6.08141e-15
1.64654e-11
-8.03446e-15
5.20094e-15
1.58889e-11
-7.81354e-15
3.98057e-15
1.53366e-11
-7.61272e-15
2.83309e-15
1.48079e-11
-7.29857e-15
1.75546e-15
1.43006e-11
7.53737e-16
1.38208e-11
-7.6588e-16
3.74737e-13
9.67197e-15
2.42386e-11
-2.09068e-14
1.05224e-14
2.27301e-11
-1.70943e-14
8.72131e-15
2.13283e-11
-1.63017e-14
7.1081e-15
2.00292e-11
-1.55015e-14
5.66317e-15
1.88253e-11
-1.48308e-14
4.36694e-15
1.77088e-11
-1.41345e-14
3.21208e-15
1.6673e-11
-1.35403e-14
2.1738e-15
1.57102e-11
-1.27291e-14
1.25238e-15
1.48148e-11
4.61159e-16
1.39888e-11
-1.45196e-15
3.72211e-13
1.22175e-14
3.12872e-11
-3.59501e-14
1.27714e-14
2.84516e-11
-2.79692e-14
1.03153e-14
2.59165e-11
-2.60778e-14
8.18543e-15
2.36451e-11
-2.42968e-14
6.36561e-15
2.16138e-11
-2.26934e-14
4.80361e-15
1.97924e-11
-2.12267e-14
3.4617e-15
1.81553e-11
-1.98971e-14
2.29636e-15
1.66812e-11
-1.83525e-14
1.29508e-15
1.53513e-11
4.54873e-16
1.41599e-11
-2.20483e-15
3.61467e-13
1.56958e-14
4.10051e-11
-5.64272e-14
1.57469e-14
3.60337e-11
-4.23429e-14
1.23177e-14
3.17686e-11
-3.84073e-14
9.49914e-15
2.80932e-11
-3.491e-14
7.19834e-15
2.49259e-11
-3.1844e-14
5.305e-15
2.21844e-11
-2.92005e-14
3.73087e-15
1.9803e-11
-2.68131e-14
2.42802e-15
1.77279e-11
-2.42836e-14
1.34656e-15
1.59125e-11
4.74994e-16
1.43346e-11
-2.97267e-15
3.36388e-13
2.0647e-14
5.4652e-11
-1.00059e-13
1.97632e-14
4.62271e-11
-6.13826e-14
1.49094e-14
3.9316e-11
-5.40199e-14
1.11191e-14
3.36071e-11
-4.77996e-14
8.18086e-15
2.88802e-11
-4.25931e-14
5.86386e-15
2.49403e-11
-3.81387e-14
4.0322e-15
2.16385e-11
-3.42965e-14
2.56789e-15
1.88567e-11
-3.04747e-14
1.39655e-15
1.64995e-11
4.75304e-16
1.45117e-11
-3.80685e-15
2.84555e-13
4.34376e-14
7.42029e-11
-1.6477e-13
3.58597e-14
6.01526e-11
-8.70408e-14
2.28152e-14
4.91607e-11
-7.40082e-14
1.64801e-14
4.05002e-11
-6.36045e-14
1.18128e-14
3.36288e-11
-5.51314e-14
8.31624e-15
2.81271e-11
-4.82056e-14
5.65354e-15
2.36867e-11
-4.24248e-14
3.61523e-15
2.00747e-11
-3.70074e-14
2.03456e-15
1.71143e-11
7.97207e-16
1.4692e-11
-4.64667e-15
2.07023e-13
-8.86216e-14
1.02872e-10
-2.45182e-13
-1.01449e-13
7.94915e-11
-1.21704e-13
-1.13592e-13
6.21628e-11
-9.96251e-14
-1.21614e-13
4.91898e-11
-8.28188e-14
-1.27056e-13
3.93635e-11
-6.976e-14
-1.30767e-13
3.18267e-11
-5.94044e-14
-1.3331e-13
2.59787e-11
-5.10961e-14
-1.35066e-13
2.13925e-11
-4.36433e-14
-1.36282e-13
1.77584e-11
-1.3838e-13
1.48773e-11
-5.55979e-15
1.99658e-12
-4.81347e-10
1.53063e-10
1.43817e-12
-5.03207e-10
1.12762e-10
1.30066e-12
-5.04566e-10
8.54306e-11
1.17889e-12
-5.05475e-10
6.61718e-11
1.07081e-12
-5.06128e-10
5.24054e-11
9.75313e-13
-5.06594e-10
4.24119e-11
8.90948e-13
-5.06921e-10
3.50614e-11
8.16352e-13
-5.07145e-10
2.95923e-11
7.46112e-13
-5.07303e-10
2.54795e-11
-5.12936e-10
2.24539e-11
-6.505e-15
-9.39265e-11
8.72598e-08
-8.80152e-07
1.98377e-10
7.33293e-08
-9.3794e-07
1.97459e-10
6.3694e-08
-9.39688e-07
1.90423e-10
5.58052e-08
-9.41094e-07
1.83331e-10
4.92684e-08
-9.42305e-07
1.76369e-10
4.37975e-08
-9.43361e-07
1.69648e-10
3.91766e-08
-9.44293e-07
1.6273e-10
3.5241e-08
-9.45123e-07
1.10992e-10
3.18648e-08
-9.45895e-07
2.92555e-08
-7.50225e-15
-9.67776e-07
3.4347e-13
9.21664e-14
3.71256e-13
-1.99661e-14
8.67424e-14
3.64673e-13
-2.5873e-14
7.63875e-14
3.5859e-13
-2.52579e-14
6.63716e-14
3.51271e-13
-2.49387e-14
5.66942e-14
3.44685e-13
-2.47268e-14
4.73384e-14
3.38912e-13
-2.45534e-14
3.83e-14
3.32265e-13
-2.43588e-14
2.95754e-14
3.26594e-13
-2.64502e-14
2.11137e-14
3.20874e-13
1.3033e-14
3.14869e-13
-1.59118e-15
2.8389e-13
8.73865e-14
5.18213e-13
-7.37148e-14
7.92755e-14
4.91309e-13
-8.77469e-14
6.71265e-14
4.66572e-13
-8.48757e-14
5.55343e-14
4.41215e-13
-8.24643e-14
4.4448e-14
4.18177e-13
-8.01841e-14
3.32453e-14
3.9595e-13
-7.78849e-14
2.17127e-14
3.75739e-13
-7.62748e-14
1.41609e-14
3.56482e-13
-8.08245e-14
7.83431e-15
3.39055e-13
2.59937e-15
3.2134e-13
-4.33594e-15
1.94544e-13
1.10486e-13
7.34637e-13
-1.86481e-13
9.81145e-14
6.69022e-13
-1.67491e-13
8.18956e-14
6.13301e-13
-1.58928e-13
6.70803e-14
5.5807e-13
-1.51283e-13
5.37196e-14
5.0947e-13
-1.44203e-13
4.16552e-14
4.65803e-13
-1.37521e-13
3.07586e-14
4.26372e-13
-1.31744e-13
2.09429e-14
3.90705e-13
-1.37753e-13
1.2127e-14
3.5846e-13
4.2624e-15
3.2909e-13
-7.04363e-15
7.00596e-14
1.3618e-13
1.0628e-12
-3.21733e-13
1.17496e-13
9.28736e-13
-2.70368e-13
9.57531e-14
8.16858e-13
-2.50714e-13
7.66518e-14
7.13979e-13
-2.33659e-13
6.00148e-14
6.26267e-13
-2.18201e-13
4.55249e-14
5.50891e-13
-2.03956e-13
3.29454e-14
4.86183e-13
-1.91443e-13
2.201e-14
4.30631e-13
-1.96504e-13
1.24878e-14
3.8091e-13
4.30674e-15
3.36916e-13
-9.97661e-15
-5.94601e-14
1.69823e-13
1.57322e-12
-4.94278e-13
1.42086e-13
1.31376e-12
-4.02754e-13
1.12805e-13
1.10444e-12
-3.64663e-13
8.80358e-14
9.23192e-13
-3.32276e-13
6.7289e-14
7.7662e-13
-3.03398e-13
4.99068e-14
6.56568e-13
-2.77732e-13
3.53235e-14
5.57252e-13
-2.55736e-13
2.31114e-14
4.75092e-13
-2.57432e-13
1.28626e-14
4.06111e-13
4.3505e-15
3.46135e-13
-1.31457e-14
-2.14493e-13
2.14347e-13
2.39006e-12
-7.20792e-13
1.73831e-13
1.89197e-12
-5.73643e-13
1.33972e-13
1.51381e-12
-5.06146e-13
1.01748e-13
1.2061e-12
-4.50062e-13
7.5775e-14
9.70214e-13
-4.01672e-13
5.48049e-14
7.86334e-13
-3.59718e-13
3.79174e-14
6.4182e-13
-3.24599e-13
2.42692e-14
5.27176e-13
-3.20728e-13
1.32714e-14
4.35232e-13
4.3781e-15
3.5691e-13
-1.6175e-14
-6.66251e-13
2.71298e-13
3.72794e-12
-1.02369e-12
2.14888e-13
2.78529e-12
-7.94337e-13
1.60671e-13
2.10591e-12
-6.82005e-13
1.18625e-13
1.59213e-12
-5.91063e-13
8.61311e-14
1.22116e-12
-5.14698e-13
6.10067e-14
9.47079e-13
-4.50814e-13
4.14724e-14
7.41726e-13
-3.98048e-13
2.62899e-14
5.86954e-13
-3.86561e-13
1.44056e-14
4.66282e-13
5.10123e-15
3.69172e-13
-1.92478e-14
-1.21178e-12
3.27218e-13
5.99594e-12
-1.43248e-12
2.38012e-13
4.19466e-12
-1.08033e-12
1.69074e-13
2.9785e-12
-9.0059e-13
1.19256e-13
2.12923e-12
-7.59065e-13
8.29011e-14
1.55192e-12
-6.44866e-13
5.60615e-14
1.14763e-12
-5.51606e-13
3.60742e-14
8.61843e-13
-4.76901e-13
2.10686e-14
6.54803e-13
-4.54547e-13
9.73105e-15
5.01998e-13
1.18454e-15
3.82239e-13
-2.24692e-14
-2.04951e-12
1.09831e-11
1.04389e-11
-1.91508e-12
-7.07719e-12
5.80696e-12
-1.32427e-12
-6.90143e-12
3.83521e-12
-1.09956e-12
-6.80401e-12
2.59361e-12
-9.21984e-13
-6.82162e-12
1.82051e-12
-7.77809e-13
-6.91823e-12
1.32295e-12
-6.61085e-13
-7.06925e-12
9.94868e-13
-5.68874e-13
-7.2572e-12
7.74069e-13
-5.47479e-13
-7.47002e-12
6.198e-13
-7.69602e-12
5.02472e-13
-2.56995e-14
-4.7957e-10
5.56518e-09
5.26891e-08
-2.09698e-10
2.35381e-09
-1.13638e-09
-2.06793e-10
1.74873e-09
-1.18979e-09
-1.97427e-10
1.33192e-09
-1.16139e-09
-1.88599e-10
1.03223e-09
-1.13117e-09
-1.80327e-10
8.12524e-10
-1.1014e-09
-1.72602e-10
6.48665e-10
-1.07306e-09
-1.65403e-10
5.24566e-10
-1.04672e-09
-1.59383e-10
4.2928e-10
-1.02423e-09
3.55262e-10
-2.91358e-14
-1.05217e-09
3.46792e-13
8.18065e-14
1.41576e-14
-1.75634e-14
7.76726e-14
1.25575e-14
-2.1601e-14
6.85274e-14
1.11585e-14
-2.00378e-14
5.96969e-14
9.70196e-15
-1.8745e-14
5.11647e-14
8.26438e-15
-1.986e-14
4.2872e-14
6.31582e-15
-1.88316e-14
3.49109e-14
5.5557e-15
-1.91651e-14
2.71922e-14
4.76212e-15
-2.34105e-14
1.97291e-14
3.99526e-15
1.25954e-14
3.89856e-15
-1.38084e-15
2.95572e-13
5.88675e-14
2.2814e-14
-6.5538e-14
5.40705e-14
2.01865e-14
-7.06336e-14
4.5823e-14
1.99573e-14
-6.61719e-14
3.79856e-14
1.62081e-14
-6.4827e-14
3.06768e-14
1.35063e-14
-6.2103e-14
2.39268e-14
1.16042e-14
-6.0492e-14
1.76745e-14
9.09649e-15
-5.99253e-14
1.19676e-14
7.47406e-15
-7.12888e-14
6.8248e-15
6.82655e-15
2.38776e-15
5.47974e-15
-4.41292e-15
2.174e-13
7.51889e-14
3.39335e-14
-1.65649e-13
6.78967e-14
3.11105e-14
-1.33844e-13
5.70674e-14
3.10622e-14
-1.23372e-13
4.71604e-14
2.622e-14
-1.16983e-13
3.81558e-14
2.17132e-14
-1.11215e-13
2.99269e-14
1.75218e-14
-1.05491e-13
2.2506e-14
1.5017e-14
-1.03417e-13
1.61703e-14
1.28994e-14
-1.21215e-13
9.43065e-15
1.08122e-14
3.32605e-15
8.66787e-15
-7.24854e-15
9.58386e-14
9.34252e-14
5.49091e-14
-2.89181e-13
8.17678e-14
5.23954e-14
-2.14257e-13
6.70782e-14
5.14365e-14
-1.87182e-13
5.4122e-14
4.21281e-14
-1.74129e-13
4.28451e-14
3.50219e-14
-1.6231e-13
3.29869e-14
2.91889e-14
-1.48771e-13
2.44065e-14
2.46034e-14
-1.49783e-13
1.68202e-14
2.08039e-14
-1.7305e-13
9.70304e-15
1.85885e-14
3.44253e-15
1.32991e-14
-1.03526e-14
-2.15291e-14
1.17743e-13
9.45819e-14
-4.45831e-13
9.94036e-14
8.98853e-14
-3.09579e-13
7.93928e-14
8.43631e-14
-2.64722e-13
6.24118e-14
6.90873e-14
-2.41002e-13
4.81868e-14
5.60617e-14
-2.19578e-13
3.62612e-14
4.60059e-14
-1.99811e-13
2.64948e-14
3.88676e-14
-1.96146e-13
1.80634e-14
3.34709e-14
-2.26786e-13
1.02303e-14
2.87816e-14
3.52186e-15
1.99366e-14
-1.32823e-14
-1.57352e-13
1.50396e-13
1.66003e-13
-6.50937e-13
1.2272e-13
1.57572e-13
-4.20912e-13
9.48535e-14
1.39147e-13
-3.62776e-13
7.24448e-14
1.10715e-13
-3.22088e-13
5.44718e-14
8.87595e-14
-2.86509e-13
3.99313e-14
7.17782e-14
-2.55616e-13
2.82309e-14
5.92691e-14
-2.35847e-13
1.90026e-14
4.98834e-14
-2.82728e-13
1.04025e-14
4.10282e-14
3.55015e-15
2.83348e-14
-1.64964e-14
-5.69883e-13
1.94283e-13
2.93964e-13
-9.25753e-13
1.53005e-13
2.72658e-13
-5.73125e-13
1.143e-13
2.2682e-13
-4.84536e-13
8.46773e-14
1.75102e-13
-4.18967e-13
6.19073e-14
1.36529e-13
-3.63542e-13
4.42671e-14
1.07919e-13
-3.16791e-13
3.12054e-14
8.72986e-14
-2.84262e-13
2.0022e-14
7.11578e-14
-3.40583e-13
1.08911e-14
5.86407e-14
3.71541e-15
3.85777e-14
-1.97013e-14
-1.09688e-12
3.07008e-13
5.30747e-13
-1.29635e-12
2.93564e-13
4.69617e-13
-7.73096e-13
2.02519e-13
3.68149e-13
-6.36513e-13
1.4041e-13
2.71331e-13
-5.34648e-13
9.55488e-14
2.04633e-13
-4.51694e-13
6.25659e-14
1.57954e-13
-3.85155e-13
3.76693e-14
1.23247e-13
-3.3556e-13
2.03543e-14
9.82369e-14
-4.0065e-13
1.06306e-14
7.97911e-14
3.45659e-15
5.02353e-14
-2.30354e-14
-1.97143e-12
1.86696e-11
2.49129e-12
-1.78763e-12
8.71908e-13
7.83921e-13
-1.03539e-12
5.36074e-13
5.70342e-13
-8.26057e-13
3.54741e-13
4.05801e-13
-6.72601e-13
2.25071e-13
2.96257e-13
-5.53834e-13
1.31725e-13
2.2124e-13
-4.60529e-13
6.40744e-14
1.69057e-13
-3.91711e-13
1.48384e-14
1.31505e-13
-4.64202e-13
-2.11018e-14
1.04371e-13
-4.62514e-14
6.64802e-14
-2.63875e-14
-2.46559e-10
2.93566e-09
4.84194e-08
-1.41568e-11
6.9049e-11
5.67622e-11
-1.41549e-11
3.11777e-11
-7.83958e-12
-1.16771e-11
2.04026e-11
-4.66918e-12
-9.69912e-12
1.38142e-11
-2.30801e-12
-8.14142e-12
9.60097e-12
-1.10846e-12
-6.89881e-12
6.83075e-12
-2.01827e-13
-5.89888e-12
4.96109e-12
4.8607e-13
-5.08703e-12
3.67155e-12
1.00338e-12
2.69959e-12
-2.99385e-14
2.6384e-12
3.46822e-13
8.1184e-14
1.06049e-14
-1.76414e-14
7.71326e-14
9.59356e-15
-2.13376e-14
6.80812e-14
8.04818e-15
-1.96592e-14
5.93019e-14
6.18785e-15
-1.92016e-14
5.08408e-14
4.13257e-15
-1.92791e-14
4.26511e-14
3.33854e-15
-1.78367e-14
3.47273e-14
1.96236e-15
-1.90917e-14
2.7066e-14
9.20321e-16
-2.31708e-14
1.96831e-14
4.88644e-16
1.25959e-14
9.31259e-17
-1.49208e-15
2.96208e-13
5.81396e-14
1.83197e-14
-6.51332e-14
5.34562e-14
1.61638e-14
-6.98711e-14
4.5301e-14
1.63677e-14
-6.43682e-14
3.76058e-14
1.28641e-14
-6.28912e-14
3.0384e-14
9.15071e-15
-6.11658e-14
2.36816e-14
6.74948e-15
-5.9002e-14
1.75385e-14
5.40381e-15
-5.83573e-14
1.19028e-14
4.13996e-15
-7.07646e-14
6.79191e-15
2.79189e-15
2.40622e-15
1.63146e-15
-4.33919e-15
2.19053e-13
7.39837e-14
2.62433e-14
-1.64342e-13
6.68582e-14
2.47873e-14
-1.30823e-13
5.61592e-14
2.65607e-14
-1.16209e-13
4.62813e-14
2.02768e-14
-1.12761e-13
3.73915e-14
1.67595e-14
-1.0362e-13
2.93268e-14
1.40562e-14
-9.88804e-14
2.18336e-14
1.07593e-14
-1.01808e-13
1.50588e-14
9.0179e-15
-1.20151e-13
9.35642e-15
7.69501e-15
3.15603e-15
5.46956e-15
-7.21038e-15
9.80408e-14
9.19203e-14
4.33792e-14
-2.86827e-13
8.0445e-14
4.36165e-14
-2.07998e-13
6.59371e-14
4.61262e-14
-1.79119e-13
5.31972e-14
3.75249e-14
-1.67028e-13
4.19821e-14
3.07209e-14
-1.55472e-13
3.21437e-14
2.61339e-14
-1.44541e-13
2.3571e-14
2.13592e-14
-1.44918e-13
1.60442e-14
1.8402e-14
-1.71784e-13
9.53131e-15
1.54184e-14
3.48275e-15
1.04196e-14
-1.0401e-14
-1.79096e-14
1.1577e-13
7.65821e-14
-4.41937e-13
9.78453e-14
8.03639e-14
-2.91578e-13
7.8086e-14
7.91707e-14
-2.58106e-13
6.13038e-14
6.38816e-14
-2.34831e-13
4.72931e-14
5.35381e-14
-2.13682e-13
3.54776e-14
4.40962e-14
-1.94813e-13
2.54746e-14
3.69783e-14
-1.84876e-13
1.71369e-14
3.1807e-14
-2.25192e-13
9.88598e-15
2.84181e-14
3.57355e-15
1.90002e-14
-1.33489e-14
-1.52092e-13
1.47764e-13
1.35217e-13
-6.44853e-13
1.20691e-13
1.4178e-13
-4.08875e-13
9.32433e-14
1.34301e-13
-3.54885e-13
7.12119e-14
1.07933e-13
-3.15337e-13
5.34609e-14
8.78984e-14
-2.80466e-13
3.90539e-14
7.28864e-14
-2.5018e-13
2.74216e-14
6.10484e-14
-2.30667e-13
1.7998e-14
5.0783e-14
-2.80619e-13
1.04282e-14
4.45006e-14
3.65329e-15
2.89002e-14
-1.66458e-14
-5.57285e-13
1.90961e-13
2.41506e-13
-9.16162e-13
1.50475e-13
2.53275e-13
-5.60153e-13
1.12455e-13
2.22818e-13
-4.75296e-13
8.32082e-14
1.7549e-13
-4.11253e-13
6.07392e-14
1.39654e-13
-3.56786e-13
4.33376e-14
1.13728e-13
-3.11552e-13
2.96735e-14
9.19992e-14
-2.78654e-13
1.90132e-14
7.69951e-14
-3.38484e-13
1.08576e-14
6.5293e-14
3.59017e-15
4.19094e-14
-1.98502e-14
-1.07751e-12
3.03496e-13
4.32634e-13
-1.28071e-12
1.77809e-13
4.41389e-13
-7.58282e-13
1.40869e-13
3.64466e-13
-6.25272e-13
1.02024e-13
2.79422e-13
-5.25468e-13
7.49663e-14
2.16337e-13
-4.44764e-13
5.4923e-14
1.69851e-13
-3.79374e-13
3.68452e-14
1.35536e-13
-3.29873e-13
2.30531e-14
1.10242e-13
-3.98721e-13
1.2543e-14
9.01392e-14
4.66713e-15
5.91055e-14
-2.30191e-14
-1.94519e-12
1.87062e-11
3.46267e-12
-1.76325e-12
3.79787e-13
7.82676e-13
-1.01835e-12
2.48814e-13
5.95191e-13
-8.13398e-13
1.56335e-13
4.36624e-13
-6.62725e-13
1.01513e-13
3.25019e-13
-5.45798e-13
6.31993e-14
2.486e-13
-4.54096e-13
3.66718e-14
1.92504e-13
-3.85619e-13
2.13462e-14
1.52619e-13
-4.60832e-13
1.04576e-14
1.20886e-13
2.76546e-15
7.39638e-14
-2.65172e-14
-2.33136e-10
4.3491e-09
4.86281e-08
-3.00167e-12
2.51789e-11
7.28904e-11
-1.48315e-12
1.52454e-12
6.72864e-13
-1.25072e-12
9.54532e-13
4.88185e-13
-9.8126e-13
6.5651e-13
3.70789e-13
-7.80335e-13
4.67178e-13
2.08374e-13
-6.29299e-13
3.41332e-13
1.78871e-13
-5.23511e-13
2.55098e-13
1.59871e-13
-5.76163e-13
1.94215e-13
1.60211e-13
1.19651e-13
-3.0084e-14
1.39849e-13
3.46695e-13
8.13039e-14
1.84017e-14
-1.79572e-14
7.72279e-14
1.62197e-14
-2.14179e-14
6.81751e-14
1.27097e-14
-2.02709e-14
5.93817e-14
8.15138e-15
-1.78377e-14
5.0899e-14
8.32134e-15
-1.96201e-14
4.26828e-14
3.88962e-15
-1.9008e-14
3.47778e-14
4.52118e-15
-1.88409e-14
2.7133e-14
3.4486e-15
-2.3173e-14
1.9724e-14
8.85488e-16
1.26299e-14
2.73828e-16
-1.70437e-15
2.95921e-13
5.82668e-14
2.88226e-14
-6.54294e-14
5.35748e-14
2.45818e-14
-6.99737e-14
4.53973e-14
2.11576e-14
-6.53832e-14
3.76553e-14
1.74316e-14
-6.28672e-14
3.04653e-14
1.20642e-14
-6.09442e-14
2.37675e-14
9.61304e-15
-5.88234e-14
1.75873e-14
6.55863e-15
-5.88454e-14
1.19469e-14
6.87697e-15
-7.08257e-14
6.84526e-15
5.70929e-15
2.4582e-15
1.93072e-15
-4.35741e-15
2.186e-13
7.41859e-14
4.15164e-14
-1.64979e-13
6.70342e-14
3.64308e-14
-1.31902e-13
5.63282e-14
3.69759e-14
-1.15293e-13
4.64821e-14
3.06171e-14
-1.111e-13
3.7499e-14
2.37607e-14
-1.0486e-13
2.94304e-14
1.80238e-14
-9.85638e-14
2.19764e-14
1.65675e-14
-1.0202e-13
1.51934e-14
1.23603e-14
-1.2016e-13
9.27359e-15
1.37277e-14
3.0869e-15
6.54766e-15
-7.43589e-15
9.75429e-14
9.22858e-14
6.91738e-14
-2.8769e-13
8.07917e-14
6.37509e-14
-2.08986e-13
6.6183e-14
6.42638e-14
-1.7966e-13
5.33727e-14
5.21103e-14
-1.66883e-13
4.21878e-14
4.31282e-14
-1.56219e-13
3.22487e-14
3.38126e-14
-1.44477e-13
2.36528e-14
3.40179e-14
-1.4569e-13
1.61469e-14
2.58827e-14
-1.71945e-13
9.84822e-15
2.5447e-14
3.70644e-15
1.92807e-14
-1.02236e-14
-1.88019e-14
1.16311e-13
1.08457e-13
-4.43498e-13
9.82794e-14
1.12001e-13
-2.92778e-13
7.84949e-14
1.11505e-13
-2.58346e-13
6.16592e-14
9.22506e-14
-2.35706e-13
4.75508e-14
7.60079e-14
-2.14178e-13
3.57642e-14
6.81125e-14
-1.95151e-13
2.57633e-14
5.71307e-14
-1.84644e-13
1.72219e-14
4.5969e-14
-2.25606e-13
9.8335e-15
3.87251e-14
3.63185e-15
2.49248e-14
-1.33843e-14
-1.53646e-13
1.48642e-13
1.96792e-13
-6.47193e-13
1.21467e-13
2.04998e-13
-4.10528e-13
9.38395e-14
1.86265e-13
-3.56079e-13
7.1692e-14
1.50968e-13
-3.16183e-13
5.38684e-14
1.22271e-13
-2.81296e-13
3.93872e-14
1.03209e-13
-2.5106e-13
2.763e-14
8.20926e-14
-2.30824e-13
1.82999e-14
7.64076e-14
-2.81356e-13
1.07132e-14
6.18135e-14
3.83782e-15
3.96257e-14
-1.6574e-14
-5.61554e-13
1.92346e-13
3.44842e-13
-9.20346e-13
1.51576e-13
3.54015e-13
-5.62594e-13
1.13319e-13
3.14256e-13
-4.77301e-13
8.39139e-14
2.41933e-13
-4.12745e-13
6.1313e-14
1.97438e-13
-3.58396e-13
4.37712e-14
1.55149e-13
-3.12563e-13
3.00722e-14
1.28308e-13
-2.79434e-13
1.92348e-14
1.05854e-13
-3.39708e-13
1.10928e-14
8.77365e-14
4.00688e-15
5.70444e-14
-1.98314e-14
-1.08572e-12
3.06154e-13
6.13236e-13
-1.28766e-12
1.78712e-13
6.24085e-13
-7.62233e-13
1.39277e-13
5.07704e-13
-6.28602e-13
1.00132e-13
3.84714e-13
-5.2815e-13
7.16009e-14
2.99079e-13
-4.47009e-13
5.31462e-14
2.34628e-13
-3.81141e-13
3.63564e-14
1.89531e-13
-3.31465e-13
2.29644e-14
1.52798e-13
-4.00417e-13
1.25985e-14
1.25448e-13
4.7996e-15
7.98985e-14
-2.31512e-14
-1.96148e-12
1.89212e-11
4.77216e-12
-1.77477e-12
3.65354e-13
1.093e-12
-1.02511e-12
2.28412e-13
8.22572e-13
-8.18838e-13
1.63711e-13
5.98646e-13
-6.66832e-13
1.0677e-13
4.52163e-13
-5.49316e-13
6.60086e-14
3.42925e-13
-4.56736e-13
3.08735e-14
2.64565e-13
-3.88023e-13
1.6924e-14
2.07737e-13
-4.63538e-13
8.65644e-15
1.68911e-13
3.26665e-15
1.11117e-13
-2.65573e-14
-2.37035e-10
6.04701e-09
5.00152e-08
-2.73163e-12
3.5824e-11
7.65259e-11
-1.28913e-12
1.25472e-12
2.85473e-13
-1.05994e-12
8.14286e-13
1.14621e-13
-8.35293e-13
5.85841e-13
7.18381e-14
-6.67775e-13
4.32539e-13
5.33054e-14
-5.41285e-13
3.26303e-13
4.10162e-14
-4.48156e-13
2.50862e-13
3.22409e-14
-5.29292e-13
1.94831e-13
2.57224e-14
1.19344e-13
-3.01619e-14
2.08975e-14
3.46409e-13
8.1467e-14
1.98753e-14
-1.83087e-14
7.73685e-14
1.51353e-14
-2.19429e-14
6.82689e-14
1.74217e-14
-1.9906e-14
5.94844e-14
1.31937e-14
-1.96546e-14
5.09557e-14
7.52229e-15
-1.92066e-14
4.27491e-14
4.83326e-15
-1.8912e-14
3.48131e-14
2.40686e-15
-1.94087e-14
2.71729e-14
1.38057e-15
-2.321e-14
1.97835e-14
8.33841e-16
1.26663e-14
5.09962e-16
-1.55193e-15
2.95487e-13
5.84499e-14
3.57784e-14
-6.59815e-14
5.37367e-14
3.2495e-14
-6.97941e-14
4.55541e-14
3.1568e-14
-6.64172e-14
3.77724e-14
2.28224e-14
-6.23842e-14
3.05836e-14
2.06628e-14
-6.16267e-14
2.38552e-14
1.31061e-14
-5.80114e-14
1.76781e-14
9.08428e-15
-5.88153e-14
1.20147e-14
5.51587e-15
-7.10404e-14
6.91455e-15
4.87164e-15
2.51782e-15
3.21413e-15
-4.3689e-15
2.17894e-13
7.45049e-14
4.72872e-14
-1.65934e-13
6.72995e-14
4.94062e-14
-1.32301e-13
5.65446e-14
5.01929e-14
-1.15791e-13
4.6663e-14
4.18761e-14
-1.12149e-13
3.76414e-14
3.17614e-14
-1.04464e-13
2.95175e-14
2.53685e-14
-9.92583e-14
2.21378e-14
1.81137e-14
-1.01478e-13
1.53751e-14
1.94057e-14
-1.20451e-13
9.26061e-15
1.2534e-14
3.49432e-15
8.99601e-15
-7.40445e-15
9.67289e-14
9.27531e-14
8.65749e-14
-2.88999e-13
8.12157e-14
8.60774e-14
-2.09686e-13
6.65502e-14
8.68136e-14
-1.80144e-13
5.36943e-14
7.25526e-14
-1.6807e-13
4.24876e-14
5.59463e-14
-1.5563e-13
3.25828e-14
4.60942e-14
-1.45267e-13
2.38423e-14
3.54813e-14
-1.45871e-13
1.62892e-14
3.51703e-14
-1.72145e-13
9.95627e-15
2.76617e-14
3.66747e-15
1.64247e-14
-1.03275e-14
-2.01599e-14
1.17117e-13
1.51731e-13
-4.4552e-13
9.89654e-14
1.54268e-13
-2.94128e-13
7.90279e-14
1.50965e-13
-2.59316e-13
6.2104e-14
1.23221e-13
-2.36361e-13
4.78847e-14
1.00946e-13
-2.1514e-13
3.60453e-14
8.11351e-14
-1.9561e-13
2.59635e-14
6.2947e-14
-1.85127e-13
1.7483e-14
5.45801e-14
-2.26166e-13
1.01343e-14
4.57771e-14
3.93725e-15
3.06917e-14
-1.33329e-14
-1.55864e-13
1.49875e-13
2.48502e-13
-6.50651e-13
1.22468e-13
2.75136e-13
-4.12542e-13
9.4687e-14
2.54765e-13
-3.57837e-13
7.23446e-14
2.01694e-13
-3.17263e-13
5.44561e-14
1.63816e-13
-2.8292e-13
3.98034e-14
1.24074e-13
-2.51715e-13
2.80417e-14
1.11675e-13
-2.31642e-13
1.84729e-14
8.5322e-14
-2.82364e-13
1.09585e-14
7.25013e-14
4.03698e-15
4.74536e-14
-1.65165e-14
-5.67853e-13
1.94257e-13
4.60613e-13
-9.25939e-13
1.53154e-13
4.88182e-13
-5.66452e-13
1.14497e-13
4.17425e-13
-4.7975e-13
8.48679e-14
3.2905e-13
-4.1529e-13
6.20325e-14
2.53758e-13
-3.60205e-13
4.43979e-14
2.03176e-13
-3.14252e-13
3.06017e-14
1.59299e-13
-2.80613e-13
1.97036e-14
1.32009e-13
-3.41288e-13
1.1464e-14
1.07506e-13
4.36918e-15
6.75948e-14
-1.97936e-14
-1.09728e-12
3.09975e-13
8.32077e-13
-1.29742e-12
1.80825e-13
8.49009e-13
-7.67975e-13
1.40957e-13
6.87681e-13
-6.33086e-13
1.0138e-13
5.17961e-13
-5.31874e-13
7.25927e-14
3.92213e-13
-4.49955e-13
5.37869e-14
3.03184e-13
-3.8375e-13
3.69607e-14
2.30373e-13
-3.3354e-13
2.35084e-14
1.8641e-13
-4.02745e-13
1.30584e-14
1.48466e-13
5.17795e-15
9.33202e-14
-2.31436e-14
-1.9863e-12
1.96359e-11
6.5516e-12
-1.79052e-12
3.71563e-13
1.49731e-12
-1.03464e-12
2.24593e-13
1.11567e-12
-8.25992e-13
1.65517e-13
8.07745e-13
-6.72687e-13
1.07958e-13
5.83472e-13
-5.5403e-13
6.66032e-14
4.2972e-13
-4.60421e-13
3.14397e-14
3.2224e-13
-3.91144e-13
1.74531e-14
2.61993e-13
-4.67012e-13
9.0557e-15
2.02211e-13
3.66011e-15
1.2277e-13
-2.66826e-14
-2.48714e-10
9.1509e-09
5.29387e-08
-2.7717e-12
5.29306e-11
8.11879e-11
-1.30001e-12
1.88959e-12
2.81405e-13
-1.06935e-12
1.19262e-12
8.36322e-14
-8.42597e-13
8.466e-13
6.34273e-14
-6.73631e-13
6.07645e-13
4.94196e-14
-5.4607e-13
4.45364e-13
3.91734e-14
-4.52209e-13
3.33835e-13
3.15754e-14
-5.33865e-13
2.60869e-13
2.58361e-14
1.5569e-13
-3.02781e-14
2.15435e-14
3.45936e-13
8.16702e-14
2.77618e-14
-1.86127e-14
7.75605e-14
2.7042e-14
-2.24015e-14
6.84037e-14
2.17371e-14
-2.03454e-14
5.95927e-14
1.68746e-14
-1.98596e-14
5.10732e-14
9.04121e-15
-1.97533e-14
4.28401e-14
5.56919e-15
-1.8663e-14
3.49054e-14
4.80857e-15
-1.93738e-14
2.72326e-14
3.05557e-15
-2.32347e-14
1.98442e-14
3.37606e-15
1.27389e-14
6.9111e-15
-1.59876e-15
2.94941e-13
5.86651e-14
4.70146e-14
-6.65417e-14
5.39302e-14
4.37845e-14
-7.04417e-14
4.57213e-14
4.26074e-14
-6.59722e-14
3.79293e-14
3.25736e-14
-6.38517e-14
3.06819e-14
2.27788e-14
-6.12808e-14
2.39623e-14
1.26111e-14
-5.94722e-14
1.77668e-14
9.48564e-15
-5.85391e-14
1.21309e-14
9.42332e-15
-7.10053e-14
6.99677e-15
6.96674e-15
2.58712e-15
8.37559e-15
-4.41812e-15
2.17055e-13
7.48901e-14
6.89428e-14
-1.67083e-13
6.7619e-14
6.72313e-14
-1.32507e-13
5.68157e-14
6.79913e-14
-1.175e-13
4.68799e-14
5.38485e-14
-1.11498e-13
3.78516e-14
4.2096e-14
-1.05874e-13
2.96814e-14
2.59791e-14
-9.81492e-14
2.23175e-14
1.94341e-14
-1.02537e-13
1.54298e-14
1.62325e-14
-1.20509e-13
9.62571e-15
1.85758e-14
3.35484e-15
1.43198e-14
-7.51265e-15
9.57427e-14
9.33634e-14
1.10597e-13
-2.90594e-13
8.17398e-14
1.15638e-13
-2.10025e-13
6.69963e-14
1.16002e-13
-1.81237e-13
5.40752e-14
9.30811e-14
-1.6849e-13
4.28414e-14
7.59753e-14
-1.56432e-13
3.29146e-14
6.04653e-14
-1.45143e-13
2.40746e-14
3.92732e-14
-1.46212e-13
1.64934e-14
3.15004e-14
-1.72654e-13
9.84614e-15
2.87141e-14
4.03038e-15
2.54898e-14
-1.02494e-14
-2.19232e-14
1.1807e-13
1.94051e-13
-4.47983e-13
9.97874e-14
2.05321e-13
-2.95649e-13
7.97079e-14
1.96308e-13
-2.60537e-13
6.26412e-14
1.58638e-13
-2.37217e-13
4.83283e-14
1.28566e-13
-2.16372e-13
3.6389e-14
1.05737e-13
-1.96016e-13
2.63368e-14
7.21012e-14
-1.86483e-13
1.76961e-14
5.67259e-14
-2.26747e-13
1.05597e-14
4.69218e-14
4.14119e-15
4.12865e-14
-1.34536e-14
-1.58636e-13
1.51421e-13
3.47834e-13
-6.54732e-13
1.23716e-13
3.62946e-13
-4.15292e-13
9.56691e-14
3.29419e-13
-3.5979e-13
7.31799e-14
2.63643e-13
-3.19027e-13
5.51292e-14
2.11592e-13
-2.84177e-13
4.03859e-14
1.73416e-13
-2.53249e-13
2.84789e-14
1.25978e-13
-2.32325e-13
1.88553e-14
9.1521e-14
-2.83518e-13
1.13169e-14
7.44372e-14
4.30492e-15
5.11726e-14
-1.6536e-14
-5.75707e-13
1.96662e-13
6.18864e-13
-9.32889e-13
1.55051e-13
6.32651e-13
-5.70536e-13
1.15979e-13
5.45318e-13
-4.8328e-13
8.60112e-14
4.24967e-13
-4.18018e-13
6.29435e-14
3.35012e-13
-3.62534e-13
4.51269e-14
2.67062e-13
-3.16514e-13
3.12221e-14
2.10582e-13
-2.81937e-13
2.01627e-14
1.40262e-13
-3.43235e-13
1.18114e-14
1.1148e-13
4.75503e-15
6.98426e-14
-1.97615e-14
-1.11183e-12
3.14413e-13
1.11276e-12
-1.30907e-12
1.83496e-13
1.10314e-12
-7.75046e-13
1.43144e-13
8.93924e-13
-6.38726e-13
1.0304e-13
6.7325e-13
-5.36364e-13
7.38492e-14
5.15266e-13
-4.53605e-13
5.43142e-14
3.99681e-13
-3.87037e-13
3.77535e-14
3.11785e-13
-3.36087e-13
2.42226e-14
2.0607e-13
-4.05619e-13
1.36535e-14
1.58098e-13
5.64563e-15
9.47854e-14
-2.32403e-14
-2.01519e-12
2.01566e-11
7.63802e-12
-1.80979e-12
3.76114e-13
1.95035e-12
-1.04631e-12
2.32633e-13
1.46224e-12
-8.35037e-13
1.68971e-13
1.05557e-12
-6.79842e-13
1.10541e-13
7.79285e-13
-5.59792e-13
6.87233e-14
5.83467e-13
-4.65029e-13
3.26229e-14
4.44534e-13
-3.94965e-13
1.81322e-14
3.1152e-13
-4.71353e-13
9.50435e-15
2.17008e-13
4.13529e-15
1.27545e-13
-2.67011e-14
-2.59477e-10
1.08923e-08
5.64743e-08
-2.8014e-12
5.598e-11
8.50871e-11
-1.31678e-12
2.48264e-12
2.68396e-13
-1.08344e-12
1.62436e-12
8.39034e-14
-8.53494e-13
1.15172e-12
6.39225e-14
-6.82094e-13
8.33036e-13
4.99789e-14
-5.52957e-13
6.1421e-13
3.97651e-14
-4.57686e-13
4.52578e-13
3.22079e-14
-5.39953e-13
2.89487e-13
2.64839e-14
1.67514e-13
-3.0318e-14
2.2281e-14
3.45549e-13
8.18865e-14
2.59241e-14
-1.92171e-14
7.7684e-14
1.51545e-14
-2.2581e-14
6.85521e-14
1.49112e-14
-2.07508e-14
5.9708e-14
1.19951e-14
-2.0158e-14
5.11806e-14
1.26761e-14
-2.00176e-14
4.29478e-14
1.55177e-14
-1.95094e-14
3.50285e-14
2.16985e-14
-1.9652e-14
2.73918e-14
5.89499e-14
-2.32255e-14
2.00338e-14
2.40903e-13
1.29434e-14
8.18116e-13
-2.91455e-15
2.94248e-13
5.89233e-14
4.1859e-14
-6.70442e-14
5.41207e-14
2.57182e-14
-7.11718e-14
4.58652e-14
2.93179e-14
-6.629e-14
3.80729e-14
2.41906e-14
-6.43893e-14
3.08133e-14
1.88949e-14
-6.10742e-14
2.41005e-14
2.3546e-14
-5.9275e-14
1.78944e-14
2.71652e-14
-6.03961e-14
1.22536e-14
4.87336e-14
-7.2037e-14
7.18044e-15
1.48838e-13
2.71683e-15
5.28944e-13
-3.99442e-15
2.16009e-13
7.52652e-14
6.01618e-14
-1.68218e-13
6.7912e-14
4.08771e-14
-1.33136e-13
5.70956e-14
4.81277e-14
-1.18626e-13
4.71081e-14
4.11351e-14
-1.11408e-13
3.81133e-14
3.62548e-14
-1.06e-13
2.99372e-14
3.66365e-14
-9.92447e-14
2.25455e-14
4.07105e-14
-1.02213e-13
1.56334e-14
5.16247e-14
-1.22357e-13
9.32392e-15
1.08658e-13
3.56414e-15
3.48591e-13
-6.79101e-15
9.47004e-14
9.40371e-14
1.00333e-13
-2.92068e-13
8.22524e-14
7.68411e-14
-2.11709e-13
6.74179e-14
8.63184e-14
-1.81675e-13
5.44642e-14
7.42241e-14
-1.68914e-13
4.31479e-14
6.57083e-14
-1.57135e-13
3.31761e-14
4.84629e-14
-1.46099e-13
2.43919e-14
6.19805e-14
-1.46215e-13
1.68189e-14
6.6733e-14
-1.74538e-13
1.00368e-14
9.92744e-14
4.2988e-15
2.52487e-13
-9.82049e-15
-2.37808e-14
1.19154e-13
1.74243e-13
-4.50325e-13
1.00599e-13
1.47617e-13
-2.9699e-13
8.03955e-14
1.53533e-13
-2.61867e-13
6.3252e-14
1.30476e-13
-2.37982e-13
4.88644e-14
1.12671e-13
-2.17279e-13
3.69015e-14
1.31545e-13
-1.97072e-13
2.66275e-14
9.55359e-14
-1.87591e-13
1.79802e-14
9.41938e-14
-2.28856e-13
1.08683e-14
1.10493e-13
4.22939e-15
2.03381e-13
-1.30445e-14
-1.61766e-13
1.53078e-13
3.07952e-13
-6.58516e-13
1.24925e-13
2.76964e-13
-4.17496e-13
9.66939e-14
2.6703e-13
-3.62044e-13
7.40352e-14
2.2142e-13
-3.20203e-13
5.58679e-14
1.86012e-13
-2.86369e-13
4.09887e-14
2.03907e-13
-2.54574e-13
2.91053e-14
1.18351e-13
-2.33642e-13
1.92653e-14
1.37371e-13
-2.86118e-13
1.17307e-14
1.36514e-13
4.80597e-15
1.84242e-13
-1.63595e-14
-5.84522e-13
1.99668e-13
5.84204e-13
-9.39031e-13
1.56933e-13
5.06152e-13
-5.74597e-13
1.17479e-13
4.5312e-13
-4.86673e-13
8.72324e-14
3.63527e-13
-4.20677e-13
6.39362e-14
2.95853e-13
-3.65011e-13
4.59531e-14
3.07916e-13
-3.19298e-13
3.18895e-14
2.5364e-13
-2.83808e-13
2.07287e-14
1.92477e-13
-3.46471e-13
1.22199e-14
1.7706e-13
5.07645e-15
1.84845e-13
-1.96308e-14
-1.12733e-12
3.17226e-13
1.14062e-12
-1.31938e-12
1.88289e-13
9.00382e-13
-7.81818e-13
1.45438e-13
7.52202e-13
-6.44191e-13
1.04795e-13
5.82368e-13
-5.4087e-13
7.5271e-14
5.03088e-13
-4.57289e-13
5.46471e-14
4.61579e-13
-3.9119e-13
3.87653e-14
4.01565e-13
-3.3902e-13
2.49799e-14
2.23074e-13
-4.10024e-13
1.43416e-14
2.33014e-13
6.21884e-15
2.00529e-13
-2.31412e-14
-2.01796e-12
1.46003e-11
5.42453e-12
-1.82979e-12
3.46414e-13
1.5845e-12
-1.05748e-12
2.58109e-13
1.32625e-12
-8.43663e-13
1.72771e-13
1.02253e-12
-6.87162e-13
1.13431e-13
8.20186e-13
-5.65393e-13
7.11425e-14
6.83916e-13
-4.71079e-13
3.40412e-14
5.69006e-13
-3.99206e-13
1.89902e-14
2.84263e-13
-4.77219e-13
1.00497e-14
3.01289e-13
4.71915e-15
2.28012e-13
-2.67154e-14
-1.99244e-10
2.7026e-09
5.16057e-08
-2.54394e-12
9.26201e-12
4.51618e-11
-1.34553e-12
2.32487e-12
1.00759e-13
-1.09743e-12
1.69414e-12
8.38506e-14
-8.64552e-13