/*--------------------------------*- C++ -*----------------------------------*\
| =========                 |                                                 |
| \\      /  F ield         | OpenFOAM: The Open Source CFD Toolbox           |
|  \\    /   O peration     | Version:  4.1                                   |
|   \\  /    A nd           | Web:      www.OpenFOAM.org                      |
|    \\/     M anipulation  |                                                 |
\*---------------------------------------------------------------------------*/
FoamFile
{
    version     2.0;
    format      ascii;
    class       volVectorField;
    location    "0.36";
    object      U;
}
// * * * * * * * * * * * * * * * * * * * * * * * * * * * * * * * * * * * * * //

dimensions      [0 1 -1 0 0 0 0];

internalField   nonuniform List<vector> 
18000
(
(7.94348e-14 3.9093e-13 -6.34653e-12)
(8.56797e-14 3.89385e-13 -6.27338e-12)
(7.75206e-14 -9.96288e-15 -6.20095e-12)
(6.95514e-14 -1.17765e-14 -6.12964e-12)
(6.17999e-14 -1.15999e-14 -6.05924e-12)
(5.42436e-14 -1.13842e-14 -5.98974e-12)
(4.69156e-14 -1.13273e-14 -5.92114e-12)
(3.98264e-14 -1.12683e-14 -5.8536e-12)
(3.29253e-14 -1.11358e-14 -5.78706e-12)
(2.62367e-14 -8.84278e-15 -5.72226e-12)
(1.08688e-13 4.0462e-13 -7.97682e-12)
(1.25052e-13 3.9434e-13 -7.68999e-12)
(1.10075e-13 -4.15586e-14 -7.41399e-12)
(9.59177e-14 -4.21257e-14 -7.15049e-12)
(8.27217e-14 -4.07187e-14 -6.89836e-12)
(7.0382e-14 -3.92658e-14 -6.65702e-12)
(5.87987e-14 -3.788e-14 -6.42583e-12)
(4.80136e-14 -3.66207e-14 -6.20446e-12)
(3.78862e-14 -3.53737e-14 -5.99207e-12)
(2.84455e-14 -2.75483e-14 -5.79128e-12)
(1.13654e-13 4.11849e-13 -1.01534e-11)
(1.28004e-13 3.90258e-13 -9.52158e-12)
(1.06329e-13 -8.6331e-14 -8.93355e-12)
(8.68768e-14 -8.32655e-14 -8.38987e-12)
(6.95205e-14 -7.81699e-14 -7.88593e-12)
(5.40114e-14 -7.36199e-14 -7.41856e-12)
(4.01195e-14 -6.94189e-14 -6.98498e-12)
(2.76901e-14 -6.55054e-14 -6.58193e-12)
(1.65634e-14 -6.18391e-14 -6.20708e-12)
(6.63442e-15 -4.6998e-14 -5.86141e-12)
(1.51793e-13 4.07505e-13 -1.3103e-11)
(1.61175e-13 3.7126e-13 -1.19156e-11)
(1.29728e-13 -1.49598e-13 -1.08528e-11)
(1.02844e-13 -1.38542e-13 -9.90239e-12)
(7.99406e-14 -1.26606e-13 -9.05237e-12)
(6.03853e-14 -1.15951e-13 -8.2901e-12)
(4.37261e-14 -1.06429e-13 -7.6049e-12)
(2.9416e-14 -9.78962e-14 -6.98785e-12)
(1.7198e-14 -9.0106e-14 -6.4312e-12)
(6.75171e-15 -6.70941e-14 -5.93273e-12)
(2.07153e-13 3.8172e-13 -1.71678e-11)
(2.06212e-13 3.27388e-13 -1.50866e-11)
(1.60183e-13 -2.39424e-13 -1.32997e-11)
(1.22759e-13 -2.13538e-13 -1.17623e-11)
(9.24843e-14 -1.89014e-13 -1.04372e-11)
(6.78753e-14 -1.67979e-13 -9.29016e-12)
(4.77776e-14 -1.49991e-13 -8.29366e-12)
(3.13317e-14 -1.34444e-13 -7.42522e-12)
(1.78716e-14 -1.20697e-13 -6.66542e-12)
(6.8467e-15 -8.79593e-14 -6.00546e-12)
(2.89655e-13 3.1823e-13 -2.28733e-11)
(2.68816e-13 2.41681e-13 -1.93475e-11)
(2.00433e-13 -3.68343e-13 -1.64539e-11)
(1.47914e-13 -3.15427e-13 -1.40668e-11)
(1.0768e-13 -2.69677e-13 -1.20899e-11)
(7.65338e-14 -2.32271e-13 -1.04419e-11)
(5.23094e-14 -2.01372e-13 -9.06055e-12)
(3.34036e-14 -1.75511e-13 -7.89658e-12)
(1.8591e-14 -1.53609e-13 -6.91018e-12)
(6.95322e-15 -1.09614e-13 -6.07904e-12)
(4.16204e-13 1.87817e-13 -3.10426e-11)
(3.57661e-13 8.53587e-14 -2.5165e-11)
(2.54412e-13 -5.55758e-13 -2.05661e-11)
(1.79959e-13 -4.55433e-13 -1.69464e-11)
(1.26083e-13 -3.74745e-13 -1.40737e-11)
(8.65468e-14 -3.1178e-13 -1.17731e-11)
(5.7305e-14 -2.61842e-13 -9.91587e-12)
(3.55368e-14 -2.21797e-13 -8.4049e-12)
(1.92387e-14 -1.89186e-13 -7.16633e-12)
(6.97617e-15 -1.32079e-13 -6.15382e-12)
(-1.65283e-13 -6.24447e-14 -4.30157e-11)
(-2.74421e-13 -1.92324e-13 -3.32401e-11)
(-3.88296e-13 -8.32145e-13 -2.59952e-11)
(-4.54195e-13 -6.49307e-13 -2.05754e-11)
(-4.90472e-13 -5.1216e-13 -1.64689e-11)
(-5.07989e-13 -4.10487e-13 -1.33182e-11)
(-5.13609e-13 -3.33373e-13 -1.08729e-11)
(-5.11655e-13 -2.7393e-13 -8.95484e-12)
(-5.04969e-13 -2.2742e-13 -7.43461e-12)
(-4.99937e-13 -1.55379e-13 -6.23066e-12)
(-2.95369e-09 -6.19318e-13 -7.00231e-11)
(-2.86986e-09 -6.25943e-13 -5.25581e-11)
(-2.68887e-09 -1.12524e-12 -4.01863e-11)
(-2.52793e-09 -8.10689e-13 -3.13068e-11)
(-2.38446e-09 -5.94625e-13 -2.48156e-11)
(-2.25588e-09 -4.4412e-13 -1.99807e-11)
(-2.14008e-09 -3.3696e-13 -1.63188e-11)
(-2.03531e-09 -2.59248e-13 -1.35028e-11)
(-1.94016e-09 -2.13885e-13 -1.13059e-11)
(-1.87356e-09 -1.87331e-13 -9.61367e-12)
(3.13751e-07 -4.09763e-10 -3.55973e-08)
(2.68958e-08 1.90904e-10 -3.07348e-08)
(2.21444e-08 4.49362e-10 -2.6709e-08)
(1.86628e-08 4.01065e-10 -2.3408e-08)
(1.57586e-08 3.58528e-10 -2.06719e-08)
(1.331e-08 3.21976e-10 -1.83812e-08)
(1.12257e-08 2.90443e-10 -1.64457e-08)
(9.43607e-09 2.62995e-10 -1.47966e-08)
(7.78593e-09 1.85578e-10 -1.33812e-08)
(-4.89104e-08 -5.4056e-11 -1.22922e-08)
(2.6594e-13 3.68213e-13 -6.54945e-12)
(2.48958e-13 3.4454e-13 -6.47287e-12)
(2.18344e-13 -5.43687e-14 -6.39698e-12)
(1.88915e-13 -5.56636e-14 -6.32188e-12)
(1.6062e-13 -5.50527e-14 -6.24807e-12)
(1.33396e-13 -5.43962e-14 -6.17555e-12)
(1.07211e-13 -5.38257e-14 -6.10343e-12)
(8.20511e-14 -5.32139e-14 -6.03288e-12)
(5.77782e-14 -5.22509e-14 -5.96327e-12)
(3.4739e-14 -3.02736e-14 -5.89524e-12)
(5.35327e-13 3.19215e-13 -8.25928e-12)
(4.92565e-13 2.28134e-13 -7.95795e-12)
(4.22059e-13 -2.02213e-13 -7.66774e-12)
(3.56264e-13 -1.96823e-13 -7.39088e-12)
(2.94955e-13 -1.89904e-13 -7.12656e-12)
(2.37797e-13 -1.83219e-13 -6.8734e-12)
(1.84499e-13 -1.76794e-13 -6.63139e-12)
(1.34789e-13 -1.70783e-13 -6.39967e-12)
(8.8365e-14 -1.63909e-13 -6.17785e-12)
(4.54531e-14 -9.31888e-14 -5.96762e-12)
(6.59253e-13 2.31901e-13 -1.05545e-11)
(5.84818e-13 4.5993e-14 -9.88644e-12)
(4.83743e-13 -4.103e-13 -9.26638e-12)
(3.93323e-13 -3.87157e-13 -8.69315e-12)
(3.12822e-13 -3.63672e-13 -8.16317e-12)
(2.41056e-13 -3.41874e-13 -7.67232e-12)
(1.77022e-13 -3.2172e-13 -7.21747e-12)
(1.19883e-13 -3.03084e-13 -6.79511e-12)
(6.89699e-14 -2.84349e-13 -6.40275e-12)
(2.38894e-14 -1.59179e-13 -6.04163e-12)
(8.58611e-13 8.46113e-14 -1.36831e-11)
(7.34599e-13 -2.34114e-13 -1.24209e-11)
(5.89456e-13 -7.02477e-13 -1.12945e-11)
(4.65389e-13 -6.42733e-13 -1.02888e-11)
(3.59822e-13 -5.8672e-13 -9.39162e-12)
(2.69783e-13 -5.36806e-13 -8.58874e-12)
(1.92974e-13 -4.92069e-13 -7.86862e-12)
(1.27425e-13 -4.51764e-13 -7.22152e-12)
(7.14827e-14 -4.13434e-13 -6.63793e-12)
(2.42962e-14 -2.27738e-13 -6.11664e-12)
(1.13606e-12 -1.57444e-13 -1.80257e-11)
(9.34292e-13 -6.6201e-13 -1.57987e-11)
(7.24922e-13 -1.11334e-12 -1.38942e-11)
(5.54388e-13 -9.85972e-13 -1.22594e-11)
(4.15816e-13 -8.73205e-13 -1.08556e-11)
(3.02893e-13 -7.76098e-13 -9.64397e-12)
(2.10792e-13 -6.91943e-13 -8.59397e-12)
(1.35621e-13 -6.18871e-13 -7.68123e-12)
(7.41815e-14 -5.52296e-13 -6.8842e-12)
(2.46281e-14 -2.99279e-13 -6.19361e-12)
(1.52946e-12 -5.49725e-13 -2.41746e-11)
(1.20491e-12 -1.31424e-12 -2.03686e-11)
(9.00574e-13 -1.69407e-12 -1.7265e-11)
(6.65205e-13 -1.44827e-12 -1.47128e-11)
(4.82908e-13 -1.24141e-12 -1.26094e-11)
(3.41116e-13 -1.07003e-12 -1.08627e-11)
(2.30631e-13 -9.26805e-13 -9.40384e-12)
(1.44388e-13 -8.06628e-13 -8.17833e-12)
(7.7049e-14 -7.01641e-13 -7.14258e-12)
(2.49356e-14 -3.73726e-13 -6.27203e-12)
(2.10052e-12 -1.1832e-12 -3.30694e-11)
(1.57713e-12 -2.31206e-12 -2.66613e-11)
(1.13094e-12 -2.52094e-12 -2.16889e-11)
(8.04221e-13 -2.07346e-12 -1.77941e-11)
(5.63645e-13 -1.71612e-12 -1.47231e-11)
(3.85426e-13 -1.43164e-12 -1.22761e-11)
(2.52808e-13 -1.20281e-12 -1.03093e-11)
(1.53888e-13 -1.01751e-12 -8.71569e-12)
(8.00019e-14 -8.62219e-13 -7.41277e-12)
(2.53407e-14 -4.51481e-13 -6.3522e-12)
(2.97473e-12 -2.21791e-12 -4.62711e-11)
(2.09697e-12 -3.85459e-12 -3.54834e-11)
(1.43411e-12 -3.7076e-12 -2.75756e-11)
(9.7579e-13 -2.92369e-12 -2.17026e-11)
(6.55823e-13 -2.32944e-12 -1.72886e-11)
(4.30265e-13 -1.87688e-12 -1.39229e-11)
(2.70066e-13 -1.52746e-12 -1.13259e-11)
(1.55779e-13 -1.25473e-12 -9.29802e-12)
(7.3976e-14 -1.03485e-12 -7.69694e-12)
(1.60358e-14 -5.32318e-13 -6.43458e-12)
(-3.21093e-11 -4.15333e-12 -7.54471e-11)
(-1.16288e-10 -6.47633e-12 -5.60354e-11)
(-9.48951e-11 -5.55647e-12 -4.24869e-11)
(-7.81262e-11 -4.20012e-12 -3.28671e-11)
(-6.50638e-11 -3.22551e-12 -2.59079e-11)
(-5.47444e-11 -2.51617e-12 -2.07671e-11)
(-4.64904e-11 -1.99029e-12 -1.69004e-11)
(-3.98139e-11 -1.59463e-12 -1.39444e-11)
(-3.43598e-11 -1.28717e-12 -1.16487e-11)
(-2.98722e-11 -6.7657e-13 -9.88777e-12)
(1.97751e-07 -9.71774e-10 -3.73003e-08)
(-4.93876e-09 -7.94145e-10 -3.20458e-08)
(-4.8438e-09 -4.44679e-10 -2.76901e-08)
(-4.43434e-09 -3.95434e-10 -2.41561e-08)
(-4.06684e-09 -3.54192e-10 -2.1252e-08)
(-3.74225e-09 -3.18664e-10 -1.88377e-08)
(-3.45703e-09 -2.87939e-10 -1.68099e-08)
(-3.20686e-09 -2.61252e-10 -1.50907e-08)
(-2.99319e-09 -2.37992e-10 -1.36212e-08)
(-3.49106e-09 -2.29839e-10 -1.24902e-08)
(2.29413e-13 3.73401e-13 -2.08773e-13)
(2.16478e-13 3.485e-13 -2.04813e-13)
(1.89803e-13 -5.06342e-14 -2.00455e-13)
(1.64345e-13 -5.19952e-14 -1.96272e-13)
(1.39993e-13 -5.116e-14 -1.92405e-13)
(1.16561e-13 -5.06256e-14 -1.88608e-13)
(9.42681e-14 -5.014e-14 -1.84893e-13)
(7.28581e-14 -4.94277e-14 -1.8161e-13)
(5.23577e-14 -4.86312e-14 -1.78238e-13)
(3.299e-14 -2.55194e-14 -1.75054e-13)
(5.01054e-13 3.38472e-13 -2.91084e-13)
(4.62519e-13 2.41987e-13 -2.75643e-13)
(3.96183e-13 -1.88913e-13 -2.60461e-13)
(3.3435e-13 -1.83694e-13 -2.45981e-13)
(2.7689e-13 -1.7709e-13 -2.33086e-13)
(2.23371e-13 -1.70735e-13 -2.20829e-13)
(1.73627e-13 -1.6456e-13 -2.09128e-13)
(1.27236e-13 -1.58784e-13 -1.98232e-13)
(8.39918e-14 -1.52306e-13 -1.88706e-13)
(4.42033e-14 -7.91082e-14 -1.78971e-13)
(6.19302e-13 2.71462e-13 -4.1507e-13)
(5.50307e-13 7.26903e-14 -3.77174e-13)
(4.54527e-13 -3.84763e-13 -3.43131e-13)
(3.68988e-13 -3.62719e-13 -3.12246e-13)
(2.9305e-13 -3.40018e-13 -2.84785e-13)
(2.25595e-13 -3.19215e-13 -2.59838e-13)
(1.65548e-13 -3.0006e-13 -2.37832e-13)
(1.1216e-13 -2.82366e-13 -2.17834e-13)
(6.45303e-14 -2.64338e-13 -1.99528e-13)
(2.26589e-14 -1.35251e-13 -1.83964e-13)
(8.12571e-13 1.54276e-13 -6.03175e-13)
(6.95412e-13 -1.91096e-13 -5.25372e-13)
(5.56696e-13 -6.61901e-13 -4.58259e-13)
(4.38479e-13 -6.04524e-13 -4.00009e-13)
(3.38333e-13 -5.50513e-13 -3.50634e-13)
(2.53253e-13 -5.02577e-13 -3.08145e-13)
(1.80922e-13 -4.59663e-13 -2.71723e-13)
(1.19424e-13 -4.2149e-13 -2.40372e-13)
(6.70667e-14 -3.84995e-13 -2.12817e-13)
(2.30881e-14 -1.94198e-13 -1.89195e-13)
(1.08467e-12 -4.37904e-14 -8.9767e-13)
(8.90325e-13 -5.99153e-13 -7.44968e-13)
(6.88568e-13 -1.05491e-12 -6.20896e-13)
(5.2478e-13 -9.31691e-13 -5.18768e-13)
(3.92514e-13 -8.22293e-13 -4.35725e-13)
(2.85273e-13 -7.28822e-13 -3.67862e-13)
(1.98196e-13 -6.48151e-13 -3.12197e-13)
(1.27387e-13 -5.78412e-13 -2.66287e-13)
(6.98303e-14 -5.14759e-13 -2.27579e-13)
(2.35613e-14 -2.55617e-13 -1.95683e-13)
(1.47511e-12 -3.72892e-13 -1.37097e-12)
(1.15722e-12 -1.2301e-12 -1.07651e-12)
(8.60842e-13 -1.61513e-12 -8.53759e-13)
(6.32878e-13 -1.37569e-12 -6.79611e-13)
(4.57718e-13 -1.17392e-12 -5.46158e-13)
(3.22329e-13 -1.00807e-12 -4.42119e-13)
(2.17446e-13 -8.70219e-13 -3.60741e-13)
(1.36043e-13 -7.55186e-13 -2.96403e-13)
(7.26585e-14 -6.54805e-13 -2.44098e-13)
(2.40132e-14 -3.20346e-13 -2.03327e-13)
(2.04995e-12 -9.13658e-13 -2.14947e-12)
(1.52872e-12 -2.2088e-12 -1.58897e-12)
(1.08897e-12 -2.42166e-12 -1.19136e-12)
(7.69699e-13 -1.98122e-12 -9.00022e-13)
(5.36837e-13 -1.63024e-12 -6.89616e-13)
(3.65582e-13 -1.35359e-12 -5.34291e-13)
(2.39119e-13 -1.13236e-12 -4.18498e-13)
(1.45322e-13 -9.5466e-13 -3.31004e-13)
(7.55965e-14 -8.058e-13 -2.62931e-13)
(2.44926e-14 -3.87914e-13 -2.12091e-13)
(2.94556e-12 -1.81399e-12 -3.47677e-12)
(2.05698e-12 -3.7456e-12 -2.39862e-12)
(1.39616e-12 -3.59222e-12 -1.69086e-12)
(9.44756e-13 -2.81218e-12 -1.20665e-12)
(6.33476e-13 -2.22461e-12 -8.78616e-13)
(4.16319e-13 -1.78174e-12 -6.49631e-13)
(2.63541e-13 -1.44242e-12 -4.87454e-13)
(1.55469e-13 -1.1799e-12 -3.70379e-13)
(7.87599e-14 -9.68599e-13 -2.84388e-13)
(2.49003e-14 -4.5883e-13 -2.2132e-13)
(1.07024e-10 -3.39823e-12 -5.82559e-12)
(7.25882e-13 -6.25937e-12 -3.73248e-12)
(8.21645e-14 -5.317e-12 -2.47241e-12)
(-5.53546e-14 -3.96497e-12 -1.67936e-12)
(-1.37855e-13 -3.00461e-12 -1.17743e-12)
(-1.83718e-13 -2.316e-12 -8.48803e-13)
(-2.06487e-13 -1.81151e-12 -6.28592e-13)
(-2.14576e-13 -1.4364e-12 -4.77693e-13)
(-2.1392e-13 -1.14687e-12 -3.7129e-13)
(-2.03771e-13 -5.35626e-13 -2.97256e-13)
(1.74813e-07 -3.63625e-10 -1.79597e-09)
(1.45777e-10 -3.32889e-10 -1.33863e-09)
(-1.35701e-10 -4.3689e-11 -9.98816e-10)
(-1.08431e-10 -3.23355e-11 -7.5968e-10)
(-8.73781e-11 -2.49617e-11 -5.87913e-10)
(-7.12673e-11 -1.95637e-11 -4.62001e-10)
(-5.87761e-11 -1.55448e-11 -3.6805e-10)
(-4.89898e-11 -1.25064e-11 -2.96821e-10)
(-4.13545e-11 -1.016e-11 -2.42053e-10)
(-4.04337e-11 -8.03773e-12 -1.99464e-10)
(2.2693e-13 3.73587e-13 -1.05175e-14)
(2.14285e-13 3.48331e-13 -9.70407e-15)
(1.87919e-13 -5.07523e-14 -7.68504e-15)
(1.6268e-13 -5.1946e-14 -6.59896e-15)
(1.38599e-13 -5.12723e-14 -5.28583e-15)
(1.15531e-13 -5.06431e-14 -4.28041e-15)
(9.34324e-14 -4.99569e-14 -3.47575e-15)
(7.22713e-14 -4.92916e-14 -2.60517e-15)
(5.20852e-14 -4.8373e-14 -2.23492e-15)
(3.29403e-14 -2.52207e-14 -2.24887e-15)
(4.98143e-13 3.39756e-13 -1.56399e-14)
(4.60065e-13 2.42852e-13 -1.39431e-14)
(3.94139e-13 -1.88203e-13 -1.1826e-14)
(3.32682e-13 -1.82964e-13 -9.72297e-15)
(2.75545e-13 -1.76162e-13 -7.76869e-15)
(2.22362e-13 -1.69948e-13 -6.63262e-15)
(1.7293e-13 -1.63882e-13 -5.42009e-15)
(1.26835e-13 -1.57864e-13 -4.53692e-15)
(8.38393e-14 -1.51342e-13 -3.87815e-15)
(4.43213e-14 -7.81046e-14 -3.38238e-15)
(6.15494e-13 2.74715e-13 -2.53778e-14)
(5.47321e-13 7.49387e-14 -2.24593e-14)
(4.5212e-13 -3.82711e-13 -1.86911e-14)
(3.67117e-13 -3.60736e-13 -1.53281e-14)
(2.91656e-13 -3.3835e-13 -1.29345e-14)
(2.24583e-13 -3.17534e-13 -1.06431e-14)
(1.64955e-13 -2.98295e-13 -8.81477e-15)
(1.1189e-13 -2.80825e-13 -7.59278e-15)
(6.45569e-14 -2.62747e-13 -6.37954e-15)
(2.29262e-14 -1.3348e-13 -6.18389e-15)
(8.07572e-13 1.60998e-13 -4.2554e-14)
(6.91639e-13 -1.86432e-13 -3.73036e-14)
(5.53859e-13 -6.58145e-13 -3.09545e-14)
(4.36414e-13 -6.01093e-13 -2.52429e-14)
(3.36876e-13 -5.4735e-13 -2.09378e-14)
(2.52357e-13 -4.99733e-13 -1.76292e-14)
(1.8047e-13 -4.57096e-13 -1.46753e-14)
(1.19366e-13 -4.19012e-13 -1.24139e-14)
(6.7337e-14 -3.82701e-13 -1.08665e-14)
(2.35269e-14 -1.92054e-13 -9.64817e-15)
(1.07807e-12 -3.1525e-14 -7.43712e-14)
(8.85683e-13 -5.91187e-13 -6.28543e-14)
(6.85255e-13 -1.04832e-12 -5.05606e-14)
(5.22592e-13 -9.26131e-13 -4.10813e-14)
(3.91151e-13 -8.17672e-13 -3.3658e-14)
(2.84531e-13 -7.24629e-13 -2.74303e-14)
(1.9797e-13 -6.44318e-13 -2.30629e-14)
(1.27591e-13 -5.75131e-13 -1.99237e-14)
(7.01787e-14 -5.1203e-13 -1.74155e-14)
(2.41918e-14 -2.5298e-13 -1.51042e-14)
(1.46604e-12 -3.50556e-13 -1.30218e-13)
(1.1514e-12 -1.21687e-12 -1.0593e-13)
(8.57023e-13 -1.605e-12 -8.33595e-14)
(6.30566e-13 -1.3674e-12 -6.61433e-14)
(4.56503e-13 -1.16724e-12 -5.30413e-14)
(3.21877e-13 -1.00252e-12 -4.30617e-14)
(2.17531e-13 -8.65464e-13 -3.55443e-14)
(1.3644e-13 -7.51479e-13 -2.97259e-14)
(7.32878e-14 -6.5164e-13 -2.47313e-14)
(2.48115e-14 -3.17124e-13 -2.15849e-14)
(2.03741e-12 -8.73753e-13 -2.301e-13)
(1.52112e-12 -2.18755e-12 -1.79344e-13)
(1.08455e-12 -2.40626e-12 -1.35524e-13)
(7.67254e-13 -1.96946e-12 -1.04536e-13)
(5.35745e-13 -1.62132e-12 -8.15858e-14)
(3.65434e-13 -1.34653e-12 -6.47043e-14)
(2.39472e-13 -1.12678e-12 -5.20992e-14)
(1.4599e-13 -9.50369e-13 -4.26061e-14)
(7.65939e-14 -8.02403e-13 -3.53931e-14)
(2.54216e-14 -3.84595e-13 -2.96327e-14)
(2.92723e-12 -1.74281e-12 -4.13035e-13)
(2.04617e-12 -3.71224e-12 -3.01591e-13)
(1.39042e-12 -3.56956e-12 -2.19166e-13)
(9.42036e-13 -2.79634e-12 -1.61891e-13)
(6.32569e-13 -2.21291e-12 -1.22248e-13)
(4.16474e-13 -1.77328e-12 -9.43918e-14)
(2.64253e-13 -1.43625e-12 -7.36801e-14)
(1.56492e-13 -1.17515e-12 -5.88343e-14)
(7.99645e-14 -9.65313e-13 -4.79502e-14)
(2.61878e-14 -4.55506e-13 -3.91476e-14)
(1.14591e-10 -3.26858e-12 -7.46696e-13)
(3.16484e-12 -6.20669e-12 -5.02861e-13)
(1.77916e-12 -5.28132e-12 -3.47226e-13)
(1.14881e-12 -3.94121e-12 -2.46435e-13)
(7.38379e-13 -2.98812e-12 -1.7935e-13)
(4.66636e-13 -2.3042e-12 -1.33889e-13)
(2.84763e-13 -1.80276e-12 -1.01992e-13)
(1.62047e-13 -1.42965e-12 -7.93495e-14)
(7.87092e-14 -1.14137e-12 -6.2843e-14)
(2.28805e-14 -5.29895e-13 -5.08501e-14)
(1.75015e-07 -3.14545e-10 -1.11659e-10)
(3.25975e-10 -2.9871e-10 -2.88146e-11)
(-4.82646e-13 -9.8249e-12 -1.83057e-11)
(-6.73093e-13 -6.16709e-12 -1.20222e-11)
(-5.11867e-13 -4.43584e-12 -8.14431e-12)
(-4.02855e-13 -3.2643e-12 -5.65684e-12)
(-3.2474e-13 -2.44925e-12 -4.01578e-12)
(-2.67406e-13 -1.87077e-12 -2.90485e-12)
(-2.25402e-13 -1.4447e-12 -2.13716e-12)
(-2.18711e-13 -6.92536e-13 -1.5721e-12)
(2.27325e-13 3.73468e-13 -1.08324e-14)
(2.14597e-13 3.47776e-13 -9.85615e-15)
(1.88212e-13 -5.14655e-14 -7.48362e-15)
(1.62908e-13 -5.25541e-14 -5.53986e-15)
(1.3877e-13 -5.1694e-14 -4.08962e-15)
(1.15623e-13 -5.09654e-14 -2.89597e-15)
(9.35705e-14 -5.04328e-14 -2.0665e-15)
(7.24511e-14 -4.95563e-14 -1.16385e-15)
(5.2193e-14 -4.84119e-14 -4.83722e-16)
(3.30279e-14 -2.54058e-14 -3.3959e-16)
(4.99124e-13 3.39435e-13 -1.60787e-14)
(4.60907e-13 2.42122e-13 -1.42571e-14)
(3.94869e-13 -1.89003e-13 -1.10245e-14)
(3.33229e-13 -1.83809e-13 -8.96242e-15)
(2.76065e-13 -1.76899e-13 -6.29003e-15)
(2.22794e-13 -1.70331e-13 -4.79549e-15)
(1.73301e-13 -1.64126e-13 -3.70736e-15)
(1.27227e-13 -1.58206e-13 -3.12201e-15)
(8.41853e-14 -1.51629e-13 -2.28025e-15)
(4.46664e-14 -7.81811e-14 -1.53811e-15)
(6.1721e-13 2.74169e-13 -2.60299e-14)
(5.48844e-13 7.38253e-14 -2.29999e-14)
(4.53409e-13 -3.84101e-13 -1.86668e-14)
(3.68168e-13 -3.61841e-13 -1.46668e-14)
(2.926e-13 -3.39021e-13 -1.19585e-14)
(2.25437e-13 -3.18251e-13 -9.70329e-15)
(1.65654e-13 -2.98907e-13 -7.79155e-15)
(1.12509e-13 -2.81179e-13 -6.4946e-15)
(6.51337e-14 -2.6294e-13 -5.85113e-15)
(2.34774e-14 -1.33703e-13 -5.06055e-15)
(8.10601e-13 1.59955e-13 -4.46509e-14)
(6.94285e-13 -1.88283e-13 -3.89776e-14)
(5.56002e-13 -6.60144e-13 -3.2099e-14)
(4.38226e-13 -6.02844e-13 -2.61019e-14)
(3.38408e-13 -5.48656e-13 -2.13792e-14)
(2.5361e-13 -5.00818e-13 -1.76888e-14)
(1.81593e-13 -4.58032e-13 -1.51276e-14)
(1.20359e-13 -4.19765e-13 -1.28821e-14)
(6.82527e-14 -3.83251e-13 -1.11409e-14)
(2.43109e-14 -1.92126e-13 -1.02599e-14)
(1.08315e-12 -3.35585e-14 -7.79851e-14)
(8.89947e-13 -5.94797e-13 -6.74296e-14)
(6.88709e-13 -1.05203e-12 -5.46613e-14)
(5.25397e-13 -9.28987e-13 -4.43566e-14)
(3.93471e-13 -8.19973e-13 -3.69035e-14)
(2.86462e-13 -7.26628e-13 -3.06597e-14)
(1.99617e-13 -6.45811e-13 -2.55764e-14)
(1.28966e-13 -5.76193e-13 -2.19481e-14)
(7.14148e-14 -5.12916e-13 -1.91883e-14)
(2.5241e-14 -2.5357e-13 -1.68218e-14)
(1.47453e-12 -3.54953e-13 -1.3758e-13)
(1.1583e-12 -1.22358e-12 -1.14807e-13)
(8.62426e-13 -1.6112e-12 -9.16979e-14)
(6.34859e-13 -1.3725e-12 -7.35088e-14)
(4.59894e-13 -1.17122e-12 -5.96535e-14)
(3.24674e-13 -1.00574e-12 -4.94232e-14)
(2.19787e-13 -8.68147e-13 -4.07308e-14)
(1.38304e-13 -7.53593e-13 -3.43741e-14)
(7.48267e-14 -6.53341e-13 -2.95592e-14)
(2.6084e-14 -3.18062e-13 -2.54148e-14)
(2.05169e-12 -8.82481e-13 -2.43256e-13)
(1.5322e-12 -2.20049e-12 -1.95696e-13)
(1.09283e-12 -2.41768e-12 -1.51717e-13)
(7.73586e-13 -1.97832e-12 -1.18299e-13)
(5.40639e-13 -1.62824e-12 -9.42829e-14)
(3.69227e-13 -1.3521e-12 -7.57535e-14)
(2.42454e-13 -1.13123e-12 -6.14904e-14)
(1.48397e-13 -9.53794e-13 -5.07808e-14)
(7.85087e-14 -8.05274e-13 -4.27139e-14)
(2.70217e-14 -3.86278e-13 -3.60308e-14)
(2.95129e-12 -1.76062e-12 -4.32993e-13)
(2.06379e-12 -3.73725e-12 -3.3177e-13)
(1.40305e-12 -3.58981e-12 -2.46493e-13)
(9.51266e-13 -2.81169e-12 -1.86797e-13)
(6.39384e-13 -2.22476e-12 -1.43994e-13)
(4.21594e-13 -1.78247e-12 -1.12653e-13)
(2.68171e-13 -1.44344e-12 -8.95056e-14)
(1.59509e-13 -1.1808e-12 -7.20395e-14)
(8.22589e-14 -9.69718e-13 -5.887e-14)
(2.79817e-14 -4.58122e-13 -4.92385e-14)
(1.16098e-10 -3.3052e-12 -7.87594e-13)
(3.24658e-12 -6.25478e-12 -5.61672e-13)
(1.81948e-12 -5.31782e-12 -3.98537e-13)
(1.17492e-12 -3.96779e-12 -2.8945e-13)
(7.55921e-13 -3.00775e-12 -2.15115e-13)
(4.78797e-13 -2.31892e-12 -1.63069e-13)
(2.93377e-13 -1.81398e-12 -1.25473e-13)
(1.68233e-13 -1.43836e-12 -9.86282e-14)
(8.32202e-14 -1.14829e-12 -7.84201e-14)
(2.6115e-14 -5.33795e-13 -6.34785e-14)
(1.81196e-07 -3.17485e-10 -6.40267e-11)
(3.47524e-10 -3.01019e-10 -1.70071e-12)
(2.13679e-12 -8.99746e-12 -8.6369e-13)
(1.13445e-12 -5.58953e-12 -5.68557e-13)
(7.5498e-13 -4.04213e-12 -3.89223e-13)
(5.06422e-13 -2.99001e-12 -2.7611e-13)
(3.40093e-13 -2.2545e-12 -2.01308e-13)
(2.27066e-13 -1.73003e-12 -1.50068e-13)
(1.49265e-13 -1.34144e-12 -1.14074e-13)
(9.5637e-14 -6.13976e-13 -8.83826e-14)
(2.27878e-13 3.73176e-13 -1.3673e-14)
(2.15052e-13 3.47005e-13 -1.17633e-14)
(1.88534e-13 -5.24567e-14 -9.44685e-15)
(1.63228e-13 -5.32879e-14 -6.89289e-15)
(1.38948e-13 -5.23153e-14 -5.11388e-15)
(1.15811e-13 -5.14405e-14 -3.14275e-15)
(9.36705e-14 -5.06396e-14 -2.04188e-15)
(7.25625e-14 -4.9918e-14 -1.39957e-15)
(5.23534e-14 -4.86955e-14 -6.64965e-16)
(3.3122e-14 -2.53318e-14 -5.06942e-16)
(5.00458e-13 3.38948e-13 -2.01837e-14)
(4.62063e-13 2.40886e-13 -1.77312e-14)
(3.95805e-13 -1.90233e-13 -1.35427e-14)
(3.34044e-13 -1.84791e-13 -1.07016e-14)
(2.76717e-13 -1.77778e-13 -8.23188e-15)
(2.23366e-13 -1.7095e-13 -5.98236e-15)
(1.73776e-13 -1.64527e-13 -4.35136e-15)
(1.27629e-13 -1.58413e-13 -3.20407e-15)
(8.46511e-14 -1.51963e-13 -2.77381e-15)
(4.50435e-14 -7.84304e-14 -2.34269e-15)
(6.19583e-13 2.73296e-13 -3.24799e-14)
(5.50888e-13 7.21196e-14 -2.85789e-14)
(4.55159e-13 -3.85856e-13 -2.28778e-14)
(3.69609e-13 -3.633e-13 -1.86001e-14)
(2.93852e-13 -3.40261e-13 -1.4618e-14)
(2.26472e-13 -3.19148e-13 -1.16295e-14)
(1.66642e-13 -2.99554e-13 -9.48203e-15)
(1.13351e-13 -2.81608e-13 -8.28796e-15)
(6.58993e-14 -2.63343e-13 -7.15663e-15)
(2.42602e-14 -1.34008e-13 -6.32262e-15)
(8.14641e-13 1.58222e-13 -5.599e-14)
(6.97755e-13 -1.91152e-13 -4.84339e-14)
(5.58876e-13 -6.62944e-13 -3.94381e-14)
(4.40616e-13 -6.05161e-13 -3.23104e-14)
(3.40441e-13 -5.50599e-13 -2.63295e-14)
(2.55386e-13 -5.02191e-13 -2.15942e-14)
(1.83086e-13 -4.5905e-13 -1.85118e-14)
(1.21672e-13 -4.20676e-13 -1.60666e-14)
(6.93525e-14 -3.83848e-13 -1.41529e-14)
(2.53254e-14 -1.92523e-13 -1.24962e-14)
(1.09e-12 -3.6814e-14 -9.7417e-14)
(8.95672e-13 -5.99743e-13 -8.33174e-14)
(6.93295e-13 -1.05678e-12 -6.77943e-14)
(5.29128e-13 -9.32847e-13 -5.53929e-14)
(3.96537e-13 -8.23026e-13 -4.57879e-14)
(2.89085e-13 -7.29189e-13 -3.83456e-14)
(2.01704e-13 -6.4792e-13 -3.18722e-14)
(1.30776e-13 -5.77876e-13 -2.73039e-14)
(7.29482e-14 -5.14284e-13 -2.34194e-14)
(2.65076e-14 -2.543e-13 -2.0795e-14)
(1.48605e-12 -3.61617e-13 -1.71723e-13)
(1.16753e-12 -1.23311e-12 -1.43151e-13)
(8.69621e-13 -1.61979e-12 -1.14016e-13)
(6.40455e-13 -1.37929e-12 -9.14173e-14)
(4.64386e-13 -1.17655e-12 -7.43325e-14)
(3.28236e-13 -1.01013e-12 -6.13721e-14)
(2.22708e-13 -8.71706e-13 -5.07853e-14)
(1.40683e-13 -7.56322e-13 -4.26984e-14)
(7.68182e-14 -6.5569e-13 -3.65847e-14)
(2.77433e-14 -3.19417e-13 -3.16049e-14)
(2.07099e-12 -8.96102e-13 -3.03981e-13)
(1.54701e-12 -2.21837e-12 -2.43396e-13)
(1.10386e-12 -2.43303e-12 -1.88737e-13)
(7.81936e-13 -1.99025e-12 -1.47665e-13)
(5.47072e-13 -1.63752e-12 -1.17612e-13)
(3.74196e-13 -1.35955e-12 -9.45107e-14)
(2.46423e-13 -1.13715e-12 -7.69979e-14)
(1.5149e-13 -9.58504e-13 -6.30626e-14)
(8.09754e-14 -8.09077e-13 -5.29486e-14)
(2.90531e-14 -3.88478e-13 -4.47591e-14)
(2.98478e-12 -1.78791e-12 -5.40838e-13)
(2.08756e-12 -3.77154e-12 -4.13774e-13)
(1.4199e-12 -3.61753e-12 -3.08038e-13)
(9.63498e-13 -2.83234e-12 -2.33289e-13)
(6.48394e-13 -2.24044e-12 -1.79858e-13)
(4.28355e-13 -1.79461e-12 -1.4088e-13)
(2.73269e-13 -1.453e-12 -1.12031e-13)
(1.6343e-13 -1.18836e-12 -8.96993e-14)
(8.52801e-14 -9.75628e-13 -7.31263e-14)
(3.03695e-14 -4.61476e-13 -6.08562e-14)
(1.19831e-10 -3.36298e-12 -9.84987e-13)
(3.29829e-12 -6.32216e-12 -7.02354e-13)
(1.84588e-12 -5.36728e-12 -4.99482e-13)
(1.19301e-12 -4.00328e-12 -3.62987e-13)
(7.68563e-13 -3.03381e-12 -2.69979e-13)
(4.87847e-13 -2.33859e-12 -2.04282e-13)
(2.99964e-13 -1.8289e-12 -1.57144e-13)
(1.73107e-13 -1.44982e-12 -1.23143e-13)
(8.68251e-14 -1.15721e-12 -9.79196e-14)
(2.88205e-14 -5.38936e-13 -7.9283e-14)
(1.94869e-07 -3.34224e-10 -1.15945e-10)
(3.67991e-10 -3.10676e-10 -1.47004e-12)
(2.25387e-12 -9.10289e-12 -8.09802e-13)
(1.17273e-12 -5.64174e-12 -5.60149e-13)
(7.79657e-13 -4.0797e-12 -3.98352e-13)
(5.22864e-13 -3.01745e-12 -2.90625e-13)
(3.51407e-13 -2.27508e-12 -2.16806e-13)
(2.35065e-13 -1.74578e-12 -1.64462e-13)
(1.55055e-13 -1.35352e-12 -1.26877e-13)
(1.00012e-13 -6.20629e-13 -1.00154e-13)
(2.2856e-13 3.7268e-13 -1.63486e-14)
(2.15683e-13 3.46094e-13 -1.41928e-14)
(1.88959e-13 -5.33959e-14 -1.09426e-14)
(1.63574e-13 -5.42744e-14 -8.4183e-15)
(1.39292e-13 -5.31845e-14 -6.0664e-15)
(1.16078e-13 -5.21859e-14 -4.09902e-15)
(9.39268e-14 -5.11257e-14 -2.42835e-15)
(7.27283e-14 -5.01052e-14 -1.52111e-15)
(5.2524e-14 -4.87751e-14 -1.85651e-15)
(3.33189e-14 -2.54167e-14 -3.9908e-15)
(5.02079e-13 3.38322e-13 -2.4164e-14)
(4.63518e-13 2.39522e-13 -2.07713e-14)
(3.9696e-13 -1.91746e-13 -1.65949e-14)
(3.35023e-13 -1.85893e-13 -1.27754e-14)
(2.77538e-13 -1.78771e-13 -1.01279e-14)
(2.24094e-13 -1.71872e-13 -7.38136e-15)
(1.74438e-13 -1.65244e-13 -5.74835e-15)
(1.28273e-13 -1.58845e-13 -4.2236e-15)
(8.51752e-14 -1.51985e-13 -3.3303e-15)
(4.55665e-14 -7.84928e-14 -5.26339e-15)
(6.22485e-13 2.72247e-13 -3.90974e-14)
(5.53373e-13 7.00851e-14 -3.37825e-14)
(4.57233e-13 -3.87941e-13 -2.71117e-14)
(3.71382e-13 -3.65074e-13 -2.20088e-14)
(2.95292e-13 -3.41763e-13 -1.74583e-14)
(2.27774e-13 -3.20316e-13 -1.4277e-14)
(1.67782e-13 -3.00288e-13 -1.16318e-14)
(1.14458e-13 -2.82179e-13 -1.00876e-14)
(6.68697e-14 -2.63804e-13 -9.13228e-15)
(2.5038e-14 -1.34258e-13 -9.16842e-15)
(8.19638e-13 1.56139e-13 -6.66369e-14)
(7.01977e-13 -1.94632e-13 -5.72467e-14)
(5.62378e-13 -6.66289e-13 -4.66676e-14)
(4.4351e-13 -6.07944e-13 -3.81748e-14)
(3.42939e-13 -5.52917e-13 -3.16146e-14)
(2.5754e-13 -5.04036e-13 -2.66001e-14)
(1.84921e-13 -4.60388e-13 -2.24016e-14)
(1.23216e-13 -4.21676e-13 -1.93315e-14)
(7.07242e-14 -3.84875e-13 -1.723e-14)
(2.65287e-14 -1.93116e-13 -1.58157e-14)
(1.09841e-12 -4.09655e-14 -1.17012e-13)
(9.02642e-13 -6.05941e-13 -9.87089e-14)
(6.98907e-13 -1.06252e-12 -7.99424e-14)
(5.33649e-13 -9.37501e-13 -6.54517e-14)
(4.00291e-13 -8.26772e-13 -5.41766e-14)
(2.92218e-13 -7.32358e-13 -4.56882e-14)
(2.04364e-13 -6.50504e-13 -3.85361e-14)
(1.32941e-13 -5.79931e-13 -3.30398e-14)
(7.48051e-14 -5.15895e-13 -2.85936e-14)
(2.8167e-14 -2.55304e-13 -2.61131e-14)
(1.50026e-12 -3.69879e-13 -2.06689e-13)
(1.17878e-12 -1.24457e-12 -1.69545e-13)
(8.78349e-13 -1.63014e-12 -1.35075e-13)
(6.47353e-13 -1.38759e-12 -1.08815e-13)
(4.69866e-13 -1.18312e-12 -8.8714e-14)
(3.32665e-13 -1.01544e-12 -7.37526e-14)
(2.26339e-13 -8.76104e-13 -6.11664e-14)
(1.43596e-13 -7.5989e-13 -5.13883e-14)
(7.92713e-14 -6.58477e-13 -4.42389e-14)
(2.97478e-14 -3.21121e-13 -3.88217e-14)
(2.09493e-12 -9.12997e-13 -3.66063e-13)
(1.56506e-12 -2.24036e-12 -2.88508e-13)
(1.11734e-12 -2.45154e-12 -2.2385e-13)
(7.92195e-13 -2.0047e-12 -1.76124e-13)
(5.54933e-13 -1.64886e-12 -1.4027e-13)
(3.80335e-13 -1.36859e-12 -1.13682e-13)
(2.5124e-13 -1.14457e-12 -9.28579e-14)
(1.55292e-13 -9.64375e-13 -7.58823e-14)
(8.39863e-14 -8.13737e-13 -6.3931e-14)
(3.14878e-14 -3.9128e-13 -5.47772e-14)
(3.02566e-12 -1.82204e-12 -6.52154e-13)
(2.11659e-12 -3.81334e-12 -4.90807e-13)
(1.44068e-12 -3.65101e-12 -3.66982e-13)
(9.78553e-13 -2.85762e-12 -2.78621e-13)
(6.59492e-13 -2.2597e-12 -2.15211e-13)
(4.36632e-13 -1.8095e-12 -1.69177e-13)
(2.79521e-13 -1.46486e-12 -1.34936e-13)
(1.68245e-13 -1.19773e-12 -1.07584e-13)
(8.89668e-14 -9.8294e-13 -8.79617e-14)
(3.32433e-14 -4.65751e-13 -7.34164e-14)
(1.25598e-10 -3.42222e-12 -1.09681e-12)
(3.35614e-12 -6.4027e-12 -8.3629e-13)
(1.8775e-12 -5.42746e-12 -5.97643e-13)
(1.21489e-12 -4.04692e-12 -4.35221e-13)
(7.84004e-13 -3.066e-12 -3.24174e-13)
(4.98902e-13 -2.36277e-12 -2.45751e-13)
(3.08009e-13 -1.8474e-12 -1.90044e-13)
(1.7901e-13 -1.46393e-12 -1.47626e-13)
(9.12056e-14 -1.16825e-12 -1.17673e-13)
(3.20997e-14 -5.45237e-13 -9.56235e-14)
(2.13433e-07 -3.19957e-10 1.22434e-10)
(3.93885e-10 -3.25461e-10 -1.58583e-13)
(2.25349e-12 -9.23757e-12 -9.59387e-13)
(1.19273e-12 -5.71522e-12 -6.70068e-13)
(7.93628e-13 -4.13185e-12 -4.78398e-13)
(5.32834e-13 -3.05524e-12 -3.49454e-13)
(3.58725e-13 -2.30315e-12 -2.61133e-13)
(2.40518e-13 -1.76696e-12 -1.98176e-13)
(1.59138e-13 -1.36942e-12 -1.52207e-13)
(1.03182e-13 -6.29532e-13 -1.20824e-13)
(2.29285e-13 3.72293e-13 -1.78832e-14)
(2.16042e-13 3.4489e-13 -1.19902e-14)
(1.89376e-13 -5.47182e-14 -9.34738e-15)
(1.63905e-13 -5.52066e-14 -7.60226e-15)
(1.39644e-13 -5.40399e-14 -7.72649e-15)
(1.16464e-13 -5.29218e-14 -9.06548e-15)
(9.43884e-14 -5.17418e-14 -1.22796e-14)
(7.34526e-14 -5.03928e-14 -3.27082e-14)
(5.38028e-14 -4.87702e-14 -1.33689e-13)
(3.47063e-14 -2.94558e-14 -4.52844e-13)
(5.03856e-13 3.37516e-13 -2.53515e-14)
(4.64674e-13 2.38117e-13 -1.59003e-14)
(3.98065e-13 -1.93226e-13 -1.3597e-14)
(3.3599e-13 -1.87242e-13 -1.12441e-14)
(2.78433e-13 -1.79883e-13 -1.05517e-14)
(2.25008e-13 -1.72765e-13 -1.17728e-14)
(1.75349e-13 -1.65983e-13 -1.4312e-14)
(1.29268e-13 -1.59912e-13 -2.6626e-14)
(8.64798e-14 -1.53436e-13 -8.19336e-14)
(4.67254e-14 -8.5508e-14 -2.92643e-13)
(6.256e-13 2.70933e-13 -4.14233e-14)
(5.55649e-13 6.79489e-14 -2.7379e-14)
(4.59198e-13 -3.90039e-13 -2.26113e-14)
(3.7314e-13 -3.6683e-13 -1.95403e-14)
(2.96952e-13 -3.43204e-13 -1.74714e-14)
(2.29395e-13 -3.21572e-13 -1.83297e-14)
(1.69305e-13 -3.01578e-13 -2.0999e-14)
(1.15874e-13 -2.83306e-13 -2.72529e-14)
(6.84731e-14 -2.65773e-13 -5.98118e-14)
(2.64439e-14 -1.41999e-13 -1.93151e-13)
(8.25069e-13 1.53917e-13 -7.10868e-14)
(7.05955e-13 -1.97807e-13 -4.88596e-14)
(5.65766e-13 -6.6947e-13 -4.06823e-14)
(4.46492e-13 -6.10513e-13 -3.51311e-14)
(3.4562e-13 -5.54967e-13 -3.18562e-14)