/*--------------------------------*- C++ -*----------------------------------*\
| =========                 |                                                 |
| \\      /  F ield         | OpenFOAM: The Open Source CFD Toolbox           |
|  \\    /   O peration     | Version:  4.1                                   |
|   \\  /    A nd           | Web:      www.OpenFOAM.org                      |
|    \\/     M anipulation  |                                                 |
\*---------------------------------------------------------------------------*/
FoamFile
{
    version     2.0;
    format      ascii;
    class       volScalarField;
    location    "6";
    object      p;
}
// * * * * * * * * * * * * * * * * * * * * * * * * * * * * * * * * * * * * * //

dimensions      [1 -1 -2 0 0 0 0];

internalField   nonuniform List<scalar> 
500
(
0.999985
0.999994
0.999996
0.999996
0.999996
0.999965
0.999985
0.999989
0.999991
0.999991
0.999944
0.999977
0.999983
0.999986
0.999986
0.999924
0.999968
0.999977
0.99998
0.999981
0.999904
0.999958
0.999971
0.999975
0.999975
0.999883
0.999949
0.999965
0.999969
0.99997
0.999862
0.999939
0.999958
0.999963
0.999964
0.999841
0.999929
0.999951
0.999957
0.999958
0.99982
0.999919
0.999944
0.999951
0.999952
0.999799
0.999908
0.999937
0.999944
0.999945
0.999778
0.999898
0.99993
0.999938
0.999939
0.999757
0.999887
0.999922
0.999931
0.999932
0.999735
0.999876
0.999914
0.999924
0.999925
0.999713
0.999864
0.999906
0.999916
0.999918
0.999692
0.999853
0.999898
0.999909
0.999911
0.99967
0.999841
0.99989
0.999901
0.999903
0.999648
0.999829
0.999881
0.999893
0.999895
0.999626
0.999816
0.999872
0.999885
0.999887
0.999603
0.999804
0.999863
0.999877
0.999879
0.999581
0.999791
0.999853
0.999868
0.99987
0.999559
0.999778
0.999843
0.999859
0.999861
0.999537
0.999765
0.999833
0.999849
0.999852
0.999514
0.999751
0.999823
0.99984
0.999842
0.999492
0.999738
0.999812
0.99983
0.999833
0.99947
0.999724
0.999801
0.999819
0.999822
0.999447
0.999709
0.99979
0.999808
0.999812
0.999425
0.999695
0.999778
0.999797
0.999801
0.999403
0.99968
0.999766
0.999786
0.999789
0.99938
0.999665
0.999753
0.999774
0.999778
0.999358
0.99965
0.99974
0.999762
0.999765
0.999336
0.999634
0.999727
0.999749
0.999753
0.999314
0.999618
0.999713
0.999736
0.99974
0.999293
0.999602
0.999699
0.999723
0.999726
0.999271
0.999586
0.999685
0.999709
0.999712
0.999249
0.999569
0.99967
0.999694
0.999698
0.999228
0.999552
0.999655
0.999679
0.999683
0.999206
0.999534
0.999639
0.999664
0.999668
0.999185
0.999517
0.999622
0.999648
0.999652
0.999164
0.999499
0.999606
0.999631
0.999636
0.999143
0.99948
0.999588
0.999614
0.999619
0.999123
0.999462
0.999571
0.999597
0.999601
0.999102
0.999443
0.999553
0.999579
0.999583
0.999082
0.999423
0.999534
0.999561
0.999565
0.999062
0.999404
0.999515
0.999541
0.999546
0.999042
0.999384
0.999495
0.999522
0.999526
0.999022
0.999363
0.999475
0.999502
0.999506
0.999002
0.999343
0.999454
0.999481
0.999485
0.998982
0.999322
0.999432
0.99946
0.999464
0.998963
0.9993
0.999411
0.999438
0.999442
0.998943
0.999278
0.999388
0.999415
0.99942
0.998924
0.999256
0.999365
0.999392
0.999397
0.998904
0.999233
0.999342
0.999369
0.999373
0.998885
0.99921
0.999318
0.999344
0.999349
0.998865
0.999187
0.999294
0.99932
0.999324
0.998846
0.999163
0.999268
0.999294
0.999299
0.998826
0.999139
0.999243
0.999269
0.999273
0.998806
0.999114
0.999217
0.999242
0.999247
0.998786
0.999089
0.99919
0.999215
0.99922
0.998766
0.999064
0.999163
0.999188
0.999192
0.998746
0.999038
0.999135
0.99916
0.999164
0.998726
0.999012
0.999108
0.999132
0.999136
0.998705
0.998985
0.999079
0.999102
0.999106
0.998684
0.998957
0.99905
0.999073
0.999077
0.998662
0.99893
0.99902
0.999043
0.999047
0.998641
0.998902
0.99899
0.999012
0.999016
0.998619
0.998874
0.99896
0.998982
0.998986
0.998596
0.998845
0.998929
0.998951
0.998954
0.998574
0.998816
0.998898
0.998919
0.998923
0.99855
0.998787
0.998868
0.998888
0.998892
0.998528
0.998757
0.998835
0.998855
0.998859
0.998505
0.998728
0.998805
0.998825
0.998828
0.998481
0.998699
0.998774
0.998793
0.998796
0.99846
0.99867
0.998743
0.998761
0.998764
0.998436
0.998642
0.998714
0.998732
0.998735
0.998414
0.998615
0.998684
0.998701
0.998704
0.998396
0.998588
0.998656
0.998673
0.998676
0.998372
0.998564
0.99863
0.998647
0.99865
0.998356
0.998539
0.998603
0.99862
0.998622
0.998341
0.998519
0.998581
0.998597
0.9986
0.998326
0.9985
0.998561
0.998577
0.998579
0.998313
0.998483
0.998542
0.998557
0.99856
0.998302
0.998467
0.998525
0.99854
0.998543
0.998293
0.998454
0.99851
0.998525
0.998527
0.998286
0.998443
0.998498
0.998512
0.998515
0.998281
0.998434
0.998488
0.998502
0.998504
0.998277
0.998426
0.998478
0.998492
0.998494
0.998274
0.998419
0.99847
0.998484
0.998486
0.998272
0.998414
0.998464
0.998477
0.998479
0.998271
0.998411
0.99846
0.998473
0.998475
0.998271
0.998407
0.998455
0.998468
0.99847
0.998271
0.998403
0.99845
0.998462
0.998464
0.998269
0.9984
0.998446
0.998458
0.99846
0.998267
0.998398
0.998443
0.998455
0.998457
0.998266
0.998394
0.998439
0.998451
0.998453
0.998266
0.99839
0.998434
0.998445
0.998447
0.998262
0.998384
0.998426
0.998437
0.998439
0.998251
0.998372
0.998415
0.998426
0.998427
0.998228
0.998348
0.998391
0.998402
0.998404
0.998177
0.998299
0.998342
0.998353
0.998355
0.998069
0.998196
0.998239
0.99825
0.998252
)
;

boundaryField
{
    axis
    {
        type            empty;
    }
    inlet
    {
        type            fixedValue;
        value           uniform 1;
    }
    wall
    {
        type            zeroGradient;
    }
    outlet
    {
        type            waveTransmissive;
        gamma           1.4;
        fieldInf        1;
        lInf            3;
        value           nonuniform List<scalar> 5(0.998227 0.998346 0.998386 0.998396 0.998398);
    }
    front
    {
        type            wedge;
    }
    back
    {
        type            wedge;
    }
}


// ************************************************************************* //
