/*--------------------------------*- C++ -*----------------------------------*\
| =========                 |                                                 |
| \\      /  F ield         | OpenFOAM: The Open Source CFD Toolbox           |
|  \\    /   O peration     | Version:  4.1                                   |
|   \\  /    A nd           | Web:      www.OpenFOAM.org                      |
|    \\/     M anipulation  |                                                 |
\*---------------------------------------------------------------------------*/
FoamFile
{
    version     2.0;
    format      ascii;
    class       surfaceScalarField;
    location    "6";
    object      phi;
}
// * * * * * * * * * * * * * * * * * * * * * * * * * * * * * * * * * * * * * //

dimensions      [1 0 -1 0 0 0 0];

internalField   nonuniform List<scalar> 
895
(
-0.00160822
0.316789
-0.00392542
0.456468
-0.0056753
0.344705
-0.00680063
0.221674
0.133458
-0.00165036
0.318437
-0.00402814
0.458846
-0.00582382
0.346501
-0.00697859
0.222829
0.134153
-0.00169368
0.320128
-0.00413377
0.461286
-0.00597655
0.348344
-0.0071616
0.224015
0.134867
-0.00173823
0.321864
-0.0042424
0.46379
-0.00613361
0.350236
-0.00734981
0.225232
0.1356
-0.00178405
0.323645
-0.00435415
0.466361
-0.00629516
0.352178
-0.00754339
0.22648
0.136352
-0.00183117
0.325474
-0.00446909
0.468999
-0.00646133
0.354171
-0.0077425
0.227762
0.137123
-0.00187965
0.32735
-0.00458733
0.471707
-0.00663227
0.356216
-0.00794733
0.229078
0.137915
-0.00192952
0.329277
-0.00470898
0.474486
-0.00680814
0.358316
-0.00815805
0.230428
0.138728
-0.00198084
0.331255
-0.00483415
0.47734
-0.00698908
0.360472
-0.00837486
0.231814
0.139563
-0.00203364
0.333286
-0.00496295
0.480269
-0.00717527
0.362684
-0.00859796
0.233238
0.14042
-0.00208798
0.33537
-0.00509549
0.483277
-0.00736687
0.364957
-0.00882754
0.234699
0.141299
-0.0021439
0.337511
-0.00523191
0.486365
-0.00756407
0.367289
-0.00906383
0.236199
0.142203
-0.00220147
0.339709
-0.00537232
0.489536
-0.00776705
0.369685
-0.00930703
0.23774
0.14313
-0.00226073
0.341967
-0.00551686
0.492792
-0.00797599
0.372145
-0.00955738
0.239322
0.144083
-0.00232174
0.344285
-0.00566567
0.496136
-0.00819109
0.374671
-0.00981512
0.240946
0.145061
-0.00238455
0.346666
-0.00581888
0.49957
-0.00841256
0.377265
-0.0100805
0.242615
0.146065
-0.00244923
0.349111
-0.00597665
0.503098
-0.00864061
0.37993
-0.0103537
0.244329
0.147097
-0.00251585
0.351623
-0.00613912
0.506721
-0.00887546
0.382667
-0.0106351
0.246089
0.148157
-0.00258446
0.354204
-0.00630646
0.510443
-0.00911734
0.385479
-0.0109249
0.247897
0.149246
-0.00265513
0.356855
-0.00647882
0.514267
-0.00936648
0.388367
-0.0112234
0.249755
0.150364
-0.00272794
0.359579
-0.00665638
0.518196
-0.00962313
0.391335
-0.011531
0.251663
0.151513
-0.00280295
0.362377
-0.00683931
0.522232
-0.00988755
0.394384
-0.0118478
0.253624
0.152694
-0.00288024
0.365253
-0.00702781
0.52638
-0.01016
0.397516
-0.0121742
0.255639
0.153907
-0.00295989
0.368208
-0.00722205
0.530642
-0.0104407
0.400736
-0.0125106
0.25771
0.155153
-0.00304197
0.371246
-0.00742223
0.535022
-0.0107301
0.404045
-0.0128572
0.259838
0.156434
-0.00312659
0.374367
-0.00762857
0.539524
-0.0110283
0.407445
-0.0132146
0.262024
0.157751
-0.00321381
0.377576
-0.00784126
0.544151
-0.0113357
0.41094
-0.0135829
0.264272
0.159104
-0.00330374
0.380875
-0.00806055
0.548908
-0.0116527
0.414533
-0.0139626
0.266583
0.160495
-0.00339647
0.384266
-0.00828665
0.553798
-0.0119795
0.418227
-0.0143541
0.268958
0.161925
-0.00349209
0.387752
-0.0085198
0.558826
-0.0123164
0.422025
-0.0147579
0.271401
0.163396
-0.0035907
0.391337
-0.00876025
0.563995
-0.012664
0.425929
-0.0151742
0.273912
0.164908
-0.00369242
0.395024
-0.00900827
0.569311
-0.0130224
0.429944
-0.0156037
0.276494
0.166462
-0.00379736
0.398815
-0.00926411
0.574777
-0.0133922
0.434073
-0.0160467
0.279149
0.168061
-0.00390561
0.402715
-0.00952806
0.580399
-0.0137736
0.438319
-0.0165037
0.28188
0.169705
-0.00401732
0.406726
-0.00980041
0.586182
-0.0141672
0.442687
-0.0169753
0.284689
0.171396
-0.0041326
0.410852
-0.0100815
0.592131
-0.0145734
0.44718
-0.0174619
0.287578
0.173136
-0.00425157
0.415096
-0.0103715
0.59825
-0.0149926
0.451802
-0.0179642
0.290551
0.174925
-0.00437438
0.419464
-0.0106709
0.604546
-0.0154253
0.456557
-0.0184826
0.293609
0.176766
-0.00450115
0.423958
-0.01098
0.611025
-0.015872
0.46145
-0.0190177
0.296756
0.178661
-0.00463204
0.428582
-0.0112991
0.617691
-0.0163331
0.466485
-0.0195702
0.299994
0.18061
-0.0047672
0.433342
-0.0116286
0.624552
-0.0168093
0.471667
-0.0201407
0.303326
0.182616
-0.00490678
0.438241
-0.0119688
0.631613
-0.017301
0.477
-0.0207298
0.306755
0.184681
-0.00505094
0.443283
-0.0123203
0.638882
-0.0178089
0.482489
-0.0213384
0.310286
0.186806
-0.00519985
0.448475
-0.0126833
0.646365
-0.0183336
0.48814
-0.0219669
0.31392
0.188994
-0.0053537
0.45382
-0.0130584
0.654069
-0.0188756
0.493959
-0.0226163
0.317662
0.191247
-0.00551266
0.459323
-0.0134459
0.662001
-0.0194356
0.499949
-0.0232872
0.321514
0.193566
-0.00567692
0.464991
-0.0138463
0.67017
-0.0200143
0.506118
-0.0239806
0.325481
0.195955
-0.00584668
0.470828
-0.0142602
0.678582
-0.0206124
0.512471
-0.0246971
0.329567
0.198415
-0.00602215
0.47684
-0.0146879
0.687247
-0.0212307
0.519015
-0.0254378
0.333775
0.200948
-0.00620355
0.483033
-0.0151302
0.696172
-0.0218698
0.525755
-0.0262035
0.33811
0.203558
-0.00639109
0.489413
-0.0155874
0.705367
-0.0225305
0.532699
-0.0269951
0.342575
0.206246
-0.00658502
0.495987
-0.0160602
0.714841
-0.0232138
0.539854
-0.0278137
0.347176
0.209016
-0.00678558
0.502761
-0.0165491
0.724603
-0.0239204
0.547226
-0.0286603
0.351917
0.21187
-0.00699301
0.509743
-0.0170549
0.734663
-0.0246513
0.554823
-0.029536
0.356803
0.214812
-0.00720759
0.516938
-0.017578
0.745032
-0.0254074
0.562653
-0.0304418
0.361838
0.217843
-0.00742959
0.524355
-0.0181193
0.75572
-0.0261896
0.570724
-0.031379
0.367028
0.220968
-0.0076593
0.532001
-0.0186793
0.766738
-0.026999
0.579045
-0.0323488
0.372379
0.224189
-0.00789701
0.539885
-0.0192589
0.778099
-0.0278367
0.587623
-0.0333523
0.377896
0.227511
-0.00814304
0.548014
-0.0198588
0.789812
-0.0287036
0.596469
-0.0343911
0.383584
0.230935
-0.0083977
0.556397
-0.0204797
0.801892
-0.0296011
0.60559
-0.0354663
0.38945
0.234467
-0.00866137
0.565043
-0.0211226
0.814351
-0.0305302
0.614999
-0.0365795
0.3955
0.238109
-0.00893435
0.573962
-0.0217882
0.827202
-0.0314923
0.624703
-0.0377322
0.401741
0.241867
-0.00921705
0.583163
-0.0224775
0.840459
-0.0324885
0.634715
-0.0389258
0.408179
0.245743
-0.00950984
0.592656
-0.0231915
0.854139
-0.0335204
0.645044
-0.0401621
0.414822
0.249742
-0.0098131
0.602452
-0.023931
0.868253
-0.0345893
0.655703
-0.0414428
0.421676
0.253869
-0.0101273
0.612562
-0.0246972
0.88282
-0.0356966
0.666703
-0.0427695
0.42875
0.258127
-0.0104528
0.622996
-0.025491
0.897855
-0.036844
0.678056
-0.0441442
0.436051
0.262523
-0.0107902
0.633767
-0.0263136
0.913375
-0.038033
0.689776
-0.0455688
0.443588
0.26706
-0.0111398
0.644887
-0.0271662
0.929397
-0.0392653
0.701875
-0.0470452
0.451369
0.271745
-0.0115022
0.656369
-0.0280499
0.945941
-0.0405426
0.714368
-0.0485756
0.459402
0.276581
-0.0118778
0.668225
-0.0289661
0.963026
-0.0418668
0.727269
-0.0501623
0.467699
0.281576
-0.0122674
0.680472
-0.029916
0.98067
-0.0432399
0.740593
-0.0518073
0.476267
0.286735
-0.0126711
0.693121
-0.030901
0.998896
-0.0446635
0.754355
-0.0535131
0.485118
0.292063
-0.0130903
0.706187
-0.0319227
1.01773
-0.0461402
0.768574
-0.0552824
0.494262
0.297568
-0.0135245
0.719689
-0.0329823
1.03718
-0.0476719
0.783264
-0.0571176
0.503709
0.303256
-0.0139754
0.733641
-0.0340815
1.05728
-0.0492607
0.798444
-0.0590213
0.51347
0.309133
-0.0144432
0.748058
-0.0352222
1.07806
-0.0509094
0.814133
-0.0609966
0.52356
0.315207
-0.014928
0.762962
-0.0364056
1.09953
-0.0526201
0.83035
-0.0630463
0.533989
0.321486
-0.015432
0.778369
-0.037634
1.12173
-0.0543955
0.847115
-0.0651735
0.544769
0.327976
-0.0159546
0.794299
-0.0389089
1.14468
-0.0562383
0.864447
-0.0673815
0.555916
0.334687
-0.0164973
0.81077
-0.0402323
1.16842
-0.0581513
0.882371
-0.0696736
0.567442
0.341626
-0.0170606
0.827805
-0.0416064
1.19297
-0.0601375
0.900907
-0.0720533
0.579363
0.348803
-0.0176457
0.845426
-0.0430333
1.21836
-0.0621999
0.920081
-0.0745244
0.591693
0.356226
-0.0182532
0.863654
-0.044515
1.24462
-0.0643417
0.939915
-0.0770907
0.604448
0.363905
-0.0188843
0.882512
-0.0460541
1.2718
-0.0665663
0.960436
-0.0797561
0.617645
0.37185
-0.0195397
0.902026
-0.0476527
1.29992
-0.068877
0.98167
-0.0825247
0.6313
0.380071
-0.0202207
0.922221
-0.0493135
1.32902
-0.0712777
1.00365
-0.0854012
0.645433
0.38858
-0.0209284
0.943124
-0.0510394
1.35914
-0.0737722
1.02639
-0.08839
0.660061
0.397387
-0.0216636
0.964763
-0.0528328
1.39032
-0.0763645
1.04994
-0.0914959
0.675203
0.406503
-0.0224278
0.987165
-0.0546964
1.4226
-0.0790583
1.07432
-0.0947236
0.690879
0.415941
-0.023222
1.01036
-0.0566336
1.45602
-0.0818582
1.09955
-0.0980783
0.70711
0.425713
-0.0240476
1.03438
-0.0586472
1.49063
-0.084769
1.1257
-0.101566
0.723921
0.435833
-0.024907
1.05926
-0.0607413
1.52648
-0.0877955
1.15277
-0.105192
0.741332
0.446316
-0.0257986
1.08504
-0.062918
1.56362
-0.090942
1.18081
-0.108962
0.759366
0.457173
-0.0267272
1.11175
-0.0651817
1.60209
-0.0942141
1.20987
-0.112883
0.778049
0.468421
-0.0276927
1.13942
-0.0675359
1.64195
-0.0976168
1.23997
-0.116959
0.797407
0.480076
-0.0286947
1.16809
-0.0699851
1.68327
-0.101157
1.27116
-0.121201
0.817469
0.492154
-0.0297382
1.1978
-0.0725326
1.72609
-0.104839
1.3035
-0.125611
0.838262
0.504673
-0.0308274
1.22859
-0.0751835
1.77047
-0.108671
1.33702
-0.130202
0.859815
0.517649
-0.0319637
-0.0779311
-0.112639
-0.134959
)
;

boundaryField
{
    axis
    {
        type            empty;
        value           nonuniform 0();
    }
    inlet
    {
        type            calculated;
        value           nonuniform List<scalar> 5(-0.315183 -0.45415 -0.342954 -0.220548 -0.13278);
    }
    wall
    {
        type            calculated;
        value           nonuniform List<scalar> 
100
(
-0.00747812
-0.00767381
-0.00787504
-0.008082
-0.00829486
-0.0085138
-0.00873902
-0.00897074
-0.00920914
-0.00945445
-0.0097069
-0.00996672
-0.0102341
-0.0105094
-0.0107928
-0.0110846
-0.0113851
-0.0116945
-0.0120131
-0.0123414
-0.0126795
-0.0130279
-0.0133868
-0.0137567
-0.0141378
-0.0145307
-0.0149357
-0.0153532
-0.0157837
-0.0162277
-0.0166855
-0.0171577
-0.0176448
-0.0181473
-0.0186658
-0.0192009
-0.0197531
-0.0203231
-0.0209115
-0.021519
-0.0221463
-0.0227941
-0.0234631
-0.0241542
-0.0248682
-0.025606
-0.0263683
-0.0271562
-0.0279706
-0.0288125
-0.0296829
-0.030583
-0.0315139
-0.0324767
-0.0334727
-0.0345032
-0.0355694
-0.0366729
-0.037815
-0.0389973
-0.0402213
-0.0414887
-0.0428012
-0.0441605
-0.0455687
-0.0470275
-0.048539
-0.0501055
-0.0517289
-0.0534116
-0.0551563
-0.0569651
-0.0588408
-0.0607862
-0.0628041
-0.0648973
-0.0670692
-0.0693231
-0.0716621
-0.0740899
-0.0766102
-0.0792269
-0.0819441
-0.0847658
-0.0876966
-0.090741
-0.0939038
-0.0971902
-0.100605
-0.104154
-0.107843
-0.111678
-0.115665
-0.11981
-0.124121
-0.128604
-0.133268
-0.138117
-0.143165
-0.148395
)
;
    }
    outlet
    {
        type            calculated;
        value           nonuniform List<scalar> 5(1.26051 1.81646 1.37175 0.882157 0.531099);
    }
    front
    {
        type            wedge;
        value           nonuniform List<scalar> 
500
(
1.1828e-06
1.21604e-06
1.25026e-06
1.28549e-06
1.32186e-06
1.35949e-06
1.39818e-06
1.43816e-06
1.4794e-06
1.52195e-06
1.56592e-06
1.61126e-06
1.65817e-06
1.70643e-06
1.75641e-06
1.80794e-06
1.86127e-06
1.91633e-06
1.97319e-06
2.03201e-06
2.09276e-06
2.15559e-06
2.22047e-06
2.28764e-06
2.35699e-06
2.42888e-06
2.50303e-06
2.57994e-06
2.65941e-06
2.74161e-06
2.82676e-06
2.91491e-06
3.00608e-06
3.10043e-06
3.19832e-06
3.29961e-06
3.4045e-06
3.51316e-06
3.62565e-06
3.74244e-06
3.86326e-06
3.98856e-06
4.11846e-06
4.25304e-06
4.39278e-06
4.53748e-06
4.68779e-06
4.84354e-06
5.00514e-06
5.17287e-06
5.34678e-06
5.52745e-06
5.71504e-06
5.90946e-06
6.11163e-06
6.3214e-06
6.53939e-06
6.76557e-06
7.00076e-06
7.24496e-06
7.49878e-06
7.76243e-06
8.03658e-06
8.32139e-06
8.61753e-06
8.92542e-06
9.24557e-06
9.57847e-06
9.92473e-06
1.02849e-05
1.06595e-05
1.10493e-05
1.14548e-05
1.18768e-05
1.23161e-05
1.27732e-05
1.32491e-05
1.37447e-05
1.42605e-05
1.47977e-05
1.5357e-05
1.59398e-05
1.65467e-05
1.71788e-05
1.78376e-05
1.85238e-05
1.92391e-05
1.99844e-05
2.07612e-05
2.15709e-05
2.2415e-05
2.32947e-05
2.4212e-05
2.51686e-05
2.61664e-05
2.72069e-05
2.82917e-05
2.9423e-05
3.06029e-05
3.183e-05
-8.33725e-08
-8.22026e-08
-8.10213e-08
-7.96497e-08
-7.80674e-08
-7.6196e-08
-7.42225e-08
-7.19861e-08
-6.95162e-08
-6.68034e-08
-6.3718e-08
-6.05013e-08
-5.67861e-08
-5.29433e-08
-4.86587e-08
-4.40343e-08
-3.90089e-08
-3.35629e-08
-2.7678e-08
-2.13903e-08
-1.4603e-08
-7.29847e-09
5.25949e-10
8.97159e-09
1.78865e-08
2.75969e-08
3.78264e-08
4.88365e-08
6.06009e-08
7.30564e-08
8.64341e-08
1.006e-07
1.15734e-07
1.31754e-07
1.48911e-07
1.67078e-07
1.86341e-07
2.06844e-07
2.285e-07
2.51618e-07
2.75958e-07
3.01871e-07
3.29214e-07
3.58217e-07
3.88957e-07
4.21409e-07
4.55838e-07
4.92111e-07
5.30554e-07
5.71186e-07
6.13993e-07
6.59327e-07
7.07194e-07
7.57613e-07
8.10935e-07
8.67181e-07
9.26524e-07
9.89044e-07
1.05509e-06
1.1247e-06
1.19798e-06
1.27534e-06
1.35677e-06
1.44257e-06
1.533e-06
1.62819e-06
1.72849e-06
1.83414e-06
1.94524e-06
2.06224e-06
2.18543e-06
2.31507e-06
2.45134e-06
2.59492e-06
2.74587e-06
2.90459e-06
3.07154e-06
3.24726e-06
3.4319e-06
3.62589e-06
3.83014e-06
4.04489e-06
4.27057e-06
4.50734e-06
4.7565e-06
5.01859e-06
5.2935e-06
5.58299e-06
5.88625e-06
6.20568e-06
6.54083e-06
6.89259e-06
7.26264e-06
7.65109e-06
8.05908e-06
8.48724e-06
8.93699e-06
9.40944e-06
9.9048e-06
1.04243e-05
-2.83558e-07
-2.88484e-07
-2.93524e-07
-2.98587e-07
-3.03636e-07
-3.08743e-07
-3.13846e-07
-3.19015e-07
-3.24187e-07
-3.29351e-07
-3.34481e-07
-3.39687e-07
-3.44825e-07
-3.50005e-07
-3.55123e-07
-3.60207e-07
-3.65312e-07
-3.70311e-07
-3.75273e-07
-3.80202e-07
-3.85022e-07
-3.89819e-07
-3.9446e-07
-3.99033e-07
-4.03493e-07
-4.0778e-07
-4.11952e-07
-4.15972e-07
-4.19784e-07
-4.23456e-07
-4.26836e-07
-4.30097e-07
-4.3302e-07
-4.35694e-07
-4.38049e-07
-4.40129e-07
-4.41863e-07
-4.43178e-07
-4.4413e-07
-4.44625e-07
-4.44744e-07
-4.44231e-07
-4.43312e-07
-4.41779e-07
-4.3964e-07
-4.36827e-07
-4.3338e-07
-4.29177e-07
-4.24156e-07
-4.18312e-07
-4.11577e-07
-4.0391e-07
-3.95281e-07
-3.85483e-07
-3.7464e-07
-3.62545e-07
-3.49157e-07
-3.34459e-07
-3.18297e-07
-3.00604e-07
-2.81311e-07
-2.60169e-07
-2.37587e-07
-2.12707e-07
-1.86033e-07
-1.56937e-07
-1.26059e-07
-9.23071e-08
-5.6351e-08
-1.75221e-08
2.40854e-08
6.85619e-08
1.16194e-07
1.67256e-07
2.21799e-07
2.79792e-07
3.41932e-07
4.08218e-07
4.78628e-07
5.5361e-07
6.33447e-07
7.18294e-07
8.08798e-07
9.0448e-07
1.00605e-06
1.11443e-06
1.22863e-06
1.35041e-06
1.47876e-06
1.61525e-06
1.75955e-06
1.91245e-06
2.07407e-06
2.24544e-06
2.42638e-06
2.61744e-06
2.81968e-06
3.03353e-06
3.25915e-06
3.49716e-06
-2.34274e-07
-2.38854e-07
-2.4347e-07
-2.48157e-07
-2.52888e-07
-2.577e-07
-2.62557e-07
-2.67466e-07
-2.72454e-07
-2.7747e-07
-2.82558e-07
-2.87667e-07
-2.9285e-07
-2.98104e-07
-3.03348e-07
-3.08634e-07
-3.14026e-07
-3.19363e-07
-3.24796e-07
-3.30237e-07
-3.35674e-07
-3.41183e-07
-3.46662e-07
-3.52177e-07
-3.57686e-07
-3.6317e-07
-3.68656e-07
-3.74142e-07
-3.79606e-07
-3.85027e-07
-3.90407e-07
-3.95731e-07
-4.01018e-07
-4.06239e-07
-4.11344e-07
-4.16403e-07
-4.21342e-07
-4.2616e-07
-4.30848e-07
-4.35383e-07
-4.3981e-07
-4.44019e-07
-4.4802e-07
-4.51855e-07
-4.55425e-07
-4.58715e-07
-4.61837e-07
-4.64605e-07
-4.67015e-07
-4.69066e-07
-4.70828e-07
-4.7219e-07
-4.73038e-07
-4.73359e-07
-4.73388e-07
-4.72774e-07
-4.71508e-07
-4.69689e-07
-4.67283e-07
-4.64184e-07
-4.60135e-07
-4.55463e-07
-4.49918e-07
-4.43494e-07
-4.36053e-07
-4.27462e-07
-4.18112e-07
-4.07233e-07
-3.95482e-07
-3.8214e-07
-3.67442e-07
-3.51431e-07
-3.33807e-07
-3.14596e-07
-2.93348e-07
-2.70726e-07
-2.45725e-07
-2.18824e-07
-1.89767e-07
-1.58343e-07
-1.24503e-07
-8.81206e-08
-4.89179e-08
-6.88e-09
3.82059e-08
8.66843e-08
1.38212e-07
1.93588e-07
2.52634e-07
3.15517e-07
3.82965e-07
4.54553e-07
5.30897e-07
6.12294e-07
6.98759e-07
7.90542e-07
8.88178e-07
9.91849e-07
1.10222e-06
1.21882e-06
-1.55412e-07
-1.58543e-07
-1.61713e-07
-1.64924e-07
-1.68186e-07
-1.71505e-07
-1.74868e-07
-1.78249e-07
-1.81718e-07
-1.85215e-07
-1.88751e-07
-1.92344e-07
-1.95967e-07
-1.9966e-07
-2.03355e-07
-2.07114e-07
-2.10917e-07
-2.14745e-07
-2.18607e-07
-2.22527e-07
-2.26459e-07
-2.30429e-07
-2.34425e-07
-2.38441e-07
-2.42497e-07
-2.46558e-07
-2.50636e-07
-2.54739e-07
-2.58859e-07
-2.62973e-07
-2.67094e-07
-2.71197e-07
-2.7532e-07
-2.79429e-07
-2.83498e-07
-2.87569e-07
-2.91621e-07
-2.95572e-07
-2.99553e-07
-3.03455e-07
-3.07297e-07
-3.11109e-07
-3.14806e-07
-3.18426e-07
-3.2196e-07
-3.25311e-07
-3.28672e-07
-3.31854e-07
-3.34898e-07
-3.3774e-07
-3.40467e-07
-3.42985e-07
-3.4534e-07
-3.47352e-07
-3.4926e-07
-3.50892e-07
-3.52187e-07
-3.53148e-07
-3.53955e-07
-3.54333e-07
-3.5423e-07
-3.5392e-07
-3.52977e-07
-3.5181e-07
-3.50014e-07
-3.47699e-07
-3.44914e-07
-3.41373e-07
-3.37387e-07
-3.32668e-07
-3.27117e-07
-3.20923e-07
-3.13921e-07
-3.06106e-07
-2.97228e-07
-2.8752e-07
-2.76681e-07
-2.6487e-07
-2.5178e-07
-2.37612e-07
-2.21957e-07
-2.05126e-07
-1.86754e-07
-1.6689e-07
-1.45259e-07
-1.22068e-07
-9.69893e-08
-7.00664e-08
-4.09625e-08
-9.97517e-09
2.3594e-08
5.92593e-08
9.76194e-08
1.38606e-07
1.82448e-07
2.29166e-07
2.78993e-07
3.3204e-07
3.88814e-07
4.48938e-07
)
;
    }
    back
    {
        type            wedge;
        value           nonuniform List<scalar> 
500
(
1.1828e-06
1.21604e-06
1.25026e-06
1.28549e-06
1.32186e-06
1.35949e-06
1.39818e-06
1.43816e-06
1.4794e-06
1.52195e-06
1.56592e-06
1.61126e-06
1.65817e-06
1.70643e-06
1.75641e-06
1.80794e-06
1.86127e-06
1.91633e-06
1.97319e-06
2.03201e-06
2.09276e-06
2.15559e-06
2.22047e-06
2.28764e-06
2.35699e-06
2.42888e-06
2.50303e-06
2.57994e-06
2.65941e-06
2.74161e-06
2.82676e-06
2.91491e-06
3.00608e-06
3.10043e-06
3.19832e-06
3.29961e-06
3.4045e-06
3.51316e-06
3.62565e-06
3.74244e-06
3.86326e-06
3.98856e-06
4.11846e-06
4.25304e-06
4.39278e-06
4.53748e-06
4.68779e-06
4.84354e-06
5.00514e-06
5.17287e-06
5.34678e-06
5.52745e-06
5.71504e-06
5.90946e-06
6.11163e-06
6.3214e-06
6.53939e-06
6.76557e-06
7.00076e-06
7.24496e-06
7.49878e-06
7.76243e-06
8.03658e-06
8.32139e-06
8.61753e-06
8.92542e-06
9.24557e-06
9.57847e-06
9.92473e-06
1.02849e-05
1.06595e-05
1.10493e-05
1.14548e-05
1.18768e-05
1.23161e-05
1.27732e-05
1.32491e-05
1.37447e-05
1.42605e-05
1.47977e-05
1.5357e-05
1.59398e-05
1.65467e-05
1.71788e-05
1.78376e-05
1.85238e-05
1.92391e-05
1.99844e-05
2.07612e-05
2.15709e-05
2.2415e-05
2.32947e-05
2.4212e-05
2.51686e-05
2.61664e-05
2.72069e-05
2.82917e-05
2.9423e-05
3.06029e-05
3.183e-05
-8.33725e-08
-8.22026e-08
-8.10213e-08
-7.96497e-08
-7.80674e-08
-7.6196e-08
-7.42225e-08
-7.19861e-08
-6.95162e-08
-6.68034e-08
-6.3718e-08
-6.05013e-08
-5.67861e-08
-5.29433e-08
-4.86587e-08
-4.40343e-08
-3.90089e-08
-3.35629e-08
-2.7678e-08
-2.13903e-08
-1.4603e-08
-7.29847e-09
5.25949e-10
8.97159e-09
1.78865e-08
2.75969e-08
3.78264e-08
4.88365e-08
6.06009e-08
7.30564e-08
8.64341e-08
1.006e-07
1.15734e-07
1.31754e-07
1.48911e-07
1.67078e-07
1.86341e-07
2.06844e-07
2.285e-07
2.51618e-07
2.75958e-07
3.01871e-07
3.29214e-07
3.58217e-07
3.88957e-07
4.21409e-07
4.55838e-07
4.92111e-07
5.30554e-07
5.71186e-07
6.13993e-07
6.59327e-07
7.07194e-07
7.57613e-07
8.10935e-07
8.67181e-07
9.26524e-07
9.89044e-07
1.05509e-06
1.1247e-06
1.19798e-06
1.27534e-06
1.35677e-06
1.44257e-06
1.533e-06
1.62819e-06
1.72849e-06
1.83414e-06
1.94524e-06
2.06224e-06
2.18543e-06
2.31507e-06
2.45134e-06
2.59492e-06
2.74587e-06
2.90459e-06
3.07154e-06
3.24726e-06
3.4319e-06
3.62589e-06
3.83014e-06
4.04489e-06
4.27057e-06
4.50734e-06
4.7565e-06
5.01859e-06
5.2935e-06
5.58299e-06
5.88625e-06
6.20568e-06
6.54083e-06
6.89259e-06
7.26264e-06
7.65109e-06
8.05908e-06
8.48724e-06
8.93699e-06
9.40944e-06
9.9048e-06
1.04243e-05
-2.83558e-07
-2.88484e-07
-2.93524e-07
-2.98587e-07
-3.03636e-07
-3.08743e-07
-3.13846e-07
-3.19015e-07
-3.24187e-07
-3.29351e-07
-3.34481e-07
-3.39687e-07
-3.44825e-07
-3.50005e-07
-3.55123e-07
-3.60207e-07
-3.65312e-07
-3.70311e-07
-3.75273e-07
-3.80202e-07
-3.85022e-07
-3.89819e-07
-3.9446e-07
-3.99033e-07
-4.03493e-07
-4.0778e-07
-4.11952e-07
-4.15972e-07
-4.19784e-07
-4.23456e-07
-4.26836e-07
-4.30097e-07
-4.3302e-07
-4.35694e-07
-4.38049e-07
-4.40129e-07
-4.41863e-07
-4.43178e-07
-4.4413e-07
-4.44625e-07
-4.44744e-07
-4.44231e-07
-4.43312e-07
-4.41779e-07
-4.3964e-07
-4.36827e-07
-4.3338e-07
-4.29177e-07
-4.24156e-07
-4.18312e-07
-4.11577e-07
-4.0391e-07
-3.95281e-07
-3.85483e-07
-3.7464e-07
-3.62545e-07
-3.49157e-07
-3.34459e-07
-3.18297e-07
-3.00604e-07
-2.81311e-07
-2.60169e-07
-2.37587e-07
-2.12707e-07
-1.86033e-07
-1.56937e-07
-1.26059e-07
-9.23071e-08
-5.6351e-08
-1.75221e-08
2.40854e-08
6.85619e-08
1.16194e-07
1.67256e-07
2.21799e-07
2.79792e-07
3.41932e-07
4.08218e-07
4.78628e-07
5.5361e-07
6.33447e-07
7.18294e-07
8.08798e-07
9.0448e-07
1.00605e-06
1.11443e-06
1.22863e-06
1.35041e-06
1.47876e-06
1.61525e-06
1.75955e-06
1.91245e-06
2.07407e-06
2.24544e-06
2.42638e-06
2.61744e-06
2.81968e-06
3.03353e-06
3.25915e-06
3.49716e-06
-2.34274e-07
-2.38854e-07
-2.4347e-07
-2.48157e-07
-2.52888e-07
-2.577e-07
-2.62557e-07
-2.67466e-07
-2.72454e-07
-2.7747e-07
-2.82558e-07
-2.87667e-07
-2.9285e-07
-2.98104e-07
-3.03348e-07
-3.08634e-07
-3.14026e-07
-3.19363e-07
-3.24796e-07
-3.30237e-07
-3.35674e-07
-3.41183e-07
-3.46662e-07
-3.52177e-07
-3.57686e-07
-3.6317e-07
-3.68656e-07
-3.74142e-07
-3.79606e-07
-3.85027e-07
-3.90407e-07
-3.95731e-07
-4.01018e-07
-4.06239e-07
-4.11344e-07
-4.16403e-07
-4.21342e-07
-4.2616e-07
-4.30848e-07
-4.35383e-07
-4.3981e-07
-4.44019e-07
-4.4802e-07
-4.51855e-07
-4.55425e-07
-4.58715e-07
-4.61837e-07
-4.64605e-07
-4.67015e-07
-4.69066e-07
-4.70828e-07
-4.7219e-07
-4.73038e-07
-4.73359e-07
-4.73388e-07
-4.72774e-07
-4.71508e-07
-4.69689e-07
-4.67283e-07
-4.64184e-07
-4.60135e-07
-4.55463e-07
-4.49918e-07
-4.43494e-07
-4.36053e-07
-4.27462e-07
-4.18112e-07
-4.07233e-07
-3.95482e-07
-3.8214e-07
-3.67442e-07
-3.51431e-07
-3.33807e-07
-3.14596e-07
-2.93348e-07
-2.70726e-07
-2.45725e-07
-2.18824e-07
-1.89767e-07
-1.58343e-07
-1.24503e-07
-8.81206e-08
-4.89179e-08
-6.88e-09
3.82059e-08
8.66843e-08
1.38212e-07
1.93588e-07
2.52634e-07
3.15517e-07
3.82965e-07
4.54553e-07
5.30897e-07
6.12294e-07
6.98759e-07
7.90542e-07
8.88178e-07
9.91849e-07
1.10222e-06
1.21882e-06
-1.55412e-07
-1.58543e-07
-1.61713e-07
-1.64924e-07
-1.68186e-07
-1.71505e-07
-1.74868e-07
-1.78249e-07
-1.81718e-07
-1.85215e-07
-1.88751e-07
-1.92344e-07
-1.95967e-07
-1.9966e-07
-2.03355e-07
-2.07114e-07
-2.10917e-07
-2.14745e-07
-2.18607e-07
-2.22527e-07
-2.26459e-07
-2.30429e-07
-2.34425e-07
-2.38441e-07
-2.42497e-07
-2.46558e-07
-2.50636e-07
-2.54739e-07
-2.58859e-07
-2.62973e-07
-2.67094e-07
-2.71197e-07
-2.7532e-07
-2.79429e-07
-2.83498e-07
-2.87569e-07
-2.91621e-07
-2.95572e-07
-2.99553e-07
-3.03455e-07
-3.07297e-07
-3.11109e-07
-3.14806e-07
-3.18426e-07
-3.2196e-07
-3.25311e-07
-3.28672e-07
-3.31854e-07
-3.34898e-07
-3.3774e-07
-3.40467e-07
-3.42985e-07
-3.4534e-07
-3.47352e-07
-3.4926e-07
-3.50892e-07
-3.52187e-07
-3.53148e-07
-3.53955e-07
-3.54333e-07
-3.5423e-07
-3.5392e-07
-3.52977e-07
-3.5181e-07
-3.50014e-07
-3.47699e-07
-3.44914e-07
-3.41373e-07
-3.37387e-07
-3.32668e-07
-3.27117e-07
-3.20923e-07
-3.13921e-07
-3.06106e-07
-2.97228e-07
-2.8752e-07
-2.76681e-07
-2.6487e-07
-2.5178e-07
-2.37612e-07
-2.21957e-07
-2.05126e-07
-1.86754e-07
-1.6689e-07
-1.45259e-07
-1.22068e-07
-9.69893e-08
-7.00664e-08
-4.09625e-08
-9.97517e-09
2.3594e-08
5.92593e-08
9.76194e-08
1.38606e-07
1.82448e-07
2.29166e-07
2.78993e-07
3.3204e-07
3.88814e-07
4.48938e-07
)
;
    }
}


// ************************************************************************* //
