/*--------------------------------*- C++ -*----------------------------------*\
| =========                 |                                                 |
| \\      /  F ield         | OpenFOAM: The Open Source CFD Toolbox           |
|  \\    /   O peration     | Version:  4.1                                   |
|   \\  /    A nd           | Web:      www.OpenFOAM.org                      |
|    \\/     M anipulation  |                                                 |
\*---------------------------------------------------------------------------*/
FoamFile
{
    version     2.0;
    format      ascii;
    class       volVectorField;
    location    "6";
    object      U;
}
// * * * * * * * * * * * * * * * * * * * * * * * * * * * * * * * * * * * * * //

dimensions      [0 1 -1 0 0 0 0];

internalField   nonuniform List<vector> 
500
(
(3.00001 -6.15307e-08 4.38078e-17)
(3 -5.2639e-08 8.52792e-20)
(3 -1.97658e-08 9.95168e-18)
(3 -1.1891e-08 1.33317e-24)
(3 -4.48985e-09 1.23313e-23)
(3.00001 -2.08224e-07 4.35811e-17)
(3 -1.80097e-07 1.72344e-19)
(3 -6.9218e-08 1.00384e-17)
(3 -3.87752e-08 1.51734e-17)
(3 -1.34434e-08 1.23303e-23)
(3.00002 -4.4019e-07 8.67024e-17)
(3.00001 -3.84742e-07 2.633e-19)
(3 -1.50152e-07 1.03732e-17)
(3 -7.94021e-08 2.9786e-17)
(3 -2.61081e-08 1.31715e-23)
(3.00002 -7.59364e-07 8.63164e-17)
(3.00001 -6.70464e-07 1.5442e-17)
(3.00001 -2.64561e-07 3.02677e-17)
(3.00001 -1.32846e-07 2.88397e-17)
(3.00001 -4.21163e-08 2.28864e-23)
(3.00003 -1.16822e-06 4.31267e-17)
(3.00001 -1.04073e-06 3.02205e-17)
(3.00001 -4.14311e-07 1.07637e-17)
(3.00001 -1.98894e-07 2.7905e-17)
(3.00001 -6.13406e-08 2.44871e-23)
(3.00003 -1.66939e-06 4.30542e-17)
(3.00001 -1.49891e-06 3.02222e-17)
(3.00001 -6.01165e-07 3.0396e-17)
(3.00001 -2.77547e-07 2.65619e-17)
(3.00001 -8.37891e-08 -1.27224e-17)
(3.00004 -2.26576e-06 4.29805e-17)
(3.00002 -2.04826e-06 3.022e-17)
(3.00001 -8.26769e-07 3.00305e-17)
(3.00001 -3.68941e-07 1.05181e-17)
(3.00001 -1.09543e-07 -1.27224e-17)
(3.00004 -2.96025e-06 4.29051e-17)
(3.00002 -2.69198e-06 3.02142e-17)
(3.00001 -1.09272e-06 2.96494e-17)
(3.00001 -4.73287e-07 9.71883e-18)
(3.00001 -1.38732e-07 -1.27223e-17)
(3.00004 -3.75593e-06 9.35407e-19)
(3.00002 -3.43316e-06 3.03931e-17)
(3.00001 -1.40051e-06 4.79697e-17)
(3.00001 -5.90865e-07 -5.59671e-18)
(3.00001 -1.71511e-07 -1.27223e-17)
(3.00005 -4.65588e-06 4.27538e-17)
(3.00002 -4.27485e-06 3.05629e-17)
(3.00002 -1.75158e-06 4.69105e-17)
(3.00001 -7.21959e-07 -6.29605e-18)
(3.00001 -2.08057e-07 -2.51519e-17)
(3.00005 -5.66326e-06 1.29682e-18)
(3.00003 -5.21998e-06 3.05261e-17)
(3.00002 -2.14729e-06 2.70771e-17)
(3.00002 -8.66882e-07 -7.43419e-18)
(3.00002 -2.48556e-07 -3.75057e-17)
(3.00006 -6.78122e-06 1.48177e-18)
(3.00003 -6.27142e-06 3.02848e-17)
(3.00002 -2.5889e-06 8.01569e-18)
(3.00002 -1.02591e-06 5.68057e-18)
(3.00002 -2.93204e-07 -3.75055e-17)
(3.00007 -8.01288e-06 8.33679e-17)
(3.00003 -7.43189e-06 3.00371e-17)
(3.00002 -3.07759e-06 7.64073e-18)
(3.00002 -1.19933e-06 -1.00884e-17)
(3.00002 -3.42201e-07 -3.75054e-17)
(3.00007 -9.36138e-06 8.31897e-17)
(3.00003 -8.70404e-06 5.76078e-17)
(3.00002 -3.61443e-06 -1.14159e-17)
(3.00002 -1.38736e-06 -2.4709e-17)
(3.00002 -3.95745e-07 -2.53853e-17)
(3.00008 -1.08297e-05 1.63423e-16)
(3.00004 -1.00903e-05 2.89782e-17)
(3.00003 -4.20042e-06 -1.17027e-17)
(3.00002 -1.59022e-06 -2.47355e-17)
(3.00002 -4.54037e-07 -2.53852e-17)
(3.00008 -1.2421e-05 1.62461e-16)
(3.00004 -1.15931e-05 2.84996e-17)
(3.00003 -4.83638e-06 -1.2293e-17)
(3.00002 -1.80806e-06 -3.85825e-17)
(3.00002 -5.17275e-07 -2.53851e-17)
(3.00009 -1.41381e-05 1.61464e-16)
(3.00004 -1.32146e-05 2.77978e-17)
(3.00003 -5.52306e-06 -3.08502e-17)
(3.00003 -2.04099e-06 -3.80422e-17)
(3.00003 -5.85654e-07 -2.5385e-17)
(3.00009 -1.59837e-05 1.60434e-16)
(3.00005 -1.49567e-05 2.70889e-17)
(3.00003 -6.26103e-06 -3.10022e-17)
(3.00003 -2.2891e-06 -3.7514e-17)
(3.00003 -6.59363e-07 -2.53849e-17)
(3.0001 -1.79606e-05 1.59381e-16)
(3.00005 -1.68212e-05 2.65907e-17)
(3.00003 -7.05076e-06 -1.34305e-17)
(3.00003 -2.55238e-06 -3.69983e-17)
(3.00003 -7.38587e-07 -2.53848e-17)
(3.0001 -2.00713e-05 1.58519e-16)
(3.00005 -1.88096e-05 5.27047e-17)
(3.00004 -7.89253e-06 -3.18569e-17)
(3.00003 -2.8308e-06 -4.93809e-17)
(3.00003 -8.23504e-07 -1.37614e-17)
(3.00011 -2.23181e-05 2.34653e-16)
(3.00006 -2.09232e-05 2.51969e-17)
(3.00004 -8.78647e-06 -1.51285e-17)
(3.00004 -3.12427e-06 -6.10872e-17)
(3.00003 -9.14284e-07 -1.37613e-17)
(3.00011 -2.47031e-05 3.09816e-16)
(3.00006 -2.31629e-05 5.13106e-17)
(3.00004 -9.73254e-06 7.61404e-19)
(3.00004 -3.43263e-06 -7.21253e-17)
(3.00004 -1.01109e-06 -1.37613e-17)
(3.00012 -2.72283e-05 3.07792e-16)
(3.00006 -2.55294e-05 5.06157e-17)
(3.00004 -1.07305e-05 -1.0019e-18)
(3.00004 -3.75568e-06 -6.94517e-17)
(3.00004 -1.11408e-06 -1.37612e-17)
(3.00012 -2.98953e-05 3.81139e-16)
(3.00007 -2.80231e-05 4.96632e-17)
(3.00005 -1.17799e-05 -1.9723e-17)
(3.00004 -4.09314e-06 -6.79048e-17)
(3.00004 -1.22338e-06 -3.63037e-17)
(3.00013 -3.27056e-05 3.03706e-16)
(3.00007 -3.06438e-05 4.86985e-17)
(3.00005 -1.28802e-05 -2.02436e-17)
(3.00004 -4.44472e-06 -3.96945e-17)
(3.00004 -1.33915e-06 -1.39421e-17)
(3.00013 -3.56601e-05 3.75546e-16)
(3.00007 -3.33912e-05 2.21568e-17)
(3.00005 -1.40305e-05 -2.01089e-17)
(3.00005 -4.80997e-06 -1.51822e-17)
(3.00005 -1.46148e-06 -5.82984e-17)
(3.00014 -3.87598e-05 3.72359e-16)
(3.00008 -3.62645e-05 -3.80188e-18)
(3.00006 -1.52299e-05 -2.00612e-17)
(3.00005 -5.1885e-06 -1.83649e-17)
(3.00005 -1.5905e-06 -7.97343e-17)
(3.00014 -4.2005e-05 3.69123e-16)
(3.00008 -3.92624e-05 -4.03931e-18)
(3.00006 -1.64769e-05 -2.00985e-17)
(3.00005 -5.57977e-06 -2.14698e-17)
(3.00005 -1.72629e-06 -7.97866e-17)
(3.00015 -4.53957e-05 3.6584e-16)
(3.00008 -4.23833e-05 -4.28989e-18)
(3.00006 -1.77702e-05 -2.09418e-17)
(3.00006 -5.98321e-06 -5.02829e-17)
(3.00005 -1.86893e-06 -1.01649e-16)
(3.00015 -4.89318e-05 3.62516e-16)
(3.00009 -4.56249e-05 -4.06551e-18)
(3.00006 -1.9108e-05 1.04165e-17)
(3.00006 -6.39822e-06 -5.18484e-17)
(3.00006 -2.01849e-06 -8.0346e-17)
(3.00016 -5.26122e-05 2.88232e-16)
(3.00009 -4.89848e-05 -3.86825e-18)
(3.00007 -2.04884e-05 8.57289e-18)
(3.00006 -6.82406e-06 -5.335e-17)
(3.00006 -2.17501e-06 -8.03576e-17)
(3.00016 -5.6436e-05 2.85497e-16)
(3.00009 -5.24598e-05 -4.19559e-18)
(3.00007 -2.19092e-05 -2.48714e-17)
(3.00007 -7.26003e-06 -5.36613e-17)
(3.00006 -2.33851e-06 -5.92904e-17)
(3.00017 -6.04015e-05 3.50185e-16)
(3.0001 -5.60462e-05 -4.04767e-18)
(3.00008 -2.33679e-05 4.88923e-18)
(3.00007 -7.70529e-06 -7.65412e-17)
(3.00007 -2.50901e-06 -3.84234e-17)
(3.00017 -6.45064e-05 3.47174e-16)
(3.0001 -5.97398e-05 -5.0937e-17)
(3.00008 -2.48619e-05 3.34167e-17)
(3.00007 -8.159e-06 -7.557e-17)
(3.00007 -2.6865e-06 -5.90639e-17)
(3.00018 -6.87484e-05 3.4358e-16)
(3.00011 -6.3536e-05 -9.66071e-17)
(3.00008 -2.63883e-05 3.07669e-17)
(3.00008 -8.62028e-06 -5.14269e-17)
(3.00007 -2.87094e-06 -5.90826e-17)
(3.00018 -7.31241e-05 2.71811e-16)
(3.00011 -6.74297e-05 -9.4498e-17)
(3.00009 -2.7944e-05 2.8168e-17)
(3.00008 -9.0881e-06 -5.0717e-17)
(3.00008 -3.0623e-06 -3.88734e-17)
(3.00019 -7.76302e-05 2.68006e-16)
(3.00012 -7.14149e-05 -9.24448e-17)
(3.00009 -2.95256e-05 2.48851e-17)
(3.00008 -9.56154e-06 -7.27486e-17)
(3.00008 -3.26049e-06 -3.89102e-17)
(3.00019 -8.22624e-05 2.64124e-16)
(3.00012 -7.54855e-05 -9.04601e-17)
(3.00009 -3.11295e-05 2.09732e-17)
(3.00009 -1.00395e-05 -9.31931e-17)
(3.00009 -3.46542e-06 -3.89424e-17)
(3.0002 -8.7016e-05 2.59769e-16)
(3.00012 -7.96346e-05 -1.34158e-16)
(3.0001 -3.2752e-05 -1.21419e-17)
(3.00009 -1.05209e-05 -8.99037e-17)
(3.00009 -3.67697e-06 -3.89668e-17)
(3.0002 -9.18862e-05 2.54501e-16)
(3.00013 -8.38549e-05 -2.21178e-16)
(3.0001 -3.4389e-05 -1.39561e-17)
(3.0001 -1.10047e-05 -6.48238e-17)
(3.00009 -3.89502e-06 -3.89835e-17)
(3.0002 -9.68669e-05 1.26486e-16)
(3.00013 -8.81387e-05 -1.7378e-16)
(3.00011 -3.60365e-05 -4.28869e-17)
(3.0001 -1.14897e-05 -1.98539e-17)
(3.0001 -4.1194e-06 -3.89956e-17)
(3.00021 -0.000101952 2.47071e-16)
(3.00014 -9.24774e-05 -1.70785e-16)
(3.00011 -3.769e-05 -1.45423e-17)
(3.0001 -1.19747e-05 -4.37125e-17)
(3.0001 -4.34993e-06 -5.80051e-17)
(3.00021 -0.000107136 2.41822e-16)
(3.00014 -9.68626e-05 -1.67279e-16)
(3.00012 -3.93452e-05 1.24144e-17)
(3.00011 -1.24587e-05 -4.46497e-17)
(3.00011 -4.58641e-06 -5.80181e-17)
(3.00022 -0.00011241 2.37513e-16)
(3.00015 -0.000101285 -1.21732e-16)
(3.00012 -4.09975e-05 -1.58943e-17)
(3.00011 -1.29403e-05 -3.77577e-18)
(3.00011 -4.82862e-06 -5.80356e-17)
(3.00022 -0.000117768 3.55328e-16)
(3.00015 -0.000105735 -1.20711e-16)
(3.00013 -4.26421e-05 -7.03293e-17)
(3.00012 -1.34185e-05 -7.43832e-18)
(3.00012 -5.07631e-06 -5.80584e-17)
(3.00023 -0.0001232 4.69643e-16)
(3.00016 -0.000110202 -1.61771e-16)
(3.00013 -4.42744e-05 -9.51207e-17)
(3.00012 -1.3892e-05 -1.09191e-17)
(3.00012 -5.32922e-06 -5.80861e-17)
(3.00023 -0.0001287 5.79793e-16)
(3.00016 -0.000114678 -1.60303e-16)
(3.00014 -4.58896e-05 -9.05689e-17)
(3.00013 -1.43599e-05 2.34549e-17)
(3.00013 -5.58709e-06 -9.39641e-17)
(3.00024 -0.000134258 6.8513e-16)
(3.00017 -0.000119149 -1.9928e-16)
(3.00014 -4.74826e-05 -8.55749e-17)
(3.00013 -1.48209e-05 3.7448e-17)
(3.00013 -5.84959e-06 -5.85828e-17)
(3.00024 -0.000139865 6.7487e-16)
(3.00017 -0.000123608 -2.36775e-16)
(3.00015 -4.9049e-05 -8.09726e-17)
(3.00014 -1.52739e-05 3.05306e-17)
(3.00014 -6.11645e-06 -5.86057e-17)
(3.00024 -0.000145511 6.64732e-16)
(3.00018 -0.000128041 -2.33273e-16)
(3.00015 -5.05838e-05 -7.66392e-17)
(3.00014 -1.57178e-05 2.65331e-17)
(3.00014 -6.38727e-06 -2.40832e-17)
(3.00025 -0.000151187 6.53614e-16)
(3.00018 -0.00013244 -2.2913e-16)
(3.00016 -5.20824e-05 -4.72494e-17)
(3.00015 -1.61518e-05 2.27906e-17)
(3.00015 -6.66179e-06 -2.40699e-17)
(3.00025 -0.000156884 5.29055e-16)
(3.00019 -0.000136792 -3.01896e-16)
(3.00016 -5.35403e-05 -4.45768e-17)
(3.00016 -1.65748e-05 1.67691e-17)
(3.00015 -6.93965e-06 -5.76769e-17)
(3.00026 -0.000162592 4.07441e-16)
(3.0002 -0.000141087 -2.95961e-16)
(3.00017 -5.49525e-05 -4.22086e-17)
(3.00016 -1.69859e-05 1.1132e-17)
(3.00016 -7.22039e-06 -5.76236e-17)
(3.00026 -0.000168301 3.97842e-16)
(3.0002 -0.000145315 -2.91162e-16)
(3.00018 -5.63158e-05 -8.86642e-17)
(3.00017 -1.73846e-05 5.85181e-18)
(3.00017 -7.50383e-06 -5.75678e-17)
(3.00027 -0.000173999 6.03142e-16)
(3.00021 -0.000149462 -2.863e-16)
(3.00018 -5.76248e-05 -8.31659e-17)
(3.00017 -1.77697e-05 3.67398e-17)
(3.00017 -7.78942e-06 -5.75233e-17)
(3.00027 -0.00017968 5.9075e-16)
(3.00021 -0.000153523 -2.81379e-16)
(3.00019 -5.88772e-05 -7.82743e-17)
(3.00018 -1.8141e-05 2.66989e-17)
(3.00018 -8.07689e-06 -8.93498e-17)
(3.00028 -0.000185331 5.7743e-16)
(3.00022 -0.000157484 -3.46919e-16)
(3.0002 -6.00683e-05 -2.57188e-17)
(3.00019 -1.84977e-05 5.71463e-17)
(3.00019 -8.36591e-06 -2.6535e-17)
(3.00028 -0.000190943 6.65995e-16)
(3.00023 -0.000161336 -4.09605e-16)
(3.0002 -6.11952e-05 -2.23493e-17)
(3.00019 -1.88394e-05 4.77248e-17)
(3.00019 -8.65596e-06 -5.74852e-17)
(3.00028 -0.000196509 6.50312e-16)
(3.00023 -0.000165074 -3.99925e-16)
(3.00021 -6.22563e-05 -2.1064e-17)
(3.0002 -1.91662e-05 5.28059e-18)
(3.0002 -8.94692e-06 -5.74853e-17)
(3.00029 -0.000202014 6.33692e-16)
(3.00024 -0.00016868 -4.57665e-16)
(3.00022 -6.32461e-05 2.42591e-17)
(3.00021 -1.94767e-05 -4.85509e-20)
(3.00021 -9.23819e-06 -5.74828e-17)
(3.00029 -0.000207458 6.17188e-16)
(3.00024 -0.000172158 -4.452e-16)
(3.00022 -6.41669e-05 2.44139e-17)
(3.00021 -1.97725e-05 2.75708e-17)
(3.00021 -9.52966e-06 -5.74779e-17)
(3.0003 -0.000212822 6.00811e-16)
(3.00025 -0.00017549 -4.32823e-16)
(3.00023 -6.50121e-05 2.43279e-17)
(3.00022 -2.00519e-05 2.26775e-17)
(3.00022 -9.82082e-06 -2.83317e-17)
(3.0003 -0.000218106 5.84568e-16)
(3.00026 -0.000178675 -4.21641e-16)
(3.00024 -6.57838e-05 -1.67751e-17)
(3.00023 -2.03158e-05 4.71139e-17)
(3.00023 -1.01114e-05 -5.70189e-17)
(3.00031 -0.000223302 7.55815e-16)
(3.00026 -0.000181709 -4.10522e-16)
(3.00024 -6.64817e-05 -1.4155e-17)
(3.00024 -2.05651e-05 3.52509e-17)
(3.00023 -1.04014e-05 -8.52562e-17)
(3.00031 -0.000228391 7.35846e-16)
(3.00027 -0.000184573 -4.62708e-16)
(3.00025 -6.70987e-05 -1.06345e-17)
(3.00024 -2.07974e-05 5.47236e-17)
(3.00024 -1.06899e-05 -8.52574e-17)
(3.00032 -0.00023339 7.16125e-16)
(3.00028 -0.000187288 -4.50104e-16)
(3.00026 -6.76467e-05 -9.4495e-18)
(3.00025 -2.10173e-05 1.19564e-17)
(3.00025 -1.09774e-05 -8.52555e-17)
(3.00032 -0.000238264 6.96669e-16)
(3.00029 -0.000189821 -4.37726e-16)
(3.00027 -6.81127e-05 -8.78168e-18)
(3.00026 -2.12208e-05 2.8821e-18)
(3.00026 -1.1263e-05 -8.5247e-17)
(3.00033 -0.000243027 8.53675e-16)
(3.00029 -0.000192186 -3.65505e-16)
(3.00027 -6.85046e-05 -8.58015e-18)
(3.00027 -2.14105e-05 -5.45959e-18)
(3.00026 -1.15467e-05 -8.52304e-17)
(3.00033 -0.000247678 8.32727e-16)
(3.0003 -0.000194389 -3.54192e-16)
(3.00028 -6.88298e-05 2.92723e-17)
(3.00027 -2.15899e-05 -1.3112e-17)
(3.00027 -1.1829e-05 -8.52072e-17)
(3.00034 -0.000252177 8.13063e-16)
(3.00031 -0.000196389 -2.84048e-16)
(3.00029 -6.90671e-05 6.39796e-17)
(3.00028 -2.17509e-05 -2.01177e-17)
(3.00028 -1.21078e-05 -8.51822e-17)
(3.00034 -0.00025657 6.28485e-16)
(3.00031 -0.000198241 -2.18071e-16)
(3.00029 -6.92502e-05 2.23267e-17)
(3.00029 -2.19062e-05 -2.65209e-17)
(3.00029 -1.23856e-05 -8.5162e-17)
(3.00035 -0.000260821 6.13236e-16)
(3.00032 -0.000199904 -2.10894e-16)
(3.0003 -6.9354e-05 2.20627e-17)
(3.00029 -2.20461e-05 1.61442e-17)
(3.00029 -1.26598e-05 -1.34438e-16)
(3.00035 -0.000264901 5.98181e-16)
(3.00032 -0.000201364 -2.03874e-16)
(3.00031 -6.93859e-05 2.08917e-17)
(3.0003 -2.21745e-05 9.31567e-19)
(3.0003 -1.2931e-05 -1.34439e-16)
(3.00036 -0.000268895 5.83334e-16)
(3.00033 -0.0002027 -1.97116e-16)
(3.00031 -6.93707e-05 1.594e-17)
(3.00031 -2.22979e-05 -6.42805e-17)
(3.0003 -1.32003e-05 -1.34441e-16)
(3.00036 -0.000272679 5.68697e-16)
(3.00033 -0.000203801 -1.90608e-16)
(3.00032 -6.92727e-05 1.07555e-17)
(3.00031 -2.24064e-05 -7.15443e-17)
(3.00031 -1.34653e-05 -1.34431e-16)
(3.00036 -0.000276322 7.04597e-16)
(3.00034 -0.000204735 -2.36177e-16)
(3.00032 -6.9117e-05 5.43152e-18)
(3.00031 -2.25061e-05 -7.81257e-17)
(3.00031 -1.37266e-05 -1.34399e-16)
(3.00036 -0.000279863 6.86466e-16)
(3.00034 -0.000205546 -2.2846e-16)
(3.00032 -6.89233e-05 2.63698e-18)
(3.00032 -2.2604e-05 -4.05319e-17)
(3.00032 -1.39855e-05 -1.79246e-16)
(3.00036 -0.000283109 8.14114e-16)
(3.00034 -0.000206071 -2.18938e-16)
(3.00032 -6.86437e-05 6.31104e-17)
(3.00032 -2.26863e-05 -5.54257e-17)
(3.00032 -1.42386e-05 -1.79204e-16)
(3.00036 -0.000286226 7.93667e-16)
(3.00034 -0.000206444 -2.07832e-16)
(3.00032 -6.8304e-05 1.17653e-16)
(3.00032 -2.27545e-05 -6.88887e-17)
(3.00032 -1.44849e-05 -1.79186e-16)
(3.00035 -0.000289159 7.7354e-16)
(3.00034 -0.000206653 -1.97396e-16)
(3.00032 -6.79313e-05 1.0519e-16)
(3.00032 -2.28252e-05 -8.10416e-17)
(3.00031 -1.47284e-05 -1.79193e-16)
(3.00035 -0.000291886 7.53775e-16)
(3.00033 -0.000206673 -1.85569e-16)
(3.00032 -6.75051e-05 1.52878e-16)
(3.00031 -2.28855e-05 -9.1988e-17)
(3.00031 -1.49647e-05 -1.79212e-16)
(3.00034 -0.000294376 7.34375e-16)
(3.00033 -0.000206492 -1.74552e-16)
(3.00031 -6.70269e-05 1.36632e-16)
(3.00031 -2.29365e-05 -1.0182e-16)
(3.00031 -1.51931e-05 -1.79224e-16)
(3.00033 -0.000296621 4.50838e-16)
(3.00032 -0.000206117 -2.5413e-16)
(3.00031 -6.64986e-05 1.20999e-16)
(3.0003 -2.29763e-05 -1.06091e-16)
(3.0003 -1.54117e-05 -1.39426e-16)
(3.00032 -0.00029859 4.35996e-16)
(3.00031 -0.000205543 -2.3959e-16)
(3.0003 -6.59269e-05 1.58806e-16)
(3.00029 -2.30069e-05 -1.55854e-16)
(3.00029 -1.56189e-05 -1.77794e-16)
(3.00031 -0.000300248 4.23458e-16)
(3.0003 -0.000204756 -1.38939e-16)
(3.00029 -6.5305e-05 1.90524e-16)
(3.00028 -2.30222e-05 -1.94516e-16)
(3.00028 -1.5811e-05 -1.39985e-16)
(3.0003 -0.000301542 4.13095e-16)
(3.00029 -0.000203741 -4.33968e-17)
(3.00027 -6.46322e-05 1.65541e-16)
(3.00027 -2.30194e-05 -1.87971e-16)
(3.00027 -1.59843e-05 -1.40012e-16)
(3.00028 -0.000302436 4.02941e-16)
(3.00027 -0.000202504 -3.41487e-17)
(3.00026 -6.39185e-05 1.95749e-16)
(3.00026 -2.30001e-05 -1.73317e-16)
(3.00026 -1.61355e-05 -6.68262e-17)
(3.00026 -0.000302874 3.92835e-16)
(3.00026 -0.000201027 -2.79365e-17)
(3.00025 -6.31493e-05 1.22916e-16)
(3.00024 -2.29501e-05 -1.22251e-16)
(3.00024 -1.62562e-05 -6.64603e-17)
(3.00025 -0.000302789 3.82597e-16)
(3.00024 -0.000199309 -2.43062e-17)
(3.00023 -6.23389e-05 5.67283e-17)
(3.00023 -2.28737e-05 -1.14789e-16)
(3.00023 -1.6343e-05 -6.58139e-17)
(3.00023 -0.000302076 3.70383e-16)
(3.00023 -0.000197289 -9.60101e-17)
(3.00022 -6.14566e-05 9.27339e-17)
(3.00021 -2.27532e-05 -1.43807e-16)
(3.00021 -1.6386e-05 -6.48105e-17)
(3.00021 -0.000300706 3.57921e-16)
(3.00021 -0.000195005 -8.64631e-17)
(3.0002 -6.05226e-05 1.26043e-16)
(3.0002 -2.25875e-05 -1.32562e-16)
(3.0002 -1.63794e-05 -6.33775e-17)
(3.00019 -0.000298683 3.45077e-16)
(3.00019 -0.000192518 -7.72351e-17)
(3.00019 -5.95771e-05 1.14902e-16)
(3.00018 -2.23922e-05 -5.33132e-17)
(3.00018 -1.63219e-05 -6.14493e-17)
(3.00017 -0.000295911 3.30076e-16)
(3.00018 -0.000189752 -1.39159e-16)
(3.00017 -5.85551e-05 9.96042e-17)
(3.00016 -2.21267e-05 -1.26912e-16)
(3.00016 -1.61983e-05 -1.22656e-16)
(3.00015 -0.000292256 3.14639e-16)
(3.00016 -0.000186637 -1.28382e-16)
(3.00015 -5.74607e-05 8.60157e-17)
(3.00015 -2.18013e-05 -1.23323e-16)
(3.00015 -1.601e-05 -1.19603e-16)
(3.00014 -0.000287795 2.98791e-16)
(3.00014 -0.000183239 -1.17431e-16)
(3.00014 -5.6302e-05 6.87655e-17)
(3.00013 -2.14121e-05 -1.90736e-16)
(3.00013 -1.57551e-05 -1.76703e-16)
(3.00012 -0.000282628 2.84124e-16)
(3.00013 -0.000179638 -4.35387e-17)
(3.00012 -5.51075e-05 -3.14438e-17)
(3.00012 -2.09693e-05 -1.84814e-16)
(3.00012 -1.54381e-05 -1.72606e-16)
(3.0001 -0.00027684 7.8869e-17)
(3.00011 -0.000175922 -4.21208e-17)
(3.00011 -5.39389e-05 -1.21937e-16)
(3.0001 -2.04989e-05 -1.86384e-16)
(3.0001 -1.50686e-05 -2.2596e-16)
(3.00009 -0.000270525 2.52224e-16)
(3.00011 -0.000172099 -4.03864e-17)
(3.0001 -5.27654e-05 -1.27232e-16)
(3.00009 -1.99842e-05 -2.45863e-16)
(3.00009 -1.46462e-05 -2.21295e-16)
(3.0001 -0.000263848 4.17509e-16)
(3.00011 -0.000168235 -3.83816e-17)
(3.0001 -5.15876e-05 -1.31629e-16)
(3.0001 -1.94386e-05 -2.37863e-16)
(3.00009 -1.4184e-05 -2.16602e-16)
(3.00005 -0.000257075 2.24396e-16)
(3.00007 -0.00016445 -3.27643e-17)
(3.00006 -5.03978e-05 -5.50154e-17)
(3.00006 -1.88804e-05 -1.81822e-16)
(3.00005 -1.37091e-05 -2.6519e-16)
)
;

boundaryField
{
    axis
    {
        type            empty;
    }
    inlet
    {
        type            fixedValue;
        value           uniform (3 0 0);
    }
    wall
    {
        type            zeroGradient;
    }
    outlet
    {
        type            zeroGradient;
    }
    front
    {
        type            wedge;
    }
    back
    {
        type            wedge;
    }
}


// ************************************************************************* //
