/*--------------------------------*- C++ -*----------------------------------*\
| =========                 |                                                 |
| \\      /  F ield         | OpenFOAM: The Open Source CFD Toolbox           |
|  \\    /   O peration     | Version:  4.1                                   |
|   \\  /    A nd           | Web:      www.OpenFOAM.org                      |
|    \\/     M anipulation  |                                                 |
\*---------------------------------------------------------------------------*/
FoamFile
{
    version     2.0;
    format      ascii;
    class       volScalarField;
    location    "1.26";
    object      Ma;
}
// * * * * * * * * * * * * * * * * * * * * * * * * * * * * * * * * * * * * * //

dimensions      [0 0 0 0 0 0 0];

internalField   nonuniform List<scalar> 
52500
(
3.00002
3
2.99996
2.99984
2.99966
2.99891
2.99785
2.99353
2.98705
2.96321
2.91704
2.78942
2.46726
1.81433
0.809797
0.317135
0.307373
0.30863
0.289454
0.245994
0.190109
0.145326
0.112686
0.0739868
0.0329586
3.00002
3
2.99997
2.99984
2.99966
2.99893
2.99789
2.99366
2.98725
2.964
2.9179
2.7929
2.47215
1.82887
0.820549
0.325494
0.309107
0.310885
0.293076
0.251159
0.196983
0.153362
0.121524
0.086188
0.0569209
3.00002
3
2.99997
2.99985
2.99968
2.99897
2.99797
2.9939
2.98766
2.96539
2.91991
2.79997
2.48342
1.86009
0.845093
0.345333
0.314512
0.317805
0.302986
0.263797
0.212919
0.172172
0.143379
0.114573
0.0947225
3.00002
3
2.99997
2.99986
2.9997
2.99903
2.99808
2.99425
2.98828
2.9672
2.92337
2.80901
2.50222
1.9043
0.883969
0.375968
0.32225
0.328715
0.318615
0.28296
0.236373
0.199187
0.173956
0.150718
0.135851
3.00002
3
2.99998
2.99987
2.99972
2.9991
2.99822
2.9947
2.98907
2.96964
2.92778
2.82049
2.52655
1.96115
0.938955
0.418513
0.332167
0.343293
0.339286
0.307691
0.265891
0.232201
0.210453
0.191751
0.180272
3.00002
3
2.99998
2.99988
2.99975
2.9992
2.99839
2.99529
2.99002
2.97263
2.93332
2.83439
2.55804
2.03244
1.01856
0.47449
0.345481
0.362237
0.365391
0.338229
0.301481
0.27148
0.253408
0.238924
0.23118
3.00002
3
2.99998
2.9999
2.99977
2.99927
2.99854
2.99571
2.99097
2.97533
2.94
2.85086
2.59904
2.1205
1.13053
0.544798
0.363516
0.386567
0.397881
0.375098
0.343236
0.317136
0.303551
0.294436
0.292343
3.00002
3.00001
2.99999
2.99991
2.9998
2.99934
2.99869
2.99608
2.99197
2.97774
2.94775
2.86805
2.64858
2.21567
1.28224
0.626965
0.391231
0.42081
0.439324
0.419586
0.392352
0.370104
0.362257
0.36028
0.369562
3.00002
3.00001
2.99999
2.99992
2.99983
2.99942
2.99885
2.99651
2.99303
2.98003
2.95594
2.88571
2.7044
2.32271
1.47138
0.729264
0.435815
0.466961
0.486953
0.469407
0.44623
0.430389
0.429709
0.441878
0.475426
3.00002
3.00001
3
2.99994
2.99986
2.99952
2.99903
2.99709
2.99412
2.98338
2.96333
2.90355
2.75531
2.42918
1.71084
0.823204
0.470682
0.508372
0.528591
0.516939
0.501047
0.494622
0.507883
0.548531
0.649029
3
2.99998
2.99995
2.99982
2.99964
2.99889
2.99783
2.9935
2.98702
2.96316
2.91701
2.78933
2.46718
1.81407
0.809586
0.316872
0.307233
0.30848
0.289268
0.245758
0.189782
0.144871
0.112079
0.0730238
0.0307371
3
2.99998
2.99995
2.99982
2.99964
2.99891
2.99787
2.99363
2.98723
2.96395
2.91787
2.79281
2.47208
1.82861
0.820334
0.325236
0.308972
0.310738
0.292891
0.250928
0.196671
0.152937
0.12097
0.0853735
0.0556798
3
2.99998
2.99995
2.99983
2.99966
2.99895
2.99795
2.99387
2.98763
2.96535
2.91987
2.79988
2.48334
1.85984
0.844872
0.345083
0.314384
0.31766
0.302805
0.26358
0.212635
0.1718
0.142917
0.113969
0.0939894
3
2.99998
2.99995
2.99984
2.99968
2.99901
2.99806
2.99423
2.98825
2.96716
2.92333
2.80893
2.50212
1.90406
0.883735
0.37572
0.32213
0.328573
0.31844
0.282756
0.236119
0.198871
0.173581
0.150265
0.135345
3
2.99998
2.99996
2.99985
2.9997
2.99908
2.9982
2.99468
2.98904
2.9696
2.92774
2.8204
2.52645
1.96091
0.938684
0.418261
0.332051
0.343152
0.339116
0.3075
0.265665
0.231933
0.210147
0.191398
0.179892
3
2.99999
2.99996
2.99987
2.99973
2.99917
2.99837
2.99526
2.99
2.97259
2.93328
2.83429
2.55792
2.03214
1.01823
0.474223
0.345365
0.362097
0.365225
0.338048
0.30128
0.271252
0.253155
0.238642
0.230883
3
2.99999
2.99997
2.99988
2.99976
2.99925
2.99852
2.99569
2.99095
2.97529
2.93995
2.85077
2.59888
2.12021
1.13009
0.544527
0.363404
0.386423
0.397712
0.374921
0.343052
0.31694
0.30334
0.294208
0.292107
3
2.99999
2.99997
2.99989
2.99978
2.99932
2.99867
2.99606
2.99195
2.9777
2.94771
2.86796
2.64843
2.21533
1.28174
0.626695
0.391092
0.420643
0.439145
0.419414
0.392186
0.369936
0.362081
0.360093
0.369374
3
2.99999
2.99997
2.9999
2.99981
2.9994
2.99883
2.99649
2.99301
2.98
2.9559
2.88563
2.70422
2.32238
1.47077
0.728972
0.435661
0.466802
0.486799
0.469263
0.446092
0.430248
0.429563
0.441726
0.475281
3
2.99999
2.99998
2.99992
2.99984
2.9995
2.99901
2.99707
2.9941
2.98334
2.9633
2.90348
2.75523
2.42893
1.71057
0.823011
0.470612
0.508272
0.5285
0.516844
0.500945
0.494514
0.507766
0.548413
0.648926
3
2.99998
2.99995
2.99982
2.99964
2.99889
2.99783
2.9935
2.98702
2.96316
2.91701
2.78933
2.46718
1.81406
0.809579
0.31687
0.307236
0.308483
0.28927
0.245759
0.189783
0.144871
0.112079
0.0730247
0.030737
3
2.99998
2.99995
2.99982
2.99964
2.99891
2.99787
2.99363
2.98723
2.96395
2.91786
2.79281
2.47207
1.8286
0.820327
0.325233
0.308975
0.31074
0.292893
0.25093
0.196673
0.152937
0.12097
0.0853743
0.0556798
3
2.99998
2.99995
2.99983
2.99966
2.99895
2.99795
2.99387
2.98763
2.96535
2.91987
2.79987
2.48333
1.85983
0.844864
0.34508
0.314388
0.317662
0.302806
0.263581
0.212636
0.1718
0.142917
0.11397
0.0939893
3
2.99998
2.99995
2.99984
2.99968
2.99901
2.99806
2.99423
2.98825
2.96716
2.92333
2.80893
2.50212
1.90406
0.883727
0.375717
0.322133
0.328575
0.318441
0.282757
0.23612
0.198872
0.173581
0.150265
0.135345
3
2.99998
2.99996
2.99985
2.9997
2.99908
2.9982
2.99468
2.98904
2.9696
2.92774
2.8204
2.52645
1.9609
0.938674
0.418257
0.332054
0.343153
0.339117
0.307501
0.265666
0.231934
0.210147
0.191398
0.179892
3
2.99999
2.99996
2.99987
2.99973
2.99917
2.99837
2.99526
2.99
2.97259
2.93328
2.83429
2.55791
2.03213
1.01822
0.474217
0.345368
0.362098
0.365225
0.338048
0.30128
0.271252
0.253155
0.238642
0.230883
3
2.99999
2.99997
2.99988
2.99976
2.99925
2.99852
2.99569
2.99095
2.97529
2.93995
2.85077
2.59888
2.12019
1.13008
0.544521
0.363406
0.386424
0.397711
0.374921
0.343052
0.31694
0.303339
0.294207
0.292106
3
2.99999
2.99997
2.99989
2.99978
2.99932
2.99867
2.99606
2.99195
2.9777
2.94771
2.86796
2.64842
2.21532
1.28172
0.626688
0.391093
0.420642
0.439144
0.419413
0.392186
0.369935
0.36208
0.360092
0.369373
3
2.99999
2.99997
2.9999
2.99981
2.9994
2.99883
2.99649
2.99301
2.98
2.95589
2.88562
2.70421
2.32237
1.47075
0.728965
0.435661
0.466802
0.486798
0.469263
0.446092
0.430248
0.429562
0.441726
0.47528
3
2.99999
2.99998
2.99992
2.99984
2.9995
2.99901
2.99707
2.9941
2.98334
2.96329
2.90348
2.75522
2.42893
1.71055
0.823007
0.470614
0.508273
0.528501
0.516845
0.500946
0.494514
0.507765
0.548413
0.648925
3
2.99998
2.99995
2.99982
2.99964
2.99889
2.99783
2.9935
2.98702
2.96316
2.91701
2.78933
2.46718
1.81406
0.809577
0.316869
0.307237
0.308483
0.28927
0.245759
0.189783
0.144872
0.112079
0.073025
0.0307373
3
2.99998
2.99995
2.99982
2.99964
2.99891
2.99787
2.99363
2.98723
2.96395
2.91786
2.79281
2.47207
1.8286
0.820325
0.325232
0.308976
0.310741
0.292893
0.25093
0.196673
0.152938
0.12097
0.0853745
0.05568
3
2.99998
2.99995
2.99983
2.99966
2.99895
2.99795
2.99387
2.98763
2.96535
2.91987
2.79987
2.48333
1.85983
0.844862
0.345079
0.314388
0.317663
0.302806
0.263581
0.212637
0.1718
0.142917
0.11397
0.0939894
3
2.99998
2.99995
2.99984
2.99968
2.99901
2.99806
2.99423
2.98825
2.96716
2.92333
2.80892
2.50212
1.90405
0.883725
0.375716
0.322134
0.328575
0.318441
0.282757
0.23612
0.198872
0.173581
0.150265
0.135345
3
2.99998
2.99996
2.99985
2.9997
2.99908
2.9982
2.99468
2.98904
2.9696
2.92774
2.8204
2.52644
1.9609
0.938672
0.418256
0.332054
0.343154
0.339117
0.307501
0.265666
0.231934
0.210147
0.191399
0.179892
3
2.99999
2.99996
2.99987
2.99973
2.99917
2.99837
2.99526
2.99
2.97259
2.93328
2.83429
2.55791
2.03213
1.01822
0.474216
0.345368
0.362098
0.365225
0.338048
0.30128
0.271252
0.253155
0.238642
0.230883
3
2.99999
2.99997
2.99988
2.99976
2.99925
2.99852
2.99569
2.99095
2.97529
2.93995
2.85077
2.59888
2.12019
1.13007
0.54452
0.363407
0.386424
0.397711
0.374921
0.343052
0.31694
0.303339
0.294207
0.292106
3
2.99999
2.99997
2.99989
2.99978
2.99932
2.99867
2.99606
2.99195
2.9777
2.94771
2.86796
2.64842
2.21532
1.28172
0.626686
0.391093
0.420642
0.439143
0.419413
0.392185
0.369935
0.36208
0.360092
0.369373
3
2.99999
2.99997
2.9999
2.99981
2.9994
2.99883
2.99649
2.99301
2.98
2.95589
2.88562
2.70421
2.32236
1.47074
0.728963
0.435661
0.466801
0.486798
0.469263
0.446092
0.430248
0.429562
0.441726
0.47528
3
2.99999
2.99998
2.99992
2.99984
2.9995
2.99901
2.99707
2.9941
2.98334
2.96329
2.90348
2.75522
2.42892
1.71055
0.823005
0.470615
0.508273
0.528501
0.516845
0.500946
0.494514
0.507765
0.548413
0.648925
3
2.99998
2.99995
2.99982
2.99964
2.99889
2.99783
2.9935
2.98702
2.96316
2.91701
2.78932
2.46718
1.81405
0.809571
0.316866
0.307239
0.308485
0.289271
0.24576
0.189784
0.144872
0.112079
0.0730243
0.0307365
3
2.99998
2.99995
2.99982
2.99964
2.99891
2.99787
2.99363
2.98723
2.96395
2.91786
2.7928
2.47207
1.82859
0.820319
0.32523
0.308978
0.310743
0.292894
0.25093
0.196673
0.152938
0.12097
0.0853739
0.0556793
3
2.99998
2.99995
2.99983
2.99966
2.99895
2.99795
2.99387
2.98763
2.96535
2.91987
2.79987
2.48333
1.85982
0.844856
0.345076
0.314391
0.317664
0.302807
0.263582
0.212637
0.171801
0.142917
0.113969
0.0939886
3
2.99998
2.99995
2.99984
2.99968
2.99901
2.99806
2.99423
2.98825
2.96716
2.92333
2.80892
2.50211
1.90405
0.883718
0.375712
0.322136
0.328577
0.318441
0.282758
0.236121
0.198872
0.173581
0.150264
0.135344
3
2.99998
2.99996
2.99985
2.9997
2.99908
2.9982
2.99468
2.98904
2.9696
2.92774
2.8204
2.52644
1.96089
0.938664
0.418252
0.332057
0.343155
0.339117
0.307501
0.265666
0.231934
0.210147
0.191398
0.179891
3
2.99999
2.99996
2.99987
2.99973
2.99917
2.99837
2.99526
2.99
2.97259
2.93328
2.83428
2.55791
2.03212
1.0182
0.474211
0.34537
0.362099
0.365225
0.338048
0.30128
0.271252
0.253155
0.238641
0.230881
3
2.99999
2.99997
2.99988
2.99976
2.99925
2.99852
2.99569
2.99095
2.97529
2.93995
2.85077
2.59887
2.12018
1.13006
0.544514
0.363408
0.386424
0.39771
0.37492
0.343051
0.316939
0.303339
0.294206
0.292105
3
2.99999
2.99997
2.99989
2.99978
2.99932
2.99867
2.99606
2.99195
2.9777
2.94771
2.86795
2.64842
2.21531
1.2817
0.626681
0.391093
0.420641
0.439142
0.419412
0.392185
0.369935
0.36208
0.360091
0.369372
3
2.99999
2.99997
2.9999
2.99981
2.9994
2.99883
2.99649
2.99301
2.98
2.95589
2.88562
2.7042
2.32235
1.47072
0.728957
0.435661
0.4668
0.486797
0.469262
0.446092
0.430248
0.429561
0.441724
0.475279
3
2.99999
2.99998
2.99992
2.99984
2.9995
2.99901
2.99707
2.9941
2.98334
2.96329
2.90348
2.75522
2.42892
1.71054
0.823002
0.470617
0.508274
0.528502
0.516846
0.500947
0.494514
0.507765
0.548411
0.648924
3
2.99998
2.99995
2.99982
2.99964
2.99889
2.99783
2.9935
2.98702
2.96316
2.91701
2.78933
2.46718
1.81405
0.809575
0.316868
0.307238
0.308484
0.28927
0.24576
0.189783
0.144872
0.112079
0.0730247
0.0307371
3
2.99998
2.99995
2.99982
2.99964
2.99891
2.99787
2.99363
2.98723
2.96395
2.91786
2.79281
2.47207
1.82859
0.820323
0.325231
0.308977
0.310742
0.292894
0.25093
0.196673
0.152938
0.12097
0.0853742
0.0556798
3
2.99998
2.99995
2.99983
2.99966
2.99895
2.99795
2.99387
2.98763
2.96535
2.91987
2.79987
2.48333
1.85982
0.84486
0.345078
0.314389
0.317663
0.302807
0.263581
0.212637
0.171801
0.142917
0.113969
0.0939891
3
2.99998
2.99995
2.99984
2.99968
2.99901
2.99806
2.99423
2.98825
2.96716
2.92333
2.80892
2.50211
1.90405
0.883722
0.375714
0.322135
0.328576
0.318441
0.282757
0.23612
0.198872
0.173581
0.150265
0.135344
3
2.99998
2.99996
2.99985
2.9997
2.99908
2.9982
2.99468
2.98904
2.9696
2.92774
2.8204
2.52644
1.96089
0.938669
0.418254
0.332055
0.343154
0.339117
0.307501
0.265666
0.231934
0.210147
0.191398
0.179891
3
2.99999
2.99996
2.99987
2.99973
2.99917
2.99837
2.99526
2.99
2.97259
2.93328
2.83429
2.55791
2.03212
1.01821
0.474214
0.345369
0.362098
0.365225
0.338048
0.30128
0.271252
0.253155
0.238642
0.230882
3
2.99999
2.99997
2.99988
2.99976
2.99925
2.99852
2.99569
2.99095
2.97529
2.93995
2.85077
2.59887
2.12019
1.13007
0.544517
0.363407
0.386424
0.397711
0.37492
0.343052
0.31694
0.303339
0.294207
0.292106
3
2.99999
2.99997
2.99989
2.99978
2.99932
2.99867
2.99606
2.99195
2.9777
2.94771
2.86796
2.64842
2.21531
1.28171
0.626684
0.391093
0.420641
0.439143
0.419413
0.392185
0.369935
0.36208
0.360092
0.369373
3
2.99999
2.99997
2.9999
2.99981
2.9994
2.99883
2.99649
2.99301
2.98
2.95589
2.88562
2.70421
2.32236
1.47073
0.72896
0.435661
0.466801
0.486798
0.469262
0.446092
0.430248
0.429562
0.441725
0.475279
3
2.99999
2.99998
2.99992
2.99984
2.9995
2.99901
2.99707
2.9941
2.98334
2.96329
2.90348
2.75522
2.42892
1.71055
0.823004
0.470616
0.508273
0.528502
0.516845
0.500947
0.494514
0.507765
0.548412
0.648924
3
2.99998
2.99995
2.99982
2.99964
2.99889
2.99783
2.9935
2.98702
2.96316
2.91701
2.78933
2.46718
1.81406
0.809577
0.316869
0.307236
0.308483
0.28927
0.245759
0.189783
0.144872
0.112079
0.0730249
0.0307373
3
2.99998
2.99995
2.99982
2.99964
2.99891
2.99787
2.99363
2.98723
2.96395
2.91786
2.79281
2.47207
1.8286
0.820325
0.325232
0.308976
0.310741
0.292893
0.25093
0.196673
0.152938
0.12097
0.0853745
0.05568
3
2.99998
2.99995
2.99983
2.99966
2.99895
2.99795
2.99387
2.98763
2.96535
2.91987
2.79987
2.48333
1.85983
0.844863
0.345079
0.314388
0.317663
0.302806
0.263581
0.212637
0.1718
0.142917
0.11397
0.0939894
3
2.99998
2.99995
2.99984
2.99968
2.99901
2.99806
2.99423
2.98825
2.96716
2.92333
2.80892
2.50212
1.90405
0.883725
0.375716
0.322134
0.328575
0.318441
0.282757
0.23612
0.198872
0.173581
0.150265
0.135345
3
2.99998
2.99996
2.99985
2.9997
2.99908
2.9982
2.99468
2.98904
2.9696
2.92774
2.8204
2.52644
1.9609
0.938672
0.418256
0.332054
0.343154
0.339117
0.307501
0.265666
0.231934
0.210147
0.191399
0.179892
3
2.99999
2.99996
2.99987
2.99973
2.99917
2.99837
2.99526
2.99
2.97259
2.93328
2.83429
2.55791
2.03213
1.01822
0.474216
0.345368
0.362098
0.365225
0.338048
0.30128
0.271252
0.253155
0.238642
0.230883
3
2.99999
2.99997
2.99988
2.99976
2.99925
2.99852
2.99569
2.99095
2.97529
2.93995
2.85077
2.59888
2.12019
1.13007
0.54452
0.363407
0.386424
0.397711
0.374921
0.343052
0.31694
0.303339
0.294207
0.292106
3
2.99999
2.99997
2.99989
2.99978
2.99932
2.99867
2.99606
2.99195
2.9777
2.94771
2.86796
2.64842
2.21532
1.28172
0.626686
0.391093
0.420642
0.439143
0.419413
0.392185
0.369935
0.36208
0.360092
0.369373
3
2.99999
2.99997
2.9999
2.99981
2.9994
2.99883
2.99649
2.99301
2.98
2.95589
2.88562
2.70421
2.32236
1.47074
0.728963
0.435661
0.466801
0.486798
0.469263
0.446092
0.430248
0.429562
0.441726
0.47528
3
2.99999
2.99998
2.99992
2.99984
2.9995
2.99901
2.99707
2.9941
2.98334
2.96329
2.90348
2.75522
2.42892
1.71055
0.823005
0.470615
0.508273
0.528501
0.516845
0.500946
0.494514
0.507765
0.548413
0.648925
3
2.99998
2.99995
2.99982
2.99964
2.99889
2.99783
2.9935
2.98702
2.96316
2.91701
2.78933
2.46718
1.81406
0.809579
0.31687
0.307236
0.308483
0.28927
0.245759
0.189783
0.144871
0.112079
0.0730247
0.030737
3
2.99998
2.99995
2.99982
2.99964
2.99891
2.99787
2.99363
2.98723
2.96395
2.91786
2.79281
2.47207
1.8286
0.820327
0.325233
0.308975
0.31074
0.292893
0.25093
0.196673
0.152937
0.12097
0.0853743
0.0556798
3
2.99998
2.99995
2.99983
2.99966
2.99895
2.99795
2.99387
2.98763
2.96535
2.91987
2.79987
2.48333
1.85983
0.844864
0.34508
0.314388
0.317662
0.302806
0.263581
0.212636
0.1718
0.142917
0.11397
0.0939893
3
2.99998
2.99995
2.99984
2.99968
2.99901
2.99806
2.99423
2.98825
2.96716
2.92333
2.80893
2.50212
1.90406
0.883727
0.375717
0.322133
0.328575
0.318441
0.282757
0.23612
0.198872
0.173581
0.150265
0.135345
3
2.99998
2.99996
2.99985
2.9997
2.99908
2.9982
2.99468
2.98904
2.9696
2.92774
2.8204
2.52645
1.9609
0.938674
0.418257
0.332054
0.343153
0.339117
0.307501
0.265666
0.231934
0.210147
0.191398
0.179892
3
2.99999
2.99996
2.99987
2.99973
2.99917
2.99837
2.99526
2.99
2.97259
2.93328
2.83429
2.55791
2.03213
1.01822
0.474217
0.345368
0.362098
0.365225
0.338048
0.30128
0.271252
0.253155
0.238642
0.230883
3
2.99999
2.99997
2.99988
2.99976
2.99925
2.99852
2.99569
2.99095
2.97529
2.93995
2.85077
2.59888
2.12019
1.13008
0.544521
0.363406
0.386424
0.397711
0.374921
0.343052
0.31694
0.303339
0.294207
0.292106
3
2.99999
2.99997
2.99989
2.99978
2.99932
2.99867
2.99606
2.99195
2.9777
2.94771
2.86796
2.64842
2.21532
1.28172
0.626688
0.391093
0.420642
0.439144
0.419413
0.392186
0.369935
0.36208
0.360092
0.369373
3
2.99999
2.99997
2.9999
2.99981
2.9994
2.99883
2.99649
2.99301
2.98
2.95589
2.88562
2.70421
2.32237
1.47075
0.728965
0.435661
0.466802
0.486798
0.469263
0.446092
0.430248
0.429562
0.441726
0.47528
3
2.99999
2.99998
2.99992
2.99984
2.9995
2.99901
2.99707
2.9941
2.98334
2.96329
2.90348
2.75522
2.42893
1.71055
0.823007
0.470614
0.508273
0.528501
0.516845
0.500946
0.494514
0.507765
0.548413
0.648925
3
2.99998
2.99995
2.99982
2.99964
2.99889
2.99783
2.9935
2.98702
2.96316
2.91701
2.78933
2.46718
1.81407
0.809586
0.316872
0.307233
0.30848
0.289268
0.245758
0.189782
0.144871
0.112079
0.0730238
0.0307371
3
2.99998
2.99995
2.99982
2.99964
2.99891
2.99787
2.99363
2.98723
2.96395
2.91787
2.79281
2.47208
1.82861
0.820334
0.325236
0.308972
0.310738
0.292891
0.250928
0.196671
0.152937
0.12097
0.0853735
0.0556798
3
2.99998
2.99995
2.99983
2.99966
2.99895
2.99795
2.99387
2.98763
2.96535
2.91987
2.79988
2.48334
1.85984
0.844872
0.345083
0.314384
0.31766
0.302805
0.26358
0.212635
0.1718
0.142917
0.113969
0.0939894
3
2.99998
2.99995
2.99984
2.99968
2.99901
2.99806
2.99423
2.98825
2.96716
2.92333
2.80893
2.50212
1.90406
0.883735
0.37572
0.32213
0.328573
0.31844
0.282756
0.236119
0.198871
0.173581
0.150265
0.135345
3
2.99998
2.99996
2.99985
2.9997
2.99908
2.9982
2.99468
2.98904
2.9696
2.92774
2.8204
2.52645
1.96091
0.938684
0.418261
0.332051
0.343152
0.339116
0.3075
0.265665
0.231933
0.210147
0.191398
0.179892
3
2.99999
2.99996
2.99987
2.99973
2.99917
2.99837
2.99526
2.99
2.97259
2.93328
2.83429
2.55792
2.03214
1.01823
0.474223
0.345365
0.362097
0.365225
0.338048
0.30128
0.271252
0.253155
0.238642
0.230883
3
2.99999
2.99997
2.99988
2.99976
2.99925
2.99852
2.99569
2.99095
2.97529
2.93995
2.85077
2.59888
2.12021
1.13009
0.544528
0.363404
0.386423
0.397712
0.374921
0.343052
0.31694
0.30334
0.294208
0.292107
3
2.99999
2.99997
2.99989
2.99978
2.99932
2.99867
2.99606
2.99195
2.9777
2.94771
2.86796
2.64843
2.21533
1.28174
0.626695
0.391092
0.420643
0.439145
0.419414
0.392186
0.369936
0.362081
0.360093
0.369374
3
2.99999
2.99997
2.9999
2.99981
2.9994
2.99883
2.99649
2.99301
2.98
2.9559
2.88563
2.70422
2.32238
1.47077
0.728972
0.435661
0.466802
0.486799
0.469263
0.446092
0.430248
0.429563
0.441726
0.475281
3
2.99999
2.99998
2.99992
2.99984
2.9995
2.99901
2.99707
2.9941
2.98334
2.9633
2.90348
2.75523
2.42893
1.71057
0.823011
0.470612
0.508272
0.5285
0.516844
0.500945
0.494514
0.507766
0.548413
0.648926
3.00002
3
2.99996
2.99984
2.99966
2.99891
2.99785
2.99353
2.98705
2.96321
2.91704
2.78942
2.46726
1.81433
0.809798
0.317136
0.307373
0.30863
0.289454
0.245994
0.190109
0.145326
0.112686
0.0739877
0.0329588
3.00002
3
2.99997
2.99984
2.99966
2.99893
2.99789
2.99366
2.98725
2.964
2.9179
2.7929
2.47215
1.82887
0.820549
0.325494
0.309107
0.310885
0.293076
0.251159
0.196983
0.153362
0.121524
0.0861887
0.0569211
3.00002
3
2.99997
2.99985
2.99968
2.99897
2.99797
2.9939
2.98766
2.96539
2.91991
2.79997
2.48342
1.8601
0.845094
0.345333
0.314512
0.317805
0.302986
0.263797
0.212919
0.172172
0.143379
0.114573
0.0947227
3.00002
3
2.99997
2.99986
2.9997
2.99903
2.99808
2.99425
2.98828
2.9672
2.92337
2.80901
2.50222
1.9043
0.88397
0.375968
0.32225
0.328715
0.318615
0.28296
0.236373
0.199187
0.173956
0.150718
0.135851
3.00002
3
2.99998
2.99987
2.99972
2.9991
2.99822
2.9947
2.98907
2.96964
2.92778
2.82049
2.52655
1.96115
0.938956
0.418514
0.332167
0.343293
0.339286
0.307691
0.265891
0.232201
0.210453
0.191751
0.180273
3.00002
3
2.99998
2.99988
2.99975
2.9992
2.99839
2.99529
2.99002
2.97263
2.93332
2.83439
2.55804
2.03244
1.01856
0.474491
0.34548
0.362237
0.365391
0.338229
0.301481
0.27148
0.253408
0.238925
0.23118
3.00002
3
2.99998
2.9999
2.99977
2.99927
2.99854
2.99571
2.99097
2.97533
2.94
2.85086
2.59904
2.1205
1.13053
0.544799
0.363516
0.386567
0.397881
0.375098
0.343236
0.317136
0.303551
0.294436
0.292343
3.00002
3.00001
2.99999
2.99991
2.9998
2.99934
2.99869
2.99608
2.99197
2.97774
2.94775
2.86805
2.64858
2.21568
1.28224
0.626966
0.391231
0.42081
0.439324
0.419586
0.392352
0.370104
0.362257
0.360281
0.369563
3.00002
3.00001
2.99999
2.99992
2.99983
2.99942
2.99885
2.99651
2.99303
2.98003
2.95594
2.88571
2.7044
2.32271
1.47138
0.729264
0.435815
0.466961
0.486953
0.469407
0.44623
0.430389
0.429709
0.441878
0.475427
3.00002
3.00001
3
2.99994
2.99986
2.99952
2.99903
2.99709
2.99412
2.98338
2.96333
2.90355
2.75531
2.42918
1.71085
0.823205
0.470682
0.508372
0.528591
0.516939
0.501047
0.494622
0.507883
0.548531
0.64903
3.00002
3.00002
3
2.99997
2.99985
2.99968
2.999
2.99797
2.99418
2.98743
2.96621
2.91652
2.79701
2.47179
1.84022
0.888957
0.51287
0.536973
0.553919
0.55665
0.552289
0.559658
0.595362
0.678341
0.853596
3.00002
3.00002
3
2.99998
2.99987
2.99973
2.99913
2.99827
2.99483
2.98943
2.97027
2.93068
2.8256
2.54569
1.99656
1.01833
0.590406
0.555125
0.572207
0.588618
0.598742
0.62084
0.673883
0.779013
0.968582
3.00002
3.00002
3
2.99998
2.9999
2.99977
2.99927
2.99854
2.99571
2.99108
2.97556
2.94159
2.85463
2.61292
2.15183
1.19935
0.692075
0.573019
0.591893
0.617108
0.641037
0.675875
0.738676
0.843224
1.00798
3.00002
3.00002
3.00001
2.99999
2.99992
2.99982
2.99939
2.99879
2.99638
2.99267
2.97956
2.95319
2.88091
2.68672
2.29929
1.42171
0.822295
0.614627
0.627497
0.651049
0.680465
0.72104
0.788322
0.884081
1.02317
3.00002
3.00002
3.00001
3
2.99994
2.99986
2.99952
2.99904
2.9971
2.99422
2.98339
2.96455
2.90662
2.76848
2.45858
1.77083
0.97313
0.682424
0.68282
0.69955
0.727096
0.764832
0.826235
0.913509
1.032
3.00003
3.00002
3.00002
3
2.99997
2.99987
2.99972
2.99911
2.9982
2.99483
2.98898
2.97009
2.92789
2.82267
2.54331
1.98657
1.09374
0.745717
0.726468
0.743696
0.771815
0.807961
0.861903
0.937121
1.03908
3.00003
3.00002
3.00002
3.00001
2.99999
2.9999
2.99978
2.99928
2.99858
2.99572
2.99142
2.97575
2.9456
2.86037
2.64062
2.1967
1.31466
0.85743
0.763448
0.778181
0.804626
0.84331
0.894658
0.961408
1.04719
3.00003
3.00003
3.00002
3.00001
3
2.99993
2.99984
2.99947
2.99893
2.99681
2.99356
2.982
2.95952
2.89542
2.73083
2.38812
1.63008
1.01436
0.818533
0.816733
0.837246
0.874309
0.922459
0.983128
1.05817
3.00003
3.00003
3.00002
3.00002
3
2.99997
2.99985
2.99968
2.999
2.99799
2.99412
2.98797
2.96639
2.92603
2.80778
2.54892
1.93372
1.18735
0.891212
0.860889
0.874526
0.906869
0.952931
1.00495
1.06969
3.00003
3.00003
3.00002
3.00002
3.00001
2.99998
2.9999
2.99977
2.99928
2.99856
2.99572
2.99138
2.97588
2.94656
2.86348
2.65611
2.21798
1.40635
0.99902
0.906377
0.913139
0.938016
0.979421
1.0285
1.08347
3.00003
3.00003
3.00003
3.00002
3.00002
2.99999
2.99995
2.9998
2.99959
2.99874
2.99747
2.99264
2.98484
2.95859
2.90478
2.76432
2.42461
1.74455
1.14487
0.962598
0.953562
0.969495
1.00259
1.04878
1.1005
3.00003
3.00003
3.00003
3.00002
3.00002
3
2.99997
2.99987
2.99972
2.9991
2.99822
2.99474
2.98947
2.97015
2.93589
2.83247
2.60524
2.06519
1.34828
1.04611
0.998106
1.00783
1.03259
1.07102
1.11837
3.00003
3.00003
3.00003
3.00003
3.00002
3.00001
2.99998
2.99994
2.99976
2.99951
2.99852
2.99704
2.99156
2.98234
2.95307
2.8869
2.733
2.33114
1.63897
1.16897
1.04591
1.04285
1.05946
1.09165
1.13529
3.00003
3.00003
3.00003
3.00003
3.00002
3.00002
3
2.99997
2.99985
2.99967
2.99898
2.99798
2.99409
2.9881
2.96677
2.92905
2.81315
2.58153
1.99465
1.36776
1.12061
1.08647
1.09509
1.11972
1.15545
3.00003
3.00003
3.00003
3.00003
3.00003
3.00002
3.00001
2.99998
2.99993
2.99975
2.99948
2.99844
2.99686
2.99121
2.98125
2.95095
2.88032
2.72181
2.29653
1.62019
1.22665
1.13159
1.12855
1.14388
1.17318
3.00003
3.00003
3.00003
3.00003
3.00003
3.00002
3.00002
3
2.99996
2.99984
2.99966
2.99895
2.99791
2.99394
2.9878
2.96621
2.92751
2.8124
2.57561
1.99956
1.4149
1.1992
1.1699
1.17626
1.19791
3.00003
3.00003
3.00003
3.00003
3.00003
3.00003
3.00002
3.00001
2.99998
2.99993
2.99975
2.99948
2.99845
2.99688
2.9913
2.98147
2.95168
2.8825
2.72775
2.31253
1.66213
1.29716
1.21128
1.20816
1.22201
3.00003
3.00003
3.00003
3.00003
3.00003
3.00003
3.00002
3.00002
3
2.99997
2.99985
2.99967
2.99899
2.99799
2.99418
2.98831
2.96766
2.93108
2.82125
2.59936
2.04803
1.48957
1.27517
1.24424
1.24834
3.00003
3.00003
3.00003
3.00003
3.00003
3.00003
3.00003
3.00002
3.00001
2.99998
2.99994
2.99977
2.99951
2.99855
2.99709
2.99186
2.98278
2.9549
2.89173
2.74685
2.37192
1.7396
1.3809
1.29199
1.28239
3.00003
3.00003
3.00003
3.00003
3.00003
3.00003
3.00003
3.00003
3.00002
3.00001
2.99996
2.9999
2.99965
2.99928
2.99789
2.99577
2.98813
2.97516
2.93503
2.84711
2.6421
2.17706
1.57953
1.35941
1.3248
3.00003
3.00003
3.00003
3.00003
3.00003
3.00003
3.00003
3.00003
3.00002
3.00002
2.99999
2.99995
2.9998
2.99958
2.99872
2.99747
2.99268
2.98527
2.95976
2.91055
2.7827
2.47115
1.89029
1.48348
1.36775
3.00003
3.00003
3.00003
3.00003
3.00003
3.00003
3.00003
3.00003
3.00003
3.00002
3.00001
2.99997
2.99992
2.99971
2.99941
2.99826
2.99652
2.99024
2.97965
2.94616
2.87333
2.70498
2.29416
1.71246
1.45187
3.00003
3.00003
3.00003
3.00003
3.00003
3.00003
3.00003
3.00003
3.00003
3.00002
3.00002
3
2.99996
2.99984
2.99966
2.99897
2.99798
2.99417
2.9884
2.96829
2.93147
2.83101
2.60291
2.11462
1.62185
3.00003
3.00003
3.00003
3.00003
3.00003
3.00003
3.00003
3.00003
3.00003
3.00003
3.00002
3.00001
2.99999
2.99992
2.99982
2.99942
2.99886
2.99665
2.99341
2.98156
2.9615
2.9013
2.77198
2.46623
1.89891
3.00003
3.00003
3.00003
3.00003
3.00003
3.00003
3.00003
3.00003
3.00003
3.00003
3.00003
3.00002
3.00001
2.99997
2.99991
2.99969
2.99937
2.99815
2.99636
2.98966
2.97913
2.94431
2.87584
2.70379
2.31329
3.00003
3.00003
3.00003
3.00003
3.00003
3.00003
3.00003
3.00003
3.00003
3.00003
3.00003
3.00002
3.00002
3
2.99995
2.99988
2.99961
2.99919
2.99771
2.99533
2.98737
2.97293
2.93187
2.84163
2.62661
3.00003
3.00003
3.00003
3.00003
3.00003
3.00003
3.00003
3.00003
3.00003
3.00003
3.00003
3.00003
3.00002
3.00001
2.99999
2.99993
2.99984
2.99948
2.99895
2.99701
2.99393
2.98344
2.96488
2.90959
2.79643
3.00003
3.00003
3.00003
3.00003
3.00003
3.00003
3.00003
3.00003
3.00003
3.00003
3.00003
3.00003
3.00003
3.00002
3.00001
2.99998
2.9999
2.99978
2.99933
2.99865
2.99618
2.99221
2.97899
2.9553
2.88467
3.00003
3.00003
3.00003
3.00003
3.00003
3.00003
3.00003
3.00003
3.00003
3.00003
3.00003
3.00003
3.00003
3.00003
3.00002
3.00001
2.99996
2.9999
2.99966
2.99931
2.998
2.99604
2.98901
2.97759
2.94125
3.00003
3.00003
3.00003
3.00003
3.00003
3.00003
3.00003
3.00003
3.00003
3.00003
3.00003
3.00003
3.00003
3.00003
3.00002
3.00002
3
2.99995
2.99987
2.9996
2.99917
2.99767
2.99527
2.98723
2.97297
3.00003
3.00003
3.00003
3.00003
3.00003
3.00003
3.00003
3.00003
3.00003
3.00003
3.00003
3.00003
3.00003
3.00003
3.00003
3.00002
3.00001
3
2.99993
2.99984
2.99951
2.99899
2.99719
2.99424
2.98459
3.00003
3.00003
3.00003
3.00003
3.00003
3.00003
3.00003
3.00003
3.00003
3.00003
3.00003
3.00003
3.00003
3.00003
3.00003
3.00003
3.00002
3.00001
2.99999
2.99992
2.99981
2.99941
2.9988
2.99662
2.99312
3.00003
3.00003
3.00003
3.00003
3.00003
3.00003
3.00003
3.00003
3.00003
3.00003
3.00003
3.00003
3.00003
3.00003
3.00003
3.00003
3.00003
3.00002
3.00001
2.99997
2.99992
2.99972
2.99942
2.99831
2.99667
3.00003
3.00003
3.00003
3.00003
3.00003
3.00003
3.00003
3.00003
3.00003
3.00003
3.00003
3.00003
3.00003
3.00003
3.00003
3.00003
3.00003
3.00003
3.00002
3.00001
2.99997
2.9999
2.99968
2.99934
2.99814
3.00003
3.00003
3.00003
3.00003
3.00003
3.00003
3.00003
3.00003
3.00003
3.00003
3.00003
3.00003
3.00003
3.00003
3.00003
3.00003
3.00003
3.00003
3.00002
3.00002
3
2.99996
2.99989
2.99964
2.99926
3.00003
3.00003
3.00003
3.00003
3.00003
3.00003
3.00003
3.00003
3.00003
3.00003
3.00003
3.00003
3.00003
3.00003
3.00003
3.00003
3.00003
3.00003
3.00003
3.00002
3.00001
3
2.99995
2.99987
2.9996
3.00003
3.00003
3.00003
3.00003
3.00003
3.00003
3.00003
3.00003
3.00003
3.00003
3.00003
3.00003
3.00003
3.00003
3.00003
3.00003
3.00003
3.00003
3.00003
3.00003
3.00002
3.00001
3
2.99994
2.99986
3.00003
3.00003
3.00003
3.00003
3.00003
3.00003
3.00003
3.00003
3.00003
3.00003
3.00003
3.00003
3.00003
3.00003
3.00003
3.00003
3.00003
3.00003
3.00003
3.00003
3.00003
3.00002
3.00001
2.99999
2.99995
3.00003
3.00003
3.00003
3.00003
3.00003
3.00003
3.00003
3.00003
3.00003
3.00003
3.00003
3.00003
3.00003
3.00003
3.00003
3.00003
3.00003
3.00003
3.00003
3.00003
3.00003
3.00003
3.00002
3.00001
2.99998
3.00003
3.00003
3.00003
3.00003
3.00003
3.00003
3.00003
3.00003
3.00003
3.00003
3.00003
3.00003
3.00003
3.00003
3.00003
3.00003
3.00003
3.00003
3.00003
3.00003
3.00003
3.00003
3.00002
3.00002
3
3
3
2.99998
2.99995
2.99983
2.99966
2.99898
2.99795
2.99416
2.9874
2.96616
2.91646
2.79687
2.47165
1.83975
0.888752
0.512736
0.536924
0.553891
0.556594
0.552218
0.559576
0.595274
0.678256
0.853529
3
3
2.99998
2.99996
2.99985
2.99971
2.9991
2.99825
2.9948
2.9894
2.97022
2.93065
2.82551
2.54559
1.99627
1.01808
0.590259
0.555119
0.572189
0.588576
0.598687
0.620778
0.673817
0.77895
0.968531
3
3
2.99999
2.99996
2.99988
2.99975
2.99925
2.99852
2.99568
2.99106
2.97552
2.94156
2.85456
2.6128
2.15159
1.19903
0.691917
0.572994
0.591859
0.617064
0.640991
0.675826
0.738625
0.843175
1.00793
3.00001
3
2.99999
2.99997
2.9999
2.9998
2.99937
2.99877
2.99635
2.99265
2.97953
2.95315
2.88084
2.6866
2.29906
1.42134
0.822079
0.614552
0.627426
0.650989
0.680414
0.720994
0.788279
0.884038
1.02314
3.00001
3
2.99999
2.99998
2.99992
2.99984
2.9995
2.99902
2.99708
2.9942
2.98336
2.96451
2.90658
2.76837
2.45841
1.7703
0.972958
0.682335
0.682738
0.699484
0.72704
0.764782
0.826192
0.913471
1.03197
3.00001
3
3
2.99998
2.99995
2.99985
2.9997