/*--------------------------------*- C++ -*----------------------------------*\
| =========                 |                                                 |
| \\      /  F ield         | OpenFOAM: The Open Source CFD Toolbox           |
|  \\    /   O peration     | Version:  4.1                                   |
|   \\  /    A nd           | Web:      www.OpenFOAM.org                      |
|    \\/     M anipulation  |                                                 |
\*---------------------------------------------------------------------------*/
FoamFile
{
    version     2.0;
    format      ascii;
    class       volScalarField;
    location    "0.66";
    object      Ma;
}
// * * * * * * * * * * * * * * * * * * * * * * * * * * * * * * * * * * * * * //

dimensions      [0 0 0 0 0 0 0];

internalField   nonuniform List<scalar> 
18000
(
5.33779e-12
5.27803e-12
5.2072e-12
5.14861e-12
5.09057e-12
5.03326e-12
4.97659e-12
4.92101e-12
4.86624e-12
4.81316e-12
6.66752e-12
6.43488e-12
6.20025e-12
5.98475e-12
5.77853e-12
5.58084e-12
5.39112e-12
5.20941e-12
5.0346e-12
4.87035e-12
8.42879e-12
7.92034e-12
7.43685e-12
6.9955e-12
6.58509e-12
6.20377e-12
5.84962e-12
5.5192e-12
5.21159e-12
4.92872e-12
1.07933e-11
9.84637e-12
8.98905e-12
8.22185e-12
7.5337e-12
6.91452e-12
6.35632e-12
5.85211e-12
5.39596e-12
4.98804e-12
1.40164e-11
1.2374e-11
1.09523e-11
9.72078e-12
8.65449e-12
7.72715e-12
6.91813e-12
6.21033e-12
5.58864e-12
5.0485e-12
1.84814e-11
1.57341e-11
1.34618e-11
1.15653e-11
9.9849e-12
8.65933e-12
7.54218e-12
6.59578e-12
5.78983e-12
5.11e-12
2.47686e-11
2.02681e-11
1.67012e-11
1.38534e-11
1.1573e-11
9.73247e-12
8.23614e-12
7.01085e-12
6.00045e-12
5.17253e-12
3.38387e-11
2.65209e-11
2.10017e-11
1.68026e-11
1.35877e-11
1.11003e-11
9.15652e-12
7.62401e-12
6.40455e-12
5.44554e-12
4.50177e-09
4.50352e-09
4.23846e-09
3.9987e-09
3.78272e-09
3.58752e-09
3.41046e-09
3.2493e-09
3.10236e-09
3.02894e-09
4.8816e-07
5.47809e-08
4.67398e-08
4.0708e-08
3.56545e-08
3.13941e-08
2.77838e-08
2.47114e-08
2.20022e-08
8.61122e-08
5.65403e-12
5.58746e-12
5.51368e-12
5.44887e-12
5.38534e-12
5.32298e-12
5.26064e-12
5.20026e-12
5.14064e-12
5.08245e-12
7.11206e-12
6.85342e-12
6.60266e-12
6.3649e-12
6.13814e-12
5.92096e-12
5.71377e-12
5.51518e-12
5.32533e-12
5.14513e-12
9.0533e-12
8.48605e-12
7.96494e-12
7.47571e-12
7.0234e-12
6.60428e-12
6.21639e-12
5.85553e-12
5.52018e-12
5.21011e-12
1.16898e-11
1.06291e-11
9.69228e-12
8.83723e-12
8.07392e-12
7.39018e-12
6.77667e-12
6.22485e-12
5.72601e-12
5.27597e-12
1.53321e-11
1.34792e-11
1.19027e-11
1.0518e-11
9.3266e-12
8.29673e-12
7.40286e-12
6.6245e-12
5.9434e-12
5.34454e-12
2.04596e-11
1.73239e-11
1.4764e-11
1.26086e-11
1.08278e-11
9.34534e-12
8.10453e-12
7.05943e-12
6.17388e-12
5.4154e-12
2.7818e-11
2.26025e-11
1.85111e-11
1.52323e-11
1.26382e-11
1.05637e-11
8.89101e-12
7.53213e-12
6.41667e-12
5.48861e-12
3.86473e-11
2.99706e-11
2.34841e-11
1.85586e-11
1.48379e-11
1.1988e-11
9.78012e-12
8.04939e-12
6.67704e-12
5.5672e-12
1.5233e-10
3.35733e-10
2.75589e-10
2.27635e-10
1.9012e-10
1.60363e-10
1.36481e-10
1.17108e-10
1.01255e-10
8.913e-11
3.35114e-07
5.06157e-08
4.41581e-08
3.87424e-08
3.4251e-08
3.04898e-08
2.73114e-08
2.46034e-08
2.22849e-08
2.1199e-08
5.03424e-13
4.81803e-13
3.57521e-13
3.42383e-13
3.28472e-13
3.16025e-13
3.04813e-13
2.95326e-13
2.86893e-13
2.77521e-13
6.97853e-13
6.28487e-13
5.6053e-13
5.10565e-13
4.65449e-13
4.25309e-13
3.89533e-13
3.58825e-13
3.33196e-13
2.91954e-13
8.73645e-13
7.60711e-13
7.47364e-13
6.66296e-13
5.94499e-13
5.32035e-13
4.78699e-13
4.33553e-13
3.93696e-13
3.11774e-13
1.17537e-12
1.0267e-12
1.03934e-12
9.04022e-13
7.87621e-13
6.89636e-13
6.07162e-13
5.38347e-13
4.78327e-13
3.41014e-13
1.66381e-12
1.47723e-12
1.46209e-12
1.23585e-12
1.04775e-12
8.9454e-13
7.69129e-13
6.66337e-13
5.78331e-13
3.78057e-13
2.45666e-12
2.20524e-12
2.07105e-12
1.69245e-12
1.39163e-12
1.15485e-12
9.67261e-13
8.17585e-13
6.92339e-13
4.21558e-13
3.75577e-12
3.35558e-12
2.95221e-12
2.32035e-12
1.84283e-12
1.4822e-12
1.20586e-12
9.92449e-13
8.19776e-13
4.70816e-13
5.97715e-12
5.17764e-12
4.23749e-12
3.18735e-12
2.43536e-12
1.89187e-12
1.49182e-12
1.19323e-12
9.60455e-13
5.25064e-13
2.41249e-10
1.22302e-11
9.82196e-12
7.17025e-12
5.35859e-12
4.09021e-12
3.18226e-12
2.51925e-12
2.02148e-12
1.49668e-12
2.86479e-07
3.84029e-09
2.83419e-09
2.1736e-09
1.69384e-09
1.339e-09
1.0722e-09
8.68611e-10
7.1139e-10
6.00242e-10
3.84246e-13
3.60572e-13
1.72021e-13
1.51288e-13
1.30942e-13
1.11831e-13
9.39686e-14
7.7577e-14
6.30367e-14
3.71878e-14
5.31831e-13
4.59617e-13
3.85907e-13
3.35958e-13
2.8934e-13
2.47684e-13
2.10947e-13
1.7925e-13
1.52802e-13
7.94799e-14
5.95638e-13
4.89236e-13
5.23495e-13
4.557e-13
3.95488e-13
3.44294e-13
3.01712e-13
2.67683e-13
2.39058e-13
1.19594e-13
7.295e-13
6.35238e-13
7.60575e-13
6.57994e-13
5.69048e-13
4.95574e-13
4.3498e-13
3.85695e-13
3.43317e-13
1.71006e-13
9.58388e-13
9.4465e-13
1.1078e-12
9.42274e-13
8.028e-13
6.89263e-13
5.96711e-13
5.21626e-13
4.56579e-13
2.24475e-13
1.34357e-12
1.48654e-12
1.61049e-12
1.33499e-12
1.11031e-12
9.32429e-13
7.90073e-13
6.76588e-13
5.79537e-13
2.81051e-13
1.9823e-12
2.36413e-12
2.33857e-12
1.87491e-12
1.51327e-12
1.23603e-12
1.0203e-12
8.51913e-13
7.1256e-13
3.40819e-13
3.12693e-12
3.76259e-12
3.39751e-12
2.61889e-12
2.04056e-12
1.61442e-12
1.29403e-12
1.0506e-12
8.56628e-13
4.03785e-13
2.65422e-10
6.83139e-12
4.8912e-12
3.61304e-12
2.71284e-12
2.07535e-12
1.61325e-12
1.27359e-12
1.01164e-12
4.70177e-13
2.83808e-07
1.18206e-09
9.51501e-11
6.30394e-11
4.30742e-11
3.01116e-11
2.14933e-11
1.56302e-11
1.15591e-11
8.62668e-12
3.84172e-13
3.60067e-13
1.72157e-13
1.513e-13
1.30886e-13
1.11683e-13
9.4056e-14
7.76237e-14
6.28359e-14
3.68728e-14
5.32042e-13
4.59722e-13
3.86385e-13
3.36428e-13
2.89837e-13
2.47879e-13
2.11053e-13
1.79565e-13
1.53023e-13
7.93614e-14
5.96188e-13
4.89836e-13
5.24655e-13
4.56614e-13
3.96011e-13
3.44896e-13
3.02225e-13
2.67921e-13
2.39047e-13
1.19519e-13
7.30629e-13
6.36712e-13
7.62256e-13
6.59557e-13
5.70256e-13
4.96493e-13
4.35785e-13
3.86346e-13
3.43674e-13
1.70685e-13
9.60202e-13
9.47477e-13
1.11105e-12
9.44823e-13
8.04837e-13
6.91157e-13
5.97973e-13
5.22277e-13
4.57272e-13
2.24853e-13
1.34596e-12
1.49174e-12
1.61551e-12
1.33946e-12
1.11381e-12
9.35357e-13
7.92511e-13
6.78276e-13
5.80943e-13
2.81802e-13
1.98466e-12
2.3736e-12
2.3479e-12
1.88236e-12
1.5194e-12
1.24105e-12
1.02421e-12
8.54861e-13
7.15163e-13
3.42369e-13
3.13092e-12
3.7801e-12
3.41364e-12
2.63185e-12
2.05098e-12
1.62261e-12
1.30048e-12
1.05577e-12
8.60588e-13
4.06488e-13
2.77926e-10
7.13915e-12
4.98472e-12
3.67038e-12
2.74915e-12
2.09878e-12
1.62859e-12
1.2839e-12
1.01865e-12
4.7381e-13
3.01629e-07
1.27949e-09
1.24646e-11
5.37349e-12
3.80929e-12
2.78266e-12
2.07765e-12
1.58256e-12
1.21723e-12
5.71781e-13
3.84221e-13
3.59723e-13
1.72704e-13
1.51824e-13
1.31224e-13
1.1197e-13
9.41113e-14
7.79091e-14
6.32009e-14
3.68332e-14
5.32913e-13
4.60199e-13
3.87645e-13
3.37498e-13
2.90775e-13
2.48571e-13
2.11507e-13
1.79849e-13
1.536e-13
7.98457e-14
5.98055e-13
4.91634e-13
5.26992e-13
4.58532e-13
3.97731e-13
3.46125e-13
3.03105e-13
2.68544e-13
2.39594e-13
1.20039e-13
7.34484e-13
6.408e-13
7.66073e-13
6.62651e-13
5.72802e-13
4.98402e-13
4.37192e-13
3.87463e-13
3.44383e-13
1.71253e-13
9.67669e-13
9.55105e-13
1.11728e-12
9.4982e-13
8.08805e-13
6.94453e-13
6.0061e-13
5.24361e-13
4.58738e-13
2.25786e-13
1.35995e-12
1.50525e-12
1.62631e-12
1.34766e-12
1.12022e-12
9.4062e-13
7.96732e-13
6.81338e-13
5.83451e-13
2.83527e-13
2.01087e-12
2.39702e-12
2.36629e-12
1.89638e-12
1.53012e-12
1.24957e-12
1.03094e-12
8.59981e-13
7.19181e-13
3.45178e-13
3.18376e-12
3.82231e-12
3.44547e-12
2.65534e-12
2.06856e-12
1.63619e-12
1.31111e-12
1.06385e-12
8.66741e-13
4.10595e-13
2.95203e-10
7.30984e-12
5.04229e-12
3.71049e-12
2.77818e-12
2.12044e-12
1.64479e-12
1.29598e-12
1.02805e-12
4.80145e-13
3.29152e-07
1.38036e-09
1.26646e-11
5.13996e-12
3.6918e-12
2.72148e-12
2.04537e-12
1.56541e-12
1.20825e-12
5.6072e-13
3.84195e-13
3.59443e-13
1.73295e-13
1.52457e-13
1.31829e-13
1.12522e-13
9.45872e-14
7.81641e-14
6.35491e-14
4.0963e-14
5.33915e-13
4.6084e-13
3.89282e-13
3.38766e-13
2.91898e-13
2.49668e-13
2.12402e-13
1.80511e-13
1.53868e-13
8.14344e-14
6.00336e-13
4.93739e-13
5.29694e-13
4.60909e-13
3.99644e-13
3.47706e-13
3.04216e-13
2.694e-13
2.4035e-13
1.21289e-13
7.39078e-13
6.4562e-13
7.70469e-13
6.66386e-13
5.7599e-13
5.00951e-13
4.39005e-13
3.8876e-13
3.45734e-13
1.72675e-13
9.76596e-13
9.64067e-13
1.12463e-12
9.55692e-13
8.13505e-13
6.98482e-13
6.03917e-13
5.26917e-13
4.60747e-13
2.27767e-13
1.37699e-12
1.52081e-12
1.63891e-12
1.3577e-12
1.12793e-12
9.46942e-13
8.02028e-13
6.85541e-13
5.86625e-13
2.86307e-13
2.0425e-12
2.4245e-12
2.38752e-12
1.9129e-12
1.54295e-12
1.25985e-12
1.03932e-12
8.66618e-13
7.24275e-13
3.49316e-13
3.23765e-12
3.87111e-12
3.48248e-12
2.68303e-12
2.08946e-12
1.65232e-12
1.3242e-12
1.07428e-12
8.74665e-13
4.16382e-13
3.02538e-10
7.33991e-12
5.10624e-12
3.75699e-12
2.81244e-12
2.14625e-12
1.665e-12
1.31108e-12
1.03978e-12
4.88588e-13
3.50673e-07
1.39793e-09
1.24218e-11
5.20754e-12
3.74298e-12
2.75934e-12
2.07428e-12
1.58713e-12
1.2248e-12
5.72093e-13
3.8424e-13
3.58428e-13
1.73629e-13
1.52824e-13
1.32605e-13
1.14305e-13
9.92754e-14
1.23037e-13
3.7498e-13
1.1292e-12
5.34508e-13
4.60512e-13
3.90115e-13
3.39747e-13
2.93104e-13
2.51372e-13
2.15246e-13
1.93593e-13
2.69924e-13
7.40635e-13
6.01789e-13
4.94163e-13
5.31126e-13
4.62294e-13
4.01249e-13
3.49892e-13
3.07636e-13
2.76442e-13
2.85049e-13
5.00553e-13
7.42285e-13
6.47085e-13
7.72659e-13
6.6846e-13
5.78045e-13
5.03525e-13
4.4306e-13
3.9495e-13
3.67399e-13
3.84416e-13
9.826e-13
9.66941e-13
1.12779e-12
9.58756e-13
8.16434e-13
7.01479e-13
6.08506e-13
5.33562e-13
4.76035e-13
3.4783e-13
1.38715e-12
1.52591e-12
1.64383e-12
1.3625e-12
1.13254e-12
9.51739e-13
8.08306e-13
6.93912e-13
6.005e-13
3.60721e-13
2.0593e-12
2.43364e-12
2.39592e-12
1.92083e-12
1.55024e-12
1.26721e-12
1.04778e-12
8.77226e-13
7.38867e-13
4.01352e-13
3.21814e-12
3.88778e-12
3.49728e-12
2.69665e-12
2.10154e-12
1.66327e-12
1.33565e-12
1.08835e-12
8.91857e-13
4.57531e-13
2.23344e-10
6.72928e-12
5.12836e-12
3.77995e-12
2.83189e-12
2.16339e-12
1.68196e-12
1.32995e-12
1.05991e-12
5.245e-13
2.93384e-07
8.12669e-10
9.47762e-12
5.23137e-12
3.77224e-12
2.78483e-12
2.09799e-12
1.61147e-12
1.24971e-12
6.06515e-13
3.98082e-13
4.2902e-13
2.3548e-13
1.57445e-13
2.04823e-13
5.32177e-13
1.16216e-12
4.59846e-12
1.73645e-11
4.62018e-11
5.65221e-13
5.85854e-13
4.68616e-13
3.62086e-13
2.97593e-13
4.85611e-13
9.27219e-13
2.9038e-12
1.01976e-11
3.02526e-11
6.64701e-13
7.15082e-13
6.55236e-13
5.18091e-13
3.98447e-13
4.47124e-13
8.54516e-13
2.00771e-12
6.52196e-12
1.97884e-11
8.46742e-13
9.58764e-13
9.36475e-13
7.54691e-13
5.8877e-13
5.21235e-13
8.12407e-13
1.52042e-12
4.53137e-12
1.33882e-11
1.14071e-12
1.35062e-12
1.32614e-12
1.0716e-12
8.46443e-13
6.90451e-13
7.95402e-13
1.28469e-12
3.39489e-12
9.3704e-12
1.60808e-12
1.96223e-12
1.87e-12
1.49405e-12
1.1767e-12
9.35575e-13
8.81093e-13
1.30431e-12
2.71158e-12
6.76838e-12
2.34554e-12
2.91075e-12
2.63852e-12
2.06054e-12
1.6006e-12
1.24981e-12
1.05648e-12
1.26764e-12
2.28741e-12
5.03198e-12
3.47772e-12
4.38235e-12
3.73746e-12
2.82835e-12
2.14573e-12
1.64119e-12
1.31053e-12
1.30825e-12
2.02144e-12
3.84346e-12
8.93431e-11
6.1767e-12
5.32997e-12
3.88126e-12
2.85289e-12
2.12544e-12
1.63438e-12
1.4369e-12
1.85221e-12
3.01627e-12
5.18588e-08
1.47777e-09
5.83296e-12
5.24771e-12
3.75007e-12
2.71614e-12
2.02453e-12
1.64065e-12
1.77396e-12
2.44047e-12
2.51482e-12
2.36313e-12
1.51035e-12
1.59581e-13
2.70311e-12
8.89704e-12
2.78026e-11
1.15377e-10
3.87876e-10
5.5974e-10
3.54335e-12
3.41894e-12
2.5285e-12
1.14339e-12
1.34731e-12
6.36906e-12
1.98661e-11
7.15595e-11
2.30261e-10
3.58645e-10
4.81076e-12
4.67542e-12
3.69652e-12
2.29471e-12
2.50359e-13
4.15408e-12
1.41033e-11
4.73811e-11
1.45552e-10
2.42645e-10
6.47323e-12
6.25001e-12
5.08967e-12
3.57409e-12
1.41015e-12
2.31371e-12
9.95346e-12
3.28227e-11
9.66492e-11
1.69606e-10
8.70094e-12
8.25775e-12
6.78093e-12
5.04609e-12
2.813e-12
7.70619e-13
6.87857e-12
2.32861e-11
6.66482e-11
1.21604e-10
1.17416e-11
1.08621e-11
8.87017e-12
6.76002e-12
4.31638e-12
1.17389e-12
4.43131e-12
1.65112e-11
4.73223e-11
8.91279e-11
1.59797e-11
1.43155e-11
1.14992e-11
8.79474e-12
5.99268e-12
2.70543e-12
2.42276e-12
1.18479e-11
3.43739e-11
6.65621e-11
2.20497e-11
1.89823e-11
1.48601e-11
1.12538e-11
7.87943e-12
4.31141e-12
1.04913e-12
8.36186e-12
2.53694e-11
5.04978e-11
3.77834e-10
2.5426e-11
1.92414e-11
1.42742e-11
1.00471e-11
6.02816e-12
1.75856e-12
5.64897e-12
1.89255e-11
3.88045e-11
7.7111e-07
2.30105e-09
2.54568e-11
1.80383e-11
1.25613e-11
7.87011e-12
3.27302e-12
3.51518e-12
1.41637e-11
3.01129e-11
3.33803e-12
3.00222e-12
1.97727e-12
1.95904e-12
8.47075e-12
3.02965e-11
1.34019e-10
5.46209e-10
1.06955e-09
1.23796e-09
4.4197e-12
4.11801e-12
3.13828e-12
1.64915e-12
5.28528e-12
2.05498e-11
8.20438e-11
3.15735e-10
6.58233e-10
7.45558e-10
5.73323e-12
5.40898e-12
4.44402e-12
2.73699e-12
2.8409e-12
1.36003e-11
5.28929e-11
1.94149e-10
4.24644e-10
4.74329e-10
7.41288e-12
6.96929e-12
5.91932e-12
4.22968e-12
1.95271e-12
8.55466e-12
3.5136e-11
1.25094e-10
2.82783e-10
3.12973e-10
9.6128e-12
8.90587e-12
7.63682e-12
5.877e-12
3.11225e-12
4.89708e-12
2.34941e-11
8.32509e-11
1.93185e-10
2.12655e-10
1.25671e-11
1.13675e-11
9.69138e-12
7.70438e-12
4.89874e-12
2.53889e-12
1.53224e-11
5.6436e-11
1.34987e-10
1.48093e-10
1.66279e-11
1.4569e-11
1.22116e-11
9.79093e-12
6.83212e-12
2.74745e-12
9.59696e-12
3.87809e-11
9.57424e-11
1.05192e-10
2.23558e-11
1.88258e-11
1.53761e-11
1.22336e-11
8.90688e-12
4.59351e-12
5.41327e-12
2.66809e-11
6.874e-11
7.59098e-11
1.98027e-10
2.48175e-11
1.94346e-11
1.51643e-11
1.11989e-11
6.70762e-12
2.77388e-12
1.81164e-11
4.97721e-11
5.5403e-11
1.59312e-07
7.48523e-09
4.28154e-11
1.87254e-11
1.37694e-11
8.87658e-12
3.00562e-12
1.18582e-11
3.61653e-11
4.07078e-11
1.02635e-12
1.278e-12
1.54007e-12
3.20837e-12
8.43598e-12
2.47512e-11
8.6371e-11
2.62343e-10
3.86993e-10
2.90661e-10
1.11886e-12
1.28658e-12
1.41758e-12
2.44128e-12
6.02714e-12
1.7319e-11
5.75855e-11
1.67593e-10
2.36127e-10
1.09498e-10
1.21606e-12
1.33742e-12
1.42121e-12
1.97857e-12
4.33662e-12
1.22118e-11
3.92044e-11
1.10297e-10
1.49659e-10
4.20657e-11
1.31819e-12
1.41743e-12
1.50222e-12
1.80144e-12
3.20503e-12
8.6476e-12
2.72048e-11
7.45035e-11
9.79864e-11
2.52954e-11
1.42697e-12
1.51592e-12
1.62002e-12
1.80555e-12
2.53168e-12
6.14712e-12
1.90739e-11
5.14623e-11
6.57233e-11
2.21572e-11
1.55099e-12
1.63054e-12
1.7536e-12
1.89898e-12
2.22874e-12
4.45974e-12
1.3455e-11
3.63341e-11
4.49061e-11
2.01151e-11
1.69627e-12
1.76241e-12
1.89469e-12
2.03253e-12
2.17287e-12
3.36516e-12
9.52254e-12
2.58296e-11
3.10938e-11
1.79073e-11
1.90862e-12
1.91475e-12
2.0469e-12
2.18057e-12
2.24402e-12
2.76062e-12
6.81371e-12
1.85092e-11
2.17329e-11
1.57511e-11
5.17196e-10
7.7291e-12
2.20835e-12
2.33681e-12
2.37439e-12
2.51335e-12
4.96581e-12
1.33508e-11
1.52586e-11
1.38207e-11
2.71824e-07
8.30404e-09
2.33296e-11
2.52782e-12
2.5227e-12
2.48004e-12
3.74437e-12
9.66738e-12
1.06857e-11
1.2036e-11
7.82465e-13
1.4887e-12
1.60583e-12
2.51727e-12
4.14133e-12
6.97599e-12
1.46365e-11
5.55061e-11
2.25974e-10
6.54371e-10
7.18159e-13
1.33719e-12
1.39086e-12
2.14433e-12
3.48001e-12
5.82851e-12
1.11333e-11
3.45161e-11
1.37369e-10
3.7686e-10
6.55425e-13
1.19531e-12
1.19733e-12
1.81811e-12
2.91806e-12
4.83591e-12
8.78586e-12
2.28011e-11
8.73636e-11
2.29541e-10
6.02293e-13
1.07385e-12
1.03636e-12
1.55613e-12
2.46019e-12
4.03619e-12
7.08106e-12
1.5989e-11
5.7642e-11
1.46304e-10
5.56228e-13
9.69723e-13
9.0007e-13
1.33328e-12
2.08425e-12
3.39703e-12
5.79149e-12
1.18015e-11
3.91568e-11
9.66766e-11
5.16912e-13
8.80758e-13
7.85707e-13
1.15241e-12
1.78512e-12
2.86991e-12
4.79842e-12
9.06073e-12
2.72557e-11
6.58114e-11
4.83048e-13
8.0423e-13
6.88562e-13
9.9977e-13
1.52984e-12
2.43517e-12
4.02811e-12
7.17374e-12
1.93939e-11
4.59757e-11
6.11601e-13
7.38333e-13
6.07346e-13
8.70508e-13
1.32005e-12
2.08394e-12
3.40792e-12
5.82087e-12
1.40617e-11
3.2837e-11
7.91488e-10
2.1867e-11
5.69878e-13
7.61032e-13
1.14589e-12
1.7935e-12
2.90093e-12
4.81e-12
1.03715e-11
2.39022e-11
2.70112e-07
2.65117e-08
1.37871e-10
1.6079e-12
9.77878e-13
1.54238e-12
2.47357e-12
4.02134e-12
7.75472e-12
1.76755e-11
1.05513e-12
1.84485e-12
1.62809e-12
2.16992e-12
3.01901e-12
4.37296e-12
6.8292e-12
1.28896e-11
5.02516e-11
1.66511e-10
9.82214e-13
1.69156e-12
1.45926e-12
1.93679e-12
2.67071e-12
3.80875e-12
5.74593e-12
1.01656e-11
3.56134e-11
1.01305e-10
9.11729e-13
1.5444e-12
1.2967e-12
1.7125e-12
2.34632e-12
3.31584e-12
4.868e-12
8.00283e-12
2.53029e-11
6.52364e-11
8.49957e-13
1.41595e-12
1.1579e-12
1.51837e-12
2.06998e-12
2.90001e-12
4.18846e-12
6.46414e-12
1.82383e-11
4.39294e-11
7.96324e-13
1.30392e-12
1.03832e-12
1.35169e-12
1.83632e-12
2.55302e-12
3.6442e-12
5.37512e-12
1.32813e-11
3.06044e-11
7.49558e-13
1.20589e-12
9.34599e-13
1.20881e-12
1.6312e-12
2.25561e-12
3.20028e-12
4.57512e-12
9.77071e-12
2.18874e-11
7.0836e-13
1.1193e-12
8.44808e-13
1.0847e-12
1.45493e-12
2.00422e-12
2.82566e-12
3.95884e-12
7.26161e-12
1.59599e-11
8.82705e-13
1.04375e-12
7.66954e-13
9.76547e-13
1.30169e-12
1.78439e-12
2.50275e-12
3.46479e-12
5.44615e-12
1.1824e-11
1.15357e-09
3.88155e-11
7.42794e-13
8.81539e-13
1.16862e-12
1.59303e-12
2.22788e-12
3.05326e-12
4.11975e-12
8.86807e-12
3.31717e-07
4.66117e-08
3.37467e-10
2.25317e-12
1.01809e-12
1.4255e-12
1.98569e-12
2.69941e-12
3.12552e-12
6.70829e-12
1.45948e-12
2.3272e-12
1.64151e-12
1.89725e-12
2.27702e-12
2.8232e-12
3.78876e-12
5.84615e-12
1.42812e-11
2.69188e-11
1.38046e-12
2.17791e-12
1.5244e-12
1.76635e-12
2.11747e-12
2.59949e-12
3.35482e-12
4.79128e-12
1.13215e-11
2.01036e-11
1.30118e-12
2.02935e-12
1.40122e-12
1.62558e-12
1.9494e-12
2.38055e-12
3.00461e-12
4.02486e-12
8.75113e-12
1.51583e-11
1.2311e-12
1.89668e-12
1.29e-12
1.49679e-12
1.79577e-12
2.18858e-12
2.7284e-12
3.48462e-12
6.72884e-12
1.15903e-11
1.16907e-12
1.77784e-12
1.1901e-12
1.37962e-12
1.65677e-12
2.01712e-12
2.50073e-12
3.09239e-12
5.16551e-12
8.95169e-12
1.1139e-12
1.67076e-12
1.10048e-12
1.27422e-12
1.52847e-12
1.86157e-12
2.30063e-12
2.79303e-12
3.95694e-12
6.95368e-12
1.06477e-12
1.5746e-12
1.02006e-12
1.17863e-12
1.41202e-12
1.72005e-12
2.12728e-12
2.54894e-12
3.02841e-12
5.42175e-12
1.25204e-12
1.48865e-12
9.47611e-13
1.09187e-12
1.3062e-12
1.59109e-12
1.96914e-12
2.3462e-12
2.31258e-12
4.24252e-12
1.45316e-09
5.66322e-11
9.37741e-13
1.01235e-12
1.20942e-12
1.47271e-12
1.82412e-12
2.16872e-12
1.75925e-12
3.32704e-12
2.70252e-07
6.4247e-08
5.33703e-10
2.65392e-12
1.07854e-12
1.36279e-12
1.68603e-12
2.00433e-12
1.32427e-12
2.60189e-12
2.04914e-12
2.94125e-12
1.60272e-12
1.60043e-12
1.66174e-12
1.79888e-12
2.14113e-12
2.93306e-12
6.41194e-12
8.47476e-12
1.96541e-12
2.80571e-12
1.54342e-12
1.5587e-12
1.6283e-12
1.74502e-12
1.98514e-12
2.50284e-12
5.21314e-12
7.02415e-12
1.88132e-12
2.66614e-12
1.46689e-12
1.49637e-12
1.57503e-12
1.68466e-12
1.86651e-12
2.19522e-12
4.12949e-12
5.72999e-12
1.80523e-12
2.53749e-12
1.39235e-12
1.43157e-12
1.51756e-12
1.62704e-12
1.77933e-12
1.98988e-12
3.25148e-12
4.67297e-12
1.7363e-12
2.41853e-12
1.32059e-12
1.36746e-12
1.45909e-12
1.57021e-12
1.70832e-12
1.85175e-12
2.54232e-12
3.80834e-12
1.67411e-12
2.30903e-12
1.2528e-12
1.30397e-12
1.39907e-12
1.51366e-12
1.64918e-12
1.75198e-12
1.9707e-12
3.09979e-12
1.61753e-12
2.20817e-12
1.18913e-12
1.24244e-12
1.33863e-12
1.45606e-12
1.59297e-12
1.67587e-12
1.50459e-12
2.51809e-12
1.79245e-12
2.11664e-12
1.12914e-12
1.1835e-12
1.28025e-12
1.39805e-12
1.53613e-12
1.61324e-12
1.12806e-12
2.03798e-12
1.70736e-09
7.17827e-11
1.18509e-12
1.12649e-12
1.22295e-12
1.34105e-12
1.47981e-12
1.55779e-12
8.25587e-13
1.64084e-12
8.63968e-08
7.25886e-08
1.20004e-09
4.54051e-12
1.12359e-12
1.28111e-12
1.42047e-12
1.49993e-12
5.71466e-13
1.30838e-12
2.84971e-12
3.64052e-12
1.44172e-12
1.21364e-12
1.06615e-12
1.0034e-12
1.1343e-12
1.52605e-12
3.27313e-12
3.7469e-12
2.76754e-12
3.5337e-12
1.44067e-12
1.24743e-12
1.11867e-12
1.03632e-12
1.07643e-12
1.31144e-12
2.80369e-12
3.30661e-12
2.68388e-12
3.41887e-12
1.41797e-12
1.25665e-12
1.14985e-12
1.06614e-12
1.05264e-12
1.16153e-12
2.30846e-12
2.83048e-12
2.6067e-12
3.30877e-12
1.38743e-12
1.25367e-12
1.1678e-12
1.09255e-12
1.0531e-12
1.073e-12
1.8835e-12
2.41881e-12
2.53533e-12
3.20438e-12
1.35358e-12
1.24309e-12
1.17588e-12
1.11258e-12
1.06392e-12
1.03054e-12
1.51871e-12
2.06246e-12
2.46933e-12
3.10497e-12
1.31663e-12
1.22598e-12
1.17571e-12
1.12623e-12
1.07977e-12
1.01599e-12
1.20477e-12
1.75269e-12
2.40835e-12
3.01136e-12
1.27825e-12
1.20419e-12
1.16933e-12
1.13367e-12
1.09488e-12
1.0167e-12
9.36875e-13
1.48406e-12
2.56919e-12
2.92463e-12
1.23956e-12
1.18006e-12
1.15737e-12
1.13437e-12
1.10609e-12
1.02553e-12
7.0798e-13
1.25274e-12
1.99173e-09
8.12239e-11
1.40465e-12
1.15348e-12
1.14175e-12
1.13005e-12
1.11188e-12
1.03664e-12
5.13023e-13
1.05398e-12
1.26128e-07
6.75546e-08
1.14296e-09
8.10884e-12
1.0936e-12
1.11834e-12
1.11184e-12
1.04369e-12
3.42016e-13
8.86804e-13
3.8091e-12
4.32376e-12
1.12419e-12
7.61459e-13
4.9522e-13
3.50229e-13
4.85116e-13
7.91619e-13
1.98771e-12
2.01852e-12
3.73419e-12
4.2572e-12
1.16868e-12
8.43063e-13
6.00164e-13
4.20819e-13
4.2912e-13
6.41013e-13
1.82314e-12
1.9003e-12
3.65924e-12
4.18385e-12
1.19056e-12
9.00727e-13
6.8419e-13
4.9987e-13
4.25268e-13
5.25975e-13
1.58512e-12
1.70573e-12
3.58819e-12
4.10902e-12
1.20133e-12
9.43418e-13
7.50706e-13
5.74413e-13
4.57772e-13
4.54405e-13
1.37316e-12
1.53039e-12
3.52092e-12
4.0351e-12
1.20348e-12
9.73956e-13
8.03849e-13
6.40373e-13
5.07118e-13
4.28374e-13
1.18367e-12
1.37185e-12
3.45829e-12
3.96244e-12
1.19892e-12
9.95499e-13
8.46901e-13
6.98318e-13
5.61996e-13
4.3892e-13
1.01643e-12
1.23004e-12
3.39895e-12
3.89134e-12
1.18955e-12
1.00961e-12
8.79873e-13
7.47126e-13
6.15981e-13
4.71787e-13
8.70689e-13
1.10422e-12
3.54656e-12
3.82535e-12
1.17682e-12
1.01735e-12
9.04932e-13
7.878e-13
6.6581e-13
5.15629e-13
7.45863e-13
9.93225e-13
2.252e-09
8.28928e-11
1.53617e-12
1.02108e-12
9.246e-13
8.21406e-13
7.0947e-13
5.62896e-13
6.41643e-13
8.97104e-13
3.58826e-07
4.61406e-08
1.01163e-09
1.11955e-11
9.34711e-13
8.46653e-13
7.47188e-13
6.0623e-13
5.58542e-13
8.18233e-13
4.74189e-12
4.85563e-12
7.31518e-13
4.97467e-13
2.7234e-13
1.51369e-13
2.66098e-13
4.73665e-13
1.43463e-12
1.27949e-12
4.67768e-12
4.8335e-12
7.7216e-13
5.35642e-13
3.11341e-13
1.24607e-13
1.63007e-13
3.70006e-13
1.42373e-12
1.29402e-12
4.61575e-12
4.8069e-12
8.01793e-13
5.72282e-13
3.607e-13
1.62745e-13
7.60424e-14
2.70252e-13
1.31947e-12
1.21994e-12
4.55553e-12
4.77533e-12
8.2549e-13
6.05201e-13
4.10362e-13
2.20875e-13
4.57971e-14
1.77549e-13
1.22496e-12
1.15163e-12
4.49801e-12
4.74074e-12
8.43493e-13
6.3546e-13
4.57101e-13
2.80993e-13
1.08733e-13
9.37577e-14
1.13838e-12
1.08862e-12
4.44257e-12
4.70351e-12
8.57094e-13
6.61462e-13
4.99779e-13
3.37331e-13
1.76589e-13
3.0849e-14
1.05974e-12
1.03094e-12
4.38991e-12
4.66555e-12
8.66771e-13
6.83869e-13
5.37799e-13
3.89263e-13
2.38997e-13
6.80542e-14
9.89881e-13
9.78839e-13
4.53012e-12
4.63007e-12
8.72276e-13
7.01945e-13
5.71144e-13
4.3557e-13
2.95756e-13
1.31464e-13
9.27831e-13
9.32031e-13
2.44438e-09
7.79423e-11
1.44142e-12
7.1805e-13
5.99966e-13
4.76437e-13
3.47622e-13
1.91694e-13
8.7376e-13
8.89787e-13
5.69764e-07
1.94392e-08
6.01213e-10
8.65212e-12
6.35597e-13
5.1345e-13
3.94398e-13
2.48146e-13
8.27062e-13
8.62378e-13
5.3438e-12
5.12909e-12
4.73071e-13
5.97301e-13
5.09999e-13
4.40208e-13
4.01036e-13
4.25384e-13
1.20531e-12
9.69412e-13
5.28675e-12
5.13548e-12
4.23209e-13
5.37474e-13
4.57016e-13
3.92583e-13
3.55338e-13
3.87617e-13
1.26726e-12
1.04216e-12
5.23426e-12
5.14157e-12
3.85652e-13
4.8463e-13
4.098e-13
3.47554e-13
3.12383e-13
3.45875e-13
1.22576e-12
1.01987e-12
5.18281e-12
5.14128e-12
3.61504e-13
4.39709e-13
3.69349e-13
3.09663e-13
2.73825e-13
3.07285e-13
1.18632e-12
9.97881e-13
5.13275e-12
5.13603e-12
3.49821e-13
4.04034e-13
3.38299e-13
2.79134e-13
2.408e-13
2.71611e-13
1.14869e-12
9.77381e-13
5.08479e-12
5.12755e-12
3.47521e-13
3.76098e-13
3.12947e-13
2.54518e-13
2.1357e-13
2.40529e-13
1.11328e-12
9.57852e-13
5.03846e-12
5.11616e-12
3.51133e-13
3.54833e-13
2.95164e-13
2.37399e-13
1.93523e-13
2.12476e-13
1.07942e-12
9.39862e-13
5.17655e-12
5.10628e-12
3.58336e-13
3.38957e-13
2.8277e-13
2.262e-13
1.78527e-13
1.89814e-13
1.04792e-12
9.21723e-13
2.54426e-09
7.24327e-11
1.20353e-12
3.2751e-13
2.74896e-13
2.20516e-13
1.71572e-13
1.72256e-13
1.01679e-12
9.04705e-13
6.99692e-07
1.99739e-08
4.73498e-10
6.66953e-12
2.54728e-13
2.22446e-13
1.74747e-13
1.66522e-13
9.88517e-13
9.32212e-13
5.34814e-12
5.10011e-12
4.59729e-13
6.21972e-13
5.39628e-13
4.65826e-13
4.12726e-13
4.17375e-13
1.139e-12
9.25769e-13
5.29098e-12
5.10845e-12
3.87277e-13
5.53107e-13
4.8278e-13
4.1797e-13
3.72237e-13
3.87877e-13
1.21023e-12
1.00201e-12
5.23877e-12
5.11768e-12
3.27495e-13
4.90427e-13
4.29576e-13
3.72134e-13
3.32195e-13
3.51321e-13
1.17653e-12
9.8312e-13
5.18769e-12
5.11991e-12
2.83071e-13
4.34475e-13
3.81804e-13
3.31008e-13
2.95469e-13
3.17856e-13
1.14432e-12
9.64476e-13
5.13842e-12
5.11781e-12
2.55599e-13
3.87752e-13
3.41229e-13
2.94891e-13
2.62331e-13
2.86238e-13
1.11341e-12
9.47305e-13
5.09104e-12
5.11167e-12
2.43373e-13
3.48581e-13
3.06926e-13
2.64013e-13
2.32971e-13
2.56993e-13
1.08399e-12
9.30915e-13
5.04533e-12
5.10273e-12
2.42958e-13
3.1611e-13
2.78505e-13
2.38396e-13
2.0806e-13
2.3061e-13
1.05565e-12
9.1567e-13
5.1835e-12
5.09482e-12
2.50812e-13
2.9021e-13
2.56037e-13
2.17815e-13
1.86508e-13
2.06977e-13
1.02893e-12
9.00626e-13
2.54426e-09
7.24326e-11
1.17043e-12
2.69499e-13
2.37681e-13
2.01988e-13
1.71158e-13
1.87009e-13
1.00266e-12
8.86312e-13
6.99692e-07
1.99739e-08
4.73478e-10
6.64451e-12
1.96854e-13
1.94662e-13
1.65694e-13
1.76546e-13
9.77715e-13
9.28591e-13
4.747e-12
4.77563e-12
6.52827e-13
5.11549e-13
3.3354e-13
2.27075e-13
2.61693e-13
4.12038e-13
1.20578e-12
1.13499e-12
4.68456e-12
4.76171e-12
6.7556e-13
5.19173e-13
3.36135e-13
1.94207e-13
1.82241e-13
3.29826e-13
1.227e-12
1.16096e-12
4.6249e-12
4.74401e-12
6.97064e-13
5.34502e-13
3.566e-13
1.97611e-13
1.18589e-13
2.45557e-13
1.15062e-12
1.09884e-12
4.5669e-12
4.72116e-12
7.16186e-13
5.52742e-13
3.85004e-13
2.25043e-13
9.05178e-14
1.67357e-13
1.08125e-12
1.04185e-12
4.5113e-12
4.69461e-12
7.34003e-13
5.7245e-13
4.16941e-13
2.63796e-13
1.15195e-13
9.92458e-14
1.01776e-12
9.89821e-13
4.45808e-12
4.66531e-12
7.48794e-13
5.92034e-13
4.49473e-13
3.06153e-13
1.62085e-13
5.34772e-14
9.60799e-13
9.43255e-13
4.40703e-12
4.63429e-12
7.60806e-13
6.1028e-13
4.80557e-13
3.48105e-13
2.12726e-13
7.03041e-14
9.09902e-13
9.01314e-13
4.54858e-12
4.60499e-12
7.69953e-13
6.26757e-13
5.09376e-13
3.87344e-13
2.61411e-13
1.18768e-13
8.65343e-13
8.6411e-13
2.44438e-09
7.79431e-11
1.37344e-12
6.41388e-13
5.35348e-13
4.24131e-13
3.07441e-13
1.70435e-13
8.26979e-13
8.31983e-13
5.69764e-07
1.94393e-08
6.01172e-10
8.60384e-12
5.65843e-13
4.57745e-13
3.50164e-13
2.21201e-13
7.94112e-13
8.24467e-13
3.81032e-12
4.22261e-12
9.83876e-13
6.55715e-13
3.9518e-13
2.18628e-13
3.32616e-13
6.07325e-13
1.48477e-12
1.70126e-12
3.74136e-12
4.17223e-12
1.03363e-12
7.33872e-13
4.98586e-13
3.07804e-13
2.91409e-13
4.86256e-13
1.39359e-12
1.61533e-12
3.67229e-12
4.11337e-12
1.06426e-12
7.94044e-13
5.83659e-13
3.97525e-13
3.04175e-13
3.90735e-13
1.2203e-12
1.45224e-12
3.60546e-12
4.05201e-12
1.08368e-12
8.39841e-13
6.52548e-13
4.77619e-13
3.50651e-13
3.34615e-13
1.06416e-12
1.30488e-12
3.54241e-12
3.98961e-12
1.09522e-12
8.76205e-13
7.0943e-13
5.47866e-13
4.0983e-13
3.2301e-13
9.25028e-13
1.17255e-12
3.48276e-12
3.92757e-12
1.09963e-12
9.02901e-13
7.55893e-13
6.094e-13
4.71734e-13
3.45024e-13
8.03026e-13
1.05434e-12
3.42606e-12
3.86602e-12
1.09914e-12
9.22832e-13
7.93087e-13
6.6158e-13
5.30096e-13
3.87445e-13
6.98073e-13
9.5121e-13
3.5753e-12
3.80841e-12
1.09379e-12
9.36477e-13
8.23631e-13
7.05776e-13
5.83777e-13
4.37394e-13
6.11121e-13
8.60691e-13
2.25201e-09
8.28957e-11
1.47042e-12
9.46323e-13
8.47515e-13
7.43061e-13
6.31005e-13
4.88502e-13
5.4102e-13
7.84009e-13
3.58826e-07
4.61406e-08
1.0116e-09
1.11575e-11
8.62704e-13
7.72276e-13
6.71564e-13
5.35434e-13
4.89205e-13
7.27113e-13
2.85388e-12
3.54939e-12
1.28039e-12
1.03656e-12
8.7578e-13
7.89396e-13
8.62662e-13
1.14575e-12
2.1815e-12
2.99754e-12
2.78128e-12
3.46451e-12
1.30113e-12
1.08957e-12
9.45756e-13
8.45569e-13
8.47738e-13
1.00826e-12
1.90068e-12
2.66885e-12
2.70502e-12
3.36818e-12
1.2981e-12
1.1177e-12
9.94411e-13
8.9518e-13
8.55192e-13
9.1546e-13
1.56669e-12
2.28781e-12
2.63332e-12
3.27403e-12
1.28578e-12
1.13148e-12
1.02821e-12
9.37854e-13
8.77698e-13
8.68943e-13
1.27212e-12
1.95526e-12
2.56645e-12
3.1826e-12
1.26669e-12
1.13648e-12
1.05101e-12
9.72578e-13
9.07685e-13
8.54681e-13
1.01783e-12
1.6654e-12
2.50361e-12
3.09448e-12
1.24337e-12
1.13326e-12
1.06479e-12
9.99788e-13
9.38608e-13
8.60973e-13
7.97526e-13
1.4131e-12
2.44538e-12
3.00984e-12
1.21699e-12
1.12485e-12
1.07087e-12
1.01823e-12
9.65808e-13
8.78161e-13
6.0655e-13
1.19498e-12
2.606e-12
2.93143e-12
1.18852e-12
1.11127e-12
1.07125e-12
1.03104e-12
9.87132e-13
8.99833e-13
4.41224e-13
1.0074e-12
1.99173e-09
8.12283e-11
1.36217e-12
1.09536e-12
1.06599e-12
1.03717e-12
1.00373e-12
9.21473e-13
3.01239e-13
8.47581e-13
1.26128e-07
6.75546e-08
1.14294e-09
8.07864e-12
1.02913e-12
1.03603e-12
1.01334e-12
9.37958e-13
1.75184e-13
7.15066e-13
2.06768e-12
2.8815e-12
1.44686e-12
1.38344e-12
1.38463e-12
1.44564e-12
1.64378e-12
2.1091e-12
3.76205e-12
6.2772e-12
1.99344e-12
2.77059e-12
1.42015e-12
1.37892e-12
1.392e-12
1.4444e-12
1.5814e-12
1.88035e-12
3.12069e-12
5.26992e-12
1.91527e-12
2.64944e-12
1.37103e-12
1.3488e-12
1.37462e-12
1.42679e-12
1.53057e-12
1.7157e-12
2.4932e-12
4.31654e-12
1.84328e-12
2.53496e-12
1.31886e-12
1.31166e-12
1.34795e-12
1.40531e-12
1.49536e-12
1.60659e-12
1.97457e-12
3.53082e-12
1.77735e-12
2.42766e-12
1.26546e-12
1.27065e-12
1.31627e-12
1.37942e-12
1.46667e-12
1.53533e-12
1.55051e-12
2.88519e-12
1.7165e-12
2.32702e-12
1.21284e-12
1.22652e-12