/*--------------------------------*- C++ -*----------------------------------*\
| =========                 |                                                 |
| \\      /  F ield         | OpenFOAM: The Open Source CFD Toolbox           |
|  \\    /   O peration     | Version:  4.1                                   |
|   \\  /    A nd           | Web:      www.OpenFOAM.org                      |
|    \\/     M anipulation  |                                                 |
\*---------------------------------------------------------------------------*/
FoamFile
{
    version     2.0;
    format      ascii;
    class       surfaceScalarField;
    location    "0.66";
    object      phi;
}
// * * * * * * * * * * * * * * * * * * * * * * * * * * * * * * * * * * * * * //

dimensions      [1 0 -1 0 0 0 0];

internalField   nonuniform List<scalar> 
51500
(
3.64593e-13
1.65259e-14
1.44e-11
-1.24385e-15
2.10727e-14
1.4238e-11
-2.8684e-15
1.97387e-14
1.40771e-11
-2.77163e-15
1.83232e-14
1.39187e-11
-2.66978e-15
1.68676e-14
1.37619e-11
-2.61405e-15
1.53863e-14
1.3607e-11
-2.70381e-15
1.39178e-14
1.34537e-11
-2.63917e-15
1.24752e-14
1.33035e-11
-2.67845e-15
1.10212e-14
1.31553e-11
9.58248e-15
1.30116e-11
-7.6111e-17
3.66841e-13
1.01135e-14
1.80039e-11
-1.09367e-14
1.05831e-14
1.73743e-11
-1.02618e-14
9.01142e-15
1.67654e-11
-1.00544e-14
7.5185e-15
1.61822e-11
-9.74651e-15
6.15623e-15
1.56243e-11
-9.39619e-15
4.93828e-15
1.50893e-11
-9.13572e-15
4.25397e-15
1.45759e-11
-8.88288e-15
3.27976e-15
1.40841e-11
-8.6277e-15
2.01052e-15
1.36111e-11
8.31685e-16
1.31665e-11
-8.3245e-16
3.65061e-13
1.12509e-14
2.27793e-11
-2.42688e-14
1.26338e-14
2.14037e-11
-2.03708e-14
1.04272e-14
2.01152e-11
-1.93056e-14
8.46116e-15
1.89201e-11
-1.82566e-14
6.71142e-15
1.78089e-11
-1.74451e-14
5.15204e-15
1.67766e-11
-1.65019e-14
3.77946e-15
1.58178e-11
-1.57901e-14
2.54616e-15
1.49233e-11
-1.50722e-14
1.46686e-15
1.40905e-11
5.53174e-16
1.33248e-11
-1.52721e-15
3.56727e-13
1.47949e-14
2.9192e-11
-4.30012e-14
1.55515e-14
2.66292e-11
-3.36318e-14
1.24917e-14
2.43206e-11
-3.11439e-14
9.8409e-15
2.22423e-11
-2.88267e-14
7.60678e-15
2.03785e-11
-2.67757e-14
5.70624e-15
1.87016e-11
-2.48995e-14
4.09297e-15
1.71901e-11
-2.32019e-14
2.70407e-15
1.5825e-11
-2.16e-14
1.5198e-15
1.45899e-11
5.34063e-16
1.34855e-11
-2.31109e-15
3.3654e-13
1.98408e-14
3.79377e-11
-6.89385e-14
1.94725e-14
3.34899e-11
-5.1535e-14
1.51091e-14
2.96419e-11
-4.62752e-14
1.15517e-14
2.63044e-11
-4.17236e-14
8.67775e-15
2.34153e-11
-3.77556e-14
6.34398e-15
2.09032e-11
-3.43761e-14
4.4271e-15
1.8712e-11
-3.13349e-14
2.86556e-15
1.67952e-11
-2.85541e-14
1.58157e-15
1.51118e-11
5.5909e-16
1.36494e-11
-3.09214e-15
2.95798e-13
2.72236e-14
5.00607e-11
-1.33515e-13
2.48528e-14
4.26142e-11
-7.55816e-14
1.85517e-14
3.64463e-11
-6.57619e-14
1.36682e-14
3.13046e-11
-5.75863e-14
9.95179e-15
2.70211e-11
-5.08095e-14
7.06259e-15
2.34292e-11
-4.5051e-14
4.81518e-15
2.04027e-11
-4.01673e-14
3.03875e-15
1.78394e-11
-3.58109e-14
1.64856e-15
1.56569e-11
5.69082e-16
1.38163e-11
-3.96384e-15
2.15705e-13
4.76812e-14
6.71429e-11
-2.12142e-13
4.04546e-14
5.49322e-11
-1.08645e-13
2.89032e-14
4.52333e-11
-9.10079e-14
2.051e-14
3.75087e-11
-7.72502e-14
1.44403e-14
3.13262e-11
-6.61537e-14
9.9746e-15
2.63376e-11
-5.72146e-14
6.632e-15
2.22831e-11
-4.97786e-14
4.13173e-15
1.89641e-11
-4.35358e-14
2.22313e-15
1.62275e-11
7.61308e-16
1.3986e-11
-4.81538e-15
1.31887e-13
-3.65753e-13
9.17249e-11
-3.13089e-13
-4.06291e-13
7.17915e-11
-1.53338e-13
-4.24004e-13
5.67125e-11
-1.23306e-13
-4.35326e-13
4.52671e-11
-1.00946e-13
-4.42824e-13
3.6498e-11
-8.38126e-14
-4.47752e-13
2.97047e-11
-7.03652e-14
-4.5095e-13
2.4387e-11
-5.97442e-14
-4.53e-13
2.01848e-11
-5.08556e-14
-4.5429e-13
1.68307e-11
-4.61947e-13
1.41672e-11
-5.75993e-15
3.22897e-12
-8.29823e-10
1.68213e-10
2.73759e-12
-8.9334e-10
1.29905e-10
2.47904e-12
-8.9974e-10
1.04022e-10
2.24966e-12
-9.04475e-10
8.51695e-11
2.0463e-12
-9.08252e-10
7.12886e-11
1.86667e-12
-9.11297e-10
6.09151e-11
1.70792e-12
-9.13772e-10
5.30666e-11
1.56735e-12
-9.15799e-10
4.70618e-11
1.41142e-12
-9.17547e-10
4.24189e-11
-9.37969e-10
3.92101e-11
-6.73008e-15
-3.73583e-10
1.48246e-07
-8.43877e-07
3.13264e-10
1.25915e-07
-9.36621e-07
3.39421e-10
1.10343e-07
-9.38675e-07
3.29836e-10
9.73879e-08
-9.40192e-07
3.19536e-10
8.65025e-08
-9.41519e-07
3.09036e-10
7.72876e-08
-9.42694e-07
2.98601e-10
6.943e-08
-9.43747e-07
2.83757e-10
6.2684e-08
-9.447e-07
1.10221e-10
5.68616e-08
-9.45657e-07
5.286e-08
-7.78652e-15
-9.85683e-07
3.41614e-13
8.90649e-14
6.48213e-13
-1.8221e-14
8.40439e-14
6.37158e-13
-2.53187e-14
7.40791e-14
6.26931e-13
-2.45011e-14
6.44174e-14
6.15063e-13
-2.40775e-14
5.50924e-14
6.04564e-13
-2.38973e-14
4.60575e-14
5.94813e-13
-2.37937e-14
3.73266e-14
5.83677e-13
-2.35572e-14
2.89009e-14
5.742e-13
-2.55194e-14
2.06966e-14
5.64504e-13
1.29236e-14
5.54361e-13
-1.58619e-15
2.85013e-13
8.33084e-14
8.9858e-13
-7.00241e-14
7.58081e-14
8.53291e-13
-8.49445e-14
6.41864e-14
8.1041e-13
-8.17381e-14
5.30949e-14
7.68491e-13
-7.95091e-14
4.22947e-14
7.29483e-13
-7.73292e-14
2.9653e-14
6.92019e-13
-7.50856e-14
2.07896e-14
6.5812e-13
-7.39383e-14
1.36295e-14
6.24937e-13
-7.77864e-14
7.58161e-15
5.95139e-13
2.54474e-15
5.64896e-13
-4.2787e-15
2.00685e-13
1.05213e-13
1.26698e-12
-1.77127e-13
9.38403e-14
1.15562e-12
-1.61238e-13
7.84994e-14
1.0596e-12
-1.52876e-13
6.43555e-14
9.66271e-13
-1.45501e-13
5.16216e-14
8.84374e-13
-1.3879e-13
4.00699e-14
8.09996e-13
-1.32662e-13
2.96096e-14
7.43167e-13
-1.27326e-13
2.01941e-14
6.82421e-13
-1.32801e-13
1.17092e-14
6.26811e-13
4.18069e-15
5.77145e-13
-6.84544e-15
7.95955e-14
1.2903e-13
1.81978e-12
-3.06635e-13
1.11869e-13
1.5921e-12
-2.59645e-13
9.14237e-14
1.4008e-12
-2.40337e-13
7.33361e-14
1.22808e-12
-2.24378e-13
5.75364e-14
1.08011e-12
-2.09811e-13
4.37302e-14
9.52497e-13
-1.96406e-13
3.17116e-14
8.42724e-13
-1.84886e-13
2.1228e-14
7.47844e-13
-1.89317e-13
1.20685e-14
6.62597e-13
4.17846e-15
5.88369e-13
-9.81029e-15
-4.16539e-14
1.59998e-13
2.66947e-12
-4.70562e-13
1.34531e-13
2.2318e-12
-3.85375e-13
1.07284e-13
1.87715e-12
-3.4856e-13
8.39631e-14
1.57557e-12
-3.18387e-13
6.43424e-14
1.32923e-12
-2.91236e-13
4.78435e-14
1.12694e-12
-2.67119e-13
3.39446e-14
9.59148e-13
-2.46792e-13
2.22618e-14
8.19242e-13
-2.48081e-13
1.2411e-14
7.0158e-13
4.26529e-15
6.01903e-13
-1.28981e-14
-1.7726e-13
2.00135e-13
4.01091e-12
-6.84108e-13
1.63916e-13
3.18199e-12
-5.46728e-13
1.26867e-13
2.5493e-12
-4.82384e-13
9.6728e-14
2.04005e-12
-4.30204e-13
7.22867e-14
1.64696e-12
-3.84898e-13
5.24487e-14
1.339e-12
-3.45551e-13
3.64033e-14
1.09616e-12
-3.13078e-13
2.33562e-14
9.02136e-13
-3.08927e-13
1.28249e-14
7.46222e-13
4.25885e-15
6.17054e-13
-1.5889e-14
-5.88802e-13
2.55167e-13
6.17923e-12
-9.68726e-13
2.11058e-13
4.62943e-12
-7.53419e-13
1.59071e-13
3.51143e-12
-6.47838e-13
1.18537e-13
2.66714e-12
-5.63561e-13
8.70219e-14
2.05494e-12
-4.92276e-13
6.2405e-14
1.59883e-12
-4.32603e-13
4.29814e-14
1.25555e-12
-3.83495e-13
2.75601e-14
9.95853e-13
-3.72363e-13
1.49525e-14
7.92539e-13
3.86758e-15
6.33841e-13
-1.89e-14
-1.08991e-12
3.07773e-13
9.7943e-12
-1.34959e-12
2.11799e-13
6.8825e-12
-1.01938e-12
1.48195e-13
4.91196e-12
-8.52045e-13
1.01676e-13
3.53148e-12
-7.21622e-13
6.73735e-14
2.58565e-12
-6.15706e-13
4.17047e-14
1.91998e-12
-5.2835e-13
2.23145e-14
1.44647e-12
-4.59272e-13
7.50831e-15
1.1012e-12
-4.37649e-13
-3.88416e-15
8.4548e-13
-1.27175e-14
6.51328e-13
-2.20154e-14
-1.92745e-12
4.64255e-12
1.92985e-11
-1.24455e-12
-4.19094e-11
1.0259e-11
-9.54398e-13
-3.81799e-11
7.00993e-12
-8.00015e-13
-3.49577e-11
4.96108e-12
-6.83714e-13
-3.24465e-11
3.6612e-12
-5.93589e-13
-3.04764e-11
2.81068e-12
-5.24991e-13
-2.89279e-11
2.24003e-12
-5.17302e-13
-2.77101e-11
1.84792e-12
-5.68274e-13
-2.67582e-11
1.56774e-12
-2.62956e-11
1.3632e-12
-2.52016e-14
-9.68137e-10
1.3933e-08
8.72829e-08
-2.80643e-10
7.3472e-09
-1.70458e-09
-3.27628e-10
5.52925e-09
-1.97008e-09
-3.18834e-10
4.25217e-09
-1.9532e-09
-3.09359e-10
3.32158e-09
-1.92621e-09
-2.99638e-10
2.63128e-09
-1.89495e-09
-2.89926e-10
2.11122e-09
-1.86224e-09
-2.80448e-10
1.71389e-09
-1.83006e-09
-2.76194e-10
1.40667e-09
-1.80617e-09
1.17917e-09
-2.85937e-14
-2.22979e-09
3.43841e-13
8.21822e-14
2.35554e-14
-1.65742e-14
7.80145e-14
2.19107e-14
-2.24754e-14
6.88125e-14
2.04582e-14
-2.03045e-14
5.99455e-14
1.89137e-14
-1.86603e-14
5.13666e-14
1.69582e-14
-2.03726e-14
4.30161e-14
1.48017e-14
-1.90363e-14
3.5043e-14
1.39931e-14
-1.9474e-14
2.72716e-14
1.29903e-14
-2.35122e-14
1.97653e-14
1.20955e-14
1.26354e-14
1.21295e-14
-1.31666e-15
2.92496e-13
5.94707e-14
3.78546e-14
-6.48684e-14
5.45854e-14
3.40925e-14
-7.24452e-14
4.62895e-14
3.30768e-14
-6.72064e-14
3.83357e-14
2.81961e-14
-6.61036e-14
3.09478e-14
2.48076e-14
-6.25546e-14
2.41374e-14
2.29239e-14
-6.18898e-14
1.78179e-14
1.85996e-14
-6.10569e-14
1.20621e-14
1.66213e-14
-7.13478e-14
6.86582e-15
1.55859e-14
2.42119e-15
1.40357e-14
-4.4359e-15
2.13817e-13
7.60811e-14
5.73781e-14
-1.65394e-13
6.875e-14
5.17033e-14
-1.37635e-13
5.7881e-14
4.92619e-14
-1.25635e-13
4.79106e-14
4.29846e-14
-1.19577e-13
3.88754e-14
3.66171e-14
-1.13026e-13
3.06374e-14
3.07669e-14
-1.07997e-13
2.37001e-14
2.63415e-14
-1.05959e-13
1.65402e-14
2.32974e-14
-1.21249e-13
9.59205e-15
2.00993e-14
3.32621e-15
1.67629e-14
-7.24052e-15
9.27701e-14
9.45938e-14
9.17809e-14
-2.89254e-13
8.28344e-14
8.39091e-14
-2.20944e-13
6.8034e-14
7.7565e-14
-1.96914e-13
5.5018e-14
6.41246e-14
-1.83494e-13
4.36993e-14
5.35674e-14
-1.70343e-13
3.41245e-14
4.52074e-14
-1.56561e-13
2.57957e-14
3.80596e-14
-1.53855e-13
1.71707e-14
3.20964e-14
-1.73194e-13
9.82762e-15
2.86893e-14
3.49322e-15
2.17058e-14
-1.03995e-14
-2.53238e-14
1.19345e-13
1.55827e-13
-4.46563e-13
1.00622e-13
1.37518e-13
-3.27169e-13
8.05985e-14
1.22744e-13
-2.72647e-13
6.34416e-14
9.9391e-14
-2.49001e-13
4.9135e-14
8.01662e-14
-2.26251e-13
3.73866e-14
6.53566e-14
-2.05753e-13
2.79121e-14
5.44245e-14
-2.03331e-13
1.84683e-14
4.65037e-14
-2.27001e-13
1.0447e-14
3.96728e-14
3.64219e-15
2.9134e-14
-1.31388e-14
-1.62022e-13
1.5225e-13
2.6945e-13
-6.52466e-13
1.24538e-13
2.33267e-13
-4.59026e-13
9.63648e-14
1.95838e-13
-3.69476e-13
7.36325e-14
1.52262e-13
-3.28777e-13
5.56166e-14
1.20156e-13
-2.91751e-13
4.11682e-14
9.56564e-14
-2.60719e-13
2.97629e-14
7.78155e-14
-2.54224e-13
1.93849e-14
6.48717e-14
-2.83028e-13
1.05141e-14
5.15852e-14
3.61658e-15
3.71309e-14
-1.6479e-14
-5.7693e-13
1.91802e-13
4.74214e-13
-9.29863e-13
1.54832e-13
3.93639e-13
-5.92207e-13
1.1589e-13
3.10981e-13
-4.91524e-13
8.60277e-14
2.34169e-13
-4.26217e-13
6.3113e-14
1.77855e-13
-3.69434e-13
4.60506e-14
1.37711e-13
-3.21386e-13
3.28859e-14
1.09633e-13
-2.96641e-13
2.07347e-14
8.72438e-14
-3.409e-13
1.13329e-14
7.04249e-14
4.00346e-15
4.73674e-14
-1.96384e-14
-1.10491e-12
3.25894e-13
8.58751e-13
-1.30487e-12
2.2415e-13
6.68316e-13
-7.91136e-13
1.57507e-13
4.97245e-13
-6.45474e-13
1.10194e-13
3.55004e-13
-5.42595e-13
7.63289e-14
2.60726e-13
-4.58052e-13
5.1752e-14
1.95857e-13
-3.90517e-13
3.37232e-14
1.48841e-13
-3.44205e-13
2.04459e-14
1.16105e-13
-4.01094e-13
1.05604e-14
9.26559e-14
3.29835e-15
5.89897e-14
-2.29554e-14
-2.20545e-12
4.86652e-11
5.46677e-12
-1.76695e-12
1.06345e-12
1.01248e-12
-1.05425e-12
4.04315e-13
6.8041e-13
-8.39377e-13
1.75649e-13
4.74909e-13
-6.85645e-13
7.56326e-15
3.43754e-13
-5.65965e-13
-1.14762e-13
2.56838e-13
-4.71674e-13
-2.03672e-13
1.9739e-13
-4.0632e-13
-2.67613e-13
1.55263e-13
-4.70904e-13
-3.12879e-13
1.24947e-13
-3.41004e-13
8.49046e-14
-2.63121e-14
-6.09224e-10
5.71554e-09
7.78914e-08
-3.87081e-11
3.39025e-10
1.57158e-10
-3.8967e-11
1.82497e-10
-5.93097e-11
-3.28095e-11
1.21138e-10
-4.77969e-11
-2.76888e-11
8.28009e-11
-3.70651e-11
-2.35619e-11
5.78999e-11
-2.77602e-11
-2.02e-11
4.13628e-11
-2.02643e-11
-1.74438e-11
3.01257e-11
-1.66319e-11
-1.51714e-11
2.23312e-11
-1.37818e-11
1.66909e-11
-2.98251e-14
-1.15218e-11
3.4405e-13
8.11324e-14
1.06374e-14
-1.65266e-14
7.70951e-14
9.56996e-15
-2.207e-14
6.80419e-14
7.98227e-15
-1.9911e-14
5.92645e-14
6.38857e-15
-1.87951e-14
5.08184e-14
4.74008e-15
-1.9552e-14
4.26417e-14
3.87731e-15
-1.81496e-14
3.471e-14
2.23826e-15
-1.91964e-14
2.70471e-14
1.15784e-15
-2.30768e-14
1.96658e-14
7.62162e-16
1.26217e-14
4.36599e-16
-1.56711e-15
2.93666e-13
5.81949e-14
1.79259e-14
-6.40692e-14
5.34973e-14
1.55741e-14
-7.12173e-14
4.53686e-14
1.60999e-14
-6.44679e-14
3.76703e-14
1.28605e-14
-6.1975e-14
3.04313e-14
9.45954e-15
-6.20281e-14
2.36995e-14
7.01062e-15
-5.88687e-14
1.75662e-14
5.88881e-15
-5.89302e-14
1.19272e-14
4.54651e-15
-7.0371e-14
6.79366e-15
3.78134e-15
2.42031e-15
2.18062e-15
-4.36912e-15
2.16665e-13
7.39656e-14
2.61178e-14
-1.6301e-13
6.69201e-14
2.44793e-14
-1.33166e-13
5.62231e-14
2.58701e-14
-1.16829e-13
4.62792e-14
1.99304e-14
-1.13733e-13
3.73722e-14
1.65259e-14
-1.03708e-13
2.9338e-14
1.37169e-14
-9.85306e-14
2.18169e-14
1.07741e-14
-1.03255e-13
1.50132e-14
8.93786e-15
-1.19591e-13
9.39177e-15
7.69473e-15
3.09169e-15
5.71928e-15
-7.12733e-15
9.64945e-14
9.19747e-14
4.29847e-14
-2.85193e-13
8.04682e-14
4.25065e-14
-2.13347e-13
6.60092e-14
4.45716e-14
-1.7918e-13
5.32874e-14
3.64834e-14
-1.6704e-13
4.20429e-14
2.97669e-14
-1.55627e-13
3.21789e-14
2.49884e-14
-1.44501e-13
2.35562e-14
2.06449e-14
-1.47658e-13
1.59652e-14
1.75753e-14
-1.71064e-13
9.58556e-15
1.48153e-14
3.59263e-15
1.03023e-14
-1.04918e-14
-1.9404e-14
1.15909e-13
7.51888e-14
-4.39768e-13
9.7869e-14
7.78059e-14
-3.04027e-13
7.82147e-14
7.61703e-14
-2.58333e-13
6.13359e-14
6.12801e-14
-2.34969e-13
4.73265e-14
5.12264e-14
-2.1384e-13
3.5503e-14
4.20443e-14
-1.949e-13
2.55866e-14
3.48683e-14
-1.94127e-13
1.77277e-14
3.0446e-14
-2.24133e-13
9.53237e-15
2.73349e-14
3.55476e-15
1.76254e-14
-1.3345e-14
-1.53545e-13
1.47779e-13
1.34499e-13
-6.42003e-13
1.20923e-13
1.37187e-13
-4.15966e-13
9.34038e-14
1.28979e-13
-3.54784e-13
7.13063e-14
1.0372e-13
-3.15754e-13
5.35269e-14
8.40122e-14
-2.80414e-13
3.90893e-14
6.96621e-14
-2.50103e-13
2.74355e-14
5.76474e-14
-2.36494e-13
1.78632e-14
4.80412e-14
-2.79212e-13
1.04935e-14
4.23811e-14
3.68766e-15
2.73589e-14
-1.67e-14
-5.57786e-13
1.87011e-13
2.39992e-13
-9.13625e-13
1.5059e-13
2.45463e-13
-5.65838e-13
1.12689e-13
2.13577e-13
-4.7524e-13
8.33432e-14
1.68192e-13
-4.11798e-13
6.08528e-14
1.33377e-13
-3.56821e-13
4.34604e-14
1.08006e-13
-3.11825e-13
2.97161e-14
8.70149e-14
-2.81699e-13
1.90404e-14
7.33917e-14
-3.36916e-13
1.09036e-14
6.17868e-14
3.4177e-15
3.95475e-14
-1.98923e-14
-1.07614e-12
3.19756e-13
4.34798e-13
-1.27878e-12
1.77842e-13
4.28282e-13
-7.63973e-13
1.86513e-13
3.49564e-13
-6.25409e-13
1.31353e-13
2.66306e-13
-5.26049e-13
9.15025e-14
2.05313e-13
-4.45225e-13
6.26416e-14
1.60603e-13
-3.79644e-13
4.14783e-14
1.28975e-13
-3.32232e-13
2.58191e-14
1.04925e-13
-3.97042e-13
1.40376e-14
8.58517e-14
5.23711e-15
5.60381e-14
-2.29268e-14
-2.16848e-12
4.97067e-11
8.07127e-12
-1.72184e-12
7.11837e-13
7.9307e-13
-1.02298e-12
2.43622e-13
5.67859e-13
-8.13775e-13
1.57844e-13
4.17226e-13
-6.63462e-13
1.02062e-13
3.09721e-13
-5.46403e-13
6.42572e-14
2.35611e-13
-4.54419e-13
3.84679e-14
1.81701e-13
-3.88241e-13
2.06934e-14
1.43049e-13
-4.5889e-13
8.36986e-15
1.1297e-13
-3.87851e-17
6.92956e-14
-2.64769e-14
-5.6649e-10
8.26927e-09
7.76743e-08
-6.44456e-12
7.48052e-11
2.36223e-10
-2.30655e-12
5.7262e-12
2.75566e-13
-2.5401e-12
3.20221e-12
-1.14343e-14
-1.94672e-12
1.98554e-12
9.93855e-14
-1.51089e-12
1.28621e-12
1.56375e-13
-1.19119e-12
8.61539e-13
1.83271e-13
-9.56567e-13
5.94992e-13
1.92551e-13
-8.32922e-13
4.1945e-13
1.9203e-13
2.70112e-13
-3.01135e-14
2.71577e-13
3.43935e-13
8.122e-14
1.85275e-14
-1.68831e-14
7.71513e-14
1.56208e-14
-2.20928e-14
6.8133e-14
1.22969e-14
-2.04911e-14
5.93403e-14
7.65148e-15
-1.7265e-14
5.08661e-14
7.57358e-15
-2.00009e-14
4.26447e-14
3.51371e-15
-1.91632e-14
3.4762e-14
5.20989e-15
-1.88567e-14
2.71184e-14
4.38038e-15
-2.3069e-14
1.97049e-14
8.85145e-16
1.26518e-14
2.38983e-16
-1.82428e-15
2.93371e-13
5.82948e-14
2.64378e-14
-6.42294e-14
5.36094e-14
2.66899e-14
-7.14031e-14
4.54358e-14
1.97213e-14
-6.53844e-14
3.76769e-14
1.688e-14
-6.28887e-14
3.04906e-14
1.12795e-14
-6.07003e-14
2.37889e-14
9.43108e-15
-5.93034e-14
1.75981e-14
6.41825e-15
-5.93719e-14
1.19611e-14
7.5858e-15
-7.04389e-14
6.84659e-15
6.23435e-15
2.47984e-15
1.62296e-15
-4.35307e-15
2.16318e-13
7.4109e-14
4.09813e-14
-1.63534e-13
6.70289e-14
3.62938e-14
-1.34385e-13
5.63586e-14
3.53409e-14
-1.1462e-13
4.65123e-14
3.22459e-14
-1.11335e-13
3.74759e-14
2.30871e-14
-1.05021e-13
2.94132e-14
1.68188e-14
-9.83858e-14
2.19988e-14
1.51586e-14
-1.03371e-13
1.51634e-14
1.20696e-14
-1.19489e-13
9.15512e-15
1.31435e-14
3.04848e-15
6.2163e-15
-7.43004e-15
9.61208e-14
9.22394e-14
6.488e-14
-2.85828e-13
8.0777e-14
6.33568e-14
-2.14026e-13
6.6206e-14
6.21318e-14
-1.79643e-13
5.33664e-14
5.03814e-14
-1.66748e-13
4.22102e-14
4.17588e-14
-1.56176e-13
3.22261e-14
3.34957e-14
-1.44384e-13
2.35379e-14
3.09154e-14
-1.48273e-13
1.6109e-14
2.5183e-14
-1.71125e-13
1.00039e-14
2.57965e-14
3.76532e-15
1.98708e-14
-1.01557e-14
-1.99639e-14
1.16364e-13
1.09844e-13
-4.41063e-13
9.81846e-14
1.10061e-13
-3.07567e-13
7.85684e-14
1.07929e-13
-2.57965e-13
6.1686e-14
9.17291e-14
-2.35789e-13
4.75514e-14
7.36233e-14
-2.14497e-13
3.58209e-14
6.42462e-14
-1.94751e-13
2.59734e-14
5.67494e-14
-1.91644e-13
1.73384e-14
4.35923e-14
-2.2465e-13
9.44863e-15
3.5782e-14
3.70555e-15
2.45438e-14
-1.33084e-14
-1.5482e-13
1.4846e-13
1.90072e-13
-6.43784e-13
1.21611e-13
2.02123e-13
-4.17348e-13
9.38985e-14
1.80792e-13
-3.5578e-13
7.17235e-14
1.47472e-13
-3.16132e-13
5.38964e-14
1.20281e-13
-2.8128e-13
3.93753e-14
1.00573e-13
-2.50913e-13
2.75551e-14
7.99335e-14
-2.34942e-13
1.83154e-14
7.26403e-14
-2.79954e-13
1.07406e-14
5.92192e-14
3.78864e-15
3.79156e-14
-1.66095e-14
-5.60994e-13
1.87997e-13
3.38845e-13
-9.17241e-13
1.51529e-13
3.48289e-13
-5.6743e-13
1.13442e-13
3.09572e-13
-4.76927e-13
8.39285e-14
2.36522e-13
-4.12885e-13
6.13332e-14
1.93955e-13
-3.58428e-13
4.37766e-14
1.52803e-13
-3.12299e-13
3.01507e-14
1.27228e-13
-2.82432e-13
1.91655e-14
1.03655e-13
-3.38085e-13
1.11539e-14
8.63304e-14
4.06533e-15
5.5692e-14
-1.98335e-14
-1.0826e-12
3.22974e-13
6.04068e-13
-1.28473e-12
1.83925e-13
6.12046e-13
-7.66982e-13
1.3953e-13
5.02244e-13
-6.28135e-13
1.00922e-13
3.81337e-13
-5.28429e-13
7.23353e-14
2.97239e-13
-4.46922e-13
5.40104e-14
2.35865e-13
-3.81226e-13
3.65648e-14
1.83887e-13
-3.33696e-13
2.3074e-14
1.50644e-13
-3.98552e-13
1.26208e-14
1.23252e-13
4.8487e-15
7.7537e-14
-2.31477e-14
-2.19625e-12
5.20541e-11
1.24596e-11
-1.72894e-12
6.53822e-13
1.15542e-12
-1.0285e-12
1.59999e-13
8.16537e-13
-8.18784e-13
1.71016e-13
5.91862e-13
-6.67084e-13
1.13069e-13
4.44807e-13
-5.49581e-13
7.25868e-14
3.37366e-13
-4.56685e-13
4.35589e-14
2.56604e-13
-3.90399e-13
1.80319e-14
2.07157e-13
-4.613e-13
8.4218e-15
1.63938e-13
3.27134e-15
1.03593e-13
-2.65322e-14
-5.9303e-10
1.31502e-08
8.20105e-08
-4.92797e-12
1.06486e-10
2.61524e-10
-1.35172e-12
1.73981e-12
8.5853e-13
-1.08097e-12
8.95118e-13
1.55822e-13
-8.51755e-13
6.11998e-13
8.50627e-14
-6.78804e-13
4.34068e-13
6.15507e-14
-5.48735e-13
3.1711e-13
4.74276e-14
-4.56193e-13
2.37301e-13
3.74816e-14
-5.30638e-13
1.80572e-13
3.01255e-14
1.11279e-13
-3.00684e-14
2.59335e-14
3.43598e-13
8.13722e-14
2.2141e-14
-1.72165e-14
7.73008e-14
1.4935e-14
-2.27137e-14
6.82042e-14
1.84193e-14
-1.98919e-14
5.94479e-14
1.31638e-14
-1.95677e-14
5.09124e-14
7.67431e-15
-1.92017e-14
4.27133e-14
4.62023e-15
-1.88742e-14
3.47838e-14
2.08741e-15
-1.98065e-14
2.71499e-14
1.34809e-15
-2.30946e-14
1.97739e-14
1.29464e-15
1.26777e-14
1.43564e-15
-1.55908e-15
2.92993e-13
5.84822e-14
3.73918e-14
-6.49041e-14
5.37677e-14
3.38546e-14
-7.086e-14
4.56121e-14
3.209e-14
-6.69498e-14
3.7801e-14
2.09188e-14
-6.14295e-14
3.06178e-14
2.14199e-14
-6.16504e-14
2.38618e-14
1.1954e-14
-5.71634e-14
1.76839e-14
8.28349e-15
-5.93092e-14
1.20192e-14
5.33717e-15
-7.07883e-14
6.90913e-15
4.5392e-15
2.5423e-15
4.7734e-15
-4.36543e-15
2.15642e-13
7.44249e-14
4.762e-14
-1.64533e-13
6.72905e-14
5.11708e-14
-1.34537e-13
5.65693e-14
5.39423e-14
-1.15406e-13
4.66611e-14
4.29145e-14
-1.14658e-13
3.76024e-14
3.17916e-14
-1.03966e-13
2.9542e-14
2.65233e-14
-9.90587e-14
2.21627e-14
1.78154e-14
-1.02924e-13
1.53703e-14
1.84599e-14
-1.19803e-13
9.48214e-15
1.20478e-14
3.44841e-15
8.41773e-15
-7.47688e-15
9.53088e-14
9.2734e-14
9.02164e-14
-2.87157e-13
8.11976e-14
8.76535e-14
-2.14835e-13
6.65732e-14
9.14563e-14
-1.80162e-13
5.37202e-14
7.51768e-14
-1.67782e-13
4.25284e-14
5.8358e-14
-1.5572e-13
3.25619e-14
4.21438e-14
-1.45183e-13
2.37607e-14
3.41821e-14
-1.48268e-13
1.62476e-14
3.17554e-14
-1.71305e-13
9.94752e-15
2.60684e-14
3.52497e-15
1.51959e-14
-1.02837e-14
-2.13872e-14
1.17127e-13
1.56859e-13
-4.43106e-13
9.88794e-14
1.60304e-13
-3.07665e-13
7.90789e-14
1.57312e-13
-2.59075e-13
6.2104e-14
1.26712e-13
-2.36337e-13
4.78681e-14
1.04717e-13
-2.15536e-13
3.61059e-14
8.43027e-14
-1.9523e-13
2.60548e-14
6.1518e-14
-1.93512e-13
1.75792e-14
5.27489e-14
-2.2509e-13
9.89189e-15
4.42537e-14
3.99336e-15
2.80199e-14
-1.32956e-14
-1.56963e-13
1.49706e-13
2.73543e-13
-6.47353e-13
1.22598e-13
2.85607e-13
-4.19043e-13
9.47708e-14
2.6389e-13
-3.57497e-13
7.23643e-14
2.06386e-13
-3.17042e-13
5.44984e-14
1.67892e-13
-2.83254e-13
3.97589e-14
1.27628e-13
-2.5145e-13
2.80432e-14
1.12417e-13
-2.35618e-13
1.84986e-14
8.24244e-14
-2.80962e-13
1.09851e-14
6.90482e-14
3.87278e-15
4.48468e-14
-1.64604e-14
-5.67233e-13
1.89722e-13
4.88649e-13
-9.22766e-13
1.53094e-13
5.02479e-13
-5.71624e-13
1.14609e-13
4.30538e-13
-4.79089e-13
8.49056e-14
3.40394e-13
-4.15578e-13
6.20539e-14
2.655e-13
-3.60145e-13
4.44628e-14
2.10641e-13
-3.1415e-13
3.06695e-14
1.69058e-13
-2.83361e-13
1.96363e-14
1.23949e-13
-3.39669e-13
1.15139e-14
1.03284e-13
4.45471e-15
6.44364e-14
-1.97496e-14
-1.09401e-12
3.27531e-13
8.85256e-13
-1.29444e-12
1.87715e-13
8.79765e-13
-7.72749e-13
1.40531e-13
7.10997e-13
-6.32585e-13
1.01597e-13
5.35447e-13
-5.32047e-13
7.27029e-14
4.07919e-13
-4.5005e-13
5.38795e-14
3.13106e-13
-3.83822e-13
3.68749e-14
2.47115e-13
-3.35775e-13
2.35156e-14
1.79522e-13
-4.00825e-13
1.30156e-14
1.41743e-13
5.17929e-15
8.91374e-14
-2.30504e-14
-2.23468e-12
5.52782e-11
1.62618e-11
-1.74157e-12
6.78944e-13
1.64474e-12
-1.038e-12
1.70684e-13
1.15845e-12
-8.25915e-13
1.65571e-13
8.3811e-13
-6.72881e-13
1.08225e-13
6.13707e-13
-5.54512e-13
6.68809e-14
4.56029e-13
-4.60138e-13
3.15883e-14
3.38113e-13
-3.93676e-13
1.7496e-14
2.60647e-13
-4.64762e-13
9.06457e-15
1.95121e-13
3.7179e-15
1.18381e-13
-2.65567e-14
-6.33353e-10
1.79378e-08
8.83589e-08
-5.0839e-12
1.56968e-10
2.83346e-10
-1.34979e-12
2.37926e-12
9.09373e-13
-1.0666e-12
1.13188e-12
8.759e-14
-8.43486e-13
8.0953e-13
6.41746e-14
-6.74027e-13
5.90595e-13
4.97371e-14
-5.46207e-13
4.34254e-13
3.9258e-14
-4.5484e-13
3.26252e-13
3.15265e-14
-5.31289e-13
2.49004e-13
2.57237e-14
1.47486e-13
-3.02894e-14
2.13463e-14
3.4309e-13
8.1576e-14
2.89395e-14
-1.7462e-14
7.75014e-14
2.81712e-14
-2.33047e-14
6.83247e-14
2.23309e-14
-1.9941e-14
5.95522e-14
1.7784e-14
-1.99438e-14
5.10341e-14
8.26809e-15
-1.98162e-14
4.2803e-14
5.52626e-15
-1.91268e-14
3.48822e-14
5.37661e-15
-1.9533e-14
2.72306e-14
5.71334e-15
-2.3012e-14
1.98482e-14
1.25461e-14
1.27543e-14
3.50057e-14
-1.67184e-15
2.92458e-13
5.86856e-14
5.00389e-14
-6.55181e-14
5.39527e-14
4.5011e-14
-7.15045e-14
4.58005e-14
4.44211e-14
-6.60235e-14
3.79673e-14
3.46776e-14
-6.40971e-14
3.07044e-14
1.92361e-14
-6.11434e-14
2.39776e-14
1.25359e-14
-5.94428e-14
1.77757e-14
9.8124e-15
-5.90089e-14
1.21383e-14
1.0689e-14
-7.07415e-14
6.99304e-15
1.13708e-14
2.60905e-15
2.66849e-14
-4.46193e-15
2.14852e-13
7.48224e-14
7.28814e-14
-1.65603e-13
6.75878e-14
6.87477e-14
-1.35066e-13
5.68282e-14
6.93887e-14
-1.17201e-13
4.68756e-14
5.56485e-14
-1.12104e-13
3.78118e-14
4.33478e-14
-1.05715e-13
2.96313e-14
2.40099e-14
-9.78261e-14
2.23077e-14
1.9902e-14
-1.03787e-13
1.53929e-14
2.12343e-14
-1.19916e-13
9.76435e-15
2.21853e-14
3.31017e-15
2.62845e-14
-7.61132e-15
9.42741e-14
9.33386e-14
1.16652e-13
-2.88612e-13
8.17361e-14
1.19222e-13
-2.15841e-13
6.70183e-14
1.19478e-13
-1.81262e-13
5.41003e-14
9.62455e-14
-1.68534e-13
4.29251e-14
7.80794e-14
-1.56264e-13
3.29809e-14
5.75586e-14
-1.45057e-13
2.40306e-14
3.77333e-14
-1.48244e-13
1.64876e-14
3.29483e-14
-1.71976e-13
9.65297e-15
3.71577e-14
4.07371e-15
3.35796e-14
-1.00946e-14
-2.31282e-14
1.18072e-13
2.02959e-13
-4.45476e-13
9.96964e-14
2.10999e-13
-3.10662e-13
7.975e-14
2.02196e-13
-2.60065e-13
6.26116e-14
1.64204e-13
-2.37235e-13
4.82694e-14
1.32882e-13
-2.16956e-13
3.64245e-14
1.07943e-13
-1.95574e-13
2.64071e-14
6.79787e-14
-1.95778e-13
1.7716e-14
5.52553e-14
-2.25716e-13
1.03806e-14
5.2284e-14
4.23508e-15
4.73813e-14
-1.34211e-14
-1.59695e-13
1.51221e-13
3.61819e-13
-6.5135e-13
1.23802e-13
3.73344e-13
-4.22226e-13
9.57288e-14
3.39795e-13
-3.59311e-13
7.32316e-14
2.73825e-13
-3.18632e-13
5.51982e-14
2.18567e-13
-2.84671e-13
4.03394e-14
1.78745e-13
-2.53107e-13
2.84649e-14
1.12743e-13
-2.36136e-13
1.88603e-14
8.75503e-14
-2.82061e-13
1.14075e-14
7.45494e-14
4.08577e-15
6.5875e-14
-1.65866e-14
-5.74924e-13
1.92316e-13
6.39626e-13
-9.29519e-13
1.54984e-13
6.50803e-13
-5.75511e-13
1.1607e-13
5.62695e-13
-4.82634e-13
8.60143e-14
4.38408e-13
-4.1824e-13
6.2937e-14
3.44743e-13
-3.6245e-13
4.51859e-14
2.75184e-13
-3.16718e-13
3.13771e-14
2.05179e-13
-2.84301e-13
2.0148e-14
1.33712e-13
-3.41633e-13
1.17448e-14
1.06612e-13
4.83186e-15
9.10347e-14
-1.9734e-14
-1.10811e-12
3.29395e-13
1.14587e-12
-1.3058e-12
1.89236e-13
1.12787e-12
-7.79679e-13
1.42815e-13
9.16845e-13
-6.38113e-13
1.03233e-13
6.91383e-13
-5.36472e-13
7.39704e-14
5.27726e-13
-4.53402e-13
5.46189e-14
4.11505e-13
-3.87655e-13
3.76311e-14
3.18135e-13
-3.38227e-13
2.42094e-14
1.96676e-13
-4.03655e-13
1.36424e-14
1.50422e-13
5.65868e-15
9.84632e-14
-2.31356e-14
-2.24299e-12
5.41896e-11
1.5791e-11
-1.76288e-12
6.44422e-13
2.04093e-12
-1.04965e-12
1.6674e-13
1.49665e-12
-8.34706e-13
1.6881e-13
1.07917e-12
-6.79994e-13
1.10594e-13
7.98741e-13
-5.60062e-13
6.87669e-14
6.0139e-13
-4.65285e-13
3.26935e-14
4.58339e-13
-3.97174e-13
1.81716e-14
2.80326e-13
-4.69141e-13
9.51545e-15
2.06481e-13
4.17878e-15
1.25776e-13
-2.66159e-14
-6.28533e-10
1.81095e-08
9.22222e-08
-4.82395e-12
1.29942e-10
2.76608e-10
-1.35694e-12
2.84287e-12
7.43026e-13
-1.08042e-12
1.6462e-12
8.53722e-14
-8.5386e-13
1.17908e-12
6.40762e-14
-6.82229e-13
8.57066e-13
5.01007e-14
-5.53267e-13
6.33641e-13
3.98428e-14
-4.6008e-13
4.42774e-13
3.22888e-14
-5.3742e-13
2.76505e-13
2.65057e-14
1.61066e-13
-3.01996e-14
2.23261e-14
3.42802e-13
8.17694e-14
2.13911e-14
-1.81238e-14
7.75497e-14
5.90265e-15
-2.33075e-14
6.84474e-14
8.46018e-15
-2.06283e-14
5.96562e-14
9.2339e-15
-2.02192e-14
5.1142e-14
1.65942e-14
-2.04996e-14
4.29457e-14
3.10025e-14
-2.01348e-14
3.50664e-14
5.56938e-14
-2.01803e-14
2.75009e-14
1.90827e-13
-1.94165e-14
2.02402e-14
7.48283e-13
1.30134e-14
2.28926e-12
-8.03524e-15
2.91748e-13
5.89022e-14
3.34164e-14
-6.58989e-14
5.40749e-14
1.02958e-14
-7.19625e-14
4.58698e-14
1.85482e-14
-6.697e-14
3.80608e-14
1.74943e-14
-6.42541e-14
3.08308e-14
2.17455e-14
-6.12145e-14
2.41238e-14
3.56487e-14
-6.02419e-14
1.7927e-14
5.41903e-14
-6.24529e-14
1.23241e-14
1.32823e-13
-7.18338e-14
7.29616e-15
4.46806e-13
2.75934e-15
1.49113e-12
-7.97149e-15
2.1385e-13
7.51292e-14
4.68564e-14
-1.66541e-13
6.78103e-14
1.76415e-14
-1.35353e-13
5.70737e-14
3.04892e-14
-1.18358e-13
4.7073e-14
2.96543e-14
-1.11793e-13
3.80467e-14
3.2315e-14
-1.06294e-13
2.99241e-14
4.47098e-14
-9.93945e-14
2.26206e-14
6.55899e-14
-1.04818e-13
1.55717e-14
1.10215e-13
-1.23492e-13
9.28276e-15
2.98093e-13
3.52184e-15
9.76723e-13
-6.23828e-15
9.34211e-14
9.39097e-14
7.89238e-14
-2.89687e-13
8.2099e-14
4.07064e-14
-2.16902e-13
6.73285e-14
5.83905e-14
-1.81542e-13
5.44249e-14
5.5603e-14
-1.68704e-13
4.32007e-14
5.68637e-14
-1.56721e-13
3.32022e-14
6.37768e-14
-1.46868e-13
2.43947e-14
8.19461e-14
-1.4987e-13
1.69338e-14
1.10404e-13
-1.75992e-13
9.91949e-15
2.28954e-13
4.4144e-15
6.78006e-13
-7.44261e-15
-2.46076e-14
1.19011e-13
1.38015e-13
-4.47063e-13
1.00314e-13
9.30123e-14
-3.10804e-13
8.03047e-14
1.10997e-13
-2.61221e-13
6.31833e-14
1.0158e-13
-2.37776e-13
4.87726e-14
9.5712e-14
-2.17383e-13
3.6963e-14
1.2587e-13
-1.9702e-13
2.66519e-14
1.09153e-13
-1.99105e-13
1.79548e-14
1.27708e-13
-2.29979e-13
1.09404e-14
2.05624e-13
4.18315e-15
5.02007e-13
-1.09162e-14
-1.62285e-13
1.52615e-13
2.4599e-13
-6.53797e-13
1.24718e-13
1.92547e-13
-4.23162e-13
9.65778e-14
2.03164e-13
-3.61519e-13
7.39378e-14
1.78158e-13
-3.1909e-13
5.58683e-14
1.59555e-13
-2.87084e-13
4.08903e-14
1.84805e-13
-2.54327e-13
2.89672e-14
1.52758e-13
-2.38161e-13
1.93111e-14
1.68592e-13
-2.86956e-13
1.16631e-14
2.10441e-13
4.81064e-15
4.01149e-13
-1.55815e-14
-5.8216e-13
1.97021e-13
4.42633e-13
-9.33319e-13
1.56472e-13
3.73716e-13
-5.78573e-13
1.17235e-13
3.57053e-13
-4.85311e-13
8.70579e-14
3.0009e-13
-4.19961e-13
6.37951e-14
2.56018e-13
-3.65342e-13
4.59557e-14
2.58654e-13
-3.18729e-13
3.21477e-14
1.71044e-13
-2.87403e-13
2.07592e-14
2.16465e-13
-3.46889e-13
1.23341e-14
2.37541e-13
5.10458e-15
3.46707e-13
-1.89154e-14
-1.12016e-12
3.18226e-13
7.87997e-13
-1.31231e-12
1.83486e-13
6.943e-13
-7.84515e-13
1.45322e-13
6.09291e-13
-6.42427e-13
1.04748e-13
4.90441e-13
-5.39718e-13
7.53314e-14
4.00495e-13
-4.56666e-13
5.56164e-14
3.76941e-13
-3.91704e-13
3.86824e-14
3.82426e-13
-3.41439e-13
2.49242e-14
2.50838e-13
-4.10049e-13
1.4346e-14
2.82685e-13
6.27286e-15
3.23258e-13
-2.25722e-14
-2.09309e-12
2.93563e-11
2.74952e-12
-1.80329e-12
3.92138e-13
1.18327e-12
-1.05868e-12
2.66059e-13
1.01212e-12
-8.40966e-13
1.724e-13
7.79084e-13
-6.85748e-13
1.13197e-13
6.08446e-13
-5.64526e-13
7.10644e-14
5.61455e-13
-4.71879e-13
3.40677e-14
5.3868e-13
-4.01e-13
1.90043e-14
3e-13
-4.76641e-13
1.00698e-14
3.40462e-13
4.77252e-15
3.22158e-13
-2.63554e-14
-3.59251e-10
-7.09212e-10
7.37757e-08
-2.87116e-12
-6.58017e-11
9.92411e-11
-1.31219e-12
1.21448e-12
-4.34328e-14
-1.09319e-12
1.22595e-12
8.22553e-14
-8.62653e-13
9.27075e-13
6.43707e-14