/*--------------------------------*- C++ -*----------------------------------*\
| =========                 |                                                 |
| \\      /  F ield         | OpenFOAM: The Open Source CFD Toolbox           |
|  \\    /   O peration     | Version:  4.1                                   |
|   \\  /    A nd           | Web:      www.OpenFOAM.org                      |
|    \\/     M anipulation  |                                                 |
\*---------------------------------------------------------------------------*/
FoamFile
{
    version     2.0;
    format      ascii;
    class       volVectorField;
    location    "0.66";
    object      U;
}
// * * * * * * * * * * * * * * * * * * * * * * * * * * * * * * * * * * * * * //

dimensions      [0 1 -1 0 0 0 0];

internalField   nonuniform List<vector> 
18000
(
(8.47641e-14 3.87227e-13 -6.02598e-12)
(9.01525e-14 3.86391e-13 -5.9582e-12)
(8.13442e-14 -9.83505e-15 -5.89069e-12)
(7.27492e-14 -1.32388e-14 -5.8245e-12)
(6.43914e-14 -1.29968e-14 -5.75893e-12)
(5.62545e-14 -1.26621e-14 -5.69418e-12)
(4.83984e-14 -1.26714e-14 -5.63013e-12)
(4.08564e-14 -1.26675e-14 -5.56731e-12)
(3.35143e-14 -1.24561e-14 -5.50539e-12)
(2.64441e-14 -9.36133e-15 -5.44538e-12)
(1.2417e-13 3.98877e-13 -7.53184e-12)
(1.37953e-13 3.86811e-13 -7.26862e-12)
(1.20931e-13 -4.53582e-14 -7.01358e-12)
(1.04805e-13 -4.74007e-14 -6.76998e-12)
(8.98482e-14 -4.5799e-14 -6.53687e-12)
(7.59195e-14 -4.4016e-14 -6.31338e-12)
(6.28391e-14 -4.23568e-14 -6.09887e-12)
(5.07937e-14 -4.09182e-14 -5.8934e-12)
(3.94724e-14 -3.93951e-14 -5.69571e-12)
(2.89586e-14 -2.91709e-14 -5.51e-12)
(1.3558e-13 4.02857e-13 -9.52658e-12)
(1.45696e-13 3.75268e-13 -8.95177e-12)
(1.20614e-13 -9.66219e-14 -8.41239e-12)
(9.81336e-14 -9.44149e-14 -7.91331e-12)
(7.82172e-14 -8.82685e-14 -7.44923e-12)
(6.05367e-14 -8.29167e-14 -7.01799e-12)
(4.47581e-14 -7.79308e-14 -6.61746e-12)
(3.07337e-14 -7.32846e-14 -6.24374e-12)
(1.82595e-14 -6.9053e-14 -5.8958e-12)
(7.20827e-15 -4.98873e-14 -5.57597e-12)
(1.83282e-13 3.93289e-13 -1.22034e-11)
(1.85551e-13 3.43895e-13 -1.1133e-11)
(1.48613e-13 -1.70112e-13 -1.01674e-11)
(1.17123e-13 -1.58328e-13 -9.29985e-12)
(9.05416e-14 -1.43975e-13 -8.52169e-12)
(6.79979e-14 -1.31248e-13 -7.82147e-12)
(4.89798e-14 -1.19955e-13 -7.19017e-12)
(3.27178e-14 -1.0984e-13 -6.6199e-12)
(1.89664e-14 -1.0055e-13 -6.10395e-12)
(7.36655e-15 -7.11655e-14 -5.64285e-12)
(2.53372e-13 3.58747e-13 -1.58516e-11)
(2.4032e-13 2.79646e-13 -1.39947e-11)
(1.85436e-13 -2.75947e-13 -1.23866e-11)
(1.41036e-13 -2.462e-13 -1.09941e-11)
(1.05484e-13 -2.16433e-13 -9.78845e-12)
(7.68575e-14 -1.91173e-13 -8.73982e-12)
(5.37096e-14 -1.69708e-13 -7.82493e-12)
(3.49605e-14 -1.51286e-13 -7.02445e-12)
(1.97382e-14 -1.34899e-13 -6.32134e-12)
(7.44115e-15 -9.33762e-14 -5.71094e-12)
(3.59112e-13 2.80611e-13 -2.09043e-11)
(3.17554e-13 1.59829e-13 -1.77975e-11)
(2.34666e-13 -4.30002e-13 -1.52223e-11)
(1.7149e-13 -3.6704e-13 -1.30784e-11)
(1.23719e-13 -3.11206e-13 -1.12916e-11)
(8.71611e-14 -2.65943e-13 -9.79289e-12)
(5.90535e-14 -2.28818e-13 -8.5297e-12)
(3.73511e-14 -1.98029e-13 -7.45953e-12)
(2.05658e-14 -1.71945e-13 -6.54814e-12)
(7.53073e-15 -1.16529e-13 -5.78011e-12)
(5.2256e-13 1.25708e-13 -2.80172e-11)
(4.27884e-13 -5.39724e-14 -2.29266e-11)
(3.00825e-13 -6.57718e-13 -1.88813e-11)
(2.10046e-13 -5.35373e-13 -1.56627e-11)
(1.45407e-13 -4.3583e-13 -1.30853e-11)
(9.86151e-14 -3.59146e-13 -1.10047e-11)
(6.44569e-14 -2.98938e-13 -9.31308e-12)
(3.93732e-14 -2.51045e-13 -7.92778e-12)
(2.0852e-14 -2.12155e-13 -6.78537e-12)
(7.09249e-15 -1.40654e-13 -5.85033e-12)
(-1.68177e-12 -1.67042e-13 -3.82467e-11)
(-1.86616e-12 -4.30289e-13 -2.99438e-11)
(-1.93121e-12 -9.98239e-13 -2.3661e-11)
(-1.93971e-12 -7.71396e-13 -1.8895e-11)
(-1.91648e-12 -6.00609e-13 -1.52409e-11)
(-1.8751e-12 -4.75882e-13 -1.24086e-11)
(-1.82395e-12 -3.82288e-13 -1.01904e-11)
(-1.76804e-12 -3.10905e-13 -8.43668e-12)
(-1.71066e-12 -2.5548e-13 -7.03644e-12)
(-1.67866e-12 -1.65736e-13 -5.92549e-12)
(-5.09251e-09 -1.12371e-12 -8.07238e-11)
(-5.09473e-09 -1.07353e-12 -6.4121e-11)
(-4.79498e-09 -1.16594e-12 -5.16171e-11)
(-4.5238e-09 -7.81054e-13 -4.22373e-11)
(-4.27951e-09 -5.24409e-13 -3.50968e-11)
(-4.0587e-09 -3.51646e-13 -2.95627e-11)
(-3.8584e-09 -2.33283e-13 -2.52068e-11)
(-3.67609e-09 -1.51375e-13 -2.17296e-11)
(-3.50986e-09 -1.59955e-13 -1.89169e-11)
(-3.4268e-09 -2.48175e-13 -1.67974e-11)
(5.48994e-07 -1.08704e-09 -6.02239e-08)
(3.26652e-08 -7.75841e-11 -5.26705e-08)
(2.57332e-08 7.25985e-10 -4.61905e-08)
(2.13847e-08 6.61505e-10 -4.07847e-08)
(1.7707e-08 5.98995e-10 -3.62393e-08)
(1.45669e-08 5.43606e-10 -3.23892e-08)
(1.18645e-08 4.94685e-10 -2.91044e-08)
(9.52088e-09 4.50682e-10 -2.62828e-08)
(7.14057e-09 2.28418e-10 -2.38454e-08)
(-9.48661e-08 -1.92447e-10 -2.21797e-08)
(2.58308e-13 3.65987e-13 -6.38109e-12)
(2.42346e-13 3.44641e-13 -6.30741e-12)
(2.12714e-13 -5.12162e-14 -6.23417e-12)
(1.84163e-13 -5.41112e-14 -6.16169e-12)
(1.56739e-13 -5.35512e-14 -6.09055e-12)
(1.30301e-13 -5.28644e-14 -6.02061e-12)
(1.04863e-13 -5.23577e-14 -5.95057e-12)
(8.0429e-14 -5.17477e-14 -5.88263e-12)
(5.67712e-14 -5.06519e-14 -5.81546e-12)
(3.44828e-14 -2.94185e-14 -5.74994e-12)
(5.17127e-13 3.19744e-13 -8.02335e-12)
(4.77244e-13 2.3356e-13 -7.73552e-12)
(4.09315e-13 -1.94131e-13 -7.45628e-12)
(3.45797e-13 -1.90653e-13 -7.19021e-12)
(2.86544e-13 -1.84045e-13 -6.93613e-12)
(2.31267e-13 -1.77662e-13 -6.69244e-12)
(1.79687e-13 -1.71476e-13 -6.4596e-12)
(1.31503e-13 -1.6583e-13 -6.23611e-12)
(8.64549e-14 -1.58766e-13 -6.0222e-12)
(4.49735e-14 -9.0333e-14 -5.82017e-12)
(6.33812e-13 2.37311e-13 -1.02202e-11)
(5.64314e-13 6.035e-14 -9.58406e-12)
(4.67446e-13 -3.94474e-13 -8.99049e-12)
(3.80392e-13 -3.74308e-13 -8.44092e-12)
(3.02818e-13 -3.51918e-13 -7.93248e-12)
(2.33565e-13 -3.30972e-13 -7.46088e-12)
(1.71685e-13 -3.11813e-13 -7.02401e-12)
(1.16373e-13 -2.9407e-13 -6.61721e-12)
(6.70644e-14 -2.75451e-13 -6.23892e-12)
(2.34728e-14 -1.54433e-13 -5.89248e-12)
(8.22202e-13 9.83377e-14 -1.31996e-11)
(7.0639e-13 -2.04808e-13 -1.20029e-11)
(5.68026e-13 -6.74641e-13 -1.093e-11)
(4.49007e-13 -6.20145e-13 -9.9688e-12)
(3.47663e-13 -5.66688e-13 -9.11035e-12)
(2.60999e-13 -5.19101e-13 -8.3408e-12)
(1.86923e-13 -4.76398e-13 -7.64981e-12)
(1.23614e-13 -4.3789e-13 -7.02788e-12)
(6.94511e-14 -4.00244e-13 -6.46548e-12)
(2.38565e-14 -2.20923e-13 -5.96493e-12)
(1.08311e-12 -1.29944e-13 -1.73119e-11)
(8.95e-13 -6.08577e-13 -1.52115e-11)
(6.96417e-13 -1.06669e-12 -1.34059e-11)
(5.33587e-13 -9.48945e-13 -1.18498e-11)
(4.00967e-13 -8.41659e-13 -1.05105e-11)
(2.92612e-13 -7.49308e-13 -9.35213e-12)
(2.04007e-13 -6.69106e-13 -8.3461e-12)
(1.31492e-13 -5.99402e-13 -7.46958e-12)
(7.20462e-14 -5.34627e-13 -6.7025e-12)
(2.41791e-14 -2.90371e-13 -6.03961e-12)
(1.45013e-12 -4.98866e-13 -2.30964e-11)
(1.1499e-12 -1.22117e-12 -1.95278e-11)
(8.62314e-13 -1.61808e-12 -1.66026e-11)
(6.38583e-13 -1.39009e-12 -1.41827e-11)
(4.64719e-13 -1.19399e-12 -1.2183e-11)
(3.29039e-13 -1.03136e-12 -1.05175e-11)
(2.22971e-13 -8.95148e-13 -9.12268e-12)
(1.39879e-13 -7.8067e-13 -7.94734e-12)
(7.48159e-14 -6.78891e-13 -6.95146e-12)
(2.44926e-14 -3.6247e-13 -6.11603e-12)
(1.97923e-12 -1.0889e-12 -3.13912e-11)
(1.49844e-12 -2.15165e-12 -2.54369e-11)
(1.07882e-12 -2.40044e-12 -2.07768e-11)
(7.69707e-13 -1.98413e-12 -1.71014e-11)
(5.41184e-13 -1.64676e-12 -1.4193e-11)
(3.71151e-13 -1.3775e-12 -1.1866e-11)
(2.44069e-13 -1.16032e-12 -9.98887e-12)
(1.48963e-13 -9.83958e-13 -8.4633e-12)
(7.76173e-14 -8.33987e-13 -7.21113e-12)
(2.48565e-14 -4.37907e-13 -6.19412e-12)
(2.75265e-12 -2.04895e-12 -4.35895e-11)
(1.87729e-12 -3.58186e-12 -3.36657e-11)
(1.27113e-12 -3.51681e-12 -2.63047e-11)
(8.50023e-13 -2.7884e-12 -2.07932e-11)
(5.55486e-13 -2.22954e-12 -1.66291e-11)
(3.47291e-13 -1.80268e-12 -1.3438e-11)
(1.99149e-13 -1.47163e-12 -1.09648e-11)
(9.34095e-14 -1.21235e-12 -9.02528e-12)
(1.76876e-14 -1.00061e-12 -7.48761e-12)
(-3.59e-14 -5.16122e-13 -6.27726e-12)
(-1.46398e-10 -4.40511e-12 -9.08283e-11)
(-3.73103e-10 -6.47939e-12 -7.09183e-11)
(-3.06619e-10 -5.47039e-12 -5.62994e-11)
(-2.53443e-10 -4.19511e-12 -4.55535e-11)
(-2.11772e-10 -3.26591e-12 -3.75214e-11)
(-1.78675e-10 -2.58421e-12 -3.13878e-11)
(-1.52084e-10 -2.07373e-12 -2.6619e-11)
(-1.30496e-10 -1.68599e-12 -2.28511e-11)
(-1.1282e-10 -1.38042e-12 -1.98273e-11)
(-9.92952e-11 -7.90384e-13 -1.75584e-11)
(3.7346e-07 -1.9575e-09 -6.53369e-08)
(-7.6556e-09 -1.55721e-09 -5.67296e-08)
(-8.27455e-09 -6.74538e-10 -4.92644e-08)
(-7.67746e-09 -6.12593e-10 -4.31499e-08)
(-7.11596e-09 -5.60802e-10 -3.80874e-08)
(-6.60468e-09 -5.13572e-10 -3.38531e-08)
(-6.14481e-09 -4.70934e-10 -3.02784e-08)
(-5.73449e-09 -4.3264e-10 -2.72349e-08)
(-5.39268e-09 -4.01187e-10 -2.46257e-08)
(-7.33002e-09 -4.11453e-10 -2.28326e-08)
(2.31134e-13 3.70029e-13 -3.66131e-13)
(2.18047e-13 3.46715e-13 -3.59686e-13)
(1.91162e-13 -4.93894e-14 -3.53027e-13)
(1.65529e-13 -5.2304e-14 -3.46285e-13)
(1.40975e-13 -5.14007e-14 -3.39982e-13)
(1.17311e-13 -5.09641e-14 -3.3388e-13)
(9.49062e-14 -5.05076e-14 -3.2767e-13)
(7.32746e-14 -4.96893e-14 -3.22179e-13)
(5.25757e-14 -4.88358e-14 -3.1655e-13)
(3.3136e-14 -2.56892e-14 -3.11166e-13)
(5.03047e-13 3.34422e-13 -5.0839e-13)
(4.64298e-13 2.39755e-13 -4.8222e-13)
(3.9779e-13 -1.88167e-13 -4.56643e-13)
(3.35643e-13 -1.84453e-13 -4.32418e-13)
(2.7793e-13 -1.77925e-13 -4.10363e-13)
(2.24163e-13 -1.71431e-13 -3.8974e-13)
(1.74279e-13 -1.65253e-13 -3.69512e-13)
(1.27667e-13 -1.59594e-13 -3.50767e-13)
(8.41838e-14 -1.52665e-13 -3.34232e-13)
(4.44553e-14 -7.95264e-14 -3.17493e-13)
(6.22147e-13 2.65989e-13 -7.20516e-13)
(5.52802e-13 6.98165e-14 -6.5593e-13)
(4.56843e-13 -3.8486e-13 -5.98433e-13)
(3.70765e-13 -3.64558e-13 -5.45789e-13)
(2.94434e-13 -3.41609e-13 -4.98997e-13)
(2.26657e-13 -3.2058e-13 -4.56257e-13)
(1.66301e-13 -3.01367e-13 -4.18134e-13)
(1.12708e-13 -2.83834e-13 -3.8384e-13)
(6.47859e-14 -2.65007e-13 -3.52092e-13)
(2.29157e-14 -1.35852e-13 -3.24713e-13)
(8.16281e-13 1.46587e-13 -1.03947e-12)
(6.9861e-13 -1.94829e-13 -9.0733e-13)
(5.5955e-13 -6.6315e-13 -7.93607e-13)
(4.40655e-13 -6.07767e-13 -6.94639e-13)
(3.39962e-13 -5.53235e-13 -6.10243e-13)
(2.54459e-13 -5.04923e-13 -5.37647e-13)
(1.81738e-13 -4.61698e-13 -4.75047e-13)
(1.19925e-13 -4.23597e-13 -4.20889e-13)
(6.73101e-14 -3.861e-13 -3.73169e-13)
(2.33042e-14 -1.95176e-13 -3.31985e-13)
(1.08977e-12 -5.55251e-14 -1.53384e-12)
(8.94442e-13 -6.04469e-13 -1.27585e-12)
(6.92257e-13 -1.05782e-12 -1.0668e-12)
(5.27434e-13 -9.36779e-13 -8.9399e-13)
(3.94456e-13 -8.26438e-13 -7.52693e-13)
(2.86669e-13 -7.32318e-13 -6.37012e-13)
(1.99161e-13 -6.51289e-13 -5.41616e-13)
(1.27948e-13 -5.8136e-13 -4.62572e-13)
(7.01339e-14 -5.16151e-13 -3.9596e-13)
(2.38494e-14 -2.5671e-13 -3.41286e-13)
(1.48152e-12 -3.91996e-13 -2.31871e-12)
(1.16313e-12 -1.23784e-12 -1.82746e-12)
(8.65736e-13 -1.62044e-12 -1.45428e-12)
(6.36117e-13 -1.38352e-12 -1.16087e-12)
(4.60072e-13 -1.17992e-12 -9.35408e-13)
(3.23937e-13 -1.01295e-12 -7.59015e-13)
(2.18499e-13 -8.74414e-13 -6.20655e-13)
(1.36728e-13 -7.59003e-13 -5.10711e-13)
(7.29695e-14 -6.56582e-13 -4.20854e-13)
(2.43217e-14 -3.21854e-13 -3.51124e-13)
(2.05796e-12 -9.42741e-13 -3.59603e-12)
(1.53709e-12 -2.21856e-12 -2.66983e-12)
(1.09534e-12 -2.43182e-12 -2.01055e-12)
(7.73838e-13 -1.99289e-12 -1.52349e-12)
(5.39671e-13 -1.63862e-12 -1.1707e-12)
(3.67491e-13 -1.36044e-12 -9.08949e-13)
(2.40343e-13 -1.13788e-12 -7.13223e-13)
(1.46058e-13 -9.595e-13 -5.64592e-13)
(7.58827e-14 -8.08105e-13 -4.48783e-13)
(2.47637e-14 -3.89612e-13 -3.62385e-13)
(3.04443e-12 -1.86186e-12 -5.74408e-12)
(2.07167e-12 -3.75835e-12 -3.98711e-12)
(1.40578e-12 -3.60889e-12 -2.82555e-12)
(9.50625e-13 -2.82911e-12 -2.02389e-12)
(6.37006e-13 -2.23637e-12 -1.478e-12)
(4.18283e-13 -1.79075e-12 -1.09523e-12)
(2.64423e-13 -1.44961e-12 -8.23021e-13)
(1.55599e-13 -1.18609e-12 -6.25643e-13)
(7.83324e-14 -9.71528e-13 -4.80372e-13)
(2.4362e-14 -4.60847e-13 -3.74047e-13)
(2.727e-10 -3.76035e-12 -1.08568e-11)
(-9.82604e-12 -6.54015e-12 -7.22042e-12)
(-8.36684e-12 -5.38036e-12 -4.95275e-12)
(-6.11902e-12 -4.01714e-12 -3.49682e-12)
(-4.58066e-12 -3.04411e-12 -2.55056e-12)
(-3.49723e-12 -2.34784e-12 -1.91599e-12)
(-2.71934e-12 -1.83767e-12 -1.47999e-12)
(-2.14907e-12 -1.45879e-12 -1.17348e-12)
(-1.72359e-12 -1.16364e-12 -9.51697e-13)
(-1.39038e-12 -5.49849e-13 -7.94823e-13)
(3.24066e-07 -9.91128e-10 -5.45013e-09)
(5.41068e-10 -8.96799e-10 -4.21665e-09)
(-4.22037e-10 -1.15895e-10 -3.1765e-09)
(-3.43455e-10 -8.6326e-11 -2.43351e-09)
(-2.79046e-10 -6.80429e-11 -1.89471e-09)
(-2.29409e-10 -5.42722e-11 -1.49645e-09)
(-1.90433e-10 -4.37761e-11 -1.19721e-09)
(-1.59583e-10 -3.56733e-11 -9.69018e-10)
(-1.35728e-10 -2.93166e-11 -7.92775e-10)
(-1.48563e-10 -2.49304e-11 -6.62176e-10)
(2.26831e-13 3.70513e-13 -1.58887e-14)
(2.14224e-13 3.46836e-13 -1.50691e-14)
(1.87849e-13 -4.92335e-14 -1.28523e-14)
(1.62614e-13 -5.20889e-14 -1.18275e-14)
(1.38567e-13 -5.13755e-14 -1.03106e-14)
(1.15526e-13 -5.07508e-14 -9.2592e-15)
(9.34034e-14 -5.00968e-14 -8.28076e-15)
(7.22317e-14 -4.93476e-14 -7.11571e-15)
(5.20448e-14 -4.82996e-14 -6.68639e-15)
(3.30114e-14 -2.51895e-14 -6.77348e-15)
(4.98053e-13 3.36753e-13 -2.40733e-14)
(4.60024e-13 2.4147e-13 -2.15818e-14)
(3.942e-13 -1.86681e-13 -1.94647e-14)
(3.32721e-13 -1.82993e-13 -1.67334e-14)
(2.75591e-13 -1.76077e-13 -1.4303e-14)
(2.22377e-13 -1.70019e-13 -1.28839e-14)
(1.72959e-13 -1.6408e-13 -1.09767e-14)
(1.2686e-13 -1.5792e-13 -9.72287e-15)
(8.37956e-14 -1.50957e-13 -8.71999e-15)
(4.4457e-14 -7.77482e-14 -8.03591e-15)
(6.15489e-13 2.71663e-13 -3.86433e-14)
(5.47496e-13 7.38244e-14 -3.4162e-14)
(4.5249e-13 -3.81024e-13 -2.91876e-14)
(3.67337e-13 -3.60915e-13 -2.47058e-14)
(2.91803e-13 -3.38524e-13 -2.13767e-14)
(2.24663e-13 -3.17685e-13 -1.81966e-14)
(1.65059e-13 -2.98399e-13 -1.52106e-14)
(1.11977e-13 -2.81069e-13 -1.33595e-14)
(6.45732e-14 -2.62386e-13 -1.15667e-14)
(2.30641e-14 -1.32879e-13 -1.0886e-14)
(8.07535e-13 1.58255e-13 -6.33884e-14)
(6.91785e-13 -1.86833e-13 -5.51285e-14)
(5.54332e-13 -6.56536e-13 -4.60497e-14)
(4.36663e-13 -6.01715e-13 -3.80096e-14)
(3.37016e-13 -5.47635e-13 -3.1597e-14)
(2.52455e-13 -4.99907e-13 -2.68054e-14)
(1.80531e-13 -4.57269e-13 -2.23288e-14)
(1.19387e-13 -4.19294e-13 -1.87625e-14)
(6.73448e-14 -3.8218e-13 -1.6457e-14)
(2.37276e-14 -1.91467e-13 -1.44298e-14)
(1.07825e-12 -3.45718e-14 -1.0894e-13)
(8.85869e-13 -5.91016e-13 -9.03034e-14)
(6.85958e-13 -1.04642e-12 -7.28108e-14)
(5.2291e-13 -9.27171e-13 -5.83195e-14)
(3.91372e-13 -8.18236e-13 -4.75283e-14)
(2.84666e-13 -7.24977e-13 -3.84285e-14)
(1.98097e-13 -6.44604e-13 -3.16537e-14)
(1.27695e-13 -5.75519e-13 -2.73802e-14)
(7.01376e-14 -5.11216e-13 -2.39055e-14)
(2.44043e-14 -2.5198e-13 -2.02027e-14)
(1.46597e-12 -3.54266e-13 -1.89902e-13)
(1.15224e-12 -1.21596e-12 -1.49397e-13)
(8.58079e-13 -1.60314e-12 -1.16426e-13)
(6.31001e-13 -1.36926e-12 -9.03432e-14)
(4.56812e-13 -1.168e-12 -7.12162e-14)
(3.22078e-13 -1.00293e-12 -5.70281e-14)
(2.17708e-13 -8.65718e-13 -4.61266e-14)
(1.36545e-13 -7.52226e-13 -3.81485e-14)
(7.32681e-14 -6.50824e-13 -3.10162e-14)
(2.49766e-14 -3.15867e-13 -2.66568e-14)
(2.03713e-12 -8.76321e-13 -3.34521e-13)
(1.5229e-12 -2.18453e-12 -2.50204e-13)
(1.0861e-12 -2.40552e-12 -1.84524e-13)
(7.67992e-13 -1.97242e-12 -1.39015e-13)
(5.36239e-13 -1.62249e-12 -1.05613e-13)
(3.65776e-13 -1.34722e-12 -8.19997e-14)
(2.39646e-13 -1.12733e-12 -6.47585e-14)
(1.46057e-13 -9.51274e-13 -5.2029e-14)
(7.66433e-14 -8.01401e-13 -4.22971e-14)
(2.55788e-14 -3.83173e-13 -3.47063e-14)
(3.01734e-12 -1.74541e-12 -6.03779e-13)
(2.05076e-12 -3.70677e-12 -4.18631e-13)
(1.3928e-12 -3.57049e-12 -2.94492e-13)
(9.43152e-13 -2.80091e-12 -2.10457e-13)
(6.33241e-13 -2.21468e-12 -1.54676e-13)
(4.16896e-13 -1.7745e-12 -1.16043e-13)
(2.64464e-13 -1.43722e-12 -8.85633e-14)
(1.56626e-13 -1.17621e-12 -6.92555e-14)
(7.99856e-14 -9.64259e-13 -5.54998e-14)
(2.6394e-14 -4.53889e-13 -4.45113e-14)
(3.00267e-10 -3.5185e-12 -1.17392e-12)
(4.23146e-12 -6.43156e-12 -6.81491e-13)
(1.56354e-12 -5.28902e-12 -4.51638e-13)
(1.01115e-12 -3.94829e-12 -3.12477e-13)
(6.51091e-13 -2.99107e-12 -2.22791e-13)
(4.09271e-13 -2.30621e-12 -1.64108e-13)
(2.46151e-13 -1.80425e-12 -1.2389e-13)
(1.35482e-13 -1.43129e-12 -9.60414e-14)
(6.00822e-14 -1.14042e-12 -7.6042e-14)
(1.01427e-14 -5.28241e-13 -6.18231e-14)
(3.2109e-07 -8.47433e-10 -5.09964e-10)
(1.06652e-09 -7.89982e-10 -1.64159e-10)
(-1.06772e-11 -1.79449e-11 -1.05605e-10)
(-9.30964e-12 -9.16234e-12 -7.01144e-11)
(-6.64755e-12 -6.49986e-12 -4.78377e-11)
(-4.85791e-12 -4.72515e-12 -3.33864e-11)
(-3.61463e-12 -3.50104e-12 -2.37905e-11)
(-2.73571e-12 -2.64122e-12 -1.72698e-11)
(-2.11866e-12 -2.01413e-12 -1.27467e-11)
(-1.98975e-12 -1.12837e-12 -9.48811e-12)
(2.2711e-13 3.70417e-13 -1.11473e-14)
(2.14401e-13 3.46238e-13 -1.00469e-14)
(1.88106e-13 -4.99534e-14 -7.56941e-15)
(1.62798e-13 -5.26042e-14 -5.57458e-15)
(1.38686e-13 -5.17239e-14 -4.31229e-15)
(1.15524e-13 -5.10881e-14 -3.11067e-15)
(9.35314e-14 -5.06889e-14 -2.45173e-15)
(7.2414e-14 -4.96643e-14 -1.47937e-15)
(5.21416e-14 -4.83206e-14 -4.83722e-16)
(3.30853e-14 -2.5407e-14 -3.628e-16)
(4.98871e-13 3.36439e-13 -1.61811e-14)
(4.60737e-13 2.409e-13 -1.43822e-14)
(3.94853e-13 -1.87251e-13 -1.1093e-14)
(3.33167e-13 -1.83811e-13 -9.36514e-15)
(2.76026e-13 -1.76904e-13 -6.41728e-15)
(2.22735e-13 -1.70337e-13 -4.77023e-15)
(1.73288e-13 -1.64226e-13 -4.03813e-15)
(1.27235e-13 -1.58337e-13 -3.4689e-15)
(8.41379e-14 -1.51285e-13 -2.47644e-15)
(4.48341e-14 -7.77807e-14 -1.32381e-15)
(6.16971e-13 2.71312e-13 -2.64244e-14)
(5.48864e-13 7.29171e-14 -2.34981e-14)
(4.53637e-13 -3.8234e-13 -1.90815e-14)
(3.68282e-13 -3.61966e-13 -1.49443e-14)
(2.92657e-13 -3.39026e-13 -1.21498e-14)
(2.25484e-13 -3.18312e-13 -9.69165e-15)
(1.65692e-13 -2.98998e-13 -7.84003e-15)
(1.12559e-13 -2.81369e-13 -6.49586e-15)
(6.51324e-14 -2.62424e-13 -5.91951e-15)
(2.36408e-14 -1.33035e-13 -5.23857e-15)
(8.10178e-13 1.5761e-13 -4.53401e-14)
(6.94191e-13 -1.88268e-13 -3.9571e-14)
(5.563e-13 -6.5816e-13 -3.2811e-14)
(4.38345e-13 -6.03288e-13 -2.672e-14)
(3.38463e-13 -5.48827e-13 -2.17977e-14)
(2.53624e-13 -5.00875e-13 -1.8004e-14)
(1.81572e-13 -4.58125e-13 -1.5294e-14)
(1.20377e-13 -4.19997e-13 -1.29625e-14)
(6.83011e-14 -3.8261e-13 -1.12662e-14)
(2.44718e-14 -1.9126e-13 -1.0554e-14)
(1.08285e-12 -3.56083e-14 -7.94561e-14)
(8.89766e-13 -5.9384e-13 -6.8819e-14)
(6.89172e-13 -1.04976e-12 -5.57944e-14)
(5.25546e-13 -9.29734e-13 -4.51126e-14)
(3.93578e-13 -8.20252e-13 -3.76191e-14)
(2.86546e-13 -7.26893e-13 -3.1109e-14)
(1.99688e-13 -6.45879e-13 -2.5587e-14)
(1.29032e-13 -5.76204e-13 -2.20735e-14)
(7.14136e-14 -5.12025e-13 -1.93246e-14)
(2.54553e-14 -2.52558e-13 -1.67761e-14)
(1.47365e-12 -3.57071e-13 -1.40393e-13)
(1.15863e-12 -1.22156e-12 -1.17022e-13)
(8.63098e-13 -1.6084e-12 -9.34578e-14)
(6.35113e-13 -1.37387e-12 -7.48502e-14)
(4.60062e-13 -1.17157e-12 -6.0628e-14)
(3.24808e-13 -1.00589e-12 -5.0402e-14)
(2.19922e-13 -8.68271e-13 -4.0878e-14)
(1.38397e-13 -7.54015e-13 -3.43414e-14)
(7.47692e-14 -6.5231e-13 -2.98659e-14)
(2.62695e-14 -3.16715e-13 -2.54742e-14)
(2.05003e-12 -8.8147e-13 -2.49175e-13)
(1.53324e-12 -2.19555e-12 -2.00421e-13)
(1.09383e-12 -2.41572e-12 -1.54856e-13)
(7.73955e-13 -1.98038e-12 -1.20271e-13)
(5.40917e-13 -1.62886e-12 -9.5865e-14)
(3.69386e-13 -1.35244e-12 -7.67452e-14)
(2.42581e-13 -1.13139e-12 -6.19378e-14)
(1.48467e-13 -9.54327e-13 -5.1207e-14)
(7.8529e-14 -8.04142e-13 -4.30461e-14)
(2.7216e-14 -3.84692e-13 -3.61597e-14)
(3.04385e-12 -1.75609e-12 -4.45454e-13)
(2.06687e-12 -3.72857e-12 -3.4032e-13)
(1.40453e-12 -3.58883e-12 -2.51541e-13)
(9.51963e-13 -2.81492e-12 -1.89854e-13)
(6.3983e-13 -2.22567e-12 -1.45964e-13)
(4.21904e-13 -1.78299e-12 -1.13906e-13)
(2.68355e-13 -1.44382e-12 -9.03791e-14)
(1.59603e-13 -1.18153e-12 -7.25766e-14)
(8.22614e-14 -9.68352e-13 -5.92125e-14)
(2.82079e-14 -4.56317e-13 -4.9757e-14)
(3.14415e-10 -3.55836e-12 -9.26031e-13)
(4.77655e-12 -6.48773e-12 -5.76142e-13)
(1.82074e-12 -5.32208e-12 -4.06132e-13)
(1.17274e-12 -3.97258e-12 -2.94894e-13)
(7.54799e-13 -3.00941e-12 -2.18397e-13)
(4.78174e-13 -2.31997e-12 -1.65163e-13)
(2.93e-13 -1.81469e-12 -1.26348e-13)
(1.68049e-13 -1.43938e-12 -9.93995e-14)
(8.29878e-14 -1.14678e-12 -7.87016e-14)
(2.62066e-14 -5.3161e-13 -6.36941e-14)
(3.41252e-07 -8.88214e-10 -4.10472e-10)
(1.19468e-09 -8.17388e-10 -8.55617e-12)
(3.99079e-12 -1.31466e-11 -3.17906e-12)
(9.24633e-13 -5.69997e-12 -1.90117e-12)
(6.2063e-13 -4.09883e-12 -1.17814e-12)
(4.21808e-13 -3.02542e-12 -7.61648e-13)
(2.84873e-13 -2.27709e-12 -5.08919e-13)
(1.90198e-13 -1.74558e-12 -3.50012e-13)
(1.23969e-13 -1.34934e-12 -2.45782e-13)
(7.57222e-14 -6.17917e-13 -1.75835e-13)
(2.27634e-13 3.7007e-13 -1.38279e-14)
(2.1487e-13 3.45436e-13 -1.16598e-14)
(1.88377e-13 -5.09851e-14 -9.61843e-15)
(1.63131e-13 -5.33595e-14 -6.73166e-15)
(1.38837e-13 -5.23335e-14 -5.14605e-15)
(1.15715e-13 -5.1466e-14 -2.98975e-15)
(9.3593e-14 -5.07238e-14 -2.06773e-15)
(7.24999e-14 -5.01116e-14 -1.39098e-15)
(5.23271e-14 -4.87255e-14 -6.64965e-16)
(3.31519e-14 -2.52335e-14 -8.7585e-16)
(5.00189e-13 3.3603e-13 -2.01916e-14)
(4.6192e-13 2.39557e-13 -1.79827e-14)
(3.95761e-13 -1.88531e-13 -1.31019e-14)
(3.34006e-13 -1.84732e-13 -1.05771e-14)
(2.7667e-13 -1.77794e-13 -8.15171e-15)
(2.23279e-13 -1.70881e-13 -5.83969e-15)
(1.73706e-13 -1.64527e-13 -4.25238e-15)
(1.27578e-13 -1.58476e-13 -3.38933e-15)
(8.46032e-14 -1.51762e-13 -3.08969e-15)
(4.51979e-14 -7.8175e-14 -2.48964e-15)
(6.19356e-13 2.70485e-13 -3.24218e-14)
(5.50896e-13 7.11896e-14 -2.87263e-14)
(4.55437e-13 -3.8409e-13 -2.30596e-14)
(3.69718e-13 -3.63424e-13 -1.8782e-14)
(2.93927e-13 -3.4041e-13 -1.4483e-14)
(2.26515e-13 -3.1923e-13 -1.13606e-14)
(1.66666e-13 -2.99553e-13 -9.31362e-15)
(1.13364e-13 -2.81758e-13 -8.31063e-15)
(6.58874e-14 -2.62839e-13 -7.29588e-15)
(2.44708e-14 -1.33431e-13 -6.41593e-15)
(8.14278e-13 1.55882e-13 -5.62739e-14)
(6.97649e-13 -1.91156e-13 -4.83924e-14)
(5.59179e-13 -6.61007e-13 -3.97077e-14)
(4.40733e-13 -6.05608e-13 -3.23614e-14)
(3.40511e-13 -5.50757e-13 -2.62337e-14)
(2.55445e-13 -5.02247e-13 -2.12658e-14)
(1.83076e-13 -4.59133e-13 -1.82714e-14)
(1.21673e-13 -4.20835e-13 -1.5985e-14)
(6.93522e-14 -3.83132e-13 -1.43734e-14)
(2.54868e-14 -1.91658e-13 -1.25184e-14)
(1.08967e-12 -3.89747e-14 -9.82658e-14)
(8.95508e-13 -5.98924e-13 -8.36614e-14)
(6.93737e-13 -1.05448e-12 -6.81362e-14)
(5.29276e-13 -9.33554e-13 -5.56701e-14)
(3.96657e-13 -8.23324e-13 -4.61276e-14)
(2.89197e-13 -7.29499e-13 -3.86239e-14)
(2.01757e-13 -6.48085e-13 -3.18523e-14)
(1.30819e-13 -5.78005e-13 -2.71475e-14)
(7.29085e-14 -5.13338e-13 -2.30204e-14)
(2.66775e-14 -2.53205e-13 -2.07049e-14)
(1.48511e-12 -3.63504e-13 -1.72075e-13)
(1.16788e-12 -1.23107e-12 -1.43938e-13)
(8.70321e-13 -1.61707e-12 -1.14214e-13)
(6.40657e-13 -1.38056e-12 -9.13133e-14)
(4.64567e-13 -1.17681e-12 -7.44533e-14)
(3.28365e-13 -1.01037e-12 -6.17633e-14)
(2.22856e-13 -8.71949e-13 -5.05679e-14)
(1.40777e-13 -7.56699e-13 -4.22976e-14)
(7.6803e-14 -6.5461e-13 -3.62755e-14)
(2.79292e-14 -3.17993e-13 -3.15616e-14)
(2.06933e-12 -8.94856e-13 -3.04773e-13)
(1.54802e-12 -2.21326e-12 -2.44002e-13)
(1.10491e-12 -2.43113e-12 -1.89394e-13)
(7.82342e-13 -1.99229e-12 -1.47986e-13)
(5.47382e-13 -1.63806e-12 -1.18166e-13)
(3.74389e-13 -1.35995e-12 -9.48623e-14)
(2.46593e-13 -1.13739e-12 -7.71934e-14)
(1.51578e-13 -9.59033e-13 -6.26257e-14)
(8.10035e-14 -8.07894e-13 -5.2778e-14)
(2.92735e-14 -3.86854e-13 -4.46748e-14)
(3.0825e-12 -1.78278e-12 -5.42546e-13)
(2.09075e-12 -3.76257e-12 -4.15457e-13)
(1.42142e-12 -3.61651e-12 -3.09224e-13)
(9.64259e-13 -2.83557e-12 -2.34055e-13)
(6.4885e-13 -2.24129e-12 -1.80551e-13)
(4.28695e-13 -1.79523e-12 -1.41691e-13)
(2.73422e-13 -1.45356e-12 -1.12711e-13)
(1.63544e-13 -1.18909e-12 -8.93856e-14)
(8.52635e-14 -9.74181e-13 -7.26945e-14)
(3.05822e-14 -4.59524e-13 -6.07804e-14)
(3.33962e-10 -3.61817e-12 -9.79082e-13)
(4.97543e-12 -6.5683e-12 -7.05221e-13)
(1.85306e-12 -5.3719e-12 -5.0221e-13)
(1.19363e-12 -4.00812e-12 -3.64462e-13)
(7.69095e-13 -3.03551e-12 -2.71172e-13)
(4.88209e-13 -2.33982e-12 -2.05173e-13)
(3.00251e-13 -1.82971e-12 -1.57597e-13)
(1.73347e-13 -1.45076e-12 -1.22817e-13)
(8.68687e-14 -1.15574e-12 -9.76121e-14)
(2.91143e-14 -5.36648e-13 -7.90549e-14)
(3.72391e-07 -9.39901e-10 -3.39775e-10)
(1.29848e-09 -8.67671e-10 -2.06175e-12)
(4.84725e-12 -1.34558e-11 -8.64876e-13)
(1.17379e-12 -5.66482e-12 -5.90305e-13)
(7.77455e-13 -4.08273e-12 -4.15227e-13)
(5.21688e-13 -3.01955e-12 -3.00613e-13)
(3.50826e-13 -2.27643e-12 -2.22874e-13)
(2.34697e-13 -1.74743e-12 -1.6744e-13)
(1.54796e-13 -1.3521e-12 -1.28468e-13)
(1.00074e-13 -6.18224e-13 -1.01106e-13)
(2.28302e-13 3.69531e-13 -1.61136e-14)
(2.15528e-13 3.44563e-13 -1.4093e-14)
(1.88756e-13 -5.19051e-14 -1.08046e-14)
(1.63471e-13 -5.43795e-14 -8.44434e-15)
(1.39193e-13 -5.32112e-14 -6.22102e-15)
(1.15983e-13 -5.23114e-14 -4.21378e-15)
(9.38671e-14 -5.13247e-14 -2.54774e-15)
(7.27332e-14 -5.02309e-14 -2.64814e-15)
(5.2561e-14 -4.85685e-14 -6.90437e-15)
(3.33849e-14 -2.53465e-14 -1.97683e-14)
(5.0179e-13 3.35421e-13 -2.41206e-14)
(4.63365e-13 2.38137e-13 -2.04703e-14)
(3.96932e-13 -1.90128e-13 -1.63389e-14)
(3.35003e-13 -1.85754e-13 -1.27857e-14)
(2.77476e-13 -1.78784e-13 -1.02234e-14)
(2.24021e-13 -1.71889e-13 -7.46343e-15)
(1.74397e-13 -1.65216e-13 -5.97262e-15)
(1.28292e-13 -1.58822e-13 -4.92484e-15)
(8.51696e-14 -1.51708e-13 -5.92026e-15)
(4.57193e-14 -7.84475e-14 -1.56236e-14)
(6.22248e-13 2.69487e-13 -3.87015e-14)
(5.53302e-13 6.93001e-14 -3.30003e-14)
(4.57526e-13 -3.86137e-13 -2.65005e-14)
(3.715e-13 -3.65293e-13 -2.15985e-14)
(2.95338e-13 -3.41925e-13 -1.72368e-14)
(2.27798e-13 -3.20395e-13 -1.43171e-14)
(1.67802e-13 -3.00273e-13 -1.17607e-14)
(1.14476e-13 -2.82271e-13 -1.0745e-14)
(6.687e-14 -2.63332e-13 -1.1292e-14)
(2.52003e-14 -1.3395e-13 -1.58876e-14)
(8.19267e-13 1.53741e-13 -6.59126e-14)
(7.01828e-13 -1.94537e-13 -5.59139e-14)
(5.6264e-13 -6.64208e-13 -4.57801e-14)
(4.43601e-13 -6.08461e-13 -3.74369e-14)
(3.43036e-13 -5.53188e-13 -3.10827e-14)
(2.57623e-13 -5.04133e-13 -2.64067e-14)
(1.84927e-13 -4.60405e-13 -2.27226e-14)
(1.23214e-13 -4.21754e-13 -1.98163e-14)
(7.07031e-14 -3.84258e-13 -1.86295e-14)
(2.66729e-14 -1.9248e-13 -2.01247e-14)
(1.09799e-12 -4.30177e-14 -1.15528e-13)
(9.02423e-13 -6.0495e-13 -9.65744e-14)
(6.99262e-13 -1.06012e-12 -7.82516e-14)
(5.33719e-13 -9.38135e-13 -6.42256e-14)
(4.00398e-13 -8.2698e-13 -5.3603e-14)
(2.92394e-13 -7.32733e-13 -4.56936e-14)
(2.04452e-13 -6.50769e-13 -3.91387e-14)
(1.32971e-13 -5.80133e-13 -3.38064e-14)
(7.47322e-14 -5.1504e-13 -2.95886e-14)
(2.838e-14 -2.54423e-13 -2.94335e-14)
(1.49913e-12 -3.7152e-13 -2.03941e-13)
(1.17891e-12 -1.24221e-12 -1.65928e-13)
(8.78898e-13 -1.62731e-12 -1.32257e-13)
(6.47521e-13 -1.38878e-12 -1.07042e-13)
(4.70004e-13 -1.18316e-12 -8.75152e-14)
(3.32792e-13 -1.01567e-12 -7.37582e-14)
(2.26506e-13 -8.76521e-13 -6.13284e-14)
(1.43658e-13 -7.60404e-13 -5.19857e-14)
(7.92557e-14 -6.57382e-13 -4.52709e-14)
(2.99408e-14 -3.19879e-13 -4.12809e-14)
(2.0929e-12 -9.11141e-13 -3.59797e-13)
(1.56574e-12 -2.23455e-12 -2.81565e-13)
(1.11819e-12 -2.44906e-12 -2.19209e-13)
(7.92523e-13 -2.0064e-12 -1.73194e-13)
(5.55195e-13 -1.64921e-12 -1.38379e-13)
(3.80517e-13 -1.36895e-12 -1.13169e-13)
(2.51471e-13 -1.14493e-12 -9.22935e-14)
(1.55378e-13 -9.6506e-13 -7.63245e-14)
(8.39944e-14 -8.12534e-13 -6.46903e-14)
(3.16819e-14 -3.89826e-13 -5.67342e-14)
(3.11659e-12 -1.81537e-12 -6.39308e-13)
(2.11907e-12 -3.8029e-12 -4.78289e-13)
(1.44191e-12 -3.64906e-12 -3.58628e-13)
(9.79123e-13 -2.86022e-12 -2.73298e-13)
(6.5987e-13 -2.26008e-12 -2.11789e-13)
(4.36961e-13 -1.8098e-12 -1.68096e-13)
(2.79733e-13 -1.46559e-12 -1.35204e-13)
(1.68355e-13 -1.19885e-12 -1.07805e-13)
(8.8955e-14 -9.81556e-13 -8.87619e-14)
(3.34523e-14 -4.63874e-13 -7.49593e-14)
(3.42263e-10 -3.58004e-12 -3.92297e-13)
(4.93706e-12 -6.62862e-12 -8.03487e-13)
(1.88329e-12 -5.42999e-12 -5.8525e-13)
(1.21536e-12 -4.05067e-12 -4.26669e-13)
(7.84506e-13 -3.06704e-12 -3.19858e-13)
(4.99307e-13 -2.36371e-12 -2.44329e-13)
(3.08314e-13 -1.84852e-12 -1.90641e-13)
(1.79258e-13 -1.46509e-12 -1.46942e-13)
(9.1269e-14 -1.16681e-12 -1.18593e-13)
(3.23494e-14 -5.43181e-13 -9.72925e-14)
(3.96738e-07 -7.95521e-10 9.86992e-10)
(1.30899e-09 -8.87576e-10 1.14126e-11)
(4.36866e-12 -1.33286e-11 -8.76971e-13)
(1.19695e-12 -5.73123e-12 -6.57135e-13)
(7.94186e-13 -4.13264e-12 -4.72384e-13)
(5.33381e-13 -3.05624e-12 -3.47417e-13)
(3.59211e-13 -2.30436e-12 -2.61312e-13)
(2.40922e-13 -1.76849e-12 -1.9666e-13)
(1.59244e-13 -1.36802e-12 -1.52726e-13)
(1.03476e-13 -6.27176e-13 -1.21953e-13)
(2.28903e-13 3.6926e-13 -1.51289e-14)
(2.15571e-13 3.43399e-13 -6.89943e-15)
(1.89025e-13 -5.31643e-14 -5.55273e-15)
(1.63752e-13 -5.51532e-14 -6.1525e-15)
(1.39598e-13 -5.40383e-14 -9.98654e-15)
(1.16605e-13 -5.30322e-14 -1.7746e-14)
(9.47358e-14 -5.15752e-14 -3.13088e-14)
(7.44615e-14 -4.9213e-14 -1.06819e-13)
(5.60172e-14 -4.52125e-14 -4.18088e-13)
(3.64278e-14 -3.6914e-14 -1.27649e-12)
(5.03291e-13 3.34613e-13 -2.06001e-14)
(4.63969e-13 2.36923e-13 -7.04582e-15)
(3.97694e-13 -1.91269e-13 -7.58578e-15)
(3.35754e-13 -1.86967e-13 -7.71964e-15)
(2.78353e-13 -1.79888e-13 -1.11383e-14)
(2.251e-13 -1.72811e-13 -1.86176e-14)
(1.75609e-13 -1.66105e-13 -2.95561e-14)
(1.29866e-13 -1.60167e-13 -7.38441e-14)
(8.75219e-14 -1.53374e-13 -2.4915e-13)
(4.71338e-14 -9.8563e-14 -8.30778e-13)
(6.24845e-13 2.68283e-13 -3.37937e-14)
(5.5482e-13 6.74794e-14 -1.38622e-14)
(4.58911e-13 -3.87725e-13 -1.2182e-14)
(3.72876e-13 -3.66543e-13 -1.28223e-14)
(2.96867e-13 -3.43101e-13 -1.52141e-14)
(2.29528e-13 -3.2171e-13 -2.28375e-14)
(1.69643e-13 -3.01896e-13 -3.49121e-14)
(1.16361e-13 -2.83973e-13 -6.03027e-14)
(6.92626e-14 -2.67117e-13 -1.66896e-13)
(2.67995e-14 -1.55849e-13 -5.43783e-13)
(8.2384e-13 1.52074e-13 -5.84922e-14)
(7.04611e-13 -1.96716e-13 -2.79963e-14)
(5.65186e-13 -6.66428e-13 -2.44243e-14)
(4.4607e-13 -6.10236e-13 -2.41829e-14)
(3.4547e-13 -5.54647e-13 -2.66197e-14)