/*--------------------------------*- C++ -*----------------------------------*\
| =========                 |                                                 |
| \\      /  F ield         | OpenFOAM: The Open Source CFD Toolbox           |
|  \\    /   O peration     | Version:  4.1                                   |
|   \\  /    A nd           | Web:      www.OpenFOAM.org                      |
|    \\/     M anipulation  |                                                 |
\*---------------------------------------------------------------------------*/
FoamFile
{
    version     2.0;
    format      ascii;
    class       volScalarField;
    location    "8.22";
    object      T;
}
// * * * * * * * * * * * * * * * * * * * * * * * * * * * * * * * * * * * * * //

dimensions      [0 0 0 1 0 0 0];

internalField   nonuniform List<scalar> 
52500
(
0.999996
1.00002
1.00005
1.00019
1.00035
1.00113
1.00207
1.00633
1.01267
1.03412
1.08666
1.20328
1.58762
2.44824
2.68891
2.72757
2.72433
2.72458
2.73845
2.75062
2.76409
2.77288
2.78034
2.78546
2.79002
0.999996
1.00002
1.00005
1.00019
1.00035
1.00112
1.00205
1.00626
1.01254
1.03375
1.08591
1.20074
1.58318
2.4403
2.68609
2.72747
2.72396
2.72416
2.73789
2.74982
2.7632
2.77143
2.77894
2.78316
2.78699
0.999996
1.00002
1.00005
1.00018
1.00034
1.00109
1.00201
1.00612
1.01226
1.03297
1.0843
1.1955
1.5733
2.42242
2.67896
2.72632
2.72222
2.72231
2.73588
2.74754
2.76081
2.76926
2.77535
2.78045
2.78304
0.999996
1.00002
1.00005
1.00018
1.00033
1.00106
1.00193
1.0059
1.01184
1.03181
1.08181
1.18764
1.55779
2.3932
2.66778
2.72439
2.71965
2.71866
2.73182
2.74355
2.75469
2.76451
2.77142
2.77386
2.77817
0.999996
1.00002
1.00004
1.00017
1.00031
1.001
1.00184
1.0055
1.01132
1.02977
1.07892
1.17761
1.53692
2.35118
2.65195
2.72172
2.71596
2.71388
2.7256
2.73808
2.74999
2.75512
2.76247
2.76724
2.76755
0.999996
1.00002
1.00004
1.00016
1.00029
1.00093
1.00172
1.00509
1.01066
1.02756
1.07429
1.16448
1.51153
2.29711
2.63164
2.71851
2.71204
2.70719
2.71971
2.72681
2.74126
2.74806
2.75213
2.75471
2.75787
0.999995
1.00002
1.00004
1.00014
1.00027
1.00086
1.00159
1.00471
1.00985
1.02547
1.06836
1.1519
1.47013
2.22016
2.60315
2.71329
2.70663
2.70007
2.71287
2.71993
2.72676
2.73358
2.73876
2.73985
2.73727
0.999995
1.00001
1.00003
1.00013
1.00024
1.0008
1.00146
1.00447
1.00888
1.02397
1.06029
1.13912
1.41268
2.11412
2.56669
2.70312
2.69504
2.68676
2.69883
2.70965
2.71738
2.71764
2.71892
2.7179
2.71505
0.999995
1.00001
1.00003
1.00012
1.00022
1.00072
1.00131
1.00409
1.00784
1.0222
1.05129
1.12464
1.35049
1.98424
2.5203
2.69265
2.68569
2.67172
2.68179
2.68709
2.69771
2.69992
2.69622
2.68668
2.66392
0.999995
1.00001
1.00003
1.0001
1.00019
1.00062
1.00116
1.00355
1.00689
1.01948
1.04398
1.11124
1.29316
1.88197
2.43881
2.66395
2.66379
2.65958
2.67133
2.67168
2.67343
2.67224
2.66331
2.64193
2.59126
1.00001
1.00003
1.00006
1.0002
1.00036
1.00114
1.00208
1.00634
1.01268
1.03414
1.08667
1.20333
1.58766
2.44836
2.689
2.72764
2.7244
2.72465
2.73853
2.7507
2.76417
2.77296
2.78042
2.78554
2.79011
1.00001
1.00003
1.00006
1.0002
1.00035
1.00113
1.00206
1.00627
1.01255
1.03377
1.08592
1.20078
1.58321
2.44043
2.68617
2.72754
2.72404
2.72423
2.73797
2.7499
2.76328
2.77151
2.77902
2.78325
2.78708
1
1.00003
1.00006
1.00019
1.00035
1.0011
1.00201
1.00613
1.01227
1.03299
1.08431
1.19555
1.57333
2.42254
2.67904
2.72639
2.7223
2.72238
2.73595
2.74761
2.76089
2.76934
2.77543
2.78053
2.78313
1
1.00003
1.00006
1.00018
1.00033
1.00106
1.00194
1.00591
1.01185
1.03183
1.08182
1.18769
1.55782
2.39333
2.66786
2.72446
2.71972
2.71873
2.7319
2.74363
2.75476
2.76459
2.7715
2.77395
2.77825
1
1.00003
1.00005
1.00017
1.00032
1.001
1.00185
1.00552
1.01133
1.02979
1.07892
1.17765
1.53694
2.35131
2.65203
2.72179
2.71603
2.71395
2.72567
2.73815
2.75007
2.7552
2.76255
2.76732
2.76763
1
1.00003
1.00005
1.00016
1.0003
1.00094
1.00173
1.0051
1.01067
1.02758
1.0743
1.16453
1.51158
2.29726
2.63172
2.71858
2.71211
2.70726
2.71978
2.72688
2.74133
2.74813
2.7522
2.75479
2.75795
1
1.00002
1.00005
1.00015
1.00027
1.00087
1.0016
1.00472
1.00986
1.02549
1.06838
1.15194
1.47018
2.22032
2.60323
2.71336
2.7067
2.70014
2.71294
2.72
2.72683
2.73366
2.73883
2.73992
2.73734
1
1.00002
1.00004
1.00014
1.00025
1.00081
1.00147
1.00448
1.00889
1.02399
1.06029
1.13916
1.4127
2.11425
2.56676
2.70318
2.6951
2.68683
2.6989
2.70972
2.71745
2.71771
2.71898
2.71797
2.71512
1
1.00002
1.00004
1.00013
1.00023
1.00073
1.00132
1.0041
1.00785
1.02221
1.0513
1.12468
1.35054
1.98436
2.5204
2.69273
2.68576
2.67179
2.68186
2.68715
2.69778
2.7
2.69629
2.68674
2.66399
1
1.00002
1.00003
1.00011
1.0002
1.00063
1.00116
1.00356
1.0069
1.01949
1.04399
1.11127
1.29318
1.88212
2.43884
2.66401
2.66385
2.65964
2.6714
2.67174
2.67348
2.6723
2.66338
2.642
2.59131
1.00001
1.00003
1.00006
1.0002
1.00036
1.00114
1.00208
1.00634
1.01268
1.03414
1.08667
1.20333
1.58766
2.44837
2.689
2.72764
2.7244
2.72465
2.73853
2.7507
2.76417
2.77296
2.78042
2.78554
2.79011
1.00001
1.00003
1.00006
1.0002
1.00035
1.00113
1.00206
1.00627
1.01255
1.03377
1.08592
1.20078
1.58321
2.44043
2.68618
2.72754
2.72404
2.72423
2.73797
2.7499
2.76328
2.77151
2.77902
2.78325
2.78708
1
1.00003
1.00006
1.00019
1.00035
1.0011
1.00201
1.00613
1.01227
1.03299
1.08431
1.19555
1.57333
2.42255
2.67904
2.72639
2.7223
2.72238
2.73595
2.74761
2.76089
2.76934
2.77543
2.78053
2.78313
1
1.00003
1.00006
1.00018
1.00033
1.00106
1.00194
1.00591
1.01185
1.03183
1.08182
1.18769
1.55782
2.39333
2.66786
2.72446
2.71972
2.71873
2.7319
2.74363
2.75476
2.76459
2.7715
2.77395
2.77825
1
1.00003
1.00005
1.00017
1.00032
1.001
1.00185
1.00552
1.01133
1.02979
1.07893
1.17766
1.53694
2.35131
2.65203
2.72179
2.71603
2.71395
2.72567
2.73815
2.75007
2.7552
2.76255
2.76732
2.76763
1
1.00003
1.00005
1.00016
1.0003
1.00094
1.00173
1.0051
1.01067
1.02758
1.0743
1.16453
1.51158
2.29726
2.63172
2.71858
2.71211
2.70726
2.71978
2.72688
2.74133
2.74813
2.7522
2.75479
2.75795
1
1.00002
1.00005
1.00015
1.00027
1.00087
1.0016
1.00472
1.00986
1.02549
1.06838
1.15194
1.47019
2.22033
2.60323
2.71336
2.7067
2.70014
2.71294
2.72
2.72683
2.73366
2.73883
2.73992
2.73734
1
1.00002
1.00004
1.00014
1.00025
1.00081
1.00147
1.00448
1.00889
1.02399
1.0603
1.13916
1.41271
2.11427
2.56677
2.70318
2.6951
2.68683
2.6989
2.70972
2.71745
2.71771
2.71898
2.71797
2.71512
1
1.00002
1.00004
1.00013
1.00023
1.00073
1.00132
1.0041
1.00785
1.02221
1.0513
1.12468
1.35054
1.98437
2.5204
2.69273
2.68576
2.67179
2.68186
2.68715
2.69779
2.7
2.69629
2.68674
2.66398
1
1.00002
1.00003
1.00011
1.0002
1.00063
1.00116
1.00356
1.0069
1.01949
1.04399
1.11128
1.29319
1.88213
2.43884
2.66401
2.66385
2.65965
2.6714
2.67174
2.67348
2.6723
2.66338
2.642
2.59131
1.00001
1.00003
1.00006
1.0002
1.00036
1.00114
1.00208
1.00634
1.01268
1.03414
1.08667
1.20333
1.58766
2.44837
2.689
2.72764
2.7244
2.72465
2.73853
2.7507
2.76417
2.77296
2.78042
2.78554
2.79011
1.00001
1.00003
1.00006
1.0002
1.00035
1.00113
1.00206
1.00627
1.01255
1.03377
1.08592
1.20078
1.58321
2.44043
2.68618
2.72754
2.72404
2.72423
2.73797
2.7499
2.76328
2.77151
2.77902
2.78325
2.78708
1
1.00003
1.00006
1.00019
1.00035
1.0011
1.00201
1.00613
1.01227
1.03299
1.08431
1.19555
1.57333
2.42255
2.67904
2.72639
2.7223
2.72238
2.73595
2.74761
2.76089
2.76934
2.77543
2.78053
2.78313
1
1.00003
1.00006
1.00018
1.00033
1.00106
1.00194
1.00591
1.01185
1.03183
1.08182
1.18769
1.55782
2.39334
2.66786
2.72446
2.71972
2.71873
2.7319
2.74363
2.75476
2.76459
2.7715
2.77395
2.77825
1
1.00003
1.00005
1.00017
1.00032
1.001
1.00185
1.00552
1.01133
1.02979
1.07893
1.17766
1.53694
2.35131
2.65204
2.72179
2.71603
2.71395
2.72567
2.73815
2.75007
2.7552
2.76255
2.76732
2.76763
1
1.00003
1.00005
1.00016
1.0003
1.00094
1.00173
1.0051
1.01067
1.02758
1.0743
1.16453
1.51158
2.29726
2.63172
2.71858
2.71211
2.70726
2.71978
2.72688
2.74133
2.74813
2.7522
2.75479
2.75795
1
1.00002
1.00005
1.00015
1.00027
1.00087
1.0016
1.00472
1.00986
1.02549
1.06838
1.15194
1.47019
2.22033
2.60323
2.71336
2.7067
2.70014
2.71294
2.72
2.72683
2.73366
2.73883
2.73992
2.73735
1
1.00002
1.00004
1.00014
1.00025
1.00081
1.00147
1.00448
1.00889
1.02399
1.0603
1.13916
1.41271
2.11427
2.56677
2.70318
2.6951
2.68683
2.6989
2.70972
2.71745
2.71771
2.71898
2.71797
2.71512
1
1.00002
1.00004
1.00013
1.00023
1.00073
1.00132
1.0041
1.00785
1.02221
1.0513
1.12468
1.35054
1.98438
2.5204
2.69273
2.68576
2.67179
2.68186
2.68715
2.69779
2.7
2.69629
2.68674
2.66398
1
1.00002
1.00003
1.00011
1.0002
1.00063
1.00116
1.00356
1.0069
1.01949
1.04399
1.11128
1.29319
1.88213
2.43884
2.66401
2.66385
2.65965
2.6714
2.67174
2.67348
2.6723
2.66338
2.642
2.59131
1.00001
1.00003
1.00006
1.0002
1.00036
1.00114
1.00208
1.00634
1.01268
1.03414
1.08667
1.20333
1.58766
2.44837
2.689
2.72764
2.7244
2.72465
2.73853
2.7507
2.76417
2.77296
2.78042
2.78554
2.79011
1.00001
1.00003
1.00006
1.0002
1.00035
1.00113
1.00206
1.00627
1.01255
1.03377
1.08592
1.20078
1.58321
2.44043
2.68618
2.72754
2.72404
2.72423
2.73797
2.7499
2.76328
2.77151
2.77902
2.78325
2.78708
1
1.00003
1.00006
1.00019
1.00035
1.0011
1.00201
1.00613
1.01227
1.03299
1.08431
1.19555
1.57333
2.42255
2.67904
2.72639
2.7223
2.72238
2.73595
2.74761
2.76089
2.76934
2.77543
2.78053
2.78313
1
1.00003
1.00006
1.00018
1.00033
1.00106
1.00194
1.00591
1.01185
1.03183
1.08182
1.18769
1.55782
2.39334
2.66786
2.72446
2.71972
2.71873
2.7319
2.74363
2.75476
2.76459
2.7715
2.77395
2.77825
1
1.00003
1.00005
1.00017
1.00032
1.001
1.00185
1.00552
1.01133
1.02979
1.07893
1.17766
1.53694
2.35132
2.65204
2.72179
2.71603
2.71395
2.72567
2.73815
2.75007
2.7552
2.76255
2.76732
2.76763
1
1.00003
1.00005
1.00016
1.0003
1.00094
1.00173
1.0051
1.01067
1.02758
1.0743
1.16453
1.51158
2.29727
2.63172
2.71858
2.71211
2.70726
2.71978
2.72688
2.74133
2.74813
2.7522
2.75479
2.75795
1
1.00002
1.00005
1.00015
1.00027
1.00087
1.0016
1.00472
1.00986
1.02549
1.06838
1.15194
1.47019
2.22033
2.60323
2.71336
2.7067
2.70014
2.71294
2.72
2.72683
2.73366
2.73883
2.73992
2.73734
1
1.00002
1.00004
1.00014
1.00025
1.00081
1.00147
1.00448
1.00889
1.02399
1.0603
1.13916
1.41271
2.11427
2.56677
2.70318
2.6951
2.68683
2.6989
2.70972
2.71745
2.71771
2.71898
2.71797
2.71512
1
1.00002
1.00004
1.00013
1.00023
1.00073
1.00132
1.0041
1.00785
1.02221
1.0513
1.12468
1.35054
1.98438
2.5204
2.69273
2.68576
2.67179
2.68186
2.68715
2.69779
2.7
2.69629
2.68674
2.66398
1
1.00002
1.00003
1.00011
1.0002
1.00063
1.00116
1.00356
1.0069
1.01949
1.04399
1.11128
1.29319
1.88213
2.43884
2.66401
2.66385
2.65965
2.6714
2.67174
2.67348
2.6723
2.66338
2.642
2.59131
1.00001
1.00003
1.00006
1.0002
1.00036
1.00114
1.00208
1.00634
1.01268
1.03414
1.08667
1.20333
1.58766
2.44837
2.689
2.72764
2.7244
2.72465
2.73853
2.7507
2.76417
2.77296
2.78042
2.78554
2.79011
1.00001
1.00003
1.00006
1.0002
1.00035
1.00113
1.00206
1.00627
1.01255
1.03377
1.08592
1.20078
1.58321
2.44043
2.68618
2.72754
2.72404
2.72423
2.73797
2.7499
2.76328
2.77151
2.77902
2.78325
2.78708
1
1.00003
1.00006
1.00019
1.00035
1.0011
1.00201
1.00613
1.01227
1.03299
1.08431
1.19555
1.57333
2.42255
2.67904
2.72639
2.7223
2.72238
2.73595
2.74761
2.76089
2.76934
2.77543
2.78053
2.78313
1
1.00003
1.00006
1.00018
1.00033
1.00106
1.00194
1.00591
1.01185
1.03183
1.08182
1.18769
1.55782
2.39334
2.66786
2.72446
2.71972
2.71873
2.7319
2.74363
2.75476
2.76459
2.7715
2.77395
2.77825
1
1.00003
1.00005
1.00017
1.00032
1.001
1.00185
1.00552
1.01133
1.02979
1.07893
1.17766
1.53694
2.35132
2.65204
2.72179
2.71603
2.71395
2.72567
2.73815
2.75007
2.7552
2.76255
2.76732
2.76763
1
1.00003
1.00005
1.00016
1.0003
1.00094
1.00173
1.0051
1.01067
1.02758
1.0743
1.16453
1.51158
2.29727
2.63172
2.71858
2.7121
2.70726
2.71978
2.72688
2.74133
2.74813
2.7522
2.75479
2.75795
1
1.00002
1.00005
1.00015
1.00027
1.00087
1.0016
1.00472
1.00986
1.02549
1.06838
1.15194
1.47019
2.22033
2.60323
2.71336
2.7067
2.70014
2.71294
2.72
2.72683
2.73366
2.73883
2.73992
2.73734
1
1.00002
1.00004
1.00014
1.00025
1.00081
1.00147
1.00448
1.00889
1.02399
1.0603
1.13916
1.41271
2.11427
2.56677
2.70318
2.6951
2.68683
2.6989
2.70972
2.71745
2.71771
2.71898
2.71797
2.71512
1
1.00002
1.00004
1.00013
1.00023
1.00073
1.00132
1.0041
1.00785
1.02221
1.0513
1.12468
1.35054
1.98438
2.5204
2.69273
2.68576
2.67179
2.68186
2.68715
2.69779
2.7
2.69629
2.68674
2.66398
1
1.00002
1.00003
1.00011
1.0002
1.00063
1.00116
1.00356
1.0069
1.01949
1.04399
1.11128
1.29319
1.88214
2.43884
2.66401
2.66385
2.65965
2.6714
2.67174
2.67348
2.6723
2.66338
2.642
2.59131
1.00001
1.00003
1.00006
1.0002
1.00036
1.00114
1.00208
1.00634
1.01268
1.03414
1.08667
1.20333
1.58766
2.44837
2.689
2.72764
2.7244
2.72465
2.73853
2.7507
2.76417
2.77296
2.78042
2.78554
2.79011
1.00001
1.00003
1.00006
1.0002
1.00035
1.00113
1.00206
1.00627
1.01255
1.03377
1.08592
1.20078
1.58321
2.44043
2.68618
2.72754
2.72404
2.72423
2.73797
2.7499
2.76328
2.77151
2.77902
2.78325
2.78708
1
1.00003
1.00006
1.00019
1.00035
1.0011
1.00201
1.00613
1.01227
1.03299
1.08431
1.19555
1.57333
2.42255
2.67904
2.72639
2.7223
2.72238
2.73595
2.74761
2.76089
2.76934
2.77543
2.78053
2.78313
1
1.00003
1.00006
1.00018
1.00033
1.00106
1.00194
1.00591
1.01185
1.03183
1.08182
1.18769
1.55782
2.39334
2.66786
2.72446
2.71972
2.71873
2.7319
2.74363
2.75476
2.76459
2.7715
2.77395
2.77825
1
1.00003
1.00005
1.00017
1.00032
1.001
1.00185
1.00552
1.01133
1.02979
1.07893
1.17766
1.53694
2.35132
2.65204
2.72179
2.71603
2.71395
2.72567
2.73815
2.75007
2.7552
2.76255
2.76732
2.76763
1
1.00003
1.00005
1.00016
1.0003
1.00094
1.00173
1.0051
1.01067
1.02758
1.0743
1.16453
1.51158
2.29726
2.63172
2.71858
2.71211
2.70726
2.71978
2.72688
2.74133
2.74813
2.7522
2.75479
2.75795
1
1.00002
1.00005
1.00015
1.00027
1.00087
1.0016
1.00472
1.00986
1.02549
1.06838
1.15194
1.47019
2.22033
2.60323
2.71336
2.7067
2.70014
2.71294
2.72
2.72683
2.73366
2.73883
2.73992
2.73735
1
1.00002
1.00004
1.00014
1.00025
1.00081
1.00147
1.00448
1.00889
1.02399
1.0603
1.13916
1.41271
2.11427
2.56677
2.70318
2.6951
2.68683
2.6989
2.70972
2.71745
2.71771
2.71898
2.71797
2.71512
1
1.00002
1.00004
1.00013
1.00023
1.00073
1.00132
1.0041
1.00785
1.02221
1.0513
1.12468
1.35054
1.98438
2.5204
2.69273
2.68576
2.67179
2.68186
2.68715
2.69779
2.7
2.69629
2.68674
2.66398
1
1.00002
1.00003
1.00011
1.0002
1.00063
1.00116
1.00356
1.0069
1.01949
1.04399
1.11128
1.29319
1.88213
2.43884
2.66401
2.66385
2.65965
2.6714
2.67174
2.67348
2.6723
2.66338
2.642
2.59131
1.00001
1.00003
1.00006
1.0002
1.00036
1.00114
1.00208
1.00634
1.01268
1.03414
1.08667
1.20333
1.58766
2.44837
2.689
2.72764
2.7244
2.72465
2.73853
2.7507
2.76417
2.77296
2.78042
2.78554
2.79011
1.00001
1.00003
1.00006
1.0002
1.00035
1.00113
1.00206
1.00627
1.01255
1.03377
1.08592
1.20078
1.58321
2.44043
2.68618
2.72754
2.72404
2.72423
2.73797
2.7499
2.76328
2.77151
2.77902
2.78325
2.78708
1
1.00003
1.00006
1.00019
1.00035
1.0011
1.00201
1.00613
1.01227
1.03299
1.08431
1.19555
1.57333
2.42255
2.67904
2.72639
2.7223
2.72238
2.73595
2.74761
2.76089
2.76934
2.77543
2.78053
2.78313
1
1.00003
1.00006
1.00018
1.00033
1.00106
1.00194
1.00591
1.01185
1.03183
1.08182
1.18769
1.55782
2.39333
2.66786
2.72446
2.71972
2.71873
2.7319
2.74363
2.75476
2.76459
2.7715
2.77395
2.77825
1
1.00003
1.00005
1.00017
1.00032
1.001
1.00185
1.00552
1.01133
1.02979
1.07893
1.17766
1.53694
2.35131
2.65203
2.72179
2.71603
2.71395
2.72567
2.73815
2.75007
2.7552
2.76255
2.76732
2.76763
1
1.00003
1.00005
1.00016
1.0003
1.00094
1.00173
1.0051
1.01067
1.02758
1.0743
1.16453
1.51158
2.29726
2.63172
2.71858
2.71211
2.70726
2.71978
2.72688
2.74133
2.74813
2.7522
2.75479
2.75795
1
1.00002
1.00005
1.00015
1.00027
1.00087
1.0016
1.00472
1.00986
1.02549
1.06838
1.15194
1.47019
2.22033
2.60323
2.71336
2.7067
2.70014
2.71294
2.72
2.72683
2.73366
2.73883
2.73992
2.73734
1
1.00002
1.00004
1.00014
1.00025
1.00081
1.00147
1.00448
1.00889
1.02399
1.0603
1.13916
1.41271
2.11427
2.56677
2.70318
2.6951
2.68683
2.6989
2.70972
2.71745
2.71771
2.71898
2.71797
2.71512
1
1.00002
1.00004
1.00013
1.00023
1.00073
1.00132
1.0041
1.00785
1.02221
1.0513
1.12468
1.35054
1.98437
2.5204
2.69273
2.68576
2.67179
2.68186
2.68715
2.69779
2.7
2.69629
2.68674
2.66398
1
1.00002
1.00003
1.00011
1.0002
1.00063
1.00116
1.00356
1.0069
1.01949
1.04399
1.11128
1.29319
1.88213
2.43884
2.66401
2.66385
2.65965
2.6714
2.67174
2.67348
2.6723
2.66338
2.642
2.59131
1.00001
1.00003
1.00006
1.0002
1.00036
1.00114
1.00208
1.00634
1.01268
1.03414
1.08667
1.20333
1.58766
2.44836
2.689
2.72764
2.7244
2.72465
2.73853
2.7507
2.76417
2.77296
2.78042
2.78554
2.79011
1.00001
1.00003
1.00006
1.0002
1.00035
1.00113
1.00206
1.00627
1.01255
1.03377
1.08592
1.20078
1.58321
2.44043
2.68617
2.72754
2.72404
2.72423
2.73797
2.7499
2.76328
2.77151
2.77902
2.78325
2.78708
1
1.00003
1.00006
1.00019
1.00035
1.0011
1.00201
1.00613
1.01227
1.03299
1.08431
1.19555
1.57333
2.42254
2.67904
2.72639
2.7223
2.72238
2.73595
2.74761
2.76089
2.76934
2.77543
2.78053
2.78313
1
1.00003
1.00006
1.00018
1.00033
1.00106
1.00194
1.00591
1.01185
1.03183
1.08182
1.18769
1.55782
2.39333
2.66786
2.72446
2.71972
2.71873
2.7319
2.74363
2.75476
2.76459
2.7715
2.77395
2.77825
1
1.00003
1.00005
1.00017
1.00032
1.001
1.00185
1.00552
1.01133
1.02979
1.07892
1.17765
1.53694
2.35131
2.65203
2.72179
2.71603
2.71395
2.72567
2.73815
2.75007
2.7552
2.76255
2.76732
2.76763
1
1.00003
1.00005
1.00016
1.0003
1.00094
1.00173
1.0051
1.01067
1.02758
1.0743
1.16453
1.51158
2.29726
2.63172
2.71858
2.71211
2.70726
2.71978
2.72688
2.74133
2.74813
2.7522
2.75479
2.75795
1
1.00002
1.00005
1.00015
1.00027
1.00087
1.0016
1.00472
1.00986
1.02549
1.06838
1.15194
1.47018
2.22032
2.60323
2.71336
2.7067
2.70014
2.71294
2.72
2.72683
2.73366
2.73883
2.73992
2.73734
1
1.00002
1.00004
1.00014
1.00025
1.00081
1.00147
1.00448
1.00889
1.02399
1.06029
1.13916
1.4127
2.11425
2.56676
2.70318
2.6951
2.68683
2.6989
2.70972
2.71745
2.71771
2.71898
2.71797
2.71512
1
1.00002
1.00004
1.00013
1.00023
1.00073
1.00132
1.0041
1.00785
1.02221
1.0513
1.12468
1.35054
1.98436
2.5204
2.69273
2.68576
2.67179
2.68186
2.68715
2.69778
2.7
2.69629
2.68674
2.66399
1
1.00002
1.00003
1.00011
1.0002
1.00063
1.00116
1.00356
1.0069
1.01949
1.04399
1.11127
1.29318
1.88212
2.43884
2.66401
2.66385
2.65964
2.6714
2.67174
2.67348
2.6723
2.66338
2.642
2.59131
0.999996
1.00002
1.00005
1.00019
1.00035
1.00113
1.00207
1.00633
1.01267
1.03412
1.08666
1.20328
1.58762
2.44824
2.68891
2.72757
2.72433
2.72458
2.73845
2.75062
2.76409
2.77288
2.78034
2.78546
2.79002
0.999996
1.00002
1.00005
1.00019
1.00035
1.00112
1.00205
1.00626
1.01254
1.03375
1.08591
1.20074
1.58318
2.4403
2.68609
2.72747
2.72396
2.72416
2.73789
2.74982
2.7632
2.77143
2.77894
2.78316
2.78699
0.999996
1.00002
1.00005
1.00018
1.00034
1.00109
1.00201
1.00612
1.01226
1.03297
1.0843
1.1955
1.57329
2.42242
2.67896
2.72632
2.72222
2.72231
2.73588
2.74754
2.76081
2.76926
2.77535
2.78045
2.78304
0.999996
1.00002
1.00005
1.00018
1.00033
1.00106
1.00193
1.0059
1.01184
1.03181
1.08181
1.18764
1.55778
2.3932
2.66778
2.72439
2.71965
2.71866
2.73182
2.74355
2.75469
2.76451
2.77142
2.77386
2.77817
0.999996
1.00002
1.00004
1.00017
1.00031
1.001
1.00184
1.0055
1.01132
1.02977
1.07892
1.17761
1.53692
2.35118
2.65195
2.72172
2.71596
2.71388
2.7256
2.73808
2.74999
2.75512
2.76247
2.76724
2.76755
0.999996
1.00002
1.00004
1.00016
1.00029
1.00093
1.00172
1.00509
1.01066
1.02756
1.07429
1.16448
1.51153
2.29711
2.63164
2.71851
2.71204
2.70719
2.71971
2.72681
2.74126
2.74806
2.75213
2.75471
2.75787
0.999995
1.00002
1.00004
1.00014
1.00027
1.00086
1.00159
1.00471
1.00985
1.02547
1.06836
1.1519
1.47013
2.22016
2.60315
2.71329
2.70663
2.70007
2.71287
2.71993
2.72676
2.73358
2.73876
2.73985
2.73727
0.999995
1.00001
1.00003
1.00013
1.00024
1.0008
1.00146
1.00447
1.00888
1.02397
1.06029
1.13912
1.41268
2.11412
2.56669
2.70312
2.69504
2.68676
2.69883
2.70965
2.71738
2.71764
2.71892
2.7179
2.71505
0.999995
1.00001
1.00003
1.00012
1.00022
1.00072
1.00131
1.00409
1.00784
1.0222
1.05129
1.12464
1.35049
1.98424
2.5203
2.69265
2.68569
2.67172
2.68179
2.68709
2.69771
2.69992
2.69622
2.68668
2.66392
0.999995
1.00001
1.00003
1.0001
1.00019
1.00062
1.00116
1.00355
1.00689
1.01948
1.04398
1.11124
1.29316
1.88197
2.43881
2.66395
2.66379
2.65958
2.67133
2.67168
2.67343
2.67224
2.66331
2.64193
2.59126
0.999997
1
1.00003
1.00006
1.00022
1.00041
1.00126
1.00242
1.00686
1.01512
1.03789
1.10424
1.23898
1.66699
2.48426
2.63524
2.62589
2.63172
2.64367
2.65295
2.65128
2.64296
2.62229
2.57286
2.41336
0.999996
1
1.00003
1.00006
1.0002
1.00036
1.00115
1.00211
1.00648
1.0128
1.03478
1.08652
1.20674
1.58226
2.41447
2.61183
2.62263
2.61593
2.61732
2.62668
2.62535
2.61131
2.57731
2.51942
2.3597
0.999996
1
1.00002
1.00005
1.00016
1.0003
1.00097
1.00179
1.00534
1.01097
1.02875
1.07603
1.17055
1.51361
2.28418
2.56242
2.61906
2.61049
2.59476
2.59537
2.59464
2.58117
2.54083
2.48518
2.36198
0.999995
0.999999
1.00002
1.00004
1.00014
1.00025
1.00081
1.0015
1.00442
1.00922
1.0238
1.06337
1.14084
1.43113
2.1125
2.5043
2.61445
2.60256
2.58844
2.56977
2.55831
2.5447
2.51278
2.46722
2.36862
0.999995
0.999998
1.00001
1.00003
1.00011
1.00021
1.00068
1.00125
1.00386
1.00748
1.02106
1.04826
1.11983
1.32414
1.95101
2.38502
2.58122
2.58053
2.57569
2.56074
2.53586
2.51064
2.47327
2.44305
2.3738
0.999994
0.999999
1
1.00003
1.00006
1.00022
1.0004
1.00125
1.0024
1.00677
1.01495
1.03726
1.10172
1.23445
1.63488
2.363
2.53735
2.5382
2.54134
2.53721
2.52236
2.49833
2.44768
2.40642
2.36554
0.999994
0.999998
1
1.00002
1.00005
1.00018
1.00033
1.00106
1.00193
1.00593
1.01168
1.03166
1.07916
1.18392
1.5305
2.27944
2.50113
2.52263
2.51278
2.50756
2.49571
2.48158
2.44573
2.38743
2.34232
0.999994
0.999996
1
1.00002
1.00004
1.00013
1.00025
1.00079
1.0015
1.00429
1.00931
1.02338
1.06379
1.14015
1.43137
2.10306
2.43739
2.51495
2.49839
2.48827
2.46763
2.4459
2.43051
2.38733
2.33363
0.999993
0.999994
0.999999
1.00001
1.00004
1.00007
1.00024
1.00046
1.00131
1.00286
1.00711
1.01887
1.04231
1.12498
1.27956
1.80972
2.29774
2.49004
2.48647
2.47546
2.458
2.42783
2.40001
2.37767
2.33194
0.999993
0.999994
0.999998
1
1.00003
1.00006
1.00019
1.00036
1.00114
1.00212
1.00628
1.01296
1.03384
1.08766
1.20349
1.56259
2.25342
2.4254
2.44936
2.44313
2.43414
2.41582
2.38357
2.35815
2.32657
0.999992
0.999993
0.999995
1
1.00001
1.00005
1.0001
1.00033
1.00064
1.00178
1.00395
1.0097
1.02616
1.05772
1.17531
1.39527
2.0409
2.38363
2.43827
2.42984
2.41269
2.3951
2.37026
2.34086
2.31239
0.999992
0.999993
0.999994
0.999999
1.00001
1.00004
1.00008
1.00026
1.00048
1.00151
1.00286
1.00805
1.01793
1.04401
1.12299
1.28075
1.73873
2.24923
2.41302
2.4112
2.39792
2.37995
2.35755
2.33188
2.30372
0.999992
0.999992
0.999994
0.999996
1.00001
1.00002
1.00007
1.00014
1.00046
1.00087
1.00262
1.00513
1.01438
1.03144
1.0817
1.19752
1.58736
2.08978
2.35913
2.389
2.3823
2.36684
2.34239
2.31845
2.29388
0.999991
0.999992
0.999993
0.999994
1
1.00001
1.00005
1.0001
1.00033
1.00061
1.00188
1.00361
1.01003
1.02257
1.05477
1.15144
1.35988
1.89157
2.24665
2.36065
2.3641
2.35611
2.33798
2.31171
2.28746
0.999991
0.999991
0.999992
0.999994
0.999997
1.00001
1.00002
1.00009
1.00018
1.00056
1.00105
1.00313
1.00616
1.01693
1.03794
1.09532
1.2387
1.67973
2.11569
2.3035
2.3287
2.32846
2.32287
2.30646
2.28649
0.999991
0.999991
0.999992
0.999993
0.999995
1
1.00001
1.00006
1.00012
1.00039
1.00073
1.00224
1.00424
1.01207
1.02619
1.06447
1.16875
1.43368
1.96525
2.24857
2.30009
2.30556
2.30059
2.29583
2.28686
0.999991
0.999991
0.999991
0.999992
0.999995
0.999998
1.00001
1.00003
1.00011
1.00021
1.00065
1.00121
1.00363
1.00716
1.01936
1.0455
1.10812
1.29144
1.77582
2.14005
2.27492
2.28227
2.27845
2.27641
2.27795
0.999991
0.999991
0.999991
0.999992
0.999993
0.999995
1.00001
1.00002
1.00007
1.00014
1.00045
1.00083
1.00253
1.00483
1.01388
1.02858
1.07808
1.17565
1.5459
1.95578
2.21789
2.26946
2.27411
2.27677
2.28572
0.999991
0.999991
0.999991
0.999991
0.999992
0.999995
0.999998
1.00001
1.00003
1.00012
1.00023
1.0007
1.00133
1.00386
1.00786
1.02055
1.05076
1.11643
1.32192
1.84162
2.10122
2.22871
2.25509
2.27675
2.30544
0.999991
0.999991
0.999991
0.999991
0.999992
0.999993
0.999997
1
1.00003
1.00006
1.00019
1.00036
1.0011
1.0021
1.00598
1.01251
1.03183
1.08053
1.18621
1.48708
2.02827
2.20252
2.25673
2.29465
2.33537
0.999991
0.999991
0.999991
0.999991
0.999992
0.999992
0.999995
0.999999
1.00002
1.00004
1.00013
1.00024
1.00077
1.00141
1.00426
1.00823
1.02249
1.05257
1.12282
1.34026
1.87219
2.13841
2.27029
2.34294
2.39067
0.999991
0.999991
0.999991
0.999991
0.999991
0.999992
0.999993
0.999998
1
1.00003
1.00006
1.00021
1.00039
1.00121
1.00227
1.00663
1.01348
1.03531
1.0843
1.21091
1.51446
2.09052
2.30124
2.40936
2.44638
0.999991
0.999991
0.999991
0.999991
0.999991
0.999992
0.999992
0.999996
1
1.00002
1.00004
1.00015
1.00028
1.00089
1.00163
1.00492
1.00965
1.02594
1.06334
1.1454
1.4162
2.01126
2.35928
2.52352
2.51994
0.999991
0.999991
0.999991
0.999991
0.999991
0.999991
0.999992
0.999995
0.999998
1.00001
1.00003
1.00012
1.00022
1.0007
1.00127
1.00396
1.00749
1.02158
1.04714
1.1207
1.31093
1.89075
2.36412
2.61585
2.58674
0.999991
0.999991
0.999991
0.999991
0.999991
0.999991
0.999992
0.999994
0.999996
1.00001
1.00002
1.00009
1.00018
1.00058
1.00107
1.00331
1.00645
1.01828
1.0415
1.10422
1.27909
1.8146
2.43011
2.68044
2.63592
0.999991
0.999991
0.999991
0.999991
0.999991
0.999991
0.999992
0.999993
0.999997
1
1.00003
1.00006
1.0002
1.00038
1.00115
1.00234
1.00628
1.0152
1.03647
1.10544
1.23866
1.68274
2.52586
2.73602
2.71238
0.999991
0.999991
0.999991
0.999991
0.999991
0.999991
0.999991
0.999993
0.999995
1
1.00001
1.00006
1.00013
1.0004
1.00086
1.00223
1.00569
1.01327
1.03839
1.08213
1.26198
1.66307
2.45061
2.74647
2.74598
0.999991
0.999991
0.999991
0.999991
0.999991
0.999991
0.999992
0.999992
0.999996
1
1.00002
1.00005
1.00017
1.00033
1.00105
1.00204
1.00587
1.01314
1.03346
1.09384
1.21359
1.6356
2.47795
2.73703
2.75266
0.999991
0.999991
0.999991
0.999991
0.999991
0.999991
0.999992
0.999992
0.999996
1
1.00002
1.00004
1.00016
1.0003
1.00097
1.0019
1.00544
1.01236
1.03124
1.08893
1.1993
1.61377
2.45244
2.74454
2.76042
0.999991
0.999991
0.999991
0.999991
0.999991
0.999991
0.999991
0.999992
0.999994
1
1.00001
1.00005
1.0001
1.0003
1.00073
1.00179
1.00494
1.01106
1.03326
1.06991
1.23327
1.55873
2.3444
2.73854
2.76464
0.999991
0.999991
0.999991
0.999991
0.999991
0.999991
0.999991
0.999992
0.999995
0.999998
1.00001
1.00003
1.00013
1.00026
1.00075
1.00175
1.0044
1.01194
1.02753
1.08277
1.17783
1.57702
2.36554
2.72964
2.76111
0.999991
0.999991
0.999991
0.999991
0.999991
0.999991
0.999991
0.999992
0.999994
1
1.00001
1.00005
1.00009
1.0003
1.00063
1.00173
1.00427
1.01024
1.02955
1.06449
1.20965
1.49607
2.24375
2.73754
2.77028
0.999991
0.999991
0.999991
0.999991
0.999991
0.999991
0.999991
0.999992
0.999993
1
1.00001
1.00004
1.00009
1.00029
1.00059
1.00161
1.00394
1.00956
1.02747
1.06089
1.19588
1.46997
2.17954
2.73204
2.77447
0.999991
0.999991
0.999991
0.999991
0.999991
0.999991
0.999991
0.999992
0.999994
0.999997
1.00001
1.00003
1.0001
1.00022
1.0006
1.0015
1.00353
1.01005
1.02229
1.06977
1.14547
1.50226
2.2089
2.74353
2.76998
0.999991
0.999991
0.999991
0.999991
0.999991
0.999991
0.999991
0.999992
0.999993
0.999998
1
1.00003
1.00008
1.00022
1.00054
1.0013
1.00364
1.00813
1.0246
1.05209
1.17394
1.40228
2.09116
2.75822
2.77934
0.999991
0.999991
0.999991
0.999991
0.999991
0.999991
0.999991
0.999992
0.999994
0.999997
1.00001
1.00003
1.0001
1.0002
1.00062
1.00131
1.0034
1.00873
1.02031
1.06086
1.12998
1.43157
2.11231
2.7384
2.77049
0.999991
0.999991
0.999991
0.999991
0.999991
0.999991
0.999991
0.999992
0.999993
0.999998
1
1.00004
1.00007
1.00025
1.00048
1.00137
1.00312
1.00767
1.02152
1.04798
1.15116
1.35
1.98894
2.69937
2.78378
0.999991
0.999991
0.999991
0.999991
0.999991
0.999991
0.999991
0.999992
0.999993
0.999998
1
1.00004
1.00007
1.00025
1.00047
1.00138
1.003
1.00755
1.02037
1.04596
1.14157
1.32706
1.90805
2.66027
2.80011
0.999991
0.999991
0.999991
0.999991
0.999991
0.999991
0.999991
0.999992
0.999994
0.999997
1.00001
1.00003
1.0001
1.0002
1.00065
1.00121
1.00373
1.00751
1.02048
1.05107
1.12173
1.35218
2.02137
2.62857
2.78793
0.999991
0.999991
0.999991
0.999991
0.999991
0.999991
0.999991
0.999992
0.999994
0.999997
1.00001
1.00003
1.00011
1.0002
1.00067
1.00122
1.00384
1.0074
1.02127
1.04878
1.12269
1.33994
2.00758
2.61207
2.78916
1.00001
1.00001
1.00004
1.00007
1.00023
1.00041
1.00127
1.00243
1.00687
1.01513
1.03791
1.10426
1.23901
1.66706
2.48433
2.63533
2.62593
2.63178
2.64375
2.65302
2.65134
2.64302
2.62234
2.57292
2.4134
1
1.00001
1.00003
1.00006
1.0002
1.00037
1.00116
1.00211
1.00649
1.01282
1.03479
1.08654
1.20678
1.58231
2.41458
2.61192
2.62268
2.61598
2.61738
2.62674
2.62541
2.61137
2.57736
2.51947
2.35974
1
1.00001
1.00003
1.00005
1.00017
1.00031
1.00098
1.0018
1.00535
1.01098
1.02876
1.07605
1.1706
1.51365
2.28431
2.56251
2.61911
2.61055
2.59481
2.59543
2.59469
2.58122
2.54088
2.48522
2.36202
1
1.00001
1.00002
1.00004
1.00014
1.00026
1.00082
1.00151
1.00443
1.00923
1.02381
1.06338
1.14088
1.43119
2.11264
2.50439
2.61451
2.60262
2.5885
2.56982
2.55836
2.54475
2.51283
2.46727
2.36865
1
1.00001
1.00002
1.00004
1.00012
1.00022
1.00069
1.00126
1.00387
1.00749
1.02108
1.04828
1.11987
1.3242
1.95117
2.38512
2.58129
2.5806
2.57575
2.56079
2.53591
2.51069
2.47332
2.44309
2.37384
1
1.00001
1.00001
1.00004
1.00007
1.00022
1.00041
1.00126
1.00241
1.00678
1.01496
1.03728
1.10174
1.23449
1.63495
2.36305
2.53743
2.53828
2.54141
2.53727
2.52241
2.49838
2.44772
2.40646
2.36558
1
1.00001
1.00001
1.00003
1.00006
1.00019
1.00034
1.00107
1.00194
1.00594
1.0117
1.03167
1.07918
1.18397
1.53056
2.27953
2.5012
2.52268
2.51284
2.50761
2.49577
2.48163
2.44577
2.38747
2.34236
1
1
1.00001
1.00002
1.00005
1.00014
1.00026
1.0008
1.00151
1.0043
1.00932
1.02339
1.0638
1.14019
1.43143
2.10322
2.43747
2.515
2.49844
2.48832
2.46769
2.44597
2.43056
2.38737
2.33367
1
1
1.00001
1.00001
1.00004
1.00008
1.00025
1.00047
1.00132
1.00287
1.00712
1.01888
1.04234
1.12501
1.27963
1.8099
2.29784
2.49009
2.48652
2.4755
2.45805
2.42789
2.40008
2.37772
2.33199
1
1
1.00001
1.00001
1.00004
1.00006
1.0002
1.00037
1.00115
1.00213
1.00629
1.01297
1.03386