/*--------------------------------*- C++ -*----------------------------------*\
| =========                 |                                                 |
| \\      /  F ield         | OpenFOAM: The Open Source CFD Toolbox           |
|  \\    /   O peration     | Version:  4.1                                   |
|   \\  /    A nd           | Web:      www.OpenFOAM.org                      |
|    \\/     M anipulation  |                                                 |
\*---------------------------------------------------------------------------*/
FoamFile
{
    version     2.0;
    format      ascii;
    class       volScalarField;
    location    "8.5";
    object      T;
}
// * * * * * * * * * * * * * * * * * * * * * * * * * * * * * * * * * * * * * //

dimensions      [0 0 0 1 0 0 0];

internalField   nonuniform List<scalar> 
500
(
0.999993
0.999997
0.999998
0.999998
0.999998
0.999987
0.999995
0.999996
0.999997
0.999997
0.999981
0.999992
0.999994
0.999995
0.999995
0.999975
0.999989
0.999993
0.999994
0.999994
0.99997
0.999987
0.999991
0.999992
0.999992
0.999964
0.999984
0.999989
0.99999
0.999991
0.999958
0.999981
0.999987
0.999988
0.999989
0.999952
0.999978
0.999985
0.999987
0.999987
0.999946
0.999975
0.999983
0.999985
0.999985
0.99994
0.999972
0.999981
0.999983
0.999983
0.999934
0.999969
0.999979
0.999981
0.999981
0.999928
0.999966
0.999976
0.999979
0.99998
0.999922
0.999962
0.999974
0.999977
0.999977
0.999916
0.999959
0.999972
0.999975
0.999975
0.99991
0.999956
0.999969
0.999973
0.999973
0.999904
0.999952
0.999967
0.99997
0.999971
0.999898
0.999949
0.999964
0.999968
0.999969
0.999892
0.999945
0.999961
0.999965
0.999966
0.999886
0.999941
0.999959
0.999963
0.999964
0.999879
0.999937
0.999956
0.99996
0.999961
0.999873
0.999934
0.999953
0.999958
0.999959
0.999867
0.99993
0.99995
0.999955
0.999956
0.999861
0.999926
0.999947
0.999952
0.999953
0.999855
0.999922
0.999943
0.999949
0.99995
0.999849
0.999918
0.99994
0.999946
0.999947
0.999843
0.999913
0.999937
0.999943
0.999944
0.999837
0.999909
0.999933
0.999939
0.999941
0.999831
0.999905
0.99993
0.999936
0.999937
0.999825
0.9999
0.999926
0.999932
0.999934
0.999819
0.999896
0.999922
0.999929
0.99993
0.999813
0.999891
0.999918
0.999925
0.999926
0.999807
0.999886
0.999914
0.999921
0.999923
0.999801
0.999881
0.99991
0.999917
0.999919
0.999795
0.999877
0.999905
0.999913
0.999914
0.999789
0.999872
0.999901
0.999909
0.99991
0.999784
0.999866
0.999896
0.999904
0.999906
0.999778
0.999862
0.999891
0.9999
0.999901
0.999773
0.999856
0.999886
0.999895
0.999896
0.999767
0.999851
0.999881
0.99989
0.999892
0.999762
0.999845
0.999876
0.999885
0.999887
0.999756
0.99984
0.999871
0.999879
0.999881
0.999751
0.999834
0.999865
0.999874
0.999876
0.999745
0.999828
0.999859
0.999868
0.999871
0.99974
0.999823
0.999854
0.999863
0.999865
0.999735
0.999816
0.999848
0.999857
0.999859
0.999729
0.99981
0.999842
0.999851
0.999853
0.999724
0.999804
0.999836
0.999845
0.999847
0.999719
0.999798
0.999829
0.999838
0.999841
0.999714
0.999792
0.999823
0.999832
0.999835
0.999709
0.999785
0.999816
0.999825
0.999828
0.999704
0.999778
0.999809
0.999819
0.999821
0.999699
0.999772
0.999802
0.999812
0.999814
0.999693
0.999764
0.999794
0.999804
0.999807
0.999688
0.999758
0.999788
0.999798
0.9998
0.999683
0.99975
0.99978
0.99979
0.999792
0.999678
0.999743
0.999772
0.999782
0.999784
0.999672
0.999736
0.999765
0.999775
0.999777
0.999667
0.999728
0.999756
0.999766
0.999768
0.999662
0.999721
0.999749
0.999759
0.999761
0.999656
0.999713
0.999741
0.99975
0.999752
0.999651
0.999705
0.999732
0.999742
0.999744
0.999645
0.999698
0.999724
0.999734
0.999736
0.999639
0.999689
0.999715
0.999724
0.999726
0.999633
0.999681
0.999707
0.999716
0.999718
0.999627
0.999673
0.999698
0.999707
0.999709
0.999621
0.999663
0.999688
0.999697
0.999699
0.999614
0.999656
0.99968
0.999689
0.999691
0.999608
0.999646
0.99967
0.999679
0.999681
0.999601
0.999637
0.99966
0.999669
0.999671
0.999594
0.99963
0.999652
0.999661
0.999663
0.999587
0.999619
0.999642
0.99965
0.999652
0.99958
0.99961
0.999632
0.99964
0.999642
0.999572
0.999602
0.999623
0.999631
0.999633
0.999564
0.999591
0.999612
0.99962
0.999622
0.999557
0.999582
0.999602
0.99961
0.999612
0.999548
0.999573
0.999593
0.999601
0.999602
0.99954
0.999561
0.999581
0.999589
0.999591
0.999533
0.999553
0.999572
0.999579
0.999581
0.999522
0.999542
0.999561
0.999569
0.99957
0.999515
0.999532
0.999551
0.999558
0.99956
0.999506
0.999522
0.99954
0.999547
0.999549
0.999497
0.999512
0.99953
0.999537
0.999539
0.999489
0.999503
0.999521
0.999528
0.999529
0.99948
0.999492
0.999509
0.999516
0.999517
0.999472
0.999484
0.999501
0.999507
0.999509
0.999464
0.999476
0.999493
0.999499
0.999501
0.999456
0.999465
0.999482
0.999488
0.999489
0.999452
0.99946
0.999476
0.999482
0.999483
0.999444
0.999453
0.99947
0.999476
0.999477
0.999438
0.999445
0.999461
0.999467
0.999468
0.999436
0.999442
0.999458
0.999463
0.999464
0.999433
0.999439
0.999454
0.999459
0.99946
0.999431
0.999436
0.999451
0.999457
0.999458
0.999431
0.999435
0.99945
0.999455
0.999456
0.999431
0.999434
0.999449
0.999454
0.999455
0.999429
0.999433
0.999447
0.999452
0.999453
0.999425
0.999427
0.999441
0.999446
0.999447
0.999418
0.99942
0.999434
0.999439
0.99944
0.999373
0.999376
0.99939
0.999395
0.999396
0.999417
0.999417
0.99943
0.999435
0.999435
)
;

boundaryField
{
    axis
    {
        type            empty;
    }
    inlet
    {
        type            fixedValue;
        value           uniform 1;
    }
    wall
    {
        type            zeroGradient;
    }
    outlet
    {
        type            zeroGradient;
    }
    front
    {
        type            wedge;
    }
    back
    {
        type            wedge;
    }
}


// ************************************************************************* //
