/*--------------------------------*- C++ -*----------------------------------*\
| =========                 |                                                 |
| \\      /  F ield         | OpenFOAM: The Open Source CFD Toolbox           |
|  \\    /   O peration     | Version:  4.1                                   |
|   \\  /    A nd           | Web:      www.OpenFOAM.org                      |
|    \\/     M anipulation  |                                                 |
\*---------------------------------------------------------------------------*/
FoamFile
{
    version     2.0;
    format      ascii;
    class       volVectorField;
    location    "8.5";
    object      U;
}
// * * * * * * * * * * * * * * * * * * * * * * * * * * * * * * * * * * * * * //

dimensions      [0 1 -1 0 0 0 0];

internalField   nonuniform List<vector> 
500
(
(3.00001 -6.15266e-08 4.38078e-17)
(3 -5.26366e-08 8.52792e-20)
(3 -1.97663e-08 9.95168e-18)
(3 -1.18914e-08 1.32971e-24)
(3 -4.48997e-09 1.23419e-23)
(3.00001 -2.08229e-07 4.35811e-17)
(3 -1.80095e-07 1.72344e-19)
(3 -6.92157e-08 1.00384e-17)
(3 -3.8775e-08 1.51734e-17)
(3 -1.34424e-08 1.23331e-23)
(3.00002 -4.40187e-07 8.67024e-17)
(3.00001 -3.84741e-07 2.633e-19)
(3 -1.50153e-07 1.03732e-17)
(3 -7.94016e-08 2.9786e-17)
(3 -2.61077e-08 1.31569e-23)
(3.00002 -7.59372e-07 8.63164e-17)
(3.00001 -6.70462e-07 1.5442e-17)
(3.00001 -2.64557e-07 3.02677e-17)
(3.00001 -1.32847e-07 2.88397e-17)
(3.00001 -4.21149e-08 2.28944e-23)
(3.00003 -1.16821e-06 4.31267e-17)
(3.00001 -1.04074e-06 3.02205e-17)
(3.00001 -4.14313e-07 1.07637e-17)
(3.00001 -1.98893e-07 2.7905e-17)
(3.00001 -6.13401e-08 2.45081e-23)
(3.00003 -1.6694e-06 4.30542e-17)
(3.00001 -1.49891e-06 3.02222e-17)
(3.00001 -6.01163e-07 3.0396e-17)
(3.00001 -2.77549e-07 2.65619e-17)
(3.00001 -8.37877e-08 -1.27224e-17)
(3.00004 -2.26576e-06 4.29805e-17)
(3.00002 -2.04826e-06 3.022e-17)
(3.00001 -8.26772e-07 3.00305e-17)
(3.00001 -3.68938e-07 1.05181e-17)
(3.00001 -1.09543e-07 -1.27224e-17)
(3.00004 -2.96025e-06 4.29051e-17)
(3.00002 -2.69197e-06 3.02142e-17)
(3.00001 -1.09272e-06 2.96494e-17)
(3.00001 -4.73289e-07 9.71883e-18)
(3.00001 -1.38731e-07 -1.27223e-17)
(3.00004 -3.75593e-06 9.35408e-19)
(3.00002 -3.43316e-06 3.03931e-17)
(3.00001 -1.40051e-06 4.79697e-17)
(3.00001 -5.90863e-07 -5.59671e-18)
(3.00001 -1.71511e-07 -1.27223e-17)
(3.00005 -4.65588e-06 4.27538e-17)
(3.00002 -4.27485e-06 3.05629e-17)
(3.00002 -1.75159e-06 4.69105e-17)
(3.00001 -7.21962e-07 -6.29604e-18)
(3.00001 -2.08057e-07 -2.51519e-17)
(3.00005 -5.66327e-06 1.2969e-18)
(3.00003 -5.21998e-06 3.05261e-17)
(3.00002 -2.14729e-06 2.70771e-17)
(3.00002 -8.66882e-07 -7.43419e-18)
(3.00002 -2.48556e-07 -3.75057e-17)
(3.00006 -6.78121e-06 1.48232e-18)
(3.00003 -6.27141e-06 3.02848e-17)
(3.00002 -2.5889e-06 8.01569e-18)
(3.00002 -1.02591e-06 5.68057e-18)
(3.00002 -2.93205e-07 -3.75055e-17)
(3.00007 -8.01289e-06 8.33705e-17)
(3.00003 -7.43189e-06 3.00371e-17)
(3.00002 -3.07758e-06 7.64073e-18)
(3.00002 -1.19933e-06 -1.00884e-17)
(3.00002 -3.42201e-07 -3.75054e-17)
(3.00007 -9.36136e-06 8.31988e-17)
(3.00003 -8.70403e-06 5.76078e-17)
(3.00002 -3.61444e-06 -1.14159e-17)
(3.00002 -1.38736e-06 -2.4709e-17)
(3.00002 -3.95746e-07 -2.53853e-17)
(3.00008 -1.08298e-05 1.63448e-16)
(3.00004 -1.00903e-05 2.89782e-17)
(3.00003 -4.20041e-06 -1.17027e-17)
(3.00002 -1.59022e-06 -2.47355e-17)
(3.00002 -4.54037e-07 -2.53852e-17)
(3.00008 -1.2421e-05 1.62517e-16)
(3.00004 -1.15931e-05 2.84996e-17)
(3.00003 -4.83638e-06 -1.2293e-17)
(3.00002 -1.80806e-06 -3.85825e-17)
(3.00002 -5.17277e-07 -2.53851e-17)
(3.00009 -1.41381e-05 1.61569e-16)
(3.00004 -1.32146e-05 2.77978e-17)
(3.00003 -5.52305e-06 -3.08502e-17)
(3.00003 -2.041e-06 -3.80422e-17)
(3.00003 -5.85655e-07 -2.5385e-17)
(3.00009 -1.59837e-05 1.60606e-16)
(3.00005 -1.49567e-05 2.70889e-17)
(3.00003 -6.26103e-06 -3.10022e-17)
(3.00003 -2.28909e-06 -3.7514e-17)
(3.00003 -6.59365e-07 -2.53849e-17)
(3.0001 -1.79606e-05 1.59625e-16)
(3.00005 -1.68212e-05 2.65907e-17)
(3.00003 -7.05076e-06 -1.34305e-17)
(3.00003 -2.55238e-06 -3.69983e-17)
(3.00003 -7.38588e-07 -2.53848e-17)
(3.0001 -2.00713e-05 1.58825e-16)
(3.00005 -1.88096e-05 5.27047e-17)
(3.00004 -7.89253e-06 -3.18569e-17)
(3.00003 -2.8308e-06 -4.93809e-17)
(3.00003 -8.23505e-07 -1.37614e-17)
(3.00011 -2.23181e-05 2.34996e-16)
(3.00006 -2.09232e-05 2.5197e-17)
(3.00004 -8.78648e-06 -1.51285e-17)
(3.00004 -3.12427e-06 -6.10872e-17)
(3.00003 -9.14285e-07 -1.37613e-17)
(3.00011 -2.47031e-05 3.10163e-16)
(3.00006 -2.31629e-05 5.13106e-17)
(3.00004 -9.73253e-06 7.61428e-19)
(3.00004 -3.43263e-06 -7.21253e-17)
(3.00004 -1.01109e-06 -1.37613e-17)
(3.00012 -2.72283e-05 3.08111e-16)
(3.00006 -2.55294e-05 5.06157e-17)
(3.00004 -1.07305e-05 -1.00184e-18)
(3.00004 -3.75568e-06 -6.94517e-17)
(3.00004 -1.11408e-06 -1.37612e-17)
(3.00012 -2.98953e-05 3.81406e-16)
(3.00007 -2.8023e-05 4.96632e-17)
(3.00005 -1.17799e-05 -1.97228e-17)
(3.00004 -4.09315e-06 -6.79047e-17)
(3.00004 -1.22338e-06 -3.63037e-17)
(3.00013 -3.27056e-05 3.03911e-16)
(3.00007 -3.06438e-05 4.86986e-17)
(3.00005 -1.28802e-05 -2.02434e-17)
(3.00004 -4.44471e-06 -3.96954e-17)
(3.00004 -1.33915e-06 -1.39474e-17)
(3.00013 -3.56602e-05 3.75691e-16)
(3.00007 -3.33912e-05 2.21569e-17)
(3.00005 -1.40305e-05 -2.01089e-17)
(3.00005 -4.80999e-06 -1.51889e-17)
(3.00005 -1.46148e-06 -5.83287e-17)
(3.00014 -3.87598e-05 3.72454e-16)
(3.00008 -3.62645e-05 -3.80175e-18)
(3.00006 -1.52299e-05 -2.00626e-17)
(3.00005 -5.1885e-06 -1.84104e-17)
(3.00005 -1.5905e-06 -8.03764e-17)
(3.00014 -4.2005e-05 3.69181e-16)
(3.00008 -3.92624e-05 -4.03932e-18)
(3.00006 -1.64769e-05 -2.01024e-17)
(3.00005 -5.57978e-06 -2.15337e-17)
(3.00005 -1.72629e-06 -8.04489e-17)
(3.00015 -4.53958e-05 3.65873e-16)
(3.00008 -4.23833e-05 -4.2904e-18)
(3.00006 -1.77702e-05 -2.09502e-17)
(3.00006 -5.98322e-06 -5.03546e-17)
(3.00005 -1.86893e-06 -1.02125e-16)
(3.00015 -4.89317e-05 3.62533e-16)
(3.00009 -4.5625e-05 -4.06705e-18)
(3.00006 -1.9108e-05 1.04002e-17)
(3.00006 -6.39821e-06 -5.19269e-17)
(3.00006 -2.01849e-06 -8.07171e-17)
(3.00016 -5.26123e-05 2.88239e-16)
(3.00009 -4.89848e-05 -3.87122e-18)
(3.00007 -2.04884e-05 8.54518e-18)
(3.00006 -6.82407e-06 -5.34323e-17)
(3.00006 -2.17501e-06 -8.06907e-17)
(3.00016 -5.6436e-05 2.85498e-16)
(3.00009 -5.24598e-05 -4.1996e-18)
(3.00007 -2.19092e-05 -2.49129e-17)
(3.00007 -7.26002e-06 -5.37413e-17)
(3.00006 -2.33851e-06 -5.95987e-17)
(3.00017 -6.04015e-05 3.52325e-16)
(3.0001 -5.60461e-05 -4.0506e-18)
(3.00008 -2.33679e-05 4.8346e-18)
(3.00007 -7.7053e-06 -7.66132e-17)
(3.00007 -2.50901e-06 -3.8703e-17)
(3.00017 -6.45064e-05 3.48397e-16)
(3.0001 -5.97398e-05 -5.09343e-17)
(3.00008 -2.48619e-05 3.33535e-17)
(3.00007 -8.159e-06 -7.56302e-17)
(3.00007 -2.6865e-06 -5.93149e-17)
(3.00018 -6.87483e-05 3.43979e-16)
(3.00011 -6.3536e-05 -9.65923e-17)
(3.00008 -2.63883e-05 3.0703e-17)
(3.00008 -8.62027e-06 -5.14734e-17)
(3.00007 -2.87095e-06 -5.93101e-17)
(3.00018 -7.31241e-05 2.71983e-16)
(3.00011 -6.74297e-05 -9.44636e-17)
(3.00009 -2.7944e-05 2.81124e-17)
(3.00008 -9.08811e-06 -5.07477e-17)
(3.00008 -3.0623e-06 -3.90784e-17)
(3.00019 -7.76301e-05 2.68209e-16)
(3.00012 -7.14149e-05 -9.23852e-17)
(3.00009 -2.95256e-05 2.48456e-17)
(3.00008 -9.56153e-06 -7.27598e-17)
(3.00008 -3.26049e-06 -3.90836e-17)
(3.00019 -8.22624e-05 2.64411e-16)
(3.00012 -7.54855e-05 -9.03738e-17)
(3.00009 -3.11294e-05 2.09544e-17)
(3.00009 -1.00395e-05 -9.3181e-17)
(3.00009 -3.46541e-06 -3.90687e-17)
(3.0002 -8.7016e-05 2.6011e-16)
(3.00012 -7.96346e-05 -1.33937e-16)
(3.0001 -3.27519e-05 -1.21396e-17)
(3.00009 -1.05209e-05 -8.9867e-17)
(3.00009 -3.67698e-06 -3.90341e-17)
(3.0002 -9.18862e-05 2.54827e-16)
(3.00013 -8.38549e-05 -2.2073e-16)
(3.0001 -3.4389e-05 -1.39357e-17)
(3.0001 -1.10047e-05 -6.47657e-17)
(3.00009 -3.89502e-06 -3.89916e-17)
(3.0002 -9.6867e-05 1.21928e-16)
(3.00013 -8.81387e-05 -1.73187e-16)
(3.00011 -3.60364e-05 -4.28533e-17)
(3.0001 -1.14897e-05 -1.97805e-17)
(3.0001 -4.1194e-06 -3.8955e-17)
(3.00021 -0.000101952 2.45247e-16)
(3.00014 -9.24774e-05 -1.70223e-16)
(3.00011 -3.769e-05 -1.45002e-17)
(3.0001 -1.19747e-05 -4.36297e-17)
(3.0001 -4.34993e-06 -5.79303e-17)
(3.00021 -0.000107136 2.4053e-16)
(3.00014 -9.68626e-05 -1.66861e-16)
(3.00012 -3.93452e-05 1.24618e-17)
(3.00011 -1.24587e-05 -4.45603e-17)
(3.00011 -4.58641e-06 -5.79199e-17)
(3.00022 -0.00011241 2.36409e-16)
(3.00015 -0.000101285 -1.21464e-16)
(3.00012 -4.09975e-05 -1.5842e-17)
(3.00011 -1.29403e-05 -3.67804e-18)
(3.00011 -4.82862e-06 -5.79172e-17)
(3.00022 -0.000117767 3.54704e-16)
(3.00015 -0.000105735 -1.20542e-16)
(3.00013 -4.26421e-05 -7.02696e-17)
(3.00012 -1.34185e-05 -7.32601e-18)
(3.00012 -5.07631e-06 -5.79168e-17)
(3.00023 -0.0001232 4.69483e-16)
(3.00016 -0.000110202 -1.61642e-16)
(3.00013 -4.42744e-05 -9.50484e-17)
(3.00012 -1.3892e-05 -1.07823e-17)
(3.00012 -5.32923e-06 -5.79152e-17)
(3.00023 -0.0001287 5.81029e-16)
(3.00016 -0.000114677 -1.60176e-16)
(3.00014 -4.58895e-05 -9.04779e-17)
(3.00013 -1.43599e-05 2.36269e-17)
(3.00013 -5.58708e-06 -9.37594e-17)
(3.00024 -0.000134258 6.88869e-16)
(3.00017 -0.000119149 -1.99144e-16)
(3.00014 -4.74826e-05 -8.54603e-17)
(3.00013 -1.48209e-05 3.76619e-17)
(3.00013 -5.84959e-06 -5.83445e-17)
(3.00024 -0.000139864 6.76807e-16)
(3.00017 -0.000123608 -2.36643e-16)
(3.00015 -4.90489e-05 -8.08339e-17)
(3.00014 -1.52738e-05 3.07822e-17)
(3.00014 -6.11644e-06 -5.83421e-17)
(3.00024 -0.000145511 6.64913e-16)
(3.00018 -0.000128042 -2.33176e-16)
(3.00015 -5.05838e-05 -7.64826e-17)
(3.00014 -1.57178e-05 2.67733e-17)
(3.00014 -6.38726e-06 -2.41094e-17)
(3.00025 -0.000151187 6.5322e-16)
(3.00018 -0.00013244 -2.29102e-16)
(3.00016 -5.20824e-05 -4.70845e-17)
(3.00015 -1.61518e-05 2.30093e-17)
(3.00015 -6.6618e-06 -2.42437e-17)
(3.00025 -0.000156884 5.28733e-16)
(3.00019 -0.000136792 -3.01475e-16)
(3.00016 -5.35401e-05 -4.44145e-17)
(3.00016 -1.65748e-05 1.69651e-17)
(3.00015 -6.93961e-06 -5.7777e-17)
(3.00026 -0.000162592 4.08325e-16)
(3.0002 -0.000141087 -2.9561e-16)
(3.00017 -5.49527e-05 -4.20587e-17)
(3.00016 -1.6986e-05 1.12901e-17)
(3.00016 -7.22041e-06 -5.76287e-17)
(3.00026 -0.0001683 3.99227e-16)
(3.0002 -0.000145314 -2.91099e-16)
(3.00018 -5.63156e-05 -8.85085e-17)
(3.00017 -1.73845e-05 5.95785e-18)
(3.00017 -7.50381e-06 -5.75469e-17)
(3.00027 -0.000174 6.04038e-16)
(3.00021 -0.000149463 -2.86412e-16)
(3.00018 -5.7625e-05 -8.29549e-17)
(3.00017 -1.77697e-05 3.67922e-17)
(3.00017 -7.78941e-06 -5.75217e-17)
(3.00027 -0.00017968 5.9081e-16)
(3.00021 -0.000153523 -2.81532e-16)
(3.00019 -5.8877e-05 -7.79809e-17)
(3.00018 -1.8141e-05 2.67111e-17)
(3.00018 -8.07691e-06 -8.93578e-17)
(3.00028 -0.000185331 5.76761e-16)
(3.00022 -0.000157484 -3.4705e-16)
(3.0002 -6.00683e-05 -2.53768e-17)
(3.00019 -1.84977e-05 5.7141e-17)
(3.00019 -8.36588e-06 -2.65078e-17)
(3.00028 -0.000190944 6.64885e-16)
(3.00023 -0.000161337 -4.09705e-16)
(3.0002 -6.11955e-05 -2.20258e-17)
(3.00019 -1.88395e-05 4.77492e-17)
(3.00019 -8.65598e-06 -5.71122e-17)
(3.00028 -0.000196508 6.49066e-16)
(3.00023 -0.000165072 -4.00006e-16)
(3.00021 -6.22558e-05 -2.08092e-17)
(3.0002 -1.9166e-05 5.32024e-18)
(3.0002 -8.9469e-06 -5.70169e-17)
(3.00029 -0.000202015 6.32545e-16)
(3.00024 -0.000168682 -4.57756e-16)
(3.00022 -6.32468e-05 2.44359e-17)
(3.00021 -1.9477e-05 -8.41195e-21)
(3.00021 -9.23821e-06 -5.7162e-17)
(3.00029 -0.000207456 6.16282e-16)
(3.00024 -0.000172157 -4.45344e-16)
(3.00022 -6.41662e-05 2.45278e-17)
(3.00021 -1.97723e-05 2.76219e-17)
(3.00021 -9.52963e-06 -5.73328e-17)
(3.0003 -0.000212823 6.00195e-16)
(3.00025 -0.000175491 -4.33073e-16)
(3.00023 -6.50127e-05 2.43913e-17)
(3.00022 -2.0052e-05 2.27528e-17)
(3.00022 -9.82086e-06 -2.83078e-17)
(3.0003 -0.000218107 5.84204e-16)
(3.00026 -0.000178676 -4.2204e-16)
(3.00024 -6.57842e-05 -1.67634e-17)
(3.00023 -2.0316e-05 4.72106e-17)
(3.00023 -1.01115e-05 -5.70634e-17)
(3.00031 -0.000223301 7.55599e-16)
(3.00026 -0.000181708 -4.11079e-16)
(3.00024 -6.64809e-05 -1.41978e-17)
(3.00024 -2.05648e-05 3.53545e-17)
(3.00023 -1.04014e-05 -8.53213e-17)
(3.00031 -0.000228396 7.35648e-16)
(3.00027 -0.000184579 -4.63373e-16)
(3.00025 -6.7101e-05 -1.07226e-17)
(3.00024 -2.07982e-05 5.48236e-17)
(3.00024 -1.069e-05 -8.52955e-17)
(3.00032 -0.000233388 7.15834e-16)
(3.00028 -0.000187286 -4.5077e-16)
(3.00026 -6.76457e-05 -9.56093e-18)
(3.00025 -2.10169e-05 1.20503e-17)
(3.00025 -1.09774e-05 -8.524e-17)
(3.00032 -0.00023827 6.96215e-16)
(3.00029 -0.000189826 -4.38274e-16)
(3.00027 -6.81149e-05 -8.89351e-18)
(3.00026 -2.12214e-05 2.97039e-18)
(3.00026 -1.12632e-05 -8.51909e-17)
(3.00033 -0.000243035 8.53031e-16)
(3.00029 -0.000192194 -3.66264e-16)
(3.00027 -6.85084e-05 -8.67847e-18)
(3.00027 -2.14118e-05 -5.3787e-18)
(3.00026 -1.15471e-05 -8.51721e-17)
(3.00034 -0.000247682 8.31932e-16)
(3.0003 -0.000194392 -3.54895e-16)
(3.00028 -6.88299e-05 2.91917e-17)
(3.00027 -2.15897e-05 -1.30419e-17)
(3.00027 -1.18291e-05 -8.51803e-17)
(3.00034 -0.0002522 8.12195e-16)
(3.00031 -0.000196411 -2.84468e-16)
(3.00029 -6.90772e-05 6.39169e-17)
(3.00028 -2.17543e-05 -2.00608e-17)
(3.00028 -1.21088e-05 -8.51967e-17)
(3.00035 -0.000256592 6.27823e-16)
(3.00032 -0.00019826 -2.18277e-16)
(3.0003 -6.92564e-05 2.22308e-17)
(3.00029 -2.19079e-05 -2.6477e-17)
(3.00029 -1.23863e-05 -8.52062e-17)
(3.00035 -0.00026085 6.13067e-16)
(3.00032 -0.000199931 -2.1102e-16)
(3.00031 -6.93663e-05 2.18998e-17)
(3.0003 -2.205e-05 1.62039e-17)
(3.0003 -1.26613e-05 -1.33946e-16)
(3.00036 -0.000264972 5.98505e-16)
(3.00033 -0.000201428 -2.03994e-16)
(3.00031 -6.94106e-05 2.07003e-17)
(3.00031 -2.21819e-05 9.2932e-19)
(3.00031 -1.29336e-05 -1.34101e-16)
(3.00037 -0.000268961 5.83944e-16)
(3.00034 -0.000202757 -1.97268e-16)
(3.00032 -6.93942e-05 1.58008e-17)
(3.00031 -2.23053e-05 -6.4252e-17)
(3.00031 -1.32036e-05 -1.34327e-16)
(3.00037 -0.000272803 5.69419e-16)
(3.00035 -0.000203908 -1.90824e-16)
(3.00033 -6.93142e-05 1.07046e-17)
(3.00032 -2.24186e-05 -7.14334e-17)
(3.00032 -1.34704e-05 -1.34406e-16)
(3.00038 -0.000276515 7.05377e-16)
(3.00035 -0.000204903 -2.36391e-16)
(3.00034 -6.91829e-05 5.44872e-18)
(3.00033 -2.25264e-05 -7.79995e-17)
(3.00033 -1.37349e-05 -1.34412e-16)
(3.00039 -0.000280075 6.87316e-16)
(3.00036 -0.000205724 -2.28611e-16)
(3.00035 -6.89938e-05 2.68755e-18)
(3.00034 -2.26256e-05 -4.0453e-17)
(3.00034 -1.39962e-05 -1.79295e-16)
(3.00039 -0.000283497 8.15066e-16)
(3.00037 -0.000206388 -2.19048e-16)
(3.00036 -6.87569e-05 6.32005e-17)
(3.00035 -2.27196e-05 -5.53955e-17)
(3.00035 -1.42548e-05 -1.79288e-16)
(3.0004 -0.000286783 7.94755e-16)
(3.00038 -0.000206902 -2.07932e-16)
(3.00036 -6.84769e-05 1.17821e-16)
(3.00036 -2.28096e-05 -6.88776e-17)
(3.00036 -1.45109e-05 -1.79288e-16)
(3.00041 -0.00028991 7.74803e-16)
(3.00039 -0.000207248 -1.97465e-16)
(3.00037 -6.81462e-05 1.05441e-16)
(3.00037 -2.28921e-05 -8.10263e-17)
(3.00037 -1.47634e-05 -1.79294e-16)
(3.00041 -0.000292916 7.55244e-16)
(3.0004 -0.00020747 -1.85564e-16)
(3.00038 -6.77876e-05 1.53165e-16)
(3.00038 -2.29752e-05 -9.19653e-17)
(3.00037 -1.50141e-05 -1.79306e-16)
(3.00042 -0.000295763 7.36057e-16)
(3.0004 -0.000207531 -1.74444e-16)
(3.00039 -6.73848e-05 1.36886e-16)
(3.00038 -2.30521e-05 -1.01806e-16)
(3.00038 -1.52612e-05 -1.79321e-16)
(3.00043 -0.000298471 4.53075e-16)
(3.00041 -0.000207458 -2.52918e-16)
(3.0004 -6.6951e-05 1.2117e-16)
(3.00039 -2.31268e-05 -1.06121e-16)
(3.00039 -1.55055e-05 -1.39573e-16)
(3.00044 -0.000301056 4.38906e-16)
(3.00042 -0.000207273 -2.38877e-16)
(3.00041 -6.64986e-05 1.59409e-16)
(3.0004 -2.32038e-05 -1.56006e-16)
(3.0004 -1.5748e-05 -1.78615e-16)
(3.00044 -0.000303467 4.26657e-16)
(3.00043 -0.000206925 -1.37802e-16)
(3.00041 -6.60028e-05 1.91096e-16)
(3.00041 -2.32726e-05 -1.94783e-16)
(3.00041 -1.59861e-05 -1.40567e-16)
(3.00045 -0.000305772 4.16128e-16)
(3.00043 -0.000206492 -4.27495e-17)
(3.00042 -6.55034e-05 1.65662e-16)
(3.00041 -2.33475e-05 -1.88369e-16)
(3.00041 -1.62232e-05 -1.40623e-16)
(3.00045 -0.000307926 4.05722e-16)
(3.00044 -0.000205928 -3.40606e-17)
(3.00042 -6.49761e-05 1.95364e-16)
(3.00042 -2.34189e-05 -1.73929e-16)
(3.00042 -1.64568e-05 -6.75978e-17)
(3.00045 -0.000309917 3.95625e-16)
(3.00044 -0.000205232 -2.83225e-17)
(3.00043 -6.44255e-05 1.22001e-16)
(3.00042 -2.3488e-05 -1.23259e-16)
(3.00042 -1.6687e-05 -6.75826e-17)
(3.00046 -0.000311829 3.85855e-16)
(3.00045 -0.000204487 -2.52432e-17)
(3.00043 -6.38829e-05 5.51883e-17)
(3.00043 -2.35633e-05 -1.16476e-16)
(3.00043 -1.69159e-05 -6.75774e-17)
(3.00046 -0.000313517 3.74697e-16)
(3.00045 -0.000203565 -9.71695e-17)
(3.00043 -6.33042e-05 9.01151e-17)
(3.00043 -2.36336e-05 -1.46527e-16)
(3.00043 -1.71407e-05 -6.75949e-17)
(3.00046 -0.00031508 3.63955e-16)
(3.00045 -0.000202552 -8.86419e-17)
(3.00043 -6.27083e-05 1.22136e-16)
(3.00043 -2.36977e-05 -1.36716e-16)
(3.00043 -1.73605e-05 -6.76198e-17)
(3.00045 -0.000316492 3.53591e-16)
(3.00044 -0.000201445 -8.10728e-17)
(3.00043 -6.21132e-05 1.09256e-16)
(3.00043 -2.37682e-05 -5.96962e-17)
(3.00042 -1.75785e-05 -6.76272e-17)
(3.00045 -0.000317765 3.41889e-16)
(3.00044 -0.000200258 -1.45903e-16)
(3.00043 -6.15178e-05 9.16157e-17)
(3.00042 -2.38397e-05 -1.35743e-16)
(3.00042 -1.7793e-05 -1.31293e-16)
(3.00044 -0.000318853 3.30583e-16)
(3.00043 -0.000198953 -1.37103e-16)
(3.00042 -6.09041e-05 7.50642e-17)
(3.00041 -2.39056e-05 -1.34984e-16)
(3.00041 -1.80017e-05 -1.31218e-16)
(3.00043 -0.000319789 3.19619e-16)
(3.00042 -0.000197578 -1.29445e-16)
(3.00041 -6.02979e-05 5.43006e-17)
(3.00041 -2.39748e-05 -2.05822e-16)
(3.0004 -1.8206e-05 -1.9178e-16)
(3.00042 -0.000320508 3.10481e-16)
(3.00041 -0.000196075 -5.98015e-17)
(3.0004 -5.96689e-05 -4.98905e-17)
(3.0004 -2.4034e-05 -2.03798e-16)
(3.00039 -1.84017e-05 -1.91524e-16)
(3.00041 -0.000321036 1.13598e-16)
(3.0004 -0.000194523 -6.33683e-17)
(3.00039 -5.90812e-05 -1.44681e-16)
(3.00039 -2.41078e-05 -2.09602e-16)
(3.00038 -1.85931e-05 -2.49069e-16)
(3.0004 -0.000321366 2.92541e-16)
(3.0004 -0.000192924 -6.71732e-17)
(3.00038 -5.85208e-05 -1.54361e-16)
(3.00038 -2.41831e-05 -2.73432e-16)
(3.00038 -1.87732e-05 -2.48843e-16)
(3.00041 -0.000321497 4.64095e-16)
(3.0004 -0.000191275 -7.11417e-17)
(3.00039 -5.79606e-05 -1.6306e-16)
(3.00039 -2.42391e-05 -2.69832e-16)
(3.00038 -1.89313e-05 -2.48685e-16)
(3.00036 -0.000321457 2.74011e-16)
(3.00035 -0.000189575 -7.18221e-17)
(3.00034 -5.73391e-05 -9.05067e-17)
(3.00034 -2.42664e-05 -2.1818e-16)
(3.00034 -1.90797e-05 -3.02154e-16)
)
;

boundaryField
{
    axis
    {
        type            empty;
    }
    inlet
    {
        type            fixedValue;
        value           uniform (3 0 0);
    }
    wall
    {
        type            zeroGradient;
    }
    outlet
    {
        type            zeroGradient;
    }
    front
    {
        type            wedge;
    }
    back
    {
        type            wedge;
    }
}


// ************************************************************************* //
