/*--------------------------------*- C++ -*----------------------------------*\
| =========                 |                                                 |
| \\      /  F ield         | OpenFOAM: The Open Source CFD Toolbox           |
|  \\    /   O peration     | Version:  4.1                                   |
|   \\  /    A nd           | Web:      www.OpenFOAM.org                      |
|    \\/     M anipulation  |                                                 |
\*---------------------------------------------------------------------------*/
FoamFile
{
    version     2.0;
    format      ascii;
    class       volScalarField;
    location    "0.54";
    object      Ma;
}
// * * * * * * * * * * * * * * * * * * * * * * * * * * * * * * * * * * * * * //

dimensions      [0 0 0 0 0 0 0];

internalField   nonuniform List<scalar> 
18000
(
5.44888e-12
5.38724e-12
5.31487e-12
5.25455e-12
5.19482e-12
5.1359e-12
5.07763e-12
5.02046e-12
4.96408e-12
4.90935e-12
6.82143e-12
6.58072e-12
6.33894e-12
6.11666e-12
5.90388e-12
5.70008e-12
5.50456e-12
5.31741e-12
5.13752e-12
4.96805e-12
8.64521e-12
8.11735e-12
7.61702e-12
7.1604e-12
6.73633e-12
6.34253e-12
5.97704e-12
5.63651e-12
5.31964e-12
5.02785e-12
1.11031e-11
1.01164e-11
9.22562e-12
8.42998e-12
7.71718e-12
7.0767e-12
6.49995e-12
5.97961e-12
5.50943e-12
5.08869e-12
1.44684e-11
1.27499e-11
1.12666e-11
9.98552e-12
8.87836e-12
7.9173e-12
7.08031e-12
6.34909e-12
5.70791e-12
5.15074e-12
1.91549e-11
1.62659e-11
1.38843e-11
1.19051e-11
1.02598e-11
8.88322e-12
7.72555e-12
6.74699e-12
5.91523e-12
5.21373e-12
2.57985e-11
2.10329e-11
1.72771e-11
1.42932e-11
1.19126e-11
9.99696e-12
8.44402e-12
7.17567e-12
6.1322e-12
5.27781e-12
3.54311e-11
2.76076e-11
2.17527e-11
1.73234e-11
1.39458e-11
1.13407e-11
9.30986e-12
7.71148e-12
6.44102e-12
5.43684e-12
3.77521e-09
3.73227e-09
3.5064e-09
3.30352e-09
3.12153e-09
2.95759e-09
2.80931e-09
2.67467e-09
2.55208e-09
2.48085e-09
4.05112e-07
4.74254e-08
4.0396e-08
3.50559e-08
3.06012e-08
2.68577e-08
2.36924e-08
2.10021e-08
1.86353e-08
6.96117e-08
5.71299e-12
5.6454e-12
5.57074e-12
5.50501e-12
5.44052e-12
5.37727e-12
5.3142e-12
5.2529e-12
5.19242e-12
5.13337e-12
7.19478e-12
6.93134e-12
6.67683e-12
6.4353e-12
6.20493e-12
5.98446e-12
5.77397e-12
5.5725e-12
5.37989e-12
5.19678e-12
9.17031e-12
8.59195e-12
8.06169e-12
7.5641e-12
7.10426e-12
6.67843e-12
6.28422e-12
5.91792e-12
5.57766e-12
5.26238e-12
1.1859e-11
1.07755e-11
9.82022e-12
8.94949e-12
8.17263e-12
7.47718e-12
6.85346e-12
6.29283e-12
5.78657e-12
5.32915e-12
1.55814e-11
1.3685e-11
1.20741e-11
1.06618e-11
9.44773e-12
8.39923e-12
7.48997e-12
6.69885e-12
6.00733e-12
5.39855e-12
2.08356e-11
1.76186e-11
1.49967e-11
1.27947e-11
1.09777e-11
9.46675e-12
8.20343e-12
7.14083e-12
6.24125e-12
5.47017e-12
2.84021e-11
2.30318e-11
1.88315e-11
1.54757e-11
1.28248e-11
1.07081e-11
9.00399e-12
7.62119e-12
6.48784e-12
5.54417e-12
3.95789e-11
3.06103e-11
2.39325e-11
1.88797e-11
1.50711e-11
1.21595e-11
9.90783e-12
8.14579e-12
6.75091e-12
5.6221e-12
1.11456e-10
2.3264e-10
1.90001e-10
1.56421e-10
1.30283e-10
1.09642e-10
9.31361e-11
7.97876e-11
6.88882e-11
6.03075e-11
2.71966e-07
4.20359e-08
3.65812e-08
3.20422e-08
2.82893e-08
2.51542e-08
2.25104e-08
2.02617e-08
1.83379e-08
1.72856e-08
4.70873e-13
4.48475e-13
3.12336e-13
2.96655e-13
2.82371e-13
2.69561e-13
2.5823e-13
2.48673e-13
2.40386e-13
2.30915e-13
6.5232e-13
5.82368e-13
5.13654e-13
4.63941e-13
4.19165e-13
3.79334e-13
3.44165e-13
3.14156e-13
2.89403e-13
2.46156e-13
8.00218e-13
6.89861e-13
6.87513e-13
6.09911e-13
5.4139e-13
4.82252e-13
4.32054e-13
3.89896e-13
3.53311e-13
2.67535e-13
1.0621e-12
9.26966e-13
9.64595e-13
8.37451e-13
7.28483e-13
6.3701e-13
5.60346e-13
4.96749e-13
4.41656e-13
2.9937e-13
1.491e-12
1.34227e-12
1.36742e-12
1.1562e-12
9.80928e-13
8.38277e-13
7.21641e-13
6.26212e-13
5.44728e-13
3.38956e-13
2.19312e-12
2.02309e-12
1.94863e-12
1.59564e-12
1.3149e-12
1.09371e-12
9.18205e-13
7.78075e-13
6.61053e-13
3.85097e-13
3.34901e-12
3.10597e-12
2.79024e-12
2.20026e-12
1.7532e-12
1.41462e-12
1.15446e-12
9.53103e-13
7.90096e-13
4.36637e-13
5.32073e-12
4.82519e-12
4.01806e-12
3.03512e-12
2.32858e-12
1.8159e-12
1.43703e-12
1.1533e-12
9.31722e-13
4.92955e-13
1.75536e-10
8.42647e-12
6.75e-12
4.94872e-12
3.71433e-12
2.85007e-12
2.22922e-12
1.77414e-12
1.42878e-12
9.51621e-13
2.33673e-07
2.63959e-09
1.93965e-09
1.48332e-09
1.15317e-09
9.09783e-10
7.2728e-10
5.88339e-10
4.81213e-10
4.03129e-10
3.85117e-13
3.60958e-13
1.72051e-13
1.51157e-13
1.30805e-13
1.1169e-13
9.38187e-14
7.74478e-14
6.29155e-14
3.69177e-14
5.32316e-13
4.5973e-13
3.85992e-13
3.35826e-13
2.8922e-13
2.4756e-13
2.108e-13
1.79132e-13
1.52839e-13
7.94187e-14
5.95778e-13
4.88944e-13
5.23565e-13
4.55433e-13
3.95261e-13
3.44098e-13
3.01555e-13
2.67484e-13
2.39084e-13
1.1964e-13
7.29084e-13
6.34626e-13
7.60577e-13
6.57503e-13
5.6873e-13
4.95338e-13
4.34773e-13
3.8548e-13
3.43395e-13
1.71071e-13
9.56957e-13
9.43725e-13
1.1077e-12
9.41517e-13
8.02304e-13
6.8892e-13
5.96431e-13
5.21325e-13
4.56742e-13
2.24658e-13
1.34043e-12
1.48506e-12
1.61005e-12
1.33375e-12
1.10961e-12
9.31955e-13
7.8974e-13
6.76155e-13
5.797e-13
2.81299e-13
1.97606e-12
2.36205e-12
2.33722e-12
1.87293e-12
1.5122e-12
1.23535e-12
1.0198e-12
8.51355e-13
7.12769e-13
3.41131e-13
3.0789e-12
3.75889e-12
3.39459e-12
2.6158e-12
2.03897e-12
1.61339e-12
1.29331e-12
1.04996e-12
8.56823e-13
4.04136e-13
1.90653e-10
6.49614e-12
4.91833e-12
3.62732e-12
2.72062e-12
2.07919e-12
1.61488e-12
1.27387e-12
1.01208e-12
4.70297e-13
2.30286e-07
8.11455e-10
5.39488e-11
3.55079e-11
2.42105e-11
1.69083e-11
1.20633e-11
8.77013e-12
6.48464e-12
4.76561e-12
3.85125e-13
3.60559e-13
1.72329e-13
1.51326e-13
1.30911e-13
1.11695e-13
9.40196e-14
7.76112e-14
6.2875e-14
3.6854e-14
5.327e-13
4.59974e-13
3.86655e-13
3.36437e-13
2.89845e-13
2.47895e-13
2.11031e-13
1.79521e-13
1.53145e-13
7.94578e-14
5.96672e-13
4.89874e-13
5.24997e-13
4.56552e-13
3.95988e-13
3.44858e-13
3.02203e-13
2.67873e-13
2.3921e-13
1.19731e-13
7.30925e-13
6.36735e-13
7.62719e-13
6.59394e-13
5.70188e-13
4.96477e-13
4.35741e-13
3.86269e-13
3.43904e-13
1.70971e-13
9.60227e-13
9.47669e-13
1.11163e-12
9.44554e-13
8.04697e-13
6.91058e-13
5.97927e-13
5.22265e-13
4.57608e-13
2.25197e-13
1.34595e-12
1.49209e-12
1.61622e-12
1.33896e-12
1.11365e-12
9.35264e-13
7.92439e-13
6.78145e-13
5.81305e-13
2.82253e-13
1.98502e-12
2.37466e-12
2.34832e-12
1.88159e-12
1.51909e-12
1.24088e-12
1.02415e-12
8.54659e-13
7.15536e-13
3.42907e-13
3.09403e-12
3.78184e-12
3.41365e-12
2.63061e-12
2.05055e-12
1.62235e-12
1.30032e-12
1.05551e-12
8.61035e-13
4.0708e-13
1.97037e-10
6.65596e-12
4.9826e-12
3.66901e-12
2.74864e-12
2.09844e-12
1.62833e-12
1.28354e-12
1.01917e-12
4.74516e-13
2.44478e-07
8.66195e-10
1.01883e-11
5.15833e-12
3.69832e-12
2.7197e-12
2.04039e-12
1.55939e-12
1.2034e-12
5.59686e-13
3.852e-13
3.60235e-13
1.72889e-13
1.51847e-13
1.31254e-13
1.12e-13
9.41186e-14
7.78913e-14
6.32095e-14
3.68436e-14
5.33568e-13
4.60459e-13
3.87927e-13
3.37523e-13
2.90791e-13
2.48605e-13
2.11514e-13
1.79828e-13
1.53686e-13
7.99103e-14
5.98528e-13
4.91668e-13
5.27327e-13
4.58478e-13
3.97669e-13
3.46093e-13
3.031e-13
2.68502e-13
2.39768e-13
1.20216e-13
7.34752e-13
6.40827e-13
7.66523e-13
6.62512e-13
5.72727e-13
4.98378e-13
4.37177e-13
3.87387e-13
3.44624e-13
1.71565e-13
9.67711e-13
9.55298e-13
1.11787e-12
9.49589e-13
8.08681e-13
6.94324e-13
6.00545e-13
5.24315e-13
4.59093e-13
2.26164e-13
1.36009e-12
1.50565e-12
1.62704e-12
1.34722e-12
1.1201e-12
9.40523e-13
7.96614e-13
6.81217e-13
5.83856e-13
2.84014e-13
2.01153e-12
2.39824e-12
2.36673e-12
1.89567e-12
1.5299e-12
1.24939e-12
1.03084e-12
8.59815e-13
7.19614e-13
3.45732e-13
3.14598e-12
3.82434e-12
3.44558e-12
2.65417e-12
2.06819e-12
1.63593e-12
1.31089e-12
1.06362e-12
8.67265e-13
4.11241e-13
2.08458e-10
6.77748e-12
5.03917e-12
3.70881e-12
2.77752e-12
2.11996e-12
1.64448e-12
1.29565e-12
1.02861e-12
4.80936e-13
2.67308e-07
9.32865e-10
1.0377e-11
5.12783e-12
3.6899e-12
2.72028e-12
2.04459e-12
1.56467e-12
1.20866e-12
5.61433e-13
3.85195e-13
3.59933e-13
1.73508e-13
1.52476e-13
1.3186e-13
1.12527e-13
9.45696e-14
7.81201e-14
6.34084e-14
3.84401e-14
5.34563e-13
4.61108e-13
3.89546e-13
3.38787e-13
2.91912e-13
2.49687e-13
2.12413e-13
1.80506e-13
1.539e-13
8.07329e-14
6.00808e-13
4.93815e-13
5.30034e-13
4.6083e-13
3.99579e-13
3.47681e-13
3.04219e-13
2.6937e-13
2.4046e-13
1.21025e-13
7.39385e-13
6.45737e-13
7.70999e-13
6.66246e-13
5.75899e-13
5.00902e-13
4.38992e-13
3.88716e-13
3.45906e-13
1.72675e-13
9.7678e-13
9.64399e-13
1.12533e-12
9.55533e-13
8.13438e-13
6.98342e-13
6.03805e-13
5.26825e-13
4.61024e-13
2.27885e-13
1.37742e-12
1.52153e-12
1.63977e-12
1.35735e-12
1.12795e-12
9.46859e-13
8.01844e-13
6.85341e-13
5.86994e-13
2.86562e-13
2.04385e-12
2.42637e-12
2.38838e-12
1.91238e-12
1.54286e-12
1.25974e-12
1.0392e-12
8.6636e-13
7.24677e-13
3.49686e-13
3.20479e-12
3.87445e-12
3.48332e-12
2.68233e-12
2.08942e-12
1.65223e-12
1.32396e-12
1.07388e-12
8.75128e-13
4.169e-13
2.15647e-10
6.85542e-12
5.10479e-12
3.75615e-12
2.81232e-12
2.146e-12
1.66457e-12
1.31067e-12
1.04024e-12
4.89161e-13
2.86799e-07
9.61274e-10
1.03837e-11
5.2009e-12
3.74298e-12
2.75908e-12
2.07385e-12
1.58669e-12
1.22524e-12
5.72792e-13
3.85285e-13
3.59004e-13
1.73948e-13
1.52895e-13
1.32552e-13
1.13802e-13
9.72832e-14
1.01128e-13
2.60759e-13
8.08911e-13
5.35319e-13
4.60988e-13
3.90588e-13
3.39908e-13
2.93108e-13
2.51163e-13
2.14473e-13
1.87679e-13
2.17381e-13
5.31684e-13
6.02586e-13
4.94652e-13
5.31857e-13
4.62519e-13
4.0133e-13
3.49713e-13
3.06953e-13
2.73837e-13
2.64368e-13
3.67744e-13
7.43243e-13
6.48025e-13
7.73863e-13
6.68813e-13
5.78272e-13
5.03512e-13
4.42477e-13
3.93278e-13
3.58507e-13
3.03263e-13
9.84152e-13
9.68898e-13
1.12972e-12
9.59482e-13
8.16955e-13
7.01642e-13
6.08053e-13
5.32206e-13
4.70975e-13
3.00734e-13
1.39039e-12
1.52961e-12
1.64694e-12
1.36369e-12
1.13356e-12
9.52218e-13
8.08011e-13
6.92477e-13
5.96945e-13
3.33171e-13
2.06641e-12
2.44086e-12
2.40063e-12
1.92296e-12
1.55191e-12
1.26803e-12
1.04778e-12
8.76039e-13
7.3607e-13
3.84163e-13
3.22016e-12
3.9008e-12
3.5047e-12
2.70024e-12
2.10433e-12
1.66498e-12
1.33615e-12
1.08724e-12
8.89556e-13
4.46003e-13
1.69384e-10
6.59904e-12
5.13998e-12
3.78605e-12
2.83631e-12
2.16609e-12
1.68288e-12
1.32909e-12
1.0582e-12
5.16238e-13
2.51083e-07
6.12062e-10
8.92659e-12
5.24227e-12
3.77981e-12
2.78921e-12
2.09967e-12
1.611e-12
1.24868e-12
6.0039e-13
3.92936e-13
4.1871e-13
2.27516e-13
1.58264e-13
1.83064e-13
4.46184e-13
9.4373e-13
3.67317e-12
1.41316e-11
4.11387e-11
5.54649e-13
5.67168e-13
4.56808e-13
3.59766e-13
2.95184e-13
4.2771e-13
7.76417e-13
2.34139e-12
8.27351e-12
2.67253e-11
6.43292e-13
6.81664e-13
6.348e-13
5.09325e-13
4.0008e-13
4.18829e-13
7.45429e-13
1.63974e-12
5.24159e-12
1.73187e-11
8.10131e-13
9.08529e-13
9.06665e-13
7.38532e-13
5.87669e-13
5.1463e-13
7.23483e-13
1.26696e-12
3.57802e-12
1.16326e-11
1.082e-12
1.28168e-12
1.28574e-12
1.04726e-12
8.39703e-13
6.92422e-13
7.46015e-13
1.10082e-12
2.67541e-12
8.10006e-12
1.51865e-12
1.87236e-12
1.81732e-12
1.46096e-12
1.16387e-12
9.37812e-13
8.6062e-13
1.15387e-12
2.19108e-12
5.8323e-12
2.21458e-12
2.7954e-12
2.57154e-12
2.01815e-12
1.58141e-12
1.24964e-12
1.05242e-12
1.17053e-12
1.91353e-12
4.3299e-12
3.31051e-12
4.23756e-12
3.65425e-12
2.77646e-12
2.12071e-12
1.63764e-12
1.31347e-12
1.25352e-12
1.75798e-12
3.31169e-12
3.87457e-11
6.21597e-12
5.23122e-12
3.81973e-12
2.82276e-12
2.11905e-12
1.63959e-12
1.41042e-12
1.67202e-12
2.61074e-12
2.64356e-08
9.56381e-10
5.86965e-12
5.18721e-12
3.71507e-12
2.70835e-12
2.03121e-12
1.63183e-12
1.6562e-12
2.13043e-12
2.52158e-12
2.37314e-12
1.5182e-12
1.56013e-13
2.68072e-12
8.73366e-12
2.66215e-11
1.05605e-10
3.9134e-10
6.3111e-10
3.55229e-12
3.43311e-12
2.5425e-12
1.1552e-12
1.336e-12
6.29418e-12
1.92724e-11
6.66839e-11
2.2967e-10
3.9944e-10
4.81986e-12
4.69231e-12
3.71491e-12
2.31129e-12
2.66615e-13
4.12199e-12
1.37932e-11
4.48125e-11
1.44604e-10
2.66422e-10
6.48117e-12
6.26888e-12
5.11163e-12
3.5976e-12
1.43327e-12
2.29623e-12
9.81535e-12
3.14238e-11
9.6117e-11
1.83816e-10
8.70388e-12
8.27723e-12
6.80547e-12
5.07432e-12
2.84011e-12
7.72113e-13
6.80776e-12
2.25228e-11
6.63987e-11
1.30416e-10
1.17335e-11
1.08795e-11
8.89593e-12
6.79243e-12
4.35168e-12
1.21382e-12
4.39569e-12
1.61179e-11
4.71785e-11
9.47592e-11
1.59508e-11
1.43252e-11
1.15231e-11
8.82985e-12
6.0326e-12
2.74597e-12
2.40747e-12
1.16301e-11
3.42928e-11
7.02581e-11
2.19798e-11
1.89744e-11
1.48777e-11
1.12899e-11
7.92362e-12
4.35891e-12
1.08318e-12
8.23807e-12
2.53252e-11
5.29808e-11
2.52434e-10
2.53616e-11
1.9245e-11
1.43072e-11
1.0094e-11
6.08049e-12
1.81871e-12
5.57756e-12
1.89044e-11
4.05062e-11
6.49741e-07
1.59588e-09
2.51244e-11
1.80558e-11
1.26097e-11
7.92672e-12
3.33159e-12
3.47898e-12
1.41539e-11
3.12914e-11
3.36487e-12
3.02616e-12
1.99535e-12
1.94943e-12
8.40674e-12
2.96056e-11
1.25591e-10
5.53766e-10
1.21144e-09
1.43916e-09
4.45766e-12
4.15308e-12
3.16749e-12
1.65905e-12
5.25234e-12
2.0227e-11
7.80642e-11
3.16444e-10
7.33115e-10
8.49179e-10
5.78602e-12
5.45815e-12
4.48602e-12
2.76635e-12
2.82482e-12
1.34359e-11
5.09044e-11
1.93722e-10
4.65306e-10
5.29386e-10
7.48613e-12
7.03698e-12
5.97824e-12
4.27379e-12
1.96162e-12
8.48389e-12
3.41282e-11
1.24768e-10
3.05654e-10
3.43223e-10
9.71543e-12
8.99814e-12
7.71694e-12
5.9397e-12
3.15109e-12
4.85429e-12
2.29746e-11
8.30997e-11
2.06621e-10
2.30093e-10
1.27117e-11
1.14932e-11
9.79886e-12
7.79041e-12
4.95653e-12
2.52678e-12
1.50628e-11
5.63765e-11
1.43132e-10
1.58646e-10
1.68345e-11
1.47413e-11
1.23549e-11
9.9053e-12
6.91302e-12
2.78334e-12
9.45271e-12
3.87579e-11
1.00858e-10
1.1182e-10
2.26539e-11
1.90641e-11
1.55674e-11
1.23836e-11
9.01575e-12
4.65752e-12
5.32821e-12
2.66762e-11
7.20469e-11
8.02036e-11
1.48087e-10
2.49762e-11
1.96905e-11
1.53599e-11
1.13404e-11
6.79479e-12
2.74454e-12
1.81181e-11
5.19667e-11
5.82561e-11
1.29782e-07
6.24045e-09
3.44171e-11
1.89822e-11
1.39512e-11
8.9915e-12
3.05636e-12
1.18571e-11
3.76487e-11
4.26304e-11
1.02106e-12
1.27336e-12
1.53941e-12
3.2194e-12
8.49356e-12
2.49736e-11
8.72063e-11
2.79414e-10
4.26528e-10
2.22011e-10
1.10972e-12
1.27807e-12
1.41177e-12
2.44459e-12
6.05376e-12
1.74198e-11
5.79507e-11
1.76906e-10
2.57851e-10
7.88878e-11
1.2026e-12
1.32416e-12
1.40962e-12
1.97731e-12
4.34824e-12
1.22561e-11
3.93722e-11
1.15544e-10
1.61478e-10
4.1928e-11
1.29927e-12
1.39859e-12
1.48467e-12
1.79299e-12
3.20976e-12
8.67133e-12
2.72539e-11
7.75585e-11
1.04305e-10
3.55918e-11
1.40157e-12
1.49051e-12
1.59573e-12
1.78853e-12
2.53085e-12
6.16456e-12
1.90856e-11
5.32749e-11
6.91524e-11
3.10309e-11
1.51675e-12
1.59728e-12
1.72145e-12
1.87338e-12
2.21879e-12
4.46788e-12
1.34538e-11
3.74142e-11
4.68754e-11
2.63548e-11
1.65026e-12
1.71914e-12
1.85374e-12
1.99782e-12
2.15182e-12
3.3686e-12
9.52154e-12
2.65011e-11
3.22516e-11
2.21514e-11
1.83018e-12
1.85872e-12
1.99515e-12
2.13573e-12
2.21185e-12
2.75488e-12
6.81342e-12
1.89382e-11
2.24218e-11
1.86455e-11
3.9543e-10
5.2855e-12
2.14441e-12
2.28107e-12
2.33095e-12
2.49504e-12
4.96595e-12
1.36333e-11
1.56692e-11
1.58201e-11
2.22237e-07
6.60802e-09
1.51576e-11
2.4301e-12
2.4669e-12
2.44774e-12
3.74336e-12
9.86169e-12
1.09268e-11
1.34495e-11
7.85682e-13
1.4937e-12
1.60697e-12
2.51841e-12
4.14591e-12
7.05078e-12
1.46739e-11
5.50374e-11
2.3944e-10
7.15321e-10
7.21089e-13
1.34175e-12
1.39245e-12
2.14658e-12
3.48309e-12
5.86492e-12
1.12026e-11
3.42206e-11
1.45515e-10
4.05581e-10
6.58357e-13
1.19949e-12
1.19872e-12
1.82114e-12
2.9204e-12
4.85392e-12
8.82025e-12
2.26244e-11
9.22335e-11
2.44143e-10
6.05042e-13
1.07795e-12
1.0378e-12
1.55856e-12
2.4628e-12
4.04645e-12
7.10198e-12
1.59011e-11
6.06092e-11
1.54154e-10
5.58994e-13
9.73785e-13
9.0193e-13
1.33649e-12
2.088e-12
3.40264e-12
5.80592e-12
1.17649e-11
4.09973e-11
1.01077e-10
5.19588e-13
8.8483e-13
7.87858e-13
1.15548e-12
1.78787e-12
2.8742e-12
4.80953e-12
9.05825e-12
2.84278e-11
6.84279e-11
4.85599e-13
8.08171e-13
6.91204e-13
1.00313e-12
1.5333e-12
2.43966e-12
4.03549e-12
7.18886e-12
2.01424e-11
4.75657e-11
5.30817e-13
7.41914e-13
6.10229e-13
8.74164e-13
1.32364e-12
2.08766e-12
3.41302e-12
5.8428e-12
1.4541e-11
3.38158e-11
6.18707e-10
1.44938e-11
5.5609e-13
7.65388e-13
1.14955e-12
1.79668e-12
2.90471e-12
4.83381e-12
1.06801e-11
2.45128e-11
2.20781e-07
2.14901e-08
9.16636e-11
1.11775e-12
9.88563e-13
1.54557e-12
2.47718e-12
4.04352e-12
7.95456e-12
1.80575e-11
1.05924e-12
1.84995e-12
1.62498e-12
2.17134e-12
3.02231e-12
4.37987e-12
6.88782e-12
1.31584e-11
5.08389e-11
1.59438e-10
9.86148e-13
1.69618e-12
1.45653e-12
1.93751e-12
2.67332e-12
3.8143e-12
5.77389e-12
1.02903e-11
3.6092e-11
9.76943e-11
9.15387e-13
1.54857e-12
1.29437e-12
1.7129e-12
2.34841e-12
3.31956e-12
4.88487e-12
8.06513e-12
2.57011e-11
6.33253e-11
8.53501e-13
1.41989e-12
1.15567e-12
1.51867e-12
2.07161e-12
2.90309e-12
4.19947e-12
6.51684e-12
1.85059e-11
4.28758e-11
7.99758e-13
1.30762e-12
1.03623e-12
1.3519e-12
1.83708e-12
2.55532e-12
3.65159e-12
5.42133e-12
1.34583e-11
2.9989e-11
7.52912e-13
1.20937e-12
9.32694e-13
1.20879e-12
1.63183e-12
2.25756e-12
3.20481e-12
4.61487e-12
9.90665e-12
2.14939e-11
7.11592e-13
1.1226e-12
8.4306e-13
1.08458e-12
1.45537e-12
2.00532e-12
2.8282e-12
3.9926e-12
7.35881e-12
1.57099e-11
7.74106e-13
1.04643e-12
7.65291e-13
9.76437e-13
1.30201e-12
1.7852e-12
2.50416e-12
3.49348e-12
5.51179e-12
1.16665e-11
9.09193e-10
2.57756e-11
7.21627e-13
8.81824e-13
1.16881e-12
1.59368e-12
2.22849e-12
3.07826e-12
4.16304e-12
8.76862e-12
2.71321e-07
3.78568e-08
2.24994e-10
1.68543e-12
1.03104e-12
1.42533e-12
1.98514e-12
2.72072e-12
3.15356e-12
6.64457e-12
1.46778e-12
2.33613e-12
1.63724e-12
1.89925e-12
2.27961e-12
2.82549e-12
3.79419e-12
5.89273e-12
1.4881e-11
2.6071e-11
1.38825e-12
2.18617e-12
1.52042e-12
1.76768e-12
2.11952e-12
2.60109e-12
3.35903e-12
4.82468e-12
1.16817e-11
1.96604e-11
1.30871e-12
2.03711e-12
1.39744e-12
1.62651e-12
1.95116e-12
2.38222e-12
3.00804e-12
4.05395e-12
8.97751e-12
1.49226e-11
1.23836e-12
1.90392e-12
1.28638e-12
1.49745e-12
1.79714e-12
2.18999e-12
2.73115e-12
3.51184e-12
6.87671e-12
1.14657e-11
1.1761e-12
1.78456e-12
1.18663e-12
1.38009e-12
1.65775e-12
2.01827e-12
2.50256e-12
3.11824e-12
5.26306e-12
8.88804e-12
1.12078e-12
1.67711e-12
1.09718e-12
1.27445e-12
1.52936e-12
1.86264e-12
2.30196e-12
2.81724e-12
4.02195e-12
6.92313e-12
1.07148e-12
1.58058e-12
1.01698e-12
1.17871e-12
1.41268e-12
1.72081e-12
2.12777e-12
2.57183e-12
3.07166e-12
5.40976e-12
1.1358e-12
1.49374e-12
9.4471e-13
1.09194e-12
1.30667e-12
1.59152e-12
1.96904e-12
2.36713e-12
2.34126e-12
4.24039e-12
1.16328e-09
3.77748e-11
9.1026e-13
1.01267e-12
1.2099e-12
1.47297e-12
1.82362e-12
2.18762e-12
1.77834e-12
3.33028e-12
2.20813e-07
5.23055e-08
3.56296e-10
2.1082e-12
1.09502e-12
1.36269e-12
1.68509e-12
2.02113e-12
1.3363e-12
2.60745e-12
2.06598e-12
2.95759e-12
1.59635e-12
1.60185e-12
1.66329e-12
1.79885e-12
2.1434e-12
2.94352e-12
6.52064e-12
8.44153e-12
1.98169e-12
2.8211e-12
1.53726e-12
1.55998e-12
1.62984e-12
1.74506e-12
1.98748e-12
2.51729e-12
5.29524e-12
7.01222e-12
1.89698e-12
2.68064e-12
1.46111e-12
1.49739e-12
1.57649e-12
1.68483e-12
1.86883e-12
2.21218e-12
4.19049e-12
5.7289e-12
1.8204e-12
2.55115e-12
1.38683e-12
1.43239e-12
1.51882e-12
1.62725e-12
1.78165e-12
2.00819e-12
3.29802e-12
4.67928e-12
1.75107e-12
2.43152e-12
1.31539e-12
1.36808e-12
1.46017e-12
1.57044e-12
1.71067e-12
1.87033e-12
2.57798e-12
3.82019e-12
1.68847e-12
2.32136e-12
1.24793e-12
1.30448e-12
1.40007e-12
1.51378e-12
1.6508e-12
1.77055e-12
1.99747e-12
3.11473e-12
1.63153e-12
2.21998e-12
1.18451e-12
1.24276e-12
1.33963e-12
1.45614e-12
1.59405e-12
1.69387e-12
1.52482e-12
2.53404e-12
1.68616e-12
2.12715e-12
1.12483e-12
1.18376e-12
1.28101e-12
1.39809e-12
1.53691e-12
1.63017e-12
1.14297e-12
2.05393e-12
1.3924e-09
4.82522e-11
1.11136e-12
1.12685e-12
1.22369e-12
1.34096e-12
1.48036e-12
1.57344e-12
8.36123e-13
1.6563e-12
6.99667e-08
5.94836e-08
8.05708e-10
2.01036e-12
1.13947e-12
1.28188e-12
1.42027e-12
1.51424e-12
5.78424e-13
1.32355e-12
2.88254e-12
3.66748e-12
1.43072e-12
1.21385e-12
1.06685e-12
1.0033e-12
1.13518e-12
1.53162e-12
3.31346e-12
3.76163e-12
2.79933e-12
3.55934e-12
1.43052e-12
1.24788e-12
1.11939e-12
1.03644e-12
1.07761e-12
1.32001e-12
2.83918e-12
3.32569e-12
2.71488e-12
3.44347e-12
1.40837e-12
1.25712e-12
1.15052e-12
1.06637e-12
1.0542e-12
1.17248e-12
2.3383e-12
2.85105e-12
2.63694e-12
3.33233e-12
1.37839e-12
1.25412e-12
1.16857e-12
1.09276e-12
1.05475e-12
1.08554e-12
1.90859e-12
2.43974e-12
2.56485e-12
3.22694e-12
1.34503e-12
1.24349e-12
1.17666e-12
1.11291e-12
1.06585e-12
1.04373e-12
1.53998e-12
2.08313e-12
2.49823e-12
3.12675e-12
1.30857e-12
1.22637e-12
1.1765e-12
1.12648e-12
1.08151e-12
1.02942e-12
1.22297e-12
1.77305e-12
2.43677e-12
3.03232e-12
1.27057e-12
1.20461e-12
1.17012e-12
1.13376e-12
1.09636e-12
1.03011e-12
9.52262e-13
1.50386e-12
2.48221e-12
2.94391e-12
1.23226e-12
1.1804e-12
1.1582e-12
1.13448e-12
1.10732e-12
1.03843e-12
7.20969e-13
1.27179e-12
1.64454e-09
5.50158e-11
1.26501e-12
1.15358e-12
1.14255e-12
1.13016e-12
1.11298e-12
1.04895e-12
5.24084e-13
1.07237e-12
1.04368e-07
5.57907e-08
7.72061e-10
4.04026e-12
1.10318e-12
1.11882e-12
1.11242e-12
1.05521e-12
3.51589e-13
9.04657e-13
3.86714e-12
4.36232e-12
1.11046e-12
7.61023e-13
4.95125e-13
3.49912e-13
4.85533e-13
7.92465e-13
2.00924e-12
2.03745e-12
3.79087e-12
4.29475e-12
1.15547e-12
8.42789e-13
6.00252e-13
4.20533e-13
4.29546e-13
6.44028e-13
1.844e-12
1.92162e-12
3.7147e-12
4.22028e-12
1.17793e-12
9.00699e-13
6.84314e-13
4.99739e-13
4.25784e-13
5.31551e-13
1.60411e-12
1.72695e-12
3.64263e-12
4.14448e-12
1.18905e-12
9.43406e-13
7.50947e-13
5.74372e-13
4.58294e-13
4.62518e-13
1.39026e-12
1.55139e-12
3.57437e-12
4.06965e-12
1.19168e-12
9.74052e-13
8.04268e-13
6.40498e-13
5.07909e-13
4.38197e-13
1.19936e-12
1.39253e-12
3.51082e-12
3.9961e-12
1.18757e-12
9.95655e-13
8.47274e-13
6.98461e-13
5.62937e-13
4.49293e-13
1.03083e-12
1.25024e-12
3.45068e-12
3.92417e-12
1.17863e-12
1.00983e-12
8.80292e-13
7.47293e-13
6.17016e-13
4.82017e-13
8.83953e-13
1.1239e-12
3.49016e-12
3.85608e-12
1.16633e-12
1.01766e-12
9.05412e-13
7.87979e-13
6.66849e-13
5.25345e-13
7.57936e-13
1.0123e-12
1.87643e-09
5.67286e-11
1.28272e-12
1.02085e-12
9.25051e-13
8.2162e-13
7.10579e-13
5.72021e-13
6.52606e-13
9.15396e-13
2.95407e-07
3.88791e-08
6.91952e-10
6.01578e-12
9.31179e-13
8.46994e-13
7.4812e-13
6.14801e-13
5.68358e-13
8.36121e-13
4.82958e-12
4.90402e-12
7.31908e-13
4.97946e-13
2.72219e-13
1.51851e-13
2.66495e-13
4.68916e-13
1.44861e-12
1.29754e-12
4.76378e-12
4.88109e-12
7.69147e-13
5.35878e-13
3.11194e-13
1.24617e-13
1.63282e-13
3.65036e-13
1.43818e-12
1.31408e-12
4.70051e-12
4.8539e-12
7.96297e-13
5.72363e-13
3.60597e-13
1.6254e-13
7.62627e-14
2.65577e-13
1.3332e-12
1.23992e-12
4.63898e-12
4.82167e-12
8.18062e-13
6.05346e-13
4.10264e-13
2.20612e-13
4.55532e-14
1.73364e-13
1.23799e-12
1.17144e-12
4.58022e-12
4.78644e-12
8.34785e-13
6.35602e-13
4.57105e-13
2.80784e-13
1.08511e-13
9.05685e-14
1.15081e-12
1.10818e-12
4.52374e-12
4.74867e-12
8.47396e-13
6.61681e-13
4.9984e-13
3.37207e-13
1.76411e-13
3.30494e-14
1.07162e-12
1.05024e-12
4.47006e-12
4.71001e-12
8.56243e-13
6.84061e-13
5.37896e-13
3.89167e-13
2.39013e-13
7.34788e-14
1.00128e-12
9.97713e-13
4.50913e-12
4.67261e-12
8.61274e-13
7.02214e-13
5.71237e-13
4.35527e-13
2.95851e-13
1.36401e-13
9.3869e-13
9.50514e-13
2.05087e-09
5.40496e-11
1.08333e-12
7.17801e-13
6.0014e-13
4.76525e-13
3.47815e-13
1.96333e-13
8.84158e-13
9.07872e-13
4.68718e-07
1.72863e-08
4.2311e-10
4.86169e-12
6.27252e-13
5.13395e-13
3.94665e-13
2.52527e-13
8.37018e-13
8.79603e-13
5.453e-12
5.18351e-12
5.1637e-13
6.00976e-13
5.10221e-13
4.40446e-13
4.00858e-13
4.17662e-13
1.21616e-12
9.86768e-13
5.39444e-12
5.18967e-12
4.60246e-13
5.40796e-13
4.57368e-13
3.92861e-13
3.55166e-13
3.79181e-13
1.27893e-12
1.06116e-12
5.34048e-12
5.1954e-12
4.14959e-13
4.87448e-13
4.10128e-13
3.48071e-13
3.12193e-13
3.37287e-13
1.23726e-12
1.03877e-12
5.2877e-12
5.19477e-12
3.82738e-13
4.42302e-13
3.69744e-13
3.10165e-13
2.73745e-13
2.98721e-13
1.19756e-12
1.01659e-12
5.23635e-12
5.18921e-12
3.62768e-13
4.06306e-13
3.38581e-13
2.79525e-13
2.4068e-13
2.6315e-13
1.15978e-12
9.95906e-13
5.1872e-12
5.18044e-12
3.52866e-13
3.78126e-13
3.13408e-13
2.54995e-13
2.13457e-13
2.32089e-13
1.12412e-12
9.76123e-13
5.13972e-12
5.16861e-12
3.49755e-13
3.56484e-13
2.95515e-13
2.37797e-13
1.93384e-13
2.04304e-13
1.09001e-12
9.57816e-13
5.18096e-12
5.1568e-12
3.51304e-13
3.40388e-13
2.83099e-13
2.26532e-13
1.78488e-13
1.8186e-13
1.0583e-12
9.39563e-13
2.14303e-09
5.05748e-11
7.50377e-13
3.28926e-13
2.7527e-13
2.2083e-13
1.7148e-13
1.64826e-13
1.02712e-12
9.2237e-13
5.75535e-07
1.55266e-08
3.21297e-10
3.69535e-12
2.62309e-13
2.22877e-13
1.74746e-13
1.60169e-13
9.9877e-13
9.44754e-13
5.45784e-12
5.15443e-12
5.09659e-13
6.25895e-13
5.39866e-13
4.65923e-13
4.12501e-13
4.099e-13
1.14897e-12
9.42187e-13
5.39913e-12
5.16258e-12
4.33197e-13
5.56721e-13
4.83146e-13
4.18313e-13
3.7195e-13
3.79573e-13
1.22123e-12
1.02018e-12
5.34547e-12
5.17138e-12
3.67705e-13
4.93641e-13
4.29943e-13
3.7253e-13
3.31941e-13
3.43026e-13
1.18736e-12
1.00117e-12
5.29305e-12
5.17336e-12
3.1607e-13
4.37485e-13
3.82363e-13
3.3151e-13
2.95218e-13
3.09536e-13
1.15497e-12
9.82438e-13
5.24239e-12
5.17092e-12
2.79488e-13
3.90532e-13
3.41775e-13
2.95322e-13
2.62047e-13
2.78044e-13
1.12392e-12
9.65107e-13
5.19379e-12
5.16447e-12
2.57093e-13
3.51003e-13
3.07415e-13
2.64588e-13
2.32888e-13
2.48893e-13
1.0943e-12
9.48557e-13
5.14691e-12
5.15522e-12
2.46551e-13
3.18324e-13
2.7895e-13
2.3884e-13
2.07927e-13
2.22722e-13
1.06585e-12
9.33107e-13
5.18839e-12
5.14539e-12
2.45543e-13
2.92172e-13
2.56328e-13
2.18176e-13
1.86494e-13
1.9929e-13
1.03897e-12
9.18001e-13
2.14303e-09
5.05744e-11
7.01632e-13
2.71534e-13
2.38281e-13
2.02459e-13
1.71092e-13
1.79583e-13
1.01257e-12
9.03516e-13
5.75535e-07
1.55266e-08
3.21276e-10
3.66758e-12
2.10792e-13
1.95283e-13
1.65624e-13
1.6991e-13
9.87829e-13
9.40264e-13
4.83588e-12
4.82404e-12
6.62388e-13
5.12757e-13
3.33491e-13
2.27449e-13
2.61948e-13
4.07023e-13
1.21683e-12
1.15017e-12
4.77185e-12
4.80941e-12
6.79954e-13
5.1999e-13
3.36093e-13
1.94339e-13
1.82308e-13
3.24047e-13
1.23891e-12
1.17835e-12
4.7108e-12
4.7911e-12
6.9734e-13
5.35036e-13
3.56581e-13
1.97605e-13
1.18553e-13
2.3966e-13
1.1621e-12
1.11633e-12
4.65141e-12
4.76735e-12
7.13445e-13
5.53162e-13
3.8499e-13
2.24836e-13
9.03724e-14
1.61292e-13
1.09223e-12
1.05929e-12
4.59468e-12
4.74034e-12
7.28834e-13
5.72805e-13
4.16967e-13
2.63635e-13
1.14973e-13
9.2394e-14
1.02838e-12
1.00733e-12
4.54021e-12
4.71046e-12
7.41881e-13
5.92398e-13
4.49563e-13
3.06086e-13
1.6191e-13
4.67727e-14
9.71188e-13
9.60617e-13
4.48809e-12
4.6789e-12
7.52507e-13
6.10606e-13
4.80673e-13
3.48046e-13
2.12669e-13
6.93471e-14
9.20027e-13
9.18525e-13
4.5287e-12
4.64763e-12
7.60579e-13
6.27008e-13
5.09498e-13
3.87395e-13
2.61459e-13
1.20289e-13
8.75066e-13
8.81026e-13
2.05087e-09
5.40499e-11
9.99775e-13
6.4134e-13
5.35552e-13
4.24167e-13
3.07535e-13
1.72746e-13
8.36371e-13
8.48627e-13
4.68718e-07
1.72863e-08
4.23069e-10
4.8101e-12
5.59562e-13
4.57767e-13
3.50283e-13
2.23844e-13
8.03213e-13
8.40368e-13
3.86962e-12
4.26089e-12
9.736e-13
6.55324e-13
3.94916e-13
2.18301e-13
3.33005e-13
6.0769e-13
1.49918e-12
1.7155e-12
3.79922e-12
4.20964e-12
1.0231e-12
7.33638e-13
4.98425e-13
3.07419e-13
2.9174e-13
4.88223e-13
1.40833e-12
1.63214e-12
3.729e-12
4.14977e-12
1.05368e-12
7.94003e-13
5.83675e-13
3.97371e-13
3.04525e-13
3.94939e-13
1.23388e-12
1.46909e-12
3.66105e-12
4.08748e-12
1.07308e-12
8.39908e-13
6.52704e-13
4.77548e-13
3.51046e-13
3.41165e-13
1.0769e-12
1.32185e-12
3.59701e-12
4.02428e-12
1.08475e-12
8.76239e-13
7.09654e-13
5.47914e-13
4.10483e-13
3.31088e-13
9.36956e-13
1.18947e-12
3.53632e-12
3.96131e-12
1.08945e-12
9.03096e-13
7.56179e-13
6.0941e-13
4.72493e-13
3.53699e-13
8.14319e-13
1.07133e-12
3.4789e-12
3.89906e-12
1.08919e-12
9.22997e-13
7.93498e-13
6.61636e-13
5.30895e-13
3.95919e-13
7.08684e-13
9.67892e-13
3.5204e-12
3.83936e-12
1.08419e-12
9.36725e-13
8.23937e-13
7.05903e-13
5.84592e-13
4.45426e-13
6.20927e-13
8.77137e-13
1.87643e-09
5.67313e-11
1.20987e-12
9.46168e-13
8.4789e-13
7.43249e-13
6.31858e-13
4.96073e-13
5.50159e-13
8.00055e-13
2.95407e-07
3.88791e-08
6.91923e-10
5.9751e-12
8.59434e-13
7.72589e-13
6.72403e-13
5.42505e-13
4.97496e-13
7.43156e-13
2.88767e-12
3.57641e-12
1.26997e-12
1.03669e-12
8.76154e-13
7.89268e-13
8.63538e-13
1.15031e-12
2.20391e-12
3.00907e-12
2.81398e-12
3.4904e-12
1.29144e-12
1.08993e-12
9.46345e-13
8.45653e-13
8.48753e-13
1.01506e-12
1.92148e-12
2.68387e-12
2.7369e-12
3.39307e-12
1.2889e-12
1.118e-12
9.95031e-13
8.95351e-13
8.56427e-13
9.24019e-13
1.58441e-12
2.30348e-12
2.66443e-12
3.29787e-12
1.27709e-12
1.13187e-12
1.02883e-12
9.3796e-13
8.79066e-13
8.78664e-13
1.28759e-12
1.97123e-12
2.59683e-12
3.20554e-12
1.25846e-12
1.13679e-12
1.0517e-12
9.72723e-13
9.09078e-13
8.65153e-13
1.03116e-12
1.68138e-12
2.53342e-12
3.11654e-12
1.23557e-12
1.13362e-12
1.06554e-12
9.99865e-13
9.39778e-13
8.71823e-13
8.08933e-13
1.42904e-12
2.47461e-12
3.03116e-12
1.20964e-12
1.12511e-12
1.07158e-12
1.01846e-12
9.66731e-13
8.88905e-13
6.16331e-13
1.21072e-12
2.52102e-12
2.95094e-12
1.18153e-12
1.11167e-12
1.07188e-12
1.03106e-12
9.88079e-13
9.1037e-13
4.49761e-13
1.02291e-12
1.64454e-09
5.50205e-11
1.22155e-12
1.09549e-12
1.06672e-12
1.03735e-12
1.00459e-12
9.31582e-13
3.0879e-13
8.62795e-13
1.04368e-07
5.57907e-08
7.72042e-10
4.00759e-12
1.03823e-12
1.03645e-12
1.01372e-12
9.47567e-13
1.82251e-13
7.30326e-13
2.085e-12
2.89831e-12
1.44047e-12
1.38452e-12
1.38591e-12
1.44575e-12
1.64535e-12
2.11763e-12
3.80736e-12
6.27186e-12
2.01011e-12
2.78641e-12
1.41407e-12
1.37988e-12
1.39339e-12
1.4446e-12
1.58309e-12
1.8916e-12
3.15765e-12
5.27111e-12
1.93135e-12
2.66434e-12
1.36538e-12
1.34962e-12
1.37577e-12
1.42705e-12
1.53238e-12
1.72846e-12
2.52126e-12
4.32304e-12
1.85885e-12
2.54909e-12
1.31351e-12
1.31234e-12
1.34911e-12
1.40549e-12
1.49679e-12
1.62061e-12
1.99604e-12
3.54131e-12
1.79248e-12
2.44111e-12
1.26051e-12
1.27112e-12
1.3173e-12
1.37963e-12
1.46771e-12
1.54989e-12
1.56651e-12
2.89733e-12