/*--------------------------------*- C++ -*----------------------------------*\
| =========                 |                                                 |
| \\      /  F ield         | OpenFOAM: The Open Source CFD Toolbox           |
|  \\    /   O peration     | Version:  4.1                                   |
|   \\  /    A nd           | Web:      www.OpenFOAM.org                      |
|    \\/     M anipulation  |                                                 |
\*---------------------------------------------------------------------------*/
FoamFile
{
    version     2.0;
    format      ascii;
    class       surfaceScalarField;
    location    "0.54";
    object      phi;
}
// * * * * * * * * * * * * * * * * * * * * * * * * * * * * * * * * * * * * * //

dimensions      [1 0 -1 0 0 0 0];

internalField   nonuniform List<scalar> 
51500
(
3.66027e-13
1.50938e-14
1.4693e-11
-1.46343e-15
2.01548e-14
1.45261e-11
-2.6355e-15
1.8966e-14
1.43607e-11
-2.5891e-15
1.76798e-14
1.41978e-11
-2.50987e-15
1.63472e-14
1.40365e-11
-2.45746e-15
1.4981e-14
1.38774e-11
-2.52472e-15
1.36167e-14
1.37199e-11
-2.47357e-15
1.22659e-14
1.35654e-11
-2.48816e-15
1.08994e-14
1.3413e-11
9.54156e-15
1.32649e-11
-7.50268e-17
3.69193e-13
9.92014e-15
1.84099e-11
-1.05541e-14
9.975e-15
1.77589e-11
-9.64301e-15
8.5045e-15
1.7131e-11
-9.44575e-15
7.11168e-15
1.65299e-11
-9.17141e-15
5.88076e-15
1.59546e-11
-8.8533e-15
5.01615e-15
1.54035e-11
-8.61279e-15
4.3275e-15
1.48748e-11
-8.38287e-15
3.10547e-15
1.43686e-11
-8.08424e-15
1.91116e-15
1.38822e-11
8.00594e-16
1.34238e-11
-8.03394e-16
3.68848e-13
1.02678e-14
2.33502e-11
-2.29591e-14
1.1804e-14
2.1923e-11
-1.90724e-14
9.7539e-15
2.05903e-11
-1.81224e-14
7.92739e-15
1.93548e-11
-1.71685e-14
6.29795e-15
1.82076e-11
-1.64144e-14
4.84175e-15
1.71423e-11
-1.5564e-14
3.55547e-15
1.61536e-11
-1.49029e-14
2.39912e-15
1.52324e-11
-1.41216e-14
1.38304e-15
1.43752e-11
5.17876e-16
1.35859e-11
-1.49251e-15
3.62773e-13
1.34468e-14
3.00096e-11
-4.02811e-14
1.446e-14
2.73412e-11
-3.13874e-14
1.16366e-14
2.49449e-11
-2.91445e-14
9.18971e-15
2.27915e-11
-2.70412e-14
7.11905e-15
2.08625e-11
-2.51621e-14
5.35098e-15
1.91293e-11
-2.3446e-14
3.84317e-15
1.75688e-11
-2.18929e-14
2.54315e-15
1.6161e-11
-2.02852e-14
1.42991e-15
1.4889e-11
5.02203e-16
1.37506e-11
-2.26989e-15
3.46217e-13
1.79559e-14
3.91311e-11
-6.4098e-14
1.80146e-14
3.44813e-11
-4.79039e-14
1.40147e-14
3.0472e-11
-4.31696e-14
1.07458e-14
2.70034e-11
-3.90433e-14
8.09414e-15
2.40063e-11
-3.54307e-14
5.93493e-15
2.1405e-11
-3.23253e-14
4.15432e-15
1.91398e-11
-2.95518e-14
2.69262e-15
1.71611e-11
-2.68216e-14
1.48919e-15
1.54263e-11
5.25408e-16
1.39188e-11
-3.04509e-15
3.11511e-13
2.45351e-14
5.18403e-11
-1.20911e-13
2.28652e-14
4.40181e-11
-6.99904e-14
1.7125e-14
3.75636e-11
-6.11514e-14
1.26693e-14
3.22026e-11
-5.37282e-14
9.25584e-15
2.77474e-11
-4.75689e-14
6.59145e-15
2.40205e-11
-4.23283e-14
4.50517e-15
2.08869e-11
-3.78488e-14
2.85257e-15
1.82385e-11
-3.36559e-14
1.54877e-15
1.59878e-11
5.29293e-16
1.40896e-11
-3.89966e-15
2.42507e-13
4.26062e-14
6.98671e-11
-1.94133e-13
3.70144e-14
5.69538e-11
-1.0015e-13
2.65737e-14
4.67584e-11
-8.43493e-14
1.89684e-14
3.86728e-11
-7.18771e-14
1.34402e-14
3.22244e-11
-6.18242e-14
9.34686e-15
2.70368e-11
-5.36602e-14
6.27046e-15
2.28325e-11
-4.68717e-14
3.94816e-15
1.93994e-11
-4.09025e-14
2.16651e-15
1.65755e-11
7.93317e-16
1.42635e-11
-4.75249e-15
1.60521e-13
-2.3702e-13
9.60011e-11
-2.87403e-13
-2.64034e-13
7.47591e-11
-1.41025e-13
-2.79264e-13
5.88208e-11
-1.14097e-13
-2.89071e-13
4.67889e-11
-9.38838e-14
-2.95576e-13
3.76125e-11
-7.83293e-14
-2.99874e-13
3.05318e-11
-6.60947e-14
-3.02691e-13
2.50084e-11
-5.63687e-14
-3.04523e-13
2.0657e-11
-4.80015e-14
-3.05697e-13
1.71937e-11
-3.10296e-13
1.44453e-11
-5.68035e-15
2.76087e-12
-6.95899e-10
1.59326e-10
2.22183e-12
-7.4033e-10
1.20637e-10
2.00977e-12
-7.4434e-10
9.44405e-11
1.82215e-12
-7.47253e-10
7.56358e-11
1.65593e-12
-7.49531e-10
6.19811e-11
1.50921e-12
-7.51329e-10
5.19157e-11
1.37965e-12
-7.52759e-10
4.44037e-11
1.26507e-12
-7.53902e-10
3.87344e-11
1.14746e-12
-7.54862e-10
3.44103e-11
-7.6831e-10
3.13284e-11
-6.64247e-15
-2.39669e-10
1.24986e-07
-8.58291e-07
2.74744e-10
1.05726e-07
-9.3715e-07
2.8602e-10
9.23336e-08
-9.3907e-07
2.76948e-10
8.1261e-08
-9.40545e-07
2.67526e-10
7.2008e-08
-9.41826e-07
2.58106e-10
6.421e-08
-9.42955e-07
2.48879e-10
5.75854e-08
-9.43961e-07
2.37582e-10
5.19159e-08
-9.44866e-07
1.21309e-10
4.70341e-08
-9.45745e-07
4.3509e-08
-7.6716e-15
-9.78578e-07
3.42356e-13
9.02708e-14
5.40492e-13
-1.89068e-14
8.50945e-14
5.31283e-13
-2.55236e-14
7.49773e-14
5.2258e-13
-2.48059e-14
6.5178e-14
5.12412e-13
-2.44069e-14
5.57169e-14
5.03443e-13
-2.42369e-14
4.6558e-14
4.9521e-13
-2.40663e-14
3.77064e-14
4.85877e-13
-2.38776e-14
2.91647e-14
4.77787e-13
-2.58902e-14
2.08598e-14
4.69638e-13
1.29669e-14
4.61132e-13
-1.5851e-15
2.84606e-13
8.49005e-14
7.51277e-13
-7.14699e-14
7.71652e-14
7.12929e-13
-8.60175e-14
6.53362e-14
6.77045e-13
-8.29643e-14
5.40513e-14
6.41455e-13
-8.0648e-14
4.31521e-14
6.08608e-13
-7.8467e-14
3.1179e-14
5.77002e-13
-7.61509e-14
2.11454e-14
5.48333e-13
-7.48586e-14
1.38344e-14
5.20459e-13
-7.89775e-14
7.67974e-15
4.95456e-13
2.56534e-15
4.7004e-13
-4.31491e-15
1.9835e-13
1.07256e-13
1.06145e-12
-1.8078e-13
9.54994e-14
9.67507e-13
-1.63641e-13
7.98221e-14
8.86964e-13
-1.55219e-13
6.54157e-14
8.08084e-13
-1.47777e-13
5.24358e-14
7.3895e-13
-1.40881e-13
4.06899e-14
6.76531e-13
-1.34553e-13
3.00554e-14
6.20116e-13
-1.29044e-13
2.04828e-14
5.69072e-13
-1.34747e-13
1.18697e-14
5.22452e-13
4.21593e-15
4.80584e-13
-6.91331e-15
7.59548e-14
1.31797e-13
1.52893e-12
-3.12486e-13
1.14045e-13
1.33654e-12
-2.63791e-13
9.3098e-14
1.17551e-12
-2.44372e-13
7.46206e-14
1.02944e-12
-2.2798e-13
5.84997e-14
9.04584e-13
-2.13081e-13
4.44259e-14
7.96899e-13
-1.99353e-13
3.21931e-14
7.0444e-13
-1.87432e-13
2.15335e-14
6.24746e-13
-1.92111e-13
1.22339e-14
5.53162e-13
4.22804e-15
4.90462e-13
-9.86342e-15
-4.84619e-14
1.63777e-13
2.25031e-12
-4.79719e-13
1.3745e-13
1.87983e-12
-3.92075e-13
1.09417e-13
1.58017e-12
-3.54796e-13
8.55388e-14
1.32422e-12
-3.23782e-13
6.54813e-14
1.11589e-12
-2.95954e-13
4.86486e-14
9.45027e-13
-2.71262e-13
3.44816e-14
8.03413e-13
-2.5026e-13
2.25967e-14
6.85683e-13
-2.51725e-13
1.25886e-14
5.86792e-13
4.29542e-15
5.02325e-13
-1.30087e-14
-1.89931e-13
2.05587e-13
3.39516e-12
-6.98218e-13
1.67721e-13
2.6898e-12
-5.57075e-13
1.29601e-13
2.153e-12
-4.9159e-13
9.86624e-14
1.71965e-12
-4.37856e-13
7.36359e-14
1.38644e-12
-3.91434e-13
5.33569e-14
1.12554e-12
-3.51045e-13
3.69853e-14
9.20299e-13
-3.17567e-13
2.37054e-14
7.56859e-13
-3.13541e-13
1.29932e-14
6.25422e-13
4.30831e-15
5.15826e-13
-1.59933e-14
-6.18422e-13
2.59407e-13
5.25561e-12
-9.89747e-13
2.10983e-13
3.93002e-12
-7.69122e-13
1.58557e-13
2.97576e-12
-6.61017e-13
1.17774e-13
2.25578e-12
-5.74187e-13
8.61335e-14
1.73477e-12
-5.00995e-13
6.15369e-14
1.34772e-12
-4.39661e-13
4.22676e-14
1.05715e-12
-3.89173e-13
2.71308e-14
8.37559e-13
-3.77877e-13
1.50125e-14
6.65883e-13
5.03649e-15
5.30871e-13
-1.90455e-14
-1.13588e-12
3.16507e-13
8.37727e-12
-1.38115e-12
2.25044e-13
5.87097e-12
-1.0427e-12
1.59215e-13
4.1794e-12
-8.70754e-13
1.11202e-13
2.99732e-12
-7.3609e-13
7.59388e-14
2.19005e-12
-6.27008e-13
4.96799e-14
1.62306e-12
-5.37382e-13
2.99526e-14
1.2209e-12
-4.66154e-13
1.4985e-14
9.28423e-13
-4.44224e-13
3.54407e-15
7.12179e-13
-5.20321e-15
5.46608e-13
-2.21951e-14
-1.96281e-12
8.33933e-12
1.54905e-11
-1.68775e-12
-2.52161e-11
8.32175e-12
-1.02685e-12
-2.31723e-11
5.5891e-12
-8.55687e-13
-2.1465e-11
3.87544e-12
-7.29537e-13
-2.0193e-11
2.79878e-12
-6.45685e-13
-1.9247e-11
2.10147e-12
-6.1213e-13
-1.85498e-11
1.63844e-12
-5.53896e-13
-1.80437e-11
1.3241e-12
-5.584e-13
-1.76876e-11
1.10256e-12
-1.75584e-11
9.3877e-13
-2.54078e-14
-7.61733e-10
1.02662e-08
7.33986e-08
-2.70719e-10
5.06932e-09
-1.51173e-09
-2.84079e-10
3.79642e-09
-1.67516e-09
-2.74367e-10
2.90886e-09
-1.65076e-09
-2.64581e-10
2.26535e-09
-1.62011e-09
-2.54963e-10
1.79009e-09
-1.58747e-09
-2.45645e-10
1.43341e-09
-1.55487e-09
-2.36729e-10
1.16179e-09
-1.52362e-09
-2.30861e-10
9.52309e-10
-1.49858e-09
7.94076e-10
-2.87977e-14
-1.72522e-09
3.45031e-13
8.20494e-14
1.91921e-14
-1.69786e-14
7.78878e-14
1.75106e-14
-2.21568e-14
6.87088e-14
1.614e-14
-2.02114e-14
5.98555e-14
1.46202e-14
-1.86407e-14
5.12948e-14
1.29828e-14
-2.0168e-14
4.29667e-14
1.08811e-14
-1.89686e-14
3.49931e-14
1.00474e-14
-1.93653e-14
2.72425e-14
9.17445e-15
-2.34743e-14
1.97525e-14
8.32806e-15
1.26191e-14
8.37219e-15
-1.33769e-15
2.93689e-13
5.92394e-14
3.08543e-14
-6.51441e-14
5.43927e-14
2.76874e-14
-7.1789e-14
4.61124e-14
2.70182e-14
-6.68144e-14
3.81994e-14
2.25712e-14
-6.55974e-14
3.08414e-14
1.9547e-14
-6.25274e-14
2.40566e-14
1.76816e-14
-6.13189e-14
1.77641e-14
1.41695e-14
-6.06444e-14
1.20276e-14
1.23726e-14
-7.13406e-14
6.85136e-15
1.15379e-14
2.40811e-15
1.01346e-14
-4.42203e-15
2.15206e-13
7.57508e-14
4.65483e-14
-1.65535e-13
6.84211e-14
4.21591e-14
-1.36313e-13
5.75681e-14
4.08581e-14
-1.24827e-13
4.76258e-14
3.53943e-14
-1.18575e-13
3.85997e-14
2.97724e-14
-1.12536e-13
3.03193e-14
2.45958e-14
-1.07053e-13
2.3141e-14
2.1066e-14
-1.05041e-13
1.64178e-14
1.84118e-14
-1.21269e-13
9.53626e-15
1.57772e-14
3.33815e-15
1.30566e-14
-7.24052e-15
9.39179e-14
9.41573e-14
7.47159e-14
-2.89284e-13
8.2438e-14
6.94234e-14
-2.18643e-13
6.767e-14
6.54905e-14
-1.94861e-13
5.46691e-14
5.39515e-14
-1.81619e-13
4.33441e-14
4.49415e-14
-1.6867e-13
3.35885e-14
3.78178e-14
-1.52604e-13
2.54666e-14
3.17951e-14
-1.52396e-13
1.70427e-14
2.68381e-14
-1.73175e-13
9.78037e-15
2.39859e-14
3.47134e-15
1.78757e-14
-1.03741e-14
-2.39237e-14
1.18753e-13
1.27754e-13
-4.46396e-13
1.00172e-13
1.15519e-13
-3.23135e-13
8.01477e-14
1.05046e-13
-2.6908e-13
6.30343e-14
8.54442e-14
-2.45192e-13
4.8761e-14
6.90371e-14
-2.2316e-13
3.68689e-14
5.63771e-14
-2.03098e-13
2.76117e-14
4.71936e-14
-2.01133e-13
1.83561e-14
4.05302e-14
-2.26963e-13
1.0371e-14
3.47185e-14
3.59471e-15
2.49313e-14
-1.31778e-14
-1.60348e-13
1.51592e-13
2.2223e-13
-6.52047e-13
1.23858e-13
1.98549e-13
-4.37606e-13
9.57835e-14
1.69701e-13
-3.66714e-13
7.31812e-14
1.33236e-13
-3.26114e-13
5.51483e-14
1.05646e-13
-2.89724e-13
4.05994e-14
8.45964e-14
-2.58475e-13
2.93747e-14
6.93148e-14
-2.47672e-13
1.92276e-14
5.78539e-14
-2.82959e-13
1.04581e-14
4.66073e-14
3.59904e-15
3.3069e-14
-1.64775e-14
-5.7472e-13
1.93271e-13
3.92191e-13
-9.28583e-13
1.54204e-13
3.38447e-13
-5.84084e-13
1.15293e-13
2.72491e-13
-4.8888e-13
8.54908e-14
2.07073e-13
-4.23421e-13
6.25921e-14
1.58816e-13
-3.67116e-13
4.50522e-14
1.24018e-13
-3.19592e-13
3.23608e-14
9.92462e-14
-2.90658e-13
2.04049e-14
7.98062e-14
-3.40802e-13
1.11168e-14
6.51137e-14
3.85254e-15
4.3233e-14
-1.96668e-14
-1.10268e-12
3.16651e-13
7.09948e-13
-1.30213e-12
2.22807e-13
5.77368e-13
-7.84062e-13
1.5663e-13
4.37876e-13
-6.42124e-13
1.09616e-13
3.16393e-13
-5.39632e-13
7.59577e-14
2.34731e-13
-4.5562e-13
5.15421e-14
1.78385e-13
-3.88438e-13
3.36345e-14
1.36995e-13
-3.40639e-13
2.04432e-14
1.07836e-13
-4.00968e-13
1.06296e-14
8.67857e-14
3.40814e-15
5.48733e-14
-2.29974e-14
-2.09262e-12
3.51917e-11
4.09594e-12
-1.78136e-12
1.11173e-12
9.08152e-13
-1.04712e-12
5.78241e-13
6.30376e-13
-8.33795e-13
3.45213e-13
4.42472e-13
-6.79948e-13
1.75938e-13
3.20736e-13
-5.60454e-13
5.28668e-14
2.38991e-13
-4.66478e-13
-3.6731e-14
1.82749e-13
-3.99419e-13
-1.01764e-13
1.42744e-13
-4.67452e-13
-1.48779e-13
1.13906e-13
-1.7989e-13
7.49106e-14
-2.63355e-14
-4.47728e-10
4.53184e-09
6.61157e-08
-2.76071e-11
1.98833e-10
1.10153e-10
-2.77943e-11
1.02134e-10
-3.48308e-11
-2.32311e-11
6.74444e-11
-2.69042e-11
-1.94987e-11
4.59166e-11
-1.94296e-11
-1.65134e-11
3.20259e-11
-1.30666e-11
-1.40997e-11
2.28359e-11
-1.02601e-11
-1.21345e-11
1.66063e-11
-8.01789e-12
-1.05112e-11
1.22962e-11
-6.26475e-12
9.13719e-12
-2.98756e-14
-3.78361e-12
3.4516e-13
8.11531e-14
1.05159e-14
-1.69709e-14
7.71094e-14
9.43963e-15
-2.18257e-14
6.80572e-14
7.84181e-15
-1.97145e-14
5.92784e-14
6.26103e-15
-1.91182e-14
5.08258e-14
4.37808e-15
-1.94195e-14
4.26456e-14
3.53765e-15
-1.82163e-14
3.47162e-14
2.28506e-15
-1.91725e-14
2.70542e-14
1.15617e-15
-2.31025e-14
1.9673e-14
7.62393e-16
1.26104e-14
3.70674e-16
-1.54867e-15
2.9468e-13
5.81683e-14
1.7807e-14
-6.44919e-14
5.34777e-14
1.55134e-14
-7.07562e-14
4.53406e-14
1.59952e-14
-6.4325e-14
3.76471e-14
1.27138e-14
-6.24125e-14
3.04102e-14
9.16695e-15
-6.17465e-14
2.36903e-14
6.71787e-15
-5.89342e-14
1.75547e-14
5.58142e-15
-5.86851e-14
1.19166e-14
4.26345e-15
-7.05257e-14
6.79317e-15
3.03035e-15
2.41501e-15
2.15286e-15
-4.36283e-15
2.17625e-13
7.3971e-14
2.57799e-14
-1.63527e-13
6.68925e-14
2.42808e-14
-1.3228e-13
5.61942e-14
2.58386e-14
-1.16683e-13
4.6272e-14
1.97094e-14
-1.1357e-13
3.73804e-14
1.63956e-14
-1.03637e-13
2.93346e-14
1.36333e-14
-9.86701e-14
2.18202e-14
1.06924e-14
-1.02696e-13
1.50354e-14
8.78064e-15
-1.19811e-13
9.38566e-15
7.51076e-15
3.11576e-15
5.49499e-15
-7.14619e-15
9.71126e-14
9.1949e-14
4.25884e-14
-2.8583e-13
8.0456e-14
4.2506e-14
-2.11671e-13
6.59774e-14
4.48058e-14
-1.79137e-13
5.32511e-14
3.65421e-14
-1.67031e-13
4.20165e-14
2.99017e-14
-1.55591e-13
3.21609e-14
2.51035e-14
-1.4446e-13
2.35597e-14
2.07764e-14
-1.46783e-13
1.59915e-14
1.77159e-14
-1.71335e-13
9.56441e-15
1.48794e-14
3.53809e-15
1.01596e-14
-1.0479e-14
-1.88024e-14
1.15846e-13
7.46438e-14
-4.40615e-13
9.78537e-14
7.80394e-14
-2.96884e-13
7.81606e-14
7.67201e-14
-2.58221e-13
6.13197e-14
6.16318e-14
-2.34923e-13
4.73099e-14
5.17185e-14
-2.13765e-13
3.54912e-14
4.25724e-14
-1.94856e-13
2.55497e-14
3.54314e-14
-1.89209e-13
1.74407e-14
3.09165e-14
-2.24573e-13
9.70318e-15
2.74732e-14
3.57152e-15
1.78791e-14
-1.33277e-14
-1.52948e-13
1.47765e-13
1.33016e-13
-6.43109e-13
1.20824e-13
1.37651e-13
-4.12879e-13
9.33358e-14
1.30053e-13
-3.54793e-13
7.12637e-14
1.04609e-13
-3.15587e-13
5.34996e-14
8.49418e-14
-2.80395e-13
3.90771e-14
7.04537e-14
-2.50125e-13
2.74142e-14
5.86121e-14
-2.33721e-13
1.79481e-14
4.88266e-14
-2.79763e-13
1.04941e-14
4.3011e-14
3.67046e-15
2.77833e-14
-1.66674e-14
-5.5755e-13
1.88851e-13
2.37512e-13
-9.14599e-13
1.50553e-13
2.46217e-13
-5.63485e-13
1.12579e-13
2.15402e-13
-4.75212e-13
8.32852e-14
1.6979e-13
-4.11547e-13
6.08007e-14
1.34942e-13
-3.56842e-13
4.34047e-14
1.09575e-13
-3.1165e-13
2.97032e-14
8.85608e-14
-2.80395e-13
1.89721e-14
7.43784e-14
-3.37555e-13
1.08733e-14
6.27006e-14
3.45061e-15
4.03732e-14
-1.98667e-14
-1.07659e-12
3.11345e-13
4.2829e-13
-1.27952e-12
1.75099e-13
4.2973e-13
-7.61568e-13
1.72671e-13
3.53084e-13
-6.25316e-13
1.22937e-13
2.69755e-13
-5.25778e-13
8.6243e-14
2.08412e-13
-4.45026e-13
5.93023e-14
1.63409e-13
-3.79517e-13
3.93696e-14
1.31108e-13
-3.3124e-13
2.45377e-14
1.0656e-13
-3.97717e-13
1.33468e-14
8.7162e-14
5.01204e-15
5.71823e-14
-2.29578e-14
-2.05827e-12
3.5554e-11
5.92127e-12
-1.74445e-12
5.44987e-13
7.80261e-13
-1.02127e-12
2.24597e-13
5.76625e-13
-8.13525e-13
1.47704e-13
4.2403e-13
-6.63117e-13
9.67831e-14
3.15287e-13
-5.46107e-13
6.20699e-14
2.40303e-13
-4.5424e-13
3.8166e-14
1.85438e-13
-3.87167e-13
2.15213e-14
1.4647e-13
-4.59621e-13
9.84709e-15
1.15671e-13
1.7357e-15
7.11614e-14
-2.64925e-14
-4.16587e-10
6.60479e-09
6.56553e-08
-4.67127e-12
4.8128e-11
1.59331e-10
-1.86574e-12
3.21174e-12
6.39924e-13
-1.96683e-12
1.83614e-12
3.32983e-13
-1.51818e-12
1.17696e-12
2.38146e-13
-1.18676e-12
7.87141e-13
2.51164e-13
-9.42112e-13
5.43999e-13
2.52091e-13
-7.63594e-13
3.87445e-13
2.32369e-13
-6.95329e-13
2.81399e-13
2.11166e-13
1.77813e-13
-3.01001e-14
2.48012e-13
3.45036e-13
8.12535e-14
1.84019e-14
-1.73148e-14
7.71814e-14
1.57712e-14
-2.18081e-14
6.81509e-14
1.34927e-14
-2.04616e-14
5.93552e-14
7.73547e-15
-1.7404e-14
5.0879e-14
8.08604e-15
-1.98493e-14
4.266e-14
3.63216e-15
-1.90934e-14
3.47682e-14
4.91668e-15
-1.8844e-14
2.71243e-14
4.00907e-15
-2.31147e-14
1.97128e-14
8.85332e-16
1.26422e-14
2.26902e-16
-1.77224e-15
2.94386e-13
5.82813e-14
2.76967e-14
-6.47034e-14
5.35954e-14
2.677e-14
-7.08902e-14
4.54205e-14
2.02238e-14
-6.53811e-14
3.76664e-14
1.70957e-14
-6.2889e-14
3.04799e-14
1.14151e-14
-6.08092e-14
2.37809e-14
9.46286e-15
-5.90992e-14
1.75959e-14
6.43715e-15
-5.91564e-14
1.19536e-14
7.54184e-15
-7.06056e-14
6.84509e-15
6.22059e-15
2.472e-15
1.7358e-15
-4.34331e-15
2.17237e-13
7.41437e-14
4.265e-14
-1.64103e-13
6.7034e-14
3.76938e-14
-1.33554e-13
5.63482e-14
3.61094e-14
-1.14749e-13
4.65069e-14
3.31271e-14
-1.1118e-13
3.74911e-14
2.34379e-14
-1.05069e-13
2.94152e-14
1.72461e-14
-9.84925e-14
2.19895e-14
1.58347e-14
-1.02865e-13
1.5193e-14
1.23615e-14
-1.19744e-13
9.26258e-15
1.35869e-14
3.05946e-15
6.31015e-15
-7.43741e-15
9.66915e-14
9.2257e-14
6.70644e-14
-2.86569e-13
8.07827e-14
6.32386e-14
-2.12475e-13
6.61957e-14
6.27233e-14
-1.7957e-13
5.33617e-14
5.08575e-14
-1.66892e-13
4.21982e-14
4.16226e-14
-1.56141e-13
3.22421e-14
3.37586e-14
-1.444e-13
2.35766e-14
3.21043e-14
-1.4745e-13
1.61246e-14
2.5168e-14
-1.71456e-13
9.94645e-15
2.58677e-14
3.7372e-15
1.97277e-14
-1.01755e-14
-1.94943e-14
1.16339e-13
1.09459e-13
-4.42034e-13
9.82204e-14
1.10373e-13
-2.98773e-13
7.85397e-14
1.09151e-13
-2.58034e-13
6.16812e-14
9.2782e-14
-2.35771e-13
4.75503e-14
7.3916e-14
-2.14418e-13
3.57882e-14
6.60123e-14
-1.9481e-13
2.58961e-14
5.70277e-14
-1.87641e-13
1.72853e-14
4.4016e-14
-2.25041e-13
9.50184e-15
3.67487e-14
3.68547e-15
2.47048e-14
-1.3327e-14
-1.54339e-13
1.48534e-13
1.92187e-13
-6.45137e-13
1.21552e-13
2.03513e-13
-4.14409e-13
9.38704e-14
1.82123e-13
-3.5588e-13
7.17028e-14
1.48683e-13
-3.16181e-13
5.38815e-14
1.21337e-13
-2.81237e-13
3.93847e-14
1.02024e-13
-2.50979e-13
2.75752e-14
8.04796e-14
-2.33174e-13
1.83035e-14
7.63603e-14
-2.80503e-13
1.0745e-14
6.04467e-14
3.81637e-15
3.87648e-14
-1.65876e-14
-5.61219e-13
1.90036e-13
3.40873e-13
-9.18479e-13
1.51563e-13
3.50924e-13
-5.65466e-13
1.1339e-13
3.12534e-13
-4.77054e-13
8.39277e-14
2.39401e-13
-4.12801e-13
6.13257e-14
1.94953e-13
-3.58431e-13
4.37785e-14
1.53789e-13
-3.12412e-13
3.01303e-14
1.27815e-13
-2.81156e-13
1.91893e-14
1.05025e-13
-3.38723e-13
1.11285e-14
8.70154e-14
4.03945e-15
5.56549e-14
-1.984e-14
-1.08382e-12
3.14128e-13
6.06901e-13
-1.2859e-12
1.77392e-13
6.16826e-13
-7.65047e-13
1.39408e-13
5.05388e-13
-6.28327e-13
1.00472e-13
3.82832e-13
-5.28279e-13
7.19005e-14
2.98553e-13
-4.4697e-13
5.35418e-14
2.35861e-13
-3.81202e-13
3.64234e-14
1.84908e-13
-3.32791e-13
2.30108e-14
1.51967e-13
-3.99276e-13
1.25928e-14
1.23416e-13
4.82553e-15
7.8043e-14
-2.31505e-14
-2.07873e-12
3.67578e-11
8.77904e-12
-1.75431e-12
5.0462e-13
1.12108e-12
-1.02735e-12
1.54755e-13
8.17808e-13
-8.18764e-13
1.67235e-13
5.94522e-13
-6.66986e-13
1.09865e-13
4.46951e-13
-5.49499e-13
6.94406e-14
3.39191e-13
-4.56648e-13
3.42716e-14
2.60248e-13
-3.89526e-13
1.71557e-14
2.08225e-13
-4.6214e-13
8.54254e-15
1.67527e-13
3.2776e-15
1.07394e-13
-2.65499e-14
-4.32349e-10
1.04445e-08
6.91354e-08
-3.79651e-12
7.37211e-11
1.73435e-10
-1.29259e-12
1.40859e-12
5.57912e-13
-1.06805e-12
7.97167e-13
1.42031e-13
-8.41874e-13
5.62121e-13
8.32437e-14
-6.72145e-13
4.08881e-13
5.83495e-14
-5.44178e-13
3.05164e-13
4.43418e-14
-4.51789e-13
2.32522e-13
3.46584e-14
-5.29255e-13
1.79696e-13
2.75779e-14
1.10025e-13
-3.01365e-14
2.28453e-14
3.44721e-13
8.14116e-14
2.1852e-14
-1.76476e-14
7.73291e-14
1.50779e-14
-2.24405e-14
6.82293e-14
1.7979e-14
-1.99032e-14
5.94617e-14
1.31542e-14
-1.96122e-14
5.0927e-14
7.5365e-15
-1.91927e-14
4.27271e-14
4.73696e-15
-1.88888e-14
3.47955e-14
2.2228e-15
-1.96463e-14
2.71613e-14
1.13801e-15
-2.31501e-14
1.97801e-14
7.78027e-16
1.26731e-14
1.14794e-15
-1.54694e-15
2.93986e-13
5.84689e-14
3.65828e-14
-6.53387e-14
5.37567e-14
3.31731e-14
-7.04526e-14
4.55916e-14
3.18915e-14
-6.6798e-14
3.77884e-14
2.09509e-14
-6.19049e-14
3.06081e-14
2.15539e-14
-6.16553e-14
2.38604e-14
1.25411e-14
-5.75159e-14
1.76832e-14
8.78506e-15
-5.90829e-14
1.20156e-14
5.27983e-15
-7.09157e-14
6.90895e-15
4.47697e-15
2.53304e-15
3.6873e-15
-4.35567e-15
2.16547e-13
7.44577e-14
4.67291e-14
-1.65092e-13
6.72911e-14
4.9699e-14
-1.33792e-13
5.65556e-14
5.23988e-14
-1.15409e-13
4.66625e-14
4.22834e-14
-1.14064e-13
3.7607e-14
3.12684e-14
-1.04085e-13
2.95323e-14
2.59896e-14
-9.92008e-14
2.21383e-14
1.793e-14
-1.02418e-13
1.53644e-14
1.87436e-14
-1.20056e-13
9.44337e-15
1.21784e-14
3.48074e-15
8.3138e-15
-7.44608e-15
9.58716e-14
9.27406e-14
8.86821e-14
-2.8789e-13
8.12042e-14
8.66561e-14
-2.13277e-13
6.65678e-14
8.97643e-14
-1.802e-13
5.37101e-14
7.427e-14
-1.67763e-13
4.25166e-14
5.81312e-14
-1.55773e-13
3.25681e-14
4.28251e-14
-1.45212e-13
2.38013e-14
3.49188e-14
-1.47395e-13
1.62725e-14
3.46674e-14
-1.71654e-13
9.9477e-15
2.67069e-14
3.55884e-15
1.55786e-14
-1.03075e-14
-2.08985e-14
1.17119e-13
1.54666e-13
-4.44057e-13
9.89154e-14
1.58447e-13
-2.99749e-13
7.90511e-14
1.5511e-13
-2.59167e-13
6.21039e-14
1.25269e-13
-2.36317e-13
4.78799e-14
1.03633e-13
-2.15401e-13
3.60821e-14
8.33287e-14
-1.95341e-13
2.60112e-14
6.20201e-14
-1.88718e-13
1.75665e-14
5.33445e-14
-2.25534e-13
9.95675e-15
4.50029e-14
3.99631e-15
2.89776e-14
-1.32934e-14
-1.56503e-13
1.49775e-13
2.69203e-13
-6.48691e-13
1.22544e-13
2.8113e-13
-4.16187e-13
9.4742e-14
2.61347e-13
-3.57615e-13
7.23567e-14
2.05026e-13
-3.17141e-13
5.44703e-14
1.66251e-13
-2.83161e-13
3.9775e-14
1.24909e-13
-2.51429e-13
2.80515e-14
1.12854e-13
-2.34107e-13
1.84498e-14
8.32294e-14
-2.81502e-13
1.09836e-14
7.01987e-14
3.90922e-15
4.57577e-14
-1.64938e-14
-5.6747e-13
1.91825e-13
4.83009e-13
-9.24023e-13
1.53133e-13
4.96793e-13
-5.69505e-13
1.14563e-13
4.25088e-13
-4.79385e-13
8.48889e-14
3.35549e-13
-4.15411e-13
6.20531e-14
2.63291e-13
-3.60176e-13
4.44445e-14
2.08415e-13
-3.14195e-13
3.0627e-14
1.65008e-13
-2.82212e-13
1.96655e-14
1.25836e-13
-3.40325e-13
1.14758e-14
1.04838e-13
4.43605e-15
6.58937e-14
-1.9744e-14
-1.09529e-12
3.1839e-13
8.70233e-13
-1.29561e-12
1.7996e-13
8.68844e-13
-7.70854e-13
1.40805e-13
7.01921e-13
-6.32774e-13
1.01505e-13
5.29109e-13
-5.31945e-13
7.26438e-14
4.02563e-13
-4.50063e-13
5.38009e-14
3.0933e-13
-3.83737e-13
3.69162e-14
2.4307e-13
-3.3495e-13
2.35178e-14
1.81937e-13
-4.01559e-13
1.30422e-14
1.44598e-13
5.17604e-15
9.06836e-14
-2.30918e-14
-2.11162e-12
3.89747e-11
1.18138e-11
-1.76867e-12
5.20152e-13
1.57966e-12
-1.03683e-12
1.56554e-13
1.14497e-12
-8.25939e-13
1.6554e-13
8.27529e-13
-6.72798e-13
1.0809e-13
6.05182e-13
-5.54323e-13
6.67283e-14
4.50511e-13
-4.60223e-13
3.15146e-14
3.27853e-13
-3.92673e-13
1.74763e-14
2.65113e-13
-4.65671e-13
9.06211e-15
1.97842e-13
3.69569e-15
1.20512e-13
-2.65853e-14
-4.61933e-10
1.44191e-08
7.44412e-08
-3.89896e-12
1.09202e-10
1.8828e-10
-1.2964e-12
2.14942e-12
5.73844e-13
-1.06802e-12
1.17798e-12
8.52542e-14
-8.43101e-13
8.38797e-13
6.37204e-14
-6.73816e-13
6.02977e-13
4.95562e-14
-5.46125e-13
4.41374e-13
3.92074e-14
-4.53745e-13
3.29823e-13
3.15508e-14
-5.32304e-13
2.54048e-13
2.57876e-14
1.50701e-13
-3.02842e-14
2.14622e-14
3.44231e-13
8.16139e-14
2.83533e-14
-1.7925e-14
7.7524e-14
2.79032e-14
-2.29827e-14
6.83561e-14
2.21781e-14
-2.01326e-14
5.95661e-14
1.75371e-14
-1.99075e-14
5.10525e-14
8.49306e-15
-1.97783e-14
4.28166e-14
5.98125e-15
-1.8951e-14
3.48919e-14
5.06661e-15
-1.94621e-14
2.72297e-14
4.34051e-15
-2.31149e-14
1.98453e-14
7.66218e-15
1.27492e-14
2.04946e-14
-1.61785e-15
2.93445e-13
5.86745e-14
4.89692e-14
-6.5925e-14
5.39423e-14
4.47299e-14
-7.11783e-14
4.57679e-14
4.38526e-14
-6.58159e-14
3.79531e-14
3.41212e-14
-6.41759e-14
3.06941e-14
2.06992e-14
-6.09552e-14
2.39724e-14
1.24641e-14
-5.96764e-14
1.7771e-14
1.02943e-14
-5.87526e-14
1.21342e-14
1.00602e-14
-7.08398e-14
6.99285e-15
8.90625e-15
2.59969e-15
1.71464e-14
-4.44414e-15
2.15734e-13
7.48532e-14
7.16466e-14
-1.66189e-13
6.76007e-14
6.86799e-14
-1.34203e-13
5.68244e-14
6.90731e-14
-1.17162e-13
4.68791e-14
5.52062e-14
-1.11873e-13
3.7823e-14
4.28055e-14
-1.05802e-13
2.96516e-14
2.45647e-14
-9.79865e-14
2.23152e-14
1.93482e-14
-1.03333e-13
1.54132e-14
2.07473e-14
-1.20137e-13
9.76435e-15
2.03625e-14
3.33134e-15
2.00589e-14
-7.56361e-15
9.48541e-14
9.33458e-14
1.14582e-13
-2.89396e-13
8.1743e-14
1.1872e-13
-2.1414e-13
6.70126e-14
1.18684e-13
-1.81275e-13
5.40884e-14
9.52935e-14
-1.68459e-13
4.2897e-14
7.74073e-14
-1.56351e-13
3.29557e-14
5.94537e-14
-1.45112e-13
2.4046e-14
3.79372e-14
-1.47462e-13
1.64826e-14
3.17766e-14
-1.72241e-13
9.6698e-15
3.12817e-14
4.04931e-15
2.9267e-14
-1.0167e-14
-2.26361e-14
1.18074e-13
1.99935e-13
-4.46476e-13
9.97279e-14
2.0965e-13
-3.01706e-13
7.97329e-14
2.005e-13
-2.60211e-13
6.2631e-14
1.62528e-13
-2.37238e-13
4.82909e-14
1.31489e-13
-2.16725e-13
3.64046e-14
1.07433e-13
-1.95741e-13
2.63848e-14
6.93248e-14
-1.91221e-13
1.77303e-14
5.53396e-14
-2.26132e-13
1.0472e-14
4.87554e-14
4.2059e-15
4.42438e-14
-1.34328e-14
-1.5928e-13
1.51303e-13
3.57067e-13
-6.52689e-13
1.2377e-13
3.7108e-13
-4.19213e-13
9.57024e-14
3.36679e-13
-3.59512e-13
7.32009e-14
2.70592e-13
-3.1882e-13
5.51764e-14
2.16226e-13
-2.84437e-13
4.03627e-14
1.77253e-13
-2.53123e-13
2.84663e-14
1.15153e-13
-2.34591e-13
1.88375e-14
8.84745e-14
-2.82629e-13
1.13816e-14
7.34254e-14
4.14055e-15
6.36688e-14
-1.65649e-14
-5.75261e-13
1.9431e-13
6.32567e-13
-9.30869e-13
1.55027e-13
6.46238e-13
-5.7351e-13
1.16033e-13
5.57679e-13
-4.82825e-13
8.60163e-14
4.34295e-13
-4.18194e-13
6.29309e-14
3.41348e-13
-3.62476e-13
4.51634e-14
2.72512e-13
-3.16634e-13
3.13185e-14
2.09022e-13
-2.83332e-13
2.0147e-14
1.35862e-13
-3.42274e-13
1.17721e-14
1.075e-13
4.79981e-15
7.45816e-14
-1.97446e-14
-1.10962e-12
3.21801e-13
1.13576e-12
-1.30712e-12
1.82461e-13
1.12183e-12
-7.77818e-13
1.43047e-13
9.10026e-13
-6.38363e-13
1.0317e-13
6.85754e-13
-5.36405e-13
7.39376e-14
5.23985e-13
-4.53488e-13
5.45852e-14
4.0782e-13
-3.87426e-13
3.7677e-14
3.15966e-13
-3.37348e-13
2.42247e-14
1.99825e-13
-4.0444e-13
1.3651e-14
1.52584e-13
5.6575e-15
9.54968e-14
-2.31714e-14
-2.13296e-12
3.88597e-11
1.23807e-11
-1.78825e-12
5.1001e-13
2.00653e-12
-1.04851e-12
1.58753e-13
1.48584e-12
-8.34843e-13
1.68878e-13
1.07239e-12
-6.79945e-13
1.10566e-13
7.93736e-13
-5.59964e-13
6.87446e-14
5.95982e-13
-4.65155e-13
3.26649e-14
4.5356e-13
-3.96304e-13
1.81541e-14
2.85578e-13
-4.70021e-13
9.51082e-15
2.09823e-13
4.16011e-15
1.25049e-13
-2.66529e-14
-4.6656e-10
1.5532e-08
7.81891e-08
-3.81974e-12
9.96049e-11
1.88235e-10
-1.31117e-12
2.69137e-12
4.99579e-13
-1.08193e-12
1.64694e-12
8.46541e-14
-8.53711e-13
1.17386e-12
6.40101e-14
-6.8217e-13
8.50292e-13
5.00552e-14
-5.53159e-13
6.27118e-13
3.98107e-14
-4.59098e-13
4.50388e-13
3.22565e-14
-5.38434e-13
2.80765e-13
2.64964e-14
1.62406e-13
-3.02653e-14
2.23109e-14
3.4392e-13
8.18201e-14
2.35402e-14
-1.85715e-14
7.76023e-14
9.73957e-15
-2.30438e-14
6.84904e-14
1.11252e-14
-2.06724e-14
5.96769e-14
1.01539e-14
-2.0205e-14
5.1155e-14
1.46778e-14
-2.02692e-14
4.29455e-14
2.38111e-14
-1.98733e-14
3.50456e-14
3.97206e-14
-2.01045e-14
2.74501e-14
1.28272e-13
-2.16718e-14
2.01501e-14
5.13196e-13
1.30059e-14
1.64373e-12
-5.60684e-15
2.92739e-13
5.89118e-14
3.72511e-14
-6.6356e-14
5.4097e-14
1.68267e-14
-7.16735e-14
4.58679e-14
2.31473e-14
-6.67845e-14
3.80667e-14
2.02532e-14
-6.41745e-14
3.0824e-14
1.95461e-14
-6.12449e-14
2.41115e-14
3.00477e-14
-5.95988e-14
1.79124e-14
4.17322e-14
-6.16699e-14
1.22915e-14
9.31158e-14
-7.21389e-14
7.24579e-15
3.08304e-13
2.74963e-15
1.06653e-12
-5.45505e-15
2.14713e-13
7.51885e-14
5.29054e-14
-1.6723e-13
6.78572e-14
2.73608e-14
-1.34547e-13
5.70905e-14
3.80299e-14
-1.1857e-13
4.70868e-14
3.45235e-14
-1.11467e-13
3.80753e-14
3.38392e-14
-1.06351e-13
2.99272e-14
4.09037e-14
-9.91595e-14
2.25878e-14
5.43172e-14
-1.0376e-13
1.55806e-14
8.28237e-14
-1.23095e-13
9.2962e-15
2.09575e-13
3.53554e-15
6.97351e-13
-5.58906e-15
9.39393e-14
9.39644e-14
8.87623e-14
-2.90658e-13
8.2161e-14
5.5807e-14
-2.15409e-13
6.7365e-14
7.01066e-14
-1.81545e-13
5.44429e-14
6.35026e-14
-1.68797e-13
4.31828e-14
6.0595e-14
-1.56892e-13
3.31986e-14
5.38846e-14
-1.46539e-13
2.44009e-14
7.2858e-14
-1.48408e-13
1.69123e-14
9.0136e-14
-1.75396e-13
9.94584e-15
1.67617e-13
4.37012e-15
4.87914e-13
-7.48403e-15
-2.42838e-14
1.19079e-13
1.54596e-13
-4.48391e-13
1.00437e-13
1.16147e-13
-3.02543e-13
8.03442e-14
1.29094e-13
-2.61461e-13
6.32179e-14
1.13839e-13
-2.37847e-13
4.88073e-14
1.0283e-13
-2.17377e-13
3.69368e-14
1.2815e-13
-1.97001e-13
2.66245e-14
1.02746e-13
-1.94397e-13
1.79475e-14
1.12092e-13
-2.29465e-13
1.08974e-14
1.59667e-13
4.20472e-15
3.68315e-13
-1.24332e-14
-1.62092e-13
1.52813e-13
2.74075e-13
-6.5574e-13
1.24808e-13
2.28277e-13
-4.20645e-13
9.6633e-14
2.30386e-13
-3.61777e-13
7.3974e-14
1.96337e-13
-3.19495e-13
5.5872e-14
1.70738e-13
-2.86848e-13
4.09276e-14
1.92353e-13
-2.54409e-13
2.90537e-14
1.49106e-13
-2.3608e-13
1.93046e-14
1.54141e-13
-2.86529e-13
1.17129e-14
1.74682e-13
4.80326e-15
3.03608e-13
-1.59909e-14
-5.83181e-13
1.98137e-13
4.9076e-13
-9.35678e-13
1.56675e-13
4.3008e-13
-5.77002e-13
1.17339e-13
3.9813e-13
-4.85842e-13
8.71331e-14
3.27109e-13
-4.20285e-13
6.38489e-14
2.72987e-13
-3.65141e-13
4.59597e-14
2.79432e-13
-3.19057e-13
3.20091e-14
1.76467e-13
-2.85781e-13
2.07295e-14
2.05279e-13
-3.46631e-13
1.22683e-14
2.08718e-13
5.09542e-15
2.73802e-13
-1.92446e-14
-1.12323e-12
3.18257e-13
8.74242e-13
-1.31528e-12
1.84004e-13
7.82227e-13
-7.83479e-13
1.45362e-13
6.70619e-13
-6.43157e-13
1.04771e-13
5.29656e-13
-5.40184e-13
7.53298e-14
4.24729e-13
-4.56951e-13
5.52754e-14
4.1327e-13
-3.91547e-13
3.87195e-14
3.89974e-13
-3.40379e-13
2.49363e-14
2.1934e-13
-4.09946e-13
1.43437e-14
2.5941e-13
6.25219e-15
2.67924e-13
-2.2812e-14
-2.06492e-12
2.34997e-11
4.61081e-12
-1.81501e-12
3.80379e-13
1.36263e-12
-1.05832e-12
2.61743e-13
1.10553e-12
-8.42054e-13
1.7255e-13
8.3621e-13
-6.86404e-13
1.13315e-13
6.63899e-13
-5.6493e-13
7.11006e-14
6.14307e-13
-4.71582e-13
3.40601e-14
5.50949e-13
-4.00238e-13
1.90081e-14
2.9071e-13
-4.76777e-13
1.00598e-14
3.22207e-13
4.75107e-15
2.79701e-13
-2.65135e-14
-2.98908e-10
1.32045e-09
6.56914e-08
-2.79152e-12
-2.26998e-11
7.81882e-11
-1.317e-12
1.60223e-12
5.14029e-14
-1.09496e-12
1.36569e-12
8.32371e-14
-8.63534e-13
1.07961e-12