/*--------------------------------*- C++ -*----------------------------------*\
| =========                 |                                                 |
| \\      /  F ield         | OpenFOAM: The Open Source CFD Toolbox           |
|  \\    /   O peration     | Version:  4.1                                   |
|   \\  /    A nd           | Web:      www.OpenFOAM.org                      |
|    \\/     M anipulation  |                                                 |
\*---------------------------------------------------------------------------*/
FoamFile
{
    version     2.0;
    format      ascii;
    class       volScalarField;
    location    "2";
    object      Ma;
}
// * * * * * * * * * * * * * * * * * * * * * * * * * * * * * * * * * * * * * //

dimensions      [0 0 0 0 0 0 0];

internalField   nonuniform List<scalar> 
52500
(
3.00002
2.99998
2.99993
2.99974
2.99948
2.99838
2.99684
2.99068
2.98111
2.94798
2.87843
2.70414
2.25436
1.46395
0.581518
0.217289
0.315572
0.345193
0.310599
0.254241
0.203303
0.163188
0.123937
0.0792809
0.0444462
3.00002
2.99998
2.99993
2.99975
2.99948
2.9984
2.99688
2.99078
2.9814
2.94861
2.88083
2.70874
2.26744
1.48241
0.591952
0.223184
0.320755
0.351252
0.317241
0.261618
0.211183
0.171643
0.133702
0.0933953
0.0678535
3.00002
2.99998
2.99994
2.99975
2.9995
2.99844
2.99696
2.991
2.98197
2.94981
2.88574
2.71805
2.29523
1.52293
0.616503
0.239433
0.333483
0.364863
0.331538
0.277305
0.228322
0.191044
0.157168
0.124705
0.107624
3.00002
2.99998
2.99994
2.99976
2.99952
2.99851
2.99708
2.99138
2.98273
2.95173
2.89216
2.73065
2.33442
1.58243
0.652502
0.264642
0.352273
0.383295
0.350544
0.298767
0.252424
0.218543
0.189676
0.164146
0.151993
3.00002
2.99999
2.99994
2.99978
2.99954
2.99858
2.99723
2.99179
2.98361
2.95397
2.89883
2.74324
2.37799
1.64189
0.696384
0.293834
0.371592
0.40093
0.370165
0.322791
0.280631
0.251246
0.227651
0.20794
0.199242
3.00002
2.99999
2.99995
2.99979
2.99957
2.99867
2.99739
2.99229
2.98462
2.95673
2.90511
2.75891
2.41398
1.70623
0.743362
0.327702
0.390147
0.415529
0.389418
0.349306
0.312848
0.288468
0.270599
0.256816
0.251927
3.00002
2.99999
2.99996
2.99981
2.9996
2.99877
2.99759
2.99283
2.98574
2.95965
2.9119
2.77563
2.45102
1.7772
0.804295
0.373943
0.410841
0.427678
0.409218
0.378194
0.348749
0.330593
0.319448
0.312421
0.313801
3.00002
2.99999
2.99996
2.99983
2.99965
2.99891
2.99786
2.99369
2.9872
2.96469
2.91815
2.79846
2.48316
1.87572
0.878194
0.431793
0.428655
0.439394
0.432528
0.410125
0.387854
0.376769
0.3744
0.377383
0.38999
3.00002
3
2.99997
2.99986
2.9997
2.99905
2.99811
2.99454
2.98859
2.96909
2.92557
2.81851
2.52363
1.97266
0.970342
0.498521
0.44409
0.455414
0.458297
0.444103
0.430923
0.428256
0.435903
0.454897
0.493338
3.00002
3
2.99998
2.99988
2.99974
2.9992
2.99838
2.99544
2.98999
2.97373
2.93453
2.84186
2.57352
2.0775
1.10117
0.582894
0.464702
0.476891
0.486857
0.48043
0.476431
0.48327
0.507638
0.557088
0.663246
3
2.99996
2.99992
2.99972
2.99946
2.99836
2.99681
2.99066
2.98109
2.94793
2.87839
2.70404
2.2542
1.46367
0.581347
0.217044
0.315371
0.344992
0.31037
0.253963
0.20296
0.162763
0.123376
0.0783953
0.042819
3
2.99996
2.99992
2.99973
2.99946
2.99838
2.99686
2.99076
2.98137
2.94857
2.88079
2.70865
2.26728
1.48212
0.591781
0.222938
0.320553
0.351053
0.317018
0.261351
0.210858
0.171245
0.13319
0.092654
0.0668121
3
2.99996
2.99992
2.99973
2.99948
2.99842
2.99694
2.99098
2.98194
2.94977
2.88569
2.71796
2.29507
1.52264
0.616329
0.239188
0.333283
0.364671
0.331329
0.27706
0.228029
0.190693
0.156738
0.124157
0.106978
3
2.99997
2.99992
2.99975
2.9995
2.99849
2.99706
2.99135
2.9827
2.9517
2.89212
2.73057
2.33425
1.58217
0.652333
0.264405
0.352086
0.383125
0.35036
0.298552
0.252167
0.218243
0.189326
0.163735
0.151541
3
2.99997
2.99993
2.99976
2.99952
2.99856
2.9972
2.99177
2.98359
2.95394
2.89879
2.74317
2.37788
1.64171
0.696241
0.293631
0.371439
0.400791
0.370008
0.322604
0.280408
0.250992
0.227366
0.207622
0.198903
3
2.99997
2.99993
2.99977
2.99955
2.99865
2.99737
2.99227
2.98459
2.9567
2.90508
2.75884
2.4139
1.70606
0.743212
0.327495
0.390006
0.415415
0.389281
0.349139
0.312654
0.288253
0.270364
0.256564
0.251664
3
2.99997
2.99994
2.99979
2.99959
2.99875
2.99757
2.9928
2.98571
2.95962
2.91187
2.77556
2.45096
1.77701
0.804147
0.373743
0.410716
0.42758
0.40909
0.378042
0.348581
0.330412
0.319254
0.312219
0.313595
3
2.99998
2.99994
2.99981
2.99963
2.99889
2.99784
2.99367
2.98718
2.96465
2.91813
2.79839
2.48313
1.87557
0.878058
0.431621
0.428549
0.439292
0.43241
0.409992
0.387708
0.376616
0.374241
0.377223
0.389831
3
2.99998
2.99995
2.99984
2.99968
2.99903
2.99809
2.99452
2.98857
2.96906
2.92553
2.81845
2.52357
1.97253
0.970201
0.49836
0.443985
0.455311
0.458188
0.443986
0.430799
0.428128
0.435773
0.454772
0.493221
3
2.99998
2.99996
2.99986
2.99972
2.99918
2.99835
2.99542
2.98997
2.9737
2.9345
2.8418
2.57344
2.07735
1.10101
0.582735
0.464592
0.476786
0.486752
0.480323
0.476323
0.483163
0.507535
0.556995
0.663168
3
2.99996
2.99992
2.99972
2.99946
2.99836
2.99681
2.99066
2.98109
2.94793
2.87839
2.70404
2.25419
1.46366
0.581345
0.217045
0.315371
0.344992
0.31037
0.253963
0.20296
0.162763
0.123376
0.0783951
0.0428193
3
2.99996
2.99992
2.99973
2.99946
2.99838
2.99686
2.99076
2.98137
2.94857
2.88079
2.70864
2.26727
1.48211
0.591779
0.222939
0.320552
0.351052
0.317017
0.261351
0.210858
0.171245
0.13319
0.0926539
0.0668123
3
2.99996
2.99992
2.99973
2.99948
2.99842
2.99694
2.99098
2.98194
2.94977
2.88569
2.71796
2.29506
1.52263
0.616326
0.239188
0.333282
0.36467
0.331328
0.27706
0.228029
0.190692
0.156737
0.124157
0.106978
3
2.99997
2.99992
2.99975
2.9995
2.99849
2.99706
2.99135
2.9827
2.9517
2.89212
2.73057
2.33425
1.58217
0.652331
0.264405
0.352086
0.383125
0.35036
0.298552
0.252167
0.218243
0.189326
0.163735
0.151541
3
2.99997
2.99993
2.99976
2.99952
2.99856
2.9972
2.99177
2.98359
2.95394
2.89879
2.74317
2.37787
1.64171
0.696239
0.293631
0.371439
0.400792
0.370009
0.322604
0.280408
0.250992
0.227365
0.207622
0.198903
3
2.99997
2.99993
2.99977
2.99955
2.99865
2.99737
2.99227
2.98459
2.9567
2.90508
2.75884
2.4139
1.70606
0.743209
0.327494
0.390007
0.415415
0.389281
0.349139
0.312654
0.288253
0.270364
0.256564
0.251664
3
2.99997
2.99994
2.99979
2.99959
2.99875
2.99757
2.9928
2.98571
2.95962
2.91187
2.77556
2.45095
1.77701
0.804145
0.373742
0.410717
0.427581
0.409091
0.378042
0.348581
0.330412
0.319254
0.312219
0.313595
3
2.99998
2.99994
2.99981
2.99963
2.99889
2.99784
2.99367
2.98718
2.96465
2.91813
2.79839
2.48313
1.87557
0.878055
0.43162
0.42855
0.439293
0.432411
0.409992
0.387708
0.376616
0.374241
0.377223
0.389831
3
2.99998
2.99995
2.99984
2.99968
2.99903
2.99809
2.99452
2.98857
2.96906
2.92553
2.81845
2.52357
1.97252
0.970198
0.498358
0.443985
0.455312
0.458189
0.443986
0.430799
0.428129
0.435773
0.454772
0.493221
3
2.99998
2.99996
2.99986
2.99972
2.99918
2.99835
2.99542
2.98997
2.9737
2.9345
2.8418
2.57344
2.07734
1.101
0.582733
0.464592
0.476786
0.486753
0.480323
0.476323
0.483163
0.507535
0.556995
0.663168
3
2.99996
2.99992
2.99972
2.99946
2.99836
2.99681
2.99066
2.98109
2.94793
2.87839
2.70404
2.25419
1.46366
0.581344
0.217046
0.315371
0.344991
0.310369
0.253962
0.20296
0.162763
0.123376
0.078395
0.0428194
3
2.99996
2.99992
2.99973
2.99946
2.99838
2.99686
2.99076
2.98137
2.94857
2.88078
2.70864
2.26727
1.48211
0.591778
0.222939
0.320552
0.351052
0.317017
0.261351
0.210858
0.171245
0.13319
0.0926537
0.0668122
3
2.99996
2.99992
2.99973
2.99948
2.99842
2.99694
2.99098
2.98194
2.94977
2.88569
2.71795
2.29506
1.52263
0.616326
0.239188
0.333282
0.36467
0.331328
0.27706
0.228029
0.190692
0.156737
0.124157
0.106978
3
2.99997
2.99992
2.99975
2.9995
2.99849
2.99706
2.99135
2.9827
2.9517
2.89212
2.73057
2.33425
1.58216
0.65233
0.264405
0.352086
0.383125
0.35036
0.298552
0.252167
0.218243
0.189326
0.163735
0.151541
3
2.99997
2.99993
2.99976
2.99952
2.99856
2.9972
2.99177
2.98359
2.95394
2.89879
2.74317
2.37787
1.6417
0.696238
0.293631
0.371439
0.400792
0.370009
0.322604
0.280408
0.250992
0.227365
0.207622
0.198903
3
2.99997
2.99993
2.99977
2.99955
2.99865
2.99737
2.99227
2.98459
2.9567
2.90508
2.75884
2.41389
1.70605
0.743208
0.327494
0.390007
0.415416
0.389281
0.349139
0.312654
0.288253
0.270364
0.256564
0.251664
3
2.99997
2.99994
2.99979
2.99959
2.99875
2.99757
2.9928
2.98571
2.95962
2.91187
2.77556
2.45095
1.77701
0.804144
0.373741
0.410717
0.427582
0.409091
0.378042
0.348581
0.330412
0.319254
0.312219
0.313595
3
2.99998
2.99994
2.99981
2.99963
2.99889
2.99784
2.99367
2.98718
2.96465
2.91813
2.79839
2.48313
1.87556
0.878054
0.43162
0.42855
0.439293
0.432411
0.409992
0.387708
0.376616
0.374241
0.377223
0.389831
3
2.99998
2.99995
2.99984
2.99968
2.99903
2.99809
2.99452
2.98857
2.96906
2.92553
2.81845
2.52357
1.97252
0.970197
0.498358
0.443986
0.455312
0.458189
0.443986
0.430799
0.428129
0.435773
0.454772
0.493221
3
2.99998
2.99996
2.99986
2.99972
2.99918
2.99835
2.99542
2.98997
2.9737
2.9345
2.8418
2.57344
2.07734
1.101
0.582732
0.464592
0.476786
0.486753
0.480323
0.476323
0.483163
0.507535
0.556995
0.663168
3
2.99996
2.99992
2.99972
2.99946
2.99836
2.99681
2.99066
2.98109
2.94793
2.87839
2.70404
2.25419
1.46366
0.581343
0.217046
0.315371
0.344991
0.310369
0.253962
0.20296
0.162763
0.123376
0.0783951
0.0428193
3
2.99996
2.99992
2.99973
2.99946
2.99838
2.99686
2.99076
2.98137
2.94857
2.88078
2.70864
2.26727
1.48211
0.591777
0.22294
0.320552
0.351052
0.317017
0.261351
0.210858
0.171245
0.13319
0.0926538
0.0668122
3
2.99996
2.99992
2.99973
2.99948
2.99842
2.99694
2.99098
2.98194
2.94977
2.88569
2.71795
2.29506
1.52263
0.616325
0.239188
0.333282
0.36467
0.331328
0.27706
0.228029
0.190692
0.156737
0.124157
0.106978
3
2.99997
2.99992
2.99975
2.9995
2.99849
2.99706
2.99135
2.9827
2.9517
2.89212
2.73057
2.33425
1.58216
0.652329
0.264405
0.352086
0.383124
0.35036
0.298552
0.252167
0.218243
0.189326
0.163735
0.151541
3
2.99997
2.99993
2.99976
2.99952
2.99856
2.9972
2.99177
2.98359
2.95394
2.89879
2.74317
2.37787
1.6417
0.696238
0.293631
0.371439
0.400792
0.370009
0.322604
0.280408
0.250992
0.227365
0.207622
0.198903
3
2.99997
2.99993
2.99977
2.99955
2.99865
2.99737
2.99227
2.98459
2.9567
2.90508
2.75884
2.41389
1.70605
0.743207
0.327494
0.390007
0.415416
0.389281
0.349139
0.312654
0.288253
0.270364
0.256564
0.251664
3
2.99997
2.99994
2.99979
2.99959
2.99875
2.99757
2.9928
2.98571
2.95962
2.91187
2.77556
2.45095
1.77701
0.804143
0.373741
0.410717
0.427582
0.409091
0.378042
0.348581
0.330412
0.319254
0.312219
0.313595
3
2.99998
2.99994
2.99981
2.99963
2.99889
2.99784
2.99367
2.98718
2.96465
2.91813
2.79839
2.48313
1.87556
0.878053
0.431619
0.42855
0.439293
0.432411
0.409992
0.387708
0.376616
0.374241
0.377223
0.389831
3
2.99998
2.99995
2.99984
2.99968
2.99903
2.99809
2.99452
2.98857
2.96906
2.92553
2.81845
2.52357
1.97252
0.970196
0.498357
0.443986
0.455312
0.458189
0.443986
0.430799
0.428129
0.435773
0.454772
0.493221
3
2.99998
2.99996
2.99986
2.99972
2.99918
2.99835
2.99542
2.98997
2.9737
2.9345
2.8418
2.57344
2.07734
1.101
0.582732
0.464592
0.476786
0.486753
0.480323
0.476323
0.483163
0.507535
0.556995
0.663168
3
2.99996
2.99992
2.99972
2.99946
2.99836
2.99681
2.99066
2.98109
2.94793
2.87839
2.70404
2.25419
1.46366
0.581344
0.217046
0.315371
0.344991
0.310369
0.253962
0.20296
0.162763
0.123376
0.078395
0.0428194
3
2.99996
2.99992
2.99973
2.99946
2.99838
2.99686
2.99076
2.98137
2.94857
2.88078
2.70864
2.26727
1.48211
0.591778
0.222939
0.320552
0.351052
0.317017
0.261351
0.210858
0.171245
0.13319
0.0926538
0.0668123
3
2.99996
2.99992
2.99973
2.99948
2.99842
2.99694
2.99098
2.98194
2.94977
2.88569
2.71795
2.29506
1.52263
0.616325
0.239188
0.333282
0.36467
0.331328
0.27706
0.228029
0.190692
0.156737
0.124157
0.106978
3
2.99997
2.99992
2.99975
2.9995
2.99849
2.99706
2.99135
2.9827
2.9517
2.89212
2.73057
2.33425
1.58216
0.65233
0.264405
0.352086
0.383125
0.35036
0.298552
0.252167
0.218243
0.189326
0.163735
0.151541
3
2.99997
2.99993
2.99976
2.99952
2.99856
2.9972
2.99177
2.98359
2.95394
2.89879
2.74317
2.37787
1.6417
0.696238
0.293631
0.371439
0.400792
0.370009
0.322604
0.280408
0.250992
0.227365
0.207622
0.198903
3
2.99997
2.99993
2.99977
2.99955
2.99865
2.99737
2.99227
2.98459
2.9567
2.90508
2.75884
2.41389
1.70605
0.743208
0.327494
0.390007
0.415416
0.389281
0.349139
0.312654
0.288253
0.270364
0.256564
0.251664
3
2.99997
2.99994
2.99979
2.99959
2.99875
2.99757
2.9928
2.98571
2.95962
2.91187
2.77556
2.45095
1.77701
0.804144
0.373741
0.410717
0.427582
0.409091
0.378042
0.348581
0.330412
0.319254
0.312219
0.313595
3
2.99998
2.99994
2.99981
2.99963
2.99889
2.99784
2.99367
2.98718
2.96465
2.91813
2.79839
2.48313
1.87556
0.878053
0.431619
0.42855
0.439293
0.432411
0.409992
0.387708
0.376616
0.374241
0.377223
0.389831
3
2.99998
2.99995
2.99984
2.99968
2.99903
2.99809
2.99452
2.98857
2.96906
2.92553
2.81845
2.52357
1.97252
0.970197
0.498358
0.443986
0.455312
0.458189
0.443986
0.430799
0.428129
0.435773
0.454772
0.493221
3
2.99998
2.99996
2.99986
2.99972
2.99918
2.99835
2.99542
2.98997
2.9737
2.9345
2.8418
2.57344
2.07734
1.101
0.582732
0.464592
0.476786
0.486753
0.480323
0.476323
0.483163
0.507535
0.556995
0.663168
3
2.99996
2.99992
2.99972
2.99946
2.99836
2.99681
2.99066
2.98109
2.94793
2.87839
2.70404
2.25419
1.46366
0.581344
0.217046
0.315371
0.344991
0.310369
0.253962
0.20296
0.162763
0.123376
0.078395
0.0428194
3
2.99996
2.99992
2.99973
2.99946
2.99838
2.99686
2.99076
2.98137
2.94857
2.88078
2.70864
2.26727
1.48211
0.591778
0.222939
0.320552
0.351052
0.317017
0.261351
0.210858
0.171245
0.13319
0.0926537
0.0668122
3
2.99996
2.99992
2.99973
2.99948
2.99842
2.99694
2.99098
2.98194
2.94977
2.88569
2.71795
2.29506
1.52263
0.616326
0.239188
0.333282
0.36467
0.331328
0.27706
0.228029
0.190692
0.156737
0.124157
0.106978
3
2.99997
2.99992
2.99975
2.9995
2.99849
2.99706
2.99135
2.9827
2.9517
2.89212
2.73057
2.33425
1.58216
0.65233
0.264405
0.352086
0.383125
0.35036
0.298552
0.252167
0.218243
0.189326
0.163735
0.151541
3
2.99997
2.99993
2.99976
2.99952
2.99856
2.9972
2.99177
2.98359
2.95394
2.89879
2.74317
2.37787
1.6417
0.696238
0.293631
0.371439
0.400792
0.370009
0.322604
0.280408
0.250992
0.227365
0.207622
0.198903
3
2.99997
2.99993
2.99977
2.99955
2.99865
2.99737
2.99227
2.98459
2.9567
2.90508
2.75884
2.41389
1.70605
0.743208
0.327494
0.390007
0.415416
0.389281
0.349139
0.312654
0.288253
0.270364
0.256564
0.251664
3
2.99997
2.99994
2.99979
2.99959
2.99875
2.99757
2.9928
2.98571
2.95962
2.91187
2.77556
2.45095
1.77701
0.804144
0.373742
0.410717
0.427582
0.409091
0.378042
0.348581
0.330412
0.319254
0.312219
0.313595
3
2.99998
2.99994
2.99981
2.99963
2.99889
2.99784
2.99367
2.98718
2.96465
2.91813
2.79839
2.48313
1.87556
0.878054
0.43162
0.42855
0.439293
0.432411
0.409992
0.387708
0.376616
0.374241
0.377223
0.389831
3
2.99998
2.99995
2.99984
2.99968
2.99903
2.99809
2.99452
2.98857
2.96906
2.92553
2.81845
2.52357
1.97252
0.970197
0.498358
0.443986
0.455312
0.458189
0.443986
0.430799
0.428129
0.435773
0.454772
0.493221
3
2.99998
2.99996
2.99986
2.99972
2.99918
2.99835
2.99542
2.98997
2.9737
2.9345
2.8418
2.57344
2.07734
1.101
0.582733
0.464592
0.476786
0.486753
0.480323
0.476323
0.483163
0.507535
0.556995
0.663168
3
2.99996
2.99992
2.99972
2.99946
2.99836
2.99681
2.99066
2.98109
2.94793
2.87839
2.70404
2.25419
1.46366
0.581345
0.217045
0.315371
0.344992
0.31037
0.253963
0.20296
0.162763
0.123376
0.0783951
0.0428193
3
2.99996
2.99992
2.99973
2.99946
2.99838
2.99686
2.99076
2.98137
2.94857
2.88079
2.70864
2.26727
1.48211
0.591779
0.222939
0.320552
0.351052
0.317017
0.261351
0.210858
0.171245
0.13319
0.0926539
0.0668123
3
2.99996
2.99992
2.99973
2.99948
2.99842
2.99694
2.99098
2.98194
2.94977
2.88569
2.71796
2.29506
1.52263
0.616326
0.239188
0.333282
0.36467
0.331328
0.27706
0.228029
0.190692
0.156737
0.124157
0.106978
3
2.99997
2.99992
2.99975
2.9995
2.99849
2.99706
2.99135
2.9827
2.9517
2.89212
2.73057
2.33425
1.58217
0.652331
0.264405
0.352086
0.383125
0.35036
0.298552
0.252167
0.218243
0.189326
0.163735
0.151541
3
2.99997
2.99993
2.99976
2.99952
2.99856
2.9972
2.99177
2.98359
2.95394
2.89879
2.74317
2.37787
1.64171
0.696239
0.293631
0.371439
0.400792
0.370009
0.322604
0.280408
0.250992
0.227365
0.207622
0.198903
3
2.99997
2.99993
2.99977
2.99955
2.99865
2.99737
2.99227
2.98459
2.9567
2.90508
2.75884
2.4139
1.70606
0.743209
0.327494
0.390007
0.415415
0.389281
0.349139
0.312654
0.288253
0.270364
0.256564
0.251664
3
2.99997
2.99994
2.99979
2.99959
2.99875
2.99757
2.9928
2.98571
2.95962
2.91187
2.77556
2.45095
1.77701
0.804145
0.373742
0.410717
0.427581
0.409091
0.378042
0.348581
0.330412
0.319254
0.312219
0.313595
3
2.99998
2.99994
2.99981
2.99963
2.99889
2.99784
2.99367
2.98718
2.96465
2.91813
2.79839
2.48313
1.87557
0.878055
0.43162
0.42855
0.439293
0.432411
0.409992
0.387708
0.376616
0.374241
0.377223
0.389831
3
2.99998
2.99995
2.99984
2.99968
2.99903
2.99809
2.99452
2.98857
2.96906
2.92553
2.81845
2.52357
1.97252
0.970198
0.498358
0.443985
0.455312
0.458189
0.443986
0.430799
0.428129
0.435773
0.454772
0.493221
3
2.99998
2.99996
2.99986
2.99972
2.99918
2.99835
2.99542
2.98997
2.9737
2.9345
2.8418
2.57344
2.07734
1.101
0.582733
0.464592
0.476786
0.486753
0.480323
0.476323
0.483163
0.507535
0.556995
0.663168
3
2.99996
2.99992
2.99972
2.99946
2.99836
2.99681
2.99066
2.98109
2.94793
2.87839
2.70404
2.2542
1.46367
0.581347
0.217044
0.315371
0.344992
0.31037
0.253963
0.20296
0.162763
0.123376
0.0783953
0.042819
3
2.99996
2.99992
2.99973
2.99946
2.99838
2.99686
2.99076
2.98137
2.94857
2.88079
2.70865
2.26728
1.48212
0.591781
0.222938
0.320553
0.351053
0.317018
0.261351
0.210858
0.171245
0.13319
0.092654
0.0668121
3
2.99996
2.99992
2.99973
2.99948
2.99842
2.99694
2.99098
2.98194
2.94977
2.88569
2.71796
2.29507
1.52264
0.616329
0.239188
0.333283
0.364671
0.331329
0.27706
0.228029
0.190693
0.156738
0.124157
0.106978
3
2.99997
2.99992
2.99975
2.9995
2.99849
2.99706
2.99135
2.9827
2.9517
2.89212
2.73057
2.33425
1.58217
0.652333
0.264405
0.352086
0.383125
0.35036
0.298552
0.252168
0.218243
0.189326
0.163735
0.151541
3
2.99997
2.99993
2.99976
2.99952
2.99856
2.9972
2.99177
2.98359
2.95394
2.89879
2.74317
2.37788
1.64171
0.696241
0.293631
0.371439
0.400791
0.370008
0.322604
0.280408
0.250992
0.227366
0.207622
0.198903
3
2.99997
2.99993
2.99977
2.99955
2.99865
2.99737
2.99227
2.98459
2.9567
2.90508
2.75884
2.4139
1.70606
0.743212
0.327495
0.390006
0.415415
0.389281
0.349139
0.312654
0.288253
0.270364
0.256564
0.251664
3
2.99997
2.99994
2.99979
2.99959
2.99875
2.99757
2.9928
2.98571
2.95962
2.91187
2.77556
2.45096
1.77701
0.804147
0.373743
0.410716
0.42758
0.40909
0.378042
0.348581
0.330412
0.319254
0.312219
0.313595
3
2.99998
2.99994
2.99981
2.99963
2.99889
2.99784
2.99367
2.98718
2.96465
2.91813
2.79839
2.48313
1.87557
0.878058
0.431621
0.428549
0.439292
0.43241
0.409992
0.387708
0.376616
0.374241
0.377223
0.389831
3
2.99998
2.99995
2.99984
2.99968
2.99903
2.99809
2.99452
2.98857
2.96906
2.92553
2.81845
2.52357
1.97253
0.970201
0.49836
0.443985
0.455311
0.458188
0.443986
0.430799
0.428128
0.435773
0.454772
0.493221
3
2.99998
2.99996
2.99986
2.99972
2.99918
2.99835
2.99542
2.98997
2.9737
2.9345
2.8418
2.57344
2.07735
1.10101
0.582735
0.464592
0.476786
0.486752
0.480323
0.476323
0.483163
0.507535
0.556995
0.663168
3.00002
2.99998
2.99993
2.99974
2.99948
2.99838
2.99684
2.99068
2.98111
2.94798
2.87843
2.70414
2.25436
1.46396
0.581519
0.217288
0.315572
0.345193
0.310599
0.254241
0.203303
0.163188
0.123937
0.0792809
0.0444465
3.00002
2.99998
2.99993
2.99975
2.99948
2.9984
2.99688
2.99078
2.9814
2.94861
2.88083
2.70875
2.26744
1.48241
0.591953
0.223183
0.320755
0.351253
0.317242
0.261618
0.211183
0.171643
0.133703
0.0933953
0.0678538
3.00002
2.99998
2.99994
2.99975
2.9995
2.99844
2.99696
2.991
2.98197
2.94981
2.88574
2.71805
2.29523
1.52293
0.616504
0.239433
0.333484
0.364864
0.331539
0.277305
0.228323
0.191044
0.157168
0.124705
0.107625
3.00002
2.99998
2.99994
2.99976
2.99952
2.99851
2.99708
2.99138
2.98273
2.95173
2.89216
2.73065
2.33442
1.58243
0.652503
0.264642
0.352273
0.383296
0.350544
0.298768
0.252424
0.218543
0.189677
0.164146
0.151993
3.00002
2.99999
2.99994
2.99978
2.99954
2.99858
2.99723
2.99179
2.98361
2.95397
2.89883
2.74324
2.37799
1.64189
0.696385
0.293834
0.371591
0.400929
0.370164
0.322791
0.280631
0.251246
0.227651
0.20794
0.199242
3.00002
2.99999
2.99995
2.99979
2.99957
2.99867
2.99739
2.99229
2.98462
2.95673
2.90511
2.75891
2.41398
1.70623
0.743363
0.327702
0.390146
0.415529
0.389418
0.349306
0.312848
0.288468
0.270599
0.256816
0.251928
3.00002
2.99999
2.99996
2.99981
2.9996
2.99877
2.99759
2.99283
2.98574
2.95965
2.9119
2.77563
2.45102
1.7772
0.804296
0.373944
0.41084
0.427677
0.409218
0.378194
0.348749
0.330593
0.319448
0.312421
0.313801
3.00002
2.99999
2.99996
2.99983
2.99965
2.99891
2.99786
2.99369
2.9872
2.96469
2.91815
2.79846
2.48316
1.87573
0.878195
0.431793
0.428654
0.439394
0.432528
0.410125
0.387854
0.376769
0.3744
0.377383
0.38999
3.00002
3
2.99997
2.99986
2.9997
2.99905
2.99811
2.99454
2.98859
2.96909
2.92557
2.81851
2.52363
1.97267
0.970343
0.498521
0.44409
0.455414
0.458296
0.444103
0.430923
0.428256
0.435903
0.454898
0.493339
3.00002
3
2.99998
2.99988
2.99974
2.9992
2.99838
2.99544
2.98999
2.97373
2.93453
2.84186
2.57352
2.0775
1.10117
0.582895
0.464702
0.476891
0.486857
0.480429
0.47643
0.48327
0.507638
0.557088
0.663246
3.00002
3.00001
2.99997
2.99992
2.99971
2.9994
2.99821
2.99637
2.98991
2.97762
2.94173
2.85324
2.65744
2.12613
1.29707
0.676925
0.493108
0.506324
0.521243
0.521255
0.524258
0.542149
0.587335
0.679443
0.864038
3.00002
3.00001
2.99998
2.99993
2.99974
2.99947
2.99837
2.99682
2.99058
2.98115
2.94759
2.88027
2.70628
2.27014
1.49263
0.77832
0.529136
0.543777
0.560921
0.56597
0.574964
0.603432
0.664428
0.77597
0.971355
3.00002
3.00001
2.99998
2.99995
2.99978
2.99956
2.99864
2.99734
2.99213
2.98433
2.956
2.90411
2.75581
2.41681
1.7188
0.893546
0.583512
0.595328
0.6087
0.616201
0.628149
0.661772
0.72909
0.838066
1.00681
3.00002
3.00002
2.99999
2.99996
2.99983
2.99964
2.99889
2.99782
2.99354
2.9872
2.96382
2.92135
2.80094
2.50922
1.9109
0.995942
0.640416
0.637142
0.651723
0.666093
0.682042
0.71651
0.780409
0.877461
1.01978
3.00002
3.00002
3
2.99998
2.99987
2.99973
2.99916
2.99832
2.99526
2.98983
2.97304
2.93432
2.84062
2.58081
2.08682
1.1708
0.73634
0.668878
0.683803
0.702745
0.727276
0.763604
0.82361
0.907062
1.02546
3.00002
3.00002
3.00001
2.99997
2.99992
2.99973
2.99944
2.99832
2.99661
2.99054
2.97941
2.946
2.8661
2.68528
2.20601
1.41868
0.856647
0.70552
0.716283
0.735976
0.764923
0.802584
0.859712
0.934592
1.03305
3.00002
3.00002
3.00001
2.99998
2.99994
2.99978
2.99955
2.99861
2.99728
2.99195
2.98394
2.95508
2.90097
2.7514
2.39724
1.69912
0.991247
0.75698
0.753818
0.770381
0.801412
0.838144
0.888932
0.957334
1.04249
3.00002
3.00002
3.00002
2.99999
2.99996
2.99984
2.99966
2.99894
2.9979
2.99383
2.98763
2.96535
2.92516
2.8064
2.54656
1.94404
1.1585
0.830299
0.797614
0.810219
0.836917
0.873842
0.918087
0.977364
1.05146
3.00003
3.00002
3.00002
3.00001
2.99997
2.99991
2.99969
2.99938
2.99815
2.99627
2.98971
2.97746
2.94179
2.85479
2.66474
2.15033
1.38133
0.93097
0.838001
0.846382
0.868335
0.902734
0.944966
0.997454
1.06216
3.00003
3.00003
3.00002
3.00001
2.99998
2.99994
2.99977
2.99952
2.99853
2.99711
2.99155
2.983
2.95292
2.89557
2.73832
2.37275
1.6502
1.07194
0.890872
0.883757
0.897737
0.927194
0.968137
1.01592
1.07322
3.00003
3.00003
3.00002
3.00001
3
2.99995
2.99988
2.99959
2.99916
2.99753
2.99508
2.98608
2.97088
2.92299
2.81735
2.56821
2.01486
1.26518
0.967444
0.927448
0.93382
0.957347
0.993504
1.03496
1.08492
3.00003
3.00003
3.00003
3.00002
3.00001
2.99997
2.99992
2.99971
2.99941
2.99825
2.99653
2.99021
2.97935
2.94552
2.86789
2.6911
2.22584
1.49839
1.06554
0.967497
0.967351
0.98618
1.01853
1.05798
1.10097
3.00003
3.00003
3.00003
3.00002
3.00001
3
2.99994
2.99985
2.99951
2.99901
2.99714
2.99417
2.98422
2.96445
2.91043
2.77388
2.49269
1.83581
1.23946
1.02726
1.00577
1.01572
1.04221
1.07952
1.1198
3.00003
3.00003
3.00003
3.00002
3.00002
3.00001
2.99996
2.9999
2.99966
2.99932
2.99796
2.99598
2.98858
2.9763
2.93699
2.84931
2.65117
2.15031
1.44073
1.10564
1.04584
1.0493
1.06929
1.10144
1.13888
3.00003
3.00003
3.00003
3.00003
3.00002
3.00001
2.99999
2.99993
2.99983
2.99945
2.99888
2.9968
2.99342
2.98231
2.95962
2.89921
2.74519
2.43315
1.73456
1.25098
1.09558
1.08371
1.09487
1.12154
1.15733
3.00003
3.00003
3.00003
3.00003
3.00002
3.00002
3
2.99996
2.99989
2.99962
2.99924
2.99774
2.99557
2.98727
2.97421
2.931
2.84075
2.62487
2.12442
1.45032
1.1709
1.12363
1.12632
1.14644
1.17716
3.00003
3.00003
3.00003
3.00003
3.00003
3.00002
3.00001
2.99999
2.99992
2.99981
2.9994
2.9988
2.99654
2.99303
2.981
2.95838
2.89434
2.73906
2.41514
1.73305
1.30561
1.17009
1.15775
1.1677
1.19232
3.00003
3.00003
3.00003
3.00003
3.00003
3.00002
3.00002
3
2.99995
2.99988
2.99961
2.99922
2.99769
2.99547
2.98705
2.9739
2.9303
2.84234
2.62464
2.14201
1.49753
1.24594
1.20212
1.19934
1.21481
3.00003
3.00003
3.00003
3.00003
3.00003
3.00003
3.00002
3.00001
2.99999
2.99992
2.99981
2.99941
2.9988
2.99657
2.99309
2.98104
2.95935
2.89693
2.75318
2.43054
1.80556
1.37206
1.24393
1.23125
1.23886
3.00003
3.00003
3.00003
3.00003
3.00003
3.00003
3.00002
3.00002
3
2.99997
2.99986
2.9997
2.99909
2.99817
2.99485
2.98951
2.97175
2.93904
2.84479
2.65196
2.16392
1.578
1.31897
1.26894
1.26646
3.00003
3.00003
3.00003
3.00003
3.00003
3.00003
3.00003
3.00002
3.00001
2.99999
2.99992
2.99982
2.99944
2.99888
2.99675
2.99361
2.9821
2.96314
2.90462
2.78033
2.48787
1.90706
1.46394
1.318
1.2978
3.00003
3.00003
3.00003
3.00003
3.00003
3.00003
3.00003
3.00002
3.00002
3
2.99998
2.99988
2.99973
2.99919
2.99836
2.99541
2.99064
2.97487
2.9462
2.86215
2.69462
2.25278
1.68494
1.40409
1.33759
3.00003
3.00003
3.00003
3.00003
3.00003
3.00003
3.00003
3.00003
3.00002
3.00001
3
2.99994
2.99985
2.99951
2.99904
2.9972
2.99454
2.9847
2.96888
2.91924
2.81321
2.5777
2.04039
1.57516
1.3936
3.00003
3.00003
3.00003
3.00003
3.00003
3.00003
3.00003
3.00003
3.00003
3.00002
3.00001
2.99997
2.99992
2.99972
2.99944
2.99835
2.99678
2.99095
2.98172
2.95189
2.88894
2.74584
2.37304
1.80986
1.48749
3.00003
3.00003
3.00003
3.00003
3.00003
3.00003
3.00003
3.00003
3.00003
3.00002
3.00002
3
2.99997
2.99985
2.99968
2.99904
2.9981
2.99462
2.98928
2.97098
2.93879
2.84494
2.65573
2.1832
1.68751
3.00003
3.00003
3.00003
3.00003
3.00003
3.00003
3.00003
3.00003
3.00003
3.00003
3.00002
3.00001
2.99999
2.99994
2.99979
2.99955
2.9987
2.9974
2.99277
2.98533
2.9612
2.91353
2.79465
2.51069
1.96916
3.00003
3.00003
3.00003
3.00003
3.00003
3.00003
3.00003
3.00003
3.00003
3.00003
3.00003
3.00002
3.00001
2.99997
2.99991
2.9997
2.99939
2.99826
2.99652
2.99051
2.98025
2.94925
2.88164
2.73074
2.35746
3.00003
3.00003
3.00003
3.00003
3.00003
3.00003
3.00003
3.00003
3.00003
3.00003
3.00003
3.00002
3.00001
3
2.99995
2.99987
2.9996
2.99918
2.99769
2.9954
2.9875
2.97403
2.93431
2.84829
2.65539
3.00003
3.00003
3.00003
3.00003
3.00003
3.00003
3.00003
3.00003
3.00003
3.00003
3.00003
3.00003
3.00002
3.00001
2.99998
2.99994
2.99978
2.99955
2.99867
2.9974
2.99268
2.98549
2.96126
2.91562
2.80041
3.00003
3.00003
3.00003
3.00003
3.00003
3.00003
3.00003
3.00003
3.00003
3.00003
3.00003
3.00003
3.00003
3.00002
3.00001
2.99997
2.99992
2.99971
2.99941
2.99832
2.99665
2.99081
2.98123
2.95128
2.8896
3.00003
3.00003
3.00003
3.00003
3.00003
3.00003
3.00003
3.00003
3.00003
3.00003
3.00003
3.00003
3.00003
3.00002
3.00002
3
2.99996
2.99988
2.99963
2.99924
2.99787
2.99571
2.98854
2.97605
2.93972
3.00003
3.00003
3.00003
3.00003
3.00003
3.00003
3.00003
3.00003
3.00003
3.00003
3.00003
3.00003
3.00003
3.00003
3.00002
3.00001
2.99999
2.99993
2.99984
2.99952
2.99902
2.99727
2.99455
2.98531
2.9696
3.00003
3.00003
3.00003
3.00003
3.00003
3.00003
3.00003
3.00003
3.00003
3.00003
3.00003
3.00003
3.00003
3.00003
3.00003
3.00002
3.00001
2.99998
2.99993
2.99975
2.99949
2.99852
2.99711
2.99192
2.98401
3.00003
3.00003
3.00003
3.00003
3.00003
3.00003
3.00003
3.00003
3.00003
3.00003
3.00003
3.00003
3.00003
3.00003
3.00003
3.00003
3.00002
3.00001
2.99997
2.99991
2.99969
2.99936
2.99821
2.99643
2.99035
3.00003
3.00003
3.00003
3.00003
3.00003
3.00003
3.00003
3.00003
3.00003
3.00003
3.00003
3.00003
3.00003
3.00003
3.00003
3.00003
3.00002
3.00002
3
2.99995
2.99988
2.99962
2.99923
2.99786
2.9957
3.00003
3.00003
3.00003
3.00003
3.00003
3.00003
3.00003
3.00003
3.00003
3.00003
3.00003
3.00003
3.00003
3.00003
3.00003
3.00003
3.00003
3.00002
3.00001
3
2.99994
2.99985
2.99954
2.99906
2.99742
3.00003
3.00003
3.00003
3.00003
3.00003
3.00003
3.00003
3.00003
3.00003
3.00003
3.00003
3.00003
3.00003
3.00003
3.00003
3.00003
3.00003
3.00003
3.00002
3.00001
2.99999
2.99992
2.99981
2.99943
2.99886
3.00003
3.00003
3.00003
3.00003
3.00003
3.00003
3.00003
3.00003
3.00003
3.00003
3.00003
3.00003
3.00003
3.00003
3.00003
3.00003
3.00003
3.00003
3.00003
3.00002
3.00001
2.99997
2.99991
2.99971
2.99941
3.00003
3.00003
3.00003
3.00003
3.00003
3.00003
3.00003
3.00003
3.00003
3.00003
3.00003
3.00003
3.00003
3.00003
3.00003
3.00003
3.00003
3.00003
3.00003
3.00002
3.00001
3
2.99995
2.99988
2.99962
3.00003
3.00003
3.00003
3.00003
3.00003
3.00003
3.00003
3.00003
3.00003
3.00003
3.00003
3.00003
3.00003
3.00003
3.00003
3.00003
3.00003
3.00003
3.00003
3.00003
3.00002
3.00001
2.99997
2.99992
2.99972
3
2.99999
2.99995
2.9999
2.99969
2.99938
2.99819
2.99635
2.98989
2.97759
2.9417
2.8532
2.65736
2.12602
1.29688
0.676779
0.492998
0.506217
0.52114
0.521155
0.524161
0.542058
0.587252
0.679375
0.863995
3
2.99999
2.99996
2.99991
2.99972
2.99945
2.99835
2.9968
2.99055
2.98112
2.94755
2.88024
2.7062
2.27003
1.49243
0.778181
0.529026
0.54367
0.560822
0.565876
0.574876
0.603353
0.66436
0.775916
0.971319
3
3
2.99997
2.99993
2.99977
2.99954
2.99862
2.99732
2.99211
2.98431
2.95597
2.90407
2.75574
2.41669
1.7186
0.893409
0.583408
0.595229
0.608609
0.616115
0.628069
0.6617
0.729029
0.838017
1.00678
3
3
2.99997
2.99994
2.99981
2.99962
2.99887
2.9978
2.99351
2.98718
2.96379
2.92132
2.80087
2.50916
1.91072
0.995835
0.640313
0.637056
0.651643
0.666019
0.681972
0.716446
0.780354
0.877414
1.01975
3