/*--------------------------------*- C++ -*----------------------------------*\
| =========                 |                                                 |
| \\      /  F ield         | OpenFOAM: The Open Source CFD Toolbox           |
|  \\    /   O peration     | Version:  4.1                                   |
|   \\  /    A nd           | Web:      www.OpenFOAM.org                      |
|    \\/     M anipulation  |                                                 |
\*---------------------------------------------------------------------------*/
FoamFile
{
    version     2.0;
    format      ascii;
    class       volScalarField;
    location    "2";
    object      p;
}
// * * * * * * * * * * * * * * * * * * * * * * * * * * * * * * * * * * * * * //

dimensions      [1 -1 -2 0 0 0 0];

internalField   nonuniform List<scalar> 
52500
(
1.00001
1.00002
1.00008
1.00018
1.00054
1.0011
1.00316
1.00632
1.01889
1.03523
1.12135
1.21871
1.81876
2.92645
6.9386
12.1012
11.3461
10.9762
11.0745
11.3382
11.5902
11.7425
11.8625
11.954
12.0275
1.00001
1.00002
1.00008
1.00018
1.00053
1.00109
1.00311
1.00626
1.01858
1.03493
1.11888
1.2156
1.80186
2.88816
6.8213
12.1072
11.3492
10.9675
11.0649
11.328
11.5815
11.7349
11.8568
11.9502
12.0256
1
1.00002
1.00008
1.00018
1.00052
1.00106
1.00303
1.00611
1.01796
1.03441
1.1138
1.20956
1.7667
2.80745
6.56272
12.1103
11.3535
10.943
11.035
11.2921
11.5455
11.6977
11.8186
11.911
11.9861
1
1.00002
1.00008
1.00017
1.0005
1.00102
1.00291
1.00587
1.01713
1.0334
1.10712
1.20118
1.71777
2.69374
6.18554
12.0858
11.3499
10.9026
10.9853
11.2286
11.4784
11.6268
11.7441
11.8338
11.9092
1
1.00002
1.00007
1.00016
1.00047
1.00097
1.00276
1.00559
1.01623
1.03193
1.10019
1.19223
1.66469
2.56906
5.76455
11.9667
11.3132
10.8464
10.9179
11.1401
11.3815
11.5235
11.6347
11.7207
11.7972
1
1.00002
1.00007
1.00015
1.00044
1.00091
1.0026
1.00525
1.01522
1.02997
1.09384
1.17947
1.61928
2.45495
5.43486
11.6446
11.204
10.7763
10.8334
11.0226
11.2492
11.3819
11.4831
11.5612
11.6381
1
1.00002
1.00006
1.00014
1.00041
1.00084
1.00241
1.00487
1.01412
1.02783
1.08712
1.1658
1.57328
2.33996
5.09539
11.167
11.023
10.7028
10.736
10.8743
11.0779
11.1946
11.2772
11.3369
11.4059
1
1.00002
1.00006
1.00012
1.00036
1.00075
1.00214
1.00429
1.01282
1.02382
1.0815
1.14376
1.5305
2.20649
4.74414
10.5563
10.8114
10.6488
10.6251
10.7017
10.8659
10.9578
11.0059
11.0269
11.0651
1
1.00001
1.00005
1.00011
1.00032
1.00066
1.00189
1.00372
1.0115
1.02035
1.07462
1.12445
1.4855
2.05537
4.38124
9.77551
10.6778
10.5582
10.4685
10.5113
10.6161
10.6637
10.6533
10.5964
10.5281
1
1.00001
1.00004
1.00009
1.00027
1.00056
1.00163
1.00313
1.01006
1.01723
1.06521
1.10671
1.42999
1.90258
3.97261
8.8344
10.5864
10.4703
10.2914
10.2996
10.3324
10.3137
10.2177
9.98641
9.61085
1.00001
1.00003
1.00009
1.00019
1.00054
1.00111
1.00316
1.00633
1.0189
1.03526
1.12138
1.21881
1.81894
2.92703
6.94018
12.1008
11.346
10.9762
11.0745
11.3382
11.5902
11.7424
11.8624
11.954
12.0274
1.00001
1.00003
1.00009
1.00019
1.00054
1.0011
1.00312
1.00627
1.01859
1.03496
1.11891
1.2157
1.80205
2.88873
6.82285
12.1068
11.3491
10.9675
11.0649
11.328
11.5815
11.7348
11.8567
11.9502
12.0255
1.00001
1.00003
1.00008
1.00018
1.00052
1.00107
1.00304
1.00612
1.01797
1.03443
1.11383
1.20965
1.76689
2.80799
6.56422
12.1099
11.3534
10.943
11.035
11.292
11.5455
11.6977
11.8186
11.9109
11.986
1.00001
1.00002
1.00008
1.00018
1.0005
1.00103
1.00292
1.00588
1.01715
1.03342
1.10715
1.20125
1.71795
2.69422
6.18691
12.0856
11.3499
10.9026
10.9853
11.2286
11.4784
11.6268
11.7441
11.8337
11.9091
1.00001
1.00002
1.00008
1.00017
1.00048
1.00098
1.00277
1.0056
1.01624
1.03195
1.10021
1.19229
1.66481
2.56941
5.76533
11.9671
11.3133
10.8464
10.9179
11.1401
11.3815
11.5235
11.6347
11.7206
11.7972
1
1.00002
1.00007
1.00016
1.00045
1.00092
1.0026
1.00526
1.01523
1.02999
1.09386
1.17953
1.61937
2.45522
5.43551
11.6453
11.2042
10.7763
10.8333
11.0226
11.2492
11.3819
11.4831
11.5612
11.6381
1
1.00002
1.00007
1.00015
1.00042
1.00085
1.00241
1.00488
1.01413
1.02785
1.08714
1.16586
1.57334
2.34023
5.09592
11.1678
11.0233
10.7027
10.7359
10.8744
11.0779
11.1946
11.2772
11.3369
11.4059
1
1.00002
1.00006
1.00013
1.00037
1.00076
1.00215
1.0043
1.01283
1.02385
1.0815
1.14384
1.53053
2.20671
4.74459
10.5572
10.8115
10.6487
10.6251
10.7016
10.8659
10.9578
11.0059
11.0269
11.0651
1
1.00002
1.00005
1.00011
1.00032
1.00066
1.0019
1.00373
1.01151
1.02037
1.07464
1.12449
1.48554
2.0556
4.38162
9.77643
10.6778
10.5581
10.4684
10.5113
10.616
10.6637
10.6533
10.5964
10.5281
1
1.00001
1.00005
1.0001
1.00028
1.00057
1.00163
1.00314
1.01007
1.01725
1.06523
1.10675
1.43006
1.90277
3.97299
8.83539
10.5863
10.4702
10.2914
10.2996
10.3324
10.3137
10.2177
9.9864
9.61084
1.00001
1.00003
1.00009
1.00019
1.00054
1.00111
1.00316
1.00633
1.0189
1.03526
1.12138
1.21881
1.81895
2.92704
6.94023
12.1008
11.346
10.9762
11.0745
11.3382
11.5902
11.7424
11.8624
11.9539
12.0274
1.00001
1.00003
1.00009
1.00019
1.00054
1.0011
1.00312
1.00627
1.01859
1.03496
1.11891
1.2157
1.80206
2.88875
6.8229
12.1068
11.3491
10.9675
11.0649
11.328
11.5815
11.7348
11.8567
11.9501
12.0255
1.00001
1.00003
1.00008
1.00018
1.00052
1.00107
1.00304
1.00612
1.01797
1.03443
1.11383
1.20965
1.76689
2.80801
6.56427
12.1099
11.3534
10.943
11.035
11.292
11.5455
11.6977
11.8186
11.9109
11.986
1.00001
1.00002
1.00008
1.00018
1.0005
1.00103
1.00292
1.00588
1.01715
1.03342
1.10715
1.20125
1.71795
2.69423
6.18695
12.0856
11.3499
10.9026
10.9853
11.2286
11.4784
11.6268
11.7441
11.8337
11.9091
1.00001
1.00002
1.00008
1.00017
1.00048
1.00098
1.00277
1.0056
1.01624
1.03195
1.10021
1.19229
1.66481
2.56942
5.76535
11.9671
11.3133
10.8464
10.9179
11.1401
11.3815
11.5235
11.6347
11.7206
11.7972
1
1.00002
1.00007
1.00016
1.00045
1.00092
1.0026
1.00526
1.01523
1.02999
1.09386
1.17953
1.61938
2.45523
5.43553
11.6453
11.2043
10.7763
10.8333
11.0226
11.2492
11.3819
11.4831
11.5612
11.6381
1
1.00002
1.00007
1.00015
1.00042
1.00085
1.00241
1.00488
1.01413
1.02785
1.08714
1.16586
1.57335
2.34024
5.09593
11.1678
11.0233
10.7027
10.7359
10.8744
11.0779
11.1946
11.2772
11.3369
11.4059
1
1.00002
1.00006
1.00013
1.00037
1.00076
1.00215
1.0043
1.01283
1.02385
1.0815
1.14384
1.53053
2.20671
4.74461
10.5572
10.8115
10.6487
10.6251
10.7016
10.8659
10.9578
11.0059
11.0269
11.0651
1
1.00002
1.00005
1.00011
1.00032
1.00066
1.0019
1.00373
1.01151
1.02037
1.07464
1.12449
1.48554
2.0556
4.38163
9.77646
10.6778
10.5581
10.4684
10.5113
10.616
10.6637
10.6533
10.5964
10.5281
1
1.00001
1.00005
1.0001
1.00028
1.00057
1.00163
1.00314
1.01007
1.01725
1.06523
1.10675
1.43007
1.90278
3.973
8.83542
10.5863
10.4702
10.2914
10.2996
10.3324
10.3137
10.2177
9.9864
9.61084
1.00001
1.00003
1.00009
1.00019
1.00054
1.00111
1.00316
1.00633
1.0189
1.03526
1.12138
1.21881
1.81895
2.92705
6.94024
12.1008
11.346
10.9762
11.0745
11.3382
11.5902
11.7424
11.8624
11.9539
12.0274
1.00001
1.00003
1.00009
1.00019
1.00054
1.0011
1.00312
1.00627
1.01859
1.03496
1.11891
1.2157
1.80206
2.88875
6.82292
12.1068
11.3491
10.9675
11.0649
11.328
11.5815
11.7348
11.8567
11.9501
12.0255
1.00001
1.00003
1.00008
1.00018
1.00052
1.00107
1.00304
1.00612
1.01797
1.03443
1.11383
1.20965
1.7669
2.80801
6.56428
12.1099
11.3534
10.943
11.035
11.292
11.5455
11.6977
11.8186
11.9109
11.986
1.00001
1.00002
1.00008
1.00018
1.0005
1.00103
1.00292
1.00588
1.01715
1.03342
1.10715
1.20125
1.71796
2.69424
6.18696
12.0856
11.3499
10.9026
10.9853
11.2286
11.4784
11.6268
11.7441
11.8337
11.9091
1.00001
1.00002
1.00008
1.00017
1.00048
1.00098
1.00277
1.0056
1.01624
1.03195
1.10021
1.1923
1.66481
2.56942
5.76536
11.9671
11.3133
10.8464
10.9179
11.1401
11.3815
11.5235
11.6347
11.7206
11.7972
1
1.00002
1.00007
1.00016
1.00045
1.00092
1.0026
1.00526
1.01523
1.02999
1.09386
1.17953
1.61938
2.45523
5.43554
11.6454
11.2043
10.7763
10.8333
11.0226
11.2492
11.3819
11.4831
11.5612
11.6381
1
1.00002
1.00007
1.00015
1.00042
1.00085
1.00241
1.00488
1.01413
1.02785
1.08714
1.16586
1.57335
2.34024
5.09594
11.1678
11.0233
10.7026
10.7359
10.8744
11.0779
11.1946
11.2772
11.3369
11.4059
1
1.00002
1.00006
1.00013
1.00037
1.00076
1.00215
1.0043
1.01283
1.02385
1.0815
1.14384
1.53053
2.20672
4.74461
10.5572
10.8115
10.6487
10.6251
10.7016
10.8659
10.9578
11.0059
11.0269
11.0651
1
1.00002
1.00005
1.00011
1.00032
1.00066
1.0019
1.00373
1.01151
1.02037
1.07464
1.12449
1.48554
2.0556
4.38163
9.77647
10.6778
10.5581
10.4684
10.5113
10.616
10.6637
10.6533
10.5964
10.5281
1
1.00001
1.00005
1.0001
1.00028
1.00057
1.00163
1.00314
1.01007
1.01725
1.06523
1.10675
1.43007
1.90278
3.973
8.83543
10.5863
10.4702
10.2914
10.2996
10.3324
10.3137
10.2177
9.9864
9.61084
1.00001
1.00003
1.00009
1.00019
1.00054
1.00111
1.00316
1.00633
1.0189
1.03526
1.12138
1.21881
1.81896
2.92705
6.94026
12.1008
11.346
10.9762
11.0745
11.3382
11.5902
11.7424
11.8624
11.9539
12.0274
1.00001
1.00003
1.00009
1.00019
1.00054
1.0011
1.00312
1.00627
1.01859
1.03496
1.11891
1.2157
1.80206
2.88876
6.82294
12.1068
11.3491
10.9675
11.0649
11.328
11.5815
11.7348
11.8567
11.9501
12.0255
1.00001
1.00003
1.00008
1.00018
1.00052
1.00107
1.00304
1.00612
1.01797
1.03443
1.11383
1.20966
1.7669
2.80802
6.5643
12.1099
11.3534
10.943
11.035
11.292
11.5455
11.6977
11.8186
11.9109
11.986
1.00001
1.00002
1.00008
1.00018
1.0005
1.00103
1.00292
1.00588
1.01715
1.03342
1.10715
1.20125
1.71796
2.69424
6.18698
12.0856
11.3499
10.9026
10.9853
11.2286
11.4784
11.6268
11.7441
11.8337
11.9091
1.00001
1.00002
1.00008
1.00017
1.00048
1.00098
1.00277
1.0056
1.01624
1.03195
1.10021
1.1923
1.66481
2.56942
5.76537
11.9671
11.3133
10.8464
10.9179
11.1401
11.3815
11.5235
11.6347
11.7206
11.7972
1
1.00002
1.00007
1.00016
1.00045
1.00092
1.0026
1.00526
1.01523
1.02999
1.09386
1.17953
1.61938
2.45523
5.43555
11.6454
11.2043
10.7763
10.8333
11.0226
11.2492
11.3819
11.4831
11.5612
11.6381
1
1.00002
1.00007
1.00015
1.00042
1.00085
1.00241
1.00488
1.01413
1.02785
1.08714
1.16586
1.57335
2.34024
5.09594
11.1678
11.0234
10.7026
10.7359
10.8744
11.0779
11.1946
11.2772
11.3369
11.4059
1
1.00002
1.00006
1.00013
1.00037
1.00076
1.00215
1.0043
1.01283
1.02385
1.0815
1.14384
1.53053
2.20672
4.74462
10.5572
10.8115
10.6487
10.6251
10.7016
10.8659
10.9578
11.0059
11.0269
11.0651
1
1.00002
1.00005
1.00011
1.00032
1.00066
1.0019
1.00373
1.01151
1.02037
1.07464
1.12449
1.48554
2.05561
4.38164
9.77648
10.6778
10.5581
10.4684
10.5113
10.616
10.6637
10.6533
10.5964
10.5281
1
1.00001
1.00005
1.0001
1.00028
1.00057
1.00163
1.00314
1.01007
1.01725
1.06523
1.10675
1.43007
1.90278
3.97301
8.83544
10.5863
10.4702
10.2914
10.2996
10.3324
10.3137
10.2177
9.9864
9.61084
1.00001
1.00003
1.00009
1.00019
1.00054
1.00111
1.00316
1.00633
1.0189
1.03526
1.12138
1.21881
1.81896
2.92705
6.94025
12.1008
11.346
10.9762
11.0745
11.3382
11.5902
11.7424
11.8624
11.9539
12.0274
1.00001
1.00003
1.00009
1.00019
1.00054
1.0011
1.00312
1.00627
1.01859
1.03496
1.11891
1.2157
1.80206
2.88875
6.82292
12.1068
11.3491
10.9675
11.0649
11.328
11.5815
11.7348
11.8567
11.9501
12.0255
1.00001
1.00003
1.00008
1.00018
1.00052
1.00107
1.00304
1.00612
1.01797
1.03443
1.11383
1.20965
1.7669
2.80801
6.56428
12.1099
11.3534
10.943
11.035
11.292
11.5455
11.6977
11.8186
11.9109
11.986
1.00001
1.00002
1.00008
1.00018
1.0005
1.00103
1.00292
1.00588
1.01715
1.03342
1.10715
1.20125
1.71796
2.69424
6.18696
12.0856
11.3499
10.9026
10.9853
11.2286
11.4784
11.6268
11.7441
11.8337
11.9091
1.00001
1.00002
1.00008
1.00017
1.00048
1.00098
1.00277
1.0056
1.01624
1.03195
1.10021
1.1923
1.66481
2.56942
5.76536
11.9671
11.3133
10.8464
10.9179
11.1401
11.3815
11.5235
11.6347
11.7206
11.7972
1
1.00002
1.00007
1.00016
1.00045
1.00092
1.0026
1.00526
1.01523
1.02999
1.09386
1.17953
1.61938
2.45523
5.43554
11.6454
11.2043
10.7763
10.8333
11.0226
11.2492
11.3819
11.4831
11.5612
11.6381
1
1.00002
1.00007
1.00015
1.00042
1.00085
1.00241
1.00488
1.01413
1.02785
1.08714
1.16586
1.57335
2.34024
5.09594
11.1678
11.0233
10.7026
10.7359
10.8744
11.0779
11.1946
11.2772
11.3369
11.4059
1
1.00002
1.00006
1.00013
1.00037
1.00076
1.00215
1.0043
1.01283
1.02385
1.0815
1.14384
1.53053
2.20672
4.74461
10.5572
10.8115
10.6487
10.6251
10.7016
10.8659
10.9578
11.0059
11.0269
11.0651
1
1.00002
1.00005
1.00011
1.00032
1.00066
1.0019
1.00373
1.01151
1.02037
1.07464
1.12449
1.48554
2.0556
4.38164
9.77647
10.6778
10.5581
10.4684
10.5113
10.616
10.6637
10.6533
10.5964
10.5281
1
1.00001
1.00005
1.0001
1.00028
1.00057
1.00163
1.00314
1.01007
1.01725
1.06523
1.10675
1.43007
1.90278
3.973
8.83543
10.5863
10.4702
10.2914
10.2996
10.3324
10.3137
10.2177
9.9864
9.61084
1.00001
1.00003
1.00009
1.00019
1.00054
1.00111
1.00316
1.00633
1.0189
1.03526
1.12138
1.21881
1.81895
2.92705
6.94024
12.1008
11.346
10.9762
11.0745
11.3382
11.5902
11.7424
11.8624
11.9539
12.0274
1.00001
1.00003
1.00009
1.00019
1.00054
1.0011
1.00312
1.00627
1.01859
1.03496
1.11891
1.2157
1.80206
2.88875
6.82292
12.1068
11.3491
10.9675
11.0649
11.328
11.5815
11.7348
11.8567
11.9501
12.0255
1.00001
1.00003
1.00008
1.00018
1.00052
1.00107
1.00304
1.00612
1.01797
1.03443
1.11383
1.20965
1.7669
2.80801
6.56428
12.1099
11.3534
10.943
11.035
11.292
11.5455
11.6977
11.8186
11.9109
11.986
1.00001
1.00002
1.00008
1.00018
1.0005
1.00103
1.00292
1.00588
1.01715
1.03342
1.10715
1.20125
1.71796
2.69424
6.18696
12.0856
11.3499
10.9026
10.9853
11.2286
11.4784
11.6268
11.7441
11.8337
11.9091
1.00001
1.00002
1.00008
1.00017
1.00048
1.00098
1.00277
1.0056
1.01624
1.03195
1.10021
1.1923
1.66481
2.56942
5.76536
11.9671
11.3133
10.8464
10.9179
11.1401
11.3815
11.5235
11.6347
11.7206
11.7972
1
1.00002
1.00007
1.00016
1.00045
1.00092
1.0026
1.00526
1.01523
1.02999
1.09386
1.17953
1.61938
2.45523
5.43554
11.6454
11.2043
10.7763
10.8333
11.0226
11.2492
11.3819
11.4831
11.5612
11.6381
1
1.00002
1.00007
1.00015
1.00042
1.00085
1.00241
1.00488
1.01413
1.02785
1.08714
1.16586
1.57335
2.34024
5.09594
11.1678
11.0233
10.7026
10.7359
10.8744
11.0779
11.1946
11.2772
11.3369
11.4059
1
1.00002
1.00006
1.00013
1.00037
1.00076
1.00215
1.0043
1.01283
1.02385
1.0815
1.14384
1.53053
2.20671
4.74461
10.5572
10.8115
10.6487
10.6251
10.7016
10.8659
10.9578
11.0059
11.0269
11.0651
1
1.00002
1.00005
1.00011
1.00032
1.00066
1.0019
1.00373
1.01151
1.02037
1.07464
1.12449
1.48554
2.0556
4.38163
9.77647
10.6778
10.5581
10.4684
10.5113
10.616
10.6637
10.6533
10.5964
10.5281
1
1.00001
1.00005
1.0001
1.00028
1.00057
1.00163
1.00314
1.01007
1.01725
1.06523
1.10675
1.43007
1.90278
3.973
8.83543
10.5863
10.4702
10.2914
10.2996
10.3324
10.3137
10.2177
9.9864
9.61084
1.00001
1.00003
1.00009
1.00019
1.00054
1.00111
1.00316
1.00633
1.0189
1.03526
1.12138
1.21881
1.81895
2.92704
6.94023
12.1008
11.346
10.9762
11.0745
11.3382
11.5902
11.7424
11.8624
11.9539
12.0274
1.00001
1.00003
1.00009
1.00019
1.00054
1.0011
1.00312
1.00627
1.01859
1.03496
1.11891
1.2157
1.80206
2.88875
6.8229
12.1068
11.3491
10.9675
11.0649
11.328
11.5815
11.7348
11.8567
11.9501
12.0255
1.00001
1.00003
1.00008
1.00018
1.00052
1.00107
1.00304
1.00612
1.01797
1.03443
1.11383
1.20965
1.76689
2.80801
6.56427
12.1099
11.3534
10.943
11.035
11.292
11.5455
11.6977
11.8186
11.9109
11.986
1.00001
1.00002
1.00008
1.00018
1.0005
1.00103
1.00292
1.00588
1.01715
1.03342
1.10715
1.20125
1.71795
2.69423
6.18695
12.0856
11.3499
10.9026
10.9853
11.2286
11.4784
11.6268
11.7441
11.8337
11.9091
1.00001
1.00002
1.00008
1.00017
1.00048
1.00098
1.00277
1.0056
1.01624
1.03195
1.10021
1.19229
1.66481
2.56942
5.76535
11.9671
11.3133
10.8464
10.9179
11.1401
11.3815
11.5235
11.6347
11.7206
11.7972
1
1.00002
1.00007
1.00016
1.00045
1.00092
1.0026
1.00526
1.01523
1.02999
1.09386
1.17953
1.61938
2.45523
5.43553
11.6453
11.2043
10.7763
10.8333
11.0226
11.2492
11.3819
11.4831
11.5612
11.6381
1
1.00002
1.00007
1.00015
1.00042
1.00085
1.00241
1.00488
1.01413
1.02785
1.08714
1.16586
1.57335
2.34024
5.09593
11.1678
11.0233
10.7027
10.7359
10.8744
11.0779
11.1946
11.2772
11.3369
11.4059
1
1.00002
1.00006
1.00013
1.00037
1.00076
1.00215
1.0043
1.01283
1.02385
1.0815
1.14384
1.53053
2.20671
4.74461
10.5572
10.8115
10.6487
10.6251
10.7016
10.8659
10.9578
11.0059
11.0269
11.0651
1
1.00002
1.00005
1.00011
1.00032
1.00066
1.0019
1.00373
1.01151
1.02037
1.07464
1.12449
1.48554
2.0556
4.38163
9.77646
10.6778
10.5581
10.4684
10.5113
10.616
10.6637
10.6533
10.5964
10.5281
1
1.00001
1.00005
1.0001
1.00028
1.00057
1.00163
1.00314
1.01007
1.01725
1.06523
1.10675
1.43007
1.90278
3.973
8.83542
10.5863
10.4702
10.2914
10.2996
10.3324
10.3137
10.2177
9.9864
9.61084
1.00001
1.00003
1.00009
1.00019
1.00054
1.00111
1.00316
1.00633
1.0189
1.03526
1.12138
1.21881
1.81894
2.92703
6.94018
12.1008
11.346
10.9762
11.0745
11.3382
11.5902
11.7424
11.8624
11.954
12.0274
1.00001
1.00003
1.00009
1.00019
1.00054
1.0011
1.00312
1.00627
1.01859
1.03496
1.11891
1.2157
1.80205
2.88873
6.82285
12.1068
11.3491
10.9675
11.0649
11.328
11.5815
11.7348
11.8567
11.9502
12.0255
1.00001
1.00003
1.00008
1.00018
1.00052
1.00107
1.00304
1.00612
1.01797
1.03443
1.11383
1.20965
1.76689
2.80799
6.56422
12.1099
11.3534
10.943
11.035
11.292
11.5455
11.6977
11.8186
11.9109
11.986
1.00001
1.00002
1.00008
1.00018
1.0005
1.00103
1.00292
1.00588
1.01715
1.03342
1.10715
1.20125
1.71795
2.69422
6.18691
12.0856
11.3499
10.9026
10.9853
11.2286
11.4784
11.6268
11.7441
11.8337
11.9091
1.00001
1.00002
1.00008
1.00017
1.00048
1.00098
1.00277
1.0056
1.01624
1.03195
1.10021
1.19229
1.66481
2.56941
5.76533
11.9671
11.3133
10.8464
10.9179
11.1401
11.3815
11.5235
11.6347
11.7206
11.7972
1
1.00002
1.00007
1.00016
1.00045
1.00092
1.0026
1.00526
1.01523
1.02999
1.09386
1.17953
1.61937
2.45522
5.43551
11.6453
11.2042
10.7763
10.8333
11.0226
11.2492
11.3819
11.4831
11.5612
11.6381
1
1.00002
1.00007
1.00015
1.00042
1.00085
1.00241
1.00488
1.01413
1.02785
1.08714
1.16586
1.57334
2.34023
5.09592
11.1678
11.0233
10.7027
10.7359
10.8744
11.0779
11.1946
11.2772
11.3369
11.4059
1
1.00002
1.00006
1.00013
1.00037
1.00076
1.00215
1.0043
1.01283
1.02385
1.0815
1.14384
1.53053
2.20671
4.74459
10.5572
10.8115
10.6487
10.6251
10.7016
10.8659
10.9578
11.0059
11.0269
11.0651
1
1.00002
1.00005
1.00011
1.00032
1.00066
1.0019
1.00373
1.01151
1.02037
1.07464
1.12449
1.48554
2.0556
4.38162
9.77643
10.6778
10.5581
10.4684
10.5113
10.616
10.6637
10.6533
10.5964
10.5281
1
1.00001
1.00005
1.0001
1.00028
1.00057
1.00163
1.00314
1.01007
1.01725
1.06523
1.10675
1.43006
1.90277
3.97299
8.83539
10.5863
10.4702
10.2914
10.2996
10.3324
10.3137
10.2177
9.9864
9.61084
1.00001
1.00002
1.00008
1.00018
1.00054
1.0011
1.00316
1.00632
1.01889
1.03523
1.12135
1.21871
1.81875
2.92644
6.93858
12.1012
11.3461
10.9762
11.0745
11.3382
11.5902
11.7425
11.8625
11.954
12.0275
1.00001
1.00002
1.00008
1.00018
1.00053
1.00109
1.00311
1.00626
1.01858
1.03493
1.11888
1.2156
1.80186
2.88815
6.82128
12.1072
11.3492
10.9675
11.0649
11.328
11.5815
11.7349
11.8568
11.9502
12.0256
1
1.00002
1.00008
1.00018
1.00052
1.00106
1.00303
1.00611
1.01796
1.03441
1.1138
1.20956
1.7667
2.80744
6.5627
12.1103
11.3535
10.943
11.035
11.2921
11.5455
11.6977
11.8186
11.911
11.9861
1
1.00002
1.00008
1.00017
1.0005
1.00102
1.00291
1.00587
1.01713
1.0334
1.10712
1.20118
1.71777
2.69374
6.18553
12.0858
11.3499
10.9026
10.9853
11.2286
11.4784
11.6268
11.7441
11.8338
11.9092
1
1.00002
1.00007
1.00016
1.00047
1.00097
1.00276
1.00559
1.01623
1.03193
1.10019
1.19223
1.66469
2.56906
5.76454
11.9667
11.3132
10.8464
10.9179
11.1401
11.3815
11.5235
11.6347
11.7207
11.7972
1
1.00002
1.00007
1.00015
1.00044
1.00091
1.0026
1.00525
1.01522
1.02997
1.09384
1.17947
1.61928
2.45494
5.43485
11.6446
11.204
10.7763
10.8334
11.0226
11.2492
11.3819
11.4831
11.5612
11.6381
1
1.00002
1.00006
1.00014
1.00041
1.00084
1.00241
1.00487
1.01412
1.02783
1.08712
1.1658
1.57328
2.33995
5.09538
11.167
11.023
10.7028
10.736
10.8743
11.0779
11.1946
11.2772
11.3369
11.4059
1
1.00002
1.00006
1.00012
1.00036
1.00075
1.00214
1.00429
1.01282
1.02382
1.0815
1.14376
1.5305
2.20648
4.74414
10.5563
10.8114
10.6488
10.6251
10.7017
10.8659
10.9578
11.0059
11.0269
11.0651
1
1.00001
1.00005
1.00011
1.00032
1.00066
1.00189
1.00372
1.0115
1.02035
1.07462
1.12445
1.48549
2.05537
4.38124
9.7755
10.6778
10.5582
10.4685
10.5113
10.6161
10.6637
10.6533
10.5964
10.5281
1
1.00001
1.00004
1.00009
1.00027
1.00056
1.00163
1.00313
1.01006
1.01723
1.06521
1.10671
1.42999
1.90258
3.9726
8.83439
10.5864
10.4703
10.2914
10.2996
10.3324
10.3137
10.2177
9.98641
9.61085
1
1.00001
1.00003
1.0001
1.00021
1.00061
1.00123
1.0036
1.00692
1.02235
1.03882
1.14502
1.25543
1.98905
3.30899
7.76588
10.531
10.3938
10.116
10.0587
10.0273
9.92517
9.65607
9.03645
7.47557
1
1.00001
1.00003
1.00009
1.00019
1.00054
1.00111
1.00316
1.00637
1.01874
1.03584
1.11877
1.21934
1.79615
2.86454
6.54468
10.4766
10.3137
9.95608
9.81257
9.71942
9.51808
9.0914
8.24706
6.62065
1
1.00001
1.00002
1.00007
1.00016
1.00046
1.00093
1.00265
1.00536
1.0155
1.03058
1.09468
1.18396
1.61812
2.44703
5.22862
10.3022
10.1714
9.81767
9.57318
9.41176
9.12912
8.60988
7.74139
6.41219
1
1.00001
1.00002
1.00006
1.00013
1.00037
1.00077
1.00217
1.0044
1.0127
1.02502
1.07792
1.14643
1.50497
2.15582
4.47986
9.64574
9.86376
9.66114
9.34221
9.11129
8.78382
8.25212
7.45026
6.38258
1
1
1.00001
1.00005
1.0001
1.00029
1.00059
1.00168
1.00328
1.01024
1.01788
1.06566
1.10886
1.42286
1.89929
3.84751
8.31187
9.55666
9.43691
9.14674
8.84784
8.49376
7.983
7.26569
6.36988
1
1
1.00001
1.00003
1.00009
1.0002
1.00057
1.00116
1.00336
1.00654
1.02059
1.03626
1.13256
1.23361
1.88224
3.03835
6.85673
9.36005
9.26859
8.99936
8.63448
8.25452
7.77372
7.13492
6.36344
0.999998
1
1.00001
1.00002
1.00008
1.00016
1.00047
1.00096
1.00272
1.00549
1.01591
1.03127
1.09788
1.1876
1.63864
2.48395
5.25684
9.09877
9.09345
8.89934
8.48576
8.06497
7.60263
7.03037
6.35561
0.999997
0.999998
1
1.00002
1.00006
1.00012
1.00036
1.00074
1.0021
1.00424
1.01222
1.02424
1.0736
1.14471
1.46818
2.07245
4.10236
8.40312
8.90581
8.74794
8.36884
7.91574
7.46627
6.94666
6.34689
0.999995
0.999997
1
1.00001
1.00003
1.00011
1.00022
1.00064
1.00129
1.0037
1.00716
1.02258
1.03937
1.14397
1.25241
1.95936
3.17689
7.02252
8.62463
8.53563
8.26195
7.80628
7.36122
6.88071
6.34147
0.999994
0.999995
0.999998
1.00001
1.00002
1.00008
1.00017
1.00049
1.00101
1.00287
1.0058
1.0168
1.03301
1.10312
1.19844
1.67128
2.55076
5.37101
8.31589
8.33148
8.16703
7.77633
7.29555
6.83093
6.33834
0.999993
0.999994
0.999996
1
1.00002
1.00005
1.00014
1.0003
1.00084
1.00172
1.00487
1.00968
1.02899
1.05376
1.18054
1.35103
2.15368
3.7292
7.65564
8.21162
8.08234
7.74978
7.25864
6.79711
6.33741
0.999992
0.999993
0.999995
0.999998
1.00001
1.00003
1.0001
1.00021
1.0006
1.00122
1.00346
1.00679
1.02074
1.03699
1.13167
1.23043
1.85629
2.90397
6.21227
7.97324
7.92345
7.70978
7.26145
6.79023
6.34042
0.999992
0.999992
0.999993
0.999997
1
1.00002
1.00005
1.00017
1.00035
1.00099
1.002
1.0058
1.01093
1.03563
1.06132
1.22267
1.43258
2.39046
4.38877
7.51896
7.78403
7.64581
7.28364
6.7957
6.34816
0.999992
0.999992
0.999992
0.999995
0.999999
1.00001
1.00004
1.00012
1.00024
1.00069
1.00142
1.00401
1.00792
1.02381
1.04333
1.14987
1.27064
1.95044
3.14911
6.5187
7.59559
7.52181
7.27782
6.81841
6.36592
0.999991
0.999991
0.999992
0.999993
0.999997
1
1.00003
1.00006
1.00019
1.0004
1.00112
1.00224
1.00657
1.01219
1.0405
1.06893
1.2524
1.49028
2.57096
4.80125
7.2033
7.34807
7.22745
6.89102
6.40424
0.999991
0.999991
0.999991
0.999992
0.999995
0.999999
1.00002
1.00004
1.00013
1.00027
1.00077
1.00158
1.00441
1.00884
1.02572
1.04872
1.15764
1.30208
1.98041
3.22524
6.40004
7.18887
7.1224
6.9004
6.45826
0.999991
0.999991
0.999991
0.999992
0.999993
0.999997
1
1.00003
1.00007
1.00021
1.00043
1.0012
1.00243
1.00691
1.01339
1.04174
1.07368
1.25999
1.50828
2.58744
4.78672
6.83643
6.96236
6.86058
6.57329
0.999991
0.999991
0.999991
0.999991
0.999992
0.999995
1
1.00002
1.00004
1.00013
1.00028
1.00079
1.00162
1.0045
1.00906
1.02593
1.05003
1.15582
1.30706
1.95382
3.15034
6.11247
6.81604
6.76979
6.58837
0.999991
0.999991
0.999991
0.999991
0.999992
0.999993
0.999997
1
1.00003
1.00007
1.00021
1.00043
1.0012
1.00243
1.00683
1.0135
1.04022
1.07506
1.24364
1.50415
2.47349
4.49761
6.45912
6.63939
6.55304
0.999991
0.99999
0.99999
0.999991
0.999991
0.999992
0.999994
1
1.00001
1.00005
1.00011
1.00032
1.00065
1.00182
1.00367
1.0103
1.02061
1.05915
1.12146
1.3507
1.79355
3.05716
5.65429
6.46436
6.44811
0.999991
0.99999
0.99999
0.99999
0.999991
0.999991
0.999993
0.999997
1
1.00003
1.00007
1.00019
1.00041
1.00113
1.00229
1.00635
1.01271
1.03649
1.07048
1.2169
1.45082
2.29507
4.03941
6.04775
6.34168
0.999991
0.99999
0.99999
0.99999
0.999991
0.999991
0.999992
0.999994
1
1.00001
1.00004
1.0001
1.00028
1.00059
1.00163
1.00329
1.00918
1.01848
1.0521
1.10846
1.30551
1.69236
2.78333
5.09369
6.12268
0.999991
0.99999
0.99999
0.99999
0.99999
0.999991
0.999991
0.999992
0.999996
1
1.00002
1.00006
1.00017
1.00035
1.00097
1.00199
1.00545
1.01087
1.03117
1.05848
1.18522
1.35914
2.06655
3.42414
5.60398
0.999991
0.99999
0.99999
0.99999
0.99999
0.99999
0.999991
0.999992
0.999994
0.999997
1.00001
1.00003
1.0001
1.00021
1.00057
1.00118
1.00322
1.00641
1.01842
1.03401
1.11085
1.19724
1.65346
2.39781
4.45538
0.999991
0.99999
0.99999
0.99999
0.99999
0.99999
0.999991
0.999991
0.999992
0.999994
1
1.00001
1.00005
1.00012
1.00034
1.00069
1.0019
1.00384
1.01058
1.02125
1.05962
1.12313
1.34544
1.76398
2.89344
0.999991
0.99999
0.99999
0.99999
0.99999
0.99999
0.99999
0.999991
0.999991
0.999993
0.999996
1.00001
1.00002
1.00008
1.00016
1.00046
1.00094
1.00258
1.0052
1.01452
1.02816
1.08519
1.15946
1.50202
2.07255
0.999991
0.99999
0.99999
0.99999
0.99999
0.99999
0.99999
0.99999
0.999991
0.999992
0.999994
0.999998
1.00001
1.00003
1.00011
1.00022
1.00062
1.00126
1.00346
1.00686
1.01972
1.03641
1.11689
1.2123
1.6696
0.999991
0.99999
0.99999
0.99999
0.99999
0.99999
0.99999
0.99999
0.999991
0.999991
0.999992
0.999995
1
1.00002
1.00005
1.00014
1.0003
1.00082
1.00168
1.00456
1.00909
1.02576
1.04845
1.14849
1.28943
0.999991
0.99999
0.99999
0.99999
0.99999
0.99999
0.99999
0.99999
0.99999
0.999991
0.999991
0.999993
0.999996
1.00001
1.00002
1.00008
1.00017
1.00047
1.00096
1.0026
1.00524
1.01443
1.02825
1.08366
1.15598
0.999991
0.99999
0.99999
0.99999
0.99999
0.99999
0.99999
0.99999
0.99999
0.99999
0.999991
0.999992
0.999994
0.999998
1.00001
1.00003
1.0001
1.00022
1.0006
1.00123
1.00333
1.00668
1.01868
1.03559
1.10879
0.999991
0.99999
0.99999
0.99999
0.99999
0.99999
0.99999
0.99999
0.99999
0.99999
0.999991
0.999991
0.999992
0.999995
1
1.00002
1.00004
1.00013
1.00028
1.00077
1.00156
1.00424
1.00848
1.02339
1.04657
0.999991
0.99999
0.99999
0.99999
0.99999
0.99999
0.99999
0.99999
0.99999
0.99999
0.99999
0.999991
0.999991
0.999993
0.999996
1
1.00002
1.00006
1.00017
1.00036
1.00098
1.002
1.0054
1.01082
1.02991
0.999991
0.99999
0.99999
0.99999
0.99999
0.99999
0.99999
0.99999
0.99999
0.99999
0.99999
0.99999
0.999991
0.999991
0.999994
0.999997
1.00001
1.00003
1.00009
1.00019
1.00053
1.00108
1.0029
1.00584
1.01598
0.999991
0.99999
0.99999
0.99999
0.99999
0.99999
0.99999
0.99999
0.99999
0.99999
0.99999
0.99999
0.99999
0.999991
0.999992
0.999994
0.999999
1.00001
1.00004
1.00011
1.00024
1.00065
1.00132
1.00355
1.00712
0.999991
0.99999
0.99999
0.99999
0.99999
0.99999
0.99999
0.99999
0.99999
0.99999
0.99999
0.99999
0.99999
0.999991
0.999991
0.999992
0.999995
1
1.00002
1.00005
1.00014
1.00029
1.00078
1.00159
1.00426
0.999991
0.99999
0.99999
0.99999
0.99999
0.99999
0.99999
0.99999
0.99999
0.99999
0.99999
0.99999
0.99999
0.99999
0.999991
0.999991
0.999993
0.999996
1
1.00002
1.00006
1.00017
1.00035
1.00095
1.00192
0.999991
0.99999
0.99999
0.99999
0.99999
0.99999
0.99999
0.99999
0.99999
0.99999
0.99999
0.99999
0.99999
0.99999
0.99999
0.999991
0.999992
0.999993
0.999998
1.00001
1.00003
1.00007
1.00021
1.00043
1.00115
0.999991
0.99999
0.99999
0.99999
0.99999
0.99999
0.99999
0.99999
0.99999
0.99999
0.99999
0.99999
0.99999
0.99999
0.99999
0.99999
0.999991
0.999992
0.999994
0.999998
1.00001
1.00003
1.00011
1.00022
1.0006
0.999991
0.99999
0.99999
0.99999
0.99999
0.99999
0.99999
0.99999
0.99999
0.99999
0.99999
0.99999
0.99999
0.99999
0.99999
0.99999
0.999991
0.999991
0.999992
0.999995
1
1.00002
1.00005
1.00014
1.00029
0.999991
0.99999
0.99999
0.99999
0.99999
0.99999
0.99999
0.99999
0.99999
0.99999
0.99999
0.99999
0.99999
0.99999
0.99999
0.99999
0.99999
0.999991
0.999992
0.999994
0.999998
1.00001
1.00003
1.0001
1.00021
1
1.00001
1.00004
1.0001
1.00022
1.00061
1.00124
1.00361
1.00694
1.02236
1.03885
1.14506
1.2555
1.98919
3.30942
7.76693
10.5309
10.3937
10.116
10.0587
10.0273
9.92513
9.65604
9.03643
7.47555
1
1.00001
1.00003
1.00009
1.00019
1.00055
1.00112
1.00317
1.00639
1.01876
1.03587
1.11879
1.21942
1.79627
2.86496
6.54583
10.4765
10.3136
9.956
9.81252
9.71938
9.51804
9.09136
8.24703
6.62064
1
1.00001
1.00003
1.00008
1.00016
1.00046
1.00094
1.00266
1.00537
1.01551
1.0306
1.0947
1.18401
1.61827
2.44743
5.22988
10.3022
10.1713
9.81757
9.57311
9.41171
9.12908
8.60984
7.74136
6.41218
1
1.00001
1.00002
1.00006
1.00013
1.00038
1.00077
1.00218
1.00441
1.01271
1.02503
1.07794
1.14649
1.50503
2.15605
4.48033
9.6462
9.86379
9.66109
9.34214
9.11125
8.78379
8.25209
7.45024
6.38256
1
1.00001
1.00002
1.00005
1.0001
1.00029
1.00059
1.00169
1.00329
1.01025
1.0179
1.06568
1.10891
1.42291
1.89951
3.84789
8.31285
9.55666
9.43686
9.14663
8.84778
8.49373
7.98298
7.26568
6.36987
1
1
1.00002
1.00004
1.0001
1.00021
1.00058
1.00117
1.00337
1.00655
1.0206
1.03628
1.13259
1.23368
1.88238
3.03874
6.85767
9.35996
9.26849
8.99928
8.63444
8.2545
7.77371
7.13491
6.36343
1
1
1.00001
1.00003
1.00008
1.00017
1.00047
1.00097
1.00273
1.0055
1.01592
1.03129
1.0979
1.18765
1.63876
2.4843
5.2578
9.09878
9.09341
8.89929
8.48571
8.06495
7.60262
7.03036
6.35561
1
1
1.00001
1.00002
1.00006
1.00013
1.00037
1.00075
1.00211
1.00426
1.01223
1.02426
1.07361
1.14477
1.46823
2.07266
4.10273
8.40346
8.90587
8.74798
8.36883
7.91574
7.46628
6.94667
6.34689
1
1
1.00001
1.00002
1.00004
1.00011
1.00023
1.00064
1.0013
1.00371
1.00717
1.02259
1.03939
1.144
1.25247
1.95949
3.17725
7.02327
8.62472
8.53569
8.26196
7.8063
7.36124
6.88072
6.34148
1
1
1.00001
1.00001
1.00003
1.00009
1.00018
1.0005
1.00102
1.00288