/*--------------------------------*- C++ -*----------------------------------*\
| =========                 |                                                 |
| \\      /  F ield         | OpenFOAM: The Open Source CFD Toolbox           |
|  \\    /   O peration     | Version:  4.1                                   |
|   \\  /    A nd           | Web:      www.OpenFOAM.org                      |
|    \\/     M anipulation  |                                                 |
\*---------------------------------------------------------------------------*/
FoamFile
{
    version     2.0;
    format      ascii;
    class       surfaceScalarField;
    location    "2";
    object      phi;
}
// * * * * * * * * * * * * * * * * * * * * * * * * * * * * * * * * * * * * * //

dimensions      [1 0 -1 0 0 0 0];

internalField   nonuniform List<scalar> 
150500
(
0.0168001
1.43386e-10
-3.32136e-12
0.0168001
7.95122e-10
-1.16304e-11
0.0168
2.95296e-09
-1.36053e-11
0.0168
7.52895e-09
-2.14446e-11
0.0168
2.08835e-08
-2.20116e-11
0.0167999
4.70749e-08
-2.93249e-11
0.0167997
1.29539e-07
-3.09179e-11
0.0167992
2.59511e-07
-4.35692e-11
0.0167973
8.82925e-07
-4.95177e-11
0.0167956
1.42304e-06
-1.12996e-10
0.016782
6.61909e-06
-1.03436e-10
0.0167648
1.29531e-05
-4.00653e-10
0.0166786
6.00795e-05
-7.22466e-10
0.0164666
0.000166828
-2.43102e-09
0.0152353
0.000974792
-6.91899e-09
0.0139117
0.00140922
1.8973e-09
0.012709
0.00123596
2.85165e-10
0.0114864
0.00123873
-1.67587e-10
0.0102102
0.00129663
-7.956e-11
0.00882324
0.00140647
1.45515e-10
0.00732019
0.00152296
2.95792e-10
0.00569525
0.00164887
3.21701e-10
0.00393347
0.00177648
3.22907e-10
0.00202746
0.00190306
3.39926e-10
0.00204247
4.36061e-10
0.0168001
2.92231e-10
-3.31749e-12
0.0168001
1.60686e-09
-1.16213e-11
0.0168
5.96471e-09
-1.36021e-11
0.0168
1.52395e-08
-2.1417e-11
0.0168
4.21254e-08
-2.19614e-11
0.0167999
9.56958e-08
-2.92137e-11
0.0167997
2.57387e-07
-3.06765e-11
0.0167992
5.37246e-07
-4.28975e-11
0.0167973
1.73762e-06
-4.8945e-11
0.0167957
2.69349e-06
-1.09356e-10
0.0167823
1.32721e-05
-1.04761e-10
0.0167661
2.48058e-05
-3.88038e-10
0.016683
0.000117544
-7.1968e-10
0.0164809
0.000325053
-2.37956e-09
0.0153507
0.00185312
-6.7895e-09
0.0140342
0.00281127
1.9035e-09
0.0128542
0.00245222
3.78404e-10
0.0116439
0.00246653
-1.45549e-10
0.0103697
0.00259152
-7.38061e-11
0.00896013
0.00283526
1.28897e-10
0.00741572
0.00308715
2.85437e-10
0.00574126
0.0033466
3.12827e-10
0.00392578
0.00360524
3.08791e-10
0.00198189
0.00384323
3.18598e-10
0.00403868
4.08318e-10
0.0168001
4.1073e-10
-3.30752e-12
0.0168001
2.25102e-09
-1.16137e-11
0.0168001
8.4289e-09
-1.35825e-11
0.0168
2.15684e-08
-2.13647e-11
0.0168
6.01475e-08
-2.18213e-11
0.0167999
1.37848e-07
-2.88886e-11
0.0167997
3.67321e-07
-3.00718e-11
0.0167993
8.08622e-07
-4.03805e-11
0.0167977
2.36446e-06
-4.83781e-11
0.0167957
4.17662e-06
-9.97408e-11
0.0167848
1.77744e-05
-1.0737e-10
0.0167718
3.32358e-05
-3.5615e-10
0.0167056
0.000159222
-7.0947e-10
0.0165535
0.000437113
-2.25465e-09
0.0157403
0.00242592
-6.49746e-09
0.0144628
0.00416484
1.67137e-09
0.0132265
0.00372777
4.67984e-10
0.0119831
0.00373143
-9.39413e-11
0.0106772
0.00392018
-4.84374e-11
0.00923184
0.00429811
1.03947e-10
0.0076377
0.00469902
2.49551e-10
0.00590587
0.0051003
2.79767e-10
0.00402869
0.00549433
2.70249e-10
0.00202954
0.00583672
2.666e-10
0.00608081
3.47359e-10
0.0168001
4.91665e-10
-3.29e-12
0.0168001
2.70879e-09
-1.16128e-11
0.0168001
1.01441e-08
-1.35616e-11
0.0168
2.59824e-08
-2.13245e-11
0.0168
7.22334e-08
-2.16833e-11
0.0168
1.6525e-07
-2.86044e-11
0.0167998
4.38631e-07
-2.92058e-11
0.0167995
9.68323e-07
-3.82305e-11
0.0167983
2.70023e-06
-4.58445e-11
0.0167965
5.52244e-06
-7.41496e-11
0.0167897
1.92839e-05
-1.20839e-10
0.0167818
3.71548e-05
-2.67424e-10
0.0167494
0.000170662
-6.86929e-10
0.0166739
0.000467929
-1.96177e-09
0.0164076
0.00248849
-5.84975e-09
0.0151569
0.00547443
7.3771e-10
0.0137448
0.00517663
2.75721e-10
0.0124124
0.00507706
-4.18204e-11
0.0110609
0.00528652
-9.77128e-12
0.00958784
0.00578768
8.74238e-11
0.00794882
0.00635088
1.79457e-10
0.0061654
0.00690219
2.1282e-10
0.00422347
0.00744725
2.03691e-10
0.00213709
0.00791756
1.87095e-10
0.00822786
2.60161e-10
0.0168001
5.87464e-10
-3.27129e-12
0.0168001
3.23827e-09
-1.16101e-11
0.0168001
1.21089e-08
-1.35542e-11
0.0168
3.10138e-08
-2.12953e-11
0.0168
8.59431e-08
-2.16078e-11
0.0168
1.96491e-07
-2.84459e-11
0.0167998
5.17396e-07
-2.87511e-11
0.0167995
1.15126e-06
-3.72766e-11
0.0167984
3.07448e-06
-4.33509e-11
0.0167964
6.77001e-06
-6.54857e-11
0.0167924
1.95859e-05
-9.84103e-11
0.0167792
4.5614e-05
-2.45028e-10
0.0167724
0.000162124
-4.41891e-10
0.0167612
0.000446718
-1.427e-09
0.0169898
0.00215825
-3.32206e-09
0.0156759
0.00671915
-1.63887e-09
0.0141192
0.00671949
-3.69762e-10
0.0127444
0.00645929
4.79003e-12
0.0113983
0.00664736
3.86771e-11
0.00992964
0.00726693
6.32706e-11
0.00829542
0.00799554
9.68956e-11
0.00649448
0.00871981
1.40468e-10
0.00449883
0.00945079
1.38796e-10
0.00230204
0.010106
1.1451e-10
0.010537
1.72663e-10
0.0168001
6.99649e-10
-3.2501e-12
0.0168001
3.88178e-09
-1.16122e-11
0.0168001
1.44741e-08
-1.35521e-11
0.0168
3.72465e-08
-2.128e-11
0.0168
1.0237e-07
-2.15633e-11
0.0168
2.34722e-07
-2.83497e-11
0.0167998
6.10391e-07
-2.84697e-11
0.0167995
1.36395e-06
-3.66894e-11
0.0167984
3.56976e-06
-4.16003e-11
0.0167967
7.92897e-06
-6.24202e-11
0.0167911
2.21249e-05
-8.45488e-11
0.0167825
5.04514e-05
-2.28794e-10
0.0167596
0.000170575
-3.39678e-10
0.0167367
0.000459807
-1.13167e-09
0.0166592
0.00212922
-2.76801e-09
0.0156779
0.00758187
-3.32317e-09
0.0142283
0.00813812
-1.03569e-09
0.0129605
0.007744
2.61911e-10
0.0117045
0.00792491
1.8759e-10
0.0102836
0.0087009
-2.87137e-12
0.00867319
0.00961326
2.01725e-11
0.00687631
0.0105311
8.40966e-11
0.00484373
0.0114896
8.7048e-11
0.00252553
0.0124029
4.49624e-11
0.0130652
9.31882e-11
0.0168001
9.17989e-10
-3.23115e-12
0.0168001
4.99908e-09
-1.16171e-11
0.0168001
1.86595e-08
-1.3566e-11
0.0168
4.76468e-08
-2.12842e-11
0.0168
1.32704e-07
-2.15728e-11
0.0167999
3.04769e-07
-2.83436e-11
0.0167996
7.92359e-07
-2.84276e-11
0.0167991
1.85708e-06
-3.64971e-11
0.0167979
4.28442e-06
-4.09965e-11
0.0167935
1.17505e-05
-6.12128e-11
0.0167908
2.22939e-05
-7.49336e-11
0.0167695
6.75907e-05
-2.35424e-10
0.016754
0.000172939
-2.401e-10
0.0166983
0.000513384
-1.12249e-09
0.0166079
0.00214499
-2.21493e-09
0.0155412
0.00852549
-3.54253e-09
0.014303
0.00934516
-1.41419e-09
0.0131992
0.00886905
7.40832e-10
0.0119835
0.00915899
3.73491e-10
0.0106805
0.0100125
-8.02752e-11
0.00914728
0.0111545
-2.87825e-11
0.00737731
0.0123132
5.30161e-11
0.00530537
0.0135675
4.87934e-11
0.00287444
0.0148195
-1.16869e-11
0.0159394
3.02036e-11
0.0168001
9.27104e-10
-3.19754e-12
0.0168001
5.10168e-09
-1.16606e-11
0.0168001
1.90157e-08
-1.35827e-11
0.0168001
4.89949e-08
-2.13927e-11
0.0168
1.35227e-07
-2.18177e-11
0.0168
3.12712e-07
-2.89818e-11
0.0167999
8.02931e-07
-2.97241e-11
0.0167998
1.89483e-06
-4.2245e-11
0.0167992
4.44442e-06
-3.87498e-11
0.0167989
1.11304e-05
-1.10548e-10
0.0167939
2.52676e-05
-1.2104e-11
0.0167913
6.52798e-05
-3.09658e-10
0.016772
0.000179973
-9.62777e-11
0.0167197
0.00057007
-9.1139e-10
0.0166408
0.00216122
-1.87524e-09
0.0155899
0.0094433
-3.82349e-09
0.014765
0.0101601
-3.85279e-10
0.0135943
0.0100506
2.08025e-10
0.0123126
0.0104533
1.0246e-10
0.0110858
0.0112477
1.66114e-11
0.00968819
0.0125572
-2.0944e-11
0.00801736
0.0139919
4.32816e-11
0.00598266
0.0156039
3.39815e-11
0.00340405
0.0173836
-3.38658e-11
0.0193415
-4.12375e-12
0.0168001
1.06217e-09
-3.17333e-12
0.0168001
4.631e-09
-1.16836e-11
0.0168001
1.87225e-08
-1.35236e-11
0.0168001
4.57762e-08
-2.14968e-11
0.0168001
1.30642e-07
-2.14308e-11
0.0168001
2.9004e-07
-2.87143e-11
0.0168
7.72766e-07
-2.8624e-11
0.0168002
1.68781e-06
-3.75849e-11
0.0167998
4.48623e-06
-3.99857e-11
0.0168016
8.92755e-06
-6.40154e-11
0.0167954
2.93912e-05
-8.03924e-11
0.0168045
5.31279e-05
-1.79131e-10
0.016764
0.000211665
-1.69411e-10
0.0167641
0.000555656
-9.46038e-10
0.016646
0.00223694
-1.54802e-09
0.0157921
0.0101629
-3.98283e-09
0.0147888
0.011164
-2.5543e-11
0.0138382
0.0110099
1.49478e-10
0.0127833
0.0115164
6.92122e-11
0.0116582
0.0123827
5.32544e-11
0.0103953
0.0138241
3.23611e-11
0.00889227
0.0155017
4.74178e-11
0.00705125
0.0174509
3.33679e-11
0.00440534
0.0200226
-2.161e-11
0.0237442
-1.47055e-11
0.0168001
-3.22842e-12
1.61713e-09
0.0168001
-1.16861e-11
8.73357e-10
0.0168001
-1.36548e-11
2.09356e-08
0.0168001
-2.19346e-11
1.49924e-08
0.0168001
-2.12822e-11
1.36791e-07
0.0168003
-2.9312e-11
9.70478e-08
0.0168001
-2.85856e-11
8.43548e-07
0.0168013
-3.83359e-11
4.3789e-07
0.0167995
-3.8906e-11
5.98403e-06
0.0168071
-6.25313e-11
1.05102e-06
0.0167881
-8.14993e-11
4.64379e-05
0.0168347
-1.42903e-10
4.73476e-06
0.0166926
-2.66926e-10
0.000344333
0.016951
-8.01693e-10
0.000287462
0.0167219
-1.5418e-09
0.0024263
0.0163053
-4.23691e-09
0.010441
0.0152268
2.43122e-10
0.012252
0.0142517
2.66626e-10
0.0119971
0.0133698
1.1776e-10
0.0124074
0.0123711
1.07742e-10
0.0133911
0.0113662
9.47471e-11
0.0148368
0.0102121
9.13809e-11
0.0166617
0.00854841
7.30579e-11
0.0191186
0.00603323
2.3305e-11
0.0225283
1.56205e-11
0.0297736
0.0168001
1.45632e-10
-4.81986e-16
0.0168001
8.01279e-10
-2.61472e-15
0.0168
2.96083e-09
-5.59644e-15
0.0168
7.55315e-09
-1.15284e-14
0.0168
2.09362e-08
-2.109e-14
0.0167999
4.71957e-08
-3.7787e-14
0.0167997
1.29795e-07
-8.44833e-14
0.0167992
2.60183e-07
-1.22399e-13
0.0167973
8.83975e-07
-5.45118e-13
0.0167956
1.42602e-06
-4.1208e-13
0.016782
6.62196e-06
-4.28082e-12
0.0167648
1.29626e-05
-5.20869e-12
0.0166785
6.00919e-05
-2.93065e-11
0.0164665
0.000166871
-7.14608e-11
0.015235
0.000975059
-2.25504e-10
0.0139114
0.00140926
6.74177e-11
0.0127085
0.00123616
1.60423e-11
0.0114857
0.00123888
-2.09084e-13
0.0102093
0.00129672
2.14623e-12
0.00882238
0.00140647
7.00934e-12
0.00731946
0.00152287
8.9688e-12
0.00569472
0.00164871
7.34681e-12
0.00393316
0.00177631
8.10556e-12
0.00202731
0.00190289
5.40037e-12
0.00204229
9.5729e-12
0.0168001
2.9766e-10
-4.85282e-16
0.0168001
1.61462e-09
-2.63043e-15
0.0168
5.98201e-09
-5.62525e-15
0.0168
1.52789e-08
-1.15879e-14
0.0168
4.22275e-08
-2.11618e-14
0.0167999
9.59382e-08
-3.79137e-14
0.0167997
2.57904e-07
-8.4982e-14
0.0167992
5.38937e-07
-1.25537e-13
0.0167973
1.73931e-06
-5.40953e-13
0.0167957
2.70094e-06
-4.27364e-13
0.0167823
1.32777e-05
-4.1904e-12
0.0167661
2.48303e-05
-5.11221e-12
0.0166829
0.000117579
-2.8578e-11
0.0164808
0.00032518
-6.94575e-11
0.0153501
0.00185391
-2.19905e-10
0.0140335
0.00281145
6.63493e-11
0.0128534
0.00245248
1.7575e-11
0.011643
0.00246672
-1.32031e-13
0.0103688
0.0025916
1.85659e-12
0.00895933
0.0028352
6.22202e-12
0.00741509
0.00308693
8.52143e-12
0.00574083
0.00334629
7.05955e-12
0.00392553
0.00360491
7.73714e-12
0.00198178
0.00384292
4.96987e-12
0.00403835
8.94971e-12
0.0168001
4.19355e-10
-4.91878e-16
0.0168001
2.25855e-09
-2.64622e-15
0.0168
8.44667e-09
-5.74012e-15
0.0168
2.16029e-08
-1.19135e-14
0.0168
6.02411e-08
-2.20887e-14
0.0167999
1.38055e-07
-4.08064e-14
0.0167997
3.67894e-07
-8.69688e-14
0.0167993
8.10064e-07
-1.57748e-13
0.0167977
2.36692e-06
-5.00078e-13
0.0167957
4.19074e-06
-4.93048e-13
0.0167848
1.77791e-05
-3.88738e-12
0.0167718
3.32887e-05
-4.94183e-12
0.0167055
0.000159295
-2.65905e-11
0.0165532
0.000437426
-6.47528e-11
0.0157391
0.00242777
-2.0729e-10
0.0144614
0.00416512
5.58662e-11
0.0132254
0.00372766
1.7453e-11
0.0119822
0.00373141
1.53378e-13
0.0106764
0.0039201
1.58718e-12
0.00923123
0.00429792
4.92312e-12
0.00763724
0.00469867
7.27708e-12
0.00590557
0.00509987
6.16835e-12
0.00402853
0.0054939
6.82253e-12
0.00202946
0.00583632
3.93665e-12
0.00608038
7.77618e-12
0.0168001
5.00748e-10
-4.79309e-16
0.0168001
2.71746e-09
-2.58422e-15
0.0168001
1.01558e-08
-5.57225e-15
0.0168
2.60074e-08
-1.15497e-14
0.0168
7.22908e-08
-2.12431e-14
0.0168
1.65377e-07
-3.91683e-14
0.0167998
4.38962e-07
-8.19673e-14
0.0167995
9.6909e-07
-1.51255e-13
0.0167983
2.70221e-06
-4.37032e-13
0.0167965
5.52817e-06
-5.44784e-13
0.0167896
1.93029e-05
-3.26698e-12
0.0167818
3.71768e-05
-3.76315e-12
0.0167493
0.000170861
-2.33486e-11
0.0166738
0.000468403
-5.51284e-11
0.0164059
0.00249184
-1.83306e-10
0.0151555
0.00547434
2.48014e-11
0.0137441
0.0051759
9.91715e-12
0.0124119
0.00507675
4.5747e-13
0.0110605
0.0052863
1.78381e-12
0.00958758
0.0057874
3.84044e-12
0.00794861
0.00635047
5.01935e-12
0.00616525
0.0069017
4.40361e-12
0.0042234
0.00744677
5.18821e-12
0.00213706
0.00791711
2.27003e-12
0.00822737
5.98455e-12
0.0168001
5.97738e-10
-4.63399e-16
0.0168001
3.24496e-09
-2.51363e-15
0.0168001
1.21167e-08
-5.33246e-15
0.0168
3.10265e-08
-1.10274e-14
0.0168
8.59726e-08
-1.96883e-14
0.0168
1.96555e-07
-3.5971e-14
0.0167998
5.1758e-07
-7.22809e-14
0.0167995
1.15169e-06
-1.34962e-13
0.0167984
3.07574e-06
-3.41323e-13
0.0167965
6.77279e-06
-6.32295e-13
0.0167924
1.9596e-05
-2.07962e-12
0.0167793
4.56343e-05
-3.79584e-12
0.0167726
0.000162221
-1.45448e-11
0.0167614
0.00044703
-3.82348e-11
0.0169921
0.00215972
-1.02153e-10
0.0156767
0.00672067
-5.12228e-11
0.0141196
0.00671912
-1.14853e-11
0.0127447
0.00645905
8.06045e-13
0.0113984
0.00664728
2.08017e-12
0.00992971
0.00726667
2.4895e-12
0.00829545
0.00799515
2.19794e-12
0.0064945
0.00871935
2.2534e-12
0.00449885
0.00945034
3.42308e-12
0.00230205
0.0101056
7.10106e-13
0.0105365
4.17423e-12
0.0168001
7.09494e-10
-4.49747e-16
0.0168001
3.88747e-09
-2.45506e-15
0.0168001
1.44708e-08
-5.12008e-15
0.0168
3.72395e-08
-1.05636e-14
0.0168
1.02342e-07
-1.82209e-14
0.0168
2.3466e-07
-3.28983e-14
0.0167998
6.10252e-07
-6.31906e-14
0.0167995
1.36359e-06
-1.16835e-13
0.0167984
3.56923e-06
-2.85581e-13
0.0167967
7.92679e-06
-5.45919e-13
0.0167911
2.21265e-05
-1.62447e-12
0.0167825
5.04512e-05
-3.43229e-12
0.0167597
0.000170644
-1.12018e-11
0.016737
0.000459891
-2.92276e-11
0.01666
0.00213021
-8.53355e-11
0.0156791
0.00758302
-1.04274e-10
0.0142293
0.0081379
-3.344e-11
0.0129609
0.00774434
7.77828e-12
0.0117048
0.00792503
5.82804e-12
0.0102838
0.00870066
-2.21643e-14
0.00867334
0.00961292
-3.22883e-13
0.00687642
0.0105307
6.92001e-13
0.00484384
0.0114892
2.12519e-12
0.00252558
0.0124025
-7.89364e-13
0.0130648
2.61964e-12
0.0168001
9.3403e-10
-4.45899e-16
0.0168001
4.98965e-09
-2.43687e-15
0.0168001
1.86534e-08
-5.05839e-15
0.0168
4.75951e-08
-1.04228e-14
0.0168
1.32575e-07
-1.77643e-14
0.0167999
3.04448e-07
-3.18985e-14
0.0167996
7.91669e-07
-6.01063e-14
0.0167991
1.85448e-06
-1.10222e-13
0.0167979
4.28435e-06
-2.63863e-13
0.0167935
1.17323e-05
-5.17219e-13
0.0167908
2.23124e-05
-1.34254e-12
0.0167695
6.7569e-05
-3.68212e-12
0.016754
0.000173013
-8.37199e-12
0.0166983
0.000513539
-2.85771e-11
0.0166083
0.00214554
-6.92296e-11
0.015542
0.00852627
-1.09671e-10
0.0143023
0.00934646
-4.49351e-11
0.0131992
0.00886875
2.2229e-11
0.011984
0.00915867
1.10429e-11
0.0106807
0.0100124
-2.97387e-12
0.00914748
0.0111543
-2.00357e-12
0.00737747
0.0123128
-2.57112e-13
0.0053055
0.0135671
9.95441e-13
0.00287452
0.0148192
-1.89346e-12
0.015939
1.67614e-12
0.0168001
9.38001e-10
-4.42363e-16
0.0168001
5.09142e-09
-2.41162e-15
0.0168001
1.90331e-08
-5.02678e-15
0.0168001
4.89234e-08
-1.03723e-14
0.0168
1.35316e-07
-1.79529e-14
0.0168
3.12788e-07
-3.28788e-14
0.0167999
8.03318e-07
-6.20115e-14
0.0167998
1.89691e-06
-1.32737e-13
0.0167992
4.44419e-06
-2.29111e-13
0.0167989
1.11514e-05
-7.634e-13
0.0167939
2.52423e-05
-8.80388e-13
0.0167912
6.53411e-05
-3.77892e-12
0.0167719
0.000179963
-7.12788e-12
0.0167198
0.000570081
-2.26233e-11
0.016641
0.00216159
-6.22113e-11
0.0155902
0.00944394
-1.18045e-10
0.0147662
0.0101606
-1.1305e-11
0.0135949
0.0100509
6.44891e-12
0.0123129
0.0104533
2.52242e-12
0.0110862
0.0112476
-3.35524e-13
0.00968847
0.0125571
-1.94135e-12
0.00801757
0.0139917
-6.34123e-13
0.00598284
0.0156035
3.85264e-13
0.00340414
0.0173834
-3.31701e-12
0.0193411
2.60011e-12
0.0168001
1.02463e-09
-4.35325e-16
0.0168001
4.75104e-09
-2.36729e-15
0.0168001
1.86616e-08
-4.84678e-15
0.0168001
4.56123e-08
-1.0203e-14
0.0168001
1.30591e-07
-1.63654e-14
0.0168001
2.89826e-07
-2.98586e-14
0.0168
7.72718e-07
-5.2931e-14
0.0168002
1.6882e-06
-9.72787e-14
0.0167998
4.48666e-06
-2.16054e-13
0.0168016
8.93392e-06
-4.16425e-13
0.0167954
2.93924e-05
-1.14592e-12
0.0168046
5.3154e-05
-2.53471e-12
0.016764
0.000211646
-6.1505e-12
0.016764
0.000555734
-2.31713e-11
0.0166462
0.00223706
-5.22919e-11
0.0157923
0.0101634
-1.24576e-10
0.0147893
0.0111642
-1.3344e-12
0.0138387
0.0110101
3.86673e-12
0.0127837
0.0115164
8.54501e-13
0.0116586
0.0123827
2.2412e-13
0.0103956
0.013824
-5.14719e-13
0.00889249
0.0155016
-5.28694e-13
0.00705143
0.0174507
-3.51301e-13
0.00440547
0.0200224
-2.26214e-12
0.023744
2.35023e-12
0.0168001
-4.34251e-16
1.49705e-09
0.0168001
-2.35175e-15
1.18072e-09
0.0168001
-4.77703e-15
1.982e-08
0.0168001
-1.00524e-14
1.55475e-08
0.0168001
-1.56606e-14
1.35498e-07
0.0168003
-2.82631e-14
9.77465e-08
0.0168001
-4.8312e-14
8.42643e-07
0.0168013
-8.4084e-14
4.39206e-07
0.0167995
-1.95668e-13
5.98171e-06
0.0168071
-3.32606e-13
1.05781e-06
0.0167881
-1.0786e-12
4.64386e-05
0.0168347
-1.92654e-12
4.75262e-06
0.0166925
-6.98917e-12
0.000344346
0.0169509
-1.9779e-11
0.000287567
0.0167218
-5.01726e-11
0.00242641
0.0163049
-1.32251e-10
0.0104418
0.0152267
5.01619e-12
0.0122519
0.0142518
5.99253e-12
0.011997
0.01337
1.51382e-12
0.0124074
0.0123713
1.20096e-12
0.013391
0.0113664
8.88361e-13
0.0148368
0.0102124
6.49927e-13
0.0166617
0.0085486
6.00167e-13
0.0191184
0.00603338
-6.72591e-13
0.0225282
2.86311e-12
0.0297734
0.0168001
1.4563e-10
1.30845e-16
0.0168001
8.01271e-10
-8.3924e-18
0.0168
2.96081e-09
-5.27463e-16
0.0168
7.55309e-09
-1.12195e-15
0.0168
2.09361e-08
-3.25713e-15
0.0167999
4.71954e-08
-6.37505e-15
0.0167997
1.29795e-07
-1.85132e-14
0.0167992
2.6018e-07
-2.77513e-14
0.0167973
8.83974e-07
-1.38705e-13
0.0167956
1.42602e-06
-1.14736e-13
0.016782
6.622e-06
-1.12307e-12
0.0167648
1.29627e-05
-1.38852e-12
0.0166785
6.00925e-05
-7.86156e-12
0.0164665
0.000166873
-1.83397e-11
0.015235
0.000975071
-5.82561e-11
0.0139114
0.00140926
1.91589e-11
0.0127085
0.00123617
5.66812e-12
0.0114857
0.00123889
1.21981e-12
0.0102093
0.00129672
1.47216e-12
0.00882237
0.00140647
2.93883e-12
0.00731945
0.00152287
4.60614e-12
0.00569472
0.00164871
5.6899e-12
0.00393315
0.0017763
7.10893e-12
0.00202731
0.00190289
8.69287e-12
0.00204228
9.91952e-12
0.0168001
2.97659e-10
1.30943e-16
0.0168001
1.61462e-09
-1.18441e-17
0.0168
5.982e-09
-5.31837e-16
0.0168
1.52789e-08
-1.13052e-15
0.0168
4.22273e-08
-3.2565e-15
0.0167999
9.59373e-08
-6.41408e-15
0.0167997
2.57903e-07
-1.85576e-14
0.0167992
5.38924e-07
-2.86258e-14
0.0167973
1.73933e-06
-1.37337e-13
0.0167957
2.70092e-06
-1.17175e-13
0.0167823
1.32779e-05
-1.09902e-12
0.0167661
2.48305e-05
-1.35873e-12
0.0166829
0.000117581
-7.66277e-12
0.0164808
0.000325185
-1.78236e-11
0.0153501
0.00185394
-5.68357e-11
0.0140335
0.00281146
1.8889e-11
0.0128534
0.00245248
6.13446e-12
0.011643
0.00246672
1.62446e-12
0.0103688
0.0025916
1.51677e-12
0.00895932
0.0028352
2.8015e-12
0.00741508
0.00308693
4.5381e-12
0.00574082
0.00334628
5.53616e-12
0.00392553
0.0036049
7.04518e-12
0.00198178
0.00384292
8.29554e-12
0.00403835
9.60452e-12
0.0168001
4.19363e-10
1.30859e-16
0.0168001
2.25859e-09
-1.44936e-17
0.0168
8.4468e-09
-3.66392e-16
0.0168
2.16032e-08
-1.20119e-15
0.0168
6.02419e-08
-3.46345e-15
0.0167999
1.38057e-07
-7.10468e-15
0.0167997
3.67899e-07
-1.88228e-14
0.0167993
8.10072e-07
-3.61429e-14
0.0167977
2.36696e-06
-1.26518e-13
0.0167957
4.19075e-06
-1.33304e-13
0.0167848
1.77795e-05
-1.01467e-12
0.0167718
3.32896e-05
-1.31506e-12
0.0167055
0.000159298
-7.1082e-12
0.0165532
0.000437437
-1.66103e-11
0.0157391
0.00242784
-5.33012e-11
0.0144614
0.00416513
1.62127e-11
0.0132254
0.00372765
6.20635e-12
0.0119822
0.0037314
2.06312e-12
0.0106764
0.0039201
2.07763e-12
0.00923122
0.00429792
2.64729e-12
0.00763723
0.00469866
4.32166e-12
0.00590557
0.00509986
5.05927e-12
0.00402853
0.00549389
6.44002e-12
0.00202946
0.00583632
7.37561e-12
0.00608037
8.64915e-12
0.0168001
5.00756e-10
1.35214e-16
0.0168001
2.71749e-09
1.08496e-17
0.0168001
1.01559e-08
-4.86204e-16
0.0168
2.60078e-08
-1.05394e-15
0.0168
7.22919e-08
-3.09204e-15
0.0168
1.65379e-07
-6.36536e-15
0.0167998
4.38969e-07
-1.58885e-14
0.0167995
9.69104e-07
-3.28527e-14
0.0167983
2.70227e-06
-1.09521e-13
0.0167965
5.52818e-06
-1.28945e-13
0.0167896
1.93036e-05
-8.64893e-13
0.0167818
3.71772e-05
-9.45845e-13
0.0167493
0.000170868
-6.26577e-12
0.0166738
0.000468418
-1.40754e-11
0.0164058
0.00249194
-4.48581e-11
0.0151554
0.00547434
8.31546e-12
0.0137441
0.00517588
4.35602e-12
0.0124119
0.00507674
2.59926e-12
0.0110605
0.00528629
2.8204e-12
0.00958758
0.00578739
2.63045e-12
0.00794861
0.00635046
4.46852e-12
0.00616525
0.00690169
4.77483e-12
0.0042234
0.00744676
5.43215e-12
0.00213706
0.00791711
5.92641e-12
0.00822737
7.0571e-12
0.0168001
5.97744e-10
1.39381e-16
0.0168001
3.24499e-09
4.85612e-17
0.0168001
1.21169e-08
-2.75305e-16
0.0168
3.10267e-08
-8.79273e-16
0.0168
8.59735e-08
-2.58305e-15
0.0168
1.96557e-07
-5.31749e-15
0.0167998
5.17586e-07
-1.36966e-14
0.0167995
1.15171e-06
-3.08742e-14
0.0167984
3.07578e-06
-8.29315e-14
0.0167965
6.77287e-06
-1.56427e-13
0.0167924
1.95963e-05
-5.38004e-13
0.0167793
4.56349e-05
-9.69832e-13
0.0167726
0.000162224
-3.90107e-12
0.0167614
0.00044704
-9.71963e-12
0.0169922
0.00215976
-2.57935e-11
0.0156768
0.00672072
-1.14097e-11
0.0141196
0.00671911
-9.06149e-13
0.0127447
0.00645905
3.16254e-12
0.0113984
0.00664727
3.54367e-12
0.00992971
0.00726667
3.52637e-12
0.00829546
0.00799514
4.13088e-12
0.0064945
0.00871934
4.14904e-12
0.00449885
0.00945033
4.48111e-12
0.00230206
0.0101056
4.68582e-12
0.0105365
5.42701e-12
0.0168001
7.09496e-10
1.43134e-16
0.0168001
3.88748e-09
7.96762e-17
0.0168001
1.44708e-08
-2.28731e-16
0.0168
3.72396e-08
-7.20046e-16
0.0168
1.02343e-07
-2.0882e-15
0.0168
2.34661e-07
-4.2827e-15
0.0167998
6.10254e-07
-1.17512e-14
0.0167995
1.36359e-06
-2.49537e-14
0.0167984
3.56924e-06
-6.74331e-14
0.0167967
7.92682e-06
-1.32244e-13
0.0167911
2.21267e-05
-4.1365e-13
0.0167825
5.04513e-05
-8.67838e-13
0.0167597
0.000170646
-2.9302e-12
0.016737
0.000459894
-7.36949e-12
0.01666
0.00213024
-2.18757e-11
0.0156791
0.00758305
-2.28188e-11
0.0142293
0.00813789
-7.15027e-12
0.012961
0.00774435
4.21926e-12
0.0117048
0.00792503
4.50669e-12
0.0102838
0.00870065
3.13557e-12
0.00867335
0.00961291
3.40527e-12
0.00687643
0.0105307
3.72537e-12
0.00484384
0.0114892
3.88189e-12
0.00252558
0.0124025
3.50179e-12
0.0130648
3.87831e-12
0.0168001
9.34033e-10
1.44688e-16
0.0168001
4.98967e-09
9.0292e-17
0.0168001
1.86535e-08
-3.07293e-16
0.0168
4.75952e-08
-6.63052e-16
0.0168
1.32575e-07
-1.91043e-15
0.0167999
3.04448e-07
-3.90063e-15
0.0167996
7.9167e-07
-1.11576e-14
0.0167991
1.85448e-06
-2.25269e-14
0.0167979
4.28437e-06
-6.15439e-14
0.0167935
1.17323e-05
-1.22284e-13
0.0167908
2.23126e-05
-3.36712e-13
0.0167695
6.75692e-05
-9.25218e-13
0.016754
0.000173014
-1.96167e-12
0.0166983
0.000513544
-7.16416e-12
0.0166083
0.00214556
-1.56845e-11
0.015542
0.0085263
-2.39995e-11
0.0143023
0.0093465
-9.73404e-12
0.0131993
0.00886874
7.52146e-12
0.011984
0.00915866
4.76939e-12
0.0106807
0.0100124
1.80704e-12
0.00914749
0.0111543
2.66599e-12
0.00737747
0.0123128
3.27114e-12
0.00530551
0.0135671
3.13699e-12
0.00287452
0.0148193
2.35769e-12
0.015939
2.3253e-12
0.0168001
9.38003e-10
1.45827e-16
0.0168001
5.09144e-09
1.04529e-16
0.0168001
1.90332e-08
-2.1102e-16
0.0168001
4.89235e-08
-6.37799e-16
0.0168
1.35317e-07
-1.94791e-15
0.0168
3.12789e-07
-4.17916e-15
0.0167999
8.03322e-07
-1.16568e-14
0.0167998
1.89693e-06
-2.98788e-14
0.0167992
4.44421e-06
-5.37786e-14
0.0167989
1.11516e-05
-1.92042e-13
0.0167939
2.52422e-05
-2.00989e-13
0.0167912
6.53417e-05
-9.52689e-13
0.0167719
0.000179964
-1.65441e-12
0.0167198
0.000570082
-5.61518e-12
0.0166411
0.0021616
-1.40753e-11
0.0155902
0.00944396
-2.59444e-11
0.0147662
0.0101606
-5.45013e-13
0.0135949
0.0100509
5.27715e-12
0.0123129
0.0104533
4.2936e-12
0.0110862
0.0112476
3.24035e-12
0.00968847
0.0125571
2.64957e-12
0.00801758
0.0139917
3.07687e-12
0.00598284
0.0156035
2.96675e-12
0.00340415
0.0173834
1.77913e-12
0.0193411
1.87522e-12
0.0168001
1.02463e-09
1.49173e-16
0.0168001
4.75107e-09
1.2514e-16
0.0168001
1.86616e-08
-1.71943e-16
0.0168001
4.56125e-08
-5.08488e-16
0.0168001
1.30591e-07
-1.47451e-15
0.0168001
2.89827e-07
-3.04327e-15
0.0168
7.72722e-07
-8.62733e-15
0.0168002
1.68821e-06
-1.80297e-14
0.0167998
4.48668e-06
-4.40999e-14
0.0168016
8.93399e-06
-9.58794e-14
0.0167954
2.93925e-05
-2.79887e-13
0.0168046
5.31544e-05
-6.16059e-13
0.016764
0.000211646
-1.44236e-12
0.016764
0.000555736
-5.66127e-12
0.0166462
0.00223707
-1.43079e-11
0.0157923
0.0101634
-3.33336e-11
0.0147893
0.0111642
2.71656e-12
0.0138388
0.0110101
4.73383e-12
0.0127837
0.0115164
3.75847e-12
0.0116586
0.0123827
3.49316e-12
0.0103956
0.013824
3.22928e-12
0.0088925
0.0155016
2.99255e-12
0.00705143
0.0174507
2.69314e-12
0.00440548
0.0200224
1.59283e-12
0.023744
1.45062e-12
0.0168001
1.52599e-16
1.49702e-09
0.0168001
1.4229e-16
1.18078e-09
0.0168001
-1.54729e-16
1.98199e-08
0.0168001
-4.15833e-16
1.55478e-08
0.0168001
-1.19627e-15
1.35498e-07
0.0168003
-2.44016e-15
9.77477e-08
0.0168001
-7.06749e-15
8.42647e-07
0.0168013
-1.38869e-14
4.3921e-07
0.0167995
-3.94529e-14
5.98175e-06
0.0168071
-7.61706e-14
1.05782e-06
0.0167881
-2.61753e-13
4.64388e-05
0.0168347
-4.63343e-13
4.75264e-06
0.0166925
-1.7081e-12
0.000344347
0.0169509
-4.80195e-12
0.000287569
0.0167218
-1.14727e-11
0.00242641
0.0163049
-2.92178e-11
0.0104419
0.0152267
5.03635e-12
0.0122519
0.0142518
5.08554e-12
0.011997
0.01337
3.95918e-12
0.0124074
0.0123713
3.84874e-12
0.013391
0.0113664
3.72454e-12
0.0148368
0.0102124
3.48269e-12
0.0166617
0.0085486
2.91419e-12
0.0191184
0.00603339
1.68967e-12
0.0225282
1.35358e-12
0.0297734
0.0168001
1.45629e-10
-5.40932e-17
0.0168001
8.0127e-10
-2.09176e-16
0.0168
2.96081e-09
-5.98063e-16
0.0168
7.55308e-09
-1.14937e-15
0.0168
2.09361e-08
-3.24389e-15
0.0167999
4.71954e-08
-6.04651e-15
0.0167997
1.29795e-07
-2.09652e-14
0.0167992
2.60179e-07
-2.6386e-14
0.0167973
8.83974e-07
-1.87099e-13
0.0167956
1.42602e-06
-8.9237e-14
0.016782
6.62201e-06
-1.66561e-12
0.0167648
1.29628e-05
-1.85604e-12
0.0166785
6.00928e-05
-1.19201e-11
0.0164665
0.000166873
-2.90271e-11
0.015235
0.000975074
-9.72261e-11
0.0139114
0.00140926
2.51507e-11
0.0127085
0.00123617
9.71423e-12
0.0114856
0.00123889
3.38472e-12
0.0102093
0.00129672
3.77303e-12
0.00882235
0.00140647
6.32499e-12
0.00731944
0.00152287
7.28238e-12
0.00569471
0.00164871
8.41582e-12
0.00393315
0.0017763
7.57509e-12
0.0020273
0.00190289
7.11283e-12
0.00204228
7.5563e-12
0.0168001
2.97659e-10
-5.8668e-17
0.0168001
1.61463e-09
-2.24845e-16
0.0168
5.98201e-09
-6.25004e-16
0.0168
1.52789e-08
-1.20018e-15
0.0168
4.22273e-08
-3.31473e-15
0.0167999
9.59372e-08
-6.17636e-15
0.0167997
2.57904e-07
-2.12835e-14
0.0167992
5.38921e-07
-2.79261e-14
0.0167973
1.73933e-06
-1.85618e-13
0.0167957
2.70092e-06
-9.66554e-14
0.0167823
1.32779e-05
-1.62627e-12
0.0167661
2.48306e-05
-1.8203e-12
0.0166829
0.000117582
-1.15969e-11
0.0164808
0.000325187
-2.81699e-11
0.0153501
0.00185395
-9.46107e-11
0.0140335
0.00281146
2.44679e-11
0.0128534
0.00245248
1.0003e-11
0.011643
0.00246672
3.20655e-12
0.0103688
0.0025916
3.47447e-12
0.00895931
0.0028352
5.85036e-12
0.00741507
0.00308692
6.96224e-12
0.00574081
0.00334628
8.24439e-12
0.00392553
0.0036049
7.35129e-12
0.00198178
0.00384292
6.97182e-12
0.00403834
7.25748e-12
0.0168001
4.19366e-10
-6.48006e-17
0.0168001
2.25861e-09
-2.41274e-16
0.0168
8.44686e-09
-6.96689e-16
0.0168
2.16034e-08
-1.37835e-15
0.0168
6.02422e-08
-3.77891e-15
0.0167999
1.38058e-07
-7.52431e-15
0.0167997
3.67901e-07
-2.24015e-14
0.0167993
8.10076e-07
-4.18295e-14
0.0167977
2.36697e-06
-1.70001e-13
0.0167957
4.19077e-06
-1.22646e-13
0.0167848
1.77796e-05
-1.50716e-12
0.0167718
3.32899e-05
-1.74575e-12
0.0167055
0.000159299
-1.0756e-11
0.0165532
0.00043744
-2.61634e-11
0.0157391
0.00242785
-8.88339e-11
0.0144614
0.00416513
1.99224e-11
0.0132254
0.00372765
9.41264e-12
0.0119822
0.0037314
2.91652e-12
0.0106764
0.0039201
3.02619e-12
0.00923122
0.00429792
5.03015e-12
0.00763723
0.00469865
6.29683e-12
0.00590556
0.00509985
7.8895e-12
0.00402853
0.00549389
7.05923e-12
0.00202946
0.00583631
6.64168e-12
0.00608037
6.82955e-12
0.0168001
5.00758e-10
-5.96684e-17
0.0168001
2.71751e-09
-2.21151e-16
0.0168001
1.0156e-08
-6.54938e-16
0.0168
2.60079e-08
-1.2896e-15
0.0168
7.22922e-08
-3.61204e-15
0.0168
1.6538e-07
-7.2115e-15
0.0167998
4.38972e-07
-2.13877e-14
0.0167995
9.69108e-07
-4.14969e-14
0.0167983
2.70229e-06
-1.47855e-13
0.0167965
5.52818e-06
-1.69348e-13
0.0167896
1.93038e-05
-1.23615e-12
0.0167818
3.71774e-05
-1.37656e-12
0.0167493
0.00017087
-9.29487e-12
0.0166738
0.000468423
-2.2199e-11
0.0164058
0.00249198
-7.78601e-11
0.0151554
0.00547434
7.14737e-12
0.013744
0.00517587
5.87182e-12
0.0124119
0.00507674
2.43161e-12
0.0110605
0.00528629
2.62162e-12
0.00958757
0.00578739
4.35405e-12
0.00794861
0.00635046
5.34523e-12
0.00616525
0.00690168
7.03182e-12
0.0042234
0.00744676
6.52722e-12
0.00213706
0.0079171
6.15375e-12
0.00822736
6.40081e-12
0.0168001
5.97746e-10
-5.22484e-17
0.0168001
3.245e-09
-1.94951e-16
0.0168001
1.21169e-08
-5.73343e-16
0.0168
3.10268e-08
-1.12285e-15
0.0168
8.59738e-08
-3.10548e-15
0.0168
1.96557e-07
-6.17919e-15
0.0167998
5.17588e-07
-1.80712e-14
0.0167995
1.15171e-06
-3.62241e-14
0.0167984
3.0758e-06
-1.117e-13
0.0167965
6.7729e-06
-2.11676e-13
0.0167924
1.95964e-05
-7.68601e-13
0.0167793
4.5635e-05
-1.40367e-12
0.0167726
0.000162225
-5.7422e-12
0.0167614
0.000447043
-1.52622e-11
0.0169922
0.00215978
-4.30841e-11
0.0156768
0.00672074
-2.37964e-11
0.0141196
0.00671911
-3.65356e-12
0.0127447
0.00645904
1.79092e-12
0.0113984
0.00664727
2.19727e-12
0.00992971
0.00726667
3.36214e-12
0.00829546
0.00799514
4.31409e-12
0.0064945
0.00871934
6.19207e-12
0.00449885
0.00945033
5.9645e-12
0.00230206
0.0101056
5.58457e-12
0.0105365
5.95248e-12
0.0168001