/*--------------------------------*- C++ -*----------------------------------*\
| =========                 |                                                 |
| \\      /  F ield         | OpenFOAM: The Open Source CFD Toolbox           |
|  \\    /   O peration     | Version:  4.1                                   |
|   \\  /    A nd           | Web:      www.OpenFOAM.org                      |
|    \\/     M anipulation  |                                                 |
\*---------------------------------------------------------------------------*/
FoamFile
{
    version     2.0;
    format      ascii;
    class       volScalarField;
    location    "2";
    object      T;
}
// * * * * * * * * * * * * * * * * * * * * * * * * * * * * * * * * * * * * * //

dimensions      [0 0 0 1 0 0 0];

internalField   nonuniform List<scalar> 
52500
(
0.999995
1.00001
1.00003
1.00012
1.00023
1.00075
1.00138
1.00425
1.00843
1.02284
1.05747
1.13303
1.39772
2.07866
2.64202
2.74765
2.74087
2.7305
2.74482
2.75411
2.76833
2.77358
2.77872
2.79861
2.82064
0.999995
1.00001
1.00003
1.00012
1.00023
1.00074
1.00136
1.00421
1.00828
1.02263
1.05618
1.13101
1.38901
2.06134
2.63605
2.74689
2.7397
2.72849
2.74282
2.75209
2.76626
2.77136
2.77664
2.79623
2.81764
0.999995
1.00001
1.00003
1.00012
1.00022
1.00072
1.00132
1.00412
1.00799
1.02226
1.05352
1.12701
1.37067
2.02403
2.61975
2.74387
2.73653
2.72359
2.73808
2.74762
2.76303
2.76874
2.77403
2.79372
2.81382
0.999995
1.00001
1.00003
1.00011
1.00021
1.00069
1.00127
1.00395
1.00761
1.02155
1.05005
1.12171
1.34523
1.97014
2.59516
2.73676
2.72741
2.7146
2.73196
2.74033
2.75538
2.7625
2.76837
2.7884
2.80905
0.999995
1.00001
1.00003
1.00011
1.0002
1.00066
1.0012
1.00377
1.0072
1.02067
1.04652
1.11684
1.31705
1.92581
2.54326
2.72862
2.72233
2.70882
2.72542
2.73391
2.74984
2.75456
2.75828
2.77626
2.79762
0.999995
1.00001
1.00002
1.0001
1.00019
1.00062
1.00113
1.00354
1.00676
1.01942
1.04356
1.10928
1.29616
1.85978
2.52461
2.72482
2.71802
2.70367
2.71792
2.72381
2.73811
2.74618
2.74993
2.76529
2.78727
0.999995
1.00001
1.00002
1.00009
1.00017
1.00057
1.00105
1.0033
1.00626
1.01813
1.0404
1.1012
1.27529
1.7888
2.49726
2.71509
2.70444
2.6961
2.71058
2.71485
2.72354
2.72795
2.73196
2.75046
2.76534
0.999994
1.00001
1.00002
1.00008
1.00015
1.00051
1.00093
1.00287
1.0057
1.01543
1.03826
1.08891
1.26119
1.67898
2.45899
2.70055
2.69647
2.69115
2.69712
2.70376
2.71282
2.71513
2.71267
2.72193
2.7404
0.999994
1.00001
1.00002
1.00007
1.00013
1.00044
1.00083
1.00245
1.00514
1.01325
1.03517
1.07897
1.24218
1.59043
2.38497
2.67679
2.6927
2.68834
2.68428
2.68782
2.69148
2.69182
2.68983
2.68865
2.6824
0.999994
1
1.00001
1.00006
1.00011
1.00037
1.00072
1.002
1.00456
1.0111
1.03107
1.06755
1.21672
1.50665
2.26648
2.62254
2.68354
2.68119
2.67475
2.6768
2.67484
2.66795
2.64827
2.63395
2.60133
1
1.00002
1.00004
1.00013
1.00024
1.00076
1.00138
1.00426
1.00844
1.02287
1.05748
1.13308
1.39781
2.07893
2.64213
2.74773
2.74095
2.73058
2.74491
2.75419
2.7684
2.77366
2.77879
2.79867
2.82073
1
1.00002
1.00004
1.00013
1.00023
1.00075
1.00136
1.00422
1.00829
1.02266
1.0562
1.13106
1.3891
2.0616
2.63615
2.74696
2.73979
2.72857
2.74291
2.75217
2.76633
2.77143
2.77671
2.79629
2.81772
1
1.00002
1.00004
1.00013
1.00023
1.00073
1.00133
1.00413
1.008
1.02228
1.05353
1.12706
1.37076
2.02429
2.61985
2.74394
2.73661
2.72368
2.73817
2.7477
2.7631
2.76881
2.7741
2.79378
2.8139
1
1.00002
1.00004
1.00012
1.00022
1.0007
1.00127
1.00396
1.00762
1.02157
1.05007
1.12175
1.34533
1.97035
2.59529
2.73686
2.7275
2.71468
2.73204
2.7404
2.75545
2.76258
2.76845
2.78846
2.80913
1
1.00002
1.00003
1.00012
1.00021
1.00067
1.00121
1.00378
1.00721
1.02068
1.04653
1.11688
1.31711
1.92596
2.54339
2.72867
2.72239
2.70888
2.7255
2.73398
2.74991
2.75463
2.75835
2.77631
2.79769
1
1.00002
1.00003
1.00011
1.0002
1.00063
1.00114
1.00355
1.00676
1.01944
1.04358
1.10932
1.2962
1.85995
2.52467
2.72489
2.71809
2.70373
2.718
2.72389
2.73818
2.74625
2.75
2.76533
2.78735
1
1.00002
1.00003
1.0001
1.00018
1.00058
1.00106
1.00331
1.00627
1.01814
1.04041
1.10124
1.27531
1.789
2.49735
2.71516
2.70452
2.69614
2.71064
2.71492
2.72361
2.72803
2.73203
2.75051
2.76541
1
1.00001
1.00003
1.00009
1.00016
1.00052
1.00094
1.00288
1.00571
1.01546
1.03827
1.08894
1.26118
1.67914
2.45908
2.70062
2.69653
2.69121
2.69718
2.70382
2.71288
2.7152
2.71273
2.72197
2.74047
1
1.00001
1.00002
1.00008
1.00014
1.00045
1.00083
1.00246
1.00515
1.01326
1.03518
1.079
1.2422
1.59055
2.38509
2.67687
2.69275
2.6884
2.68434
2.68789
2.69153
2.69188
2.6899
2.6887
2.68246
1
1.00001
1.00002
1.00007
1.00012
1.00038
1.00073
1.00201
1.00457
1.01111
1.03108
1.06758
1.21675
1.50678
2.26661
2.62263
2.68359
2.68125
2.67481
2.67686
2.67489
2.66801
2.64832
2.63399
2.60137
1
1.00002
1.00004
1.00013
1.00024
1.00076
1.00138
1.00426
1.00844
1.02287
1.05748
1.13308
1.39781
2.07893
2.64213
2.74773
2.74095
2.73058
2.74491
2.75419
2.7684
2.77366
2.77879
2.79867
2.82073
1
1.00002
1.00004
1.00013
1.00023
1.00075
1.00136
1.00422
1.00829
1.02266
1.0562
1.13106
1.38911
2.06161
2.63615
2.74696
2.73979
2.72857
2.74291
2.75217
2.76633
2.77143
2.77671
2.79628
2.81772
1
1.00002
1.00004
1.00013
1.00023
1.00073
1.00133
1.00413
1.008
1.02228
1.05353
1.12706
1.37077
2.0243
2.61986
2.74394
2.73661
2.72368
2.73817
2.7477
2.7631
2.76881
2.7741
2.79377
2.8139
1
1.00002
1.00004
1.00012
1.00022
1.0007
1.00127
1.00396
1.00762
1.02157
1.05007
1.12175
1.34533
1.97035
2.59529
2.73687
2.7275
2.71468
2.73204
2.7404
2.75545
2.76258
2.76845
2.78845
2.80913
1
1.00002
1.00003
1.00012
1.00021
1.00067
1.00121
1.00378
1.00721
1.02068
1.04653
1.11688
1.31711
1.92597
2.54339
2.72867
2.72239
2.70888
2.7255
2.73398
2.74991
2.75463
2.75835
2.77631
2.7977
1
1.00002
1.00003
1.00011
1.0002
1.00063
1.00114
1.00355
1.00676
1.01944
1.04358
1.10932
1.2962
1.85996
2.52467
2.72489
2.71809
2.70373
2.718
2.72389
2.73818
2.74625
2.75
2.76533
2.78735
1
1.00002
1.00003
1.0001
1.00018
1.00058
1.00106
1.00331
1.00627
1.01814
1.04041
1.10124
1.27531
1.78901
2.49736
2.71516
2.70452
2.69614
2.71064
2.71493
2.72361
2.72803
2.73203
2.75051
2.76541
1
1.00001
1.00003
1.00009
1.00016
1.00052
1.00094
1.00288
1.00571
1.01546
1.03827
1.08894
1.26118
1.67914
2.45909
2.70062
2.69653
2.69121
2.69718
2.70382
2.71288
2.7152
2.71273
2.72197
2.74047
1
1.00001
1.00002
1.00008
1.00014
1.00045
1.00083
1.00246
1.00515
1.01326
1.03518
1.079
1.2422
1.59055
2.38509
2.67687
2.69275
2.6884
2.68434
2.68789
2.69153
2.69188
2.6899
2.6887
2.68246
1
1.00001
1.00002
1.00007
1.00012
1.00038
1.00073
1.00201
1.00457
1.01111
1.03108
1.06758
1.21676
1.50678
2.26661
2.62263
2.68359
2.68125
2.67481
2.67686
2.67489
2.66801
2.64832
2.63399
2.60137
1
1.00002
1.00004
1.00013
1.00024
1.00076
1.00138
1.00426
1.00844
1.02287
1.05748
1.13308
1.39781
2.07893
2.64213
2.74773
2.74095
2.73058
2.74491
2.75419
2.7684
2.77366
2.77879
2.79866
2.82073
1
1.00002
1.00004
1.00013
1.00023
1.00075
1.00136
1.00422
1.00829
1.02266
1.0562
1.13106
1.38911
2.06161
2.63615
2.74696
2.73979
2.72857
2.74291
2.75217
2.76633
2.77143
2.77671
2.79628
2.81772
1
1.00002
1.00004
1.00013
1.00023
1.00073
1.00133
1.00413
1.008
1.02228
1.05354
1.12706
1.37077
2.0243
2.61986
2.74394
2.73661
2.72368
2.73817
2.7477
2.7631
2.76881
2.7741
2.79377
2.8139
1
1.00002
1.00004
1.00012
1.00022
1.0007
1.00127
1.00396
1.00762
1.02157
1.05007
1.12175
1.34533
1.97035
2.59529
2.73687
2.7275
2.71468
2.73204
2.7404
2.75545
2.76258
2.76845
2.78845
2.80913
1
1.00002
1.00003
1.00012
1.00021
1.00067
1.00121
1.00378
1.00721
1.02068
1.04653
1.11688
1.31711
1.92597
2.54339
2.72867
2.72239
2.70888
2.7255
2.73398
2.74991
2.75463
2.75835
2.77631
2.7977
1
1.00002
1.00003
1.00011
1.0002
1.00063
1.00114
1.00355
1.00676
1.01944
1.04358
1.10932
1.2962
1.85996
2.52467
2.72489
2.71809
2.70373
2.718
2.72389
2.73818
2.74625
2.75
2.76533
2.78735
1
1.00002
1.00003
1.0001
1.00018
1.00058
1.00106
1.00331
1.00627
1.01814
1.04041
1.10124
1.27531
1.78901
2.49736
2.71516
2.70452
2.69614
2.71064
2.71493
2.72361
2.72803
2.73203
2.75051
2.76541
1
1.00001
1.00003
1.00009
1.00016
1.00052
1.00094
1.00288
1.00571
1.01546
1.03827
1.08894
1.26118
1.67914
2.45909
2.70062
2.69653
2.69121
2.69718
2.70382
2.71288
2.7152
2.71273
2.72197
2.74047
1
1.00001
1.00002
1.00008
1.00014
1.00045
1.00083
1.00246
1.00515
1.01326
1.03518
1.079
1.2422
1.59055
2.38509
2.67687
2.69275
2.6884
2.68434
2.68789
2.69153
2.69188
2.6899
2.6887
2.68246
1
1.00001
1.00002
1.00007
1.00012
1.00038
1.00073
1.00201
1.00457
1.01111
1.03108
1.06758
1.21676
1.50678
2.26661
2.62263
2.68359
2.68125
2.67481
2.67686
2.67489
2.66801
2.64832
2.63399
2.60137
1
1.00002
1.00004
1.00013
1.00024
1.00076
1.00138
1.00426
1.00844
1.02287
1.05748
1.13308
1.39781
2.07894
2.64213
2.74773
2.74095
2.73059
2.74491
2.75419
2.7684
2.77366
2.77879
2.79866
2.82073
1
1.00002
1.00004
1.00013
1.00023
1.00075
1.00136
1.00422
1.00829
1.02266
1.0562
1.13106
1.38911
2.06161
2.63615
2.74696
2.73979
2.72857
2.74291
2.75217
2.76633
2.77143
2.77671
2.79628
2.81772
1
1.00002
1.00004
1.00013
1.00023
1.00073
1.00133
1.00413
1.008
1.02228
1.05354
1.12706
1.37077
2.0243
2.61986
2.74394
2.73661
2.72368
2.73817
2.7477
2.7631
2.76881
2.7741
2.79377
2.8139
1
1.00002
1.00004
1.00012
1.00022
1.0007
1.00127
1.00396
1.00762
1.02157
1.05007
1.12176
1.34533
1.97035
2.59529
2.73687
2.7275
2.71468
2.73204
2.7404
2.75545
2.76258
2.76845
2.78845
2.80913
1
1.00002
1.00003
1.00012
1.00021
1.00067
1.00121
1.00378
1.00721
1.02068
1.04653
1.11688
1.31711
1.92597
2.54339
2.72867
2.72239
2.70888
2.7255
2.73398
2.74991
2.75463
2.75835
2.77631
2.7977
1
1.00002
1.00003
1.00011
1.0002
1.00063
1.00114
1.00355
1.00676
1.01944
1.04358
1.10932
1.2962
1.85996
2.52467
2.72489
2.71809
2.70373
2.718
2.72389
2.73818
2.74625
2.75
2.76533
2.78735
1
1.00002
1.00003
1.0001
1.00018
1.00058
1.00106
1.00331
1.00627
1.01814
1.04041
1.10124
1.27531
1.78901
2.49736
2.71516
2.70452
2.69614
2.71064
2.71493
2.72361
2.72803
2.73203
2.75051
2.76541
1
1.00001
1.00003
1.00009
1.00016
1.00052
1.00094
1.00288
1.00571
1.01546
1.03827
1.08894
1.26118
1.67914
2.45909
2.70062
2.69653
2.69121
2.69718
2.70382
2.71288
2.7152
2.71273
2.72197
2.74047
1
1.00001
1.00002
1.00008
1.00014
1.00045
1.00083
1.00246
1.00515
1.01326
1.03518
1.079
1.2422
1.59055
2.3851
2.67687
2.69275
2.6884
2.68434
2.68789
2.69153
2.69188
2.6899
2.6887
2.68246
1
1.00001
1.00002
1.00007
1.00012
1.00038
1.00073
1.00201
1.00457
1.01111
1.03108
1.06758
1.21676
1.50678
2.26662
2.62263
2.68359
2.68125
2.67481
2.67686
2.67489
2.66801
2.64832
2.63399
2.60137
1
1.00002
1.00004
1.00013
1.00024
1.00076
1.00138
1.00426
1.00844
1.02287
1.05748
1.13308
1.39781
2.07894
2.64213
2.74773
2.74095
2.73058
2.74491
2.75419
2.7684
2.77366
2.77879
2.79866
2.82073
1
1.00002
1.00004
1.00013
1.00023
1.00075
1.00136
1.00422
1.00829
1.02266
1.0562
1.13106
1.38911
2.06161
2.63615
2.74696
2.73979
2.72857
2.74291
2.75217
2.76633
2.77143
2.77671
2.79628
2.81772
1
1.00002
1.00004
1.00013
1.00023
1.00073
1.00133
1.00413
1.008
1.02228
1.05354
1.12706
1.37077
2.0243
2.61986
2.74394
2.73661
2.72368
2.73817
2.7477
2.7631
2.76881
2.7741
2.79377
2.8139
1
1.00002
1.00004
1.00012
1.00022
1.0007
1.00127
1.00396
1.00762
1.02157
1.05007
1.12175
1.34533
1.97035
2.59529
2.73687
2.7275
2.71468
2.73204
2.7404
2.75545
2.76258
2.76845
2.78845
2.80913
1
1.00002
1.00003
1.00012
1.00021
1.00067
1.00121
1.00378
1.00721
1.02068
1.04653
1.11688
1.31711
1.92597
2.54339
2.72867
2.72239
2.70888
2.7255
2.73398
2.74991
2.75463
2.75835
2.77631
2.7977
1
1.00002
1.00003
1.00011
1.0002
1.00063
1.00114
1.00355
1.00676
1.01944
1.04358
1.10932
1.2962
1.85996
2.52467
2.72489
2.71809
2.70373
2.718
2.72389
2.73818
2.74625
2.75
2.76533
2.78735
1
1.00002
1.00003
1.0001
1.00018
1.00058
1.00106
1.00331
1.00627
1.01814
1.04041
1.10124
1.27531
1.78901
2.49736
2.71516
2.70452
2.69614
2.71064
2.71493
2.72361
2.72803
2.73203
2.75051
2.76541
1
1.00001
1.00003
1.00009
1.00016
1.00052
1.00094
1.00288
1.00571
1.01546
1.03827
1.08894
1.26118
1.67914
2.45909
2.70062
2.69653
2.69121
2.69718
2.70382
2.71288
2.7152
2.71273
2.72197
2.74047
1
1.00001
1.00002
1.00008
1.00014
1.00045
1.00083
1.00246
1.00515
1.01326
1.03518
1.079
1.2422
1.59055
2.3851
2.67687
2.69275
2.6884
2.68434
2.68789
2.69153
2.69188
2.6899
2.6887
2.68246
1
1.00001
1.00002
1.00007
1.00012
1.00038
1.00073
1.00201
1.00457
1.01111
1.03108
1.06758
1.21676
1.50678
2.26661
2.62263
2.68359
2.68125
2.67481
2.67686
2.67489
2.66801
2.64832
2.63399
2.60137
1
1.00002
1.00004
1.00013
1.00024
1.00076
1.00138
1.00426
1.00844
1.02287
1.05748
1.13308
1.39781
2.07893
2.64213
2.74773
2.74095
2.73058
2.74491
2.75419
2.7684
2.77366
2.77879
2.79866
2.82073
1
1.00002
1.00004
1.00013
1.00023
1.00075
1.00136
1.00422
1.00829
1.02266
1.0562
1.13106
1.38911
2.06161
2.63615
2.74696
2.73979
2.72857
2.74291
2.75217
2.76633
2.77143
2.77671
2.79628
2.81772
1
1.00002
1.00004
1.00013
1.00023
1.00073
1.00133
1.00413
1.008
1.02228
1.05354
1.12706
1.37077
2.0243
2.61986
2.74394
2.73661
2.72368
2.73817
2.7477
2.7631
2.76881
2.7741
2.79377
2.8139
1
1.00002
1.00004
1.00012
1.00022
1.0007
1.00127
1.00396
1.00762
1.02157
1.05007
1.12175
1.34533
1.97035
2.59529
2.73687
2.7275
2.71468
2.73204
2.7404
2.75545
2.76258
2.76845
2.78845
2.80913
1
1.00002
1.00003
1.00012
1.00021
1.00067
1.00121
1.00378
1.00721
1.02068
1.04653
1.11688
1.31711
1.92597
2.54339
2.72867
2.72239
2.70888
2.7255
2.73398
2.74991
2.75463
2.75835
2.77631
2.7977
1
1.00002
1.00003
1.00011
1.0002
1.00063
1.00114
1.00355
1.00676
1.01944
1.04358
1.10932
1.2962
1.85996
2.52467
2.72489
2.71809
2.70373
2.718
2.72389
2.73818
2.74625
2.75
2.76533
2.78735
1
1.00002
1.00003
1.0001
1.00018
1.00058
1.00106
1.00331
1.00627
1.01814
1.04041
1.10124
1.27531
1.78901
2.49736
2.71516
2.70452
2.69614
2.71064
2.71493
2.72361
2.72803
2.73203
2.75051
2.76541
1
1.00001
1.00003
1.00009
1.00016
1.00052
1.00094
1.00288
1.00571
1.01546
1.03827
1.08894
1.26118
1.67914
2.45909
2.70062
2.69653
2.69121
2.69718
2.70382
2.71288
2.7152
2.71273
2.72197
2.74047
1
1.00001
1.00002
1.00008
1.00014
1.00045
1.00083
1.00246
1.00515
1.01326
1.03518
1.079
1.2422
1.59055
2.38509
2.67687
2.69275
2.6884
2.68434
2.68789
2.69153
2.69188
2.6899
2.6887
2.68246
1
1.00001
1.00002
1.00007
1.00012
1.00038
1.00073
1.00201
1.00457
1.01111
1.03108
1.06758
1.21676
1.50678
2.26661
2.62263
2.68359
2.68125
2.67481
2.67686
2.67489
2.66801
2.64832
2.63399
2.60137
1
1.00002
1.00004
1.00013
1.00024
1.00076
1.00138
1.00426
1.00844
1.02287
1.05748
1.13308
1.39781
2.07893
2.64213
2.74773
2.74095
2.73058
2.74491
2.75419
2.7684
2.77366
2.77879
2.79867
2.82073
1
1.00002
1.00004
1.00013
1.00023
1.00075
1.00136
1.00422
1.00829
1.02266
1.0562
1.13106
1.38911
2.06161
2.63615
2.74696
2.73979
2.72857
2.74291
2.75217
2.76633
2.77143
2.77671
2.79628
2.81772
1
1.00002
1.00004
1.00013
1.00023
1.00073
1.00133
1.00413
1.008
1.02228
1.05353
1.12706
1.37077
2.0243
2.61986
2.74394
2.73661
2.72368
2.73817
2.7477
2.7631
2.76881
2.7741
2.79377
2.8139
1
1.00002
1.00004
1.00012
1.00022
1.0007
1.00127
1.00396
1.00762
1.02157
1.05007
1.12175
1.34533
1.97035
2.59529
2.73687
2.7275
2.71468
2.73204
2.7404
2.75545
2.76258
2.76845
2.78845
2.80913
1
1.00002
1.00003
1.00012
1.00021
1.00067
1.00121
1.00378
1.00721
1.02068
1.04653
1.11688
1.31711
1.92597
2.54339
2.72867
2.72239
2.70888
2.7255
2.73398
2.74991
2.75463
2.75835
2.77631
2.7977
1
1.00002
1.00003
1.00011
1.0002
1.00063
1.00114
1.00355
1.00676
1.01944
1.04358
1.10932
1.2962
1.85996
2.52467
2.72489
2.71809
2.70373
2.718
2.72389
2.73818
2.74625
2.75
2.76533
2.78735
1
1.00002
1.00003
1.0001
1.00018
1.00058
1.00106
1.00331
1.00627
1.01814
1.04041
1.10124
1.27531
1.78901
2.49736
2.71516
2.70452
2.69614
2.71064
2.71493
2.72361
2.72803
2.73203
2.75051
2.76541
1
1.00001
1.00003
1.00009
1.00016
1.00052
1.00094
1.00288
1.00571
1.01546
1.03827
1.08894
1.26118
1.67914
2.45909
2.70062
2.69653
2.69121
2.69718
2.70382
2.71288
2.7152
2.71273
2.72197
2.74047
1
1.00001
1.00002
1.00008
1.00014
1.00045
1.00083
1.00246
1.00515
1.01326
1.03518
1.079
1.2422
1.59055
2.38509
2.67687
2.69275
2.6884
2.68434
2.68789
2.69153
2.69188
2.6899
2.6887
2.68246
1
1.00001
1.00002
1.00007
1.00012
1.00038
1.00073
1.00201
1.00457
1.01111
1.03108
1.06758
1.21676
1.50678
2.26661
2.62263
2.68359
2.68125
2.67481
2.67686
2.67489
2.66801
2.64832
2.63399
2.60137
1
1.00002
1.00004
1.00013
1.00024
1.00076
1.00138
1.00426
1.00844
1.02287
1.05748
1.13308
1.39781
2.07893
2.64213
2.74773
2.74095
2.73058
2.74491
2.75419
2.7684
2.77366
2.77879
2.79867
2.82073
1
1.00002
1.00004
1.00013
1.00023
1.00075
1.00136
1.00422
1.00829
1.02266
1.0562
1.13106
1.3891
2.0616
2.63615
2.74696
2.73979
2.72857
2.74291
2.75217
2.76633
2.77143
2.77671
2.79629
2.81772
1
1.00002
1.00004
1.00013
1.00023
1.00073
1.00133
1.00413
1.008
1.02228
1.05353
1.12706
1.37076
2.02429
2.61985
2.74394
2.73661
2.72368
2.73817
2.7477
2.7631
2.76881
2.7741
2.79378
2.8139
1
1.00002
1.00004
1.00012
1.00022
1.0007
1.00127
1.00396
1.00762
1.02157
1.05007
1.12175
1.34533
1.97035
2.59529
2.73686
2.7275
2.71468
2.73204
2.7404
2.75545
2.76258
2.76845
2.78846
2.80913
1
1.00002
1.00003
1.00012
1.00021
1.00067
1.00121
1.00378
1.00721
1.02068
1.04653
1.11688
1.31711
1.92596
2.54339
2.72867
2.72239
2.70888
2.7255
2.73398
2.74991
2.75463
2.75835
2.77631
2.79769
1
1.00002
1.00003
1.00011
1.0002
1.00063
1.00114
1.00355
1.00676
1.01944
1.04358
1.10932
1.2962
1.85995
2.52467
2.72489
2.71809
2.70373
2.718
2.72389
2.73818
2.74625
2.75
2.76533
2.78735
1
1.00002
1.00003
1.0001
1.00018
1.00058
1.00106
1.00331
1.00627
1.01814
1.04041
1.10124
1.27531
1.789
2.49735
2.71516
2.70452
2.69614
2.71064
2.71492
2.72361
2.72803
2.73203
2.75051
2.76541
1
1.00001
1.00003
1.00009
1.00016
1.00052
1.00094
1.00288
1.00571
1.01546
1.03827
1.08894
1.26118
1.67914
2.45908
2.70062
2.69653
2.69121
2.69718
2.70382
2.71288
2.7152
2.71273
2.72197
2.74047
1
1.00001
1.00002
1.00008
1.00014
1.00045
1.00083
1.00246
1.00515
1.01326
1.03518
1.079
1.2422
1.59055
2.38509
2.67687
2.69275
2.6884
2.68434
2.68789
2.69153
2.69188
2.6899
2.6887
2.68246
1
1.00001
1.00002
1.00007
1.00012
1.00038
1.00073
1.00201
1.00457
1.01111
1.03108
1.06758
1.21675
1.50678
2.26661
2.62263
2.68359
2.68125
2.67481
2.67686
2.67489
2.66801
2.64832
2.63399
2.60137
0.999995
1.00001
1.00003
1.00012
1.00023
1.00075
1.00138
1.00425
1.00843
1.02284
1.05747
1.13303
1.39772
2.07866
2.64202
2.74765
2.74087
2.7305
2.74482
2.75411
2.76833
2.77358
2.77872
2.79861
2.82065
0.999995
1.00001
1.00003
1.00012
1.00023
1.00074
1.00136
1.00421
1.00828
1.02263
1.05618
1.13101
1.38901
2.06134
2.63605
2.74689
2.7397
2.72849
2.74282
2.75209
2.76626
2.77135
2.77664
2.79623
2.81764
0.999995
1.00001
1.00003
1.00012
1.00022
1.00072
1.00132
1.00412
1.00799
1.02226
1.05352
1.12701
1.37067
2.02403
2.61975
2.74387
2.73653
2.72359
2.73807
2.74762
2.76303
2.76874
2.77403
2.79372
2.81382
0.999995
1.00001
1.00003
1.00011
1.00021
1.00069
1.00127
1.00395
1.00761
1.02155
1.05005
1.12171
1.34523
1.97014
2.59516
2.73676
2.72741
2.7146
2.73196
2.74033
2.75538
2.7625
2.76837
2.7884
2.80905
0.999995
1.00001
1.00003
1.00011
1.0002
1.00066
1.0012
1.00377
1.0072
1.02067
1.04652
1.11684
1.31705
1.92581
2.54326
2.72862
2.72233
2.70882
2.72542
2.73391
2.74984
2.75456
2.75828
2.77626
2.79762
0.999995
1.00001
1.00002
1.0001
1.00019
1.00062
1.00113
1.00354
1.00676
1.01942
1.04356
1.10928
1.29616
1.85978
2.52461
2.72482
2.71802
2.70367
2.71792
2.72381
2.73811
2.74617
2.74993
2.76529
2.78727
0.999995
1.00001
1.00002
1.00009
1.00017
1.00057
1.00105
1.0033
1.00626
1.01813
1.0404
1.1012
1.27529
1.7888
2.49726
2.71509
2.70444
2.6961
2.71059
2.71485
2.72354
2.72795
2.73196
2.75046
2.76534
0.999994
1.00001
1.00002
1.00008
1.00015
1.00051
1.00093
1.00287
1.0057
1.01543
1.03826
1.08891
1.26119
1.67898
2.45898
2.70055
2.69647
2.69115
2.69712
2.70376
2.71282
2.71513
2.71267
2.72193
2.7404
0.999994
1.00001
1.00002
1.00007
1.00013
1.00044
1.00083
1.00245
1.00514
1.01325
1.03517
1.07897
1.24218
1.59043
2.38497
2.67679
2.6927
2.68834
2.68428
2.68782
2.69148
2.69182
2.68983
2.68865
2.6824
0.999994
1
1.00001
1.00006
1.00011
1.00037
1.00072
1.002
1.00456
1.0111
1.03107
1.06755
1.21672
1.50665
2.26648
2.62254
2.68354
2.68119
2.67475
2.6768
2.67484
2.66795
2.64827
2.63395
2.60133
0.999995
0.999999
1.00002
1.00004
1.00014
1.00026
1.00082
1.0016
1.00443
1.01023
1.02489
1.07084
1.15296
1.48712
2.22997
2.55134
2.65752
2.65657
2.65235
2.65367
2.65157
2.64131
2.61243
2.55573
2.3795
0.999995
0.999999
1.00001
1.00003
1.00012
1.00023
1.00076
1.00138
1.00432
1.00835
1.02324
1.05614
1.13271
1.3861
2.06098
2.50386
2.64588
2.64069
2.63363
2.62935
2.62215
2.60263
2.56279
2.49434
2.30643
0.999995
0.999998
1.00001
1.00003
1.0001
1.00019
1.00063
1.00115
1.00361
1.00687
1.01982
1.04381
1.1115
1.2935
1.85592
2.40934
2.6115
2.60433
2.60403
2.60301
2.59797
2.57612
2.52177
2.4533
2.29614
0.999995
0.999997
1.00001
1.00002
1.00008
1.00016
1.00052
1.00094
1.00297
1.00561
1.01624
1.03605
1.08904
1.24389
1.66157
2.35434
2.58734
2.57949
2.57471
2.5632
2.5565
2.53826
2.49166
2.43018
2.29984
0.999994
0.999996
1
1.00001
1.00006
1.00012
1.00039
1.00074
1.0021
1.00461
1.01148
1.03102
1.06893
1.21098
1.50827
2.20256
2.53571
2.56854
2.56033
2.54966
2.52731
2.50476
2.45759
2.41102
2.31335
0.999994
0.999996
0.999999
1.00002
1.00004
1.00013
1.00025
1.00077
1.00149
1.00418
1.00936
1.02317
1.06421
1.14097
1.43241
2.10395
2.4317
2.53792
2.52907
2.52214
2.50324
2.47965
2.42752
2.3778
2.30862
0.999993
0.999995
0.999998
1.00001
1.00003
1.00011
1.0002
1.00065
1.00118
1.0037
1.00706
1.02015
1.04553
1.11282
1.30631
1.86614
2.34934
2.51466
2.50965
2.49909
2.47414
2.45523
2.416
2.35805
2.29567
0.999993
0.999994
0.999996
1.00001
1.00002
1.00008
1.00015
1.00049
1.00091
1.00283
1.00542
1.01561
1.03386
1.08816
1.22058
1.66106
2.18685
2.46324
2.4784
2.47104
2.45291
2.42249
2.39433
2.34672
2.28896
0.999992
0.999993
0.999996
1
1.00002
1.00004
1.00014
1.00027
1.00085
1.00164
1.00453
1.01028
1.0249
1.07
1.14921
1.47424
2.1204
2.3807
2.44862
2.44342
2.4323
2.40445
2.37085
2.32959
2.27787
0.999992
0.999992
0.999995
0.999998
1.00001
1.00003
1.00011
1.00021
1.00068
1.00125
1.00387
1.00748
1.02107
1.04808
1.11935
1.32046
1.92443
2.27029
2.41123
2.41219
2.40567
2.39005
2.35841
2.31887
2.27031
0.999992
0.999992
0.999993
0.999997
1
1.00003
1.00006
1.00019
1.00036
1.00113
1.00215
1.00626
1.01309
1.03393
1.08651
1.20605
1.54502
2.18269
2.35899
2.37765
2.37399
2.36195
2.3373
2.3077
2.26656
0.999991
0.999992
0.999992
0.999995
0.999999
1.00002
1.00004
1.00014
1.00026
1.00081
1.00152
1.00437
1.00933
1.0235
1.06318
1.13827
1.42134
2.02688
2.29576
2.35387
2.35087
2.33381
2.31037
2.27978
2.25103
0.999991
0.999991
0.999992
0.999993
0.999998
1
1.00003
1.00007
1.00023
1.00043
1.0013
1.00259
1.00689
1.01637
1.03875
1.10943
1.24495
1.68484
2.15285
2.32433
2.32811
2.31941
2.29865
2.26679
2.23335
0.999991
0.999991
0.999992
0.999993
0.999996
1
1.00002
1.00005
1.00016
1.0003
1.00094
1.00175
1.00514
1.01066
1.02746
1.07201
1.15937
1.46294
2.04165
2.26432
2.29687
2.29277
2.27656
2.2503
2.21792
0.999991
0.999991
0.999991
0.999992
0.999994
0.999999
1.00001
1.00004
1.00008
1.00026
1.00049
1.00144
1.00293
1.00768
1.01868
1.04365
1.1243
1.27796
1.75973
2.14512
2.27016
2.26931
2.25936
2.23822
2.20863
0.999991
0.999991
0.999991
0.999992
0.999993
0.999997
1
1.00002
1.00005
1.00018
1.00033
1.00105
1.00192
1.00579
1.01149
1.03058
1.07493
1.17586
1.46835
2.01538
2.21408
2.23999
2.23605
2.21797
2.19038
0.999991
0.999991
0.999991
0.999991
0.999992
0.999994
1
1.00001
1.00004
1.00009
1.00028
1.00052
1.00158
1.00307
1.00838
1.01904
1.04611
1.12682
1.29067
1.75285
2.09473
2.20889
2.21558
2.20671
2.18557
0.999991
0.999991
0.999991
0.999991
0.999992
0.999993
0.999997
1
1.00003
1.00005
1.00018
1.00034
1.00107
1.00196
1.00591
1.01157
1.03111
1.07337
1.17763
1.45181
1.9718
2.14273
2.16842
2.17675
2.167
0.999991
0.999991
0.999991
0.999991
0.999991
0.999992
0.999994
1
1.00001
1.00004
1.00009
1.00027
1.00052
1.00157
1.00303
1.00847
1.01838
1.04552
1.11718
1.28615
1.6888
2.04997
2.14791
2.14998
2.144
0.999991
0.999991
0.999991
0.999991
0.999991
0.999992
0.999993
0.999995
1
1.00002
1.00007
1.00013
1.00042
1.00079
1.00234
1.0046
1.01269
1.02712
1.07087
1.16303
1.47932
1.86205
2.09233
2.12563
2.12496
0.999991
0.999991
0.999991
0.999991
0.999991
0.999991
0.999992
0.999994
0.999999
1.00001
1.00004
1.00008
1.00026
1.00049
1.0015
1.00278
1.00812
1.01644
1.04261
1.10273
1.25436
1.60923
1.96319
2.08784
2.09926
0.999991
0.999991
0.999991
0.999991
0.999991
0.999991
0.999991
0.999993
0.999995
1
1.00001
1.00006
1.00012
1.00038
1.00071
1.00209
1.00409
1.01131
1.02377
1.06291
1.1411
1.41673
1.78095
2.01825
2.06868
0.999991
0.999991
0.999991
0.999991
0.999991
0.999991
0.999991
0.999992
0.999993
0.999998
1
1.00003
1.00007
1.00023
1.00042
1.00129
1.00237
1.00694
1.01391
1.03581
1.08811
1.20103
1.52666
1.86619
2.02299
0.999991
0.999991
0.999991
0.999991
0.999991
0.999991
0.999991
0.999992
0.999992
0.999995
0.999999
1.00002
1.00004
1.00013
1.00024
1.00076
1.0014
1.0041
1.00815
1.02105
1.05223
1.11377
1.32337
1.7279
1.94628
0.999991
0.999991
0.999991
0.999991
0.999991
0.999991
0.999991
0.999991
0.999992
0.999993
0.999996
1.00001
1.00002
1.00007
1.00014
1.00045
1.00082
1.00246
1.00467
1.01312
1.0271
1.0709
1.16059
1.4711
1.77379
0.999991
0.999991
0.999991
0.999991
0.999991
0.999991
0.999991
0.999991
0.999991
0.999992
0.999994
0.999998
1.00001
1.00003
1.0001
1.0002
1.0006
1.00113
1.00328
1.00647
1.0172
1.03983
1.09211
1.24395
1.61962
0.999991
0.999991
0.999991
0.999991
0.999991
0.999991
0.999991
0.999991
0.999991
0.999992
0.999992
0.999996
1
1.00002
1.00004
1.00014
1.00027
1.0008
1.00152
1.00425
1.00884
1.02218
1.05563
1.12185
1.3324
0.999991
0.999991
0.999991
0.999991
0.999991
0.999991
0.999991
0.999991
0.999991
0.999991
0.999992
0.999993
0.999997
1
1.00003
1.00006
1.00019
1.00036
1.00106
1.00201
1.00561
1.01161
1.029
1.07064
1.1614
0.999991
0.999991
0.999991
0.999991
0.999991
0.999991
0.999991
0.999991
0.999991
0.999991
0.999991
0.999992
0.999995
0.999998
1.00001
1.00003
1.0001
1.0002
1.00061
1.00113
1.00334
1.00637
1.01728
1.03874
1.08926
0.999991
0.999991
0.999991
0.999991
0.999991
0.999991
0.999991
0.999991
0.999991
0.999991
0.999991
0.999992
0.999992
0.999996
1
1.00002
1.00004
1.00013
1.00026
1.00077
1.00146
1.00415
1.00833
1.02151
1.05132
0.999991
0.999991
0.999991
0.999991
0.999991
0.999991
0.999991
0.999991
0.999991
0.999991
0.999991
0.999991
0.999992
0.999993
0.999997
1
1.00002
1.00005
1.00017
1.00033
1.00097
1.00187
1.00516
1.01058
1.02687
0.999991
0.999991
0.999991
0.999991
0.999991
0.999991
0.999991
0.999991
0.999991
0.999991
0.999991
0.999991
0.999991
0.999992
0.999993
0.999999
1.00001
1.00003
1.00007
1.00022
1.00043
1.00125
1.00237
1.00663
1.01346
0.999991
0.999991
0.999991
0.999991
0.999991
0.999991
0.999991
0.999991
0.999991
0.999991
0.999991
0.999991
0.999991
0.999991
0.999992
0.999995
0.999999
1.00001
1.00003
1.00012
1.00022
1.00068
1.00125
1.00369
1.00704
0.999991
0.999991
0.999991
0.999991
0.999991
0.999991
0.999991
0.999991
0.999991
0.999991
0.999991
0.999991
0.999991
0.999991
0.999992
0.999993
0.999996
1
1.00002
1.00004
1.00014
1.00028
1.00082
1.00155
1.00436
0.999991
0.999991
0.999991
0.999991
0.999991
0.999991
0.999991
0.999991
0.999991
0.999991
0.999991
0.999991
0.999991
0.999991
0.999991
0.999992
0.999993
0.999997
1
1.00003
1.00006
1.00018
1.00034
1.00097
1.00188
0.999991
0.999991
0.999991
0.999991
0.999991
0.999991
0.999991
0.999991
0.999991
0.999991
0.999991
0.999991
0.999991
0.999991
0.999991
0.999991
0.999992
0.999993
0.999998
1.00001
1.00003
1.00007
1.00021
1.00041
1.00118
0.999991
0.999991
0.999991
0.999991
0.999991
0.999991
0.999991
0.999991
0.999991
0.999991
0.999991
0.999991
0.999991
0.999991
0.999991
0.999991
0.999991
0.999992
0.999994
1
1.00001
1.00004
1.00009
1.00026
1.0005
0.999991
0.999991
0.999991
0.999991
0.999991
0.999991
0.999991
0.999991
0.999991
0.999991
0.999991
0.999991
0.999991
0.999991
0.999991
0.999991
0.999991
0.999992
0.999992
0.999996
1
1.00002
1.00004
1.00014
1.00026
0.999991
0.999991
0.999991
0.999991
0.999991
0.999991
0.999991
0.999991
0.999991
0.999991
0.999991
0.999991
0.999991
0.999991
0.999991
0.999991
0.999991
0.999991
0.999992
0.999993
0.999997
1
1.00003
1.00006
1.00018
0.999991
0.999991
0.999991
0.999991
0.999991
0.999991
0.999991
0.999991
0.999991
0.999991
0.999991
0.999991
0.999991
0.999991
0.999991
0.999991
0.999991
0.999991
0.999992
0.999992
0.999996
0.999999
1.00002
1.00004
1.00013
1
1.00001
1.00002
1.00005
1.00015
1.00027
1.00083
1.00161
1.00444
1.01024
1.02491
1.07086
1.153
1.48719
2.23015
2.55144
2.65758
2.65662
2.65241
2.65372
2.65163
2.64136
2.61249
2.55578
2.37953
1
1.00001
1.00002
1.00004
1.00013
1.00024
1.00077
1.00139
1.00433
1.00836
1.02326
1.05616
1.13275
1.38616
2.06117
2.50397
2.64593
2.64075
2.63369
2.62941
2.6222
2.60268
2.56284
2.49438
2.30645
1
1.00001
1.00002
1.00003
1.00011
1.0002
1.00064
1.00116
1.00362
1.00688
1.01983
1.04382
1.11154
1.29358
1.85608
2.40953
2.61158
2.60439
2.60407
2.60305
2.59801
2.57617
2.52182
2.45334
2.29617
1
1
1.00002
1.00003
1.00009
1.00017
1.00053
1.00095
1.00298
1.00562
1.01626
1.03606
1.08907
1.24391
1.66175
2.35442
2.58741
2.57954
2.57475
2.56324
2.55654
2.53829
2.49169
2.43022
2.29987
1
1
1.00001
1.00002
1.00007
1.00013
1.0004
1.00075
1.00211
1.00462
1.01149
1.03103
1.06896
1.211
1.50838
2.20269
2.53578
2.56859
2.56038
2.54971
2.52737
2.50481
2.45762
2.41104
2.31338
1
1
1.00001
1.00002
1.00004
1.00014
1.00025
1.00078
1.0015
1.00419
1.00937
1.02318
1.06423
1.14102
1.43248
2.10411
2.43178
2.53797
2.52911
2.52218
2.50329
2.4797
2.42757
2.37784
2.30865
1
1
1.00001
1.00002
1.00004
1.00011
1.00021
1.00066
1.00119
1.00371
1.00707
1.02016
1.04555
1.11286
1.30638
1.8663
2.34945
2.51471
2.5097
2.49914
2.47418
2.45527
2.41604
2.3581
2.29569
1
1
1
1.00002
1.00003
1.00009
1.00016
1.0005
1.00092
1.00284
1.00543
1.01563
1.03387
1.08821
1.2206
1.66128
2.18689
2.4633
2.47846
2.4711
2.45296
2.42255
2.39438
2.34676
2.28901
1
1
1
1.00001
1.00003
1.00005
1.00015
1.00028
1.00086
1.00165
1.00454
1.01028
1.02492
1.07001
1.14925
1.47431
2.12052
2.38077
2.44866
2.44346
2.43234
2.40449
2.37089
2.32963
2.27791
1
1
1
1.00001