/*--------------------------------*- C++ -*----------------------------------*\
| =========                 |                                                 |
| \\      /  F ield         | OpenFOAM: The Open Source CFD Toolbox           |
|  \\    /   O peration     | Version:  4.1                                   |
|   \\  /    A nd           | Web:      www.OpenFOAM.org                      |
|    \\/     M anipulation  |                                                 |
\*---------------------------------------------------------------------------*/
FoamFile
{
    version     2.0;
    format      ascii;
    class       volVectorField;
    location    "2";
    object      U;
}
// * * * * * * * * * * * * * * * * * * * * * * * * * * * * * * * * * * * * * //

dimensions      [0 1 -1 0 0 0 0];

internalField   nonuniform List<vector> 
52500
(
(3 1.06672e-08 -0.00571425)
(2.99999 5.91043e-08 -0.00571436)
(2.99997 2.1946e-07 -0.00571452)
(2.99991 5.58758e-07 -0.00571504)
(2.99981 1.54838e-06 -0.00571599)
(2.99949 3.48419e-06 -0.0057189)
(2.99888 9.57133e-06 -0.00572449)
(2.99701 1.91516e-05 -0.00574044)
(2.99363 6.46047e-05 -0.00577643)
(2.98145 0.00010447 -0.0058555)
(2.95997 0.000468936 -0.00612854)
(2.87838 0.000875087 -0.00654388)
(2.6652 0.00348196 -0.00847404)
(2.11061 0.00837915 -0.0124565)
(0.944694 0.0261264 -0.0173622)
(0.35884 0.0247755 -0.0186598)
(0.521579 0.0236355 -0.0186429)
(0.569561 0.0247481 -0.0186261)
(0.513562 0.0263817 -0.0188076)
(0.420522 0.0286546 -0.0189706)
(0.336268 0.0312549 -0.0191711)
(0.268895 0.0344049 -0.0193126)
(0.202134 0.0380147 -0.0194605)
(0.124105 0.0424207 -0.0197199)
(0.0533204 0.0482577 -0.0200047)
(3 3.24752e-08 -0.00571425)
(2.99999 1.79569e-07 -0.00571436)
(2.99997 6.67646e-07 -0.00571452)
(2.99992 1.70702e-06 -0.00571503)
(2.99981 4.71934e-06 -0.00571597)
(2.9995 1.06935e-05 -0.00571885)
(2.9989 2.88979e-05 -0.00572434)
(2.99706 5.95041e-05 -0.0057402)
(2.9937 0.000193842 -0.0057753)
(2.98178 0.000305442 -0.00585418)
(2.96063 0.00141598 -0.00611894)
(2.8807 0.00260261 -0.00653067)
(2.67228 0.0105675 -0.0084101)
(2.12815 0.0255687 -0.0123251)
(0.957691 0.0788453 -0.0172119)
(0.362308 0.0721994 -0.0185644)
(0.52644 0.0662289 -0.0185491)
(0.575965 0.0674959 -0.0185216)
(0.520351 0.0701908 -0.0186976)
(0.427139 0.0745644 -0.0188537)
(0.34167 0.0791729 -0.0190478)
(0.272342 0.0843165 -0.0191826)
(0.203095 0.0895267 -0.0193258)
(0.12245 0.0949382 -0.0195759)
(0.0504785 0.100153 -0.0198464)
(3 5.24024e-08 -0.00571425)
(2.99999 2.88598e-07 -0.00571435)
(2.99997 1.07865e-06 -0.00571451)
(2.99992 2.76541e-06 -0.00571501)
(2.99981 7.68071e-06 -0.00571592)
(2.99952 1.75712e-05 -0.00571872)
(2.99892 4.69066e-05 -0.00572406)
(2.99715 0.000101225 -0.00573963)
(2.99384 0.000305963 -0.00577307)
(2.98245 0.000513087 -0.00585192)
(2.96193 0.00222266 -0.00609952)
(2.88548 0.00405059 -0.00650568)
(2.68709 0.0167484 -0.00828064)
(2.16622 0.0409535 -0.0120652)
(0.989396 0.128473 -0.0169678)
(0.377299 0.120854 -0.0184406)
(0.539886 0.111868 -0.0184259)
(0.590948 0.1141 -0.0183841)
(0.53519 0.119117 -0.0185574)
(0.441162 0.127719 -0.0187092)
(0.353504 0.13681 -0.0189052)
(0.281548 0.146356 -0.0190385)
(0.209453 0.155835 -0.0191765)
(0.125831 0.165032 -0.0194218)
(0.0509269 0.17208 -0.0196805)
(3 6.71694e-08 -0.00571425)
(2.99999 3.69402e-07 -0.00571435)
(2.99997 1.38376e-06 -0.0057145)
(2.99992 3.54491e-06 -0.00571498)
(2.99982 9.86808e-06 -0.00571586)
(2.99953 2.26104e-05 -0.00571854)
(2.99897 6.00589e-05 -0.00572366)
(2.99727 0.000132485 -0.00573858)
(2.99405 0.000375218 -0.00577027)
(2.98336 0.000715511 -0.0058476)
(2.96365 0.00264915 -0.00607452)
(2.89204 0.00486859 -0.00647271)
(2.70746 0.0199219 -0.00810374)
(2.22054 0.0491993 -0.0117056)
(1.0394 0.155812 -0.0166583)
(0.406216 0.162247 -0.0182775)
(0.559723 0.157597 -0.0182466)
(0.610126 0.161955 -0.0182099)
(0.553792 0.169354 -0.0184007)
(0.459416 0.182205 -0.0185385)
(0.369726 0.19626 -0.0187247)
(0.295239 0.210755 -0.0188606)
(0.2203 0.225177 -0.0189963)
(0.133051 0.238867 -0.0192388)
(0.0535397 0.248289 -0.0195013)
(3 8.02772e-08 -0.00571425)
(2.99999 4.419e-07 -0.00571434)
(2.99997 1.65255e-06 -0.00571449)
(2.99992 4.23009e-06 -0.00571494)
(2.99983 1.17391e-05 -0.00571578)
(2.99956 2.6841e-05 -0.00571833)
(2.99901 7.08875e-05 -0.00572319)
(2.99741 0.000157086 -0.00573741)
(2.99432 0.000425678 -0.0057672)
(2.98433 0.000901256 -0.00584203)
(2.96547 0.00277363 -0.00604935)
(2.89906 0.00568018 -0.00644199)
(2.72895 0.0200819 -0.00791194)
(2.27792 0.0498652 -0.0113954)
(1.09981 0.153316 -0.0162137)
(0.441614 0.200579 -0.0181079)
(0.576233 0.208631 -0.0180946)
(0.624241 0.213127 -0.0180597)
(0.569442 0.221006 -0.0182442)
(0.477628 0.237466 -0.0183739)
(0.38787 0.256459 -0.0185548)
(0.312006 0.276012 -0.0186652)
(0.234758 0.295777 -0.0187778)
(0.143509 0.31478 -0.0189994)
(0.0580966 0.327584 -0.0192665)
(3 9.54687e-08 -0.00571425)
(2.99999 5.26239e-07 -0.00571434)
(2.99997 1.96018e-06 -0.00571447)
(2.99993 5.0181e-06 -0.0057149)
(2.99984 1.38337e-05 -0.00571568)
(2.99958 3.15817e-05 -0.00571808)
(2.99907 8.25298e-05 -0.00572264)
(2.99757 0.000183054 -0.00573601)
(2.99467 0.000482477 -0.00576389)
(2.9853 0.0010532 -0.00583422)
(2.9677 0.00292213 -0.00602806)
(2.90573 0.00655891 -0.0063942)
(2.7482 0.0200761 -0.00776917)
(2.32629 0.0496745 -0.0109923)
(1.1718 0.147251 -0.0160409)
(0.483227 0.24245 -0.0179861)
(0.585766 0.265093 -0.0179631)
(0.629348 0.265377 -0.0179261)
(0.581257 0.271981 -0.0180881)
(0.496362 0.29264 -0.0181861)
(0.408441 0.317532 -0.0183429)
(0.332148 0.3433 -0.0184616)
(0.253332 0.369916 -0.0185619)
(0.157852 0.396374 -0.0187554)
(0.0649797 0.41511 -0.0190232)
(3 1.20831e-07 -0.00571425)
(2.99999 6.6477e-07 -0.00571433)
(2.99998 2.48366e-06 -0.00571446)
(2.99993 6.37344e-06 -0.00571485)
(2.99985 1.76447e-05 -0.00571558)
(2.99961 4.05308e-05 -0.0057178)
(2.99914 0.000105238 -0.00572202)
(2.99774 0.000241699 -0.00573448)
(2.99505 0.000585285 -0.00576024)
(2.98634 0.00146606 -0.00582601)
(2.97012 0.00320517 -0.00600545)
(2.91266 0.00826006 -0.00634325)
(2.7678 0.021313 -0.00762584)
(2.37629 0.0539986 -0.0105613)
(1.2614 0.155116 -0.0157755)
(0.544789 0.287308 -0.0178198)
(0.595906 0.317898 -0.0177812)
(0.628616 0.312512 -0.017785)
(0.592299 0.320577 -0.0179363)
(0.517921 0.346032 -0.0180074)
(0.433345 0.378333 -0.0181088)
(0.357744 0.412104 -0.0181867)
(0.278415 0.44826 -0.0182708)
(0.178867 0.48593 -0.0184665)
(0.0762175 0.515894 -0.0186782)
(3 1.37956e-07 -0.00571425)
(2.99999 7.57252e-07 -0.00571432)
(2.99998 2.83088e-06 -0.00571443)
(2.99994 7.27882e-06 -0.00571478)
(2.99987 2.01876e-05 -0.00571543)
(2.99966 4.66175e-05 -0.00571739)
(2.99924 0.000120325 -0.00572116)
(2.99797 0.000283595 -0.00573183)
(2.99569 0.000655706 -0.00575608)
(2.98747 0.00172207 -0.00580897)
(2.97344 0.0034765 -0.0059899)
(2.92018 0.00933518 -0.00626258)
(2.78855 0.0222596 -0.00752543)
(2.42971 0.0600917 -0.00992094)
(1.36706 0.165312 -0.0154366)
(0.624439 0.336553 -0.0175874)
(0.604522 0.360143 -0.0176291)
(0.626427 0.356157 -0.0176527)
(0.606029 0.37012 -0.0177395)
(0.543884 0.398309 -0.0178165)
(0.464383 0.438311 -0.017898)
(0.390829 0.482032 -0.017938)
(0.313044 0.530969 -0.0179546)
(0.2112 0.585421 -0.018063)
(0.0954655 0.638235 -0.0182718)
(3 1.42856e-07 -0.00571424)
(2.99999 7.78078e-07 -0.00571431)
(2.99998 2.89183e-06 -0.00571441)
(2.99995 7.43355e-06 -0.00571472)
(2.99988 2.04704e-05 -0.00571528)
(2.9997 4.73198e-05 -0.00571699)
(2.99934 0.000121155 -0.00572035)
(2.99819 0.000283644 -0.00572927)
(2.99625 0.000675365 -0.00575194)
(2.98868 0.00160189 -0.00579514)
(2.97655 0.00393924 -0.00596785)
(2.92765 0.0090908 -0.00619688)
(2.81254 0.0241982 -0.00739403)
(2.48691 0.0647746 -0.00937431)
(1.48759 0.180133 -0.0149005)
(0.715503 0.39115 -0.0172545)
(0.609917 0.398415 -0.0175257)
(0.631722 0.397723 -0.01755)
(0.623107 0.418595 -0.0175464)
(0.572748 0.449179 -0.0175896)
(0.503065 0.496392 -0.0176152)
(0.434659 0.551769 -0.0176133)
(0.362002 0.616231 -0.0175933)
(0.264435 0.69723 -0.0175829)
(0.132086 0.796926 -0.0175775)
(3 2.13338e-07 -0.00571424)
(2.99999 3.00992e-07 -0.0057143)
(2.99998 3.0066e-06 -0.00571438)
(2.99996 4.00935e-06 -0.00571464)
(2.9999 2.01497e-05 -0.00571513)
(2.99974 2.56396e-05 -0.00571655)
(2.99944 0.00012218 -0.00571953)
(2.99843 0.000129557 -0.00572662)
(2.99679 0.000804909 -0.00574748)
(2.99017 0.000443909 -0.00578214)
(2.97975 0.00580747 -0.00593731)
(2.93626 0.00222963 -0.00612767)
(2.83844 0.0382537 -0.00721347)
(2.54964 0.0441364 -0.00885646)
(1.64434 0.210273 -0.0140736)
(0.830125 0.44906 -0.016702)
(0.620258 0.440999 -0.0173666)
(0.646782 0.437194 -0.0174098)
(0.648761 0.461302 -0.0173733)
(0.60836 0.497425 -0.0173875)
(0.551019 0.550658 -0.0173541)
(0.491669 0.6173 -0.0172702)
(0.432935 0.703364 -0.0170922)
(0.356898 0.830526 -0.0169174)
(0.202489 1.05025 -0.0165912)
(3 1.08338e-08 -2.47159e-09)
(2.99999 5.95562e-08 -8.65545e-09)
(2.99997 2.20086e-07 -1.01267e-08)
(2.99991 5.60599e-07 -1.59631e-08)
(2.9998 1.55248e-06 -1.63889e-08)
(2.99949 3.49344e-06 -2.18372e-08)
(2.99888 9.59082e-06 -2.3032e-08)
(2.99701 1.92006e-05 -3.24177e-08)
(2.99363 6.46792e-05 -3.69397e-08)
(2.98144 0.000104683 -8.28154e-08)
(2.95996 0.000469091 -7.69046e-08)
(2.87834 0.000875671 -2.68968e-07)
(2.66511 0.00348239 -4.55026e-07)
(2.11037 0.00838048 -1.27422e-06)
(0.944594 0.0261278 -2.03448e-06)
(0.358923 0.0247773 3.31951e-07)
(0.521586 0.0236403 5.41403e-08)
(0.569542 0.0247526 -3.10588e-08)
(0.513536 0.026385 -1.42765e-08)
(0.420494 0.028656 2.75669e-08)
(0.336245 0.0312544 5.41624e-08)
(0.268878 0.0344031 5.783e-08)
(0.202121 0.0380125 5.76937e-08)
(0.1241 0.0424184 6.01546e-08)
(0.0533203 0.0482558 7.77619e-08)
(3 3.30461e-08 -2.46872e-09)
(2.99999 1.80608e-07 -8.64865e-09)
(2.99997 6.69606e-07 -1.01243e-08)
(2.99991 1.71198e-06 -1.59426e-08)
(2.99981 4.73149e-06 -1.63517e-08)
(2.9995 1.07221e-05 -2.17546e-08)
(2.99889 2.8959e-05 -2.28534e-08)
(2.99705 5.96856e-05 -3.19235e-08)
(2.9937 0.00019406 -3.65168e-08)
(2.98177 0.000306212 -8.0202e-08)
(2.96062 0.00141653 -7.78047e-08)
(2.88067 0.00260475 -2.61094e-07)
(2.67219 0.0105693 -4.53788e-07)
(2.12791 0.0255744 -1.25334e-06)
(0.957586 0.0788544 -2.02585e-06)
(0.362372 0.0722032 3.3256e-07)
(0.526436 0.0662375 7.11253e-08)
(0.575938 0.0675042 -2.69667e-08)
(0.520322 0.0701969 -1.32706e-08)
(0.427112 0.0745665 2.44253e-08)
(0.341652 0.0791706 5.22426e-08)
(0.272329 0.0843115 5.62112e-08)
(0.203085 0.089521 5.51541e-08)
(0.122447 0.0949325 5.63344e-08)
(0.0504791 0.100148 7.27457e-08)
(3 5.3454e-08 -2.46131e-09)
(2.99999 2.89783e-07 -8.64303e-09)
(2.99997 1.08134e-06 -1.01099e-08)
(2.99992 2.7712e-06 -1.5904e-08)
(2.99981 7.6959e-06 -1.62483e-08)
(2.99951 1.76063e-05 -2.15153e-08)
(2.99892 4.69919e-05 -2.24064e-08)
(2.99715 0.000101469 -3.00828e-08)
(2.99383 0.000306295 -3.60734e-08)
(2.98245 0.000514705 -7.32908e-08)
(2.96192 0.00222349 -7.94813e-08)
(2.88545 0.00405578 -2.40872e-07)
(2.687 0.0167543 -4.48087e-07)
(2.16599 0.0409721 -1.19985e-06)
(0.989273 0.128516 -2.00194e-06)
(0.377324 0.120867 2.91207e-07)
(0.539868 0.111878 8.70599e-08)
(0.590919 0.11411 -1.73687e-08)
(0.535165 0.119122 -8.64965e-09)
(0.441143 0.127719 1.97109e-08)
(0.353493 0.136805 4.57328e-08)
(0.281542 0.146347 5.03573e-08)
(0.209448 0.155826 4.8389e-08)
(0.12583 0.165023 4.72141e-08)
(0.0509285 0.172073 6.20336e-08)
(3 6.84919e-08 -2.44826e-09)
(2.99999 3.70635e-07 -8.6423e-09)
(2.99997 1.386e-06 -1.00942e-08)
(2.99992 3.5494e-06 -1.58739e-08)
(2.99982 9.87944e-06 -1.61452e-08)
(2.99953 2.26354e-05 -2.13031e-08)
(2.99896 6.01265e-05 -2.17606e-08)
(2.99727 0.00013265 -2.84855e-08)
(2.99404 0.000375547 -3.41666e-08)
(2.98335 0.000716978 -5.46744e-08)
(2.96364 0.00265085 -8.87274e-08)
(2.89202 0.0048739 -1.82064e-07)
(2.70738 0.0199382 -4.34734e-07)
(2.22033 0.0492413 -1.05969e-06)
(1.03926 0.155953 -1.89366e-06)
(0.406201 0.162278 1.28483e-07)
(0.559711 0.157597 5.10726e-08)
(0.610116 0.161955 -7.66296e-09)
(0.553788 0.169353 -1.50272e-09)
(0.459415 0.182201 1.65726e-08)
(0.369728 0.196252 3.29497e-08)
(0.295241 0.210746 3.84026e-08)
(0.2203 0.225168 3.66364e-08)
(0.133053 0.238858 3.32002e-08)
(0.0535426 0.248281 4.67101e-08)
(3 8.17189e-08 -2.43432e-09)
(2.99999 4.43064e-07 -8.64026e-09)
(2.99997 1.65404e-06 -1.00885e-08)
(2.99992 4.23298e-06 -1.58518e-08)
(2.99983 1.17457e-05 -1.6088e-08)
(2.99956 2.68553e-05 -2.11832e-08)
(2.99901 7.09258e-05 -2.1417e-08)
(2.99741 0.000157174 -2.77691e-08)
(2.99432 0.000425913 -3.22663e-08)
(2.98432 0.000901877 -4.84491e-08)
(2.96545 0.00277561 -7.1925e-08)
(2.89904 0.00568328 -1.68379e-07)
(2.7289 0.0200992 -2.8083e-07)
(2.2778 0.0499086 -7.8992e-07)
(1.09971 0.153468 -1.13132e-06)
(0.441612 0.200601 -2.86636e-07)
(0.576263 0.208611 -6.82595e-08)
(0.624273 0.213119 1.03989e-09)
(0.569467 0.221004 7.57027e-09)
(0.477645 0.237462 1.20079e-08)
(0.387883 0.256451 1.7814e-08)
(0.312016 0.276004 2.53845e-08)
(0.234762 0.295769 2.50872e-08)
(0.143514 0.314772 2.03069e-08)
(0.0581008 0.327577 3.12029e-08)
(3 9.69352e-08 -2.41855e-09)
(2.99999 5.27134e-07 -8.64176e-09)
(2.99997 1.96066e-06 -1.00868e-08)
(2.99993 5.01883e-06 -1.58402e-08)
(2.99984 1.38351e-05 -1.60541e-08)
(2.99958 3.15853e-05 -2.11099e-08)
(2.99907 8.25423e-05 -2.12029e-08)
(2.99757 0.000183089 -2.73239e-08)
(2.99466 0.000482587 -3.09463e-08)
(2.98529 0.00105345 -4.61841e-08)
(2.96769 0.00292322 -6.18202e-08)
(2.90572 0.00656029 -1.57989e-07)
(2.74816 0.0200855 -2.1809e-07)
(2.32619 0.0496942 -6.3275e-07)
(1.17168 0.147321 -9.9474e-07)
(0.483181 0.242461 -5.96061e-07)
(0.585806 0.265074 -1.92973e-07)
(0.629406 0.265382 5.03449e-08)
(0.581294 0.27199 3.61062e-08)
(0.496384 0.292641 -5.32025e-10)
(0.408459 0.317528 3.59494e-09)
(0.332163 0.343295 1.52216e-08)
(0.25334 0.36991 1.58893e-08)
(0.157859 0.396368 7.86142e-09)
(0.064985 0.415105 1.7073e-08)
(3 1.22788e-07 -2.40445e-09)
(2.99999 6.64494e-07 -8.64542e-09)
(2.99997 2.48263e-06 -1.00971e-08)
(2.99993 6.36812e-06 -1.58432e-08)
(2.99985 1.76301e-05 -1.60611e-08)
(2.99961 4.04931e-05 -2.11053e-08)
(2.99914 0.000105155 -2.11713e-08)
(2.99774 0.000241414 -2.7181e-08)
(2.99505 0.00058512 -3.0499e-08)
(2.98634 0.0014641 -4.53275e-08)
(2.97011 0.00320618 -5.48546e-08)
(2.91265 0.00825771 -1.63583e-07)
(2.76777 0.0213203 -1.5618e-07)
(2.3762 0.0540121 -6.33479e-07)
(1.26128 0.15516 -8.40897e-07)
(0.544705 0.28733 -6.59875e-07)
(0.595939 0.317921 -2.66371e-07)
(0.628688 0.312524 1.43014e-07)
(0.592336 0.320585 7.2238e-08)
(0.517941 0.346036 -1.54643e-08)
(0.433365 0.378333 -5.63173e-09)
(0.357763 0.412102 9.56614e-09)
(0.278426 0.448257 8.97459e-09)
(0.178876 0.485926 -2.50647e-09)
(0.0762241 0.515892 5.75101e-09)
(3 1.40086e-07 -2.37944e-09)
(2.99999 7.56394e-07 -8.67775e-09)
(2.99998 2.83219e-06 -1.01095e-08)
(2.99994 7.27177e-06 -1.5924e-08)
(2.99987 2.01875e-05 -1.62438e-08)
(2.99965 4.66019e-05 -2.15814e-08)
(2.99924 0.000120304 -2.21392e-08)
(2.99797 0.000283533 -3.14705e-08)
(2.99569 0.000655687 -2.88374e-08)
(2.98746 0.00172194 -8.17673e-08)
(2.97343 0.00347616 -9.3869e-09)
(2.92017 0.00933699 -2.15141e-07)
(2.78852 0.022263 -6.63745e-08)
(2.42964 0.0601006 -5.10547e-07)
(1.36696 0.165338 -7.56196e-07)
(0.624372 0.336563 -7.49127e-07)
(0.604563 0.360182 -7.35931e-08)
(0.626484 0.356171 4.03295e-08)
(0.606071 0.370123 1.98285e-08)
(0.54391 0.398314 3.05963e-09)
(0.464406 0.438314 -4.2513e-09)
(0.390851 0.482034 7.86266e-09)
(0.313058 0.530969 6.30257e-09)
(0.21121 0.585421 -6.82921e-09)
(0.0954732 0.638237 -3.26775e-10)
(3 1.41683e-07 -2.36142e-09)
(2.99999 7.75887e-07 -8.69484e-09)
(2.99998 2.88678e-06 -1.00655e-08)
(2.99995 7.40787e-06 -1.60014e-08)
(2.99988 2.0468e-05 -1.59551e-08)
(2.9997 4.72993e-05 -2.1381e-08)
(2.99934 0.000121178 -2.13177e-08)
(2.99819 0.000283799 -2.79876e-08)
(2.99625 0.000675497 -2.97662e-08)
(2.98868 0.00160377 -4.73727e-08)
(2.97654 0.00393823 -5.91948e-08)
(2.92764 0.00909617 -1.25463e-07)
(2.81251 0.0241955 -1.14799e-07)
(2.48684 0.0647768 -5.33061e-07)
(1.48748 0.180141 -6.60792e-07)
(0.715426 0.391147 -8.34937e-07)
(0.609956 0.398438 -5.04289e-09)
(0.631766 0.39774 2.90518e-08)
(0.623144 0.418604 1.3368e-08)
(0.572777 0.449187 1.01749e-08)
(0.503091 0.4964 6.00751e-09)
(0.434682 0.551775 8.80684e-09)
(0.362018 0.616236 6.20275e-09)
(0.264448 0.697234 -4.50685e-09)
(0.132095 0.796933 -2.34225e-09)
(3 1.9962e-07 -2.40241e-09)
(2.99999 3.62557e-07 -8.69673e-09)
(2.99998 2.90481e-06 -1.01631e-08)
(2.99996 4.06343e-06 -1.63271e-08)
(2.9999 2.00271e-05 -1.58444e-08)
(2.99974 2.57006e-05 -2.18251e-08)
(2.99944 0.000122081 -2.12888e-08)
(2.99843 0.000129706 -2.854e-08)
(2.99679 0.00080461 -2.89764e-08)
(2.99016 0.000444667 -4.62728e-08)
(2.97974 0.00580751 -6.01699e-08)
(2.93624 0.00223187 -1.00705e-07)
(2.83841 0.038252 -1.82329e-07)
(2.54957 0.0441475 -4.58262e-07)
(1.6442 0.210272 -6.94113e-07)
(0.830023 0.449053 -9.61759e-07)
(0.620281 0.44101 4.67986e-08)
(0.646807 0.437209 5.19439e-08)
(0.648786 0.461314 2.30654e-08)
(0.608385 0.497436 2.10671e-08)
(0.551043 0.550669 1.84215e-08)
(0.491693 0.61731 1.77135e-08)
(0.432954 0.703373 1.42049e-08)
(0.356913 0.830534 4.44157e-09)
(0.2025 1.05026 3.72243e-09)
(3 1.08336e-08 -3.85143e-13)
(2.99999 5.95555e-08 -2.06526e-12)
(2.99997 2.20084e-07 -4.55627e-12)
(2.99991 5.60594e-07 -9.41173e-12)
(2.9998 1.55247e-06 -1.81105e-11)
(2.99949 3.49342e-06 -3.28801e-11)
(2.99888 9.59079e-06 -7.78432e-11)
(2.99701 1.92004e-05 -1.13988e-10)
(2.99363 6.46791e-05 -5.17275e-10)
(2.98144 0.000104683 -4.00457e-10)
(2.95996 0.000469094 -3.94818e-09)
(2.87834 0.000875676 -4.52489e-09)
(2.6651 0.00348243 -2.29269e-08)
(2.11036 0.00838055 -4.70282e-08)
(0.94459 0.0261279 -8.26815e-08)
(0.358925 0.0247774 1.52413e-08)
(0.521586 0.0236404 4.12583e-09)
(0.569542 0.0247527 1.95546e-10)
(0.513535 0.026385 7.35079e-10)
(0.420494 0.028656 1.91914e-09)
(0.336245 0.0312544 2.59697e-09)
(0.268878 0.0344031 2.36239e-09)
(0.202121 0.0380124 2.58475e-09)
(0.124099 0.0424183 2.14397e-09)
(0.0533211 0.0482558 3.12935e-09)
(3 3.30459e-08 -3.8809e-13)
(2.99999 1.80608e-07 -2.07952e-12)
(2.99997 6.69603e-07 -4.58095e-12)
(2.99991 1.71197e-06 -9.46234e-12)
(2.99981 4.73145e-06 -1.81636e-11)
(2.9995 1.0722e-05 -3.29669e-11)
(2.99889 2.89589e-05 -7.82455e-11)
(2.99705 5.96842e-05 -1.1677e-10)
(2.9937 0.000194061 -5.13089e-10)
(2.98177 0.000306209 -4.13545e-10)
(2.96062 0.00141654 -3.8658e-09)
(2.88067 0.00260477 -4.44617e-09)
(2.67219 0.0105695 -2.24018e-08)
(2.12791 0.0255746 -4.59398e-08)
(0.957582 0.0788548 -8.18387e-08)
(0.362374 0.0722033 1.49994e-08)
(0.526436 0.0662376 4.50199e-09)
(0.575937 0.0675043 2.29966e-10)
(0.520321 0.0701969 6.85343e-10)
(0.427111 0.0745665 1.75097e-09)
(0.341651 0.0791705 2.49648e-09)
(0.272329 0.0843113 2.28191e-09)
(0.203084 0.0895209 2.48599e-09)
(0.122446 0.0949324 2.01427e-09)
(0.0504799 0.100148 2.96375e-09)
(3 5.34545e-08 -3.93827e-13)
(2.99999 2.89787e-07 -2.09253e-12)
(2.99997 1.08135e-06 -4.68325e-12)
(2.99992 2.77122e-06 -9.75722e-12)
(2.99981 7.69595e-06 -1.90071e-11)
(2.99951 1.76064e-05 -3.56323e-11)
(2.99892 4.69922e-05 -7.99638e-11)
(2.99715 0.000101468 -1.46775e-10)
(2.99383 0.0003063 -4.7392e-10)
(2.98244 0.000514704 -4.75124e-10)
(2.96192 0.00222352 -3.58339e-09)
(2.88545 0.00405586 -4.31816e-09)
(2.687 0.0167545 -2.09127e-08)
(2.16598 0.0409728 -4.32852e-08)
(0.989268 0.128518 -7.96792e-08)
(0.377325 0.120868 1.27018e-08)
(0.539868 0.111878 4.49799e-09)
(0.590918 0.11411 3.35191e-10)
(0.535164 0.119122 6.66391e-10)
(0.441143 0.127719 1.48489e-09)
(0.353493 0.136804 2.20863e-09)
(0.281542 0.146347 2.04231e-09)
(0.209447 0.155826 2.23219e-09)
(0.12583 0.165023 1.70938e-09)
(0.0509293 0.172073 2.62842e-09)
(3 6.8493e-08 -3.8076e-13)
(2.99999 3.70641e-07 -2.02897e-12)
(2.99997 1.38602e-06 -4.50758e-12)
(2.99992 3.54946e-06 -9.37702e-12)
(2.99982 9.87959e-06 -1.8102e-11)
(2.99953 2.26358e-05 -3.38647e-11)
(2.99896 6.01275e-05 -7.4597e-11)
(2.99727 0.000132652 -1.39104e-10)
(2.99404 0.000375555 -4.12334e-10)
(2.98335 0.00071698 -5.06144e-10)
(2.96364 0.00265092 -3.02813e-09)
(2.89202 0.004874 -3.24746e-09)
(2.70738 0.0199388 -1.85127e-08)
(2.22032 0.0492427 -3.7363e-08)
(1.03926 0.155958 -7.40142e-08)
(0.4062 0.162279 5.90925e-09)
(0.55971 0.157596 2.73568e-09)
(0.610116 0.161954 4.57483e-10)
(0.553788 0.169353 7.35245e-10)
(0.459415 0.182201 1.26801e-09)
(0.369728 0.196252 1.6727e-09)
(0.295241 0.210745 1.59305e-09)
(0.220299 0.225168 1.78623e-09)
(0.133053 0.238857 1.22077e-09)
(0.0535434 0.248281 2.10545e-09)
(3 8.17199e-08 -3.64951e-13)
(2.99999 4.43069e-07 -1.95905e-12)
(2.99997 1.65406e-06 -4.26951e-12)
(2.99992 4.23303e-06 -8.85853e-12)
(2.99983 1.17458e-05 -1.6567e-11)
(2.99956 2.68557e-05 -3.07081e-11)
(2.99901 7.09268e-05 -6.51184e-11)
(2.99741 0.000157177 -1.2316e-10)
(2.99432 0.000425921 -3.19879e-10)
(2.98432 0.000901884 -5.91455e-10)
(2.96545 0.00277568 -1.91802e-09)
(2.89904 0.00568336 -3.31703e-09)
(2.7289 0.0200998 -1.1543e-08)
(2.27779 0.0499099 -2.65556e-08)
(1.0997 0.153473 -4.33062e-08)
(0.441612 0.200602 -1.07297e-08)
(0.576264 0.20861 -2.2186e-09)
(0.624274 0.213118 6.00225e-10)
(0.569468 0.221004 9.05181e-10)
(0.477645 0.237461 9.98189e-10)
(0.387883 0.25645 1.00363e-09)
(0.312016 0.276004 1.04947e-09)
(0.234762 0.295769 1.31724e-09)
(0.143513 0.314771 7.72713e-10)
(0.0581015 0.327577 1.57185e-09)
(3 9.69357e-08 -3.51287e-13)
(2.99999 5.27137e-07 -1.90065e-12)
(2.99997 1.96067e-06 -4.05723e-12)
(2.99993 5.01886e-06 -8.39501e-12)
(2.99984 1.38352e-05 -1.51076e-11)
(2.99958 3.15855e-05 -2.76538e-11)
(2.99907 8.25428e-05 -5.61331e-11)
(2.99757 0.00018309 -1.0526e-10)
(2.99466 0.000482591 -2.65528e-10)
(2.98529 0.00105346 -5.0767e-10)
(2.96769 0.00292326 -1.49454e-09)
(2.90572 0.00656033 -3.00344e-09)
(2.74816 0.0200858 -8.95275e-09)
(2.32619 0.0496948 -2.04697e-08)
(1.17167 0.147323 -3.81254e-08)
(0.483179 0.242462 -2.29457e-08)
(0.585807 0.265073 -7.3264e-09)
(0.629407 0.265382 2.34896e-09)
(0.581295 0.271991 1.86554e-09)
(0.496384 0.29264 4.35025e-10)
(0.40846 0.317527 4.12812e-10)
(0.332163 0.343294 6.65707e-10)
(0.25334 0.36991 9.77976e-10)
(0.157859 0.396368 3.42223e-10)
(0.0649858 0.415105 1.10884e-09)
(3 1.22788e-07 -3.47218e-13)
(2.99999 6.64495e-07 -1.88177e-12)
(2.99997 2.48263e-06 -3.99218e-12)
(2.99993 6.36814e-06 -8.24786e-12)
(2.99985 1.76301e-05 -1.46359e-11)
(2.99961 4.04932e-05 -2.66268e-11)
(2.99914 0.000105155 -5.29997e-11)
(2.99774 0.000241413 -9.85667e-11)
(2.99505 0.000585122 -2.44002e-10)
(2.98634 0.00146409 -4.79022e-10)
(2.97011 0.0032062 -1.23163e-09)
(2.91265 0.00825772 -3.23223e-09)
(2.76777 0.0213205 -6.7331e-09)
(2.3762 0.0540124 -2.01679e-08)
(1.26128 0.155161 -3.25872e-08)
(0.544702 0.287331 -2.50976e-08)
(0.59594 0.317921 -1.00811e-08)
(0.62869 0.312525 5.88731e-09)
(0.592337 0.320585 3.16667e-09)
(0.517942 0.346036 -2.53127e-10)
(0.433365 0.378332 1.34399e-11)
(0.357763 0.412102 4.20169e-10)
(0.278426 0.448257 6.61468e-10)
(0.178876 0.485926 -7.10177e-11)
(0.0762249 0.515892 7.82021e-10)
(3 1.40087e-07 -3.43539e-13)
(2.99999 7.56397e-07 -1.85635e-12)
(2.99998 2.8322e-06 -3.95805e-12)
(2.99994 7.27179e-06 -8.19162e-12)
(2.99987 2.01875e-05 -1.48044e-11)
(2.99965 4.66021e-05 -2.75642e-11)
(2.99924 0.000120304 -5.47613e-11)
(2.99797 0.000283534 -1.20761e-10)
(2.99569 0.00065569 -2.09287e-10)
(2.98746 0.00172195 -7.17821e-10)
(2.97343 0.00347618 -7.94075e-10)
(2.92017 0.00933704 -3.33166e-09)
(2.78852 0.0222631 -5.81752e-09)
(2.42964 0.0601008 -1.58053e-08)
(1.36695 0.165339 -3.09742e-08)
(0.624369 0.336563 -2.84406e-08)
(0.604563 0.360183 -2.19898e-09)
(0.626485 0.356171 2.07097e-09)
(0.606071 0.370123 1.10913e-09)
(0.543911 0.398314 4.05588e-10)
(0.464407 0.438314 2.71911e-11)
(0.390851 0.482034 3.25374e-10)
(0.313059 0.530969 5.12849e-10)
(0.21121 0.585421 -3.64967e-10)
(0.095474 0.638237 8.49577e-10)
(3 1.41683e-07 -3.35695e-13)
(2.99999 7.7589e-07 -1.81348e-12)
(2.99998 2.88679e-06 -3.78108e-12)
(2.99995 7.40789e-06 -7.96948e-12)
(2.99988 2.04681e-05 -1.32716e-11)
(2.9997 4.72995e-05 -2.44737e-11)
(2.99934 0.000121179 -4.57609e-11)
(2.99819 0.000283801 -8.5643e-11)
(2.99625 0.000675499 -1.96821e-10)
(2.98868 0.00160378 -3.81439e-10)
(2.97654 0.00393823 -1.05302e-09)
(2.92764 0.00909624 -2.22473e-09)
(2.81251 0.0241956 -5.12555e-09)
(2.48684 0.0647769 -1.62383e-08)
(1.48748 0.180141 -2.74998e-08)
(0.715423 0.391147 -3.2099e-08)
(0.609957 0.398439 1.82191e-10)
(0.631767 0.397741 1.44241e-09)
(0.623145 0.418604 7.16133e-10)
(0.572778 0.449187 5.55836e-10)
(0.503091 0.4964 3.75431e-10)
(0.434682 0.551775 3.39335e-10)
(0.362019 0.616236 3.34058e-10)
(0.264448 0.697234 -1.9449e-10)
(0.132096 0.796933 7.83775e-10)
(3 1.99618e-07 -3.32807e-13)
(2.99999 3.62568e-07 -1.79286e-12)
(2.99998 2.9048e-06 -3.69753e-12)
(2.99996 4.06348e-06 -7.78851e-12)
(2.9999 2.00272e-05 -1.25406e-11)
(2.99974 2.57008e-05 -2.2839e-11)
(2.99944 0.000122081 -4.11737e-11)
(2.99843 0.000129707 -7.27769e-11)
(2.99679 0.000804615 -1.77138e-10)
(2.99016 0.00044467 -3.02031e-10)
(2.97974 0.00580754 -9.92459e-10)
(2.93624 0.00223189 -1.69716e-09)
(2.83841 0.0382521 -5.92286e-09)
(2.54957 0.0441477 -1.40485e-08)
(1.64419 0.210272 -2.78233e-08)
(0.83002 0.449053 -3.69222e-08)
(0.620282 0.441011 1.71009e-09)
(0.646808 0.437209 1.95895e-09)
(0.648786 0.461315 8.89483e-10)
(0.608385 0.497436 8.12048e-10)
(0.551044 0.550669 7.3141e-10)
(0.491693 0.61731 6.51295e-10)
(0.432954 0.703373 5.69551e-10)
(0.356913 0.830534 1.54774e-10)
(0.202501 1.05026 9.05023e-10)
(3 1.08336e-08 -4.48096e-14)
(2.99999 5.95554e-08 -2.02499e-13)
(2.99997 2.20084e-07 -6.70631e-13)
(2.99991 5.60593e-07 -1.41964e-12)
(2.9998 1.55246e-06 -4.2266e-12)
(2.99949 3.49342e-06 -8.24524e-12)
(2.99888 9.59079e-06 -2.74222e-11)
(2.99701 1.92004e-05 -3.87321e-11)
(2.99363 6.46792e-05 -2.25847e-10)
(2.98144 0.000104683 -1.52005e-10)
(2.95996 0.000469095 -1.84557e-09)
(2.87834 0.000875678 -2.0613e-09)
(2.6651 0.00348244 -1.09021e-08)
(2.11036 0.00838057 -2.2446e-08)
(0.944589 0.026128 -4.00189e-08)
(0.358926 0.0247774 7.12275e-09)
(0.521586 0.0236405 2.58911e-09)
(0.569541 0.0247527 7.20483e-10)
(0.513535 0.0263851 8.77816e-10)
(0.420493 0.028656 1.53896e-09)
(0.336244 0.0312544 1.99926e-09)
(0.268877 0.034403 2.20957e-09)
(0.20212 0.0380124 2.17639e-09)
(0.124099 0.0424183 2.14332e-09)
(0.0533212 0.0482558 2.45476e-09)
(3 3.30459e-08 -4.64171e-14)
(2.99999 1.80608e-07 -2.10694e-13)
(2.99997 6.69603e-07 -6.85471e-13)
(2.99991 1.71197e-06 -1.4507e-12)
(2.99981 4.73145e-06 -4.26565e-12)
(2.9995 1.07219e-05 -8.31311e-12)
(2.99889 2.89589e-05 -2.76476e-11)
(2.99705 5.96839e-05 -4.01017e-11)
(2.9937 0.000194061 -2.23807e-10)
(2.98177 0.000306208 -1.58052e-10)
(2.96062 0.00141655 -1.80463e-09)
(2.88067 0.00260477 -2.02194e-09)
(2.67219 0.0105695 -1.06405e-08)
(2.1279 0.0255747 -2.19097e-08)
(0.957581 0.078855 -3.95981e-08)
(0.362375 0.0722034 6.97938e-09)
(0.526436 0.0662377 2.72997e-09)
(0.575937 0.0675044 7.1514e-10)
(0.52032 0.0701969 8.39102e-10)
(0.427111 0.0745665 1.44644e-09)
(0.341651 0.0791705 1.93446e-09)
(0.272329 0.0843112 2.15838e-09)
(0.203084 0.0895208 2.11438e-09)
(0.122446 0.0949323 2.07257e-09)
(0.05048 0.100148 2.36027e-09)
(3 5.34547e-08 -4.95452e-14)
(2.99999 2.89788e-07 -2.19479e-13)
(2.99997 1.08136e-06 -7.39691e-13)
(2.99992 2.77123e-06 -1.60332e-12)
(2.99981 7.69598e-06 -4.69101e-12)
(2.99951 1.76064e-05 -9.62481e-12)
(2.99892 4.69924e-05 -2.85481e-11)
(2.99715 0.000101468 -5.44714e-11)
(2.99383 0.000306301 -2.05457e-10)
(2.98244 0.000514705 -1.86276e-10)
(2.96192 0.00222353 -1.6698e-09)
(2.88545 0.00405589 -1.9559e-09)
(2.687 0.0167546 -9.91322e-09)
(2.16598 0.040973 -2.06022e-08)
(0.989267 0.128518 -3.84981e-08)
(0.377325 0.120868 5.86536e-09)
(0.539868 0.111878 2.66441e-09)
(0.590917 0.11411 7.23321e-10)
(0.535164 0.119122 8.03872e-10)
(0.441142 0.127719 1.29854e-09)
(0.353493 0.136804 1.7755e-09)
(0.281542 0.146347 2.03004e-09)
(0.209447 0.155826 1.98399e-09)
(0.12583 0.165023 1.9083e-09)
(0.0509294 0.172073 2.17326e-09)
(3 6.84934e-08 -4.40242e-14)
(2.99999 3.70643e-07 -1.92798e-13)
(2.99997 1.38603e-06 -6.65913e-13)
(2.99992 3.54948e-06 -1.44305e-12)
(2.99982 9.87965e-06 -4.31654e-12)
(2.99953 2.26359e-05 -8.89362e-12)
(2.99896 6.01278e-05 -2.62972e-11)
(2.99727 0.000132653 -5.14526e-11)
(2.99404 0.000375557 -1.77174e-10)
(2.98335 0.000716982 -2.0688e-10)
(2.96364 0.00265094 -1.40071e-09)
(2.89201 0.00487403 -1.46446e-09)
(2.70738 0.0199389 -8.73215e-09)
(2.22032 0.0492431 -1.77278e-08)
(1.03926 0.155959 -3.56154e-08)
(0.4062 0.162279 2.66333e-09)
(0.55971 0.157596 1.76805e-09)
(0.610116 0.161954 7.17396e-10)
(0.553788 0.169353 8.01319e-10)
(0.459415 0.182201 1.18126e-09)
(0.369728 0.196252 1.51119e-09)
(0.295241 0.210745 1.77778e-09)
(0.220299 0.225168 1.75563e-09)
(0.133053 0.238857 1.6529e-09)
(0.0535435 0.248281 1.90886e-09)
(3 8.17202e-08 -3.71815e-14)
(2.99999 4.43071e-07 -1.63019e-13)
(2.99997 1.65407e-06 -5.61877e-13)
(2.99992 4.23304e-06 -1.21683e-12)
(2.99983 1.17459e-05 -3.63794e-12)
(2.99956 2.68558e-05 -7.4984e-12)
(2.99901 7.09272e-05 -2.20415e-11)
(2.99741 0.000157177 -4.44316e-11)
(2.99432 0.000425923 -1.33931e-10)
(2.98432 0.000901887 -2.52505e-10)
(2.96545 0.00277571 -8.70914e-10)
(2.89904 0.00568338 -1.50959e-09)
(2.7289 0.0200999 -5.4e-09)
(2.27779 0.0499103 -1.25265e-08)
(1.0997 0.153474 -2.07177e-08)
(0.441612 0.200602 -5.19008e-09)
(0.576264 0.20861 -6.80994e-10)
(0.624274 0.213118 7.10377e-10)
(0.569468 0.221004 8.34452e-10)
(0.477645 0.237461 1.01516e-09)
(0.387883 0.25645 1.20593e-09)
(0.312016 0.276004 1.50528e-09)
(0.234762 0.295768 1.52505e-09)
(0.143513 0.314771 1.4096e-09)
(0.0581017 0.327577 1.63838e-09)
(3 9.69359e-08 -3.11442e-14)
(2.99999 5.27138e-07 -1.37738e-13)
(2.99997 1.96067e-06 -4.67198e-13)
(2.99993 5.01887e-06 -1.01017e-12)
(2.99984 1.38352e-05 -2.97955e-12)
(2.99958 3.15856e-05 -6.11914e-12)
(2.99907 8.25431e-05 -1.79416e-11)
(2.99757 0.000183091 -3.62699e-11)
(2.99466 0.000482593 -1.08757e-10)
(2.98529 0.00105346 -2.14033e-10)
(2.96769 0.00292327 -6.70644e-10)
(2.90572 0.00656034 -1.3626e-09)
(2.74816 0.0200859 -4.15324e-09)