/*--------------------------------*- C++ -*----------------------------------*\
| =========                 |                                                 |
| \\      /  F ield         | OpenFOAM: The Open Source CFD Toolbox           |
|  \\    /   O peration     | Version:  4.1                                   |
|   \\  /    A nd           | Web:      www.OpenFOAM.org                      |
|    \\/     M anipulation  |                                                 |
\*---------------------------------------------------------------------------*/
FoamFile
{
    version     2.0;
    format      ascii;
    class       volScalarField;
    location    "0.08";
    object      Ma;
}
// * * * * * * * * * * * * * * * * * * * * * * * * * * * * * * * * * * * * * //

dimensions      [0 0 0 0 0 0 0];

internalField   nonuniform List<scalar> 
52500
(
2.88424
2.96761
2.75863
2.40182
2.18286
1.99205
1.87092
1.75592
1.76414
1.81247
1.86307
1.90639
1.93983
1.96338
1.97897
1.98881
1.99291
1.99251
1.98376
1.95704
1.88255
1.64897
1.14079
0.200326
0.168294
2.88425
2.96763
2.75863
2.40181
2.18285
1.99205
1.87093
1.75593
1.76414
1.81247
1.86307
1.90639
1.93983
1.96338
1.97897
1.98881
1.99291
1.99251
1.98376
1.95705
1.88256
1.64904
1.14104
0.199784
0.168444
2.88439
2.96788
2.75883
2.40175
2.18272
1.99194
1.87091
1.75596
1.76418
1.8125
1.86309
1.9064
1.93983
1.96338
1.97897
1.98881
1.99291
1.99251
1.98376
1.95706
1.88261
1.64927
1.142
0.198098
0.169142
2.8848
2.96816
2.75888
2.40206
2.18307
1.99217
1.87092
1.75596
1.76417
1.81249
1.86308
1.90639
1.93983
1.96338
1.97897
1.98881
1.99291
1.99251
1.98377
1.95711
1.88284
1.65031
1.14498
0.19204
0.170997
2.88592
2.96948
2.75974
2.4025
2.18334
1.99232
1.87099
1.75605
1.76424
1.81253
1.8631
1.90641
1.93983
1.96338
1.97897
1.98881
1.99291
1.99252
1.98382
1.9573
1.88357
1.6534
1.15322
0.175798
0.177049
2.88182
2.96328
2.75324
2.39753
2.17958
1.99048
1.87102
1.75621
1.76429
1.81257
1.86314
1.90643
1.93985
1.96339
1.97897
1.98881
1.99292
1.99256
1.98397
1.95783
1.88549
1.6611
1.17242
0.140269
0.194755
2.88256
2.96401
2.75362
2.39787
2.17987
1.99066
1.87105
1.75626
1.76432
1.81259
1.86315
1.90644
1.93985
1.96339
1.97897
1.98881
1.99295
1.99268
1.98438
1.95915
1.88989
1.67732
1.21077
0.0879052
0.23601
2.88668
2.97021
2.76005
2.40301
2.18385
1.99265
1.87102
1.75607
1.76426
1.81253
1.8631
1.90641
1.93983
1.96338
1.97897
1.98882
1.99304
1.99293
1.98523
1.96174
1.89794
1.70437
1.27225
0.130974
0.32206
2.88254
2.96399
2.7536
2.39784
2.17984
1.99064
1.87104
1.75626
1.76432
1.81259
1.86315
1.90644
1.93985
1.96339
1.97898
1.98886
1.99323
1.99345
1.98686
1.96638
1.91126
1.74616
1.36858
0.309452
0.444533
2.88262
2.96409
2.75363
2.39785
2.17985
1.99067
1.87107
1.75627
1.76432
1.81258
1.86314
1.90644
1.93985
1.96339
1.97899
1.98892
1.99355
1.99426
1.98934
1.97309
1.92992
1.79813
1.50421
0.543978
0.727186
2.88482
2.9682
2.75888
2.40205
2.18305
1.99216
1.87092
1.75594
1.76415
1.81246
1.86305
1.90637
1.93981
1.96336
1.97895
1.98879
1.99289
1.99249
1.98374
1.95702
1.88251
1.64891
1.14068
0.200133
0.167871
2.88493
2.9684
2.7591
2.40217
2.18314
1.99222
1.87095
1.75594
1.76414
1.81246
1.86305
1.90637
1.93981
1.96336
1.97895
1.98879
1.99289
1.99249
1.98374
1.95702
1.88253
1.64899
1.14093
0.199596
0.168015
2.88241
2.96382
2.75349
2.39773
2.17977
1.99061
1.87105
1.75623
1.76427
1.81255
1.86311
1.90641
1.93983
1.96337
1.97895
1.98879
1.99289
1.99249
1.98374
1.95704
1.8826
1.6493
1.14188
0.197602
0.168558
2.88469
2.96817
2.75896
2.40206
2.18305
1.99218
1.87096
1.75594
1.76414
1.81246
1.86305
1.90637
1.93981
1.96336
1.97895
1.98879
1.99289
1.99249
1.98375
1.9571
1.88283
1.65035
1.14486
0.191546
0.170414
2.88241
2.96382
2.75349
2.39774
2.17977
1.99061
1.87106
1.75623
1.76427
1.81255
1.86311
1.90641
1.93983
1.96337
1.97895
1.98879
1.99289
1.9925
1.98381
1.95728
1.88355
1.65344
1.1531
0.175279
0.176492
2.88494
2.96841
2.75911
2.40219
2.18315
1.99223
1.87096
1.75595
1.76414
1.81246
1.86305
1.90637
1.93981
1.96336
1.97895
1.98879
1.9929
1.99254
1.98396
1.95781
1.88547
1.66113
1.1723
0.139674
0.194267
2.88486
2.96822
2.7589
2.40206
2.18306
1.99217
1.87093
1.75594
1.76415
1.81246
1.86305
1.90637
1.93981
1.96336
1.97895
1.98879
1.99294
1.99266
1.98436
1.95913
1.88987
1.67728
1.21067
0.0873412
0.235725
2.88423
2.96762
2.75861
2.40179
2.18284
1.99203
1.87091
1.7559
1.76412
1.81244
1.86305
1.90637
1.9398
1.96336
1.97895
1.9888
1.99302
1.99292
1.98521
1.96172
1.89792
1.70437
1.27213
0.130659
0.32183
2.88425
2.96763
2.75862
2.4018
2.18284
1.99203
1.87091
1.7559
1.76411
1.81244
1.86305
1.90637
1.93981
1.96336
1.97896
1.98884
1.99321
1.99344
1.98684
1.96637
1.91124
1.74618
1.36851
0.30946
0.444364
2.88425
2.96763
2.75863
2.4018
2.18285
1.99204
1.87092
1.75591
1.76411
1.81244
1.86305
1.90637
1.93981
1.96336
1.97897
1.9889
1.99353
1.99424
1.98932
1.97307
1.9299
1.79812
1.50414
0.543967
0.727058
2.88425
2.96763
2.75863
2.4018
2.18285
1.99204
1.87092
1.75591
1.76411
1.81244
1.86305
1.90637
1.9398
1.96336
1.97895
1.98879
1.99289
1.99249
1.98374
1.95702
1.88251
1.64891
1.14068
0.200134
0.167871
2.88424
2.96762
2.75862
2.4018
2.18284
1.99204
1.87091
1.7559
1.76411
1.81244
1.86305
1.90637
1.9398
1.96336
1.97895
1.98879
1.99289
1.99249
1.98374
1.95702
1.88253
1.64899
1.14093
0.199597
0.168015
2.88423
2.96762
2.75862
2.4018
2.18284
1.99204
1.87091
1.75591
1.76411
1.81244
1.86305
1.90637
1.9398
1.96336
1.97895
1.98879
1.99289
1.99249
1.98374
1.95704
1.8826
1.6493
1.14188
0.197602
0.168558
2.88486
2.96822
2.75891
2.40207
2.18307
1.99218
1.87094
1.75594
1.76414
1.81246
1.86305
1.90637
1.93981
1.96336
1.97895
1.98879
1.99289
1.99249
1.98375
1.9571
1.88283
1.65035
1.14486
0.191546
0.170414
2.88494
2.96841
2.75912
2.40219
2.18315
1.99223
1.87096
1.75595
1.76414
1.81246
1.86305
1.90637
1.93981
1.96336
1.97895
1.98879
1.99289
1.9925
1.98381
1.95728
1.88355
1.65344
1.1531
0.17528
0.176492
2.88152
2.96294
2.753
2.39732
2.17942
1.9904
1.87102
1.75618
1.76423
1.81253
1.8631
1.9064
1.93982
1.96337
1.97895
1.98879
1.9929
1.99254
1.98396
1.95781
1.88547
1.66113
1.1723
0.139675
0.194267
2.88494
2.9684
2.75911
2.40218
2.18315
1.99222
1.87096
1.75595
1.76414
1.81246
1.86305
1.90637
1.93981
1.96336
1.97895
1.98879
1.99294
1.99266
1.98436
1.95913
1.88987
1.67728
1.21067
0.0873415
0.235725
2.88485
2.96821
2.7589
2.40205
2.18306
1.99217
1.87093
1.75594
1.76414
1.81246
1.86305
1.90637
1.93981
1.96336
1.97895
1.9888
1.99302
1.99292
1.98521
1.96172
1.89792
1.70437
1.27213
0.130659
0.32183
2.88421
2.96761
2.75861
2.40179
2.18284
1.99203
1.8709
1.7559
1.76412
1.81244
1.86305
1.90637
1.9398
1.96336
1.97896
1.98884
1.99321
1.99344
1.98684
1.96637
1.91124
1.74618
1.36851
0.30946
0.444364
2.88485
2.96821
2.7589
2.40205
2.18306
1.99217
1.87093
1.75594
1.76414
1.81246
1.86305
1.90637
1.93981
1.96336
1.97897
1.9889
1.99353
1.99424
1.98932
1.97307
1.9299
1.79812
1.50414
0.543967
0.727058
2.88425
2.96763
2.75863
2.4018
2.18285
1.99204
1.87092
1.75591
1.76411
1.81244
1.86304
1.90637
1.9398
1.96336
1.97895
1.98879
1.99289
1.99249
1.98374
1.95702
1.88251
1.64891
1.14068
0.200133
0.167871
2.88425
2.96763
2.75863
2.4018
2.18285
1.99204
1.87092
1.75591
1.76411
1.81244
1.86304
1.90637
1.9398
1.96336
1.97895
1.98879
1.99289
1.99249
1.98374
1.95702
1.88253
1.64899
1.14093
0.199596
0.168015
2.88425
2.96763
2.75863
2.4018
2.18285
1.99204
1.87092
1.75591
1.76411
1.81244
1.86304
1.90637
1.9398
1.96336
1.97895
1.98879
1.99289
1.99249
1.98374
1.95704
1.8826
1.6493
1.14188
0.197602
0.168558
2.88425
2.96763
2.75863
2.4018
2.18285
1.99204
1.87092
1.75591
1.76411
1.81244
1.86304
1.90637
1.9398
1.96336
1.97895
1.98879
1.99289
1.99249
1.98375
1.9571
1.88283
1.65035
1.14486
0.191546
0.170414
2.88425
2.96763
2.75863
2.4018
2.18285
1.99204
1.87092
1.75591
1.76411
1.81244
1.86304
1.90637
1.9398
1.96336
1.97895
1.98879
1.99289
1.9925
1.98381
1.95728
1.88355
1.65344
1.1531
0.17528
0.176492
2.88425
2.96763
2.75863
2.40181
2.18285
1.99204
1.87092
1.75591
1.76411
1.81244
1.86304
1.90637
1.9398
1.96336
1.97895
1.98879
1.9929
1.99254
1.98396
1.95781
1.88547
1.66113
1.1723
0.139675
0.194267
2.88425
2.96763
2.75863
2.4018
2.18285
1.99204
1.87092
1.75591
1.76411
1.81244
1.86304
1.90637
1.9398
1.96336
1.97895
1.98879
1.99294
1.99266
1.98436
1.95913
1.88987
1.67728
1.21067
0.0873415
0.235725
2.88425
2.96763
2.75863
2.4018
2.18285
1.99204
1.87092
1.75591
1.76411
1.81244
1.86304
1.90637
1.9398
1.96336
1.97895
1.9888
1.99302
1.99292
1.98521
1.96172
1.89792
1.70437
1.27213
0.130659
0.32183
2.88425
2.96763
2.75863
2.4018
2.18285
1.99204
1.87092
1.75591
1.76411
1.81244
1.86304
1.90637
1.9398
1.96336
1.97896
1.98884
1.99321
1.99344
1.98684
1.96637
1.91124
1.74618
1.36851
0.30946
0.444364
2.88425
2.96763
2.75863
2.4018
2.18285
1.99204
1.87092
1.75591
1.76411
1.81244
1.86304
1.90637
1.9398
1.96336
1.97897
1.9889
1.99353
1.99424
1.98932
1.97307
1.9299
1.79812
1.50414
0.543967
0.727058
2.88438
2.96786
2.75883
2.40177
2.18275
1.99196
1.87093
1.75595
1.76416
1.81248
1.86307
1.90638
1.93981
1.96336
1.97895
1.98879
1.99289
1.99249
1.98374
1.95702
1.88252
1.64892
1.1407
0.200076
0.167885
2.8844
2.96787
2.75883
2.40176
2.18274
1.99196
1.87092
1.75595
1.76416
1.81248
1.86307
1.90638
1.93981
1.96336
1.97895
1.98879
1.99289
1.99249
1.98374
1.95702
1.88253
1.64899
1.14094
0.199543
0.168036
2.88427
2.96766
2.75863
2.40185
2.1829
1.99208
1.87094
1.75592
1.76413
1.81245
1.86305
1.90637
1.9398
1.96335
1.97895
1.98879
1.99289
1.99249
1.98374
1.95703
1.88258
1.64921
1.14191
0.197898
0.16875
2.88427
2.96766
2.75863
2.40185
2.1829
1.99208
1.87093
1.75592
1.76413
1.81245
1.86305
1.90637
1.9398
1.96336
1.97895
1.98879
1.99289
1.99249
1.98375
1.95709
1.88282
1.65026
1.14489
0.19185
0.170602
2.8844
2.96788
2.75882
2.40176
2.18274
1.99196
1.87092
1.75595
1.76416
1.81248
1.86307
1.90638
1.93981
1.96336
1.97895
1.98879
1.99289
1.9925
1.9838
1.95728
1.88355
1.65345
1.1531
0.175217
0.176499
2.88434
2.9678
2.7588
2.40175
2.18273
1.99193
1.87089
1.75594
1.76416
1.81248
1.86307
1.90638
1.93981
1.96336
1.97895
1.98879
1.9929
1.99254
1.98396
1.95781
1.88547
1.66114
1.17231
0.13962
0.194259
2.88436
2.96783
2.75881
2.40178
2.18275
1.99195
1.8709
1.75595
1.76416
1.81248
1.86307
1.90638
1.93981
1.96336
1.97895
1.98879
1.99293
1.99266
1.98436
1.95913
1.88987
1.67728
1.21068
0.0873239
0.235723
2.88424
2.96762
2.75862
2.40186
2.1829
1.99207
1.87092
1.75592
1.76413
1.81245
1.86305
1.90637
1.9398
1.96336
1.97895
1.9888
1.99302
1.99292
1.98521
1.96172
1.89792
1.70437
1.27213
0.130662
0.321827
2.8844
2.96787
2.75882
2.40176
2.18274
1.99196
1.87092
1.75595
1.76416
1.81248
1.86307
1.90638
1.93981
1.96336
1.97896
1.98884
1.99321
1.99344
1.98684
1.96637
1.91124
1.74618
1.36851
0.309465
0.444361
2.88439
2.96785
2.75882
2.40174
2.18272
1.99194
1.87091
1.75595
1.76416
1.81248
1.86307
1.90638
1.93981
1.96336
1.97897
1.9889
1.99353
1.99424
1.98932
1.97307
1.9299
1.79812
1.50414
0.543971
0.727057
2.88425
2.96763
2.75863
2.4018
2.18285
1.99204
1.87092
1.75591
1.76411
1.81244
1.86304
1.90637
1.9398
1.96336
1.97895
1.98879
1.99289
1.99249
1.98374
1.95702
1.88251
1.64891
1.14068
0.200132
0.167871
2.88425
2.96763
2.75863
2.4018
2.18285
1.99204
1.87092
1.75591
1.76411
1.81244
1.86304
1.90637
1.9398
1.96336
1.97895
1.98879
1.99289
1.99249
1.98374
1.95702
1.88253
1.64899
1.14093
0.199594
0.168016
2.88425
2.96763
2.75863
2.4018
2.18285
1.99204
1.87092
1.75591
1.76411
1.81244
1.86304
1.90637
1.9398
1.96336
1.97895
1.98879
1.99289
1.99249
1.98374
1.95704
1.8826
1.64931
1.14188
0.197597
0.168559
2.88422
2.96759
2.75861
2.4018
2.18284
1.99203
1.87091
1.7559
1.76411
1.81244
1.86305
1.90637
1.93981
1.96336
1.97895
1.98879
1.99289
1.99249
1.98375
1.9571
1.88283
1.65035
1.14486
0.191541
0.170415
2.88425
2.96763
2.75863
2.4018
2.18285
1.99204
1.87092
1.75591
1.76411
1.81244
1.86304
1.90637
1.9398
1.96336
1.97895
1.98879
1.99289
1.9925
1.98381
1.95728
1.88355
1.65345
1.15311
0.175275
0.176492
2.88422
2.96759
2.75861
2.4018
2.18284
1.99203
1.87091
1.7559
1.76411
1.81244
1.86305
1.90637
1.93981
1.96336
1.97895
1.98879
1.9929
1.99254
1.98396
1.95781
1.88547
1.66113
1.1723
0.139681
0.194266
2.88425
2.96763
2.75863
2.4018
2.18285
1.99204
1.87092
1.75591
1.76411
1.81244
1.86304
1.90637
1.9398
1.96336
1.97895
1.98879
1.99294
1.99266
1.98436
1.95913
1.88987
1.67728
1.21068
0.0873332
0.235738
2.88425
2.96763
2.75863
2.4018
2.18285
1.99204
1.87092
1.75591
1.76411
1.81244
1.86304
1.90637
1.9398
1.96336
1.97895
1.9888
1.99302
1.99292
1.98521
1.96172
1.89792
1.70437
1.27213
0.130651
0.321831
2.88425
2.96763
2.75863
2.4018
2.18285
1.99204
1.87092
1.75591
1.76411
1.81244
1.86304
1.90637
1.9398
1.96336
1.97896
1.98884
1.99321
1.99344
1.98684
1.96637
1.91124
1.74618
1.36851
0.309461
0.444368
2.88425
2.96763
2.75863
2.4018
2.18285
1.99204
1.87092
1.75591
1.76411
1.81244
1.86304
1.90637
1.9398
1.96336
1.97897
1.9889
1.99353
1.99424
1.98932
1.97307
1.9299
1.79812
1.50414
0.543971
0.727061
2.88425
2.96763
2.75863
2.4018
2.18285
1.99204
1.87092
1.75591
1.76411
1.81244
1.86304
1.90637
1.9398
1.96336
1.97895
1.98879
1.99289
1.99249
1.98374
1.95702
1.88251
1.64891
1.14068
0.200134
0.167871
2.88425
2.96763
2.75863
2.4018
2.18285
1.99204
1.87092
1.75591
1.76411
1.81244
1.86304
1.90637
1.9398
1.96336
1.97895
1.98879
1.99289
1.99249
1.98374
1.95702
1.88253
1.64899
1.14093
0.199597
0.168015
2.88425
2.96763
2.75863
2.4018
2.18285
1.99204
1.87092
1.75591
1.76411
1.81244
1.86304
1.90637
1.9398
1.96336
1.97895
1.98879
1.99289
1.99249
1.98374
1.95704
1.8826
1.6493
1.14188
0.197602
0.168558
2.88425
2.96763
2.75863
2.4018
2.18285
1.99204
1.87092
1.75591
1.76411
1.81244
1.86304
1.90637
1.9398
1.96336
1.97895
1.98879
1.99289
1.99249
1.98375
1.9571
1.88283
1.65035
1.14486
0.191546
0.170414
2.88425
2.96763
2.75863
2.4018
2.18285
1.99204
1.87092
1.75591
1.76411
1.81244
1.86304
1.90637
1.9398
1.96336
1.97895
1.98879
1.99289
1.9925
1.98381
1.95728
1.88355
1.65344
1.1531
0.17528
0.176492
2.88425
2.96763
2.75863
2.40181
2.18285
1.99204
1.87092
1.75591
1.76411
1.81244
1.86304
1.90637
1.9398
1.96336
1.97895
1.98879
1.9929
1.99254
1.98396
1.95781
1.88547
1.66113
1.1723
0.139675
0.194267
2.88425
2.96763
2.75863
2.4018
2.18285
1.99204
1.87092
1.75591
1.76411
1.81244
1.86304
1.90637
1.9398
1.96336
1.97895
1.98879
1.99294
1.99266
1.98436
1.95913
1.88987
1.67728
1.21067
0.0873416
0.235725
2.88425
2.96763
2.75863
2.4018
2.18285
1.99204
1.87092
1.75591
1.76411
1.81244
1.86304
1.90637
1.9398
1.96336
1.97895
1.9888
1.99302
1.99292
1.98521
1.96172
1.89792
1.70437
1.27213
0.130659
0.32183
2.88425
2.96763
2.75863
2.4018
2.18285
1.99204
1.87092
1.75591
1.76411
1.81244
1.86304
1.90637
1.9398
1.96336
1.97896
1.98884
1.99321
1.99344
1.98684
1.96637
1.91124
1.74618
1.36851
0.30946
0.444364
2.88425
2.96763
2.75863
2.4018
2.18285
1.99204
1.87092
1.75591
1.76411
1.81244
1.86304
1.90637
1.9398
1.96336
1.97897
1.9889
1.99353
1.99424
1.98932
1.97307
1.9299
1.79812
1.50414
0.543967
0.727058
2.88425
2.96763
2.75863
2.4018
2.18285
1.99204
1.87092
1.75591
1.76411
1.81244
1.86305
1.90637
1.9398
1.96336
1.97895
1.98879
1.99289
1.99249
1.98374
1.95702
1.88251
1.64891
1.14068
0.200134
0.167871
2.88424
2.96762
2.75862
2.4018
2.18284
1.99204
1.87091
1.7559
1.76411
1.81244
1.86305
1.90637
1.9398
1.96336
1.97895
1.98879
1.99289
1.99249
1.98374
1.95702
1.88253
1.64899
1.14093
0.199597
0.168015
2.88423
2.96762
2.75862
2.4018
2.18284
1.99204
1.87091
1.75591
1.76411
1.81244
1.86305
1.90637
1.9398
1.96336
1.97895
1.98879
1.99289
1.99249
1.98374
1.95704
1.8826
1.6493
1.14188
0.197602
0.168558
2.88486
2.96822
2.75891
2.40207
2.18307
1.99218
1.87094
1.75594
1.76414
1.81246
1.86305
1.90637
1.93981
1.96336
1.97895
1.98879
1.99289
1.99249
1.98375
1.9571
1.88283
1.65035
1.14486
0.191546
0.170414
2.88494
2.96841
2.75912
2.40219
2.18315
1.99223
1.87096
1.75595
1.76414
1.81246
1.86305
1.90637
1.93981
1.96336
1.97895
1.98879
1.99289
1.9925
1.98381
1.95728
1.88355
1.65344
1.1531
0.17528
0.176492
2.88152
2.96294
2.753
2.39732
2.17942
1.9904
1.87102
1.75618
1.76423
1.81253
1.8631
1.9064
1.93982
1.96337
1.97895
1.98879
1.9929
1.99254
1.98396
1.95781
1.88547
1.66113
1.1723
0.139675
0.194267
2.88494
2.9684
2.75911
2.40218
2.18315
1.99222
1.87096
1.75595
1.76414
1.81246
1.86305
1.90637
1.93981
1.96336
1.97895
1.98879
1.99294
1.99266
1.98436
1.95913
1.88987
1.67728
1.21067
0.0873415
0.235725
2.88485
2.96821
2.7589
2.40205
2.18306
1.99217
1.87093
1.75594
1.76414
1.81246
1.86305
1.90637
1.93981
1.96336
1.97895
1.9888
1.99302
1.99292
1.98521
1.96172
1.89792
1.70437
1.27213
0.130659
0.32183
2.88421
2.96761
2.75861
2.40179
2.18284
1.99203
1.8709
1.7559
1.76412
1.81244
1.86305
1.90637
1.9398
1.96336
1.97896
1.98884
1.99321
1.99344
1.98684
1.96637
1.91124
1.74618
1.36851
0.30946
0.444364
2.88485
2.96821
2.7589
2.40205
2.18306
1.99217
1.87093
1.75594
1.76414
1.81246
1.86305
1.90637
1.93981
1.96336
1.97897
1.9889
1.99353
1.99424
1.98932
1.97307
1.9299
1.79812
1.50414
0.543967
0.727058
2.88482
2.9682
2.75888
2.40205
2.18305
1.99216
1.87092
1.75594
1.76415
1.81246
1.86305
1.90637
1.93981
1.96336
1.97895
1.98879
1.99289
1.99249
1.98374
1.95702
1.88251
1.64891
1.14068
0.200133
0.167871
2.88493
2.9684
2.7591
2.40217
2.18314
1.99222
1.87095
1.75594
1.76414
1.81246
1.86305
1.90637
1.93981
1.96336
1.97895
1.98879
1.99289
1.99249
1.98374
1.95702
1.88253
1.64899
1.14093
0.199596
0.168015
2.88241
2.96382
2.75349
2.39773
2.17977
1.99061
1.87105
1.75623
1.76427
1.81255
1.86311
1.90641
1.93983
1.96337
1.97895
1.98879
1.99289
1.99249
1.98374
1.95704
1.8826
1.6493
1.14188
0.197602
0.168558
2.88469
2.96817
2.75897
2.40206
2.18306
1.99218
1.87096
1.75595
1.76414
1.81246
1.86305
1.90637
1.93981
1.96336
1.97895
1.98879
1.99289
1.99249
1.98375
1.9571
1.88283
1.65035
1.14486
0.191546
0.170414
2.88241
2.96382
2.75349
2.39774
2.17977
1.99061
1.87106
1.75623
1.76427
1.81255
1.86311
1.90641
1.93983
1.96337
1.97895
1.98879
1.99289
1.9925
1.98381
1.95728
1.88355
1.65344
1.1531
0.175279
0.176492
2.88494
2.96841
2.75911
2.40218
2.18315
1.99223
1.87096
1.75595
1.76414
1.81246
1.86305
1.90637
1.93981
1.96336
1.97895
1.98879
1.9929
1.99254
1.98396
1.95781
1.88547
1.66113
1.1723
0.139674
0.194267
2.88486
2.96822
2.7589
2.40206
2.18306
1.99217
1.87093
1.75594
1.76415
1.81246
1.86305
1.90637
1.93981
1.96336
1.97895
1.98879
1.99294
1.99266
1.98436
1.95913
1.88987
1.67728
1.21067
0.0873412
0.235725
2.88423
2.96762
2.75862
2.4018
2.18284
1.99203
1.87091
1.7559
1.76412
1.81244
1.86305
1.90637
1.9398
1.96336
1.97895
1.9888
1.99302
1.99292
1.98521
1.96172
1.89792
1.70437
1.27213
0.130659
0.32183
2.88424
2.96762
2.75862
2.4018
2.18284
1.99203
1.87091
1.7559
1.76411
1.81244
1.86305
1.90637
1.93981
1.96336
1.97896
1.98884
1.99321
1.99344
1.98684
1.96637
1.91124
1.74618
1.36851
0.30946
0.444364
2.88425
2.96763
2.75863
2.4018
2.18285
1.99204
1.87092
1.75591
1.76411
1.81244
1.86305
1.90637
1.93981
1.96336
1.97897
1.9889
1.99353
1.99424
1.98932
1.97307
1.9299
1.79812
1.50414
0.543967
0.727058
2.8842
2.9676
2.7586
2.40182
2.18286
1.99204
1.87091
1.75593
1.76415
1.81248
1.86308
1.90639
1.93983
1.96338
1.97897
1.98881
1.99291
1.99251
1.98376
1.95704
1.88253
1.64888
1.14081
0.200607
0.168459
2.88505
2.96851
2.75913
2.40205
2.18299
1.99212
1.87095
1.75601
1.76422
1.81252
1.8631
1.9064
1.93983
1.96338
1.97897
1.98881
1.99291
1.9925
1.98376
1.95705
1.88256
1.64905
1.14104
0.199719
0.168446
2.88489
2.96837
2.75911
2.40221
2.18317
1.99223
1.87096
1.75597
1.76418
1.81249
1.86308
1.9064
1.93983
1.96338
1.97897
1.98881
1.99291
1.99251
1.98376
1.95706
1.88261
1.64927
1.142
0.198063
0.169148
2.88178
2.96342
2.75339
2.39712
2.17908
1.99014
1.87101
1.75628
1.76435
1.81262
1.86317
1.90645
1.93986
1.96339
1.97897
1.98881
1.99291
1.99251
1.98377
1.95711
1.88284
1.65031
1.14498
0.192027
0.170997
2.88547
2.96892
2.75934
2.40243
2.18337
1.99237
1.87099
1.75601
1.76421
1.8125
1.86309
1.9064
1.93983
1.96338
1.97897
1.98881
1.99291
1.99252
1.98382
1.9573
1.88357
1.65341
1.15322
0.175789
0.177049
2.88637
2.96996
2.75996
2.40276
2.18356
1.99244
1.87098
1.75608
1.76429
1.81256
1.86312
1.90642
1.93984
1.96338
1.97897
1.9888
1.99292
1.99256
1.98397
1.95783
1.88549
1.6611
1.17242
0.140265
0.194754
2.88189
2.96338
2.75326
2.39754
2.1796
1.99052
1.87105
1.75623
1.76429
1.81258
1.86314
1.90643
1.93985
1.96339
1.97897
1.98881
1.99295
1.99268
1.98438
1.95915
1.88989
1.67732
1.21077
0.0879041
0.236009
2.88268
2.96417
2.75365
2.39792
2.17992
1.99073
1.87109
1.75629
1.76435
1.8126
1.86315
1.90644
1.93985
1.96339
1.97897
1.98882
1.99304
1.99293
1.98523
1.96174
1.89794
1.70437
1.27225
0.130973
0.322058
2.88574
2.96924
2.75953
2.40261
2.18352
1.99246
1.871
1.75603
1.76423
1.81252
1.86309
1.9064
1.93983
1.96338
1.97898
1.98885
1.99323
1.99345
1.98686
1.96638
1.91126
1.74616
1.36858
0.309452
0.444532
2.88348
2.96506
2.75427
2.39795
2.17976
1.99052
1.87102
1.75638
1.76445
1.81268
1.8632
1.90646
1.93986
1.9634
1.97899
1.98891
1.99355
1.99425
1.98934
1.97309
1.92992
1.79813
1.50421
0.543984
0.727185
2.88571
2.96918
2.75949
2.40252
2.18343
1.9924
1.87097
1.75601
1.76421
1.81251
1.86309
1.9064
1.93983
1.96339
1.97901
1.98904
1.99417
1.99567
1.9936
1.98455
1.95904
1.88784
1.70117
1.18915
1.06429
2.88231
2.96373
2.75344
2.39772
2.17973
1.99056
1.871
1.75623
1.76431
1.81258
1.86314
1.90644
1.93985
1.96341
1.97904
1.98908
1.99454
1.99677
1.99676
1.99313
1.98202
1.95113
1.86553
1.63179
1.36658
2.88546
2.96892
2.75931
2.40238
2.18331
1.99233
1.87095
1.75599
1.7642
1.8125
1.86309
1.9064
1.93983
1.96339
1.97903
1.98911
1.99462
1.99737
1.99823
1.99764
1.99437
1.98485
1.95901
1.88637
1.72203
2.88631
2.96975
2.75974
2.40275
2.18363
1.99251
1.87098
1.75604
1.76424
1.81252
1.86309
1.9064
1.93983
1.96339
1.97903
1.98912
1.99464
1.99748
1.99877
1.99906
1.9985
1.99626
1.99009
1.97341
1.93238
2.88241
2.96387
2.75351
2.39777
2.17978
1.9906
1.87102
1.75625
1.76432
1.81259
1.86315
1.90644
1.93985
1.96341
1.97904
1.98912
1.99465
1.9975
1.99888
1.99946
1.99956
1.99923
1.9981
1.99522
1.98817
2.88313
2.96464
2.754
2.39816
2.1801
1.9908
1.87107
1.75629
1.76434
1.8126
1.86315
1.90644
1.93985
1.96341
1.97904
1.98912
1.99465
1.9975
1.99889
1.99953
1.99978
1.99982
1.99966
1.9992
1.99809
2.88371
2.96517
2.75425
2.3984
2.18031
1.99093
1.87109
1.75633
1.76437
1.81262
1.86316
1.90644
1.93986
1.96341
1.97904
1.98912
1.99465
1.9975
1.99889
1.99954
1.99982
1.99993
1.99994
1.99989
1.99972
2.88378
2.96526
2.75427
2.3984
2.18032
1.99096
1.87112
1.75635
1.76437
1.81261
1.86316
1.90644
1.93985
1.96341
1.97904
1.98912
1.99465
1.9975
1.99889
1.99954
1.99982
1.99994
1.99999
1.99999
1.99998
2.88312
2.96463
2.75399
2.39815
2.18009
1.99079
1.87106
1.75629
1.76435
1.81261
1.86316
1.90644
1.93985
1.96341
1.97904
1.98912
1.99465
1.9975
1.99889
1.99954
1.99982
1.99995
1.99999
2.00001
2.00001
2.88322
2.96467
2.7539
2.3981
2.18007
1.9908
1.87107
1.7563
1.76435
1.8126
1.86315
1.90644
1.93985
1.9634
1.97904
1.98912
1.99465
1.9975
1.99889
1.99954
1.99982
1.99995
1.99999
2.00001
2.00002
2.88665
2.9702
2.76004
2.403
2.18383
1.99263
1.871
1.75607
1.76426
1.81253
1.8631
1.90641
1.93983
1.96339
1.97903
1.98911
1.99465
1.9975
1.99889
1.99954
1.99982
1.99995
1.99999
2.00001
2.00002
2.88251
2.96397
2.75358
2.39783
2.17982
1.99062
1.87102
1.75625
1.76432
1.81259
1.86315
1.90644
1.93985
1.96341
1.97904
1.98912
1.99465
1.9975
1.99889
1.99954
1.99982
1.99995
1.99999
2.00001
2.00002
2.88259
2.96406
2.75361
2.39783
2.17983
1.99065
1.87105
1.75626
1.76432
1.81259
1.86315
1.90644
1.93985
1.9634
1.97904
1.98912
1.99465
1.9975
1.99889
1.99954
1.99982
1.99995
1.99999
2.00001
2.00002
2.88665
2.9702
2.76004
2.403
2.18383
1.99263
1.871
1.75607
1.76426
1.81253
1.8631
1.90641
1.93983
1.96339
1.97903
1.98911
1.99465
1.9975
1.99889
1.99954
1.99982
1.99995
1.99999
2.00001
2.00002
2.88315
2.96458
2.75388
2.3981
2.18007
1.99078
1.87105
1.75629
1.76435
1.8126
1.86315
1.90644
1.93985
1.96341
1.97904
1.98912
1.99465
1.9975
1.99889
1.99954
1.99982
1.99995
1.99999
2.00001
2.00002
2.88319
2.96472
2.75403
2.39816
2.1801
1.99082
1.8711
1.75631
1.76434
1.8126
1.86315
1.90644
1.93985
1.96341
1.97904
1.98912
1.99465
1.9975
1.99889
1.99954
1.99982
1.99995
1.99999
2.00001
2.00002
2.88319
2.96471
2.75403
2.39815
2.1801
1.99082
1.8711
1.7563
1.76434
1.8126
1.86315
1.90644
1.93985
1.96341
1.97904
1.98912
1.99465
1.9975
1.99889
1.99954
1.99982
1.99995
1.99999
2.00001
2.00002
2.8832
2.96466
2.75391
2.3981
2.18007
1.9908
1.87107
1.7563
1.76435
1.8126
1.86315
1.90644
1.93985
1.9634
1.97904
1.98912
1.99465
1.9975
1.99889
1.99954
1.99982
1.99995
1.99999
2.00001
2.00002
2.88663
2.97019
2.76003
2.40299
2.18382
1.99263
1.87099
1.75607
1.76426
1.81253
1.8631
1.90641
1.93983
1.96339
1.97903
1.98911
1.99465
1.9975
1.99889
1.99954
1.99982
1.99995
1.99999
2.00001
2.00002
2.88321
2.96467
2.7539
2.3981
2.18007
1.9908
1.87106
1.7563
1.76435
1.8126
1.86315
1.90644
1.93985
1.9634
1.97904
1.98912
1.99465
1.9975
1.99889
1.99954
1.99982
1.99995
1.99999
2.00001
2.00002
2.88312
2.96463
2.754
2.39815
2.18009
1.99079
1.87107
1.75629
1.76435
1.8126
1.86315
1.90644
1.93985
1.96341
1.97904
1.98912
1.99465
1.9975
1.99889
1.99954
1.99982
1.99995
1.99999
2.00001
2.00002
2.88377
2.96525
2.75427
2.39839
2.18031
1.99096
1.87112
1.75634
1.76437
1.81261
1.86316
1.90644
1.93985
1.96341
1.97904
1.98912
1.99465
1.9975
1.99889
1.99954
1.99982
1.99995
1.99999
2.00001
2.00002
2.88312
2.96463
2.754
2.39816
2.18009
1.99079
1.87107
1.75629
1.76435
1.8126
1.86315
1.90644
1.93985
1.96341
1.97904
1.98912
1.99465
1.9975
1.99889
1.99954
1.99982
1.99995
1.99999
2.00001
2.00002
2.88321
2.96466
2.7539
2.39809
2.18006
1.9908
1.87106
1.7563
1.76435
1.8126
1.86315
1.90644
1.93985
1.9634
1.97904
1.98912
1.99465
1.9975
1.99889
1.99954
1.99982
1.99995
1.99999
2.00001
2.00002
2.88666
2.97024
2.76004
2.40299
2.18383
1.99264
1.871
1.75607
1.76426
1.81253
1.8631
1.90641
1.93983
1.96339
1.97903
1.98911
1.99465
1.9975
1.99889
1.99954
1.99982
1.99995
1.99999
2.00001
2.00002
2.88313
2.96457
2.75387
2.39809
2.18005
1.99076
1.87103
1.75629
1.76435
1.81261
1.86316
1.90644
1.93985
1.96341
1.97904
1.98912
1.99465
1.9975
1.99889
1.99954
1.99982
1.99995
1.99999
2.00001
2.00002
2.8832
2.96473
2.75403
2.39816
2.18011
1.99083
1.8711
1.7563
1.76435
1.8126
1.86315
1.90644
1.93985
1.96341
1.97904
1.98912
1.99465
1.9975
1.99889
1.99954
1.99982
1.99995
1.99999
2.00001
2.00002
2.8837
2.96516
2.75424
2.39838
2.1803
1.99092
1.87109
1.75633
1.76437
1.81262
1.86316
1.90645
1.93986
1.96341
1.97904
1.98912
1.99465
1.9975
1.99889
1.99954
1.99982
1.99995
1.99999
2.00001
2.00002
2.88312
2.96463
2.754
2.39816
2.1801
1.9908
1.87107
1.75629
1.76435
1.8126
1.86315
1.90644
1.93985
1.96341
1.97904
1.98912
1.99465
1.9975
1.99889
1.99954
1.99982
1.99995
1.99999
2.00001
2.00002
2.88321
2.96467
2.7539
2.3981
2.18007
1.9908
1.87107
1.7563
1.76435
1.8126
1.86315
1.90644
1.93985
1.9634
1.97904
1.98912
1.99465
1.9975
1.99889
1.99954
1.99982
1.99995
1.99999
2.00001
2.00002
2.88668
2.97024
2.76005
2.403
2.18384
1.99265
1.87101
1.75607
1.76426
1.81253
1.8631
1.90641
1.93983
1.96339
1.97903
1.98912
1.99465
1.9975
1.99889
1.99954
1.99982
1.99995
1.99999
2.00001
2.00002
2.88257
2.96406
2.75362
2.39783
2.17984
1.99066
1.87105
1.75626
1.76432
1.81259
1.86314
1.90644
1.93985
1.9634
1.97904
1.98912
1.99465
1.9975
1.99889
1.99954
1.99982
1.99995
1.99999
2.00001
2.00002
2.88259
2.96407
2.75363
2.39784
2.17985
1.99067
1.87106
1.75626
1.76432
1.81259
1.86314
1.90644
1.93985
1.96341
1.97904
1.98912
1.99465
1.9975
1.99889
1.99954
1.99982
1.99995
1.99999
2.00001
2.00002
2.88669
2.97024
2.76006
2.40301
2.18384
1.99265
1.87102
1.75607
1.76426
1.81253
1.8631
1.90641
1.93983
1.96339
1.97903
1.98912
1.99465
1.9975
1.99889
1.99954
1.99982
1.99995
1.99999
2.00001
2.00002
2.8826
2.96407
2.75363
2.39785
2.17986
1.99067
1.87107
1.75627
1.76432
1.81259
1.86314
1.90644
1.93985
1.9634
1.97904
1.98912
1.99465
1.9975
1.99889
1.99954
1.99982
1.99995
1.99999
2.00001
2.00002
2.88254
2.96399
2.7536
2.39784
2.17984
1.99063
1.87103
1.75625
1.76432
1.81259
1.86315
1.90644
1.93985
1.96341
1.97904
1.98912
1.99465
1.9975
1.99889
1.99954
1.99982
1.99995
1.99999
2.00001
2.00002
2.88571
2.96921
2.7595
2.40256
2.18346
1.99242
1.87098
1.75602
1.76422
1.81251
1.86309
1.9064
1.93983
1.96339
1.97903
1.98912
1.99465
1.9975
1.99889
1.99954
1.99982
1.99995
1.99999
2.00001
2.00002
2.88331
2.96471
2.75393
2.39814
2.1801
1.99082
1.87108
1.75631
1.76435
1.8126
1.86315
1.90644
1.93985
1.9634
1.97903
1.98912
1.99465
1.9975
1.99889
1.99954
1.99982
1.99995
1.99999
2.00001
2.00002
2.88586
2.96945
2.7597
2.40246
2.1833
1.9923
1.87098
1.75605
1.76425
1.81254
1.86311
1.90641
1.93984
1.9634
1.97903
1.98911
1.99465
1.9975
1.99889
1.99954
1.99982
1.99995
1.99999
2.00001
2.00002
2.88255
2.96401
2.75362
2.39787
2.17987
1.99066
1.87104
1.75626
1.76432
1.81259
1.86315
1.90644
1.93985
1.9634
1.97904
1.98912
1.99465
1.9975
1.99889
1.99954
1.99982
1.99995
1.99999
2.00001
2.00002
2.88424
2.96762
2.75862
2.4018
2.18284
1.99203
1.87091
1.7559
1.76411
1.81244
1.86305
1.90637
1.93981
1.96337
1.97899
1.98903
1.99416
1.99565
1.99358
1.98453
1.95902
1.88782
1.70112
1.18911
1.06418
2.88423
2.96762
2.75862
2.4018
2.18284
1.99204
1.87091
1.75591
1.76412
1.81244
1.86305
1.90637
1.93981
1.96337
1.97901
1.98906
1.99452
1.99675
1.99674
1.99311
1.982
1.95111
1.86548
1.63171
1.36647
2.88486
2.96822
2.75891
2.40206
2.18307
1.99218
1.87093
1.75594
1.76414
1.81246
1.86305
1.90637
1.93981
1.96337
1.97901
1.98909
1.9946
1.99735
1.99821
1.99762
1.99435
1.98482
1.95898
1.88632
1.72194
2.88493
2.9684
2.75911
2.40218
2.18314
1.99222
1.87095
1.75594
1.76414
1.81246
1.86305
1.90637
1.93981
1.96337
1.97901
1.9891
1.99462
1.99746
1.99875
1.99904
1.99848
1.99624
1.99007
1.97338
1.93233
2.88151
2.96294
2.753
2.39732
2.17941
1.99039
1.87101
1.75617
1.76423
1.81253
1.8631
1.9064
1.93983
1.96338
1.97902
1.9891
1.99463
1.99748
1.99886
1.99944
1.99954
1.99921
1.99808
1.9952
1.98815
2.88549
2.96893
2.75934
2.40241
2.18335
1.99235
1.87098
1.75598
1.76417
1.81247
1.86306
1.90638
1.93981
1.96337
1.97901
1.9891
1.99463
1.99748
1.99887
1.99951
1.99976
1.9998
1.99964
1.99918
1.99806
2.88549
2.96893
2.75934
2.4024
2.18334
1.99235
1.87097
1.75598
1.76417
1.81247
1.86306
1.90638
1.93981
1.96337
1.97901
1.9891
1.99463
1.99748
1.99887