/*--------------------------------*- C++ -*----------------------------------*\
| =========                 |                                                 |
| \\      /  F ield         | OpenFOAM: The Open Source CFD Toolbox           |
|  \\    /   O peration     | Version:  4.1                                   |
|   \\  /    A nd           | Web:      www.OpenFOAM.org                      |
|    \\/     M anipulation  |                                                 |
\*---------------------------------------------------------------------------*/
FoamFile
{
    version     2.0;
    format      ascii;
    class       surfaceScalarField;
    location    "0.08";
    object      phi;
}
// * * * * * * * * * * * * * * * * * * * * * * * * * * * * * * * * * * * * * //

dimensions      [1 0 -1 0 0 0 0];

internalField   nonuniform List<scalar> 
150500
(
0.00210439
8.21219e-09
8.81287e-11
0.00220196
1.23587e-08
-8.96872e-12
0.0020344
9.33947e-09
-3.78575e-11
0.00236192
9.10187e-10
-9.7797e-11
0.00302393
-1.07553e-08
-2.04088e-10
0.00412521
-2.04084e-08
-3.62679e-10
0.0061103
-3.15034e-08
-6.27187e-10
0.00702625
-3.05254e-08
-2.995e-10
0.00787646
-1.78867e-08
-1.75656e-10
0.00874381
-7.0669e-09
-1.4294e-10
0.00951582
1.78548e-09
-1.15158e-10
0.010124
7.0897e-09
-9.00181e-11
0.0105573
8.43402e-09
-7.07259e-11
0.010841
7.1302e-09
-5.89844e-11
0.011012
5.14108e-09
-5.1564e-11
0.0111048
3.13481e-09
-4.70493e-11
0.0111625
1.73606e-09
-4.59638e-11
0.0111806
8.88649e-10
-4.67819e-11
0.0111512
9.16044e-10
-5.0214e-11
0.0110376
3.75829e-09
-6.04426e-11
0.0107279
2.30301e-08
-9.82689e-11
0.0100127
1.38081e-07
-2.25661e-10
0.00750082
1.0054e-06
-8.82385e-10
-0.00113753
8.223e-06
-2.90819e-09
4.47636e-05
-2.11925e-09
0.00210439
2.68377e-08
1.08559e-10
0.00220195
3.17136e-08
5.27832e-11
0.00203436
6.89404e-09
4.4068e-11
0.0023619
-2.74452e-08
2.24441e-11
0.00302396
-7.59305e-08
-2.53499e-11
0.00412536
-1.29928e-07
-1.26546e-10
0.00611048
-1.61811e-07
-3.17485e-10
0.00702637
-1.16038e-07
-1.43797e-10
0.00787652
-5.90787e-08
-1.11129e-10
0.00874383
-2.27571e-08
-1.07813e-10
0.00951582
-1.1494e-09
-9.37502e-11
0.010124
9.27973e-09
-7.86462e-11
0.0105572
1.44508e-08
-6.58172e-11
0.010841
1.44222e-08
-5.73609e-11
0.011012
1.00826e-08
-5.21971e-11
0.0111048
6.38598e-09
-4.78382e-11
0.0111625
3.61844e-09
-4.67861e-11
0.0111806
2.59426e-09
-4.73392e-11
0.0111512
5.73131e-09
-5.02385e-11
0.0110376
2.30932e-08
-5.91408e-11
0.0107281
1.14401e-07
-9.27594e-11
0.0100133
6.07979e-07
-2.05945e-10
0.00750497
4.14935e-06
-8.01649e-10
-0.00112496
3.12521e-05
-2.82062e-09
0.000159893
-1.85562e-09
0.00210446
5.10684e-08
-4.34555e-10
0.00220207
4.9005e-08
-4.63981e-10
0.00203424
1.18456e-08
-4.54288e-10
0.00236155
-9.18593e-08
-3.91509e-10
0.00302352
-2.22204e-07
-3.164e-10
0.00412525
-3.50761e-07
-1.22058e-10
0.00611063
-4.07651e-07
6.11797e-10
0.00702673
-2.37449e-07
5.22329e-10
0.00787694
-1.08733e-07
-5.19607e-11
0.00874417
-4.64878e-08
-1.339e-10
0.00951605
-1.34978e-08
-1.27698e-10
0.0101241
6.8699e-09
-1.05124e-10
0.0105573
1.34808e-08
-8.17759e-11
0.010841
1.31142e-08
-6.11966e-11
0.011012
1.0636e-08
-5.5162e-11
0.0111048
6.80706e-09
-4.98818e-11
0.0111625
4.97697e-09
-4.77511e-11
0.0111806
9.58464e-09
-4.54816e-11
0.0111512
3.1575e-08
-4.28827e-11
0.0110378
1.22739e-07
-3.11056e-11
0.0107287
5.18807e-07
-1.1879e-11
0.0100153
2.44566e-06
6.21675e-11
0.00751821
1.5825e-05
8.49161e-10
-0.00108323
0.000100586
-2.14061e-09
0.00047688
-3.27459e-09
0.00210485
-1.59529e-07
-1.04183e-11
0.00220247
-4.2541e-07
6.52605e-11
0.00203527
-5.97076e-07
9.41879e-11
0.0023636
-6.59393e-07
1.43733e-10
0.00302627
-6.76298e-07
2.17909e-10
0.00412732
-5.26669e-07
2.91292e-10
0.00611112
-3.00526e-07
3.92362e-10
0.00702675
-1.61342e-07
1.30307e-10
0.00787687
-1.22631e-07
6.37092e-12
0.00874411
-9.29066e-08
-1.32856e-11
0.00951602
-5.68863e-08
-2.46745e-11
0.0101241
-2.5217e-08
-3.78997e-11
0.0105573
-4.43623e-09
-4.79609e-11
0.010841
5.82804e-09
-5.2769e-11
0.011012
6.68376e-09
-5.18685e-11
0.0111048
4.53092e-09
-4.83546e-11
0.0111625
7.71196e-09
-4.74035e-11
0.0111806
3.1662e-08
-4.53768e-11
0.0111514
1.15809e-07
-4.26515e-11
0.0110384
4.33511e-07
-3.00095e-11
0.0107312
1.72387e-06
-7.00939e-12
0.0100221
7.62931e-06
8.02046e-11
0.00756426
4.65469e-05
9.22093e-10
-0.000952796
0.000274727
-2.03874e-09
0.00124817
-2.9055e-09
0.00210558
-7.26356e-07
-6.66246e-10
0.00220332
-1.32803e-06
-5.14585e-10
0.00203587
-1.60631e-06
-4.67373e-10
0.0023644
-1.53526e-06
-3.35585e-10
0.0030273
-1.23094e-06
-1.36957e-10
0.0041284
-5.83208e-07
2.55538e-10
0.00611174
5.29502e-08
1.31743e-09
0.00702738
4.09805e-08
7.4206e-10
0.00787742
-7.6205e-08
4.50683e-11
0.0087445
-1.0211e-07
-4.9753e-11
0.00951626
-8.12578e-08
-6.78569e-11
0.0101243
-4.91058e-08
-7.25127e-11
0.0105574
-2.17715e-08
-7.01812e-11
0.010841
-5.2227e-09
-6.11026e-11
0.011012
4.35334e-10
-5.71978e-11
0.0111048
-2.00367e-11
-5.14545e-11
0.0111625
1.84488e-08
-4.94097e-11
0.0111807
1.02403e-07
-4.68156e-11
0.0111519
3.70397e-07
-4.35281e-11
0.0110403
1.31418e-06
-3.03694e-11
0.0107382
4.90181e-06
-7.28589e-12
0.0100406
2.03473e-05
8.05373e-11
0.00768537
0.000115232
9.0957e-10
-0.000618421
0.000634146
-1.92231e-09
0.00281636
-2.50589e-09
0.00210282
4.99279e-08
5.91305e-10
0.00219821
2.78407e-08
4.49179e-10
0.0020298
-2.28163e-08
4.05614e-10
0.00235488
-1.04626e-07
2.91365e-10
0.00301642
-2.2059e-07
1.33464e-10
0.00412317
-3.45367e-07
-1.47503e-10
0.0061105
-4.15883e-07
-9.3061e-10
0.00702774
-2.48998e-07
-5.90837e-10
0.00787791
-1.25611e-07
-1.95694e-11
0.00874491
-6.14747e-08
3.71664e-11
0.00951655
-2.47274e-08
1.25726e-11
0.0101244
-3.83449e-09
-1.96363e-11
0.0105575
3.93503e-09
-4.32962e-11
0.0108411
6.85348e-09
-6.38139e-11
0.011012
8.36512e-09
-5.68859e-11
0.0111048
3.33446e-09
-4.99943e-11
0.0111624
5.66024e-08
-4.86025e-11
0.011181
3.04081e-07
-4.64711e-11
0.0111533
1.03778e-06
-4.37567e-11
0.0110452
3.45189e-06
-3.18834e-11
0.0107547
1.20022e-05
-1.569e-11
0.0100809
4.61975e-05
5.09262e-11
0.00794168
0.000239694
7.1608e-10
9.51611e-05
0.00122409
-1.73501e-09
0.00543943
-2.00932e-09
0.00210346
4.81632e-07
4.68158e-10
0.00219894
7.75897e-07
4.02778e-10
0.0020309
8.74738e-07
3.68804e-10
0.00235682
7.56283e-07
2.71802e-10
0.00301893
4.79709e-07
1.51081e-10
0.00412515
3.09297e-08
-5.07508e-11
0.00611116
-5.56744e-07
-6.78586e-10
0.00702808
-3.29014e-07
-5.3735e-10
0.00787816
-9.06563e-08
1.17106e-11
0.00874509
-1.14507e-08
7.92531e-11
0.00951667
1.63e-08
4.82998e-11
0.0101245
1.92743e-08
3.71479e-12
0.0105575
1.37358e-08
-3.074e-11
0.0108411
6.78919e-09
-5.82436e-11
0.011012
1.1702e-08
-5.39024e-11
0.0111048
5.16256e-09
-4.82614e-11
0.0111621
1.57308e-07
-4.75923e-11
0.0111815
7.62257e-07
-4.76582e-11
0.0111561
2.45156e-06
-4.81465e-11
0.0110552
7.6468e-06
-5.1916e-11
0.0107867
2.45888e-05
-6.63177e-11
0.0101526
8.71127e-05
-1.2352e-10
0.00837536
0.000403852
-3.91935e-10
0.00135478
0.0018892
-2.20151e-09
0.00905229
-1.09932e-10
0.00210642
-4.63766e-07
-3.84947e-10
0.0022042
-7.58011e-07
-3.47974e-11
0.00203723
-8.74262e-07
3.19087e-11
0.00236706
-7.83496e-07
1.60401e-10
0.00303116
-5.30442e-07
4.0907e-10
0.00413175
-1.24727e-07
8.14199e-10
0.00611273
3.67856e-07
1.49764e-09
0.00702768
1.93388e-07
4.93884e-10
0.00787753
9.50008e-09
1.97279e-10
0.00874454
-4.2854e-08
1.51252e-10
0.00951628
-4.69123e-08
8.85504e-11
0.0101243
-3.56397e-08
2.19632e-11
0.0105574
-2.16947e-08
-2.5905e-11
0.010841
-9.63011e-09
-5.1713e-11
0.011012
1.02732e-08
-5.49502e-11
0.0111049
1.63082e-08
-5.12953e-11
0.0111615
3.70736e-07
-4.93437e-11
0.0111825
1.63951e-06
-4.77133e-11
0.0111606
5.04463e-06
-4.74029e-11
0.0110701
1.47905e-05
-4.18374e-11
0.0108314
4.43632e-05
-6.14196e-11
0.0102482
0.000145485
-7.04876e-11
0.00884058
0.000608131
-5.19029e-11
0.00277216
0.00265764
-2.88362e-09
0.0132068
-2.33031e-10
0.00210345
-1.86434e-08
3.81995e-10
0.00219894
-2.01504e-08
4.19067e-10
0.00203091
-2.35389e-11
4.14816e-10
0.00235687
3.54611e-08
3.75865e-10
0.00301905
8.37043e-08
3.55256e-10
0.00412533
1.29435e-07
2.93948e-10
0.00611126
1.41838e-07
-1.14845e-10
0.00702814
8.71684e-08
-3.23477e-10
0.00787818
3.6846e-08
1.06849e-10
0.00874509
1.4826e-08
1.49969e-10
0.00951666
4.48026e-09
9.78627e-11
0.0101245
-1.40568e-09
3.22827e-11
0.0105575
-3.19846e-09
-1.71402e-11
0.010841
-3.58363e-09
-5.30237e-11
0.011012
3.14548e-08
-5.24504e-11
0.011105
6.02421e-08
-4.83527e-11
0.0111603
6.94975e-07
-4.69274e-11
0.0111838
2.95473e-06
-4.51049e-11
0.0111664
8.76717e-06
-4.56344e-11
0.0110892
2.48435e-05
-3.51962e-11
0.0108875
6.98285e-05
-5.79082e-11
0.0103825
0.000215112
-1.78928e-11
0.00930174
0.000799194
1.12901e-10
0.00442779
0.00330869
-7.81034e-10
0.0181035
-1.18737e-09
0.0021035
3.6943e-10
3.99567e-07
0.00219896
4.07108e-10
7.16081e-07
0.00203084
4.01455e-10
8.70067e-07
0.00235678
3.63885e-10
8.43778e-07
0.003019
3.48232e-10
6.97526e-07
0.00412549
2.99477e-10
3.00774e-07
0.00611148
-8.76706e-11
-6.3622e-08
0.00702824
-2.66651e-10
-4.86897e-08
0.00787818
1.39474e-10
5.35594e-08
0.00874504
1.53859e-10
7.20863e-08
0.00951661
8.7691e-11
5.77302e-08
0.0101245
1.82211e-11
3.44887e-08
0.0105575
-2.98034e-11
2.1017e-08
0.010841
-6.14701e-11
2.14559e-09
0.0110121
-5.88145e-11
6.65453e-08
0.0111053
-5.21271e-11
1.32005e-07
0.0111585
-4.95723e-11
1.06595e-06
0.0111848
-4.84284e-11
4.624e-06
0.0111725
-4.58976e-11
1.36186e-05
0.0111097
-4.43703e-11
3.76097e-05
0.0109444
-4.6925e-11
0.000102485
0.0105078
-8.06937e-11
0.000296034
0.00957358
-6.38085e-11
0.00102752
0.00608982
-6.78037e-10
0.00386879
-7.90294e-10
0.0240365
0.00210487
-1.99295e-07
-1.01667e-10
0.00220247
-4.61568e-07
8.91703e-12
0.00203523
-6.0698e-07
4.68504e-11
0.00236362
-6.11483e-07
1.22058e-10
0.00302642
-5.28132e-07
2.53773e-10
0.0041276
-2.66001e-07
4.52931e-10
0.00611133
2.26089e-08
8.13264e-10
0.00702682
2.20727e-08
3.25892e-10
0.00787685
-3.35288e-08
1.22855e-10
0.00874406
-5.60039e-08
7.29734e-11
0.00951598
-5.18174e-08
4.22731e-11
0.0101241
-3.70854e-08
1.69754e-11
0.0105573
-2.2355e-08
1.36192e-12
0.010841
-1.21941e-08
-6.20143e-12
0.011012
-6.32787e-09
-6.56707e-12
0.0111048
-3.41198e-09
-4.24397e-12
0.0111625
-1.97384e-09
-3.72331e-12
0.0111806
-9.79262e-10
-3.20426e-12
0.0111512
9.56449e-10
-2.40155e-12
0.0110375
7.00098e-09
-1.79475e-12
0.0107278
3.43383e-08
-4.53714e-13
0.0100125
1.77564e-07
2.77392e-13
0.00749982
1.25116e-06
-2.15708e-12
-0.00113973
8.72118e-06
-1.16199e-11
4.40032e-05
-1.19379e-11
0.00210483
-3.83883e-07
-1.30855e-10
0.00220244
-7.1555e-07
-6.70043e-11
0.00203487
-8.81183e-07
-5.42258e-11
0.00236283
-8.71642e-07
-2.37803e-11
0.00302539
-7.50196e-07
4.01315e-11
0.00412675
-3.68959e-07
1.73951e-10
0.00611109
5.02277e-08
4.50176e-10
0.00702676
5.02327e-08
1.74674e-10
0.00787681
-6.38279e-08
8.17829e-11
0.00874403
-8.97475e-08
5.36997e-11
0.00951596
-7.63052e-08
3.0268e-11
0.0101241
-5.1141e-08
1.03149e-11
0.0105573
-2.7832e-08
-1.68351e-12
0.010841
-1.15378e-08
-6.3543e-12
0.011012
-5.96138e-09
-5.00258e-12
0.0111048
-2.75029e-09
-3.02041e-12
0.0111625
-1.17845e-09
-2.47003e-12
0.0111806
1.03025e-09
-2.09559e-12
0.0111512
7.23927e-09
-1.52049e-12
0.0110376
3.25422e-08
-1.00833e-12
0.010728
1.4503e-07
-2.7156e-13
0.0100131
7.1646e-07
3.65076e-15
0.00750384
4.862e-06
-2.26194e-12
-0.00112735
3.23357e-05
-1.17215e-11
0.000157986
-1.35451e-11
0.00210338
3.87571e-08
4.82741e-10
0.00219886
3.34771e-08
5.10319e-10
0.00203073
3.31253e-08
4.98479e-10
0.00235645
3.33366e-08
4.35611e-10
0.00301825
3.81266e-08
3.6152e-10
0.00412442
3.64492e-08
1.79071e-10
0.00611094
-3.67903e-08
-6.33967e-10
0.00702794
-3.53291e-08
-4.82827e-10
0.00787797
5.40252e-09
9.06546e-11
0.00874493
3.44224e-09
1.56744e-10
0.00951656
-1.33269e-09
1.15927e-10
0.0101245
-4.14347e-09
6.09561e-11
0.0105575
-4.37655e-09
2.58339e-11
0.0108411
-5.18707e-09
-1.47464e-12
0.011012
-2.91262e-09
-2.08275e-12
0.0111049
-1.94985e-09
-1.09726e-12
0.0111625
2.76806e-11
-1.60066e-12
0.0111806
7.06542e-09
-1.62325e-12
0.0111512
3.1109e-08
-1.34695e-12
0.0110378
1.25652e-07
-1.33599e-12
0.0107288
5.29752e-07
-5.00704e-13
0.0100153
2.48336e-06
1.12335e-13
0.00751887
1.60547e-05
-1.10706e-12
-0.00108292
0.000101064
-1.08943e-11
0.000476052
-1.3119e-11
0.00210466
-3.8685e-08
1.86703e-11
0.00220224
-3.33463e-08
-7.02573e-11
0.00203456
-3.2588e-08
-9.60563e-11
0.00236225
-3.14685e-08
-1.35052e-10
0.00302463
-3.00051e-08
-1.89474e-10
0.00412621
-2.17538e-08
-2.26794e-10
0.00611086
5.32883e-08
-2.3085e-10
0.00702667
4.58954e-08
-5.37965e-11
0.00787678
-5.88161e-09
2.98094e-12
0.00874403
-1.0702e-08
-1.05497e-12
0.00951597
-9.35989e-09
-1.2209e-11
0.0101241
-7.01861e-09
-1.14006e-11
0.0105573
-4.61281e-09
-9.74658e-12
0.010841
-1.41502e-09
-8.84167e-12
0.011012
-1.01777e-09
-4.56193e-12
0.0111049
-1.14956e-09
-2.22411e-12
0.0111625
4.39306e-09
-1.35083e-12
0.0111807
2.97713e-08
-9.8667e-13
0.0111514
1.1494e-07
-5.15045e-13
0.0110384
4.33413e-07
5.31891e-14
0.0107312
1.7243e-06
2.70283e-13
0.0100222
7.62957e-06
1.66982e-13
0.00756476
4.65318e-05
-1.55038e-12
-0.000952725
0.000274733
-1.169e-11
0.00124813
-1.4387e-11
0.00210338
3.84177e-07
5.7716e-10
0.00219886
7.15655e-07
5.64158e-10
0.00203073
8.82416e-07
5.52355e-10
0.00235644
8.76821e-07
4.85242e-10
0.00301824
7.64361e-07
3.89604e-10
0.0041244
3.97019e-07
6.1885e-11
0.00611092
-4.32356e-09
-7.14972e-10
0.00702793
-2.28277e-08
-5.23153e-10
0.00787797
7.22316e-08
5.69714e-11
0.00874494
8.48203e-08
1.29117e-10
0.00951657
6.50799e-08
1.00436e-10
0.0101245
3.8445e-08
5.65198e-11
0.0105575
1.6734e-08
2.44979e-11
0.0108411
3.30667e-09
3.60209e-13
0.011012
1.16892e-09
-5.56635e-13
0.0111049
-1.56597e-09
-2.725e-13
0.0111625
1.68723e-08
-9.91229e-13
0.0111807
1.01216e-07
-1.14512e-12
0.0111519
3.69166e-07
-1.05056e-12
0.0110404
1.31136e-06
-1.19233e-12
0.0107383
4.89264e-06
-5.08596e-13
0.0100406
2.03154e-05
-2.41956e-14
0.00768583
0.000114997
-1.45039e-12
-0.000618288
0.000633787
-1.17901e-11
0.00281712
-1.2062e-11
0.00210484
1.87622e-07
-6.69927e-10
0.00220246
4.47313e-07
-4.84717e-10
0.00203488
6.05987e-07
-4.22619e-10
0.00236281
6.37409e-07
-2.71109e-10
0.0030253
5.94765e-07
-5.6309e-11
0.00412659
3.79917e-07
3.95726e-10
0.00611096
1.48939e-07
1.5239e-09
0.0070267
7.45905e-08
8.02427e-10
0.00787679
7.65426e-08
6.84e-11
0.00874403
6.89565e-08
-1.89769e-11
0.00951598
4.92683e-08
-2.57246e-11
0.0101241
2.78048e-08
-2.5805e-11
0.0105573
1.16293e-08
-1.03945e-11
0.010841
2.88131e-09
9.40292e-13
0.011012
2.26503e-09
-8.55354e-13
0.0111049
-1.822e-09
-1.3636e-12
0.0111624
5.31833e-08
-9.31431e-13
0.011181
3.01415e-07
-6.68741e-13
0.0111533
1.03501e-06
-4.53178e-13
0.0110452
3.44417e-06
-2.17167e-13
0.0107548
1.19813e-05
7.15569e-14
0.0100809
4.61117e-05
1.42323e-13
0.00794226
0.000238982
-1.69645e-12
9.53382e-05
0.00122358
-1.08275e-11
0.00544128
-1.12467e-11
0.00210489
-5.26095e-08
2.06208e-11
0.00220251
-4.32867e-08
6.77081e-11
0.00203526
-1.29301e-08
7.56045e-11
0.00236359
5.005e-08
1.06145e-10
0.00302627
1.37989e-07
1.95617e-10
0.00412732
2.31082e-07
2.9833e-10
0.00611116
2.865e-07
2.97956e-10
0.00702674
1.66377e-07
1.27735e-10
0.0078768
8.30522e-08
2.54168e-11
0.00874404
4.12035e-08
1.33562e-11
0.00951598
1.61738e-08
8.10571e-12
0.0101241
1.87689e-09
3.95406e-12
0.0105573
-5.04191e-09
1.00505e-12
0.010841
-6.53448e-09
-1.42915e-12
0.011012
2.04283e-09
-2.82068e-12
0.0111049
-3.64149e-10
-2.38113e-12
0.0111621
1.53487e-07
-1.9619e-12
0.0111816
7.60855e-07
-1.70749e-12
0.0111561
2.45287e-06
-1.28768e-12
0.0110551
7.65496e-06
-1.01007e-12
0.0107866
2.46055e-05
-3.95106e-13
0.0101524
8.71622e-05
-4.68261e-13
0.00837405
0.000404201
-3.13915e-12
0.0013524
0.00188899
-1.32401e-11
0.00905312
-8.76062e-12
0.00210437
-1.25024e-08
8.94238e-11
0.00220194
-1.50989e-08
-1.34416e-11
0.00203434
-3.60817e-10
-4.58509e-11
0.00236189
2.59489e-08
-9.09587e-11
0.00302399
6.67449e-08
-1.74373e-10
0.00412542
1.13022e-07
-2.84001e-10
0.00611051
1.38254e-07
-4.39855e-10
0.0070264
9.75352e-08
-1.47365e-10
0.00787655
4.45833e-08
-6.02874e-11
0.00874387
1.552e-08
-4.95453e-11
0.00951587
3.58936e-10
-3.72183e-11
0.0101241
-6.15273e-09
-2.55182e-11
0.0105573
-7.79571e-09
-9.89363e-12
0.010841
-6.51684e-09
-2.74784e-12
0.011012
1.13065e-08
4.11389e-13
0.0111049
1.68665e-08
9.27381e-13
0.0111615
3.7116e-07
9.83365e-13
0.0111825
1.64023e-06
8.76554e-13
0.0111606
5.04551e-06
6.05009e-13
0.0110701
1.47945e-05
5.84679e-13
0.0108314
4.43684e-05
5.40441e-14
0.0102483
0.000145519
-6.29677e-13
0.00884089
0.000608172
-2.48243e-12
0.00276455
0.00265879
-9.03485e-12
0.0132075
-1.07286e-11
0.00210439
-2.61478e-10
-2.08712e-12
0.00220196
-6.27439e-10
3.69623e-12
0.00203436
7.20856e-11
3.09303e-12
0.00236188
3.03488e-09
-4.59045e-13
0.00302393
9.39177e-09
-1.12378e-11
0.0041253
1.93326e-08
-3.933e-11
0.00611045
2.92062e-08
-9.23389e-11
0.00702637
1.99233e-08
-7.25303e-11
0.00787652
7.31213e-09
-3.20939e-11
0.00874384
4.36166e-11
-2.6722e-11
0.00951585
-3.67893e-09
-2.19359e-11
0.010124
-4.67633e-09
-1.74691e-11
0.0105573
-3.09511e-09
-8.39656e-12
0.010841
-2.37032e-09
-6.11474e-12
0.011012
3.23623e-08
-3.94769e-12
0.011105
6.10595e-08
-2.12681e-12
0.0111603
6.95151e-07
-1.15243e-12
0.0111838
2.95351e-06
-8.97876e-13
0.0111664
8.76463e-06
-5.58971e-13
0.0110892
2.48339e-05
-1.769e-13
0.0108874
6.98176e-05
3.70717e-15
0.0103828
0.000215065
-2.91602e-13
0.00930242
0.000798924
-1.81276e-12
0.00442871
0.00330935
-7.72187e-12
0.0181037
-8.90231e-12
0.0021044
7.35336e-11
1.65125e-10
0.00220198
-1.14518e-11
5.51269e-10
0.00203436
-3.99657e-11
5.99814e-11
0.00236186
-9.49845e-11
-2.62046e-09
0.00302386
-1.9013e-10
-8.22514e-09
0.00412518
-3.25123e-10
-1.6887e-08
0.00611037
-6.82136e-10
-2.54605e-08
0.00702632
-2.25686e-10
-1.77529e-08
0.0078765
-8.53471e-11
-7.64566e-09
0.00874383
-6.53604e-11
-1.96369e-09
0.00951585
-4.71597e-11
8.08705e-10
0.010124
-3.15824e-11
7.8507e-10
0.0105573
-1.13105e-11
6.24987e-09
0.010841
-3.28253e-12
-1.09538e-09
0.0110121
2.31463e-13
6.61679e-08
0.0111053
7.01101e-13
1.32687e-07
0.0111585
1.00278e-12
1.06695e-06
0.0111848
9.92391e-13
4.62404e-06
0.0111725
7.32824e-13
1.36164e-05
0.0111096
6.80294e-13
3.76027e-05
0.0109444
1.80476e-13
0.000102468
0.0105079
-2.60169e-13
0.000296006
0.0095734
-1.47965e-12
0.00102739
0.00608963
-5.28913e-12
0.00386908
-7.51691e-12
0.0240353
0.0021044
3.35329e-10
1.52896e-14
0.00220197
7.73392e-10
1.55747e-13
0.00203436
-1.31908e-10
4.04847e-13
0.00236186
-3.80964e-09
1.35195e-12
0.00302384
-1.16501e-08
3.55119e-12
0.00412515
-2.39012e-08
8.31856e-12
0.00611035
-3.59305e-08
1.96063e-11
0.00702631
-2.53531e-08
1.26934e-11
0.0078765
-1.00146e-08
5.95655e-13
0.00874383
-9.92182e-10
-6.64567e-12
0.00951586
3.58523e-09
-9.88414e-12
0.0101241
5.10398e-09
-9.99596e-12
0.0105573
4.8457e-09
-8.27173e-12
0.010841
3.77324e-09
-6.20075e-12
0.011012
2.53177e-09
-3.99347e-12
0.0111049
1.54139e-09
-2.2109e-12
0.0111625
1.01312e-09
-1.61391e-12
0.0111806
9.66902e-10
-1.272e-12
0.0111512
2.01779e-09
-7.94412e-13
0.0110375
7.58282e-09
-2.90985e-13
0.0107278
3.43637e-08
2.65347e-13
0.0100125
1.7698e-07
9.39649e-13
0.00749982
1.24995e-06
2.79313e-12
-0.00113974
8.71938e-06
7.81282e-12
4.40027e-05
4.86599e-12
0.00210439
1.25855e-08
2.45303e-13
0.00220196
1.51805e-08
-5.28213e-13
0.00203436
8.23948e-10
6.34414e-13
0.00236188
-2.42202e-08
3.60039e-12
0.00302392
-6.20671e-08
1.30996e-11
0.00412528
-1.03703e-07
2.9948e-11
0.00611043
-1.2484e-07
6.92235e-11
0.00702636
-8.81897e-08
4.04759e-11
0.00787652
-4.1915e-08
1.66755e-11
0.00874385
-1.71951e-08
6.36222e-13
0.00951586
-4.67452e-09
-7.44812e-12
0.0101241
2.02424e-09
-1.02025e-11
0.0105573
4.28496e-09
-9.58415e-12
0.010841
4.23139e-09
-7.77014e-12
0.011012
3.25268e-09
-5.27237e-12
0.0111049
2.17034e-09
-3.01618e-12
0.0111625
1.56893e-09
-2.27695e-12
0.0111806
2.6266e-09
-1.84328e-12
0.0111512
8.27979e-09
-1.23211e-12
0.0110376
3.30389e-08
-6.32133e-13
0.010728
1.45044e-07
3.17489e-13
0.0100131
7.15942e-07
9.94471e-13
0.00750383
4.86093e-06
2.93644e-12
-0.00112736
3.23339e-05
7.34181e-12
0.000157985
3.91165e-12
0.00210437
5.18134e-08
2.10243e-13
0.00220194
4.21471e-08
-2.41368e-12
0.00203434
1.34785e-08
-1.14561e-12
0.00236188
-4.42127e-08
4.35654e-12
0.00302398
-1.22946e-07
1.76428e-11
0.00412539
-2.02619e-07
4.36473e-11
0.00611049
-2.44204e-07
1.16194e-10
0.00702639
-1.38654e-07
6.68306e-11
0.00787655
-7.29694e-08
2.60897e-11
0.00874387
-4.12716e-08
1.161e-11
0.00951588
-2.12121e-08
3.16657e-12
0.0101241
-7.77779e-09
-1.88952e-12
0.0105573
-6.94632e-10
-3.82075e-12
0.010841
1.94292e-09
-4.00093e-12
0.011012
2.46903e-09
-2.88381e-12
0.0111049
1.83842e-09
-1.66129e-12
0.0111625
2.35806e-09
-1.29494e-12
0.0111806
8.58942e-09
-1.07128e-12
0.0111512
3.21303e-08
-6.57179e-13
0.0110378
1.26329e-07
-4.55965e-13
0.0107288
5.29988e-07
1.0812e-14
0.0100153
2.48308e-06
4.65333e-13
0.00751886
1.60538e-05
1.01876e-12
-0.00108293
0.000101063
5.16252e-12
0.00047605
3.88589e-12
0.0021049
-2.03189e-07
-1.12564e-10
0.00220253
-4.63475e-07
1.02611e-11
0.00203526
-6.02879e-07
3.86942e-11
0.00236354
-6.0111e-07
1.02118e-10
0.00302613
-5.13808e-07
2.09386e-10
0.0041271
-2.5596e-07
3.57885e-10
0.00611101
2.83169e-08
5.92554e-10
0.00702666
2.28329e-08
2.0129e-10
0.00787676
-2.94357e-08
8.20942e-11
0.00874403
-4.79093e-08
5.89005e-11
0.00951599
-4.21422e-08
3.77665e-11
0.0101241
-2.79813e-08
1.91694e-11
0.0105573
-1.50093e-08
9.20539e-12
0.010841
-6.93158e-09
1.53518e-12
0.011012
-2.67277e-09
-1.04063e-12
0.0111049
-1.58095e-09
-1.14571e-12
0.0111625
4.26382e-09
-1.32542e-12
0.0111807
2.9681e-08
-1.24593e-12
0.0111514
1.14793e-07
-1.19622e-12
0.0110384
4.33212e-07
-1.00856e-12
0.0107312
1.72423e-06
-3.98278e-13
0.0100222
7.6297e-06
1.87418e-13
0.00756475
4.6532e-05
5.66892e-13
-0.00095273
0.000274733
4.55903e-12
0.00124813
5.09451e-12
0.00210484
-4.14395e-07
-1.10724e-10
0.00220246
-7.19087e-07
-5.72625e-11
0.00203486
-8.5151e-07
-4.9839e-11
0.00236272
-7.96367e-07
-3.18252e-11
0.00302512
-6.13407e-07
9.16681e-12
0.00412636
-1.93776e-07
1.28339e-10
0.00611086
2.48703e-07
2.77749e-10
0.00702665
1.46086e-07
1.08225e-10
0.00787675
-7.78595e-09
5.75329e-11
0.00874401
-4.72458e-08
3.90477e-11
0.00951597
-4.48507e-08
2.62993e-11
0.0101241
-3.01331e-08
1.31438e-11
0.0105573
-1.53137e-08
2.51858e-12
0.010841
-4.63654e-09
-2.18133e-12
0.011012
-1.48021e-09
-2.04491e-12
0.0111049
-1.82633e-09
-1.26978e-12
0.0111625
1.72309e-08
-1.04584e-12
0.0111808
1.01539e-07
-8.90645e-13
0.0111519
3.69384e-07
-6.46962e-13
0.0110404
1.31161e-06
-4.70759e-13
0.0107382
4.89293e-06
-3.8685e-14
0.0100406
2.03157e-05
4.42614e-13
0.00768583
0.000114998
1.39877e-12
-0.000618296
0.000633787
4.95887e-12
0.00281711
3.39744e-12
0.00210262
4.14213e-07
6.15814e-10
0.00219797
7.18843e-07
4.87403e-10
0.00202942
8.50728e-07
4.35516e-10
0.00235413
7.93921e-07
3.03589e-10
0.00301517
6.07595e-07
1.19296e-10
0.00412184
1.83122e-07
-2.00809e-10
0.00611004
-2.73273e-07
-1.20273e-09
0.00702743
-1.59481e-07
-6.37503e-10
0.00787761
6.55517e-09
1.70971e-11
0.00874468
5.31549e-08
9.21164e-11
0.00951642
5.40344e-08
7.05039e-11
0.0101244
3.96751e-08
3.95259e-11
0.0105575
2.31481e-08
1.48701e-11
0.0108411
1.03326e-08
-5.77385e-12
0.011012
8.51526e-09
-3.24348e-12
0.0111049
1.99026e-09
-1.14985e-12
0.0111624
5.52181e-08
-1.14579e-12
0.011181
3.02382e-07
-1.09829e-12
0.0111533
1.0354e-06
-8.43976e-13
0.0110452
3.44426e-06
-6.78203e-13
0.0107548
1.19813e-05
-2.79372e-13
0.0100809
4.61117e-05
1.1595e-13
0.00794226
0.000238982
1.10178e-12
9.53316e-05
0.00122358
4.35314e-12
0.00544128
5.31511e-12
0.00210484
2.03251e-07
-1.37738e-10
0.00220246
4.63801e-07
-6.6273e-11
0.00203485
6.02214e-07
-4.94159e-11
0.00236272
5.96882e-07
-3.08244e-11
0.00302512
5.01555e-07
1.13976e-11
0.00412639
2.28215e-07
1.25428e-10
0.00611087
-5.53815e-08
3.72127e-10
0.00702665
-4.68666e-08
1.30544e-10
0.00787675
2.11021e-08
7.5238e-11
0.00874401
5.00477e-08
5.59667e-11
0.00951596
4.96636e-08
3.18775e-11
0.0101241
3.72573e-08
8.93517e-12
0.0105573
2.36217e-08
-6.49315e-13
0.010841
1.35866e-08
-4.51684e-12
0.011012
1.35877e-08
-3.40809e-12
0.0111049
5.85508e-09
-1.91927e-12
0.0111621
1.5796e-07
-1.49351e-12
0.0111816
7.63762e-07
-1.29992e-12
0.0111561
2.4547e-06
-9.60819e-13
0.0110551
7.65594e-06
-6.35786e-13
0.0107866
2.46056e-05
-4.25346e-14
0.0101524
8.71615e-05
6.49363e-13
0.00837404
0.0004042
1.9521e-12
0.0013524
0.00188899
6.035e-12
0.00905312
6.94153e-12
0.00210489
-3.64979e-08
-1.04386e-10
0.00220251
-2.69508e-08
9.97341e-12
0.00203525
-1.24984e-08
4.61538e-11
0.00236358
6.45202e-09
1.1564e-10
0.00302625
4.28332e-08
2.33014e-10
0.0041273
7.65694e-08
3.99741e-10
0.00611114
9.7966e-08
6.76931e-10
0.00702673
4.80642e-08
2.61102e-10
0.00787679
2.929e-08
1.05706e-10
0.00874403
2.27333e-08
6.81261e-11
0.00951598
1.60385e-08
3.93687e-11
0.0101241
9.65048e-09
1.23038e-11
0.0105573
4.8492e-09
5.43506e-13
0.010841
2.3824e-09
-5.56419e-12
0.011012
1.68931e-08
-5.95801e-12
0.0111049
1.993e-08
-3.90651e-12
0.0111615
3.72742e-07
-3.24118e-12
0.0111825
1.64098e-06
-2.80087e-12
0.0111606
5.04588e-06
-1.97118e-12
0.0110701
1.47948e-05
-1.46425e-12
0.0108314
4.43686e-05
-2.61764e-13
0.0102483
0.000145519
7.84495e-13
0.00884089
0.000608172
1.75882e-12
0.00276455
0.00265879
4.03549e-12
0.0132075
7.71873e-12
0.00210435
3.64543e-08
1.96279e-12
0.00220191
2.6895e-08
-4.35108e-12
0.00203432
1.2479e-08
-2.43743e-12
0.00236188
-6.35988e-09
4.86408e-12
0.00302404
-4.24799e-08
3.48929e-11
0.00412554
-7.60259e-08
9.3253e-11
0.00611061
-9.73091e-08
2.3183e-10
0.00702646
-4.77335e-08
1.39578e-10
0.0078766
-2.9223e-08
5.75776e-11
0.0087439
-2.26477e-08
2.60241e-11
0.0095159
-1.62866e-08
8.46508e-12
0.0101241
-9.62076e-09
-1.44965e-12
0.0105573
-3.77349e-09
-5.26363e-12
0.010841
-1.8662e-09
-6.15533e-12
0.011012
3.37451e-08
-4.51168e-12
0.011105
6.20692e-08
-2.7384e-12
0.0111603
6.96043e-07
-2.08565e-12
0.0111838
2.95421e-06
-1.8105e-12
0.0111664
8.76506e-06
-1.35048e-12
0.0110892
2.48341e-05
-9.59951e-13
0.0108874
6.98176e-05
-1.89194e-13
0.0103828
0.000215065
9.21926e-13
0.00930242
0.000798924
1.6983e-12
0.00442871
0.00330935
4.05799e-12
0.0181037
5.29816e-12
0.00210489
-9.99434e-11
-2.03275e-07
0.00220251
1.1458e-11
-4.63839e-07
0.00203525
4.93942e-11
-6.02238e-07
0.00236358
1.18967e-10
-5.96854e-07
0.00302625
2.35309e-10
-5.01439e-07
0.00412731
3.98598e-10
-2.27959e-07
0.00611114
6.71316e-10
5.56171e-08
0.00702673
2.52665e-10
4.70512e-08
0.00787679
1.00291e-10
-2.10365e-08
0.00874403
6.52408e-11
-5.00094e-08
0.00951598
3.93183e-11
-4.95837e-08
0.0101241
1.27688e-11
-3.83346e-08
0.0105573
4.31925e-13
-1.86738e-08
0.010841
-5.35221e-12
-1.68051e-08
0.0110121
-5.68304e-12
5.7762e-08
0.0111053
-3.72984e-12
1.28209e-07
0.0111585
-2.88701e-12
1.0645e-06
0.0111848
-2.5663e-12
4.62252e-06
0.0111725
-1.86712e-12
1.36155e-05
0.0111096
-1.37797e-12
3.76021e-05
0.0109444
-4.70969e-13
0.000102468
0.0105079
2.79477e-13
0.000296006
0.00957341
1.45017e-12
0.0010274
0.00608963
2.52955e-12
0.00386908
3.84383e-12
0.0240353
0.0021044
-8.76522e-12
3.20043e-11
0.00220198
-1.26777e-11
3.73263e-11
0.00203436
9.19122e-13
4.20011e-11
0.00236185
4.98525e-11
4.42252e-11
0.00302382
1.26937e-10
5.16989e-11
0.00412511
1.6738e-10
4.11009e-11
0.00611032
1.44652e-10
-1.90717e-11
0.0070263
5.02771e-11
4.04615e-12
0.0078765
-6.52048e-12
-6.33943e-12
0.00874385
-2.98859e-11
-1.32062e-11
0.00951588
-4.17918e-11
8.00611e-14
0.0101241
-4.23894e-11
1.57064e-11
0.0105573
-3.41137e-11
2.49627e-11
0.010841
-2.29807e-11
3.00613e-11
0.011012
-1.07781e-11
1.88623e-11
0.0111049
-1.31849e-11
1.02748e-11
0.0111626
4.29578e-11
7.96709e-12
0.0111806
3.7458e-10
6.56132e-12
0.0111512
1.69261e-09
4.92439e-12
0.0110375
7.40593e-09
4.82447e-12
0.0107278
3.4318e-08
9.1001e-12
0.0100125
1.77059e-07
3.48124e-11
0.00749982
1.25001e-06
2.30742e-10
-0.00113973
8.71898e-06
7.58278e-10
4.40006e-05
5.18943e-10
0.0021044
4.99706e-12
3.39834e-11
0.00220198
5.1629e-12
3.60875e-11
0.00203436
7.72551e-12
4.00116e-11
0.00236185
1.60072e-11
4.07604e-11
0.00302382
1.57591e-11
4.48279e-11
0.00412511
-2.89717e-11
2.66475e-11
0.00611032
-9.95051e-11
-3.97629e-11
0.0070263
-8.74799e-11
7.50701e-12
0.0078765
-5.06598e-11
1.60749e-11
0.00874385
-2.66594e-11
1.1853e-11
0.00951588
-1.50442e-11
1.99543e-11
0.0101241
-9.47079e-12
2.96457e-11
0.0105573
-5.668e-12
3.29836e-11
0.010841
-4.05046e-12
3.45677e-11
0.011012
1.11957e-11
2.16106e-11
0.0111049
-2.70608e-11
1.15968e-11
0.0111626
2.39213e-10
8.87478e-12
0.0111806
1.84031e-09
7.03221e-12
0.0111512
7.79493e-09
4.54082e-12
0.0110376
3.27398e-08
2.11874e-12
0.010728
1.44889e-07
-2.50704e-13
0.0100131
7.15914e-07
2.69761e-12
0.00750383
4.86082e-06
8.85287e-11
-0.00112735
3.23334e-05
5.93741e-10
0.000157983
5.5033e-10
0.0021044
3.14534e-12
5.09115e-12
0.00220198
7.14552e-12
5.98142e-12
0.00203436
2.32216e-12
5.62303e-12
0.00236185
-1.88035e-11
3.95466e-12
0.00302382
-6.77384e-11
-2.30889e-12
0.00412512
-1.48705e-10
-2.25712e-11
0.00611032
-2.44196e-10
-9.22296e-11
0.0070263
-1.92067e-10
-3.2443e-13
0.0078765
-1.30285e-10
7.55351e-11
0.00874385
-9.30332e-11
8.55125e-11
0.00951588
-6.25809e-11
8.25894e-11
0.0101241
-3.65757e-11
7.41806e-11
0.0105573
-1.76677e-11
6.04931e-11
0.010841
-1.16968e-11
4.74489e-11
0.011012
5.24159e-11
2.98375e-11
0.0111049
-1.10641e-10
1.59521e-11
0.0111625
1.12941e-09
1.15268e-11
0.0111806
7.83858e-09
6.34547e-12
0.0111512
3.16323e-08
-2.60994e-12
0.0110378
1.25994e-07
-2.9372e-11
0.0107288
5.29837e-07
-9.24517e-11
0.0100153
2.48316e-06
-3.07292e-10
0.00751886
1.60542e-05
-1.89857e-09
-0.00108293
0.000101063
7.52945e-12
0.000476049
2.58587e-09
0.0021044
5.58722e-11
4.90126e-12
0.00220198
7.20933e-11
5.14806e-12
0.00203436
3.8203e-11
4.64271e-12
0.00236185
-2.46322e-11
3.06718e-12
0.00302383
-8.031e-11
-3.16072e-12
0.00412512
-1.10232e-10
-2.39242e-11
0.00611033
-9.7964e-11
-9.51035e-11
0.0070263
-1.25336e-10
-1.03955e-11
0.0078765
-1.59567e-10
7.90688e-11
0.00874385
-1.64256e-10
8.74649e-11
0.00951588
-1.36093e-10
8.2982e-11
0.0101241
-9.34092e-11
7.34623e-11
0.0105573
-5.39907e-11
5.92558e-11
0.010841
-4.31504e-11
4.63046e-11
0.011012
2.0591e-10
2.89202e-11
0.0111049
-3.98581e-10
1.5313e-11
0.0111625