/*--------------------------------*- C++ -*----------------------------------*\
| =========                 |                                                 |
| \\      /  F ield         | OpenFOAM: The Open Source CFD Toolbox           |
|  \\    /   O peration     | Version:  4.1                                   |
|   \\  /    A nd           | Web:      www.OpenFOAM.org                      |
|    \\/     M anipulation  |                                                 |
\*---------------------------------------------------------------------------*/
FoamFile
{
    version     2.0;
    format      ascii;
    class       volScalarField;
    location    "0.08";
    object      T;
}
// * * * * * * * * * * * * * * * * * * * * * * * * * * * * * * * * * * * * * //

dimensions      [0 0 0 1 0 0 0];

internalField   nonuniform List<scalar> 
52500
(
0.378202
0.37649
0.42533
0.493929
0.49916
0.529333
0.614902
0.791624
0.907039
0.964089
0.99128
1.00267
1.00607
1.00614
1.00486
1.00292
1.00231
1.00291
1.0078
1.02202
1.06071
1.19612
1.51118
2.31375
2.51975
0.3782
0.376487
0.425332
0.493935
0.499164
0.529332
0.614899
0.791623
0.907042
0.964092
0.991283
1.00267
1.00607
1.00615
1.00486
1.00292
1.00231
1.00291
1.0078
1.02202
1.0607
1.19607
1.51097
2.31331
2.51884
0.37818
0.376449
0.425296
0.493974
0.499219
0.529385
0.614922
0.791613
0.907017
0.96407
0.991268
1.00267
1.00606
1.00614
1.00486
1.00292
1.00231
1.00291
1.0078
1.02201
1.06067
1.19593
1.51014
2.31245
2.51549
0.378117
0.376403
0.425291
0.493872
0.499121
0.529328
0.614964
0.791653
0.907042
0.964091
0.991282
1.00267
1.00607
1.00614
1.00486
1.00292
1.00231
1.00291
1.00779
1.02198
1.06053
1.19523
1.50772
2.30789
2.50746
0.377945
0.37619
0.42514
0.493798
0.499084
0.529318
0.614984
0.79163
0.907006
0.964064
0.991265
1.00266
1.00606
1.00614
1.00486
1.00292
1.00231
1.0029
1.00776
1.02187
1.0601
1.19319
1.50116
2.29679
2.48942
0.378584
0.377091
0.426348
0.495042
0.500262
0.530046
0.614844
0.791364
0.906906
0.964007
0.991232
1.00265
1.00605
1.00614
1.00486
1.00292
1.0023
1.00288
1.00768
1.02156
1.05897
1.18817
1.48635
2.27492
2.45527
0.37847
0.376973
0.426284
0.494965
0.500208
0.530028
0.614894
0.791382
0.906903
0.964004
0.991231
1.00264
1.00605
1.00613
1.00486
1.00292
1.00229
1.00282
1.00745
1.02082
1.05644
1.17788
1.45774
2.2394
2.40229
0.377831
0.376071
0.425094
0.493651
0.498952
0.529246
0.615049
0.791678
0.907029
0.964082
0.991277
1.00267
1.00606
1.00614
1.00486
1.00292
1.00225
1.00269
1.00698
1.01938
1.05195
1.16123
1.4132
2.18812
2.32379
0.378474
0.376977
0.426288
0.494974
0.500217
0.530036
0.614899
0.791384
0.906905
0.964006
0.991232
1.00264
1.00605
1.00613
1.00485
1.0029
1.00216
1.00245
1.00613
1.0169
1.04479
1.13644
1.34776
2.07827
2.24855
0.378461
0.376961
0.426287
0.494979
0.500215
0.530022
0.614877
0.791373
0.906906
0.96401
0.991236
1.00265
1.00605
1.00613
1.00484
1.00288
1.002
1.00211
1.00487
1.01342
1.03497
1.10778
1.26037
1.98422
2.01559
0.378113
0.376396
0.425293
0.493878
0.499124
0.529324
0.614957
0.791653
0.907051
0.964102
0.991294
1.00269
1.00608
1.00616
1.00487
1.00293
1.00232
1.00292
1.00782
1.02203
1.06073
1.19616
1.51126
2.31385
2.51987
0.378097
0.376363
0.42525
0.493849
0.499094
0.529291
0.61492
0.79163
0.907044
0.9641
0.991293
1.00269
1.00608
1.00616
1.00487
1.00293
1.00232
1.00292
1.00782
1.02203
1.06072
1.1961
1.51105
2.31341
2.51896
0.378493
0.377004
0.42631
0.495007
0.500236
0.530026
0.614846
0.791353
0.906909
0.96402
0.991248
1.00266
1.00607
1.00615
1.00487
1.00293
1.00232
1.00292
1.00781
1.02202
1.06068
1.19589
1.51027
2.31183
2.51595
0.378133
0.376401
0.425274
0.493879
0.499117
0.529298
0.614901
0.791617
0.907041
0.964099
0.991294
1.00269
1.00608
1.00616
1.00487
1.00293
1.00232
1.00292
1.0078
1.02199
1.06054
1.1952
1.50784
2.30726
2.50792
0.378493
0.377004
0.42631
0.495007
0.500236
0.530026
0.614845
0.791352
0.906909
0.96402
0.991249
1.00266
1.00607
1.00615
1.00487
1.00293
1.00232
1.00291
1.00778
1.02188
1.06011
1.19316
1.50128
2.29616
2.48987
0.378095
0.376362
0.425248
0.493848
0.499092
0.529287
0.614912
0.791623
0.907042
0.9641
0.991294
1.00269
1.00608
1.00616
1.00487
1.00293
1.00231
1.00289
1.00769
1.02157
1.05898
1.18814
1.48648
2.27428
2.45571
0.378108
0.376392
0.425289
0.493877
0.499123
0.529319
0.614945
0.791643
0.907048
0.964102
0.991295
1.00269
1.00608
1.00616
1.00487
1.00293
1.0023
1.00283
1.00746
1.02083
1.05646
1.17791
1.4578
2.23949
2.40241
0.378204
0.376489
0.425334
0.493939
0.499166
0.529331
0.614898
0.791624
0.907049
0.964103
0.991296
1.00269
1.00608
1.00616
1.00487
1.00293
1.00226
1.0027
1.00699
1.01939
1.05196
1.16122
1.41331
2.1877
2.32404
0.378201
0.376488
0.425333
0.49394
0.499167
0.529331
0.614893
0.79162
0.907049
0.964103
0.991295
1.00269
1.00608
1.00616
1.00487
1.00291
1.00217
1.00246
1.00614
1.01691
1.04481
1.13642
1.34784
2.0775
2.24881
0.3782
0.376487
0.425331
0.493939
0.499166
0.529328
0.614888
0.791615
0.907047
0.964103
0.991296
1.00269
1.00608
1.00616
1.00486
1.00289
1.00201
1.00212
1.00488
1.01343
1.03498
1.10777
1.26043
1.98379
2.01589
0.3782
0.376487
0.425331
0.493939
0.499166
0.529328
0.614887
0.791614
0.907047
0.964103
0.991296
1.00269
1.00608
1.00616
1.00487
1.00293
1.00232
1.00292
1.00782
1.02203
1.06073
1.19616
1.51126
2.31385
2.51987
0.378201
0.376488
0.425333
0.49394
0.499167
0.52933
0.614891
0.791619
0.907049
0.964104
0.991296
1.00269
1.00608
1.00616
1.00487
1.00293
1.00232
1.00292
1.00782
1.02203
1.06072
1.1961
1.51105
2.31341
2.51896
0.378204
0.376489
0.425333
0.493938
0.499165
0.52933
0.614896
0.791622
0.907049
0.964104
0.991296
1.00269
1.00608
1.00616
1.00487
1.00293
1.00232
1.00292
1.00781
1.02202
1.06068
1.19589
1.51027
2.31183
2.51595
0.378107
0.376392
0.425287
0.493876
0.499122
0.529315
0.614935
0.791634
0.907046
0.964102
0.991295
1.00269
1.00608
1.00616
1.00487
1.00293
1.00232
1.00292
1.0078
1.02199
1.06054
1.1952
1.50784
2.30727
2.50792
0.378095
0.376362
0.425246
0.493849
0.499093
0.529285
0.614903
0.791617
0.907041
0.9641
0.991295
1.00269
1.00608
1.00616
1.00487
1.00293
1.00232
1.00291
1.00778
1.02188
1.06011
1.19316
1.50128
2.29616
2.48987
0.378628
0.377146
0.426393
0.4951
0.5003
0.530046
0.614782
0.79133
0.906913
0.964023
0.99125
1.00266
1.00607
1.00615
1.00487
1.00293
1.00231
1.00289
1.00769
1.02157
1.05898
1.18814
1.48648
2.27428
2.45571
0.378095
0.376362
0.425247
0.493849
0.499094
0.529286
0.614904
0.791618
0.907041
0.9641
0.991295
1.00269
1.00608
1.00616
1.00487
1.00293
1.0023
1.00283
1.00746
1.02083
1.05646
1.17791
1.4578
2.23949
2.40241
0.378109
0.376394
0.42529
0.493878
0.499124
0.52932
0.614944
0.791642
0.907048
0.964102
0.991295
1.00269
1.00608
1.00616
1.00487
1.00293
1.00226
1.0027
1.00699
1.01939
1.05196
1.16122
1.41331
2.1877
2.32404
0.378208
0.376491
0.425336
0.493938
0.499165
0.529332
0.614904
0.79163
0.907051
0.964104
0.991296
1.00269
1.00608
1.00616
1.00487
1.00291
1.00217
1.00246
1.00614
1.01691
1.04481
1.13642
1.34784
2.0775
2.24881
0.378109
0.376394
0.42529
0.493878
0.499124
0.529319
0.614944
0.791642
0.907048
0.964102
0.991295
1.00269
1.00608
1.00616
1.00486
1.00289
1.00201
1.00212
1.00488
1.01343
1.03498
1.10777
1.26043
1.98379
2.01589
0.3782
0.376487
0.425331
0.493939
0.499166
0.529327
0.614885
0.791612
0.907047
0.964104
0.991297
1.00269
1.00608
1.00616
1.00487
1.00293
1.00232
1.00292
1.00782
1.02203
1.06073
1.19616
1.51126
2.31385
2.51987
0.3782
0.376487
0.425331
0.493939
0.499165
0.529327
0.614884
0.791612
0.907047
0.964104
0.991297
1.00269
1.00608
1.00616
1.00487
1.00293
1.00232
1.00292
1.00782
1.02203
1.06072
1.1961
1.51105
2.31341
2.51896
0.3782
0.376487
0.425331
0.493939
0.499165
0.529327
0.614884
0.791612
0.907047
0.964104
0.991297
1.00269
1.00608
1.00616
1.00487
1.00293
1.00232
1.00292
1.00781
1.02202
1.06068
1.19589
1.51027
2.31183
2.51595
0.3782
0.376487
0.425331
0.493939
0.499165
0.529327
0.614884
0.791612
0.907047
0.964104
0.991297
1.00269
1.00608
1.00616
1.00487
1.00293
1.00232
1.00292
1.0078
1.02199
1.06054
1.1952
1.50784
2.30726
2.50792
0.3782
0.376487
0.425331
0.493939
0.499165
0.529327
0.614884
0.791612
0.907047
0.964104
0.991297
1.00269
1.00608
1.00616
1.00487
1.00293
1.00232
1.00291
1.00778
1.02188
1.06011
1.19316
1.50128
2.29616
2.48987
0.3782
0.376487
0.42533
0.493938
0.499165
0.529327
0.614884
0.791612
0.907047
0.964104
0.991297
1.00269
1.00608
1.00616
1.00487
1.00293
1.00231
1.00289
1.00769
1.02157
1.05898
1.18814
1.48648
2.27428
2.45571
0.3782
0.376487
0.425331
0.493939
0.499165
0.529327
0.614884
0.791612
0.907047
0.964104
0.991297
1.00269
1.00608
1.00616
1.00487
1.00293
1.0023
1.00283
1.00746
1.02083
1.05646
1.17791
1.4578
2.23949
2.40241
0.3782
0.376487
0.425331
0.493939
0.499165
0.529327
0.614884
0.791612
0.907047
0.964104
0.991297
1.00269
1.00608
1.00616
1.00487
1.00293
1.00226
1.0027
1.00699
1.01939
1.05196
1.16122
1.41331
2.1877
2.32404
0.3782
0.376487
0.425331
0.493939
0.499165
0.529327
0.614884
0.791612
0.907047
0.964104
0.991297
1.00269
1.00608
1.00616
1.00487
1.00291
1.00217
1.00246
1.00614
1.01691
1.04481
1.13642
1.34784
2.0775
2.24881
0.3782
0.376487
0.425331
0.493939
0.499165
0.529327
0.614884
0.791612
0.907047
0.964104
0.991297
1.00269
1.00608
1.00616
1.00486
1.00289
1.00201
1.00212
1.00488
1.01343
1.03498
1.10777
1.26043
1.98379
2.01589
0.378181
0.376452
0.425295
0.493968
0.499211
0.529374
0.614904
0.791599
0.907015
0.964074
0.991275
1.00267
1.00607
1.00615
1.00487
1.00293
1.00232
1.00292
1.00782
1.02203
1.06073
1.19615
1.51124
2.31384
2.51986
0.378178
0.37645
0.425296
0.493971
0.499213
0.529375
0.614904
0.791599
0.907015
0.964073
0.991275
1.00267
1.00607
1.00615
1.00487
1.00293
1.00232
1.00292
1.00782
1.02203
1.06072
1.1961
1.51104
2.3134
2.51895
0.378198
0.376483
0.425332
0.49392
0.499148
0.529319
0.614897
0.791623
0.907041
0.964093
0.991287
1.00268
1.00608
1.00615
1.00487
1.00293
1.00232
1.00292
1.00781
1.02202
1.06068
1.19596
1.5102
2.31256
2.51558
0.378197
0.376482
0.425333
0.49392
0.499147
0.529319
0.614898
0.791624
0.907041
0.964094
0.991287
1.00268
1.00608
1.00615
1.00487
1.00293
1.00232
1.00292
1.00781
1.02199
1.06054
1.19526
1.50778
2.308
2.50756
0.378178
0.376449
0.425297
0.493971
0.499214
0.529376
0.614906
0.791601
0.907015
0.964073
0.991274
1.00267
1.00607
1.00615
1.00487
1.00293
1.00232
1.00291
1.00778
1.02188
1.06011
1.19315
1.50129
2.29613
2.48986
0.378187
0.376462
0.425297
0.49397
0.499217
0.529387
0.614919
0.791609
0.907015
0.964071
0.991272
1.00267
1.00607
1.00615
1.00487
1.00293
1.00231
1.00289
1.00769
1.02157
1.05898
1.18813
1.48648
2.27421
2.45573
0.378185
0.376457
0.425295
0.49396
0.499208
0.529382
0.614921
0.791611
0.907015
0.96407
0.991272
1.00267
1.00607
1.00615
1.00487
1.00293
1.0023
1.00283
1.00746
1.02083
1.05646
1.1779
1.45779
2.23948
2.4024
0.378203
0.376489
0.425333
0.493915
0.499146
0.529324
0.614906
0.791629
0.907042
0.964094
0.991287
1.00268
1.00608
1.00615
1.00487
1.00293
1.00226
1.0027
1.00699
1.01939
1.05196
1.16122
1.41331
2.1877
2.32403
0.378178
0.37645
0.425296
0.493971
0.499214
0.529376
0.614905
0.791601
0.907016
0.964074
0.991275
1.00267
1.00607
1.00615
1.00486
1.00291
1.00217
1.00246
1.00614
1.01691
1.04481
1.13642
1.34784
2.0775
2.2488
0.37818
0.376453
0.425297
0.493979
0.499221
0.529381
0.614904
0.791599
0.907016
0.964074
0.991275
1.00267
1.00607
1.00615
1.00486
1.00289
1.00201
1.00212
1.00488
1.01343
1.03498
1.10777
1.26043
1.98379
2.01589
0.3782
0.376487
0.425331
0.493939
0.499166
0.529327
0.614885
0.791613
0.907047
0.964104
0.991296
1.00269
1.00608
1.00616
1.00487
1.00293
1.00232
1.00292
1.00782
1.02203
1.06073
1.19616
1.51126
2.31385
2.51987
0.3782
0.376487
0.425331
0.493939
0.499166
0.529327
0.614885
0.791613
0.907047
0.964104
0.991296
1.00269
1.00608
1.00616
1.00487
1.00293
1.00232
1.00292
1.00782
1.02203
1.06072
1.1961
1.51105
2.31341
2.51896
0.3782
0.376487
0.425331
0.493939
0.499165
0.529327
0.614885
0.791613
0.907047
0.964104
0.991296
1.00269
1.00608
1.00616
1.00487
1.00293
1.00232
1.00292
1.00781
1.02202
1.06068
1.19589
1.51026
2.31183
2.51594
0.378205
0.376493
0.425332
0.493937
0.499166
0.529333
0.614894
0.791618
0.907047
0.964102
0.991295
1.00269
1.00608
1.00616
1.00487
1.00293
1.00232
1.00292
1.0078
1.02199
1.06054
1.1952
1.50784
2.30726
2.50792
0.3782
0.376487
0.425331
0.493938
0.499165
0.529327
0.614885
0.791613
0.907047
0.964103
0.991296
1.00269
1.00608
1.00616
1.00487
1.00293
1.00232
1.00291
1.00778
1.02188
1.06011
1.19315
1.50128
2.29616
2.48988
0.378205
0.376493
0.425332
0.493937
0.499166
0.529333
0.614894
0.791618
0.907047
0.964102
0.991295
1.00269
1.00608
1.00616
1.00487
1.00293
1.00231
1.00289
1.00769
1.02157
1.05898
1.18814
1.48647
2.27428
2.45571
0.3782
0.376487
0.425331
0.493939
0.499165
0.529327
0.614885
0.791613
0.907047
0.964103
0.991296
1.00269
1.00608
1.00616
1.00487
1.00293
1.0023
1.00283
1.00746
1.02083
1.05646
1.1779
1.4578
2.23947
2.40234
0.3782
0.376487
0.425331
0.493939
0.499166
0.529327
0.614885
0.791613
0.907047
0.964103
0.991296
1.00269
1.00608
1.00616
1.00487
1.00293
1.00226
1.0027
1.00699
1.01939
1.05196
1.16122
1.41331
2.1877
2.32403
0.3782
0.376487
0.425331
0.493939
0.499166
0.529327
0.614885
0.791613
0.907047
0.964103
0.991296
1.00269
1.00608
1.00616
1.00487
1.00291
1.00217
1.00246
1.00614
1.01691
1.0448
1.13642
1.34784
2.0775
2.24881
0.3782
0.376487
0.425331
0.493939
0.499166
0.529328
0.614886
0.791614
0.907047
0.964103
0.991296
1.00269
1.00608
1.00616
1.00486
1.00289
1.00201
1.00212
1.00488
1.01343
1.03498
1.10777
1.26042
1.98379
2.0159
0.3782
0.376487
0.425331
0.493938
0.499165
0.529327
0.614885
0.791613
0.907047
0.964104
0.991296
1.00269
1.00608
1.00616
1.00487
1.00293
1.00232
1.00292
1.00782
1.02203
1.06073
1.19616
1.51126
2.31385
2.51987
0.3782
0.376487
0.425331
0.493939
0.499166
0.529327
0.614884
0.791612
0.907047
0.964104
0.991297
1.00269
1.00608
1.00616
1.00487
1.00293
1.00232
1.00292
1.00782
1.02203
1.06072
1.1961
1.51105
2.31341
2.51896
0.3782
0.376487
0.425331
0.493939
0.499166
0.529327
0.614884
0.791612
0.907047
0.964104
0.991297
1.00269
1.00608
1.00616
1.00487
1.00293
1.00232
1.00292
1.00781
1.02202
1.06068
1.19589
1.51027
2.31183
2.51595
0.3782
0.376487
0.425331
0.493939
0.499166
0.529327
0.614884
0.791612
0.907047
0.964104
0.991297
1.00269
1.00608
1.00616
1.00487
1.00293
1.00232
1.00292
1.0078
1.02199
1.06054
1.1952
1.50784
2.30726
2.50792
0.3782
0.376487
0.425331
0.493939
0.499165
0.529327
0.614884
0.791612
0.907047
0.964104
0.991297
1.00269
1.00608
1.00616
1.00487
1.00293
1.00232
1.00291
1.00778
1.02188
1.06011
1.19316
1.50128
2.29616
2.48987
0.3782
0.376487
0.42533
0.493938
0.499165
0.529327
0.614884
0.791612
0.907047
0.964104
0.991297
1.00269
1.00608
1.00616
1.00487
1.00293
1.00231
1.00289
1.00769
1.02157
1.05898
1.18814
1.48648
2.27428
2.45571
0.3782
0.376487
0.425331
0.493939
0.499165
0.529327
0.614884
0.791612
0.907047
0.964104
0.991297
1.00269
1.00608
1.00616
1.00487
1.00293
1.0023
1.00283
1.00746
1.02083
1.05646
1.17791
1.4578
2.23949
2.40241
0.3782
0.376487
0.425331
0.493939
0.499166
0.529327
0.614884
0.791612
0.907047
0.964104
0.991297
1.00269
1.00608
1.00616
1.00487
1.00293
1.00226
1.0027
1.00699
1.01939
1.05196
1.16122
1.41331
2.1877
2.32404
0.3782
0.376487
0.425331
0.493939
0.499166
0.529327
0.614884
0.791612
0.907047
0.964104
0.991297
1.00269
1.00608
1.00616
1.00487
1.00291
1.00217
1.00246
1.00614
1.01691
1.04481
1.13642
1.34784
2.0775
2.24881
0.3782
0.376487
0.425331
0.493939
0.499166
0.529327
0.614884
0.791612
0.907047
0.964104
0.991297
1.00269
1.00608
1.00616
1.00486
1.00289
1.00201
1.00212
1.00488
1.01343
1.03498
1.10777
1.26043
1.98379
2.01589
0.3782
0.376487
0.425331
0.493939
0.499166
0.529328
0.614887
0.791614
0.907047
0.964103
0.991296
1.00269
1.00608
1.00616
1.00487
1.00293
1.00232
1.00292
1.00782
1.02203
1.06073
1.19616
1.51126
2.31385
2.51987
0.378201
0.376488
0.425333
0.49394
0.499167
0.52933
0.614891
0.791619
0.907049
0.964104
0.991296
1.00269
1.00608
1.00616
1.00487
1.00293
1.00232
1.00292
1.00782
1.02203
1.06072
1.1961
1.51105
2.31341
2.51896
0.378204
0.376489
0.425333
0.493938
0.499165
0.52933
0.614896
0.791622
0.907049
0.964104
0.991296
1.00269
1.00608
1.00616
1.00487
1.00293
1.00232
1.00292
1.00781
1.02202
1.06068
1.19589
1.51027
2.31183
2.51595
0.378107
0.376392
0.425287
0.493876
0.499122
0.529315
0.614935
0.791634
0.907046
0.964102
0.991295
1.00269
1.00608
1.00616
1.00487
1.00293
1.00232
1.00292
1.0078
1.02199
1.06054
1.1952
1.50784
2.30727
2.50792
0.378095
0.376362
0.425246
0.493849
0.499093
0.529285
0.614903
0.791617
0.907041
0.9641
0.991295
1.00269
1.00608
1.00616
1.00487
1.00293
1.00232
1.00291
1.00778
1.02188
1.06011
1.19316
1.50128
2.29616
2.48987
0.378628
0.377146
0.426393
0.4951
0.5003
0.530046
0.614782
0.79133
0.906913
0.964023
0.99125
1.00266
1.00607
1.00615
1.00487
1.00293
1.00231
1.00289
1.00769
1.02157
1.05898
1.18814
1.48648
2.27428
2.45571
0.378095
0.376362
0.425247
0.493849
0.499094
0.529286
0.614904
0.791618
0.907041
0.9641
0.991295
1.00269
1.00608
1.00616
1.00487
1.00293
1.0023
1.00283
1.00746
1.02083
1.05646
1.17791
1.4578
2.23949
2.40241
0.378109
0.376394
0.42529
0.493878
0.499124
0.52932
0.614944
0.791642
0.907048
0.964102
0.991295
1.00269
1.00608
1.00616
1.00487
1.00293
1.00226
1.0027
1.00699
1.01939
1.05196
1.16122
1.41331
2.1877
2.32404
0.378208
0.376491
0.425336
0.493938
0.499165
0.529332
0.614904
0.79163
0.907051
0.964104
0.991296
1.00269
1.00608
1.00616
1.00487
1.00291
1.00217
1.00246
1.00614
1.01691
1.04481
1.13642
1.34784
2.0775
2.24881
0.378109
0.376394
0.42529
0.493878
0.499124
0.529319
0.614944
0.791642
0.907048
0.964102
0.991295
1.00269
1.00608
1.00616
1.00486
1.00289
1.00201
1.00212
1.00488
1.01343
1.03498
1.10777
1.26043
1.98379
2.01589
0.378113
0.376396
0.425293
0.493878
0.499124
0.529324
0.614957
0.791653
0.907051
0.964102
0.991294
1.00269
1.00608
1.00616
1.00487
1.00293
1.00232
1.00292
1.00782
1.02203
1.06073
1.19616
1.51126
2.31385
2.51987
0.378097
0.376363
0.42525
0.493849
0.499094
0.529291
0.61492
0.79163
0.907044
0.9641
0.991293
1.00269
1.00608
1.00616
1.00487
1.00293
1.00232
1.00292
1.00782
1.02203
1.06072
1.1961
1.51105
2.31341
2.51896
0.378493
0.377004
0.42631
0.495007
0.500236
0.530026
0.614846
0.791353
0.906909
0.96402
0.991248
1.00266
1.00607
1.00615
1.00487
1.00293
1.00232
1.00292
1.00781
1.02202
1.06068
1.19589
1.51027
2.31183
2.51595
0.378133
0.3764
0.425274
0.493879
0.499117
0.529298
0.614901
0.791617
0.90704
0.964099
0.991294
1.00269
1.00608
1.00616
1.00487
1.00293
1.00232
1.00292
1.0078
1.02199
1.06054
1.1952
1.50784
2.30726
2.50792
0.378493
0.377004
0.42631
0.495007
0.500236
0.530026
0.614845
0.791352
0.906909
0.96402
0.991249
1.00266
1.00607
1.00615
1.00487
1.00293
1.00232
1.00291
1.00778
1.02188
1.06011
1.19316
1.50128
2.29616
2.48987
0.378096
0.376362
0.425248
0.493848
0.499092
0.529287
0.614912
0.791623
0.907042
0.9641
0.991294
1.00269
1.00608
1.00616
1.00487
1.00293
1.00231
1.00289
1.00769
1.02157
1.05898
1.18814
1.48648
2.27428
2.45571
0.378108
0.376392
0.425289
0.493877
0.499123
0.529319
0.614945
0.791643
0.907048
0.964102
0.991295
1.00269
1.00608
1.00616
1.00487
1.00293
1.0023
1.00283
1.00746
1.02083
1.05646
1.17791
1.4578
2.23949
2.40241
0.378204
0.376489
0.425334
0.493939
0.499166
0.529331
0.614898
0.791623
0.907049
0.964103
0.991296
1.00269
1.00608
1.00616
1.00487
1.00293
1.00226
1.0027
1.00699
1.01939
1.05196
1.16122
1.41331
2.1877
2.32404
0.378201
0.376488
0.425333
0.49394
0.499167
0.529331
0.614893
0.79162
0.907049
0.964103
0.991295
1.00269
1.00608
1.00616
1.00487
1.00291
1.00217
1.00246
1.00614
1.01691
1.04481
1.13642
1.34784
2.0775
2.24881
0.3782
0.376487
0.425331
0.493939
0.499166
0.529328
0.614888
0.791615
0.907047
0.964103
0.991296
1.00269
1.00608
1.00616
1.00486
1.00289
1.00201
1.00212
1.00488
1.01343
1.03498
1.10777
1.26043
1.98379
2.01589
0.378208
0.376493
0.425336
0.493926
0.499157
0.529338
0.614925
0.791642
0.907041
0.964086
0.991276
1.00267
1.00606
1.00614
1.00486
1.00292
1.00231
1.00291
1.00781
1.02202
1.06072
1.19618
1.51112
2.31446
2.5194
0.378079
0.376348
0.425248
0.493901
0.499164
0.529364
0.614964
0.791627
0.907009
0.964063
0.991262
1.00266
1.00606
1.00614
1.00486
1.00292
1.00231
1.00291
1.0078
1.02202
1.0607
1.19607
1.51098
2.31326
2.51885
0.378102
0.376369
0.425247
0.493836
0.499085
0.529294
0.614932
0.791636
0.907033
0.964084
0.991277
1.00267
1.00606
1.00614
1.00486
1.00292
1.00231
1.00291
1.0078
1.02201
1.06067
1.19593
1.51014
2.31245
2.51548
0.378591
0.377072
0.426321
0.495207
0.500445
0.530184
0.614838
0.791305
0.906844
0.963956
0.991199
1.00263
1.00604
1.00613
1.00486
1.00292
1.00231
1.00291
1.00779
1.02198
1.06053
1.19523
1.50771
2.30789
2.50746
0.378014
0.376281
0.425214
0.493788
0.499052
0.529283
0.614975
0.791651
0.907032
0.964085
0.991279
1.00267
1.00606
1.00614
1.00486
1.00292
1.00231
1.0029
1.00776
1.02187
1.0601
1.19319
1.50116
2.29679
2.48942
0.377879
0.376114
0.425108
0.49373
0.499037
0.529318
0.615061
0.791669
0.907002
0.964053
0.991254
1.00265
1.00605
1.00614
1.00486
1.00292
1.0023
1.00288
1.00768
1.02156
1.05897
1.18817
1.48635
2.27492
2.45526
0.378573
0.377076
0.426349
0.495045
0.500259
0.530034
0.614831
0.791355
0.906901
0.964004
0.991231
1.00264
1.00605
1.00613
1.00486
1.00292
1.00229
1.00282
1.00745
1.02082
1.05644
1.17788
1.45774
2.2394
2.40229
0.378454
0.376949
0.426287
0.49495
0.50019
0.530012
0.6149
0.791391
0.906898
0.963996
0.991222
1.00264
1.00604
1.00613
1.00485
1.00291
1.00225
1.00269
1.00698
1.01938
1.05195
1.16123
1.4132
2.18812
2.32379
0.377973
0.37623
0.42518
0.49374
0.499015
0.529267
0.614998
0.791661
0.907026
0.964077
0.991271
1.00266
1.00606
1.00614
1.00485
1.0029
1.00216
1.00245
1.00613
1.0169
1.04479
1.13644
1.34776
2.07827
2.24855
0.378331
0.376808
0.426169
0.495003
0.500311
0.530169
0.615011
0.791378
0.906832
0.963935
0.991181
1.00261
1.00603
1.00612
1.00484
1.00288
1.002
1.00211
1.00487
1.01342
1.03497
1.10778
1.26037
1.9842
2.01559
0.377978
0.376238
0.425186
0.493766
0.49904
0.529283
0.614997
0.791664
0.907036
0.964086
0.991278
1.00267
1.00606
1.00614
1.00483
1.00283
1.00169
1.00157
1.00285
1.00775
1.02105
1.05871
1.16115
1.44647
1.75088
0.378509
0.377019
0.426315
0.495002
0.50024
0.530052
0.614899
0.791391
0.906911
0.964008
0.991233
1.00264
1.00605
1.00613
1.00481
1.00282
1.00152
1.0011
1.00133
1.00343
1.00944
1.026
1.07258
1.19445
1.47772
0.378015
0.376281
0.425221
0.493799
0.499065
0.529298
0.614999
0.791673
0.907043
0.96409
0.991281
1.00267
1.00606
1.00614
1.00482
1.0028
1.00151
1.00079
1.00068
1.0011
1.00298
1.00824
1.0224
1.06293
1.14927
0.377885
0.376147
0.425149
0.493712
0.499002
0.529276
0.615047
0.791689
0.90704
0.964088
0.99128
1.00267
1.00606
1.00614
1.00482
1.00279
1.00149
1.00075
1.0004
1.0004
1.00076
1.00206
1.00553
1.01503
1.03601
0.378494
0.376997
0.426305
0.494987
0.500227
0.530044
0.614908
0.791396
0.906909
0.964007
0.991232
1.00264
1.00605
1.00613
1.00482
1.00279
1.00149
1.00074
1.00035
1.00019
1.0002
1.00041
1.00108
1.00275
1.00697
0.378383
0.376872
0.426217
0.494901
0.500161
0.530008
0.614924
0.791391
0.906901
0.964003
0.991231
1.00264
1.00605
1.00613
1.00482
1.00279
1.00149
1.00074
1.00035
1.00015
1.00008
1.00009
1.00019
1.00047
1.00116
0.378294
0.376786
0.426179
0.494848
0.500126
0.529999
0.614964
0.791402
0.906897
0.964001
0.99123
1.00264
1.00605
1.00613
1.00482
1.00279
1.00149
1.00074
1.00034
1.00015
1.00006
1.00003
1.00003
1.00007
1.00017
0.378284
0.376772
0.42618
0.494853
0.500126
0.529989
0.614951
0.791395
0.906898
0.964005
0.991234
1.00265
1.00605
1.00613
1.00482
1.00279
1.00149
1.00074
1.00034
1.00015
1.00006
1.00002
1
1.00001
1.00002
0.378386
0.376873
0.426221
0.494902
0.500163
0.530012
0.614935
0.791401
0.906903
0.964003
0.99123
1.00264
1.00605
1.00613
1.00482
1.00279
1.00149
1.00074
1.00034
1.00015
1.00006
1.00002
1
0.999995
0.999995
0.37837
0.376868
0.426246
0.494918
0.500175
0.530017
0.614943
0.791404
0.906907
0.964008
0.991235
1.00265
1.00605
1.00613
1.00482
1.00279
1.00149
1.00074
1.00034
1.00015
1.00006
1.00002
1
0.999994
0.999992
0.377836
0.376073
0.425097
0.493654
0.498956
0.529256
0.615071
0.791696
0.907034
0.964083
0.991276
1.00267
1.00606
1.00614
1.00482
1.00279
1.00149
1.00074
1.00034
1.00015
1.00006
1.00002
1
0.999994
0.999991
0.378479
0.37698
0.426291
0.494976
0.50022
0.530043
0.614917
0.791401
0.906909
0.964006
0.991231
1.00264
1.00605
1.00613
1.00482
1.00279
1.00149
1.00074
1.00034
1.00015
1.00006
1.00002
1
0.999994
0.999991
0.378467
0.376965
0.426292
0.494981
0.500219
0.530031
0.614899
0.791389
0.90691
0.96401
0.991235
1.00265
1.00605
1.00613
1.00482
1.00279
1.00149
1.00074
1.00034
1.00015
1.00006
1.00002
1
0.999994
0.999991
0.377836
0.376073
0.425097
0.493654
0.498955
0.529255
0.615069
0.791694
0.907034
0.964083
0.991277
1.00267
1.00606
1.00614
1.00482
1.00279
1.00149
1.00074
1.00034
1.00015
1.00006
1.00002
1
0.999994
0.999991
0.378381
0.376883
0.426243
0.494912
0.500174
0.530026
0.614952
0.791407
0.906905
0.964005
0.991232
1.00264
1.00605
1.00613
1.00482
1.00279
1.00149
1.00074
1.00034
1.00015
1.00006
1.00002
1
0.999994
0.999991
0.378374
0.376859
0.426217
0.494908
0.500162
0.529996
0.614904
0.791379
0.906901
0.964007
0.991234
1.00265
1.00605
1.00613
1.00482
1.00279
1.00149
1.00074
1.00034
1.00015
1.00006
1.00002
1
0.999994
0.999991
0.378374
0.37686
0.426218
0.494909
0.500163
0.529997
0.614905
0.79138
0.906901
0.964007
0.991234
1.00265
1.00605
1.00613
1.00482
1.00279
1.00149
1.00074
1.00034
1.00015
1.00006
1.00002
1
0.999994
0.999991
0.378372
0.37687
0.426245
0.494918
0.500175
0.530017
0.614941
0.791402
0.906906
0.964008
0.991235
1.00265
1.00605
1.00613
1.00482
1.00279
1.00149
1.00074
1.00034
1.00015
1.00006
1.00002
1
0.999994
0.999991
0.37784
0.376075
0.425099
0.493655
0.498956
0.529259
0.615079
0.791702
0.907036
0.964084
0.991277
1.00267
1.00606
1.00614
1.00482
1.00279
1.00149
1.00074
1.00034
1.00015
1.00006
1.00002
1
0.999994
0.999991
0.378371
0.376868
0.426247
0.494917
0.500174
0.530018
0.614948
0.791408
0.906908
0.964008
0.991235
1.00265
1.00605
1.00613
1.00482
1.00279
1.00149
1.00074
1.00034
1.00015
1.00006
1.00002
1
0.999994
0.999991
0.378385
0.376873
0.426219
0.494902
0.500162
0.53001
0.614928
0.791395
0.906902
0.964003
0.991231
1.00264
1.00605
1.00613
1.00482
1.00279
1.00149
1.00074
1.00034
1.00015
1.00006
1.00002
1
0.999994
0.999991
0.378286
0.376774
0.42618
0.494855
0.500128
0.52999
0.614948
0.791393
0.906897
0.964004
0.991233
1.00264
1.00605
1.00613
1.00482
1.00279
1.00149
1.00074
1.00034
1.00015
1.00006
1.00002
1
0.999994
0.999991
0.378385
0.376873
0.426218
0.494902
0.500162
0.53001
0.614928
0.791395
0.906902
0.964003
0.99123
1.00264
1.00605
1.00613
1.00482
1.00279
1.00149
1.00074
1.00034
1.00015
1.00006
1.00002
1
0.999994
0.999991
0.378372
0.37687
0.426247
0.494919
0.500176
0.53002
0.614949
0.79141
0.906908
0.964008
0.991234
1.00264
1.00605
1.00613
1.00482
1.00279
1.00149
1.00074
1.00034
1.00015
1.00006
1.00002
1
0.999994
0.999991
0.377834
0.376068
0.4251
0.493657
0.498956
0.529254
0.615073
0.791699
0.907036
0.964085
0.991279
1.00267
1.00606
1.00614
1.00482
1.00279
1.00149
1.00074
1.00034
1.00015
1.00006
1.00002
1
0.999994
0.999991
0.378384
0.376884
0.426247
0.494915
0.500178
0.530033
0.614968
0.791421
0.906908
0.964004
0.99123
1.00264
1.00605
1.00613
1.00482
1.00279
1.00149
1.00074
1.00034
1.00015
1.00006
1.00002
1
0.999994
0.999991
0.378372
0.376857
0.42622
0.494905
0.500159
0.529996
0.614911
0.791385
0.906902
0.964007
0.991234
1.00265
1.00605
1.00613
1.00482
1.00279
1.00149
1.00074
1.00034
1.00015
1.00006
1.00002
1
0.999994
0.999991
0.378296
0.376788
0.426181
0.49485
0.500129
0.530003
0.614968
0.791406
0.906898
0.964001
0.991229
1.00264
1.00605
1.00613
1.00482
1.00279
1.00149
1.00074
1.00034
1.00015
1.00006
1.00002
1
0.999994
0.999991
0.378385
0.376873
0.426218
0.4949
0.500161
0.530008
0.614927
0.791393
0.906901
0.964003
0.991231
1.00264
1.00605
1.00613
1.00482
1.00279
1.00149
1.00074
1.00034
1.00015
1.00006
1.00002
1
0.999994
0.999991
0.37837
0.376869
0.426245
0.494918
0.500175
0.530016
0.61494
0.791402
0.906906
0.964009
0.991235
1.00265
1.00605
1.00613
1.00482
1.00279
1.00149
1.00074
1.00034
1.00015
1.00006
1.00002
1
0.999994
0.999991
0.377831
0.376067
0.425097
0.493656
0.498955
0.529249
0.615059
0.791688
0.907034
0.964085
0.991279
1.00267
1.00606
1.00614
1.00482
1.00279
1.00149
1.00074
1.00034
1.00015
1.00006
1.00002
1
0.999994
0.999991
0.378469
0.376967
0.42629
0.494981
0.500219
0.53003
0.614895
0.791386
0.906909
0.96401
0.991236
1.00265
1.00605
1.00613
1.00482
1.00279
1.00149
1.00074
1.00034
1.00015
1.00006
1.00002
1
0.999994
0.999991
0.378466
0.376965
0.426289
0.49498
0.500216
0.530025
0.614887
0.791379
0.906908
0.96401
0.991236
1.00265
1.00605
1.00613
1.00482
1.00279
1.00149
1.00074
1.00034
1.00015
1.00006
1.00002
1
0.999994
0.999991
0.377829
0.376066
0.425094
0.493657
0.498956
0.529246
0.615049
0.79168
0.907031
0.964084
0.991279
1.00267
1.00606
1.00614
1.00482
1.00279
1.00149
1.00074
1.00034
1.00015
1.00006
1.00002
1
0.999994
0.999991
0.378464
0.376964
0.426287
0.494979
0.500215
0.530023
0.614881
0.791373
0.906905
0.964009
0.991236
1.00265
1.00605
1.00613
1.00482
1.00279
1.00149
1.00074
1.00034
1.00015
1.00006
1.00002
1
0.999994
0.999991
0.378475
0.376977
0.426288
0.494974
0.500218
0.530039
0.614906
0.791391
0.906907
0.964005
0.991231
1.00264
1.00605
1.00613
1.00482
1.00279
1.00149
1.00074
1.00034
1.00015
1.00006
1.00002
1
0.999994
0.999991
0.377978
0.376234
0.425185
0.493753
0.499027
0.529278
0.615008
0.791672
0.907035
0.964084
0.991277
1.00267
1.00606
1.00614
1.00482
1.00279
1.00149
1.00074
1.00034
1.00015
1.00006
1.00002
1
0.999994
0.999991
0.378356
0.376861
0.426239
0.494912
0.500173
0.530018
0.614938
0.791396
0.906904
0.964007
0.991234
1.00265
1.00605
1.00613
1.00482
1.00279
1.00149
1.00074
1.00034
1.00015
1.00006
1.00002
1
0.999994
0.999991
0.377954
0.376197
0.42515
0.49381
0.499097
0.529332
0.615007
0.791644
0.907009
0.964064
0.991265
1.00266
1.00606
1.00613
1.00482
1.00279
1.00149
1.00074
1.00034
1.00015
1.00006
1.00002
1
0.999994
0.999991
0.378472
0.376974
0.426285
0.494963
0.500207
0.530031
0.614903
0.791388
0.906903
0.964003
0.99123
1.00264
1.00605
1.00613
1.00482
1.00279
1.00149
1.00074
1.00034
1.00015
1.00006
1.00002
1
0.999994
0.999991
0.378201
0.376488
0.425333
0.49394
0.499167