/*--------------------------------*- C++ -*----------------------------------*\
| =========                 |                                                 |
| \\      /  F ield         | OpenFOAM: The Open Source CFD Toolbox           |
|  \\    /   O peration     | Version:  4.1                                   |
|   \\  /    A nd           | Web:      www.OpenFOAM.org                      |
|    \\/     M anipulation  |                                                 |
\*---------------------------------------------------------------------------*/
FoamFile
{
    version     2.0;
    format      ascii;
    class       volVectorField;
    location    "0.08";
    object      U;
}
// * * * * * * * * * * * * * * * * * * * * * * * * * * * * * * * * * * * * * //

dimensions      [0 1 -1 0 0 0 0];

internalField   nonuniform List<vector> 
52500
(
(1.77375 1.27259e-06 -0.00240562)
(1.82088 2.51744e-06 -0.00238011)
(1.79909 3.64389e-06 -0.00268985)
(1.688 4.4239e-06 -0.00306513)
(1.54221 3.96502e-06 -0.00309705)
(1.44931 1.94653e-06 -0.0032861)
(1.46709 -1.15489e-06 -0.00380415)
(1.56229 -2.84152e-06 -0.00494659)
(1.68013 -2.97552e-06 -0.00563759)
(1.77962 -2.30301e-06 -0.00595819)
(1.85492 -1.4966e-06 -0.00610225)
(1.90892 -8.59961e-07 -0.00615732)
(1.94569 -4.76122e-07 -0.00616929)
(1.96939 -2.81854e-07 -0.00616476)
(1.98376 -1.6143e-07 -0.0061544)
(1.99169 -9.32164e-08 -0.00614142)
(1.99519 -5.23932e-08 -0.00613658)
(1.99539 -2.02588e-08 -0.00614353)
(1.99147 4.44386e-08 -0.00618285)
(1.97846 3.08453e-07 -0.00629587)
(1.93883 1.63928e-06 -0.00659909)
(1.80341 8.34269e-06 -0.00759281)
(1.40233 4.60911e-05 -0.0100892)
(-0.304267 0.000217873 -0.0165216)
(0.266541 0.000513896 -0.017939)
(1.77375 1.05795e-05 -0.00240555)
(1.82089 1.45942e-05 -0.00237991)
(1.7991 1.05821e-05 -0.0026896)
(1.688 -2.14447e-06 -0.00306479)
(1.54221 -1.30582e-05 -0.00309662)
(1.44931 -1.70491e-05 -0.00328565)
(1.46709 -1.53541e-05 -0.00380373)
(1.56229 -8.36938e-06 -0.00494643)
(1.68013 -3.65559e-06 -0.00563754)
(1.77962 -5.61981e-07 -0.00595818)
(1.85492 1.51981e-06 -0.00610225)
(1.90892 2.59198e-06 -0.00615732)
(1.94569 2.78412e-06 -0.00616929)
(1.96939 2.36834e-06 -0.00616477)
(1.98376 1.62333e-06 -0.0061544)
(1.99169 9.88554e-07 -0.00614142)
(1.99519 5.43457e-07 -0.00613658)
(1.99539 2.74471e-07 -0.00614353)
(1.99147 2.78855e-07 -0.00618285)
(1.97846 1.03994e-06 -0.00629585)
(1.93884 6.33007e-06 -0.00659899)
(1.80346 3.46739e-05 -0.00759236)
(1.40254 0.000181986 -0.0100871)
(-0.303411 0.00100089 -0.0165161)
(0.266722 0.00245677 -0.0179272)
(1.77379 1.74557e-05 -0.00240699)
(1.82095 1.41247e-05 -0.00238119)
(1.79915 -6.80065e-06 -0.00269098)
(1.68802 -4.68513e-05 -0.00306635)
(1.54221 -8.2395e-05 -0.00309768)
(1.44931 -9.52515e-05 -0.00328594)
(1.4671 -7.82927e-05 -0.00380267)
(1.56231 -3.9515e-05 -0.00494567)
(1.68015 -1.70348e-05 -0.00563733)
(1.77962 -6.38931e-06 -0.00595807)
(1.85492 -1.12512e-06 -0.00610219)
(1.90892 1.36369e-06 -0.00615729)
(1.94569 2.20731e-06 -0.00616928)
(1.96938 2.08738e-06 -0.00616476)
(1.98376 1.53786e-06 -0.00615441)
(1.99169 9.70518e-07 -0.00614143)
(1.99519 6.13557e-07 -0.00613658)
(1.99539 7.32113e-07 -0.00614353)
(1.99147 2.0859e-06 -0.00618283)
(1.97846 8.17909e-06 -0.00629577)
(1.93886 3.5389e-05 -0.00659861)
(1.80359 0.000159968 -0.00759082)
(1.40334 0.000789028 -0.0100783)
(-0.300769 0.00350721 -0.0165026)
(0.267552 0.0078162 -0.0178896)
(1.77389 5.41495e-05 -0.00240532)
(1.82101 6.09037e-05 -0.00237936)
(1.79918 3.09618e-05 -0.00268911)
(1.68807 -3.66181e-05 -0.00306383)
(1.5423 -9.94211e-05 -0.00309555)
(1.4494 -0.000126628 -0.00328478)
(1.46716 -0.000108048 -0.00380326)
(1.56235 -5.62047e-05 -0.00494632)
(1.68016 -2.65593e-05 -0.00563742)
(1.77963 -1.17698e-05 -0.00595808)
(1.85492 -3.7864e-06 -0.00610218)
(1.90893 3.49326e-07 -0.00615728)
(1.94569 2.02178e-06 -0.00616927)
(1.96939 2.21155e-06 -0.00616476)
(1.98376 1.72674e-06 -0.00615441)
(1.99169 1.09058e-06 -0.00614143)
(1.99519 1.04225e-06 -0.00613658)
(1.99539 2.75692e-06 -0.00614351)
(1.99147 9.39677e-06 -0.00618275)
(1.97849 3.50141e-05 -0.00629545)
(1.93897 0.000136702 -0.00659732)
(1.80421 0.000565736 -0.00758501)
(1.40587 0.00264058 -0.0100541)
(-0.291089 0.0105048 -0.0164521)
(0.26929 0.0219928 -0.0177996)
(1.77418 -0.000313963 -0.00240603)
(1.82131 -0.000658886 -0.00237965)
(1.79942 -0.00089827 -0.0026898)
(1.68825 -0.000893856 -0.00306466)
(1.54243 -0.00060548 -0.00309602)
(1.44949 -0.000226728 -0.0032847)
(1.46724 4.74201e-06 -0.00380222)
(1.56241 6.45907e-06 -0.00494553)
(1.68019 -1.49907e-05 -0.00563715)
(1.77965 -1.8769e-05 -0.00595795)
(1.85493 -1.42265e-05 -0.00610212)
(1.90893 -8.11524e-06 -0.00615725)
(1.94569 -3.36847e-06 -0.00616926)
(1.96938 -7.01686e-07 -0.00616475)
(1.98376 1.3658e-07 -0.0061544)
(1.99169 1.10783e-07 -0.00614143)
(1.9952 1.57255e-06 -0.00613657)
(1.9954 8.46327e-06 -0.00614344)
(1.9915 3.10071e-05 -0.00618247)
(1.97857 0.00011157 -0.00629443)
(1.93932 0.000411899 -0.00659341)
(1.80605 0.00160905 -0.00756829)
(1.41289 0.00704409 -0.0099901)
(-0.264602 0.0264732 -0.0163352)
(0.273571 0.0536957 -0.0176072)
(1.77315 -0.000338546 -0.00240672)
(1.81968 -0.000701448 -0.00238269)
(1.79773 -0.000951212 -0.00269485)
(1.68688 -0.000947291 -0.00307106)
(1.54159 -0.000654301 -0.00310306)
(1.44915 -0.000268431 -0.00328969)
(1.46709 -2.52042e-05 -0.003804)
(1.56229 -7.69385e-06 -0.00494519)
(1.68014 -1.94218e-05 -0.00563661)
(1.77964 -1.9453e-05 -0.00595753)
(1.85494 -1.40864e-05 -0.00610185)
(1.90894 -8.10842e-06 -0.0061571)
(1.9457 -3.63479e-06 -0.00616918)
(1.96939 -1.07306e-06 -0.00616471)
(1.98376 6.308e-08 -0.00615439)
(1.99169 -7.81107e-08 -0.00614142)
(1.9952 4.86815e-06 -0.00613654)
(1.99542 2.73141e-05 -0.00614324)
(1.99156 9.48665e-05 -0.00618168)
(1.97881 0.000319053 -0.00629165)
(1.94027 0.0010959 -0.00658342)
(1.81063 0.00398013 -0.00752812)
(1.42923 0.0161565 -0.00984976)
(-0.203052 0.0571863 -0.016109)
(0.282554 0.113982 -0.0172597)
(1.77335 0.000382036 -0.00240633)
(1.81984 0.000730725 -0.00238216)
(1.79784 0.000929324 -0.00269459)
(1.68698 0.000836179 -0.00307056)
(1.54171 0.000464695 -0.00310257)
(1.44925 4.97786e-05 -0.00328938)
(1.46718 -0.000157442 -0.00380401)
(1.56235 -8.85575e-05 -0.00494522)
(1.68017 -2.55079e-05 -0.00563655)
(1.77965 -2.21658e-07 -0.00595747)
(1.85495 7.111e-06 -0.00610181)
(1.90894 7.30227e-06 -0.00615708)
(1.9457 5.29168e-06 -0.00616917)
(1.96939 3.21955e-06 -0.00616471)
(1.98376 2.63239e-06 -0.00615438)
(1.9917 9.92676e-07 -0.00614142)
(1.99522 1.45408e-05 -0.00613645)
(1.99547 7.27704e-05 -0.0061427)
(1.99174 0.000238093 -0.00617969)
(1.97942 0.00075443 -0.00628512)
(1.94248 0.00241276 -0.00656169)
(1.82036 0.00814337 -0.00744784)
(1.46149 0.0303207 -0.00959158)
(-0.081943 0.10171 -0.0156474)
(0.300836 0.207432 -0.0166908)
(1.77438 -7.38128e-07 -0.0024044)
(1.82146 -1.00283e-06 -0.00237754)
(1.79952 -8.37477e-07 -0.00268789)
(1.68836 -4.42201e-07 -0.00306205)
(1.54259 -5.16071e-07 -0.00309367)
(1.44963 -1.73433e-06 -0.00328321)
(1.46734 -3.68528e-06 -0.00380244)
(1.56248 -4.42625e-06 -0.00494606)
(1.68023 -4.49307e-06 -0.00563714)
(1.77966 -3.92773e-06 -0.00595788)
(1.85494 -3.11853e-06 -0.00610206)
(1.90893 -2.28546e-06 -0.00615722)
(1.94569 -1.57614e-06 -0.00616924)
(1.96939 -1.00817e-06 -0.00616475)
(1.98376 1.01427e-06 -0.00615437)
(1.9917 9.40017e-07 -0.00614142)
(1.99526 3.7446e-05 -0.00613621)
(1.9956 0.000171544 -0.00614157)
(1.99213 0.000533073 -0.00617569)
(1.98065 0.00157932 -0.00627287)
(1.94659 0.00468774 -0.00652413)
(1.83656 0.0146423 -0.00731969)
(1.51157 0.0499818 -0.00921364)
(0.104628 0.162364 -0.015027)
(0.344652 0.34927 -0.0159051)
(1.77334 -0.000357557 -0.00240661)
(1.81984 -0.000708481 -0.00238215)
(1.79784 -0.00092857 -0.00269447)
(1.68698 -0.000874632 -0.00307029)
(1.54171 -0.000536788 -0.00310211)
(1.44925 -0.000134928 -0.0032888)
(1.46717 8.40569e-05 -0.00380335)
(1.56235 4.68434e-05 -0.00494504)
(1.68017 3.99512e-06 -0.00563648)
(1.77965 -1.00087e-05 -0.00595742)
(1.85495 -1.10787e-05 -0.00610178)
(1.90894 -7.98106e-06 -0.00615705)
(1.9457 -4.56214e-06 -0.00616915)
(1.96939 -2.12524e-06 -0.0061647)
(1.98376 2.45544e-06 -0.00615432)
(1.99173 4.56207e-06 -0.00614133)
(1.99536 7.51165e-05 -0.00613569)
(1.99589 0.000324992 -0.00613949)
(1.99292 0.000969571 -0.00616865)
(1.98291 0.00275107 -0.00625243)
(1.95357 0.00766507 -0.00646596)
(1.86132 0.0226033 -0.00713086)
(1.58722 0.070954 -0.00869208)
(0.381512 0.230802 -0.0139571)
(0.433245 0.506365 -0.0150582)
(1.77336 0.000325295 -0.00240656)
(1.81986 0.000680399 -0.00238208)
(1.79786 0.000927911 -0.00269451)
(1.68699 0.000926884 -0.00307035)
(1.54171 0.000634769 -0.00310211)
(1.44925 0.000246799 -0.00328868)
(1.46717 4.09017e-06 -0.00380319)
(1.56235 -5.94557e-06 -0.00494492)
(1.68017 1.23931e-05 -0.00563646)
(1.77965 1.63707e-05 -0.00595744)
(1.85495 1.28964e-05 -0.00610181)
(1.90894 7.58047e-06 -0.00615708)
(1.9457 3.8216e-06 -0.00616917)
(1.96939 8.02244e-07 -0.00616471)
(1.98376 7.98857e-06 -0.00615426)
(1.99176 1.63677e-05 -0.00614118)
(1.99553 0.000143034 -0.00613478)
(1.99635 0.00059955 -0.00613656)
(1.99416 0.00174904 -0.00615858)
(1.98626 0.00480482 -0.00622423)
(1.96332 0.0128641 -0.00638864)
(1.89219 0.0358382 -0.00691061)
(1.68531 0.106909 -0.00804519)
(0.689778 0.333453 -0.012915)
(0.585292 0.850351 -0.0131373)
(1.7739 7.45374e-06 4.47696e-09)
(1.82102 1.64574e-05 3.53331e-09)
(1.79919 2.70549e-05 8.23208e-09)
(1.68807 3.95389e-05 1.36394e-08)
(1.5423 4.75564e-05 2.26583e-08)
(1.44939 4.68989e-05 3.77152e-08)
(1.46715 3.56877e-05 7.27553e-08)
(1.56234 1.71865e-05 -8.43545e-09)
(1.68016 4.97446e-06 -5.63826e-08)
(1.77963 -6.75824e-07 -6.23634e-08)
(1.85492 -2.67517e-06 -6.14064e-08)
(1.90893 -2.95834e-06 -5.88524e-08)
(1.94569 -2.52954e-06 -5.41399e-08)
(1.96939 -1.91247e-06 -4.98305e-08)
(1.98376 -1.31835e-06 -4.38768e-08)
(1.99169 -8.42632e-07 -3.84399e-08)
(1.99519 -5.24092e-07 -3.70927e-08)
(1.99539 -3.0628e-07 -3.71192e-08)
(1.99147 -1.00172e-07 -3.8751e-08)
(1.97846 3.19585e-07 -4.50024e-08)
(1.93883 1.87706e-06 -6.81119e-08)
(1.80339 9.07893e-06 -1.41353e-07)
(1.40227 4.8074e-05 -4.11069e-07)
(-0.304428 0.00022027 -8.92223e-07)
(0.266479 0.000508652 -2.98607e-07)
(1.77392 -0.00029906 -5.30183e-09)
(1.82106 -0.000647518 -5.94702e-09)
(1.79924 -0.000901406 -4.27308e-09)
(1.68811 -0.000919097 1.63e-09)
(1.54231 -0.000644086 1.24684e-08)
(1.44938 -0.000263549 2.84559e-08)
(1.46714 -1.89126e-05 6.51314e-08)
(1.56232 -3.81073e-06 9.28568e-09)
(1.68015 -2.05659e-05 -3.43924e-08)
(1.77962 -2.28526e-05 -4.82325e-08)
(1.85492 -1.74791e-05 -5.34844e-08)
(1.90893 -1.06067e-05 -5.50564e-08)
(1.94569 -5.16584e-06 -5.26856e-08)
(1.96939 -1.92882e-06 -4.87063e-08)
(1.98376 -6.80981e-07 -4.31738e-08)
(1.99169 -1.97834e-07 -3.81142e-08)
(1.99519 -4.88196e-08 -3.67709e-08)
(1.99539 7.40796e-08 -3.67098e-08)
(1.99147 5.08656e-07 -3.81202e-08)
(1.97846 2.34346e-06 -4.34925e-08)
(1.93884 1.02689e-05 -6.41858e-08)
(1.80344 4.71119e-05 -1.29163e-07)
(1.40248 0.000242078 -3.73658e-07)
(-0.303581 0.00106854 -8.65951e-07)
(0.266649 0.00240852 -2.62123e-07)
(1.7733 -1.1427e-05 -8.78676e-08)
(1.8198 -1.73599e-05 -9.22519e-08)
(1.79782 -1.74841e-05 -1.05595e-07)
(1.68696 -9.10992e-06 -8.91728e-08)
(1.54169 3.34893e-06 -4.84649e-08)
(1.44922 1.33274e-05 2.36652e-08)
(1.46713 1.57287e-05 1.38081e-07)
(1.56231 7.6132e-06 4.87516e-08)
(1.68015 1.51815e-06 1.5625e-08)
(1.77964 -1.41211e-06 -6.49871e-10)
(1.85494 -2.39396e-06 -2.05397e-08)
(1.90894 -2.35604e-06 -3.60585e-08)
(1.9457 -1.89379e-06 -4.36629e-08)
(1.96939 -1.3392e-06 -4.79078e-08)
(1.98376 -8.52667e-07 -4.32077e-08)
(1.99169 -5.19493e-07 -3.82044e-08)
(1.99519 -2.36275e-07 -3.68423e-08)
(1.99539 3.7527e-07 -3.49796e-08)
(1.99147 2.23635e-06 -3.25749e-08)
(1.97846 9.44437e-06 -2.34581e-08)
(1.93887 3.93166e-05 -8.54161e-09)
(1.80362 0.000172378 3.90663e-08)
(1.40329 0.000849111 3.94418e-07)
(-0.300426 0.00357286 -6.59051e-07)
(0.26725 0.00776356 -4.62388e-07)
(1.77387 -5.73948e-09 2.40938e-08)
(1.82101 1.39359e-08 1.13205e-08)
(1.7992 8.70285e-08 2.09764e-08)
(1.68808 2.74654e-07 4.2131e-08)
(1.54228 5.37852e-07 7.14889e-08)
(1.44936 7.95872e-07 1.18178e-07)
(1.46712 8.60253e-07 2.06481e-07)
(1.56231 3.00215e-07 7.80758e-08)
(1.68014 -2.87836e-07 8.87146e-09)
(1.77962 -6.50203e-07 -1.27822e-08)
(1.85492 -7.59064e-07 -2.92344e-08)
(1.90893 -6.88505e-07 -4.10138e-08)
(1.94569 -5.41405e-07 -4.64788e-08)
(1.96939 -3.86613e-07 -4.70974e-08)
(1.98376 -2.2862e-07 -4.25931e-08)
(1.99169 -1.77679e-07 -3.79044e-08)
(1.9952 2.71796e-07 -3.63963e-08)
(1.99539 2.31364e-06 -3.44291e-08)
(1.99148 9.17887e-06 -3.17924e-08)
(1.97849 3.49812e-05 -2.16619e-08)
(1.93898 0.000136905 -4.65047e-09)
(1.80424 0.000566291 5.04372e-08)
(1.40582 0.00264221 4.2899e-07)
(-0.290761 0.010503 -6.31629e-07)
(0.268978 0.021989 -4.13828e-07)
(1.7733 1.15559e-05 -4.40411e-07)
(1.8198 1.74826e-05 -8.01407e-08)
(1.79782 1.80195e-05 6.88411e-09)
(1.68696 1.1074e-05 2.0252e-07)
(1.54169 9.44947e-07 4.19514e-07)
(1.44922 -6.68043e-06 6.11055e-07)
(1.46713 -8.31624e-06 8.18723e-07)
(1.56231 -3.50085e-06 2.2335e-07)
(1.68015 -6.43139e-07 7.64891e-08)
(1.77964 3.42522e-07 4.69286e-08)
(1.85494 4.89331e-07 1.31958e-08)
(1.90894 3.43719e-07 -1.68904e-08)
(1.9457 1.61853e-07 -3.56559e-08)
(1.96939 3.34004e-08 -4.64333e-08)
(1.98376 6.15157e-08 -4.35924e-08)
(1.99169 -1.30585e-07 -3.87649e-08)
(1.9952 1.37026e-06 -3.76256e-08)
(1.9954 8.35669e-06 -3.56157e-08)
(1.9915 3.09824e-05 -3.28337e-08)
(1.97857 0.000111589 -2.2826e-08)
(1.93933 0.000411807 -5.38131e-09)
(1.80608 0.00160841 5.05923e-08)
(1.41284 0.00704015 4.25598e-07)
(-0.26428 0.0264633 -6.04334e-07)
(0.273263 0.0537081 -3.63098e-07)
(1.77393 0.000299235 -1.30024e-07)
(1.82106 0.000647469 -4.85947e-08)
(1.79924 0.000902131 -1.61125e-08)
(1.68811 0.000922724 6.46692e-08)
(1.54231 0.000652141 1.93938e-07)
(1.44938 0.000275321 3.51453e-07)
(1.46713 3.08352e-05 5.49941e-07)
(1.56232 1.01972e-05 1.75467e-07)
(1.68014 2.24666e-05 4.74345e-08)
(1.77962 2.24147e-05 1.62129e-08)
(1.85492 1.60853e-05 -1.10807e-08)
(1.90893 9.03507e-06 -3.20099e-08)
(1.94569 3.814e-06 -4.36699e-08)
(1.96939 9.27014e-07 -4.80629e-08)
(1.98376 2.64093e-07 -4.35825e-08)
(1.9917 -3.81876e-07 -3.84883e-08)
(1.9952 4.5262e-06 -3.69784e-08)
(1.99542 2.69947e-05 -3.50073e-08)
(1.99156 9.44294e-05 -3.25661e-08)
(1.97881 0.00031788 -2.3225e-08)
(1.94028 0.00109275 -1.07966e-08)
(1.81066 0.00397022 3.21952e-08)
(1.42919 0.0161069 3.3923e-07)
(-0.202748 0.0571134 -5.62243e-07)
(0.282258 0.114051 -3.00933e-07)
(1.77391 -2.73465e-05 1.42702e-06)
(1.82102 -3.45779e-05 1.38595e-06)
(1.79919 -2.56259e-05 1.45778e-06)
(1.68808 4.02812e-07 1.27463e-06)
(1.5423 2.69653e-05 8.446e-07)
(1.44939 4.07624e-05 3.42408e-07)
(1.46715 3.702e-05 -4.86669e-07)
(1.56233 2.03012e-05 -4.29706e-07)
(1.68015 1.12298e-05 3.99379e-08)
(1.77963 6.45182e-06 8.25456e-08)
(1.85492 3.36913e-06 4.75221e-08)
(1.90893 1.41512e-06 6.18129e-09)
(1.94569 3.65137e-07 -2.32086e-08)
(1.96939 -6.14126e-08 -4.5616e-08)
(1.98376 4.81525e-07 -4.28141e-08)
(1.9917 -3.24171e-07 -3.7952e-08)
(1.99522 1.37785e-05 -3.69938e-08)
(1.99547 7.23464e-05 -3.6664e-08)
(1.99174 0.000237921 -3.64264e-08)
(1.97942 0.000754403 -3.83295e-08)
(1.94248 0.0024124 -4.62492e-08)
(1.82035 0.00814055 -7.87172e-08)
(1.46144 0.0303005 -1.92221e-07)
(-0.0821341 0.101675 -7.54416e-07)
(0.300733 0.207489 -1.85475e-08)
(1.77375 -2.00865e-05 -8.62929e-07)
(1.82089 -1.84525e-05 -1.42147e-07)
(1.7991 9.37965e-07 -2.83453e-08)
(1.688 3.93888e-05 2.21751e-07)
(1.54221 7.41853e-05 5.90127e-07)
(1.4493 8.78432e-05 9.71581e-07)
(1.46708 7.34181e-05 1.35232e-06)
(1.56228 3.78358e-05 3.5363e-07)
(1.68012 1.64551e-05 1.29959e-07)
(1.77961 6.07789e-06 9.06559e-08)
(1.85492 1.0127e-06 4.32482e-08)
(1.90892 -1.25327e-06 -9.67207e-11)
(1.94569 -1.93623e-06 -2.81078e-08)
(1.96939 -1.77487e-06 -4.16319e-08)
(1.98376 3.10426e-07 -4.11656e-08)
(1.99171 4.28487e-07 -3.7746e-08)
(1.99526 3.71678e-05 -3.61033e-08)
(1.9956 0.000171557 -3.47939e-08)
(1.99213 0.000533475 -3.45074e-08)
(1.98065 0.00158083 -2.99324e-08)
(1.9466 0.00469087 -4.2765e-08)
(1.83657 0.0146509 -4.57032e-08)
(1.51151 0.0500134 -2.74338e-08)
(0.104792 0.162378 -1.06718e-06)
(0.344511 0.349317 -4.05393e-08)
(1.77375 -2.28313e-07 1.1092e-06)
(1.82089 -6.55085e-07 1.2457e-06)
(1.7991 -3.01419e-08 1.33021e-06)
(1.688 2.78661e-06 1.19857e-06)
(1.54221 7.19644e-06 8.64911e-07)
(1.4493 1.09604e-05 4.66591e-07)
(1.46707 1.12806e-05 -2.9229e-07)
(1.56228 6.06835e-06 -3.95909e-07)
(1.68012 2.13023e-06 7.09167e-08)
(1.77961 1.6591e-07 1.09856e-07)
(1.85492 -6.93136e-07 6.39699e-08)
(1.90892 -8.88478e-07 1.34112e-08)
(1.94569 -7.53864e-07 -2.13128e-08)
(1.96939 -5.1076e-07 -4.52076e-08)
(1.98376 3.16248e-06 -4.25694e-08)
(1.99173 4.86567e-06 -3.78291e-08)
(1.99536 7.52248e-05 -3.58958e-08)
(1.99589 0.000324939 -3.419e-08)
(1.99292 0.000969338 -3.41035e-08)
(1.98292 0.00275032 -2.57503e-08)
(1.95357 0.00766401 -4.06981e-08)
(1.86134 0.0226001 -1.19051e-08)
(1.5872 0.0709448 5.89821e-08)
(0.381706 0.230766 -3.23834e-07)
(0.433097 0.506431 -2.21556e-07)
(1.77375 -8.05464e-08 1.33664e-06)
(1.82089 -7.60336e-08 1.16582e-06)
(1.7991 -1.36886e-09 1.15062e-06)
(1.688 1.62781e-07 8.58517e-07)
(1.54221 3.48665e-07 3.97489e-07)
(1.4493 4.86803e-07 -4.69719e-08)
(1.46707 4.99489e-07 -8.04853e-07)
(1.56227 2.65132e-07 -4.80952e-07)
(1.68012 2.28287e-08 5.13475e-08)
(1.77961 -1.24356e-07 7.88837e-08)
(1.85491 -2.08559e-07 3.41484e-08)
(1.90892 -2.95464e-07 -7.32178e-09)
(1.94569 2.58984e-07 -3.25976e-08)
(1.96939 -2.23416e-07 -4.9499e-08)
(1.98377 7.80353e-06 -4.42192e-08)
(1.99177 1.64699e-05 -3.85377e-08)
(1.99553 0.000143157 -3.62635e-08)
(1.99635 0.000599455 -3.52804e-08)
(1.99416 0.0017486 -3.34034e-08)
(1.98626 0.00480333 -3.1952e-08)
(1.96332 0.0128614 -3.32312e-08)
(1.89219 0.035831 -5.44494e-08)
(1.68529 0.10689 -3.65837e-08)
(0.68981 0.333411 -3.33893e-07)
(0.585132 0.850438 -1.59981e-07)
(1.77375 6.91962e-08 -2.52793e-07)
(1.82089 1.64141e-07 3.04212e-08)
(1.7991 -1.83326e-07 1.30025e-07)
(1.688 -1.40882e-06 3.30216e-07)
(1.54221 -3.262e-06 5.44727e-07)
(1.4493 -4.90714e-06 7.17577e-07)
(1.46707 -5.22527e-06 8.99776e-07)
(1.56227 -3.1032e-06 3.10156e-07)
(1.68012 -1.1217e-06 1.10818e-07)
(1.77961 7.36242e-08 5.91212e-08)
(1.85491 6.36763e-07 2.72883e-08)
(1.90892 7.93545e-07 5.62359e-09)
(1.94569 7.25362e-07 -5.39324e-09)
(1.96939 5.61519e-07 -9.48068e-09)
(1.98376 3.82771e-07 -7.971e-09)
(1.99169 2.39069e-07 -4.82606e-09)
(1.9952 1.52128e-07 -3.95949e-09)
(1.99539 1.15411e-07 -3.30718e-09)
(1.99147 1.53929e-07 -2.3538e-09)
(1.97846 4.46663e-07 -1.50815e-09)
(1.93883 1.89798e-06 -1.2996e-10)
(1.80339 9.00976e-06 7.63285e-10)
(1.40227 4.79553e-05 2.95588e-10)
(-0.304429 0.000220159 -1.16336e-09)
(0.266479 0.000508653 -9.90871e-10)
(1.77375 3.97892e-07 -3.21554e-07)
(1.82089 8.417e-07 -1.63043e-07)
(1.7991 1.75755e-07 -1.42527e-07)
(1.688 -2.66479e-06 -5.53939e-08)
(1.54221 -7.00363e-06 1.0954e-07)
(1.4493 -1.06432e-05 3.16605e-07)
(1.46707 -1.09176e-05 5.59588e-07)
(1.56228 -5.96683e-06 2.04408e-07)
(1.68012 -2.30552e-06 8.68489e-08)
(1.77961 -4.89725e-07 4.84322e-08)
(1.85492 3.02314e-07 1.92262e-08)
(1.90892 5.6405e-07 9.05159e-11)
(1.94569 5.49486e-07 -8.79463e-09)
(1.96939 4.17595e-07 -1.07972e-08)
(1.98376 2.69921e-07 -7.75544e-09)
(1.99169 1.5642e-07 -4.52391e-09)
(1.9952 1.05313e-07 -3.54374e-09)
(1.99539 1.80994e-07 -2.92496e-09)
(1.99147 5.91779e-07 -2.02727e-09)
(1.97846 2.38136e-06 -1.13667e-09)
(1.93884 1.02461e-05 -6.17132e-12)
(1.80344 4.70231e-05 7.43631e-10)
(1.40248 0.000241957 3.13504e-10)
(-0.303581 0.00106842 -1.33904e-09)
(0.266649 0.00240849 -1.35094e-09)
(1.77375 1.99388e-05 1.18149e-06)
(1.82089 1.82137e-05 1.26783e-06)
(1.7991 -5.15721e-07 1.3369e-06)
(1.688 -3.68705e-05 1.17484e-06)
(1.54221 -6.8672e-05 7.91436e-07)
(1.4493 -7.97327e-05 3.32918e-07)
(1.46708 -6.48303e-05 -4.95738e-07)
(1.56228 -3.29929e-05 -4.16033e-07)
(1.68012 -1.48283e-05 8.96703e-08)
(1.77961 -6.27713e-06 1.29049e-07)
(1.85492 -2.03075e-06 8.97146e-08)
(1.90892 6.76578e-08 4.71192e-08)
(1.94569 9.0021e-07 1.71817e-08)
(1.96939 1.02172e-06 -4.18573e-09)
(1.98376 8.31116e-07 -3.74871e-09)
(1.99169 5.68706e-07 -2.0673e-09)
(1.9952 4.48876e-07 -2.16163e-09)
(1.99539 8.07328e-07 -2.00092e-09)
(1.99147 2.50506e-06 -1.5483e-09)
(1.97846 9.58959e-06 -1.29574e-09)
(1.93887 3.93527e-05 -3.3801e-10)
(1.80362 0.000172312 3.62354e-10)
(1.40329 0.000848985 -4.10661e-11)
(-0.300426 0.00357273 -1.75578e-09)
(0.267249 0.00776352 -1.29856e-09)
(1.77391 2.67745e-05 -2.07297e-07)
(1.82102 3.39707e-05 -1.47854e-07)
(1.79919 2.61575e-05 -1.55629e-07)
(1.68808 3.04301e-06 -1.29314e-07)
(1.54231 -2.0212e-05 -2.94734e-08)
(1.44939 -3.22617e-05 1.33034e-07)
(1.46714 -2.95033e-05 3.28743e-07)
(1.56233 -1.65937e-05 1.19117e-07)
(1.68015 -9.94324e-06 6.75719e-08)
(1.77962 -6.32778e-06 4.75209e-08)
(1.85492 -3.76987e-06 2.48602e-08)
(1.90893 -1.96885e-06 7.48022e-09)
(1.94569 -8.71347e-07 -1.85945e-09)
(1.96939 -3.30585e-07 -5.58534e-09)
(1.98376 -9.89878e-08 -4.22876e-09)
(1.99169 -7.36362e-08 -2.52539e-09)
(1.9952 3.41458e-07 -1.99789e-09)
(1.99539 2.35703e-06 -1.65791e-09)
(1.99148 9.20413e-06 -1.15713e-09)
(1.97849 3.49944e-05 -6.90843e-10)
(1.93898 0.000136909 -8.83257e-11)
(1.80424 0.000566285 2.22403e-10)
(1.40582 0.00264219 -4.58328e-10)
(-0.290762 0.0105029 -2.19667e-09)
(0.268977 0.021989 -1.317e-09)
(1.77393 -0.000324642 1.18146e-06)
(1.82106 -0.000667683 1.26715e-06)
(1.79924 -0.000894347 1.33577e-06)
(1.68812 -0.000866583 1.1719e-06)
(1.54231 -0.000557343 7.86066e-07)
(1.44938 -0.000170625 3.2408e-07)
(1.46713 5.15565e-05 -5.10922e-07)
(1.56231 3.15021e-05 -4.23383e-07)
(1.68014 -3.11835e-06 8.94605e-08)
(1.77962 -1.3632e-05 1.33057e-07)
(1.85492 -1.26912e-05 9.5178e-08)
(1.90893 -8.41945e-06 5.21246e-08)
(1.94569 -4.43159e-06 2.10869e-08)
(1.96939 -1.85089e-06 -1.39213e-09)
(1.98376 -7.32647e-07 -1.96362e-09)
(1.99169 -4.40155e-07 -1.15581e-09)
(1.9952 1.26098e-06 -1.52072e-09)
(1.9954 8.31208e-06 -1.51176e-09)
(1.9915 3.09556e-05 -1.25029e-09)
(1.97857 0.000111577 -1.1778e-09)
(1.93933 0.000411818 -3.77844e-10)
(1.80608 0.00160845 2.62922e-10)
(1.41284 0.00704019 2.29708e-11)
(-0.26428 0.0264633 -2.13451e-09)
(0.273263 0.0537081 -1.24946e-09)
(1.77308 -7.10031e-08 -3.23307e-07)
(1.8196 -8.54135e-08 -1.62817e-07)
(1.79767 -1.26792e-07 -1.46352e-07)
(1.68683 -2.9606e-07 -7.27317e-08)
(1.54154 -5.911e-07 7.24473e-08)
(1.44909 -9.00047e-07 2.5424e-07)
(1.46703 -9.28301e-07 4.57099e-07)
(1.56223 -4.37897e-07 1.4966e-07)
(1.68011 6.28167e-08 6.98839e-08)
(1.77962 3.60194e-07 4.84169e-08)
(1.85493 4.73299e-07 2.66655e-08)
(1.90894 4.61531e-07 9.64275e-09)
(1.9457 3.76241e-07 9.32232e-11)
(1.96939 2.60142e-07 -3.69492e-09)
(1.98376 3.86257e-07 -3.09375e-09)
(1.9917 -1.12443e-07 -1.88361e-09)
(1.9952 4.7355e-06 -1.5507e-09)
(1.99542 2.71038e-05 -1.31225e-09)
(1.99156 9.44761e-05 -9.55517e-10)
(1.97881 0.000317911 -6.47805e-10)
(1.94028 0.00109279 -1.43657e-10)
(1.81066 0.00397027 1.62822e-10)
(1.42919 0.016107 -2.82383e-10)
(-0.202748 0.0571135 -2.08505e-09)
(0.282258 0.114051 -8.83429e-10)
(1.77393 0.000324591 -2.62028e-07)
(1.82106 0.00066761 3.16642e-08)
(1.79924 0.000893619 1.26869e-07)
(1.68811 0.000863861 3.08827e-07)
(1.54231 0.000551775 4.93681e-07)
(1.44938 0.000162648 6.26095e-07)
(1.46713 -5.98082e-05 7.4817e-07)
(1.56231 -3.58869e-05 2.35886e-07)
(1.68014 2.22864e-06 8.58988e-08)
(1.77962 1.47577e-05 5.2222e-08)
(1.85492 1.46508e-05 2.893e-08)
(1.90893 1.04739e-05 1.08225e-08)
(1.94569 6.18638e-06 2.7766e-10)
(1.96939 3.14758e-06 -4.54533e-09)
(1.98376 2.28456e-06 -4.70143e-09)
(1.9917 6.40588e-07 -3.22277e-09)
(1.99522 1.42926e-05 -2.57958e-09)
(1.99547 7.26347e-05 -2.23361e-09)
(1.99174 0.000238082 -1.65684e-09)
(1.97942 0.000754473 -1.19194e-09)
(1.94248 0.0024124 -3.03398e-10)
(1.82035 0.0081405 1.14978e-10)
(1.46144 0.0303005 -5.77547e-10)
(-0.0821348 0.101675 -2.45428e-09)
(0.300733 0.207489 -2.84261e-10)
(1.77391 -2.6629e-05 2.06422e-09)
(1.82102 -3.33903e-05 -5.91119e-09)
(1.79919 -2.59016e-05 -1.62158e-09)
(1.68807 -4.60108e-06 1.86503e-08)
(1.5423 1.56103e-05 5.27874e-08)
(1.44939 2.48579e-05 9.88316e-08)
(1.46715 2.14278e-05 1.69916e-07)
(1.56233 1.18248e-05 7.82528e-08)
(1.68015 7.94814e-06 2.48699e-08)
(1.77962 5.8363e-06 5.8539e-09)
(1.85492 3.94961e-06 -3.26015e-09)
(1.90893 2.39222e-06 -7.07128e-09)
(1.94569 1.31156e-06 -7.46419e-09)
(1.96939 7.13583e-07 -6.35401e-09)
(1.98376 2.00715e-06 -4.18656e-09)
(1.99171 1.50885e-06 -2.23258e-09)
(1.99526 3.78411e-05 -1.68557e-09)
(1.9956 0.000171973 -1.42953e-09)
(1.99213 0.000533726 -1.00737e-09)
(1.98065 0.00158096 -6.38207e-10)
(1.9466 0.0046909 -1.44758e-10)
(1.83657 0.0146508 9.94927e-11)
(1.51151 0.0500133 -3.65019e-10)
(0.104791 0.162378 -1.84437e-09)
(0.344511 0.349317 -5.00569e-10)
(1.77374 -7.53073e-09 -3.62992e-10)
(1.82089 -1.12934e-08 -1.92969e-09)
(1.7991 -3.72699e-09 2.0868e-09)
(1.68799 2.72769e-08 1.64467e-08)
(1.5422 5.41913e-08 3.80154e-08)
(1.4493 6.12835e-08 6.48789e-08)
(1.46708 5.02473e-08 1.02757e-07)
(1.56229 2.1637e-08 5.58311e-08)
(1.68013 1.65131e-09 1.61592e-08)
(1.77961 5.60423e-09 -3.20758e-09)
(1.85492 -2.21062e-08 -1.1811e-08)
(1.90892 9.49107e-09 -1.3768e-08)
(1.94569 6.40758e-08 -1.20429e-08)
(1.96939 9.00875e-08 -9.37967e-09)
(1.98376 3.54226e-06 -6.38514e-09)
(1.99173 5.07563e-06 -3.64596e-09)
(1.99536 7.53333e-05 -2.41751e-09)
(1.99589 0.000324993 -2.01291e-09)
(1.99292 0.000969364 -1.40971e-09)
(1.98292 0.00275034 -8.27584e-10)
(1.95357 0.00766402 -1.30369e-10)
(1.86134 0.0226001 2.73217e-10)
(1.5872 0.0709448 -6.07703e-11)
(0.381705 0.230766 -1.50424e-09)
(0.433097 0.506431 -6.67514e-10)
(1.77391 2.65999e-05 -9.55493e-10)
(1.82102 3.33459e-05 1.84063e-11)
(1.79919 2.58807e-05 1.19981e-09)
(1.68807 4.66309e-06 5.81027e-09)
(1.5423 -1.54655e-05 1.31568e-08)
(1.44939 -2.46784e-05 2.34503e-08)
(1.46715 -2.1271e-05 3.94266e-08)
(1.56233 -1.17479e-05 1.97226e-08)
(1.68015 -7.92528e-06 1.0868e-09)
(1.77962 -5.82212e-06 -8.25261e-09)
(1.85492 -3.96506e-06 -1.16294e-08)
(1.90893 -2.4752e-06 -1.12066e-08)
(1.94569 -8.63736e-07 -8.9983e-09)
(1.96939 -7.55922e-07 -6.60065e-09)
(1.98376 7.55574e-06 -4.11492e-09)
(1.99177 1.63517e-05 -2.26969e-09)
(1.99553 0.000143102 -1.40683e-09)
(1.99635 0.000599428 -1.17059e-09)
(1.99416 0.00174858 -8.38916e-10)
(1.98626 0.00480331 -5.10232e-10)
(1.96332 0.0128614 -1.63764e-10)
(1.89219 0.035831 1.29863e-11)
(1.68529 0.10689 -1.91276e-10)
(0.68981 0.333411 -1.34839e-09)
(0.585131 0.850438 -7.36546e-10)
(1.77375 -5.15818e-09 7.75553e-08)
(1.82089 -8.95189e-09 9.32417e-08)
(1.7991 -2.95485e-09 1.13603e-07)
(1.688 2.42407e-08 1.22642e-07)
(1.54221 5.28464e-08 1.18525e-07)
(1.4493 5.37859e-08 7.98703e-08)
(1.46707 3.45226e-08 2.08771e-09)
(1.56227 1.13261e-08 1.73262e-08)
(1.68012 -2.37785e-09 -4.2575e-09)
(1.77961 -7.66812e-09 -1.57739e-08)
(1.85491 -8.95114e-09 -8.26011e-09)
(1.90892 -8.03504e-09 3.27094e-09)
(1.94569 -6.02565e-09 1.0643e-08)
(1.96939 -3.9126e-09 1.52556e-08)
(1.98376 -2.0769e-09 9.76079e-09)
(1.99169 -1.65411e-09 5.20144e-09)
(1.9952 1.76679e-09 4.08143e-09)
(1.99539 2.03441e-08 3.36871e-09)
(1.99147 9.6057e-08 2.59322e-09)
(1.97846 4.18463e-07 2.90856e-09)
(1.93883 1.89535e-06 5.59361e-09)
(1.80339 9.02865e-06 1.92576e-08)
(1.40227 4.79795e-05 9.2978e-08)
(-0.304429 0.000220161 1.96827e-07)
(0.266479 0.000508617 5.25923e-08)
(1.77375 -1.84814e-09 8.31609e-08)
(1.82089 -3.6153e-09 8.82311e-08)
(1.7991 4.16457e-09 1.08966e-07)
(1.688 3.11153e-08 1.22928e-07)
(1.54221 5.36859e-08 1.26428e-07)
(1.4493 4.50028e-08 9.906e-08)
(1.46707 2.05558e-08 3.767e-08)
(1.56227 3.45726e-09 5.60046e-08)
(1.68012 -3.3269e-09 2.79028e-08)
(1.77961 -4.85111e-09 9.42486e-09)
(1.85491 -5.26269e-09 8.50303e-09)
(1.90892 -4.97913e-09 1.28702e-08)
(1.94569 -3.94401e-09 1.51996e-08)
(1.96939 -2.71657e-09 1.71751e-08)
(1.98376 -6.23443e-10 1.06977e-08)
(1.99169 -2.92402e-09 5.51024e-09)
(1.9952 1.54016e-08 4.19804e-09)
(1.99539 1.29704e-07 3.2701e-09)
(1.99147 5.59792e-07 2.04658e-09)
(1.97846 2.36003e-06 1.0057e-09)
(1.93884 1.02329e-05 8.21777e-12)
(1.80344 4.70146e-05 1.91774e-09)
(1.40248 0.000241929 3.57414e-08)
(-0.303581 0.00106836 1.54597e-07)
(0.266649 0.00240841 5.84361e-08)
(1.77375 5.21642e-09 1.28514e-08)
(1.82089 8.79558e-09 8.60175e-09)
(1.7991 6.70944e-09 1.20896e-08)
(1.688 -7.35846e-09 2.52489e-08)
(1.54221 -3.33882e-08 3.85528e-08)
(1.4493 -5.97366e-08 4.42522e-08)
(1.46707 -6.74365e-08 3.06429e-08)
(1.56227 -4.2035e-08 6.22577e-08)
(1.68012 -2.04453e-08 8.27176e-08)
(1.77961 -8.43557e-09 7.3923e-08)
(1.85491 -2.5265e-09 6.16095e-08)
(1.90892 1.04474e-10 4.97195e-08)
(1.94569 1.09579e-09 3.78298e-08)
(1.96939 7.81312e-10 2.84231e-08)
(1.98376 5.08141e-09 1.7663e-08)
(1.99169 -8.2275e-09 9.2794e-09)
(1.9952 7.75211e-08 6.58876e-09)
(1.99539 5.7634e-07 3.36103e-09)
(1.99147 2.36179e-06 -2.20996e-09)
(1.97846 9.50708e-06 -1.86353e-08)
(1.93887 3.93233e-05 -5.52543e-08)
(1.80362 0.000172333 -1.65719e-07)
(1.40329 0.000849025 -7.55229e-07)
(-0.300426 0.00357274 5.02641e-09)
(0.26725 0.00776345 2.99115e-07)
(1.77375 -2.46511e-09 -2.47511e-07)
(1.82089 -1.34116e-09 4.82554e-08)
(1.7991 -2.82665e-09 1.37943e-07)
(1.688 -9.34533e-09 2.97225e-07)
(1.54221 -1.7922e-08 4.38961e-07)
(1.4493 -2.37194e-08 5.04846e-07)
(1.46707 -2.48221e-08 5.02385e-07)
(1.56227 -2.2556e-08 1.67683e-07)
(1.68012 -2.17442e-08 1.2241e-07)
(1.77961 -1.93949e-08 1.10323e-07)
(1.85491 -1.47629e-08 9.00299e-08)
(1.90892 -9.52189e-09 6.71745e-08)
(1.94569 -5.20544e-09 4.64147e-08)
(1.96939 -4.26526e-09 3.15716e-08)
(1.98376 1.66385e-08 1.83749e-08)
(1.99169 -3.59044e-08 9.24171e-09)
(1.9952 3.55957e-07 6.26245e-09)
(1.99539 2.36531e-06 3.05574e-09)
(1.99148 9.20873e-06 -2.35595e-09)
(1.97849 3.49944e-05 -1.83448e-08)
(1.93898 0.000136906 -5.34612e-08)
(1.80424 0.000566286 -1.60656e-07)
(1.40582 0.00264221 -7.44504e-07)
(-0.290762 0.010503 -2.64697e-08)
(0.268978 0.0219889 2.70668e-07)
(1.77375 9.64914e-08 -2.39954e-07)
(1.82089 1.08123e-07 -8.11559e-08)