/*--------------------------------*- C++ -*----------------------------------*\
| =========                 |                                                 |
| \\      /  F ield         | OpenFOAM: The Open Source CFD Toolbox           |
|  \\    /   O peration     | Version:  4.1                                   |
|   \\  /    A nd           | Web:      www.OpenFOAM.org                      |
|    \\/     M anipulation  |                                                 |
\*---------------------------------------------------------------------------*/
FoamFile
{
    version     2.0;
    format      ascii;
    class       volScalarField;
    location    "4.9";
    object      Ma;
}
// * * * * * * * * * * * * * * * * * * * * * * * * * * * * * * * * * * * * * //

dimensions      [0 0 0 0 0 0 0];

internalField   nonuniform List<scalar> 
52500
(
3.00002
2.99997
2.99991
2.99968
2.99936
2.99805
2.99617
2.98898
2.97693
2.938
2.84898
2.64396
2.09945
1.26171
0.52573
0.278373
0.329155
0.344314
0.312121
0.257571
0.205214
0.16343
0.122381
0.0769317
0.0437787
3.00002
2.99997
2.99992
2.99969
2.99937
2.99808
2.99622
2.98914
2.97725
2.9389
2.85109
2.6488
2.10981
1.27567
0.532782
0.278119
0.330317
0.346257
0.314284
0.260513
0.209474
0.169201
0.130402
0.0902186
0.0664349
3.00002
2.99997
2.99992
2.9997
2.99939
2.99813
2.99632
2.98941
2.97791
2.94048
2.85556
2.65817
2.1351
1.30831
0.551218
0.281763
0.336133
0.353759
0.322558
0.270834
0.222726
0.185895
0.151998
0.120206
0.10451
3.00002
2.99997
2.99992
2.99971
2.99941
2.9982
2.99648
2.98983
2.97889
2.94292
2.8623
2.67248
2.17408
1.35984
0.579536
0.288264
0.345834
0.366302
0.336524
0.287771
0.243442
0.210872
0.182479
0.157701
0.146447
3.00002
2.99998
2.99993
2.99972
2.99944
2.99828
2.99665
2.99019
2.9801
2.94541
2.87245
2.69161
2.22938
1.4333
0.619562
0.301389
0.361193
0.38475
0.35639
0.311102
0.270537
0.242193
0.218678
0.199305
0.191102
3.00002
2.99998
2.99993
2.99974
2.99948
2.99839
2.99686
2.99074
2.98152
2.94852
2.88462
2.71465
2.29642
1.52768
0.671286
0.324919
0.384411
0.409915
0.38282
0.340767
0.304016
0.279607
0.260904
0.24647
0.241122
3.00002
2.99998
2.99994
2.99977
2.99952
2.99853
2.99713
2.99154
2.98313
2.95286
2.89639
2.73928
2.36866
1.63888
0.733673
0.363051
0.418774
0.442856
0.416806
0.378042
0.344527
0.323931
0.309694
0.300682
0.300538
3.00002
2.99999
2.99995
2.99979
2.99957
2.99867
2.99739
2.99231
2.9847
2.95706
2.90639
2.76218
2.42634
1.7319
0.790024
0.398751
0.448248
0.469397
0.449453
0.418149
0.390002
0.374496
0.366628
0.365382
0.375042
3.00002
2.99999
2.99996
2.99982
2.99962
2.99881
2.99768
2.99311
2.98634
2.96153
2.91583
2.788
2.47485
1.84138
0.87009
0.455684
0.472388
0.48495
0.478586
0.457649
0.438141
0.429977
0.430648
0.443229
0.47724
3.00002
3
2.99997
2.99985
2.99969
2.99903
2.99805
2.99452
2.98821
2.9689
2.92369
2.81703
2.51762
1.9571
0.981601
0.527332
0.489311
0.501931
0.506337
0.495549
0.487477
0.488933
0.505163
0.54677
0.646268
3
2.99995
2.9999
2.99966
2.99934
2.99803
2.99615
2.98895
2.97691
2.93796
2.84894
2.64389
2.09938
1.26158
0.525593
0.278169
0.328968
0.344128
0.311914
0.257318
0.204892
0.163019
0.121824
0.0760298
0.0421496
3
2.99995
2.9999
2.99967
2.99935
2.99806
2.9962
2.98912
2.97723
2.93886
2.85106
2.64873
2.10973
1.27553
0.532646
0.277915
0.330131
0.346073
0.314079
0.260264
0.209161
0.168809
0.129886
0.0894603
0.0653884
3
2.99996
2.9999
2.99968
2.99937
2.99811
2.9963
2.98939
2.97789
2.94044
2.85552
2.6581
2.13503
1.30818
0.551087
0.281561
0.335951
0.353579
0.322359
0.270596
0.222433
0.185541
0.15156
0.119646
0.103858
3
2.99996
2.9999
2.99969
2.99939
2.99818
2.99646
2.98981
2.97887
2.94288
2.86226
2.67241
2.17401
1.35971
0.579409
0.288062
0.345654
0.366126
0.336333
0.287547
0.243176
0.210562
0.182119
0.157281
0.14599
3
2.99996
2.99991
2.99971
2.99942
2.99826
2.99663
2.99016
2.98007
2.94537
2.87244
2.69155
2.22935
1.43319
0.619464
0.301214
0.361033
0.384593
0.356218
0.310902
0.270302
0.241928
0.218381
0.198978
0.190757
3
2.99996
2.99992
2.99972
2.99946
2.99837
2.99684
2.99072
2.9815
2.9485
2.8846
2.71459
2.29637
1.52756
0.671189
0.32475
0.384262
0.409772
0.382664
0.340589
0.303813
0.279383
0.260661
0.24621
0.240854
3
2.99997
2.99992
2.99975
2.9995
2.99851
2.99711
2.99152
2.98311
2.95283
2.89636
2.73923
2.3686
1.63876
0.733575
0.362889
0.418631
0.442723
0.416664
0.377886
0.344353
0.323742
0.309494
0.300474
0.300328
3
2.99997
2.99993
2.99977
2.99955
2.99865
2.99737
2.99229
2.98468
2.95704
2.90636
2.76213
2.42631
1.7318
0.789944
0.39861
0.448124
0.469278
0.449325
0.41801
0.389852
0.374338
0.366464
0.365216
0.374878
3
2.99997
2.99994
2.9998
2.9996
2.99879
2.99766
2.99309
2.98632
2.9615
2.9158
2.78795
2.47483
1.84128
0.870008
0.455551
0.472276
0.48484
0.478471
0.457527
0.438011
0.429843
0.430514
0.443097
0.477117
3
2.99998
2.99995
2.99983
2.99967
2.99901
2.99803
2.9945
2.98818
2.96887
2.92367
2.81698
2.51759
1.95702
0.981521
0.52721
0.489204
0.501827
0.506232
0.49544
0.487365
0.48882
0.505053
0.546668
0.646183
3
2.99995
2.9999
2.99966
2.99934
2.99803
2.99615
2.98895
2.97691
2.93796
2.84894
2.64389
2.09938
1.26158
0.525592
0.27817
0.328969
0.344129
0.311914
0.257319
0.204892
0.16302
0.121825
0.0760304
0.04215
3
2.99995
2.9999
2.99967
2.99935
2.99806
2.9962
2.98912
2.97723
2.93886
2.85106
2.64873
2.10973
1.27553
0.532644
0.277915
0.330131
0.346073
0.314079
0.260264
0.209161
0.168809
0.129886
0.0894606
0.0653889
3
2.99996
2.9999
2.99968
2.99937
2.99811
2.9963
2.98939
2.97789
2.94044
2.85552
2.6581
2.13502
1.30817
0.551085
0.281562
0.335951
0.353578
0.322359
0.270596
0.222433
0.185541
0.15156
0.119646
0.103858
3
2.99996
2.9999
2.99969
2.99939
2.99818
2.99646
2.98981
2.97887
2.94288
2.86226
2.67241
2.17401
1.3597
0.579407
0.288063
0.345654
0.366126
0.336333
0.287547
0.243175
0.210562
0.182119
0.157281
0.14599
3
2.99996
2.99991
2.99971
2.99942
2.99826
2.99663
2.99016
2.98007
2.94537
2.87244
2.69155
2.22934
1.43318
0.619462
0.301214
0.361033
0.384592
0.356217
0.310901
0.270302
0.241928
0.218381
0.198978
0.190758
3
2.99996
2.99992
2.99972
2.99946
2.99837
2.99684
2.99072
2.9815
2.94849
2.8846
2.71459
2.29636
1.52756
0.671186
0.324751
0.384261
0.409772
0.382664
0.340589
0.303813
0.279382
0.260661
0.24621
0.240855
3
2.99997
2.99992
2.99975
2.9995
2.99851
2.99711
2.99152
2.98311
2.95283
2.89636
2.73923
2.3686
1.63876
0.733572
0.362888
0.41863
0.442722
0.416663
0.377885
0.344352
0.323741
0.309494
0.300474
0.300328
3
2.99997
2.99993
2.99977
2.99955
2.99865
2.99737
2.99229
2.98468
2.95704
2.90636
2.76213
2.4263
1.7318
0.789942
0.39861
0.448124
0.469277
0.449325
0.418009
0.389852
0.374337
0.366464
0.365216
0.374878
3
2.99997
2.99994
2.9998
2.9996
2.99879
2.99766
2.99309
2.98632
2.9615
2.9158
2.78795
2.47483
1.84127
0.870006
0.455551
0.472276
0.48484
0.478471
0.457527
0.438011
0.429843
0.430513
0.443097
0.477117
3
2.99998
2.99995
2.99983
2.99967
2.99901
2.99803
2.9945
2.98818
2.96887
2.92367
2.81698
2.51759
1.95702
0.981519
0.527209
0.489205
0.501827
0.506232
0.49544
0.487364
0.488819
0.505053
0.546668
0.646183
3
2.99995
2.9999
2.99966
2.99934
2.99803
2.99615
2.98895
2.97691
2.93796
2.84894
2.64389
2.09938
1.26158
0.525592
0.27817
0.328969
0.344129
0.311914
0.257319
0.204893
0.16302
0.121825
0.0760304
0.0421501
3
2.99995
2.9999
2.99967
2.99935
2.99806
2.9962
2.98912
2.97723
2.93886
2.85106
2.64873
2.10973
1.27553
0.532644
0.277915
0.330131
0.346073
0.314079
0.260264
0.209162
0.168809
0.129886
0.0894606
0.0653889
3
2.99996
2.9999
2.99968
2.99937
2.99811
2.9963
2.98939
2.97789
2.94044
2.85552
2.6581
2.13502
1.30817
0.551085
0.281562
0.335951
0.353578
0.322359
0.270596
0.222433
0.185541
0.15156
0.119646
0.103858
3
2.99996
2.9999
2.99969
2.99939
2.99818
2.99646
2.98981
2.97887
2.94288
2.86226
2.67241
2.17401
1.3597
0.579407
0.288063
0.345654
0.366126
0.336333
0.287547
0.243175
0.210562
0.182119
0.157281
0.14599
3
2.99996
2.99991
2.99971
2.99942
2.99826
2.99663
2.99016
2.98007
2.94537
2.87244
2.69155
2.22934
1.43318
0.619462
0.301214
0.361033
0.384592
0.356217
0.310901
0.270302
0.241928
0.218381
0.198978
0.190758
3
2.99996
2.99992
2.99972
2.99946
2.99837
2.99684
2.99072
2.9815
2.94849
2.8846
2.71459
2.29636
1.52756
0.671186
0.324751
0.384261
0.409772
0.382664
0.340589
0.303813
0.279382
0.260661
0.24621
0.240855
3
2.99997
2.99992
2.99975
2.9995
2.99851
2.99711
2.99152
2.98311
2.95283
2.89636
2.73923
2.3686
1.63876
0.733572
0.362888
0.41863
0.442722
0.416663
0.377885
0.344352
0.323741
0.309494
0.300474
0.300328
3
2.99997
2.99993
2.99977
2.99955
2.99865
2.99737
2.99229
2.98468
2.95704
2.90636
2.76213
2.4263
1.7318
0.789942
0.39861
0.448124
0.469277
0.449325
0.418009
0.389852
0.374337
0.366464
0.365216
0.374878
3
2.99997
2.99994
2.9998
2.9996
2.99879
2.99766
2.99309
2.98632
2.9615
2.9158
2.78795
2.47483
1.84127
0.870006
0.455551
0.472277
0.48484
0.478471
0.457527
0.438011
0.429843
0.430513
0.443097
0.477117
3
2.99998
2.99995
2.99983
2.99967
2.99901
2.99803
2.9945
2.98818
2.96887
2.92367
2.81698
2.51759
1.95702
0.981519
0.527209
0.489205
0.501827
0.506232
0.49544
0.487364
0.48882
0.505053
0.546668
0.646183
3
2.99995
2.9999
2.99966
2.99934
2.99803
2.99615
2.98895
2.97691
2.93796
2.84894
2.64389
2.09938
1.26158
0.525591
0.27817
0.328969
0.344129
0.311914
0.257319
0.204892
0.16302
0.121825
0.0760304
0.04215
3
2.99995
2.9999
2.99967
2.99935
2.99806
2.9962
2.98912
2.97723
2.93886
2.85106
2.64873
2.10973
1.27553
0.532644
0.277915
0.330131
0.346073
0.314079
0.260264
0.209161
0.168809
0.129886
0.0894605
0.0653889
3
2.99996
2.9999
2.99968
2.99937
2.99811
2.9963
2.98939
2.97789
2.94044
2.85552
2.6581
2.13502
1.30817
0.551085
0.281562
0.335951
0.353578
0.322359
0.270595
0.222433
0.185541
0.15156
0.119646
0.103858
3
2.99996
2.9999
2.99969
2.99939
2.99818
2.99646
2.98981
2.97887
2.94288
2.86226
2.67241
2.17401
1.3597
0.579407
0.288063
0.345654
0.366126
0.336332
0.287547
0.243175
0.210562
0.182118
0.157281
0.14599
3
2.99996
2.99991
2.99971
2.99942
2.99826
2.99663
2.99016
2.98007
2.94537
2.87244
2.69155
2.22934
1.43318
0.619461
0.301214
0.361033
0.384592
0.356217
0.310901
0.270302
0.241928
0.218381
0.198978
0.190758
3
2.99996
2.99992
2.99972
2.99946
2.99837
2.99684
2.99072
2.9815
2.94849
2.8846
2.71459
2.29636
1.52756
0.671186
0.32475
0.384261
0.409771
0.382664
0.340589
0.303813
0.279382
0.260661
0.24621
0.240854
3
2.99997
2.99992
2.99975
2.9995
2.99851
2.99711
2.99152
2.98311
2.95283
2.89636
2.73923
2.3686
1.63876
0.733572
0.362888
0.41863
0.442721
0.416663
0.377885
0.344352
0.323741
0.309494
0.300474
0.300328
3
2.99997
2.99993
2.99977
2.99955
2.99865
2.99737
2.99229
2.98468
2.95704
2.90636
2.76213
2.4263
1.7318
0.789942
0.39861
0.448124
0.469277
0.449325
0.418009
0.389851
0.374337
0.366464
0.365216
0.374878
3
2.99997
2.99994
2.9998
2.9996
2.99879
2.99766
2.99309
2.98632
2.9615
2.9158
2.78795
2.47483
1.84127
0.870005
0.45555
0.472276
0.48484
0.478471
0.457527
0.438011
0.429843
0.430513
0.443097
0.477117
3
2.99998
2.99995
2.99983
2.99967
2.99901
2.99803
2.9945
2.98818
2.96887
2.92367
2.81698
2.51759
1.95702
0.981518
0.527209
0.489205
0.501827
0.506232
0.49544
0.487364
0.488819
0.505053
0.546667
0.646182
3
2.99995
2.9999
2.99966
2.99934
2.99803
2.99615
2.98895
2.97691
2.93796
2.84894
2.64389
2.09938
1.26158
0.525591
0.27817
0.328969
0.344129
0.311914
0.257319
0.204892
0.16302
0.121825
0.0760304
0.04215
3
2.99995
2.9999
2.99967
2.99935
2.99806
2.9962
2.98912
2.97723
2.93886
2.85106
2.64873
2.10973
1.27553
0.532644
0.277915
0.330131
0.346073
0.314079
0.260264
0.209161
0.168809
0.129886
0.0894605
0.0653889
3
2.99996
2.9999
2.99968
2.99937
2.99811
2.9963
2.98939
2.97789
2.94044
2.85552
2.6581
2.13502
1.30817
0.551085
0.281562
0.335951
0.353578
0.322359
0.270595
0.222433
0.185541
0.15156
0.119646
0.103858
3
2.99996
2.9999
2.99969
2.99939
2.99818
2.99646
2.98981
2.97887
2.94288
2.86226
2.67241
2.17401
1.3597
0.579406
0.288063
0.345654
0.366126
0.336332
0.287547
0.243175
0.210562
0.182118
0.157281
0.14599
3
2.99996
2.99991
2.99971
2.99942
2.99826
2.99663
2.99016
2.98007
2.94537
2.87244
2.69155
2.22934
1.43318
0.619461
0.301214
0.361033
0.384592
0.356217
0.310901
0.270302
0.241928
0.218381
0.198978
0.190758
3
2.99996
2.99992
2.99972
2.99946
2.99837
2.99684
2.99072
2.9815
2.94849
2.8846
2.71459
2.29636
1.52756
0.671186
0.32475
0.384261
0.409771
0.382664
0.340589
0.303813
0.279382
0.260661
0.24621
0.240854
3
2.99997
2.99992
2.99975
2.9995
2.99851
2.99711
2.99152
2.98311
2.95283
2.89636
2.73923
2.3686
1.63876
0.733572
0.362888
0.41863
0.442721
0.416663
0.377885
0.344352
0.323741
0.309494
0.300474
0.300328
3
2.99997
2.99993
2.99977
2.99955
2.99865
2.99737
2.99229
2.98468
2.95704
2.90636
2.76213
2.4263
1.7318
0.789942
0.39861
0.448124
0.469277
0.449325
0.418009
0.389851
0.374337
0.366464
0.365216
0.374878
3
2.99997
2.99994
2.9998
2.9996
2.99879
2.99766
2.99309
2.98632
2.9615
2.9158
2.78795
2.47483
1.84127
0.870005
0.45555
0.472276
0.48484
0.478471
0.457527
0.438011
0.429843
0.430513
0.443097
0.477117
3
2.99998
2.99995
2.99983
2.99967
2.99901
2.99803
2.9945
2.98818
2.96887
2.92367
2.81698
2.51759
1.95702
0.981518
0.527209
0.489205
0.501827
0.506232
0.49544
0.487364
0.488819
0.505053
0.546667
0.646182
3
2.99995
2.9999
2.99966
2.99934
2.99803
2.99615
2.98895
2.97691
2.93796
2.84894
2.64389
2.09938
1.26158
0.525592
0.27817
0.328969
0.344129
0.311914
0.257319
0.204892
0.16302
0.121825
0.0760304
0.0421501
3
2.99995
2.9999
2.99967
2.99935
2.99806
2.9962
2.98912
2.97723
2.93886
2.85106
2.64873
2.10973
1.27553
0.532644
0.277915
0.330131
0.346073
0.314079
0.260264
0.209161
0.168809
0.129886
0.0894606
0.0653889
3
2.99996
2.9999
2.99968
2.99937
2.99811
2.9963
2.98939
2.97789
2.94044
2.85552
2.6581
2.13502
1.30817
0.551085
0.281562
0.335951
0.353578
0.322359
0.270596
0.222433
0.185541
0.15156
0.119646
0.103858
3
2.99996
2.9999
2.99969
2.99939
2.99818
2.99646
2.98981
2.97887
2.94288
2.86226
2.67241
2.17401
1.3597
0.579407
0.288063
0.345654
0.366126
0.336333
0.287547
0.243175
0.210562
0.182119
0.157281
0.14599
3
2.99996
2.99991
2.99971
2.99942
2.99826
2.99663
2.99016
2.98007
2.94537
2.87244
2.69155
2.22934
1.43318
0.619461
0.301214
0.361033
0.384592
0.356217
0.310901
0.270302
0.241928
0.218381
0.198978
0.190758
3
2.99996
2.99992
2.99972
2.99946
2.99837
2.99684
2.99072
2.9815
2.94849
2.8846
2.71459
2.29636
1.52756
0.671186
0.324751
0.384261
0.409772
0.382664
0.340589
0.303813
0.279382
0.260661
0.24621
0.240855
3
2.99997
2.99992
2.99975
2.9995
2.99851
2.99711
2.99152
2.98311
2.95283
2.89636
2.73923
2.3686
1.63876
0.733572
0.362888
0.41863
0.442722
0.416663
0.377885
0.344352
0.323741
0.309494
0.300474
0.300328
3
2.99997
2.99993
2.99977
2.99955
2.99865
2.99737
2.99229
2.98468
2.95704
2.90636
2.76213
2.4263
1.7318
0.789942
0.39861
0.448124
0.469277
0.449325
0.418009
0.389852
0.374337
0.366464
0.365216
0.374878
3
2.99997
2.99994
2.9998
2.9996
2.99879
2.99766
2.99309
2.98632
2.9615
2.9158
2.78795
2.47483
1.84127
0.870005
0.455551
0.472276
0.48484
0.478471
0.457527
0.438011
0.429843
0.430513
0.443097
0.477117
3
2.99998
2.99995
2.99983
2.99967
2.99901
2.99803
2.9945
2.98818
2.96887
2.92367
2.81698
2.51759
1.95702
0.981518
0.527209
0.489205
0.501827
0.506232
0.49544
0.487364
0.488819
0.505053
0.546668
0.646183
3
2.99995
2.9999
2.99966
2.99934
2.99803
2.99615
2.98895
2.97691
2.93796
2.84894
2.64389
2.09938
1.26158
0.525592
0.27817
0.328969
0.344129
0.311914
0.257319
0.204892
0.16302
0.121825
0.0760304
0.04215
3
2.99995
2.9999
2.99967
2.99935
2.99806
2.9962
2.98912
2.97723
2.93886
2.85106
2.64873
2.10973
1.27553
0.532644
0.277915
0.330131
0.346073
0.314079
0.260264
0.209161
0.168809
0.129886
0.0894606
0.0653889
3
2.99996
2.9999
2.99968
2.99937
2.99811
2.9963
2.98939
2.97789
2.94044
2.85552
2.6581
2.13502
1.30817
0.551085
0.281562
0.335951
0.353578
0.322359
0.270596
0.222433
0.185541
0.15156
0.119646
0.103858
3
2.99996
2.9999
2.99969
2.99939
2.99818
2.99646
2.98981
2.97887
2.94288
2.86226
2.67241
2.17401
1.3597
0.579407
0.288063
0.345654
0.366126
0.336333
0.287547
0.243175
0.210562
0.182119
0.157281
0.14599
3
2.99996
2.99991
2.99971
2.99942
2.99826
2.99663
2.99016
2.98007
2.94537
2.87244
2.69155
2.22934
1.43318
0.619462
0.301214
0.361033
0.384592
0.356217
0.310901
0.270302
0.241928
0.218381
0.198978
0.190758
3
2.99996
2.99992
2.99972
2.99946
2.99837
2.99684
2.99072
2.9815
2.94849
2.8846
2.71459
2.29636
1.52756
0.671186
0.324751
0.384261
0.409772
0.382664
0.340589
0.303813
0.279382
0.260661
0.24621
0.240855
3
2.99997
2.99992
2.99975
2.9995
2.99851
2.99711
2.99152
2.98311
2.95283
2.89636
2.73923
2.3686
1.63876
0.733572
0.362888
0.41863
0.442722
0.416663
0.377885
0.344352
0.323741
0.309494
0.300474
0.300328
3
2.99997
2.99993
2.99977
2.99955
2.99865
2.99737
2.99229
2.98468
2.95704
2.90636
2.76213
2.4263
1.7318
0.789942
0.39861
0.448124
0.469277
0.449325
0.418009
0.389852
0.374337
0.366464
0.365216
0.374878
3
2.99997
2.99994
2.9998
2.9996
2.99879
2.99766
2.99309
2.98632
2.9615
2.9158
2.78795
2.47483
1.84127
0.870006
0.455551
0.472276
0.48484
0.478471
0.457527
0.438011
0.429843
0.430513
0.443097
0.477117
3
2.99998
2.99995
2.99983
2.99967
2.99901
2.99803
2.9945
2.98818
2.96887
2.92367
2.81698
2.51759
1.95702
0.981519
0.527209
0.489205
0.501827
0.506232
0.49544
0.487364
0.488819
0.505053
0.546668
0.646183
3
2.99995
2.9999
2.99966
2.99934
2.99803
2.99615
2.98895
2.97691
2.93796
2.84894
2.64389
2.09938
1.26158
0.525593
0.278169
0.328968
0.344128
0.311914
0.257318
0.204892
0.163019
0.121824
0.0760298
0.0421496
3
2.99995
2.9999
2.99967
2.99935
2.99806
2.9962
2.98912
2.97723
2.93886
2.85106
2.64873
2.10973
1.27553
0.532646
0.277915
0.330131
0.346073
0.314079
0.260264
0.209161
0.168809
0.129886
0.0894603
0.0653884
3
2.99996
2.9999
2.99968
2.99937
2.99811
2.9963
2.98939
2.97789
2.94044
2.85552
2.6581
2.13503
1.30818
0.551087
0.281561
0.335951
0.353579
0.322359
0.270596
0.222433
0.185541
0.15156
0.119646
0.103858
3
2.99996
2.9999
2.99969
2.99939
2.99818
2.99646
2.98981
2.97887
2.94288
2.86226
2.67241
2.17401
1.35971
0.579409
0.288062
0.345654
0.366126
0.336333
0.287547
0.243176
0.210562
0.182119
0.157281
0.14599
3
2.99996
2.99991
2.99971
2.99942
2.99826
2.99663
2.99016
2.98007
2.94537
2.87244
2.69155
2.22935
1.43319
0.619464
0.301214
0.361033
0.384593
0.356218
0.310902
0.270302
0.241928
0.218381
0.198978
0.190757
3
2.99996
2.99992
2.99972
2.99946
2.99837
2.99684
2.99072
2.9815
2.9485
2.8846
2.71459
2.29637
1.52756
0.671189
0.32475
0.384262
0.409772
0.382664
0.340589
0.303813
0.279383
0.260661
0.24621
0.240854
3
2.99997
2.99992
2.99975
2.9995
2.99851
2.99711
2.99152
2.98311
2.95283
2.89636
2.73923
2.3686
1.63876
0.733575
0.362889
0.418631
0.442722
0.416664
0.377886
0.344353
0.323742
0.309494
0.300474
0.300328
3
2.99997
2.99993
2.99977
2.99955
2.99865
2.99737
2.99229
2.98468
2.95704
2.90636
2.76213
2.42631
1.7318
0.789944
0.39861
0.448124
0.469278
0.449325
0.41801
0.389852
0.374338
0.366464
0.365216
0.374878
3
2.99997
2.99994
2.9998
2.9996
2.99879
2.99766
2.99309
2.98632
2.9615
2.9158
2.78795
2.47483
1.84128
0.870008
0.455551
0.472276
0.48484
0.478471
0.457527
0.438011
0.429843
0.430514
0.443097
0.477117
3
2.99998
2.99995
2.99983
2.99967
2.99901
2.99803
2.9945
2.98818
2.96887
2.92367
2.81698
2.51759
1.95702
0.981521
0.52721
0.489204
0.501827
0.506232
0.49544
0.487365
0.48882
0.505053
0.546668
0.646183
3.00002
2.99997
2.99991
2.99968
2.99936
2.99805
2.99617
2.98898
2.97693
2.938
2.84898
2.64396
2.09945
1.26171
0.52573
0.278373
0.329155
0.344314
0.312121
0.257571
0.205214
0.16343
0.122381
0.0769318
0.0437787
3.00002
2.99997
2.99992
2.99969
2.99937
2.99808
2.99622
2.98914
2.97725
2.9389
2.85109
2.6488
2.10981
1.27567
0.532782
0.278119
0.330317
0.346257
0.314284
0.260513
0.209474
0.169201
0.130402
0.0902186
0.0664349
3.00002
2.99997
2.99992
2.9997
2.99939
2.99813
2.99632
2.98941
2.97791
2.94048
2.85556
2.65817
2.1351
1.30831
0.551218
0.281763
0.336133
0.353759
0.322558
0.270834
0.222726
0.185895
0.151998
0.120206
0.10451
3.00002
2.99997
2.99992
2.99971
2.99941
2.9982
2.99648
2.98983
2.97889
2.94292
2.8623
2.67248
2.17408
1.35984
0.579536
0.288264
0.345834
0.366302
0.336524
0.287771
0.243442
0.210872
0.182479
0.157701
0.146447
3.00002
2.99998
2.99993
2.99972
2.99944
2.99828
2.99665
2.99019
2.9801
2.94541
2.87245
2.69161
2.22938
1.4333
0.619563
0.301389
0.361193
0.38475
0.35639
0.311102
0.270537
0.242193
0.218678
0.199305
0.191102
3.00002
2.99998
2.99993
2.99974
2.99948
2.99839
2.99686
2.99074
2.98152
2.94852
2.88462
2.71465
2.29642
1.52768
0.671287
0.324919
0.384411
0.409915
0.38282
0.340767
0.304017
0.279607
0.260904
0.24647
0.241122
3.00002
2.99998
2.99994
2.99977
2.99952
2.99853
2.99713
2.99154
2.98313
2.95286
2.89639
2.73928
2.36866
1.63888
0.733673
0.363051
0.418774
0.442856
0.416806
0.378043
0.344527
0.323931
0.309695
0.300683
0.300538
3.00002
2.99999
2.99995
2.99979
2.99957
2.99867
2.99739
2.99231
2.9847
2.95706
2.90639
2.76218
2.42634
1.7319
0.790024
0.398751
0.448248
0.469397
0.449453
0.418149
0.390002
0.374496
0.366628
0.365383
0.375042
3.00002
2.99999
2.99996
2.99982
2.99962
2.99881
2.99768
2.99311
2.98634
2.96153
2.91583
2.788
2.47485
1.84138
0.87009
0.455684
0.472388
0.48495
0.478586
0.45765
0.438141
0.429977
0.430648
0.44323
0.47724
3.00002
3
2.99997
2.99985
2.99969
2.99903
2.99805
2.99452
2.98821
2.9689
2.92369
2.81703
2.51762
1.9571
0.981601
0.527332
0.489311
0.501931
0.506337
0.495549
0.487477
0.488933
0.505163
0.54677
0.646269
3.00002
3.00001
2.99996
2.9999
2.99965
2.99928
2.99785
2.99568
2.98787
2.97385
2.93109
2.8297
2.60396
2.02108
1.15911
0.616388
0.512611
0.525119
0.536113
0.53441
0.535717
0.549388
0.587094
0.669625
0.843986
3.00002
3.00001
2.99997
2.99991
2.99969
2.99938
2.99812
2.99631
2.9894
2.97784
2.94051
2.85553
2.65907
2.13952
1.32519
0.707359
0.535113
0.5496
0.567195
0.574268
0.584206
0.610269
0.665333
0.767044
0.948936
3.00002
3.00001
2.99998
2.99993
2.99974
2.99947
2.99836
2.99682
2.9906
2.98125
2.94808
2.88204
2.71135
2.28513
1.52456
0.815594
0.570469
0.58333
0.601906
0.615078
0.63135
0.665353
0.728462
0.828426
0.983646
3.00002
3.00001
2.99998
2.99995
2.99979
2.99956
2.99865
2.99737
2.99226
2.98462
2.95689
2.90679
2.76226
2.43835
1.75613
0.937325
0.626309
0.631032
0.645485
0.661445
0.680328
0.716684
0.778305
0.867213
0.996484
3.00002
3.00002
2.99999
2.99996
2.99983
2.99965
2.99893
2.99788
2.9938
2.98754
2.96547
2.92364
2.80865
2.52731
1.94265
1.05644
0.690705
0.671592
0.685661
0.702914
0.724195
0.759997
0.820058
0.898102
1.00584
3.00002
3.00002
3.00001
2.99996
2.9999
2.99967
2.99932
2.99799
2.99595
2.98878
2.97556
2.93655
2.84207
2.63494
2.08366
1.27001
0.794667
0.707109
0.719619
0.737803
0.762783
0.797233
0.851334
0.923518
1.01535
3.00002
3.00002
3.00001
2.99997
2.99993
2.99973
2.99945
2.99832
2.99672
2.99043
2.98068
2.94718
2.87741
2.7049
2.26632
1.51283
0.914301
0.742127
0.748138
0.767378
0.797343
0.832267
0.880281
0.944439
1.02438
3.00002
3.00002
3.00001
2.99999
2.99995
2.9998
2.99958
2.99871
2.99746
2.99258
2.98513
2.95869
2.90989
2.77098
2.46073
1.79252
1.06841
0.801914
0.78834
0.80199
0.829046
0.86464
0.908733
0.965791
1.03515
3.00002
3.00002
3.00001
3
2.99996
2.99989
2.99962
2.99922
2.99771
2.99544
2.98715
2.97294
2.92834
2.82681
2.59864
2.03965
1.24736
0.876033
0.829664
0.840587
0.863151
0.895833
0.934546
0.984439
1.04525
3.00003
3.00002
3.00002
3.00001
2.99997
2.99992
2.99972
2.99943
2.99828
2.99659
2.99036
2.97971
2.94615
2.86972
2.693
2.23358
1.48097
0.987847
0.868509
0.872227
0.892745
0.925104
0.961506
1.00447
1.05713
3.00003
3.00003
3.00002
3.00001
3
2.99994
2.99985
2.99951
2.999
2.99715
2.99406
2.98412
2.96309
2.90846
2.76573
2.47777
1.79804
1.1625
0.929407
0.910659
0.922699
0.949849
0.985707
1.02534
1.07061
3.00003
3.00003
3.00002
3.00002
3
2.99996
2.99989
2.99964
2.99927
2.99781
2.99569
2.98773
2.97457
2.93228
2.83806
2.62488
2.09529
1.35091
1.00659
0.950639
0.957524
0.978499
1.01007
1.04712
1.08795
3.00003
3.00003
3.00003
3.00002
3.00001
2.99999
2.99992
2.99981
2.99939
2.99877
2.99656
2.99268
2.98073
2.95393
2.88767
2.71071
2.36396
1.60422
1.13764
0.996325
0.9907
1.00331
1.03038
1.06571
1.10446
3.00003
3.00003
3.00003
3.00002
3.00001
3
2.99995
2.99987
2.99956
2.99911
2.99736
2.99484
2.98521
2.96988
2.92004
2.81675
2.56095
2.02131
1.3241
1.0678
1.0327
1.03706
1.05691
1.08739
1.12233
3.00003
3.00003
3.00003
3.00002
3.00002
3
2.99998
2.99989
2.99976
2.99927
2.99854
2.99579
2.99151
2.97687
2.94902
2.87231
2.68468
2.29337
1.5532
1.16557
1.06963
1.06675
1.0805
1.10711
1.14044
3.00003
3.00003
3.00003
3.00003
3.00002
3.00001
3
2.99994
2.99985
2.99951
2.99902
2.99711
2.99432
2.98404
2.9668
2.91348
2.79318
2.53018
1.92929
1.34387
1.13006
1.10371
1.10971
1.13039
1.15999
3.00003
3.00003
3.00003
3.00003
3.00002
3.00002
3
2.99998
2.99988
2.99974
2.9992
2.99841
2.99544
2.9908
2.97486
2.94547
2.86361
2.67453
2.2486
1.556
1.21852
1.14164
1.13914
1.15269
1.17762
3.00003
3.00003
3.00003
3.00003
3.00003
3.00002
3.00001
2.99999
2.99993
2.99984
2.99948
2.99896
2.99697
2.99405
2.98334
2.96539
2.91018
2.78664
2.51485
1.91434
1.38638
1.19835
1.17295
1.17878
1.19794
3.00003
3.00003
3.00003
3.00003
3.00003
3.00002
3.00002
3
2.99998
2.99988
2.99973
2.99919
2.99837
2.99538
2.9906
2.97459
2.94504
2.86008
2.68272
2.23285
1.60845
1.29364
1.21622
1.20999
1.21914
3.00003
3.00003
3.00003
3.00003
3.00003
3.00003
3.00002
3.00001
2.99999
2.99995
2.9998
2.99958
2.99876
2.99753
2.99304
2.9859
2.96222
2.91691
2.79724
2.52391
1.95443
1.44438
1.26881
1.24259
1.24577
3.00003
3.00003
3.00003
3.00003
3.00003
3.00003
3.00002
3.00002
3
2.99998
2.99988
2.99974
2.99921
2.99845
2.99554
2.99116
2.97567
2.9489
2.86944
2.70404
2.29998
1.68095
1.36362
1.28238
1.2733
3.00003
3.00003
3.00003
3.00003
3.00003
3.00003
3.00003
3.00002
3.00002
2.99999
2.99995
2.99982
2.99962
2.99887
2.99775
2.99369
2.98722
2.96596
2.92572
2.81764
2.58067
2.0546
1.53161
1.3351
1.30661
3.00003
3.00003
3.00003
3.00003
3.00003
3.00003
3.00003
3.00002
3.00002
3.00001
2.99998
2.9999
2.99977
2.9993
2.99861
2.996
2.99218
2.97836
2.95506
2.88699
2.73722
2.40217
1.77281
1.4329
1.34018
3.00003
3.00003
3.00003
3.00003
3.00003
3.00003
3.00003
3.00003
3.00002
3.00001
3
2.99995
2.99987
2.99959
2.99918
2.99763
2.99537
2.98708
2.97387
2.93185
2.84897
2.6423
2.19848
1.63386
1.40609
3.00003
3.00003
3.00003
3.00003
3.00003
3.00003
3.00003
3.00003
3.00003
3.00002
3.00001
2.99998
2.99994
2.99976
2.99952
2.99858
2.99721
2.9921
2.98428
2.9578
2.90754
2.77933
2.46998
1.90391
1.52336
3.00003
3.00003
3.00003
3.00003
3.00003
3.00003
3.00003
3.00003
3.00003
3.00003
3.00002
3.00001
2.99996
2.9999
2.99967
2.99933
2.99808
2.99617
2.98949
2.97829
2.94388
2.87024
2.70207
2.3012
1.73301
3.00003
3.00003
3.00003
3.00003
3.00003
3.00003
3.00003
3.00003
3.00003
3.00003
3.00002
3.00001
3
2.99994
2.99985
2.99954
2.99908
2.99739
2.99478
2.98596
2.97028
2.92524
2.82305
2.60627
2.10875
3.00003
3.00003
3.00003
3.00003
3.00003
3.00003
3.00003
3.00003
3.00003
3.00003
3.00003
3.00002
3.00001
2.99999
2.99991
2.99979
2.99936
2.99872
2.9964
2.99276
2.98061
2.95864
2.8971
2.76396
2.44677
3.00003
3.00003
3.00003
3.00003
3.00003
3.00003
3.00003
3.00003
3.00003
3.00003
3.00003
3.00002
3.00002
3
2.99996
2.99989
2.99964
2.99928
2.99793
2.99594
2.98875
2.97734
2.94082
2.87025
2.69176
3.00003
3.00003
3.00003
3.00003
3.00003
3.00003
3.00003
3.00003
3.00003
3.00003
3.00003
3.00003
3.00002
3.00001
3
2.99994
2.99985
2.99953
2.99905
2.99733
2.99467
2.98559
2.97011
2.9247
2.82837
3.00003
3.00003
3.00003
3.00003
3.00003
3.00003
3.00003
3.00003
3.00003
3.00003
3.00003
3.00003
3.00003
3.00002
3.00001
2.99998
2.99991
2.99979
2.99937
2.99872
2.99646
2.99283
2.98106
2.95977
2.89915
3.00003
3.00003
3.00003
3.00003
3.00003
3.00003
3.00003
3.00003
3.00003
3.00003
3.00003
3.00003
3.00003
3.00002
3.00002
3
2.99997
2.99987
2.99971
2.99915
2.99829
2.9953
2.99048
2.97497
2.94675
3.00003
3.00003
3.00003
3.00003
3.00003
3.00003
3.00003
3.00003
3.00003
3.00003
3.00003
3.00003
3.00003
3.00003
3.00002
3.00001
2.99999
2.99993
2.99984
2.9995
2.999
2.99717
2.99441
2.98483
2.96911
3.00003
3.00003
3.00003
3.00003
3.00003
3.00003
3.00003
3.00003
3.00003
3.00003
3.00003
3.00003
3.00003
3.00003
3.00002
3.00002
3
2.99997
2.99988
2.99973
2.99919
2.99837
2.99542
2.99081
2.97515
3.00003
3.00003
3.00003
3.00003
3.00003
3.00003
3.00003
3.00003
3.00003
3.00003
3.00003
3.00003
3.00003
3.00003
3.00003
3.00002
3.00001
2.99998
2.99993
2.99973
2.99945
2.99837
2.99674
2.99076
2.98097
3.00003
3.00003
3.00003
3.00003
3.00003
3.00003
3.00003
3.00003
3.00003
3.00003
3.00003
3.00003
3.00003
3.00003
3.00003
3.00002
3.00001
2.99999
2.99992
2.99982
2.99944
2.99884
2.99679
2.99293
2.98167
3.00003
3.00003
3.00003
3.00003
3.00003
3.00003
3.00003
3.00003
3.00003
3.00003
3.00003
3.00003
3.00003
3.00003
3.00003
3.00002
3.00001
2.99998
2.99994
2.99976
2.99951
2.99852
2.99706
2.99149
2.98237
3.00003
3.00003
3.00003
3.00003
3.00003
3.00003
3.00003
3.00003
3.00003
3.00003
3.00003
3.00003
3.00003
3.00003
3.00003
3.00002
3.00001
2.99998
2.99994
2.99977
2.99953
2.99856
2.99713
2.99171
2.98268
3.00003
3.00003
3.00003
3.00003
3.00003
3.00003
3.00003
3.00003
3.00003
3.00003
3.00003
3.00003
3.00003
3.00003
3.00003
3.00002
3.00001
2.99999
2.99993
2.99983
2.99946
2.9989
2.99687
2.99328
2.98212
3.00003
3.00003
3.00003
3.00003
3.00003
3.00003
3.00003
3.00003
3.00003
3.00003
3.00003
3.00003
3.00003
3.00003
3.00003
3.00002
3.00001
2.99999
2.99992
2.99983
2.99943
2.99887
2.99661
2.99327
2.98108
3
2.99999
2.99994
2.99988
2.99963
2.99926
2.99783
2.99566
2.98785
2.97383
2.93105
2.82967
2.60389
2.02103
1.15901
0.616278
0.512507
0.525018
0.536015
0.534311
0.535618
0.549291
0.587003
0.669547
0.843929
3
2.99999
2.99995
2.9999
2.99967
2.99936
2.9981
2.99628
2.98937
2.97782
2.94048
2.8555
2.65901
2.13947
1.32509
0.707259
0.53501
0.5495
0.5671
0.574176
0.584118
0.610185
0.665256
0.766978
0.948882
3
2.99999
2.99996
2.99991
2.99972
2.99945
2.99834
2.9968
2.99058
2.98123
2.94804
2.88203
2.7113
2.2851
1.52447
0.815514
0.570371
0.583233
0.601816
0.614993
0.631269
0.665277
0.728394
0.828365
0.983595
3
3
2.99997
2.99993
2.99977
2.99954
2.99863
2.99735
2.99224
2.9846
2.95686
2.90676
2.76222
2.43831
1.75606
0.937255
0.626216
0.630945
0.645404
0.661367
0.680254
0.716614
0.778242
0.867155
0.996432
3
3
2.99997
2.99994
2.99981
2.99963
2.99891