/*--------------------------------*- C++ -*----------------------------------*\
| =========                 |                                                 |
| \\      /  F ield         | OpenFOAM: The Open Source CFD Toolbox           |
|  \\    /   O peration     | Version:  4.1                                   |
|   \\  /    A nd           | Web:      www.OpenFOAM.org                      |
|    \\/     M anipulation  |                                                 |
\*---------------------------------------------------------------------------*/
FoamFile
{
    version     2.0;
    format      ascii;
    class       volScalarField;
    location    "5.1";
    object      p;
}
// * * * * * * * * * * * * * * * * * * * * * * * * * * * * * * * * * * * * * //

dimensions      [1 -1 -2 0 0 0 0];

internalField   nonuniform List<scalar> 
52500
(
1.00001
1.00003
1.0001
1.00023
1.00065
1.00134
1.00384
1.00755
1.02334
1.04169
1.15193
1.26756
2.03421
3.42022
8.24949
11.5741
11.2254
10.9963
11.0753
11.3009
11.5375
11.6829
11.7922
11.8789
11.946
1.00001
1.00003
1.0001
1.00022
1.00064
1.00132
1.00378
1.00743
1.02302
1.04099
1.14984
1.26287
2.0215
3.38118
8.15033
11.5802
11.2203
10.9849
11.0655
11.2926
11.5288
11.6742
11.785
11.8732
11.9417
1.00001
1.00003
1.0001
1.00022
1.00063
1.00128
1.00368
1.00724
1.02236
1.03993
1.14545
1.25512
1.98676
3.29885
7.92212
11.5942
11.2086
10.9532
11.0333
11.2593
11.4924
11.6351
11.7452
11.8325
11.9005
1.00001
1.00003
1.0001
1.00021
1.0006
1.00123
1.00353
1.00696
1.02138
1.03832
1.13879
1.24347
1.93353
3.17371
7.56596
11.6201
11.1941
10.9019
10.9789
11.1998
11.4282
11.566
11.6724
11.7571
11.8256
1.00001
1.00003
1.00009
1.0002
1.00057
1.00118
1.00335
1.00668
1.02007
1.03695
1.12876
1.23003
1.86135
3.00985
7.08427
11.6495
11.1774
10.8331
10.9044
11.1158
11.3385
11.4695
11.5703
11.6513
11.7207
1.00001
1.00002
1.00008
1.00019
1.00054
1.00111
1.00314
1.00634
1.01848
1.0357
1.11594
1.21517
1.77495
2.8161
6.49183
11.6579
11.155
10.7494
10.8113
11.0066
11.2202
11.3401
11.43
11.5034
11.5742
1
1.00002
1.00008
1.00017
1.00049
1.00101
1.00288
1.00582
1.01683
1.03304
1.10372
1.19738
1.6851
2.60662
5.81947
11.5908
11.1008
10.6495
10.6994
10.8693
11.0672
11.1705
11.2425
11.2988
11.3633
1
1.00002
1.00007
1.00015
1.00045
1.00092
1.00261
1.00528
1.01524
1.03003
1.09319
1.17927
1.60987
2.42819
5.30505
11.2788
10.9527
10.5401
10.5708
10.6986
10.8719
10.9499
10.9906
11.0115
11.0509
1
1.00002
1.00006
1.00014
1.0004
1.00082
1.00233
1.00472
1.01363
1.02682
1.08385
1.1577
1.54768
2.26381
4.86209
10.6525
10.6539
10.4603
10.4334
10.4984
10.6303
10.6696
10.6593
10.6062
10.5509
1
1.00001
1.00005
1.00011
1.00033
1.00068
1.00196
1.00381
1.01191
1.02085
1.07626
1.12885
1.49277
2.09618
4.41166
9.81686
10.4866
10.3642
10.2619
10.2868
10.3445
10.3276
10.2392
10.0236
9.67847
1.00001
1.00003
1.00011
1.00023
1.00066
1.00134
1.00385
1.00756
1.02335
1.04171
1.15195
1.26763
2.03429
3.42053
8.25015
11.574
11.2254
10.9964
11.0754
11.301
11.5376
11.6829
11.7923
11.879
11.9461
1.00001
1.00003
1.00011
1.00023
1.00065
1.00132
1.00379
1.00744
1.02303
1.04101
1.14986
1.26293
2.02159
3.38149
8.151
11.5801
11.2203
10.985
11.0656
11.2927
11.5289
11.6743
11.7851
11.8732
11.9417
1.00001
1.00003
1.0001
1.00022
1.00063
1.00129
1.00369
1.00725
1.02237
1.03995
1.14547
1.25517
1.98685
3.29915
7.92278
11.594
11.2086
10.9533
11.0334
11.2594
11.4924
11.6352
11.7453
11.8325
11.9006
1.00001
1.00003
1.0001
1.00021
1.00061
1.00124
1.00354
1.00697
1.02139
1.03834
1.13881
1.24352
1.93362
3.174
7.56662
11.62
11.1941
10.902
10.979
11.1998
11.4283
11.5661
11.6724
11.7572
11.8256
1.00001
1.00003
1.00009
1.0002
1.00058
1.00118
1.00336
1.00669
1.02008
1.03699
1.12876
1.23012
1.86138
3.01012
7.08488
11.6494
11.1774
10.8332
10.9045
11.1159
11.3386
11.4696
11.5703
11.6514
11.7208
1.00001
1.00003
1.00009
1.00019
1.00054
1.00111
1.00315
1.00635
1.01849
1.03572
1.11595
1.21523
1.775
2.81634
6.49241
11.6579
11.1551
10.7495
10.8114
11.0067
11.2203
11.3401
11.4301
11.5035
11.5743
1.00001
1.00002
1.00008
1.00018
1.0005
1.00102
1.00289
1.00583
1.01684
1.03305
1.10374
1.19743
1.68516
2.60683
5.82003
11.5908
11.1009
10.6496
10.6995
10.8693
11.0673
11.1705
11.2426
11.2988
11.3634
1
1.00002
1.00007
1.00016
1.00045
1.00093
1.00262
1.00529
1.01525
1.03005
1.09321
1.17931
1.60991
2.42835
5.30534
11.279
10.9528
10.5402
10.5709
10.6987
10.872
10.9499
10.9907
11.0116
11.051
1
1.00002
1.00007
1.00014
1.0004
1.00083
1.00234
1.00473
1.01364
1.02684
1.08387
1.15775
1.5477
2.26395
4.86233
10.6529
10.6542
10.4604
10.4334
10.4985
10.6304
10.6697
10.6594
10.6063
10.5509
1
1.00002
1.00005
1.00012
1.00034
1.00069
1.00196
1.00382
1.01192
1.02086
1.07628
1.12888
1.4928
2.09633
4.41185
9.81732
10.4867
10.3643
10.262
10.2869
10.3446
10.3277
10.2393
10.0236
9.67854
1.00001
1.00003
1.00011
1.00023
1.00066
1.00134
1.00385
1.00756
1.02335
1.04171
1.15196
1.26763
2.0343
3.42055
8.25019
11.574
11.2254
10.9964
11.0754
11.301
11.5376
11.6829
11.7923
11.879
11.9461
1.00001
1.00003
1.00011
1.00023
1.00065
1.00132
1.00379
1.00744
1.02303
1.04101
1.14987
1.26294
2.02159
3.38151
8.15103
11.5801
11.2203
10.985
11.0656
11.2927
11.5289
11.6743
11.7851
11.8732
11.9417
1.00001
1.00003
1.0001
1.00022
1.00063
1.00129
1.00369
1.00725
1.02237
1.03995
1.14547
1.25518
1.98686
3.29917
7.92282
11.594
11.2086
10.9533
11.0334
11.2594
11.4924
11.6352
11.7453
11.8325
11.9006
1.00001
1.00003
1.0001
1.00021
1.00061
1.00124
1.00354
1.00697
1.02139
1.03834
1.13881
1.24352
1.93362
3.17401
7.56666
11.62
11.1941
10.902
10.979
11.1998
11.4283
11.5661
11.6724
11.7572
11.8257
1.00001
1.00003
1.00009
1.0002
1.00058
1.00118
1.00336
1.00669
1.02008
1.03699
1.12877
1.23012
1.86139
3.01013
7.08492
11.6494
11.1774
10.8332
10.9045
11.1159
11.3386
11.4696
11.5703
11.6514
11.7208
1.00001
1.00003
1.00009
1.00019
1.00054
1.00111
1.00315
1.00635
1.01849
1.03572
1.11595
1.21523
1.775
2.81635
6.49245
11.6579
11.1551
10.7495
10.8114
11.0067
11.2203
11.3401
11.4301
11.5035
11.5743
1.00001
1.00002
1.00008
1.00018
1.0005
1.00102
1.00289
1.00583
1.01684
1.03305
1.10374
1.19743
1.68516
2.60685
5.82007
11.5908
11.1009
10.6496
10.6995
10.8693
11.0673
11.1705
11.2426
11.2988
11.3634
1
1.00002
1.00007
1.00016
1.00045
1.00093
1.00262
1.00529
1.01525
1.03005
1.09321
1.17931
1.60991
2.42835
5.30536
11.279
10.9528
10.5402
10.5709
10.6987
10.872
10.9499
10.9907
11.0116
11.051
1
1.00002
1.00007
1.00014
1.0004
1.00083
1.00234
1.00473
1.01364
1.02684
1.08387
1.15775
1.5477
2.26396
4.86235
10.653
10.6542
10.4604
10.4334
10.4985
10.6304
10.6697
10.6594
10.6063
10.5509
1
1.00002
1.00005
1.00012
1.00034
1.00069
1.00196
1.00382
1.01192
1.02086
1.07628
1.12888
1.4928
2.09634
4.41186
9.81735
10.4867
10.3643
10.262
10.2869
10.3446
10.3277
10.2393
10.0236
9.67854
1.00001
1.00003
1.00011
1.00023
1.00066
1.00134
1.00385
1.00756
1.02335
1.04171
1.15196
1.26763
2.0343
3.42055
8.25019
11.574
11.2254
10.9964
11.0754
11.301
11.5376
11.6829
11.7923
11.879
11.9461
1.00001
1.00003
1.00011
1.00023
1.00065
1.00132
1.00379
1.00744
1.02303
1.04101
1.14987
1.26294
2.02159
3.3815
8.15103
11.5801
11.2203
10.985
11.0656
11.2927
11.5289
11.6743
11.7851
11.8732
11.9417
1.00001
1.00003
1.0001
1.00022
1.00063
1.00129
1.00369
1.00725
1.02237
1.03995
1.14547
1.25518
1.98686
3.29917
7.92281
11.594
11.2086
10.9533
11.0334
11.2594
11.4924
11.6352
11.7453
11.8325
11.9006
1.00001
1.00003
1.0001
1.00021
1.00061
1.00124
1.00354
1.00697
1.02139
1.03834
1.13881
1.24352
1.93362
3.17401
7.56666
11.62
11.1941
10.902
10.979
11.1998
11.4283
11.5661
11.6724
11.7572
11.8257
1.00001
1.00003
1.00009
1.0002
1.00058
1.00118
1.00336
1.00669
1.02008
1.03699
1.12877
1.23012
1.86139
3.01013
7.08492
11.6494
11.1774
10.8332
10.9045
11.1159
11.3386
11.4696
11.5703
11.6514
11.7208
1.00001
1.00003
1.00009
1.00019
1.00054
1.00111
1.00315
1.00635
1.01849
1.03572
1.11595
1.21523
1.775
2.81635
6.49245
11.6579
11.1551
10.7495
10.8114
11.0067
11.2203
11.3401
11.4301
11.5035
11.5743
1.00001
1.00002
1.00008
1.00018
1.0005
1.00102
1.00289
1.00583
1.01684
1.03305
1.10374
1.19743
1.68516
2.60685
5.82007
11.5908
11.1009
10.6496
10.6995
10.8693
11.0673
11.1705
11.2426
11.2988
11.3634
1
1.00002
1.00007
1.00016
1.00045
1.00093
1.00262
1.00529
1.01525
1.03005
1.09321
1.17931
1.60991
2.42835
5.30536
11.279
10.9528
10.5402
10.5709
10.6987
10.872
10.9499
10.9907
11.0116
11.051
1
1.00002
1.00007
1.00014
1.0004
1.00083
1.00234
1.00473
1.01364
1.02684
1.08387
1.15775
1.5477
2.26396
4.86235
10.653
10.6542
10.4604
10.4334
10.4985
10.6304
10.6697
10.6594
10.6063
10.5509
1
1.00002
1.00005
1.00012
1.00034
1.00069
1.00196
1.00382
1.01192
1.02086
1.07628
1.12888
1.4928
2.09634
4.41186
9.81735
10.4867
10.3643
10.262
10.2869
10.3446
10.3277
10.2393
10.0236
9.67854
1.00001
1.00003
1.00011
1.00023
1.00066
1.00134
1.00385
1.00756
1.02335
1.04171
1.15196
1.26763
2.0343
3.42055
8.2502
11.574
11.2254
10.9964
11.0754
11.301
11.5376
11.6829
11.7923
11.879
11.9461
1.00001
1.00003
1.00011
1.00023
1.00065
1.00132
1.00379
1.00744
1.02303
1.04101
1.14987
1.26294
2.02159
3.38151
8.15105
11.5801
11.2203
10.985
11.0656
11.2927
11.5289
11.6743
11.7851
11.8732
11.9417
1.00001
1.00003
1.0001
1.00022
1.00063
1.00129
1.00369
1.00725
1.02237
1.03995
1.14548
1.25518
1.98686
3.29917
7.92283
11.594
11.2086
10.9533
11.0334
11.2594
11.4925
11.6352
11.7453
11.8325
11.9006
1.00001
1.00003
1.0001
1.00021
1.00061
1.00124
1.00354
1.00697
1.02139
1.03834
1.13881
1.24352
1.93362
3.17402
7.56668
11.62
11.1941
10.902
10.979
11.1998
11.4283
11.5661
11.6724
11.7572
11.8257
1.00001
1.00003
1.00009
1.0002
1.00058
1.00118
1.00336
1.00669
1.02008
1.03699
1.12877
1.23012
1.86139
3.01013
7.08494
11.6494
11.1774
10.8332
10.9045
11.1159
11.3386
11.4696
11.5703
11.6514
11.7208
1.00001
1.00003
1.00009
1.00019
1.00054
1.00111
1.00315
1.00635
1.01849
1.03572
1.11595
1.21524
1.77501
2.81635
6.49247
11.6579
11.1551
10.7495
10.8114
11.0067
11.2203
11.3401
11.4301
11.5035
11.5743
1.00001
1.00002
1.00008
1.00018
1.0005
1.00102
1.00289
1.00583
1.01684
1.03305
1.10374
1.19743
1.68517
2.60685
5.82008
11.5908
11.1009
10.6496
10.6995
10.8693
11.0673
11.1705
11.2426
11.2988
11.3634
1
1.00002
1.00007
1.00016
1.00045
1.00093
1.00262
1.00529
1.01525
1.03005
1.09321
1.17931
1.60991
2.42836
5.30536
11.279
10.9528
10.5402
10.5709
10.6987
10.872
10.9499
10.9907
11.0116
11.051
1
1.00002
1.00007
1.00014
1.0004
1.00083
1.00234
1.00473
1.01364
1.02684
1.08387
1.15775
1.54771
2.26396
4.86236
10.653
10.6542
10.4604
10.4334
10.4985
10.6304
10.6697
10.6594
10.6063
10.5509
1
1.00002
1.00005
1.00012
1.00034
1.00069
1.00196
1.00382
1.01192
1.02086
1.07628
1.12888
1.4928
2.09634
4.41187
9.81737
10.4867
10.3643
10.262
10.2869
10.3446
10.3277
10.2393
10.0236
9.67854
1.00001
1.00003
1.00011
1.00023
1.00066
1.00134
1.00385
1.00756
1.02335
1.04171
1.15196
1.26763
2.0343
3.42055
8.2502
11.574
11.2254
10.9964
11.0754
11.301
11.5376
11.6829
11.7923
11.879
11.9461
1.00001
1.00003
1.00011
1.00023
1.00065
1.00132
1.00379
1.00744
1.02303
1.04101
1.14987
1.26294
2.02159
3.38151
8.15105
11.5801
11.2203
10.985
11.0656
11.2927
11.5289
11.6743
11.7851
11.8732
11.9417
1.00001
1.00003
1.0001
1.00022
1.00063
1.00129
1.00369
1.00725
1.02237
1.03995
1.14548
1.25518
1.98686
3.29917
7.92283
11.594
11.2086
10.9533
11.0334
11.2594
11.4925
11.6352
11.7453
11.8325
11.9006
1.00001
1.00003
1.0001
1.00021
1.00061
1.00124
1.00354
1.00697
1.02139
1.03834
1.13881
1.24352
1.93362
3.17402
7.56668
11.62
11.1941
10.902
10.979
11.1998
11.4283
11.5661
11.6724
11.7572
11.8257
1.00001
1.00003
1.00009
1.0002
1.00058
1.00118
1.00336
1.00669
1.02008
1.03699
1.12877
1.23012
1.86139
3.01014
7.08494
11.6494
11.1774
10.8332
10.9045
11.1159
11.3386
11.4696
11.5703
11.6514
11.7208
1.00001
1.00003
1.00009
1.00019
1.00054
1.00111
1.00315
1.00635
1.01849
1.03572
1.11595
1.21524
1.77501
2.81635
6.49247
11.6579
11.1551
10.7495
10.8114
11.0067
11.2203
11.3401
11.4301
11.5035
11.5743
1.00001
1.00002
1.00008
1.00018
1.0005
1.00102
1.00289
1.00583
1.01684
1.03305
1.10374
1.19743
1.68517
2.60685
5.82008
11.5908
11.1009
10.6496
10.6995
10.8693
11.0673
11.1705
11.2426
11.2988
11.3634
1
1.00002
1.00007
1.00016
1.00045
1.00093
1.00262
1.00529
1.01525
1.03005
1.09321
1.17931
1.60991
2.42836
5.30536
11.279
10.9528
10.5402
10.5709
10.6987
10.872
10.9499
10.9907
11.0116
11.051
1
1.00002
1.00007
1.00014
1.0004
1.00083
1.00234
1.00473
1.01364
1.02684
1.08387
1.15775
1.54771
2.26396
4.86236
10.653
10.6542
10.4604
10.4334
10.4985
10.6304
10.6697
10.6594
10.6063
10.5509
1
1.00002
1.00005
1.00012
1.00034
1.00069
1.00196
1.00382
1.01192
1.02086
1.07628
1.12888
1.4928
2.09634
4.41187
9.81737
10.4867
10.3643
10.262
10.2869
10.3446
10.3277
10.2393
10.0236
9.67854
1.00001
1.00003
1.00011
1.00023
1.00066
1.00134
1.00385
1.00756
1.02335
1.04171
1.15196
1.26763
2.0343
3.42055
8.25019
11.574
11.2254
10.9964
11.0754
11.301
11.5376
11.6829
11.7923
11.879
11.9461
1.00001
1.00003
1.00011
1.00023
1.00065
1.00132
1.00379
1.00744
1.02303
1.04101
1.14987
1.26294
2.02159
3.38151
8.15104
11.5801
11.2203
10.985
11.0656
11.2927
11.5289
11.6743
11.7851
11.8732
11.9417
1.00001
1.00003
1.0001
1.00022
1.00063
1.00129
1.00369
1.00725
1.02237
1.03995
1.14547
1.25518
1.98686
3.29917
7.92282
11.594
11.2086
10.9533
11.0334
11.2594
11.4924
11.6352
11.7453
11.8325
11.9006
1.00001
1.00003
1.0001
1.00021
1.00061
1.00124
1.00354
1.00697
1.02139
1.03834
1.13881
1.24352
1.93362
3.17401
7.56667
11.62
11.1941
10.902
10.979
11.1998
11.4283
11.5661
11.6724
11.7572
11.8257
1.00001
1.00003
1.00009
1.0002
1.00058
1.00118
1.00336
1.00669
1.02008
1.03699
1.12877
1.23012
1.86139
3.01013
7.08493
11.6494
11.1774
10.8332
10.9045
11.1159
11.3386
11.4696
11.5703
11.6514
11.7208
1.00001
1.00003
1.00009
1.00019
1.00054
1.00111
1.00315
1.00635
1.01849
1.03572
1.11595
1.21523
1.775
2.81635
6.49245
11.6579
11.1551
10.7495
10.8114
11.0067
11.2203
11.3401
11.4301
11.5035
11.5743
1.00001
1.00002
1.00008
1.00018
1.0005
1.00102
1.00289
1.00583
1.01684
1.03305
1.10374
1.19743
1.68516
2.60685
5.82007
11.5908
11.1009
10.6496
10.6995
10.8693
11.0673
11.1705
11.2426
11.2988
11.3634
1
1.00002
1.00007
1.00016
1.00045
1.00093
1.00262
1.00529
1.01525
1.03005
1.09321
1.17931
1.60991
2.42835
5.30536
11.279
10.9528
10.5402
10.5709
10.6987
10.872
10.9499
10.9907
11.0116
11.051
1
1.00002
1.00007
1.00014
1.0004
1.00083
1.00234
1.00473
1.01364
1.02684
1.08387
1.15775
1.5477
2.26396
4.86235
10.653
10.6542
10.4604
10.4334
10.4985
10.6304
10.6697
10.6594
10.6063
10.5509
1
1.00002
1.00005
1.00012
1.00034
1.00069
1.00196
1.00382
1.01192
1.02086
1.07628
1.12888
1.4928
2.09634
4.41186
9.81736
10.4867
10.3643
10.262
10.2869
10.3446
10.3277
10.2393
10.0236
9.67854
1.00001
1.00003
1.00011
1.00023
1.00066
1.00134
1.00385
1.00756
1.02335
1.04171
1.15196
1.26763
2.0343
3.42055
8.25019
11.574
11.2254
10.9964
11.0754
11.301
11.5376
11.6829
11.7923
11.879
11.9461
1.00001
1.00003
1.00011
1.00023
1.00065
1.00132
1.00379
1.00744
1.02303
1.04101
1.14987
1.26294
2.02159
3.38151
8.15103
11.5801
11.2203
10.985
11.0656
11.2927
11.5289
11.6743
11.7851
11.8732
11.9417
1.00001
1.00003
1.0001
1.00022
1.00063
1.00129
1.00369
1.00725
1.02237
1.03995
1.14547
1.25518
1.98686
3.29917
7.92282
11.594
11.2086
10.9533
11.0334
11.2594
11.4924
11.6352
11.7453
11.8325
11.9006
1.00001
1.00003
1.0001
1.00021
1.00061
1.00124
1.00354
1.00697
1.02139
1.03834
1.13881
1.24352
1.93362
3.17401
7.56666
11.62
11.1941
10.902
10.979
11.1998
11.4283
11.5661
11.6724
11.7572
11.8257
1.00001
1.00003
1.00009
1.0002
1.00058
1.00118
1.00336
1.00669
1.02008
1.03699
1.12877
1.23012
1.86139
3.01013
7.08493
11.6494
11.1774
10.8332
10.9045
11.1159
11.3386
11.4696
11.5703
11.6514
11.7208
1.00001
1.00003
1.00009
1.00019
1.00054
1.00111
1.00315
1.00635
1.01849
1.03572
1.11595
1.21523
1.775
2.81635
6.49245
11.6579
11.1551
10.7495
10.8114
11.0067
11.2203
11.3401
11.4301
11.5035
11.5743
1.00001
1.00002
1.00008
1.00018
1.0005
1.00102
1.00289
1.00583
1.01684
1.03305
1.10374
1.19743
1.68516
2.60685
5.82007
11.5908
11.1009
10.6496
10.6995
10.8693
11.0673
11.1705
11.2426
11.2988
11.3634
1
1.00002
1.00007
1.00016
1.00045
1.00093
1.00262
1.00529
1.01525
1.03005
1.09321
1.17931
1.60991
2.42835
5.30536
11.279
10.9528
10.5402
10.5709
10.6987
10.872
10.9499
10.9907
11.0116
11.051
1
1.00002
1.00007
1.00014
1.0004
1.00083
1.00234
1.00473
1.01364
1.02684
1.08387
1.15775
1.5477
2.26396
4.86235
10.653
10.6542
10.4604
10.4334
10.4985
10.6304
10.6697
10.6594
10.6063
10.5509
1
1.00002
1.00005
1.00012
1.00034
1.00069
1.00196
1.00382
1.01192
1.02086
1.07628
1.12888
1.4928
2.09634
4.41186
9.81735
10.4867
10.3643
10.262
10.2869
10.3446
10.3277
10.2393
10.0236
9.67854
1.00001
1.00003
1.00011
1.00023
1.00066
1.00134
1.00385
1.00756
1.02335
1.04171
1.15195
1.26763
2.03429
3.42053
8.25015
11.574
11.2254
10.9964
11.0754
11.301
11.5376
11.6829
11.7923
11.879
11.9461
1.00001
1.00003
1.00011
1.00023
1.00065
1.00132
1.00379
1.00744
1.02303
1.04101
1.14986
1.26293
2.02159
3.38149
8.151
11.5801
11.2203
10.985
11.0656
11.2927
11.5289
11.6743
11.7851
11.8732
11.9417
1.00001
1.00003
1.0001
1.00022
1.00063
1.00129
1.00369
1.00725
1.02237
1.03995
1.14547
1.25517
1.98685
3.29915
7.92278
11.594
11.2086
10.9533
11.0334
11.2594
11.4924
11.6352
11.7453
11.8325
11.9006
1.00001
1.00003
1.0001
1.00021
1.00061
1.00124
1.00354
1.00697
1.02139
1.03834
1.13881
1.24352
1.93362
3.174
7.56662
11.62
11.1941
10.902
10.979
11.1998
11.4283
11.5661
11.6724
11.7572
11.8256
1.00001
1.00003
1.00009
1.0002
1.00058
1.00118
1.00336
1.00669
1.02008
1.03699
1.12876
1.23012
1.86138
3.01012
7.08488
11.6494
11.1774
10.8332
10.9045
11.1159
11.3386
11.4696
11.5703
11.6514
11.7208
1.00001
1.00003
1.00009
1.00019
1.00054
1.00111
1.00315
1.00635
1.01849
1.03572
1.11595
1.21523
1.775
2.81634
6.49241
11.6579
11.1551
10.7495
10.8114
11.0067
11.2203
11.3401
11.4301
11.5035
11.5743
1.00001
1.00002
1.00008
1.00018
1.0005
1.00102
1.00289
1.00583
1.01684
1.03305
1.10374
1.19743
1.68516
2.60683
5.82003
11.5908
11.1009
10.6496
10.6995
10.8693
11.0673
11.1705
11.2426
11.2988
11.3634
1
1.00002
1.00007
1.00016
1.00045
1.00093
1.00262
1.00529
1.01525
1.03005
1.09321
1.17931
1.60991
2.42835
5.30534
11.279
10.9528
10.5402
10.5709
10.6987
10.872
10.9499
10.9907
11.0116
11.051
1
1.00002
1.00007
1.00014
1.0004
1.00083
1.00234
1.00473
1.01364
1.02684
1.08387
1.15775
1.5477
2.26395
4.86233
10.6529
10.6542
10.4604
10.4334
10.4985
10.6304
10.6697
10.6594
10.6063
10.5509
1
1.00002
1.00005
1.00012
1.00034
1.00069
1.00196
1.00382
1.01192
1.02086
1.07628
1.12888
1.4928
2.09633
4.41185
9.81732
10.4867
10.3643
10.262
10.2869
10.3446
10.3277
10.2393
10.0236
9.67854
1.00001
1.00003
1.0001
1.00023
1.00065
1.00134
1.00384
1.00755
1.02334
1.04169
1.15193
1.26756
2.03421
3.42021
8.24949
11.5741
11.2254
10.9963
11.0753
11.3009
11.5375
11.6829
11.7922
11.8789
11.946
1.00001
1.00003
1.0001
1.00022
1.00064
1.00132
1.00378
1.00743
1.02302
1.04099
1.14984
1.26287
2.0215
3.38117
8.15033
11.5802
11.2203
10.9849
11.0655
11.2926
11.5288
11.6742
11.785
11.8732
11.9417
1.00001
1.00003
1.0001
1.00022
1.00063
1.00128
1.00368
1.00724
1.02236
1.03993
1.14545
1.25512
1.98676
3.29885
7.92211
11.5942
11.2086
10.9532
11.0333
11.2593
11.4924
11.6351
11.7452
11.8325
11.9005
1.00001
1.00003
1.0001
1.00021
1.0006
1.00123
1.00353
1.00696
1.02138
1.03832
1.13879
1.24347
1.93353
3.1737
7.56595
11.6201
11.1941
10.9019
10.9789
11.1998
11.4282
11.566
11.6724
11.7571
11.8256
1.00001
1.00003
1.00009
1.0002
1.00057
1.00118
1.00335
1.00668
1.02007
1.03695
1.12876
1.23003
1.86135
3.00985
7.08426
11.6495
11.1774
10.8331
10.9044
11.1158
11.3385
11.4695
11.5703
11.6513
11.7207
1.00001
1.00002
1.00008
1.00019
1.00054
1.00111
1.00314
1.00634
1.01848
1.0357
1.11594
1.21517
1.77495
2.81609
6.49183
11.6579
11.155
10.7494
10.8113
11.0066
11.2202
11.3401
11.43
11.5034
11.5742
1
1.00002
1.00008
1.00017
1.00049
1.00101
1.00288
1.00582
1.01683
1.03304
1.10372
1.19738
1.6851
2.60662
5.81947
11.5908
11.1008
10.6495
10.6994
10.8693
11.0672
11.1705
11.2425
11.2988
11.3633
1
1.00002
1.00007
1.00015
1.00045
1.00092
1.00261
1.00528
1.01524
1.03003
1.09319
1.17927
1.60987
2.42819
5.30505
11.2788
10.9527
10.5401
10.5708
10.6986
10.8719
10.9499
10.9906
11.0115
11.0509
1
1.00002
1.00006
1.00014
1.0004
1.00082
1.00233
1.00472
1.01363
1.02682
1.08385
1.1577
1.54767
2.26381
4.86209
10.6525
10.6539
10.4603
10.4334
10.4984
10.6303
10.6696
10.6593
10.6062
10.5509
1
1.00001
1.00005
1.00011
1.00033
1.00068
1.00196
1.00381
1.01191
1.02085
1.07626
1.12884
1.49277
2.09618
4.41166
9.81685
10.4866
10.3642
10.2619
10.2868
10.3445
10.3276
10.2392
10.0236
9.67847
1
1.00002
1.00004
1.00012
1.00026
1.00073
1.00149
1.0043
1.00842
1.0263
1.0468
1.17007
1.30669
2.15142
3.74845
8.82847
10.3863
10.2776
10.0848
10.0566
10.0351
9.9458
9.69591
9.11023
7.62904
1
1.00001
1.00003
1.0001
1.00022
1.00063
1.00129
1.0037
1.00727
1.02243
1.04004
1.14528
1.25543
1.97952
3.26874
7.6549
10.3014
10.1843
9.92168
9.81397
9.7303
9.54588
9.14959
8.35348
6.83308
1
1.00001
1.00003
1.00009
1.00019
1.00055
1.00112
1.00319
1.00641
1.0188
1.0357
1.11864
1.21692
1.78745
2.82625
6.3933
10.2324
10.099
9.77358
9.57265
9.42939
9.16723
8.68187
7.86956
6.66343
1
1.00001
1.00002
1.00007
1.00016
1.00045
1.00093
1.00264
1.00533
1.01532
1.03026
1.09282
1.18081
1.59919
2.39433
5.02125
10.0286
9.95017
9.65043
9.34763
9.14072
8.83785
8.33911
7.59301
6.63033
1
1.00001
1.00002
1.00006
1.00013
1.00037
1.00075
1.00213
1.00431
1.01242
1.02441
1.07602
1.14248
1.48916
2.11417
4.33072
9.29728
9.65158
9.47854
9.13691
8.88167
8.5592
8.08741
7.42393
6.61355
1
1
1.00002
1.00004
1.00012
1.00024
1.0007
1.00141
1.00406
1.00787
1.02472
1.04341
1.15841
1.28091
2.06586
3.47264
7.91448
9.36204
9.25658
8.98258
8.66712
8.32719
7.8853
7.29507
6.59272
1
1
1.00001
1.00003
1.00009
1.0002
1.00057
1.00116
1.00329
1.00656
1.01956
1.03613
1.12425
1.22244
1.81567
2.87161
6.37249
9.17115
9.10716
8.87253
8.49855
8.13935
7.71773
7.18655
6.56651
0.999998
1
1.00001
1.00002
1.00007
1.00015
1.00044
1.00091
1.00256
1.00518
1.01491
1.02942
1.09041
1.17609
1.5804
2.3409
4.79908
8.85425
8.96536
8.78727
8.39422
7.98943
7.57785
7.09642
6.54572
0.999997
0.999998
1
1.00002
1.00004
1.00013
1.00028
1.00079
1.00161
1.00459
1.00904
1.02751
1.04974
1.1749
1.32162
2.13677
3.68322
8.02672
8.76751
8.63384
8.30004
7.8661
7.46031
7.01938
6.52455
0.999995
0.999996
0.999999
1.00001
1.00003
1.0001
1.00021
1.00059
1.00121
1.00343
1.00673
1.02066
1.03683
1.13182
1.23137
1.86291
2.94881
6.45154
8.49027
8.43608
8.21727
7.77663
7.37126
6.95826
6.50771
0.999994
0.999995
0.999998
1
1.00002
1.00006
1.00017
1.00036
1.00102
1.00201
1.00605
1.01089
1.03781
1.0629
1.23483
1.46136
2.47899
4.68115
8.09441
8.28614
8.13464
7.76436
7.31815
6.91064
6.49256
0.999993
0.999993
0.999996
1
1.00002
1.00004
1.00013
1.00027
1.00076
1.00154
1.00437
1.00867
1.02593
1.04765
1.16361
1.29996
2.04891
3.41526
7.20174
8.10778
8.01013
7.73619
7.29636
6.88073
6.48327
0.999992
0.999993
0.999994
0.999998
1.00001
1.00003
1.00007
1.00021
1.00044
1.00125
1.00244
1.00749
1.01312
1.04711
1.07718
1.29278
1.57781
2.85159
5.56589
7.82525
7.822
7.67167
7.31012
6.87825
6.4824
0.999992
0.999992
0.999993
0.999996
1
1.00002
1.00005
1.00015
1.00032
1.00091
1.00186
1.00522
1.01047
1.03035
1.05902
1.18321
1.37749
2.15292
3.70844
7.27356
7.71943
7.60884
7.31969
6.88796
6.48673
0.999991
0.999992
0.999992
0.999994
0.999999
1.00001
1.00004
1.00009
1.00026
1.00053
1.00149
1.00301
1.00858
1.01669
1.05184
1.09388
1.32162
1.67519
3.01021
5.91855
7.49058
7.46838
7.30218
6.92576
6.50234
0.999991
0.999991
0.999992
0.999993
0.999996
1
1.00002
1.00006
1.00017
1.00036
1.00102
1.00207
1.00582
1.01147
1.03441
1.06261
1.2124
1.41378
2.30394
4.1039
7.00824
7.34913
7.2476
6.972
6.53885
0.999991
0.999991
0.999991
0.999992
0.999994
1
1.00001
1.00004
1.0001
1.00028
1.00059
1.00164
1.00331
1.00937
1.01856
1.05505
1.10741
1.33296
1.74654
3.04893
5.90142
7.13171
7.11117
6.95857
6.61431
0.999991
0.999991
0.999991
0.999992
0.999993
0.999997
1
1.00003
1.00006
1.00018
1.00039
1.00108
1.00219
1.00613
1.01212
1.03598
1.06617
1.21968
1.43456
2.33332
4.15029
6.66641
6.98671
6.90292
6.66573
0.999991
0.999991
0.999991
0.999991
0.999992
0.999994
1
1.00001
1.00004
1.0001
1.00029
1.0006
1.00168
1.00339
1.00955
1.01911
1.05506
1.11295
1.32861
1.74548
2.98634
5.63002
6.77224
6.76538
6.64886
0.999991
0.99999
0.999991
0.999991
0.999991
0.999993
0.999996
1.00001
1.00002
1.00007
1.00016
1.00045
1.00092
1.00254
1.00512
1.01444
1.02828
1.08538
1.16305
1.51596
2.14051
3.93609
6.30298
6.65566
6.5939
0.999991
0.99999
0.99999
0.999991
0.999991
0.999992
0.999994
1
1.00001
1.00004
1.0001
1.00028
1.00058
1.00161
1.00327
1.0091
1.01822
1.05196
1.10583
1.30693
1.68407
2.82761
5.24439
6.42864
6.46926
0.999991
0.99999
0.99999
0.99999
0.999991
0.999991
0.999993
0.999995
1
1.00002
1.00007
1.00015
1.00041
1.00085
1.00233
1.00471
1.01316
1.02595
1.0764
1.14956
1.45298
2.00239
3.52992
5.91951
6.36235
0.999991
0.99999
0.99999
0.99999
0.999991
0.999991
0.999992
0.999993
0.999999
1.00001
1.00004
1.00009
1.00025
1.00053
1.00145
1.00294
1.00809
1.01618
1.04588
1.09162
1.26861
1.5909
2.59238
4.75715
6.10317
0.999991
0.99999
0.99999
0.99999
0.99999
0.999991
0.999991
0.999992
0.999995
1
1.00002
1.00005
1.00015
1.00031
1.00086
1.00175
1.00478
1.00964
1.02672
1.05333
1.15411
1.31917
1.89905
3.03151
5.51529
0.999991
0.99999
0.99999
0.99999
0.99999
0.99999
0.999991
0.999991
0.999993
0.999997
1.00001
1.00003
1.00009
1.00018
1.00051
1.00105
1.00288
1.00578
1.01632
1.03094
1.09751
1.17637
1.5838
2.2401
4.17228
0.999991
0.99999
0.99999
0.99999
0.99999
0.99999
0.99999
0.999991
0.999992
0.999995
0.999999
1.00001
1.00004
1.00012
1.00026
1.00071
1.00144
1.00396
1.00788
1.02259
1.04234
1.13365
1.25238
1.77242
2.6823
0.999991
0.99999
0.99999
0.99999
0.99999
0.99999
0.99999
0.999991
0.999991
0.999992
0.999996
1
1.00002
1.00006
1.00017
1.00036
1.00098
1.00198
1.00546
1.01079
1.03133
1.05794
1.18427
1.35808
2.03667
0.999991
0.99999
0.99999
0.99999
0.99999
0.99999
0.99999
0.99999
0.999991
0.999992
0.999993
0.999998
1.00001
1.00004
1.00008
1.00024
1.00049
1.00135
1.00273
1.00754
1.01499
1.04252
1.08533
1.24353
1.53551
0.999991
0.99999
0.99999
0.99999
0.99999
0.99999
0.99999
0.99999
0.999991
0.999991
0.999992
0.999995
1
1.00002
1.00004
1.00013
1.00028
1.00077
1.00156
1.00423
1.00851
1.02347
1.0469
1.1327
1.27435
0.999991
0.99999
0.99999
0.99999
0.99999
0.99999
0.99999
0.99999
0.99999
0.999991
0.999991
0.999993
0.999997
1
1.00002
1.00006
1.00018
1.00037
1.00101
1.00205
1.00558
1.01116
1.03117
1.06157
1.17697
0.999991
0.99999
0.99999
0.99999
0.99999
0.99999
0.99999
0.99999
0.99999
0.99999
0.999991
0.999992
0.999993
0.999999
1.00001
1.00004
1.00008
1.00024
1.0005
1.00135
1.00274
1.00748
1.01504
1.0415
1.08562
0.999991
0.99999
0.99999
0.99999
0.99999
0.99999
0.99999
0.99999
0.99999
0.99999
0.999991
0.999991
0.999992
0.999994
1
1.00001
1.00005
1.00012
1.00032
1.00067
1.00181
1.00366
1.01
1.01999
1.05572
0.999991
0.99999
0.99999
0.99999
0.99999
0.99999
0.99999
0.99999
0.99999
0.99999
0.99999
0.999991
0.999991
0.999993
0.999997
1
1.00003
1.00007
1.00019
1.0004
1.0011
1.00223
1.00609
1.01223
1.03392
0.999991
0.99999
0.99999
0.99999
0.99999
0.99999
0.99999
0.99999
0.99999
0.99999
0.99999
0.999991
0.999991
0.999992
0.999994
1
1.00001
1.00005
1.00011
1.00032
1.00066
1.00187
1.00374
1.01099
1.02049
0.999991
0.99999
0.99999
0.99999
0.99999
0.99999
0.99999
0.99999
0.99999
0.99999
0.99999
0.99999
0.999991
0.999992
0.999994
0.999998
1.00001
1.00003
1.00011
1.00022
1.00065
1.00128
1.00402
1.0071
1.02568
0.999991
0.99999
0.99999
0.99999
0.99999
0.99999
0.99999
0.99999
0.99999
0.99999
0.99999
0.99999
0.999991
0.999991
0.999993
0.999998
1.00001
1.00003
1.00007
1.00023
1.00045
1.00148
1.00255
1.00953
1.0154
0.999991
0.99999
0.99999
0.99999
0.99999
0.99999
0.99999
0.99999
0.99999
0.99999
0.99999
0.99999
0.999991
0.999991
0.999993
0.999997
1.00001
1.00003
1.0001
1.0002
1.00061
1.00121
1.00373
1.00686
1.02413
0.999991
0.99999
0.99999
0.99999
0.99999
0.99999
0.99999
0.99999
0.99999
0.99999
0.99999
0.99999
0.999991
0.999991
0.999993
0.999996
1.00001
1.00003
1.00009
1.0002
1.00059
1.00118
1.00369
1.00668
1.02403
0.999991
0.99999
0.99999
0.99999
0.99999
0.99999
0.99999
0.99999
0.99999
0.99999
0.99999
0.99999
0.999991
0.999991
0.999993
0.999997
1
1.00003
1.00007
1.00023
1.00047
1.00146
1.00269
1.00945
1.01568
0.999991
0.99999
0.99999
0.99999
0.99999
0.99999
0.99999
0.99999
0.99999
0.99999
0.99999
0.99999
0.999991
0.999991
0.999993
0.999998
1.00001
1.00003
1.00008
1.00025
1.00051
1.0015
1.00296
1.00941
1.01679
1
1.00002
1.00004
1.00013
1.00026
1.00074
1.0015
1.00431
1.00843
1.02631
1.04682
1.17009
1.30675
2.15149
3.74869
8.82894
10.3863
10.2777
10.0849
10.0567
10.0352
9.94587
9.69598
9.11029
7.62911
1
1.00002
1.00004
1.00011
1.00023
1.00064
1.0013
1.00371
1.00729
1.02244
1.04006
1.1453
1.25548
1.97958
3.26898
7.6554
10.3014
10.1844
9.92176
9.81404
9.73037
9.54595
9.14965
8.35355
6.83316
1
1.00001
1.00003
1.00009
1.0002
1.00056
1.00113
1.00319
1.00642
1.01881
1.03573
1.11864
1.21698
1.78748
2.82646
6.39379
10.2325
10.0991
9.77365
9.57272
9.42946
9.16729
8.68194
7.86964
6.66352
1
1.00001
1.00003
1.00008
1.00016
1.00046
1.00094
1.00264
1.00534
1.01533
1.03027
1.09284
1.18085
1.59924
2.3945
5.02175
10.0287
9.95025
9.65048
9.34769
9.14079
8.83791
8.33918
7.59309
6.63042
1
1.00001
1.00002
1.00006
1.00013
1.00037
1.00076
1.00214
1.00432
1.01244
1.02442
1.07604
1.14253
1.48918
2.1143
4.33094
9.29759
9.65169
9.47862
9.13697
8.88173
8.55927
8.08749
7.42401
6.61364
1
1.00001
1.00002
1.00004
1.00012
1.00025
1.0007
1.00142
1.00406
1.00789
1.02473
1.04343
1.15844
1.28096
2.06592
3.4729
7.915
9.36213
9.25665
8.98262
8.66718
8.32726
7.88537
7.29515
6.59281
1
1
1.00002
1.00004
1.0001
1.00021
1.00058
1.00117
1.0033
1.00658
1.01958
1.03616
1.12425
1.22252
1.81569
2.87184
6.373
9.1712
9.1072
8.87257
8.49861
8.13942
7.7178
7.18663
6.56659
1
1
1.00001
1.00003
1.00008
1.00016
1.00045
1.00091
1.00257
1.00519
1.01493
1.02943
1.09043
1.17613
1.58046
2.34111
4.79961
8.85437
8.96538
8.78729
8.39427
7.98948
7.57792
7.0965
6.54581
1
1
1.00001
1.00002
1.00005
1.00014
1.00029
1.0008
1.00162
1.0046
1.00906
1.02752
1.04976
1.17491
1.3217
2.13684