/*--------------------------------*- C++ -*----------------------------------*\
| =========                 |                                                 |
| \\      /  F ield         | OpenFOAM: The Open Source CFD Toolbox           |
|  \\    /   O peration     | Version:  4.1                                   |
|   \\  /    A nd           | Web:      www.OpenFOAM.org                      |
|    \\/     M anipulation  |                                                 |
\*---------------------------------------------------------------------------*/
FoamFile
{
    version     2.0;
    format      ascii;
    class       volScalarField;
    location    "7.74";
    object      Ma;
}
// * * * * * * * * * * * * * * * * * * * * * * * * * * * * * * * * * * * * * //

dimensions      [0 0 0 0 0 0 0];

internalField   nonuniform List<scalar> 
52500
(
3.00001
2.99996
2.99989
2.99961
2.99921
2.99761
2.99533
2.98637
2.97225
2.92426
2.8218
2.57464
1.97492
1.08149
0.448895
0.316479
0.342057
0.345568
0.31498
0.262796
0.211087
0.168528
0.126616
0.0799781
0.0459298
3.00001
2.99996
2.99989
2.99961
2.99922
2.99763
2.99538
2.98653
2.97256
2.92507
2.82349
2.57912
1.9823
1.09152
0.455183
0.317015
0.343264
0.34734
0.317014
0.265581
0.21517
0.174184
0.134597
0.0934462
0.0694027
3.00001
2.99996
2.99989
2.99962
2.99924
2.99769
2.99549
2.98684
2.97319
2.92674
2.82706
2.58845
1.99856
1.11408
0.469941
0.319657
0.347463
0.353086
0.323767
0.274465
0.227257
0.190093
0.15593
0.123878
0.108751
3.00001
2.99996
2.9999
2.99964
2.99927
2.99778
2.99566
2.98738
2.97416
2.92954
2.83226
2.6025
2.02359
1.14971
0.492426
0.323482
0.354064
0.362388
0.334825
0.288836
0.246033
0.213899
0.185976
0.161916
0.151934
3.00002
2.99997
2.99991
2.99966
2.99931
2.99791
2.9959
2.98814
2.97543
2.9335
2.83945
2.62126
2.05794
1.1999
0.522267
0.328102
0.362578
0.37455
0.349306
0.307437
0.269817
0.243213
0.221357
0.203602
0.197369
3.00002
2.99997
2.99991
2.99968
2.99936
2.99805
2.99617
2.989
2.97696
2.93817
2.84936
2.64522
2.10181
1.26524
0.558811
0.333177
0.37267
0.389236
0.36682
0.329738
0.297743
0.27701
0.261526
0.250065
0.247457
3.00002
2.99997
2.99992
2.99971
2.99941
2.99819
2.99645
2.98977
2.97874
2.94257
2.86135
2.6705
2.16924
1.35496
0.609267
0.345457
0.388179
0.408896
0.388836
0.356675
0.330511
0.315789
0.306883
0.3024
0.305792
3.00002
2.99998
2.99993
2.99973
2.99945
2.99832
2.99673
2.99034
2.98064
2.94648
2.87717
2.7003
2.25495
1.47015
0.673306
0.368918
0.412544
0.435517
0.416631
0.388784
0.367931
0.359769
0.358577
0.363363
0.377388
3.00002
2.99998
2.99994
2.99976
2.99951
2.9985
2.99706
2.99134
2.98271
2.95171
2.8933
2.73262
2.34881
1.60841
0.748097
0.406845
0.448018
0.46985
0.451894
0.428207
0.412152
0.409536
0.417145
0.436525
0.474205
3.00002
2.99999
2.99995
2.9998
2.99957
2.99869
2.99742
2.99246
2.98477
2.95773
2.90661
2.76329
2.43045
1.72943
0.830284
0.454657
0.486435
0.502292
0.489299
0.471516
0.461577
0.465073
0.485839
0.532225
0.63395
2.99999
2.99994
2.99987
2.99959
2.99919
2.99759
2.99531
2.98635
2.97223
2.92422
2.82177
2.57457
1.97485
1.08136
0.448728
0.316297
0.34188
0.345387
0.314778
0.26255
0.210775
0.16813
0.126077
0.079108
0.0443749
2.99999
2.99994
2.99987
2.99959
2.9992
2.99761
2.99536
2.9865
2.97254
2.92503
2.82346
2.57904
1.98224
1.09139
0.455019
0.316836
0.34309
0.347162
0.316816
0.26534
0.214868
0.173803
0.134097
0.0927129
0.0683981
2.99999
2.99994
2.99988
2.9996
2.99922
2.99767
2.99547
2.98682
2.97317
2.9267
2.82703
2.58838
1.99849
1.11395
0.469781
0.31948
0.347292
0.352912
0.323575
0.274236
0.226976
0.18975
0.155505
0.123335
0.108122
3
2.99995
2.99988
2.99962
2.99925
2.99776
2.99564
2.98736
2.97414
2.92949
2.83224
2.60243
2.02354
1.14958
0.492283
0.323319
0.353905
0.362225
0.334646
0.288625
0.24578
0.213603
0.185628
0.161509
0.151492
3
2.99995
2.99989
2.99964
2.99929
2.99789
2.99588
2.98812
2.9754
2.93346
2.83941
2.62119
2.05786
1.19976
0.522119
0.327934
0.362418
0.374391
0.349135
0.307242
0.269591
0.242958
0.221072
0.203287
0.197038
3
2.99995
2.9999
2.99966
2.99934
2.99803
2.99615
2.98897
2.97693
2.93813
2.84932
2.64514
2.10172
1.26509
0.558669
0.333008
0.37251
0.389079
0.366655
0.329556
0.29754
0.276789
0.261291
0.249815
0.2472
3
2.99996
2.9999
2.99969
2.99939
2.99817
2.99643
2.98974
2.97871
2.94253
2.86131
2.67043
2.16915
1.3548
0.60913
0.34529
0.388021
0.408743
0.388677
0.356504
0.330328
0.315599
0.306687
0.3022
0.305592
3
2.99996
2.99991
2.99971
2.99943
2.9983
2.9967
2.99032
2.98061
2.94644
2.87715
2.70023
2.25489
1.47
0.67319
0.368767
0.412397
0.435374
0.416483
0.388627
0.367767
0.359603
0.358413
0.363202
0.377233
3
2.99997
2.99992
2.99974
2.99949
2.99848
2.99704
2.99132
2.98269
2.95168
2.89326
2.73256
2.34872
1.60825
0.747981
0.406695
0.447877
0.469715
0.451757
0.428066
0.412007
0.409392
0.417007
0.436396
0.474089
3
2.99997
2.99993
2.99978
2.99955
2.99867
2.99739
2.99243
2.98475
2.9577
2.90658
2.76323
2.4304
1.72929
0.830188
0.454528
0.486318
0.502177
0.489178
0.47139
0.461449
0.46495
0.485724
0.532124
0.633871
2.99999
2.99994
2.99987
2.99959
2.99919
2.99759
2.99531
2.98635
2.97223
2.92422
2.82176
2.57457
1.97485
1.08135
0.448725
0.316298
0.341881
0.345387
0.314778
0.26255
0.210775
0.16813
0.126077
0.079108
0.044375
2.99999
2.99994
2.99987
2.99959
2.9992
2.99761
2.99536
2.9865
2.97254
2.92503
2.82346
2.57904
1.98224
1.09139
0.455016
0.316837
0.34309
0.347162
0.316816
0.26534
0.214868
0.173803
0.134097
0.0927129
0.0683981
2.99999
2.99994
2.99988
2.9996
2.99922
2.99767
2.99547
2.98682
2.97317
2.9267
2.82703
2.58838
1.99849
1.11394
0.469778
0.319481
0.347293
0.352912
0.323575
0.274236
0.226976
0.189751
0.155505
0.123335
0.108122
3
2.99995
2.99988
2.99962
2.99925
2.99776
2.99564
2.98736
2.97414
2.92949
2.83224
2.60243
2.02354
1.14957
0.49228
0.323321
0.353905
0.362225
0.334646
0.288625
0.24578
0.213603
0.185628
0.161509
0.151492
3
2.99995
2.99989
2.99964
2.99929
2.99789
2.99588
2.98812
2.9754
2.93346
2.83941
2.62119
2.05786
1.19975
0.522116
0.327935
0.362419
0.374391
0.349135
0.307242
0.269591
0.242958
0.221072
0.203287
0.197038
3
2.99995
2.9999
2.99966
2.99934
2.99803
2.99615
2.98897
2.97693
2.93813
2.84932
2.64514
2.10172
1.26508
0.558666
0.33301
0.372511
0.389079
0.366655
0.329556
0.29754
0.27679
0.261291
0.249815
0.2472
3
2.99996
2.9999
2.99969
2.99939
2.99817
2.99643
2.98974
2.97871
2.94253
2.86131
2.67042
2.16914
1.35479
0.609126
0.345291
0.388021
0.408743
0.388677
0.356504
0.330328
0.315599
0.306687
0.3022
0.305592
3
2.99996
2.99991
2.99971
2.99943
2.9983
2.9967
2.99032
2.98061
2.94644
2.87715
2.70023
2.25488
1.46999
0.673186
0.368767
0.412396
0.435373
0.416482
0.388627
0.367767
0.359603
0.358413
0.363202
0.377233
3
2.99997
2.99992
2.99974
2.99949
2.99848
2.99704
2.99132
2.98269
2.95168
2.89326
2.73256
2.34872
1.60824
0.747976
0.406694
0.447875
0.469714
0.451756
0.428065
0.412006
0.409392
0.417007
0.436396
0.474089
3
2.99997
2.99993
2.99978
2.99955
2.99867
2.99739
2.99243
2.98475
2.9577
2.90658
2.76323
2.43039
1.72928
0.830185
0.454527
0.486317
0.502176
0.489177
0.471389
0.461449
0.464949
0.485723
0.532124
0.633871
2.99999
2.99994
2.99987
2.99959
2.99919
2.99759
2.99531
2.98635
2.97223
2.92422
2.82176
2.57457
1.97485
1.08135
0.448725
0.316298
0.341881
0.345387
0.314778
0.26255
0.210775
0.16813
0.126077
0.079108
0.044375
2.99999
2.99994
2.99987
2.99959
2.9992
2.99761
2.99536
2.9865
2.97254
2.92503
2.82346
2.57904
1.98223
1.09139
0.455016
0.316838
0.343091
0.347162
0.316816
0.26534
0.214868
0.173803
0.134097
0.0927129
0.0683981
2.99999
2.99994
2.99988
2.9996
2.99922
2.99767
2.99547
2.98682
2.97317
2.9267
2.82703
2.58838
1.99849
1.11394
0.469778
0.319481
0.347293
0.352912
0.323575
0.274236
0.226976
0.189751
0.155505
0.123335
0.108122
3
2.99995
2.99988
2.99962
2.99925
2.99776
2.99564
2.98736
2.97414
2.92949
2.83224
2.60243
2.02354
1.14957
0.492279
0.323321
0.353905
0.362225
0.334646
0.288625
0.24578
0.213603
0.185628
0.161509
0.151492
3
2.99995
2.99989
2.99964
2.99929
2.99789
2.99588
2.98812
2.9754
2.93346
2.83941
2.62119
2.05786
1.19975
0.522115
0.327935
0.362419
0.374391
0.349135
0.307242
0.269591
0.242958
0.221072
0.203287
0.197038
3
2.99995
2.9999
2.99966
2.99934
2.99803
2.99615
2.98897
2.97693
2.93813
2.84932
2.64514
2.10172
1.26508
0.558666
0.33301
0.372511
0.389079
0.366655
0.329556
0.29754
0.27679
0.261291
0.249815
0.2472
3
2.99996
2.9999
2.99969
2.99939
2.99817
2.99643
2.98974
2.97871
2.94253
2.86131
2.67042
2.16914
1.35479
0.609126
0.345291
0.388021
0.408743
0.388677
0.356504
0.330328
0.315599
0.306687
0.3022
0.305592
3
2.99996
2.99991
2.99971
2.99943
2.9983
2.9967
2.99032
2.98061
2.94644
2.87715
2.70023
2.25488
1.46999
0.673185
0.368767
0.412396
0.435373
0.416482
0.388627
0.367767
0.359603
0.358413
0.363202
0.377233
3
2.99997
2.99992
2.99974
2.99949
2.99848
2.99704
2.99132
2.98269
2.95168
2.89326
2.73256
2.34872
1.60824
0.747976
0.406694
0.447875
0.469714
0.451756
0.428065
0.412006
0.409392
0.417007
0.436396
0.474089
3
2.99997
2.99993
2.99978
2.99955
2.99867
2.99739
2.99243
2.98475
2.9577
2.90658
2.76323
2.43039
1.72928
0.830185
0.454527
0.486317
0.502176
0.489177
0.471389
0.461448
0.464949
0.485723
0.532124
0.633871
2.99999
2.99994
2.99987
2.99959
2.99919
2.99759
2.99531
2.98635
2.97223
2.92422
2.82176
2.57457
1.97485
1.08135
0.448724
0.316298
0.341881
0.345387
0.314778
0.26255
0.210775
0.16813
0.126077
0.079108
0.044375
2.99999
2.99994
2.99987
2.99959
2.9992
2.99761
2.99536
2.9865
2.97254
2.92503
2.82346
2.57904
1.98223
1.09138
0.455016
0.316838
0.343091
0.347162
0.316816
0.26534
0.214868
0.173803
0.134097
0.0927129
0.0683981
2.99999
2.99994
2.99988
2.9996
2.99922
2.99767
2.99547
2.98682
2.97317
2.9267
2.82703
2.58838
1.99849
1.11394
0.469777
0.319482
0.347293
0.352912
0.323575
0.274236
0.226976
0.189751
0.155505
0.123335
0.108122
3
2.99995
2.99988
2.99962
2.99925
2.99776
2.99564
2.98736
2.97414
2.92949
2.83224
2.60243
2.02353
1.14957
0.492279
0.323321
0.353905
0.362225
0.334646
0.288625
0.24578
0.213603
0.185628
0.161509
0.151492
3
2.99995
2.99989
2.99964
2.99929
2.99789
2.99588
2.98812
2.9754
2.93346
2.83941
2.62119
2.05785
1.19975
0.522115
0.327936
0.362419
0.374391
0.349135
0.307242
0.269591
0.242958
0.221072
0.203287
0.197038
3
2.99995
2.9999
2.99966
2.99934
2.99803
2.99615
2.98897
2.97693
2.93813
2.84932
2.64514
2.10172
1.26508
0.558665
0.33301
0.372511
0.389079
0.366655
0.329556
0.29754
0.27679
0.261291
0.249815
0.2472
3
2.99996
2.9999
2.99969
2.99939
2.99817
2.99643
2.98974
2.97871
2.94253
2.86131
2.67042
2.16914
1.35478
0.609125
0.345291
0.388021
0.408743
0.388677
0.356504
0.330328
0.315599
0.306687
0.3022
0.305592
3
2.99996
2.99991
2.99971
2.99943
2.9983
2.9967
2.99032
2.98061
2.94644
2.87715
2.70023
2.25488
1.46999
0.673184
0.368767
0.412396
0.435373
0.416482
0.388627
0.367767
0.359603
0.358413
0.363202
0.377233
3
2.99997
2.99992
2.99974
2.99949
2.99848
2.99704
2.99132
2.98269
2.95168
2.89326
2.73256
2.34871
1.60823
0.747975
0.406693
0.447875
0.469713
0.451756
0.428064
0.412006
0.409392
0.417007
0.436396
0.474089
3
2.99997
2.99993
2.99978
2.99955
2.99867
2.99739
2.99243
2.98475
2.9577
2.90658
2.76323
2.43039
1.72928
0.830184
0.454527
0.486317
0.502175
0.489176
0.471389
0.461448
0.464949
0.485723
0.532124
0.633871
2.99999
2.99994
2.99987
2.99959
2.99919
2.99759
2.99531
2.98635
2.97223
2.92422
2.82176
2.57457
1.97485
1.08135
0.448724
0.316298
0.341881
0.345387
0.314778
0.26255
0.210775
0.16813
0.126077
0.079108
0.044375
2.99999
2.99994
2.99987
2.99959
2.9992
2.99761
2.99536
2.9865
2.97254
2.92503
2.82346
2.57904
1.98223
1.09138
0.455015
0.316838
0.343091
0.347162
0.316816
0.26534
0.214868
0.173803
0.134097
0.0927129
0.0683981
2.99999
2.99994
2.99988
2.9996
2.99922
2.99767
2.99547
2.98682
2.97317
2.9267
2.82703
2.58838
1.99849
1.11394
0.469777
0.319482
0.347293
0.352912
0.323575
0.274236
0.226976
0.189751
0.155505
0.123335
0.108122
3
2.99995
2.99988
2.99962
2.99925
2.99776
2.99564
2.98736
2.97414
2.92949
2.83224
2.60243
2.02353
1.14957
0.492279
0.323321
0.353905
0.362225
0.334646
0.288625
0.24578
0.213603
0.185628
0.161509
0.151492
3
2.99995
2.99989
2.99964
2.99929
2.99789
2.99588
2.98812
2.9754
2.93346
2.83941
2.62119
2.05785
1.19975
0.522115
0.327936
0.362419
0.374391
0.349135
0.307242
0.269591
0.242958
0.221072
0.203287
0.197038
3
2.99995
2.9999
2.99966
2.99934
2.99803
2.99615
2.98897
2.97693
2.93813
2.84932
2.64514
2.10172
1.26508
0.558665
0.33301
0.372511
0.389079
0.366655
0.329556
0.29754
0.27679
0.261291
0.249815
0.2472
3
2.99996
2.9999
2.99969
2.99939
2.99817
2.99643
2.98974
2.97871
2.94253
2.86131
2.67042
2.16914
1.35478
0.609125
0.345291
0.388021
0.408743
0.388677
0.356504
0.330328
0.315599
0.306687
0.3022
0.305592
3
2.99996
2.99991
2.99971
2.99943
2.9983
2.9967
2.99032
2.98061
2.94644
2.87715
2.70023
2.25488
1.46999
0.673184
0.368767
0.412396
0.435373
0.416482
0.388627
0.367767
0.359603
0.358413
0.363202
0.377233
3
2.99997
2.99992
2.99974
2.99949
2.99848
2.99704
2.99132
2.98269
2.95168
2.89326
2.73256
2.34871
1.60823
0.747975
0.406693
0.447875
0.469713
0.451755
0.428064
0.412006
0.409392
0.417007
0.436396
0.474089
3
2.99997
2.99993
2.99978
2.99955
2.99867
2.99739
2.99243
2.98475
2.9577
2.90658
2.76323
2.43039
1.72928
0.830184
0.454527
0.486317
0.502175
0.489176
0.471389
0.461448
0.464949
0.485723
0.532124
0.633871
2.99999
2.99994
2.99987
2.99959
2.99919
2.99759
2.99531
2.98635
2.97223
2.92422
2.82176
2.57457
1.97485
1.08135
0.448725
0.316298
0.341881
0.345387
0.314778
0.26255
0.210775
0.16813
0.126077
0.079108
0.044375
2.99999
2.99994
2.99987
2.99959
2.9992
2.99761
2.99536
2.9865
2.97254
2.92503
2.82346
2.57904
1.98223
1.09139
0.455016
0.316838
0.343091
0.347162
0.316816
0.26534
0.214868
0.173803
0.134097
0.0927129
0.0683981
2.99999
2.99994
2.99988
2.9996
2.99922
2.99767
2.99547
2.98682
2.97317
2.9267
2.82703
2.58838
1.99849
1.11394
0.469777
0.319481
0.347293
0.352912
0.323575
0.274236
0.226976
0.189751
0.155505
0.123335
0.108122
3
2.99995
2.99988
2.99962
2.99925
2.99776
2.99564
2.98736
2.97414
2.92949
2.83224
2.60243
2.02353
1.14957
0.492279
0.323321
0.353905
0.362225
0.334646
0.288625
0.24578
0.213603
0.185628
0.161509
0.151492
3
2.99995
2.99989
2.99964
2.99929
2.99789
2.99588
2.98812
2.9754
2.93346
2.83941
2.62119
2.05786
1.19975
0.522115
0.327936
0.362419
0.374391
0.349135
0.307242
0.269591
0.242958
0.221072
0.203287
0.197038
3
2.99995
2.9999
2.99966
2.99934
2.99803
2.99615
2.98897
2.97693
2.93813
2.84932
2.64514
2.10172
1.26508
0.558665
0.33301
0.372511
0.389079
0.366655
0.329556
0.29754
0.27679
0.261291
0.249815
0.2472
3
2.99996
2.9999
2.99969
2.99939
2.99817
2.99643
2.98974
2.97871
2.94253
2.86131
2.67042
2.16914
1.35478
0.609125
0.345291
0.388021
0.408743
0.388677
0.356504
0.330328
0.315599
0.306687
0.3022
0.305592
3
2.99996
2.99991
2.99971
2.99943
2.9983
2.9967
2.99032
2.98061
2.94644
2.87715
2.70023
2.25488
1.46999
0.673185
0.368767
0.412396
0.435373
0.416482
0.388627
0.367767
0.359603
0.358413
0.363202
0.377233
3
2.99997
2.99992
2.99974
2.99949
2.99848
2.99704
2.99132
2.98269
2.95168
2.89326
2.73256
2.34872
1.60824
0.747975
0.406693
0.447875
0.469713
0.451756
0.428064
0.412006
0.409392
0.417007
0.436396
0.474089
3
2.99997
2.99993
2.99978
2.99955
2.99867
2.99739
2.99243
2.98475
2.9577
2.90658
2.76323
2.43039
1.72928
0.830184
0.454527
0.486317
0.502176
0.489176
0.471389
0.461448
0.464949
0.485723
0.532124
0.633871
2.99999
2.99994
2.99987
2.99959
2.99919
2.99759
2.99531
2.98635
2.97223
2.92422
2.82176
2.57457
1.97485
1.08135
0.448725
0.316298
0.341881
0.345387
0.314778
0.26255
0.210775
0.16813
0.126077
0.079108
0.044375
2.99999
2.99994
2.99987
2.99959
2.9992
2.99761
2.99536
2.9865
2.97254
2.92503
2.82346
2.57904
1.98223
1.09139
0.455016
0.316837
0.34309
0.347162
0.316816
0.26534
0.214868
0.173803
0.134097
0.0927129
0.0683981
2.99999
2.99994
2.99988
2.9996
2.99922
2.99767
2.99547
2.98682
2.97317
2.9267
2.82703
2.58838
1.99849
1.11394
0.469778
0.319481
0.347293
0.352912
0.323575
0.274236
0.226976
0.189751
0.155505
0.123335
0.108122
3
2.99995
2.99988
2.99962
2.99925
2.99776
2.99564
2.98736
2.97414
2.92949
2.83224
2.60243
2.02354
1.14957
0.49228
0.323321
0.353905
0.362225
0.334646
0.288625
0.24578
0.213603
0.185628
0.161509
0.151492
3
2.99995
2.99989
2.99964
2.99929
2.99789
2.99588
2.98812
2.9754
2.93346
2.83941
2.62119
2.05786
1.19975
0.522116
0.327935
0.362419
0.374391
0.349135
0.307242
0.269591
0.242958
0.221072
0.203287
0.197038
3
2.99995
2.9999
2.99966
2.99934
2.99803
2.99615
2.98897
2.97693
2.93813
2.84932
2.64514
2.10172
1.26508
0.558666
0.33301
0.372511
0.389079
0.366655
0.329556
0.29754
0.27679
0.261291
0.249815
0.2472
3
2.99996
2.9999
2.99969
2.99939
2.99817
2.99643
2.98974
2.97871
2.94253
2.86131
2.67042
2.16914
1.35479
0.609126
0.345291
0.388021
0.408743
0.388677
0.356504
0.330328
0.315599
0.306687
0.3022
0.305592
3
2.99996
2.99991
2.99971
2.99943
2.9983
2.9967
2.99032
2.98061
2.94644
2.87715
2.70023
2.25488
1.46999
0.673186
0.368767
0.412396
0.435373
0.416482
0.388627
0.367767
0.359603
0.358413
0.363202
0.377233
3
2.99997
2.99992
2.99974
2.99949
2.99848
2.99704
2.99132
2.98269
2.95168
2.89326
2.73256
2.34872
1.60824
0.747976
0.406694
0.447875
0.469714
0.451756
0.428065
0.412006
0.409392
0.417007
0.436396
0.474089
3
2.99997
2.99993
2.99978
2.99955
2.99867
2.99739
2.99243
2.98475
2.9577
2.90658
2.76323
2.43039
1.72928
0.830185
0.454527
0.486317
0.502176
0.489177
0.471389
0.461449
0.464949
0.485723
0.532124
0.633871
2.99999
2.99994
2.99987
2.99959
2.99919
2.99759
2.99531
2.98635
2.97223
2.92422
2.82177
2.57457
1.97485
1.08136
0.448728
0.316297
0.34188
0.345387
0.314778
0.26255
0.210775
0.16813
0.126077
0.079108
0.0443749
2.99999
2.99994
2.99987
2.99959
2.9992
2.99761
2.99536
2.9865
2.97254
2.92503
2.82346
2.57904
1.98224
1.09139
0.455019
0.316836
0.34309
0.347162
0.316816
0.26534
0.214868
0.173803
0.134097
0.0927129
0.0683981
2.99999
2.99994
2.99988
2.9996
2.99922
2.99767
2.99547
2.98682
2.97317
2.9267
2.82703
2.58838
1.99849
1.11395
0.469781
0.31948
0.347292
0.352912
0.323575
0.274236
0.226976
0.18975
0.155505
0.123335
0.108122
3
2.99995
2.99988
2.99962
2.99925
2.99776
2.99564
2.98736
2.97414
2.92949
2.83224
2.60243
2.02354
1.14958
0.492283
0.323319
0.353905
0.362225
0.334646
0.288625
0.24578
0.213603
0.185628
0.161509
0.151492
3
2.99995
2.99989
2.99964
2.99929
2.99789
2.99588
2.98812
2.9754
2.93346
2.83941
2.62119
2.05786
1.19976
0.522119
0.327934
0.362418
0.374391
0.349135
0.307242
0.269591
0.242958
0.221072
0.203287
0.197038
3
2.99995
2.9999
2.99966
2.99934
2.99803
2.99615
2.98897
2.97693
2.93813
2.84932
2.64514
2.10172
1.26509
0.558669
0.333008
0.37251
0.389079
0.366655
0.329556
0.29754
0.276789
0.261291
0.249815
0.2472
3
2.99996
2.9999
2.99969
2.99939
2.99817
2.99643
2.98974
2.97871
2.94253
2.86131
2.67043
2.16915
1.3548
0.60913
0.34529
0.388021
0.408743
0.388677
0.356504
0.330328
0.315599
0.306687
0.3022
0.305592
3
2.99996
2.99991
2.99971
2.99943
2.9983
2.9967
2.99032
2.98061
2.94644
2.87715
2.70023
2.25489
1.47
0.67319
0.368767
0.412397
0.435374
0.416483
0.388627
0.367767
0.359603
0.358413
0.363202
0.377233
3
2.99997
2.99992
2.99974
2.99949
2.99848
2.99704
2.99132
2.98269
2.95168
2.89326
2.73256
2.34872
1.60825
0.747981
0.406695
0.447877
0.469715
0.451757
0.428066
0.412007
0.409392
0.417007
0.436396
0.474089
3
2.99997
2.99993
2.99978
2.99955
2.99867
2.99739
2.99243
2.98475
2.9577
2.90658
2.76323
2.4304
1.72929
0.830188
0.454528
0.486318
0.502177
0.489178
0.47139
0.461449
0.46495
0.485724
0.532124
0.633871
3.00001
2.99996
2.99989
2.99961
2.99921
2.99761
2.99533
2.98637
2.97225
2.92426
2.8218
2.57464
1.97492
1.08149
0.448896
0.316479
0.342057
0.345568
0.31498
0.262796
0.211087
0.168528
0.126616
0.0799781
0.0459298
3.00001
2.99996
2.99989
2.99961
2.99922
2.99763
2.99538
2.98653
2.97256
2.92507
2.82349
2.57912
1.98231
1.09152
0.455183
0.317015
0.343264
0.34734
0.317014
0.265581
0.21517
0.174184
0.134597
0.0934462
0.0694027
3.00001
2.99996
2.99989
2.99962
2.99924
2.99769
2.99549
2.98684
2.97319
2.92674
2.82706
2.58845
1.99856
1.11408
0.469941
0.319657
0.347463
0.353086
0.323767
0.274465
0.227257
0.190093
0.15593
0.123878
0.108751
3.00001
2.99996
2.9999
2.99964
2.99927
2.99778
2.99566
2.98738
2.97416
2.92954
2.83226
2.6025
2.02359
1.14971
0.492426
0.323482
0.354064
0.362388
0.334825
0.288836
0.246033
0.213899
0.185976
0.161916
0.151934
3.00002
2.99997
2.99991
2.99966
2.99931
2.99791
2.9959
2.98814
2.97543
2.9335
2.83945
2.62126
2.05794
1.1999
0.522267
0.328102
0.362578
0.37455
0.349306
0.307437
0.269817
0.243213
0.221357
0.203603
0.197369
3.00002
2.99997
2.99991
2.99968
2.99936
2.99805
2.99617
2.989
2.97696
2.93817
2.84936
2.64522
2.10181
1.26524
0.558811
0.333176
0.37267
0.389236
0.36682
0.329738
0.297743
0.27701
0.261526
0.250065
0.247457
3.00002
2.99997
2.99992
2.99971
2.99941
2.99819
2.99645
2.98977
2.97874
2.94257
2.86135
2.6705
2.16924
1.35496
0.609267
0.345457
0.388179
0.408896
0.388836
0.356675
0.33051
0.315789
0.306883
0.3024
0.305792
3.00002
2.99998
2.99993
2.99973
2.99945
2.99832
2.99673
2.99034
2.98064
2.94648
2.87717
2.7003
2.25495
1.47015
0.673307
0.368918
0.412544
0.435517
0.416631
0.388784
0.367931
0.359769
0.358577
0.363363
0.377388
3.00002
2.99998
2.99994
2.99976
2.99951
2.9985
2.99706
2.99134
2.98271
2.95171
2.8933
2.73262
2.34881
1.60841
0.748097
0.406845
0.448018
0.46985
0.451895
0.428207
0.412152
0.409536
0.417145
0.436525
0.474205
3.00002
2.99999
2.99995
2.9998
2.99957
2.99869
2.99742
2.99246
2.98477
2.95773
2.90661
2.76329
2.43045
1.72943
0.830284
0.454657
0.486435
0.502292
0.489299
0.471516
0.461577
0.465073
0.485839
0.532225
0.63395
3.00002
3
2.99994
2.99986
2.99955
2.99909
2.9973
2.99461
2.9848
2.96762
2.91446
2.79109
2.51212
1.86388
0.965837
0.525389
0.521998
0.530591
0.52827
0.516564
0.512992
0.525159
0.563786
0.646869
0.813911
3.00002
3
2.99995
2.99988
2.9996
2.9992
2.99758
2.99528
2.98619
2.97206
2.92365
2.82225
2.5732
1.98436
1.11031
0.606973
0.54433
0.556113
0.563266
0.560499
0.564144
0.585939
0.638333
0.735965
0.900673
3.00002
3.00001
2.99996
2.99991
2.99967
2.99933
2.99797
2.99602
2.98856
2.97628
2.9361
2.84594
2.63725
2.09565
1.26741
0.692822
0.561703
0.577403
0.594428
0.601586
0.612764
0.641844
0.699468
0.791849
0.925909
3.00002
3.00001
2.99997
2.99993
2.99972
2.99944
2.9983
2.99667
2.99042
2.98016
2.9465
2.87156
2.69462
2.23031
1.4586
0.791002
0.585484
0.602196
0.622938
0.639666
0.657968
0.690667
0.746022
0.826799
0.937647
3.00002
3.00001
2.99998
2.99994
2.99978
2.99954
2.99859
2.99721
2.99185
2.98359
2.95443
2.89936
2.74571
2.39185
1.66693
0.916152
0.635548
0.640317
0.656725
0.676188
0.69832
0.732638
0.785367
0.854473
0.947151
3.00002
3.00001
3
2.99994
2.99986
2.99955
2.9991
2.99734
2.99469
2.98507
2.96822
2.91645
2.79662
2.5264
1.90867
1.06726
0.702664
0.685444
0.697593
0.715287
0.73583
0.767934
0.818197
0.881033
0.957918
3.00002
3.00001
3
2.99996
2.99989
2.99963
2.99927
2.99779
2.9957
2.98744
2.97467
2.93074
2.83887
2.61637
2.07105
1.24899
0.789455
0.716746
0.729813
0.74804
0.771109
0.800481
0.844102
0.90338
0.971478
3.00002
3.00002
3.00001
2.99998
2.99993
2.99973
2.99945
2.99834
2.9967
2.99067
2.9802
2.94744
2.87189
2.69726
2.23613
1.4745
0.900684
0.747106
0.754947
0.774166
0.801993
0.83233
0.869505
0.920596
0.983327
3.00002
3.00002
3.00001
3
2.99993
2.99985
2.9995
2.99899
2.99713
2.99394
2.98387
2.96182
2.90594
2.75676
2.45868
1.75149
1.06638
0.803431
0.790502
0.804004
0.829722
0.861518
0.897432
0.939607
0.993965
3.00002
3.00002
3.00001
3
2.99995
2.99989
2.99961
2.99922
2.99765
2.99537
2.98676
2.97245
2.92639
2.82309
2.58785
2.01807
1.22663
0.872149
0.829126
0.83938
0.860233
0.88893
0.922837
0.961278
1.0066
3.00003
3.00002
3.00002
3.00001
2.99998
2.9999
2.99978
2.99932
2.99862
2.99614
2.99166
2.97815
2.94681
2.87142
2.66312
2.26559
1.43421
0.979708
0.863139
0.867751
0.887256
0.914919
0.945482
0.981555
1.02163
3.00003
3.00003
3.00002
3.00001
2.99999
2.99993
2.99984
2.99947
2.99895
2.99688
2.99382
2.98275
2.96283
2.90406
2.76091
2.46325
1.77705
1.14366
0.919438
0.903298
0.915443
0.939495
0.96863
1.00071
1.037
3.00003
3.00003
3.00002
3.00002
3
2.99997
2.99986
2.99969
2.99905
2.99811
2.99453
2.98891
2.96948
2.93341
2.83042
2.60212
2.06884
1.32047
0.993025
0.937411
0.944675
0.964053
0.991346
1.02096
1.05364
3.00003
3.00003
3.00002
3.00002
3.00001
2.99999
2.9999
2.99979
2.99932
2.99866
2.99609
2.9922
2.97847
2.95313
2.88073
2.7034
2.33704
1.58521
1.12101
0.979719
0.97483
0.986338
1.00989
1.03915
1.06923
3.00003
3.00003
3.00003
3.00002
3.00002
2.99999
2.99996
2.99982
2.99962
2.99885
2.99771
2.99347
2.9867
2.96393
2.92092
2.80019
2.54148
1.94227
1.28743
1.0425
1.00957
1.01519
1.03288
1.05865
1.08615
3.00003
3.00003
3.00003
3.00002
3.00002
3
2.99998
2.99988
2.99974
2.9992
2.99841
2.99538
2.99084
2.97455
2.94546
2.86239
2.66653
2.24483
1.49807
1.12963
1.04442
1.04256
1.05516
1.07652
1.10196
3.00003
3.00003
3.00003
3.00003
3.00002
3.00001
2.99999
2.99995
2.99979
2.99956
2.99868
2.99737
2.99251
2.98477
2.95888
2.90854
2.77462
2.46672
1.8332
1.27336
1.0918
1.07255
1.08025
1.09793
1.11997
3.00003
3.00003
3.00003
3.00003
3.00002
3.00002
3
2.99997
2.99986
2.99971
2.9991
2.99821
2.99483
2.98971
2.97148
2.93963
2.84406
2.6468
2.15926
1.48526
1.17174
1.10533
1.10356
1.11488
1.13205
3.00003
3.00003
3.00003
3.00003
3.00003
3.00002
3.00001
2.99998
2.99994
2.99977
2.99952
2.99858
2.99716
2.99196
2.9836
2.95603
2.90079
2.75941
2.42788
1.77614
1.30458
1.15202
1.13083
1.13412
1.14316
3.00003
3.00003
3.00003
3.00003
3.00003
3.00002
3.00002
3
2.99996
2.99989
2.99963
2.99924
2.99779
2.99562
2.98782
2.97462
2.9338
2.84359
2.64139
2.15778
1.49991
1.22133
1.16183
1.15291
1.15052
3.00003
3.00003
3.00003
3.00003
3.00003
3.00003
3.00002
3.00001
2.99998
2.99994
2.99976
2.9995
2.99852
2.9971
2.99167
2.98339
2.95473
2.90108
2.75801
2.42715
1.78945
1.34215
1.1933
1.16523
1.14758
3.00003
3.00003
3.00003
3.00003
3.00003
3.00003
3.00002
3.00002
3
2.99996
2.99989
2.99963
2.99924
2.99779
2.99562
2.98778
2.97479
2.9341
2.84705
2.64354
2.17814
1.53392
1.25399
1.17474
1.12834
3.00003
3.00003
3.00003
3.00003
3.00003
3.00003
3.00003
3.00002
3.00001
2.99998
2.99994
2.99976
2.99951
2.99853
2.99714
2.99176
2.98371
2.95552
2.90357
2.7652
2.44347
1.83473
1.35813
1.16948
1.07149
3.00003
3.00003
3.00003
3.00003
3.00003
3.00003
3.00003
3.00002
3.00002
3
2.99997
2.99985
2.99969
2.99904
2.99813
2.99459
2.98933
2.97042
2.93796
2.84076
2.63978
2.16083
1.50263
1.15692
0.970166
3.00003
3.00003
3.00003
3.00003
3.00003
3.00003
3.00003
3.00003
3.00002
3.00001
2.99999
2.99991
2.9998
2.99937
2.99874
2.99635
2.99275
2.97997
2.95734
2.89088
2.74093
2.40515
1.76283
1.12641
0.839545
3.00003
3.00003
3.00003
3.00003
3.00003
3.00003
3.00003
3.00003
3.00002
3.00002
2.99999
2.99996
2.99982
2.99962
2.99884
2.99767
2.99331
2.98617
2.96261
2.91333
2.78779
2.47557
1.85418
1.03001
0.67472
3.00003
3.00003
3.00003
3.00003
3.00003
3.00003
3.00003
3.00003
3.00003
3.00002
3.00001
2.99996
2.99989
2.99963
2.99923
2.99772
2.99529
2.9869
2.9704
2.9224
2.80436
2.54009
1.90651
1.03438
0.536063
3.00003
3.00003
3.00003
3.00003
3.00003
3.00003
3.00003
3.00003
3.00002
3.00002
3
2.99998
2.99988
2.99974
2.99915
2.99828
2.99502
2.98913
2.97066
2.92694
2.82238
2.52674
1.96511
0.986103
0.450129
3.00003
3.00003
3.00003
3.00003
3.00003
3.00003
3.00003
3.00003
3.00003
3.00002
3.00001
2.99999
2.9999
2.99977
2.99925
2.99844
2.99549
2.98985
2.97254
2.93088
2.83071
2.54423
1.99237
0.99496
0.426841
3.00003
3.00003
3.00003
3.00003
3.00003
3.00003
3.00003
3.00003
3.00003
3.00002
3.00001
2.99998
2.99993
2.99974
2.99942
2.99832
2.9961
2.98956
2.97398
2.93389
2.82614
2.59486
1.97289
1.08958
0.452803
3.00003
3.00003
3.00003
3.00003
3.00003
3.00003
3.00003
3.00003
3.00003
3.00002
3.00001
2.99999
2.99992
2.9998
2.99941
2.99857
2.99627
2.99043
2.97607
2.93606
2.84622
2.57122
2.05486
1.0696
0.461441
3.00003
3.00003
3.00003
3.00003
3.00003
3.00003
3.00003
3.00003
3.00003
3.00002
3.00001
2.99998
2.99993
2.99974
2.99945
2.99837
2.99648
2.99017
2.97678
2.93893
2.84198
2.62713
2.03227
1.17527
0.486806
3.00003
3.00003
3.00003
3.00003
3.00003
3.00003
3.00003
3.00003
3.00003
3.00002
3.00001
2.99998
2.99994
2.99975
2.99948
2.99843
2.99666
2.99084
2.97807
2.9435
2.85137
2.64928
2.0709
1.22395
0.498625
3.00003
3.00003
3.00003
3.00003
3.00003
3.00003
3.00003
3.00003
3.00003
3.00002
3.00001
3
2.99993
2.99983
2.99948
2.99878
2.99679
2.99184
2.97958
2.94546
2.86917
2.63118
2.18299
1.23981
0.529816
3.00003
3.00003
3.00003
3.00003
3.00003
3.00003
3.00003
3.00003
3.00003
3.00002
3.00001
2.99999
2.99994
2.99978
2.99952
2.99861
2.99692
2.99188
2.97987
2.94982
2.86612
2.68861
2.16027
1.34614
0.54221
3.00003
3.00003
3.00003
3.00003
3.00003
3.00003
3.00003
3.00003
3.00003
3.00002
3.00001
3
2.99994
2.99984
2.9995
2.99889
2.99703
2.99267
2.9816
2.95171
2.8837
2.6743
2.27255
1.37541
0.578489
3.00003
3.00003
3.00003
3.00003
3.00003
3.00003
3.00003
3.00003
3.00003
3.00002
3.00001
2.99999
2.99994
2.99977
2.99953
2.99855
2.9971
2.99157
2.98213
2.95176
2.88123
2.71334
2.26076
1.4631
0.574697
3.00003
3.00003
3.00003
3.00003
3.00003
3.00003
3.00003
3.00003
3.00003
3.00002
3.00001
2.99999
2.99995
2.99978
2.99954
2.99859
2.99719
2.99172
2.98289
2.95282
2.88822
2.72399
2.30072
1.5069
0.583708
3.00003
3.00003
3.00003
3.00003
3.00003
3.00003
3.00003
3.00003
3.00003
3.00002
3.00001
3
2.99993
2.99984
2.99947
2.99893
2.99692
2.99343
2.98244
2.95737
2.89436
2.71934
2.36993
1.56271
0.647001
3.00003
3.00003
3.00003
3.00003
3.00003
3.00003
3.00003
3.00003
3.00003
3.00002
3.00001
3
2.99993
2.99983
2.99945
2.99891
2.99669
2.99345
2.98133
2.95936
2.894
2.72964
2.381
1.59056
0.65311
3
2.99998
2.99993
2.99985
2.99953
2.99907
2.99728
2.99459
2.98477
2.9676
2.91442
2.79105
2.51205
1.86377
0.965682
0.525248
0.521892
0.530488
0.528164
0.516454
0.512882
0.525053
0.563691
0.646792
0.813861
3
2.99999
2.99994
2.99986
2.99958
2.99918
2.99755
2.99526
2.98616
2.97204
2.92362
2.82222
2.57312
1.98428
1.11017
0.606848
0.544235
0.556019
0.56317
0.560401
0.564047
0.585847
0.638252
0.735899
0.900627
3
2.99999
2.99995
2.99989
2.99965
2.99931
2.99795
2.996
2.98854
2.97626
2.93607
2.8459
2.63717
2.09556
1.26726
0.692704
0.561611
0.577314
0.59434
0.601497
0.612677
0.641762
0.699396
0.79179
0.925864
3
2.99999
2.99996
2.99991
2.9997