/*--------------------------------*- C++ -*----------------------------------*\
| =========                 |                                                 |
| \\      /  F ield         | OpenFOAM: The Open Source CFD Toolbox           |
|  \\    /   O peration     | Version:  4.1                                   |
|   \\  /    A nd           | Web:      www.OpenFOAM.org                      |
|    \\/     M anipulation  |                                                 |
\*---------------------------------------------------------------------------*/
FoamFile
{
    version     2.0;
    format      ascii;
    class       volScalarField;
    location    "0.96";
    object      p;
}
// * * * * * * * * * * * * * * * * * * * * * * * * * * * * * * * * * * * * * //

dimensions      [1 -1 -2 0 0 0 0];

internalField   nonuniform List<scalar> 
52500
(
0.00424883
0.0936998
0.392278
0.708746
0.683389
0.625143
0.579593
0.55504
0.539738
0.526927
0.515775
0.504028
0.494762
0.487967
0.485455
0.48042
0.481427
0.484655
0.492592
0.506855
0.528117
0.558694
0.584079
0.586573
0.586388
0.00166899
0.0907295
0.385428
0.712269
0.686252
0.626395
0.580479
0.555726
0.540175
0.527171
0.515839
0.503973
0.494773
0.488069
0.485568
0.480457
0.481421
0.484642
0.492523
0.506329
0.527581
0.55819
0.583563
0.586134
0.586107
0.000291534
0.0868306
0.369969
0.718021
0.690687
0.62818
0.581769
0.556589
0.5405
0.527121
0.515454
0.503413
0.494378
0.48756
0.485305
0.480044
0.480803
0.483935
0.491556
0.504376
0.525404
0.555881
0.581156
0.58387
0.584097
0.00817544
0.0876674
0.345445
0.725587
0.696587
0.630718
0.583459
0.5577
0.540956
0.527084
0.514905
0.502682
0.49407
0.486839
0.484929
0.480049
0.479913
0.482822
0.489978
0.501682
0.521776
0.551789
0.577096
0.580153
0.580732
0.00408192
0.0790085
0.313066
0.739359
0.70709
0.634584
0.585458
0.55889
0.541372
0.526921
0.514095
0.501748
0.493677
0.4859
0.484139
0.48032
0.478447
0.481253
0.487463
0.498049
0.516837
0.545913
0.571311
0.574944
0.57602
0.00979904
0.0754897
0.279756
0.748191
0.717714
0.638871
0.587329
0.55993
0.541651
0.52656
0.513077
0.500735
0.493069
0.484962
0.483219
0.480061
0.476638
0.479345
0.484175
0.493139
0.510363
0.537964
0.563355
0.567619
0.569311
0.0158612
0.0736999
0.261554
0.743363
0.720099
0.646154
0.589071
0.560671
0.541735
0.526005
0.511951
0.499764
0.492192
0.484078
0.482208
0.479018
0.475023
0.47684
0.48
0.487308
0.502376
0.527546
0.552621
0.55728
0.559646
0.022687
0.074795
0.253497
0.735313
0.714035
0.650374
0.59019
0.560715
0.541528
0.525276
0.510822
0.498887
0.491084
0.483244
0.481066
0.477207
0.473685
0.473109
0.47524
0.48085
0.492656
0.514607
0.538121
0.542464
0.545354
0.0358959
0.0815017
0.254816
0.731829
0.709141
0.646962
0.589303
0.560203
0.540877
0.524392
0.509742
0.497992
0.489927
0.482578
0.479922
0.475382
0.471752
0.467763
0.469728
0.473357
0.481657
0.498975
0.518694
0.521241
0.522216
0.049995
0.0904347
0.257287
0.730311
0.707143
0.643602
0.588022
0.559213
0.540109
0.523524
0.508812
0.497041
0.488809
0.482178
0.478208
0.47435
0.468958
0.462061
0.462951
0.464393
0.469215
0.480671
0.49315
0.492064
0.483159
0.00421072
0.0936568
0.392164
0.708752
0.683396
0.625144
0.579587
0.55503
0.539728
0.526927
0.515783
0.504033
0.494771
0.487977
0.485443
0.480397
0.4814
0.484627
0.492575
0.506836
0.528076
0.558648
0.584077
0.586566
0.586353
0.00171195
0.0907364
0.385307
0.712244
0.686234
0.626389
0.580473
0.555717
0.540168
0.527171
0.515843
0.50398
0.494792
0.48804
0.485584
0.480454
0.481403
0.484605
0.492488
0.506325
0.527547
0.558137
0.583557
0.586126
0.586072
0.000195558
0.0871633
0.369888
0.717998
0.690672
0.628177
0.581763
0.55658
0.540494
0.52712
0.515454
0.503419
0.494396
0.487521
0.485312
0.480056
0.480783
0.483884
0.491509
0.50439
0.525379
0.555817
0.581143
0.583858
0.584061
0.00803939
0.0872169
0.345351
0.725616
0.696608
0.630723
0.583454
0.557692
0.54095
0.527084
0.514907
0.502684
0.494081
0.486815
0.484916
0.480068
0.479897
0.482796
0.489952
0.501674
0.521751
0.55173
0.577079
0.580136
0.580694
0.00410526
0.0790001
0.31294
0.739362
0.707096
0.634588
0.585453
0.558883
0.541366
0.526922
0.514103
0.50175
0.493678
0.485893
0.484136
0.480309
0.478426
0.481236
0.48745
0.498036
0.516799
0.545858
0.571288
0.574923
0.575979
0.00977253
0.07545
0.279663
0.748155
0.717714
0.638884
0.587326
0.559923
0.541644
0.52656
0.513088
0.500732
0.49307
0.484966
0.483219
0.480052
0.476614
0.479326
0.484159
0.493121
0.51032
0.537913
0.563322
0.567593
0.569268
0.0158809
0.0736991
0.261503
0.743299
0.720065
0.646172
0.589069
0.560665
0.541729
0.526005
0.511961
0.499757
0.492202
0.484079
0.48221
0.479028
0.47499
0.476815
0.47998
0.487284
0.502333
0.527499
0.552582
0.55725
0.559603
0.022681
0.0747817
0.253461
0.735263
0.714002
0.650379
0.590187
0.56071
0.541524
0.525277
0.510828
0.49888
0.491099
0.483236
0.481068
0.477222
0.473647
0.473097
0.475206
0.480813
0.492614
0.514563
0.53808
0.542434
0.545313
0.0358955
0.081492
0.254789
0.731785
0.709113
0.646961
0.589299
0.560198
0.540875
0.524394
0.509745
0.49799
0.489944
0.482558
0.479937
0.47538
0.471738
0.46775
0.469707
0.47331
0.481606
0.498945
0.518658
0.521211
0.522179
0.0500146
0.090448
0.257273
0.730257
0.707114
0.6436
0.588019
0.559207
0.540106
0.523525
0.508815
0.497041
0.488828
0.482152
0.478255
0.474315
0.468949
0.462053
0.462925
0.464356
0.469175
0.480641
0.493119
0.492032
0.483127
0.00423825
0.0936653
0.392126
0.70876
0.683402
0.62515
0.579593
0.555036
0.539734
0.526925
0.515782
0.504036
0.494761
0.487999
0.485437
0.480409
0.481411
0.484641
0.492559
0.506794
0.528085
0.558704
0.584088
0.586566
0.586363
0.00167293
0.0907036
0.385271
0.712277
0.68626
0.626401
0.580479
0.555722
0.540172
0.52717
0.515845
0.503981
0.494776
0.488088
0.485562
0.480447
0.481405
0.484623
0.492489
0.506279
0.527553
0.558194
0.58357
0.586127
0.586083
0.000198855
0.0870732
0.369847
0.718029
0.690695
0.628186
0.581768
0.556585
0.540498
0.527121
0.515457
0.50342
0.494383
0.487567
0.485304
0.480037
0.480782
0.483907
0.491522
0.504343
0.525382
0.555874
0.581161
0.583864
0.584076
0.00810639
0.0873466
0.345294
0.725617
0.696611
0.630727
0.583458
0.557695
0.540954
0.527085
0.514907
0.502687
0.494079
0.486838
0.484926
0.480052
0.479891
0.482796
0.489947
0.501656
0.521761
0.551776
0.5771
0.580148
0.580714
0.00409218
0.0789827
0.312889
0.739382
0.707112
0.634594
0.585458
0.558886
0.54137
0.526922
0.514097
0.501754
0.493685
0.485897
0.484136
0.480318
0.478423
0.481225
0.487433
0.498025
0.51682
0.545896
0.571313
0.574941
0.576005
0.00978968
0.0754538
0.279639
0.748152
0.717721
0.638892
0.58733
0.559926
0.541648
0.526561
0.513079
0.500741
0.493074
0.484965
0.483219
0.480053
0.476617
0.479323
0.484147
0.493111
0.510343
0.537947
0.563354
0.567617
0.5693
0.0158751
0.0736885
0.261484
0.743292
0.720064
0.646182
0.589073
0.560667
0.541732
0.526005
0.511954
0.499771
0.492194
0.484085
0.482209
0.479008
0.475007
0.47682
0.479974
0.487282
0.502353
0.527528
0.552616
0.557279
0.559638
0.0226945
0.0747874
0.253456
0.735257
0.713996
0.650377
0.590188
0.560709
0.541524
0.525276
0.510824
0.498892
0.49109
0.483247
0.481063
0.4772
0.473672
0.473087
0.475219
0.480826
0.492631
0.514587
0.538114
0.542463
0.545349
0.0359081
0.0814971
0.254792
0.731786
0.709111
0.646955
0.589297
0.560196
0.540873
0.524392
0.509742
0.497996
0.489934
0.482578
0.47992
0.475374
0.47174
0.467745
0.469709
0.473332
0.481631
0.498956
0.518686
0.521239
0.522213
0.0500293
0.0904599
0.257276
0.730244
0.70711
0.643598
0.588016
0.559205
0.540104
0.523523
0.508812
0.497044
0.488815
0.482171
0.478217
0.474334
0.468951
0.462048
0.462933
0.464371
0.469192
0.480652
0.493143
0.492058
0.483157
0.00423612
0.0936531
0.392068
0.708775
0.683417
0.625162
0.579602
0.555045
0.539744
0.526938
0.515797
0.504052
0.494775
0.488013
0.485444
0.48041
0.481406
0.484632
0.492545
0.506774
0.528067
0.558694
0.584085
0.586563
0.586355
0.00167622
0.0906948
0.385213
0.712292
0.686274
0.626412
0.580488
0.555731
0.540182
0.527183
0.515859
0.503996
0.494791
0.4881
0.485571
0.480449
0.481399
0.484613
0.492475
0.506261
0.527536
0.558182
0.583567
0.586123
0.586074
0.00020161
0.0870495
0.369787
0.718047
0.690711
0.628197
0.581777
0.556593
0.540508
0.527133
0.515471
0.503435
0.494398
0.487577
0.485313
0.48004
0.480775
0.483896
0.491509
0.50433
0.525367
0.55586
0.581156
0.583859
0.584067
0.00810899
0.0873488
0.345233
0.725635
0.696627
0.630738
0.583466
0.557703
0.540963
0.527097
0.514921
0.502701
0.494092
0.486846
0.484932
0.480059
0.479884
0.482788
0.489935
0.501643
0.521747
0.551761
0.577093
0.580141
0.580703
0.0040922
0.0789716
0.312828
0.739403
0.707129
0.634605
0.585466
0.558894
0.541379
0.526934
0.514111
0.501767
0.493696
0.485908
0.484144
0.480324
0.478415
0.481218
0.487425
0.498016
0.516806
0.54588
0.571304
0.574932
0.575993
0.00979022
0.0754446
0.279603
0.748149
0.717731
0.638904
0.587337
0.559933
0.541656
0.526572
0.513094
0.500751
0.493086
0.484976
0.483227
0.48006
0.476608
0.479315
0.484139
0.493103
0.510328
0.53793
0.563342
0.567606
0.569286
0.0158783
0.0736844
0.261464
0.74328
0.720061
0.646196
0.589079
0.560673
0.541739
0.526016
0.511968
0.499779
0.492211
0.484092
0.482217
0.479023
0.474994
0.47681
0.479966
0.487273
0.502337
0.527512
0.552604
0.557267
0.559624
0.0226994
0.0747874
0.253448
0.735249
0.713991
0.650382
0.590192
0.560715
0.541531
0.525286
0.510837
0.4989
0.491106
0.483252
0.481073
0.477211
0.473656
0.473084
0.475205
0.480813
0.492617
0.514572
0.538102
0.542452
0.545334
0.0359139
0.0814981
0.25479
0.731782
0.709109
0.646954
0.5893
0.560201
0.54088
0.524402
0.509755
0.498005
0.48995
0.482581
0.479935
0.475379
0.471733
0.467739
0.4697
0.473316
0.481615
0.498946
0.518676
0.521228
0.5222
0.0500415
0.0904699
0.257274
0.730233
0.707105
0.643601
0.588017
0.559209
0.54011
0.523532
0.508824
0.497054
0.488831
0.482177
0.478238
0.474333
0.468944
0.462042
0.462923
0.464358
0.469179
0.480642
0.493133
0.492048
0.483146
0.00424301
0.0936443
0.391999
0.708812
0.683448
0.625181
0.579618
0.555054
0.539747
0.526937
0.515792
0.504044
0.49477
0.488008
0.485446
0.480412
0.48141
0.484639
0.492554
0.506775
0.528072
0.558703
0.584087
0.586571
0.586376
0.00168021
0.0906844
0.385146
0.712332
0.686307
0.626431
0.580503
0.55574
0.540185
0.527182
0.515854
0.503989
0.494786
0.488096
0.485572
0.480452
0.481404
0.484621
0.492485
0.506259
0.527541
0.558192
0.583569
0.586132
0.586095
0.000236534
0.0869139
0.369704
0.71809
0.690746
0.628215
0.58179
0.556602
0.540511
0.527132
0.515466
0.503428
0.494393
0.487576
0.485314
0.480044
0.480781
0.483906
0.491519
0.504326
0.52537
0.555872
0.58116
0.583867
0.584086
0.00815446
0.0874724
0.34516
0.725668
0.696654
0.630752
0.583478
0.557711
0.540966
0.527096
0.514916
0.502695
0.494089
0.486844
0.484933
0.480062
0.479888
0.482795
0.489943
0.501644
0.521748
0.551773
0.577098
0.580149
0.58072
0.00408921
0.078957
0.312757
0.739443
0.70716
0.634618
0.585476
0.558901
0.541382
0.526933
0.514108
0.501762
0.493693
0.485909
0.484143
0.48033
0.478422
0.481227
0.487431
0.498017
0.51681
0.545893
0.57131
0.574939
0.576007
0.009812
0.0754492
0.279573
0.748155
0.717749
0.638918
0.587345
0.559939
0.541659
0.526571
0.51309
0.500746
0.493085
0.484975
0.483227
0.480067
0.476614
0.479321
0.484143
0.493104
0.510335
0.537941
0.563349
0.567612
0.569297
0.0158783
0.0736779
0.261448
0.743283
0.720068
0.64621
0.589086
0.560678
0.541741
0.526015
0.511964
0.499775
0.492211
0.484088
0.482215
0.479031
0.474998
0.476814
0.47997
0.487277
0.502345
0.527523
0.552612
0.557272
0.559631
0.0227183
0.0747979
0.253451
0.735257
0.713993
0.650381
0.590195
0.560716
0.541531
0.525284
0.510834
0.498898
0.491106
0.483251
0.481074
0.477213
0.473656
0.473088
0.475208
0.480817
0.492624
0.514583
0.53811
0.542456
0.545339
0.0359293
0.0815067
0.2548
0.7318
0.709117
0.646946
0.589298
0.5602
0.540877
0.524399
0.509753
0.498003
0.489948
0.482582
0.479938
0.475381
0.471733
0.467741
0.469703
0.473321
0.481622
0.498956
0.518684
0.521233
0.522203
0.0500642
0.0904911
0.257282
0.730236
0.707112
0.643599
0.588013
0.559207
0.540107
0.523529
0.508823
0.497052
0.488829
0.482183
0.478232
0.474341
0.468939
0.462041
0.462924
0.464362
0.469186
0.480651
0.49314
0.492054
0.483149
0.00424037
0.0936423
0.391997
0.708808
0.683445
0.62518
0.579617
0.555054
0.539749
0.52694
0.515797
0.50405
0.494774
0.488016
0.485447
0.480414
0.481411
0.484639
0.492551
0.506772
0.52807
0.558702
0.584085
0.586568
0.586372
0.00167935
0.0906835
0.385143
0.712327
0.686304
0.62643
0.580502
0.55574
0.540187
0.527185
0.515859
0.503995
0.494791
0.488103
0.485575
0.480454
0.481405
0.48462
0.492482
0.506257
0.527539
0.558191
0.583567
0.586129
0.58609
0.000216837
0.0869777
0.36971
0.718083
0.690741
0.628214
0.581789
0.556602
0.540512
0.527135
0.515471
0.503434
0.494398
0.487581
0.485317
0.480045
0.480781
0.483905
0.491517
0.504325
0.525369
0.55587
0.581157
0.583863
0.584081
0.00813506
0.0874042
0.34516
0.725666
0.696652
0.630752
0.583477
0.557711
0.540968
0.527099
0.514921
0.502701
0.494093
0.486848
0.484936
0.480063
0.479888
0.482794
0.489942
0.501644
0.521748
0.55177
0.577095
0.580145
0.580715
0.00409127
0.078958
0.312755
0.739438
0.707157
0.634618
0.585476
0.558901
0.541383
0.526935
0.514112
0.501766
0.493697
0.485912
0.484146
0.480331
0.478422
0.481227
0.487432
0.498017
0.516809
0.545889
0.571306
0.574936
0.576003
0.00980514
0.0754441
0.279568
0.748151
0.717747
0.638919
0.587345
0.559939
0.54166
0.526574
0.513095
0.500751
0.493089
0.484979
0.48323
0.480069
0.476614
0.479321
0.484143
0.493106
0.510334
0.537938
0.563345
0.567609
0.569293
0.0158794
0.0736782
0.261445
0.743277
0.720064
0.646211
0.589086
0.560678
0.541742
0.526017
0.511968
0.499779
0.492215
0.484091
0.482218
0.479033
0.474998
0.476814
0.479971
0.487278
0.502344
0.52752
0.552608
0.557269
0.559628
0.0227136
0.074794
0.253446
0.735251
0.71399
0.650383
0.590196
0.560717
0.541533
0.525287
0.510838
0.498901
0.491109
0.483254
0.481077
0.477215
0.473656
0.473089
0.475209
0.480817
0.492623
0.51458
0.538107
0.542453
0.545337
0.035926
0.0815037
0.254795
0.731792
0.709113
0.646949
0.5893
0.560201
0.54088
0.524402
0.509756
0.498007
0.489951
0.482584
0.47994
0.475384
0.471734
0.467742
0.469704
0.473321
0.481621
0.498953
0.518682
0.52123
0.522201
0.0500592
0.0904859
0.257278
0.730231
0.707108
0.6436
0.588015
0.559208
0.540109
0.523531
0.508826
0.497055
0.488832
0.482185
0.478235
0.474342
0.468941
0.462042
0.462925
0.464362
0.469185
0.480649
0.493137
0.492052
0.483148
0.00423611
0.093653
0.392068
0.708775
0.683417
0.625162
0.579602
0.555045
0.539744
0.526938
0.515797
0.504052
0.494775
0.488013
0.485444
0.48041
0.481406
0.484632
0.492545
0.506774
0.528067
0.558694
0.584085
0.586563
0.586355
0.00167621
0.0906947
0.385212
0.712292
0.686274
0.626412
0.580488
0.555731
0.540182
0.527183
0.515859
0.503996
0.494791
0.4881
0.485571
0.480449
0.481399
0.484613
0.492475
0.506261
0.527536
0.558182
0.583567
0.586123
0.586074
0.000201561
0.0870496
0.369787
0.718047
0.690711
0.628197
0.581777
0.556593
0.540508
0.527133
0.515471
0.503435
0.494398
0.487577
0.485313
0.48004
0.480775
0.483896
0.491509
0.50433
0.525367
0.55586
0.581156
0.583859
0.584067
0.00810889
0.0873485
0.345233
0.725635
0.696627
0.630738
0.583466
0.557703
0.540963
0.527097
0.514921
0.502701
0.494092
0.486846
0.484932
0.480059
0.479884
0.482788
0.489935
0.501643
0.521747
0.551761
0.577093
0.580141
0.580703
0.00409223
0.0789716
0.312828
0.739403
0.707129
0.634605
0.585466
0.558894
0.541379
0.526934
0.514112
0.501767
0.493696
0.485908
0.484144
0.480324
0.478415
0.481218
0.487425
0.498016
0.516806
0.54588
0.571304
0.574932
0.575993
0.00979015
0.0754445
0.279603
0.748149
0.717731
0.638904
0.587337
0.559933
0.541656
0.526572
0.513094
0.500751
0.493086
0.484976
0.483227
0.48006
0.476608
0.479315
0.484139
0.493103
0.510328
0.53793
0.563342
0.567606
0.569286
0.0158783
0.0736844
0.261464
0.74328
0.720061
0.646196
0.589079
0.560673
0.541739
0.526016
0.511968
0.499779
0.492211
0.484092
0.482217
0.479023
0.474994
0.47681
0.479966
0.487273
0.502337
0.527511
0.552604
0.557267
0.559624
0.0226993
0.0747874
0.253448
0.735249
0.713991
0.650382
0.590192
0.560715
0.541531
0.525286
0.510837
0.4989
0.491106
0.483252
0.481073
0.477211
0.473656
0.473084
0.475205
0.480813
0.492617
0.514572
0.538102
0.542452
0.545334
0.0359139
0.0814981
0.25479
0.731782
0.709109
0.646954
0.5893
0.560201
0.54088
0.524402
0.509755
0.498006
0.48995
0.482581
0.479936
0.475379
0.471733
0.467739
0.4697
0.473316
0.481615
0.498946
0.518676
0.521228
0.5222
0.0500414
0.0904698
0.257274
0.730233
0.707105
0.643601
0.588017
0.559209
0.54011
0.523532
0.508824
0.497054
0.488831
0.482177
0.478238
0.474333
0.468944
0.462042
0.462923
0.464358
0.469179
0.480642
0.493133
0.492048
0.483146
0.00423825
0.0936653
0.392126
0.70876
0.683402
0.62515
0.579593
0.555036
0.539734
0.526925
0.515782
0.504036
0.494761
0.487999
0.485437
0.480409
0.481411
0.484641
0.492559
0.506794
0.528085
0.558704
0.584088
0.586566
0.586363
0.00167294
0.0907036
0.385271
0.712277
0.68626
0.626401
0.580479
0.555722
0.540172
0.52717
0.515845
0.503981
0.494776
0.488088
0.485562
0.480447
0.481405
0.484623
0.492489
0.506279
0.527553
0.558194
0.58357
0.586127
0.586083
0.000198859
0.0870732
0.369847
0.718029
0.690695
0.628186
0.581768
0.556585
0.540498
0.527121
0.515457
0.50342
0.494383
0.487567
0.485304
0.480037
0.480782
0.483907
0.491522
0.504343
0.525382
0.555874
0.581161
0.583864
0.584076
0.00810638
0.0873466
0.345294
0.725617
0.696611
0.630727
0.583458
0.557695
0.540954
0.527085
0.514907
0.502687
0.494079
0.486838
0.484926
0.480052
0.479891
0.482796
0.489947
0.501656
0.521761
0.551776
0.5771
0.580148
0.580714
0.00409217
0.0789827
0.312889
0.739382
0.707112
0.634594
0.585458
0.558886
0.54137
0.526922
0.514097
0.501754
0.493685
0.485897
0.484136
0.480318
0.478423
0.481225
0.487433
0.498026
0.51682
0.545896
0.571313
0.574941
0.576005
0.00978968
0.0754538
0.279639
0.748152
0.717721
0.638892
0.58733
0.559926
0.541648
0.526561
0.513079
0.500741
0.493074
0.484965
0.483219
0.480053
0.476617
0.479323
0.484147
0.493111
0.510343
0.537947
0.563354
0.567617
0.5693
0.015875
0.0736885
0.261484
0.743292
0.720064
0.646182
0.589073
0.560667
0.541732
0.526005
0.511954
0.499771
0.492194
0.484085
0.482209
0.479008
0.475007
0.47682
0.479974
0.487282
0.502353
0.527528
0.552616
0.557279
0.559638
0.0226945
0.0747874
0.253456
0.735257
0.713996
0.650377
0.590188
0.560709
0.541524
0.525276
0.510824
0.498892
0.49109
0.483247
0.481063
0.4772
0.473672
0.473087
0.475219
0.480826
0.492631
0.514587
0.538114
0.542463
0.545349
0.0359081
0.0814971
0.254792
0.731786
0.709111
0.646955
0.589297
0.560196
0.540873
0.524392
0.509742
0.497996
0.489934
0.482578
0.47992
0.475374
0.47174
0.467745
0.469709
0.473332
0.481631
0.498956
0.518686
0.521239
0.522213
0.0500293
0.0904599
0.257276
0.730244
0.70711
0.643598
0.588016
0.559205
0.540104
0.523523
0.508812
0.497044
0.488815
0.482171
0.478217
0.474334
0.468951
0.462048
0.462933
0.464371
0.469192
0.480652
0.493143
0.492058
0.483157
0.00421072
0.0936566
0.392164
0.708752
0.683396
0.625144
0.579587
0.55503
0.539728
0.526927
0.515782
0.504033
0.494771
0.487977
0.485443
0.480397
0.4814
0.484627
0.492575
0.506836
0.528076
0.558648
0.584077
0.586566
0.586353
0.00171197
0.0907363
0.385306
0.712244
0.686234
0.626389
0.580473
0.555717
0.540167
0.527171
0.515843
0.50398
0.494792
0.488039
0.485584
0.480454
0.481403
0.484605
0.492488
0.506326
0.527548
0.558137
0.583557
0.586126
0.586072
0.000195478
0.0871631
0.369887
0.717999
0.690672
0.628177
0.581763
0.55658
0.540494
0.52712
0.515454
0.503419
0.494396
0.487521
0.485312
0.480055
0.480783
0.483884
0.491509
0.504391
0.52538
0.555817
0.581143
0.583858
0.584061
0.00803941
0.0872168
0.34535
0.725616
0.696608
0.630724
0.583454
0.557692
0.54095
0.527084
0.514906
0.502684
0.494081
0.486815
0.484916
0.480068
0.479897
0.482796
0.489952
0.501674
0.521752
0.55173
0.577079
0.580136
0.580694
0.00410523
0.0789999
0.312939
0.739362
0.707096
0.634588
0.585453
0.558883
0.541366
0.526922
0.514102
0.501749
0.493678
0.485893
0.484135
0.480308
0.478426
0.481236
0.48745
0.498036
0.516799
0.545858
0.571288
0.574923
0.575979
0.00977259
0.0754499
0.279663
0.748154
0.717714
0.638884
0.587326
0.559923
0.541644
0.52656
0.513088
0.500732
0.49307
0.484965
0.483219
0.480052
0.476614
0.479326
0.484159
0.493122
0.51032
0.537913
0.563322
0.567593
0.569268
0.0158808
0.0736989
0.261503
0.743299
0.720065
0.646172
0.589069
0.560665
0.541729
0.526005
0.511961
0.499757
0.492202
0.484078
0.482209
0.479028
0.47499
0.476815
0.47998
0.487284
0.502333
0.527499
0.552582
0.557251
0.559603
0.022681
0.0747817
0.253461
0.735262
0.714002
0.650379
0.590187
0.56071
0.541524
0.525277
0.510828
0.49888
0.491099
0.483236
0.481067
0.477222
0.473647
0.473097
0.475206
0.480813
0.492614
0.514564
0.53808
0.542434
0.545313
0.0358956
0.081492
0.254789
0.731784
0.709112
0.646961
0.589299
0.560198
0.540874
0.524394
0.509745
0.49799
0.489944
0.482558
0.479937
0.475379
0.471738
0.46775
0.469707
0.473311
0.481606
0.498946
0.518658
0.521211
0.522179
0.0500147
0.090448
0.257273
0.730257
0.707114
0.6436
0.588019
0.559207
0.540106
0.523525
0.508814
0.497041
0.488828
0.482152
0.478255
0.474315
0.468949
0.462053
0.462925
0.464356
0.469175
0.480641
0.493119
0.492032
0.483127
0.00424
0.0936984
0.3923
0.708726
0.683374
0.625133
0.579584
0.555034
0.539732
0.526922
0.515779
0.504027
0.494747
0.487992
0.485417
0.480403
0.481421
0.484667
0.492598
0.506842
0.52812
0.558714
0.584074
0.586561
0.58638
0.00165744
0.0907261
0.385449
0.712247
0.686234
0.626385
0.58047
0.555719
0.540171
0.527168
0.515837
0.50397
0.494767
0.48807
0.485551
0.480443
0.481414
0.484641
0.492523
0.50634
0.527593
0.558196
0.583556
0.586123
0.5861
0.000209679
0.0870623
0.370027
0.717991
0.690663
0.628169
0.581759
0.556581
0.540496
0.527118
0.515445
0.503408
0.494378
0.487528
0.485295
0.480048
0.480801
0.483914
0.491547
0.504428
0.525433
0.555865
0.581146
0.583859
0.584094
0.00812588
0.0874349
0.345486
0.725568
0.696571
0.63071
0.583449
0.55769
0.54095
0.527082
0.514892
0.502673
0.494073
0.486777
0.484882
0.480111
0.479924
0.482803
0.489962
0.501721
0.521819
0.551768
0.577086
0.580143
0.580729
0.00407553
0.0790094
0.313096
0.739335
0.707073
0.634577
0.585449
0.55888
0.541364
0.526919
0.514085
0.501737
0.493672
0.485856
0.484102
0.48036
0.478448
0.481235
0.487457
0.498088
0.516869
0.545892
0.5713
0.574933
0.576017
0.0097853
0.0754848
0.279767
0.748182
0.717702
0.638864
0.587321
0.55992
0.541641
0.526557
0.51307
0.500718
0.493061
0.484934
0.483194
0.480077
0.476627
0.479329
0.484184
0.493177
0.510381
0.537952
0.563343
0.567606
0.569306
0.0158564
0.0736999
0.261558
0.743356
0.720092
0.646146
0.589064
0.560663
0.541726
0.526001
0.511946
0.499743
0.492188
0.484048
0.482186
0.479037
0.474997
0.476828
0.480011
0.487329
0.502382
0.527541
0.552612
0.557267
0.559641
0.0226783
0.0747905
0.253493
0.735302
0.714029
0.650373
0.590185
0.560709
0.54152
0.525272
0.510817
0.498865
0.49108
0.483213
0.481049
0.477208
0.473648
0.473119
0.475232
0.480848
0.49266
0.514606
0.538114
0.542452
0.545348
0.0358814
0.0814931
0.254806
0.731812
0.709132
0.646965
0.5893
0.5602
0.540873
0.524388
0.509737
0.497975
0.489921
0.482547
0.479922
0.475374
0.471735
0.467767
0.469728
0.473348
0.481651
0.498984
0.518691
0.521231
0.52221
0.0499802
0.0904209
0.257281
0.730306
0.707134
0.6436
0.588021
0.55921
0.540105
0.52352
0.508808
0.497027
0.488805
0.482154
0.478221
0.474328
0.468941
0.462062
0.462949
0.464389
0.469213
0.480676
0.493146
0.492057
0.483153
0.071254
0.109256
0.263067
0.71828
0.699019
0.641259
0.58807
0.559102
0.539486
0.522696
0.507942
0.496153
0.4877
0.482097
0.476032
0.472997
0.465947
0.456993
0.454879
0.453913
0.455534
0.459768
0.458767
0.444752
0.385531
0.0801471
0.11713
0.261472
0.694393
0.683861
0.641106
0.5893
0.559289
0.53888
0.521883
0.507136
0.495417
0.486913
0.48168
0.473784
0.470386
0.463513
0.452637
0.447129
0.442247
0.441268
0.438942
0.431082
0.407177
0.346463
0.0841035
0.119818
0.254681
0.660039
0.668867
0.643996
0.592594
0.559893
0.53851
0.521198
0.5065
0.494834
0.486379
0.480938
0.471911
0.467834
0.460602
0.449002
0.439427
0.432951
0.42802
0.422438
0.410251
0.384107
0.333038
0.0896606
0.122445
0.244609
0.608913
0.666174
0.644662
0.59718
0.561691
0.538505
0.520727
0.506103
0.494505
0.485975
0.479934
0.470811
0.465656
0.457192
0.445185
0.432826
0.424872
0.415684
0.407983
0.393161
0.367957
0.327698
0.08904
0.118857
0.228869
0.553833
0.668669
0.648339
0.602396
0.563878
0.538725
0.520679
0.506075
0.494495
0.485785
0.479106
0.470335
0.462468
0.454644
0.441126
0.427594
0.417786
0.405562
0.395234
0.379822
0.356152
0.323936
0.0898106
0.115853
0.211337
0.489939
0.675912
0.655847
0.608073
0.56623
0.53941
0.521032
0.506527
0.494963
0.485869
0.478489
0.470035
0.458933
0.452326
0.438015
0.423761
0.411098
0.39848
0.38498
0.369543
0.34763
0.320519
0.0914669
0.112843
0.191678
0.417982
0.688909
0.66542
0.61134
0.568445
0.540627
0.522253
0.507949
0.496216
0.486412
0.478221
0.469293
0.456705
0.449615
0.435522
0.420961
0.406326
0.393465
0.377262
0.361517
0.341127
0.316686
0.0936751
0.110225
0.173171
0.35024
0.69547
0.671088
0.615714
0.571604
0.542995
0.524729
0.510157
0.497997
0.487661
0.478316
0.468492
0.455869
0.446684
0.433344
0.418313
0.403452
0.389206
0.372588
0.355632
0.336661
0.314355
0.0960615
0.108209
0.160285
0.313731
0.681658
0.666798
0.623301
0.575529
0.546635
0.527626
0.51276
0.500137
0.489139
0.478643
0.46796
0.455477
0.442861
0.432731
0.417307
0.40218
0.386312
0.370443
0.351615
0.33332
0.312926
0.0968919
0.107049
0.153173
0.290617
0.647734
0.653004
0.630143
0.581601
0.550347
0.530769
0.51563
0.502622
0.4908
0.479255
0.467545
0.454943
0.440716
0.43156
0.416866
0.40177
0.385644
0.369025
0.350742
0.331728
0.312781
0.0977508
0.105866
0.145276
0.263075
0.580064
0.646539
0.630255
0.590846
0.556143
0.534877
0.519153
0.505462
0.492544
0.479871
0.467222
0.454665
0.440741
0.430426
0.416888
0.401969
0.385865
0.36885
0.350901
0.331795
0.313019
0.0986765
0.104548
0.136203
0.231909
0.49575
0.648865
0.634287
0.599219
0.562637
0.539955
0.52329
0.508574
0.494411
0.480586
0.467278
0.45449
0.440922
0.428107
0.417716
0.40268
0.386598
0.369282
0.351381
0.3328
0.313772
0.0998679
0.103254
0.126349
0.198376
0.398132
0.65549
0.643396
0.610736
0.571455
0.545584
0.527464
0.511578
0.496235
0.481425
0.467457
0.454408
0.441474
0.428423
0.419166
0.404355
0.388217
0.370572
0.352651
0.334823
0.315972
0.101288
0.102298
0.117568
0.169074
0.312525
0.641683
0.641263
0.622181
0.581182
0.551083
0.531338
0.514301
0.497853
0.482218
0.467813
0.454569
0.442674
0.42939
0.419178
0.406446
0.390682
0.373372
0.355439
0.3373
0.320269
0.101234
0.0994965
0.110895
0.152335
0.273032
0.588379
0.635442
0.622545
0.58971
0.556859
0.534971
0.516475
0.49907
0.482931
0.468206
0.455617
0.444702
0.431448
0.419252
0.409124
0.39298
0.375969
0.358623
0.340588
0.323769
0.0993428
0.0933011
0.102265
0.134918
0.229929
0.486698
0.633097
0.624016
0.598245
0.563205
0.538618
0.518511
0.500467
0.48418
0.469973
0.458336
0.447029
0.434465
0.420249
0.410862
0.395433
0.379101
0.361834
0.344621
0.327606
0.0966875
0.0864661
0.0929178
0.11631
0.18437
0.368548
0.63156
0.628895
0.611033
0.57365
0.5441
0.52164
0.50353
0.487876
0.474198
0.461667
0.44959
0.437475
0.422789
0.410574
0.398159
0.381898
0.365603
0.349131
0.332414
0.0953084
0.0808725
0.085417
0.101735
0.150113
0.283535
0.602646
0.629319
0.617117
0.586431
0.551312
0.527127
0.508651
0.492879
0.478629
0.465273
0.452426
0.439886
0.425419
0.411451
0.401402
0.385598
0.369759
0.35351
0.337576
0.0941354
0.0767084
0.0800633
0.0921397
0.128922
0.23542
0.523094
0.627222
0.618946
0.595967
0.560491
0.534396
0.514863
0.498398
0.48341
0.469171
0.455389
0.442011
0.428472
0.413322
0.401577
0.389003
0.373649
0.35843
0.343043
0.0930637
0.0729629
0.0752998
0.0837011
0.109183
0.183522
0.389193
0.620875
0.620175
0.606466
0.575012
0.543985
0.522204
0.504756
0.48868
0.473327
0.458567
0.444449
0.430887
0.415922
0.402775
0.393326
0.378394
0.363419
0.348338
0.092295
0.0700909
0.0716752
0.077328
0.094038
0.142221
0.275037
0.585962
0.622144
0.613248
0.589051
0.55443
0.53013
0.511139
0.493912
0.477558
0.461973
0.447234
0.433368
0.419591
0.40515
0.39353
0.383191
0.368381
0.354017
0.091666
0.067953
0.0690648
0.0730668
0.0847735
0.119011
0.219312
0.495094
0.619391
0.615701
0.59978
0.566677
0.538693
0.517169
0.499037
0.481859
0.465678
0.4505
0.43643
0.423001
0.40885
0.39566
0.387087
0.373612
0.359857
0.0911931
0.0661807
0.0668974
0.0694828
0.0768403
0.0975376
0.156039
0.314061
0.603386
0.616317
0.607202
0.582997
0.548738
0.524144
0.504588
0.486509
0.46976
0.454269
0.440013
0.426515
0.41345
0.400073
0.388329
0.37936
0.365586
0.090844
0.0649514
0.065432
0.0672032
0.0722176
0.0860651
0.12583
0.240224
0.535073
0.613325
0.608655
0.59282
0.560379
0.531731
0.510201
0.491507
0.474403
0.458641
0.444126
0.430508
0.417795
0.404893
0.391752
0.383249
0.371046
0.0905934
0.0640001
0.0643001
0.0654505
0.0687042
0.0775367
0.102559
0.176574
0.38451
0.598435
0.607771
0.599106
0.576521
0.542112
0.51723
0.497386
0.479699
0.463637
0.44883
0.435064
0.422019
0.40985
0.397157
0.385603
0.377335
0.0904287
0.0633736
0.063558
0.0643088
0.0664291
0.0720333
0.0872768
0.131002
0.252988
0.541956
0.604121
0.599542
0.584864
0.554173
0.525406
0.503869
0.485538
0.469134
0.454028
0.440052
0.426712
0.414662
0.402423
0.390158
0.379916
0.0903199
0.062932
0.0630352
0.0635087
0.0648644
0.0684219
0.0778794
0.104641
0.184022
0.40608
0.58835
0.598236
0.590231
0.569241
0.536463
0.512008
0.492592
0.475346
0.459797
0.445485
0.431937
0.419608
0.407979
0.396055
0.384824
0.0902508
0.0626604
0.0627117
0.0630034
0.06386
0.0660881
0.0718433
0.0874097
0.131934
0.253854
0.533135
0.593751
0.59016
0.577333
0.549677
0.521346
0.500137
0.482304
0.466135
0.451431
0.437701
0.424963
0.413446
0.402055
0.390826
0.0903339
0.0625586
0.0625756
0.0627413
0.0632361
0.0645874
0.0680725
0.0773467
0.103564
0.181113
0.396509
0.575176
0.588589
0.581764
0.563475
0.532671
0.508846
0.489849
0.473122
0.457862
0.443964
0.430797
0.419262
0.40807
0.397165
0.0904192
0.0627365
0.0624017
0.0624949
0.062808
0.0636483
0.0657995
0.0713142
0.0862414
0.128982
0.245501
0.513103
0.583305