/*--------------------------------*- C++ -*----------------------------------*\
| =========                 |                                                 |
| \\      /  F ield         | OpenFOAM: The Open Source CFD Toolbox           |
|  \\    /   O peration     | Version:  4.1                                   |
|   \\  /    A nd           | Web:      www.OpenFOAM.org                      |
|    \\/     M anipulation  |                                                 |
\*---------------------------------------------------------------------------*/
FoamFile
{
    version     2.0;
    format      ascii;
    class       surfaceScalarField;
    location    "0.96";
    object      phi;
}
// * * * * * * * * * * * * * * * * * * * * * * * * * * * * * * * * * * * * * //

dimensions      [1 0 -1 0 0 0 0];

internalField   nonuniform List<scalar> 
150500
(
0.00172622
1.21788e-05
1.70406e-10
0.00186311
7.90025e-06
1.75831e-10
0.00264727
7.20587e-05
5.07409e-10
0.00235676
7.42764e-05
-3.03064e-11
0.00212903
6.29166e-05
-3.07619e-11
0.00190657
6.20483e-05
-4.93031e-12
0.00172531
5.95453e-05
2.83464e-11
0.001606
5.72962e-05
4.74754e-11
0.00152398
5.62813e-05
4.26446e-11
0.00144861
5.56635e-05
-3.77232e-12
0.00137244
5.49358e-05
-3.28144e-11
0.00130375
5.48247e-05
-2.41549e-11
0.00124857
5.61338e-05
-3.95917e-11
0.00127042
5.85796e-05
-4.27983e-11
0.00132388
6.45135e-05
5.44214e-11
0.00134001
6.934e-05
1.05968e-10
0.00130243
7.251e-05
1.23976e-10
0.00123002
7.57131e-05
1.27242e-10
0.00111445
7.81917e-05
7.77929e-11
0.000975418
8.38801e-05
8.73619e-11
0.000789184
9.1377e-05
1.94013e-10
0.000576732
0.000101605
2.16512e-10
0.0003929
0.000113272
9.90979e-12
0.000218779
0.000121456
3.22808e-11
0.000129134
1.66335e-10
0.00173153
-2.85929e-06
-1.94327e-10
0.00189068
5.01462e-06
-2.84327e-11
0.00269673
0.000129032
5.40682e-10
0.0023841
0.000153882
1.15731e-10
0.00214123
0.000132824
8.37255e-11
0.00191019
0.000127929
2.62573e-11
0.0017267
0.000120358
2.95436e-11
0.00160595
0.000115105
4.1896e-11
0.00152292
0.000112672
3.39109e-11
0.00144722
0.000111328
-1.93897e-12
0.00137144
0.000109924
-1.94942e-11
0.00130329
0.000109662
-3.15804e-11
0.00124893
0.000111697
-8.38857e-11
0.00127168
0.000117315
1.33003e-10
0.00132626
0.000127587
-7.6642e-11
0.00134389
0.000137321
1.40192e-11
0.00130706
0.000143953
8.23102e-11
0.00123736
0.000150397
1.74192e-10
0.00112082
0.000156101
1.63926e-10
0.000981725
0.000167742
1.71869e-11
0.00079611
0.000183667
1.58669e-10
0.000583077
0.000205673
2.4988e-10
0.000396159
0.000230347
2.45533e-11
0.000218846
0.000246517
3.88479e-11
0.000258984
1.66388e-10
0.00172849
-0.00037204
3.20511e-10
0.00192389
6.9135e-07
-1.35009e-09
0.00274178
0.000187502
3.60596e-10
0.00240011
0.000238942
1.01781e-10
0.00214757
0.000203615
7.04917e-11
0.00191541
0.000191953
1.29973e-11
0.00173271
0.00017976
2.90969e-11
0.00161086
0.000171427
4.11436e-11
0.00152671
0.000167705
2.97941e-11
0.0014508
0.000165822
1.54832e-12
0.00137583
0.000164057
-1.53385e-12
0.0013085
0.000163787
-2.46788e-11
0.00125474
0.000166326
-8.59443e-11
0.00127603
0.000175374
1.76356e-10
0.00133413
0.000189949
-3.60466e-11
0.00135328
0.00020436
-5.17514e-11
0.00131593
0.000214994
8.87587e-11
0.00124998
0.000224935
2.33323e-10
0.00113083
0.000233952
2.17758e-10
0.000991268
0.000250745
-6.8573e-11
0.000807296
0.000277171
1.1375e-10
0.000595593
0.000312438
2.97603e-10
0.000405624
0.000351567
5.72567e-11
0.000223494
0.000376955
5.5128e-11
0.00039513
1.7172e-10
0.00169985
-7.0102e-06
5.81817e-10
0.00186443
1.00231e-05
1.82938e-09
0.00274673
0.000245438
4.12001e-10
0.00239904
0.000321735
-1.32813e-10
0.00215161
0.000266154
-9.50609e-11
0.00192297
0.000251395
-2.71802e-11
0.00174238
0.000236142
2.00312e-11
0.0016193
0.000225522
3.55161e-11
0.00153358
0.000220931
2.82568e-11
0.00145724
0.00021895
-1.21892e-12
0.00138289
0.000217314
-5.70005e-12
0.00131614
0.000217091
-1.25048e-11
0.00126347
0.000219747
-4.91258e-11
0.0012807
0.000231355
1.07219e-10
0.0013475
0.000251567
6.0042e-11
0.00136782
0.000269422
-8.4929e-11
0.00132849
0.000285828
7.59771e-11
0.00126806
0.00030003
1.20332e-10
0.00114577
0.000312944
1.2192e-10
0.0010052
0.000334055
3.7733e-11
0.000824564
0.000370858
1.11995e-10
0.000615398
0.000421721
2.76493e-10
0.000421764
0.000477519
8.14691e-11
0.000231986
0.000515208
7.67907e-11
0.000541487
1.83707e-10
0.00174895
-3.90447e-05
-1.05377e-10
0.00195402
1.9672e-06
3.40019e-11
0.00288527
0.000280875
5.44317e-10
0.00246356
0.000424499
-1.72329e-11
0.0021813
0.000340884
-2.82416e-11
0.00194104
0.000311589
-1.82941e-11
0.00175992
0.000290606
2.13303e-11
0.0016342
0.000278452
3.33435e-11
0.00154512
0.000273254
2.98201e-11
0.00146729
0.000271238
-3.65816e-12
0.00139299
0.000269921
-3.31139e-11
0.00132636
0.000269766
-5.07989e-12
0.00127586
0.000272516
-5.99594e-12
0.00128642
0.000285707
3.11346e-11
0.00135912
0.000310564
1.42756e-11
0.0013847
0.000334203
5.1062e-11
0.0013509
0.000356226
9.64331e-11
0.00129114
0.000376129
7.74503e-11
0.00116544
0.000393087
5.85219e-11
0.00102372
0.000418222
5.95554e-11
0.000847131
0.000464352
1.77623e-10
0.000642321
0.000532439
2.5538e-10
0.000444494
0.000608749
1.08963e-10
0.000244702
0.000663768
9.75623e-11
0.000702895
1.93945e-10
0.00175862
-4.26092e-05
1.18313e-10
0.00195797
-3.57625e-06
1.60264e-10
0.0027124
0.00027645
4.00079e-10
0.00248897
0.000543571
1.63911e-10
0.00222175
0.000426187
4.14213e-12
0.00196309
0.000367384
-5.91373e-11
0.00178268
0.000343005
1.17191e-11
0.00165393
0.000331021
2.88916e-11
0.00156043
0.000325472
3.01749e-11
0.00148064
0.000323413
-2.93415e-13
0.00140621
0.000322512
-5.23863e-11
0.00133915
0.000322279
9.52273e-12
0.00129143
0.00032535
-3.89969e-12
0.00129345
0.000339115
-1.60428e-11
0.00136673
0.000367551
-5.04951e-13
0.00140325
0.000400195
4.0974e-11
0.00137662
0.000428599
1.09348e-10
0.00131639
0.000450257
8.72908e-11
0.00118746
0.000471523
7.33256e-11
0.0010472
0.000500079
7.90096e-11
0.000876691
0.000557003
1.95119e-10
0.000678015
0.000644158
2.35249e-10
0.00047592
0.00074516
1.54042e-10
0.000263486
0.000825441
1.21589e-10
0.000886265
1.99377e-10
0.00177969
-4.67116e-05
-8.75344e-11
0.00190132
-1.20067e-05
3.62858e-12
0.00246345
0.000234173
2.2182e-10
0.0024496
0.000662642
2.91513e-10
0.00231695
0.000539888
1.53839e-10
0.00200016
0.000429047
-8.23473e-11
0.00181395
0.000398881
8.3036e-12
0.00167992
0.000386133
2.48413e-11
0.00158008
0.000379349
2.57754e-11
0.00149715
0.00037652
1.88186e-12
0.001422
0.000375745
-4.63505e-11
0.00135445
0.000375253
3.12123e-11
0.00130911
0.000379001
-4.37759e-11
0.00130297
0.00039259
-3.28987e-12
0.00137502
0.000423593
-9.14931e-12
0.00142384
0.000465069
-4.46576e-11
0.00141018
0.000495942
1.49479e-10
0.00134497
0.000522165
1.13791e-10
0.00121297
0.000548627
9.42493e-11
0.0010755
0.000580765
1.10603e-10
0.000912493
0.00064698
1.95709e-10
0.000722917
0.000753811
2.13547e-10
0.00051882
0.000885117
1.81944e-10
0.000292566
0.00100219
1.36363e-10
0.0011023
1.98659e-10
0.00181475
-6.87308e-05
2.66608e-11
0.0018623
-3.25132e-05
5.49962e-11
0.00233695
0.000153111
1.58264e-10
0.00242303
0.000741034
2.29896e-10
0.00234383
0.000656298
1.47913e-10
0.00205107
0.000525701
-2.48287e-11
0.00185475
0.000469384
1.02439e-11
0.00171266
0.000448228
2.26752e-11
0.00160447
0.000436709
1.88603e-11
0.00151683
0.000431942
-2.4711e-12
0.00144002
0.000430481
-2.78402e-11
0.00137197
0.000429844
2.9797e-11
0.00132909
0.000434429
-6.93013e-11
0.00131514
0.000447545
3.36264e-11
0.00138464
0.000479226
-7.14374e-12
0.00144636
0.000526051
-6.93179e-11
0.0014448
0.000560193
1.73426e-10
0.00137597
0.00059072
5.57788e-11
0.00125149
0.000623537
1.53905e-10
0.00111068
0.000658405
1.67826e-10
0.000956853
0.000731818
1.90707e-10
0.000781051
0.000858232
1.97364e-10
0.000579205
0.00102579
1.84982e-10
0.000338417
0.00119448
1.3666e-10
0.00136829
1.85956e-10
0.00187045
-7.52731e-05
1.85366e-12
0.00177752
-5.54838e-05
4.08132e-11
0.00223104
6.69286e-05
1.16727e-10
0.00242799
0.000742816
2.0246e-10
0.00234901
0.000749961
1.29144e-10
0.00209844
0.000633224
4.6611e-12
0.00190307
0.000551986
1.70348e-11
0.00175231
0.00051812
2.28138e-11
0.00163301
0.000500254
1.28395e-11
0.00153926
0.00049174
-1.05214e-11
0.00146022
0.00048788
-1.65979e-11
0.00139232
0.000486536
1.01154e-11
0.00135127
0.000491133
-7.98919e-11
0.00133025
0.000502691
8.79311e-11
0.00139688
0.000532705
-6.64583e-11
0.00146688
0.00058221
1.1627e-11
0.00147596
0.000623768
6.48745e-11
0.00141704
0.000655255
5.52555e-11
0.00130316
0.00069355
9.75277e-11
0.00115489
0.000731316
2.09432e-10
0.00101134
0.000811643
2.29304e-10
0.000854491
0.000955123
1.3528e-10
0.000662369
0.00115918
1.64456e-10
0.000415441
0.00139045
1.38329e-10
0.00171753
1.6564e-10
0.00195963
-8.55321e-11
-9.2581e-05
0.00178732
-5.7174e-11
-0.000104264
0.00209271
6.04257e-11
2.27232e-06
0.0024931
2.45111e-10
0.000733029
0.00241312
1.33159e-10
0.000855562
0.0021605
8.64551e-12
0.000734585
0.00195948
1.64337e-11
0.000642818
0.00179538
2.42576e-11
0.000598902
0.00166375
1.23932e-11
0.000572758
0.00156285
-5.49491e-12
0.000557581
0.0014816
-1.059e-11
0.000549081
0.00141478
-2.62175e-12
0.000545357
0.00137519
-8.47294e-11
0.00054835
0.00134824
1.1462e-10
0.000556862
0.00140743
-2.11264e-10
0.000584617
0.0014849
1.59565e-10
0.000634426
0.00150734
3.77951e-11
0.000683569
0.0014628
3.71642e-11
0.000714364
0.00136042
1.17767e-10
0.000752604
0.0012129
1.65852e-10
0.000802451
0.00108167
1.77334e-10
0.000881355
0.00094817
1.34877e-10
0.00103244
0.000782067
1.36331e-10
0.00127194
0.000559933
1.39878e-10
0.00155837
1.45327e-10
0.00221599
0.00172636
1.13889e-05
-1.35551e-10
0.00186352
7.7544e-06
-3.48788e-11
0.00264807
7.18957e-05
1.35397e-10
0.00235728
7.43043e-05
-3.67828e-11
0.0021293
6.30159e-05
-2.80489e-11
0.00190662
6.21089e-05
-3.22883e-11
0.00172525
5.95751e-05
-3.28207e-11
0.00160591
5.73279e-05
-3.57872e-11
0.00152385
5.63165e-05
-3.67762e-11
0.00144843
5.57069e-05
1.15418e-11
0.00137225
5.49868e-05
3.18294e-12
0.00130354
5.48587e-05
-1.53785e-11
0.0012484
5.60937e-05
4.60871e-11
0.00127035
5.87217e-05
-1.30354e-10
0.00132372
6.43923e-05
3.00735e-11
0.00133985
6.92577e-05
-6.60225e-11
0.00130228
7.24694e-05
-4.96453e-11
0.00123004
7.56435e-05
-6.48742e-11
0.00111461
7.81342e-05
1.13121e-10
0.00097558
8.37988e-05
2.43518e-10
0.000789292
9.13725e-05
-4.31913e-11
0.000576799
0.000101653
-3.1078e-10
0.000392918
0.000113295
-6.38469e-11
0.00021881
0.000121471
2.7088e-12
0.000129142
-4.66657e-11
0.00173141
-2.29942e-06
2.02225e-10
0.00189039
4.89777e-06
1.65641e-10
0.00269661
0.000129048
1.59619e-10
0.00238398
0.000153874
-1.9053e-10
0.00214119
0.000132788
-1.55032e-10
0.00191028
0.000127895
-6.76353e-11
0.00172687
0.000120336
-3.32584e-11
0.00160617
0.000115089
-2.88105e-11
0.00152321
0.000112651
-2.84687e-11
0.00144757
0.000111297
3.95558e-12
0.00137186
0.000109901
-5.8488e-12
0.00130373
0.000109614
-7.36944e-12
0.00124935
0.000111592
7.13068e-11
0.0012717
0.000117223
-2.79174e-10
0.00132674
0.00012744
1.29113e-10
0.00134441
0.000137235
2.95185e-11
0.00130749
0.000143966
-5.06292e-12
0.00123775
0.000150462
-8.24852e-11
0.00112133
0.000156157
-1.42201e-11
0.000982077
0.000167769
2.84086e-10
0.000796273
0.000183729
-2.71085e-11
0.000583171
0.000205758
-3.09954e-10
0.000396184
0.000230414
-7.4416e-11
0.000218874
0.000246564
-6.06781e-12
0.000259003
-5.23176e-11
0.00177877
-0.000531755
-2.71498e-12
0.00192823
1.08495e-06
3.96741e-10
0.00274176
0.000187582
1.8128e-10
0.00240004
0.000238849
-1.76499e-10
0.00214759
0.000203462
-1.35265e-10
0.00191551
0.000191861
-5.17299e-11
0.00173287
0.000179691
-3.06736e-11
0.00161107
0.000171359
-2.53487e-11
0.001527
0.000167631
-2.47021e-11
0.00145119
0.000165747
-3.25334e-12
0.00137622
0.000163958
-1.29043e-11
0.00130885
0.000163654
-6.82676e-12
0.00125506
0.000166182
6.23066e-11
0.00127583
0.000175126
-2.60118e-10
0.0013345
0.000189786
4.76926e-11
0.00135357
0.000204223
9.2234e-11
0.00131607
0.000215016
7.40678e-12
0.00125022
0.00022509
-1.04523e-10
0.00113126
0.000234169
-6.21296e-11
0.000991535
0.000250976
2.83588e-10
0.000807362
0.000277265
-1.3668e-11
0.000595633
0.000312492
-2.97949e-10
0.00040562
0.000351661
-9.98952e-11
0.000223501
0.000377027
-2.67595e-11
0.000395156
-6.91258e-11
0.00169192
-7.06726e-06
-3.14043e-10
0.0018698
9.774e-06
-5.27342e-10
0.00274857
0.000245388
2.24764e-10
0.00239977
0.000321806
-4.10917e-12
0.00215191
0.000266168
-1.13436e-11
0.0019231
0.000251349
-1.55469e-11
0.0017425
0.000236067
-2.42424e-11
0.00161944
0.00022543
-1.93534e-11
0.00153377
0.000220827
-2.44461e-11
0.00145748
0.000218842
-4.82641e-12
0.00138313
0.000217175
-1.42897e-12
0.00131632
0.000216925
-1.01199e-11
0.00126358
0.000219632
1.13369e-11
0.00128032
0.000231024
-1.31061e-10
0.00134741
0.000251356
-5.52471e-11
0.00136761
0.000269459
7.67967e-11
0.00132828
0.000285863
2.25255e-11
0.00126789
0.000300204
-2.55917e-12
0.00114585
0.000313171
1.9468e-11
0.00100535
0.000334295
1.00039e-10
0.00082457
0.000371026
-4.45465e-11
0.000615384
0.000421786
-2.29416e-10
0.000421716
0.000477619
-1.17155e-10
0.000231965
0.000515282
-5.47133e-11
0.000541502
-9.57116e-11
0.00174894
-3.88767e-05
6.13477e-11
0.00195388
1.95557e-06
8.61981e-11
0.00288555
0.000280766
1.85733e-10
0.00246376
0.0004245
-1.17891e-10
0.00218145
0.000340854
-8.75952e-11
0.00194112
0.000311535
-3.36457e-11
0.00175995
0.000290527
-2.71476e-11
0.00163423
0.000278344
-1.79637e-11
0.00154518
0.000273132
-2.40396e-11
0.00146736
0.000271118
-3.56622e-12
0.00139307
0.000269779
2.61655e-11
0.00132642
0.000269603
-1.63552e-11
0.00127587
0.000272405
-4.41883e-11
0.00128646
0.000285542
-2.16947e-11
0.0013592
0.000310471
-3.8237e-12
0.0013845
0.000334297
-5.82418e-11
0.00135061
0.00035637
1.37101e-11
0.00129083
0.000376356
6.8807e-11
0.00116521
0.00039331
9.66655e-11
0.00102356
0.000418419
3.91274e-11
0.000846989
0.00046448
-9.81498e-11
0.000642226
0.000532485
-1.82795e-10
0.000444395
0.000608825
-1.36728e-10
0.000244649
0.000663819
-8.90844e-11
0.000702882
-1.23252e-10
0.00175867
-4.27703e-05
-8.39288e-11
0.00195806
-3.61172e-06
-1.53593e-11
0.00271208
0.000276263
9.2502e-11
0.00248916
0.00054364
1.31394e-11
0.00222213
0.000426234
-4.57819e-11
0.0019632
0.000367356
-2.97617e-11
0.0017827
0.000342938
-2.09911e-11
0.00165393
0.000330924
-1.48185e-11
0.00156043
0.000325362
-2.13549e-11
0.00148061
0.000323299
-3.32317e-12
0.00140616
0.000322393
4.11006e-11
0.00133908
0.000322169
-3.86202e-11
0.00129128
0.000325268
-2.44881e-11
0.00129348
0.000339053
2.16289e-12
0.0013668
0.000367594
1.93582e-12
0.00140304
0.000400268
-8.33308e-12
0.00137636
0.000428779
-1.37487e-11
0.00131605
0.000450537
9.8584e-12
0.00118717
0.000471741
6.76667e-11
0.00104693
0.000500229
3.95257e-11
0.000876447
0.000557051
-1.04541e-10
0.00067784
0.00064414
-1.57568e-10
0.000475765
0.000745167
-1.66942e-10
0.000263402
0.000825443
-1.24402e-10
0.00088621
-1.54439e-10
0.00177969
-4.66212e-05
2.58662e-11
0.00190104
-1.2009e-05
5.45593e-11
0.00246292
0.000234001
6.86028e-11
0.00244949
0.000662567
2.99824e-11
0.00231717
0.00053993
3.92512e-12
0.00200026
0.000429041
-3.8302e-11
0.00181397
0.000398825
-1.98459e-11
0.00167992
0.000386057
-8.74392e-12
0.00158007
0.000379264
-1.40526e-11
0.00149707
0.000376432
-1.67014e-12
0.00142188
0.000375668
3.37399e-11
0.00135433
0.000375201
-7.5748e-11
0.00130888
0.000378961
3.45246e-11
0.00130299
0.00039262
-2.59799e-11
0.00137511
0.000423763
9.63145e-13
0.00142356
0.000465192
9.65442e-11
0.00140968
0.000496246
-7.70519e-11
0.00134439
0.000522344
-2.16315e-11
0.00121252
0.000548702
2.12343e-11
0.00107516
0.000580791
1.02422e-11
0.000912218
0.000646942
-9.21796e-11
0.00072272
0.000753728
-1.3063e-10
0.000518637
0.000885039
-1.76716e-10
0.00029246
0.00100214
-1.45687e-10
0.0011022
-1.74875e-10
0.00181479
-6.87568e-05
-7.57138e-11
0.0018623
-3.25289e-05
-2.34919e-11
0.00233689
0.000152932
1.99591e-11
0.00242306
0.000740895
2.69693e-11
0.00234389
0.000656315
2.9631e-11
0.00205116
0.000525751
7.96234e-12
0.00185477
0.000469362
-4.56089e-12
0.00171267
0.000448182
1.69232e-12
0.00160446
0.000436663
-3.01247e-12
0.00151676
0.000431896
4.39942e-12
0.00143989
0.000430457
2.05616e-11
0.00137182
0.000429834
-6.74478e-11
0.00132887
0.000434443
4.43538e-11
0.00131524
0.000447662
-5.95748e-11
0.0013849
0.000479531
2.0165e-11
0.00144615
0.000526381
1.14263e-10
0.00144411
0.000560342
-1.14218e-10
0.00137524
0.000590697
3.86334e-11
0.00125048
0.000623416
-5.79648e-11
0.00111016
0.000658251
-6.14496e-11
0.000956564
0.00073166
-7.65625e-11
0.000780886
0.000858052
-1.06707e-10
0.000579035
0.00102565
-1.673e-10
0.00033831
0.00119438
-1.4904e-10
0.00136816
-1.785e-10
0.00187053
-7.53542e-05
-7.10734e-11
0.00177747
-5.55514e-05
-2.15345e-11
0.00223099
6.6783e-05
-1.2174e-11
0.00242806
0.000742633
-7.78823e-12
0.00234909
0.00074999
6.53012e-12
0.00209852
0.000633277
3.13685e-11
0.00190311
0.000551991
6.71555e-12
0.00175232
0.000518105
8.90018e-12
0.001633
0.000500236
5.26438e-12
0.0015392
0.000491743
1.11174e-11
0.00146011
0.00048791
1.47245e-11
0.00139214
0.000486574
-3.45958e-11
0.00135104
0.000491224
4.69842e-11
0.00133036
0.000502896
-1.02326e-10
0.0013972
0.00053313
7.58188e-11
0.00146687
0.000582673
3.87221e-11
0.00147525
0.000623821
-9.54414e-12
0.00141633
0.000655117
3.40976e-11
0.00130199
0.000693289
-1.31695e-11
0.00115409
0.000730957
-9.79771e-11
0.00101106
0.000811377
-1.1287e-10
0.00085436
0.000954896
-4.90387e-11
0.000662236
0.00115897
-1.4069e-10
0.000415347
0.00139033
-1.43412e-10
0.00171737
-1.68036e-10
0.00195969
-5.66102e-11
-9.25779e-05
0.00178742
-4.68344e-11
-0.000104309
0.00209246
-1.07683e-11
2.19225e-06
0.002493
5.4145e-11
0.000732829
0.00241327
1.72173e-11
0.000855579
0.0021606
1.06372e-11
0.000734647
0.00195953
1.90082e-11
0.000642848
0.0017954
1.23739e-11
0.000598909
0.00166375
7.94684e-12
0.00057277
0.00156281
9.41086e-12
0.00055762
0.00148151
1.06609e-11
0.000549155
0.00141461
-8.7379e-12
0.000545442
0.001375
5.62108e-11
0.00054849
0.00134829
-9.57971e-11
0.000557097
0.00140798
1.80743e-10
0.000585057
0.00148501
-8.44342e-11
0.000634874
0.00150679
-5.59845e-12
0.000683654
0.00146211
2.69188e-11
0.000714215
0.00135936
-3.58087e-11
0.000752283
0.00121218
-6.8155e-11
0.000801986
0.00108132
-7.65993e-11
0.000881011
0.000948053
-4.81585e-11
0.00103221
0.00078196
-1.10336e-10
0.00127168
0.000559853
-1.26144e-10
0.00155816
-1.48379e-10
0.00221581
0.00172627
1.19945e-05
9.51874e-12
0.00186329
7.86319e-06
6.25217e-11
0.00264781
7.20169e-05
2.8758e-10
0.00235708
7.42946e-05
-5.91774e-11
0.00212922
6.29438e-05
-5.52923e-11
0.00190665
6.20661e-05
-4.45989e-11
0.00172531
5.95553e-05
-3.9297e-11
0.00160596
5.73117e-05
-4.96587e-11
0.0015239
5.63089e-05
-5.87802e-11
0.00144848
5.57003e-05
-7.54768e-11
0.00137226
5.49843e-05
-8.90719e-11
0.00130357
5.48856e-05
-8.99529e-11
0.00124839
5.61758e-05
-7.64993e-11
0.00127048
5.86964e-05
-8.31198e-11
0.00132366
6.45363e-05
-4.2985e-11
0.0013397
6.93477e-05
-2.95722e-12
0.00130199
7.24789e-05
2.34714e-11
0.00122968
7.56457e-05
4.18842e-11
0.00111407
7.80632e-05
8.34332e-11
0.00097523
8.37721e-05
1.13027e-10
0.000789154
9.13269e-05
1.01418e-10
0.000576666
0.000101593
4.63733e-11
0.000392835
0.000113246
1.32663e-11
0.000218766
0.000121431
1.47496e-11
0.00012911
3.62155e-11
0.00173151
-2.51002e-06
-1.48764e-11
0.00189075
4.89951e-06
3.24181e-11
0.00269711
0.000129018
2.96173e-10
0.00238429
0.000153919
-6.28771e-11
0.00214135
0.000132831
-4.99359e-11
0.00191028
0.000127929
-4.14856e-11
0.00172676
0.000120357
-3.72648e-11
0.001606
0.000115114
-4.99443e-11
0.00152295
0.000112698
-6.01538e-11
0.00144724
0.000111364
-7.51057e-11
0.00137145
0.00010998
-8.45618e-11
0.00130331
0.000109739
-8.72703e-11
0.00124895
0.000111755
-7.69835e-11
0.00127179
0.000117434
-4.73094e-11
0.00132615
0.000127626
-4.36136e-11
0.00134383
0.000137334
-5.45639e-12
0.00130686
0.000143916
2.90829e-11
0.0012372
0.000150289
4.50682e-11
0.00112062
0.000155953
8.13315e-11
0.000981648
0.000167614
6.53332e-11
0.000796119
0.000183607
9.63491e-11
0.000583035
0.000205657
5.37709e-11
0.000396102
0.000230314
1.70582e-11
0.000218829
0.000246481
1.79447e-11
0.000258936
3.89232e-11
0.00177006
-0.000532959
-9.46209e-12
0.00192796
9.38789e-07
9.16886e-11
0.00274216
0.00018754
3.0756e-10
0.00240024
0.000238947
-6.24038e-11
0.00214768
0.000203573
-5.86779e-11
0.0019155
0.000191928
-4.25002e-11
0.00173278
0.000179744
-3.53239e-11
0.00161092
0.000171422
-4.84933e-11
0.00152677
0.00016772
-5.90677e-11
0.00145088
0.000165854
-7.16119e-11
0.0013759
0.000164106
-7.92778e-11
0.00130858
0.000163857
-8.58833e-11
0.00125482
0.00016638
-7.91124e-11
0.00127611
0.000175479
-3.67723e-11
0.00133413
0.000189967
-4.20119e-11
0.00135333
0.000204351
-1.70843e-11
0.00131587
0.000214959
3.77893e-11
0.00124992
0.000224865
4.94096e-11
0.00113078
0.000233853
7.28522e-11
0.000991249
0.000250643
5.03832e-11
0.000807288
0.000277089
8.70004e-11
0.00059555
0.000312398
6.46595e-11
0.000405573
0.00035153
2.4359e-11
0.000223476
0.000376914
2.40268e-11
0.000395066
4.43567e-11
0.00169067
-7.0283e-06
-1.11602e-11
0.0018674
9.87612e-06
-9.01675e-12
0.00274789
0.000245423
2.91196e-10
0.00239951
0.000321822
-7.38856e-11
0.00215184
0.000266169
-6.95287e-11
0.00192308
0.00025138
-5.3217e-11
0.00174246
0.000236121
-3.5173e-11
0.00161937
0.000225508
-4.70948e-11
0.00153365
0.000220934
-5.60578e-11
0.00145733
0.000218973
-6.72461e-11
0.00138298
0.000217357
-7.93769e-11
0.00131622
0.000217151
-8.52415e-11
0.00126352
0.000219808
-7.95803e-11
0.00128058
0.000231369
-2.82798e-11
0.00134743
0.000251592
-3.81162e-11
0.00136774
0.000269419
-3.96e-11
0.0013284
0.000285763
4.55737e-11
0.00126794
0.00029995
4.56066e-11
0.00114576
0.000312862
7.33197e-11
0.00100525
0.000333999
7.68909e-11
0.000824576
0.000370817
7.60892e-11
0.000615373
0.00042167
6.97612e-11
0.000421723
0.000477486
3.3171e-11
0.00023197
0.000515167
3.26788e-11
0.000541412
5.19935e-11
0.00174897
-3.8978e-05
-1.25879e-13
0.00195406
1.96209e-06
3.72106e-11
0.00288581
0.000280772
2.55352e-10
0.00246387
0.000424607
-7.54468e-11
0.0021815
0.000340901
-6.49434e-11
0.00194115
0.000311567
-4.48136e-11
0.00175999
0.000290581
-3.21682e-11
0.00163425
0.000278427
-4.44444e-11
0.00154517
0.000273241
-5.21082e-11
0.00146737
0.00027125
-6.53086e-11
0.00139309
0.000269949
-8.15435e-11
0.00132644
0.000269802
-7.78386e-11
0.00127597
0.000272552
-6.81047e-11
0.00128652
0.000285773
-6.1738e-11
0.00135923
0.000310591
-4.17852e-11
0.00138476
0.000334186
-2.28474e-11
0.0013509
0.000356193
4.24921e-11
0.00129106
0.000376094
3.80067e-11
0.00116541
0.000393059
4.64237e-11
0.00102375
0.000418208
5.57975e-11
0.000847138
0.000464324
7.09441e-11
0.000642301
0.000532384
7.7473e-11
0.000444458
0.000608717
4.27923e-11
0.000244685
0.000663727
4.07605e-11
0.000702817
5.91868e-11
0.00175867
-4.26929e-05
-2.40695e-12
0.00195794
-3.60346e-06
4.59742e-11
0.00271162
0.000276251
1.68458e-10
0.00248909
0.00054373
1.48247e-11
0.00222223
0.000426282
-3.6156e-11
0.00196324
0.000367373
-6.60399e-11
0.00178277
0.000342981
-3.34748e-11
0.00165399
0.000330993
-4.09092e-11
0.00156048
0.000325453
-4.80269e-11
0.00148071
0.000323412
-6.46368e-11
0.00140629
0.000322527
-8.11622e-11
0.00133921
0.000322301
-6.36234e-11
0.00129149
0.000325379
-7.45985e-11
0.00129341
0.000339126
-6.46852e-11
0.00136662
0.000367538
-4.87173e-11
0.00140329
0.000400179
-2.78961e-11
0.00137669
0.000428627
4.35516e-11
0.00131643
0.000450261
4.28669e-11
0.00118747
0.000471533
4.59354e-11
0.00104722
0.000500072
5.05117e-11
0.000876689
0.000556979
6.88352e-11
0.000677986
0.000644107
7.9686e-11
0.00047588
0.000745121
5.67956e-11
0.000263467
0.000825396
4.96239e-11
0.000886187
6.47111e-11
0.00177973
-4.669e-05
-1.56729e-11
0.00190105
-1.20294e-05
1.3951e-11
0.00246281
0.000233918
7.83583e-11
0.00244949
0.000662681
6.9947e-11
0.00231729
0.000540037
1.38715e-11
0.00200034
0.000429084
-6.59761e-11
0.00181405
0.000398869
-3.0871e-11
0.00167999
0.000386112
-3.65126e-11
0.00158013
0.00037933
-4.39405e-11
0.0014972
0.000376509
-6.22601e-11
0.00142206
0.000375752
-7.87487e-11
0.0013545
0.000375287
-4.74134e-11
0.00130915
0.00037904
-9.48154e-11
0.00130283
0.000392585
-4.21689e-11
0.0013748
0.000423547
-4.2275e-11
0.00142379
0.000465103
-7.94214e-11
0.00141025
0.000495975
6.40887e-11
0.00134502
0.000522207
5.43374e-11
0.00121302
0.000548662
4.4626e-11
0.00107554
0.000580776
4.91161e-11
0.000912487
0.000646952
7.50711e-11
0.000722882
0.000753754
7.34079e-11
0.000518777
0.000885062
5.80961e-11
0.000292543
0.00100215
5.27157e-11
0.00110222
6.76319e-11
0.00181483
-6.87564e-05
-2.15471e-11
0.00186219
-3.25466e-05
-2.11898e-13
0.00233671
0.000152828
4.98591e-11
0.00242304
0.000740881
4.81057e-11
0.0023439
0.000656362
3.03993e-11
0.00205123
0.00052582
-2.84424e-11
0.00185485
0.000469413
-2.59485e-11
0.00171275
0.000448225
-3.05861e-11
0.00160454
0.000436698
-4.00921e-11
0.00151689
0.000431931
-5.82053e-11
0.00144008
0.000430487
-7.53387e-11
0.00137202
0.000429875
-4.78991e-11
0.00132914
0.000434474
-9.33344e-11
0.00131509
0.000447571
-3.1433e-11
0.00138453
0.000479233
-5.50448e-11
0.00144635
0.000526107
-4.65467e-11
0.00144477
0.000560288
8.41304e-11
0.00137597
0.000590759
2.19374e-11
0.00125151
0.000623564
7.23135e-11
0.00111066
0.000658393
7.01126e-11
0.000956842
0.000731763
7.14741e-11
0.000781032
0.000858156
6.75707e-11
0.00057917
0.00102573
5.53908e-11
0.000338396
0.00119443
5.08058e-11
0.00136822
6.50284e-11
0.00187061
-7.53491e-05
-2.08693e-11
0.00177735
-5.55684e-05
-4.37211e-12
0.00223087
6.67084e-05
9.50952e-12
0.00242811
0.000742565
2.02917e-11
0.0023491
0.000750018
9.13121e-12
0.00209858
0.000633339
5.18242e-12
0.00190319
0.00055203
-1.38209e-11
0.0017524
0.000518134
-2.43836e-11
0.00163307
0.000500253
-3.43432e-11
0.00153931
0.000491743
-5.44243e-11
0.00146027
0.000487891
-7.20001e-11
0.00139234
0.000486561
-5.73981e-11
0.0013513
0.000491176
-8.65566e-11
0.00133027
0.000502752
-1.36161e-11
0.0013969
0.000532784
-8.06807e-11
0.00146687
0.000582334
-2.53777e-11
0.00147589
0.000623846
4.07301e-11
0.001417
0.000655291
2.99009e-11
0.00130303
0.000693548
5.0208e-11
0.00115478
0.000731249
7.68563e-11
0.00101131
0.000811557
7.6424e-11
0.000854485
0.000955025
4.76619e-11
0.000662353
0.0011591
4.91019e-11
0.000415427
0.00139041
4.91206e-11
0.00171747
5.8201e-11
0.00195975
-4.36207e-11
-9.25644e-05
0.00178755
-3.59001e-11
-0.000104333
0.00209231
6.73066e-12
2.15405e-06
0.00249294
6.18532e-11
0.000732679
0.00241347
2.37983e-11
0.000855632
0.00216066
-1.06825e-11
0.000734672
0.00195959
-6.69994e-12
0.000642869
0.00179546
-1.82076e-11
0.000598925
0.00166381
-3.15553e-11
0.00057277
0.0015629
-4.82089e-11
0.000557596
0.00148164
-6.78943e-11
0.000549103
0.00141478
-6.02106e-11
0.000545381
0.00137519
-8.36587e-11
0.000548389
0.00134828
-2.54166e-11
0.000556931
0.00140761
-9.4606e-11
0.000584731
0.00148497
4.78343e-12
0.000634601
0.0015073
4.30776e-11
0.000683683
0.00146274
3.05652e-11
0.000714416
0.00136024
5.49353e-11
0.000752585
0.00121276
6.42481e-11
0.000802346
0.0010816
6.16389e-11
0.000881239
0.000948161
4.546e-11
0.00103233
0.000782049
4.49958e-11
0.00127185
0.000559926
4.6852e-11
0.0015583
4.91018e-11
0.00221594
0.00172629
1.19549e-05
-3.76454e-11
0.00186334
7.85636e-06
4.28889e-11
0.00264799
7.20066e-05
3.95607e-10
0.00235718
7.42982e-05
-2.16952e-10
0.00212927
6.29473e-05
-1.844e-10
0.00190666
6.20686e-05
-1.20246e-10
0.00172529
5.95558e-05
-9.40657e-11
0.00160593
5.73119e-05
-5.16445e-11
0.00152386
5.6309e-05
-1.10402e-11
0.00144843
5.57007e-05
6.23015e-12
0.00137221
5.49868e-05
2.35674e-11
0.00130353
5.48885e-05
3.43955e-11
0.00124835
5.6173e-05
2.21376e-11
0.00127047
5.87045e-05
2.2751e-11
0.00132364
6.45317e-05
-7.19248e-12
0.00133972
6.93476e-05
-1.13139e-11
0.00130194
7.24793e-05
-2.4241e-11
0.00122968
7.56477e-05
-3.89172e-11
0.00111405
7.80517e-05
-4.18248e-11
0.000975234
8.37596e-05
-3.76222e-12
0.000789176
9.13246e-05
-2.77667e-11
0.000576672
0.000101597
-4.7179e-11
0.000392833
0.000113244
-1.17076e-11
0.00021877
0.000121427
-4.95233e-11
0.000129104
-1.27134e-10
0.00173151
-2.52851e-06
-2.36225e-11
0.00189075
4.9083e-06
5.2079e-11
0.00269724
0.000129014
3.8277e-10
0.00238436
0.000153918
-2.37554e-10
0.00214139
0.000132824
-1.98084e-10
0.00191029
0.000127925
-1.18327e-10
0.00172676
0.000120354
-8.77255e-11
0.00160598
0.000115111
-5.06115e-11
0.00152294
0.000112695
-1.15214e-11
0.00144722
0.000111361
5.6882e-12
0.00137144
0.00010998
2.31035e-11
0.00130331
0.000109736
3.43072e-11
0.00124895
0.000111745
2.31221e-11
0.00127179
0.00011743
1.75519e-11
0.00132617
0.000127621
-5.43342e-12
0.0013439
0.000137335
-1.31802e-11
0.00130686
0.000143925
-2.63103e-11
0.00123722
0.000150295
-4.40201e-11
0.00112063
0.000155952
-4.39111e-11
0.000981665
0.000167605
7.18129e-12
0.000796137
0.000183606
-2.35675e-11
0.00058304
0.00020566
-5.3466e-11
0.000396099
0.000230313
-1.35489e-11
0.000218833
0.000246475
-4.79139e-11
0.000258924
-1.22033e-10
0.00176833
-0.000526069
-7.40083e-11
0.00192785
9.28576e-07
5.75672e-10
0.00274235
0.000187529
4.50718e-10
0.00240035
0.000238957
-2.56113e-10
0.00214773
0.000203571
-2.09213e-10
0.00191552
0.000191925
-1.10001e-10
0.00173278
0.000179739
-7.92256e-11
0.00161091
0.000171416
-4.91958e-11
0.00152676
0.000167713
-1.23825e-11
0.00145087
0.000165848
5.51314e-12
0.0013759
0.000164097
2.18323e-11
0.00130858
0.000163841
3.24111e-11
0.00125483
0.00016636
2.06743e-11
0.00127611
0.000175479
6.42877e-12
0.00133415
0.00018995
-5.29211e-12
0.00135338
0.000204331
-2.10782e-11
0.00131584
0.000214952
-3.23559e-11
0.00124992
0.000224875
-5.55228e-11
0.00113079
0.000233865
-4.9793e-11
0.000991272
0.000250658
1.39981e-11
0.000807305
0.000277095
-1.39397e-11
0.000595555
0.000312404
-6.50776e-11
0.000405568
0.000351533
-1.81471e-11
0.000223477
0.000376908
-4.49774e-11
0.00039505
-1.11783e-10
0.00169105
-7.02995e-06
-2.28211e-10
0.00186729
9.88017e-06
-5.01624e-10
0.00274806
0.000245402
4.05728e-10
0.00239961
0.000321836
-1.97638e-10
0.00215189
0.000266169
-1.60733e-10
0.0019231
0.000251378
-8.60785e-11
0.00174246
0.000236117
-6.77107e-11
0.00161936
0.000225501
-4.6457e-11
0.00153363
0.000220926
-1.13637e-11
0.00145732
0.000218965