/*--------------------------------*- C++ -*----------------------------------*\
| =========                 |                                                 |
| \\      /  F ield         | OpenFOAM: The Open Source CFD Toolbox           |
|  \\    /   O peration     | Version:  4.1                                   |
|   \\  /    A nd           | Web:      www.OpenFOAM.org                      |
|    \\/     M anipulation  |                                                 |
\*---------------------------------------------------------------------------*/
FoamFile
{
    version     2.0;
    format      ascii;
    class       volScalarField;
    location    "0.96";
    object      T;
}
// * * * * * * * * * * * * * * * * * * * * * * * * * * * * * * * * * * * * * //

dimensions      [0 0 0 1 0 0 0];

internalField   nonuniform List<scalar> 
52500
(
0.0116988
0.603102
0.748853
0.872818
0.905488
0.938702
0.994169
1.05772
1.10371
1.13115
1.15307
1.16656
1.16781
1.14262
1.06327
1.00417
0.990948
1.00136
1.04489
1.08088
1.0974
1.11136
1.12288
1.11286
1.06099
0.00456485
0.592202
0.743876
0.872191
0.905785
0.938855
0.994772
1.05847
1.1043
1.13146
1.15294
1.16606
1.16728
1.14179
1.06227
1.00329
0.989897
1.00002
1.04336
1.07945
1.09607
1.10995
1.12131
1.11127
1.05935
0.000782256
0.574654
0.735056
0.873419
0.906972
0.938809
0.994258
1.05801
1.10407
1.13111
1.15232
1.16531
1.16691
1.14259
1.06386
1.00309
0.98824
0.997286
1.03974
1.07694
1.09434
1.10865
1.11981
1.10999
1.05795
0.0232764
0.572169
0.725093
0.876473
0.908413
0.938269
0.992438
1.05615
1.10281
1.12985
1.15089
1.16435
1.16703
1.14567
1.06894
1.00514
0.987376
0.994947
1.03544
1.07399
1.09187
1.10627
1.11749
1.10816
1.05657
0.0112772
0.531325
0.704255
0.875926
0.910698
0.937989
0.990122
1.0527
1.09974
1.12733
1.14835
1.16248
1.16675
1.14923
1.07641
1.00893
0.986133
0.992027
1.02901
1.06946
1.08852
1.10303
1.11448
1.10589
1.05496
0.0276074
0.503853
0.689708
0.872856
0.912155
0.938216
0.987229
1.04821
1.09564
1.12421
1.14483
1.15955
1.16578
1.1525
1.08562
1.01352
0.984717
0.988921
1.02104
1.06364
1.08401
1.0985
1.10988
1.10228
1.05267
0.0455303
0.474584
0.696915
0.863375
0.907999
0.939091
0.983064
1.04208
1.09026
1.12038
1.14079
1.15608
1.16432
1.15497
1.09519
1.01851
0.983448
0.985194
1.01103
1.05561
1.07811
1.09252
1.10426
1.09794
1.04916
0.0664115
0.443006
0.725531
0.852035
0.897978
0.936842
0.977024
1.0339
1.08344
1.11557
1.13633
1.15226
1.16241
1.15674
1.10552
1.02417
0.982661
0.980653
0.999962
1.04562
1.07015
1.08522
1.09572
1.09005
1.04323
0.10953
0.410204
0.785341
0.846967
0.887403
0.929714
0.968195
1.02349
1.07499
1.10982
1.13155
1.14805
1.16004
1.15784
1.11704
1.03172
0.982966
0.974105
0.988351
1.03325
1.06038
1.07507
1.08398
1.07948
1.03111
0.160058
0.370091
0.872628
0.851051
0.868189
0.916354
0.956312
1.01128
1.06598
1.10362
1.12684
1.14389
1.15722
1.15831
1.12738
1.04255
0.98437
0.967364
0.976926
1.01537
1.04648
1.0611
1.06763
1.06101
1.00636
0.0115923
0.602969
0.748765
0.872778
0.905469
0.938702
0.994202
1.05776
1.10374
1.1312
1.15312
1.16659
1.16781
1.14252
1.06311
1.00411
0.99093
1.00134
1.04488
1.08086
1.09737
1.11134
1.12288
1.11284
1.06098
0.00468317
0.592212
0.743824
0.872176
0.905792
0.938852
0.994722
1.05839
1.10422
1.13136
1.15284
1.166
1.16728
1.14207
1.06276
1.00348
0.989919
0.999953
1.04321
1.07937
1.09601
1.10993
1.1213
1.11124
1.05935
0.000522093
0.574235
0.735009
0.8734
0.906981
0.938814
0.994215
1.05794
1.10398
1.13097
1.15218
1.16526
1.16695
1.14294
1.06447
1.00345
0.988417
0.99734
1.03965
1.07692
1.09433
1.10863
1.11981
1.10997
1.05794
0.0230149
0.570148
0.724925
0.876425
0.908413
0.938274
0.992426
1.05611
1.10275
1.12975
1.15077
1.16428
1.16704
1.14593
1.06949
1.00553
0.987668
0.995206
1.03561
1.07406
1.09188
1.10624
1.11748
1.10813
1.05656
0.0113426
0.531297
0.704179
0.875909
0.910694
0.93799
0.990117
1.0527
1.09974
1.1273
1.14831
1.16244
1.16672
1.14915
1.07629
1.00891
0.986162
0.992099
1.02918
1.06956
1.08854
1.10301
1.11447
1.10587
1.05495
0.0275306
0.503732
0.689625
0.872813
0.912143
0.938213
0.987227
1.04821
1.09564
1.12419
1.14484
1.15954
1.16575
1.15237
1.08533
1.01333
0.984621
0.988866
1.02105
1.06362
1.08398
1.09847
1.10986
1.10225
1.05265
0.0455908
0.474571
0.696901
0.863338
0.907978
0.93909
0.983063
1.04208
1.09024
1.12036
1.1408
1.15608
1.16429
1.15481
1.09479
1.01829
0.983412
0.985237
1.01118
1.05564
1.07807
1.09247
1.10424
1.09792
1.04914
0.0663928
0.442945
0.725521
0.852008
0.897955
0.93683
0.977018
1.0339
1.08342
1.11555
1.13633
1.15226
1.16236
1.15654
1.10489
1.02383
0.982673
0.980848
1.00033
1.04589
1.07022
1.0852
1.09569
1.09002
1.04321
0.109529
0.410125
0.785364
0.846953
0.88738
0.929697
0.968183
1.02348
1.07497
1.10979
1.13154
1.14805
1.16001
1.15765
1.11635
1.03126
0.982975
0.974382
0.988805
1.03371
1.06057
1.07512
1.08396
1.07945
1.03109
0.160134
0.370081
0.872662
0.851062
0.868166
0.916332
0.956291
1.01127
1.06596
1.10359
1.12682
1.14389
1.15722
1.15816
1.12683
1.04196
0.984325
0.967622
0.977323
1.01587
1.04674
1.06119
1.06763
1.06098
1.00634
0.0116694
0.60298
0.748762
0.872798
0.905479
0.938695
0.994175
1.05773
1.10371
1.13116
1.15309
1.16656
1.16777
1.14239
1.06293
1.00408
0.990988
1.00147
1.04504
1.0809
1.0974
1.11137
1.12288
1.11284
1.06099
0.00457587
0.592101
0.743789
0.872175
0.905783
0.938848
0.994757
1.05845
1.10427
1.13145
1.15293
1.16604
1.16724
1.14168
1.06215
1.00329
0.989963
1.00012
1.04347
1.07947
1.09607
1.10995
1.12131
1.11125
1.05935
0.000530734
0.574184
0.734973
0.873407
0.906972
0.938805
0.994241
1.05799
1.10404
1.13107
1.15229
1.16529
1.16689
1.14256
1.06386
1.00312
0.988276
0.997317
1.03975
1.07692
1.09433
1.10866
1.11982
1.10997
1.05795
0.0232196
0.570858
0.724951
0.876443
0.908411
0.938266
0.992426
1.05613
1.10278
1.12982
1.15084
1.16431
1.16701
1.14575
1.06915
1.0053
0.98753
0.995106
1.03557
1.07404
1.09189
1.10626
1.11749
1.10814
1.05657
0.011306
0.531225
0.704143
0.875904
0.910695
0.937987
0.990108
1.05268
1.09973
1.12731
1.14832
1.16246
1.16674
1.14921
1.07638
1.00894
0.986164
0.992078
1.0291
1.06951
1.08853
1.10302
1.11448
1.10588
1.05497
0.0275806
0.503717
0.689637
0.872804
0.912141
0.938216
0.987215
1.04819
1.09563
1.12419
1.14481
1.15954
1.16578
1.15255
1.08574
1.01356
0.984691
0.98888
1.02098
1.0636
1.084
1.09849
1.10988
1.10227
1.05267
0.0455731
0.474505
0.696915
0.863319
0.907967
0.939091
0.983052
1.04207
1.09024
1.12037
1.14078
1.15606
1.16432
1.15504
1.09544
1.01864
0.983463
0.985173
1.01092
1.0555
1.07805
1.09249
1.10426
1.09794
1.04916
0.0664358
0.442917
0.725577
0.851992
0.897941
0.936824
0.977007
1.03388
1.08342
1.11556
1.13632
1.15223
1.16239
1.15675
1.10562
1.02424
0.982687
0.980662
0.99995
1.04558
1.07011
1.08519
1.09572
1.09005
1.04323
0.109573
0.410072
0.78546
0.84694
0.887367
0.929693
0.968172
1.02347
1.07497
1.1098
1.13154
1.14803
1.16003
1.15781
1.11699
1.03169
0.98297
0.974134
0.988405
1.0333
1.06039
1.07506
1.08398
1.07947
1.03112
0.16019
0.370066
0.872717
0.851082
0.86814
0.916311
0.956279
1.01125
1.06596
1.1036
1.12683
1.14388
1.15722
1.15828
1.12725
1.04239
0.984331
0.967388
0.97699
1.01548
1.04654
1.06112
1.06763
1.061
1.00636
0.0116635
0.602934
0.74873
0.872793
0.905476
0.938696
0.994184
1.05774
1.10372
1.13118
1.15311
1.16658
1.16778
1.14238
1.06291
1.00406
0.990983
1.00147
1.04505
1.0809
1.09738
1.11136
1.12288
1.11283
1.06098
0.00458493
0.592066
0.743759
0.872172
0.905781
0.938849
0.994761
1.05846
1.10428
1.13145
1.15293
1.16605
1.16725
1.1417
1.06216
1.00328
0.989951
1.00012
1.04347
1.07946
1.09605
1.10995
1.1213
1.11124
1.05935
0.000538212
0.574153
0.734937
0.873402
0.906971
0.938806
0.994244
1.05799
1.10404
1.13108
1.15229
1.1653
1.1669
1.14258
1.06389
1.00316
0.988315
0.997364
1.0398
1.07695
1.09434
1.10865
1.11981
1.10997
1.05794
0.0232214
0.570875
0.724916
0.876438
0.90841
0.938268
0.992429
1.05613
1.10279
1.12982
1.15085
1.16432
1.16703
1.14581
1.06925
1.00538
0.987582
0.995155
1.0356
1.07405
1.09188
1.10625
1.11749
1.10814
1.05656
0.0113062
0.531181
0.704103
0.875897
0.910694
0.937988
0.990112
1.05269
1.09974
1.12732
1.14832
1.16246
1.16674
1.14925
1.07647
1.00897
0.986131
0.992039
1.02907
1.0695
1.08853
1.10302
1.11448
1.10588
1.05496
0.0275823
0.503677
0.689621
0.872789
0.912135
0.938217
0.987219
1.0482
1.09564
1.12419
1.14482
1.15954
1.16578
1.15252
1.08566
1.0135
0.984624
0.988816
1.0209
1.06354
1.08396
1.09848
1.10988
1.10226
1.05266
0.045583
0.474475
0.696921
0.863303
0.907956
0.939092
0.983054
1.04207
1.09025
1.12038
1.14079
1.15607
1.16432
1.15496
1.0952
1.01851
0.983431
0.985187
1.01101
1.05553
1.07804
1.09248
1.10425
1.09794
1.04915
0.0664511
0.442892
0.725601
0.851981
0.89793
0.93682
0.977007
1.03388
1.08343
1.11557
1.13634
1.15226
1.1624
1.15668
1.10531
1.02407
0.98269
0.98076
1.00015
1.04575
1.07017
1.0852
1.09571
1.09004
1.04322
0.109593
0.410035
0.785507
0.846933
0.887357
0.929686
0.968168
1.02347
1.07497
1.10981
1.13155
1.14806
1.16004
1.15776
1.11674
1.03152
0.982982
0.974257
0.988603
1.03352
1.06051
1.0751
1.08397
1.07946
1.03111
0.160236
0.370064
0.87275
0.851096
0.868126
0.916297
0.956271
1.01125
1.06596
1.1036
1.12684
1.1439
1.15724
1.15825
1.12713
1.04226
0.984334
0.967473
0.977112
1.01563
1.04663
1.06116
1.06764
1.061
1.00636
0.0116828
0.602874
0.748704
0.872808
0.905484
0.938701
0.994182
1.05773
1.1037
1.13116
1.15309
1.16656
1.16777
1.14239
1.06294
1.00408
0.990987
1.00147
1.04503
1.08089
1.09738
1.11136
1.12287
1.11284
1.06099
0.00459585
0.592005
0.74373
0.872187
0.905789
0.938852
0.99476
1.05845
1.10427
1.13144
1.15292
1.16603
1.16724
1.1417
1.06217
1.00329
0.989954
1.00011
1.04346
1.07945
1.09605
1.10995
1.1213
1.11125
1.05936
0.00063296
0.574207
0.734895
0.873417
0.90698
0.938806
0.994242
1.05799
1.10403
1.13107
1.15228
1.16528
1.16689
1.14258
1.06389
1.00317
0.98833
0.997376
1.0398
1.07694
1.09434
1.10865
1.11981
1.10997
1.05795
0.0232899
0.571355
0.724906
0.876456
0.908418
0.93827
0.992426
1.05613
1.10278
1.1298
1.15083
1.16431
1.16703
1.14576
1.06915
1.00531
0.987539
0.99512
1.03558
1.07403
1.09188
1.10625
1.11749
1.10814
1.05657
0.0112978
0.531101
0.704064
0.875901
0.910703
0.937988
0.990111
1.05268
1.09972
1.1273
1.14831
1.16244
1.16673
1.1493
1.07661
1.00906
0.986184
0.992079
1.02907
1.0695
1.08853
1.10303
1.11448
1.10588
1.05497
0.0276457
0.503651
0.689639
0.872785
0.912137
0.93822
0.987217
1.04819
1.09562
1.12418
1.1448
1.15952
1.16576
1.15251
1.0857
1.01355
0.984659
0.988847
1.02091
1.06353
1.08396
1.09848
1.10987
1.10226
1.05267
0.0455826
0.474405
0.696954
0.86329
0.907947
0.939096
0.983047
1.04206
1.09024
1.12036
1.14077
1.15606
1.16431
1.15492
1.09506
1.01843
0.983388
0.985155
1.011
1.05553
1.07804
1.09248
1.10425
1.09793
1.04916
0.0665107
0.442863
0.725682
0.851973
0.89792
0.936818
0.976996
1.03387
1.08341
1.11555
1.13632
1.15226
1.1624
1.15667
1.10524
1.02399
0.982641
0.980724
1.00013
1.04574
1.07017
1.0852
1.0957
1.09003
1.04323
0.109645
0.409977
0.785631
0.846925
0.887348
0.929681
0.968157
1.02345
1.07495
1.1098
1.13154
1.14805
1.16005
1.15778
1.11676
1.03152
0.982968
0.974244
0.988586
1.03351
1.0605
1.0751
1.08397
1.07946
1.03111
0.160322
0.370065
0.872836
0.85113
0.868105
0.916275
0.95626
1.01123
1.06594
1.10359
1.12683
1.14389
1.15723
1.15827
1.12721
1.04236
0.98437
0.967488
0.977113
1.01561
1.04662
1.06116
1.06763
1.06099
1.00636
0.0116754
0.602874
0.7487
0.872802
0.905481
0.938699
0.994184
1.05774
1.10371
1.13117
1.1531
1.16657
1.16777
1.14237
1.0629
1.00406
0.990985
1.00148
1.04505
1.0809
1.09739
1.11137
1.12288
1.11284
1.06099
0.00459352
0.592007
0.743726
0.872181
0.905786
0.93885
0.99476
1.05845
1.10427
1.13144
1.15292
1.16604
1.16724
1.14168
1.06215
1.00328
0.989953
1.00012
1.04348
1.07946
1.09606
1.10995
1.1213
1.11125
1.05935
0.000579512
0.574139
0.734895
0.873412
0.906977
0.938805
0.994242
1.05799
1.10403
1.13107
1.15228
1.16529
1.16689
1.14257
1.06388
1.00316
0.988328
0.997379
1.03981
1.07695
1.09434
1.10865
1.11981
1.10997
1.05795
0.0232678
0.571087
0.724892
0.876449
0.908415
0.938269
0.992426
1.05613
1.10279
1.12981
1.15083
1.16432
1.16703
1.14576
1.06915
1.00531
0.98754
0.995126
1.0356
1.07404
1.09188
1.10626
1.11749
1.10814
1.05657
0.0113036
0.531111
0.704061
0.875898
0.9107
0.937986
0.990111
1.05269
1.09973
1.12731
1.14831
1.16245
1.16673
1.1493
1.0766
1.00905
0.986183
0.992082
1.02908
1.06951
1.08853
1.10303
1.11448
1.10588
1.05496
0.0276258
0.503644
0.689627
0.87278
0.912134
0.938218
0.987217
1.04819
1.09563
1.12419
1.14481
1.15952
1.16576
1.1525
1.08569
1.01354
0.984655
0.988845
1.02092
1.06354
1.08396
1.09848
1.10988
1.10227
1.05267
0.0455861
0.474416
0.696945
0.863287
0.907945
0.939095
0.983047
1.04206
1.09024
1.12036
1.14078
1.15607
1.16431
1.15491
1.09505
1.01842
0.983383
0.985152
1.01101
1.05554
1.07805
1.09248
1.10426
1.09794
1.04916
0.0664958
0.442862
0.725664
0.851971
0.897918
0.936818
0.976997
1.03387
1.08342
1.11556
1.13633
1.15226
1.1624
1.15667
1.10522
1.02398
0.982636
0.980722
1.00013
1.04575
1.07018
1.0852
1.09571
1.09004
1.04323
0.109634
0.409981
0.785608
0.846925
0.887347
0.929681
0.968158
1.02346
1.07496
1.1098
1.13155
1.14806
1.16005
1.15778
1.11674
1.0315
0.982963
0.974243
0.98859
1.03352
1.06051
1.07511
1.08398
1.07947
1.03111
0.160303
0.37006
0.872818
0.851121
0.868107
0.916278
0.956262
1.01124
1.06595
1.1036
1.12684
1.1439
1.15723
1.15827
1.12719
1.04234
0.984364
0.967487
0.977115
1.01562
1.04663
1.06116
1.06764
1.061
1.00636
0.0116635
0.602934
0.74873
0.872793
0.905476
0.938696
0.994184
1.05774
1.10372
1.13118
1.15311
1.16658
1.16778
1.14238
1.06291
1.00406
0.990983
1.00147
1.04504
1.0809
1.09738
1.11136
1.12288
1.11283
1.06098
0.00458489
0.592066
0.743758
0.872171
0.905781
0.938849
0.994761
1.05846
1.10428
1.13145
1.15293
1.16605
1.16725
1.1417
1.06216
1.00328
0.989951
1.00012
1.04347
1.07946
1.09605
1.10995
1.1213
1.11124
1.05935
0.00053808
0.574152
0.734937
0.873402
0.906971
0.938806
0.994244
1.05799
1.10404
1.13108
1.15229
1.1653
1.1669
1.14258
1.06389
1.00316
0.988315
0.997364
1.0398
1.07695
1.09434
1.10865
1.11981
1.10997
1.05794
0.0232212
0.570874
0.724915
0.876437
0.90841
0.938268
0.992429
1.05613
1.10279
1.12982
1.15085
1.16432
1.16703
1.14581
1.06925
1.00538
0.987582
0.995155
1.0356
1.07405
1.09188
1.10625
1.11749
1.10814
1.05656
0.0113063
0.531181
0.704102
0.875897
0.910694
0.937988
0.990112
1.05269
1.09974
1.12732
1.14832
1.16246
1.16674
1.14925
1.07647
1.00897
0.986131
0.992039
1.02907
1.0695
1.08853
1.10302
1.11448
1.10588
1.05496
0.0275821
0.503677
0.689621
0.872789
0.912135
0.938217
0.987219
1.0482
1.09564
1.12419
1.14482
1.15954
1.16578
1.15252
1.08566
1.0135
0.984623
0.988816
1.0209
1.06354
1.08396
1.09848
1.10988
1.10226
1.05266
0.045583
0.474475
0.696921
0.863303
0.907956
0.939092
0.983054
1.04207
1.09025
1.12038
1.14079
1.15607
1.16432
1.15496
1.0952
1.01851
0.983431
0.985187
1.01101
1.05553
1.07804
1.09248
1.10425
1.09794
1.04915
0.066451
0.442892
0.725601
0.851981
0.89793
0.93682
0.977007
1.03388
1.08343
1.11557
1.13634
1.15226
1.1624
1.15668
1.10531
1.02407
0.98269
0.98076
1.00015
1.04575
1.07017
1.0852
1.09571
1.09004
1.04322
0.109592
0.410035
0.785507
0.846933
0.887357
0.929686
0.968168
1.02347
1.07497
1.10981
1.13155
1.14806
1.16004
1.15776
1.11674
1.03152
0.982982
0.974257
0.988603
1.03352
1.06051
1.0751
1.08397
1.07946
1.03111
0.160236
0.370064
0.87275
0.851096
0.868126
0.916298
0.956271
1.01125
1.06596
1.1036
1.12684
1.1439
1.15724
1.15825
1.12713
1.04226
0.984334
0.967473
0.977112
1.01563
1.04663
1.06116
1.06764
1.061
1.00636
0.0116694
0.60298
0.748762
0.872798
0.905479
0.938695
0.994175
1.05773
1.10371
1.13116
1.15309
1.16656
1.16777
1.14239
1.06293
1.00408
0.990988
1.00147
1.04504
1.0809
1.0974
1.11137
1.12288
1.11284
1.06099
0.00457588
0.592101
0.743789
0.872175
0.905783
0.938848
0.994757
1.05845
1.10427
1.13145
1.15293
1.16604
1.16724
1.14168
1.06215
1.00329
0.989963
1.00012
1.04347
1.07947
1.09607
1.10995
1.12131
1.11125
1.05935
0.000530744
0.574184
0.734973
0.873407
0.906972
0.938805
0.994241
1.05799
1.10404
1.13107
1.15229
1.16529
1.16689
1.14256
1.06386
1.00312
0.988276
0.997317
1.03975
1.07692
1.09433
1.10866
1.11982
1.10997
1.05795
0.0232196
0.570858
0.724951
0.876443
0.908411
0.938266
0.992426
1.05613
1.10278
1.12982
1.15084
1.16431
1.16701
1.14575
1.06915
1.0053
0.98753
0.995106
1.03557
1.07404
1.09189
1.10626
1.11749
1.10814
1.05657
0.011306
0.531225
0.704143
0.875904
0.910695
0.937987
0.990108
1.05268
1.09974
1.12731
1.14832
1.16246
1.16674
1.14921
1.07638
1.00894
0.986164
0.992078
1.0291
1.06951
1.08853
1.10302
1.11448
1.10588
1.05497
0.0275806
0.503717
0.689637
0.872804
0.912141
0.938216
0.987215
1.04819
1.09563
1.12419
1.14481
1.15954
1.16578
1.15255
1.08574
1.01356
0.984691
0.98888
1.02098
1.0636
1.084
1.09849
1.10988
1.10227
1.05267
0.0455731
0.474505
0.696915
0.863319
0.907967
0.939091
0.983052
1.04207
1.09024
1.12037
1.14078
1.15606
1.16432
1.15504
1.09544
1.01864
0.983463
0.985173
1.01092
1.0555
1.07805
1.09249
1.10426
1.09794
1.04916
0.0664358
0.442917
0.725577
0.851992
0.897941
0.936824
0.977007
1.03388
1.08342
1.11556
1.13632
1.15223
1.16239
1.15675
1.10562
1.02424
0.982687
0.980662
0.99995
1.04558
1.07011
1.08519
1.09572
1.09005
1.04323
0.109573
0.410071
0.78546
0.84694
0.887367
0.929693
0.968172
1.02347
1.07497
1.1098
1.13154
1.14803
1.16003
1.15781
1.11699
1.03169
0.98297
0.974134
0.988405
1.0333
1.06039
1.07506
1.08398
1.07947
1.03112
0.16019
0.370066
0.872717
0.851082
0.86814
0.916311
0.956279
1.01125
1.06596
1.1036
1.12683
1.14388
1.15722
1.15828
1.12725
1.04239
0.984331
0.967388
0.97699
1.01548
1.04654
1.06112
1.06763
1.061
1.00636
0.0115923
0.602968
0.748765
0.872777
0.905469
0.938702
0.994202
1.05776
1.10374
1.1312
1.15312
1.16659
1.16781
1.14252
1.06311
1.00411
0.99093
1.00134
1.04488
1.08086
1.09737
1.11134
1.12288
1.11284
1.06098
0.00468323
0.592212
0.743824
0.872176
0.905792
0.938852
0.994722
1.05839
1.10422
1.13136
1.15284
1.166
1.16728
1.14207
1.06276
1.00348
0.989919
0.999953
1.04321
1.07937
1.09601
1.10993
1.1213
1.11124
1.05935
0.000521876
0.574234
0.735008
0.8734
0.906981
0.938814
0.994215
1.05794
1.10398
1.13097
1.15218
1.16526
1.16695
1.14294
1.06447
1.00345
0.988417
0.997339
1.03965
1.07692
1.09433
1.10863
1.11981
1.10997
1.05794
0.0230151
0.570149
0.724924
0.876425
0.908412
0.938274
0.992426
1.05611
1.10275
1.12975
1.15077
1.16428
1.16704
1.14593
1.06949
1.00553
0.987668
0.995205
1.03561
1.07406
1.09188
1.10624
1.11748
1.10813
1.05656
0.0113425
0.531297
0.704178
0.875908
0.910694
0.93799
0.990117
1.0527
1.09974
1.1273
1.14831
1.16244
1.16672
1.14915
1.07629
1.0089
0.986162
0.992099
1.02918
1.06956
1.08854
1.10301
1.11447
1.10587
1.05495
0.0275308
0.503731
0.689625
0.872813
0.912143
0.938213
0.987227
1.04821
1.09564
1.12419
1.14484
1.15954
1.16575
1.15237
1.08533
1.01333
0.984621
0.988866
1.02105
1.06362
1.08398
1.09847
1.10986
1.10225
1.05265
0.0455907
0.474571
0.6969
0.863338
0.907977
0.93909
0.983063
1.04208
1.09024
1.12036
1.1408
1.15608
1.16429
1.15481
1.09479
1.01829
0.983413
0.985237
1.01118
1.05564
1.07807
1.09247
1.10424
1.09792
1.04914
0.066393
0.442945
0.725521
0.852007
0.897955
0.93683
0.977018
1.0339
1.08342
1.11555
1.13633
1.15226
1.16236
1.15654
1.10489
1.02384
0.982674
0.980848
1.00033
1.04589
1.07022
1.0852
1.09569
1.09002
1.04321
0.109529
0.410125
0.785364
0.846952
0.88738
0.929697
0.968183
1.02348
1.07497
1.10979
1.13154
1.14805
1.16001
1.15765
1.11635
1.03126
0.982976
0.974382
0.988805
1.03371
1.06057
1.07512
1.08396
1.07945
1.03109
0.160134
0.370081
0.872662
0.851062
0.868166
0.916332
0.956291
1.01127
1.06596
1.10359
1.12682
1.14389
1.15722
1.15816
1.12683
1.04196
0.984325
0.967622
0.977323
1.01587
1.04674
1.06119
1.06763
1.06098
1.00634
0.0116742
0.603128
0.748851
0.872797
0.905476
0.938701
0.994198
1.05776
1.10373
1.13121
1.15314
1.16659
1.16778
1.14231
1.06276
1.00395
0.990875
1.00137
1.04497
1.08089
1.0974
1.11137
1.12292
1.11292
1.06092
0.00453319
0.592216
0.743874
0.872168
0.905777
0.938855
0.994784
1.05849
1.10431
1.13149
1.15297
1.16607
1.16727
1.1417
1.06213
1.00322
0.989864
1.00001
1.04337
1.07944
1.09607
1.10995
1.12135
1.11133
1.05929
0.000560076
0.574366
0.735074
0.873404
0.906966
0.938814
0.99426
1.05802
1.10408
1.1311
1.1523
1.16531
1.16694
1.14272
1.0641
1.00326
0.988333
0.997298
1.03965
1.07692
1.09434
1.10864
1.11986
1.11006
1.0579
0.0232542
0.571229
0.725076
0.87645
0.908408
0.938277
0.992433
1.05614
1.10282
1.12981
1.15081
1.1643
1.16709
1.14618
1.06987
1.00562
0.987534
0.994975
1.03533
1.07397
1.09189
1.10625
1.11753
1.10822
1.05652
0.0112593
0.531359
0.704263
0.875912
0.910695
0.937991
0.990123
1.0527
1.09975
1.12731
1.14827
1.16241
1.16676
1.14956
1.07714
1.00926
0.986079
0.991825
1.02865
1.06928
1.08847
1.103
1.11452
1.10596
1.05492
0.0275677
0.503871
0.689687
0.87285
0.912152
0.938216
0.987234
1.04822
1.09566
1.12421
1.1448
1.1595
1.16577
1.15254
1.08577
1.01356
0.984605
0.98874
1.02078
1.06347
1.08395
1.09847
1.1099
1.10232
1.05263
0.0455162
0.474623
0.696881
0.863377
0.908003
0.939089
0.983072
1.0421
1.09028
1.1204
1.1408
1.15608
1.16432
1.15485
1.09483
1.01833
0.983437
0.985241
1.01116
1.05563
1.0781
1.09249
1.10427
1.09798
1.04913
0.0663846
0.443039
0.725471
0.852041
0.897983
0.93684
0.977028
1.03392
1.08346
1.11559
1.13636
1.1523
1.16242
1.1566
1.10489
1.02385
0.982726
0.980914
1.0004
1.04596
1.07028
1.08524
1.09572
1.09007
1.0432
0.10948
0.410243
0.785238
0.846974
0.887407
0.929714
0.968199
1.02351
1.07501
1.10983
1.13158
1.14809
1.16005
1.15773
1.11653
1.03141
0.983058
0.974439
0.988834
1.03375
1.06064
1.07516
1.08399
1.0795
1.03109
0.160002
0.370097
0.872562
0.851025
0.868206
0.916369
0.95632
1.0113
1.066
1.10363
1.12686
1.14392
1.15723
1.15824
1.12712
1.04231
0.984435
0.96761
0.977251
1.01576
1.04673
1.06121
1.06764
1.06101
1.00634
0.244078
0.39696
0.900778
0.871097
0.865535
0.902843
0.947727
1.00183
1.05707
1.09663
1.12166
1.13947
1.15379
1.15871
1.13624
1.05616
0.987507
0.962126
0.96642
0.998662
1.03311
1.04812
1.04612
1.03533
0.93303
0.278841
0.412255
0.895145
0.880138
0.869825
0.903734
0.944532
0.995429
1.04973
1.09114
1.1176
1.13569
1.15071
1.15812
1.14266
1.07085
0.993635
0.956966
0.955263
0.974646
1.01383
1.02864
1.02525
1.01075
0.92823
0.293893
0.417333
0.876871
0.877577
0.874475
0.906792
0.943778
0.989134
1.0425
1.08512
1.113
1.13155
1.14721
1.15626
1.1474
1.08662
1.00181
0.9543
0.944561
0.956408
0.992151
1.01057
1.00751
0.994533
0.933367
0.317236
0.43238
0.852678
0.86875
0.880994
0.913661
0.943931
0.984345
1.03551
1.07874
1.10807
1.1274
1.1431
1.15354
1.15011
1.1041
1.01282
0.954586
0.935075
0.940406
0.967546
0.991414
0.990815
0.979709
0.943951
0.314979
0.42066
0.800509
0.85207
0.89126
0.918667
0.943411
0.978167
1.0262
1.07056
1.10229
1.12329
1.13882
1.15016
1.1504
1.11849
1.02825
0.957918
0.928054
0.927493
0.943844
0.971389
0.975693
0.96891
0.943575
0.319789
0.413031
0.747996
0.832608
0.903065
0.922942
0.940617
0.96854
1.01259
1.05808
1.09287
1.11691
1.13348
1.14558
1.14879
1.12844
1.04889
0.965803
0.923871
0.915642
0.924212
0.949192
0.958649
0.955892
0.940489
0.329209
0.407719
0.690607
0.81214
0.911456
0.923396
0.932448
0.952233
0.996392
1.04668
1.08599
1.11241
1.12999
1.14187
1.14642
1.13543
1.07229
0.978877
0.92372
0.905112
0.907248
0.925053
0.94251
0.943915
0.936132
0.341326
0.405395
0.626532
0.800211
0.910877
0.916541
0.922317
0.940362
0.984266
1.03513
1.07695
1.10576
1.12537
1.13803
1.14351
1.13893
1.09524
0.997544
0.928718
0.897507
0.893146
0.901942
0.922184
0.928249
0.926214
0.354753
0.405541
0.556591
0.837553
0.90434
0.899236
0.909963
0.937377
0.976953
1.02391
1.06624
1.09719
1.11864
1.13314
1.13994
1.1389
1.1108
1.02188
0.939515
0.894888
0.881208
0.883702
0.899808
0.913515
0.914612
0.359653
0.403975
0.533731
0.844988
0.888493
0.885536
0.908433
0.942559
0.973877
1.01318
1.05464
1.08873
1.11284
1.12889
1.13686
1.13741
1.12124
1.04911
0.955921
0.898247
0.873133
0.869922
0.877331
0.895231
0.904002
0.36506
0.402726
0.511332
0.812934
0.866815
0.884388
0.919121
0.954381
0.973777
1.00349
1.04286
1.07915
1.10488
1.12215
1.13226
1.13469
1.12708
1.07764
0.979189
0.907412
0.869499
0.857901
0.85948
0.874058
0.889134
0.371136
0.401455
0.48884
0.75202
0.842604
0.89555
0.928302
0.957611
0.971135
0.990876
1.02802
1.06713
1.09602
1.11472
1.12673
1.13141
1.1286
1.09832
1.00821
0.922912
0.871501
0.848338
0.844743
0.850756
0.869591
0.378813
0.401533
0.467485
0.671703
0.817383
0.904462
0.929326
0.950906
0.960023
0.97752
1.01155
1.05112
1.08461
1.10637
1.12038
1.12766
1.12777
1.11292
1.04408
0.945883
0.879678
0.843845
0.831192
0.831427
0.841468
0.387869
0.403306
0.450121
0.586783
0.815794
0.90522
0.918554
0.926873
0.944976
0.966804
1.00008
1.03742
1.0709
1.09613
1.11291
1.12297
1.12638
1.12022
1.07706
0.977137
0.895989
0.847452
0.823713
0.817446
0.820847
0.389387
0.396894
0.432479
0.538516
0.805307
0.892541
0.896742
0.908273
0.940605
0.96568
0.990796
1.02242
1.05591
1.08394
1.10355
1.11738
1.12445
1.12304
1.09853
1.01515
0.920232
0.856934
0.8224
0.808043
0.8066
0.380435
0.381982
0.409776
0.492932
0.744156
0.847166
0.884887
0.910515
0.94301
0.964402
0.980451
1.00512
1.03877
1.07108
1.09512
1.11149
1.12134
1.12319
1.11151
1.05112
0.951578
0.87446
0.827115
0.802855
0.795046
0.367451
0.367676
0.387113
0.447047
0.63611
0.805582
0.880175
0.912918
0.940399
0.954967
0.964473
0.985775
1.02088
1.05631
1.0854
1.1057
1.11769
1.12214
1.11817
1.08188
0.985142
0.898212
0.837773
0.803653
0.787313
0.360585
0.356192
0.369547
0.412974
0.544598
0.78081
0.878932
0.905963
0.917107
0.934698
0.953196
0.975678
1.00539
1.0419
1.07445
1.09792
1.1125
1.11962
1.11933
1.10296
1.02747
0.926657
0.85508
0.808653
0.784494
0.354871
0.347169
0.356765
0.389776
0.48715
0.735607
0.858096
0.88857
0.903091
0.927694
0.94838
0.965866
0.990798
1.02253
1.05734
1.0861
1.10472
1.11463
1.11774
1.11249
1.06927
0.962397
0.877217
0.820731
0.786468
0.349611
0.338948
0.345453
0.367961
0.434795
0.626405
0.822722
0.881492
0.899927
0.9227
0.93501
0.951147
0.975343
1.00988
1.04358
1.07244
1.09502
1.10894
1.11452
1.11403
1.09685
1.01524
0.909341
0.838647
0.793989
0.345826
0.332759
0.337089
0.35205
0.396082
0.528996
0.766135
0.870372
0.888456
0.904687
0.92551
0.941083
0.964157
0.98964
1.02404
1.0581
1.08335
1.10042
1.10986
1.11264
1.10769
1.0685
0.958031
0.86585
0.808331
0.34277
0.328064
0.331029
0.341434
0.372385
0.464336
0.691403
0.845263
0.883061
0.899388
0.919089
0.930405
0.94231
0.97034
1.00484
1.03951
1.07045
1.09161
1.1042
1.11
1.10991
1.09528
1.02688
0.911763
0.833375
0.340432
0.324252
0.32614
0.332731
0.351859
0.405993
0.564447
0.78306
0.872399
0.885851
0.899437
0.919084
0.934442
0.951419
0.983056
1.01831
1.05106
1.07828
1.0967
1.10622
1.10947
1.10602
1.07533
0.979178
0.876209
0.338724
0.321583
0.322847
0.327332
0.340129
0.376356
0.483845
0.717061
0.850591
0.877082
0.892553
0.911854
0.923406
0.933739
0.955688
0.99471
1.03207
1.06198
1.08475
1.09985
1.10754
1.10829
1.09769
1.04413
0.937701
0.337477
0.319559
0.320368
0.323252
0.331346
0.353939
0.419668
0.599857
0.817528
0.870758
0.881871
0.892098
0.91087
0.92694
0.939435
0.964166
1.00469
1.04302
1.07118
1.09049
1.10301
1.10759
1.10512
1.08409
1.00605
0.336662
0.318225
0.318743
0.320633
0.325863
0.339992
0.37935
0.498227
0.727668
0.843929
0.871118
0.88491
0.901755
0.913183
0.927549
0.942662
0.9737
1.01516
1.05183
1.07842
1.09605
1.10523
1.10581
1.09931
1.06434
0.336116
0.317257
0.317596
0.318835
0.322202
0.330999
0.354987
0.425595
0.610222
0.817001
0.864466
0.875578
0.883223
0.902302
0.917424
0.930993
0.947569
0.981914
1.02399
1.05969
1.08506
1.10017
1.10449
1.10316
1.09116
0.335747
0.31667
0.317019
0.317902
0.320059
0.325456
0.339782
0.379593
0.502039
0.72566
0.83416
0.864916
0.877858
0.890605
0.90292
0.919448
0.934312
0.95214
0.98862
1.03129
1.066
1.09023
1.10107
1.10226
1.09894
0.336053
0.316708
0.316909
0.317447
0.318764
0.322088
0.330632
0.353963
0.423054
0.602293
0.809028
0.854073
0.86782
0.874967
0.893139
0.906274
0.922058
0.936702
0.955718
0.994509
1.03883
1.07258
1.09319
1.09958
1.09919
0.336527
0.316904
0.316874
0.317182
0.317992
0.32003
0.325175
0.338782
0.376563
0.493559
0.709591
0.822206
0.858495
0.870402
0.878982
0.893628
0.908889
0.924382
0.938282
0.958578
0.999562
1.04552
1.079
1.09362
1.09716
0.336766
0.317102
0.316809
0.31699
0.317469
0.318669
0.321669
0.329364
0.350303
0.411833
0.576595
0.793071
0.839353
0.857969
0.867311
0.882185
0.894825
0.911145
0.925401
0.938208
0.960849
1.00573
1.05131
1.08105
1.09303
0.33691
0.317225
0.316767
0.31687
0.317151
0.317862
0.319646
0.324154
0.336071
0.369341
0.472418
0.679717
0.813013
0.84864
0.860743
0.867396
0.882753
0.896046
0.913216
0.926005
0.938668
0.964312
1.01294
1.05729
1.08688
0.336993
0.317296
0.316734
0.316787
0.316943
0.317348
0.318363
0.3209
0.327348
0.344775
0.394529
0.538191
0.760009
0.82051
0.847772
0.859175
0.868375
0.884442
0.89906
0.91339
0.925239
0.940164
0.975514
1.03286
1.08195
0.337031
0.317325
0.316701
0.316725
0.316809
0.317036
0.317609
0.319043
0.322662
0.332164
0.358628
0.440847
0.627424
0.806757
0.832893
0.848613
0.856623
0.869216
0.885158
0.901902
0.915743
0.931119
0.958565
1.01534
1.10057
0.337027
0.317328
0.316673
0.316684
0.316729
0.31685
0.317164
0.317957
0.319962
0.325066
0.338843
0.377392
0.499228
0.701032
0.804225
0.837534
0.848794
0.856671
0.871741
0.889456
0.911604
0.939332
0.97832
1.05357
1.17819
0.337009
0.317336
0.316647
0.31665
0.31667
0.316737
0.316908
0.317336
0.318399
0.321085
0.328038
0.347263
0.404439
0.559578
0.76967
0.811825
0.837761
0.848083
0.861258
0.883519
0.924131
0.976923
1.05445
1.16594
1.31945
0.337003
0.317332
0.31663
0.316631
0.31664
0.316673
0.316761
0.316984
0.317545
0.318964
0.322585
0.33225
0.35958
0.446955
0.630792
0.796106
0.823126
0.843964
0.862402
0.901464
0.970797
1.08068
1.20111
1.33987
1.32866
0.337001
0.317326
0.316627
0.316616
0.316621
0.316638
0.316683
0.316798
0.317089
0.317824
0.319699
0.324521
0.337737
0.375269
0.49641
0.682975
0.800086
0.84244
0.885739
0.962715
1.08722
1.23794
1.3392
1.31523
1.27776
0.337001
0.317323
0.316627
0.316609
0.316611
0.31662
0.316643
0.316702
0.316852
0.317232
0.318192
0.320647
0.327044
0.344934
0.397687
0.551668
0.744239
0.852922
0.965918
1.12348
1.2444
1.27241
1.27021
1.24018
1.22254