/*--------------------------------*- C++ -*----------------------------------*\
| =========                 |                                                 |
| \\      /  F ield         | OpenFOAM: The Open Source CFD Toolbox           |
|  \\    /   O peration     | Version:  4.1                                   |
|   \\  /    A nd           | Web:      www.OpenFOAM.org                      |
|    \\/     M anipulation  |                                                 |
\*---------------------------------------------------------------------------*/
FoamFile
{
    version     2.0;
    format      ascii;
    class       volVectorField;
    location    "0.96";
    object      U;
}
// * * * * * * * * * * * * * * * * * * * * * * * * * * * * * * * * * * * * * //

dimensions      [0 1 -1 0 0 0 0];

internalField   nonuniform List<vector> 
52500
(
(2.21585 0.0020826 -7.7656e-05)
(1.66587 0.00496984 -0.00365234)
(0.738071 0.0104718 -0.00496669)
(0.448346 0.00747539 -0.00596862)
(0.470225 0.00677501 -0.00619984)
(0.524251 0.00758125 -0.0064225)
(0.555228 0.00844157 -0.00679172)
(0.566585 0.00919285 -0.00721473)
(0.570538 0.0098597 -0.00752182)
(0.570195 0.0104215 -0.00770914)
(0.564699 0.0109047 -0.00786285)
(0.552813 0.0114415 -0.00796012)
(0.534023 0.012099 -0.00797602)
(0.515207 0.0126872 -0.0078004)
(0.504744 0.013161 -0.00726588)
(0.49828 0.0135204 -0.00687122)
(0.492305 0.0138885 -0.00679195)
(0.480888 0.0145028 -0.00687645)
(0.452825 0.0153414 -0.0071924)
(0.404609 0.0165267 -0.00746929)
(0.332383 0.017716 -0.00763043)
(0.23986 0.0190754 -0.00778168)
(0.157617 0.0207045 -0.00790602)
(0.0932641 0.0222653 -0.00787328)
(0.036363 0.0233045 -0.00755197)
(2.22337 0.00175202 -3.08546e-05)
(1.67935 0.00810713 -0.00357165)
(0.75124 0.0284057 -0.00491602)
(0.452164 0.0210761 -0.00595453)
(0.471784 0.0192892 -0.00619317)
(0.525174 0.021036 -0.00641449)
(0.555531 0.0226553 -0.00678581)
(0.566522 0.0240056 -0.00720879)
(0.570198 0.0251048 -0.00751391)
(0.569609 0.0258838 -0.00769864)
(0.564021 0.0264535 -0.00784858)
(0.552284 0.0271708 -0.00794263)
(0.533706 0.0281523 -0.00795774)
(0.515131 0.0291621 -0.00777921)
(0.505031 0.0297677 -0.00724487)
(0.498984 0.030533 -0.00685101)
(0.493507 0.0314705 -0.00676997)
(0.482551 0.0330129 -0.00685096)
(0.454889 0.0350637 -0.00716372)
(0.406798 0.0377626 -0.00743901)
(0.334482 0.0401039 -0.00759861)
(0.242026 0.0427183 -0.007747)
(0.159372 0.0459818 -0.00786832)
(0.0938137 0.0484339 -0.00783468)
(0.0360029 0.0486537 -0.0075142)
(2.2263 -0.00642019 -4.246e-06)
(1.69914 -0.000754759 -0.00345069)
(0.766795 0.0436128 -0.004834)
(0.450546 0.0350884 -0.00595427)
(0.470536 0.0332119 -0.00619373)
(0.525164 0.0360636 -0.00640556)
(0.555771 0.0386185 -0.00677237)
(0.567202 0.0409007 -0.00719442)
(0.571204 0.0429373 -0.00749983)
(0.570824 0.0445508 -0.00768273)
(0.565597 0.0458769 -0.00782974)
(0.554455 0.0473607 -0.00792191)
(0.536495 0.0489889 -0.00793897)
(0.51806 0.0510653 -0.00776784)
(0.507987 0.05196 -0.00723912)
(0.502111 0.0533326 -0.00683406)
(0.496774 0.0551586 -0.00674297)
(0.486151 0.0578087 -0.00681504)
(0.459064 0.0614787 -0.0071202)
(0.411217 0.0662238 -0.00740044)
(0.338956 0.0708826 -0.00756233)
(0.247046 0.0759792 -0.00771065)
(0.164042 0.0820405 -0.00782859)
(0.0965547 0.086354 -0.00779596)
(0.0367242 0.0861699 -0.0074769)
(2.20247 -0.00529955 -0.000151564)
(1.70694 0.00492624 -0.00346161)
(0.774689 0.0659012 -0.00473783)
(0.441646 0.050645 -0.0059687)
(0.466503 0.0460124 -0.00619794)
(0.524399 0.0496081 -0.00639418)
(0.555896 0.0531966 -0.0067507)
(0.568127 0.0563936 -0.00717106)
(0.572704 0.0592655 -0.00747908)
(0.572697 0.06159 -0.00766072)
(0.56803 0.0635749 -0.00780518)
(0.557705 0.0656398 -0.00789929)
(0.540929 0.0676231 -0.00792294)
(0.522875 0.0707306 -0.00777162)
(0.512687 0.0720475 -0.00725464)
(0.507197 0.0737165 -0.00683115)
(0.502032 0.0767171 -0.00672039)
(0.491802 0.0805823 -0.00678051)
(0.465579 0.0859866 -0.007071)
(0.41846 0.0928323 -0.00735734)
(0.346643 0.100404 -0.00751899)
(0.255448 0.108803 -0.00766431)
(0.171807 0.118305 -0.00778033)
(0.101346 0.125174 -0.00775067)
(0.0381627 0.124962 -0.00743763)
(2.21345 -0.00580067 -7.53415e-05)
(1.75345 0.00780292 -0.0031734)
(0.813643 0.0863627 -0.00455107)
(0.443391 0.0669077 -0.00595354)
(0.466795 0.0585894 -0.00620507)
(0.527049 0.0623612 -0.00638365)
(0.558397 0.0668571 -0.00672519)
(0.570686 0.0711087 -0.00713661)
(0.575401 0.0749936 -0.00744595)
(0.575585 0.0782329 -0.00763004)
(0.571443 0.0811058 -0.00777291)
(0.561906 0.0839028 -0.00787034)
(0.546671 0.0863633 -0.0079035)
(0.529305 0.0903773 -0.00777829)
(0.518661 0.0923554 -0.00728605)
(0.513792 0.0941647 -0.00683899)
(0.509085 0.0984564 -0.00669317)
(0.499123 0.10372 -0.00674101)
(0.473869 0.110858 -0.00700674)
(0.427899 0.119769 -0.00730238)
(0.357173 0.130133 -0.00746786)
(0.267087 0.142304 -0.00760956)
(0.182714 0.155945 -0.00772424)
(0.108344 0.166305 -0.00769888)
(0.0404751 0.166724 -0.00739352)
(2.19458 -0.0139165 -0.000183124)
(1.78599 -0.00241692 -0.00301236)
(0.845531 0.0981325 -0.00444222)
(0.436637 0.0852467 -0.00591363)
(0.46448 0.0728824 -0.00620413)
(0.530285 0.0744328 -0.00637764)
(0.562284 0.0797714 -0.0066956)
(0.574682 0.0852882 -0.00709482)
(0.579351 0.0903402 -0.00740555)
(0.579577 0.0946371 -0.00759472)
(0.575833 0.0984824 -0.00773354)
(0.566974 0.102021 -0.00783395)
(0.553451 0.105127 -0.00787879)
(0.537079 0.109831 -0.00778279)
(0.525865 0.112598 -0.00732942)
(0.521817 0.114882 -0.00685118)
(0.517945 0.120506 -0.00666366)
(0.508204 0.12695 -0.00670018)
(0.483969 0.135671 -0.00693213)
(0.439532 0.14687 -0.00723783)
(0.370801 0.160482 -0.00740696)
(0.282668 0.17727 -0.00754297)
(0.197692 0.196169 -0.00765345)
(0.118462 0.2118 -0.00763299)
(0.0442116 0.214375 -0.00733975)
(2.17333 -0.0154778 -0.000301912)
(1.81528 -0.00560715 -0.00286683)
(0.88577 0.101742 -0.00449733)
(0.425824 0.106591 -0.00584843)
(0.460923 0.091006 -0.00615541)
(0.534588 0.0863806 -0.00637362)
(0.568992 0.0923743 -0.00665607)
(0.580828 0.0994108 -0.00704104)
(0.584803 0.105665 -0.00735585)
(0.584719 0.111053 -0.00755407)
(0.581133 0.115861 -0.00769013)
(0.572882 0.12008 -0.00779358)
(0.561155 0.123916 -0.00785016)
(0.546007 0.129179 -0.00778133)
(0.534429 0.132856 -0.00737451)
(0.531457 0.136101 -0.00686481)
(0.528353 0.142237 -0.00663474)
(0.518589 0.149762 -0.00665488)
(0.495779 0.15995 -0.0068436)
(0.453746 0.17372 -0.00715786)
(0.388198 0.191205 -0.00733514)
(0.303007 0.213582 -0.00746366)
(0.218058 0.239456 -0.00757117)
(0.133542 0.263285 -0.00755542)
(0.0507833 0.270979 -0.00727012)
(2.14868 -0.0213643 -0.000438722)
(1.83368 -0.0190501 -0.00271567)
(0.931415 0.0852175 -0.00468534)
(0.420674 0.122597 -0.00576908)
(0.458211 0.110986 -0.00607287)
(0.539757 0.101652 -0.0063416)
(0.579276 0.106232 -0.00660077)
(0.589611 0.114089 -0.0069716)
(0.591835 0.121433 -0.00729546)
(0.590948 0.127799 -0.00750607)
(0.587218 0.133483 -0.00764341)
(0.579479 0.1384 -0.00775037)
(0.569608 0.143074 -0.00781741)
(0.556013 0.148834 -0.00777423)
(0.544589 0.153416 -0.0074234)
(0.542219 0.157572 -0.00688205)
(0.539864 0.163049 -0.0066096)
(0.530611 0.171796 -0.00660393)
(0.509538 0.183611 -0.00674623)
(0.47082 0.200089 -0.00706404)
(0.409874 0.221769 -0.00724804)
(0.329397 0.250795 -0.00737196)
(0.246222 0.286013 -0.00746329)
(0.156694 0.32254 -0.00744458)
(0.0626681 0.342088 -0.00717198)
(2.09999 -0.0275789 -0.00071902)
(1.82447 -0.0324774 -0.00258037)
(0.959526 0.0576594 -0.00507257)
(0.418329 0.131846 -0.0057356)
(0.458475 0.131881 -0.00599257)
(0.547093 0.122685 -0.00627445)
(0.591281 0.123591 -0.00652403)
(0.600478 0.130511 -0.00688557)
(0.600309 0.138251 -0.00722273)
(0.598041 0.145319 -0.00745067)
(0.593973 0.151648 -0.00759384)
(0.586828 0.157244 -0.00770376)
(0.578826 0.162811 -0.00778102)
(0.566958 0.168922 -0.00776209)
(0.556046 0.17429 -0.00747912)
(0.553644 0.178477 -0.00691196)
(0.552229 0.183605 -0.00659189)
(0.544413 0.193065 -0.00653792)
(0.525324 0.206402 -0.00664409)
(0.490782 0.2254 -0.00695391)
(0.436381 0.251677 -0.0071471)
(0.363416 0.28842 -0.00725782)
(0.285405 0.335449 -0.00732734)
(0.193899 0.389482 -0.00730384)
(0.0856495 0.434548 -0.007011)
(2.04325 -0.0363209 -0.00104241)
(1.80515 -0.0517147 -0.00237707)
(0.984161 0.0167273 -0.00563626)
(0.426267 0.128136 -0.00575623)
(0.467376 0.149595 -0.00585169)
(0.558117 0.146654 -0.00616762)
(0.604087 0.14601 -0.00642605)
(0.612051 0.150942 -0.00678613)
(0.609311 0.157807 -0.00714478)
(0.605453 0.164664 -0.0073913)
(0.601011 0.170974 -0.00754401)
(0.594687 0.176795 -0.00765665)
(0.588533 0.182923 -0.00774142)
(0.57861 0.188876 -0.00774587)
(0.568195 0.195095 -0.00752709)
(0.565786 0.198515 -0.00696377)
(0.565658 0.204012 -0.00658077)
(0.559595 0.213316 -0.00647075)
(0.542994 0.227341 -0.00654364)
(0.513763 0.24957 -0.00680613)
(0.468234 0.280308 -0.00701748)
(0.406384 0.325001 -0.00711612)
(0.338571 0.38889 -0.00715239)
(0.254607 0.46995 -0.00709605)
(0.130754 0.585325 -0.00672607)
(2.21596 0.00201693 9.71392e-08)
(1.66609 0.00486941 6.72683e-07)
(0.738287 0.0104242 9.65547e-07)
(0.448455 0.00746921 -5.91526e-08)
(0.470285 0.00679096 -5.92795e-08)
(0.524287 0.007602 -3.43102e-08)
(0.555251 0.00846539 3.77083e-09)
(0.566594 0.00922217 2.63746e-08)
(0.570532 0.00989564 2.16199e-08)
(0.570166 0.0104653 1.24102e-08)
(0.564646 0.0109529 -4.92895e-08)
(0.552732 0.0114848 -6.85659e-08)
(0.533917 0.0121208 1.14072e-08)
(0.515104 0.0127183 -2.54616e-07)
(0.504656 0.0131409 1.33966e-07)
(0.498206 0.0135006 7.72967e-08)
(0.492264 0.0138745 1.13835e-07)
(0.480893 0.0144856 9.58911e-08)
(0.452879 0.0153275 2.4185e-07)
(0.404697 0.0165134 4.44949e-07)
(0.332473 0.0177153 2.33196e-07)
(0.239916 0.0190819 -6.81514e-08)
(0.157628 0.0207063 -5.85707e-08)
(0.0932591 0.0222665 4.93919e-08)
(0.0363721 0.0233078 1.61114e-07)
(2.22325 0.00168775 -3.60142e-08)
(1.6794 0.00792798 5.09437e-07)
(0.751263 0.0283629 1.00589e-06)
(0.452143 0.02107 -3.28279e-08)
(0.47178 0.019295 -3.79188e-08)
(0.52518 0.0210391 -2.86641e-08)
(0.555547 0.0226561 4.90518e-09)
(0.566547 0.0240055 2.68178e-08)
(0.57024 0.0251026 1.81717e-08)
(0.569675 0.0258793 3.22011e-09)
(0.564122 0.0264469 -4.21407e-08)
(0.552426 0.0271535 -6.70489e-08)
(0.533922 0.0281113 -2.20803e-08)
(0.515375 0.0291497 -1.51593e-07)
(0.505266 0.0297159 4.3805e-08)
(0.499218 0.0304966 6.76603e-08)
(0.493694 0.0314549 1.1818e-07)
(0.482711 0.0330002 1.40809e-07)
(0.455048 0.0350533 2.48492e-07)
(0.406962 0.0377449 3.7188e-07)
(0.334625 0.0401097 2.03367e-07)
(0.242102 0.0427399 -2.45532e-08)
(0.159385 0.0459932 -5.13414e-08)
(0.0938088 0.0484409 4.62415e-08)
(0.0360098 0.0486599 1.53412e-07)
(2.22644 -0.00633694 8.26836e-07)
(1.69962 -0.000526835 -4.80693e-06)
(0.766829 0.0436827 8.01291e-07)
(0.450534 0.0350976 -3.45467e-08)
(0.470541 0.0331956 -3.47423e-08)
(0.525176 0.0360449 -2.99066e-08)
(0.55579 0.0386013 7.00775e-09)
(0.567228 0.040884 2.96247e-08)
(0.571244 0.0429194 1.61954e-08)
(0.570885 0.0445298 -2.72189e-09)
(0.56569 0.0458521 -2.52502e-08)
(0.554581 0.047327 -5.42607e-08)
(0.5367 0.0489474 -4.15138e-08)
(0.518287 0.0510218 -5.73125e-08)
(0.508192 0.0519301 1.68476e-09)
(0.502321 0.0533039 5.17891e-08)
(0.496937 0.0551565 1.47089e-07)
(0.486283 0.0578297 1.97541e-07)
(0.459191 0.0615102 2.449e-07)
(0.411361 0.0662547 2.38859e-07)
(0.339096 0.070907 1.55108e-07)
(0.24711 0.0760077 4.90694e-08)
(0.164043 0.0820644 -3.77913e-08)
(0.0965441 0.0863696 4.01275e-08)
(0.0367282 0.0861804 1.3827e-07)
(2.20297 -0.00528476 6.44932e-07)
(1.70907 0.00499632 6.32975e-06)
(0.775184 0.0659035 1.03752e-06)
(0.441805 0.0506388 -1.23036e-07)
(0.466571 0.0459983 -1.03245e-07)
(0.52444 0.0495912 -4.90258e-08)
(0.555926 0.0531751 2.08675e-09)
(0.568151 0.0563659 2.85095e-08)
(0.572731 0.0592316 1.39687e-08)
(0.572731 0.06155 -9.64098e-09)
(0.568076 0.0635249 -1.18546e-08)
(0.557761 0.0655857 -3.89899e-08)
(0.541026 0.0675875 -6.64142e-08)
(0.522981 0.0706711 1.24608e-09)
(0.512762 0.072039 2.27262e-08)
(0.507283 0.0737317 -1.84254e-08)
(0.502107 0.0767525 1.5392e-07)
(0.491862 0.080651 1.80643e-07)
(0.465642 0.0860674 2.22325e-07)
(0.418536 0.0929129 1.89965e-07)
(0.346728 0.100452 1.05025e-07)
(0.255489 0.108832 9.35208e-08)
(0.171794 0.118336 -2.68974e-08)
(0.101325 0.125195 3.1903e-08)
(0.038162 0.124976 1.19127e-07)
(2.21339 -0.00585567 -9.44124e-08)
(1.75355 0.00765574 5.17773e-07)
(0.813733 0.0863474 1.28137e-06)
(0.443422 0.0669092 -9.58429e-08)
(0.466819 0.0585876 -9.38136e-08)
(0.527069 0.0623506 -5.21489e-08)
(0.558415 0.0668374 7.12843e-10)
(0.570702 0.0710789 2.67941e-08)
(0.575416 0.0749556 1.67275e-08)
(0.575596 0.0781883 -1.14999e-08)
(0.571451 0.0810492 -1.15476e-08)
(0.561914 0.0838415 -4.28266e-08)
(0.546667 0.0863243 -6.63848e-08)
(0.529282 0.0903154 1.86473e-08)
(0.518622 0.0923432 1.72897e-08)
(0.513736 0.094207 1.07136e-08)
(0.509021 0.0985189 1.68928e-07)
(0.499065 0.103816 1.98509e-07)
(0.473821 0.110962 2.1241e-07)
(0.427875 0.11986 1.69532e-07)
(0.357176 0.130196 1.24552e-07)
(0.267085 0.142336 1.14654e-07)
(0.182684 0.155975 -1.45885e-08)
(0.108312 0.166325 2.13959e-08)
(0.0404696 0.166735 9.63398e-08)
(2.19466 -0.0139137 8.75883e-08)
(1.78619 -0.0024168 7.16634e-07)
(0.845724 0.0981105 9.30651e-07)
(0.436708 0.0852546 1.53336e-07)
(0.464515 0.0728848 -2.82593e-08)
(0.530308 0.0744221 -1.03189e-07)
(0.562303 0.0797529 -5.55136e-09)
(0.574693 0.0852607 2.3916e-08)
(0.579357 0.0903053 2.02987e-08)
(0.57957 0.0945962 -5.74503e-09)
(0.575812 0.0984341 -1.87361e-08)
(0.566941 0.10197 -4.7117e-08)
(0.553377 0.105085 -3.54107e-08)
(0.536968 0.10978 -2.45406e-08)
(0.525753 0.112571 2.39136e-09)
(0.521685 0.114896 5.93028e-08)
(0.517803 0.120551 1.46952e-07)
(0.508072 0.127028 1.58411e-07)
(0.483842 0.135754 1.98875e-07)
(0.439431 0.146939 2.0286e-07)
(0.370739 0.160525 1.43157e-07)
(0.282628 0.177291 1.18032e-07)
(0.197644 0.196191 8.08073e-09)
(0.118418 0.211812 1.31777e-08)
(0.0442008 0.214379 7.17105e-08)
(2.17326 -0.0154932 -1.31954e-07)
(1.81535 -0.00564425 2.21767e-07)
(0.885874 0.101685 6.06391e-07)
(0.425846 0.106591 2.77633e-07)
(0.460935 0.0910141 1.47951e-07)
(0.534599 0.0863748 -1.40337e-07)
(0.569007 0.0923591 -8.65581e-09)
(0.580835 0.0993879 2.46205e-08)
(0.584803 0.105636 2.20806e-08)
(0.584701 0.111019 3.35534e-10)
(0.581097 0.115827 -2.0908e-08)
(0.572828 0.120052 -4.8131e-08)
(0.561042 0.123892 -1.62827e-08)
(0.545844 0.129164 -5.66502e-08)
(0.534272 0.132849 -1.38294e-08)
(0.531294 0.136107 6.81526e-08)
(0.528193 0.142299 1.11574e-07)
(0.518439 0.149828 1.41679e-07)
(0.495624 0.160011 1.88883e-07)
(0.453613 0.173758 1.94795e-07)
(0.388107 0.191216 1.65321e-07)
(0.302954 0.21358 1.27775e-07)
(0.218006 0.23946 3.32563e-08)
(0.133491 0.263286 8.81224e-09)
(0.0507682 0.270974 5.10607e-08)
(2.1487 -0.0213514 -7.30008e-08)
(1.83376 -0.0190414 1.38762e-07)
(0.931554 0.0851667 3.79953e-07)
(0.420728 0.122589 2.21385e-07)
(0.458228 0.110994 1.66119e-07)
(0.539766 0.101653 -1.80745e-08)
(0.579291 0.106221 8.65853e-09)
(0.589619 0.114072 3.28828e-08)
(0.591831 0.121412 2.35913e-08)
(0.590927 0.127775 3.04707e-09)
(0.587178 0.133465 -1.20471e-08)
(0.579416 0.13839 -3.83026e-08)
(0.569483 0.143064 -4.3935e-08)
(0.555831 0.148842 -2.63802e-08)
(0.544404 0.153422 2.22533e-08)
(0.542071 0.157589 4.69291e-08)
(0.539726 0.163122 9.13942e-08)
(0.530462 0.171851 1.5069e-07)
(0.50939 0.183663 1.50268e-07)
(0.470682 0.200119 1.72155e-07)
(0.409779 0.221764 1.84519e-07)
(0.329347 0.250769 1.42261e-07)
(0.246177 0.285995 4.85226e-08)
(0.156646 0.322528 5.91189e-09)
(0.0626515 0.342076 3.31621e-08)
(2.1 -0.0275999 -1.21892e-07)
(1.82452 -0.03252 7.30494e-08)
(0.959641 0.0575804 2.39774e-07)
(0.418393 0.131827 1.67612e-07)
(0.458496 0.131889 1.26319e-07)
(0.547101 0.122695 3.16237e-08)
(0.591295 0.12359 2.85167e-08)
(0.600487 0.130503 4.00612e-08)
(0.600306 0.13824 2.67715e-08)
(0.598021 0.145309 9.38527e-10)
(0.593935 0.151647 -3.09424e-09)
(0.586763 0.15725 -2.80315e-08)
(0.578703 0.162819 -5.7973e-08)
(0.566775 0.168951 3.57415e-09)
(0.555863 0.174309 1.62e-08)
(0.553523 0.178526 5.72135e-08)
(0.552115 0.183648 8.57799e-08)
(0.544288 0.193098 1.25025e-07)
(0.525209 0.206439 1.32128e-07)
(0.49066 0.225424 1.811e-07)
(0.436287 0.251671 1.90788e-07)
(0.363377 0.288383 1.38273e-07)
(0.285376 0.335411 5.31364e-08)
(0.193859 0.38946 1.47943e-08)
(0.0856351 0.43453 2.05784e-08)
(2.04317 -0.0363353 -3.57546e-07)
(1.80513 -0.0517456 -3.30901e-07)
(0.984223 0.0166583 1.25213e-07)
(0.426305 0.128113 2.64472e-07)
(0.467389 0.149599 1.37356e-07)
(0.55812 0.146665 1.65126e-08)
(0.604098 0.146015 3.72863e-08)
(0.612061 0.150941 4.5317e-08)
(0.609311 0.157805 2.93176e-08)
(0.605437 0.164667 6.14205e-09)
(0.60098 0.170987 1.16893e-10)
(0.594628 0.176818 -2.1647e-08)
(0.588431 0.182952 -5.02342e-08)
(0.578449 0.18893 5.7124e-08)
(0.568045 0.195133 -6.66364e-08)
(0.565689 0.198574 1.22811e-07)
(0.565552 0.204039 5.02815e-08)
(0.5595 0.213334 9.09696e-08)
(0.542912 0.227355 1.28734e-07)
(0.513667 0.249573 1.59024e-07)
(0.468153 0.280295 1.67223e-07)
(0.406351 0.32497 1.4246e-07)
(0.338562 0.38884 5.17831e-08)
(0.254584 0.469917 3.7841e-08)
(0.130744 0.585303 1.81536e-08)
(2.21588 0.00207051 -2.3313e-07)
(1.66606 0.00495211 7.17619e-08)
(0.738246 0.010466 6.11292e-07)
(0.448398 0.0074763 -9.7955e-08)
(0.470255 0.00677933 -9.5603e-08)
(0.524272 0.00758637 -8.82793e-08)
(0.555244 0.0084475 -9.02074e-08)
(0.566589 0.00920101 -9.86246e-08)
(0.570528 0.00987157 -1.12114e-07)
(0.570169 0.0104376 -7.69116e-08)
(0.564647 0.0109244 -1.1257e-07)
(0.55273 0.0114635 -1.47714e-07)
(0.533885 0.0121159 -3.22127e-08)
(0.51505 0.0127071 -2.91682e-07)
(0.504595 0.0131593 -1.03262e-08)
(0.498141 0.0135118 -9.21028e-08)
(0.492213 0.0138711 -4.00865e-08)
(0.480829 0.0144791 -3.53508e-08)
(0.452768 0.0153104 2.22162e-07)
(0.40454 0.0165005 4.57395e-07)
(0.332329 0.017701 6.56192e-08)
(0.23983 0.0190681 -3.19966e-07)
(0.157588 0.0206974 -5.3769e-08)
(0.0932442 0.0222605 2.46447e-08)
(0.0363703 0.023303 -1.40692e-08)
(2.22336 0.00173125 3.26027e-07)
(1.67952 0.0080108 8.20482e-07)
(0.751382 0.0283937 5.98748e-07)
(0.452192 0.0210768 -2.0125e-07)
(0.471801 0.0192918 -1.8316e-07)
(0.525189 0.021038 -1.14882e-07)
(0.555546 0.0226571 -8.78264e-08)
(0.566531 0.0240093 -8.9732e-08)
(0.570202 0.0251125 -1.03569e-07)
(0.56961 0.0258954 -8.7617e-08)
(0.564017 0.0264698 -1.20428e-07)
(0.552273 0.0271913 -1.31095e-07)
(0.533675 0.028167 5.37498e-09)
(0.515096 0.0291911 -4.80102e-07)
(0.505001 0.0297729 9.7544e-08)
(0.498963 0.0305383 3.43629e-08)
(0.493512 0.0314692 2.83334e-08)
(0.482565 0.0329988 -5.74605e-08)
(0.454892 0.0350338 8.93781e-08)
(0.406784 0.0377347 4.73492e-07)
(0.334466 0.0400921 8.12081e-08)
(0.242012 0.0427152 -3.14704e-07)
(0.159346 0.0459727 -6.20561e-08)
(0.0937935 0.0484249 1.67542e-08)
(0.0360077 0.0486469 -1.80139e-08)
(2.22646 -0.00640482 -5.35522e-08)
(1.69967 -0.000662838 2.25618e-06)
(0.766933 0.0436413 6.60937e-07)
(0.450557 0.0350963 -1.9967e-07)
(0.470547 0.0332086 -1.74612e-07)
(0.525178 0.0360593 -1.01493e-07)
(0.555786 0.0386154 -8.1527e-08)
(0.567214 0.0409009 -8.38377e-08)
(0.571213 0.0429431 -9.78481e-08)
(0.570833 0.0445621 -9.4129e-08)
(0.565608 0.0458948 -1.25632e-07)
(0.554468 0.0473835 -1.2833e-07)
(0.536508 0.0490036 -1.11403e-08)
(0.518076 0.0510896 -4.44833e-07)
(0.508006 0.051961 -6.71408e-09)
(0.502137 0.0533267 1.10016e-07)
(0.496808 0.0551442 5.77727e-08)
(0.48618 0.0577803 -8.45252e-08)
(0.459083 0.0614401 -8.12697e-10)
(0.411228 0.0661876 4.46389e-07)
(0.338963 0.0708613 8.74593e-08)
(0.247039 0.0759712 -2.96616e-07)
(0.164017 0.0820294 -8.49544e-08)
(0.096536 0.0863421 -3.86542e-09)
(0.0367286 0.0861588 -3.33817e-08)
(2.20269 -0.00529662 -6.50385e-07)
(1.70835 0.00497728 -2.60669e-06)
(0.775029 0.0659206 8.10864e-07)
(0.441727 0.0506512 -7.99714e-08)
(0.46654 0.0460084 -8.36673e-08)
(0.524427 0.0496022 -7.36082e-08)
(0.555918 0.0531908 -7.09564e-08)
(0.568142 0.0563896 -7.41996e-08)
(0.572715 0.0592662 -9.40386e-08)
(0.572707 0.0615965 -9.09639e-08)
(0.568043 0.0635878 -1.06588e-07)
(0.557719 0.0656596 -1.32276e-07)
(0.540955 0.0676425 -9.09184e-08)
(0.522908 0.0707552 -2.47105e-07)
(0.512719 0.072064 -1.21258e-07)
(0.507247 0.0737232 5.85061e-08)
(0.502091 0.0767128 9.21928e-08)
(0.491857 0.0805681 5.36024e-08)
(0.465626 0.0859663 1.1889e-07)
(0.418499 0.0928111 2.25095e-07)
(0.346676 0.100386 2.88478e-08)
(0.255456 0.108791 -2.14881e-07)
(0.171787 0.118293 -9.6482e-08)
(0.10133 0.125161 -3.07899e-08)
(0.0381665 0.124948 -5.91838e-08)
(2.21342 -0.005823 1.20171e-07)
(1.75363 0.00772568 5.71667e-07)
(0.813803 0.0863725 8.16943e-07)
(0.443427 0.066922 -1.62552e-07)
(0.466818 0.0585905 -1.4316e-07)
(0.527073 0.0623557 -8.49298e-08)
(0.558419 0.0668504 -7.07093e-08)
(0.570704 0.0711021 -6.92177e-08)
(0.575414 0.0749905 -8.87745e-08)
(0.575597 0.0782356 -8.65342e-08)
(0.571459 0.0811136 -6.6599e-08)
(0.561925 0.0839158 -1.38126e-07)
(0.546699 0.0863812 -1.472e-07)
(0.529339 0.0903977 -1.20478e-07)
(0.518689 0.0923772 -6.08427e-08)
(0.513826 0.0941775 -1.07067e-07)
(0.509126 0.0984653 7.47601e-08)
(0.499164 0.103729 1.24327e-07)
(0.473907 0.110867 1.77442e-07)
(0.427934 0.119773 1.41167e-07)
(0.357203 0.13013 -4.80662e-08)
(0.267095 0.142292 -1.52822e-07)
(0.182697 0.155934 -1.10629e-07)
(0.108328 0.166292 -5.9897e-08)
(0.040478 0.166709 -8.73056e-08)
(2.19461 -0.0139189 -1.65542e-07)
(1.7862 -0.00242354 1.06665e-07)
(0.84575 0.0981174 4.75586e-07)
(0.436683 0.0852694 2.42185e-08)
(0.464507 0.0728921 -7.74352e-08)
(0.530312 0.0744263 -1.01945e-07)
(0.562311 0.0797636 -6.08003e-08)
(0.574702 0.0852802 -6.09231e-08)
(0.579367 0.0903345 -8.06283e-08)
(0.579591 0.0946365 -8.52421e-08)
(0.575848 0.0984866 -4.34343e-08)
(0.566991 0.102028 -1.46935e-07)
(0.553479 0.105134 -1.30161e-07)
(0.537113 0.109837 -8.51641e-08)
(0.525888 0.112603 -5.89175e-08)
(0.521846 0.114882 -5.45725e-08)
(0.517982 0.120508 3.75769e-08)
(0.508236 0.126956 7.61149e-08)
(0.483995 0.135679 1.42576e-07)
(0.439551 0.146877 1.37461e-07)
(0.370816 0.160481 -5.73527e-08)
(0.282671 0.17726 -1.18332e-07)
(0.197676 0.19616 -1.34468e-07)
(0.118447 0.211787 -9.08046e-08)
(0.0442135 0.214358 -1.13565e-07)
(2.17328 -0.0154898 2.4686e-08)
(1.81541 -0.00564066 2.84084e-07)
(0.885949 0.101684 3.36288e-07)
(0.425846 0.106609 7.50299e-08)
(0.460936 0.0910276 1.66894e-08)
(0.534609 0.0863805 -1.19651e-07)
(0.569022 0.0923678 -5.54177e-08)
(0.580851 0.0994028 -4.87015e-08)
(0.584821 0.105658 -6.70214e-08)
(0.584733 0.111049 -7.97606e-08)
(0.581146 0.115863 -5.11177e-08)
(0.572892 0.120087 -1.64253e-07)
(0.561174 0.123926 -7.21014e-08)
(0.546036 0.129186 -1.06314e-07)
(0.534449 0.132867 -5.36999e-08)
(0.531483 0.136114 3.47906e-08)
(0.528386 0.142246 -2.80669e-08)
(0.518615 0.149768 3.54503e-08)
(0.495798 0.159951 9.56564e-08)
(0.45376 0.173717 7.88556e-08)
(0.388208 0.191197 -3.34571e-08)
(0.303007 0.21357 -8.81743e-08)
(0.218043 0.239446 -1.50876e-07)
(0.133526 0.263271 -1.13808e-07)
(0.050784 0.270963 -1.3171e-07)
(2.14865 -0.0213642 -1.78199e-07)
(1.83377 -0.0190663 -1.0439e-07)
(0.931594 0.0851341 1.21268e-07)
(0.420718 0.122595 5.49169e-08)
(0.458224 0.111005 4.94829e-08)
(0.539773 0.101662 -1.33112e-08)
(0.579307 0.106229 -2.85648e-08)
(0.589638 0.114083 -3.04029e-08)
(0.591854 0.121426 -5.08368e-08)
(0.590962 0.127793 -6.58659e-08)
(0.587229 0.133483 -6.61449e-08)
(0.579485 0.138406 -1.53379e-07)
(0.569616 0.143087 -5.46834e-08)
(0.556025 0.148849 -1.27752e-07)
(0.544596 0.153435 -3.94659e-08)
(0.54223 0.157601 8.34664e-08)
(0.539884 0.163077 -5.8881e-08)
(0.53063 0.171813 9.05012e-08)
(0.509555 0.183619 6.50046e-09)
(0.470833 0.200086 6.96016e-11)
(0.409885 0.221757 -1.5993e-08)
(0.3294 0.250777 -6.14091e-08)
(0.246211 0.285998 -1.4781e-07)
(0.15668 0.322525 -1.2245e-07)
(0.0626685 0.342073 -1.38962e-07)
(2.09995 -0.0276002 -1.84189e-07)
(1.82451 -0.0325234 -9.62283e-08)
(0.95966 0.0575486 -6.11114e-09)
(0.418387 0.131827 1.07652e-08)
(0.458497 0.1319 1.45812e-08)
(0.547111 0.122709 3.21811e-08)
(0.591311 0.1236 -6.33331e-09)
(0.600507 0.130511 -1.76946e-08)
(0.60033 0.138247 -3.3049e-08)
(0.598056 0.145315 -5.15692e-08)
(0.593983 0.151648 -7.01202e-08)
(0.586831 0.157249 -1.20714e-07)
(0.578823 0.162823 -4.27665e-08)
(0.566952 0.168941 -1.77705e-07)
(0.556037 0.174309 1.28711e-08)
(0.553645 0.178511 3.25804e-09)
(0.552234 0.183638 3.49395e-08)
(0.544423 0.19309 8.20226e-08)
(0.525339 0.206421 4.30729e-08)
(0.490794 0.225405 -4.18024e-08)
(0.436391 0.251667 -6.2241e-08)
(0.363424 0.2884 -3.84801e-09)
(0.285401 0.33543 -1.2623e-07)
(0.193889 0.389468 -1.22668e-07)
(0.085651 0.434534 -1.37266e-07)
(2.04311 -0.0363341 -2.79902e-07)
(1.80512 -0.0517488 -2.88222e-07)
(0.984249 0.016626 -1.01818e-08)
(0.426308 0.128094 9.41683e-08)
(0.467395 0.149597 3.70083e-08)
(0.558129 0.146671 -3.96078e-09)
(0.604111 0.146022 9.29346e-09)
(0.612077 0.150946 -8.47195e-09)
(0.609331 0.157807 -2.68755e-08)
(0.605467 0.164664 -4.6382e-08)
(0.60102 0.170976 -7.08191e-08)
(0.594687 0.176801 -9.67118e-08)
(0.588525 0.182933 -2.48616e-08)
(0.57859 0.188896 -1.96559e-07)
(0.568172 0.19511 1.38895e-07)
(0.565774 0.198546 -1.30245e-07)
(0.56565 0.204042 4.14473e-08)
(0.5596 0.213342 7.48836e-08)
(0.543007 0.227361 1.74397e-08)
(0.513772 0.249577 -1.58132e-08)
(0.468243 0.280301 -2.94041e-08)
(0.406394 0.324983 -7.24226e-09)
(0.338575 0.38887 -9.53418e-08)
(0.254603 0.469936 -1.11404e-07)
(0.130757 0.585312 -1.30976e-07)
(2.21589 0.00206614 -4.3739e-08)
(1.66613 0.00494536 4.1013e-07)
(0.738302 0.0104631 8.01908e-07)
(0.448406 0.00747567 -2.19131e-07)
(0.470258 0.00677984 -2.05793e-07)
(0.524272 0.00758738 -1.61573e-07)
(0.555241 0.00844873 -1.49826e-07)
(0.566579 0.00920253 -1.15384e-07)
(0.570512 0.00987343 -8.85118e-08)
(0.570147 0.0104399 -8.53948e-08)
(0.564621 0.0109273 -7.86612e-08)
(0.552702 0.0114665 -6.15143e-08)
(0.533855 0.0121179 -7.42713e-08)
(0.515022 0.0127105 -7.20221e-08)
(0.504571 0.0131614 -7.00442e-08)
(0.498129 0.0135159 -2.33117e-08)
(0.492216 0.0138767 3.19005e-09)
(0.480843 0.0144855 1.42975e-08)
(0.452784 0.0153147 3.70424e-08)
(0.404552 0.0165033 1.45058e-07)
(0.332339 0.0177034 8.94709e-08)
(0.239837 0.0190695 8.4322e-09)
(0.157588 0.0206971 2.22962e-09)
(0.0932432 0.0222595 -3.62706e-08)
(0.0363708 0.0233018 -8.77779e-08)
(2.22335 0.00173096 -6.63609e-08)
(1.67958 0.00801334 3.76648e-07)
(0.751425 0.0283951 7.96427e-07)
(0.452191 0.0210767 -2.29696e-07)
(0.4718 0.019291 -2.12469e-07)
(0.525188 0.0210374 -1.57574e-07)
(0.555542 0.0226564 -1.40751e-07)
(0.566522 0.0240083 -1.13435e-07)
(0.570188 0.0251113 -9.03928e-08)
(0.569593 0.025894 -8.48487e-08)
(0.563999 0.0264685 -7.22802e-08)
(0.552256 0.0271895 -5.93485e-08)
(0.533662 0.0281631 -7.92052e-08)
(0.515086 0.029189 -6.65453e-08)
(0.504996 0.0297682 -7.98312e-08)
(0.498968 0.0305343 -3.36157e-08)
(0.493528 0.0314656 9.58838e-10)
(0.482587 0.0329949 1.19979e-08)
(0.454913 0.0350273 3.00028e-08)
(0.406801 0.0377281 1.40201e-07)
(0.334481 0.0400899 8.6684e-08)
(0.24202 0.0427157 1.06901e-08)
(0.159345 0.045972 5.0169e-09)
(0.0937922 0.0484233 -3.0592e-08)
(0.0360081 0.0486448 -7.93214e-08)
(2.22646 -0.00640252 -3.33151e-07)
(1.69972 -0.000662044 3.15852e-06)
(0.766989 0.0436452 9.36917e-07)
(0.450563 0.0350967 -2.51142e-07)
(0.470549 0.0332069 -2.2836e-07)
(0.525178 0.0360579 -1.50706e-07)
(0.555783 0.038614 -1.2864e-07)
(0.567206 0.0408992 -1.09562e-07)
(0.5712 0.0429413 -8.93204e-08)
(0.570818 0.0445602 -8.01316e-08)
(0.565594 0.0458924 -6.66166e-08)
(0.554458 0.0473791 -6.07497e-08)
(0.536505 0.0489964 -8.42545e-08)
(0.518078 0.0510859 -6.88381e-08)
(0.508013 0.0519556 -7.58264e-08)
(0.502157 0.0533222 -4.87242e-08)
(0.496838 0.0551437 3.07172e-09)
(0.486214 0.057783 4.42314e-09)
(0.459115 0.0614434 2.25438e-08)
(0.411255 0.06619 1.27101e-07)
(0.338985 0.0708638 8.70406e-08)
(0.247049 0.0759742 1.16028e-08)
(0.164016 0.0820302 8.90571e-09)
(0.0965342 0.0863407 -1.99606e-08)
(0.0367287 0.0861561 -6.2683e-08)
(2.20268 -0.00529853 -4.49204e-07)
(1.70836 0.00497297 -2.48468e-06)
(0.775075 0.0659234 9.21587e-07)
(0.44173 0.0506516 -2.10539e-07)
(0.466541 0.0460069 -1.91508e-07)
(0.524427 0.0496007 -1.27614e-07)
(0.555916 0.053189 -1.13154e-07)
(0.568135 0.0563871 -1.03633e-07)
(0.572703 0.0592632 -8.55779e-08)
(0.572692 0.0615931 -7.44136e-08)
(0.568027 0.0635823 -7.22116e-08)
(0.557706 0.065652 -6.8093e-08)
(0.540951 0.0676345 -8.21572e-08)
(0.522909 0.070748 -4.43364e-08)
(0.512722 0.0720599 -5.18602e-08)
(0.50726 0.0737251 -7.20181e-08)
(0.502112 0.0767211 2.37951e-08)
(0.491877 0.0805828 1.0556e-08)
(0.465641 0.0859821 3.38789e-08)
(0.41851 0.0928242 8.62235e-08)
(0.346686 0.100394 9.38486e-08)
(0.255459 0.108794 2.03163e-08)
(0.171781 0.118294 1.68902e-08)
(0.101325 0.125159 -3.58036e-09)
(0.0381658 0.124944 -3.76767e-08)
(2.21342 -0.00582318 2.7292e-08)
(1.7537 0.00772764 5.15593e-07)
(0.813858 0.0863723 9.6399e-07)
(0.443432 0.0669251 -2.43796e-07)
(0.46682 0.0585903 -2.1247e-07)
(0.527074 0.0623544 -1.21959e-07)
(0.558418 0.0668486 -1.05047e-07)
(0.570697 0.0710994 -9.74787e-08)
(0.575403 0.0749871 -8.14713e-08)
(0.57558 0.0782312 -7.33941e-08)
(0.571439 0.0811065 -8.25225e-08)
(0.561904 0.0839086 -5.98813e-08)
(0.546681 0.0863782 -6.36972e-08)
(0.529319 0.0903897 -9.02477e-08)
(0.518667 0.0923792 -5.10455e-08)
(0.513808 0.0941935 -8.22131e-08)
(0.509112 0.0984827 3.31984e-09)
(0.499148 0.103749 -1.59716e-08)
(0.473889 0.110885 1.3155e-08)
(0.427917 0.119787 6.50441e-08)
(0.357193 0.130138 7.52125e-08)
(0.267086 0.142293 2.61605e-08)
(0.182686 0.155933 2.34841e-08)
(0.10832 0.166288 1.30964e-08)
(0.0404763 0.166703 -9.74383e-09)
(2.19461 -0.0139216 -2.08826e-07)
(1.78626 -0.00243019 9.20976e-08)
(0.84581 0.0981057 5.26073e-07)
(0.436683 0.0852743 -1.29853e-08)
(0.464508 0.0728955 -1.22441e-07)
(0.530315 0.0744258 -1.32423e-07)
(0.562311 0.0797629 -9.0089e-08)
(0.574697 0.0852788 -8.52282e-08)
(0.579355 0.0903322 -7.38721e-08)
(0.579571 0.0946327 -7.203e-08)
(0.575823 0.0984805 -8.33573e-08)
(0.566962 0.102023 -4.60447e-08)
(0.553439 0.105135 -9.15928e-08)