/*--------------------------------*- C++ -*----------------------------------*\
| =========                 |                                                 |
| \\      /  F ield         | OpenFOAM: The Open Source CFD Toolbox           |
|  \\    /   O peration     | Version:  4.1                                   |
|   \\  /    A nd           | Web:      www.OpenFOAM.org                      |
|    \\/     M anipulation  |                                                 |
\*---------------------------------------------------------------------------*/
FoamFile
{
    version     2.0;
    format      ascii;
    class       volScalarField;
    location    "7.58";
    object      p;
}
// * * * * * * * * * * * * * * * * * * * * * * * * * * * * * * * * * * * * * //

dimensions      [1 -1 -2 0 0 0 0];

internalField   nonuniform List<scalar> 
52500
(
1.00001
1.00004
1.00013
1.00027
1.00079
1.00161
1.00459
1.00917
1.02745
1.051
1.17621
1.32687
2.20299
3.91691
9.51342
11.4265
11.2334
11.1123
11.1898
11.4065
11.6442
11.7976
11.9138
12.0067
12.08
1.00001
1.00004
1.00012
1.00027
1.00078
1.00159
1.00454
1.00906
1.02715
1.05037
1.1745
1.32251
2.19087
3.88248
9.42951
11.4218
11.2254
11.1
11.1785
11.3965
11.6339
11.7872
11.9052
11.9996
12.0745
1.00001
1.00003
1.00012
1.00026
1.00076
1.00155
1.00443
1.00884
1.02654
1.0491
1.1709
1.31364
2.16482
3.80877
9.24245
11.4112
11.205
11.0658
11.1437
11.3602
11.5942
11.7443
11.8613
11.9545
12.0285
1.00001
1.00003
1.00012
1.00025
1.00073
1.00149
1.00426
1.00845
1.02563
1.04675
1.16594
1.29991
2.12554
3.69638
8.95052
11.3998
11.1749
11.0108
11.0859
11.2971
11.5248
11.6689
11.7817
11.8715
11.9451
1.00001
1.00003
1.00011
1.00024
1.00069
1.00141
1.00403
1.00796
1.0244
1.04392
1.15852
1.28212
2.07405
3.54344
8.55097
11.3903
11.1362
10.9368
11.0075
11.21
11.4287
11.5641
11.6706
11.7559
11.8296
1.00001
1.00003
1.0001
1.00022
1.00064
1.00131
1.00377
1.0074
1.02288
1.04078
1.1486
1.26064
2.00966
3.35065
8.03898
11.3873
11.0917
10.8447
10.9092
11.0991
11.3046
11.4269
11.5217
11.598
11.6714
1.00001
1.00003
1.00009
1.00021
1.0006
1.00122
1.00349
1.00688
1.02109
1.03785
1.13662
1.23977
1.91481
3.12658
7.39909
11.3907
11.0484
10.7371
10.792
10.9625
11.1491
11.2513
11.3261
11.3838
11.4489
1.00001
1.00002
1.00009
1.00019
1.00055
1.00113
1.00322
1.00649
1.01899
1.03625
1.11995
1.2203
1.80165
2.87396
6.64296
11.3844
11.0062
10.619
10.6603
10.8028
10.9618
11.0334
11.074
11.093
11.1299
1
1.00002
1.00008
1.00017
1.00049
1.00102
1.00288
1.00582
1.01684
1.03306
1.10386
1.19768
1.68572
2.60623
5.79678
11.3003
10.932
10.4922
10.5151
10.6173
10.7377
10.7654
10.7516
10.6928
10.6342
1
1.00002
1.00007
1.00015
1.00043
1.00089
1.00253
1.00511
1.01479
1.02909
1.09069
1.17391
1.59206
2.38484
5.14401
10.9397
10.7638
10.3707
10.3551
10.4059
10.47
10.447
10.3507
10.1291
9.79328
1.00001
1.00004
1.00013
1.00028
1.00079
1.00162
1.0046
1.00918
1.02746
1.05102
1.17622
1.32695
2.20306
3.91722
9.51403
11.4265
11.2335
11.1124
11.1899
11.4066
11.6443
11.7977
11.914
12.0068
12.0802
1.00001
1.00004
1.00013
1.00027
1.00078
1.0016
1.00455
1.00907
1.02717
1.05039
1.17452
1.32259
2.19094
3.88279
9.43012
11.4218
11.2255
11.1001
11.1787
11.3966
11.634
11.7874
11.9053
11.9997
12.0746
1.00001
1.00004
1.00012
1.00027
1.00076
1.00156
1.00444
1.00885
1.02655
1.04913
1.17091
1.31372
2.16489
3.80908
9.24308
11.4112
11.2051
11.0659
11.1438
11.3603
11.5943
11.7444
11.8615
11.9546
12.0286
1.00001
1.00004
1.00012
1.00026
1.00073
1.0015
1.00426
1.00846
1.02564
1.04679
1.16594
1.29999
2.12559
3.69669
8.95116
11.3998
11.175
11.0109
11.086
11.2972
11.5249
11.6691
11.7819
11.8717
11.9452
1.00001
1.00003
1.00011
1.00024
1.00069
1.00142
1.00404
1.00797
1.02441
1.04394
1.15854
1.28218
2.07413
3.54376
8.55164
11.3902
11.1362
10.9369
11.0076
11.2101
11.4288
11.5642
11.6707
11.7561
11.8297
1.00001
1.00003
1.00011
1.00023
1.00065
1.00132
1.00377
1.00741
1.02289
1.0408
1.14863
1.2607
2.00975
3.35098
8.03969
11.3873
11.0917
10.8448
10.9093
11.0992
11.3047
11.427
11.5218
11.5981
11.6715
1.00001
1.00003
1.0001
1.00021
1.0006
1.00123
1.0035
1.00689
1.0211
1.03787
1.13665
1.23983
1.91491
3.1269
7.39985
11.3906
11.0485
10.7372
10.7921
10.9626
11.1492
11.2514
11.3262
11.3839
11.449
1.00001
1.00003
1.00009
1.0002
1.00056
1.00114
1.00322
1.0065
1.019
1.03627
1.11995
1.22038
1.80171
2.87426
6.6437
11.3843
11.0062
10.6191
10.6604
10.8029
10.9618
11.0335
11.074
11.0931
11.13
1.00001
1.00002
1.00008
1.00018
1.0005
1.00102
1.00289
1.00583
1.01685
1.03308
1.10389
1.19773
1.6858
2.6065
5.79752
11.3003
10.932
10.4923
10.5152
10.6174
10.7378
10.7654
10.7517
10.6929
10.6343
1
1.00002
1.00007
1.00015
1.00044
1.0009
1.00254
1.00512
1.0148
1.0291
1.09071
1.17396
1.59211
2.38503
5.1444
10.94
10.764
10.3708
10.3552
10.406
10.4701
10.4471
10.3508
10.1291
9.79336
1.00001
1.00004
1.00013
1.00028
1.00079
1.00162
1.0046
1.00918
1.02746
1.05102
1.17622
1.32695
2.20307
3.91725
9.51408
11.4265
11.2335
11.1124
11.1899
11.4067
11.6443
11.7977
11.914
12.0068
12.0802
1.00001
1.00004
1.00013
1.00027
1.00078
1.0016
1.00455
1.00907
1.02717
1.05039
1.17452
1.32259
2.19095
3.88282
9.43018
11.4218
11.2255
11.1001
11.1787
11.3966
11.634
11.7874
11.9053
11.9997
12.0746
1.00001
1.00004
1.00012
1.00027
1.00076
1.00156
1.00444
1.00885
1.02655
1.04913
1.17092
1.31372
2.16489
3.8091
9.24313
11.4112
11.2051
11.0659
11.1438
11.3603
11.5943
11.7444
11.8615
11.9546
12.0286
1.00001
1.00004
1.00012
1.00026
1.00073
1.0015
1.00426
1.00846
1.02564
1.04679
1.16594
1.3
2.1256
3.69671
8.95121
11.3998
11.175
11.0109
11.086
11.2972
11.525
11.6691
11.7819
11.8717
11.9452
1.00001
1.00003
1.00011
1.00024
1.00069
1.00142
1.00404
1.00797
1.02441
1.04394
1.15854
1.28219
2.07414
3.54378
8.5517
11.3902
11.1362
10.9369
11.0076
11.2101
11.4288
11.5642
11.6707
11.7561
11.8297
1.00001
1.00003
1.00011
1.00023
1.00065
1.00132
1.00377
1.00741
1.02289
1.0408
1.14863
1.2607
2.00976
3.351
8.03975
11.3872
11.0917
10.8448
10.9093
11.0992
11.3047
11.427
11.5218
11.5981
11.6715
1.00001
1.00003
1.0001
1.00021
1.0006
1.00123
1.0035
1.00689
1.0211
1.03787
1.13665
1.23983
1.91492
3.12693
7.39992
11.3906
11.0485
10.7372
10.7921
10.9626
11.1492
11.2514
11.3262
11.3839
11.449
1.00001
1.00003
1.00009
1.0002
1.00056
1.00114
1.00322
1.0065
1.019
1.03627
1.11996
1.22038
1.80172
2.87428
6.64378
11.3843
11.0062
10.6191
10.6604
10.8029
10.9619
11.0335
11.074
11.0931
11.13
1.00001
1.00002
1.00008
1.00018
1.0005
1.00102
1.00289
1.00583
1.01685
1.03308
1.10389
1.19773
1.68581
2.60652
5.79759
11.3003
10.932
10.4923
10.5152
10.6174
10.7378
10.7655
10.7517
10.6929
10.6343
1
1.00002
1.00007
1.00015
1.00044
1.0009
1.00254
1.00512
1.0148
1.0291
1.09071
1.17396
1.59212
2.38504
5.14443
10.94
10.764
10.3708
10.3552
10.406
10.4701
10.4471
10.3508
10.1291
9.79336
1.00001
1.00004
1.00013
1.00028
1.00079
1.00162
1.0046
1.00918
1.02747
1.05102
1.17622
1.32695
2.20307
3.91725
9.51408
11.4265
11.2335
11.1124
11.1899
11.4067
11.6443
11.7977
11.914
12.0068
12.0802
1.00001
1.00004
1.00013
1.00027
1.00078
1.0016
1.00455
1.00907
1.02717
1.05039
1.17452
1.32259
2.19095
3.88282
9.43018
11.4218
11.2255
11.1001
11.1787
11.3966
11.634
11.7874
11.9053
11.9997
12.0746
1.00001
1.00004
1.00012
1.00027
1.00076
1.00156
1.00444
1.00885
1.02655
1.04913
1.17092
1.31372
2.16489
3.80911
9.24314
11.4112
11.2051
11.0659
11.1438
11.3603
11.5943
11.7444
11.8615
11.9546
12.0286
1.00001
1.00004
1.00012
1.00026
1.00073
1.0015
1.00426
1.00846
1.02564
1.04679
1.16594
1.3
2.1256
3.69671
8.95122
11.3998
11.175
11.0109
11.086
11.2972
11.525
11.6691
11.7819
11.8717
11.9452
1.00001
1.00003
1.00011
1.00024
1.00069
1.00142
1.00404
1.00797
1.02441
1.04394
1.15854
1.28219
2.07414
3.54378
8.5517
11.3902
11.1362
10.9369
11.0076
11.2101
11.4288
11.5642
11.6707
11.7561
11.8297
1.00001
1.00003
1.00011
1.00023
1.00065
1.00132
1.00377
1.00741
1.02289
1.0408
1.14863
1.2607
2.00976
3.351
8.03976
11.3872
11.0917
10.8448
10.9093
11.0992
11.3047
11.427
11.5218
11.5981
11.6715
1.00001
1.00003
1.0001
1.00021
1.0006
1.00123
1.0035
1.00689
1.0211
1.03787
1.13665
1.23983
1.91492
3.12693
7.39992
11.3906
11.0485
10.7372
10.7921
10.9626
11.1492
11.2514
11.3262
11.3839
11.449
1.00001
1.00003
1.00009
1.0002
1.00056
1.00114
1.00322
1.0065
1.019
1.03627
1.11996
1.22038
1.80172
2.87429
6.64378
11.3843
11.0062
10.6191
10.6604
10.8029
10.9619
11.0335
11.074
11.0931
11.13
1.00001
1.00002
1.00008
1.00018
1.0005
1.00102
1.00289
1.00583
1.01685
1.03308
1.10389
1.19773
1.68581
2.60652
5.79759
11.3003
10.932
10.4923
10.5152
10.6174
10.7378
10.7655
10.7517
10.6929
10.6343
1
1.00002
1.00007
1.00015
1.00044
1.0009
1.00254
1.00512
1.0148
1.0291
1.09071
1.17396
1.59212
2.38504
5.14444
10.94
10.764
10.3708
10.3552
10.406
10.4701
10.4471
10.3508
10.1291
9.79336
1.00001
1.00004
1.00013
1.00028
1.00079
1.00162
1.0046
1.00918
1.02747
1.05102
1.17622
1.32695
2.20307
3.91725
9.5141
11.4265
11.2335
11.1124
11.1899
11.4067
11.6443
11.7977
11.914
12.0068
12.0802
1.00001
1.00004
1.00013
1.00027
1.00078
1.0016
1.00455
1.00907
1.02717
1.05039
1.17452
1.32259
2.19095
3.88282
9.43019
11.4218
11.2255
11.1001
11.1787
11.3966
11.634
11.7874
11.9053
11.9997
12.0746
1.00001
1.00004
1.00012
1.00027
1.00076
1.00156
1.00444
1.00885
1.02655
1.04913
1.17092
1.31372
2.1649
3.80911
9.24315
11.4112
11.2051
11.0659
11.1438
11.3603
11.5943
11.7444
11.8615
11.9546
12.0286
1.00001
1.00004
1.00012
1.00026
1.00073
1.0015
1.00427
1.00846
1.02564
1.04679
1.16594
1.3
2.1256
3.69672
8.95123
11.3998
11.175
11.0109
11.086
11.2972
11.525
11.6691
11.7819
11.8717
11.9452
1.00001
1.00003
1.00011
1.00024
1.00069
1.00142
1.00404
1.00797
1.02441
1.04394
1.15855
1.28219
2.07414
3.54379
8.55171
11.3902
11.1362
10.9369
11.0076
11.2102
11.4288
11.5642
11.6707
11.7561
11.8297
1.00001
1.00003
1.00011
1.00023
1.00065
1.00132
1.00377
1.00741
1.02289
1.0408
1.14863
1.2607
2.00976
3.35101
8.03977
11.3872
11.0917
10.8448
10.9093
11.0992
11.3047
11.427
11.5218
11.5981
11.6715
1.00001
1.00003
1.0001
1.00021
1.0006
1.00123
1.0035
1.00689
1.0211
1.03787
1.13665
1.23983
1.91492
3.12693
7.39993
11.3906
11.0485
10.7372
10.7921
10.9626
11.1492
11.2514
11.3262
11.3839
11.449
1.00001
1.00003
1.00009
1.0002
1.00056
1.00114
1.00322
1.0065
1.019
1.03627
1.11996
1.22038
1.80173
2.87429
6.64379
11.3843
11.0062
10.6191
10.6604
10.8029
10.9619
11.0335
11.074
11.0931
11.13
1.00001
1.00002
1.00008
1.00018
1.0005
1.00102
1.00289
1.00583
1.01685
1.03308
1.10389
1.19773
1.68581
2.60653
5.79761
11.3003
10.932
10.4923
10.5152
10.6174
10.7378
10.7655
10.7517
10.6929
10.6343
1
1.00002
1.00007
1.00015
1.00044
1.0009
1.00254
1.00512
1.0148
1.0291
1.09071
1.17396
1.59212
2.38505
5.14444
10.94
10.764
10.3708
10.3552
10.406
10.4701
10.4471
10.3508
10.1291
9.79337
1.00001
1.00004
1.00013
1.00028
1.00079
1.00162
1.0046
1.00918
1.02747
1.05102
1.17622
1.32695
2.20307
3.91725
9.5141
11.4265
11.2335
11.1124
11.1899
11.4067
11.6443
11.7977
11.914
12.0068
12.0802
1.00001
1.00004
1.00013
1.00027
1.00078
1.0016
1.00455
1.00907
1.02717
1.05039
1.17452
1.32259
2.19095
3.88282
9.4302
11.4218
11.2255
11.1001
11.1787
11.3966
11.634
11.7874
11.9053
11.9997
12.0746
1.00001
1.00004
1.00012
1.00027
1.00076
1.00156
1.00444
1.00885
1.02655
1.04913
1.17092
1.31372
2.1649
3.80911
9.24315
11.4112
11.2051
11.0659
11.1439
11.3603
11.5943
11.7444
11.8615
11.9546
12.0286
1.00001
1.00004
1.00012
1.00026
1.00073
1.0015
1.00427
1.00846
1.02564
1.04679
1.16594
1.3
2.1256
3.69672
8.95123
11.3998
11.175
11.0109
11.086
11.2972
11.525
11.6691
11.7819
11.8717
11.9452
1.00001
1.00003
1.00011
1.00024
1.00069
1.00142
1.00404
1.00797
1.02441
1.04394
1.15855
1.28219
2.07414
3.54379
8.55172
11.3902
11.1362
10.9369
11.0076
11.2102
11.4288
11.5642
11.6707
11.7561
11.8297
1.00001
1.00003
1.00011
1.00023
1.00065
1.00132
1.00377
1.00741
1.02289
1.0408
1.14863
1.2607
2.00976
3.35101
8.03977
11.3872
11.0917
10.8448
10.9093
11.0992
11.3047
11.427
11.5218
11.5981
11.6715
1.00001
1.00003
1.0001
1.00021
1.0006
1.00123
1.0035
1.00689
1.0211
1.03787
1.13665
1.23983
1.91492
3.12693
7.39994
11.3906
11.0485
10.7372
10.7921
10.9626
11.1492
11.2514
11.3262
11.3839
11.449
1.00001
1.00003
1.00009
1.0002
1.00056
1.00114
1.00322
1.0065
1.019
1.03627
1.11996
1.22038
1.80173
2.87429
6.6438
11.3843
11.0062
10.6191
10.6604
10.8029
10.9619
11.0335
11.074
11.0931
11.13
1.00001
1.00002
1.00008
1.00018
1.0005
1.00102
1.00289
1.00583
1.01685
1.03308
1.10389
1.19773
1.68582
2.60653
5.79761
11.3003
10.932
10.4923
10.5152
10.6174
10.7378
10.7655
10.7517
10.6929
10.6343
1
1.00002
1.00007
1.00015
1.00044
1.0009
1.00254
1.00512
1.0148
1.0291
1.09071
1.17396
1.59212
2.38505
5.14445
10.94
10.764
10.3708
10.3552
10.406
10.4701
10.4471
10.3508
10.1291
9.79337
1.00001
1.00004
1.00013
1.00028
1.00079
1.00162
1.0046
1.00918
1.02747
1.05102
1.17622
1.32695
2.20307
3.91725
9.51409
11.4265
11.2335
11.1124
11.1899
11.4067
11.6443
11.7977
11.914
12.0068
12.0802
1.00001
1.00004
1.00013
1.00027
1.00078
1.0016
1.00455
1.00907
1.02717
1.05039
1.17452
1.32259
2.19095
3.88282
9.43019
11.4218
11.2255
11.1001
11.1787
11.3966
11.634
11.7874
11.9053
11.9997
12.0746
1.00001
1.00004
1.00012
1.00027
1.00076
1.00156
1.00444
1.00885
1.02655
1.04913
1.17092
1.31372
2.1649
3.80911
9.24314
11.4112
11.2051
11.0659
11.1438
11.3603
11.5943
11.7444
11.8615
11.9546
12.0286
1.00001
1.00004
1.00012
1.00026
1.00073
1.0015
1.00426
1.00846
1.02564
1.04679
1.16594
1.3
2.1256
3.69671
8.95122
11.3998
11.175
11.0109
11.086
11.2972
11.525
11.6691
11.7819
11.8717
11.9452
1.00001
1.00003
1.00011
1.00024
1.00069
1.00142
1.00404
1.00797
1.02441
1.04394
1.15855
1.28219
2.07414
3.54379
8.55171
11.3902
11.1362
10.9369
11.0076
11.2102
11.4288
11.5642
11.6707
11.7561
11.8297
1.00001
1.00003
1.00011
1.00023
1.00065
1.00132
1.00377
1.00741
1.02289
1.0408
1.14863
1.2607
2.00976
3.351
8.03976
11.3872
11.0917
10.8448
10.9093
11.0992
11.3047
11.427
11.5218
11.5981
11.6715
1.00001
1.00003
1.0001
1.00021
1.0006
1.00123
1.0035
1.00689
1.0211
1.03787
1.13665
1.23983
1.91492
3.12693
7.39993
11.3906
11.0485
10.7372
10.7921
10.9626
11.1492
11.2514
11.3262
11.3839
11.449
1.00001
1.00003
1.00009
1.0002
1.00056
1.00114
1.00322
1.0065
1.019
1.03627
1.11996
1.22038
1.80172
2.87429
6.64379
11.3843
11.0062
10.6191
10.6604
10.8029
10.9619
11.0335
11.074
11.0931
11.13
1.00001
1.00002
1.00008
1.00018
1.0005
1.00102
1.00289
1.00583
1.01685
1.03308
1.10389
1.19773
1.68581
2.60652
5.7976
11.3003
10.932
10.4923
10.5152
10.6174
10.7378
10.7655
10.7517
10.6929
10.6343
1
1.00002
1.00007
1.00015
1.00044
1.0009
1.00254
1.00512
1.0148
1.0291
1.09071
1.17396
1.59212
2.38505
5.14444
10.94
10.764
10.3708
10.3552
10.406
10.4701
10.4471
10.3508
10.1291
9.79337
1.00001
1.00004
1.00013
1.00028
1.00079
1.00162
1.0046
1.00918
1.02746
1.05102
1.17622
1.32695
2.20307
3.91725
9.51408
11.4265
11.2335
11.1124
11.1899
11.4067
11.6443
11.7977
11.914
12.0068
12.0802
1.00001
1.00004
1.00013
1.00027
1.00078
1.0016
1.00455
1.00907
1.02717
1.05039
1.17452
1.32259
2.19095
3.88282
9.43018
11.4218
11.2255
11.1001
11.1787
11.3966
11.634
11.7874
11.9053
11.9997
12.0746
1.00001
1.00004
1.00012
1.00027
1.00076
1.00156
1.00444
1.00885
1.02655
1.04913
1.17092
1.31372
2.16489
3.8091
9.24313
11.4112
11.2051
11.0659
11.1438
11.3603
11.5943
11.7444
11.8615
11.9546
12.0286
1.00001
1.00004
1.00012
1.00026
1.00073
1.0015
1.00426
1.00846
1.02564
1.04679
1.16594
1.3
2.1256
3.69671
8.95121
11.3998
11.175
11.0109
11.086
11.2972
11.525
11.6691
11.7819
11.8717
11.9452
1.00001
1.00003
1.00011
1.00024
1.00069
1.00142
1.00404
1.00797
1.02441
1.04394
1.15854
1.28219
2.07414
3.54378
8.5517
11.3902
11.1362
10.9369
11.0076
11.2101
11.4288
11.5642
11.6707
11.7561
11.8297
1.00001
1.00003
1.00011
1.00023
1.00065
1.00132
1.00377
1.00741
1.02289
1.0408
1.14863
1.2607
2.00976
3.351
8.03975
11.3872
11.0917
10.8448
10.9093
11.0992
11.3047
11.427
11.5218
11.5981
11.6715
1.00001
1.00003
1.0001
1.00021
1.0006
1.00123
1.0035
1.00689
1.0211
1.03787
1.13665
1.23983
1.91492
3.12693
7.39992
11.3906
11.0485
10.7372
10.7921
10.9626
11.1492
11.2514
11.3262
11.3839
11.449
1.00001
1.00003
1.00009
1.0002
1.00056
1.00114
1.00322
1.0065
1.019
1.03627
1.11996
1.22038
1.80172
2.87429
6.64378
11.3843
11.0062
10.6191
10.6604
10.8029
10.9619
11.0335
11.074
11.0931
11.13
1.00001
1.00002
1.00008
1.00018
1.0005
1.00102
1.00289
1.00583
1.01685
1.03308
1.10389
1.19773
1.68581
2.60652
5.79759
11.3003
10.932
10.4923
10.5152
10.6174
10.7378
10.7655
10.7517
10.6929
10.6343
1
1.00002
1.00007
1.00015
1.00044
1.0009
1.00254
1.00512
1.0148
1.0291
1.09071
1.17396
1.59212
2.38504
5.14443
10.94
10.764
10.3708
10.3552
10.406
10.4701
10.4471
10.3508
10.1291
9.79336
1.00001
1.00004
1.00013
1.00028
1.00079
1.00162
1.0046
1.00918
1.02746
1.05102
1.17622
1.32695
2.20306
3.91722
9.51403
11.4265
11.2335
11.1124
11.1899
11.4066
11.6443
11.7977
11.914
12.0068
12.0802
1.00001
1.00004
1.00013
1.00027
1.00078
1.0016
1.00455
1.00907
1.02717
1.05039
1.17452
1.32259
2.19094
3.88279
9.43012
11.4218
11.2255
11.1001
11.1787
11.3966
11.634
11.7874
11.9053
11.9997
12.0746
1.00001
1.00004
1.00012
1.00027
1.00076
1.00156
1.00444
1.00885
1.02655
1.04913
1.17091
1.31372
2.16489
3.80908
9.24307
11.4112
11.2051
11.0659
11.1438
11.3603
11.5943
11.7444
11.8615
11.9546
12.0286
1.00001
1.00004
1.00012
1.00026
1.00073
1.0015
1.00426
1.00846
1.02564
1.04679
1.16594
1.29999
2.12559
3.69669
8.95115
11.3998
11.175
11.0109
11.086
11.2972
11.5249
11.6691
11.7819
11.8717
11.9452
1.00001
1.00003
1.00011
1.00024
1.00069
1.00142
1.00404
1.00797
1.02441
1.04394
1.15854
1.28218
2.07413
3.54376
8.55164
11.3902
11.1362
10.9369
11.0076
11.2101
11.4288
11.5642
11.6707
11.7561
11.8297
1.00001
1.00003
1.00011
1.00023
1.00065
1.00132
1.00377
1.00741
1.02289
1.0408
1.14863
1.2607
2.00975
3.35098
8.03969
11.3873
11.0917
10.8448
10.9093
11.0992
11.3047
11.427
11.5218
11.5981
11.6715
1.00001
1.00003
1.0001
1.00021
1.0006
1.00123
1.0035
1.00689
1.0211
1.03787
1.13665
1.23983
1.91491
3.1269
7.39985
11.3906
11.0485
10.7372
10.7921
10.9626
11.1492
11.2514
11.3262
11.3839
11.449
1.00001
1.00003
1.00009
1.0002
1.00056
1.00114
1.00322
1.0065
1.019
1.03627
1.11995
1.22038
1.80171
2.87426
6.6437
11.3843
11.0062
10.6191
10.6604
10.8029
10.9618
11.0335
11.074
11.0931
11.13
1.00001
1.00002
1.00008
1.00018
1.0005
1.00102
1.00289
1.00583
1.01685
1.03308
1.10389
1.19773
1.6858
2.6065
5.79752
11.3003
10.932
10.4923
10.5152
10.6174
10.7378
10.7654
10.7517
10.6929
10.6343
1
1.00002
1.00007
1.00015
1.00044
1.0009
1.00254
1.00512
1.0148
1.0291
1.09071
1.17396
1.59211
2.38503
5.1444
10.94
10.764
10.3708
10.3552
10.406
10.4701
10.4471
10.3508
10.1291
9.79336
1.00001
1.00004
1.00013
1.00027
1.00079
1.00161
1.00459
1.00917
1.02745
1.051
1.17621
1.32687
2.20299
3.91691
9.51341
11.4265
11.2334
11.1123
11.1898
11.4065
11.6442
11.7976
11.9138
12.0067
12.08
1.00001
1.00004
1.00012
1.00027
1.00078
1.00159
1.00454
1.00906
1.02715
1.05037
1.1745
1.32251
2.19087
3.88248
9.4295
11.4218
11.2254
11.1
11.1785
11.3965
11.6339
11.7872
11.9052
11.9996
12.0745
1.00001
1.00003
1.00012
1.00026
1.00076
1.00155
1.00443
1.00884
1.02654
1.0491
1.1709
1.31364
2.16482
3.80877
9.24244
11.4112
11.205
11.0658
11.1437
11.3602
11.5942
11.7443
11.8613
11.9545
12.0285
1.00001
1.00003
1.00012
1.00025
1.00073
1.00149
1.00426
1.00845
1.02563
1.04675
1.16594
1.29991
2.12553
3.69638
8.95052
11.3998
11.1749
11.0108
11.0859
11.2971
11.5248
11.6689
11.7817
11.8715
11.9451
1.00001
1.00003
1.00011
1.00024
1.00069
1.00141
1.00403
1.00796
1.0244
1.04392
1.15852
1.28212
2.07404
3.54344
8.55096
11.3903
11.1362
10.9368
11.0075
11.21
11.4287
11.5641
11.6706
11.7559
11.8296
1.00001
1.00003
1.0001
1.00022
1.00064
1.00131
1.00377
1.0074
1.02288
1.04078
1.1486
1.26064
2.00966
3.35065
8.03897
11.3873
11.0917
10.8447
10.9092
11.0991
11.3046
11.4269
11.5217
11.598
11.6714
1.00001
1.00003
1.00009
1.00021
1.0006
1.00122
1.00349
1.00688
1.02109
1.03785
1.13662
1.23977
1.91481
3.12658
7.39908
11.3907
11.0484
10.7371
10.792
10.9625
11.1491
11.2513
11.3261
11.3838
11.4489
1.00001
1.00002
1.00009
1.00019
1.00055
1.00113
1.00322
1.00649
1.01899
1.03625
1.11995
1.2203
1.80164
2.87396
6.64296
11.3844
11.0062
10.619
10.6603
10.8028
10.9618
11.0334
11.074
11.093
11.1299
1
1.00002
1.00008
1.00017
1.00049
1.00102
1.00288
1.00582
1.01684
1.03306
1.10386
1.19768
1.68572
2.60623
5.79678
11.3003
10.932
10.4922
10.5151
10.6173
10.7377
10.7654
10.7516
10.6928
10.6342
1
1.00002
1.00007
1.00015
1.00043
1.00089
1.00253
1.00511
1.01479
1.02909
1.09069
1.17391
1.59206
2.38484
5.144
10.9397
10.7638
10.3707
10.3551
10.4059
10.47
10.447
10.3507
10.1291
9.79328
1
1.00002
1.00005
1.00015
1.00032
1.00091
1.00184
1.00527
1.01038
1.03195
1.05767
1.20502
1.38709
2.38117
4.41335
10.2041
10.4908
10.3033
10.1749
10.1804
10.1705
10.0848
9.83557
9.26197
7.82748
1
1.00002
1.00004
1.00013
1.00028
1.0008
1.00163
1.00463
1.00927
1.02752
1.05167
1.17509
1.33004
2.18795
3.87014
9.13173
10.327
10.2051
9.9981
9.94296
9.86997
9.69558
9.31137
8.54526
7.09568
1
1.00001
1.00004
1.00011
1.00023
1.00067
1.00137
1.0039
1.00769
1.02352
1.04224
1.15185
1.26874
2.01954
3.37985
7.93137
10.2117
10.0977
9.83782
9.70247
9.57767
9.32664
8.85931
8.09623
6.96034
1
1.00001
1.00003
1.00009
1.0002
1.00056
1.00115
1.00328
1.00649
1.01964
1.03556
1.12606
1.22171
1.8315
2.91317
6.63741
10.1191
9.99707
9.69303
9.47178
9.29456
9.00485
8.52925
7.83722
6.94464
1
1.00001
1.00002
1.00008
1.00016
1.00047
1.00096
1.00272
1.0055
1.01591
1.03131
1.09733
1.1883
1.63432
2.4786
5.28978
9.91355
9.85373
9.58521
9.26902
9.0409
8.73762
8.28552
7.66734
6.92168
1
1
1.00002
1.00005
1.00015
1.00031
1.00089
1.00182
1.00519
1.01022
1.03124
1.05663
1.19838
1.37797
2.30695
4.19723
9.29375
9.63149
9.45471
9.09752
8.82545
8.5132
8.09248
7.54049
6.89003
1
1
1.00002
1.00004
1.00012
1.00026
1.00073
1.00149
1.00421
1.00843
1.02493
1.0467
1.15817
1.29173
2.0548
3.48695
7.93112
9.35803
9.25127
8.97059
8.64453
8.32154
7.92732
7.43294
6.85787
1
1
1.00001
1.00003
1.00009
1.00019
1.00055
1.00113
1.00323
1.00634
1.01952
1.03475
1.12516
1.21922
1.82311
2.87601
6.40875
9.17057
9.11053
8.88128
8.5048
8.1673
7.78964
7.33939
6.82314
0.999998
1
1
1.00002
1.00006
1.00017
1.00035
1.001
1.00197
1.00595
1.01071
1.03727
1.06206
1.23187
1.45869
2.46951
4.70609
8.84523
8.99468
8.81722
8.42708
8.04422
7.67435
7.25865
6.79
0.999996
0.999998
1
1.00002
1.00004
1.00013
1.00027
1.00078
1.00159
1.00451
1.00892
1.02707
1.04914
1.17288
1.31552
2.13064
3.65131
7.99765
8.80692
8.68129
8.35948
7.94123
7.57111
7.18436
6.75865
0.999995
0.999996
1
1.00001
1.00003
1.00008
1.00023
1.00047
1.00136
1.00264
1.00822
1.01429
1.0521
1.08548
1.32894
1.66265
3.13109
6.36103
8.53689
8.4932
8.286
7.86621
7.48574
7.11915
6.72893
0.999994
0.999995
0.999998
1
1.00002
1.00006
1.00018
1.00037
1.00104
1.0021
1.00601
1.01168
1.03651
1.0644
1.23087
1.44614
2.46194
4.59579
8.13
8.35545
8.20961
7.85402
7.43522
7.06896
6.70396
0.999993
0.999994
0.999995
1
1.00001
1.00005
1.00011
1.00032
1.00065
1.00184
1.00372
1.01066
1.02108
1.0638
1.12391
1.39602
1.90026
3.5408
7.16167
8.164
8.07824
7.82506
7.4144
7.0359
6.68428
0.999992
0.999993
0.999994
0.999998
1.00001
1.00003
1.00008
1.00022
1.00047
1.00131
1.00266
1.00758
1.01471
1.04605
1.08147
1.29003
1.58345
2.83573
5.52896
7.88719
7.8971
7.76281
7.42852
7.02851
6.67464
0.999992
0.999992
0.999993
0.999995
1
1.00002
1.00006
1.00013
1.00039
1.00079
1.00223
1.0045
1.01282
1.02537
1.07548
1.15188
1.46269
2.06315
3.83386
7.30317
7.79629
7.69743
7.42904
7.03537
6.67693
0.999991
0.999992
0.999992
0.999994
0.999999
1.00001
1.00004
1.00009
1.00027
1.00055
1.00155
1.00315
1.00888
1.01751
1.05284
1.09846
1.32583
1.70059
3.05528
6.01728
7.58185
7.5616
7.41067
7.06642
6.68847
0.999991
0.999991
0.999992
0.999993
0.999996
1
1.00002
1.00007
1.00015
1.00044
1.00091
1.00255
1.00513
1.01462
1.02874
1.08716
1.16921
1.53962
2.22592
4.26471
7.13247
7.45422
7.36016
7.1092
6.72134
0.999991
0.999991
0.999991
0.999992
0.999994
1
1.00001
1.00005
1.0001
1.0003
1.00062
1.00174
1.00352
1.00989
1.01969
1.05758
1.11467
1.34834
1.78051
3.15569
6.09724
7.26236
7.24143
7.10235
6.7926
0.999991
0.999991
0.999991
0.999991
0.999993
0.999996
1.00001
1.00002
1.00008
1.00017
1.00048
1.00098
1.00274
1.00552
1.01576
1.03054
1.09456
1.17998
1.58457
2.30925
4.47815
6.85804
7.14386
7.07043
6.87161
0.999991
0.999991
0.999991
0.999991
0.999992
0.999995
0.999999
1.00001
1.00004
1.00013
1.00027
1.00074
1.00152
1.00422
1.00837
1.02462
1.04522
1.15058
1.27759
1.91185
3.04791
5.98397
6.99056
6.98832
6.9125
0.999991
0.999991
0.999991
0.999991
0.999991
0.999993
0.999996
1.00001
1.00002
1.00008
1.00017
1.00049
1.00101
1.0028
1.00566
1.01594
1.03138
1.09455
1.18182
1.58176
2.2911
4.37744
6.61526
6.96107
6.95505
0.999991
0.99999
0.99999
0.999991
0.999991
0.999992
0.999995
0.999999
1.00001
1.00004
1.00013
1.00026
1.00074
1.00151
1.00419
1.00834
1.02418
1.04517
1.14602
1.27527
1.87918
2.9712
5.78254
6.85601
7.06404
0.999991
0.99999
0.99999
0.99999
0.999991
0.999991
0.999993
0.999996
1.00001
1.00002
1.00008
1.00017
1.00048
1.00099
1.00273
1.00551
1.01541
1.03037
1.09058
1.17402
1.5494
2.21159
4.12176
6.52126
7.26199
0.999991
0.99999
0.99999
0.99999
0.999991
0.999991
0.999992
0.999994
1
1.00001
1.00005
1.00011
1.00031
1.00063
1.00174
1.00354
1.00982
1.01956
1.05618
1.11309
1.33292
1.74316
2.99235
5.67336
7.48084
0.999991
0.99999
0.99999
0.99999
0.99999
0.999991
0.999991
0.999993
0.999997
1
1.00003
1.00007
1.00019
1.00041
1.00112
1.00228
1.0063
1.01259
1.03616
1.06877
1.21546
1.43716
2.28805
3.99061
7.48289
0.999991
0.99999
0.99999
0.99999
0.99999
0.999991
0.999991
0.999992
0.999994
1
1.00001
1.00005
1.00011
1.00033
1.00067
1.00188
1.00381
1.01076
1.02124
1.06377
1.12185
1.39197
1.87862
3.49487
7.21045
0.999991
0.99999
0.99999
0.99999
0.99999
0.99999
0.999991
0.999991
0.999994
0.999997
1.00001
1.00003
1.0001
1.00021
1.0006
1.00123
1.00348
1.00691
1.02065
1.03789
1.13032
1.23599
1.85292
2.98184
6.7263
0.999991
0.99999
0.99999
0.99999
0.99999
0.99999
0.999991
0.999991
0.999993
0.999997
1
1.00003
1.00007
1.00021
1.00043
1.00122
1.00241
1.00738
1.01314
1.04711
1.07772
1.30012
1.60991
3.00835
6.44433
0.999991
0.99999
0.99999
0.99999
0.99999
0.99999
0.999991
0.999991
0.999992
0.999996
1
1.00002
1.00006
1.00018
1.00038
1.00111
1.00218
1.00678
1.01198
1.04393
1.07202
1.28347
1.57684
2.92394
6.31002
0.999991
0.99999
0.99999
0.99999
0.99999
0.99999
0.999991
0.999991
0.999993
0.999995
1
1.00002
1.00007
1.00015
1.00045
1.00092
1.00272
1.00532
1.0169
1.03004
1.11052
1.19672
1.73688
2.74172
6.36907
0.999991
0.99999
0.99999
0.99999
0.99999
0.99999
0.999991
0.999991
0.999992
0.999995
1
1.00002
1.00005
1.00017
1.00034
1.00102
1.00194
1.00644
1.01094
1.04163
1.06801
1.26903
1.54705
2.81866
6.01335
0.999991
0.99999
0.99999
0.99999
0.99999
0.99999
0.999991
0.999991
0.999992
0.999995
1
1.00002
1.00007
1.00015
1.00045
1.00092
1.00266
1.00537
1.01601
1.03076
1.1021
1.1912
1.68618
2.62551
5.99317
0.999991
0.99999
0.99999
0.99999
0.99999
0.99999
0.999991
0.999991
0.999992
0.999995
1
1.00002
1.00007
1.00015
1.00044
1.0009
1.0026
1.00526
1.01564
1.03016
1.09936
1.18648
1.66699
2.57846
5.86483
0.999991
0.99999
0.99999
0.99999
0.99999
0.99999
0.99999
0.999991
0.999992
0.999995
1
1.00002
1.00005
1.00016
1.00033
1.00097
1.00186
1.00603
1.01035
1.03899
1.06342
1.24985
1.49751
2.66641
5.56069
0.999991
0.99999
0.99999
0.99999
0.99999
0.99999
0.999991
0.999991
0.999992
0.999995
1
1.00002
1.00006
1.00014
1.00042
1.00085
1.00248
1.00489
1.01526
1.02733
1.0986
1.17447
1.64531
2.50296
5.61128
0.999991
0.99999
0.99999
0.99999
0.99999
0.99999
0.99999
0.999991
0.999992
0.999995
1
1.00002
1.00005
1.00015
1.00032
1.00094
1.00183
1.00584
1.01009
1.03767
1.06117
1.24072
1.47042
2.61344
5.31317
0.999991
0.99999
0.99999
0.99999
0.99999
0.99999
0.999991
0.999991
0.999992
0.999995
1
1.00002
1.00006
1.00014
1.00042
1.00086
1.00247
1.00499
1.01473
1.02835
1.09285
1.17234
1.61412
2.43966
5.41608
0.999991
0.99999
0.99999
0.99999
0.99999
0.99999
0.999991
0.999991
0.999992
0.999995
1
1.00002
1.00006
1.00014
1.00041
1.00085
1.00243
1.00491
1.01449
1.02774
1.09141
1.16877
1.60347
2.41318
5.3402
0.999991
0.99999
0.99999
0.99999
0.99999
0.99999
0.999991
0.999991
0.999992
0.999995
1
1.00002
1.00005
1.00016
1.00034
1.00098
1.00198
1.00576
1.01115
1.03582
1.06247
1.23301
1.44984
2.56488
5.09191
0.999991
0.99999
0.99999
0.99999
0.99999
0.99999
0.999991
0.999991
0.999992
0.999995
1
1.00002
1.00005
1.00016
1.00034
1.00099
1.00202
1.00579
1.01142
1.0353
1.06385
1.22796
1.4451
2.54888
5.03633
1
1.00002
1.00005
1.00016
1.00032
1.00091
1.00185
1.00528
1.01039
1.03196
1.05769
1.20504
1.38717
2.38126
4.41382
10.2047
10.4909
10.3033
10.175
10.1805
10.1706
10.0849
9.83564
9.26204
7.82754
1
1.00002
1.00005
1.00014
1.00029
1.0008
1.00164
1.00464
1.00928
1.02753
1.05169
1.17511
1.33012
2.18804
3.87051
9.13239
10.327
10.2051
9.99817
9.94304
9.87004
9.69566
9.31144
8.54533
7.09574
1
1.00002
1.00004
1.00012
1.00024
1.00068
1.00138
1.00391
1.0077
1.02353
1.04226
1.15188
1.2688
2.01963
3.38017
7.93206
10.2117
10.0977
9.83788
9.70254
9.57774
9.32671
8.85938
8.09629
6.9604
1
1.00001
1.00003
1.0001
1.0002
1.00057
1.00116
1.00329
1.0065
1.01965
1.03559
1.12606
1.2218
1.83155
2.91346
6.6381
10.1191
9.9971
9.69308
9.47185
9.29463
9.00491
8.52931
7.83727
6.9447
1
1.00001
1.00003
1.00008
1.00017
1.00048
1.00097
1.00273
1.00551
1.01592
1.03133
1.09735
1.18835
1.63441
2.47887
5.2905
9.91362
9.85378
9.58525
9.26908
9.04096
8.73768
8.28558
7.66739
6.92173
1
1.00001
1.00003
1.00006
1.00016
1.00032
1.0009
1.00183
1.0052
1.01023
1.03126
1.05665
1.19841
1.37806
2.30704
4.19768
9.29406
9.63158
9.45479
9.09757
8.8255
8.51325
8.09253
7.54053
6.89007
1
1.00001
1.00002
1.00005
1.00013
1.00026
1.00074
1.0015
1.00422
1.00844
1.02494
1.04672
1.15819
1.29181
2.05489
3.48731
7.93181
9.35815
9.25135
8.97062
8.64457
8.32158
7.92735
7.43297
6.8579
1
1
1.00002
1.00003
1.0001
1.0002
1.00056
1.00114
1.00324
1.00635
1.01953
1.03477
1.12519
1.21927
1.82321
2.87631
6.40944
9.1706
9.11055
8.88129
8.50482
8.16732
7.78966
7.33941
6.82316
1
1
1.00001
1.00003
1.00006
1.00018
1.00036
1.00101
1.00198
1.00596
1.01072
1.03729
1.0621
1.23192
1.45881
2.46979
4.70692
8.84535
8.99464
8.81721
8.42708
8.04422
7.67435
7.25866
6.79002
1
1