/*--------------------------------*- C++ -*----------------------------------*\
| =========                 |                                                 |
| \\      /  F ield         | OpenFOAM: The Open Source CFD Toolbox           |
|  \\    /   O peration     | Version:  4.1                                   |
|   \\  /    A nd           | Web:      www.OpenFOAM.org                      |
|    \\/     M anipulation  |                                                 |
\*---------------------------------------------------------------------------*/
FoamFile
{
    version     2.0;
    format      ascii;
    class       surfaceScalarField;
    location    "9.62";
    object      phi;
}
// * * * * * * * * * * * * * * * * * * * * * * * * * * * * * * * * * * * * * //

dimensions      [1 0 -1 0 0 0 0];

internalField   nonuniform List<scalar> 
150500
(
0.0168001
1.76929e-10
-3.27985e-12
0.0168001
9.71394e-10
-1.16642e-11
0.0168001
3.51901e-09
-1.34018e-11
0.0168
8.98647e-09
-2.14827e-11
0.0168
2.46823e-08
-2.19497e-11
0.0168
5.62592e-08
-2.94227e-11
0.0167998
1.4856e-07
-3.12315e-11
0.0167994
3.24144e-07
-4.25858e-11
0.0167983
9.1292e-07
-5.72386e-11
0.0167963
1.9045e-06
-9.63461e-11
0.0167893
6.11136e-06
-1.84886e-10
0.0167725
1.54968e-05
-5.04953e-10
0.0167142
5.62603e-05
-1.04684e-09
0.0165157
0.000188437
-4.0896e-09
0.0154364
0.00105472
-7.54523e-09
0.0142892
0.00114691
8.92716e-10
0.0131283
0.00115997
4.51745e-10
0.0118924
0.00123318
-4.04866e-10
0.0105705
0.00131956
-5.52601e-10
0.00913994
0.00142815
-6.80791e-10
0.00758207
0.00155483
-4.87697e-10
0.00589086
0.00168794
-3.38039e-10
0.00407285
0.0018146
-2.31728e-10
0.00212003
0.00194898
-9.87622e-11
0.00211571
4.94319e-11
0.0168001
3.69785e-10
-3.29026e-12
0.0168001
2.00628e-09
-1.17152e-11
0.0168001
7.21349e-09
-1.3407e-11
0.0168
1.84433e-08
-2.14934e-11
0.0168
5.06143e-08
-2.19415e-11
0.0167999
1.15194e-07
-2.93923e-11
0.0167998
3.04486e-07
-3.11553e-11
0.0167994
6.58866e-07
-4.24217e-11
0.0167983
1.88315e-06
-5.67861e-11
0.0167962
3.82868e-06
-9.64324e-11
0.0167888
1.26549e-05
-1.80651e-10
0.0167719
3.10626e-05
-5.01441e-10
0.0167114
0.000114761
-1.01853e-09
0.0165144
0.000375592
-3.99328e-09
0.0154409
0.00210342
-7.45381e-09
0.0142889
0.00229876
8.77458e-10
0.0131408
0.00230719
4.23075e-10
0.0119153
0.00245594
-4.23244e-10
0.0105985
0.00263399
-5.52936e-10
0.00915423
0.00287002
-6.60239e-10
0.00757415
0.00313178
-4.78723e-10
0.00585711
0.0034016
-3.59577e-10
0.00400692
0.00366095
-2.75228e-10
0.00203854
0.00391349
-1.69252e-10
0.00415001
-5.70898e-11
0.0168001
6.56274e-10
-3.31566e-12
0.0168001
2.99335e-09
-1.18056e-11
0.0168
1.14789e-08
-1.34256e-11
0.0168
2.90754e-08
-2.15067e-11
0.0168
8.01629e-08
-2.19284e-11
0.0167999
1.82947e-07
-2.93257e-11
0.0167997
4.79257e-07
-3.0965e-11
0.0167993
1.06716e-06
-4.16892e-11
0.0167982
2.85888e-06
-5.62942e-11
0.0167956
6.30466e-06
-9.11202e-11
0.016789
1.83068e-05
-1.80443e-10
0.0167714
4.77241e-05
-4.69675e-10
0.016714
0.000169413
-1.00059e-09
0.0165393
0.000541168
-3.74943e-09
0.0155175
0.0031001
-7.3625e-09
0.0143617
0.00345456
7.91833e-10
0.0132129
0.00345508
3.40489e-10
0.01199
0.00367557
-4.46149e-10
0.0106747
0.00394644
-5.45319e-10
0.0092266
0.00431538
-6.19403e-10
0.0076362
0.00471877
-4.84258e-10
0.0059058
0.00512827
-4.20783e-10
0.00403599
0.00552706
-3.72499e-10
0.00204583
0.00589942
-3.14878e-10
0.00619118
-2.57136e-10
0.0168001
7.5587e-10
-3.53349e-12
0.0168001
4.19386e-09
-1.15954e-11
0.0168001
1.55358e-08
-1.37001e-11
0.0168
3.99055e-08
-2.14388e-11
0.0168
1.09891e-07
-2.21643e-11
0.0167999
2.51605e-07
-2.94925e-11
0.0167997
6.56432e-07
-3.14875e-11
0.0167993
1.47539e-06
-4.40702e-11
0.0167981
3.86561e-06
-5.41733e-11
0.0167956
8.72433e-06
-1.12069e-10
0.0167888
2.41953e-05
-1.30074e-10
0.0167724
6.34892e-05
-5.13891e-10
0.0167151
0.000222974
-8.39071e-10
0.016553
0.000695225
-3.12431e-09
0.0155721
0.00405529
-6.99036e-09
0.0144217
0.00460453
5.67196e-10
0.0132865
0.00458898
1.01193e-10
0.0120831
0.00487516
-5.36608e-10
0.0107848
0.00524126
-5.81619e-10
0.00935862
0.00573788
-6.03152e-10
0.00777736
0.00629659
-5.19611e-10
0.00603782
0.00686335
-4.97704e-10
0.00414726
0.00741349
-4.80927e-10
0.00211332
0.00792878
-4.69675e-10
0.00829945
-4.60948e-10
0.0168001
9.61699e-10
-3.50309e-12
0.0168001
5.32926e-09
-1.1606e-11
0.0168
1.98478e-08
-1.37058e-11
0.0168
5.09988e-08
-2.14605e-11
0.0168
1.40615e-07
-2.21888e-11
0.0167999
3.22817e-07
-2.95313e-11
0.0167997
8.38838e-07
-3.14991e-11
0.0167993
1.911e-06
-4.38982e-11
0.0167981
4.86649e-06
-5.38064e-11
0.0167955
1.1302e-05
-1.09118e-10
0.0167885
3.01347e-05
-1.23593e-10
0.0167729
7.85129e-05
-4.83203e-10
0.016717
0.000275156
-7.74063e-10
0.0165621
0.000842579
-2.85536e-09
0.0156386
0.00495245
-6.7393e-09
0.0144908
0.0057522
4.87524e-10
0.0133729
0.00570488
-3.24862e-11
0.0121993
0.00604477
-5.80131e-10
0.0109325
0.00650425
-5.93789e-10
0.00953442
0.00713209
-5.85769e-10
0.00798665
0.00784042
-5.56141e-10
0.00626477
0.00858118
-5.68867e-10
0.00434636
0.00932771
-5.77751e-10
0.00224058
0.0100294
-5.99172e-10
0.0105346
-6.27043e-10
0.0168001
1.14744e-09
-3.4609e-12
0.0168001
6.31968e-09
-1.16291e-11
0.0168001
2.35376e-08
-1.37185e-11
0.0168
6.03953e-08
-2.15401e-11
0.0168
1.67143e-07
-2.23884e-11
0.0167999
3.84841e-07
-3.00451e-11
0.0167998
9.97973e-07
-3.24603e-11
0.0167993
2.3169e-06
-4.87351e-11
0.0167983
5.68726e-06
-5.07865e-11
0.0167959
1.36796e-05
-1.46525e-10
0.0167891
3.60046e-05
-7.11838e-11
0.0167735
9.33321e-05
-5.0697e-10
0.0167327
0.000312175
-6.65122e-10
0.0165786
0.000989426
-2.66299e-09
0.0157681
0.0057354
-6.54192e-09
0.0146026
0.00691805
5.4101e-10
0.0134925
0.00681264
-9.20445e-11
0.0123526
0.00718046
-6.06698e-10
0.0111412
0.00771163
-6.01873e-10
0.00979348
0.00847579
-5.71791e-10
0.00827677
0.00935264
-5.75235e-10
0.00657058
0.0102827
-6.11649e-10
0.00463263
0.0112613
-6.48464e-10
0.00243164
0.0122257
-6.94317e-10
0.0129606
-7.47773e-10
0.0168001
1.14983e-09
-3.39867e-12
0.0168001
6.35933e-09
-1.16547e-11
0.0168001
2.3711e-08
-1.36337e-11
0.0168001
6.06824e-08
-2.1482e-11
0.0168
1.6782e-07
-2.21299e-11
0.0168
3.82503e-07
-2.95151e-11
0.0168
1.01366e-06
-3.1261e-11
0.0168001
2.21265e-06
-4.33917e-11
0.0167994
6.2003e-06
-5.24454e-11
0.0168001
1.29841e-05
-9.69323e-11
0.0167935
4.15092e-05
-1.60254e-10
0.0167909
9.53546e-05
-3.87694e-10
0.0167107
0.000388741
-7.21595e-10
0.0165828
0.00110949
-2.61058e-09
0.0159009
0.0063884
-6.49673e-09
0.0147066
0.00811345
6.98235e-10
0.0136137
0.00790339
-4.97359e-11
0.0125237
0.00826621
-5.94024e-10
0.0113787
0.00885239
-5.86637e-10
0.0101276
0.00972293
-5.55154e-10
0.00868202
0.0107939
-5.81609e-10
0.00701364
0.0119461
-6.30115e-10
0.00506473
0.0132049
-6.81639e-10
0.00274995
0.0145347
-7.40708e-10
0.0157046
-8.14652e-10
0.0168001
1.14515e-09
-3.35408e-12
0.0168001
6.39855e-09
-1.16418e-11
0.0168001
2.38217e-08
-1.36267e-11
0.0168001
6.11316e-08
-2.14318e-11
0.0168001
1.6777e-07
-2.20312e-11
0.0168001
3.79927e-07
-2.92748e-11
0.0168
1.0212e-06
-3.07643e-11
0.0168001
2.07511e-06
-4.17352e-11
0.0167993
6.8364e-06
-5.15638e-11
0.0168012
1.11121e-05
-8.81742e-11
0.016791
5.07605e-05
-1.58012e-10
0.0167909
9.47386e-05
-3.38978e-10
0.0167329
0.000443133
-8.20153e-10
0.0166411
0.00119492
-2.47487e-09
0.0163096
0.00668878
-6.62505e-09
0.0150298
0.00939558
7.78196e-10
0.0138879
0.0090441
2.40178e-12
0.0128227
0.0093271
-5.748e-10
0.0117424
0.00992801
-5.68691e-10
0.0105582
0.0109023
-5.4533e-10
0.00920805
0.012139
-5.80151e-10
0.00761201
0.0135373
-6.38202e-10
0.00569054
0.0151214
-6.96674e-10
0.00326365
0.0169562
-7.60985e-10
0.0189622
-8.38116e-10
0.0168001
1.66197e-09
-3.3325e-12
0.0168001
7.52146e-09
-1.15886e-11
0.0168
2.96546e-08
-1.36888e-11
0.0168
7.36764e-08
-2.13714e-11
0.0168
2.07334e-07
-2.20119e-11
0.0167999
4.64827e-07
-2.91006e-11
0.0167997
1.2462e-06
-3.05594e-11
0.0167991
2.66824e-06
-4.10874e-11
0.0167981
7.64475e-06
-4.94716e-11
0.0167948
1.43966e-05
-1.04632e-10
0.0167915
5.30835e-05
-1.05473e-10
0.0167878
9.81157e-05
-3.7143e-10
0.0167776
0.000449577
-7.13256e-10
0.0167798
0.00118684
-2.31203e-09
0.0171106
0.00632525
-6.53025e-09
0.0156946
0.0108146
6.95605e-10
0.0143886
0.0103493
-1.74642e-11
0.0133125
0.0104001
-5.39296e-10
0.0122999
0.0109365
-5.53846e-10
0.0111925
0.0120066
-5.56744e-10
0.00993179
0.0133948
-5.88999e-10
0.00849763
0.0149661
-6.42665e-10
0.00673696
0.0168765
-6.82141e-10
0.00422089
0.0194665
-7.48071e-10
0.0231772
-8.11898e-10
0.0168001
-3.37177e-12
3.05864e-09
0.0168001
-1.15122e-11
3.25453e-09
0.0168
-1.38351e-11
4.27085e-08
0.0168001
-2.1419e-11
4.33225e-08
0.0168
-2.2051e-11
2.88182e-07
0.0168002
-2.89684e-11
2.87284e-07
0.0167996
-2.99637e-11
1.75235e-06
0.0168007
-3.93128e-11
1.59243e-06
0.016797
-4.81387e-11
1.12117e-05
0.0168045
-8.14281e-11
6.81282e-06
0.016777
-1.23019e-10
7.971e-05
0.0168371
-3.15995e-10
3.74913e-05
0.0167213
-7.03991e-10
0.000561641
0.0170352
-2.11767e-09
0.000867872
0.0184787
-6.40808e-09
0.00484731
0.0169013
-5.79089e-11
0.0123922
0.0152009
-3.69461e-10
0.0120477
0.0141531
-3.8989e-10
0.011444
0.0130463
-5.47717e-10
0.0120381
0.0120515
-5.78941e-10
0.0129968
0.0109762
-6.21388e-10
0.0144654
0.00979014
-6.47953e-10
0.0161469
0.00820119
-6.91103e-10
0.0184597
0.00582308
-7.35159e-10
0.0218386
-7.33792e-10
0.0289945
0.0168001
1.71628e-10
-9.12947e-16
0.0168001
9.3843e-10
-4.53107e-15
0.0168001
3.48694e-09
-1.19563e-14
0.0168
8.94718e-09
-2.53281e-14
0.0168
2.46469e-08
-6.05224e-14
0.0168
5.62351e-08
-1.18695e-13
0.0167998
1.4857e-07
-3.13704e-13
0.0167994
3.24259e-07
-5.89454e-13
0.0167983
9.13191e-07
-1.90083e-12
0.0167963
1.90524e-06
-3.1627e-12
0.0167893
6.11373e-06
-1.2358e-11
0.0167725
1.55041e-05
-2.82621e-11
0.0167141
5.6285e-05
-8.52842e-11
0.0165155
0.000188567
-2.82015e-10
0.0154356
0.00105515
-6.26915e-10
0.0142882
0.00114716
1.73055e-11
0.0131272
0.00116016
-1.05947e-11
0.0118911
0.00123333
-6.94151e-11
0.010569
0.00131972
-7.97434e-11
0.00913823
0.00142835
-9.05848e-11
0.00758022
0.00155495
-8.28771e-11
0.0058891
0.00168786
-8.03614e-11
0.00407143
0.00181427
-6.37241e-11
0.00211919
0.00194841
-9.67488e-11
0.00211488
-9.26107e-11
0.0168001
3.51834e-10
-9.12675e-16
0.0168001
1.93008e-09
-4.53544e-15
0.0168
7.16163e-09
-1.19384e-14
0.0168
1.83633e-08
-2.52778e-14
0.0168
5.05403e-08
-6.03091e-14
0.0167999
1.15115e-07
-1.18244e-13
0.0167998
3.04444e-07
-3.1265e-13
0.0167994
6.58957e-07
-5.89292e-13
0.0167983
1.88316e-06
-1.8889e-12
0.0167962
3.83072e-06
-3.1931e-12
0.0167888
1.26548e-05
-1.22177e-11
0.0167719
3.1085e-05
-2.82166e-11
0.0167113
0.000114798
-8.43607e-11
0.0165141
0.000375887
-2.78784e-10
0.0154401
0.00210435
-6.26271e-10
0.0142878
0.00229925
1.84667e-11
0.0131396
0.00230747
-1.07987e-11
0.0119141
0.00245614
-7.01923e-11
0.0105973
0.00263413
-7.98206e-11
0.00915306
0.00287017
-8.98278e-11
0.00757312
0.00313177
-8.41415e-11
0.00585627
0.00340135
-6.31273e-11
0.00400629
0.00366042
-6.53506e-11
0.00203819
0.00391265
-6.43664e-11
0.00414884
-1.00159e-10
0.0168001
5.59401e-10
-9.21476e-16
0.0168001
3.04782e-09
-4.58536e-15
0.0168
1.13248e-08
-1.20107e-14
0.0168
2.90309e-08
-2.54221e-14
0.0168
7.99766e-08
-6.00812e-14
0.0167999
1.82751e-07
-1.17295e-13
0.0167997
4.78851e-07
-3.08922e-13
0.0167993
1.06577e-06
-5.72695e-13
0.0167982
2.85928e-06
-1.88028e-12
0.0167956
6.29403e-06
-3.068e-12
0.016789
1.83295e-05
-1.22228e-11
0.0167715
4.77124e-05
-2.73302e-11
0.016714
0.000169534
-8.39778e-11
0.016539
0.000541722
-2.70765e-10
0.0155165
0.0031016
-6.30742e-10
0.0143606
0.00345508
1.9213e-11
0.013212
0.0034552
-1.22209e-11
0.0119893
0.00367563
-7.15906e-11
0.0106741
0.00394643
-8.01688e-11
0.00922615
0.0043154
-8.90396e-11
0.00763587
0.00471865
-8.23387e-11
0.00590559
0.00512792
-7.07205e-11
0.00403587
0.00552646
-8.30282e-11
0.00204578
0.00589853
-6.2521e-11
0.00618997
-6.65876e-11
0.0168001
7.67064e-10
-9.57073e-16
0.0168001
4.17723e-09
-4.7376e-15
0.0168
1.55355e-08
-1.25746e-14
0.0168
3.98664e-08
-2.67177e-14
0.0168
1.09839e-07
-6.4052e-14
0.0167999
2.51489e-07
-1.26915e-13
0.0167997
6.56233e-07
-3.27918e-13
0.0167993
1.47505e-06
-6.63662e-13
0.0167981
3.86466e-06
-1.82237e-12
0.0167956
8.72488e-06
-3.81593e-12
0.0167888
2.41941e-05
-1.06231e-11
0.0167724
6.35094e-05
-2.88808e-11
0.0167151
0.000223044
-7.94521e-11
0.0165532
0.000695555
-2.49988e-10
0.0155724
0.00405661
-6.30946e-10
0.014422
0.00460513
1.79086e-11
0.0132866
0.00458921
-1.84001e-11
0.0120832
0.00487525
-7.58633e-11
0.0107849
0.00524125
-8.22526e-11
0.00935876
0.00573786
-8.93742e-11
0.00777756
0.00629642
-8.58519e-11
0.00603801
0.00686301
-8.64134e-11
0.00414743
0.00741293
-8.67191e-11
0.00211342
0.00792796
-7.89079e-11
0.00829834
-8.76852e-11
0.0168001
9.82899e-10
-9.68547e-16
0.0168001
5.33686e-09
-4.79074e-15
0.0168
1.98542e-08
-1.27373e-14
0.0168
5.09764e-08
-2.70682e-14
0.0168
1.40518e-07
-6.48112e-14
0.0167999
3.22538e-07
-1.28297e-13
0.0167997
8.38263e-07
-3.30244e-13
0.0167993
1.90841e-06
-6.62954e-13
0.0167981
4.86732e-06
-1.82883e-12
0.0167955
1.12832e-05
-3.75056e-12
0.0167885
3.0157e-05
-1.05997e-11
0.0167729
7.85062e-05
-2.79458e-11
0.016717
0.000275246
-7.86303e-11
0.0165621
0.000842812
-2.4293e-10
0.0156388
0.00495352
-6.40067e-10
0.0144913
0.0057526
2.45083e-11
0.0133734
0.00570509
-1.96582e-11
0.0121997
0.00604487
-7.87774e-11
0.0109329
0.00650424
-8.37405e-11
0.00953486
0.00713205
-8.9588e-11
0.00798707
0.00784027
-8.81767e-11
0.00626516
0.00858089
-9.0062e-11
0.00434667
0.00932722
-9.07201e-11
0.00224076
0.0100288
-9.2257e-11
0.0105337
-9.3238e-11
0.0168001
1.17752e-09
-1.02569e-15
0.0168001
6.33098e-09
-5.00708e-15
0.0168001
2.3595e-08
-1.35941e-14
0.0168
6.04581e-08
-2.90678e-14
0.0168
1.67306e-07
-7.08186e-14
0.0167999
3.85167e-07
-1.43141e-13
0.0167998
9.987e-07
-3.59749e-13
0.0167993
2.31956e-06
-8.07621e-13
0.0167983
5.6877e-06
-1.75716e-12
0.0167958
1.37017e-05
-4.87753e-12
0.0167891
3.59715e-05
-9.28501e-12
0.0167734
9.33839e-05
-2.85638e-11
0.0167328
0.000312179
-7.728e-11
0.0165787
0.000989543
-2.40235e-10
0.0157684
0.00573622
-6.57202e-10
0.0146031
0.0069182
3.68952e-11
0.0134931
0.00681279
-1.84253e-11
0.0123532
0.00718056
-8.13693e-11
0.0111418
0.00771164
-8.54346e-11
0.00979405
0.00847575
-9.01537e-11
0.0082773
0.00935253
-9.03653e-11
0.00657103
0.0102825
-9.28168e-11
0.00463298
0.011261
-9.49705e-11
0.00243185
0.0122251
-9.70503e-11
0.0129598
-9.82065e-11
0.0168001
1.17199e-09
-9.73743e-16
0.0168001
6.38481e-09
-4.7979e-15
0.0168001
2.37406e-08
-1.28319e-14
0.0168001
6.07399e-08
-2.73459e-14
0.0168
1.67928e-07
-6.5758e-14
0.0168
3.82741e-07
-1.31271e-13
0.0168
1.01417e-06
-3.35457e-13
0.0168001
2.21407e-06
-6.93974e-13
0.0167994
6.20244e-06
-1.82025e-12
0.0168001
1.29911e-05
-3.80824e-12
0.0167935
4.1518e-05
-1.14772e-11
0.0167909
9.53857e-05
-2.70888e-11
0.0167107
0.000388728
-7.37968e-11
0.0165827
0.00110965
-2.45019e-10
0.0159007
0.00638924
-6.72546e-10
0.0147068
0.00811324
5.23642e-11
0.0136141
0.00790336
-1.52759e-11
0.0125242
0.00826621
-8.33101e-11
0.0113792
0.00885238
-8.69088e-11
0.0101281
0.00972287
-9.13401e-11
0.00868252
0.0107938
-9.32129e-11
0.00701409
0.0119459
-9.54937e-11
0.00506507
0.0132046
-9.78227e-11
0.00275015
0.0145343
-9.98016e-11
0.0157041
-1.01513e-10
0.0168001
1.15427e-09
-8.92807e-16
0.0168001
6.43017e-09
-4.46935e-15
0.0168001
2.38165e-08
-1.16695e-14
0.0168001
6.11584e-08
-2.47293e-14
0.0168001
1.67798e-07
-5.84485e-14
0.0168001
3.80056e-07
-1.14418e-13
0.0168
1.02148e-06
-3.00178e-13
0.0168001
2.07591e-06
-5.61335e-13
0.0167993
6.8385e-06
-1.79654e-12
0.0168012
1.11098e-05
-3.02368e-12
0.0167909
5.07872e-05
-1.171e-11
0.0167909
9.47382e-05
-2.19323e-11
0.0167328
0.00044324
-9.23521e-11
0.0166409
0.00119512
-2.3872e-10
0.0163089
0.00669002
-7.09675e-10
0.0150296
0.00939494
6.42151e-11
0.013888
0.00904378
-1.20133e-11
0.0128229
0.00932694
-8.22743e-11
0.0117428
0.00992793
-8.68573e-11
0.0105586
0.0109022
-9.28029e-11
0.00920841
0.0121389
-9.5247e-11
0.00761237
0.0135372
-9.85212e-11
0.00569083
0.0151212
-1.01744e-10
0.00326383
0.0169559
-1.03669e-10
0.0189618
-1.04141e-10
0.0168001
1.62592e-09
-8.6358e-16
0.0168001
7.63443e-09
-4.32752e-15
0.0168
2.95091e-08
-1.11752e-14
0.0168
7.35627e-08
-2.37113e-14
0.0168
2.07138e-07
-5.48152e-14
0.0167999
4.64779e-07
-1.07648e-13
0.0167997
1.24638e-06
-2.74315e-13
0.0167991
2.66933e-06
-5.19415e-13
0.0167981
7.64615e-06
-1.75353e-12
0.0167948
1.44074e-05
-1.78997e-12
0.0167915
5.309e-05
-1.38238e-11
0.0167877
9.81571e-05
-1.81524e-11
0.0167776
0.00044966
-9.48944e-11
0.0167796
0.00118717
-2.31761e-10
0.0171096
0.00632726
-7.25832e-10
0.0156939
0.0108136
6.36166e-11
0.0143883
0.0103485
-3.87167e-12
0.0133124
0.0103998
-7.9566e-11
0.0123
0.0109363
-8.80922e-11
0.0111926
0.0120064
-9.71504e-11
0.00993198
0.0133946
-9.9274e-11
0.00849784
0.0149659
-1.02316e-10
0.00673717
0.0168763
-1.04484e-10
0.00422105
0.0194662
-1.06906e-10
0.0231769
-1.05011e-10
0.0168001
-8.41795e-16
2.92444e-09
0.0168001
-4.19907e-15
3.64134e-09
0.0168
-1.08939e-14
4.15408e-08
0.0168001
-2.30382e-14
4.38042e-08
0.0168
-5.40207e-14
2.86977e-07
0.0168002
-1.06194e-13
2.87992e-07
0.0167996
-2.75011e-13
1.75165e-06
0.0168007
-5.39097e-13
1.59414e-06
0.016797
-1.6542e-12
1.12124e-05
0.0168045
-2.61826e-12
6.8229e-06
0.016777
-1.19042e-11
7.97261e-05
0.0168371
-1.91153e-11
3.75389e-05
0.0167212
-8.70674e-11
0.000561796
0.0170346
-2.19893e-10
0.000868627
0.0184767
-7.29685e-10
0.00485074
0.0168995
-1.43153e-11
0.012391
0.0152003
-4.91212e-11
0.0120459
0.0141526
-6.77988e-11
0.0114436
0.013046
-9.56474e-11
0.0120377
0.0120513
-9.87365e-11
0.0129964
0.0109761
-1.06628e-10
0.0144651
0.00979021
-1.09044e-10
0.0161466
0.00820134
-1.11659e-10
0.0184594
0.00582323
-1.12358e-10
0.0218383
-1.02686e-10
0.0289944
0.0168001
1.71628e-10
1.38601e-16
0.0168001
9.38423e-10
-3.2318e-16
0.0168001
3.48693e-09
-1.07188e-15
0.0168
8.94716e-09
-2.31103e-15
0.0168
2.4647e-08
-6.65732e-15
0.0168
5.62352e-08
-1.35212e-14
0.0167998
1.4857e-07
-3.96281e-14
0.0167994
3.2426e-07
-7.55389e-14
0.0167983
9.13197e-07
-2.54938e-13
0.0167963
1.90525e-06
-4.23915e-13
0.0167893
6.11381e-06
-1.69586e-12
0.0167725
1.55043e-05
-3.87983e-12
0.0167141
5.62858e-05
-1.18269e-11
0.0165155
0.000188573
-3.91929e-11
0.0154356
0.00105517
-8.79055e-11
0.0142882
0.00114717
1.33789e-12
0.0131271
0.00116016
-2.30374e-12
0.0118911
0.00123333
-1.03583e-11
0.010569
0.00131972
-1.18106e-11
0.00913818
0.00142835
-1.33509e-11
0.00758018
0.00155496
-1.25029e-11
0.00588906
0.00168785
-1.18823e-11
0.00407139
0.00181426
-1.1679e-11
0.00211917
0.0019484
-1.13542e-11
0.00211486
-1.09514e-11
0.0168001
3.51828e-10
1.38709e-16
0.0168001
1.93005e-09
-1.39284e-16
0.0168
7.16154e-09
-1.06991e-15
0.0168
1.83631e-08
-2.30588e-15
0.0168
5.05399e-08
-6.63444e-15
0.0167999
1.15114e-07
-1.34725e-14
0.0167998
3.04443e-07
-3.95169e-14
0.0167994
6.58958e-07
-7.55347e-14
0.0167983
1.88315e-06
-2.53597e-13
0.0167962
3.83076e-06
-4.27705e-13
0.0167888
1.26547e-05
-1.67935e-12
0.0167719
3.10857e-05
-3.87272e-12
0.0167113
0.0001148
-1.17151e-11
0.0165141
0.000375899
-3.87655e-11
0.0154401
0.00210438
-8.78644e-11
0.0142878
0.00229926
1.5012e-12
0.0131396
0.00230748
-2.32688e-12
0.0119141
0.00245614
-1.04693e-11
0.0105973
0.00263413
-1.18291e-11
0.00915303
0.00287017
-1.3261e-11
0.00757309
0.00313176
-1.24545e-11
0.00585625
0.00340133
-1.19458e-11
0.00400628
0.00366041
-1.18231e-11
0.00203818
0.00391262
-1.15618e-11
0.00414881
-1.12629e-11
0.0168001
5.59385e-10
1.38185e-16
0.0168001
3.04774e-09
-1.47205e-16
0.0168
1.13245e-08
-1.08013e-15
0.0168
2.90301e-08
-2.32797e-15
0.0168
7.99743e-08
-6.61868e-15
0.0167999
1.82745e-07
-1.33814e-14
0.0167997
4.78838e-07
-3.91102e-14
0.0167993
1.06572e-06
-7.35229e-14
0.0167982
2.85928e-06
-2.52871e-13
0.0167956
6.29364e-06
-4.11498e-13
0.016789
1.83302e-05
-1.68271e-12
0.0167715
4.77119e-05
-3.75665e-12
0.016714
0.000169537
-1.16773e-11
0.016539
0.000541742
-3.77219e-11
0.0155165
0.00310165
-8.85881e-11
0.0143606
0.00345508
1.60785e-12
0.013212
0.0034552
-2.51806e-12
0.0119892
0.00367562
-1.06823e-11
0.0106741
0.00394642
-1.19057e-11
0.00922613
0.00431539
-1.31906e-11
0.00763586
0.00471864
-1.2528e-11
0.00590559
0.0051279
-1.22946e-11
0.00403586
0.00552644
-1.22369e-11
0.00204578
0.0058985
-1.21281e-11
0.00618993
-1.19646e-11
0.0168001
7.67058e-10
1.34497e-16
0.0168001
4.17719e-09
-3.48693e-16
0.0168
1.55354e-08
-1.15746e-15
0.0168
3.98659e-08
-2.50566e-15
0.0168
1.09838e-07
-7.17405e-15
0.0167999
2.51486e-07
-1.4727e-14
0.0167997
6.56227e-07
-4.18104e-14
0.0167993
1.47504e-06
-8.62597e-14
0.0167981
3.86462e-06
-2.45399e-13
0.0167956
8.72488e-06
-5.16664e-13
0.0167888
2.41939e-05
-1.46473e-12
0.0167724
6.351e-05
-3.98239e-12
0.0167151
0.000223046
-1.10815e-11
0.0165533
0.000695567
-3.49299e-11
0.0155724
0.00405665
-8.88107e-11
0.014422
0.00460513
1.43155e-12
0.0132866
0.00458921
-3.36251e-12
0.0120832
0.00487525
-1.1302e-11
0.0107849
0.00524124
-1.2239e-11
0.00935877
0.00573786
-1.32937e-11
0.00777757
0.00629641
-1.27791e-11
0.00603802
0.006863
-1.27683e-11
0.00414743
0.00741291
-1.27784e-11
0.00211342
0.00792793
-1.28553e-11
0.00829831
-1.28322e-11
0.0168001
9.82873e-10
1.33054e-16
0.0168001
5.33675e-09
-3.57052e-16
0.0168
1.98538e-08
-1.18249e-15
0.0168
5.09753e-08
-2.5597e-15
0.0168
1.40514e-07
-7.29608e-15
0.0167999
3.22529e-07
-1.49533e-14
0.0167997
8.38245e-07
-4.22427e-14
0.0167993
1.90834e-06
-8.63951e-14
0.0167981
4.86733e-06
-2.46995e-13
0.0167955
1.12827e-05
-5.09146e-13
0.0167885
3.01575e-05
-1.46594e-12
0.0167729
7.8506e-05
-3.86479e-12
0.016717
0.000275248
-1.09999e-11
0.0165622
0.000842821
-3.40446e-11
0.0156388
0.00495356
-9.03098e-11
0.0144913
0.00575259
2.3456e-12
0.0133734
0.00570509
-3.63397e-12
0.0121997
0.00604486
-1.17524e-11
0.0109329
0.00650423
-1.25047e-11
0.00953487
0.00713205
-1.34007e-11
0.00798708
0.00784025
-1.31581e-11
0.00626517
0.00858087
-1.33258e-11
0.00434668
0.0093272
-1.33821e-11
0.00224077
0.0100287
-1.35472e-11
0.0105337
-1.36297e-11
0.0168001
1.17754e-09
1.26561e-16
0.0168001
6.33109e-09
-2.16809e-16
0.0168001
2.35954e-08
-1.30422e-15
0.0168
6.04592e-08
-2.84381e-15
0.0168
1.67309e-07
-8.1465e-15
0.0167999
3.85175e-07
-1.7051e-14
0.0167998
9.98717e-07
-4.6441e-14
0.0167993
2.31962e-06
-1.06725e-13
0.0167983
5.68771e-06
-2.37661e-13
0.0167958
1.37022e-05
-6.67373e-13
0.0167891
3.59708e-05
-1.28749e-12
0.0167734
9.33848e-05
-3.96307e-12
0.0167327
0.000312181
-1.08469e-11
0.0165787
0.000989546
-3.37705e-11
0.0157684
0.00573626
-9.29726e-11
0.0146031
0.00691817
4.04872e-12
0.0134932
0.00681278
-3.66272e-12
0.0123533
0.00718055
-1.21747e-11
0.0111418
0.00771164
-1.28162e-11
0.00979407
0.00847575
-1.35877e-11
0.00827731
0.00935252
-1.35508e-11
0.00657104
0.0102825
-1.38065e-11
0.00463299
0.0112609
-1.40534e-11
0.00243186
0.0122251
-1.42898e-11
0.0129598
-1.43879e-11
0.0168001
1.17203e-09
1.31886e-16
0.0168001
6.385e-09
-3.61065e-16
0.0168001
2.37413e-08
-1.20225e-15
0.0168001
6.07418e-08
-2.61185e-15
0.0168
1.67933e-07
-7.46358e-15
0.0168
3.82754e-07
-1.54347e-14
0.0168
1.0142e-06
-4.31787e-14
0.0168001
2.21416e-06
-9.11213e-14
0.0167994
6.20253e-06
-2.47233e-13
0.0168001
1.29916e-05
-5.20233e-13
0.0167935
4.15183e-05
-1.5954e-12
0.0167909
9.53884e-05
-3.76997e-12
0.0167107
0.00038872
-1.03968e-11
0.0165827
0.00110966
-3.45309e-11
0.0159007
0.00638929
-9.54101e-11
0.0147068
0.00811319
6.16706e-12
0.0136141
0.00790334
-3.39955e-12
0.0125242
0.00826621
-1.25316e-11
0.0113792
0.00885237
-1.31237e-11
0.0101281
0.00972286
-1.38908e-11
0.00868254
0.0107938
-1.40804e-11
0.00701411
0.0119459
-1.43245e-11
0.00506508
0.0132046
-1.45905e-11
0.00275015
0.0145343
-1.48167e-11
0.0157041
-1.49815e-11
0.0168001
1.15428e-09
1.39348e-16
0.0168001
6.43025e-09
-3.1778e-16
0.0168001
2.38169e-08
-1.04648e-15
0.0168001
6.11592e-08
-2.26078e-15
0.0168001
1.678e-07
-6.47945e-15
0.0168001
3.80061e-07
-1.3157e-14
0.0168
1.0215e-06
-3.8434e-14
0.0168001
2.07594e-06
-7.30271e-14
0.0167993
6.83856e-06
-2.44701e-13
0.0168012
1.11103e-05
-4.12823e-13
0.0167909
5.07867e-05
-1.63232e-12
0.0167909
9.47402e-05
-3.06141e-12
0.0167328
0.000443242
-1.30096e-11
0.0166409
0.00119513
-3.37302e-11
0.0163088
0.00669013
-1.00828e-10
0.0150296
0.00939485
7.75821e-12
0.013888
0.00904374
-2.16822e-12
0.0128229
0.00932692
-1.25013e-11
0.0117428
0.00992792
-1.32442e-11
0.0105586
0.0109022
-1.42605e-11
0.00920842
0.0121389
-1.45529e-11
0.00761238
0.0135371
-1.49467e-11
0.00569084
0.0151212
-1.53393e-11
0.00326384
0.0169559
-1.55645e-11
0.0189618
-1.55591e-11
0.0168001
1.62594e-09
1.41673e-16
0.0168001
7.63458e-09
-1.08718e-16
0.0168
2.95095e-08
-9.82642e-16
0.0168
7.3564e-08
-2.13155e-15
0.0168
2.07141e-07
-6.00568e-15
0.0167999
4.64787e-07
-1.2285e-14
0.0167997
1.24639e-06
-3.50224e-14
0.0167991
2.66937e-06
-6.74749e-14
0.0167981
7.64632e-06
-2.39748e-13
0.0167948
1.44074e-05
-2.41862e-13
0.0167915
5.30914e-05
-1.93338e-12
0.0167877
9.81585e-05
-2.53822e-12
0.0167776
0.000449671
-1.33906e-11
0.0167796
0.0011872
-3.28096e-11
0.0171094
0.00632748
-1.03257e-10
0.0156937
0.0108135
7.55936e-12
0.0143882
0.0103484
-1.25305e-12
0.0133123
0.0103998
-1.22373e-11
0.0122999
0.0109362
-1.35513e-11
0.0111926
0.0120063
-1.50878e-11
0.00993197
0.0133946
-1.53292e-11
0.00849783
0.0149659
-1.57345e-11
0.00673718
0.0168762
-1.60235e-11
0.00422106
0.0194662
-1.63407e-11
0.0231769
-1.60221e-11
0.0168001
1.4373e-16
2.92449e-09
0.0168001
-2.81478e-16
3.64161e-09
0.0168
-9.41195e-16
4.1542e-08
0.0168001
-2.03602e-15
4.38067e-08
0.0168
-5.90019e-15
2.86986e-07
0.0168002
-1.21019e-14
2.88007e-07
0.0167996
-3.51975e-14
1.75171e-06
0.0168007
-7.0375e-14
1.5942e-06
0.016797
-2.26501e-13
1.12129e-05
0.0168045
-3.57634e-13
6.82295e-06
0.016777
-1.66974e-12
7.97298e-05
0.0168371
-2.67389e-12
3.7541e-05
0.0167212
-1.23134e-11
0.00056182
0.0170346
-3.1169e-11
0.000868706
0.0184765
-1.03854e-10
0.00485115
0.0168993
-3.95435e-12
0.0123908
0.0152002
-8.03829e-12
0.0120456
0.0141525
-1.07261e-11
0.0114435
0.0130459
-1.49193e-11
0.0120376
0.0120512
-1.59348e-11
0.0129964
0.0109761
-1.66388e-11
0.014465
0.00979019
-1.69805e-11
0.0161466
0.00820134
-1.74076e-11
0.0184594
0.00582324
-1.75781e-11
0.0218383
-1.62556e-11
0.0289944
0.0168001
1.71628e-10
-5.85944e-17
0.0168001
9.38422e-10
-2.55889e-16
0.0168001
3.48693e-09
-8.2892e-16
0.0168
8.94715e-09
-1.76342e-15
0.0168
2.4647e-08
-5.0297e-15
0.0168
5.62352e-08
-1.01773e-14
0.0167998
1.4857e-07
-2.97868e-14
0.0167994
3.24261e-07
-5.67695e-14
0.0167983
9.13197e-07
-1.91413e-13
0.0167963
1.90525e-06
-3.21711e-13
0.0167893
6.11381e-06
-1.24659e-12
0.0167725
1.55043e-05
-3.05978e-12
0.0167141
5.62859e-05
-8.05919e-12
0.0165155
0.000188573
-3.11129e-11
0.0154356
0.00105517
-6.99552e-11
0.0142882
0.00114717
4.80743e-13
0.0131271
0.00116016
-2.29511e-12
0.0118911
0.00123333
-8.97167e-12
0.010569
0.00131972
-1.029e-11
0.00913818
0.00142835
-1.17777e-11
0.00758017
0.00155496
-1.11528e-11
0.00588905
0.00168785
-1.05557e-11
0.00407139
0.00181426
-1.02894e-11
0.00211917
0.00194839
-9.92992e-12
0.00211486
-9.61541e-12
0.0168001
3.51828e-10
-5.86985e-17
0.0168001
1.93005e-09
-2.56715e-16
0.0168
7.16153e-09
-8.28984e-16
0.0168
1.8363e-08
-1.76252e-15
0.0168
5.05398e-08
-5.01891e-15
0.0167999
1.15114e-07
-1.01519e-14
0.0167998
3.04443e-07
-2.97319e-14
0.0167994
6.58958e-07
-5.67883e-14
0.0167983
1.88315e-06
-1.90651e-13
0.0167962
3.83077e-06
-3.24514e-13
0.0167888
1.26547e-05
-1.23686e-12
0.0167719
3.10858e-05
-3.05473e-12
0.0167113
0.0001148
-7.98805e-12
0.0165141
0.0003759
-3.07825e-11
0.0154401
0.00210439
-6.98733e-11
0.0142878
0.00229926
5.6096e-13
0.0131396
0.00230748
-2.32392e-12
0.011914
0.00245614
-9.05937e-12
0.0105973
0.00263413
-1.0298e-11
0.00915302
0.00287017
-1.1688e-11
0.00757309
0.00313176
-1.10931e-11
0.00585625
0.00340133
-1.0591e-11
0.00400627
0.0036604
-1.03971e-11
0.00203818
0.00391262
-1.00933e-11
0.0041488
-9.85247e-12
0.0168001
5.59382e-10
-5.98497e-17
0.0168001
3.04773e-09
-2.62191e-16
0.0168
1.13245e-08
-8.39835e-16
0.0168
2.903e-08
-1.78541e-15
0.0168
7.99739e-08
-5.02384e-15
0.0167999
1.82744e-07
-1.01176e-14
0.0167997
4.78836e-07
-2.95074e-14
0.0167993
1.06571e-06
-5.542e-14
0.0167982
2.85928e-06
-1.9059e-13
0.0167956
6.29358e-06
-3.12273e-13
0.016789
1.83303e-05
-1.2439e-12
0.0167715
4.77118e-05
-2.9641e-12
0.016714
0.000169538
-7.97677e-12
0.016539
0.000541745
-2.9997e-11
0.0155165
0.00310165
-7.04606e-11
0.0143606
0.00345508
5.9372e-13
0.013212
0.0034552
-2.51216e-12
0.0119892
0.00367562
-9.25856e-12
0.0106741
0.00394642
-1.03823e-11
0.00922613
0.00431539
-1.16451e-11
0.00763586
0.00471864
-1.11527e-11
0.00590559
0.0051279
-1.08874e-11
0.00403586
0.00552644
-1.07489e-11
0.00204578
0.0058985
-1.05826e-11
0.00618993
-1.0451e-11
0.0168001
7.67057e-10
-6.42093e-17
0.0168001
4.17719e-09
-2.78545e-16
0.0168
1.55354e-08
-9.0219e-16
0.0168
3.98659e-08
-1.92667e-15
0.0168
1.09838e-07
-5.46142e-15
0.0167999
2.51486e-07
-1.11713e-14
0.0167997
6.56226e-07
-3.16578e-14
0.0167993
1.47504e-06
-6.53237e-14
0.0167981
3.86462e-06
-1.85524e-13
0.0167956
8.72488e-06
-3.9466e-13
0.0167888
2.41939e-05
-1.08592e-12
0.0167724
6.351e-05
-3.15613e-12
0.0167151
0.000223046
-7.59906e-12
0.0165533
0.000695569
-2.78496e-11
0.0155724
0.00405666
-7.07155e-11
0.014422
0.00460513
4.60297e-13
0.0132866
0.00458921
-3.25026e-12
0.0120832
0.00487525
-9.81237e-12
0.0107849
0.00524124
-1.06985e-11
0.00935877
0.00573786
-1.17701e-11
0.00777757
0.0062964
-1.13745e-11
0.00603802
0.006863
-1.13045e-11
0.00414743
0.00741291
-1.12205e-11
0.00211342
0.00792793
-1.12089e-11
0.0082983
-1.1188e-11
0.0168001
9.82869e-10
-6.60008e-17
0.0168001
5.33674e-09
-2.86783e-16
0.0168
1.98537e-08
-9.25795e-16
0.0168
5.09751e-08
-1.97674e-15
0.0168
1.40514e-07
-5.57832e-15
0.0167999
3.22528e-07
-1.13916e-14
0.0167997
8.38243e-07
-3.21241e-14
0.0167993
1.90833e-06
-6.5703e-14
0.0167981
4.86733e-06
-1.87567e-13
0.0167955
1.12826e-05
-3.90402e-13
0.0167885
3.01575e-05
-1.09226e-12
0.0167729
7.85059e-05
-3.07483e-12
0.016717
0.000275248
-7.59241e-12
0.0165622
0.000842822
-2.72256e-11
0.0156388
0.00495357
-7.20513e-11
0.0144913
0.00575259
9.14099e-13
0.0133734
0.00570509
-3.53432e-12
0.0121997
0.00604486