/*--------------------------------*- C++ -*----------------------------------*\
| =========                 |                                                 |
| \\      /  F ield         | OpenFOAM: The Open Source CFD Toolbox           |
|  \\    /   O peration     | Version:  4.1                                   |
|   \\  /    A nd           | Web:      www.OpenFOAM.org                      |
|    \\/     M anipulation  |                                                 |
\*---------------------------------------------------------------------------*/
FoamFile
{
    version     2.0;
    format      ascii;
    class       volScalarField;
    location    "5.38";
    object      T;
}
// * * * * * * * * * * * * * * * * * * * * * * * * * * * * * * * * * * * * * //

dimensions      [0 0 0 1 0 0 0];

internalField   nonuniform List<scalar> 
52500
(
0.999996
1.00002
1.00004
1.00016
1.00029
1.00094
1.00174
1.00518
1.01082
1.02809
1.07561
1.16807
1.52038
2.31476
2.65695
2.73366
2.72813
2.72469
2.73935
2.75112
2.76396
2.77191
2.77817
2.78263
2.78558
0.999995
1.00002
1.00004
1.00015
1.00029
1.00093
1.00172
1.00509
1.01068
1.02763
1.07465
1.1654
1.51548
2.304
2.65381
2.73376
2.72809
2.7246
2.73908
2.75074
2.76324
2.7708
2.77695
2.7804
2.78254
0.999995
1.00002
1.00004
1.00015
1.00028
1.0009
1.00167
1.00491
1.0104
1.02667
1.07263
1.1597
1.50454
2.28023
2.6453
2.73258
2.72652
2.7225
2.73687
2.74827
2.7609
2.76765
2.77368
2.77792
2.77894
0.999995
1.00002
1.00004
1.00014
1.00027
1.00086
1.0016
1.00474
1.00994
1.02568
1.06927
1.15348
1.479
2.23461
2.63036
2.72938
2.72287
2.7179
2.73192
2.7437
2.75651
2.76396
2.76878
2.77118
2.77426
0.999995
1.00002
1.00004
1.00014
1.00025
1.00082
1.00151
1.0045
1.00935
1.02434
1.0648
1.14535
1.44383
2.17073
2.60905
2.72505
2.71876
2.71104
2.72568
2.7344
2.74753
2.75433
2.7618
2.76527
2.76448
0.999995
1.00001
1.00003
1.00013
1.00024
1.00078
1.00142
1.0044
1.00859
1.02357
1.05784
1.13527
1.39713
2.08323
2.57955
2.71774
2.71082
2.70204
2.7178
2.72795
2.7378
2.74611
2.74941
2.75127
2.75485
0.999995
1.00001
1.00003
1.00012
1.00022
1.00071
1.0013
1.00406
1.00778
1.02206
1.0508
1.1239
1.34755
1.97887
2.53969
2.70803
2.70027
2.68814
2.70273
2.71453
2.72496
2.72989
2.73748
2.7391
2.73546
0.999995
1.00001
1.00003
1.00011
1.0002
1.00065
1.00118
1.00368
1.00701
1.02019
1.04472
1.11378
1.30067
1.88769
2.48016
2.68899
2.68413
2.674
2.68844
2.69787
2.71024
2.71336
2.71367
2.7125
2.71207
0.999995
1.00001
1.00002
1.00009
1.00018
1.00058
1.00105
1.00331
1.00626
1.01815
1.04009
1.10103
1.27035
1.77694
2.46676
2.67831
2.66308
2.66076
2.67386
2.67789
2.68769
2.69163
2.69182
2.68562
2.66101
0.999994
1.00001
1.00002
1.00008
1.00015
1.00047
1.00089
1.00255
1.00556
1.01392
1.03761
1.08324
1.25261
1.64285
2.40196
2.65344
2.65502
2.654
2.65574
2.66408
2.66383
2.66181
2.65209
2.63111
2.58338
1
1.00003
1.00005
1.00017
1.0003
1.00095
1.00175
1.00519
1.01083
1.0281
1.07563
1.16812
1.52042
2.3149
2.65703
2.73373
2.7282
2.72477
2.73942
2.75119
2.76403
2.77199
2.77825
2.78271
2.78567
1
1.00003
1.00005
1.00016
1.00029
1.00093
1.00173
1.0051
1.01069
1.02765
1.07467
1.16544
1.51553
2.30414
2.65389
2.73383
2.72816
2.72467
2.73915
2.75082
2.76332
2.77088
2.77703
2.78048
2.78262
1
1.00002
1.00005
1.00016
1.00029
1.0009
1.00168
1.00492
1.01041
1.02668
1.07264
1.15975
1.50459
2.28037
2.64538
2.73265
2.72659
2.72258
2.73695
2.74835
2.76098
2.76773
2.77376
2.778
2.77902
1
1.00002
1.00005
1.00015
1.00027
1.00087
1.00161
1.00475
1.00995
1.0257
1.06928
1.15352
1.47905
2.23475
2.63043
2.72945
2.72294
2.71797
2.73199
2.74377
2.75658
2.76403
2.76886
2.77125
2.77434
1
1.00002
1.00004
1.00014
1.00026
1.00082
1.00152
1.00451
1.00936
1.02436
1.06482
1.14539
1.44387
2.17085
2.60911
2.72511
2.71883
2.71111
2.72575
2.73447
2.7476
2.7544
2.76187
2.76535
2.76455
1
1.00002
1.00004
1.00014
1.00025
1.00079
1.00142
1.00441
1.0086
1.02359
1.05784
1.1353
1.39714
2.08333
2.57961
2.71781
2.71089
2.7021
2.71787
2.72802
2.73787
2.74619
2.74949
2.75135
2.75492
1
1.00002
1.00004
1.00013
1.00023
1.00072
1.00131
1.00407
1.00779
1.02208
1.05081
1.12393
1.34758
1.97898
2.53977
2.70811
2.70034
2.68821
2.70281
2.71459
2.72503
2.72995
2.73755
2.73917
2.73553
1
1.00002
1.00003
1.00011
1.00021
1.00065
1.00119
1.00369
1.00702
1.0202
1.04473
1.11381
1.30069
1.88781
2.4802
2.68905
2.68419
2.67407
2.6885
2.69794
2.71031
2.71343
2.71374
2.71257
2.71214
1
1.00002
1.00003
1.0001
1.00018
1.00059
1.00106
1.00332
1.00627
1.01816
1.0401
1.10106
1.27036
1.77707
2.46681
2.67837
2.66315
2.66081
2.67392
2.67795
2.68776
2.6917
2.69188
2.68568
2.66107
1
1.00001
1.00003
1.00008
1.00015
1.00048
1.0009
1.00256
1.00557
1.01393
1.03762
1.08327
1.25262
1.64296
2.40204
2.65351
2.65507
2.65405
2.6558
2.66413
2.66389
2.66187
2.65215
2.63117
2.58344
1
1.00003
1.00005
1.00017
1.0003
1.00095
1.00175
1.00519
1.01083
1.0281
1.07563
1.16812
1.52042
2.3149
2.65703
2.73373
2.7282
2.72477
2.73942
2.75119
2.76403
2.77199
2.77825
2.78271
2.78567
1
1.00003
1.00005
1.00016
1.00029
1.00093
1.00173
1.0051
1.01069
1.02765
1.07467
1.16544
1.51553
2.30414
2.65389
2.73383
2.72816
2.72467
2.73915
2.75082
2.76332
2.77088
2.77703
2.78048
2.78262
1
1.00002
1.00005
1.00016
1.00029
1.0009
1.00168
1.00492
1.01041
1.02668
1.07264
1.15975
1.50459
2.28037
2.64538
2.73265
2.72659
2.72258
2.73695
2.74835
2.76098
2.76773
2.77376
2.778
2.77902
1
1.00002
1.00005
1.00015
1.00027
1.00087
1.00161
1.00475
1.00995
1.0257
1.06928
1.15352
1.47905
2.23475
2.63043
2.72945
2.72294
2.71797
2.73199
2.74377
2.75658
2.76403
2.76886
2.77125
2.77434
1
1.00002
1.00004
1.00014
1.00026
1.00082
1.00152
1.00451
1.00936
1.02436
1.06482
1.14539
1.44388
2.17086
2.60911
2.72511
2.71883
2.71111
2.72575
2.73448
2.7476
2.7544
2.76187
2.76535
2.76455
1
1.00002
1.00004
1.00014
1.00025
1.00079
1.00142
1.00441
1.0086
1.02359
1.05784
1.1353
1.39714
2.08334
2.57961
2.71781
2.71089
2.7021
2.71787
2.72802
2.73787
2.74619
2.74949
2.75135
2.75492
1
1.00002
1.00004
1.00013
1.00023
1.00072
1.00131
1.00407
1.00779
1.02208
1.05081
1.12394
1.34758
1.97898
2.53977
2.70811
2.70034
2.68821
2.70281
2.71459
2.72503
2.72996
2.73755
2.73917
2.73553
1
1.00002
1.00003
1.00011
1.00021
1.00065
1.00119
1.00369
1.00702
1.0202
1.04473
1.11381
1.30069
1.88781
2.4802
2.68905
2.68419
2.67407
2.6885
2.69794
2.71031
2.71343
2.71374
2.71257
2.71214
1
1.00002
1.00003
1.0001
1.00018
1.00059
1.00106
1.00332
1.00627
1.01816
1.0401
1.10106
1.27036
1.77708
2.46681
2.67837
2.66315
2.66081
2.67392
2.67795
2.68776
2.6917
2.69188
2.68568
2.66107
1
1.00001
1.00003
1.00008
1.00015
1.00048
1.0009
1.00256
1.00557
1.01393
1.03762
1.08327
1.25262
1.64296
2.40204
2.65351
2.65507
2.65405
2.65579
2.66413
2.66389
2.66187
2.65215
2.63117
2.58344
1
1.00003
1.00005
1.00017
1.0003
1.00095
1.00175
1.00519
1.01083
1.0281
1.07563
1.16812
1.52042
2.3149
2.65703
2.73373
2.7282
2.72477
2.73942
2.75119
2.76403
2.77199
2.77825
2.78271
2.78567
1
1.00003
1.00005
1.00016
1.00029
1.00093
1.00173
1.0051
1.01069
1.02765
1.07467
1.16544
1.51553
2.30414
2.65389
2.73383
2.72816
2.72467
2.73915
2.75082
2.76332
2.77088
2.77703
2.78048
2.78262
1
1.00002
1.00005
1.00016
1.00029
1.0009
1.00168
1.00492
1.01041
1.02668
1.07264
1.15975
1.50459
2.28037
2.64538
2.73265
2.72659
2.72258
2.73695
2.74835
2.76098
2.76773
2.77376
2.778
2.77902
1
1.00002
1.00005
1.00015
1.00027
1.00087
1.00161
1.00475
1.00995
1.0257
1.06928
1.15352
1.47905
2.23475
2.63043
2.72945
2.72294
2.71797
2.73199
2.74377
2.75658
2.76403
2.76886
2.77125
2.77434
1
1.00002
1.00004
1.00014
1.00026
1.00082
1.00152
1.00451
1.00936
1.02436
1.06482
1.14539
1.44387
2.17086
2.60911
2.72511
2.71883
2.71111
2.72575
2.73448
2.7476
2.7544
2.76187
2.76535
2.76455
1
1.00002
1.00004
1.00014
1.00025
1.00079
1.00142
1.00441
1.0086
1.02359
1.05784
1.1353
1.39714
2.08334
2.57961
2.71781
2.71089
2.7021
2.71787
2.72802
2.73787
2.74619
2.74949
2.75135
2.75492
1
1.00002
1.00004
1.00013
1.00023
1.00072
1.00131
1.00407
1.00779
1.02208
1.05081
1.12393
1.34758
1.97898
2.53977
2.70811
2.70034
2.68821
2.70281
2.71459
2.72503
2.72996
2.73755
2.73917
2.73553
1
1.00002
1.00003
1.00011
1.00021
1.00065
1.00119
1.00369
1.00702
1.0202
1.04473
1.11381
1.30069
1.88781
2.4802
2.68905
2.68419
2.67407
2.6885
2.69794
2.71031
2.71343
2.71374
2.71257
2.71214
1
1.00002
1.00003
1.0001
1.00018
1.00059
1.00106
1.00332
1.00627
1.01816
1.0401
1.10106
1.27036
1.77708
2.46681
2.67837
2.66315
2.66081
2.67392
2.67795
2.68776
2.6917
2.69188
2.68568
2.66107
1
1.00001
1.00003
1.00008
1.00015
1.00048
1.0009
1.00256
1.00557
1.01393
1.03762
1.08327
1.25262
1.64296
2.40204
2.65351
2.65507
2.65405
2.65579
2.66413
2.66389
2.66187
2.65215
2.63117
2.58344
1
1.00003
1.00005
1.00017
1.0003
1.00095
1.00175
1.00519
1.01083
1.02811
1.07563
1.16812
1.52042
2.3149
2.65703
2.73373
2.7282
2.72477
2.73942
2.75119
2.76403
2.77199
2.77825
2.78271
2.78567
1
1.00003
1.00005
1.00016
1.00029
1.00093
1.00173
1.0051
1.01069
1.02765
1.07467
1.16544
1.51553
2.30414
2.65389
2.73382
2.72816
2.72467
2.73915
2.75082
2.76332
2.77088
2.77703
2.78048
2.78262
1
1.00002
1.00005
1.00016
1.00029
1.0009
1.00168
1.00492
1.01041
1.02668
1.07264
1.15975
1.50459
2.28037
2.64538
2.73265
2.72659
2.72258
2.73695
2.74835
2.76098
2.76773
2.77376
2.778
2.77902
1
1.00002
1.00005
1.00015
1.00027
1.00087
1.00161
1.00475
1.00995
1.0257
1.06928
1.15352
1.47905
2.23476
2.63044
2.72945
2.72294
2.71797
2.73199
2.74377
2.75658
2.76403
2.76886
2.77125
2.77434
1
1.00002
1.00004
1.00014
1.00026
1.00082
1.00152
1.00451
1.00936
1.02436
1.06482
1.14539
1.44388
2.17086
2.60912
2.72511
2.71883
2.71111
2.72575
2.73448
2.7476
2.7544
2.76187
2.76535
2.76455
1
1.00002
1.00004
1.00014
1.00025
1.00079
1.00142
1.00441
1.0086
1.02359
1.05784
1.1353
1.39714
2.08335
2.57961
2.71781
2.71089
2.7021
2.71787
2.72802
2.73787
2.74619
2.74949
2.75135
2.75492
1
1.00002
1.00004
1.00013
1.00023
1.00072
1.00131
1.00407
1.00779
1.02208
1.05081
1.12394
1.34758
1.97899
2.53977
2.70811
2.70035
2.68821
2.70281
2.71459
2.72503
2.72996
2.73755
2.73917
2.73553
1
1.00002
1.00003
1.00011
1.00021
1.00065
1.00119
1.00369
1.00702
1.0202
1.04473
1.11381
1.30069
1.88782
2.4802
2.68905
2.68419
2.67407
2.68851
2.69794
2.71031
2.71343
2.71374
2.71257
2.71214
1
1.00002
1.00003
1.0001
1.00018
1.00059
1.00106
1.00332
1.00627
1.01816
1.0401
1.10106
1.27036
1.77709
2.46681
2.67837
2.66315
2.66081
2.67392
2.67795
2.68776
2.6917
2.69188
2.68568
2.66107
1
1.00001
1.00003
1.00008
1.00015
1.00048
1.0009
1.00256
1.00557
1.01393
1.03762
1.08327
1.25262
1.64296
2.40204
2.65351
2.65507
2.65405
2.65579
2.66413
2.66389
2.66187
2.65215
2.63117
2.58344
1
1.00003
1.00005
1.00017
1.0003
1.00095
1.00175
1.00519
1.01083
1.02811
1.07563
1.16812
1.52042
2.3149
2.65703
2.73373
2.7282
2.72477
2.73942
2.75119
2.76403
2.77199
2.77825
2.78271
2.78567
1
1.00003
1.00005
1.00016
1.00029
1.00093
1.00173
1.0051
1.01069
1.02765
1.07467
1.16544
1.51553
2.30414
2.65389
2.73382
2.72816
2.72467
2.73915
2.75082
2.76332
2.77088
2.77703
2.78048
2.78262
1
1.00002
1.00005
1.00016
1.00029
1.0009
1.00168
1.00492
1.01041
1.02668
1.07264
1.15975
1.50459
2.28037
2.64538
2.73265
2.72659
2.72258
2.73695
2.74835
2.76098
2.76773
2.77376
2.778
2.77902
1
1.00002
1.00005
1.00015
1.00027
1.00087
1.00161
1.00475
1.00995
1.0257
1.06928
1.15352
1.47905
2.23476
2.63044
2.72945
2.72294
2.71797
2.73199
2.74377
2.75658
2.76403
2.76886
2.77125
2.77434
1
1.00002
1.00004
1.00014
1.00026
1.00082
1.00152
1.00451
1.00936
1.02436
1.06482
1.14539
1.44388
2.17086
2.60912
2.72511
2.71883
2.71111
2.72575
2.73448
2.7476
2.7544
2.76187
2.76535
2.76455
1
1.00002
1.00004
1.00014
1.00025
1.00079
1.00142
1.00441
1.0086
1.02359
1.05784
1.1353
1.39714
2.08335
2.57961
2.71781
2.71089
2.7021
2.71787
2.72802
2.73787
2.74619
2.74949
2.75135
2.75492
1
1.00002
1.00004
1.00013
1.00023
1.00072
1.00131
1.00407
1.00779
1.02208
1.05081
1.12394
1.34758
1.97899
2.53977
2.70811
2.70035
2.68821
2.70281
2.71459
2.72503
2.72995
2.73755
2.73917
2.73553
1
1.00002
1.00003
1.00011
1.00021
1.00065
1.00119
1.00369
1.00702
1.0202
1.04473
1.11381
1.30069
1.88782
2.4802
2.68905
2.68419
2.67407
2.6885
2.69794
2.71031
2.71343
2.71374
2.71257
2.71214
1
1.00002
1.00003
1.0001
1.00018
1.00059
1.00106
1.00332
1.00627
1.01816
1.0401
1.10106
1.27036
1.77708
2.46681
2.67837
2.66315
2.66081
2.67392
2.67795
2.68776
2.6917
2.69188
2.68568
2.66107
1
1.00001
1.00003
1.00008
1.00015
1.00048
1.0009
1.00256
1.00557
1.01393
1.03762
1.08327
1.25262
1.64296
2.40204
2.65351
2.65507
2.65405
2.65579
2.66413
2.66389
2.66187
2.65215
2.63117
2.58344
1
1.00003
1.00005
1.00017
1.0003
1.00095
1.00175
1.00519
1.01083
1.0281
1.07563
1.16812
1.52042
2.3149
2.65703
2.73373
2.7282
2.72477
2.73942
2.75119
2.76403
2.77199
2.77825
2.78271
2.78567
1
1.00003
1.00005
1.00016
1.00029
1.00093
1.00173
1.0051
1.01069
1.02765
1.07467
1.16544
1.51553
2.30414
2.65389
2.73383
2.72816
2.72467
2.73915
2.75082
2.76332
2.77088
2.77703
2.78048
2.78262
1
1.00002
1.00005
1.00016
1.00029
1.0009
1.00168
1.00492
1.01041
1.02668
1.07264
1.15975
1.50459
2.28037
2.64538
2.73265
2.72659
2.72258
2.73695
2.74835
2.76098
2.76773
2.77376
2.778
2.77902
1
1.00002
1.00005
1.00015
1.00027
1.00087
1.00161
1.00475
1.00995
1.0257
1.06928
1.15352
1.47905
2.23475
2.63043
2.72945
2.72294
2.71797
2.73199
2.74377
2.75658
2.76403
2.76886
2.77125
2.77434
1
1.00002
1.00004
1.00014
1.00026
1.00082
1.00152
1.00451
1.00936
1.02436
1.06482
1.14539
1.44388
2.17086
2.60911
2.72511
2.71883
2.71111
2.72575
2.73448
2.7476
2.7544
2.76187
2.76535
2.76455
1
1.00002
1.00004
1.00014
1.00025
1.00079
1.00142
1.00441
1.0086
1.02359
1.05784
1.1353
1.39714
2.08334
2.57961
2.71781
2.71089
2.7021
2.71787
2.72802
2.73787
2.74619
2.74949
2.75135
2.75492
1
1.00002
1.00004
1.00013
1.00023
1.00072
1.00131
1.00407
1.00779
1.02208
1.05081
1.12394
1.34758
1.97898
2.53977
2.70811
2.70034
2.68821
2.70281
2.71459
2.72503
2.72995
2.73755
2.73917
2.73553
1
1.00002
1.00003
1.00011
1.00021
1.00065
1.00119
1.00369
1.00702
1.0202
1.04473
1.11381
1.30069
1.88781
2.4802
2.68905
2.68419
2.67407
2.6885
2.69794
2.71031
2.71343
2.71374
2.71257
2.71214
1
1.00002
1.00003
1.0001
1.00018
1.00059
1.00106
1.00332
1.00627
1.01816
1.0401
1.10106
1.27036
1.77708
2.46681
2.67837
2.66315
2.66081
2.67392
2.67795
2.68776
2.6917
2.69188
2.68568
2.66107
1
1.00001
1.00003
1.00008
1.00015
1.00048
1.0009
1.00256
1.00557
1.01393
1.03762
1.08327
1.25262
1.64296
2.40204
2.65351
2.65507
2.65405
2.65579
2.66413
2.66389
2.66187
2.65215
2.63117
2.58344
1
1.00003
1.00005
1.00017
1.0003
1.00095
1.00175
1.00519
1.01083
1.0281
1.07563
1.16812
1.52042
2.3149
2.65703
2.73373
2.7282
2.72477
2.73942
2.75119
2.76403
2.77199
2.77825
2.78271
2.78567
1
1.00003
1.00005
1.00016
1.00029
1.00093
1.00173
1.0051
1.01069
1.02765
1.07467
1.16544
1.51553
2.30414
2.65389
2.73383
2.72816
2.72467
2.73915
2.75082
2.76332
2.77088
2.77703
2.78048
2.78262
1
1.00002
1.00005
1.00016
1.00029
1.0009
1.00168
1.00492
1.01041
1.02668
1.07264
1.15975
1.50459
2.28037
2.64538
2.73265
2.72659
2.72258
2.73695
2.74835
2.76098
2.76773
2.77376
2.778
2.77902
1
1.00002
1.00005
1.00015
1.00027
1.00087
1.00161
1.00475
1.00995
1.0257
1.06928
1.15352
1.47905
2.23475
2.63043
2.72945
2.72294
2.71797
2.73199
2.74377
2.75658
2.76403
2.76886
2.77125
2.77434
1
1.00002
1.00004
1.00014
1.00026
1.00082
1.00152
1.00451
1.00936
1.02436
1.06482
1.14539
1.44388
2.17086
2.60911
2.72511
2.71883
2.71111
2.72575
2.73448
2.7476
2.7544
2.76187
2.76535
2.76455
1
1.00002
1.00004
1.00014
1.00025
1.00079
1.00142
1.00441
1.0086
1.02359
1.05784
1.1353
1.39714
2.08334
2.57961
2.71781
2.71089
2.7021
2.71787
2.72802
2.73787
2.74619
2.74949
2.75135
2.75492
1
1.00002
1.00004
1.00013
1.00023
1.00072
1.00131
1.00407
1.00779
1.02208
1.05081
1.12394
1.34758
1.97898
2.53977
2.70811
2.70034
2.68821
2.70281
2.71459
2.72503
2.72996
2.73755
2.73917
2.73553
1
1.00002
1.00003
1.00011
1.00021
1.00065
1.00119
1.00369
1.00702
1.0202
1.04473
1.11381
1.30069
1.88781
2.4802
2.68905
2.68419
2.67407
2.6885
2.69794
2.71031
2.71343
2.71374
2.71257
2.71214
1
1.00002
1.00003
1.0001
1.00018
1.00059
1.00106
1.00332
1.00627
1.01816
1.0401
1.10106
1.27036
1.77708
2.46681
2.67837
2.66315
2.66081
2.67392
2.67795
2.68776
2.6917
2.69188
2.68568
2.66107
1
1.00001
1.00003
1.00008
1.00015
1.00048
1.0009
1.00256
1.00557
1.01393
1.03762
1.08327
1.25262
1.64296
2.40204
2.65351
2.65507
2.65405
2.65579
2.66413
2.66389
2.66187
2.65215
2.63117
2.58344
1
1.00003
1.00005
1.00017
1.0003
1.00095
1.00175
1.00519
1.01083
1.0281
1.07563
1.16812
1.52042
2.3149
2.65703
2.73373
2.7282
2.72477
2.73942
2.75119
2.76403
2.77199
2.77825
2.78271
2.78567
1
1.00003
1.00005
1.00016
1.00029
1.00093
1.00173
1.0051
1.01069
1.02765
1.07467
1.16544
1.51553
2.30414
2.65389
2.73383
2.72816
2.72467
2.73915
2.75082
2.76332
2.77088
2.77703
2.78048
2.78262
1
1.00002
1.00005
1.00016
1.00029
1.0009
1.00168
1.00492
1.01041
1.02668
1.07264
1.15975
1.50459
2.28037
2.64538
2.73265
2.72659
2.72258
2.73695
2.74835
2.76098
2.76773
2.77376
2.778
2.77902
1
1.00002
1.00005
1.00015
1.00027
1.00087
1.00161
1.00475
1.00995
1.0257
1.06928
1.15352
1.47905
2.23475
2.63043
2.72945
2.72294
2.71797
2.73199
2.74377
2.75658
2.76403
2.76886
2.77125
2.77434
1
1.00002
1.00004
1.00014
1.00026
1.00082
1.00152
1.00451
1.00936
1.02436
1.06482
1.14539
1.44387
2.17085
2.60911
2.72511
2.71883
2.71111
2.72575
2.73447
2.7476
2.7544
2.76187
2.76535
2.76455
1
1.00002
1.00004
1.00014
1.00025
1.00079
1.00142
1.00441
1.0086
1.02359
1.05784
1.1353
1.39714
2.08333
2.57961
2.71781
2.71089
2.7021
2.71787
2.72802
2.73787
2.74619
2.74949
2.75135
2.75492
1
1.00002
1.00004
1.00013
1.00023
1.00072
1.00131
1.00407
1.00779
1.02208
1.05081
1.12393
1.34758
1.97898
2.53977
2.70811
2.70034
2.68821
2.70281
2.71459
2.72503
2.72995
2.73755
2.73917
2.73553
1
1.00002
1.00003
1.00011
1.00021
1.00065
1.00119
1.00369
1.00702
1.0202
1.04473
1.11381
1.30069
1.88781
2.4802
2.68905
2.68419
2.67407
2.6885
2.69794
2.71031
2.71343
2.71374
2.71257
2.71214
1
1.00002
1.00003
1.0001
1.00018
1.00059
1.00106
1.00332
1.00627
1.01816
1.0401
1.10106
1.27036
1.77707
2.46681
2.67837
2.66315
2.66081
2.67392
2.67795
2.68776
2.6917
2.69188
2.68568
2.66107
1
1.00001
1.00003
1.00008
1.00015
1.00048
1.0009
1.00256
1.00557
1.01393
1.03762
1.08327
1.25262
1.64296
2.40204
2.65351
2.65507
2.65405
2.6558
2.66413
2.66389
2.66187
2.65215
2.63117
2.58344
0.999996
1.00002
1.00004
1.00016
1.00029
1.00094
1.00174
1.00518
1.01082
1.02809
1.07561
1.16807
1.52038
2.31476
2.65695
2.73366
2.72813
2.72469
2.73935
2.75112
2.76396
2.77191
2.77817
2.78263
2.78558
0.999995
1.00002
1.00004
1.00015
1.00029
1.00093
1.00172
1.00509
1.01068
1.02763
1.07465
1.16539
1.51548
2.304
2.65381
2.73376
2.72809
2.7246
2.73908
2.75074
2.76324
2.7708
2.77695
2.7804
2.78254
0.999995
1.00002
1.00004
1.00015
1.00028
1.0009
1.00167
1.00491
1.0104
1.02667
1.07263
1.1597
1.50454
2.28023
2.6453
2.73258
2.72652
2.7225
2.73687
2.74827
2.7609
2.76765
2.77368
2.77792
2.77894
0.999995
1.00002
1.00004
1.00014
1.00027
1.00086
1.0016
1.00474
1.00994
1.02568
1.06927
1.15348
1.479
2.2346
2.63035
2.72938
2.72287
2.7179
2.73192
2.7437
2.75651
2.76396
2.76878
2.77118
2.77426
0.999995
1.00002
1.00004
1.00014
1.00025
1.00082
1.00151
1.0045
1.00935
1.02434
1.0648
1.14535
1.44383
2.17073
2.60905
2.72505
2.71876
2.71104
2.72568
2.7344
2.74753
2.75433
2.7618
2.76527
2.76448
0.999995
1.00001
1.00003
1.00013
1.00024
1.00078
1.00142
1.0044
1.00859
1.02357
1.05784
1.13527
1.39713
2.08322
2.57954
2.71774
2.71082
2.70204
2.7178
2.72795
2.7378
2.74611
2.74941
2.75127
2.75485
0.999995
1.00001
1.00003
1.00012
1.00022
1.00071
1.0013
1.00406
1.00778
1.02206
1.0508
1.1239
1.34755
1.97887
2.53969
2.70803
2.70026
2.68814
2.70273
2.71453
2.72496
2.72989
2.73748
2.7391
2.73546
0.999995
1.00001
1.00003
1.00011
1.0002
1.00065
1.00118
1.00368
1.00701
1.02019
1.04472
1.11378
1.30067
1.88769
2.48016
2.68899
2.68413
2.674
2.68844
2.69787
2.71024
2.71336
2.71367
2.7125
2.71207
0.999995
1.00001
1.00002
1.00009
1.00018
1.00058
1.00105
1.00331
1.00626
1.01815
1.04009
1.10103
1.27035
1.77694
2.46675
2.67831
2.66308
2.66076
2.67386
2.67789
2.68769
2.69163
2.69182
2.68562
2.66101
0.999994
1.00001
1.00002
1.00008
1.00015
1.00047
1.00089
1.00255
1.00556
1.01392
1.03761
1.08324
1.25261
1.64285
2.40196
2.65344
2.65502
2.654
2.65574
2.66408
2.66383
2.66181
2.65209
2.63111
2.58338
0.999996
1
1.00002
1.00005
1.00017
1.00033
1.00103
1.00198
1.00566
1.01232
1.03127
1.08561
1.19053
1.57394
2.37848
2.60211
2.63935
2.63595
2.63608
2.64255
2.64272
2.63551
2.61417
2.56248
2.38148
0.999996
1
1.00002
1.00004
1.00015
1.00028
1.00091
1.00168
1.00498
1.01043
1.02697
1.07255
1.16089
1.49742
2.25834
2.56327
2.63636
2.6281
2.61554
2.61433
2.6107
2.59663
2.56387
2.50262
2.31735
0.999995
0.999999
1.00002
1.00004
1.00013
1.00024
1.00078
1.00144
1.00438
1.00876
1.02348
1.05947
1.13633
1.40498
2.0803
2.49066
2.62507
2.61663
2.60396
2.59368
2.58625
2.56829
2.52672
2.46846
2.31627
0.999995
0.999998
1.00001
1.00003
1.00011
1.0002
1.00066
1.0012
1.00374
1.00712
1.0204
1.04555
1.11391
1.30556
1.8736
2.39785
2.59664
2.58834
2.58238
2.56672
2.55051
2.52961
2.48894
2.44408
2.32652
0.999995
0.999997
1.00001
1.00002
1.00009
1.00016
1.00053
1.00098
1.00302
1.00582
1.01663
1.0366
1.09383
1.24092
1.71726
2.29223
2.55607
2.56439
2.56334
2.55416
2.53193
2.50671
2.45173
2.41256
2.32756
0.999994
0.999997
1
1.00002
1.00005
1.00017
1.00032
1.00098
1.00188
1.00534
1.01167
1.02921
1.08027
1.17544
1.53666
2.27074
2.48076
2.52537
2.52244
2.52115
2.51101
2.49056
2.44177
2.39323
2.32477
0.999994
0.999996
1
1.00002
1.00004
1.00014
1.00025
1.00081
1.0015
1.00448
1.00916
1.02399
1.06258
1.14072
1.4214
2.09638
2.42799
2.51594
2.50368
2.49622
2.47841
2.46095
2.42347
2.37883
2.3212
0.999993
0.999995
0.999998
1.00001
1.00003
1.0001
1.0002
1.00064
1.00118
1.00363
1.007
1.01983
1.04465
1.11194
1.29613
1.86577
2.29732
2.48529
2.48403
2.47716
2.46014
2.43993
2.40566
2.36076
2.31036
0.999993
0.999994
0.999998
1
1.00003
1.00006
1.00019
1.00036
1.00113
1.00213
1.00619
1.01303
1.03361
1.08761
1.20345
1.56144
2.24564
2.43083
2.44817
2.44342
2.43109
2.41496
2.39259
2.35391
2.30626
0.999992
0.999993
0.999996
1
1.00002
1.00004
1.00014
1.00027
1.00083
1.00158
1.0045
1.00978
1.02441
1.06666
1.14525
1.44811
2.10702
2.37395
2.42984
2.42257
2.40681
2.38217
2.36106
2.33669
2.29696
0.999992
0.999993
0.999994
0.999999
1.00001
1.00004
1.00007
1.00024
1.00047
1.00132
1.00287
1.00716
1.01883
1.04238
1.12442
1.27784
1.79033
2.249
2.40582
2.40549
2.3956
2.37385
2.3453
2.31795
2.28704
0.999992
0.999992
0.999993
0.999997
1
1.00003
1.00005
1.00019
1.00034
1.00109
1.00202
1.00603
1.01226
1.03222
1.08207
1.19012
1.52293
2.15661
2.34755
2.37068
2.36683
2.35403
2.32741
2.29987
2.26684
0.999991
0.999992
0.999993
0.999994
1
1.00001
1.00005
1.00009
1.0003
1.00058
1.00165
1.00353
1.00891
1.02309
1.05241
1.15329
1.34719
1.90522
2.2753
2.35488
2.35189
2.33951
2.31766
2.29103
2.25947
0.999991
0.999991
0.999992
0.999993
0.999998
1
1.00003
1.00007
1.00022
1.00041
1.00129
1.0024
1.00699
1.01473
1.03691
1.09756
1.22266
1.58401
2.10899
2.31213
2.32152
2.31614
2.29785
2.27278
2.245
0.999991
0.999991
0.999992
0.999993
0.999995
1
1.00001
1.00006
1.00011
1.00037
1.00069
1.0021
1.00407
1.01136
1.02538
1.06177
1.16378
1.41609
1.94628
2.24769
2.3008
2.29953
2.28652
2.2624
2.23418
0.999991
0.999991
0.999991
0.999992
0.999994
0.999999
1.00001
1.00004
1.00008
1.00026
1.00047
1.00146
1.00275
1.00787
1.01683
1.0422
1.1123
1.25921
1.67054
2.10405
2.25789
2.26844
2.26267
2.24943
2.22352
0.999991
0.999991
0.999991
0.999992
0.999993
0.999995
1
1.00002
1.00007
1.00013
1.00041
1.00078
1.00233
1.00453
1.01267
1.02722
1.07108
1.16688
1.48914
1.9393
2.19446
2.24067
2.23978
2.22811
2.20732
0.999991
0.999991
0.999991
0.999991
0.999992
0.999994
1
1.00001
1.00004
1.00008
1.00027
1.00051
1.00157
1.00293
1.00846
1.01774
1.04488
1.11523
1.27455
1.68474
2.06736
2.20056
2.21649
2.21148
2.19834
0.999991
0.999991
0.999991
0.999991
0.999992
0.999993
0.999995
1
1.00002
1.00007
1.00013
1.00042
1.0008
1.00235
1.00465
1.01281
1.0275
1.07257
1.16568
1.50364
1.88928
2.12577
2.1726
2.18085
2.17506
0.999991
0.999991
0.999991
0.999991
0.999991
0.999992
0.999995
0.999998
1.00001
1.00003
1.00011
1.00021
1.00065
1.00122
1.00358
1.00713
1.01876
1.04532
1.10326
1.28408
1.72051
2.02441
2.13851
2.15275
2.1495
0.999991
0.999991
0.999991
0.999991
0.999991
0.999992
0.999993
0.999995
1
1.00002
1.00007
1.00013
1.00042
1.00078
1.00235
1.00445
1.01278
1.02597
1.07072
1.15609
1.47784
1.84458
2.07713
2.12084
2.12586
0.999991
0.999991
0.999991
0.999991
0.999991
0.999991
0.999992
0.999994
0.999997
1.00001
1.00003
1.0001
1.0002
1.00061
1.00114
1.00335
1.00657
1.01774
1.04052
1.09595
1.2518
1.65767
1.96244
2.08848
2.09866
0.999991
0.999991
0.999991
0.999991
0.999991
0.999991
0.999991
0.999993
0.999995
1
1.00001
1.00006
1.00012
1.00038
1.0007
1.00213
1.00399
1.01145
1.02329
1.06173
1.14014
1.3942
1.78927
2.02642
2.07986
0.999991
0.999991
0.999991
0.999991
0.999991
0.999991
0.999991
0.999992
0.999993
0.999998
1
1.00003
1.00007
1.00023
1.00041
1.00128
1.00235
1.00687
1.01377
1.03542
1.0875
1.19837
1.5245
1.87492
2.03929
0.999991
0.999991
0.999991
0.999991
0.999991
0.999991
0.999991
0.999992
0.999992
0.999995
0.999999
1.00002
1.00004
1.00013
1.00024
1.00076
1.0014
1.00405
1.0082
1.02091
1.05274
1.11447
1.32953
1.75382
1.95623
0.999991
0.999991
0.999991
0.999991
0.999991
0.999991
0.999991
0.999991
0.999992
0.999993
0.999997
1
1.00003
1.00005
1.00018
1.00034
1.00103
1.00196
1.00556
1.01147
1.02916
1.07005
1.1686
1.40899
1.84414
0.999991
0.999991
0.999991
0.999991
0.999991
0.999991
0.999991
0.999991
0.999991
0.999992
0.999994
0.999999
1.00001
1.00004
1.00008
1.00026
1.00049
1.00144
1.00277
1.00777
1.01627
1.04093
1.09886
1.24477
1.56985
0.999991
0.999991
0.999991
0.999991
0.999991
0.999991
0.999991
0.999991
0.999991
0.999991
0.999993
0.999995
1
1.00001
1.00006
1.00011
1.00036
1.00067
1.00196
1.00383
1.01048
1.02204
1.05729
1.12872
1.3684
0.999991
0.999991
0.999991
0.999991
0.999991
0.999991
0.999991
0.999991
0.999991
0.999991
0.999992
0.999993
0.999998
1
1.00003
1.00006
1.0002
1.00038
1.00112
1.00211
1.00597
1.01198
1.03121
1.06967
1.17545
0.999991
0.999991
0.999991
0.999991
0.999991
0.999991
0.999991
0.999991
0.999991
0.999991
0.999991
0.999992
0.999994
1
1.00001
1.00004
1.00009
1.00027
1.00051
1.00148
1.00288
1.00791
1.01676
1.04197
1.09874
0.999991
0.999991
0.999991
0.999991
0.999991
0.999991
0.999991
0.999991
0.999991
0.999991
0.999991
0.999991
0.999993
0.999995
1
1.00001
1.00006
1.00012
1.00037
1.0007
1.00202
1.00395
1.0108
1.02244
1.0594
0.999991
0.999991
0.999991
0.999991
0.999991
0.999991
0.999991
0.999991
0.999991
0.999991
0.999991
0.999991
0.999992
0.999994
0.999997
1.00001
1.00002
1.00009
1.00017
1.00052
1.00097
1.00283
1.00548
1.01484
1.03199
0.999991
0.999991
0.999991
0.999991
0.999991
0.999991
0.999991
0.999991
0.999991
0.999991
0.999991
0.999991
0.999991
0.999993
0.999995
1
1.00001
1.00006
1.00011
1.00035
1.00065
1.00195
1.00368
1.01042
1.02181
0.999991
0.999991
0.999991
0.999991
0.999991
0.999991
0.999991
0.999991
0.999991
0.999991
0.999991
0.999991
0.999991
0.999992
0.999994
0.999998
1.00001
1.00003
1.00011
1.00021
1.00066
1.00125
1.00366
1.00746
1.0197
0.999991
0.999991
0.999991
0.999991
0.999991
0.999991
0.999991
0.999991
0.999991
0.999991
0.999991
0.999991
0.999991
0.999992
0.999993
0.999998
1
1.00003
1.00007
1.00023
1.00045
1.0013
1.00277
1.00703
1.01808
0.999991
0.999991
0.999991
0.999991
0.999991
0.999991
0.999991
0.999991
0.999991
0.999991
0.999991
0.999991
0.999991
0.999992
0.999994
0.999996
1.00001
1.00002
1.00009
1.00017
1.00055
1.00107
1.00303
1.00676
1.01694
0.999991
0.999991
0.999991
0.999991
0.999991
0.999991
0.999991
0.999991
0.999991
0.999991
0.999991
0.999991
0.999991
0.999992
0.999993
0.999998
1
1.00003
1.00007
1.00023
1.00042
1.00132
1.00258
1.00718
1.01659
0.999991
0.999991
0.999991
0.999991
0.999991
0.999991
0.999991
0.999991
0.999991
0.999991
0.999991
0.999991
0.999991
0.999992
0.999993
0.999998
1
1.00003
1.00006
1.00022
1.00042
1.00131
1.00256
1.00713
1.01647
0.999991
0.999991
0.999991
0.999991
0.999991
0.999991
0.999991
0.999991
0.999991
0.999991
0.999991
0.999991
0.999991
0.999992
0.999994
0.999996
1.00001
1.00002
1.00009
1.00017
1.00056
1.00105
1.00326
1.00644
1.01786
0.999991
0.999991
0.999991
0.999991
0.999991
0.999991
0.999991
0.999991
0.999991
0.999991
0.999991
0.999991
0.999991
0.999992
0.999994
0.999996
1.00001
1.00002
1.00009
1.00018
1.00059
1.00107
1.00339
1.00647
1.01876
1
1.00001
1.00003
1.00006
1.00018
1.00034
1.00104
1.00198
1.00568
1.01233
1.03128
1.08562
1.19058
1.57398
2.37858
2.60218
2.6394
2.636
2.63613
2.64261
2.64278
2.63556
2.61422
2.56253
2.38152
1
1.00001
1.00003
1.00005
1.00016
1.00029
1.00092
1.00169
1.00499
1.01044
1.02698
1.07256
1.16093
1.49746
2.25846
2.56334
2.63641
2.62815
2.61559
2.61438
2.61075
2.59668
2.56392
2.50267
2.31738
1
1.00001
1.00002
1.00004
1.00014
1.00025
1.00079
1.00145
1.0044
1.00877
1.0235
1.05947
1.13636
1.40499
2.0804
2.49073
2.62512
2.61668
2.604
2.59373
2.5863
2.56834
2.52676
2.46849
2.3163
1
1.00001
1.00002
1.00004
1.00012
1.00021
1.00067
1.00121
1.00375
1.00713
1.02042
1.04556
1.11394
1.3056
1.87368
2.39791
2.59674
2.58843
2.58246
2.56677
2.55056
2.52966
2.489
2.44413
2.32656
1
1
1.00002
1.00003
1.00009
1.00017
1.00054
1.00099
1.00303
1.00583
1.01665
1.03661
1.09387
1.24091
1.71745
2.29227
2.55605
2.56442
2.56339
2.55421
2.53198
2.50674
2.45176
2.41259
2.3276
1
1
1.00001
1.00003
1.00006
1.00018
1.00032
1.00099
1.00189
1.00535
1.01168
1.02923
1.08029
1.17547
1.53668
2.27083
2.48078
2.5254
2.52247
2.5212
2.51107
2.49062
2.44181
2.39327
2.32481
1
1
1.00001
1.00003
1.00005
1.00015
1.00026
1.00082
1.00151
1.00449
1.00917
1.02401
1.06257
1.14076
1.42138
2.09645
2.42804
2.51598
2.50372
2.49625
2.47845
2.461
2.42352
2.37887
2.32124
1
1
1.00001
1.00002
1.00004
1.00011
1.00021
1.00065
1.00119
1.00364
1.00701
1.01984
1.04466
1.11197
1.29615
1.86584
2.29739
2.48534
2.48408
2.4772
2.46019
2.43997
2.4057
2.3608
2.31039
1
1
1.00001
1.00001
1.00004
1.00006
1.0002
1.00037
1.00113
1.00214
1.0062
1.01304
1.03362
1.08762
1.20349
1.56146
2.24569
2.43088
2.44821
2.44346
2.43113
2.415
2.39263
2.35395
2.30629
1
1
1