/*--------------------------------*- C++ -*----------------------------------*\
| =========                 |                                                 |
| \\      /  F ield         | OpenFOAM: The Open Source CFD Toolbox           |
|  \\    /   O peration     | Version:  4.1                                   |
|   \\  /    A nd           | Web:      www.OpenFOAM.org                      |
|    \\/     M anipulation  |                                                 |
\*---------------------------------------------------------------------------*/
FoamFile
{
    version     2.0;
    format      ascii;
    class       surfaceScalarField;
    location    "5.82";
    object      phi;
}
// * * * * * * * * * * * * * * * * * * * * * * * * * * * * * * * * * * * * * //

dimensions      [1 0 -1 0 0 0 0];

internalField   nonuniform List<scalar> 
150500
(
0.0168001
2.03568e-10
-3.44429e-12
0.0168001
1.13268e-09
-1.16336e-11
0.0168001
4.20846e-09
-1.3542e-11
0.0168
1.08414e-08
-2.15295e-11
0.0168
2.98032e-08
-2.1669e-11
0.0167999
6.86059e-08
-2.91045e-11
0.0167997
1.76985e-07
-2.95569e-11
0.0167993
4.05061e-07
-4.04537e-11
0.0167982
1.01803e-06
-4.29701e-11
0.016796
2.32258e-06
-7.98882e-11
0.0167888
6.52634e-06
-1.00064e-10
0.0167726
1.62778e-05
-2.53079e-10
0.016718
5.27448e-05
-3.02953e-10
0.0165469
0.000168251
-1.27926e-09
0.0155298
0.00100561
-2.59731e-09
0.0143325
0.0011987
4.78368e-10
0.0131257
0.00120598
-1.67181e-12
0.0118524
0.00127131
-3.10474e-10
0.010504
0.00134636
-3.15468e-10
0.0090683
0.00143335
-3.10197e-10
0.0075162
0.00154876
-3.22504e-10
0.00583479
0.00167727
-3.56267e-10
0.00403219
0.001799
-3.8586e-10
0.00209904
0.00193029
-4.15884e-10
0.00209565
-4.4833e-10
0.0168001
4.06628e-10
-3.43364e-12
0.0168001
2.24971e-09
-1.16395e-11
0.0168001
8.37794e-09
-1.35226e-11
0.0168
2.15203e-08
-2.15715e-11
0.0168
5.94083e-08
-2.15989e-11
0.0167999
1.36588e-07
-2.91448e-11
0.0167997
3.54746e-07
-2.95145e-11
0.0167993
8.09441e-07
-4.04904e-11
0.0167982
2.06258e-06
-4.28895e-11
0.0167959
4.66812e-06
-7.98236e-11
0.0167884
1.33579e-05
-9.99519e-11
0.0167717
3.30169e-05
-2.51518e-10
0.0167132
0.000109437
-3.02728e-10
0.0165332
0.000345234
-1.27213e-09
0.0154962
0.0020308
-2.60356e-09
0.0142684
0.00242791
4.77936e-10
0.0130715
0.00240212
-8.91955e-12
0.0118144
0.00252642
-3.10028e-10
0.0104747
0.00268409
-3.12e-10
0.00902452
0.0028812
-3.03232e-10
0.00745089
0.00311912
-3.16519e-10
0.0057511
0.00337284
-3.5081e-10
0.00393061
0.00361586
-3.80403e-10
0.00199809
0.00385993
-4.08961e-10
0.00409032
-4.40702e-10
0.0168001
5.86384e-10
-3.41442e-12
0.0168001
3.2246e-09
-1.16451e-11
0.0168001
1.20285e-08
-1.34951e-11
0.0168
3.07943e-08
-2.1637e-11
0.0168
8.54499e-08
-2.1484e-11
0.0168
1.96238e-07
-2.92061e-11
0.0167998
5.13614e-07
-2.94357e-11
0.0167994
1.17224e-06
-4.05289e-11
0.0167984
3.01104e-06
-4.26995e-11
0.0167962
6.85418e-06
-7.95545e-11
0.016789
1.98884e-05
-9.96384e-11
0.0167731
4.89856e-05
-2.47973e-10
0.0167121
0.000168511
-3.03266e-10
0.016528
0.000526086
-1.25958e-09
0.0155013
0.00304485
-2.63507e-09
0.0142413
0.00368946
4.78335e-10
0.013045
0.00359755
-2.37584e-11
0.0118043
0.00376517
-3.13934e-10
0.0104807
0.00400571
-3.0991e-10
0.00903384
0.00432594
-2.91723e-10
0.00745858
0.00469105
-3.0641e-10
0.00575698
0.00507057
-3.41144e-10
0.00392249
0.00544708
-3.70905e-10
0.00198717
0.00579253
-3.95585e-10
0.00607421
-4.225e-10
0.0168001
6.73982e-10
-3.38603e-12
0.0168001
3.72015e-09
-1.16512e-11
0.0168001
1.38984e-08
-1.34582e-11
0.0168
3.54729e-08
-2.17415e-11
0.0168
9.8524e-08
-2.13018e-11
0.0168
2.23845e-07
-2.93091e-11
0.0167999
6.01009e-07
-2.9312e-11
0.0167998
1.28913e-06
-4.05617e-11
0.0167989
3.77344e-06
-4.25087e-11
0.0167981
7.69869e-06
-7.8873e-11
0.0167917
2.5686e-05
-9.96407e-11
0.0167828
5.7809e-05
-2.39993e-10
0.0167002
0.00024913
-3.17118e-10
0.0165277
0.000695916
-1.23715e-09
0.0155376
0.00402049
-2.69329e-09
0.0142437
0.00498583
4.85784e-10
0.0130655
0.00477562
-3.05407e-11
0.011852
0.00497727
-3.19058e-10
0.0105559
0.00530015
-3.12072e-10
0.00913463
0.00574612
-2.81616e-10
0.0075672
0.00625577
-2.90111e-10
0.00586486
0.0067686
-3.22809e-10
0.00402541
0.00728331
-3.55112e-10
0.00204145
0.00777416
-3.73795e-10
0.00811276
-3.92913e-10
0.0168001
7.46805e-10
-3.3614e-12
0.0168001
4.13263e-09
-1.16433e-11
0.0168001
1.54528e-08
-1.3493e-11
0.0168001
3.93554e-08
-2.15894e-11
0.0168
1.09347e-07
-2.14751e-11
0.0168
2.465e-07
-2.90817e-11
0.0167999
6.75592e-07
-2.92663e-11
0.0167998
1.36536e-06
-3.96893e-11
0.016799
4.50858e-06
-4.25014e-11
0.0167988
7.93118e-06
-7.46817e-11
0.016791
3.28468e-05
-9.68339e-11
0.0167813
6.73303e-05
-2.27677e-10
0.0167208
0.00030747
-3.19588e-10
0.016568
0.000845673
-1.20495e-09
0.0157775
0.00479445
-2.80824e-09
0.0144391
0.00632745
4.66991e-10
0.0132363
0.00597847
-4.51404e-11
0.0120241
0.00618808
-3.17669e-10
0.0107433
0.00657825
-3.09124e-10
0.00933815
0.00715013
-2.71884e-10
0.00779906
0.00779229
-2.71974e-10
0.00609744
0.00846715
-3.0088e-10
0.00421702
0.00915923
-3.31219e-10
0.00217656
0.00981227
-3.4458e-10
0.0102867
-3.57479e-10
0.0168001
8.64739e-10
-3.34309e-12
0.0168001
4.79918e-09
-1.16234e-11
0.0168001
1.78851e-08
-1.35919e-11
0.0168
4.57446e-08
-2.14241e-11
0.0168
1.26334e-07
-2.19447e-11
0.0168
2.86206e-07
-2.92651e-11
0.0167999
7.75379e-07
-3.02918e-11
0.0167997
1.57764e-06
-4.42722e-11
0.0167988
5.25087e-06
-3.94972e-11
0.0167985
8.2677e-06
-1.21157e-10
0.0167909
3.97166e-05
-6.68045e-12
0.0167846
7.37285e-05
-3.40637e-10
0.0167434
0.000346225
-1.30123e-10
0.0166509
0.000935174
-1.12017e-09
0.0162381
0.00518847
-2.66423e-09
0.0148613
0.00770855
3.50599e-10
0.0135939
0.00724716
-1.43994e-10
0.0123616
0.00741977
-3.45021e-10
0.0110982
0.00784067
-3.2292e-10
0.00970655
0.00853995
-2.70953e-10
0.0081684
0.00932821
-2.61889e-10
0.00646583
0.0101666
-2.88773e-10
0.00455438
0.0110687
-3.14215e-10
0.00237843
0.0119874
-3.21545e-10
0.0126634
-3.26285e-10
0.0168001
1.05131e-09
-3.31791e-12
0.0168001
5.77266e-09
-1.15818e-11
0.0168001
2.14955e-08
-1.35754e-11
0.0168
5.48995e-08
-2.12741e-11
0.0168
1.52176e-07
-2.16068e-11
0.0168
3.47345e-07
-2.84094e-11
0.0167998
9.18469e-07
-2.85824e-11
0.0167993
2.02772e-06
-3.69355e-11
0.0167989
5.61439e-06
-4.02165e-11
0.0167956
1.14629e-05
-7.13392e-11
0.0167955
3.92183e-05
-5.89207e-11
0.016789
7.99515e-05
-2.36677e-10
0.0167874
0.000345383
-2.36437e-10
0.0167903
0.000929257
-1.0179e-09
0.0170337
0.00492472
-2.55052e-09
0.0156061
0.00914042
3.07834e-10
0.0141847
0.00867009
-1.323e-10
0.0128947
0.00870946
-3.1673e-10
0.0116232
0.00911185
-3.01169e-10
0.0102715
0.00989003
-2.66138e-10
0.00874727
0.0108501
-2.54082e-10
0.00702006
0.0118915
-2.73205e-10
0.00504852
0.0130378
-2.87602e-10
0.00274428
0.0142891
-2.94728e-10
0.0154062
-2.943e-10
0.0168001
1.08203e-09
-3.27529e-12
0.0168001
6.02155e-09
-1.15933e-11
0.0168001
2.2455e-08
-1.35553e-11
0.0168001
5.78772e-08
-2.12628e-11
0.0168
1.59022e-07
-2.15438e-11
0.0168
3.64947e-07
-2.83144e-11
0.0168
9.49465e-07
-2.82652e-11
0.0167999
2.12365e-06
-3.62912e-11
0.0167998
5.58302e-06
-3.98612e-11
0.0167989
1.2283e-05
-5.85177e-11
0.016802
3.55567e-05
-7.50098e-11
0.0168033
7.839e-05
-1.86536e-10
0.0168619
0.000284291
-2.78514e-10
0.0170291
0.000758447
-9.2489e-10
0.0183555
0.00357742
-2.49024e-09
0.0169015
0.0105989
2.64192e-11
0.0150882
0.0104857
-1.49628e-10
0.0137094
0.0100873
-2.53779e-10
0.0124064
0.0104135
-2.601e-10
0.0110362
0.0112599
-2.57643e-10
0.0095295
0.0123551
-2.48731e-10
0.00780815
0.0136105
-2.62789e-10
0.00580068
0.0150451
-2.72894e-10
0.0033106
0.0167791
-2.75965e-10
0.018716
-2.70773e-10
0.0168001
1.43392e-09
-3.2443e-12
0.0168001
6.42284e-09
-1.1594e-11
0.0168001
2.57758e-08
-1.35638e-11
0.0168
6.29467e-08
-2.12529e-11
0.0168
1.80451e-07
-2.152e-11
0.0168
3.99142e-07
-2.824e-11
0.0167999
1.06579e-06
-2.80072e-11
0.0167996
2.37537e-06
-3.56685e-11
0.0167993
5.845e-06
-3.80111e-11
0.0167974
1.40422e-05
-5.46925e-11
0.0167983
3.42414e-05
-6.13428e-11
0.0167971
7.93389e-05
-1.66579e-10
0.0168121
0.000267304
-1.68661e-10
0.0168655
0.000704085
-6.24131e-10
0.0173907
0.00303957
-1.24961e-09
0.0168763
0.0111066
-1.05776e-09
0.0154428
0.01192
-4.09797e-10
0.0143682
0.0111619
-2.5502e-10
0.013158
0.0116225
-2.50153e-10
0.0119132
0.012503
-2.48152e-10
0.0104801
0.0137868
-2.45557e-10
0.00888374
0.0152045
-2.50275e-10
0.00697725
0.0169497
-2.53065e-10
0.004359
0.0193963
-2.5548e-10
0.0230747
-2.43187e-10
0.0168001
-3.27788e-12
2.25284e-09
0.0168001
-1.1602e-11
1.80961e-09
0.0168001
-1.37686e-11
3.02341e-08
0.0168001
-2.16077e-11
2.66451e-08
0.0168001
-2.20523e-11
2.00484e-07
0.0168003
-2.94989e-11
1.74765e-07
0.0168001
-3.01415e-11
1.20865e-06
0.0168016
-4.419e-11
9.2433e-07
0.0167995
-3.6776e-11
7.86526e-06
0.0168098
-1.19047e-10
3.61532e-06
0.0167853
1.24376e-11
5.82618e-05
0.016848
-2.03843e-10
1.48725e-05
0.0167042
7.55447e-11
0.000408513
0.0169861
-6.20976e-10
0.00042345
0.0170931
-8.3733e-10
0.00292327
0.0165987
-1.6871e-09
0.0115865
0.0160341
-3.66021e-10
0.0124818
0.0148986
-2.59524e-10
0.0122968
0.0138257
-2.27133e-10
0.0126949
0.012789
-2.35399e-10
0.0135378
0.0116273
-2.36042e-10
0.0149467
0.0103013
-2.35897e-10
0.0165289
0.00856199
-2.34924e-10
0.0186876
0.00604719
-2.3317e-10
0.0219106
-2.10966e-10
0.0291219
0.0168001
2.08893e-10
-5.12303e-16
0.0168001
1.13421e-09
-2.73388e-15
0.0168001
4.22146e-09
-5.94346e-15
0.0168
1.0831e-08
-1.25899e-14
0.0168
2.9835e-08
-2.27471e-14
0.0167999
6.86084e-08
-4.29488e-14
0.0167997
1.77016e-07
-8.68213e-14
0.0167993
4.05068e-07
-1.69453e-13
0.0167982
1.01809e-06
-3.9045e-13
0.016796
2.32267e-06
-8.03252e-13
0.0167888
6.52658e-06
-2.19363e-12
0.0167726
1.6279e-05
-5.2353e-12
0.016718
5.2747e-05
-1.29001e-11
0.0165469
0.000168261
-4.4192e-11
0.0155298
0.00100564
-1.15215e-10
0.0143325
0.00119867
1.46407e-11
0.0131257
0.00120596
-5.1138e-12
0.0118525
0.00127129
-1.51807e-11
0.010504
0.00134634
-1.51402e-11
0.00906836
0.00143333
-1.54859e-11
0.00751627
0.00154874
-1.9107e-11
0.00583487
0.00167726
-2.30359e-11
0.00403226
0.001799
-2.64823e-11
0.00209909
0.00193031
-2.98383e-11
0.0020957
-3.41542e-11
0.0168001
4.1625e-10
-5.12369e-16
0.0168001
2.25537e-09
-2.73259e-15
0.0168001
8.39905e-09
-5.94429e-15
0.0168
2.15067e-08
-1.25938e-14
0.0168
5.94603e-08
-2.27757e-14
0.0167999
1.366e-07
-4.30116e-14
0.0167997
3.54805e-07
-8.71449e-14
0.0167993
8.09474e-07
-1.70115e-13
0.0167982
2.06273e-06
-3.93461e-13
0.0167959
4.66839e-06
-8.08099e-13
0.0167884
1.33586e-05
-2.22446e-12
0.0167717
3.30196e-05
-5.28463e-12
0.0167132
0.000109441
-1.31875e-11
0.0165332
0.000345253
-4.49634e-11
0.0154962
0.00203085
-1.17805e-10
0.0142684
0.00242784
1.5038e-11
0.0130715
0.00240207
-5.06886e-12
0.0118144
0.00252638
-1.4738e-11
0.0104747
0.00268405
-1.45082e-11
0.00902458
0.00288116
-1.46881e-11
0.00745096
0.00311909
-1.84875e-11
0.00575117
0.00337283
-2.24786e-11
0.00393068
0.00361586
-2.60317e-11
0.00199814
0.00385997
-2.9356e-11
0.00409041
-3.36217e-11
0.0168001
6.00229e-10
-5.11713e-16
0.0168001
3.23301e-09
-2.72544e-15
0.0168001
1.20561e-08
-5.93665e-15
0.0168
3.07681e-08
-1.25807e-14
0.0168
8.55402e-08
-2.28165e-14
0.0168
1.96238e-07
-4.31507e-14
0.0167998
5.13718e-07
-8.78664e-14
0.0167994
1.17235e-06
-1.72949e-13
0.0167984
3.01135e-06
-3.99135e-13
0.0167962
6.85499e-06
-8.29857e-13
0.016789
1.98898e-05
-2.30136e-12
0.0167731
4.89921e-05
-5.46226e-12
0.0167121
0.000168513
-1.37785e-11
0.016528
0.000526118
-4.66691e-11
0.0155012
0.00304493
-1.23751e-10
0.0142413
0.00368933
1.68263e-11
0.013045
0.00359747
-3.79746e-12
0.0118043
0.00376511
-1.41058e-11
0.0104808
0.00400565
-1.36592e-11
0.00903388
0.00432589
-1.34696e-11
0.00745864
0.00469101
-1.75848e-11
0.00575704
0.00507055
-2.15662e-11
0.00392254
0.00544709
-2.51769e-11
0.0019872
0.00579258
-2.82636e-11
0.00607433
-3.17687e-11
0.0168001
6.86294e-10
-4.95084e-16
0.0168001
3.73453e-09
-2.65072e-15
0.0168001
1.38951e-08
-5.68773e-15
0.0168
3.55491e-08
-1.20461e-14
0.0168
9.84738e-08
-2.12594e-14
0.0168
2.2393e-07
-3.9519e-14
0.0167999
6.01019e-07
-8.11018e-14
0.0167998
1.28944e-06
-1.42255e-13
0.0167989
3.77308e-06
-4.09364e-13
0.0167981
7.69975e-06
-6.58913e-13
0.0167917
2.56864e-05
-2.4571e-12
0.0167828
5.78198e-05
-4.61342e-12
0.0167002
0.00024914
-1.89901e-11
0.0165277
0.000695985
-4.88045e-11
0.0155375
0.00402067
-1.38266e-10
0.0142436
0.00498564
2.07679e-11
0.0130654
0.0047755
-1.23163e-12
0.0118519
0.00497718
-1.28703e-11
0.0105559
0.00530006
-1.26326e-11
0.00913461
0.00574603
-1.20268e-11
0.00756722
0.00625571
-1.58084e-11
0.00586488
0.00676858
-1.969e-11
0.00402543
0.00728331
-2.34271e-11
0.00204146
0.00777421
-2.61254e-11
0.00811289
-2.8657e-11
0.0168001
7.56094e-10
-4.91696e-16
0.0168001
4.15233e-09
-2.63416e-15
0.0168001
1.54242e-08
-5.65582e-15
0.0168001
3.94358e-08
-1.19613e-14
0.0168
1.09183e-07
-2.12478e-14
0.0168
2.46413e-07
-3.95637e-14
0.0167999
6.75163e-07
-8.23546e-14
0.0167998
1.36341e-06
-1.46972e-13
0.016799
4.51008e-06
-4.24182e-13
0.0167988
7.90904e-06
-7.02702e-13
0.0167909
3.28902e-05
-2.63975e-12
0.0167813
6.72913e-05
-4.94647e-12
0.0167207
0.000307584
-2.0503e-11
0.0165678
0.000845783
-5.2483e-11
0.0157771
0.00479491
-1.53237e-10
0.0144387
0.00632723
2.67503e-11
0.0132361
0.00597823
1.83892e-12
0.0120239
0.00618791
-1.20624e-11
0.0107432
0.00657811
-1.19698e-11
0.00933802
0.00715
-1.1181e-11
0.00779896
0.0077922
-1.36689e-11
0.00609742
0.00846707
-1.72542e-11
0.00421699
0.00915924
-2.09408e-11
0.00217654
0.00981231
-2.32266e-11
0.0102868
-2.49807e-11
0.0168001
8.77572e-10
-4.7135e-16
0.0168001
4.83106e-09
-2.57069e-15
0.0168001
1.79149e-08
-5.42486e-15
0.0168
4.58391e-08
-1.11768e-14
0.0168
1.26561e-07
-1.98223e-14
0.0168
2.86723e-07
-3.52201e-14
0.0167999
7.76502e-07
-7.50637e-14
0.0167996
1.58146e-06
-1.0459e-13
0.0167988
5.25255e-06
-4.6406e-13
0.0167985
8.28838e-06
-3.17023e-13
0.0167909
3.97047e-05
-3.75404e-12
0.0167845
7.37884e-05
-4.11438e-12
0.0167435
0.000346191
-2.31561e-11
0.0166509
0.000935265
-5.533e-11
0.0162382
0.0051889
-1.68217e-10
0.0148614
0.00770837
3.16826e-11
0.0135939
0.00724701
6.11346e-12
0.0123615
0.00741964
-1.08836e-11
0.0110981
0.00784055
-1.12424e-11
0.00970644
0.00853984
-1.10312e-11
0.00816829
0.00932811
-1.18144e-11
0.00646572
0.0101665
-1.50303e-11
0.00455432
0.0110687
-1.84546e-11
0.0023784
0.0119874
-2.02833e-11
0.0126635
-2.11988e-11
0.0168001
1.07186e-09
-4.92792e-16
0.0168001
5.78369e-09
-2.64745e-15
0.0168001
2.15236e-08
-5.75431e-15
0.0168
5.49343e-08
-1.19497e-14
0.0168
1.52262e-07
-2.22303e-14
0.0168
3.4752e-07
-4.12295e-14
0.0167998
9.18909e-07
-8.72473e-14
0.0167993
2.02885e-06
-1.64636e-13
0.0167989
5.61625e-06
-4.52816e-13
0.0167957
1.14727e-05
-7.14306e-13
0.0167955
3.92211e-05
-3.11055e-12
0.0167891
7.99831e-05
-4.85197e-12
0.0167874
0.000345395
-2.23185e-11
0.0167902
0.000929366
-5.5379e-11
0.0170334
0.00492539
-1.74301e-10
0.0156059
0.00914019
3.16399e-11
0.0141847
0.00866986
9.37888e-12
0.0128946
0.00870934
-8.8579e-12
0.0116231
0.00911174
-9.97952e-12
0.0102714
0.00988992
-1.11731e-11
0.00874717
0.0108499
-1.07341e-11
0.00701996
0.0118914
-1.28728e-11
0.00504844
0.0130378
-1.53648e-11
0.00274423
0.0142891
-1.688e-11
0.0154062
-1.71809e-11
0.0168001
1.09547e-09
-4.89024e-16
0.0168001
6.02772e-09
-2.62831e-15
0.0168001
2.24498e-08
-5.6977e-15
0.0168001
5.78512e-08
-1.18256e-14
0.0168
1.58956e-07
-2.18053e-14
0.0168
3.64826e-07
-4.02745e-14
0.0168
9.49271e-07
-8.39944e-14
0.0167999
2.12319e-06
-1.57431e-13
0.0167998
5.58267e-06
-4.18031e-13
0.0167989
1.22816e-05
-7.4445e-13
0.016802
3.55588e-05
-2.87155e-12
0.0168033
7.83995e-05
-4.07585e-12
0.0168619
0.000284361
-2.16168e-11
0.017029
0.00075868
-5.18237e-11
0.0183547
0.00357873
-1.74839e-10
0.0169009
0.0105985
1.62826e-11
0.015088
0.0104851
6.95464e-12
0.0137093
0.0100871
-7.05551e-12
0.0124063
0.0104134
-9.3801e-12
0.0110361
0.0112597
-1.22363e-11
0.00952941
0.012355
-1.12553e-11
0.00780807
0.0136104
-1.23716e-11
0.0058006
0.0150451
-1.41129e-11
0.00331055
0.0167791
-1.50163e-11
0.0187159
-1.45553e-11
0.0168001
1.40315e-09
-4.78569e-16
0.0168001
6.52724e-09
-2.58468e-15
0.0168001
2.56987e-08
-5.52972e-15
0.0168
6.27553e-08
-1.14569e-14
0.0168
1.80092e-07
-2.04855e-14
0.0168
3.98522e-07
-3.74967e-14
0.0167999
1.06452e-06
-7.41868e-14
0.0167996
2.37228e-06
-1.38523e-13
0.0167993
5.84374e-06
-3.37147e-13
0.0167975
1.40245e-05
-6.42375e-13
0.0167983
3.42525e-05
-1.9144e-12
0.0167972
7.93186e-05
-3.74817e-12
0.0168121
0.000267365
-1.27981e-11
0.0168657
0.000704183
-3.09807e-11
0.0173915
0.00304022
-8.44196e-11
0.0168768
0.0111067
-6.35797e-11
0.0154429
0.0119199
-1.65806e-11
0.0143683
0.0111617
-1.04904e-11
0.013158
0.0116224
-1.15985e-11
0.0119132
0.0125029
-1.36013e-11
0.0104801
0.0137867
-1.27822e-11
0.0088837
0.0152045
-1.27719e-11
0.00697721
0.0169496
-1.31044e-11
0.00435898
0.0193963
-1.38172e-11
0.0230747
-1.22659e-11
0.0168001
-5.28702e-16
2.11953e-09
0.0168001
-2.77117e-15
2.17724e-09
0.0168001
-6.19931e-15
2.90851e-08
0.0168001
-1.30891e-14
2.71253e-08
0.0168001
-2.47252e-14
1.99369e-07
0.0168003
-4.79826e-14
1.75534e-07
0.0168001
-9.58603e-14
1.20829e-06
0.0168016
-2.36876e-13
9.26814e-07
0.0167995
-3.15675e-13
7.86487e-06
0.0168097
-1.41263e-12
3.62919e-06
0.0167853
-9.64074e-13
5.82431e-05
0.0168472
-6.06808e-12
1.76088e-05
0.0167044
-7.36392e-12
0.000408452
0.0169861
-2.76952e-11
0.000423581
0.0170937
-6.77564e-11
0.00292339
0.0165992
-1.11482e-10
0.0115866
0.0160345
-1.56574e-11
0.0124818
0.0148988
-1.07283e-11
0.0122968
0.0138258
-1.23665e-11
0.0126948
0.0127891
-1.39881e-11
0.0135377
0.0116274
-1.39741e-11
0.0149466
0.0103013
-1.3841e-11
0.0165288
0.00856198
-1.38465e-11
0.0186876
0.00604719
-1.43634e-11
0.0219105
-1.25774e-11
0.0291219
0.0168001
2.08893e-10
1.97879e-16
0.0168001
1.13421e-09
1.9762e-16
0.0168001
4.22146e-09
7.99828e-17
0.0168
1.0831e-08
1.72892e-16
0.0168
2.98349e-08
4.88586e-16
0.0167999
6.86084e-08
1.00702e-15
0.0167997
1.77016e-07
2.74616e-15
0.0167993
4.05067e-07
5.81339e-15
0.0167982
1.01809e-06
1.50485e-14
0.016796
2.32266e-06
3.22415e-14
0.0167888
6.52656e-06
9.20459e-14
0.0167726
1.62789e-05
2.22602e-13
0.016718
5.27467e-05
5.52647e-13
0.0165469
0.000168261
1.90059e-12
0.0155298
0.00100563
4.95804e-12
0.0143325
0.00119866
-1.0071e-12
0.0131258
0.00120596
-2.75734e-13
0.0118525
0.00127129
1.08962e-13
0.0105041
0.00134634
6.97476e-14
0.00906837
0.00143333
1.80123e-14
0.00751628
0.00154874
1.6268e-13
0.00583488
0.00167726
3.66906e-13
0.00403228
0.001799
5.06694e-13
0.0020991
0.00193031
6.58274e-13
0.00209571
7.90883e-13
0.0168001
4.1625e-10
1.97986e-16
0.0168001
2.25537e-09
1.97783e-16
0.0168001
8.39906e-09
8.04097e-17
0.0168
2.15067e-08
1.73755e-16
0.0168
5.94604e-08
4.91822e-16
0.0167999
1.36601e-07
1.01355e-15
0.0167997
3.54806e-07
2.77078e-15
0.0167993
8.09474e-07
5.86501e-15
0.0167982
2.06273e-06
1.52425e-14
0.0167959
4.66838e-06
3.25891e-14
0.0167884
1.33585e-05
9.3801e-14
0.0167717
3.30195e-05
2.25774e-13
0.0167132
0.000109441
5.67685e-13
0.0165332
0.000345252
1.94271e-12
0.0154962
0.00203084
5.0919e-12
0.0142684
0.00242783
-1.02482e-12
0.0130715
0.00240206
-2.74651e-13
0.0118145
0.00252638
8.80073e-14
0.0104747
0.00268405
3.99677e-14
0.00902459
0.00288116
-1.92018e-14
0.00745098
0.00311909
1.31403e-13
0.00575119
0.00337283
3.40476e-13
0.00393069
0.00361586
4.83801e-13
0.00199815
0.00385998
6.44424e-13
0.00409043
7.85084e-13
0.0168001
6.00237e-10
1.97909e-16
0.0168001
3.23305e-09
1.98553e-16
0.0168001
1.20562e-08
8.08019e-17
0.0168
3.07684e-08
1.74537e-16
0.0168
8.55412e-08
4.97663e-16
0.0168
1.9624e-07
1.02757e-15
0.0167998
5.13723e-07
2.82468e-15
0.0167994
1.17236e-06
6.04083e-15
0.0167984
3.01135e-06
1.56199e-14
0.0167962
6.85507e-06
3.3854e-14
0.016789
1.98898e-05
9.80466e-14
0.0167731
4.89924e-05
2.35793e-13
0.0167121
0.00016851
5.98746e-13
0.016528
0.000526116
2.03527e-12
0.0155012
0.00304491
5.39702e-12
0.0142413
0.00368931
-1.10618e-12
0.013045
0.00359746
-2.92411e-13
0.0118043
0.00376511
5.98048e-14
0.0104808
0.00400565
2.97623e-15
0.0090339
0.00432589
-6.97809e-14
0.00745866
0.00469101
8.55704e-14
0.00575706
0.00507055
2.98661e-13
0.00392255
0.0054471
4.38503e-13
0.00198721
0.00579259
5.92024e-13
0.00607436
7.34426e-13
0.0168001
6.86296e-10
1.93572e-16
0.0168001
3.73454e-09
2.0485e-16
0.0168001
1.38952e-08
7.03325e-17
0.0168
3.55492e-08
1.51574e-16
0.0168
9.84742e-08
4.31048e-16
0.0168
2.23931e-07
8.69492e-16
0.0167999
6.0102e-07
2.54193e-15
0.0167998
1.28944e-06
4.68261e-15
0.0167989
3.77309e-06
1.62808e-14
0.0167981
7.69975e-06
2.63608e-14
0.0167917
2.56864e-05
1.06261e-13
0.0167828
5.78196e-05
2.00213e-13
0.0167002
0.000249139
8.41189e-13
0.0165277
0.000695982
2.15671e-12
0.0155375
0.00402066
6.11911e-12
0.0142436
0.00498562
-1.28326e-12
0.0130654
0.00477549
-5.21478e-13
0.0118519
0.00497717
6.60982e-15
0.0105559
0.00530006
-3.75244e-14
0.00913463
0.00574603
-1.20421e-13
0.00756723
0.00625572
2.34737e-15
0.00586489
0.00676858
2.06308e-13
0.00402544
0.00728332
3.52324e-13
0.00204147
0.00777423
4.86836e-13
0.00811292
6.13509e-13
0.0168001
7.56104e-10
1.9289e-16
0.0168001
4.15237e-09
2.06335e-16
0.0168001
1.54244e-08
7.00301e-17
0.0168001
3.94363e-08
1.50741e-16
0.0168
1.09184e-07
4.37891e-16
0.0168
2.46415e-07
8.87234e-16
0.0167999
6.75168e-07
2.64317e-15
0.0167998
1.36343e-06
4.98196e-15
0.016799
4.51007e-06
1.72154e-14
0.0167988
7.90923e-06
2.88062e-14
0.0167909
3.28898e-05
1.16162e-13
0.0167813
6.72916e-05
2.18293e-13
0.0167207
0.000307583
9.2183e-13
0.0165678
0.000845782
2.3531e-12
0.0157771
0.0047949
6.87991e-12
0.0144387
0.0063272
-1.55265e-12
0.0132361
0.00597822
-5.70973e-13
0.0120239
0.00618791
-2.51192e-14
0.0107432
0.00657811
-5.72254e-14
0.00933803
0.00715
-1.44252e-13
0.00779897
0.0077922
-8.24993e-14
0.00609742
0.00846707
9.47994e-14
0.004217
0.00915925
2.3703e-13
0.00217655
0.00981233
3.42688e-13
0.0102869
4.47232e-13
0.0168001
8.77564e-10
1.87515e-16
0.0168001
4.83103e-09
2.10801e-16
0.0168001
1.79147e-08
5.91085e-17
0.0168
4.58387e-08
1.25051e-16
0.0168
1.2656e-07
3.66967e-16
0.0168
2.8672e-07
7.11161e-16
0.0167999
7.76496e-07
2.34244e-15
0.0167996
1.58143e-06
3.09796e-15
0.0167988
5.25255e-06
1.93249e-14
0.0167985
8.28823e-06
1.12055e-14
0.0167909
3.97049e-05
1.58968e-13
0.0167845
7.37881e-05
1.81999e-13
0.0167435
0.000346192
1.05942e-12
0.0166509
0.000935267
2.51881e-12
0.0162382
0.00518891
7.66901e-12
0.0148614
0.00770834
-1.77051e-12
0.0135939
0.007247
-7.76439e-13
0.0123615
0.00741963
-6.72758e-14
0.0110981
0.00784054
-7.18652e-14
0.00970643
0.00853983
-1.3572e-13
0.00816829
0.00932811
-1.48373e-13
0.00646572
0.0101665
-1.32175e-14
0.00455432
0.0110687
1.23322e-13
0.0023784
0.0119874
2.02707e-13
0.0126635
2.67222e-13
0.0168001
1.07187e-09
1.9377e-16
0.0168001
5.7837e-09
2.06445e-16
0.0168001
2.15236e-08
7.71698e-17
0.0168
5.49344e-08
1.67098e-16
0.0168
1.52262e-07
4.94324e-16
0.0168
3.47521e-07
1.02045e-15
0.0167998
9.18911e-07
2.98812e-15
0.0167993
2.02885e-06
6.01297e-15
0.0167989
5.61627e-06
1.92343e-14
0.0167957
1.14727e-05
3.01404e-14
0.0167955
3.92212e-05
1.42533e-13
0.0167891
7.99837e-05
2.19176e-13
0.0167874
0.000345397
1.0348e-12
0.0167902
0.000929373
2.55633e-12
0.0170334
0.00492544
8.061e-12
0.0156059
0.00914016
-1.75804e-12
0.0141846
0.00866984
-9.30585e-13
0.0128946
0.00870932
-1.44627e-13
0.0116231
0.00911173
-1.03836e-13
0.0102713
0.00988991
-1.00482e-13
0.00874715
0.0108499
-1.73836e-13
0.00701996
0.0118914
-1.0966e-13
0.00504844
0.0130378
-3.03432e-14
0.00274423
0.0142891
3.0692e-14
0.0154063
5.46077e-14
0.0168001
1.09547e-09
1.92879e-16
0.0168001
6.02773e-09
2.08506e-16
0.0168001
2.24498e-08
7.60534e-17
0.0168001
5.78513e-08
1.64582e-16
0.0168
1.58957e-07
4.8264e-16
0.0168
3.64826e-07
9.91386e-16
0.0168
9.49273e-07
2.8784e-15
0.0167999
2.12319e-06
5.74913e-15
0.0167998
5.5827e-06
1.78249e-14
0.0167989
1.22816e-05
3.21552e-14
0.016802
3.55592e-05
1.32981e-13
0.0168033
7.83999e-05
1.83696e-13
0.0168619
0.000284366
1.01793e-12
0.017029
0.000758696
2.42322e-12
0.0183547
0.00357883
8.20569e-12
0.0169009
0.0105984
-8.52563e-13
0.015088
0.0104851
-7.93108e-13
0.0137093
0.0100871
-1.95668e-13
0.0124063
0.0104134
-9.12728e-14
0.0110361
0.0112597
-6.57578e-15
0.00952939
0.012355
-1.29621e-13
0.00780805
0.0136104
-1.01093e-13
0.00580059
0.0150451
-6.03055e-14
0.00331055
0.0167791
-4.11282e-14
0.018716
-7.75672e-14
0.0168001
1.40313e-09
1.90319e-16
0.0168001
6.5272e-09
2.11725e-16
0.0168001
2.56984e-08
6.93559e-17
0.0168
6.27548e-08
1.4991e-16
0.0168
1.8009e-07
4.27727e-16
0.0168
3.98519e-07
8.75215e-16
0.0167999
1.06451e-06
2.45547e-15
0.0167996
2.37226e-06
4.93863e-15
0.0167993
5.84375e-06
1.42075e-14
0.0167975
1.40243e-05
2.78566e-14
0.0167983
3.42529e-05
8.82024e-14
0.0167972
7.93183e-05
1.73438e-13
0.0168121
0.000267368
6.03947e-13
0.0168657
0.00070419
1.46121e-12
0.0173916
0.00304027
3.9897e-12
0.0168768
0.0111067
2.86849e-12
0.0154428
0.0119199
3.99079e-13
0.0143683
0.0111617
3.58677e-14
0.013158
0.0116224
6.94837e-14
0.0119132
0.0125028
1.11073e-13
0.0104801
0.0137867
-2.99731e-14
0.00888368
0.0152045
-5.69314e-14
0.0069772
0.0169496
-8.18758e-14
0.00435897
0.0193963
-1.09121e-13
0.0230747
-1.91682e-13
0.0168001
2.03971e-16
2.11953e-09
0.0168001
1.966e-16
2.17735e-09
0.0168001
1.03918e-16
2.90853e-08
0.0168001
2.23708e-16
2.7126e-08
0.0168001
6.62141e-16
1.99372e-07
0.0168003
1.42039e-15
1.75539e-07
0.0168001
3.60795e-15
1.2083e-06
0.0168016
1.02292e-14
9.26844e-07
0.0167995
1.30318e-14
7.86493e-06
0.0168097
6.87292e-14
3.62936e-06
0.0167853
3.09465e-14
5.82432e-05
0.0168472
2.95246e-13
1.76097e-05
0.0167044
3.52269e-13
0.000408454
0.0169861
1.32093e-12
0.000423586
0.0170937
3.23251e-12
0.00292341
0.0165992
5.28542e-12
0.0115867
0.0160345
4.06908e-13
0.0124818
0.0148988
1.26299e-13
0.0122968
0.0138258
1.37367e-13
0.0126948
0.0127891
1.83181e-13
0.0135377
0.0116274
7.92905e-14
0.0149466
0.0103013
5.24215e-14
0.0165288
0.00856197
1.32707e-15
0.0186876
0.00604718
-5.75383e-14
0.0219105
-1.66882e-13
0.0291219
0.0168001
2.08893e-10
-1.06297e-16
0.0168001
1.13421e-09
-3.58254e-16
0.0168001
4.22146e-09
-9.3298e-16
0.0168
1.0831e-08
-1.79715e-15
0.0168
2.98349e-08
-4.52569e-15
0.0167999
6.86084e-08
-8.96552e-15
0.0167997
1.77016e-07
-2.34646e-14
0.0167993
4.05067e-07
-4.92599e-14
0.0167982
1.01809e-06
-1.24705e-13
0.016796
2.32266e-06
-2.67958e-13
0.0167888
6.52656e-06
-7.53371e-13
0.0167726
1.62789e-05
-1.8112e-12
0.016718
5.27468e-05
-4.4905e-12
0.0165469
0.000168261
-1.53126e-11
0.0155298
0.00100563
-4.04419e-11
0.0143325
0.00119866
7.30344e-12
0.0131258
0.00120596
2.28078e-13
0.0118525
0.00127129
-3.79103e-12
0.0105041
0.00134634
-3.76691e-12
0.00906837
0.00143333
-4.06145e-12
0.00751628
0.00154874
-6.33523e-12
0.00583488
0.00167726
-8.66068e-12
0.00403228
0.001799
-1.0525e-11
0.0020991
0.00193031
-1.23738e-11
0.00209571
-1.4357e-11
0.0168001
4.1625e-10
-1.06774e-16
0.0168001
2.25537e-09
-3.59751e-16
0.0168001
8.39906e-09
-9.37593e-16
0.0168
2.15067e-08
-1.80621e-15
0.0168
5.94604e-08
-4.55702e-15
0.0167999
1.36601e-07
-9.02913e-15
0.0167997
3.54806e-07
-2.36894e-14
0.0167993
8.09474e-07
-4.97428e-14
0.0167982
2.06273e-06
-1.26371e-13
0.0167959
4.66838e-06
-2.71086e-13
0.0167884
1.33585e-05
-7.68194e-13
0.0167717
3.30195e-05
-1.83841e-12
0.0167132
0.000109441
-4.61664e-12
0.0165332
0.000345252
-1.56638e-11
0.0154962
0.00203084
-4.15511e-11
0.0142684
0.00242783
7.44357e-12
0.0130715
0.00240206
1.96155e-13
0.0118145
0.00252638
-3.59324e-12
0.0104747
0.00268405
-3.47582e-12
0.00902459
0.00288116
-3.68521e-12
0.00745098
0.00311909
-6.02551e-12
0.00575119
0.00337283
-8.38585e-12
0.00393069
0.00361586
-1.02951e-11
0.00199815
0.00385998
-1.21913e-11
0.00409043
-1.42142e-11
0.0168001
6.00237e-10
-1.07146e-16
0.0168001
3.23305e-09
-3.60403e-16
0.0168001
1.20562e-08
-9.42843e-16
0.0168
3.07684e-08
-1.81649e-15
0.0168
8.55411e-08
-4.61559e-15
0.0168
1.9624e-07
-9.16714e-15
0.0167998
5.13723e-07
-2.4185e-14
0.0167994
1.17236e-06
-5.13342e-14
0.0167984
3.01135e-06
-1.29657e-13
0.0167962
6.85507e-06
-2.82209e-13
0.016789
1.98898e-05
-8.0424e-13
0.0167731
4.89924e-05
-1.9241e-12
0.0167121
0.00016851
-4.87863e-12
0.016528
0.000526116
-1.64437e-11
0.0155012
0.00304492
-4.41192e-11
0.0142413
0.00368932
8.13721e-12
0.013045
0.00359746
2.68578e-13
0.0118043
0.00376511
-3.34124e-12
0.0104808
0.00400565
-3.12334e-12
0.0090339
0.00432589
-3.16628e-12
0.00745866
0.00469101
-5.61157e-12
0.00575706
0.00507055
-7.97958e-12
0.00392255
0.0054471
-9.87117e-12
0.00198721
0.00579259
-1.16606e-11
0.00607436
-1.34921e-11
0.0168001
6.86296e-10
-9.60417e-17
0.0168001
3.73454e-09
-3.26989e-16
0.0168001
1.38952e-08
-8.46698e-16
0.0168
3.55492e-08
-1.62048e-15
0.0168
9.84742e-08
-4.07118e-15
0.0168
2.23931e-07
-7.88798e-15
0.0167999
6.0102e-07
-2.19315e-14
0.0167998
1.28944e-06
-4.03859e-14
0.0167989
3.77309e-06
-1.35483e-13
0.0167981
7.69975e-06
-2.22018e-13
0.0167917
2.56864e-05
-8.76032e-13
0.0167828
5.78196e-05
-1.64178e-12
0.0167002
0.000249139
-6.93443e-12
0.0165277
0.000695983
-1.75108e-11
0.0155375
0.00402066
-5.03627e-11
0.0142436
0.00498562
9.67436e-12
0.0130654
0.0047755
1.26726e-12
0.0118519
0.00497717
-2.86955e-12
0.0105559
0.00530006
-2.74779e-12
0.00913463
0.00574603
-2.61769e-12
0.00756723
0.00625572
-4.81957e-12
0.00586489
0.00676858
-7.09036e-12
0.00402544
0.00728332
-9.02324e-12
0.00204147
0.00777423
-1.05809e-11
0.00811292
-1.206e-11
0.0168001
7.56103e-10
-9.52023e-17
0.0168001
4.15237e-09
-3.22889e-16
0.0168001
1.54244e-08
-8.45145e-16
0.0168001
3.94363e-08
-1.61642e-15
0.0168
1.09184e-07
-4.13861e-15
0.0168
2.46415e-07
-8.05357e-15
0.0167999
6.75168e-07
-2.28445e-14
0.0167998
1.36343e-06
-4.2916e-14
0.016799
4.51007e-06
-1.43884e-13
0.0167988
7.90923e-06
-2.42634e-13
0.0167909
3.28899e-05
-9.61888e-13
0.0167813
6.72916e-05
-1.79819e-12
0.0167207
0.000307583
-7.64326e-12
0.0165678
0.000845782
-1.92191e-11
0.0157771
0.0047949
-5.6967e-11
0.0144387
0.00632721
1.2083e-11
0.0132361
0.00597822
2.53758e-12
0.0120239
0.00618791
-2.59135e-12
0.0107432
0.00657811
-2.54396e-12
0.00933803
0.00715
-2.3264e-12
0.00779897
0.0077922
-3.92651e-12
0.00609742
0.00846707
-5.96974e-12
0.004217
0.00915925
-7.83842e-12
0.00217655
0.00981233