/*--------------------------------*- C++ -*----------------------------------*\
| =========                 |                                                 |
| \\      /  F ield         | OpenFOAM: The Open Source CFD Toolbox           |
|  \\    /   O peration     | Version:  4.1                                   |
|   \\  /    A nd           | Web:      www.OpenFOAM.org                      |
|    \\/     M anipulation  |                                                 |
\*---------------------------------------------------------------------------*/
FoamFile
{
    version     2.0;
    format      ascii;
    class       volScalarField;
    location    "5.88";
    object      T;
}
// * * * * * * * * * * * * * * * * * * * * * * * * * * * * * * * * * * * * * //

dimensions      [0 0 0 1 0 0 0];

internalField   nonuniform List<scalar> 
52500
(
0.999996
1.00002
1.00004
1.00016
1.0003
1.00098
1.00181
1.00542
1.01119
1.02933
1.07811
1.17506
1.53233
2.34195
2.65937
2.73041
2.72501
2.72233
2.73692
2.74895
2.76285
2.7721
2.78013
2.78557
2.78814
0.999996
1.00002
1.00004
1.00016
1.0003
1.00097
1.00179
1.00534
1.01106
1.02889
1.0772
1.1725
1.52779
2.33215
2.65627
2.73039
2.7248
2.722
2.73645
2.74836
2.76203
2.77084
2.77886
2.78338
2.78511
0.999996
1.00002
1.00004
1.00016
1.00029
1.00094
1.00174
1.00517
1.01078
1.02799
1.07525
1.16722
1.51744
2.30991
2.64813
2.72928
2.72339
2.72026
2.73458
2.7463
2.75978
2.76869
2.7755
2.78072
2.78125
0.999995
1.00002
1.00004
1.00015
1.00028
1.0009
1.00167
1.00491
1.01037
1.02661
1.07229
1.15899
1.5012
2.27486
2.63522
2.7273
2.72095
2.71671
2.73053
2.74243
2.7539
2.76312
2.77132
2.77415
2.77639
0.999995
1.00002
1.00004
1.00014
1.00026
1.00085
1.00158
1.00469
1.00979
1.02534
1.06796
1.15119
1.46765
2.21543
2.61602
2.72314
2.71619
2.71071
2.72409
2.73651
2.74919
2.75534
2.76159
2.76754
2.76614
0.999995
1.00002
1.00003
1.00013
1.00025
1.0008
1.00148
1.00448
1.00905
1.02411
1.06192
1.14136
1.42357
2.13496
2.58888
2.71748
2.71091
2.7015
2.71569
2.7236
2.73821
2.74719
2.75329
2.75444
2.75638
0.999995
1.00001
1.00003
1.00012
1.00023
1.00075
1.00137
1.00427
1.00819
1.02305
1.05414
1.12979
1.37145
2.03259
2.55255
2.70834
2.70201
2.69184
2.7071
2.71555
2.72362
2.73004
2.73756
2.74012
2.73616
0.999995
1.00001
1.00003
1.00011
1.00021
1.00068
1.00123
1.00385
1.00734
1.02099
1.04723
1.11767
1.3194
1.91791
2.50286
2.68949
2.68002
2.67184
2.68788
2.70125
2.7124
2.71445
2.71777
2.71693
2.71309
0.999995
1.00001
1.00002
1.0001
1.00018
1.00061
1.0011
1.00346
1.00656
1.01895
1.04192
1.10576
1.28193
1.81617
2.47798
2.68055
2.6709
2.65613
2.67099
2.67671
2.6891
2.69222
2.69158
2.68546
2.66171
0.999994
1.00001
1.00002
1.00008
1.00016
1.00051
1.00095
1.00284
1.00582
1.01531
1.03885
1.0895
1.25941
1.69346
2.42073
2.65529
2.65402
2.65182
2.65451
2.6616
2.66515
2.66477
2.65646
2.63519
2.58487
1
1.00003
1.00005
1.00017
1.00031
1.00099
1.00182
1.00543
1.0112
1.02935
1.07813
1.1751
1.53237
2.34207
2.65945
2.73048
2.72508
2.7224
2.73699
2.74902
2.76293
2.77218
2.78021
2.78565
2.78823
1
1.00003
1.00005
1.00017
1.00031
1.00098
1.0018
1.00535
1.01107
1.02891
1.07721
1.17254
1.52782
2.33227
2.65634
2.73046
2.72487
2.72207
2.73652
2.74843
2.76211
2.77091
2.77894
2.78346
2.78519
1
1.00003
1.00005
1.00017
1.0003
1.00095
1.00175
1.00518
1.01079
1.02801
1.07527
1.16726
1.51748
2.31003
2.6482
2.72935
2.72346
2.72033
2.73465
2.74637
2.75986
2.76876
2.77558
2.7808
2.78133
1
1.00003
1.00005
1.00016
1.00029
1.00091
1.00168
1.00492
1.01038
1.02662
1.07231
1.15903
1.50124
2.27499
2.63529
2.72736
2.72102
2.71678
2.7306
2.74251
2.75398
2.76319
2.77139
2.77423
2.77646
1
1.00002
1.00005
1.00015
1.00027
1.00086
1.00159
1.0047
1.0098
1.02536
1.06798
1.15123
1.46769
2.21556
2.61609
2.72321
2.71625
2.71078
2.72415
2.73658
2.74927
2.75542
2.76166
2.76762
2.76622
1
1.00002
1.00004
1.00014
1.00026
1.00081
1.00149
1.00449
1.00906
1.02413
1.06192
1.14139
1.42357
2.13506
2.58894
2.71754
2.71098
2.70157
2.71575
2.72367
2.73827
2.74727
2.75336
2.75452
2.75645
1
1.00002
1.00004
1.00013
1.00024
1.00076
1.00137
1.00428
1.0082
1.02307
1.05415
1.12982
1.37147
2.03271
2.55262
2.70841
2.70207
2.6919
2.70717
2.71562
2.72369
2.73011
2.73763
2.74019
2.73623
1
1.00002
1.00004
1.00012
1.00022
1.00068
1.00124
1.00386
1.00735
1.021
1.04724
1.1177
1.31943
1.91803
2.50293
2.68956
2.68009
2.67191
2.68794
2.70131
2.71247
2.71452
2.71784
2.717
2.71316
1
1.00002
1.00003
1.00011
1.00019
1.00061
1.00111
1.00347
1.00657
1.01896
1.04193
1.10579
1.28194
1.81627
2.47801
2.68061
2.67097
2.6562
2.67105
2.67677
2.68917
2.69228
2.69164
2.68552
2.66177
1
1.00001
1.00003
1.00009
1.00017
1.00052
1.00096
1.00285
1.00583
1.01534
1.03885
1.08952
1.25938
1.69356
2.42077
2.65534
2.65406
2.65189
2.65457
2.66166
2.66521
2.66483
2.65652
2.63525
2.58492
1
1.00003
1.00005
1.00017
1.00031
1.00099
1.00182
1.00543
1.0112
1.02935
1.07813
1.1751
1.53237
2.34207
2.65945
2.73048
2.72508
2.7224
2.73699
2.74902
2.76293
2.77218
2.78021
2.78565
2.78823
1
1.00003
1.00005
1.00017
1.00031
1.00098
1.0018
1.00535
1.01107
1.02891
1.07721
1.17254
1.52782
2.33228
2.65634
2.73046
2.72487
2.72207
2.73652
2.74843
2.76211
2.77091
2.77894
2.78346
2.78519
1
1.00003
1.00005
1.00017
1.0003
1.00095
1.00175
1.00518
1.01079
1.02801
1.07527
1.16726
1.51748
2.31003
2.6482
2.72935
2.72346
2.72033
2.73465
2.74637
2.75986
2.76876
2.77558
2.7808
2.78133
1
1.00003
1.00005
1.00016
1.00029
1.00091
1.00168
1.00492
1.01038
1.02662
1.07231
1.15903
1.50124
2.27499
2.63529
2.72736
2.72102
2.71678
2.7306
2.74251
2.75398
2.76319
2.77139
2.77423
2.77646
1
1.00002
1.00005
1.00015
1.00027
1.00086
1.00159
1.0047
1.0098
1.02536
1.06798
1.15123
1.4677
2.21556
2.61609
2.72321
2.71625
2.71078
2.72415
2.73658
2.74927
2.75542
2.76166
2.76762
2.76622
1
1.00002
1.00004
1.00014
1.00026
1.00081
1.00149
1.00449
1.00906
1.02413
1.06192
1.14139
1.42357
2.13507
2.58894
2.71754
2.71098
2.70157
2.71575
2.72367
2.73827
2.74727
2.75336
2.75452
2.75645
1
1.00002
1.00004
1.00013
1.00024
1.00076
1.00137
1.00428
1.0082
1.02307
1.05415
1.12982
1.37148
2.03271
2.55262
2.70841
2.70207
2.6919
2.70717
2.71562
2.72369
2.73011
2.73763
2.74019
2.73623
1
1.00002
1.00004
1.00012
1.00022
1.00068
1.00124
1.00386
1.00735
1.021
1.04724
1.1177
1.31943
1.91804
2.50293
2.68956
2.68009
2.67191
2.68794
2.70131
2.71247
2.71452
2.71784
2.717
2.71316
1
1.00002
1.00003
1.00011
1.00019
1.00061
1.00111
1.00347
1.00657
1.01896
1.04193
1.10579
1.28195
1.81627
2.478
2.68061
2.67097
2.6562
2.67106
2.67677
2.68917
2.69228
2.69164
2.68552
2.66177
1
1.00001
1.00003
1.00009
1.00017
1.00052
1.00096
1.00285
1.00583
1.01534
1.03885
1.08952
1.25938
1.69356
2.42077
2.65534
2.65406
2.65189
2.65457
2.66166
2.66521
2.66483
2.65652
2.63525
2.58492
1
1.00003
1.00005
1.00017
1.00031
1.00099
1.00182
1.00543
1.0112
1.02935
1.07813
1.1751
1.53237
2.34207
2.65945
2.73048
2.72508
2.7224
2.73699
2.74902
2.76293
2.77218
2.78021
2.78565
2.78823
1
1.00003
1.00005
1.00017
1.00031
1.00098
1.0018
1.00535
1.01107
1.02891
1.07721
1.17254
1.52782
2.33228
2.65634
2.73046
2.72487
2.72207
2.73652
2.74843
2.76211
2.77091
2.77894
2.78346
2.78519
1
1.00003
1.00005
1.00017
1.0003
1.00095
1.00175
1.00518
1.01079
1.02801
1.07527
1.16726
1.51748
2.31003
2.6482
2.72935
2.72346
2.72033
2.73465
2.74637
2.75986
2.76876
2.77558
2.7808
2.78133
1
1.00003
1.00005
1.00016
1.00029
1.00091
1.00168
1.00492
1.01038
1.02662
1.07231
1.15903
1.50124
2.27499
2.63529
2.72736
2.72102
2.71678
2.7306
2.74251
2.75398
2.76319
2.77139
2.77423
2.77646
1
1.00002
1.00005
1.00015
1.00027
1.00086
1.00159
1.0047
1.0098
1.02536
1.06798
1.15123
1.4677
2.21556
2.61609
2.72321
2.71625
2.71078
2.72415
2.73658
2.74927
2.75542
2.76166
2.76762
2.76622
1
1.00002
1.00004
1.00014
1.00026
1.00081
1.00149
1.00449
1.00906
1.02413
1.06192
1.14139
1.42357
2.13507
2.58894
2.71754
2.71098
2.70157
2.71575
2.72367
2.73827
2.74727
2.75336
2.75452
2.75645
1
1.00002
1.00004
1.00013
1.00024
1.00076
1.00137
1.00428
1.0082
1.02307
1.05415
1.12982
1.37148
2.03271
2.55262
2.70841
2.70207
2.6919
2.70717
2.71562
2.72369
2.73011
2.73763
2.74019
2.73623
1
1.00002
1.00004
1.00012
1.00022
1.00068
1.00124
1.00386
1.00735
1.021
1.04724
1.1177
1.31943
1.91803
2.50293
2.68956
2.68009
2.67191
2.68794
2.70131
2.71247
2.71452
2.71784
2.717
2.71316
1
1.00002
1.00003
1.00011
1.00019
1.00061
1.00111
1.00347
1.00657
1.01896
1.04193
1.10579
1.28195
1.81627
2.478
2.68061
2.67097
2.6562
2.67106
2.67677
2.68917
2.69228
2.69164
2.68552
2.66177
1
1.00001
1.00003
1.00009
1.00017
1.00052
1.00096
1.00285
1.00583
1.01534
1.03885
1.08952
1.25938
1.69356
2.42077
2.65534
2.65406
2.65189
2.65457
2.66166
2.66521
2.66483
2.65652
2.63525
2.58492
1
1.00003
1.00005
1.00017
1.00031
1.00099
1.00182
1.00543
1.0112
1.02935
1.07813
1.17511
1.53237
2.34207
2.65945
2.73048
2.72508
2.7224
2.73699
2.74902
2.76293
2.77218
2.78021
2.78565
2.78823
1
1.00003
1.00005
1.00017
1.00031
1.00098
1.0018
1.00535
1.01107
1.02891
1.07721
1.17254
1.52782
2.33228
2.65634
2.73045
2.72487
2.72207
2.73652
2.74843
2.76211
2.77091
2.77894
2.78346
2.78519
1
1.00003
1.00005
1.00017
1.0003
1.00095
1.00175
1.00518
1.01079
1.02801
1.07527
1.16726
1.51748
2.31003
2.6482
2.72935
2.72346
2.72033
2.73465
2.74637
2.75986
2.76876
2.77558
2.7808
2.78133
1
1.00003
1.00005
1.00016
1.00029
1.00091
1.00168
1.00492
1.01038
1.02662
1.07231
1.15903
1.50124
2.275
2.6353
2.72736
2.72102
2.71678
2.7306
2.74251
2.75398
2.76319
2.77139
2.77423
2.77646
1
1.00002
1.00005
1.00015
1.00027
1.00086
1.00159
1.0047
1.0098
1.02536
1.06798
1.15123
1.4677
2.21557
2.61609
2.72321
2.71625
2.71078
2.72415
2.73658
2.74927
2.75542
2.76166
2.76762
2.76622
1
1.00002
1.00004
1.00014
1.00026
1.00081
1.00149
1.00449
1.00906
1.02413
1.06192
1.14139
1.42357
2.13507
2.58894
2.71754
2.71098
2.70157
2.71575
2.72367
2.73827
2.74727
2.75336
2.75452
2.75645
1
1.00002
1.00004
1.00013
1.00024
1.00076
1.00137
1.00428
1.0082
1.02307
1.05415
1.12982
1.37148
2.03271
2.55262
2.70841
2.70207
2.6919
2.70717
2.71562
2.72369
2.73011
2.73763
2.74019
2.73623
1
1.00002
1.00004
1.00012
1.00022
1.00068
1.00124
1.00386
1.00735
1.021
1.04724
1.11771
1.31943
1.91804
2.50293
2.68956
2.68009
2.67191
2.68794
2.70131
2.71247
2.71452
2.71784
2.717
2.71316
1
1.00002
1.00003
1.00011
1.00019
1.00061
1.00111
1.00347
1.00657
1.01896
1.04193
1.10579
1.28195
1.81627
2.478
2.68061
2.67097
2.6562
2.67106
2.67677
2.68917
2.69228
2.69164
2.68552
2.66177
1
1.00001
1.00003
1.00009
1.00017
1.00052
1.00096
1.00285
1.00583
1.01534
1.03885
1.08952
1.25938
1.69356
2.42077
2.65534
2.65406
2.65189
2.65457
2.66166
2.66521
2.66483
2.65652
2.63525
2.58492
1
1.00003
1.00005
1.00017
1.00031
1.00099
1.00182
1.00543
1.0112
1.02935
1.07813
1.1751
1.53237
2.34207
2.65945
2.73048
2.72508
2.7224
2.73699
2.74902
2.76293
2.77218
2.78021
2.78565
2.78823
1
1.00003
1.00005
1.00017
1.00031
1.00098
1.0018
1.00535
1.01107
1.02891
1.07721
1.17254
1.52782
2.33228
2.65634
2.73046
2.72487
2.72207
2.73652
2.74843
2.76211
2.77091
2.77894
2.78346
2.78519
1
1.00003
1.00005
1.00017
1.0003
1.00095
1.00175
1.00518
1.01079
1.02801
1.07527
1.16726
1.51748
2.31003
2.6482
2.72935
2.72346
2.72033
2.73465
2.74637
2.75986
2.76876
2.77558
2.7808
2.78133
1
1.00003
1.00005
1.00016
1.00029
1.00091
1.00168
1.00492
1.01038
1.02662
1.07231
1.15903
1.50124
2.275
2.6353
2.72736
2.72102
2.71678
2.7306
2.74251
2.75398
2.76319
2.77139
2.77423
2.77646
1
1.00002
1.00005
1.00015
1.00027
1.00086
1.00159
1.0047
1.0098
1.02536
1.06798
1.15123
1.4677
2.21557
2.61609
2.72321
2.71625
2.71078
2.72415
2.73658
2.74927
2.75542
2.76166
2.76762
2.76622
1
1.00002
1.00004
1.00014
1.00026
1.00081
1.00149
1.00449
1.00906
1.02413
1.06192
1.14139
1.42357
2.13507
2.58894
2.71754
2.71098
2.70157
2.71575
2.72367
2.73827
2.74727
2.75336
2.75452
2.75645
1
1.00002
1.00004
1.00013
1.00024
1.00076
1.00137
1.00428
1.0082
1.02307
1.05415
1.12982
1.37148
2.03271
2.55262
2.70841
2.70207
2.6919
2.70717
2.71562
2.72369
2.73011
2.73763
2.74019
2.73623
1
1.00002
1.00004
1.00012
1.00022
1.00068
1.00124
1.00386
1.00735
1.021
1.04724
1.1177
1.31943
1.91804
2.50293
2.68956
2.68009
2.67191
2.68794
2.70131
2.71247
2.71452
2.71784
2.717
2.71316
1
1.00002
1.00003
1.00011
1.00019
1.00061
1.00111
1.00347
1.00657
1.01896
1.04193
1.10579
1.28195
1.81627
2.478
2.68061
2.67097
2.6562
2.67106
2.67677
2.68917
2.69228
2.69164
2.68552
2.66177
1
1.00001
1.00003
1.00009
1.00017
1.00052
1.00096
1.00285
1.00583
1.01534
1.03885
1.08952
1.25938
1.69356
2.42077
2.65534
2.65406
2.65189
2.65457
2.66166
2.66521
2.66483
2.65652
2.63525
2.58492
1
1.00003
1.00005
1.00017
1.00031
1.00099
1.00182
1.00543
1.0112
1.02935
1.07813
1.1751
1.53237
2.34207
2.65945
2.73048
2.72508
2.7224
2.73699
2.74902
2.76293
2.77218
2.78021
2.78565
2.78823
1
1.00003
1.00005
1.00017
1.00031
1.00098
1.0018
1.00535
1.01107
1.02891
1.07721
1.17254
1.52782
2.33228
2.65634
2.73046
2.72487
2.72207
2.73652
2.74843
2.76211
2.77091
2.77894
2.78346
2.78519
1
1.00003
1.00005
1.00017
1.0003
1.00095
1.00175
1.00518
1.01079
1.02801
1.07527
1.16726
1.51748
2.31003
2.6482
2.72935
2.72346
2.72033
2.73465
2.74637
2.75986
2.76876
2.77558
2.7808
2.78133
1
1.00003
1.00005
1.00016
1.00029
1.00091
1.00168
1.00492
1.01038
1.02662
1.07231
1.15903
1.50124
2.27499
2.63529
2.72736
2.72102
2.71678
2.7306
2.74251
2.75398
2.76319
2.77139
2.77423
2.77646
1
1.00002
1.00005
1.00015
1.00027
1.00086
1.00159
1.0047
1.0098
1.02536
1.06798
1.15123
1.4677
2.21556
2.61609
2.72321
2.71625
2.71078
2.72415
2.73658
2.74927
2.75542
2.76166
2.76762
2.76622
1
1.00002
1.00004
1.00014
1.00026
1.00081
1.00149
1.00449
1.00906
1.02413
1.06192
1.14139
1.42357
2.13507
2.58894
2.71754
2.71098
2.70157
2.71575
2.72367
2.73827
2.74727
2.75336
2.75452
2.75645
1
1.00002
1.00004
1.00013
1.00024
1.00076
1.00137
1.00428
1.0082
1.02307
1.05415
1.12982
1.37148
2.03271
2.55262
2.70841
2.70207
2.6919
2.70717
2.71562
2.72369
2.73011
2.73763
2.74019
2.73623
1
1.00002
1.00004
1.00012
1.00022
1.00068
1.00124
1.00386
1.00735
1.021
1.04724
1.1177
1.31943
1.91803
2.50293
2.68956
2.68009
2.67191
2.68794
2.70131
2.71247
2.71452
2.71784
2.717
2.71316
1
1.00002
1.00003
1.00011
1.00019
1.00061
1.00111
1.00347
1.00657
1.01896
1.04193
1.10579
1.28195
1.81627
2.478
2.68061
2.67097
2.6562
2.67106
2.67677
2.68917
2.69228
2.69164
2.68552
2.66177
1
1.00001
1.00003
1.00009
1.00017
1.00052
1.00096
1.00285
1.00583
1.01534
1.03885
1.08952
1.25938
1.69356
2.42077
2.65534
2.65406
2.65189
2.65457
2.66166
2.66521
2.66483
2.65652
2.63525
2.58492
1
1.00003
1.00005
1.00017
1.00031
1.00099
1.00182
1.00543
1.0112
1.02935
1.07813
1.1751
1.53237
2.34207
2.65945
2.73048
2.72508
2.7224
2.73699
2.74902
2.76293
2.77218
2.78021
2.78565
2.78823
1
1.00003
1.00005
1.00017
1.00031
1.00098
1.0018
1.00535
1.01107
1.02891
1.07721
1.17254
1.52782
2.33228
2.65634
2.73046
2.72487
2.72207
2.73652
2.74843
2.76211
2.77091
2.77894
2.78346
2.78519
1
1.00003
1.00005
1.00017
1.0003
1.00095
1.00175
1.00518
1.01079
1.02801
1.07527
1.16726
1.51748
2.31003
2.6482
2.72935
2.72346
2.72033
2.73465
2.74637
2.75986
2.76876
2.77558
2.7808
2.78133
1
1.00003
1.00005
1.00016
1.00029
1.00091
1.00168
1.00492
1.01038
1.02662
1.07231
1.15903
1.50124
2.27499
2.63529
2.72736
2.72102
2.71678
2.7306
2.74251
2.75398
2.76319
2.77139
2.77423
2.77646
1
1.00002
1.00005
1.00015
1.00027
1.00086
1.00159
1.0047
1.0098
1.02536
1.06798
1.15123
1.4677
2.21556
2.61609
2.72321
2.71625
2.71078
2.72415
2.73658
2.74927
2.75542
2.76166
2.76762
2.76622
1
1.00002
1.00004
1.00014
1.00026
1.00081
1.00149
1.00449
1.00906
1.02413
1.06192
1.14139
1.42357
2.13507
2.58894
2.71754
2.71098
2.70157
2.71575
2.72367
2.73827
2.74727
2.75336
2.75452
2.75645
1
1.00002
1.00004
1.00013
1.00024
1.00076
1.00137
1.00428
1.0082
1.02307
1.05415
1.12982
1.37148
2.03271
2.55262
2.70841
2.70207
2.6919
2.70717
2.71562
2.72369
2.73011
2.73763
2.74019
2.73623
1
1.00002
1.00004
1.00012
1.00022
1.00068
1.00124
1.00386
1.00735
1.021
1.04724
1.1177
1.31943
1.91804
2.50293
2.68956
2.68009
2.67191
2.68794
2.70131
2.71247
2.71452
2.71784
2.717
2.71316
1
1.00002
1.00003
1.00011
1.00019
1.00061
1.00111
1.00347
1.00657
1.01896
1.04193
1.10579
1.28195
1.81627
2.478
2.68061
2.67097
2.6562
2.67106
2.67677
2.68917
2.69228
2.69164
2.68552
2.66177
1
1.00001
1.00003
1.00009
1.00017
1.00052
1.00096
1.00285
1.00583
1.01534
1.03885
1.08952
1.25938
1.69356
2.42077
2.65534
2.65406
2.65189
2.65457
2.66166
2.66521
2.66483
2.65652
2.63525
2.58492
1
1.00003
1.00005
1.00017
1.00031
1.00099
1.00182
1.00543
1.0112
1.02935
1.07813
1.1751
1.53237
2.34207
2.65945
2.73048
2.72508
2.7224
2.73699
2.74902
2.76293
2.77218
2.78021
2.78565
2.78823
1
1.00003
1.00005
1.00017
1.00031
1.00098
1.0018
1.00535
1.01107
1.02891
1.07721
1.17254
1.52782
2.33227
2.65634
2.73046
2.72487
2.72207
2.73652
2.74843
2.76211
2.77091
2.77894
2.78346
2.78519
1
1.00003
1.00005
1.00017
1.0003
1.00095
1.00175
1.00518
1.01079
1.02801
1.07527
1.16726
1.51748
2.31003
2.6482
2.72935
2.72346
2.72033
2.73465
2.74637
2.75986
2.76876
2.77558
2.7808
2.78133
1
1.00003
1.00005
1.00016
1.00029
1.00091
1.00168
1.00492
1.01038
1.02662
1.07231
1.15903
1.50124
2.27499
2.63529
2.72736
2.72102
2.71678
2.7306
2.74251
2.75398
2.76319
2.77139
2.77423
2.77646
1
1.00002
1.00005
1.00015
1.00027
1.00086
1.00159
1.0047
1.0098
1.02536
1.06798
1.15123
1.46769
2.21556
2.61609
2.72321
2.71625
2.71078
2.72415
2.73658
2.74927
2.75542
2.76166
2.76762
2.76622
1
1.00002
1.00004
1.00014
1.00026
1.00081
1.00149
1.00449
1.00906
1.02413
1.06192
1.14139
1.42357
2.13506
2.58894
2.71754
2.71098
2.70157
2.71575
2.72367
2.73827
2.74727
2.75336
2.75452
2.75645
1
1.00002
1.00004
1.00013
1.00024
1.00076
1.00137
1.00428
1.0082
1.02307
1.05415
1.12982
1.37147
2.03271
2.55262
2.70841
2.70207
2.6919
2.70717
2.71562
2.72369
2.73011
2.73763
2.74019
2.73623
1
1.00002
1.00004
1.00012
1.00022
1.00068
1.00124
1.00386
1.00735
1.021
1.04724
1.1177
1.31943
1.91803
2.50293
2.68956
2.68009
2.67191
2.68794
2.70131
2.71247
2.71452
2.71784
2.717
2.71316
1
1.00002
1.00003
1.00011
1.00019
1.00061
1.00111
1.00347
1.00657
1.01896
1.04193
1.10579
1.28194
1.81627
2.47801
2.68061
2.67097
2.6562
2.67105
2.67677
2.68917
2.69228
2.69164
2.68552
2.66177
1
1.00001
1.00003
1.00009
1.00017
1.00052
1.00096
1.00285
1.00583
1.01534
1.03885
1.08952
1.25938
1.69356
2.42077
2.65534
2.65406
2.65189
2.65457
2.66166
2.66521
2.66483
2.65652
2.63525
2.58492
0.999996
1.00002
1.00004
1.00016
1.0003
1.00098
1.00181
1.00542
1.01119
1.02933
1.07811
1.17506
1.53233
2.34194
2.65937
2.73041
2.72501
2.72233
2.73692
2.74895
2.76285
2.7721
2.78013
2.78557
2.78814
0.999996
1.00002
1.00004
1.00016
1.0003
1.00097
1.00179
1.00534
1.01106
1.02889
1.0772
1.1725
1.52779
2.33215
2.65627
2.73039
2.7248
2.722
2.73645
2.74836
2.76203
2.77084
2.77886
2.78338
2.78511
0.999996
1.00002
1.00004
1.00016
1.00029
1.00094
1.00174
1.00517
1.01078
1.02799
1.07525
1.16722
1.51744
2.3099
2.64813
2.72928
2.72339
2.72026
2.73458
2.7463
2.75978
2.76869
2.7755
2.78072
2.78125
0.999995
1.00002
1.00004
1.00015
1.00028
1.0009
1.00167
1.00491
1.01037
1.02661
1.07229
1.15899
1.5012
2.27486
2.63522
2.7273
2.72095
2.71671
2.73053
2.74243
2.7539
2.76312
2.77132
2.77415
2.77639
0.999995
1.00002
1.00004
1.00014
1.00026
1.00085
1.00158
1.00469
1.00979
1.02534
1.06796
1.15119
1.46765
2.21543
2.61602
2.72314
2.71619
2.71071
2.72409
2.73651
2.74919
2.75534
2.76159
2.76754
2.76614
0.999995
1.00002
1.00003
1.00013
1.00025
1.0008
1.00148
1.00448
1.00905
1.02411
1.06192
1.14136
1.42357
2.13496
2.58888
2.71748
2.71091
2.7015
2.71569
2.7236
2.73821
2.74719
2.75329
2.75444
2.75638
0.999995
1.00001
1.00003
1.00012
1.00023
1.00075
1.00137
1.00427
1.00819
1.02305
1.05414
1.12979
1.37145
2.03259
2.55255
2.70834
2.70201
2.69184
2.7071
2.71555
2.72362
2.73004
2.73756
2.74012
2.73615
0.999995
1.00001
1.00003
1.00011
1.00021
1.00068
1.00123
1.00385
1.00734
1.02099
1.04723
1.11767
1.3194
1.91791
2.50286
2.68949
2.68002
2.67184
2.68788
2.70125
2.7124
2.71445
2.71777
2.71693
2.71309
0.999995
1.00001
1.00002
1.0001
1.00018
1.00061
1.0011
1.00346
1.00656
1.01895
1.04192
1.10576
1.28193
1.81617
2.47798
2.68055
2.6709
2.65613
2.67099
2.67671
2.6891
2.69222
2.69158
2.68546
2.66171
0.999994
1.00001
1.00002
1.00008
1.00016
1.00051
1.00095
1.00284
1.00582
1.01531
1.03885
1.0895
1.25941
1.69346
2.42073
2.65529
2.65402
2.65182
2.65451
2.6616
2.66515
2.66477
2.65646
2.63519
2.58487
0.999996
1
1.00002
1.00005
1.00018
1.00035
1.00109
1.00207
1.00597
1.01287
1.03288
1.08932
1.20116
1.59368
2.40941
2.60744
2.63262
2.63409
2.63438
2.64042
2.64013
2.63319
2.6134
2.56391
2.38492
0.999996
1
1.00002
1.00005
1.00016
1.0003
1.00097
1.00178
1.00534
1.01093
1.02879
1.07583
1.17071
1.51395
2.2943
2.57289
2.63067
2.62249
2.61475
2.61512
2.61284
2.59907
2.5651
2.50408
2.32162
0.999995
0.999999
1.00002
1.00004
1.00014
1.00025
1.00081
1.00151
1.00447
1.00927
1.02406
1.06381
1.14261
1.43337
2.13026
2.50689
2.6222
2.61351
2.59769
2.58937
2.58288
2.56758
2.52827
2.46957
2.31894
0.999995
0.999998
1.00001
1.00003
1.00012
1.00021
1.0007
1.00127
1.00396
1.00756
1.0215
1.04894
1.11987
1.3314
1.92926
2.41824
2.60117
2.59442
2.58667
2.567
2.55115
2.52614
2.49115
2.44708
2.33011
0.999995
0.999997
1.00001
1.00002
1.00009
1.00017
1.00056
1.00104
1.00319
1.00615
1.01758
1.03845
1.10003
1.25069
1.77065
2.29823
2.55332
2.56237
2.56552
2.55572
2.53304
2.50578
2.44946
2.41385
2.33177
0.999994
0.999998
1
1.00002
1.00005
1.00018
1.00034
1.00105
1.00199
1.00572
1.01226
1.03117
1.08424
1.1869
1.55742
2.2962
2.49145
2.52227
2.5217
2.52262
2.51325
2.49232
2.44063
2.38863
2.32525
0.999994
0.999997
1
1.00002
1.00004
1.00014
1.00027
1.00086
1.00158
1.00467
1.0097
1.02505
1.06641
1.14744
1.44899
2.14164
2.44263
2.51436
2.49959
2.49401
2.48125
2.4657
2.43093
2.37992
2.32176
0.999994
0.999995
0.999998
1.00001
1.00003
1.00011
1.00021
1.00068
1.00125
1.00385
1.00745
1.02097
1.04794
1.11836
1.32059
1.92192
2.32256
2.48863
2.48487
2.47583
2.45621
2.43763
2.41044
2.36549
2.31327
0.999993
0.999994
0.999998
1
1.00003
1.00006
1.00021
1.00038
1.0012
1.00226
1.00659
1.01382
1.03573
1.09157
1.21886
1.57863
2.26044
2.43837
2.45221
2.44766
2.43549
2.41125
2.39377
2.35802
2.3102
0.999992
0.999993
0.999996
1
1.00002
1.00004
1.00015
1.00028
1.00089
1.00168
1.00479
1.01037
1.02595
1.07069
1.15422
1.47229
2.14036
2.38795
2.43318
2.42282
2.41039
2.38477
2.3599
2.33732
2.30298
0.999992
0.999993
0.999994
1
1.00001
1.00004
1.00008
1.00026
1.0005
1.0014
1.00308
1.00761
1.02028
1.0452
1.13422
1.30012
1.85054
2.27853
2.41295
2.40929
2.39792
2.37612
2.346
2.31568
2.28852
0.999992
0.999992
0.999993
0.999998
1
1.00003
1.00006
1.0002
1.00037
1.00118
1.00217
1.00653
1.01315
1.0348
1.08647
1.20808
1.54366
2.18302
2.35441
2.37472
2.36989
2.35565
2.32957
2.29886
2.26822
0.999991
0.999992
0.999993
0.999994
1
1.00001
1.00005
1.0001
1.00033
1.00063
1.00185
1.00382
1.00988
1.02471
1.05688
1.1645
1.38127
1.95462
2.29816
2.35935
2.35595
2.33993
2.31769
2.28899
2.2602
0.999991
0.999991
0.999992
0.999993
0.999999
1.00001
1.00004
1.00007
1.00024
1.00045
1.00141
1.00264
1.0076
1.01622
1.04076
1.10906
1.24999
1.65583
2.14487
2.32533
2.32895
2.32013
2.30053
2.27112
2.24515
0.999991
0.999991
0.999992
0.999993
0.999995
1
1.00002
1.00007
1.00013
1.00041
1.00077
1.00232
1.00451
1.01262
1.0276
1.06992
1.17335
1.48179
1.98339
2.26144
2.30754
2.30465
2.29097
2.26318
2.23436
0.999991
0.999991
0.999991
0.999992
0.999994
1
1.00001
1.00004
1.00009
1.00028
1.00052
1.00161
1.00304
1.00863
1.01864
1.04632
1.12379
1.28912
1.73457
2.13168
2.26374
2.27346
2.26865
2.25415
2.22788
0.999991
0.999991
0.999991
0.999992
0.999993
0.999996
1.00001
1.00002
1.00007
1.00014
1.00045
1.00085
1.00254
1.00497
1.01381
1.02976
1.07782
1.18184
1.53985
1.9705
2.20607
2.24169
2.24072
2.23105
2.21175
0.999991
0.999991
0.999991
0.999991
0.999993
0.999994
1
1.00001
1.00005
1.00009
1.0003
1.00056
1.00173
1.00324
1.00935
1.01958
1.04942
1.12578
1.30801
1.74176
2.09721
2.20932
2.22017
2.21471
2.20212
0.999991
0.999991
0.999991
0.999991
0.999992
0.999993
0.999996
1.00001
1.00002
1.00008
1.00015
1.00046
1.00088
1.00257
1.00511
1.014
1.03011
1.07976
1.18112
1.55875
1.9152
2.14152
2.17806
2.18819
2.1816
0.999991
0.999991
0.999991
0.999991
0.999991
0.999992
0.999995
0.999998
1.00001
1.00003
1.00012
1.00023
1.0007
1.00134
1.00377
1.00798
1.01992
1.0518
1.1126
1.3284
1.78961
2.05876
2.14534
2.15706
2.15351
0.999991
0.999991
0.999991
0.999991
0.999991
0.999992
0.999993
0.999996
1.00001
1.00002
1.00008
1.00015
1.00047
1.00086
1.0026
1.00495
1.01411
1.02896
1.07816
1.17455
1.53671
1.88711
2.10036
2.12975
2.13392
0.999991
0.999991
0.999991
0.999991
0.999991
0.999991
0.999992
0.999995
0.999998
1.00001
1.00003
1.00012
1.00022
1.00068
1.00128
1.00365
1.00753
1.01914
1.04843
1.1074
1.30217
1.74276
2.00918
2.10243
2.10783
0.999991
0.999991
0.999991
0.999991
0.999991
0.999991
0.999992
0.999993
0.999995
1.00001
1.00002
1.00007
1.00014
1.00044
1.0008
1.00243
1.00457
1.01309
1.02655
1.07121
1.15929
1.4703
1.85004
2.05698
2.08912
0.999991
0.999991
0.999991
0.999991
0.999991
0.999991
0.999991
0.999992
0.999994
1
1.00001
1.00004
1.00008
1.00027
1.00049
1.0015
1.00276
1.0081
1.0162
1.04186
1.10167
1.24223
1.60041
1.93347
2.05733
0.999991
0.999991
0.999991
0.999991
0.999991
0.999991
0.999991
0.999992
0.999992
0.999996
1
1.00002
1.00005
1.00016
1.00029
1.0009
1.00165
1.00491
1.00947
1.02533
1.05951
1.13616
1.36556
1.80419
1.99019
0.999991
0.999991
0.999991
0.999991
0.999991
0.999991
0.999991
0.999991
0.999992
0.999993
0.999998
1
1.00003
1.00007
1.00021
1.0004
1.0012
1.0023
1.00634
1.01354
1.0334
1.08536
1.19171
1.496
1.86289
0.999991
0.999991
0.999991
0.999991
0.999991
0.999991
0.999991
0.999991
0.999991
0.999993
0.999994
1
1.00001
1.00005
1.0001
1.00031
1.00058
1.0017
1.00331
1.00909
1.01939
1.04894
1.11476
1.30739
1.64925
0.999991
0.999991
0.999991
0.999991
0.999991
0.999991
0.999991
0.999991
0.999991
0.999992
0.999993
0.999996
1.00001
1.00002
1.00007
1.00014
1.00042
1.0008
1.00233
1.00455
1.01241
1.02621
1.06773
1.15322
1.44006
0.999991
0.999991
0.999991
0.999991
0.999991
0.999991
0.999991
0.999991
0.999991
0.999991
0.999992
0.999994
0.999999
1.00001
1.00004
1.00008
1.00025
1.00046
1.0014
1.00261
1.00752
1.01488
1.03967
1.08824
1.22899
0.999991
0.999991
0.999991
0.999991
0.999991
0.999991
0.999991
0.999991
0.999991
0.999991
0.999991
0.999993
0.999995
1
1.00001
1.00006
1.00011
1.00034
1.00066
1.00191
1.00373
1.01025
1.02124
1.0564
1.12289
0.999991
0.999991
0.999991
0.999991
0.999991
0.999991
0.999991
0.999991
0.999991
0.999991
0.999991
0.999992
0.999994
0.999997
1.00001
1.00002
1.00008
1.00017
1.0005
1.00096
1.00277
1.00542
1.01469
1.03161
1.0799
0.999991
0.999991
0.999991
0.999991
0.999991
0.999991
0.999991
0.999991
0.999991
0.999991
0.999991
0.999992
0.999992
0.999996
1
1.00002
1.00004
1.00015
1.00028
1.00087
1.00162
1.0048
1.00937
1.02535
1.05893
0.999991
0.999991
0.999991
0.999991
0.999991
0.999991
0.999991
0.999991
0.999991
0.999991
0.999991
0.999991
0.999992
0.999995
0.999998
1.00001
1.00003
1.00012
1.00023
1.00072
1.00134
1.00407
1.00797
1.02225
1.05078
0.999991
0.999991
0.999991
0.999991
0.999991
0.999991
0.999991
0.999991
0.999991
0.999991
0.999991
0.999991
0.999992
0.999993
0.999998
1.00001
1.00003
1.00007
1.00024
1.00048
1.00131
1.003
1.00729
1.01999
1.04414
0.999991
0.999991
0.999991
0.999991
0.999991
0.999991
0.999991
0.999991
0.999991
0.999991
0.999991
0.999991
0.999992
0.999994
0.999997
1.00001
1.00003
1.0001
1.00019
1.00061
1.00119
1.00339
1.00745
1.01903
1.05075
0.999991
0.999991
0.999991
0.999991
0.999991
0.999991
0.999991
0.999991
0.999991
0.999991
0.999991
0.999991
0.999992
0.999993
0.999998
1
1.00003
1.00007
1.00022
1.00044
1.00122
1.00286
1.00689
1.01914
1.04231
0.999991
0.999991
0.999991
0.999991
0.999991
0.999991
0.999991
0.999991
0.999991
0.999991
0.999991
0.999991
0.999992
0.999994
0.999997
1.00001
1.00002
1.0001
1.00019
1.00062
1.00115
1.00356
1.00708
1.01962
1.04741
0.999991
0.999991
0.999991
0.999991
0.999991
0.999991
0.999991
0.999991
0.999991
0.999991
0.999991
0.999991
0.999992
0.999994
0.999996
1.00001
1.00002
1.0001
1.00019
1.00061
1.00113
1.0035
1.00697
1.01923
1.04684
0.999991
0.999991
0.999991
0.999991
0.999991
0.999991
0.999991
0.999991
0.999991
0.999991
0.999991
0.999991
0.999992
0.999993
0.999998
1
1.00003
1.00007
1.00024
1.00044
1.00135
1.00275
1.00727
1.01811
1.04243
0.999991
0.999991
0.999991
0.999991
0.999991
0.999991
0.999991
0.999991
0.999991
0.999991
0.999991
0.999991
0.999992
0.999993
0.999998
1
1.00003
1.00007
1.00024
1.00045
1.00144
1.0027
1.00783
1.01728
1.0434
1
1.00001
1.00003
1.00006
1.00019
1.00036
1.0011
1.00208
1.00598
1.01288
1.0329
1.08935
1.2012
1.5937
2.4095
2.6075
2.63266
2.63414
2.63443
2.64047
2.64018
2.63324
2.61345
2.56396
2.38496
1
1.00001
1.00003
1.00005
1.00017
1.00031
1.00097
1.00179
1.00535
1.01093
1.02881
1.07583
1.17075
1.51396
2.29438
2.57296
2.63071
2.62254
2.61481
2.61517
2.6129
2.59913
2.56515
2.50412
2.32166
1
1.00001
1.00002
1.00005
1.00015
1.00026
1.00082
1.00152
1.00448
1.00928
1.02407
1.06382
1.14264
1.4334
2.13036
2.50696
2.62226
2.61356
2.59773
2.58942
2.58293
2.56764
2.52832
2.46962
2.31897
1
1.00001
1.00002
1.00004
1.00012
1.00022
1.00071
1.00128
1.00397
1.00757
1.02152
1.04895
1.1199
1.33143
1.92935
2.41831
2.60123
2.59448
2.58672
2.56704
2.5512
2.5262
2.4912
2.44712
2.33015
1
1
1.00002
1.00003
1.0001
1.00018
1.00057
1.00105
1.0032
1.00616
1.01759
1.03846
1.10006
1.25071
1.77073
2.29827
2.55338
2.56243
2.56557
2.55577
2.53309
2.50583
2.44951
2.41389
2.33181
1
1.00001
1.00001
1.00003
1.00006
1.00019
1.00034
1.00106
1.002
1.00573
1.01227
1.03119
1.08425
1.18694
1.55746
2.29628
2.49151
2.52232
2.52175
2.52267
2.5133
2.49237
2.44067
2.38867
2.32529
1
1
1.00001
1.00003
1.00005
1.00015
1.00028
1.00086
1.00159
1.00469
1.00971
1.02507
1.06642
1.14748
1.44902
2.14174
2.44269
2.51441
2.49964
2.49406
2.4813
2.46575
2.43097
2.37995
2.3218
1
1
1.00001
1.00002
1.00004
1.00012
1.00022
1.00069
1.00126
1.00386
1.00746
1.02098
1.04795
1.11839
1.32062
1.92201
2.32263
2.48867
2.48492
2.47587
2.45625
2.43767
2.41049
2.36553
2.3133
1
1
1.00001
1.00001
1.00004
1.00007
1.00021
1.00039
1.00121
1.00227
1.0066
1.01383
1.03574
1.09159
1.21889
1.57867
2.26049
2.43843
2.45226
2.44771
2.43554
2.41128
2.3938
2.35806