/*--------------------------------*- C++ -*----------------------------------*\
| =========                 |                                                 |
| \\      /  F ield         | OpenFOAM: The Open Source CFD Toolbox           |
|  \\    /   O peration     | Version:  4.1                                   |
|   \\  /    A nd           | Web:      www.OpenFOAM.org                      |
|    \\/     M anipulation  |                                                 |
\*---------------------------------------------------------------------------*/
FoamFile
{
    version     2.0;
    format      ascii;
    class       volScalarField;
    location    "0.52";
    object      Ma;
}
// * * * * * * * * * * * * * * * * * * * * * * * * * * * * * * * * * * * * * //

dimensions      [0 0 0 0 0 0 0];

internalField   nonuniform List<scalar> 
18000
(
5.46767e-12
5.40569e-12
5.33307e-12
5.27245e-12
5.21244e-12
5.15325e-12
5.09471e-12
5.03727e-12
4.98062e-12
4.9256e-12
6.84749e-12
6.60542e-12
6.36241e-12
6.13897e-12
5.92508e-12
5.72025e-12
5.52374e-12
5.33566e-12
5.1549e-12
4.98455e-12
8.68191e-12
8.15075e-12
7.64756e-12
7.18832e-12
6.76192e-12
6.36601e-12
5.99859e-12
5.65635e-12
5.33789e-12
5.04459e-12
1.11558e-11
1.01623e-11
9.26575e-12
8.46528e-12
7.74827e-12
7.10417e-12
6.52425e-12
6.00118e-12
5.52861e-12
5.1057e-12
1.45454e-11
1.28138e-11
1.132e-11
1.00305e-11
8.91634e-12
7.94953e-12
7.10775e-12
6.37257e-12
5.72809e-12
5.16802e-12
1.927e-11
1.63566e-11
1.39563e-11
1.19629e-11
1.03065e-11
8.92119e-12
7.75662e-12
6.77257e-12
5.93643e-12
5.23126e-12
2.59751e-11
2.11637e-11
1.73754e-11
1.43682e-11
1.19703e-11
1.00419e-11
8.47927e-12
7.20359e-12
6.1545e-12
5.29559e-12
3.5707e-11
2.77965e-11
2.1884e-11
1.74157e-11
1.40106e-11
1.13858e-11
9.34062e-12
7.73149e-12
6.45286e-12
5.4417e-12
3.65036e-09
3.60179e-09
3.38279e-09
3.18632e-09
3.0102e-09
2.85165e-09
2.7083e-09
2.5782e-09
2.45977e-09
2.38936e-09
3.91197e-07
4.61796e-08
3.93232e-08
3.41037e-08
2.97527e-08
2.60982e-08
2.30092e-08
2.03842e-08
1.80759e-08
6.68469e-08
5.7229e-12
5.65511e-12
5.58032e-12
5.51444e-12
5.44978e-12
5.38638e-12
5.3232e-12
5.26175e-12
5.20112e-12
5.14192e-12
7.20867e-12
6.94444e-12
6.68929e-12
6.44711e-12
6.21614e-12
5.99512e-12
5.78407e-12
5.58214e-12
5.38905e-12
5.20545e-12
9.18999e-12
8.60976e-12
8.07795e-12
7.57896e-12
7.11786e-12
6.69088e-12
6.2956e-12
5.92839e-12
5.58731e-12
5.27114e-12
1.18875e-11
1.08001e-11
9.84174e-12
8.96837e-12
8.18922e-12
7.49181e-12
6.86637e-12
6.30425e-12
5.79675e-12
5.33808e-12
1.56235e-11
1.37197e-11
1.2103e-11
1.0686e-11
9.46811e-12
8.41647e-12
7.5046e-12
6.71135e-12
6.01806e-12
5.40763e-12
2.08991e-11
1.76683e-11
1.50359e-11
1.28261e-11
1.10029e-11
9.48717e-12
8.22006e-12
7.15448e-12
6.25256e-12
5.47936e-12
2.85009e-11
2.31043e-11
1.88856e-11
1.55168e-11
1.28562e-11
1.07324e-11
9.02299e-12
7.63615e-12
6.4998e-12
5.55349e-12
3.97369e-11
3.07186e-11
2.40083e-11
1.8934e-11
1.51105e-11
1.21885e-11
9.92937e-12
8.16205e-12
6.76339e-12
5.63138e-12
1.05636e-10
2.17218e-10
1.77232e-10
1.45811e-10
1.2138e-10
1.02103e-10
8.66992e-11
7.42498e-11
6.40891e-11
5.60531e-11
2.61461e-07
4.05806e-08
3.52997e-08
3.09112e-08
2.72845e-08
2.42561e-08
2.17031e-08
1.95323e-08
1.76755e-08
1.6636e-08
4.65754e-13
4.43216e-13
3.0492e-13
2.89123e-13
2.74733e-13
2.61815e-13
2.50452e-13
2.4085e-13
2.32563e-13
2.23027e-13
6.45124e-13
5.75046e-13
5.06164e-13
4.56458e-13
4.11702e-13
3.71883e-13
3.36777e-13
3.06845e-13
2.82209e-13
2.38483e-13
7.88428e-13
6.78416e-13
6.77929e-13
6.00874e-13
5.3287e-13
4.74246e-13
4.24545e-13
3.82853e-13
3.46796e-13
2.60189e-13
1.04367e-12
9.10751e-13
9.52665e-13
8.26816e-13
7.19042e-13
6.28612e-13
5.52885e-13
4.90122e-13
4.35833e-13
2.92562e-13
1.4626e-12
1.32032e-12
1.3523e-12
1.14351e-12
9.70305e-13
8.29353e-13
7.1413e-13
6.19871e-13
5.39426e-13
3.32625e-13
2.14942e-12
1.99346e-12
1.92906e-12
1.58021e-12
1.30271e-12
1.08404e-12
9.10476e-13
7.71863e-13
6.56153e-13
3.79251e-13
3.28101e-12
3.06532e-12
2.76427e-12
2.1811e-12
1.73896e-12
1.40393e-12
1.14636e-12
9.46914e-13
7.85456e-13
4.31195e-13
5.21035e-12
4.76762e-12
3.98273e-12
3.01076e-12
2.31159e-12
1.80388e-12
1.4284e-12
1.14702e-12
9.27231e-13
4.87872e-13
1.65491e-10
8.01992e-12
6.42105e-12
4.71063e-12
3.53743e-12
2.71573e-12
2.12504e-12
1.69189e-12
1.36264e-12
8.85534e-13
2.24919e-07
2.45887e-09
1.80532e-09
1.37992e-09
1.07236e-09
8.45739e-10
6.75892e-10
5.46636e-10
4.47004e-10
3.74022e-10
3.85262e-13
3.61025e-13
1.72061e-13
1.51141e-13
1.30791e-13
1.11673e-13
9.37977e-14
7.74328e-14
6.29058e-14
3.68838e-14
5.32402e-13
4.59755e-13
3.86008e-13
3.35807e-13
2.89208e-13
2.47544e-13
2.1078e-13
1.79117e-13
1.52848e-13
7.94147e-14
5.95813e-13
4.88907e-13
5.23584e-13
4.5539e-13
3.95229e-13
3.44073e-13
3.01531e-13
2.6746e-13
2.39094e-13
1.19651e-13
7.29037e-13
6.34541e-13
7.6059e-13
6.57431e-13
5.68686e-13
4.95303e-13
4.34744e-13
3.85449e-13
3.43408e-13
1.71083e-13
9.56761e-13
9.43602e-13
1.10771e-12
9.41403e-13
8.02229e-13
6.88873e-13
5.96394e-13
5.21284e-13
4.56773e-13
2.24688e-13
1.33999e-12
1.48485e-12
1.61e-12
1.33356e-12
1.1095e-12
9.31889e-13
7.89694e-13
6.7609e-13
5.79731e-13
2.81349e-13
1.9752e-12
2.36178e-12
2.33704e-12
1.87263e-12
1.51204e-12
1.23525e-12
1.01973e-12
8.51272e-13
7.12811e-13
3.4119e-13
3.07237e-12
3.75842e-12
3.39417e-12
2.61533e-12
2.03874e-12
1.61323e-12
1.2932e-12
1.04986e-12
8.56858e-13
4.042e-13
1.79403e-10
6.45026e-12
4.92146e-12
3.6289e-12
2.7215e-12
2.07962e-12
1.61506e-12
1.27388e-12
1.01216e-12
4.7035e-13
2.21683e-07
7.56953e-10
4.85328e-11
3.19026e-11
2.17487e-11
1.51901e-11
1.08385e-11
7.88126e-12
5.82858e-12
4.26644e-12
3.85287e-13
3.60642e-13
1.72359e-13
1.51331e-13
1.30913e-13
1.11697e-13
9.40138e-14
7.76087e-14
6.28838e-14
3.68526e-14
5.32813e-13
4.60015e-13
3.867e-13
3.36439e-13
2.89846e-13
2.47898e-13
2.11025e-13
1.79513e-13
1.53165e-13
7.94747e-14
5.96751e-13
4.89879e-13
5.25054e-13
4.56543e-13
3.95981e-13
3.44855e-13
3.02198e-13
2.67856e-13
2.39242e-13
1.19768e-13
7.30973e-13
6.3674e-13
7.62797e-13
6.59366e-13
5.70178e-13
4.96473e-13
4.35735e-13
3.86253e-13
3.43942e-13
1.71022e-13
9.60234e-13
9.47707e-13
1.11173e-12
9.4451e-13
8.04674e-13
6.9104e-13
5.97926e-13
5.22265e-13
4.57656e-13
2.25255e-13
1.34596e-12
1.49215e-12
1.61634e-12
1.33887e-12
1.11363e-12
9.35249e-13
7.92429e-13
6.78121e-13
5.81365e-13
2.8233e-13
1.98509e-12
2.37484e-12
2.34838e-12
1.88147e-12
1.51904e-12
1.24085e-12
1.02413e-12
8.54627e-13
7.15598e-13
3.43003e-13
3.08919e-12
3.78216e-12
3.41366e-12
2.6304e-12
2.05049e-12
1.62232e-12
1.30029e-12
1.05546e-12
8.61115e-13
4.07182e-13
1.8493e-10
6.59424e-12
4.98229e-12
3.66876e-12
2.74854e-12
2.09838e-12
1.62829e-12
1.28348e-12
1.01925e-12
4.74645e-13
2.34769e-07
8.05485e-10
9.89351e-12
5.13939e-12
3.68856e-12
2.71405e-12
2.03698e-12
1.55719e-12
1.20213e-12
5.58616e-13
3.85363e-13
3.60319e-13
1.7292e-13
1.51852e-13
1.3126e-13
1.12002e-13
9.41217e-14
7.78882e-14
6.32106e-14
3.68459e-14
5.33678e-13
4.60503e-13
3.87973e-13
3.37526e-13
2.90793e-13
2.48612e-13
2.11518e-13
1.79826e-13
1.53699e-13
7.99203e-14
5.98608e-13
4.91674e-13
5.27385e-13
4.58468e-13
3.97659e-13
3.46087e-13
3.03101e-13
2.68495e-13
2.39795e-13
1.20246e-13
7.34797e-13
6.40832e-13
7.66598e-13
6.6249e-13
5.72716e-13
4.98369e-13
4.37171e-13
3.87384e-13
3.44667e-13
1.71611e-13
9.67719e-13
9.55329e-13
1.11797e-12
9.49548e-13
8.08661e-13
6.94301e-13
6.00534e-13
5.24307e-13
4.59152e-13
2.26228e-13
1.36012e-12
1.50572e-12
1.62716e-12
1.34715e-12
1.12008e-12
9.40506e-13
7.96598e-13
6.81198e-13
5.83921e-13
2.84093e-13
2.01164e-12
2.39845e-12
2.3668e-12
1.89555e-12
1.52986e-12
1.24936e-12
1.03083e-12
8.59784e-13
7.19686e-13
3.45827e-13
3.14096e-12
3.8247e-12
3.4456e-12
2.65397e-12
2.06812e-12
1.63589e-12
1.31086e-12
1.06357e-12
8.67352e-13
4.11359e-13
1.95436e-10
6.70966e-12
5.03874e-12
3.70852e-12
2.77742e-12
2.11988e-12
1.64442e-12
1.2956e-12
1.02869e-12
4.81072e-13
2.5705e-07
8.66796e-10
1.00736e-11
5.12627e-12
3.68964e-12
2.72011e-12
2.04449e-12
1.56455e-12
1.20873e-12
5.61562e-13
3.8536e-13
3.60013e-13
1.73543e-13
1.52479e-13
1.31864e-13
1.12531e-13
9.45682e-14
7.81123e-14
6.33984e-14
3.81905e-14
5.34673e-13
4.61153e-13
3.89591e-13
3.38793e-13
2.91912e-13
2.49687e-13
2.12418e-13
1.80504e-13
1.53908e-13
8.06638e-14
6.00886e-13
4.93828e-13
5.30091e-13
4.60819e-13
3.99572e-13
3.47675e-13
3.04217e-13
2.69363e-13
2.40482e-13
1.21001e-13
7.39435e-13
6.45755e-13
7.71086e-13
6.6622e-13
5.75885e-13
5.00895e-13
4.38989e-13
3.88705e-13
3.45943e-13
1.72688e-13
9.76809e-13
9.64454e-13
1.12545e-12
9.55503e-13
8.13425e-13
6.98317e-13
6.03787e-13
5.2681e-13
4.61069e-13
2.27911e-13
1.37748e-12
1.52164e-12
1.63992e-12
1.3573e-12
1.12795e-12
9.46841e-13
8.01816e-13
6.85313e-13
5.87053e-13
2.86612e-13
2.04406e-12
2.42667e-12
2.38851e-12
1.9123e-12
1.54285e-12
1.25972e-12
1.03919e-12
8.6632e-13
7.24741e-13
3.49753e-13
3.20036e-12
3.875e-12
3.48345e-12
2.68221e-12
2.08941e-12
1.65221e-12
1.32391e-12
1.07381e-12
8.752e-13
4.16998e-13
2.02464e-10
6.79223e-12
5.10461e-12
3.756e-12
2.81229e-12
2.14596e-12
1.6645e-12
1.3106e-12
1.04031e-12
4.89264e-13
2.75979e-07
8.95798e-10
1.01058e-11
5.2e-12
3.74298e-12
2.75903e-12
2.07378e-12
1.58661e-12
1.22531e-12
5.7291e-13
3.85452e-13
3.59098e-13
1.74003e-13
1.52907e-13
1.32546e-13
1.13737e-13
9.70407e-14
9.83421e-14
2.4403e-13
7.58973e-13
5.35451e-13
4.61069e-13
3.90668e-13
3.39935e-13
2.9311e-13
2.51132e-13
2.14372e-13
1.86971e-13
2.10398e-13
4.99387e-13
6.02717e-13
4.94734e-13
5.31976e-13
4.62556e-13
4.01342e-13
3.49688e-13
3.06856e-13
2.73504e-13
2.61813e-13
3.47642e-13
7.43393e-13
6.48184e-13
7.74058e-13
6.68866e-13
5.78307e-13
5.03514e-13
4.42394e-13
3.93045e-13
3.5741e-13
2.91504e-13
9.84393e-13
9.6922e-13
1.13004e-12
9.59598e-13
8.17041e-13
7.01669e-13
6.07987e-13
5.32008e-13
4.70346e-13
2.94153e-13
1.3909e-12
1.53022e-12
1.64744e-12
1.36388e-12
1.13373e-12
9.52295e-13
8.07963e-13
6.92271e-13
5.96481e-13
3.29376e-13
2.06752e-12
2.44205e-12
2.40139e-12
1.9233e-12
1.55218e-12
1.26816e-12
1.04779e-12
8.75862e-13
7.35692e-13
3.81774e-13
3.22044e-12
3.90292e-12
3.50589e-12
2.70081e-12
2.10477e-12
1.66525e-12
1.33623e-12
1.08707e-12
8.89231e-13
4.44375e-13
1.6077e-10
6.57858e-12
5.14182e-12
3.78702e-12
2.83702e-12
2.16651e-12
1.68302e-12
1.32895e-12
1.05796e-12
5.15048e-13
2.43628e-07
5.79654e-10
8.8361e-12
5.24393e-12
3.78103e-12
2.7899e-12
2.09993e-12
1.61092e-12
1.24853e-12
5.99509e-13
3.92215e-13
4.17032e-13
2.26206e-13
1.58399e-13
1.79656e-13
4.31972e-13
9.08416e-13
3.52265e-12
1.36408e-11
4.02035e-11
5.53093e-13
5.64127e-13
4.54889e-13
3.59382e-13
2.94861e-13
4.18395e-13
7.51847e-13
2.25018e-12
7.97973e-12
2.60797e-11
6.40084e-13
6.7618e-13
6.31494e-13
5.07901e-13
4.00334e-13
4.1444e-13
7.27443e-13
1.58023e-12
5.05092e-12
1.68724e-11
8.04621e-13
9.0027e-13
9.01866e-13
7.35937e-13
5.87479e-13
5.13659e-13
7.0907e-13
1.22633e-12
3.44327e-12
1.13187e-11
1.07318e-12
1.27044e-12
1.27928e-12
1.04338e-12
8.38634e-13
6.92734e-13
7.38251e-13
1.0722e-12
2.56006e-12
7.87484e-12
1.50531e-12
1.85784e-12
1.80897e-12
1.45573e-12
1.16187e-12
9.38161e-13
8.57444e-13
1.1302e-12
2.10565e-12
5.66719e-12
2.19534e-12
2.77703e-12
2.56107e-12
2.01156e-12
1.57846e-12
1.24964e-12
1.05178e-12
1.15525e-12
1.85206e-12
4.207e-12
3.28619e-12
4.2149e-12
3.64146e-12
2.76852e-12
2.11695e-12
1.63716e-12
1.31392e-12
1.24497e-12
1.71485e-12
3.21913e-12
3.1884e-11
6.22342e-12
5.21632e-12
3.81052e-12
2.81835e-12
2.11824e-12
1.64045e-12
1.40624e-12
1.64274e-12
2.5405e-12
2.2408e-08
8.80169e-10
5.98065e-12
5.17823e-12
3.71015e-12
2.70747e-12
2.03239e-12
1.63043e-12
1.63719e-12
2.07706e-12
2.52271e-12
2.3748e-12
1.5195e-12
1.55636e-13
2.67696e-12
8.70656e-12
2.64269e-11
1.03879e-10
3.90982e-10
6.44934e-10
3.55376e-12
3.43546e-12
2.54486e-12
1.15722e-12
1.33419e-12
6.28161e-12
1.91742e-11
6.58355e-11
2.29139e-10
4.07127e-10
4.82132e-12
4.6951e-12
3.71797e-12
2.31407e-12
2.69591e-13
4.11675e-12
1.37423e-11
4.43697e-11
1.44211e-10
2.70777e-10
6.48239e-12
6.27197e-12
5.11528e-12
3.60154e-12
1.43718e-12
2.29342e-12
9.79304e-12
3.11834e-11
9.58786e-11
1.86394e-10
8.70418e-12
8.28036e-12
6.80951e-12
5.07903e-12
2.8447e-12
7.72655e-13
6.79633e-12
2.2391e-11
6.63056e-11
1.31994e-10
1.17318e-11
1.08822e-11
8.90011e-12
6.79779e-12
4.35761e-12
1.22057e-12
4.38997e-12
1.60508e-11
4.71307e-11
9.57571e-11
1.59453e-11
1.43264e-11
1.15269e-11
8.83563e-12
6.03926e-12
2.75281e-12
2.40514e-12
1.15937e-11
3.42665e-11
7.09077e-11
2.19669e-11
1.89725e-11
1.48803e-11
1.12958e-11
7.93092e-12
4.36689e-12
1.08915e-12
8.21778e-12
2.53105e-11
5.34143e-11
2.33675e-10
2.53529e-11
1.92449e-11
1.43124e-11
1.01017e-11
6.08926e-12
1.82881e-12
5.56612e-12
1.88966e-11
4.08018e-11
6.28903e-07
1.48894e-09
2.50925e-11
1.80583e-11
1.26177e-11
7.93618e-12
3.34144e-12
3.47349e-12
1.41495e-11
3.14952e-11
3.3694e-12
3.0302e-12
1.9984e-12
1.94782e-12
8.39624e-12
2.94926e-11
1.24096e-10
5.53956e-10
1.23902e-09
1.47959e-09
4.46406e-12
4.159e-12
3.17241e-12
1.66074e-12
5.24681e-12
2.01741e-11
7.73706e-11
3.16091e-10
7.47202e-10
8.6915e-10
5.79493e-12
5.46645e-12
4.49311e-12
2.7713e-12
2.82222e-12
1.34091e-11
5.05619e-11
1.93409e-10
4.72727e-10
5.39725e-10
7.4985e-12
7.04842e-12
5.98817e-12
4.28124e-12
1.96318e-12
8.4726e-12
3.39552e-11
1.24568e-10
3.09769e-10
3.48851e-10
9.73276e-12
9.01373e-12
7.73049e-12
5.95031e-12
3.15765e-12
4.84744e-12
2.28849e-11
8.30239e-11
2.09012e-10
2.33244e-10
1.27362e-11
1.15145e-11
9.81705e-12
7.80498e-12
4.9663e-12
2.52492e-12
1.50185e-11
5.63434e-11
1.44568e-10
1.60526e-10
1.68695e-11
1.47704e-11
1.23792e-11
9.92467e-12
6.9267e-12
2.78943e-12
9.42862e-12
3.87421e-11
1.01752e-10
1.1299e-10
2.27045e-11
1.91045e-11
1.55999e-11
1.2409e-11
9.0342e-12
4.66834e-12
5.31428e-12
2.66687e-11
7.26215e-11
8.0956e-11
1.40509e-10
2.50153e-11
1.97339e-11
1.53931e-11
1.13644e-11
6.80955e-12
2.73996e-12
1.81145e-11
5.2346e-11
5.87534e-11
1.24874e-07
6.02783e-09
3.33191e-11
1.90259e-11
1.3982e-11
9.01098e-12
3.06497e-12
1.18545e-11
3.79039e-11
4.29644e-11
1.02016e-12
1.27259e-12
1.5393e-12
3.22128e-12
8.50341e-12
2.50099e-11
8.73416e-11
2.8248e-10
4.34848e-10
2.07825e-10
1.10818e-12
1.27665e-12
1.41079e-12
2.44512e-12
6.05837e-12
1.74369e-11
5.8007e-11
1.78561e-10
2.62176e-10
7.50524e-11
1.20034e-12
1.32194e-12
1.40767e-12
1.9771e-12
4.35018e-12
1.22637e-11
3.93969e-11
1.16469e-10
1.63802e-10
4.41708e-11
1.29608e-12
1.39543e-12
1.48171e-12
1.79157e-12
3.21056e-12
8.67527e-12
2.72598e-11
7.80946e-11
1.05544e-10
3.81277e-11
1.3973e-12
1.48623e-12
1.59164e-12
1.78567e-12
2.53071e-12
6.16744e-12
1.90863e-11
5.35926e-11
6.9787e-11
3.28018e-11
1.51099e-12
1.59169e-12
1.71603e-12
1.86907e-12
2.21713e-12
4.46924e-12
1.34528e-11
3.76021e-11
4.72318e-11
2.75241e-11
1.64252e-12
1.71184e-12
1.84684e-12
1.99198e-12
2.14828e-12
3.36918e-12
9.52086e-12
2.6617e-11
3.2458e-11
2.29234e-11
1.81773e-12
1.84929e-12
1.98642e-12
2.12818e-12
2.20645e-12
2.75394e-12
6.81305e-12
1.90118e-11
2.25435e-11
1.91631e-11
3.76296e-10
4.94375e-12
2.13362e-12
2.27165e-12
2.32362e-12
2.49198e-12
4.9658e-12
1.36817e-11
1.57413e-11
1.61737e-11
2.13967e-07
6.33329e-09
1.39954e-11
2.41594e-12
2.45751e-12
2.44233e-12
3.74312e-12
9.89471e-12
1.09691e-11
1.36969e-11
7.86222e-13
1.49455e-12
1.60716e-12
2.51858e-12
4.14658e-12
7.06298e-12
1.46818e-11
5.4941e-11
2.41937e-10
7.26073e-10
7.21581e-13
1.34252e-12
1.39271e-12
2.14695e-12
3.48359e-12
5.87081e-12
1.12149e-11
3.4162e-11
1.47009e-10
4.10566e-10
6.58845e-13
1.20021e-12
1.19895e-12
1.82163e-12
2.92078e-12
4.85688e-12
8.82641e-12
2.25914e-11
9.31185e-11
2.4667e-10
6.05507e-13
1.07865e-12
1.03802e-12
1.55896e-12
2.46323e-12
4.04813e-12
7.1058e-12
1.58853e-11
6.11434e-11
1.55491e-10
5.59455e-13
9.74473e-13
9.02249e-13
1.33701e-12
2.08862e-12
3.40356e-12
5.8086e-12
1.17591e-11
4.13276e-11
1.0183e-10
5.20036e-13
8.85508e-13
7.88224e-13
1.15599e-12
1.78833e-12
2.87491e-12
4.81156e-12
9.05863e-12
2.8637e-11
6.88747e-11
4.86031e-13
8.08831e-13
6.91643e-13
1.00368e-12
1.53388e-12
2.4404e-12
4.03682e-12
7.1919e-12
2.02748e-11
4.78342e-11
5.21271e-13
7.42518e-13
6.10706e-13
8.74777e-13
1.32424e-12
2.08827e-12
3.41392e-12
5.84686e-12
1.46254e-11
3.39804e-11
5.9113e-10
1.34196e-11
5.54395e-13
7.66096e-13
1.15015e-12
1.79721e-12
2.90538e-12
4.83807e-12
1.07342e-11
2.46151e-11
2.12553e-07
2.06616e-08
8.49076e-11
1.04839e-12
9.90121e-13
1.54611e-12
2.4778e-12
4.04743e-12
7.98942e-12
1.81215e-11
1.05992e-12
1.85078e-12
1.62444e-12
2.17159e-12
3.02289e-12
4.38105e-12
6.89722e-12
1.3206e-11
5.09631e-11
1.58097e-10
9.86799e-13
1.69695e-12
1.45608e-12
1.93763e-12
2.67376e-12
3.81521e-12
5.77846e-12
1.03117e-11
3.6185e-11
9.70199e-11
9.16004e-13
1.54926e-12
1.29396e-12
1.71297e-12
2.34878e-12
3.32017e-12
4.88768e-12
8.07609e-12
2.57739e-11
6.29722e-11
8.54096e-13
1.42053e-12
1.15529e-12
1.51873e-12
2.07187e-12
2.90361e-12
4.20126e-12
6.52598e-12
1.85543e-11
4.26831e-11
8.00342e-13
1.30824e-12
1.03586e-12
1.35193e-12
1.83721e-12
2.55571e-12
3.65279e-12
5.42923e-12
1.34931e-11
2.98756e-11
7.53468e-13
1.20994e-12
9.32366e-13
1.20879e-12
1.63194e-12
2.25789e-12
3.20554e-12
4.62159e-12
9.93259e-12
2.14216e-11
7.12136e-13
1.12314e-12
8.42756e-13
1.08457e-12
1.45544e-12
2.0055e-12
2.82861e-12
3.99827e-12
7.37627e-12
1.56652e-11
7.61293e-13
1.04689e-12
7.65015e-13
9.76413e-13
1.30206e-12
1.78533e-12
2.50441e-12
3.49829e-12
5.52339e-12
1.16386e-11
8.69907e-10
2.38712e-11
7.18614e-13
8.81854e-13
1.16884e-12
1.5938e-12
2.22858e-12
3.08245e-12
4.17062e-12
8.75112e-12
2.61236e-07
3.64092e-08
2.08499e-10
1.59407e-12
1.03282e-12
1.42529e-12
1.98505e-12
2.72428e-12
3.15845e-12
6.63343e-12
1.46917e-12
2.33763e-12
1.63653e-12
1.89959e-12
2.28005e-12
2.82588e-12
3.79511e-12
5.90013e-12
1.49835e-11
2.59329e-11
1.38955e-12
2.18756e-12
1.51976e-12
1.7679e-12
2.11987e-12
2.60136e-12
3.35974e-12
4.83022e-12
1.17426e-11
1.95883e-11
1.30997e-12
2.0384e-12
1.3968e-12
1.62668e-12
1.95145e-12
2.38251e-12
3.00859e-12
4.05884e-12
9.0157e-12
1.48843e-11
1.23958e-12
1.90512e-12
1.28578e-12
1.49755e-12
1.79738e-12
2.19024e-12
2.73158e-12
3.51646e-12
6.9017e-12
1.14453e-11
1.17729e-12
1.78569e-12
1.18605e-12
1.38016e-12
1.65792e-12
2.01848e-12
2.50284e-12
3.12262e-12
5.27953e-12
8.87715e-12
1.12193e-12
1.67816e-12
1.09663e-12
1.2745e-12
1.52952e-12
1.86283e-12
2.30217e-12
2.82133e-12
4.03295e-12
6.91803e-12
1.07261e-12
1.58158e-12
1.01647e-12
1.17873e-12
1.4128e-12
1.72095e-12
2.12783e-12
2.57569e-12
3.07897e-12
5.40781e-12
1.1223e-12
1.49462e-12
9.44219e-13
1.09194e-12
1.30675e-12
1.59161e-12
1.969e-12
2.37066e-12
2.34609e-12
4.24013e-12
1.11603e-09
3.501e-11
9.0656e-13
1.01272e-12
1.20997e-12
1.47301e-12
1.82352e-12
2.1908e-12
1.78157e-12
3.33091e-12
2.12555e-07
5.03257e-08
3.30246e-10
2.01167e-12
1.09732e-12
1.36266e-12
1.68493e-12
2.02395e-12
1.33834e-12
2.60844e-12
2.06881e-12
2.96034e-12
1.59527e-12
1.60209e-12
1.66357e-12
1.79885e-12
2.14376e-12
2.94533e-12
6.53869e-12
8.43612e-12
1.98441e-12
2.82368e-12
1.53623e-12
1.5602e-12
1.63011e-12
1.74507e-12
1.98784e-12
2.51976e-12
5.30896e-12
7.01037e-12
1.89961e-12
2.68307e-12
1.46014e-12
1.49757e-12
1.57673e-12
1.68485e-12
1.86919e-12
2.21508e-12
4.20074e-12
5.72883e-12
1.82295e-12
2.55345e-12
1.38591e-12
1.43254e-12
1.51904e-12
1.62728e-12
1.78201e-12
2.01129e-12
3.3059e-12
4.68042e-12
1.75356e-12
2.43372e-12
1.31451e-12
1.36819e-12
1.46037e-12
1.57047e-12
1.71103e-12
1.87347e-12
2.58401e-12
3.82228e-12
1.69087e-12
2.32343e-12
1.24712e-12
1.30456e-12
1.40023e-12
1.5138e-12
1.65106e-12
1.77368e-12
2.002e-12
3.1173e-12
1.63389e-12
2.22196e-12
1.18373e-12
1.24282e-12
1.3398e-12
1.45614e-12
1.5942e-12
1.69691e-12
1.52823e-12
2.53677e-12
1.67423e-12
2.12895e-12
1.1241e-12
1.18381e-12
1.28113e-12
1.39811e-12
1.53703e-12
1.63301e-12
1.14551e-12
2.05666e-12
1.34009e-09
4.47796e-11
1.10449e-12
1.12691e-12
1.22381e-12
1.34095e-12
1.48042e-12
1.57608e-12
8.37917e-13
1.65895e-12
6.72248e-08
5.72948e-08
7.47443e-10
1.73981e-12
1.14179e-12
1.28202e-12
1.42023e-12
1.51665e-12
5.79613e-13
1.32614e-12
2.88807e-12
3.67201e-12
1.42888e-12
1.2139e-12
1.06696e-12
1.00328e-12
1.13532e-12
1.53258e-12
3.32024e-12
3.76419e-12
2.80467e-12
3.56365e-12
1.42882e-12
1.24796e-12
1.11952e-12
1.03646e-12
1.0778e-12
1.32147e-12
2.84516e-12
3.32896e-12
2.72009e-12
3.4476e-12
1.40675e-12
1.2572e-12
1.15063e-12
1.0664e-12
1.05444e-12
1.17434e-12
2.34332e-12
2.85454e-12
2.64204e-12
3.3363e-12
1.37687e-12
1.2542e-12
1.1687e-12
1.09278e-12
1.05501e-12
1.08767e-12
1.91284e-12
2.44331e-12
2.56982e-12
3.23073e-12
1.34358e-12
1.24357e-12
1.1768e-12
1.11295e-12
1.06616e-12
1.04597e-12
1.54357e-12
2.08665e-12
2.50311e-12
3.13041e-12
1.30721e-12
1.22643e-12
1.17663e-12
1.12652e-12
1.08179e-12
1.0317e-12
1.22602e-12
1.77649e-12
2.44155e-12
3.03583e-12
1.26928e-12
1.20468e-12
1.17025e-12
1.13378e-12
1.09659e-12
1.03238e-12
9.54844e-13
1.50722e-12
2.47333e-12
2.9472e-12
1.23104e-12
1.18045e-12
1.15833e-12
1.13452e-12
1.10749e-12
1.0406e-12
7.23153e-13
1.27502e-12
1.58603e-09
5.11239e-11
1.25189e-12
1.15362e-12
1.1427e-12
1.13019e-12
1.11316e-12
1.05103e-12
5.2596e-13
1.07547e-12
1.00726e-07
5.38074e-08
7.17006e-10
3.54819e-12
1.1048e-12
1.1189e-12
1.1125e-12
1.05716e-12
3.53188e-13
9.07667e-13
3.87693e-12
4.3688e-12
1.10819e-12
7.6095e-13
4.95121e-13
3.49856e-13
4.85593e-13
7.92615e-13
2.01289e-12
2.04068e-12
3.80041e-12
4.30106e-12
1.15328e-12
8.42753e-13
6.00278e-13
4.20472e-13
4.296e-13
6.44562e-13
1.84751e-12
1.92524e-12
3.72407e-12
4.2264e-12
1.17583e-12
9.00699e-13
6.84339e-13
4.99733e-13
4.25864e-13
5.32512e-13
1.60729e-12
1.73056e-12
3.6518e-12
4.15044e-12
1.18701e-12
9.43421e-13
7.50982e-13
5.7436e-13
4.58373e-13
4.63896e-13
1.39314e-12
1.55493e-12
3.58339e-12
4.07546e-12
1.18972e-12
9.74076e-13
8.04333e-13
6.4052e-13
5.08036e-13
4.39857e-13
1.20199e-12
1.39603e-12
3.51968e-12
4.00176e-12
1.18569e-12
9.9569e-13
8.47338e-13
6.98481e-13
5.63083e-13
4.51053e-13
1.03325e-12
1.25366e-12
3.45941e-12
3.92968e-12
1.17682e-12
1.00987e-12
8.80361e-13
7.4732e-13
6.1718e-13
4.83751e-13
8.86177e-13
1.12723e-12
3.48608e-12
3.86131e-12
1.1646e-12
1.01772e-12
9.05506e-13
7.88007e-13
6.67004e-13
5.27002e-13
7.5996e-13
1.01552e-12
1.81238e-09
5.28109e-11
1.25754e-12
1.02087e-12
9.25128e-13
8.21655e-13
7.1076e-13
5.73548e-13
6.54454e-13
9.18466e-13
2.84792e-07
3.76211e-08
6.43938e-10
5.35555e-12
9.3126e-13
8.47048e-13
7.48268e-13
6.16258e-13
5.70012e-13
8.39152e-13
4.84438e-12
4.91215e-12
7.32215e-13
4.98027e-13
2.722e-13
1.51931e-13
2.66558e-13
4.68123e-13
1.45096e-12
1.30058e-12
4.77832e-12
4.88909e-12
7.68851e-13
5.35911e-13
3.11152e-13
1.24621e-13
1.63339e-13
3.64213e-13
1.4406e-12
1.31747e-12
4.71482e-12
4.86178e-12
7.95566e-13
5.72377e-13
3.60582e-13
1.62504e-13
7.63043e-14
2.64809e-13
1.33551e-12
1.2433e-12
4.65306e-12
4.82944e-12
8.1699e-13
6.05367e-13
4.10245e-13
2.20566e-13
4.5515e-14
1.72695e-13
1.24016e-12
1.17479e-12
4.59411e-12
4.79412e-12
8.33487e-13
6.35619e-13
4.57109e-13
2.80754e-13
1.08472e-13
9.01036e-14
1.15291e-12
1.11149e-12
4.53745e-12
4.75625e-12
8.45918e-13
6.61716e-13
4.99847e-13
3.37191e-13
1.76382e-13
3.36488e-14
1.07362e-12
1.0535e-12
4.48359e-12
4.71749e-12
8.54619e-13
6.84087e-13
5.37909e-13
3.89159e-13
2.39009e-13
7.4465e-14
1.0032e-12
1.0009e-12
4.51065e-12
4.6798e-12
8.59558e-13
7.02254e-13
5.71255e-13
4.35516e-13
2.95864e-13
1.37272e-13
9.405e-13
9.53622e-13
1.98312e-09
5.04338e-11
1.0441e-12
7.17795e-13
6.00167e-13
4.76541e-13
3.47848e-13
1.97147e-13
8.85903e-13
9.10925e-13
4.51798e-07
1.6876e-08
3.95587e-10
4.36258e-12
6.26584e-13
5.1339e-13
3.94704e-13
2.53286e-13
8.38688e-13
8.82507e-13
5.47145e-12
5.19264e-12
5.23903e-13
6.01525e-13
5.1026e-13
4.40508e-13
4.00823e-13
4.16356e-13
1.21798e-12
9.89692e-13
5.41263e-12
5.19875e-12
4.66825e-13
5.41322e-13
4.57403e-13
3.92903e-13
3.55161e-13
3.77741e-13
1.28088e-12
1.06437e-12
5.35842e-12
5.20441e-12
4.20366e-13
4.87881e-13
4.10181e-13
3.48151e-13
3.12163e-13
3.35844e-13
1.2392e-12
1.04196e-12
5.30542e-12
5.20375e-12
3.86901e-13
4.42699e-13
3.6981e-13
3.10249e-13
2.73728e-13
2.97275e-13
1.19945e-12
1.01975e-12
5.25387e-12
5.19815e-12
3.65617e-13
4.06664e-13
3.38616e-13
2.79601e-13
2.4067e-13
2.61717e-13
1.16165e-12
9.99043e-13
5.2045e-12
5.18931e-12
3.54463e-13
3.78443e-13
3.13478e-13
2.55073e-13
2.13458e-13
2.30664e-13
1.12593e-12
9.79205e-13
5.15683e-12
5.17742e-12
3.50208e-13
3.56745e-13
2.95557e-13
2.37863e-13
1.93371e-13
2.02916e-13
1.0918e-12
9.60863e-13
5.18654e-12
5.16535e-12
3.50771e-13
3.4061e-13
2.83143e-13
2.26578e-13
1.78486e-13
1.80521e-13
1.06004e-12
9.42575e-13
2.07355e-09
4.72505e-11
6.93e-13
3.29145e-13
2.75333e-13
2.20886e-13
1.71469e-13
1.63572e-13
1.02886e-12
9.25353e-13
5.54739e-07
1.48441e-08
2.98802e-10
3.30306e-12
2.63626e-13
2.22943e-13
1.74757e-13
1.59105e-13
1.00048e-12
9.46886e-13
5.47636e-12
5.16355e-12
5.18199e-13
6.26513e-13
5.39901e-13
4.65938e-13
4.12456e-13
4.08644e-13
1.15066e-12
9.4495e-13
5.41741e-12
5.17167e-12
4.41145e-13
5.57297e-13
4.83204e-13
4.18366e-13
3.71908e-13
3.78165e-13
1.22308e-12
1.02325e-12
5.36349e-12
5.1804e-12
3.74815e-13
4.94141e-13
4.29992e-13
3.72601e-13
3.31915e-13
3.41623e-13
1.18917e-12
1.00422e-12
5.31085e-12
5.18234e-12
3.22151e-13
4.37968e-13
3.82443e-13
3.31583e-13
2.95184e-13
3.0813e-13
1.15677e-12
9.85484e-13
5.25997e-12
5.17984e-12
2.84246e-13
3.90966e-13
3.4185e-13
2.95396e-13
2.62022e-13
2.76651e-13
1.12568e-12
9.68107e-13
5.21115e-12
5.17333e-12
2.603e-13
3.51376e-13
3.07505e-13
2.64689e-13
2.32868e-13
2.47519e-13
1.09603e-12
9.51541e-13
5.16408e-12
5.16404e-12
2.48138e-13
3.18667e-13
2.7903e-13
2.38922e-13
2.07912e-13
2.21384e-13
1.06756e-12
9.36053e-13
5.19405e-12
5.15394e-12
2.45614e-13
2.92468e-13
2.56375e-13
2.18244e-13
1.865e-13
1.9799e-13
1.04066e-12
9.20931e-13
2.07355e-09
4.725e-11
6.40772e-13
2.71827e-13
2.38373e-13
2.0255e-13
1.71087e-13
1.78329e-13
1.01423e-12
9.06414e-13
5.54739e-07
1.48441e-08
2.98781e-10
3.27459e-12
2.12906e-13
1.95371e-13
1.65623e-13
1.6879e-13
9.89528e-13
9.42246e-13
4.85089e-12
4.83216e-12
6.64274e-13
5.1294e-13
3.33469e-13
2.27518e-13
2.61983e-13
4.06163e-13
1.21869e-12
1.15275e-12
4.78659e-12
4.81743e-12
6.80965e-13
5.20123e-13
3.36075e-13
1.94362e-13
1.82321e-13
3.23074e-13
1.24092e-12
1.18131e-12
4.7253e-12
4.79901e-12
6.97631e-13
5.35121e-13
3.5657e-13
1.97615e-13
1.1855e-13
2.38671e-13
1.16404e-12
1.11928e-12
4.66568e-12
4.77512e-12
7.13212e-13
5.53226e-13
3.84988e-13
2.24804e-13
9.03495e-14
1.60282e-13
1.09408e-12
1.06224e-12
4.60875e-12
4.74802e-12
7.28178e-13
5.72862e-13
4.16974e-13
2.63617e-13
1.14936e-13
9.12511e-14
1.03015e-12
1.01027e-12
4.55408e-12
4.71805e-12
7.40909e-13
5.92463e-13
4.49581e-13
3.06074e-13
1.61878e-13
4.56722e-14
9.72923e-13
9.63537e-13
4.50177e-12
4.68639e-12
7.51295e-13
6.10663e-13
4.80695e-13
3.48041e-13
2.12661e-13
6.92701e-14
9.21741e-13
9.21436e-13
4.5304e-12
4.65485e-12
7.59178e-13
6.2705e-13
5.09518e-13
3.87398e-13
2.61459e-13
1.20601e-13
8.76698e-13
8.83887e-13
1.98312e-09
5.04339e-11
9.58389e-13
6.41359e-13
5.35588e-13
4.24174e-13
3.07551e-13
1.73171e-13
8.37957e-13
8.51441e-13
4.51798e-07
1.6876e-08
3.95546e-10
4.31009e-12
5.59138e-13
4.5777e-13
3.50298e-13
2.24317e-13
8.04747e-13
8.43053e-13
3.87961e-12
4.26733e-12
9.71935e-13
6.5527e-13
3.94885e-13
2.18222e-13
3.33066e-13
6.0775e-13
1.50161e-12
1.71791e-12
3.80899e-12
4.21592e-12
1.02138e-12
7.33604e-13
4.98409e-13
3.07335e-13
2.91794e-13
4.88566e-13
1.4108e-12
1.63499e-12
3.73855e-12
4.15588e-12
1.05194e-12
7.93988e-13
5.83678e-13
3.97335e-13
3.04578e-13
3.9567e-13
1.23618e-12
1.47196e-12
3.67042e-12
4.09343e-12
1.07134e-12
8.39918e-13
6.52729e-13
4.77534e-13
3.51098e-13
3.42287e-13
1.07904e-12
1.32472e-12
3.60622e-12
4.03011e-12
1.08304e-12
8.76251e-13
7.09689e-13
5.4791e-13
4.10591e-13
3.3246e-13
9.38967e-13
1.19232e-12
3.54536e-12
3.96698e-12
1.08778e-12
9.03134e-13
7.56222e-13
6.09418e-13
4.72621e-13
3.55174e-13
8.1622e-13
1.07421e-12
3.48782e-12
3.90461e-12
1.08755e-12
9.23026e-13
7.9356e-13
6.61648e-13
5.31036e-13
3.9736e-13
7.1046e-13
9.70697e-13
3.51653e-12
3.84461e-12
1.08262e-12
9.36775e-13
8.2399e-13
7.05921e-13
5.84701e-13
4.46774e-13
6.22574e-13
8.79913e-13
1.81239e-09
5.28136e-11
1.18407e-12
9.4618e-13
8.47953e-13
7.43272e-13
6.31992e-13
4.97347e-13
5.51692e-13
8.02748e-13
2.84792e-07
3.76211e-08
6.43909e-10
5.31411e-12
8.59509e-13
7.72642e-13
6.72532e-13
5.43708e-13
4.98894e-13
7.45861e-13
2.89336e-12
3.58096e-12
1.26821e-12
1.03671e-12
8.7623e-13
7.89266e-13
8.63673e-13
1.15109e-12
2.2077e-12
3.01105e-12
2.81948e-12
3.49476e-12
1.28981e-12
1.08998e-12
9.46445e-13
8.4567e-13
8.48898e-13
1.01621e-12
1.92499e-12
2.68642e-12
2.74227e-12
3.39725e-12
1.28736e-12
1.11804e-12
9.9514e-13
8.95378e-13
8.56609e-13
9.25474e-13
1.58739e-12
2.30614e-12
2.66967e-12
3.30189e-12
1.27562e-12
1.13194e-12
1.02894e-12
9.37993e-13
8.79274e-13
8.80292e-13
1.29021e-12
1.97394e-12
2.60194e-12
3.20938e-12
1.25708e-12
1.13684e-12
1.05182e-12
9.72737e-13
9.09281e-13
8.66931e-13
1.03342e-12
1.68409e-12
2.53844e-12
3.12026e-12
1.23426e-12
1.13369e-12
1.06566e-12
9.99867e-13
9.39962e-13
8.73663e-13
8.10861e-13
1.43175e-12
2.47953e-12
3.03473e-12
1.20841e-12
1.12516e-12
1.07169e-12
1.01848e-12
9.66865e-13
8.90737e-13
6.17984e-13
1.2134e-12
2.5124e-12
2.95426e-12
1.18037e-12
1.11174e-12
1.07199e-12
1.03108e-12
9.88213e-13
9.12128e-13
4.51207e-13
1.02554e-12
1.58603e-09
5.11287e-11
1.2085e-12
1.09553e-12
1.06684e-12
1.03739e-12
1.00472e-12
9.33294e-13
3.1007e-13
8.65376e-13
1.00726e-07
5.38074e-08
7.16987e-10
3.51477e-12
1.03977e-12
1.03651e-12
1.01378e-12
9.49182e-13
1.83447e-13
7.32913e-13
2.0879e-12
2.90114e-12
1.4394e-12
1.38469e-12
1.38612e-12
1.44577e-12
1.64561e-12
2.1191e-12
3.81507e-12
6.27083e-12
2.01291e-12
2.78906e-12
1.41306e-12
1.38005e-12
1.39362e-12
1.44463e-12
1.58335e-12
1.89353e-12
3.16396e-12
5.27132e-12
1.93405e-12
2.66684e-12
1.36444e-12
1.34975e-12
1.37597e-12
1.42711e-12
1.53266e-12
1.73063e-12
2.52604e-12
4.3242e-12
1.86146e-12
2.55147e-12
1.31262e-12
1.31245e-12
1.34931e-12
1.40553e-12
1.49701e-12
1.62298e-12
1.9997e-12
3.54313e-12
1.79502e-12
2.44337e-12
1.25968e-12
1.2712e-12
1.31746e-12
1.37967e-12
1.46786e-12
1.55235e-12
1.56923e-12
2.89941e-12
1.73376e-12