/*--------------------------------*- C++ -*----------------------------------*\
| =========                 |                                                 |
| \\      /  F ield         | OpenFOAM: The Open Source CFD Toolbox           |
|  \\    /   O peration     | Version:  4.1                                   |
|   \\  /    A nd           | Web:      www.OpenFOAM.org                      |
|    \\/     M anipulation  |                                                 |
\*---------------------------------------------------------------------------*/
FoamFile
{
    version     2.0;
    format      ascii;
    class       surfaceScalarField;
    location    "0.52";
    object      phi;
}
// * * * * * * * * * * * * * * * * * * * * * * * * * * * * * * * * * * * * * //

dimensions      [1 0 -1 0 0 0 0];

internalField   nonuniform List<scalar> 
51500
(
3.66271e-13
1.47995e-14
1.47425e-11
-1.50102e-15
1.99976e-14
1.45748e-11
-2.5976e-15
1.88351e-14
1.44086e-11
-2.55919e-15
1.75713e-14
1.42449e-11
-2.48124e-15
1.62591e-14
1.40829e-11
-2.43466e-15
1.49118e-14
1.3923e-11
-2.49366e-15
1.35659e-14
1.37648e-11
-2.44638e-15
1.22303e-14
1.36096e-11
-2.45443e-15
1.08796e-14
1.34565e-11
9.53455e-15
1.33077e-11
-7.43763e-17
3.69588e-13
9.75221e-15
1.84787e-11
-1.04849e-14
9.87257e-15
1.7824e-11
-9.53726e-15
8.41901e-15
1.71928e-11
-9.34622e-15
7.04525e-15
1.65887e-11
-9.0753e-15
5.86761e-15
1.60104e-11
-8.76237e-15
5.04582e-15
1.54566e-11
-8.52532e-15
4.32962e-15
1.49253e-11
-8.29606e-15
3.07606e-15
1.44167e-11
-7.99637e-15
1.89408e-15
1.3928e-11
7.95482e-16
1.34672e-11
-8.01009e-16
3.69489e-13
1.01022e-14
2.3447e-11
-2.27358e-14
1.16638e-14
2.2011e-11
-1.88539e-14
9.64051e-15
2.06708e-11
-1.79246e-14
7.83722e-15
1.94284e-11
-1.69829e-14
6.22837e-15
1.82751e-11
-1.62422e-14
4.78921e-15
1.72042e-11
-1.54064e-14
3.51791e-15
1.62103e-11
-1.47526e-14
2.37433e-15
1.52846e-11
-1.39652e-14
1.36895e-15
1.44233e-11
5.11656e-16
1.363e-11
-1.48774e-15
3.63804e-13
1.32192e-14
3.01486e-11
-3.98145e-14
1.42755e-14
2.7462e-11
-3.10118e-14
1.14918e-14
2.50508e-11
-2.88079e-14
9.08007e-15
2.28845e-11
-2.67408e-14
7.0367e-15
2.09444e-11
-2.48893e-14
5.29121e-15
1.92017e-11
-2.32027e-14
3.80152e-15
1.76329e-11
-2.16716e-14
2.51617e-15
1.62179e-11
-2.00692e-14
1.41499e-15
1.49395e-11
4.96801e-16
1.37954e-11
-2.26208e-15
3.47866e-13
1.76357e-14
3.93343e-11
-6.3273e-14
1.77672e-14
3.46498e-11
-4.72903e-14
1.38294e-14
3.0613e-11
-4.2648e-14
1.06092e-14
2.7122e-11
-3.85907e-14
7.99595e-15
2.41065e-11
-3.50358e-14
5.86585e-15
2.149e-11
-3.19835e-14
4.10783e-15
1.92122e-11
-2.92499e-14
2.66395e-15
1.72231e-11
-2.65383e-14
1.47342e-15
1.54795e-11
5.20144e-16
1.39643e-11
-3.03728e-15
3.14202e-13
2.4078e-14
5.21442e-11
-1.18719e-13
2.25281e-14
4.42574e-11
-6.90468e-14
1.68833e-14
3.77538e-11
-6.03695e-14
1.25e-14
3.23552e-11
-5.30787e-14
9.138e-15
2.78706e-11
-4.70212e-14
6.51166e-15
2.41207e-11
-4.18674e-14
4.45314e-15
2.09688e-11
-3.74606e-14
2.82098e-15
1.8306e-11
-3.32983e-14
1.53215e-15
1.60438e-11
5.22868e-16
1.41358e-11
-3.89077e-15
2.47067e-13
4.17283e-14
7.03337e-11
-1.91023e-13
3.64193e-14
5.72991e-11
-9.8716e-14
2.61722e-14
4.70184e-11
-8.32203e-14
1.87024e-14
3.8871e-11
-7.09717e-14
1.32667e-14
3.2377e-11
-6.10898e-14
9.23783e-15
2.71555e-11
-5.3062e-14
6.20584e-15
2.29256e-11
-4.63828e-14
3.91426e-15
1.94732e-11
-4.0467e-14
2.15399e-15
1.66343e-11
7.96162e-16
1.43103e-11
-4.74122e-15
1.65472e-13
-2.17796e-13
9.67369e-11
-2.82935e-13
-2.429e-13
7.5268e-11
-1.3893e-13
-2.57758e-13
5.91813e-11
-1.12528e-13
-2.67342e-13
4.70485e-11
-9.26806e-14
-2.73708e-13
3.78023e-11
-7.73978e-14
-2.77924e-13
3.06723e-11
-6.53675e-14
-2.80696e-13
2.51139e-11
-5.57966e-14
-2.82507e-13
2.07371e-11
-4.75191e-14
-2.83676e-13
1.72553e-11
-2.87886e-13
1.44924e-11
-5.66821e-15
2.67946e-12
-6.72883e-10
1.58193e-10
2.13532e-12
-7.14443e-10
1.19391e-10
1.93127e-12
-7.18102e-10
9.31104e-11
1.75076e-12
-7.20747e-10
7.42888e-11
1.59086e-12
-7.22806e-10
6.06501e-11
1.44973e-12
-7.24423e-10
5.06173e-11
1.32511e-12
-7.25702e-10
4.31445e-11
1.21492e-12
-7.26719e-10
3.75162e-11
1.1031e-12
-7.27567e-10
3.3232e-11
-7.39988e-10
3.01653e-11
-6.62881e-15
-2.20174e-10
1.20968e-07
-8.60705e-07
2.6734e-10
1.02255e-07
-9.37238e-07
2.76697e-10
8.92499e-08
-9.39138e-07
2.67772e-10
7.85089e-08
-9.40605e-07
2.58546e-10
6.95415e-08
-9.41879e-07
2.49347e-10
6.19898e-08
-9.43e-07
2.40356e-10
5.55785e-08
-9.43997e-07
2.29594e-10
5.00945e-08
-9.44894e-07
1.2173e-10
4.53742e-08
-9.4576e-07
4.19388e-08
-7.65035e-15
-9.77386e-07
3.42476e-13
9.04761e-14
5.2215e-13
-1.90203e-14
8.52737e-14
5.13245e-13
-2.55637e-14
7.51297e-14
5.04796e-13
-2.48544e-14
6.53082e-14
4.94944e-13
-2.44594e-14
5.58231e-14
4.86223e-13
-2.42999e-14
4.66426e-14
4.78252e-13
-2.41101e-14
3.7771e-14
4.69227e-13
-2.39352e-14
2.92087e-14
4.61387e-13
-2.59521e-14
2.08871e-14
4.53498e-13
1.2974e-14
4.45268e-13
-1.58619e-15
2.84532e-13
8.51715e-14
7.26088e-13
-7.17162e-14
7.73958e-14
6.88966e-13
-8.61936e-14
6.55335e-14
6.54301e-13
-8.31776e-14
5.42112e-14
6.19773e-13
-8.08426e-14
4.32952e-14
5.87991e-13
-7.86573e-14
3.15301e-14
5.57405e-13
-7.63393e-14
2.12061e-14
5.29616e-13
-7.5012e-14
1.38704e-14
5.02702e-13
-7.91786e-14
7.69632e-15
4.78507e-13
2.56898e-15
4.53908e-13
-4.31859e-15
1.97948e-13
1.07605e-13
1.02626e-12
-1.814e-13
9.57822e-14
9.35305e-13
-1.64061e-13
8.00457e-14
8.57401e-13
-1.5562e-13
6.55975e-14
7.81079e-13
-1.48159e-13
5.25751e-14
7.14147e-13
-1.41241e-13
4.07956e-14
6.53767e-13
-1.3487e-13
3.01319e-14
5.99133e-13
-1.29345e-13
2.05319e-14
5.49737e-13
-1.35072e-13
1.18976e-14
5.04689e-13
4.22083e-15
4.64132e-13
-6.92632e-15
7.53266e-14
1.32269e-13
1.47892e-12
-3.13487e-13
1.14416e-13
1.29267e-12
-2.64493e-13
9.33854e-14
1.13691e-12
-2.45066e-13
7.48387e-14
9.95422e-13
-2.2859e-13
5.86641e-14
8.7456e-13
-2.13641e-13
4.45445e-14
7.70309e-13
-1.99852e-13
3.22743e-14
6.80849e-13
-1.8787e-13
2.15855e-14
6.0376e-13
-1.92586e-13
1.22629e-14
5.3453e-13
4.23696e-15
4.73802e-13
-9.86906e-15
-4.96368e-14
1.64426e-13
2.17802e-12
-4.81282e-13
1.3795e-13
1.81922e-12
-3.93231e-13
1.09782e-13
1.52911e-12
-3.55856e-13
8.58083e-14
1.28112e-12
-3.24703e-13
6.56762e-14
1.07934e-12
-2.96764e-13
4.8785e-14
9.13914e-13
-2.71961e-13
3.45731e-14
7.76836e-13
-2.5085e-13
2.26528e-14
6.62903e-13
-2.52349e-13
1.26174e-14
5.67209e-13
4.30132e-15
4.85382e-13
-1.30263e-14
-1.92265e-13
2.06525e-13
3.28844e-12
-7.00642e-13
1.68375e-13
2.60476e-12
-5.58856e-13
1.3007e-13
2.08465e-12
-4.93158e-13
9.89943e-14
1.66459e-12
-4.39173e-13
7.38659e-14
1.34172e-12
-3.92546e-13
5.35126e-14
1.08902e-12
-3.51978e-13
3.70858e-14
8.90255e-13
-3.18334e-13
2.37667e-14
7.32036e-13
-3.1432e-13
1.30227e-14
6.04833e-13
4.31549e-15
4.98587e-13
-1.6015e-14
-6.23527e-13
2.60421e-13
5.09449e-12
-9.93373e-13
2.11154e-13
3.8086e-12
-7.71823e-13
1.58601e-13
2.88311e-12
-6.63278e-13
1.1773e-13
2.18486e-12
-5.76006e-13
8.60358e-14
1.67973e-12
-5.02477e-13
6.14126e-14
1.30467e-12
-4.40858e-13
4.21442e-14
1.02318e-12
-3.90146e-13
2.70308e-14
8.1047e-13
-3.78817e-13
1.49696e-14
6.4428e-13
5.11106e-15
5.13337e-13
-1.90646e-14
-1.14389e-12
3.17799e-13
8.12829e-12
-1.38661e-12
2.26841e-13
5.69441e-12
-1.04672e-12
1.60655e-13
4.05221e-12
-8.73956e-13
1.12423e-13
2.90491e-12
-7.38575e-13
7.70224e-14
2.12187e-12
-6.28929e-13
5.06859e-14
1.57209e-12
-5.38923e-13
3.09183e-14
1.18226e-12
-4.67316e-13
1.5936e-14
8.98886e-13
-4.45349e-13
4.49851e-15
6.89428e-13
-4.22843e-15
5.2878e-13
-2.22255e-14
-1.97055e-12
8.82168e-12
1.4897e-11
-1.72163e-12
-2.27786e-11
8.02446e-12
-1.04118e-12
-2.0985e-11
5.37628e-12
-8.67359e-13
-1.94978e-11
3.71579e-12
-7.40859e-13
-1.84045e-11
2.67405e-12
-6.80428e-13
-1.76048e-11
2.00014e-12
-6.22085e-13
-1.70282e-11
1.5533e-12
-5.5652e-13
-1.66221e-11
1.25047e-12
-5.5691e-13
-1.63489e-11
1.03737e-12
-1.62691e-11
8.79452e-13
-2.54443e-14
-7.28793e-10
9.69418e-09
7.10886e-08
-2.6582e-10
4.72427e-09
-1.4752e-09
-2.76225e-10
3.53505e-09
-1.62383e-09
-2.66443e-10
2.70689e-09
-1.59854e-09
-2.56675e-10
2.10696e-09
-1.56758e-09
-2.47133e-10
1.66424e-09
-1.53495e-09
-2.3793e-10
1.33219e-09
-1.50258e-09
-2.29151e-10
1.07947e-09
-1.47166e-09
-2.23139e-10
8.84646e-10
-1.44666e-09
7.37015e-10
-2.88344e-14
-1.64541e-09
3.45225e-13
8.20244e-14
1.85389e-14
-1.70451e-14
7.78655e-14
1.68591e-14
-2.20994e-14
6.86907e-14
1.55096e-14
-2.01935e-14
5.98393e-14
1.39893e-14
-1.8637e-14
5.12818e-14
1.23917e-14
-2.01369e-14
4.29576e-14
1.0269e-14
-1.89519e-14
3.4984e-14
9.4768e-15
-1.93478e-14
2.72374e-14
8.60035e-15
-2.34673e-14
1.97501e-14
7.76434e-15
1.26163e-14
7.78067e-15
-1.34484e-15
2.93895e-13
5.92002e-14
2.9821e-14
-6.51876e-14
5.43589e-14
2.67205e-14
-7.16761e-14
4.60806e-14
2.61043e-14
-6.67434e-14
3.81765e-14
2.17447e-14
-6.55081e-14
3.08238e-14
1.87776e-14
-6.25189e-14
2.40429e-14
1.68876e-14
-6.12097e-14
1.77546e-14
1.35315e-14
-6.0573e-14
1.20208e-14
1.17188e-14
-7.13383e-14
6.84846e-15
1.09346e-14
2.40571e-15
9.54161e-15
-4.41769e-15
2.15442e-13
7.56919e-14
4.49239e-14
-1.65556e-13
6.83644e-14
4.07317e-14
-1.36054e-13
5.75165e-14
3.96144e-14
-1.24691e-13
4.7576e-14
3.42474e-14
-1.18394e-13
3.85495e-14
2.87484e-14
-1.12451e-13
3.0271e-14
2.36601e-14
-1.06878e-13
2.30377e-14
2.02966e-14
-1.04881e-13
1.63977e-14
1.7701e-14
-1.2127e-13
9.52837e-15
1.51242e-14
3.34029e-15
1.25076e-14
-7.2377e-15
9.41186e-14
9.40813e-14
7.21644e-14
-2.89279e-13
8.2368e-14
6.72621e-14
-2.18219e-13
6.76063e-14
6.36754e-14
-1.94421e-13
5.46096e-14
5.24224e-14
-1.81134e-13
4.32883e-14
4.36481e-14
-1.68305e-13
3.35128e-14
3.67061e-14
-1.51962e-13
2.5375e-14
3.08547e-14
-1.52143e-13
1.70228e-14
2.60394e-14
-1.7317e-13
9.77166e-15
2.32766e-14
3.46788e-15
1.73171e-14
-1.03691e-14
-2.36794e-14
1.18648e-13
1.23522e-13
-4.4635e-13
1.00093e-13
1.1225e-13
-3.22349e-13
8.00678e-14
1.02405e-13
-2.6856e-13
6.29663e-14
8.33381e-14
-2.44665e-13
4.86995e-14
6.7383e-14
-2.22725e-13
3.67969e-14
5.50346e-14
-2.02698e-13
2.75471e-14
4.61104e-14
-2.00741e-13
1.83303e-14
3.96093e-14
-2.26951e-13
1.03571e-14
3.39465e-14
3.58608e-15
2.42839e-14
-1.31835e-14
-1.60043e-13
1.51471e-13
2.15076e-13
-6.51958e-13
1.23737e-13
1.93297e-13
-4.34876e-13
9.56838e-14
1.65803e-13
-3.66267e-13
7.31022e-14
1.30369e-13
-3.25672e-13
5.50708e-14
1.03473e-13
-2.89378e-13
4.05165e-14
8.29459e-14
-2.5814e-13
2.92572e-14
6.80255e-14
-2.4561e-13
1.92025e-14
5.68161e-14
-2.8294e-13
1.04487e-14
4.58718e-14
3.59563e-15
3.24632e-14
-1.64818e-14
-5.74277e-13
1.93463e-13
3.7976e-13
-9.28323e-13
1.5409e-13
3.30087e-13
-5.82812e-13
1.15193e-13
2.66674e-13
-4.88419e-13
8.54055e-14
2.02986e-13
-4.22939e-13
6.25162e-14
1.5595e-13
-3.66727e-13
4.49461e-14
1.21941e-13
-3.19292e-13
3.22763e-14
9.77062e-14
-2.89851e-13
2.03584e-14
7.87023e-14
-3.40782e-13
1.10874e-14
6.4318e-14
3.83106e-15
4.26153e-14
-1.96718e-14
-1.10219e-12
3.15346e-13
6.87275e-13
-1.30159e-12
2.22584e-13
5.63579e-13
-7.82876e-13
1.56481e-13
4.28876e-13
-6.41534e-13
1.09517e-13
3.10607e-13
-5.3911e-13
7.58931e-14
2.30826e-13
-4.55203e-13
5.15028e-14
1.75757e-13
-3.88084e-13
3.36148e-14
1.35227e-13
-3.40059e-13
2.04367e-14
1.06588e-13
-4.00943e-13
1.06341e-14
8.59093e-14
3.41933e-15
5.42735e-14
-2.29987e-14
-2.07648e-12
3.31336e-11
3.8922e-12
-1.78282e-12
1.10056e-12
8.92678e-13
-1.04588e-12
5.88961e-13
6.22995e-13
-8.32907e-13
3.58787e-13
4.37844e-13
-6.79075e-13
1.91881e-13
3.17561e-13
-5.59622e-13
7.05935e-14
2.36608e-13
-4.65726e-13
-1.76641e-14
1.80828e-13
-3.98423e-13
-8.17877e-14
1.41123e-13
-4.66982e-13
-1.28238e-13
1.12501e-13
-1.59216e-13
7.36425e-14
-2.63448e-14
-4.22941e-10
4.34549e-09
6.41625e-08
-2.59131e-11
1.79929e-10
1.0325e-10
-2.60825e-11
9.15111e-11
-3.12346e-11
-2.17721e-11
6.03739e-11
-2.3874e-11
-1.82562e-11
4.10755e-11
-1.68791e-11
-1.54476e-11
2.86383e-11
-1.13995e-11
-1.31801e-11
2.04135e-11
-8.84241e-12
-1.13362e-11
1.48413e-11
-6.80598e-12
-9.81368e-12
1.09877e-11
-5.21604e-12
8.15662e-12
-2.98836e-14
-2.77324e-12
3.45342e-13
8.11561e-14
1.05051e-14
-1.70424e-14
7.7112e-14
9.45867e-15
-2.17792e-14
6.80596e-14
7.83025e-15
-1.97028e-14
5.92808e-14
6.23169e-15
-1.91453e-14
5.08275e-14
4.3296e-15
-1.93828e-14
4.26468e-14
3.51168e-15
-1.82397e-14
3.47172e-14
2.24168e-15
-1.91611e-14
2.7055e-14
1.15618e-15
-2.31128e-14
1.96744e-14
7.62449e-16
1.26091e-14
3.68938e-16
-1.53501e-15
2.9485e-13
5.81648e-14
1.7821e-14
-6.45616e-14
5.3475e-14
1.55458e-14
-7.06594e-14
4.5336e-14
1.60069e-14
-6.43495e-14
3.76431e-14
1.27018e-14
-6.24573e-14
3.04071e-14
9.13411e-15
-6.16873e-14
2.36888e-14
6.69019e-15
-5.89673e-14
1.75527e-14
5.53798e-15
-5.86187e-14
1.19153e-14
4.23564e-15
-7.05551e-14
6.79263e-15
2.98555e-15
2.41408e-15
2.16181e-15
-4.35611e-15
2.17784e-13
7.39717e-14
2.57876e-14
-1.63615e-13
6.68887e-14
2.42851e-14
-1.32113e-13
5.61899e-14
2.58666e-14
-1.16634e-13
4.62707e-14
1.9685e-14
-1.13558e-13
3.73793e-14
1.63782e-14
-1.03605e-13
2.93348e-14
1.36645e-14
-9.86935e-14
2.18211e-14
1.06594e-14
-1.02619e-13
1.50366e-14
8.7804e-15
-1.19846e-13
9.39061e-15
7.51485e-15
3.12012e-15
5.4732e-15
-7.14749e-15
9.72165e-14
9.19457e-14
4.25908e-14
-2.85939e-13
8.04538e-14
4.25534e-14
-2.11357e-13
6.59727e-14
4.48905e-14
-1.79137e-13
5.32452e-14
3.65952e-14
-1.67025e-13
4.20145e-14
2.99745e-14
-1.5558e-13
3.21583e-14
2.51573e-14
-1.44469e-13
2.35606e-14
2.08249e-14
-1.46603e-13
1.59983e-14
1.7778e-14
-1.71379e-13
9.55242e-15
1.49273e-14
3.52675e-15
1.01401e-14
-1.04762e-14
-1.87031e-14
1.15836e-13
7.46737e-14
-4.40759e-13
9.78522e-14
7.81864e-14
-2.96144e-13
7.81518e-14
7.68727e-14
-2.58196e-13
6.13178e-14
6.1778e-14
-2.34919e-13
4.73065e-14
5.18378e-14
-2.13754e-13
3.54907e-14
4.26988e-14
-1.94849e-13
2.5542e-14
3.55633e-14
-1.88463e-13
1.73853e-14
3.10014e-14
-2.24643e-13
9.73187e-15
2.75585e-14
3.57533e-15
1.79785e-14
-1.33216e-14
-1.52851e-13
1.47763e-13
1.33001e-13
-6.43296e-13
1.20808e-13
1.37919e-13
-4.12397e-13
9.33246e-14
1.30368e-13
-3.54802e-13
7.12569e-14
1.04847e-13
-3.15552e-13
5.34953e-14
8.51704e-14
-2.80405e-13
3.90729e-14
7.06429e-14
-2.50128e-13
2.74145e-14
5.88291e-14
-2.33339e-13
1.79617e-14
4.90112e-14
-2.79855e-13
1.04905e-14
4.31596e-14
3.66625e-15
2.7879e-14
-1.6667e-14
-5.57518e-13
1.89129e-13
2.37452e-13
-9.14765e-13
1.50546e-13
2.46617e-13
-5.631e-13
1.12562e-13
2.15958e-13
-4.75216e-13
8.3276e-14
1.70197e-13
-4.11513e-13
6.07919e-14
1.35301e-13
-3.56831e-13
4.33976e-14
1.09941e-13
-3.11633e-13
2.96986e-14
8.88764e-14
-2.80191e-13
1.89651e-14
7.45885e-14
-3.37663e-13
1.08713e-14
6.29214e-14
3.4644e-15
4.05677e-14
-1.98615e-14
-1.07668e-12
3.10211e-13
4.27877e-13
-1.27965e-12
1.75001e-13
4.30417e-13
-7.61173e-13
1.6947e-13
3.54025e-13
-6.25312e-13
1.21407e-13
2.70549e-13
-5.25735e-13
8.53551e-14
2.09089e-13
-4.44991e-13
5.87608e-14
1.63958e-13
-3.79508e-13
3.90359e-14
1.31508e-13
-3.31069e-13
2.4336e-14
1.06924e-13
-3.97831e-13
1.32345e-14
8.7424e-14
4.96813e-15
5.73713e-14
-2.29608e-14
-2.04279e-12
3.34275e-11
5.60418e-12
-1.74728e-12
5.21767e-13
7.7922e-13
-1.02097e-12
2.21656e-13
5.7835e-13
-8.13497e-13
1.46079e-13
4.25232e-13
-6.63073e-13
9.58957e-14
3.16273e-13
-5.46058e-13
6.16484e-14
2.41163e-13
-4.54226e-13
3.80294e-14
1.8612e-13
-3.86992e-13
2.15594e-14
1.47108e-13
-4.59745e-13
9.98786e-15
1.16232e-13
1.92773e-15
7.14821e-14
-2.64988e-14
-3.93827e-10
6.33323e-09
6.37191e-08
-4.43064e-12
4.45598e-11
1.48049e-10
-1.80755e-12
2.92073e-12
6.6975e-13
-1.88446e-12
1.68057e-12
3.91786e-13
-1.45741e-12
1.08517e-12
2.45389e-13
-1.14107e-12
7.30639e-13
2.48883e-13
-9.0715e-13
5.08134e-13
2.29404e-13
-7.36817e-13
3.6403e-13
2.3252e-13
-6.77314e-13
2.65901e-13
2.09383e-13
1.67462e-13
-3.00907e-14
2.40413e-13
3.45222e-13
8.12589e-14
1.83668e-14
-1.73887e-14
7.71861e-14
1.57434e-14
-2.17632e-14
6.81538e-14
1.35299e-14
-2.04498e-14
5.93581e-14
7.77725e-15
-1.74235e-14
5.08812e-14
8.10177e-15
-1.98315e-14
4.26623e-14
3.65824e-15
-1.90784e-14
3.47692e-14
4.88373e-15
-1.88381e-14
2.71252e-14
3.93793e-15
-2.3126e-14
1.97143e-14
8.8537e-16
1.26413e-14
2.37326e-16
-1.75901e-15
2.94557e-13
5.82801e-14
2.81422e-14
-6.47836e-14
5.35931e-14
2.66945e-14
-7.07975e-14
4.54178e-14
2.03086e-14
-6.5381e-14
3.76642e-14
1.71271e-14
-6.28889e-14
3.04778e-14
1.14724e-14
-6.08263e-14
2.378e-14
9.44217e-15
-5.90663e-14
1.75944e-14
6.4406e-15
-5.91212e-14
1.19528e-14
7.47235e-15
-7.06327e-14
6.84487e-15
6.2122e-15
2.47057e-15
1.7413e-15
-4.3444e-15
2.17387e-13
7.4148e-14
4.2655e-14
-1.642e-13
6.70344e-14
3.77792e-14
-1.3341e-13
5.6346e-14
3.62141e-14
-1.14771e-13
4.6506e-14
3.32846e-14
-1.11151e-13
3.74937e-14
2.35625e-14
-1.05124e-13
2.94147e-14
1.72998e-14
-9.84519e-14
2.19935e-14
1.6558e-14
-1.02792e-13
1.51981e-14
1.23612e-14
-1.19791e-13
9.2722e-15
1.35877e-14
3.06216e-15
6.34575e-15
-7.43676e-15
9.67863e-14
9.22604e-14
6.76606e-14
-2.86693e-13
8.07844e-14
6.32666e-14
-2.12183e-13
6.61942e-14
6.29195e-14
-1.79561e-13
5.33618e-14
5.09328e-14
-1.66914e-13
4.21956e-14
4.16707e-14
-1.56138e-13
3.22449e-14
3.37722e-14
-1.44401e-13
2.35818e-14
3.25499e-14
-1.47305e-13
1.61197e-14
2.51677e-14
-1.71515e-13
9.9356e-15
2.56212e-14
3.7338e-15
1.97139e-14
-1.01796e-14
-1.94153e-14
1.16336e-13
1.09335e-13
-4.422e-13
9.82268e-14
1.10489e-13
-2.97887e-13
7.85354e-14
1.09455e-13
-2.58062e-13
6.16799e-14
9.28857e-14
-2.35756e-13
4.75512e-14
7.40382e-14
-2.14401e-13
3.57842e-14
6.63063e-14
-1.94845e-13
2.58822e-14
5.70829e-14
-1.87171e-13
1.72848e-14
4.42742e-14
-2.25103e-13
9.51511e-15
3.68986e-14
3.67964e-15
2.4673e-14
-1.33346e-14
-1.54259e-13
1.48546e-13
1.92607e-13
-6.45365e-13
1.21541e-13
2.03474e-13
-4.13957e-13
9.38661e-14
1.82406e-13
-3.55896e-13
7.16995e-14
1.4893e-13
-3.16185e-13
5.38789e-14
1.21461e-13
-2.81241e-13
3.93853e-14
1.0214e-13
-2.50984e-13
2.75806e-14
8.05725e-14
-2.32903e-13
1.83021e-14
7.64353e-14
-2.80596e-13
1.07456e-14
6.06116e-14
3.82123e-15
3.88543e-14
-1.65859e-14
-5.61259e-13
1.90343e-13
3.41203e-13
-9.1868e-13
1.51567e-13
3.51354e-13
-5.65152e-13
1.13382e-13
3.12929e-13
-4.77073e-13
8.39278e-14
2.39966e-13
-4.12792e-13
6.13246e-14
1.95259e-13
-3.58427e-13
4.37776e-14
1.53923e-13
-3.12433e-13
3.01241e-14
1.27842e-13
-2.80947e-13
1.91916e-14
1.05186e-13
-3.38832e-13
1.11233e-14
8.70183e-14
4.03351e-15
5.56354e-14
-1.98444e-14
-1.08403e-12
3.12955e-13
6.07526e-13
-1.28609e-12
1.76928e-13
6.17906e-13
-7.64732e-13
1.39395e-13
5.05617e-13
-6.28359e-13
1.00419e-13
3.82999e-13
-5.28263e-13
7.1852e-14
2.98767e-13
-4.46973e-13
5.34826e-14
2.36065e-13
-3.81198e-13
3.64098e-14
1.85295e-13
-3.32634e-13
2.30038e-14
1.51985e-13
-3.99403e-13
1.25911e-14
1.23605e-13
4.82281e-15
7.81645e-14
-2.31484e-14
-2.0624e-12
3.44685e-11
8.21857e-12
-1.75742e-12
4.84515e-13
1.11673e-12
-1.02714e-12
1.55548e-13
8.18018e-13
-8.18762e-13
1.66692e-13
5.95137e-13
-6.6697e-13
1.09398e-13
4.47435e-13
-5.4948e-13
6.89556e-14
3.39361e-13
-4.56654e-13
3.32441e-14
2.60907e-13
-3.89363e-13
1.71032e-14
2.08183e-13
-4.6229e-13
8.56115e-15
1.6754e-13
3.27714e-15
1.07971e-13
-2.65554e-14
-4.0778e-10
9.9657e-09
6.69432e-08
-3.64342e-12
6.88041e-11
1.60544e-10
-1.28762e-12
1.37366e-12
5.17953e-13
-1.06659e-12
7.90685e-13
1.39316e-13
-8.4074e-13
5.5981e-13
8.23786e-14
-6.71388e-13
4.0847e-13
5.77979e-14
-5.43666e-13
3.05631e-13
4.38979e-14
-4.51232e-13
2.33345e-13
3.4287e-14
-5.2916e-13
1.80614e-13
2.72599e-14
1.10531e-13
-3.01439e-14
2.248e-14
3.44908e-13
8.14178e-14
2.17648e-14
-1.77194e-14
7.73335e-14
1.50951e-14
-2.23939e-14
6.82333e-14
1.78689e-14
-1.99082e-14
5.94642e-14
1.31283e-14
-1.96109e-14
5.09301e-14
7.57481e-15
-1.91957e-14
4.2729e-14
4.74052e-15
-1.8894e-14
3.47973e-14
2.23499e-15
-1.96188e-14
2.71627e-14
1.15532e-15
-2.31595e-14
1.9781e-14
9.06449e-16
1.26721e-14
1.11676e-15
-1.54716e-15
2.94154e-13
5.84666e-14
3.64276e-14
-6.54112e-14
5.37552e-14
3.31235e-14
-7.03824e-14
4.55878e-14
3.18673e-14
-6.67553e-14
3.77867e-14
2.10551e-14
-6.19914e-14
3.06055e-14
2.14811e-14
-6.16439e-14
2.38603e-14
1.30564e-14
-5.75792e-14
1.7683e-14
8.89272e-15
-5.90228e-14
1.20155e-14
5.28848e-15
-7.09376e-14
6.90905e-15
4.51023e-15
2.53172e-15
3.59739e-15
-4.3522e-15
2.167e-13
7.44637e-14
4.67245e-14
-1.65189e-13
6.72903e-14
4.94962e-14
-1.33649e-13
5.65544e-14
5.21638e-14
-1.15416e-13
4.66616e-14
4.22013e-14
-1.13908e-13
3.76093e-14
3.08534e-14
-1.04105e-13
2.95292e-14
2.58905e-14
-9.92295e-14
2.21383e-14
1.79161e-14
-1.02318e-13
1.53644e-14
1.88527e-14
-1.20097e-13
9.41786e-15
1.22261e-14
3.48361e-15
8.33728e-15
-7.44153e-15
9.59643e-14
9.2741e-14
8.83872e-14
-2.8801e-13
8.12068e-14
8.65784e-14
-2.13002e-13
6.65655e-14
8.94114e-14
-1.80183e-13
5.37094e-14
7.41246e-14
-1.67797e-13
4.25133e-14
5.78737e-14
-1.55742e-13
3.25707e-14
4.30033e-14
-1.45226e-13
2.38046e-14
3.49481e-14
-1.47285e-13
1.62765e-14
3.4858e-14
-1.71707e-13
9.95576e-15
2.6969e-14
3.57608e-15
1.56449e-14
-1.03084e-14
-2.08138e-14
1.17119e-13
1.54314e-13
-4.44221e-13
9.89199e-14
1.57978e-13
-2.98938e-13
7.90482e-14
1.5461e-13
-2.59188e-13
6.21032e-14
1.24961e-13
-2.36313e-13
4.78817e-14
1.03421e-13
-2.15377e-13
3.60771e-14
8.31174e-14
-1.95363e-13
2.60059e-14
6.21165e-14
-1.88182e-13
1.75544e-14
5.34237e-14
-2.25607e-13
9.97336e-15
4.51204e-14
3.99279e-15
2.9198e-14
-1.32945e-14
-1.56432e-13
1.49785e-13
2.68081e-13
-6.48906e-13
1.22536e-13
2.80619e-13
-4.15759e-13
9.47368e-14
2.60857e-13
-3.57633e-13
7.23565e-14
2.04687e-13
-3.1716e-13
5.44677e-14
1.65944e-13
-2.83137e-13
3.97776e-14
1.24835e-13
-2.51444e-13
2.80508e-14
1.1294e-13
-2.33832e-13
1.84515e-14
8.34412e-14
-2.81593e-13
1.0981e-14
7.04529e-14
3.92825e-15
4.59574e-14
-1.64944e-14
-5.67512e-13
1.92146e-13
4.82042e-13
-9.24233e-13
1.53139e-13
4.95874e-13
-5.69161e-13
1.14555e-13
4.24137e-13
-4.79428e-13
8.4885e-14
3.34644e-13
-4.15396e-13
6.20522e-14
2.62702e-13
-3.60179e-13
4.44436e-14
2.07988e-13
-3.14201e-13
3.06234e-14
1.63952e-13
-2.82027e-13
1.96664e-14
1.26184e-13
-3.40437e-13
1.14767e-14
1.05083e-13
4.43055e-15
6.6191e-14
-1.97442e-14
-1.09551e-12
3.1716e-13
8.67363e-13
-1.29581e-12
1.79366e-13
8.66734e-13
-7.70536e-13
1.40838e-13
7.00535e-13
-6.32804e-13
1.01492e-13
5.28011e-13
-5.31926e-13
7.26346e-14
4.01604e-13
-4.50071e-13
5.37898e-14
3.08474e-13
-3.83734e-13
3.69233e-14
2.41072e-13
-3.34783e-13
2.35186e-14
1.82461e-13
-4.01693e-13
1.30435e-14
1.45023e-13
5.17656e-15
9.09671e-14
-2.30948e-14
-2.09432e-12
3.65231e-11
1.11455e-11
-1.77201e-12
4.98678e-13
1.5699e-12
-1.03661e-12
1.55996e-13
1.14262e-12
-8.25953e-13
1.65535e-13
8.25417e-13
-6.72784e-13
1.08073e-13
6.03583e-13
-5.54283e-13
6.67102e-14
4.49598e-13
-4.60244e-13
3.15043e-14
3.26634e-13
-3.92505e-13
1.74733e-14
2.65512e-13
-4.6582e-13
9.0614e-15
1.98444e-13
3.69143e-15
1.20797e-13
-2.65961e-14
-4.35709e-10
1.38326e-08
7.21302e-08
-3.73751e-12
1.0202e-10
1.74278e-10
-1.29224e-12
2.11397e-12
5.30001e-13
-1.06821e-12
1.18603e-12
8.49843e-14
-8.4304e-13
8.44331e-13
6.36671e-14
-6.7379e-13
6.04537e-13
4.95342e-14
-5.46117e-13
4.42351e-13
3.92011e-14
-4.53565e-13
3.30244e-13
3.15541e-14
-5.32479e-13
2.54819e-13
2.5795e-14
1.51336e-13
-3.028e-14
2.14767e-14
3.44419e-13
8.16203e-14
2.8273e-14
-1.80026e-14
7.75283e-14
2.78181e-14
-2.29231e-14
6.83614e-14
2.21463e-14
-2.01414e-14
5.95689e-14
1.74853e-14
-1.99153e-14
5.10544e-14
8.51232e-15
-1.97766e-14
4.28193e-14
5.8981e-15
-1.89069e-14
3.48941e-14
5.0476e-15
-1.9454e-14
2.72295e-14
4.15003e-15
-2.31296e-14
1.98456e-14
7.02685e-15
1.27482e-14
1.85185e-14
-1.61568e-15
2.93612e-13
5.86728e-14
4.87928e-14
-6.59958e-14
5.39403e-14
4.46439e-14
-7.11029e-14
4.5763e-14
4.37544e-14
-6.58373e-14
3.79506e-14
3.39811e-14
-6.41397e-14
3.06928e-14
2.1048e-14
-6.09712e-14
2.39713e-14
1.24624e-14
-5.9712e-14
1.77701e-14
1.01506e-14
-5.86813e-14
1.21342e-14
9.96881e-15
-7.08617e-14
6.99273e-15
8.57239e-15
2.59826e-15
1.58462e-14
-4.44089e-15
2.15881e-13
7.48579e-14
7.13621e-14
-1.66286e-13
6.76032e-14
6.86211e-14
-1.34038e-13
5.68232e-14
6.90037e-14
-1.17194e-13
4.6879e-14
5.5088e-14
-1.11811e-13
3.78252e-14
4.27515e-14
-1.05836e-13
2.96551e-14
2.46895e-14
-9.80002e-14
2.23164e-14
1.92928e-14
-1.03253e-13
1.54131e-14
2.06714e-14
-1.20174e-13
9.75916e-15
2.00987e-14
3.33083e-15
1.91956e-14
-7.55776e-15
9.49528e-14
9.33467e-14
1.14207e-13
-2.8953e-13
8.1743e-14
1.18516e-13
-2.13812e-13
6.70098e-14
1.18487e-13
-1.81286e-13
5.40865e-14
9.51256e-14
-1.68441e-13
4.28922e-14
7.73167e-14
-1.56367e-13
3.29511e-14
5.96706e-14
-1.45121e-13
2.40485e-14
3.80137e-14
-1.47319e-13
1.64843e-14
3.16481e-14
-1.72296e-13
9.67748e-15
2.98179e-14
4.05093e-15
2.87117e-14
-1.017e-14
-2.25532e-14
1.18074e-13
1.99344e-13
-4.46647e-13
9.97342e-14
2.09343e-13
-3.008e-13
7.97322e-14
2.00168e-13
-2.60241e-13
6.26338e-14
1.62231e-13
-2.37238e-13
4.82942e-14
1.31218e-13
-2.16687e-13
3.64029e-14
1.07351e-13
-1.95767e-13
2.63815e-14
6.95795e-14
-1.9039e-13
1.77275e-14
5.54187e-14
-2.26199e-13
1.04872e-14
4.83628e-14
4.19629e-15
4.38041e-14
-1.34343e-14
-1.59209e-13
1.51317e-13
3.56152e-13
-6.52911e-13
1.23764e-13
3.70395e-13
-4.18759e-13
9.56972e-14
3.35946e-13
-3.59544e-13
7.3197e-14
2.70005e-13
-3.18843e-13
5.51724e-14
2.15788e-13
-2.84399e-13
4.03653e-14
1.76891e-13
-2.53137e-13
2.84667e-14
1.15542e-13
-2.34333e-13
1.88375e-14
8.8702e-14
-2.82723e-13
1.13741e-14
7.33775e-14
4.16119e-15
6.33645e-14
-1.65627e-14
-5.75316e-13
1.94616e-13
6.31236e-13
-9.31093e-13
1.55032e-13
6.45163e-13
-5.73182e-13
1.16026e-13
5.5662e-13
-4.82862e-13
8.60162e-14
4.33494e-13
-4.18184e-13
6.29319e-14
3.40743e-13
-3.62475e-13
4.51587e-14
2.72097e-13
-3.16626e-13
3.13071e-14
2.09538e-13
-2.83173e-13
2.01471e-14
1.36285e-13
-3.42378e-13
1.17815e-14
1.07804e-13
4.79476e-15
7.37946e-14
-1.97483e-14
-1.10986e-12
3.20753e-13
1.13378e-12
-1.30734e-12
1.81942e-13
1.12033e-12
-7.77514e-13
1.43074e-13
9.08602e-13
-6.38396e-13
1.03157e-13
6.84665e-13
-5.36406e-13
7.39274e-14
5.23246e-13
-4.53498e-13
5.45785e-14
4.07131e-13
-3.87385e-13
3.76845e-14
3.15553e-13
-3.372e-13
2.42269e-14
2.00383e-13
-4.04572e-13
1.36512e-14
1.5303e-13
5.65671e-15
9.51817e-14
-2.31818e-14
-2.11712e-12
3.65186e-11
1.1824e-11
-1.79146e-12
4.91275e-13
2.00045e-12
-1.0483e-12
1.59002e-13
1.48362e-12
-8.34864e-13
1.68891e-13
1.07107e-12
-6.79929e-13
1.10563e-13
7.92683e-13
-5.59957e-13
6.87412e-14
5.94859e-13
-4.65126e-13
3.26614e-14
4.52731e-13
-3.96162e-13
1.8151e-14
2.86684e-13
-4.70167e-13
9.50998e-15
2.10465e-13
4.1571e-15
1.25098e-13
-2.66618e-14
-4.41319e-10
1.50596e-08
7.58026e-08
-3.67861e-12
9.45093e-11
1.74973e-10
-1.30764e-12
2.66725e-12
4.66433e-13
-1.08215e-12
1.6459e-12
8.45506e-14
-8.53688e-13
1.17223e-12
6.39992e-14
-6.82156e-13
8.48793e-13
5.00466e-14
-5.53146e-13
6.25853e-13
3.98043e-14
-4.58934e-13
4.51384e-13
3.22517e-14
-5.38602e-13
2.81632e-13
2.64951e-14
1.62754e-13
-3.0274e-14
2.23073e-14
3.44099e-13
8.18283e-14
2.38564e-14
-1.86443e-14
7.76117e-14
1.03756e-14
-2.29935e-14
6.84979e-14
1.15717e-14
-2.06883e-14
5.96804e-14
1.03146e-14
-2.02055e-14
5.11573e-14
1.44169e-14
-2.02159e-14
4.29461e-14
2.27663e-14
-1.9847e-14
3.5043e-14
3.73621e-14
-2.00623e-14
2.74423e-14
1.19137e-13
-2.19321e-14
2.01357e-14
4.7827e-13
1.30012e-14
1.54275e-12
-5.24884e-15
2.92903e-13
5.89122e-14
3.78236e-14
-6.64319e-14
5.41003e-14
1.78582e-14
-7.16261e-14
4.58679e-14
2.38767e-14
-6.67437e-14
3.80675e-14
2.07076e-14
-6.41939e-14
3.08232e-14
1.92322e-14
-6.11722e-14
2.41099e-14
2.91983e-14
-5.95761e-14
1.79095e-14
3.98439e-14
-6.15225e-14
1.22872e-14
8.73161e-14
-7.2159e-14
7.23783e-15
2.87799e-13
2.74688e-15
1.00045e-12
-4.84356e-15
2.14863e-13
7.51989e-14
5.38432e-14
-1.67341e-13
6.78638e-14
2.89145e-14
-1.34418e-13
5.70912e-14
3.91968e-14
-1.18568e-13
4.70899e-14
3.5285e-14
-1.11441e-13
3.80798e-14
3.40878e-14
-1.06342e-13
2.99275e-14
4.03366e-14
-9.91308e-14
2.25856e-14
5.26016e-14
-1.0359e-13
1.55818e-14
7.87627e-14
-1.23019e-13
9.30032e-15
1.96547e-13
3.53965e-15
6.54138e-13
-5.52228e-15
9.40246e-14
9.39722e-14
9.02333e-14
-2.90818e-13
8.21718e-14
5.82482e-14
-2.15107e-13
6.73711e-14
7.19905e-14
-1.81558e-13
5.44451e-14
6.47597e-14
-1.6881e-13
4.3179e-14
6.11781e-14
-1.56921e-13
3.31983e-14
5.30315e-14
-1.46499e-13
2.43999e-14
7.14877e-14
-1.48152e-13
1.69067e-14
8.71213e-14
-1.75301e-13
9.95154e-15
1.58685e-13
4.36004e-15
4.58637e-13
-7.90275e-15
-2.42251e-14
1.1909e-13
1.57115e-13
-4.48612e-13
1.00455e-13
1.19803e-13
-3.01728e-13
8.03502e-14
1.31986e-13
-2.61511e-13
6.32229e-14
1.15796e-13
-2.37848e-13
4.88134e-14
1.03987e-13
-2.17387e-13
3.693e-14
1.2851e-13
-1.96996e-13
2.6621e-14
1.01805e-13
-1.93203e-13
1.79489e-14
1.09778e-13
-2.29388e-13
1.08906e-14
1.53125e-13
4.21043e-15
3.47729e-13
-1.25282e-14
-1.62059e-13
1.52845e-13
2.78339e-13
-6.56055e-13
1.24824e-13
2.34017e-13
-4.20264e-13
9.66419e-14
2.34753e-13
-3.61819e-13
7.39802e-14
1.99218e-13
-3.19568e-13
5.58722e-14
1.72557e-13
-2.86803e-13
4.09373e-14
1.93637e-13
-2.54421e-13
2.90692e-14
1.36637e-13
-2.35788e-13
1.93e-14
1.51997e-13
-2.86465e-13
1.17213e-14
1.69544e-13
4.80084e-15
2.88667e-13
-1.60367e-14
-5.83343e-13
1.9832e-13
4.98011e-13
-9.36061e-13
1.56706e-13
4.39036e-13
-5.76739e-13
1.17355e-13
4.04651e-13
-4.85935e-13
8.71447e-14
3.31406e-13
-4.20327e-13
6.38587e-14
2.75667e-13
-3.65113e-13
4.59564e-14
2.82708e-13
-3.19115e-13
3.19864e-14
1.78565e-13
-2.85518e-13
2.07283e-14
2.03621e-13
-3.46602e-13
1.22577e-14
2.04514e-13
5.09581e-15
2.62643e-13
-1.92884e-14
-1.12371e-12
3.18188e-13
8.87293e-13
-1.31575e-12
1.84252e-13
7.96216e-13
-7.833e-13
1.4537e-13
6.80312e-13
-6.43273e-13
1.04775e-13
5.35877e-13
-5.40267e-13
7.5327e-14
4.28539e-13
-4.56992e-13
5.52011e-14
4.18986e-13
-3.91516e-13
3.87261e-14
3.9129e-13
-3.4022e-13
2.49404e-14
2.15337e-13
-4.09934e-13
1.43434e-14
2.55972e-13
6.24822e-15
2.59455e-13
-2.28543e-14
-2.05979e-12
2.2507e-11
4.80924e-12
-1.81683e-12
3.773e-13
1.38964e-12
-1.05825e-12
2.61061e-13
1.12026e-12
-8.42235e-13
1.72576e-13
8.4527e-13
-6.86504e-13
1.1333e-13
6.83186e-13
-5.64994e-13
7.11051e-14
6.22606e-13
-4.71519e-13
3.40588e-14
5.52956e-13
-4.00129e-13
1.90077e-14
2.89426e-13
-4.76807e-13
1.00588e-14
3.1949e-13
4.74708e-15
2.73192e-13
-2.6538e-14
-2.88286e-10
1.5031e-09
6.42507e-08
-2.76957e-12
-1.71089e-11
7.45181e-11
-1.3188e-12
1.6542e-12
5.75399e-14
-1.09525e-12
1.40605e-12
8.33427e-14
-8.63664e-13