/*--------------------------------*- C++ -*----------------------------------*\
| =========                 |                                                 |
| \\      /  F ield         | OpenFOAM: The Open Source CFD Toolbox           |
|  \\    /   O peration     | Version:  4.1                                   |
|   \\  /    A nd           | Web:      www.OpenFOAM.org                      |
|    \\/     M anipulation  |                                                 |
\*---------------------------------------------------------------------------*/
FoamFile
{
    version     2.0;
    format      ascii;
    class       volVectorField;
    location    "0.52";
    object      U;
}
// * * * * * * * * * * * * * * * * * * * * * * * * * * * * * * * * * * * * * //

dimensions      [0 1 -1 0 0 0 0];

internalField   nonuniform List<vector> 
18000
(
(8.2335e-14 3.88946e-13 -6.17316e-12)
(8.81083e-14 3.87784e-13 -6.10288e-12)
(7.9597e-14 -9.90441e-15 -6.03313e-12)
(7.12861e-14 -1.25714e-14 -5.96465e-12)
(6.32045e-14 -1.23561e-14 -5.89684e-12)
(5.53319e-14 -1.20785e-14 -5.82994e-12)
(4.77196e-14 -1.20524e-14 -5.76378e-12)
(4.03853e-14 -1.20282e-14 -5.69884e-12)
(3.32443e-14 -1.18571e-14 -5.6348e-12)
(2.63525e-14 -9.12924e-15 -5.5726e-12)
(1.17105e-13 4.01513e-13 -7.73573e-12)
(1.32059e-13 3.90263e-13 -7.46179e-12)
(1.15971e-13 -4.36363e-14 -7.19716e-12)
(1.00746e-13 -4.49978e-14 -6.94455e-12)
(8.65875e-14 -4.34799e-14 -6.70275e-12)
(7.33896e-14 -4.18394e-14 -6.47115e-12)
(6.09887e-14 -4.02963e-14 -6.24896e-12)
(4.95237e-14 -3.89511e-14 -6.03626e-12)
(3.87471e-14 -3.75504e-14 -5.83184e-12)
(2.87248e-14 -2.84257e-14 -5.63922e-12)
(1.25582e-13 4.06973e-13 -9.8132e-12)
(1.3763e-13 3.82119e-13 -9.21254e-12)
(1.14083e-13 -9.19295e-14 -8.65096e-12)
(9.29922e-14 -8.93345e-14 -8.13161e-12)
(7.42421e-14 -8.36554e-14 -7.64941e-12)
(5.75537e-14 -7.86668e-14 -7.20164e-12)
(4.26357e-14 -7.40376e-14 -6.78608e-12)
(2.93422e-14 -6.97201e-14 -6.39896e-12)
(1.74876e-14 -6.57594e-14 -6.03873e-12)
(6.94676e-15 -4.8562e-14 -5.70708e-12)
(1.6897e-13 3.99793e-13 -1.26138e-11)
(1.74455e-13 3.56348e-13 -1.14904e-11)
(1.39997e-13 -1.60793e-13 -1.04808e-11)
(1.10606e-13 -1.4929e-13 -9.57554e-12)
(8.57068e-14 -1.3605e-13 -8.76467e-12)
(6.45168e-14 -1.24259e-13 -8.03621e-12)
(4.6574e-14 -1.13758e-13 -7.38031e-12)
(3.12053e-14 -1.04361e-13 -6.78867e-12)
(1.81552e-14 -9.57668e-14 -6.25413e-12)
(7.08511e-15 -6.93101e-14 -5.776e-12)
(2.32444e-13 3.69175e-13 -1.64504e-11)
(2.24835e-13 3.01294e-13 -1.44922e-11)
(1.73957e-13 -2.5936e-13 -1.28033e-11)
(1.32718e-13 -2.31297e-13 -1.1345e-11)
(9.9555e-14 -2.03933e-13 -1.00851e-11)
(7.27609e-14 -1.8061e-13 -8.99174e-12)
(5.10026e-14 -1.60698e-13 -8.03971e-12)
(3.33004e-14 -1.43576e-13 -7.20821e-12)
(1.88786e-14 -1.28404e-13 -6.47927e-12)
(7.16504e-15 -9.08991e-14 -5.84622e-12)
(3.27785e-13 2.97612e-13 -2.1797e-11)
(2.95495e-13 1.96837e-13 -1.85019e-11)
(2.19136e-13 -4.02057e-13 -1.5783e-11)
(1.60784e-13 -3.43585e-13 -1.35291e-11)
(1.16409e-13 -2.92306e-13 -1.16562e-11)
(8.23194e-14 -2.50577e-13 -1.00897e-11)
(5.59753e-14 -2.16286e-13 -8.77274e-12)
(3.55438e-14 -1.87745e-13 -7.65988e-12)
(1.96656e-14 -1.63562e-13 -6.71427e-12)
(7.26701e-15 -1.13368e-13 -5.91739e-12)
(4.74912e-13 1.53607e-13 -2.93832e-11)
(3.96336e-13 8.74641e-15 -2.39406e-11)
(2.79924e-13 -6.11602e-13 -1.96465e-11)
(1.96495e-13 -4.99112e-13 -1.62468e-11)
(1.36713e-13 -4.08082e-13 -1.3536e-11)
(9.32002e-14 -3.37577e-13 -1.13556e-11)
(6.12702e-14 -2.82032e-13 -9.58883e-12)
(3.76907e-14 -2.3767e-13 -8.14636e-12)
(2.01815e-14 -2.01644e-13 -6.96005e-12)
(7.10796e-15 -1.36747e-13 -5.9897e-12)
(-8.67374e-13 -1.20215e-13 -4.03883e-11)
(-1.00992e-12 -3.23613e-13 -3.14302e-11)
(-1.10291e-12 -9.2345e-13 -2.47171e-11)
(-1.14302e-12 -7.16176e-13 -1.96573e-11)
(-1.15195e-12 -5.60515e-13 -1.57993e-11)
(-1.14216e-12 -4.46153e-13 -1.2823e-11)
(-1.1213e-12 -3.60015e-13 -1.05018e-11)
(-1.09412e-12 -2.94048e-13 -8.67348e-12)
(-1.0637e-12 -2.42652e-13 -7.21857e-12)
(-1.04452e-12 -1.60997e-13 -6.06518e-12)
(-4.12923e-09 -8.53584e-13 -7.45577e-11)
(-4.07454e-09 -8.49227e-13 -5.76822e-11)
(-3.82691e-09 -1.16169e-12 -4.53545e-11)
(-3.60472e-09 -8.08107e-13 -3.62996e-11)
(-3.40552e-09 -5.69086e-13 -2.95401e-11)
(-3.22617e-09 -4.05699e-13 -2.43996e-11)
(-3.06402e-09 -2.9174e-13 -2.04266e-11)
(-2.91684e-09 -2.1103e-13 -1.73098e-11)
(-2.78286e-09 -1.86256e-13 -1.48302e-11)
(-2.70321e-09 -2.12213e-13 -1.29329e-11)
(4.39841e-07 -7.34305e-10 -4.92349e-08)
(2.99478e-08 9.34476e-11 -4.2811e-08)
(2.41031e-08 6.0687e-10 -3.73891e-08)
(2.01473e-08 5.47526e-10 -3.29013e-08)
(1.68216e-08 4.92844e-10 -2.91526e-08)
(1.39975e-08 4.45105e-10 -2.59942e-08)
(1.15786e-08 4.0341e-10 -2.33116e-08)
(9.48978e-09 3.66528e-10 -2.10159e-08)
(7.4637e-09 2.20673e-10 -1.90386e-08)
(-7.35503e-08 -1.17685e-10 -1.76067e-08)
(2.61781e-13 3.6702e-13 -6.45899e-12)
(2.45361e-13 3.44607e-13 -6.38401e-12)
(2.15277e-13 -5.26494e-14 -6.3095e-12)
(1.8633e-13 -5.48135e-14 -6.23583e-12)
(1.58511e-13 -5.42346e-14 -6.16343e-12)
(1.31716e-13 -5.35682e-14 -6.09232e-12)
(1.05936e-13 -5.30207e-14 -6.02133e-12)
(8.11699e-14 -5.24043e-14 -5.95219e-12)
(5.72311e-14 -5.13933e-14 -5.88388e-12)
(3.46016e-14 -2.98168e-14 -5.81722e-12)
(5.25386e-13 3.19536e-13 -8.13244e-12)
(4.84209e-13 2.31109e-13 -7.83837e-12)
(4.15104e-13 -1.97809e-13 -7.55407e-12)
(3.50555e-13 -1.93444e-13 -7.28306e-12)
(2.90373e-13 -1.86704e-13 -7.02427e-12)
(2.34234e-13 -1.80199e-13 -6.77624e-12)
(1.81881e-13 -1.73899e-13 -6.53908e-12)
(1.32999e-13 -1.68076e-13 -6.31181e-12)
(8.73249e-14 -1.61121e-13 -6.09425e-12)
(4.51903e-14 -9.16537e-14 -5.8884e-12)
(6.45318e-13 2.34906e-13 -1.03746e-11)
(5.73604e-13 5.38639e-14 -9.72375e-12)
(4.74838e-13 -4.01672e-13 -9.11794e-12)
(3.86258e-13 -3.80122e-13 -8.55745e-12)
(3.07358e-13 -3.57265e-13 -8.03912e-12)
(2.36965e-13 -3.35932e-13 -7.55868e-12)
(1.74111e-13 -3.16302e-13 -7.11349e-12)
(1.17961e-13 -2.9817e-13 -6.69952e-12)
(6.79278e-14 -2.79519e-13 -6.31475e-12)
(2.36634e-14 -1.56603e-13 -5.9615e-12)
(8.38614e-13 9.2186e-14 -1.34226e-11)
(7.19119e-13 -2.18006e-13 -1.21957e-11)
(5.77715e-13 -6.87248e-13 -1.10984e-11)
(4.56422e-13 -6.30376e-13 -1.01166e-11)
(3.53173e-13 -5.75773e-13 -9.24037e-12)
(2.64988e-13 -5.27141e-13 -8.45543e-12)
(1.89671e-13 -4.83531e-13 -7.751e-12)
(1.25343e-13 -4.44201e-13 -7.11748e-12)
(7.03773e-14 -4.06236e-13 -6.54528e-12)
(2.40603e-14 -2.24009e-13 -6.03513e-12)
(1.10686e-12 -1.42297e-13 -1.76406e-11)
(9.12674e-13 -6.32599e-13 -1.54822e-11)
(7.0926e-13 -1.08775e-12 -1.36312e-11)
(5.42976e-13 -9.65658e-13 -1.20389e-11)
(4.0768e-13 -8.55929e-13 -1.06699e-11)
(2.97275e-13 -7.61452e-13 -9.48697e-12)
(2.07089e-13 -6.79473e-13 -8.4607e-12)
(1.33377e-13 -6.08242e-13 -7.56743e-12)
(7.30225e-14 -5.42663e-13 -6.78659e-12)
(2.43782e-14 -2.94451e-13 -6.11088e-12)
(1.48551e-12 -5.21613e-13 -2.35921e-11)
(1.17453e-12 -1.26283e-12 -1.99149e-11)
(8.79493e-13 -1.65226e-12 -1.69079e-11)
(6.50566e-13 -1.41629e-12 -1.4427e-11)
(4.72924e-13 -1.21538e-12 -1.23798e-11)
(3.34501e-13 -1.04884e-12 -1.06769e-11)
(2.26437e-13 -9.09499e-13 -9.25256e-12)
(1.41926e-13 -7.92455e-13 -8.05421e-12)
(7.5822e-14 -6.89262e-13 -7.03988e-12)
(2.4693e-14 -3.67614e-13 -6.18821e-12)
(2.03298e-12 -1.13096e-12 -3.2161e-11)
(1.53349e-12 -2.22309e-12 -2.59996e-11)
(1.10213e-12 -2.45439e-12 -2.11965e-11)
(7.85202e-13 -2.02422e-12 -1.74204e-11)
(5.51307e-13 -1.67798e-12 -1.44375e-11)
(3.77594e-13 -1.40196e-12 -1.20552e-11)
(2.48029e-13 -1.17955e-12 -1.01369e-11)
(1.51198e-13 -9.99179e-13 -8.57999e-12)
(7.86993e-14 -8.46821e-13 -7.30432e-12)
(2.50801e-14 -4.4408e-13 -6.26728e-12)
(2.86353e-12 -2.12389e-12 -4.48155e-11)
(1.99662e-12 -3.70258e-12 -3.44985e-11)
(1.3625e-12 -3.60179e-12 -2.68879e-11)
(9.22244e-13 -2.84887e-12 -2.1211e-11)
(6.14338e-13 -2.27439e-12 -1.69324e-11)
(3.96746e-13 -1.8361e-12 -1.36611e-11)
(2.41899e-13 -1.49685e-12 -1.1131e-11)
(1.31243e-13 -1.23156e-12 -9.15084e-12)
(5.1889e-14 -1.01618e-12 -7.58393e-12)
(-4.29798e-15 -5.23495e-13 -6.34962e-12)
(-8.65212e-11 -4.2346e-12 -8.23382e-11)
(-2.3751e-10 -6.43101e-12 -6.27882e-11)
(-1.94408e-10 -5.49693e-12 -4.87998e-11)
(-1.6031e-10 -4.18666e-12 -3.86887e-11)
(-1.33683e-10 -3.23728e-12 -3.12509e-11)
(-1.12601e-10 -2.54348e-12 -2.5661e-11)
(-9.57082e-11 -2.02643e-12 -2.1383e-11)
(-8.20243e-11 -1.63559e-12 -1.80549e-11)
(-7.08364e-11 -1.32932e-12 -1.54242e-11)
(-6.1976e-11 -7.28325e-13 -1.34206e-11)
(2.91095e-07 -1.47507e-09 -5.25751e-08)
(-6.53944e-09 -1.185e-09 -4.5428e-08)
(-6.73749e-09 -5.79965e-10 -3.93603e-08)
(-6.21241e-09 -5.21893e-10 -3.44117e-08)
(-5.72992e-09 -4.72952e-10 -3.03286e-08)
(-5.29702e-09 -4.29582e-10 -2.69231e-08)
(-4.91199e-09 -3.91243e-10 -2.40547e-08)
(-4.57119e-09 -3.57359e-10 -2.16174e-08)
(-4.28338e-09 -3.28361e-10 -1.95306e-08)
(-5.43824e-09 -3.27449e-10 -1.80157e-08)
(2.30381e-13 3.7161e-13 -2.94101e-13)
(2.17347e-13 3.47544e-13 -2.88819e-13)
(1.90561e-13 -4.99876e-14 -2.8319e-13)
(1.65005e-13 -5.21691e-14 -2.77577e-13)
(1.40545e-13 -5.12962e-14 -2.72447e-13)
(1.16986e-13 -5.08066e-14 -2.67343e-13)
(9.4617e-14 -5.03388e-14 -2.62302e-13)
(7.30892e-14 -4.95793e-14 -2.5778e-13)
(5.24793e-14 -4.8748e-14 -2.53178e-13)
(3.30667e-14 -2.56116e-14 -2.48835e-13)
(5.02208e-13 3.36267e-13 -4.09177e-13)
(4.63538e-13 2.40751e-13 -3.87862e-13)
(3.97102e-13 -1.88536e-13 -3.67016e-13)
(3.35084e-13 -1.8412e-13 -3.47145e-13)
(2.77483e-13 -1.77551e-13 -3.29297e-13)
(2.23829e-13 -1.7115e-13 -3.12454e-13)
(1.73993e-13 -1.64972e-13 -2.96118e-13)
(1.27483e-13 -1.59231e-13 -2.80909e-13)
(8.41061e-14 -1.52529e-13 -2.67587e-13)
(4.43362e-14 -7.93451e-14 -2.54041e-13)
(6.20957e-13 2.68483e-13 -5.81375e-13)
(5.51742e-13 7.10756e-14 -5.28813e-13)
(4.55849e-13 -3.849e-13 -4.81999e-13)
(3.70001e-13 -3.63773e-13 -4.39214e-13)
(2.93838e-13 -3.40897e-13 -4.01127e-13)
(2.26189e-13 -3.19994e-13 -3.66503e-13)
(1.65977e-13 -3.00808e-13 -3.35664e-13)
(1.12472e-13 -2.83178e-13 -3.07858e-13)
(6.46805e-14 -2.64751e-13 -2.82249e-13)
(2.28006e-14 -1.35607e-13 -2.60277e-13)
(8.14771e-13 1.50015e-13 -8.41356e-13)
(6.97283e-13 -1.93267e-13 -7.33592e-13)
(5.58344e-13 -6.62694e-13 -6.40916e-13)
(4.39734e-13 -6.06369e-13 -5.60344e-13)
(3.39269e-13 -5.52075e-13 -4.91826e-13)
(2.53936e-13 -5.03931e-13 -4.32856e-13)
(1.81388e-13 -4.60809e-13 -3.82132e-13)
(1.19702e-13 -4.22667e-13 -3.38384e-13)
(6.72056e-14 -3.85655e-13 -2.99815e-13)
(2.32085e-14 -1.94762e-13 -2.66621e-13)
(1.08774e-12 -5.03215e-14 -1.24597e-12)
(8.92777e-13 -6.0232e-13 -1.03514e-12)
(6.9072e-13 -1.05673e-12 -8.64277e-13)
(5.26307e-13 -9.34631e-13 -7.2333e-13)
(3.9363e-13 -8.2468e-13 -6.08327e-13)
(2.86073e-13 -7.30832e-13 -5.14258e-13)
(1.98742e-13 -6.49949e-13 -4.36853e-13)
(1.27713e-13 -5.8007e-13 -3.72871e-13)
(6.9998e-14 -5.15575e-13 -3.1896e-13)
(2.37167e-14 -2.56233e-13 -2.7459e-13)
(1.47912e-12 -3.83624e-13 -1.89173e-12)
(1.16075e-12 -1.23484e-12 -1.48808e-12)
(8.63702e-13 -1.61847e-12 -1.18228e-12)
(6.34768e-13 -1.38026e-12 -9.42443e-13)
(4.59082e-13 -1.17738e-12 -7.58453e-13)
(3.23254e-13 -1.0109e-12 -6.14626e-13)
(2.18052e-13 -8.72593e-13 -5.02102e-13)
(1.36437e-13 -7.57342e-13 -4.128e-13)
(7.28241e-14 -6.55887e-13 -3.3999e-13)
(2.41846e-14 -3.21205e-13 -2.83453e-13)
(2.05524e-12 -9.30298e-13 -2.94782e-12)
(1.53382e-12 -2.21524e-12 -2.18338e-12)
(1.09275e-12 -2.42792e-12 -1.64066e-12)
(7.7216e-13 -1.98805e-12 -1.24121e-12)
(5.38503e-13 -1.63513e-12 -9.52386e-13)
(3.66688e-13 -1.35755e-12 -7.38573e-13)
(2.39825e-13 -1.13553e-12 -5.78929e-13)
(1.45731e-13 -9.57444e-13 -4.58001e-13)
(7.57553e-14 -8.07161e-13 -3.63913e-13)
(2.46418e-14 -3.8886e-13 -2.93544e-13)
(2.99015e-12 -1.8417e-12 -4.73456e-12)
(2.06585e-12 -3.75465e-12 -3.27557e-12)
(1.40208e-12 -3.60262e-12 -2.31489e-12)
(9.4841e-13 -2.82219e-12 -1.65482e-12)
(6.35742e-13 -2.23156e-12 -1.20645e-12)
(4.17671e-13 -1.78703e-12 -8.92828e-13)
(2.64268e-13 -1.44657e-12 -6.70224e-13)
(1.55759e-13 -1.18344e-12 -5.09163e-13)
(7.87348e-14 -9.70327e-13 -3.90831e-13)
(2.4795e-14 -4.59976e-13 -3.0409e-13)
(1.87011e-10 -3.5599e-12 -8.34217e-12)
(-3.47213e-12 -6.38e-12 -5.43764e-12)
(-3.28259e-12 -5.34737e-12 -3.66119e-12)
(-2.46096e-12 -3.98994e-12 -2.53519e-12)
(-1.89477e-12 -3.02299e-12 -1.81342e-12)
(-1.49144e-12 -2.33056e-12 -1.33577e-12)
(-1.19648e-12 -1.82332e-12 -1.01198e-12)
(-9.75415e-13 -1.44648e-12 -7.87557e-13)
(-8.06783e-13 -1.15414e-12 -6.27482e-13)
(-6.67187e-13 -5.41622e-13 -5.15014e-13)
(2.54441e-07 -6.6288e-10 -3.53527e-09)
(3.21162e-10 -6.01939e-10 -2.69693e-09)
(-2.72061e-10 -7.83798e-11 -2.02277e-09)
(-2.19528e-10 -5.82964e-11 -1.54459e-09)
(-1.77606e-10 -4.55646e-11 -1.19929e-09)
(-1.45445e-10 -3.60886e-11 -9.45035e-10)
(-1.20349e-10 -2.89327e-11 -7.54598e-10)
(-1.00584e-10 -2.34564e-11 -6.09761e-10)
(-8.52304e-11 -1.9185e-11 -4.98123e-10)
(-8.86379e-11 -1.58913e-11 -4.13464e-10)
(2.26874e-13 3.71946e-13 -1.30306e-14)
(2.14248e-13 3.47537e-13 -1.21884e-14)
(1.87878e-13 -4.99433e-14 -1.00785e-14)
(1.62641e-13 -5.20084e-14 -9.08179e-15)
(1.38576e-13 -5.13214e-14 -7.64485e-15)
(1.15529e-13 -5.07125e-14 -6.61125e-15)
(9.34136e-14 -5.00266e-14 -5.7121e-15)
(7.2247e-14 -4.93243e-14 -4.7033e-15)
(5.20644e-14 -4.83308e-14 -4.30696e-15)
(3.29763e-14 -2.51993e-14 -4.34505e-15)
(4.98084e-13 3.38154e-13 -1.95374e-14)
(4.60035e-13 2.42116e-13 -1.74966e-14)
(3.94167e-13 -1.87396e-13 -1.54107e-14)
(3.32706e-13 -1.82971e-13 -1.2996e-14)
(2.7556e-13 -1.76098e-13 -1.08011e-14)
(2.22366e-13 -1.69995e-13 -9.51522e-15)
(1.72941e-13 -1.63995e-13 -8.02865e-15)
(1.26845e-13 -1.57886e-13 -6.95769e-15)
(8.3817e-14 -1.51131e-13 -6.14483e-15)
(4.43946e-14 -7.79154e-14 -5.5524e-15)
(6.15475e-13 2.73096e-13 -3.15731e-14)
(5.474e-13 7.43633e-14 -2.79277e-14)
(4.52308e-13 -3.8178e-13 -2.36304e-14)
(3.6723e-13 -3.6083e-13 -1.97235e-14)
(2.91727e-13 -3.38454e-13 -1.69106e-14)
(2.24619e-13 -3.17614e-13 -1.41671e-14)
(1.65006e-13 -2.98348e-13 -1.18321e-14)
(1.11937e-13 -2.80944e-13 -1.02324e-14)
(6.45654e-14 -2.62539e-13 -8.76053e-15)
(2.30062e-14 -1.33135e-13 -8.41216e-15)
(8.07538e-13 1.5955e-13 -5.22981e-14)
(6.91704e-13 -1.86631e-13 -4.57438e-14)
(5.54101e-13 -6.57264e-13 -3.80703e-14)
(4.36534e-13 -6.01412e-13 -3.12298e-14)
(3.36947e-13 -5.47494e-13 -2.5938e-14)
(2.52404e-13 -4.99825e-13 -2.19293e-14)
(1.80499e-13 -4.57174e-13 -1.82675e-14)
(1.19376e-13 -4.19146e-13 -1.53649e-14)
(6.73466e-14 -3.82403e-13 -1.34563e-14)
(2.36315e-14 -1.91742e-13 -1.18747e-14)
(1.07814e-12 -3.31147e-14 -9.06252e-14)
(8.85764e-13 -5.91071e-13 -7.57914e-14)
(6.85618e-13 -1.04727e-12 -6.10458e-14)
(5.2275e-13 -9.26662e-13 -4.91095e-14)
(3.91261e-13 -8.17966e-13 -4.01754e-14)
(2.84597e-13 -7.24815e-13 -3.259e-14)
(1.9804e-13 -6.44456e-13 -2.70596e-14)
(1.27645e-13 -5.75306e-13 -2.35007e-14)
(7.01512e-14 -5.11585e-13 -2.0466e-14)
(2.42981e-14 -2.52436e-13 -1.74856e-14)
(1.46596e-12 -3.52446e-13 -1.58405e-13)
(1.15182e-12 -1.21633e-12 -1.26417e-13)
(8.57565e-13 -1.60396e-12 -9.89143e-14)
(6.3078e-13 -1.36837e-12 -7.75777e-14)
(4.56657e-13 -1.16762e-12 -6.1548e-14)
(3.21984e-13 -1.00271e-12 -4.95889e-14)
(2.17622e-13 -8.65576e-13 -4.05405e-14)
(1.36498e-13 -7.51878e-13 -3.36103e-14)
(7.32759e-14 -6.51197e-13 -2.76199e-14)
(2.48978e-14 -3.16429e-13 -2.39613e-14)
(2.03718e-12 -8.74932e-13 -2.79607e-13)
(1.52203e-12 -2.18585e-12 -2.1289e-13)
(1.08533e-12 -2.4058e-12 -1.58644e-13)
(7.67623e-13 -1.97098e-12 -1.20735e-13)
(5.35991e-13 -1.62188e-12 -9.28063e-14)
(3.65612e-13 -1.34688e-12 -7.28211e-14)
(2.3956e-13 -1.12705e-12 -5.7998e-14)
(1.46023e-13 -9.50808e-13 -4.69789e-14)
(7.66256e-14 -8.01871e-13 -3.86674e-14)
(2.55034e-14 -3.83837e-13 -3.19903e-14)
(2.96443e-12 -1.74377e-12 -5.03831e-13)
(2.04832e-12 -3.70917e-12 -3.56808e-13)
(1.39164e-12 -3.56995e-12 -2.5464e-13)
(9.42588e-13 -2.79866e-12 -1.84649e-13)
(6.32908e-13 -2.21377e-12 -1.37348e-13)
(4.16691e-13 -1.77388e-12 -1.04542e-13)
(2.64374e-13 -1.43674e-12 -8.064e-14)
(1.56565e-13 -1.17569e-12 -6.36753e-14)
(7.99692e-14 -9.64744e-13 -5.14923e-14)
(2.63034e-14 -4.54635e-13 -4.16716e-14)
(2.0294e-10 -3.37091e-12 -9.31378e-13)
(3.63956e-12 -6.29821e-12 -5.84288e-13)
(1.7088e-12 -5.28461e-12 -3.94092e-13)
(1.10405e-12 -3.94477e-12 -2.75547e-13)
(7.10049e-13 -2.98947e-12 -1.98106e-13)
(4.48052e-13 -2.3051e-12 -1.46609e-13)
(2.72296e-13 -1.80342e-12 -1.10888e-13)
(1.53492e-13 -1.43045e-12 -8.60492e-14)
(7.27257e-14 -1.14078e-12 -6.79915e-14)
(1.88706e-14 -5.28934e-13 -5.51705e-14)
(2.50804e-07 -5.66225e-10 -2.7173e-10)
(6.6613e-10 -5.31782e-10 -8.29787e-11)
(-4.62564e-12 -1.31614e-11 -5.31067e-11)
(-4.13708e-12 -7.37843e-12 -3.50883e-11)
(-2.9622e-12 -5.26637e-12 -2.38524e-11)
(-2.17509e-12 -3.84938e-12 -1.66072e-11)
(-1.62919e-12 -2.869e-12 -1.18102e-11)
(-1.24337e-12 -2.17734e-12 -8.55681e-12)
(-9.71071e-13 -1.67035e-12 -6.30487e-12)
(-8.92337e-13 -8.63279e-13 -4.6645e-12)
(2.27209e-13 3.71839e-13 -1.09974e-14)
(2.1449e-13 3.46949e-13 -9.95088e-15)
(1.88159e-13 -5.06462e-14 -7.53584e-15)
(1.62844e-13 -5.25734e-14 -5.57086e-15)
(1.38724e-13 -5.17224e-14 -4.16508e-15)
(1.1557e-13 -5.10315e-14 -2.99838e-15)
(9.35493e-14 -5.05646e-14 -2.25604e-15)
(7.24312e-14 -4.96138e-14 -1.31486e-15)
(5.21667e-14 -4.83733e-14 -4.83722e-16)
(3.30575e-14 -2.54064e-14 -3.0783e-16)
(4.98985e-13 3.37832e-13 -1.61168e-14)
(4.60814e-13 2.41474e-13 -1.43171e-14)
(3.94864e-13 -1.88061e-13 -1.10309e-14)
(3.33186e-13 -1.83811e-13 -9.17533e-15)
(2.76042e-13 -1.76902e-13 -6.2773e-15)
(2.22765e-13 -1.70334e-13 -4.72352e-15)
(1.73298e-13 -1.64174e-13 -3.87149e-15)
(1.27227e-13 -1.58272e-13 -3.33835e-15)
(8.41569e-14 -1.51459e-13 -2.41598e-15)
(4.47595e-14 -7.79705e-14 -1.38014e-15)
(6.17086e-13 2.72649e-13 -2.62403e-14)
(5.48863e-13 7.33551e-14 -2.33002e-14)
(4.53536e-13 -3.8317e-13 -1.88836e-14)
(3.68228e-13 -3.61914e-13 -1.47239e-14)
(2.92636e-13 -3.39003e-13 -1.20476e-14)
(2.25461e-13 -3.18272e-13 -9.69294e-15)
(1.65677e-13 -2.98971e-13 -7.84003e-15)
(1.12539e-13 -2.81298e-13 -6.49712e-15)
(6.51333e-14 -2.62651e-13 -5.85237e-15)
(2.35672e-14 -1.33337e-13 -5.13053e-15)
(8.10381e-13 1.58708e-13 -4.49787e-14)
(6.94242e-13 -1.88267e-13 -3.92614e-14)
(5.56163e-13 -6.59094e-13 -3.24431e-14)
(4.38287e-13 -6.03079e-13 -2.63731e-14)
(3.38439e-13 -5.48749e-13 -2.15156e-14)
(2.53618e-13 -5.00858e-13 -1.78477e-14)
(1.81578e-13 -4.58066e-13 -1.51939e-14)
(1.20381e-13 -4.19889e-13 -1.28821e-14)
(6.8282e-14 -3.82923e-13 -1.12123e-14)
(2.43924e-14 -1.91665e-13 -1.03608e-14)
(1.08298e-12 -3.4637e-14 -7.85949e-14)
(8.89845e-13 -5.94276e-13 -6.80783e-14)
(6.88953e-13 -1.05085e-12 -5.52103e-14)
(5.25473e-13 -9.29389e-13 -4.46724e-14)
(3.9352e-13 -8.20094e-13 -3.72014e-14)
(2.86505e-13 -7.26776e-13 -3.08918e-14)
(1.99656e-13 -6.45833e-13 -2.55804e-14)
(1.28999e-13 -5.76199e-13 -2.20257e-14)
(7.14068e-14 -5.1247e-13 -1.92022e-14)
(2.53556e-14 -2.53028e-13 -1.67515e-14)
(1.47405e-12 -3.56056e-13 -1.38717e-13)
(1.15846e-12 -1.22248e-12 -1.15829e-13)
(8.62772e-13 -1.6097e-12 -9.24296e-14)
(6.34988e-13 -1.37324e-12 -7.41089e-14)
(4.59973e-13 -1.17141e-12 -6.01134e-14)
(3.24742e-13 -1.00581e-12 -4.99133e-14)
(2.19857e-13 -8.68197e-13 -4.0747e-14)
(1.38341e-13 -7.53843e-13 -3.44069e-14)
(7.4794e-14 -6.52797e-13 -2.96992e-14)
(2.61874e-14 -3.17325e-13 -2.54556e-14)
(2.05079e-12 -8.81923e-13 -2.45771e-13)
(1.53274e-12 -2.19785e-12 -1.97845e-13)
(1.09335e-12 -2.41665e-12 -1.53175e-13)
(7.73777e-13 -1.97942e-12 -1.19213e-13)
(5.40779e-13 -1.62853e-12 -9.49529e-14)
(3.69317e-13 -1.35226e-12 -7.61993e-14)
(2.42519e-13 -1.13132e-12 -6.17258e-14)
(1.48429e-13 -9.54077e-13 -5.0956e-14)
(7.85195e-14 -8.0465e-13 -4.28088e-14)
(2.71279e-14 -3.85431e-13 -3.60506e-14)
(2.98861e-12 -1.75813e-12 -4.38504e-13)
(2.06523e-12 -3.73258e-12 -3.35644e-13)
(1.40386e-12 -3.58929e-12 -2.48991e-13)
(9.51638e-13 -2.81341e-12 -1.88192e-13)
(6.39627e-13 -2.22522e-12 -1.4491e-13)
(4.21755e-13 -1.78273e-12 -1.13261e-13)
(2.68259e-13 -1.44365e-12 -8.98525e-14)
(1.59561e-13 -1.1812e-12 -7.22737e-14)
(8.2247e-14 -9.68969e-13 -5.89372e-14)
(2.81061e-14 -4.57141e-13 -4.95095e-14)
(2.09194e-10 -3.4065e-12 -8.40899e-13)
(3.87874e-12 -6.34756e-12 -5.68431e-13)
(1.82041e-12 -5.31958e-12 -4.02083e-13)
(1.17435e-12 -3.97039e-12 -2.92134e-13)
(7.55672e-13 -3.00861e-12 -2.16602e-13)
(4.78667e-13 -2.31949e-12 -1.63983e-13)
(2.93298e-13 -1.81434e-12 -1.25769e-13)
(1.68218e-13 -1.43891e-12 -9.89681e-14)
(8.31526e-14 -1.14747e-12 -7.85348e-14)
(2.6204e-14 -5.32583e-13 -6.35321e-14)
(2.6561e-07 -5.85385e-10 -2.2109e-10)
(7.31593e-10 -5.43343e-10 -4.11053e-12)
(2.86869e-12 -1.06961e-11 -1.62826e-12)
(1.0643e-12 -5.6273e-12 -1.00481e-12)
(7.1023e-13 -4.06097e-12 -6.47269e-13)
(4.78431e-13 -3.00181e-12 -4.34453e-13)
(3.21927e-13 -2.26199e-12 -3.01321e-13)
(2.14982e-13 -1.73533e-12 -2.14953e-13)
(1.41033e-13 -1.34363e-12 -1.56503e-13)
(8.93786e-14 -6.14714e-13 -1.16457e-13)
(2.27751e-13 3.71517e-13 -1.3763e-14)
(2.14959e-13 3.46174e-13 -1.17247e-14)
(1.88448e-13 -5.16657e-14 -9.55502e-15)
(1.63173e-13 -5.3332e-14 -6.76887e-15)
(1.38883e-13 -5.23307e-14 -5.12007e-15)
(1.15758e-13 -5.14556e-14 -3.06255e-15)
(9.36287e-14 -5.06828e-14 -2.06157e-15)
(7.25349e-14 -5.00191e-14 -1.3922e-15)
(5.23461e-14 -4.87212e-14 -6.64965e-16)
(3.31369e-14 -2.5283e-14 -6.80402e-16)
(5.00318e-13 3.37388e-13 -2.0206e-14)
(4.61995e-13 2.40168e-13 -1.7881e-14)
(3.95784e-13 -1.89332e-13 -1.32997e-14)
(3.34018e-13 -1.84775e-13 -1.05874e-14)
(2.76693e-13 -1.77793e-13 -8.21788e-15)
(2.23321e-13 -1.70901e-13 -5.89019e-15)
(1.73743e-13 -1.64503e-13 -4.3263e-15)
(1.27602e-13 -1.58425e-13 -3.26748e-15)
(8.46223e-14 -1.51882e-13 -2.93545e-15)
(4.51297e-14 -7.83134e-14 -2.43943e-15)
(6.19462e-13 2.71804e-13 -3.2437e-14)
(5.50889e-13 7.16317e-14 -2.86403e-14)
(4.5531e-13 -3.84938e-13 -2.29505e-14)
(3.69665e-13 -3.63377e-13 -1.87023e-14)
(2.93892e-13 -3.40329e-13 -1.45616e-14)
(2.265e-13 -3.19185e-13 -1.14627e-14)
(1.66652e-13 -2.99555e-13 -9.36848e-15)
(1.13351e-13 -2.81705e-13 -8.2867e-15)
(6.58895e-14 -2.63075e-13 -7.20636e-15)
(2.43777e-14 -1.3369e-13 -6.34963e-15)
(8.14442e-13 1.56962e-13 -5.61158e-14)
(6.97689e-13 -1.91158e-13 -4.83565e-14)
(5.59035e-13 -6.61915e-13 -3.95448e-14)
(4.40679e-13 -6.05424e-13 -3.23118e-14)
(3.40472e-13 -5.50667e-13 -2.62067e-14)
(2.55418e-13 -5.02211e-13 -2.14313e-14)
(1.83077e-13 -4.59103e-13 -1.83676e-14)
(1.21675e-13 -4.20741e-13 -1.59952e-14)
(6.93559e-14 -3.83461e-13 -1.42894e-14)
(2.54064e-14 -1.92078e-13 -1.25184e-14)
(1.08981e-12 -3.79622e-14 -9.77987e-14)
(8.95584e-13 -5.99292e-13 -8.34834e-14)
(6.93523e-13 -1.05556e-12 -6.79777e-14)
(5.29208e-13 -9.33246e-13 -5.55644e-14)
(3.9661e-13 -8.23175e-13 -4.59535e-14)
(2.89143e-13 -7.29344e-13 -3.84773e-14)
(2.01734e-13 -6.48002e-13 -3.18629e-14)
(1.30812e-13 -5.77943e-13 -2.71682e-14)
(7.29188e-14 -5.13802e-13 -2.32098e-14)
(2.66008e-14 -2.53714e-13 -2.07481e-14)
(1.48554e-12 -3.626e-13 -1.71929e-13)
(1.16771e-12 -1.23201e-12 -1.43509e-13)
(8.69992e-13 -1.61835e-12 -1.14126e-13)
(6.40563e-13 -1.37995e-12 -9.14083e-14)
(4.64477e-13 -1.17668e-12 -7.44101e-14)
(3.28304e-13 -1.01027e-12 -6.15837e-14)
(2.22789e-13 -8.71804e-13 -5.06705e-14)
(1.4073e-13 -7.56533e-13 -4.25229e-14)
(7.68072e-14 -6.55137e-13 -3.64218e-14)
(2.78414e-14 -3.18645e-13 -3.15801e-14)
(2.0701e-12 -8.95424e-13 -3.04395e-13)
(1.54754e-12 -2.21561e-12 -2.43706e-13)
(1.10443e-12 -2.43201e-12 -1.89089e-13)
(7.82149e-13 -1.99137e-12 -1.4785e-13)
(5.47235e-13 -1.6378e-12 -1.18001e-13)
(3.74304e-13 -1.35973e-12 -9.47051e-14)
(2.46509e-13 -1.13728e-12 -7.71329e-14)
(1.51524e-13 -9.58799e-13 -6.28674e-14)
(8.09838e-14 -8.08466e-13 -5.28627e-14)
(2.91668e-14 -3.87601e-13 -4.46909e-14)
(3.02452e-12 -1.78515e-12 -5.41735e-13)
(2.08906e-12 -3.7667e-12 -4.14684e-13)
(1.42071e-12 -3.61698e-12 -3.08691e-13)
(9.63901e-13 -2.83408e-12 -2.33678e-13)
(6.48637e-13 -2.24087e-12 -1.80236e-13)
(4.28529e-13 -1.79495e-12 -1.41314e-13)
(2.73345e-13 -1.45332e-12 -1.1242e-13)
(1.63495e-13 -1.18876e-12 -8.95512e-14)
(8.52732e-14 -9.74859e-13 -7.29181e-14)
(3.04869e-14 -4.60403e-13 -6.07841e-14)
(2.21081e-10 -3.46736e-12 -9.96063e-13)
(3.98719e-12 -6.42114e-12 -7.04325e-13)
(1.84881e-12 -5.36922e-12 -5.01026e-13)
(1.19338e-12 -4.00592e-12 -3.63877e-13)
(7.68872e-13 -3.03472e-12 -2.70623e-13)
(4.88039e-13 -2.33923e-12 -2.04793e-13)
(3.00124e-13 -1.82931e-12 -1.57464e-13)
(1.73235e-13 -1.45032e-12 -1.23042e-13)
(8.68598e-14 -1.15645e-12 -9.78753e-14)
(2.89767e-14 -5.37704e-13 -7.91508e-14)
(2.90818e-07 -6.23042e-10 -2.41962e-10)
(7.95091e-10 -5.74048e-10 -1.86804e-12)
(3.2575e-12 -1.089e-11 -8.28799e-13)
(1.17343e-12 -5.65106e-12 -5.70176e-13)
(7.78997e-13 -4.08106e-12 -4.04064e-13)
(5.22558e-13 -3.01846e-12 -2.94158e-13)
(3.51284e-13 -2.27572e-12 -2.19067e-13)
(2.34974e-13 -1.7466e-12 -1.65438e-13)
(1.54986e-13 -1.35272e-12 -1.2737e-13)
(1.00103e-13 -6.19317e-13 -1.00372e-13)
(2.28423e-13 3.71001e-13 -1.62136e-14)
(2.156e-13 3.45274e-13 -1.41828e-14)
(1.8885e-13 -5.26089e-14 -1.08506e-14)
(1.63513e-13 -5.4334e-14 -8.42326e-15)
(1.39244e-13 -5.31962e-14 -6.14185e-15)
(1.16025e-13 -5.22475e-14 -4.14838e-15)
(9.3897e-14 -5.12292e-14 -2.46773e-15)
(7.27243e-14 -5.01727e-14 -1.94958e-15)
(5.25384e-14 -4.86777e-14 -3.86733e-15)
(3.33544e-14 -2.53642e-14 -1.05371e-14)
(5.01919e-13 3.36768e-13 -2.41469e-14)
(4.63429e-13 2.38777e-13 -2.05993e-14)
(3.96944e-13 -1.909e-13 -1.64734e-14)
(3.35009e-13 -1.85807e-13 -1.27831e-14)
(2.77507e-13 -1.78767e-13 -1.01814e-14)
(2.24055e-13 -1.71883e-13 -7.45838e-15)
(1.74415e-13 -1.6523e-13 -5.82227e-15)
(1.28275e-13 -1.58839e-13 -4.46481e-15)
(8.51622e-14 -1.51821e-13 -4.25696e-15)
(4.56486e-14 -7.84432e-14 -9.55688e-15)
(6.22357e-13 2.70775e-13 -3.88773e-14)
(5.53333e-13 6.96759e-14 -3.33757e-14)
(4.5739e-13 -3.86978e-13 -2.67617e-14)
(3.7145e-13 -3.65185e-13 -2.18229e-14)
(2.95308e-13 -3.4184e-13 -1.73102e-14)
(2.27789e-13 -3.20361e-13 -1.42731e-14)
(1.67787e-13 -3.00288e-13 -1.16178e-14)
(1.1447e-13 -2.82243e-13 -1.03609e-14)
(6.68718e-14 -2.63536e-13 -1.00399e-14)
(2.51235e-14 -1.34043e-13 -1.19135e-14)
(8.19441e-13 1.5485e-13 -6.62711e-14)
(7.01913e-13 -1.94586e-13 -5.6672e-14)
(5.62528e-13 -6.65184e-13 -4.62772e-14)
(4.43562e-13 -6.08232e-13 -3.7821e-14)
(3.42992e-13 -5.53057e-13 -3.13959e-14)
(2.57586e-13 -5.04077e-13 -2.64716e-14)
(1.84923e-13 -4.60396e-13 -2.25433e-14)
(1.2322e-13 -4.21702e-13 -1.95152e-14)
(7.07188e-14 -3.84536e-13 -1.77851e-14)
(2.66033e-14 -1.92759e-13 -1.75191e-14)
(1.09819e-12 -4.20393e-14 -1.16292e-13)
(9.0253e-13 -6.05394e-13 -9.77299e-14)
(6.99104e-13 -1.06126e-12 -7.91293e-14)
(5.33696e-13 -9.37856e-13 -6.48715e-14)
(4.00355e-13 -8.26877e-13 -5.39469e-14)
(2.9231e-13 -7.32563e-13 -4.57303e-14)
(2.04414e-13 -6.50644e-13 -3.88486e-14)
(1.32964e-13 -5.80035e-13 -3.33888e-14)
(7.47554e-14 -5.1544e-13 -2.8985e-14)
(2.82781e-14 -2.54817e-13 -2.74975e-14)
(1.49967e-12 -3.70789e-13 -2.05504e-13)
(1.17885e-12 -1.24331e-12 -1.67859e-13)
(8.78642e-13 -1.62862e-12 -1.3378e-13)
(6.47442e-13 -1.38825e-12 -1.08029e-13)
(4.69945e-13 -1.18316e-12 -8.81261e-14)
(3.32735e-13 -1.01556e-12 -7.38167e-14)
(2.2643e-13 -8.76298e-13 -6.1242e-14)
(1.43627e-13 -7.60175e-13 -5.15533e-14)
(7.92605e-14 -6.57909e-13 -4.47021e-14)
(2.98504e-14 -3.20422e-13 -3.98212e-14)
(2.09387e-12 -9.12067e-13 -3.632e-13)
(1.56545e-12 -2.23731e-12 -2.85221e-13)
(1.1178e-12 -2.45026e-12 -2.21641e-13)
(7.92364e-13 -2.0056e-12 -1.74704e-13)
(5.55074e-13 -1.64904e-12 -1.39459e-13)
(3.8044e-13 -1.3688e-12 -1.13499e-13)
(2.51366e-13 -1.14477e-12 -9.26651e-14)
(1.55329e-13 -9.64746e-13 -7.60589e-14)
(8.39935e-14 -8.13099e-13 -6.42747e-14)
(3.15892e-14 -3.90491e-13 -5.56466e-14)
(3.06348e-12 -1.81859e-12 -6.46472e-13)
(2.1178e-12 -3.80784e-12 -4.84887e-13)
(1.44139e-12 -3.65003e-12 -3.62905e-13)
(9.78881e-13 -2.85905e-12 -2.7608e-13)
(6.59697e-13 -2.2599e-12 -2.13617e-13)
(4.3681e-13 -1.80966e-12 -1.68741e-13)
(2.79633e-13 -1.46527e-12 -1.35185e-13)
(1.68309e-13 -1.19833e-12 -1.0761e-13)
(8.89645e-14 -9.82203e-13 -8.83521e-14)
(3.33601e-14 -4.64732e-13 -7.40654e-14)
(2.29033e-10 -3.49195e-12 -8.45122e-13)
(4.02304e-12 -6.49547e-12 -8.22049e-13)
(1.87988e-12 -5.4285e-12 -5.91805e-13)
(1.21513e-12 -4.04907e-12 -4.31285e-13)
(7.84274e-13 -3.06664e-12 -3.22503e-13)
(4.99115e-13 -2.36331e-12 -2.45338e-13)
(3.08169e-13 -1.84799e-12 -1.90457e-13)
(1.7914e-13 -1.46453e-12 -1.47166e-13)
(9.12409e-14 -1.16748e-12 -1.18055e-13)
(3.22341e-14 -5.44127e-13 -9.63863e-14)
(3.12233e-07 -5.54879e-10 4.75882e-10)
(8.21167e-10 -5.93972e-10 3.9579e-12)
(3.10792e-12 -1.09636e-11 -9.28594e-13)
(1.1946e-12 -5.72209e-12 -6.64505e-13)
(7.93934e-13 -4.13229e-12 -4.75887e-13)
(5.33142e-13 -3.05577e-12 -3.48734e-13)
(3.58986e-13 -2.3038e-12 -2.61366e-13)
(2.40726e-13 -1.76781e-12 -1.97647e-13)
(1.59191e-13 -1.36865e-12 -1.52355e-13)
(1.03337e-13 -6.2828e-13 -1.21296e-13)
(2.29097e-13 3.70691e-13 -1.65873e-14)
(2.15792e-13 3.44097e-13 -9.37874e-15)
(1.89194e-13 -5.39037e-14 -7.3767e-15)
(1.6382e-13 -5.51798e-14 -6.71802e-15)
(1.39608e-13 -5.40436e-14 -8.73962e-15)
(1.16527e-13 -5.29844e-14 -1.31238e-14)
(9.45401e-14 -5.17035e-14 -2.10354e-14)
(7.39139e-14 -4.99784e-14 -6.64674e-14)
(5.48517e-14 -4.74092e-14 -2.66399e-13)
(3.56148e-14 -3.31076e-14 -8.57299e-13)
(5.03574e-13 3.35952e-13 -2.30894e-14)
(4.64312e-13 2.3747e-13 -1.13838e-14)
(3.97878e-13 -1.92187e-13 -1.05733e-14)
(3.35869e-13 -1.87118e-13 -9.46133e-15)
(2.78384e-13 -1.79878e-13 -1.07425e-14)
(2.25046e-13 -1.72785e-13 -1.50102e-14)
(1.75461e-13 -1.66065e-13 -2.14022e-14)
(1.29548e-13 -1.60105e-13 -4.82699e-14)
(8.69949e-14 -1.53597e-13 -1.59693e-13)
(4.70319e-14 -9.18497e-14 -5.55487e-13)
(6.25227e-13 2.69519e-13 -3.78251e-14)
(5.5524e-13 6.76862e-14 -2.04991e-14)
(4.59069e-13 -3.88833e-13 -1.73314e-14)
(3.73009e-13 -3.66699e-13 -1.61474e-14)
(2.96912e-13 -3.43156e-13 -1.6194e-14)
(2.29453e-13 -3.21645e-13 -2.03852e-14)
(1.69468e-13 -3.01736e-13 -2.75938e-14)
(1.16101e-13 -2.83652e-13 -4.25594e-14)
(6.88627e-14 -2.66496e-13 -1.09434e-13)
(2.66846e-14 -1.48675e-13 -3.63149e-13)
(8.24464e-13 1.52919e-13 -6.51385e-14)
(7.05275e-13 -1.97238e-13 -3.82567e-14)
(5.65488e-13 -6.67908e-13 -3.2408e-14)
(4.46284e-13 -6.10411e-13 -2.95861e-14)