/*--------------------------------*- C++ -*----------------------------------*\
| =========                 |                                                 |
| \\      /  F ield         | OpenFOAM: The Open Source CFD Toolbox           |
|  \\    /   O peration     | Version:  4.1                                   |
|   \\  /    A nd           | Web:      www.OpenFOAM.org                      |
|    \\/     M anipulation  |                                                 |
\*---------------------------------------------------------------------------*/
FoamFile
{
    version     2.0;
    format      ascii;
    class       volVectorField;
    location    "3.68";
    object      U;
}
// * * * * * * * * * * * * * * * * * * * * * * * * * * * * * * * * * * * * * //

dimensions      [0 1 -1 0 0 0 0];

internalField   nonuniform List<vector> 
52500
(
(3 1.29607e-08 -0.00571425)
(2.99998 7.17644e-08 -0.00571438)
(2.99996 2.67985e-07 -0.00571458)
(2.9999 6.85352e-07 -0.0057152)
(2.99977 1.90154e-06 -0.00571633)
(2.99939 4.3278e-06 -0.00571977)
(2.99867 1.15695e-05 -0.00572654)
(2.99638 2.49282e-05 -0.00574447)
(2.99245 7.1623e-05 -0.00579011)
(2.9773 0.000146127 -0.00587754)
(2.95114 0.000462539 -0.00622898)
(2.84931 0.000981647 -0.0066993)
(2.5789 0.00362523 -0.00914432)
(1.91639 0.00863809 -0.0136821)
(0.860547 0.0247184 -0.0175319)
(0.455144 0.0233598 -0.0185067)
(0.541428 0.0238543 -0.0185178)
(0.566981 0.0258736 -0.0185506)
(0.514878 0.0278767 -0.0187369)
(0.424959 0.0298706 -0.0189225)
(0.33821 0.032241 -0.0191219)
(0.26831 0.0350889 -0.0192874)
(0.198365 0.0381146 -0.0194612)
(0.118595 0.0416138 -0.0195969)
(0.0522588 0.0464286 -0.0197545)
(3 3.87322e-08 -0.00571425)
(2.99998 2.14018e-07 -0.00571438)
(2.99996 8.00344e-07 -0.00571458)
(2.9999 2.04413e-06 -0.00571519)
(2.99977 5.68366e-06 -0.0057163)
(2.9994 1.29229e-05 -0.00571969)
(2.99869 3.47059e-05 -0.00572636)
(2.99643 7.45065e-05 -0.00574408)
(2.99255 0.000216651 -0.00578895)
(2.97762 0.000439676 -0.00587536)
(2.95185 0.00141309 -0.00622086)
(2.85171 0.00299719 -0.00668535)
(2.58603 0.0112277 -0.00908291)
(1.93244 0.0268612 -0.0135656)
(0.869829 0.0755619 -0.017407)
(0.451667 0.0678211 -0.0184271)
(0.540926 0.0662513 -0.0184383)
(0.567497 0.0697943 -0.0184622)
(0.515005 0.0732247 -0.018641)
(0.425027 0.0766207 -0.0188198)
(0.338328 0.0805527 -0.0190112)
(0.267937 0.0850057 -0.0191689)
(0.197003 0.0891409 -0.0193354)
(0.115925 0.0930839 -0.0194601)
(0.049126 0.0968716 -0.0196002)
(3 6.35351e-08 -0.00571425)
(2.99999 3.50508e-07 -0.00571438)
(2.99996 1.31407e-06 -0.00571457)
(2.9999 3.3571e-06 -0.00571516)
(2.99978 9.37063e-06 -0.00571625)
(2.99942 2.13425e-05 -0.00571955)
(2.99873 5.75734e-05 -0.00572601)
(2.99653 0.000124117 -0.00574333)
(2.99276 0.00036184 -0.00578663)
(2.97828 0.00073739 -0.00587111)
(2.95332 0.00238414 -0.0062043)
(2.85678 0.00504893 -0.00665774)
(2.60136 0.0190081 -0.00895657)
(1.96818 0.0457191 -0.0133327)
(0.892148 0.130022 -0.017218)
(0.448206 0.11513 -0.0183319)
(0.543385 0.111247 -0.0183439)
(0.572399 0.117337 -0.018357)
(0.519646 0.123685 -0.0185297)
(0.42999 0.130575 -0.0186989)
(0.343604 0.137989 -0.0188844)
(0.272701 0.146041 -0.0190286)
(0.200548 0.153802 -0.0191901)
(0.117798 0.16073 -0.0193133)
(0.0489577 0.165604 -0.0194502)
(3 7.93006e-08 -0.00571425)
(2.99999 4.37541e-07 -0.00571437)
(2.99996 1.63484e-06 -0.00571455)
(2.99991 4.15464e-06 -0.00571512)
(2.99979 1.1561e-05 -0.00571617)
(2.99944 2.60218e-05 -0.00571933)
(2.99878 7.16606e-05 -0.0057255)
(2.99668 0.000143527 -0.00574216)
(2.99306 0.000480779 -0.00578321)
(2.97927 0.000821474 -0.00586463)
(2.95554 0.00343923 -0.00617964)
(2.8644 0.00663296 -0.00661681)
(2.62439 0.0265727 -0.00876942)
(2.02286 0.0635195 -0.0129849)
(0.926895 0.183352 -0.0169677)
(0.444782 0.162748 -0.018222)
(0.548843 0.156049 -0.0182319)
(0.581993 0.164457 -0.0182294)
(0.529325 0.173817 -0.0183943)
(0.440302 0.184762 -0.0185572)
(0.35421 0.196046 -0.0187364)
(0.282825 0.208111 -0.0188773)
(0.209277 0.220139 -0.0190186)
(0.123817 0.230875 -0.01913)
(0.0509783 0.237497 -0.0192793)
(3 9.80994e-08 -0.00571425)
(2.99999 5.42029e-07 -0.00571437)
(2.99997 2.01969e-06 -0.00571454)
(2.99991 5.1422e-06 -0.00571508)
(2.9998 1.42421e-05 -0.00571608)
(2.99947 3.21024e-05 -0.00571913)
(2.99882 8.77643e-05 -0.00572493)
(2.99687 0.000175398 -0.00574157)
(2.99332 0.0005952 -0.0057785)
(2.9807 0.00092708 -0.00586108)
(2.95829 0.00437321 -0.00613816)
(2.87448 0.0079933 -0.00656674)
(2.65557 0.0326214 -0.00850222)
(2.09732 0.0780524 -0.0125014)
(0.979346 0.230708 -0.0166455)
(0.449525 0.210803 -0.0180861)
(0.561187 0.201863 -0.018098)
(0.598793 0.211488 -0.0180709)
(0.546093 0.223171 -0.0182353)
(0.457623 0.23818 -0.0183723)
(0.37125 0.253717 -0.0185446)
(0.298864 0.270452 -0.0186814)
(0.223255 0.287607 -0.018831)
(0.13393 0.30316 -0.0189397)
(0.0553163 0.312352 -0.0190646)
(3 1.24267e-07 -0.00571425)
(2.99999 6.86741e-07 -0.00571436)
(2.99997 2.56367e-06 -0.00571452)
(2.99992 6.57104e-06 -0.00571503)
(2.99981 1.82058e-05 -0.00571596)
(2.9995 4.15986e-05 -0.00571881)
(2.9989 0.000110605 -0.00572419)
(2.9971 0.000239795 -0.00574)
(2.99369 0.000695851 -0.00577316)
(2.98237 0.00130013 -0.00585431)
(2.96157 0.0048204 -0.0060925)
(2.88619 0.00920122 -0.00650578)
(2.6914 0.0355632 -0.008202)
(2.18661 0.0863815 -0.0119144)
(1.05045 0.26484 -0.0162559)
(0.469862 0.259159 -0.0179143)
(0.582573 0.252321 -0.0179228)
(0.623612 0.261507 -0.0178918)
(0.571193 0.274063 -0.0180608)
(0.48352 0.292537 -0.0181966)
(0.396493 0.312737 -0.0183362)
(0.322631 0.334933 -0.0184626)
(0.244343 0.358575 -0.0185835)
(0.149462 0.381214 -0.01868)
(0.0622819 0.395454 -0.0188327)
(3 1.38385e-07 -0.00571425)
(2.99999 7.64617e-07 -0.00571435)
(2.99997 2.85018e-06 -0.0057145)
(2.99992 7.31037e-06 -0.00571496)
(2.99982 2.01793e-05 -0.00571581)
(2.99954 4.61721e-05 -0.00571841)
(2.99899 0.000120971 -0.00572334)
(2.99736 0.000268521 -0.00573779)
(2.99421 0.000719323 -0.00576778)
(2.98409 0.00152042 -0.00584322)
(2.96502 0.00462307 -0.00605078)
(2.89845 0.00949098 -0.00644159)
(2.72843 0.0329196 -0.00789824)
(2.28465 0.0804904 -0.0112857)
(1.14639 0.246652 -0.0157907)
(0.522151 0.294201 -0.0176572)
(0.61908 0.304383 -0.0176447)
(0.657678 0.312841 -0.0176324)
(0.605772 0.326015 -0.0178054)
(0.519844 0.348405 -0.0179601)
(0.43196 0.374224 -0.0180982)
(0.356056 0.403062 -0.0181975)
(0.274756 0.43502 -0.0183252)
(0.173436 0.468056 -0.0184065)
(0.0744015 0.492516 -0.0185062)
(3 1.46539e-07 -0.00571425)
(2.99999 8.08997e-07 -0.00571434)
(2.99997 3.0075e-06 -0.00571447)
(2.99993 7.70516e-06 -0.00571489)
(2.99984 2.11852e-05 -0.00571567)
(2.99959 4.83777e-05 -0.00571803)
(2.99908 0.000125894 -0.0057225)
(2.9976 0.000279893 -0.00573564)
(2.99474 0.000728468 -0.00576278)
(2.98559 0.00161333 -0.00583179)
(2.96833 0.0042989 -0.0060184)
(2.90842 0.00994101 -0.00637558)
(2.75677 0.0288967 -0.00768667)
(2.35265 0.0716077 -0.0107527)
(1.23779 0.208171 -0.0156624)
(0.565179 0.332834 -0.0175098)
(0.636843 0.366414 -0.0174665)
(0.675788 0.365364 -0.017444)
(0.634799 0.377825 -0.0175844)
(0.558169 0.404387 -0.0176896)
(0.473892 0.437396 -0.0178247)
(0.398629 0.474766 -0.0178911)
(0.316591 0.517697 -0.017958)
(0.21006 0.56669 -0.0180048)
(0.0950963 0.612717 -0.0181073)
(3 1.76217e-07 -0.00571425)
(2.99999 9.65117e-07 -0.00571433)
(2.99998 3.59467e-06 -0.00571445)
(2.99994 9.25038e-06 -0.00571482)
(2.99986 2.55119e-05 -0.00571551)
(2.99963 5.89766e-05 -0.00571762)
(2.99918 0.000151035 -0.00572159)
(2.99786 0.000356712 -0.00573334)
(2.99532 0.000820093 -0.00575758)
(2.98704 0.00211456 -0.00581819)
(2.97206 0.004445 -0.00598969)
(2.91792 0.0114702 -0.00629079)
(2.78362 0.0280663 -0.00752183)
(2.41878 0.0721206 -0.0100557)
(1.35933 0.20313 -0.0153506)
(0.64392 0.384889 -0.0173086)
(0.646834 0.418201 -0.01724)
(0.674886 0.413623 -0.0172972)
(0.655894 0.428699 -0.0173783)
(0.595283 0.457904 -0.0174392)
(0.520138 0.499757 -0.0175247)
(0.449855 0.547829 -0.0175645)
(0.372483 0.604914 -0.0175929)
(0.268334 0.679378 -0.0175545)
(0.133794 0.771518 -0.0174424)
(3 2.68013e-07 -0.00571424)
(2.99999 4.63045e-07 -0.00571431)
(2.99998 3.88857e-06 -0.00571441)
(2.99995 5.68337e-06 -0.00571472)
(2.99988 2.62953e-05 -0.0057153)
(2.99969 3.66564e-05 -0.00571699)
(2.99933 0.000157136 -0.00572045)
(2.99816 0.00020372 -0.005729)
(2.99621 0.000956296 -0.00575266)
(2.9886 0.000929793 -0.00579421)
(2.97623 0.00640371 -0.0059697)
(2.92726 0.00385509 -0.0061955)
(2.81032 0.0411087 -0.00738624)
(2.48534 0.0526417 -0.00941999)
(1.50566 0.220627 -0.0146948)
(0.744513 0.438764 -0.0169359)
(0.656302 0.452509 -0.0171406)
(0.681195 0.452605 -0.0171658)
(0.676777 0.473808 -0.0171774)
(0.632483 0.506886 -0.0172163)
(0.571722 0.557139 -0.0172018)
(0.5112 0.616978 -0.0171623)
(0.448624 0.695292 -0.0170706)
(0.36566 0.814811 -0.016872)
(0.207156 1.02637 -0.0164541)
(3 1.32351e-08 -2.51941e-09)
(2.99998 7.2011e-08 -8.6677e-09)
(2.99996 2.68075e-07 -1.00247e-08)
(2.9999 6.86698e-07 -1.61602e-08)
(2.99977 1.90153e-06 -1.58894e-08)
(2.99939 4.33012e-06 -2.17932e-08)
(2.99867 1.15728e-05 -2.18472e-08)
(2.99637 2.49391e-05 -3.01295e-08)
(2.99245 7.16382e-05 -3.17895e-08)
(2.97729 0.000146175 -5.78182e-08)
(2.95113 0.000462618 -7.40435e-08)
(2.84929 0.00098184 -1.60587e-07)
(2.57886 0.00362549 -2.12306e-07)
(1.91628 0.00863887 -6.48744e-07)
(0.860512 0.024719 -7.30239e-07)
(0.455189 0.0233603 1.16694e-07)
(0.541444 0.0238547 1.37754e-09)
(0.566985 0.0258739 -6.19797e-08)
(0.514883 0.0278769 -6.03812e-08)
(0.424965 0.0298709 -5.24609e-08)
(0.338217 0.0322415 -4.54256e-08)
(0.268315 0.0350896 -4.45894e-08)
(0.19837 0.0381153 -4.31632e-08)
(0.118598 0.0416148 -4.21096e-08)
(0.0522605 0.0464298 -4.22221e-08)
(3 3.94736e-08 -2.51393e-09)
(2.99998 2.14859e-07 -8.66753e-09)
(2.99996 8.00284e-07 -1.00282e-08)
(2.9999 2.0487e-06 -1.61361e-08)
(2.99977 5.68257e-06 -1.59115e-08)
(2.9994 1.29296e-05 -2.17528e-08)
(2.99869 3.47138e-05 -2.18235e-08)
(2.99642 7.45364e-05 -2.99839e-08)
(2.99255 0.000216689 -3.16975e-08)
(2.97761 0.000439806 -5.72043e-08)
(2.95184 0.00141331 -7.34564e-08)
(2.85169 0.00299775 -1.58584e-07)
(2.58599 0.0112286 -2.11305e-07)
(1.93234 0.0268638 -6.42715e-07)
(0.869793 0.0755642 -7.35048e-07)
(0.45171 0.067823 1.15728e-07)
(0.540939 0.066253 5.37326e-10)
(0.567499 0.0697956 -6.26917e-08)
(0.515008 0.0732257 -6.07977e-08)
(0.425032 0.0766215 -5.24306e-08)
(0.338332 0.0805535 -4.50586e-08)
(0.267941 0.0850066 -4.41052e-08)
(0.197006 0.089142 -4.24819e-08)
(0.115927 0.0930855 -4.09807e-08)
(0.0491272 0.0968742 -4.07912e-08)
(3 6.47521e-08 -2.50459e-09)
(2.99998 3.51955e-07 -8.66381e-09)
(2.99996 1.31423e-06 -1.00428e-08)
(2.9999 3.36452e-06 -1.60719e-08)
(2.99978 9.37028e-06 -1.59837e-08)
(2.99942 2.13554e-05 -2.16612e-08)
(2.99872 5.75924e-05 -2.18065e-08)
(2.99653 0.000124183 -2.97105e-08)
(2.99275 0.000361932 -3.16076e-08)
(2.97827 0.000737702 -5.61002e-08)
(2.95331 0.00238468 -7.23936e-08)
(2.85676 0.00505014 -1.54627e-07)
(2.60131 0.0190101 -2.07969e-07)
(1.96807 0.0457243 -6.27679e-07)
(0.89211 0.130027 -7.4439e-07)
(0.448243 0.11513 1.1348e-07)
(0.543395 0.111247 1.90928e-10)
(0.572398 0.117337 -6.3363e-08)
(0.519646 0.123686 -6.15633e-08)
(0.429992 0.130577 -5.29333e-08)
(0.343607 0.13799 -4.48496e-08)
(0.272703 0.146043 -4.34343e-08)
(0.200548 0.153803 -4.14053e-08)
(0.117798 0.160733 -3.92477e-08)
(0.0489577 0.165607 -3.82162e-08)
(3 8.0269e-08 -2.48958e-09)
(2.99998 4.39981e-07 -8.6599e-09)
(2.99996 1.63294e-06 -1.00539e-08)
(2.9999 4.1618e-06 -1.59977e-08)
(2.99978 1.15519e-05 -1.60383e-08)
(2.99944 2.60183e-05 -2.15214e-08)
(2.99878 7.16374e-05 -2.16776e-08)
(2.99668 0.000143411 -2.90856e-08)
(2.99306 0.000480825 -3.11172e-08)
(2.97927 0.000820183 -5.30938e-08)
(2.95553 0.00344159 -6.89133e-08)
(2.86438 0.00663194 -1.46694e-07)
(2.62435 0.0265806 -1.99523e-07)
(2.02276 0.0635327 -6.04949e-07)
(0.926848 0.183372 -7.69016e-07)
(0.444803 0.162755 9.54779e-08)
(0.548844 0.15605 -5.01818e-09)
(0.581986 0.164457 -6.27889e-08)
(0.52932 0.173818 -6.09542e-08)
(0.4403 0.184764 -5.23539e-08)
(0.354208 0.196048 -4.44993e-08)
(0.282823 0.208113 -4.30915e-08)
(0.209275 0.220141 -4.04529e-08)
(0.123816 0.230877 -3.74927e-08)
(0.0509772 0.2375 -3.5342e-08)
(3 9.9367e-08 -2.4852e-09)
(2.99999 5.45282e-07 -8.63204e-09)
(2.99997 2.0205e-06 -1.01229e-08)
(2.99991 5.15256e-06 -1.59055e-08)
(2.99979 1.42507e-05 -1.62657e-08)
(2.99947 3.2135e-05 -2.15971e-08)
(2.99882 8.78256e-05 -2.21559e-08)
(2.99687 0.000175562 -3.15418e-08)
(2.99332 0.000595471 -2.86635e-08)
(2.98069 0.000927501 -8.14494e-08)
(2.95828 0.00437524 -9.24228e-09)
(2.87447 0.00799509 -2.0699e-07)
(2.65554 0.0326275 -8.68308e-08)
(2.09724 0.0780664 -5.46044e-07)
(0.979327 0.230733 -7.19705e-07)
(0.449564 0.21081 5.13337e-08)
(0.561203 0.201863 -3.03697e-08)
(0.598799 0.211489 -6.71594e-08)
(0.546097 0.223173 -6.28927e-08)
(0.457625 0.238182 -5.23894e-08)
(0.371251 0.253719 -4.5935e-08)
(0.298863 0.270455 -4.42897e-08)
(0.223254 0.287609 -4.08516e-08)
(0.133928 0.303162 -3.72103e-08)
(0.055315 0.312354 -3.40372e-08)
(3 1.26663e-07 -2.46423e-09)
(2.99999 6.89383e-07 -8.6173e-09)
(2.99997 2.56867e-06 -1.00965e-08)
(2.99991 6.58149e-06 -1.58201e-08)
(2.99981 1.8231e-05 -1.60455e-08)
(2.9995 4.16562e-05 -2.10738e-08)
(2.99889 0.000110735 -2.10784e-08)
(2.9971 0.000240188 -2.70781e-08)
(2.99369 0.000696262 -2.88809e-08)
(2.98237 0.00130272 -5.02864e-08)
(2.96156 0.00482078 -3.86731e-08)
(2.88618 0.0092072 -1.47442e-07)
(2.69137 0.0355665 -1.24584e-07)
(2.18653 0.0863969 -4.82373e-07)
(1.05041 0.264886 -7.00663e-07)
(0.469875 0.259168 -5.87662e-09)
(0.582582 0.252321 -4.71258e-08)
(0.623619 0.261509 -6.25373e-08)
(0.571201 0.274067 -5.86557e-08)
(0.483527 0.292542 -5.01778e-08)
(0.396497 0.312742 -4.61781e-08)
(0.322633 0.334936 -4.52783e-08)
(0.244344 0.358578 -4.17041e-08)
(0.149462 0.381216 -3.8031e-08)
(0.0622811 0.395455 -3.47553e-08)
(3 1.40934e-07 -2.43728e-09)
(2.99999 7.66254e-07 -8.62087e-09)
(2.99997 2.85301e-06 -1.00796e-08)
(2.99992 7.31437e-06 -1.57983e-08)
(2.99982 2.01876e-05 -1.59735e-08)
(2.99954 4.6188e-05 -2.0948e-08)
(2.99899 0.00012101 -2.07141e-08)
(2.99735 0.000268605 -2.6359e-08)
(2.99421 0.000719482 -2.78696e-08)
(2.98409 0.00152117 -3.99223e-08)
(2.96501 0.00462363 -4.38745e-08)
(2.89844 0.00949368 -1.11589e-07)
(2.72841 0.0329241 -1.07165e-07)
(2.2846 0.0805052 -3.63513e-07)
(1.14636 0.2467 -4.38196e-07)
(0.522152 0.294206 -1.56739e-07)
(0.619095 0.30438 -8.23173e-08)
(0.657694 0.312843 -5.40793e-08)
(0.605786 0.326021 -5.16951e-08)
(0.519856 0.348411 -4.81713e-08)
(0.431969 0.37423 -4.58304e-08)
(0.356062 0.403067 -4.53149e-08)
(0.27476 0.435023 -4.26339e-08)
(0.173438 0.468058 -3.96061e-08)
(0.074402 0.492516 -3.66909e-08)
(3 1.4872e-07 -2.41324e-09)
(2.99999 8.10382e-07 -8.62784e-09)
(2.99997 3.00861e-06 -1.00789e-08)
(2.99993 7.70633e-06 -1.57968e-08)
(2.99984 2.11853e-05 -1.59605e-08)
(2.99959 4.83759e-05 -2.09183e-08)
(2.99908 0.000125885 -2.0628e-08)
(2.9976 0.000279864 -2.61461e-08)
(2.99474 0.000728433 -2.73779e-08)
(2.98559 0.00161302 -3.87967e-08)
(2.96832 0.00429921 -4.03651e-08)
(2.90841 0.00994021 -1.09881e-07)
(2.75675 0.0288994 -8.57766e-08)
(2.35261 0.0716132 -3.15666e-07)
(1.23774 0.208192 -4.21365e-07)
(0.565163 0.332831 -2.88589e-07)
(0.63686 0.366414 -1.14569e-07)
(0.675812 0.365369 -3.98132e-08)
(0.634819 0.377832 -4.01109e-08)
(0.558186 0.404395 -4.27046e-08)
(0.473905 0.437403 -4.41372e-08)
(0.39864 0.474773 -4.39685e-08)
(0.316599 0.517703 -4.17814e-08)
(0.210065 0.566694 -4.02241e-08)
(0.0950984 0.612718 -3.89768e-08)
(3 1.76334e-07 -2.39366e-09)
(2.99999 9.6372e-07 -8.62907e-09)
(2.99998 3.59013e-06 -1.00898e-08)
(2.99994 9.22122e-06 -1.58003e-08)
(2.99986 2.54957e-05 -1.59957e-08)
(2.99963 5.89171e-05 -2.09914e-08)
(2.99918 0.000150963 -2.08719e-08)
(2.99786 0.000356546 -2.67767e-08)
(2.99532 0.000819947 -2.80263e-08)
(2.98704 0.00211411 -4.54184e-08)
(2.97205 0.00444429 -3.25148e-08)
(2.91791 0.0114702 -1.3349e-07)
(2.7836 0.0280678 -5.07915e-08)
(2.41874 0.0721213 -3.1602e-07)
(1.35928 0.203144 -3.73379e-07)
(0.643895 0.384889 -3.45834e-07)
(0.646852 0.41821 -5.01284e-08)
(0.674908 0.413633 -2.60547e-08)
(0.655914 0.428709 -3.20763e-08)
(0.595301 0.457914 -3.59189e-08)
(0.520154 0.499767 -4.11637e-08)
(0.449869 0.547838 -4.01469e-08)
(0.372495 0.604922 -3.95174e-08)
(0.268343 0.679384 -3.83609e-08)
(0.133798 0.771522 -3.91536e-08)
(3 2.53807e-07 -2.4109e-09)
(2.99999 5.19308e-07 -8.65492e-09)
(2.99998 3.78284e-06 -1.01416e-08)
(2.99995 5.7239e-06 -1.62805e-08)
(2.99988 2.61673e-05 -1.57765e-08)
(2.99969 3.67003e-05 -2.16903e-08)
(2.99933 0.000157019 -2.09589e-08)
(2.99816 0.00020381 -2.79409e-08)
(2.9962 0.000956176 -2.71337e-08)
(2.98859 0.000930471 -4.44492e-08)
(2.97623 0.00640292 -4.61887e-08)
(2.92725 0.0038582 -9.7904e-08)
(2.8103 0.0411057 -5.36918e-08)
(2.48531 0.0526497 -3.33787e-07)
(1.50562 0.220627 -3.0646e-07)
(0.744482 0.438763 -4.01786e-07)
(0.656321 0.452517 -2.65082e-08)
(0.681215 0.452616 -1.51517e-08)
(0.676796 0.473818 -2.96743e-08)
(0.6325 0.506896 -3.29415e-08)
(0.57174 0.55715 -3.71057e-08)
(0.511216 0.616988 -3.6059e-08)
(0.448639 0.695301 -3.46589e-08)
(0.365672 0.814819 -3.30713e-08)
(0.207163 1.02638 -3.38471e-08)
(3 1.32352e-08 -3.6587e-13)
(2.99998 7.20111e-08 -1.96007e-12)
(2.99996 2.68075e-07 -4.20322e-12)
(2.9999 6.86698e-07 -8.89847e-12)
(2.99977 1.90153e-06 -1.57417e-11)
(2.99939 4.33013e-06 -2.92628e-11)
(2.99867 1.15728e-05 -6.05409e-11)
(2.99637 2.49391e-05 -1.06282e-10)
(2.99245 7.16382e-05 -3.08118e-10)
(2.97729 0.000146175 -4.90058e-10)
(2.95113 0.000462618 -1.81351e-09)
(2.84929 0.00098184 -3.09482e-09)
(2.57885 0.00362549 -1.18457e-08)
(1.91628 0.00863887 -2.46876e-08)
(0.860509 0.024719 -3.53754e-08)
(0.45519 0.0233603 5.84308e-09)
(0.541444 0.0238547 6.3542e-10)
(0.566985 0.0258739 -2.23792e-09)
(0.514883 0.0278769 -2.14229e-09)
(0.424965 0.0298709 -1.84602e-09)
(0.338217 0.0322415 -1.83169e-09)
(0.268315 0.0350896 -2.0429e-09)
(0.19837 0.0381153 -2.16357e-09)
(0.118598 0.0416148 -2.27357e-09)
(0.0522605 0.0464299 -2.40235e-09)
(3 3.94736e-08 -3.65644e-13)
(2.99998 2.14859e-07 -1.95923e-12)
(2.99996 8.00285e-07 -4.20181e-12)
(2.9999 2.0487e-06 -8.89366e-12)
(2.99977 5.68258e-06 -1.57383e-11)
(2.9994 1.29296e-05 -2.92591e-11)
(2.99869 3.47138e-05 -6.05322e-11)
(2.99642 7.45365e-05 -1.0645e-10)
(2.99255 0.000216689 -3.07835e-10)
(2.97761 0.000439806 -4.91098e-10)
(2.95184 0.00141331 -1.8137e-09)
(2.85169 0.00299775 -3.09729e-09)
(2.58599 0.0112286 -1.18273e-08)
(1.93233 0.0268638 -2.47181e-08)
(0.869791 0.0755641 -3.58318e-08)
(0.451711 0.0678229 5.87799e-09)
(0.540939 0.066253 6.31964e-10)
(0.567499 0.0697955 -2.21324e-09)
(0.515008 0.0732256 -2.10754e-09)
(0.425032 0.0766215 -1.80315e-09)
(0.338333 0.0805535 -1.78597e-09)
(0.267941 0.0850067 -1.98848e-09)
(0.197007 0.0891421 -2.11317e-09)
(0.115928 0.0930856 -2.22265e-09)
(0.0491272 0.0968743 -2.35737e-09)
(3 6.47522e-08 -3.64489e-13)
(2.99998 3.51955e-07 -1.95469e-12)
(2.99996 1.31424e-06 -4.18886e-12)
(2.9999 3.36452e-06 -8.86077e-12)
(2.99978 9.3703e-06 -1.56675e-11)
(2.99942 2.13555e-05 -2.91182e-11)
(2.99872 5.75924e-05 -6.01663e-11)
(2.99653 0.000124183 -1.06066e-10)
(2.99275 0.000361933 -3.05642e-10)
(2.97827 0.000737702 -4.89792e-10)
(2.95331 0.00238469 -1.80872e-09)
(2.85676 0.00505015 -3.09152e-09)
(2.60131 0.0190102 -1.17886e-08)
(1.96807 0.0457243 -2.48156e-08)
(0.892107 0.130027 -3.7072e-08)
(0.448245 0.11513 5.8875e-09)
(0.543395 0.111247 6.43338e-10)
(0.572398 0.117337 -2.16581e-09)
(0.519646 0.123686 -2.05231e-09)
(0.429992 0.130577 -1.73906e-09)
(0.343607 0.13799 -1.70916e-09)
(0.272703 0.146043 -1.88848e-09)
(0.200548 0.153804 -2.01063e-09)
(0.117798 0.160733 -2.1161e-09)
(0.0489577 0.165607 -2.2486e-09)
(3 8.02699e-08 -3.62513e-13)
(2.99998 4.39985e-07 -1.9457e-12)
(2.99996 1.63296e-06 -4.16535e-12)
(2.9999 4.16185e-06 -8.80492e-12)
(2.99978 1.1552e-05 -1.55617e-11)
(2.99944 2.60186e-05 -2.89377e-11)
(2.99878 7.16381e-05 -5.97028e-11)
(2.99668 0.000143413 -1.06252e-10)
(2.99306 0.000480827 -3.0211e-10)
(2.97927 0.000820198 -4.92474e-10)
(2.95553 0.00344159 -1.79887e-09)
(2.86438 0.00663197 -3.06247e-09)
(2.62435 0.0265806 -1.16771e-08)
(2.02275 0.0635328 -2.47994e-08)
(0.926845 0.183371 -3.89e-08)
(0.444804 0.162754 5.63985e-09)
(0.548844 0.156049 6.82886e-10)
(0.581986 0.164457 -2.09608e-09)
(0.52932 0.173818 -1.98895e-09)
(0.4403 0.184764 -1.68098e-09)
(0.354208 0.196048 -1.60129e-09)
(0.282823 0.208113 -1.76352e-09)
(0.209276 0.220141 -1.86073e-09)
(0.123816 0.230877 -1.94924e-09)
(0.0509773 0.2375 -2.06999e-09)
(3 9.93675e-08 -3.46942e-13)
(2.99999 5.45284e-07 -1.8948e-12)
(2.99997 2.02051e-06 -3.97819e-12)
(2.99991 5.15259e-06 -8.20307e-12)
(2.99979 1.42507e-05 -1.43575e-11)
(2.99947 3.21351e-05 -2.5577e-11)
(2.99882 8.7826e-05 -5.25523e-11)
(2.99687 0.000175563 -7.71217e-11)
(2.99332 0.000595473 -3.04168e-10)
(2.98069 0.000927508 -2.32628e-10)
(2.95828 0.00437525 -2.1568e-09)
(2.87447 0.00799513 -2.4097e-09)
(2.65554 0.0326277 -1.19497e-08)
(2.09723 0.0780667 -2.42291e-08)
(0.979324 0.230734 -4.09028e-08)
(0.449565 0.21081 4.5325e-09)
(0.561202 0.201863 8.18481e-10)
(0.598798 0.211488 -1.88876e-09)
(0.546097 0.223172 -1.86901e-09)
(0.457625 0.238182 -1.64116e-09)
(0.371251 0.253719 -1.46885e-09)
(0.298863 0.270455 -1.58931e-09)
(0.223254 0.287609 -1.66042e-09)
(0.133928 0.303162 -1.73525e-09)
(0.0553151 0.312354 -1.83724e-09)
(3 1.26663e-07 -3.52516e-13)
(2.99999 6.89385e-07 -1.91087e-12)
(2.99997 2.56868e-06 -4.06079e-12)
(2.99991 6.5815e-06 -8.41637e-12)
(2.99981 1.8231e-05 -1.49907e-11)
(2.9995 4.16562e-05 -2.74496e-11)
(2.99889 0.000110735 -5.47121e-11)
(2.9971 0.000240188 -1.01647e-10)
(2.99369 0.000696267 -2.6721e-10)
(2.98237 0.00130272 -4.07583e-10)
(2.96156 0.00482083 -1.74865e-09)
(2.88618 0.00920728 -2.47953e-09)
(2.69137 0.0355668 -1.06306e-08)
(2.18653 0.0863978 -2.26984e-08)
(1.05041 0.264888 -4.22747e-08)
(0.469874 0.259168 1.31925e-09)
(0.582582 0.25232 6.25212e-11)
(0.623618 0.261509 -1.64929e-09)
(0.5712 0.274067 -1.7079e-09)
(0.483527 0.292541 -1.61455e-09)
(0.396497 0.312741 -1.36371e-09)
(0.322633 0.334936 -1.4414e-09)
(0.244344 0.358578 -1.46931e-09)
(0.149462 0.381216 -1.4992e-09)
(0.0622811 0.395455 -1.56473e-09)
(3 1.40935e-07 -3.41317e-13)
(2.99999 7.66258e-07 -1.86067e-12)
(2.99997 2.85302e-06 -3.89201e-12)
(2.99992 7.31441e-06 -8.04887e-12)
(2.99982 2.01877e-05 -1.38536e-11)
(2.99954 4.61882e-05 -2.50675e-11)
(2.99899 0.00012101 -4.72188e-11)
(2.99735 0.000268607 -8.64471e-11)
(2.99421 0.000719487 -2.07708e-10)
(2.98409 0.00152118 -3.63658e-10)
(2.96501 0.00462368 -1.27691e-09)
(2.89844 0.00949375 -1.679e-09)
(2.72841 0.0329245 -7.68683e-09)
(2.2846 0.0805062 -1.5966e-08)
(1.14636 0.246703 -2.59149e-08)
(0.522151 0.294206 -8.06963e-09)
(0.619094 0.304379 -2.50859e-09)
(0.657693 0.312843 -1.64578e-09)
(0.605786 0.32602 -1.69277e-09)
(0.519855 0.348411 -1.73492e-09)
(0.431969 0.37423 -1.42031e-09)
(0.356062 0.403067 -1.36128e-09)
(0.27476 0.435023 -1.33039e-09)
(0.173438 0.468058 -1.2836e-09)
(0.074402 0.492516 -1.27157e-09)
(3 1.4872e-07 -3.38082e-13)
(2.99999 8.10382e-07 -1.84442e-12)
(2.99997 3.00861e-06 -3.84612e-12)
(2.99993 7.70633e-06 -7.94581e-12)
(2.99984 2.11853e-05 -1.35784e-11)
(2.99959 4.83758e-05 -2.44945e-11)
(2.99908 0.000125884 -4.56062e-11)
(2.9976 0.000279863 -8.3669e-11)
(2.99474 0.000728433 -1.94174e-10)
(2.98559 0.00161301 -3.63381e-10)
(2.96832 0.00429923 -1.0292e-09)
(2.90841 0.00994016 -1.96932e-09)
(2.75675 0.0288996 -5.91319e-09)
(2.3526 0.0716136 -1.31068e-08)
(1.23774 0.208193 -2.48257e-08)
(0.565161 0.33283 -1.64796e-08)
(0.63686 0.366414 -5.49963e-09)
(0.675812 0.365368 -1.34885e-09)
(0.634819 0.377831 -1.43485e-09)
(0.558185 0.404395 -1.67092e-09)
(0.473905 0.437403 -1.56451e-09)
(0.398639 0.474773 -1.41021e-09)
(0.316599 0.517703 -1.27986e-09)
(0.210065 0.566694 -1.13434e-09)
(0.0950984 0.612719 -1.01141e-09)
(3 1.76334e-07 -3.43346e-13)
(2.99999 9.63721e-07 -1.86263e-12)
(2.99998 3.59013e-06 -3.92851e-12)
(2.99994 9.22123e-06 -8.12072e-12)
(2.99986 2.54958e-05 -1.42074e-11)
(2.99963 5.89171e-05 -2.58681e-11)
(2.99918 0.000150964 -4.99104e-11)
(2.99786 0.000356546 -9.55027e-11)
(2.99532 0.000819949 -2.06585e-10)
(2.98704 0.00211411 -4.95176e-10)
(2.97205 0.00444431 -8.10282e-10)
(2.91791 0.0114703 -2.79266e-09)
(2.7836 0.028068 -4.60184e-09)
(2.41874 0.0721214 -1.26178e-08)
(1.35928 0.203144 -2.30768e-08)
(0.643892 0.384889 -2.00243e-08)
(0.646853 0.41821 -2.05616e-09)
(0.674908 0.413633 -7.3805e-10)
(0.655914 0.428709 -1.21575e-09)
(0.595301 0.457914 -1.42024e-09)
(0.520154 0.499767 -1.63367e-09)
(0.449869 0.547837 -1.36931e-09)
(0.372494 0.604922 -1.24391e-09)
(0.268343 0.679384 -1.0127e-09)
(0.133798 0.771522 -8.09664e-10)
(3 2.53805e-07 -3.37987e-13)
(2.99999 5.1932e-07 -1.81887e-12)
(2.99998 3.78284e-06 -3.77322e-12)
(2.99995 5.72395e-06 -7.96356e-12)
(2.99988 2.61674e-05 -1.2944e-11)
(2.99969 3.67006e-05 -2.37764e-11)
(2.99933 0.000157019 -4.23621e-11)
(2.99816 0.000203812 -7.83374e-11)
(2.9962 0.000956181 -1.7011e-10)
(2.98859 0.000930483 -3.2508e-10)
(2.97623 0.00640294 -8.5941e-10)
(2.92725 0.00385827 -1.80132e-09)
(2.8103 0.0411058 -4.03319e-09)
(2.48531 0.05265 -1.28971e-08)
(1.50562 0.220628 -2.0453e-08)
(0.744479 0.438762 -2.3741e-08)
(0.656321 0.452517 -9.9349e-10)
(0.681215 0.452616 -3.46822e-10)
(0.676796 0.473818 -1.23364e-09)
(0.632501 0.506896 -1.39323e-09)
(0.57174 0.55715 -1.55073e-09)
(0.511216 0.616988 -1.40134e-09)
(0.448639 0.695301 -1.16243e-09)
(0.365672 0.814819 -7.76999e-10)
(0.207163 1.02638 -6.84281e-10)
(3 1.32352e-08 -1.99737e-15)
(2.99998 7.20111e-08 -8.96524e-15)
(2.99996 2.68075e-07 -2.9152e-14)
(2.9999 6.86698e-07 -6.28856e-14)
(2.99977 1.90153e-06 -1.77195e-13)
(2.99939 4.33013e-06 -3.57505e-13)
(2.99867 1.15728e-05 -1.04656e-12)
(2.99637 2.49391e-05 -1.94975e-12)
(2.99245 7.16382e-05 -6.76187e-12)
(2.97729 0.000146175 -1.10218e-11)
(2.95113 0.000462618 -4.47522e-11)
(2.84929 0.00098184 -7.80276e-11)
(2.57885 0.00362549 -3.12708e-10)
(1.91628 0.00863887 -6.81703e-10)
(0.860509 0.0247189 -1.04357e-09)
(0.45519 0.0233603 1.44742e-11)
(0.541444 0.0238547 -9.17878e-11)
(0.566985 0.0258739 -1.63555e-10)
(0.514883 0.0278769 -1.63611e-10)
(0.424965 0.0298709 -1.72343e-10)
(0.338217 0.0322414 -1.85219e-10)
(0.268315 0.0350896 -2.2282e-10)
(0.19837 0.0381153 -2.31969e-10)
(0.118598 0.0416148 -2.4407e-10)
(0.0522605 0.0464299 -2.5938e-10)
(3 3.94736e-08 -2.01738e-15)
(2.99998 2.14859e-07 -9.05946e-15)
(2.99996 8.00285e-07 -2.94895e-14)
(2.9999 2.0487e-06 -6.35949e-14)
(2.99977 5.68258e-06 -1.79232e-13)
(2.9994 1.29296e-05 -3.61741e-13)
(2.99869 3.47138e-05 -1.05801e-12)
(2.99642 7.45365e-05 -1.97458e-12)
(2.99255 0.000216689 -6.82203e-12)
(2.97761 0.000439806 -1.11476e-11)
(2.95184 0.00141331 -4.51094e-11)
(2.85169 0.00299775 -7.86091e-11)
(2.58599 0.0112286 -3.1419e-10)
(1.93233 0.0268638 -6.85686e-10)
(0.86979 0.0755641 -1.0594e-09)
(0.451711 0.0678229 1.88213e-11)
(0.540939 0.066253 -8.87976e-11)
(0.567499 0.0697955 -1.60085e-10)
(0.515008 0.0732256 -1.59641e-10)
(0.425032 0.0766214 -1.67785e-10)
(0.338333 0.0805535 -1.81207e-10)
(0.267941 0.0850067 -2.18621e-10)
(0.197007 0.0891421 -2.28732e-10)
(0.115928 0.0930856 -2.40674e-10)
(0.0491272 0.0968743 -2.5959e-10)
(3 6.47522e-08 -2.0561e-15)
(2.99998 3.51955e-07 -9.19886e-15)
(2.99996 1.31424e-06 -2.99645e-14)
(2.9999 3.36452e-06 -6.45849e-14)
(2.99978 9.3703e-06 -1.8217e-13)
(2.99942 2.13555e-05 -3.6778e-13)
(2.99872 5.75924e-05 -1.07486e-12)
(2.99653 0.000124183 -2.01111e-12)
(2.99275 0.000361933 -6.91657e-12)
(2.97827 0.000737702 -1.13366e-11)
(2.95331 0.00238469 -4.57602e-11)
(2.85676 0.00505015 -7.95981e-11)
(2.60131 0.0190102 -3.17526e-10)
(1.96807 0.0457243 -6.95556e-10)
(0.892107 0.130027 -1.10239e-09)
(0.448245 0.11513 2.5625e-11)
(0.543395 0.111247 -8.30666e-11)
(0.572398 0.117337 -1.54563e-10)
(0.519646 0.123686 -1.53915e-10)
(0.429992 0.130577 -1.61854e-10)
(0.343607 0.13799 -1.75691e-10)
(0.272703 0.146043 -2.12702e-10)
(0.200549 0.153804 -2.24135e-10)
(0.117798 0.160733 -2.35058e-10)
(0.0489577 0.165607 -2.56298e-10)
(3 8.02699e-08 -2.08772e-15)
(2.99998 4.39985e-07 -9.32083e-15)
(2.99996 1.63296e-06 -3.04725e-14)
(2.9999 4.16185e-06 -6.56879e-14)
(2.99978 1.1552e-05 -1.85652e-13)
(2.99944 2.60186e-05 -3.75467e-13)
(2.99878 7.16381e-05 -1.0967e-12)
(2.99668 0.000143413 -2.06818e-12)
(2.99306 0.000480827 -7.03019e-12)
(2.97927 0.000820198 -1.16494e-11)
(2.95553 0.00344159 -4.65765e-11)
(2.86438 0.00663197 -8.04238e-11)
(2.62435 0.0265806 -3.20925e-10)
(2.02275 0.0635328 -7.0632e-10)
(0.926845 0.183371 -1.16877e-09)
(0.444804 0.162754 2.77227e-11)
(0.548844 0.156049 -7.52162e-11)
(0.581986 0.164457 -1.47557e-10)
(0.52932 0.173818 -1.46963e-10)
(0.4403 0.184764 -1.54872e-10)
(0.354208 0.196048 -1.68595e-10)
(0.282823 0.208113 -2.07088e-10)
(0.209276 0.220141 -2.18322e-10)
(0.123816 0.230877 -2.28755e-10)
(0.0509773 0.2375 -2.52079e-10)
(3 9.93675e-08 -1.92509e-15)
(2.99999 5.45284e-07 -8.74259e-15)
(2.99997 2.02051e-06 -2.81209e-14)
(2.99991 5.15259e-06 -6.01047e-14)
(2.99979 1.42507e-05 -1.68497e-13)
(2.99947 3.21351e-05 -3.33727e-13)
(2.99882 8.7826e-05 -1.0042e-12)
(2.99687 0.000175563 -1.61016e-12)
(2.99332 0.000595473 -7.27465e-12)
(2.98069 0.000927508 -6.82642e-12)
(2.95828 0.00437525 -5.52367e-11)
(2.87447 0.00799513 -6.82292e-11)
(2.65554 0.0326277 -3.30575e-10)
(2.09723 0.0780667 -7.02705e-10)
(0.979324 0.230734 -1.23973e-09)
(0.449565 0.21081 7.88267e-12)
(0.561202 0.201863 -6.48725e-11)
(0.598798 0.211488 -1.36582e-10)
(0.546097 0.223172 -1.38709e-10)
(0.457625 0.238182 -1.48433e-10)
(0.371251 0.253719 -1.59323e-10)
(0.298863 0.270455 -1.97553e-10)
(0.223254 0.287609 -2.10499e-10)
(0.133928 0.303162 -2.20277e-10)
(0.0553151 0.312354 -2.39867e-10)
(3 1.26663e-07 -2.06965e-15)
(2.99999 6.89385e-07 -9.24984e-15)
(2.99997 2.56868e-06 -3.02396e-14)
(2.99991 6.5815e-06 -6.53649e-14)
(2.99981 1.8231e-05 -1.83981e-13)
(2.9995 4.16562e-05 -3.76528e-13)
(2.99889 0.000110735 -1.06558e-12)
(2.9971 0.000240188 -2.12034e-12)