/*--------------------------------*- C++ -*----------------------------------*\
| =========                 |                                                 |
| \\      /  F ield         | OpenFOAM: The Open Source CFD Toolbox           |
|  \\    /   O peration     | Version:  4.1                                   |
|   \\  /    A nd           | Web:      www.OpenFOAM.org                      |
|    \\/     M anipulation  |                                                 |
\*---------------------------------------------------------------------------*/
FoamFile
{
    version     2.0;
    format      ascii;
    class       volScalarField;
    location    "6.56";
    object      Ma;
}
// * * * * * * * * * * * * * * * * * * * * * * * * * * * * * * * * * * * * * //

dimensions      [0 0 0 0 0 0 0];

internalField   nonuniform List<scalar> 
52500
(
3.00001
2.99996
2.9999
2.99964
2.99928
2.9978
2.99571
2.98753
2.97437
2.93022
2.83315
2.60535
2.02831
1.15647
0.483802
0.302408
0.337285
0.346039
0.315378
0.262439
0.210303
0.167969
0.126343
0.0799619
0.0461177
3.00001
2.99996
2.9999
2.99965
2.99929
2.99784
2.99577
2.98774
2.97469
2.93128
2.83469
2.60984
2.03605
1.16768
0.490304
0.302794
0.338656
0.348032
0.317558
0.265321
0.214458
0.173607
0.1342
0.0932352
0.0694667
3.00002
2.99997
2.99991
2.99966
2.99931
2.9979
2.99588
2.98809
2.97532
2.93317
2.83864
2.61939
2.05365
1.19313
0.505341
0.304761
0.342653
0.353566
0.323919
0.273752
0.226175
0.1892
0.155222
0.12345
0.10866
3.00002
2.99997
2.99991
2.99967
2.99934
2.99799
2.99605
2.98862
2.97627
2.93606
2.84476
2.634
2.08029
1.23277
0.527444
0.306987
0.348474
0.362176
0.334162
0.287291
0.244318
0.212503
0.184823
0.161104
0.151608
3.00002
2.99997
2.99992
2.99969
2.99938
2.9981
2.99626
2.98925
2.97752
2.93956
2.853
2.65291
2.12083
1.29016
0.559374
0.312259
0.35772
0.374876
0.348844
0.305835
0.267773
0.24134
0.219857
0.202501
0.196668
3.00002
2.99998
2.99992
2.99971
2.99942
2.99822
2.9965
2.9899
2.97905
2.94333
2.86338
2.67477
2.18047
1.36937
0.603567
0.32372
0.372329
0.393172
0.368902
0.330213
0.296928
0.27554
0.25987
0.24858
0.246383
3.00002
2.99998
2.99993
2.99973
2.99946
2.99832
2.99673
2.99036
2.9807
2.94661
2.87773
2.70128
2.25774
1.47331
0.661313
0.345901
0.395269
0.418445
0.395355
0.360447
0.332043
0.315789
0.305952
0.301062
0.304509
3.00002
2.99998
2.99994
2.99976
2.99951
2.99848
2.99703
2.99126
2.98255
2.95129
2.89223
2.73034
2.34205
1.59801
0.729308
0.381986
0.429439
0.451632
0.429492
0.397901
0.373413
0.362159
0.358904
0.362565
0.376383
3.00002
2.99999
2.99995
2.99979
2.99956
2.99864
2.99734
2.99217
2.98441
2.95624
2.90481
2.75737
2.41992
1.7155
0.800651
0.424252
0.465435
0.483396
0.465998
0.440919
0.42152
0.415477
0.419952
0.437124
0.47433
3.00002
2.99999
2.99996
2.99982
2.99962
2.99883
2.99768
2.9932
2.9863
2.962
2.91522
2.78755
2.47456
1.82949
0.886229
0.481159
0.493793
0.504537
0.499904
0.483204
0.472341
0.473427
0.491227
0.535348
0.636646
3
2.99995
2.99988
2.99962
2.99926
2.99778
2.99568
2.9875
2.97434
2.93018
2.83313
2.60529
2.02827
1.15636
0.483666
0.302235
0.33712
0.345872
0.315189
0.262203
0.209996
0.167574
0.125804
0.0790936
0.0445709
3
2.99995
2.99988
2.99963
2.99927
2.99782
2.99575
2.98772
2.97467
2.93124
2.83468
2.60978
2.036
1.16756
0.490152
0.302597
0.338471
0.347847
0.317354
0.265075
0.214152
0.173225
0.133698
0.0925018
0.0684648
3
2.99995
2.99989
2.99964
2.99929
2.99788
2.99586
2.98806
2.9753
2.93313
2.83861
2.61932
2.05357
1.193
0.505193
0.304573
0.342473
0.353384
0.323719
0.273515
0.225887
0.188854
0.154795
0.122905
0.108032
3
2.99995
2.99989
2.99965
2.99932
2.99797
2.99603
2.9886
2.97625
2.93602
2.84472
2.63393
2.08022
1.23264
0.527303
0.306803
0.3483
0.362
0.33397
0.287068
0.244054
0.212198
0.184469
0.160693
0.151165
3
2.99995
2.9999
2.99967
2.99936
2.99808
2.99624
2.98922
2.9775
2.93953
2.85296
2.65284
2.12075
1.29002
0.55924
0.312077
0.357548
0.374705
0.34866
0.305625
0.267534
0.241074
0.219564
0.20218
0.196334
3
2.99996
2.99991
2.99969
2.9994
2.9982
2.99648
2.98988
2.97902
2.94329
2.86334
2.6747
2.18039
1.36923
0.603442
0.323545
0.372165
0.393011
0.368731
0.330022
0.296716
0.27531
0.259626
0.248323
0.246121
3
2.99996
2.99991
2.99971
2.99944
2.9983
2.99671
2.99034
2.98068
2.94657
2.87771
2.70122
2.2577
1.47319
0.661214
0.345746
0.395123
0.418302
0.395201
0.360278
0.331858
0.315593
0.305749
0.300854
0.304301
3
2.99997
2.99992
2.99974
2.99949
2.99846
2.99701
2.99124
2.98253
2.95126
2.8922
2.73029
2.34199
1.59789
0.729211
0.381837
0.429301
0.4515
0.429354
0.397752
0.373253
0.361993
0.358735
0.362397
0.376221
3
2.99997
2.99993
2.99977
2.99954
2.99862
2.99732
2.99214
2.98439
2.95621
2.90479
2.75732
2.41988
1.7154
0.800571
0.424121
0.465314
0.483278
0.465875
0.440788
0.421383
0.415337
0.419813
0.436991
0.474207
3
2.99997
2.99994
2.9998
2.9996
2.9988
2.99766
2.99318
2.98628
2.96196
2.9152
2.7875
2.47455
1.82939
0.886147
0.481031
0.493686
0.504432
0.499795
0.48309
0.472223
0.473309
0.491113
0.535245
0.636562
3
2.99995
2.99988
2.99962
2.99926
2.99778
2.99568
2.9875
2.97434
2.93018
2.83313
2.60528
2.02827
1.15636
0.483664
0.302236
0.33712
0.345872
0.315189
0.262203
0.209996
0.167573
0.125804
0.0790934
0.0445709
3
2.99995
2.99988
2.99963
2.99927
2.99782
2.99575
2.98772
2.97467
2.93124
2.83467
2.60978
2.036
1.16755
0.49015
0.302598
0.338471
0.347847
0.317354
0.265075
0.214152
0.173225
0.133698
0.0925017
0.0684647
3
2.99995
2.99989
2.99964
2.99929
2.99788
2.99586
2.98806
2.9753
2.93313
2.8386
2.61932
2.05357
1.19299
0.50519
0.304574
0.342474
0.353384
0.323719
0.273515
0.225887
0.188854
0.154795
0.122905
0.108031
3
2.99995
2.99989
2.99965
2.99932
2.99797
2.99603
2.9886
2.97625
2.93602
2.84472
2.63393
2.08021
1.23263
0.527301
0.306804
0.3483
0.362
0.33397
0.287068
0.244054
0.212198
0.184469
0.160693
0.151165
3
2.99995
2.9999
2.99967
2.99936
2.99808
2.99624
2.98922
2.9775
2.93953
2.85296
2.65284
2.12075
1.29002
0.559238
0.312078
0.357549
0.374705
0.348659
0.305625
0.267534
0.241075
0.219564
0.20218
0.196334
3
2.99996
2.99991
2.99969
2.9994
2.9982
2.99648
2.98988
2.97902
2.94329
2.86334
2.6747
2.18038
1.36922
0.603439
0.323546
0.372165
0.393011
0.368731
0.330022
0.296716
0.27531
0.259626
0.248323
0.246121
3
2.99996
2.99991
2.99971
2.99944
2.9983
2.99671
2.99034
2.98068
2.94657
2.87771
2.70122
2.25769
1.47318
0.66121
0.345746
0.395122
0.418301
0.3952
0.360277
0.331858
0.315593
0.305749
0.300854
0.304302
3
2.99997
2.99992
2.99974
2.99949
2.99846
2.99701
2.99124
2.98253
2.95126
2.8922
2.73028
2.34199
1.59788
0.729207
0.381836
0.4293
0.451498
0.429353
0.397751
0.373252
0.361993
0.358735
0.362397
0.376221
3
2.99997
2.99993
2.99977
2.99954
2.99862
2.99732
2.99214
2.98439
2.95621
2.90478
2.75732
2.41988
1.71539
0.800569
0.424121
0.465314
0.483277
0.465874
0.440788
0.421383
0.415336
0.419812
0.43699
0.474207
3
2.99997
2.99994
2.9998
2.9996
2.9988
2.99766
2.99318
2.98628
2.96196
2.9152
2.78749
2.47455
1.82938
0.886143
0.481029
0.493686
0.504432
0.499794
0.483089
0.472223
0.473308
0.491113
0.535245
0.636562
3
2.99995
2.99988
2.99962
2.99926
2.99778
2.99568
2.9875
2.97434
2.93018
2.83313
2.60528
2.02827
1.15636
0.483664
0.302236
0.33712
0.345872
0.315189
0.262203
0.209996
0.167573
0.125804
0.0790934
0.0445709
3
2.99995
2.99988
2.99963
2.99927
2.99782
2.99575
2.98772
2.97467
2.93124
2.83467
2.60977
2.036
1.16755
0.49015
0.302598
0.338471
0.347847
0.317354
0.265075
0.214152
0.173225
0.133698
0.0925017
0.0684647
3
2.99995
2.99989
2.99964
2.99929
2.99788
2.99586
2.98806
2.9753
2.93313
2.8386
2.61932
2.05357
1.19299
0.50519
0.304574
0.342474
0.353384
0.323719
0.273515
0.225887
0.188854
0.154795
0.122905
0.108031
3
2.99995
2.99989
2.99965
2.99932
2.99797
2.99603
2.9886
2.97625
2.93602
2.84472
2.63393
2.08021
1.23263
0.527301
0.306804
0.3483
0.362
0.33397
0.287068
0.244054
0.212198
0.184469
0.160693
0.151165
3
2.99995
2.9999
2.99967
2.99936
2.99808
2.99624
2.98922
2.9775
2.93953
2.85296
2.65284
2.12075
1.29002
0.559238
0.312078
0.357549
0.374705
0.348659
0.305625
0.267534
0.241075
0.219564
0.20218
0.196334
3
2.99996
2.99991
2.99969
2.9994
2.9982
2.99648
2.98988
2.97902
2.94329
2.86334
2.6747
2.18038
1.36922
0.603439
0.323546
0.372165
0.393011
0.368731
0.330022
0.296716
0.27531
0.259626
0.248323
0.246121
3
2.99996
2.99991
2.99971
2.99944
2.9983
2.99671
2.99034
2.98068
2.94657
2.87771
2.70122
2.25769
1.47318
0.66121
0.345746
0.395122
0.418301
0.3952
0.360277
0.331858
0.315593
0.305749
0.300854
0.304302
3
2.99997
2.99992
2.99974
2.99949
2.99846
2.99701
2.99124
2.98253
2.95126
2.8922
2.73028
2.34199
1.59788
0.729207
0.381836
0.4293
0.451498
0.429353
0.397751
0.373252
0.361993
0.358735
0.362397
0.376221
3
2.99997
2.99993
2.99977
2.99954
2.99862
2.99732
2.99214
2.98439
2.95621
2.90478
2.75732
2.41988
1.71539
0.800569
0.424121
0.465314
0.483277
0.465874
0.440787
0.421383
0.415336
0.419812
0.43699
0.474207
3
2.99997
2.99994
2.9998
2.9996
2.9988
2.99766
2.99318
2.98628
2.96196
2.9152
2.78749
2.47455
1.82938
0.886143
0.481029
0.493686
0.504432
0.499794
0.483089
0.472223
0.473308
0.491113
0.535245
0.636562
3
2.99995
2.99988
2.99962
2.99926
2.99778
2.99568
2.9875
2.97434
2.93018
2.83313
2.60528
2.02826
1.15636
0.483663
0.302236
0.33712
0.345872
0.315188
0.262203
0.209996
0.167573
0.125804
0.0790934
0.0445708
3
2.99995
2.99988
2.99963
2.99927
2.99782
2.99575
2.98772
2.97467
2.93124
2.83467
2.60977
2.036
1.16755
0.490149
0.302599
0.338471
0.347847
0.317354
0.265075
0.214152
0.173225
0.133698
0.0925017
0.0684647
3
2.99995
2.99989
2.99964
2.99929
2.99788
2.99586
2.98806
2.9753
2.93313
2.8386
2.61932
2.05357
1.19299
0.50519
0.304574
0.342474
0.353384
0.323719
0.273515
0.225887
0.188854
0.154795
0.122905
0.108031
3
2.99995
2.99989
2.99965
2.99932
2.99797
2.99603
2.9886
2.97625
2.93602
2.84472
2.63393
2.08021
1.23263
0.5273
0.306805
0.3483
0.362
0.33397
0.287068
0.244054
0.212198
0.184469
0.160693
0.151165
3
2.99995
2.9999
2.99967
2.99936
2.99808
2.99624
2.98922
2.9775
2.93953
2.85296
2.65284
2.12075
1.29001
0.559237
0.312079
0.357549
0.374705
0.348659
0.305625
0.267534
0.241075
0.219564
0.20218
0.196334
3
2.99996
2.99991
2.99969
2.9994
2.9982
2.99648
2.98988
2.97902
2.94329
2.86334
2.6747
2.18038
1.36922
0.603438
0.323546
0.372165
0.393011
0.368731
0.330022
0.296716
0.27531
0.259626
0.248323
0.246121
3
2.99996
2.99991
2.99971
2.99944
2.9983
2.99671
2.99034
2.98068
2.94657
2.87771
2.70122
2.25769
1.47318
0.661209
0.345746
0.395122
0.418301
0.3952
0.360277
0.331858
0.315593
0.305749
0.300854
0.304301
3
2.99997
2.99992
2.99974
2.99949
2.99846
2.99701
2.99124
2.98253
2.95126
2.8922
2.73028
2.34199
1.59788
0.729206
0.381836
0.429299
0.451498
0.429352
0.397751
0.373252
0.361993
0.358735
0.362397
0.376221
3
2.99997
2.99993
2.99977
2.99954
2.99862
2.99732
2.99214
2.98439
2.95621
2.90478
2.75732
2.41987
1.71539
0.800568
0.424121
0.465313
0.483277
0.465874
0.440787
0.421382
0.415336
0.419812
0.43699
0.474207
3
2.99997
2.99994
2.9998
2.9996
2.9988
2.99766
2.99318
2.98628
2.96196
2.9152
2.78749
2.47455
1.82938
0.886141
0.481029
0.493686
0.504432
0.499794
0.483089
0.472222
0.473308
0.491112
0.535244
0.636561
3
2.99995
2.99988
2.99962
2.99926
2.99778
2.99568
2.9875
2.97434
2.93018
2.83313
2.60528
2.02826
1.15636
0.483663
0.302236
0.33712
0.345872
0.315188
0.262203
0.209996
0.167573
0.125804
0.0790934
0.0445708
3
2.99995
2.99988
2.99963
2.99927
2.99782
2.99575
2.98772
2.97467
2.93124
2.83467
2.60977
2.036
1.16755
0.490149
0.302599
0.338471
0.347847
0.317354
0.265075
0.214152
0.173225
0.133698
0.0925017
0.0684647
3
2.99995
2.99989
2.99964
2.99929
2.99788
2.99586
2.98806
2.9753
2.93313
2.8386
2.61932
2.05357
1.19299
0.50519
0.304574
0.342474
0.353384
0.323719
0.273515
0.225887
0.188854
0.154795
0.122905
0.108031
3
2.99995
2.99989
2.99965
2.99932
2.99797
2.99603
2.9886
2.97625
2.93602
2.84472
2.63393
2.08021
1.23263
0.5273
0.306805
0.3483
0.362
0.33397
0.287068
0.244054
0.212198
0.184469
0.160693
0.151165
3
2.99995
2.9999
2.99967
2.99936
2.99808
2.99624
2.98922
2.9775
2.93953
2.85296
2.65284
2.12075
1.29001
0.559237
0.312079
0.357549
0.374705
0.348659
0.305625
0.267534
0.241075
0.219564
0.20218
0.196334
3
2.99996
2.99991
2.99969
2.9994
2.9982
2.99648
2.98988
2.97902
2.94329
2.86334
2.6747
2.18038
1.36922
0.603438
0.323546
0.372165
0.393011
0.368731
0.330022
0.296716
0.27531
0.259626
0.248323
0.246121
3
2.99996
2.99991
2.99971
2.99944
2.9983
2.99671
2.99034
2.98068
2.94657
2.87771
2.70122
2.25769
1.47318
0.661209
0.345746
0.395122
0.4183
0.3952
0.360277
0.331858
0.315593
0.305749
0.300854
0.304301
3
2.99997
2.99992
2.99974
2.99949
2.99846
2.99701
2.99124
2.98253
2.95126
2.8922
2.73028
2.34199
1.59788
0.729206
0.381836
0.429299
0.451498
0.429352
0.397751
0.373252
0.361993
0.358735
0.362397
0.376221
3
2.99997
2.99993
2.99977
2.99954
2.99862
2.99732
2.99214
2.98439
2.95621
2.90478
2.75732
2.41987
1.71539
0.800568
0.424121
0.465313
0.483276
0.465874
0.440787
0.421382
0.415336
0.419812
0.43699
0.474207
3
2.99997
2.99994
2.9998
2.9996
2.9988
2.99766
2.99318
2.98628
2.96196
2.9152
2.78749
2.47455
1.82938
0.886141
0.481028
0.493686
0.504432
0.499794
0.483089
0.472222
0.473308
0.491112
0.535244
0.636561
3
2.99995
2.99988
2.99962
2.99926
2.99778
2.99568
2.9875
2.97434
2.93018
2.83313
2.60528
2.02827
1.15636
0.483664
0.302236
0.33712
0.345872
0.315189
0.262203
0.209996
0.167573
0.125804
0.0790934
0.0445708
3
2.99995
2.99988
2.99963
2.99927
2.99782
2.99575
2.98772
2.97467
2.93124
2.83467
2.60977
2.036
1.16755
0.490149
0.302598
0.338471
0.347847
0.317354
0.265075
0.214152
0.173225
0.133698
0.0925017
0.0684647
3
2.99995
2.99989
2.99964
2.99929
2.99788
2.99586
2.98806
2.9753
2.93313
2.8386
2.61932
2.05357
1.19299
0.50519
0.304574
0.342474
0.353384
0.323719
0.273515
0.225887
0.188854
0.154795
0.122905
0.108031
3
2.99995
2.99989
2.99965
2.99932
2.99797
2.99603
2.9886
2.97625
2.93602
2.84472
2.63393
2.08021
1.23263
0.527301
0.306805
0.3483
0.362
0.33397
0.287068
0.244054
0.212198
0.184469
0.160693
0.151165
3
2.99995
2.9999
2.99967
2.99936
2.99808
2.99624
2.98922
2.9775
2.93953
2.85296
2.65284
2.12075
1.29002
0.559237
0.312078
0.357549
0.374705
0.348659
0.305625
0.267534
0.241075
0.219564
0.20218
0.196334
3
2.99996
2.99991
2.99969
2.9994
2.9982
2.99648
2.98988
2.97902
2.94329
2.86334
2.6747
2.18038
1.36922
0.603439
0.323546
0.372165
0.393011
0.368731
0.330022
0.296716
0.27531
0.259626
0.248323
0.246121
3
2.99996
2.99991
2.99971
2.99944
2.9983
2.99671
2.99034
2.98068
2.94657
2.87771
2.70122
2.25769
1.47318
0.66121
0.345746
0.395122
0.418301
0.3952
0.360277
0.331858
0.315593
0.305749
0.300854
0.304302
3
2.99997
2.99992
2.99974
2.99949
2.99846
2.99701
2.99124
2.98253
2.95126
2.8922
2.73028
2.34199
1.59788
0.729207
0.381836
0.4293
0.451498
0.429353
0.397751
0.373252
0.361993
0.358735
0.362397
0.376221
3
2.99997
2.99993
2.99977
2.99954
2.99862
2.99732
2.99214
2.98439
2.95621
2.90478
2.75732
2.41988
1.71539
0.800568
0.424121
0.465314
0.483277
0.465874
0.440787
0.421382
0.415336
0.419812
0.43699
0.474207
3
2.99997
2.99994
2.9998
2.9996
2.9988
2.99766
2.99318
2.98628
2.96196
2.9152
2.78749
2.47455
1.82938
0.886142
0.481029
0.493686
0.504432
0.499794
0.483089
0.472223
0.473308
0.491112
0.535245
0.636561
3
2.99995
2.99988
2.99962
2.99926
2.99778
2.99568
2.9875
2.97434
2.93018
2.83313
2.60528
2.02827
1.15636
0.483664
0.302236
0.33712
0.345872
0.315189
0.262203
0.209996
0.167573
0.125804
0.0790934
0.0445709
3
2.99995
2.99988
2.99963
2.99927
2.99782
2.99575
2.98772
2.97467
2.93124
2.83467
2.60978
2.036
1.16755
0.49015
0.302598
0.338471
0.347847
0.317354
0.265075
0.214152
0.173225
0.133698
0.0925017
0.0684647
3
2.99995
2.99989
2.99964
2.99929
2.99788
2.99586
2.98806
2.9753
2.93313
2.8386
2.61932
2.05357
1.19299
0.50519
0.304574
0.342474
0.353384
0.323719
0.273515
0.225887
0.188854
0.154795
0.122905
0.108031
3
2.99995
2.99989
2.99965
2.99932
2.99797
2.99603
2.9886
2.97625
2.93602
2.84472
2.63393
2.08021
1.23263
0.527301
0.306804
0.3483
0.362
0.33397
0.287068
0.244054
0.212198
0.184469
0.160693
0.151165
3
2.99995
2.9999
2.99967
2.99936
2.99808
2.99624
2.98922
2.9775
2.93953
2.85296
2.65284
2.12075
1.29002
0.559238
0.312078
0.357549
0.374705
0.348659
0.305625
0.267534
0.241075
0.219564
0.20218
0.196334
3
2.99996
2.99991
2.99969
2.9994
2.9982
2.99648
2.98988
2.97902
2.94329
2.86334
2.6747
2.18038
1.36922
0.603439
0.323546
0.372165
0.393011
0.368731
0.330022
0.296716
0.27531
0.259626
0.248323
0.246121
3
2.99996
2.99991
2.99971
2.99944
2.9983
2.99671
2.99034
2.98068
2.94657
2.87771
2.70122
2.25769
1.47318
0.66121
0.345746
0.395122
0.418301
0.3952
0.360277
0.331858
0.315593
0.305749
0.300854
0.304302
3
2.99997
2.99992
2.99974
2.99949
2.99846
2.99701
2.99124
2.98253
2.95126
2.8922
2.73028
2.34199
1.59788
0.729207
0.381836
0.4293
0.451498
0.429353
0.397751
0.373252
0.361993
0.358735
0.362397
0.376221
3
2.99997
2.99993
2.99977
2.99954
2.99862
2.99732
2.99214
2.98439
2.95621
2.90478
2.75732
2.41988
1.71539
0.800569
0.424121
0.465314
0.483277
0.465874
0.440787
0.421383
0.415336
0.419812
0.43699
0.474207
3
2.99997
2.99994
2.9998
2.9996
2.9988
2.99766
2.99318
2.98628
2.96196
2.9152
2.78749
2.47455
1.82938
0.886143
0.481029
0.493686
0.504432
0.499794
0.483089
0.472223
0.473308
0.491113
0.535245
0.636562
3
2.99995
2.99988
2.99962
2.99926
2.99778
2.99568
2.9875
2.97434
2.93018
2.83313
2.60529
2.02827
1.15636
0.483666
0.302235
0.33712
0.345872
0.315189
0.262203
0.209996
0.167574
0.125804
0.0790936
0.0445709
3
2.99995
2.99988
2.99963
2.99927
2.99782
2.99575
2.98772
2.97467
2.93124
2.83468
2.60978
2.036
1.16756
0.490152
0.302597
0.338471
0.347847
0.317354
0.265075
0.214152
0.173225
0.133698
0.0925018
0.0684648
3
2.99995
2.99989
2.99964
2.99929
2.99788
2.99586
2.98806
2.9753
2.93313
2.83861
2.61932
2.05357
1.193
0.505193
0.304573
0.342473
0.353384
0.323719
0.273515
0.225887
0.188854
0.154795
0.122905
0.108032
3
2.99995
2.99989
2.99965
2.99932
2.99797
2.99603
2.9886
2.97625
2.93602
2.84472
2.63393
2.08022
1.23264
0.527303
0.306803
0.3483
0.362
0.33397
0.287068
0.244054
0.212198
0.184469
0.160693
0.151165
3
2.99995
2.9999
2.99967
2.99936
2.99808
2.99624
2.98922
2.9775
2.93953
2.85296
2.65284
2.12075
1.29002
0.55924
0.312077
0.357548
0.374705
0.34866
0.305625
0.267534
0.241074
0.219564
0.20218
0.196334
3
2.99996
2.99991
2.99969
2.9994
2.9982
2.99648
2.98988
2.97902
2.94329
2.86334
2.6747
2.18039
1.36923
0.603442
0.323545
0.372165
0.393011
0.368731
0.330023
0.296716
0.27531
0.259626
0.248323
0.246121
3
2.99996
2.99991
2.99971
2.99944
2.9983
2.99671
2.99034
2.98068
2.94657
2.87771
2.70122
2.2577
1.47319
0.661214
0.345746
0.395123
0.418302
0.395201
0.360278
0.331858
0.315593
0.305749
0.300854
0.304301
3
2.99997
2.99992
2.99974
2.99949
2.99846
2.99701
2.99124
2.98253
2.95126
2.8922
2.73029
2.34199
1.59789
0.729211
0.381837
0.429301
0.4515
0.429354
0.397752
0.373253
0.361993
0.358735
0.362397
0.376221
3
2.99997
2.99993
2.99977
2.99954
2.99862
2.99732
2.99214
2.98439
2.95621
2.90479
2.75732
2.41988
1.7154
0.800571
0.424121
0.465314
0.483278
0.465875
0.440788
0.421383
0.415337
0.419813
0.436991
0.474207
3
2.99997
2.99994
2.9998
2.9996
2.9988
2.99766
2.99318
2.98628
2.96196
2.9152
2.7875
2.47455
1.82939
0.886147
0.481031
0.493686
0.504432
0.499795
0.48309
0.472223
0.473309
0.491113
0.535245
0.636562
3.00001
2.99996
2.9999
2.99964
2.99928
2.9978
2.99571
2.98753
2.97437
2.93022
2.83315
2.60535
2.02831
1.15648
0.483803
0.302408
0.337285
0.346039
0.315378
0.262439
0.210303
0.16797
0.126343
0.0799619
0.0461177
3.00001
2.99996
2.9999
2.99965
2.99929
2.99784
2.99577
2.98774
2.97469
2.93128
2.83469
2.60984
2.03605
1.16768
0.490305
0.302794
0.338656
0.348032
0.317558
0.265321
0.214458
0.173607
0.1342
0.0932352
0.0694667
3.00002
2.99997
2.99991
2.99966
2.99931
2.9979
2.99588
2.98809
2.97532
2.93317
2.83864
2.61939
2.05365
1.19313
0.505342
0.304761
0.342653
0.353566
0.323919
0.273752
0.226175
0.1892
0.155222
0.12345
0.10866
3.00002
2.99997
2.99991
2.99967
2.99934
2.99799
2.99605
2.98862
2.97627
2.93606
2.84476
2.634
2.08029
1.23277
0.527444
0.306987
0.348474
0.362176
0.334162
0.287291
0.244318
0.212503
0.184823
0.161104
0.151608
3.00002
2.99997
2.99992
2.99969
2.99938
2.9981
2.99626
2.98925
2.97752
2.93956
2.853
2.65291
2.12083
1.29016
0.559374
0.312259
0.35772
0.374876
0.348844
0.305835
0.267773
0.24134
0.219857
0.202501
0.196668
3.00002
2.99998
2.99992
2.99971
2.99942
2.99822
2.9965
2.9899
2.97905
2.94333
2.86338
2.67477
2.18047
1.36937
0.603568
0.32372
0.372329
0.393172
0.368902
0.330213
0.296928
0.27554
0.25987
0.24858
0.246383
3.00002
2.99998
2.99993
2.99973
2.99946
2.99832
2.99673
2.99036
2.9807
2.94661
2.87773
2.70128
2.25774
1.47331
0.661314
0.345901
0.395269
0.418446
0.395355
0.360447
0.332043
0.315789
0.305952
0.301062
0.304509
3.00002
2.99998
2.99994
2.99976
2.99951
2.99848
2.99703
2.99126
2.98255
2.95129
2.89223
2.73034
2.34206
1.59801
0.729308
0.381986
0.429439
0.451632
0.429492
0.397902
0.373413
0.36216
0.358904
0.362565
0.376383
3.00002
2.99999
2.99995
2.99979
2.99956
2.99864
2.99734
2.99217
2.98441
2.95624
2.90481
2.75737
2.41992
1.7155
0.800651
0.424252
0.465435
0.483396
0.465998
0.440919
0.42152
0.415477
0.419952
0.437124
0.47433
3.00002
2.99999
2.99996
2.99982
2.99962
2.99883
2.99768
2.9932
2.9863
2.962
2.91522
2.78755
2.47456
1.82949
0.88623
0.481159
0.493793
0.504537
0.499904
0.483204
0.472341
0.473427
0.491227
0.535348
0.636646
3.00002
3
2.99995
2.99988
2.99959
2.99917
2.99754
2.9951
2.98611
2.97059
2.92164
2.80919
2.55313
1.93366
1.04854
0.563161
0.518944
0.529073
0.533629
0.525696
0.52329
0.534596
0.571274
0.65297
0.821177
3.00002
3.00001
2.99996
2.9999
2.99964
2.99928
2.99781
2.99574
2.98755
2.97472
2.93084
2.83713
2.613
2.05237
1.2019
0.64798
0.538779
0.552587
0.565062
0.566781
0.572652
0.59511
0.64709
0.745049
0.913468
3.00002
3.00001
2.99997
2.99992
2.9997
2.9994
2.99817
2.99641
2.98972
2.97859
2.94252
2.86109
2.67158
2.17141
1.37224
0.741139
0.560907
0.576949
0.596257
0.606343
0.61977
0.650289
0.708727
0.802769
0.941451
3.00002
3.00001
2.99998
2.99993
2.99975
2.99949
2.99844
2.99695
2.99102
2.98211
2.95018
2.88868
2.72542
2.32271
1.58544
0.85191
0.599271
0.611093
0.628795
0.646168
0.665204
0.699241
0.756095
0.838613
0.95345
3.00002
3.00001
2.99999
2.99995
2.9998
2.99959
2.99874
2.99751
2.99274
2.9854
2.95934
2.91161
2.77232
2.4702
1.78729
0.986287
0.662383
0.655187
0.667632
0.68565
0.707274
0.741492
0.796486
0.867294
0.962847
3.00002
3.00001
3
2.99995
2.99988
2.9996
2.9992
2.99762
2.99525
2.98661
2.97173
2.92497
2.81785
2.57667
1.98597
1.14839
0.73711
0.696464
0.70816
0.724239
0.745338
0.7776
0.828525
0.893952
0.973508
3.00002
3.00002
3.00001
2.99997
2.99991
2.99968
2.99936
2.99807
2.99621
2.98915
2.9775
2.93966
2.8548
2.65852
2.14638
1.35447
0.838351
0.725583
0.737397
0.75498
0.779657
0.810346
0.854907
0.91521
0.986124
3.00002
3.00002
3.00001
2.99998
2.99993
2.99975
2.9995
2.99847
2.99698
2.99118
2.98228
2.95102
2.88991
2.72764
2.3368
1.59759
0.96742
0.766583
0.765586
0.781789
0.809787
0.841635
0.880801
0.933597
0.997512
3.00002
3.00002
3.00001
3
2.99994
2.99986
2.99955
2.99908
2.9973
2.99461
2.98495
2.96775
2.91616
2.79521
2.52622
1.92712
1.14251
0.834884
0.807119
0.817225
0.840447
0.872175
0.906923
0.952202
1.00809
3.00003
3.00002
3.00002
3.00001
2.99996
2.9999
2.99966
2.99932
2.99797
2.99596
2.98862
2.97589
2.93642
2.84489
2.63974
2.10951
1.328
0.912619
0.841059
0.851182
0.871198
0.900447
0.934502
0.973432
1.02069
3.00003
3.00002
3.00002
3.00001
2.99999
2.99992
2.99981
2.99941
2.9988
2.99666
2.99277
2.98108
2.95405
2.88866
2.70823
2.35795
1.57351
1.0476
0.884211
0.881546
0.896853
0.923732
0.95751
0.994714
1.03576
3.00003
3.00003
3.00002
3.00001
3
2.99994
2.99986
2.99954
2.99909
2.99728
2.99468
2.98466
2.96865
2.91655
2.80671
2.53646
1.9676
1.22828
0.953468
0.921781
0.929323
0.952099
0.983606
1.01697
1.05394
3.00003
3.00003
3.00002
3.00002
3
2.99998
2.99989
2.99975
2.99922
2.99844
2.99553
2.99083
2.97527
2.94329
2.86005
2.64711
2.21985
1.42419
1.03827
0.954441
0.958574
0.977768
1.007
1.03811
1.0715
3.00003
3.00003
3.00003
3.00002
3.00001
2.99999
2.99992
2.99982
2.99943
2.99888
2.99669
2.99346
2.98174
2.96095
2.89921
2.75117
2.44062
1.75176
1.19224
1.00745
0.993996
1.0055
1.02908
1.05898
1.09002
3.00003
3.00003
3.00003
3.00002
3.00002
3
2.99997
2.99985
2.99968
2.99904
2.99808
2.99449
2.98881
2.96945
2.93359
2.82998
2.61159
2.07444
1.38342
1.0849
1.03072
1.03491
1.05215
1.07877
1.10847
3.00003
3.00003
3.00003
3.00003
3.00002
3.00001
2.99999
2.99991
2.99979
2.99934
2.99869
2.99618
2.99244
2.97896
2.9552
2.88543
2.72214
2.37087
1.6646
1.21462
1.07768
1.06704
1.07594
1.09708
1.12587
3.00003
3.00003
3.00003
3.00003
3.00002
3.00002
2.99999
2.99996
2.99983
2.99965
2.99894
2.99787
2.99397
2.9877
2.96678
2.9279
2.81606
2.58636
2.02133
1.39668
1.14586
1.10393
1.10618
1.12128
1.14468
3.00003
3.00003
3.00003
3.00003
3.00002
3.00002
3.00001
2.99998
2.9999
2.99977
2.99929
2.99859
2.99591
2.99192
2.97743
2.95251
2.87898
2.71205
2.34059
1.64955
1.25546
1.1438
1.13418
1.14192
1.16071
3.00003
3.00003
3.00003
3.00003
3.00003
3.00002
3.00002
2.99999
2.99996
2.99983
2.99963
2.99891
2.99781
2.99384
2.98738
2.96624
2.92597
2.81373
2.57826
2.01208
1.43504
1.20741
1.17019
1.16881
1.1822
3.00003
3.00003
3.00003
3.00003
3.00003
3.00003
3.00002
3.00001
2.99997
2.99992
2.99972
2.99943
2.99833
2.99667
2.99086
2.98055
2.95004
2.8794
2.72447
2.30935
1.66692
1.29757
1.20665
1.19705
1.20395
3.00003
3.00003
3.00003
3.00003
3.00003
3.00003
3.00002
3.00002
2.99999
2.99996
2.99983
2.99964
2.9989
2.99783
2.99378
2.98761
2.96609
2.9277
2.81683
2.58621
2.04143
1.47622
1.26006
1.22793
1.22749
3.00003
3.00003
3.00003
3.00003
3.00003
3.00003
3.00003
3.00002
3.00001
2.99998
2.99992
2.99973
2.99945
2.99839
2.99679
2.99118
2.98138
2.95192
2.88506
2.73533
2.34267
1.71836
1.35115
1.25951
1.25119
3.00003
3.00003
3.00003
3.00003
3.00003
3.00003
3.00003
3.00002
3.00002
2.99999
2.99996
2.99983
2.99965
2.99895
2.99795
2.99411
2.98834
2.96803
2.93271
2.82879
2.61627
2.10587
1.53619
1.31452
1.27879
3.00003
3.00003
3.00003
3.00003
3.00003
3.00003
3.00003
3.00003
3.00002
3.00001
2.99999
2.99991
2.99979
2.99936
2.99873
2.99631
2.99281
2.97984
2.95849
2.89369
2.75221
2.43547
1.81081
1.42644
1.31283
3.00003
3.00003
3.00003
3.00003
3.00003
3.00003
3.00003
3.00003
3.00002
3.00002
3
2.99996
2.99989
2.99962
2.99924
2.99778
2.99565
2.98775
2.97536
2.93488
2.85494
2.65578
2.2184
1.62368
1.38238
3.00003
3.00003
3.00003
3.00003
3.00003
3.00003
3.00003
3.00003
3.00003
3.00002
3.00001
2.99999
2.99993
2.99983
2.99946
2.9989
2.99689
2.99377
2.98299
2.96423
2.90937
2.78987
2.50955
1.96509
1.51809
3.00003
3.00003
3.00003
3.00003
3.00003
3.00003
3.00003
3.00003
3.00003
3.00002
3.00002
3
2.99998
2.99988
2.99974
2.99922
2.99842
2.99559
2.99098
2.97595
2.94861
2.86849
2.71128
2.28737
1.74913
3.00003
3.00003
3.00003
3.00003
3.00003
3.00003
3.00003
3.00003
3.00003
3.00003
3.00002
3.00002
2.99999
2.99995
2.99982
2.99962
2.99888
2.99777
2.99379
2.98746
2.96674
2.92777
2.82451
2.59712
2.10205
3.00003
3.00003
3.00003
3.00003
3.00003
3.00003
3.00003
3.00003
3.00003
3.00003
3.00002
3.00002
3.00001
2.99998
2.9999
2.99977
2.9993
2.99861
2.99601
2.99216
2.97813
2.95558
2.88383
2.74066
2.39179
3.00003
3.00003
3.00003
3.00003
3.00003
3.00003
3.00003
3.00003
3.00003
3.00003
3.00003
3.00002
3.00002
2.99999
2.99995
2.99981
2.9996
2.99881
2.99761
2.99319
2.98605
2.96212
2.91513
2.79033
2.49371
3.00003
3.00003
3.00003
3.00003
3.00003
3.00003
3.00003
3.00003
3.00003
3.00003
3.00003
3.00003
3.00002
3
2.99996
2.99989
2.99962
2.99922
2.99768
2.99526
2.9868
2.97048
2.92261
2.80521
2.54346
3.00003
3.00003
3.00003
3.00003
3.00003
3.00003
3.00003
3.00003
3.00003
3.00003
3.00003
3.00002
3.00002
3
2.99998
2.99988
2.99973
2.99913
2.99824
2.9949
2.98891
2.97005
2.92548
2.81887
2.51822
3.00003
3.00003
3.00003
3.00003
3.00003
3.00003
3.00003
3.00003
3.00003
3.00003
3.00003
3.00003
3.00002
3.00001
2.99998
2.99989
2.99976
2.99922
2.99838
2.99528
2.98944
2.97136
2.92781
2.82344
2.52582
3.00003
3.00003
3.00003
3.00003
3.00003
3.00003
3.00003
3.00003
3.00003
3.00003
3.00003
3.00003
3.00002
3.00001
2.99998
2.99992
2.99972
2.99938
2.99821
2.99583
2.98887
2.97202
2.9291
2.81257
2.56321
3.00003
3.00003
3.00003
3.00003
3.00003
3.00003
3.00003
3.00003
3.00003
3.00003
3.00003
3.00003
3.00002
3.00001
2.99999
2.99992
2.99978
2.99935
2.99841
2.99576
2.98925
2.97256
2.92811
2.82675
2.52574
3.00003
3.00003
3.00003
3.00003
3.00003
3.00003
3.00003
3.00003
3.00003
3.00003
3.00003
3.00003
3.00002
3.00001
2.99998
2.99993
2.99973
2.9994
2.99827
2.99592
2.9891
2.97249
2.93018
2.81512
2.56839
3.00003
3.00003
3.00003
3.00003
3.00003
3.00003
3.00003
3.00003
3.00003
3.00003
3.00003
3.00003
3.00002
3.00001
2.99999
2.9999
2.99977
2.99926
2.99845
2.99545
2.98972
2.97204
2.92917
2.82642
2.532
3.00003
3.00003
3.00003
3.00003
3.00003
3.00003
3.00003
3.00003
3.00003
3.00003
3.00003
3.00003
3.00002
3.00001
2.99999
2.9999
2.99977
2.99925
2.99845
2.99543
2.9898
2.97221
2.92958
2.82778
2.53473
3.00003
3.00003
3.00003
3.00003
3.00003
3.00003
3.00003
3.00003
3.00003
3.00003
3.00003
3.00003
3.00002
3.00001
2.99997
2.99992
2.9997
2.99937
2.99805
2.996
2.98845
2.97377
2.92984
2.81929
2.57333
3.00003
3.00003
3.00003
3.00003
3.00003
3.00003
3.00003
3.00003
3.00003
3.00003
3.00003
3.00003
3.00002
3.00001
2.99997
2.99992
2.99968
2.99935
2.99795
2.99592
2.9879
2.97421
2.92874
2.82198
2.5752
3
2.99998
2.99993
2.99986
2.99957
2.99915
2.99752
2.99507
2.98609
2.97056
2.92161
2.80917
2.55308
1.93362
1.04844
0.56305
0.518846
0.528978
0.533533
0.525595
0.523188
0.534496
0.571181
0.652892
0.821124
3
2.99999
2.99994
2.99988
2.99962
2.99926
2.99779
2.99571
2.98753
2.97469
2.9308
2.83711
2.61294
2.05233
1.20181
0.647882
0.538686
0.552496
0.564973
0.566691
0.572563
0.595024
0.647013
0.744985
0.913421
3
2.99999
2.99995
2.9999
2.99968
2.99938
2.99815
2.99639
2.9897
2.97856
2.94249
2.86106
2.67152
2.17135
1.37214
0.741046
0.560811
0.576858
0.596171
0.60626
0.619691
0.650214
0.70866
0.802712
0.941406
3
2.99999
2.99996
2.99991
2.99973
2.99947
2.99842
2.99693
2.99099
2.98208
2.95015
2.88866
2.72537
2.32267
1.58534
0.851827
0.599175
0.611003
0.628711
0.64609
0.665131
0.699173
0.756033
0.838559
0.953406
3
3
2.99997
2.99993
2.99978
2.99957