/*--------------------------------*- C++ -*----------------------------------*\
| =========                 |                                                 |
| \\      /  F ield         | OpenFOAM: The Open Source CFD Toolbox           |
|  \\    /   O peration     | Version:  4.1                                   |
|   \\  /    A nd           | Web:      www.OpenFOAM.org                      |
|    \\/     M anipulation  |                                                 |
\*---------------------------------------------------------------------------*/
FoamFile
{
    version     2.0;
    format      ascii;
    class       volVectorField;
    location    "6.56";
    object      U;
}
// * * * * * * * * * * * * * * * * * * * * * * * * * * * * * * * * * * * * * //

dimensions      [0 1 -1 0 0 0 0];

internalField   nonuniform List<vector> 
52500
(
(3 1.64589e-08 -0.00571426)
(2.99998 9.13251e-08 -0.0057144)
(2.99996 3.41228e-07 -0.00571463)
(2.99988 8.82227e-07 -0.00571533)
(2.99974 2.43505e-06 -0.00571661)
(2.99931 5.65899e-06 -0.00572053)
(2.99849 1.43536e-05 -0.00572812)
(2.99593 3.47185e-05 -0.00574905)
(2.99142 7.65865e-05 -0.0057989)
(2.97454 0.000201712 -0.00590221)
(2.94439 0.000414759 -0.00628657)
(2.83154 0.00106395 -0.00684316)
(2.52144 0.00296603 -0.00946703)
(1.77962 0.00752493 -0.0143887)
(0.789698 0.0212521 -0.0178189)
(0.498932 0.0214654 -0.0184909)
(0.556077 0.0226912 -0.0185117)
(0.570253 0.0249233 -0.0185627)
(0.520807 0.027092 -0.0187435)
(0.433832 0.0291746 -0.018927)
(0.347631 0.0317165 -0.0191228)
(0.276827 0.0348945 -0.0192934)
(0.206182 0.0383771 -0.0194543)
(0.124911 0.0425963 -0.019612)
(0.0559554 0.0490925 -0.0197794)
(3 4.6671e-08 -0.00571426)
(2.99998 2.59189e-07 -0.0057144)
(2.99996 9.65371e-07 -0.00571462)
(2.99988 2.48674e-06 -0.00571531)
(2.99974 6.8502e-06 -0.00571658)
(2.99932 1.57932e-05 -0.00572042)
(2.99852 4.05515e-05 -0.00572791)
(2.99598 9.41524e-05 -0.00574835)
(2.99156 0.000226632 -0.00579792)
(2.97482 0.000537704 -0.00589853)
(2.94513 0.00133381 -0.00628169)
(2.83348 0.00318194 -0.0068262)
(2.52718 0.00917268 -0.00943059)
(1.793 0.0235511 -0.0142995)
(0.797494 0.0649777 -0.0177145)
(0.496102 0.0624943 -0.0184178)
(0.555148 0.0635288 -0.0184357)
(0.570008 0.067865 -0.0184784)
(0.520119 0.0718701 -0.0186515)
(0.432983 0.0755935 -0.0188276)
(0.346805 0.0801035 -0.0190158)
(0.275411 0.0854493 -0.019176)
(0.203563 0.0906298 -0.0193291)
(0.120825 0.0959498 -0.0194742)
(0.0515797 0.101983 -0.0196237)
(3 7.47983e-08 -0.00571426)
(2.99998 4.1504e-07 -0.0057144)
(2.99996 1.54648e-06 -0.00571461)
(2.99989 3.97738e-06 -0.00571528)
(2.99975 1.09725e-05 -0.00571651)
(2.99934 2.52274e-05 -0.00572025)
(2.99856 6.5368e-05 -0.00572754)
(2.99608 0.000148943 -0.00574732)
(2.99179 0.000375876 -0.00579585)
(2.97545 0.000844348 -0.00589291)
(2.94665 0.00231791 -0.00626803)
(2.83754 0.00537915 -0.0067923)
(2.5401 0.0154389 -0.00935243)
(1.8233 0.0405863 -0.0141237)
(0.81575 0.112382 -0.0175628)
(0.491865 0.106074 -0.0183346)
(0.555033 0.106837 -0.01835)
(0.571685 0.1142 -0.0183839)
(0.521472 0.121375 -0.0185494)
(0.434705 0.12872 -0.0187166)
(0.349288 0.137254 -0.0188946)
(0.277852 0.146811 -0.0190466)
(0.205218 0.156125 -0.0191872)
(0.121336 0.165085 -0.0193218)
(0.050526 0.172964 -0.0194595)
(3 9.89963e-08 -0.00571425)
(2.99998 5.48014e-07 -0.00571439)
(2.99996 2.04711e-06 -0.00571459)
(2.99989 5.25728e-06 -0.00571524)
(2.99976 1.4555e-05 -0.00571641)
(2.99937 3.34216e-05 -0.00571998)
(2.99862 8.74156e-05 -0.00572699)
(2.99624 0.000197329 -0.00574575)
(2.99214 0.000513284 -0.00579275)
(2.97641 0.00113072 -0.00588441)
(2.94901 0.00322466 -0.00624712)
(2.84355 0.00736412 -0.00674065)
(2.55988 0.0223068 -0.00924103)
(1.86995 0.057884 -0.0138651)
(0.842123 0.161567 -0.0173675)
(0.483859 0.150318 -0.0182454)
(0.554699 0.149845 -0.0182577)
(0.574982 0.159937 -0.0182771)
(0.525068 0.170256 -0.0184327)
(0.439468 0.181538 -0.0185896)
(0.355407 0.194416 -0.0187507)
(0.284347 0.208708 -0.0188863)
(0.211074 0.22297 -0.0190261)
(0.12557 0.236375 -0.0191548)
(0.05174 0.24656 -0.0192893)
(3 1.14848e-07 -0.00571425)
(2.99998 6.34549e-07 -0.00571438)
(2.99996 2.37391e-06 -0.00571458)
(2.9999 6.07697e-06 -0.00571518)
(2.99977 1.68813e-05 -0.0057163)
(2.9994 3.85548e-05 -0.00571967)
(2.99869 0.000102529 -0.00572631)
(2.99643 0.00022483 -0.00574395)
(2.99257 0.000625881 -0.00578861)
(2.97767 0.00131198 -0.00587457)
(2.95198 0.00403729 -0.00621832)
(2.85216 0.00877263 -0.00667933)
(2.58725 0.0305739 -0.00905994)
(1.93457 0.0755065 -0.0134908)
(0.880865 0.213312 -0.0171126)
(0.47634 0.195958 -0.0181413)
(0.55698 0.192739 -0.018149)
(0.582118 0.204985 -0.0181536)
(0.532657 0.218177 -0.0182962)
(0.448552 0.233511 -0.0184461)
(0.366007 0.250789 -0.0186018)
(0.295467 0.270026 -0.018717)
(0.221484 0.289841 -0.0188206)
(0.133427 0.308605 -0.0189481)
(0.0549828 0.321931 -0.0190716)
(3 1.19986e-07 -0.00571425)
(2.99999 6.62572e-07 -0.00571437)
(2.99996 2.47138e-06 -0.00571455)
(2.9999 6.28499e-06 -0.00571512)
(2.99979 1.74265e-05 -0.00571617)
(2.99944 3.92483e-05 -0.00571933)
(2.99877 0.000107163 -0.00572552)
(2.99667 0.000216274 -0.00574219)
(2.99305 0.000707693 -0.00578336)
(2.97921 0.00122753 -0.0058648)
(2.95539 0.00497506 -0.00618084)
(2.86382 0.00965839 -0.0066182)
(2.62253 0.0383102 -0.00877657)
(2.01846 0.0917157 -0.0129744)
(0.936661 0.264257 -0.0167796)
(0.474725 0.243386 -0.0180116)
(0.565413 0.236592 -0.018024)
(0.595982 0.250006 -0.0180004)
(0.546827 0.265522 -0.0181421)
(0.464286 0.285133 -0.0182535)
(0.382943 0.307429 -0.0184041)
(0.312667 0.332562 -0.0185289)
(0.23765 0.359251 -0.0186206)
(0.146046 0.385388 -0.018716)
(0.0607513 0.404165 -0.0188463)
(3 1.36999e-07 -0.00571425)
(2.99999 7.57237e-07 -0.00571436)
(2.99997 2.82134e-06 -0.00571453)
(2.99991 7.19972e-06 -0.00571507)
(2.9998 1.99141e-05 -0.00571605)
(2.99948 4.508e-05 -0.00571905)
(2.99884 0.000121769 -0.00572472)
(2.99693 0.000250483 -0.0057413)
(2.99341 0.00080116 -0.0057769)
(2.98117 0.00133746 -0.00585963)
(2.95919 0.00574276 -0.00612455)
(2.87767 0.0106757 -0.00654938)
(2.66526 0.0427186 -0.0084142)
(2.1213 0.102732 -0.0123154)
(1.01408 0.306144 -0.0163621)
(0.488558 0.291999 -0.017839)
(0.584116 0.284503 -0.0178575)
(0.619141 0.297072 -0.0178273)
(0.57009 0.313415 -0.0179749)
(0.489216 0.336856 -0.018079)
(0.408837 0.364588 -0.018173)
(0.338645 0.396733 -0.0182664)
(0.262399 0.432371 -0.0183491)
(0.166287 0.469312 -0.0184328)
(0.0710948 0.498413 -0.0185259)
(3 1.59492e-07 -0.00571425)
(2.99999 8.81465e-07 -0.00571435)
(2.99997 3.28581e-06 -0.00571451)
(2.99992 8.42946e-06 -0.00571499)
(2.99982 2.32949e-05 -0.00571588)
(2.99953 5.33125e-05 -0.00571859)
(2.99895 0.000140334 -0.00572374)
(2.99724 0.000309604 -0.00573881)
(2.99395 0.000856018 -0.00577032)
(2.98327 0.00170572 -0.0058486)
(2.96335 0.0057415 -0.00607037)
(2.89244 0.0112254 -0.00647185)
(2.71021 0.0417554 -0.00804392)
(2.23609 0.101794 -0.0115707)
(1.11528 0.31114 -0.0158702)
(0.529965 0.334974 -0.0176001)
(0.617539 0.337378 -0.0176016)
(0.652437 0.346488 -0.0175784)
(0.603905 0.362344 -0.0177205)
(0.525561 0.389635 -0.0178579)
(0.445953 0.423344 -0.0179509)
(0.375853 0.46356 -0.0180088)
(0.299131 0.510286 -0.0180475)
(0.198963 0.563232 -0.0180798)
(0.0896234 0.613357 -0.0181493)
(3 1.7423e-07 -0.00571425)
(2.99999 9.56423e-07 -0.00571434)
(2.99997 3.55264e-06 -0.00571448)
(2.99993 9.10228e-06 -0.00571491)
(2.99984 2.5029e-05 -0.00571571)
(2.99957 5.72361e-05 -0.00571814)
(2.99906 0.00014926 -0.00572274)
(2.99753 0.000332454 -0.00573627)
(2.99458 0.000868616 -0.00576418)
(2.98519 0.00192361 -0.00583538)
(2.96728 0.00526896 -0.0060258)
(2.90584 0.0117104 -0.00639931)
(2.74989 0.0362477 -0.00772269)
(2.33649 0.0896244 -0.0109165)
(1.22854 0.270787 -0.0154443)
(0.587306 0.370501 -0.0173642)
(0.649224 0.397159 -0.0173786)
(0.68195 0.396051 -0.0173618)
(0.64107 0.412047 -0.0174883)
(0.570097 0.442401 -0.0175484)
(0.493947 0.483331 -0.0176311)
(0.425852 0.532365 -0.017671)
(0.35195 0.592266 -0.0176682)
(0.253414 0.669861 -0.017623)
(0.125265 0.763773 -0.0175173)
(3 3.08016e-07 -0.00571425)
(2.99999 5.49781e-07 -0.00571433)
(2.99998 4.48872e-06 -0.00571445)
(2.99994 6.60755e-06 -0.00571482)
(2.99986 3.04087e-05 -0.00571552)
(2.99963 4.26702e-05 -0.00571762)
(2.99918 0.00018185 -0.00572167)
(2.99783 0.000240495 -0.00573331)
(2.99528 0.00110233 -0.00575815)
(2.9869 0.00116477 -0.00581836)
(2.97164 0.00726567 -0.00599337)
(2.9169 0.0054803 -0.00630242)
(2.7808 0.0464658 -0.00752776)
(2.41214 0.0646506 -0.0102325)
(1.35878 0.251661 -0.0151525)
(0.659919 0.424016 -0.0171272)
(0.664888 0.451585 -0.0171085)
(0.69093 0.444846 -0.0171848)
(0.671799 0.462312 -0.0172716)
(0.615786 0.493728 -0.0173341)
(0.549313 0.541719 -0.0173292)
(0.487978 0.599613 -0.0173031)
(0.426345 0.677846 -0.0172069)
(0.346264 0.797397 -0.0170046)
(0.194104 1.00569 -0.0165925)
(2.99999 1.69967e-08 -2.5858e-09)
(2.99998 9.17628e-08 -8.65731e-09)
(2.99996 3.434e-07 -1.01517e-08)
(2.99988 8.82746e-07 -1.60239e-08)
(2.99974 2.44325e-06 -1.64831e-08)
(2.99931 5.66757e-06 -2.20791e-08)
(2.99849 1.43739e-05 -2.30772e-08)
(2.99592 3.47359e-05 -3.40057e-08)
(2.99141 7.66626e-05 -3.09504e-08)
(2.97454 0.000201713 -8.98614e-08)
(2.94438 0.000414902 -1.03992e-08)
(2.83152 0.00106383 -2.24594e-07)
(2.52141 0.00296499 -1.06568e-07)
(1.77955 0.00752145 -5.60056e-07)
(0.789688 0.0212398 -5.74531e-07)
(0.498994 0.0214562 1.74178e-08)
(0.55612 0.0226872 -4.79612e-08)
(0.570286 0.0249225 -8.44213e-08)
(0.520838 0.0270936 -8.36262e-08)
(0.433858 0.0291778 -8.18385e-08)
(0.347649 0.0317209 -8.39753e-08)
(0.276837 0.0348987 -8.55299e-08)
(0.206188 0.03838 -8.53733e-08)
(0.124913 0.0425976 -8.48206e-08)
(0.0559561 0.049093 -8.4353e-08)
(2.99999 4.79903e-08 -2.57547e-09)
(2.99998 2.60184e-07 -8.66037e-09)
(2.99996 9.70469e-07 -1.01275e-08)
(2.99988 2.48989e-06 -1.60737e-08)
(2.99974 6.87293e-06 -1.63954e-08)
(2.99932 1.58317e-05 -2.21716e-08)
(2.99851 4.06413e-05 -2.30863e-08)
(2.99597 9.44358e-05 -3.46159e-08)
(2.99155 0.000226829 -3.07644e-08)
(2.97482 0.000539573 -9.30078e-08)
(2.94512 0.00133205 -1.061e-08)
(2.83347 0.00318409 -2.31927e-07)
(2.52715 0.00916788 -1.17647e-07)
(1.79292 0.023543 -5.90816e-07)
(0.797456 0.0649603 -6.24321e-07)
(0.496123 0.0624871 2.99079e-08)
(0.555154 0.0635298 -3.03622e-08)
(0.570007 0.0678686 -7.80577e-08)
(0.52012 0.0718751 -8.03029e-08)
(0.432985 0.075599 -8.03958e-08)
(0.346808 0.08011 -7.91561e-08)
(0.275414 0.0854555 -8.06705e-08)
(0.203566 0.0906343 -8.15001e-08)
(0.120827 0.0959524 -8.19503e-08)
(0.0515807 0.101984 -8.23236e-08)
(2.99999 7.66731e-08 -2.55932e-09)
(2.99998 4.16222e-07 -8.66089e-09)
(2.99996 1.55212e-06 -1.00755e-08)
(2.99989 3.97882e-06 -1.60561e-08)
(2.99975 1.09947e-05 -1.61203e-08)
(2.99934 2.52615e-05 -2.17334e-08)
(2.99855 6.54509e-05 -2.20859e-08)
(2.99608 0.000149221 -3.01906e-08)
(2.99178 0.000376037 -3.23606e-08)
(2.97544 0.000846242 -5.81136e-08)
(2.94664 0.00231603 -7.24364e-08)
(2.83752 0.00538154 -1.64468e-07)
(2.54006 0.0154352 -1.91213e-07)
(1.8232 0.0405816 -6.26467e-07)
(0.815708 0.112373 -6.6194e-07)
(0.491894 0.106073 5.93987e-08)
(0.555041 0.10684 -1.4422e-08)
(0.571682 0.114204 -7.69143e-08)
(0.521469 0.121379 -8.0782e-08)
(0.434703 0.128725 -8.11627e-08)
(0.349288 0.13726 -7.53263e-08)
(0.277853 0.146817 -7.57805e-08)
(0.20522 0.15613 -7.69054e-08)
(0.121338 0.165088 -7.84536e-08)
(0.050527 0.172967 -7.95956e-08)
(3 1.01274e-07 -2.5374e-09)
(2.99998 5.49676e-07 -8.66753e-09)
(2.99996 2.05151e-06 -1.0037e-08)
(2.99989 5.25742e-06 -1.61275e-08)
(2.99976 1.45671e-05 -1.5961e-08)
(2.99937 3.34312e-05 -2.17724e-08)
(2.99862 8.74404e-05 -2.19135e-08)
(2.99623 0.000197365 -3.02077e-08)
(2.99213 0.000513363 -3.18412e-08)
(2.97641 0.00113086 -5.84908e-08)
(2.949 0.00322482 -7.31733e-08)
(2.84354 0.00736473 -1.6391e-07)
(2.55984 0.0223067 -1.95105e-07)
(1.86985 0.0578848 -6.39321e-07)
(0.842082 0.161563 -6.94329e-07)
(0.483891 0.150319 7.02548e-08)
(0.554708 0.149847 -1.20284e-08)
(0.574979 0.15994 -7.88089e-08)
(0.525064 0.170259 -8.19956e-08)
(0.439465 0.181542 -8.11417e-08)
(0.355406 0.19442 -7.32108e-08)
(0.284347 0.208713 -7.2658e-08)
(0.211075 0.222975 -7.37063e-08)
(0.125571 0.236379 -7.55069e-08)
(0.0517409 0.246564 -7.6959e-08)
(3 1.17197e-07 -2.51358e-09)
(2.99998 6.36924e-07 -8.66752e-09)
(2.99996 2.37593e-06 -1.00253e-08)
(2.9999 6.08501e-06 -1.61355e-08)
(2.99977 1.68859e-05 -1.59009e-08)
(2.9994 3.85727e-05 -2.17406e-08)
(2.99869 0.000102559 -2.17856e-08)
(2.99643 0.000224917 -2.9914e-08)
(2.99256 0.000626006 -3.15295e-08)
(2.97767 0.00131239 -5.68937e-08)
(2.95197 0.00403791 -7.2592e-08)
(2.85214 0.00877422 -1.57128e-07)
(2.58721 0.0305751 -2.07296e-07)
(1.93446 0.0755108 -6.36865e-07)
(0.880822 0.213312 -7.37923e-07)
(0.476367 0.195962 8.07445e-08)
(0.556984 0.192742 -8.99563e-09)
(0.58211 0.204988 -7.96878e-08)
(0.532649 0.21818 -8.26668e-08)
(0.448546 0.233515 -8.08543e-08)
(0.366004 0.250793 -7.21469e-08)
(0.295466 0.270031 -7.05648e-08)
(0.221484 0.289845 -7.12901e-08)
(0.133428 0.308609 -7.27057e-08)
(0.0549833 0.321935 -7.41693e-08)
(3 1.21527e-07 -2.49029e-09)
(2.99998 6.66214e-07 -8.66113e-09)
(2.99996 2.46949e-06 -1.00459e-08)
(2.9999 6.29668e-06 -1.60135e-08)
(2.99978 1.74189e-05 -1.60055e-08)
(2.99944 3.92566e-05 -2.15266e-08)
(2.99877 0.000107161 -2.16387e-08)
(2.99667 0.000216229 -2.9055e-08)
(2.99304 0.000707808 -3.10466e-08)
(2.9792 0.00122658 -5.29826e-08)
(2.95538 0.00497745 -6.92e-08)
(2.8638 0.00965813 -1.46558e-07)
(2.62249 0.0383171 -2.06542e-07)
(2.01836 0.091728 -6.19605e-07)
(0.936612 0.264272 -7.93835e-07)
(0.474746 0.243394 8.21245e-08)
(0.565414 0.236596 -1.00222e-08)
(0.595975 0.250009 -7.95873e-08)
(0.546821 0.265525 -8.2478e-08)
(0.464281 0.285136 -8.10279e-08)
(0.382941 0.307432 -7.27347e-08)
(0.312665 0.332565 -7.03567e-08)
(0.23765 0.359254 -7.05464e-08)
(0.146046 0.385392 -7.09029e-08)
(0.0607516 0.404169 -7.23291e-08)
(3 1.39008e-07 -2.48263e-09)
(2.99999 7.60757e-07 -8.62191e-09)
(2.99997 2.82243e-06 -1.01274e-08)
(2.99991 7.21066e-06 -1.58837e-08)
(2.9998 1.99217e-05 -1.62286e-08)
(2.99948 4.51117e-05 -2.14914e-08)
(2.99884 0.000121829 -2.19531e-08)
(2.99693 0.00025065 -3.07499e-08)
(2.99341 0.000801403 -2.86074e-08)
(2.98116 0.00133822 -7.7045e-08)
(2.95918 0.00574442 -1.51568e-08)
(2.87766 0.010678 -1.97651e-07)
(2.66523 0.0427235 -1.11349e-07)
(2.12121 0.102745 -5.68101e-07)
(1.01406 0.306166 -7.80167e-07)
(0.488591 0.292007 4.52697e-08)
(0.584128 0.284505 -3.01645e-08)
(0.619144 0.297074 -8.39738e-08)
(0.570093 0.313417 -8.55575e-08)
(0.489218 0.336858 -8.25293e-08)
(0.408839 0.364591 -7.50466e-08)
(0.338647 0.396736 -7.21173e-08)
(0.2624 0.432374 -7.15315e-08)
(0.166287 0.469315 -7.10385e-08)
(0.0710953 0.498417 -7.14615e-08)
(3 1.62454e-07 -2.4501e-09)
(2.99999 8.83595e-07 -8.62573e-09)
(2.99997 3.28999e-06 -1.00907e-08)
(2.99992 8.43642e-06 -1.58292e-08)
(2.99982 2.33124e-05 -1.60419e-08)
(2.99952 5.33532e-05 -2.10821e-08)
(2.99894 0.000140431 -2.10326e-08)
(2.99723 0.000309918 -2.69914e-08)
(2.99395 0.000856331 -2.93939e-08)
(2.98326 0.00170796 -4.33096e-08)
(2.96335 0.00574185 -5.06081e-08)
(2.89243 0.0112304 -1.32514e-07)
(2.71018 0.0417596 -1.53932e-07)
(2.23601 0.101811 -4.95979e-07)
(1.11524 0.31119 -7.75542e-07)
(0.529969 0.334987 -6.72301e-09)
(0.617543 0.337381 -4.89855e-08)
(0.65244 0.34649 -8.52287e-08)
(0.603909 0.362346 -8.57074e-08)
(0.525566 0.389638 -8.19894e-08)
(0.445958 0.423348 -7.67413e-08)
(0.375857 0.463563 -7.41006e-08)
(0.299134 0.510289 -7.26436e-08)
(0.198965 0.563236 -7.12431e-08)
(0.0896244 0.613362 -7.11876e-08)
(3 1.73769e-07 -2.42345e-09)
(2.99999 9.58004e-07 -8.6297e-09)
(2.99997 3.54619e-06 -1.00939e-08)
(2.99993 9.09205e-06 -1.58276e-08)
(2.99983 2.50093e-05 -1.60192e-08)
(2.99957 5.72065e-05 -2.1023e-08)
(2.99905 0.000149209 -2.08209e-08)
(2.99753 0.000332358 -2.6487e-08)
(2.99458 0.000868613 -2.81717e-08)
(2.98519 0.00192221 -4.04032e-08)
(2.96727 0.00527023 -4.39132e-08)
(2.90583 0.0117091 -1.18888e-07)
(2.74987 0.0362548 -1.02266e-07)
(2.33644 0.0896399 -3.54221e-07)
(1.2285 0.270845 -4.47602e-07)
(0.587314 0.370505 -1.73306e-07)
(0.649237 0.397156 -9.41653e-08)
(0.68196 0.39605 -9.24138e-08)
(0.64108 0.412048 -8.89033e-08)
(0.570106 0.442404 -8.14637e-08)
(0.493955 0.483334 -7.74567e-08)
(0.425859 0.532368 -7.52621e-08)
(0.351955 0.59227 -7.4019e-08)
(0.253419 0.669866 -7.15216e-08)
(0.125267 0.763779 -7.08072e-08)
(3 2.93555e-07 -2.45931e-09)
(2.99999 6.02862e-07 -8.58577e-09)
(2.99998 4.37799e-06 -1.02374e-08)
(2.99994 6.63987e-06 -1.59161e-08)
(2.99986 3.02778e-05 -1.62238e-08)
(2.99963 4.26964e-05 -2.12781e-08)
(2.99917 0.000181714 -2.14392e-08)
(2.99783 0.000240531 -2.78887e-08)
(2.99528 0.00110213 -2.74331e-08)
(2.9869 0.0011651 -7.0638e-08)
(2.97163 0.00726463 -2.9993e-09)
(2.91689 0.00548442 -1.75481e-07)
(2.78078 0.0464621 -1.57099e-08)
(2.41211 0.064664 -3.42799e-07)
(1.35874 0.251681 -3.84174e-07)
(0.659909 0.424012 -3.69277e-07)
(0.66491 0.451582 -1.18332e-07)
(0.69095 0.444847 -9.1247e-08)
(0.671816 0.462315 -8.26459e-08)
(0.6158 0.493732 -8.08429e-08)
(0.549325 0.541724 -7.82331e-08)
(0.487989 0.599617 -7.68948e-08)
(0.426354 0.677851 -7.41605e-08)
(0.346271 0.797403 -6.97273e-08)
(0.194108 1.0057 -6.80238e-08)
(2.99999 1.69969e-08 -4.41852e-13)
(2.99998 9.1765e-08 -2.31469e-12)
(2.99996 3.43407e-07 -5.3579e-12)
(2.99988 8.82758e-07 -1.12544e-11)
(2.99974 2.44329e-06 -2.28288e-11)
(2.99931 5.66764e-06 -4.39164e-11)
(2.99849 1.4374e-05 -9.6151e-11)
(2.99592 3.47362e-05 -2.05892e-10)
(2.99141 7.66631e-05 -4.19552e-10)
(2.97454 0.000201714 -1.11226e-09)
(2.94438 0.000414901 -1.97149e-09)
(2.83152 0.00106383 -5.5276e-09)
(2.52141 0.00296497 -1.29388e-08)
(1.77954 0.00752142 -3.22705e-08)
(0.789684 0.0212396 -4.25383e-08)
(0.498996 0.0214561 2.93266e-09)
(0.556121 0.0226872 -1.09651e-09)
(0.570286 0.0249225 -4.6345e-09)
(0.520837 0.0270936 -4.82604e-09)
(0.433857 0.0291778 -4.82367e-09)
(0.347649 0.031721 -4.60671e-09)
(0.276837 0.0348988 -4.50328e-09)
(0.206187 0.0383799 -4.45355e-09)
(0.124913 0.0425975 -4.42475e-09)
(0.0559561 0.0490929 -4.39912e-09)
(2.99999 4.79911e-08 -4.40019e-13)
(2.99998 2.60189e-07 -2.29134e-12)
(2.99996 9.70487e-07 -5.30697e-12)
(2.99988 2.48992e-06 -1.12865e-11)
(2.99974 6.87305e-06 -2.25491e-11)
(2.99932 1.5832e-05 -4.38562e-11)
(2.99851 4.06419e-05 -9.55497e-11)
(2.99597 9.44378e-05 -2.0485e-10)
(2.99155 0.00022683 -4.21356e-10)
(2.97482 0.000539586 -1.0933e-09)
(2.94512 0.00133204 -2.03284e-09)
(2.83347 0.0031841 -5.47677e-09)
(2.52715 0.00916793 -1.31534e-08)
(1.79291 0.023543 -3.25974e-08)
(0.797452 0.0649601 -4.33167e-08)
(0.496125 0.0624871 3.12379e-09)
(0.555155 0.0635298 -1.00365e-09)
(0.570007 0.0678686 -4.57809e-09)
(0.52012 0.0718751 -4.7598e-09)
(0.432985 0.075599 -4.74999e-09)
(0.346808 0.0801101 -4.55534e-09)
(0.275414 0.0854555 -4.48343e-09)
(0.203566 0.0906343 -4.45216e-09)
(0.120827 0.0959524 -4.44171e-09)
(0.0515807 0.101984 -4.43824e-09)
(2.99999 7.66739e-08 -4.26345e-13)
(2.99998 4.16226e-07 -2.23355e-12)
(2.99996 1.55213e-06 -5.09652e-12)
(2.99989 3.97886e-06 -1.08297e-11)
(2.99975 1.09948e-05 -2.11714e-11)
(2.99934 2.52618e-05 -4.07046e-11)
(2.99855 6.54514e-05 -8.9344e-11)
(2.99608 0.000149223 -1.77401e-10)
(2.99178 0.000376038 -4.30891e-10)
(2.97544 0.000846254 -8.7434e-10)
(2.94664 0.00231602 -2.44296e-09)
(2.83752 0.00538154 -5.30997e-09)
(2.54006 0.0154353 -1.23502e-08)
(1.82319 0.0405815 -3.39027e-08)
(0.815705 0.112372 -4.41964e-08)
(0.491896 0.106073 3.56057e-09)
(0.555042 0.10684 -1.08291e-09)
(0.571682 0.114204 -4.6389e-09)
(0.521469 0.121379 -4.75542e-09)
(0.434703 0.128725 -4.69385e-09)
(0.349289 0.13726 -4.52705e-09)
(0.277853 0.146817 -4.48538e-09)
(0.20522 0.15613 -4.45215e-09)
(0.121338 0.165088 -4.47642e-09)
(0.050527 0.172967 -4.49529e-09)
(3 1.01275e-07 -4.21395e-13)
(2.99998 5.49682e-07 -2.20655e-12)
(2.99996 2.05153e-06 -5.02478e-12)
(2.99989 5.25748e-06 -1.0678e-11)
(2.99976 1.45673e-05 -2.08389e-11)
(2.99937 3.34316e-05 -4.00938e-11)
(2.99862 8.74412e-05 -8.81521e-11)
(2.99623 0.000197368 -1.76445e-10)
(2.99213 0.000513366 -4.27479e-10)
(2.97641 0.00113087 -8.76763e-10)
(2.949 0.00322483 -2.47451e-09)
(2.84354 0.00736479 -5.30865e-09)
(2.55983 0.0223065 -1.26884e-08)
(1.86984 0.0578846 -3.45353e-08)
(0.842079 0.161562 -4.61867e-08)
(0.483894 0.150318 4.1997e-09)
(0.554709 0.149847 -9.27264e-10)
(0.574979 0.15994 -4.61479e-09)
(0.525064 0.17026 -4.706e-09)
(0.439465 0.181542 -4.6326e-09)
(0.355406 0.19442 -4.46411e-09)
(0.284347 0.208713 -4.43181e-09)
(0.211075 0.222975 -4.41185e-09)
(0.125571 0.236379 -4.45855e-09)
(0.0517409 0.246564 -4.50037e-09)
(3 1.17198e-07 -4.02528e-13)
(2.99998 6.36929e-07 -2.1249e-12)
(2.99996 2.37595e-06 -4.74285e-12)
(2.9999 6.08507e-06 -1.00647e-11)
(2.99977 1.68861e-05 -1.90149e-11)
(2.9994 3.85731e-05 -3.58751e-11)
(2.99869 0.00010256 -7.94853e-11)
(2.99643 0.00022492 -1.41188e-10)
(2.99256 0.000626008 -4.25823e-10)
(2.97767 0.0013124 -6.7816e-10)
(2.95197 0.00403792 -2.53841e-09)
(2.85214 0.00877427 -4.33199e-09)
(2.5872 0.0305749 -1.65332e-08)
(1.93446 0.0755106 -3.48118e-08)
(0.880818 0.213311 -5.07565e-08)
(0.476369 0.195961 5.4057e-09)
(0.556984 0.192742 -1.69067e-10)
(0.58211 0.204988 -4.41544e-09)
(0.532649 0.21818 -4.57394e-09)
(0.448546 0.233515 -4.54589e-09)
(0.366004 0.250793 -4.32199e-09)
(0.295466 0.270031 -4.28284e-09)
(0.221484 0.289845 -4.30119e-09)
(0.133428 0.308609 -4.35841e-09)
(0.0549834 0.321935 -4.41597e-09)
(3 1.21529e-07 -3.99056e-13)
(2.99998 6.66219e-07 -2.10802e-12)
(2.99996 2.46951e-06 -4.70367e-12)
(2.9999 6.29674e-06 -9.96919e-12)
(2.99978 1.74191e-05 -1.88932e-11)
(2.99944 3.92569e-05 -3.57096e-11)
(2.99877 0.000107161 -7.94272e-11)
(2.99667 0.000216232 -1.43788e-10)
(2.99304 0.00070781 -4.26149e-10)
(2.9792 0.0012266 -7.00985e-10)
(2.95538 0.00497743 -2.59398e-09)
(2.8638 0.00965816 -4.43636e-09)
(2.62249 0.0383171 -1.68807e-08)
(2.01835 0.091728 -3.5887e-08)
(0.936608 0.264272 -5.60496e-08)
(0.474747 0.243394 6.56206e-09)
(0.565414 0.236596 4.63346e-10)
(0.595974 0.250009 -4.4143e-09)
(0.54682 0.265525 -4.61376e-09)
(0.464281 0.285136 -4.56461e-09)
(0.382941 0.307432 -4.16936e-09)
(0.312665 0.332565 -4.08054e-09)
(0.23765 0.359254 -4.11476e-09)
(0.146046 0.385392 -4.14526e-09)
(0.0607516 0.404169 -4.22932e-09)
(3 1.39009e-07 -3.78925e-13)
(2.99999 7.60759e-07 -2.03862e-12)
(2.99997 2.82243e-06 -4.45021e-12)
(2.99991 7.21069e-06 -9.21283e-12)
(2.9998 1.99218e-05 -1.72343e-11)
(2.99948 4.51118e-05 -3.1298e-11)
(2.99884 0.00012183 -6.99934e-11)
(2.99693 0.000250651 -1.04217e-10)
(2.99341 0.000801406 -4.35098e-10)
(2.98116 0.00133822 -3.23112e-10)
(2.95918 0.00574444 -3.15745e-09)
(2.87766 0.010678 -3.47998e-09)
(2.66523 0.0427237 -1.75601e-08)
(2.12121 0.102746 -3.56108e-08)
(1.01405 0.306166 -6.1315e-08)
(0.488591 0.292006 5.48844e-09)
(0.584127 0.284504 8.71709e-10)
(0.619142 0.297073 -4.29333e-09)
(0.570091 0.313416 -4.6609e-09)
(0.489218 0.336858 -4.73401e-09)
(0.408838 0.364591 -4.10011e-09)
(0.338646 0.396736 -3.93791e-09)
(0.2624 0.432374 -3.98017e-09)
(0.166287 0.469315 -3.98311e-09)
(0.0710953 0.498418 -4.00549e-09)
(3 1.62454e-07 -3.89485e-13)
(2.99999 8.83596e-07 -2.07427e-12)
(2.99997 3.28999e-06 -4.60737e-12)
(2.99992 8.43642e-06 -9.59049e-12)
(2.99982 2.33124e-05 -1.83819e-11)
(2.99952 5.33532e-05 -3.43278e-11)
(2.99894 0.000140431 -7.46147e-11)
(2.99723 0.000309917 -1.41179e-10)
(2.99395 0.000856336 -3.79365e-10)
(2.98326 0.00170795 -6.84411e-10)
(2.96335 0.00574192 -2.44998e-09)
(2.89242 0.0112305 -3.76814e-09)
(2.71017 0.0417602 -1.553e-08)
(2.236 0.101813 -3.35406e-08)
(1.11523 0.311194 -6.49624e-08)
(0.529967 0.334988 1.14954e-09)
(0.617541 0.33738 -7.6647e-10)
(0.652438 0.346489 -4.66132e-09)
(0.603908 0.362345 -4.95785e-09)
(0.525565 0.389638 -4.93533e-09)
(0.445957 0.423347 -4.18416e-09)
(0.375856 0.463563 -3.93119e-09)
(0.299134 0.510289 -3.90261e-09)
(0.198965 0.563236 -3.80424e-09)
(0.0896243 0.613362 -3.76e-09)
(3 1.73769e-07 -3.79443e-13)
(2.99999 9.58003e-07 -2.03007e-12)
(2.99997 3.54618e-06 -4.45403e-12)
(2.99993 9.09204e-06 -9.25504e-12)
(2.99983 2.50093e-05 -1.72962e-11)
(2.99957 5.72065e-05 -3.20511e-11)
(2.99905 0.000149209 -6.70616e-11)
(2.99753 0.000332357 -1.26502e-10)
(2.99458 0.000868616 -3.18353e-10)
(2.98519 0.00192219 -6.16775e-10)
(2.96727 0.0052703 -1.70426e-09)
(2.90583 0.0117091 -3.66864e-09)
(2.74987 0.0362554 -9.73762e-09)
(2.33644 0.0896412 -2.21541e-08)
(1.2285 0.27085 -3.77269e-08)
(0.587314 0.370505 -1.32549e-08)
(0.649237 0.397155 -5.19462e-09)
(0.681959 0.396049 -5.77469e-09)
(0.641079 0.412047 -5.67206e-09)
(0.570105 0.442403 -5.26407e-09)
(0.493954 0.483334 -4.59495e-09)
(0.425858 0.532368 -4.26238e-09)
(0.351955 0.59227 -4.15517e-09)
(0.253418 0.669866 -3.92454e-09)
(0.125267 0.763779 -3.74697e-09)
(3 2.93553e-07 -3.937e-13)
(2.99999 6.02875e-07 -2.08504e-12)
(2.99998 4.37799e-06 -4.66371e-12)
(2.99994 6.63994e-06 -9.65034e-12)
(2.99986 3.02779e-05 -1.87631e-11)
(2.99963 4.26967e-05 -3.48711e-11)
(2.99917 0.000181715 -7.69066e-11)
(2.99783 0.000240533 -1.52944e-10)
(2.99528 0.00110214 -3.01643e-10)
(2.9869 0.00116511 -1.21004e-09)
(2.97163 0.00726468 -7.74526e-10)
(2.91689 0.00548451 -5.17471e-09)
(2.78078 0.0464624 -6.89847e-09)
(2.41211 0.0646647 -2.09689e-08)
(1.35874 0.251683 -3.66977e-08)
(0.659906 0.424011 -3.13882e-08)
(0.66491 0.451581 -7.71384e-09)
(0.69095 0.444846 -5.50911e-09)
(0.671816 0.462314 -5.39581e-09)
(0.615799 0.493732 -5.39278e-09)
(0.549324 0.541723 -5.10174e-09)
(0.487988 0.599617 -4.89839e-09)
(0.426353 0.67785 -4.56749e-09)
(0.34627 0.797402 -4.19368e-09)
(0.194107 1.0057 -4.23909e-09)
(2.99999 1.69969e-08 -4.33188e-14)
(2.99998 9.17651e-08 -1.90993e-13)
(2.99996 3.43407e-07 -6.39121e-13)
(2.99988 8.82759e-07 -1.39239e-12)
(2.99974 2.4433e-06 -3.96488e-12)
(2.99931 5.66764e-06 -8.27946e-12)
(2.99849 1.4374e-05 -2.23166e-11)
(2.99592 3.47362e-05 -5.11571e-11)
(2.99141 7.66631e-05 -1.11511e-10)
(2.97454 0.000201714 -3.07515e-10)
(2.94438 0.000414901 -5.68107e-10)
(2.83152 0.00106383 -1.59947e-09)
(2.52141 0.00296497 -3.89196e-09)
(1.77954 0.00752142 -9.75807e-09)
(0.789684 0.0212396 -1.31207e-08)
(0.498996 0.0214561 6.31519e-10)
(0.556121 0.0226872 -4.27026e-10)
(0.570286 0.0249225 -1.43222e-09)
(0.520837 0.0270936 -1.49292e-09)
(0.433857 0.0291778 -1.48102e-09)
(0.347649 0.031721 -1.34529e-09)
(0.276837 0.0348988 -1.27357e-09)
(0.206187 0.0383799 -1.20736e-09)
(0.124913 0.0425975 -1.19291e-09)
(0.0559561 0.0490929 -1.15607e-09)
(2.99999 4.79911e-08 -4.23591e-14)
(2.99998 2.60189e-07 -1.86534e-13)
(2.99996 9.70487e-07 -6.2904e-13)
(2.99988 2.48993e-06 -1.36342e-12)
(2.99974 6.87306e-06 -3.92987e-12)
(2.99932 1.5832e-05 -8.20316e-12)
(2.99851 4.06419e-05 -2.21356e-11)
(2.99597 9.44379e-05 -5.0723e-11)
(2.99155 0.00022683 -1.11955e-10)
(2.97482 0.000539586 -3.01807e-10)
(2.94512 0.00133204 -5.85901e-10)
(2.83347 0.0031841 -1.58489e-09)
(2.52715 0.00916793 -3.95615e-09)
(1.79291 0.023543 -9.85776e-09)
(0.797452 0.0649601 -1.33601e-08)
(0.496125 0.0624871 6.85591e-10)
(0.555155 0.0635298 -3.98205e-10)
(0.570007 0.0678686 -1.41657e-09)
(0.52012 0.0718751 -1.47594e-09)
(0.432985 0.075599 -1.46359e-09)
(0.346808 0.0801101 -1.33279e-09)
(0.275414 0.0854555 -1.26901e-09)
(0.203566 0.0906343 -1.20702e-09)
(0.120827 0.0959524 -1.19624e-09)
(0.0515807 0.101984 -1.16339e-09)
(2.99999 7.66739e-08 -3.88142e-14)
(2.99998 4.16226e-07 -1.72421e-13)
(2.99996 1.55213e-06 -5.74212e-13)
(2.99989 3.97886e-06 -1.24272e-12)
(2.99975 1.09948e-05 -3.55724e-12)
(2.99934 2.52618e-05 -7.33052e-12)
(2.99855 6.54514e-05 -2.04315e-11)
(2.99608 0.000149223 -4.28544e-11)
(2.99178 0.000376038 -1.15309e-10)
(2.97544 0.000846254 -2.38466e-10)
(2.94664 0.00231602 -7.05019e-10)
(2.83752 0.00538154 -1.54019e-09)
(2.54006 0.0154353 -3.73e-09)
(1.82319 0.0405815 -1.02558e-08)
(0.815705 0.112372 -1.36669e-08)
(0.491896 0.106073 8.05887e-10)
(0.555042 0.10684 -4.14613e-10)
(0.571682 0.114204 -1.43522e-09)
(0.521469 0.121379 -1.47986e-09)
(0.434703 0.128725 -1.45748e-09)
(0.349289 0.13726 -1.33221e-09)
(0.277853 0.146817 -1.27694e-09)
(0.20522 0.15613 -1.21389e-09)
(0.121338 0.165088 -1.21209e-09)
(0.050527 0.172967 -1.1843e-09)
(3 1.01275e-07 -3.759e-14)
(2.99998 5.49682e-07 -1.66608e-13)
(2.99996 2.05153e-06 -5.57083e-13)
(2.99989 5.25748e-06 -1.20477e-12)
(2.99976 1.45673e-05 -3.47459e-12)
(2.99937 3.34316e-05 -7.175e-12)
(2.99862 8.74413e-05 -2.0135e-11)
(2.99623 0.000197368 -4.26298e-11)
(2.99213 0.000513366 -1.14638e-10)
(2.97641 0.00113087 -2.39383e-10)
(2.949 0.00322483 -7.15914e-10)
(2.84354 0.00736479 -1.54223e-09)
(2.55983 0.0223065 -3.84366e-09)
(1.86984 0.0578846 -1.04709e-08)
(0.842079 0.161562 -1.43232e-08)
(0.483894 0.150318 9.86657e-10)
(0.554709 0.149847 -3.62645e-10)
(0.574979 0.15994 -1.43476e-09)
(0.525064 0.17026 -1.47678e-09)
(0.439465 0.181542 -1.45763e-09)
(0.355406 0.19442 -1.33097e-09)
(0.284347 0.208713 -1.28117e-09)
(0.211075 0.222975 -1.22332e-09)
(0.125571 0.236379 -1.2286e-09)
(0.0517409 0.246564 -1.20661e-09)
(3 1.17198e-07 -3.25581e-14)
(2.99998 6.36929e-07 -1.45455e-13)
(2.99996 2.37595e-06 -4.81048e-13)
(2.9999 6.08507e-06 -1.03883e-12)
(2.99977 1.68861e-05 -2.97414e-12)
(2.9994 3.85731e-05 -6.00819e-12)
(2.99869 0.00010256 -1.77407e-11)
(2.99643 0.00022492 -3.2696e-11)
(2.99256 0.000626009 -1.14555e-10)
(2.97767 0.0013124 -1.83001e-10)
(2.95197 0.00403792 -7.36224e-10)
(2.85214 0.00877427 -1.2621e-09)
(2.5872 0.0305748 -4.97176e-09)
(1.93446 0.0755106 -1.05771e-08)
(0.880817 0.213311 -1.57285e-08)
(0.476369 0.195961 1.32804e-09)
(0.556984 0.192742 -1.42634e-10)
(0.58211 0.204988 -1.39128e-09)
(0.532649 0.21818 -1.45685e-09)
(0.448546 0.233515 -1.45871e-09)
(0.366004 0.250793 -1.31699e-09)
(0.295466 0.270031 -1.27032e-09)
(0.221484 0.289845 -1.22624e-09)
(0.133428 0.308609 -1.23508e-09)
(0.0549833 0.321935 -1.21669e-09)
(3 1.21529e-07 -3.19741e-14)
(2.99998 6.66219e-07 -1.42227e-13)
(2.99996 2.46951e-06 -4.73895e-13)
(2.9999 6.29674e-06 -1.02274e-12)
(2.99978 1.74191e-05 -2.9612e-12)
(2.99944 3.92569e-05 -6.00719e-12)
(2.99877 0.000107161 -1.78333e-11)