/*--------------------------------*- C++ -*----------------------------------*\
| =========                 |                                                 |
| \\      /  F ield         | OpenFOAM: The Open Source CFD Toolbox           |
|  \\    /   O peration     | Version:  4.1                                   |
|   \\  /    A nd           | Web:      www.OpenFOAM.org                      |
|    \\/     M anipulation  |                                                 |
\*---------------------------------------------------------------------------*/
FoamFile
{
    version     2.0;
    format      ascii;
    class       volScalarField;
    location    "0.18";
    object      Ma;
}
// * * * * * * * * * * * * * * * * * * * * * * * * * * * * * * * * * * * * * //

dimensions      [0 0 0 0 0 0 0];

internalField   nonuniform List<scalar> 
18000
(
5.7989e-12
5.73134e-12
5.65396e-12
5.58802e-12
5.523e-12
5.45882e-12
5.39557e-12
5.33322e-12
5.27175e-12
5.21173e-12
7.30913e-12
7.04235e-12
6.77766e-12
6.53316e-12
6.29952e-12
6.07597e-12
5.86214e-12
5.65739e-12
5.46129e-12
5.27523e-12
9.33521e-12
8.74402e-12
8.1894e-12
7.68336e-12
7.21515e-12
6.7814e-12
6.37946e-12
6.00635e-12
5.65982e-12
5.33973e-12
1.20978e-11
1.09806e-11
9.98039e-12
9.09265e-12
8.30007e-12
7.59068e-12
6.95434e-12
6.38238e-12
5.86721e-12
5.4054e-12
1.59317e-11
1.39609e-11
1.22752e-11
1.08324e-11
9.59227e-12
8.52181e-12
7.59431e-12
6.78791e-12
6.08415e-12
5.47236e-12
2.1358e-11
1.79933e-11
1.52499e-11
1.29978e-11
1.11399e-11
9.59697e-12
8.30821e-12
7.22557e-12
6.31115e-12
5.54021e-12
2.92091e-11
2.35415e-11
1.91526e-11
1.57167e-11
1.30046e-11
1.08434e-11
9.10622e-12
7.69846e-12
6.54888e-12
5.60923e-12
4.08532e-11
3.13141e-11
2.43409e-11
1.91611e-11
1.52647e-11
1.22937e-11
1.00007e-11
8.21063e-12
6.79841e-12
5.68062e-12
1.35393e-09
1.29271e-09
1.20748e-09
1.13253e-09
1.0662e-09
1.00709e-09
9.5412e-10
9.06379e-10
8.63144e-10
8.27964e-10
1.51223e-07
2.51569e-08
2.13606e-08
1.83549e-08
1.58806e-08
1.38201e-08
1.20866e-08
1.06153e-08
9.33908e-09
1.92064e-08
5.89446e-12
5.82353e-12
5.74622e-12
5.67767e-12
5.61036e-12
5.5442e-12
5.47881e-12
5.41475e-12
5.35161e-12
5.2898e-12
7.44991e-12
7.1717e-12
6.90552e-12
6.65209e-12
6.4105e-12
6.17965e-12
5.95937e-12
5.74885e-12
5.54764e-12
5.35558e-12
9.53267e-12
8.9195e-12
8.36077e-12
7.83722e-12
7.35385e-12
6.90687e-12
6.49329e-12
6.10996e-12
5.75439e-12
5.42316e-12
1.23845e-11
1.12297e-11
1.02163e-11
9.29685e-12
8.4776e-12
7.74571e-12
7.09032e-12
6.50231e-12
5.973e-12
5.49275e-12
1.63599e-11
1.43258e-11
1.26065e-11
1.11079e-11
9.82296e-12
8.71611e-12
7.7589e-12
6.92813e-12
6.20415e-12
5.56462e-12
2.20161e-11
1.85406e-11
1.57221e-11
1.33741e-11
1.14427e-11
9.84279e-12
8.50943e-12
7.39161e-12
6.44881e-12
5.63867e-12
3.02478e-11
2.43823e-11
1.98355e-11
1.62362e-11
1.34055e-11
1.11566e-11
9.3536e-12
7.89621e-12
6.70764e-12
5.71514e-12
4.25471e-11
3.26344e-11
2.53438e-11
1.98869e-11
1.58001e-11
1.26951e-11
1.03063e-11
8.44632e-12
6.98182e-12
5.79411e-12
6.35039e-11
5.24477e-11
3.99331e-11
3.09681e-11
2.44787e-11
1.96786e-11
1.60594e-11
1.32831e-11
1.11188e-11
9.36396e-12
8.54819e-08
1.4668e-08
1.26593e-08
1.10291e-08
9.6945e-09
8.58858e-09
7.66217e-09
6.87863e-09
6.21044e-09
5.69892e-09
4.00043e-13
3.74904e-13
1.9573e-13
1.75929e-13
1.5746e-13
1.40605e-13
1.25539e-13
1.12632e-13
1.01835e-13
8.67124e-14
5.51202e-13
4.78116e-13
4.05117e-13
3.54504e-13
3.08461e-13
2.6726e-13
2.31107e-13
2.00429e-13
1.75478e-13
1.13429e-13
6.27477e-13
5.19534e-13
5.48409e-13
4.77796e-13
4.16441e-13
3.64287e-13
3.20819e-13
2.85399e-13
2.56578e-13
1.46901e-13
7.81989e-13
6.80496e-13
7.91669e-13
6.83237e-13
5.91786e-13
5.15777e-13
4.52885e-13
4.01431e-13
3.5828e-13
1.9297e-13
1.04521e-12
1.00731e-12
1.14784e-12
9.72239e-13
8.27941e-13
7.10461e-13
6.14527e-13
5.36215e-13
4.70319e-13
2.43943e-13
1.48819e-12
1.57144e-12
1.66256e-12
1.37115e-12
1.13926e-12
9.5532e-13
8.08307e-13
6.90277e-13
5.92455e-13
2.99029e-13
2.22483e-12
2.48393e-12
2.40683e-12
1.91938e-12
1.54685e-12
1.261e-12
1.03898e-12
8.65227e-13
7.24931e-13
3.57601e-13
3.45853e-12
3.9366e-12
3.4894e-12
2.67455e-12
2.08019e-12
1.64168e-12
1.31304e-12
1.06355e-12
8.68291e-13
4.19501e-13
3.70662e-11
6.17717e-12
5.01734e-12
3.68175e-12
2.75565e-12
2.10174e-12
1.63016e-12
1.28435e-12
1.02261e-12
4.86412e-13
7.5154e-08
3.28248e-10
2.31279e-10
1.75132e-10
1.35063e-10
1.05844e-10
8.41344e-11
6.77335e-11
5.51592e-11
4.52085e-11
3.87889e-13
3.62275e-13
1.72399e-13
1.51048e-13
1.30666e-13
1.1151e-13
9.36597e-14
7.73189e-14
6.28565e-14
3.66846e-14
5.34059e-13
4.60318e-13
3.86472e-13
3.35668e-13
2.89158e-13
2.4737e-13
2.10546e-13
1.79004e-13
1.53125e-13
7.95259e-14
5.9675e-13
4.88587e-13
5.24207e-13
4.54902e-13
3.94837e-13
3.43794e-13
3.01307e-13
2.67105e-13
2.39419e-13
1.20148e-13
7.28903e-13
6.33701e-13
7.61228e-13
6.56539e-13
5.68152e-13
4.949e-13
4.34444e-13
3.85106e-13
3.43874e-13
1.71507e-13
9.54875e-13
9.42523e-13
1.10842e-12
9.39941e-13
8.01301e-13
6.88289e-13
5.96006e-13
5.20754e-13
4.57411e-13
2.25491e-13
1.33572e-12
1.48321e-12
1.61032e-12
1.33111e-12
1.10827e-12
9.31105e-13
7.89171e-13
6.75135e-13
5.80416e-13
2.82405e-13
1.96714e-12
2.36021e-12
2.33561e-12
1.86871e-12
1.51017e-12
1.23402e-12
1.01893e-12
8.50181e-13
7.13564e-13
3.42356e-13
3.01232e-12
3.75622e-12
3.38984e-12
2.60917e-12
2.036e-12
1.61139e-12
1.29187e-12
1.04854e-12
8.57681e-13
4.0553e-13
3.85651e-11
6.02316e-12
4.93699e-12
3.63376e-12
2.72503e-12
2.0811e-12
1.61537e-12
1.27303e-12
1.01344e-12
4.71909e-13
7.97034e-08
1.25261e-10
7.69767e-12
5.25915e-12
3.77496e-12
2.77363e-12
2.07979e-12
1.58718e-12
1.22647e-12
5.89399e-13
3.88016e-13
3.62064e-13
1.72855e-13
1.51419e-13
1.30974e-13
1.11746e-13
9.39233e-14
7.75562e-14
6.29729e-14
3.68083e-14
5.34713e-13
4.6074e-13
3.87458e-13
3.36494e-13
2.89874e-13
2.47945e-13
2.10998e-13
1.79421e-13
1.53439e-13
7.97209e-14
5.98122e-13
4.89962e-13
5.26001e-13
4.56372e-13
3.95955e-13
3.44764e-13
3.02075e-13
2.67651e-13
2.39784e-13
1.20404e-13
7.31792e-13
6.36808e-13
7.64082e-13
6.58919e-13
5.70031e-13
4.96397e-13
4.35664e-13
3.86029e-13
3.44543e-13
1.71855e-13
9.60454e-13
9.48315e-13
1.11329e-12
9.4377e-13
8.04387e-13
6.9074e-13
5.97889e-13
5.22228e-13
4.58517e-13
2.26251e-13
1.34627e-12
1.49335e-12
1.61844e-12
1.33751e-12
1.11325e-12
9.35064e-13
7.92327e-13
6.77607e-13
5.82356e-13
2.83733e-13
1.98679e-12
2.37817e-12
2.34962e-12
1.87936e-12
1.51843e-12
1.24048e-12
1.02395e-12
8.54099e-13
7.16737e-13
3.44583e-13
3.04877e-12
3.78833e-12
3.41387e-12
2.62705e-12
2.0495e-12
1.62171e-12
1.29983e-12
1.05473e-12
8.62516e-13
4.08961e-13
3.85952e-11
6.0827e-12
4.97905e-12
3.66385e-12
2.74694e-12
2.09737e-12
1.62763e-12
1.28241e-12
1.02075e-12
4.76868e-13
8.1088e-08
1.26366e-10
7.36207e-12
5.04962e-12
3.64288e-12
2.68644e-12
2.0198e-12
1.5454e-12
1.19683e-12
5.5489e-13
3.88097e-13
3.61726e-13
1.73456e-13
1.51924e-13
1.31358e-13
1.12096e-13
9.4169e-14
7.78154e-14
6.31991e-14
3.68866e-14
5.35526e-13
4.61261e-13
3.88744e-13
3.37598e-13
2.90805e-13
2.48702e-13
2.11603e-13
1.79889e-13
1.53854e-13
8.002e-14
5.99958e-13
4.91798e-13
5.28285e-13
4.583e-13
3.97552e-13
3.46004e-13
3.03075e-13
2.68341e-13
2.40289e-13
1.20781e-13
7.35602e-13
6.40948e-13
7.67885e-13
6.61989e-13
5.72582e-13
4.98329e-13
4.37122e-13
3.8724e-13
3.45377e-13
1.72446e-13
9.67973e-13
9.5596e-13
1.11961e-12
9.48794e-13
8.08356e-13
6.93959e-13
6.00413e-13
5.24177e-13
4.60044e-13
2.27325e-13
1.3606e-12
1.50699e-12
1.6292e-12
1.3459e-12
1.11981e-12
9.4024e-13
7.9642e-13
6.80795e-13
5.84927e-13
2.85537e-13
2.01364e-12
2.40213e-12
2.36806e-12
1.89347e-12
1.52924e-12
1.24894e-12
1.03059e-12
8.5928e-13
7.20823e-13
3.47473e-13
3.09922e-12
3.83132e-12
3.4458e-12
2.65064e-12
2.06721e-12
1.6352e-12
1.31024e-12
1.06283e-12
8.68832e-13
4.13321e-13
3.87586e-11
6.1605e-12
5.03445e-12
3.70326e-12
2.77557e-12
2.11862e-12
1.64362e-12
1.2946e-12
1.03016e-12
4.83357e-13
8.08536e-08
1.26858e-10
7.45263e-12
5.11198e-12
3.68688e-12
2.71817e-12
2.0432e-12
1.56302e-12
1.21022e-12
5.6391e-13
3.88175e-13
3.61388e-13
1.74156e-13
1.5255e-13
1.31924e-13
1.12562e-13
9.45577e-14
7.80677e-14
6.34036e-14
3.70784e-14
5.36549e-13
4.61944e-13
3.90325e-13
3.38904e-13
2.91947e-13
2.49717e-13
2.12442e-13
1.80524e-13
1.54198e-13
8.03137e-14
6.02224e-13
4.94023e-13
5.31048e-13
4.60612e-13
3.99463e-13
3.47581e-13
3.04254e-13
2.69237e-13
2.40931e-13
1.21171e-13
7.40291e-13
6.45976e-13
7.72493e-13
6.65732e-13
5.75629e-13
5.00818e-13
4.38974e-13
3.88626e-13
3.46512e-13
1.73194e-13
9.77236e-13
9.65341e-13
1.1273e-12
9.54929e-13
8.13217e-13
6.97884e-13
6.03508e-13
5.26555e-13
4.61897e-13
2.28679e-13
1.37821e-12
1.52348e-12
1.64226e-12
1.35614e-12
1.12788e-12
9.46603e-13
8.01477e-13
6.84753e-13
5.88017e-13
2.87779e-13
2.04676e-12
2.43135e-12
2.39054e-12
1.91069e-12
1.54251e-12
1.25927e-12
1.03874e-12
8.65626e-13
7.25853e-13
3.51096e-13
3.16157e-12
3.88377e-12
3.48496e-12
2.67963e-12
2.08895e-12
1.65174e-12
1.32307e-12
1.07275e-12
8.76545e-13
4.18768e-13
3.97907e-11
6.25683e-12
5.1025e-12
3.75184e-12
2.81093e-12
2.14473e-12
1.66329e-12
1.30957e-12
1.04165e-12
4.91196e-13
8.61222e-08
1.319e-10
7.56995e-12
5.18996e-12
3.74184e-12
2.75779e-12
2.07243e-12
1.58496e-12
1.22675e-12
5.75066e-13
3.88267e-13
3.60763e-13
1.74891e-13
1.53161e-13
1.32525e-13
1.13153e-13
9.5172e-14
7.90616e-14
7.16354e-14
1.19081e-13
5.37647e-13
4.62456e-13
3.9193e-13
3.4034e-13
2.93205e-13
2.5085e-13
2.13464e-13
1.81705e-13
1.56769e-13
1.11102e-13
6.04709e-13
4.96114e-13
5.33912e-13
4.63054e-13
4.01552e-13
3.49387e-13
3.05863e-13
2.70611e-13
2.42867e-13
1.34373e-13
7.45532e-13
6.50832e-13
7.77201e-13
6.69635e-13
5.7883e-13
5.03531e-13
4.4141e-13
3.90676e-13
3.48703e-13
1.81131e-13
9.87488e-13
9.74511e-13
1.13507e-12
9.61255e-13
8.18345e-13
7.02082e-13
6.07179e-13
5.29736e-13
4.6493e-13
2.35136e-13
1.39745e-12
1.53983e-12
1.65538e-12
1.3666e-12
1.13618e-12
9.53432e-13
8.07309e-13
6.89801e-13
5.92437e-13
2.94362e-13
2.08225e-12
2.46036e-12
2.41297e-12
1.92814e-12
1.55625e-12
1.27029e-12
1.04792e-12
8.73516e-13
7.32363e-13
3.58502e-13
3.22678e-12
3.93522e-12
3.52373e-12
2.70904e-12
2.11148e-12
1.66929e-12
1.33723e-12
1.08472e-12
8.86381e-13
4.2781e-13
3.90828e-11
6.34606e-12
5.16968e-12
3.80089e-12
2.84741e-12
2.17244e-12
1.68483e-12
1.32701e-12
1.05602e-12
5.02714e-13
9.48734e-08
1.22659e-10
7.65882e-12
5.26806e-12
3.79834e-12
2.79963e-12
2.1041e-12
1.60995e-12
1.24705e-12
5.90188e-13
3.8687e-13
3.91323e-13
2.05217e-13
1.6051e-13
1.37243e-13
2.0226e-13
3.62171e-13
1.15621e-12
5.19244e-12
1.85095e-11
5.3734e-13
5.16607e-13
4.25153e-13
3.53018e-13
2.93034e-13
2.86097e-13
3.71931e-13
8.31993e-13
3.05427e-12
1.16579e-11
6.05506e-13
5.89112e-13
5.80949e-13
4.85912e-13
4.03931e-13
3.59399e-13
4.19047e-13
6.61987e-13
1.94799e-12
7.31698e-12
7.45257e-13
7.69913e-13
8.30109e-13
6.97321e-13
5.84011e-13
5.03195e-13
5.01078e-13
6.18747e-13
1.36287e-12
4.82227e-12
9.81214e-13
1.09699e-12
1.18549e-12
9.87606e-13
8.23256e-13
6.96944e-13
6.34031e-13
6.68761e-13
1.07716e-12
3.33615e-12
1.37566e-12
1.64238e-12
1.69258e-12
1.38351e-12
1.13522e-12
9.43013e-13
8.15341e-13
7.99967e-13
9.71361e-13
2.41753e-12
2.02855e-12
2.51921e-12
2.42218e-12
1.92505e-12
1.54196e-12
1.25102e-12
1.04261e-12
9.4349e-13
9.80111e-13
1.83512e-12
3.11028e-12
3.91941e-12
3.48379e-12
2.67167e-12
2.07467e-12
1.63587e-12
1.31984e-12
1.12525e-12
1.07869e-12
1.46453e-12
2.01312e-11
6.17836e-12
5.05094e-12
3.71073e-12
2.7763e-12
2.11778e-12
1.6541e-12
1.34578e-12
1.21201e-12
1.23536e-12
2.95601e-08
8.86828e-11
7.24834e-12
5.09765e-12
3.67682e-12
2.7145e-12
2.05472e-12
1.60926e-12
1.35929e-12
1.10917e-12
2.54132e-12
2.40337e-12
1.5425e-12
1.5912e-13
2.61247e-12
8.256e-12
2.28797e-11
7.36923e-11
3.30508e-10
1.01967e-09
3.57764e-12
3.47539e-12
2.58592e-12
1.19279e-12
1.30621e-12
6.06739e-12
1.73578e-11
5.17856e-11
1.96245e-10
5.95118e-10
4.8438e-12
4.74169e-12
3.77013e-12
2.3628e-12
3.29835e-13
4.03247e-12
1.28741e-11
3.73008e-11
1.26088e-10
3.70398e-10
6.49879e-12
6.32228e-12
5.17631e-12
3.66944e-12
1.50642e-12
2.25118e-12
9.42247e-12
2.74704e-11
8.58137e-11
2.42131e-10
8.70086e-12
8.32863e-12
6.87549e-12
5.15895e-12
2.92577e-12
7.95228e-13
6.61857e-12
2.04114e-11
6.07515e-11
1.64735e-10
1.16876e-11
1.09194e-11
8.96554e-12
6.88732e-12
4.45968e-12
1.33975e-12
4.30278e-12
1.50895e-11
4.42167e-11
1.15821e-10
1.58233e-11
1.43309e-11
1.15803e-11
8.92994e-12
6.15254e-12
2.87303e-12
2.37382e-12
1.11174e-11
3.2793e-11
8.36568e-11
2.16913e-11
1.89089e-11
1.49066e-11
1.13869e-11
8.05378e-12
4.50638e-12
1.20353e-12
7.97993e-12
2.45474e-11
6.17666e-11
3.3533e-11
2.51867e-11
1.92153e-11
1.43883e-11
1.02296e-11
6.24023e-12
2.00451e-12
5.44668e-12
1.84689e-11
4.64127e-11
2.40758e-07
1.99516e-10
2.487e-11
1.80895e-11
1.27444e-11
8.09653e-12
3.51449e-12
3.42894e-12
1.39048e-11
3.53188e-11
3.44846e-12
3.10067e-12
2.05176e-12
1.91996e-12
8.22712e-12
2.7417e-11
9.82909e-11
4.91493e-10
1.98644e-09
2.6132e-09
4.57614e-12
4.26285e-12
3.25831e-12
1.69145e-12
5.15304e-12
1.91853e-11
6.61345e-11
2.8291e-10
1.08882e-09
1.36962e-09
5.9512e-12
5.61225e-12
4.61765e-12
2.85828e-12
2.78059e-12
1.29531e-11
4.52776e-11
1.75743e-10
6.40269e-10
7.80637e-10
7.71611e-12
7.2494e-12
6.16334e-12
4.4126e-12
1.99271e-12
8.2884e-12
3.13454e-11
1.15031e-10
3.97294e-10
4.7354e-10
1.00385e-11
9.28854e-12
7.96946e-12
6.13766e-12
3.27246e-12
4.74366e-12
2.15753e-11
7.79217e-11
2.57387e-10
3.01721e-10
1.31691e-11
1.18903e-11
1.01382e-11
8.06266e-12
5.13917e-12
2.50007e-12
1.44095e-11
5.38396e-11
1.72642e-10
1.99904e-10
1.74908e-11
1.52871e-11
1.28095e-11
1.02677e-11
7.1693e-12
2.89802e-12
9.12504e-12
3.7552e-11
1.18858e-10
1.36626e-10
2.36102e-11
1.98219e-11
1.61757e-11
1.28602e-11
9.36214e-12
4.85894e-12
5.152e-12
2.60895e-11
8.34511e-11
9.5754e-11
4.7358e-11
2.59948e-11
2.05076e-11
1.59829e-11
1.17906e-11
7.07121e-12
2.70219e-12
1.78015e-11
5.93998e-11
6.83727e-11
4.20937e-08
2.18949e-09
2.62569e-11
1.9801e-11
1.45313e-11
9.35832e-12
3.21244e-12
1.16658e-11
4.25971e-11
4.9349e-11
1.00444e-12
1.25912e-12
1.53722e-12
3.25437e-12
8.67824e-12
2.58149e-11
8.93692e-11
3.44348e-10
6.7231e-10
4.37215e-10
1.0814e-12
1.25231e-12
1.39348e-12
2.45391e-12
6.14136e-12
1.78555e-11
5.88065e-11
2.10415e-10
3.7413e-10
2.73093e-10
1.16107e-12
1.28362e-12
1.37375e-12
1.97347e-12
4.38357e-12
1.24571e-11
3.96952e-11
1.33921e-10
2.1966e-10
1.71595e-10
1.24062e-12
1.34069e-12
1.43013e-12
1.76703e-12
3.22424e-12
8.75347e-12
2.72716e-11
8.80178e-11
1.34578e-10
1.11728e-10
1.32272e-12
1.41221e-12
1.51993e-12
1.73609e-12
2.52877e-12
6.21499e-12
1.90185e-11
5.93784e-11
8.53249e-11
7.57629e-11
1.41035e-12
1.49414e-12
1.62124e-12
1.79421e-12
2.1892e-12
4.49253e-12
1.33867e-11
4.09777e-11
5.55835e-11
5.3477e-11
1.50734e-12
1.58468e-12
1.72599e-12
1.8896e-12
2.08723e-12
3.38041e-12
9.47975e-12
2.86625e-11
3.701e-11
3.91812e-11
1.61968e-12
1.68528e-12
1.83301e-12
1.99618e-12
2.11281e-12
2.7396e-12
6.78898e-12
2.02983e-11
2.50957e-11
2.96865e-11
1.02894e-10
1.90279e-12
1.94336e-12
2.10612e-12
2.19568e-12
2.44056e-12
4.95415e-12
1.45217e-11
1.72195e-11
2.31696e-11
7.3109e-08
2.01155e-09
2.53501e-12
2.21181e-12
2.29384e-12
2.34956e-12
3.73566e-12
1.0467e-11
1.1823e-11
1.84755e-11
7.95475e-13
1.50929e-12
1.61031e-12
2.52096e-12
4.15457e-12
7.25338e-12
1.50087e-11
5.1417e-11
3.03668e-10
9.2902e-10
7.30097e-13
1.35595e-12
1.39694e-12
2.15329e-12
3.49082e-12
5.96105e-12
1.14495e-11
3.23805e-11
1.81553e-10
5.0305e-10
6.6721e-13
1.21254e-12
1.20318e-12
1.83e-12
2.92667e-12
4.90379e-12
8.96477e-12
2.18078e-11
1.12915e-10
2.92547e-10
6.13412e-13
1.09059e-12
1.04217e-12
1.56574e-12
2.47025e-12
4.07493e-12
7.18942e-12
1.55816e-11
7.27449e-11
1.79795e-10
5.67291e-13
9.86363e-13
9.07511e-13
1.34605e-12
2.09865e-12
3.41775e-12
5.86701e-12
1.16852e-11
4.82839e-11
1.15394e-10
5.27621e-13
8.9716e-13
7.94414e-13
1.16483e-12
1.79592e-12
2.8862e-12
4.85437e-12
9.09282e-12
3.28847e-11
7.67076e-11
4.93324e-13
8.20107e-13
6.9917e-13
1.0132e-12
1.5438e-12
2.45269e-12
4.06393e-12
7.26849e-12
2.29111e-11
5.24922e-11
4.65121e-13
7.53196e-13
6.18532e-13
8.85232e-13
1.33475e-12
2.0986e-12
3.43158e-12
5.93521e-12
1.6285e-11
3.68113e-11
1.76621e-10
1.73518e-12
5.49069e-13
7.77507e-13
1.16037e-12
1.80609e-12
2.91811e-12
4.9248e-12
1.17863e-11
2.63659e-11
7.23786e-08
6.94695e-09
1.01798e-11
6.30367e-13
1.00922e-12
1.55566e-12
2.48886e-12
4.12398e-12
8.65611e-12
1.92129e-11
1.07164e-12
1.86479e-12
1.61468e-12
2.17637e-12
3.03391e-12
4.40321e-12
7.04277e-12
1.4068e-11
5.51541e-11
1.25638e-10
9.98197e-13
1.70994e-12
1.4478e-12
1.93953e-12
2.6816e-12
3.83099e-12
5.85131e-12
1.06354e-11
3.90441e-11
8.12117e-11
9.26608e-13
1.5611e-12
1.28682e-12
1.7139e-12
2.35509e-12
3.33046e-12
4.93299e-12
8.28753e-12
2.76572e-11
5.48026e-11
8.64348e-13
1.43163e-12
1.14839e-12
1.51943e-12
2.07657e-12
2.91283e-12
4.23058e-12
6.69341e-12
1.97985e-11
3.82357e-11
8.10252e-13
1.31861e-12
1.02938e-12
1.35248e-12
1.83913e-12
2.56254e-12
3.67277e-12
5.56873e-12
1.43254e-11
2.73518e-11
7.62991e-13
1.21959e-12
9.26497e-13
1.20875e-12
1.63372e-12
2.2639e-12
3.21717e-12
4.73817e-12
1.04716e-11
1.99501e-11
7.21457e-13
1.13231e-12
8.37419e-13
1.08423e-12
1.45649e-12
2.00874e-12
2.83494e-12
4.09625e-12
7.72484e-12
1.47795e-11
6.86617e-13
1.05499e-12
7.59968e-13
9.76026e-13
1.3028e-12
1.78773e-12
2.50892e-12
3.58096e-12
5.74951e-12
1.10938e-11
2.66842e-10
2.98842e-12
6.91957e-13
8.81843e-13
1.16916e-12
1.59571e-12
2.23019e-12
3.15445e-12
4.31651e-12
8.41426e-12
8.89629e-08
1.231e-08
2.483e-11
7.30557e-13
1.04872e-12
1.42475e-12
1.98331e-12
2.78576e-12
3.25172e-12
6.42273e-12
1.49311e-12
2.36354e-12
1.62459e-12
1.90562e-12
2.28728e-12
2.83291e-12
3.81208e-12
6.01497e-12
1.67216e-11
2.38884e-11
1.41219e-12
2.21156e-12
1.50833e-12
1.77173e-12
2.12579e-12
2.60638e-12
3.37179e-12
4.9232e-12
1.27867e-11
1.84993e-11
1.33179e-12
2.06074e-12
1.38597e-12
1.62949e-12
1.9565e-12
2.3878e-12
3.01783e-12
4.14445e-12
9.67336e-12
1.42998e-11
1.26069e-12
1.92585e-12
1.27537e-12
1.4996e-12
1.80158e-12
2.1951e-12
2.73841e-12
3.59809e-12
7.33211e-12
1.11276e-11
1.19778e-12
1.8051e-12
1.1762e-12
1.38174e-12
1.66084e-12
2.02253e-12
2.50697e-12
3.19984e-12
5.56462e-12
8.70162e-12
1.14185e-12
1.6965e-12
1.08732e-12
1.2754e-12
1.53217e-12
1.86626e-12
2.3057e-12
2.89329e-12
4.22478e-12
6.83103e-12
1.09204e-12
1.59882e-12
1.00755e-12
1.17912e-12
1.41491e-12
1.72368e-12
2.12848e-12
2.64329e-12
3.20694e-12
5.37667e-12
1.04935e-12
1.5105e-12
9.35934e-13
1.09204e-12
1.3083e-12
1.59345e-12
1.96791e-12
2.43184e-12
2.43084e-12
4.23886e-12
3.60757e-10
4.42499e-12
8.71539e-13
1.01324e-12
1.21122e-12
1.47433e-12
1.82138e-12
2.24591e-12
1.83817e-12
3.34348e-12
7.13795e-08
1.7134e-08
3.97005e-11
8.91256e-13
1.11896e-12
1.36185e-12
1.68195e-12
2.07269e-12
1.37451e-12
2.62814e-12
2.11812e-12
3.00789e-12
1.57637e-12
1.60651e-12
1.66821e-12
1.79938e-12
2.14899e-12
2.97925e-12
6.84308e-12
8.34929e-12
2.03178e-12
2.8684e-12
1.51805e-12
1.56386e-12
1.63475e-12
1.74634e-12
1.99268e-12
2.56448e-12
5.5427e-12
6.98047e-12
1.94531e-12
2.72525e-12
1.44307e-12
1.50064e-12
1.58102e-12
1.68652e-12
1.87375e-12
2.26658e-12
4.37955e-12
5.732e-12
1.86719e-12
2.59315e-12
1.36974e-12
1.43519e-12
1.52308e-12
1.62914e-12
1.7862e-12
2.06583e-12
3.44374e-12
4.70638e-12
1.79663e-12
2.47146e-12
1.2994e-12
1.37013e-12
1.46356e-12
1.57246e-12
1.71549e-12
1.92833e-12
2.68958e-12
3.86277e-12
1.73277e-12
2.35942e-12
1.23292e-12
1.30614e-12
1.40302e-12
1.51531e-12
1.65382e-12
1.8281e-12
2.08116e-12
3.16487e-12
1.67487e-12
2.25618e-12
1.1702e-12
1.24418e-12
1.34256e-12
1.45737e-12
1.59534e-12
1.74936e-12
1.58816e-12
2.58641e-12
1.62409e-12
2.16096e-12
1.11139e-12
1.18487e-12
1.28338e-12
1.39925e-12
1.53742e-12
1.68228e-12
1.18998e-12
2.10589e-12
4.58698e-10
5.86613e-12
1.05677e-12
1.12831e-12
1.22576e-12
1.34167e-12
1.48009e-12
1.62142e-12
8.69617e-13
1.70675e-12
2.04574e-08
1.98815e-08
8.90315e-11
1.00489e-12
1.16605e-12
1.2821e-12
1.41892e-12
1.55816e-12
6.00962e-13
1.37259e-12
2.98464e-12
3.75026e-12
1.39663e-12
1.21516e-12
1.06888e-12
1.003e-12
1.13735e-12
1.55e-12
3.43878e-12
3.81179e-12
2.89813e-12
3.63828e-12
1.39895e-12
1.24973e-12
1.12205e-12
1.03662e-12
1.08024e-12
1.34801e-12
2.94979e-12
3.38988e-12
2.81112e-12
3.51896e-12
1.37853e-12
1.25897e-12
1.15312e-12
1.06671e-12
1.05725e-12
1.20795e-12
2.43145e-12
2.91821e-12
2.73076e-12
3.40483e-12
1.35062e-12
1.25604e-12
1.17119e-12
1.09306e-12
1.05799e-12
1.1258e-12
1.987e-12
2.50736e-12
2.65657e-12
3.29641e-12
1.31854e-12
1.24503e-12
1.17936e-12
1.11362e-12
1.06998e-12
1.08591e-12
1.60629e-12
2.14953e-12
2.5882e-12
3.19367e-12
1.28359e-12
1.22779e-12
1.17921e-12
1.12732e-12
1.08534e-12
1.07212e-12
1.2796e-12
1.83797e-12
2.52512e-12
3.09662e-12
1.24712e-12
1.20617e-12
1.17245e-12
1.13429e-12
1.09953e-12
1.07244e-12
1.00011e-12
1.56694e-12
2.4688e-12
3.00507e-12
1.21012e-12
1.18158e-12
1.16055e-12
1.13507e-12
1.10964e-12
1.07915e-12
7.61237e-13
1.33223e-12
5.62308e-10
7.06597e-12
1.17383e-12
1.15496e-12
1.14477e-12
1.13069e-12
1.1152e-12
1.08782e-12
5.58468e-13
1.13052e-12
3.81039e-08
1.90849e-08
8.8143e-11
1.06533e-12
1.12252e-12
1.11964e-12
1.11322e-12
1.09163e-12
3.81014e-13
9.60794e-13
4.04828e-12
4.48088e-12
1.07082e-12
7.60224e-13
4.95128e-13
3.4881e-13
4.86474e-13
7.95998e-13
2.07638e-12
2.09843e-12
3.96781e-12
4.41031e-12
1.11715e-12
8.42717e-13
6.00694e-13
4.19268e-13
4.30278e-13
6.54909e-13
1.90888e-12
1.99006e-12
3.88803e-12
4.33245e-12
1.14092e-12
9.01172e-13
6.84869e-13
4.99088e-13
4.26756e-13
5.50353e-13
1.66293e-12
1.79465e-12
3.81258e-12
4.25379e-12
1.1531e-12
9.43919e-13
7.51752e-13
5.73947e-13
4.59355e-13
4.88876e-13
1.44332e-12
1.61786e-12
3.74134e-12
4.17596e-12
1.15707e-12
9.74928e-13
8.05556e-13
6.40688e-13
5.09714e-13
4.69512e-13
1.24788e-12
1.45795e-12
3.67473e-12
4.09962e-12
1.15448e-12
9.96698e-13
8.48423e-13
6.98688e-13
5.65177e-13
4.8221e-13
1.0753e-12
1.31418e-12
3.61214e-12
4.02515e-12
1.14703e-12
1.0108e-12
8.81679e-13
7.47722e-13
6.19394e-13
5.14481e-13
9.24653e-13
1.1859e-12
3.55523e-12
3.95311e-12
1.13586e-12
1.01884e-12
9.07214e-13
7.88521e-13
6.69192e-13
5.56235e-13
7.94987e-13
1.07222e-12
6.58719e-10
7.9226e-12
1.12286e-12
1.02191e-12
9.26478e-13
8.22291e-13
7.13356e-13
6.00881e-13
6.8647e-13
9.7279e-13
1.02331e-07
1.40875e-08
8.1884e-11
1.00768e-12
9.3779e-13
8.47922e-13
7.50247e-13
6.42112e-13
5.98287e-13
8.92118e-13
5.10449e-12
5.0531e-12
7.49109e-13
4.98945e-13
2.71947e-13
1.53547e-13
2.67882e-13
4.54409e-13
1.49193e-12
1.35466e-12
5.03393e-12
5.02797e-12
7.74285e-13
5.3648e-13
3.10586e-13
1.24641e-13
1.64545e-13
3.50431e-13
1.48287e-12
1.37765e-12
4.9662e-12
4.99852e-12
7.92432e-13
5.72684e-13
3.6023e-13
1.61855e-13
7.71748e-14
2.52511e-13
1.37573e-12
1.30293e-12
4.9007e-12
4.96415e-12
8.07242e-13
6.05864e-13
4.09946e-13
2.19721e-13
4.4862e-14
1.62904e-13
1.2781e-12
1.23383e-12
4.83811e-12
4.92692e-12
8.19115e-13
6.36068e-13
4.57133e-13
2.80135e-13
1.07638e-13
8.62048e-14
1.18902e-12
1.16971e-12
4.77833e-12
4.88757e-12
8.27886e-13
6.62328e-13
4.99998e-13
3.36912e-13
1.75745e-13
5.12374e-14
1.10836e-12
1.1109e-12
4.72135e-12
4.84707e-12
8.33766e-13
6.84722e-13
5.38234e-13
3.88836e-13
2.38747e-13
9.44753e-14
1.03623e-12
1.05713e-12
4.66907e-12
4.80621e-12
8.36761e-13
7.03249e-13
5.7161e-13
4.35285e-13
2.95959e-13
1.54223e-13
9.72046e-13
1.00842e-12
7.34218e-10
8.40524e-12
8.38706e-13
7.18434e-13
6.00723e-13
4.76707e-13
3.48119e-13
2.126e-13
9.15902e-13
9.64442e-13
1.60659e-07
7.28579e-09
5.41684e-11
7.49393e-13
6.25149e-13
5.1326e-13
3.95261e-13
2.67828e-13
8.67623e-13
9.33824e-13
5.79651e-12
5.35053e-12
6.64043e-13
6.08895e-13
5.10919e-13
4.41879e-13
4.00457e-13
3.9352e-13
1.24973e-12
1.041e-12
5.73299e-12
5.35587e-12
5.93769e-13
5.48261e-13
4.5845e-13
3.9403e-13
3.5508e-13
3.5238e-13
1.31477e-12
1.1209e-12
5.6745e-12
5.36069e-12
5.31637e-13
4.93861e-13
4.1118e-13
3.49687e-13
3.12119e-13
3.10286e-13
1.2724e-12
1.09785e-12
5.6174e-12
5.35916e-12
4.81019e-13
4.4816e-13
3.71101e-13
3.11773e-13
2.73747e-13
2.7154e-13
1.23212e-12
1.07538e-12
5.5622e-12
5.3528e-12
4.41432e-13
4.11423e-13
3.39315e-13
2.80877e-13
2.40814e-13
2.36198e-13
1.19378e-12
1.05417e-12
5.50927e-12
5.34295e-12
4.11515e-13
3.8253e-13
3.14475e-13
2.56485e-13
2.1371e-13
2.05173e-13
1.15738e-12
1.03366e-12
5.45815e-12
5.33009e-12
3.89034e-13
3.60286e-13
2.96305e-13
2.39047e-13
1.93297e-13
1.78358e-13
1.12275e-12
1.01434e-12
5.41106e-12
5.3152e-12
3.72887e-13
3.4366e-13
2.83858e-13
2.27535e-13
1.78794e-13
1.5689e-13
1.09005e-12
9.95596e-13
7.7562e-10
8.51998e-12
3.63532e-13
3.31924e-13
2.76204e-13
2.21785e-13
1.71485e-13
1.41757e-13
1.05867e-12
9.77657e-13
1.96647e-07
4.93873e-09
3.83263e-11
3.02035e-13
2.74212e-13
2.23815e-13
1.74924e-13
1.41051e-13
1.03016e-12
9.85082e-13
5.80295e-12
5.3211e-12
6.7268e-13
6.348e-13
5.40548e-13
4.66526e-13
4.12021e-13
3.8645e-13
1.17978e-12
9.93468e-13
5.73921e-12
5.3287e-12
5.87211e-13
5.65108e-13
4.8402e-13
4.19447e-13
3.71789e-13
3.53203e-13
1.25485e-12
1.0772e-12
5.68095e-12
5.33636e-12
5.10418e-13
5.00993e-13
4.30913e-13
3.74004e-13
3.31735e-13
3.16802e-13
1.22056e-12
1.05774e-12
5.62421e-12
5.33756e-12
4.45024e-13
4.44534e-13
3.8359e-13
3.33066e-13
2.95062e-13
2.83114e-13
1.18772e-12
1.03891e-12
5.56953e-12
5.33407e-12
3.91338e-13
3.96657e-13
3.42941e-13
2.97093e-13
2.62083e-13
2.51854e-13
1.15619e-12
1.02106e-12
5.51693e-12
5.32682e-12
3.48266e-13
3.56503e-13
3.08541e-13
2.66303e-13
2.32933e-13
2.23134e-13
1.12611e-12
1.00405e-12
5.46621e-12
5.31641e-12
3.14601e-13
3.23244e-13
2.80009e-13
2.40443e-13
2.0796e-13
1.97459e-13
1.09721e-12
9.87866e-13
5.41963e-12
5.30397e-12
2.89608e-13
2.96545e-13
2.57039e-13
2.19499e-13
1.86994e-13
1.74934e-13
1.06973e-12
9.72381e-13
7.75621e-10
8.51476e-12
2.74253e-13
2.75736e-13
2.39426e-13
2.03781e-13
1.71323e-13
1.5632e-13
1.04312e-12
9.5754e-13
1.96647e-07
4.93873e-09
3.83038e-11
2.18065e-13
2.28666e-13
1.96571e-13
1.65807e-13
1.49401e-13
1.0188e-12
9.77764e-13
5.11464e-12
4.97314e-12
7.09362e-13
5.15335e-13
3.33054e-13
2.28651e-13
2.63047e-13
3.91391e-13
1.25112e-12
1.19833e-12
5.04572e-12
4.95645e-12
7.10599e-13
5.2184e-13
3.35776e-13
1.94898e-13
1.83018e-13
3.06395e-13
1.27552e-12
1.23339e-12
4.98004e-12
4.9359e-12
7.14326e-13
5.36258e-13
3.56419e-13
1.97677e-13
1.18993e-13
2.21873e-13
1.19748e-12
1.17154e-12
4.91663e-12
4.91007e-12
7.20024e-13
5.54039e-13
3.84879e-13
2.24326e-13
9.02454e-14
1.43162e-13
1.12613e-12
1.11452e-12
4.8559e-12
4.88104e-12
7.26887e-13
5.73677e-13
4.17089e-13
2.63324e-13
1.14187e-13
7.23707e-14
1.06118e-12
1.06231e-12
4.79779e-12
4.84929e-12
7.33586e-13
5.93267e-13
4.49794e-13
3.05879e-13
1.61345e-13
2.95e-14
1.0029e-12
1.01505e-12
4.74241e-12
4.81596e-12
7.39243e-13
6.11473e-13
4.81022e-13
3.47904e-13
2.12252e-13
7.22259e-14
9.50931e-13
9.72445e-13
4.69161e-12
4.78156e-12
7.43546e-13
6.27843e-13
5.09887e-13
3.875e-13
2.61352e-13
1.28249e-13
9.04944e-13
9.34281e-13
7.34221e-10
8.39624e-12
7.47524e-13
6.42196e-13
5.3609e-13
4.24353e-13
3.07543e-13
1.82065e-13
8.65071e-13
9.00753e-13
1.60659e-07
7.28579e-09
5.41275e-11
6.69297e-13
5.58963e-13
4.57739e-13
3.50568e-13
2.33863e-13
8.31439e-13
8.90547e-13
4.05458e-12
4.37906e-12
9.46105e-13
6.54553e-13
3.94411e-13
2.16924e-13
3.33898e-13
6.09276e-13
1.54416e-12
1.76126e-12
3.98011e-12
4.32484e-12
9.94237e-13
7.3336e-13
4.98226e-13
3.05904e-13
2.92365e-13
4.95461e-13
1.45422e-12
1.68577e-12
3.90586e-12
4.26195e-12
1.02414e-12
7.93963e-13
5.83918e-13
3.96708e-13
3.05121e-13
4.09259e-13
1.27608e-12
1.523e-12
3.83471e-12
4.19677e-12
1.04352e-12
8.40427e-13
6.53172e-13
4.77181e-13
3.5179e-13
3.62611e-13
1.11616e-12
1.37564e-12
3.76738e-12
4.13102e-12
1.05533e-12
8.76716e-13
7.10288e-13
5.47921e-13
4.12071e-13
3.56848e-13
9.73951e-13
1.24309e-12
3.70376e-12
4.06539e-12
1.06063e-12
9.0396e-13
7.56998e-13
6.09391e-13
4.74244e-13
3.81239e-13
8.49156e-13
1.12484e-12
3.64376e-12
4.00054e-12
1.06097e-12
9.24031e-13
7.94746e-13
6.61804e-13
5.3288e-13
4.22676e-13
7.41323e-13
1.02023e-12
3.589e-12
3.93704e-12
1.057e-12
9.37992e-13
8.25078e-13
7.06279e-13
5.8638e-13
4.70835e-13
6.51041e-13
9.28772e-13
6.58722e-10
7.9213e-12
1.05078e-12
9.47185e-13
8.49142e-13
7.43799e-13
6.34066e-13
5.20057e-13
5.78226e-13
8.50324e-13
1.02331e-07
1.40875e-08
8.18537e-11
9.40414e-13
8.65543e-13
7.73454e-13
6.74264e-13
5.65299e-13
5.22945e-13
7.936e-13
2.99252e-12
3.65969e-12
1.238e-12
1.03742e-12
8.77558e-13
7.89012e-13
8.65511e-13
1.16512e-12
2.27448e-12
3.0478e-12
2.91561e-12
3.57016e-12
1.26149e-12
1.09124e-12
9.48335e-13
8.45829e-13
8.50834e-13
1.03716e-12
1.98699e-12
2.73292e-12
2.83591e-12
3.46963e-12
1.26072e-12
1.1192e-12
9.97061e-13
8.95633e-13
8.58779e-13
9.51537e-13
1.63975e-12
2.35377e-12
2.76114e-12
3.37133e-12
1.2503e-12
1.13342e-12
1.03112e-12
9.38258e-13
8.8204e-13
9.09616e-13
1.33623e-12
2.02219e-12
2.69116e-12
3.27598e-12
1.23338e-12
1.13807e-12
1.05408e-12
9.73134e-13
9.12034e-13
8.98605e-13
1.07314e-12
1.73254e-12
2.62597e-12
3.18442e-12
1.21196e-12
1.13503e-12
1.06779e-12
1.00008e-12
9.42184e-13
9.0625e-13
8.44862e-13
1.48e-12
2.56531e-12
3.09658e-12
1.1872e-12
1.12623e-12
1.07384e-12
1.01915e-12
9.68533e-13
9.23238e-13
6.47111e-13
1.26092e-12
2.51069e-12
3.01288e-12
1.16036e-12
1.11304e-12
1.07382e-12
1.03145e-12
9.89842e-13
9.4353e-13
4.76513e-13
1.07204e-12
5.62312e-10
7.07553e-12
1.1328e-12
1.09666e-12
1.06883e-12
1.03792e-12
1.00614e-12
9.63615e-13
3.3218e-13
9.10884e-13
3.81039e-08
1.90849e-08
8.81231e-11
1.0206e-12
1.05656e-12
1.03709e-12
1.01419e-12
9.77848e-13
2.04065e-13
7.78487e-13
2.1383e-12
2.9499e-12
1.4208e-12
1.3879e-12
1.38981e-12
1.44701e-12
1.6488e-12
2.14564e-12
3.95199e-12
6.24914e-12
2.06135e-12
2.835e-12
1.39546e-12
1.38287e-12
1.3974e-12
1.44604e-12
1.58668e-12
1.92787e-12
3.27585e-12
5.27729e-12
1.98094e-12
2.71025e-12
1.34796e-12
1.35221e-12
1.37947e-12
1.42893e-12
1.53578e-12
1.76879e-12
2.61102e-12
4.34738e-12
1.90688e-12
2.59262e-12
1.29708e-12
1.31435e-12
1.35269e-12
1.40736e-12
1.49927e-12
1.66444e-12
2.06479e-12
3.57664e-12
1.83919e-12
2.48236e-12
1.24519e-12
1.27262e-12
1.32028e-12
1.38128e-12
1.46909e-12
1.59545e-12
1.61788e-12
2.93742e-12
1.77698e-12
2.37907e-12
1.19366e-12