/*--------------------------------*- C++ -*----------------------------------*\
| =========                 |                                                 |
| \\      /  F ield         | OpenFOAM: The Open Source CFD Toolbox           |
|  \\    /   O peration     | Version:  4.1                                   |
|   \\  /    A nd           | Web:      www.OpenFOAM.org                      |
|    \\/     M anipulation  |                                                 |
\*---------------------------------------------------------------------------*/
FoamFile
{
    version     2.0;
    format      ascii;
    class       volVectorField;
    location    "0.18";
    object      U;
}
// * * * * * * * * * * * * * * * * * * * * * * * * * * * * * * * * * * * * * //

dimensions      [0 1 -1 0 0 0 0];

internalField   nonuniform List<vector> 
18000
(
(7.6019e-14 3.93175e-13 -6.54846e-12)
(8.281e-14 3.91239e-13 -6.47191e-12)
(7.50703e-14 -9.99592e-15 -6.39626e-12)
(6.75098e-14 -1.08689e-14 -6.32174e-12)
(6.01438e-14 -1.07208e-14 -6.24824e-12)
(5.29591e-14 -1.05555e-14 -6.17569e-12)
(4.59657e-14 -1.04921e-14 -6.10419e-12)
(3.91757e-14 -1.04027e-14 -6.0337e-12)
(3.25548e-14 -1.0291e-14 -5.96419e-12)
(2.61109e-14 -8.5148e-15 -5.89632e-12)
(9.87791e-14 4.08163e-13 -8.25865e-12)
(1.16816e-13 3.99092e-13 -7.95663e-12)
(1.03149e-13 -3.90511e-14 -7.66724e-12)
(9.02547e-14 -3.87733e-14 -7.39075e-12)
(7.81842e-14 -3.74919e-14 -7.12655e-12)
(6.68631e-14 -3.62287e-14 -6.87374e-12)
(5.62182e-14 -3.50328e-14 -6.6319e-12)
(4.62584e-14 -3.38884e-14 -6.40034e-12)
(3.68861e-14 -3.28081e-14 -6.17853e-12)
(2.81171e-14 -2.65123e-14 -5.9681e-12)
(9.95495e-14 4.17532e-13 -1.05528e-11)
(1.16662e-13 3.99846e-13 -9.88393e-12)
(9.71969e-14 -7.9682e-14 -9.26437e-12)
(7.96815e-14 -7.61547e-14 -8.69201e-12)
(6.39778e-14 -7.17219e-14 -8.16242e-12)
(4.98586e-14 -6.77055e-14 -7.67179e-12)
(3.71653e-14 -6.40016e-14 -7.21714e-12)
(2.57464e-14 -6.05316e-14 -6.79507e-12)
(1.54797e-14 -5.72824e-14 -6.40306e-12)
(6.26796e-15 -4.51816e-14 -6.04103e-12)
(1.31342e-13 4.16594e-13 -1.36801e-11)
(1.45411e-13 3.88928e-13 -1.24162e-11)
(1.17583e-13 -1.36322e-13 -1.12901e-11)
(9.36685e-14 -1.25868e-13 -1.02859e-11)
(7.31626e-14 -1.15476e-13 -9.38943e-12)
(5.55246e-14 -1.06188e-13 -8.58702e-12)
(4.03854e-14 -9.7839e-14 -7.8672e-12)
(2.73192e-14 -9.03002e-14 -7.22021e-12)
(1.60683e-14 -8.3442e-14 -6.63743e-12)
(6.37883e-15 -6.44934e-14 -6.11515e-12)
(1.76831e-13 3.96648e-13 -1.80194e-11)
(1.83981e-13 3.58559e-13 -1.57898e-11)
(1.43809e-13 -2.15662e-13 -1.38854e-11)
(1.10975e-13 -1.9249e-13 -1.22535e-11)
(8.4128e-14 -1.71355e-13 -1.08507e-11)
(6.21177e-14 -1.53133e-13 -9.63989e-12)
(4.39842e-14 -1.37387e-13 -8.59074e-12)
(2.90373e-14 -1.23723e-13 -7.67857e-12)
(1.66828e-14 -1.11659e-13 -6.88248e-12)
(6.48504e-15 -8.44686e-14 -6.19067e-12)
(2.4356e-13 3.43021e-13 -2.41601e-11)
(2.36786e-13 2.95603e-13 -2.03535e-11)
(1.78088e-13 -3.27914e-13 -1.72492e-11)
(1.32617e-13 -2.8193e-13 -1.4702e-11)
(9.73189e-14 -2.42888e-13 -1.26006e-11)
(6.97075e-14 -2.10647e-13 -1.08554e-11)
(4.80022e-14 -1.83775e-13 -9.39773e-12)
(3.08773e-14 -1.61141e-13 -8.17313e-12)
(1.73319e-14 -1.41917e-13 -7.1388e-12)
(6.58891e-15 -1.05155e-13 -6.26713e-12)
(3.44336e-13 2.29454e-13 -3.30436e-11)
(3.10684e-13 1.78299e-13 -2.66317e-11)
(2.23604e-13 -4.88488e-13 -2.16619e-11)
(1.6001e-13 -4.03249e-13 -1.77761e-11)
(1.13261e-13 -3.3506e-13 -1.47087e-11)
(7.85111e-14 -2.81188e-13 -1.22644e-11)
(5.24783e-14 -2.38054e-13 -1.02996e-11)
(3.28574e-14 -2.03147e-13 -8.70736e-12)
(1.7997e-14 -1.74522e-13 -7.40711e-12)
(6.68488e-15 -1.26569e-13 -6.34484e-12)
(2.98512e-13 8.64628e-15 -4.62191e-11)
(2.21606e-13 -3.14849e-14 -3.54271e-11)
(1.02061e-13 -7.2143e-13 -2.75289e-11)
(2.30536e-14 -5.69048e-13 -2.16708e-11)
(-2.96697e-14 -4.54376e-13 -1.72639e-11)
(-6.4937e-14 -3.68052e-13 -1.39037e-11)
(-8.8449e-14 -3.01829e-13 -1.13101e-11)
(-1.03925e-13 -2.50222e-13 -9.28529e-12)
(-1.13872e-13 -2.09506e-13 -7.6878e-12)
(-1.20938e-13 -1.48741e-13 -6.42401e-12)
(-1.53025e-09 -4.24398e-13 -6.87103e-11)
(-1.46167e-09 -3.79111e-13 -5.00792e-11)
(-1.3656e-09 -1.03174e-12 -3.7252e-11)
(-1.281e-09 -7.68211e-13 -2.82434e-11)
(-1.20606e-09 -5.8343e-13 -2.17873e-11)
(-1.13927e-09 -4.51564e-13 -1.70715e-11)
(-1.07938e-09 -3.5539e-13 -1.35675e-11)
(-1.02539e-09 -2.83909e-13 -1.09234e-11)
(-9.76493e-10 -2.32338e-13 -8.89922e-12)
(-9.36703e-10 -1.73016e-13 -7.34605e-12)
(1.70061e-07 -1.48188e-10 -1.87232e-08)
(2.35222e-08 1.68823e-10 -1.60232e-08)
(1.98102e-08 2.41699e-10 -1.38394e-08)
(1.68974e-08 2.13276e-10 -1.20693e-08)
(1.44941e-08 1.89183e-10 -1.06157e-08)
(1.24874e-08 1.68819e-10 -9.40782e-09)
(1.07941e-08 1.5148e-10 -8.39369e-09)
(9.3516e-09 1.36605e-10 -7.53419e-09)
(8.08654e-09 1.11334e-10 -6.7996e-09)
(-2.08267e-08 -1.13879e-11 -6.19856e-09)
(2.70867e-13 3.69524e-13 -6.65305e-12)
(2.53212e-13 3.44393e-13 -6.57467e-12)
(2.21988e-13 -5.63457e-14 -6.49705e-12)
(1.91959e-13 -5.66671e-14 -6.42042e-12)
(1.63119e-13 -5.60316e-14 -6.34504e-12)
(1.35383e-13 -5.53662e-14 -6.27082e-12)
(1.0872e-13 -5.47714e-14 -6.19736e-12)
(8.30903e-14 -5.4166e-14 -6.12527e-12)
(5.84193e-14 -5.32857e-14 -6.05413e-12)
(3.49063e-14 -3.08129e-14 -5.98453e-12)
(5.47184e-13 3.18718e-13 -8.40477e-12)
(5.02521e-13 2.24567e-13 -8.09513e-12)
(4.30328e-13 -2.07405e-13 -7.79806e-12)
(3.63052e-13 -2.00861e-13 -7.51452e-12)
(3.00405e-13 -1.93669e-13 -7.24382e-12)
(2.42024e-13 -1.86792e-13 -6.98477e-12)
(1.87615e-13 -1.80225e-13 -6.73722e-12)
(1.36898e-13 -1.74001e-13 -6.5003e-12)
(8.95927e-14 -1.67214e-13 -6.27356e-12)
(4.57744e-14 -9.49932e-14 -6.05821e-12)
(6.75983e-13 2.28196e-13 -1.07613e-11)
(5.98263e-13 3.6466e-14 -1.00734e-11)
(4.94386e-13 -4.20546e-13 -9.43681e-12)
(4.01773e-13 -3.95509e-13 -8.84884e-12)
(3.1934e-13 -3.71323e-13 -8.30548e-12)
(2.45913e-13 -3.4892e-13 -7.80254e-12)
(1.80467e-13 -3.28173e-13 -7.33674e-12)
(1.22154e-13 -3.08949e-13 -6.90462e-12)
(7.01987e-14 -2.90034e-13 -6.50349e-12)
(2.41718e-14 -1.62212e-13 -6.1334e-12)
(8.82793e-13 7.53947e-14 -1.39834e-11)
(7.5325e-13 -2.53578e-13 -1.26801e-11)
(6.03582e-13 -7.20696e-13 -1.15201e-11)
(4.76136e-13 -6.57532e-13 -1.04868e-11)
(3.67772e-13 -5.99843e-13 -9.56544e-12)
(2.75507e-13 -5.48375e-13 -8.74173e-12)
(1.96897e-13 -5.02226e-13 -8.0036e-12)
(1.29913e-13 -4.60747e-13 -7.34091e-12)
(7.28027e-14 -4.21914e-13 -6.74408e-12)
(2.45677e-14 -2.32115e-13 -6.20994e-12)
(1.17174e-12 -1.75906e-13 -1.84711e-11)
(9.60525e-13 -6.97767e-13 -1.61642e-11)
(7.43884e-13 -1.14419e-12 -1.41971e-11)
(5.6815e-13 -1.01043e-12 -1.25135e-11)
(4.25571e-13 -8.93933e-13 -1.10692e-11)
(3.09624e-13 -7.93621e-13 -9.82426e-12)
(2.15217e-13 -7.06813e-13 -8.74702e-12)
(1.38288e-13 -6.315e-13 -7.81156e-12)
(7.55767e-14 -5.63746e-13 -6.9961e-12)
(2.4916e-14 -3.04992e-13 -6.28819e-12)
(1.58374e-12 -5.84301e-13 -2.4851e-11)
(1.24215e-12 -1.3773e-12 -2.08941e-11)
(9.26279e-13 -1.74477e-12 -1.76775e-11)
(6.82953e-13 -1.48707e-12 -1.50423e-11)
(4.94932e-13 -1.27283e-12 -1.28737e-11)
(3.4907e-13 -1.09546e-12 -1.10763e-11)
(2.35655e-13 -9.47519e-13 -9.57765e-12)
(1.4731e-13 -8.23482e-13 -8.32068e-12)
(7.8504e-14 -7.16306e-13 -7.2603e-12)
(2.5237e-14 -3.80964e-13 -6.36797e-12)
(2.18502e-12 -1.24779e-12 -3.41288e-11)
(1.63124e-12 -2.42226e-12 -2.74303e-11)
(1.16634e-12 -2.6025e-12 -2.22592e-11)
(8.27395e-13 -2.13356e-12 -1.8226e-11)
(5.78604e-13 -1.76232e-12 -1.50527e-11)
(3.94853e-13 -1.46736e-12 -1.25304e-11)
(2.58521e-13 -1.23074e-12 -1.05074e-11)
(1.57097e-13 -1.0394e-12 -8.87145e-12)
(8.15305e-14 -8.80482e-13 -7.53712e-12)
(2.56282e-14 -4.60246e-13 -6.44947e-12)
(3.09678e-12 -2.33532e-12 -4.79799e-11)
(2.18373e-12 -4.04525e-12 -3.66342e-11)
(1.49001e-12 -3.8387e-12 -2.83759e-11)
(1.0131e-12 -3.01566e-12 -2.22734e-11)
(6.81596e-13 -2.39654e-12 -1.77013e-11)
(4.48886e-13 -1.92629e-12 -1.4226e-11)
(2.84299e-13 -1.56428e-12 -1.15513e-11)
(1.67329e-13 -1.28242e-12 -9.46797e-12)
(8.39249e-14 -1.05709e-12 -7.82751e-12)
(2.49155e-14 -5.42765e-13 -6.53271e-12)
(4.1738e-12 -4.20017e-12 -7.16018e-11)
(-2.79702e-11 -6.65648e-12 -5.19068e-11)
(-2.30413e-11 -5.67717e-12 -3.8445e-11)
(-1.91324e-11 -4.25939e-12 -2.90405e-11)
(-1.60476e-11 -3.24959e-12 -2.2336e-11)
(-1.3584e-11 -2.51838e-12 -1.74587e-11)
(-1.15952e-11 -1.97928e-12 -1.38473e-11)
(-9.9738e-12 -1.57567e-12 -1.11303e-11)
(-8.63985e-12 -1.26502e-12 -9.05507e-12)
(-7.48798e-12 -6.44316e-13 -7.46657e-12)
(9.47878e-08 -4.62345e-10 -1.91878e-08)
(-2.70291e-09 -3.896e-10 -1.63687e-08)
(-2.52434e-09 -2.51659e-10 -1.40958e-08)
(-2.29231e-09 -2.20223e-10 -1.22636e-08)
(-2.08886e-09 -1.94442e-10 -1.07655e-08)
(-1.91208e-09 -1.72901e-10 -9.52529e-09)
(-1.75871e-09 -1.54724e-10 -8.48705e-09)
(-1.62554e-09 -1.39248e-10 -7.60933e-09)
(-1.5109e-09 -1.25843e-10 -6.86077e-09)
(-1.58523e-09 -1.17113e-10 -6.24857e-09)
(2.2819e-13 3.75449e-13 -1.08675e-13)
(2.15379e-13 3.49574e-13 -1.06382e-13)
(1.88865e-13 -5.1359e-14 -1.03581e-13)
(1.63528e-13 -5.17246e-14 -1.00996e-13)
(1.39295e-13 -5.09957e-14 -9.86507e-14)
(1.16038e-13 -5.04399e-14 -9.64171e-14)
(9.38539e-14 -4.98908e-14 -9.42072e-14)
(7.25761e-14 -4.9236e-14 -9.24466e-14)
(5.22095e-14 -4.84836e-14 -9.05406e-14)
(3.28945e-14 -2.54149e-14 -8.88615e-14)
(4.99483e-13 3.41021e-13 -1.5203e-13)
(4.61155e-13 2.43487e-13 -1.43703e-13)
(3.94978e-13 -1.89219e-13 -1.3513e-13)
(3.33372e-13 -1.83128e-13 -1.27232e-13)
(2.76092e-13 -1.76495e-13 -1.2005e-13)
(2.22764e-13 -1.70147e-13 -1.13372e-13)
(1.7316e-13 -1.64026e-13 -1.07128e-13)
(1.26924e-13 -1.58245e-13 -1.01334e-13)
(8.38428e-14 -1.52017e-13 -9.63085e-14)
(4.40477e-14 -7.88235e-14 -9.11871e-14)
(6.17041e-13 2.75038e-13 -2.18135e-13)
(5.48375e-13 7.47735e-14 -1.9795e-13)
(4.52789e-13 -3.84436e-13 -1.7931e-13)
(3.67657e-13 -3.61355e-13 -1.62664e-13)
(2.92033e-13 -3.38859e-13 -1.47889e-13)
(2.24814e-13 -3.18157e-13 -1.34522e-13)
(1.64983e-13 -2.99041e-13 -1.22875e-13)
(1.11769e-13 -2.81342e-13 -1.12306e-13)
(6.43389e-14 -2.63785e-13 -1.02677e-13)
(2.24963e-14 -1.34809e-13 -9.45644e-14)
(8.09449e-13 1.5945e-13 -3.19519e-13)
(6.92808e-13 -1.88149e-13 -2.78117e-13)
(5.54443e-13 -6.60564e-13 -2.41808e-13)
(4.36817e-13 -6.02046e-13 -2.10356e-13)
(3.37094e-13 -5.48466e-13 -1.83906e-13)
(2.52355e-13 -5.00807e-13 -1.61309e-13)
(1.80313e-13 -4.5811e-13 -1.41968e-13)
(1.19035e-13 -4.19981e-13 -1.25356e-13)
(6.68872e-14 -3.8412e-13 -1.1083e-13)
(2.29315e-14 -1.93483e-13 -9.84989e-14)
(1.08013e-12 -3.56456e-14 -4.79974e-13)
(8.8682e-13 -5.94666e-13 -3.98381e-13)
(6.85603e-13 -1.05202e-12 -3.31121e-13)
(5.227e-13 -9.27644e-13 -2.75993e-13)
(3.91003e-13 -8.19132e-13 -2.31425e-13)
(2.84207e-13 -7.26124e-13 -1.95069e-13)
(1.97475e-13 -6.45804e-13 -1.65294e-13)
(1.26948e-13 -5.76273e-13 -1.40805e-13)
(6.96035e-14 -5.13614e-13 -1.2038e-13)
(2.33878e-14 -2.54814e-13 -1.03405e-13)
(1.46876e-12 -3.59148e-13 -7.40663e-13)
(1.15207e-12 -1.22285e-12 -5.81582e-13)
(8.56868e-13 -1.60992e-12 -4.60428e-13)
(6.30233e-13 -1.36939e-12 -3.66091e-13)
(4.55882e-13 -1.16922e-12 -2.93931e-13)
(3.21105e-13 -1.00425e-12 -2.37797e-13)
(2.16642e-13 -8.67034e-13 -1.93944e-13)
(1.35545e-13 -7.524e-13 -1.59429e-13)
(7.24378e-14 -6.53268e-13 -1.31433e-13)
(2.38382e-14 -3.19201e-13 -1.0953e-13)
(2.04083e-12 -8.9157e-13 -1.17298e-12)
(1.52102e-12 -2.19783e-12 -8.6805e-13)
(1.08354e-12 -2.41204e-12 -6.50208e-13)
(7.66197e-13 -1.97162e-12 -4.91127e-13)
(5.34504e-13 -1.62338e-12 -3.76343e-13)
(3.64098e-13 -1.34822e-12 -2.91688e-13)
(2.38181e-13 -1.12814e-12 -2.28705e-13)
(1.44779e-13 -9.51023e-13 -1.81167e-13)
(7.53956e-14 -8.03848e-13 -1.44267e-13)
(2.43094e-14 -3.86634e-13 -1.1665e-13)
(2.91152e-12 -1.77602e-12 -1.91818e-12)
(2.04474e-12 -3.7283e-12 -1.32462e-12)
(1.38809e-12 -3.57588e-12 -9.33462e-13)
(9.39826e-13 -2.79787e-12 -6.66834e-13)
(6.30377e-13 -2.21472e-12 -4.86235e-13)
(4.14386e-13 -1.77434e-12 -3.60218e-13)
(2.62405e-13 -1.43683e-12 -2.71039e-13)
(1.54865e-13 -1.17524e-12 -2.06606e-13)
(7.85413e-14 -9.66168e-13 -1.59298e-13)
(2.47753e-14 -4.57314e-13 -1.24516e-13)
(4.16866e-11 -3.27458e-12 -3.17653e-12)
(2.56328e-12 -6.17797e-12 -2.0257e-12)
(1.58288e-12 -5.28616e-12 -1.33163e-12)
(1.00941e-12 -3.94059e-12 -8.96401e-13)
(6.36451e-13 -2.98805e-12 -6.21495e-13)
(3.90364e-13 -2.30361e-12 -4.41725e-13)
(2.2637e-13 -1.80191e-12 -3.21507e-13)
(1.16978e-13 -1.42845e-12 -2.39289e-13)
(4.36839e-14 -1.14177e-12 -1.81599e-13)
(-4.44174e-15 -5.31808e-13 -1.4143e-13)
(8.50254e-08 -1.2805e-10 -4.87236e-10)
(3.61187e-11 -1.21222e-10 -3.49164e-10)
(-3.44334e-11 -1.74029e-11 -2.58801e-10)
(-2.73903e-11 -1.26694e-11 -1.95827e-10)
(-2.20468e-11 -9.53881e-12 -1.50906e-10)
(-1.79625e-11 -7.31789e-12 -1.18168e-10)
(-1.48037e-11 -5.70552e-12 -9.38554e-11)
(-1.23338e-11 -4.51337e-12 -7.54976e-11)
(-1.03939e-11 -3.61214e-12 -6.14275e-11)
(-9.46953e-12 -2.49321e-12 -5.02013e-11)
(2.27022e-13 3.7546e-13 -8.71792e-15)
(2.14347e-13 3.49261e-13 -7.8904e-15)
(1.87979e-13 -5.16772e-14 -6.05379e-15)
(1.62747e-13 -5.19007e-14 -4.85156e-15)
(1.38631e-13 -5.12099e-14 -3.59234e-15)
(1.15548e-13 -5.05752e-14 -2.62081e-15)
(9.34739e-14 -4.98731e-14 -1.89172e-15)
(7.2301e-14 -4.92263e-14 -1.1835e-15)
(5.21042e-14 -4.83908e-14 -8.10694e-16)
(3.28935e-14 -2.52983e-14 -7.61024e-16)
(4.98242e-13 3.41564e-13 -1.29312e-14)
(4.60122e-13 2.43677e-13 -1.14399e-14)
(3.94118e-13 -1.8912e-13 -9.25859e-15)
(3.32685e-13 -1.82996e-13 -7.35155e-15)
(2.75558e-13 -1.76238e-13 -5.62069e-15)
(2.22377e-13 -1.69863e-13 -4.52276e-15)
(1.72934e-13 -1.63778e-13 -3.46805e-15)
(1.26827e-13 -1.57866e-13 -2.70922e-15)
(8.38759e-14 -1.51566e-13 -2.21115e-15)
(4.42157e-14 -7.83367e-14 -1.86509e-15)
(6.1556e-13 2.76519e-13 -2.10307e-14)
(5.47269e-13 7.55584e-14 -1.85334e-14)
(4.51928e-13 -3.83752e-13 -1.50845e-14)
(3.67005e-13 -3.60603e-13 -1.22088e-14)
(2.91599e-13 -3.38253e-13 -1.00405e-14)
(2.24555e-13 -3.17485e-13 -8.14554e-15)
(1.64908e-13 -2.98271e-13 -6.70326e-15)
(1.11847e-13 -2.80676e-13 -5.70875e-15)
(6.45512e-14 -2.63025e-13 -4.72094e-15)
(2.28282e-14 -1.33924e-13 -4.54124e-15)
(8.07688e-13 1.62576e-13 -3.56195e-14)
(6.91623e-13 -1.8627e-13 -3.12483e-14)
(5.53625e-13 -6.59204e-13 -2.57725e-14)
(4.36304e-13 -6.00776e-13 -2.09575e-14)
(3.36814e-13 -5.47206e-13 -1.73091e-14)
(2.52324e-13 -4.99626e-13 -1.45091e-14)
(1.80444e-13 -4.57035e-13 -1.21151e-14)
(1.19338e-13 -4.18908e-13 -1.02833e-14)
(6.73285e-14 -3.83071e-13 -9.02346e-15)
(2.34259e-14 -1.92448e-13 -8.07891e-15)
(1.07809e-12 -2.98826e-14 -6.24946e-14)
(8.85664e-13 -5.91455e-13 -5.35135e-14)
(6.84911e-13 -1.04959e-12 -4.31854e-14)
(5.2245e-13 -9.25557e-13 -3.53352e-14)
(3.91045e-13 -8.17377e-13 -2.89979e-14)
(2.84459e-13 -7.24498e-13 -2.39253e-14)
(1.97899e-13 -6.44289e-13 -2.02421e-14)
(1.27527e-13 -5.74933e-13 -1.74416e-14)
(7.02177e-14 -5.12491e-13 -1.51289e-14)
(2.40763e-14 -2.53621e-13 -1.33965e-14)
(1.46631e-12 -3.48738e-13 -1.09743e-13)
(1.15103e-12 -1.21766e-12 -9.10912e-14)
(8.56518e-13 -1.60635e-12 -7.22191e-14)
(6.30371e-13 -1.36646e-12 -5.79519e-14)
(4.56347e-13 -1.16692e-12 -4.6948e-14)
(3.21769e-13 -1.00234e-12 -3.84712e-14)
(2.17441e-13 -8.65371e-13 -3.19399e-14)
(1.36371e-13 -7.51073e-13 -2.68896e-14)
(7.32978e-14 -6.52161e-13 -2.28378e-14)
(2.4701e-14 -3.1793e-13 -1.9837e-14)
(2.03794e-12 -8.73122e-13 -1.93876e-13)
(1.52025e-12 -2.1898e-12 -1.54834e-13)
(1.08377e-12 -2.40703e-12 -1.1883e-13)
(7.66934e-13 -1.96799e-12 -9.29737e-14)
(5.35535e-13 -1.6208e-12 -7.34211e-14)
(3.65279e-13 -1.34622e-12 -5.88354e-14)
(2.39385e-13 -1.12664e-12 -4.78193e-14)
(1.45953e-13 -9.49911e-13 -3.94324e-14)
(7.65612e-14 -8.02987e-13 -3.30076e-14)
(2.53227e-14 -3.85496e-13 -2.78642e-14)
(2.908e-12 -1.74317e-12 -3.45942e-13)
(2.04441e-12 -3.71639e-12 -2.61735e-13)
(1.38915e-12 -3.56948e-12 -1.93779e-13)
(9.41469e-13 -2.79397e-12 -1.45722e-13)
(6.3223e-13 -2.21218e-12 -1.11724e-13)
(4.16239e-13 -1.77278e-12 -8.7093e-14)
(2.64127e-13 -1.43586e-12 -6.88506e-14)
(1.56442e-13 -1.17461e-12 -5.54876e-14)
(7.99603e-14 -9.65988e-13 -4.53557e-14)
(2.60531e-14 -4.5654e-13 -3.73286e-14)
(4.35081e-11 -3.21701e-12 -6.22549e-13)
(2.87473e-12 -6.16253e-12 -4.42023e-13)
(1.79755e-12 -5.27918e-12 -3.12143e-13)
(1.16043e-12 -3.9375e-12 -2.25443e-13)
(7.45645e-13 -2.98684e-12 -1.66459e-13)
(4.71447e-13 -2.30339e-12 -1.25623e-13)
(2.87991e-13 -1.80217e-12 -9.64651e-14)
(1.64251e-13 -1.42888e-12 -7.54604e-14)
(8.02932e-14 -1.14218e-12 -6.0053e-14)
(2.37919e-14 -5.31154e-13 -4.85839e-14)
(9.01737e-08 -1.14637e-10 -2.31921e-11)
(8.62004e-11 -1.12405e-10 -4.26047e-12)
(1.44824e-12 -8.1533e-12 -2.6965e-12)
(9.08059e-13 -5.60928e-12 -1.76472e-12)
(5.96829e-13 -4.05674e-12 -1.19456e-12)
(3.92832e-13 -2.99941e-12 -8.34417e-13)
(2.5707e-13 -2.26086e-12 -5.99246e-13)
(1.65384e-13 -1.73379e-12 -4.37118e-13)
(1.02741e-13 -1.34536e-12 -3.23768e-13)
(5.8523e-14 -6.19288e-13 -2.40241e-13)
(2.27462e-13 3.75307e-13 -1.08237e-14)
(2.14706e-13 3.48716e-13 -9.6966e-15)
(1.88274e-13 -5.23632e-14 -7.44881e-15)
(1.62971e-13 -5.25051e-14 -5.57334e-15)
(1.38812e-13 -5.16885e-14 -4.08344e-15)
(1.15681e-13 -5.0926e-14 -2.81206e-15)
(9.35967e-14 -5.02752e-14 -1.90896e-15)
(7.24545e-14 -4.94817e-14 -1.00548e-15)
(5.22138e-14 -4.84707e-14 -4.83722e-16)
(3.29952e-14 -2.54058e-14 -2.4431e-16)
(4.99288e-13 3.4121e-13 -1.60931e-14)
(4.61017e-13 2.42861e-13 -1.41568e-14)
(3.94869e-13 -1.90033e-13 -1.10684e-14)
(3.33268e-13 -1.83813e-13 -8.73157e-15)
(2.76077e-13 -1.76902e-13 -6.37783e-15)
(2.2283e-13 -1.70331e-13 -4.88261e-15)
(1.7332e-13 -1.64112e-13 -3.63845e-15)
(1.27226e-13 -1.58148e-13 -2.91189e-15)
(8.42185e-14 -1.51784e-13 -2.12478e-15)
(4.45572e-14 -7.8401e-14 -1.68629e-15)
(6.17357e-13 2.75883e-13 -2.60133e-14)
(5.48845e-13 7.43253e-14 -2.28634e-14)
(4.53261e-13 -3.8517e-13 -1.85537e-14)
(3.68112e-13 -3.61761e-13 -1.46456e-14)
(2.92563e-13 -3.39036e-13 -1.18026e-14)
(2.25403e-13 -3.18188e-13 -9.63994e-15)
(1.65636e-13 -2.98835e-13 -7.77879e-15)
(1.12491e-13 -2.81066e-13 -6.51727e-15)
(6.51444e-14 -2.63283e-13 -5.74544e-15)
(2.33773e-14 -1.34104e-13 -5.08634e-15)
(8.10827e-13 1.61365e-13 -4.45134e-14)
(6.94329e-13 -1.88325e-13 -3.88587e-14)
(5.55826e-13 -6.61316e-13 -3.17114e-14)
(4.38165e-13 -6.0256e-13 -2.59464e-14)
(3.38381e-13 -5.48597e-13 -2.1336e-14)
(2.53615e-13 -5.00771e-13 -1.76213e-14)
(1.81599e-13 -4.57976e-13 -1.50574e-14)
(1.20337e-13 -4.19638e-13 -1.28694e-14)
(6.82213e-14 -3.83626e-13 -1.11872e-14)
(2.42157e-14 -1.9265e-13 -1.01602e-14)
(1.08336e-12 -3.23063e-14 -7.76903e-14)
(8.90065e-13 -5.95326e-13 -6.6867e-14)
(6.88451e-13 -1.05335e-12 -5.41873e-14)
(5.25319e-13 -9.28537e-13 -4.41765e-14)
(3.93411e-13 -8.19813e-13 -3.65749e-14)
(2.86423e-13 -7.26466e-13 -3.038e-14)
(1.99564e-13 -6.45816e-13 -2.56453e-14)
(1.28922e-13 -5.76178e-13 -2.19106e-14)
(7.14343e-14 -5.13454e-13 -1.91075e-14)
(2.51134e-14 -2.54178e-13 -1.68724e-14)
(1.47513e-12 -3.5375e-13 -1.37042e-13)
(1.15813e-12 -1.22484e-12 -1.14119e-13)
(8.6204e-13 -1.61287e-12 -9.1057e-14)
(6.34733e-13 -1.3717e-12 -7.31344e-14)
(4.5981e-13 -1.17106e-12 -5.94378e-14)
(3.24589e-13 -1.00568e-12 -4.90765e-14)
(2.19707e-13 -8.68118e-13 -4.07079e-14)
(1.3825e-13 -7.53271e-13 -3.43545e-14)
(7.48582e-14 -6.53931e-13 -2.94078e-14)
(2.5974e-14 -3.18942e-13 -2.54284e-14)
(2.05277e-12 -8.83209e-13 -2.4207e-13)
(1.53163e-12 -2.20354e-12 -1.9433e-13)
(1.09226e-12 -2.41884e-12 -1.506e-13)
(7.73373e-13 -1.97711e-12 -1.17801e-13)
(5.40491e-13 -1.62797e-12 -9.37912e-14)
(3.69124e-13 -1.35193e-12 -7.54748e-14)
(2.42404e-13 -1.13116e-12 -6.14078e-14)
(1.48376e-13 -9.53488e-13 -5.08007e-14)
(7.84866e-14 -8.0596e-13 -4.26061e-14)
(2.69039e-14 -3.87243e-13 -3.60841e-14)
(2.93292e-12 -1.76365e-12 -4.3016e-13)
(2.06254e-12 -3.74264e-12 -3.29086e-13)
(1.40209e-12 -3.59052e-12 -2.44975e-13)
(9.50859e-13 -2.80981e-12 -1.85872e-13)
(6.39149e-13 -2.22429e-12 -1.43332e-13)
(4.21425e-13 -1.78216e-12 -1.12208e-13)
(2.68069e-13 -1.44319e-12 -8.92178e-14)
(1.59455e-13 -1.1804e-12 -7.19385e-14)
(8.22785e-14 -9.70571e-13 -5.87601e-14)
(2.78573e-14 -4.59242e-13 -4.89737e-14)
(4.35369e-11 -3.25797e-12 -7.7153e-13)
(2.90814e-12 -6.21218e-12 -5.57046e-13)
(1.81867e-12 -5.31674e-12 -3.96073e-13)
(1.17492e-12 -3.9647e-12 -2.88154e-13)
(7.55825e-13 -3.00686e-12 -2.14348e-13)
(4.78728e-13 -2.3184e-12 -1.62624e-13)
(2.93311e-13 -1.81362e-12 -1.25323e-13)
(1.6817e-13 -1.43773e-12 -9.84507e-14)
(8.32288e-14 -1.14917e-12 -7.83928e-14)
(2.59767e-14 -5.3514e-13 -6.34398e-14)
(9.17403e-08 -1.13546e-10 -2.72216e-12)
(8.8517e-11 -1.12263e-10 -9.91228e-13)
(1.80844e-12 -8.10439e-12 -6.51322e-13)
(1.15453e-12 -5.57696e-12 -4.50159e-13)
(7.67699e-13 -4.03664e-12 -3.19988e-13)
(5.14309e-13 -2.98642e-12 -2.33305e-13)
(3.45139e-13 -2.2522e-12 -1.74177e-13)
(2.30389e-13 -1.7281e-12 -1.32486e-13)
(1.51528e-13 -1.34163e-12 -1.02565e-13)
(9.71633e-14 -6.14916e-13 -8.09382e-14)
(2.28013e-13 3.74987e-13 -1.36592e-14)
(2.15164e-13 3.47915e-13 -1.1878e-14)
(1.88631e-13 -5.33095e-14 -9.35733e-15)
(1.63283e-13 -5.3237e-14 -6.92513e-15)
(1.39014e-13 -5.2305e-14 -5.04337e-15)
(1.15875e-13 -5.14371e-14 -3.29082e-15)
(9.37391e-14 -5.05907e-14 -2.06896e-15)
(7.25917e-14 -4.9794e-14 -1.29276e-15)
(5.23541e-14 -4.86936e-14 -6.64965e-16)
(3.31137e-14 -2.5396e-14 -3.37147e-16)
(5.00612e-13 3.40689e-13 -2.01088e-14)
(4.62172e-13 2.41701e-13 -1.76348e-14)
(3.95825e-13 -1.91229e-13 -1.37599e-14)
(3.34076e-13 -1.84828e-13 -1.07464e-14)
(2.76735e-13 -1.77751e-13 -8.23824e-15)
(2.23408e-13 -1.70947e-13 -6.08211e-15)
(1.73819e-13 -1.64561e-13 -4.45535e-15)
(1.2766e-13 -1.58469e-13 -3.32219e-15)
(8.46762e-14 -1.52058e-13 -2.64549e-15)
(4.49582e-14 -7.85461e-14 -2.3084e-15)
(6.19724e-13 2.74992e-13 -3.24688e-14)
(5.50908e-13 7.26499e-14 -2.84437e-14)
(4.54974e-13 -3.86912e-13 -2.29021e-14)
(3.69554e-13 -3.6323e-13 -1.85098e-14)
(2.93816e-13 -3.40228e-13 -1.4732e-14)
(2.2645e-13 -3.19091e-13 -1.18544e-14)
(1.66614e-13 -2.99534e-13 -9.61217e-15)
(1.13348e-13 -2.81521e-13 -8.17965e-15)
(6.59292e-14 -2.63643e-13 -7.11808e-15)
(2.41259e-14 -1.34354e-13 -6.27965e-15)
(8.14868e-13 1.59667e-13 -5.57939e-14)
(6.97808e-13 -1.91206e-13 -4.84053e-14)
(5.58686e-13 -6.64125e-13 -3.93889e-14)
(4.40551e-13 -6.04816e-13 -3.2298e-14)
(3.4041e-13 -5.5051e-13 -2.65482e-14)
(2.55361e-13 -5.02172e-13 -2.18339e-14)
(1.83094e-13 -4.59026e-13 -1.86314e-14)
(1.21648e-13 -4.20575e-13 -1.611e-14)
(6.93539e-14 -3.84288e-13 -1.40614e-14)
(2.52301e-14 -1.93054e-13 -1.25491e-14)
(1.09023e-12 -3.55757e-14 -9.72293e-14)
(8.95771e-13 -6.0033e-13 -8.32601e-14)
(6.93048e-13 -1.05812e-12 -6.76049e-14)
(5.29042e-13 -9.32379e-13 -5.51871e-14)
(3.96463e-13 -8.22886e-13 -4.55442e-14)
(2.89009e-13 -7.29e-13 -3.80864e-14)
(2.01662e-13 -6.47881e-13 -3.18563e-14)
(1.30726e-13 -5.77803e-13 -2.7344e-14)
(7.29689e-14 -5.14791e-13 -2.37401e-14)
(2.64108e-14 -2.54975e-13 -2.08875e-14)
(1.48667e-12 -3.60517e-13 -1.71505e-13)
(1.16736e-12 -1.23441e-12 -1.42804e-13)
(8.69234e-13 -1.62141e-12 -1.13731e-13)
(6.40346e-13 -1.3785e-12 -9.13668e-14)
(4.6429e-13 -1.17643e-12 -7.42951e-14)
(3.28173e-13 -1.01002e-12 -6.11368e-14)
(2.22628e-13 -8.71626e-13 -5.08514e-14)
(1.4064e-13 -7.56068e-13 -4.28399e-14)
(7.68322e-14 -6.56268e-13 -3.66713e-14)
(2.76363e-14 -3.20292e-13 -3.17533e-14)
(2.07209e-12 -8.9692e-13 -3.03361e-13)
(1.54642e-12 -2.22157e-12 -2.43033e-13)
(1.10327e-12 -2.43417e-12 -1.88215e-13)
(7.81721e-13 -1.98904e-12 -1.47329e-13)
(5.46904e-13 -1.63723e-12 -1.17177e-13)
(3.74087e-13 -1.35932e-12 -9.42878e-14)
(2.46334e-13 -1.13706e-12 -7.68658e-14)
(1.51464e-13 -9.582e-13 -6.33123e-14)
(8.09582e-14 -8.0975e-13 -5.30704e-14)
(2.89155e-14 -3.89469e-13 -4.49575e-14)
(2.96566e-12 -1.7912e-12 -5.39434e-13)
(2.08625e-12 -3.7771e-12 -4.12425e-13)
(1.41891e-12 -3.61807e-12 -3.07036e-13)
(9.63079e-13 -2.83044e-12 -2.32758e-13)
(6.48149e-13 -2.24001e-12 -1.79275e-13)
(4.2817e-13 -1.79429e-12 -1.40461e-13)
(2.73167e-13 -1.45269e-12 -1.11645e-13)
(1.63373e-13 -1.18792e-12 -8.97424e-14)
(8.52981e-14 -9.76511e-13 -7.33396e-14)
(3.02227e-14 -4.6265e-13 -6.08923e-14)
(4.37141e-11 -3.31385e-12 -9.70805e-13)
(2.94592e-12 -6.27777e-12 -6.99382e-13)
(1.84433e-12 -5.36595e-12 -4.97312e-13)
(1.19262e-12 -4.0001e-12 -3.61773e-13)
(7.68273e-13 -3.03286e-12 -2.68866e-13)
(4.8766e-13 -2.33795e-12 -2.03624e-13)
(2.99815e-13 -1.82849e-12 -1.56902e-13)
(1.72974e-13 -1.4492e-12 -1.23123e-13)
(8.67945e-14 -1.15812e-12 -9.79314e-14)
(2.86576e-14 -5.40305e-13 -7.93665e-14)
(9.14751e-08 -1.15522e-10 -1.65468e-11)
(8.88572e-11 -1.12703e-10 -1.20877e-12)
(1.83842e-12 -8.18978e-12 -8.00428e-13)
(1.17201e-12 -5.63627e-12 -5.55073e-13)
(7.79728e-13 -4.07856e-12 -3.95483e-13)
(5.22831e-13 -3.01668e-12 -2.88809e-13)
(3.51345e-13 -2.27456e-12 -2.15545e-13)
(2.35011e-13 -1.74498e-12 -1.63896e-13)
(1.55035e-13 -1.35448e-12 -1.26816e-13)
(9.98714e-14 -6.22114e-13 -1.00152e-13)
(2.2869e-13 3.74569e-13 -1.63673e-14)
(2.15766e-13 3.47002e-13 -1.42488e-14)
(1.89073e-13 -5.4327e-14 -1.10731e-14)
(1.63637e-13 -5.42171e-14 -8.4121e-15)
(1.39346e-13 -5.31332e-14 -6.03547e-15)
(1.16129e-13 -5.21094e-14 -4.0509e-15)
(9.39684e-14 -5.10697e-14 -2.54035e-15)
(7.2766e-14 -5.00409e-14 -1.41553e-15)
(5.25178e-14 -4.8853e-14 -9.20909e-16)
(3.32985e-14 -2.54998e-14 -8.45311e-16)
(5.02242e-13 3.40091e-13 -2.41101e-14)
(4.63602e-13 2.40367e-13 -2.09368e-14)
(3.96979e-13 -1.92723e-13 -1.66492e-14)
(3.35052e-13 -1.85982e-13 -1.28691e-14)
(2.77572e-13 -1.7875e-13 -1.00045e-14)
(2.24137e-13 -1.71833e-13 -7.37758e-15)
(1.7447e-13 -1.65218e-13 -5.61304e-15)
(1.28272e-13 -1.58879e-13 -4.16268e-15)
(8.52022e-14 -1.52201e-13 -3.14275e-15)
(4.54706e-14 -7.86061e-14 -3.13746e-15)
(6.22622e-13 2.73913e-13 -3.91528e-14)
(5.53401e-13 7.05854e-14 -3.40446e-14)
(4.57057e-13 -3.89005e-13 -2.73298e-14)
(3.71321e-13 -3.64963e-13 -2.2127e-14)
(2.95293e-13 -3.41671e-13 -1.76744e-14)
(2.27762e-13 -3.20247e-13 -1.43468e-14)
(1.67767e-13 -3.00345e-13 -1.16854e-14)
(1.14425e-13 -2.82123e-13 -9.90625e-15)
(6.68824e-14 -2.64108e-13 -8.64738e-15)
(2.49477e-14 -1.34572e-13 -7.83392e-15)
(8.1986e-13 1.57589e-13 -6.68696e-14)
(7.02061e-13 -1.94657e-13 -5.77914e-14)
(5.62202e-13 -6.67488e-13 -4.7103e-14)
(4.43451e-13 -6.07583e-13 -3.8541e-14)
(3.42867e-13 -5.52773e-13 -3.17563e-14)
(2.57479e-13 -5.04026e-13 -2.66239e-14)
(1.84904e-13 -4.60399e-13 -2.22664e-14)
(1.23214e-13 -4.21624e-13 -1.92129e-14)
(7.07432e-14 -3.85227e-13 -1.6893e-14)
(2.64524e-14 -1.93568e-13 -1.50513e-14)
(1.09865e-12 -3.97032e-14 -1.17325e-13)
(9.02775e-13 -6.06547e-13 -9.95115e-14)
(6.98661e-13 -1.06395e-12 -8.06469e-14)
(5.33584e-13 -9.37106e-13 -6.58275e-14)
(4.00207e-13 -8.2666e-13 -5.43645e-14)
(2.92115e-13 -7.32121e-13 -4.55782e-14)
(2.04298e-13 -6.50383e-13 -3.82885e-14)
(1.32908e-13 -5.79779e-13 -3.29079e-14)
(7.48498e-14 -5.16404e-13 -2.84573e-14)
(2.80517e-14 -2.55939e-13 -2.53888e-14)
(1.50084e-12 -3.68763e-13 -2.06917e-13)
(1.17866e-12 -1.24598e-12 -1.70774e-13)
(8.77979e-13 -1.63182e-12 -1.35981e-13)
(6.47243e-13 -1.38678e-12 -1.09416e-13)
(4.69777e-13 -1.18306e-12 -8.91754e-14)
(3.32587e-13 -1.01534e-12 -7.35674e-14)
(2.26246e-13 -8.75947e-13 -6.12596e-14)
(1.4357e-13 -7.59555e-13 -5.1345e-14)
(7.92724e-14 -6.59053e-13 -4.40467e-14)
(2.96522e-14 -3.21964e-13 -3.82725e-14)
(2.09595e-12 -9.13752e-13 -3.66345e-13)
(1.56454e-12 -2.2437e-12 -2.90959e-13)
(1.11679e-12 -2.4529e-12 -2.25408e-13)
(7.91971e-13 -2.00358e-12 -1.77041e-13)
(5.54743e-13 -1.64863e-12 -1.40751e-13)
(3.8021e-13 -1.36833e-12 -1.13479e-13)
(2.51125e-13 -1.14431e-12 -9.25853e-14)
(1.55256e-13 -9.63975e-13 -7.58903e-14)
(8.39801e-14 -8.14417e-13 -6.36617e-14)
(3.13509e-14 -3.92248e-13 -5.42303e-14)
(3.00619e-12 -1.82527e-12 -6.52229e-13)
(2.11536e-12 -3.8193e-12 -4.95179e-13)
(1.43969e-12 -3.65188e-12 -3.69476e-13)
(9.78117e-13 -2.85584e-12 -2.79905e-13)
(6.5921e-13 -2.2593e-12 -2.15703e-13)
(4.36416e-13 -1.80917e-12 -1.69093e-13)
(2.79399e-13 -1.46442e-12 -1.34379e-13)
(1.68155e-13 -1.19714e-12 -1.0769e-13)
(8.89695e-14 -9.83783e-13 -8.78273e-14)
(3.31012e-14 -4.66939e-13 -7.30732e-14)
(4.48755e-11 -3.38229e-12 -1.16952e-12)
(2.99482e-12 -6.35848e-12 -8.42509e-13)
(1.87603e-12 -5.42643e-12 -5.99788e-13)
(1.21448e-12 -4.04381e-12 -4.36188e-13)
(7.83671e-13 -3.06504e-12 -3.24114e-13)
(4.98665e-13 -2.36198e-12 -2.45303e-13)
(3.07822e-13 -1.84676e-12 -1.89342e-13)
(1.78874e-13 -1.46329e-12 -1.48142e-13)
(9.1173e-14 -1.16907e-12 -1.17449e-13)
(3.19542e-14 -5.46574e-13 -9.52071e-14)
(9.74358e-08 -1.17082e-10 -4.63512e-12)
(9.42502e-11 -1.15688e-10 -1.38631e-12)
(1.86612e-12 -8.30244e-12 -9.67477e-13)
(1.19144e-12 -5.71032e-12 -6.70995e-13)
(7.93273e-13 -4.13082e-12 -4.78166e-13)
(5.32533e-13 -3.05444e-12 -3.48869e-13)
(3.58465e-13 -2.30245e-12 -2.60288e-13)
(2.40334e-13 -1.76594e-12 -1.97907e-13)
(1.5909e-13 -1.37031e-12 -1.52387e-13)
(1.03013e-13 -6.31004e-13 -1.20489e-13)
(2.29459e-13 3.7411e-13 -1.8728e-14)
(2.16298e-13 3.45827e-13 -1.44994e-14)
(1.89554e-13 -5.56113e-14 -1.13007e-14)
(1.64017e-13 -5.52283e-14 -8.64897e-15)
(1.39677e-13 -5.40392e-14 -7.10921e-15)
(1.16448e-13 -5.28373e-14 -6.05723e-15)
(9.42825e-14 -5.16655e-14 -5.94102e-15)
(7.31408e-14 -5.05069e-14 -1.00192e-14)
(5.30221e-14 -4.92078e-14 -3.65474e-14)
(3.38564e-14 -2.66395e-14 -1.27651e-13)
(5.04125e-13 3.39292e-13 -2.71892e-14)
(4.65051e-13 2.38862e-13 -2.04586e-14)
(3.98228e-13 -1.94314e-13 -1.66039e-14)
(3.36116e-13 -1.87392e-13 -1.31615e-14)
(2.78495e-13 -1.799e-13 -1.0796e-14)
(2.25002e-13 -1.72711e-13 -9.47229e-15)
(1.75266e-13 -1.6591e-13 -8.99339e-15)
(1.29052e-13 -1.59621e-13 -1.13094e-14)
(8.6055e-14 -1.52999e-13 -2.53653e-14)
(4.62803e-14 -8.06524e-14 -8.45767e-14)
(6.25939e-13 2.72597e-13 -4.41686e-14)
(5.56073e-13 6.82674e-14 -3.41524e-14)
(4.59298e-13 -3.91349e-13 -2.77404e-14)
(3.73256e-13 -3.66894e-13 -2.28853e-14)
(2.97004e-13 -3.43246e-13 -1.90251e-14)
(2.29335e-13 -3.21512e-13 -1.69142e-14)
(1.69168e-13 -3.01451e-13 -1.59939e-14)
(1.15696e-13 -2.82992e-13 -1.62598e-14)
(6.81508e-14 -2.65105e-13 -2.39715e-14)
(2.61117e-14 -1.36939e-13 -6.06407e-14)
(8.25604e-13 1.55206e-13 -7.57123e-14)
(7.06618e-13 -1.98372e-13 -5.93507e-14)
(5.66002e-13 -6.71151e-13 -4.86421e-14)
(4.46675e-13 -6.10572e-13 -4.05701e-14)