/*--------------------------------*- C++ -*----------------------------------*\
| =========                 |                                                 |
| \\      /  F ield         | OpenFOAM: The Open Source CFD Toolbox           |
|  \\    /   O peration     | Version:  4.1                                   |
|   \\  /    A nd           | Web:      www.OpenFOAM.org                      |
|    \\/     M anipulation  |                                                 |
\*---------------------------------------------------------------------------*/
FoamFile
{
    version     2.0;
    format      ascii;
    class       volScalarField;
    location    "0.1";
    object      Ma;
}
// * * * * * * * * * * * * * * * * * * * * * * * * * * * * * * * * * * * * * //

dimensions      [0 0 0 0 0 0 0];

internalField   nonuniform List<scalar> 
18000
(
5.88022e-12
5.81126e-12
5.73271e-12
5.66547e-12
5.59918e-12
5.53378e-12
5.46933e-12
5.40579e-12
5.34315e-12
5.28184e-12
7.42298e-12
7.15007e-12
6.87991e-12
6.63019e-12
6.39162e-12
6.16341e-12
5.94524e-12
5.7364e-12
5.53648e-12
5.34645e-12
9.49727e-12
8.89091e-12
8.32334e-12
7.80561e-12
7.3269e-12
6.88371e-12
6.4732e-12
6.09237e-12
5.73881e-12
5.41212e-12
1.23328e-11
1.11842e-11
1.01578e-11
9.24808e-12
8.43655e-12
7.7108e-12
7.06032e-12
6.47614e-12
5.95037e-12
5.4789e-12
1.62801e-11
1.42481e-11
1.25136e-11
1.1032e-11
9.75998e-12
8.66344e-12
7.7144e-12
6.89018e-12
6.17168e-12
5.54693e-12
2.18877e-11
1.84058e-11
1.55745e-11
1.32565e-11
1.13475e-11
9.76471e-12
8.44464e-12
7.33733e-12
6.40337e-12
5.61596e-12
3.00376e-11
2.41459e-11
1.96014e-11
1.60554e-11
1.32631e-11
1.10428e-11
9.26161e-12
7.82071e-12
6.64596e-12
5.68618e-12
4.21923e-11
3.2222e-11
2.49728e-11
1.96104e-11
1.55894e-11
1.25319e-11
1.01777e-11
8.3439e-12
6.89995e-12
5.75772e-12
7.63873e-10
7.23234e-10
6.74367e-10
6.31692e-10
5.94098e-10
5.60717e-10
5.30876e-10
5.04039e-10
4.79774e-10
4.58879e-10
9.37461e-08
2.10671e-08
1.79333e-08
1.54283e-08
1.3375e-08
1.16708e-08
1.02408e-08
9.02898e-09
7.98665e-09
7.87884e-09
5.93573e-12
5.86401e-12
5.78607e-12
5.71692e-12
5.64896e-12
5.58213e-12
5.5162e-12
5.45152e-12
5.38779e-12
5.32533e-12
7.50806e-12
7.22647e-12
6.95762e-12
6.70151e-12
6.45728e-12
6.22406e-12
6.00154e-12
5.78894e-12
5.58579e-12
5.39161e-12
9.61555e-12
8.99431e-12
8.42902e-12
7.8995e-12
7.41071e-12
6.95887e-12
6.54092e-12
6.15367e-12
5.79456e-12
5.45972e-12
1.25051e-11
1.13337e-11
1.03069e-11
9.37628e-12
8.54728e-12
7.80696e-12
7.1443e-12
6.54996e-12
6.0154e-12
5.52993e-12
1.65392e-11
1.4473e-11
1.27286e-11
1.12101e-11
9.90878e-12
8.78846e-12
7.82024e-12
6.98035e-12
6.24894e-12
5.60234e-12
2.22894e-11
1.87534e-11
1.5889e-11
1.35072e-11
1.15494e-11
9.92885e-12
8.57931e-12
7.44876e-12
6.49612e-12
5.67698e-12
3.06776e-11
2.46956e-11
2.00674e-11
1.64114e-11
1.35391e-11
1.12594e-11
9.43358e-12
7.95896e-12
6.75773e-12
5.75403e-12
4.3244e-11
3.31073e-11
2.56717e-11
2.01202e-11
1.59684e-11
1.28185e-11
1.03978e-11
8.51532e-12
7.03485e-12
5.83353e-12
6.37074e-11
4.6137e-11
3.41416e-11
2.5707e-11
1.97145e-11
1.53699e-11
1.21627e-11
9.75642e-12
7.92309e-12
6.47395e-12
4.51332e-08
8.23293e-09
7.0881e-09
6.16524e-09
5.41211e-09
4.78957e-09
4.26915e-09
3.82973e-09
3.45545e-09
3.15244e-09
3.92701e-13
3.67052e-13
1.80444e-13
1.59506e-13
1.39771e-13
1.2144e-13
1.04691e-13
8.97958e-14
7.70431e-14
5.70199e-14
5.40214e-13
4.66503e-13
3.92705e-13
3.41785e-13
2.95417e-13
2.53796e-13
2.17159e-13
1.85965e-13
1.6055e-13
9.15561e-14
6.07271e-13
4.98958e-13
5.32268e-13
4.62305e-13
4.0179e-13
3.50421e-13
3.07651e-13
2.73006e-13
2.45202e-13
1.29577e-13
7.46911e-13
6.49369e-13
7.7134e-13
6.65064e-13
5.75814e-13
5.01684e-13
4.40473e-13
3.90458e-13
3.48838e-13
1.79121e-13
9.85746e-13
9.64316e-13
1.12154e-12
9.50157e-13
8.09841e-13
6.95462e-13
6.02048e-13
5.25781e-13
4.61896e-13
2.32192e-13
1.38875e-12
1.51283e-12
1.62746e-12
1.34353e-12
1.11799e-12
9.38718e-13
7.95241e-13
6.79847e-13
5.84502e-13
2.88502e-13
2.05852e-12
2.40177e-12
2.35817e-12
1.88381e-12
1.52114e-12
1.24203e-12
1.02485e-12
8.54451e-13
7.17111e-13
3.47862e-13
3.17068e-12
3.81633e-12
3.42001e-12
2.62745e-12
2.04821e-12
1.61944e-12
1.29727e-12
1.0521e-12
8.60438e-13
4.10323e-13
1.92583e-11
6.06366e-12
4.9666e-12
3.6489e-12
2.73382e-12
2.08605e-12
1.61817e-12
1.27453e-12
1.01492e-12
4.76041e-13
4.22585e-08
1.11367e-10
7.32005e-11
5.52104e-11
4.24431e-11
3.31735e-11
2.63106e-11
2.11414e-11
1.71874e-11
1.39918e-11
3.88555e-13
3.62625e-13
1.7251e-13
1.51058e-13
1.30664e-13
1.11501e-13
9.36494e-14
7.73261e-14
6.28611e-14
3.66932e-14
5.34497e-13
4.60484e-13
3.86627e-13
3.35668e-13
2.89161e-13
2.47367e-13
2.10512e-13
1.78986e-13
1.53204e-13
7.95797e-14
5.97038e-13
4.88584e-13
5.24412e-13
4.54856e-13
3.9478e-13
3.43761e-13
3.01296e-13
2.67021e-13
2.39521e-13
1.20312e-13
7.29033e-13
6.33647e-13
7.61467e-13
6.56402e-13
5.6812e-13
4.94854e-13
4.34394e-13
3.85049e-13
3.44016e-13
1.71664e-13
9.54759e-13
9.42515e-13
1.10876e-12
9.39696e-13
8.01181e-13
6.88246e-13
5.95978e-13
5.20657e-13
4.57582e-13
2.25718e-13
1.33545e-12
1.48324e-12
1.61066e-12
1.33072e-12
1.10812e-12
9.31016e-13
7.89126e-13
6.74971e-13
5.80604e-13
2.82709e-13
1.96678e-12
2.36061e-12
2.33571e-12
1.86806e-12
1.50992e-12
1.23388e-12
1.01885e-12
8.49995e-13
7.1379e-13
3.42687e-13
3.00901e-12
3.7571e-12
3.38951e-12
2.60814e-12
2.03562e-12
1.61114e-12
1.29169e-12
1.0483e-12
8.57925e-13
4.05908e-13
1.95287e-11
5.99738e-12
4.93624e-12
3.63231e-12
2.72451e-12
2.08074e-12
1.61512e-12
1.27271e-12
1.01376e-12
4.72375e-13
4.46259e-08
5.55798e-11
7.17991e-12
5.01836e-12
3.62038e-12
2.66974e-12
2.00749e-12
1.53599e-12
1.19019e-12
5.51707e-13
3.88666e-13
3.62401e-13
1.72976e-13
1.51437e-13
1.30987e-13
1.11765e-13
9.39011e-14
7.75409e-14
6.29983e-14
3.67992e-14
5.3515e-13
4.60914e-13
3.87632e-13
3.36514e-13
2.89881e-13
2.47956e-13
2.1099e-13
1.79399e-13
1.53509e-13
7.97746e-14
5.98454e-13
4.89997e-13
5.26214e-13
4.56347e-13
3.95964e-13
3.44754e-13
3.02067e-13
2.67574e-13
2.39899e-13
1.20569e-13
7.31982e-13
6.36833e-13
7.64381e-13
6.588e-13
5.70033e-13
4.9638e-13
4.35636e-13
3.85987e-13
3.44683e-13
1.72065e-13
9.60525e-13
9.48437e-13
1.11367e-12
9.43606e-13
8.04305e-13
6.90697e-13
5.97897e-13
5.22172e-13
4.58729e-13
2.26521e-13
1.34641e-12
1.49368e-12
1.61893e-12
1.33722e-12
1.11319e-12
9.35029e-13
7.9231e-13
6.7749e-13
5.82578e-13
2.84064e-13
1.98728e-12
2.37903e-12
2.34995e-12
1.87891e-12
1.5183e-12
1.2404e-12
1.02395e-12
8.53985e-13
7.16991e-13
3.44961e-13
3.0474e-12
3.79001e-12
3.41402e-12
2.6263e-12
2.0493e-12
1.62158e-12
1.29973e-12
1.05457e-12
8.62828e-13
4.09379e-13
1.9562e-11
6.05703e-12
4.97875e-12
3.66268e-12
2.74661e-12
2.09715e-12
1.6275e-12
1.28218e-12
1.0211e-12
4.774e-13
4.47244e-08
5.57478e-11
7.22022e-12
5.0478e-12
3.64217e-12
2.68596e-12
2.01946e-12
1.54501e-12
1.19713e-12
5.55375e-13
3.88733e-13
3.62067e-13
1.73578e-13
1.51944e-13
1.31385e-13
1.12116e-13
9.41837e-14
7.78013e-14
6.32079e-14
3.69063e-14
5.35967e-13
4.6145e-13
3.88919e-13
3.37616e-13
2.90807e-13
2.4872e-13
2.11621e-13
1.79897e-13
1.53903e-13
8.0057e-14
6.00287e-13
4.91833e-13
5.28493e-13
4.58261e-13
3.97544e-13
3.45987e-13
3.03066e-13
2.68308e-13
2.40408e-13
1.2091e-13
7.35797e-13
6.40974e-13
7.68187e-13
6.61864e-13
5.72546e-13
4.98343e-13
4.37131e-13
3.8717e-13
3.45538e-13
1.72656e-13
9.68054e-13
9.56125e-13
1.12e-12
9.48614e-13
8.08298e-13
6.93902e-13
6.00401e-13
5.24113e-13
4.60248e-13
2.27603e-13
1.36072e-12
1.50731e-12
1.62968e-12
1.34561e-12
1.11975e-12
9.40194e-13
7.96403e-13
6.80699e-13
5.85138e-13
2.85876e-13
2.01413e-12
2.40302e-12
2.36838e-12
1.89298e-12
1.52912e-12
1.24885e-12
1.03055e-12
8.59172e-13
7.21086e-13
3.47861e-13
3.09785e-12
3.83294e-12
3.44588e-12
2.6499e-12
2.06702e-12
1.63506e-12
1.31012e-12
1.06266e-12
8.69168e-13
4.13768e-13
1.96601e-11
6.13472e-12
5.03398e-12
3.70204e-12
2.77523e-12
2.11836e-12
1.64344e-12
1.29436e-12
1.03053e-12
4.83872e-13
4.46665e-08
5.58959e-11
7.31164e-12
5.11064e-12
3.68649e-12
2.71794e-12
2.04302e-12
1.56273e-12
1.21063e-12
5.64493e-13
3.88827e-13
3.61709e-13
1.74293e-13
1.52562e-13
1.31931e-13
1.12563e-13
9.45603e-14
7.80849e-14
6.3427e-14
3.70735e-14
5.36982e-13
4.62118e-13
3.90495e-13
3.38919e-13
2.91946e-13
2.49714e-13
2.12426e-13
1.80516e-13
1.54295e-13
8.03563e-14
6.02532e-13
4.94067e-13
5.3128e-13
4.60568e-13
3.9943e-13
3.47562e-13
3.04263e-13
2.69191e-13
2.41047e-13
1.213e-13
7.40483e-13
6.46011e-13
7.72815e-13
6.65623e-13
5.75577e-13
5.00779e-13
4.38993e-13
3.88587e-13
3.46639e-13
1.73379e-13
9.77284e-13
9.65521e-13
1.12772e-12
9.54777e-13
8.13166e-13
6.97784e-13
6.03472e-13
5.26497e-13
4.62086e-13
2.28914e-13
1.37827e-12
1.52384e-12
1.64277e-12
1.35584e-12
1.12783e-12
9.46539e-13
8.01409e-13
6.84624e-13
5.88237e-13
2.88106e-13
2.04709e-12
2.4323e-12
2.39091e-12
1.9102e-12
1.54237e-12
1.25914e-12
1.03863e-12
8.65498e-13
7.26116e-13
3.51454e-13
3.1598e-12
3.88549e-12
3.48497e-12
2.67881e-12
2.08872e-12
1.65157e-12
1.32287e-12
1.07254e-12
8.76889e-13
4.19198e-13
1.98807e-11
6.23012e-12
5.10179e-12
3.7504e-12
2.8104e-12
2.14435e-12
1.66301e-12
1.30928e-12
1.042e-12
4.91716e-13
4.50394e-08
5.66787e-11
7.42515e-12
5.18824e-12
3.74114e-12
2.75734e-12
2.07207e-12
1.58451e-12
1.22715e-12
5.75625e-13
3.88933e-13
3.61167e-13
1.75082e-13
1.53221e-13
1.32534e-13
1.13112e-13
9.50628e-14
7.86062e-14
6.47828e-14
5.26576e-14
5.38126e-13
4.6276e-13
3.92213e-13
3.40417e-13
2.93236e-13
2.50836e-13
2.13388e-13
1.81423e-13
1.55296e-13
8.54638e-14
6.05115e-13
4.96421e-13
5.34347e-13
4.63144e-13
4.01596e-13
3.49362e-13
3.05764e-13
2.70377e-13
2.42148e-13
1.24322e-13
7.45892e-13
6.51387e-13
7.77875e-13
6.69778e-13
5.78954e-13
5.03556e-13
4.41301e-13
3.90416e-13
3.48213e-13
1.76088e-13
9.87901e-13
9.75591e-13
1.13612e-12
9.61541e-13
8.18605e-13
7.02166e-13
6.07086e-13
5.29462e-13
4.64588e-13
2.31947e-13
1.39833e-12
1.54174e-12
1.657e-12
1.36706e-12
1.13668e-12
9.53664e-13
8.07245e-13
6.89458e-13
5.92193e-13
2.92062e-13
2.08438e-12
2.46392e-12
2.41526e-12
1.929e-12
1.557e-12
1.2707e-12
1.04796e-12
8.73155e-13
7.32253e-13
3.56747e-13
3.22923e-12
3.94175e-12
3.52715e-12
2.71042e-12
2.11269e-12
1.67002e-12
1.33737e-12
1.08431e-12
8.86359e-13
4.26521e-13
1.99596e-11
6.33175e-12
5.17494e-12
3.80317e-12
2.84921e-12
2.17344e-12
1.68521e-12
1.32672e-12
1.05595e-12
5.01787e-13
4.8976e-08
5.59808e-11
7.54468e-12
5.27255e-12
3.80134e-12
2.80131e-12
2.10488e-12
1.60977e-12
1.24702e-12
5.89539e-13
3.87683e-13
3.86213e-13
2.00763e-13
1.60962e-13
1.33453e-13
1.57252e-13
2.51382e-13
6.83237e-13
3.03236e-12
1.10736e-11
5.36948e-13
5.06921e-13
4.19177e-13
3.51576e-13
2.93627e-13
2.66939e-13
3.01085e-13
5.46731e-13
1.82417e-12
6.97592e-12
6.038e-13
5.71067e-13
5.71075e-13
4.81521e-13
4.04566e-13
3.53182e-13
3.62069e-13
4.83201e-13
1.21289e-12
4.3808e-12
7.42762e-13
7.43345e-13
8.16687e-13
6.90095e-13
5.83174e-13
5.02468e-13
4.69701e-13
5.11002e-13
9.05156e-13
2.90892e-12
9.79471e-13
1.06336e-12
1.16905e-12
9.77928e-13
8.20596e-13
6.97625e-13
6.19301e-13
6.0312e-13
7.89148e-13
2.04343e-12
1.37872e-12
1.60374e-12
1.67392e-12
1.3721e-12
1.13132e-12
9.43813e-13
8.09155e-13
7.4602e-13
7.91335e-13
1.51888e-12
2.04462e-12
2.47841e-12
2.40273e-12
1.9132e-12
1.5378e-12
1.25193e-12
1.04092e-12
9.0954e-13
8.64108e-13
1.19883e-12
3.15434e-12
3.88122e-12
3.46672e-12
2.66163e-12
2.07179e-12
1.63772e-12
1.32077e-12
1.10508e-12
9.83914e-13
1.01073e-12
1.54808e-11
6.1523e-12
5.04202e-12
3.70606e-12
2.77708e-12
2.12187e-12
1.65701e-12
1.33456e-12
1.14068e-12
9.12509e-13
3.04123e-08
4.08025e-11
7.27323e-12
5.10441e-12
3.68468e-12
2.72295e-12
2.06081e-12
1.60468e-12
1.31111e-12
8.81911e-13
2.54559e-12
2.41015e-12
1.54805e-12
1.6264e-13
2.59711e-12
8.1526e-12
2.20452e-11
6.808e-11
2.91375e-10
1.16928e-09
3.58296e-12
3.48474e-12
2.59582e-12
1.20163e-12
1.30041e-12
6.017e-12
1.69242e-11
4.89225e-11
1.79034e-10
6.62222e-10
4.84854e-12
4.75228e-12
3.78244e-12
2.37471e-12
3.46248e-13
4.0134e-12
1.26749e-11
3.58022e-11
1.1777e-10
4.03073e-10
6.50138e-12
6.33336e-12
5.19039e-12
3.68569e-12
1.5235e-12
2.24263e-12
9.32858e-12
2.66711e-11
8.15386e-11
2.59329e-10
8.6978e-12
8.33844e-12
6.89027e-12
5.17767e-12
2.9461e-12
8.04329e-13
6.5807e-12
2.00049e-11
5.84584e-11
1.74394e-10
1.16729e-11
1.09254e-11
8.97924e-12
6.90774e-12
4.48416e-12
1.36901e-12
4.28494e-12
1.49172e-11
4.29498e-11
1.21543e-10
1.57864e-11
1.43269e-11
1.159e-11
8.95103e-12
6.17936e-12
2.90253e-12
2.36908e-12
1.10328e-11
3.20865e-11
8.71973e-11
2.16101e-11
1.88858e-11
1.49084e-11
1.14061e-11
8.08238e-12
4.54017e-12
1.23391e-12
7.93841e-12
2.4201e-11
6.40363e-11
3.01721e-11
2.51301e-11
1.92005e-11
1.44027e-11
1.02585e-11
6.27624e-12
2.04713e-12
5.42683e-12
1.82915e-11
4.79115e-11
1.36448e-07
7.03577e-11
2.48211e-11
1.80938e-11
1.27716e-11
8.13417e-12
3.55713e-12
3.42366e-12
1.38063e-11
3.63271e-11
3.46764e-12
3.11775e-12
2.06474e-12
1.91331e-12
8.18974e-12
2.69333e-11
9.36276e-11
4.45886e-10
2.28411e-09
3.07192e-09
4.60342e-12
4.2882e-12
3.2792e-12
1.69922e-12
5.13125e-12
1.89516e-11
6.39021e-11
2.64314e-10
1.21015e-09
1.54957e-09
5.98935e-12
5.64791e-12
4.6481e-12
2.87942e-12
2.77133e-12
1.28505e-11
4.41937e-11
1.67272e-10
6.94879e-10
8.60305e-10
7.76939e-12
7.29866e-12
6.20631e-12
4.44479e-12
2.00045e-12
8.24131e-12
3.08054e-11
1.10883e-10
4.24097e-10
5.12439e-10
1.01136e-11
9.35601e-12
8.02814e-12
6.1839e-12
3.30028e-12
4.72245e-12
2.13153e-11
7.57632e-11
2.71491e-10
3.2224e-10
1.32758e-11
1.19828e-11
1.02174e-11
8.12618e-12
5.18182e-12
2.49589e-12
1.43082e-11
5.271e-11
1.80487e-10
2.11415e-10
1.76446e-11
1.54146e-11
1.29156e-11
1.03524e-11
7.22923e-12
2.9249e-12
9.0761e-12
3.69552e-11
1.23476e-10
1.43407e-10
2.38359e-11
1.99998e-11
1.63181e-11
1.29719e-11
9.44329e-12
4.90575e-12
5.12508e-12
2.5808e-11
8.63245e-11
9.98627e-11
3.75543e-11
2.62608e-11
2.06999e-11
1.61292e-11
1.18962e-11
7.13586e-12
2.6984e-12
1.76608e-11
6.12509e-11
7.09764e-11
2.27989e-08
1.22564e-09
2.64274e-11
1.99939e-11
1.46671e-11
9.44478e-12
3.24835e-12
1.15857e-11
4.38152e-11
5.10535e-11
1.00062e-12
1.25588e-12
1.53672e-12
3.26238e-12
8.72086e-12
2.60272e-11
8.95712e-11
3.61565e-10
7.68547e-10
7.2529e-10
1.07493e-12
1.24649e-12
1.38929e-12
2.45596e-12
6.16175e-12
1.79696e-11
5.89917e-11
2.19439e-10
4.14472e-10
3.90253e-10
1.15152e-12
1.27448e-12
1.36558e-12
1.97263e-12
4.39159e-12
1.25117e-11
3.97721e-11
1.38805e-10
2.38358e-10
2.24644e-10
1.22724e-12
1.32752e-12
1.41765e-12
1.76119e-12
3.22748e-12
8.77968e-12
2.72869e-11
9.07429e-11
1.43838e-10
1.38032e-10
1.3046e-12
1.39446e-12
1.50255e-12
1.72421e-12
2.52847e-12
6.22584e-12
1.89876e-11
6.09235e-11
9.0157e-11
8.98326e-11
1.38593e-12
1.47054e-12
1.59826e-12
1.77614e-12
2.18276e-12
4.49823e-12
1.33533e-11
4.18468e-11
5.81945e-11
6.14884e-11
1.47451e-12
1.55389e-12
1.6965e-12
1.8647e-12
2.07266e-12
3.38347e-12
9.45947e-12
2.91863e-11
3.8446e-11
4.39839e-11
1.5746e-12
1.64551e-12
1.79558e-12
1.96412e-12
2.09025e-12
2.73667e-12
6.77738e-12
2.06256e-11
2.58545e-11
3.26866e-11
5.33383e-11
1.76729e-12
1.89666e-12
2.06557e-12
2.16465e-12
2.4287e-12
4.94838e-12
1.47342e-11
1.76357e-11
2.51096e-11
3.98985e-08
1.09087e-09
2.0498e-12
2.1632e-12
2.25434e-12
2.32759e-12
3.73277e-12
1.06107e-11
1.20577e-11
1.97709e-11
7.97712e-13
1.51286e-12
1.61103e-12
2.52141e-12
4.15573e-12
7.29169e-12
1.51061e-11
4.96717e-11
3.2702e-10
9.79169e-10
7.32162e-13
1.35917e-12
1.398e-12
2.15474e-12
3.49223e-12
5.97854e-12
1.15169e-11
3.18024e-11
1.93524e-10
5.25814e-10
6.69192e-13
1.21553e-12
1.20429e-12
1.83186e-12
2.92785e-12
4.91352e-12
9.00672e-12
2.16156e-11
1.19346e-10
3.0382e-10
6.15286e-13
1.09344e-12
1.04324e-12
1.5673e-12
2.47174e-12
4.08062e-12
7.21517e-12
1.55296e-11
7.63363e-11
1.8573e-10
5.69147e-13
9.89211e-13
9.08779e-13
1.34821e-12
2.10074e-12
3.42065e-12
5.8847e-12
1.16812e-11
5.03568e-11
1.18669e-10
5.29428e-13
8.99911e-13
7.95929e-13
1.16696e-12
1.79764e-12
2.88859e-12
4.86696e-12
9.10973e-12
3.41139e-11
7.85813e-11
4.9507e-13
8.22783e-13
7.00886e-13
1.0154e-12
1.54608e-12
2.45544e-12
4.07172e-12
7.29428e-12
2.36555e-11
5.35963e-11
4.65532e-13
7.55763e-13
6.20384e-13
8.87745e-13
1.33722e-12
2.10097e-12
3.43645e-12
5.96204e-12
1.67433e-11
3.74805e-11
9.41487e-11
8.67654e-13
5.515e-13
7.80099e-13
1.16273e-12
1.80809e-12
2.92155e-12
4.94955e-12
1.20719e-11
2.67788e-11
3.93165e-08
3.82186e-09
3.31847e-12
6.66411e-13
1.0121e-12
1.55812e-12
2.49153e-12
4.14504e-12
8.83436e-12
1.94694e-11
1.07446e-12
1.86804e-12
1.61226e-12
2.17756e-12
3.03674e-12
4.40899e-12
7.07406e-12
1.42418e-11
5.73716e-11
1.14353e-10
1.00088e-12
1.71296e-12
1.44565e-12
1.93989e-12
2.68368e-12
3.83481e-12
5.8682e-12
1.07214e-11
4.02091e-11
7.59589e-11
9.29155e-13
1.56391e-12
1.28494e-12
1.71399e-12
2.35674e-12
3.33292e-12
4.94351e-12
8.34323e-12
2.83147e-11
5.21943e-11
8.66784e-13
1.43423e-12
1.14664e-12
1.51952e-12
2.07781e-12
2.91507e-12
4.23742e-12
6.73486e-12
2.01892e-11
3.68721e-11
8.12583e-13
1.32104e-12
1.02773e-12
1.35254e-12
1.83964e-12
2.5642e-12
3.67739e-12
5.60219e-12
1.45649e-11
2.66089e-11
7.6527e-13
1.22184e-12
9.24998e-13
1.20868e-12
1.63416e-12
2.26537e-12
3.21976e-12
4.76585e-12
1.06214e-11
1.95314e-11
7.23687e-13
1.13441e-12
8.36039e-13
1.08409e-12
1.45677e-12
2.00953e-12
2.83634e-12
4.11949e-12
7.82066e-12
1.4537e-11
6.87359e-13
1.05699e-12
7.58709e-13
9.7586e-13
1.30296e-12
1.78827e-12
2.51004e-12
3.6006e-12
5.81084e-12
1.0947e-11
1.43245e-10
1.33505e-12
6.90927e-13
8.81658e-13
1.16924e-12
1.59619e-12
2.2306e-12
3.17153e-12
4.35549e-12
8.32451e-12
4.81986e-08
6.78127e-09
7.77602e-12
7.65515e-13
1.04943e-12
1.42491e-12
1.98289e-12
2.8004e-12
3.27645e-12
6.36749e-12
1.49886e-12
2.36972e-12
1.62174e-12
1.90707e-12
2.289e-12
2.83463e-12
3.81641e-12
6.04103e-12
1.70975e-11
2.35316e-11
1.41762e-12
2.21731e-12
1.50561e-12
1.77274e-12
2.12719e-12
2.60765e-12
3.37467e-12
4.94577e-12
1.30204e-11
1.82966e-11
1.33703e-12
2.06605e-12
1.38334e-12
1.63028e-12
1.95772e-12
2.38917e-12
3.0199e-12
4.16547e-12
9.82437e-12
1.41867e-11
1.26575e-12
1.93081e-12
1.2729e-12
1.50018e-12
1.8026e-12
2.19632e-12
2.73986e-12
3.61821e-12
7.43196e-12
1.10625e-11
1.20268e-12
1.8097e-12
1.17386e-12
1.38225e-12
1.66155e-12
2.02363e-12
2.50779e-12
3.21877e-12
5.63207e-12
8.66605e-12
1.14665e-12
1.70088e-12
1.08509e-12
1.2757e-12
1.53277e-12
1.86716e-12
2.30654e-12
2.91083e-12
4.27088e-12
6.8133e-12
1.09671e-12
1.60295e-12
1.00544e-12
1.17927e-12
1.41543e-12
1.72441e-12
2.12859e-12
2.65976e-12
3.2379e-12
5.36998e-12
1.05237e-12
1.51445e-12
9.33949e-13
1.09209e-12
1.30868e-12
1.59398e-12
1.96755e-12
2.44658e-12
2.45137e-12
4.23906e-12
1.96478e-10
1.95775e-12
8.69444e-13
1.0133e-12
1.21154e-12
1.47472e-12
1.82076e-12
2.25917e-12
1.85194e-12
3.34709e-12
3.79423e-08
9.45414e-09
1.27535e-11
9.07608e-13
1.12024e-12
1.36187e-12
1.68115e-12
2.0844e-12
1.38344e-12
2.63359e-12
2.12996e-12
3.01931e-12
1.5718e-12
1.60766e-12
1.66929e-12
1.79986e-12
2.1498e-12
2.98807e-12
6.91426e-12
8.32929e-12
2.04319e-12
2.87916e-12
1.51363e-12
1.56477e-12
1.63591e-12
1.74706e-12
1.99333e-12
2.57569e-12
5.59848e-12
6.97421e-12
1.95633e-12
2.73538e-12
1.43895e-12
1.50143e-12
1.58204e-12
1.68731e-12
1.87431e-12
2.27929e-12
4.42284e-12
5.73419e-12
1.87786e-12
2.60271e-12
1.36583e-12
1.43587e-12
1.524e-12
1.62994e-12
1.78671e-12
2.07914e-12
3.47717e-12
4.71463e-12
1.80699e-12
2.48053e-12
1.29579e-12
1.37064e-12
1.4643e-12
1.57321e-12
1.7161e-12
1.94165e-12
2.71522e-12
3.87369e-12
1.74286e-12
2.36805e-12
1.22947e-12
1.30657e-12
1.40368e-12
1.51595e-12
1.65404e-12
1.84123e-12
2.10036e-12
3.17714e-12
1.68476e-12
2.26441e-12
1.16692e-12
1.24455e-12
1.34323e-12
1.45799e-12
1.59518e-12
1.76192e-12
1.60277e-12
2.59904e-12
1.63223e-12
2.16878e-12
1.10831e-12
1.18518e-12
1.28391e-12
1.39981e-12
1.53712e-12
1.69405e-12
1.20074e-12
2.11835e-12
2.53484e-10
2.72901e-12
1.05333e-12
1.12867e-12
1.2262e-12
1.34212e-12
1.47965e-12
1.63215e-12
8.77358e-13
1.71873e-12
9.41345e-09
1.1021e-08
2.69166e-11
1.0407e-12
1.16764e-12
1.28214e-12
1.41838e-12
1.568e-12
6.06279e-13
1.3842e-12
3.00804e-12
3.7691e-12
1.38884e-12
1.21559e-12
1.06933e-12
1.00299e-12
1.13772e-12
1.55437e-12
3.46754e-12
3.82422e-12
2.92081e-12
3.65621e-12
1.39171e-12
1.2503e-12
1.12271e-12
1.03658e-12
1.08055e-12
1.3547e-12
2.97521e-12
3.40552e-12
2.83321e-12
3.53614e-12
1.37173e-12
1.25948e-12
1.15377e-12
1.06678e-12
1.05758e-12
1.21636e-12
2.45288e-12
2.9343e-12
2.75228e-12
3.42129e-12
1.34425e-12
1.25654e-12
1.17182e-12
1.0932e-12
1.05835e-12
1.13527e-12
2.00504e-12
2.52347e-12
2.67762e-12
3.31218e-12
1.31252e-12
1.24547e-12
1.17996e-12
1.11385e-12
1.07052e-12
1.09576e-12
1.62148e-12
2.16525e-12
2.60884e-12
3.20884e-12
1.27791e-12
1.22821e-12
1.17983e-12
1.12761e-12
1.08582e-12
1.08201e-12
1.29255e-12
1.85323e-12
2.54541e-12
3.11122e-12
1.24179e-12
1.20658e-12
1.17306e-12
1.13458e-12
1.09975e-12
1.08217e-12
1.01101e-12
1.5817e-12
2.48717e-12
3.01914e-12
1.20514e-12
1.18195e-12
1.1611e-12
1.13534e-12
1.10972e-12
1.08861e-12
7.70399e-13
1.34647e-12
3.13291e-10
3.61565e-12
1.1684e-12
1.15532e-12
1.14525e-12
1.13098e-12
1.11523e-12
1.09675e-12
5.66177e-13
1.14406e-12
2.31745e-08
1.06337e-08
2.74498e-11
1.0986e-12
1.1239e-12
1.11967e-12
1.11314e-12
1.09997e-12
3.87583e-13
9.7385e-13
4.09002e-12
4.50784e-12
1.06245e-12
7.60204e-13
4.95125e-13
3.48516e-13
4.86634e-13
7.97021e-13
2.09179e-12
2.11285e-12
4.00862e-12
4.4366e-12
1.109e-12
8.42889e-13
6.00793e-13
4.18892e-13
4.30317e-13
6.57717e-13
1.92374e-12
2.00614e-12
3.92797e-12
4.35796e-12
1.133e-12
9.01414e-13
6.85002e-13
4.98896e-13
4.2682e-13
5.5498e-13
1.67637e-12
1.81056e-12
3.85172e-12
4.27861e-12
1.14542e-12
9.4421e-13
7.51989e-13
5.73782e-13
4.59362e-13
4.9521e-13
1.45545e-12
1.63345e-12
3.77985e-12
4.20013e-12
1.14966e-12
9.75272e-13
8.0586e-13
6.40723e-13
5.09889e-13
4.76843e-13
1.25892e-12
1.4732e-12
3.71252e-12
4.1231e-12
1.14741e-12
9.97059e-13
8.48706e-13
6.98681e-13
5.65505e-13
4.8993e-13
1.08545e-12
1.32907e-12
3.64933e-12
4.04806e-12
1.14029e-12
1.01117e-12
8.82077e-13
7.47736e-13
6.19691e-13
5.22126e-13
9.33889e-13
1.20033e-12
3.59038e-12
3.97542e-12
1.12942e-12
1.01918e-12
9.07611e-13
7.88594e-13
6.69483e-13
5.63457e-13
8.03436e-13
1.08612e-12
3.691e-10
4.55667e-12
1.11569e-12
1.02225e-12
9.26821e-13
8.22404e-13
7.13747e-13
6.07674e-13
6.94116e-13
9.86064e-13
5.88384e-08
7.94632e-09
2.56687e-11
1.00707e-12
9.38577e-13
8.47983e-13
7.50526e-13
6.48558e-13
6.05046e-13
9.05083e-13
5.16813e-12
5.08706e-12
7.5649e-13
4.99067e-13
2.71861e-13
1.53907e-13
2.68237e-13
4.51182e-13
1.50185e-12
1.36808e-12
5.09646e-12
5.06144e-12
7.78662e-13
5.3659e-13
3.10415e-13
1.24656e-13
1.64952e-13
3.47282e-13
1.49301e-12
1.39247e-12
5.02769e-12
5.03143e-12
7.94503e-13
5.72744e-13
3.60118e-13
1.617e-13
7.74751e-14
2.49838e-13
1.38548e-12
1.31766e-12
4.96128e-12
4.99659e-12
8.07577e-13
6.05994e-13
4.09846e-13
2.19481e-13
4.47233e-14
1.61103e-13
1.28726e-12
1.24832e-12
4.89781e-12
4.95887e-12
8.18105e-13
6.36197e-13
4.57098e-13
2.79961e-13
1.07374e-13
8.6559e-14
1.19774e-12
1.18404e-12
4.83723e-12
4.91913e-12
8.25903e-13
6.62543e-13
5.00023e-13
3.36835e-13
1.75542e-13
5.67873e-14
1.11672e-12
1.12497e-12
4.7795e-12
4.87824e-12
8.30969e-13
6.84932e-13
5.3827e-13
3.8872e-13
2.38637e-13
9.99053e-14
1.0442e-12
1.07092e-12
4.72503e-12
4.83694e-12
8.33419e-13
7.03476e-13
5.71687e-13
4.35207e-13
2.95932e-13
1.58806e-13
9.79638e-13
1.02185e-12
4.13114e-10
5.38855e-12
8.33726e-13
7.18676e-13
6.00842e-13
4.7671e-13
3.48133e-13
2.16712e-13
9.23078e-13
9.7752e-13
9.11751e-08
4.23856e-09
1.72171e-11
7.29132e-13
6.2528e-13
5.13278e-13
3.95326e-13
2.71678e-13
8.74533e-13
9.46366e-13
5.8762e-12
5.38834e-12
7.00002e-13
6.10093e-13
5.11126e-13
4.42142e-13
4.00451e-13
3.87951e-13
1.25739e-12
1.05358e-12
5.81154e-12
5.39356e-12
6.27264e-13
5.49379e-13
4.58751e-13
3.94343e-13
3.5513e-13
3.46101e-13
1.32293e-12
1.13477e-12
5.752e-12
5.39818e-12
5.62414e-13
4.94816e-13
4.1142e-13
3.50083e-13
3.12161e-13
3.03973e-13
1.28043e-12
1.11156e-12
5.69392e-12
5.39648e-12
5.08718e-13
4.49028e-13
3.71441e-13
3.12144e-13
2.73789e-13
2.65164e-13
1.23999e-12
1.08906e-12
5.63779e-12
5.38991e-12
4.65872e-13
4.12154e-13
3.39519e-13
2.81182e-13
2.40923e-13
2.29911e-13
1.2015e-12
1.06764e-12
5.58391e-12
5.37979e-12
4.32389e-13
3.8315e-13
3.14729e-13
2.56868e-13
2.13894e-13
1.98851e-13
1.16496e-12
1.04706e-12
5.53196e-12
5.3667e-12
4.06375e-13
3.60825e-13
2.96492e-13
2.39286e-13
1.93349e-13
1.72304e-13
1.13017e-12
1.02744e-12
5.48268e-12
5.35155e-12
3.8669e-13
3.4416e-13
2.84006e-13
2.27772e-13
1.78947e-13
1.51118e-13
1.0973e-12
1.00859e-12
4.37404e-10
5.87387e-12
3.72346e-13
3.32351e-13
2.76396e-13
2.21999e-13
1.71537e-13
1.36507e-13
1.06582e-12
9.90458e-13
1.11109e-07
2.78549e-09
1.19966e-11
3.16692e-13
2.74542e-13
2.23962e-13
1.75043e-13
1.36874e-13
1.03722e-12
9.94683e-13
5.88303e-12
5.35883e-12
7.11375e-13
6.36156e-13
5.40697e-13
4.66657e-13
4.12045e-13
3.8101e-13
1.18682e-12
1.0054e-12
5.81811e-12
5.36626e-12
6.24309e-13
5.66351e-13
4.84287e-13
4.19697e-13
3.71842e-13
3.47033e-13
1.26245e-12
1.09042e-12
5.75878e-12
5.37376e-12
5.45685e-13
5.02056e-13
4.31151e-13
3.74339e-13
3.31824e-13
3.10699e-13
1.22805e-12
1.07083e-12
5.70104e-12
5.3748e-12
4.78195e-13
4.45554e-13
3.83885e-13
3.33432e-13
2.95166e-13
2.7694e-13
1.19512e-12
1.05201e-12
5.64535e-12
5.37104e-12
4.22076e-13
3.97548e-13
3.43224e-13
2.97518e-13
2.62194e-13
2.45692e-13
1.16351e-12
1.03405e-12
5.59182e-12
5.36356e-12
3.76127e-13
3.57263e-13
3.08761e-13
2.66697e-13
2.33077e-13
2.1711e-13
1.13332e-12
1.01692e-12
5.54029e-12
5.35299e-12
3.39152e-13
3.23935e-13
2.80195e-13
2.40793e-13
2.08084e-13
1.91581e-13
1.10434e-12
1.00059e-12
5.49145e-12
5.34026e-12
3.10376e-13
2.9711e-13
2.57194e-13
2.19821e-13
1.87221e-13
1.69291e-13
1.07668e-12
9.84968e-13
4.37405e-10
5.86581e-12
2.89127e-13
2.76275e-13
2.39617e-13
2.04051e-13
1.71433e-13
1.50952e-13
1.05007e-12
9.70052e-13
1.11109e-07
2.78549e-09
1.19724e-11
2.49152e-13
2.29128e-13
1.96757e-13
1.65917e-13
1.44779e-13
1.02574e-12
9.86649e-13
5.17917e-12
5.00702e-12
7.23608e-13
5.15644e-13
3.32947e-13
2.28944e-13
2.63358e-13
3.87893e-13
1.25892e-12
1.20954e-12
5.10908e-12
4.98986e-12
7.21105e-13
5.22104e-13
3.35689e-13
1.95038e-13
1.8324e-13
3.02457e-13
1.28395e-12
1.24626e-12
5.04235e-12
4.96881e-12
7.21656e-13
5.36441e-13
3.56362e-13
1.9767e-13
1.19188e-13
2.18012e-13
1.20553e-12
1.18438e-12
4.97801e-12
4.9426e-12
7.24799e-13
5.54219e-13
3.84836e-13
2.24217e-13
9.02997e-14
1.39243e-13
1.13383e-12
1.12735e-12
4.91635e-12
4.91302e-12
7.29606e-13
5.73862e-13
4.17099e-13
2.63233e-13
1.14019e-13
6.82072e-14
1.06868e-12
1.07515e-12
4.85742e-12
4.88087e-12
7.3466e-13
5.93433e-13
4.49833e-13
3.05827e-13
1.6121e-13
2.73268e-14
1.01015e-12
1.02775e-12
4.80126e-12
4.84713e-12
7.39046e-13
6.1166e-13
4.81074e-13
3.47853e-13
2.12148e-13
7.41286e-14
9.57895e-13
9.84936e-13
4.74826e-12
4.81233e-12
7.42341e-13
6.28064e-13
5.09965e-13
3.87514e-13
2.61301e-13
1.30731e-13
9.11692e-13
9.46639e-13
4.13117e-10
5.37282e-12
7.44469e-13
6.42436e-13
5.36219e-13
4.24365e-13
3.075e-13
1.84697e-13
8.71564e-13
9.12838e-13
9.11751e-08
4.23856e-09
1.71738e-11
6.52961e-13
5.59092e-13
4.5778e-13
3.50611e-13
2.36543e-13
8.37858e-13
9.02218e-13
4.0972e-12
4.40595e-12
9.40821e-13
6.54442e-13
3.94293e-13
2.1657e-13
3.34059e-13
6.09773e-13
1.55454e-12
1.77205e-12
4.02181e-12
4.35105e-12
9.88478e-13
7.3341e-13
4.98241e-13
3.0552e-13
2.92388e-13
4.97363e-13
1.46472e-12
1.69842e-12
3.94662e-12
4.28749e-12
1.01818e-12
7.94044e-13
5.84004e-13
3.96507e-13
3.05146e-13
4.12793e-13
1.28577e-12
1.53561e-12
3.87473e-12
4.22171e-12
1.03752e-12
8.40638e-13
6.53325e-13
4.7703e-13
3.51758e-13
3.67747e-13
1.12513e-12
1.38826e-12
3.80666e-12
4.15528e-12
1.04929e-12
8.76911e-13
7.10453e-13
5.47885e-13
4.12209e-13
3.62934e-13
9.82344e-13
1.25566e-12
3.74237e-12
4.08906e-12
1.0547e-12
9.04246e-13
7.57192e-13
6.09343e-13
4.74434e-13
3.87703e-13
8.57027e-13
1.13727e-12
3.68171e-12
4.0236e-12
1.05515e-12
9.2436e-13
7.95028e-13
6.61789e-13
5.33123e-13
4.28966e-13
7.48781e-13
1.03245e-12
3.62485e-12
3.95952e-12
1.05139e-12
9.38367e-13
8.25388e-13
7.06314e-13
5.86609e-13
4.76811e-13
6.57861e-13
9.40743e-13
3.69103e-10
4.55107e-12
1.04444e-12
9.47518e-13
8.49445e-13
7.43919e-13
6.34331e-13
5.25729e-13
5.84566e-13
8.61993e-13
5.88384e-08
7.94632e-09
2.56367e-11
9.39449e-13
8.66227e-13
7.73518e-13
6.74541e-13
5.70704e-13
5.28651e-13
8.05289e-13
3.01661e-12
3.67865e-12
1.23075e-12
1.03771e-12
8.77828e-13
7.88907e-13
8.65829e-13
1.16861e-12
2.2909e-12
3.05724e-12
2.93892e-12
3.58831e-12
1.25468e-12
1.09156e-12
9.48871e-13
8.45903e-13
8.51045e-13
1.0424e-12
2.00213e-12
2.74463e-12
2.85862e-12
3.48702e-12
1.25436e-12
1.11956e-12
9.97554e-13
8.95717e-13
8.59051e-13
9.58056e-13
1.65259e-12
2.36576e-12
2.78327e-12
3.38794e-12
1.24428e-12
1.13384e-12
1.03164e-12
9.38358e-13
8.82431e-13
9.16881e-13
1.34747e-12
2.03424e-12
2.71281e-12
3.29198e-12
1.22774e-12
1.13846e-12
1.05463e-12
9.73324e-13
9.12391e-13
9.06384e-13
1.0828e-12
1.74456e-12
2.64718e-12
3.19977e-12
1.2066e-12
1.13541e-12
1.06831e-12
1.00024e-12
9.4234e-13
9.14216e-13
8.53125e-13
1.49196e-12
2.58611e-12
3.11141e-12
1.18217e-12
1.12659e-12
1.07436e-12
1.01941e-12
9.6858e-13
9.31154e-13
6.54145e-13
1.27269e-12
2.52953e-12
3.02712e-12
1.15564e-12
1.11337e-12
1.07427e-12
1.03169e-12
9.8985e-13
9.51221e-13
4.82573e-13
1.08351e-12
3.13294e-10
3.62961e-12
1.12764e-12
1.09699e-12
1.06928e-12
1.03818e-12
1.00608e-12
9.70983e-13
3.37451e-13
9.22096e-13
2.31745e-08
1.06337e-08
2.7429e-11
1.05117e-12
1.05784e-12
1.03708e-12
1.01409e-12
9.848e-13
2.0896e-13
7.89676e-13
2.1504e-12
2.96163e-12
1.41636e-12
1.38873e-12
1.39067e-12
1.44753e-12
1.64922e-12
2.15232e-12
3.9856e-12
6.24335e-12
2.07302e-12
2.84605e-12
1.39127e-12
1.38356e-12
1.39821e-12
1.44669e-12
1.58707e-12
1.93635e-12
3.30345e-12
5.28012e-12
1.99222e-12
2.72067e-12
1.34397e-12
1.3528e-12
1.3803e-12
1.42968e-12
1.53613e-12
1.77815e-12
2.63201e-12
4.35379e-12
1.91786e-12
2.6025e-12
1.29331e-12
1.31482e-12
1.35346e-12
1.40805e-12
1.49941e-12
1.67454e-12
2.08086e-12
3.58531e-12
1.84984e-12
2.49171e-12
1.24167e-12
1.27302e-12
1.32092e-12
1.38196e-12
1.46898e-12
1.60581e-12
1.62994e-12
2.94702e-12