/*--------------------------------*- C++ -*----------------------------------*\
| =========                 |                                                 |
| \\      /  F ield         | OpenFOAM: The Open Source CFD Toolbox           |
|  \\    /   O peration     | Version:  4.1                                   |
|   \\  /    A nd           | Web:      www.OpenFOAM.org                      |
|    \\/     M anipulation  |                                                 |
\*---------------------------------------------------------------------------*/
FoamFile
{
    version     2.0;
    format      ascii;
    class       surfaceScalarField;
    location    "0.1";
    object      phi;
}
// * * * * * * * * * * * * * * * * * * * * * * * * * * * * * * * * * * * * * //

dimensions      [1 0 -1 0 0 0 0];

internalField   nonuniform List<scalar> 
51500
(
3.71404e-13
8.8759e-15
1.58286e-11
-2.2516e-15
1.63827e-14
1.56427e-11
-1.91473e-15
1.58632e-14
1.54595e-11
-1.9152e-15
1.51327e-14
1.52783e-11
-1.88373e-15
1.42956e-14
1.50997e-11
-1.86933e-15
1.33913e-14
1.49235e-11
-1.86657e-15
1.24361e-14
1.47498e-11
-1.83946e-15
1.14491e-14
1.45785e-11
-1.80625e-15
1.04276e-14
1.44096e-11
9.38017e-15
1.42443e-11
-7.69784e-17
3.78213e-13
5.99866e-15
1.99937e-11
-8.94735e-15
9.11383e-15
1.92575e-11
-7.31258e-15
7.82932e-15
1.85543e-11
-7.15859e-15
6.60593e-15
1.78809e-11
-6.96661e-15
5.46154e-15
1.72376e-11
-6.80387e-15
4.38667e-15
1.66221e-11
-6.63269e-15
3.37341e-15
1.60337e-11
-6.47258e-15
2.42106e-15
1.54705e-11
-6.18679e-15
1.52193e-15
1.49313e-11
6.77703e-16
1.44187e-11
-7.10152e-16
3.83686e-13
7.42056e-15
2.55929e-11
-1.76946e-14
8.61173e-15
2.3958e-11
-1.42697e-14
7.17528e-15
2.2449e-11
-1.36685e-14
5.88223e-15
2.10526e-11
-1.30595e-14
4.7149e-15
1.97614e-11
-1.25192e-14
3.65668e-15
1.8566e-11
-1.19983e-14
2.70077e-15
1.74587e-11
-1.15217e-14
1.83428e-15
1.64314e-11
-1.08144e-14
1.05548e-15
1.54777e-11
3.81492e-16
1.45962e-11
-1.38344e-15
3.86703e-13
9.33507e-15
3.32464e-11
-2.92075e-14
1.03194e-14
3.01499e-11
-2.34726e-14
8.34042e-15
2.73992e-11
-2.19118e-14
6.67863e-15
2.49451e-11
-2.04336e-14
5.24119e-15
2.27559e-11
-1.9133e-14
3.98721e-15
2.07981e-11
-1.79798e-14
2.89173e-15
1.90434e-11
-1.69459e-14
1.93124e-15
1.74675e-11
-1.56391e-14
1.09191e-15
1.60491e-11
3.86695e-16
1.47768e-11
-2.11094e-15
3.8513e-13
1.19615e-14
4.39009e-11
-4.44118e-14
1.26992e-14
3.84228e-11
-3.57613e-14
9.82233e-15
3.3757e-11
-3.2462e-14
7.63436e-15
2.97597e-11
-2.94381e-14
5.85195e-15
2.6328e-11
-2.68626e-14
4.35979e-15
2.33696e-11
-2.46785e-14
3.09836e-15
2.08091e-11
-2.28117e-14
2.03125e-15
1.85855e-11
-2.06844e-14
1.13122e-15
1.66471e-11
3.99354e-16
1.49608e-11
-2.86381e-15
3.75272e-13
1.56602e-14
5.90374e-11
-6.48784e-14
1.59627e-14
4.96501e-11
-5.21172e-14
1.17973e-14
4.20192e-11
-4.59115e-14
8.80495e-15
3.57645e-11
-4.05169e-14
6.56515e-15
3.06135e-11
-3.59518e-14
4.77712e-15
2.63428e-11
-3.22112e-14
3.32677e-15
2.2781e-11
-2.91381e-14
2.14004e-15
1.97933e-11
-2.5943e-14
1.17288e-15
1.72733e-11
4.04401e-16
1.51477e-11
-3.66829e-15
3.50007e-13
2.10065e-14
8.10376e-11
-1.158e-13
1.80992e-14
6.51525e-11
-7.37813e-14
1.33359e-14
5.28909e-11
-6.31345e-14
9.8164e-15
4.33214e-11
-5.40843e-14
7.26935e-15
3.57859e-11
-4.66959e-14
5.77794e-15
2.97942e-11
-4.07092e-14
6.1555e-15
2.49876e-11
-3.59904e-14
4.38505e-15
2.10994e-11
-3.14607e-14
2.34253e-15
1.79294e-11
7.36667e-16
1.5338e-11
-4.49966e-15
2.94052e-13
1.77801e-14
1.13851e-10
-1.74823e-13
1.69791e-14
8.69679e-11
-1.02939e-13
9.03641e-15
6.73955e-11
-8.51874e-14
3.39407e-15
5.29219e-11
-7.08392e-14
-6.94326e-16
4.20688e-11
-5.93928e-14
-3.70809e-15
3.38166e-11
-5.03757e-14
-5.9629e-15
2.74628e-11
-4.34094e-14
-7.67643e-15
2.25135e-11
-3.72074e-14
-8.99625e-15
1.86165e-11
-1.01713e-14
1.55318e-11
-5.37699e-15
7.87241e-13
-1.40422e-10
1.61948e-10
2.90274e-13
-1.43228e-10
1.16336e-10
2.69834e-13
-1.43026e-10
8.54761e-11
2.49724e-13
-1.42822e-10
6.40634e-11
2.30468e-13
-1.42626e-10
4.89153e-11
2.12538e-13
-1.42439e-10
3.80007e-11
1.96087e-13
-1.42262e-10
3.00082e-11
1.81097e-13
-1.42096e-10
2.40703e-11
1.66829e-13
-1.4194e-10
1.96009e-11
-1.42149e-10
1.62213e-11
-6.30507e-15
-9.57199e-12
2.5975e-08
-9.12283e-07
5.01439e-11
2.15826e-08
-9.39077e-07
4.8357e-11
1.85699e-08
-9.40638e-07
4.78993e-11
1.61448e-08
-9.41935e-07
4.69519e-11
1.41635e-08
-9.43034e-07
4.57508e-11
1.25243e-08
-9.43978e-07
4.44278e-11
1.11529e-08
-9.44796e-07
4.31466e-11
9.99415e-09
-9.45513e-07
4.03422e-11
9.00647e-09
-9.46149e-07
8.1755e-09
-7.25461e-15
-9.51857e-07
3.45037e-13
9.50969e-14
1.09602e-13
-2.15486e-14
8.9285e-14
1.07236e-13
-2.63559e-14
7.85696e-14
1.05084e-13
-2.60002e-14
6.8205e-14
1.02259e-13
-2.57346e-14
5.82022e-14
9.97543e-14
-2.5484e-14
4.85413e-14
9.75602e-14
-2.52929e-14
3.92155e-14
9.51138e-14
-2.50715e-14
3.02095e-14
9.32294e-14
-2.73576e-14
2.1502e-14
9.13152e-14
1.31367e-14
8.94007e-14
-1.55973e-15
2.82599e-13
9.12131e-14
1.54895e-13
-7.71034e-14
8.25145e-14
1.46384e-13
-9.05282e-14
6.98356e-14
1.39248e-13
-8.77589e-14
5.7805e-14
1.30644e-13
-8.52697e-14
4.63687e-14
1.2278e-13
-8.28159e-14
3.51254e-14
1.15493e-13
-8.05301e-14
2.26415e-14
1.08896e-13
-7.84705e-14
1.46634e-14
1.02919e-13
-8.36771e-14
8.07277e-15
9.75342e-14
2.65503e-15
9.19208e-14
-4.37085e-15
1.88366e-13
1.15505e-13
2.20563e-13
-1.95315e-13
1.02179e-13
2.01109e-13
-1.73388e-13
8.51273e-14
1.85552e-13
-1.647e-13
6.9654e-14
1.67601e-13
-1.56731e-13
5.57067e-14
1.51899e-13
-1.49221e-13
4.31401e-14
1.38062e-13
-1.42209e-13
3.18226e-14
1.25761e-13
-1.35867e-13
2.16527e-14
1.14799e-13
-1.42344e-13
1.25164e-14
1.05016e-13
4.34337e-15
9.53736e-14
-7.24355e-15
6.06193e-14
1.43057e-13
3.22555e-13
-3.36147e-13
1.22901e-13
2.83772e-13
-2.8067e-13
9.98935e-14
2.5191e-13
-2.60541e-13
7.98128e-14
2.18894e-13
-2.4252e-13
6.23686e-14
1.90913e-13
-2.26108e-13
4.72366e-14
1.67156e-13
-2.11032e-13
3.41176e-14
1.46928e-13
-1.9766e-13
2.27487e-14
1.29708e-13
-2.03183e-13
1.28895e-14
1.14506e-13
4.40151e-15
9.97729e-14
-1.02219e-14
-7.71621e-14
1.79455e-13
4.8461e-13
-5.17187e-13
1.4937e-13
4.09698e-13
-4.19574e-13
1.18145e-13
3.48219e-13
-3.80043e-13
9.19631e-14
2.8979e-13
-3.45488e-13
7.01072e-14
2.42919e-13
-3.14945e-13
5.18591e-14
2.04547e-13
-2.87727e-13
3.66249e-14
1.73309e-13
-2.64129e-13
2.39026e-14
1.47455e-13
-2.66286e-13
1.32858e-14
1.26083e-13
4.4474e-15
1.05103e-13
-1.32941e-14
-3.10503e-13
2.28332e-13
7.48837e-13
-7.56519e-13
1.83604e-13
6.03474e-13
-5.99917e-13
1.40906e-13
4.88603e-13
-5.2908e-13
1.06612e-13
3.88317e-13
-4.69077e-13
7.91272e-14
3.11896e-13
-4.17588e-13
5.7076e-14
2.5251e-13
-3.7317e-13
3.93758e-14
2.06124e-13
-3.35371e-13
2.51394e-14
1.69426e-13
-3.31849e-13
1.36984e-14
1.40001e-13
4.49554e-15
1.11776e-13
-1.64087e-14
-7.43499e-13
2.9463e-13
1.18876e-12
-1.07823e-12
2.28257e-13
9.09928e-13
-8.34591e-13
1.69454e-13
6.96172e-13
-7.1521e-13
1.24287e-13
5.26485e-13
-6.17395e-13
8.96257e-14
4.04171e-13
-5.36074e-13
6.29561e-14
3.13901e-13
-4.68193e-13
4.23686e-14
2.46513e-13
-4.11691e-13
2.6455e-14
1.9581e-13
-3.9994e-13
1.41102e-14
1.56265e-13
4.57968e-15
1.19729e-13
-1.95818e-14
-1.33789e-12
3.01538e-13
1.94812e-12
-1.51604e-12
2.50545e-13
1.4022e-12
-1.14084e-12
1.76844e-13
1.00735e-12
-9.47795e-13
1.24292e-13
7.22131e-13
-7.95216e-13
8.63788e-14
5.28158e-13
-6.72801e-13
5.87314e-14
3.92673e-13
-5.73611e-13
3.83937e-14
2.96608e-13
-4.93542e-13
2.33272e-14
2.26912e-13
-4.7049e-13
1.21057e-14
1.75572e-13
3.75904e-15
1.28774e-13
-2.28385e-14
-2.23368e-12
6.0333e-12
3.39223e-12
-2.11367e-12
2.50791e-12
2.11821e-12
-1.53535e-12
1.91437e-12
1.41478e-12
-1.23524e-12
1.41658e-12
9.54109e-13
-1.00677e-12
9.88644e-13
6.62745e-13
-8.29787e-13
6.15843e-13
4.7204e-13
-6.90946e-13
2.87466e-13
3.4431e-13
-5.81955e-13
-4.46777e-15
2.56947e-13
-5.45693e-13
-2.6604e-13
1.95362e-13
-4.96256e-13
1.40153e-13
-2.6172e-14
-1.23657e-10
9.23923e-10
2.31684e-08
-7.02514e-11
1.88435e-10
-3.99951e-10
-6.60382e-11
1.37046e-10
-3.88718e-10
-6.17773e-11
1.02976e-10
-3.72419e-10
-5.80506e-11
7.89922e-11
-3.57144e-10
-5.47586e-11
6.1736e-11
-3.43173e-10
-5.18262e-11
4.90815e-11
-3.30546e-10
-4.91958e-11
3.96509e-11
-3.1923e-10
-4.68104e-11
3.25179e-11
-3.09241e-10
2.67958e-11
-2.96547e-14
-2.65953e-10
3.49383e-13
8.13723e-14
1.00862e-14
-1.84365e-14
7.72868e-14
8.71841e-15
-2.03545e-14
6.82109e-14
7.5999e-15
-1.95261e-14
5.94236e-14
5.86813e-15
-1.88977e-14
5.09286e-14
4.40923e-15
-1.91359e-14
4.2707e-14
3.004e-15
-1.82984e-14
3.47787e-14
2.16439e-15
-1.86715e-14
2.71053e-14
1.44467e-15
-2.33103e-14
1.9687e-14
8.19638e-16
1.25558e-14
6.36021e-16
-1.47039e-15
2.98404e-13
5.82492e-14
1.67508e-14
-6.60333e-14
5.35481e-14
1.46646e-14
-6.77684e-14
4.53529e-14
1.45631e-14
-6.43962e-14
3.76216e-14
1.1364e-14
-6.23559e-14
3.04038e-14
8.77897e-15
-5.96679e-14
2.37066e-14
6.82191e-15
-5.77949e-14
1.75236e-14
5.09122e-15
-5.78474e-14
1.18733e-14
3.80625e-15
-7.11893e-14
6.78083e-15
3.12276e-15
2.35956e-15
2.04583e-15
-4.39861e-15
2.20876e-13
7.42572e-14
2.41053e-14
-1.65594e-13
6.70305e-14
2.24449e-14
-1.25676e-13
5.62809e-14
2.34283e-14
-1.16574e-13
4.64713e-14
1.91271e-14
-1.10577e-13
3.75456e-14
1.55132e-14
-1.04716e-13
2.94103e-14
1.24502e-14
-9.96078e-14
2.19643e-14
1.02776e-14
-9.79711e-14
1.52065e-14
8.58984e-15
-1.21023e-13
8.93954e-15
7.2663e-15
3.18665e-15
5.15802e-15
-7.29972e-15
9.89816e-14
9.21733e-14
3.9539e-14
-2.88607e-13
8.06608e-14
3.92341e-14
-1.96573e-13
6.60807e-14
4.05367e-14
-1.80654e-13
5.32769e-14
3.29705e-14
-1.67902e-13
4.20847e-14
2.71846e-14
-1.56353e-13
3.22534e-14
2.25923e-14
-1.45391e-13
2.36279e-14
1.91411e-14
-1.39271e-13
1.59798e-14
1.63386e-14
-1.7273e-13
9.27545e-15
1.43268e-14
3.26672e-15
9.78084e-15
-1.03316e-14
-1.73439e-14
1.15992e-13
6.86278e-14
-4.44394e-13
9.80744e-14
7.02374e-14
-2.88222e-13
7.81784e-14
6.88927e-14
-2.59429e-13
6.14164e-14
5.63189e-14
-2.35903e-13
4.73389e-14
4.62931e-14
-2.14771e-13
3.54817e-14
3.85572e-14
-1.96079e-13
2.54498e-14
3.24643e-14
-1.82313e-13
1.69421e-14
2.78979e-14
-2.26393e-13
9.71795e-15
2.42211e-14
3.37181e-15
1.62763e-14
-1.33771e-14
-1.51873e-13
1.48183e-13
1.21381e-13
-6.48123e-13
1.20762e-13
1.2534e-13
-4.06101e-13
9.3308e-14
1.02724e-13
-3.56704e-13
7.12554e-14
8.16115e-14
-3.16379e-13
5.34967e-14
6.55485e-14
-2.81548e-13
3.9103e-14
6.20626e-14
-2.51578e-13
2.74058e-14
4.79469e-14
-2.28145e-13
1.79082e-14
3.75401e-14
-2.8211e-13
1.00794e-14
3.43098e-14
3.45025e-15
2.4692e-14
-1.65321e-14
-5.59217e-13
1.92686e-13
2.15782e-13
-9.19478e-13
1.50564e-13
2.20676e-13
-5.58128e-13
1.12409e-13
1.76383e-13
-4.77143e-13
8.32114e-14
1.3561e-13
-4.12152e-13
6.07186e-14
1.06966e-13
-3.57899e-13
4.32659e-14
8.48528e-14
-3.12561e-13
2.96492e-14
6.83951e-14
-2.76907e-13
1.89115e-14
5.58981e-14
-3.39912e-13
1.04957e-14
4.61955e-14
3.55125e-15
3.08166e-14
-1.97605e-14
-1.08203e-12
2.99251e-13
3.86192e-13
-1.28417e-12
1.93354e-13
3.50647e-13
-7.55963e-13
1.41971e-13
2.77688e-13
-6.27022e-13
1.03486e-13
2.06891e-13
-5.2632e-13
7.66674e-14
1.57263e-13
-4.45365e-13
5.55283e-14
1.21433e-13
-3.79984e-13
3.7369e-14
9.52893e-14
-3.2858e-13
2.33925e-14
7.60024e-14
-3.99861e-13
1.27325e-14
6.14613e-14
4.5711e-15
3.98655e-14
-2.30729e-14
-1.87229e-12
3.36131e-12
9.31307e-13
-1.77508e-12
3.50183e-13
5.9365e-13
-1.0157e-12
2.36363e-13
4.37688e-13
-8.14429e-13
1.59951e-13
3.12738e-13
-6.6293e-13
1.07299e-13
2.28852e-13
-5.45856e-13
7.04684e-14
1.71167e-13
-4.5418e-13
4.43298e-14
1.30604e-13
-3.83678e-13
2.56513e-14
1.0147e-13
-4.62069e-13
1.22294e-14
8.01584e-14
2.57087e-15
5.0823e-14
-2.64502e-14
-4.85363e-11
8.28143e-10
2.29147e-08
-3.10781e-12
4.76951e-12
1.05841e-11
-2.73285e-12
1.30722e-12
4.68151e-12
-2.18297e-12
8.6929e-13
4.60396e-12
-1.75746e-12
6.00005e-13
4.30823e-12
-1.43412e-12
4.2762e-13
3.75091e-12
-1.1835e-12
3.16606e-13
2.30978e-12
-9.88535e-13
2.39457e-13
2.11628e-12
-8.87173e-13
1.83405e-13
2.05969e-12
1.19509e-13
-2.99997e-14
2.25548e-12
3.49286e-13
8.12488e-14
1.18878e-14
-1.85971e-14
7.71792e-14
1.10253e-14
-2.03894e-14
6.81212e-14
9.4553e-15
-1.94534e-14
5.9344e-14
8.19679e-15
-1.91238e-14
5.08625e-14
4.80138e-15
-1.88846e-14
4.26662e-14
4.09033e-15
-1.81801e-14
3.47466e-14
2.0924e-15
-1.87443e-14
2.70869e-14
9.87905e-16
-2.32423e-14
1.96939e-14
5.13283e-16
1.25735e-14
1.24509e-16
-1.54694e-15
2.98431e-13
5.81033e-14
2.09107e-14
-6.60874e-14
5.34276e-14
1.85149e-14
-6.75561e-14
4.52493e-14
1.84552e-14
-6.38926e-14
3.75547e-14
1.41079e-14
-6.15121e-14
3.03612e-14
1.04791e-14
-5.92866e-14
2.36746e-14
7.73344e-15
-5.72644e-14
1.75164e-14
5.90284e-15
-5.7185e-14
1.18839e-14
4.87511e-15
-7.10646e-14
6.79762e-15
3.16308e-15
2.38874e-15
1.99051e-15
-4.38235e-15
2.21109e-13
7.40242e-14
2.9915e-14
-1.65557e-13
6.68363e-14
2.87536e-14
-1.23926e-13
5.61234e-14
3.05856e-14
-1.15525e-13
4.63012e-14
2.29627e-14
-1.09813e-13
3.73943e-14
1.86427e-14
-1.03791e-13
2.9293e-14
1.54569e-14
-9.87762e-14
2.18768e-14
1.19538e-14
-9.72089e-14
1.51126e-14
1.09102e-14
-1.20751e-13
8.93648e-15
8.79285e-15
3.19135e-15
6.86196e-15
-7.29234e-15
9.93761e-14
9.19143e-14
4.89476e-14
-2.88364e-13
8.04504e-14
4.85714e-14
-1.95301e-13
6.58942e-14
5.1229e-14
-1.79358e-13
5.31416e-14
4.21793e-14
-1.66868e-13
4.19707e-14
3.45655e-14
-1.55244e-13
3.21695e-14
3.06846e-14
-1.44604e-13
2.35453e-14
2.39357e-14
-1.37975e-13
1.59548e-14
2.02582e-14
-1.72449e-13
9.27055e-15
1.74434e-14
3.31919e-15
1.17958e-14
-1.03448e-14
-1.66875e-14
1.15697e-13
8.56758e-14
-4.43985e-13
9.78644e-14
8.89409e-14
-2.86508e-13
7.80127e-14
8.80199e-14
-2.58124e-13
6.12926e-14
7.13322e-14
-2.34625e-13
4.72528e-14
5.87537e-14
-2.13763e-13
3.5412e-14
4.84154e-14
-1.95021e-13
2.54066e-14
4.22338e-14
-1.81236e-13
1.69228e-14
3.56986e-14
-2.26131e-13
9.70921e-15
3.07509e-14
3.49059e-15
2.18782e-14
-1.33773e-14
-1.50985e-13
1.4784e-13
1.5066e-13
-6.47519e-13
1.20549e-13
1.56949e-13
-4.04137e-13
9.31567e-14
1.47933e-13
-3.55233e-13
7.1161e-14
1.18494e-13
-3.15094e-13
5.34325e-14
9.62939e-14
-2.80462e-13
3.90663e-14
7.9849e-14
-2.50525e-13
2.74015e-14
6.69118e-14
-2.27257e-13
1.78768e-14
5.54436e-14
-2.81898e-13
1.00863e-14
4.73139e-14
3.52788e-15
3.10652e-14
-1.65991e-14
-5.57262e-13
1.92297e-13
2.68149e-13
-9.18621e-13
1.50366e-13
2.79e-13
-5.56003e-13
1.12316e-13
2.43294e-13
-4.75616e-13
8.31562e-14
1.91907e-13
-4.10878e-13
6.07043e-14
1.52069e-13
-3.56818e-13
4.32753e-14
1.23969e-13
-3.11727e-13
2.96414e-14
1.00636e-13
-2.76083e-13
1.89433e-14
8.42932e-14
-3.39908e-13
1.06169e-14
7.13633e-14
3.64922e-15
4.59138e-14
-1.98053e-14
-1.07954e-12
2.99418e-13
4.78182e-13
-1.28285e-12
1.89538e-13
4.83699e-13
-7.5394e-13
1.37664e-13
3.96082e-13
-6.25498e-13
9.89316e-14
3.02647e-13
-5.25183e-13
7.07451e-14
2.34397e-13
-4.44562e-13
5.10666e-14
1.84188e-13
-3.79321e-13
3.57719e-14
1.46705e-13
-3.27952e-13
2.25007e-14
1.19291e-13
-4.00235e-13
1.22809e-14
9.65624e-14
4.49869e-15
6.40341e-14
-2.30874e-14
-1.86961e-12
3.31487e-12
1.30185e-12
-1.7732e-12
2.86949e-13
8.37582e-13
-1.0139e-12
2.44277e-13
6.4367e-13
-8.13402e-13
1.62269e-13
4.69352e-13
-6.62305e-13
1.05861e-13
3.50034e-13
-5.45487e-13
6.57508e-14
2.67224e-13
-4.54014e-13
3.07177e-14
2.06579e-13
-3.83522e-13
1.65429e-14
1.62604e-13
-4.62771e-13
8.29753e-15
1.29485e-13
2.91403e-15
7.98205e-14
-2.65354e-14
-4.8147e-11
1.28166e-09
2.35048e-08
-2.13225e-12
4.54721e-12
6.48659e-12
-1.35352e-12
8.80143e-13
2.39055e-13
-1.05305e-12
6.11931e-13
1.75776e-13
-8.29219e-13
4.38481e-13
1.30691e-13
-6.63271e-13
3.21626e-13
9.1383e-14
-5.37919e-13
2.40728e-13
5.81677e-14
-4.43552e-13
1.83666e-13
4.46418e-14
-5.28217e-13
1.42549e-13
3.57247e-14
8.65163e-14
-3.00667e-14
2.97518e-14
3.49101e-13
8.13796e-14
1.81169e-14
-1.88795e-14
7.72875e-14
1.47004e-14
-2.05061e-14
6.82129e-14
1.25346e-14
-1.98637e-14
5.94156e-14
8.63006e-15
-1.90357e-14
5.09226e-14
7.69489e-15
-1.90849e-14
4.27158e-14
4.73913e-15
-1.84223e-14
3.47936e-14
3.7945e-15
-1.87375e-14
2.71365e-14
2.44379e-15
-2.32725e-14
1.97349e-14
1.1304e-15
1.26128e-14
2.61875e-16
-1.58294e-15
2.981e-13
5.8246e-14
2.84296e-14
-6.64299e-14
5.3558e-14
2.43631e-14
-6.78535e-14
4.53586e-14
2.34745e-14
-6.42523e-14
3.76409e-14
1.89079e-14
-6.15589e-14
3.04425e-14
1.32891e-14
-5.94583e-14
2.37483e-14
1.1052e-14
-5.7173e-14
1.75773e-14
8.25053e-15
-5.74909e-14
1.19409e-14
6.58031e-15
-7.1116e-14
6.85091e-15
4.82921e-15
2.4365e-15
2.46125e-15
-4.38169e-15
2.20582e-13
7.42564e-14
4.0206e-14
-1.66275e-13
6.70352e-14
3.71413e-14
-1.24633e-13
5.62951e-14
3.88639e-14
-1.15704e-13
4.64641e-14
3.22784e-14
-1.09927e-13
3.75288e-14
2.4497e-14
-1.04236e-13
2.94199e-14
1.9822e-14
-9.86703e-14
2.19954e-14
1.80923e-14
-9.76665e-14
1.51845e-14
1.29896e-14
-1.2082e-13
8.99096e-15
1.30045e-14
3.21178e-15
7.45676e-15
-7.36954e-15
9.87833e-14
9.22989e-14
6.68849e-14
-2.89359e-13
8.0795e-14
6.76499e-14
-1.95923e-13
6.6173e-14
6.5895e-14
-1.79867e-13
5.33702e-14
5.4576e-14
-1.67145e-13
4.21667e-14
4.53154e-14
-1.55641e-13
3.23139e-14
3.60764e-14
-1.4488e-13
2.36967e-14
3.26182e-14
-1.38189e-13
1.61154e-14
2.77868e-14
-1.72659e-13
9.44077e-15
2.52797e-14
3.51457e-15
1.79434e-14
-1.02984e-14
-1.77415e-14
1.16304e-13
1.12701e-13
-4.45597e-13
9.83719e-14
1.16125e-13
-2.87477e-13
7.84405e-14
1.13084e-13
-2.58869e-13
6.16456e-14
9.43413e-14
-2.35359e-13
4.75476e-14
7.91152e-14
-2.14172e-13
3.56832e-14
6.58477e-14
-1.95513e-13
2.56146e-14
5.46207e-14
-1.81602e-13
1.70757e-14
4.64825e-14
-2.26527e-13
9.79618e-15
4.18733e-14
3.56737e-15
2.65073e-14
-1.33988e-14
-1.52695e-13
1.48799e-13
2.03496e-13
-6.50135e-13
1.21354e-13
2.08963e-13
-4.05774e-13
9.3789e-14
1.92665e-13
-3.56545e-13
7.16776e-14
1.55258e-13
-3.16117e-13
5.38528e-14
1.27164e-13
-2.81392e-13
3.94112e-14
1.06592e-13
-2.51287e-13
2.76863e-14
8.62043e-14
-2.27903e-13
1.81419e-14
7.50297e-14
-2.82626e-13
1.03744e-14
6.26655e-14
3.74398e-15
4.28939e-14
-1.65766e-14
-5.62072e-13
1.93807e-13
3.58783e-13
-9.23098e-13
1.51558e-13
3.64936e-13
-5.58616e-13
1.1324e-13
3.22719e-13
-4.77818e-13
8.38851e-14
2.50046e-13
-4.12602e-13
6.12894e-14
2.03145e-13
-3.58359e-13
4.3734e-14
1.60306e-13
-3.12904e-13
3.00205e-14
1.30805e-13
-2.77092e-13
1.9245e-14
1.07258e-13
-3.41139e-13
1.08104e-14
8.96067e-14
3.91153e-15
5.94585e-14
-1.98225e-14
-1.08859e-12
3.02243e-13
6.37153e-13
-1.29031e-12
1.91305e-13
6.39225e-13
-7.58308e-13
1.38986e-13
5.24565e-13
-6.29032e-13
9.99124e-14
3.97903e-13
-5.28047e-13
7.14703e-14
3.06614e-13
-4.46911e-13
5.14906e-14
2.39397e-13
-3.81201e-13
3.6277e-14
1.91547e-13
-3.29629e-13
2.29232e-14
1.53707e-13
-4.02056e-13
1.26341e-14
1.25746e-13
4.77924e-15
8.04871e-14
-2.31735e-14
-1.88642e-12
3.31235e-12
1.71323e-12
-1.78549e-12
2.89695e-13
1.10961e-12
-1.02117e-12
2.45214e-13
8.47046e-13
-8.19036e-13
1.62702e-13
6.18586e-13
-6.66732e-13
1.05808e-13
4.62181e-13
-5.4909e-13
6.4815e-14
3.49319e-13
-4.569e-13
3.04617e-14
2.69528e-13
-3.85914e-13
1.68774e-14
2.1296e-13
-4.65532e-13
8.67836e-15
1.69107e-13
3.22877e-15
1.06364e-13
-2.6592e-14
-4.815e-11
1.62143e-09
2.35475e-08
-2.14433e-12
6.53203e-12
6.45617e-12
-1.36035e-12
1.34365e-12
1.16746e-13
-1.05842e-12
9.35314e-13
8.30685e-14
-8.33487e-13
6.7042e-13
6.31059e-14
-6.6665e-13
4.91392e-13
4.90113e-14
-5.40638e-13
3.6865e-13
3.8749e-14
-4.45759e-13
2.81563e-13
3.11204e-14
-5.3116e-13
2.15822e-13
2.53508e-14
1.33248e-13
-3.01718e-14
2.09868e-14
3.48778e-13
8.15402e-14
1.97192e-14
-1.92221e-14
7.74285e-14
1.66492e-14
-2.09313e-14
6.83245e-14
1.60386e-14
-1.98686e-14
5.95149e-14
1.25607e-14
-1.94737e-14
5.09957e-14
7.78082e-15
-1.91007e-14
4.2783e-14
5.45023e-15
-1.8506e-14
3.485e-14
3.03379e-15
-1.89167e-14
2.71902e-14
1.81764e-15
-2.33288e-14
1.97873e-14
1.02852e-15
1.26618e-14
6.89224e-16
-1.54564e-15
2.97648e-13
5.84303e-14
3.39872e-14
-6.68907e-14
5.37205e-14
3.11604e-14
-6.80457e-14
4.55016e-14
2.91425e-14
-6.4886e-14
3.77583e-14
2.29844e-14
-6.14522e-14
3.05472e-14
1.91574e-14
-5.97894e-14
2.38397e-14
1.26574e-14
-5.71395e-14
1.76622e-14
8.86631e-15
-5.76409e-14
1.20126e-14
6.41705e-15
-7.12067e-14
6.92145e-15
5.88202e-15
2.49568e-15
4.38318e-15
-4.39644e-15
2.19864e-13
7.45666e-14
4.78356e-14
-1.67198e-13
6.73104e-14
4.49772e-14
-1.25044e-13
5.65125e-14
4.73502e-14
-1.16257e-13
4.66536e-14
3.7629e-14
-1.10165e-13
3.76989e-14
3.12758e-14
-1.04336e-13
2.9548e-14
2.52214e-14
-9.91365e-14
2.21255e-14
1.87989e-14
-9.71714e-14
1.53402e-14
1.8365e-14
-1.21e-13
9.09454e-15
1.36844e-14
3.38988e-15
1.03386e-14
-7.36087e-15
9.80004e-14
9.27818e-14
7.9454e-14
-2.90706e-13
8.12179e-14
7.8697e-14
-1.96531e-13
6.65329e-14
8.29063e-14
-1.80443e-13
5.36768e-14
6.75537e-14
-1.67839e-13
4.2433e-14
5.51747e-14
-1.55823e-13
3.25606e-14
4.58073e-14
-1.45264e-13
2.38893e-14
3.85798e-14
-1.38427e-13
1.62651e-14
3.39801e-14
-1.72923e-13
9.59597e-15
2.84123e-14
3.57062e-15
1.83887e-14
-1.0339e-14
-1.91313e-14
1.17104e-13
1.39123e-13
-4.47673e-13
9.90488e-14
1.44119e-13
-2.88634e-13
7.89919e-14
1.43789e-13
-2.59852e-13
6.20985e-14
1.14877e-13
-2.36207e-13
4.79139e-14
9.35257e-14
-2.14884e-13
3.60035e-14
7.88487e-14
-1.96088e-13
2.5884e-14
6.53663e-14
-1.81961e-13
1.73306e-14
5.69406e-14
-2.27096e-13
9.99235e-15
4.83232e-14
3.81397e-15
3.32494e-14
-1.34122e-14
-1.54946e-13
1.5004e-13
2.41772e-13
-6.53557e-13
1.22373e-13
2.57789e-13
-4.07832e-13
9.4617e-14
2.3702e-13
-3.58242e-13
7.23361e-14
1.89904e-13
-3.17434e-13
5.44131e-14
1.53854e-13
-2.82655e-13
3.98477e-14
1.23775e-13
-2.52178e-13
2.8056e-14
1.05457e-13
-2.28764e-13
1.84223e-14
8.88501e-14
-2.83571e-13
1.06236e-14
7.7873e-14
3.94774e-15
5.03378e-14
-1.6597e-14
-5.68454e-13
1.9576e-13
4.33148e-13
-9.28773e-13
1.53114e-13
4.51521e-13
-5.62202e-13
1.14434e-13
3.87405e-13
-4.80483e-13
8.48365e-14
3.05305e-13
-4.14997e-13
6.20223e-14
2.40084e-13
-3.60243e-13
4.43358e-14
1.9454e-13
-3.14503e-13
3.05157e-14
1.59471e-13
-2.78407e-13
1.96485e-14
1.35321e-13
-3.42679e-13
1.11349e-14
1.12655e-13
4.2173e-15
7.10198e-14
-1.9858e-14
-1.10037e-12
3.05921e-13
7.76059e-13
-1.29993e-12
1.93661e-13
7.79878e-13
-7.64031e-13
1.40735e-13
6.33591e-13
-6.3362e-13
1.01229e-13
4.81106e-13
-5.31745e-13
7.24858e-14
3.7031e-13
-4.499e-13
5.21427e-14
2.90701e-13
-3.83702e-13
3.69436e-14
2.30159e-13
-3.31717e-13
2.34938e-14
1.86243e-13
-4.04426e-13
1.31024e-14
1.54996e-13
5.16168e-15
9.76879e-14
-2.32086e-14
-1.90842e-12
3.32853e-12
2.07707e-12
-1.80147e-12
2.93827e-13
1.34791e-12
-1.03059e-12
2.4909e-13
1.0285e-12
-8.26328e-13
1.65513e-13
7.48871e-13
-6.72523e-13
1.07904e-13
5.54134e-13
-5.53737e-13
6.65606e-14
4.20693e-13
-4.60595e-13
3.13877e-14
3.23969e-13
-3.8903e-13
1.7427e-14
2.54696e-13
-4.69051e-13
9.04323e-15
2.04805e-13
3.62115e-15
1.28756e-13
-2.66781e-14
-4.82713e-11
1.96641e-09
2.35826e-08
-2.16802e-12
7.98179e-12
6.4383e-12
-1.37549e-12
1.64731e-12
1.15727e-13
-1.06985e-12
1.14308e-12
8.30012e-14
-8.42267e-13
8.16815e-13
6.33193e-14
-6.73488e-13
5.99084e-13
4.93488e-14
-5.46061e-13
4.46488e-13
3.91506e-14
-4.50228e-13
3.3897e-13
3.15678e-14
-5.36094e-13
2.68015e-13
2.58486e-14
1.62615e-13
-3.03082e-14
2.15424e-14
3.48393e-13
8.17415e-14
2.52072e-14
-1.96122e-14
7.76065e-14
2.40406e-14
-2.12954e-14
6.8463e-14
2.04461e-14
-2.02769e-14
5.96277e-14
1.55382e-14
-1.96455e-14
5.11009e-14
1.10396e-14
-1.9455e-14
4.28668e-14
5.93794e-15
-1.84031e-14
3.49255e-14
3.66211e-15
-1.90149e-14
2.72558e-14
2.00708e-15
-2.33834e-14
1.98511e-14
1.5192e-15
1.2728e-14
6.90482e-16
-1.56624e-15
2.97109e-13
5.86538e-14
4.29817e-14
-6.74453e-14
5.39151e-14
4.00829e-14
-6.85116e-14
4.56684e-14
3.89781e-14
-6.47926e-14
3.79013e-14
3.0012e-14
-6.23545e-14
3.06659e-14
2.19234e-14
-5.97937e-14
2.39538e-14
1.42201e-14
-5.74133e-14
1.77607e-14
1.02285e-14
-5.76563e-14
1.21113e-14
7.02589e-15
-7.12608e-14
7.00424e-15
5.3809e-15
2.56549e-15
4.35341e-15
-4.41097e-15
2.18981e-13
7.49384e-14
6.3044e-14
-1.68331e-13
6.76361e-14
6.21069e-14
-1.25656e-13
5.67893e-14
6.27763e-14
-1.16678e-13
4.68929e-14
5.02922e-14
-1.10477e-13
3.79051e-14
3.98274e-14
-1.04992e-13
2.97145e-14
3.01887e-14
-9.89067e-14
2.23023e-14
2.19855e-14
-9.7867e-14
1.54691e-14
1.69461e-14
-1.21151e-13
9.24498e-15
1.39528e-14
3.48374e-15
1.03172e-14
-7.38754e-15
9.70323e-14
9.33923e-14
1.02158e-13
-2.9229e-13
8.17464e-14
1.06971e-13
-1.97451e-13
6.6978e-14
1.07477e-13
-1.81207e-13
5.40439e-14
8.70206e-14
-1.68452e-13
4.27456e-14
7.06722e-14
-1.56352e-13
3.28538e-14
5.84975e-14
-1.4552e-13
2.41175e-14
4.31328e-14
-1.38789e-13
1.64738e-14
3.50513e-14
-1.73298e-13
9.74809e-15
2.90362e-14
3.81983e-15
1.87211e-14
-1.03223e-14
-2.08641e-14
1.1806e-13
1.78794e-13
-4.50174e-13
9.98717e-14
1.90124e-13
-2.90218e-13
7.96593e-14
1.8276e-13
-2.61091e-13
6.26578e-14
1.48008e-13
-2.37112e-13
4.83907e-14
1.21204e-13
-2.15847e-13
3.63707e-14
9.98072e-14
-1.96675e-13
2.62299e-14
8.07519e-14
-1.82645e-13
1.76019e-14
6.27389e-14
-2.27729e-13
1.02936e-14
5.17068e-14
4.02411e-15
3.2346e-14
-1.34491e-14
-1.57677e-13
1.5157e-13
3.20328e-13
-6.57742e-13
1.23626e-13
3.36239e-13
-4.10323e-13
9.56168e-14
3.07428e-13
-3.60258e-13
7.31482e-14
2.46059e-13
-3.19259e-13
5.50656e-14
1.9921e-13
-2.83935e-13
4.04144e-14
1.62971e-13
-2.53485e-13
2.85121e-14
1.32292e-13
-2.29602e-13
1.88347e-14
1.00163e-13
-2.84748e-13
1.09085e-14
8.27135e-14
4.21698e-15
5.11594e-14
-1.6615e-14
-5.76221e-13
1.98166e-13
5.69265e-13
-9.35811e-13
1.55016e-13
5.91875e-13
-5.66355e-13
1.1591e-13
5.12081e-13
-4.83965e-13
8.59886e-14
3.99309e-13
-4.17768e-13
6.29428e-14
3.15499e-13
-3.62568e-13
4.50697e-14
2.51323e-13
-3.16457e-13
3.11046e-14
2.01391e-13
-2.80005e-13
2.01022e-14
1.50749e-13
-3.44598e-13
1.15247e-14
1.22046e-13
4.57823e-15
7.59375e-14
-1.9891e-14
-1.11487e-12
3.10444e-13
1.01761e-12
-1.31172e-12
1.96528e-13
1.03834e-12
-7.71048e-13
1.42881e-13
8.41123e-13
-6.39244e-13
1.02851e-13
6.32529e-13
-5.36231e-13
7.37043e-14
4.84224e-13
-4.53601e-13
5.29186e-14
3.75606e-13
-3.86771e-13
3.77574e-14
2.95006e-13
-3.34194e-13
2.41917e-14
2.2836e-13
-4.07357e-13
1.36616e-14
1.71365e-13
5.63234e-15
1.05691e-13
-2.32967e-14
-1.93552e-12
3.3623e-12
2.67634e-12
-1.82103e-12
2.98985e-13
1.81023e-12
-1.04216e-12
2.53906e-13
1.36939e-12
-8.35342e-13
1.68992e-13
9.88884e-13
-6.79591e-13
1.10504e-13
7.3019e-13
-5.594e-13
6.87011e-14
5.47282e-13
-4.65156e-13
3.2564e-14
4.18212e-13
-3.92823e-13
1.81088e-14
3.19979e-13
-4.73335e-13
9.49792e-15
2.33722e-13
4.10041e-15
1.41651e-13
-2.68069e-14
-4.87176e-11
2.64113e-09
2.37734e-08
-2.19787e-12
1.01776e-11
6.58356e-12
-1.39414e-12
2.20402e-12
1.15516e-13
-1.08396e-12
1.51911e-12
8.34131e-14
-8.53062e-13
1.07788e-12
6.38327e-14
-6.81947e-13
7.80974e-13
4.99001e-14
-5.52779e-13
5.78078e-13
3.97223e-14
-4.55571e-13
4.34023e-13
3.216e-14
-5.42218e-13
3.09635e-13
2.64661e-14
1.83485e-13
-3.0411e-14
2.22426e-14
3.47941e-13
8.19736e-14
3.73881e-14
-2.01171e-14
7.779e-14
2.18798e-14
-2.16946e-14
6.86223e-14
1.94508e-14
-2.05145e-14
5.97577e-14
1.47413e-14
-2.02085e-14
5.12096e-14
9.00054e-15
-1.92449e-14
4.29666e-14
8.88622e-15
-1.90726e-14
3.50184e-14
7.26383e-15
-1.89357e-14
2.73476e-14
8.51372e-15
-2.35476e-14
1.9937e-14
2.30099e-14
1.28198e-14
7.59701e-14
-1.53068e-15
2.96427e-13
5.89224e-14
5.87529e-14
-6.80461e-14
5.41466e-14
3.70418e-14
-6.91253e-14
4.58547e-14
3.71078e-14
-6.5169e-14
3.80683e-14
2.91388e-14
-6.28173e-14
3.08127e-14
2.7126e-14
-5.97291e-14
2.40859e-14
1.84658e-14
-5.76295e-14
1.78804e-14
1.51473e-14
-5.80514e-14
1.22185e-14
1.44652e-14
-7.1503e-14
7.11447e-15
2.14648e-14
2.65751e-15
5.43651e-14
-4.35372e-15
2.17935e-13
7.53662e-14
8.44731e-14
-1.69644e-13
6.79968e-14
5.73551e-14
-1.26105e-13
5.71046e-14
6.07309e-14
-1.1729e-13
4.71561e-14
4.93235e-14
-1.10971e-13
3.81349e-14
4.01785e-14
-1.05192e-13
2.99395e-14
2.68748e-14
-9.94297e-14
2.24725e-14
2.92811e-14
-9.74542e-14
1.56491e-14
2.6646e-14
-1.21564e-13
9.36974e-15
2.89508e-14
3.65679e-15
4.58328e-14
-7.31164e-15
9.58959e-14
9.4104e-14
1.43065e-13
-2.94094e-13
8.23435e-14
1.01957e-13
-1.98504e-13
6.7474e-14
1.05692e-13
-1.82111e-13
5.44664e-14
8.71681e-14
-1.6894e-13
4.31152e-14
7.26427e-14
-1.57159e-13
3.31559e-14
8.20806e-14
-1.45922e-13
2.44147e-14
5.35128e-14
-1.39149e-13
1.67421e-14
4.77925e-14
-1.73859e-13
9.97367e-15
4.60685e-14
4.033e-15
4.95075e-14
-1.0319e-14
-2.29044e-14
1.19201e-13
2.53556e-13
-4.53003e-13
1.00798e-13
1.85428e-13
-2.91928e-13
8.04255e-14
1.82816e-13
-2.62438e-13
6.33047e-14
1.50336e-13
-2.38267e-13
4.89376e-14
1.27373e-13
-2.16831e-13
3.68536e-14
1.36618e-13
-1.97497e-13
2.66352e-14
7.24359e-14
-1.83421e-13
1.79334e-14
7.94244e-14
-2.2863e-13
1.06163e-14
7.22218e-14
4.26296e-15
6.19706e-14
-1.34404e-14
-1.61015e-13
1.53356e-13
4.53393e-13
-6.62375e-13
1.25051e-13
3.35048e-13
-4.13149e-13
9.67769e-14
3.10736e-13
-3.62591e-13
7.4097e-14
2.51031e-13
-3.21146e-13
5.58449e-14
2.33818e-13
-2.85593e-13
4.10524e-14
2.20485e-13
-2.55032e-13
2.90425e-14
1.77089e-13
-2.30687e-13
1.92452e-14
1.12075e-13
-2.8625e-13
1.12597e-14
1.07918e-13
4.61731e-15
8.20492e-14
-1.66488e-14
-5.85494e-13
2.00979e-13
8.10023e-13
-9.43534e-13
1.572e-13
5.9522e-13
-5.71165e-13
1.17609e-13
5.74432e-13
-4.87859e-13
8.73202e-14
4.69246e-13
-4.20974e-13
6.4006e-14
3.96908e-13
-3.65222e-13
4.59327e-14
3.43314e-13
-3.18952e-13
3.18122e-14
2.85883e-13
-2.81873e-13
2.07301e-14
1.46683e-13
-3.46889e-13
1.19619e-14
1.54484e-13
4.94186e-15
1.08925e-13
-1.99396e-14
-1.13169e-12
3.15722e-13
1.44728e-12
-1.32479e-12
1.99838e-13
1.23166e-12
-7.7909e-13
1.45345e-13
1.04142e-12
-6.45578e-13
1.04731e-13
8.0358e-13
-5.41411e-13
7.51499e-14
6.38152e-13
-4.57816e-13
5.38983e-14
5.18586e-13
-3.90387e-13
3.8719e-14
4.19365e-13
-3.37383e-13
2.50008e-14
2.14586e-13
-4.10855e-13
1.43381e-14
1.84636e-13
6.18352e-15
1.42867e-13
-2.3375e-14
-1.96647e-12
3.22627e-12
3.57427e-12
-1.8429e-12
3.04497e-13
2.31254e-12
-1.05527e-12
2.59581e-13
1.7851e-12
-8.45495e-13
1.73038e-13
1.30918e-12
-6.87774e-13
1.13537e-13
9.87198e-13
-5.65853e-13
7.11735e-14
7.62787e-13
-4.70539e-13
3.40069e-14
5.94218e-13
-3.97456e-13
1.89354e-14
4.26456e-13
-4.78494e-13
1.00434e-14
2.3186e-13
4.67399e-15
1.83833e-13
-2.69114e-14
-4.88347e-11
2.3559e-09
2.44733e-08
-2.22764e-12
1.10851e-11
5.55893e-12
-1.41534e-12
2.94254e-12
1.13459e-13
-1.09997e-12
2.05342e-12
8.38995e-14
-8.65489e-13