/*--------------------------------*- C++ -*----------------------------------*\
| =========                 |                                                 |
| \\      /  F ield         | OpenFOAM: The Open Source CFD Toolbox           |
|  \\    /   O peration     | Version:  4.1                                   |
|   \\  /    A nd           | Web:      www.OpenFOAM.org                      |
|    \\/     M anipulation  |                                                 |
\*---------------------------------------------------------------------------*/
FoamFile
{
    version     2.0;
    format      ascii;
    class       volVectorField;
    location    "0.1";
    object      U;
}
// * * * * * * * * * * * * * * * * * * * * * * * * * * * * * * * * * * * * * //

dimensions      [0 1 -1 0 0 0 0];

internalField   nonuniform List<vector> 
18000
(
(7.44535e-14 3.94193e-13 -6.64059e-12)
(8.1489e-14 3.92084e-13 -6.56247e-12)
(7.39426e-14 -1.00114e-14 -6.48538e-12)
(6.65713e-14 -1.04478e-14 -6.40938e-12)
(5.93799e-14 -1.03175e-14 -6.33444e-12)
(5.23708e-14 -1.01841e-14 -6.26051e-12)
(4.55303e-14 -1.01087e-14 -6.18765e-12)
(3.88771e-14 -1.00081e-14 -6.11581e-12)
(3.23809e-14 -9.9005e-15 -6.04497e-12)
(2.60544e-14 -8.37005e-15 -5.97564e-12)
(9.42183e-14 4.0976e-13 -8.38759e-12)
(1.13028e-13 4.01251e-13 -8.07861e-12)
(9.99672e-14 -3.78944e-14 -7.78298e-12)
(8.76557e-14 -3.72308e-14 -7.50058e-12)
(7.61012e-14 -3.60087e-14 -7.23078e-12)
(6.52476e-14 -3.48349e-14 -6.97269e-12)
(5.50326e-14 -3.37306e-14 -6.72594e-12)
(4.54515e-14 -3.26497e-14 -6.48973e-12)
(3.64289e-14 -3.16277e-14 -6.2636e-12)
(2.79669e-14 -2.60255e-14 -6.04868e-12)
(9.30304e-14 4.20143e-13 -1.07363e-11)
(1.11434e-13 4.04269e-13 -1.00501e-11)
(9.29941e-14 -7.66126e-14 -9.41599e-12)
(7.63756e-14 -7.28808e-14 -8.83038e-12)
(6.14264e-14 -6.87656e-14 -8.2889e-12)
(4.79493e-14 -6.50024e-14 -7.78759e-12)
(3.5809e-14 -6.15166e-14 -7.32323e-12)
(2.48621e-14 -5.82419e-14 -6.89242e-12)
(1.49902e-14 -5.51859e-14 -6.49246e-12)
(6.10041e-15 -4.43511e-14 -6.12293e-12)
(1.21858e-13 4.20794e-13 -1.39461e-11)
(1.38118e-13 3.97103e-13 -1.26465e-11)
(1.11964e-13 -1.30175e-13 -1.1491e-11)
(8.94371e-14 -1.20037e-13 -1.04619e-11)
(7.00378e-14 -1.10364e-13 -9.54395e-12)
(5.32917e-14 -1.01689e-13 -8.723e-12)
(3.88536e-14 -9.3873e-14 -7.98717e-12)
(2.63595e-14 -8.68102e-14 -7.32634e-12)
(1.55521e-14 -8.03961e-14 -6.73155e-12)
(6.20982e-15 -6.32952e-14 -6.19833e-12)
(1.62685e-13 4.03591e-13 -1.84136e-11)
(1.73642e-13 3.73027e-13 -1.61146e-11)
(1.36225e-13 -2.04638e-13 -1.41554e-11)
(1.05523e-13 -1.82743e-13 -1.24794e-11)
(8.02742e-14 -1.63204e-13 -1.10406e-11)
(5.94606e-14 -1.4629e-13 -9.80026e-12)
(4.22434e-14 -1.31593e-13 -8.72672e-12)
(2.79754e-14 -1.18793e-13 -7.79438e-12)
(1.61341e-14 -1.07505e-13 -6.9816e-12)
(6.31674e-15 -8.28689e-14 -6.27507e-12)
(2.21923e-13 3.54619e-13 -2.47595e-11)
(2.21828e-13 3.20839e-13 -2.08201e-11)
(1.67708e-13 -3.0907e-13 -1.7617e-11)
(1.2552e-13 -2.66414e-13 -1.49951e-11)
(9.25234e-14 -2.3051e-13 -1.28357e-11)
(6.65538e-14 -2.00655e-13 -1.10455e-11)
(4.60181e-14 -1.75661e-13 -9.55227e-12)
(2.97114e-14 -1.54549e-13 -8.29972e-12)
(1.67533e-14 -1.36549e-13 -7.24326e-12)
(6.42349e-15 -1.03102e-13 -6.35288e-12)
(3.10279e-13 2.49119e-13 -3.39813e-11)
(2.88564e-13 2.22056e-13 -2.73154e-11)
(2.09166e-13 -4.57028e-13 -2.21707e-11)
(1.50681e-13 -3.78992e-13 -1.816e-11)
(1.07285e-13 -3.16657e-13 -1.50017e-11)
(7.47639e-14 -2.67033e-13 -1.24904e-11)
(5.02227e-14 -2.27089e-13 -1.04757e-11)
(3.15991e-14 -1.94561e-13 -8.84591e-12)
(1.73991e-14 -1.67766e-13 -7.51714e-12)
(6.52924e-15 -1.24038e-13 -6.43196e-12)
(3.82669e-13 4.24942e-14 -4.77335e-11)
(3.22439e-13 4.48342e-14 -3.64535e-11)
(2.07695e-13 -6.69328e-13 -2.82447e-11)
(1.29229e-13 -5.31534e-13 -2.21799e-11)
(7.48022e-14 -4.27481e-13 -1.7632e-11)
(3.66561e-14 -3.4838e-13 -1.41739e-11)
(9.71493e-15 -2.87237e-13 -1.15112e-11)
(-9.38218e-15 -2.39314e-13 -9.43698e-12)
(-2.29653e-14 -2.01267e-13 -7.80376e-12)
(-3.31241e-14 -1.45673e-13 -6.51239e-12)
(-8.61413e-10 -3.52787e-13 -6.9611e-11)
(-8.16699e-10 -2.58668e-13 -5.02393e-11)
(-7.62057e-10 -9.68166e-13 -3.70373e-11)
(-7.14133e-10 -7.30774e-13 -2.78364e-11)
(-6.71806e-10 -5.62431e-13 -2.12872e-11)
(-6.34162e-10 -4.40748e-13 -1.65344e-11)
(-6.00475e-10 -3.50937e-13 -1.30249e-11)
(-5.70159e-10 -2.8345e-13 -1.03925e-11)
(-5.42736e-10 -2.3325e-13 -8.38949e-12)
(-5.19116e-10 -1.69119e-13 -6.85738e-12)
(1.05525e-07 -6.82396e-11 -1.06515e-08)
(2.20406e-08 1.11987e-10 -9.07149e-09)
(1.87256e-08 1.37991e-10 -7.80927e-09)
(1.60787e-08 1.2122e-10 -6.79263e-09)
(1.39076e-08 1.07186e-10 -5.9619e-09)
(1.21044e-08 9.53993e-11 -5.27441e-09)
(1.05901e-08 8.54147e-11 -4.69909e-09)
(9.30561e-09 7.68916e-11 -4.21282e-09)
(8.19853e-09 6.61225e-11 -3.79817e-09)
(-8.21893e-09 -2.5907e-12 -3.45055e-09)
(2.73151e-13 3.70112e-13 -6.69972e-12)
(2.55183e-13 3.44329e-13 -6.6205e-12)
(2.23661e-13 -5.72407e-14 -6.5421e-12)
(1.93366e-13 -5.71297e-14 -6.4648e-12)
(1.6427e-13 -5.64845e-14 -6.38869e-12)
(1.36297e-13 -5.58216e-14 -6.31372e-12)
(1.09414e-13 -5.52137e-14 -6.23965e-12)
(8.35725e-14 -5.45919e-14 -6.16687e-12)
(5.87122e-14 -5.37696e-14 -6.09505e-12)
(3.49818e-14 -3.10811e-14 -6.02473e-12)
(5.52701e-13 3.18467e-13 -8.47039e-12)
(5.07145e-13 2.22875e-13 -8.15701e-12)
(4.34164e-13 -2.09796e-13 -7.85684e-12)
(3.66199e-13 -2.02712e-13 -7.57031e-12)
(3.02924e-13 -1.95424e-13 -7.29666e-12)
(2.43978e-13 -1.88452e-13 -7.03495e-12)
(1.89058e-13 -1.81801e-13 -6.78488e-12)
(1.37877e-13 -1.75477e-13 -6.54561e-12)
(9.01515e-14 -1.68758e-13 -6.31668e-12)
(4.59284e-14 -9.58511e-14 -6.09897e-12)
(6.83791e-13 2.26436e-13 -1.08549e-11)
(6.04529e-13 3.20026e-14 -1.01578e-11)
(4.9935e-13 -4.25297e-13 -9.51374e-12)
(4.05695e-13 -3.99401e-13 -8.91909e-12)
(3.22365e-13 -3.74882e-13 -8.36965e-12)
(2.48169e-13 -3.52181e-13 -7.86125e-12)
(1.82067e-13 -3.31152e-13 -7.39053e-12)
(1.23203e-13 -3.11673e-13 -6.95399e-12)
(7.07662e-14 -2.92663e-13 -6.54886e-12)
(2.43083e-14 -1.63585e-13 -6.17474e-12)
(8.94144e-13 7.10722e-14 -1.41194e-11)
(7.61983e-13 -2.62697e-13 -1.27973e-11)
(6.10185e-13 -7.29201e-13 -1.16221e-11)
(4.81146e-13 -6.6444e-13 -1.05763e-11)
(3.71479e-13 -6.05939e-13 -9.64396e-12)
(2.7817e-13 -5.53744e-13 -8.81078e-12)
(1.98712e-13 -5.06943e-13 -8.06447e-12)
(1.31056e-13 -4.64909e-13 -7.39466e-12)
(7.34185e-14 -4.2583e-13 -6.7919e-12)
(2.46836e-14 -2.34137e-13 -6.25195e-12)
(1.18865e-12 -1.84618e-13 -1.86732e-11)
(9.72856e-13 -7.14616e-13 -1.63298e-11)
(7.52785e-13 -1.15865e-12 -1.43343e-11)
(5.746e-13 -1.02188e-12 -1.26285e-11)
(4.30133e-13 -9.03603e-13 -1.11657e-11)
(3.12759e-13 -8.01802e-13 -9.90566e-12)
(2.17275e-13 -7.13741e-13 -8.81605e-12)
(1.3953e-13 -6.37339e-13 -7.87035e-12)
(7.62227e-14 -5.6905e-13 -7.04649e-12)
(2.50418e-14 -3.07639e-13 -6.33079e-12)
(1.60963e-12 -6.00844e-13 -2.51589e-11)
(1.25981e-12 -1.40731e-12 -2.11328e-11)
(9.3842e-13 -1.76859e-12 -1.78645e-11)
(6.91303e-13 -1.50529e-12 -1.51916e-11)
(5.00567e-13 -1.28755e-12 -1.29934e-11)
(3.52777e-13 -1.10734e-12 -1.11729e-11)
(2.37996e-13 -9.57157e-13 -9.65611e-12)
(1.48673e-13 -8.3131e-13 -8.38487e-12)
(7.91749e-14 -7.23124e-13 -7.31341e-12)
(2.53866e-14 -3.84303e-13 -6.41119e-12)
(2.22577e-12 -1.27862e-12 -3.46126e-11)
(1.65714e-12 -2.47492e-12 -2.77805e-11)
(1.18317e-12 -2.64118e-12 -2.25184e-11)
(8.38344e-13 -2.16197e-12 -1.8422e-11)
(5.85637e-13 -1.78406e-12 -1.52021e-11)
(3.99266e-13 -1.48409e-12 -1.26454e-11)
(2.61188e-13 -1.24376e-12 -1.05969e-11)
(1.58586e-13 -1.04957e-12 -8.94173e-12)
(8.2236e-14 -8.88939e-13 -7.59318e-12)
(2.57689e-14 -4.6428e-13 -6.49329e-12)
(3.15606e-12 -2.39198e-12 -4.87643e-11)
(2.2202e-12 -4.13744e-12 -3.7161e-11)
(1.51201e-12 -3.9014e-12 -2.87412e-11)
(1.02656e-12 -3.05938e-12 -2.25334e-11)
(6.89861e-13 -2.42823e-12 -1.78889e-11)
(4.54009e-13 -1.9495e-12 -1.43636e-11)
(2.87539e-13 -1.5815e-12 -1.16534e-11)
(1.69453e-13 -1.29533e-12 -9.54497e-12)
(8.54192e-14 -1.06742e-12 -7.88664e-12)
(2.60029e-14 -5.47588e-13 -6.57706e-12)
(9.48002e-12 -4.26649e-12 -7.13229e-11)
(-6.67647e-12 -6.78242e-12 -5.13229e-11)
(-5.85087e-12 -5.75498e-12 -3.77447e-11)
(-5.0925e-12 -4.30522e-12 -2.83093e-11)
(-4.43262e-12 -3.27663e-12 -2.16125e-11)
(-3.86553e-12 -2.53351e-12 -1.67635e-11)
(-3.38095e-12 -1.98686e-12 -1.31899e-11)
(-2.96755e-12 -1.57838e-12 -1.05139e-11)
(-2.61464e-12 -1.26525e-12 -8.48026e-12)
(-2.29285e-12 -6.39378e-13 -6.92684e-12)
(4.99054e-08 -2.53536e-10 -1.08046e-08)
(-1.5552e-09 -2.18717e-10 -9.18112e-09)
(-1.42463e-09 -1.49986e-10 -7.89027e-09)
(-1.28914e-09 -1.29877e-10 -6.85376e-09)
(-1.17143e-09 -1.13672e-10 -6.00891e-09)
(-1.06982e-09 -1.00366e-10 -5.31116e-09)
(-9.82134e-10 -8.92955e-11 -4.72822e-09)
(-9.06322e-10 -7.99786e-11 -4.23623e-09)
(-8.40937e-10 -7.20034e-11 -3.81719e-09)
(-8.38286e-10 -6.57481e-11 -3.46604e-09)
(2.27603e-13 3.76367e-13 -6.27525e-14)
(2.14855e-13 3.50053e-13 -6.12373e-14)
(1.88421e-13 -5.16747e-14 -5.91939e-14)
(1.63145e-13 -5.15921e-14 -5.73382e-14)
(1.38962e-13 -5.09175e-14 -5.57035e-14)
(1.1579e-13 -5.03489e-14 -5.4172e-14)
(9.36573e-14 -4.9774e-14 -5.27246e-14)
(7.24416e-14 -4.91366e-14 -5.15631e-14)
(5.21358e-14 -4.8408e-14 -5.03598e-14)
(3.28483e-14 -2.53838e-14 -4.93786e-14)
(4.98693e-13 3.42181e-13 -8.80806e-14)
(4.60471e-13 2.44191e-13 -8.30448e-14)
(3.94381e-13 -1.89312e-13 -7.76017e-14)
(3.32885e-13 -1.82853e-13 -7.26459e-14)
(2.75696e-13 -1.76215e-13 -6.81634e-14)
(2.22461e-13 -1.69856e-13 -6.40913e-14)
(1.72932e-13 -1.63769e-13 -6.03025e-14)
(1.26773e-13 -1.57981e-13 -5.68937e-14)
(8.37668e-14 -1.5187e-13 -5.39635e-14)
(4.39794e-14 -7.86875e-14 -5.1026e-14)
(6.15884e-13 2.76684e-13 -1.27149e-13)
(5.47395e-13 7.57814e-14 -1.15246e-13)
(4.51923e-13 -3.8421e-13 -1.03836e-13)
(3.66996e-13 -3.6068e-13 -9.37653e-14)
(2.91531e-13 -3.38291e-13 -8.4882e-14)
(2.24428e-13 -3.17626e-13 -7.69541e-14)
(1.64705e-13 -2.98524e-13 -7.00423e-14)
(1.11576e-13 -2.80844e-13 -6.38617e-14)
(6.42471e-14 -2.63496e-13 -5.83111e-14)
(2.24256e-14 -1.34587e-13 -5.36171e-14)
(8.07813e-13 1.61892e-13 -1.879e-13)
(6.91475e-13 -1.8665e-13 -1.63623e-13)
(5.533e-13 -6.5979e-13 -1.41732e-13)
(4.35992e-13 -6.00803e-13 -1.22884e-13)
(3.36478e-13 -5.47463e-13 -1.0707e-13)
(2.51911e-13 -4.9993e-13 -9.3638e-14)
(1.80006e-13 -4.57347e-13 -8.22908e-14)
(1.18844e-13 -4.19233e-13 -7.2557e-14)
(6.67959e-14 -3.83658e-13 -6.40726e-14)
(2.28586e-14 -1.93135e-13 -5.69573e-14)
(1.07772e-12 -3.17128e-14 -2.85098e-13)
(8.84986e-13 -5.92309e-13 -2.37154e-13)
(6.84086e-13 -1.05042e-12 -1.96671e-13)
(5.21639e-13 -9.2558e-13 -1.63621e-13)
(3.90244e-13 -8.1756e-13 -1.37032e-13)
(2.83673e-13 -7.24787e-13 -1.15342e-13)
(1.9712e-13 -6.44633e-13 -9.76772e-14)
(1.26729e-13 -5.75213e-13 -8.31747e-14)
(6.94962e-14 -5.13019e-13 -7.11671e-14)
(2.33041e-14 -2.54395e-13 -6.12225e-14)
(1.46525e-12 -3.5242e-13 -4.44382e-13)
(1.14934e-12 -1.21891e-12 -3.50309e-13)
(8.54828e-13 -1.60705e-12 -2.7725e-13)
(6.28874e-13 -1.36616e-12 -2.2047e-13)
(4.54951e-13 -1.16684e-12 -1.77079e-13)
(3.2049e-13 -1.00232e-12 -1.43366e-13)
(2.16249e-13 -8.65454e-13 -1.1706e-13)
(1.3529e-13 -7.51008e-13 -9.63636e-14)
(7.23322e-14 -6.52468e-13 -7.97063e-14)
(2.37588e-14 -3.18647e-13 -6.66141e-14)
(2.03557e-12 -8.80483e-13 -7.10743e-13)
(1.51692e-12 -2.19153e-12 -5.28962e-13)
(1.08072e-12 -2.40678e-12 -3.96819e-13)
(7.64397e-13 -1.96666e-12 -3.00475e-13)
(5.33326e-13 -1.61988e-12 -2.30818e-13)
(3.63355e-13 -1.34549e-12 -1.79411e-13)
(2.37719e-13 -1.12604e-12 -1.41097e-13)
(1.44527e-13 -9.49226e-13 -1.12202e-13)
(7.52959e-14 -8.02814e-13 -8.97461e-14)
(2.4224e-14 -3.85986e-13 -7.29173e-14)
(2.89974e-12 -1.75639e-12 -1.17245e-12)
(2.03845e-12 -3.71777e-12 -8.15619e-13)
(1.38405e-12 -3.56694e-12 -5.76831e-13)
(9.37393e-13 -2.7904e-12 -4.14018e-13)
(6.28869e-13 -2.2096e-12 -3.03292e-13)
(4.13464e-13 -1.77057e-12 -2.25894e-13)
(2.61859e-13 -1.434e-12 -1.70911e-13)
(1.54579e-13 -1.17293e-12 -1.31088e-13)
(7.84246e-14 -9.64952e-13 -1.01811e-13)
(2.46917e-14 -4.56586e-13 -8.01639e-14)
(2.14573e-11 -3.23067e-12 -1.96742e-12)
(2.75856e-12 -6.15213e-12 -1.26666e-12)
(1.75681e-12 -5.27132e-12 -8.36916e-13)
(1.13161e-12 -3.92948e-12 -5.66639e-13)
(7.24731e-13 -2.98084e-12 -3.9462e-13)
(4.5592e-13 -2.29847e-12 -2.81435e-13)
(2.76035e-13 -1.79814e-12 -2.05234e-13)
(1.5494e-13 -1.42544e-12 -1.52798e-13)
(7.30995e-14 -1.14006e-12 -1.15823e-13)
(1.81283e-14 -5.30726e-13 -8.98185e-14)
(4.78097e-08 -5.91159e-11 -1.58181e-10)
(1.33546e-11 -5.90917e-11 -1.10477e-10)
(-9.68457e-12 -1.08497e-11 -8.15297e-11)
(-7.82752e-12 -7.77909e-12 -6.14807e-11)
(-6.38916e-12 -5.74049e-12 -4.72444e-11)
(-5.26697e-12 -4.32507e-12 -3.69074e-11)
(-4.38471e-12 -3.31809e-12 -2.92547e-11)
(-3.6854e-12 -2.58613e-12 -2.34912e-11)
(-3.12818e-12 -2.04076e-12 -1.90832e-11)
(-2.79434e-12 -1.19159e-12 -1.55357e-11)
(2.27084e-13 3.76311e-13 -8.31301e-15)
(2.1439e-13 3.49708e-13 -7.47282e-15)
(1.8801e-13 -5.20743e-14 -5.72928e-15)
(1.62776e-13 -5.18831e-14 -4.44106e-15)
(1.38646e-13 -5.11897e-14 -3.21133e-15)
(1.15562e-13 -5.05345e-14 -2.22966e-15)
(9.3477e-14 -4.98553e-14 -1.51633e-15)
(7.23231e-14 -4.92144e-14 -8.97444e-16)
(5.21119e-14 -4.83945e-14 -4.9107e-16)
(3.28801e-14 -2.53398e-14 -4.06775e-16)
(4.98307e-13 3.42369e-13 -1.23204e-14)
(4.60159e-13 2.44036e-13 -1.0843e-14)
(3.94116e-13 -1.89555e-13 -8.65358e-15)
(3.32687e-13 -1.83016e-13 -6.73593e-15)
(2.75556e-13 -1.76261e-13 -5.12568e-15)
(2.2239e-13 -1.69854e-13 -3.99498e-15)
(1.72923e-13 -1.63744e-13 -2.99821e-15)
(1.26831e-13 -1.57843e-13 -2.29271e-15)
(8.38927e-14 -1.51664e-13 -1.81507e-15)
(4.41745e-14 -7.84371e-14 -1.53199e-15)
(6.15597e-13 2.77309e-13 -1.99758e-14)
(5.47258e-13 7.58359e-14 -1.76024e-14)
(4.5185e-13 -3.84235e-13 -1.42377e-14)
(3.66973e-13 -3.60585e-13 -1.14865e-14)
(2.9158e-13 -3.38204e-13 -9.34749e-15)
(2.24535e-13 -3.17467e-13 -7.55605e-15)
(1.64896e-13 -2.98275e-13 -6.14954e-15)
(1.11832e-13 -2.80589e-13 -5.20752e-15)
(6.45524e-14 -2.63149e-13 -4.38151e-15)
(2.27844e-14 -1.34134e-13 -4.11032e-15)
(8.07766e-13 1.63271e-13 -3.40523e-14)
(6.91637e-13 -1.86216e-13 -2.98294e-14)
(5.53531e-13 -6.59685e-13 -2.45001e-14)
(4.36272e-13 -6.00643e-13 -1.9943e-14)
(3.36805e-13 -5.47195e-13 -1.64451e-14)
(2.52308e-13 -4.99598e-13 -1.37265e-14)
(1.80439e-13 -4.5699e-13 -1.15757e-14)
(1.19328e-13 -4.18855e-13 -9.81886e-15)
(6.73238e-14 -3.83246e-13 -8.60498e-15)
(2.33845e-14 -1.92647e-13 -7.72321e-15)
(1.07814e-12 -2.92045e-14 -5.95898e-14)
(8.85677e-13 -5.91615e-13 -5.12763e-14)
(6.84786e-13 -1.05019e-12 -4.15402e-14)
(5.22398e-13 -9.25322e-13 -3.39262e-14)
(3.9101e-13 -8.17281e-13 -2.79091e-14)
(2.84441e-13 -7.24476e-13 -2.31909e-14)
(1.97875e-13 -6.44284e-13 -1.96117e-14)
(1.27495e-13 -5.74845e-13 -1.68327e-14)
(7.02349e-14 -5.12697e-13 -1.46453e-14)
(2.40243e-14 -2.53907e-13 -1.29572e-14)
(1.4665e-12 -3.48066e-13 -1.04873e-13)
(1.15092e-12 -1.21808e-12 -8.75215e-14)
(8.56323e-13 -1.607e-12 -6.96569e-14)
(6.30303e-13 -1.3661e-12 -5.60341e-14)
(4.5629e-13 -1.16682e-12 -4.54876e-14)
(3.21732e-13 -1.00229e-12 -3.74061e-14)
(2.17409e-13 -8.65358e-13 -3.10881e-14)
(1.36346e-13 -7.50911e-13 -2.62555e-14)
(7.33022e-14 -6.5239e-13 -2.23835e-14)
(2.46478e-14 -3.18303e-13 -1.94498e-14)
(2.0383e-12 -8.73113e-13 -1.8521e-13)
(1.51994e-12 -2.19097e-12 -1.48943e-13)
(1.08346e-12 -2.40748e-12 -1.14891e-13)
(7.66804e-13 -1.96739e-12 -9.01261e-14)
(5.35446e-13 -1.62062e-12 -7.14305e-14)
(3.6522e-13 -1.34612e-12 -5.74664e-14)
(2.39344e-13 -1.1266e-12 -4.68089e-14)
(1.45941e-13 -9.4973e-13 -3.86928e-14)
(7.65449e-14 -8.03269e-13 -3.24176e-14)
(2.52797e-14 -3.85907e-13 -2.74252e-14)
(2.90507e-12 -1.7439e-12 -3.29598e-13)
(2.04379e-12 -3.71854e-12 -2.51922e-13)
(1.38862e-12 -3.56962e-12 -1.87448e-13)
(9.4124e-13 -2.79303e-12 -1.41782e-13)
(6.32078e-13 -2.21191e-12 -1.09123e-13)
(4.16133e-13 -1.7726e-12 -8.532e-14)
(2.64069e-13 -1.43573e-12 -6.76752e-14)
(1.56414e-13 -1.17439e-12 -5.46314e-14)
(7.99561e-14 -9.66297e-13 -4.46731e-14)
(2.59875e-14 -4.57004e-13 -3.69519e-14)
(2.18517e-11 -3.2099e-12 -5.9236e-13)
(2.81845e-12 -6.15744e-12 -4.26302e-13)
(1.79824e-12 -5.27861e-12 -3.0264e-13)
(1.16088e-12 -3.93597e-12 -2.19777e-13)
(7.45924e-13 -2.98636e-12 -1.63051e-13)
(4.71626e-13 -2.30305e-12 -1.23452e-13)
(2.88127e-13 -1.80193e-12 -9.51093e-14)
(1.64339e-13 -1.42856e-12 -7.45254e-14)
(8.0383e-14 -1.14257e-12 -5.93872e-14)
(2.3774e-14 -5.31728e-13 -4.81177e-14)
(5.04883e-08 -5.4279e-11 -5.55505e-12)
(2.87245e-11 -5.5922e-11 -1.29525e-12)
(1.69004e-12 -7.90106e-12 -8.37932e-13)
(1.10271e-12 -5.54121e-12 -5.60588e-13)
(7.31977e-13 -4.01139e-12 -3.873e-13)
(4.88961e-13 -2.96786e-12 -2.75449e-13)
(3.26779e-13 -2.23842e-12 -2.02681e-13)
(2.16859e-13 -1.71748e-12 -1.5202e-13)
(1.41419e-13 -1.33411e-12 -1.15446e-13)
(8.92057e-14 -6.11386e-13 -8.86276e-14)
(2.27526e-13 3.76126e-13 -1.08899e-14)
(2.14751e-13 3.49136e-13 -9.65546e-15)
(1.88305e-13 -5.27636e-14 -7.44508e-15)
(1.62999e-13 -5.24835e-14 -5.58078e-15)
(1.38829e-13 -5.1689e-14 -4.05127e-15)
(1.15708e-13 -5.09176e-14 -2.79479e-15)
(9.36099e-14 -5.02009e-14 -1.81172e-15)
(7.24594e-14 -4.94439e-14 -1.0018e-15)
(5.22224e-14 -4.85037e-14 -4.78824e-16)
(3.29827e-14 -2.54051e-14 -2.41866e-16)
(4.99355e-13 3.4199e-13 -1.6076e-14)
(4.61063e-13 2.432e-13 -1.40995e-14)
(3.9487e-13 -1.90485e-13 -1.10865e-14)
(3.33289e-13 -1.83827e-13 -8.66103e-15)
(2.76083e-13 -1.76906e-13 -6.46054e-15)
(2.22844e-13 -1.70333e-13 -4.92428e-15)
(1.7332e-13 -1.64096e-13 -3.68982e-15)
(1.27215e-13 -1.58125e-13 -2.85594e-15)
(8.42386e-14 -1.51863e-13 -2.12848e-15)
(4.45086e-14 -7.84971e-14 -1.74997e-15)
(6.17424e-13 2.76653e-13 -2.60188e-14)
(5.48853e-13 7.45678e-14 -2.28538e-14)
(4.53186e-13 -3.85633e-13 -1.84851e-14)
(3.68096e-13 -3.61731e-13 -1.47425e-14)
(2.9255e-13 -3.39061e-13 -1.18222e-14)
(2.25384e-13 -3.18188e-13 -9.62314e-15)
(1.65637e-13 -2.98823e-13 -7.84768e-15)
(1.1248e-13 -2.80977e-13 -6.54876e-15)
(6.51525e-14 -2.63416e-13 -5.70939e-15)
(2.33357e-14 -1.343e-13 -5.09493e-15)
(8.10921e-13 1.61994e-13 -4.45251e-14)
(6.94351e-13 -1.88356e-13 -3.88286e-14)
(5.55751e-13 -6.61826e-13 -3.16145e-14)
(4.38135e-13 -6.02417e-13 -2.59051e-14)
(3.38371e-13 -5.48605e-13 -2.13401e-14)
(2.53628e-13 -5.00741e-13 -1.77113e-14)
(1.81606e-13 -4.57941e-13 -1.50041e-14)
(1.20336e-13 -4.1959e-13 -1.28286e-14)
(6.82176e-14 -3.83786e-13 -1.12273e-14)
(2.41739e-14 -1.92897e-13 -1.01208e-14)
(1.08346e-12 -3.17151e-14 -7.7667e-14)
(8.90114e-13 -5.95517e-13 -6.67221e-14)
(6.88349e-13 -1.05394e-12 -5.40522e-14)
(5.25285e-13 -9.28343e-13 -4.41665e-14)
(3.93383e-13 -8.19729e-13 -3.64704e-14)
(2.86411e-13 -7.2642e-13 -3.03325e-14)
(1.99534e-13 -6.45833e-13 -2.56492e-14)
(1.28903e-13 -5.76116e-13 -2.1939e-14)
(7.14371e-14 -5.13696e-13 -1.91176e-14)
(2.50572e-14 -2.54492e-13 -1.68674e-14)
(1.47542e-12 -3.53242e-13 -1.36979e-13)
(1.15808e-12 -1.2254e-12 -1.1407e-13)
(8.61876e-13 -1.61359e-12 -9.09279e-14)
(6.34679e-13 -1.37137e-12 -7.30616e-14)
(4.59769e-13 -1.171e-12 -5.94091e-14)
(3.24551e-13 -1.00565e-12 -4.90153e-14)
(2.19682e-13 -8.68104e-13 -4.07227e-14)
(1.38222e-13 -7.53141e-13 -3.43754e-14)
(7.48577e-14 -6.54187e-13 -2.93492e-14)
(2.59286e-14 -3.19319e-13 -2.54717e-14)
(2.05327e-12 -8.83541e-13 -2.41916e-13)
(1.53139e-12 -2.20492e-12 -1.94108e-13)
(1.09199e-12 -2.41939e-12 -1.50307e-13)
(7.73276e-13 -1.9766e-12 -1.17742e-13)
(5.40424e-13 -1.62784e-12 -9.36976e-14)
(3.69079e-13 -1.35184e-12 -7.54034e-14)
(2.42378e-13 -1.13115e-12 -6.14271e-14)
(1.48362e-13 -9.5336e-13 -5.0806e-14)
(7.8481e-14 -8.06252e-13 -4.25831e-14)
(2.68537e-14 -3.87675e-13 -3.61139e-14)
(2.93031e-12 -1.76505e-12 -4.29773e-13)
(2.06206e-12 -3.74512e-12 -3.28631e-13)
(1.40166e-12 -3.59088e-12 -2.44819e-13)
(9.50686e-13 -2.80898e-12 -1.85785e-13)
(6.39048e-13 -2.2241e-12 -1.43241e-13)
(4.21348e-13 -1.78203e-12 -1.12158e-13)
(2.68025e-13 -1.44309e-12 -8.9177e-14)
(1.59437e-13 -1.18021e-12 -7.19385e-14)
(8.22859e-14 -9.70926e-13 -5.87562e-14)
(2.78041e-14 -4.59731e-13 -4.88866e-14)
(2.18779e-11 -3.25239e-12 -7.71096e-13)
(2.84844e-12 -6.20779e-12 -5.564e-13)
(1.81835e-12 -5.31651e-12 -3.95896e-13)
(1.17476e-12 -3.96336e-12 -2.8819e-13)
(7.55702e-13 -3.0065e-12 -2.14393e-13)
(4.7864e-13 -2.31817e-12 -1.62587e-13)
(2.93245e-13 -1.81347e-12 -1.25393e-13)
(1.68114e-13 -1.43747e-12 -9.84699e-14)
(8.32093e-14 -1.14956e-12 -7.8428e-14)
(2.58917e-14 -5.35748e-13 -6.3466e-14)
(5.05997e-08 -5.4097e-11 -1.69134e-12)
(2.91148e-11 -5.59412e-11 -9.51796e-13)
(1.768e-12 -7.94945e-12 -6.39128e-13)
(1.15561e-12 -5.57516e-12 -4.43548e-13)
(7.68446e-13 -4.03598e-12 -3.16223e-13)
(5.14762e-13 -2.98597e-12 -2.3097e-13)
(3.45407e-13 -2.2519e-12 -1.72531e-13)
(2.30564e-13 -1.72771e-12 -1.31434e-13)
(1.51656e-13 -1.34202e-12 -1.01839e-13)
(9.7186e-14 -6.1553e-13 -8.0502e-14)
(2.28072e-13 3.75794e-13 -1.36617e-14)
(2.15216e-13 3.48335e-13 -1.19091e-14)
(1.88669e-13 -5.36889e-14 -9.31878e-15)
(1.63308e-13 -5.32319e-14 -6.93753e-15)
(1.39051e-13 -5.22952e-14 -5.02729e-15)
(1.15904e-13 -5.14258e-14 -3.37472e-15)
(9.3769e-14 -5.05681e-14 -2.12434e-15)
(7.26074e-14 -4.97441e-14 -1.24734e-15)
(5.23638e-14 -4.86982e-14 -6.22104e-16)
(3.3111e-14 -2.54363e-14 -3.18824e-16)
(5.00682e-13 3.41474e-13 -2.0101e-14)
(4.62223e-13 2.42068e-13 -1.75944e-14)
(3.95826e-13 -1.91677e-13 -1.37858e-14)
(3.34098e-13 -1.84831e-13 -1.07464e-14)
(2.76748e-13 -1.77735e-13 -8.23824e-15)
(2.23427e-13 -1.70954e-13 -6.11494e-15)
(1.73838e-13 -1.64567e-13 -4.51173e-15)
(1.27673e-13 -1.58469e-13 -3.38933e-15)
(8.46905e-14 -1.52113e-13 -2.67263e-15)
(4.49192e-14 -7.86171e-14 -2.29248e-15)
(6.19789e-13 2.75761e-13 -3.24979e-14)
(5.50917e-13 7.28862e-14 -2.8411e-14)
(4.54896e-13 -3.87367e-13 -2.29169e-14)
(3.69536e-13 -3.63189e-13 -1.84235e-14)
(2.93795e-13 -3.40232e-13 -1.47726e-14)
(2.26446e-13 -3.19066e-13 -1.19617e-14)
(1.66594e-13 -2.9953e-13 -9.72189e-15)
(1.13338e-13 -2.81483e-13 -8.21113e-15)
(6.59368e-14 -2.6378e-13 -7.10565e-15)
(2.40668e-14 -1.34513e-13 -6.29193e-15)
(8.14973e-13 1.60319e-13 -5.56988e-14)
(6.97834e-13 -1.91221e-13 -4.84239e-14)
(5.58607e-13 -6.64638e-13 -3.93974e-14)
(4.40517e-13 -6.04667e-13 -3.22664e-14)
(3.40396e-13 -5.50471e-13 -2.6563e-14)
(2.55352e-13 -5.02188e-13 -2.19756e-14)
(1.83084e-13 -4.59041e-13 -1.86314e-14)
(1.2164e-13 -4.20496e-13 -1.6096e-14)
(6.93572e-14 -3.84472e-13 -1.40564e-14)
(2.51876e-14 -1.933e-13 -1.25454e-14)
(1.09034e-12 -3.50179e-14 -9.72494e-14)
(8.95826e-13 -6.00588e-13 -8.32345e-14)
(6.92946e-13 -1.05872e-12 -6.7511e-14)
(5.29005e-13 -9.3217e-13 -5.51199e-14)
(3.96435e-13 -8.2283e-13 -4.54621e-14)
(2.88975e-13 -7.28952e-13 -3.79588e-14)
(2.01655e-13 -6.47867e-13 -3.19093e-14)
(1.30706e-13 -5.77732e-13 -2.73634e-14)
(7.29728e-14 -5.15023e-13 -2.37653e-14)
(2.63725e-14 -2.55289e-13 -2.09652e-14)
(1.48695e-12 -3.59993e-13 -1.71363e-13)
(1.1673e-12 -1.23497e-12 -1.42731e-13)
(8.69062e-13 -1.62214e-12 -1.13559e-13)
(6.40299e-13 -1.37816e-12 -9.13029e-14)
(4.64253e-13 -1.17638e-12 -7.42606e-14)
(3.28144e-13 -1.00998e-12 -6.10588e-14)
(2.22605e-13 -8.71611e-13 -5.08582e-14)
(1.40617e-13 -7.55959e-13 -4.28779e-14)
(7.68337e-14 -6.56506e-13 -3.6726e-14)
(2.75883e-14 -3.2068e-13 -3.18003e-14)
(2.0726e-12 -8.97251e-13 -3.03091e-13)
(1.54617e-12 -2.223e-12 -2.42779e-13)
(1.10302e-12 -2.43471e-12 -1.87913e-13)
(7.8163e-13 -1.98849e-12 -1.47211e-13)
(5.4683e-13 -1.63712e-12 -1.17052e-13)
(3.74042e-13 -1.35924e-12 -9.41706e-14)
(2.46292e-13 -1.13703e-12 -7.67997e-14)
(1.51454e-13 -9.58072e-13 -6.34066e-14)
(8.09525e-14 -8.10048e-13 -5.31025e-14)
(2.88529e-14 -3.8991e-13 -4.50133e-14)
(2.96305e-12 -1.79266e-12 -5.38924e-13)
(2.08575e-12 -3.77957e-12 -4.11646e-13)
(1.4185e-12 -3.61837e-12 -3.06642e-13)
(9.62912e-13 -2.82963e-12 -2.32478e-13)
(6.48042e-13 -2.23983e-12 -1.791e-13)
(4.28083e-13 -1.79416e-12 -1.40257e-13)
(2.73122e-13 -1.45257e-12 -1.11463e-13)
(1.63351e-13 -1.18772e-12 -8.9768e-14)
(8.53052e-14 -9.76889e-13 -7.33861e-14)
(3.01569e-14 -4.6317e-13 -6.08649e-14)
(2.19741e-11 -3.30808e-12 -9.68137e-13)
(2.8864e-12 -6.27328e-12 -6.97812e-13)
(1.84399e-12 -5.36559e-12 -4.96365e-13)
(1.19246e-12 -3.99875e-12 -3.61246e-13)
(7.68173e-13 -3.03253e-12 -2.68464e-13)
(4.87582e-13 -2.3377e-12 -2.03384e-13)
(2.99757e-13 -1.8283e-12 -1.56823e-13)
(1.72925e-13 -1.44893e-12 -1.2308e-13)
(8.67839e-14 -1.15853e-12 -9.79639e-14)
(2.85879e-14 -5.40905e-13 -7.93278e-14)
(5.05342e-08 -5.45633e-11 -4.24955e-12)
(2.90287e-11 -5.617e-11 -1.18924e-12)
(1.79206e-12 -8.03609e-12 -7.98952e-13)
(1.17165e-12 -5.63486e-12 -5.54348e-13)
(7.79607e-13 -4.07817e-12 -3.95138e-13)
(5.22742e-13 -3.01646e-12 -2.88594e-13)
(3.5126e-13 -2.27438e-12 -2.15388e-13)
(2.34943e-13 -1.74466e-12 -1.63931e-13)
(1.55002e-13 -1.35493e-12 -1.26991e-13)
(9.97913e-14 -6.22787e-13 -1.00254e-13)
(2.2875e-13 3.75399e-13 -1.63411e-14)
(2.15803e-13 3.47406e-13 -1.42725e-14)
(1.89115e-13 -5.47354e-14 -1.1098e-14)
(1.63662e-13 -5.41861e-14 -8.39226e-15)
(1.39365e-13 -5.31052e-14 -6.033e-15)
(1.16148e-13 -5.20719e-14 -4.04226e-15)
(9.39825e-14 -5.10484e-14 -2.56866e-15)
(7.27881e-14 -5.00426e-14 -1.43395e-15)
(5.25362e-14 -4.88745e-14 -7.95999e-16)
(3.32853e-14 -2.55181e-14 -4.38536e-16)
(5.02314e-13 3.40858e-13 -2.41232e-14)
(4.63641e-13 2.40715e-13 -2.09616e-14)
(3.96985e-13 -1.93157e-13 -1.65819e-14)
(3.35059e-13 -1.86005e-13 -1.28511e-14)
(2.77581e-13 -1.78738e-13 -9.92178e-15)
(2.24152e-13 -1.71811e-13 -7.33717e-15)
(1.74477e-13 -1.65187e-13 -5.53911e-15)
(1.28273e-13 -1.58867e-13 -4.13533e-15)
(8.5227e-14 -1.52312e-13 -3.1699e-15)
(4.54259e-14 -7.86992e-14 -2.83375e-15)
(6.22676e-13 2.74663e-13 -3.9121e-14)
(5.53419e-13 7.08204e-14 -3.40773e-14)
(4.56984e-13 -3.89492e-13 -2.73944e-14)
(3.71298e-13 -3.6492e-13 -2.20699e-14)
(2.95284e-13 -3.41625e-13 -1.77635e-14)
(2.27758e-13 -3.20222e-13 -1.43636e-14)
(1.67758e-13 -3.00361e-13 -1.17007e-14)
(1.14401e-13 -2.82079e-13 -9.86595e-15)
(6.68852e-14 -2.64245e-13 -8.55538e-15)
(2.49071e-14 -1.3474e-13 -7.62889e-15)
(8.19952e-13 1.58252e-13 -6.68813e-14)
(7.02091e-13 -1.94661e-13 -5.79118e-14)
(5.62119e-13 -6.68026e-13 -4.72167e-14)
(4.43429e-13 -6.07442e-13 -3.86043e-14)
(3.42841e-13 -5.52718e-13 -3.17874e-14)
(2.57454e-13 -5.03993e-13 -2.65445e-14)
(1.84902e-13 -4.60422e-13 -2.22807e-14)
(1.23211e-13 -4.2158e-13 -1.91924e-14)
(7.07447e-14 -3.85376e-13 -1.6799e-14)
(2.64208e-14 -1.93787e-13 -1.50095e-14)
(1.09874e-12 -3.91198e-14 -1.17192e-13)
(9.02828e-13 -6.06797e-13 -9.97408e-14)
(6.9855e-13 -1.06457e-12 -8.087e-14)
(5.33551e-13 -9.36918e-13 -6.5949e-14)
(4.00176e-13 -8.26607e-13 -5.44161e-14)
(2.92071e-13 -7.32023e-13 -4.54764e-14)
(2.04268e-13 -6.50348e-13 -3.82977e-14)
(1.32897e-13 -5.79719e-13 -3.28239e-14)
(7.48609e-14 -5.1662e-13 -2.84371e-14)
(2.80031e-14 -2.56226e-13 -2.52567e-14)
(1.50108e-12 -3.68212e-13 -2.06564e-13)
(1.17859e-12 -1.24657e-12 -1.71013e-13)
(8.77803e-13 -1.63256e-12 -1.36134e-13)
(6.4719e-13 -1.38642e-12 -1.0954e-13)
(4.69733e-13 -1.18302e-12 -8.91826e-14)
(3.32549e-13 -1.01529e-12 -7.33823e-14)
(2.26202e-13 -8.75885e-13 -6.11799e-14)
(1.43553e-13 -7.59408e-13 -5.13634e-14)
(7.92728e-14 -6.59305e-13 -4.40315e-14)
(2.96027e-14 -3.22358e-13 -3.81451e-14)
(2.09638e-12 -9.14029e-13 -3.65614e-13)
(1.56426e-12 -2.24515e-12 -2.91465e-13)
(1.11652e-12 -2.45346e-12 -2.25705e-13)
(7.91852e-13 -2.00303e-12 -1.77046e-13)
(5.54658e-13 -1.6485e-12 -1.40633e-13)
(3.80147e-13 -1.36821e-12 -1.13294e-13)
(2.5107e-13 -1.14421e-12 -9.23871e-14)
(1.55241e-13 -9.63821e-13 -7.59952e-14)
(8.39735e-14 -8.14719e-13 -6.36399e-14)
(3.12897e-14 -3.92681e-13 -5.41088e-14)
(3.00331e-12 -1.82663e-12 -6.5074e-13)
(2.11479e-12 -3.82182e-12 -4.95415e-13)
(1.4392e-12 -3.6521e-12 -3.6927e-13)
(9.77897e-13 -2.85494e-12 -2.7972e-13)
(6.59074e-13 -2.25909e-12 -2.15543e-13)
(4.36318e-13 -1.80902e-12 -1.68789e-13)
(2.7935e-13 -1.46422e-12 -1.3412e-13)
(1.6812e-13 -1.19689e-12 -1.07852e-13)
(8.89773e-14 -9.84168e-13 -8.79087e-14)
(3.30334e-14 -4.67452e-13 -7.29849e-14)
(2.22067e-11 -3.3766e-12 -1.16997e-12)
(2.93343e-12 -6.35366e-12 -8.41519e-13)
(1.87557e-12 -5.42584e-12 -5.9869e-13)
(1.21424e-12 -4.04225e-12 -4.35418e-13)
(7.83511e-13 -3.06452e-12 -3.23479e-13)
(4.98568e-13 -2.36161e-12 -2.44884e-13)
(3.07752e-13 -1.8465e-12 -1.88924e-13)
(1.78816e-13 -1.46298e-12 -1.48005e-13)
(9.11717e-14 -1.16947e-12 -1.17492e-13)
(3.18883e-14 -5.47187e-13 -9.5146e-14)
(5.09561e-08 -5.50869e-11 -3.99325e-12)
(2.9824e-11 -5.67487e-11 -1.43435e-12)
(1.82065e-12 -8.14385e-12 -9.65639e-13)
(1.19101e-12 -5.70857e-12 -6.69602e-13)
(7.93108e-13 -4.13018e-12 -4.77066e-13)
(5.32414e-13 -3.05402e-12 -3.48138e-13)
(3.5836e-13 -2.30212e-12 -2.59724e-13)
(2.40263e-13 -1.76547e-12 -1.97571e-13)
(1.59071e-13 -1.37075e-12 -1.52582e-13)
(1.02945e-13 -6.31684e-13 -1.20399e-13)
(2.29537e-13 3.74935e-13 -1.89617e-14)
(2.16401e-13 3.46258e-13 -1.55203e-14)
(1.89615e-13 -5.60135e-14 -1.20591e-14)
(1.6406e-13 -5.52373e-14 -9.11776e-15)
(1.39698e-13 -5.40248e-14 -7.00406e-15)
(1.16449e-13 -5.28067e-14 -5.26136e-15)
(9.42598e-14 -5.16175e-14 -4.23638e-15)
(7.30677e-14 -5.04759e-14 -4.71926e-15)
(5.28353e-14 -4.91923e-14 -1.26662e-14)
(3.36048e-14 -2.59475e-14 -4.17928e-14)
(5.04225e-13 3.40071e-13 -2.77186e-14)
(4.65203e-13 2.39152e-13 -2.23324e-14)
(3.9829e-13 -1.94808e-13 -1.78346e-14)
(3.36167e-13 -1.87421e-13 -1.39862e-14)
(2.78529e-13 -1.79898e-13 -1.10289e-14)
(2.25009e-13 -1.72703e-13 -8.93062e-15)
(1.75251e-13 -1.65876e-13 -7.51746e-15)
(1.28995e-13 -1.59487e-13 -7.36053e-15)
(8.59435e-14 -1.52827e-13 -1.12754e-14)
(4.61056e-14 -7.94492e-14 -3.01867e-14)
(6.26051e-13 2.73355e-13 -4.49937e-14)
(5.56235e-13 6.84295e-14 -3.6802e-14)
(4.59337e-13 -3.91916e-13 -2.97436e-14)
(3.73307e-13 -3.669e-13 -2.4253e-14)
(2.97024e-13 -3.43251e-13 -1.97784e-14)
(2.29317e-13 -3.21503e-13 -1.66724e-14)
(1.6913e-13 -3.01412e-13 -1.46364e-14)
(1.15643e-13 -2.82879e-13 -1.3367e-14)
(6.80575e-14 -2.64948e-13 -1.49635e-14)
(2.59875e-14 -1.35709e-13 -2.62935e-14)
(8.25779e-13 1.55818e-13 -7.70731e-14)
(7.06873e-13 -1.98571e-13 -6.33006e-14)
(5.66083e-13 -6.71854e-13 -5.17036e-14)
(4.46752e-13 -6.10572e-13 -4.27066e-14)
(3.45686e-13 -5.55217e-13 -3.56847e-14)