/*--------------------------------*- C++ -*----------------------------------*\
| =========                 |                                                 |
| \\      /  F ield         | OpenFOAM: The Open Source CFD Toolbox           |
|  \\    /   O peration     | Version:  4.1                                   |
|   \\  /    A nd           | Web:      www.OpenFOAM.org                      |
|    \\/     M anipulation  |                                                 |
\*---------------------------------------------------------------------------*/
FoamFile
{
    version     2.0;
    format      ascii;
    class       volScalarField;
    location    "8.56";
    object      T;
}
// * * * * * * * * * * * * * * * * * * * * * * * * * * * * * * * * * * * * * //

dimensions      [0 0 0 1 0 0 0];

internalField   nonuniform List<scalar> 
52500
(
0.999996
1.00002
1.00005
1.00019
1.00035
1.00115
1.0021
1.00641
1.01282
1.03454
1.08751
1.20611
1.59265
2.45706
2.69124
2.72689
2.72397
2.7243
2.73826
2.75028
2.76397
2.7727
2.78012
2.78514
2.78959
0.999996
1.00002
1.00005
1.00019
1.00035
1.00113
1.00208
1.00634
1.01268
1.03416
1.08676
1.20356
1.58825
2.44934
2.68844
2.72676
2.7236
2.72387
2.73768
2.74947
2.76308
2.77127
2.77871
2.78281
2.78655
0.999996
1.00002
1.00005
1.00019
1.00034
1.00111
1.00203
1.0062
1.01241
1.03339
1.08515
1.19833
1.57849
2.43193
2.6814
2.72561
2.72187
2.72201
2.7358
2.74692
2.76052
2.76901
2.77526
2.78013
2.78256
0.999996
1.00002
1.00005
1.00018
1.00033
1.00107
1.00196
1.00598
1.01199
1.03224
1.08269
1.19046
1.5632
2.40357
2.67037
2.72369
2.71916
2.71853
2.7314
2.74363
2.75456
2.7637
2.77104
2.77346
2.77767
0.999996
1.00002
1.00005
1.00017
1.00031
1.00101
1.00186
1.00562
1.01146
1.03037
1.07965
1.18032
1.54237
2.36259
2.65477
2.72111
2.71536
2.71376
2.72532
2.73769
2.75036
2.75498
2.76254
2.76711
2.76708
0.999996
1.00002
1.00004
1.00016
1.00029
1.00094
1.00175
1.00519
1.01081
1.02805
1.07532
1.16739
1.51694
2.30887
2.63467
2.71793
2.71162
2.70687
2.71938
2.72622
2.74084
2.74816
2.75072
2.75403
2.75736
0.999995
1.00002
1.00004
1.00015
1.00027
1.00087
1.00162
1.00477
1.01001
1.02581
1.0695
1.15392
1.47888
2.23578
2.60694
2.71317
2.7065
2.70021
2.71278
2.71975
2.726
2.73365
2.73942
2.73937
2.73662
0.999995
1.00002
1.00004
1.00013
1.00025
1.00081
1.00148
1.00449
1.00904
1.02415
1.06175
1.14125
1.42223
2.13234
2.57125
2.70343
2.69527
2.68716
2.69909
2.7098
2.71694
2.71673
2.7181
2.71769
2.71453
0.999995
1.00001
1.00003
1.00012
1.00022
1.00073
1.00133
1.00416
1.00798
1.02253
1.05247
1.12661
1.35911
2.00257
2.52655
2.69376
2.68668
2.67267
2.6822
2.68761
2.69835
2.70039
2.6961
2.68566
2.66312
0.999995
1.00001
1.00003
1.0001
1.0002
1.00063
1.00117
1.0036
1.007
1.01973
1.04478
1.11266
1.29904
1.89357
2.44745
2.66377
2.66369
2.65996
2.67154
2.6717
2.67334
2.67218
2.66357
2.64214
2.59068
1.00001
1.00003
1.00006
1.0002
1.00036
1.00115
1.00211
1.00642
1.01283
1.03455
1.08752
1.20615
1.59268
2.45718
2.69133
2.72696
2.72405
2.72437
2.73833
2.75036
2.76405
2.77278
2.7802
2.78522
2.78968
1.00001
1.00003
1.00006
1.0002
1.00036
1.00114
1.00209
1.00635
1.01269
1.03418
1.08677
1.20361
1.58828
2.44946
2.68853
2.72684
2.72367
2.72394
2.73776
2.74955
2.76316
2.77135
2.7788
2.78289
2.78663
1.00001
1.00003
1.00006
1.00019
1.00035
1.00112
1.00204
1.00621
1.01242
1.03341
1.08516
1.19837
1.57852
2.43206
2.68149
2.72568
2.72195
2.72208
2.73588
2.74699
2.7606
2.7691
2.77535
2.78021
2.78265
1
1.00003
1.00006
1.00019
1.00034
1.00108
1.00197
1.00599
1.012
1.03225
1.0827
1.19051
1.56323
2.4037
2.67045
2.72376
2.71923
2.7186
2.73148
2.7437
2.75464
2.76378
2.77112
2.77354
2.77776
1
1.00003
1.00005
1.00018
1.00032
1.00102
1.00187
1.00564
1.01147
1.0304
1.07966
1.18036
1.54239
2.36271
2.65486
2.72118
2.71543
2.71383
2.72539
2.73777
2.75044
2.75505
2.76262
2.76719
2.76716
1
1.00003
1.00005
1.00017
1.0003
1.00095
1.00176
1.0052
1.01082
1.02807
1.07533
1.16743
1.51698
2.30901
2.63476
2.71799
2.71169
2.70694
2.71945
2.72629
2.74092
2.74824
2.75079
2.75411
2.75744
1
1.00002
1.00005
1.00015
1.00028
1.00088
1.00162
1.00478
1.01002
1.02583
1.06952
1.15396
1.47893
2.23593
2.60702
2.71324
2.70657
2.70028
2.71285
2.71982
2.72607
2.73373
2.7395
2.73945
2.73669
1
1.00002
1.00004
1.00014
1.00026
1.00081
1.00149
1.00451
1.00905
1.02417
1.06175
1.14129
1.42224
2.13247
2.57134
2.7035
2.69534
2.68722
2.69915
2.70988
2.71701
2.7168
2.71817
2.71777
2.7146
1
1.00002
1.00004
1.00013
1.00023
1.00074
1.00134
1.00417
1.00799
1.02254
1.05248
1.12665
1.35915
2.00271
2.52663
2.69383
2.68675
2.67274
2.68227
2.68768
2.69842
2.70046
2.69617
2.68573
2.66318
1
1.00002
1.00003
1.00011
1.0002
1.00064
1.00118
1.00361
1.00701
1.01975
1.04479
1.11268
1.29908
1.89366
2.44757
2.66383
2.66375
2.66003
2.67161
2.67177
2.67341
2.67225
2.66364
2.64221
2.59074
1.00001
1.00003
1.00006
1.0002
1.00036
1.00115
1.00211
1.00642
1.01283
1.03455
1.08752
1.20615
1.59269
2.45719
2.69133
2.72696
2.72405
2.72437
2.73833
2.75036
2.76405
2.77278
2.7802
2.78522
2.78968
1.00001
1.00003
1.00006
1.0002
1.00036
1.00114
1.00209
1.00635
1.01269
1.03418
1.08677
1.20361
1.58829
2.44947
2.68853
2.72684
2.72367
2.72394
2.73776
2.74955
2.76316
2.77135
2.7788
2.78289
2.78663
1.00001
1.00003
1.00006
1.00019
1.00035
1.00112
1.00204
1.00621
1.01242
1.03341
1.08516
1.19837
1.57852
2.43206
2.68149
2.72568
2.72195
2.72208
2.73588
2.74699
2.7606
2.7691
2.77535
2.78021
2.78265
1
1.00003
1.00006
1.00019
1.00034
1.00108
1.00197
1.00599
1.012
1.03225
1.0827
1.19051
1.56323
2.4037
2.67046
2.72376
2.71923
2.7186
2.73148
2.7437
2.75464
2.76378
2.77112
2.77354
2.77776
1
1.00003
1.00005
1.00018
1.00032
1.00102
1.00187
1.00564
1.01147
1.0304
1.07966
1.18036
1.54239
2.36272
2.65486
2.72118
2.71543
2.71383
2.72539
2.73777
2.75044
2.75505
2.76262
2.76719
2.76716
1
1.00003
1.00005
1.00017
1.0003
1.00095
1.00176
1.0052
1.01082
1.02807
1.07533
1.16744
1.51699
2.30902
2.63476
2.71799
2.71169
2.70694
2.71945
2.72629
2.74092
2.74823
2.75079
2.75411
2.75744
1
1.00002
1.00005
1.00015
1.00028
1.00088
1.00162
1.00478
1.01002
1.02583
1.06952
1.15396
1.47894
2.23594
2.60702
2.71324
2.70657
2.70028
2.71285
2.71982
2.72607
2.73373
2.7395
2.73945
2.73669
1
1.00002
1.00004
1.00014
1.00026
1.00081
1.00149
1.00451
1.00905
1.02417
1.06175
1.14129
1.42225
2.13248
2.57134
2.7035
2.69534
2.68723
2.69915
2.70988
2.71701
2.7168
2.71817
2.71777
2.7146
1
1.00002
1.00004
1.00013
1.00023
1.00074
1.00134
1.00417
1.00799
1.02254
1.05249
1.12665
1.35915
2.00273
2.52663
2.69383
2.68675
2.67274
2.68227
2.68768
2.69842
2.70046
2.69617
2.68573
2.66318
1
1.00002
1.00003
1.00011
1.0002
1.00064
1.00118
1.00361
1.00701
1.01975
1.04479
1.11269
1.29909
1.89366
2.44757
2.66383
2.66375
2.66003
2.67161
2.67177
2.67341
2.67225
2.66364
2.64221
2.59074
1.00001
1.00003
1.00006
1.0002
1.00036
1.00115
1.00211
1.00642
1.01283
1.03455
1.08752
1.20615
1.59269
2.45719
2.69133
2.72696
2.72405
2.72437
2.73833
2.75036
2.76405
2.77278
2.7802
2.78522
2.78968
1.00001
1.00003
1.00006
1.0002
1.00036
1.00114
1.00209
1.00635
1.01269
1.03418
1.08677
1.20361
1.58829
2.44947
2.68853
2.72684
2.72367
2.72394
2.73776
2.74955
2.76316
2.77135
2.7788
2.78289
2.78663
1.00001
1.00003
1.00006
1.00019
1.00035
1.00112
1.00204
1.00621
1.01242
1.03341
1.08516
1.19837
1.57852
2.43206
2.68149
2.72568
2.72195
2.72208
2.73588
2.74699
2.7606
2.7691
2.77535
2.78021
2.78265
1
1.00003
1.00006
1.00019
1.00034
1.00108
1.00197
1.00599
1.012
1.03225
1.0827
1.19051
1.56323
2.4037
2.67046
2.72376
2.71923
2.7186
2.73148
2.7437
2.75464
2.76378
2.77112
2.77354
2.77776
1
1.00003
1.00005
1.00018
1.00032
1.00102
1.00187
1.00564
1.01147
1.0304
1.07966
1.18036
1.54239
2.36272
2.65486
2.72118
2.71543
2.71383
2.72539
2.73777
2.75044
2.75505
2.76262
2.76719
2.76716
1
1.00003
1.00005
1.00017
1.0003
1.00095
1.00176
1.0052
1.01082
1.02807
1.07533
1.16744
1.51699
2.30902
2.63476
2.71799
2.71169
2.70694
2.71945
2.72629
2.74092
2.74823
2.75079
2.75411
2.75744
1
1.00002
1.00005
1.00015
1.00028
1.00088
1.00162
1.00478
1.01002
1.02583
1.06952
1.15396
1.47894
2.23594
2.60702
2.71324
2.70657
2.70028
2.71285
2.71982
2.72607
2.73373
2.7395
2.73945
2.73669
1
1.00002
1.00004
1.00014
1.00026
1.00081
1.00149
1.00451
1.00905
1.02417
1.06175
1.14129
1.42225
2.13248
2.57134
2.7035
2.69534
2.68723
2.69915
2.70988
2.71701
2.7168
2.71817
2.71777
2.7146
1
1.00002
1.00004
1.00013
1.00023
1.00074
1.00134
1.00417
1.00799
1.02254
1.05249
1.12665
1.35915
2.00273
2.52663
2.69383
2.68675
2.67274
2.68227
2.68768
2.69842
2.70046
2.69617
2.68573
2.66318
1
1.00002
1.00003
1.00011
1.0002
1.00064
1.00118
1.00361
1.00701
1.01975
1.04479
1.11269
1.29909
1.89366
2.44757
2.66383
2.66375
2.66003
2.67161
2.67177
2.67341
2.67225
2.66364
2.64221
2.59074
1.00001
1.00003
1.00006
1.0002
1.00036
1.00115
1.00211
1.00642
1.01283
1.03455
1.08752
1.20615
1.59269
2.45719
2.69133
2.72696
2.72405
2.72437
2.73833
2.75036
2.76405
2.77278
2.7802
2.78522
2.78968
1.00001
1.00003
1.00006
1.0002
1.00036
1.00114
1.00209
1.00635
1.01269
1.03418
1.08677
1.20361
1.58829
2.44947
2.68853
2.72684
2.72367
2.72394
2.73776
2.74955
2.76316
2.77135
2.7788
2.78289
2.78663
1.00001
1.00003
1.00006
1.00019
1.00035
1.00112
1.00204
1.00621
1.01242
1.03341
1.08516
1.19837
1.57852
2.43206
2.68149
2.72568
2.72195
2.72208
2.73588
2.74699
2.7606
2.7691
2.77535
2.78021
2.78265
1
1.00003
1.00006
1.00019
1.00034
1.00108
1.00197
1.00599
1.012
1.03225
1.0827
1.19051
1.56323
2.4037
2.67046
2.72376
2.71923
2.7186
2.73148
2.7437
2.75464
2.76378
2.77112
2.77354
2.77776
1
1.00003
1.00005
1.00018
1.00032
1.00102
1.00187
1.00564
1.01147
1.0304
1.07966
1.18036
1.5424
2.36272
2.65486
2.72118
2.71543
2.71383
2.72539
2.73777
2.75044
2.75505
2.76262
2.76719
2.76716
1
1.00003
1.00005
1.00017
1.0003
1.00095
1.00176
1.0052
1.01082
1.02807
1.07533
1.16744
1.51699
2.30902
2.63476
2.71799
2.71169
2.70694
2.71945
2.72629
2.74092
2.74823
2.75079
2.75411
2.75744
1
1.00002
1.00005
1.00015
1.00028
1.00088
1.00162
1.00478
1.01002
1.02583
1.06952
1.15396
1.47894
2.23594
2.60703
2.71324
2.70657
2.70028
2.71285
2.71982
2.72607
2.73373
2.7395
2.73945
2.73669
1
1.00002
1.00004
1.00014
1.00026
1.00081
1.00149
1.00451
1.00905
1.02417
1.06175
1.14129
1.42225
2.13248
2.57134
2.7035
2.69534
2.68723
2.69915
2.70988
2.71701
2.7168
2.71817
2.71777
2.7146
1
1.00002
1.00004
1.00013
1.00023
1.00074
1.00134
1.00417
1.00799
1.02254
1.05249
1.12665
1.35915
2.00273
2.52663
2.69383
2.68675
2.67274
2.68227
2.68768
2.69842
2.70046
2.69617
2.68573
2.66318
1
1.00002
1.00003
1.00011
1.0002
1.00064
1.00118
1.00361
1.00701
1.01975
1.04479
1.11269
1.29909
1.89366
2.44757
2.66383
2.66375
2.66003
2.67161
2.67177
2.67341
2.67225
2.66364
2.64221
2.59074
1.00001
1.00003
1.00006
1.0002
1.00036
1.00115
1.00211
1.00642
1.01283
1.03455
1.08752
1.20615
1.59269
2.45719
2.69133
2.72696
2.72405
2.72437
2.73833
2.75036
2.76405
2.77278
2.7802
2.78522
2.78968
1.00001
1.00003
1.00006
1.0002
1.00036
1.00114
1.00209
1.00635
1.01269
1.03418
1.08677
1.20361
1.58829
2.44947
2.68853
2.72684
2.72367
2.72394
2.73776
2.74955
2.76316
2.77135
2.7788
2.78289
2.78663
1.00001
1.00003
1.00006
1.00019
1.00035
1.00112
1.00204
1.00621
1.01242
1.03341
1.08516
1.19837
1.57852
2.43206
2.68149
2.72568
2.72195
2.72208
2.73588
2.74699
2.7606
2.7691
2.77535
2.78021
2.78265
1
1.00003
1.00006
1.00019
1.00034
1.00108
1.00197
1.00599
1.012
1.03225
1.0827
1.19051
1.56323
2.4037
2.67046
2.72376
2.71923
2.7186
2.73148
2.7437
2.75464
2.76378
2.77112
2.77354
2.77776
1
1.00003
1.00005
1.00018
1.00032
1.00102
1.00187
1.00564
1.01147
1.0304
1.07966
1.18036
1.5424
2.36272
2.65486
2.72118
2.71543
2.71383
2.72539
2.73777
2.75044
2.75505
2.76262
2.76719
2.76716
1
1.00003
1.00005
1.00017
1.0003
1.00095
1.00176
1.0052
1.01082
1.02807
1.07533
1.16744
1.51699
2.30902
2.63476
2.71799
2.71169
2.70694
2.71945
2.72629
2.74092
2.74823
2.75079
2.75411
2.75744
1
1.00002
1.00005
1.00015
1.00028
1.00088
1.00162
1.00478
1.01002
1.02583
1.06952
1.15396
1.47894
2.23594
2.60703
2.71324
2.70657
2.70028
2.71285
2.71982
2.72607
2.73373
2.7395
2.73945
2.73669
1
1.00002
1.00004
1.00014
1.00026
1.00081
1.00149
1.00451
1.00905
1.02417
1.06175
1.14129
1.42225
2.13248
2.57134
2.7035
2.69534
2.68723
2.69915
2.70988
2.71701
2.7168
2.71817
2.71777
2.7146
1
1.00002
1.00004
1.00013
1.00023
1.00074
1.00134
1.00417
1.00799
1.02254
1.05249
1.12665
1.35915
2.00273
2.52663
2.69383
2.68675
2.67274
2.68227
2.68768
2.69842
2.70046
2.69617
2.68573
2.66318
1
1.00002
1.00003
1.00011
1.0002
1.00064
1.00118
1.00361
1.00701
1.01975
1.04479
1.11269
1.29909
1.89366
2.44758
2.66383
2.66375
2.66003
2.67161
2.67177
2.67341
2.67225
2.66364
2.64221
2.59074
1.00001
1.00003
1.00006
1.0002
1.00036
1.00115
1.00211
1.00642
1.01283
1.03455
1.08752
1.20615
1.59269
2.45719
2.69133
2.72696
2.72405
2.72437
2.73833
2.75036
2.76405
2.77278
2.7802
2.78522
2.78968
1.00001
1.00003
1.00006
1.0002
1.00036
1.00114
1.00209
1.00635
1.01269
1.03418
1.08677
1.20361
1.58829
2.44947
2.68853
2.72684
2.72367
2.72394
2.73776
2.74955
2.76316
2.77135
2.7788
2.78289
2.78663
1.00001
1.00003
1.00006
1.00019
1.00035
1.00112
1.00204
1.00621
1.01242
1.03341
1.08516
1.19837
1.57852
2.43206
2.68149
2.72568
2.72195
2.72208
2.73588
2.74699
2.7606
2.7691
2.77535
2.78021
2.78265
1
1.00003
1.00006
1.00019
1.00034
1.00108
1.00197
1.00599
1.012
1.03225
1.0827
1.19051
1.56323
2.4037
2.67046
2.72376
2.71923
2.7186
2.73148
2.7437
2.75464
2.76378
2.77112
2.77354
2.77776
1
1.00003
1.00005
1.00018
1.00032
1.00102
1.00187
1.00564
1.01147
1.0304
1.07966
1.18036
1.5424
2.36272
2.65486
2.72118
2.71543
2.71383
2.72539
2.73777
2.75044
2.75505
2.76262
2.76719
2.76716
1
1.00003
1.00005
1.00017
1.0003
1.00095
1.00176
1.0052
1.01082
1.02807
1.07533
1.16744
1.51699
2.30902
2.63476
2.71799
2.71169
2.70694
2.71945
2.72629
2.74092
2.74823
2.75079
2.75411
2.75744
1
1.00002
1.00005
1.00015
1.00028
1.00088
1.00162
1.00478
1.01002
1.02583
1.06952
1.15396
1.47894
2.23594
2.60703
2.71324
2.70657
2.70028
2.71285
2.71982
2.72607
2.73373
2.7395
2.73945
2.73669
1
1.00002
1.00004
1.00014
1.00026
1.00081
1.00149
1.00451
1.00905
1.02417
1.06175
1.14129
1.42225
2.13248
2.57134
2.7035
2.69534
2.68723
2.69915
2.70988
2.71701
2.7168
2.71817
2.71777
2.7146
1
1.00002
1.00004
1.00013
1.00023
1.00074
1.00134
1.00417
1.00799
1.02254
1.05249
1.12665
1.35915
2.00273
2.52663
2.69383
2.68675
2.67274
2.68227
2.68768
2.69842
2.70046
2.69617
2.68573
2.66318
1
1.00002
1.00003
1.00011
1.0002
1.00064
1.00118
1.00361
1.00701
1.01975
1.04479
1.11269
1.29909
1.89366
2.44757
2.66383
2.66375
2.66003
2.67161
2.67177
2.67341
2.67225
2.66364
2.64221
2.59074
1.00001
1.00003
1.00006
1.0002
1.00036
1.00115
1.00211
1.00642
1.01283
1.03455
1.08752
1.20615
1.59269
2.45719
2.69133
2.72696
2.72405
2.72437
2.73833
2.75036
2.76405
2.77278
2.7802
2.78522
2.78968
1.00001
1.00003
1.00006
1.0002
1.00036
1.00114
1.00209
1.00635
1.01269
1.03418
1.08677
1.20361
1.58829
2.44947
2.68853
2.72684
2.72367
2.72394
2.73776
2.74955
2.76316
2.77135
2.7788
2.78289
2.78663
1.00001
1.00003
1.00006
1.00019
1.00035
1.00112
1.00204
1.00621
1.01242
1.03341
1.08516
1.19837
1.57852
2.43206
2.68149
2.72568
2.72195
2.72208
2.73588
2.74699
2.7606
2.7691
2.77535
2.78021
2.78265
1
1.00003
1.00006
1.00019
1.00034
1.00108
1.00197
1.00599
1.012
1.03225
1.0827
1.19051
1.56323
2.4037
2.67046
2.72376
2.71923
2.7186
2.73148
2.7437
2.75464
2.76378
2.77112
2.77354
2.77776
1
1.00003
1.00005
1.00018
1.00032
1.00102
1.00187
1.00564
1.01147
1.0304
1.07966
1.18036
1.54239
2.36272
2.65486
2.72118
2.71543
2.71383
2.72539
2.73777
2.75044
2.75505
2.76262
2.76719
2.76716
1
1.00003
1.00005
1.00017
1.0003
1.00095
1.00176
1.0052
1.01082
1.02807
1.07533
1.16744
1.51699
2.30902
2.63476
2.71799
2.71169
2.70694
2.71945
2.72629
2.74092
2.74823
2.75079
2.75411
2.75744
1
1.00002
1.00005
1.00015
1.00028
1.00088
1.00162
1.00478
1.01002
1.02583
1.06952
1.15396
1.47894
2.23594
2.60702
2.71324
2.70657
2.70028
2.71285
2.71982
2.72607
2.73373
2.7395
2.73945
2.73669
1
1.00002
1.00004
1.00014
1.00026
1.00081
1.00149
1.00451
1.00905
1.02417
1.06175
1.14129
1.42225
2.13248
2.57134
2.7035
2.69534
2.68723
2.69915
2.70988
2.71701
2.7168
2.71817
2.71777
2.7146
1
1.00002
1.00004
1.00013
1.00023
1.00074
1.00134
1.00417
1.00799
1.02254
1.05249
1.12665
1.35915
2.00273
2.52663
2.69383
2.68675
2.67274
2.68227
2.68768
2.69842
2.70046
2.69617
2.68573
2.66318
1
1.00002
1.00003
1.00011
1.0002
1.00064
1.00118
1.00361
1.00701
1.01975
1.04479
1.11269
1.29909
1.89366
2.44757
2.66383
2.66375
2.66003
2.67161
2.67177
2.67341
2.67225
2.66364
2.64221
2.59074
1.00001
1.00003
1.00006
1.0002
1.00036
1.00115
1.00211
1.00642
1.01283
1.03455
1.08752
1.20615
1.59268
2.45718
2.69133
2.72696
2.72405
2.72437
2.73833
2.75036
2.76405
2.77278
2.7802
2.78522
2.78968
1.00001
1.00003
1.00006
1.0002
1.00036
1.00114
1.00209
1.00635
1.01269
1.03418
1.08677
1.20361
1.58828
2.44946
2.68853
2.72684
2.72367
2.72394
2.73776
2.74955
2.76316
2.77135
2.7788
2.78289
2.78663
1.00001
1.00003
1.00006
1.00019
1.00035
1.00112
1.00204
1.00621
1.01242
1.03341
1.08516
1.19837
1.57852
2.43206
2.68149
2.72568
2.72195
2.72208
2.73588
2.74699
2.7606
2.7691
2.77535
2.78021
2.78265
1
1.00003
1.00006
1.00019
1.00034
1.00108
1.00197
1.00599
1.012
1.03225
1.0827
1.19051
1.56323
2.4037
2.67045
2.72376
2.71923
2.7186
2.73148
2.7437
2.75464
2.76378
2.77112
2.77354
2.77776
1
1.00003
1.00005
1.00018
1.00032
1.00102
1.00187
1.00564
1.01147
1.0304
1.07966
1.18036
1.54239
2.36271
2.65486
2.72118
2.71543
2.71383
2.72539
2.73777
2.75044
2.75505
2.76262
2.76719
2.76716
1
1.00003
1.00005
1.00017
1.0003
1.00095
1.00176
1.0052
1.01082
1.02807
1.07533
1.16743
1.51698
2.30901
2.63476
2.71799
2.71169
2.70694
2.71945
2.72629
2.74092
2.74824
2.75079
2.75411
2.75744
1
1.00002
1.00005
1.00015
1.00028
1.00088
1.00162
1.00478
1.01002
1.02583
1.06952
1.15396
1.47893
2.23593
2.60702
2.71324
2.70657
2.70028
2.71285
2.71982
2.72607
2.73373
2.7395
2.73945
2.73669
1
1.00002
1.00004
1.00014
1.00026
1.00081
1.00149
1.00451
1.00905
1.02417
1.06175
1.14129
1.42224
2.13247
2.57134
2.7035
2.69534
2.68722
2.69915
2.70988
2.71701
2.7168
2.71817
2.71777
2.7146
1
1.00002
1.00004
1.00013
1.00023
1.00074
1.00134
1.00417
1.00799
1.02254
1.05248
1.12665
1.35915
2.00271
2.52663
2.69383
2.68675
2.67274
2.68227
2.68768
2.69842
2.70046
2.69617
2.68573
2.66318
1
1.00002
1.00003
1.00011
1.0002
1.00064
1.00118
1.00361
1.00701
1.01975
1.04479
1.11268
1.29908
1.89366
2.44757
2.66383
2.66375
2.66003
2.67161
2.67177
2.67341
2.67225
2.66364
2.64221
2.59074
0.999996
1.00002
1.00005
1.00019
1.00035
1.00115
1.0021
1.00641
1.01282
1.03454
1.08751
1.20611
1.59265
2.45706
2.69124
2.72689
2.72397
2.7243
2.73826
2.75028
2.76397
2.7727
2.78012
2.78514
2.78959
0.999996
1.00002
1.00005
1.00019
1.00035
1.00113
1.00208
1.00634
1.01268
1.03416
1.08676
1.20356
1.58825
2.44934
2.68844
2.72676
2.7236
2.72387
2.73768
2.74947
2.76308
2.77127
2.77871
2.78281
2.78655
0.999996
1.00002
1.00005
1.00019
1.00034
1.00111
1.00203
1.0062
1.01241
1.03339
1.08515
1.19833
1.57849
2.43193
2.6814
2.72561
2.72187
2.72201
2.7358
2.74692
2.76052
2.76901
2.77526
2.78013
2.78256
0.999996
1.00002
1.00005
1.00018
1.00033
1.00107
1.00196
1.00598
1.01199
1.03224
1.08269
1.19046
1.5632
2.40357
2.67037
2.72369
2.71916
2.71853
2.7314
2.74363
2.75456
2.7637
2.77104
2.77346
2.77767
0.999996
1.00002
1.00005
1.00017
1.00031
1.00101
1.00186
1.00562
1.01146
1.03037
1.07965
1.18032
1.54237
2.36259
2.65477
2.72111
2.71536
2.71376
2.72532
2.73769
2.75036
2.75498
2.76254
2.76711
2.76708
0.999996
1.00002
1.00004
1.00016
1.00029
1.00094
1.00175
1.00519
1.01081
1.02805
1.07532
1.16739
1.51694
2.30887
2.63467
2.71793
2.71162
2.70687
2.71938
2.72622
2.74084
2.74816
2.75072
2.75403
2.75736
0.999995
1.00002
1.00004
1.00015
1.00027
1.00087
1.00162
1.00477
1.01001
1.02581
1.0695
1.15392
1.47888
2.23578
2.60694
2.71317
2.7065
2.70021
2.71278
2.71975
2.726
2.73365
2.73942
2.73937
2.73662
0.999995
1.00002
1.00004
1.00013
1.00025
1.00081
1.00148
1.00449
1.00904
1.02415
1.06175
1.14125
1.42223
2.13234
2.57125
2.70343
2.69527
2.68716
2.69909
2.7098
2.71694
2.71673
2.7181
2.71769
2.71453
0.999995
1.00001
1.00003
1.00012
1.00022
1.00073
1.00133
1.00416
1.00798
1.02253
1.05247
1.12661
1.35911
2.00257
2.52655
2.69376
2.68668
2.67267
2.6822
2.68761
2.69835
2.70039
2.6961
2.68566
2.66312
0.999995
1.00001
1.00003
1.0001
1.0002
1.00063
1.00117
1.0036
1.007
1.01973
1.04478
1.11266
1.29904
1.89357
2.44745
2.66377
2.66369
2.65996
2.67154
2.6717
2.67334
2.67218
2.66357
2.64214
2.59068
0.999997
1
1.00003
1.00006
1.00022
1.00041
1.00128
1.00246
1.00691
1.01539
1.03826
1.1063
1.2427
1.67486
2.48792
2.64042
2.62639
2.63199
2.64439
2.65333
2.65158
2.64285
2.62192
2.57254
2.41317
0.999996
1
1.00003
1.00006
1.0002
1.00036
1.00117
1.00214
1.00658
1.01301
1.03533
1.08782
1.21061
1.59003
2.42306
2.61626
2.6221
2.61558
2.61714
2.62703
2.62591
2.61194
2.57767
2.51964
2.36001
0.999996
1
1.00002
1.00005
1.00017
1.00031
1.00099
1.00182
1.00549
1.01114
1.02953
1.0769
1.174
1.52009
2.29769
2.56733
2.61834
2.61021
2.59445
2.59542
2.59471
2.58127
2.54104
2.48556
2.36247
0.999995
0.999999
1.00002
1.00004
1.00014
1.00026
1.00082
1.00153
1.00449
1.0094
1.02417
1.06464
1.14312
1.44091
2.13037
2.51081
2.61454
2.60272
2.58854
2.56982
2.55905
2.54531
2.51308
2.46759
2.36905
0.999995
0.999998
1.00001
1.00003
1.00011
1.00021
1.00069
1.00128
1.00393
1.00764
1.02142
1.04961
1.12203
1.33381
1.97119
2.39537
2.58377
2.58165
2.57611
2.56056
2.53582
2.51156
2.47434
2.44417
2.37492
0.999994
0.999999
1
1.00003
1.00006
1.00022
1.00041
1.00127
1.00245
1.00683
1.01529
1.03774
1.1042
1.2393
1.64351
2.36509
2.54234
2.54253
2.54386
2.53865
2.52218
2.49836
2.44853
2.40763
2.36686
0.999994
0.999998
1
1.00003
1.00005
1.00018
1.00034
1.00108
1.00197
1.00605
1.01193
1.0323
1.08076
1.18808
1.54059
2.28816
2.50473
2.52335
2.51475
2.5096
2.4969
2.48227
2.44622
2.38933
2.34434
0.999994
0.999996
1
1.00002
1.00004
1.00014
1.00026
1.00081
1.00153
1.00436
1.00953
1.02382
1.06536
1.14296
1.44326
2.1245
2.44306
2.51558
2.49846
2.48963
2.47055
2.44891
2.43203
2.38888
2.33592
0.999993
0.999994
1
1.00001
1.00004
1.00007
1.00024
1.00047
1.00134
1.00294
1.00728
1.01941
1.04337
1.12889
1.28854
1.83649
2.31117
2.49219
2.48785
2.47637
2.46051
2.43092
2.4052
2.38108
2.33549
0.999993
0.999994
0.999998
1
1.00003
1.00006
1.0002
1.00037
1.00117
1.00217
1.00647
1.0133
1.03483
1.08936
1.21055
1.57041
2.26078
2.42998
2.4521
2.44515
2.43653
2.41872
2.38758
2.36483
2.33269
0.999992
0.999993
0.999995
1
1.00001
1.00005
1.00011
1.00034
1.00066
1.00184
1.00406
1.00998
1.0269
1.05941
1.18032
1.40825
2.05896
2.39126
2.4415
2.43212
2.41445
2.39899
2.37554
2.34823
2.32363
0.999992
0.999993
0.999994
1
1.00001
1.00004
1.00008
1.00027
1.0005
1.00155
1.00296
1.00829
1.01859
1.04546
1.1276
1.29261
1.76338
2.26493
2.41819
2.41563
2.40169
2.38301
2.36307
2.33983
2.31471
0.999992
0.999992
0.999994
0.999996
1.00001
1.00002
1.00008
1.00015
1.00048
1.0009
1.00271
1.0053
1.01485
1.03249
1.08466
1.20395
1.61117
2.1007
2.36601
2.39415
2.38793
2.37332
2.34954
2.33009
2.30733
0.999991
0.999992
0.999993
0.999995
1
1.00001
1.00005
1.0001
1.00034
1.00064
1.00196
1.00374
1.01043
1.02343
1.05687
1.15642
1.37635
1.91721
2.25929
2.36505
2.37052
2.3639
2.34711
2.32766
2.3097
0.999991
0.999992
0.999992
0.999994
0.999997
1.00001
1.00003
1.0001
1.00019
1.00058
1.0011
1.00327
1.00645
1.01769
1.04003
1.09958
1.25395
1.71638
2.13652
2.31425
2.33684
2.34144
2.33756
2.32961
2.31777
0.999991
0.999991
0.999992
0.999993
0.999995
1
1.00002
1.00007
1.00013
1.00041
1.00077
1.00235
1.00445
1.01275
1.02734
1.06885
1.17452
1.46886
1.9867
2.26072
2.31223
2.31812
2.32679
2.32747
2.33566
0.999991
0.999991
0.999991
0.999992
0.999995
0.999998
1.00001
1.00003
1.00011
1.00022
1.00068
1.00127
1.0038
1.00754
1.02013
1.04862
1.11301
1.31215
1.81424
2.16361
2.29449
2.30414
2.3119
2.32978
2.35034
0.999991
0.999991
0.999991
0.999992
0.999994
0.999996
1.00001
1.00002
1.00008
1.00015
1.00048
1.00088
1.00268
1.00511
1.01468
1.03035
1.08291
1.18681
1.58901
1.98756
2.24957
2.30522
2.32059
2.34124
2.37113
0.999991
0.999991
0.999991
0.999992
0.999992
0.999995
0.999999
1.00001
1.00004
1.00012
1.00024
1.00074
1.00141
1.00398
1.00852
1.0214
1.05616
1.12478
1.35777
1.90495
2.15049
2.28595
2.33896
2.37036
2.39666
0.999991
0.999991
0.999991
0.999991
0.999992
0.999993
0.999998
1
1.00003
1.00006
1.00021
1.0004
1.00123
1.00232
1.00669
1.01395
1.03562
1.08891
1.21397
1.5352
2.11289
2.2946
2.37726
2.4101
2.43069
0.999991
0.999991
0.999991
0.999991
0.999992
0.999992
0.999996
1
1.00002
1.00004
1.00015
1.00028
1.00086
1.00161
1.00465
1.00977
1.02476
1.06545
1.14422
1.42779
2.02704
2.30944
2.44584
2.47715
2.47568
0.999991
0.999991
0.999991
0.999991
0.999991
0.999992
0.999993
0.999999
1.00001
1.00004
1.00008
1.00026
1.00049
1.00147
1.0029
1.00774
1.01816
1.0434
1.12059
1.27813
1.71436
2.32093
2.52429
2.54154
2.52537
0.999991
0.999991
0.999991
0.999991
0.999991
0.999992
0.999993
0.999998
1
1.00003
1.00006
1.00022
1.00039
1.00127
1.00232
1.00715
1.01407
1.03847
1.09345
1.23255
1.61246
2.38123
2.60285
2.61408
2.57124
0.999991
0.999991
0.999991
0.999991
0.999991
0.999992
0.999992
0.999996
1
1.00002
1.00005
1.00018
1.00033
1.00107
1.00196
1.00608
1.01213
1.03315
1.08388
1.19981
1.57679
2.39319
2.6807
2.69532
2.63206
0.999991
0.999991
0.999991
0.999991
0.999991
0.999991
0.999992
0.999995
0.999999
1.00002
1.00004
1.00015
1.00028
1.00087
1.00174
1.00476
1.01133
1.02774
1.0801
1.17552
1.56131
2.37352
2.73139
2.74357
2.67939
0.999991
0.999991
0.999991
0.999991
0.999991
0.999991
0.999992
0.999994
1
1.00001
1.00004
1.00009
1.00026
1.00064
1.00153
1.00429
1.00949
1.02901
1.06049
1.20547
1.47527
2.23958
2.7683
2.7777
2.7264
0.999991
0.999991
0.999991
0.999991
0.999991
0.999991
0.999992
0.999994
0.999997
1.00001
1.00003
1.00011
1.00023
1.00061
1.00154
1.00363
1.01033
1.02299
1.07179
1.15044
1.51901
2.24809
2.76197
2.7711
2.72982
0.999991
0.999991
0.999991
0.999991
0.999991
0.999991
0.999992
0.999993
0.999999
1.00001
1.00004
1.00008
1.00026
1.00055
1.00147
1.00365
1.00866
1.02517
1.05492
1.17932
1.41656
2.1249
2.76538
2.77223
2.73501
0.999991
0.999991
0.999991
0.999991
0.999991
0.999991
0.999992
0.999993
0.999999
1.00001
1.00004
1.00008
1.00025
1.0005
1.00141
1.0033
1.00807
1.02305
1.05116
1.16425
1.38308
2.04521
2.73623
2.77056
2.74126
0.999991
0.999991
0.999991
0.999991
0.999991
0.999991
0.999992
0.999994
0.999997
1.00001
1.00003
1.0001
1.0002
1.00062
1.00126
1.00343
1.00822
1.01992
1.0575
1.12646
1.39924
2.07352
2.68619
2.75675
2.73541
0.999991
0.999991
0.999991
0.999991
0.999991
0.999991
0.999992
0.999993
0.999998
1
1.00003
1.00007
1.00022
1.00046
1.00123
1.00302
1.00711
1.02029
1.04411
1.13983
1.31898
1.9136
2.63576
2.76581
2.74586
0.999991
0.999991
0.999991
0.999991
0.999991
0.999991
0.999992
0.999994
0.999997
1.00001
1.00002
1.0001
1.00019
1.00062
1.00116
1.00359
1.00717
1.01979
1.0482
1.1161
1.32909
1.95224
2.56022
2.76488
2.7473
0.999991
0.999991
0.999991
0.999991
0.999991
0.999991
0.999992
0.999994
0.999996
1.00001
1.00002
1.0001
1.00018
1.0006
1.00112
1.00346
1.00686
1.01907
1.04578
1.11097
1.31282
1.91093
2.55079
2.76143
2.74206
0.999991
0.999991
0.999991
0.999991
0.999991
0.999991
0.999992
0.999993
0.999997
1
1.00003
1.00006
1.00021
1.00042
1.00117
1.00267
1.00652
1.01788
1.04001
1.12108
1.27145
1.74956
2.59523
2.76162
2.73786
0.999991
0.999991
0.999991
0.999991
0.999991
0.999991
0.999992
0.999994
0.999996
1.00001
1.00002
1.00009
1.00017
1.00053
1.00105
1.00296
1.00666
1.01659
1.04536
1.10179
1.30052
1.83005
2.53652
2.75685
2.73125
0.999991
0.999991
0.999991
0.999991
0.999991
0.999991
0.999992
0.999993
0.999997
1
1.00003
1.00006
1.0002
1.0004
1.00115
1.00253
1.00636
1.01682
1.03845
1.11418
1.25658
1.71931
2.57958
2.7497
2.71793
0.999991
0.999991
0.999991
0.999991
0.999991
0.999991
0.999992
0.999994
0.999996
1.00001
1.00002
1.00009
1.00017
1.00054
1.00101
1.00307
1.00624
1.01683
1.04199
1.09891
1.28299
1.79146
2.50786
2.7454
2.71807
0.999991
0.999991
0.999991
0.999991
0.999991
0.999991
0.999992
0.999993
0.999996
1.00001
1.00002
1.00008
1.00016
1.00052
1.00098
1.00289
1.00612
1.01601
1.04172
1.09632
1.28016
1.7704
2.50054
2.74222
2.72039
0.999991
0.999991
0.999991
0.999991
0.999991
0.999991
0.999992
0.999993
0.999997
1
1.00003
1.00006
1.00022
1.0004
1.00127
1.00243
1.00697
1.01532
1.03883
1.10616
1.2491
1.68974
2.56284
2.73194
2.71436
0.999991
0.999991
0.999991
0.999991
0.999991
0.999991
0.999992
0.999993
0.999998
1
1.00003
1.00006
1.00022
1.00041
1.00131
1.00241
1.00727
1.01495
1.03949
1.10292
1.2455
1.68061
2.5668
2.73473
2.7183
1.00001
1.00001
1.00004
1.00007
1.00023
1.00042
1.00129
1.00247
1.00692
1.0154
1.03828
1.10632
1.24274
1.67492
2.48798
2.64053
2.62648
2.63205
2.64444
2.65339
2.65164
2.64291
2.62198
2.5726
2.41322
1
1.00001
1.00004
1.00006
1.00021
1.00037
1.00118
1.00215
1.00659
1.01302
1.03535
1.08783
1.21066
1.59008
2.42315
2.61637
2.62217
2.61564
2.6172
2.62709
2.62596
2.612
2.57773
2.51969
2.36005
1
1.00001
1.00003
1.00005
1.00018
1.00032
1.001
1.00183
1.0055
1.01115
1.02955
1.07691
1.17405
1.52012
2.29781
2.56742
2.6184
2.61027
2.59451
2.59548
2.59477
2.58133
2.54109
2.48561
2.36252
1
1.00001
1.00002
1.00005
1.00015
1.00026
1.00083
1.00153
1.0045
1.00941
1.02418
1.06466
1.14316
1.44096
2.13052
2.5109
2.6146
2.60278
2.5886
2.56988
2.55911
2.54537
2.51313
2.46763
2.36909
1
1.00001
1.00002
1.00004
1.00012
1.00022
1.0007
1.00129
1.00394
1.00765
1.02144
1.04963
1.12206
1.33385
1.97134
2.39548
2.58384
2.58171
2.57617
2.56062
2.53587
2.51161
2.47439
2.44422
2.37497
1
1.00001
1.00001
1.00004
1.00007
1.00023
1.00042
1.00128
1.00246
1.00684
1.0153
1.03775
1.10422
1.23934
1.64358
2.36513
2.54242
2.54262
2.54392
2.53872
2.52223
2.49841
2.44858
2.40768
2.36691
1
1.00001
1.00001
1.00003
1.00006
1.00019
1.00034
1.00109
1.00198
1.00606
1.01194
1.03231
1.08077
1.18813
1.54065
2.28824
2.5048
2.5234
2.51481
2.50966
2.49696
2.48233
2.44627
2.38938
2.34439
1
1
1.00001
1.00003
1.00005
1.00014
1.00026
1.00081
1.00154
1.00437
1.00954
1.02384
1.06537
1.143
1.44332
2.12466
2.44314
2.51563
2.4985
2.48969
2.47061
2.44898
2.43209
2.38893
2.33596
1
1
1.00001
1.00001
1.00005
1.00008
1.00025
1.00048
1.00135
1.00295
1.00729
1.01943
1.0434