/*--------------------------------*- C++ -*----------------------------------*\
| =========                 |                                                 |
| \\      /  F ield         | OpenFOAM: The Open Source CFD Toolbox           |
|  \\    /   O peration     | Version:  4.1                                   |
|   \\  /    A nd           | Web:      www.OpenFOAM.org                      |
|    \\/     M anipulation  |                                                 |
\*---------------------------------------------------------------------------*/
FoamFile
{
    version     2.0;
    format      ascii;
    class       volScalarField;
    location    "0.66";
    object      Ma;
}
// * * * * * * * * * * * * * * * * * * * * * * * * * * * * * * * * * * * * * //

dimensions      [0 0 0 0 0 0 0];

internalField   nonuniform List<scalar> 
52500
(
2.92942
2.40872
1.37831
0.194826
0.168458
0.285217
0.230545
0.0581075
0.092548
0.177865
0.17002
0.171619
0.188067
0.203516
0.216109
0.223975
0.223766
0.214605
0.189769
0.149094
0.105678
0.0605555
0.0357832
0.0296482
0.0316585
2.92389
2.4153
1.39737
0.206219
0.176075
0.278247
0.235093
0.0689493
0.0971634
0.179569
0.174117
0.175554
0.1925
0.208131
0.22067
0.228366
0.228102
0.219383
0.195625
0.156607
0.115753
0.0768059
0.0601949
0.0580655
0.0609021
2.91248
2.43009
1.44124
0.231354
0.185712
0.266613
0.247169
0.0922017
0.11226
0.187083
0.186067
0.185928
0.202894
0.21799
0.229799
0.237532
0.237978
0.230493
0.209149
0.173895
0.138503
0.108505
0.0994044
0.100629
0.104966
2.89561
2.45186
1.50762
0.26729
0.198854
0.248787
0.265302
0.11941
0.131886
0.196889
0.202098
0.199808
0.216375
0.231065
0.242492
0.250219
0.251489
0.245639
0.227588
0.196839
0.167042
0.144048
0.140485
0.14474
0.150821
2.87494
2.47949
1.59218
0.31449
0.215859
0.225175
0.287407
0.147342
0.15422
0.209088
0.220654
0.216719
0.232872
0.247077
0.258137
0.265866
0.268152
0.264246
0.250124
0.22432
0.199711
0.182924
0.184148
0.191516
0.199865
2.85176
2.51236
1.68989
0.376584
0.236739
0.199777
0.312561
0.17582
0.178045
0.224109
0.240688
0.236327
0.251874
0.265494
0.276387
0.284177
0.287547
0.285888
0.276094
0.255529
0.236162
0.22593
0.231556
0.24307
0.255085
2.82832
2.55123
1.80181
0.459211
0.260279
0.184188
0.339198
0.205164
0.203064
0.241746
0.261107
0.258352
0.273039
0.285995
0.296925
0.304541
0.309212
0.310022
0.304969
0.28998
0.27669
0.273321
0.283671
0.301309
0.319834
2.80808
2.59559
1.92213
0.569553
0.285694
0.193483
0.365372
0.235502
0.229125
0.261416
0.28204
0.282645
0.296035
0.308215
0.319161
0.326468
0.33266
0.3362
0.336149
0.327103
0.320606
0.324229
0.341468
0.368643
0.399882
2.79458
2.64576
2.04788
0.713608
0.312029
0.230703
0.388134
0.266509
0.256348
0.283142
0.303593
0.308672
0.320429
0.331813
0.342657
0.34968
0.3575
0.364006
0.368852
0.36623
0.367225
0.378552
0.406033
0.446579
0.502975
2.79311
2.70226
2.17826
0.895537
0.339007
0.282564
0.403137
0.297508
0.284282
0.30648
0.326171
0.335633
0.345875
0.356412
0.366818
0.374129
0.383551
0.392689
0.402336
0.407338
0.416016
0.436357
0.478526
0.545234
0.665414
2.92949
2.40864
1.37808
0.194596
0.168372
0.285035
0.230291
0.0574044
0.0920444
0.177614
0.169822
0.171523
0.188023
0.203481
0.216044
0.223862
0.223618
0.214434
0.18957
0.148849
0.105369
0.0600654
0.0350072
0.0287848
0.0308842
2.92395
2.41526
1.39729
0.206046
0.175622
0.278342
0.235053
0.0687044
0.097188
0.179692
0.174371
0.175772
0.19264
0.208172
0.220629
0.228269
0.22797
0.219224
0.195436
0.156373
0.11547
0.0764186
0.0597366
0.0576305
0.0605098
2.91253
2.43003
1.4411
0.231109
0.185443
0.266593
0.247063
0.091855
0.111995
0.187006
0.186011
0.185857
0.202831
0.217935
0.229719
0.237417
0.237834
0.230332
0.208963
0.17368
0.138264
0.108228
0.0991267
0.100377
0.104746
2.89568
2.45178
1.50737
0.267058
0.198676
0.248727
0.26515
0.119065
0.131549
0.196732
0.201887
0.199621
0.216197
0.23089
0.24231
0.250042
0.251317
0.245472
0.227405
0.196643
0.16684
0.143838
0.140291
0.144566
0.150674
2.87501
2.47939
1.59191
0.314293
0.215683
0.225122
0.287227
0.147053
0.153932
0.208914
0.220386
0.216429
0.232573
0.246776
0.257846
0.265618
0.267944
0.264067
0.249947
0.224139
0.199537
0.182759
0.184003
0.191386
0.199756
2.85183
2.51226
1.68963
0.376384
0.236557
0.199725
0.312386
0.175614
0.17787
0.223924
0.240426
0.236031
0.251531
0.265149
0.27606
0.283917
0.287331
0.285708
0.27592
0.25536
0.23601
0.225795
0.231441
0.242969
0.255004
2.82838
2.55112
1.80155
0.458982
0.260113
0.1841
0.339048
0.205025
0.20299
0.241609
0.260949
0.258095
0.272725
0.285673
0.296608
0.304298
0.309004
0.309856
0.304803
0.289823
0.276554
0.273202
0.283573
0.301228
0.319772
2.80811
2.59548
1.92187
0.569284
0.285551
0.193349
0.365249
0.235412
0.229117
0.26134
0.281956
0.28246
0.295789
0.307951
0.318906
0.326259
0.332471
0.336043
0.335995
0.326957
0.320477
0.324119
0.341383
0.368573
0.39983
2.79459
2.64563
2.04762
0.713303
0.311918
0.230541
0.388039
0.266457
0.25638
0.283131
0.303561
0.308556
0.320256
0.33161
0.342458
0.3495
0.357333
0.363857
0.368707
0.366092
0.367105
0.378451
0.405956
0.446518
0.502925
2.79309
2.70214
2.17801
0.895202
0.338932
0.282405
0.403076
0.297474
0.284328
0.306517
0.326192
0.335575
0.34577
0.356276
0.366674
0.373981
0.383407
0.39255
0.4022
0.407212
0.415907
0.436266
0.478457
0.545179
0.665372
2.92946
2.40867
1.37818
0.194628
0.168267
0.28511
0.230348
0.0574471
0.0920871
0.177593
0.169687
0.171334
0.18782
0.203299
0.215913
0.223791
0.223592
0.21443
0.189573
0.148854
0.105363
0.0600508
0.0350045
0.0287865
0.0308862
2.92392
2.41526
1.39727
0.206042
0.175805
0.278211
0.234966
0.0685279
0.096914
0.179425
0.173963
0.175406
0.192357
0.207994
0.220529
0.228215
0.227945
0.219218
0.195437
0.156377
0.115464
0.0764059
0.0597352
0.0576321
0.0605129
2.9125
2.43005
1.44114
0.231174
0.185479
0.266566
0.247056
0.0918968
0.112045
0.186956
0.18596
0.185816
0.202779
0.217871
0.229668
0.237392
0.237831
0.230338
0.208973
0.173687
0.13826
0.10822
0.0991267
0.100379
0.104751
2.89564
2.45181
1.50749
0.267121
0.198659
0.248727
0.265195
0.119169
0.1317
0.196775
0.202018
0.199727
0.216286
0.230978
0.242395
0.250107
0.25136
0.245496
0.227425
0.196655
0.16684
0.143833
0.140291
0.144569
0.150681
2.87497
2.47943
1.59204
0.314341
0.21568
0.225107
0.2873
0.147142
0.154058
0.209003
0.220594
0.216639
0.232788
0.246981
0.258022
0.265738
0.268018
0.264107
0.249978
0.224159
0.199542
0.182755
0.184003
0.191389
0.199765
2.85179
2.5123
1.68975
0.376443
0.236567
0.19969
0.312454
0.175656
0.177909
0.224018
0.240614
0.236271
0.25179
0.265385
0.276262
0.284048
0.287418
0.285757
0.275961
0.255387
0.236018
0.225793
0.231444
0.242975
0.255014
2.82835
2.55117
1.80167
0.459064
0.260121
0.18406
0.339092
0.205022
0.202946
0.241659
0.261079
0.258293
0.272949
0.285888
0.296799
0.304422
0.309092
0.309904
0.304847
0.289854
0.276564
0.273206
0.283581
0.301237
0.319784
2.80809
2.59553
1.92198
0.569391
0.285551
0.193323
0.365269
0.23538
0.229016
0.261329
0.282015
0.282586
0.295949
0.308116
0.319048
0.326354
0.332546
0.336092
0.33604
0.326989
0.320494
0.32413
0.341396
0.368585
0.399843
2.79459
2.64568
2.04773
0.713429
0.311908
0.230536
0.38804
0.266407
0.256257
0.283069
0.303562
0.30862
0.320353
0.331722
0.342557
0.349578
0.357392
0.363904
0.368751
0.366126
0.367128
0.378466
0.405971
0.446532
0.50294
2.7931
2.70218
2.17811
0.895343
0.338912
0.282409
0.403058
0.297422
0.284209
0.306432
0.326155
0.335592
0.345812
0.356333
0.366727
0.374033
0.383454
0.392594
0.402242
0.407246
0.415931
0.436283
0.478473
0.545192
0.665383
2.92947
2.40866
1.37814
0.194614
0.168282
0.28511
0.230336
0.057439
0.0920784
0.177587
0.169677
0.171335
0.18782
0.203296
0.215903
0.223772
0.223564
0.214392
0.189526
0.1488
0.105314
0.0600073
0.0349845
0.0287904
0.0308856
2.92393
2.41525
1.39724
0.206033
0.1758
0.278225
0.234967
0.0685419
0.0969305
0.179437
0.173977
0.175422
0.192365
0.207993
0.220518
0.228195
0.227918
0.219183
0.195392
0.156326
0.115419
0.0763718
0.0597243
0.0576355
0.0605147
2.91251
2.43004
1.44111
0.231163
0.185485
0.266577
0.247057
0.0919058
0.112053
0.186972
0.185982
0.185839
0.202795
0.217883
0.229668
0.237378
0.237806
0.230303
0.208929
0.17364
0.138221
0.108195
0.0991212
0.100383
0.104756
2.89565
2.45181
1.50747
0.267113
0.198662
0.24874
0.265195
0.119167
0.13169
0.196787
0.202023
0.199724
0.216269
0.230939
0.242348
0.250063
0.251323
0.245458
0.227384
0.196613
0.166807
0.143814
0.14029
0.144575
0.150688
2.87498
2.47943
1.59202
0.314336
0.215687
0.225112
0.287292
0.147128
0.154037
0.208994
0.220552
0.21658
0.23271
0.246893
0.257942
0.265676
0.267972
0.264068
0.249939
0.224121
0.199513
0.182742
0.184006
0.191398
0.199774
2.85179
2.5123
1.68974
0.376444
0.236578
0.199693
0.312443
0.175645
0.177899
0.223996
0.240563
0.236189
0.251689
0.265292
0.276182
0.283995
0.287375
0.285721
0.275923
0.255352
0.235994
0.225785
0.231449
0.242985
0.255026
2.82835
2.55117
1.80167
0.459071
0.260135
0.18407
0.339084
0.205025
0.202962
0.241654
0.261046
0.258232
0.272876
0.285819
0.296737
0.304382
0.309057
0.309878
0.304815
0.289823
0.276545
0.273198
0.283585
0.301248
0.319798
2.80809
2.59553
1.92199
0.569408
0.285571
0.19334
0.365266
0.235395
0.229057
0.261351
0.282006
0.282557
0.295913
0.308081
0.319026
0.326338
0.332524
0.336072
0.336012
0.326962
0.320475
0.32412
0.341398
0.368595
0.399857
2.79458
2.64569
2.04775
0.71346
0.311933
0.230557
0.38804
0.26643
0.256307
0.283108
0.303568
0.308615
0.320346
0.331715
0.342558
0.349572
0.357383
0.363886
0.368725
0.366101
0.367109
0.378456
0.405972
0.44654
0.502951
2.7931
2.7022
2.17814
0.895392
0.338941
0.28243
0.403059
0.297445
0.284256
0.306474
0.32617
0.335605
0.345826
0.356351
0.36675
0.37404
0.383451
0.392579
0.402217
0.407223
0.415913
0.436272
0.478471
0.545197
0.665392
2.92942
2.40873
1.37834
0.194702
0.168259
0.285031
0.230368
0.0574469
0.0920699
0.177584
0.169667
0.171322
0.187808
0.203286
0.215902
0.223781
0.22358
0.214411
0.189546
0.14882
0.10533
0.0600246
0.0349972
0.0287887
0.030881
2.92389
2.41532
1.39744
0.206118
0.175787
0.278143
0.234996
0.0685452
0.096915
0.179427
0.173958
0.175402
0.192347
0.207977
0.220511
0.228199
0.227931
0.219201
0.195413
0.156347
0.115437
0.0763889
0.0597359
0.0576394
0.0605121
2.91247
2.4301
1.44131
0.23125
0.185472
0.266489
0.247087
0.0919146
0.112042
0.186959
0.185966
0.185824
0.202781
0.217869
0.22966
0.237378
0.237815
0.230318
0.208947
0.173659
0.138237
0.108209
0.0991317
0.100392
0.104752
2.89561
2.45187
1.50766
0.267206
0.198641
0.248654
0.265227
0.119183
0.131688
0.196775
0.202007
0.199706
0.216256
0.230925
0.242337
0.250059
0.251327
0.245468
0.227399
0.196629
0.16682
0.143826
0.1403
0.144586
0.150686
2.87494
2.47949
1.5922
0.314432
0.215664
0.225033
0.287324
0.147146
0.154041
0.208973
0.220538
0.216582
0.232707
0.246884
0.257933
0.265671
0.267972
0.264074
0.24995
0.224134
0.199523
0.18275
0.184013
0.191408
0.199777
2.85176
2.51235
1.6899
0.37655
0.23656
0.199625
0.312474
0.175663
0.177904
0.223995
0.240569
0.23616
0.251673
0.265281
0.276173
0.283987
0.287372
0.285725
0.275932
0.255362
0.236001
0.22579
0.231453
0.242994
0.25503
2.82833
2.55122
1.80182
0.459195
0.260119
0.184035
0.339114
0.205048
0.202973
0.24166
0.261012
0.258208
0.272863
0.28581
0.296729
0.304373
0.309053
0.309881
0.304822
0.289832
0.27655
0.273204
0.283589
0.301254
0.3198
2.80807
2.59558
1.92213
0.56955
0.285555
0.193342
0.365295
0.235419
0.229079
0.261373
0.281976
0.282549
0.295914
0.308081
0.319023
0.326334
0.332522
0.336075
0.33602
0.32697
0.320482
0.324126
0.3414
0.3686
0.399858
2.79458
2.64574
2.04787
0.713616
0.311914
0.230579
0.388062
0.266449
0.25633
0.283132
0.303558
0.308618
0.320356
0.331722
0.342559
0.349568
0.357382
0.36389
0.368733
0.36611
0.367116
0.378461
0.405973
0.446542
0.502955
2.7931
2.70224
2.17825
0.895554
0.338918
0.282451
0.403068
0.297457
0.284271
0.306485
0.326161
0.335611
0.345839
0.356359
0.366753
0.37404
0.383451
0.392584
0.402226
0.407233
0.415923
0.436277
0.47847
0.545197
0.665396
2.92944
2.4087
1.37827
0.194672
0.168269
0.285055
0.230357
0.0574425
0.092067
0.17758
0.169658
0.17132
0.187804
0.203283
0.215897
0.223773
0.223572
0.214401
0.189533
0.148805
0.105316
0.0600098
0.0349886
0.0287892
0.0308864
2.9239
2.4153
1.39737
0.20609
0.175788
0.278173
0.23499
0.0685523
0.0969267
0.179432
0.173964
0.17541
0.192352
0.20798
0.220511
0.228195
0.227924
0.219191
0.195399
0.156331
0.115421
0.076374
0.0597274
0.0576353
0.060515
2.91249
2.43008
1.44124
0.23122
0.185475
0.266521
0.247083
0.09192
0.112051
0.186965
0.185974
0.185833
0.202787
0.217872
0.22966
0.237376
0.23781
0.230309
0.208935
0.173645
0.138224
0.108197
0.0991236
0.100383
0.104756
2.89563
2.45185
1.50759
0.267174
0.198648
0.248687
0.265222
0.119185
0.131693
0.19678
0.202013
0.199714
0.21626
0.230929
0.242338
0.250057
0.251323
0.245462
0.227389
0.196618
0.16681
0.143816
0.140292
0.144575
0.150689
2.87496
2.47947
1.59214
0.314399
0.215672
0.225064
0.287319
0.147147
0.154044
0.208976
0.220543
0.216589
0.232711
0.246886
0.257933
0.265669
0.267969
0.264069
0.249943
0.224126
0.199517
0.182744
0.184007
0.191398
0.199775
2.85177
2.51233
1.68984
0.376513
0.236566
0.199653
0.312468
0.175664
0.177907
0.223997
0.240573
0.236165
0.251675
0.265282
0.276172
0.283986
0.28737
0.285721
0.275927
0.255357
0.235997
0.225787
0.23145
0.242986
0.255027
2.82834
2.5512
1.80177
0.45915
0.260124
0.184051
0.339109
0.205049
0.202976
0.241662
0.261016
0.258211
0.272864
0.28581
0.296728
0.304372
0.309051
0.309877
0.304818
0.289828
0.276548
0.273201
0.283587
0.301249
0.319799
2.80808
2.59556
1.92208
0.569498
0.28556
0.193344
0.365291
0.23542
0.229082
0.261375
0.281979
0.282551
0.295915
0.308081
0.319022
0.326332
0.332519
0.336071
0.336016
0.326968
0.32048
0.324124
0.341402
0.368598
0.399859
2.79458
2.64572
2.04782
0.713557
0.311919
0.230571
0.388061
0.26645
0.256332
0.283134
0.303561
0.30862
0.320357
0.331722
0.342559
0.349567
0.357379
0.363885
0.368729
0.366107
0.367115
0.37846
0.405976
0.446544
0.502955
2.7931
2.70222
2.17821
0.89549
0.338923
0.282442
0.403071
0.297458
0.284273
0.306488
0.326165
0.335614
0.345841
0.35636
0.366753
0.374037
0.383448
0.39258
0.402222
0.40723
0.41592
0.436279
0.478477
0.545202
0.665396
2.92947
2.40866
1.37814
0.194613
0.168282
0.28511
0.230336
0.0574392
0.0920787
0.177587
0.169677
0.171335
0.18782
0.203296
0.215903
0.223772
0.223564
0.214392
0.189526
0.1488
0.105313
0.0600071
0.0349844
0.0287904
0.0308856
2.92393
2.41525
1.39724
0.206033
0.1758
0.278225
0.234967
0.068542
0.0969306
0.179437
0.173977
0.175422
0.192365
0.207993
0.220518
0.228195
0.227918
0.219183
0.195392
0.156326
0.115419
0.0763717
0.0597243
0.0576355
0.0605147
2.91251
2.43004
1.44111
0.231163
0.185485
0.266577
0.247057
0.0919058
0.112053
0.186972
0.185982
0.185839
0.202795
0.217883
0.229668
0.237378
0.237806
0.230303
0.208929
0.17364
0.138221
0.108195
0.0991212
0.100383
0.104756
2.89565
2.45181
1.50747
0.267113
0.198662
0.24874
0.265195
0.119167
0.13169
0.196787
0.202023
0.199724
0.216269
0.230939
0.242348
0.250063
0.251323
0.245458
0.227384
0.196613
0.166807
0.143814
0.14029
0.144575
0.150688
2.87498
2.47943
1.59202
0.314336
0.215687
0.225112
0.287292
0.147128
0.154037
0.208994
0.220552
0.21658
0.23271
0.246893
0.257942
0.265676
0.267972
0.264068
0.249939
0.224121
0.199513
0.182742
0.184006
0.191398
0.199774
2.85179
2.5123
1.68974
0.376443
0.236578
0.199693
0.312443
0.175645
0.177899
0.223996
0.240563
0.236189
0.25169
0.265292
0.276182
0.283995
0.287375
0.285721
0.275923
0.255352
0.235994
0.225785
0.231449
0.242985
0.255026
2.82835
2.55117
1.80167
0.459071
0.260135
0.18407
0.339084
0.205025
0.202962
0.241654
0.261046
0.258232
0.272876
0.285819
0.296737
0.304382
0.309057
0.309878
0.304815
0.289823
0.276545
0.273198
0.283585
0.301248
0.319798
2.80809
2.59553
1.92199
0.569407
0.285571
0.19334
0.365266
0.235395
0.229057
0.261351
0.282006
0.282557
0.295913
0.308081
0.319026
0.326338
0.332524
0.336072
0.336012
0.326962
0.320475
0.32412
0.341398
0.368595
0.399857
2.79458
2.64569
2.04775
0.713459
0.311933
0.230557
0.38804
0.26643
0.256307
0.283108
0.303568
0.308615
0.320346
0.331715
0.342558
0.349572
0.357383
0.363886
0.368725
0.366101
0.367109
0.378455
0.405972
0.44654
0.502951
2.7931
2.7022
2.17814
0.895391
0.338941
0.28243
0.403059
0.297445
0.284256
0.306474
0.326171
0.335605
0.345826
0.356351
0.36675
0.37404
0.383451
0.392579
0.402217
0.407223
0.415913
0.436272
0.478471
0.545197
0.665392
2.92946
2.40867
1.37818
0.194628
0.168267
0.28511
0.230348
0.0574471
0.0920871
0.177593
0.169687
0.171334
0.18782
0.203299
0.215913
0.223791
0.223592
0.21443
0.189573
0.148854
0.105363
0.0600508
0.0350045
0.0287865
0.0308862
2.92392
2.41526
1.39727
0.206042
0.175805
0.278211
0.234966
0.0685279
0.096914
0.179425
0.173963
0.175406
0.192357
0.207994
0.220529
0.228215
0.227945
0.219218
0.195437
0.156377
0.115464
0.0764059
0.0597352
0.0576321
0.0605129
2.9125
2.43005
1.44114
0.231174
0.185479
0.266566
0.247056
0.0918968
0.112045
0.186956
0.18596
0.185816
0.202779
0.217871
0.229668
0.237392
0.237831
0.230338
0.208973
0.173687
0.13826
0.10822
0.0991267
0.100379
0.104751
2.89564
2.45181
1.50749
0.267121
0.198659
0.248727
0.265195
0.119169
0.1317
0.196775
0.202018
0.199727
0.216286
0.230978
0.242395
0.250107
0.25136
0.245496
0.227425
0.196655
0.16684
0.143833
0.140291
0.144569
0.150681
2.87497
2.47943
1.59204
0.314341
0.21568
0.225107
0.2873
0.147142
0.154058
0.209003
0.220594
0.216639
0.232788
0.246981
0.258022
0.265738
0.268018
0.264107
0.249978
0.224159
0.199542
0.182755
0.184003
0.191389
0.199765
2.85179
2.5123
1.68975
0.376443
0.236567
0.19969
0.312454
0.175656
0.177909
0.224018
0.240614
0.236271
0.25179
0.265385
0.276262
0.284048
0.287418
0.285757
0.275961
0.255387
0.236018
0.225793
0.231444
0.242975
0.255014
2.82835
2.55117
1.80167
0.459064
0.260121
0.18406
0.339092
0.205022
0.202946
0.241659
0.261079
0.258293
0.272949
0.285888
0.296799
0.304422
0.309092
0.309904
0.304847
0.289854
0.276564
0.273206
0.283581
0.301237
0.319784
2.80809
2.59553
1.92198
0.569391
0.285551
0.193323
0.365269
0.23538
0.229016
0.261329
0.282015
0.282586
0.295949
0.308116
0.319048
0.326354
0.332546
0.336092
0.33604
0.326989
0.320494
0.32413
0.341396
0.368585
0.399843
2.79459
2.64568
2.04773
0.713429
0.311908
0.230536
0.38804
0.266407
0.256257
0.283069
0.303562
0.30862
0.320353
0.331722
0.342557
0.349578
0.357392
0.363904
0.368751
0.366126
0.367128
0.378466
0.405971
0.446532
0.50294
2.7931
2.70218
2.17811
0.895343
0.338912
0.282409
0.403058
0.297422
0.284209
0.306432
0.326155
0.335592
0.345812
0.356333
0.366727
0.374033
0.383454
0.392594
0.402242
0.407246
0.415931
0.436283
0.478473
0.545192
0.665383
2.92949
2.40864
1.37808
0.194595
0.168372
0.285035
0.230291
0.0574047
0.0920445
0.177614
0.169823
0.171523
0.188023
0.203481
0.216045
0.223863
0.223619
0.214434
0.18957
0.14885
0.10537
0.0600659
0.0350074
0.0287847
0.0308842
2.92395
2.41526
1.39729
0.206046
0.175622
0.278342
0.235053
0.0687046
0.097188
0.179692
0.174371
0.175772
0.19264
0.208172
0.220629
0.228269
0.22797
0.219224
0.195436
0.156374
0.115471
0.076419
0.0597367
0.0576305
0.0605098
2.91253
2.43003
1.4411
0.231109
0.185444
0.266593
0.247063
0.091855
0.111995
0.187006
0.186011
0.185856
0.202831
0.217935
0.229719
0.237418
0.237834
0.230332
0.208964
0.173681
0.138265
0.108228
0.0991268
0.100377
0.104746
2.89568
2.45178
1.50737
0.267058
0.198676
0.248727
0.26515
0.119065
0.131548
0.196731
0.201887
0.199621
0.216198
0.23089
0.24231
0.250042
0.251317
0.245472
0.227405
0.196643
0.16684
0.143838
0.140291
0.144566
0.150674
2.87501
2.47939
1.59191
0.314293
0.215683
0.225122
0.287227
0.147053
0.153932
0.208914
0.220387
0.216429
0.232573
0.246776
0.257846
0.265618
0.267944
0.264067
0.249947
0.22414
0.199537
0.182759
0.184003
0.191386
0.199756
2.85182
2.51226
1.68963
0.376384
0.236557
0.199725
0.312386
0.175615
0.17787
0.223924
0.240426
0.236031
0.251531
0.265149
0.27606
0.283917
0.287331
0.285708
0.27592
0.255361
0.236011
0.225795
0.231441
0.242969
0.255004
2.82838
2.55112
1.80155
0.458982
0.260113
0.1841
0.339048
0.205025
0.20299
0.241609
0.26095
0.258095
0.272725
0.285674
0.296608
0.304298
0.309004
0.309856
0.304803
0.289824
0.276554
0.273203
0.283573
0.301228
0.319772
2.80811
2.59548
1.92187
0.569284
0.285551
0.193349
0.365249
0.235412
0.229117
0.26134
0.281956
0.28246
0.29579
0.307952
0.318906
0.326259
0.332471
0.336044
0.335996
0.326957
0.320478
0.324119
0.341383
0.368573
0.39983
2.79459
2.64563
2.04762
0.713304
0.311918
0.230541
0.388039
0.266457
0.25638
0.283131
0.303561
0.308556
0.320256
0.33161
0.342458
0.3495
0.357334
0.363857
0.368707
0.366092
0.367106
0.378451
0.405956
0.446518
0.502925
2.79309
2.70214
2.17801
0.895204
0.338932
0.282405
0.403075
0.297474
0.284328
0.306517
0.326192
0.335575
0.34577
0.356277
0.366674
0.373982
0.383407
0.392551
0.4022
0.407212
0.415907
0.436266
0.478457
0.545179
0.665372
2.92944
2.40867
1.37817
0.194768
0.16854
0.285199
0.230452
0.0579831
0.0923611
0.177698
0.169785
0.171428
0.187951
0.203459
0.216083
0.223962
0.223763
0.214607
0.189773
0.149093
0.105677
0.0605517
0.035776
0.0296378
0.0316657
2.9239
2.41526
1.39726
0.206172
0.176092
0.2783
0.235093
0.069051
0.0972659
0.179614
0.174217
0.175651
0.192624
0.208254
0.220762
0.228423
0.228138
0.219406
0.195645
0.156621
0.115769
0.0768187
0.0601981
0.0580504
0.0609122
2.91248
2.43006
1.44116
0.2313
0.185699
0.266704
0.247236
0.09234
0.112427
0.187267
0.186415
0.186224
0.203133
0.218165
0.229913
0.237601
0.238022
0.230521
0.209174
0.173916
0.138525
0.108521
0.0994062
0.10061
0.104968
2.89562
2.45183
1.50753
0.26722
0.198851
0.248858
0.265355
0.119434
0.131921
0.197014
0.202305
0.199961
0.216482
0.231115
0.242512
0.250234
0.251509
0.245661
0.227614
0.196863
0.167066
0.144065
0.140488
0.144724
0.150813
2.87495
2.47945
1.59207
0.314418
0.215874
0.225204
0.287408
0.147268
0.154128
0.209102
0.220663
0.216683
0.232814
0.247002
0.258065
0.265819
0.268135
0.264253
0.250144
0.22434
0.199731
0.182939
0.18415
0.191504
0.199851
2.85177
2.51232
1.68978
0.376516
0.236752
0.199788
0.31253
0.175735
0.177937
0.22406
0.240619
0.236192
0.25173
0.265373
0.276287
0.284145
0.287537
0.2859
0.276105
0.255542
0.236176
0.225941
0.231555
0.24306
0.255074
2.82834
2.5512
1.80172
0.459137
0.260289
0.184195
0.339162
0.20511
0.203015
0.241711
0.26104
0.25823
0.272929
0.285911
0.296862
0.304527
0.309207
0.310038
0.304975
0.289987
0.276697
0.273328
0.283667
0.3013
0.319824
2.80809
2.59557
1.92205
0.569472
0.285707
0.193481
0.365345
0.235482
0.229141
0.261426
0.281997
0.282571
0.295977
0.308174
0.31915
0.326464
0.33266
0.336214
0.336153
0.327103
0.320607
0.324229
0.341462
0.368631
0.39987
2.79459
2.64573
2.04781
0.713528
0.312048
0.23069
0.38812
0.26651
0.256397
0.283177
0.303569
0.308638
0.320416
0.331812
0.342677
0.349694
0.357505
0.364009
0.368845
0.366223
0.367222
0.378547
0.406024
0.446563
0.502955
2.79311
2.70224
2.17821
0.895464
0.33903
0.28255
0.403133
0.29751
0.284326
0.306517
0.326173
0.335634
0.345892
0.356439
0.366852
0.374143
0.383559
0.392686
0.402316
0.407325
0.416008
0.436347
0.478513
0.545214
0.665393
2.81016
2.76426
2.31395
1.11852
0.365077
0.335776
0.408872
0.32799
0.312725
0.331173
0.349569
0.362534
0.371894
0.381721
0.391865
0.399883
0.410171
0.421644
0.435641
0.448631
0.465445
0.496131
0.556164
0.654878
0.850048
2.84978
2.82539
2.45266
1.38117
0.38608
0.385561
0.400138
0.35947
0.341766
0.356694
0.372957
0.388217
0.398312
0.4075
0.417253
0.426428
0.436677
0.450336
0.467874
0.488641
0.513824
0.5543
0.626439
0.739337
0.936084
2.90102
2.88672
2.58415
1.6457
0.424436
0.430967
0.377456
0.393076
0.370116
0.3821
0.395489
0.412636
0.425642
0.434154
0.443316
0.453029
0.46295
0.478207
0.499039
0.526169
0.558193
0.603559
0.679946
0.786193
0.957744
2.94738
2.9453
2.70425
1.88779
0.532724
0.475607
0.366221
0.42591
0.396841
0.406972
0.417669
0.437651
0.453112
0.462082
0.470387
0.480888
0.489253
0.505113
0.527775
0.559158
0.596831
0.643918
0.715648
0.813014
0.952531
2.98716
2.99767
2.81603
2.11971
0.746418
0.521456
0.3875
0.450681
0.422588
0.430933
0.442152
0.46316
0.480687
0.489208
0.496567
0.507267
0.516333
0.530588
0.554466
0.586937
0.627986
0.675785
0.745091
0.832842
0.942572
3.019
3.04529
2.91639
2.35635
1.07935
0.553856
0.436781
0.466632
0.448503
0.455479
0.470741
0.488473
0.505143
0.51659
0.524471
0.53444
0.544663
0.554895
0.578126
0.609222
0.653329
0.701761
0.766625
0.844825
0.92983
3.04401
3.09133
2.99758
2.56985
1.48396
0.572426
0.495421
0.479314
0.477621
0.482017
0.49951
0.511577
0.527699
0.542895
0.55319
0.560638
0.57159
0.580696
0.599647
0.62922
0.670978
0.719693
0.777602
0.844467
0.917426
3.06554
3.13126
3.06143
2.73587
1.83303
0.631076
0.547119
0.493983
0.510681
0.508293
0.524165
0.533241
0.548237
0.569786
0.581866
0.588031
0.598034
0.606989
0.618762
0.645091
0.680763
0.72838
0.779994
0.83912
0.905774
3.08371
3.16611
3.11477
2.87119
2.12046
0.810945
0.60454
0.524753
0.542008
0.531925
0.545698
0.55715
0.570846
0.594772
0.610163
0.616126
0.623281
0.633525
0.639931
0.659477
0.691062
0.730699
0.77957
0.835196
0.896643
3.0986
3.19569
3.15986
2.98836
2.40462
1.1291
0.672361
0.566741
0.564846
0.558315
0.568561
0.583324
0.59683
0.617552
0.636684
0.64329
0.648819
0.658177
0.665519
0.674161
0.70004
0.734648
0.776719
0.828383
0.886926
3.11077
3.21928
3.19455
3.07811
2.67735
1.62422
0.737107
0.60016
0.590247
0.591741
0.594601
0.610509
0.624196
0.639444
0.659811
0.669553
0.67451
0.679707
0.6889
0.69183
0.708956
0.739094
0.775902
0.819538
0.871982
3.1207
3.23832
3.22035
3.13782
2.85927
2.06796
0.886922
0.642393
0.628803
0.626407
0.624579
0.638785
0.651129
0.65906
0.682181
0.69539
0.699665
0.702648
0.709714
0.716696
0.719776
0.742984
0.775117
0.81362
0.858172
3.12853
3.25374
3.24069
3.18263
2.98977
2.38979
1.16802
0.726944
0.674875
0.659742
0.658551
0.668598
0.677598
0.679676
0.69874
0.718923
0.724736
0.725753
0.727781
0.73611
0.740191
0.750274
0.775254
0.808502
0.847673
3.13441
3.26523
3.25572
3.21672
3.09241
2.69125
1.63975
0.831848
0.711319
0.70104
0.696581
0.698867
0.704583
0.70354
0.708141
0.737184
0.749724
0.749956
0.750287
0.753302
0.760612
0.762216
0.777418
0.804771
0.838982
3.13839
3.27311
3.26574
3.23948
3.16027
2.91042
2.16628
1.05498
0.755215
0.748477
0.734825
0.729982
0.732789
0.730745
0.726016
0.747584
0.770173
0.774635
0.771996
0.77294
0.777826
0.784065
0.784809
0.803048
0.832021
3.14011
3.27773
3.27219
3.25548
3.20599
3.05147
2.55655
1.43961
0.850453
0.795354
0.775294
0.763428
0.762562
0.761303
0.751957
0.753295
0.783778
0.798002
0.79676
0.794064
0.794729
0.801049
0.807725
0.808945
0.828461
3.13936
3.27968
3.27634
3.2666
3.23619
3.14341
2.85152
2.01279
1.038
0.837759
0.82138
0.803865
0.796457
0.793891
0.784652
0.775737
0.792681
0.812982
0.821331
0.817516
0.816173
0.817239
0.825077
0.83346
0.835641
3.13687
3.28062
3.27916
3.27276
3.254
3.20011
3.03364
2.4999
1.40791
0.912945
0.872649
0.85517
0.8353
0.829048
0.821157
0.807987
0.803553
0.828362
0.842622
0.843246
0.838293
0.838992
0.842239
0.852437
0.864256
3.13516
3.28085
3.28064
3.2773
3.26673
3.23592
3.14322
2.84788
2.00299
1.08807
0.923601
0.906118
0.884581
0.868412
0.859755
0.847695
0.833391
0.83966
0.858963
0.866996
0.864358
0.86002
0.863998
0.871027
0.885318
3.13462
3.28049
3.28217
3.28057
3.27471
3.25752
3.20735
3.05163
2.54554
1.49409
0.999876
0.957405
0.94185
0.915562
0.901851
0.889958
0.872686
0.860191
0.87792
0.890981
0.890078
0.885563
0.883386
0.892117
0.905299
3.13446
3.28009
3.28342
3.28257
3.27943
3.27018
3.24337
3.16274
2.9038
2.13182
1.21899
1.01273
0.993451
0.976391
0.949009
0.934232
0.91813
0.897274
0.890697
0.912563
0.917388
0.912097
0.907543
0.910226
0.925928
3.13445
3.27984
3.28417
3.28375
3.28219
3.27746
3.26356
3.223
3.09729
2.68388
1.70802
1.10422
1.04568
1.03379
1.0086
0.98256
0.965289
0.944064
0.922831
0.929793
0.942425
0.939242
0.931834
0.931877
0.942417
3.13447
3.27969
3.28464
3.28446
3.28376
3.28145
3.27451
3.25428
3.19397
2.99977
2.37104
1.41335
1.11077
1.08455
1.07403
1.04094
1.01502
0.994207
0.967233
0.948958
0.965098
0.968895
0.958579
0.95291
0.961535
3.13447
3.27966
3.28492
3.28485
3.28453
3.28344
3.28018
3.27053
3.24215
3.15468
2.86723
2.0439
1.27621
1.14013
1.12779
1.11118
1.07205
1.04662
1.02003
0.989322
0.979981
0.993351
0.990868
0.977639
0.979488
3.13446
3.27972
3.28499
3.28501
3.28493
3.28453
3.28311
3.27874
3.26574
3.22723
3.10508
2.69286
1.76582
1.23123
1.17808
1.17211
1.14518
1.10309
1.07469
1.04106
1.01069
1.01275
1.01694
1.01075
1.00032
3.13447
3.27975
3.28496
3.28516
3.28515
3.28502
3.28448
3.28261
3.27696
3.26015
3.20931
3.04262
2.47944
1.58607
1.24474
1.22175
1.21213
1.17441
1.13139
1.09809
1.05682
1.03123
1.04254
1.04211
1.0349
3.13447
3.27974
3.28496
3.28522
3.28524
3.28522
3.28505
3.28436
3.28205
3.27505
3.25404
3.18878
2.97149
2.28322
1.50658
1.27756
1.26735
1.24823
1.19652
1.15579
1.11521
1.072
1.06082
1.069
1.069
3.13447
3.27974
3.28497
3.28521
3.28529
3.28533
3.28529
3.28507
3.2842
3.2814
3.27295
3.24764
3.16812
2.90045
2.1455
1.45993
1.3192
1.30849
1.27953
1.21705
1.17358
1.12467
1.08905
1.09666
1.10267
3.13447
3.27973
3.28497
3.28521
3.28531
3.28536
3.28539
3.28528
3.28503
3.28396
3.28057
3.27061
3.24146
3.1498
2.83487
2.06115
1.44866
1.36758
1.34702
1.29747
1.23369
1.18491
1.13333
1.12358
1.13575
3.13447
3.27973
3.28497
3.28521
3.28531
3.28537
3.28541
3.28534
3.28528
3.28485
3.28332
3.27914
3.26795
3.23604
3.13606
2.78908
2.01748
1.48338
1.42008
1.3747
1.30347
1.24471
1.18929
1.16148
1.17311
3.13447
3.27973
3.28497
3.28521
3.28531
3.28537
3.28542
3.28535
3.28532
3.28507
3.28399
3.28187
3.2769
3.26441
3.23095
3.12889
2.77923
2.02821
1.5659
1.45122
1.37487
1.30641
1.24738
1.21053
1.21849
3.13447
3.27973
3.28497
3.28521
3.28531
3.28537
3.28542
3.28535
3.28532
3.28508
3.28398
3.28249
3.27905
3.2728
3.25909
3.22495
3.12704
2.80901
2.12946
1.64451
1.43701
1.36496
1.3103
1.26787
1.26937
3.13447
3.27973
3.28497
3.28521
3.28531
3.28537
3.28542
3.28535
3.28532
3.28508
3.28399
3.28252
3.27922
3.27414
3.26615
3.24835
3.21178
3.12221
2.85519
2.26313
1.67117
1.4165
1.37421
1.33612
1.32449
3.13447
3.27973
3.28497
3.28521
3.28531
3.28537
3.28542
3.28535
3.28532
3.28508
3.28399
3.28252
3.27923
3.27411
3.26665
3.25098
3.22926
3.18704
3.09017
2.86353
2.37879
1.76998
1.48636