/*--------------------------------*- C++ -*----------------------------------*\
| =========                 |                                                 |
| \\      /  F ield         | OpenFOAM: The Open Source CFD Toolbox           |
|  \\    /   O peration     | Version:  4.1                                   |
|   \\  /    A nd           | Web:      www.OpenFOAM.org                      |
|    \\/     M anipulation  |                                                 |
\*---------------------------------------------------------------------------*/
FoamFile
{
    version     2.0;
    format      ascii;
    class       volScalarField;
    location    "0.66";
    object      p;
}
// * * * * * * * * * * * * * * * * * * * * * * * * * * * * * * * * * * * * * //

dimensions      [1 -1 -2 0 0 0 0];

internalField   nonuniform List<scalar> 
52500
(
0.102068
0.129352
0.265907
0.87581
1.50908
0.77369
0.85121
0.981955
0.859676
0.783708
0.755086
0.702918
0.654608
0.613242
0.578825
0.547146
0.519561
0.494878
0.474113
0.459784
0.454046
0.45392
0.456705
0.450965
0.44596
0.10217
0.128799
0.262706
0.859933
1.51667
0.776796
0.851096
0.981809
0.861137
0.785423
0.756833
0.704364
0.655833
0.614301
0.579762
0.548246
0.520632
0.496123
0.475384
0.460914
0.454979
0.454634
0.456931
0.45119
0.446105
0.102366
0.127595
0.255752
0.824567
1.53077
0.7845
0.849263
0.979759
0.863795
0.786787
0.758127
0.705462
0.656629
0.614928
0.58007
0.548905
0.521008
0.496831
0.476092
0.461356
0.454994
0.454318
0.455912
0.450004
0.44473
0.102651
0.125852
0.245485
0.770858
1.55174
0.797344
0.845227
0.975664
0.868618
0.789043
0.759831
0.707416
0.658218
0.616232
0.580748
0.549869
0.521644
0.497986
0.47718
0.462036
0.454885
0.453586
0.453804
0.447435
0.441785
0.102975
0.123736
0.232962
0.70182
1.57567
0.817348
0.838478
0.970066
0.874868
0.791833
0.761188
0.710016
0.660344
0.617834
0.581587
0.550719
0.522358
0.499201
0.478408
0.46274
0.454599
0.452099
0.450555
0.443381
0.437239
0.10329
0.121316
0.219221
0.629241
1.58628
0.848488
0.82686
0.963605
0.881513
0.795329
0.761949
0.712946
0.662978
0.619793
0.582562
0.551455
0.523115
0.500184
0.479483
0.463198
0.453848
0.44932
0.446082
0.437576
0.43036
0.103516
0.118552
0.203777
0.558006
1.57536
0.89309
0.812585
0.955593
0.888072
0.80003
0.762557
0.71597
0.66619
0.622174
0.583676
0.552188
0.523761
0.500865
0.480154
0.463073
0.452229
0.445088
0.440052
0.429727
0.420552
0.103532
0.115554
0.18776
0.49021
1.52937
0.952575
0.799001
0.944749
0.894167
0.806379
0.763329
0.718743
0.669922
0.624986
0.58508
0.552997
0.524485
0.501167
0.480314
0.462567
0.449573
0.439803
0.432028
0.419109
0.407176
0.103206
0.112297
0.171799
0.427494
1.44106
1.0267
0.790115
0.929842
0.901678
0.815522
0.765165
0.721324
0.673955
0.627968
0.587002
0.553982
0.525334
0.501
0.479894
0.461336
0.446115
0.433285
0.42173
0.404709
0.387629
0.10236
0.108674
0.156199
0.369979
1.30795
1.11105
0.791231
0.909026
0.911351
0.826204
0.766895
0.72378
0.678126
0.631475
0.589616
0.555245
0.52612
0.500572
0.4792
0.459113
0.441532
0.425134
0.408599
0.385911
0.358254
0.102067
0.129357
0.265936
0.875947
1.50901
0.773643
0.851292
0.981951
0.859519
0.7837
0.755087
0.702933
0.654622
0.613254
0.578814
0.54711
0.519513
0.494828
0.47407
0.459752
0.45403
0.453917
0.456724
0.450987
0.445989
0.102168
0.128802
0.262721
0.860004
1.51657
0.776903
0.851096
0.98173
0.861175
0.785365
0.756792
0.704372
0.655845
0.614308
0.579751
0.548218
0.520588
0.496077
0.475344
0.460883
0.454963
0.45463
0.456948
0.451209
0.446131
0.102365
0.127598
0.255771
0.824647
1.53079
0.784514
0.849261
0.979694
0.863809
0.786749
0.758095
0.705459
0.656628
0.614922
0.580067
0.54888
0.52098
0.49679
0.476056
0.461328
0.454978
0.454313
0.455925
0.45002
0.444753
0.102649
0.125858
0.245518
0.771021
1.55171
0.797288
0.845268
0.975623
0.868502
0.789018
0.759826
0.707387
0.658184
0.616203
0.580742
0.549853
0.521628
0.497952
0.477147
0.462009
0.454869
0.453579
0.45381
0.447444
0.441801
0.102974
0.123742
0.232996
0.701989
1.57555
0.817274
0.838527
0.970075
0.874743
0.791786
0.761194
0.709954
0.660277
0.617787
0.581571
0.550712
0.522347
0.499176
0.47838
0.462716
0.454583
0.45209
0.450554
0.443384
0.437245
0.103289
0.121323
0.219254
0.629386
1.58618
0.848398
0.826905
0.963646
0.881423
0.795292
0.76195
0.712875
0.662894
0.619735
0.582549
0.55145
0.523105
0.500167
0.479462
0.463179
0.453832
0.449308
0.446076
0.437572
0.430358
0.103516
0.118558
0.203811
0.558137
1.57533
0.892966
0.812627
0.955629
0.888014
0.799986
0.762548
0.715888
0.6661
0.622111
0.583664
0.552183
0.523749
0.500853
0.480139
0.463057
0.452213
0.445075
0.440042
0.429717
0.420542
0.103532
0.115561
0.187793
0.490326
1.52942
0.952395
0.799039
0.944776
0.894113
0.806323
0.763323
0.718668
0.669834
0.624921
0.585058
0.552984
0.524475
0.501161
0.480303
0.462553
0.449561
0.439792
0.432016
0.419095
0.407161
0.103207
0.112304
0.17183
0.427595
1.44117
1.02647
0.790156
0.929876
0.901609
0.815469
0.765162
0.721262
0.673878
0.627911
0.586973
0.553963
0.525315
0.500989
0.479882
0.461325
0.446106
0.433276
0.421717
0.404692
0.387611
0.102363
0.108681
0.156227
0.370068
1.30812
1.11077
0.791248
0.909063
0.911267
0.826169
0.766889
0.72373
0.678069
0.631426
0.58959
0.555219
0.5261
0.500559
0.479187
0.459104
0.441525
0.425126
0.408585
0.385894
0.358235
0.102068
0.129355
0.265925
0.875888
1.50902
0.773667
0.851231
0.981973
0.859611
0.783685
0.75506
0.70289
0.654594
0.613236
0.578813
0.547122
0.519542
0.494855
0.474096
0.459775
0.454044
0.45392
0.456709
0.450951
0.445944
0.102169
0.128802
0.26272
0.859995
1.5166
0.776808
0.851093
0.981794
0.86113
0.78539
0.756796
0.704339
0.655823
0.614296
0.579751
0.548224
0.520613
0.496101
0.475369
0.460905
0.454977
0.454634
0.456933
0.451174
0.446087
0.102366
0.127597
0.255766
0.824627
1.53073
0.784494
0.849252
0.979717
0.8638
0.786759
0.758091
0.705439
0.656617
0.61492
0.580059
0.548887
0.520993
0.496812
0.47608
0.46135
0.454993
0.454318
0.455911
0.449986
0.44471
0.10265
0.125855
0.245503
0.77094
1.55171
0.79731
0.845226
0.975601
0.868587
0.789024
0.759809
0.707399
0.658206
0.616222
0.580746
0.549858
0.521634
0.497971
0.47717
0.462031
0.454884
0.453584
0.453798
0.447412
0.441761
0.102974
0.123739
0.23298
0.701903
1.57562
0.817302
0.838489
0.970009
0.874822
0.79181
0.761163
0.70999
0.66032
0.617816
0.581579
0.550712
0.522351
0.499192
0.478402
0.462737
0.454599
0.452095
0.450543
0.443355
0.437208
0.10329
0.12132
0.219239
0.629315
1.58624
0.848429
0.826877
0.963563
0.881459
0.795313
0.761933
0.712931
0.662949
0.619773
0.582551
0.551448
0.523109
0.50018
0.479482
0.463199
0.453848
0.449314
0.446067
0.437545
0.430323
0.103516
0.118556
0.203795
0.558074
1.57535
0.893013
0.812605
0.955565
0.888018
0.799995
0.762539
0.715943
0.666156
0.622148
0.583664
0.552181
0.523756
0.500864
0.480157
0.463076
0.45223
0.445081
0.440033
0.429692
0.42051
0.103532
0.115558
0.187778
0.490272
1.52939
0.952469
0.799022
0.944736
0.894113
0.806334
0.763323
0.718712
0.669884
0.624954
0.585063
0.552989
0.52448
0.501169
0.480319
0.462571
0.449576
0.439798
0.432008
0.419072
0.407132
0.103207
0.112301
0.171817
0.427549
1.44111
1.02657
0.790139
0.929846
0.901619
0.815481
0.765167
0.721292
0.673914
0.627934
0.586979
0.553969
0.525324
0.500999
0.479899
0.461342
0.446119
0.433281
0.42171
0.404672
0.387586
0.102362
0.108678
0.156215
0.370028
1.30803
1.11089
0.791242
0.90904
0.911283
0.826169
0.766885
0.723746
0.678088
0.631441
0.589592
0.55523
0.526112
0.50057
0.479203
0.459119
0.441536
0.42513
0.408579
0.385877
0.358213
0.102067
0.129356
0.26593
0.875918
1.509
0.773657
0.851232
0.981964
0.859584
0.783678
0.75506
0.70289
0.654595
0.613238
0.578814
0.547122
0.519544
0.494859
0.474103
0.459785
0.454057
0.453933
0.45672
0.450954
0.445951
0.102169
0.128803
0.262725
0.860019
1.51659
0.776806
0.85109
0.981782
0.861121
0.785383
0.756792
0.704336
0.655821
0.614296
0.579752
0.548225
0.520616
0.496106
0.475377
0.460916
0.45499
0.454646
0.456943
0.451176
0.446092
0.102366
0.127598
0.25577
0.824647
1.53072
0.784488
0.849249
0.979708
0.863804
0.786751
0.758084
0.705433
0.656612
0.614918
0.580063
0.548889
0.520998
0.496818
0.47609
0.461362
0.455006
0.45433
0.455921
0.449988
0.444714
0.10265
0.125856
0.245506
0.770955
1.5517
0.797303
0.845224
0.975595
0.868583
0.789018
0.759807
0.707392
0.658196
0.616218
0.580742
0.549861
0.52164
0.497979
0.477181
0.462044
0.454898
0.453596
0.453805
0.447412
0.441761
0.102974
0.123739
0.232982
0.701914
1.57561
0.817294
0.838492
0.970012
0.874806
0.791803
0.761168
0.709977
0.660305
0.617808
0.581575
0.550716
0.522358
0.499201
0.478415
0.462751
0.454613
0.452106
0.450548
0.443352
0.437204
0.10329
0.12132
0.21924
0.629319
1.58623
0.848422
0.826881
0.963575
0.881444
0.795307
0.761938
0.712914
0.662934
0.619763
0.582554
0.551453
0.523115
0.50019
0.479496
0.463214
0.453862
0.449323
0.44607
0.43754
0.430316
0.103516
0.118556
0.203795
0.558071
1.57533
0.893008
0.812608
0.955578
0.888012
0.799992
0.762542
0.715927
0.666142
0.62214
0.58367
0.552189
0.523762
0.500877
0.480172
0.463092
0.452244
0.44509
0.440035
0.429684
0.4205
0.103532
0.115558
0.187777
0.490264
1.52937
0.952466
0.799024
0.944746
0.89411
0.806328
0.763324
0.718701
0.669873
0.624948
0.585066
0.552994
0.524492
0.501183
0.480335
0.462588
0.449591
0.439808
0.432009
0.419063
0.40712
0.103207
0.112301
0.171814
0.427538
1.44109
1.02657
0.790144
0.929853
0.901618
0.815477
0.765164
0.721287
0.673913
0.627935
0.586985
0.553974
0.525334
0.501009
0.479914
0.461358
0.446135
0.433291
0.421712
0.404663
0.387573
0.102362
0.108677
0.156212
0.370016
1.30799
1.11089
0.791252
0.909043
0.911287
0.826178
0.766887
0.723751
0.678098
0.631448
0.589606
0.555231
0.526119
0.500578
0.479218
0.459137
0.441552
0.425141
0.408581
0.38587
0.358201
0.102068
0.12935
0.265897
0.875742
1.50908
0.773697
0.851224
0.981956
0.859582
0.783675
0.755061
0.702886
0.654588
0.613236
0.578818
0.547133
0.519556
0.49487
0.474109
0.459782
0.454047
0.453919
0.456701
0.450937
0.445932
0.10217
0.128797
0.262692
0.859847
1.51666
0.776845
0.851082
0.981776
0.861117
0.785382
0.756795
0.704332
0.655813
0.614291
0.579754
0.548233
0.520626
0.496116
0.475382
0.460914
0.454981
0.454633
0.456924
0.45116
0.446074
0.102366
0.127593
0.255739
0.82448
1.53079
0.784526
0.849242
0.979704
0.863804
0.786753
0.75809
0.705434
0.656608
0.614913
0.580061
0.548893
0.521005
0.496826
0.476094
0.46136
0.454997
0.454317
0.455903
0.449972
0.444696
0.10265
0.125851
0.245475
0.770787
1.55175
0.797353
0.845217
0.975594
0.868595
0.789025
0.759813
0.707398
0.658197
0.616212
0.580736
0.549859
0.521643
0.497984
0.477185
0.462043
0.45489
0.453584
0.453788
0.447396
0.441744
0.102975
0.123735
0.232955
0.701761
1.57564
0.817354
0.838471
0.970011
0.874822
0.791814
0.761185
0.709998
0.660316
0.617808
0.581569
0.550711
0.522356
0.499204
0.478418
0.46275
0.454606
0.452095
0.450533
0.443338
0.437189
0.10329
0.121316
0.219216
0.629197
1.58623
0.84849
0.826858
0.963571
0.881464
0.795305
0.761948
0.712924
0.662949
0.619768
0.582549
0.551446
0.523111
0.50019
0.479498
0.463213
0.453857
0.449314
0.446058
0.437527
0.430303
0.103516
0.118552
0.203774
0.557974
1.57528
0.893084
0.812586
0.955569
0.888031
0.800004
0.762553
0.715945
0.666162
0.622151
0.583669
0.552183
0.523756
0.500875
0.480173
0.463092
0.452241
0.445083
0.440024
0.429673
0.420489
0.103532
0.115555
0.187759
0.490188
1.52928
0.952553
0.799008
0.944728
0.894131
0.806351
0.763322
0.718718
0.669897
0.624965
0.585069
0.552989
0.524488
0.501181
0.480335
0.462588
0.449589
0.439802
0.432
0.419053
0.407111
0.103206
0.112298
0.171799
0.42748
1.44097
1.02666
0.79013
0.929825
0.901642
0.815498
0.76515
0.721303
0.673937
0.627953
0.586991
0.553972
0.525331
0.501008
0.479914
0.461359
0.446134
0.433287
0.421704
0.404655
0.387565
0.102361
0.108674
0.156199
0.36997
1.30786
1.11098
0.791254
0.909012
0.911315
0.826196
0.766882
0.723766
0.678121
0.631466
0.589615
0.555231
0.526117
0.500578
0.479219
0.459138
0.441552
0.425138
0.408576
0.385863
0.358195
0.102068
0.129352
0.265908
0.875802
1.50905
0.773681
0.851224
0.981952
0.859571
0.783669
0.755053
0.702879
0.654583
0.613232
0.578815
0.54713
0.519556
0.49487
0.47411
0.459786
0.454053
0.453926
0.456709
0.450943
0.44594
0.102169
0.128799
0.262703
0.859905
1.51664
0.776832
0.85108
0.981769
0.861111
0.785375
0.756786
0.704325
0.655808
0.614287
0.579751
0.548231
0.520626
0.496116
0.475384
0.460918
0.454987
0.454639
0.456933
0.451165
0.446082
0.102366
0.127594
0.255749
0.824536
1.53077
0.784511
0.849239
0.979696
0.8638
0.786746
0.758081
0.705427
0.656603
0.614908
0.580058
0.548891
0.521005
0.496826
0.476096
0.461364
0.455003
0.454324
0.455911
0.449978
0.444704
0.10265
0.125853
0.245486
0.770844
1.55174
0.797333
0.845215
0.975585
0.868588
0.789019
0.759806
0.707391
0.658192
0.616208
0.580734
0.549857
0.521642
0.497985
0.477187
0.462047
0.454896
0.45359
0.453796
0.447403
0.441752
0.102975
0.123736
0.232965
0.701813
1.57563
0.81733
0.838474
0.970002
0.874814
0.791808
0.761178
0.709991
0.66031
0.617804
0.581566
0.550708
0.522355
0.499204
0.47842
0.462754
0.454612
0.452101
0.450541
0.443344
0.437197
0.10329
0.121318
0.219225
0.62924
1.58622
0.848463
0.826862
0.963564
0.881455
0.795299
0.761942
0.712917
0.662944
0.619764
0.582546
0.551444
0.52311
0.50019
0.4795
0.463217
0.453862
0.44932
0.446065
0.437533
0.43031
0.103516
0.118553
0.203781
0.558009
1.5753
0.893053
0.81259
0.955563
0.888023
0.799998
0.762547
0.715938
0.666157
0.622147
0.583666
0.552181
0.523756
0.500875
0.480175
0.463096
0.452246
0.445089
0.440031
0.42968
0.420496
0.103532
0.115556
0.187765
0.490216
1.52931
0.952518
0.79901
0.944724
0.894123
0.806344
0.763316
0.718711
0.669891
0.62496
0.585066
0.552987
0.524486
0.50118
0.480337
0.462592
0.449593
0.439808
0.432007
0.41906
0.407117
0.103206
0.112299
0.171805
0.427502
1.44102
1.02662
0.790131
0.929823
0.901633
0.815491
0.765145
0.721297
0.673931
0.627948
0.586988
0.55397
0.52533
0.501007
0.479916
0.461362
0.446138
0.433292
0.421711
0.404661
0.387571
0.102361
0.108676
0.156204
0.369988
1.30791
1.11095
0.791249
0.909011
0.911305
0.826191
0.766878
0.72376
0.678115
0.631462
0.589612
0.555229
0.526116
0.500577
0.47922
0.459141
0.441556
0.425143
0.408581
0.385869
0.3582
0.102067
0.129356
0.26593
0.875918
1.509
0.773657
0.851232
0.981964
0.859584
0.783678
0.75506
0.70289
0.654595
0.613238
0.578814
0.547122
0.519544
0.494859
0.474104
0.459785
0.454057
0.453933
0.456721
0.450954
0.445951
0.102169
0.128803
0.262725
0.86002
1.51659
0.776806
0.85109
0.981782
0.86112
0.785383
0.756792
0.704336
0.655821
0.614296
0.579752
0.548224
0.520616
0.496106
0.475377
0.460916
0.45499
0.454646
0.456943
0.451177
0.446093
0.102366
0.127598
0.25577
0.824648
1.53072
0.784488
0.849249
0.979708
0.863803
0.786751
0.758084
0.705433
0.656612
0.614918
0.580063
0.548889
0.520998
0.496818
0.47609
0.461362
0.455006
0.45433
0.455921
0.449988
0.444714
0.10265
0.125856
0.245506
0.770956
1.5517
0.797303
0.845224
0.975595
0.868583
0.789018
0.759807
0.707392
0.658196
0.616217
0.580742
0.549861
0.52164
0.497979
0.477181
0.462044
0.454898
0.453596
0.453805
0.447412
0.441761
0.102974
0.123739
0.232982
0.701914
1.57561
0.817294
0.838492
0.970012
0.874806
0.791803
0.761168
0.709977
0.660305
0.617808
0.581575
0.550716
0.522358
0.499201
0.478415
0.462751
0.454613
0.452106
0.450548
0.443352
0.437204
0.10329
0.12132
0.21924
0.629319
1.58623
0.848422
0.826882
0.963575
0.881444
0.795307
0.761938
0.712914
0.662934
0.619763
0.582554
0.551453
0.523115
0.500191
0.479496
0.463214
0.453862
0.449323
0.44607
0.43754
0.430316
0.103516
0.118556
0.203795
0.558071
1.57533
0.893007
0.812608
0.955578
0.888012
0.799992
0.762542
0.715927
0.666142
0.62214
0.58367
0.552189
0.523762
0.500877
0.480172
0.463092
0.452244
0.44509
0.440035
0.429684
0.4205
0.103532
0.115558
0.187777
0.490264
1.52937
0.952466
0.799024
0.944746
0.89411
0.806328
0.763324
0.718701
0.669873
0.624948
0.585066
0.552994
0.524492
0.501183
0.480335
0.462588
0.449591
0.439808
0.43201
0.419063
0.40712
0.103207
0.112301
0.171814
0.427538
1.44109
1.02657
0.790144
0.929853
0.901618
0.815477
0.765163
0.721287
0.673913
0.627935
0.586985
0.553974
0.525334
0.501009
0.479914
0.461358
0.446135
0.433291
0.421712
0.404663
0.387573
0.102362
0.108677
0.156212
0.370016
1.30799
1.11089
0.791252
0.909043
0.911287
0.826177
0.766887
0.723751
0.678098
0.631448
0.589606
0.555231
0.526119
0.500578
0.479218
0.459137
0.441552
0.425141
0.408581
0.38587
0.358201
0.102068
0.129355
0.265925
0.875888
1.50902
0.773667
0.851231
0.981973
0.859611
0.783685
0.75506
0.70289
0.654594
0.613236
0.578813
0.547122
0.519542
0.494855
0.474096
0.459775
0.454044
0.45392
0.456709
0.450951
0.445944
0.102169
0.128802
0.26272
0.859995
1.5166
0.776808
0.851093
0.981794
0.86113
0.78539
0.756796
0.704339
0.655823
0.614296
0.579751
0.548224
0.520613
0.496101
0.475369
0.460905
0.454978
0.454634
0.456933
0.451174
0.446087
0.102366
0.127597
0.255766
0.824627
1.53073
0.784494
0.849252
0.979717
0.8638
0.786759
0.758091
0.705439
0.656617
0.61492
0.580059
0.548887
0.520993
0.496812
0.47608
0.46135
0.454993
0.454318
0.455911
0.449986
0.44471
0.10265
0.125855
0.245503
0.77094
1.55171
0.79731
0.845226
0.975601
0.868587
0.789024
0.759809
0.707399
0.658206
0.616222
0.580746
0.549858
0.521634
0.497971
0.47717
0.462031
0.454884
0.453584
0.453798
0.447412
0.441761
0.102974
0.123739
0.23298
0.701903
1.57562
0.817302
0.838489
0.970009
0.874822
0.79181
0.761163
0.70999
0.66032
0.617816
0.581579
0.550712
0.522351
0.499192
0.478402
0.462737
0.454599
0.452095
0.450543
0.443355
0.437208
0.10329
0.12132
0.219239
0.629315
1.58624
0.848429
0.826877
0.963563
0.881459
0.795313
0.761933
0.712931
0.662949
0.619773
0.582551
0.551448
0.523109
0.50018
0.479482
0.463199
0.453848
0.449314
0.446067
0.437545
0.430323
0.103516
0.118556
0.203795
0.558074
1.57535
0.893013
0.812605
0.955565
0.888018
0.799995
0.762539
0.715943
0.666156
0.622148
0.583664
0.552181
0.523756
0.500864
0.480157
0.463076
0.45223
0.445081
0.440033
0.429692
0.42051
0.103532
0.115558
0.187778
0.490272
1.52939
0.952469
0.799022
0.944736
0.894113
0.806334
0.763323
0.718712
0.669884
0.624954
0.585063
0.552989
0.52448
0.501169
0.480319
0.462571
0.449576
0.439798
0.432008
0.419072
0.407132
0.103207
0.112301
0.171817
0.427549
1.44111
1.02657
0.790139
0.929846
0.901619
0.815481
0.765167
0.721292
0.673914
0.627934
0.586979
0.553969
0.525324
0.500999
0.479899
0.461342
0.446119
0.433281
0.42171
0.404672
0.387586
0.102362
0.108678
0.156215
0.370028
1.30803
1.11089
0.791242
0.90904
0.911283
0.826169
0.766885
0.723746
0.678088
0.631441
0.589592
0.55523
0.526112
0.50057
0.479203
0.459119
0.441536
0.42513
0.408579
0.385877
0.358213
0.102067
0.129357
0.265936
0.875948
1.50901
0.773643
0.851292
0.981951
0.859519
0.7837
0.755087
0.702933
0.654622
0.613254
0.578814
0.54711
0.519513
0.494828
0.47407
0.459752
0.45403
0.453916
0.456724
0.450987
0.445989
0.102168
0.128802
0.262721
0.860004
1.51657
0.776903
0.851096
0.98173
0.861175
0.785365
0.756792
0.704372
0.655845
0.614308
0.579751
0.548217
0.520588
0.496077
0.475343
0.460883
0.454963
0.454629
0.456948
0.451209
0.446131
0.102365
0.127598
0.255771
0.824648
1.53079
0.784514
0.849261
0.979694
0.863809
0.786749
0.758095
0.705459
0.656628
0.614922
0.580067
0.54888
0.52098
0.49679
0.476056
0.461328
0.454978
0.454313
0.455925
0.45002
0.444753
0.102649
0.125858
0.245518
0.771021
1.55171
0.797288
0.845268
0.975622
0.868502
0.789018
0.759826
0.707387
0.658184
0.616203
0.580742
0.549853
0.521628
0.497952
0.477147
0.462009
0.454869
0.453579
0.45381
0.447444
0.441801
0.102974
0.123742
0.232996
0.701989
1.57555
0.817274
0.838527
0.970074
0.874743
0.791786
0.761194
0.709954
0.660277
0.617787
0.581571
0.550712
0.522347
0.499176
0.47838
0.462715
0.454583
0.45209
0.450554
0.443384
0.437245
0.103289
0.121323
0.219254
0.629386
1.58618
0.848399
0.826905
0.963646
0.881423
0.795292
0.76195
0.712875
0.662894
0.619735
0.582549
0.55145
0.523105
0.500167
0.479462
0.463178
0.453831
0.449308
0.446076
0.437572
0.430358
0.103516
0.118558
0.203811
0.558136
1.57533
0.892967
0.812627
0.955629
0.888014
0.799986
0.762548
0.715888
0.6661
0.622111
0.583664
0.552183
0.523749
0.500853
0.480139
0.463057
0.452213
0.445075
0.440042
0.429717
0.420542
0.103532
0.115561
0.187793
0.490326
1.52942
0.952395
0.799039
0.944776
0.894113
0.806323
0.763323
0.718668
0.669834
0.624921
0.585058
0.552984
0.524475
0.501161
0.480303
0.462553
0.449561
0.439792
0.432016
0.419095
0.407161
0.103207
0.112304
0.17183
0.427595
1.44117
1.02647
0.790156
0.929876
0.90161
0.81547
0.765163
0.721262
0.673878
0.627911
0.586973
0.553963
0.525315
0.500989
0.479882
0.461325
0.446106
0.433276
0.421717
0.404692
0.387611
0.102363
0.108681
0.156227
0.370067
1.30812
1.11077
0.791248
0.909063
0.911267
0.826169
0.766889
0.72373
0.678069
0.631427
0.58959
0.555219
0.5261
0.500559
0.479187
0.459104
0.441525
0.425126
0.408585
0.385894
0.358235
0.102068
0.129356
0.265931
0.875942
1.50904
0.773657
0.851243
0.982018
0.859574
0.783712
0.755092
0.702922
0.654621
0.613254
0.578828
0.547142
0.519559
0.494869
0.474098
0.459765
0.454027
0.453906
0.456704
0.450971
0.445972
0.10217
0.128803
0.262726
0.860047
1.51665
0.776787
0.851095
0.981822
0.861152
0.785409
0.756804
0.704361
0.655845
0.614311
0.57976
0.548241
0.520625
0.496114
0.475371
0.460896
0.454961
0.45462
0.456928
0.451196
0.446116
0.102367
0.127597
0.255768
0.824658
1.53078
0.784494
0.849233
0.979708
0.863918
0.786772
0.758088
0.705465
0.656638
0.614941
0.580064
0.548904
0.520999
0.496824
0.47608
0.461341
0.454978
0.454306
0.455909
0.45001
0.444742
0.102651
0.125855
0.245502
0.770956
1.55178
0.797314
0.845205
0.975571
0.86867
0.789048
0.759818
0.707422
0.658224
0.616242
0.580743
0.549869
0.521638
0.497982
0.477169
0.462022
0.45487
0.453574
0.4538
0.447442
0.441795
0.102975
0.123738
0.232979
0.701925
1.57569
0.817304
0.838482
0.970009
0.874826
0.791844
0.761205
0.710014
0.660333
0.617828
0.581578
0.55072
0.522356
0.499198
0.478399
0.462727
0.454585
0.452087
0.450549
0.443386
0.437246
0.10329
0.121319
0.219236
0.629325
1.58629
0.848446
0.826874
0.963606
0.881459
0.795331
0.761975
0.712928
0.662956
0.619778
0.582569
0.551462
0.523116
0.500184
0.479476
0.463188
0.453836
0.449308
0.446076
0.437578
0.430365
0.103516
0.118554
0.20379
0.558068
1.57537
0.89305
0.812592
0.955625
0.888051
0.800026
0.76257
0.715944
0.666161
0.622154
0.583683
0.552199
0.523766
0.50087
0.480151
0.463064
0.452217
0.445075
0.440044
0.429726
0.420554
0.103532
0.115556
0.18777
0.490254
1.52941
0.95253
0.798998
0.944784
0.894172
0.806366
0.763328
0.718717
0.669898
0.62497
0.585082
0.553006
0.524498
0.501176
0.480314
0.46256
0.449563
0.439791
0.432019
0.419106
0.407177
0.103206
0.112299
0.171807
0.427525
1.44112
1.02665
0.790111
0.929869
0.901704
0.815514
0.765145
0.721311
0.67395
0.627964
0.587005
0.553984
0.525337
0.500999
0.479894
0.46133
0.446107
0.433274
0.42172
0.404704
0.387629
0.102361
0.108675
0.156205
0.370001
1.308
1.11099
0.791223
0.909041
0.911388
0.826218
0.766891
0.723791
0.678145
0.631483
0.589634
0.555239
0.526125
0.500567
0.4792
0.459109
0.441524
0.425123
0.408587
0.385904
0.358253
0.100819
0.104567
0.141121
0.315978
1.12775
1.20909
0.799325
0.884732
0.919403
0.837815
0.768806
0.726391
0.68247
0.635628
0.593239
0.556675
0.526876
0.50022
0.477999
0.456246
0.436045
0.415504
0.392221
0.357745
0.289269
0.0986
0.100169
0.126927
0.262909
0.897633
1.32832
0.811959
0.865139
0.922159
0.849705
0.771427
0.729154
0.68721
0.640675
0.597687
0.55889
0.528017
0.500309
0.476711
0.453173
0.430196
0.405474
0.375821
0.333307
0.265435
0.0966862
0.0948006
0.114565
0.218645
0.674824
1.42007
0.842533
0.859187
0.915023
0.859253
0.775433
0.733733
0.693087
0.646634
0.602628
0.562308
0.529702
0.500696
0.475337
0.450298
0.424971
0.397287
0.364731
0.321387
0.266465
0.0952782
0.0893317
0.10457
0.184067
0.52037
1.44175
0.897554
0.849021
0.905088
0.865329
0.782359
0.740915
0.699537
0.652916
0.608101
0.56704
0.531715
0.501897
0.474723
0.448963
0.421571
0.392401
0.359461
0.320409
0.270639
0.0941246
0.0845281
0.0960351
0.154974
0.414447
1.40756
0.974947
0.834204
0.894385
0.865151
0.79711
0.749831
0.705131
0.6594
0.614596
0.572989
0.534593
0.503619
0.474915
0.448727
0.420962
0.391106
0.359034
0.321634
0.279536
0.0932475
0.0804155
0.0887211
0.129895
0.32005
1.21839
1.05821
0.836311
0.878985
0.862737
0.815936
0.757444
0.710616
0.666095
0.621801
0.579182
0.538945
0.506276
0.475993
0.448765
0.421298
0.391544
0.359946
0.325216
0.291285
0.0926217
0.0768491
0.082844
0.111179
0.237834
0.814865
1.16367
0.863069
0.870014
0.863627
0.829915
0.763916
0.715063
0.673346
0.629876
0.586171
0.545583
0.509708
0.479214
0.449996
0.422765
0.393463
0.363051
0.332671
0.303353
0.0920901
0.0738491
0.0783072
0.0986881
0.18551
0.532877
1.21357
0.897857
0.867543
0.864062
0.836801
0.772225
0.72164
0.682245
0.638381
0.59384
0.553197
0.514789
0.483831
0.453922
0.426124
0.398087
0.369837
0.342691
0.315484
0.091651
0.071255
0.0745691
0.0894744
0.151336
0.403876
1.19656
0.967242
0.8654
0.859195
0.836997
0.782134
0.729256
0.690704
0.646635
0.602391
0.561096
0.522694
0.489011
0.459993
0.431968
0.405291
0.378322
0.352236
0.32656
0.0912931
0.0690877
0.0714343
0.0817998
0.123744
0.310429
1.10109
1.02932
0.868461
0.856042
0.834891
0.788004
0.735346
0.697009
0.654543
0.611707
0.570061
0.532012
0.495814
0.466473
0.438578
0.41194
0.386268
0.360976
0.336864
0.0909951
0.0674042
0.0690304
0.0759314
0.101747
0.214458
0.778291
1.06886
0.890716
0.85695
0.835181
0.794397
0.742912
0.702004
0.662242
0.621359
0.580425
0.541803
0.505885
0.47362
0.446214
0.419528
0.394559
0.370302
0.347327
0.0907542
0.066053
0.0672274
0.072091
0.0892188
0.15568
0.423921
1.05767
0.932179
0.864309
0.838042
0.800857
0.750722
0.70681
0.670655
0.632061
0.591684
0.552405
0.516793
0.482669
0.454857
0.428234
0.403402
0.380161
0.358317
0.0905697
0.0649504
0.0657748
0.0691922
0.0809156
0.124404
0.30471
0.967958
0.957287
0.885451
0.843893
0.805556
0.757548
0.713747
0.681225
0.643864
0.604027
0.564833
0.528569
0.494983
0.464144
0.438069
0.413427
0.390601
0.369656
0.0904348
0.0641189
0.0646629
0.0669215
0.0744253
0.100745
0.212845
0.741702
0.970709
0.910971
0.852883
0.811038
0.765407
0.724408
0.691773
0.656559
0.616982
0.577807
0.541007
0.507677
0.476441
0.448677
0.424358
0.401801
0.38145
0.0903532
0.0635108
0.0638672
0.0653708
0.0701775
0.0859273
0.145723
0.392116
0.946667
0.915315
0.862253
0.817994
0.775687
0.736645
0.700809
0.670377
0.630909
0.59187
0.555135
0.52111
0.49003
0.46119
0.43627
0.414009
0.393944
0.0903385
0.0630854
0.0633049
0.0642767
0.0673534
0.0770048
0.11095
0.253496
0.807956
0.913833
0.881241
0.829905
0.788606
0.750185
0.713324
0.682178
0.645024
0.6075
0.570401
0.535946
0.504551
0.475629
0.449353
0.427044
0.407206
0.0903937
0.0628242
0.0629481
0.0635558
0.0654681
0.071211
0.0899645
0.163316
0.468216
0.900995
0.886445
0.851939
0.805974
0.764233
0.726144
0.690769
0.659938
0.622644
0.585874
0.551342
0.519684
0.490995
0.464622
0.441069
0.421371
0.0904795
0.0627096
0.0627814
0.0631404
0.0642523
0.0675869
0.0780826
0.115577
0.271977
0.782414
0.883469
0.864447
0.822973
0.779052
0.73932
0.702567
0.671711
0.637656
0.60216
0.567939
0.53599
0.506791
0.480685
0.456998
0.436242
0.0905099
0.0628216
0.0625539
0.0627259
0.0633697
0.0653227
0.0711593
0.0903189
0.165988
0.468541
0.861467
0.863471
0.841878
0.795759
0.753282
0.715528
0.681469
0.652684
0.618701
0.584894
0.552896
0.523778
0.497164
0.47402
0.453381
0.0905101
0.0629207
0.0623594
0.0624544
0.0628173
0.06392
0.0671287
0.077077
0.112443
0.259004
0.727558
0.855274
0.843338
0.813925
0.769232
0.730035
0.694367
0.663846
0.634205
0.601996
0.570543
0.541399
0.515238
0.492186
0.471571
0.090505
0.062983
0.0622341
0.0622852
0.0624845
0.0630889
0.0648444
0.0700049
0.0868615
0.151904
0.395345
0.808996
0.839372
0.822776
0.785502
0.745531
0.708655
0.676135
0.649452
0.619087
0.588865
0.559967
0.534053
0.511462
0.491907
0.0904999
0.0630162
0.0621617
0.0621875
0.0622919
0.0626116
0.0635348
0.0661786
0.0742614
0.102232
0.216249
0.61187
0.817645
0.819225
0.80154
0.762848
0.724532
0.690447
0.66095
0.636827
0.607891
0.579901
0.553723
0.531428
0.513561
0.0904971
0.0630319
0.0621215
0.0621333
0.0621849
0.062346
0.0628129
0.0641556
0.0680704
0.0807007
0.128363
0.31096
0.718545
0.808265
0.800777
0.780075
0.743032
0.707397
0.67637
0.651776
0.626797
0.600008
0.57509
0.553008
0.535663
0.0904973
0.0630347
0.0621018
0.0621074
0.0621322
0.0622083
0.0624327
0.0630808
0.0649667
0.0706411
0.0896284
0.164632
0.430431
0.75866
0.793206
0.782915
0.760768
0.726535
0.694324
0.666507
0.646554
0.621065
0.597125
0.576698
0.55976
0.090498
0.0630304
0.0621036
0.0620911
0.0620992
0.0621313
0.0622333
0.0625342
0.0634084
0.0659578
0.073924
0.102108
0.213386
0.563294
0.760752
0.777373
0.766798
0.744214
0.71415
0.685197
0.66287
0.643697
0.621611
0.601723
0.58725
0.0904979
0.0630285
0.0621078
0.0620789
0.062082
0.0620954
0.062139
0.0622718
0.062657
0.0637866
0.0671397
0.0781134
0.11929
0.272369
0.633938
0.75468
0.762556
0.753149
0.733691
0.707277
0.682981
0.667443
0.647348
0.629692
0.616441
0.0904978
0.0630286
0.0621081
0.0620745
0.0620759
0.0620809
0.0620973
0.0621489
0.0623099
0.0627819
0.0641929
0.0684819
0.0829345
0.138074
0.322954
0.662028
0.745354
0.74979
0.742435
0.727159
0.70614
0.687738
0.676958
0.660947
0.649856
0.0904977
0.0630289
0.0621074
0.0620753
0.062072
0.0620732
0.0620788
0.0620982
0.0621595
0.0623482
0.0629078
0.0645879
0.0698105
0.0876755
0.155359
0.377387
0.670529
0.73489
0.739374
0.73405
0.725037
0.710967
0.704853
0.694338
0.686313
0.0904977
0.063029
0.0621072
0.0620757
0.0620705
0.0620708
0.0620726
0.0620791
0.0621012
0.0621711
0.0623815
0.0630123
0.0649141
0.0709578
0.0920273
0.170655
0.414499
0.667053
0.723827
0.73224
0.730999
0.727987
0.725123
0.725479
0.727266
0.0904977
0.063029
0.0621072
0.0620758
0.0620702
0.0620702
0.062071
0.0620735
0.062082
0.0621081
0.0621854
0.0624098
0.0630842
0.0651247
0.0717314
0.0951423
0.181455
0.427005
0.652509
0.715313
0.728848
0.730467
0.735296
0.748703
0.764656
0.0904977
0.063029
0.0621072
0.0620758
0.0620702
0.0620702
0.0620708
0.0620728
0.0620785
0.0620933
0.0621279
0.0622158
0.062459
0.0631453
0.0652122
0.0719243
0.0958007
0.180082