/*--------------------------------*- C++ -*----------------------------------*\
| =========                 |                                                 |
| \\      /  F ield         | OpenFOAM: The Open Source CFD Toolbox           |
|  \\    /   O peration     | Version:  4.1                                   |
|   \\  /    A nd           | Web:      www.OpenFOAM.org                      |
|    \\/     M anipulation  |                                                 |
\*---------------------------------------------------------------------------*/
FoamFile
{
    version     2.0;
    format      ascii;
    class       surfaceScalarField;
    location    "0.66";
    object      phi;
}
// * * * * * * * * * * * * * * * * * * * * * * * * * * * * * * * * * * * * * //

dimensions      [1 0 -1 0 0 0 0];

internalField   nonuniform List<scalar> 
150500
(
0.00188893
-2.29479e-08
6.60481e-12
0.00184009
2.48335e-06
-2.32389e-11
0.00161727
1.72604e-05
-1.31354e-10
-5.33882e-05
0.000143608
-6.58154e-10
0.000503461
0.000308324
3.14707e-10
0.000762753
9.44063e-05
2.20025e-10
0.000521424
0.000121725
-3.87725e-10
0.000460345
0.000155239
1.79055e-11
0.0005867
0.000140078
7.4014e-10
0.000633339
0.000117825
3.85294e-11
0.00067439
0.000130314
-5.5083e-12
0.000681746
0.000118938
-7.01527e-11
0.000689366
0.000108509
-6.73382e-11
0.000677224
0.00010105
-5.53817e-11
0.000663319
9.40664e-05
5.38975e-11
0.000636248
9.0633e-05
1.687e-10
0.000604296
8.95709e-05
2.26313e-10
0.000532998
9.07431e-05
2.34375e-10
0.000423451
9.18839e-05
2.05255e-10
0.000305129
9.47536e-05
1.50038e-10
0.000191138
9.98576e-05
7.51033e-11
8.98034e-05
0.000106527
1.44553e-11
2.37308e-05
0.000114662
-9.39515e-11
2.89955e-06
0.000122003
-1.03969e-10
0.000129768
-1.36747e-10
0.00189135
1.89876e-08
5.82606e-12
0.00184322
5.32527e-06
-9.42434e-12
0.00162289
3.52864e-05
-6.72257e-11
-3.73286e-05
0.000285335
-3.37105e-10
0.000475489
0.000624792
4.32082e-10
0.000762206
0.00018389
-5.03476e-10
0.000522554
0.000240737
-1.25482e-12
0.000449548
0.000318314
3.75418e-10
0.000579471
0.000278018
-1.79028e-10
0.000634215
0.000229875
2.71329e-10
0.000677589
0.00025693
1.90432e-10
0.000688053
0.000235466
-3.65286e-11
0.000697078
0.000216072
-5.57853e-11
0.000685641
0.000201562
-3.228e-11
0.000670271
0.000189169
4.97672e-11
0.000642341
0.000182074
1.31747e-10
0.000610165
0.000180124
2.04393e-10
0.000539967
0.000182085
2.14038e-10
0.000430798
0.000184632
1.92275e-10
0.000311838
0.000190661
1.43516e-10
0.000196887
0.000201359
7.44688e-11
9.45158e-05
0.000214732
1.89836e-11
2.68936e-05
0.000231462
-8.1086e-11
4.13802e-06
0.00024551
-9.15594e-11
0.000260278
-1.24868e-10
0.00189688
1.3973e-07
5.00051e-12
0.00185145
7.90591e-06
-1.62801e-11
0.00163985
5.09071e-05
-8.6241e-11
2.29144e-05
0.000396333
-3.79989e-10
0.000452639
0.000955385
-9.50156e-11
0.000780547
0.000283338
-6.44374e-11
0.000535705
0.000354044
9.90821e-12
0.000455809
0.000476301
3.04222e-10
0.000585976
0.000421335
-6.40168e-11
0.000645052
0.000341597
1.77724e-10
0.000689104
0.000381123
1.49287e-10
0.0007017
0.000351712
1.63245e-11
0.000710027
0.000325032
3.47675e-12
0.000696871
0.000303818
2.87174e-11
0.000679311
0.00028448
1.30976e-11
0.00065146
0.000273546
1.17333e-10
0.000619413
0.000271263
1.27466e-10
0.000551422
0.000274161
1.91127e-10
0.000443374
0.000278513
1.71441e-10
0.00032392
0.000287839
1.31795e-10
0.000207827
0.000305077
7.22152e-11
0.000103831
0.00032561
2.3355e-11
3.4384e-05
0.000351054
-6.19699e-11
7.98483e-06
0.000372607
-7.82091e-11
0.000392388
-1.10069e-10
0.00190519
4.53334e-07
5.53808e-12
0.00186407
1.02416e-05
-2.58667e-11
0.00166776
6.27512e-05
-1.48005e-10
0.000121739
0.000461049
-7.71606e-10
0.000418359
0.00131463
1.77422e-10
0.00082724
0.000392286
2.58887e-10
0.000549184
0.000463641
-1.95471e-10
0.000465767
0.000627034
1.92e-10
0.000593003
0.000567245
5.3928e-10
0.000658398
0.000457044
1.17045e-10
0.000705509
0.000502529
2.43592e-11
0.00072011
0.000469041
1.31699e-10
0.000727952
0.000434896
1.58006e-10
0.000714332
0.000406828
1.32621e-10
0.000692625
0.000380807
2.75529e-11
0.000664967
0.000365976
7.57161e-11
0.00063263
0.000362717
7.42984e-11
0.000568429
0.000367027
1.61456e-10
0.000461889
0.000373885
1.53933e-10
0.000342228
0.000386585
1.24181e-10
0.000224528
0.000411424
7.4623e-11
0.000120027
0.000439296
3.07616e-11
4.82655e-05
0.000474974
-2.76656e-11
1.61254e-05
0.000506187
-4.54633e-11
0.000531912
-7.3917e-11
0.00191601
9.41028e-07
5.24226e-12
0.00187982
1.24227e-05
-2.69002e-11
0.00170331
7.1434e-05
-1.50466e-10
0.000325974
0.000478466
-7.9481e-10
0.000364811
0.00169094
5.52164e-10
0.000896689
0.000521303
3.42487e-10
0.000561725
0.000566547
-2.3198e-10
0.000481125
0.000768942
-3.9211e-11
0.000601104
0.000716897
5.79901e-10
0.00067258
0.000580992
2.16568e-10
0.000724868
0.00062159
-3.02928e-11
0.000743262
0.000588681
2.88009e-10
0.00075012
0.00054757
3.11059e-10
0.000736737
0.000512335
2.19289e-10
0.000709379
0.000478271
7.55637e-11
0.000682083
0.000459422
3.44682e-11
0.000648715
0.000453849
4.96213e-11
0.000590125
0.000460627
1.15918e-10
0.00048635
0.000470538
1.29131e-10
0.000366917
0.000486862
1.11962e-10
0.000247839
0.000520164
7.78107e-11
0.00014367
0.000556956
4.23464e-11
6.82092e-05
0.000604592
3.75636e-12
2.79014e-05
0.000647959
-1.20355e-11
0.000684475
-3.15978e-11
0.00192937
1.68847e-06
3.62098e-12
0.00189515
1.45215e-05
-2.82591e-11
0.00173323
7.73669e-05
-1.4819e-10
0.000548904
0.000465488
-6.79877e-10
0.000283827
0.00205986
4.63825e-10
0.000941257
0.000684277
4.15704e-10
0.000584164
0.000657486
-2.0924e-10
0.000499106
0.000903704
-1.89436e-10
0.000609528
0.00086804
4.17205e-10
0.000687938
0.000711207
1.74514e-10
0.000746682
0.000736961
-4.9891e-12
0.000770646
0.000711135
3.30547e-10
0.000776587
0.000663819
3.89313e-10
0.000763046
0.000620108
2.69284e-10
0.00073016
0.000578022
5.66375e-11
0.000702528
0.000553421
2.33738e-11
0.000668142
0.000545122
4.46484e-11
0.000616011
0.000554359
7.70816e-11
0.000516727
0.000568189
9.83948e-11
0.000398085
0.000589144
9.2564e-11
0.000279867
0.00062985
7.8474e-11
0.000175605
0.000679888
5.82479e-11
9.59591e-05
0.000739734
2.83426e-11
4.4734e-05
0.000800447
1.85263e-11
0.000855353
1.00657e-11
0.00194602
2.75885e-06
1.92801e-12
0.00191535
1.65717e-05
-2.8858e-11
0.00174716
7.97433e-05
-1.50754e-10
0.000757597
0.000433137
-6.04823e-10
0.000198225
0.00234899
1.41692e-10
0.000956717
0.000897676
5.68691e-10
0.000626673
0.000736825
-1.95282e-10
0.000515796
0.00102786
-1.64017e-10
0.000619687
0.00101833
2.66518e-10
0.000704825
0.000844754
2.03946e-10
0.000769852
0.000849509
3.94153e-11
0.000801653
0.000836507
3.80733e-10
0.00080744
0.000784374
4.13255e-10
0.000793857
0.00073097
2.92669e-10
0.000755226
0.000680531
5.56219e-11
0.000726408
0.000647723
2.28836e-11
0.000691141
0.00063595
5.37048e-11
0.000645916
0.000647148
5.31996e-11
0.000553602
0.000665872
6.81738e-11
0.00043716
0.000693357
7.39038e-11
0.000322534
0.000738995
7.39905e-11
0.000217264
0.000805264
5.7152e-11
0.000133718
0.000879872
4.49745e-11
7.01592e-05
0.000964493
4.74003e-11
0.00105004
4.59276e-11
0.00196577
3.98924e-06
-2.17701e-12
0.00193664
1.85151e-05
-3.03566e-11
0.00175935
7.93767e-05
-1.44781e-10
0.00096265
0.000391459
-5.32764e-10
0.000115395
0.00251324
-2.36886e-10
0.000952374
0.00117996
8.26738e-10
0.000674324
0.000808444
-1.75974e-10
0.000525006
0.00113812
-1.27763e-10
0.00063737
0.00117031
2.51672e-10
0.000727173
0.000985578
2.5856e-10
0.000793539
0.000961752
2.67514e-11
0.000835218
0.000965185
3.47884e-10
0.000842192
0.000909141
4.06919e-10
0.000828583
0.00084581
3.01033e-10
0.000784757
0.000785523
1.04676e-10
0.000754025
0.000741979
6.03564e-11
0.000718319
0.000725687
4.90468e-11
0.000680306
0.000738235
2.53095e-11
0.000597272
0.00076295
5.2956e-11
0.000486697
0.000794659
6.22071e-11
0.000375617
0.000846246
5.63099e-11
0.000272182
0.00092773
4.98322e-11
0.000185067
0.00102256
5.51603e-11
0.000109374
0.00113782
6.73005e-11
0.00127889
6.99819e-11
0.00198882
5.23547e-06
-6.6768e-12
0.00195669
2.02164e-05
-3.17627e-11
0.00177301
7.66452e-05
-1.34649e-10
0.00115257
0.000348597
-4.59724e-10
3.75829e-05
0.00255902
-4.94749e-10
0.000925823
0.00154282
1.05196e-09
0.0007273
0.000879004
-1.87932e-10
0.000532716
0.00122607
-1.5728e-10
0.000683314
0.00132642
3.16938e-10
0.000760153
0.00113675
2.40396e-10
0.000817179
0.00107852
1.35458e-11
0.000869565
0.00109419
2.82613e-10
0.00088039
0.00103679
3.55481e-10
0.00086612
0.000963108
2.59362e-10
0.000819698
0.000893667
1.30487e-10
0.0007853
0.000837167
8.95127e-11
0.000750408
0.000815423
8.37279e-11
0.000718526
0.000826725
4.82869e-11
0.000646636
0.000855745
5.56342e-11
0.000547283
0.000890144
5.14474e-11
0.000442131
0.000950469
4.3491e-11
0.000344712
0.00104381
4.39651e-11
0.000258191
0.00116246
5.93219e-11
0.000175012
0.00131286
7.8651e-11
0.00156147
8.1781e-11
0.00201556
-1.16071e-11
6.16214e-06
0.0019734
-3.32293e-11
2.13565e-05
0.00178864
-1.21113e-10
7.17191e-05
0.00131759
-3.98375e-10
0.00030805
1.12926e-05
-8.0453e-10
0.00242073
0.000889809
1.27546e-09
0.00198378
0.000785549
-7.57424e-11
0.00097471
0.000566169
-1.70273e-10
0.00128632
0.000737032
3.86992e-10
0.00148162
0.0007922
1.60593e-10
0.00129816
0.000838956
2.77649e-11
0.00119563
0.000904698
2.2602e-10
0.00122122
0.000921418
2.64605e-10
0.00116677
0.000906477
2.21339e-10
0.00108365
0.000860385
1.1992e-10
0.00100379
0.00082082
1.16445e-10
0.000935956
0.000787507
8.93669e-11
0.000905506
0.000759622
6.05117e-11
0.000909518
0.000704211
6.03876e-11
0.000941267
0.000617553
3.95134e-11
0.000981472
0.000523607
3.19334e-11
0.00104543
0.000438577
3.75005e-11
0.00114601
0.000363444
6.04562e-11
0.00128641
0.000277458
7.78992e-11
0.00147751
8.46865e-11
0.00193366
0.00188891
-2.3097e-08
-3.53891e-12
0.00184004
2.49388e-06
8.74205e-12
0.00161714
1.73297e-05
5.20625e-11
-5.39396e-05
0.000144263
2.82487e-10
0.0005027
0.000308142
-1.78346e-11
0.000762252
9.43157e-05
-1.09094e-10
0.000521006
0.000121687
3.35127e-10
0.000459581
0.000156039
-1.16561e-10
0.000585962
0.000139596
-4.47921e-10
0.000633182
0.000117199
9.43113e-11
0.000674519
0.000130028
1.67083e-10
0.000682046
0.000118734
2.59744e-10
0.000689672
0.000108471
1.67629e-10
0.000677442
0.000101094
1.01988e-10
0.000663371
9.41023e-05
4.00751e-12
0.000636168
9.06415e-05
-5.68981e-11
0.000604139
8.95822e-05
-1.42715e-10
0.000532802
9.07508e-05
-1.33571e-10
0.000423255
9.18895e-05
-1.39766e-10
0.000304949
9.47582e-05
-1.26675e-10
0.000190974
9.98607e-05
-8.68913e-11
8.96539e-05
0.000106528
-1.48405e-11
2.36056e-05
0.000114668
7.45055e-11
2.86194e-06
0.000122011
2.12782e-10
0.000129789
2.5973e-10
0.00189134
1.76218e-08
-3.38532e-12
0.00184322
5.3177e-06
-1.89034e-12
0.00162299
3.52427e-05
4.25351e-12
-3.65874e-05
0.000284891
4.24117e-11
0.000477147
0.000624518
-1.35654e-10
0.000762966
0.000184199
5.22339e-10
0.000523316
0.000240615
1.51229e-11
0.000451639
0.000317816
-3.38045e-10
0.0005813
0.000277702
2.61849e-10
0.000635501
0.000229473
-1.17721e-10
0.00067908
0.000256585
-2.05444e-11
0.000689255
0.000235692
1.99574e-10
0.000697798
0.000216551
1.29208e-10
0.000686027
0.000201955
6.49692e-11
0.00067039
0.000189289
9.59554e-13
0.000642301
0.000182109
-2.91497e-11
0.00061003
0.00018013
-1.2392e-10
0.000539782
0.000182118
-1.17906e-10
0.000430601
0.00018465
-1.35646e-10
0.000311651
0.000190668
-1.25783e-10
0.000196715
0.000201361
-8.69262e-11
9.4358e-05
0.000214732
-1.64433e-11
2.67584e-05
0.000231476
7.22444e-11
4.07615e-06
0.000245523
2.08533e-10
0.000260312
2.54768e-10
0.00189686
1.38738e-07
-3.13831e-12
0.00185143
7.89682e-06
4.00414e-12
0.00163986
5.08559e-05
2.27218e-11
2.28314e-05
0.000395938
9.59051e-11
0.000453164
0.000955185
3.45663e-10
0.000780641
0.000283343
9.66211e-11
0.000536012
0.000354216
6.27267e-11
0.000456336
0.000475767
-1.10213e-10
0.000586351
0.000420746
4.12478e-11
0.000645296
0.00034172
-4.66324e-11
0.00068929
0.000381128
1.94727e-11
0.000701812
0.000352066
1.22878e-10
0.000710138
0.000325491
6.86596e-11
0.000696905
0.000304175
7.39755e-12
0.000679312
0.000284639
4.853e-11
0.000651348
0.000273612
-3.10301e-11
0.000619256
0.000271288
-5.92151e-11
0.000551208
0.000274196
-1.13034e-10
0.000443159
0.000278522
-1.33496e-10
0.000323725
0.000287836
-1.25706e-10
0.000207653
0.000305074
-8.81053e-11
0.000103675
0.000325602
-1.89515e-11
3.42586e-05
0.000351068
7.11866e-11
7.92715e-06
0.000372612
2.00158e-10
0.000392434
2.50817e-10
0.00190516
4.51964e-07
-3.83817e-12
0.00186402
1.02373e-05
1.10754e-11
0.00166766
6.27378e-05
6.88801e-11
0.000121351
0.000461054
3.85276e-10
0.000418407
0.00131398
-2.04393e-11
0.000826869
0.000392201
-1.02761e-10
0.000549263
0.000463733
2.37245e-10
0.000465639
0.000626777
1.2959e-10
0.000592708
0.000566741
-4.41642e-10
0.000658099
0.000457229
-2.88267e-11
0.00070508
0.000502815
1.04798e-10
0.000719541
0.000469518
-5.49306e-11
0.00072742
0.000435362
-1.05006e-10
0.000713875
0.000407124
-8.9282e-11
0.000692344
0.000380887
-1.60142e-11
0.000664702
0.000365972
-2.35339e-11
0.000632432
0.000362719
-2.67739e-11
0.000568179
0.000367007
-1.02698e-10
0.000461655
0.000373854
-1.29886e-10
0.000342024
0.000386555
-1.25692e-10
0.000224355
0.000411406
-9.10939e-11
0.000119879
0.000439267
-2.59014e-11
4.81566e-05
0.00047498
6.88493e-11
1.60656e-05
0.000506191
1.92243e-10
0.000531964
2.41559e-10
0.00191597
9.39175e-07
-3.85809e-12
0.00187978
1.24203e-05
1.1805e-11
0.00170323
7.1435e-05
7.1147e-11
0.00032546
0.000478597
4.0459e-10
0.000364966
0.00169019
-3.5167e-10
0.0008964
0.000521226
-1.28944e-10
0.000561561
0.00056664
1.94658e-10
0.000480785
0.000769111
4.00941e-10
0.000600701
0.00071676
-3.72253e-10
0.000672127
0.000581232
-1.12192e-10
0.00072402
0.000622164
1.83098e-10
0.000742198
0.000589147
-1.69812e-10
0.000749141
0.000547888
-2.06256e-10
0.000735929
0.00051243
-1.39801e-10
0.000708865
0.000478187
-3.82472e-11
0.000681692
0.000459304
-1.53629e-12
0.00064845
0.000453717
-2.07332e-11
0.000589864
0.000460523
-8.8724e-11
0.000486111
0.000470457
-1.27613e-10
0.000366714
0.000486795
-1.23973e-10
0.000247675
0.000520121
-9.54589e-11
0.000143537
0.000556903
-3.05544e-11
6.81174e-05
0.000604586
6.35161e-11
2.78538e-05
0.000647963
1.77852e-10
0.000684526
2.28301e-10
0.00192933
1.6866e-06
-2.9579e-12
0.00189512
1.45195e-05
1.24513e-11
0.00173322
7.7373e-05
6.92665e-11
0.000548696
0.000465617
3.32892e-10
0.000284231
0.00205933
-2.93143e-10
0.000941152
0.000684222
-1.42499e-10
0.000583874
0.000657691
1.34402e-10
0.000498784
0.000904143
4.76949e-10
0.000609082
0.000868485
-1.70077e-10
0.000687281
0.000711607
-1.01561e-10
0.000745748
0.000737533
9.60915e-11
0.000769387
0.00071154
-2.85411e-10
0.000775398
0.000663765
-2.72041e-10
0.000762057
0.000619794
-1.84252e-10
0.000729599
0.000577638
-6.53931e-12
0.000702148
0.000553151
8.3316e-12
0.000667895
0.000544893
-2.17215e-11
0.000615764
0.000554165
-7.49696e-11
0.0005165
0.000568042
-1.16356e-10
0.000397892
0.000589033
-1.19384e-10
0.000279722
0.000629772
-9.8158e-11
0.00017549
0.000679823
-3.45579e-11
9.58829e-05
0.000739716
5.8772e-11
4.46937e-05
0.00080044
1.64965e-10
0.000855379
2.11859e-10
0.00194598
2.75571e-06
-1.97334e-12
0.00191531
1.6569e-05
1.25952e-11
0.00174717
7.97528e-05
6.97175e-11
0.000757377
0.000433269
2.88834e-10
0.000198548
0.0023489
-8.01246e-11
0.000956669
0.00089759
-2.14061e-10
0.000626439
0.000737154
1.0603e-10
0.0005156
0.00102844
3.60841e-10
0.000619361
0.00101912
-1.91269e-11
0.000704335
0.000845274
-4.43642e-11
0.000768923
0.00085041
4.34306e-11
0.000800426
0.000836787
-2.66551e-10
0.000806238
0.000783972
-2.67167e-10
0.000792788
0.000730326
-1.77812e-10
0.000754606
0.000679893
1.39405e-12
0.000726023
0.00064732
7.74091e-12
0.00069096
0.000635652
-3.37964e-11
0.000645722
0.000646944
-6.53342e-11
0.000553407
0.000665684
-1.03098e-10
0.000437
0.000693213
-1.12885e-10
0.000322416
0.000738882
-9.91134e-11
0.000217166
0.00080519
-3.3674e-11
0.000133664
0.000879843
5.53046e-11
7.0131e-05
0.000964472
1.52335e-10
0.00105002
1.92501e-10
0.00196572
3.9869e-06
2.35875e-13
0.0019366
1.85141e-05
1.30125e-11
0.00175936
7.93935e-05
6.55974e-11
0.000962429
0.000391594
2.48446e-10
0.000115826
0.00251328
1.82383e-10
0.00095235
0.0011797
-3.40939e-10
0.000674146
0.000808854
7.99045e-11
0.000524975
0.00113877
2.20167e-10
0.000637108
0.00117115
-2.37286e-12
0.000726826
0.00098612
-5.06721e-11
0.000792978
0.000962794
5.43639e-14
0.000834289
0.000965251
-2.04289e-10
0.000841232
0.00090864
-2.28566e-10
0.000827723
0.000845143
-1.5324e-10
0.000784227
0.000784952
-2.3665e-11
0.000753682
0.000741596
-2.49163e-11
0.000718161
0.0007254
-3.0137e-11
0.000680163
0.00073804
-4.84837e-11
0.000597117
0.00076273
-9.78292e-11
0.000486565
0.000794466
-1.07661e-10
0.000375519
0.000846104
-8.96441e-11
0.000272114
0.000927638
-3.32131e-11
0.000185029
0.00102252
4.97631e-11
0.000109357
0.00113778
1.35814e-10
0.00127881
1.71219e-10
0.00198876
5.23433e-06
2.17457e-12
0.00195665
2.02181e-05
1.3206e-11
0.00177301
7.66683e-05
5.93851e-11
0.00115239
0.000348729
2.10739e-10
3.80354e-05
0.00255937
3.01444e-10
0.000925856
0.00154238
-4.51437e-10
0.00072719
0.000879371
7.94964e-11
0.000532788
0.00122673
1.49046e-10
0.000683123
0.00132718
-4.43415e-11
0.000759986
0.00113731
-5.34515e-11
0.000817001
0.00107944
-1.88547e-11
0.000869038
0.00109415
-1.34194e-10
0.000879796
0.00103642
-1.69086e-10
0.000865591
0.000962642
-1.03221e-10
0.000819359
0.000893283
-2.78159e-11
0.00078507
0.000836852
-2.667e-11
0.000750269
0.000815129
-4.96651e-11
0.000718419
0.000826489
-6.04694e-11
0.000646526
0.000855493
-9.85506e-11
0.000547191
0.000889926
-1.00859e-10
0.000442062
0.000950312
-7.92335e-11
0.000344669
0.0010437
-2.93818e-11
0.000258172
0.00116241
3.84214e-11
0.000175003
0.0013128
1.16208e-10
0.00156133
1.47053e-10
0.00201551
4.06363e-12
6.16242e-06
0.00197338
1.32555e-11
2.13594e-05
0.00178864
5.16782e-11
7.17442e-05
0.00131745
1.79827e-10
0.000308176
1.17127e-05
4.42821e-10
0.00242144
0.000889837
-5.53078e-10
0.00198313
0.000785486
2.45424e-11
0.000974946
0.000566221
1.07503e-10
0.0012869
0.000737134
-7.67363e-11
0.00148221
0.0007923
-3.5771e-12
0.00129871
0.000839051
2.42787e-11
0.00119636
0.00090452
-7.11579e-11
0.00122124
0.000921198
-8.73534e-11
0.00116662
0.000906279
-6.49483e-11
0.00108342
0.00086028
-8.94076e-12
0.00100358
0.000820711
-4.99824e-11
0.000935707
0.000787429
-6.38705e-11
0.000905227
0.000759551
-6.50605e-11
0.000909243
0.000704144
-9.43301e-11
0.000940977
0.00061751
-8.89027e-11
0.000981233
0.00052358
-6.58825e-11
0.00104525
0.000438564
-2.54924e-11
0.0011459
0.000363439
2.45929e-11
0.00128635
0.000277446
9.206e-11
0.00147744
1.23988e-10
0.00193346
0.00188892
-2.30927e-08
6.67012e-13
0.00184006
2.48592e-06
-4.24138e-12
0.00161722
1.72786e-05
-2.53925e-11
-5.354e-05
0.00014379
-1.42199e-10
0.00050335
0.000308273
7.10271e-11
0.000762601
9.44141e-05
4.28666e-11
0.000521208
0.000121754
-4.43217e-12
0.00045987
0.000155656
4.92192e-11
0.000586175
0.00014022
1.29042e-10
0.000632865
0.000117683
3.29544e-11
0.000673836
0.000130232
2.70385e-12
0.000681241
0.000118748
-2.34738e-12
0.000688982
0.000108317
-4.69795e-12
0.000676936
0.000100912
-1.00916e-11
0.000663103
9.39794e-05
-3.63071e-12
0.000636076
9.05725e-05
8.11558e-13
0.000604141
8.95247e-05
-9.61748e-12
0.000532824
9.07051e-05
-1.99982e-11
0.000423281
9.18573e-05
-2.79746e-11
0.000304959
9.47393e-05
-5.47363e-11
0.000190961
9.98504e-05
-7.79358e-11
8.96324e-05
0.000106522
-7.22221e-11
2.35959e-05
0.000114664
-5.51561e-11
2.86426e-06
0.000122003
-1.4769e-11
0.000129785
-3.04627e-11
0.00189134
1.8455e-08
5.55842e-13
0.00184321
5.32405e-06
-3.30342e-12
0.0016229
3.52813e-05
-2.04431e-11
-3.71764e-05
0.000285282
-1.14934e-10
0.000475984
0.000624708
7.39643e-11
0.000762379
0.000184
8.75123e-12
0.00052271
0.000240773
1.11474e-11
0.00044996
0.000318491
5.43218e-11
0.000579757
0.000278355
4.60934e-11
0.000634276
0.000229803
3.38484e-11
0.000677572
0.000256818
2.46097e-11
0.000687996
0.000235263
1.42035e-11
0.000697003
0.000215874
8.11839e-12
0.000685551
0.000201413
2.79197e-12
0.000670169
0.000189066
-5.37353e-12
0.000642231
0.000181987
-3.60656e-12
0.00061004
0.00018006
-1.34976e-11
0.000539807
0.000182029
-2.36467e-11
0.00043063
0.000184589
-3.28801e-11
0.000311665
0.000190634
-6.00959e-11
0.000196705
0.000201344
-7.95144e-11
9.43391e-05
0.000214723
-7.19456e-11
2.67515e-05
0.000231468
-5.10017e-11
4.07455e-06
0.00024551
-1.27858e-11
0.0002603
-2.45772e-11
0.00189686
1.39264e-07
4.37741e-13
0.00185143
7.90341e-06
-2.97277e-12
0.00163984
5.0895e-05
-1.74636e-11
2.29205e-05
0.000396246
-9.58546e-11
0.000452995
0.000955294
3.56943e-11
0.000780628
0.000283383
2.83221e-11
0.000535887
0.000354144
1.61171e-11
0.000456122
0.00047638
4.94478e-11
0.000586213
0.000421583
-1.90953e-11
0.000645189
0.000341659
4.28194e-11
0.000689212
0.000381091
4.36475e-11
0.000701762
0.000351592
2.32362e-11
0.000710045
0.000324902
1.83089e-11
0.000696843
0.000303696
8.5661e-12
0.000679252
0.000284351
-1.6847e-11
0.000651365
0.000273448
-1.02685e-11
0.000619308
0.00027118
-2.33393e-11
0.000551277
0.000274095
-2.51935e-11
0.000443216
0.000278459
-3.76552e-11
0.000323755
0.000287803
-6.9964e-11
0.000207653
0.000305057
-8.33105e-11
0.000103664
0.000325595
-7.10802e-11
3.42561e-05
0.000351058
-4.45691e-11
7.92667e-06
0.000372593
-9.2487e-12
0.000392421
-1.71781e-11
0.00190518
4.52651e-07
4.44695e-13
0.00186405
1.02399e-05
-2.16516e-12
0.00166773
6.27475e-05
-1.32873e-11
0.000121619
0.000461064
-7.37408e-11
0.000418589
0.0013144
3.76693e-11
0.000827176
0.000392275
3.11012e-11
0.000549396
0.00046371
6.46172e-12
0.000466029
0.000627038
2.14568e-11
0.000593157
0.000567382
1.92809e-11
0.000658531
0.000457181
2.53069e-11
0.000705676
0.000502598
5.89246e-12
0.000720223
0.000469046
3.45318e-11
0.00072802
0.000434843
4.79352e-11
0.000714328
0.000406719
1.97661e-11
0.000692625
0.000380733
1.76578e-11
0.000664921
0.000365884
-1.24901e-11
0.000632563
0.00036267
-3.17609e-11
0.000568297
0.000366947
-2.78059e-11
0.000461741
0.000373816
-4.41005e-11
0.000342072
0.00038654
-7.78634e-11
0.000224365
0.000411397
-8.52601e-11
0.000119876
0.000439273
-6.84974e-11
4.81599e-05
0.00047497
-3.2885e-11
1.60669e-05
0.000506169
1.57565e-12
0.000531945
-5.99852e-13
0.00191599
9.40073e-07
4.06133e-13
0.0018798
1.24213e-05
-1.46543e-12
0.00170328
7.14335e-05
-8.74859e-12
0.000325791
0.000478519
-4.91033e-11
0.000365064
0.00169062
4.36845e-11
0.000896648
0.000521262
3.67137e-11
0.000561885
0.000566611
-1.16947e-11
0.000481382
0.000768953
-1.4639e-11
0.000601293
0.000716924
7.58006e-11
0.000672816
0.00058113
3.41347e-11
0.000725029
0.000621748
-2.43037e-11
0.000743345
0.000588771
6.11164e-11
0.000750144
0.000547671
7.03272e-11
0.000736727
0.000512393
4.1075e-11
0.000709332
0.000478253
2.21719e-11
0.000682012
0.000459336
-2.21721e-11
0.000648627
0.000453743
-3.96881e-11
0.000590016
0.000460525
-3.53208e-11
0.000486221
0.00047046
-5.41519e-11
0.000366779
0.000486806
-8.47981e-11
0.00024769
0.000520134
-8.59164e-11
0.000143535
0.000556924
-6.22974e-11
6.81231e-05
0.000604581
-2.2208e-11
2.78613e-05
0.00064794
1.37866e-11
0.000684503
1.653e-11
0.00192935
1.6874e-06
3.0487e-13
0.00189513
1.45198e-05
-7.28783e-13
0.00173323
7.73673e-05
-3.71633e-12
0.000548828
0.000465537
-1.58606e-11
0.000284158
0.00205957
6.29957e-11
0.00094129
0.000684202
3.44238e-11
0.000584245
0.000657572
-2.30947e-11
0.000499342
0.000903741
-5.59143e-11
0.000609641
0.000868137
7.28117e-11
0.000687978
0.000711335
2.91804e-11
0.000746868
0.000736954
-2.6812e-11
0.000770694
0.000711467
7.7241e-11
0.000776549
0.000664014
7.1663e-11
0.00076301
0.000620174
4.57975e-11
0.000730111
0.000577946
-1.27442e-11
0.000702472
0.000553302
-2.50025e-11
0.000668063
0.000544978
-3.826e-11
0.000615922
0.000554225
-6.12366e-11
0.000516619
0.000568103
-7.94391e-11
0.000397962
0.000589082
-9.08118e-11
0.000279738
0.000629813
-8.52899e-11
0.00017549
0.000679856
-5.34441e-11
9.58885e-05
0.00073972
-1.48546e-11
4.47048e-05
0.000800419
2.48279e-11
0.000855351
3.42676e-11
0.001946
2.75697e-06
1.83773e-13
0.00191533
1.65693e-05
1.73323e-13
0.00174717
7.97447e-05
1.65142e-12
0.0007575
0.000433189
1.65721e-11
0.000198444
0.00234882
6.43919e-11
0.000956754
0.000897549
2.38572e-11
0.000626719
0.000736935
-1.69425e-11
0.000515996
0.00102793
-6.29277e-11
0.000619787
0.00101847
2.78644e-11
0.000704894
0.000844855
1.33474e-11
0.00076984
0.000849865
-1.25317e-11
0.000801542
0.000836917
7.2037e-11
0.000807288
0.000784497
6.66701e-11
0.000793711
0.00073093
3.95585e-11
0.000755138
0.000680363
-3.55318e-11
0.000726356
0.00064756
-4.41613e-11
0.000691097
0.000635802
-3.6778e-11
0.000645849
0.00064702
-7.38171e-11
0.000553512
0.000665782
-9.25839e-11
0.000437059
0.000693296
-9.61881e-11
0.000322429
0.000738949
-8.5148e-11
0.000217167
0.000805232
-5.49127e-11
0.000133666
0.000879859
-1.03774e-11
7.01429e-05
0.000964452
3.24553e-11
0.00104998
4.88437e-11
0.00196574
3.98764e-06
1.10969e-13
0.00193661
1.85135e-05
1.0899e-12
0.00175936
7.93821e-05
6.66066e-12
0.000962544
0.000391517
3.81707e-11
0.000115653
0.00251315
9.80256e-11
0.000952397
0.00117971
1.36459e-11
0.000674327
0.000808573
-1.34656e-11
0.000525155
0.00113823
-4.4733e-11
0.000637379
0.00117041
1.41455e-11
0.0007272
0.000985668
2.9169e-11
0.000793531
0.000962412
5.24872e-13
0.000835053
0.000965488
5.17167e-11
0.000841992
0.000909179
4.99965e-11
0.000828391
0.000845712
2.69236e-11
0.00078462
0.000785354
-1.43457e-11
0.000753943
0.000741805
-2.71989e-11
0.000718278
0.000725518
-7.16735e-11
0.000680262
0.000738133
-8.08091e-11
0.000597203
0.000762863
-9.24018e-11
0.000486607
0.000794589
-9.81546e-11
0.000375529
0.000846196
-8.99798e-11
0.000272109
0.000927696
-6.05084e-11
0.000185032
0.00102255
-8.66558e-12
0.000109367
0.00113776
3.25873e-11
0.00127878
4.55464e-11
0.00198879
5.23447e-06
3.21475e-13
0.00195667
2.02162e-05
2.10722e-12
0.00177301
7.66547e-05
1.0868e-11
0.00115248
0.000348657
4.97477e-11
3.78472e-05
0.0025591
1.31493e-10
0.00092586
0.00154246
6.69282e-12
0.000727285
0.000879099
-2.14611e-11
0.000532819
0.00122623
-2.91001e-11
0.000683226
0.00132649
4.49537e-12
0.000760111
0.00113686
1.723e-11
0.000817236
0.00107914
1.14333e-11
0.00086944
0.00109438
1.8968e-11
0.000880212
0.00103679
6.70108e-12
0.000865959
0.000963021
-4.87023e-12
0.000819592
0.000893537
-2.71613e-11
0.000785218
0.000837039
-3.29365e-11
0.000750353
0.000815285
-5.53068e-11
0.000718486
0.000826624
-5.76244e-11
0.000646584
0.000855657
-8.89172e-11
0.000547219
0.000890074
-9.90706e-11
0.000442058
0.000950428
-9.26204e-11
0.000344654
0.00104377
-6.21383e-11
0.000258168
0.00116244
-8.01495e-12
0.000175006
0.00131278
3.29548e-11
0.00156128
4.63736e-11
0.00201553
9.31873e-13
6.16195e-06
0.00197339
3.34376e-12
2.1357e-05
0.00178864
1.43801e-11
7.17305e-05
0.00131752
5.70381e-11
0.000308111
1.15448e-05
1.75106e-10
0.00242104
0.000889839
8.77938e-12
0.00198329
0.000785531
-5.55989e-11
0.000974739
0.000566199
-1.19138e-11
0.00128649
0.000737048
-1.63572e-11
0.00148165
0.000792224
-4.6389e-11
0.00129828
0.000839059
-9.23329e-12
0.00119614
0.00090463
-2.22203e-11
0.00122135
0.000921297
-4.01206e-11
0.00116679
0.000906365
-2.87126e-11
0.00108358
0.000860312
-7.99328e-11
0.00100366
0.000820774
-5.7943e-12
0.000935826
0.000787468
-4.21889e-11
0.000905387
0.000759587
-4.15206e-11
0.000909407
0.000704171
-8.8895e-11
0.000941164
0.000617514
-1.0261e-10
0.000981398
0.00052356
-9.53518e-11
0.00104538
0.000438536
-6.2595e-11
0.00114599
0.000363421
-8.58195e-12
0.0012864
0.000277438
2.75391e-11
0.00147742
4.32269e-11
0.00193339
0.00188891
-2.31143e-08
-3.25998e-12
0.00184006
2.48668e-06
3.08152e-11
0.0016172
1.7284e-05
1.84374e-10
-5.36138e-05
0.000143844
1.05346e-09
0.000503286
0.000308287
-4.66217e-10
0.000762559
9.44156e-05
-2.41142e-10
0.000521164
0.000121761
4.68153e-11
0.000459817
0.000155721
5.23321e-11
0.000586108
0.000140195
7.51458e-12
0.000632833
0.000117613
1.35308e-11
0.000673828
0.000130205
-6.04389e-12
0.000681238
0.000118744
2.44544e-11
0.00068897
0.000108329
4.11847e-11
0.000676905
0.000100925
1.168e-11
0.000663052
9.39854e-05
-2.85862e-11
0.000636008
9.05715e-05
-6.63685e-11
0.000604056
8.95223e-05
-7.39759e-11
0.000532712
9.07021e-05
-6.87395e-11
0.000423154
9.18565e-05
-2.7865e-11
0.000304832
9.47426e-05
1.09745e-11
0.000190844
9.98562e-05
4.69947e-11
8.95404e-05
0.000106529
7.37097e-11
2.35429e-05
0.000114673
1.10421e-10
2.85774e-06
0.000122009
9.99206e-11
0.000129793
1.11774e-10
0.00189133
1.83728e-08
-2.77593e-12
0.00184321
5.32425e-06
3.06189e-11
0.00162289
3.52833e-05
1.81116e-10
-3.71799e-05
0.0002853
1.02872e-09
0.000476044
0.000624738
-4.26402e-10
0.000762401
0.000184027
-2.45618e-10
0.000522737
0.000240777
5.37478e-11
0.000450059
0.000318497
2.69335e-11
0.000579833
0.000278312
1.47144e-11
0.000634332
0.000229725
3.64861e-12
0.000677643
0.00025679
-1.4233e-11
0.000688042
0.000235297
1.4339e-11
0.000697011
0.000215935
4.82697e-11
0.000685522
0.000201465
2.47652e-11
0.000670119
0.000189075
-1.13397e-11
0.000642166
0.000181983
-5.24912e-11
0.000609957
0.000180052
-6.33752e-11
0.000539699
0.000182024
-6.31801e-11
0.000430508
0.000184588
-2.23998e-11
0.00031154
0.00019064
9.9277e-12
0.000196589
0.000201354
4.39652e-11
9.42472e-05
0.000214736
7.02798e-11
2.66983e-05
0.000231486
1.07456e-10
4.05536e-06
0.000245524
9.83071e-11
0.000260315
1.08623e-10
0.00189686
1.39239e-07
-2.39169e-12
0.00185143
7.9039e-06
2.93663e-11
0.00163984
5.08988e-05
1.74782e-10
2.28798e-05
0.000396284
9.99496e-10
0.00045301
0.000955336
-4.02287e-10
0.000780621
0.000283392
-2.35208e-10
0.000535911
0.000354158
4.77518e-11
0.000456193
0.000476342
1.35081e-11
0.000586305
0.000421473
-2.03956e-12
0.000645259
0.00034162
-7.5137e-12
0.00068928
0.000381076
-3.02377e-11
0.000701793
0.000351653
-5.78514e-12
0.000710043
0.000324996
2.55624e-11
0.0006968
0.000303766
2.9695e-11
0.000679212
0.00028441
1.39949e-11
0.000651308
0.000273456
-2.5181e-11
0.000619232
0.000271188
-4.10218e-11
0.00055117
0.000274091
-5.13633e-11
0.000443096
0.000278455
-1.68624e-11
0.000323632
0.000287808
9.00165e-12
0.000207537
0.000305071
4.06215e-11
0.000103572
0.000325614
6.67225e-11
3.42042e-05
0.000351082
1.0205e-10
7.90701e-06