/*--------------------------------*- C++ -*----------------------------------*\
| =========                 |                                                 |
| \\      /  F ield         | OpenFOAM: The Open Source CFD Toolbox           |
|  \\    /   O peration     | Version:  4.1                                   |
|   \\  /    A nd           | Web:      www.OpenFOAM.org                      |
|    \\/     M anipulation  |                                                 |
\*---------------------------------------------------------------------------*/
FoamFile
{
    version     2.0;
    format      ascii;
    class       volScalarField;
    location    "0.66";
    object      T;
}
// * * * * * * * * * * * * * * * * * * * * * * * * * * * * * * * * * * * * * //

dimensions      [0 0 0 1 0 0 0];

internalField   nonuniform List<scalar> 
52500
(
0.367965
0.46954
0.766696
1.2413
1.47096
1.28466
1.35944
1.40936
1.35687
1.25489
1.12534
1.07
1.06182
1.08302
1.12408
1.12873
1.10851
1.06744
1.05032
1.04897
1.04482
1.03767
1.02981
1.0089
0.956175
0.36888
0.468092
0.76071
1.23559
1.47363
1.28597
1.35928
1.40865
1.3569
1.25576
1.1257
1.06967
1.06088
1.08098
1.1227
1.12819
1.10904
1.06764
1.04993
1.04844
1.04422
1.03702
1.02878
1.00783
0.954607
0.370784
0.464868
0.746887
1.22189
1.47487
1.28903
1.36009
1.40847
1.35892
1.26146
1.12846
1.06925
1.05867
1.07642
1.11981
1.12745
1.11041
1.06867
1.04994
1.04829
1.04408
1.0369
1.02803
1.00712
0.953122
0.373621
0.460181
0.726
1.20034
1.47521
1.29213
1.35866
1.40647
1.36175
1.27232
1.13472
1.06999
1.05693
1.0724
1.11662
1.12671
1.11237
1.07074
1.05026
1.04834
1.04402
1.03686
1.02731
1.00625
0.951909
0.377149
0.45435
0.699701
1.17096
1.47559
1.29737
1.35625
1.40252
1.36398
1.2831
1.14203
1.07086
1.05379
1.06576
1.11048
1.1247
1.11394
1.07335
1.05068
1.04817
1.0438
1.03632
1.02579
1.00516
0.949439
0.381166
0.447533
0.669814
1.13843
1.47255
1.30683
1.35114
1.3983
1.36606
1.29634
1.15133
1.07196
1.04994
1.05846
1.10262
1.12162
1.11479
1.07636
1.05101
1.04763
1.0432
1.03508
1.02381
1.00293
0.94536
0.3853
0.439546
0.634854
1.10401
1.46491
1.31973
1.34408
1.39494
1.36779
1.30722
1.16452
1.07414
1.04578
1.05029
1.09133
1.11677
1.11423
1.07968
1.0513
1.04646
1.04187
1.03307
1.02119
0.999069
0.938942
0.388925
0.430622
0.599087
1.06437
1.44936
1.33526
1.33584
1.3907
1.36924
1.31902
1.18161
1.078
1.04194
1.04205
1.07775
1.11076
1.11261
1.08332
1.05106
1.04411
1.03969
1.0306
1.01685
0.993866
0.931591
0.391352
0.420803
0.564185
1.01605
1.42413
1.35094
1.32815
1.3861
1.37105
1.32985
1.20253
1.08394
1.03889
1.03378
1.06191
1.10282
1.10973
1.08672
1.05071
1.04219
1.03596
1.02612
1.01146
0.986728
0.913411
0.391544
0.410108
0.530531
0.955499
1.38747
1.36429
1.32364
1.37932
1.37368
1.33778
1.22588
1.09267
1.0362
1.02496
1.04595
1.0922
1.10467
1.09038
1.05162
1.03744
1.03021
1.01963
1.00229
0.972588
0.893655
0.367953
0.469555
0.766762
1.24136
1.47101
1.28468
1.35948
1.40939
1.35681
1.25478
1.12537
1.07006
1.06186
1.08303
1.12407
1.12871
1.10847
1.0674
1.0503
1.04895
1.04481
1.03765
1.0298
1.0089
0.956233
0.368871
0.468099
0.760731
1.2356
1.47348
1.28589
1.35921
1.40859
1.35711
1.25639
1.12605
1.06971
1.06083
1.08079
1.12261
1.12816
1.10902
1.06761
1.04991
1.04842
1.04421
1.037
1.02877
1.00782
0.954656
0.370774
0.46488
0.746929
1.22193
1.47482
1.28893
1.35998
1.40842
1.3591
1.26186
1.1287
1.06942
1.05884
1.07664
1.11992
1.12748
1.11038
1.06863
1.04992
1.04827
1.04407
1.03688
1.02803
1.00712
0.953165
0.373609
0.460198
0.726075
1.20041
1.47522
1.2921
1.35864
1.40641
1.36163
1.27218
1.13475
1.07008
1.05708
1.07261
1.11679
1.12677
1.11233
1.07067
1.05024
1.04833
1.04401
1.03685
1.0273
1.00625
0.951943
0.377137
0.454369
0.699779
1.17103
1.47557
1.29733
1.35625
1.40249
1.36387
1.28272
1.14153
1.07076
1.05377
1.06581
1.11053
1.12471
1.11391
1.07332
1.05067
1.04816
1.0438
1.03631
1.02578
1.00515
0.949463
0.381155
0.447554
0.669892
1.13849
1.47252
1.30674
1.35113
1.39828
1.36591
1.29585
1.15126
1.07196
1.05019
1.05883
1.10292
1.12167
1.11474
1.07629
1.05099
1.04762
1.04319
1.03507
1.02379
1.00292
0.945387
0.385289
0.439567
0.634934
1.10408
1.4649
1.31964
1.34407
1.39489
1.36763
1.30678
1.16395
1.07414
1.04627
1.05095
1.09209
1.11708
1.11433
1.0796
1.05127
1.04645
1.04186
1.03304
1.02116
0.999045
0.938974
0.388918
0.430645
0.59916
1.06445
1.44937
1.33517
1.33584
1.39067
1.36916
1.31881
1.18084
1.078
1.04234
1.04256
1.07831
1.11099
1.1127
1.08325
1.05103
1.04411
1.03969
1.03058
1.0168
0.993834
0.931626
0.39135
0.420827
0.564252
1.01615
1.42415
1.35086
1.32817
1.3861
1.37102
1.32981
1.20199
1.084
1.03907
1.03397
1.06207
1.10287
1.10974
1.08665
1.05068
1.04218
1.03594
1.0261
1.01141
0.986684
0.913448
0.391548
0.410131
0.530591
0.955606
1.3875
1.36421
1.32366
1.37933
1.37369
1.33782
1.22555
1.09276
1.03621
1.0249
1.04581
1.09211
1.10461
1.09033
1.05159
1.03742
1.03019
1.0196
1.00224
0.97254
0.893688
0.367959
0.46955
0.766735
1.24134
1.47097
1.28466
1.35944
1.40935
1.35675
1.25459
1.12524
1.07009
1.06198
1.08323
1.12416
1.12875
1.10846
1.06741
1.05031
1.04896
1.04482
1.03766
1.02979
1.00887
0.956205
0.368875
0.4681
0.760738
1.23562
1.47359
1.28595
1.35925
1.40861
1.35687
1.25569
1.12571
1.06977
1.06101
1.08113
1.12277
1.12821
1.109
1.06761
1.04992
1.04844
1.04422
1.03701
1.02876
1.0078
0.954628
0.370779
0.464877
0.746918
1.22192
1.47485
1.28899
1.36004
1.40843
1.35894
1.26157
1.12853
1.06932
1.05873
1.07648
1.11984
1.12746
1.11039
1.06866
1.04993
1.04829
1.04408
1.03689
1.02802
1.00709
0.953137
0.373616
0.460191
0.72604
1.20038
1.47521
1.29211
1.35865
1.40642
1.36172
1.27237
1.13486
1.07006
1.05703
1.07258
1.11673
1.12675
1.11235
1.0707
1.05025
1.04834
1.04402
1.03685
1.0273
1.00623
0.951917
0.377144
0.454361
0.699742
1.171
1.47559
1.29735
1.35625
1.40249
1.364
1.28319
1.14186
1.07081
1.0537
1.06563
1.11039
1.12467
1.11393
1.07335
1.05068
1.04817
1.04381
1.03631
1.02578
1.00513
0.949438
0.381161
0.447545
0.669856
1.13847
1.47255
1.30678
1.35115
1.39827
1.36603
1.29633
1.1518
1.07198
1.04985
1.05835
1.10253
1.12158
1.11478
1.07637
1.05101
1.04763
1.0432
1.03507
1.02378
1.0029
0.945364
0.385295
0.439557
0.634898
1.10405
1.46491
1.31968
1.34409
1.3949
1.36773
1.30714
1.16446
1.07411
1.04583
1.05038
1.09148
1.11683
1.11425
1.07968
1.0513
1.04646
1.04187
1.03305
1.02115
0.999028
0.938952
0.388922
0.430635
0.599128
1.06441
1.44937
1.33522
1.33586
1.3907
1.36925
1.31903
1.18116
1.07791
1.04202
1.04218
1.07793
1.1109
1.11269
1.08332
1.05105
1.04412
1.0397
1.03058
1.01679
0.993819
0.931606
0.391351
0.420817
0.564223
1.01611
1.42415
1.3509
1.32818
1.38613
1.3711
1.32995
1.20213
1.08387
1.03894
1.03384
1.06198
1.10286
1.10977
1.08671
1.05071
1.04219
1.03595
1.0261
1.01141
0.986668
0.913428
0.391547
0.410122
0.530566
0.95556
1.38749
1.36425
1.32366
1.37935
1.37375
1.33789
1.22555
1.09265
1.03623
1.02498
1.04597
1.0922
1.10467
1.09037
1.05162
1.03743
1.03019
1.0196
1.00223
0.972528
0.893669
0.367957
0.469553
0.766746
1.24135
1.47097
1.28466
1.35944
1.40935
1.35674
1.25457
1.12524
1.07009
1.06198
1.08324
1.12417
1.12876
1.10845
1.06741
1.05032
1.04897
1.04483
1.03766
1.0298
1.00887
0.956208
0.368874
0.468102
0.760747
1.23563
1.47359
1.28594
1.35924
1.40861
1.35688
1.25572
1.12572
1.06976
1.06101
1.08112
1.12278
1.12821
1.109
1.06761
1.04993
1.04844
1.04422
1.03701
1.02877
1.0078
0.954631
0.370778
0.464879
0.746926
1.22193
1.47485
1.28898
1.36004
1.40843
1.35897
1.26163
1.12857
1.06935
1.05879
1.07657
1.11989
1.12748
1.11039
1.06865
1.04994
1.0483
1.04409
1.03689
1.02802
1.0071
0.953138
0.373615
0.460192
0.726046
1.20039
1.47521
1.29209
1.35863
1.40639
1.36172
1.27244
1.13492
1.07005
1.05699
1.07247
1.1167
1.12675
1.11235
1.07071
1.05026
1.04835
1.04403
1.03686
1.0273
1.00623
0.951916
0.377143
0.454362
0.699747
1.171
1.47559
1.29734
1.35624
1.40248
1.36397
1.28307
1.14174
1.07075
1.05365
1.06562
1.11039
1.12468
1.11394
1.07336
1.05069
1.04818
1.04382
1.03632
1.02578
1.00513
0.949435
0.381161
0.447545
0.669859
1.13847
1.47254
1.30678
1.35115
1.39828
1.36599
1.29615
1.15153
1.07196
1.05003
1.0586
1.10272
1.12162
1.11476
1.07634
1.05102
1.04764
1.04321
1.03508
1.02378
1.0029
0.945359
0.385295
0.439558
0.634897
1.10405
1.46491
1.31968
1.34409
1.39491
1.3677
1.30701
1.16427
1.07414
1.04605
1.05066
1.09181
1.11702
1.11434
1.07966
1.0513
1.04647
1.04188
1.03305
1.02115
0.999023
0.938944
0.388922
0.430635
0.599125
1.06441
1.44936
1.33522
1.33586
1.3907
1.36923
1.31897
1.18111
1.07798
1.04211
1.04226
1.078
1.11092
1.11271
1.08331
1.05106
1.04413
1.03971
1.03059
1.01679
0.993813
0.931598
0.391352
0.420816
0.564218
1.0161
1.42413
1.35089
1.32817
1.38612
1.37108
1.32993
1.2022
1.08396
1.03888
1.03374
1.06183
1.10278
1.10973
1.0867
1.05071
1.0422
1.03596
1.02611
1.01141
0.986662
0.913419
0.391547
0.41012
0.530559
0.955544
1.38748
1.36424
1.32366
1.37935
1.37375
1.33791
1.2257
1.09271
1.03611
1.02478
1.04569
1.09207
1.10462
1.09038
1.05164
1.03744
1.0302
1.01961
1.00223
0.972521
0.893659
0.367964
0.469537
0.766683
1.24128
1.47097
1.28466
1.35942
1.40934
1.35675
1.2546
1.12525
1.07009
1.06197
1.08322
1.12416
1.12875
1.10846
1.06741
1.05032
1.04896
1.04482
1.03765
1.02979
1.00886
0.956192
0.36888
0.468087
0.760683
1.23556
1.47359
1.28594
1.35922
1.4086
1.35688
1.25573
1.12573
1.06976
1.061
1.08111
1.12276
1.1282
1.109
1.06762
1.04993
1.04844
1.04421
1.037
1.02875
1.00779
0.95462
0.370784
0.464864
0.746864
1.22186
1.47485
1.28899
1.36002
1.40842
1.35896
1.26163
1.12858
1.06936
1.05879
1.07656
1.11987
1.12747
1.11039
1.06866
1.04994
1.04829
1.04408
1.03688
1.02801
1.00708
0.953128
0.373621
0.460178
0.725984
1.20031
1.4752
1.2921
1.35861
1.40639
1.36174
1.27245
1.13484
1.07005
1.05698
1.07245
1.11668
1.12674
1.11235
1.07071
1.05026
1.04834
1.04402
1.03684
1.02728
1.00622
0.951911
0.377149
0.45435
0.69969
1.17093
1.47557
1.29735
1.35621
1.40246
1.36395
1.28304
1.14204
1.0708
1.05367
1.06563
1.11038
1.12466
1.11393
1.07336
1.05069
1.04818
1.0438
1.0363
1.02576
1.00512
0.949436
0.381166
0.447534
0.669807
1.13841
1.47253
1.30681
1.35113
1.39828
1.36601
1.29618
1.15111
1.07191
1.05003
1.0586
1.10271
1.1216
1.11475
1.07633
1.05101
1.04763
1.0432
1.03506
1.02377
1.00289
0.945348
0.3853
0.439547
0.63485
1.104
1.46488
1.31971
1.34408
1.39492
1.36774
1.30708
1.16426
1.07413
1.04605
1.05065
1.0918
1.11701
1.11434
1.07965
1.0513
1.04646
1.04188
1.03305
1.02115
0.999024
0.938918
0.388925
0.430625
0.599085
1.06435
1.44933
1.33524
1.33584
1.39069
1.36921
1.31895
1.18151
1.07806
1.04212
1.04226
1.07799
1.11089
1.11269
1.08329
1.05105
1.04413
1.0397
1.03059
1.01681
0.993818
0.931564
0.391353
0.420807
0.564186
1.01604
1.4241
1.35091
1.32816
1.38609
1.37102
1.32982
1.20259
1.08405
1.0389
1.03374
1.06182
1.10277
1.10971
1.08669
1.05071
1.0422
1.03598
1.02612
1.01144
0.986681
0.913369
0.391546
0.410112
0.530532
0.95549
1.38744
1.36425
1.32365
1.37932
1.37367
1.33779
1.22603
1.0928
1.03613
1.02479
1.04568
1.09205
1.10461
1.09036
1.05163
1.03744
1.03022
1.01964
1.00228
0.972547
0.893607
0.367962
0.469543
0.766705
1.2413
1.47097
1.28466
1.35942
1.40934
1.35673
1.25455
1.12523
1.07008
1.06198
1.08324
1.12418
1.12876
1.10846
1.06741
1.05032
1.04897
1.04482
1.03766
1.02979
1.00887
0.956201
0.368878
0.468092
0.760704
1.23558
1.47359
1.28594
1.35922
1.4086
1.35687
1.2557
1.12571
1.06976
1.061
1.08112
1.12278
1.12822
1.109
1.06761
1.04993
1.04844
1.04422
1.03701
1.02876
1.0078
0.954624
0.370782
0.464869
0.746885
1.22188
1.47485
1.28898
1.36002
1.40842
1.35896
1.26162
1.12857
1.06935
1.05878
1.07657
1.11989
1.12748
1.11039
1.06865
1.04994
1.0483
1.04409
1.03689
1.02802
1.00709
0.953132
0.373619
0.460183
0.726006
1.20034
1.4752
1.2921
1.35861
1.40639
1.36172
1.27244
1.13483
1.07004
1.05698
1.07246
1.11669
1.12675
1.11236
1.07071
1.05027
1.04835
1.04403
1.03685
1.02729
1.00623
0.95191
0.377147
0.454354
0.69971
1.17096
1.47557
1.29734
1.35622
1.40245
1.36394
1.28302
1.14202
1.0708
1.05367
1.06563
1.11039
1.12468
1.11394
1.07336
1.05069
1.04818
1.04381
1.03631
1.02578
1.00513
0.94943
0.381164
0.447538
0.669825
1.13843
1.47253
1.3068
1.35114
1.39828
1.366
1.29616
1.15109
1.0719
1.05003
1.0586
1.10271
1.12161
1.11476
1.07634
1.05102
1.04764
1.04321
1.03508
1.02378
1.0029
0.945355
0.385298
0.439551
0.634867
1.10401
1.46489
1.3197
1.34409
1.39492
1.36773
1.30706
1.16424
1.07412
1.04605
1.05066
1.0918
1.11701
1.11434
1.07966
1.0513
1.04647
1.04188
1.03305
1.02115
0.99902
0.938942
0.388924
0.430629
0.5991
1.06437
1.44934
1.33523
1.33585
1.39068
1.3692
1.31893
1.18149
1.07805
1.04212
1.04226
1.07799
1.1109
1.1127
1.0833
1.05106
1.04413
1.03971
1.03059
1.01679
0.99381
0.931596
0.391353
0.42081
0.564198
1.01606
1.42412
1.3509
1.32816
1.38609
1.37101
1.32981
1.20257
1.08404
1.03889
1.03373
1.06181
1.10278
1.10972
1.08671
1.05072
1.0422
1.03596
1.02611
1.01141
0.986661
0.913417
0.391546
0.410115
0.530542
0.955511
1.38745
1.36424
1.32365
1.37932
1.37366
1.33778
1.22601
1.09279
1.03611
1.02478
1.04567
1.09206
1.10462
1.09038
1.05164
1.03744
1.0302
1.01961
1.00223
0.97252
0.893658
0.367957
0.469553
0.766746
1.24135
1.47097
1.28466
1.35944
1.40935
1.35674
1.25457
1.12524
1.07009
1.06198
1.08324
1.12417
1.12876
1.10845
1.06741
1.05032
1.04897
1.04483
1.03767
1.0298
1.00887
0.956208
0.368874
0.468102
0.760747
1.23563
1.47359
1.28594
1.35924
1.40861
1.35688
1.25572
1.12572
1.06976
1.06101
1.08112
1.12278
1.12821
1.109
1.06761
1.04993
1.04844
1.04422
1.03701
1.02877
1.0078
0.954631
0.370778
0.464879
0.746926
1.22193
1.47485
1.28898
1.36004
1.40843
1.35897
1.26163
1.12857
1.06935
1.05879
1.07657
1.11989
1.12748
1.11039
1.06865
1.04994
1.0483
1.04409
1.03689
1.02802
1.0071
0.953138
0.373615
0.460192
0.726047
1.20039
1.47521
1.29209
1.35863
1.40639
1.36172
1.27244
1.13492
1.07005
1.05699
1.07247
1.1167
1.12675
1.11235
1.07071
1.05026
1.04835
1.04403
1.03686
1.0273
1.00623
0.951916
0.377143
0.454362
0.699747
1.171
1.47559
1.29734
1.35624
1.40248
1.36397
1.28307
1.14174
1.07075
1.05365
1.06562
1.11039
1.12468
1.11394
1.07336
1.05069
1.04818
1.04382
1.03632
1.02578
1.00513
0.949435
0.38116
0.447546
0.669859
1.13847
1.47254
1.30678
1.35115
1.39828
1.36599
1.29615
1.15153
1.07196
1.05003
1.0586
1.10272
1.12162
1.11476
1.07634
1.05102
1.04764
1.04321
1.03508
1.02378
1.0029
0.945359
0.385295
0.439558
0.634897
1.10405
1.46491
1.31968
1.34409
1.39491
1.3677
1.30701
1.16427
1.07414
1.04605
1.05066
1.09181
1.11702
1.11434
1.07966
1.0513
1.04647
1.04188
1.03305
1.02115
0.999023
0.938944
0.388922
0.430635
0.599125
1.06441
1.44936
1.33522
1.33586
1.3907
1.36923
1.31897
1.18111
1.07798
1.04211
1.04226
1.078
1.11092
1.11271
1.08331
1.05106
1.04413
1.03971
1.03059
1.01679
0.993813
0.931598
0.391352
0.420816
0.564218
1.0161
1.42413
1.35089
1.32817
1.38612
1.37108
1.32993
1.2022
1.08396
1.03888
1.03374
1.06183
1.10278
1.10973
1.0867
1.05071
1.0422
1.03596
1.02611
1.01141
0.986662
0.913419
0.391547
0.41012
0.530559
0.955544
1.38748
1.36424
1.32366
1.37935
1.37375
1.33791
1.2257
1.09271
1.03611
1.02478
1.04569
1.09207
1.10462
1.09038
1.05164
1.03744
1.0302
1.01961
1.00223
0.972521
0.893659
0.367959
0.46955
0.766735
1.24134
1.47097
1.28466
1.35944
1.40935
1.35675
1.25459
1.12524
1.07009
1.06198
1.08323
1.12416
1.12875
1.10846
1.06741
1.05031
1.04896
1.04482
1.03766
1.02979
1.00887
0.956205
0.368875
0.4681
0.760738
1.23562
1.47359
1.28595
1.35925
1.40861
1.35687
1.25569
1.12571
1.06977
1.06101
1.08113
1.12277
1.12821
1.109
1.06761
1.04992
1.04844
1.04422
1.03701
1.02876
1.0078
0.954629
0.370779
0.464877
0.746918
1.22192
1.47485
1.28899
1.36004
1.40843
1.35894
1.26157
1.12853
1.06932
1.05873
1.07648
1.11984
1.12746
1.11039
1.06866
1.04993
1.04829
1.04408
1.03689
1.02802
1.00709
0.953137
0.373616
0.460191
0.72604
1.20038
1.47521
1.29211
1.35865
1.40642
1.36172
1.27237
1.13486
1.07006
1.05703
1.07258
1.11673
1.12675
1.11235
1.0707
1.05025
1.04834
1.04402
1.03685
1.0273
1.00623
0.951917
0.377144
0.454361
0.699742
1.171
1.47559
1.29735
1.35625
1.40249
1.364
1.28319
1.14186
1.07081
1.0537
1.06563
1.11039
1.12467
1.11393
1.07335
1.05068
1.04817
1.04381
1.03631
1.02578
1.00513
0.949438
0.381161
0.447545
0.669856
1.13847
1.47255
1.30678
1.35115
1.39827
1.36603
1.29633
1.1518
1.07198
1.04985
1.05835
1.10253
1.12158
1.11478
1.07637
1.05101
1.04763
1.0432
1.03507
1.02378
1.0029
0.945364
0.385295
0.439557
0.634898
1.10405
1.46491
1.31968
1.34409
1.3949
1.36773
1.30714
1.16446
1.07411
1.04583
1.05038
1.09148
1.11683
1.11425
1.07968
1.0513
1.04646
1.04187
1.03305
1.02115
0.999028
0.938952
0.388922
0.430635
0.599128
1.06441
1.44937
1.33522
1.33586
1.3907
1.36925
1.31903
1.18116
1.07791
1.04202
1.04218
1.07793
1.1109
1.11269
1.08332
1.05105
1.04412
1.0397
1.03058
1.01679
0.993819
0.931606
0.391351
0.420817
0.564223
1.01611
1.42415
1.3509
1.32818
1.38613
1.3711
1.32995
1.20213
1.08387
1.03894
1.03384
1.06198
1.10286
1.10977
1.08671
1.05071
1.04219
1.03595
1.0261
1.01141
0.986668
0.913428
0.391547
0.410122
0.530566
0.95556
1.38749
1.36425
1.32366
1.37935
1.37375
1.33789
1.22555
1.09265
1.03623
1.02498
1.04597
1.0922
1.10467
1.09037
1.05162
1.03743
1.03019
1.0196
1.00223
0.972528
0.893669
0.367953
0.469555
0.766762
1.24136
1.47101
1.28468
1.35948
1.40939
1.35681
1.25478
1.12537
1.07006
1.06186
1.08303
1.12407
1.12871
1.10847
1.0674
1.0503
1.04895
1.04481
1.03765
1.0298
1.0089
0.956233
0.368871
0.468099
0.760731
1.2356
1.47348
1.28589
1.35921
1.40859
1.35711
1.25639
1.12605
1.06971
1.06083
1.08079
1.12261
1.12816
1.10902
1.06761
1.04991
1.04842
1.04421
1.037
1.02877
1.00783
0.954656
0.370774
0.46488
0.746929
1.22193
1.47482
1.28893
1.35998
1.40842
1.3591
1.26186
1.1287
1.06942
1.05884
1.07664
1.11992
1.12748
1.11038
1.06863
1.04992
1.04827
1.04407
1.03688
1.02803
1.00712
0.953165
0.373609
0.460198
0.726076
1.20041
1.47522
1.2921
1.35864
1.40641
1.36163
1.27218
1.13475
1.07008
1.05708
1.07261
1.11679
1.12677
1.11233
1.07067
1.05024
1.04833
1.04401
1.03685
1.0273
1.00625
0.951943
0.377137
0.454369
0.699779
1.17103
1.47557
1.29733
1.35625
1.40249
1.36387
1.28272
1.14153
1.07076
1.05377
1.06581
1.11053
1.12471
1.11391
1.07332
1.05067
1.04816
1.0438
1.03631
1.02578
1.00515
0.949463
0.381155
0.447554
0.669892
1.13849
1.47252
1.30674
1.35113
1.39828
1.36591
1.29585
1.15126
1.07196
1.05019
1.05883
1.10292
1.12166
1.11474
1.07629
1.05099
1.04762
1.04319
1.03507
1.02379
1.00292
0.945387
0.385289
0.439567
0.634934
1.10408
1.4649
1.31964
1.34407
1.39489
1.36763
1.30678
1.16395
1.07414
1.04627
1.05095
1.09209
1.11708
1.11433
1.0796
1.05127
1.04645
1.04186
1.03304
1.02116
0.999045
0.938974
0.388918
0.430645
0.59916
1.06445
1.44937
1.33517
1.33584
1.39067
1.36916
1.31881
1.18084
1.078
1.04234
1.04256
1.07831
1.11099
1.1127
1.08325
1.05103
1.04411
1.03969
1.03058
1.0168
0.993834
0.931626
0.39135
0.420827
0.564252
1.01615
1.42415
1.35086
1.32817
1.3861
1.37103
1.32981
1.20199
1.084
1.03907
1.03397
1.06207
1.10287
1.10974
1.08665
1.05068
1.04218
1.03594
1.0261
1.01141
0.986684
0.913448
0.391548
0.410131
0.530591
0.955606
1.3875
1.36421
1.32366
1.37933
1.37369
1.33782
1.22555
1.09276
1.03621
1.0249
1.04581
1.09211
1.10461
1.09033
1.05159
1.03742
1.03019
1.0196
1.00224
0.97254
0.893688
0.367963
0.469551
0.766742
1.24136
1.471
1.28469
1.35948
1.40939
1.35672
1.2545
1.12515
1.07
1.06188
1.08311
1.1241
1.12873
1.10847
1.06742
1.05033
1.04898
1.04485
1.03772
1.02989
1.00893
0.956054
0.368879
0.4681
0.760746
1.23564
1.47365
1.28598
1.3593
1.40867
1.35691
1.25577
1.12575
1.06972
1.06092
1.08098
1.12268
1.12817
1.10901
1.06763
1.04994
1.04845
1.04425
1.03707
1.02886
1.00785
0.954494
0.370783
0.464875
0.746915
1.22193
1.47487
1.28901
1.36005
1.40844
1.35915
1.26229
1.1289
1.0693
1.05858
1.07626
1.11969
1.12741
1.11041
1.06868
1.04995
1.0483
1.04411
1.03695
1.02811
1.00714
0.953017
0.373621
0.460188
0.726032
1.20039
1.47523
1.29209
1.35861
1.40635
1.36186
1.2728
1.13508
1.06989
1.05665
1.07203
1.11646
1.12667
1.11238
1.07075
1.05026
1.04834
1.04404
1.03689
1.02737
1.00628
0.951816
0.377147
0.454357
0.699737
1.17101
1.47562
1.29736
1.35625
1.40247
1.36395
1.28297
1.14188
1.07072
1.05368
1.06564
1.11028
1.12461
1.11392
1.07338
1.05069
1.04817
1.04381
1.03633
1.02583
1.00517
0.949372
0.381164
0.44754
0.669848
1.13847
1.47258
1.30684
1.35119
1.39834
1.366
1.29598
1.1508
1.07195
1.0504
1.05906
1.10316
1.12175
1.11478
1.0763
1.051
1.04762
1.04319
1.03508
1.02382
1.00294
0.945323
0.385298
0.439552
0.634883
1.10404
1.46493
1.31974
1.34411
1.39497
1.36774
1.30694
1.16412
1.07428
1.04633
1.05096
1.09204
1.11707
1.11434
1.07961
1.05127
1.04644
1.04186
1.03305
1.02118
0.999069
0.93893
0.388923
0.430628
0.59911
1.0644
1.44938
1.33526
1.33584
1.3907
1.3692
1.31888
1.18152
1.07822
1.0422
1.0423
1.07795
1.11093
1.1127
1.08326
1.05102
1.0441
1.03967
1.03058
1.01683
0.993862
0.931588
0.391351
0.420808
0.564202
1.01608
1.42415
1.35093
1.32813
1.38608
1.37101
1.32978
1.20267
1.08416
1.03883
1.0336
1.06159
1.10262
1.10965
1.08667
1.05069
1.04217
1.03594
1.0261
1.01144
0.986717
0.913424
0.391545
0.410112
0.530544
0.955523
1.38748
1.36427
1.32362
1.3793
1.37367
1.33777
1.22601
1.09279
1.03603
1.02463
1.04546
1.09188
1.10449
1.09032
1.05163
1.03743
1.03019
1.01961
1.00227
0.972577
0.893668
0.388226
0.398907
0.497916
0.879248
1.33492
1.37896
1.31735
1.37102
1.37613
1.34293
1.25104
1.10571
1.03554
1.01608
1.02809
1.07703
1.09757
1.09205
1.05473
1.03316
1.02487
1.0134
0.992688
0.96088
0.834934
0.380733
0.388747
0.46652
0.786599
1.25664
1.39777
1.30884
1.36406
1.37747
1.34731
1.2753
1.12451
1.03855
1.00968
1.01364
1.05815
1.08895
1.0902
1.06059
1.03089
1.01793
1.00346
0.980712
0.949507
0.839547
0.371734
0.378659
0.438256
0.696434
1.16427
1.4099
1.30651
1.36175
1.37592
1.35048
1.29285
1.15316
1.0461
1.00507
1.00116
1.0371
1.07698
1.08583
1.06459
1.02869
1.01014
0.997124
0.97048
0.944946
0.856886
0.364016
0.369063
0.414219
0.618313
1.08633
1.4098
1.30985
1.35449
1.37371
1.35216
1.30491
1.1888
1.06187
0.99894
0.985901
1.00575
1.05926
1.07813
1.06829
1.03145
1.00321
0.988411
0.96522
0.943056
0.888119
0.357625
0.360782
0.393129
0.550467
1.00554
1.40633
1.31107
1.34085
1.37265
1.35147
1.31558
1.23055
1.07946
1.00025
0.977464
0.983757
1.03461
1.06788
1.06686
1.03784
1.00323
0.984554
0.956964
0.939074
0.905868
0.352776
0.353359
0.375118
0.48907
0.887788
1.36352
1.30915
1.33169
1.36941
1.35108
1.32639
1.26477
1.10889
1.00727
0.968152
0.964257
0.998763
1.05156
1.06082
1.04741
1.00669
0.984613
0.957699
0.93336
0.915702
0.349243
0.345999
0.361255
0.44063
0.74722
1.19768
1.32158
1.32353
1.36336
1.35509
1.3358
1.28549
1.14472
1.02535
0.963504
0.952484
0.966913
1.02128
1.04809
1.04562
1.01361
0.986138
0.960873
0.934728
0.918059
0.346247
0.33975
0.350836
0.407378
0.634145
1.04683
1.33308
1.30606
1.35396
1.3606
1.34341
1.3001
1.19523
1.0494
0.967463
0.940641
0.941446
0.983097
1.03176
1.03913
1.02609
0.991857
0.965095
0.938798
0.919349
0.343751
0.334379
0.34239
0.382623
0.549087
0.96487
1.34011
1.29981
1.33828
1.36124
1.34729
1.3126
1.24299
1.08566
0.978682
0.932895
0.92502
0.942982
1.00143
1.02655
1.02348
1.00432
0.973732
0.944557
0.922137
0.341726
0.329876
0.335395
0.362506
0.477373
0.864369
1.32507
1.29021
1.32005
1.35505
1.34905
1.3231
1.27257
1.13342
1.00108
0.93651
0.912658
0.914225
0.953608
1.00538
1.01534
1.00721
0.987877
0.95856
0.929458
0.340073
0.326355
0.330121
0.347849
0.417951
0.697581
1.19063
1.2819
1.30425
1.34284
1.35063
1.33254
1.29303
1.18534
1.03807
0.949306
0.906664
0.900753
0.91537
0.972692
1.00041
1.00096
0.990746
0.97334
0.947133
0.338733
0.323546
0.326262
0.338544
0.383981
0.562875
0.937191
1.28545
1.29418
1.32326
1.34872
1.34047
1.31089
1.24061
1.07686
0.967292
0.909911
0.889562
0.891174
0.91957
0.976365
0.98983
0.986868
0.975849
0.959807
0.337685
0.321268
0.32323
0.331756
0.361818
0.480073
0.827573
1.28029
1.26791
1.30845
1.34304
1.34067
1.32423
1.28266
1.13435
0.995683
0.92011
0.885507
0.880962
0.887996
0.928132
0.966086
0.975762
0.972511
0.963071
0.336898
0.319571
0.320989
0.326636
0.345283
0.415032
0.686584
1.17902
1.23534
1.29828
1.32491
1.33798
1.33078
1.30846
1.22321
1.04222
0.937894
0.889488
0.869387
0.871168
0.886463
0.933144
0.958619
0.963756
0.960812
0.336372
0.318402
0.319487
0.323244
0.334797
0.374721
0.536864
0.895005
1.23501
1.2718
1.29787
1.32988
1.32984
1.32297
1.28324
1.11728
0.976126
0.902438
0.870651
0.858756
0.862441
0.882652
0.930973
0.950293
0.954224
0.336166
0.317693
0.318491
0.320846
0.327951
0.351501
0.442898
0.739569
1.21195
1.2167
1.2766
1.31441
1.32691
1.32587
1.31161
1.22255
1.04053
0.928976
0.878197
0.855391
0.850254
0.854107
0.874706
0.921971
0.940971
0.336317
0.31735
0.317811
0.319176
0.32356
0.337351
0.385322
0.579296
0.977151
1.18471
1.24473
1.29264
1.32039
1.32425
1.32029
1.28021
1.12899
0.988102
0.8993
0.860619
0.840696
0.838671
0.842453
0.86168
0.908846
0.33671
0.317125
0.317374
0.318369
0.321128
0.328978
0.354586
0.45602
0.752854
1.17
1.19505
1.24973
1.30337
1.3185
1.31856
1.30432
1.22829
1.058
0.939366
0.874595
0.843892
0.824715
0.822626
0.826475
0.843604
0.336945
0.317071
0.317232
0.31775
0.319286
0.323731
0.337483
0.386129
0.581052
0.979934
1.15837
1.20458
1.26614
1.30439
1.31297
1.30735
1.2743
1.15072
1.00404
0.90688
0.85376
0.826249
0.806589
0.803498
0.807184
0.336998
0.317151
0.31704
0.317283
0.318131
0.320602
0.32789
0.35178
0.446493
0.73057
1.1259
1.16053
1.20804
1.27502
1.30142
1.30336
1.29045
1.22994
1.07383
0.950999
0.878076
0.833177
0.80746
0.787633
0.783318
0.337002
0.31724
0.316863
0.316993
0.317449
0.318775
0.322642
0.334567
0.376567
0.547497
0.895003
1.12578
1.16469
1.21459
1.27685
1.29377
1.28872
1.26308
1.17118
1.01101
0.911342
0.850935
0.812394
0.788308
0.768121
0.336991
0.317298
0.316756
0.31682
0.317046
0.317724
0.319725
0.32562
0.344699
0.417978
0.662539
1.05683
1.12127
1.16016
1.22338
1.27329
1.2807
1.26865
1.22467
1.08993
0.959123
0.87961
0.829397
0.793422
0.769626
0.336983
0.317335
0.316686
0.316712
0.316812
0.317149
0.318154
0.321091
0.329964
0.360542
0.487978
0.790122
1.08006
1.12188
1.1562
1.22811
1.26424
1.26243
1.24381
1.17526
1.02008
0.91301
0.852721
0.809989
0.77586
0.336984
0.317343
0.316639
0.316651
0.316704
0.316869
0.317347
0.318747
0.322879
0.335959
0.383475
0.569871
0.916149
1.07982
1.11385
1.15553
1.22877
1.24873
1.24132
1.21145
1.10716
0.96422
0.875243
0.830669
0.792815
0.336987
0.317331
0.316629
0.316632
0.316646
0.316708
0.316921
0.317562
0.319457
0.325091
0.343714
0.417021
0.650626
1.00093
1.07616
1.10136
1.15603
1.2222
1.23152
1.21894
1.16761
1.03259
0.916915
0.84675
0.815108
0.336987
0.317325
0.316637
0.316609
0.316612
0.316636
0.316722
0.317006
0.317836
0.320292
0.32778
0.353819
0.463565
0.730181
1.02433
1.06608
1.094
1.15954
1.21303
1.21291
1.19396
1.11523
0.968088
0.873977
0.824674
0.336985
0.317327
0.316637
0.316599
0.316598
0.316607
0.316642
0.316752
0.317099
0.318121
0.321193
0.330906
0.365774
0.510569
0.788663
1.02383
1.05081
1.09001
1.1702
1.20127
1.19402
1.15759
1.04078
0.916455
0.843836
0.336985
0.317328
0.316635
0.3166
0.31659
0.316591
0.316607
0.316649
0.316785
0.317197
0.318428
0.32213
0.33408
0.378214
0.543821
0.849065
1.01161
1.04171
1.08953
1.17313
1.1881
1.17356
1.10453
0.964936
0.871187
0.336985
0.317328
0.316634
0.316601
0.316588
0.316585
0.316591
0.316621
0.316664
0.316822
0.317311
0.318752
0.32301
0.336878
0.390271
0.566121
0.889988
0.992366
1.03377
1.10152
1.16866
1.16898
1.13634
1.01861
0.90594
0.336985
0.317328
0.316634
0.316601
0.316588
0.316584
0.316587
0.316613
0.316626
0.316689
0.316904
0.31749
0.319081
0.323717
0.338917
0.398922
0.584512
0.886709
0.965412
1.03193
1.12013
1.15413
1.13636
1.05361
0.938674
0.336985
0.317328
0.316634
0.316601
0.316588
0.316584
0.316587
0.316611
0.31662
0.316654
0.316806
0.31708
0.317742
0.31948
0.324293
0.339801
0.400599
0.590896
0.828163
0.954925
1.05789
1.12192
1.11934
1.06148
0.955374
0.336985
0.317328
0.316634
0.316601
0.316588
0.316584
0.316587
0.316611
0.31662
0.316653
0.316809
0.316982
0.317426
0.318209
0.320023
0.324818
0.33956
0.39434
0.556482
0.771239
0.992817
1.07709
1.07669
1.04033
0.952668
0.336985
0.317328
0.316634
0.316601
0.316588
0.316584
0.316587
0.316611
0.31662
0.316652
0.316809
0.316977
0.317405
0.318005
0.318912
0.32125
0.326203
0.339244
0.383901
0.510438
0.76722
1.01057
1.00687
0.980872
0.926077
0.336985
0.317328
0.316634
0.316601
0.316588
0.316584
0.316587
0.316611
0.31662
0.316652
0.316809
0.316976
0.317403
0.318011
0.318836
0.320889
0.323412
0.328708
0.342546
0.378724
0.474701
0.698027
0.858607
0.879955
0.860356
0.336985
0.317328
0.316634
0.316601
0.316588
0.316584
0.316587
0.316611
0.31662
0.316652
0.316809
0.316976
0.317403
0.318012
0.318831
0.320899
0.323313
0.327485
0.337942
0.354441
0.389646
0.478035
0.562339
0.619767
0.642895
0.336985
0.317328
0.316634
0.316601
0.316588
0.316584
0.316587
0.316611
0.31662
0.316652
0.316809
0.316976
0.317403
0.318012
0.318831
0.320899
0.323311
0.327432
0.337854
0.352379
0.380775
0.448946
0.495722
0.527703
0.541963
0.336985
0.317328
0.316634
0.316601
0.316588
0.316584
0.316587
0.316611
0.31662
0.316652
0.316809
0.316976
0.317403
0.318012
0.318831
0.320899
0.323311
0.327428
0.33785
0.352279
0.38027
0.447532
0.490138
0.516922
0.528512
0.336985
0.317328
0.316634
0.316601
0.316588
0.316584
0.316587
0.316611
0.31662
0.316652
0.316809
0.316976
0.317403
0.318012
0.318831
0.320899
0.323312
0.32743
0.337853
0.35228
0.38026
0.44748
0.489835
0.516126
0.527298
0.336985
0.317328
0.316634
0.316601
0.316588
0.316584
0.316587
0.316611
0.31662
0.316652
0.316809
0.316976
0.317403
0.318011
0.318831
0.320899
0.323311
0.327428
0.337851
0.352275
0.380242
0.44745
0.489777
0.516006
0.527133
0.336985
0.317328
0.316634
0.316601
0.316588
0.316584
0.316587
0.316611
0.31662
0.316652
0.316809
0.316976
0.317403
0.318012
0.318831
0.320899
0.323311
0.327429
0.337851
0.352277
0.380255
0.447465
0.489812
0.516062
0.527188
0.388237
0.398929
0.497968
0.879372
1.33498
1.37885
1.31741
1.37105
1.37613
1.34298
1.25105
1.10571
1.03543
1.01589
1.02783
1.07681
1.09745
1.09199
1.05473
1.03316
1.02487
1.01336
0.992616
0.960817
0.834955
0.380749
0.388764
0.466564
0.786719
1.25671
1.39766
1.30891
1.3641
1.37746
1.34735
1.27538
1.12456
1.03845
1.00946
1.01336
1.05783
1.0888
1.09013
1.0606
1.03089
1.01795
1.00345
0.980633
0.949414
0.839543
0.371748