/*--------------------------------*- C++ -*----------------------------------*\
| =========                 |                                                 |
| \\      /  F ield         | OpenFOAM: The Open Source CFD Toolbox           |
|  \\    /   O peration     | Version:  4.1                                   |
|   \\  /    A nd           | Web:      www.OpenFOAM.org                      |
|    \\/     M anipulation  |                                                 |
\*---------------------------------------------------------------------------*/
FoamFile
{
    version     2.0;
    format      ascii;
    class       volVectorField;
    location    "0.66";
    object      U;
}
// * * * * * * * * * * * * * * * * * * * * * * * * * * * * * * * * * * * * * //

dimensions      [0 1 -1 0 0 0 0];

internalField   nonuniform List<vector> 
52500
(
(1.77698 -1.22373e-05 -0.00238656)
(1.65052 0.000647573 -0.00305017)
(1.20685 0.00349979 -0.00511852)
(0.216442 0.0138076 -0.00883865)
(-0.202848 0.0220906 -0.0103764)
(0.32283 0.0143166 -0.00898372)
(0.268093 0.0170324 -0.00956449)
(0.0654406 0.0194281 -0.00993647)
(0.105342 0.0208297 -0.00952822)
(0.19815 0.0189264 -0.00880574)
(0.179152 0.0192859 -0.00789716)
(0.176455 0.0179387 -0.00750673)
(0.192881 0.0172306 -0.00744115)
(0.21095 0.0173075 -0.00758083)
(0.228294 0.0178308 -0.00785702)
(0.237095 0.0186024 -0.00788609)
(0.234674 0.0192969 -0.00774687)
(0.220694 0.0199807 -0.00747451)
(0.193225 0.0208315 -0.00737661)
(0.150924 0.0220179 -0.00739198)
(0.105226 0.0232622 -0.00738923)
(0.0561188 0.0245267 -0.00736271)
(0.0244557 0.0258246 -0.00732191)
(-0.00892408 0.0274898 -0.00717673)
(0.0111388 0.0280713 -0.00680185)
(1.77584 -7.7087e-06 -0.00239188)
(1.65247 0.00208484 -0.00303951)
(1.2187 0.0110747 -0.00507218)
(0.224854 0.0436875 -0.00877087)
(-0.203403 0.064852 -0.0103553)
(0.31344 0.0351539 -0.00897506)
(0.270637 0.0423067 -0.00953606)
(0.0649387 0.048802 -0.00989979)
(0.102138 0.0478302 -0.00950119)
(0.197022 0.0399579 -0.00878861)
(0.179867 0.041391 -0.00787751)
(0.177228 0.0387371 -0.0074843)
(0.194495 0.037801 -0.00741479)
(0.212814 0.0384658 -0.00754594)
(0.230378 0.0391753 -0.0078254)
(0.239141 0.0398203 -0.00785983)
(0.236633 0.0406045 -0.00772772)
(0.222708 0.0415836 -0.00745326)
(0.195579 0.0432996 -0.00735049)
(0.153427 0.0460364 -0.00736334)
(0.107402 0.0490085 -0.00735847)
(0.0580764 0.0518739 -0.00733027)
(0.0260247 0.0547478 -0.00728547)
(-0.00811414 0.0572814 -0.00713965)
(0.011358 0.0580168 -0.00676275)
(1.77346 3.712e-05 -0.00240285)
(1.65685 0.00357301 -0.00301631)
(1.24541 0.0186777 -0.00497065)
(0.244637 0.0740185 -0.00864603)
(-0.195897 0.111285 -0.0103259)
(0.29681 0.0587389 -0.00897204)
(0.279257 0.0708188 -0.00951321)
(0.0694739 0.0839621 -0.00986561)
(0.102102 0.0813049 -0.00948292)
(0.198941 0.0670488 -0.0088029)
(0.184638 0.0701072 -0.0078736)
(0.18009 0.0668956 -0.00746019)
(0.197916 0.0659971 -0.00737867)
(0.21576 0.0673994 -0.00749333)
(0.233056 0.0689789 -0.00778306)
(0.242141 0.0701344 -0.00783158)
(0.240216 0.0715768 -0.00771339)
(0.226616 0.0732466 -0.00743653)
(0.200113 0.0763431 -0.0073257)
(0.158395 0.0809745 -0.00733577)
(0.112004 0.0861972 -0.0073292)
(0.0623044 0.0909541 -0.00729987)
(0.0293981 0.0961322 -0.00724943)
(-0.00580532 0.100569 -0.00710375)
(0.012177 0.101527 -0.00672402)
(1.76992 0.000153767 -0.00241912)
(1.66325 0.00492106 -0.00298272)
(1.28432 0.024956 -0.00481975)
(0.275664 0.0984596 -0.00845807)
(-0.182575 0.157779 -0.0102843)
(0.270019 0.0835783 -0.00896364)
(0.293029 0.098352 -0.00947548)
(0.0775307 0.118098 -0.00981878)
(0.101511 0.11529 -0.00946974)
(0.200758 0.0945497 -0.00885091)
(0.191819 0.0974127 -0.00789319)
(0.184272 0.0933029 -0.00744337)
(0.202401 0.091996 -0.00734519)
(0.220108 0.0935605 -0.00744365)
(0.237339 0.0962806 -0.00773808)
(0.246626 0.0982724 -0.0078025)
(0.245292 0.100628 -0.0077021)
(0.232266 0.102977 -0.00742561)
(0.206821 0.107569 -0.00730171)
(0.165855 0.114268 -0.00730805)
(0.11906 0.122077 -0.0072986)
(0.0691611 0.129145 -0.00726778)
(0.0356859 0.137657 -0.00721086)
(-0.00135347 0.145013 -0.00706409)
(0.0134704 0.146379 -0.00668543)
(1.76557 0.000375034 -0.00243918)
(1.67129 0.00617505 -0.00294118)
(1.33148 0.0298708 -0.00463159)
(0.319998 0.115523 -0.00819902)
(-0.163291 0.204905 -0.0102463)
(0.231365 0.110322 -0.00896436)
(0.310422 0.124814 -0.00942878)
(0.0887649 0.149912 -0.00975886)
(0.101403 0.148555 -0.00945295)
(0.201747 0.123746 -0.00889574)
(0.200086 0.124524 -0.00791931)
(0.189502 0.119702 -0.00742661)
(0.207723 0.118084 -0.00730167)
(0.22509 0.119754 -0.00737574)
(0.242305 0.123391 -0.00767293)
(0.251972 0.126288 -0.00776412)
(0.251488 0.129584 -0.00768759)
(0.239322 0.132731 -0.00741722)
(0.21551 0.13869 -0.00727706)
(0.175808 0.147585 -0.00727728)
(0.128797 0.158082 -0.00726494)
(0.0790721 0.168439 -0.00722938)
(0.0450883 0.180833 -0.00716375)
(0.00521925 0.191809 -0.00701961)
(0.0153399 0.194027 -0.00663498)
(1.76063 0.000715496 -0.00246168)
(1.68069 0.00737355 -0.00289326)
(1.38262 0.0336584 -0.00442132)
(0.381464 0.125973 -0.00791557)
(-0.137419 0.252074 -0.0101909)
(0.179539 0.140858 -0.00899748)
(0.330746 0.150059 -0.0093681)
(0.103168 0.180243 -0.0096944)
(0.101354 0.1815 -0.0094355)
(0.20249 0.155002 -0.00895535)
(0.209015 0.151482 -0.00795828)
(0.195937 0.146365 -0.00741072)
(0.213846 0.144312 -0.00725289)
(0.230842 0.145827 -0.00730332)
(0.248132 0.150336 -0.00759586)
(0.258304 0.154265 -0.00771813)
(0.258821 0.158517 -0.00766769)
(0.247843 0.162761 -0.00741037)
(0.226142 0.170067 -0.00725044)
(0.188284 0.181388 -0.00724225)
(0.141744 0.195033 -0.0072264)
(0.0928277 0.210158 -0.00718269)
(0.0582754 0.226822 -0.00710993)
(0.0148597 0.242872 -0.00696301)
(0.0181481 0.247266 -0.00656886)
(1.75561 0.0012257 -0.00248411)
(1.69139 0.00856665 -0.00283712)
(1.43518 0.0362379 -0.00418134)
(0.464276 0.131136 -0.00761959)
(-0.103397 0.2974 -0.01011)
(0.116045 0.176701 -0.00905608)
(0.35277 0.173522 -0.00928893)
(0.121368 0.209506 -0.00964064)
(0.101768 0.214372 -0.00941602)
(0.202575 0.187822 -0.00899793)
(0.217865 0.178504 -0.0080227)
(0.203837 0.173464 -0.00740129)
(0.220771 0.170795 -0.00720155)
(0.237383 0.171766 -0.00722493)
(0.254608 0.177016 -0.00749567)
(0.26537 0.181918 -0.00766004)
(0.267234 0.187246 -0.00763777)
(0.257908 0.192874 -0.00740477)
(0.238851 0.201679 -0.00722217)
(0.203714 0.215506 -0.00720079)
(0.158861 0.233397 -0.00718047)
(0.111227 0.254464 -0.0071272)
(0.0761649 0.276267 -0.00704742)
(0.0291995 0.29967 -0.00688946)
(0.0229568 0.308996 -0.00648054)
(1.75122 0.00188152 -0.00250259)
(1.70324 0.00973908 -0.00277496)
(1.48726 0.0376074 -0.0039364)
(0.572563 0.131859 -0.00728532)
(-0.0599772 0.338527 -0.00998615)
(0.0454397 0.218719 -0.00913075)
(0.374444 0.195029 -0.00920227)
(0.144057 0.237246 -0.00958451)
(0.103354 0.24721 -0.00939299)
(0.202013 0.22192 -0.00904393)
(0.226647 0.206295 -0.00811199)
(0.213392 0.201317 -0.00740214)
(0.228466 0.197646 -0.00715201)
(0.244665 0.197684 -0.00714594)
(0.261681 0.203105 -0.00738036)
(0.273246 0.208961 -0.00759429)
(0.276852 0.21545 -0.00760063)
(0.269737 0.22279 -0.00740027)
(0.253662 0.233172 -0.00718901)
(0.222503 0.249313 -0.00715005)
(0.181034 0.272108 -0.00712657)
(0.135114 0.300058 -0.00706566)
(0.100657 0.329217 -0.00696832)
(0.0513233 0.363844 -0.00679963)
(0.0316854 0.384605 -0.00637643)
(1.74823 0.00260518 -0.00251276)
(1.71624 0.0108342 -0.00270728)
(1.53773 0.0379876 -0.00369671)
(0.707572 0.129238 -0.00689344)
(-0.00650055 0.37218 -0.00980001)
(-0.0242066 0.266891 -0.00920348)
(0.391692 0.215814 -0.00912027)
(0.171433 0.262622 -0.00952909)
(0.10777 0.279991 -0.00936676)
(0.200856 0.257268 -0.00907871)
(0.23484 0.235834 -0.00822477)
(0.224366 0.229957 -0.00741636)
(0.236803 0.224814 -0.00710762)
(0.25256 0.223566 -0.00706707)
(0.269097 0.228508 -0.0072504)
(0.281796 0.235336 -0.0075159)
(0.287592 0.24303 -0.00755464)
(0.283362 0.252271 -0.00739338)
(0.270505 0.264056 -0.00715473)
(0.244574 0.282692 -0.00710094)
(0.208644 0.310034 -0.00705986)
(0.166202 0.345502 -0.0069874)
(0.134941 0.385351 -0.00687597)
(0.0874918 0.434839 -0.00668691)
(0.049209 0.478139 -0.00618551)
(1.74774 0.00325883 -0.00250821)
(1.73047 0.011741 -0.00263427)
(1.58614 0.0374187 -0.00346479)
(0.866479 0.124364 -0.00642578)
(0.0568504 0.395136 -0.00954513)
(-0.0823392 0.319472 -0.00925754)
(0.398003 0.237966 -0.0090493)
(0.202801 0.28437 -0.00945655)
(0.116552 0.312 -0.00934648)
(0.199336 0.292983 -0.00909708)
(0.242616 0.267367 -0.00835197)
(0.236304 0.259217 -0.00744876)
(0.245678 0.252096 -0.00706561)
(0.260847 0.249219 -0.00698509)
(0.276885 0.253026 -0.00712048)
(0.290988 0.261051 -0.00741965)
(0.299341 0.269903 -0.00749392)
(0.29864 0.280891 -0.0073885)
(0.289523 0.293863 -0.00712839)
(0.269856 0.315061 -0.00703205)
(0.241398 0.346374 -0.00697837)
(0.206136 0.389364 -0.00689313)
(0.181621 0.443259 -0.00675242)
(0.144799 0.517804 -0.00651789)
(0.0831193 0.623492 -0.00595558)
(1.777 -1.20896e-05 8.21482e-09)
(1.6505 0.000651061 -3.91598e-08)
(1.20671 0.00351733 -1.70583e-07)
(0.216365 0.0139015 -3.96217e-07)
(-0.203004 0.0221661 2.15217e-07)
(0.322748 0.0143847 1.37309e-07)
(0.267968 0.017078 -1.14562e-07)
(0.0652721 0.0195916 -9.00356e-08)
(0.105161 0.0208829 3.60537e-07)
(0.198067 0.0187882 1.29137e-07)
(0.179126 0.0192082 1.33766e-07)
(0.176524 0.0178982 1.50771e-07)
(0.192983 0.0172371 7.95526e-08)
(0.211048 0.0173457 3.59442e-08)
(0.228357 0.0178607 8.3671e-08)
(0.237103 0.0186108 1.71618e-07)
(0.234642 0.019295 1.46068e-07)
(0.220639 0.0199788 1.74568e-07)
(0.193158 0.0208319 1.33299e-07)
(0.150849 0.0220191 7.40314e-08)
(0.105161 0.0232627 1.1731e-08)
(0.056055 0.0245259 -6.6544e-09)
(0.0243962 0.0258233 -3.26236e-08)
(-0.00895939 0.0274893 1.15343e-07)
(0.0111297 0.0280751 1.20456e-07)
(1.77585 -8.00384e-06 6.78384e-09)
(1.65246 0.00208611 -3.06004e-08)
(1.21866 0.0110836 -1.36056e-07)
(0.224821 0.0437367 -3.15135e-07)
(-0.203088 0.0648203 2.14169e-07)
(0.313669 0.0351374 -6.77307e-08)
(0.270759 0.0422524 1.53632e-08)
(0.065301 0.0488336 7.89556e-08)
(0.102674 0.0477138 3.71783e-08)
(0.197446 0.0397837 1.82851e-07)
(0.180368 0.0412909 1.88079e-07)
(0.177631 0.0386876 1.32841e-07)
(0.19478 0.0377858 5.62468e-08)
(0.212972 0.0384591 2.74602e-08)
(0.230458 0.0391716 7.30845e-08)
(0.239161 0.039827 1.57094e-07)
(0.236614 0.0406158 1.38919e-07)
(0.222661 0.041597 1.64728e-07)
(0.195514 0.0433086 1.20344e-07)
(0.153351 0.0460419 6.56423e-08)
(0.107335 0.0490109 1.07426e-08)
(0.0580091 0.051873 -1.29863e-09)
(0.0259623 0.0547455 -1.5523e-08)
(-0.00815452 0.0572779 1.27741e-07)
(0.0113493 0.0580223 1.31098e-07)
(1.77347 3.64294e-05 5.39175e-09)
(1.65684 0.0035683 -3.32828e-08)
(1.24533 0.0186571 -1.38418e-07)
(0.244538 0.0739286 -3.13283e-07)
(-0.195839 0.111197 1.2203e-07)
(0.296915 0.0587162 3.76416e-08)
(0.279283 0.0708098 5.96454e-08)
(0.0696054 0.0838951 2.07537e-07)
(0.102228 0.0812188 -2.66609e-08)
(0.199062 0.0671049 1.56452e-07)
(0.184758 0.0701243 1.8695e-07)
(0.180157 0.0669617 1.22867e-07)
(0.197976 0.0660789 6.5862e-08)
(0.215835 0.0674563 4.7688e-08)
(0.233103 0.0690031 7.19066e-08)
(0.242138 0.0701525 1.31905e-07)
(0.240173 0.0715926 1.11178e-07)
(0.226553 0.0732649 1.38993e-07)
(0.200039 0.076353 9.42555e-08)
(0.158314 0.0809786 4.89262e-08)
(0.111935 0.0861978 5.76815e-09)
(0.0622374 0.0909494 4.16501e-09)
(0.0293378 0.0961287 8.43948e-09)
(-0.00584213 0.100564 1.36685e-07)
(0.0121702 0.101537 1.4716e-07)
(1.76994 0.000153143 5.29874e-09)
(1.66322 0.00491735 -4.0246e-08)
(1.28419 0.0249405 -1.74631e-07)
(0.275556 0.0983947 -4.4772e-07)
(-0.182635 0.157714 1.10976e-07)
(0.270098 0.0835631 1.8868e-07)
(0.292982 0.0983854 4.97971e-09)
(0.0775052 0.118028 3.15647e-07)
(0.10146 0.11519 1.65176e-07)
(0.2007 0.094641 1.05842e-07)
(0.191694 0.0974876 1.15702e-07)
(0.184148 0.0934363 8.64092e-08)
(0.202279 0.0921545 6.4405e-08)
(0.220005 0.0936945 6.09807e-08)
(0.237248 0.096354 1.65099e-08)
(0.246541 0.0983035 7.95639e-08)
(0.245207 0.10064 7.61333e-08)
(0.232183 0.102983 1.11459e-07)
(0.206734 0.107572 7.43049e-08)
(0.16577 0.114269 3.81282e-08)
(0.118988 0.122075 5.87937e-09)
(0.0690968 0.12914 1.56727e-08)
(0.0356315 0.137657 5.30023e-08)
(-0.00138465 0.145011 1.76088e-07)
(0.0134643 0.146391 1.87274e-07)
(1.76558 0.000374141 4.59712e-09)
(1.67127 0.00617315 -4.12425e-08)
(1.33134 0.0298674 -1.77727e-07)
(0.319889 0.11552 -4.84746e-07)
(-0.163339 0.204847 1.54895e-07)
(0.231469 0.11032 2.5281e-07)
(0.310329 0.12484 -6.34548e-08)
(0.0886485 0.149899 2.9036e-07)
(0.101322 0.148494 2.45354e-07)
(0.201645 0.123788 1.25824e-07)
(0.199802 0.124592 1.29915e-07)
(0.189217 0.119803 1.32735e-07)
(0.207442 0.118179 1.31239e-07)
(0.224834 0.119813 1.06309e-07)
(0.242084 0.123402 5.30194e-08)
(0.251803 0.126278 5.00426e-08)
(0.251364 0.129567 4.90528e-08)
(0.239228 0.132715 6.58399e-08)
(0.215422 0.13868 4.14465e-08)
(0.175723 0.147578 2.19137e-08)
(0.128727 0.158076 5.12061e-09)
(0.0790137 0.168434 3.26819e-08)
(0.0450399 0.180835 9.25413e-08)
(0.00519284 0.191807 2.10877e-07)
(0.0153337 0.194038 2.33918e-07)
(1.76065 0.00071446 2.59974e-09)
(1.68067 0.00737229 -4.34029e-08)
(1.38249 0.033659 -1.79532e-07)
(0.381328 0.125986 -4.67439e-07)
(-0.137436 0.252016 1.25915e-07)
(0.179684 0.140854 3.13579e-07)
(0.330642 0.150084 -9.28426e-08)
(0.103034 0.180298 2.12186e-07)
(0.101268 0.181545 2.84996e-07)
(0.202341 0.155029 9.03784e-08)
(0.208742 0.151573 8.16773e-08)
(0.195633 0.146448 7.76393e-08)
(0.213557 0.144348 1.53812e-07)
(0.230602 0.145815 1.18849e-07)
(0.247931 0.150273 7.0573e-08)
(0.258146 0.154195 4.49389e-08)
(0.258695 0.158455 4.17283e-08)
(0.247748 0.162717 2.74643e-08)
(0.226055 0.170037 1.03002e-08)
(0.188202 0.181366 -1.98216e-09)
(0.141679 0.195022 2.56133e-09)
(0.0927765 0.210151 5.25836e-08)
(0.0582335 0.226821 1.25824e-07)
(0.0148374 0.24287 2.45854e-07)
(0.0181415 0.247278 2.79553e-07)
(1.75562 0.00122429 5.21777e-10)
(1.69136 0.00856525 -4.48754e-08)
(1.43506 0.0362398 -1.87953e-07)
(0.464099 0.131151 -4.65557e-07)
(-0.103415 0.297351 4.37855e-08)
(0.116216 0.176691 3.90409e-07)
(0.352673 0.17357 -1.09826e-07)
(0.121253 0.209599 1.45636e-07)
(0.101698 0.2145 2.83549e-07)
(0.202463 0.187861 1.9397e-07)
(0.217589 0.178644 9.24889e-08)
(0.203538 0.173562 1.40915e-07)
(0.220537 0.170831 1.8038e-07)
(0.237209 0.171753 1.48759e-07)
(0.254481 0.176964 7.88328e-08)
(0.265275 0.181844 4.60977e-08)
(0.26715 0.187165 3.99198e-08)
(0.257834 0.192806 4.2676e-09)
(0.238776 0.201628 -1.87344e-08)
(0.203645 0.21547 -2.28524e-08)
(0.158806 0.233375 -5.875e-09)
(0.111183 0.254448 5.23137e-08)
(0.0761301 0.276258 1.50887e-07)
(0.0291849 0.299666 2.82417e-07)
(0.0229525 0.309009 3.18009e-07)
(1.75123 0.00187993 -5.42024e-09)
(1.70321 0.00973787 -4.80946e-08)
(1.48715 0.0376113 -1.88105e-07)
(0.572343 0.13188 -4.59796e-07)
(-0.0599966 0.338497 -5.92891e-08)
(0.0456222 0.218706 5.07317e-07)
(0.374356 0.195105 -1.19522e-07)
(0.143971 0.237363 6.41772e-08)
(0.103313 0.247385 2.84139e-07)
(0.201974 0.221989 2.52982e-07)
(0.226442 0.206395 3.08549e-08)
(0.213186 0.20139 1.60271e-07)
(0.228304 0.197668 2.06509e-07)
(0.244537 0.197664 1.83461e-07)
(0.261581 0.203075 1.11094e-07)
(0.273161 0.208906 5.6092e-08)
(0.276778 0.215379 3.90356e-08)
(0.269674 0.222713 -1.71867e-08)
(0.253603 0.233105 -3.57341e-08)
(0.222449 0.249263 -3.47678e-08)
(0.180989 0.272074 -2.17242e-08)
(0.135079 0.300031 4.20563e-08)
(0.100631 0.3292 1.64961e-07)
(0.0513173 0.363833 3.02909e-07)
(0.0316846 0.384615 3.41194e-07)
(1.74824 0.00260413 -1.26915e-08)
(1.71621 0.0108343 -5.17336e-08)
(1.53763 0.037995 -1.8404e-07)
(0.707322 0.129266 -4.43049e-07)
(-0.00651787 0.372177 -1.6705e-07)
(-0.0240344 0.26687 5.88483e-07)
(0.391628 0.215905 -1.35666e-07)
(0.171379 0.262756 -2.45939e-08)
(0.107768 0.280185 3.08601e-07)
(0.20088 0.257388 2.26743e-07)
(0.234744 0.235918 -6.20542e-09)
(0.224285 0.229999 1.65978e-07)
(0.236711 0.224807 2.1385e-07)
(0.252466 0.22352 1.91311e-07)
(0.269007 0.228455 1.38226e-07)
(0.281718 0.235266 9.30916e-08)
(0.287528 0.242953 6.66119e-08)
(0.28331 0.252185 2.40125e-09)
(0.270462 0.263977 -3.26484e-08)
(0.244535 0.282627 -4.36782e-08)
(0.208611 0.309986 -2.96486e-08)
(0.166177 0.345467 3.79514e-08)
(0.134924 0.385325 1.66033e-07)
(0.0874931 0.434818 3.08551e-07)
(0.049212 0.478141 3.43252e-07)
(1.74774 0.00325853 -2.14551e-08)
(1.73044 0.0117421 -5.60721e-08)
(1.58605 0.0374285 -1.75622e-07)
(0.866217 0.124398 -4.25366e-07)
(0.056833 0.395169 -3.17046e-07)
(-0.0821876 0.319443 6.61352e-07)
(0.397974 0.238055 -6.36507e-08)
(0.20277 0.284504 -7.52597e-08)
(0.116589 0.312184 3.48018e-07)
(0.199406 0.293136 1.89166e-07)
(0.242611 0.267467 5.49873e-08)
(0.236311 0.259254 1.73989e-07)
(0.245648 0.252077 2.01546e-07)
(0.260794 0.249158 1.88878e-07)
(0.276816 0.252946 1.46475e-07)
(0.290933 0.260964 9.72701e-08)
(0.299299 0.269811 5.50639e-08)
(0.298609 0.280798 1.37153e-08)
(0.289495 0.293773 -2.0383e-08)
(0.269834 0.314983 -4.82485e-08)
(0.241382 0.346315 -3.25554e-08)
(0.206124 0.38932 3.24786e-08)
(0.181612 0.443226 1.60664e-07)
(0.144804 0.517773 2.87107e-07)
(0.0831256 0.623491 3.39939e-07)
(1.77699 -1.22624e-05 -7.69503e-09)
(1.65051 0.000648413 1.21575e-08)
(1.20677 0.00350422 5.73767e-08)
(0.216403 0.0138316 1.47972e-07)
(-0.202879 0.0221087 3.85604e-08)
(0.322833 0.0143358 -8.19695e-08)
(0.268031 0.0170494 3.40796e-07)
(0.0653533 0.0194937 -6.51913e-08)
(0.10521 0.020882 -3.5732e-07)
(0.198019 0.0188964 1.23325e-07)
(0.178965 0.0192611 1.42862e-07)
(0.17633 0.0179 2.27598e-07)
(0.192788 0.0171875 1.55183e-07)
(0.210883 0.0172729 9.54785e-08)
(0.228231 0.0178061 5.44537e-10)
(0.237033 0.0185847 -8.60956e-08)
(0.234613 0.0192815 -2.28474e-07)
(0.220637 0.0199699 -2.337e-07)
(0.193164 0.0208249 -2.6171e-07)
(0.150856 0.0220148 -2.58939e-07)
(0.105156 0.0232605 -2.17028e-07)
(0.0560392 0.0245251 -1.30317e-07)
(0.0243917 0.0258237 3.24619e-08)
(-0.00896239 0.0274898 2.63834e-07)
(0.0111299 0.0280766 2.90036e-07)
(1.77584 -7.89147e-06 -7.35838e-09)
(1.65246 0.00208533 -1.40464e-08)
(1.21865 0.0110783 -3.49792e-08)
(0.224824 0.0437066 -7.75537e-08)
(-0.203321 0.064848 -4.45741e-08)
(0.313524 0.035162 5.64384e-07)
(0.270651 0.0423082 3.38345e-08)
(0.0650139 0.0488682 -2.63781e-07)
(0.102232 0.0478813 3.01163e-07)
(0.19706 0.0399023 -9.97854e-08)
(0.17988 0.0413616 1.48433e-09)
(0.177245 0.0387014 1.90193e-07)
(0.194505 0.0377666 1.33188e-07)
(0.212822 0.0384428 7.33976e-08)
(0.23037 0.0391552 -6.45467e-09)
(0.239112 0.0398031 -5.0157e-08)
(0.23659 0.0405878 -2.06438e-07)
(0.22266 0.0415702 -2.15872e-07)
(0.195521 0.0432902 -2.60423e-07)
(0.15336 0.0460306 -2.61317e-07)
(0.107331 0.0490046 -2.18518e-07)
(0.0579946 0.0518701 -1.3148e-07)
(0.0259585 0.0547455 3.48733e-08)
(-0.00815648 0.0572785 2.58672e-07)
(0.0113504 0.0580243 2.908e-07)
(1.77347 3.68415e-05 -6.89159e-09)
(1.65684 0.00357197 2.79625e-09)
(1.24535 0.0186739 1.14584e-08)
(0.24459 0.0740016 5.52723e-11)
(-0.195855 0.111261 2.15458e-07)
(0.296885 0.0587449 1.5128e-07)
(0.279276 0.0708311 6.70423e-08)
(0.0695511 0.0840047 -7.04153e-08)
(0.102172 0.0813706 2.91184e-08)
(0.198998 0.0670411 -1.26714e-08)
(0.184697 0.0700921 5.93117e-08)
(0.180135 0.0668725 1.36855e-07)
(0.197946 0.0659671 8.7175e-08)
(0.215777 0.0673655 2.36786e-08)
(0.233057 0.0689425 2.88898e-08)
(0.242122 0.0701047 -6.31191e-08)
(0.240183 0.0715535 -1.32606e-07)
(0.226574 0.073229 -2.10524e-07)
(0.20006 0.0763288 -2.63523e-07)
(0.158331 0.0809644 -2.68628e-07)
(0.111936 0.08619 -2.24605e-07)
(0.0622267 0.090947 -1.31766e-07)
(0.0293359 0.0961288 3.76335e-08)
(-0.00584335 0.100565 2.51529e-07)
(0.0121717 0.10154 2.95306e-07)
(1.76993 0.000153459 -8.47961e-09)
(1.66323 0.00491989 2.42441e-08)
(1.28425 0.0249519 1.22695e-07)
(0.275608 0.0984426 3.61065e-07)
(-0.182573 0.157755 1.21804e-08)
(0.270094 0.0835799 -8.65993e-08)
(0.293043 0.0983718 2.46281e-07)
(0.0775985 0.118116 1.37375e-07)
(0.101567 0.115338 -4.41518e-07)
(0.2008 0.0945823 -4.22325e-09)
(0.191888 0.0974374 9.5192e-08)
(0.184332 0.0933105 -2.29597e-08)
(0.202447 0.0919931 -6.71271e-08)
(0.220159 0.0935545 -8.51812e-08)
(0.237372 0.0962691 -2.08354e-09)
(0.246633 0.0982528 -5.68368e-08)
(0.245272 0.100606 -8.85979e-08)
(0.232228 0.102952 -2.03505e-07)
(0.20677 0.107551 -2.65265e-07)
(0.165795 0.114256 -2.75387e-07)
(0.118995 0.122069 -2.31151e-07)
(0.0690898 0.129139 -1.29045e-07)
(0.0356305 0.137656 4.42123e-08)
(-0.00138364 0.145011 2.54812e-07)
(0.0134672 0.146395 3.04838e-07)
(1.76557 0.000374581 -8.56709e-09)
(1.67128 0.00617416 2.82496e-08)
(1.33141 0.0298695 1.39816e-07)
(0.319939 0.115522 4.41637e-07)
(-0.163293 0.204881 -1.99161e-07)
(0.23145 0.110323 -1.09187e-07)
(0.310424 0.124832 2.01372e-07)
(0.0888177 0.149921 3.16818e-07)
(0.101473 0.148581 -3.39561e-07)
(0.201812 0.123793 -9.41268e-08)
(0.200136 0.12454 1.3664e-07)
(0.189533 0.11972 -1.21891e-07)
(0.207731 0.118099 -1.5461e-07)
(0.225077 0.119764 -1.22432e-07)
(0.242281 0.123388 -2.92126e-08)
(0.251945 0.126269 -3.12595e-08)
(0.25146 0.129557 -7.78131e-08)
(0.239289 0.1327 -1.86622e-07)
(0.215469 0.138668 -2.66316e-07)
(0.175756 0.147571 -2.78605e-07)
(0.128739 0.158074 -2.38487e-07)
(0.0790082 0.168433 -1.23418e-07)
(0.0450398 0.180835 4.85588e-08)
(0.00519655 0.191809 2.54445e-07)
(0.015338 0.194043 3.11697e-07)
(1.76064 0.000714934 -6.49545e-09)
(1.68068 0.00737265 3.21859e-08)
(1.38256 0.0336578 1.49113e-07)
(0.381394 0.125977 4.27124e-07)
(-0.137415 0.252045 -1.50855e-07)
(0.179639 0.140851 -1.24046e-07)
(0.330736 0.150074 1.3346e-07)
(0.103206 0.180254 3.56335e-07)
(0.101413 0.181527 -1.12175e-07)
(0.202519 0.15505 -8.58592e-08)
(0.209098 0.15153 5.96386e-08)
(0.195977 0.146408 -2.05765e-07)
(0.21384 0.144328 -2.20543e-07)
(0.230815 0.145818 -1.65174e-07)
(0.248103 0.150301 -2.66697e-08)
(0.258277 0.154225 -2.61739e-08)
(0.258795 0.158478 -7.63933e-08)
(0.247815 0.162728 -1.74959e-07)
(0.226107 0.170043 -2.57636e-07)
(0.188238 0.18137 -2.76762e-07)
(0.141693 0.195022 -2.4195e-07)
(0.0927723 0.210152 -1.18618e-07)
(0.0582345 0.226823 5.20579e-08)
(0.0148435 0.242874 2.56612e-07)
(0.0181467 0.247284 3.1913e-07)
(1.75561 0.00122487 -4.3037e-09)
(1.69138 0.00856545 3.52333e-08)
(1.43512 0.0362374 1.65533e-07)
(0.464186 0.131139 4.50003e-07)
(-0.103399 0.297369 2.97701e-09)
(0.116151 0.176683 -2.09389e-07)
(0.352748 0.173538 1.09629e-07)
(0.121392 0.209516 2.55432e-07)
(0.101811 0.214399 1.00153e-08)
(0.202603 0.18785 -3.77101e-08)
(0.217873 0.178613 3.25471e-08)
(0.203812 0.17355 -2.03702e-07)
(0.220748 0.170836 -2.24574e-07)
(0.237367 0.171773 -1.69292e-07)
(0.254603 0.17699 -3.79098e-08)
(0.265367 0.181876 -4.4587e-08)
(0.267224 0.187201 -8.88665e-08)
(0.257888 0.192837 -1.71244e-07)
(0.238821 0.201651 -2.47086e-07)
(0.203676 0.215485 -2.71848e-07)
(0.158818 0.233382 -2.43834e-07)
(0.11118 0.254455 -1.19928e-07)
(0.0761318 0.276265 5.53149e-08)
(0.0291923 0.299671 2.59502e-07)
(0.0229581 0.309017 3.2287e-07)
(1.75122 0.00188052 9.68498e-10)
(1.70323 0.00973783 3.91055e-08)
(1.4872 0.0376078 1.71657e-07)
(0.57245 0.131865 4.63546e-07)
(-0.059984 0.3385 1.76816e-07)
(0.0455455 0.218695 -3.41775e-07)
(0.374415 0.195051 8.26616e-08)
(0.144066 0.237264 1.55098e-07)
(0.103377 0.24724 1.34188e-08)
(0.202052 0.221933 -2.61714e-08)
(0.226613 0.206365 -9.15278e-10)
(0.213347 0.201392 -1.70262e-07)
(0.228437 0.197693 -2.06677e-07)
(0.244649 0.197703 -1.56733e-07)
(0.261674 0.2031 -4.98784e-08)
(0.273246 0.208937 -6.60903e-08)
(0.276848 0.215413 -1.25495e-07)
(0.269723 0.222753 -1.57359e-07)
(0.253639 0.233141 -2.38549e-07)
(0.222472 0.249289 -2.666e-07)
(0.180997 0.272091 -2.36903e-07)
(0.135075 0.300045 -1.26294e-07)
(0.100631 0.329213 5.31884e-08)
(0.0513242 0.363841 2.5457e-07)
(0.0316904 0.384623 3.17933e-07)
(1.74823 0.00260441 7.03619e-09)
(1.71623 0.0108336 4.26912e-08)
(1.53767 0.03799 1.71791e-07)
(0.70744 0.129249 4.59211e-07)
(-0.00650765 0.372166 2.93248e-07)
(-0.0241081 0.266861 -4.35797e-07)
(0.391666 0.21584 7.26116e-08)
(0.171435 0.262654 1.17537e-07)
(0.107786 0.280033 -4.51115e-08)
(0.200897 0.257305 -4.39367e-08)
(0.234813 0.235878 -5.6282e-09)
(0.224346 0.230006 -1.28837e-07)
(0.236781 0.224847 -1.86268e-07)
(0.25254 0.223577 -1.32415e-07)
(0.269081 0.228501 -6.97213e-08)
(0.281781 0.235315 -7.69851e-08)
(0.287578 0.242999 -1.32784e-07)
(0.283347 0.252236 -1.49158e-07)
(0.270487 0.264024 -2.36696e-07)
(0.24455 0.282664 -2.58625e-07)
(0.208613 0.310014 -2.27167e-07)
(0.16617 0.345488 -1.23887e-07)
(0.13492 0.385342 4.5872e-08)
(0.0874973 0.434828 2.384e-07)
(0.0492168 0.478149 3.00205e-07)
(1.74774 0.00325846 1.42083e-08)
(1.73046 0.011741 4.6599e-08)
(1.58609 0.0374226 1.67087e-07)
(0.866337 0.124379 4.51496e-07)
(0.0568442 0.395142 4.7451e-07)
(-0.0822505 0.319437 -4.98273e-07)
(0.39799 0.23799 -2.33201e-08)
(0.2028 0.28441 1.03493e-07)
(0.116575 0.312049 -1.04428e-07)
(0.19938 0.293045 -4.9136e-08)
(0.242608 0.267415 1.09914e-08)
(0.236308 0.259257 -1.04898e-07)
(0.245669 0.25212 -1.51698e-07)
(0.260832 0.249221 -1.17464e-07)
(0.276871 0.253008 -9.67523e-08)
(0.290975 0.26102 -8.0807e-08)
(0.299328 0.269868 -1.35545e-07)
(0.298627 0.280856 -1.42376e-07)
(0.289508 0.293829 -2.31584e-07)
(0.269838 0.31503 -2.47289e-07)
(0.241375 0.346351 -2.14612e-07)
(0.206111 0.389347 -1.20682e-07)
(0.181602 0.443246 3.46601e-08)
(0.144803 0.517783 2.04384e-07)
(0.083128 0.623495 2.79801e-07)
(1.777 -1.22634e-05 -5.4746e-09)
(1.6505 0.000648647 5.65881e-08)
(1.20675 0.00350545 2.67284e-07)
(0.216388 0.013838 7.36331e-07)
(-0.202896 0.0221146 -2.26895e-07)
(0.322832 0.0143406 -1.76599e-07)
(0.268018 0.0170539 3.82377e-08)
(0.0653395 0.0195064 8.42808e-08)
(0.105198 0.0208889 1.60405e-07)
(0.198012 0.0188911 5.81668e-08)
(0.178954 0.0192637 -3.70356e-09)
(0.17633 0.0179085 2.21897e-08)
(0.192787 0.0171995 3.33348e-08)
(0.21088 0.0172855 1.62869e-09)
(0.228221 0.0178135 -3.61495e-08)
(0.237014 0.0185874 -7.70475e-08)
(0.234584 0.0192804 -1.04212e-07)
(0.220598 0.0199683 -1.16233e-07)
(0.193115 0.0208243 -9.80451e-08)
(0.150801 0.0220151 -5.96343e-08)
(0.105105 0.0232612 -2.13755e-08)
(0.0559908 0.0245258 1.27134e-08)
(0.0243612 0.0258246 6.34985e-08)
(-0.00897289 0.0274904 1.06915e-07)
(0.0111271 0.0280772 9.57452e-08)
(1.77584 -7.91954e-06 -4.71786e-09)
(1.65246 0.0020856 5.85056e-08)
(1.21863 0.01108 2.72269e-07)
(0.224812 0.0437141 7.52829e-07)
(-0.203313 0.064851 -2.02159e-07)
(0.313538 0.035163 -2.1702e-07)
(0.270652 0.0423069 6.24373e-08)
(0.0650295 0.0488749 9.20474e-08)
(0.102259 0.0478709 7.16731e-08)
(0.197081 0.0398763 4.46113e-08)
(0.1799 0.0413456 8.47003e-09)
(0.177264 0.0386904 3.61902e-08)
(0.194514 0.0377592 5.44342e-08)
(0.212821 0.0384357 3.21677e-08)
(0.230359 0.0391506 -1.95609e-08)
(0.239092 0.0398003 -6.67307e-08)
(0.236561 0.0405867 -9.6997e-08)
(0.222623 0.0415701 -1.14702e-07)
(0.195474 0.0432902 -1.04164e-07)
(0.153305 0.0460318 -6.72421e-08)
(0.107279 0.0490066 -2.70091e-08)
(0.0579464 0.0518723 9.18508e-09)
(0.0259278 0.0547479 6.60406e-08)
(-0.00816741 0.0572804 1.08012e-07)
(0.0113477 0.0580267 1.00467e-07)
(1.77347 3.68171e-05 -4.19981e-09)
(1.65684 0.00357216 5.68043e-08)
(1.24534 0.0186752 2.69908e-07)
(0.244577 0.0740071 7.71201e-07)
(-0.19586 0.111266 -2.13863e-07)
(0.296896 0.0587487 -1.8219e-07)
(0.279276 0.0708353 5.90175e-08)
(0.0695634 0.0840084 6.5435e-08)
(0.102195 0.0813569 -2.15629e-08)
(0.199027 0.0670282 3.40062e-08)
(0.184727 0.0700892 4.25096e-09)
(0.180158 0.0668879 2.58826e-08)
(0.197961 0.0659918 5.03106e-08)
(0.215791 0.0673934 4.45056e-08)
(0.233057 0.0689601 -6.99605e-09)
(0.242108 0.0701091 -4.39638e-08)
(0.240155 0.0715526 -8.94568e-08)
(0.226536 0.0732259 -1.05475e-07)
(0.200013 0.0763266 -1.10556e-07)
(0.158277 0.0809644 -7.95071e-08)
(0.111885 0.0861921 -3.77113e-08)
(0.0621787 0.0909492 6.38691e-09)
(0.0293051 0.0961328 6.88823e-08)
(-0.00585404 0.100568 1.12219e-07)
(0.0121698 0.101545 1.09296e-07)
(1.76993 0.00015343 -4.12308e-09)
(1.66323 0.00492007 5.51841e-08)
(1.28424 0.0249533 2.71811e-07)
(0.275598 0.098449 8.40984e-07)
(-0.182572 0.157761 -1.40861e-07)
(0.270106 0.0835825 -2.40545e-07)
(0.293039 0.0983758 5.1442e-08)
(0.0776022 0.118109 3.57386e-08)
(0.101575 0.115316 -4.25987e-08)
(0.200815 0.0945975 -6.55798e-09)
(0.19189 0.0974569 -2.49372e-08)
(0.184309 0.0933489 7.41479e-09)
(0.202402 0.0920372 5.24979e-08)
(0.220087 0.0935888 5.62352e-08)
(0.237309 0.0962844 6.32876e-08)
(0.246583 0.0982547 -1.02495e-08)
(0.245232 0.100602 -6.31657e-08)
(0.232189 0.102947 -9.69964e-08)
(0.206725 0.107548 -1.15922e-07)
(0.165744 0.114256 -9.20349e-08)
(0.118946 0.122072 -4.71893e-08)
(0.0690431 0.129142 4.15444e-09)
(0.0356008 0.137663 7.45975e-08)
(-0.00139404 0.145018 1.25524e-07)
(0.013466 0.146402 1.27798e-07)
(1.76558 0.00037453 -3.53225e-09)
(1.67128 0.00617432 4.99027e-08)
(1.3314 0.0298709 2.47203e-07)
(0.319932 0.115529 8.31257e-07)
(-0.163297 0.204889 -7.08532e-08)
(0.231454 0.110326 -2.85e-07)
(0.310411 0.124835 9.9966e-08)
(0.0887957 0.149914 -9.97071e-09)
(0.101449 0.148565 1.78288e-09)
(0.201766 0.123824 -2.03239e-08)
(0.200042 0.124582 -1.14183e-07)
(0.189429 0.119758 -3.8628e-08)
(0.207623 0.118117 2.41954e-08)
(0.224977 0.119754 5.159e-08)
(0.242198 0.123363 6.75816e-08)
(0.251882 0.12625 9.6711e-09)
(0.251413 0.129544 -3.76084e-08)
(0.239247 0.132694 -8.3847e-08)
(0.215425 0.138665 -1.17983e-07)
(0.175707 0.147571 -1.04413e-07)
(0.128691 0.158076 -5.80951e-08)
(0.0789646 0.16844 4.06912e-09)
(0.0450112 0.180845 7.64281e-08)
(0.00518596 0.191818 1.35969e-07)
(0.0153374 0.194052 1.41783e-07)
(1.76064 0.000714932 -2.29783e-09)
(1.68068 0.00737305 4.73236e-08)
(1.38255 0.03366 2.28766e-07)
(0.381391 0.125986 7.4294e-07)
(-0.137417 0.252058 5.90247e-08)
(0.179637 0.14086 -3.21959e-07)
(0.330717 0.150085 1.0691e-07)
(0.103164 0.180266 -4.12127e-08)
(0.101369 0.181536 -2.29524e-08)
(0.202444 0.155077 4.92156e-08)
(0.208964 0.151571 -7.83874e-08)
(0.195848 0.146434 3.64398e-08)
(0.213744 0.144327 2.80798e-09)
(0.230756 0.145793 2.83028e-08)
(0.248059 0.15026 1.31556e-08)
(0.258239 0.154188 1.65562e-08)