/*--------------------------------*- C++ -*----------------------------------*\
| =========                 |                                                 |
| \\      /  F ield         | OpenFOAM: The Open Source CFD Toolbox           |
|  \\    /   O peration     | Version:  4.1                                   |
|   \\  /    A nd           | Web:      www.OpenFOAM.org                      |
|    \\/     M anipulation  |                                                 |
\*---------------------------------------------------------------------------*/
FoamFile
{
    version     2.0;
    format      ascii;
    class       volScalarField;
    location    "4.3";
    object      Ma;
}
// * * * * * * * * * * * * * * * * * * * * * * * * * * * * * * * * * * * * * //

dimensions      [0 0 0 0 0 0 0];

internalField   nonuniform List<scalar> 
52500
(
3.00002
2.99997
2.99991
2.99968
2.99936
2.99806
2.99618
2.98902
2.97701
2.93823
2.84951
2.64525
2.10208
1.26568
0.527523
0.277825
0.329067
0.344419
0.312144
0.257515
0.205046
0.163101
0.121986
0.0766253
0.0434871
3.00002
2.99997
2.99992
2.99969
2.99937
2.99808
2.99623
2.98917
2.97733
2.93908
2.85164
2.64995
2.11308
1.27999
0.534956
0.277961
0.330561
0.34671
0.314697
0.260909
0.209799
0.169376
0.13048
0.0902499
0.0662267
3.00002
2.99997
2.99992
2.9997
2.99939
2.99813
2.99634
2.98944
2.97799
2.94067
2.85613
2.65939
2.13854
1.31292
0.553492
0.281641
0.33646
0.354357
0.323173
0.271483
0.223337
0.186379
0.152372
0.120438
0.104416
3.00002
2.99997
2.99992
2.99971
2.99941
2.99821
2.99649
2.98987
2.97897
2.94312
2.86288
2.67375
2.17769
1.36479
0.581933
0.288217
0.34624
0.367012
0.337286
0.288596
0.244248
0.211569
0.183074
0.158119
0.146549
3.00002
2.99998
2.99993
2.99972
2.99944
2.99829
2.99666
2.99021
2.98017
2.94556
2.87317
2.69294
2.23342
1.43884
0.622267
0.301642
0.361797
0.385647
0.357331
0.312134
0.271535
0.243075
0.219492
0.199956
0.191478
3.00002
2.99998
2.99993
2.99974
2.99948
2.9984
2.99687
2.99078
2.9816
2.94874
2.88527
2.71597
2.30037
1.5336
0.674199
0.325574
0.385282
0.411036
0.383999
0.342012
0.305293
0.280777
0.26199
0.247435
0.241876
3.00002
2.99998
2.99994
2.99977
2.99952
2.99854
2.99714
2.99158
2.98321
2.95307
2.89696
2.74053
2.37246
1.64504
0.736932
0.364368
0.420108
0.444286
0.418321
0.379556
0.346036
0.32541
0.311139
0.302079
0.301843
3.00002
2.99999
2.99995
2.99979
2.99957
2.99867
2.99741
2.99235
2.98477
2.95724
2.90679
2.76326
2.42857
1.73643
0.792324
0.399565
0.448991
0.47047
0.450861
0.419837
0.391758
0.376324
0.368527
0.367417
0.377192
3.00002
2.99999
2.99996
2.99982
2.99962
2.99882
2.99769
2.99315
2.9864
2.96177
2.91615
2.78914
2.4764
1.84639
0.873255
0.457332
0.472917
0.485731
0.479861
0.459235
0.440167
0.432073
0.433099
0.446193
0.480809
3.00002
3
2.99997
2.99985
2.99969
2.99903
2.99806
2.99455
2.98825
2.96904
2.92401
2.81778
2.5193
1.96109
0.985339
0.529614
0.489899
0.50271
0.507503
0.497165
0.489556
0.491468
0.508496
0.551298
0.652723
3
2.99995
2.9999
2.99967
2.99934
2.99804
2.99616
2.98899
2.97698
2.93819
2.84947
2.64518
2.10201
1.26556
0.52739
0.277623
0.328882
0.344235
0.311939
0.257264
0.204725
0.162691
0.121429
0.0757204
0.0418467
3
2.99995
2.9999
2.99967
2.99935
2.99806
2.99621
2.98915
2.97731
2.93904
2.85161
2.64988
2.11301
1.27986
0.534824
0.277758
0.330376
0.346528
0.314495
0.260663
0.209488
0.168985
0.129965
0.089493
0.0651773
3
2.99996
2.9999
2.99968
2.99937
2.99811
2.99632
2.98942
2.97796
2.94064
2.85609
2.65932
2.13847
1.31279
0.553365
0.281441
0.336279
0.354179
0.322976
0.271247
0.223047
0.186028
0.151937
0.11988
0.103764
3
2.99996
2.99991
2.99969
2.9994
2.99819
2.99647
2.98984
2.97895
2.94309
2.86285
2.67368
2.17762
1.36466
0.581809
0.288017
0.346062
0.366838
0.337096
0.288374
0.243984
0.211262
0.182716
0.157701
0.146094
3
2.99996
2.99991
2.99971
2.99942
2.99827
2.99664
2.99018
2.98015
2.94552
2.87316
2.69288
2.23339
1.43874
0.622172
0.301468
0.361638
0.385491
0.35716
0.311936
0.271303
0.242812
0.219198
0.199632
0.191136
3
2.99996
2.99992
2.99973
2.99946
2.99838
2.99685
2.99076
2.98158
2.94871
2.88524
2.71592
2.30032
1.53349
0.674105
0.325407
0.385134
0.410894
0.383845
0.341836
0.305092
0.280555
0.26175
0.247178
0.241611
3
2.99997
2.99992
2.99975
2.99951
2.99852
2.99712
2.99156
2.98319
2.95304
2.89693
2.74047
2.37241
1.64493
0.736837
0.364208
0.419967
0.444154
0.418181
0.3794
0.345862
0.325224
0.310942
0.301874
0.301637
3
2.99997
2.99993
2.99977
2.99955
2.99865
2.99739
2.99232
2.98475
2.95722
2.90676
2.76321
2.42853
1.73634
0.792247
0.399426
0.448869
0.470351
0.450735
0.419699
0.391609
0.376168
0.368366
0.367255
0.377033
3
2.99997
2.99994
2.9998
2.9996
2.9988
2.99767
2.99313
2.98638
2.96173
2.91613
2.78908
2.47638
1.8463
0.873177
0.457202
0.472806
0.485623
0.479748
0.459114
0.440039
0.431942
0.432967
0.446065
0.480692
3
2.99998
2.99995
2.99983
2.99967
2.99901
2.99804
2.99452
2.98823
2.96901
2.92399
2.81774
2.51927
1.96101
0.985262
0.529496
0.489794
0.502607
0.507401
0.497058
0.489446
0.491358
0.50839
0.551201
0.652644
3
2.99995
2.9999
2.99967
2.99934
2.99804
2.99616
2.98899
2.97698
2.93819
2.84947
2.64518
2.10201
1.26555
0.527389
0.277624
0.328883
0.344236
0.31194
0.257264
0.204726
0.162692
0.121429
0.0757206
0.0418468
3
2.99995
2.9999
2.99967
2.99935
2.99806
2.99621
2.98915
2.97731
2.93904
2.8516
2.64988
2.113
1.27986
0.534822
0.277759
0.330376
0.346528
0.314495
0.260663
0.209488
0.168986
0.129965
0.0894931
0.0651774
3
2.99996
2.9999
2.99968
2.99937
2.99811
2.99632
2.98942
2.97796
2.94064
2.85609
2.65932
2.13847
1.31278
0.553363
0.281442
0.336279
0.354179
0.322976
0.271247
0.223047
0.186028
0.151937
0.11988
0.103765
3
2.99996
2.99991
2.99969
2.9994
2.99819
2.99647
2.98984
2.97895
2.94309
2.86285
2.67368
2.17762
1.36466
0.581808
0.288018
0.346062
0.366838
0.337096
0.288374
0.243984
0.211262
0.182716
0.157702
0.146094
3
2.99996
2.99991
2.99971
2.99942
2.99827
2.99664
2.99018
2.98015
2.94552
2.87316
2.69288
2.23338
1.43873
0.62217
0.301469
0.361638
0.385491
0.357159
0.311936
0.271303
0.242812
0.219198
0.199632
0.191136
3
2.99996
2.99992
2.99973
2.99946
2.99838
2.99685
2.99076
2.98158
2.94871
2.88524
2.71592
2.30032
1.53348
0.674103
0.325408
0.385134
0.410894
0.383845
0.341835
0.305092
0.280555
0.26175
0.247178
0.241611
3
2.99997
2.99992
2.99975
2.99951
2.99852
2.99712
2.99155
2.98319
2.95304
2.89693
2.74047
2.3724
1.64492
0.736834
0.364208
0.419966
0.444153
0.41818
0.3794
0.345862
0.325224
0.310942
0.301875
0.301637
3
2.99997
2.99993
2.99977
2.99955
2.99865
2.99739
2.99232
2.98475
2.95722
2.90676
2.76321
2.42853
1.73634
0.792246
0.399426
0.448869
0.470351
0.450734
0.419699
0.391609
0.376168
0.368366
0.367255
0.377033
3
2.99997
2.99994
2.9998
2.9996
2.9988
2.99767
2.99313
2.98638
2.96173
2.91613
2.78908
2.47637
1.84629
0.873175
0.457201
0.472807
0.485623
0.479748
0.459114
0.440038
0.431941
0.432967
0.446065
0.480692
3
2.99998
2.99995
2.99983
2.99967
2.99901
2.99804
2.99452
2.98823
2.96901
2.92399
2.81774
2.51927
1.96101
0.98526
0.529495
0.489795
0.502608
0.507401
0.497058
0.489446
0.491358
0.50839
0.551201
0.652644
3
2.99995
2.9999
2.99967
2.99934
2.99804
2.99616
2.98899
2.97698
2.93819
2.84947
2.64518
2.10201
1.26555
0.527389
0.277625
0.328883
0.344236
0.31194
0.257265
0.204726
0.162692
0.121429
0.0757206
0.0418468
3
2.99995
2.9999
2.99967
2.99935
2.99806
2.99621
2.98915
2.97731
2.93904
2.8516
2.64988
2.113
1.27986
0.534822
0.277759
0.330377
0.346528
0.314495
0.260663
0.209488
0.168986
0.129965
0.0894931
0.0651774
3
2.99996
2.9999
2.99968
2.99937
2.99811
2.99632
2.98942
2.97796
2.94064
2.85609
2.65932
2.13847
1.31278
0.553363
0.281442
0.336279
0.354178
0.322976
0.271247
0.223047
0.186028
0.151937
0.11988
0.103765
3
2.99996
2.99991
2.99969
2.9994
2.99819
2.99647
2.98984
2.97895
2.94309
2.86285
2.67368
2.17762
1.36466
0.581808
0.288018
0.346062
0.366838
0.337096
0.288374
0.243984
0.211262
0.182716
0.157702
0.146094
3
2.99996
2.99991
2.99971
2.99942
2.99827
2.99664
2.99018
2.98015
2.94552
2.87316
2.69288
2.23338
1.43873
0.62217
0.301469
0.361638
0.385491
0.357159
0.311936
0.271303
0.242812
0.219198
0.199632
0.191136
3
2.99996
2.99992
2.99973
2.99946
2.99838
2.99685
2.99076
2.98158
2.94871
2.88524
2.71592
2.30032
1.53348
0.674103
0.325408
0.385134
0.410894
0.383845
0.341835
0.305092
0.280555
0.26175
0.247178
0.241611
3
2.99997
2.99992
2.99975
2.99951
2.99852
2.99712
2.99155
2.98319
2.95304
2.89693
2.74047
2.3724
1.64492
0.736834
0.364208
0.419966
0.444153
0.41818
0.3794
0.345862
0.325224
0.310942
0.301875
0.301637
3
2.99997
2.99993
2.99977
2.99955
2.99865
2.99739
2.99232
2.98475
2.95722
2.90676
2.76321
2.42853
1.73634
0.792246
0.399426
0.448869
0.470351
0.450734
0.419699
0.391609
0.376168
0.368366
0.367255
0.377033
3
2.99997
2.99994
2.9998
2.9996
2.9988
2.99767
2.99313
2.98638
2.96173
2.91613
2.78908
2.47637
1.84629
0.873175
0.457201
0.472807
0.485623
0.479748
0.459114
0.440038
0.431941
0.432967
0.446065
0.480692
3
2.99998
2.99995
2.99983
2.99967
2.99901
2.99804
2.99452
2.98823
2.96901
2.92399
2.81774
2.51927
1.96101
0.985259
0.529495
0.489795
0.502608
0.507401
0.497058
0.489446
0.491358
0.50839
0.551201
0.652644
3
2.99995
2.9999
2.99967
2.99934
2.99804
2.99616
2.98899
2.97698
2.93819
2.84947
2.64518
2.10201
1.26555
0.527389
0.277625
0.328883
0.344236
0.31194
0.257265
0.204726
0.162692
0.121429
0.0757206
0.0418468
3
2.99995
2.9999
2.99967
2.99935
2.99806
2.99621
2.98915
2.97731
2.93904
2.8516
2.64988
2.113
1.27986
0.534822
0.277759
0.330377
0.346528
0.314495
0.260663
0.209488
0.168986
0.129965
0.0894931
0.0651774
3
2.99996
2.9999
2.99968
2.99937
2.99811
2.99632
2.98942
2.97796
2.94064
2.85609
2.65932
2.13847
1.31278
0.553363
0.281442
0.336279
0.354179
0.322976
0.271247
0.223047
0.186028
0.151937
0.11988
0.103765
3
2.99996
2.99991
2.99969
2.9994
2.99819
2.99647
2.98984
2.97895
2.94309
2.86285
2.67368
2.17762
1.36466
0.581808
0.288018
0.346062
0.366838
0.337096
0.288374
0.243984
0.211262
0.182716
0.157702
0.146094
3
2.99996
2.99991
2.99971
2.99942
2.99827
2.99664
2.99018
2.98015
2.94552
2.87316
2.69288
2.23338
1.43873
0.62217
0.301469
0.361638
0.385491
0.357159
0.311936
0.271303
0.242812
0.219198
0.199632
0.191136
3
2.99996
2.99992
2.99973
2.99946
2.99838
2.99685
2.99076
2.98158
2.94871
2.88524
2.71592
2.30032
1.53348
0.674103
0.325408
0.385134
0.410894
0.383845
0.341835
0.305092
0.280555
0.26175
0.247178
0.241611
3
2.99997
2.99992
2.99975
2.99951
2.99852
2.99712
2.99155
2.98319
2.95304
2.89693
2.74047
2.3724
1.64492
0.736834
0.364208
0.419966
0.444153
0.41818
0.3794
0.345862
0.325224
0.310942
0.301875
0.301637
3
2.99997
2.99993
2.99977
2.99955
2.99865
2.99739
2.99232
2.98475
2.95722
2.90676
2.76321
2.42853
1.73634
0.792246
0.399426
0.448869
0.470351
0.450734
0.419699
0.391609
0.376168
0.368366
0.367255
0.377033
3
2.99997
2.99994
2.9998
2.9996
2.9988
2.99767
2.99313
2.98638
2.96173
2.91613
2.78908
2.47637
1.84629
0.873175
0.457201
0.472807
0.485623
0.479748
0.459114
0.440038
0.431941
0.432967
0.446065
0.480692
3
2.99998
2.99995
2.99983
2.99967
2.99901
2.99804
2.99452
2.98823
2.96901
2.92399
2.81774
2.51927
1.96101
0.985259
0.529495
0.489795
0.502608
0.507401
0.497058
0.489446
0.491358
0.50839
0.551201
0.652644
3
2.99995
2.9999
2.99967
2.99934
2.99804
2.99616
2.98899
2.97698
2.93819
2.84947
2.64518
2.10201
1.26555
0.527389
0.277625
0.328883
0.344236
0.31194
0.257265
0.204726
0.162692
0.121429
0.0757206
0.0418468
3
2.99995
2.9999
2.99967
2.99935
2.99806
2.99621
2.98915
2.97731
2.93904
2.8516
2.64988
2.113
1.27986
0.534822
0.277759
0.330377
0.346528
0.314495
0.260663
0.209488
0.168986
0.129965
0.0894931
0.0651774
3
2.99996
2.9999
2.99968
2.99937
2.99811
2.99632
2.98942
2.97796
2.94064
2.85609
2.65932
2.13847
1.31278
0.553363
0.281442
0.336279
0.354179
0.322976
0.271247
0.223047
0.186028
0.151937
0.11988
0.103765
3
2.99996
2.99991
2.99969
2.9994
2.99819
2.99647
2.98984
2.97895
2.94309
2.86285
2.67368
2.17762
1.36466
0.581808
0.288018
0.346062
0.366838
0.337096
0.288374
0.243984
0.211262
0.182716
0.157702
0.146094
3
2.99996
2.99991
2.99971
2.99942
2.99827
2.99664
2.99018
2.98015
2.94552
2.87316
2.69288
2.23338
1.43873
0.62217
0.301469
0.361638
0.385491
0.357159
0.311936
0.271303
0.242812
0.219198
0.199632
0.191136
3
2.99996
2.99992
2.99973
2.99946
2.99838
2.99685
2.99076
2.98158
2.94871
2.88524
2.71592
2.30032
1.53348
0.674103
0.325408
0.385134
0.410894
0.383845
0.341835
0.305092
0.280555
0.26175
0.247178
0.241611
3
2.99997
2.99992
2.99975
2.99951
2.99852
2.99712
2.99155
2.98319
2.95304
2.89693
2.74047
2.3724
1.64492
0.736835
0.364208
0.419966
0.444153
0.41818
0.3794
0.345862
0.325224
0.310942
0.301875
0.301637
3
2.99997
2.99993
2.99977
2.99955
2.99865
2.99739
2.99232
2.98475
2.95722
2.90676
2.76321
2.42853
1.73634
0.792246
0.399426
0.448869
0.470351
0.450734
0.419699
0.391609
0.376168
0.368366
0.367255
0.377033
3
2.99997
2.99994
2.9998
2.9996
2.9988
2.99767
2.99313
2.98638
2.96173
2.91613
2.78908
2.47637
1.84629
0.873175
0.457201
0.472807
0.485623
0.479748
0.459114
0.440038
0.431941
0.432967
0.446065
0.480692
3
2.99998
2.99995
2.99983
2.99967
2.99901
2.99804
2.99452
2.98823
2.96901
2.92399
2.81774
2.51927
1.96101
0.98526
0.529495
0.489795
0.502608
0.507401
0.497058
0.489446
0.491358
0.50839
0.551201
0.652644
3
2.99995
2.9999
2.99967
2.99934
2.99804
2.99616
2.98899
2.97698
2.93819
2.84947
2.64518
2.10201
1.26555
0.527389
0.277625
0.328883
0.344236
0.31194
0.257265
0.204726
0.162692
0.121429
0.0757206
0.0418468
3
2.99995
2.9999
2.99967
2.99935
2.99806
2.99621
2.98915
2.97731
2.93904
2.8516
2.64988
2.113
1.27986
0.534822
0.277759
0.330377
0.346528
0.314495
0.260663
0.209488
0.168986
0.129965
0.0894931
0.0651774
3
2.99996
2.9999
2.99968
2.99937
2.99811
2.99632
2.98942
2.97796
2.94064
2.85609
2.65932
2.13847
1.31278
0.553363
0.281442
0.336279
0.354179
0.322976
0.271247
0.223047
0.186028
0.151937
0.11988
0.103765
3
2.99996
2.99991
2.99969
2.9994
2.99819
2.99647
2.98984
2.97895
2.94309
2.86285
2.67368
2.17762
1.36466
0.581808
0.288018
0.346062
0.366838
0.337096
0.288374
0.243984
0.211262
0.182716
0.157702
0.146094
3
2.99996
2.99991
2.99971
2.99942
2.99827
2.99664
2.99018
2.98015
2.94552
2.87316
2.69288
2.23338
1.43873
0.62217
0.301469
0.361638
0.385491
0.357159
0.311936
0.271303
0.242812
0.219198
0.199632
0.191136
3
2.99996
2.99992
2.99973
2.99946
2.99838
2.99685
2.99076
2.98158
2.94871
2.88524
2.71592
2.30032
1.53348
0.674103
0.325408
0.385134
0.410894
0.383845
0.341835
0.305092
0.280555
0.26175
0.247178
0.241611
3
2.99997
2.99992
2.99975
2.99951
2.99852
2.99712
2.99155
2.98319
2.95304
2.89693
2.74047
2.3724
1.64492
0.736834
0.364208
0.419966
0.444153
0.41818
0.3794
0.345862
0.325224
0.310942
0.301875
0.301637
3
2.99997
2.99993
2.99977
2.99955
2.99865
2.99739
2.99232
2.98475
2.95722
2.90676
2.76321
2.42853
1.73634
0.792246
0.399426
0.448869
0.470351
0.450734
0.419699
0.391609
0.376168
0.368366
0.367255
0.377033
3
2.99997
2.99994
2.9998
2.9996
2.9988
2.99767
2.99313
2.98638
2.96173
2.91613
2.78908
2.47637
1.84629
0.873175
0.457201
0.472807
0.485623
0.479748
0.459114
0.440038
0.431941
0.432967
0.446065
0.480692
3
2.99998
2.99995
2.99983
2.99967
2.99901
2.99804
2.99452
2.98823
2.96901
2.92399
2.81774
2.51927
1.96101
0.985259
0.529495
0.489795
0.502608
0.507401
0.497058
0.489446
0.491358
0.50839
0.551201
0.652644
3
2.99995
2.9999
2.99967
2.99934
2.99804
2.99616
2.98899
2.97698
2.93819
2.84947
2.64518
2.10201
1.26555
0.527389
0.277624
0.328883
0.344236
0.31194
0.257264
0.204726
0.162692
0.121429
0.0757206
0.0418468
3
2.99995
2.9999
2.99967
2.99935
2.99806
2.99621
2.98915
2.97731
2.93904
2.8516
2.64988
2.113
1.27986
0.534822
0.277759
0.330376
0.346528
0.314495
0.260663
0.209488
0.168986
0.129965
0.0894931
0.0651774
3
2.99996
2.9999
2.99968
2.99937
2.99811
2.99632
2.98942
2.97796
2.94064
2.85609
2.65932
2.13847
1.31278
0.553363
0.281442
0.336279
0.354179
0.322976
0.271247
0.223047
0.186028
0.151937
0.11988
0.103765
3
2.99996
2.99991
2.99969
2.9994
2.99819
2.99647
2.98984
2.97895
2.94309
2.86285
2.67368
2.17762
1.36466
0.581808
0.288018
0.346062
0.366838
0.337096
0.288374
0.243984
0.211262
0.182716
0.157702
0.146094
3
2.99996
2.99991
2.99971
2.99942
2.99827
2.99664
2.99018
2.98015
2.94552
2.87316
2.69288
2.23338
1.43873
0.62217
0.301469
0.361638
0.385491
0.357159
0.311936
0.271303
0.242812
0.219198
0.199632
0.191136
3
2.99996
2.99992
2.99973
2.99946
2.99838
2.99685
2.99076
2.98158
2.94871
2.88524
2.71592
2.30032
1.53348
0.674103
0.325408
0.385134
0.410894
0.383845
0.341835
0.305092
0.280555
0.26175
0.247178
0.241611
3
2.99997
2.99992
2.99975
2.99951
2.99852
2.99712
2.99155
2.98319
2.95304
2.89693
2.74047
2.3724
1.64492
0.736834
0.364208
0.419966
0.444153
0.41818
0.3794
0.345862
0.325224
0.310942
0.301875
0.301637
3
2.99997
2.99993
2.99977
2.99955
2.99865
2.99739
2.99232
2.98475
2.95722
2.90676
2.76321
2.42853
1.73634
0.792246
0.399426
0.448869
0.470351
0.450734
0.419699
0.391609
0.376168
0.368366
0.367255
0.377033
3
2.99997
2.99994
2.9998
2.9996
2.9988
2.99767
2.99313
2.98638
2.96173
2.91613
2.78908
2.47637
1.84629
0.873175
0.457201
0.472807
0.485623
0.479748
0.459114
0.440038
0.431941
0.432967
0.446065
0.480692
3
2.99998
2.99995
2.99983
2.99967
2.99901
2.99804
2.99452
2.98823
2.96901
2.92399
2.81774
2.51927
1.96101
0.98526
0.529495
0.489795
0.502608
0.507401
0.497058
0.489446
0.491358
0.50839
0.551201
0.652644
3
2.99995
2.9999
2.99967
2.99934
2.99804
2.99616
2.98899
2.97698
2.93819
2.84947
2.64518
2.10201
1.26556
0.52739
0.277623
0.328882
0.344235
0.311939
0.257264
0.204725
0.162691
0.121429
0.0757204
0.0418467
3
2.99995
2.9999
2.99967
2.99935
2.99806
2.99621
2.98915
2.97731
2.93904
2.85161
2.64988
2.11301
1.27986
0.534824
0.277758
0.330376
0.346528
0.314495
0.260663
0.209488
0.168985
0.129965
0.089493
0.0651773
3
2.99996
2.9999
2.99968
2.99937
2.99811
2.99632
2.98942
2.97796
2.94064
2.85609
2.65932
2.13847
1.31279
0.553365
0.281441
0.336279
0.354179
0.322976
0.271247
0.223047
0.186028
0.151937
0.11988
0.103764
3
2.99996
2.99991
2.99969
2.9994
2.99819
2.99647
2.98984
2.97895
2.94309
2.86285
2.67368
2.17762
1.36466
0.581809
0.288017
0.346062
0.366838
0.337096
0.288374
0.243984
0.211262
0.182716
0.157701
0.146094
3
2.99996
2.99991
2.99971
2.99942
2.99827
2.99664
2.99018
2.98015
2.94552
2.87316
2.69288
2.23339
1.43874
0.622172
0.301468
0.361638
0.385491
0.35716
0.311936
0.271303
0.242812
0.219198
0.199632
0.191136
3
2.99996
2.99992
2.99973
2.99946
2.99838
2.99685
2.99076
2.98158
2.94871
2.88524
2.71592
2.30032
1.53349
0.674105
0.325407
0.385134
0.410894
0.383845
0.341836
0.305092
0.280555
0.26175
0.247178
0.241611
3
2.99997
2.99992
2.99975
2.99951
2.99852
2.99712
2.99156
2.98319
2.95304
2.89693
2.74047
2.37241
1.64493
0.736837
0.364208
0.419967
0.444154
0.418181
0.3794
0.345862
0.325224
0.310942
0.301874
0.301637
3
2.99997
2.99993
2.99977
2.99955
2.99865
2.99739
2.99232
2.98475
2.95722
2.90676
2.76321
2.42853
1.73634
0.792247
0.399426
0.448869
0.470351
0.450735
0.419699
0.391609
0.376168
0.368366
0.367255
0.377033
3
2.99997
2.99994
2.9998
2.9996
2.9988
2.99767
2.99313
2.98638
2.96173
2.91613
2.78908
2.47638
1.8463
0.873177
0.457202
0.472806
0.485623
0.479748
0.459114
0.440039
0.431942
0.432967
0.446065
0.480692
3
2.99998
2.99995
2.99983
2.99967
2.99901
2.99804
2.99452
2.98823
2.96901
2.92399
2.81774
2.51927
1.96101
0.985262
0.529496
0.489794
0.502607
0.507401
0.497058
0.489446
0.491358
0.50839
0.551201
0.652644
3.00002
2.99997
2.99991
2.99968
2.99936
2.99806
2.99618
2.98902
2.97701
2.93823
2.84951
2.64525
2.10208
1.26568
0.527523
0.277825
0.329067
0.344419
0.312144
0.257515
0.205046
0.163101
0.121986
0.0766253
0.0434871
3.00002
2.99997
2.99992
2.99969
2.99937
2.99808
2.99623
2.98917
2.97733
2.93908
2.85164
2.64995
2.11308
1.27999
0.534955
0.277961
0.330561
0.34671
0.314697
0.260909
0.209799
0.169376
0.130479
0.0902499
0.0662267
3.00002
2.99997
2.99992
2.9997
2.99939
2.99813
2.99634
2.98944
2.97799
2.94067
2.85613
2.65939
2.13854
1.31292
0.553492
0.281641
0.33646
0.354357
0.323173
0.271483
0.223337
0.186379
0.152372
0.120438
0.104416
3.00002
2.99997
2.99992
2.99971
2.99941
2.99821
2.99649
2.98987
2.97897
2.94312
2.86288
2.67375
2.17769
1.36479
0.581932
0.288217
0.34624
0.367012
0.337286
0.288596
0.244248
0.211569
0.183074
0.158119
0.146549
3.00002
2.99998
2.99993
2.99972
2.99944
2.99829
2.99666
2.99021
2.98017
2.94556
2.87317
2.69294
2.23342
1.43884
0.622267
0.301642
0.361797
0.385647
0.357331
0.312134
0.271535
0.243075
0.219492
0.199956
0.191478
3.00002
2.99998
2.99993
2.99974
2.99948
2.9984
2.99687
2.99078
2.9816
2.94874
2.88527
2.71597
2.30037
1.5336
0.674199
0.325574
0.385282
0.411036
0.383999
0.342012
0.305293
0.280777
0.26199
0.247435
0.241876
3.00002
2.99998
2.99994
2.99977
2.99952
2.99854
2.99714
2.99158
2.98321
2.95307
2.89696
2.74053
2.37246
1.64504
0.736932
0.364368
0.420108
0.444286
0.418321
0.379556
0.346036
0.32541
0.311139
0.302079
0.301843
3.00002
2.99999
2.99995
2.99979
2.99957
2.99867
2.99741
2.99235
2.98477
2.95724
2.90679
2.76326
2.42857
1.73643
0.792324
0.399565
0.448991
0.47047
0.450861
0.419837
0.391758
0.376324
0.368527
0.367417
0.377192
3.00002
2.99999
2.99996
2.99982
2.99962
2.99882
2.99769
2.99315
2.9864
2.96177
2.91615
2.78914
2.4764
1.84639
0.873255
0.457332
0.472917
0.485731
0.479861
0.459235
0.440167
0.432073
0.433099
0.446193
0.480809
3.00002
3
2.99997
2.99985
2.99969
2.99903
2.99806
2.99455
2.98825
2.96904
2.92401
2.81778
2.5193
1.96109
0.985339
0.529614
0.489899
0.50271
0.507503
0.497165
0.489556
0.491468
0.508496
0.551298
0.652723
3.00002
3.00001
2.99996
2.9999
2.99965
2.99928
2.99786
2.9957
2.98793
2.97396
2.93141
2.8304
2.60573
2.02435
1.16358
0.619149
0.513404
0.526023
0.537331
0.536084
0.537952
0.552489
0.591592
0.67647
0.856141
3.00002
3.00001
2.99997
2.99991
2.99969
2.99938
2.99813
2.99632
2.98944
2.97794
2.94074
2.8562
2.6605
2.14355
1.33051
0.710678
0.536423
0.550897
0.568635
0.57616
0.586834
0.614103
0.67109
0.776376
0.966521
3.00002
3.00001
2.99998
2.99993
2.99974
2.99947
2.99837
2.99683
2.99064
2.98134
2.94825
2.8828
2.7128
2.28951
1.531
0.819424
0.572618
0.585226
0.603676
0.617292
0.634415
0.669809
0.735203
0.83991
1.00365
3.00002
3.00001
2.99999
2.99995
2.99979
2.99956
2.99866
2.99738
2.99229
2.9847
2.95709
2.90731
2.76331
2.44182
1.76093
0.941633
0.62929
0.633066
0.647425
0.663921
0.683782
0.721679
0.785736
0.879747
1.01672
3.00002
3.00002
2.99999
2.99996
2.99984
2.99965
2.99893
2.99789
2.99385
2.98762
2.96576
2.92402
2.81002
2.52962
1.94928
1.0624
0.694621
0.673535
0.687581
0.705357
0.727889
0.765366
0.827948
0.91097
1.02567
3.00002
3.00002
3.00001
2.99996
2.9999
2.99967
2.99933
2.998
2.99598
2.98887
2.97571
2.93702
2.8431
2.63741
2.08851
1.27694
0.799168
0.709043
0.721446
0.740245
0.766489
0.802686
0.859195
0.935992
1.0339
3.00002
3.00002
3.00001
2.99997
2.99993
2.99973
2.99945
2.99833
2.99674
2.99047
2.98081
2.94744
2.87859
2.70705
2.27282
1.52162
0.919876
0.74469
0.750272
0.770044
0.801231
0.837726
0.887966
0.955669
1.04129
3.00002
3.00002
3.00001
2.99999
2.99995
2.9998
2.99958
2.99872
2.99748
2.99265
2.98526
2.95908
2.91086
2.77328
2.46734
1.80426
1.0755
0.805552
0.791175
0.80503
0.832957
0.870048
0.916417
0.97619
1.05036
3.00002
3.00002
3.00001
3
2.99996
2.99989
2.99962
2.99923
2.99773
2.99547
2.98726
2.97317
2.929
2.82842
2.60273
2.0462
1.2546
0.879833
0.832256
0.843514
0.866886
0.900856
0.94181
0.994141
1.05907
3.00003
3.00002
3.00002
3.00001
2.99997
2.99992
2.99972
2.99943
2.99829
2.99662
2.99043
2.97989
2.94656
2.87094
2.69553
2.24083
1.49019
0.993171
0.871391
0.875063
0.896323
0.92977
0.968191
1.01347
1.06953
3.00003
3.00003
3.00002
3.00001
3
2.99994
2.99985
2.99951
2.99901
2.99717
2.99412
2.98424
2.96356
2.90945
2.76878
2.48434
1.81149
1.17051
0.93343
0.91396
0.926323
0.954464
0.99166
1.03351
1.08171
3.00003
3.00003
3.00002
3.00002
3
2.99996
2.9999
2.99964
2.99927
2.99783
2.99573
2.98787
2.97483
2.93308
2.83977
2.62921
2.1028
1.35939
1.01114
0.953981
0.961081
0.982687
1.0159
1.05435
1.09823
3.00003
3.00003
3.00003
3.00002
3.00001
2.99999
2.99992
2.99981
2.9994
2.99878
2.99659
2.99276
2.9809
2.95445
2.88884
2.71402
2.37089
1.61532
1.14418
1.00039
0.994428
1.0074
1.03568
1.07308
1.11323
3.00003
3.00003
3.00003
3.00002
3.00001
3
2.99995
2.99987
2.99956
2.99912
2.99739
2.99489
2.98535
2.97021
2.92091
2.81848
2.56633
2.02925
1.33171
1.07307
1.03675
1.04127
1.06162
1.09406
1.13086
3.00003
3.00003
3.00003
3.00002
3.00002
3.00001
2.99998
2.9999
2.99977
2.99928
2.99856
2.99584
2.99161
2.97716
2.94968
2.87388
2.68864
2.30259
1.56561
1.1737
1.07441
1.07114
1.08518
1.11206
1.14789
3.00003
3.00003
3.00003
3.00003
3.00002
3.00001
3
2.99994
2.99985
2.99951
2.99903
2.99715
2.99441
2.98431
2.96736
2.91501
2.79666
2.53987
1.94515
1.35475
1.13592
1.10842
1.11419
1.1352
1.16567
3.00003
3.00003
3.00003
3.00003
3.00002
3.00002
3
2.99998
2.99988
2.99974
2.99921
2.99843
2.99551
2.99095
2.97527
2.94636
2.86616
2.67922
2.26266
1.56833
1.22552
1.14615
1.14328
1.15716
1.18234
3.00003
3.00003
3.00003
3.00003
3.00003
3.00002
3.00001
3
2.99993
2.99984
2.99949
2.99898
2.99703
2.99415
2.98367
2.96605
2.91196
2.79044
2.52574
1.93027
1.39638
1.2035
1.17739
1.18307
1.20294
3.00003
3.00003
3.00003
3.00003
3.00003
3.00002
3.00002
3
2.99998
2.99988
2.99974
2.9992
2.9984
2.99546
2.99077
2.97505
2.94601
2.86305
2.68742
2.24885
1.62035
1.30011
1.22037
1.21389
1.22343
3.00003
3.00003
3.00003
3.00003
3.00003
3.00003
3.00002
3.00001
2.99999
2.99995
2.9998
2.99959
2.99878
2.99757
2.99316
2.98616
2.96291
2.91864
2.80092
2.5349
1.9716
1.45518
1.27429
1.24683
1.24987
3.00003
3.00003
3.00003
3.00003
3.00003
3.00003
3.00002
3.00002
3
2.99998
2.99988
2.99975
2.99923
2.99847
2.99562
2.99133
2.97615
2.9499
2.87256
2.70906
2.31688
1.69449
1.37096
1.28666
1.27738
3.00003
3.00003
3.00003
3.00003
3.00003
3.00003
3.00003
3.00002
3.00002
2.99999
2.99996
2.99982
2.99962
2.99889
2.99779
2.99382
2.98749
2.96667
2.92756
2.82125
2.592
2.07327
1.54411
1.34111
1.3109
3.00003
3.00003
3.00003
3.00003
3.00003
3.00003
3.00003
3.00003
3.00002
3.00001
2.99998
2.9999
2.99978
2.99931
2.99864
2.99609
2.99232
2.97897
2.95546
2.89028
2.73914
2.41636
1.78873
1.43924
1.34409
3.00003
3.00003
3.00003
3.00003
3.00003
3.00003
3.00003
3.00003
3.00002
3.00001
3
2.99995
2.99988
2.9996
2.9992
2.99767
2.99545
2.98734
2.97431
2.93319
2.85156
2.64897
2.21297
1.64174
1.41235
3.00003
3.00003
3.00003
3.00003
3.00003
3.00003
3.00003
3.00003
3.00003
3.00002
3.00001
2.99998
2.99994
2.99977
2.99953
2.9986
2.99726
2.99225
2.98459
2.95858
2.90965
2.78359
2.48314
1.92074
1.53494
3.00003
3.00003
3.00003
3.00003
3.00003
3.00003
3.00003
3.00003
3.00003
3.00003
3.00002
3.00001
2.99997
2.9999
2.99968
2.99934
2.99811
2.99624
2.98969
2.97874
2.94498
2.873
2.70874
2.3144
1.74763
3.00003
3.00003
3.00003
3.00003
3.00003
3.00003
3.00003
3.00003
3.00003
3.00003
3.00002
3.00001
3
2.99994
2.99986
2.99955
2.9991
2.99745
2.9949
2.9863
2.97102
2.92718
2.82791
2.61813
2.12913
3.00003
3.00003
3.00003
3.00003
3.00003
3.00003
3.00003
3.00003
3.00003
3.00003
3.00003
3.00002
3.00001
2.99999
2.99991
2.99979
2.99937
2.99874
2.99647
2.9929
2.98104
2.95956
2.89999
2.77051
2.46486
3.00003
3.00003
3.00003
3.00003
3.00003
3.00003
3.00003
3.00003
3.00003
3.00003
3.00003
3.00002
3.00002
3
2.99996
2.99989
2.99965
2.99929
2.99797
2.99603
2.98898
2.97784
2.94223
2.87295
2.70023
3.00003
3.00003
3.00003
3.00003
3.00003
3.00003
3.00003
3.00003
3.00003
3.00003
3.00003
3.00003
3.00002
3.00001
3
2.99994
2.99985
2.99954
2.99907
2.9974
2.99481
2.98597
2.971
2.92671
2.83267
3.00003
3.00003
3.00003
3.00003
3.00003
3.00003
3.00003
3.00003
3.00003
3.00003
3.00003
3.00003
3.00003
3.00002
3.00001
2.99999
2.99991
2.9998
2.99939
2.99876
2.99657
2.99305
2.98165
2.96099
2.90259
3.00003
3.00003
3.00003
3.00003
3.00003
3.00003
3.00003
3.00003
3.00003
3.00003
3.00003
3.00003
3.00003
3.00002
3.00002
3
2.99997
2.99987
2.99972
2.99919
2.99837
2.99552
2.99092
2.97618
2.94935
3.00003
3.00003
3.00003
3.00003
3.00003
3.00003
3.00003
3.00003
3.00003
3.00003
3.00003
3.00003
3.00003
3.00003
3.00002
3.00001
3
2.99994
2.99985
2.99954
2.99908
2.99741
2.99489
2.98616
2.97184
3.00003
3.00003
3.00003
3.00003
3.00003
3.00003
3.00003
3.00003
3.00003
3.00003
3.00003
3.00003
3.00003
3.00003
3.00002
3.00002
3.00001
2.99998
2.9999
2.99977
2.99932
2.99863
2.99617
2.9923
2.97939
3.00003
3.00003
3.00003
3.00003
3.00003
3.00003
3.00003
3.00003
3.00003
3.00003
3.00003
3.00003
3.00003
3.00003
3.00003
3.00002
3.00001
2.99999
2.99995
2.9998
2.99957
2.99873
2.99747
2.99287
2.98536
3.00003
3.00003
3.00003
3.00003
3.00003
3.00003
3.00003
3.00003
3.00003
3.00003
3.00003
3.00003
3.00003
3.00003
3.00003
3.00002
3.00001
3
2.99995
2.99986
2.99956
2.99909
2.99735
2.99462
2.98511
3.00003
3.00003
3.00003
3.00003
3.00003
3.00003
3.00003
3.00003
3.00003
3.00003
3.00003
3.00003
3.00003
3.00003
3.00003
3.00002
3.00002
3
2.99997
2.99984
2.99967
2.99897
2.99794
2.99415
2.98746
3.00003
3.00003
3.00003
3.00003
3.00003
3.00003
3.00003
3.00003
3.00003
3.00003
3.00003
3.00003
3.00003
3.00003
3.00003
3.00002
3.00002
3
2.99997
2.99985
2.99968
2.99901
2.99801
2.99437
2.98777
3.00003
3.00003
3.00003
3.00003
3.00003
3.00003
3.00003
3.00003
3.00003
3.00003
3.00003
3.00003
3.00003
3.00003
3.00003
3.00002
3.00002
3
2.99995
2.99988
2.99959
2.99917
2.9975
2.99499
2.9857
3.00003
3.00003
3.00003
3.00003
3.00003
3.00003
3.00003
3.00003
3.00003
3.00003
3.00003
3.00003
3.00003
3.00003
3.00003
3.00002
3.00002
3
2.99995
2.99988
2.99958
2.99915
2.99742
2.99495
2.98523
3
2.99999
2.99994
2.99988
2.99963
2.99926
2.99784
2.99568
2.9879
2.97393
2.93138
2.83037
2.60567
2.0243
1.16349
0.619042
0.513302
0.525925
0.537234
0.535988
0.537857
0.552396
0.591506
0.676399
0.856095
3
2.99999
2.99995
2.9999
2.99967
2.99936
2.99811
2.9963
2.98941
2.97791
2.94071
2.85617
2.66045
2.1435
1.3304
0.710581
0.536322
0.5508
0.568542
0.576071
0.586749
0.614024
0.671019
0.776319
0.966483
3
2.99999
2.99996
2.99991
2.99972
2.99945
2.99835
2.99681
2.99062
2.98131
2.94822
2.88279
2.71275
2.28949
1.53091
0.819347
0.572521
0.585132
0.603589
0.61721
0.634338
0.669738
0.735142
0.83986
1.00362
3
3
2.99997
2.99993
2.99977
2.99954
2.99864
2.99736
2.99227
2.98468
2.95706
2.90728
2.76327
2.44178
1.76086
0.941567
0.629201
0.632982
0.647347
0.663847
0.683713
0.721615