/*--------------------------------*- C++ -*----------------------------------*\
| =========                 |                                                 |
| \\      /  F ield         | OpenFOAM: The Open Source CFD Toolbox           |
|  \\    /   O peration     | Version:  4.1                                   |
|   \\  /    A nd           | Web:      www.OpenFOAM.org                      |
|    \\/     M anipulation  |                                                 |
\*---------------------------------------------------------------------------*/
FoamFile
{
    version     2.0;
    format      ascii;
    class       volScalarField;
    location    "0.9";
    object      Ma;
}
// * * * * * * * * * * * * * * * * * * * * * * * * * * * * * * * * * * * * * //

dimensions      [0 0 0 0 0 0 0];

internalField   nonuniform List<scalar> 
18000
(
5.12353e-12
5.06739e-12
4.99947e-12
4.94422e-12
4.88936e-12
4.83518e-12
4.78151e-12
4.72901e-12
4.67722e-12
4.62741e-12
6.37185e-12
6.15449e-12
5.93349e-12
5.731e-12
5.53721e-12
5.35112e-12
5.17238e-12
5.0011e-12
4.83599e-12
4.68169e-12
8.01486e-12
7.54298e-12
7.09143e-12
6.67893e-12
6.29453e-12
5.9368e-12
5.60422e-12
5.29305e-12
5.0032e-12
4.73717e-12
1.02039e-11
9.33153e-12
8.53726e-12
7.82364e-12
7.18202e-12
6.60333e-12
6.08016e-12
5.60666e-12
5.1771e-12
4.79359e-12
1.3162e-11
1.16612e-11
1.03547e-11
9.21592e-12
8.2266e-12
7.36292e-12
6.60686e-12
5.94348e-12
5.35879e-12
4.85123e-12
1.72173e-11
1.47316e-11
1.26618e-11
1.09202e-11
9.46113e-12
8.23142e-12
7.19062e-12
6.30549e-12
5.54835e-12
4.9098e-12
2.28531e-11
1.88361e-11
1.56171e-11
1.30214e-11
1.09282e-11
9.22834e-12
7.8384e-12
6.69455e-12
5.7468e-12
4.96928e-12
3.09863e-11
2.46188e-11
1.97331e-11
1.59776e-11
1.30844e-11
1.08364e-11
9.0753e-12
7.68566e-12
6.58034e-12
5.73555e-12
5.84375e-09
5.98904e-09
5.65565e-09
5.3496e-09
5.07168e-09
4.81886e-09
4.58829e-09
4.37745e-09
4.18476e-09
4.12092e-09
6.52108e-07
6.87539e-08
5.88176e-08
5.15672e-08
4.54386e-08
4.02372e-08
3.58076e-08
3.20252e-08
2.8678e-08
1.18664e-07
5.53824e-12
5.47375e-12
5.40165e-12
5.33867e-12
5.27693e-12
5.21633e-12
5.1555e-12
5.09691e-12
5.0389e-12
4.98245e-12
6.95013e-12
6.70076e-12
6.45733e-12
6.22702e-12
6.00727e-12
5.79645e-12
5.59555e-12
5.40271e-12
5.21823e-12
5.04366e-12
8.82472e-12
8.27879e-12
7.77563e-12
7.30262e-12
6.865e-12
6.459e-12
6.08324e-12
5.7331e-12
5.40733e-12
5.10733e-12
1.13604e-11
1.03437e-11
9.4425e-12
8.61783e-12
7.88085e-12
7.21994e-12
6.62624e-12
6.0915e-12
5.60717e-12
5.17148e-12
1.48481e-11
1.30791e-11
1.15688e-11
1.02377e-11
9.09001e-12
8.09642e-12
7.23241e-12
6.4788e-12
5.81812e-12
5.23857e-12
1.97325e-11
1.67528e-11
1.43117e-11
1.22466e-11
1.05357e-11
9.10817e-12
7.91095e-12
6.90019e-12
6.0417e-12
5.30793e-12
2.6694e-11
2.17735e-11
1.78903e-11
1.476e-11
1.22752e-11
1.02821e-11
8.67042e-12
7.35774e-12
6.27735e-12
5.37941e-12
3.68704e-11
2.87414e-11
2.26198e-11
1.79381e-11
1.43869e-11
1.16562e-11
9.53329e-12
7.86364e-12
6.53508e-12
5.4624e-12
2.54167e-10
5.90461e-10
4.89012e-10
4.06006e-10
3.40629e-10
2.884e-10
2.46232e-10
2.11856e-10
1.83627e-10
1.63349e-10
4.61993e-07
6.7026e-08
5.87534e-08
5.17113e-08
4.58365e-08
4.08933e-08
3.66992e-08
3.31138e-08
3.00409e-08
2.911e-08
5.75062e-13
5.54455e-13
4.48597e-13
4.33911e-13
4.20077e-13
4.076e-13
3.96132e-13
3.86179e-13
3.77095e-13
3.67191e-13
7.9693e-13
7.27761e-13
6.59936e-13
6.08587e-13
5.6187e-13
5.20134e-13
4.82352e-13
4.49219e-13
4.21289e-13
3.8086e-13
1.02774e-12
9.0785e-13
8.74135e-13
7.85342e-13
7.06027e-13
6.36392e-13
5.76165e-13
5.24408e-13
4.77809e-13
3.99571e-13
1.40686e-12
1.23086e-12
1.19811e-12
1.04558e-12
9.1352e-13
8.01745e-13
7.07211e-13
6.27329e-13
5.57185e-13
4.25753e-13
2.00916e-12
1.75269e-12
1.66331e-12
1.40607e-12
1.19122e-12
1.01602e-12
8.72167e-13
7.53733e-13
6.52227e-13
4.59138e-13
2.97409e-12
2.57675e-12
2.33056e-12
1.89922e-12
1.55708e-12
1.28781e-12
1.07464e-12
9.04583e-13
7.62088e-13
4.98547e-13
4.53969e-12
3.86352e-12
3.29325e-12
2.5762e-12
2.03607e-12
1.62936e-12
1.31889e-12
1.07976e-12
8.86554e-13
5.4423e-13
7.23229e-12
5.8892e-12
4.69487e-12
3.50957e-12
2.66486e-12
2.05725e-12
1.61244e-12
1.28192e-12
1.02528e-12
5.94969e-13
4.00352e-10
2.72684e-11
2.19659e-11
1.60026e-11
1.19117e-11
9.03431e-12
6.97053e-12
5.46561e-12
4.34979e-12
3.45224e-12
3.94972e-07
6.79487e-09
5.04696e-09
3.89119e-09
3.04636e-09
2.41752e-09
1.94215e-09
1.57777e-09
1.29556e-09
1.10886e-09
3.8262e-13
3.59887e-13
1.72163e-13
1.51729e-13
1.31433e-13
1.12343e-13
9.45035e-14
7.81016e-14
6.36299e-14
3.82175e-14
5.31049e-13
4.59561e-13
3.85971e-13
3.36382e-13
2.8974e-13
2.48118e-13
2.11405e-13
1.79622e-13
1.5302e-13
7.99629e-14
5.95754e-13
4.90178e-13
5.2363e-13
4.56528e-13
3.96162e-13
3.44844e-13
3.02249e-13
2.68234e-13
2.3914e-13
1.19742e-13
7.31126e-13
6.37131e-13
7.60903e-13
6.59307e-13
5.70015e-13
4.96284e-13
4.35572e-13
3.86283e-13
3.43219e-13
1.71058e-13
9.62834e-13
9.47634e-13
1.10856e-12
9.44189e-13
8.04153e-13
6.90236e-13
5.97543e-13
5.22373e-13
4.56355e-13
2.24291e-13
1.35304e-12
1.49128e-12
1.61232e-12
1.33807e-12
1.1122e-12
9.33773e-13
7.9105e-13
6.77574e-13
5.79376e-13
2.80768e-13
2.00123e-12
2.37105e-12
2.34282e-12
1.87977e-12
1.51606e-12
1.2379e-12
1.02163e-12
8.53136e-13
7.12346e-13
3.40457e-13
3.2748e-12
3.77533e-12
3.40567e-12
2.62649e-12
2.04468e-12
1.61706e-12
1.2959e-12
1.05214e-12
8.56389e-13
4.03307e-13
4.52687e-10
7.847e-12
4.79932e-12
3.56251e-12
2.68599e-12
2.06249e-12
1.60829e-12
1.27335e-12
1.01204e-12
4.72593e-13
3.91924e-07
2.15277e-09
2.28787e-10
1.53058e-10
1.05182e-10
7.38574e-11
5.28775e-11
3.85391e-11
2.8572e-11
2.1702e-11
3.82251e-13
3.59063e-13
1.71845e-13
1.51243e-13
1.30841e-13
1.11678e-13
9.41185e-14
7.76396e-14
6.27648e-14
3.69133e-14
5.30749e-13
4.59222e-13
3.8589e-13
3.36424e-13
2.89803e-13
2.47837e-13
2.11095e-13
1.79641e-13
1.52781e-13
7.91981e-14
5.95261e-13
4.89765e-13
5.23948e-13
4.56807e-13
3.96129e-13
3.44939e-13
3.02235e-13
2.67959e-13
2.38716e-13
1.19154e-13
7.30077e-13
6.36746e-13
7.61322e-13
6.59824e-13
5.70426e-13
4.96561e-13
4.35885e-13
3.86488e-13
3.43219e-13
1.70159e-13
9.6018e-13
9.47214e-13
1.10997e-12
9.45323e-13
8.05149e-13
6.91359e-13
5.98077e-13
5.22317e-13
4.56613e-13
2.24181e-13
1.34607e-12
1.49113e-12
1.61415e-12
1.34043e-12
1.11417e-12
9.35557e-13
7.92675e-13
6.78565e-13
5.80254e-13
2.80902e-13
1.98435e-12
2.37168e-12
2.34717e-12
1.88393e-12
1.52005e-12
1.24138e-12
1.02438e-12
8.55214e-13
7.14427e-13
3.41394e-13
3.25228e-12
3.77767e-12
3.41384e-12
2.6344e-12
2.05185e-12
1.62321e-12
1.3009e-12
1.05627e-12
8.59651e-13
4.05292e-13
4.81583e-10
8.86591e-12
4.99042e-12
3.67173e-12
2.74956e-12
2.09927e-12
1.62909e-12
1.28461e-12
1.01768e-12
4.72411e-13
4.16227e-07
2.35536e-09
2.0515e-11
7.10528e-12
4.73142e-12
3.30071e-12
2.37834e-12
1.76294e-12
1.32674e-12
6.69726e-13
3.82282e-13
3.5872e-13
1.72336e-13
1.51776e-13
1.31173e-13
1.11898e-13
9.41228e-14
7.7954e-14
6.31691e-14
3.68092e-14
5.31633e-13
4.59673e-13
3.87095e-13
3.37449e-13
2.90755e-13
2.48541e-13
2.11484e-13
1.79871e-13
1.53393e-13
7.97455e-14
5.97128e-13
4.91548e-13
5.26302e-13
4.58676e-13
3.97887e-13
3.46161e-13
3.03127e-13
2.68592e-13
2.39229e-13
1.19725e-13
7.33922e-13
6.40779e-13
7.65181e-13
6.62917e-13
5.7298e-13
4.98469e-13
4.37187e-13
3.87641e-13
3.43933e-13
1.70623e-13
9.67554e-13
9.54712e-13
1.11615e-12
9.5033e-13
8.09087e-13
6.94698e-13
6.00737e-13
5.24434e-13
4.58063e-13
2.25101e-13
1.3597e-12
1.50445e-12
1.62488e-12
1.34857e-12
1.12051e-12
9.40827e-13
7.96901e-13
6.81552e-13
5.82748e-13
2.82577e-13
2.00964e-12
2.39463e-12
2.36542e-12
1.89781e-12
1.53068e-12
1.24995e-12
1.0311e-12
8.60346e-13
7.18311e-13
3.44085e-13
3.30713e-12
3.81896e-12
3.44536e-12
2.6577e-12
2.06927e-12
1.63671e-12
1.31162e-12
1.06437e-12
8.65694e-13
4.09267e-13
5.12841e-10
9.23104e-12
5.05252e-12
3.71364e-12
2.77941e-12
2.12129e-12
1.64546e-12
1.29673e-12
1.02693e-12
4.78614e-13
4.53559e-07
2.53624e-09
2.01209e-11
5.185e-12
3.69989e-12
2.7258e-12
2.04805e-12
1.56751e-12
1.20787e-12
5.59629e-13
3.82227e-13
3.58459e-13
1.72881e-13
1.5242e-13
1.31763e-13
1.12498e-13
9.46206e-14
7.82629e-14
6.46944e-14
5.41756e-14
5.32604e-13
4.60278e-13
3.88745e-13
3.38715e-13
2.91866e-13
2.49623e-13
2.1244e-13
1.80555e-13
1.53864e-13
8.52633e-14
5.99365e-13
4.93584e-13
5.2898e-13
4.61045e-13
3.99763e-13
3.47745e-13
3.04194e-13
2.69488e-13
2.40236e-13
1.22745e-13
7.38432e-13
6.4538e-13
7.69435e-13
6.66651e-13
5.76141e-13
5.01051e-13
4.39019e-13
3.88834e-13
3.45517e-13
1.73237e-13
9.7617e-13
9.63288e-13
1.12316e-12
9.56048e-13
8.13697e-13
6.98711e-13
6.04127e-13
5.27057e-13
4.6023e-13
2.27961e-13
1.37601e-12
1.51921e-12
1.63698e-12
1.35832e-12
1.12799e-12
9.47081e-13
8.02355e-13
6.85897e-13
5.85965e-13
2.86112e-13
2.03946e-12
2.42044e-12
2.38556e-12
1.91377e-12
1.54306e-12
1.26006e-12
1.03951e-12
8.67083e-13
7.2355e-13
3.48834e-13
3.34003e-12
3.86425e-12
3.48045e-12
2.68417e-12
2.08942e-12
1.65236e-12
1.32468e-12
1.07513e-12
8.73818e-13
4.15531e-13
5.13494e-10
8.98094e-12
5.11161e-12
3.75829e-12
2.81249e-12
2.1465e-12
1.66569e-12
1.31195e-12
1.03893e-12
4.87617e-13
4.73767e-07
2.47768e-09
1.86153e-11
5.23009e-12
3.74352e-12
2.75977e-12
2.07526e-12
1.58817e-12
1.22404e-12
5.70919e-13
3.82184e-13
3.57284e-13
1.73026e-13
1.52651e-13
1.32808e-13
1.16023e-13
1.07096e-13
1.9389e-13
6.8518e-13
1.8546e-12
5.32835e-13
4.59587e-13
3.8919e-13
3.39418e-13
2.93063e-13
2.52026e-13
2.17967e-13
2.17113e-13
4.35565e-13
1.22099e-12
6.00116e-13
4.93267e-13
5.29651e-13
4.61853e-13
4.01114e-13
3.50338e-13
3.09669e-13
2.86144e-13
3.63547e-13
8.1561e-13
7.40222e-13
6.4531e-13
7.70217e-13
6.67671e-13
5.7756e-13
5.03603e-13
4.44736e-13
4.00303e-13
4.0299e-13
5.90038e-13
9.79165e-13
9.63157e-13
1.1238e-12
9.57149e-13
8.15404e-13
7.01128e-13
6.09641e-13
5.37593e-13
4.95059e-13
4.7738e-13
1.37989e-12
1.51866e-12
1.63739e-12
1.35978e-12
1.13037e-12
9.50696e-13
8.09056e-13
6.97858e-13
6.1268e-13
4.40402e-13
2.04362e-12
2.41927e-12
2.38608e-12
1.91608e-12
1.54665e-12
1.26541e-12
1.0478e-12
8.80299e-13
7.47649e-13
4.51456e-13
3.21062e-12
3.86157e-12
3.4818e-12
2.68871e-12
2.09557e-12
1.65969e-12
1.33441e-12
1.09093e-12
8.98787e-13
4.90469e-13
3.37067e-10
6.98348e-12
5.10309e-12
3.76647e-12
2.82239e-12
2.15764e-12
1.67971e-12
1.33183e-12
1.06494e-12
5.47416e-13
3.66643e-07
1.22025e-09
1.04939e-11
5.20092e-12
3.75626e-12
2.77513e-12
2.09395e-12
1.61239e-12
1.25294e-12
6.23172e-13
4.12139e-13
4.50973e-13
2.51733e-13
1.55676e-13
2.52791e-13
7.06268e-13
1.63077e-12
6.55439e-12
2.492e-11
5.40919e-11
5.91893e-13
6.24872e-13
4.93444e-13
3.66711e-13
3.04765e-13
6.07641e-13
1.24536e-12
4.10245e-12
1.48669e-11
3.58639e-11
7.16661e-13
7.8351e-13
6.98182e-13
5.36592e-13
3.94757e-13
5.11758e-13
1.08013e-12
2.80189e-12
9.55824e-12
2.38258e-11
9.34106e-13
1.06158e-12
9.99849e-13
7.8939e-13
5.90753e-13
5.38073e-13
9.97778e-13
2.08405e-12
6.60277e-12
1.6331e-11
1.28002e-12
1.49317e-12
1.41335e-12
1.12471e-12
8.61264e-13
6.85977e-13
9.056e-13
1.75557e-12
4.85122e-12
1.15445e-11
1.82199e-12
2.15211e-12
1.98588e-12
1.56748e-12
1.20574e-12
9.30366e-13
9.28669e-13
1.63878e-12
3.75415e-12
8.39618e-12
2.66398e-12
3.16151e-12
2.78965e-12
2.15701e-12
1.64547e-12
1.25079e-12
1.06577e-12
1.48505e-12
3.03775e-12
6.26701e-12
3.88636e-12
4.70837e-12
3.93167e-12
2.9501e-12
2.20623e-12
1.65151e-12
1.30371e-12
1.43297e-12
2.55578e-12
4.79189e-12
2.33163e-10
6.58643e-12
5.56867e-12
4.03192e-12
2.92919e-12
2.14474e-12
1.62352e-12
1.49697e-12
2.22428e-12
3.7491e-12
1.06407e-07
2.8242e-09
1.26544e-11
5.39605e-12
3.84279e-12
2.74299e-12
2.01266e-12
1.66035e-12
2.02188e-12
3.00804e-12
2.50108e-12
2.34346e-12
1.49509e-12
1.72249e-13
2.74693e-12
9.22341e-12
3.03163e-11
1.31333e-10
3.60144e-10
4.68623e-10
3.52487e-12
3.39055e-12
2.50223e-12
1.12069e-12
1.37173e-12
6.5068e-12
2.11046e-11
7.99047e-11
2.2104e-10
2.98671e-10
4.791e-12
4.64086e-12
3.6598e-12
2.26251e-12
2.27104e-13
4.22186e-12
1.47524e-11
5.18923e-11
1.42215e-10
2.0529e-10
6.45451e-12
6.21072e-12
5.0453e-12
3.52792e-12
1.36593e-12
2.35237e-12
1.02538e-11
3.52993e-11
9.53525e-11
1.46281e-10
8.68946e-12
8.21558e-12
6.73005e-12
4.98968e-12
2.76034e-12
7.76183e-13
7.02979e-12
2.45527e-11
6.60953e-11
1.06777e-10
1.17477e-11
1.0822e-11
8.81514e-12
6.69422e-12
4.2472e-12
1.09681e-12
4.50991e-12
1.72333e-11
4.70535e-11
7.94684e-11
1.60192e-11
1.42875e-11
1.14453e-11
8.72207e-12
5.91302e-12
2.6269e-12
2.45991e-12
1.22643e-11
3.42265e-11
6.00999e-11
2.21535e-11
1.89844e-11
1.48155e-11
1.11763e-11
7.78996e-12
4.21959e-12
9.90968e-13
8.60696e-12
2.52783e-11
4.60849e-11
6.8854e-10
2.57588e-11
1.92197e-11
1.41991e-11
9.95058e-12
5.92525e-12
1.64084e-12
5.79573e-12
1.88603e-11
3.57395e-11
9.97277e-07
4.01214e-09
2.76125e-11
1.79892e-11
1.2459e-11
7.75743e-12
3.15874e-12
3.59489e-12
1.41189e-11
2.79672e-11
3.28571e-12
2.95553e-12
1.94227e-12
1.97758e-12
8.6012e-12
3.18069e-11
1.47529e-10
5.07888e-10
8.88732e-10
1.00671e-09
4.34594e-12
4.04991e-12
3.08059e-12
1.63099e-12
5.34439e-12
2.12506e-11
8.87894e-11
3.03257e-10
5.47537e-10
6.04318e-10
5.63092e-12
5.31371e-12
4.36263e-12
2.67999e-12
2.8755e-12
1.39506e-11
5.63645e-11
1.89657e-10
3.60108e-10
3.92746e-10
7.27115e-12
6.83832e-12
5.80551e-12
4.14421e-12
1.93708e-12
8.71344e-12
3.6912e-11
1.23372e-10
2.44829e-10
2.65173e-10
9.41499e-12
8.72789e-12
7.48238e-12
5.75639e-12
3.03721e-12
4.99054e-12
2.43486e-11
8.2432e-11
1.70441e-10
1.8384e-10
1.22888e-11
1.11251e-11
9.48459e-12
7.53894e-12
4.78738e-12
2.56806e-12
1.57968e-11
5.60084e-11
1.20852e-10
1.30171e-10
1.62322e-11
1.42373e-11
1.19362e-11
9.57125e-12
6.67678e-12
2.67926e-12
9.87183e-12
3.85325e-11
8.66897e-11
9.36961e-11
2.179e-11
1.83671e-11
1.50088e-11
1.19462e-11
8.69848e-12
4.46935e-12
5.58192e-12
2.65235e-11
6.27952e-11
6.83359e-11
3.20762e-10
2.50301e-11
1.89437e-11
1.479e-11
1.09281e-11
6.54015e-12
2.83691e-12
1.80168e-11
4.57774e-11
5.03017e-11
2.18791e-07
9.81563e-09
6.77802e-11
1.82372e-11
1.34223e-11
8.65662e-12
2.91027e-12
1.18019e-11
3.3439e-11
3.72334e-11
1.03656e-12
1.28694e-12
1.54127e-12
3.1876e-12
8.3308e-12
2.42798e-11
8.46635e-11
2.34051e-10
3.44643e-10
3.35001e-10
1.13667e-12
1.30371e-12
1.42826e-12
2.43387e-12
5.98477e-12
1.71248e-11
5.67613e-11
1.51886e-10
2.09594e-10
1.57024e-10
1.24245e-12
1.36359e-12
1.44366e-12
1.981e-12
4.31342e-12
1.2122e-11
3.88001e-11
1.01279e-10
1.33897e-10
6.78553e-11
1.35518e-12
1.45436e-12
1.53624e-12
1.81794e-12
3.19553e-12
8.59911e-12
2.70519e-11
6.91994e-11
8.87266e-11
2.92457e-11
1.47662e-12
1.56573e-12
1.6675e-12
1.8388e-12
2.53349e-12
6.11205e-12
1.9016e-11
4.83642e-11
6.02521e-11
1.50229e-11
1.61765e-12
1.69539e-12
1.81606e-12
1.94877e-12
2.24842e-12
4.44358e-12
1.3436e-11
3.44009e-11
4.16511e-11
1.18343e-11
1.78575e-12
1.84677e-12
1.97434e-12
2.09989e-12
2.2141e-12
3.35901e-12
9.5111e-12
2.46061e-11
2.91307e-11
1.13737e-11
2.09586e-12
2.02405e-12
2.14719e-12
2.2677e-12
2.30678e-12
2.77262e-12
6.80544e-12
1.77184e-11
2.05325e-11
1.09856e-11
7.96078e-10
1.46999e-11
2.33234e-12
2.44502e-12
2.45865e-12
2.54992e-12
4.96119e-12
1.28262e-11
1.45292e-11
1.04051e-11
3.70803e-07
1.19401e-08
4.63253e-11
2.82958e-12
2.63118e-12
2.54353e-12
3.7446e-12
9.3053e-12
1.025e-11
9.55611e-12
7.76079e-13
1.47896e-12
1.60365e-12
2.5146e-12
4.12931e-12
6.81967e-12
1.45899e-11
5.61847e-11
2.03896e-10
5.46363e-10
7.12375e-13
1.32844e-12
1.38698e-12
2.13971e-12
3.47304e-12
5.75002e-12
1.10176e-11
3.49424e-11
1.24209e-10
3.25185e-10
6.4963e-13
1.18709e-12
1.19442e-12
1.81191e-12
2.91311e-12
4.79879e-12
8.72461e-12
2.30785e-11
7.9365e-11
2.02825e-10
5.96797e-13
1.06578e-12
1.0335e-12
1.55115e-12
2.45487e-12
4.01511e-12
7.04829e-12
1.61396e-11
5.26807e-11
1.31716e-10
5.50775e-13
9.61771e-13
8.96467e-13
1.327e-12
2.07671e-12
3.3854e-12
5.76937e-12
1.18708e-11
3.604e-11
8.83508e-11
5.11617e-13
8.72677e-13
7.81397e-13
1.14648e-12
1.77964e-12
2.86106e-12
4.78073e-12
9.08211e-12
2.52746e-11
6.08963e-11
4.77932e-13
7.96386e-13
6.83481e-13
9.92949e-13
1.52304e-12
2.42624e-12
4.01591e-12
7.1635e-12
1.81163e-11
4.2969e-11
9.11452e-13
7.31705e-13
6.0144e-13
8.63338e-13
1.3131e-12
2.07624e-12
3.39898e-12
5.78943e-12
1.32296e-11
3.09427e-11
1.17423e-09
4.15285e-11
6.10884e-13
7.52087e-13
1.13854e-12
1.78709e-12
2.89416e-12
4.77102e-12
9.8306e-12
2.27054e-11
3.6857e-07
3.68139e-08
2.60118e-10
2.86592e-12
9.48983e-13
1.53607e-12
2.46694e-12
3.98301e-12
7.40188e-12
1.69189e-11
1.04699e-12
1.83454e-12
1.63379e-12
2.16712e-12
3.01328e-12
4.35938e-12
6.69829e-12
1.24264e-11
4.98244e-11
1.76813e-10
9.74432e-13
1.68208e-12
1.4643e-12
1.9355e-12
2.66592e-12
3.79774e-12
5.68559e-12
9.94965e-12
3.49976e-11
1.06694e-10
9.04392e-13
1.5359e-12
1.30111e-12
1.71178e-12
2.34236e-12
3.30822e-12
4.83312e-12
7.89368e-12
2.47075e-11
6.82089e-11
8.42963e-13
1.40808e-12
1.16215e-12
1.51777e-12
2.06674e-12
2.89375e-12
4.16497e-12
6.37113e-12
1.78142e-11
4.56404e-11
7.89546e-13
1.29652e-12
1.04237e-12
1.35119e-12
1.83463e-12
2.54845e-12
3.62847e-12
5.28953e-12
1.29966e-11
3.16098e-11
7.4299e-13
1.19895e-12
9.38276e-13
1.20875e-12
1.62977e-12
2.25166e-12
3.19039e-12
4.49946e-12
9.5795e-12
2.24923e-11
7.01997e-13
1.11281e-12
8.48121e-13
1.08482e-12
1.45396e-12
2.00207e-12
2.82018e-12
3.89353e-12
7.11897e-12
1.63488e-11
1.28681e-12
1.03925e-12
7.7013e-13
9.76748e-13
1.301e-12
1.78278e-12
2.50011e-12
3.40866e-12
5.33701e-12
1.20849e-11
1.68608e-09
7.33823e-11
8.01696e-13
8.80446e-13
1.1681e-12
1.59185e-12
2.22668e-12
3.00422e-12
4.04486e-12
9.03856e-12
4.51932e-07
6.44743e-08
6.32693e-10
3.30594e-12
9.80802e-13
1.42525e-12
1.98683e-12
2.65739e-12
3.07651e-12
6.82142e-12
1.44323e-12
2.30958e-12
1.6499e-12
1.89352e-12
2.27207e-12
2.81915e-12
3.77782e-12
5.7392e-12
1.32734e-11
2.85668e-11
1.36506e-12
2.1616e-12
1.53242e-12
1.76382e-12
2.11335e-12
2.59658e-12
3.34618e-12
4.72248e-12
1.06566e-11
2.09951e-11
1.28643e-12
2.01413e-12
1.40877e-12
1.62382e-12
1.94595e-12
2.37766e-12
2.99741e-12
3.96744e-12
8.3228e-12
1.56245e-11
1.21691e-12
1.88239e-12
1.29714e-12
1.49556e-12
1.79309e-12
2.18616e-12
2.72232e-12
3.43209e-12
6.4473e-12
1.18276e-11
1.15527e-12
1.76449e-12
1.19695e-12
1.37864e-12
1.65491e-12
2.01536e-12
2.49641e-12
3.04271e-12
4.97845e-12
9.07407e-12
1.10034e-12
1.65815e-12
1.10696e-12
1.27381e-12
1.52675e-12
1.85976e-12
2.29756e-12
2.74619e-12
3.83261e-12
7.01533e-12
1.05163e-12
1.56274e-12
1.02613e-12
1.17852e-12
1.4108e-12
1.71917e-12
2.12556e-12
2.50452e-12
2.9455e-12
5.44815e-12
1.69806e-12
1.47991e-12
9.53398e-13
1.09183e-12
1.3053e-12
1.59088e-12
1.9685e-12
2.305e-12
2.25734e-12
4.24959e-12
2.06543e-09
1.06139e-10
1.06206e-12
1.01178e-12
1.2085e-12
1.47289e-12
1.82412e-12
2.13136e-12
1.72268e-12
3.32272e-12
3.68582e-07
8.84455e-08
9.9783e-10
3.47016e-12
1.03635e-12
1.36128e-12
1.68771e-12
1.97117e-12
1.30143e-12
2.59181e-12
2.01614e-12
2.90912e-12
1.61508e-12
1.5979e-12
1.65871e-12
1.799e-12
2.13629e-12
2.91384e-12
6.19325e-12
8.54643e-12
1.93359e-12
2.7755e-12
1.55538e-12
1.55628e-12
1.62535e-12
1.74493e-12
1.97992e-12
2.47586e-12
5.05055e-12
7.05278e-12
1.85067e-12
2.63764e-12
1.47823e-12
1.49445e-12
1.57223e-12
1.68447e-12
1.86121e-12
2.1631e-12
4.00968e-12
5.7351e-12
1.77555e-12
2.51058e-12
1.40317e-12
1.42999e-12
1.515e-12
1.6267e-12
1.77406e-12
1.95497e-12
3.16152e-12
4.66295e-12
1.70731e-12
2.39297e-12
1.33079e-12
1.3663e-12
1.45715e-12
1.56993e-12
1.70307e-12
1.81607e-12
2.47381e-12
3.78754e-12
1.64593e-12
2.28484e-12
1.26243e-12
1.30304e-12
1.39709e-12
1.51359e-12
1.64525e-12
1.71609e-12
1.91908e-12
3.07233e-12
1.58998e-12
2.18501e-12
1.19819e-12
1.24181e-12
1.33692e-12
1.45608e-12
1.58994e-12
1.64114e-12
1.46581e-12
2.48827e-12
2.22356e-12
2.09765e-12
1.13765e-12
1.18308e-12
1.27875e-12
1.39813e-12
1.53367e-12
1.58066e-12
1.09952e-12
2.008e-12
2.34298e-09
1.32545e-10
1.72618e-12
1.12656e-12
1.22154e-12
1.34127e-12
1.47796e-12
1.52757e-12
8.05629e-13
1.61161e-12
1.19148e-07
9.86613e-08
2.21542e-09
1.49986e-11
1.0863e-12
1.2795e-12
1.42032e-12
1.47233e-12
5.58512e-13
1.27974e-12
2.78572e-12
3.58755e-12
1.46316e-12
1.21342e-12
1.06483e-12
1.00359e-12
1.13215e-12
1.51579e-12
3.19462e-12
3.7202e-12
2.70561e-12
3.48337e-12
1.46049e-12
1.24674e-12
1.11735e-12
1.03602e-12
1.07361e-12
1.2955e-12
2.73484e-12
3.27111e-12
2.6235e-12
3.37056e-12
1.43671e-12
1.25596e-12
1.1485e-12
1.06563e-12
1.04922e-12
1.14085e-12
2.25067e-12
2.79192e-12
2.54773e-12
3.26241e-12
1.40507e-12
1.25296e-12
1.16637e-12
1.09201e-12
1.04936e-12
1.04923e-12
1.8348e-12
2.37944e-12
2.47786e-12
3.16015e-12
1.3703e-12
1.24245e-12
1.17446e-12
1.11171e-12
1.05956e-12
1.00548e-12
1.47732e-12
2.0231e-12
2.41288e-12
3.06221e-12
1.33242e-12
1.22543e-12
1.17435e-12
1.12551e-12
1.07582e-12
9.90402e-13
1.16947e-12
1.71385e-12
2.35294e-12
2.97015e-12
1.29326e-12
1.20367e-12
1.16794e-12
1.13316e-12
1.09144e-12
9.90986e-13
9.06951e-13
1.44608e-12
2.96274e-12
2.88881e-12
1.25391e-12
1.17958e-12
1.1559e-12
1.13396e-12
1.10318e-12
1.00086e-12
6.82749e-13
1.21619e-12
2.66641e-09
1.47808e-10
2.27099e-12
1.15476e-12
1.14037e-12
1.12971e-12
1.10925e-12
1.0128e-12
4.91485e-13
1.01865e-12
1.69165e-07
9.03952e-08
2.0871e-09
2.31566e-11
1.08699e-12
1.11697e-12
1.11015e-12
1.02152e-12
3.23244e-13
8.52435e-13
3.6964e-12
4.24817e-12
1.1521e-12
7.62554e-13
4.95505e-13
3.50703e-13
4.8417e-13
7.90298e-13
1.94581e-12
1.98266e-12
3.62427e-12
4.1837e-12
1.19529e-12
8.43811e-13
6.00064e-13
4.2125e-13
4.28035e-13
6.35751e-13
1.78251e-12
1.85965e-12
3.55159e-12
4.11242e-12
1.21617e-12
9.01033e-13
6.83825e-13
5.00072e-13
4.24027e-13
5.15796e-13
1.54818e-12
1.66507e-12
3.48252e-12
4.03942e-12
1.22619e-12
9.43817e-13
7.50073e-13
5.74344e-13
4.56457e-13
4.3919e-13
1.33971e-12
1.49003e-12
3.41718e-12
3.96731e-12
1.22727e-12
9.73993e-13
8.03123e-13
6.40014e-13
5.05335e-13
4.09828e-13
1.15307e-12
1.33224e-12
3.35634e-12
3.89643e-12
1.22188e-12
9.95491e-13
8.46106e-13
6.9792e-13
5.59972e-13
4.18963e-13
9.88242e-13
1.19112e-12
3.29853e-12
3.82699e-12
1.21174e-12
1.0094e-12
8.79034e-13
7.46635e-13
6.13718e-13
4.52132e-13
8.44686e-13
1.0663e-12
3.87203e-12
3.76723e-12
1.19819e-12
1.01699e-12
9.0391e-13
7.87268e-13
6.63624e-13
4.97106e-13
7.22089e-13
9.56448e-13
2.95914e-09
1.47907e-10
2.80351e-12
1.02395e-12
9.23817e-13
8.20868e-13
7.07108e-13
5.45397e-13
6.20097e-13
8.61785e-13
4.84292e-07
5.92193e-08
1.80066e-09
2.89243e-11
9.9801e-13
8.46101e-13
7.44616e-13
5.89721e-13
5.39167e-13
7.83622e-13
4.57232e-12
4.76086e-12
7.37726e-13
4.96255e-13
2.72376e-13
1.50384e-13
2.6544e-13
4.82992e-13
1.40733e-12
1.24488e-12
4.5112e-12
4.74003e-12
7.83923e-13
5.34898e-13
3.11553e-13
1.24617e-13
1.62601e-13
3.79901e-13
1.39543e-12
1.25536e-12
4.45186e-12
4.71466e-12
8.17921e-13
5.7195e-13
3.60957e-13
1.63179e-13
7.56962e-14
2.79825e-13
1.29254e-12
1.18149e-12
4.39398e-12
4.68443e-12
8.4498e-13
6.04878e-13
4.10478e-13
2.21454e-13
4.62601e-14
1.86592e-13
1.19951e-12
1.11352e-12
4.33889e-12
4.65102e-12
8.65067e-13
6.35113e-13
4.57153e-13
2.81454e-13
1.09126e-13
1.01968e-13
1.11408e-12
1.05084e-12
4.28554e-12
4.61487e-12
8.8034e-13
6.61045e-13
4.99647e-13
3.37642e-13
1.76685e-13
3.37501e-14
1.03632e-12
9.93729e-13
4.23493e-12
4.57829e-12
8.91239e-13
6.83465e-13
5.37585e-13
3.89407e-13
2.38912e-13
6.00315e-14
9.67522e-13
9.42348e-13
4.77469e-12
4.54904e-12
8.97739e-13
7.01424e-13
5.70901e-13
4.35681e-13
2.95517e-13
1.23303e-13
9.06479e-13
8.96388e-13
3.16574e-09
1.35566e-10
2.90104e-12
7.20787e-13
5.99599e-13
4.76285e-13
3.47046e-13
1.83705e-13
8.53312e-13
8.54957e-13
7.69469e-07
2.24282e-08
1.00802e-09
2.08019e-11
7.11762e-13
5.13349e-13
3.93722e-13
2.40485e-13
8.07467e-13
8.29245e-13
5.13291e-12
5.02232e-12
3.97679e-13
5.89289e-13
5.09327e-13
4.39557e-13
4.01426e-13
4.40226e-13
1.18412e-12
9.35833e-13
5.07891e-12
5.029e-12
3.63834e-13
5.29837e-13
4.56078e-13
3.92007e-13
3.5575e-13
4.03918e-13
1.24438e-12
1.00526e-12
5.02916e-12
5.03588e-12
3.45003e-13
4.78087e-13
4.09056e-13
3.46623e-13
3.1286e-13
3.62261e-13
1.20332e-12
9.83453e-13
4.98024e-12
5.03627e-12
3.39406e-13
4.33711e-13
3.68482e-13
3.088e-13
2.74192e-13
3.23567e-13
1.16432e-12
9.61795e-13
4.93247e-12
5.03158e-12
3.45139e-13
3.98744e-13
3.37259e-13
2.78418e-13
2.4141e-13
2.87876e-13
1.12697e-12
9.41609e-13
4.88705e-12
5.02389e-12
3.57201e-13
3.71442e-13
3.11866e-13
2.53802e-13
2.14098e-13
2.56562e-13
1.09205e-12
9.22511e-13
4.84297e-12
5.01339e-12
3.72448e-13
3.51e-13
2.94259e-13
2.36711e-13
1.93996e-13
2.28197e-13
1.05849e-12
9.04993e-13
5.36363e-12
5.0098e-12
3.89108e-13
3.35701e-13
2.82026e-13
2.2558e-13
1.78722e-13
2.05011e-13
1.02754e-12
8.87248e-13
3.2679e-09
1.23812e-10
2.6841e-12
3.25106e-13
2.74021e-13
2.19959e-13
1.71887e-13
1.86659e-13
9.96627e-13
8.70545e-13
9.449e-07
3.09488e-08
8.7146e-10
1.6379e-11
2.9557e-13
2.20994e-13
1.7483e-13
1.7911e-13
9.68187e-13
9.08045e-13
5.13623e-12
4.99338e-12
3.67776e-13
6.13201e-13
5.38944e-13
4.65542e-13
4.13236e-13
4.31826e-13
1.11958e-12
8.93954e-13
5.08216e-12
5.00225e-12
3.06211e-13
5.44961e-13
4.81879e-13
4.17274e-13
3.7296e-13
4.0393e-13
1.18885e-12
9.66861e-13
5.03275e-12
5.01216e-12
2.6292e-13
4.82766e-13
4.28623e-13
3.71557e-13
3.32918e-13
3.67226e-13
1.15542e-12
9.48306e-13
4.98422e-12
5.01493e-12
2.39347e-13
4.27552e-13
3.80567e-13
3.30133e-13
2.96149e-13
3.33705e-13
1.12343e-12
9.29826e-13
4.93768e-12
5.01361e-12
2.35395e-13
3.81438e-13
3.39868e-13
2.94102e-13
2.63082e-13
3.01804e-13
1.09272e-12
9.12895e-13
4.8926e-12
5.00815e-12
2.4538e-13
3.42967e-13
3.05858e-13
2.63004e-13
2.33317e-13
2.72454e-13
1.06369e-12
8.9677e-13
4.84916e-12
4.99981e-12
2.63425e-13
3.10914e-13
2.77471e-13
2.3761e-13
2.08469e-13
2.45658e-13
1.03571e-12
8.82015e-13
5.36957e-12
4.99829e-12
2.85431e-13
2.85771e-13
2.55161e-13
2.1713e-13
1.86922e-13
2.217e-13
1.00911e-12
8.67149e-13
3.2679e-09
1.23812e-10
2.66523e-12
2.65375e-13
2.36353e-13
2.011e-13
1.71458e-13
2.01339e-13
9.83177e-13
8.53073e-13
9.449e-07
3.09488e-08
8.71442e-10
1.63566e-11
2.32246e-13
1.92566e-13
1.65848e-13
1.89617e-13
9.57856e-13
9.06117e-13
4.57504e-12
4.68074e-12
6.42439e-13
5.08748e-13
3.33349e-13
2.26388e-13
2.61415e-13
4.21856e-13
1.18427e-12
1.10586e-12
4.51562e-12
4.66812e-12
6.74616e-13
5.17304e-13
3.36086e-13
1.93905e-13
1.82294e-13
3.41171e-13
1.20364e-12
1.12742e-12
4.45874e-12
4.65189e-12
7.03402e-13
5.33272e-13
3.56676e-13
1.97599e-13
1.18852e-13
2.57164e-13
1.12807e-12
1.0652e-12
4.40336e-12
4.63049e-12
7.27847e-13
5.51737e-13
3.8504e-13
2.25392e-13
9.09788e-14
1.7946e-13
1.05955e-12
1.00815e-12
4.35007e-12
4.60499e-12
7.49895e-13
5.7156e-13
4.16867e-13
2.64133e-13
1.15641e-13
1.12893e-13
9.96864e-13
9.55961e-13
4.29911e-12
4.57673e-12
7.67661e-13
5.91292e-13
4.49318e-13
3.06318e-13
1.62411e-13
6.70845e-14
9.40533e-13
9.09784e-13
4.25001e-12
4.54675e-12
7.82046e-13
6.09606e-13
4.80338e-13
3.48186e-13
2.12785e-13
7.44057e-14
8.9019e-13
8.68224e-13
4.79053e-12
4.52388e-12
7.93113e-13
6.26183e-13
5.09128e-13
3.87232e-13
2.61268e-13
1.1725e-13
8.46353e-13
8.31467e-13
3.16574e-09
1.35567e-10
2.85918e-12
6.43421e-13
5.34918e-13
4.24037e-13
3.07198e-13
1.66977e-13
8.08518e-13
7.99839e-13
7.69469e-07
2.24282e-08
1.00798e-09
2.07552e-11
6.36912e-13
4.57518e-13
3.49856e-13
2.16794e-13
7.76124e-13
7.93659e-13
3.69522e-12
4.14754e-12
1.00559e-12
6.56669e-13
3.95838e-13
2.192e-13
3.31772e-13
6.06876e-13
1.45675e-12
1.67402e-12
3.6291e-12
4.09905e-12
1.05561e-12
7.34447e-13
4.98883e-13
3.08518e-13
2.90561e-13
4.82935e-13
1.36486e-12
1.58323e-12
3.56216e-12
4.04197e-12
1.08639e-12
7.94354e-13
5.83646e-13
3.97783e-13
3.03161e-13
3.83175e-13
1.1938e-12
1.41992e-12
3.49761e-12
3.98257e-12
1.10558e-12
8.39869e-13
6.52327e-13
4.77721e-13
3.49604e-13
3.22335e-13
1.0394e-12
1.27231e-12
3.43641e-12
3.92171e-12
1.11684e-12
8.76294e-13
7.09026e-13
5.47693e-13
4.08441e-13
3.07575e-13
9.01655e-13
1.13992e-12
3.37869e-12
3.86131e-12
1.12055e-12
9.02714e-13
7.55298e-13
6.09255e-13
4.70155e-13
3.28474e-13
7.8092e-13
1.02175e-12
3.32352e-12
3.80127e-12
1.11962e-12
9.22643e-13
7.92367e-13
6.61328e-13
5.28253e-13
3.71248e-13
6.77307e-13
9.19109e-13
3.8966e-12
3.74985e-12
1.11373e-12
9.36191e-13
8.2302e-13
7.05456e-13
5.81851e-13
4.21963e-13
5.9175e-13
8.2886e-13
2.95914e-09
1.4791e-10
2.75923e-12
9.48907e-13
8.46923e-13
7.42553e-13
6.29111e-13
4.74018e-13
5.23081e-13
7.53026e-13
4.84292e-07
5.92193e-08
1.80063e-09
2.88875e-11
9.24618e-13
7.7169e-13
6.69537e-13
5.21797e-13
4.73004e-13
6.96008e-13
2.78813e-12
3.49647e-12
1.30081e-12
1.03647e-12
8.74972e-13
7.89613e-13
8.60876e-13
1.13712e-12
2.13841e-12
2.97617e-12
2.71744e-12
3.41376e-12
1.32023e-12
1.08907e-12
9.44612e-13
8.45234e-13
8.45487e-13
9.95419e-13
1.86062e-12
2.64042e-12
2.643e-12
3.31948e-12
1.31607e-12
1.11728e-12
9.93352e-13
8.9491e-13
8.52524e-13
8.99221e-13
1.53266e-12
2.25821e-12
2.57258e-12
3.22715e-12
1.30288e-12
1.13097e-12
1.02706e-12
9.37487e-13
8.74496e-13
8.50497e-13
1.24228e-12
1.92509e-12
2.50721e-12
3.13755e-12
1.28282e-12
1.13603e-12
1.04981e-12
9.72102e-13
9.04437e-13
8.34684e-13
9.92042e-13
1.63476e-12
2.4456e-12
3.05127e-12
1.25864e-12
1.13268e-12
1.06348e-12
9.99301e-13
9.3583e-13
8.40304e-13
7.75453e-13
1.38253e-12
2.38834e-12
2.96794e-12
1.23164e-12
1.12438e-12
1.06956e-12
1.01791e-12
9.63387e-13
8.57314e-13
5.87604e-13
1.1648e-12
2.9937e-12
2.89502e-12
1.20233e-12
1.11068e-12
1.07005e-12
1.03098e-12
9.84842e-13
8.79483e-13
4.24721e-13
9.77626e-13
2.66641e-09
1.47812e-10
2.23828e-12
1.09646e-12
1.06481e-12
1.03676e-12
1.00155e-12
9.02028e-13
2.8665e-13
8.18349e-13
1.69165e-07
9.03952e-08
2.08708e-09
2.31273e-11
1.02283e-12
1.03466e-12
1.01198e-12
9.19733e-13
1.6131e-13
6.85769e-13
2.03377e-12
2.84851e-12
1.45938e-12
1.3815e-12
1.38194e-12
1.44536e-12
1.64042e-12
2.09342e-12
3.6774e-12
6.2828e-12
1.96077e-12
2.73948e-12
1.43206e-12
1.3771e-12
1.38928e-12
1.44408e-12
1.5776e-12
1.85913e-12
3.0509e-12
5.2672e-12
1.88368e-12
2.62014e-12
1.38222e-12
1.34727e-12
1.3723e-12
1.42649e-12
1.52662e-12
1.69139e-12
2.44021e-12
4.30617e-12
1.81282e-12
2.50722e-12
1.32933e-12
1.31041e-12
1.34567e-12
1.40505e-12
1.49209e-12
1.57971e-12
1.93397e-12
3.51155e-12
1.7476e-12
2.40125e-12
1.27522e-12
1.26966e-12
1.3143e-12
1.37916e-12
1.46386e-12
1.50734e-12
1.52041e-12
2.86228e-12
1.68742e-12
2.30198e-12
1.22222e-12