/*--------------------------------*- C++ -*----------------------------------*\
| =========                 |                                                 |
| \\      /  F ield         | OpenFOAM: The Open Source CFD Toolbox           |
|  \\    /   O peration     | Version:  4.1                                   |
|   \\  /    A nd           | Web:      www.OpenFOAM.org                      |
|    \\/     M anipulation  |                                                 |
\*---------------------------------------------------------------------------*/
FoamFile
{
    version     2.0;
    format      ascii;
    class       surfaceScalarField;
    location    "0.9";
    object      phi;
}
// * * * * * * * * * * * * * * * * * * * * * * * * * * * * * * * * * * * * * //

dimensions      [1 0 -1 0 0 0 0];

internalField   nonuniform List<scalar> 
51500
(
3.61775e-13
1.88756e-14
1.38342e-11
-7.99231e-16
2.28038e-14
1.36817e-11
-3.4881e-15
2.12052e-14
1.35293e-11
-3.10972e-15
1.95461e-14
1.33798e-11
-2.99494e-15
1.78586e-14
1.32314e-11
-2.91412e-15
1.61637e-14
1.30848e-11
-3.04842e-15
1.44925e-14
1.29394e-11
-2.95179e-15
1.28753e-14
1.27973e-11
-3.11892e-15
1.12486e-14
1.2657e-11
9.66527e-15
1.2522e-11
-7.15573e-17
3.6226e-13
1.03716e-14
1.72228e-11
-1.16426e-14
1.17626e-14
1.66338e-11
-1.1508e-14
9.99585e-15
1.60613e-11
-1.12275e-14
8.31276e-15
1.55126e-11
-1.08623e-14
6.78501e-15
1.49876e-11
-1.04635e-14
5.39009e-15
1.44833e-11
-1.01455e-14
4.09799e-15
1.3999e-11
-9.86856e-15
3.49354e-15
1.35348e-11
-9.73406e-15
2.2043e-15
1.30874e-11
8.93661e-16
1.26692e-11
-8.92515e-16
3.57797e-13
1.31476e-14
2.16858e-11
-2.67411e-14
1.42304e-14
2.04074e-11
-2.29257e-14
1.17284e-14
1.92031e-11
-2.16161e-14
9.49407e-15
1.80843e-11
-2.03692e-14
7.51403e-15
1.7042e-11
-1.94564e-14
5.75148e-15
1.60721e-11
-1.83267e-14
4.21361e-15
1.51703e-11
-1.75241e-14
2.8318e-15
1.43267e-11
-1.70427e-14
1.62931e-15
1.35409e-11
6.23509e-16
1.28199e-11
-1.58359e-15
3.45219e-13
1.73852e-14
2.76344e-11
-4.80969e-14
1.76476e-14
2.52697e-11
-3.8017e-14
1.41367e-14
2.31266e-11
-3.50197e-14
1.10967e-14
2.11902e-11
-3.23138e-14
8.54997e-15
1.94496e-11
-2.9903e-14
6.39586e-15
1.78799e-11
-2.77224e-14
4.57771e-15
1.64611e-11
-2.57589e-14
3.01446e-15
1.51771e-11
-2.43021e-14
1.69279e-15
1.40124e-11
5.89179e-16
1.29728e-11
-2.39609e-15
3.18249e-13
2.34372e-14
3.56781e-11
-8.62338e-14
2.22581e-14
3.16065e-11
-5.85815e-14
1.7217e-14
2.80606e-11
-5.22727e-14
1.31042e-14
2.49691e-11
-4.69283e-14
9.80245e-15
2.22841e-11
-4.22663e-14
7.13832e-15
1.99407e-11
-3.83685e-14
4.95811e-15
1.78897e-11
-3.48096e-14
3.19963e-15
1.60904e-11
-3.21374e-14
1.76474e-15
1.45049e-11
6.29537e-16
1.31292e-11
-3.18951e-15
2.66231e-13
3.23068e-14
4.6714e-11
-1.5623e-13
2.86358e-14
3.99623e-11
-8.64261e-14
2.12822e-14
3.43268e-11
-7.46602e-14
1.55926e-14
2.95961e-11
-6.50227e-14
1.13006e-14
2.56348e-11
-5.70886e-14
7.97601e-15
2.22972e-11
-5.0365e-14
5.41794e-15
1.94732e-11
-4.46526e-14
3.40968e-15
1.70722e-11
-4.02485e-14
1.84701e-15
1.50189e-11
6.86736e-16
1.32881e-11
-4.08896e-15
1.72217e-13
5.68859e-14
6.20644e-11
-2.44958e-13
4.67182e-14
5.1138e-11
-1.24982e-13
3.31447e-14
4.23558e-11
-1.03798e-13
2.33026e-14
3.5302e-11
-8.76196e-14
1.62227e-14
2.96173e-11
-7.4532e-14
1.10644e-14
2.50025e-11
-6.40959e-14
7.22399e-15
2.12304e-11
-5.54466e-14
4.38262e-15
1.81273e-11
-4.88821e-14
2.23655e-15
1.55568e-11
5.99351e-16
1.34496e-11
-4.9522e-15
7.98078e-14
-6.86113e-13
8.38341e-11
-3.59362e-13
-7.66427e-13
6.62734e-11
-1.76523e-13
-7.90749e-13
5.27663e-11
-1.40683e-13
-8.06381e-13
4.24026e-11
-1.14275e-13
-8.16961e-13
3.43904e-11
-9.41823e-14
-8.24096e-13
2.81346e-11
-7.84617e-14
-8.28866e-13
2.3204e-11
-6.61336e-14
-8.32039e-13
1.92838e-11
-5.63857e-14
-8.34187e-13
1.61365e-11
-8.52457e-13
1.3635e-11
-5.9128e-15
4.04833e-12
-1.07714e-09
1.95484e-10
3.75007e-12
-1.18806e-09
1.56714e-10
3.40671e-12
-1.20056e-09
1.30676e-10
3.09902e-12
-1.20996e-09
1.11104e-10
2.82543e-12
-1.21762e-09
9.62123e-11
2.58307e-12
-1.22393e-09
8.47235e-11
2.36834e-12
-1.22917e-09
7.57543e-11
2.17745e-12
-1.23357e-09
6.86749e-11
1.92274e-12
-1.23746e-09
6.30304e-11
-1.2759e-09
5.94546e-11
-6.91179e-15
-7.25895e-10
1.90719e-07
-8.15413e-07
3.57626e-10
1.63227e-07
-9.35554e-07
4.34174e-10
1.43961e-07
-9.37923e-07
4.25248e-10
1.27758e-07
-9.39518e-07
4.14531e-10
1.13993e-07
-9.40928e-07
4.03013e-10
1.02238e-07
-9.42191e-07
3.9111e-10
9.21418e-08
-9.43336e-07
3.66852e-10
8.34202e-08
-9.44383e-07
6.98815e-11
7.58595e-08
-9.45506e-07
7.1207e-08
-7.98515e-15
-9.99669e-07
3.40129e-13
8.67861e-14
8.51724e-13
-1.68891e-14
8.20509e-14
8.37366e-13
-2.4909e-14
7.23776e-14
8.24231e-13
-2.39017e-14
6.29779e-14
8.09185e-13
-2.34639e-14
5.39094e-14
7.9577e-13
-2.32817e-14
4.51097e-14
7.83184e-13
-2.32202e-14
3.66024e-14
7.68934e-13
-2.29868e-14
2.83991e-14
7.56781e-13
-2.47971e-14
2.03875e-14
7.44242e-13
1.28434e-14
7.30934e-13
-1.59855e-15
2.85657e-13
8.02612e-14
1.1754e-12
-6.72438e-14
7.32176e-14
1.1173e-12
-8.28984e-14
6.19832e-14
1.0615e-12
-7.94048e-14
5.12245e-14
1.00783e-12
-7.73452e-14
4.05448e-14
9.57506e-13
-7.52422e-14
2.82837e-14
9.0908e-13
-7.29788e-14
2.01358e-14
8.65435e-13
-7.22146e-14
1.32404e-14
8.22499e-13
-7.54949e-14
7.39825e-15
7.83729e-13
2.50163e-15
7.44466e-13
-4.23533e-15
2.04942e-13
1.01366e-13
1.65026e-12
-1.70182e-13
9.07066e-14
1.50686e-12
-1.56787e-13
7.60092e-14
1.3827e-12
-1.48398e-13
6.2365e-14
1.26298e-12
-1.41224e-13
5.00808e-14
1.1575e-12
-1.34815e-13
3.8909e-14
1.06136e-12
-1.29075e-13
2.87615e-14
9.74915e-13
-1.24011e-13
1.96543e-14
8.96494e-13
-1.29155e-13
1.13912e-14
8.23991e-13
4.1176e-15
7.60084e-13
-6.69039e-15
8.62527e-14
1.23871e-13
2.35715e-12
-2.95586e-13
1.07796e-13
2.06615e-12
-2.51929e-13
8.82698e-14
1.81981e-12
-2.32764e-13
7.09014e-14
1.59863e-12
-2.17503e-13
5.57219e-14
1.40861e-12
-2.03707e-13
4.24053e-14
1.24425e-12
-1.90735e-13
3.0807e-14
1.10288e-12
-1.80147e-13
2.06389e-14
9.79726e-13
-1.83989e-13
1.1756e-14
8.69461e-13
4.09375e-15
7.73903e-13
-9.68106e-15
-2.92428e-14
1.52955e-13
3.43557e-12
-4.53494e-13
1.29095e-13
2.87908e-12
-3.72958e-13
1.03308e-13
2.42605e-12
-3.36775e-13
8.10382e-14
2.04227e-12
-3.0825e-13
6.22008e-14
1.7266e-12
-2.82301e-13
4.63314e-14
1.46722e-12
-2.5929e-13
3.29197e-14
1.25135e-12
-2.40263e-13
2.16437e-14
1.07055e-12
-2.41101e-13
1.2087e-14
9.1852e-13
4.20406e-15
7.90421e-13
-1.27305e-14
-1.56853e-13
1.90136e-13
5.12258e-12
-6.58038e-13
1.56882e-13
4.07782e-12
-5.27502e-13
1.21802e-13
3.27546e-12
-4.65241e-13
9.31096e-14
2.63081e-12
-4.15779e-13
6.97819e-14
2.12999e-12
-3.72677e-13
5.07562e-14
1.73639e-12
-3.35013e-13
3.53115e-14
1.42514e-12
-3.04663e-13
2.2684e-14
1.17494e-12
-3.00165e-13
1.24862e-14
9.73798e-13
4.16629e-15
8.08825e-13
-1.56765e-14
-5.34312e-13
2.53923e-13
7.81955e-12
-9.30187e-13
2.13981e-13
5.88713e-12
-7.24589e-13
1.61669e-13
4.48369e-12
-6.23165e-13
1.20636e-13
3.42103e-12
-5.43663e-13
8.85376e-14
2.64512e-12
-4.75986e-13
6.31863e-14
2.06462e-12
-4.19197e-13
4.28177e-14
1.62607e-12
-3.72885e-13
2.61028e-14
1.29253e-12
-3.61822e-13
1.12133e-14
1.03166e-12
3.5391e-15
8.28669e-13
-1.86541e-14
-1.00718e-12
2.83009e-13
1.04852e-11
-1.29233e-12
1.69166e-13
8.49009e-12
-9.76546e-13
1.10778e-13
6.22821e-12
-8.17293e-13
6.84376e-14
4.5019e-12
-6.9448e-13
3.70311e-14
3.31162e-12
-5.94386e-13
1.33749e-14
2.46929e-12
-5.11249e-13
-4.62072e-15
1.86651e-12
-4.46344e-13
-1.84883e-14
1.42504e-12
-4.25126e-13
-2.93012e-14
1.09675e-12
-3.80848e-14
8.49913e-13
-2.16801e-14
-1.92509e-12
-5.77459e-12
2.86091e-11
-1.00697e-12
-8.50348e-11
1.52701e-11
-8.46101e-13
-7.72365e-11
1.08568e-11
-7.22197e-13
-7.01126e-11
8.00402e-12
-6.27319e-13
-6.43688e-11
6.14643e-12
-5.5313e-13
-5.96798e-11
4.89436e-12
-4.95119e-13
-5.58339e-11
4.02795e-12
-4.52635e-13
-5.26662e-11
3.41303e-12
-5.89599e-13
-5.00616e-11
2.96178e-12
-4.88353e-11
2.63786e-12
-2.48042e-14
-1.42867e-09
2.23295e-08
1.15193e-07
-2.4843e-10
1.28525e-08
-1.9606e-09
-3.97865e-10
9.76475e-09
-2.49701e-09
-3.93211e-10
7.56049e-09
-2.50528e-09
-3.86199e-10
5.9405e-09
-2.49396e-09
-3.77859e-10
4.72863e-09
-2.47252e-09
-3.68727e-10
3.80915e-09
-2.44558e-09
-3.59385e-10
3.10236e-09
-2.41663e-09
-3.62609e-10
2.55331e-09
-2.40221e-09
2.16349e-09
-2.8171e-14
-3.36706e-09
3.41542e-13
8.24096e-14
3.47071e-14
-1.5782e-14
7.82232e-14
3.26953e-14
-2.29938e-14
6.89872e-14
3.10722e-14
-2.04869e-14
6.00986e-14
2.97001e-14
-1.86754e-14
5.14933e-14
2.72871e-14
-2.0681e-14
4.31009e-14
2.48268e-14
-1.90972e-14
3.51181e-14
2.40196e-14
-1.97103e-14
2.7319e-14
2.26012e-14
-2.35844e-14
1.9783e-14
2.15786e-14
1.26664e-14
2.14221e-14
-1.27264e-15
2.90156e-13
5.98771e-14
5.51482e-14
-6.42697e-14
5.49193e-14
5.01907e-14
-7.35744e-14
4.66052e-14
4.78685e-14
-6.77857e-14
3.8573e-14
4.21127e-14
-6.69894e-14
3.11277e-14
3.78156e-14
-6.28971e-14
2.42835e-14
3.56603e-14
-6.25143e-14
1.79136e-14
3.01256e-14
-6.19146e-14
1.2122e-14
2.7132e-14
-7.13113e-14
6.89089e-15
2.59063e-14
2.44433e-15
2.29867e-14
-4.48946e-15
2.11163e-13
7.66536e-14
8.39357e-14
-1.64936e-13
6.93531e-14
7.55644e-14
-1.39915e-13
5.84588e-14
7.02565e-14
-1.27009e-13
4.84566e-14
6.21297e-14
-1.20992e-13
3.94712e-14
5.35818e-14
-1.14264e-13
3.15369e-14
4.61041e-14
-1.09176e-13
2.4156e-14
3.99856e-14
-1.07595e-13
1.67387e-14
3.53264e-14
-1.2116e-13
9.68362e-15
3.10921e-14
3.34584e-15
2.62348e-14
-7.23662e-15
9.07048e-14
9.53507e-14
1.34052e-13
-2.8893e-13
8.35381e-14
1.19466e-13
-2.24745e-13
6.87057e-14
1.07495e-13
-1.99717e-13
5.56943e-14
8.9637e-14
-1.86136e-13
4.44579e-14
7.50449e-14
-1.72573e-13
3.58356e-14
6.3522e-14
-1.596e-13
2.61935e-14
5.37169e-14
-1.5627e-13
1.73689e-14
4.53684e-14
-1.73127e-13
9.94564e-15
4.04152e-14
3.52408e-15
3.17877e-14
-1.04745e-14
-2.76815e-14
1.20345e-13
2.24484e-13
-4.46452e-13
1.01388e-13
1.91475e-13
-3.33306e-13
8.13945e-14
1.65889e-13
-2.86438e-13
6.4212e-14
1.34015e-13
-2.60589e-13
4.9927e-14
1.07992e-13
-2.36924e-13
3.91015e-14
8.77789e-14
-2.15881e-13
2.82918e-14
7.2476e-14
-2.06636e-13
1.86844e-14
6.12443e-14
-2.26975e-13
1.05373e-14
5.20056e-14
3.74491e-15
3.94669e-14
-1.30666e-14
-1.6462e-13
1.53225e-13
3.84432e-13
-6.52599e-13
1.25681e-13
3.1772e-13
-4.72179e-13
9.73845e-14
2.59854e-13
-3.75241e-13
7.44876e-14
1.99222e-13
-3.34552e-13
5.66161e-14
1.56203e-13
-2.96064e-13
4.33008e-14
1.23524e-13
-2.65275e-13
3.02278e-14
9.91767e-14
-2.5984e-13
1.95864e-14
8.19691e-14
-2.82935e-13
1.06648e-14
6.4524e-14
3.59005e-15
4.70114e-14
-1.65098e-14
-5.79323e-13
1.8805e-13
6.71279e-13
-9.31141e-13
1.56106e-13
5.2845e-13
-6.14504e-13
1.17481e-13
4.05357e-13
-4.96516e-13
8.77586e-14
3.00114e-13
-4.31459e-13
6.58454e-14
2.25031e-13
-3.73781e-13
4.96221e-14
1.71809e-13
-3.25056e-13
3.41794e-14
1.34796e-13
-3.14943e-13
2.1695e-14
1.0613e-13
-3.4097e-13
1.19218e-14
8.39805e-14
4.3877e-15
5.78513e-14
-1.95662e-14
-1.10674e-12
3.52701e-13
1.20505e-12
-1.30797e-12
2.26647e-13
8.87381e-13
-8.05107e-13
1.58952e-13
6.40976e-13
-6.51214e-13
1.1108e-13
4.49546e-13
-5.4787e-13
7.6806e-14
3.24382e-13
-4.62557e-13
5.18937e-14
2.38924e-13
-3.94217e-13
3.36071e-14
1.78561e-13
-3.53478e-13
2.01366e-14
1.36483e-13
-4.01072e-13
1.01014e-14
1.07627e-13
2.74111e-15
6.95157e-14
-2.28983e-14
-2.52627e-12
8.12824e-11
9.02454e-12
-1.67899e-12
1.86022e-13
1.30884e-12
-1.06715e-12
-6.72205e-13
8.29797e-13
-8.52162e-13
-7.47539e-13
5.79218e-13
-6.99848e-13
-8.07624e-13
4.21963e-13
-5.80541e-13
-8.49866e-13
3.20067e-13
-4.86217e-13
-8.76788e-13
2.50974e-13
-4.27492e-13
-8.9157e-13
2.01747e-13
-4.81749e-13
-8.97221e-13
1.65704e-13
-8.94812e-13
1.21771e-13
-2.62741e-14
-9.98246e-10
8.3532e-09
1.02032e-07
-6.5134e-11
7.74188e-10
2.83626e-10
-6.51969e-11
4.41084e-10
-1.21286e-10
-5.5634e-11
2.95483e-10
-1.02091e-10
-4.74143e-11
2.03477e-10
-8.36115e-11
-4.06778e-11
1.43114e-10
-6.80552e-11
-3.5123e-11
1.02648e-10
-5.44837e-11
-3.05205e-11
7.49783e-11
-4.23224e-11
-2.68019e-11
5.57287e-11
-3.48619e-11
4.21218e-11
-2.97501e-14
-3.63378e-11
3.41815e-13
8.11017e-14
1.15099e-14
-1.56616e-14
7.70807e-14
1.04296e-14
-2.23917e-14
6.80168e-14
8.94841e-15
-2.0191e-14
5.92377e-14
6.06728e-15
-1.84837e-14
5.08017e-14
6.29836e-15
-1.95619e-14
4.26313e-14
4.12643e-15
-1.83928e-14
3.46959e-14
3.1385e-15
-1.91948e-14
2.70281e-14
1.15768e-15
-2.30722e-14
1.96543e-14
8.05193e-16
1.26245e-14
7.6097e-16
-1.54737e-15
2.91643e-13
5.82461e-14
1.89243e-14
-6.32845e-14
5.35376e-14
1.65249e-14
-7.19199e-14
4.54402e-14
1.71843e-14
-6.46825e-14
3.77293e-14
1.3837e-14
-6.16279e-14
3.04715e-14
1.05144e-14
-6.21811e-14
2.37296e-14
6.92291e-15
-5.93515e-14
1.75927e-14
8.00394e-15
-5.88802e-14
1.19477e-14
4.78101e-15
-7.0277e-14
6.79506e-15
3.83909e-15
2.44226e-15
3.13358e-15
-4.23966e-15
2.1476e-13
7.39797e-14
2.804e-14
-1.61976e-13
6.69773e-14
2.59554e-14
-1.34619e-13
5.62848e-14
2.69292e-14
-1.17591e-13
4.62963e-14
2.11279e-14
-1.1386e-13
3.73686e-14
1.73734e-14
-1.03692e-13
2.93099e-14
1.43324e-14
-9.88025e-14
2.18029e-14
1.1444e-14
-1.04009e-13
1.50054e-14
9.74237e-15
-1.19204e-13
9.41351e-15
8.64509e-15
3.10558e-15
6.67488e-15
-7.03018e-15
9.51974e-14
9.20347e-14
4.584e-14
-2.83917e-13
8.05144e-14
4.44684e-14
-2.16033e-13
6.60666e-14
4.5521e-14
-1.79475e-13
5.33644e-14
3.7585e-14
-1.67183e-13
4.211e-14
3.07366e-14
-1.55513e-13
3.22511e-14
2.57853e-14
-1.44783e-13
2.35728e-14
2.12228e-14
-1.49139e-13
1.58742e-14
1.79857e-14
-1.70436e-13
9.56223e-15
1.53381e-14
3.62327e-15
1.06562e-14
-1.06139e-14
-2.06463e-14
1.16065e-13
7.96882e-14
-4.38174e-13
9.79091e-14
8.05136e-14
-3.16243e-13
7.83471e-14
7.74486e-14
-2.58694e-13
6.13834e-14
6.23831e-14
-2.3507e-13
4.73638e-14
5.17331e-14
-2.14023e-13
3.55312e-14
4.21758e-14
-1.95281e-13
2.56376e-14
3.47855e-14
-1.97173e-13
1.79757e-14
3.05726e-14
-2.23317e-13
9.49737e-15
2.74563e-14
3.51819e-15
1.76956e-14
-1.33279e-14
-1.54826e-13
1.47818e-13
1.42483e-13
-6.39886e-13
1.21157e-13
1.40961e-13
-4.23952e-13
9.3554e-14
1.30372e-13
-3.54907e-13
7.13951e-14
1.0461e-13
-3.16042e-13
5.35938e-14
8.4153e-14
-2.80685e-13
3.91108e-14
6.94765e-14
-2.50089e-13
2.74529e-14
5.71491e-14
-2.47748e-13
1.78089e-14
4.75402e-14
-2.78229e-13
1.05001e-14
4.15382e-14
3.72726e-15
2.70884e-14
-1.67197e-14
-5.58242e-13
1.83026e-13
2.54634e-13
-9.11887e-13
1.50571e-13
2.5068e-13
-5.70882e-13
1.12934e-13
2.15173e-13
-4.75383e-13
8.34862e-14
1.68573e-13
-4.12335e-13
6.09692e-14
1.32966e-13
-3.57064e-13
4.35955e-14
1.06823e-13
-3.12007e-13
2.98406e-14
8.62356e-14
-2.84577e-13
1.90563e-14
7.23052e-14
-3.35748e-13
1.09601e-14
6.09603e-14
3.44639e-15
3.85852e-14
-1.99337e-14
-1.07547e-12
3.4638e-13
4.65378e-13
-1.2775e-12
2.20374e-13
4.38068e-13
-7.68991e-13
2.04933e-13
3.51275e-13
-6.25814e-13
1.43659e-13
2.65326e-13
-5.26676e-13
9.97586e-14
2.03462e-13
-4.45604e-13
6.80324e-14
1.58507e-13
-3.80131e-13
4.48146e-14
1.26358e-13
-3.34161e-13
2.7642e-14
1.03048e-13
-3.95732e-13
1.46179e-14
8.41711e-14
4.60509e-15
5.45231e-14
-2.28877e-14
-2.4901e-12
8.52393e-11
1.36214e-11
-1.61297e-12
1.19591e-12
8.56968e-13
-1.02575e-12
2.786e-13
5.60801e-13
-8.14737e-13
1.72845e-13
4.09626e-13
-6.6449e-13
1.06988e-13
3.03244e-13
-5.47254e-13
6.27901e-14
2.29939e-13
-4.55097e-13
3.3251e-14
1.76391e-13
-3.90852e-13
1.34033e-14
1.38446e-13
-4.57667e-13
8.10836e-17
1.09327e-13
-8.51199e-15
6.76313e-14
-2.64008e-14
-9.31749e-10
1.16512e-08
1.01882e-07
-1.19214e-11
1.60061e-10
4.37538e-10
-3.70615e-12
1.63873e-11
-1.41773e-12
-4.24854e-12
9.15025e-12
-1.70016e-12
-3.23944e-12
5.54423e-12
-8.88419e-13
-2.49688e-12
3.4991e-12
-5.39877e-13
-1.95342e-12
2.27611e-12
-3.09315e-13
-1.55277e-12
1.52282e-12
-1.56333e-13
-1.28621e-12
1.04055e-12
-5.75641e-14
6.89622e-13
-3.00953e-14
1.33261e-13
3.41711e-13
8.1151e-14
1.6754e-14
-1.60417e-14
7.71001e-14
1.42085e-14
-2.25192e-14
6.8103e-14
1.20927e-14
-2.05393e-14
5.93103e-14
7.59438e-15
-1.71328e-14
5.08393e-14
6.19843e-15
-2.0221e-14
4.26184e-14
3.49879e-15
-1.92791e-14
3.47503e-14
5.74953e-15
-1.88516e-14
2.71053e-14
4.59391e-15
-2.29882e-14
1.96899e-14
7.16465e-16
1.26727e-14
2.02324e-16
-1.91448e-15
2.91379e-13
5.83214e-14
2.51023e-14
-6.33166e-14
5.36279e-14
2.50621e-14
-7.22818e-14
4.54691e-14
1.87172e-14
-6.53891e-14
3.77026e-14
1.64452e-14
-6.28761e-14
3.04978e-14
1.11954e-14
-6.04542e-14
2.37928e-14
8.58202e-15
-5.97578e-14
1.75993e-14
6.08371e-15
-5.96927e-14
1.19743e-14
7.21894e-15
-7.0111e-14
6.85474e-15
6.15051e-15
2.49491e-15
1.53458e-15
-4.38907e-15
2.14476e-13
7.40538e-14
3.75561e-14
-1.6239e-13
6.70227e-14
3.54605e-14
-1.35734e-13
5.63639e-14
3.41481e-14
-1.15011e-13
4.65184e-14
3.30478e-14
-1.10897e-13
3.74946e-14
2.26961e-14
-1.05348e-13
2.94541e-14
1.67576e-14
-9.80838e-14
2.20602e-14
1.51243e-14
-1.04059e-13
1.51061e-14
1.16403e-14
-1.19047e-13
8.86112e-15
1.12103e-14
3.02754e-15
6.13554e-15
-7.40402e-15
9.49444e-14
9.22022e-14
6.31014e-14
-2.8441e-13
8.07785e-14
6.21726e-14
-2.16274e-13
6.62264e-14
6.21818e-14
-1.79942e-13
5.33808e-14
4.94295e-14
-1.66536e-13
4.2212e-14
4.1238e-14
-1.56182e-13
3.2182e-14
3.23985e-14
-1.44488e-13
2.34511e-14
2.99423e-14
-1.49408e-13
1.60565e-14
2.53047e-14
-1.70521e-13
1.00846e-14
2.15834e-14
3.82791e-15
2.02586e-14
-1.01243e-14
-2.08921e-14
1.16406e-13
1.09331e-13
-4.39254e-13
9.81145e-14
1.08475e-13
-3.1726e-13
7.86322e-14
1.07626e-13
-2.58072e-13
6.17013e-14
8.94354e-14
-2.35763e-13
4.75581e-14
7.3024e-14
-2.14654e-13
3.58929e-14
6.29794e-14
-1.94683e-13
2.61235e-14
5.56185e-14
-1.95649e-13
1.75877e-14
4.2668e-14
-2.23883e-13
9.34536e-15
3.44771e-14
3.70341e-15
2.39563e-14
-1.32724e-14
-1.55766e-13
1.48319e-13
1.86705e-13
-6.4119e-13
1.21712e-13
1.9827e-13
-4.24333e-13
9.39532e-14
1.78777e-13
-3.55738e-13
7.17459e-14
1.44779e-13
-3.16009e-13
5.39279e-14
1.18361e-13
-2.81391e-13
3.93365e-14
9.82176e-14
-2.50774e-13
2.75603e-14
7.82632e-14
-2.40749e-13
1.83758e-14
6.95221e-14
-2.78895e-13
1.08224e-14
5.7989e-14
3.74301e-15
3.64514e-14
-1.66011e-14
-5.60606e-13
1.83638e-13
3.3404e-13
-9.14798e-13
1.51384e-13
3.45618e-13
-5.71567e-13
1.1356e-13
3.05942e-13
-4.76646e-13
8.39517e-14
2.34301e-13
-4.13148e-13
6.13458e-14
1.9245e-13
-3.5829e-13
4.38184e-14
1.51025e-13
-3.1228e-13
3.0124e-14
1.24789e-13
-2.84728e-13
1.90849e-14
1.01366e-13
-3.36951e-13
1.11372e-14
8.30259e-14
4.12183e-15
5.51673e-14
-1.97863e-14
-1.08028e-12
3.5154e-13
6.02786e-13
-1.28255e-12
2.10349e-13
6.0567e-13
-7.70851e-13
1.40402e-13
4.98395e-13
-6.27852e-13
1.03468e-13
3.78682e-13
-5.28574e-13
7.61362e-14
2.93741e-13
-4.47049e-13
5.54831e-14
2.343e-13
-3.81252e-13
3.71781e-14
1.82167e-13
-3.3545e-13
2.33695e-14
1.47422e-13
-3.9714e-13
1.27442e-14
1.19259e-13
4.91786e-15
7.58849e-14
-2.30944e-14
-2.54342e-12
9.05623e-11
2.13755e-11
-1.59704e-12
1.12358e-12
1.26896e-12
-1.02983e-12
2.01177e-13
8.12464e-13
-8.18834e-13
1.75889e-13
5.87139e-13
-6.67279e-13
1.17456e-13
4.39049e-13
-5.49862e-13
7.70369e-14
3.31156e-13
-4.56723e-13
4.86929e-14
2.52834e-13
-3.92304e-13
2.85474e-14
2.01628e-13
-4.59614e-13
1.39373e-14
1.58819e-13
3.03888e-15
1.00593e-13
-2.64925e-14
-9.83988e-10
1.88018e-08
1.07766e-07
-8.46587e-12
1.89231e-10
4.92292e-10
-1.4885e-12
3.04233e-12
1.82625e-12
-1.13802e-12
1.16393e-12
1.46277e-13
-8.95108e-13
7.91637e-13
8.20464e-14
-7.08498e-13
5.61656e-13
6.71032e-14
-5.69275e-13
4.10641e-13
5.53111e-14
-4.74193e-13
3.07266e-13
4.58644e-14
-5.39121e-13
2.18397e-13
3.83903e-14
1.43206e-13
-3.00409e-14
3.21272e-14
3.41379e-13
8.12933e-14
2.27243e-14
-1.63592e-14
7.72456e-14
1.46871e-14
-2.31741e-14
6.81513e-14
1.88231e-14
-2.00102e-14
5.94168e-14
1.28742e-14
-1.92695e-14
5.08873e-14
7.70899e-15
-1.92561e-14
4.26756e-14
4.46966e-15
-1.92118e-14
3.47559e-14
1.94333e-15
-1.98591e-14
2.7132e-14
1.47126e-15
-2.30407e-14
1.97621e-14
1.54358e-15
1.26961e-14
2.60964e-15
-1.4396e-15
2.91037e-13
5.85119e-14
3.90603e-14
-6.40616e-14
5.37889e-14
3.46691e-14
-7.15625e-14
4.56548e-14
3.2973e-14
-6.70079e-14
3.78358e-14
2.1363e-14
-6.21353e-14
3.06224e-14
2.06404e-14
-6.12632e-14
2.38767e-14
1.26988e-14
-5.84966e-14
1.76918e-14
8.07361e-15
-5.95607e-14
1.20303e-14
5.29904e-15
-7.05193e-14
6.91512e-15
5.08533e-15
2.56066e-15
5.41604e-15
-4.42029e-15
2.13835e-13
7.43657e-14
5.14403e-14
-1.63431e-13
6.72825e-14
5.2604e-14
-1.35604e-13
5.65928e-14
5.60605e-14
-1.16641e-13
4.66366e-14
4.25242e-14
-1.14256e-13
3.7623e-14
3.25466e-14
-1.03945e-13
2.9532e-14
2.6339e-14
-9.89255e-14
2.21987e-14
1.7409e-14
-1.03609e-13
1.53891e-14
1.65388e-14
-1.19346e-13
9.24465e-15
1.17762e-14
3.34151e-15
1.1076e-14
-7.52783e-15
9.41498e-14
9.27134e-14
9.17707e-14
-2.857e-13
8.11948e-14
9.04209e-14
-2.17403e-13
6.65971e-14
9.34074e-14
-1.80061e-13
5.37521e-14
7.61398e-14
-1.68003e-13
4.25429e-14
5.85844e-14
-1.55505e-13
3.25639e-14
4.17247e-14
-1.44965e-13
2.36948e-14
3.32641e-14
-1.50027e-13
1.61527e-14
3.02399e-14
-1.70585e-13
1.00662e-14
2.56619e-14
3.6116e-15
1.532e-14
-1.0244e-14
-2.23504e-14
1.17142e-13
1.60441e-13
-4.41213e-13
9.88042e-14
1.63768e-13
-3.18749e-13
7.91202e-14
1.60634e-13
-2.59016e-13
6.21e-14
1.29422e-13
-2.36364e-13
4.78446e-14
1.06223e-13
-2.1575e-13
3.6144e-14
8.57326e-14
-1.95078e-13
2.61134e-14
6.05909e-14
-1.9712e-13
1.77679e-14
5.15049e-14
-2.24261e-13
9.79293e-15
4.3088e-14
3.95802e-15
2.70451e-14
-1.33118e-14
-1.57879e-13
1.49562e-13
2.80661e-13
-6.44739e-13
1.22702e-13
2.92599e-13
-4.26072e-13
9.48373e-14
2.69799e-13
-3.5738e-13
7.2396e-14
2.11065e-13
-3.16863e-13
5.45653e-14
1.70452e-13
-2.83515e-13
3.97234e-14
1.35296e-13
-2.51223e-13
2.80693e-14
1.11826e-13
-2.40829e-13
1.85276e-14
8.02913e-14
-2.79943e-13
1.09896e-14
6.71227e-14
4.04341e-15
4.32978e-14
-1.63303e-14
-5.66726e-13
1.8532e-13
4.98645e-13
-9.20293e-13
1.52938e-13
5.11516e-13
-5.75953e-13
1.14716e-13
4.40966e-13
-4.78659e-13
8.49269e-14
3.46257e-13
-4.15945e-13
6.20422e-14
2.6914e-13
-3.6e-13
4.4538e-14
2.14653e-13
-3.14113e-13
3.06799e-14
1.69997e-13
-2.8589e-13
1.95936e-14
1.21268e-13
-3.38374e-13
1.15461e-14
1.00704e-13
4.47893e-15
6.22528e-14
-1.97255e-14
-1.09151e-12
3.56551e-13
9.09314e-13
-1.29224e-12
2.24648e-13
8.959e-13
-7.76575e-13
1.39494e-13
7.24321e-13
-6.32311e-13
1.01838e-13
5.45504e-13
-5.32082e-13
7.29588e-14
4.16487e-13
-4.50223e-13
5.41086e-14
3.18635e-13
-3.83894e-13
3.69188e-14
2.50989e-13
-3.37647e-13
2.35264e-14
1.75334e-13
-3.99311e-13
1.29948e-14
1.38066e-13
5.19812e-15
8.66414e-14
-2.2969e-14
-2.59261e-12
9.6002e-11
2.71184e-11
-1.59514e-12
1.17571e-12
1.81419e-12
-1.03928e-12
1.98561e-13
1.18324e-12
-8.25924e-13
1.6581e-13
8.55672e-13
-6.73087e-13
1.08724e-13
6.27326e-13
-5.54738e-13
6.74777e-14
4.67345e-13
-4.60209e-13
3.18212e-14
3.46151e-13
-3.95598e-13
1.75341e-14
2.52999e-13
-4.62968e-13
9.05802e-15
1.90481e-13
3.75076e-15
1.14956e-13
-2.65209e-14
-1.04719e-09
2.48176e-08
1.16248e-07
-8.73545e-12
2.73315e-10
5.297e-10
-1.57289e-12
2.88187e-12
2.02998e-12
-1.06304e-12
1.06841e-12
1.02327e-13
-8.44584e-13
7.70203e-13
6.56581e-14
-6.74786e-13
5.6596e-13
5.02813e-14
-5.46609e-13
4.2e-13
3.94154e-14
-4.57084e-13
3.16265e-13
3.14559e-14
-5.2943e-13
2.39391e-13
2.55001e-14
1.42528e-13
-3.02614e-14
2.10136e-14
3.4084e-13
8.15039e-14
2.96781e-14
-1.65638e-14
7.74507e-14
2.82987e-14
-2.38254e-14
6.82662e-14
2.2217e-14
-1.97453e-14
5.9523e-14
1.81923e-14
-1.97197e-14
5.09998e-14
8.25182e-15
-2.01083e-14
4.27731e-14
7.83382e-15
-1.91152e-14
3.48654e-14
6.39972e-15
-1.97604e-14
2.72144e-14
9.83348e-15
-2.27837e-14
1.98501e-14
2.84086e-14
1.27657e-14
7.90279e-14
-1.92511e-15
2.90464e-13
5.86999e-14
5.15085e-14
-6.46839e-14
5.39683e-14
4.47099e-14
-7.2134e-14
4.58564e-14
4.47167e-14
-6.65517e-14
3.79911e-14
3.49438e-14
-6.38053e-14
3.07231e-14
1.84665e-14
-6.11379e-14
2.39869e-14
1.33585e-14
-5.98659e-14
1.77835e-14
1.36322e-14
-5.91344e-14
1.21595e-14
1.32665e-14
-7.05055e-14
6.99677e-15
2.01233e-14
2.6258e-15
5.58778e-14
-4.60916e-15
2.1309e-13
7.4762e-14
7.45844e-14
-1.64434e-13
6.75767e-14
6.7841e-14
-1.36559e-13
5.68295e-14
6.90846e-14
-1.17723e-13
4.6863e-14
5.63659e-14
-1.11834e-13
3.7798e-14
4.38615e-14
-1.06041e-13
2.96102e-14
2.35424e-14
-9.73621e-14
2.23038e-14
1.8991e-14
-1.04684e-13
1.5344e-14
2.28277e-14
-1.195e-13
9.77217e-15
2.81628e-14
3.27261e-15
4.53e-14
-7.73145e-15
9.31527e-14
9.33208e-14
1.19237e-13
-2.8711e-13
8.17164e-14
1.17878e-13
-2.18482e-13
6.70407e-14
1.19553e-13
-1.81239e-13
5.41398e-14
9.76362e-14
-1.68602e-13
4.29704e-14
7.91837e-14
-1.56254e-13
3.30059e-14
4.96594e-14
-1.44794e-13
2.39987e-14
3.83492e-14
-1.49515e-13
1.64455e-14
4.1583e-14
-1.71503e-13
9.66862e-15
4.11616e-14
4.1473e-15
4.69313e-14
-9.98203e-15
-2.40829e-14
1.18072e-13
2.06584e-13
-4.43476e-13
9.96226e-14
2.10102e-13
-3.20898e-13
7.97823e-14
2.02479e-13
-2.60007e-13
6.25907e-14
1.66092e-13
-2.37207e-13
4.82306e-14
1.3506e-13
-2.17273e-13
3.6464e-14
1.07989e-13
-1.95413e-13
2.64731e-14
6.65203e-14
-1.98382e-13
1.77296e-14
5.70772e-14
-2.24972e-13
1.01221e-14
6.35899e-14
4.25865e-15
5.6864e-14
-1.34304e-14
-1.60555e-13
1.51042e-13
3.67112e-13
-6.48612e-13
1.23862e-13
3.72916e-13
-4.2978e-13
9.57828e-14
3.40972e-13
-3.59184e-13
7.3258e-14
2.76433e-13
-3.18279e-13
5.52503e-14
2.21794e-13
-2.85007e-13
4.03026e-14
1.8111e-13
-2.53084e-13
2.84254e-14
1.09398e-13
-2.40618e-13
1.89004e-14
8.72165e-14
-2.80998e-13
1.14435e-14
8.10093e-14
4.0728e-15
7.30734e-14
-1.65766e-14
-5.74212e-13
1.88154e-13
6.45951e-13
-9.26734e-13
1.54824e-13
6.50705e-13
-5.79902e-13
1.16127e-13
5.64914e-13
-4.82182e-13
8.60129e-14
4.42974e-13
-4.18357e-13
6.29344e-14
3.49169e-13
-3.62508e-13
4.52301e-14
2.78204e-13
-3.1669e-13
3.15159e-14
1.91687e-13
-2.86616e-13
2.01154e-14
1.30695e-13
-3.40354e-13
1.17027e-14
1.08945e-13
4.87221e-15
9.63597e-14
-1.97583e-14
-1.10505e-12
3.5176e-13
1.15453e-12
-1.30316e-12
2.27681e-13
1.12504e-12
-7.83366e-13
1.41908e-13
9.21192e-13
-6.37647e-13
1.03304e-13
6.97095e-13
-5.36527e-13
7.40268e-14
5.32394e-13
-4.53321e-13
5.46383e-14
4.15127e-13
-3.88034e-13
3.75236e-14
3.20595e-13
-3.40134e-13
2.42081e-14
1.92531e-13
-4.02094e-13
1.36295e-14
1.49465e-13
5.67052e-15
1.24844e-13
-2.30673e-14
-2.54072e-12
9.07591e-11
2.24095e-11
-1.64693e-12
1.03385e-12
2.08682e-12
-1.05107e-12
2.00851e-13
1.50361e-12
-8.34486e-13
1.68713e-13
1.08553e-12
-6.80032e-13
1.10676e-13
8.04302e-13
-5.60289e-13
6.8864e-14
6.06263e-13
-4.65414e-13
3.27783e-14
4.65265e-13
-3.99144e-13
1.82042e-14
2.71957e-13
-4.67364e-13
9.52695e-15
2.0243e-13
4.21294e-15
1.31409e-13
-2.65692e-14
-1.00033e-09
2.17808e-08
1.19037e-07
-7.68227e-12
1.81073e-10
4.94181e-10
-1.46395e-12
3.10472e-12
1.48044e-12
-1.07629e-12
1.62799e-12
8.73197e-14
-8.54028e-13
1.17548e-12
6.42296e-14
-6.82348e-13
8.59989e-13
5.01254e-14
-5.53616e-13
6.40667e-13
3.98576e-14
-4.6204e-13
4.01675e-13
3.23228e-14
-5.35455e-13
2.69851e-13
2.64991e-14
1.62221e-13
-3.00732e-14
2.23206e-14
3.40622e-13
8.16636e-14
1.61377e-14
-1.72691e-14
7.74314e-14
-2.60191e-15
-2.36897e-14
6.83595e-14
2.95721e-15
-2.06228e-14
5.96022e-14
7.33263e-15
-2.02487e-14
5.1121e-14
2.18127e-14
-2.09843e-14
4.29561e-14
4.90579e-14
-2.06202e-14
3.51204e-14
9.74958e-14
-1.94924e-14
2.76296e-14
3.56759e-13
-1.0046e-14
2.04539e-14
1.37546e-12
1.29151e-14
3.73942e-12
-1.41766e-14
2.89758e-13
5.88691e-14
2.39766e-14
-6.49757e-14
5.40272e-14
-3.687e-15
-7.26198e-14
4.58641e-14
8.58316e-15
-6.69978e-14
3.80621e-14
1.19991e-14
-6.44606e-14
3.08393e-14
2.49921e-14
-6.13998e-14
2.41447e-14
4.96296e-14
-6.17454e-14
1.79651e-14
8.59065e-14
-6.37689e-14
1.24054e-14
2.37471e-13
-6.98693e-14
7.41516e-15
8.20286e-13
2.7299e-15
2.45513e-12
-1.36677e-14
2.12159e-13
7.49978e-14
3.19848e-14
-1.65164e-13
6.77061e-14
-4.03511e-15
-1.36525e-13
5.70318e-14
1.39153e-14
-1.18723e-13
4.70341e-14
1.90696e-14
-1.12027e-13
3.8012e-14
2.9844e-14
-1.06525e-13
2.99593e-14
5.445e-14
-1.00423e-13
2.26659e-14
9.32325e-14
-1.06908e-13
1.55502e-14
1.82125e-13
-1.23878e-13
9.28475e-15
5.39314e-13
3.51265e-15
1.61948e-12
-9.47094e-15
9.24317e-14
9.37798e-14
5.4903e-14
-2.87734e-13
8.19555e-14
7.15948e-15
-2.19006e-13
6.72453e-14
3.25569e-14
-1.81768e-13
5.43991e-14
3.80043e-14
-1.68306e-13
4.32222e-14
4.91059e-14
-1.56696e-13
3.31535e-14
6.806e-14
-1.47681e-13
2.43936e-14
1.05025e-13
-1.52605e-13
1.69919e-14
1.63324e-13
-1.77122e-13
9.93296e-15
3.97401e-13
4.44882e-15
1.12044e-12
-8.6786e-15
-2.51965e-14
1.18845e-13
9.73996e-14
-4.44353e-13
1.00049e-13
4.20551e-14
-3.20817e-13
8.02039e-14
7.13794e-14
-2.60954e-13
6.30788e-14
7.42406e-14
-2.3781e-13
4.87e-14
8.00594e-14
-2.17078e-13
3.70596e-14
1.20789e-13
-1.97344e-13
2.67421e-14
1.25435e-13
-2.03116e-13
1.79498e-14
1.69575e-13
-2.31177e-13
1.08158e-14
3.30889e-13
4.239e-15
8.1561e-13
-1.01876e-14
-1.62598e-13
1.52155e-13
1.77398e-13
-6.49823e-13
1.24499e-13
1.14235e-13
-4.2936e-13
9.6431e-14
1.42816e-13
-3.6095e-13
7.38562e-14
1.37717e-13
-3.18384e-13
5.58538e-14
1.35114e-13
-2.87233e-13
4.07924e-14
1.70186e-13
-2.54544e-13
2.87944e-14
1.62169e-13
-2.44655e-13
1.9306e-14
2.06112e-13
-2.87946e-13
1.16283e-14
3.0743e-13
4.624e-15
6.3022e-13
-1.2583e-14
-5.79846e-13
1.94897e-13
3.26917e-13
-9.2843e-13
1.56035e-13
2.52122e-13
-5.81597e-13
1.17011e-13
2.67098e-13
-4.84146e-13
8.68772e-14
2.39979e-13
-4.19467e-13
6.36759e-14
2.18301e-13
-3.65471e-13
4.59435e-14
2.12796e-13
-3.18284e-13
3.24066e-14
1.73298e-13
-2.90936e-13
2.09223e-14
2.45486e-13
-3.47721e-13
1.23976e-14
3.13157e-13
5.11991e-15
5.19258e-13
-1.73895e-14
-1.11345e-12
3.14756e-13
5.76858e-13
-1.30598e-12
1.85371e-13
5.06255e-13
-7.86429e-13
1.45436e-13
4.75618e-13
-6.40746e-13
1.04692e-13
4.03135e-13
-5.38896e-13
7.53611e-14
3.46796e-13
-4.55993e-13
5.58833e-14
3.06066e-13
-3.91704e-13
3.86318e-14
3.67835e-13
-3.44094e-13
2.48917e-14
3.01532e-13
-4.10557e-13
1.43514e-14
3.42737e-13
6.32634e-15
4.54989e-13
-2.18864e-14
-2.12286e-12
3.97155e-11
-2.68189e-12
-1.77755e-12
3.60437e-13
7.51007e-13
-1.05894e-12
2.56643e-13
8.11134e-13
-8.3863e-13
1.7227e-13
6.51834e-13
-6.84494e-13
1.12855e-13
5.31226e-13
-5.63448e-13
7.09654e-14
4.447e-13
-4.72258e-13
3.40738e-14
5.14284e-13
-4.02891e-13
1.89923e-14
3.24529e-13
-4.76586e-13
1.00957e-14
3.87089e-13
4.80774e-15
4.23436e-13
-2.60573e-14
-4.55187e-10
-8.83349e-09
8.73779e-08
-2.6131e-12
-2.04244e-10
1.31936e-10
-1.31887e-12
3.4026e-15
-5.19252e-13
-1.09065e-12
1.05516e-12