/*--------------------------------*- C++ -*----------------------------------*\
| =========                 |                                                 |
| \\      /  F ield         | OpenFOAM: The Open Source CFD Toolbox           |
|  \\    /   O peration     | Version:  4.1                                   |
|   \\  /    A nd           | Web:      www.OpenFOAM.org                      |
|    \\/     M anipulation  |                                                 |
\*---------------------------------------------------------------------------*/
FoamFile
{
    version     2.0;
    format      ascii;
    class       volVectorField;
    location    "0.9";
    object      U;
}
// * * * * * * * * * * * * * * * * * * * * * * * * * * * * * * * * * * * * * //

dimensions      [0 1 -1 0 0 0 0];

internalField   nonuniform List<vector> 
18000
(
(8.87325e-14 3.84336e-13 -5.78316e-12)
(9.34835e-14 3.84066e-13 -5.71944e-12)
(8.41961e-14 -9.69858e-15 -5.6556e-12)
(7.51356e-14 -1.43153e-14 -5.59321e-12)
(6.63231e-14 -1.40383e-14 -5.53125e-12)
(5.77651e-14 -1.36446e-14 -5.47005e-12)
(4.95042e-14 -1.36772e-14 -5.4094e-12)
(4.16237e-14 -1.36919e-14 -5.35007e-12)
(3.39426e-14 -1.34564e-14 -5.29153e-12)
(2.66059e-14 -9.76261e-15 -5.23523e-12)
(1.35702e-13 3.94464e-13 -7.19683e-12)
(1.47588e-13 3.81115e-13 -6.95099e-12)
(1.29048e-13 -4.8147e-14 -6.71154e-12)
(1.11458e-13 -5.13321e-14 -6.48271e-12)
(9.51807e-14 -4.95717e-14 -6.2637e-12)
(8.0071e-14 -4.75937e-14 -6.05337e-12)
(6.58786e-14 -4.57352e-14 -5.85131e-12)
(5.28793e-14 -4.41383e-14 -5.65767e-12)
(4.06581e-14 -4.23985e-14 -5.47097e-12)
(2.93621e-14 -3.03704e-14 -5.29655e-12)
(1.5178e-13 3.96097e-13 -9.05783e-12)
(1.58802e-13 3.64089e-13 -8.52463e-12)
(1.31261e-13 -1.0423e-13 -8.02126e-12)
(1.06531e-13 -1.02726e-13 -7.55488e-12)
(8.47187e-14 -9.58098e-14 -7.12028e-12)
(6.54064e-14 -8.9856e-14 -6.71579e-12)
(4.82435e-14 -8.43068e-14 -6.33969e-12)
(3.30232e-14 -7.91268e-14 -5.98778e-12)
(1.95351e-14 -7.44275e-14 -5.65994e-12)
(7.64885e-15 -5.20082e-14 -5.35923e-12)
(2.06328e-13 3.82708e-13 -1.15362e-11)
(2.03466e-13 3.23786e-13 -1.05505e-11)
(1.62565e-13 -1.85129e-13 -9.65564e-12)
(1.277e-13 -1.73028e-13 -8.84881e-12)
(9.84158e-14 -1.56914e-13 -8.12339e-12)
(7.36687e-14 -1.42666e-13 -7.46907e-12)
(5.29119e-14 -1.30039e-13 -6.87746e-12)
(3.51862e-14 -1.18804e-13 -6.34198e-12)
(2.02935e-14 -1.08359e-13 -5.85617e-12)
(7.81199e-15 -7.4168e-14 -5.4228e-12)
(2.86851e-13 3.41935e-13 -1.48844e-11)
(2.65202e-13 2.4484e-13 -1.31882e-11)
(2.03979e-13 -3.02623e-13 -1.17092e-11)
(1.5449e-13 -2.70291e-13 -1.04219e-11)
(1.15096e-13 -2.36722e-13 -9.30358e-12)
(8.35439e-14 -2.08359e-13 -8.32714e-12)
(5.8138e-14 -1.84409e-13 -7.47229e-12)
(3.76635e-14 -1.63901e-13 -6.72216e-12)
(2.11564e-14 -1.45533e-13 -6.06098e-12)
(7.89041e-15 -9.744e-14 -5.48765e-12)
(4.08754e-13 2.53492e-13 -1.94732e-11)
(3.52775e-13 1.00918e-13 -1.66628e-11)
(2.59625e-13 -4.74724e-13 -1.4315e-11)
(1.88757e-13 -4.04943e-13 -1.23467e-11)
(1.35553e-13 -3.41737e-13 -1.06977e-11)
(9.50261e-14 -2.90833e-13 -9.30773e-12)
(6.40626e-14 -2.4926e-13 -8.13116e-12)
(4.03137e-14 -2.14821e-13 -7.13048e-12)
(2.20347e-14 -1.85615e-13 -6.27444e-12)
(7.98644e-15 -1.21698e-13 -5.55345e-12)
(5.96742e-13 8.18199e-14 -2.58482e-11)
(4.77304e-13 -1.5295e-13 -2.13047e-11)
(3.33649e-13 -7.31097e-13 -1.76504e-11)
(2.31327e-13 -5.93568e-13 -1.47182e-11)
(1.58968e-13 -4.80561e-13 -1.23534e-11)
(1.06945e-13 -3.9408e-13 -1.04327e-11)
(6.92169e-14 -3.26392e-13 -8.86183e-12)
(4.17264e-14 -2.72872e-13 -7.56896e-12)
(2.15545e-14 -2.2931e-13 -6.49766e-12)
(6.69319e-15 -1.46997e-13 -5.62016e-12)
(-3.46008e-12 -2.39892e-13 -3.48849e-11)
(-3.7634e-12 -5.9696e-13 -2.75911e-11)
(-3.7649e-12 -1.11625e-12 -2.19773e-11)
(-3.70366e-12 -8.59481e-13 -1.76722e-11)
(-3.61055e-12 -6.64918e-13 -1.43408e-11)
(-3.50106e-12 -5.23758e-13 -1.17377e-11)
(-3.38474e-12 -4.18365e-13 -9.68453e-12)
(-3.26704e-12 -3.38334e-13 -8.05111e-12)
(-3.15166e-12 -2.76385e-13 -6.7391e-12)
(-3.10165e-12 -1.73463e-13 -5.69711e-12)
(-6.61075e-09 -1.76943e-12 -9.52338e-11)
(-6.77535e-09 -1.5781e-12 -7.87637e-11)
(-6.39828e-09 -1.1303e-12 -6.56233e-11)
(-6.05211e-09 -6.93747e-13 -5.54184e-11)
(-5.73774e-09 -4.09906e-13 -4.73846e-11)
(-5.45175e-09 -2.23406e-13 -4.09617e-11)
(-5.19092e-09 -9.94406e-14 -3.57574e-11)
(-4.95241e-09 -1.75572e-14 -3.14885e-11)
(-4.73443e-09 -1.25137e-13 -2.79471e-11)
(-4.66221e-09 -3.51594e-13 -2.53996e-11)
(7.33718e-07 -1.83611e-09 -7.72416e-08)
(3.7438e-08 -5.4716e-10 -6.81819e-08)
(2.83596e-08 8.94254e-10 -6.01921e-08)
(2.33804e-08 8.29647e-10 -5.34453e-08)
(1.91331e-08 7.5879e-10 -4.77086e-08)
(1.54767e-08 6.94218e-10 -4.28059e-08)
(1.23076e-08 6.36028e-10 -3.85916e-08)
(9.54109e-09 5.81831e-10 -3.49487e-08)
(6.50028e-09 1.93881e-10 -3.1787e-08)
(-1.3089e-07 -3.60338e-10 -2.98552e-08)
(2.52698e-13 3.64222e-13 -6.25009e-12)
(2.37457e-13 3.44649e-13 -6.17867e-12)
(2.08559e-13 -4.88317e-14 -6.10749e-12)
(1.80657e-13 -5.29482e-14 -6.03707e-12)
(1.53866e-13 -5.24368e-14 -5.96793e-12)
(1.28005e-13 -5.17551e-14 -5.89997e-12)
(1.03111e-13 -5.12753e-14 -5.83163e-12)
(7.92182e-14 -5.06739e-14 -5.76571e-12)
(5.60221e-14 -4.94526e-14 -5.70036e-12)
(3.4294e-14 -2.87662e-14 -5.63681e-12)
(5.03875e-13 3.19934e-13 -7.84047e-12)
(4.66046e-13 2.37431e-13 -7.56296e-12)
(4.00012e-13 -1.88099e-13 -7.29224e-12)
(3.38125e-13 -1.86115e-13 -7.03447e-12)
(2.80364e-13 -1.79758e-13 -6.78827e-12)
(2.26465e-13 -1.73623e-13 -6.5517e-12)
(1.7614e-13 -1.6757e-13 -6.32595e-12)
(1.29072e-13 -1.62159e-13 -6.10893e-12)
(8.50521e-14 -1.54928e-13 -5.90109e-12)
(4.46072e-14 -8.81722e-14 -5.70538e-12)
(6.15485e-13 2.41039e-13 -9.9621e-12)
(5.49478e-13 7.06849e-14 -9.34996e-12)
(4.5564e-13 -3.82887e-13 -8.77694e-12)
(3.70989e-13 -3.65004e-13 -8.24554e-12)
(2.95516e-13 -3.43321e-13 -7.75361e-12)
(2.28104e-13 -3.23007e-13 -7.2968e-12)
(1.67784e-13 -3.04567e-13 -6.87359e-12)
(1.13815e-13 -2.87419e-13 -6.47887e-12)
(6.56562e-14 -2.68881e-13 -6.11141e-12)
(2.31486e-14 -1.50925e-13 -5.77625e-12)
(7.96304e-13 1.07956e-13 -1.28276e-11)
(6.862e-13 -1.83906e-13 -1.16809e-11)
(5.52604e-13 -6.54433e-13 -1.06485e-11)
(4.37165e-13 -6.03855e-13 -9.7214e-12)
(3.38846e-13 -5.52128e-13 -8.89257e-12)
(2.54605e-13 -5.06209e-13 -8.14873e-12)
(1.82512e-13 -4.6494e-13 -7.48006e-12)
(1.20831e-13 -4.27735e-13 -6.87738e-12)
(6.79428e-14 -3.90596e-13 -6.33137e-12)
(2.35501e-14 -2.15863e-13 -5.84681e-12)
(1.04596e-12 -1.10658e-13 -1.67657e-11)
(8.6723e-13 -5.7091e-13 -1.47608e-11)
(6.76129e-13 -1.03333e-12 -1.30302e-11)
(5.18705e-13 -9.22412e-13 -1.15342e-11)
(3.90275e-13 -8.18876e-13 -1.02441e-11)
(2.85146e-13 -7.29886e-13 -9.12644e-12)
(1.99053e-13 -6.52478e-13 -8.15403e-12)
(1.28471e-13 -5.85203e-13 -7.30538e-12)
(7.04896e-14 -5.21611e-13 -6.56136e-12)
(2.38743e-14 -2.83723e-13 -5.9199e-12)
(1.39551e-12 -4.63376e-13 -2.22763e-11)
(1.11156e-12 -1.15629e-12 -1.88856e-11)
(8.35418e-13 -1.5643e-12 -1.60944e-11)
(6.19698e-13 -1.34879e-12 -1.37757e-11)
(4.51724e-13 -1.16013e-12 -1.18546e-11)
(3.20352e-13 -1.00355e-12 -1.02507e-11)
(2.17412e-13 -8.72137e-13 -8.90494e-12)
(1.36593e-13 -7.61689e-13 -7.76821e-12)
(7.31714e-14 -6.62182e-13 -6.80284e-12)
(2.41591e-14 -3.54113e-13 -5.99472e-12)
(1.89708e-12 -1.02401e-12 -3.01237e-11)
(1.44446e-12 -2.04173e-12 -2.45066e-11)
(1.04262e-12 -2.31649e-12 -2.00804e-11)
(7.45387e-13 -1.92139e-12 -1.65713e-11)
(5.25148e-13 -1.59744e-12 -1.37856e-11)
(3.60862e-13 -1.33876e-12 -1.15499e-11)
(2.37728e-13 -1.12967e-12 -9.74127e-12)
(1.45326e-13 -9.59597e-13 -8.26754e-12)
(7.58198e-14 -8.13308e-13 -7.05486e-12)
(2.44546e-14 -4.27825e-13 -6.07099e-12)
(2.51259e-12 -1.93386e-12 -4.15933e-11)
(1.5761e-12 -3.3978e-12 -3.23006e-11)
(1.02747e-12 -3.38609e-12 -2.53455e-11)
(6.50241e-13 -2.69476e-12 -2.01044e-11)
(3.87615e-13 -2.15936e-12 -1.61284e-11)
(2.03188e-13 -1.74983e-12 -1.30693e-11)
(7.30697e-14 -1.43148e-12 -1.069e-11)
(-1.87701e-14 -1.1817e-12 -8.81782e-12)
(-8.37574e-14 -9.75596e-13 -7.32845e-12)
(-1.29792e-13 -5.04173e-13 -6.15801e-12)
(-2.65544e-10 -4.92991e-12 -1.1023e-10)
(-6.61996e-10 -6.76007e-12 -8.93148e-11)
(-5.48366e-10 -5.45871e-12 -7.31607e-11)
(-4.55262e-10 -4.23421e-12 -6.09389e-11)
(-3.81899e-10 -3.33955e-12 -5.15524e-11)
(-3.23269e-10 -2.67782e-12 -4.4193e-11)
(-2.75922e-10 -2.17812e-12 -3.83254e-11)
(-2.37317e-10 -1.79576e-12 -3.35766e-11)
(-2.05613e-10 -1.49314e-12 -2.96792e-11)
(-1.8284e-10 -9.31261e-13 -2.68779e-11)
(5.15552e-07 -2.88192e-09 -8.59967e-08)
(-8.98413e-09 -2.27314e-09 -7.52627e-08)
(-1.0671e-08 -7.94227e-10 -6.56048e-08)
(-1.00065e-08 -7.30288e-10 -5.76378e-08)
(-9.35163e-09 -6.80646e-10 -5.10033e-08)
(-8.73834e-09 -6.32155e-10 -4.54282e-08)
(-8.17521e-09 -5.86476e-10 -4.07032e-08)
(-7.6653e-09 -5.44184e-10 -3.66673e-08)
(-7.2557e-09 -5.14623e-10 -3.31998e-08)
(-1.09639e-08 -5.5376e-10 -3.10507e-08)
(2.32295e-13 3.67402e-13 -4.84091e-13)
(2.19106e-13 3.45351e-13 -4.75628e-13)
(1.92086e-13 -4.83559e-14 -4.6728e-13)
(1.66339e-13 -5.24959e-14 -4.5888e-13)
(1.41655e-13 -5.15676e-14 -4.50719e-13)
(1.17819e-13 -5.11831e-14 -4.42893e-13)
(9.53259e-14 -5.07201e-14 -4.34969e-13)
(7.35582e-14 -4.98545e-14 -4.27779e-13)
(5.27162e-14 -4.89847e-14 -4.2052e-13)
(3.3249e-14 -2.58186e-14 -4.1329e-13)
(5.0418e-13 3.31335e-13 -6.7003e-13)
(4.65308e-13 2.38165e-13 -6.36158e-13)
(3.98748e-13 -1.87402e-13 -6.02775e-13)
(3.36418e-13 -1.84884e-13 -5.71597e-13)
(2.78553e-13 -1.7847e-13 -5.42814e-13)
(2.24642e-13 -1.71917e-13 -5.16012e-13)
(1.74659e-13 -1.65637e-13 -4.89761e-13)
(1.27916e-13 -1.60067e-13 -4.65097e-13)
(8.42797e-14 -1.52842e-13 -4.43526e-13)
(4.46362e-14 -7.9794e-14 -4.21081e-13)
(6.23665e-13 2.6189e-13 -9.45749e-13)
(5.54209e-13 6.79447e-14 -8.62088e-13)
(4.58221e-13 -3.84491e-13 -7.87565e-13)
(3.71819e-13 -3.65665e-13 -7.19368e-13)
(2.95255e-13 -3.42575e-13 -6.58416e-13)
(2.2732e-13 -3.21451e-13 -6.02815e-13)
(1.66787e-13 -3.02183e-13 -5.52975e-13)
(1.13038e-13 -2.84744e-13 -5.0808e-13)
(6.49373e-14 -2.6533e-13 -4.66484e-13)
(2.31047e-14 -1.36199e-13 -4.30437e-13)
(8.18068e-13 1.41206e-13 -1.35804e-12)
(7.00299e-13 -1.96872e-13 -1.18745e-12)
(5.61167e-13 -6.63393e-13 -1.04038e-12)
(4.41909e-13 -6.09691e-13 -9.12317e-13)
(3.40911e-13 -5.5482e-13 -8.02579e-13)
(2.55188e-13 -5.06283e-13 -7.08047e-13)
(1.82261e-13 -4.62947e-13 -6.26614e-13)
(1.20238e-13 -4.24943e-13 -5.55605e-13)
(6.74756e-14 -3.86636e-13 -4.93296e-13)
(2.34777e-14 -1.95786e-13 -4.39472e-13)
(1.09197e-12 -6.34364e-14 -1.99262e-12)
(8.96401e-13 -6.06932e-13 -1.66137e-12)
(6.94222e-13 -1.05869e-12 -1.39228e-12)
(5.2894e-13 -9.3967e-13 -1.16954e-12)
(3.95567e-13 -8.28786e-13 -9.86392e-13)
(2.87476e-13 -7.34307e-13 -8.36347e-13)
(1.99728e-13 -6.53187e-13 -7.1212e-13)
(1.28288e-13 -5.83187e-13 -6.08782e-13)
(7.03207e-14 -5.16823e-13 -5.21976e-13)
(2.40783e-14 -2.57389e-13 -4.50559e-13)
(1.48352e-12 -4.04285e-13 -2.99291e-12)
(1.16577e-12 -1.2407e-12 -2.36651e-12)
(8.68244e-13 -1.62204e-12 -1.88876e-12)
(6.37852e-13 -1.3877e-12 -1.51142e-12)
(4.61379e-13 -1.18333e-12 -1.22074e-12)
(3.24855e-13 -1.01573e-12 -9.92761e-13)
(2.19115e-13 -8.76864e-13 -8.13212e-13)
(1.37124e-13 -7.6133e-13 -6.7004e-13)
(7.31777e-14 -6.57384e-13 -5.53067e-13)
(2.45257e-14 -3.22719e-13 -4.61943e-13)
(2.05955e-12 -9.60103e-13 -4.60604e-12)
(1.54047e-12 -2.22004e-12 -3.43578e-12)
(1.09842e-12 -2.43526e-12 -2.59714e-12)
(7.75849e-13 -1.99889e-12 -1.97422e-12)
(5.41154e-13 -1.64309e-12 -1.5211e-12)
(3.68574e-13 -1.3642e-12 -1.18375e-12)
(2.41067e-13 -1.14111e-12 -9.3073e-13)
(1.46523e-13 -9.62365e-13 -7.38048e-13)
(7.60578e-14 -8.09236e-13 -5.87706e-13)
(2.49439e-14 -3.90714e-13 -4.75223e-13)
(3.17917e-12 -1.88983e-12 -7.29881e-12)
(2.07514e-12 -3.758e-12 -5.09558e-12)
(1.40674e-12 -3.61433e-12 -3.6292e-12)
(9.50444e-13 -2.83739e-12 -2.60992e-12)
(6.36165e-13 -2.24218e-12 -1.91252e-12)
(4.16907e-13 -1.79548e-12 -1.42117e-12)
(2.62665e-13 -1.45364e-12 -1.07046e-12)
(1.53611e-13 -1.1898e-12 -8.14979e-13)
(7.61232e-14 -9.73038e-13 -6.26843e-13)
(2.22867e-14 -4.62038e-13 -4.89006e-13)
(4.52634e-10 -4.27542e-12 -1.62277e-11)
(-2.78831e-11 -6.97205e-12 -1.12109e-11)
(-2.29023e-11 -5.45818e-12 -7.95581e-12)
(-1.66582e-11 -4.08021e-12 -5.79988e-12)
(-1.23696e-11 -3.09516e-12 -4.36244e-12)
(-9.34774e-12 -2.39061e-12 -3.37285e-12)
(-7.17824e-12 -1.87379e-12 -2.67476e-12)
(-5.59502e-12 -1.48992e-12 -2.17095e-12)
(-4.42393e-12 -1.18874e-12 -1.79835e-12)
(-3.54639e-12 -5.72414e-13 -1.5331e-12)
(4.46754e-07 -1.69543e-09 -9.4815e-09)
(1.08422e-09 -1.52864e-09 -7.45556e-09)
(-7.34698e-10 -1.92655e-10 -5.65923e-09)
(-6.06276e-10 -1.43323e-10 -4.35806e-09)
(-4.96573e-10 -1.14395e-10 -3.40868e-09)
(-4.11045e-10 -9.21829e-11 -2.70247e-09)
(-3.43137e-10 -7.50025e-11 -2.16903e-09)
(-2.88911e-10 -6.15879e-11 -1.76043e-09)
(-2.47411e-10 -5.10166e-11 -1.44382e-09)
(-2.93834e-10 -4.49389e-11 -1.21881e-09)
(2.26798e-13 3.68035e-13 -2.23847e-14)
(2.1423e-13 3.45589e-13 -2.13677e-14)
(1.87825e-13 -4.79729e-14 -1.89509e-14)
(1.62579e-13 -5.212e-14 -1.78684e-14)
(1.38553e-13 -5.14885e-14 -1.62311e-14)
(1.15523e-13 -5.08182e-14 -1.50585e-14)
(9.33844e-14 -5.01849e-14 -1.38685e-14)
(7.21939e-14 -4.94176e-14 -1.23985e-14)
(5.20213e-14 -4.83123e-14 -1.19204e-14)
(3.30197e-14 -2.51773e-14 -1.20555e-14)
(4.98027e-13 3.34357e-13 -3.39071e-14)
(4.60053e-13 2.4029e-13 -3.06839e-14)
(3.94308e-13 -1.855e-13 -2.82295e-14)
(3.32778e-13 -1.8297e-13 -2.4816e-14)
(2.75635e-13 -1.76078e-13 -2.18185e-14)
(2.22421e-13 -1.70068e-13 -2.01365e-14)
(1.72992e-13 -1.64223e-13 -1.76071e-14)
(1.2687e-13 -1.5797e-13 -1.57232e-14)
(8.37662e-14 -1.50819e-13 -1.44256e-14)
(4.45752e-14 -7.75609e-14 -1.34805e-14)
(6.15565e-13 2.69201e-13 -5.39398e-14)
(5.47676e-13 7.29158e-14 -4.77962e-14)
(4.5285e-13 -3.79711e-13 -4.1301e-14)
(3.67561e-13 -3.61114e-13 -3.56133e-14)
(2.91944e-13 -3.38678e-13 -3.08775e-14)
(2.24757e-13 -3.17781e-13 -2.66911e-14)
(1.65154e-13 -2.98563e-13 -2.27316e-14)
(1.12058e-13 -2.81302e-13 -2.01727e-14)
(6.45803e-14 -2.62124e-13 -1.79015e-14)
(2.32676e-14 -1.32448e-13 -1.63983e-14)
(8.07612e-13 1.55885e-13 -8.76147e-14)
(6.91973e-13 -1.87272e-13 -7.54801e-14)
(5.54732e-13 -6.5526e-13 -6.31672e-14)
(4.36907e-13 -6.02265e-13 -5.27641e-14)
(3.37173e-13 -5.47969e-13 -4.3995e-14)
(2.52562e-13 -5.00074e-13 -3.73946e-14)
(1.80592e-13 -4.57445e-13 -3.12208e-14)
(1.19402e-13 -4.1958e-13 -2.62491e-14)
(6.73464e-14 -3.81722e-13 -2.31225e-14)
(2.38935e-14 -1.91008e-13 -1.99733e-14)
(1.07853e-12 -3.72492e-14 -1.48365e-13)
(8.86132e-13 -5.91103e-13 -1.21712e-13)
(6.8657e-13 -1.04501e-12 -9.78453e-14)
(5.2322e-13 -9.28014e-13 -7.83257e-14)
(3.91594e-13 -8.18745e-13 -6.35149e-14)
(2.84822e-13 -7.25318e-13 -5.11045e-14)
(1.98191e-13 -6.44989e-13 -4.17184e-14)
(1.27781e-13 -5.75903e-13 -3.58411e-14)
(7.01377e-14 -5.10566e-13 -3.1201e-14)
(2.4535e-14 -2.51219e-13 -2.60477e-14)
(1.46607e-12 -3.5776e-13 -2.56833e-13)
(1.15306e-12 -1.21558e-12 -1.98549e-13)
(8.59035e-13 -1.60182e-12 -1.53826e-13)
(6.3142e-13 -1.37082e-12 -1.17859e-13)
(4.57107e-13 -1.16872e-12 -9.21394e-14)
(3.22257e-13 -1.00342e-12 -7.32235e-14)
(2.17838e-13 -8.66083e-13 -5.84382e-14)
(1.3666e-13 -7.52784e-13 -4.79008e-14)
(7.32752e-14 -6.50239e-13 -3.85088e-14)
(2.5111e-14 -3.14999e-13 -3.23718e-14)
(2.03725e-12 -8.79231e-13 -4.50404e-13)
(1.52452e-12 -2.1825e-12 -3.29417e-13)
(1.08752e-12 -2.40529e-12 -2.39879e-13)
(7.68692e-13 -1.97495e-12 -1.77717e-13)
(5.36695e-13 -1.62363e-12 -1.33236e-13)
(3.66067e-13 -1.34799e-12 -1.01807e-13)
(2.39838e-13 -1.12789e-12 -7.94676e-14)
(1.46119e-13 -9.51997e-13 -6.31025e-14)
(7.66678e-14 -8.00684e-13 -5.04245e-14)
(2.57296e-14 -3.82161e-13 -4.06988e-14)
(3.16455e-12 -1.74936e-12 -8.07678e-13)
(2.05642e-12 -3.70318e-12 -5.4913e-13)
(1.39492e-12 -3.57166e-12 -3.78912e-13)
(9.44228e-13 -2.80497e-12 -2.65685e-13)
(6.33849e-13 -2.21647e-12 -1.91846e-13)
(4.17251e-13 -1.77567e-12 -1.41128e-13)
(2.64652e-13 -1.43818e-12 -1.05717e-13)
(1.56707e-13 -1.17719e-12 -8.12638e-14)
(7.99507e-14 -9.63438e-13 -6.43706e-14)
(2.65241e-14 -4.52683e-13 -5.07379e-14)
(5.12137e-10 -3.9342e-12 -1.82722e-12)
(5.61879e-12 -6.81002e-12 -9.32209e-13)
(1.00144e-12 -5.30201e-12 -6.06982e-13)
(6.4979e-13 -3.95595e-12 -4.16279e-13)
(4.19503e-13 -2.99524e-12 -2.9515e-13)
(2.55934e-13 -2.30916e-12 -2.17297e-13)
(1.42241e-13 -1.80653e-12 -1.64385e-13)
(6.35917e-14 -1.43352e-12 -1.27966e-13)
(9.35623e-15 -1.14041e-12 -1.01899e-13)
(-2.55108e-14 -5.27512e-13 -8.34201e-14)
(4.43406e-07 -1.46514e-09 -1.12541e-09)
(1.98457e-09 -1.35584e-09 -3.93924e-10)
(-2.7229e-11 -3.109e-11 -2.55522e-10)
(-2.39091e-11 -1.40947e-11 -1.70926e-10)
(-1.71546e-11 -9.94872e-12 -1.17335e-10)
(-1.25701e-11 -7.19948e-12 -8.22946e-11)
(-9.362e-12 -5.30012e-12 -5.88486e-11)
(-7.08135e-12 -3.96924e-12 -4.28396e-11)
(-5.4894e-12 -3.00554e-12 -3.17138e-11)
(-5.45071e-12 -1.91183e-12 -2.38638e-11)
(2.26936e-13 3.67959e-13 -1.15485e-14)
(2.14273e-13 3.44967e-13 -1.0457e-14)
(1.88035e-13 -4.87756e-14 -7.92625e-15)
(1.62719e-13 -5.26238e-14 -5.67752e-15)
(1.38616e-13 -5.17495e-14 -4.50155e-15)
(1.15457e-13 -5.12034e-14 -3.42531e-15)
(9.35028e-14 -5.08764e-14 -2.71266e-15)
(7.23802e-14 -4.97427e-14 -1.56408e-15)
(5.21015e-14 -4.82453e-14 -5.08214e-16)
(3.31409e-14 -2.54076e-14 -4.92284e-16)
(4.98672e-13 3.34102e-13 -1.63926e-14)
(4.60606e-13 2.39915e-13 -1.46403e-14)
(3.94852e-13 -1.85921e-13 -1.14459e-14)
(3.33146e-13 -1.83816e-13 -9.7948e-15)
(2.75968e-13 -1.76908e-13 -6.78249e-15)
(2.22667e-13 -1.70344e-13 -4.85483e-15)
(1.73259e-13 -1.6432e-13 -4.23985e-15)
(1.27242e-13 -1.58437e-13 -3.69519e-15)
(8.4129e-14 -1.50975e-13 -2.55911e-15)
(4.49649e-14 -7.74831e-14 -1.75242e-15)
(6.16805e-13 2.69005e-13 -2.71042e-14)
(5.48857e-13 7.21567e-14 -2.40933e-14)
(4.53787e-13 -3.80895e-13 -1.95378e-14)
(3.68387e-13 -3.62148e-13 -1.54782e-14)
(2.92706e-13 -3.39155e-13 -1.23109e-14)
(2.25525e-13 -3.18341e-13 -9.74336e-15)
(1.65723e-13 -2.98993e-13 -7.85917e-15)
(1.12596e-13 -2.81396e-13 -6.65832e-15)
(6.51447e-14 -2.62028e-13 -6.19802e-15)
(2.37575e-14 -1.32581e-13 -5.559e-15)
(8.09855e-13 1.55664e-13 -4.64259e-14)
(6.94139e-13 -1.8841e-13 -4.04982e-14)
(5.56504e-13 -6.56557e-13 -3.36859e-14)
(4.3845e-13 -6.03553e-13 -2.74317e-14)
(3.38539e-13 -5.48981e-13 -2.24214e-14)
(2.53661e-13 -5.0093e-13 -1.8351e-14)
(1.81579e-13 -4.58237e-13 -1.55188e-14)
(1.20373e-13 -4.20156e-13 -1.32458e-14)
(6.83102e-14 -3.82084e-13 -1.12925e-14)
(2.46072e-14 -1.90636e-13 -1.06463e-14)
(1.0826e-12 -3.72632e-14 -8.16425e-14)
(8.89658e-13 -5.9324e-13 -7.07378e-14)
(6.89558e-13 -1.04795e-12 -5.74852e-14)
(5.25684e-13 -9.30252e-13 -4.61986e-14)
(3.93669e-13 -8.20561e-13 -3.84517e-14)
(2.86616e-13 -7.27093e-13 -3.15325e-14)
(1.99737e-13 -6.45982e-13 -2.57035e-14)
(1.29093e-13 -5.76225e-13 -2.23954e-14)
(7.1409e-14 -5.11261e-13 -1.96327e-14)
(2.56203e-14 -2.51769e-13 -1.68674e-14)
(1.47296e-12 -3.58788e-13 -1.44487e-13)
(1.15889e-12 -1.22008e-12 -1.20096e-13)
(8.63678e-13 -1.60619e-12 -9.59186e-14)
(6.35313e-13 -1.37489e-12 -7.66121e-14)
(4.60222e-13 -1.17189e-12 -6.17593e-14)
(3.24916e-13 -1.00605e-12 -5.12917e-14)
(2.20053e-13 -8.6841e-13 -4.12708e-14)
(1.38501e-13 -7.54318e-13 -3.45733e-14)
(7.47707e-14 -6.51512e-13 -3.01458e-14)
(2.64046e-14 -3.1567e-13 -2.55719e-14)
(2.04885e-12 -8.80873e-13 -2.57746e-13)
(1.53413e-12 -2.19172e-12 -2.06361e-13)
(1.09468e-12 -2.41415e-12 -1.58967e-13)
(7.74276e-13 -1.98199e-12 -1.23065e-13)
(5.41166e-13 -1.62943e-12 -9.78973e-14)
(3.69541e-13 -1.35272e-12 -7.79013e-14)
(2.42687e-13 -1.13151e-12 -6.27638e-14)
(1.48527e-13 -9.54692e-13 -5.17422e-14)
(7.85592e-14 -8.03284e-13 -4.335e-14)
(2.73799e-14 -3.83548e-13 -3.63954e-14)
(3.20184e-12 -1.75295e-12 -4.62911e-13)
(2.07107e-12 -3.722e-12 -3.51962e-13)
(1.40569e-12 -3.58817e-12 -2.5786e-13)
(9.52555e-13 -2.81751e-12 -1.93695e-13)
(6.40214e-13 -2.22642e-12 -1.48438e-13)
(4.22206e-13 -1.78352e-12 -1.15629e-13)
(2.6851e-13 -1.44422e-12 -9.13215e-14)
(1.59683e-13 -1.18204e-12 -7.32888e-14)
(8.22348e-14 -9.67267e-13 -5.95564e-14)
(2.83858e-14 -4.54903e-13 -5.01113e-14)
(5.44832e-10 -3.99466e-12 -1.17329e-12)
(7.26251e-12 -6.89317e-12 -5.94238e-13)
(1.8162e-12 -5.32976e-12 -4.15357e-13)
(1.16435e-12 -3.97618e-12 -3.0111e-13)
(7.50043e-13 -3.01077e-12 -2.22565e-13)
(4.7542e-13 -2.3209e-12 -1.67979e-13)
(2.9136e-13 -1.81541e-12 -1.28045e-13)
(1.67047e-13 -1.44024e-12 -1.00412e-13)
(8.22405e-14 -1.14568e-12 -7.94157e-14)
(2.59484e-14 -5.2996e-13 -6.42488e-14)
(4.70902e-07 -1.55e-09 -8.29014e-10)
(2.25603e-09 -1.41802e-09 -2.38568e-11)
(7.26362e-12 -2.0069e-11 -9.12039e-12)
(3.98523e-13 -5.96724e-12 -5.37155e-12)
(2.80154e-13 -4.24278e-12 -3.25188e-12)
(2.04145e-13 -3.11576e-12 -2.0483e-12)
(1.41297e-13 -2.33535e-12 -1.32909e-12)
(9.3442e-14 -1.78457e-12 -8.85852e-13)
(5.66944e-14 -1.37349e-12 -6.0283e-13)
(1.84217e-14 -6.33492e-13 -4.15291e-13)
(2.27428e-13 3.67617e-13 -1.38654e-14)
(2.14724e-13 3.44192e-13 -1.1615e-14)
(1.88248e-13 -4.98261e-14 -9.76887e-15)
(1.63051e-13 -5.34381e-14 -6.67834e-15)
(1.38773e-13 -5.23438e-14 -5.12007e-15)
(1.15616e-13 -5.14867e-14 -2.99715e-15)
(9.35188e-14 -5.08862e-14 -2.09973e-15)
(7.24539e-14 -5.02628e-14 -1.54444e-15)
(5.22959e-14 -4.87043e-14 -8.02122e-16)
(3.32014e-14 -2.50955e-14 -1.47197e-15)
(4.99978e-13 3.33739e-13 -2.02231e-14)
(4.61789e-13 2.38513e-13 -1.80179e-14)
(3.95716e-13 -1.87196e-13 -1.28149e-14)
(3.33999e-13 -1.84629e-13 -1.05707e-14)
(2.76608e-13 -1.77855e-13 -8.0041e-15)
(2.23204e-13 -1.70924e-13 -5.78034e-15)
(1.73647e-13 -1.64552e-13 -4.1747e-15)
(1.27565e-13 -1.58518e-13 -3.41792e-15)
(8.45937e-14 -1.51493e-13 -3.35745e-15)
(4.53389e-14 -7.79534e-14 -2.75171e-15)
(6.19196e-13 2.68234e-13 -3.23179e-14)
(5.50893e-13 7.0413e-14 -2.88246e-14)
(4.55654e-13 -3.82614e-13 -2.31632e-14)
(3.6981e-13 -3.63563e-13 -1.87847e-14)
(2.93979e-13 -3.40597e-13 -1.45132e-14)
(2.26557e-13 -3.19251e-13 -1.13489e-14)
(1.66703e-13 -2.99561e-13 -9.3149e-15)
(1.13415e-13 -2.81791e-13 -8.46679e-15)
(6.58633e-14 -2.62417e-13 -7.35929e-15)
(2.46168e-14 -1.33032e-13 -6.63323e-15)
(8.13988e-13 1.5398e-13 -5.63075e-14)
(6.97595e-13 -1.91224e-13 -4.85572e-14)
(5.5944e-13 -6.59441e-13 -4.00209e-14)
(4.40817e-13 -6.05922e-13 -3.23104e-14)
(3.40596e-13 -5.50945e-13 -2.6154e-14)
(2.55486e-13 -5.0232e-13 -2.10327e-14)
(1.83075e-13 -4.59135e-13 -1.80946e-14)
(1.21669e-13 -4.21041e-13 -1.61138e-14)
(6.93361e-14 -3.82611e-13 -1.454e-14)
(2.56111e-14 -1.90915e-13 -1.2607e-14)
(1.08942e-12 -4.06692e-14 -9.89082e-14)
(8.95388e-13 -5.98279e-13 -8.38122e-14)
(6.94107e-13 -1.05266e-12 -6.86573e-14)
(5.29412e-13 -9.34128e-13 -5.5883e-14)
(3.96739e-13 -8.23627e-13 -4.63448e-14)
(2.89294e-13 -7.29751e-13 -3.87787e-14)
(2.01792e-13 -6.48226e-13 -3.18483e-14)
(1.30847e-13 -5.78083e-13 -2.71514e-14)
(7.29194e-14 -5.12569e-13 -2.29395e-14)
(2.68028e-14 -2.52404e-13 -2.07703e-14)
(1.48438e-12 -3.65045e-13 -1.72532e-13)
(1.16816e-12 -1.22949e-12 -1.44471e-13)
(8.70892e-13 -1.61489e-12 -1.14692e-13)
(6.40851e-13 -1.38159e-12 -9.13682e-14)
(4.64736e-13 -1.17709e-12 -7.44662e-14)
(3.2847e-13 -1.01058e-12 -6.19332e-14)
(2.22979e-13 -8.72122e-13 -5.04572e-14)
(1.40861e-13 -7.56946e-13 -4.20067e-14)
(7.67816e-14 -6.53817e-13 -3.61533e-14)
(2.80787e-14 -3.16884e-13 -3.16667e-14)
(2.06813e-12 -8.9385e-13 -3.05495e-13)
(1.54893e-12 -2.20924e-12 -2.44705e-13)
(1.10578e-12 -2.42958e-12 -1.90252e-13)
(7.82681e-13 -1.99387e-12 -1.48293e-13)
(5.47641e-13 -1.63861e-12 -1.18446e-13)
(3.74577e-13 -1.36032e-12 -9.5118e-14)
(2.46732e-13 -1.13756e-12 -7.70007e-14)
(1.51636e-13 -9.59465e-13 -6.22699e-14)
(8.10053e-14 -8.06929e-13 -5.23663e-14)
(2.94566e-14 -3.85577e-13 -4.47963e-14)
(3.24645e-12 -1.77879e-12 -5.44009e-13)
(2.09494e-12 -3.75573e-12 -4.16723e-13)
(1.42255e-12 -3.61585e-12 -3.10059e-13)
(9.64854e-13 -2.83816e-12 -2.34557e-13)
(6.49218e-13 -2.242e-12 -1.80964e-13)
(4.28989e-13 -1.79573e-12 -1.42054e-13)
(2.73584e-13 -1.45409e-12 -1.13117e-13)
(1.63615e-13 -1.18969e-12 -8.91097e-14)
(8.52522e-14 -9.73027e-13 -7.21865e-14)
(3.07525e-14 -4.5799e-13 -6.08052e-14)
(5.80198e-10 -4.03528e-12 -8.15262e-13)
(7.7288e-12 -6.98874e-12 -7.02946e-13)
(1.86523e-12 -5.37981e-12 -5.04167e-13)
(1.19382e-12 -4.0117e-12 -3.65499e-13)
(7.69159e-13 -3.03687e-12 -2.71844e-13)
(4.88291e-13 -2.34075e-12 -2.05579e-13)
(3.00367e-13 -1.83045e-12 -1.57703e-13)
(1.73476e-13 -1.45162e-12 -1.22534e-13)
(8.68794e-14 -1.1545e-12 -9.72081e-14)
(2.93154e-14 -5.34888e-13 -7.90249e-14)
(5.13139e-07 -1.61693e-09 -4.41369e-10)
(2.44115e-09 -1.50809e-09 -1.14734e-12)
(9.60672e-12 -2.06123e-11 -1.02384e-12)
(1.17159e-12 -5.70738e-12 -6.81786e-13)
(7.69776e-13 -4.08831e-12 -4.6396e-13)
(5.17235e-13 -3.02248e-12 -3.27769e-13)
(3.4829e-13 -2.2783e-12 -2.38678e-13)
(2.33204e-13 -1.74917e-12 -1.76227e-13)
(1.53812e-13 -1.35127e-12 -1.33607e-13)
(9.95512e-14 -6.16538e-13 -1.04138e-13)
(2.28102e-13 3.67044e-13 -1.587e-14)
(2.15394e-13 3.43339e-13 -1.39148e-14)
(1.88603e-13 -5.07266e-14 -1.05795e-14)
(1.63397e-13 -5.4469e-14 -8.4307e-15)
(1.39106e-13 -5.32122e-14 -6.36205e-15)
(1.15905e-13 -5.24051e-14 -4.37295e-15)
(9.38262e-14 -5.14561e-14 -2.96005e-15)
(7.27108e-14 -5.02827e-14 -4.98444e-15)
(5.26121e-14 -4.83775e-14 -1.57742e-14)
(3.34551e-14 -2.54632e-14 -4.45999e-14)
(5.01562e-13 3.33089e-13 -2.40523e-14)
(4.63229e-13 2.37044e-13 -2.00585e-14)
(3.96902e-13 -1.88805e-13 -1.60429e-14)
(3.34975e-13 -1.85699e-13 -1.25779e-14)
(2.77419e-13 -1.78805e-13 -1.02259e-14)
(2.23957e-13 -1.71877e-13 -7.75258e-15)
(1.74373e-13 -1.65283e-13 -6.5239e-15)
(1.28317e-13 -1.58815e-13 -6.37706e-15)
(8.51893e-14 -1.5141e-13 -1.09768e-14)
(4.58357e-14 -7.8614e-14 -3.2004e-14)
(6.22035e-13 2.67282e-13 -3.81505e-14)
(5.53256e-13 6.86554e-14 -3.21348e-14)
(4.57723e-13 -3.84692e-13 -2.58503e-14)
(3.71571e-13 -3.65472e-13 -2.1066e-14)
(2.95394e-13 -3.42057e-13 -1.72015e-14)
(2.27816e-13 -3.20434e-13 -1.43804e-14)
(1.67827e-13 -3.00215e-13 -1.21728e-14)
(1.1454e-13 -2.82309e-13 -1.18255e-14)
(6.68921e-14 -2.63025e-13 -1.46813e-14)
(2.53177e-14 -1.33944e-13 -2.65096e-14)
(8.18947e-13 1.51922e-13 -6.48298e-14)
(7.01685e-13 -1.94477e-13 -5.43517e-14)
(5.62826e-13 -6.62596e-13 -4.45766e-14)
(4.43694e-13 -6.08806e-13 -3.67335e-14)
(3.43111e-13 -5.5337e-13 -3.05832e-14)
(2.57683e-13 -5.04223e-13 -2.65259e-14)
(1.84939e-13 -4.60396e-13 -2.31502e-14)
(1.23195e-13 -4.21811e-13 -2.05767e-14)
(7.07113e-14 -3.83873e-13 -2.1213e-14)
(2.68042e-14 -1.92206e-13 -2.74245e-14)
(1.09763e-12 -4.46276e-14 -1.13691e-13)
(9.02183e-13 -6.04138e-13 -9.39163e-14)
(6.99536e-13 -1.05808e-12 -7.6097e-14)
(5.33807e-13 -9.38632e-13 -6.3001e-14)
(4.00467e-13 -8.27231e-13 -5.29277e-14)
(2.9251e-13 -7.32979e-13 -4.54683e-14)
(2.04522e-13 -6.50959e-13 -3.97584e-14)
(1.32982e-13 -5.80235e-13 -3.47876e-14)
(7.46974e-14 -5.1435e-13 -3.13222e-14)
(2.85618e-14 -2.53956e-13 -3.47393e-14)
(1.49814e-12 -3.72753e-13 -2.00437e-13)
(1.17894e-12 -1.24024e-12 -1.6161e-13)
(8.7931e-13 -1.62487e-12 -1.28782e-13)
(6.47615e-13 -1.3897e-12 -1.04786e-13)
(4.70113e-13 -1.18329e-12 -8.62488e-14)
(3.32894e-13 -1.01581e-12 -7.35507e-14)
(2.26614e-13 -8.76845e-13 -6.17617e-14)
(1.43719e-13 -7.60757e-13 -5.26591e-14)
(7.92193e-14 -6.56534e-13 -4.66923e-14)
(3.00957e-14 -3.1907e-13 -4.54918e-14)
(2.09116e-12 -9.09394e-13 -3.52196e-13)
(1.56617e-12 -2.22961e-12 -2.73504e-13)
(1.11875e-12 -2.44686e-12 -2.13496e-13)
(7.92712e-13 -2.00769e-12 -1.69572e-13)
(5.55389e-13 -1.64946e-12 -1.36053e-13)
(3.80654e-13 -1.36924e-12 -1.12185e-13)
(2.51625e-13 -1.14517e-12 -9.1612e-14)
(1.55445e-13 -9.65541e-13 -7.68716e-14)
(8.39784e-14 -8.11603e-13 -6.59946e-14)
(3.18415e-14 -3.88809e-13 -5.97503e-14)
(3.25847e-12 -1.80944e-12 -6.22638e-13)
(2.12198e-12 -3.79419e-12 -4.63381e-13)
(1.44264e-12 -3.6472e-12 -3.49181e-13)
(9.79499e-13 -2.86203e-12 -2.67198e-13)
(6.60141e-13 -2.26031e-12 -2.07988e-13)
(4.37203e-13 -1.80999e-12 -1.65995e-13)
(2.79913e-13 -1.46613e-12 -1.34988e-13)
(1.68452e-13 -1.19974e-12 -1.08586e-13)
(8.89396e-14 -9.80477e-13 -9.0012e-14)
(3.36128e-14 -4.6249e-13 -7.7359e-14)
(5.80937e-10 -3.78329e-12 1.11703e-12)
(7.33794e-12 -6.9879e-12 -7.51529e-13)
(1.89332e-12 -5.43447e-12 -5.71152e-13)
(1.21603e-12 -4.05301e-12 -4.17063e-13)
(7.84928e-13 -3.06759e-12 -3.14048e-13)
(4.99647e-13 -2.36425e-12 -2.41287e-13)
(3.08607e-13 -1.84931e-12 -1.90213e-13)
(1.79473e-13 -1.46607e-12 -1.46928e-13)
(9.13343e-14 -1.16571e-12 -1.19786e-13)
(3.25479e-14 -5.41638e-13 -9.95674e-14)
(5.35998e-07 -1.25676e-09 2.41539e-09)
(2.36437e-09 -1.50539e-09 3.64382e-11)
(7.83113e-12 -1.95377e-11 -7.11626e-13)
(1.20259e-12 -5.75773e-12 -6.4425e-13)
(7.9451e-13 -4.1339e-12 -4.66318e-13)
(5.33542e-13 -3.05701e-12 -3.44829e-13)
(3.5948e-13 -2.30543e-12 -2.61455e-13)
(2.41149e-13 -1.76978e-12 -1.95527e-13)
(1.59299e-13 -1.36701e-12 -1.53941e-13)
(1.03655e-13 -6.25409e-13 -1.23822e-13)
(2.28543e-13 3.66859e-13 -1.20059e-14)
(2.15148e-13 3.42199e-13 -2.15771e-15)
(1.88733e-13 -5.19153e-14 -2.27033e-15)
(1.63606e-13 -5.50793e-14 -5.14424e-15)
(1.39613e-13 -5.40042e-14 -1.29715e-14)
(1.16803e-13 -5.30252e-14 -2.78504e-14)
(9.51881e-14 -5.10587e-14 -5.4892e-14)
(7.57131e-14 -4.67383e-14 -2.00505e-13)
(5.86525e-14 -3.90187e-14 -7.71983e-13)
(3.76893e-14 -4.42017e-14 -2.09743e-12)
(5.02728e-13 3.32325e-13 -1.52104e-14)
(4.63325e-13 2.35986e-13 1.03987e-15)
(3.9734e-13 -1.89726e-13 -1.88223e-15)
(3.35549e-13 -1.86676e-13 -4.53764e-15)
(2.78309e-13 -1.7979e-13 -1.23574e-14)
(2.2523e-13 -1.72829e-13 -2.65141e-14)
(1.75936e-13 -1.66105e-13 -4.76206e-14)
(1.30567e-13 -1.5984e-13 -1.33191e-13)
(8.86058e-14 -1.52188e-13 -4.60243e-13)
(4.6754e-14 -1.11976e-13 -1.37605e-12)
(6.24059e-13 2.66257e-13 -2.5166e-14)
(5.54008e-13 6.71685e-14 -1.13709e-15)
(4.58557e-13 -3.85742e-13 -2.33167e-15)
(3.72658e-13 -3.66217e-13 -6.68472e-15)
(2.96803e-13 -3.43014e-13 -1.38293e-14)
(2.29695e-13 -3.21778e-13 -2.83071e-14)
(1.69995e-13 -3.02134e-13 -5.061e-14)
(1.16928e-13 -2.84453e-13 -1.01083e-13)
(7.01147e-14 -2.68337e-13 -3.03729e-13)
(2.66589e-14 -1.70386e-13 -9.06496e-13)
(8.22583e-13 1.50786e-13 -4.43393e-14)
(7.0331e-13 -1.95731e-13 -8.11771e-15)
(5.64556e-13 -6.63723e-13 -9.15349e-15)
(4.45665e-13 -6.09745e-13 -1.39547e-14)