/*--------------------------------*- C++ -*----------------------------------*\
| =========                 |                                                 |
| \\      /  F ield         | OpenFOAM: The Open Source CFD Toolbox           |
|  \\    /   O peration     | Version:  4.1                                   |
|   \\  /    A nd           | Web:      www.OpenFOAM.org                      |
|    \\/     M anipulation  |                                                 |
\*---------------------------------------------------------------------------*/
FoamFile
{
    version     2.0;
    format      ascii;
    class       volScalarField;
    location    "0.14";
    object      Ma;
}
// * * * * * * * * * * * * * * * * * * * * * * * * * * * * * * * * * * * * * //

dimensions      [0 0 0 0 0 0 0];

internalField   nonuniform List<scalar> 
52500
(
3.00306
3.03814
2.96046
2.87964
2.68738
2.33084
2.08085
1.93743
1.84605
1.76735
1.71319
1.62167
1.61664
1.66384
1.71674
1.7686
1.81672
1.82999
1.80075
1.60925
1.07418
0.140958
0.137211
0.182177
0.267421
3.00305
3.03811
2.96043
2.87961
2.68732
2.33077
2.08077
1.93737
1.84603
1.76735
1.71321
1.62168
1.61665
1.66385
1.71673
1.76862
1.81675
1.83034
1.80192
1.61338
1.08694
0.158517
0.134644
0.186592
0.272545
3.00307
3.03809
2.96043
2.87963
2.68733
2.33074
2.08071
1.93731
1.84597
1.76732
1.71322
1.62172
1.61669
1.66389
1.71674
1.76866
1.81682
1.83121
1.80447
1.62221
1.11352
0.195386
0.132784
0.196718
0.283624
3.00284
3.0378
2.96021
2.87948
2.68724
2.33084
2.08104
1.93775
1.84642
1.76767
1.71338
1.62181
1.61671
1.66391
1.71672
1.76872
1.81693
1.83285
1.80856
1.63637
1.15378
0.251248
0.139988
0.213781
0.299573
3.00286
3.03773
2.9603
2.8798
2.68776
2.33142
2.08147
1.93811
1.84673
1.76792
1.71355
1.62193
1.61678
1.66398
1.71675
1.7688
1.81712
1.83538
1.81459
1.65627
1.20715
0.329327
0.167692
0.238312
0.319605
3.00289
3.03813
2.96
2.87854
2.68605
2.32929
2.07876
1.93504
1.8437
1.7657
1.71272
1.62161
1.61662
1.66388
1.71681
1.76869
1.8173
1.83816
1.82237
1.68252
1.27428
0.433369
0.222071
0.268861
0.342586
3.0027
3.03784
2.95984
2.87853
2.6862
2.32961
2.07919
1.93553
1.84418
1.76607
1.71292
1.62174
1.61672
1.66383
1.71704
1.7685
1.81754
1.84096
1.8321
1.71566
1.35829
0.5707
0.304906
0.301708
0.364906
3.00262
3.03733
2.96001
2.87964
2.68771
2.33157
2.08193
1.93873
1.8474
1.76844
1.7138
1.62206
1.61692
1.66376
1.71733
1.76831
1.81774
1.84438
1.84356
1.75451
1.45911
0.755041
0.403158
0.335265
0.391551
3.00268
3.03779
2.95979
2.87847
2.68611
2.32953
2.07914
1.9355
1.84416
1.76606
1.71292
1.62172
1.61684
1.66353
1.71762
1.76819
1.81781
1.84826
1.85576
1.79552
1.56922
0.989034
0.50104
0.393841
0.441048
3.00269
3.0378
2.95981
2.87849
2.68612
2.32949
2.07907
1.93544
1.84412
1.76604
1.71292
1.62172
1.6169
1.66338
1.71787
1.76827
1.81766
1.85243
1.86653
1.83308
1.6707
1.22556
0.635402
0.502444
0.583785
3.00284
3.03777
2.96018
2.87945
2.6872
2.33077
2.08095
1.93767
1.84638
1.76766
1.71338
1.6218
1.61671
1.66387
1.71675
1.7686
1.81671
1.82997
1.80072
1.60918
1.07403
0.140466
0.136791
0.181831
0.267222
3.00302
3.038
2.96042
2.87974
2.68756
2.33106
2.08109
1.93769
1.84633
1.76759
1.71333
1.62174
1.61668
1.66386
1.71673
1.76861
1.81673
1.83031
1.80189
1.61332
1.08679
0.158081
0.134263
0.186251
0.272372
3.0027
3.03788
2.95986
2.87852
2.68615
2.32953
2.07908
1.93544
1.84409
1.766
1.71289
1.62171
1.61666
1.66388
1.71674
1.76866
1.81681
1.8312
1.80445
1.62216
1.11339
0.19507
0.132379
0.1963
0.283375
3.00309
3.0381
2.96049
2.87977
2.68758
2.33108
2.08108
1.93764
1.84625
1.76751
1.71329
1.62171
1.61665
1.66387
1.71669
1.76869
1.8169
1.83282
1.80852
1.63633
1.15367
0.251012
0.139613
0.213402
0.299352
3.0027
3.03788
2.95986
2.87852
2.68616
2.32955
2.0791
1.93546
1.84411
1.76601
1.71289
1.62172
1.61664
1.66391
1.7167
1.76877
1.8171
1.83536
1.81457
1.65623
1.20706
0.329157
0.167371
0.23799
0.319399
3.00303
3.03801
2.96044
2.87977
2.68762
2.33115
2.08119
1.93777
1.84639
1.76762
1.71334
1.62175
1.61665
1.66386
1.71677
1.76865
1.81726
1.83812
1.82233
1.68248
1.2742
0.433252
0.221791
0.268581
0.342387
3.00284
3.03779
2.96022
2.8795
2.68728
2.33086
2.08104
1.93773
1.84642
1.76767
1.71338
1.62181
1.6167
1.66378
1.71698
1.76845
1.81749
1.84092
1.83206
1.71561
1.35821
0.570563
0.304667
0.301516
0.364776
3.00305
3.03811
2.96042
2.8796
2.68731
2.33075
2.08078
1.93738
1.84604
1.76736
1.7132
1.62168
1.61668
1.66361
1.71723
1.76823
1.81768
1.84433
1.84351
1.75446
1.45903
0.75492
0.402992
0.33511
0.391432
3.00305
3.03811
2.96043
2.87961
2.68732
2.33076
2.08076
1.93736
1.84601
1.76733
1.71318
1.62166
1.61674
1.66343
1.71753
1.76811
1.81775
1.84821
1.85572
1.79548
1.56915
0.988965
0.500903
0.39372
0.440923
3.00305
3.03812
2.96045
2.87964
2.68737
2.33083
2.08083
1.93741
1.84604
1.76734
1.71318
1.62165
1.61681
1.66327
1.71778
1.7682
1.8176
1.85238
1.86649
1.83304
1.67064
1.22552
0.635258
0.502364
0.583677
3.00305
3.03812
2.96045
2.87964
2.68738
2.33084
2.08084
1.93742
1.84605
1.76735
1.7132
1.62167
1.61662
1.66381
1.71671
1.76858
1.81669
1.82996
1.80071
1.60918
1.07403
0.140466
0.136791
0.181831
0.267223
3.00305
3.03811
2.96043
2.87961
2.68733
2.33078
2.08079
1.93738
1.84603
1.76735
1.7132
1.62167
1.61663
1.66382
1.71671
1.76859
1.81672
1.83031
1.80189
1.61331
1.08679
0.15808
0.134262
0.18625
0.272372
3.00305
3.03811
2.96043
2.87961
2.68733
2.33078
2.08081
1.93741
1.84606
1.76738
1.71322
1.62168
1.61663
1.66383
1.7167
1.76863
1.81678
1.83118
1.80443
1.62215
1.11339
0.195069
0.132379
0.196299
0.283375
3.00285
3.03782
2.96025
2.87954
2.68735
2.33096
2.08113
1.93781
1.84647
1.76769
1.71339
1.6218
1.61668
1.66388
1.71669
1.76869
1.8169
1.83282
1.80852
1.63633
1.15367
0.251012
0.139614
0.213402
0.299353
3.00305
3.03806
2.96049
2.87982
2.68768
2.3312
2.08121
1.93778
1.84639
1.76761
1.71333
1.62174
1.61664
1.66388
1.71667
1.76874
1.81708
1.83535
1.81456
1.65622
1.20706
0.329156
0.167371
0.23799
0.319399
3.00291
3.03823
2.96007
2.87855
2.68604
2.32927
2.07867
1.93491
1.84355
1.76557
1.71264
1.62156
1.61656
1.66383
1.71677
1.76865
1.81726
1.83812
1.82234
1.68248
1.2742
0.433252
0.221791
0.268581
0.342387
3.00305
3.03806
2.96049
2.87982
2.68767
2.33119
2.08119
1.93777
1.84637
1.7676
1.71332
1.62174
1.61667
1.66376
1.71697
1.76844
1.81748
1.84091
1.83206
1.71561
1.35821
0.570563
0.304667
0.301516
0.364776
3.00284
3.03779
2.96021
2.87949
2.68727
2.33085
2.08102
1.93773
1.84642
1.76767
1.71338
1.62181
1.61675
1.66365
1.71725
1.76824
1.81769
1.84434
1.84352
1.75447
1.45903
0.75492
0.402992
0.33511
0.391432
3.00306
3.03811
2.96042
2.8796
2.68731
2.33076
2.08079
1.93739
1.84605
1.76736
1.7132
1.62166
1.61675
1.66344
1.71754
1.76812
1.81775
1.84821
1.85572
1.79548
1.56915
0.988965
0.500903
0.39372
0.440924
3.00284
3.03779
2.96021
2.87949
2.68727
2.33085
2.08102
1.93773
1.84642
1.76767
1.71338
1.62178
1.61688
1.66332
1.7178
1.76821
1.81761
1.85238
1.86649
1.83305
1.67064
1.22552
0.635259
0.502364
0.583677
3.00305
3.03813
2.96045
2.87965
2.68739
2.33086
2.08087
1.93745
1.84608
1.76738
1.71321
1.62167
1.61662
1.66381
1.71671
1.76858
1.81669
1.82996
1.80071
1.60918
1.07403
0.140467
0.13679
0.181831
0.267223
3.00305
3.03813
2.96045
2.87965
2.68739
2.33086
2.08087
1.93745
1.84608
1.76738
1.71321
1.62168
1.61662
1.66382
1.7167
1.76859
1.81672
1.83031
1.80189
1.61331
1.08679
0.158082
0.134262
0.18625
0.272372
3.00305
3.03813
2.96045
2.87965
2.68739
2.33086
2.08087
1.93745
1.84608
1.76738
1.71321
1.62168
1.61662
1.66383
1.71669
1.76862
1.81678
1.83118
1.80443
1.62215
1.11339
0.19507
0.132378
0.196299
0.283375
3.00305
3.03813
2.96045
2.87965
2.68739
2.33086
2.08087
1.93745
1.84608
1.76738
1.71321
1.62168
1.61661
1.66384
1.71667
1.76868
1.81689
1.83281
1.80852
1.63632
1.15367
0.251012
0.139613
0.213402
0.299353
3.00305
3.03813
2.96045
2.87965
2.68739
2.33086
2.08087
1.93745
1.84608
1.76738
1.71321
1.62169
1.6166
1.66386
1.71665
1.76873
1.81707
1.83534
1.81455
1.65622
1.20706
0.329157
0.167371
0.23799
0.319399
3.00305
3.03813
2.96045
2.87965
2.68739
2.33086
2.08087
1.93745
1.84608
1.76738
1.71321
1.62169
1.6166
1.66382
1.71675
1.76863
1.81725
1.83811
1.82233
1.68248
1.2742
0.433252
0.221791
0.268581
0.342387
3.00305
3.03813
2.96045
2.87965
2.68739
2.33086
2.08087
1.93745
1.84608
1.76738
1.71321
1.62169
1.61663
1.66373
1.71695
1.76843
1.81747
1.84091
1.83205
1.71561
1.3582
0.570563
0.304668
0.301516
0.364776
3.00305
3.03813
2.96045
2.87965
2.68739
2.33086
2.08087
1.93745
1.84608
1.76738
1.71321
1.62168
1.61667
1.6636
1.71722
1.76822
1.81767
1.84433
1.84351
1.75446
1.45902
0.75492
0.402992
0.33511
0.391432
3.00305
3.03813
2.96045
2.87965
2.68739
2.33086
2.08087
1.93745
1.84608
1.76738
1.7132
1.62167
1.61674
1.66343
1.71753
1.76811
1.81774
1.8482
1.85572
1.79548
1.56915
0.988965
0.500903
0.39372
0.440924
3.00305
3.03813
2.96045
2.87965
2.68739
2.33086
2.08087
1.93745
1.84608
1.76737
1.7132
1.62166
1.61681
1.66327
1.71777
1.76819
1.8176
1.85237
1.86649
1.83304
1.67064
1.22552
0.635259
0.502364
0.583677
3.00308
3.03814
2.96049
2.8797
2.68747
2.33094
2.08087
1.93743
1.84604
1.76735
1.71322
1.62171
1.61666
1.66385
1.71674
1.7686
1.81671
1.82996
1.80071
1.60918
1.07402
0.140452
0.136754
0.181805
0.267217
3.00308
3.03814
2.96048
2.8797
2.68747
2.33093
2.08087
1.93743
1.84604
1.76735
1.71322
1.62171
1.61666
1.66385
1.71673
1.76861
1.81673
1.83031
1.80189
1.61331
1.08679
0.158068
0.134187
0.186235
0.272351
3.00307
3.03814
2.96046
2.87966
2.6874
2.33087
2.08091
1.9375
1.84614
1.76742
1.71323
1.62168
1.61663
1.66383
1.7167
1.76863
1.81678
1.83118
1.80442
1.62214
1.11337
0.195022
0.132349
0.1964
0.283463
3.00307
3.03813
2.96046
2.87966
2.68739
2.33087
2.08091
1.9375
1.84614
1.76742
1.71323
1.62169
1.61662
1.66385
1.71667
1.76868
1.81689
1.83281
1.80852
1.63631
1.15365
0.250961
0.139628
0.213486
0.299444
3.00308
3.03813
2.96048
2.8797
2.68746
2.33093
2.08087
1.93743
1.84604
1.76735
1.71322
1.62172
1.61663
1.66389
1.71668
1.76875
1.81708
1.83535
1.81455
1.65622
1.20704
0.32914
0.167399
0.237967
0.319398
3.00307
3.03813
2.96047
2.87968
2.68743
2.33089
2.08086
1.93742
1.84602
1.76733
1.7132
1.62171
1.61663
1.66385
1.71678
1.76865
1.81726
1.83812
1.82233
1.68248
1.27419
0.433251
0.221824
0.268543
0.342369
3.00308
3.03814
2.96048
2.87969
2.68746
2.33094
2.08089
1.93744
1.84604
1.76734
1.7132
1.62171
1.61666
1.66377
1.71698
1.76845
1.81749
1.84092
1.83206
1.71561
1.35821
0.570569
0.304689
0.301495
0.36476
3.00307
3.03814
2.96046
2.87965
2.68738
2.33087
2.08091
1.9375
1.84612
1.7674
1.71321
1.62168
1.61668
1.66361
1.71723
1.76823
1.81768
1.84433
1.84352
1.75447
1.45903
0.754932
0.403
0.335102
0.39142
3.00308
3.03813
2.96048
2.8797
2.68746
2.33092
2.08086
1.93742
1.84603
1.76734
1.71321
1.6217
1.61678
1.66346
1.71755
1.76813
1.81776
1.84821
1.85572
1.79548
1.56915
0.988978
0.500904
0.393717
0.440918
3.00307
3.03813
2.96047
2.87969
2.68745
2.3309
2.08083
1.93738
1.846
1.76732
1.7132
1.62169
1.61684
1.6633
1.7178
1.76821
1.81761
1.85238
1.86649
1.83305
1.67065
1.22553
0.63526
0.502364
0.583676
3.00305
3.03812
2.96045
2.87964
2.68739
2.33086
2.08087
1.93745
1.84608
1.76738
1.71321
1.62167
1.61662
1.66381
1.71671
1.76858
1.81669
1.82996
1.80071
1.60918
1.07403
0.140474
0.136787
0.181833
0.267222
3.00305
3.03812
2.96045
2.87964
2.68738
2.33085
2.08087
1.93745
1.84608
1.76738
1.71321
1.62168
1.61662
1.66382
1.71671
1.76859
1.81672
1.83031
1.80189
1.61331
1.0868
0.158087
0.134259
0.186252
0.272371
3.00305
3.03812
2.96045
2.87965
2.68739
2.33086
2.08087
1.93745
1.84608
1.76738
1.71321
1.62168
1.61662
1.66383
1.71669
1.76862
1.81678
1.83118
1.80443
1.62216
1.11339
0.195074
0.132376
0.1963
0.283372
3.00305
3.03813
2.96045
2.87964
2.68737
2.33085
2.08086
1.93745
1.84608
1.76737
1.7132
1.62167
1.61661
1.66384
1.71667
1.76868
1.81689
1.83281
1.80852
1.63633
1.15367
0.251015
0.139612
0.213404
0.299348
3.00305
3.03812
2.96045
2.87965
2.68739
2.33086
2.08087
1.93745
1.84608
1.76738
1.71321
1.62169
1.6166
1.66386
1.71665
1.76873
1.81707
1.83534
1.81455
1.65622
1.20706
0.329159
0.167369
0.237992
0.319393
3.00305
3.03813
2.96045
2.87964
2.68737
2.33085
2.08086
1.93745
1.84608
1.76737
1.7132
1.62168
1.6166
1.66382
1.71675
1.76863
1.81725
1.83811
1.82233
1.68248
1.2742
0.433252
0.22179
0.268587
0.342381
3.00305
3.03812
2.96045
2.87964
2.68739
2.33086
2.08087
1.93745
1.84608
1.76738
1.71321
1.62169
1.61663
1.66373
1.71695
1.76843
1.81747
1.84091
1.83205
1.71561
1.35821
0.570565
0.304668
0.301519
0.364777
3.00305
3.03812
2.96045
2.87964
2.68738
2.33085
2.08086
1.93745
1.84608
1.76737
1.7132
1.62168
1.61667
1.6636
1.71722
1.76823
1.81767
1.84433
1.84351
1.75446
1.45903
0.754922
0.402993
0.335112
0.391436
3.00305
3.03812
2.96045
2.87964
2.68738
2.33085
2.08086
1.93744
1.84607
1.76737
1.7132
1.62167
1.61674
1.66343
1.71753
1.76811
1.81775
1.8482
1.85572
1.79548
1.56915
0.988967
0.500904
0.39372
0.440927
3.00305
3.03812
2.96045
2.87964
2.68738
2.33084
2.08085
1.93743
1.84606
1.76736
1.71319
1.62166
1.61681
1.66327
1.71778
1.76819
1.8176
1.85237
1.86649
1.83304
1.67064
1.22552
0.635261
0.502364
0.583681
3.00305
3.03813
2.96045
2.87965
2.68739
2.33086
2.08087
1.93745
1.84608
1.76738
1.71321
1.62167
1.61662
1.66381
1.71671
1.76858
1.81669
1.82996
1.80071
1.60918
1.07403
0.140467
0.13679
0.181831
0.267223
3.00305
3.03813
2.96045
2.87965
2.68739
2.33086
2.08087
1.93745
1.84608
1.76738
1.71321
1.62168
1.61662
1.66382
1.7167
1.76859
1.81672
1.83031
1.80189
1.61331
1.08679
0.158081
0.134262
0.18625
0.272372
3.00305
3.03813
2.96045
2.87965
2.68739
2.33086
2.08087
1.93745
1.84608
1.76738
1.71321
1.62168
1.61662
1.66383
1.71669
1.76862
1.81678
1.83118
1.80443
1.62215
1.11339
0.19507
0.132378
0.196299
0.283375
3.00305
3.03813
2.96045
2.87965
2.68739
2.33086
2.08087
1.93745
1.84608
1.76738
1.71321
1.62168
1.61661
1.66384
1.71667
1.76868
1.81689
1.83281
1.80852
1.63632
1.15367
0.251012
0.139613
0.213402
0.299353
3.00305
3.03813
2.96045
2.87965
2.68739
2.33086
2.08087
1.93745
1.84608
1.76738
1.71321
1.62169
1.6166
1.66386
1.71665
1.76873
1.81707
1.83534
1.81455
1.65622
1.20706
0.329157
0.167371
0.23799
0.319399
3.00305
3.03813
2.96045
2.87965
2.68739
2.33086
2.08087
1.93745
1.84608
1.76738
1.71321
1.62169
1.6166
1.66382
1.71675
1.76863
1.81725
1.83811
1.82233
1.68248
1.2742
0.433252
0.221791
0.268581
0.342387
3.00305
3.03813
2.96045
2.87965
2.68739
2.33086
2.08087
1.93745
1.84608
1.76738
1.71321
1.62169
1.61663
1.66373
1.71695
1.76843
1.81747
1.84091
1.83205
1.71561
1.3582
0.570563
0.304667
0.301516
0.364776
3.00305
3.03813
2.96045
2.87965
2.68739
2.33086
2.08087
1.93745
1.84608
1.76738
1.71321
1.62168
1.61667
1.6636
1.71722
1.76822
1.81767
1.84433
1.84351
1.75446
1.45902
0.75492
0.402992
0.33511
0.391432
3.00305
3.03813
2.96045
2.87965
2.68739
2.33086
2.08087
1.93745
1.84608
1.76738
1.7132
1.62167
1.61674
1.66343
1.71753
1.76811
1.81774
1.8482
1.85572
1.79548
1.56915
0.988965
0.500903
0.39372
0.440924
3.00305
3.03813
2.96045
2.87965
2.68739
2.33086
2.08087
1.93745
1.84608
1.76737
1.7132
1.62166
1.61681
1.66327
1.71777
1.76819
1.8176
1.85237
1.86649
1.83304
1.67064
1.22552
0.635259
0.502364
0.583677
3.00305
3.03812
2.96045
2.87964
2.68738
2.33084
2.08084
1.93742
1.84605
1.76735
1.7132
1.62167
1.61662
1.66381
1.71671
1.76858
1.81669
1.82996
1.80071
1.60918
1.07403
0.140466
0.136791
0.181831
0.267223
3.00305
3.03811
2.96043
2.87961
2.68733
2.33078
2.08079
1.93738
1.84603
1.76735
1.7132
1.62167
1.61663
1.66382
1.71671
1.76859
1.81672
1.83031
1.80189
1.61331
1.08679
0.15808
0.134262
0.18625
0.272372
3.00305
3.03811
2.96043
2.87961
2.68733
2.33078
2.08081
1.93741
1.84606
1.76738
1.71322
1.62168
1.61663
1.66383
1.7167
1.76863
1.81678
1.83118
1.80443
1.62215
1.11339
0.195069
0.132379
0.196299
0.283375
3.00285
3.03782
2.96025
2.87954
2.68735
2.33096
2.08113
1.93781
1.84647
1.76769
1.71339
1.6218
1.61668
1.66388
1.71669
1.76869
1.8169
1.83282
1.80852
1.63633
1.15367
0.251012
0.139614
0.213402
0.299353
3.00305
3.03806
2.96049
2.87982
2.68768
2.3312
2.08121
1.93778
1.84639
1.76761
1.71333
1.62174
1.61664
1.66388
1.71667
1.76874
1.81708
1.83535
1.81456
1.65622
1.20706
0.329156
0.167371
0.23799
0.319399
3.00291
3.03823
2.96007
2.87855
2.68604
2.32927
2.07867
1.93491
1.84355
1.76557
1.71264
1.62156
1.61656
1.66382
1.71677
1.76865
1.81726
1.83812
1.82234
1.68248
1.2742
0.433252
0.221791
0.268581
0.342387
3.00305
3.03806
2.96049
2.87982
2.68767
2.33119
2.08119
1.93777
1.84637
1.7676
1.71332
1.62174
1.61667
1.66376
1.71697
1.76844
1.81748
1.84091
1.83206
1.71561
1.35821
0.570563
0.304667
0.301516
0.364776
3.00284
3.03779
2.96021
2.87949
2.68727
2.33085
2.08102
1.93773
1.84642
1.76767
1.71338
1.62181
1.61675
1.66365
1.71725
1.76824
1.81769
1.84434
1.84352
1.75447
1.45903
0.75492
0.402992
0.33511
0.391432
3.00306
3.03811
2.96042
2.8796
2.68731
2.33076
2.08079
1.93739
1.84605
1.76736
1.7132
1.62166
1.61675
1.66344
1.71754
1.76812
1.81775
1.84821
1.85572
1.79548
1.56915
0.988965
0.500903
0.39372
0.440924
3.00284
3.03779
2.96021
2.87949
2.68727
2.33085
2.08102
1.93773
1.84642
1.76767
1.71338
1.62178
1.61688
1.66332
1.7178
1.76821
1.81761
1.85238
1.86649
1.83305
1.67064
1.22552
0.635259
0.502364
0.583677
3.00284
3.03777
2.96018
2.87945
2.6872
2.33077
2.08095
1.93767
1.84638
1.76766
1.71338
1.6218
1.61671
1.66387
1.71675
1.7686
1.81671
1.82997
1.80072
1.60918
1.07403
0.140466
0.136791
0.181832
0.267222
3.00302
3.038
2.96042
2.87974
2.68756
2.33106
2.08109
1.93769
1.84633
1.76759
1.71333
1.62174
1.61668
1.66386
1.71673
1.76861
1.81673
1.83031
1.80189
1.61332
1.08679
0.158081
0.134263
0.186251
0.272372
3.0027
3.03788
2.95986
2.87852
2.68615
2.32953
2.07908
1.93544
1.84409
1.766
1.71289
1.62171
1.61666
1.66388
1.71674
1.76866
1.81681
1.8312
1.80445
1.62216
1.11339
0.19507
0.132379
0.1963
0.283375
3.00309
3.0381
2.96049
2.87977
2.68758
2.33108
2.08108
1.93764
1.84625
1.76751
1.71329
1.62171
1.61665
1.66387
1.71669
1.76869
1.8169
1.83282
1.80852
1.63633
1.15367
0.251012
0.139613
0.213402
0.299352
3.0027
3.03788
2.95986
2.87852
2.68616
2.32955
2.0791
1.93546
1.84411
1.76601
1.71289
1.62172
1.61664
1.66391
1.7167
1.76877
1.8171
1.83536
1.81457
1.65623
1.20706
0.329157
0.167371
0.23799
0.319399
3.00303
3.03801
2.96044
2.87977
2.68762
2.33115
2.08119
1.93777
1.84639
1.76762
1.71334
1.62175
1.61665
1.66386
1.71677
1.76865
1.81726
1.83812
1.82233
1.68248
1.2742
0.433252
0.221791
0.268582
0.342387
3.00284
3.03779
2.96022
2.8795
2.68728
2.33086
2.08104
1.93773
1.84642
1.76767
1.71338
1.62181
1.6167
1.66378
1.71698
1.76845
1.81749
1.84092
1.83206
1.71561
1.35821
0.570564
0.304667
0.301516
0.364776
3.00305
3.03811
2.96042
2.8796
2.68731
2.33076
2.08078
1.93738
1.84604
1.76736
1.7132
1.62168
1.61668
1.66361
1.71723
1.76823
1.81768
1.84433
1.84351
1.75446
1.45903
0.75492
0.402992
0.33511
0.391432
3.00305
3.03811
2.96043
2.87961
2.68732
2.33076
2.08076
1.93736
1.84601
1.76733
1.71318
1.62166
1.61674
1.66343
1.71753
1.76811
1.81775
1.84821
1.85572
1.79548
1.56915
0.988965
0.500903
0.39372
0.440923
3.00305
3.03812
2.96045
2.87964
2.68737
2.33083
2.08083
1.93741
1.84604
1.76734
1.71318
1.62165
1.61681
1.66327
1.71778
1.7682
1.8176
1.85238
1.86649
1.83304
1.67064
1.22552
0.635258
0.502364
0.583677
3.00306
3.03811
2.96041
2.87958
2.68726
2.3307
2.08074
1.93736
1.84603
1.76736
1.71321
1.62168
1.61666
1.66385
1.71675
1.76861
1.81672
1.82999
1.80074
1.60924
1.07416
0.140907
0.137219
0.182265
0.267508
3.00288
3.03783
2.96027
2.8796
2.68743
2.33102
2.08111
1.93777
1.84641
1.76766
1.7134
1.62184
1.61675
1.66391
1.71677
1.76865
1.81676
1.83035
1.80193
1.61338
1.08694
0.158508
0.134593
0.18655
0.272522
3.00306
3.03806
2.96048
2.87979
2.68761
2.33111
2.08111
1.93769
1.84631
1.76757
1.71332
1.62174
1.6167
1.66389
1.71674
1.76867
1.81682
1.83121
1.80447
1.62221
1.11351
0.195377
0.132769
0.196691
0.283624
3.00295
3.03819
2.96005
2.87857
2.68611
2.32926
2.07847
1.93469
1.84333
1.76543
1.71266
1.62165
1.61667
1.66394
1.71676
1.76876
1.81696
1.83287
1.80857
1.63638
1.15378
0.251246
0.139993
0.213772
0.299572
3.00286
3.03776
2.96026
2.87967
2.68754
2.3312
2.0814
1.9381
1.84674
1.76792
1.71352
1.62188
1.61674
1.66396
1.71673
1.76879
1.81712
1.83538
1.81459
1.65627
1.20715
0.32933
0.167697
0.238311
0.319603
3.00265
3.0374
2.96003
2.8796
2.68763
2.33145
2.0817
1.93847
1.84713
1.76824
1.71372
1.62205
1.61685
1.664
1.71687
1.76872
1.81732
1.83816
1.82238
1.68252
1.27428
0.433373
0.222074
0.268862
0.342584
3.0029
3.03813
2.96002
2.87858
2.68612
2.32937
2.07884
1.93511
1.84376
1.76575
1.71276
1.62163
1.61666
1.6638
1.71702
1.76849
1.81753
1.84095
1.8321
1.71566
1.35829
0.570705
0.304907
0.301708
0.364904
3.00271
3.0378
2.9598
2.8785
2.68611
2.32948
2.07909
1.93548
1.84419
1.76612
1.71297
1.62177
1.61679
1.66372
1.71732
1.76831
1.81774
1.84438
1.84356
1.75451
1.45911
0.755046
0.403156
0.335264
0.391549
3.00285
3.03771
2.96026
2.87973
2.68767
2.33137
2.0816
1.93828
1.84691
1.76803
1.71356
1.62188
1.6169
1.66354
1.71761
1.76817
1.81779
1.84825
1.85575
1.79552
1.56921
0.989037
0.501038
0.39384
0.441045
3.00251
3.03749
2.95962
2.87847
2.68626
2.32977
2.07931
1.93572
1.84436
1.76625
1.71308
1.62191
1.61705
1.66348
1.71794
1.76832
1.8177
1.85245
1.86654
1.83309
1.6707
1.22556
0.635401
0.502444
0.583784
3.00283
3.03767
2.96021
2.87966
2.68754
2.33117
2.08132
1.93802
1.8467
1.7679
1.71351
1.62186
1.61703
1.6633
1.71791
1.76884
1.8168
1.85727
1.875
1.86488
1.75999
1.43991
0.880214
0.647697
0.788072
3.00268
3.03782
2.95977
2.87839
2.68595
2.3293
2.07888
1.93526
1.84395
1.76591
1.71283
1.62166
1.61696
1.66334
1.71762
1.76969
1.81625
1.85885
1.88513
1.89
1.83671
1.64176
1.18142
0.860141
0.960165
3.00281
3.03765
2.96014
2.87953
2.68735
2.33092
2.08112
1.93787
1.8466
1.76784
1.71348
1.62183
1.61704
1.6634
1.71755
1.76979
1.81679
1.85853
1.8926
1.90784
1.89654
1.80374
1.5287
1.15128
1.08992
3.0026
3.03735
2.95998
2.87952
2.68745
2.3312
2.08151
1.93834
1.84707
1.76821
1.71369
1.62197
1.6171
1.66344
1.7176
1.76971
1.81721
1.85858
1.89414
1.91926
1.92682
1.8982
1.7817
1.48721
1.26961
3.00267
3.03776
2.95973
2.87836
2.68591
2.32927
2.07891
1.93532
1.84403
1.76598
1.71287
1.62168
1.61697
1.66339
1.71759
1.76974
1.81717
1.85899
1.89427
1.92333
1.94172
1.94338
1.90981
1.79222
1.56464
3.00268
3.03772
2.95979
2.87859
2.68632
2.32973
2.0793
1.93567
1.84433
1.7662
1.71299
1.62174
1.61701
1.66342
1.71761
1.76975
1.81721
1.85898
1.89465
1.92372
1.94648
1.95997
1.9603
1.93451
1.8452
3.00247
3.03744
2.95962
2.87853
2.68637
2.32997
2.07969
1.93613
1.84477
1.76654
1.71317
1.62186
1.61707
1.66345
1.71763
1.76976
1.81722
1.859
1.89465
1.92404
1.94708
1.96418
1.97412
1.97544
1.96133
3.00247
3.03741
2.95959
2.87851
2.68634
2.32991
2.07964
1.93609
1.84477
1.76656
1.71321
1.62188
1.61708
1.66345
1.71763
1.76976
1.81722
1.859
1.89467
1.92406
1.94733
1.9648
1.97713
1.98445
1.98656
3.00266
3.03768
2.95975
2.87854
2.68624
2.32965
2.07925
1.93565
1.84434
1.76622
1.71301
1.62175
1.61702
1.66343
1.71762
1.76976
1.81721
1.859
1.89467
1.92407
1.94736
1.96496
1.97752
1.98619
1.99124
3.00247
3.03745
2.95954
2.87832
2.68599
2.32949
2.07925
1.93575
1.84449
1.76636
1.7131
1.62183
1.61705
1.66343
1.71761
1.76975
1.81721
1.859
1.89467
1.92407
1.94736
1.96498
1.9776
1.98645
1.99204
3.00259
3.03727
2.95993
2.87955
2.68756
2.33138
2.08173
1.93855
1.84726
1.76836
1.71376
1.622
1.61714
1.66346
1.71762
1.76975
1.8172
1.85899
1.89466
1.92406
1.94736
1.96499
1.97761
1.98648
1.99218
3.00267
3.03775
2.95973
2.87839
2.68597
2.32931
2.07888
1.93528
1.844
1.76597
1.71287
1.62168
1.61698
1.6634
1.7176
1.76974
1.81721
1.859
1.89467
1.92407
1.94736
1.96499
1.97761
1.98649
1.9922
3.00267
3.03774
2.95974
2.87841
2.68599
2.32933
2.0789
1.9353
1.84403
1.766
1.7129
1.6217
1.61699
1.6634
1.7176
1.76974
1.8172
1.85899
1.89467
1.92407
1.94736
1.96499
1.97761
1.98649
1.9922
3.00259
3.03727
2.95994
2.87955
2.68757
2.3314
2.08174
1.93857
1.84728
1.76837
1.71377
1.622
1.61713
1.66346
1.71762
1.76975
1.8172
1.85899
1.89466
1.92406
1.94736
1.96499
1.97761
1.98649
1.9922
3.00248
3.03748
2.95957
2.87834
2.68603
2.32956
2.07932
1.9358
1.84449
1.76633
1.71306
1.6218
1.61703
1.66343
1.71761
1.76975
1.81721
1.859
1.89467
1.92407
1.94737
1.96499
1.97761
1.98649
1.9922
3.00268
3.03771
2.9598
2.8786
2.68633
2.32973
2.07929
1.93566
1.84433
1.76621
1.71301
1.62175
1.61702
1.66342
1.71761
1.76975
1.81721
1.859
1.89467
1.92407
1.94737
1.96499
1.97761
1.98649
1.9922
3.00267
3.03771
2.95979
2.8786
2.68632
2.32972
2.07928
1.93565
1.84433
1.76621
1.71301
1.62175
1.61702
1.66342
1.71761
1.76975
1.81721
1.859
1.89467
1.92407
1.94737
1.96499
1.97761
1.98649
1.9922
3.00248
3.03746
2.95955
2.87833
2.68599
2.32949
2.07923
1.93572
1.84446
1.76634
1.71309
1.62182
1.61705
1.66343
1.71762
1.76975
1.81721
1.859
1.89467
1.92407
1.94737
1.96499
1.97761
1.98649
1.9922
3.00258
3.03724
2.9599
2.87951
2.68752
2.33134
2.0817
1.93855
1.84728
1.76838
1.71378
1.62201
1.61714
1.66347
1.71762
1.76975
1.81721
1.859
1.89466
1.92406
1.94736
1.96499
1.97761
1.98649
1.9922
3.00247
3.03744
2.95952
2.8783
2.68595
2.32943
2.07918
1.93569
1.84444
1.76634
1.71309
1.62183
1.61706
1.66344
1.71762
1.76976
1.81721
1.859
1.89467
1.92407
1.94737
1.96499
1.97761
1.98649
1.9922
3.00267
3.03771
2.95979
2.87858
2.68631
2.32973
2.07931
1.93568
1.84433
1.7662
1.71299
1.62174
1.61701
1.66342
1.71761
1.76975
1.81721
1.859
1.89467
1.92407
1.94737
1.96499
1.97761
1.98649
1.9922
3.00246
3.0374
2.95958
2.87848
2.68629
2.32984
2.07953
1.936
1.8447
1.76651
1.71318
1.62187
1.61708
1.66345
1.71763
1.76976
1.81722
1.859
1.89467
1.92407
1.94737
1.96499
1.97761
1.98649
1.9922
3.00267
3.03771
2.95979
2.87858
2.68631
2.32973
2.07931
1.93567
1.84433
1.7662
1.71299
1.62173
1.61701
1.66342
1.71761
1.76975
1.81721
1.859
1.89467
1.92407
1.94737
1.96499
1.97761
1.98649
1.9922
3.00247
3.03743
2.95952
2.87829
2.68594
2.32941
2.07916
1.93567
1.84443
1.76633
1.71309
1.62183
1.61706
1.66344
1.71762
1.76976
1.81721
1.859
1.89467
1.92407
1.94737
1.96499
1.97761
1.98649
1.9922
3.00258
3.03723
2.95989
2.87951
2.68753
2.33134
2.0817
1.93855
1.84729
1.76839
1.71379
1.62202
1.61715
1.66347
1.71762
1.76975
1.81721
1.85899
1.89466
1.92406
1.94736
1.96499
1.97761
1.98649
1.9922
3.00246
3.03744
2.95952
2.87827
2.68591
2.3294
2.07916
1.93566
1.84441
1.76631
1.71307
1.62181
1.61705
1.66344
1.71762
1.76976
1.81722
1.859
1.89467
1.92407
1.94737
1.96499
1.97761
1.98649
1.9922
3.00268
3.03771
2.95979
2.8786
2.68633
2.32975
2.07932
1.93569
1.84436
1.76623
1.71302
1.62175
1.61702
1.66342
1.71761
1.76975
1.81721
1.859
1.89467
1.92407
1.94737
1.96499
1.97761
1.98649
1.9922
3.00245
3.0374
2.95957
2.87847
2.68627
2.32983
2.07955
1.93601
1.84469
1.7665
1.71316
1.62186
1.61707
1.66345
1.71763
1.76976
1.81722
1.85901
1.89467
1.92407
1.94737
1.96499
1.97761
1.98649
1.9922
3.00268
3.03772
2.95979
2.87859
2.68632
2.32974
2.07933
1.9357
1.84435
1.76621
1.71299
1.62174
1.61701
1.66342
1.71761
1.76975
1.81721
1.859
1.89467
1.92407
1.94737
1.96499
1.97761
1.98649
1.9922
3.00247
3.03745
2.95955
2.87833
2.686
2.3295
2.07926
1.93576
1.84449
1.76636
1.7131
1.62183
1.61705
1.66343
1.71761
1.76975
1.81721
1.859
1.89467
1.92407
1.94737
1.96499
1.97761
1.98649
1.9922
3.0026
3.03727
2.95994
2.87956
2.68758
2.33141
2.08176
1.93858
1.84729
1.76838
1.71378
1.62201
1.61714
1.66346
1.71762
1.76975
1.8172
1.85899
1.89466
1.92406
1.94736
1.96499
1.97761
1.98649
1.9922
3.00267
3.03775
2.95974
2.87841
2.68601
2.32934
2.07891
1.93531
1.84403
1.766
1.71291
1.6217
1.61699
1.6634
1.7176
1.76974
1.8172
1.85899
1.89466
1.92407
1.94736
1.96499
1.97761
1.98649
1.9922
3.00268
3.03777
2.95977
2.87845
2.68606
2.32942
2.07901
1.93539
1.84408
1.76602
1.71291
1.6217
1.61698
1.66339
1.71759
1.76974
1.8172
1.85899
1.89466
1.92407
1.94736
1.96499
1.97761
1.98649
1.9922
3.00261
3.03731
2.95998
2.87961
2.68764
2.33145
2.08176
1.93859
1.84729
1.76838
1.71378
1.62201
1.61713
1.66345
1.71761
1.76974
1.8172
1.85899
1.89466
1.92406
1.94736
1.96499
1.97761
1.98649
1.9922
3.00269
3.03779
2.95979
2.87848
2.68613
2.32952
2.0791
1.93546
1.84412
1.76604
1.71291
1.62169
1.61697
1.66339
1.71759
1.76973
1.8172
1.85899
1.89466
1.92406
1.94736
1.96499
1.97761
1.98649
1.9922
3.00269
3.03779
2.95978
2.87844
2.68603
2.32938
2.07896
1.93534
1.84404
1.76599
1.71288
1.62168
1.61698
1.6634
1.71759
1.76974
1.8172
1.85899
1.89466
1.92407
1.94736
1.96499
1.97761
1.98649
1.9922
3.00283
3.03765
2.96019
2.87964
2.68752
2.33116
2.08135
1.93807
1.84676
1.76794
1.71353
1.62185
1.61704
1.66341
1.71759
1.76973
1.81719
1.85898
1.89466
1.92406
1.94736
1.96499
1.97761
1.98649
1.9922
3.00245
3.03746
2.95958
2.8784
2.68613
2.32967
2.0794
1.93589
1.84459
1.76642
1.71312
1.62184
1.61704
1.66342
1.71761
1.76975
1.81721
1.859
1.89467
1.92407
1.94736
1.96499
1.97761
1.98649
1.9922
3.00283
3.03765
2.9602
2.87968
2.6876
2.33122
2.08131
1.938
1.84667
1.76788
1.71353
1.62188
1.61707
1.66343
1.7176
1.76974
1.8172
1.85899
1.89466
1.92406
1.94736
1.96499
1.97761
1.98649
1.9922
3.0027
3.03782
2.95981
2.87848
2.6861
2.32948
2.07906
1.93543
1.8441
1.76602
1.71288
1.62168
1.61697
1.66339
1.71759
1.76974
1.8172
1.85899
1.89466
1.92406
1.94736
1.96499
1.97761
1.98649
1.9922
3.00305
3.03811
2.96043
2.87961
2.68733
2.33077
2.08077
1.93737
1.84602
1.76733
1.71318
1.62164
1.61687
1.66318
1.71782
1.76878
1.81675
1.85723
1.87497
1.86485
1.75995
1.43985
0.880101
0.647641
0.787996
3.00305
3.03811
2.96043
2.87961
2.68732
2.33077
2.08079
1.93739
1.84605
1.76736
1.71319
1.62164
1.61689
1.66325
1.71754
1.76962
1.81619
1.8588
1.88509
1.88996
1.83667
1.64171
1.1813
0.860094
0.960117
3.00285
3.03782
2.96024
2.87953
2.68734
2.33094
2.08111
1.93779
1.84645
1.76767
1.71336
1.62175
1.61694
1.66332
1.71749
1.76974
1.81675
1.85849
1.89257
1.90781
1.89651
1.8037
1.52862
1.15123
1.08986
3.00305
3.03804
2.96046
2.87979
2.68762
2.33112
2.08111
1.9377
1.84633
1.76757
1.7133
1.6217
1.61692
1.66332
1.71752
1.76965
1.81717
1.85854
1.89411
1.91923
1.92679
1.89817
1.78165
1.48713
1.26953
3.00289
3.03819
2.96003
2.87851
2.686
2.32921
2.07862
1.93489
1.84355
1.76557
1.71263
1.62151
1.61683
1.66329
1.71752
1.76968
1.81713
1.85895
1.89424
1.9233
1.9417
1.94336
1.90977
1.79215
1.56456
3.00286
3.03777
2.96028
2.8797
2.6876
2.33126
2.08143
1.93811
1.84674
1.76789
1.71348
1.62181
1.61698
1.66335
1.71754
1.76969
1.81715