/*--------------------------------*- C++ -*----------------------------------*\
| =========                 |                                                 |
| \\      /  F ield         | OpenFOAM: The Open Source CFD Toolbox           |
|  \\    /   O peration     | Version:  4.1                                   |
|   \\  /    A nd           | Web:      www.OpenFOAM.org                      |
|    \\/     M anipulation  |                                                 |
\*---------------------------------------------------------------------------*/
FoamFile
{
    version     2.0;
    format      ascii;
    class       volScalarField;
    location    "0.14";
    object      p;
}
// * * * * * * * * * * * * * * * * * * * * * * * * * * * * * * * * * * * * * //

dimensions      [1 -1 -2 0 0 0 0];

internalField   nonuniform List<scalar> 
52500
(
0.0950311
0.0763639
0.0779008
0.0816505
0.0905441
0.10771
0.1409
0.17364
0.199299
0.241123
0.321541
0.437662
0.524672
0.594273
0.666125
0.732555
0.800467
0.858596
0.980425
1.28397
2.2177
5.7334
12.4475
8.47656
7.22072
0.0950314
0.0763658
0.0779031
0.0816541
0.0905502
0.107722
0.140922
0.173667
0.199324
0.24115
0.321557
0.437668
0.524678
0.594271
0.666139
0.732525
0.800532
0.858264
0.978881
1.27831
2.19209
5.58773
12.2936
8.40227
7.11866
0.0950307
0.0763661
0.0779037
0.0816555
0.0905537
0.107728
0.140941
0.173684
0.199336
0.24116
0.321558
0.437662
0.524682
0.594263
0.66617
0.73246
0.800678
0.857502
0.975475
1.26643
2.1404
5.2969
11.9745
8.26982
6.92104
0.0950385
0.0763822
0.0779215
0.0816779
0.0905851
0.107781
0.140979
0.17369
0.199327
0.241119
0.321526
0.437625
0.524673
0.594235
0.666208
0.732351
0.800891
0.856114
0.970017
1.2478
2.0654
4.91121
11.512
8.14096
6.6846
0.0950377
0.0763805
0.0779198
0.0816768
0.0905861
0.107779
0.140983
0.17369
0.199324
0.241119
0.321531
0.437623
0.524691
0.594229
0.66624
0.732267
0.801125
0.854035
0.962209
1.22254
1.97058
4.47813
10.8763
8.0469
6.42713
0.0950387
0.0763721
0.0779077
0.08165
0.0905339
0.107677
0.1408
0.173448
0.199106
0.241124
0.321487
0.43762
0.524712
0.594283
0.666128
0.732541
0.800582
0.853193
0.953795
1.19017
1.85531
4.02213
10.0411
7.98662
6.15765
0.0950454
0.0763851
0.077922
0.0816674
0.0905577
0.107715
0.140827
0.173447
0.199092
0.241075
0.321448
0.437577
0.524664
0.594361
0.665892
0.73301
0.799504
0.854352
0.943457
1.14971
1.71623
3.53181
8.99469
7.9408
5.91599
0.0950465
0.0763995
0.077941
0.0817041
0.0906262
0.107848
0.141048
0.173707
0.199314
0.241072
0.321503
0.437595
0.524607
0.59448
0.66559
0.733552
0.798285
0.855588
0.931419
1.10344
1.55994
2.99445
7.67865
7.8285
5.80241
0.0950462
0.0763883
0.0779257
0.0816726
0.0905658
0.107731
0.140841
0.173459
0.199103
0.241089
0.32147
0.437601
0.524574
0.594654
0.665267
0.734071
0.79712
0.856563
0.918816
1.05576
1.40084
2.44148
5.92037
7.67858
5.73891
0.0950456
0.0763875
0.077925
0.0816727
0.0905677
0.107735
0.140864
0.17349
0.199137
0.24113
0.321514
0.43764
0.524533
0.594829
0.664977
0.734453
0.796234
0.856917
0.907838
1.01401
1.26729
1.972
4.12458
7.31426
5.59851
0.0950388
0.0763829
0.0779226
0.0816796
0.0905884
0.107788
0.140999
0.173719
0.199355
0.241148
0.321543
0.437645
0.524666
0.594278
0.666137
0.732571
0.800485
0.858619
0.980465
1.28405
2.21795
5.73443
12.4473
8.47619
7.22075
0.0950325
0.0763694
0.0779071
0.0816593
0.0905585
0.107734
0.140929
0.173658
0.199305
0.241134
0.321546
0.437666
0.52468
0.594278
0.666148
0.732537
0.800544
0.858282
0.978913
1.27838
2.19232
5.58881
12.2935
8.40197
7.11855
0.0950454
0.0763831
0.0779198
0.0816652
0.0905552
0.107712
0.140827
0.173453
0.199099
0.241062
0.321416
0.437567
0.52466
0.594254
0.666165
0.732458
0.800681
0.857511
0.975496
1.26649
2.14059
5.29772
11.9748
8.26963
6.92089
0.0950303
0.0763632
0.0779
0.0816498
0.0905442
0.10771
0.140887
0.173613
0.199266
0.241102
0.321528
0.437651
0.524688
0.59424
0.666208
0.732351
0.800893
0.85612
0.970033
1.24784
2.06555
4.91181
11.5124
8.14095
6.68436
0.0950454
0.076383
0.0779196
0.0816649
0.0905546
0.107711
0.140825
0.173445
0.199089
0.241044
0.321402
0.437542
0.524669
0.594211
0.666224
0.732254
0.801118
0.854032
0.962217
1.22257
1.97068
4.4785
10.8767
8.047
6.42692
0.0950323
0.076368
0.0779053
0.0816565
0.0905535
0.107724
0.140902
0.173625
0.199272
0.241086
0.321513
0.437619
0.524678
0.594252
0.666103
0.732523
0.800571
0.853188
0.9538
1.19019
1.85539
4.02236
10.0415
7.98675
6.15751
0.0950386
0.0763817
0.077921
0.0816773
0.0905844
0.10778
0.14098
0.173696
0.199333
0.241111
0.321522
0.437604
0.524648
0.594339
0.665873
0.732997
0.799496
0.854351
0.943465
1.14974
1.71632
3.53206
8.99506
7.941
5.91586
0.0950315
0.0763655
0.0779027
0.0816533
0.0905486
0.107719
0.140914
0.173653
0.199307
0.241121
0.321543
0.437636
0.524621
0.594473
0.665576
0.733538
0.798274
0.855583
0.931422
1.10346
1.56001
2.9947
7.6792
7.82855
5.80238
0.0950317
0.0763658
0.0779031
0.081654
0.09055
0.107721
0.140921
0.173667
0.199325
0.241139
0.321568
0.437661
0.524575
0.594639
0.665248
0.734055
0.797109
0.856559
0.918818
1.05578
1.40089
2.44166
5.92095
7.67856
5.73892
0.0950315
0.0763646
0.0779015
0.0816514
0.0905454
0.107712
0.140902
0.173644
0.199303
0.241113
0.321556
0.437659
0.524505
0.594793
0.664945
0.734427
0.796216
0.856909
0.907835
1.01402
1.26732
1.97211
4.125
7.31423
5.59859
0.0950315
0.0763645
0.0779014
0.0816512
0.0905451
0.107711
0.1409
0.173639
0.199295
0.24111
0.321521
0.437642
0.524659
0.594263
0.666118
0.732552
0.800469
0.858605
0.980453
1.28404
2.21794
5.73443
12.4473
8.47619
7.22075
0.0950317
0.0763657
0.0779029
0.0816536
0.0905493
0.10772
0.140916
0.173658
0.199313
0.241126
0.32153
0.437644
0.524662
0.594259
0.66613
0.732522
0.800533
0.858273
0.978905
1.27838
2.19232
5.58882
12.2935
8.40198
7.11855
0.0950315
0.076365
0.0779021
0.0816524
0.0905471
0.107716
0.140907
0.173644
0.199295
0.241106
0.321512
0.43763
0.524658
0.594243
0.666155
0.73245
0.800674
0.857505
0.975491
1.26648
2.14059
5.29773
11.9749
8.26963
6.92089
0.0950384
0.07638
0.0779189
0.0816739
0.0905785
0.107768
0.140954
0.173663
0.1993
0.241071
0.321479
0.437587
0.524647
0.594213
0.66619
0.732339
0.800886
0.856114
0.970028
1.24784
2.06555
4.91182
11.5124
8.14095
6.68436
0.0950315
0.0763647
0.0779016
0.0816517
0.0905466
0.107712
0.140893
0.173613
0.199261
0.241075
0.3215
0.437616
0.524679
0.594209
0.66622
0.73225
0.801114
0.854029
0.962214
1.22257
1.97068
4.47851
10.8767
8.047
6.42692
0.0950381
0.0763669
0.0779017
0.0816417
0.0905215
0.107655
0.14076
0.17342
0.199087
0.241078
0.321442
0.437576
0.524682
0.594254
0.666101
0.73252
0.800568
0.853187
0.953799
1.19019
1.85539
4.02236
10.0415
7.98675
6.15751
0.0950315
0.0763648
0.0779017
0.0816519
0.0905469
0.107712
0.140894
0.173617
0.199266
0.241083
0.321514
0.437621
0.524657
0.594342
0.665871
0.732994
0.799493
0.854348
0.943463
1.14973
1.71632
3.53206
8.99507
7.941
5.91586
0.0950387
0.076382
0.0779214
0.0816778
0.0905854
0.107782
0.140984
0.1737
0.199336
0.241108
0.321523
0.437604
0.524604
0.594466
0.665574
0.733539
0.798276
0.855586
0.931425
1.10346
1.56002
2.99471
7.67921
7.82854
5.80238
0.0950313
0.0763645
0.0779015
0.0816515
0.0905454
0.107713
0.140904
0.17364
0.199293
0.241112
0.321544
0.437645
0.524562
0.594633
0.665247
0.734057
0.797112
0.856561
0.918821
1.05578
1.40089
2.44167
5.92096
7.67856
5.73892
0.0950387
0.076382
0.0779214
0.0816778
0.0905854
0.107782
0.140984
0.1737
0.199336
0.241104
0.321533
0.437623
0.524484
0.594785
0.664944
0.73443
0.796221
0.856914
0.90784
1.01402
1.26733
1.97211
4.12501
7.31423
5.59859
0.0950315
0.0763643
0.0779012
0.0816508
0.0905444
0.10771
0.140893
0.173627
0.19928
0.241084
0.321493
0.437615
0.52464
0.594248
0.666107
0.732544
0.800465
0.858602
0.98045
1.28404
2.21794
5.73443
12.4473
8.47619
7.22075
0.0950315
0.0763643
0.0779012
0.0816508
0.0905444
0.10771
0.140893
0.173628
0.199282
0.241085
0.321494
0.437616
0.524642
0.594244
0.666118
0.732513
0.800527
0.858268
0.978901
1.27837
2.19232
5.58882
12.2935
8.40198
7.11855
0.0950315
0.0763643
0.0779012
0.0816508
0.0905444
0.10771
0.140893
0.173628
0.199282
0.241085
0.321494
0.437614
0.524647
0.594232
0.666145
0.732441
0.800669
0.8575
0.975488
1.26648
2.14059
5.29772
11.9749
8.26964
6.92089
0.0950315
0.0763643
0.0779012
0.0816508
0.0905444
0.10771
0.140893
0.173628
0.199282
0.241084
0.321495
0.43761
0.524657
0.594214
0.666186
0.732334
0.800882
0.85611
0.970025
1.24784
2.06555
4.91181
11.5124
8.14095
6.68436
0.0950315
0.0763643
0.0779012
0.0816508
0.0905444
0.10771
0.140893
0.173628
0.199282
0.241084
0.321497
0.437604
0.524668
0.594199
0.666211
0.732244
0.80111
0.854025
0.962212
1.22256
1.97068
4.47851
10.8767
8.047
6.42692
0.0950315
0.0763643
0.0779012
0.0816508
0.0905444
0.10771
0.140893
0.173628
0.199282
0.241083
0.3215
0.4376
0.524663
0.594237
0.666089
0.732512
0.800563
0.853183
0.953797
1.19019
1.85539
4.02236
10.0415
7.98675
6.15751
0.0950315
0.0763643
0.0779012
0.0816508
0.0905444
0.10771
0.140893
0.173628
0.199282
0.241082
0.321503
0.437601
0.524639
0.594325
0.665858
0.732983
0.799485
0.854343
0.943458
1.14973
1.71631
3.53206
8.99507
7.94101
5.91586
0.0950315
0.0763643
0.0779012
0.0816508
0.0905444
0.10771
0.140893
0.173628
0.199282
0.241081
0.321507
0.437605
0.524599
0.594454
0.665559
0.733525
0.798265
0.855579
0.931418
1.10346
1.56001
2.9947
7.67921
7.82855
5.80238
0.0950315
0.0763643
0.0779012
0.0816508
0.0905444
0.10771
0.140893
0.173628
0.199282
0.241079
0.321511
0.437614
0.524541
0.594613
0.665228
0.734041
0.797099
0.856553
0.918814
1.05577
1.40089
2.44167
5.92096
7.67856
5.73893
0.0950315
0.0763643
0.0779012
0.0816508
0.0905444
0.10771
0.140893
0.173628
0.199283
0.241077
0.321517
0.437623
0.524479
0.594773
0.664929
0.734417
0.79621
0.856906
0.907833
1.01402
1.26732
1.97211
4.12501
7.31423
5.59859
0.0950304
0.0763627
0.0778995
0.0816492
0.0905433
0.107707
0.140896
0.173626
0.199279
0.241085
0.32149
0.437608
0.524637
0.594248
0.666106
0.732542
0.80046
0.858596
0.980444
1.28403
2.21794
5.7344
12.4476
8.47613
7.22078
0.0950305
0.0763628
0.0778996
0.0816494
0.0905435
0.107708
0.140895
0.173626
0.199279
0.241084
0.321491
0.43761
0.524642
0.594246
0.666121
0.732514
0.800526
0.858265
0.978898
1.27837
2.19231
5.58868
12.2938
8.4019
7.11875
0.095031
0.0763631
0.0778998
0.0816492
0.090542
0.107707
0.140886
0.173618
0.19927
0.241075
0.321491
0.437616
0.52465
0.594238
0.666152
0.732447
0.800671
0.857502
0.97549
1.26648
2.1406
5.29776
11.9747
8.26955
6.92112
0.0950311
0.0763633
0.0779001
0.0816495
0.0905425
0.107708
0.140887
0.173619
0.199271
0.241075
0.321493
0.437611
0.524659
0.594219
0.666193
0.73234
0.800884
0.856113
0.970028
1.24785
2.06556
4.91192
11.5122
8.14074
6.68458
0.0950307
0.0763631
0.0779
0.0816498
0.090544
0.107709
0.140896
0.173627
0.199279
0.241084
0.321494
0.437598
0.524667
0.594201
0.666215
0.732246
0.80111
0.854025
0.962211
1.22256
1.9707
4.47856
10.8767
8.04675
6.42712
0.0950307
0.0763639
0.0779007
0.0816504
0.0905445
0.10771
0.140896
0.173627
0.19928
0.241084
0.321498
0.437594
0.52466
0.594236
0.66609
0.732512
0.80056
0.853179
0.953791
1.19019
1.85539
4.02238
10.0415
7.98666
6.15759
0.0950304
0.0763626
0.0778994
0.0816489
0.0905426
0.107706
0.140892
0.173622
0.199276
0.241078
0.3215
0.437595
0.524638
0.594327
0.66586
0.732984
0.799483
0.854339
0.943452
1.14972
1.7163
3.53204
8.99505
7.94098
5.91588
0.0950311
0.0763633
0.0779
0.0816494
0.0905422
0.107708
0.140887
0.173619
0.199273
0.241075
0.321507
0.437608
0.5246
0.594457
0.665562
0.733526
0.798263
0.855574
0.931412
1.10345
1.55999
2.99466
7.67912
7.82856
5.8024
0.0950307
0.0763632
0.0779001
0.08165
0.0905444
0.107709
0.140899
0.173632
0.199287
0.241091
0.321519
0.437617
0.524546
0.594619
0.665232
0.734043
0.797098
0.856549
0.918807
1.05576
1.40087
2.44162
5.92083
7.67859
5.73894
0.0950308
0.0763637
0.0779006
0.0816507
0.0905455
0.107711
0.140904
0.173639
0.199295
0.2411
0.321534
0.437632
0.524487
0.59478
0.664935
0.734419
0.796209
0.856902
0.907828
1.01401
1.26731
1.97208
4.12491
7.31427
5.59861
0.0950315
0.0763644
0.0779012
0.0816509
0.0905445
0.10771
0.140894
0.173628
0.199281
0.241085
0.321494
0.437616
0.52464
0.594248
0.666106
0.732544
0.800465
0.858601
0.980449
1.28404
2.21793
5.73437
12.4473
8.47623
7.22076
0.0950315
0.0763644
0.0779013
0.081651
0.0905447
0.107711
0.140894
0.173629
0.199282
0.241086
0.321494
0.437616
0.524642
0.594243
0.666118
0.732512
0.800527
0.858267
0.9789
1.27837
2.19231
5.58877
12.2935
8.402
7.11856
0.0950315
0.0763644
0.0779013
0.0816509
0.0905445
0.10771
0.140893
0.173629
0.199282
0.241085
0.321495
0.437614
0.524647
0.594232
0.666145
0.732441
0.800669
0.8575
0.975487
1.26648
2.14058
5.29769
11.9749
8.26965
6.92089
0.0950316
0.0763645
0.0779013
0.081651
0.0905445
0.10771
0.140893
0.173628
0.199282
0.241084
0.321496
0.43761
0.524656
0.594213
0.666186
0.732334
0.800882
0.85611
0.970025
1.24784
2.06554
4.91179
11.5124
8.14097
6.68437
0.0950315
0.0763644
0.0779012
0.0816509
0.0905445
0.10771
0.140893
0.173629
0.199282
0.241084
0.321498
0.437604
0.524667
0.594198
0.666211
0.732244
0.80111
0.854025
0.962211
1.22256
1.97068
4.47849
10.8767
8.04703
6.42692
0.0950316
0.0763645
0.0779013
0.081651
0.0905445
0.10771
0.140893
0.173628
0.199282
0.241083
0.321501
0.4376
0.524662
0.594236
0.666088
0.732512
0.800563
0.853183
0.953796
1.19019
1.85538
4.02235
10.0415
7.98678
6.1575
0.0950315
0.0763644
0.0779013
0.0816509
0.0905445
0.10771
0.140894
0.173629
0.199283
0.241084
0.321505
0.437602
0.52464
0.594326
0.665858
0.732983
0.799485
0.854343
0.943458
1.14973
1.71631
3.53206
8.99507
7.94101
5.91586
0.0950315
0.0763645
0.0779013
0.081651
0.0905447
0.107711
0.140894
0.17363
0.199285
0.241085
0.321511
0.437609
0.524602
0.594456
0.66556
0.733525
0.798265
0.855578
0.931418
1.10346
1.56001
2.9947
7.67921
7.82856
5.80237
0.0950315
0.0763644
0.0779013
0.081651
0.0905447
0.107711
0.140896
0.173633
0.199288
0.241089
0.321522
0.437624
0.524549
0.594619
0.665232
0.734044
0.797101
0.856554
0.918814
1.05577
1.40088
2.44166
5.92095
7.67858
5.73892
0.0950315
0.0763645
0.0779014
0.0816511
0.0905449
0.107711
0.140898
0.173636
0.199293
0.241094
0.321535
0.437639
0.52449
0.594782
0.664936
0.734422
0.796213
0.856908
0.907834
1.01402
1.26732
1.9721
4.12499
7.31425
5.59858
0.0950315
0.0763643
0.0779012
0.0816508
0.0905444
0.10771
0.140893
0.173627
0.19928
0.241084
0.321493
0.437615
0.52464
0.594248
0.666107
0.732544
0.800465
0.858602
0.98045
1.28404
2.21794
5.73443
12.4473
8.47619
7.22075
0.0950315
0.0763643
0.0779012
0.0816508
0.0905444
0.10771
0.140893
0.173628
0.199282
0.241085
0.321494
0.437616
0.524642
0.594244
0.666118
0.732513
0.800527
0.858268
0.978902
1.27837
2.19232
5.58882
12.2935
8.40198
7.11855
0.0950315
0.0763643
0.0779012
0.0816508
0.0905444
0.10771
0.140893
0.173628
0.199282
0.241084
0.321494
0.437614
0.524647
0.594232
0.666145
0.732442
0.800669
0.8575
0.975488
1.26648
2.14059
5.29773
11.9749
8.26963
6.92089
0.0950315
0.0763643
0.0779012
0.0816508
0.0905444
0.10771
0.140893
0.173628
0.199282
0.241084
0.321495
0.43761
0.524657
0.594214
0.666186
0.732334
0.800882
0.85611
0.970026
1.24784
2.06555
4.91182
11.5124
8.14095
6.68436
0.0950315
0.0763643
0.0779012
0.0816508
0.0905444
0.10771
0.140893
0.173628
0.199282
0.241084
0.321497
0.437604
0.524668
0.594199
0.666211
0.732244
0.80111
0.854025
0.962212
1.22256
1.97068
4.47851
10.8767
8.047
6.42692
0.0950315
0.0763643
0.0779012
0.0816508
0.0905444
0.10771
0.140893
0.173628
0.199282
0.241083
0.3215
0.4376
0.524663
0.594237
0.666089
0.732512
0.800563
0.853183
0.953797
1.19019
1.85539
4.02236
10.0415
7.98675
6.15751
0.0950315
0.0763643
0.0779012
0.0816508
0.0905444
0.10771
0.140893
0.173628
0.199282
0.241082
0.321503
0.437601
0.52464
0.594326
0.665858
0.732983
0.799485
0.854343
0.943459
1.14973
1.71631
3.53206
8.99507
7.94101
5.91586
0.0950315
0.0763643
0.0779012
0.0816508
0.0905444
0.10771
0.140893
0.173628
0.199282
0.241081
0.321507
0.437605
0.524599
0.594454
0.665559
0.733525
0.798265
0.855579
0.931418
1.10346
1.56001
2.99471
7.67921
7.82855
5.80238
0.0950315
0.0763643
0.0779012
0.0816508
0.0905444
0.10771
0.140893
0.173628
0.199282
0.241079
0.321511
0.437614
0.524541
0.594613
0.665228
0.734041
0.797099
0.856553
0.918814
1.05577
1.40089
2.44167
5.92096
7.67856
5.73893
0.0950315
0.0763643
0.0779012
0.0816508
0.0905444
0.10771
0.140893
0.173628
0.199283
0.241077
0.321517
0.437623
0.524479
0.594773
0.664929
0.734417
0.79621
0.856906
0.907833
1.01402
1.26732
1.97211
4.12501
7.31423
5.59859
0.0950315
0.0763645
0.0779014
0.0816512
0.0905451
0.107711
0.1409
0.173639
0.199295
0.24111
0.321521
0.437642
0.524659
0.594263
0.666118
0.732552
0.800469
0.858605
0.980453
1.28404
2.21794
5.73443
12.4473
8.47619
7.22075
0.0950317
0.0763657
0.0779029
0.0816536
0.0905493
0.10772
0.140916
0.173658
0.199313
0.241126
0.32153
0.437644
0.524662
0.594259
0.66613
0.732522
0.800533
0.858273
0.978905
1.27838
2.19232
5.58882
12.2935
8.40198
7.11855
0.0950315
0.076365
0.0779021
0.0816524
0.0905471
0.107716
0.140907
0.173644
0.199295
0.241106
0.321512
0.43763
0.524658
0.594243
0.666155
0.73245
0.800674
0.857505
0.975491
1.26648
2.14059
5.29773
11.9749
8.26963
6.92089
0.0950384
0.07638
0.0779189
0.0816739
0.0905785
0.107768
0.140954
0.173663
0.1993
0.241071
0.321479
0.437587
0.524647
0.594213
0.66619
0.732339
0.800886
0.856114
0.970028
1.24784
2.06555
4.91182
11.5124
8.14095
6.68436
0.0950315
0.0763647
0.0779016
0.0816517
0.0905466
0.107712
0.140893
0.173613
0.199261
0.241075
0.3215
0.437616
0.524679
0.594209
0.66622
0.73225
0.801114
0.854029
0.962214
1.22257
1.97068
4.47851
10.8767
8.047
6.42692
0.0950381
0.0763669
0.0779017
0.0816417
0.0905215
0.107655
0.14076
0.17342
0.199087
0.241078
0.321442
0.437576
0.524682
0.594254
0.666101
0.73252
0.800568
0.853187
0.953799
1.19019
1.85539
4.02236
10.0415
7.98675
6.15751
0.0950315
0.0763648
0.0779017
0.0816519
0.0905469
0.107712
0.140894
0.173617
0.199266
0.241083
0.321514
0.437621
0.524657
0.594342
0.665871
0.732994
0.799493
0.854348
0.943463
1.14973
1.71632
3.53206
8.99507
7.941
5.91586
0.0950387
0.076382
0.0779214
0.0816778
0.0905854
0.107782
0.140984
0.1737
0.199336
0.241108
0.321523
0.437604
0.524604
0.594466
0.665574
0.733539
0.798276
0.855586
0.931425
1.10346
1.56002
2.99471
7.67921
7.82854
5.80238
0.0950313
0.0763645
0.0779015
0.0816515
0.0905454
0.107713
0.140904
0.17364
0.199293
0.241112
0.321544
0.437645
0.524562
0.594633
0.665247
0.734057
0.797112
0.856561
0.918821
1.05578
1.40089
2.44167
5.92096
7.67856
5.73892
0.0950387
0.076382
0.0779214
0.0816778
0.0905854
0.107782
0.140984
0.1737
0.199336
0.241104
0.321533
0.437623
0.524484
0.594785
0.664944
0.73443
0.796221
0.856914
0.90784
1.01402
1.26733
1.97211
4.12501
7.31423
5.59859
0.0950388
0.0763829
0.0779226
0.0816796
0.0905884
0.107788
0.140999
0.173719
0.199355
0.241148
0.321543
0.437645
0.524666
0.594278
0.666137
0.732571
0.800485
0.858619
0.980465
1.28405
2.21795
5.73443
12.4473
8.47619
7.22075
0.0950325
0.0763694
0.0779071
0.0816594
0.0905585
0.107734
0.140929
0.173658
0.199305
0.241134
0.321546
0.437666
0.52468
0.594278
0.666148
0.732537
0.800544
0.858282
0.978913
1.27838
2.19232
5.58881
12.2935
8.40197
7.11855
0.0950454
0.0763831
0.0779198
0.0816652
0.0905552
0.107712
0.140827
0.173453
0.199099
0.241062
0.321416
0.437567
0.52466
0.594254
0.666165
0.732458
0.800681
0.857511
0.975496
1.26649
2.14059
5.29772
11.9748
8.26963
6.92089
0.0950303
0.0763632
0.0779
0.0816498
0.0905442
0.10771
0.140887
0.173613
0.199266
0.241102
0.321528
0.437651
0.524688
0.59424
0.666208
0.732351
0.800893
0.85612
0.970032
1.24784
2.06555
4.91181
11.5124
8.14095
6.68436
0.0950454
0.076383
0.0779196
0.0816648
0.0905546
0.107711
0.140825
0.173445
0.199089
0.241044
0.321402
0.437542
0.524669
0.594211
0.666224
0.732254
0.801118
0.854032
0.962217
1.22257
1.97068
4.4785
10.8767
8.047
6.42692
0.0950323
0.0763681
0.0779054
0.0816565
0.0905536
0.107724
0.140902
0.173625
0.199272
0.241086
0.321513
0.437619
0.524678
0.594252
0.666103
0.732523
0.800571
0.853188
0.9538
1.19019
1.85539
4.02236
10.0415
7.98675
6.15751
0.0950386
0.0763817
0.077921
0.0816772
0.0905844
0.10778
0.140979
0.173696
0.199333
0.241111
0.321522
0.437604
0.524648
0.594339
0.665873
0.732997
0.799496
0.85435
0.943465
1.14974
1.71632
3.53206
8.99506
7.941
5.91586
0.0950315
0.0763655
0.0779027
0.0816533
0.0905485
0.107719
0.140914
0.173653
0.199307
0.241121
0.321543
0.437636
0.524621
0.594473
0.665576
0.733538
0.798274
0.855583
0.931422
1.10346
1.56001
2.9947
7.6792
7.82855
5.80238
0.0950317
0.0763658
0.0779031
0.081654
0.09055
0.107721
0.140921
0.173667
0.199325
0.241139
0.321568
0.437661
0.524575
0.594639
0.665248
0.734055
0.797109
0.856559
0.918818
1.05578
1.40089
2.44166
5.92095
7.67856
5.73892
0.0950315
0.0763646
0.0779015
0.0816514
0.0905454
0.107712
0.140902
0.173644
0.199303
0.241113
0.321556
0.437659
0.524505
0.594793
0.664945
0.734427
0.796216
0.856909
0.907835
1.01402
1.26732
1.97211
4.125
7.31423
5.59859
0.0950313
0.0763657
0.0779031
0.0816542
0.0905505
0.107724
0.140928
0.17367
0.199325
0.241157
0.321567
0.437681
0.524683
0.594285
0.666137
0.732566
0.800475
0.858604
0.980435
1.28398
2.21773
5.73353
12.4472
8.47648
7.2209
0.0950372
0.0763789
0.0779179
0.0816733
0.0905791
0.107768
0.140968
0.173678
0.199319
0.241112
0.321516
0.437626
0.524662
0.594269
0.666142
0.73253
0.800535
0.858267
0.978884
1.27831
2.1921
5.58767
12.2937
8.40213
7.11886
0.0950311
0.0763654
0.0779027
0.081654
0.0905513
0.107723
0.140916
0.173655
0.19931
0.241146
0.321567
0.437681
0.524691
0.594268
0.666172
0.732459
0.800674
0.857498
0.975471
1.26643
2.1404
5.29687
11.9747
8.26975
6.92111
0.0950366
0.0763681
0.0779035
0.0816456
0.0905296
0.107667
0.140816
0.173472
0.199134
0.241148
0.321483
0.43761
0.524698
0.594253
0.666216
0.732354
0.800889
0.856111
0.970011
1.24779
2.06539
4.9112
11.5121
8.14098
6.68458
0.0950381
0.0763815
0.0779208
0.0816775
0.0905854
0.107781
0.140968
0.173662
0.199293
0.241093
0.321512
0.437616
0.524685
0.594221
0.666231
0.732256
0.801114
0.854024
0.962198
1.22252
1.97056
4.4781
10.8763
8.04695
6.42712
0.0950451
0.0763965
0.0779377
0.0816998
0.0906199
0.107836
0.14105
0.173719
0.199332
0.241092
0.32151
0.437592
0.52467
0.594261
0.666118
0.732537
0.800577
0.853188
0.953789
1.19016
1.85529
4.02209
10.0411
7.98667
6.15766
0.0950388
0.076371
0.0779063
0.0816475
0.0905293
0.107669
0.140773
0.173419
0.199078
0.241104
0.321477
0.437613
0.524684
0.594371
0.665896
0.733011
0.799502
0.854347
0.943451
1.1497
1.71622
3.53177
8.99462
7.94083
5.916
0.0950452
0.0763863
0.0779239
0.0816716
0.0905669
0.107736
0.140872
0.173503
0.199144
0.24113
0.321499
0.43762
0.524651
0.594513
0.665615
0.733569
0.798294
0.855593
0.93142
1.10343
1.55993
2.99442
7.67855
7.82851
5.80242
0.0950384
0.0763829
0.0779221
0.0816787
0.090587
0.107782
0.14096
0.173641
0.19927
0.241077
0.321528
0.437636
0.524569
0.594653
0.665269
0.734075
0.797123
0.856562
0.918814
1.05576
1.40083
2.44145
5.92028
7.67857
5.73891
0.0950518
0.076402
0.0779415
0.0816945
0.0906004
0.107787
0.140936
0.173532
0.199159
0.241099
0.321461
0.437572
0.5245
0.59482
0.66498
0.73446
0.79624
0.85692
0.907839
1.01401
1.26729
1.97198
4.12453
7.31424
5.59851
0.0950391
0.0763855
0.0779255
0.0816842
0.0905971
0.107801
0.14102
0.173736
0.199371
0.241186
0.321634
0.437723
0.524487
0.594953
0.66484
0.734428
0.796217
0.855483
0.901465
0.980353
1.16184
1.63358
2.98226
6.21645
5.02412
0.0950461
0.076388
0.0779257
0.0816736
0.0905688
0.107737
0.140878
0.173521
0.199172
0.241165
0.321557
0.437692
0.524468
0.594946
0.664987
0.733927
0.79698
0.853065
0.900794
0.95442
1.07377
1.36708
2.21719
4.60748
4.26231
0.0950399
0.0763883
0.0779289
0.0816887
0.0906033
0.107813
0.141048
0.173765
0.199398
0.24121
0.321646
0.437749
0.524475
0.594915
0.665096
0.733671
0.797288
0.851761
0.900192
0.936211
1.00554
1.16533
1.58787
2.79137
3.6175
0.0950466
0.0764023
0.0779446
0.0817093
0.0906343
0.107864
0.141097
0.17379
0.199406
0.241185
0.321622
0.437717
0.524464
0.5949
0.665095
0.733695
0.797061
0.852017
0.897778
0.934416
0.970854
1.04997
1.23704
1.72282
2.78877
0.0950464
0.0763913
0.0779296
0.0816789
0.0905773
0.107753
0.140893
0.17352
0.199165
0.241159
0.321548
0.437691
0.524474
0.594913
0.665089
0.73371
0.796989
0.852041
0.897081
0.932781
0.959682
0.994372
1.07176
1.25304
1.67355
0.0950463
0.0763898
0.0779277
0.0816764
0.0905735
0.107745
0.140879
0.173505
0.199147
0.24115
0.321549
0.437699
0.524479
0.594913
0.665095
0.733701
0.797003
0.851977
0.897058
0.931825
0.957987
0.977555
1.00464
1.0644
1.19808
0.0950533
0.0764041
0.0779433
0.0816954
0.0905996
0.107786
0.140899
0.173483
0.199111
0.241076
0.321481
0.437637
0.524446
0.594895
0.665083
0.733696
0.796988
0.851984
0.896989
0.931739
0.957045
0.975047
0.988662
1.0058
1.04255
0.0950535
0.0764057
0.0779453
0.0816985
0.0906053
0.107797
0.140921
0.173509
0.199133
0.241098
0.321494
0.437644
0.524452
0.5949
0.665087
0.7337
0.796993
0.851981
0.89699
0.931689
0.956911
0.974279
0.98586
0.994525
1.00335
0.0950469
0.0763925
0.0779309
0.0816807
0.0905804
0.107757
0.140896
0.173516
0.199154
0.241159
0.321553
0.4377
0.524481
0.594918
0.665099
0.733707
0.796997
0.851984
0.896989
0.931685
0.956868
0.974141
0.985426
0.992268
0.997047
0.0950531
0.0764066
0.0779467
0.081701
0.09061
0.107808
0.140952
0.173552
0.19918
0.241143
0.321528
0.437665
0.524465
0.59491
0.665096
0.733707
0.796997
0.851984
0.896988
0.931683
0.956862
0.974112
0.985337
0.991941
0.99586
0.0950473
0.0764038
0.0779462
0.0817116
0.0906383
0.107871
0.141097
0.173781
0.199395
0.241184
0.321629
0.437732
0.524476
0.594915
0.6651
0.733711
0.797
0.851986
0.89699
0.931683
0.956861
0.974106
0.985324
0.991883
0.995671
0.0950465
0.0763916
0.0779299
0.0816792
0.0905775
0.107751
0.140908
0.173553
0.199202
0.241212
0.321596
0.437729
0.524499
0.59493
0.665108
0.733714
0.797001
0.851986
0.896989
0.931683
0.95686
0.974105
0.985321
0.991874
0.995641
0.0950465
0.0763917
0.0779301
0.0816795
0.0905782
0.107753
0.140908
0.173551
0.199198
0.241207
0.321589
0.437723
0.524497
0.594927
0.665105
0.733711
0.796999
0.851985
0.896988
0.931682
0.95686
0.974105
0.98532
0.991872
0.995636
0.0950473
0.0764035
0.0779458
0.0817109
0.0906372
0.107868
0.141095
0.173775
0.199388
0.241171
0.321617
0.437722
0.524469
0.59491
0.665096
0.733706
0.796996
0.851983
0.896987
0.931681
0.956859
0.974105
0.98532
0.991872
0.995635
0.0950527
0.0764047
0.0779444
0.0816974
0.0906037
0.107796
0.140924
0.173522
0.199153
0.241117
0.321513
0.437659
0.52446
0.594905
0.66509
0.7337
0.796991
0.851979
0.896984
0.93168
0.956858
0.974104
0.98532
0.991872
0.995635
0.0950463
0.0763903
0.0779283
0.0816773
0.0905751
0.107747
0.140886
0.173511
0.199155
0.241164
0.321562
0.437713
0.524493
0.594924
0.665101
0.733707
0.796995
0.851982
0.896986
0.931681
0.956859
0.974104
0.98532
0.991872
0.995635
0.0950463
0.0763906
0.0779287
0.0816779
0.0905761
0.107749
0.140889
0.173515
0.199158
0.241169
0.321565
0.437714
0.524494
0.594925
0.665102
0.733709
0.796997
0.851983
0.896987
0.931682
0.95686
0.974105
0.98532
0.991872
0.995635
0.0950528
0.0764058
0.0779459
0.0817001
0.0906088
0.107806
0.140951
0.17356
0.19919
0.241158
0.321542
0.437677
0.524473
0.594915
0.665099
0.733708
0.796998
0.851984
0.896988
0.931682
0.95686
0.974105
0.98532
0.991872
0.995635
0.0950479
0.0764058
0.0779484
0.081714
0.090641
0.107873
0.141108
0.173782
0.199391
0.241176
0.321618
0.437721
0.524469
0.594912
0.665099
0.73371
0.797
0.851986
0.896989
0.931683
0.956861
0.974105
0.985321
0.991872
0.995635
0.0950531
0.0764072
0.0779477
0.0817028
0.0906138
0.107816
0.140968
0.173581
0.199209
0.241176
0.321554
0.437683
0.524475
0.594918
0.665102
0.73371
0.797
0.851986
0.896989
0.931683
0.95686
0.974105
0.98532
0.991872
0.995635
0.0950464
0.0763904
0.0779282
0.0816767
0.0905734
0.107744
0.140875
0.173495
0.199139
0.241155
0.321558
0.437712
0.524492
0.594926
0.665104
0.73371
0.796998
0.851983
0.896987
0.931682
0.956859
0.974104
0.98532
0.991872
0.995635
0.0950536
0.0764071
0.0779472
0.0817017
0.0906112
0.107809
0.14095
0.173551
0.199179
0.241151
0.321543
0.437684
0.52448
0.59492
0.665102
0.73371
0.796999
0.851985
0.896988
0.931682
0.95686
0.974105
0.98532
0.991872
0.995635
0.0950464
0.0763903
0.0779281
0.0816767
0.0905734
0.107744
0.140875
0.173496
0.199141
0.241157
0.32156
0.437714
0.524494
0.594927
0.665105
0.733711
0.796999
0.851984
0.896988
0.931682
0.956859
0.974104
0.98532
0.991872
0.995635
0.0950532
0.0764076
0.0779481
0.0817033
0.0906146
0.107817
0.140973
0.173587
0.199215
0.241185
0.321563
0.437689
0.52448
0.594922
0.665105
0.733713
0.797002
0.851987
0.89699
0.931684
0.956861
0.974105
0.98532
0.991872
0.995635
0.095048
0.0764061
0.0779488
0.0817145
0.0906418
0.107875
0.14111
0.173785
0.199393
0.241183
0.321623
0.437726
0.524473
0.594916
0.665103
0.733713
0.797003
0.851988
0.896991
0.931684
0.956861
0.974106
0.985321
0.991872
0.995635
0.0950533
0.0764076
0.0779481
0.0817032
0.0906141
0.107816
0.14097
0.173584
0.199213
0.241182
0.321561
0.437689
0.524478
0.59492
0.665105
0.733714
0.797003
0.851988
0.896991
0.931684
0.956861
0.974105
0.985321
0.991872
0.995635
0.0950464
0.0763903
0.0779282
0.0816769
0.0905739
0.107745
0.140877
0.173497
0.199141
0.241155
0.321556
0.437709
0.524492
0.594925
0.665104
0.73371
0.796999
0.851984
0.896988
0.931682
0.95686
0.974105
0.98532
0.991872
0.995635
0.0950538
0.0764072
0.0779473
0.0817016
0.0906106
0.107807
0.140945
0.173543
0.199169
0.241137
0.321531
0.437673
0.524471
0.594914
0.665098
0.733707
0.796997
0.851984
0.896988
0.931683
0.95686
0.974105
0.98532
0.991872
0.995635
0.0950463
0.0763899
0.0779276
0.081676
0.0905723
0.107742
0.14087
0.173488
0.199131
0.24114
0.321544
0.4377
0.524483
0.594918
0.665098
0.733706
0.796995
0.851982
0.896986
0.931681
0.956859
0.974104
0.98532
0.991872
0.995635
0.095053
0.0764062
0.0779463
0.0817005
0.0906093
0.107807
0.140949
0.173549
0.199178
0.241139
0.321525
0.437663
0.524464
0.594908
0.665093
0.733704
0.796995
0.851982
0.896987
0.931682
0.95686
0.974105
0.98532
0.991872
0.995635
0.0950472
0.0764034
0.0779458
0.081711
0.0906375
0.107869
0.141091
0.17377
0.199381
0.241163
0.321607
0.437713
0.524463
0.594905
0.665092
0.733704
0.796995
0.851983
0.896987
0.931682
0.95686
0.974105
0.985321
0.991872
0.995635
0.0950463
0.0763911
0.0779293
0.0816785
0.0905766