/*--------------------------------*- C++ -*----------------------------------*\
| =========                 |                                                 |
| \\      /  F ield         | OpenFOAM: The Open Source CFD Toolbox           |
|  \\    /   O peration     | Version:  4.1                                   |
|   \\  /    A nd           | Web:      www.OpenFOAM.org                      |
|    \\/     M anipulation  |                                                 |
\*---------------------------------------------------------------------------*/
FoamFile
{
    version     2.0;
    format      ascii;
    class       surfaceScalarField;
    location    "0.14";
    object      phi;
}
// * * * * * * * * * * * * * * * * * * * * * * * * * * * * * * * * * * * * * //

dimensions      [1 0 -1 0 0 0 0];

internalField   nonuniform List<scalar> 
150500
(
0.0020319
7.32674e-12
-3.3081e-11
0.00204246
-1.24405e-09
-8.00858e-11
0.00207821
-4.06674e-10
-9.13535e-11
0.00214724
-1.12523e-09
-1.2213e-10
0.00211243
-1.02938e-08
-1.85781e-10
0.00221211
-3.44524e-08
-3.23457e-10
0.00247864
-8.30432e-08
-4.18016e-10
0.00281614
-1.33567e-07
-3.35766e-10
0.00323466
-1.73305e-07
-2.37979e-10
0.00401851
-2.08189e-07
-1.06327e-10
0.00482097
-2.02085e-07
-8.53243e-12
0.00515465
-1.62345e-07
7.42025e-11
0.00561424
-1.25802e-07
2.90777e-11
0.00627875
-9.00812e-08
-2.23388e-11
0.00703735
-8.88582e-08
-5.1643e-11
0.0078269
-1.58786e-08
-6.99281e-11
0.00855622
-1.19605e-07
-7.28392e-11
0.00921933
4.97114e-07
-9.65182e-11
0.00958382
2.85235e-06
-1.67542e-10
0.00942216
1.17264e-05
-3.50904e-10
0.00788621
5.90983e-05
-1.08155e-09
-0.000949781
0.000430992
-4.89288e-09
-0.00347787
0.00145808
9.81028e-10
0.000934838
0.000963729
1.73498e-09
0.00101041
-1.33713e-10
0.00203191
-2.99792e-09
-4.95656e-12
0.00204246
-1.31406e-08
-1.53677e-11
0.00207823
-2.52962e-08
-1.68249e-11
0.00214731
-4.33516e-08
-2.21596e-11
0.00211253
-7.74439e-08
-3.48778e-11
0.00221229
-1.3891e-07
-5.01956e-11
0.00247889
-2.41726e-07
-2.86034e-11
0.00281641
-3.2114e-07
3.91146e-11
0.00323494
-3.6406e-07
8.1148e-11
0.00401876
-3.68097e-07
6.68819e-11
0.00482112
-3.1867e-07
4.56822e-11
0.00515475
-2.38577e-07
1.05542e-11
0.00561429
-1.89099e-07
-7.82722e-12
0.0062788
-1.34359e-07
-2.69526e-11
0.00703735
-1.57098e-07
-3.74548e-11
0.00782701
-1.14839e-09
-4.69808e-11
0.00855584
-2.54237e-07
-4.94431e-11
0.00922124
1.19982e-06
-7.39926e-11
0.0095899
6.51984e-06
-1.34285e-10
0.00944775
2.61222e-05
-3.15312e-10
0.00799256
0.000125875
-1.02894e-09
-0.000555974
0.0008571
-5.13114e-09
-0.00337321
0.0030362
5.17442e-10
0.000964312
0.00192833
1.37538e-09
0.00200113
5.07891e-10
0.0020319
-1.11815e-08
-6.33639e-11
0.00204245
-3.93878e-08
-7.16619e-11
0.00207823
-6.79651e-08
-6.77186e-11
0.00214735
-1.08712e-07
-4.07229e-11
0.00211259
-1.79012e-07
-6.10824e-12
0.00221243
-3.04934e-07
6.79378e-11
0.002479
-4.25564e-07
4.81607e-10
0.00281642
-4.93714e-07
9.85152e-10
0.00323486
-4.95548e-07
1.01484e-09
0.00401869
-4.02322e-07
4.16743e-10
0.00482112
-3.53741e-07
6.06957e-10
0.0051549
-2.54149e-07
4.03269e-10
0.00561449
-2.10402e-07
9.39704e-11
0.00627903
-1.36449e-07
3.75651e-11
0.00703747
-1.93758e-07
1.95843e-11
0.00782733
3.13159e-08
8.22317e-12
0.00855532
-3.51805e-07
-1.1369e-11
0.00922306
2.24721e-06
-3.56226e-11
0.00960398
1.13122e-05
-8.84618e-11
0.0094966
4.44029e-05
-2.39871e-10
0.00818982
0.00020278
-8.28348e-10
0.00046052
0.00126891
-3.89644e-09
-0.00317337
0.00482689
-1.46008e-09
0.0010154
0.00289249
8.81413e-10
0.00296323
7.06545e-10
0.00203187
-1.58651e-08
3.50559e-11
0.00204252
-4.29695e-08
8.00006e-11
0.0020785
-1.02064e-07
9.04324e-11
0.00214791
-1.93107e-07
1.17565e-10
0.00211341
-2.80141e-07
1.71483e-10
0.00221348
-2.91728e-07
2.98592e-10
0.00247995
-2.46189e-07
3.85643e-10
0.00281728
-1.05851e-07
3.26194e-10
0.00323555
-6.81774e-09
2.56644e-10
0.00401903
-7.97798e-08
7.03135e-11
0.00482114
-1.11404e-07
-1.05329e-11
0.00515489
-1.18106e-07
-1.08219e-10
0.00561443
-1.5919e-07
-6.32494e-11
0.00627901
-1.13154e-07
-2.12451e-11
0.00703739
-1.57061e-07
1.8777e-12
0.00782754
-4.41061e-08
1.01093e-12
0.00855438
-6.46666e-08
-8.40615e-12
0.00922538
2.95033e-06
-2.51958e-11
0.00962632
1.61364e-05
-6.59692e-11
0.00956271
6.49452e-05
-1.77364e-10
0.00842215
0.000285855
-6.42467e-10
0.00193827
0.00162982
-2.80605e-09
-0.00293414
0.00680224
-1.9434e-09
0.0010506
0.00392924
4.01842e-11
0.0039055
1.11758e-09
0.00203182
-3.68031e-08
-3.32693e-11
0.00204249
-7.76327e-08
-1.04123e-11
0.00207862
-1.88925e-07
6.0915e-13
0.00214833
-3.39844e-07
5.00944e-11
0.00211411
-4.366e-07
1.32453e-10
0.00221418
-3.41141e-07
2.86424e-10
0.00248057
-1.42887e-07
6.65227e-10
0.00281789
2.24738e-07
1.04127e-09
0.00323621
4.62429e-07
1.00499e-09
0.00401974
1.95925e-07
3.2123e-10
0.0048217
2.34929e-07
5.53644e-10
0.00515542
8.23885e-08
3.47595e-10
0.00561486
-3.30736e-08
9.17205e-11
0.00627936
-1.01161e-07
7.48012e-11
0.00703763
6.76524e-08
6.48402e-11
0.00782803
-4.2e-07
5.21742e-11
0.0085529
1.00132e-06
2.98013e-11
0.00923055
8.52558e-07
8.80864e-12
0.00966089
1.81098e-05
-3.2906e-11
0.00963942
8.70491e-05
-1.29124e-10
0.00865231
0.000373225
-4.54119e-10
0.00338942
0.00193594
-1.71724e-09
-0.00258238
0.00884214
-2.14411e-09
0.00102135
0.00515796
-4.50683e-10
0.00489148
9.94589e-10
0.00203198
-1.57989e-08
2.76516e-11
0.00204247
-4.72804e-08
1.71128e-11
0.00207781
-8.27024e-08
9.99637e-12
0.00214584
-1.30759e-07
-2.731e-11
0.00211066
-2.03763e-07
-8.24649e-11
0.00220838
-3.17473e-07
-1.96496e-10
0.00247243
-4.38045e-07
-4.28361e-10
0.00280814
-5.08432e-07
-7.54005e-10
0.00322728
-5.01211e-07
-7.06588e-10
0.00401411
-3.92028e-07
1.62873e-10
0.00481972
-3.28497e-07
-1.09993e-10
0.00515488
-2.12325e-07
3.35085e-12
0.00561475
-1.39672e-07
1.43129e-10
0.00627923
-2.16841e-07
1.30568e-10
0.007038
1.93686e-07
1.057e-10
0.00782731
-7.13262e-07
7.48776e-11
0.00855221
1.74911e-06
4.20321e-11
0.00924996
-9.00579e-07
2.06487e-11
0.00970132
2.21174e-05
-1.97265e-11
0.00971233
0.000108064
-1.08768e-10
0.00884271
0.00044899
-3.43373e-10
0.0046162
0.00216708
-1.05176e-09
-0.00198235
0.0107545
-1.72828e-09
0.000924307
0.00675521
-6.03879e-10
0.00598766
6.19881e-10
0.00203193
1.032e-08
2.91486e-11
0.00204251
1.00029e-08
1.45144e-11
0.00207807
3.84731e-08
3.99941e-12
0.00214647
7.54553e-08
-4.11229e-11
0.00211162
6.99045e-08
-1.12315e-10
0.00220942
-7.91451e-08
-2.69637e-10
0.00247334
-4.03858e-07
-6.4132e-10
0.00280893
-7.29308e-07
-1.06173e-09
0.00322786
-8.6619e-07
-1.03251e-09
0.0040144
-5.75231e-07
-1.5118e-10
0.0048198
-5.9906e-07
-3.13395e-10
0.00515496
-3.4307e-07
-1.17359e-10
0.00561495
-1.64282e-07
6.73881e-11
0.00627914
-2.77617e-07
8.90732e-11
0.00703866
3.08446e-07
7.98701e-11
0.00782557
-8.07714e-07
5.49585e-11
0.00855675
2.11119e-06
3.41251e-11
0.00924003
-6.28976e-07
5.22495e-12
0.00971551
2.61431e-05
-3.19633e-11
0.00979598
0.000123674
-1.16665e-10
0.00907094
0.000495074
-3.57016e-10
0.00568076
0.002256
-1.10378e-09
-0.000973142
0.012269
-1.69127e-09
0.00100638
0.00886636
-9.37378e-10
0.00732961
5.61349e-10
0.00203177
-1.49192e-08
6.45161e-11
0.00204253
-2.85319e-08
1.43209e-10
0.0020789
-7.52356e-08
1.60785e-10
0.00214903
-1.35986e-07
2.12867e-10
0.00211513
-1.65057e-07
3.25873e-10
0.0022157
-1.01061e-07
5.40091e-10
0.00248205
3.64927e-08
5.65132e-10
0.0028192
3.00845e-07
2.27689e-10
0.00323733
4.18331e-07
2.84323e-11
0.00402053
1.77237e-07
-2.09145e-10
0.00482198
2.02271e-07
-1.69802e-10
0.0051555
8.23208e-08
-1.74839e-10
0.00561523
6.71693e-08
-5.86999e-11
0.00627887
-1.91904e-07
2.90076e-11
0.00703935
4.76843e-07
6.16978e-11
0.00782342
-7.20839e-07
6.06282e-11
0.00856161
2.27915e-06
4.49762e-11
0.00922964
1.9512e-07
2.02491e-11
0.00973491
2.82136e-05
-1.47831e-11
0.00990112
0.000127344
-9.4413e-11
0.00937857
0.00048658
-3.25848e-10
0.00697628
0.00209549
-1.10511e-09
0.000885041
0.0120829
-2.52381e-09
0.00185297
0.0119153
-2.25645e-10
0.00941174
1.19301e-10
0.00203194
4.77883e-09
6.27141e-11
0.00204253
1.53227e-08
9.48805e-11
0.00207811
2.93466e-08
9.47913e-11
0.00214653
4.71285e-08
7.798e-11
0.0021117
7.30926e-08
6.6544e-11
0.00220957
1.1147e-07
4.04649e-11
0.00247347
1.39535e-07
-3.34171e-10
0.00280904
1.43337e-07
-8.85956e-10
0.00322799
1.06771e-07
-9.49792e-10
0.0040146
2.37977e-08
-2.13508e-10
0.00481994
-6.34255e-08
-4.17312e-10
0.00515489
-6.69762e-08
-2.56038e-10
0.0056153
8.15551e-09
-3.30116e-12
0.00627857
-2.37984e-07
6.29998e-11
0.00704029
4.67023e-07
8.01947e-11
0.00782137
-5.52254e-07
6.54513e-11
0.00856594
2.13469e-06
4.61955e-11
0.00922001
1.4829e-06
1.64327e-11
0.00976083
2.75924e-05
-8.86122e-12
0.0100318
0.000118235
-6.43308e-11
0.0097663
0.00042423
-2.14272e-10
0.00837607
0.00168182
-8.08935e-10
0.00385242
0.00936501
-2.62218e-09
0.00315162
0.0157746
8.00571e-11
0.0131555
-8.05485e-11
0.00203193
6.07962e-11
2.81523e-08
0.00204251
9.63626e-11
5.05462e-08
0.00207809
9.86826e-11
1.13963e-07
0.00214656
8.93361e-11
1.91043e-07
0.00211177
9.387e-11
2.43071e-07
0.00220975
9.88275e-11
2.00879e-07
0.00247375
-1.5865e-10
8.17743e-08
0.00280939
-6.54532e-10
-1.781e-07
0.0032284
-7.08491e-10
-3.87466e-07
0.00401511
7.2192e-11
-3.05868e-07
0.00482035
-1.77076e-10
-4.34589e-07
0.00515505
-8.42321e-11
-2.73495e-07
0.00561563
1.18116e-10
-6.42932e-08
0.00627832
1.49579e-10
-2.45662e-07
0.00704109
1.36317e-10
2.98279e-07
0.00781976
1.06342e-10
-4.86524e-08
0.00856896
7.41539e-11
1.1123e-06
0.0092119
3.48623e-11
4.1186e-06
0.00979308
1.17422e-11
2.08196e-05
0.0101436
-3.25848e-11
0.00010262
0.0100912
-1.24457e-10
0.000360943
0.00966659
-4.75466e-10
0.00131159
0.00750167
-1.84486e-09
0.00617634
0.00514804
1.41187e-10
0.0192795
-3.16841e-10
0.0186658
0.00203187
-9.32475e-09
3.70063e-11
0.00204251
-2.06356e-08
9.14235e-11
0.00207849
-6.20803e-08
1.04408e-10
0.00214793
-1.23716e-07
1.40179e-10
0.00211345
-1.5712e-07
2.1357e-10
0.00221361
-8.51025e-08
3.76392e-10
0.00248019
7.53355e-08
4.94036e-10
0.00281757
2.68484e-07
4.06494e-10
0.00323586
4.06405e-07
3.09357e-10
0.00401931
3.85621e-07
2.08235e-10
0.00482135
3.31431e-07
1.23927e-10
0.00515495
2.10423e-07
1.31624e-11
0.0056145
1.10644e-07
3.66367e-11
0.00627898
6.71227e-08
8.75404e-11
0.00703755
2.04019e-08
1.02506e-10
0.00782707
6.28174e-08
1.00174e-10
0.00855636
-6.68e-08
7.57782e-11
0.00921944
5.34519e-07
6.33368e-11
0.00958393
2.8872e-06
5.25043e-11
0.00942207
1.17688e-05
3.77399e-11
0.00788552
5.91976e-05
1.82623e-11
-0.00095223
0.000431382
-2.61616e-11
-0.00347821
0.00145926
-7.1836e-11
0.000934916
0.000962609
-1.30587e-11
0.00101066
-1.19849e-11
0.00203188
-3.13524e-08
4.61552e-12
0.00204248
-6.16524e-08
1.95739e-11
0.00207838
-1.27726e-07
2.18741e-11
0.00214767
-2.12984e-07
2.9744e-11
0.00211304
-2.64259e-07
4.79385e-11
0.00221285
-1.93429e-07
7.33652e-11
0.00247938
-4.45498e-08
6.4831e-11
0.00281688
2.52447e-07
-1.68134e-12
0.00323549
4.48831e-07
-3.22617e-11
0.0040193
3.81177e-07
3.61437e-11
0.00482145
4.5746e-07
8.37636e-11
0.00515497
3.11648e-07
1.15532e-10
0.00561448
1.411e-07
1.00203e-10
0.00627895
8.97242e-08
1.01232e-10
0.00703747
-1.30945e-09
9.18307e-11
0.00782711
1.12947e-07
7.49886e-11
0.00855592
-1.75348e-07
5.07894e-11
0.00922129
1.25612e-06
4.04247e-11
0.00958996
6.57135e-06
3.10999e-11
0.00944762
2.61941e-05
2.17441e-11
0.0079918
0.000126082
5.1714e-12
-0.000558945
0.000858258
-3.32096e-11
-0.00337412
0.00303842
-5.79078e-11
0.000964758
0.00192581
-1.0035e-11
0.00200143
-9.10153e-12
0.00203193
7.56216e-09
7.0043e-11
0.0020425
1.53787e-08
9.06864e-11
0.00207802
2.06528e-08
8.8891e-11
0.00214635
2.46252e-08
6.50553e-11
0.00211148
3.22446e-08
4.42819e-11
0.00220929
3.43267e-08
-1.58771e-11
0.00247321
4.22438e-08
-3.74652e-10
0.00280879
3.96903e-08
-9.26376e-10
0.00322755
5.93479e-08
-9.53209e-10
0.0040139
1.02139e-07
-1.85991e-10
0.00481969
7.52985e-08
-4.45463e-10
0.00515484
5.86461e-08
-2.67145e-10
0.00561461
3.79094e-08
7.27234e-12
0.00627916
6.08891e-08
5.51685e-11
0.00703757
-2.88248e-08
5.27686e-11
0.00782741
1.69582e-07
4.3492e-11
0.0085554
-2.55361e-07
3.37788e-11
0.00922314
2.31267e-06
2.79274e-11
0.00960405
1.13659e-05
1.87742e-11
0.00949656
4.44668e-05
1.1949e-11
0.00818944
0.000202934
2.35912e-12
0.000458045
0.00126978
-2.87531e-11
-0.00317248
0.00482877
-5.37081e-11
0.00101708
0.00289139
-5.89871e-12
0.00296319
-5.68318e-12
0.00203188
-7.08569e-09
-3.52026e-11
0.00204244
-1.37821e-08
-7.09203e-11
0.00207825
-1.80853e-08
-7.92591e-11
0.0021474
-2.04931e-08
-1.00757e-10
0.00211266
-2.49379e-08
-1.43877e-10
0.00221228
-2.15677e-08
-2.43009e-10
0.00247869
-9.83926e-09
-2.80494e-10
0.00281617
3.1577e-08
-2.13358e-10
0.00323483
4.77307e-08
-1.4278e-10
0.00401886
3.36419e-08
1.67681e-10
0.00482123
9.68494e-08
2.60788e-10
0.00515486
1.10797e-07
3.25698e-10
0.00561433
3.752e-08
2.10113e-10
0.00627889
5.76274e-08
1.40529e-10
0.00703726
5.04332e-09
9.37993e-11
0.00782743
7.68975e-08
6.17706e-11
0.0085543
1.61472e-08
3.59164e-11
0.00922532
3.01106e-06
2.85139e-11
0.00962626
1.61779e-05
1.71131e-11
0.00956264
6.4985e-05
7.67901e-12
0.00842185
0.000285955
-4.61289e-12
0.00193635
0.00163043
-3.46507e-11
-0.00293365
0.00680342
-5.37192e-11
0.00105236
0.00392944
-2.1065e-12
0.00390515
-3.63454e-12
0.00203193
3.25295e-08
7.35621e-11
0.0020425
6.46776e-08
9.73271e-11
0.00207802
1.32123e-07
9.6612e-11
0.00214635
2.20174e-07
7.01502e-11
0.00211147
2.78764e-07
3.02384e-11
0.00220928
2.19453e-07
-4.26462e-12
0.00247316
9.63099e-08
-2.85213e-10
0.0028087
-1.21984e-07
-8.05764e-10
0.00322741
-2.84721e-07
-8.36525e-10
0.00401373
-1.8105e-07
-1.29896e-10
0.00481953
-2.4835e-07
-4.74189e-10
0.00515478
-1.27002e-07
-3.48552e-10
0.00561451
-2.71234e-08
-4.16125e-11
0.00627911
-1.90484e-08
7.96283e-12
0.00703743
1.67516e-07
1.81993e-11
0.00782788
-3.24492e-07
1.6079e-11
0.00855279
1.08015e-06
1.57058e-11
0.0092305
9.00058e-07
1.80409e-11
0.00966087
1.8147e-05
1.08515e-11
0.00963943
8.70767e-05
5.62181e-12
0.00865222
0.000373271
-1.48703e-12
0.00338848
0.00193623
-2.01127e-11
-0.00258175
0.00884261
-4.05637e-11
0.00102279
0.00515916
7.27884e-13
0.00489115
-3.04303e-12
0.00203188
1.30409e-08
-2.46897e-11
0.00204247
3.41834e-08
6.53094e-12
0.00207837
8.851e-08
2.0403e-11
0.00214764
1.6766e-07
7.23558e-11
0.00211297
2.30049e-07
1.51762e-10
0.00221265
2.07766e-07
3.17975e-10
0.00247907
1.27414e-07
6.36252e-10
0.00281654
-1.25679e-08
8.89399e-10
0.00323505
-1.24343e-07
8.01889e-10
0.00401888
-1.15209e-07
3.20276e-11
0.00482111
-1.09408e-07
3.52763e-10
0.00515481
-3.77785e-08
2.11489e-10
0.0056143
2.8789e-08
-1.59493e-11
0.00627871
-5.75737e-08
-8.63212e-12
0.00703752
3.34098e-07
6.25893e-12
0.00782691
-5.96259e-07
1.1389e-11
0.0085519
1.83895e-06
1.21876e-11
0.00924974
-8.32353e-07
3.3591e-12
0.00970117
2.21537e-05
4.76015e-12
0.00971225
0.000108082
3.42015e-12
0.00884271
0.000448977
-1.55672e-12
0.00461646
0.00216709
-2.00631e-11
-0.00198078
0.0107535
-3.50083e-11
0.000925119
0.00675719
2.52202e-12
0.00598747
-2.52292e-12
0.00203187
7.09976e-09
3.91775e-11
0.00204251
2.58025e-08
9.12697e-11
0.0020785
4.19319e-08
1.03478e-10
0.00214793
6.57806e-08
1.32891e-10
0.00211345
1.10347e-07
1.92851e-10
0.00221349
1.91301e-07
3.31118e-10
0.00247999
2.67e-07
3.65851e-10
0.00281735
3.01353e-07
3.37222e-10
0.00323555
3.0355e-07
2.86371e-10
0.00401899
2.33793e-07
1.42164e-10
0.00482106
1.69965e-07
3.29335e-11
0.00515481
1.26532e-07
-9.05567e-11
0.00561443
1.37032e-07
-4.11271e-11
0.00627856
-5.70975e-08
-9.99019e-12
0.00703814
4.77572e-07
5.29477e-12
0.00782514
-6.79583e-07
1.31541e-11
0.00855642
2.20301e-06
1.01966e-11
0.0092398
-5.68359e-07
1.29271e-11
0.00971534
2.61864e-05
8.51677e-12
0.00979584
0.000123711
4.88283e-12
0.00907079
0.000495128
-1.42506e-12
0.00568038
0.00225622
-1.55787e-11
-0.00097394
0.0122688
-2.92031e-11
0.00100665
0.00886703
1.45035e-12
0.0073293
1.02435e-12
0.00203191
3.50411e-09
-3.07846e-11
0.00204246
1.29882e-08
-6.95776e-11
0.00207821
2.53796e-08
-7.85012e-11
0.00214727
4.26295e-08
-1.02925e-10
0.00211245
7.09565e-08
-1.54819e-10
0.00221219
1.19536e-07
-2.63232e-10
0.00247874
1.88844e-07
-2.94799e-10
0.00281623
2.42542e-07
-1.97352e-10
0.0032347
2.61406e-07
-1.22766e-10
0.00401855
2.43971e-07
6.36943e-11
0.00482084
1.89414e-07
1.0043e-10
0.00515453
1.43317e-07
1.53123e-10
0.00561437
1.52524e-07
8.67959e-11
0.00627815
-1.09859e-07
2.35274e-11
0.00703876
5.39508e-07
7.28847e-12
0.00782295
-6.72726e-07
-4.24538e-12
0.00856125
2.3139e-06
-9.57572e-12
0.00922938
2.18614e-07
-1.22583e-11
0.00973474
2.82308e-05
-1.48525e-11
0.00990099
0.000127371
-1.21935e-11
0.00937841
0.000486666
-1.34769e-11
0.00697578
0.00209594
-1.89959e-11
0.000884174
0.0120839
-3.40801e-11
0.00185323
0.0119151
4.3345e-12
0.0094112
1.2852e-12
0.00203191
7.42173e-10
1.69289e-12
0.00204246
1.75332e-09
5.673e-12
0.00207823
2.20713e-09
7.00673e-12
0.00214731
3.34858e-09
1.05083e-11
0.00211253
6.50466e-09
1.58822e-11
0.00221228
1.54991e-08
4.14884e-11
0.00247887
3.5875e-08
7.07412e-11
0.0028164
5.65076e-08
1.15944e-10
0.00323487
7.40251e-08
1.36163e-10
0.00401875
9.45653e-08
1.40076e-10
0.00482101
6.97497e-08
1.00397e-10
0.00515455
7.06306e-08
7.81655e-11
0.0056146
1.1501e-07
4.71552e-11
0.00627784
-1.65187e-07
2.83535e-11
0.00703963
5.11049e-07
4.49688e-12
0.00782083
-5.30884e-07
-5.42853e-12
0.00856553
2.14295e-06
-1.18256e-11
0.00921971
1.48238e-06
-1.09055e-11
0.00976062
2.75921e-05
-1.36449e-11
0.0100316
0.000118242
-1.04187e-11
0.00976621
0.00042427
-1.39454e-11
0.00837565
0.00168213
-1.77667e-11
0.00385233
0.00936584
-3.30045e-11
0.00315239
0.015775
5.27263e-12
0.013155
1.85149e-12
0.0020319
-3.11494e-11
-7.14744e-10
0.00204246
-7.34874e-11
-1.38819e-09
0.00207822
-8.34713e-11
-1.50412e-09
0.00214727
-1.15614e-10
-2.10505e-09
0.00211246
-1.82535e-10
-4.25843e-09
0.00221212
-3.34344e-10
-1.11333e-08
0.00247865
-4.26468e-10
-2.49913e-08
0.00281616
-2.91053e-10
-3.73182e-08
0.00323461
-1.13376e-10
-4.51233e-08
0.00401856
3.69579e-11
-4.3221e-08
0.00482091
1.12105e-10
-6.26317e-08
0.00515436
1.94295e-10
-3.27345e-08
0.0056147
7.75212e-11
5.06762e-08
0.00627744
3.37624e-11
-1.90101e-07
0.00704034
2.52412e-12
3.1794e-07
0.00781916
-1.31327e-11
-5.00945e-08
0.0085685
-2.02854e-11
1.10112e-06
0.00921157
-2.01231e-11
4.10549e-06
0.00979287
-2.09678e-11
2.08023e-05
0.0101434
-2.35851e-11
0.00010261
0.0100912
-1.76338e-11
0.000360949
0.00966612
-1.8429e-11
0.00131173
0.00750134
-2.51497e-11
0.00617717
0.00514862
3.1979e-12
0.0192803
3.42222e-12
0.0186651
0.0020319
-8.9056e-10
-3.46144e-14
0.00204246
-2.19519e-09
8.58887e-13
0.00207822
-2.87468e-09
1.11908e-12
0.00214727
-4.53854e-09
1.8449e-12
0.00211246
-9.02695e-09
3.13526e-12
0.00221211
-2.13069e-08
5.2703e-12
0.00247861
-4.81372e-08
2.78061e-11
0.00281609
-7.75129e-08
4.95278e-11
0.00323454
-9.89905e-08
5.37932e-11
0.00401833
-1.12042e-07
1.18109e-10
0.00482086
-1.04832e-07
1.51265e-10
0.00515455
-7.76111e-08
1.42638e-10
0.0056141
-5.74836e-08
1.0402e-10
0.00627861
-3.54141e-08
7.14232e-11
0.00703723
-4.67219e-08
4.20883e-11
0.0078268
1.78309e-08
2.74006e-11
0.00855615
-9.70201e-08
1.71605e-11
0.00921929
5.13532e-07
1.54181e-11
0.00958382
2.86988e-06
1.09577e-11
0.00942203
1.17555e-05
4.51827e-12
0.00788553
5.91885e-05
-1.40789e-12
-0.000952217
0.000431383
8.74184e-14
-0.00347819
0.00145927
-3.21327e-11
0.000934928
0.000962613
-1.17944e-11
0.00101066
1.11006e-12
0.00203191
-3.12156e-09
8.55277e-13
0.00204246
-1.17245e-08
4.76025e-12
0.00207823
-2.32426e-08
6.07443e-12
0.0021473
-3.90461e-08
9.67889e-12
0.00211252
-6.42536e-08
1.84935e-11
0.00221224
-1.0553e-07
4.68689e-11
0.0024788
-1.59788e-07
1.20783e-10
0.00281629
-1.96928e-07
1.61424e-10
0.00323473
-2.00905e-07
1.67433e-10
0.00401846
-1.69936e-07
2.23683e-10
0.00482091
-1.31225e-07
1.98453e-10
0.00515458
-8.37174e-08
1.54195e-10
0.00561413
-6.46239e-08
1.03528e-10
0.00627865
-3.30973e-08
8.02413e-11
0.00703722
-7.55151e-08
6.1359e-11
0.00782692
6.12849e-08
4.5373e-11
0.00855578
-2.06633e-07
2.28341e-11
0.0092212
1.23578e-06
1.88865e-11
0.00958989
6.55725e-06
1.4226e-11
0.0094476
2.61845e-05
8.94499e-12
0.0079918
0.000126078
3.09049e-12
-0.000558941
0.000858267
5.27451e-12
-0.00337411
0.00303844
-2.86295e-11
0.00096477
0.00192581
-1.35715e-11
0.00200143
-9.56597e-13
0.0020319
-5.38726e-09
3.16954e-14
0.00204245
-2.04536e-08
3.03144e-12
0.00207821
-3.33132e-08
3.96009e-12
0.00214725
-5.23928e-08
6.61653e-12
0.00211243
-8.83849e-08
1.00551e-11
0.00221214
-1.52236e-07
2.78771e-11
0.00247866
-1.99835e-07
5.81227e-11
0.00281613
-2.0612e-07
6.52419e-11
0.00323457
-1.89169e-07
5.82443e-11
0.00401831
-9.69706e-08
1.04588e-10
0.00482078
-7.32367e-08
7.84034e-11
0.00515451
-4.15082e-08
6.76852e-11
0.00561407
-5.34099e-08
5.90576e-11
0.00627865
-1.63738e-08
5.68285e-11
0.00703716
-9.57368e-08
5.04979e-11
0.00782708
1.18773e-07
4.22557e-11
0.00855515
-2.92837e-07
2.66198e-11
0.00922296
2.28856e-06
2.26986e-11
0.00960392
1.13498e-05
1.75621e-11
0.00949649
4.44571e-05
9.4605e-12
0.00818942
0.00020293
2.717e-12
0.00045804
0.00126978
6.01645e-12
-0.00317246
0.00482878
-2.17117e-11
0.00101709
0.0028914
-1.49274e-11
0.0029632
-2.53703e-12
0.00203187
-9.12104e-09
3.48576e-11
0.00204252
-1.87767e-08
7.81919e-11
0.00207849
-5.70895e-08
8.76639e-11
0.00214789
-1.15171e-07
1.13976e-10
0.00211337
-1.46772e-07
1.69954e-10
0.0022133
-8.02739e-08
2.87e-10
0.00247969
5.7505e-08
3.01997e-10
0.002817
2.28001e-07
1.7138e-10
0.00323514
3.32915e-07
9.03427e-11
0.00401854
2.65257e-07
-5.48787e-11
0.00482087
1.96416e-07
-6.77648e-11
0.00515467
1.06176e-07
-9.62138e-11
0.00561416
2.11709e-08
-4.08087e-11
0.00627875
2.60562e-08
-6.77042e-13
0.00703715
-2.8529e-08
1.74013e-11
0.00782735
4.58816e-08
2.67056e-11
0.00855424
2.13452e-09
2.09617e-11
0.0092253
3.00219e-06
1.90896e-11
0.00962626
1.61765e-05
1.56651e-11
0.00956265
6.49884e-05
8.08802e-12
0.00842186
0.000285964
4.35142e-12
0.00193635
0.00163045
5.84533e-12
-0.00293364
0.00680343
-1.14533e-11
0.00105237
0.00392944
-1.41682e-11
0.00390515
-2.26218e-12
0.00203187
-2.37319e-08
1.59306e-13
0.00204245
-3.95218e-08
1.75613e-12
0.00207832
-8.86669e-08
1.7612e-12
0.00214755
-1.42984e-07
3.61986e-12
0.00211286
-1.66947e-07
7.44502e-12
0.00221253
-9.49439e-08
6.63145e-12
0.00247895
6.43427e-08
-1.84358e-12
0.00281639
3.43728e-07
-6.4477e-11
0.0032349
4.67457e-07
-8.9548e-11
0.00401871
2.58626e-07
-3.40248e-11
0.00482104
2.96017e-07
1.05963e-11
0.00515476
1.67451e-07
5.18019e-11
0.0056142
4.86144e-08
5.76789e-11
0.00627877
-1.6084e-08
5.43826e-11
0.00703713
1.45438e-07
4.51791e-11
0.00782764
-3.5353e-07
3.28753e-11
0.0085526
1.05422e-06
2.01459e-11
0.00923035
8.829e-07
1.50743e-11
0.00966077
1.81336e-05
9.5228e-12
0.00963937
8.70716e-05
4.37066e-12
0.0086522
0.000373272
-3.60927e-13
0.00338847
0.00193624
1.39496e-12
-0.00258174
0.00884262
-4.26313e-12
0.00102281
0.00515916
-1.13378e-11
0.00489115
-1.40912e-12
0.00203199
2.32782e-08
3.3807e-11
0.00204246
3.8351e-08
1.19124e-11
0.0020777
8.668e-08
2.36282e-12
0.00214559
1.39673e-07
-4.13018e-11
0.00211029
1.59668e-07
-1.0784e-10
0.00220778
7.93778e-08
-2.6644e-10
0.00247175
-1.24403e-07
-6.64765e-10
0.00280751
-4.29575e-07
-1.04743e-09
0.00322647
-5.80495e-07
-9.83882e-10
0.00401322
-3.81465e-07
-2.03404e-11
0.00481923
-4.55791e-07
-2.82628e-10
0.00515449
-2.65519e-07
-1.01431e-10
0.0056143
-1.1576e-07
1.02612e-10
0.00627878
-1.70749e-07
9.27834e-11
0.0070376
2.47293e-07
6.71441e-11
0.00782698
-6.63952e-07
4.27342e-11
0.00855196
1.79088e-06
2.63566e-11
0.00924979
-8.68503e-07
1.15028e-11
0.00970121
2.21344e-05
7.98506e-12
0.00971227
0.000108069
6.05253e-12
0.00884273
0.00044897
2.85541e-12
0.00461646
0.0021671
1.95388e-12
-0.00198078
0.0107535
-5.12987e-12
0.000925136
0.00675719
-1.01816e-11
0.00598747
-7.4781e-13
0.00203187
8.51767e-09
1.64332e-13
0.00204245
1.71819e-08
2.20776e-12
0.00207832
5.43719e-08
2.33398e-12
0.00214755
1.10308e-07
4.50171e-12
0.00211286
1.37675e-07
1.03541e-11
0.00221254
6.45377e-08
8.9425e-12
0.00247897
-1.15741e-07
4.84814e-12
0.00281643
-3.33871e-07
-4.77084e-11
0.00323497
-4.70949e-07
-6.79678e-11
0.00401882
-4.27467e-07
3.62433e-12
0.00482108
-3.54344e-07
6.61042e-11
0.00515477
-2.12827e-07
1.09435e-10
0.00561437
-8.62864e-08
9.37391e-11
0.00627849
-2.14978e-07
8.51797e-11
0.00703807
3.56808e-07
7.25433e-11
0.00782509
-7.71699e-07
5.63661e-11
0.00855638
2.1354e-06
4.31498e-11
0.00923976
-6.1342e-07
2.08846e-11
0.00971532
2.61529e-05
1.50706e-11
0.00979584
0.000123687
1.09111e-11
0.00907079
0.000495112
7.37359e-12
0.00568039
0.00225621
3.05767e-13
-0.000973934
0.0122688
-7.02808e-12
0.00100666
0.00886703
-1.14538e-11
0.00732931
-2.51471e-12
0.00203187
1.01773e-09
3.7064e-11
0.00204252
3.48453e-09
8.92159e-11
0.0020785
1.63124e-09
1.01521e-10
0.00214794
9.24948e-10
1.35439e-10
0.00211346
4.71901e-09
2.06343e-10
0.00221353
1.60527e-08
3.592e-10
0.00248004
1.19553e-08
4.62984e-10
0.00281738
-7.72137e-09
3.74455e-10
0.00323553
-2.09586e-08
2.86505e-10
0.00401897
-4.44186e-08
1.51185e-10
0.00482103
-6.66226e-08
9.08959e-11
0.00515472
-3.94528e-08
-2.97594e-12
0.00561453
3.39676e-08
3.06375e-11
0.00627828
-2.01949e-07
6.85807e-11
0.00703886
4.72509e-07
7.84742e-11
0.00782304
-7.25737e-07
7.17203e-11
0.00856132
2.27346e-06
6.00001e-11
0.00922944
1.899e-07
4.09197e-11
0.00973478
2.82115e-05
3.56771e-11
0.00990102
0.000127358
2.3036e-11
0.00937842
0.000486657
1.47253e-11
0.00697579
0.00209593
4.9047e-12
0.000884176
0.0120839
1.537e-12
0.00185324
0.0119151
-1.07642e-11
0.0094112
-1.0142e-11
0.0020319
-1.0187e-09
-8.18944e-13
0.00204244
-3.48243e-09
7.20045e-13
0.00207818
-1.63098e-09
1.21416e-12
0.00214721
-9.22572e-10
2.44092e-12
0.00211236
-4.69325e-09
3.93794e-12
0.00221207
-1.59498e-08
1.10785e-11
0.0024786
-1.176e-08
5.77019e-11
0.00281609
7.9409e-09
5.64396e-11
0.0032346
2.15542e-08
5.7301e-11
0.00401856
5.09225e-08
1.81665e-10
0.00482084
3.62457e-08
1.8609e-10
0.00515441
4.93068e-08
1.73525e-10
0.00561453
8.95423e-08
1.13946e-10
0.00627782
-1.90018e-07
1.05934e-10
0.00703965
4.85567e-07
9.85811e-11
0.00782086
-5.51011e-07
8.14893e-11
0.00856556
2.12728e-06
6.5442e-11
0.00921974
1.47351e-06
4.08862e-11
0.00976065
2.75843e-05
3.5577e-11
0.0100316
0.000118237
2.27988e-11
0.00976623
0.000424267
1.38444e-11
0.00837566
0.00168213
4.89448e-12
0.00385233
0.00936585
2.13869e-12
0.0031524
0.015775
-1.60814e-11
0.013155
-1.16971e-11
0.00203187
3.71273e-11
-8.51462e-09
0.00204252
8.8498e-11
-1.71744e-08
0.0020785
1.00584e-10
-5.43617e-08
0.00214794
1.33804e-10
-1.10293e-07
0.00211346
2.02716e-10
-1.37654e-07
0.00221353
3.53287e-10
-6.44952e-08
0.00248004
4.47845e-10
1.15845e-07
0.00281739
3.60441e-10
3.33874e-07
0.00323551
2.7478e-10
4.71747e-07
0.00401901
1.43102e-10
4.36903e-07
0.00482105
8.77919e-11
3.28305e-07
0.00515451
-8.40542e-13
2.16003e-07
0.00561486
3.40787e-11
1.92498e-07
0.0062776
6.63424e-11
-9.79301e-08
0.00704048
7.66007e-11
3.76756e-07
0.00781928
7.10235e-11
-5.89308e-09
0.0085686
5.96715e-11
1.12927e-06
0.00921165
4.08706e-11
4.12456e-06
0.00979293
3.48636e-11
2.08152e-05
0.0101435
2.65907e-11
0.00010262
0.0100912
1.22338e-11
0.000360957
0.00966613
6.81826e-12
0.00131173
0.00750134
1.90365e-12
0.00617718
0.00514862
-1.52247e-11
0.0192803
-1.36691e-11
0.0186651
0.0020319
2.36904e-11
5.37608e-12
0.00204246
-2.97689e-11
8.13938e-12
0.00207822
-5.40262e-11
8.47717e-12
0.00214726
-9.0747e-11
8.20566e-12
0.00211245
-8.2086e-11
5.67442e-12
0.00221207
-5.23595e-11
1.32957e-11
0.00247852
-5.39704e-10
-9.76277e-12
0.00281596
-3.6571e-09
5.31178e-12
0.00323433
-5.12493e-09
5.46921e-12
0.00401805
-3.30206e-09
-6.00301e-12
0.00482064
-3.86217e-09
1.24722e-11
0.00515438
-3.09944e-09
2.53641e-11
0.00561396
-5.74899e-09
9.52338e-12
0.0062785
4.11965e-09
4.61839e-13
0.00703714
-1.4885e-08
8.00991e-13
0.00782674
4.17239e-08
8.83759e-12
0.00855611
-7.74942e-08
2.35665e-11
0.00921928
5.2802e-07
2.7739e-11
0.00958382
2.88136e-06
3.15246e-11
0.00942205
1.17645e-05
3.62247e-11
0.00788555
5.9195e-05
2.30438e-11
-0.000952194
0.000431386
1.44332e-10
-0.00347819
0.00145927
-1.71798e-09
0.00093493
0.000962612
3.28807e-10
0.00101066
-1.67508e-10
0.0020319
3.02776e-12
4.81789e-12
0.00204246
-1.5826e-11
7.72233e-12
0.00207822
-3.53193e-11
8.12752e-12
0.00214726
-4.10453e-11
7.88883e-12
0.00211245
-4.70803e-11
3.97615e-12
0.00221207
-2.60764e-11
8.55638e-12
0.00247853
-3.87501e-10
-8.87518e-12
0.00281598
-1.55044e-09
1.09262e-11
0.00323435
-2.21744e-09
1.289e-11
0.00401806
-1.65855e-09
7.24732e-13
0.00482065
-2.62843e-09
1.28831e-11
0.0051544
7.40106e-10
2.01585e-11
0.00561397
-7.815e-09
1.44156e-12
0.00627852
1.36985e-08
-1.04205e-11
0.00703711
-3.49006e-08
-1.23498e-11
0.00782683
9.52125e-08
-6.55553e-12
0.00855572
-1.79073e-07
1.00553e-11
0.00922117
1.25629e-06
1.38998e-11
0.00958988
6.57275e-06
1.80303e-11
0.00944761
2.61961e-05
2.14429e-11
0.00799182
0.000126087
4.82097e-11
-0.000558917
0.000858271
7.49374e-10
-0.0033741
0.00303844
-1.19164e-09
0.000964772
0.00192581
4.1401e-10
0.00200143
-1.09433e-09
0.0020319
-4.74254e-12
2.25527e-12
0.00204246
-1.15371e-11
6.12867e-12
0.00207822
-1.41649e-11
6.87543e-12
0.00214726
-1.63042e-11
8.41829e-12
0.00211245
-2.0707e-11
1.29365e-11
0.00221207
-2.81545e-11
1.60132e-11
0.00247853
-1.22896e-10
3.55435e-11
0.00281598
-3.41176e-10
5.58796e-11
0.00323435
-4.74791e-10
6.12329e-11
0.00401806
-5.79017e-11
3.69764e-11
0.00482065
-2.36395e-09
1.14495e-11
0.00515441
5.20008e-09
-1.02336e-11
0.00561396
-1.30121e-08
-1.1219e-11
0.00627854
2.61614e-08
-2.31231e-11
0.00703706
-5.73097e-08
-2.72883e-11
0.00782701
1.53046e-07
-2.34701e-11
0.0085551
-2.65059e-07
-7.39328e-12
0.00922292
2.30814e-06
-6.88958e-12
0.0096039
1.13638e-05
-7.49397e-12
0.0094965
4.44669e-05
-1.44074e-11
0.00818943
0.000202936
-2.76439e-11
0.000458076
0.00126978
-1.78044e-10
-0.00317245
0.00482878
1.10977e-09
0.00101709
0.0028914
5.57241e-10
0.0029632
-1.35261e-09
0.0020319
1.63682e-11
1.57344e-12
0.00204246
4.07294e-11
4.20973e-12
0.00207822
7.10821e-11
4.65373e-12
0.00214726
1.08413e-10
5.46669e-12
0.00211245
1.50645e-10
8.17827e-12
0.00221207
2.14447e-10
8.752e-12
0.00247853
3.48876e-10
2.38324e-11
0.00281598
4.12923e-10
3.31098e-11
0.00323435
3.90157e-10
5.58295e-11
0.00401807
9.96791e-10
3.76737e-11
0.00482063