/*--------------------------------*- C++ -*----------------------------------*\
| =========                 |                                                 |
| \\      /  F ield         | OpenFOAM: The Open Source CFD Toolbox           |
|  \\    /   O peration     | Version:  4.1                                   |
|   \\  /    A nd           | Web:      www.OpenFOAM.org                      |
|    \\/     M anipulation  |                                                 |
\*---------------------------------------------------------------------------*/
FoamFile
{
    version     2.0;
    format      ascii;
    class       volScalarField;
    location    "0.14";
    object      T;
}
// * * * * * * * * * * * * * * * * * * * * * * * * * * * * * * * * * * * * * //

dimensions      [0 0 0 1 0 0 0];

internalField   nonuniform List<scalar> 
52500
(
0.355675
0.34869
0.360639
0.372147
0.407384
0.491434
0.536513
0.531436
0.50637
0.507107
0.5533
0.695241
0.815815
0.881973
0.925928
0.954407
0.973035
1.00403
1.03566
1.16075
1.5224
2.19693
2.64489
2.43061
2.08656
0.355677
0.348694
0.360643
0.372152
0.407395
0.491455
0.536538
0.531459
0.506384
0.507118
0.553305
0.695241
0.815818
0.88197
0.92594
0.954388
0.973051
1.00386
1.03502
1.15816
1.51337
2.17752
2.63396
2.4259
2.07857
0.355673
0.348698
0.360647
0.372153
0.407399
0.491472
0.536577
0.531499
0.506417
0.507144
0.553313
0.695227
0.815803
0.881938
0.925948
0.95433
0.973081
1.00341
1.03369
1.15274
1.49485
2.13823
2.60875
2.41665
2.06111
0.355707
0.348743
0.36068
0.372178
0.407412
0.491441
0.536499
0.531409
0.506333
0.507073
0.553291
0.695205
0.815808
0.881918
0.925993
0.954253
0.973149
1.00249
1.03172
1.14422
1.46692
2.08701
2.56932
2.40724
2.04023
0.355699
0.348759
0.360674
0.372137
0.407331
0.491335
0.53646
0.531374
0.506286
0.507025
0.553259
0.69516
0.815786
0.88187
0.925999
0.954164
0.973227
1.00101
1.02885
1.13269
1.4307
2.02724
2.51416
2.3992
2.01711
0.355717
0.348687
0.360699
0.3723
0.407548
0.491693
0.537003
0.532
0.506886
0.507522
0.553344
0.695138
0.815774
0.881912
0.925856
0.954351
0.973086
0.999321
1.02575
1.11826
1.3858
1.95963
2.43998
2.39249
1.99083
0.355744
0.348733
0.360727
0.372304
0.407522
0.491624
0.536929
0.531921
0.506813
0.507455
0.553313
0.695099
0.815705
0.882015
0.925571
0.954705
0.972778
0.997916
1.02212
1.10026
1.32961
1.87611
2.34299
2.37871
1.97676
0.355734
0.34882
0.360723
0.372166
0.407347
0.491307
0.536369
0.531258
0.506158
0.506913
0.553223
0.695147
0.815666
0.882219
0.925242
0.955108
0.972543
0.996165
1.01782
1.07951
1.26467
1.76256
2.20985
2.35738
1.96431
0.355748
0.348739
0.360734
0.372314
0.407539
0.491644
0.536942
0.531933
0.506822
0.507463
0.553325
0.695133
0.815562
0.882422
0.92484
0.955391
0.972482
0.994084
1.01313
1.05794
1.19704
1.60682
2.02993
2.30253
1.98899
0.355745
0.348739
0.360733
0.372311
0.407539
0.491656
0.536968
0.531961
0.506843
0.50748
0.553336
0.695153
0.815481
0.88264
0.924544
0.95547
0.972747
0.991666
1.00954
1.03876
1.13835
1.45081
1.79133
2.24377
1.98356
0.355708
0.348747
0.360685
0.372183
0.407422
0.49146
0.536522
0.531433
0.506346
0.507082
0.553294
0.695218
0.815795
0.881965
0.925928
0.954413
0.973045
1.00404
1.03568
1.16079
1.52251
2.1971
2.64497
2.43061
2.08664
0.355679
0.348715
0.360651
0.372139
0.407363
0.491406
0.536491
0.5314
0.506305
0.507046
0.553269
0.695224
0.815806
0.881965
0.925941
0.954393
0.973059
1.00388
1.03504
1.1582
1.51347
2.17769
2.63406
2.42592
2.07864
0.355746
0.348725
0.360721
0.372303
0.407526
0.491633
0.53695
0.531951
0.506851
0.507477
0.553293
0.69507
0.815717
0.881887
0.92592
0.954315
0.973077
1.00341
1.0337
1.15276
1.49494
2.13832
2.60889
2.41633
2.06145
0.355669
0.348697
0.360638
0.372132
0.407356
0.4914
0.536484
0.531395
0.506303
0.507042
0.553257
0.69521
0.815821
0.88193
0.926003
0.954262
0.973159
1.0025
1.03173
1.14425
1.467
2.08707
2.56947
2.40689
2.04059
0.355746
0.348725
0.360721
0.372302
0.407524
0.491631
0.536946
0.531946
0.506844
0.50747
0.553286
0.695049
0.815737
0.881842
0.925984
0.954156
0.973226
1.00101
1.02886
1.1327
1.43076
2.02726
2.51433
2.39888
2.01745
0.355678
0.348712
0.360646
0.372133
0.407351
0.491386
0.536466
0.531375
0.506286
0.507024
0.55325
0.695186
0.815816
0.881954
0.925889
0.954377
0.973109
0.999339
1.02577
1.11828
1.38585
1.9596
2.44016
2.39202
1.99123
0.355708
0.348744
0.36068
0.372175
0.407406
0.491437
0.536503
0.531416
0.506337
0.507069
0.553281
0.695181
0.815774
0.882073
0.925614
0.954739
0.972804
0.997938
1.02215
1.10029
1.32966
1.87616
2.34314
2.3787
1.97699
0.355677
0.348695
0.360645
0.372154
0.407398
0.491457
0.536532
0.531449
0.506371
0.507102
0.553296
0.695226
0.815739
0.882269
0.925274
0.95513
0.97256
0.99618
1.01784
1.07954
1.26472
1.7626
2.21002
2.35737
1.96441
0.355678
0.348695
0.360644
0.372153
0.407395
0.491455
0.53654
0.531461
0.506387
0.507116
0.553308
0.695247
0.815657
0.882497
0.924893
0.955429
0.97251
0.994106
1.01315
1.05796
1.19709
1.60679
2.03022
2.30232
1.98908
0.355677
0.348692
0.36064
0.372147
0.407385
0.491438
0.536522
0.531444
0.506374
0.507103
0.5533
0.695255
0.815564
0.882703
0.924589
0.955501
0.972771
0.991685
1.00956
1.03878
1.13838
1.45078
1.79162
2.24349
1.98363
0.355677
0.348692
0.36064
0.372147
0.407384
0.491436
0.53652
0.531443
0.506372
0.507101
0.553283
0.695218
0.815808
0.881973
0.925932
0.954414
0.973044
1.00404
1.03568
1.16079
1.5225
2.1971
2.64497
2.43062
2.08664
0.355678
0.348695
0.360644
0.372152
0.407394
0.491452
0.536534
0.531454
0.506379
0.507108
0.553289
0.695221
0.81581
0.881968
0.925942
0.954393
0.973059
1.00388
1.03504
1.1582
1.51347
2.17769
2.63406
2.42592
2.07864
0.355677
0.348694
0.360644
0.372152
0.407394
0.491452
0.536524
0.531441
0.506363
0.507094
0.55328
0.695215
0.815812
0.881953
0.925964
0.954344
0.973095
1.00342
1.03371
1.15277
1.49495
2.13832
2.60889
2.41633
2.06145
0.355706
0.34874
0.360675
0.372168
0.407392
0.491415
0.53648
0.531393
0.50632
0.507051
0.553257
0.695165
0.815793
0.881913
0.925993
0.954256
0.973156
1.0025
1.03173
1.14425
1.467
2.08707
2.56947
2.40689
2.04059
0.355674
0.348705
0.360639
0.372125
0.407339
0.491372
0.536458
0.531369
0.506283
0.507021
0.553242
0.695181
0.815822
0.881902
0.926024
0.954183
0.973243
1.00102
1.02887
1.13271
1.43076
2.02725
2.51433
2.39888
2.01745
0.355717
0.34867
0.360685
0.372293
0.407543
0.491688
0.537014
0.532021
0.50692
0.507537
0.55332
0.695095
0.815765
0.881914
0.92586
0.954357
0.973094
0.999331
1.02576
1.11828
1.38585
1.95961
2.44016
2.39202
1.99123
0.355674
0.348705
0.360639
0.372125
0.40734
0.491374
0.53646
0.531372
0.506287
0.507026
0.55325
0.695188
0.815782
0.882079
0.925617
0.95474
0.972804
0.997938
1.02215
1.10029
1.32967
1.87616
2.34314
2.3787
1.97699
0.355708
0.348745
0.36068
0.372176
0.407408
0.491441
0.536507
0.531419
0.50634
0.50707
0.553282
0.695188
0.815711
0.882252
0.925264
0.955125
0.972557
0.996179
1.01783
1.07954
1.26472
1.7626
2.21002
2.35737
1.96441
0.355675
0.348693
0.360644
0.372154
0.407398
0.491457
0.536523
0.531438
0.506356
0.50709
0.553295
0.695248
0.815653
0.882493
0.924891
0.955429
0.972511
0.994107
1.01315
1.05797
1.19709
1.60679
2.03022
2.30232
1.98908
0.355708
0.348745
0.36068
0.372176
0.407408
0.491441
0.536507
0.531419
0.50634
0.507069
0.553287
0.695221
0.815536
0.882685
0.924579
0.955496
0.972769
0.991685
1.00956
1.03878
1.13838
1.45078
1.79162
2.24349
1.98363
0.355677
0.348692
0.36064
0.372147
0.407382
0.491432
0.536512
0.531434
0.506362
0.507089
0.553269
0.695201
0.815797
0.881966
0.925927
0.954411
0.973043
1.00404
1.03568
1.16079
1.5225
2.1971
2.64497
2.43062
2.08664
0.355677
0.348692
0.360639
0.372146
0.407382
0.491432
0.536512
0.531433
0.506361
0.507089
0.553269
0.6952
0.815799
0.881961
0.925938
0.95439
0.973057
1.00387
1.03504
1.1582
1.51347
2.17769
2.63406
2.42592
2.07864
0.355677
0.348692
0.360639
0.372146
0.407382
0.491432
0.536512
0.531433
0.506362
0.507089
0.553269
0.695198
0.815805
0.881949
0.925961
0.954342
0.973094
1.00342
1.03371
1.15277
1.49495
2.13832
2.60889
2.41633
2.06145
0.355677
0.348692
0.360639
0.372146
0.407382
0.491433
0.536512
0.531433
0.506362
0.507089
0.55327
0.695194
0.815816
0.881927
0.926001
0.95426
0.973159
1.0025
1.03173
1.14425
1.467
2.08707
2.56947
2.40689
2.04059
0.355677
0.348692
0.360639
0.372146
0.407382
0.491432
0.536512
0.531433
0.506362
0.507089
0.553271
0.695187
0.81583
0.881908
0.926027
0.954185
0.973245
1.00102
1.02887
1.13271
1.43076
2.02725
2.51433
2.39888
2.01745
0.355677
0.348692
0.360639
0.372146
0.407382
0.491432
0.536512
0.531432
0.506361
0.507089
0.553272
0.695184
0.815822
0.881958
0.925891
0.954378
0.973109
0.99934
1.02577
1.11829
1.38585
1.95961
2.44016
2.39202
1.99123
0.355677
0.348692
0.360639
0.372146
0.407382
0.491432
0.536512
0.531433
0.506362
0.507089
0.553274
0.695188
0.815786
0.882082
0.925619
0.954741
0.972805
0.997938
1.02215
1.10029
1.32967
1.87616
2.34314
2.3787
1.97699
0.355677
0.348692
0.360639
0.372146
0.407382
0.491433
0.536512
0.531433
0.506362
0.507088
0.553276
0.695198
0.815725
0.882261
0.925268
0.955126
0.972558
0.996179
1.01784
1.07954
1.26472
1.7626
2.21002
2.35737
1.96441
0.355677
0.348692
0.360639
0.372146
0.407382
0.491432
0.536512
0.531433
0.506362
0.507088
0.553278
0.695215
0.815639
0.882485
0.924885
0.955425
0.972508
0.994105
1.01315
1.05796
1.19709
1.60679
2.03022
2.30232
1.98908
0.355677
0.348692
0.360639
0.372146
0.407382
0.491433
0.536512
0.531433
0.506362
0.507087
0.553281
0.695231
0.81555
0.882694
0.924583
0.955498
0.972769
0.991685
1.00956
1.03878
1.13838
1.45078
1.79162
2.24349
1.98363
0.355672
0.34869
0.360636
0.37214
0.407369
0.491419
0.536536
0.531464
0.506394
0.507115
0.553275
0.695184
0.815774
0.881943
0.925908
0.954396
0.973031
1.00403
1.03567
1.16079
1.5225
2.19709
2.64498
2.43061
2.08665
0.355672
0.348691
0.360636
0.37214
0.407369
0.49142
0.536534
0.531461
0.506391
0.507113
0.553275
0.695185
0.815777
0.881939
0.92592
0.954376
0.973046
1.00387
1.03503
1.1582
1.51346
2.17767
2.63405
2.42591
2.07865
0.355675
0.34869
0.360638
0.372145
0.407382
0.49143
0.536498
0.531414
0.506341
0.507074
0.553268
0.695207
0.815806
0.881947
0.925959
0.95434
0.97309
1.00342
1.03371
1.15277
1.49494
2.13837
2.60885
2.41668
2.06118
0.355675
0.348691
0.360638
0.372145
0.407383
0.491431
0.536498
0.531414
0.506341
0.507074
0.553269
0.695203
0.815817
0.881926
0.925999
0.954258
0.973155
1.0025
1.03173
1.14425
1.467
2.08714
2.56945
2.40734
2.04025
0.355673
0.348691
0.360637
0.37214
0.40737
0.491421
0.536534
0.531461
0.50639
0.507113
0.553278
0.695174
0.815809
0.881886
0.92601
0.954171
0.973234
1.00101
1.02886
1.13271
1.43077
2.02727
2.51429
2.39893
2.01741
0.355674
0.348691
0.360639
0.372143
0.407376
0.491433
0.536535
0.53146
0.506393
0.507119
0.55329
0.695181
0.815803
0.881935
0.925871
0.954362
0.973096
0.99933
1.02576
1.11828
1.38585
1.95961
2.44014
2.39198
1.99126
0.355672
0.34869
0.360636
0.372141
0.40737
0.491418
0.536526
0.531453
0.506389
0.507115
0.55329
0.695184
0.815766
0.882058
0.925597
0.954724
0.972791
0.997928
1.02214
1.10028
1.32966
1.87615
2.34313
2.37868
1.97701
0.355675
0.34869
0.360638
0.372146
0.407383
0.49143
0.536497
0.531414
0.506346
0.50708
0.553283
0.695212
0.815727
0.882257
0.925263
0.955121
0.972552
0.996174
1.01783
1.07953
1.26472
1.76259
2.21001
2.35736
1.96441
0.355673
0.348691
0.360637
0.372141
0.407371
0.491423
0.536538
0.531466
0.506397
0.507118
0.55329
0.695206
0.81562
0.882466
0.924868
0.955411
0.972497
0.994097
1.01315
1.05796
1.19708
1.60678
2.0302
2.30232
1.98908
0.355673
0.348692
0.360638
0.372142
0.407373
0.491427
0.536546
0.531474
0.506404
0.507125
0.553299
0.695228
0.815534
0.882676
0.924567
0.955486
0.972759
0.991676
1.00955
1.03877
1.13837
1.45077
1.79161
2.2435
1.98363
0.355677
0.348692
0.36064
0.372147
0.407382
0.491432
0.536513
0.531434
0.506362
0.50709
0.55327
0.695202
0.815798
0.881966
0.925927
0.954411
0.973043
1.00404
1.03568
1.16079
1.5225
2.19709
2.64497
2.43062
2.08665
0.355677
0.348692
0.36064
0.372147
0.407382
0.491433
0.536512
0.531433
0.506362
0.50709
0.553269
0.6952
0.815799
0.881961
0.925938
0.95439
0.973057
1.00387
1.03504
1.1582
1.51346
2.17768
2.63406
2.42592
2.07864
0.355677
0.348692
0.36064
0.372147
0.407382
0.491433
0.536512
0.531432
0.506361
0.507089
0.55327
0.695198
0.815805
0.881949
0.925961
0.954342
0.973094
1.00342
1.03371
1.15277
1.49494
2.13831
2.60889
2.41633
2.06145
0.355678
0.348692
0.36064
0.372148
0.407384
0.491433
0.536509
0.53143
0.506363
0.507093
0.553276
0.6952
0.815818
0.881927
0.925999
0.954259
0.973157
1.0025
1.03173
1.14425
1.467
2.08707
2.56947
2.40689
2.04059
0.355677
0.348692
0.36064
0.372147
0.407382
0.491433
0.536512
0.531432
0.506361
0.507089
0.553271
0.695188
0.81583
0.881908
0.926027
0.954185
0.973245
1.00102
1.02887
1.13271
1.43076
2.02725
2.51433
2.39888
2.01745
0.355678
0.348692
0.36064
0.372148
0.407384
0.491433
0.536509
0.53143
0.506363
0.507092
0.553279
0.695191
0.815824
0.881957
0.92589
0.954377
0.973108
0.999339
1.02577
1.11828
1.38585
1.9596
2.44016
2.39203
1.99125
0.355677
0.348692
0.36064
0.372147
0.407382
0.491433
0.536512
0.531433
0.506362
0.507089
0.553275
0.69519
0.815787
0.882082
0.925619
0.954741
0.972804
0.997938
1.02215
1.10029
1.32966
1.87616
2.34314
2.37869
1.97698
0.355677
0.348692
0.36064
0.372147
0.407382
0.491433
0.536513
0.531434
0.506363
0.50709
0.553278
0.695201
0.815727
0.882262
0.925268
0.955127
0.972558
0.996179
1.01783
1.07954
1.26472
1.7626
2.21002
2.35736
1.96436
0.355677
0.348692
0.36064
0.372147
0.407383
0.491434
0.536515
0.531436
0.506366
0.507093
0.553283
0.695221
0.815643
0.882488
0.924887
0.955426
0.972508
0.994105
1.01315
1.05796
1.19709
1.60679
2.03022
2.30232
1.98905
0.355677
0.348692
0.36064
0.372147
0.407383
0.491436
0.536517
0.531439
0.506368
0.507095
0.55329
0.695242
0.815556
0.882698
0.924586
0.9555
0.97277
0.991685
1.00956
1.03878
1.13838
1.45078
1.79162
2.2435
1.9836
0.355677
0.348692
0.36064
0.372146
0.407382
0.491432
0.536512
0.531434
0.506362
0.507089
0.553269
0.695201
0.815798
0.881966
0.925927
0.954411
0.973043
1.00404
1.03568
1.16079
1.5225
2.1971
2.64497
2.43062
2.08664
0.355677
0.348692
0.360639
0.372146
0.407382
0.491432
0.536512
0.531433
0.506361
0.507089
0.553269
0.6952
0.815799
0.881961
0.925938
0.95439
0.973057
1.00387
1.03504
1.1582
1.51347
2.17769
2.63406
2.42592
2.07864
0.355677
0.348692
0.360639
0.372146
0.407382
0.491432
0.536512
0.531433
0.506362
0.507089
0.553269
0.695198
0.815805
0.881949
0.925961
0.954342
0.973094
1.00342
1.03371
1.15277
1.49495
2.13832
2.60889
2.41633
2.06145
0.355677
0.348692
0.360639
0.372146
0.407382
0.491432
0.536512
0.531433
0.506362
0.507089
0.55327
0.695193
0.815816
0.881927
0.926001
0.95426
0.973159
1.0025
1.03173
1.14425
1.467
2.08707
2.56947
2.40689
2.04059
0.355677
0.348692
0.360639
0.372146
0.407382
0.491432
0.536512
0.531433
0.506362
0.507089
0.553271
0.695187
0.81583
0.881908
0.926027
0.954185
0.973245
1.00102
1.02887
1.13271
1.43076
2.02725
2.51433
2.39888
2.01745
0.355677
0.348692
0.360639
0.372146
0.407382
0.491432
0.536512
0.531432
0.506361
0.507089
0.553272
0.695184
0.815822
0.881958
0.925891
0.954378
0.973109
0.99934
1.02577
1.11829
1.38585
1.95961
2.44016
2.39202
1.99123
0.355677
0.348692
0.360639
0.372146
0.407382
0.491432
0.536512
0.531433
0.506362
0.507089
0.553274
0.695188
0.815786
0.882082
0.925619
0.954741
0.972805
0.997938
1.02215
1.10029
1.32967
1.87616
2.34314
2.3787
1.97699
0.355677
0.348692
0.360639
0.372146
0.407382
0.491433
0.536512
0.531433
0.506362
0.507088
0.553276
0.695198
0.815725
0.882261
0.925268
0.955126
0.972558
0.996179
1.01784
1.07954
1.26472
1.7626
2.21002
2.35737
1.96441
0.355677
0.348692
0.360639
0.372146
0.407382
0.491432
0.536512
0.531433
0.506362
0.507088
0.553278
0.695215
0.815639
0.882485
0.924885
0.955425
0.972508
0.994105
1.01315
1.05796
1.19709
1.60679
2.03022
2.30232
1.98908
0.355677
0.348692
0.360639
0.372146
0.407382
0.491433
0.536512
0.531433
0.506362
0.507087
0.553281
0.695231
0.81555
0.882694
0.924583
0.955498
0.972769
0.991685
1.00956
1.03878
1.13838
1.45078
1.79162
2.24349
1.98363
0.355677
0.348692
0.36064
0.372147
0.407384
0.491436
0.53652
0.531443
0.506372
0.507101
0.553283
0.695218
0.815808
0.881973
0.925932
0.954414
0.973044
1.00404
1.03568
1.16079
1.5225
2.1971
2.64497
2.43062
2.08664
0.355678
0.348695
0.360644
0.372152
0.407394
0.491452
0.536534
0.531454
0.506379
0.507108
0.553289
0.695221
0.81581
0.881968
0.925942
0.954393
0.973059
1.00388
1.03504
1.1582
1.51347
2.17769
2.63406
2.42592
2.07864
0.355677
0.348694
0.360644
0.372152
0.407394
0.491452
0.536524
0.531441
0.506363
0.507094
0.55328
0.695215
0.815812
0.881953
0.925964
0.954344
0.973095
1.00342
1.03371
1.15277
1.49495
2.13832
2.60889
2.41633
2.06145
0.355706
0.34874
0.360675
0.372168
0.407392
0.491415
0.53648
0.531393
0.50632
0.507051
0.553257
0.695165
0.815793
0.881913
0.925993
0.954256
0.973156
1.0025
1.03173
1.14425
1.467
2.08707
2.56947
2.40689
2.04059
0.355674
0.348705
0.360639
0.372125
0.407339
0.491372
0.536458
0.531369
0.506283
0.507021
0.553242
0.695181
0.815822
0.881902
0.926024
0.954183
0.973243
1.00102
1.02887
1.13271
1.43076
2.02725
2.51433
2.39888
2.01745
0.355717
0.34867
0.360685
0.372293
0.407543
0.491688
0.537014
0.532021
0.50692
0.507538
0.55332
0.695095
0.815765
0.881914
0.92586
0.954357
0.973094
0.999331
1.02576
1.11828
1.38585
1.95961
2.44016
2.39202
1.99123
0.355674
0.348705
0.360639
0.372125
0.40734
0.491374
0.53646
0.531372
0.506287
0.507026
0.55325
0.695188
0.815782
0.882079
0.925617
0.95474
0.972804
0.997938
1.02215
1.10029
1.32967
1.87616
2.34314
2.3787
1.97699
0.355708
0.348745
0.36068
0.372176
0.407408
0.491441
0.536507
0.531419
0.50634
0.50707
0.553282
0.695188
0.815711
0.882252
0.925264
0.955125
0.972557
0.996179
1.01783
1.07954
1.26472
1.7626
2.21002
2.35737
1.96441
0.355675
0.348693
0.360644
0.372154
0.407398
0.491457
0.536523
0.531438
0.506356
0.50709
0.553295
0.695248
0.815653
0.882493
0.924891
0.955429
0.972511
0.994107
1.01315
1.05797
1.19709
1.60679
2.03022
2.30232
1.98908
0.355708
0.348745
0.36068
0.372176
0.407408
0.491441
0.536507
0.531419
0.50634
0.507069
0.553287
0.695221
0.815536
0.882685
0.924579
0.955496
0.972769
0.991685
1.00956
1.03878
1.13838
1.45078
1.79162
2.24349
1.98363
0.355708
0.348747
0.360685
0.372183
0.407422
0.49146
0.536523
0.531433
0.506346
0.507082
0.553294
0.695218
0.815795
0.881965
0.925928
0.954413
0.973045
1.00404
1.03568
1.16079
1.52251
2.1971
2.64497
2.43061
2.08664
0.355679
0.348715
0.360651
0.372139
0.407363
0.491406
0.536491
0.5314
0.506305
0.507046
0.553269
0.695224
0.815806
0.881965
0.925941
0.954393
0.973059
1.00388
1.03504
1.1582
1.51347
2.17769
2.63406
2.42592
2.07864
0.355746
0.348725
0.360721
0.372303
0.407526
0.491633
0.53695
0.531951
0.506851
0.507477
0.553293
0.69507
0.815717
0.881887
0.92592
0.954315
0.973077
1.00341
1.0337
1.15276
1.49494
2.13832
2.60889
2.41633
2.06145
0.355669
0.348697
0.360638
0.372132
0.407356
0.4914
0.536484
0.531395
0.506303
0.507042
0.553257
0.69521
0.815821
0.88193
0.926003
0.954262
0.973159
1.0025
1.03173
1.14425
1.467
2.08707
2.56947
2.40689
2.04059
0.355746
0.348725
0.360721
0.372302
0.407524
0.491631
0.536946
0.531946
0.506844
0.50747
0.553286
0.695049
0.815737
0.881842
0.925984
0.954156
0.973226
1.00101
1.02886
1.1327
1.43076
2.02726
2.51433
2.39888
2.01745
0.355678
0.348712
0.360646
0.372133
0.407351
0.491386
0.536466
0.531375
0.506286
0.507025
0.55325
0.695186
0.815816
0.881954
0.925889
0.954377
0.973109
0.999339
1.02577
1.11828
1.38585
1.9596
2.44016
2.39202
1.99123
0.355708
0.348744
0.36068
0.372175
0.407406
0.491437
0.536503
0.531416
0.506337
0.507069
0.553281
0.695181
0.815774
0.882073
0.925614
0.954739
0.972804
0.997938
1.02215
1.10029
1.32966
1.87616
2.34314
2.3787
1.97699
0.355677
0.348695
0.360645
0.372154
0.407397
0.491457
0.536532
0.531449
0.50637
0.507101
0.553296
0.695226
0.815739
0.882269
0.925274
0.95513
0.97256
0.99618
1.01784
1.07954
1.26472
1.7626
2.21002
2.35737
1.96441
0.355678
0.348695
0.360644
0.372153
0.407395
0.491455
0.53654
0.531461
0.506387
0.507116
0.553308
0.695247
0.815657
0.882497
0.924893
0.955429
0.97251
0.994106
1.01315
1.05796
1.19709
1.60679
2.03022
2.30232
1.98908
0.355677
0.348692
0.36064
0.372147
0.407385
0.491438
0.536522
0.531444
0.506374
0.507103
0.5533
0.695255
0.815564
0.882703
0.924589
0.955501
0.972771
0.991685
1.00956
1.03878
1.13838
1.45078
1.79162
2.24349
1.98363
0.355676
0.348695
0.360646
0.372158
0.407408
0.491469
0.536536
0.531453
0.506375
0.507115
0.553318
0.695266
0.815823
0.881976
0.925929
0.954408
0.973035
1.00403
1.03566
1.16076
1.52241
2.19699
2.64486
2.431
2.08626
0.355701
0.34874
0.360672
0.372161
0.407381
0.491404
0.536507
0.531428
0.506358
0.507089
0.553284
0.695184
0.815768
0.881932
0.925914
0.95437
0.973039
1.00386
1.03502
1.15816
1.51337
2.17751
2.63393
2.4259
2.07857
0.355672
0.348704
0.360641
0.372131
0.407353
0.491394
0.536481
0.531394
0.506309
0.507055
0.553287
0.695243
0.815815
0.881948
0.925956
0.954334
0.973083
1.00341
1.03369
1.15274
1.49486
2.13823
2.60875
2.41664
2.06114
0.355708
0.348677
0.360691
0.372296
0.407536
0.491699
0.537122
0.532145
0.507034
0.507639
0.553365
0.695097
0.815721
0.88184
0.925931
0.954207
0.973118
1.00247
1.0317
1.14421
1.46691
2.08701
2.56932
2.40725
2.04023
0.355702
0.348753
0.360677
0.372153
0.407368
0.491377
0.536438
0.53134
0.50625
0.506999
0.553251
0.695177
0.815806
0.881888
0.926012
0.954171
0.973231
1.00101
1.02885
1.13268
1.43069
2.02724
2.51416
2.3992
2.01711
0.355729
0.348809
0.360718
0.372172
0.407356
0.491328
0.536428
0.53133
0.506238
0.506985
0.553255
0.695141
0.815755
0.8819
0.925849
0.954347
0.973082
0.999317
1.02575
1.11826
1.38579
1.95963
2.43997
2.39249
1.99084
0.355716
0.348686
0.360696
0.372293
0.407537
0.491678
0.536983
0.531977
0.506858
0.507495
0.553324
0.695132
0.815734
0.882035
0.925584
0.954714
0.972782
0.997917
1.02213
1.10026
1.32961
1.87611
2.34298
2.37871
1.97676
0.355742
0.348739
0.360734
0.372311
0.407544
0.49166
0.53696
0.531947
0.506823
0.507463
0.55333
0.695131
0.815656
0.882201
0.925225
0.955094
0.972531
0.996156
1.01781
1.07951
1.26467
1.76255
2.20984
2.35738
1.96432
0.355702
0.34876
0.360679
0.372146
0.407349
0.491348
0.536405
0.5313
0.506202
0.506958
0.553248
0.695212
0.815614
0.882465
0.924871
0.955413
0.972496
0.994091
1.01314
1.05795
1.19704
1.60682
2.02992
2.30253
1.989
0.35577
0.348789
0.360766
0.372322
0.407515
0.491593
0.536981
0.531992
0.5069
0.507527
0.553358
0.695088
0.8154
0.882565
0.924487
0.95543
0.972719
0.991648
1.00952
1.03875
1.13834
1.4508
1.79132
2.24377
1.98357
0.355705
0.348766
0.360687
0.372159
0.407372
0.491392
0.536476
0.531378
0.506276
0.507025
0.553308
0.69529
0.815473
0.88282
0.924536
0.954966
0.973976
0.988145
1.00751
1.02479
1.09092
1.30313
1.58978
2.17988
1.92923
0.355749
0.348735
0.360736
0.372325
0.407566
0.491687
0.536995
0.531993
0.506887
0.507526
0.553384
0.695225
0.815407
0.882701
0.924865
0.954024
0.974977
0.987175
1.0019
1.01586
1.05358
1.17238
1.44999
1.95487
1.76499
0.35571
0.34877
0.360696
0.372176
0.407407
0.491443
0.536513
0.531413
0.506307
0.507054
0.553325
0.695322
0.815474
0.882698
0.925019
0.953904
0.97468
0.987895
0.997371
1.00976
1.02402
1.08185
1.25628
1.55984
1.6535
0.355738
0.348818
0.360726
0.372184
0.407391
0.491385
0.536455
0.53135
0.506247
0.506999
0.553301
0.695279
0.815451
0.882674
0.924979
0.954026
0.974263
0.988242
0.99655
1.00375
1.01251
1.03424
1.10444
1.2884
1.50863
0.355749
0.348745
0.360745
0.372332
0.407578
0.491704
0.536996
0.531985
0.506867
0.507508
0.553372
0.695221
0.815413
0.882648
0.924948
0.953992
0.974297
0.987952
0.996749
1.00146
1.00609
1.01346
1.03643
1.10718
1.24108
0.355745
0.348754
0.360739
0.372301
0.407509
0.491611
0.536932
0.53192
0.506796
0.507444
0.553342
0.695207
0.8154
0.882635
0.924946
0.953984
0.974279
0.987986
0.996518
1.00142
1.00361
1.00622
1.01148
1.02872
1.08266
0.355775
0.348798
0.360767
0.372312
0.407498
0.491559
0.536863
0.531847
0.50673
0.507381
0.553301
0.695149
0.815363
0.882614
0.924932
0.953979
0.974271
0.987971
0.996537
1.00122
1.00342
1.00402
1.00512
1.00792
1.01765
0.355775
0.348803
0.360772
0.372316
0.407507
0.491578
0.536887
0.531867
0.506738
0.507384
0.553297
0.695143
0.815363
0.882617
0.924937
0.953982
0.974275
0.987972
0.996528
1.00123
1.00326
1.00377
1.00347
1.0035
1.00456
0.355748
0.34876
0.360746
0.372309
0.407525
0.491632
0.536945
0.531928
0.506795
0.507445
0.553346
0.695214
0.815402
0.882637
0.924946
0.953987
0.974277
0.987973
0.996528
1.00123
1.00325
1.00366
1.00335
1.00249
1.00202
0.355777
0.348795
0.360777
0.372343
0.407566
0.491663
0.536957
0.531939
0.506813
0.507454
0.553341
0.695174
0.815383
0.88263
0.924945
0.953988
0.974278
0.987974
0.996529
1.00123
1.00324
1.00365
1.00331
1.00237
1.0016
0.355738
0.34883
0.360735
0.372183
0.407376
0.491354
0.536421
0.531312
0.506201
0.506961
0.553288
0.69528
0.815444
0.882674
0.924976
0.954008
0.974291
0.987982
0.996534
1.00123
1.00324
1.00365
1.0033
1.00235
1.00152
0.355749
0.348746
0.360744
0.372329
0.407568
0.491695
0.537011
0.532003
0.50688
0.507522
0.553394
0.695248
0.815426
0.882652
0.924956
0.953993
0.97428
0.987975
0.996529
1.00123
1.00324
1.00365
1.0033
1.00235
1.00151
0.355749
0.348748
0.360744
0.372326
0.407565
0.491694
0.537014
0.532004
0.506873
0.507512
0.553377
0.695232
0.815421
0.882652
0.924958
0.953995
0.974282
0.987976
0.99653
1.00123
1.00324
1.00365
1.0033
1.00235
1.00151
0.355737
0.34883
0.360735
0.372182
0.407374
0.49135
0.536418
0.531307
0.506197
0.506956
0.553282
0.695273
0.815441
0.882671
0.924974
0.954007
0.97429
0.987982
0.996533
1.00123
1.00324
1.00365
1.0033
1.00235
1.00151
0.355776
0.348789
0.360772
0.372338
0.407557
0.491641
0.536931
0.531916
0.506803
0.507448
0.553342
0.695177
0.815384
0.882627
0.924941
0.953983
0.974275
0.987971
0.996527
1.00123
1.00324
1.00365
1.0033
1.00235
1.00151
0.355745
0.348755
0.360738
0.372299
0.407508
0.491616
0.536944
0.531931
0.506799
0.507443
0.553335
0.695201
0.815403
0.882642
0.924951
0.95399
0.974279
0.987974
0.996528
1.00123
1.00324
1.00365
1.0033
1.00235
1.00151
0.355745
0.348756
0.360739
0.3723
0.40751
0.491619
0.536947
0.531934
0.506801
0.507445
0.553336
0.695203
0.815404
0.882642
0.924952
0.953991
0.97428
0.987975
0.996529
1.00123
1.00324
1.00365
1.0033
1.00235
1.00151
0.355776
0.348793
0.360776
0.372342
0.407566
0.491661
0.536963
0.531947
0.506819
0.507459
0.553346
0.695182
0.815388
0.882633
0.924947
0.953989
0.974279
0.987974
0.996529
1.00123
1.00324
1.00365
1.0033
1.00235
1.00151
0.35574
0.348835
0.360741
0.372189
0.407384
0.491365
0.536426
0.531311
0.506194
0.506954
0.553284
0.695277
0.815441
0.882672
0.924975
0.954008
0.974291
0.987982
0.996534
1.00123
1.00324
1.00365
1.0033
1.00235
1.00151
0.355777
0.348797
0.36078
0.372347
0.407576
0.491678
0.536977
0.53196
0.506828
0.507468
0.553355
0.695189
0.81539
0.882633
0.924947
0.953988
0.974278
0.987974
0.996529
1.00123
1.00324
1.00365
1.0033
1.00235
1.00151
0.355745
0.348754
0.360739
0.372301
0.407511
0.491612
0.536928
0.531914
0.506789
0.507441
0.553345
0.695217
0.815407
0.882641
0.924949
0.953988
0.974277
0.987973
0.996528
1.00123
1.00324
1.00365
1.0033
1.00235
1.00151
0.355776
0.348805
0.360775
0.372321
0.407516
0.491595
0.536919
0.531903
0.506772
0.507416
0.553323
0.695164
0.815377
0.882626
0.924943
0.953986
0.974277
0.987973
0.996528
1.00123
1.00324
1.00365
1.0033
1.00235
1.00151
0.355745
0.348754
0.360739
0.372301
0.407511
0.491612
0.536928
0.531915
0.50679
0.507442
0.553346
0.695218
0.815408
0.882642
0.92495
0.953989
0.974278
0.987973
0.996528
1.00123
1.00324
1.00365
1.0033
1.00235
1.00151
0.355777
0.348797
0.360781
0.372348
0.407578
0.491681
0.536982
0.531964
0.506833
0.507472
0.55336
0.695194
0.815393
0.882635
0.924948
0.95399
0.974279
0.987975
0.996529
1.00123
1.00324
1.00365
1.0033
1.00235
1.00151
0.35574
0.348836
0.360741
0.372189
0.407384
0.491367
0.536429
0.531313
0.506193
0.506952
0.553281
0.695276
0.815442
0.882674
0.924977
0.95401
0.974293
0.987984
0.996535
1.00123
1.00324
1.00365
1.0033
1.00235
1.00151
0.355778
0.348796
0.360781
0.372351
0.407581
0.49168
0.536975
0.531959
0.506835
0.507479
0.553372
0.695206
0.815395
0.882633
0.924945
0.953987
0.974277
0.987973
0.996528
1.00123
1.00324
1.00365
1.0033
1.00235
1.00151
0.355745
0.348756
0.360739
0.372299
0.407508
0.491613
0.536933
0.531918
0.506784
0.507432
0.553332
0.695204
0.815403
0.882642
0.924952
0.953991
0.97428
0.987975
0.996529
1.00123
1.00324
1.00365
1.0033
1.00235
1.00151
0.355777
0.348804
0.360775
0.372323
0.407518
0.491593
0.536908
0.531893
0.50677
0.507418
0.55333
0.695171
0.815376
0.882622
0.924938
0.953982
0.974274
0.987971
0.996527
1.00123
1.00324
1.00365
1.0033
1.00235
1.00151
0.355745
0.348753
0.360738
0.3723
0.407509
0.491609
0.536923
0.531908
0.506783
0.507434
0.553338
0.695209
0.815402
0.882638
0.924947
0.953987
0.974277
0.987973
0.996527
1.00123
1.00324
1.00365
1.0033
1.00235
1.00151
0.355776
0.348794
0.360776
0.372342
0.407565
0.49166
0.536955
0.531938
0.506812
0.507452
0.553338
0.69517
0.815382
0.88263
0.924945
0.953987
0.974278
0.987974
0.996528
1.00123
1.00324
1.00365
1.0033
1.00235
1.00151
0.355737
0.34883
0.360734
0.372181
0.407373
0.49135
0.536417
0.531306
0.506192
0.506948
0.553271
0.695261
0.815436
0.88267
0.924974
0.954007
0.974291
0.987982
0.996534
1.00123
1.00324
1.00365
1.0033
1.00235
1.00151
0.355748
0.348746
0.360743
0.372325
0.407562
0.491692
0.537013
0.532003
0.506872
0.507508
0.55337
0.695222
0.815416
0.882649
0.924956
0.953993
0.974281
0.987976
0.99653
1.00123
1.00324
1.00365
1.0033
1.00235
1.00151
0.355747
0.348743
0.360739
0.372319
0.407552
0.491673
0.536986
0.531977
0.506852
0.507489
0.553354
0.695208
0.815411
0.882646
0.924954
0.953991
0.97428
0.987975
0.996529
1.00123
1.00324
1.00365
1.0033
1.00235
1.00151
0.355735
0.348824
0.360728
0.372173
0.40736
0.491336
0.536416
0.531308
0.506198
0.50695
0.553267
0.695251
0.815433
0.882668
0.924972
0.954006
0.97429
0.987981
0.996533
1.00123
1.00324
1.00365
1.0033
1.00235
1.00151
0.355746
0.34874
0.360734
0.372312
0.407538
0.49165
0.536962
0.531954
0.506836
0.507473
0.553338
0.695193
0.815403
0.882642
0.924951
0.95399
0.974278
0.987974
0.996529
1.00123
1.00324
1.00365
1.0033
1.00235
1.00151
0.355746
0.34874
0.360737
0.37232
0.407556
0.491677
0.536988
0.531983
0.506867
0.507508