/*--------------------------------*- C++ -*----------------------------------*\
| =========                 |                                                 |
| \\      /  F ield         | OpenFOAM: The Open Source CFD Toolbox           |
|  \\    /   O peration     | Version:  4.1                                   |
|   \\  /    A nd           | Web:      www.OpenFOAM.org                      |
|    \\/     M anipulation  |                                                 |
\*---------------------------------------------------------------------------*/
FoamFile
{
    version     2.0;
    format      ascii;
    class       volVectorField;
    location    "0.14";
    object      U;
}
// * * * * * * * * * * * * * * * * * * * * * * * * * * * * * * * * * * * * * //

dimensions      [0 1 -1 0 0 0 0];

internalField   nonuniform List<vector> 
52500
(
(1.79098 -2.15548e-07 -0.00228234)
(1.79401 -1.50067e-06 -0.00218738)
(1.77784 -2.43511e-06 -0.00225366)
(1.75669 -3.92552e-06 -0.0023205)
(1.71526 -7.68485e-06 -0.00255034)
(1.63397 -1.68754e-05 -0.00305329)
(1.52415 -3.0242e-05 -0.00336154)
(1.41237 -3.82922e-05 -0.00336519)
(1.31364 -4.06929e-05 -0.00322323)
(1.25855 -4.01185e-05 -0.00321774)
(1.27434 -3.27413e-05 -0.003518)
(1.35215 -2.48401e-05 -0.00442668)
(1.46018 -1.86704e-05 -0.0051575)
(1.56255 -1.26385e-05 -0.00553281)
(1.65192 -1.08581e-05 -0.00577358)
(1.7278 -2.51912e-06 -0.00591923)
(1.79204 -1.14299e-05 -0.00601889)
(1.83365 4.20014e-05 -0.00618029)
(1.83256 0.000217587 -0.00642871)
(1.73376 0.000765866 -0.00735738)
(1.32534 0.00292683 -0.0100575)
(0.20801 0.0117322 -0.0156471)
(-0.221322 0.0214505 -0.01874)
(-0.282865 0.0191701 -0.0169717)
(0.38548 0.0200615 -0.0148381)
(1.79097 3.75326e-07 -0.00228227)
(1.79401 5.02784e-07 -0.00218719)
(1.77784 2.45519e-06 -0.00225343)
(1.75668 3.21479e-06 -0.0023202)
(1.71525 -2.84586e-06 -0.0025499)
(1.63395 -2.21675e-05 -0.00305248)
(1.52413 -5.17845e-05 -0.00336058)
(1.41236 -6.84321e-05 -0.00336447)
(1.31364 -7.63889e-05 -0.0032227)
(1.25856 -7.72036e-05 -0.00321753)
(1.27435 -6.25123e-05 -0.00351795)
(1.35217 -4.70363e-05 -0.00442674)
(1.46019 -3.75639e-05 -0.00515755)
(1.56256 -2.61552e-05 -0.00553278)
(1.65193 -2.65402e-05 -0.00577364)
(1.7278 -2.6159e-06 -0.00591906)
(1.79208 -3.42807e-05 -0.00601904)
(1.83385 0.000145175 -0.00617882)
(1.83319 0.000721921 -0.00642309)
(1.73627 0.00249746 -0.00733569)
(1.33707 0.0093157 -0.0099773)
(0.230546 0.036398 -0.0154683)
(-0.206845 0.0679748 -0.018592)
(-0.284106 0.0588229 -0.0168732)
(0.387748 0.0619006 -0.0147173)
(1.79097 -5.5359e-06 -0.0022824)
(1.79401 -2.42652e-05 -0.0021874)
(1.77784 -4.56208e-05 -0.00225363)
(1.75669 -7.35272e-05 -0.00232025)
(1.71526 -0.00011786 -0.00254982)
(1.63396 -0.000195279 -0.00305216)
(1.52414 -0.000241078 -0.00335936)
(1.41237 -0.000233053 -0.00336255)
(1.31364 -0.000197834 -0.00322113)
(1.25857 -0.000139893 -0.00321714)
(1.27437 -9.39233e-05 -0.00351727)
(1.35219 -6.03325e-05 -0.00442617)
(1.46021 -4.64015e-05 -0.00515732)
(1.56257 -2.99276e-05 -0.00553249)
(1.65194 -3.67986e-05 -0.00577363)
(1.72779 3.34005e-06 -0.00591859)
(1.79218 -5.64775e-05 -0.00601935)
(1.83431 0.000295814 -0.00617533)
(1.83459 0.00139377 -0.00641129)
(1.74167 0.00472273 -0.00729163)
(1.36129 0.0168916 -0.00982078)
(0.278278 0.0629357 -0.0151079)
(-0.174561 0.123242 -0.0183394)
(-0.28828 0.100664 -0.0167458)
(0.392902 0.10591 -0.0145296)
(1.79093 -2.5698e-06 -0.00228235)
(1.79395 -1.53369e-05 -0.00218718)
(1.7778 -2.93498e-05 -0.00225329)
(1.75666 -4.89063e-05 -0.00231985)
(1.71523 -8.61276e-05 -0.00254926)
(1.63398 -0.000157926 -0.00305118)
(1.52427 -0.000198804 -0.00335913)
(1.41257 -0.000200009 -0.00336342)
(1.31385 -0.00018177 -0.00322198)
(1.25874 -0.000139908 -0.00321719)
(1.27447 -0.000105762 -0.00351789)
(1.35223 -7.36254e-05 -0.00442661)
(1.46023 -5.96279e-05 -0.00515753)
(1.56257 -3.67679e-05 -0.00553242)
(1.65196 -4.25662e-05 -0.00577394)
(1.72778 4.79437e-06 -0.00591805)
(1.79235 -6.0326e-05 -0.00602001)
(1.83511 0.00048401 -0.00616881)
(1.837 0.00221572 -0.00639346)
(1.75037 0.00745855 -0.00722422)
(1.39714 0.0256241 -0.00959474)
(0.351249 0.0903058 -0.0145723)
(-0.122392 0.18721 -0.0179457)
(-0.298161 0.144362 -0.016616)
(0.400377 0.150305 -0.014317)
(1.79092 -1.86427e-05 -0.0022825)
(1.79395 -4.67286e-05 -0.00218757)
(1.77784 -0.000115591 -0.00225354)
(1.75676 -0.000209195 -0.00231978)
(1.71539 -0.000265007 -0.00254884)
(1.63421 -0.000190869 -0.00305052)
(1.52453 -1.68102e-05 -0.00335806)
(1.41279 0.00015019 -0.00336154)
(1.31401 0.000195214 -0.00322023)
(1.25885 9.96202e-05 -0.00321647)
(1.27455 6.42915e-05 -0.00351694)
(1.35229 2.21352e-05 -0.00442577)
(1.46027 -9.74395e-06 -0.0051572)
(1.5626 -1.72763e-05 -0.00553201)
(1.65199 -7.19219e-06 -0.00577392)
(1.72777 -3.65334e-05 -0.00591737)
(1.79262 6.7012e-05 -0.0060207)
(1.83629 0.000334864 -0.00615856)
(1.84057 0.00274192 -0.00636791)
(1.76268 0.0104661 -0.00713427)
(1.44343 0.03538 -0.00931061)
(0.453517 0.118292 -0.0139756)
(-0.0497476 0.260615 -0.0174325)
(-0.313595 0.194016 -0.0164961)
(0.408447 0.19752 -0.0140839)
(1.79098 -2.70055e-05 -0.00228241)
(1.794 -7.85295e-05 -0.00218705)
(1.77772 -0.000177232 -0.0022537)
(1.75637 -0.000306996 -0.00232116)
(1.71476 -0.000405679 -0.00255104)
(1.63331 -0.000385546 -0.00305476)
(1.52331 -0.000228632 -0.00336498)
(1.41138 -3.49571e-05 -0.00336998)
(1.31263 6.32149e-05 -0.00322751)
(1.25788 3.70699e-05 -0.00322006)
(1.27403 4.34862e-05 -0.00351841)
(1.35201 2.35324e-05 -0.00442612)
(1.46012 2.54818e-06 -0.00515713)
(1.56254 -2.26254e-05 -0.00553225)
(1.65193 3.36047e-05 -0.00577294)
(1.72784 -0.000107686 -0.00591869)
(1.79266 0.000250648 -0.00601939)
(1.83752 -4.55771e-05 -0.00614704)
(1.84567 0.00317231 -0.00634021)
(1.77916 0.0136054 -0.00702388)
(1.49936 0.0455161 -0.00897049)
(0.588456 0.146885 -0.0133411)
(0.0450973 0.343531 -0.0167792)
(-0.327025 0.256377 -0.0163837)
(0.412939 0.250886 -0.0138202)
(1.79093 1.35783e-05 -0.00228259)
(1.79395 2.59362e-05 -0.00218736)
(1.77769 7.86552e-05 -0.00225389)
(1.75638 0.000149604 -0.00232122)
(1.71479 0.000160249 -0.00255096)
(1.63342 -4.97903e-06 -0.00305459)
(1.52352 -0.000245716 -0.00336505)
(1.41163 -0.000422751 -0.00337005)
(1.31288 -0.000452664 -0.00322757)
(1.25807 -0.000310545 -0.00322004)
(1.27415 -0.000232726 -0.00351842)
(1.35208 -0.000141317 -0.00442597)
(1.46015 -7.73033e-05 -0.00515674)
(1.56259 -7.72201e-05 -0.00553295)
(1.65189 4.00215e-05 -0.00577107)
(1.72797 -0.0001541 -0.00592126)
(1.79261 0.000343801 -0.0060162)
(1.83903 -0.000149343 -0.00614159)
(1.85224 0.00386469 -0.00630993)
(1.79952 0.0165213 -0.00688695)
(1.56525 0.0543842 -0.00855226)
(0.762107 0.173429 -0.0126102)
(0.166031 0.43589 -0.0159785)
(-0.319524 0.33789 -0.0162075)
(0.405127 0.314488 -0.0136198)
(1.79086 -1.02152e-06 -0.00228246)
(1.79387 -4.52828e-06 -0.00218745)
(1.77778 -8.03286e-06 -0.0022533)
(1.75673 -1.22673e-05 -0.00231942)
(1.71539 -1.89751e-05 -0.00254832)
(1.63427 -3.32645e-05 -0.00304952)
(1.52474 -4.10298e-05 -0.00335775)
(1.41309 -4.1637e-05 -0.0033625)
(1.31432 -3.96122e-05 -0.00322112)
(1.25908 -3.59795e-05 -0.00321649)
(1.2747 -3.17759e-05 -0.00351758)
(1.35239 -2.13559e-05 -0.00442625)
(1.4603 -5.00545e-06 -0.00515657)
(1.5627 -4.73481e-05 -0.0055343)
(1.65188 8.39975e-05 -0.00576888)
(1.72814 -0.000145982 -0.0059242)
(1.79259 0.000397051 -0.00601322)
(1.84082 -3.99959e-05 -0.00613448)
(1.85989 0.00441208 -0.00627406)
(1.82282 0.0183296 -0.00672923)
(1.63978 0.0592968 -0.00807095)
(0.984296 0.189302 -0.0116638)
(0.300292 0.518441 -0.0149551)
(-0.24719 0.451243 -0.0158602)
(0.368865 0.406093 -0.0133935)
(1.79093 -1.84784e-05 -0.00228252)
(1.79394 -4.80973e-05 -0.00218713)
(1.77768 -0.000121055 -0.00225363)
(1.75636 -0.000219139 -0.00232088)
(1.71477 -0.000273381 -0.00255048)
(1.6334 -0.000184419 -0.0030537)
(1.52351 3.95346e-06 -0.00336433)
(1.41163 0.000178236 -0.00336978)
(1.31288 0.000235484 -0.00322751)
(1.25807 0.000145146 -0.00322022)
(1.27416 0.000107584 -0.00351866)
(1.3521 6.14191e-05 -0.00442637)
(1.46013 4.07943e-05 -0.0051559)
(1.56266 -3.12206e-05 -0.00553562)
(1.6518 0.000105151 -0.00576622)
(1.72828 -0.000120564 -0.00592649)
(1.79261 0.000400095 -0.00601132)
(1.84277 0.000136735 -0.00612521)
(1.86789 0.00456778 -0.0062352)
(1.8467 0.0183696 -0.00656408)
(1.71588 0.0577609 -0.0075679)
(1.2403 0.18254 -0.0104487)
(0.462913 0.543249 -0.0135818)
(-0.104939 0.588136 -0.0151646)
(0.300861 0.544251 -0.0133034)
(1.79093 2.54522e-05 -0.0022825)
(1.79394 7.39752e-05 -0.00218712)
(1.77768 0.00016878 -0.00225361)
(1.75637 0.00029401 -0.00232083)
(1.71478 0.00038929 -0.00255039)
(1.63339 0.000366934 -0.00305355)
(1.5235 0.000191187 -0.003364)
(1.41162 -2.36412e-05 -0.00336945)
(1.31288 -0.000140357 -0.0032272)
(1.25808 -0.000129971 -0.00321988)
(1.27417 -0.000140954 -0.00351843)
(1.35212 -9.4717e-05 -0.00442631)
(1.46012 -3.6887e-05 -0.00515523)
(1.56271 -6.83012e-05 -0.00553694)
(1.65177 7.48977e-05 -0.00576417)
(1.72844 -6.26622e-05 -0.00592745)
(1.79271 0.000302566 -0.00601162)
(1.84468 0.000494351 -0.00611317)
(1.87539 0.00406284 -0.00620352)
(1.86817 0.0170914 -0.00641781)
(1.78172 0.0527134 -0.00713383)
(1.46735 0.160922 -0.00925217)
(0.697197 0.486826 -0.0117541)
(0.0876298 0.747362 -0.0144187)
(0.258526 0.780387 -0.0128969)
(1.79093 6.42333e-06 -4.72819e-09)
(1.79395 2.42172e-05 -8.0415e-09)
(1.7778 4.59875e-05 -8.77347e-09)
(1.75666 7.45464e-05 -1.00489e-08)
(1.71523 0.000116302 -1.43548e-08)
(1.63396 0.000186373 -1.66055e-08)
(1.52425 0.000240172 -2.46009e-09)
(1.41255 0.000238962 9.06006e-09)
(1.31384 0.000197568 2.83346e-08)
(1.25874 0.000131031 8.54284e-08)
(1.27448 7.67337e-05 1.08408e-07)
(1.35224 4.15573e-05 1.03226e-07)
(1.46023 2.34044e-05 6.54894e-08)
(1.56258 1.57735e-05 4.8714e-08)
(1.65194 9.08887e-06 3.05272e-08)
(1.72781 1.16151e-05 1.18139e-08)
(1.79205 -1.76803e-06 -7.28376e-09)
(1.83366 4.86533e-05 -3.32452e-08)
(1.83256 0.00022248 -9.04227e-08)
(1.73373 0.000769788 -2.10814e-07)
(1.32524 0.00293153 -5.45375e-07)
(0.207875 0.011739 -1.40708e-06)
(-0.221431 0.0214554 1.45642e-07)
(-0.282835 0.0191458 3.67819e-07)
(0.385485 0.0200772 -3.13671e-08)
(1.79096 -2.25138e-05 -3.47236e-09)
(1.794 -6.50948e-05 1.77608e-09)
(1.77785 -0.000153273 3.12789e-09)
(1.75673 -0.000271472 6.49522e-09)
(1.71533 -0.000361368 1.22869e-08)
(1.63408 -0.0003358 2.58835e-08)
(1.5243 -0.000166649 7.40437e-08)
(1.41252 3.74016e-05 8.51585e-08)
(1.31376 0.000143559 9.25045e-08)
(1.25865 0.000125215 1.61517e-07)
(1.27441 0.000121195 1.46557e-07)
(1.3522 7.65904e-05 1.22023e-07)
(1.46021 3.45254e-05 8.10552e-08)
(1.56257 1.65165e-05 5.7685e-08)
(1.65194 -6.9951e-07 3.67053e-08)
(1.7278 1.33513e-05 1.33683e-08)
(1.79209 -2.49739e-05 -5.93154e-09)
(1.83385 0.000151317 -3.1445e-08)
(1.83318 0.000727433 -8.11849e-08)
(1.73624 0.00250477 -1.98039e-07)
(1.33697 0.00933191 -5.27964e-07)
(0.230415 0.0364421 -1.50271e-06)
(-0.207009 0.0680432 7.30878e-08)
(-0.284079 0.0587572 2.93662e-07)
(0.387781 0.0618997 1.08516e-07)
(1.79094 8.87596e-07 -9.27079e-09)
(1.79395 6.42613e-06 1.57651e-08)
(1.77769 1.17982e-05 2.2911e-08)
(1.75637 1.85091e-05 4.35509e-08)
(1.71478 3.06409e-05 9.37969e-08)
(1.63339 5.48545e-05 1.76731e-07)
(1.52348 8.28439e-05 4.10367e-07)
(1.41161 9.48505e-05 3.9299e-07)
(1.31286 9.04601e-05 3.31703e-07)
(1.25805 7.42841e-05 3.62179e-07)
(1.2741 5.28334e-05 2.49392e-07)
(1.35203 3.58444e-05 1.62185e-07)
(1.46012 1.99317e-05 1.17221e-07)
(1.56253 1.86311e-05 9.19774e-08)
(1.65193 -6.8849e-07 6.44335e-08)
(1.72779 2.96331e-05 4.16855e-08)
(1.79218 -3.84497e-05 1.42453e-08)
(1.83431 0.000308438 -9.99497e-09)
(1.83459 0.00140358 -5.49436e-08)
(1.74166 0.00473318 -1.54458e-07)
(1.36121 0.0169118 -4.30703e-07)
(0.278207 0.0629935 -1.182e-06)
(-0.174668 0.123327 -2.44935e-07)
(-0.288084 0.100583 1.90569e-07)
(0.392834 0.105915 1.55557e-07)
(1.79098 -3.81583e-09 1.4236e-09)
(1.79401 1.22696e-07 3.0851e-08)
(1.77786 2.56359e-07 3.84976e-08)
(1.75673 4.79074e-07 5.69452e-08)
(1.71533 9.59571e-07 9.25607e-08)
(1.63408 2.33235e-06 1.88597e-07)
(1.52428 4.25467e-06 2.97965e-07)
(1.41247 8.69e-06 2.56764e-07)
(1.31369 1.26519e-05 2.15503e-07)
(1.25858 1.70961e-05 3.14196e-07)
(1.27436 1.55986e-05 2.52273e-07)
(1.35217 1.50083e-05 1.93592e-07)
(1.4602 5.97016e-06 1.27506e-07)
(1.56255 1.21695e-05 1.01835e-07)
(1.65195 -6.84543e-06 7.96899e-08)
(1.72777 3.00255e-05 4.92046e-08)
(1.79235 -4.34363e-05 1.8931e-08)
(1.83511 0.000495204 -8.73661e-10)
(1.83699 0.00222347 -3.86596e-08)
(1.75035 0.00746551 -1.15844e-07)
(1.39708 0.0256368 -3.42871e-07)
(0.351194 0.0903429 -8.99852e-07)
(-0.122544 0.187261 -3.31263e-07)
(-0.297964 0.144318 8.3826e-09)
(0.400325 0.150334 2.53428e-07)
(1.79094 -5.70583e-07 7.43071e-08)
(1.79395 -5.06622e-06 2.26165e-07)
(1.77769 -9.51673e-06 2.63232e-07)
(1.75637 -1.46096e-05 3.56945e-07)
(1.71478 -2.3123e-05 5.57212e-07)
(1.63339 -3.83688e-05 9.57864e-07)
(1.52349 -4.67604e-05 1.07832e-06)
(1.41161 -4.5458e-05 7.43221e-07)
(1.31287 -3.3591e-05 5.11232e-07)
(1.25805 -1.24181e-05 3.00332e-07)
(1.2741 -1.04013e-06 1.72776e-07)
(1.35202 8.16303e-06 3.61259e-08)
(1.46012 4.59576e-06 5.80166e-08)
(1.56251 4.80778e-06 9.14472e-08)
(1.65194 1.37905e-05 8.7425e-08)
(1.72775 -1.98659e-05 6.8537e-08)
(1.79261 7.87909e-05 4.12564e-08)
(1.83628 0.000342612 2.03225e-08)
(1.84056 0.00274676 -1.75432e-08)
(1.76267 0.0104697 -8.52044e-08)
(1.44338 0.0353874 -2.46361e-07)
(0.453478 0.118315 -5.86234e-07)
(-0.0499055 0.260659 -3.7556e-07)
(-0.313409 0.194024 -9.98197e-08)
(0.408398 0.197539 2.31964e-07)
(1.79096 2.32141e-05 8.24882e-09)
(1.794 6.68521e-05 7.38557e-08)
(1.77785 0.000155711 8.68239e-08)
(1.75674 0.000274951 1.17259e-07)
(1.71534 0.0003674 1.74813e-07)
(1.63411 0.00034943 3.09244e-07)
(1.52434 0.000195687 4.74293e-07)
(1.41254 4.89132e-08 2.62124e-07)
(1.31377 -0.00010014 1.56722e-07)
(1.25864 -7.79148e-05 3.05596e-07)
(1.27439 -8.23544e-05 2.4554e-07)
(1.35218 -4.38085e-05 2.19984e-07)
(1.4602 -1.17162e-05 1.47263e-07)
(1.56256 -1.20332e-05 1.34736e-07)
(1.65193 5.27138e-05 1.15833e-07)
(1.72783 -8.85894e-05 8.36388e-08)
(1.79265 0.000266609 4.90375e-08)
(1.83751 -3.42201e-05 2.16503e-08)
(1.84566 0.00317948 -1.1973e-08)
(1.77915 0.0136092 -7.37266e-08)
(1.49932 0.0455173 -1.91727e-07)
(0.588435 0.146884 -3.89169e-07)
(0.0449831 0.343527 -3.18711e-07)
(-0.326832 0.256379 -1.34025e-07)
(0.412864 0.250943 1.48756e-07)
(1.79093 -1.21878e-06 1.6647e-07)
(1.79395 -1.35792e-06 2.90672e-07)
(1.7778 -3.12251e-06 2.92708e-07)
(1.75667 -5.26832e-06 2.20992e-07)
(1.71524 -4.07449e-06 1.52105e-07)
(1.63399 1.5354e-06 4.00935e-08)
(1.52428 -6.74774e-06 -7.99505e-07)
(1.41257 -1.02459e-05 -1.64786e-06)
(1.31386 -3.18021e-06 -1.41176e-06)
(1.25874 5.37116e-06 -5.05831e-08)
(1.27446 1.07944e-05 -3.59592e-07)
(1.35222 1.62891e-05 -2.26488e-07)
(1.46021 2.07566e-05 3.04081e-08)
(1.5626 -1.35006e-05 8.73838e-08)
(1.65189 8.22741e-05 8.81162e-08)
(1.72796 -0.000126142 6.60202e-08)
(1.7926 0.0003619 4.07091e-08)
(1.83901 -0.000138362 1.37037e-08)
(1.85222 0.00387118 -1.88947e-08)
(1.7995 0.016525 -7.9678e-08)
(1.56521 0.0543856 -2.06648e-07)
(0.76203 0.173427 -4.43206e-07)
(0.165881 0.435864 -3.33389e-07)
(-0.319488 0.337904 -2.0859e-07)
(0.405122 0.314541 1.40017e-07)
(1.79098 5.06984e-06 9.39418e-08)
(1.79401 2.24289e-05 2.50159e-07)
(1.77784 4.21365e-05 2.83507e-07)
(1.75668 6.82372e-05 3.7249e-07)
(1.71524 0.00011073 5.73563e-07)
(1.63395 0.000185719 9.39411e-07)
(1.52413 0.000232217 7.65987e-07)
(1.41236 0.00022685 6.90389e-08)
(1.31363 0.000191749 -1.78524e-07)
(1.25855 0.000132471 -2.40627e-07)
(1.27434 8.15404e-05 -1.10541e-07)
(1.35216 5.22619e-05 -4.6441e-08)
(1.46015 4.52534e-05 1.4618e-08)
(1.56261 -1.14853e-05 6.30215e-08)
(1.65182 0.00011011 7.13827e-08)
(1.7281 -0.000127311 5.4633e-08)
(1.79256 0.00040988 3.20908e-08)
(1.8408 -3.16955e-05 6.92211e-09)
(1.85987 0.00441783 -2.19403e-08)
(1.8228 0.0183349 -7.78716e-08)
(1.63974 0.0593059 -2.04729e-07)
(0.984208 0.189319 -4.93457e-07)
(0.300173 0.518465 -5.47647e-07)
(-0.247161 0.451265 -4.95699e-08)
(0.368862 0.406107 3.04334e-08)
(1.79097 5.60456e-07 1.79375e-07)
(1.79401 1.28783e-06 3.41623e-07)
(1.77784 1.62198e-06 3.50736e-07)
(1.75668 2.30632e-06 2.99797e-07)
(1.71525 4.4589e-06 2.87355e-07)
(1.63395 1.16327e-05 2.47919e-07)
(1.52413 2.26046e-05 -7.46334e-07)
(1.41236 2.93688e-05 -1.75181e-06)
(1.31364 3.35538e-05 -1.53967e-06)
(1.25855 3.51725e-05 -1.54312e-07)
(1.27434 2.41982e-05 -4.06295e-07)
(1.35216 2.03484e-05 -2.22694e-07)
(1.46014 2.79653e-05 5.91708e-08)
(1.56265 -3.26991e-05 1.00939e-07)
(1.65177 0.000107208 8.76406e-08)
(1.72826 -0.000118037 5.81371e-08)
(1.79258 0.000402165 3.12003e-08)
(1.84275 0.000137913 4.77262e-09)
(1.86787 0.00456901 -1.68056e-08)
(1.84669 0.0183723 -5.75072e-08)
(1.71585 0.0577691 -1.45155e-07)
(1.24024 0.182562 -4.06094e-07)
(0.462797 0.543327 -6.78017e-07)
(-0.104863 0.58813 1.9029e-08)
(0.300844 0.544238 -2.00631e-08)
(1.79098 -6.60974e-09 8.25673e-08)
(1.79401 3.29581e-08 7.77163e-08)
(1.77784 6.83804e-08 5.24084e-08)
(1.75669 1.43373e-07 -7.28434e-08)
(1.71526 3.35707e-07 -2.49238e-07)
(1.63397 8.57444e-07 -6.56621e-07)
(1.52415 2.41469e-06 -1.42633e-06)
(1.41237 4.04774e-06 -2.03064e-06)
(1.31364 5.55826e-06 -1.61063e-06)
(1.25854 8.423e-06 1.71153e-07)
(1.27433 1.58866e-06 -1.00664e-07)
(1.35216 5.63876e-06 8.67211e-08)
(1.46011 1.98913e-05 2.39108e-07)
(1.56268 -3.92075e-05 2.02575e-07)
(1.65173 8.75506e-05 1.43694e-07)
(1.7284 -5.87892e-05 9.02421e-08)
(1.79268 0.000302198 4.89687e-08)
(1.84465 0.000492412 1.26905e-08)
(1.87537 0.00406057 -6.21873e-09)
(1.86816 0.0170906 -3.91264e-08)
(1.7817 0.052716 -9.50003e-08)
(1.46731 0.160935 -2.70998e-07)
(0.697092 0.4869 -6.0601e-07)
(0.0876886 0.747326 3.29212e-08)
(0.258507 0.780353 -8.26321e-08)
(1.79098 -2.85484e-07 8.73062e-08)
(1.79401 -1.13459e-06 2.66965e-07)
(1.77784 -1.83343e-06 3.09836e-07)
(1.75669 -3.08374e-06 4.09981e-07)
(1.71526 -6.00952e-06 6.19078e-07)
(1.63397 -1.32338e-05 1.09881e-06)
(1.52416 -2.41427e-05 1.26083e-06)
(1.41238 -3.14358e-05 8.85765e-07)
(1.31364 -3.32453e-05 6.00824e-07)
(1.25855 -3.10005e-05 4.2502e-07)
(1.27432 -2.44966e-05 2.7386e-07)
(1.35214 -1.73938e-05 1.48937e-07)
(1.46016 -1.21516e-05 1.27837e-07)
(1.56254 -7.40183e-06 1.43133e-07)
(1.65191 -6.84841e-06 1.32535e-07)
(1.72779 3.50765e-07 1.1137e-07)
(1.79204 -9.40704e-06 7.58879e-08)
(1.83365 4.35236e-05 6.4148e-08)
(1.83255 0.000219087 4.98833e-08)
(1.73373 0.000767815 2.84472e-08)
(1.32523 0.00293069 8.64482e-09)
(0.207875 0.011739 -7.45845e-09)
(-0.22143 0.0214557 -1.41578e-08)
(-0.282834 0.0191459 -5.30887e-09)
(0.385485 0.0200772 -2.34124e-09)
(1.79097 -4.82486e-07 1.27136e-08)
(1.79401 -8.78737e-07 7.34049e-08)
(1.77784 -8.93723e-07 8.6336e-08)
(1.75668 -1.12545e-06 1.21199e-07)
(1.71525 -2.43254e-06 1.98312e-07)
(1.63395 -7.81341e-06 3.3218e-07)
(1.52414 -1.67188e-05 4.23329e-07)
(1.41237 -2.33605e-05 2.8723e-07)
(1.31364 -2.73526e-05 1.90334e-07)
(1.25856 -2.69508e-05 3.30588e-07)
(1.27434 -2.1616e-05 2.86318e-07)
(1.35215 -1.50091e-05 2.54141e-07)
(1.46017 -1.21605e-05 1.85365e-07)
(1.56254 -6.45887e-06 1.58731e-07)
(1.65191 -1.19442e-05 1.27607e-07)
(1.72779 7.81396e-06 9.75545e-08)
(1.79208 -2.73718e-05 6.19452e-08)
(1.83385 0.000150021 5.20435e-08)
(1.83318 0.000726356 3.77463e-08)
(1.73624 0.00250388 2.15501e-08)
(1.33697 0.00933143 4.2607e-09)
(0.230414 0.0364424 -8.12852e-09)
(-0.207008 0.0680436 -1.37637e-08)
(-0.284078 0.0587573 -5.07733e-09)
(0.387781 0.0618998 -2.18824e-09)
(1.79098 -4.60932e-06 1.67287e-07)
(1.79401 -2.07623e-05 2.69535e-07)
(1.77784 -3.94337e-05 2.69877e-07)
(1.75668 -6.37494e-05 2.03928e-07)
(1.71525 -0.000102215 1.51952e-07)
(1.63396 -0.000167153 2.90972e-08)
(1.52414 -0.000198436 -7.90117e-07)
(1.41237 -0.000182987 -1.70088e-06)
(1.31364 -0.000143957 -1.47935e-06)
(1.25856 -8.45651e-05 -1.47079e-07)
(1.27433 -4.60783e-05 -4.28391e-07)
(1.35215 -2.29198e-05 -2.34329e-07)
(1.46017 -1.79284e-05 6.1747e-08)
(1.56254 -7.96464e-06 9.94859e-08)
(1.65192 -1.99564e-05 8.52597e-08)
(1.72778 1.59243e-05 6.62512e-08)
(1.79217 -4.76895e-05 4.43152e-08)
(1.8343 0.000302448 3.7431e-08)
(1.83458 0.00139991 2.61811e-08)
(1.74165 0.00473122 1.37522e-08)
(1.36121 0.0169111 2.64689e-09)
(0.278206 0.0629938 -6.8467e-09)
(-0.174668 0.123327 -1.22032e-08)
(-0.288083 0.100583 -4.53312e-09)
(0.392834 0.105916 -1.82449e-09)
(1.79093 2.15444e-06 -1.36379e-08)
(1.79396 5.55095e-06 -1.59794e-08)
(1.77781 1.03973e-05 -1.69923e-08)
(1.75667 1.60257e-05 -1.39845e-08)
(1.71526 2.00058e-05 -2.25251e-09)
(1.63402 2.32434e-05 -4.07338e-09)
(1.52431 3.08016e-05 -6.72296e-08)
(1.41259 3.3158e-05 -1.49121e-07)
(1.31387 2.37558e-05 -1.25062e-07)
(1.25873 1.11273e-05 1.17916e-07)
(1.27444 -2.47456e-06 1.78922e-07)
(1.3522 -6.48012e-06 2.07793e-07)
(1.4602 -1.34407e-05 1.53497e-07)
(1.56255 -2.96944e-06 1.24566e-07)
(1.65194 -1.74351e-05 9.39644e-08)
(1.72776 2.30442e-05 6.84385e-08)
(1.79234 -4.76185e-05 4.15467e-08)
(1.8351 0.00049285 3.42162e-08)
(1.83699 0.00222231 2.33245e-08)
(1.75035 0.00746518 1.07641e-08)
(1.39708 0.0256369 -1.38543e-10)
(0.351194 0.0903433 -9.12466e-09)
(-0.122544 0.187261 -1.08102e-08)
(-0.297964 0.144318 -3.58279e-09)
(0.400325 0.150334 -1.34153e-09)
(1.79097 -1.81894e-05 1.67402e-07)
(1.79401 -4.44416e-05 2.67546e-07)
(1.77786 -0.000112109 2.67199e-07)
(1.75675 -0.000203708 1.99376e-07)
(1.71536 -0.00025475 1.43308e-07)
(1.63412 -0.000169925 8.03051e-09)
(1.52434 2.42867e-05 -8.13315e-07)
(1.41254 0.000202887 -1.77431e-06)
(1.31377 0.000258193 -1.56127e-06)
(1.25863 0.000167767 -2.65717e-07)
(1.27438 0.000125784 -5.23556e-07)
(1.35217 7.20099e-05 -3.13376e-07)
(1.46019 2.84567e-05 5.88095e-09)
(1.56254 1.19142e-05 5.63989e-08)
(1.65195 1.47529e-05 5.74059e-08)
(1.72774 -2.06193e-05 4.327e-08)
(1.7926 7.81381e-05 3.02223e-08)
(1.83628 0.000342107 2.5628e-08)
(1.84056 0.00274687 1.70556e-08)
(1.76266 0.0104705 6.99913e-09)
(1.44338 0.0353885 -9.99258e-10)
(0.453477 0.118316 -6.31587e-09)
(-0.0499053 0.26066 -7.70602e-09)
(-0.313409 0.194024 -2.35375e-09)
(0.408398 0.197539 -1.04155e-09)
(1.79099 -1.15752e-08 1.02738e-08)
(1.79402 -1.28227e-07 5.35632e-08)
(1.77772 -2.5194e-07 6.05341e-08)
(1.75637 -4.38771e-07 8.09013e-08)
(1.71474 -7.70549e-07 1.29125e-07)
(1.63329 -1.63999e-06 2.02233e-07)
(1.52327 -3.87965e-06 1.03204e-07)
(1.41132 -6.47103e-06 -3.49823e-08)
(1.31257 -8.38746e-06 -8.18893e-08)
(1.25782 -9.95555e-06 1.83452e-08)
(1.27395 -1.12013e-05 7.0512e-08)
(1.35193 -6.53353e-06 9.61761e-08)
(1.46007 -4.65215e-06 7.40566e-08)
(1.5625 -1.86948e-05 7.25083e-08)
(1.6519 4.18425e-05 6.22634e-08)
(1.72781 -9.89978e-05 4.45742e-08)
(1.79265 0.000258192 3.22142e-08)
(1.8375 -4.02789e-05 1.51312e-08)
(1.84566 0.00317563 1.14595e-08)
(1.77915 0.0136072 6.62936e-09)
(1.49932 0.0455166 7.21866e-10)
(0.588435 0.146884 -6.57529e-09)
(0.0449835 0.343527 -7.25487e-09)
(-0.326832 0.256379 -1.70709e-09)
(0.412864 0.250943 -7.88102e-10)
(1.79097 1.76898e-05 8.57462e-08)
(1.79401 4.23606e-05 2.48888e-07)
(1.77786 0.000108618 2.87007e-07)
(1.75675 0.000197883 3.75597e-07)
(1.71536 0.000243832 5.63389e-07)
(1.63412 0.00014645 9.85202e-07)
(1.52433 -6.85802e-05 1.03086e-06)
(1.41254 -0.00026057 6.5875e-07)
(1.31376 -0.000320833 4.13339e-07)
(1.25863 -0.000229194 1.92148e-07)
(1.27438 -0.000180327 1.03324e-07)
(1.35217 -0.000106477 1.77183e-08)
(1.46018 -5.07974e-05 4.01003e-08)
(1.56258 -5.66472e-05 6.46004e-08)
(1.65188 5.55188e-05 6.56408e-08)
(1.72795 -0.00014288 5.63304e-08)
(1.7926 0.000351613 4.11784e-08)
(1.83901 -0.000144414 2.69466e-08)
(1.85222 0.00386756 2.07588e-08)
(1.7995 0.0165229 1.25163e-08)
(1.56521 0.0543844 3.42944e-09)
(0.762029 0.173427 -6.04728e-09)
(0.165882 0.435865 -7.0208e-09)
(-0.319488 0.337904 -2.22946e-09)
(0.405122 0.314541 -3.71065e-10)
(1.79093 -2.3852e-06 6.49766e-10)
(1.79395 -5.26097e-06 1.71671e-08)
(1.7778 -9.25374e-06 2.22253e-08)
(1.75666 -1.36849e-05 3.50052e-08)
(1.71524 -1.59895e-05 5.83416e-08)
(1.63399 -1.7277e-05 1.20978e-07)
(1.52428 -2.58131e-05 2.46409e-07)
(1.41257 -3.24397e-05 2.42044e-07)
(1.31386 -3.18872e-05 2.00327e-07)
(1.25874 -2.91786e-05 2.67559e-07)
(1.27446 -2.28531e-05 1.97077e-07)
(1.35223 -1.02427e-05 1.56635e-07)
(1.46019 5.93994e-06 1.08931e-07)
(1.56263 -3.90854e-05 8.93697e-08)
(1.65183 8.92396e-05 7.19241e-08)
(1.72811 -0.000143156 5.16323e-08)
(1.79257 0.000398328 3.49774e-08)
(1.8408 -3.96715e-05 1.78009e-08)
(1.85988 0.00441247 1.3324e-08)
(1.82281 0.0183315 7.19494e-09)
(1.63974 0.059304 7.53224e-10)
(0.984208 0.189319 -6.18567e-09)
(0.300173 0.518466 -6.9675e-09)
(-0.247161 0.451265 -1.98133e-09)
(0.368863 0.406107 -2.23528e-09)
(1.79098 -1.28647e-09 2.43394e-09)
(1.79401 -1.49273e-09 2.17203e-08)
(1.77784 -2.51464e-09 2.83251e-08)
(1.75668 -2.16252e-09 4.47647e-08)
(1.71525 5.03096e-09 7.82762e-08)
(1.63395 2.6439e-08 1.5236e-07)
(1.52413 4.25568e-08 3.28136e-07)
(1.41235 3.80367e-08 3.77006e-07)
(1.31362 6.93685e-08 3.44769e-07)
(1.25854 9.24638e-07 3.97155e-07)
(1.27434 -3.25329e-06 3.10126e-07)
(1.35216 5.50805e-07 2.40597e-07)
(1.46014 1.38006e-05 1.65578e-07)
(1.56265 -4.34065e-05 1.23484e-07)
(1.65177 9.88713e-05 8.63134e-08)
(1.72826 -0.00012442 5.83096e-08)
(1.79259 0.000397456 3.71115e-08)
(1.84275 0.00013471 1.89211e-08)
(1.86787 0.00456686 1.39946e-08)
(1.84669 0.0183708 7.10182e-09)
(1.71585 0.0577682 2.56181e-10)
(1.24024 0.182562 -6.32307e-09)
(0.462797 0.543328 -7.8818e-09)
(-0.104863 0.58813 -2.4104e-09)
(0.300844 0.544238 -2.28913e-09)
(1.79093 2.38698e-06 -3.52126e-10)
(1.79395 5.26757e-06 3.87035e-09)
(1.7778 9.25998e-06 5.08156e-09)
(1.75666 1.36935e-05 8.15452e-09)
(1.71524 1.60152e-05 1.34081e-08)
(1.63399 1.73665e-05 2.21295e-08)
(1.52428 2.59518e-05 1.04611e-07)
(1.41257 3.25569e-05 1.49529e-07)
(1.31387 3.22072e-05 1.62575e-07)
(1.25873 3.17555e-05 2.38518e-07)
(1.27446 1.56786e-05 2.12599e-07)
(1.35224 1.1319e-05 1.8526e-07)
(1.46015 2.04968e-05 1.31116e-07)
(1.56271 -3.98187e-05 9.42582e-08)
(1.65175 8.7234e-05 6.62227e-08)
(1.72841 -5.84454e-05 4.30688e-08)
(1.79269 0.000302814 2.56108e-08)
(1.84466 0.000493001 1.10644e-08)
(1.87538 0.00406115 7.26418e-09)
(1.86816 0.0170911 2.51473e-09)
(1.7817 0.0527164 -2.21106e-09)
(1.46731 0.160935 -6.37073e-09)
(0.697092 0.486901 -7.53334e-09)
(0.0876883 0.747326 -2.74222e-09)
(0.258508 0.780353 -2.70156e-09)
(1.79098 8.88625e-09 1.27616e-08)
(1.79401 -1.46131e-08 2.62662e-08)
(1.77784 -3.37553e-08 2.83838e-08)
(1.75669 -4.81848e-08 2.91644e-08)
(1.71526 -4.6759e-08 2.63637e-08)
(1.63398 -2.4109e-08 5.63153e-08)
(1.52417 -2.9159e-07 5.113e-08)
(1.41239 -1.29779e-06 1.24788e-07)
(1.31365 -1.5316e-06 1.32434e-07)
(1.25855 -9.01873e-07 1.63445e-07)
(1.27432 -7.89176e-07 1.73047e-07)
(1.35213 -6.72265e-07 1.69268e-07)
(1.46016 -8.74989e-07 1.07046e-07)
(1.56253 3.02661e-07 7.02443e-08)
(1.6519 -1.52904e-06 4.94042e-08)
(1.72779 4.08742e-06 3.85471e-08)
(1.79204 -6.90361e-06 3.39432e-08)
(1.83365 4.51997e-05 3.26433e-08)
(1.83255 0.000220178 2.85443e-08)
(1.73373 0.000768465 2.25625e-08)
(1.32523 0.00293097 1.09939e-08)
(0.207877 0.011739 4.32689e-08)
(-0.221429 0.0214556 -2.35353e-07)
(-0.282834 0.0191459 6.35118e-08)
(0.385485 0.0200772 -3.30973e-08)
(1.79098 8.66308e-09 1.3706e-08)
(1.79401 -1.62205e-08 4.04089e-08)
(1.77784 -3.63086e-08 4.73412e-08)
(1.75669 -5.06848e-08 6.01017e-08)
(1.71526 -4.76759e-08 8.24134e-08)
(1.63398 -1.67912e-08 1.7081e-07)
(1.52417 -3.21152e-07 2.4311e-07)
(1.41239 -1.4146e-06 3.15957e-07)
(1.31365 -1.67164e-06 2.75816e-07)
(1.25855 -9.69741e-07 2.75087e-07)
(1.27432 -9.70748e-07 2.14852e-07)
(1.35213 -4.45248e-07 1.71673e-07)
(1.46016 -1.65837e-06 9.69144e-08)
(1.56253 1.87533e-06 5.97483e-08)
(1.65191 -5.12774e-06 3.93727e-08)
(1.72778 1.32797e-05 3.22795e-08)
(1.79207 -2.32668e-05 2.97879e-08)
(1.83384 0.000153025 2.80265e-08)
(1.83318 0.000728504 2.40088e-08)
(1.73624 0.00250534 1.8244e-08)
(1.33697 0.00933228 2.53015e-08)
(0.230416 0.0364426 1.84637e-07)
(-0.207008 0.0680436 -1.66674e-07)
(-0.284078 0.0587573 7.23483e-08)
(0.387781 0.0618998 -1.97776e-07)
(1.79098 -3.31161e-09 5.44953e-09)
(1.79401 -1.0593e-08 2.72437e-08)
(1.77784 -1.5743e-08 3.27726e-08)
(1.75669 -2.02782e-08 4.50859e-08)
(1.71526 -2.75283e-08 7.16285e-08)
(1.63398 -4.07071e-08 1.25215e-07)
(1.52417 -1.20516e-07 2.43184e-07)
(1.41239 -2.58465e-07 2.46708e-07)
(1.31365 -2.96662e-07 2.01502e-07)
(1.25855 -1.42018e-07 2.05451e-07)
(1.27432 -5.30299e-07 1.15212e-07)
(1.35213 8.05487e-07 6.78853e-08)
(1.46016 -2.3225e-06 4.03355e-08)
(1.56253 4.46067e-06 2.34587e-08)
(1.65191 -9.65084e-06 1.28518e-08)
(1.72777 2.42429e-05 9.78052e-09)
(1.79217 -4.13191e-05 1.31033e-08)
(1.8343 0.000306994 1.04118e-08)
(1.83458 0.00140298 5.47027e-09)
(1.74165 0.00473314 -4.07466e-09)
(1.36121 0.0169122 -1.17553e-08)
(0.278208 0.062994 -4.80413e-08)
(-0.174667 0.123327 1.4744e-07)
(-0.288083 0.100583 8.43276e-08)
(0.392834 0.105916 -2.39504e-07)
(1.79098 -3.35665e-10 8.69516e-08)
(1.79401 1.48164e-10 2.39273e-07)
(1.77784 2.35659e-09 2.72126e-07)
(1.75669 5.8581e-09 3.45904e-07)
(1.71526 1.02746e-08 5.07595e-07)
(1.63398 2.03449e-08 8.50195e-07)
(1.52417 1.94304e-08 7.95121e-07)
(1.41239 -1.82137e-08 4.28917e-07)
(1.31365 -3.89275e-08 2.33768e-07)
(1.25855 1.31088e-07 -2.69818e-08)
(1.27432 -7.55314e-07 -7.21078e-08)
(1.35213 1.7181e-06 -1.22925e-07)
(1.46016 -3.49044e-06 -5.59002e-08)
(1.56253 5.88335e-06 -2.43727e-08)
(1.65193 -1.06234e-05 -1.21343e-08)
(1.72775 2.78265e-05 -4.66372e-09)
(1.79234 -4.4373e-05 5.92815e-09)
(1.8351 0.00049483 4.61052e-09)
(1.83698 0.00222337 7.88014e-10)
(1.75035 0.00746567 -1.28231e-08)
(1.39708 0.0256372 -3.40721e-08)
(0.351195 0.0903433 -1.56657e-07)
(-0.122542 0.187261 1.33492e-07)
(-0.297964 0.144318 2.14026e-07)
(0.400325 0.150334 -2.36778e-07)
(1.79098 1.61333e-08 1.04089e-08)
(1.79401 4.86371e-08 2.26745e-08)
(1.77784 8.76454e-08 2.33234e-08)
(1.75669 1.31374e-07 2.67494e-08)
(1.71526 1.7534e-07 3.55686e-08)
(1.63398 2.42338e-07 4.23395e-08)
(1.52417 3.5448e-07 -4.47282e-08)
(1.41239 3.82992e-07 -1.29444e-07)
(1.31365 3.26882e-07 -1.47731e-07)