/*--------------------------------*- C++ -*----------------------------------*\
| =========                 |                                                 |
| \\      /  F ield         | OpenFOAM: The Open Source CFD Toolbox           |
|  \\    /   O peration     | Version:  4.1                                   |
|   \\  /    A nd           | Web:      www.OpenFOAM.org                      |
|    \\/     M anipulation  |                                                 |
\*---------------------------------------------------------------------------*/
FoamFile
{
    version     2.0;
    format      ascii;
    class       volScalarField;
    location    "4.88";
    object      Ma;
}
// * * * * * * * * * * * * * * * * * * * * * * * * * * * * * * * * * * * * * //

dimensions      [0 0 0 0 0 0 0];

internalField   nonuniform List<scalar> 
52500
(
3.00002
2.99997
2.99991
2.99968
2.99936
2.99805
2.99617
2.98898
2.97694
2.93803
2.84905
2.64413
2.09981
1.26224
0.525982
0.278326
0.32917
0.344363
0.312179
0.257633
0.205267
0.163474
0.122411
0.0769448
0.0437787
3.00002
2.99997
2.99992
2.99969
2.99937
2.99808
2.99622
2.98914
2.97726
2.93892
2.85116
2.64895
2.11024
1.27623
0.533073
0.278105
0.330356
0.346326
0.314359
0.260589
0.20954
0.169257
0.130446
0.0902482
0.0664483
3.00002
2.99997
2.99992
2.9997
2.99939
2.99813
2.99633
2.98941
2.97792
2.9405
2.85563
2.65832
2.13555
1.3089
0.551517
0.281751
0.336177
0.353837
0.322643
0.270921
0.222802
0.185964
0.152056
0.120253
0.10454
3.00002
2.99997
2.99992
2.99971
2.99941
2.99821
2.99648
2.98984
2.9789
2.94294
2.86237
2.67264
2.17454
1.36047
0.579846
0.288261
0.345886
0.366389
0.33662
0.287871
0.243532
0.210955
0.182555
0.157767
0.146498
3.00002
2.99998
2.99993
2.99972
2.99944
2.99828
2.99665
2.99019
2.98011
2.94543
2.87254
2.69178
2.22989
1.43399
0.619905
0.301419
0.361265
0.384855
0.356502
0.311218
0.270643
0.242294
0.218773
0.199394
0.191179
3.00002
2.99998
2.99993
2.99974
2.99948
2.99839
2.99686
2.99074
2.98153
2.94855
2.8847
2.71481
2.29691
1.52841
0.671649
0.324994
0.384512
0.410042
0.382952
0.340902
0.304143
0.27973
0.261024
0.246587
0.241233
3.00002
2.99998
2.99994
2.99977
2.99952
2.99853
2.99713
2.99154
2.98314
2.95288
2.89646
2.73943
2.36912
1.63962
0.734068
0.363201
0.418922
0.443013
0.416967
0.378203
0.344679
0.32408
0.309844
0.300838
0.300696
3.00002
2.99999
2.99995
2.99979
2.99957
2.99867
2.9974
2.99232
2.98471
2.95708
2.90644
2.76231
2.42661
1.73244
0.790301
0.398845
0.448328
0.469509
0.449601
0.418314
0.390173
0.374677
0.366815
0.36559
0.375269
3.00002
2.99999
2.99996
2.99982
2.99962
2.99881
2.99768
2.99312
2.98635
2.96156
2.91587
2.78813
2.47504
1.84197
0.870462
0.455873
0.472445
0.485033
0.478719
0.457811
0.43833
0.430183
0.430882
0.443509
0.477581
3.00002
3
2.99997
2.99985
2.99969
2.99903
2.99805
2.99452
2.98821
2.96891
2.92373
2.81711
2.51782
1.95756
0.982036
0.527591
0.489377
0.502017
0.506462
0.495717
0.487679
0.489172
0.505469
0.547169
0.646801
3
2.99995
2.9999
2.99966
2.99934
2.99803
2.99615
2.98896
2.97692
2.93799
2.84901
2.64406
2.09973
1.26211
0.525845
0.278122
0.328984
0.344178
0.311972
0.25738
0.204945
0.163064
0.121854
0.0760432
0.0421496
3
2.99995
2.9999
2.99967
2.99935
2.99806
2.9962
2.98912
2.97724
2.93888
2.85113
2.64888
2.11016
1.2761
0.532938
0.277901
0.33017
0.346143
0.314154
0.26034
0.209227
0.168865
0.129929
0.0894902
0.0654021
3
2.99996
2.9999
2.99968
2.99937
2.99811
2.99631
2.98939
2.9779
2.94047
2.8556
2.65826
2.13547
1.30877
0.551386
0.281549
0.335995
0.353657
0.322444
0.270683
0.22251
0.18561
0.151618
0.119693
0.103888
3
2.99996
2.9999
2.99969
2.99939
2.99819
2.99646
2.98981
2.97888
2.94291
2.86233
2.67257
2.17447
1.36034
0.579719
0.288059
0.345706
0.366214
0.336428
0.287647
0.243265
0.210646
0.182194
0.157347
0.146041
3
2.99996
2.99991
2.99971
2.99942
2.99826
2.99663
2.99016
2.98008
2.94539
2.87253
2.69172
2.22985
1.43388
0.619807
0.301243
0.361105
0.384698
0.35633
0.311018
0.270409
0.242029
0.218477
0.199066
0.190834
3
2.99996
2.99992
2.99972
2.99946
2.99837
2.99684
2.99072
2.98151
2.94852
2.88468
2.71475
2.29686
1.52829
0.671551
0.324826
0.384362
0.409899
0.382797
0.340725
0.30394
0.279506
0.260781
0.246327
0.240965
3
2.99997
2.99992
2.99975
2.9995
2.99851
2.99711
2.99152
2.98312
2.95285
2.89643
2.73938
2.36907
1.63951
0.73397
0.363039
0.41878
0.442879
0.416825
0.378046
0.344505
0.323892
0.309645
0.300629
0.300486
3
2.99997
2.99993
2.99977
2.99955
2.99865
2.99738
2.9923
2.98469
2.95706
2.90641
2.76226
2.42657
1.73235
0.790221
0.398703
0.448205
0.46939
0.449474
0.418175
0.390023
0.374519
0.366652
0.365424
0.375106
3
2.99997
2.99994
2.9998
2.9996
2.99879
2.99766
2.9931
2.98633
2.96153
2.91584
2.78808
2.47501
1.84187
0.870381
0.455741
0.472333
0.484923
0.478605
0.457689
0.438201
0.43005
0.430748
0.443377
0.477459
3
2.99998
2.99995
2.99983
2.99967
2.99901
2.99803
2.9945
2.98819
2.96888
2.9237
2.81707
2.51778
1.95749
0.981957
0.527471
0.48927
0.501913
0.506357
0.495608
0.487567
0.48906
0.505359
0.547067
0.646715
3
2.99995
2.9999
2.99966
2.99934
2.99803
2.99615
2.98896
2.97692
2.93799
2.84901
2.64406
2.09973
1.26211
0.525844
0.278123
0.328984
0.344178
0.311973
0.257381
0.204946
0.163064
0.121855
0.0760437
0.0421501
3
2.99995
2.9999
2.99967
2.99935
2.99806
2.9962
2.98912
2.97724
2.93888
2.85113
2.64888
2.11016
1.2761
0.532936
0.277902
0.33017
0.346143
0.314154
0.260341
0.209227
0.168865
0.129929
0.0894905
0.0654026
3
2.99996
2.9999
2.99968
2.99937
2.99811
2.99631
2.98939
2.9779
2.94047
2.85559
2.65826
2.13547
1.30877
0.551384
0.28155
0.335995
0.353657
0.322444
0.270683
0.22251
0.18561
0.151618
0.119693
0.103888
3
2.99996
2.9999
2.99969
2.99939
2.99819
2.99646
2.98981
2.97888
2.94291
2.86233
2.67257
2.17447
1.36033
0.579717
0.28806
0.345706
0.366214
0.336428
0.287647
0.243265
0.210646
0.182194
0.157347
0.146042
3
2.99996
2.99991
2.99971
2.99942
2.99826
2.99663
2.99016
2.98008
2.94539
2.87253
2.69172
2.22985
1.43388
0.619804
0.301244
0.361105
0.384698
0.356329
0.311017
0.270408
0.242029
0.218477
0.199066
0.190835
3
2.99996
2.99992
2.99972
2.99946
2.99837
2.99684
2.99072
2.98151
2.94852
2.88467
2.71475
2.29685
1.52829
0.671549
0.324826
0.384362
0.409899
0.382796
0.340725
0.30394
0.279505
0.260781
0.246328
0.240966
3
2.99997
2.99992
2.99975
2.9995
2.99851
2.99711
2.99152
2.98312
2.95285
2.89643
2.73937
2.36906
1.6395
0.733968
0.363038
0.418779
0.442878
0.416825
0.378045
0.344504
0.323891
0.309644
0.300629
0.300487
3
2.99997
2.99993
2.99977
2.99955
2.99865
2.99738
2.9923
2.98469
2.95706
2.90641
2.76226
2.42657
1.73234
0.790219
0.398704
0.448205
0.469389
0.449473
0.418174
0.390022
0.374518
0.366651
0.365424
0.375106
3
2.99997
2.99994
2.9998
2.9996
2.99879
2.99766
2.9931
2.98633
2.96153
2.91584
2.78808
2.47501
1.84187
0.870379
0.455741
0.472334
0.484923
0.478605
0.457689
0.4382
0.430049
0.430748
0.443377
0.477459
3
2.99998
2.99995
2.99983
2.99967
2.99901
2.99803
2.9945
2.98819
2.96888
2.9237
2.81707
2.51778
1.95748
0.981954
0.527469
0.48927
0.501913
0.506357
0.495607
0.487566
0.489059
0.505358
0.547067
0.646715
3
2.99995
2.9999
2.99966
2.99934
2.99803
2.99615
2.98896
2.97692
2.93799
2.84901
2.64406
2.09973
1.26211
0.525844
0.278123
0.328984
0.344178
0.311973
0.257381
0.204946
0.163064
0.121855
0.0760438
0.0421501
3
2.99995
2.9999
2.99967
2.99935
2.99806
2.9962
2.98912
2.97724
2.93888
2.85113
2.64888
2.11016
1.2761
0.532936
0.277902
0.33017
0.346143
0.314154
0.260341
0.209227
0.168865
0.129929
0.0894905
0.0654026
3
2.99996
2.9999
2.99968
2.99937
2.99811
2.99631
2.98939
2.9779
2.94047
2.85559
2.65826
2.13547
1.30877
0.551384
0.28155
0.335995
0.353657
0.322444
0.270683
0.22251
0.18561
0.151618
0.119693
0.103888
3
2.99996
2.9999
2.99969
2.99939
2.99819
2.99646
2.98981
2.97888
2.94291
2.86233
2.67257
2.17447
1.36033
0.579717
0.28806
0.345706
0.366214
0.336428
0.287647
0.243265
0.210646
0.182194
0.157347
0.146042
3
2.99996
2.99991
2.99971
2.99942
2.99826
2.99663
2.99016
2.98008
2.94539
2.87253
2.69172
2.22985
1.43388
0.619804
0.301244
0.361105
0.384698
0.356329
0.311017
0.270408
0.242029
0.218477
0.199066
0.190835
3
2.99996
2.99992
2.99972
2.99946
2.99837
2.99684
2.99072
2.98151
2.94852
2.88467
2.71475
2.29685
1.52829
0.671549
0.324826
0.384362
0.409899
0.382796
0.340725
0.30394
0.279506
0.260781
0.246328
0.240966
3
2.99997
2.99992
2.99975
2.9995
2.99851
2.99711
2.99152
2.98312
2.95285
2.89643
2.73937
2.36906
1.6395
0.733968
0.363038
0.418779
0.442878
0.416825
0.378045
0.344504
0.323891
0.309644
0.30063
0.300487
3
2.99997
2.99993
2.99977
2.99955
2.99865
2.99738
2.9923
2.98469
2.95706
2.90641
2.76226
2.42657
1.73234
0.790219
0.398704
0.448205
0.469389
0.449473
0.418175
0.390022
0.374519
0.366652
0.365424
0.375106
3
2.99997
2.99994
2.9998
2.9996
2.99879
2.99766
2.9931
2.98633
2.96153
2.91584
2.78808
2.47501
1.84187
0.870379
0.455741
0.472334
0.484923
0.478605
0.457689
0.4382
0.430049
0.430748
0.443377
0.477459
3
2.99998
2.99995
2.99983
2.99967
2.99901
2.99803
2.9945
2.98819
2.96888
2.9237
2.81707
2.51778
1.95748
0.981954
0.527469
0.48927
0.501913
0.506357
0.495607
0.487566
0.489059
0.505359
0.547067
0.646715
3
2.99995
2.9999
2.99966
2.99934
2.99803
2.99615
2.98896
2.97692
2.93799
2.84901
2.64406
2.09973
1.26211
0.525844
0.278123
0.328984
0.344178
0.311973
0.257381
0.204946
0.163064
0.121855
0.0760437
0.0421501
3
2.99995
2.9999
2.99967
2.99935
2.99806
2.9962
2.98912
2.97724
2.93888
2.85113
2.64888
2.11016
1.2761
0.532936
0.277902
0.33017
0.346142
0.314154
0.260341
0.209227
0.168865
0.129929
0.0894905
0.0654026
3
2.99996
2.9999
2.99968
2.99937
2.99811
2.99631
2.98939
2.9779
2.94047
2.85559
2.65826
2.13547
1.30877
0.551384
0.28155
0.335995
0.353656
0.322444
0.270683
0.22251
0.18561
0.151618
0.119693
0.103888
3
2.99996
2.9999
2.99969
2.99939
2.99819
2.99646
2.98981
2.97888
2.94291
2.86233
2.67257
2.17447
1.36033
0.579717
0.28806
0.345706
0.366214
0.336428
0.287647
0.243265
0.210646
0.182194
0.157347
0.146042
3
2.99996
2.99991
2.99971
2.99942
2.99826
2.99663
2.99016
2.98008
2.94539
2.87253
2.69172
2.22985
1.43388
0.619804
0.301244
0.361105
0.384698
0.356329
0.311017
0.270408
0.242028
0.218477
0.199066
0.190835
3
2.99996
2.99992
2.99972
2.99946
2.99837
2.99684
2.99072
2.98151
2.94852
2.88467
2.71475
2.29685
1.52829
0.671549
0.324826
0.384362
0.409898
0.382796
0.340725
0.30394
0.279505
0.260781
0.246327
0.240966
3
2.99997
2.99992
2.99975
2.9995
2.99851
2.99711
2.99152
2.98312
2.95285
2.89643
2.73937
2.36906
1.6395
0.733968
0.363038
0.418779
0.442878
0.416824
0.378045
0.344504
0.323891
0.309644
0.300629
0.300486
3
2.99997
2.99993
2.99977
2.99955
2.99865
2.99738
2.9923
2.98469
2.95706
2.90641
2.76226
2.42657
1.73234
0.790219
0.398703
0.448205
0.469389
0.449473
0.418174
0.390022
0.374518
0.366651
0.365424
0.375106
3
2.99997
2.99994
2.9998
2.9996
2.99879
2.99766
2.9931
2.98633
2.96153
2.91584
2.78808
2.47501
1.84186
0.870379
0.45574
0.472333
0.484923
0.478605
0.457689
0.4382
0.430049
0.430748
0.443377
0.477458
3
2.99998
2.99995
2.99983
2.99967
2.99901
2.99803
2.9945
2.98819
2.96888
2.9237
2.81707
2.51778
1.95748
0.981954
0.527469
0.48927
0.501913
0.506357
0.495607
0.487566
0.489059
0.505358
0.547066
0.646714
3
2.99995
2.9999
2.99966
2.99934
2.99803
2.99615
2.98896
2.97692
2.93799
2.84901
2.64406
2.09973
1.26211
0.525844
0.278123
0.328984
0.344178
0.311973
0.257381
0.204946
0.163064
0.121855
0.0760437
0.0421501
3
2.99995
2.9999
2.99967
2.99935
2.99806
2.9962
2.98912
2.97724
2.93888
2.85113
2.64888
2.11016
1.2761
0.532936
0.277902
0.33017
0.346142
0.314154
0.260341
0.209227
0.168865
0.129929
0.0894904
0.0654026
3
2.99996
2.9999
2.99968
2.99937
2.99811
2.99631
2.98939
2.9779
2.94047
2.85559
2.65826
2.13547
1.30877
0.551384
0.28155
0.335995
0.353656
0.322444
0.270683
0.22251
0.18561
0.151618
0.119693
0.103888
3
2.99996
2.9999
2.99969
2.99939
2.99819
2.99646
2.98981
2.97888
2.94291
2.86233
2.67257
2.17447
1.36033
0.579717
0.28806
0.345706
0.366214
0.336428
0.287647
0.243265
0.210646
0.182194
0.157347
0.146042
3
2.99996
2.99991
2.99971
2.99942
2.99826
2.99663
2.99016
2.98008
2.94539
2.87253
2.69172
2.22985
1.43388
0.619804
0.301244
0.361105
0.384698
0.356329
0.311017
0.270408
0.242028
0.218477
0.199066
0.190835
3
2.99996
2.99992
2.99972
2.99946
2.99837
2.99684
2.99072
2.98151
2.94852
2.88467
2.71475
2.29685
1.52829
0.671549
0.324826
0.384362
0.409898
0.382796
0.340724
0.30394
0.279505
0.26078
0.246327
0.240966
3
2.99997
2.99992
2.99975
2.9995
2.99851
2.99711
2.99152
2.98312
2.95285
2.89643
2.73937
2.36906
1.6395
0.733967
0.363038
0.418779
0.442878
0.416824
0.378045
0.344504
0.323891
0.309644
0.300629
0.300486
3
2.99997
2.99993
2.99977
2.99955
2.99865
2.99738
2.9923
2.98469
2.95706
2.90641
2.76226
2.42657
1.73234
0.790219
0.398703
0.448205
0.469389
0.449473
0.418174
0.390022
0.374518
0.366651
0.365424
0.375106
3
2.99997
2.99994
2.9998
2.9996
2.99879
2.99766
2.9931
2.98633
2.96153
2.91584
2.78808
2.47501
1.84186
0.870378
0.45574
0.472333
0.484923
0.478605
0.457689
0.4382
0.430049
0.430747
0.443377
0.477458
3
2.99998
2.99995
2.99983
2.99967
2.99901
2.99803
2.9945
2.98819
2.96888
2.9237
2.81707
2.51778
1.95748
0.981954
0.527469
0.48927
0.501913
0.506357
0.495607
0.487566
0.489059
0.505358
0.547066
0.646714
3
2.99995
2.9999
2.99966
2.99934
2.99803
2.99615
2.98896
2.97692
2.93799
2.84901
2.64406
2.09973
1.26211
0.525844
0.278123
0.328984
0.344178
0.311973
0.257381
0.204946
0.163064
0.121855
0.0760438
0.0421501
3
2.99995
2.9999
2.99967
2.99935
2.99806
2.9962
2.98912
2.97724
2.93888
2.85113
2.64888
2.11016
1.2761
0.532936
0.277902
0.33017
0.346143
0.314154
0.260341
0.209227
0.168865
0.129929
0.0894905
0.0654026
3
2.99996
2.9999
2.99968
2.99937
2.99811
2.99631
2.98939
2.9779
2.94047
2.85559
2.65826
2.13547
1.30877
0.551384
0.28155
0.335995
0.353657
0.322444
0.270683
0.22251
0.18561
0.151618
0.119693
0.103888
3
2.99996
2.9999
2.99969
2.99939
2.99819
2.99646
2.98981
2.97888
2.94291
2.86233
2.67257
2.17447
1.36033
0.579717
0.28806
0.345706
0.366214
0.336428
0.287647
0.243265
0.210646
0.182194
0.157347
0.146042
3
2.99996
2.99991
2.99971
2.99942
2.99826
2.99663
2.99016
2.98008
2.94539
2.87253
2.69172
2.22985
1.43388
0.619804
0.301244
0.361105
0.384698
0.356329
0.311017
0.270408
0.242029
0.218477
0.199066
0.190835
3
2.99996
2.99992
2.99972
2.99946
2.99837
2.99684
2.99072
2.98151
2.94852
2.88467
2.71475
2.29685
1.52829
0.671549
0.324826
0.384362
0.409899
0.382796
0.340725
0.30394
0.279505
0.260781
0.246328
0.240966
3
2.99997
2.99992
2.99975
2.9995
2.99851
2.99711
2.99152
2.98312
2.95285
2.89643
2.73937
2.36906
1.6395
0.733968
0.363038
0.418779
0.442878
0.416825
0.378045
0.344504
0.323891
0.309644
0.300629
0.300487
3
2.99997
2.99993
2.99977
2.99955
2.99865
2.99738
2.9923
2.98469
2.95706
2.90641
2.76226
2.42657
1.73234
0.790219
0.398704
0.448205
0.469389
0.449473
0.418174
0.390022
0.374518
0.366651
0.365424
0.375106
3
2.99997
2.99994
2.9998
2.9996
2.99879
2.99766
2.9931
2.98633
2.96153
2.91584
2.78808
2.47501
1.84187
0.870379
0.455741
0.472334
0.484923
0.478605
0.457689
0.4382
0.430049
0.430748
0.443377
0.477459
3
2.99998
2.99995
2.99983
2.99967
2.99901
2.99803
2.9945
2.98819
2.96888
2.9237
2.81707
2.51778
1.95748
0.981954
0.527469
0.48927
0.501913
0.506357
0.495607
0.487566
0.489059
0.505358
0.547067
0.646715
3
2.99995
2.9999
2.99966
2.99934
2.99803
2.99615
2.98896
2.97692
2.93799
2.84901
2.64406
2.09973
1.26211
0.525844
0.278123
0.328984
0.344178
0.311973
0.257381
0.204946
0.163064
0.121855
0.0760437
0.0421501
3
2.99995
2.9999
2.99967
2.99935
2.99806
2.9962
2.98912
2.97724
2.93888
2.85113
2.64888
2.11016
1.2761
0.532936
0.277902
0.33017
0.346143
0.314154
0.260341
0.209227
0.168865
0.129929
0.0894905
0.0654026
3
2.99996
2.9999
2.99968
2.99937
2.99811
2.99631
2.98939
2.9779
2.94047
2.85559
2.65826
2.13547
1.30877
0.551384
0.28155
0.335995
0.353657
0.322444
0.270683
0.22251
0.18561
0.151618
0.119693
0.103888
3
2.99996
2.9999
2.99969
2.99939
2.99819
2.99646
2.98981
2.97888
2.94291
2.86233
2.67257
2.17447
1.36033
0.579717
0.28806
0.345706
0.366214
0.336428
0.287647
0.243265
0.210646
0.182194
0.157347
0.146042
3
2.99996
2.99991
2.99971
2.99942
2.99826
2.99663
2.99016
2.98008
2.94539
2.87253
2.69172
2.22985
1.43388
0.619804
0.301244
0.361105
0.384698
0.356329
0.311017
0.270408
0.242029
0.218477
0.199066
0.190835
3
2.99996
2.99992
2.99972
2.99946
2.99837
2.99684
2.99072
2.98151
2.94852
2.88467
2.71475
2.29685
1.52829
0.671549
0.324826
0.384362
0.409899
0.382796
0.340725
0.30394
0.279505
0.260781
0.246328
0.240966
3
2.99997
2.99992
2.99975
2.9995
2.99851
2.99711
2.99152
2.98312
2.95285
2.89643
2.73937
2.36906
1.6395
0.733968
0.363038
0.418779
0.442878
0.416825
0.378045
0.344504
0.323891
0.309644
0.300629
0.300487
3
2.99997
2.99993
2.99977
2.99955
2.99865
2.99738
2.9923
2.98469
2.95706
2.90641
2.76226
2.42657
1.73234
0.790219
0.398704
0.448205
0.469389
0.449473
0.418174
0.390022
0.374518
0.366651
0.365424
0.375106
3
2.99997
2.99994
2.9998
2.9996
2.99879
2.99766
2.9931
2.98633
2.96153
2.91584
2.78808
2.47501
1.84187
0.870379
0.455741
0.472334
0.484923
0.478605
0.457689
0.4382
0.430049
0.430748
0.443377
0.477459
3
2.99998
2.99995
2.99983
2.99967
2.99901
2.99803
2.9945
2.98819
2.96888
2.9237
2.81707
2.51778
1.95748
0.981954
0.527469
0.48927
0.501913
0.506357
0.495607
0.487566
0.489059
0.505358
0.547067
0.646715
3
2.99995
2.9999
2.99966
2.99934
2.99803
2.99615
2.98896
2.97692
2.93799
2.84901
2.64406
2.09973
1.26211
0.525845
0.278122
0.328984
0.344178
0.311972
0.25738
0.204945
0.163064
0.121854
0.0760432
0.0421496
3
2.99995
2.9999
2.99967
2.99935
2.99806
2.9962
2.98912
2.97724
2.93888
2.85113
2.64888
2.11016
1.2761
0.532938
0.277901
0.33017
0.346143
0.314154
0.26034
0.209227
0.168865
0.129929
0.0894902
0.0654021
3
2.99996
2.9999
2.99968
2.99937
2.99811
2.99631
2.98939
2.9779
2.94047
2.8556
2.65826
2.13547
1.30877
0.551386
0.281549
0.335995
0.353657
0.322444
0.270683
0.22251
0.18561
0.151618
0.119693
0.103888
3
2.99996
2.9999
2.99969
2.99939
2.99819
2.99646
2.98981
2.97888
2.94291
2.86233
2.67257
2.17447
1.36034
0.579719
0.288059
0.345706
0.366214
0.336428
0.287647
0.243265
0.210646
0.182194
0.157347
0.146041
3
2.99996
2.99991
2.99971
2.99942
2.99826
2.99663
2.99016
2.98008
2.94539
2.87253
2.69172
2.22985
1.43388
0.619807
0.301243
0.361105
0.384698
0.35633
0.311018
0.270409
0.242029
0.218477
0.199066
0.190834
3
2.99996
2.99992
2.99972
2.99946
2.99837
2.99684
2.99072
2.98151
2.94852
2.88468
2.71475
2.29686
1.52829
0.671551
0.324826
0.384362
0.409899
0.382797
0.340725
0.30394
0.279506
0.260781
0.246327
0.240965
3
2.99997
2.99992
2.99975
2.9995
2.99851
2.99711
2.99152
2.98312
2.95285
2.89643
2.73938
2.36907
1.63951
0.73397
0.363039
0.41878
0.442879
0.416825
0.378046
0.344505
0.323892
0.309645
0.300629
0.300486
3
2.99997
2.99993
2.99977
2.99955
2.99865
2.99738
2.9923
2.98469
2.95706
2.90641
2.76226
2.42657
1.73235
0.790221
0.398703
0.448205
0.46939
0.449474
0.418175
0.390023
0.374519
0.366652
0.365424
0.375106
3
2.99997
2.99994
2.9998
2.9996
2.99879
2.99766
2.9931
2.98633
2.96153
2.91584
2.78808
2.47501
1.84187
0.870381
0.455741
0.472333
0.484923
0.478605
0.457689
0.438201
0.43005
0.430748
0.443377
0.477459
3
2.99998
2.99995
2.99983
2.99967
2.99901
2.99803
2.9945
2.98819
2.96888
2.9237
2.81707
2.51778
1.95749
0.981957
0.527471
0.48927
0.501913
0.506357
0.495608
0.487567
0.48906
0.505359
0.547067
0.646715
3.00002
2.99997
2.99991
2.99968
2.99936
2.99805
2.99617
2.98898
2.97694
2.93803
2.84905
2.64413
2.09981
1.26224
0.525982
0.278326
0.32917
0.344363
0.312179
0.257633
0.205267
0.163474
0.122411
0.0769449
0.0437787
3.00002
2.99997
2.99992
2.99969
2.99937
2.99808
2.99622
2.98914
2.97726
2.93892
2.85116
2.64895
2.11024
1.27623
0.533073
0.278105
0.330356
0.346327
0.314359
0.260589
0.20954
0.169257
0.130446
0.0902482
0.0664484
3.00002
2.99997
2.99992
2.9997
2.99939
2.99813
2.99633
2.98941
2.97792
2.9405
2.85563
2.65832
2.13555
1.3089
0.551517
0.281751
0.336178
0.353837
0.322643
0.270921
0.222802
0.185964
0.152056
0.120253
0.10454
3.00002
2.99997
2.99992
2.99971
2.99941
2.99821
2.99648
2.98984
2.9789
2.94294
2.86237
2.67264
2.17454
1.36047
0.579846
0.288261
0.345886
0.366389
0.33662
0.287871
0.243532
0.210955
0.182555
0.157767
0.146498
3.00002
2.99998
2.99993
2.99972
2.99944
2.99828
2.99665
2.99019
2.98011
2.94543
2.87254
2.69178
2.22989
1.43399
0.619905
0.301419
0.361265
0.384855
0.356502
0.311218
0.270643
0.242294
0.218773
0.199394
0.191179
3.00002
2.99998
2.99993
2.99974
2.99948
2.99839
2.99686
2.99074
2.98153
2.94855
2.8847
2.71481
2.29691
1.52841
0.671649
0.324994
0.384512
0.410042
0.382952
0.340902
0.304143
0.27973
0.261024
0.246587
0.241233
3.00002
2.99998
2.99994
2.99977
2.99952
2.99853
2.99713
2.99154
2.98314
2.95288
2.89646
2.73943
2.36912
1.63962
0.734068
0.363201
0.418922
0.443013
0.416967
0.378203
0.34468
0.32408
0.309844
0.300838
0.300696
3.00002
2.99999
2.99995
2.99979
2.99957
2.99867
2.9974
2.99232
2.98471
2.95708
2.90644
2.76231
2.42661
1.73244
0.790301
0.398845
0.448329
0.469509
0.449601
0.418314
0.390173
0.374677
0.366815
0.36559
0.37527
3.00002
2.99999
2.99996
2.99982
2.99962
2.99881
2.99768
2.99312
2.98635
2.96156
2.91587
2.78813
2.47504
1.84197
0.870462
0.455874
0.472445
0.485033
0.47872
0.457811
0.43833
0.430183
0.430883
0.443509
0.477582
3.00002
3
2.99997
2.99985
2.99969
2.99903
2.99805
2.99452
2.98821
2.96891
2.92373
2.81711
2.51782
1.95756
0.982037
0.527592
0.489377
0.502017
0.506462
0.495717
0.487679
0.489173
0.505469
0.547169
0.646801
3.00002
3.00001
2.99996
2.9999
2.99965
2.99928
2.99785
2.99568
2.98788
2.97386
2.93112
2.82978
2.60415
2.02145
1.15962
0.616703
0.512702
0.525222
0.536249
0.534588
0.535941
0.549679
0.58749
0.670194
0.844949
3.00002
3.00001
2.99997
2.99991
2.99969
2.99938
2.99812
2.99631
2.9894
2.97785
2.94053
2.8556
2.65923
2.13997
1.32579
0.707736
0.535263
0.549747
0.567357
0.574469
0.584466
0.610627
0.665839
0.767792
0.950285
3.00002
3.00001
2.99998
2.99993
2.99974
2.99947
2.99837
2.99682
2.9906
2.98126
2.94809
2.88213
2.71151
2.28562
1.52528
0.816027
0.570712
0.583543
0.602102
0.615319
0.63166
0.665764
0.729044
0.829361
0.985022
3.00002
3.00001
2.99998
2.99995
2.99979
2.99956
2.99865
2.99737
2.99226
2.98463
2.95691
2.90685
2.76238
2.43873
1.75667
0.937813
0.626647
0.631262
0.645699
0.661705
0.680674
0.717165
0.778937
0.868234
0.997915
3.00002
3.00002
2.99999
2.99996
2.99983
2.99965
2.99893
2.99788
2.99381
2.98754
2.9655
2.92368
2.8088
2.52757
1.9434
1.05711
0.691147
0.671815
0.685878
0.703175
0.724557
0.760497
0.820746
0.899161
1.0072
3.00002
3.00002
3.00001
2.99996
2.9999
2.99967
2.99932
2.99799
2.99596
2.98879
2.97558
2.9366
2.84218
2.63521
2.0842
1.27078
0.795177
0.707338
0.719835
0.738067
0.76317
0.797744
0.85203
0.924557
1.01672
3.00002
3.00002
3.00001
2.99997
2.99993
2.99973
2.99945
2.99832
2.99672
2.99043
2.98069
2.94721
2.87754
2.70514
2.26704
1.51381
0.914935
0.74243
0.748387
0.767674
0.797721
0.83283
0.880932
0.945479
1.02564
3.00002
3.00002
3.00001
2.99999
2.99995
2.9998
2.99958
2.99871
2.99746
2.99259
2.98514
2.95873
2.91
2.77123
2.46146
1.79381
1.06922
0.802343
0.788666
0.802333
0.829432
0.865203
0.909387
0.966707
1.0364
3.00002
3.00002
3.00001
3
2.99996
2.99989
2.99962
2.99923
2.99771
2.99544
2.98716
2.97296
2.92841
2.82698
2.5991
2.0404
1.2482
0.876499
0.829975
0.84093
0.863535
0.896377
0.935208
0.985275
1.04644
3.00003
3.00002
3.00002
3.00001
2.99997
2.99992
2.99972
2.99943
2.99828
2.9966
2.99037
2.97973
2.94619
2.86986
2.69329
2.23441
1.48203
0.988486
0.868862
0.872562
0.89313
0.92556
0.962202
1.00527
1.05824
3.00003
3.00003
3.00002
3.00001
3
2.99994
2.99985
2.99951
2.999
2.99715
2.99407
2.98413
2.96314
2.90858
2.76608
2.47853
1.79958
1.16344
0.929893
0.911049
0.923105
0.950327
0.986299
1.02613
1.07165
3.00003
3.00003
3.00002
3.00002
3
2.99996
2.99989
2.99964
2.99927
2.99781
2.9957
2.98775
2.9746
2.93237
2.83826
2.62539
2.09617
1.35192
1.00714
0.951041
0.957933
0.978979
1.01065
1.04785
1.08892
3.00003
3.00003
3.00003
3.00002
3.00001
2.99999
2.99992
2.99981
2.9994
2.99878
2.99657
2.99269
2.98075
2.95399
2.88781
2.7111
2.36478
1.60554
1.13842
0.996815
0.991139
1.00379
1.03095
1.0664
1.10537
3.00003
3.00003
3.00003
3.00002
3.00001
3
2.99995
2.99987
2.99956
2.99911
2.99737
2.99485
2.98523
2.96991
2.92014
2.81696
2.56159
2.02226
1.32501
1.06844
1.03318
1.03756
1.05745
1.08804
1.12322
3.00003
3.00003
3.00003
3.00002
3.00002
3
2.99998
2.99989
2.99976
2.99927
2.99854
2.9958
2.99152
2.9769
2.9491
2.8725
2.68515
2.29447
1.55469
1.16654
1.0702
1.06727
1.08105
1.10763
1.1412
3.00003
3.00003
3.00003
3.00003
3.00002
3.00001
3
2.99994
2.99985
2.99951
2.99902
2.99711
2.99433
2.98407
2.96687
2.91366
2.79359
2.53135
1.93114
1.34516
1.13076
1.10427
1.11025
1.13097
1.16058
3.00003
3.00003
3.00003
3.00003
3.00002
3.00002
3
2.99998
2.99988
2.99974
2.9992
2.99841
2.99544
2.99082
2.97491
2.94558
2.86394
2.67508
2.25035
1.55748
1.21937
1.14219
1.13965
1.15321
1.17814
3.00003
3.00003
3.00003
3.00003
3.00003
3.00002
3.00001
2.99999
2.99993
2.99984
2.99948
2.99897
2.99698
2.99406
2.98338
2.96547
2.91039
2.78709
2.51617
1.91625
1.38758
1.199
1.17349
1.17931
1.19854
3.00003
3.00003
3.00003
3.00003
3.00003
3.00002
3.00002
3
2.99998
2.99988
2.99973
2.99919
2.99837
2.99539
2.99062
2.97465
2.94516
2.86043
2.6833
2.23476
1.60995
1.29442
1.21675
1.21052
1.21969
3.00003
3.00003
3.00003
3.00003
3.00003
3.00003
3.00002
3.00001
2.99999
2.99995
2.9998
2.99958
2.99876
2.99754
2.99306
2.98593
2.9623
2.91712
2.79766
2.52527
1.95647
1.44568
1.26963
1.24314
1.24625
3.00003
3.00003
3.00003
3.00003
3.00003
3.00003
3.00002
3.00002
3
2.99998
2.99988
2.99974
2.99922
2.99845
2.99555
2.99118
2.97573
2.94902
2.86982
2.70464
2.30193
1.68311
1.3645
1.28265
1.27385
3.00003
3.00003
3.00003
3.00003
3.00003
3.00003
3.00003
3.00002
3.00002
2.99999
2.99995
2.99982
2.99962
2.99887
2.99775
2.9937
2.98725
2.96596
2.92607
2.81772
2.58259
2.05691
1.53194
1.33662
1.30759
3.00003
3.00003
3.00003
3.00003
3.00003
3.00003
3.00003
3.00002
3.00002
3.00001
2.99998
2.9999
2.99977
2.9993
2.99862
2.99603
2.99222
2.97833
2.95568
2.88432
2.73924
2.3891
1.78314
1.43412
1.3403
3.00003
3.00003
3.00003
3.00003
3.00003
3.00003
3.00003
3.00003
3.00002
3.00001
3
2.99995
2.99988
2.99959
2.99919
2.99763
2.99538
2.98707
2.97399
2.93153
2.84925
2.63979
2.20333
1.63269
1.40578
3.00003
3.00003
3.00003
3.00003
3.00003
3.00003
3.00003
3.00003
3.00003
3.00002
3.00001
2.99998
2.99994
2.99976
2.99952
2.99858
2.99722
2.99212
2.98433
2.95787
2.90783
2.77951
2.4713
1.9045
1.52467
3.00003
3.00003
3.00003
3.00003
3.00003
3.00003
3.00003
3.00003
3.00003
3.00003
3.00002
3.00001
2.99996
2.9999
2.99967
2.99933
2.99808
2.99618
2.98952
2.97836
2.94402
2.87065
2.70284
2.30295
1.73499
3.00003
3.00003
3.00003
3.00003
3.00003
3.00003
3.00003
3.00003
3.00003
3.00003
3.00002
3.00001
3
2.99994
2.99985
2.99955
2.99908
2.9974
2.99479
2.98599
2.97038
2.92546
2.82368
2.60772
2.11135
3.00003
3.00003
3.00003
3.00003
3.00003
3.00003
3.00003
3.00003
3.00003
3.00003
3.00003
3.00002
3.00001
2.99999
2.99991
2.99979
2.99936
2.99872
2.99641
2.99277
2.98071
2.95866
2.89788
2.76471
2.45173
3.00003
3.00003
3.00003
3.00003
3.00003
3.00003
3.00003
3.00003
3.00003
3.00003
3.00003
3.00002
3.00002
3
2.99996
2.99989
2.99964
2.99928
2.99793
2.99595
2.98878
2.97739
2.94104
2.87055
2.69307
3.00003
3.00003
3.00003
3.00003
3.00003
3.00003
3.00003
3.00003
3.00003
3.00003
3.00003
3.00003
3.00002
3.00001
3
2.99994
2.99985
2.99953
2.99905
2.99734
2.99469
2.98562
2.97022
2.92494
2.82902
3.00003
3.00003
3.00003
3.00003
3.00003
3.00003
3.00003
3.00003
3.00003
3.00003
3.00003
3.00003
3.00003
3.00002
3.00001
2.99999
2.99991
2.99979
2.99937
2.99872
2.99647
2.99285
2.98112
2.9599
2.89953
3.00003
3.00003
3.00003
3.00003
3.00003
3.00003
3.00003
3.00003
3.00003
3.00003
3.00003
3.00003
3.00003
3.00002
3.00002
3
2.99997
2.99987
2.99971
2.99915
2.99829
2.99531
2.99051
2.97505
2.94693
3.00003
3.00003
3.00003
3.00003
3.00003
3.00003
3.00003
3.00003
3.00003
3.00003
3.00003
3.00003
3.00003
3.00003
3.00002
3.00001
2.99999
2.99993
2.99984
2.9995
2.999
2.99718
2.99443
2.9849
2.96925
3.00003
3.00003
3.00003
3.00003
3.00003
3.00003
3.00003
3.00003
3.00003
3.00003
3.00003
3.00003
3.00003
3.00003
3.00002
3.00002
3
2.99997
2.99988
2.99973
2.99919
2.99838
2.99546
2.99087
2.97541
3.00003
3.00003
3.00003
3.00003
3.00003
3.00003
3.00003
3.00003
3.00003
3.00003
3.00003
3.00003
3.00003
3.00003
3.00003
3.00002
3.00001
2.99998
2.99993
2.99973
2.99945
2.99838
2.99676
2.99084
2.98115
3.00003
3.00003
3.00003
3.00003
3.00003
3.00003
3.00003
3.00003
3.00003
3.00003
3.00003
3.00003
3.00003
3.00003
3.00003
3.00002
3.00001
2.99999
2.99992
2.99982
2.99944
2.99885
2.99681
2.99301
2.98184
3.00003
3.00003
3.00003
3.00003
3.00003
3.00003
3.00003
3.00003
3.00003
3.00003
3.00003
3.00003
3.00003
3.00003
3.00003
3.00002
3.00001
2.99998
2.99994
2.99977
2.99952
2.99853
2.99708
2.9915
2.9826
3.00003
3.00003
3.00003
3.00003
3.00003
3.00003
3.00003
3.00003
3.00003
3.00003
3.00003
3.00003
3.00003
3.00003
3.00003
3.00002
3.00001
2.99998
2.99994
2.99977
2.99953
2.99857
2.99715
2.99171
2.98291
3.00003
3.00003
3.00003
3.00003
3.00003
3.00003
3.00003
3.00003
3.00003
3.00003
3.00003
3.00003
3.00003
3.00003
3.00003
3.00002
3.00001
3
2.99993
2.99983
2.99946
2.99891
2.99688
2.99336
2.98223
3.00003
3.00003
3.00003
3.00003
3.00003
3.00003
3.00003
3.00003
3.00003
3.00003
3.00003
3.00003
3.00003
3.00003
3.00003
3.00002
3.00001
2.99999
2.99993
2.99983
2.99943
2.99888
2.99664
2.99334
2.98126
3
2.99999
2.99994
2.99988
2.99963
2.99926
2.99783
2.99566
2.98785
2.97384
2.93109
2.82975
2.60409
2.0214
1.15953
0.616594
0.512598
0.525122
0.53615
0.53449
0.535843
0.549583
0.5874
0.670116
0.844892
3
2.99999
2.99995
2.9999
2.99967
2.99936
2.9981
2.99629
2.98938
2.97783
2.9405
2.85557
2.65917
2.13992
1.32569
0.707637
0.535159
0.549647
0.567263
0.574378
0.584378
0.610543
0.665762
0.767726
0.950231
3
2.99999
2.99996
2.99991
2.99972
2.99945
2.99834
2.9968
2.99058
2.98124
2.94806
2.88211
2.71146
2.28559
1.52519
0.815948
0.570613
0.583446
0.602012
0.615234
0.631579
0.665688
0.728975
0.8293
0.984971
3
3
2.99997
2.99993
2.99977
2.99954
2.99863
2.99735
2.99224
2.98461
2.95688
2.90682
2.76233
2.43869
1.7566
0.937743
0.626555
0.631176
0.645618
0.661627
0.6806
0.717095
0.778874
0.868176
0.997864