/*--------------------------------*- C++ -*----------------------------------*\
| =========                 |                                                 |
| \\      /  F ield         | OpenFOAM: The Open Source CFD Toolbox           |
|  \\    /   O peration     | Version:  4.1                                   |
|   \\  /    A nd           | Web:      www.OpenFOAM.org                      |
|    \\/     M anipulation  |                                                 |
\*---------------------------------------------------------------------------*/
FoamFile
{
    version     2.0;
    format      ascii;
    class       surfaceScalarField;
    location    "0.02";
    object      phi;
}
// * * * * * * * * * * * * * * * * * * * * * * * * * * * * * * * * * * * * * //

dimensions      [1 0 -1 0 0 0 0];

internalField   nonuniform List<scalar> 
150500
(
0.00289507
-3.56753e-08
-5.42004e-11
0.00546971
-8.84544e-08
-5.63619e-11
0.00902726
-1.17217e-08
5.37949e-13
0.0103582
5.0168e-08
2.89894e-11
0.0108744
4.55343e-08
-6.01443e-12
0.0110814
2.48148e-08
-2.86232e-11
0.0111602
1.02388e-08
-3.94232e-11
0.0111878
3.81035e-09
-4.21919e-11
0.0111965
1.2012e-09
-4.27668e-11
0.0111991
3.51066e-10
-4.30245e-11
0.0111998
8.91717e-11
-4.30728e-11
0.0112
2.24874e-11
-4.30883e-11
0.0112
6.00964e-12
-4.31008e-11
0.0112
1.36977e-12
-4.3105e-11
0.0112
-5.84501e-13
-4.31052e-11
0.0112
-5.48365e-12
-4.31053e-11
0.0111999
-3.24168e-11
-4.3103e-11
0.0111991
-1.7265e-10
-4.30971e-11
0.011195
-7.57602e-10
-4.29957e-11
0.0111772
-2.83034e-09
-4.3011e-11
0.0111104
-9.75419e-09
-4.17999e-11
0.0109101
-2.01986e-08
-4.48442e-11
0.010247
-7.97462e-08
-4.2723e-11
0.0100916
9.81521e-08
-8.63634e-11
1.52699e-07
-3.48569e-10
0.00289507
-8.12934e-08
-6.92355e-11
0.00546983
-1.59005e-07
-6.8306e-11
0.00902737
-4.32806e-08
-4.27439e-12
0.0103582
1.05959e-07
1.34354e-11
0.0108744
9.75152e-08
-2.39687e-11
0.0110813
5.25524e-08
-4.46107e-11
0.0111602
2.50199e-08
-4.6155e-11
0.0111878
8.59744e-09
-4.5696e-11
0.0111965
2.8382e-09
-4.41326e-11
0.0111991
9.19772e-10
-4.5347e-11
0.0111998
2.46431e-10
-4.21888e-11
0.0112
7.35312e-11
-4.28813e-11
0.0112
1.78636e-11
-4.30845e-11
0.0112
3.29429e-12
-4.31044e-11
0.0112
-3.27246e-12
-4.31034e-11
0.0112
-2.64263e-11
-4.30914e-11
0.0111999
-1.44818e-10
-4.3032e-11
0.0111991
-7.03841e-10
-4.2789e-11
0.011195
-2.91757e-09
-4.19347e-11
0.0111772
-8.96456e-09
-3.99976e-11
0.0111104
-3.05526e-08
-3.65056e-11
0.0109101
-3.33113e-08
-3.62329e-11
0.0102472
-2.16719e-07
-4.83593e-11
0.0100915
3.33685e-07
-1.34787e-10
3.57635e-07
-6.58178e-10
0.00289496
-2.12233e-08
-1.48659e-09
0.00546979
-1.658e-08
-1.04632e-09
0.00902751
-2.74619e-08
-1.73269e-11
0.0103584
-5.02075e-09
-1.82163e-10
0.0108745
1.76914e-08
-1.11141e-10
0.0110814
1.71128e-08
-7.81407e-11
0.0111602
9.40012e-09
-4.38843e-11
0.0111878
4.98574e-09
-4.84731e-11
0.0111965
2.92139e-09
-4.56996e-11
0.0111991
1.00283e-10
-4.58603e-11
0.0111998
1.85722e-10
-4.2468e-11
0.0112
4.39693e-11
-4.30201e-11
0.0112
1.13931e-11
-4.31065e-11
0.0112
2.99559e-12
-4.31001e-11
0.0112
-2.66867e-14
-4.30787e-11
0.0112
-4.94575e-12
-4.29443e-11
0.0111999
-3.02047e-11
-4.2313e-11
0.0111991
-1.55535e-10
-3.98594e-11
0.011195
-6.97694e-10
-3.16641e-11
0.0111772
-2.50741e-09
-2.07887e-11
0.0111104
-8.95826e-09
1.46156e-11
0.0109108
-1.81446e-08
-7.84721e-11
0.010246
-7.3868e-08
1.84904e-10
0.0100866
1.06942e-07
-4.84628e-10
1.27836e-07
-1.9283e-09
0.00289529
-4.06358e-07
-4.6464e-11
0.00547017
-3.36087e-07
-3.02224e-11
0.00902722
-7.57035e-08
8.64616e-11
0.010358
1.57653e-07
-7.82217e-11
0.0108743
1.45898e-07
-1.3534e-10
0.0110813
8.28783e-08
-1.07142e-10
0.0111602
3.98835e-08
-7.54205e-11
0.0111878
1.496e-08
-5.48773e-11
0.0111965
4.99316e-09
-5.2761e-11
0.0111991
1.54597e-09
-4.14489e-11
0.0111998
4.38438e-10
-4.2928e-11
0.0112
1.25632e-10
-4.297e-11
0.0112
3.23425e-11
-4.30961e-11
0.0112
7.85807e-12
-4.30995e-11
0.0112
1.54891e-12
-4.30765e-11
0.0112
-4.22672e-13
-4.29352e-11
0.0111999
-2.43752e-12
-4.22652e-11
0.0111991
-1.89325e-12
-3.96656e-11
0.011195
-4.80917e-13
-3.09904e-11
0.0111772
-8.07389e-12
-1.92861e-11
0.0111104
8.97864e-11
1.73646e-11
0.0109108
-4.54046e-12
-7.75588e-11
0.0102461
-4.23451e-11
1.80133e-10
0.0100865
1.58501e-09
-5.30847e-10
5.24732e-09
-2.10281e-09
0.00289537
-1.0107e-06
-1.35674e-09
0.00547039
-4.88678e-07
-9.05875e-10
0.0090276
-8.81215e-08
6.53705e-11
0.0103584
9.83651e-08
-2.55997e-10
0.0108744
1.34734e-07
-2.00427e-10
0.0110813
9.01839e-08
-1.29826e-10
0.0111601
4.87472e-08
-6.91931e-11
0.0111877
1.93347e-08
-5.60292e-11
0.0111965
5.7323e-09
-5.36502e-11
0.0111991
2.58283e-09
-4.1783e-11
0.0111998
7.32026e-10
-4.30693e-11
0.0112
2.09489e-10
-4.30506e-11
0.0112
5.06503e-11
-4.31098e-11
0.0112
1.22293e-11
-4.31006e-11
0.0112
3.57855e-12
-4.30769e-11
0.0112
8.14487e-12
-4.29335e-11
0.0111999
4.53849e-11
-4.22635e-11
0.0111991
2.31656e-10
-3.96881e-11
0.011195
1.02397e-09
-3.11169e-11
0.0111772
3.69968e-09
-1.95847e-11
0.0111104
1.24252e-08
1.61455e-11
0.0109108
2.54505e-08
-7.93575e-11
0.0102461
9.10674e-08
1.76305e-10
0.0100864
-8.42101e-08
-5.34244e-10
2.37229e-07
-2.07855e-09
0.00289207
2.40374e-09
1.57463e-09
0.0054719
5.11032e-08
1.18125e-09
0.00903193
8.83134e-09
1.99596e-10
0.0103611
-2.57985e-08
-1.01544e-10
0.0108754
-2.16754e-08
-1.70064e-10
0.0110815
-1.00196e-08
-9.63247e-11
0.0111602
-3.55598e-09
-9.2252e-11
0.0111877
-9.70756e-10
-5.27714e-11
0.0111965
4.81495e-10
-4.42723e-11
0.0111991
-3.3997e-10
-4.31511e-11
0.0111998
-8.99535e-11
-4.31916e-11
0.0112
-3.26906e-11
-4.31197e-11
0.0112
-4.24514e-12
-4.3101e-11
0.0112
1.51495e-12
-4.30965e-11
0.0112
6.6886e-12
-4.30741e-11
0.0112
3.70976e-11
-4.29406e-11
0.0111999
1.90417e-10
-4.23085e-11
0.0111991
8.57316e-10
-3.9832e-11
0.011195
3.28996e-09
-3.16318e-11
0.0111772
9.63945e-09
-2.02307e-11
0.0111104
2.8864e-08
1.65317e-11
0.0109108
3.09782e-08
-7.25402e-11
0.0102461
1.93975e-07
1.93978e-10
0.0100865
7.53362e-08
-4.94636e-10
3.17976e-06
-1.86257e-09
0.00289229
6.325e-07
1.66806e-09
0.00547218
3.85728e-07
1.27548e-09
0.00903198
5.60797e-08
2.24931e-10
0.010361
-1.01431e-07
-1.35653e-10
0.0108753
-9.98563e-08
-2.02407e-10
0.0110815
-5.66037e-08
-1.13686e-10
0.0111601
-3.08635e-08
-1.01024e-10
0.0111877
-1.00952e-08
-5.47664e-11
0.0111965
-3.14604e-09
-5.04459e-11
0.0111991
-9.35852e-10
-3.86299e-11
0.0111998
-2.74167e-10
-4.35281e-11
0.0112
-7.64902e-11
-4.30646e-11
0.0112
-1.95755e-11
-4.30876e-11
0.0112
-7.23011e-12
-4.31084e-11
0.0112
-6.90474e-12
-4.3119e-11
0.0112
-3.27305e-11
-4.31831e-11
0.0111999
-1.65575e-10
-4.34561e-11
0.0111991
-7.1687e-10
-4.44169e-11
0.011195
-2.49326e-09
-4.66391e-11
0.0111772
-5.10052e-09
-5.03245e-11
0.0111104
-3.21417e-09
-5.16298e-11
0.0109099
7.35703e-08
-2.55203e-11
0.0102481
3.56152e-07
-9.95368e-11
0.0100911
2.36423e-06
-1.02514e-10
3.56877e-05
-6.18376e-10
0.00289582
-6.41822e-07
2.47456e-10
0.00547092
-3.9557e-07
2.62603e-10
0.00902729
-3.3484e-08
1.64958e-10
0.0103579
1.10348e-07
-2.54671e-10
0.0108742
9.26024e-08
-2.83185e-10
0.0110812
4.70217e-08
-1.76773e-10
0.0111601
2.49038e-08
-1.07725e-10
0.0111877
7.51943e-09
-6.40177e-11
0.0111965
2.25371e-09
-5.5349e-11
0.0111991
7.15915e-10
-4.20257e-11
0.0111998
2.10369e-10
-4.31765e-11
0.0112
5.49708e-11
-4.3014e-11
0.0112
1.51495e-11
-4.31163e-11
0.0112
4.40231e-12
-4.31031e-11
0.0112
1.47696e-12
-4.30806e-11
0.0112
8.01758e-12
-4.29516e-11
0.0111999
6.73206e-11
-4.23412e-11
0.0111991
5.11357e-10
-3.99544e-11
0.011195
3.47733e-09
-3.19116e-11
0.0111772
2.12745e-08
-2.11933e-11
0.0111105
1.16618e-07
1.45255e-11
0.010911
6.0031e-07
-7.69825e-11
0.0102472
2.89195e-06
1.88898e-10
0.010083
1.40901e-05
-5.01979e-10
0.000213079
-1.82391e-09
0.00289228
7.09719e-09
1.71265e-09
0.00547213
5.276e-09
1.32158e-09
0.00903196
3.96637e-08
2.45302e-10
0.010361
2.81573e-09
-1.82946e-10
0.0108754
-2.12114e-08
-2.46409e-10
0.0110815
-1.79578e-08
-1.3794e-10
0.0111602
-1.09049e-08
-1.12139e-10
0.0111877
-4.24715e-09
-5.89746e-11
0.0111965
-2.37488e-09
-5.16063e-11
0.0111991
2.01558e-11
-4.08606e-11
0.0111998
-1.36224e-10
-4.26182e-11
0.0112
-2.34275e-11
-4.28499e-11
0.0112
-5.80984e-12
-4.30699e-11
0.0112
1.07606e-12
-4.30952e-11
0.0112
1.72331e-11
-4.30742e-11
0.0112
1.27519e-10
-4.29424e-11
0.0111999
9.21629e-10
-4.23113e-11
0.0111991
6.20199e-09
-3.98426e-11
0.011195
3.85334e-08
-3.16178e-11
0.0111775
2.19246e-07
-2.0495e-11
0.0111116
1.14147e-06
1.52975e-11
0.0109147
5.44726e-06
-7.66928e-11
0.0102612
2.50285e-05
1.9136e-10
0.0100495
0.000106107
-4.86947e-10
0.0013825
-1.89239e-09
0.00289223
1.72226e-09
6.82665e-07
0.00547224
1.32764e-09
4.33889e-07
0.00903225
1.55167e-10
3.51606e-08
0.0103611
-1.84234e-10
-1.3478e-07
0.0108753
-2.07348e-10
-1.11226e-07
0.0110815
-1.17894e-10
-6.08886e-08
0.0111601
-9.99283e-11
-3.15118e-08
0.0111877
-5.59671e-11
-1.06927e-08
0.0111965
-4.57612e-11
-2.8262e-09
0.0111991
-4.55781e-11
-1.86219e-09
0.0111998
-4.23477e-11
-2.99086e-10
0.0112
-4.29326e-11
-9.99358e-11
0.0112
-4.30886e-11
-2.71743e-11
0.0112
-4.31038e-11
5.9894e-12
0.0112
-4.31026e-11
8.47604e-11
0.0112
-4.30966e-11
6.22731e-10
0.0111999
-4.30657e-11
4.51772e-09
0.0111991
-4.29438e-11
3.01446e-08
0.0111953
-4.25376e-11
1.83123e-07
0.0111786
-4.17565e-11
1.00842e-06
0.0111157
-4.03247e-11
4.99671e-06
0.0109275
-4.21654e-11
2.24047e-05
0.0103095
-3.95108e-11
9.62208e-05
0.0100167
-8.66251e-11
0.000393265
-1.4871e-09
0.00471902
0.00289523
-3.39473e-07
6.20967e-11
0.00547002
-2.2837e-07
7.21487e-11
0.00902734
-4.55926e-08
6.12409e-11
0.0103581
9.05844e-08
-7.79599e-11
0.0108743
9.3349e-08
-9.24246e-11
0.0110813
5.49739e-08
-5.0647e-11
0.0111602
2.52593e-08
-1.82413e-11
0.0111878
9.93213e-09
-7.66475e-12
0.0111965
3.2237e-09
-2.27354e-12
0.0111991
6.87639e-10
-2.59371e-12
0.0111998
3.73414e-10
7.47866e-13
0.0112
9.97603e-11
1.32498e-13
0.0112
2.11791e-11
-2.49926e-14
0.0112
4.75654e-12
-3.6226e-14
0.0112
1.02054e-12
-3.65132e-14
0.0112
1.8369e-13
-3.62419e-14
0.0111999
4.00792e-14
-3.59503e-14
0.0111991
-3.55492e-14
-3.55701e-14
0.011195
-2.98556e-13
-3.56547e-14
0.0111772
-1.3249e-12
-3.54698e-14
0.0111104
-3.86715e-12
-3.49608e-14
0.01091
-1.78865e-11
-3.49863e-14
0.0102469
7.68969e-12
-3.67288e-14
0.0100915
-5.66298e-12
-6.1292e-14
5.31788e-10
-5.54223e-13
0.00289526
-7.02606e-07
9.64997e-11
0.00547008
-4.52383e-07
9.70805e-11
0.00902735
-6.13869e-08
2.30423e-11
0.0103582
1.41849e-07
-8.85529e-11
0.0108744
1.32292e-07
-5.70991e-11
0.0110813
7.29363e-08
-1.63536e-11
0.0111602
3.67405e-08
-7.64637e-12
0.0111878
1.19867e-08
-1.64115e-12
0.0111965
3.77508e-09
-2.69901e-13
0.0111991
1.10843e-09
-9.32939e-14
0.0111998
2.97266e-10
-3.61443e-14
0.0112
7.87343e-11
-3.4561e-14
0.0112
2.09285e-11
-3.53371e-14
0.0112
5.37674e-12
-3.57828e-14
0.0112
1.05134e-12
-3.5789e-14
0.0112
1.97345e-13
-3.58353e-14
0.0111999
9.45622e-14
-3.58521e-14
0.0111991
-3.30763e-13
-3.56794e-14
0.011195
-1.38691e-12
-3.51457e-14
0.0111772
-4.20967e-12
-3.37749e-14
0.0111104
-1.37346e-11
-3.16055e-14
0.01091
-1.97379e-11
-3.07015e-14
0.0102469
-2.95067e-11
-4.45624e-14
0.0100915
4.0145e-11
-1.07604e-13
1.29808e-09
-1.21818e-12
0.00289212
1.46792e-07
1.96828e-09
0.005472
1.11205e-07
1.49143e-09
0.00903215
1.06002e-08
1.39094e-10
0.0103611
-2.78137e-09
-2.04008e-10
0.0108753
-4.80372e-09
-1.64262e-10
0.0110815
-9.42237e-10
-4.83904e-11
0.0111602
-2.40322e-09
-4.41656e-11
0.0111877
-6.48563e-12
-4.99217e-12
0.0111965
1.34813e-10
2.66878e-13
0.0111991
5.10452e-11
3.06666e-13
0.0111998
1.58869e-11
1.04321e-13
0.0112
7.61742e-12
5.73127e-14
0.0112
1.22045e-12
-1.89733e-14
0.0112
1.22537e-13
-3.37814e-14
0.0112
1.41855e-13
-3.39291e-14
0.0112
3.51137e-14
-3.52458e-14
0.0111999
-9.84129e-14
-3.61369e-14
0.0111991
-8.24718e-14
-3.40801e-14
0.011195
-4.1375e-13
-2.99048e-14
0.0111772
-1.06875e-12
-2.13087e-14
0.0111104
-3.91874e-12
-9.61909e-15
0.01091
-5.80423e-12
-2.18049e-14
0.0102469
-1.28903e-12
-9.71241e-14
0.0100915
1.56016e-10
-3.76e-13
3.14503e-09
-2.95592e-12
0.00289523
-1.47061e-07
7.95886e-11
0.00547012
-1.11374e-07
6.09871e-11
0.0090274
-1.0485e-08
-1.72219e-11
0.0103582
2.93079e-09
-1.85412e-11
0.0108744
4.87227e-09
1.31804e-11
0.0110813
9.37802e-10
1.89946e-11
0.0111602
2.37769e-09
9.50635e-12
0.0111878
-1.92771e-11
4.87891e-12
0.0111965
-1.4769e-10
1.70483e-12
0.0111991
-5.76832e-11
2.39561e-12
0.0111998
-1.89268e-11
-8.51493e-13
0.0112
-8.86179e-12
-2.10987e-13
0.0112
-1.58661e-12
-4.76256e-14
0.0112
-2.16648e-13
-3.56391e-14
0.0112
-1.66576e-13
-3.52082e-14
0.0112
-4.45765e-14
-3.53723e-14
0.0111999
7.16798e-14
-3.53123e-14
0.0111991
1.99518e-14
-3.41194e-14
0.011195
2.03041e-13
-2.88299e-14
0.0111772
9.83916e-13
-2.0332e-14
0.0111104
6.19699e-12
-7.28971e-15
0.01091
4.00755e-11
-2.05573e-14
0.0102469
2.36149e-10
-1.05634e-13
0.0100915
1.6947e-09
-4.20932e-13
3.03964e-08
-3.55762e-12
0.00289212
7.0247e-07
1.89963e-09
0.00547201
4.52531e-07
1.41939e-09
0.00903215
6.17607e-08
1.29578e-10
0.0103611
-1.41958e-07
-1.29937e-10
0.0108753
-1.32769e-07
-1.1018e-10
0.0110815
-7.34067e-08
-2.96404e-11
0.0111602
-3.70346e-08
-3.48562e-11
0.0111877
-1.21288e-08
-4.73091e-12
0.0111965
-3.83216e-09
9.76668e-14
0.0111991
-1.13043e-09
2.10234e-13
0.0111998
-3.05726e-10
5.65318e-14
0.0112
-8.20561e-11
2.96993e-14
0.0112
-2.17959e-11
-2.39474e-14
0.0112
-5.5775e-12
-3.43489e-14
0.0112
-1.11265e-12
-3.42464e-14
0.0112
-2.1676e-13
-3.52921e-14
0.0111999
-8.59861e-14
-3.6066e-14
0.0111991
4.42401e-13
-3.38989e-14
0.011195
2.99378e-12
-2.9439e-14
0.0111772
1.92813e-11
-2.02785e-14
0.0111104
1.12262e-10
-8.02343e-15
0.01091
6.63064e-10
-2.07565e-14
0.0102469
3.67871e-09
-1.07294e-13
0.0100915
2.34506e-08
-4.21877e-13
4.07508e-07
-3.54203e-12
0.00289526
3.45751e-07
-1.49982e-09
0.00547008
2.36346e-07
-1.09758e-09
0.00902735
5.04869e-08
-6.12084e-11
0.0103582
-9.43887e-08
-1.44634e-11
0.0108744
-9.99539e-08
4.99256e-12
0.0110813
-6.01248e-08
-1.54835e-11
0.0111602
-2.81124e-08
1.32457e-11
0.0111878
-1.11851e-08
-8.6434e-13
0.0111965
-3.70391e-09
-2.43676e-12
0.0111991
-8.70499e-10
-1.06781e-12
0.0111998
-4.39174e-10
-4.51484e-13
0.0112
-1.13043e-10
-2.586e-13
0.0112
-2.48985e-11
-7.39361e-14
0.0112
-5.77881e-12
-4.0449e-14
0.0112
-1.26724e-12
-3.89325e-14
0.0112
-1.67688e-13
-3.64275e-14
0.0111999
6.46119e-13
-3.46113e-14
0.0111991
4.95191e-12
-3.36214e-14
0.011195
3.29789e-11
-2.81045e-14
0.0111772
2.03729e-10
-2.05421e-14
0.0111104
1.15677e-09
-6.52952e-15
0.01091
6.56986e-09
-1.70673e-14
0.0102469
3.46963e-08
-8.87727e-14
0.0100915
2.03523e-07
-3.75776e-13
3.3887e-06
-3.29332e-12
0.00289522
3.2417e-08
-2.59744e-11
0.00547
3.12735e-08
-1.91828e-11
0.00902735
1.20303e-08
2.37921e-11
0.0103581
-2.09712e-08
6.63041e-12
0.0108743
-2.42464e-08
-2.79079e-11
0.0110813
-1.49304e-08
-2.47734e-11
0.0111602
-7.1275e-09
-1.33229e-11
0.0111878
-2.7473e-09
-6.04168e-12
0.0111965
-9.28586e-10
-2.03416e-12
0.0111991
-5.28128e-10
-2.50859e-12
0.0111998
1.74044e-11
7.41975e-13
0.0112
5.31067e-12
1.24234e-13
0.0112
-2.70927e-12
-2.6715e-14
0.0112
-1.08645e-12
-3.64513e-14
0.0112
-2.05902e-13
-3.66609e-14
0.0112
1.05515e-12
-3.63163e-14
0.0111999
9.2986e-12
-3.60955e-14
0.0111991
6.94523e-11
-3.61529e-14
0.011195
4.69041e-10
-3.71786e-14
0.0111772
2.85097e-09
-3.84292e-14
0.0111104
1.6116e-08
-3.97926e-14
0.0109101
8.66483e-08
-3.61998e-14
0.0102471
4.34844e-07
-6.4729e-14
0.010091
2.25544e-06
-1.18023e-13
3.5464e-05
-1.23843e-12
0.00289505
5.99717e-09
-4.47223e-11
0.00546971
7.92528e-09
-5.28005e-11
0.00902733
4.61846e-09
-4.64413e-11
0.0103582
-4.02223e-09
5.01686e-11
0.0108744
-6.92085e-09
6.09147e-11
0.0110814
-5.23942e-09
3.62115e-11
0.0111602
-2.86114e-09
1.69954e-11
0.0111878
-1.26303e-09
6.23793e-12
0.0111965
-4.84372e-10
1.79959e-12
0.0111991
-1.86048e-10
2.34845e-12
0.0111998
-6.45444e-11
-8.59651e-13
0.0112
-1.33814e-11
-2.23455e-13
0.0112
-3.74895e-12
-5.00406e-14
0.0112
-8.55543e-13
-3.58848e-14
0.0112
1.23246e-12
-3.54053e-14
0.0112
1.14075e-11
-3.54399e-14
0.0111999
8.63312e-11
-3.53254e-14
0.0111991
6.01026e-10
-3.4259e-14
0.011195
3.84622e-09
-2.92396e-14
0.0111772
2.26245e-08
-2.13593e-14
0.0111104
1.2035e-07
-9.12872e-15
0.0109103
6.08575e-07
-2.12972e-14
0.0102482
2.91011e-06
-1.00152e-13
0.010088
1.41047e-05
-4.0342e-13
0.000212966
-3.3664e-12
0.00289505
3.07909e-10
-5.15843e-12
0.00546969
4.65317e-10
-6.29867e-12
0.00902733
4.70384e-10
-5.74251e-12
0.0103583
-2.98491e-10
1.01429e-11
0.0108744
-6.3465e-10
1.07201e-11
0.0110814
-5.24916e-10
5.76499e-12
0.0111602
-2.9529e-10
2.41607e-12
0.0111878
-1.29565e-10
7.26296e-13
0.0111965
-4.87814e-11
1.54681e-13
0.0111991
-1.77193e-11
5.65677e-14
0.0111998
-6.65379e-12
-2.7801e-14
0.0112
-2.48922e-12
-3.07465e-14
0.0112
-7.37797e-13
-3.55443e-14
0.0112
1.86011e-12
-3.59827e-14
0.0112
1.48403e-11
-3.59264e-14
0.0112
1.10621e-10
-3.58126e-14
0.0111999
8.22616e-10
-3.54132e-14
0.0111991
5.74898e-09
-3.40787e-14
0.011195
3.69083e-08
-2.93608e-14
0.0111775
2.1327e-07
-2.20718e-14
0.0111116
1.12069e-06
-1.1802e-14
0.010914
5.42549e-06
-3.31846e-14
0.0102622
2.4868e-05
-1.42097e-13
0.0100545
0.000106428
-5.61545e-13
0.00138216
-4.77709e-12
0.00289504
-4.72418e-11
-2.60691e-10
0.00546969
-5.62289e-11
-3.91632e-10
0.00902733
-5.07385e-11
-4.34729e-10
0.0103583
5.5787e-11
2.85019e-10
0.0108744
6.7754e-11
5.88992e-10
0.0110814
4.02575e-11
4.99246e-10
0.0111602
1.88452e-11
2.80888e-10
0.0111878
6.88568e-12
1.23661e-10
0.0111965
1.99345e-12
4.63883e-11
0.0111991
2.43333e-12
1.677e-11
0.0111998
-8.41472e-13
6.2774e-12
0.0112
-2.13328e-13
2.48039e-12
0.0112
-4.842e-14
-4.49894e-13
0.0112
-3.57021e-14
1.35346e-11
0.0112
-3.5324e-14
8.53932e-11
0.0112
-3.55325e-14
6.17591e-10
0.0111999
-3.58342e-14
4.4869e-09
0.0111991
-3.62507e-14
2.99741e-08
0.0111953
-3.61179e-14
1.82343e-07
0.0111786
-3.73202e-14
1.00541e-06
0.0111157
-4.28313e-14
4.98551e-06
0.0109275
-7.35057e-14
2.23836e-05
0.0103094
-1.85618e-13
9.61256e-05
0.0100163
-6.34081e-13
0.000393402
-5.55409e-12
0.0047199
0.00289504
-4.72553e-10
-4.20058e-14
0.00546968
-5.9442e-10
-3.33939e-14
0.00902733
-5.705e-10
-8.95917e-14
0.0103583
3.43386e-10
2.04424e-13
0.0108744
7.18533e-10
6.03755e-14
0.0110814
5.97608e-10
-4.94783e-14
0.0111602
3.47931e-10
-5.19449e-14
0.0111878
1.57354e-10
-3.42264e-14
0.0111965
6.05604e-11
-1.48469e-14
0.0111991
2.25032e-11
-6.1044e-15
0.0111998
8.50757e-12
-2.41577e-15
0.0112
3.19651e-12
-1.39602e-15
0.0112
8.21845e-13
-3.33406e-16
0.0112
1.86863e-13
-6.81455e-17
0.0112
5.60342e-14
-4.23711e-17
0.0112
1.32143e-14
-1.58294e-17
0.0111999
3.28074e-15
-2.31579e-18
0.0111991
8.75157e-15
-2.1745e-17
0.011195
5.67885e-14
-1.78437e-16
0.0111772
-1.19532e-13
-9.53289e-16
0.0111104
8.63907e-13
-2.82697e-15
0.01091
-8.38422e-12
-7.43834e-15
0.0102469
3.07496e-11
-1.52376e-14
0.0100915
-1.05268e-11
-2.15614e-14
5.74764e-11
3.12322e-13
0.00289504
-6.25958e-09
5.28888e-13
0.00546969
-8.07676e-09
9.53878e-13
0.00902733
-4.51965e-09
1.58671e-12
0.0103583
4.1584e-09
-6.82818e-13
0.0108744
6.95518e-09
-1.74885e-12
0.0110814
5.20818e-09
-1.44515e-12
0.0111602
2.82672e-09
-8.33451e-13
0.0111878
1.23994e-09
-3.78659e-13
0.0111965
4.73119e-10
-1.41107e-13
0.0111991
1.81168e-10
-5.28566e-14
0.0111998
6.24774e-11
-2.26151e-14
0.0112
1.26243e-11
-1.20313e-14
0.0112
3.50255e-12
-2.43463e-15
0.0112
9.59097e-13
-3.81754e-16
0.0112
2.43618e-13
-2.13571e-16
0.0112
6.27028e-14
-5.80421e-17
0.0111999
1.86564e-14
-4.31165e-17
0.0111991
3.87716e-15
-2.25311e-16
0.011195
8.2304e-15
-9.60064e-16
0.0111772
2.27231e-14
-3.02916e-15
0.0111104
5.47966e-14
-6.97806e-15
0.01091
-6.65035e-13
-1.23547e-14
0.0102469
5.93386e-12
-8.8315e-15
0.0100915
1.02329e-11
3.08147e-14
1.92454e-10
1.23668e-12
0.00289505
-3.13426e-08
3.56333e-12
0.00546971
-3.0103e-08
4.53878e-12
0.00902733
-1.13027e-08
5.098e-12
0.0103582
2.03457e-08
-6.27453e-12
0.0108744
2.32235e-08
-7.27105e-12
0.0110814
1.41774e-08
-4.73146e-12
0.0111602
6.71768e-09
-1.94101e-12
0.0111878
2.57148e-09
-6.76074e-13
0.0111965
8.62713e-10
-2.01143e-13
0.0111991
5.03402e-10
-8.79242e-14
0.0111998
-2.56959e-11
-1.95378e-14
0.0112
-8.36066e-12
-1.20389e-14
0.0112
1.89742e-12
-1.82533e-15
0.0112
9.08857e-13
-2.13182e-16
0.0112
2.93419e-13
-1.40371e-16
0.0112
9.62039e-14
-1.6395e-16
0.0111999
2.39139e-14
-6.58863e-16
0.0111991
-2.05001e-14
-2.54505e-15
0.011195
1.5683e-16
-8.77067e-15
0.0111772
5.63858e-14
-1.98745e-14
0.0111104
3.73175e-13
-3.70563e-14
0.01091
3.08152e-12
-2.4213e-14
0.0102469
1.82378e-11
4.92844e-14
0.0100915
1.51001e-10
3.7392e-13
2.79345e-09
3.86535e-12
0.00289522
-3.35718e-07
6.31851e-11
0.00546999
-2.25154e-07
7.04685e-11
0.00902734
-4.49654e-08
4.88039e-11
0.0103581
8.92363e-08
-6.85008e-11
0.0108743
9.20657e-08
-7.30953e-11
0.0110813
5.43689e-08
-4.012e-11
0.0111602
2.5067e-08
-1.82824e-11
0.0111878
9.88796e-09
-6.53213e-12
0.0111965
3.21931e-09
-1.88457e-12
0.0111991
6.96605e-10
-2.41009e-12
0.0111998
3.80867e-10
8.57763e-13
0.0112
9.50138e-11
1.905e-13
0.0112
1.99185e-11
1.4457e-14
0.0112
4.53865e-12
1.36234e-16
0.0112
9.97981e-13
-4.07873e-16
0.0112
1.87021e-13
-4.64573e-16
0.0111999
5.67078e-14
-7.41117e-16
0.0111991
7.02072e-14
-2.26865e-15
0.011195
1.89264e-13
-8.47521e-15
0.0111772
1.03651e-12
-1.92817e-14
0.0111104
6.31535e-12
-3.61316e-14
0.01091
4.03993e-11
-2.31955e-14
0.0102469
2.36573e-10
5.02596e-14
0.0100915
1.69529e-09
3.82096e-13
3.03795e-08
4.0584e-12
0.00289525
-6.66053e-07
7.51156e-11
0.00547006
-4.20227e-07
7.71547e-11
0.00902736
-5.21907e-08
1.89177e-11
0.0103582
1.19023e-07
-6.32548e-11
0.0108744
1.07749e-07
-4.02268e-11
0.0110813
5.85404e-08
-1.4487e-11
0.0111602
3.01788e-08
-6.2117e-12
0.0111878
9.51101e-09
-9.02451e-13
0.0111965
2.9484e-09
-2.0463e-14
0.0111991
8.27949e-10
1.34485e-14
0.0111998
2.09796e-10
3.01695e-14
0.0112
4.90313e-11
1.94031e-14
0.0112
1.43146e-11
3.36689e-15
0.0112
4.03236e-12
3.97997e-16
0.0112
7.03577e-13
2.30277e-16
0.0112
1.50947e-13
6.8558e-17
0.0111999
2.05475e-13
1.05849e-16
0.0111991
4.05335e-13
4.7859e-16
0.011195
2.68686e-12
1.33833e-15
0.0111772
1.76073e-11
2.29502e-15
0.0111104
1.08824e-10
4.00378e-15
0.01091
6.59431e-10
-4.05017e-15
0.0102469
3.64706e-09
1.49538e-14
0.0100915
2.34493e-08
2.03065e-14
4.07681e-07
6.57672e-13
0.00289183
6.66419e-07
1.82032e-09
0.00547158
4.20294e-07
1.32476e-09
0.00903216
5.19738e-08
8.44691e-11
0.0103612
-1.19259e-07
-5.58566e-11
0.0108755
-1.07808e-07
-5.32925e-11
0.0110816
-5.85012e-08
-3.60298e-12
0.0111602
-3.01288e-08
-2.0936e-11
0.0111878
-9.47818e-09
2.81624e-12
0.0111965
-2.93218e-09
2.23302e-12
0.0111991
-8.2096e-10
9.749e-13
0.0111998
-2.06894e-10
4.36401e-13
0.0112
-4.78989e-11
2.24145e-13
0.0112
-1.39716e-11
3.86251e-14
0.0112
-3.93964e-12
4.66926e-15
0.0112
-6.70511e-13
3.16249e-15
0.0112
-6.81373e-14
7.23857e-16
0.0111999
5.18715e-13
-5.90912e-16
0.0111991
4.7254e-12
4.58175e-16
0.011195
3.17915e-11
1.43083e-15
0.0111772
2.01725e-10
4.71121e-15
0.0111104
1.15194e-09
8.87383e-15
0.01091
6.55676e-09
3.23004e-15
0.0102469
3.46775e-08
1.15828e-14
0.0100915
2.0354e-07
-1.66011e-14
3.38921e-06
-1.27697e-13
0.00289525
3.35313e-07
7.46464e-11
0.00547005
2.24601e-07
7.69876e-11
0.00902735
4.44309e-08
1.91409e-11
0.0103582
-8.8835e-08
-6.29427e-11
0.0108744
-9.12705e-08
-4.01516e-11
0.0110813
-5.3736e-08
-1.45422e-11
0.0111602
-2.47076e-08
-5.64674e-12
0.0111878
-9.72493e-09
-9.30999e-13
0.0111965
-3.15643e-09
-3.21529e-14
0.0111991
-6.73732e-10
7.66214e-15
0.0111998
-3.71866e-10
2.79736e-14
0.0112
-9.18411e-11
1.64704e-14
0.0112
-1.90997e-11
3.10314e-15
0.0112
-4.3419e-12
3.57932e-16
0.0112
-8.5201e-13
2.05238e-16
0.0112
1.00408e-12
3.24524e-17
0.0111999
9.34486e-12
-2.40996e-16
0.0111991
6.97144e-11
4.1602e-17
0.011195
4.69022e-10
2.54914e-16
0.0111772
2.85155e-09
8.97835e-16
0.0111104
1.61268e-08
1.99514e-15
0.0109101
8.6647e-08
4.41326e-15
0.0102471
4.34851e-07
5.64568e-15
0.010091
2.25542e-06
7.18701e-15
3.54635e-05
-5.18594e-14
0.00289522
2.55854e-08
5.37228e-11
0.00547
2.0737e-08
5.81261e-11
0.00902735
5.58189e-09
5.11144e-11
0.0103581
-1.50033e-08
-5.62683e-11
0.0108743
-1.44742e-08
-6.8278e-11
0.0110813
-7.79279e-09
-4.06069e-11
0.0111602
-3.31957e-09
-1.90595e-11
0.0111878
-1.12197e-09
-6.99582e-12
0.0111965
-3.08523e-10
-2.05468e-12
0.0111991
-2.60607e-10
-2.77629e-12
0.0111998
8.08387e-11
8.32993e-13
0.0112
1.98587e-11
1.75072e-13
0.0112
1.72917e-12
1.20055e-14
0.0112
3.18431e-13
-2.41065e-16
0.0112
1.46569e-12
-5.91978e-16
0.0112
1.14469e-11
-3.44614e-16
0.0111999
8.63422e-11
4.23601e-17
0.0111991
6.01057e-10
7.07911e-16
0.011195
3.84629e-09
1.34361e-15
0.0111772
2.26246e-08
2.85751e-15
0.0111104
1.20351e-07
4.2602e-15
0.0109103
6.08574e-07
1.11532e-14
0.0102482
2.91011e-06
1.18319e-14
0.010088
1.41046e-05
1.82975e-14
0.000212965
-2.80944e-14
0.00289507
-2.55691e-08
6.22618e-12
0.00546973
-2.06541e-08
7.8023e-12
0.00902733
-5.52796e-09
7.57666e-12
0.0103582
1.50177e-08
-1.11708e-11
0.0108744
1.44646e-08
-1.28112e-11
0.0110814
7.78178e-09
-7.40483e-12
0.0111602
3.3133e-09
-3.36996e-12
0.0111878
1.11931e-09
-1.16961e-12
0.0111965
3.07516e-10
-3.41652e-13
0.0111991
2.60217e-10
-1.48261e-13
0.0111998
-8.09233e-11
-3.20029e-14
0.0112
-1.98637e-11
-1.60707e-14
0.0112
-1.91532e-12
-2.93266e-15
0.0112
1.88506e-12
-3.12132e-16
0.0112
1.48938e-11
-1.6358e-16
0.0112
1.10623e-10
-4.77472e-18
0.0111999
8.22532e-10
1.09822e-16
0.0111991
5.74831e-09
8.20085e-16
0.011195
3.69072e-08
1.56563e-15
0.0111775
2.13264e-07
4.54143e-15
0.0111116
1.12068e-06
1.08921e-14
0.010914
5.42544e-06
2.21022e-14
0.0102622
2.48678e-05
4.102e-14
0.0100545
0.000106428
5.40303e-14
0.00138216
7.49552e-13
0.00289522
4.7776e-11
-3.35284e-07
0.00547
5.67887e-11
-2.2452e-07
0.00902735
5.09347e-11
-4.43702e-08
0.0103581
-5.60578e-11
8.88277e-08
0.0108743
-6.81493e-11
9.1242e-08
0.0110813
-4.05751e-11
5.3716e-08
0.0111602
-1.90535e-11
2.46984e-08
0.0111878
-7.44451e-12
9.72127e-09
0.0111965
-2.18271e-12
3.15509e-09
0.0111991
-2.66893e-12
6.73275e-10
0.0111998
8.70093e-13
3.71717e-10
0.0112
1.77835e-13
9.19127e-11
0.0112
1.20012e-14
1.79931e-11
0.0112
-2.74072e-16
1.80781e-11
0.0112
-6.01224e-16
8.64132e-11
0.0112
-3.03087e-16
6.17733e-10
0.0111999
2.42198e-16
4.4867e-09
0.0111991
1.4686e-15
2.99731e-08
0.0111953
2.74354e-15
1.82341e-07
0.0111786
8.48256e-15
1.00539e-06
0.0111157
1.64543e-14
4.9855e-06
0.0109275
2.52478e-14
2.23835e-05
0.0103094
6.70228e-14
9.61253e-05
0.0100163
1.33807e-13
0.000393401
1.57827e-12
0.0047199
0.00289504
1.14484e-11
-2.40879e-10
0.00546968
5.25997e-11
-3.06407e-10
0.00902733
-1.35009e-11
-1.81075e-10
0.0103583
-6.93034e-11
4.10391e-10
0.0108744
-5.84601e-11
2.86094e-10
0.0110814
-3.15533e-11
1.12201e-10
0.0111602
-1.31893e-11
5.30187e-11
0.0111878
-4.55177e-12
1.1808e-11
0.0111965
-1.33565e-12
2.35071e-12
0.0111991
-3.36027e-13
6.42858e-13
0.0111998
-1.00373e-13
3.25156e-13
0.0112
-2.74562e-14
1.44483e-13
0.0112
-6.10737e-15
2.52709e-14
0.0112
-1.20601e-15
6.09368e-15
0.0112
-7.73145e-16
6.69688e-15
0.0112
-4.22253e-15
1.68582e-14
0.0111999
-2.3189e-14
4.26273e-14
0.0111991
-1.14188e-13
4.53546e-14
0.011195
-4.74441e-13
-1.06626e-13
0.0111772
-1.81942e-12
-1.6662e-12
0.0111104
-5.07171e-12
-4.03791e-12
0.01091
-2.10249e-11
-1.33952e-11
0.0102469
9.703e-14
-2.47873e-11
0.0100915
-2.07094e-11
-3.3022e-11
7.21141e-10
6.3993e-11
0.00289504
4.13628e-11
-2.24073e-10
0.00546968
9.74526e-11
-2.83818e-10
0.00902733
3.79542e-11
-1.46231e-10
0.0103583
-1.01455e-10
3.66922e-10
0.0108744
-9.40964e-11
2.51825e-10
0.0110814
-4.91291e-11
9.85525e-11
0.0111602
-2.05187e-11
4.83487e-11
0.0111878
-6.52142e-12
1.11015e-11
0.0111965
-1.83928e-12
2.13316e-12
0.0111991
-4.77539e-13
2.53345e-12
0.0111998
-1.16738e-13
-9.118e-13
0.0112
-2.46029e-14
-2.08073e-13
0.0112
-3.79894e-15
-2.23212e-14
0.0112
-1.89584e-15
2.28423e-15
0.0112
-4.54259e-15
3.97453e-15
0.0112
-2.35954e-14
4.65966e-15
0.0111999
-1.16431e-13
-3.04873e-14
0.0111991
-5.09791e-13
-3.14368e-13
0.011195
-2.00321e-12
-1.35057e-12
0.0111772
-5.76772e-12
-4.85667e-12
0.0111104
-1.7388e-11
-1.09315e-11
0.01091
-2.7514e-11
-2.14166e-11
0.0102469
-4.3293e-11
-2.75914e-11
0.0100915
2.42943e-11
4.94899e-12
1.78185e-09
5.33732e-10
0.00289504
-1.25706e-11
-2.75344e-11
0.00546968
-1.33967e-11
-5.06248e-11
0.00902733
-6.49829e-12
-9.82954e-11
0.0103583
1.05565e-11
7.55477e-11
0.0108744
1.4101e-11
9.24938e-11
0.0110814
9.86215e-12
5.43876e-11
0.0111602
5.21926e-12
2.56673e-11
0.0111878
2.17152e-12
9.14795e-12
0.0111965
8.03843e-13
2.72791e-12
0.0111991
3.12771e-13
2.89796e-12
0.0111998
1.02267e-13
-8.15522e-13
0.0112
3.75111e-14
-1.59166e-13
0.0112
8.76686e-15
-6.65509e-15
0.0112
1.86477e-15
-9.40294e-15
0.0112
6.96329e-16
-3.87599e-14
0.0112
1.45321e-15
-2.18383e-13
0.0111999
8.1101e-15
-1.06644e-12
0.0111991
3.91765e-14
-4.39474e-12
0.011195
1.54274e-13
-1.51372e-11
0.0111772
5.50719e-13
-3.28446e-11
0.0111104
1.7363e-12
-7.66296e-11
0.01091
5.63649e-12
2.97755e-11
0.0102469
2.49529e-11
-3.14288e-10
0.0100915
1.54053e-10
5.07845e-10
2.76567e-09
2.43543e-09
0.00289504
-1.57424e-10
-2.34527e-11
0.00546968
-1.79923e-10
-4.35536e-11
0.00902733
-5.82329e-11
-1.01407e-10
0.0103583
1.39186e-10
5.65008e-11
0.0108744
1.35105e-10
8.38998e-11
0.0110814
7.45298e-11
5.50473e-11
0.0111602
3.28378e-11
2.8082e-11
0.0111878
1.15672e-11
1.07122e-11
0.0111965
3.55961e-12
3.43554e-12
0.0111991
9.88968e-13
3.05605e-12
0.0111998
2.68687e-13
-6.0833e-13
0.0112
6.19889e-14
-9.09432e-14
0.0112
1.35783e-14
4.94499e-15
0.0112
4.51744e-15
-7.48443e-15
0.0112
6.19069e-15
-3.65067e-14
0.0112
3.10139e-14
-2.11013e-13
0.0111999
1.55036e-13
-1.03321e-12
0.0111991
6.90645e-13
-4.2697e-12
0.011195
2.72295e-12
-1.47679e-11
0.0111772
8.42902e-12
-3.19346e-11
0.0111104
2.73153e-11
-7.5151e-11
0.01091
6.56106e-11
3.24235e-11
0.0102469
2.82606e-10
-3.09442e-10
0.0100915
1.6843e-09
5.12075e-10
2.91389e-08
2.37178e-09
0.00289504
-2.5155e-10
-2.09719e-10
0.00546968
-1.95962e-10
-2.73381e-10
0.00902733
-4.28334e-11
-1.55576e-10
0.0103583
1.15605e-10
3.48672e-10
0.0108744
1.10797e-10
2.52898e-10
0.0110814
6.27218e-11
1.06555e-10
0.0111602
2.97006e-11
5.3966e-11
0.0111878
1.02521e-11
1.36604e-11
0.0111965
3.35131e-12
3.21558e-12
0.0111991
8.7898e-13
2.81772e-12
0.0111998