/*--------------------------------*- C++ -*----------------------------------*\
| =========                 |                                                 |
| \\      /  F ield         | OpenFOAM: The Open Source CFD Toolbox           |
|  \\    /   O peration     | Version:  4.1                                   |
|   \\  /    A nd           | Web:      www.OpenFOAM.org                      |
|    \\/     M anipulation  |                                                 |
\*---------------------------------------------------------------------------*/
FoamFile
{
    version     2.0;
    format      ascii;
    class       volVectorField;
    location    "0.02";
    object      U;
}
// * * * * * * * * * * * * * * * * * * * * * * * * * * * * * * * * * * * * * //

dimensions      [0 1 -1 0 0 0 0];

internalField   nonuniform List<vector> 
52500
(
(2.11078 -1.99183e-06 -0.00302372)
(1.9005 -3.98281e-06 -0.00394725)
(1.87765 3.07588e-06 -0.00517381)
(1.92305 2.28386e-06 -0.00580095)
(1.96378 6.34545e-08 -0.00607669)
(1.98594 -6.60011e-07 -0.00613026)
(1.99522 -5.60519e-07 -0.00613124)
(1.99854 -2.83322e-07 -0.00612708)
(1.99959 -1.12439e-07 -0.00612393)
(1.99989 -3.97373e-08 -0.00612284)
(1.99997 -1.32442e-08 -0.00612252)
(1.99999 -4.02992e-09 -0.00612242)
(2 -1.07182e-09 -0.0061224)
(2 -2.78101e-10 -0.0061224)
(2 -9.40064e-11 -0.0061224)
(2 -2.07292e-10 -0.0061224)
(2 -1.12286e-09 -0.00612244)
(1.99998 -5.79249e-09 -0.00612264)
(1.99991 -2.33737e-08 -0.00612375)
(1.99957 -8.48715e-08 -0.00612903)
(1.99802 -2.35024e-07 -0.00615055)
(1.99161 -2.77207e-07 -0.00623312)
(1.96726 -9.87548e-07 -0.00648366)
(1.75345 5.93401e-07 -0.00786235)
(1.79377 6.77384e-06 -0.0105935)
(2.11078 -3.59871e-05 -0.00302377)
(1.9005 -6.6168e-05 -0.00394734)
(1.87765 -9.38492e-06 -0.00517366)
(1.92305 1.88151e-05 -0.00580093)
(1.96378 1.73097e-05 -0.00607673)
(1.98594 9.50619e-06 -0.00613029)
(1.99522 4.27109e-06 -0.00613126)
(1.99854 1.55378e-06 -0.00612709)
(1.99959 5.01289e-07 -0.00612393)
(1.99989 1.51118e-07 -0.00612284)
(1.99997 4.35115e-08 -0.00612251)
(1.99999 1.17711e-08 -0.00612242)
(2 2.96641e-09 -0.0061224)
(2 6.25357e-10 -0.0061224)
(2 -2.42406e-10 -0.0061224)
(2 -2.47272e-09 -0.0061224)
(2 -1.39673e-08 -0.00612244)
(1.99998 -7.04342e-08 -0.00612264)
(1.99991 -2.99466e-07 -0.00612375)
(1.99957 -9.97957e-07 -0.00612902)
(1.99802 -3.46388e-06 -0.00615054)
(1.99161 -4.99618e-06 -0.00623313)
(1.96726 -2.56397e-05 -0.00648359)
(1.75346 3.37217e-05 -0.00786239)
(1.79378 1.51644e-05 -0.0105935)
(2.11074 -7.13081e-06 -0.00302719)
(1.90051 -6.93271e-06 -0.00395045)
(1.87771 -5.60263e-06 -0.00517372)
(1.92308 2.34856e-06 -0.00580058)
(1.96378 4.94147e-06 -0.00607643)
(1.98593 3.75278e-06 -0.00613018)
(1.99522 2.06759e-06 -0.00613121)
(1.99854 8.77352e-07 -0.00612709)
(1.99959 4.06195e-07 -0.00612394)
(1.99989 6.73362e-08 -0.00612284)
(1.99997 3.06649e-08 -0.00612252)
(1.99999 9.03458e-09 -0.00612242)
(2 2.2956e-09 -0.0061224)
(2 5.10206e-10 -0.0061224)
(2 -2.41409e-10 -0.0061224)
(2 -2.39662e-09 -0.0061224)
(2 -1.35541e-08 -0.00612244)
(1.99998 -6.79866e-08 -0.00612264)
(1.99991 -2.91125e-07 -0.00612375)
(1.99957 -9.60037e-07 -0.00612901)
(1.99802 -3.36209e-06 -0.00615056)
(1.99159 -4.90085e-06 -0.0062331)
(1.96729 -2.49283e-05 -0.00648252)
(1.75321 3.50945e-05 -0.00787456)
(1.79389 1.65778e-05 -0.0105862)
(2.1108 -2.37376e-05 -0.00302377)
(1.90051 -1.67981e-05 -0.00394722)
(1.87766 -4.99226e-06 -0.00517376)
(1.92306 2.78299e-06 -0.00580097)
(1.96378 4.22855e-06 -0.00607672)
(1.98594 2.94493e-06 -0.00613029)
(1.99522 1.53848e-06 -0.00613125)
(1.99854 6.19026e-07 -0.00612709)
(1.99959 2.96756e-07 -0.00612394)
(1.99989 2.6496e-08 -0.00612284)
(1.99997 1.58692e-08 -0.00612252)
(1.99999 4.33316e-09 -0.00612242)
(2 1.04216e-09 -0.0061224)
(2 2.71665e-10 -0.0061224)
(2 3.5921e-11 -0.0061224)
(2 -1.86144e-10 -0.0061224)
(2 -9.99299e-10 -0.00612244)
(1.99998 -3.73676e-09 -0.00612264)
(1.99991 -1.59253e-08 -0.00612375)
(1.99957 -4.01668e-08 -0.00612901)
(1.99802 -1.1469e-07 -0.00615056)
(1.99159 -1.27672e-07 -0.0062331)
(1.9673 -1.22576e-07 -0.0064825)
(1.75322 2.14203e-06 -0.0078747)
(1.79389 3.7946e-06 -0.0105862)
(2.11078 -0.00035544 -0.00302708)
(1.90054 -0.000180034 -0.00395032)
(1.87773 -2.40764e-05 -0.00517367)
(1.92309 2.96989e-05 -0.00580057)
(1.96378 3.1228e-05 -0.00607643)
(1.98593 1.88815e-05 -0.00613019)
(1.99522 9.3388e-06 -0.00613121)
(1.99854 3.63595e-06 -0.00612709)
(1.99959 1.14295e-06 -0.00612394)
(1.99989 4.01343e-07 -0.00612284)
(1.99997 1.21237e-07 -0.00612252)
(1.99999 3.40343e-08 -0.00612242)
(2 8.55703e-09 -0.0061224)
(2 2.05219e-09 -0.0061224)
(2 4.42386e-10 -0.0061224)
(2 1.23278e-10 -0.0061224)
(2 4.06569e-10 -0.00612244)
(1.99998 2.28144e-09 -0.00612264)
(1.99991 1.19691e-08 -0.00612375)
(1.99957 2.72138e-08 -0.00612901)
(1.99802 1.01399e-07 -0.00615056)
(1.99159 5.16388e-08 -0.0062331)
(1.9673 9.1737e-09 -0.0064825)
(1.75322 -1.40651e-06 -0.0078747)
(1.79389 -1.10967e-06 -0.0105861)
(2.11034 -0.000312857 -0.00303459)
(1.90071 -0.000110154 -0.00394824)
(1.87789 -1.11039e-05 -0.00517146)
(1.92314 1.57337e-05 -0.00579891)
(1.96378 1.79072e-05 -0.00607578)
(1.98592 1.1773e-05 -0.00613001)
(1.99521 6.25423e-06 -0.00613119)
(1.99853 2.58885e-06 -0.00612709)
(1.99959 9.20133e-07 -0.00612394)
(1.99989 2.98142e-07 -0.00612285)
(1.99997 8.79092e-08 -0.00612252)
(1.99999 2.43422e-08 -0.00612243)
(2 6.46458e-09 -0.0061224)
(2 1.82623e-09 -0.0061224)
(2 1.07719e-09 -0.0061224)
(2 4.16233e-09 -0.0061224)
(2 2.23348e-08 -0.00612244)
(1.99998 1.07834e-07 -0.00612264)
(1.99991 4.49643e-07 -0.00612375)
(1.99957 1.50364e-06 -0.00612901)
(1.99802 4.84146e-06 -0.00615056)
(1.99159 7.96748e-06 -0.0062331)
(1.96729 3.26189e-05 -0.00648251)
(1.75322 -2.4263e-05 -0.00787452)
(1.79389 5.51605e-05 -0.0105859)
(2.11035 0.000319909 -0.00303448)
(1.90072 0.000156067 -0.00394814)
(1.87789 1.68337e-05 -0.00517148)
(1.92315 -2.76244e-05 -0.00579893)
(1.96379 -2.74161e-05 -0.00607578)
(1.98592 -1.62069e-05 -0.00613)
(1.99521 -7.94169e-06 -0.00613118)
(1.99853 -3.07155e-06 -0.00612709)
(1.99959 -9.39666e-07 -0.00612394)
(1.99989 -3.33433e-07 -0.00612284)
(1.99997 -9.94414e-08 -0.00612252)
(1.99999 -2.80093e-08 -0.00612243)
(2 -6.98265e-09 -0.0061224)
(2 -1.67963e-09 -0.0061224)
(2 -2.94547e-10 -0.0061224)
(2 2.00669e-10 -0.0061224)
(2 1.215e-09 -0.00612244)
(1.99998 5.7576e-09 -0.00612264)
(1.99991 2.5231e-08 -0.00612375)
(1.99957 1.28922e-07 -0.00612903)
(1.99803 5.61186e-07 -0.00615054)
(1.99161 2.83022e-06 -0.00623317)
(1.96727 1.32735e-05 -0.00648328)
(1.75357 7.18868e-05 -0.00786103)
(1.79383 0.000503441 -0.0105895)
(2.11084 2.0566e-07 -0.00302352)
(1.90056 6.93406e-07 -0.00394692)
(1.87769 1.23154e-06 -0.0051737)
(1.92307 3.94875e-08 -0.00580101)
(1.96378 -6.27812e-07 -0.00607675)
(1.98594 -5.72395e-07 -0.0061303)
(1.99522 -3.28731e-07 -0.00613126)
(1.99854 -1.3999e-07 -0.00612709)
(1.99959 -5.11545e-08 -0.00612394)
(1.99989 -1.67235e-08 -0.00612284)
(1.99997 -5.45033e-09 -0.00612252)
(1.99999 -1.60278e-09 -0.00612242)
(2 -3.83373e-10 -0.0061224)
(2 -2.45962e-10 -0.0061224)
(2 -6.03505e-10 -0.0061224)
(2 -3.22295e-09 -0.0061224)
(2 -1.61456e-08 -0.00612244)
(1.99998 -6.72036e-08 -0.00612264)
(1.99991 -1.92703e-07 -0.00612375)
(1.99957 -2.29788e-08 -0.006129)
(1.99802 3.07479e-06 -0.00615053)
(1.9916 3.20889e-05 -0.0062329)
(1.96735 0.000153872 -0.00648164)
(1.75395 0.000929746 -0.0078689)
(1.79425 0.00586509 -0.0105596)
(2.11035 -0.000329065 -0.00303438)
(1.90073 -0.000165322 -0.00394806)
(1.87789 -1.11238e-05 -0.00517144)
(1.92315 3.07104e-05 -0.00579897)
(1.96378 2.68445e-05 -0.00607582)
(1.98592 1.49141e-05 -0.00613003)
(1.99521 6.99295e-06 -0.00613119)
(1.99853 2.65781e-06 -0.0061271)
(1.99959 8.08399e-07 -0.00612394)
(1.99989 3.19362e-07 -0.00612285)
(1.99997 8.48183e-08 -0.00612252)
(1.99999 2.37959e-08 -0.00612243)
(2 6.40693e-09 -0.0061224)
(2 1.81194e-09 -0.0061224)
(2 1.31976e-09 -0.0061224)
(2 6.9491e-09 -0.0061224)
(2 4.63317e-08 -0.00612244)
(1.99998 2.88581e-07 -0.00612264)
(1.99992 1.64874e-06 -0.00612373)
(1.99957 8.63723e-06 -0.0061289)
(1.99805 4.23697e-05 -0.00615001)
(1.99174 0.00019254 -0.00623052)
(1.96802 0.000848972 -0.00647232)
(1.76136 0.00379929 -0.00781622)
(1.79808 0.0247492 -0.0103713)
(2.11035 0.000337974 -0.00303439)
(1.90074 0.000170358 -0.00394823)
(1.8779 2.14824e-05 -0.00517117)
(1.92314 -3.04948e-05 -0.00579894)
(1.96378 -3.21361e-05 -0.00607587)
(1.98592 -1.96947e-05 -0.00613007)
(1.99521 -9.83955e-06 -0.00613122)
(1.99853 -3.89157e-06 -0.0061271)
(1.99959 -1.33693e-06 -0.00612394)
(1.99989 -4.22466e-07 -0.00612285)
(1.99997 -1.22746e-07 -0.00612252)
(1.99999 -3.35255e-08 -0.00612243)
(2 -8.90502e-09 -0.0061224)
(2 -9.84721e-10 -0.0061224)
(2 7.44378e-09 -0.0061224)
(2 5.75517e-08 -0.0061224)
(2 4.18745e-07 -0.00612243)
(1.99999 2.8098e-06 -0.00612262)
(1.99992 1.72309e-05 -0.00612363)
(1.9996 9.60791e-05 -0.00612845)
(1.99818 0.000483951 -0.00614801)
(1.99228 0.00219554 -0.006222)
(1.97035 0.00922484 -0.0064414)
(1.78692 0.0360035 -0.00763746)
(1.81236 0.192256 -0.00967411)
(2.11079 -9.26177e-06 -4.87667e-09)
(1.90051 -3.16576e-06 8.66164e-09)
(1.87766 1.48695e-06 5.62068e-08)
(1.92305 1.24422e-06 -2.69298e-08)
(1.96378 -1.60642e-07 -6.21495e-08)
(1.98594 -6.14124e-07 -5.50562e-08)
(1.99522 -4.7024e-07 -4.5047e-08)
(1.99854 -2.53287e-07 -3.71306e-08)
(1.99959 -1.11202e-07 -3.35211e-08)
(1.99989 -6.33324e-08 -3.39446e-08)
(1.99997 -7.90406e-09 -3.14923e-08)
(1.99999 -1.72977e-09 -3.19612e-08)
(2 -8.59405e-10 -3.20876e-08)
(2 -2.74143e-10 -3.2099e-08)
(2 -8.02121e-11 -3.20994e-08)
(2 -2.31604e-11 -3.20992e-08)
(2 -5.55384e-12 -3.20972e-08)
(1.99998 7.72042e-13 -3.20919e-08)
(1.99991 -4.41059e-12 -3.20124e-08)
(1.99957 -4.45855e-11 -3.20033e-08)
(1.99803 -4.19332e-11 -3.10086e-08)
(1.99161 -9.57912e-10 -3.29072e-08)
(1.96726 2.54124e-09 -2.99277e-08)
(1.75344 -3.73696e-10 -5.96446e-08)
(1.79377 1.13197e-08 -1.04238e-07)
(2.1108 -0.000353941 1.90221e-08)
(1.90052 -0.000184959 2.13844e-08)
(1.87766 -2.10204e-05 1.88584e-08)
(1.92305 3.3087e-05 -4.55169e-08)
(1.96378 3.23525e-05 -5.48917e-08)
(1.98594 1.88117e-05 -4.77114e-08)
(1.99522 8.9761e-06 -4.015e-08)
(1.99854 3.39643e-06 -3.52542e-08)
(1.99959 1.11736e-06 -3.30465e-08)
(1.99989 3.17467e-07 -3.38121e-08)
(1.99997 1.01757e-07 -3.14179e-08)
(1.99999 2.77279e-08 -3.19315e-08)
(2 6.8536e-09 -3.20831e-08)
(2 1.67892e-09 -3.20982e-08)
(2 3.76071e-10 -3.20975e-08)
(2 7.70022e-11 -3.20886e-08)
(2 2.21512e-11 -3.20443e-08)
(1.99998 -2.5137e-11 -3.18627e-08)
(1.99991 -1.32023e-10 -3.12228e-08)
(1.99957 -4.54771e-10 -2.97618e-08)
(1.99803 -1.4957e-09 -2.7082e-08)
(1.99161 -3.19179e-09 -2.65899e-08)
(1.96726 -1.95685e-09 -3.38781e-08)
(1.75344 1.77428e-09 -9.30957e-08)
(1.79377 6.08089e-08 -1.96876e-07)
(2.11034 -7.96597e-06 3.67976e-07)
(1.90072 -3.73434e-06 3.61974e-07)
(1.87789 -1.32982e-07 1.11365e-07)
(1.92314 1.15954e-06 -2.52653e-07)
(1.96378 9.99657e-07 -1.80792e-07)
(1.98592 5.273e-07 -9.07493e-08)
(1.99521 2.32773e-07 -6.14149e-08)
(1.99853 8.03176e-08 -3.98181e-08)
(1.99959 2.29006e-08 -3.38132e-08)
(1.99989 5.15424e-09 -3.38965e-08)
(1.99997 9.20275e-10 -3.15211e-08)
(1.99999 -9.65569e-12 -3.19664e-08)
(2 -3.50793e-11 -3.20873e-08)
(2 -1.21523e-11 -3.20935e-08)
(2 -6.57543e-12 -3.20777e-08)
(2 -3.61948e-12 -3.19787e-08)
(2 -7.51816e-12 -3.15096e-08)
(1.99998 -3.48531e-11 -2.96818e-08)
(1.99991 -1.49262e-10 -2.35782e-08)
(1.99957 -4.3741e-10 -1.54714e-08)
(1.99803 -1.53074e-09 1.08262e-08)
(1.99161 -2.28895e-09 -5.75551e-08)
(1.96726 -4.07466e-09 1.29344e-07)
(1.75344 6.6934e-09 -3.34744e-07)
(1.79377 8.97355e-08 -5.76616e-07)
(2.11079 -1.56289e-08 2.95877e-08)
(1.90053 -1.09248e-08 3.34838e-08)
(1.87766 6.69857e-11 6.95728e-08)
(1.92306 4.90641e-09 -7.86025e-08)
(1.96378 3.31851e-09 -9.32781e-08)
(1.98594 1.02539e-09 -6.617e-08)
(1.99522 -5.23253e-11 -4.91894e-08)
(1.99854 -2.95657e-10 -3.72361e-08)
(1.99959 -1.84835e-10 -3.79984e-08)
(1.99989 -1.01336e-10 -2.90595e-08)
(1.99997 -4.59245e-11 -3.25745e-08)
(1.99999 -2.05882e-11 -3.21288e-08)
(2 -6.12064e-12 -3.21009e-08)
(2 -1.55089e-12 -3.20945e-08)
(2 -4.93396e-13 -3.20771e-08)
(2 -2.20561e-13 -3.1972e-08)
(2 -4.8855e-13 -3.14733e-08)
(1.99998 -1.64374e-12 -2.95376e-08)
(1.99991 -4.3068e-12 -2.30763e-08)
(1.99957 9.94986e-12 -1.43535e-08)
(1.99803 1.74e-10 1.28656e-08)
(1.99161 1.56821e-09 -5.68845e-08)
(1.96726 9.74872e-09 1.25999e-07)
(1.75344 7.39876e-08 -3.66675e-07)
(1.79377 5.81195e-07 -6.28901e-07)
(2.11034 7.77039e-06 4.90269e-07)
(1.90072 3.64372e-06 4.74051e-07)
(1.87789 1.65999e-07 1.79797e-07)
(1.92314 -1.12249e-06 -2.66095e-07)
(1.96378 -9.94192e-07 -2.23633e-07)
(1.98592 -5.39022e-07 -1.21733e-07)
(1.99521 -2.45191e-07 -7.75076e-08)
(1.99853 -8.80951e-08 -4.52509e-08)
(1.99959 -2.66421e-08 -3.98563e-08)
(1.99989 -6.80699e-09 -3.09343e-08)
(1.99997 -1.63029e-09 -3.20041e-08)
(1.99999 -2.90628e-10 -3.20096e-08)
(2 -5.25265e-11 -3.20934e-08)
(2 -1.02744e-11 -3.20944e-08)
(2 -4.00096e-13 -3.20766e-08)
(2 6.62872e-13 -3.19707e-08)
(2 1.62008e-12 -3.14727e-08)
(1.99998 1.26351e-11 -2.95542e-08)
(1.99991 8.55791e-11 -2.31708e-08)
(1.99957 5.3828e-10 -1.45755e-08)
(1.99803 3.12653e-09 1.19614e-08)
(1.99161 1.92187e-08 -5.82035e-08)
(1.96726 1.03195e-07 1.23319e-07)
(1.75345 6.97312e-07 -3.6902e-07)
(1.79377 5.278e-06 -6.21652e-07)
(2.1108 0.000354179 1.56653e-07)
(1.90052 0.000185242 1.38391e-07)
(1.87766 2.11413e-05 1.39054e-07)
(1.92305 -3.32321e-05 -9.35455e-08)
(1.96378 -3.25557e-05 -1.26044e-07)
(1.98594 -1.89533e-05 -8.39313e-08)
(1.99522 -9.04986e-06 -5.89597e-08)
(1.99854 -3.42709e-06 -4.13292e-08)
(1.99959 -1.12855e-06 -3.47631e-08)
(1.99989 -3.21663e-07 -3.29033e-08)
(1.99997 -1.03161e-07 -3.24731e-08)
(1.99999 -2.81835e-08 -3.22755e-08)
(2 -6.97298e-09 -3.21241e-08)
(2 -1.707e-09 -3.20958e-08)
(2 -3.82417e-10 -3.2078e-08)
(2 -7.40768e-11 -3.19768e-08)
(2 1.10194e-11 -3.15051e-08)
(1.99998 2.61374e-10 -2.96611e-08)
(1.99991 1.70655e-09 -2.35529e-08)
(1.99957 1.0388e-08 -1.5056e-08)
(1.99803 5.90356e-08 1.22487e-08)
(1.99161 3.37632e-07 -5.32021e-08)
(1.96726 1.74031e-06 1.35701e-07)
(1.75345 1.04563e-05 -3.41651e-07)
(1.79377 7.60747e-05 -5.57109e-07)
(2.11079 1.61073e-05 3.4387e-06)
(1.90051 9.92104e-06 2.07821e-06)
(1.87765 8.53931e-07 2.58206e-07)
(1.92305 -3.10721e-06 -1.04041e-07)
(1.96378 -2.56858e-06 -1.75864e-07)
(1.98594 -1.30653e-06 -1.0476e-07)
(1.99522 -5.40097e-07 -8.53332e-08)
(1.99854 -1.76264e-07 -4.52866e-08)
(1.99959 -4.8793e-08 -3.90581e-08)
(1.99989 -1.21773e-08 -3.06111e-08)
(1.99997 -2.69161e-09 -3.18354e-08)
(1.99999 -4.80146e-10 -3.19497e-08)
(2 -8.77534e-11 -3.2079e-08)
(2 -1.56565e-11 -3.21018e-08)
(2 4.40261e-12 -3.21098e-08)
(2 4.35852e-11 -3.21571e-08)
(2 3.24474e-10 -3.236e-08)
(1.99998 2.26603e-09 -3.30743e-08)
(1.99991 1.46375e-08 -3.4724e-08)
(1.99957 8.83549e-08 -3.74428e-08)
(1.99803 4.82996e-07 -3.82983e-08)
(1.99161 2.61986e-06 -1.87392e-08)
(1.96727 1.28129e-05 -6.97125e-08)
(1.75356 7.1327e-05 -7.08316e-08)
(1.79382 0.000501887 -1.85078e-07)
(2.11078 6.58979e-06 4.24527e-07)
(1.9005 6.60738e-06 3.47076e-07)
(1.87765 2.34067e-06 1.19089e-07)
(1.92305 -1.80156e-06 -1.64906e-07)
(1.96378 -2.67368e-06 -1.6972e-07)
(1.98594 -1.88982e-06 -1.05516e-07)
(1.99523 -9.96629e-07 -6.77082e-08)
(1.99854 -4.24583e-07 -4.30313e-08)
(1.99959 -1.58414e-07 -3.9854e-08)
(1.99989 -7.5014e-08 -2.95238e-08)
(1.99997 -1.04353e-08 -3.27655e-08)
(1.99999 -2.19007e-09 -3.21708e-08)
(2 -9.44675e-10 -3.21177e-08)
(2 -2.76726e-10 -3.20973e-08)
(2 4.5565e-12 -3.20802e-08)
(2 6.61041e-10 -3.19843e-08)
(2 5.22258e-09 -3.15299e-08)
(1.99998 3.69475e-08 -2.97526e-08)
(1.99991 2.40177e-07 -2.37619e-08)
(1.99957 1.43727e-06 -1.57722e-08)
(1.99803 7.76245e-06 1.07598e-08)
(1.99162 3.96526e-05 -5.64636e-08)
(1.96732 0.000185002 1.32153e-07)
(1.75418 0.000896353 -3.46798e-07)
(1.79413 0.00584956 -5.4702e-07)
(2.11078 2.0417e-07 3.57587e-06)
(1.9005 2.75033e-07 2.17587e-06)
(1.87765 1.41453e-07 2.40716e-07)
(1.92305 -1.23173e-07 -1.39342e-07)
(1.96378 -1.87404e-07 -1.79965e-07)
(1.98594 -1.32995e-07 -9.92198e-08)
(1.99523 -6.98579e-08 -8.18826e-08)
(1.99854 -2.91022e-08 -4.33802e-08)
(1.99959 -1.06324e-08 -3.82927e-08)
(1.99989 -3.96543e-09 -3.03623e-08)
(1.99997 -1.3e-09 -3.17311e-08)
(1.99999 -4.4031e-10 -3.19053e-08)
(2 -1.24914e-10 -3.20724e-08)
(2 7.29264e-11 -3.20916e-08)
(2 6.08166e-10 -3.20759e-08)
(2 4.64966e-09 -3.19777e-08)
(2 3.36053e-08 -3.15078e-08)
(1.99998 2.23901e-07 -2.96693e-08)
(1.99992 1.36917e-06 -2.35435e-08)
(1.99957 7.70073e-06 -1.52538e-08)
(1.99806 3.90476e-05 1.13308e-08)
(1.99176 0.00018759 -5.62751e-08)
(1.96798 0.000824241 1.34029e-07)
(1.76158 0.003828 -3.37102e-07)
(1.79795 0.0247648 -5.81211e-07)
(2.11078 1.08662e-07 3.50788e-06)
(1.9005 5.98739e-08 2.10332e-06)
(1.87765 7.3562e-09 1.04932e-07)
(1.92305 -1.57865e-08 -1.03575e-07)
(1.96378 -1.47616e-08 -1.06589e-07)
(1.98594 -8.3376e-09 -5.82794e-08)
(1.99523 -3.88524e-09 -6.05095e-08)
(1.99854 -1.45136e-09 -3.65532e-08)
(1.99959 -4.7385e-10 -3.2574e-08)
(1.99989 -1.45606e-10 -3.2104e-08)
(1.99997 -4.35182e-11 -3.21353e-08)
(1.99999 -2.88394e-12 -3.21026e-08)
(2 -9.32169e-11 -3.20959e-08)
(2 1.15562e-09 -3.20977e-08)
(2 7.54177e-09 -3.20966e-08)
(2 5.51362e-08 -3.20922e-08)
(2 4.04914e-07 -3.20693e-08)
(1.99999 2.74064e-06 -3.19784e-08)
(1.99992 1.69372e-05 -3.16724e-08)
(1.9996 9.51092e-05 -3.1074e-08)
(1.99818 0.000480558 -2.99309e-08)
(1.99228 0.00219063 -3.10116e-08)
(1.97035 0.00919991 -2.7951e-08)
(1.7869 0.0360391 -6.07831e-08)
(1.81234 0.192286 -4.88945e-07)
(2.11078 -4.97118e-08 1.08532e-07)
(1.9005 -6.25165e-08 1.01847e-07)
(1.87765 -5.55764e-08 5.55771e-08)
(1.92305 6.78412e-09 -5.01409e-08)
(1.96378 3.74923e-08 -5.75103e-08)
(1.98594 3.51836e-08 -3.36063e-08)
(1.99523 2.23755e-08 -1.56655e-08)
(1.99854 1.10295e-08 -5.73379e-09)
(1.99959 4.63262e-09 -1.70312e-09)
(1.99989 1.85079e-09 -1.93453e-09)
(1.99997 7.36254e-10 5.54659e-10)
(1.99999 2.92286e-10 9.75466e-11)
(2 8.31551e-11 -1.88437e-11)
(2 2.09523e-11 -2.70045e-11)
(2 6.12598e-12 -2.7199e-11)
(2 1.59403e-12 -2.69774e-11)
(2 4.21168e-13 -2.67503e-11)
(1.99998 8.26886e-13 -2.64813e-11)
(1.99991 5.36168e-12 -2.66575e-11)
(1.99957 -7.99278e-12 -2.70791e-11)
(1.99803 8.84441e-11 -2.80089e-11)
(1.99161 -7.41737e-10 -3.11075e-11)
(1.96726 2.7647e-09 -3.63714e-11)
(1.75344 -8.98064e-10 -5.71799e-11)
(1.79377 2.24311e-09 -7.22246e-11)
(2.11078 -4.4356e-07 1.65113e-07)
(1.9005 -4.0201e-07 1.35964e-07)
(1.87765 -1.50462e-07 2.47479e-08)
(1.92305 1.58766e-07 -5.69012e-08)
(1.96378 2.15426e-07 -3.7925e-08)
(1.98594 1.46478e-07 -1.53081e-08)
(1.99523 7.5227e-08 -6.32818e-09)
(1.99854 3.07592e-08 -1.50424e-09)
(1.99959 1.10405e-08 -3.05892e-10)
(1.99989 4.049e-09 -1.08751e-10)
(1.99997 1.30791e-09 -4.37205e-11)
(1.99999 4.36943e-10 -3.4667e-11)
(2 1.13798e-10 -2.81039e-11)
(2 2.63218e-11 -2.69081e-11)
(2 6.25968e-12 -2.67875e-11)
(2 1.37522e-12 -2.67062e-11)
(2 5.33163e-13 -2.67076e-11)
(1.99998 1.03812e-12 -2.6714e-11)
(1.99991 5.29141e-12 -2.68603e-11)
(1.99957 -6.84666e-12 -2.73624e-11)
(1.99803 7.0335e-11 -2.85987e-11)
(1.99161 -6.708e-10 -3.15706e-11)
(1.96726 2.61493e-09 -3.73706e-11)
(1.75344 -2.01016e-10 -5.29947e-11)
(1.79377 5.10544e-09 5.52459e-12)
(2.11078 -6.51874e-06 3.48777e-06)
(1.9005 -6.50279e-06 2.1006e-06)
(1.87765 -2.26155e-06 1.33424e-07)
(1.92305 1.80009e-06 -1.10906e-07)
(1.96378 2.63541e-06 -1.01504e-07)
(1.98594 1.85258e-06 -3.52622e-08)
(1.99523 9.72762e-07 -3.01142e-08)
(1.99854 4.12842e-07 -4.2214e-09)
(1.99959 1.53533e-07 4.89229e-11)
(1.99989 7.30716e-08 1.62766e-10)
(1.99997 9.65817e-09 6.30837e-11)
(1.99999 1.89908e-09 3.45162e-11)
(2 8.61872e-10 -1.54751e-11)
(2 2.69033e-10 -2.52935e-11)
(2 7.51435e-11 -2.53492e-11)
(2 2.11082e-11 -2.63464e-11)
(2 5.43217e-12 -2.73776e-11)
(1.99998 -1.54216e-12 -2.72501e-11)
(1.99991 -9.27931e-13 -2.8772e-11)
(1.99957 2.15074e-12 -3.06181e-11)
(1.99803 -5.94872e-12 -3.45965e-11)
(1.99161 1.56471e-10 -3.37422e-11)
(1.96726 3.55007e-10 -3.34832e-11)
(1.75344 4.78888e-09 -1.43538e-12)
(1.79377 3.56861e-08 2.7153e-10)
(2.11079 -1.54578e-05 2.26003e-07)
(1.90051 -9.36982e-06 1.75809e-07)
(1.87765 -7.01036e-07 3.17341e-08)
(1.92305 2.89397e-06 -6.0154e-08)
(1.96378 2.30373e-06 -4.03008e-08)
(1.98594 1.13369e-06 -1.48279e-08)
(1.99522 4.53885e-07 -6.34674e-09)
(1.99854 1.41753e-07 -1.23123e-09)
(1.99959 3.65956e-08 -1.33771e-10)
(1.99989 7.99701e-09 -1.07754e-11)
(1.99997 1.24698e-09 -1.64434e-11)
(1.99999 -2.12175e-11 -1.79772e-11)
(2 -4.08296e-11 -2.46789e-11)
(2 -1.26584e-11 -2.64157e-11)
(2 -5.84466e-12 -2.65e-11)
(2 -1.82054e-12 -2.66643e-11)
(2 1.73646e-13 -2.68253e-11)
(1.99998 1.3999e-12 -2.70737e-11)
(1.99991 6.34456e-12 -2.77525e-11)
(1.99957 3.93995e-11 -2.94512e-11)
(1.99803 2.48293e-10 -3.21846e-11)
(1.99161 1.69374e-09 -3.20814e-11)
(1.96726 9.77958e-09 -3.87571e-11)
(1.75344 7.32702e-08 -2.68026e-11)
(1.79377 5.73799e-07 1.49518e-10)
(2.1108 -0.000342949 3.48749e-06)
(1.90052 -0.000175513 2.10038e-06)
(1.87766 -1.86638e-05 1.3321e-07)
(1.92305 3.05862e-05 -1.10763e-07)
(1.96378 2.93232e-05 -1.01339e-07)
(1.98594 1.68393e-05 -3.51554e-08)
(1.99522 7.98819e-06 -3.00547e-08)
(1.99854 2.99108e-06 -4.19542e-09)
(1.99959 9.67807e-07 5.74587e-11)
(1.99989 2.65053e-07 1.66442e-10)
(1.99997 8.41521e-08 6.45109e-11)
(1.99999 2.20627e-08 3.52919e-11)
(2 5.39772e-09 -1.53128e-11)
(2 1.3353e-09 -2.5261e-11)
(2 2.91327e-10 -2.53095e-11)
(2 5.91993e-11 -2.62079e-11)
(2 2.72047e-11 -2.67559e-11)
(1.99998 2.30995e-11 -2.48656e-11)
(1.99991 9.66319e-11 -2.0905e-11)
(1.99957 5.28978e-10 -1.337e-11)
(1.99803 3.10569e-09 -2.97942e-12)
(1.99161 1.92298e-08 -1.81893e-11)
(1.96726 1.03438e-07 -6.46293e-11)
(1.75344 6.98414e-07 -2.77138e-10)
(1.79377 5.2827e-06 -8.61187e-10)
(2.11032 1.18681e-07 1.65302e-07)
(1.9007 3.84286e-08 1.35579e-07)
(1.87788 -1.57143e-08 2.33616e-08)
(1.92313 -2.66989e-08 -5.66839e-08)
(1.96378 -1.48063e-08 -3.68751e-08)
(1.98593 -4.86567e-09 -1.43271e-08)
(1.99521 -1.03717e-09 -5.73891e-09)
(1.99853 8.2392e-11 -1.22683e-09)
(1.99959 2.01326e-10 -1.99871e-10)
(1.99989 1.30166e-10 -6.91364e-11)
(1.99997 6.49985e-11 -2.66973e-11)
(1.99999 3.00503e-11 -2.56363e-11)
(2 8.76617e-12 -2.6273e-11)
(2 2.23311e-12 -2.66217e-11)
(2 1.04187e-12 -2.66145e-11)
(2 3.76013e-12 -2.65651e-11)
(2 2.92193e-11 -2.61919e-11)
(1.99998 2.18555e-10 -2.46743e-11)
(1.99991 1.51228e-09 -1.98435e-11)
(1.99957 9.77083e-09 -1.17696e-11)
(1.99803 5.70867e-08 1.73765e-12)
(1.99161 3.34415e-07 -1.0146e-11)
(1.96726 1.73417e-06 -5.40255e-11)
(1.75345 1.04576e-05 -2.70793e-10)
(1.79377 7.61298e-05 -1.02145e-09)
(2.1108 0.000342921 1.01915e-07)
(1.90052 0.000175442 9.56225e-08)
(1.87766 1.85902e-05 5.14266e-08)
(1.92305 -3.05806e-05 -4.54089e-08)
(1.96378 -2.92751e-05 -5.19684e-08)
(1.98594 -1.6793e-05 -3.0335e-08)
(1.99522 -7.9586e-06 -1.41563e-08)
(1.99854 -2.97651e-06 -5.19288e-09)
(1.99959 -9.61686e-07 -1.53785e-09)
(1.99989 -2.62565e-07 -1.86094e-09)
(1.99997 -8.31619e-08 5.72888e-10)
(1.99999 -2.16923e-08 1.04691e-10)
(2 -5.29356e-09 -1.75683e-11)
(2 -1.30812e-09 -2.68551e-11)
(2 -2.78095e-10 -2.71247e-11)
(2 -1.39883e-11 -2.69968e-11)
(2 2.98844e-10 -2.68745e-11)
(1.99998 2.25288e-09 -2.68677e-11)
(1.99991 1.46157e-08 -2.74687e-11)
(1.99957 8.83311e-08 -2.79031e-11)
(1.99803 4.82929e-07 -2.80161e-11)
(1.99161 2.61971e-06 -2.33072e-11)
(1.96727 1.28126e-05 -4.13533e-11)
(1.75356 7.13262e-05 -7.64933e-11)
(1.79382 0.000501886 -3.85407e-10)
(2.11079 1.51257e-05 6.57452e-09)
(1.90051 9.07331e-06 6.92529e-09)
(1.87765 6.11718e-07 4.69557e-09)
(1.92305 -2.74655e-06 -4.91865e-09)
(1.96378 -2.12414e-06 -5.62244e-09)
(1.98594 -1.016e-06 -3.29952e-09)
(1.99522 -3.94728e-07 -1.54033e-09)
(1.99854 -1.17956e-07 -5.6444e-10)
(1.99959 -2.82309e-08 -1.8985e-10)
(1.99989 -4.99129e-09 -9.74213e-11)
(1.99997 -2.96963e-10 -4.33198e-11)
(1.99999 3.29688e-10 -3.59993e-11)
(2 1.19928e-10 -2.82999e-11)
(2 4.41393e-11 -2.68793e-11)
(2 9.61662e-11 -2.67836e-11)
(2 6.8843e-10 -2.66253e-11)
(2 5.23883e-09 -2.62521e-11)
(1.99998 3.6993e-08 -2.49629e-11)
(1.99991 2.40368e-07 -2.07528e-11)
(1.99957 1.43783e-06 -1.37553e-11)
(1.99803 7.76428e-06 -3.60864e-12)
(1.99162 3.96555e-05 -7.43811e-12)
(1.96732 0.000185008 -6.1823e-11)
(1.75418 0.000896349 -2.65831e-10)
(1.79413 0.00584949 -1.01619e-09)
(2.11078 1.09498e-09 2.23589e-09)
(1.9005 7.94469e-09 2.48745e-09)
(1.87765 3.07388e-09 1.84301e-09)
(1.92305 7.10513e-10 -8.28862e-10)
(1.96378 -1.70356e-12 -1.59668e-09)
(1.98594 -6.11152e-11 -1.23098e-09)
(1.99522 -1.9947e-11 -7.11856e-10)
(1.99854 3.33547e-12 -3.30158e-10)
(1.99959 6.42666e-12 -1.39153e-10)
(1.99989 3.85916e-12 -6.82292e-11)
(1.99997 1.62418e-12 -4.44976e-11)
(1.99999 1.6453e-12 -3.61713e-11)
(2 -9.08039e-12 -2.86286e-11)
(2 1.00075e-10 -2.7005e-11)
(2 6.14635e-10 -2.68526e-11)
(2 4.64956e-09 -2.66497e-11)
(2 3.35971e-08 -2.62672e-11)
(1.99998 2.23862e-07 -2.49841e-11)
(1.99992 1.36901e-06 -2.06778e-11)
(1.99957 7.70024e-06 -1.30333e-11)
(1.99806 3.9046e-05 -6.7444e-13)
(1.99176 0.000187587 -8.12836e-12)
(1.96798 0.000824234 -7.08483e-11)
(1.76158 0.00382799 -3.43219e-10)
(1.79795 0.0247648 -1.23387e-09)
(2.11079 -1.51131e-05 1.11865e-09)
(1.90051 -9.03967e-06 9.26125e-10)
(1.87765 -5.94822e-07 1.97152e-10)
(1.92305 2.7491e-06 -2.1837e-10)
(1.96378 2.12148e-06 -3.01868e-10)
(1.98594 1.01324e-06 -2.38391e-10)
(1.99522 3.93185e-07 -1.55435e-10)
(1.99854 1.17294e-07 -8.35048e-11)
(1.99959 2.79779e-08 -4.74788e-11)
(1.99989 4.89959e-09 -3.45192e-11)
(1.99997 2.66887e-10 -2.99162e-11)
(1.99999 -3.2895e-10 -2.85191e-11)
(2 -2.13004e-10 -2.70973e-11)
(2 1.12257e-09 -2.67679e-11)
(2 7.5318e-09 -2.673e-11)
(2 5.51254e-08 -2.66633e-11)
(2 4.04876e-07 -2.6482e-11)
(1.99999 2.74048e-06 -2.58788e-11)
(1.99992 1.69368e-05 -2.42236e-11)
(1.9996 9.51066e-05 -2.1441e-11)
(1.99818 0.000480557 -1.95575e-11)
(1.99228 0.00219061 -3.54306e-11)
(1.97035 0.00919987 -8.3505e-11)
(1.7869 0.036039 -3.61911e-10)
(1.81234 0.192286 -1.30236e-09)
(2.11078 3.02626e-11 -4.12879e-07)
(1.9005 5.01399e-09 -4.12159e-07)
(1.87765 -4.11265e-09 -1.71328e-07)
(1.92305 -6.89771e-09 2.77882e-07)
(1.96378 -4.42677e-09 1.88755e-07)
(1.98594 -2.03474e-09 7.38106e-08)
(1.99523 -7.56858e-10 3.43132e-08)
(1.99854 -2.31301e-10 8.2989e-09)
(1.99959 -6.00212e-11 1.57761e-09)
(1.99989 -1.20509e-11 4.24223e-10)
(1.99997 -3.4862e-12 2.13693e-10)
(1.99999 -1.02114e-12 9.88932e-11)
(2 -2.14216e-13 1.78285e-11)
(2 -3.68137e-14 3.80256e-12)
(2 -2.27722e-14 4.10115e-12)
(2 -1.03966e-13 1.04729e-11)
(2 -5.59627e-13 2.61108e-11)
(1.99998 -2.87891e-12 2.29521e-11)
(1.99991 -1.07678e-11 -8.50435e-11)
(1.99957 -6.14222e-11 -1.10801e-09)
(1.99803 -6.56009e-11 -2.64597e-09)
(1.99161 -1.05342e-09 -8.41874e-09)
(1.96726 2.38711e-09 -1.49004e-08)
(1.75344 -6.02605e-10 -1.93721e-08)
(1.79377 1.44523e-08 1.84038e-08)
(2.11078 1.30354e-08 -3.82644e-07)
(1.9005 2.95677e-08 -3.79628e-07)
(1.87765 3.35325e-09 -1.38745e-07)
(1.92305 -1.61181e-08 2.47592e-07)
(1.96378 -1.43448e-08 1.64595e-07)
(1.98594 -7.74555e-09 6.36985e-08)
(1.99523 -3.30786e-09 3.06156e-08)
(1.99854 -1.13391e-09 7.53553e-09)
(1.99959 -3.38286e-10 1.32242e-09)
(1.99989 -9.17168e-11 1.69529e-09)
(1.99997 -2.51557e-11 -6.47696e-10)
(1.99999 -6.39738e-12 -1.59899e-10)
(2 -1.39689e-12 -1.7749e-11)
(2 -3.86491e-13 8.01562e-13)
(2 -4.49474e-13 2.00077e-12)
(2 -2.18281e-12 1.97185e-12)
(2 -1.10232e-11 -2.35262e-11)
(1.99998 -5.01391e-11 -2.14906e-10)
(1.99991 -2.02031e-10 -8.95036e-10)
(1.99957 -6.38046e-10 -3.14718e-09)
(1.99803 -1.93984e-09 -6.94461e-09)
(1.99161 -4.23347e-09 -1.3238e-08)
(1.96726 -3.87003e-09 -1.63419e-08)
(1.75344 -3.35676e-10 3.43673e-09)
(1.79377 8.52583e-08 1.37742e-07)
(2.11078 1.0556e-08 -4.16107e-08)
(1.9005 2.21563e-08 -6.3956e-08)
(1.87765 6.60568e-09 -8.30253e-08)
(1.92305 -8.39237e-09 4.73146e-08)
(1.96378 -8.63165e-09 5.66225e-08)
(1.98594 -4.70305e-09 3.31368e-08)
(1.99523 -1.96673e-09 1.56534e-08)
(1.99854 -6.35509e-10 5.69856e-09)
(1.99959 -1.71142e-10 1.68067e-09)
(1.99989 -3.69698e-11 1.9197e-09)
(1.99997 -6.61236e-12 -5.80467e-10)
(1.99999 -7.28085e-14 -1.25902e-10)
(2 2.43036e-13 -7.12702e-12)
(2 -7.0984e-15 -6.37491e-12)
(2 -3.28535e-13 -2.60582e-11)
(2 -1.9861e-12 -1.46134e-10)
(2 -1.01024e-11 -7.05731e-10)
(1.99998 -4.57766e-11 -2.86243e-09)
(1.99991 -1.85781e-10 -9.7066e-09)
(1.99957 -5.5911e-10 -2.038e-08)
(1.99803 -1.82592e-09 -4.71777e-08)
(1.99161 -3.02443e-09 1.93341e-08)
(1.96726 -5.63714e-09 -1.93584e-07)
(1.75344 4.33982e-09 2.86544e-07)
(1.79377 1.04231e-07 6.14645e-07)
(2.11078 -1.9934e-08 5.00195e-08)
(1.9005 -2.93569e-08 2.02826e-08)
(1.87765 -8.64195e-09 -3.94018e-08)
(1.92305 1.09622e-08 9.3361e-10)
(1.96378 1.17878e-08 9.49351e-09)
(1.98594 6.87472e-09 9.0525e-09)
(1.99523 3.1215e-09 5.60619e-09)
(1.99854 1.12413e-09 2.54834e-09)
(1.99959 3.54105e-10 9.48043e-10)
(1.99989 1.04356e-10 3.9562e-10)
(1.99997 2.9741e-11 1.64484e-10)
(1.99999 7.97532e-12 6.78148e-11)
(2 1.81162e-12 1.30233e-11)
(2 5.08991e-13 -4.91364e-12)
(2 5.67543e-13 -2.50647e-11)
(2 2.75232e-12 -1.43053e-10)
(2 1.39803e-11 -6.90789e-10)
(1.99998 6.37045e-11 -2.80414e-09)
(1.99991 2.54689e-10 -9.51154e-09)
(1.99957 8.01237e-10 -1.98548e-08)
(1.99803 2.61938e-09 -4.61549e-08)
(1.99161 5.89977e-09 2.07657e-08)
(1.96726 1.83543e-08 -1.90249e-07)
(1.75344 7.50987e-08 2.88533e-07)
(1.79377 4.9764e-07 5.98778e-07)
(2.11078 -1.34872e-07 -2.25469e-07)
(1.9005 -8.72531e-08 -2.544e-07)
(1.87765 -1.24009e-08 -1.27964e-07)
(1.92305 2.77678e-08 1.90917e-07)
(1.96378 2.65248e-08 1.38436e-07)
(1.98594 1.49931e-08 5.98054e-08)
(1.99523 6.79948e-09 3.09738e-08)
(1.99854 2.43872e-09 8.84651e-09)
(1.99959 7.6975e-10 2.1316e-09)
(1.99989 2.11382e-10 1.92878e-09)
(1.99997 5.61077e-11 -5.11057e-10)
(1.99999 1.26999e-11 -1.00344e-10)
(2 2.62458e-12 -7.84872e-12)
(2 6.63423e-13 3.84151e-12)
(2 6.01028e-13 1.10687e-11)
(2 3.0409e-12 5.07808e-11)
(2 1.61095e-11 2.14341e-10)
(1.99998 7.77771e-11 7.81538e-10)
(1.99991 3.4293e-10 2.04547e-09)
(1.99957 1.33237e-09 3.9118e-09)
(1.99803 5.60678e-09 6.11403e-09)
(1.99161 2.37169e-08 -1.97285e-08)