/*--------------------------------*- C++ -*----------------------------------*\
| =========                 |                                                 |
| \\      /  F ield         | OpenFOAM: The Open Source CFD Toolbox           |
|  \\    /   O peration     | Version:  4.1                                   |
|   \\  /    A nd           | Web:      www.OpenFOAM.org                      |
|    \\/     M anipulation  |                                                 |
\*---------------------------------------------------------------------------*/
FoamFile
{
    version     2.0;
    format      ascii;
    class       volScalarField;
    location    "4.6";
    object      Ma;
}
// * * * * * * * * * * * * * * * * * * * * * * * * * * * * * * * * * * * * * //

dimensions      [0 0 0 0 0 0 0];

internalField   nonuniform List<scalar> 
52500
(
3.00002
2.99997
2.99991
2.99968
2.99936
2.99806
2.99618
2.98901
2.97699
2.9382
2.84944
2.6451
2.10187
1.26535
0.52747
0.278073
0.329276
0.344658
0.312516
0.257945
0.2055
0.163598
0.122382
0.0768521
0.0436568
3.00002
2.99997
2.99992
2.99969
2.99937
2.99808
2.99623
2.98916
2.97732
2.93905
2.85157
2.64981
2.11276
1.27956
0.534785
0.278035
0.33059
0.346734
0.314802
0.261019
0.209918
0.169566
0.130645
0.0903766
0.066423
3.00002
2.99997
2.99992
2.9997
2.99939
2.99813
2.99633
2.98944
2.97797
2.94064
2.85605
2.65922
2.13816
1.31239
0.553276
0.281697
0.336449
0.354305
0.323164
0.271452
0.223308
0.186431
0.152436
0.120543
0.104632
3.00002
2.99997
2.99992
2.99971
2.99941
2.99821
2.99649
2.98986
2.97895
2.94308
2.86279
2.67356
2.17724
1.36417
0.581678
0.288263
0.346209
0.366925
0.337224
0.288504
0.244159
0.211563
0.183098
0.158218
0.146762
3.00002
2.99998
2.99993
2.99972
2.99944
2.99829
2.99665
2.9902
2.98016
2.94552
2.87307
2.69272
2.23287
1.43807
0.621936
0.301621
0.361714
0.385505
0.357216
0.311976
0.271403
0.243037
0.219482
0.200034
0.191667
3.00002
2.99998
2.99993
2.99974
2.99948
2.9984
2.99687
2.99077
2.98159
2.9487
2.88516
2.71574
2.29979
1.53271
0.673805
0.325467
0.385133
0.410831
0.383804
0.341792
0.30507
0.280658
0.261933
0.247474
0.24202
3.00002
2.99998
2.99994
2.99977
2.99952
2.99853
2.99714
2.99157
2.98319
2.95302
2.89685
2.74029
2.37184
1.644
0.736428
0.364112
0.419836
0.44398
0.418018
0.379246
0.345777
0.325222
0.311005
0.302052
0.301907
3.00002
2.99999
2.99995
2.99979
2.99957
2.99867
2.9974
2.99234
2.98475
2.9572
2.90671
2.76305
2.42818
1.73564
0.791964
0.399436
0.448854
0.470233
0.450574
0.419456
0.391422
0.37607
0.368293
0.367271
0.377124
3.00002
2.99999
2.99996
2.99982
2.99962
2.99882
2.99769
2.99314
2.98639
2.96171
2.91608
2.7889
2.47611
1.84548
0.872697
0.45704
0.47284
0.485605
0.479658
0.458951
0.439778
0.43177
0.432775
0.445882
0.480509
3.00002
3
2.99997
2.99985
2.99969
2.99903
2.99806
2.99454
2.98824
2.969
2.92394
2.81762
2.51895
1.96031
0.984648
0.529179
0.48983
0.502621
0.507356
0.496947
0.489238
0.491091
0.50804
0.550724
0.651931
3
2.99995
2.9999
2.99967
2.99934
2.99804
2.99616
2.98899
2.97697
2.93816
2.84941
2.64503
2.1018
1.26522
0.527337
0.277867
0.329089
0.344473
0.31231
0.257693
0.20518
0.163189
0.121827
0.0759501
0.0420234
3
2.99995
2.9999
2.99967
2.99935
2.99806
2.99621
2.98914
2.97729
2.93902
2.85154
2.64974
2.11269
1.27943
0.534654
0.277829
0.330405
0.346551
0.314598
0.260772
0.209606
0.169175
0.13013
0.0896206
0.0653769
3
2.99996
2.9999
2.99968
2.99937
2.99811
2.99631
2.98941
2.97795
2.9406
2.85601
2.65916
2.13809
1.31227
0.55315
0.281494
0.336267
0.354126
0.322967
0.271216
0.223017
0.186079
0.152001
0.119985
0.103982
3
2.99996
2.99991
2.99969
2.9994
2.99819
2.99647
2.98984
2.97893
2.94305
2.86276
2.67349
2.17718
1.36405
0.581556
0.28806
0.346029
0.366751
0.337034
0.288282
0.243895
0.211255
0.182739
0.1578
0.146306
3
2.99996
2.99991
2.99971
2.99942
2.99827
2.99663
2.99018
2.98014
2.94548
2.87305
2.69267
2.23285
1.43797
0.621842
0.301445
0.361554
0.38535
0.357045
0.311777
0.27117
0.242773
0.219188
0.199709
0.191325
3
2.99996
2.99992
2.99973
2.99946
2.99838
2.99685
2.99075
2.98156
2.94867
2.88513
2.71569
2.29974
1.5326
0.673712
0.325299
0.384985
0.410689
0.383651
0.341616
0.304869
0.280436
0.261692
0.247217
0.241754
3
2.99997
2.99992
2.99975
2.9995
2.99851
2.99712
2.99155
2.98317
2.95299
2.89682
2.74024
2.37179
1.6439
0.736335
0.363952
0.419695
0.443849
0.417879
0.379091
0.345605
0.325035
0.310807
0.301846
0.3017
3
2.99997
2.99993
2.99977
2.99955
2.99865
2.99738
2.99232
2.98473
2.95718
2.90668
2.763
2.42814
1.73555
0.791887
0.399295
0.448731
0.470114
0.450449
0.419319
0.391274
0.375914
0.368132
0.367108
0.376963
3
2.99997
2.99994
2.9998
2.9996
2.9988
2.99766
2.99312
2.98637
2.96168
2.91605
2.78885
2.47609
1.84538
0.87262
0.45691
0.472729
0.485496
0.479545
0.45883
0.43965
0.431639
0.432643
0.445754
0.480391
3
2.99998
2.99995
2.99983
2.99967
2.99901
2.99804
2.99452
2.98822
2.96897
2.92391
2.81757
2.51892
1.96023
0.984574
0.529061
0.489723
0.502517
0.507252
0.496839
0.489128
0.490981
0.507934
0.550627
0.651851
3
2.99995
2.9999
2.99967
2.99934
2.99804
2.99616
2.98899
2.97697
2.93816
2.84941
2.64503
2.10179
1.26522
0.527336
0.277868
0.32909
0.344474
0.312311
0.257694
0.205181
0.16319
0.121828
0.0759506
0.0420237
3
2.99995
2.9999
2.99967
2.99935
2.99806
2.99621
2.98914
2.97729
2.93902
2.85154
2.64974
2.11268
1.27943
0.534652
0.27783
0.330405
0.346551
0.314598
0.260772
0.209607
0.169176
0.13013
0.0896209
0.0653773
3
2.99996
2.9999
2.99968
2.99937
2.99811
2.99631
2.98941
2.97795
2.9406
2.85601
2.65915
2.13808
1.31226
0.553148
0.281495
0.336267
0.354126
0.322966
0.271216
0.223017
0.186079
0.152001
0.119985
0.103982
3
2.99996
2.99991
2.99969
2.9994
2.99819
2.99647
2.98984
2.97893
2.94305
2.86276
2.67349
2.17717
1.36404
0.581554
0.288061
0.34603
0.366751
0.337034
0.288282
0.243894
0.211255
0.182739
0.1578
0.146307
3
2.99996
2.99991
2.99971
2.99942
2.99827
2.99663
2.99018
2.98014
2.94548
2.87305
2.69267
2.23284
1.43797
0.62184
0.301446
0.361554
0.38535
0.357044
0.311777
0.27117
0.242773
0.219188
0.199709
0.191325
3
2.99996
2.99992
2.99973
2.99946
2.99838
2.99685
2.99075
2.98156
2.94867
2.88513
2.71569
2.29974
1.5326
0.67371
0.325299
0.384984
0.410689
0.38365
0.341616
0.304869
0.280436
0.261692
0.247217
0.241755
3
2.99997
2.99992
2.99975
2.9995
2.99851
2.99712
2.99155
2.98317
2.95299
2.89682
2.74023
2.37179
1.64389
0.736333
0.363951
0.419694
0.443848
0.417878
0.379091
0.345605
0.325035
0.310807
0.301847
0.3017
3
2.99997
2.99993
2.99977
2.99955
2.99865
2.99738
2.99232
2.98473
2.95718
2.90668
2.763
2.42814
1.73555
0.791886
0.399295
0.448731
0.470114
0.450448
0.419319
0.391273
0.375913
0.368132
0.367108
0.376964
3
2.99997
2.99994
2.9998
2.9996
2.9988
2.99766
2.99312
2.98637
2.96168
2.91605
2.78885
2.47608
1.84538
0.872618
0.456909
0.472729
0.485496
0.479545
0.45883
0.43965
0.431639
0.432643
0.445754
0.480391
3
2.99998
2.99995
2.99983
2.99967
2.99901
2.99804
2.99452
2.98822
2.96897
2.92391
2.81757
2.51892
1.96023
0.984571
0.52906
0.489723
0.502517
0.507252
0.496839
0.489128
0.49098
0.507933
0.550627
0.651851
3
2.99995
2.9999
2.99967
2.99934
2.99804
2.99616
2.98899
2.97697
2.93816
2.84941
2.64503
2.10179
1.26522
0.527336
0.277868
0.32909
0.344474
0.312311
0.257694
0.205181
0.16319
0.121828
0.0759507
0.0420237
3
2.99995
2.9999
2.99967
2.99935
2.99806
2.99621
2.98914
2.97729
2.93902
2.85154
2.64974
2.11268
1.27943
0.534652
0.27783
0.330405
0.346551
0.314598
0.260772
0.209607
0.169176
0.13013
0.0896209
0.0653773
3
2.99996
2.9999
2.99968
2.99937
2.99811
2.99631
2.98941
2.97795
2.9406
2.85601
2.65915
2.13808
1.31226
0.553148
0.281495
0.336267
0.354126
0.322966
0.271216
0.223017
0.186079
0.152001
0.119985
0.103982
3
2.99996
2.99991
2.99969
2.9994
2.99819
2.99647
2.98984
2.97893
2.94305
2.86276
2.67349
2.17717
1.36404
0.581554
0.288061
0.34603
0.366751
0.337034
0.288282
0.243894
0.211255
0.182739
0.1578
0.146307
3
2.99996
2.99991
2.99971
2.99942
2.99827
2.99663
2.99018
2.98014
2.94548
2.87305
2.69267
2.23284
1.43797
0.62184
0.301446
0.361554
0.38535
0.357044
0.311777
0.27117
0.242773
0.219188
0.199709
0.191326
3
2.99996
2.99992
2.99973
2.99946
2.99838
2.99685
2.99075
2.98156
2.94867
2.88513
2.71569
2.29974
1.5326
0.673709
0.325299
0.384984
0.410689
0.38365
0.341616
0.304869
0.280436
0.261692
0.247217
0.241755
3
2.99997
2.99992
2.99975
2.9995
2.99851
2.99712
2.99155
2.98317
2.95299
2.89682
2.74023
2.37178
1.64389
0.736333
0.363951
0.419694
0.443848
0.417878
0.379091
0.345605
0.325035
0.310807
0.301847
0.301701
3
2.99997
2.99993
2.99977
2.99955
2.99865
2.99738
2.99232
2.98473
2.95718
2.90668
2.763
2.42814
1.73555
0.791886
0.399295
0.448731
0.470114
0.450448
0.419319
0.391273
0.375913
0.368132
0.367108
0.376964
3
2.99997
2.99994
2.9998
2.9996
2.9988
2.99766
2.99312
2.98637
2.96168
2.91605
2.78885
2.47608
1.84538
0.872618
0.456909
0.472729
0.485496
0.479545
0.45883
0.43965
0.431639
0.432643
0.445754
0.480391
3
2.99998
2.99995
2.99983
2.99967
2.99901
2.99804
2.99452
2.98822
2.96897
2.92391
2.81757
2.51892
1.96023
0.984571
0.52906
0.489723
0.502517
0.507252
0.496839
0.489128
0.49098
0.507933
0.550627
0.651851
3
2.99995
2.9999
2.99967
2.99934
2.99804
2.99616
2.98899
2.97697
2.93816
2.84941
2.64503
2.10179
1.26522
0.527336
0.277868
0.32909
0.344474
0.312311
0.257694
0.205181
0.16319
0.121828
0.0759507
0.0420237
3
2.99995
2.9999
2.99967
2.99935
2.99806
2.99621
2.98914
2.97729
2.93902
2.85154
2.64974
2.11268
1.27943
0.534652
0.27783
0.330405
0.346551
0.314598
0.260772
0.209607
0.169176
0.13013
0.0896209
0.0653773
3
2.99996
2.9999
2.99968
2.99937
2.99811
2.99631
2.98941
2.97795
2.9406
2.85601
2.65915
2.13808
1.31226
0.553148
0.281495
0.336267
0.354126
0.322966
0.271216
0.223017
0.186079
0.152001
0.119985
0.103982
3
2.99996
2.99991
2.99969
2.9994
2.99819
2.99647
2.98984
2.97893
2.94305
2.86276
2.67349
2.17717
1.36404
0.581554
0.288061
0.34603
0.366751
0.337034
0.288282
0.243894
0.211255
0.182739
0.1578
0.146307
3
2.99996
2.99991
2.99971
2.99942
2.99827
2.99663
2.99018
2.98014
2.94548
2.87305
2.69267
2.23284
1.43797
0.62184
0.301446
0.361554
0.38535
0.357044
0.311777
0.27117
0.242773
0.219188
0.199709
0.191325
3
2.99996
2.99992
2.99973
2.99946
2.99838
2.99685
2.99075
2.98156
2.94867
2.88513
2.71569
2.29974
1.5326
0.67371
0.325299
0.384984
0.410689
0.38365
0.341616
0.304869
0.280436
0.261692
0.247217
0.241755
3
2.99997
2.99992
2.99975
2.9995
2.99851
2.99712
2.99155
2.98317
2.95299
2.89682
2.74023
2.37179
1.64389
0.736333
0.363951
0.419694
0.443848
0.417878
0.379091
0.345605
0.325035
0.310807
0.301847
0.3017
3
2.99997
2.99993
2.99977
2.99955
2.99865
2.99738
2.99232
2.98473
2.95718
2.90668
2.763
2.42814
1.73555
0.791886
0.399295
0.448731
0.470114
0.450448
0.419319
0.391273
0.375913
0.368132
0.367108
0.376964
3
2.99997
2.99994
2.9998
2.9996
2.9988
2.99766
2.99312
2.98637
2.96168
2.91605
2.78885
2.47608
1.84538
0.872618
0.456909
0.472729
0.485496
0.479545
0.45883
0.43965
0.431639
0.432643
0.445754
0.480391
3
2.99998
2.99995
2.99983
2.99967
2.99901
2.99804
2.99452
2.98822
2.96897
2.92391
2.81757
2.51892
1.96023
0.984571
0.52906
0.489723
0.502517
0.507252
0.496839
0.489128
0.49098
0.507933
0.550627
0.651851
3
2.99995
2.9999
2.99967
2.99934
2.99804
2.99616
2.98899
2.97697
2.93816
2.84941
2.64503
2.10179
1.26522
0.527335
0.277868
0.32909
0.344474
0.312311
0.257694
0.205181
0.16319
0.121828
0.0759507
0.0420237
3
2.99995
2.9999
2.99967
2.99935
2.99806
2.99621
2.98914
2.97729
2.93902
2.85154
2.64974
2.11268
1.27943
0.534652
0.27783
0.330405
0.346551
0.314598
0.260772
0.209607
0.169176
0.13013
0.0896209
0.0653773
3
2.99996
2.9999
2.99968
2.99937
2.99811
2.99631
2.98941
2.97795
2.9406
2.85601
2.65915
2.13808
1.31226
0.553148
0.281495
0.336267
0.354126
0.322966
0.271216
0.223017
0.186079
0.152001
0.119985
0.103982
3
2.99996
2.99991
2.99969
2.9994
2.99819
2.99647
2.98984
2.97893
2.94305
2.86276
2.67349
2.17717
1.36404
0.581554
0.288061
0.34603
0.366751
0.337034
0.288282
0.243894
0.211255
0.182739
0.1578
0.146307
3
2.99996
2.99991
2.99971
2.99942
2.99827
2.99663
2.99018
2.98014
2.94548
2.87305
2.69267
2.23284
1.43797
0.62184
0.301446
0.361554
0.38535
0.357044
0.311777
0.27117
0.242773
0.219188
0.199709
0.191325
3
2.99996
2.99992
2.99973
2.99946
2.99838
2.99685
2.99075
2.98156
2.94867
2.88513
2.71569
2.29974
1.5326
0.67371
0.325299
0.384984
0.410689
0.38365
0.341616
0.304869
0.280436
0.261692
0.247217
0.241755
3
2.99997
2.99992
2.99975
2.9995
2.99851
2.99712
2.99155
2.98317
2.95299
2.89682
2.74023
2.37179
1.64389
0.736333
0.363951
0.419694
0.443848
0.417878
0.379091
0.345605
0.325035
0.310807
0.301847
0.3017
3
2.99997
2.99993
2.99977
2.99955
2.99865
2.99738
2.99232
2.98473
2.95718
2.90668
2.763
2.42814
1.73555
0.791886
0.399295
0.448731
0.470114
0.450448
0.419319
0.391273
0.375913
0.368132
0.367108
0.376964
3
2.99997
2.99994
2.9998
2.9996
2.9988
2.99766
2.99312
2.98637
2.96168
2.91605
2.78885
2.47608
1.84538
0.872618
0.456909
0.472729
0.485496
0.479545
0.45883
0.43965
0.431639
0.432643
0.445754
0.480391
3
2.99998
2.99995
2.99983
2.99967
2.99901
2.99804
2.99452
2.98822
2.96897
2.92391
2.81757
2.51892
1.96023
0.984571
0.52906
0.489723
0.502517
0.507252
0.496839
0.489128
0.49098
0.507933
0.550627
0.651851
3
2.99995
2.9999
2.99967
2.99934
2.99804
2.99616
2.98899
2.97697
2.93816
2.84941
2.64503
2.10179
1.26522
0.527336
0.277868
0.32909
0.344474
0.312311
0.257694
0.205181
0.16319
0.121828
0.0759507
0.0420237
3
2.99995
2.9999
2.99967
2.99935
2.99806
2.99621
2.98914
2.97729
2.93902
2.85154
2.64974
2.11268
1.27943
0.534652
0.27783
0.330405
0.346551
0.314598
0.260772
0.209607
0.169176
0.13013
0.0896209
0.0653773
3
2.99996
2.9999
2.99968
2.99937
2.99811
2.99631
2.98941
2.97795
2.9406
2.85601
2.65915
2.13808
1.31226
0.553148
0.281495
0.336267
0.354126
0.322966
0.271216
0.223017
0.186079
0.152001
0.119985
0.103982
3
2.99996
2.99991
2.99969
2.9994
2.99819
2.99647
2.98984
2.97893
2.94305
2.86276
2.67349
2.17717
1.36404
0.581554
0.288061
0.34603
0.366751
0.337034
0.288282
0.243894
0.211255
0.182739
0.1578
0.146307
3
2.99996
2.99991
2.99971
2.99942
2.99827
2.99663
2.99018
2.98014
2.94548
2.87305
2.69267
2.23284
1.43797
0.62184
0.301446
0.361554
0.38535
0.357044
0.311777
0.27117
0.242773
0.219188
0.199709
0.191326
3
2.99996
2.99992
2.99973
2.99946
2.99838
2.99685
2.99075
2.98156
2.94867
2.88513
2.71569
2.29974
1.5326
0.67371
0.325299
0.384984
0.410689
0.38365
0.341616
0.304869
0.280436
0.261692
0.247217
0.241755
3
2.99997
2.99992
2.99975
2.9995
2.99851
2.99712
2.99155
2.98317
2.95299
2.89682
2.74023
2.37179
1.64389
0.736333
0.363951
0.419694
0.443848
0.417878
0.379091
0.345605
0.325035
0.310807
0.301847
0.301701
3
2.99997
2.99993
2.99977
2.99955
2.99865
2.99738
2.99232
2.98473
2.95718
2.90668
2.763
2.42814
1.73555
0.791886
0.399295
0.448731
0.470114
0.450448
0.419319
0.391273
0.375913
0.368132
0.367108
0.376964
3
2.99997
2.99994
2.9998
2.9996
2.9988
2.99766
2.99312
2.98637
2.96168
2.91605
2.78885
2.47608
1.84538
0.872618
0.456909
0.472729
0.485496
0.479545
0.45883
0.43965
0.431639
0.432643
0.445754
0.480391
3
2.99998
2.99995
2.99983
2.99967
2.99901
2.99804
2.99452
2.98822
2.96897
2.92391
2.81757
2.51892
1.96023
0.984571
0.52906
0.489723
0.502517
0.507252
0.496839
0.489128
0.49098
0.507933
0.550627
0.651851
3
2.99995
2.9999
2.99967
2.99934
2.99804
2.99616
2.98899
2.97697
2.93816
2.84941
2.64503
2.10179
1.26522
0.527336
0.277868
0.32909
0.344474
0.312311
0.257694
0.205181
0.16319
0.121828
0.0759506
0.0420237
3
2.99995
2.9999
2.99967
2.99935
2.99806
2.99621
2.98914
2.97729
2.93902
2.85154
2.64974
2.11268
1.27943
0.534652
0.27783
0.330405
0.346551
0.314598
0.260772
0.209607
0.169176
0.13013
0.0896209
0.0653773
3
2.99996
2.9999
2.99968
2.99937
2.99811
2.99631
2.98941
2.97795
2.9406
2.85601
2.65915
2.13808
1.31226
0.553148
0.281495
0.336267
0.354126
0.322966
0.271216
0.223017
0.186079
0.152001
0.119985
0.103982
3
2.99996
2.99991
2.99969
2.9994
2.99819
2.99647
2.98984
2.97893
2.94305
2.86276
2.67349
2.17717
1.36404
0.581554
0.288061
0.34603
0.366751
0.337034
0.288282
0.243894
0.211255
0.182739
0.1578
0.146307
3
2.99996
2.99991
2.99971
2.99942
2.99827
2.99663
2.99018
2.98014
2.94548
2.87305
2.69267
2.23284
1.43797
0.62184
0.301446
0.361554
0.38535
0.357044
0.311777
0.27117
0.242773
0.219188
0.199709
0.191325
3
2.99996
2.99992
2.99973
2.99946
2.99838
2.99685
2.99075
2.98156
2.94867
2.88513
2.71569
2.29974
1.5326
0.67371
0.325299
0.384984
0.410689
0.38365
0.341616
0.304869
0.280436
0.261692
0.247217
0.241755
3
2.99997
2.99992
2.99975
2.9995
2.99851
2.99712
2.99155
2.98317
2.95299
2.89682
2.74023
2.37179
1.64389
0.736333
0.363951
0.419694
0.443848
0.417878
0.379091
0.345605
0.325035
0.310807
0.301847
0.3017
3
2.99997
2.99993
2.99977
2.99955
2.99865
2.99738
2.99232
2.98473
2.95718
2.90668
2.763
2.42814
1.73555
0.791886
0.399295
0.448731
0.470114
0.450448
0.419319
0.391273
0.375913
0.368132
0.367108
0.376964
3
2.99997
2.99994
2.9998
2.9996
2.9988
2.99766
2.99312
2.98637
2.96168
2.91605
2.78885
2.47608
1.84538
0.872618
0.456909
0.472729
0.485496
0.479545
0.45883
0.43965
0.431639
0.432643
0.445754
0.480391
3
2.99998
2.99995
2.99983
2.99967
2.99901
2.99804
2.99452
2.98822
2.96897
2.92391
2.81757
2.51892
1.96023
0.984571
0.52906
0.489723
0.502517
0.507252
0.496839
0.489128
0.49098
0.507933
0.550627
0.651851
3
2.99995
2.9999
2.99967
2.99934
2.99804
2.99616
2.98899
2.97697
2.93816
2.84941
2.64503
2.1018
1.26522
0.527337
0.277867
0.329089
0.344473
0.31231
0.257693
0.20518
0.163189
0.121827
0.0759501
0.0420234
3
2.99995
2.9999
2.99967
2.99935
2.99806
2.99621
2.98914
2.97729
2.93902
2.85154
2.64974
2.11269
1.27943
0.534654
0.277829
0.330405
0.346551
0.314598
0.260772
0.209606
0.169175
0.13013
0.0896206
0.0653769
3
2.99996
2.9999
2.99968
2.99937
2.99811
2.99631
2.98941
2.97795
2.9406
2.85601
2.65916
2.13809
1.31227
0.55315
0.281494
0.336267
0.354126
0.322967
0.271216
0.223017
0.186079
0.152001
0.119985
0.103982
3
2.99996
2.99991
2.99969
2.9994
2.99819
2.99647
2.98984
2.97893
2.94305
2.86276
2.67349
2.17718
1.36405
0.581556
0.28806
0.346029
0.366751
0.337034
0.288282
0.243895
0.211255
0.182739
0.1578
0.146306
3
2.99996
2.99991
2.99971
2.99942
2.99827
2.99663
2.99018
2.98014
2.94548
2.87305
2.69267
2.23285
1.43797
0.621842
0.301445
0.361554
0.38535
0.357045
0.311777
0.27117
0.242773
0.219188
0.199709
0.191325
3
2.99996
2.99992
2.99973
2.99946
2.99838
2.99685
2.99075
2.98156
2.94867
2.88513
2.71569
2.29974
1.5326
0.673712
0.325299
0.384985
0.410689
0.383651
0.341616
0.304869
0.280436
0.261692
0.247217
0.241754
3
2.99997
2.99992
2.99975
2.9995
2.99851
2.99712
2.99155
2.98317
2.95299
2.89682
2.74024
2.37179
1.6439
0.736335
0.363952
0.419695
0.443849
0.417879
0.379091
0.345605
0.325035
0.310807
0.301846
0.3017
3
2.99997
2.99993
2.99977
2.99955
2.99865
2.99738
2.99232
2.98473
2.95718
2.90668
2.763
2.42814
1.73555
0.791887
0.399295
0.448731
0.470114
0.450449
0.419319
0.391274
0.375914
0.368132
0.367108
0.376963
3
2.99997
2.99994
2.9998
2.9996
2.9988
2.99766
2.99312
2.98637
2.96168
2.91605
2.78885
2.47609
1.84538
0.87262
0.45691
0.472729
0.485496
0.479545
0.45883
0.43965
0.431639
0.432643
0.445754
0.480391
3
2.99998
2.99995
2.99983
2.99967
2.99901
2.99804
2.99452
2.98822
2.96897
2.92391
2.81757
2.51892
1.96023
0.984574
0.529061
0.489723
0.502517
0.507252
0.496839
0.489128
0.490981
0.507934
0.550627
0.651851
3.00002
2.99997
2.99991
2.99968
2.99936
2.99806
2.99618
2.98901
2.97699
2.93819
2.84944
2.6451
2.10187
1.26534
0.52747
0.278073
0.329276
0.344658
0.312516
0.257945
0.2055
0.163598
0.122382
0.0768521
0.0436568
3.00002
2.99997
2.99992
2.99969
2.99937
2.99808
2.99623
2.98916
2.97732
2.93905
2.85157
2.64981
2.11276
1.27955
0.534785
0.278035
0.33059
0.346734
0.314802
0.261019
0.209918
0.169566
0.130645
0.0903766
0.066423
3.00002
2.99997
2.99992
2.9997
2.99939
2.99813
2.99633
2.98944
2.97797
2.94064
2.85605
2.65922
2.13816
1.31239
0.553276
0.281697
0.336449
0.354305
0.323164
0.271452
0.223308
0.186431
0.152436
0.120543
0.104632
3.00002
2.99997
2.99992
2.99971
2.99941
2.99821
2.99649
2.98986
2.97895
2.94308
2.86279
2.67356
2.17724
1.36417
0.581678
0.288263
0.346209
0.366925
0.337224
0.288504
0.244159
0.211563
0.183098
0.158218
0.146762
3.00002
2.99998
2.99993
2.99972
2.99944
2.99829
2.99665
2.9902
2.98016
2.94552
2.87307
2.69272
2.23287
1.43807
0.621936
0.301621
0.361714
0.385505
0.357216
0.311976
0.271403
0.243037
0.219482
0.200034
0.191667
3.00002
2.99998
2.99993
2.99974
2.99948
2.9984
2.99687
2.99077
2.98159
2.9487
2.88516
2.71574
2.29979
1.53271
0.673804
0.325467
0.385133
0.410831
0.383804
0.341792
0.30507
0.280658
0.261933
0.247474
0.24202
3.00002
2.99998
2.99994
2.99977
2.99952
2.99853
2.99714
2.99157
2.98319
2.95302
2.89685
2.74029
2.37184
1.644
0.736428
0.364112
0.419836
0.44398
0.418018
0.379246
0.345777
0.325222
0.311005
0.302052
0.301907
3.00002
2.99999
2.99995
2.99979
2.99957
2.99867
2.9974
2.99234
2.98475
2.9572
2.90671
2.76305
2.42818
1.73564
0.791964
0.399436
0.448855
0.470233
0.450574
0.419456
0.391422
0.37607
0.368293
0.367271
0.377124
3.00002
2.99999
2.99996
2.99982
2.99962
2.99882
2.99769
2.99314
2.98639
2.96171
2.91608
2.7889
2.47611
1.84547
0.872697
0.45704
0.47284
0.485605
0.479658
0.458951
0.439778
0.43177
0.432775
0.445882
0.480509
3.00002
3
2.99997
2.99985
2.99969
2.99903
2.99806
2.99454
2.98824
2.969
2.92394
2.81762
2.51895
1.96031
0.984648
0.529179
0.48983
0.502621
0.507356
0.496947
0.489238
0.491091
0.50804
0.550724
0.651931
3.00002
3.00001
2.99996
2.9999
2.99965
2.99928
2.99786
2.99569
2.98791
2.97393
2.93133
2.83024
2.60534
2.02368
1.16271
0.618622
0.513311
0.525935
0.537216
0.535919
0.537693
0.552093
0.590989
0.675514
0.854363
3.00002
3.00001
2.99997
2.99991
2.99969
2.99938
2.99812
2.99632
2.98942
2.97791
2.94069
2.85604
2.66018
2.14267
1.32942
0.710029
0.536223
0.550717
0.568493
0.575989
0.586567
0.613658
0.670347
0.775063
0.963695
3.00002
3.00001
2.99998
2.99993
2.99974
2.99947
2.99837
2.99683
2.99063
2.98131
2.9482
2.88262
2.71245
2.28853
1.52957
0.818664
0.572225
0.584907
0.603466
0.617107
0.634142
0.669321
0.734366
0.838366
1.00021
3.00002
3.00001
2.99999
2.99995
2.99979
2.99956
2.99866
2.99738
2.99228
2.98468
2.95704
2.90718
2.76307
2.44101
1.75992
0.940778
0.628733
0.632744
0.647196
0.663678
0.683459
0.721197
0.784781
0.878193
1.01298
3.00002
3.00002
2.99999
2.99996
2.99983
2.99965
2.99893
2.99789
2.99383
2.98759
2.96568
2.92393
2.80969
2.52912
1.94784
1.06116
0.693861
0.673277
0.687388
0.705144
0.727522
0.764806
0.827052
0.909627
1.02209
3.00002
3.00002
3.00001
2.99996
2.9999
2.99967
2.99932
2.998
2.99597
2.98884
2.97567
2.93689
2.84285
2.63681
2.08744
1.27547
0.79831
0.708845
0.72132
0.740056
0.766171
0.802137
0.858249
0.934975
1.03107
3.00002
3.00002
3.00001
2.99997
2.99993
2.99973
2.99945
2.99832
2.99674
2.99046
2.98078
2.94737
2.87829
2.70653
2.27127
1.51967
0.918811
0.744377
0.750083
0.769813
0.800784
0.837311
0.886859
0.954858
1.03884
3.00002
3.00002
3.00001
2.99999
2.99995
2.9998
2.99958
2.99872
2.99747
2.99263
2.98522
2.95897
2.91061
2.7727
2.46577
1.80149
1.07414
0.805031
0.790831
0.804697
0.832496
0.86958
0.915341
0.97524
1.04877
3.00002
3.00002
3.00001
3
2.99996
2.99989
2.99962
2.99923
2.99772
2.99546
2.98723
2.97311
2.92884
2.82803
2.60179
2.04484
1.25329
0.879388
0.832046
0.843228
0.866467
0.900465
0.940886
0.993166
1.05754
3.00003
3.00002
3.00002
3.00001
2.99997
2.99992
2.99972
2.99943
2.99829
2.99661
2.99041
2.97985
2.94646
2.87066
2.69498
2.2393
1.48841
0.992407
0.871175
0.874832
0.896042
0.929201
0.96747
1.0126
1.06808
3.00003
3.00003
3.00002
3.00001
3
2.99994
2.99985
2.99951
2.99901
2.99716
2.99411
2.98421
2.96345
2.90922
2.76811
2.48294
1.8087
1.16916
0.932992
0.913648
0.925993
0.95389
0.991004
1.03266
1.08038
3.00003
3.00003
3.00002
3.00002
3
2.99996
2.99989
2.99964
2.99927
2.99783
2.99572
2.98784
2.97477
2.9329
2.83941
2.62832
2.1014
1.35799
1.01064
0.953694
0.960734
0.982229
1.01511
1.05371
1.09689
3.00003
3.00003
3.00003
3.00002
3.00001
2.99999
2.99992
2.99981
2.9994
2.99878
2.99658
2.99274
2.98085
2.95434
2.88859
2.71338
2.36958
1.61339
1.14326
0.999958
0.994042
1.00694
1.03505
1.07215
1.11243
3.00003
3.00003
3.00003
3.00002
3.00001
3
2.99995
2.99987
2.99956
2.99912
2.99738
2.99488
2.98532
2.97014
2.92073
2.81815
2.56531
2.02791
1.33059
1.0724
1.0363
1.04079
1.06111
1.09332
1.13022
3.00003
3.00003
3.00003
3.00002
3.00002
3.00001
2.99998
2.99989
2.99977
2.99928
2.99855
2.99583
2.99159
2.97709
2.94954
2.87356
2.68788
2.30087
1.56345
1.17241
1.07379
1.0706
1.0846
1.11163
1.14716
3.00003
3.00003
3.00003
3.00003
3.00002
3.00001
3
2.99994
2.99985
2.99951
2.99903
2.99714
2.99438
2.98425
2.96724
2.9147
2.79591
2.538
1.94193
1.35287
1.13508
1.10784
1.11367
1.13486
1.16498
3.00003
3.00003
3.00003
3.00003
3.00002
3.00002
3
2.99998
2.99988
2.99974
2.99921
2.99842
2.99549
2.99092
2.97519
2.94617
2.86573
2.67823
2.26031
1.56612
1.22446
1.14562
1.14285
1.15668
1.18212
3.00003
3.00003
3.00003
3.00003
3.00003
3.00002
3.00001
3
2.99993
2.99984
2.99949
2.99898
2.99701
2.99413
2.98359
2.9659
2.91158
2.78965
2.52356
1.92726
1.39471
1.20289
1.1769
1.18265
1.20255
3.00003
3.00003
3.00003
3.00003
3.00003
3.00002
3.00002
3
2.99998
2.99988
2.99974
2.9992
2.99839
2.99544
2.99073
2.97495
2.9458
2.86243
2.68656
2.24576
1.61838
1.29927
1.22001
1.21359
1.22309
3.00003
3.00003
3.00003
3.00003
3.00003
3.00003
3.00002
3.00001
2.99999
2.99995
2.9998
2.99959
2.99878
2.99756
2.99314
2.9861
2.96276
2.91828
2.80017
2.53276
1.96837
1.45348
1.27364
1.2465
1.24957
3.00003
3.00003
3.00003
3.00003
3.00003
3.00003
3.00002
3.00002
3
2.99998
2.99988
2.99975
2.99923
2.99847
2.9956
2.99129
2.97605
2.94969
2.8719
2.70815
2.31365
1.69211
1.37009
1.28632
1.277
3.00003
3.00003
3.00003
3.00003
3.00003
3.00003
3.00003
3.00002
3.00002
2.99999
2.99996
2.99982
2.99962
2.99889
2.99778
2.99379
2.98743
2.96654
2.92714
2.82073
2.5897
2.07028
1.54218
1.34014
1.31051
3.00003
3.00003
3.00003
3.00003
3.00003
3.00003
3.00003
3.00002
3.00002
3.00001
2.99998
2.9999
2.99978
2.99931
2.99863
2.99607
2.99229
2.97879
2.95548
2.88966
2.73976
2.41535
1.78449
1.43868
1.344
3.00003
3.00003
3.00003
3.00003
3.00003
3.00003
3.00003
3.00003
3.00002
3.00001
3
2.99995
2.99988
2.9996
2.99919
2.99766
2.99543
2.98729
2.97421
2.93295
2.85111
2.64808
2.20996
1.64154
1.41167
3.00003
3.00003
3.00003
3.00003
3.00003
3.00003
3.00003
3.00003
3.00003
3.00002
3.00001
2.99998
2.99994
2.99977
2.99952
2.99859
2.99725
2.99222
2.98452
2.9584
2.90921
2.78277
2.48068
1.91796
1.53304
3.00003
3.00003
3.00003
3.00003
3.00003
3.00003
3.00003
3.00003
3.00003
3.00003
3.00002
3.00001
2.99996
2.9999
2.99968
2.99934
2.9981
2.99622
2.98964
2.97864
2.94474
2.87244
2.70745
2.31185
1.74498
3.00003
3.00003
3.00003
3.00003
3.00003
3.00003
3.00003
3.00003
3.00003
3.00003
3.00002
3.00001
3
2.99994
2.99986
2.99955
2.99909
2.99744
2.99487
2.98621
2.97085
2.92683
2.82682
2.61643
2.12406
3.00003
3.00003
3.00003
3.00003
3.00003
3.00003
3.00003
3.00003
3.00003
3.00003
3.00003
3.00002
3.00001
2.99999
2.99991
2.99979
2.99937
2.99873
2.99646
2.99287
2.98102
2.95916
2.8996
2.7675
2.46083
3.00003
3.00003
3.00003
3.00003
3.00003
3.00003
3.00003
3.00003
3.00003
3.00003
3.00003
3.00002
3.00002
3
2.99996
2.99989
2.99965
2.99929
2.99796
2.99601
2.98893
2.97773
2.94188
2.87231
2.69821
3.00003
3.00003
3.00003
3.00003
3.00003
3.00003
3.00003
3.00003
3.00003
3.00003
3.00003
3.00003
3.00002
3.00001
3
2.99994
2.99985
2.99954
2.99906
2.99738
2.99477
2.98586
2.97071
2.92639
2.83184
3.00003
3.00003
3.00003
3.00003
3.00003
3.00003
3.00003
3.00003
3.00003
3.00003
3.00003
3.00003
3.00003
3.00002
3.00001
2.99999
2.99991
2.99979
2.99938
2.99874
2.99653
2.99298
2.98146
2.96063
2.90155
3.00003
3.00003
3.00003
3.00003
3.00003
3.00003
3.00003
3.00003
3.00003
3.00003
3.00003
3.00003
3.00003
3.00002
3.00002
3
2.99997
2.99987
2.99972
2.99917
2.99833
2.99542
2.99073
2.97567
2.94828
3.00003
3.00003
3.00003
3.00003
3.00003
3.00003
3.00003
3.00003
3.00003
3.00003
3.00003
3.00003
3.00003
3.00003
3.00002
3.00001
3
2.99993
2.99985
2.99952
2.99904
2.99729
2.99464
2.98549
2.97049
3.00003
3.00003
3.00003
3.00003
3.00003
3.00003
3.00003
3.00003
3.00003
3.00003
3.00003
3.00003
3.00003
3.00003
3.00002
3.00002
3
2.99998
2.99989
2.99975
2.99925
2.99849
2.99577
2.99151
2.97715
3.00003
3.00003
3.00003
3.00003
3.00003
3.00003
3.00003
3.00003
3.00003
3.00003
3.00003
3.00003
3.00003
3.00003
3.00003
3.00002
3.00001
2.99998
2.99994
2.99976
2.99951
2.99854
2.99709
2.99179
2.98312
3.00003
3.00003
3.00003
3.00003
3.00003
3.00003
3.00003
3.00003
3.00003
3.00003
3.00003
3.00003
3.00003
3.00003
3.00003
3.00002
3.00001
3
2.99993
2.99984
2.99949
2.99896
2.99706
2.99376
2.9835
3.00003
3.00003
3.00003
3.00003
3.00003
3.00003
3.00003
3.00003
3.00003
3.00003
3.00003
3.00003
3.00003
3.00003
3.00003
3.00002
3.00002
2.99999
2.99995
2.9998
2.99957
2.9987
2.99742
2.99247
2.98474
3.00003
3.00003
3.00003
3.00003
3.00003
3.00003
3.00003
3.00003
3.00003
3.00003
3.00003
3.00003
3.00003
3.00003
3.00003
3.00002
3.00002
2.99999
2.99995
2.9998
2.99959
2.99873
2.99749
2.99266
2.98509
3.00003
3.00003
3.00003
3.00003
3.00003
3.00003
3.00003
3.00003
3.00003
3.00003
3.00003
3.00003
3.00003
3.00003
3.00003
3.00002
3.00001
3
2.99994
2.99985
2.99951
2.99901
2.99705
2.99407
2.98353
3.00003
3.00003
3.00003
3.00003
3.00003
3.00003
3.00003
3.00003
3.00003
3.00003
3.00003
3.00003
3.00003
3.00003
3.00003
3.00002
3.00001
3
2.99994
2.99985
2.99949
2.999
2.99698
2.99407
2.98297
3
2.99999
2.99994
2.99988
2.99963
2.99926
2.99784
2.99567
2.98789
2.97391
2.9313
2.83021
2.60528
2.02363
1.16262
0.618516
0.513208
0.525836
0.537119
0.535821
0.537597
0.551999
0.590902
0.675441
0.854314
3
2.99999
2.99995
2.9999
2.99967
2.99936
2.9981
2.99629
2.9894
2.97789
2.94065
2.85601
2.66012
2.14262
1.32932
0.709934
0.53612
0.550618
0.5684
0.5759
0.586481
0.613578
0.670275
0.775004
0.963651
3
2.99999
2.99996
2.99991
2.99972
2.99945
2.99835
2.9968
2.99061
2.98129
2.94817
2.8826
2.7124
2.28851
1.52949
0.818589
0.572128
0.584812
0.603378
0.617024
0.634064
0.669249
0.734303
0.838314
1.00017
3
3
2.99997
2.99993
2.99977
2.99954
2.99864
2.99736
2.99226
2.98466
2.95701
2.90715
2.76303
2.44098
1.75985
0.940713
0.628644
0.63266
0.647117
0.663603
0.683388
0.721132
0.784723
0.878143
1.01294
3
3
2.99997
2.99994
2.99982
2.99963
2.99891
2.99786
2.99381