/*--------------------------------*- C++ -*----------------------------------*\
| =========                 |                                                 |
| \\      /  F ield         | OpenFOAM: The Open Source CFD Toolbox           |
|  \\    /   O peration     | Version:  4.1                                   |
|   \\  /    A nd           | Web:      www.OpenFOAM.org                      |
|    \\/     M anipulation  |                                                 |
\*---------------------------------------------------------------------------*/
FoamFile
{
    version     2.0;
    format      ascii;
    class       volScalarField;
    location    "9.9";
    object      Ma;
}
// * * * * * * * * * * * * * * * * * * * * * * * * * * * * * * * * * * * * * //

dimensions      [0 0 0 0 0 0 0];

internalField   nonuniform List<scalar> 
52500
(
3.00001
2.99995
2.99988
2.99957
2.99913
2.99737
2.99486
2.98504
2.96938
2.91704
2.80347
2.53187
1.89247
0.971899
0.391055
0.326635
0.343416
0.340056
0.308384
0.256743
0.206853
0.165221
0.123812
0.077987
0.044837
3.00001
2.99995
2.99988
2.99957
2.99914
2.99739
2.99491
2.98518
2.96968
2.91777
2.80543
2.53608
1.90067
0.982247
0.398118
0.328188
0.345345
0.342555
0.3113
0.260531
0.211861
0.171641
0.132419
0.0917132
0.0679238
3.00001
2.99995
2.99988
2.99958
2.99916
2.99744
2.99501
2.98544
2.97029
2.91927
2.8095
2.54482
1.91828
1.00497
0.414041
0.332421
0.350615
0.349398
0.319375
0.270833
0.225052
0.188323
0.15417
0.122146
0.106814
3.00001
2.99996
2.99988
2.99959
2.99918
2.99752
2.99515
2.98584
2.9712
2.92151
2.81564
2.55799
1.94506
1.04016
0.438075
0.338504
0.358482
0.359761
0.331688
0.286439
0.2447
0.212703
0.184439
0.160029
0.149739
3.00001
2.99996
2.99989
2.99961
2.99922
2.99763
2.99536
2.98646
2.97244
2.92479
2.8229
2.57659
1.97776
1.0844
0.466855
0.343765
0.367043
0.372043
0.346754
0.305737
0.268784
0.242079
0.219916
0.201771
0.195038
3.00001
2.99996
2.9999
2.99963
2.99927
2.99776
2.99563
2.98723
2.97399
2.9289
2.83183
2.59991
2.01922
1.14224
0.503074
0.349912
0.377225
0.386843
0.364626
0.328695
0.297204
0.276114
0.260027
0.248025
0.245128
3.00002
2.99997
2.99991
2.99966
2.99932
2.99794
2.99596
2.98832
2.97583
2.93463
2.8422
2.62745
2.06861
1.21457
0.545353
0.355896
0.388456
0.403419
0.384719
0.354169
0.32914
0.314556
0.305425
0.300536
0.303473
3.00002
2.99997
2.99992
2.9997
2.99938
2.99812
2.99631
2.98934
2.97787
2.9403
2.8556
2.65797
2.13524
1.30767
0.597685
0.366045
0.403268
0.423453
0.408048
0.383125
0.364552
0.357209
0.356249
0.360968
0.374974
3.00002
2.99998
2.99993
2.99972
2.99944
2.99828
2.99664
2.99011
2.98006
2.94509
2.87249
2.6908
2.22695
1.42987
0.664091
0.385538
0.424706
0.448124
0.435067
0.416046
0.404389
0.404447
0.413507
0.433428
0.471421
3.00002
2.99998
2.99994
2.99976
2.99951
2.9985
2.99703
2.99132
2.98242
2.95148
2.88957
2.72638
2.32717
1.56478
0.744184
0.421921
0.458476
0.480113
0.468637
0.45414
0.448333
0.455528
0.479098
0.527329
0.630158
2.99999
2.99993
2.99986
2.99955
2.99911
2.99735
2.99484
2.98502
2.96935
2.91699
2.80339
2.53173
1.89221
0.971528
0.390746
0.326469
0.343233
0.339847
0.308145
0.256456
0.206505
0.164788
0.123232
0.0770692
0.0432204
2.99999
2.99994
2.99986
2.99955
2.99912
2.99737
2.99489
2.98515
2.96965
2.91772
2.80535
2.53594
1.90041
0.981877
0.397814
0.328024
0.345164
0.342348
0.311064
0.260251
0.211526
0.171231
0.131888
0.090948
0.0668735
2.99999
2.99994
2.99986
2.99956
2.99914
2.99742
2.99498
2.98542
2.97026
2.91923
2.80943
2.54469
1.91803
1.0046
0.413744
0.332255
0.350432
0.349191
0.319144
0.270564
0.224739
0.187954
0.153721
0.121577
0.106145
2.99999
2.99994
2.99987
2.99957
2.99916
2.9975
2.99513
2.98582
2.97117
2.92146
2.81556
2.55785
1.94481
1.03982
0.437807
0.338366
0.358326
0.359583
0.331487
0.286204
0.244427
0.212388
0.184071
0.159596
0.149256
2.99999
2.99994
2.99987
2.99959
2.9992
2.99761
2.99534
2.98643
2.97242
2.92474
2.82284
2.57645
1.97757
1.0841
0.466629
0.343647
0.366906
0.371887
0.34658
0.305535
0.26855
0.241813
0.219614
0.20143
0.194665
3
2.99995
2.99988
2.99962
2.99925
2.99774
2.99561
2.9872
2.97397
2.92885
2.83177
2.59977
2.01903
1.14194
0.502859
0.349799
0.377097
0.386702
0.364473
0.328522
0.297006
0.275892
0.25978
0.247751
0.24483
3
2.99995
2.99989
2.99965
2.99931
2.99792
2.99594
2.9883
2.97581
2.93458
2.84214
2.62731
2.06841
1.21425
0.545145
0.355781
0.388329
0.403285
0.384579
0.354017
0.32897
0.31437
0.305221
0.300314
0.303235
3
2.99996
2.9999
2.99968
2.99936
2.9981
2.99629
2.98932
2.97784
2.94025
2.85554
2.65784
2.135
1.30732
0.597469
0.365913
0.403133
0.423318
0.407914
0.382986
0.364404
0.357052
0.356082
0.360789
0.374786
3
2.99996
2.99991
2.99971
2.99942
2.99826
2.99662
2.99009
2.98004
2.94505
2.87244
2.69068
2.22673
1.42951
0.663885
0.385393
0.424562
0.447988
0.434935
0.415914
0.404255
0.404312
0.413369
0.433286
0.471279
3
2.99997
2.99992
2.99974
2.99949
2.99848
2.99701
2.9913
2.98239
2.95144
2.88951
2.72627
2.32694
1.56442
0.743977
0.421748
0.458316
0.479976
0.468505
0.454011
0.448209
0.455409
0.478984
0.527221
0.630061
2.99999
2.99993
2.99986
2.99955
2.99911
2.99735
2.99484
2.98502
2.96935
2.91699
2.80339
2.53171
1.89219
0.971499
0.39073
0.326471
0.343233
0.339845
0.308143
0.256455
0.206504
0.164787
0.123232
0.0770684
0.0432198
2.99999
2.99994
2.99986
2.99955
2.99912
2.99737
2.99489
2.98515
2.96965
2.91772
2.80535
2.53593
1.90038
0.981847
0.397799
0.328027
0.345164
0.342346
0.311062
0.260249
0.211525
0.17123
0.131887
0.0909474
0.0668728
2.99999
2.99994
2.99986
2.99956
2.99914
2.99742
2.99498
2.98542
2.97026
2.91922
2.80942
2.54467
1.918
1.00457
0.413729
0.332257
0.350432
0.349189
0.319142
0.270563
0.224738
0.187954
0.15372
0.121576
0.106144
2.99999
2.99994
2.99987
2.99957
2.99916
2.9975
2.99513
2.98582
2.97117
2.92146
2.81556
2.55784
1.94479
1.03979
0.437792
0.338369
0.358327
0.359582
0.331486
0.286203
0.244426
0.212388
0.18407
0.159595
0.149255
2.99999
2.99994
2.99987
2.99959
2.9992
2.99761
2.99534
2.98643
2.97241
2.92474
2.82284
2.57643
1.97755
1.08407
0.466615
0.343651
0.366907
0.371887
0.346579
0.305535
0.26855
0.241813
0.219614
0.201429
0.194663
3
2.99995
2.99988
2.99962
2.99925
2.99774
2.99561
2.9872
2.97397
2.92885
2.83177
2.59976
2.01901
1.14191
0.502844
0.349803
0.377098
0.386702
0.364472
0.328522
0.297006
0.275892
0.259779
0.24775
0.244829
3
2.99995
2.99989
2.99965
2.99931
2.99792
2.99594
2.9883
2.9758
2.93458
2.84213
2.6273
2.06839
1.21422
0.54513
0.355785
0.38833
0.403285
0.384578
0.354016
0.32897
0.314369
0.305221
0.300314
0.303234
3
2.99996
2.9999
2.99968
2.99936
2.9981
2.99629
2.98932
2.97784
2.94025
2.85553
2.65783
2.13498
1.30729
0.597452
0.365915
0.403132
0.423317
0.407913
0.382986
0.364404
0.357052
0.356081
0.360789
0.374785
3
2.99996
2.99991
2.99971
2.99942
2.99826
2.99662
2.99009
2.98004
2.94504
2.87244
2.69067
2.2267
1.42947
0.663865
0.385391
0.424558
0.447985
0.434933
0.415912
0.404254
0.404311
0.413369
0.433286
0.471278
3
2.99997
2.99992
2.99974
2.99949
2.99848
2.99701
2.9913
2.98239
2.95144
2.8895
2.72626
2.32691
1.56437
0.743956
0.421741
0.458309
0.479972
0.468501
0.454008
0.448207
0.455408
0.478983
0.52722
0.63006
2.99999
2.99993
2.99986
2.99955
2.99911
2.99735
2.99484
2.98502
2.96935
2.91699
2.80339
2.53171
1.89218
0.971494
0.390728
0.326472
0.343233
0.339845
0.308143
0.256455
0.206504
0.164787
0.123231
0.0770683
0.0432198
2.99999
2.99994
2.99986
2.99955
2.99912
2.99737
2.99489
2.98515
2.96965
2.91772
2.80535
2.53593
1.90038
0.981843
0.397797
0.328027
0.345164
0.342346
0.311062
0.260249
0.211525
0.17123
0.131887
0.0909473
0.0668727
2.99999
2.99994
2.99986
2.99956
2.99914
2.99742
2.99498
2.98542
2.97026
2.91922
2.80942
2.54467
1.918
1.00457
0.413727
0.332257
0.350432
0.349189
0.319142
0.270562
0.224738
0.187954
0.15372
0.121576
0.106144
2.99999
2.99994
2.99987
2.99957
2.99916
2.9975
2.99513
2.98582
2.97117
2.92146
2.81556
2.55784
1.94478
1.03979
0.43779
0.33837
0.358327
0.359582
0.331486
0.286203
0.244426
0.212387
0.18407
0.159595
0.149255
2.99999
2.99994
2.99987
2.99959
2.9992
2.99761
2.99534
2.98643
2.97241
2.92474
2.82284
2.57643
1.97754
1.08407
0.466613
0.343652
0.366908
0.371887
0.346579
0.305535
0.26855
0.241813
0.219614
0.201429
0.194663
3
2.99995
2.99988
2.99962
2.99925
2.99774
2.99561
2.9872
2.97397
2.92885
2.83177
2.59976
2.019
1.1419
0.502842
0.349804
0.377098
0.386702
0.364472
0.328522
0.297006
0.275892
0.259779
0.24775
0.244829
3
2.99995
2.99989
2.99965
2.99931
2.99792
2.99594
2.9883
2.9758
2.93458
2.84213
2.6273
2.06839
1.21422
0.545128
0.355785
0.38833
0.403285
0.384578
0.354016
0.32897
0.314369
0.305221
0.300314
0.303234
3
2.99996
2.9999
2.99968
2.99936
2.9981
2.99629
2.98932
2.97784
2.94025
2.85553
2.65783
2.13497
1.30728
0.59745
0.365915
0.403132
0.423317
0.407913
0.382986
0.364404
0.357052
0.356081
0.360789
0.374784
3
2.99996
2.99991
2.99971
2.99942
2.99826
2.99662
2.99009
2.98004
2.94504
2.87244
2.69066
2.2267
1.42946
0.663862
0.385391
0.424558
0.447984
0.434933
0.415912
0.404254
0.404311
0.413369
0.433286
0.471278
3
2.99997
2.99992
2.99974
2.99949
2.99848
2.99701
2.9913
2.98239
2.95144
2.8895
2.72626
2.32691
1.56436
0.743953
0.42174
0.458308
0.479971
0.4685
0.454007
0.448207
0.455408
0.478983
0.52722
0.63006
2.99999
2.99993
2.99986
2.99955
2.99911
2.99735
2.99484
2.98502
2.96935
2.91699
2.80339
2.53171
1.89218
0.971491
0.390726
0.326472
0.343233
0.339845
0.308143
0.256454
0.206504
0.164787
0.123231
0.0770683
0.0432197
2.99999
2.99994
2.99986
2.99955
2.99912
2.99737
2.99489
2.98515
2.96965
2.91772
2.80535
2.53593
1.90038
0.98184
0.397795
0.328027
0.345164
0.342346
0.311062
0.260249
0.211525
0.17123
0.131887
0.0909472
0.0668727
2.99999
2.99994
2.99986
2.99956
2.99914
2.99742
2.99498
2.98542
2.97026
2.91922
2.80942
2.54467
1.918
1.00456
0.413725
0.332258
0.350432
0.349189
0.319142
0.270562
0.224738
0.187953
0.15372
0.121576
0.106144
2.99999
2.99994
2.99987
2.99957
2.99916
2.9975
2.99513
2.98582
2.97117
2.92146
2.81556
2.55784
1.94478
1.03979
0.437788
0.33837
0.358327
0.359582
0.331486
0.286203
0.244426
0.212387
0.18407
0.159595
0.149255
2.99999
2.99994
2.99987
2.99959
2.9992
2.99761
2.99534
2.98643
2.97241
2.92474
2.82284
2.57643
1.97754
1.08407
0.466611
0.343652
0.366908
0.371887
0.346579
0.305534
0.26855
0.241813
0.219614
0.201429
0.194663
3
2.99995
2.99988
2.99962
2.99925
2.99774
2.99561
2.9872
2.97397
2.92885
2.83177
2.59976
2.019
1.1419
0.50284
0.349804
0.377098
0.386702
0.364472
0.328521
0.297006
0.275892
0.259779
0.24775
0.244829
3
2.99995
2.99989
2.99965
2.99931
2.99792
2.99594
2.9883
2.9758
2.93458
2.84213
2.62729
2.06839
1.21421
0.545126
0.355786
0.38833
0.403285
0.384578
0.354016
0.32897
0.314369
0.305221
0.300314
0.303234
3
2.99996
2.9999
2.99968
2.99936
2.9981
2.99629
2.98932
2.97784
2.94025
2.85553
2.65783
2.13497
1.30728
0.597448
0.365915
0.403132
0.423316
0.407913
0.382986
0.364404
0.357052
0.356081
0.360789
0.374784
3
2.99996
2.99991
2.99971
2.99942
2.99826
2.99662
2.99009
2.98004
2.94504
2.87244
2.69066
2.22669
1.42946
0.66386
0.38539
0.424558
0.447984
0.434932
0.415912
0.404254
0.404311
0.413369
0.433286
0.471278
3
2.99997
2.99992
2.99974
2.99949
2.99848
2.99701
2.9913
2.98239
2.95144
2.8895
2.72626
2.3269
1.56436
0.743951
0.421739
0.458308
0.47997
0.4685
0.454007
0.448207
0.455408
0.478983
0.52722
0.63006
2.99999
2.99993
2.99986
2.99955
2.99911
2.99735
2.99484
2.98502
2.96935
2.91699
2.80339
2.53171
1.89218
0.97149
0.390726
0.326472
0.343233
0.339845
0.308143
0.256454
0.206504
0.164787
0.123231
0.0770682
0.0432197
2.99999
2.99994
2.99986
2.99955
2.99912
2.99737
2.99489
2.98515
2.96965
2.91772
2.80535
2.53593
1.90038
0.981839
0.397795
0.328027
0.345164
0.342346
0.311062
0.260249
0.211524
0.17123
0.131887
0.0909472
0.0668727
2.99999
2.99994
2.99986
2.99956
2.99914
2.99742
2.99498
2.98542
2.97026
2.91922
2.80942
2.54467
1.918
1.00456
0.413724
0.332258
0.350432
0.349189
0.319142
0.270562
0.224738
0.187953
0.15372
0.121576
0.106144
2.99999
2.99994
2.99987
2.99957
2.99916
2.9975
2.99513
2.98582
2.97117
2.92146
2.81556
2.55784
1.94478
1.03978
0.437788
0.33837
0.358327
0.359582
0.331486
0.286203
0.244426
0.212387
0.18407
0.159595
0.149255
2.99999
2.99994
2.99987
2.99959
2.9992
2.99761
2.99534
2.98643
2.97241
2.92474
2.82284
2.57643
1.97754
1.08407
0.466611
0.343652
0.366908
0.371887
0.346579
0.305534
0.26855
0.241813
0.219614
0.201429
0.194663
3
2.99995
2.99988
2.99962
2.99925
2.99774
2.99561
2.9872
2.97397
2.92885
2.83177
2.59976
2.019
1.1419
0.50284
0.349804
0.377098
0.386702
0.364472
0.328521
0.297006
0.275892
0.259779
0.24775
0.244829
3
2.99995
2.99989
2.99965
2.99931
2.99792
2.99594
2.9883
2.9758
2.93458
2.84213
2.62729
2.06839
1.21421
0.545126
0.355786
0.38833
0.403285
0.384578
0.354016
0.32897
0.314369
0.305221
0.300313
0.303234
3
2.99996
2.9999
2.99968
2.99936
2.9981
2.99629
2.98932
2.97784
2.94025
2.85553
2.65783
2.13497
1.30727
0.597447
0.365915
0.403132
0.423316
0.407913
0.382986
0.364404
0.357052
0.356081
0.360789
0.374784
3
2.99996
2.99991
2.99971
2.99942
2.99826
2.99662
2.99009
2.98004
2.94504
2.87244
2.69066
2.22669
1.42946
0.663859
0.38539
0.424557
0.447984
0.434932
0.415912
0.404254
0.404311
0.413369
0.433286
0.471278
3
2.99997
2.99992
2.99974
2.99949
2.99848
2.99701
2.9913
2.98239
2.95144
2.8895
2.72626
2.3269
1.56436
0.74395
0.421739
0.458307
0.47997
0.4685
0.454007
0.448207
0.455408
0.478983
0.52722
0.63006
2.99999
2.99993
2.99986
2.99955
2.99911
2.99735
2.99484
2.98502
2.96935
2.91699
2.80339
2.53171
1.89218
0.971493
0.390727
0.326472
0.343233
0.339845
0.308143
0.256454
0.206504
0.164787
0.123231
0.0770683
0.0432197
2.99999
2.99994
2.99986
2.99955
2.99912
2.99737
2.99489
2.98515
2.96965
2.91772
2.80535
2.53593
1.90038
0.981842
0.397796
0.328027
0.345164
0.342346
0.311062
0.260249
0.211525
0.17123
0.131887
0.0909472
0.0668727
2.99999
2.99994
2.99986
2.99956
2.99914
2.99742
2.99498
2.98542
2.97026
2.91922
2.80942
2.54467
1.918
1.00456
0.413726
0.332257
0.350432
0.349189
0.319142
0.270562
0.224738
0.187953
0.15372
0.121576
0.106144
2.99999
2.99994
2.99987
2.99957
2.99916
2.9975
2.99513
2.98582
2.97117
2.92146
2.81556
2.55784
1.94478
1.03979
0.437789
0.33837
0.358327
0.359582
0.331486
0.286203
0.244426
0.212387
0.18407
0.159595
0.149255
2.99999
2.99994
2.99987
2.99959
2.9992
2.99761
2.99534
2.98643
2.97241
2.92474
2.82284
2.57643
1.97754
1.08407
0.466612
0.343652
0.366908
0.371887
0.346579
0.305535
0.26855
0.241813
0.219614
0.201429
0.194663
3
2.99995
2.99988
2.99962
2.99925
2.99774
2.99561
2.9872
2.97397
2.92885
2.83177
2.59976
2.019
1.1419
0.502841
0.349804
0.377098
0.386702
0.364472
0.328521
0.297006
0.275892
0.259779
0.24775
0.244829
3
2.99995
2.99989
2.99965
2.99931
2.99792
2.99594
2.9883
2.9758
2.93458
2.84213
2.6273
2.06839
1.21422
0.545127
0.355785
0.38833
0.403285
0.384578
0.354016
0.32897
0.314369
0.305221
0.300314
0.303234
3
2.99996
2.9999
2.99968
2.99936
2.9981
2.99629
2.98932
2.97784
2.94025
2.85553
2.65783
2.13497
1.30728
0.597449
0.365915
0.403132
0.423317
0.407913
0.382986
0.364404
0.357052
0.356081
0.360789
0.374784
3
2.99996
2.99991
2.99971
2.99942
2.99826
2.99662
2.99009
2.98004
2.94504
2.87244
2.69066
2.2267
1.42946
0.663861
0.38539
0.424558
0.447984
0.434933
0.415912
0.404254
0.404311
0.413369
0.433286
0.471278
3
2.99997
2.99992
2.99974
2.99949
2.99848
2.99701
2.9913
2.98239
2.95144
2.8895
2.72626
2.3269
1.56436
0.743952
0.421739
0.458308
0.479971
0.4685
0.454007
0.448207
0.455408
0.478983
0.52722
0.63006
2.99999
2.99993
2.99986
2.99955
2.99911
2.99735
2.99484
2.98502
2.96935
2.91699
2.80339
2.53171
1.89219
0.971498
0.39073
0.326471
0.343233
0.339845
0.308143
0.256455
0.206504
0.164787
0.123232
0.0770684
0.0432198
2.99999
2.99994
2.99986
2.99955
2.99912
2.99737
2.99489
2.98515
2.96965
2.91772
2.80535
2.53593
1.90038
0.981847
0.397799
0.328027
0.345164
0.342346
0.311062
0.260249
0.211525
0.17123
0.131887
0.0909474
0.0668728
2.99999
2.99994
2.99986
2.99956
2.99914
2.99742
2.99498
2.98542
2.97026
2.91922
2.80942
2.54467
1.918
1.00457
0.413729
0.332257
0.350432
0.349189
0.319142
0.270563
0.224738
0.187954
0.15372
0.121576
0.106144
2.99999
2.99994
2.99987
2.99957
2.99916
2.9975
2.99513
2.98582
2.97117
2.92146
2.81556
2.55784
1.94479
1.03979
0.437792
0.338369
0.358327
0.359582
0.331486
0.286203
0.244426
0.212388
0.18407
0.159595
0.149255
2.99999
2.99994
2.99987
2.99959
2.9992
2.99761
2.99534
2.98643
2.97241
2.92474
2.82284
2.57643
1.97755
1.08407
0.466615
0.343651
0.366907
0.371887
0.346579
0.305535
0.26855
0.241813
0.219614
0.201429
0.194663
3
2.99995
2.99988
2.99962
2.99925
2.99774
2.99561
2.9872
2.97397
2.92885
2.83177
2.59976
2.01901
1.14191
0.502844
0.349803
0.377098
0.386702
0.364472
0.328522
0.297006
0.275892
0.259779
0.24775
0.244829
3
2.99995
2.99989
2.99965
2.99931
2.99792
2.99594
2.9883
2.9758
2.93458
2.84213
2.6273
2.06839
1.21422
0.54513
0.355785
0.38833
0.403285
0.384578
0.354016
0.32897
0.314369
0.305221
0.300314
0.303234
3
2.99996
2.9999
2.99968
2.99936
2.9981
2.99629
2.98932
2.97784
2.94025
2.85553
2.65783
2.13498
1.30729
0.597452
0.365915
0.403132
0.423317
0.407913
0.382986
0.364404
0.357052
0.356081
0.360789
0.374785
3
2.99996
2.99991
2.99971
2.99942
2.99826
2.99662
2.99009
2.98004
2.94504
2.87244
2.69067
2.2267
1.42947
0.663865
0.385391
0.424558
0.447984
0.434933
0.415912
0.404254
0.404311
0.413369
0.433286
0.471278
3
2.99997
2.99992
2.99974
2.99949
2.99848
2.99701
2.9913
2.98239
2.95144
2.8895
2.72626
2.32691
1.56437
0.743956
0.421741
0.458309
0.479972
0.468501
0.454008
0.448207
0.455408
0.478983
0.52722
0.63006
2.99999
2.99993
2.99986
2.99955
2.99911
2.99735
2.99484
2.98502
2.96935
2.91699
2.80339
2.53173
1.89221
0.971528
0.390746
0.326469
0.343233
0.339847
0.308145
0.256456
0.206506
0.164788
0.123232
0.0770692
0.0432205
2.99999
2.99994
2.99986
2.99955
2.99912
2.99737
2.99489
2.98515
2.96965
2.91772
2.80535
2.53594
1.90041
0.981877
0.397815
0.328024
0.345164
0.342348
0.311064
0.260251
0.211526
0.171231
0.131888
0.090948
0.0668735
2.99999
2.99994
2.99986
2.99956
2.99914
2.99742
2.99498
2.98542
2.97026
2.91923
2.80943
2.54469
1.91803
1.0046
0.413745
0.332255
0.350432
0.349191
0.319144
0.270564
0.224739
0.187954
0.153721
0.121577
0.106145
2.99999
2.99994
2.99987
2.99957
2.99916
2.9975
2.99513
2.98582
2.97117
2.92146
2.81556
2.55785
1.94481
1.03982
0.437807
0.338366
0.358326
0.359583
0.331487
0.286204
0.244427
0.212388
0.184071
0.159596
0.149256
2.99999
2.99994
2.99987
2.99959
2.9992
2.99761
2.99534
2.98643
2.97242
2.92474
2.82284
2.57645
1.97757
1.0841
0.466629
0.343647
0.366906
0.371887
0.34658
0.305535
0.26855
0.241813
0.219614
0.20143
0.194665
3
2.99995
2.99988
2.99962
2.99925
2.99774
2.99561
2.9872
2.97397
2.92885
2.83177
2.59977
2.01903
1.14194
0.502859
0.349799
0.377097
0.386702
0.364473
0.328522
0.297006
0.275892
0.25978
0.247751
0.24483
3
2.99995
2.99989
2.99965
2.99931
2.99792
2.99594
2.9883
2.97581
2.93458
2.84214
2.62731
2.06841
1.21425
0.545145
0.35578
0.388329
0.403286
0.384579
0.354017
0.32897
0.31437
0.305221
0.300314
0.303235
3
2.99996
2.9999
2.99968
2.99936
2.9981
2.99629
2.98932
2.97784
2.94025
2.85554
2.65784
2.135
1.30732
0.59747
0.365913
0.403133
0.423318
0.407914
0.382986
0.364404
0.357052
0.356082
0.360789
0.374786
3
2.99996
2.99991
2.99971
2.99942
2.99826
2.99662
2.99009
2.98004
2.94505
2.87244
2.69068
2.22673
1.42951
0.663885
0.385393
0.424562
0.447988
0.434935
0.415914
0.404255
0.404312
0.413369
0.433286
0.471279
3
2.99997
2.99992
2.99974
2.99949
2.99848
2.99701
2.9913
2.98239
2.95144
2.88951
2.72627
2.32694
1.56442
0.743978
0.421748
0.458316
0.479977
0.468505
0.454011
0.448209
0.455409
0.478984
0.527221
0.630061
3.00001
2.99995
2.99988
2.99957
2.99913
2.99737
2.99486
2.98504
2.96938
2.91704
2.80347
2.53187
1.89247
0.971901
0.391056
0.326634
0.343416
0.340056
0.308384
0.256743
0.206853
0.165221
0.123812
0.077987
0.0448371
3.00001
2.99995
2.99988
2.99957
2.99914
2.99739
2.99491
2.98518
2.96968
2.91777
2.80543
2.53608
1.90067
0.982248
0.398119
0.328188
0.345345
0.342556
0.3113
0.260531
0.211861
0.171641
0.132419
0.0917132
0.0679239
3.00001
2.99995
2.99988
2.99958
2.99916
2.99744
2.99501
2.98544
2.97029
2.91927
2.8095
2.54482
1.91828
1.00497
0.414042
0.33242
0.350615
0.349398
0.319375
0.270833
0.225052
0.188323
0.15417
0.122146
0.106814
3.00001
2.99996
2.99988
2.99959
2.99918
2.99752
2.99515
2.98584
2.9712
2.92151
2.81564
2.55799
1.94506
1.04016
0.438076
0.338504
0.358482
0.359761
0.331688
0.286439
0.2447
0.212703
0.184439
0.160029
0.149739
3.00001
2.99996
2.99989
2.99961
2.99922
2.99763
2.99536
2.98646
2.97244
2.92479
2.8229
2.57659
1.97776
1.0844
0.466856
0.343765
0.367043
0.372043
0.346754
0.305737
0.268784
0.242079
0.219916
0.201771
0.195038
3.00001
2.99996
2.9999
2.99963
2.99927
2.99776
2.99563
2.98723
2.97399
2.9289
2.83183
2.59991
2.01922
1.14224
0.503074
0.349912
0.377225
0.386843
0.364626
0.328695
0.297204
0.276114
0.260027
0.248025
0.245128
3.00002
2.99997
2.99991
2.99966
2.99932
2.99794
2.99596
2.98832
2.97583
2.93463
2.8422
2.62745
2.06861
1.21457
0.545353
0.355896
0.388456
0.403419
0.384719
0.35417
0.32914
0.314556
0.305425
0.300536
0.303473
3.00002
2.99997
2.99992
2.9997
2.99938
2.99812
2.99631
2.98934
2.97787
2.9403
2.8556
2.65797
2.13524
1.30767
0.597686
0.366045
0.403268
0.423453
0.408048
0.383125
0.364552
0.357209
0.356249
0.360968
0.374974
3.00002
2.99998
2.99993
2.99972
2.99944
2.99828
2.99664
2.99011
2.98006
2.94509
2.87249
2.6908
2.22695
1.42987
0.664092
0.385538
0.424706
0.448124
0.435067
0.416046
0.404389
0.404447
0.413507
0.433428
0.471422
3.00002
2.99998
2.99994
2.99976
2.99951
2.9985
2.99703
2.99132
2.98242
2.95148
2.88957
2.72638
2.32717
1.56478
0.744185
0.421921
0.458476
0.480113
0.468637
0.45414
0.448334
0.455528
0.479098
0.527329
0.630158
3.00001
3
2.99994
2.99985
2.9995
2.99898
2.99703
2.99393
2.98345
2.96235
2.90499
2.7561
2.45096
1.7474
0.85761
0.47862
0.504055
0.51831
0.509611
0.497817
0.496144
0.511333
0.553188
0.638944
0.808192
3.00002
3
2.99994
2.99986
2.99954
2.99909
2.99724
2.99461
2.98432
2.96797
2.91345
2.79558
2.51371
1.86891
0.975297
0.541954
0.538507
0.548427
0.54918
0.542402
0.545329
0.56834
0.623311
0.723478
0.888083
3.00002
3
2.99995
2.99989
2.99961
2.99921
2.99762
2.99535
2.98639
2.97247
2.92473
2.82454
2.57819
1.99213
1.12025
0.621506
0.558968
0.571989
0.582209
0.583728
0.592745
0.621701
0.680208
0.772799
0.906514
3.00002
3.00001
2.99997
2.99991
2.99968
2.99935
2.99803
2.99612
2.98885
2.97681
2.9377
2.84914
2.64479
2.10623
1.2835
0.705338
0.571286
0.588265
0.606531
0.618989
0.634891
0.667085
0.722437
0.802043
0.911624
3.00002
3.00001
2.99998
2.99993
2.99973
2.99946
2.99836
2.99675
2.99062
2.98063
2.94759
2.87542
2.70064
2.25115
1.47031
0.806751
0.593347
0.608682
0.629612
0.648811
0.669649
0.702077
0.75367
0.82158
0.911105
3.00002
3.00001
2.99999
2.99993
2.99984
2.99949
2.99896
2.99702
2.99378
2.98334
2.96087
2.90331
2.74877
2.43941
1.7051
0.950332
0.648194
0.647904
0.662717
0.681692
0.702005
0.73146
0.777202
0.836907
0.910791
3.00002
3.00001
3
2.99995
2.99987
2.99956
2.99913
2.99735
2.99485
2.98495
2.96948
2.91735
2.80662
2.53933
1.92778
1.08635
0.705703
0.684465
0.697067
0.713398
0.730998
0.756592
0.795382
0.847323
0.910092
3.00002
3.00002
3.00001
2.99996
2.9999
2.99967
2.99932
2.99797
2.99596
2.98852
2.97575
2.93537
2.84229
2.63008
2.0847
1.26031
0.791775
0.706346
0.71872
0.734452
0.754121
0.777116
0.809363
0.85394
0.906926
3.00002
3.00002
3.00001
2.99999
2.99991
2.9998
2.99938
2.99873
2.99643
2.99231
2.97975
2.95073
2.88044
2.68415
2.30469
1.47339
0.904992
0.727382
0.732149
0.748667
0.770843
0.793484
0.820777
0.857308
0.900676
3.00002
3.00002
3.00001
3
2.99993
2.99985
2.9995
2.999
2.99703
2.99409
2.98347
2.9643
2.90762
2.76882
2.47783
1.80532
1.05875
0.774016
0.757747
0.768535
0.787897
0.808128
0.831879
0.859169
0.892681
3.00002
3.00002
3.00002
3
2.99997
2.99986
2.99969
2.99904
2.9981
2.99447
2.98872
2.96923
2.92937
2.82633
2.56334
2.02904
1.17445
0.817442
0.772099
0.78392
0.800341
0.818653
0.837046
0.857144
0.883387
3.00003
3.00002
3.00002
3
2.99998
2.99989
2.99977
2.99927
2.99855
2.99581
2.99137
2.97667
2.94567
2.86547
2.65165
2.23269
1.3937
0.915139
0.787409
0.791242
0.80389
0.820701
0.835114
0.850958
0.872902
3.00003
3.00003
3.00002
3.00001
2.99998
2.99994
2.99978
2.99954
2.9986
2.99722
2.99198
2.98356
2.95536
2.89782
2.74926
2.39154
1.68945
1.03609
0.813863
0.796105
0.803284
0.814173
0.826203
0.841035
0.861205
3.00003
3.00003
3.00002
3.00002
2.99999
2.99996
2.99983
2.99965
2.99892
2.99786
2.99375
2.98747
2.96497
2.92466
2.80397
2.54978
1.93971
1.18257
0.853007
0.798216
0.79802
0.804617
0.8151
0.83001
0.85033
3.00003
3.00003
3.00002
3.00002
3.00001
2.99997
2.99991
2.99969
2.99936
2.9981
2.99619
2.98939
2.97715
2.94055
2.85331
2.66066
2.1458
1.37631
0.909877
0.788747
0.780538
0.785963
0.798961
0.81781
0.839942
3.00003
3.00003
3.00003
3.00002
3.00001
2.99998
2.99994
2.99976
2.9995
2.99847
2.99699
2.99122
2.9823
2.95108
2.89144
2.72815
2.35108
1.61593
0.994935
0.778835
0.755295
0.763424
0.781875
0.806703
0.832038
3.00003
3.00003
3.00003
3.00002
3.00001
3
2.99994
2.99986
2.99954
2.99907
2.99724
2.99449
2.98444
2.96719
2.91387
2.7931
2.51421
1.90889
1.10628
0.771031
0.727151
0.740392
0.764739
0.796405
0.825508
3.00003
3.00003
3.00003
3.00002
3.00002
3.00001
2.99996
2.9999
2.99964
2.99927
2.99781
2.99566
2.98762
2.97413
2.93048
2.83257
2.60562
2.04425
1.22297
0.764474
0.679027
0.701984
0.737879
0.781095
0.816107
3.00003
3.00003
3.00003
3.00003
3.00002
3.00001
2.99999
2.99991
2.99979
2.99934
2.99862
2.99622
2.99152
2.97825
2.94563
2.87013
2.6505
2.23771
1.37386
0.801672
0.618585
0.651401
0.702724
0.758274
0.800033
3.00003
3.00003
3.00003
3.00003
3.00002
3.00001
2.99998
2.99994
2.99976
2.99951
2.99851
2.99702
2.99137
2.98229
2.95181
2.8884
2.72801
2.33054
1.59146
0.833712
0.569173
0.613601
0.673846
0.733825
0.778679
3.00003
3.00003
3.00003
3.00003
3.00002
3.00002
2.99999
2.99995
2.9998
2.99958
2.99871
2.99744
2.99251
2.98484
2.95785
2.90653
2.76279
2.42817
1.73076
0.858926
0.527387
0.575444
0.638293
0.703583
0.751872
3.00003
3.00003
3.00003
3.00003
3.00002
3.00001
3
2.99995
2.99986
2.99955
2.99909
2.99728
2.99456
2.98464
2.96706
2.9133
2.7859
2.50285
1.84148
0.94066
0.514357
0.537234
0.599905
0.668387
0.72169
3.00003
3.00003
3.00003
3.00003
3.00002
3.00002
3
2.99995
2.99988
2.99958
2.99917
2.99747
2.99506
2.98552
2.9705
2.91952
2.8107
2.54506
1.92542
1.0316
0.528954
0.500231
0.559781
0.631085
0.688228
3.00003
3.00003
3.00003
3.00003
3.00003
3.00002
3.00001
2.99996
2.9999
2.99963
2.99926
2.99773
2.99555
2.98692
2.97333
2.92672
2.82665
2.58424
1.99137
1.11338
0.543661
0.460303
0.520713
0.596169
0.654052
3.00003
3.00003
3.00003
3.00003
3.00003
3.00002
3.00001
2.99997
2.99991
2.99968
2.99935
2.99805
2.99605
2.98884
2.97575
2.93566
2.83903
2.62204
2.0441
1.18484
0.561416
0.421552
0.486564
0.567193
0.623558
3.00003
3.00003
3.00003
3.00003
3.00003
3.00002
3.00001
2.99999
2.99991
2.99979
2.99936
2.99861
2.99623
2.99098
2.97727
2.94157
2.86143
2.619
2.17061
1.22869
0.594635
0.39128
0.462441
0.547465
0.600122
3.00003
3.00003
3.00003
3.00003
3.00003
3.00002
3.00001
2.99998
2.99993
2.99976
2.99948
2.99847
2.99675
2.99121
2.97922
2.94737
2.86403
2.68379
2.17444
1.36587
0.627442
0.367448
0.44758
0.537487
0.586643
3.00003
3.00003
3.00003
3.00003
3.00003
3.00002
3.00001
2.99999
2.99992
2.99982
2.99942
2.99881
2.99662
2.99265
2.98045
2.95197
2.88252
2.68603
2.30608
1.44847
0.677275
0.360325
0.449843
0.543414
0.58827
3.00003
3.00003
3.00003
3.00003
3.00003
3.00002
3.00001
3
2.99993
2.99984
2.99946
2.99891
2.99679
2.99336
2.98187
2.95758
2.89363
2.72104
2.37505
1.57887
0.729582
0.367086
0.460001
0.552821
0.593051
3.00003
3.00003
3.00003
3.00003
3.00003
3.00002
3.00002
2.99999
2.99995
2.9998
2.99958
2.99871
2.99738
2.99253
2.98406
2.95718
2.89669
2.74961
2.37407
1.65153
0.728336
0.340464
0.44371
0.538135
0.57913
3.00003
3.00003
3.00003
3.00003
3.00003
3.00002
3.00001
3
2.99994
2.99986
2.99954
2.99904
2.9973
2.99411
2.98442
2.96195
2.90638
2.75356
2.44641
1.72592
0.786879
0.356671
0.444139
0.527769
0.568832
3.00003
3.00003
3.00003
3.00003
3.00003
3.00002
3.00002
2.99999
2.99996
2.99981
2.9996
2.99877
2.99756
2.99286
2.98545
2.9598
2.90861
2.77336
2.43522
1.76109
0.792204
0.358951
0.429289
0.503678
0.551792
3.00003
3.00003
3.00003
3.00003
3.00003
3.00002
3.00002
2.99999
2.99996
2.99982
2.99963
2.99885
2.99772
2.99328
2.98631
2.96213
2.9127
2.78319
2.45484
1.7952
0.81596
0.367501
0.415198
0.479547
0.533995
3.00003
3.00003
3.00003
3.00003
3.00003
3.00002
3.00002
3
2.99995
2.99987
2.99956
2.99911
2.99737
2.99462
2.9852
2.96678
2.91431
2.78344
2.49878
1.8276
0.908807
0.416609
0.430203
0.484757
0.541198
3.00003
3.00003
3.00003
3.00003
3.00003
3.00002
3.00002
3
2.99997
2.99985
2.99967
2.999
2.99794
2.99431
2.98716
2.96699
2.91687
2.80413
2.47735
1.88149
0.879655
0.408212
0.409117
0.467764
0.528157
3.00003
3.00003
3.00003
3.00003
3.00003
3.00002
3.00002
3
2.99995
2.99988
2.99959
2.99916
2.99753
2.99494
2.98603
2.9689
2.91907
2.79666
2.52525
1.87818
0.973281
0.448282
0.426228
0.478587
0.536462
3.00003
3.00003
3.00003
3.00003
3.00003
3.00002
3.00002
3
2.99997
2.99985
2.99968
2.99902
2.99802
2.99438
2.98792
2.96801
2.92138
2.81154
2.50157
1.92836
0.927983
0.432839
0.399803
0.45635
0.517474
3.00003
3.00003
3.00003
3.00003
3.00003
3.00002
3.00002
3
2.99997
2.99985
2.99969
2.99904
2.99806
2.99452
2.98818
2.96881
2.92315
2.81582
2.51067
1.94632
0.944851
0.438105
0.389535
0.445471
0.507498
3.00003
3.00003
3.00003
3.00003
3.00003
3.00002
3.00002
3
2.99995
2.99988
2.9996
2.99918
2.99756
2.99513
2.98613
2.9706
2.92152
2.80899
2.54793
1.92748
1.03287
0.472057
0.412642
0.467577
0.52977
3.00003
3.00003
3.00003
3.00003
3.00003
3.00002
3.00002
3
2.99995
2.99988
2.99959
2.99918
2.9975
2.99511
2.98572
2.97092
2.9208
2.81383
2.55358
1.94056
1.04249
0.470566
0.407886
0.467042
0.532129
3
2.99998
2.99992
2.99983
2.99948
2.99896
2.99701
2.99391
2.98342
2.96232
2.90494
2.75601
2.45078
1.74702
0.8574
0.478455
0.503919
0.51819
0.50948
0.497692
0.496026
0.511226
0.553092
0.638861
0.808132
3
2.99998
2.99993
2.99985
2.99952
2.99907
2.99722
2.99459
2.98429
2.96794
2.9134
2.7955
2.51357
1.86866
0.974997
0.541756
0.5384
0.548326
0.549072
0.54229
0.545222
0.568243
0.623229
0.72341
0.88803
3