/*--------------------------------*- C++ -*----------------------------------*\
| =========                 |                                                 |
| \\      /  F ield         | OpenFOAM: The Open Source CFD Toolbox           |
|  \\    /   O peration     | Version:  4.1                                   |
|   \\  /    A nd           | Web:      www.OpenFOAM.org                      |
|    \\/     M anipulation  |                                                 |
\*---------------------------------------------------------------------------*/
FoamFile
{
    version     2.0;
    format      ascii;
    class       surfaceScalarField;
    location    "8.48";
    object      phi;
}
// * * * * * * * * * * * * * * * * * * * * * * * * * * * * * * * * * * * * * //

dimensions      [1 0 -1 0 0 0 0];

internalField   nonuniform List<scalar> 
150500
(
0.0168001
2.58911e-10
-3.38397e-12
0.0168001
9.736e-10
-1.17586e-11
0.0168001
3.92006e-09
-1.34844e-11
0.0168
9.83727e-09
-2.14609e-11
0.0168
2.71264e-08
-2.17797e-11
0.0167999
6.20099e-08
-2.89948e-11
0.0167998
1.61099e-07
-2.95851e-11
0.0167994
3.63307e-07
-4.04071e-11
0.0167984
9.41034e-07
-4.26499e-11
0.0167963
2.14999e-06
-8.84741e-11
0.0167898
5.82469e-06
-5.87996e-11
0.0167742
1.56577e-05
-3.29377e-10
0.0167183
5.38252e-05
-2.97138e-10
0.0165448
0.000170013
-1.45418e-09
0.0155228
0.00101039
-2.93365e-09
0.0143755
0.00114767
-1.27283e-10
0.013203
0.00117224
-3.02528e-10
0.0119534
0.00124853
-5.33655e-10
0.0106172
0.00133505
-5.59606e-10
0.00917718
0.00143874
-5.85612e-10
0.00761148
0.00156453
-5.91517e-10
0.00591152
0.00169896
-6.08452e-10
0.00408516
0.00182531
-6.27892e-10
0.00212583
0.00195816
-6.42703e-10
0.00212454
-6.55899e-10
0.0168001
3.8287e-10
-3.55272e-12
0.0168001
2.1248e-09
-1.15593e-11
0.0168001
7.83391e-09
-1.36767e-11
0.0168
2.01305e-08
-2.13732e-11
0.0168
5.53721e-08
-2.18788e-11
0.0167999
1.26629e-07
-2.89327e-11
0.0167998
3.29713e-07
-2.96399e-11
0.0167994
7.4021e-07
-4.03923e-11
0.0167983
1.93283e-06
-4.27383e-11
0.0167961
4.36823e-06
-8.86803e-11
0.0167893
1.20276e-05
-5.87151e-11
0.0167732
3.1743e-05
-3.29167e-10
0.0167144
0.000110669
-2.96419e-10
0.0165347
0.00034617
-1.44483e-09
0.0154982
0.00203518
-2.93596e-09
0.0143358
0.00231044
-1.11258e-10
0.0131752
0.00233262
-2.97431e-10
0.011938
0.00248471
-5.30628e-10
0.0106085
0.00266344
-5.53519e-10
0.0091553
0.00289061
-5.76489e-10
0.00757108
0.0031476
-5.83171e-10
0.00585175
0.00341733
-6.02046e-10
0.0040038
0.00367222
-6.21709e-10
0.00203642
0.00392434
-6.37479e-10
0.00415967
-6.52175e-10
0.0168001
5.80457e-10
-3.53661e-12
0.0168001
3.23845e-09
-1.15735e-11
0.0168001
1.20385e-08
-1.36636e-11
0.0168
3.09571e-08
-2.13926e-11
0.0168
8.51677e-08
-2.18912e-11
0.0167999
1.94995e-07
-2.89808e-11
0.0167997
5.07456e-07
-2.9737e-11
0.0167993
1.13841e-06
-4.06096e-11
0.0167982
2.98225e-06
-4.31303e-11
0.0167959
6.6662e-06
-8.97128e-11
0.0167888
1.8525e-05
-5.9177e-11
0.0167727
4.78197e-05
-3.29727e-10
0.0167137
0.000167692
-2.95863e-10
0.0165376
0.000518731
-1.42709e-09
0.0155161
0.00304474
-2.95006e-09
0.0143429
0.00348419
-7.08064e-11
0.0131892
0.00348626
-2.84062e-10
0.0119642
0.00370857
-5.24942e-10
0.0106475
0.00397912
-5.43875e-10
0.00919747
0.00433932
-5.61052e-10
0.00761048
0.00473338
-5.69644e-10
0.00588587
0.00514089
-5.90947e-10
0.0040174
0.00553974
-6.10631e-10
0.00203801
0.00590261
-6.2904e-10
0.00619638
-6.44377e-10
0.0168001
8.20102e-10
-3.51048e-12
0.0168001
4.53614e-09
-1.1593e-11
0.0168
1.68767e-08
-1.364e-11
0.0168
4.33466e-08
-2.14153e-11
0.0168
1.19628e-07
-2.19024e-11
0.0167999
2.75302e-07
-2.90345e-11
0.0167997
7.09301e-07
-2.9839e-11
0.0167992
1.65501e-06
-4.07074e-11
0.0167981
3.98082e-06
-4.36132e-11
0.0167949
9.83224e-06
-8.93517e-11
0.0167888
2.40559e-05
-6.01984e-11
0.0167721
6.44258e-05
-3.25188e-10
0.016716
0.000221783
-2.99768e-10
0.0165502
0.000681166
-1.41184e-09
0.0155703
0.00401214
-3.01798e-09
0.0143923
0.00466303
-1.963e-11
0.013247
0.00463157
-2.66985e-10
0.0120417
0.00491279
-5.12599e-10
0.0107437
0.00527612
-5.25752e-10
0.00932228
0.00575942
-5.34756e-10
0.00774046
0.00631422
-5.45561e-10
0.00601182
0.0068684
-5.71563e-10
0.00413376
0.00741679
-5.92027e-10
0.00210034
0.00793465
-6.15421e-10
0.00829542
-6.30052e-10
0.0168001
9.82553e-10
-3.46875e-12
0.0168001
5.42689e-09
-1.16341e-11
0.0168001
2.02094e-08
-1.36236e-11
0.0168
5.18873e-08
-2.15134e-11
0.0168
1.43428e-07
-2.21061e-11
0.0168
3.30112e-07
-2.96116e-11
0.0167998
8.5524e-07
-3.09505e-11
0.0167995
1.97665e-06
-4.60402e-11
0.0167984
4.90282e-06
-4.15271e-11
0.0167967
1.15409e-05
-1.27851e-10
0.0167889
3.12921e-05
-1.52699e-11
0.0167741
7.90214e-05
-3.69732e-10
0.0167257
0.000268188
-2.30648e-10
0.0165624
0.000841088
-1.3744e-09
0.0156627
0.00489874
-3.02853e-09
0.014474
0.00585302
4.38547e-11
0.0133349
0.00577069
-2.69119e-10
0.0121559
0.0060907
-5.14077e-10
0.0108887
0.00654228
-5.16279e-10
0.00949465
0.00715219
-5.1122e-10
0.0079547
0.00785339
-5.20187e-10
0.0062305
0.00859143
-5.48956e-10
0.00432004
0.00932655
-5.78227e-10
0.00223374
0.01002
-6.00928e-10
0.0105279
-6.16673e-10
0.0168001
1.04563e-09
-3.41735e-12
0.0168001
5.76639e-09
-1.1646e-11
0.0168001
2.15121e-08
-1.35072e-11
0.0168001
5.50285e-08
-2.16506e-11
0.0168
1.52456e-07
-2.15401e-11
0.0168
3.48408e-07
-2.92981e-11
0.0167999
9.19027e-07
-2.9676e-11
0.0167999
2.04214e-06
-4.08362e-11
0.0167991
5.52743e-06
-4.40542e-11
0.0167987
1.19805e-05
-8.05197e-11
0.0167926
3.68289e-05
-1.05132e-10
0.0167844
8.71741e-05
-2.59479e-10
0.0167192
0.000331268
-3.53562e-10
0.0165726
0.000984046
-1.40032e-09
0.0157771
0.00568041
-3.13725e-09
0.0145628
0.00706905
1.88256e-10
0.0134374
0.00689631
-1.96181e-10
0.0122961
0.00723101
-4.84355e-10
0.0110901
0.00774714
-4.85611e-10
0.00974333
0.00849789
-4.76111e-10
0.00823793
0.00935795
-4.85361e-10
0.00654882
0.0102798
-5.09727e-10
0.00461673
0.0112566
-5.40071e-10
0.00241699
0.0122188
-5.60511e-10
0.0129437
-5.8837e-10
0.0168001
1.03141e-09
-3.37194e-12
0.0168001
5.73013e-09
-1.16467e-11
0.0168001
2.14022e-08
-1.34899e-11
0.0168001
5.46803e-08
-2.1651e-11
0.0168001
1.51189e-07
-2.14606e-11
0.0168001
3.41787e-07
-2.92334e-11
0.0168
9.25328e-07
-2.9489e-11
0.0168002
1.89662e-06
-4.03089e-11
0.0167996
6.05578e-06
-4.37888e-11
0.0168007
1.08669e-05
-7.76617e-11
0.0167938
4.30855e-05
-1.05328e-10
0.016792
8.89098e-05
-2.45741e-10
0.0167221
0.000399173
-3.82552e-10
0.0166081
0.00109518
-1.38192e-09
0.0160467
0.00622716
-3.31386e-09
0.0147674
0.00835062
2.47282e-10
0.0136213
0.00804299
-1.53194e-10
0.0125051
0.00834646
-4.54103e-10
0.0113543
0.00889703
-4.53365e-10
0.0101003
0.00975114
-4.34432e-10
0.00865039
0.0108066
-4.46419e-10
0.00698189
0.0119479
-4.73833e-10
0.00504699
0.013191
-5.068e-10
0.00274429
0.0145202
-5.23705e-10
0.0156867
-5.50707e-10
0.0168001
1.15305e-09
-3.3453e-12
0.0168001
6.40144e-09
-1.16215e-11
0.0168001
2.38184e-08
-1.36043e-11
0.0168
6.09947e-08
-2.14345e-11
0.0168
1.68005e-07
-2.19715e-11
0.0168
3.81507e-07
-2.92983e-11
0.0167999
1.0204e-06
-3.0392e-11
0.0167996
2.12867e-06
-4.40993e-11
0.0167989
6.66656e-06
-4.08653e-11
0.0167986
1.12606e-05
-1.19081e-10
0.0167922
4.88823e-05
-2.0642e-11
0.0167879
9.33875e-05
-3.44775e-10
0.0167614
0.000423649
-2.1234e-10
0.0167094
0.00114469
-1.28763e-09
0.0166621
0.006259
-3.20656e-09
0.0152804
0.00973487
9.24909e-11
0.0140316
0.00929293
-2.27016e-10
0.0128956
0.00948221
-4.44906e-10
0.011778
0.0100139
-4.35163e-10
0.0105744
0.0109542
-4.05067e-10
0.0092154
0.0121647
-4.09359e-10
0.0076128
0.0135496
-4.26824e-10
0.00568446
0.0151186
-4.51308e-10
0.00325535
0.0169484
-4.76148e-10
0.0189407
-5.03957e-10
0.0168001
1.57023e-09
-3.31082e-12
0.0168001
7.06365e-09
-1.15918e-11
0.0168001
2.79326e-08
-1.35968e-11
0.0168
6.92823e-08
-2.13211e-11
0.0168
1.9502e-07
-2.16834e-11
0.0168
4.36925e-07
-2.85438e-11
0.0167998
1.16913e-06
-2.87801e-11
0.0167994
2.51488e-06
-3.72393e-11
0.0167989
7.10487e-06
-4.10751e-11
0.0167965
1.36882e-05
-7.15111e-11
0.0167957
4.90921e-05
-6.74993e-11
0.0167999
8.91648e-05
-2.39353e-10
0.0168109
0.000410605
-2.97985e-10
0.0168932
0.00106037
-1.14443e-09
0.0176798
0.00545661
-3.04189e-09
0.0161745
0.0112409
-3.45639e-10
0.0146876
0.0107807
-3.22443e-10
0.013537
0.0106331
-3.91809e-10
0.0124516
0.0110991
-3.90061e-10
0.0112875
0.0121181
-3.75734e-10
0.00997995
0.0134718
-3.78583e-10
0.00852575
0.0150032
-3.92862e-10
0.00674889
0.0168947
-4.03221e-10
0.00422156
0.0194745
-4.20664e-10
0.0231608
-4.39648e-10
0.0168001
-3.35428e-12
2.86293e-09
0.0168001
-1.15174e-11
2.85461e-09
0.0168
-1.37543e-11
3.97252e-08
0.0168001
-2.13804e-11
3.87046e-08
0.0168
-2.17599e-11
2.66665e-07
0.0168002
-2.85059e-11
2.5651e-07
0.0167997
-2.83932e-11
1.6106e-06
0.0168008
-3.63187e-11
1.4347e-06
0.0167978
-3.94316e-11
1.00945e-05
0.016805
-5.72978e-11
6.47527e-06
0.0167825
-7.25007e-11
7.11525e-05
0.0168388
-1.76501e-10
3.28183e-05
0.0167459
-2.56848e-10
0.000502161
0.0171226
-8.5459e-10
0.000680768
0.0185976
-1.87495e-09
0.00397466
0.0173274
-1.59736e-09
0.0125042
0.0154766
-5.15111e-10
0.0126303
0.0144291
-3.22557e-10
0.0116803
0.0132876
-3.36777e-10
0.0122403
0.0122403
-3.42187e-10
0.0131651
0.0111119
-3.50676e-10
0.0145998
0.0098594
-3.5587e-10
0.0162552
0.00822164
-3.65448e-10
0.0185319
0.00582602
-3.73817e-10
0.0218693
-3.80601e-10
0.0289851
0.0168001
1.89052e-10
-6.401e-16
0.0168001
1.02975e-09
-3.31816e-15
0.0168001
3.83116e-09
-7.86546e-15
0.0168
9.84541e-09
-1.65073e-14
0.0168
2.70602e-08
-3.4645e-14
0.0167999
6.19997e-08
-6.64186e-14
0.0167998
1.61039e-07
-1.5488e-13
0.0167994
3.63258e-07
-3.04858e-13
0.0167984
9.40907e-07
-7.984e-13
0.0167963
2.14973e-06
-1.64272e-12
0.0167898
5.8244e-06
-4.42342e-12
0.0167742
1.56574e-05
-1.21309e-11
0.0167183
5.3825e-05
-3.19787e-11
0.0165448
0.000170021
-1.01017e-10
0.0155228
0.00101039
-2.52235e-10
0.0143755
0.00114764
8.93736e-12
0.0132031
0.00117223
-5.73386e-12
0.0119535
0.00124852
-2.65663e-11
0.0106173
0.00133504
-2.85592e-11
0.00917722
0.00143874
-3.00756e-11
0.00761151
0.00156454
-2.97753e-11
0.00591155
0.00169896
-3.02533e-11
0.00408518
0.00182532
-3.11978e-11
0.00212583
0.00195817
-3.19287e-11
0.00212454
-3.2544e-11
0.0168001
3.87257e-10
-6.41932e-16
0.0168001
2.10833e-09
-3.33875e-15
0.0168
7.84328e-09
-7.90402e-15
0.0168
2.0111e-08
-1.65959e-14
0.0168
5.5357e-08
-3.48437e-14
0.0167999
1.26583e-07
-6.68267e-14
0.0167998
3.29629e-07
-1.55913e-13
0.0167994
7.40024e-07
-3.07087e-13
0.0167983
1.93249e-06
-8.03478e-13
0.0167961
4.3674e-06
-1.65505e-12
0.0167893
1.20268e-05
-4.44681e-12
0.0167732
3.17422e-05
-1.21587e-11
0.0167144
0.000110668
-3.21292e-11
0.0165347
0.000346185
-1.01073e-10
0.0154982
0.00203518
-2.537e-10
0.0143358
0.00231038
1.06918e-11
0.0131753
0.00233258
-5.06976e-12
0.011938
0.00248468
-2.63565e-11
0.0106085
0.00266342
-2.81612e-11
0.00915536
0.0028906
-2.94545e-11
0.00757114
0.0031476
-2.92e-11
0.0058518
0.00341734
-2.9773e-11
0.00400384
0.00367224
-3.0602e-11
0.00203644
0.00392437
-3.13326e-11
0.00415968
-3.19535e-11
0.0168001
5.93596e-10
-6.47342e-16
0.0168001
3.24057e-09
-3.36161e-15
0.0168
1.20538e-08
-7.98297e-15
0.0168
3.0956e-08
-1.67687e-14
0.0168
8.51524e-08
-3.53253e-14
0.0167999
1.94923e-07
-6.78294e-14
0.0167997
5.07265e-07
-1.58539e-13
0.0167993
1.13793e-06
-3.1272e-13
0.0167982
2.98103e-06
-8.16514e-13
0.0167959
6.66436e-06
-1.68474e-12
0.0167888
1.85192e-05
-4.51024e-12
0.0167727
4.78201e-05
-1.222e-11
0.0167137
0.000167687
-3.25181e-11
0.0165376
0.000518755
-1.01423e-10
0.015516
0.00304474
-2.58286e-10
0.0143429
0.00348409
1.46121e-11
0.0131892
0.0034862
-3.70571e-12
0.0119643
0.00370853
-2.60617e-11
0.0106475
0.00397908
-2.75156e-11
0.00919754
0.00433932
-2.83062e-11
0.00761054
0.0047334
-2.80899e-11
0.00588592
0.00514092
-2.88735e-11
0.00401744
0.00553978
-2.94891e-11
0.00203803
0.00590265
-3.05597e-11
0.00619641
-3.0863e-11
0.0168001
8.40921e-10
-6.5525e-16
0.0168001
4.53397e-09
-3.39649e-15
0.0168
1.68946e-08
-8.09683e-15
0.0168
4.33238e-08
-1.70133e-14
0.0168
1.19529e-07
-3.597e-14
0.0167999
2.7503e-07
-6.90977e-14
0.0167997
7.08673e-07
-1.61805e-13
0.0167992
1.65237e-06
-3.18025e-13
0.0167981
3.98095e-06
-8.34047e-13
0.016795
9.8153e-06
-1.70341e-12
0.0167888
2.40699e-05
-4.60679e-12
0.0167721
6.44043e-05
-1.22316e-11
0.016716
0.000221818
-3.31614e-11
0.0165501
0.000681195
-1.02119e-10
0.0155702
0.00401218
-2.66242e-10
0.0143923
0.00466287
2.5025e-11
0.013247
0.00463145
-1.63056e-12
0.0120418
0.00491272
-2.55943e-11
0.0107437
0.00527606
-2.65812e-11
0.00932237
0.0057594
-2.67451e-11
0.00774055
0.00631424
-2.64339e-11
0.0060119
0.00686844
-2.75993e-11
0.00413382
0.00741684
-2.80485e-11
0.00210036
0.00793473
-2.99729e-11
0.00829547
-2.96777e-11
0.0168001
1.00795e-09
-6.89594e-16
0.0168001
5.4416e-09
-3.52997e-15
0.0168001
2.02817e-08
-8.60457e-15
0.0168
5.18675e-08
-1.81829e-14
0.0168
1.4371e-07
-3.94324e-14
0.0168
3.30376e-07
-7.74371e-14
0.0167998
8.55992e-07
-1.78977e-13
0.0167995
1.97935e-06
-3.96125e-13
0.0167984
4.90257e-06
-8.13667e-13
0.0167967
1.15632e-05
-2.27613e-12
0.0167889
3.12536e-05
-3.51584e-12
0.0167741
7.90644e-05
-1.28064e-11
0.0167257
0.000268135
-3.3172e-11
0.0165625
0.000841068
-1.03295e-10
0.0156629
0.00489868
-2.76963e-10
0.0144742
0.00585281
3.35018e-11
0.0133351
0.0057706
6.19566e-14
0.0121561
0.00609064
-2.49444e-11
0.0108889
0.00654224
-2.54142e-11
0.00949481
0.00715218
-2.48733e-11
0.00795484
0.00785341
-2.43887e-11
0.0062306
0.00859152
-2.62296e-11
0.0043201
0.00932663
-2.82525e-11
0.00223378
0.0100201
-2.98062e-11
0.010528
-2.96131e-11
0.0168001
1.06811e-09
-6.62369e-16
0.0168001
5.7848e-09
-3.39551e-15
0.0168001
2.15418e-08
-8.16032e-15
0.0168001
5.50569e-08
-1.73878e-14
0.0168
1.52531e-07
-3.65668e-14
0.0168
3.48507e-07
-7.14992e-14
0.0167999
9.19234e-07
-1.66845e-13
0.0167999
2.04263e-06
-3.39804e-13
0.0167991
5.52809e-06
-8.46526e-13
0.0167988
1.19826e-05
-1.77604e-12
0.0167925
3.68311e-05
-5.15285e-12
0.0167844
8.71823e-05
-1.23097e-11
0.0167192
0.000331265
-3.18405e-11
0.0165725
0.000984086
-1.07207e-10
0.0157769
0.0056805
-2.86019e-10
0.0145627
0.00706869
3.59687e-11
0.0134374
0.00689609
1.63335e-12
0.0122961
0.00723087
-2.42174e-11
0.0110903
0.00774706
-2.40662e-11
0.00974346
0.00849787
-2.27032e-11
0.00823807
0.00935797
-2.26831e-11
0.00654898
0.0102799
-2.35638e-11
0.00461681
0.0112568
-2.50637e-11
0.00241702
0.0122189
-2.61823e-11
0.0129438
-2.74505e-11
0.0168001
1.04531e-09
-6.18102e-16
0.0168001
5.75675e-09
-3.19969e-15
0.0168001
2.13734e-08
-7.51274e-15
0.0168001
5.47855e-08
-1.59803e-14
0.0168001
1.51017e-07
-3.26009e-14
0.0168001
3.41768e-07
-6.25612e-14
0.0168
9.24995e-07
-1.48676e-13
0.0168002
1.89525e-06
-2.70608e-13
0.0167996
6.05733e-06
-8.40557e-13
0.0168007
1.08497e-05
-1.38647e-12
0.0167938
4.31273e-05
-5.31052e-12
0.016792
8.88727e-05
-9.87021e-12
0.016722
0.00039929
-4.12507e-11
0.0166079
0.0010953
-1.05188e-10
0.016046
0.00622768
-3.02571e-10
0.014767
0.00835013
4.39941e-11
0.013621
0.00804253
6.29384e-12
0.012505
0.00834618
-2.18521e-11
0.0113542
0.00889686
-2.17001e-11
0.0101003
0.00975105
-1.98744e-11
0.00865044
0.0108066
-2.0822e-11
0.00698195
0.011948
-2.28053e-11
0.00504707
0.0131911
-2.47564e-11
0.00274433
0.0145203
-2.51361e-11
0.0156868
-2.64405e-11
0.0168001
1.16895e-09
-5.64351e-16
0.0168001
6.42266e-09
-2.99753e-15
0.0168001
2.38406e-08
-6.79176e-15
0.0168
6.10455e-08
-1.40902e-14
0.0168
1.6817e-07
-2.79839e-14
0.0168
3.81908e-07
-5.10902e-14
0.0167999
1.02139e-06
-1.24655e-13
0.0167996
2.13237e-06
-1.70324e-13
0.0167989
6.66839e-06
-8.59138e-13
0.0167986
1.1282e-05
-5.26634e-13
0.0167922
4.88734e-05
-5.59965e-12
0.0167878
9.34484e-05
-7.61687e-12
0.0167614
0.000423636
-4.3877e-11
0.0167094
0.00114485
-1.0352e-10
0.0166617
0.00625986
-3.13018e-10
0.0152801
0.00973432
3.10499e-11
0.0140314
0.00929238
9.91869e-12
0.0128954
0.00948186
-1.79079e-11
0.011778
0.0100137
-1.84842e-11
0.0105744
0.0109541
-1.74388e-11
0.00921541
0.0121647
-1.79802e-11
0.00761282
0.0135496
-1.98325e-11
0.00568448
0.0151187
-2.16264e-11
0.00325537
0.0169485
-2.38408e-11
0.0189409
-2.60088e-11
0.0168001
1.53483e-09
-5.91622e-16
0.0168001
7.17695e-09
-3.09055e-15
0.0168001
2.77794e-08
-7.19988e-15
0.0168
6.91743e-08
-1.50818e-14
0.0168
1.94824e-07
-3.10244e-14
0.0168
4.369e-07
-5.92476e-14
0.0167998
1.16933e-06
-1.38145e-13
0.0167994
2.51612e-06
-2.66537e-13
0.0167989
7.10677e-06
-7.72022e-13
0.0167965
1.36999e-05
-1.21781e-12
0.0167957
4.90972e-05
-5.4375e-12
0.0167999
8.92086e-05
-8.47136e-12
0.0168109
0.000410654
-3.91544e-11
0.0168931
0.0010606
-9.69312e-11
0.017679
0.00545815
-3.07844e-10
0.016174
0.01124
-1.27291e-12
0.0146873
0.0107799
7.63939e-13
0.0135368
0.0106327
-1.43888e-11
0.0124514
0.0110989
-1.56141e-11
0.0112873
0.012118
-1.58089e-11
0.00997987
0.0134717
-1.56963e-11
0.0085257
0.0150032
-1.77503e-11
0.00674888
0.0168948
-1.93535e-11
0.00422156
0.0194747
-2.25378e-11
0.023161
-2.54886e-11
0.0168001
-5.50183e-16
2.73543e-09
0.0168001
-2.90894e-15
3.23205e-09
0.0168
-6.56295e-15
3.85429e-08
0.0168001
-1.36639e-14
3.91746e-08
0.0168
-2.66429e-14
2.65384e-07
0.0168002
-4.994e-14
2.57125e-07
0.0167997
-1.09862e-13
1.60949e-06
0.0168008
-2.07597e-13
1.43565e-06
0.0167978
-5.66034e-13
1.00939e-05
0.016805
-9.98548e-13
6.47922e-06
0.0167825
-3.93242e-12
7.11512e-05
0.0168388
-5.18311e-12
3.28443e-05
0.0167459
-2.84893e-11
0.000502164
0.0171227
-6.78139e-11
0.000681
0.0185987
-1.83263e-10
0.00397518
0.0173278
-1.35485e-10
0.0125041
0.0154765
-2.53112e-11
0.01263
0.014429
-1.35136e-11
0.0116798
0.0132875
-1.48964e-11
0.01224
0.0122401
-1.51895e-11
0.0131649
0.0111118
-1.53763e-11
0.0145997
0.00985932
-1.64894e-11
0.0162552
0.00822159
-1.90288e-11
0.018532
0.005826
-2.36691e-11
0.0218694
-2.85413e-11
0.0289853
0.0168001
1.89051e-10
1.70718e-16
0.0168001
1.02974e-09
-5.35842e-17
0.0168001
3.83113e-09
-3.78667e-16
0.0168
9.84534e-09
-8.18432e-16
0.0168
2.706e-08
-2.32949e-15
0.0167999
6.19994e-08
-4.76842e-15
0.0167998
1.61038e-07
-1.34478e-14
0.0167994
3.63256e-07
-2.75589e-14
0.0167984
9.40902e-07
-7.83323e-14
0.0167963
2.14972e-06
-1.63004e-13
0.0167898
5.82438e-06
-4.60523e-13
0.0167742
1.56574e-05
-1.25848e-12
0.0167183
5.38249e-05
-3.43212e-12
0.0165448
0.000170021
-1.08694e-11
0.0155228
0.00101039
-2.75863e-11
0.0143755
0.00114764
3.80253e-13
0.0132031
0.00117223
-9.75349e-13
0.0119535
0.00124852
-3.01896e-12
0.0106173
0.00133504
-3.18729e-12
0.00917723
0.00143874
-3.24824e-12
0.00761152
0.00156454
-3.07908e-12
0.00591155
0.00169897
-3.06178e-12
0.00408518
0.00182532
-3.11795e-12
0.00212584
0.00195817
-3.17239e-12
0.00212454
-3.21574e-12
0.0168001
3.87255e-10
1.70687e-16
0.0168001
2.10832e-09
1.13867e-17
0.0168
7.84323e-09
-3.81796e-16
0.0168
2.01108e-08
-8.25224e-16
0.0168
5.53567e-08
-2.34808e-15
0.0167999
1.26582e-07
-4.80691e-15
0.0167998
3.29627e-07
-1.35485e-14
0.0167994
7.40019e-07
-2.77759e-14
0.0167983
1.93248e-06
-7.88321e-14
0.0167961
4.36738e-06
-1.64198e-13
0.0167893
1.20267e-05
-4.62868e-13
0.0167732
3.17421e-05
-1.26089e-12
0.0167144
0.000110668
-3.44695e-12
0.0165347
0.000346185
-1.08713e-11
0.0154982
0.00203518
-2.77334e-11
0.0143358
0.00231038
5.60273e-13
0.0131753
0.00233258
-8.85592e-13
0.011938
0.00248468
-3.00184e-12
0.0106085
0.00266342
-3.15346e-12
0.00915537
0.0028906
-3.19584e-12
0.00757115
0.00314761
-3.03153e-12
0.0058518
0.00341734
-3.02542e-12
0.00400384
0.00367224
-3.07997e-12
0.00203645
0.00392437
-3.1388e-12
0.00415969
-3.18341e-12
0.0168001
5.93592e-10
1.70736e-16
0.0168001
3.24055e-09
1.29494e-17
0.0168
1.20537e-08
-3.89594e-16
0.0168
3.09558e-08
-8.42308e-16
0.0168
8.51517e-08
-2.39529e-15
0.0167999
1.94921e-07
-4.90505e-15
0.0167997
5.0726e-07
-1.38056e-14
0.0167993
1.13792e-06
-2.83254e-14
0.0167982
2.981e-06
-8.01179e-14
0.0167959
6.66431e-06
-1.67078e-13
0.0167888
1.85191e-05
-4.69261e-13
0.0167727
4.78201e-05
-1.26625e-12
0.0167137
0.000167687
-3.48577e-12
0.0165376
0.000518756
-1.09001e-11
0.0155161
0.00304474
-2.8204e-11
0.0143429
0.00348409
9.60802e-13
0.0131892
0.00348619
-6.94769e-13
0.0119643
0.00370853
-2.98429e-12
0.0106476
0.00397908
-3.10627e-12
0.00919755
0.00433932
-3.10751e-12
0.00761055
0.0047334
-2.94755e-12
0.00588593
0.00514093
-2.96705e-12
0.00401744
0.00553979
-3.01748e-12
0.00203803
0.00590266
-3.09117e-12
0.00619642
-3.12857e-12
0.0168001
8.40905e-10
1.70768e-16
0.0168001
4.53391e-09
-7.77271e-17
0.0168
1.68944e-08
-4.01087e-16
0.0168
4.33231e-08
-8.66898e-16
0.0168
1.19527e-07
-2.45896e-15
0.0167999
2.75025e-07
-5.02954e-15
0.0167997
7.08663e-07
-1.4126e-14
0.0167992
1.65233e-06
-2.88333e-14
0.0167981
3.98094e-06
-8.18637e-14
0.016795
9.81504e-06
-1.68765e-13
0.0167888
2.407e-05
-4.79133e-13
0.0167722
6.4404e-05
-1.2662e-12
0.016716
0.000221818
-3.55035e-12
0.0165501
0.000681195
-1.09613e-11
0.0155702
0.00401218
-2.90203e-11
0.0143923
0.00466286
1.58912e-12
0.013247
0.00463145
-5.0205e-13
0.0120418
0.00491272
-2.95415e-12
0.0107437
0.00527606
-3.0396e-12
0.00932238
0.00575941
-2.99287e-12
0.00774056
0.00631424
-2.82757e-12
0.0060119
0.00686845
-2.87841e-12
0.00413383
0.00741685
-2.93594e-12
0.00210036
0.00793474
-3.03628e-12
0.00829548
-3.06401e-12
0.0168001
1.00796e-09
1.70765e-16
0.0168001
5.44168e-09
-1.24093e-16
0.0168001
2.02819e-08
-4.52088e-16
0.0168
5.18681e-08
-9.84524e-16
0.0168
1.43711e-07
-2.80558e-15
0.0168
3.3038e-07
-5.86867e-15
0.0167998
8.56001e-07
-1.58415e-14
0.0167995
1.97938e-06
-3.67545e-14
0.0167984
4.90257e-06
-7.95894e-14
0.0167967
1.15635e-05
-2.27235e-13
0.0167889
3.12532e-05
-4.23885e-13
0.0167741
7.90647e-05
-1.32449e-12
0.0167257
0.000268136
-3.54828e-12
0.0165625
0.000841067
-1.10695e-11
0.0156629
0.00489868
-3.01165e-11
0.0144742
0.00585279
2.31113e-12
0.0133351
0.00577059
-4.29237e-13
0.0121561
0.00609063
-2.91417e-12
0.0108889
0.00654224
-2.95918e-12
0.00949482
0.00715218
-2.85709e-12
0.00795485
0.00785342
-2.69734e-12
0.0062306
0.00859153
-2.78554e-12
0.00432011
0.00932664
-2.901e-12
0.00223378
0.0100201
-2.98419e-12
0.010528
-3.02653e-12
0.0168001
1.06813e-09
1.70831e-16
0.0168001
5.78492e-09
1.56862e-17
0.0168001
2.15423e-08
-4.12062e-16
0.0168001
5.5058e-08
-8.90786e-16
0.0168
1.52534e-07
-2.5473e-15
0.0168
3.48514e-07
-5.25312e-15
0.0167999
9.1925e-07
-1.46362e-14
0.0167999
2.04268e-06
-3.09945e-14
0.0167991
5.52814e-06
-8.30426e-14
0.0167988
1.19829e-05
-1.76243e-13
0.0167925
3.68313e-05
-5.32498e-13
0.0167844
8.71836e-05
-1.27472e-12
0.0167192
0.000331261
-3.40138e-12
0.0165725
0.000984088
-1.14538e-11
0.0157769
0.00568051
-3.10323e-11
0.0145627
0.00706867
3.14951e-12
0.0134374
0.00689608
-2.08502e-13
0.0122962
0.00723087
-2.87237e-12
0.0110903
0.00774706
-2.86762e-12
0.00974347
0.00849787
-2.70519e-12
0.00823807
0.00935797
-2.5793e-12
0.00654899
0.0102799
-2.64125e-12
0.00461681
0.0112568
-2.77323e-12
0.00241702
0.0122189
-2.86781e-12
0.0129438
-2.9572e-12
0.0168001
1.04533e-09
1.70299e-16
0.0168001
5.75686e-09
-2.12504e-17
0.0168001
2.13738e-08
-3.48662e-16
0.0168001
5.47867e-08
-7.52688e-16
0.0168001
1.5102e-07
-2.15284e-15
0.0168001
3.41775e-07
-4.35993e-15
0.0168
9.25012e-07
-1.28076e-14
0.0168002
1.89531e-06
-2.39779e-14
0.0167996
6.05736e-06
-8.24336e-14
0.0168007
1.08501e-05
-1.36379e-13
0.0167938
4.31268e-05
-5.48102e-13
0.016792
8.8874e-05
-1.02144e-12
0.016722
0.000399289
-4.36573e-12
0.0166079
0.0010953
-1.12131e-11
0.016046
0.00622771
-3.26759e-11
0.0147669
0.00835009
3.96842e-12
0.013621
0.00804251
2.66711e-13
0.012505
0.00834617
-2.6786e-12
0.0113543
0.00889686
-2.68286e-12
0.0101003
0.00975105
-2.51337e-12
0.00865044
0.0108066
-2.45216e-12
0.00698196
0.011948
-2.56702e-12
0.00504707
0.0131912
-2.72944e-12
0.00274433
0.0145203
-2.83415e-12
0.0156868
-2.93744e-12
0.0168001
1.16894e-09
1.6865e-16
0.0168001
6.42262e-09
3.66994e-17
0.0168001
2.38404e-08
-2.7623e-16
0.0168
6.10452e-08
-5.87205e-16
0.0168
1.68169e-07
-1.67983e-15
0.0168
3.81905e-07
-3.26753e-15
0.0167999
1.02139e-06
-1.04485e-14
0.0167996
2.13233e-06
-1.4133e-14
0.0167989
6.66844e-06
-8.42664e-14
0.0167986
1.12818e-05
-5.03215e-14
0.0167922
4.88741e-05
-6.89305e-13
0.0167878
9.34485e-05
-7.90868e-13
0.0167614
0.000423642
-4.61642e-12
0.0167094
0.00114486
-1.09975e-11
0.0166616
0.00625995
-3.36222e-11
0.01528
0.00973426
3.30258e-12
0.0140314
0.00929234
6.13358e-13
0.0128954
0.00948184
-2.33835e-12
0.0117779
0.0100137
-2.4257e-12
0.0105744
0.0109541
-2.36462e-12
0.00921541
0.0121647
-2.28823e-12
0.00761282
0.0135496
-2.42314e-12
0.00568447
0.0151187
-2.61077e-12
0.00325537
0.0169486
-2.85468e-12
0.0189409
-3.03027e-12
0.0168001
1.53484e-09
1.69197e-16
0.0168001
7.17704e-09
9.34955e-18
0.0168001
2.77797e-08
-3.18414e-16
0.0168
6.91751e-08
-6.89497e-16
0.0168
1.94827e-07
-1.99185e-15
0.0168
4.36905e-07
-4.09633e-15
0.0167998
1.16935e-06
-1.18425e-14
0.0167994
2.51615e-06
-2.37598e-14
0.0167989
7.10689e-06
-7.58266e-14
0.0167965
1.37e-05
-1.18985e-13
0.0167957
4.90982e-05
-5.61853e-13
0.0167999
8.92104e-05
-8.70627e-13
0.0168109
0.000410663
-4.11866e-12
0.0168931
0.00106063
-1.0253e-11
0.0176789
0.00545833
-3.28778e-11
0.0161739
0.0112399
-9.26034e-13
0.0146873
0.0107798
-3.89982e-13
0.0135367
0.0106326
-2.04448e-12
0.0124514
0.0110989
-2.2118e-12
0.0112873
0.012118
-2.29042e-12
0.00997986
0.0134717
-2.20875e-12
0.0085257
0.0150032
-2.3965e-12
0.00674888
0.0168948
-2.57494e-12
0.00422156
0.0194747
-2.95089e-12
0.023161
-3.28804e-12
0.0168001
1.6858e-16
2.73542e-09
0.0168001
6.15454e-17
3.23215e-09
0.0168
-2.50123e-16
3.8543e-08
0.0168001
-5.40283e-16
3.91753e-08
0.0168
-1.53859e-15
2.65386e-07
0.0168002
-3.14089e-15
2.57128e-07
0.0167997
-8.94706e-15
1.6095e-06
0.0168008
-1.77434e-14
1.43566e-06
0.0167978
-5.45196e-14
1.0094e-05
0.016805
-9.74158e-14
6.47924e-06
0.0167825
-4.03043e-13
7.11523e-05
0.0168388
-5.33156e-13
3.28444e-05
0.016746
-2.98034e-12
0.000502171
0.0171227
-7.15193e-12
0.00068102
0.0185988
-1.95071e-11
0.00397525
0.0173278
-1.48949e-11
0.0125041
0.0154764
-3.20195e-12
0.01263
0.014429
-2.02248e-12
0.0116798
0.0132874
-2.24923e-12
0.01224
0.0122401
-2.31027e-12
0.0131649
0.0111118
-2.33415e-12
0.0145997
0.0098593
-2.46439e-12
0.0162552
0.00822158
-2.78679e-12
0.018532
0.00582599
-3.34972e-12
0.0218694
-4.12829e-12
0.0289853
0.0168001
1.89051e-10
-4.33901e-17
0.0168001
1.02974e-09
-1.78898e-16
0.0168001
3.83113e-09
-5.42211e-16
0.0168
9.84534e-09
-1.11556e-15
0.0168
2.706e-08
-3.02762e-15
0.0167999
6.19993e-08
-6.09306e-15
0.0167998
1.61038e-07
-1.6911e-14
0.0167994
3.63255e-07
-3.45434e-14
0.0167984
9.40902e-07
-9.73143e-14
0.0167963
2.14972e-06
-2.03373e-13
0.0167898
5.82438e-06
-5.64547e-13
0.0167742
1.56574e-05
-1.58017e-12
0.0167183
5.38248e-05
-4.15309e-12
0.0165448
0.000170021
-1.36188e-11
0.0155228
0.00101039
-3.49312e-11
0.0143755
0.00114764
1.5271e-12
0.0132031
0.00117223
-2.08917e-13
0.0119535
0.00124852
-2.57549e-12
0.0106173
0.00133504
-2.67296e-12
0.00917723
0.00143874
-2.51124e-12
0.00761152
0.00156454
-2.18501e-12
0.00591155
0.00169897
-2.21323e-12
0.00408518
0.00182532
-2.38656e-12
0.00212584
0.00195817
-2.53767e-12
0.00212454
-2.66572e-12
0.0168001
3.87255e-10
-4.37543e-17
0.0168001
2.10831e-09
-1.80453e-16
0.0168
7.84323e-09
-5.4665e-16
0.0168
2.01108e-08
-1.12498e-15
0.0168
5.53566e-08
-3.05257e-15
0.0167999
1.26582e-07
-6.14442e-15
0.0167998
3.29627e-07
-1.70432e-14
0.0167994
7.40019e-07
-3.48291e-14
0.0167983
1.93247e-06
-9.79558e-14
0.0167961
4.36738e-06
-2.04934e-13
0.0167893
1.20267e-05
-5.67378e-13
0.0167732
3.17421e-05
-1.58347e-12
0.0167144
0.000110668
-4.16907e-12
0.0165347
0.000346185
-1.36127e-11
0.0154982
0.00203518
-3.50631e-11
0.0143358
0.00231038
1.76662e-12
0.0131753
0.00233258
-1.50873e-13
0.011938
0.00248468
-2.54408e-12
0.0106085
0.00266342
-2.61398e-12
0.00915537
0.0028906
-2.42048e-12
0.00757115
0.00314761
-2.10055e-12
0.0058518
0.00341734
-2.15758e-12
0.00400384
0.00367224
-2.32791e-12
0.00203645
0.00392437
-2.49573e-12
0.00415969
-2.63424e-12
0.0168001
5.93592e-10
-4.4703e-17
0.0168001
3.24055e-09
-1.84239e-16
0.0168
1.20537e-08
-5.57983e-16
0.0168
3.09557e-08
-1.14869e-15
0.0168
8.51516e-08
-3.11626e-15
0.0167999
1.94921e-07
-6.27591e-15
0.0167997
5.0726e-07
-1.73828e-14
0.0167993
1.13792e-06
-3.5557e-14
0.0167982
2.981e-06
-9.96166e-14
0.0167959
6.66431e-06
-2.08736e-13
0.0167888
1.85191e-05
-5.75218e-13
0.0167727
4.78201e-05
-1.59097e-12
0.0167137
0.000167687
-4.21311e-12
0.0165376
0.000518756
-1.36373e-11
0.0155161
0.00304474
-3.55954e-11
0.0143429
0.00348408
2.29982e-12
0.0131892
0.00348619
-8.27397e-15
0.0119643
0.00370853
-2.50538e-12
0.0106476
0.00397908
-2.52675e-12
0.00919755
0.00433932
-2.25215e-12
0.00761055
0.0047334
-1.90207e-12
0.00588593
0.00514093
-2.06338e-12
0.00401744
0.00553979
-2.22028e-12
0.00203803
0.00590266
-2.42325e-12
0.00619642
-2.55932e-12
0.0168001
8.40904e-10
-4.61616e-17
0.0168001
4.5339e-09
-1.90153e-16
0.0168
1.68944e-08
-5.74553e-16
0.0168
4.33231e-08
-1.18281e-15
0.0168
1.19527e-07
-3.20198e-15
0.0167999
2.75025e-07
-6.44264e-15
0.0167997
7.08662e-07
-1.78062e-14
0.0167992
1.65232e-06
-3.62341e-14
0.0167981
3.98094e-06
-1.01875e-13
0.016795
9.81501e-06
-2.11003e-13
0.0167888
2.40701e-05
-5.87445e-13
0.0167722
6.44039e-05
-1.59171e-12
0.016716
0.000221818
-4.28853e-12
0.0165501
0.000681196
-1.37025e-11
0.0155702
0.00401218
-3.65643e-11
0.0143923
0.00466286
3.12762e-12
0.013247
0.00463145
2.0963e-13
0.0120418
0.00491272
-2.43167e-12
0.0107437
0.00527606
-2.39888e-12
0.00932238
0.00575941
-2.03503e-12
0.00774056
0.00631424
-1.56667e-12
0.0060119
0.00686845
-1.82269e-12
0.00413383
0.00741685
-2.03009e-12
0.00210036
0.00793474
-2.29758e-12
0.00829548
-2.43674e-12
0.0168001
1.00796e-09
-5.21764e-17
0.0168001
5.44168e-09
-2.11347e-16
0.0168001
2.02819e-08
-6.45755e-16
0.0168
5.18682e-08
-1.34145e-15
0.0168
1.43712e-07
-3.65801e-15
0.0168
3.30381e-07
-7.539e-15
0.0167998
8.56002e-07
-2.00406e-14
0.0167995
1.97938e-06
-4.64684e-14
0.0167984
4.90257e-06
-9.90522e-14
0.0167967
1.15635e-05
-2.86347e-13
0.0167889
3.12532e-05
-5.16497e-13
0.0167741
7.90647e-05
-1.67038e-12
0.0167257
0.000268136
-4.27641e-12
0.0165625
0.000841067
-1.38277e-11
0.0156629
0.00489868
-3.7874e-11
0.0144742
0.00585279
4.07425e-12
0.0133351
0.00577059
4.56773e-13
0.0121561
0.00609063
-2.3387e-12