/*--------------------------------*- C++ -*----------------------------------*\
| =========                 |                                                 |
| \\      /  F ield         | OpenFOAM: The Open Source CFD Toolbox           |
|  \\    /   O peration     | Version:  4.1                                   |
|   \\  /    A nd           | Web:      www.OpenFOAM.org                      |
|    \\/     M anipulation  |                                                 |
\*---------------------------------------------------------------------------*/
FoamFile
{
    version     2.0;
    format      ascii;
    class       volVectorField;
    location    "9.86";
    object      U;
}
// * * * * * * * * * * * * * * * * * * * * * * * * * * * * * * * * * * * * * //

dimensions      [0 1 -1 0 0 0 0];

internalField   nonuniform List<vector> 
52500
(
(2.99999 1.3106e-08 -0.00571427)
(2.99998 7.20328e-08 -0.00571444)
(2.99995 2.60292e-07 -0.0057147)
(2.99986 6.64261e-07 -0.00571554)
(2.99969 1.82656e-06 -0.00571707)
(2.99918 4.16097e-06 -0.00572173)
(2.9982 1.09956e-05 -0.00573073)
(2.99517 2.39201e-05 -0.00575596)
(2.98971 6.71017e-05 -0.0058144)
(2.97005 0.000137804 -0.00593948)
(2.93253 0.000423831 -0.00638018)
(2.79971 0.00100151 -0.00709307)
(2.42091 0.00300082 -0.0100292)
(1.54858 0.00802195 -0.0154492)
(0.648929 0.0200175 -0.0182691)
(0.538368 0.0209637 -0.0184896)
(0.566488 0.0221318 -0.0185363)
(0.56159 0.024161 -0.0186195)
(0.510413 0.0263555 -0.0187924)
(0.425399 0.0287384 -0.0189745)
(0.342646 0.0314764 -0.0191681)
(0.272836 0.0346402 -0.019331)
(0.202489 0.037991 -0.019492)
(0.122014 0.0419466 -0.0196436)
(0.0543542 0.0479062 -0.019795)
(2.99999 3.99205e-08 -0.00571427)
(2.99998 2.18821e-07 -0.00571443)
(2.99995 7.91388e-07 -0.0057147)
(2.99986 2.01727e-06 -0.00571552)
(2.99969 5.54977e-06 -0.00571704)
(2.99919 1.26285e-05 -0.00572165)
(2.99821 3.34111e-05 -0.00573056)
(2.99522 7.24354e-05 -0.00575558)
(2.9898 0.000204399 -0.00581334)
(2.97035 0.000416804 -0.00593739)
(2.93328 0.0012992 -0.006373)
(2.80168 0.00304643 -0.0070771)
(2.42732 0.00925995 -0.0099881)
(1.56261 0.0246619 -0.0153673)
(0.657743 0.0605263 -0.0181717)
(0.537874 0.0608003 -0.0184144)
(0.566695 0.0619138 -0.0184584)
(0.562335 0.0658601 -0.0185332)
(0.511079 0.0700499 -0.0186988)
(0.426107 0.0746068 -0.0188723)
(0.343278 0.0795227 -0.0190576)
(0.272827 0.0847507 -0.0192118)
(0.201278 0.0896961 -0.0193622)
(0.11911 0.0945988 -0.019505)
(0.0506611 0.0998531 -0.0196428)
(2.99999 7.10223e-08 -0.00571426)
(2.99998 3.69681e-07 -0.00571443)
(2.99995 1.34923e-06 -0.00571469)
(2.99986 3.42995e-06 -0.0057155)
(2.99969 9.42699e-06 -0.00571698)
(2.99921 2.14248e-05 -0.00572151)
(2.99825 5.65677e-05 -0.00573023)
(2.99531 0.000122372 -0.00575483)
(2.98999 0.000345029 -0.00581122)
(2.97095 0.000699946 -0.00593329)
(2.9348 0.00218946 -0.00635837)
(2.8058 0.00510337 -0.00704572)
(2.44093 0.0156366 -0.00990472)
(1.5932 0.0414802 -0.0152135)
(0.678044 0.103471 -0.0180357)
(0.538481 0.10271 -0.0183266)
(0.56923 0.104 -0.0183681)
(0.566513 0.110951 -0.0184311)
(0.515583 0.118499 -0.0185902)
(0.431129 0.127095 -0.0187538)
(0.348447 0.136224 -0.0189307)
(0.277404 0.145713 -0.0190778)
(0.204644 0.154804 -0.0192206)
(0.120796 0.163279 -0.0193504)
(0.0501877 0.170261 -0.0194781)
(2.99999 1.04657e-07 -0.00571426)
(2.99998 5.28038e-07 -0.00571442)
(2.99995 1.96783e-06 -0.00571467)
(2.99987 5.01639e-06 -0.00571546)
(2.9997 1.3813e-05 -0.0057169)
(2.99923 3.15228e-05 -0.0057213)
(2.9983 8.25857e-05 -0.00572974)
(2.99545 0.000182832 -0.00575373)
(2.99028 0.000490372 -0.00580804)
(2.97185 0.00105641 -0.00592732)
(2.93707 0.00299369 -0.00633657)
(2.81198 0.00722903 -0.00699992)
(2.46115 0.0216396 -0.00978126)
(1.63965 0.0562078 -0.0149858)
(0.708818 0.145204 -0.0178639)
(0.538742 0.143514 -0.0182308)
(0.572823 0.145279 -0.0182658)
(0.57296 0.155484 -0.0183166)
(0.522837 0.166581 -0.0184647)
(0.439547 0.179439 -0.0186175)
(0.357437 0.193165 -0.0187803)
(0.286106 0.207575 -0.0189091)
(0.212143 0.221706 -0.0190549)
(0.126019 0.234634 -0.0191822)
(0.0518584 0.243857 -0.0193076)
(2.99999 1.30177e-07 -0.00571426)
(2.99998 6.91681e-07 -0.00571442)
(2.99995 2.58878e-06 -0.00571466)
(2.99987 6.63165e-06 -0.00571541)
(2.99972 1.82754e-05 -0.00571678)
(2.99926 4.18176e-05 -0.00572098)
(2.99837 0.000109 -0.00572906)
(2.99565 0.0002446 -0.00575192)
(2.99073 0.000635569 -0.00580399)
(2.973 0.00142108 -0.00591737)
(2.94011 0.00377792 -0.00631316)
(2.8201 0.00928499 -0.00693186)
(2.4862 0.0275561 -0.00963972)
(1.6958 0.0704113 -0.0147068)
(0.745287 0.187872 -0.0176643)
(0.534969 0.184283 -0.0181398)
(0.575134 0.186223 -0.0181606)
(0.579957 0.199516 -0.0181982)
(0.531435 0.21398 -0.0183296)
(0.450188 0.231048 -0.0184686)
(0.369391 0.249537 -0.0186269)
(0.29839 0.269232 -0.0187406)
(0.22355 0.288995 -0.0188504)
(0.13453 0.307292 -0.0189664)
(0.055377 0.319662 -0.0190875)
(3 1.57109e-07 -0.00571426)
(2.99998 8.70887e-07 -0.00571441)
(2.99996 3.24898e-06 -0.00571463)
(2.99988 8.36081e-06 -0.00571534)
(2.99973 2.30791e-05 -0.00571663)
(2.99931 5.31135e-05 -0.0057206)
(2.99847 0.000137544 -0.00572821)
(2.99589 0.00031613 -0.00574971)
(2.99127 0.000784206 -0.00579895)
(2.97443 0.0018352 -0.00590531)
(2.94382 0.00462341 -0.0062836)
(2.83021 0.0113529 -0.00685017)
(2.51731 0.0329235 -0.00945793)
(1.76754 0.0852218 -0.0143343)
(0.791865 0.232327 -0.0174189)
(0.529867 0.225083 -0.0180426)
(0.578103 0.226686 -0.018057)
(0.588815 0.242958 -0.0180664)
(0.542338 0.260668 -0.0181925)
(0.463942 0.282045 -0.0182905)
(0.385172 0.30594 -0.0184297)
(0.314975 0.332017 -0.0185432)
(0.239449 0.358934 -0.0186471)
(0.147032 0.384713 -0.018748)
(0.0611833 0.402572 -0.018862)
(3 1.76145e-07 -0.00571426)
(2.99998 9.75706e-07 -0.00571439)
(2.99996 3.64343e-06 -0.0057146)
(2.99989 9.37252e-06 -0.00571525)
(2.99975 2.59202e-05 -0.00571645)
(2.99936 5.96353e-05 -0.00572007)
(2.99859 0.000155283 -0.00572715)
(2.99619 0.00035432 -0.00574637)
(2.992 0.00089893 -0.00579332)
(2.97615 0.0020514 -0.00588726)
(2.94826 0.00549251 -0.00625035)
(2.84184 0.0128225 -0.00675308)
(2.55413 0.0392756 -0.00925435)
(1.85445 0.100757 -0.0138807)
(0.845155 0.279568 -0.017126)
(0.520881 0.266656 -0.0179439)
(0.580661 0.266685 -0.0179488)
(0.599004 0.285514 -0.0179384)
(0.555304 0.306227 -0.0180526)
(0.481022 0.33197 -0.0181435)
(0.405689 0.361991 -0.0182292)
(0.337533 0.395749 -0.0183067)
(0.262231 0.432067 -0.0183792)
(0.166254 0.468934 -0.0184525)
(0.0711171 0.497245 -0.0185407)
(3 1.75035e-07 -0.00571425)
(2.99998 9.68712e-07 -0.00571438)
(2.99996 3.60393e-06 -0.00571457)
(2.9999 9.20785e-06 -0.00571517)
(2.99978 2.53897e-05 -0.00571626)
(2.99941 5.76139e-05 -0.00571957)
(2.99871 0.000153466 -0.00572605)
(2.99651 0.000324772 -0.00574357)
(2.99269 0.000958386 -0.00578657)
(2.97819 0.00183526 -0.00587198)
(2.95303 0.00640813 -0.00620342)
(2.85609 0.0131741 -0.00665863)
(2.59886 0.0475807 -0.0089491)
(1.96004 0.11647 -0.0132835)
(0.912786 0.329301 -0.0167575)
(0.515242 0.311144 -0.0178133)
(0.587282 0.307497 -0.0178145)
(0.613595 0.327135 -0.0177726)
(0.572579 0.349987 -0.0178645)
(0.503411 0.380323 -0.01795)
(0.43265 0.417296 -0.0180255)
(0.36788 0.460222 -0.0180583)
(0.29467 0.508682 -0.0180957)
(0.196556 0.562164 -0.0181228)
(0.0887224 0.611773 -0.0181711)
(3 1.96151e-07 -0.00571425)
(2.99999 1.0804e-06 -0.00571437)
(2.99997 4.00138e-06 -0.00571454)
(2.99991 1.02306e-05 -0.00571508)
(2.99979 2.80388e-05 -0.00571608)
(2.99947 6.36516e-05 -0.00571914)
(2.99882 0.00016837 -0.00572495)
(2.99686 0.00035575 -0.00574183)
(2.99326 0.00105077 -0.00577856)
(2.98061 0.00194436 -0.00586241)
(2.95794 0.00713396 -0.00613865)
(2.87332 0.013822 -0.00657057)
(2.65156 0.0526452 -0.00851491)
(2.08565 0.126278 -0.0124929)
(1.00428 0.370168 -0.0162989)
(0.524886 0.356551 -0.0176572)
(0.603885 0.350433 -0.0176651)
(0.636508 0.367899 -0.0176108)
(0.597711 0.391607 -0.0176907)
(0.534291 0.426491 -0.0177327)
(0.469038 0.471245 -0.0177716)
(0.409253 0.52398 -0.0177654)
(0.341724 0.587046 -0.0177314)
(0.247534 0.66641 -0.0176669)
(0.122701 0.760029 -0.0175456)
(3 3.93137e-07 -0.00571425)
(2.99999 8.10336e-07 -0.00571435)
(2.99997 5.90066e-06 -0.0057145)
(2.99992 9.31509e-06 -0.00571497)
(2.99982 4.0527e-05 -0.00571586)
(2.99953 6.02825e-05 -0.00571851)
(2.99896 0.000247179 -0.00572365)
(2.99725 0.000332967 -0.00573838)
(2.99402 0.00157248 -0.0057704)
(2.98319 0.0014556 -0.00584608)
(2.96315 0.0106588 -0.00607603)
(2.89117 0.00852692 -0.00647566)
(2.70536 0.0669196 -0.00807259)
(2.21922 0.120131 -0.01173)
(1.1182 0.389761 -0.0156825)
(0.562935 0.40419 -0.0173516)
(0.635396 0.402032 -0.0173927)
(0.670047 0.409638 -0.0173688)
(0.634102 0.4336 -0.0174742)
(0.577 0.470498 -0.0174993)
(0.517278 0.522224 -0.0175018)
(0.46419 0.584104 -0.0174456)
(0.410498 0.666539 -0.0173181)
(0.336354 0.789149 -0.0170884)
(0.18903 0.997346 -0.0166522)
(2.99999 1.27423e-08 -2.42839e-09)
(2.99998 6.94888e-08 -8.61713e-09)
(2.99995 2.58041e-07 -1.00035e-08)
(2.99986 6.61272e-07 -1.60271e-08)
(2.99968 1.8238e-06 -1.65018e-08)
(2.99918 4.1586e-06 -2.2227e-08)
(2.99819 1.09955e-05 -2.41949e-08)
(2.99517 2.39246e-05 -3.34683e-08)
(2.9897 6.71216e-05 -4.83927e-08)
(2.97004 0.000137851 -8.01906e-08)
(2.93251 0.00042399 -1.68875e-07)
(2.79966 0.00100197 -4.03877e-07)
(2.42072 0.00300216 -7.99225e-07)
(1.54816 0.00802656 -2.29512e-06)
(0.648704 0.0200236 -2.00377e-06)
(0.538416 0.0209696 1.53484e-07)
(0.566496 0.0221368 7.47392e-08)
(0.561561 0.0241648 -9.99478e-08)
(0.510371 0.0263587 -1.25513e-07)
(0.425352 0.028742 -1.36981e-07)
(0.342604 0.0314811 -8.77194e-08)
(0.272793 0.0346457 -4.93581e-08)
(0.20244 0.0379949 -2.23319e-08)
(0.121968 0.0419427 9.26715e-09)
(0.0543225 0.0478848 4.92831e-08)
(2.99999 3.87107e-08 -2.43564e-09)
(2.99998 2.11294e-07 -8.65759e-09)
(2.99995 7.84672e-07 -1.00027e-08)
(2.99986 2.00874e-06 -1.60389e-08)
(2.99969 5.54225e-06 -1.64974e-08)
(2.99919 1.2623e-05 -2.22175e-08)
(2.99821 3.34131e-05 -2.41507e-08)
(2.99521 7.24573e-05 -3.33767e-08)
(2.9898 0.000204464 -4.80824e-08)
(2.97034 0.000417006 -7.96562e-08)
(2.93325 0.0012997 -1.66829e-07)
(2.80163 0.003048 -3.9822e-07)
(2.42714 0.00926406 -7.86977e-07)
(1.5622 0.0246761 -2.26125e-06)
(0.657517 0.0605406 -1.99891e-06)
(0.537919 0.0608107 1.53206e-07)
(0.5667 0.0619201 7.03111e-08)
(0.562303 0.0658636 -1.05937e-07)
(0.511035 0.0700526 -1.29499e-07)
(0.426059 0.0746111 -1.3837e-07)
(0.343237 0.0795286 -8.89064e-08)
(0.27279 0.0847556 -5.16103e-08)
(0.201241 0.0896958 -2.52122e-08)
(0.119083 0.0945853 4.44632e-09)
(0.0506445 0.099816 4.06973e-08)
(2.99999 6.58169e-08 -2.4524e-09)
(2.99998 3.5963e-07 -8.73495e-09)
(2.99995 1.33434e-06 -1.00016e-08)
(2.99986 3.41443e-06 -1.60559e-08)
(2.99969 9.40621e-06 -1.64824e-08)
(2.9992 2.14001e-05 -2.21827e-08)
(2.99824 5.65339e-05 -2.40407e-08)
(2.99531 0.000122274 -3.30665e-08)
(2.98999 0.000345059 -4.75073e-08)
(2.97094 0.000699281 -7.74478e-08)
(2.93478 0.00219124 -1.63409e-07)
(2.80575 0.00510253 -3.84393e-07)
(2.44076 0.0156486 -7.62793e-07)
(1.59279 0.0415111 -2.19901e-06)
(0.67781 0.103512 -2.01511e-06)
(0.538511 0.102736 1.40408e-07)
(0.569223 0.104012 5.64661e-08)
(0.566474 0.110958 -1.14871e-07)
(0.515535 0.118503 -1.33886e-07)
(0.431081 0.127101 -1.37075e-07)
(0.348409 0.13623 -8.89353e-08)
(0.277373 0.145715 -5.55412e-08)
(0.204617 0.154798 -3.1894e-08)
(0.120781 0.163257 -8.91814e-09)
(0.05018 0.170212 1.60592e-08)
(2.99999 9.64212e-08 -2.52935e-09)
(2.99998 5.25484e-07 -8.75865e-09)
(2.99995 1.9529e-06 -1.00937e-08)
(2.99987 5.00521e-06 -1.60575e-08)
(2.9997 1.37928e-05 -1.65885e-08)
(2.99923 3.15003e-05 -2.23053e-08)
(2.9983 8.2552e-05 -2.43323e-08)
(2.99545 0.000182734 -3.47107e-08)
(2.99028 0.000490409 -4.57194e-08)
(2.97184 0.00105578 -9.39586e-08)
(2.93705 0.00299551 -1.22444e-07)
(2.81193 0.00723012 -4.65969e-07)
(2.46101 0.0216498 -5.55316e-07)
(1.63929 0.0562497 -2.18366e-06)
(0.708655 0.14525 -1.96215e-06)
(0.538826 0.143547 1.08524e-07)
(0.57286 0.145297 1.42623e-08)
(0.57296 0.155495 -1.35647e-07)
(0.522824 0.166588 -1.45705e-07)
(0.439529 0.179447 -1.39701e-07)
(0.357422 0.19317 -9.66569e-08)
(0.286093 0.207574 -6.80999e-08)
(0.212133 0.221695 -4.90696e-08)
(0.126014 0.234606 -3.25899e-08)
(0.0518568 0.243802 -1.91836e-08)
(2.99999 1.27742e-07 -2.61838e-09)
(2.99998 6.95215e-07 -8.64266e-09)
(2.99995 2.58545e-06 -1.02163e-08)
(2.99987 6.63136e-06 -1.60155e-08)
(2.99972 1.8272e-05 -1.66453e-08)
(2.99926 4.18168e-05 -2.22569e-08)
(2.99837 0.000109003 -2.4266e-08)
(2.99565 0.000244618 -3.44156e-08)
(2.99072 0.000635642 -4.49381e-08)
(2.97299 0.00142129 -9.07513e-08)
(2.94009 0.00377855 -1.19628e-07)
(2.82005 0.00928904 -3.92718e-07)
(2.48607 0.0275594 -6.41961e-07)
(1.6955 0.07044 -1.80381e-06)
(0.745135 0.1879 -2.01607e-06)
(0.535064 0.184313 9.25366e-08)
(0.575184 0.186245 -1.2979e-08)
(0.579976 0.199531 -1.48375e-07)
(0.531446 0.213992 -1.50699e-07)
(0.450196 0.231061 -1.37713e-07)
(0.369399 0.249544 -1.05079e-07)
(0.298397 0.269231 -8.41539e-08)
(0.223555 0.288982 -6.89919e-08)
(0.134534 0.307261 -5.92062e-08)
(0.05538 0.319606 -5.49531e-08)
(2.99999 1.60876e-07 -2.58968e-09)
(2.99998 8.72445e-07 -8.64777e-09)
(2.99995 3.25336e-06 -1.02163e-08)
(2.99988 8.36378e-06 -1.60212e-08)
(2.99973 2.30837e-05 -1.66493e-08)
(2.9993 5.31171e-05 -2.22612e-08)
(2.99846 0.000137554 -2.42401e-08)
(2.99589 0.000316151 -3.43688e-08)
(2.99126 0.000784269 -4.45339e-08)
(2.97442 0.00183568 -9.04978e-08)
(2.9438 0.0046223 -1.16047e-07)
(2.83016 0.0113556 -3.78479e-07)
(2.51719 0.0329278 -6.27355e-07)
(1.76725 0.0852331 -1.74392e-06)
(0.791719 0.232339 -2.08682e-06)
(0.529966 0.225107 1.16262e-07)
(0.578157 0.226708 -2.12168e-08)
(0.588844 0.242976 -1.54874e-07)
(0.542365 0.260684 -1.52512e-07)
(0.463968 0.28206 -1.33899e-07)
(0.385198 0.30595 -1.0998e-07)
(0.314997 0.332018 -9.55917e-08)
(0.239466 0.358922 -8.62585e-08)
(0.147045 0.384685 -8.39447e-08)
(0.06119 0.402522 -8.81082e-08)
(3 1.80333e-07 -2.54322e-09)
(2.99998 9.77898e-07 -8.67757e-09)
(2.99996 3.64913e-06 -1.0174e-08)
(2.99989 9.37839e-06 -1.60396e-08)
(2.99975 2.59314e-05 -1.6623e-08)
(2.99936 5.96541e-05 -2.22784e-08)
(2.99859 0.000155326 -2.41606e-08)
(2.99618 0.000354441 -3.42296e-08)
(2.99199 0.000899101 -4.41724e-08)
(2.97614 0.0020524 -8.27191e-08)
(2.94824 0.00549177 -1.49609e-07)
(2.8418 0.012827 -3.32032e-07)
(2.554 0.0392739 -6.13696e-07)
(1.85415 0.100762 -1.77686e-06)
(0.845008 0.279561 -2.21213e-06)
(0.520975 0.266666 1.53587e-07)
(0.580709 0.266701 -2.05807e-08)
(0.599031 0.285531 -1.59066e-07)
(0.555335 0.306244 -1.53121e-07)
(0.481056 0.331987 -1.31082e-07)
(0.405723 0.362003 -1.14446e-07)
(0.337564 0.395752 -1.06795e-07)
(0.262257 0.432059 -1.02102e-07)
(0.166272 0.46891 -1.03858e-07)
(0.0711268 0.497202 -1.15327e-07)
(3 1.77742e-07 -2.50566e-09)
(2.99998 9.72991e-07 -8.67705e-09)
(2.99996 3.60565e-06 -1.01589e-08)
(2.9999 9.21245e-06 -1.60111e-08)
(2.99977 2.53948e-05 -1.65451e-08)
(2.99941 5.76259e-05 -2.20982e-08)
(2.99871 0.000153492 -2.3757e-08)
(2.99651 0.000324821 -3.27234e-08)
(2.99268 0.000958562 -4.35339e-08)
(2.97818 0.00183508 -7.38307e-08)
(2.95301 0.00641023 -1.48627e-07)
(2.85604 0.0131766 -2.85624e-07)
(2.59873 0.0475819 -7.35569e-07)
(1.95973 0.116481 -1.76045e-06)
(0.912609 0.329295 -2.46216e-06)
(0.515305 0.311142 1.80961e-07)
(0.587308 0.307502 -1.1915e-08)
(0.613606 0.327146 -1.57006e-07)
(0.572601 0.350002 -1.48993e-07)
(0.503442 0.380338 -1.2637e-07)
(0.432685 0.417308 -1.13811e-07)
(0.367914 0.460227 -1.09953e-07)
(0.2947 0.508677 -1.09438e-07)
(0.196578 0.562147 -1.15099e-07)
(0.0887342 0.611741 -1.33963e-07)
(3 1.95419e-07 -2.48849e-09)
(2.99999 1.08514e-06 -8.63934e-09)
(2.99997 3.99673e-06 -1.02187e-08)
(2.99991 1.02279e-05 -1.59899e-08)
(2.99979 2.80348e-05 -1.65939e-08)
(2.99946 6.36598e-05 -2.21167e-08)
(2.99881 0.000168408 -2.38232e-08)
(2.99685 0.000355882 -3.35194e-08)
(2.99325 0.00105103 -4.18427e-08)
(2.9806 0.00194495 -8.73634e-08)
(2.95792 0.00713581 -1.13741e-07)
(2.87328 0.0138251 -3.13885e-07)
(2.65145 0.052653 -6.78452e-07)
(2.08535 0.126296 -1.73945e-06)
(1.0041 0.370175 -2.72288e-06)
(0.524917 0.356533 1.38391e-07)
(0.603891 0.350415 -1.93076e-08)
(0.636505 0.3679 -1.42133e-07)
(0.59772 0.391616 -1.3883e-07)
(0.534312 0.426501 -1.29864e-07)
(0.469066 0.471254 -1.19116e-07)
(0.409285 0.523984 -1.15194e-07)
(0.341755 0.587044 -1.14853e-07)
(0.247558 0.666401 -1.17063e-07)
(0.122715 0.760008 -1.40953e-07)
(3 3.78561e-07 -2.52035e-09)
(2.99999 8.60336e-07 -8.57152e-09)
(2.99997 5.78611e-06 -1.03217e-08)
(2.99992 9.34415e-06 -1.59928e-08)
(2.99982 4.03986e-05 -1.65598e-08)
(2.99953 6.03329e-05 -2.18592e-08)
(2.99895 0.000247115 -2.31248e-08)
(2.99724 0.000333249 -3.0867e-08)
(2.99401 0.00157253 -4.08691e-08)
(2.98318 0.00145764 -6.63517e-08)
(2.96314 0.0106603 -1.2751e-07)
(2.89113 0.00853394 -2.57135e-07)
(2.70525 0.0669337 -6.78797e-07)
(2.21892 0.120181 -1.66113e-06)
(1.11796 0.389884 -2.96216e-06)
(0.562871 0.404186 -5.34525e-08)
(0.635363 0.401995 -9.1283e-08)
(0.670028 0.409633 -7.83747e-08)
(0.634091 0.4336 -1.07746e-07)
(0.577003 0.4705 -1.41573e-07)
(0.517295 0.522226 -1.2751e-07)
(0.464216 0.584105 -1.23141e-07)
(0.410528 0.666538 -1.17427e-07)
(0.33638 0.789145 -1.12388e-07)
(0.189048 0.997339 -1.30962e-07)
(2.99999 1.27423e-08 -9.22032e-13)
(2.99998 6.94884e-08 -4.45054e-12)
(2.99995 2.5804e-07 -1.25509e-11)
(2.99986 6.6127e-07 -2.67173e-11)
(2.99968 1.8238e-06 -6.83913e-11)
(2.99918 4.1586e-06 -1.35667e-10)
(2.99819 1.09955e-05 -3.77281e-10)
(2.99517 2.39247e-05 -7.08307e-10)
(2.9897 6.71221e-05 -2.36157e-09)
(2.97004 0.000137852 -3.83703e-09)
(2.93251 0.000423995 -1.49759e-08)
(2.79965 0.00100198 -3.10646e-08)
(2.42071 0.0030022 -8.33441e-08)
(1.54812 0.00802674 -2.12523e-07)
(0.648681 0.0200237 -2.16726e-07)
(0.53842 0.0209697 -1.41895e-09)
(0.566496 0.0221369 -6.46906e-09)
(0.561559 0.0241649 -2.04238e-08)
(0.510368 0.0263587 -2.21714e-08)
(0.425349 0.028742 -2.25795e-08)
(0.342602 0.0314811 -1.9047e-08)
(0.272791 0.0346457 -1.67495e-08)
(0.202438 0.0379949 -1.56048e-08)
(0.121967 0.0419425 -1.44495e-08)
(0.0543217 0.0478842 -1.31743e-08)
(2.99999 3.87104e-08 -9.23081e-13)
(2.99998 2.11293e-07 -4.4559e-12)
(2.99995 7.84668e-07 -1.25587e-11)
(2.99986 2.00874e-06 -2.67353e-11)
(2.99969 5.54224e-06 -6.838e-11)
(2.99919 1.2623e-05 -1.35679e-10)
(2.99821 3.34131e-05 -3.76698e-10)
(2.99521 7.24576e-05 -7.08078e-10)
(2.9898 0.000204465 -2.35208e-09)
(2.97033 0.000417011 -3.82921e-09)
(2.93325 0.00129972 -1.49059e-08)
(2.80162 0.00304805 -3.08259e-08)
(2.42713 0.0092642 -8.29696e-08)
(1.56216 0.0246766 -2.1126e-07)
(0.657494 0.0605405 -2.18009e-07)
(0.537923 0.0608108 -9.66969e-10)
(0.5667 0.0619201 -6.41435e-09)
(0.562301 0.0658635 -2.06414e-08)
(0.511032 0.0700524 -2.2254e-08)
(0.426057 0.0746111 -2.24747e-08)
(0.343236 0.0795286 -1.89486e-08)
(0.272788 0.0847556 -1.66896e-08)
(0.20124 0.0896956 -1.55546e-08)
(0.119082 0.0945848 -1.44547e-08)
(0.050644 0.0998149 -1.32539e-08)
(2.99999 6.58147e-08 -9.27463e-13)
(2.99998 3.59618e-07 -4.47964e-12)
(2.99995 1.3343e-06 -1.26013e-11)
(2.99986 3.41432e-06 -2.68224e-11)
(2.99969 9.40592e-06 -6.83986e-11)
(2.9992 2.13994e-05 -1.35629e-10)
(2.99824 5.65324e-05 -3.75267e-10)
(2.99531 0.000122269 -7.02946e-10)
(2.98999 0.000345058 -2.33707e-09)
(2.97094 0.000699242 -3.76181e-09)
(2.93477 0.0021913 -1.48076e-08)
(2.80575 0.00510245 -3.02437e-08)
(2.44074 0.0156491 -8.2315e-08)
(1.59276 0.0415122 -2.09457e-07)
(0.677786 0.103513 -2.2282e-07)
(0.538514 0.102736 -5.63076e-10)
(0.569223 0.104012 -6.55958e-09)
(0.566472 0.110957 -2.10442e-08)
(0.515532 0.118502 -2.24087e-08)
(0.431078 0.127101 -2.22994e-08)
(0.348407 0.13623 -1.87957e-08)
(0.277372 0.145715 -1.67327e-08)
(0.204616 0.154797 -1.56665e-08)
(0.12078 0.163256 -1.47593e-08)
(0.0501797 0.170211 -1.38579e-08)
(2.99999 9.64191e-08 -9.71926e-13)
(2.99998 5.25472e-07 -4.6685e-12)
(2.99995 1.95286e-06 -1.32564e-11)
(2.99987 5.0051e-06 -2.83185e-11)
(2.9997 1.37925e-05 -7.26734e-11)
(2.99923 3.14996e-05 -1.45835e-10)
(2.9983 8.25504e-05 -3.95106e-10)
(2.99545 0.000182728 -8.03146e-10)
(2.99028 0.000490407 -2.27175e-09)
(2.97184 0.00105574 -4.66696e-09)
(2.93704 0.00299557 -1.28765e-08)
(2.81193 0.00723013 -3.45453e-08)
(2.461 0.0216501 -7.25338e-08)
(1.63926 0.0562513 -2.12006e-07)
(0.708634 0.14525 -2.273e-07)
(0.538832 0.143548 -3.88584e-10)
(0.572861 0.145297 -7.84746e-09)
(0.572959 0.155494 -2.21287e-08)
(0.522822 0.166588 -2.30161e-08)
(0.439528 0.179447 -2.23779e-08)
(0.357421 0.19317 -1.89447e-08)
(0.286092 0.207574 -1.70688e-08)
(0.212132 0.221694 -1.61744e-08)
(0.126013 0.234604 -1.543e-08)
(0.0518567 0.243801 -1.48633e-08)
(2.99999 1.27742e-07 -9.76828e-13)
(2.99998 6.95214e-07 -4.69524e-12)
(2.99995 2.58545e-06 -1.33177e-11)
(2.99987 6.63135e-06 -2.84499e-11)
(2.99972 1.8272e-05 -7.28321e-11)
(2.99926 4.18168e-05 -1.46094e-10)
(2.99837 0.000109003 -3.94417e-10)
(2.99565 0.000244618 -7.98582e-10)
(2.99072 0.000635643 -2.25503e-09)
(2.97299 0.0014213 -4.56926e-09)
(2.94008 0.00377855 -1.29406e-08)
(2.82005 0.00928921 -3.10626e-08)
(2.48606 0.0275593 -7.90398e-08)
(1.69547 0.0704409 -1.94905e-07)
(0.745115 0.187898 -2.39962e-07)
(0.53507 0.184313 1.40669e-09)
(0.575187 0.186245 -8.22609e-09)
(0.579976 0.199531 -2.29895e-08)
(0.531445 0.213992 -2.34302e-08)
(0.450195 0.23106 -2.22856e-08)
(0.369399 0.249544 -1.92441e-08)
(0.298397 0.26923 -1.7665e-08)
(0.223555 0.288981 -1.67716e-08)
(0.134534 0.30726 -1.61856e-08)
(0.0553801 0.319605 -1.58771e-08)
(2.99999 1.60876e-07 -9.76977e-13)
(2.99998 8.72444e-07 -4.69164e-12)
(2.99995 3.25335e-06 -1.33097e-11)
(2.99988 8.36376e-06 -2.84218e-11)
(2.99973 2.30836e-05 -7.27068e-11)
(2.9993 5.31169e-05 -1.4574e-10)
(2.99846 0.000137554 -3.93709e-10)
(2.99589 0.000316149 -7.93935e-10)
(2.99126 0.000784268 -2.25994e-09)
(2.97442 0.00183568 -4.52333e-09)
(2.94379 0.00462225 -1.31387e-08)
(2.83016 0.0113556 -3.02834e-08)
(2.51718 0.032928 -8.08439e-08)
(1.76721 0.0852331 -1.97032e-07)
(0.791697 0.232337 -2.579e-07)
(0.529973 0.225107 5.72695e-09)
(0.578159 0.226708 -7.62503e-09)
(0.588844 0.242976 -2.35849e-08)
(0.542364 0.260683 -2.37734e-08)
(0.463968 0.28206 -2.21716e-08)
(0.385198 0.30595 -1.9311e-08)
(0.314997 0.332017 -1.78495e-08)
(0.239466 0.358921 -1.71299e-08)
(0.147045 0.384683 -1.68337e-08)
(0.0611902 0.40252 -1.6781e-08)
(3 1.80337e-07 -9.83059e-13)
(2.99998 9.77918e-07 -4.7047e-12)
(2.99996 3.64921e-06 -1.34185e-11)
(2.99989 9.37859e-06 -2.8743e-11)
(2.99975 2.5932e-05 -7.38481e-11)
(2.99936 5.96554e-05 -1.49412e-10)
(2.99859 0.000155329 -4.00146e-10)
(2.99618 0.00035445 -8.36532e-10)
(2.99199 0.000899112 -2.24171e-09)
(2.97614 0.00205245 -4.66707e-09)
(2.94824 0.00549176 -1.40258e-08)
(2.84179 0.0128273 -3.05091e-08)
(2.55399 0.0392734 -7.60764e-08)
(1.85411 0.100761 -2.07249e-07)
(0.844987 0.279557 -2.80178e-07)
(0.520983 0.266665 1.04952e-08)
(0.580711 0.2667 -7.34646e-09)
(0.59903 0.28553 -2.44829e-08)
(0.555334 0.306244 -2.43214e-08)
(0.481056 0.331987 -2.23778e-08)
(0.405723 0.362003 -1.97762e-08)
(0.337565 0.395751 -1.85352e-08)
(0.262258 0.432058 -1.77541e-08)
(0.166272 0.468909 -1.73672e-08)
(0.071127 0.497201 -1.74396e-08)
(3 1.77751e-07 -8.85184e-13)
(2.99998 9.73037e-07 -4.29463e-12)
(2.99996 3.60583e-06 -1.19827e-11)
(2.9999 9.21292e-06 -2.54661e-11)
(2.99977 2.53961e-05 -6.45816e-11)
(2.99941 5.76291e-05 -1.27703e-10)
(2.99871 0.0001535 -3.53932e-10)
(2.99651 0.000324844 -6.59301e-10)
(2.99268 0.000958584 -2.21053e-09)
(2.97818 0.00183524 -3.62406e-09)
(2.95301 0.00641021 -1.43102e-08)
(2.85604 0.0131771 -2.45824e-08)
(2.59872 0.047581 -9.72127e-08)
(1.95969 0.11648 -2.08845e-07)
(0.912585 0.329291 -3.17004e-07)
(0.51531 0.311139 1.49023e-08)
(0.587308 0.307501 -5.63523e-09)
(0.613604 0.327145 -2.46282e-08)
(0.5726 0.350001 -2.43014e-08)
(0.503441 0.380338 -2.24411e-08)
(0.432685 0.417307 -2.00428e-08)
(0.367915 0.460227 -1.88602e-08)
(0.294701 0.508676 -1.81311e-08)
(0.196578 0.562146 -1.75926e-08)
(0.0887346 0.61174 -1.77856e-08)
(3 1.95422e-07 -7.74672e-13)
(2.99999 1.08515e-06 -3.82777e-12)
(2.99997 3.99678e-06 -1.03561e-11)
(2.99991 1.0228e-05 -2.18167e-11)
(2.99979 2.80351e-05 -5.40478e-11)
(2.99946 6.36605e-05 -1.0391e-10)
(2.99881 0.00016841 -3.01345e-10)
(2.99685 0.000355884 -4.5233e-10)
(2.99325 0.00105104 -2.24948e-09)
(2.9806 0.00194499 -1.66671e-09)
(2.95792 0.00713583 -1.76298e-08)
(2.87328 0.0138253 -2.00006e-08)
(2.65143 0.0526536 -1.02961e-07)
(2.08531 0.126298 -2.1234e-07)
(1.00407 0.370174 -3.60924e-07)
(0.524916 0.356528 1.09965e-08)
(0.603887 0.35041 -4.6205e-09)
(0.636501 0.367898 -2.26082e-08)
(0.597717 0.391615 -2.31869e-08)
(0.53431 0.4265 -2.34204e-08)
(0.469065 0.471253 -2.11114e-08)
(0.409285 0.523983 -1.97139e-08)
(0.341756 0.587043 -1.88909e-08)
(0.247559 0.6664 -1.74983e-08)
(0.122716 0.760007 -1.76683e-08)
(3 3.78568e-07 -8.2922e-13)
(2.99999 8.60368e-07 -4.00941e-12)
(2.99997 5.78624e-06 -1.11555e-11)
(2.99992 9.34441e-06 -2.37529e-11)
(2.99982 4.03995e-05 -5.99597e-11)
(2.99953 6.03342e-05 -1.19747e-10)
(2.99895 0.000247123 -3.26214e-10)
(2.99724 0.000333247 -6.39639e-10)
(2.99401 0.0015726 -2.0522e-09)
(2.98318 0.00145756 -3.0249e-09)
(2.96314 0.0106608 -1.50188e-08)
(2.89113 0.00853405 -2.12329e-08)
(2.70524 0.0669365 -9.52471e-08)
(2.21888 0.120187 -2.09315e-07)
(1.11792 0.3899 -3.98432e-07)
(0.562858 0.404185 -1.40305e-08)
(0.635355 0.401989 -1.55321e-08)
(0.670021 0.40963 -1.53604e-08)
(0.634085 0.433598 -2.01238e-08)
(0.576999 0.470498 -2.58469e-08)
(0.517293 0.522224 -2.29655e-08)
(0.464215 0.584103 -2.17438e-08)
(0.410529 0.666536 -1.96998e-08)
(0.336381 0.789144 -1.71542e-08)
(0.189048 0.997338 -1.66868e-08)
(2.99999 1.27423e-08 -1.38099e-13)
(2.99998 6.94884e-08 -6.15394e-13)
(2.99995 2.5804e-07 -2.05759e-12)
(2.99986 6.6127e-07 -4.43352e-12)
(2.99968 1.8238e-06 -1.29408e-11)
(2.99918 4.1586e-06 -2.6264e-11)
(2.99819 1.09955e-05 -7.82412e-11)
(2.99517 2.39247e-05 -1.48108e-10)
(2.9897 6.71222e-05 -5.09345e-10)
(2.97004 0.000137852 -8.25815e-10)
(2.93251 0.000423996 -3.28191e-09)
(2.79965 0.00100199 -6.801e-09)
(2.4207 0.00300221 -1.84075e-08)
(1.54812 0.00802677 -4.69968e-08)
(0.648677 0.0200237 -4.82597e-08)
(0.53842 0.0209698 -6.22982e-10)
(0.566496 0.0221369 -1.61347e-09)
(0.561559 0.0241649 -4.56561e-09)
(0.510367 0.0263587 -4.91789e-09)
(0.425349 0.028742 -4.94622e-09)
(0.342602 0.0314811 -4.12186e-09)
(0.272791 0.0346457 -3.59515e-09)
(0.202438 0.0379949 -3.33268e-09)
(0.121967 0.0419425 -3.07452e-09)
(0.0543216 0.0478841 -2.81005e-09)
(2.99999 3.87104e-08 -1.38299e-13)
(2.99998 2.11292e-07 -6.16305e-13)
(2.99995 7.84667e-07 -2.06001e-12)
(2.99986 2.00873e-06 -4.43962e-12)
(2.99969 5.54224e-06 -1.29471e-11)
(2.99919 1.26229e-05 -2.62858e-11)
(2.99821 3.34131e-05 -7.81725e-11)
(2.99521 7.24576e-05 -1.48164e-10)
(2.9898 0.000204465 -5.07651e-10)
(2.97033 0.000417012 -8.2466e-10)
(2.93325 0.00129972 -3.26889e-09)
(2.80162 0.00304806 -6.75285e-09)
(2.42712 0.00926422 -1.8337e-08)
(1.56216 0.0246767 -4.67442e-08)
(0.657491 0.0605405 -4.85685e-08)
(0.537923 0.0608108 -5.22992e-10)
(0.5667 0.0619201 -1.59852e-09)
(0.562301 0.0658635 -4.61011e-09)
(0.511031 0.0700524 -4.93379e-09)
(0.426056 0.074611 -4.92253e-09)
(0.343235 0.0795286 -4.09938e-09)
(0.272788 0.0847556 -3.58099e-09)
(0.20124 0.0896956 -3.32071e-09)
(0.119082 0.0945847 -3.07313e-09)
(0.0506439 0.0998147 -2.8218e-09)
(2.99999 6.58144e-08 -1.3918e-13)
(2.99998 3.59617e-07 -6.21032e-13)
(2.99995 1.33429e-06 -2.07095e-12)
(2.99986 3.41431e-06 -4.46361e-12)
(2.99969 9.40587e-06 -1.29713e-11)
(2.9992 2.13993e-05 -2.63192e-11)
(2.99824 5.65322e-05 -7.79903e-11)
(2.99531 0.000122268 -1.4729e-10)
(2.98999 0.000345058 -5.05166e-10)
(2.97094 0.000699236 -8.11088e-10)
(2.93477 0.00219131 -3.25219e-09)
(2.80575 0.00510244 -6.63382e-09)
(2.44074 0.0156492 -1.82177e-08)
(1.59275 0.0415124 -4.64018e-08)
(0.677783 0.103513 -4.96867e-08)
(0.538514 0.102736 -4.31862e-10)
(0.569223 0.104012 -1.62493e-09)
(0.566471 0.110957 -4.69632e-09)
(0.515532 0.118502 -4.96819e-09)
(0.431078 0.127101 -4.88755e-09)
(0.348407 0.13623 -4.06839e-09)
(0.277371 0.145715 -3.59047e-09)
(0.204616 0.154797 -3.3446e-09)
(0.12078 0.163256 -3.13485e-09)
(0.0501796 0.17021 -2.93876e-09)
(2.99999 9.64188e-08 -1.49039e-13)
(2.99998 5.25471e-07 -6.60849e-13)
(2.99995 1.95285e-06 -2.21623e-12)
(2.99987 5.00508e-06 -4.79668e-12)
(2.9997 1.37924e-05 -1.39359e-11)
(2.99923 3.14995e-05 -2.86221e-11)
(2.9983 8.25501e-05 -8.25346e-11)
(2.99545 0.000182727 -1.69729e-10)
(2.99028 0.000490407 -4.91849e-10)
(2.97184 0.00105573 -1.0127e-09)
(2.93704 0.00299557 -2.83399e-09)
(2.81193 0.00723013 -7.59342e-09)
(2.46099 0.0216502 -1.61088e-08)
(1.63925 0.0562515 -4.70464e-08)
(0.708631 0.14525 -5.07818e-08)
(0.538833 0.143548 -3.8609e-10)
(0.572862 0.145297 -1.8943e-09)
(0.572959 0.155494 -4.93106e-09)
(0.522822 0.166588 -5.10348e-09)
(0.439527 0.179447 -4.91025e-09)
(0.357421 0.19317 -4.10497e-09)
(0.286092 0.207574 -3.66212e-09)
(0.212132 0.221694 -3.4476e-09)
(0.126013 0.234604 -3.27244e-09)
(0.0518566 0.2438 -3.14005e-09)
(2.99999 1.27742e-07 -1.50348e-13)
(2.99998 6.95214e-07 -6.67232e-13)
(2.99995 2.58544e-06 -2.23368e-12)
(2.99987 6.63135e-06 -4.83455e-12)
(2.99972 1.8272e-05 -1.40039e-11)
(2.99926 4.18168e-05 -2.87484e-11)
(2.99837 0.000109003 -8.25937e-11)
(2.99565 0.000244618 -1.69151e-10)
(2.99072 0.000635643 -4.89474e-10)
(2.97299 0.0014213 -9.93605e-10)
(2.94008 0.00377855 -2.85618e-09)
(2.82005 0.00928923 -6.84412e-09)
(2.48606 0.0275592 -1.75855e-08)
(1.69546 0.070441 -4.3398e-08)
(0.745112 0.187898 -5.37143e-08)
(0.535071 0.184313 1.89541e-11)
(0.575187 0.186245 -1.96122e-09)
(0.579976 0.199531 -5.11798e-09)
(0.531445 0.213992 -5.19846e-09)
(0.450195 0.23106 -4.90037e-09)
(0.369399 0.249544 -4.17093e-09)
(0.298397 0.26923 -3.78759e-09)
(0.223555 0.288981 -3.57046e-09)
(0.134534 0.30726 -3.42375e-09)
(0.0553801 0.319604 -3.34273e-09)
(2.99999 1.60876e-07 -1.50797e-13)
(2.99998 8.72444e-07 -6.68648e-13)
(2.99995 3.25335e-06 -2.2376e-12)
(2.99988 8.36376e-06 -4.84077e-12)
(2.99973 2.30836e-05 -1.40112e-11)
(2.9993 5.31169e-05 -2.87414e-11)