/*--------------------------------*- C++ -*----------------------------------*\
| =========                 |                                                 |
| \\      /  F ield         | OpenFOAM: The Open Source CFD Toolbox           |
|  \\    /   O peration     | Version:  4.1                                   |
|   \\  /    A nd           | Web:      www.OpenFOAM.org                      |
|    \\/     M anipulation  |                                                 |
\*---------------------------------------------------------------------------*/
FoamFile
{
    version     2.0;
    format      ascii;
    class       surfaceScalarField;
    location    "5.24";
    object      phi;
}
// * * * * * * * * * * * * * * * * * * * * * * * * * * * * * * * * * * * * * //

dimensions      [1 0 -1 0 0 0 0];

internalField   nonuniform List<scalar> 
150500
(
0.0168001
2.01138e-10
-3.40596e-12
0.0168001
1.10738e-09
-1.16503e-11
0.0168001
4.12604e-09
-1.34807e-11
0.0168
1.05835e-08
-2.17019e-11
0.0168
2.93517e-08
-2.14234e-11
0.0167999
6.76248e-08
-2.93143e-11
0.0167997
1.76257e-07
-2.95395e-11
0.0167993
4.06796e-07
-4.09115e-11
0.016798
1.02253e-06
-4.35322e-11
0.0167955
2.37373e-06
-8.14559e-11
0.0167874
6.7251e-06
-1.05632e-10
0.0167694
1.68278e-05
-2.60758e-10
0.0167082
5.60195e-05
-3.4405e-10
0.0165193
0.000177313
-1.39436e-09
0.0154291
0.0010473
-3.04598e-09
0.0141789
0.00125767
5.15448e-10
0.0129374
0.00124289
-7.58925e-11
0.0116425
0.00129325
-4.14648e-10
0.0102819
0.0013593
-4.12263e-10
0.00884111
0.00144021
-3.83734e-10
0.0072946
0.00154612
-3.56415e-10
0.00563648
0.00165786
-3.59116e-10
0.00387488
0.00176129
-3.65685e-10
0.00200472
0.00186949
-3.81185e-10
0.00200377
-4.00561e-10
0.0168001
3.68809e-10
-3.39516e-12
0.0168001
2.03046e-09
-1.16548e-11
0.0168001
7.5997e-09
-1.34616e-11
0.0168
1.94254e-08
-2.17557e-11
0.0168
5.41068e-08
-2.13343e-11
0.0167999
1.23719e-07
-2.93693e-11
0.0167998
3.29347e-07
-2.94794e-11
0.0167994
7.2989e-07
-4.09656e-11
0.0167982
2.01227e-06
-4.33581e-11
0.0167961
4.33857e-06
-8.13686e-11
0.0167879
1.35267e-05
-1.05161e-10
0.0167716
3.19338e-05
-2.5846e-10
0.0166993
0.000123113
-3.41564e-10
0.0164991
0.00036564
-1.37899e-09
0.0153701
0.00213263
-3.03051e-09
0.0140755
0.00256027
5.19529e-10
0.0128595
0.00246057
-7.86879e-11
0.0115909
0.00256055
-4.19599e-10
0.0102457
0.00270337
-4.15697e-10
0.00879617
0.00288936
-3.83949e-10
0.00723673
0.00310539
-3.53239e-10
0.00556935
0.00332518
-3.53933e-10
0.00379495
0.00353551
-3.58338e-10
0.00192247
0.00374146
-3.70962e-10
0.00392549
-3.88255e-10
0.0168001
5.11984e-10
-3.3795e-12
0.0168001
2.81604e-09
-1.16533e-11
0.0168001
1.05283e-08
-1.34629e-11
0.0168
2.68238e-08
-2.17361e-11
0.0168
7.47769e-08
-2.13375e-11
0.0168
1.6986e-07
-2.93239e-11
0.0167998
4.58709e-07
-2.94296e-11
0.0167995
9.84032e-07
-4.06875e-11
0.0167984
2.90258e-06
-4.33112e-11
0.0167967
5.92881e-06
-7.96984e-11
0.016789
1.99292e-05
-1.04552e-10
0.0167748
4.48882e-05
-2.47528e-10
0.0166976
0.000195262
-3.57669e-10
0.0165058
0.000547646
-1.33491e-09
0.0154324
0.00316016
-3.01551e-09
0.0141159
0.00388663
5.28807e-10
0.0129007
0.00367857
-7.23995e-11
0.011647
0.00381336
-4.25841e-10
0.0103168
0.00403256
-4.22722e-10
0.00886909
0.00433678
-3.87942e-10
0.00730527
0.00466912
-3.52238e-10
0.00562373
0.00500676
-3.49594e-10
0.00382567
0.00533347
-3.49443e-10
0.00193462
0.00563218
-3.55602e-10
0.00585962
-3.664e-10
0.0168001
6.17683e-10
-3.36075e-12
0.0168001
3.40026e-09
-1.16478e-11
0.0168001
1.27368e-08
-1.34917e-11
0.0168
3.23777e-08
-2.16207e-11
0.0168
9.04339e-08
-2.14773e-11
0.0168
2.04236e-07
-2.91582e-11
0.0167999
5.6038e-07
-2.93972e-11
0.0167997
1.15575e-06
-3.99898e-11
0.0167986
3.69249e-06
-4.32002e-11
0.0167976
6.88845e-06
-7.60008e-11
0.0167895
2.66084e-05
-1.00674e-10
0.0167763
5.68555e-05
-2.35174e-10
0.0167108
0.000255467
-3.45225e-10
0.0165399
0.000708565
-1.2741e-09
0.0156194
0.00403253
-3.01748e-09
0.014279
0.00523829
4.87387e-10
0.013054
0.00490703
-9.78882e-11
0.0118087
0.00505791
-4.3176e-10
0.0104901
0.00535005
-4.26599e-10
0.0090511
0.00577545
-3.86982e-10
0.0074866
0.0062336
-3.52111e-10
0.00579939
0.00669408
-3.49986e-10
0.00397191
0.00716107
-3.44322e-10
0.00201136
0.00759259
-3.39927e-10
0.00787082
-3.40439e-10
0.0168001
7.08349e-10
-3.34344e-12
0.0168001
3.9394e-09
-1.16408e-11
0.0168001
1.47019e-08
-1.35871e-11
0.0168
3.75262e-08
-2.14643e-11
0.0168
1.03807e-07
-2.2014e-11
0.0168
2.33717e-07
-2.9444e-11
0.0167999
6.44125e-07
-3.06592e-11
0.0167998
1.25807e-06
-4.54401e-11
0.0167987
4.51359e-06
-4.03114e-11
0.0167989
6.72391e-06
-1.26432e-10
0.0167892
3.47108e-05
-4.60627e-12
0.0167824
6.33921e-05
-3.55227e-10
0.0167275
0.000304934
-1.22659e-10
0.0166027
0.000824277
-1.1501e-09
0.0159723
0.0046123
-2.7529e-09
0.0146078
0.006615
2.90083e-10
0.0133485
0.0061706
-2.52914e-10
0.0120953
0.00631068
-4.76603e-10
0.0107956
0.00664881
-4.50628e-10
0.00936744
0.00720334
-3.90644e-10
0.00780375
0.00779733
-3.61825e-10
0.00608611
0.00841163
-3.58141e-10
0.00421067
0.00903643
-3.45404e-10
0.00217059
0.00963267
-3.30447e-10
0.0100415
-3.19292e-10
0.0168001
9.15952e-10
-3.32885e-12
0.0168001
5.03364e-09
-1.15843e-11
0.0168001
1.87344e-08
-1.35942e-11
0.0168
4.78952e-08
-2.1309e-11
0.0168
1.3267e-07
-2.17197e-11
0.0167999
3.03099e-07
-2.86387e-11
0.0167997
8.02141e-07
-2.92469e-11
0.0167992
1.76411e-06
-3.87289e-11
0.0167985
5.01444e-06
-4.03616e-11
0.0167956
9.55223e-06
-9.86515e-11
0.0167928
3.60705e-05
-2.43713e-11
0.0167838
7.18321e-05
-2.82367e-10
0.0167656
0.000317599
-1.63631e-10
0.0167191
0.000862259
-1.01516e-09
0.0166181
0.00466258
-2.49656e-09
0.0152168
0.008027
9.48973e-11
0.0138452
0.00754618
-3.28108e-10
0.0125478
0.00760768
-4.77154e-10
0.0112449
0.00795084
-4.44939e-10
0.0098401
0.00860763
-3.87231e-10
0.00826895
0.00936872
-3.74257e-10
0.00653711
0.0101441
-3.72609e-10
0.00459076
0.0109831
-3.54786e-10
0.00239395
0.0118296
-3.29393e-10
0.0124358
-3.09253e-10
0.0168001
9.83704e-10
-3.28987e-12
0.0168001
5.4304e-09
-1.15908e-11
0.0168001
2.02286e-08
-1.35523e-11
0.0168001
5.18303e-08
-2.12593e-11
0.0168
1.42998e-07
-2.15353e-11
0.0168
3.26827e-07
-2.82943e-11
0.0167999
8.56572e-07
-2.82392e-11
0.0167998
1.89954e-06
-3.62546e-11
0.0167995
5.10141e-06
-3.96944e-11
0.0167979
1.09628e-05
-5.90135e-11
0.0167987
3.40076e-05
-7.01402e-11
0.0167982
7.13972e-05
-1.96246e-10
0.0168234
0.000287278
-2.43245e-10
0.0169034
0.000774396
-9.07721e-10
0.0176797
0.00383858
-2.3683e-09
0.0162595
0.00945541
-1.85561e-10
0.0146074
0.00920421
-4.16171e-10
0.0132477
0.00896859
-4.27289e-10
0.0119311
0.00926758
-3.98616e-10
0.0105134
0.0100251
-3.57877e-10
0.00893679
0.0109451
-3.64636e-10
0.00715415
0.0119265
-3.68737e-10
0.00513495
0.0130024
-3.55923e-10
0.0027859
0.0141788
-3.30423e-10
0.0152222
-3.06164e-10
0.0168001
1.04785e-09
-3.2545e-12
0.0168001
5.8313e-09
-1.15973e-11
0.0168001
2.17573e-08
-1.35446e-11
0.0168001
5.61246e-08
-2.12427e-11
0.0168
1.54182e-07
-2.14806e-11
0.0168
3.5419e-07
-2.81819e-11
0.0167999
9.19387e-07
-2.79307e-11
0.0167997
2.06654e-06
-3.55949e-11
0.0167993
5.36355e-06
-3.80857e-11
0.0167981
1.19997e-05
-5.52121e-11
0.0167985
3.26446e-05
-6.13481e-11
0.0167918
7.71873e-05
-1.80626e-10
0.016826
0.00024863
-1.6613e-10
0.0169174
0.000682102
-6.69577e-10
0.0176679
0.00305471
-1.32725e-09
0.0168061
0.0102995
-1.07546e-09
0.0151283
0.0108755
-6.89435e-10
0.0139114
0.0101845
-3.62811e-10
0.0126611
0.0105174
-3.58174e-10
0.0112921
0.011394
-3.53621e-10
0.00975526
0.0124819
-3.64757e-10
0.00799356
0.0136881
-3.61698e-10
0.00592468
0.0150714
-3.49015e-10
0.00337223
0.0167313
-3.28535e-10
0.0185947
-3.07954e-10
0.0168001
1.43749e-09
-3.22763e-12
0.0168001
6.41946e-09
-1.15943e-11
0.0168001
2.62484e-08
-1.35546e-11
0.0168
6.29524e-08
-2.12279e-11
0.0168
1.84477e-07
-2.14714e-11
0.0168
4.02123e-07
-2.81453e-11
0.0167998
1.08395e-06
-2.78935e-11
0.0167994
2.43896e-06
-3.54654e-11
0.0167989
5.69355e-06
-3.78775e-11
0.0167964
1.43685e-05
-5.54717e-11
0.0167955
3.27064e-05
-5.52414e-11
0.0167938
7.78288e-05
-1.94952e-10
0.0167893
0.000248939
-1.05203e-10
0.0168152
0.000658023
-6.98555e-10
0.0171001
0.00274776
-1.07554e-09
0.0164495
0.0109137
-1.96262e-09
0.0156505
0.0116574
-1.0512e-09
0.0144729
0.0113624
-1.04687e-10
0.013233
0.0117562
-2.75438e-10
0.0120664
0.0125585
-3.22014e-10
0.0106569
0.0138895
-3.44142e-10
0.00903167
0.0153121
-3.40048e-10
0.00709538
0.0170065
-3.33685e-10
0.00443451
0.0193918
-3.16694e-10
0.0230294
-3.02223e-10
0.0168001
-3.248e-12
2.05673e-09
0.0168001
-1.16239e-11
1.55164e-09
0.0168001
-1.36326e-11
2.72933e-08
0.0168001
-2.18532e-11
2.35012e-08
0.0168001
-2.12368e-11
1.8009e-07
0.0168003
-2.91306e-11
1.53137e-07
0.0168003
-2.82545e-11
1.09344e-06
0.016802
-3.76693e-11
7.77781e-07
0.0168002
-3.71736e-11
7.35718e-06
0.0168114
-6.16551e-11
3.21185e-06
0.0167883
-6.70314e-11
5.51862e-05
0.0168526
-1.49345e-10
1.27262e-05
0.0167094
-1.07372e-10
0.000389197
0.0169824
-6.76874e-10
0.000380521
0.0169952
-9.3205e-10
0.00272201
0.0165484
-2.27815e-09
0.0113206
0.015766
-4.28693e-10
0.0124322
0.0148281
-1.54144e-10
0.0122992
0.0138643
-2.35247e-10
0.0127183
0.0128396
-2.71729e-10
0.0135821
0.0117349
-3.16885e-10
0.0149928
0.0104452
-3.13519e-10
0.0166008
0.00868842
-3.06951e-10
0.0187623
0.00612006
-2.92645e-10
0.0219593
-2.70643e-10
0.0291487
0.0168001
2.06372e-10
-5.42367e-16
0.0168001
1.10947e-09
-2.85948e-15
0.0168
4.13839e-09
-6.39312e-15
0.0168
1.05672e-08
-1.35729e-14
0.0168
2.93927e-08
-2.56946e-14
0.0167999
6.76184e-08
-4.90731e-14
0.0167997
1.76299e-07
-1.04812e-13
0.0167993
4.06813e-07
-2.07245e-13
0.016798
1.02268e-06
-4.99605e-13
0.0167955
2.37393e-06
-1.02407e-12
0.0167874
6.72576e-06
-2.9377e-12
0.0167694
1.683e-05
-6.86561e-12
0.0167082
5.60228e-05
-1.80232e-11
0.0165193
0.000177329
-6.03985e-11
0.015429
0.00104736
-1.63117e-10
0.0141789
0.00125765
2.51505e-11
0.0129373
0.00124288
-4.21994e-12
0.0116425
0.00129323
-1.73866e-11
0.0102819
0.00135927
-1.59013e-11
0.00884111
0.00144019
-1.32773e-11
0.00729462
0.0015461
-1.45617e-11
0.00563651
0.00165785
-1.67787e-11
0.00387492
0.00176128
-1.89274e-11
0.00200476
0.00186949
-2.21444e-11
0.0020038
-2.66406e-11
0.0168001
3.76513e-10
-5.40895e-16
0.0168001
2.03786e-09
-2.84951e-15
0.0168001
7.6058e-09
-6.37439e-15
0.0168
1.94442e-08
-1.35353e-14
0.0168
5.41195e-08
-2.56728e-14
0.0167999
1.23757e-07
-4.91025e-14
0.0167998
3.29408e-07
-1.05143e-13
0.0167994
7.30102e-07
-2.09906e-13
0.0167982
2.01251e-06
-5.01513e-13
0.0167961
4.33974e-06
-1.04496e-12
0.0167879
1.35283e-05
-2.98667e-12
0.0167716
3.19414e-05
-7.01703e-12
0.0166993
0.000123114
-1.8274e-11
0.0164991
0.000365681
-6.12186e-11
0.01537
0.00213276
-1.6512e-10
0.0140754
0.00256024
2.76749e-11
0.0128594
0.00246055
-2.94403e-12
0.0115908
0.00256052
-1.72561e-11
0.0102456
0.00270333
-1.60235e-11
0.00879611
0.00288931
-1.35714e-11
0.0072367
0.00310535
-1.42854e-11
0.00556933
0.00332514
-1.59588e-11
0.00379495
0.00353549
-1.78775e-11
0.00192248
0.00374146
-2.06136e-11
0.00392553
-2.44038e-11
0.0168001
5.21292e-10
-5.19463e-16
0.0168001
2.82632e-09
-2.7589e-15
0.0168001
1.05234e-08
-6.05665e-15
0.0168
2.68743e-08
-1.2842e-14
0.0168
7.47365e-08
-2.36186e-14
0.0168
1.69884e-07
-4.43023e-14
0.0167998
4.58665e-07
-9.55955e-14
0.0167995
9.8411e-07
-1.69116e-13
0.0167984
2.90207e-06
-5.04961e-13
0.0167967
5.92911e-06
-8.13789e-13
0.016789
1.99291e-05
-3.0914e-12
0.0167748
4.48979e-05
-5.78526e-12
0.0166976
0.000195281
-2.40513e-11
0.0165057
0.000547738
-6.166e-11
0.0154321
0.00316048
-1.75748e-10
0.0141156
0.00388659
3.28477e-11
0.0129005
0.00367852
9.8452e-13
0.0116468
0.00381329
-1.65322e-11
0.0103167
0.00403248
-1.60017e-11
0.00886897
0.0043367
-1.40481e-11
0.00730517
0.00466905
-1.39605e-11
0.00562366
0.00500669
-1.49071e-11
0.00382563
0.00533342
-1.62217e-11
0.0019346
0.00563215
-1.79768e-11
0.00585965
-2.01371e-11
0.0168001
6.2615e-10
-5.1453e-16
0.0168001
3.41176e-09
-2.73504e-15
0.0168001
1.2705e-08
-5.99801e-15
0.0168
3.24485e-08
-1.27024e-14
0.0168
9.02244e-08
-2.34248e-14
0.0168
2.04066e-07
-4.40027e-14
0.0167999
5.59787e-07
-9.55358e-14
0.0167997
1.15321e-06
-1.71987e-13
0.0167986
3.69348e-06
-5.08973e-13
0.0167976
6.86742e-06
-8.44625e-13
0.0167895
2.66474e-05
-3.20115e-12
0.0167763
5.68158e-05
-5.9754e-12
0.0167108
0.000255596
-2.49374e-11
0.0165397
0.000708719
-6.35039e-11
0.0156189
0.0040332
-1.84654e-10
0.0142785
0.00523827
3.91868e-11
0.0130536
0.00490683
3.78719e-12
0.0118083
0.00505776
-1.66118e-11
0.0104899
0.00534991
-1.63998e-11
0.00905087
0.00577533
-1.45424e-11
0.00748641
0.00623347
-1.36388e-11
0.00579925
0.00669396
-1.40992e-11
0.00397182
0.00716096
-1.46294e-11
0.00201131
0.00759252
-1.51591e-11
0.00787081
-1.56831e-11
0.0168001
7.16544e-10
-4.85184e-16
0.0168001
3.97382e-09
-2.63859e-15
0.0168001
1.47194e-08
-5.62492e-15
0.0168
3.76178e-08
-1.1595e-14
0.0168
1.04002e-07
-2.09192e-14
0.0168
2.34183e-07
-3.71192e-14
0.0167999
6.45073e-07
-8.18615e-14
0.0167997
1.2613e-06
-1.06483e-13
0.0167987
4.5155e-06
-5.34725e-13
0.0167989
6.7364e-06
-2.98388e-13
0.0167892
3.47114e-05
-5.12123e-12
0.0167823
6.34394e-05
-4.63698e-12
0.0167275
0.000304939
-2.72191e-11
0.0166027
0.000824408
-6.43658e-11
0.0159724
0.00461293
-1.93852e-10
0.0146079
0.00661497
4.07262e-11
0.0133485
0.00617049
5.74071e-12
0.0120952
0.00631057
-1.67509e-11
0.0107955
0.00664871
-1.68434e-11
0.00936734
0.00720323
-1.50625e-11
0.00780363
0.00779721
-1.30635e-11
0.00608599
0.0084115
-1.29139e-11
0.00421057
0.00903629
-1.27006e-11
0.00217054
0.00963256
-1.23625e-11
0.0100415
-1.17061e-11
0.0168001
9.34711e-10
-5.04776e-16
0.0168001
5.04583e-09
-2.70913e-15
0.0168001
1.87726e-08
-5.91211e-15
0.0168
4.79522e-08
-1.23013e-14
0.0168
1.32825e-07
-2.28871e-14
0.0167999
3.03427e-07
-4.24799e-14
0.0167997
8.02984e-07
-8.96001e-14
0.0167992
1.76624e-06
-1.64101e-13
0.0167985
5.01702e-06
-5.03851e-13
0.0167956
9.57387e-06
-5.05075e-13
0.0167928
3.60627e-05
-3.84993e-12
0.0167838
7.18798e-05
-4.92054e-12
0.0167656
0.00031759
-2.5804e-11
0.0167192
0.000862366
-6.22333e-11
0.0166181
0.00466326
-1.94395e-10
0.0152169
0.00802682
2.72591e-11
0.0138453
0.00754607
5.04762e-12
0.0125479
0.00760759
-1.66566e-11
0.0112449
0.00795079
-1.7031e-11
0.00984009
0.00860759
-1.59318e-11
0.00826891
0.00936862
-1.33087e-11
0.00653705
0.010144
-1.27088e-11
0.0045907
0.0109829
-1.17414e-11
0.00239391
0.0118295
-1.02642e-11
0.0124357
-8.51529e-12
0.0168001
1.00133e-09
-5.04479e-16
0.0168001
5.44151e-09
-2.7032e-15
0.0168001
2.02466e-08
-5.91417e-15
0.0168001
5.18589e-08
-1.22853e-14
0.0168
1.43058e-07
-2.30075e-14
0.0168
3.26952e-07
-4.2649e-14
0.0167999
8.5687e-07
-9.06025e-14
0.0167998
1.90022e-06
-1.70493e-13
0.0167995
5.10304e-06
-4.559e-13
0.0167979
1.09666e-05
-8.23775e-13
0.0167987
3.40186e-05
-3.04452e-12
0.0167983
7.14102e-05
-4.93696e-12
0.0168233
0.000287346
-2.26455e-11
0.0169033
0.000774572
-5.64351e-11
0.017679
0.00383985
-1.85085e-10
0.0162589
0.00945509
9.64438e-12
0.0146072
0.00920369
-4.30456e-12
0.0132476
0.0089684
-1.744e-11
0.011931
0.00926749
-1.71288e-11
0.0105134
0.010025
-1.56831e-11
0.00893678
0.0109451
-1.32329e-11
0.00715413
0.0119263
-1.22097e-11
0.00513492
0.0130023
-1.0899e-11
0.00278587
0.0141786
-8.85945e-12
0.015222
-6.24872e-12
0.0168001
1.05957e-09
-4.9198e-16
0.0168001
5.83801e-09
-2.6456e-15
0.0168001
2.1754e-08
-5.72795e-15
0.0168001
5.61036e-08
-1.18829e-14
0.0168
1.54127e-07
-2.17846e-14
0.0168
3.54132e-07
-4.01623e-14
0.0167999
9.1927e-07
-8.25083e-14
0.0167997
2.06639e-06
-1.55657e-13
0.0167993
5.36339e-06
-3.88855e-13
0.0167981
1.19994e-05
-7.59418e-13
0.0167985
3.26475e-05
-2.12892e-12
0.0167919
7.71828e-05
-4.96209e-12
0.0168261
0.000248673
-1.40763e-11
0.0169176
0.000682122
-3.67355e-11
0.0176689
0.00305522
-9.73318e-11
0.0168064
0.0102998
-6.4641e-11
0.0151285
0.0108751
-3.45298e-11
0.0139115
0.0101845
-1.79965e-11
0.0126611
0.0105173
-1.8187e-11
0.0112921
0.0113939
-1.78224e-11
0.00975529
0.0124818
-1.54943e-11
0.00799357
0.013688
-1.32109e-11
0.00592468
0.0150712
-1.11154e-11
0.00337222
0.0167312
-8.51466e-12
0.0185945
-5.15646e-12
0.0168001
1.41495e-09
-4.84181e-16
0.0168001
6.52738e-09
-2.60656e-15
0.0168001
2.62725e-08
-5.61806e-15
0.0168
6.27171e-08
-1.16364e-14
0.0168
1.84461e-07
-2.11826e-14
0.0168
4.01693e-07
-3.89291e-14
0.0167998
1.0836e-06
-7.95468e-14
0.0167994
2.43806e-06
-1.50633e-13
0.0167989
5.69313e-06
-3.66966e-13
0.0167964
1.43671e-05
-7.63653e-13
0.0167955
3.27016e-05
-1.69456e-12
0.0167937
7.78455e-05
-5.68102e-12
0.0167893
0.000248944
-9.75292e-12
0.0168151
0.000658068
-3.66429e-11
0.0171004
0.00274799
-8.08091e-11
0.0164501
0.0109137
-1.39585e-10
0.0156504
0.0116577
-7.25338e-11
0.014473
0.0113622
-7.52229e-13
0.0132331
0.0117561
-1.37567e-11
0.0120665
0.0125585
-1.68434e-11
0.010657
0.0138894
-1.60186e-11
0.00903174
0.015312
-1.35815e-11
0.00709542
0.0170064
-1.193e-11
0.00443453
0.0193917
-8.6626e-12
0.0230292
-5.15555e-12
0.0168001
-4.77564e-16
1.92131e-09
0.0168001
-2.54749e-15
1.91488e-09
0.0168001
-5.42083e-15
2.60875e-08
0.0168001
-1.14559e-14
2.40067e-08
0.0168001
-1.96233e-14
1.78677e-07
0.0168003
-3.65483e-14
1.53754e-07
0.0168003
-7.01989e-14
1.09233e-06
0.0168019
-1.32976e-13
7.78751e-07
0.0168002
-3.07721e-13
7.35582e-06
0.0168114
-6.00524e-13
3.2076e-06
0.0167883
-1.6681e-12
5.51832e-05
0.0168526
-3.66547e-12
1.27452e-05
0.0167094
-9.10342e-12
0.000389164
0.0169824
-3.35072e-11
0.000380641
0.0169954
-7.2825e-11
0.00272201
0.0165485
-1.62164e-10
0.0113207
0.0157664
-2.61225e-11
0.0124322
0.0148283
-5.52814e-12
0.0122991
0.0138645
-1.13308e-11
0.0127183
0.0128397
-1.36939e-11
0.0135821
0.011735
-1.57132e-11
0.0149928
0.0104453
-1.44237e-11
0.0166007
0.0086885
-1.21842e-11
0.0187622
0.00612011
-9.10313e-12
0.0219592
-5.63863e-12
0.0291486
0.0168001
2.06373e-10
2.13126e-16
0.0168001
1.10948e-09
1.85138e-16
0.0168
4.13843e-09
1.42926e-16
0.0168
1.05673e-08
3.09203e-16
0.0168
2.9393e-08
9.11324e-16
0.0167999
6.7619e-08
1.8826e-15
0.0167997
1.763e-07
5.42268e-15
0.0167993
4.06815e-07
1.13624e-14
0.016798
1.02269e-06
3.21374e-14
0.0167955
2.37394e-06
6.61964e-14
0.0167874
6.72576e-06
2.11529e-13
0.0167694
1.683e-05
4.93394e-13
0.0167082
5.60224e-05
1.41617e-12
0.0165193
0.000177327
4.71921e-12
0.015429
0.00104735
1.32926e-11
0.0141789
0.00125764
-1.85201e-12
0.0129373
0.00124288
-2.77507e-13
0.0116425
0.00129323
6.66144e-13
0.0102819
0.00135927
5.97042e-13
0.00884114
0.00144018
3.56154e-13
0.00729466
0.00154609
-3.72115e-14
0.00563654
0.00165785
-3.00365e-13
0.00387495
0.00176129
-4.83724e-13
0.00200478
0.0018695
-7.23323e-13
0.00200382
-9.64142e-13
0.0168001
3.76523e-10
2.12568e-16
0.0168001
2.03791e-09
1.86077e-16
0.0168001
7.60599e-09
1.40668e-16
0.0168
1.94446e-08
3.04224e-16
0.0168
5.41208e-08
9.0231e-16
0.0167999
1.2376e-07
1.86768e-15
0.0167998
3.29414e-07
5.39957e-15
0.0167994
7.30126e-07
1.1425e-14
0.0167982
2.01252e-06
3.2058e-14
0.0167961
4.33986e-06
6.69724e-14
0.0167879
1.35284e-05
2.13557e-13
0.0167716
3.1942e-05
4.99904e-13
0.0166993
0.000123111
1.42799e-12
0.0164991
0.000365679
4.74903e-12
0.01537
0.00213275
1.33717e-11
0.0140754
0.00256023
-2.00671e-12
0.0128594
0.00246055
-3.2016e-13
0.0115908
0.00256052
6.5052e-13
0.0102456
0.00270332
5.87976e-13
0.00879612
0.00288931
3.54591e-13
0.00723671
0.00310535
-4.73043e-14
0.00556934
0.00332514
-3.00825e-13
0.00379496
0.00353549
-4.75319e-13
0.00192249
0.00374147
-6.98895e-13
0.00392556
-9.1577e-13
0.0168001
5.21295e-10
2.06106e-16
0.0168001
2.82635e-09
1.95319e-16
0.0168001
1.05234e-08
1.18826e-16
0.0168
2.68746e-08
2.56507e-16
0.0168
7.47371e-08
7.57727e-16
0.0168
1.69885e-07
1.5293e-15
0.0167998
4.58668e-07
4.69921e-15
0.0167995
9.84116e-07
8.53391e-15
0.0167984
2.90208e-06
3.19109e-14
0.0167967
5.92913e-06
5.03073e-14
0.016789
1.99291e-05
2.17825e-13
0.0167748
4.48979e-05
4.0709e-13
0.0166976
0.000195281
1.813e-12
0.0165057
0.000547736
4.71491e-12
0.0154321
0.00316047
1.39389e-11
0.0141156
0.00388658
-2.33799e-12
0.0129005
0.00367852
-6.04017e-13
0.0116468
0.00381329
5.75868e-13
0.0103167
0.00403248
5.42299e-13
0.00886897
0.0043367
3.35385e-13
0.00730518
0.00466904
-7.89836e-14
0.00562367
0.00500669
-3.14087e-13
0.00382564
0.00533342
-4.61585e-13
0.0019346
0.00563217
-6.48706e-13
0.00585968
-8.04056e-13
0.0168001
6.26164e-10
2.04478e-16
0.0168001
3.41181e-09
1.97201e-16
0.0168001
1.27052e-08
1.1355e-16
0.0168
3.24491e-08
2.44928e-16
0.0168
9.02259e-08
7.36138e-16
0.0168
2.0407e-07
1.49346e-15
0.0167999
5.59796e-07
4.63966e-15
0.0167997
1.15325e-06
8.64996e-15
0.0167986
3.69348e-06
3.17392e-14
0.0167976
6.86766e-06
5.19079e-14
0.0167895
2.66471e-05
2.22462e-13
0.0167763
5.68164e-05
4.14634e-13
0.0167108
0.000255595
1.84724e-12
0.0165397
0.000708719
4.7718e-12
0.0156189
0.00403321
1.43626e-11
0.0142785
0.00523825
-2.73125e-12
0.0130536
0.00490683
-8.05531e-13
0.0118083
0.00505776
5.52995e-13
0.0104899
0.00534991
5.34655e-13
0.00905087
0.00577533
3.47254e-13
0.00748641
0.00623347
-8.28645e-14
0.00579925
0.00669396
-3.02332e-13
0.00397182
0.00716096
-4.16396e-13
0.00201131
0.00759253
-5.69566e-13
0.00787084
-6.74264e-13
0.0168001
7.16537e-10
1.95043e-16
0.0168001
3.97379e-09
2.04121e-16
0.0168001
1.47193e-08
8.31363e-17
0.0168
3.76175e-08
1.74225e-16
0.0168
1.04001e-07
5.24198e-16
0.0168
2.3418e-07
9.82888e-16
0.0167999
6.45069e-07
3.55152e-15
0.0167997
1.26127e-06
3.62604e-15
0.0167987
4.51551e-06
3.32415e-14
0.0167989
6.73633e-06
9.30374e-15
0.0167892
3.47115e-05
2.93646e-13
0.0167823
6.34393e-05
3.03624e-13
0.0167275
0.000304941
1.99224e-12
0.0166027
0.000824412
4.75251e-12
0.0159724
0.00461296
1.47684e-11
0.0146079
0.00661495
-2.82179e-12
0.0133485
0.00617047
-9.51158e-13
0.0120952
0.00631056
5.63136e-13
0.0107955
0.00664871
5.6388e-13
0.00936733
0.00720322
4.04097e-13
0.00780362
0.0077972
-3.15251e-14
0.00608599
0.0084115
-2.43452e-13
0.00421057
0.0090363
-3.35337e-13
0.00217053
0.00963257
-4.69297e-13
0.0100415
-5.47268e-13
0.0168001
9.34711e-10
2.01832e-16
0.0168001
5.04583e-09
1.99124e-16
0.0168001
1.87726e-08
1.05444e-16
0.0168
4.79522e-08
2.29321e-16
0.0168
1.32825e-07
6.75795e-16
0.0167999
3.03427e-07
1.39377e-15
0.0167997
8.02983e-07
4.14636e-15
0.0167992
1.76623e-06
7.9456e-15
0.0167985
5.01703e-06
3.0892e-14
0.0167956
9.57374e-06
2.43929e-14
0.0167928
3.6063e-05
2.68234e-13
0.0167838
7.188e-05
3.20603e-13
0.0167656
0.000317593
1.86054e-12
0.0167192
0.000862375
4.52055e-12
0.016618
0.00466331
1.45372e-11
0.0152169
0.0080268
-2.30291e-12
0.0138453
0.00754604
-8.72766e-13
0.0125479
0.00760758
5.9069e-13
0.0112449
0.00795078
6.16242e-13
0.00984007
0.00860758
4.72487e-13
0.0082689
0.00936861
5.63795e-14
0.00653704
0.010144
-1.39663e-13
0.00459069
0.010983
-2.08061e-13
0.00239391
0.0118295
-3.26718e-13
0.0124358
-3.9538e-13
0.0168001
1.00133e-09
2.0195e-16
0.0168001
5.44154e-09
2.00211e-16
0.0168001
2.02468e-08
1.07264e-16
0.0168001
5.18591e-08
2.31703e-16
0.0168
1.43059e-07
6.91978e-16
0.0168
3.26954e-07
1.41978e-15
0.0167999
8.56876e-07
4.24375e-15
0.0167998
1.90023e-06
8.4796e-15
0.0167995
5.10308e-06
2.71445e-14
0.0167979
1.09667e-05
4.93122e-14
0.0167987
3.40191e-05
2.04392e-13
0.0167983
7.14106e-05
3.19291e-13
0.0168233
0.000287352
1.59917e-12
0.0169033
0.000774588
4.01392e-12
0.0176789
0.00383996
1.35187e-11
0.0162588
0.00945508
-6.03438e-13
0.0146072
0.00920364
-1.4123e-13
0.0132476
0.00896837
7.29594e-13
0.011931
0.00926748
7.33361e-13
0.0105134
0.010025
6.27791e-13
0.00893676
0.010945
2.41666e-13
0.00715412
0.0119263
4.77462e-14
0.00513491
0.0130023
-1.57493e-14
0.00278587
0.0141786
-1.16591e-13
0.015222
-1.77258e-13
0.0168001
1.05957e-09
1.98074e-16
0.0168001
5.83803e-09
2.05432e-16
0.0168001
2.17541e-08
9.56783e-17
0.0168001
5.61038e-08
2.06795e-16
0.0168
1.54128e-07
6.12704e-16
0.0168
3.54134e-07
1.25878e-15
0.0167999
9.19273e-07
3.69669e-15
0.0167997
2.0664e-06
7.49019e-15
0.0167993
5.36341e-06
2.23867e-14
0.0167981
1.19995e-05
4.50788e-14
0.0167985
3.26478e-05
1.3717e-13
0.0167919
7.71828e-05
3.22113e-13
0.0168261
0.000248676
9.64849e-13
0.0169176
0.000682126
2.54481e-12
0.0176689
0.00305527
6.93661e-12
0.0168064
0.0102998
4.64962e-12
0.0151285
0.0108751
2.12614e-12
0.0139115
0.0101845
9.19046e-13
0.0126611
0.0105173
9.28814e-13
0.0112921
0.0113939
8.79892e-13
0.00975527
0.0124818
5.43445e-13
0.00799355
0.013688
3.4138e-13
0.00592467
0.0150712
2.75786e-13
0.00337222
0.0167312
1.94656e-13
0.0185945
1.64028e-13
0.0168001
1.41495e-09
1.95396e-16
0.0168001
6.52743e-09
2.08509e-16
0.0168001
2.62726e-08
8.76984e-17
0.0168
6.27174e-08
1.89319e-16
0.0168
1.84462e-07
5.66818e-16
0.0168
4.01694e-07
1.16493e-15
0.0167998
1.08361e-06
3.45136e-15
0.0167994
2.43808e-06
7.06266e-15
0.0167989
5.69317e-06
2.05486e-14
0.0167964
1.43672e-05
4.475e-14
0.0167955
3.27018e-05
1.04745e-13
0.0167937
7.78463e-05
3.66036e-13
0.0167893
0.000248945
6.47144e-13
0.0168151
0.000658072
2.46702e-12
0.0171004
0.00274802
5.59523e-12
0.0164502
0.0109137
9.81656e-12
0.0156504
0.0116577
5.02784e-12
0.014473
0.0113621
-6.7073e-14
0.0132331
0.0117561
8.1279e-13
0.0120665
0.0125585
1.00915e-12
0.010657
0.0138894
8.25815e-13
0.00903173
0.015312
6.52909e-13
0.00709541
0.0170064
6.36173e-13
0.00443453
0.0193917
6.29647e-13
0.0230293
7.18795e-13
0.0168001
1.91533e-16
1.92129e-09
0.0168001
2.12279e-16
1.91495e-09
0.0168001
7.17555e-17
2.60874e-08
0.0168001
1.55262e-16
2.4007e-08
0.0168001
4.60867e-16
1.78677e-07
0.0168003
9.5497e-16
1.53755e-07
0.0168003
2.74278e-15
1.09233e-06
0.016802
5.78738e-15
7.78757e-07
0.0168002
1.60773e-14
7.35585e-06
0.0168114
3.3256e-14
3.2076e-06
0.0167883
1.00631e-13
5.51834e-05
0.0168526
2.28667e-13
1.27455e-05
0.0167094
5.8092e-13
0.000389165
0.0169824
2.21951e-12
0.000380646
0.0169954
4.91249e-12
0.00272202
0.0165485
1.12173e-11
0.0113207
0.0157665
2.03078e-12
0.0124322
0.0148283
5.63294e-13
0.0122991
0.0138645
8.68618e-13
0.0127183
0.0128397
1.006e-12
0.0135821
0.011735
1.10889e-12
0.0149928
0.0104453
1.03883e-12
0.0166007
0.00868849
1.04106e-12
0.0187622
0.00612011
1.17207e-12
0.0219592
1.64077e-12
0.0291486
0.0168001
2.06373e-10
-1.74572e-16
0.0168001
1.10948e-09
-5.979e-16
0.0168
4.13843e-09
-1.68733e-15
0.0168
1.05673e-08
-3.40063e-15
0.0168
2.93929e-08
-9.33982e-15
0.0167999
6.76189e-08
-1.8952e-14
0.0167997
1.763e-07
-5.30157e-14
0.0167993
4.06815e-07
-1.11077e-13
0.016798
1.02269e-06
-3.05857e-13
0.0167955
2.37394e-06
-6.35597e-13
0.0167874
6.72576e-06
-1.98649e-12
0.0167694
1.683e-05
-4.62006e-12
0.0167082
5.60224e-05
-1.31582e-11
0.0165193
0.000177327
-4.35164e-11
0.015429
0.00104735
-1.23886e-10
0.0141789
0.00125764
1.87775e-11
0.0129373
0.00124288
7.90382e-13
0.0116425
0.00129323
-8.47756e-12
0.0102819
0.00135927
-7.6756e-12
0.00884114
0.00144018
-5.40371e-12
0.00729466
0.00154609
-3.72417e-12
0.00563654
0.00165785
-2.73781e-12
0.00387495
0.00176129
-2.05433e-12
0.00200478
0.0018695
-1.63519e-12
0.00200382
-1.37373e-12
0.0168001
3.76523e-10
-1.72586e-16
0.0168001
2.03791e-09
-5.89894e-16
0.0168001
7.60597e-09
-1.66956e-15
0.0168
1.94446e-08
-3.36213e-15
0.0168
5.41207e-08
-9.28429e-15
0.0167999
1.2376e-07
-1.88754e-14
0.0167998
3.29414e-07
-5.2971e-14
0.0167994
7.30124e-07
-1.12142e-13
0.0167982
2.01252e-06
-3.05891e-13
0.0167961
4.33985e-06
-6.45563e-13
0.0167879
1.35284e-05
-2.01086e-12
0.0167716
3.1942e-05
-4.69646e-12
0.0166993
0.000123111
-1.32898e-11
0.0164991
0.000365679
-4.38709e-11
0.01537
0.00213275
-1.24699e-10
0.0140754
0.00256023
2.03984e-11
0.0128594
0.00246055
1.60088e-12
0.0115908
0.00256052
-8.34547e-12
0.0102456
0.00270332
-7.64578e-12
0.00879612
0.00288931
-5.4588e-12
0.00723671
0.00310535
-3.5538e-12
0.00556934
0.00332514
-2.47438e-12
0.00379496
0.00353549
-1.77264e-12
0.00192249
0.00374147
-1.32199e-12
0.00392556
-1.01971e-12
0.0168001
5.21295e-10
-1.51433e-16
0.0168001
2.82634e-09
-5.22e-16
0.0168001
1.05234e-08
-1.45296e-15
0.0168
2.68745e-08
-2.9025e-15
0.0168
7.4737e-08
-7.91664e-15
0.0168
1.69885e-07
-1.56808e-14
0.0167998
4.58667e-07
-4.64506e-14
0.0167995
9.84115e-07
-8.4847e-14
0.0167984
2.90208e-06
-3.05926e-13
0.0167967
5.92913e-06
-4.88985e-13
0.016789
1.99291e-05
-2.06307e-12
0.0167748
4.48979e-05
-3.83581e-12
0.0166976
0.000195281
-1.71047e-11
0.0165057
0.000547736
-4.3724e-11
0.0154321
0.00316047
-1.30658e-10
0.0141156
0.00388658
2.38315e-11
0.0129005
0.00367852
4.17313e-12
0.0116468
0.00381329
-7.70318e-12
0.0103167
0.00403248
-7.35336e-12
0.00886897
0.0043367
-5.43981e-12
0.00730518
0.00466904
-3.20318e-12
0.00562367
0.00500669
-2.02443e-12
0.00382564
0.00533342
-1.31029e-12
0.0019346
0.00563217
-8.10456e-13
0.00585968
-4.52336e-13
0.0168001
6.26163e-10
-1.46229e-16
0.0168001
3.41181e-09
-5.0217e-16
0.0168001
1.27052e-08
-1.40725e-15
0.0168
3.2449e-08
-2.80491e-15
0.0168
9.02258e-08
-7.75332e-15
0.0168
2.0407e-07
-1.54212e-14
0.0167999
5.59795e-07
-4.61475e-14
0.0167997
1.15325e-06
-8.6323e-14
0.0167986
3.69348e-06
-3.06148e-13
0.0167976
6.86764e-06
-5.06267e-13
0.0167895
2.66471e-05
-2.1176e-12
0.0167763
5.68163e-05
-3.92825e-12
0.0167108
0.000255595
-1.75152e-11
0.0165397
0.000708719
-4.44659e-11
0.0156189
0.00403321
-1.35195e-10
0.0142785
0.00523825
2.79485e-11
0.0130536
0.00490683
6.08594e-12
0.0118083
0.00505776
-7.58615e-12
0.0104899
0.00534991
-7.38928e-12
0.00905087
0.00577533
-5.5684e-12
0.00748641
0.00623347
-2.9999e-12
0.00579925
0.00669396
-1.71496e-12
0.00397182
0.00716096
-9.43482e-13
0.00201131
0.00759253
-3.18784e-13
0.00787084
5.23231e-14
0.0168001
7.16537e-10
-1.17138e-16
0.0168001
3.97379e-09
-4.16378e-16
0.0168001
1.47193e-08
-1.12367e-15
0.0168
3.76176e-08
-2.17103e-15
0.0168
1.04001e-07
-5.89529e-15
0.0168
2.3418e-07
-1.09635e-14
0.0167999
6.45069e-07
-3.67246e-14
0.0167997
1.26128e-06
-4.25295e-14
0.0167987
4.51551e-06
-3.20501e-13
0.0167989
6.73634e-06
-1.34977e-13
0.0167892
3.47115e-05
-2.7568e-12
0.0167823
6.34393e-05
-2.97523e-12
0.0167275
0.000304941
-1.88817e-11
0.0166027
0.000824412
-4.44878e-11
0.0159724
0.00461295
-1.39555e-10
0.0146079
0.00661496
2.88944e-11
0.0133485
0.00617047
7.38618e-12
0.0120952
0.00631056
-7.66421e-12
0.0107955
0.00664871
-7.63994e-12
0.00936733
0.00720322
-5.9229e-12
0.00780362
0.0077972
-3.01755e-12
0.00608599
0.0084115
-1.61498e-12
0.00421057
0.0090363