/*--------------------------------*- C++ -*----------------------------------*\
| =========                 |                                                 |
| \\      /  F ield         | OpenFOAM: The Open Source CFD Toolbox           |
|  \\    /   O peration     | Version:  4.1                                   |
|   \\  /    A nd           | Web:      www.OpenFOAM.org                      |
|    \\/     M anipulation  |                                                 |
\*---------------------------------------------------------------------------*/
FoamFile
{
    version     2.0;
    format      ascii;
    class       volScalarField;
    location    "3";
    object      Ma;
}
// * * * * * * * * * * * * * * * * * * * * * * * * * * * * * * * * * * * * * //

dimensions      [0 0 0 0 0 0 0];

internalField   nonuniform List<scalar> 
52500
(
3.00002
2.99997
2.99992
2.99969
2.99938
2.99811
2.99629
2.98931
2.97767
2.93989
2.85392
2.65467
2.12589
1.29618
0.537566
0.26925
0.326707
0.34435
0.311691
0.256857
0.204275
0.162511
0.12193
0.0766037
0.0426464
3.00002
2.99997
2.99992
2.9997
2.99939
2.99814
2.99634
2.98945
2.97799
2.94067
2.85607
2.65922
2.13776
1.31134
0.545565
0.269984
0.328647
0.347006
0.314556
0.260505
0.209193
0.168886
0.13046
0.0903083
0.0655589
3.00002
2.99997
2.99992
2.99971
2.99941
2.99819
2.99644
2.98973
2.97864
2.94229
2.86056
2.66876
2.16358
1.34532
0.564347
0.274068
0.334813
0.354899
0.323293
0.271313
0.222919
0.186025
0.152411
0.120461
0.103686
3.00002
2.99998
2.99993
2.99972
2.99943
2.99825
2.99658
2.99006
2.97959
2.94444
2.86782
2.68324
2.20442
1.39956
0.594178
0.282741
0.3458
0.368458
0.33816
0.28905
0.244238
0.211482
0.183207
0.158107
0.145756
3.00002
2.99998
2.99993
2.99973
2.99946
2.99833
2.99674
2.99039
2.98076
2.94679
2.8782
2.70231
2.26031
1.47556
0.635834
0.299486
0.36327
0.388509
0.359521
0.313622
0.272259
0.243435
0.219836
0.199996
0.190699
3.00002
2.99998
2.99994
2.99975
2.99949
2.99845
2.99697
2.99106
2.98215
2.95025
2.88943
2.72458
2.32485
1.57052
0.68852
0.327576
0.389041
0.4153
0.38754
0.344862
0.306919
0.281831
0.262721
0.247644
0.241214
3.00002
2.99999
2.99994
2.99977
2.99954
2.99857
2.99721
2.99179
2.98365
2.9542
2.89995
2.74618
2.39115
1.66765
0.749146
0.366621
0.422012
0.446557
0.420839
0.382314
0.348013
0.326854
0.312264
0.302528
0.301407
3.00002
2.99999
2.99995
2.9998
2.99958
2.99871
2.99747
2.99254
2.98516
2.95828
2.90912
2.76901
2.44106
1.75941
0.807063
0.40473
0.448695
0.469622
0.451342
0.421215
0.393344
0.377751
0.36988
0.36812
0.377004
3.00002
2.99999
2.99996
2.99982
2.99963
2.99886
2.99777
2.99339
2.98684
2.96346
2.91769
2.79591
2.4837
1.87407
0.89008
0.464484
0.470117
0.483348
0.479049
0.459452
0.440878
0.433166
0.434372
0.447024
0.480851
3.00002
3
2.99997
2.99986
2.9997
2.99906
2.99812
2.99471
2.98856
2.9699
2.92591
2.82208
2.52846
1.98202
1.00424
0.538388
0.486945
0.500084
0.506134
0.496781
0.489759
0.492095
0.50943
0.552175
0.652958
3
2.99996
2.9999
2.99967
2.99936
2.99809
2.99627
2.98929
2.97765
2.93985
2.85388
2.6546
2.12581
1.29604
0.537429
0.269034
0.326514
0.34416
0.311479
0.256599
0.203947
0.162095
0.121368
0.0756943
0.0409664
3
2.99996
2.9999
2.99968
2.99937
2.99812
2.99632
2.98942
2.97797
2.94064
2.85603
2.65915
2.13769
1.3112
0.545431
0.269768
0.328455
0.346817
0.314345
0.260251
0.208875
0.16849
0.129941
0.0895476
0.0644936
3
2.99996
2.9999
2.99969
2.99939
2.99817
2.99642
2.9897
2.97862
2.94226
2.86052
2.6687
2.16351
1.34519
0.564214
0.273849
0.334621
0.354712
0.323086
0.271068
0.222622
0.185667
0.15197
0.119898
0.103025
3
2.99996
2.99991
2.9997
2.99941
2.99823
2.99656
2.99004
2.97956
2.9444
2.8678
2.68318
2.2044
1.39946
0.594078
0.282551
0.345631
0.368293
0.337977
0.288832
0.243975
0.211172
0.182846
0.157684
0.145292
3
2.99996
2.99991
2.99971
2.99944
2.99831
2.99672
2.99037
2.98074
2.94675
2.87819
2.70226
2.26029
1.47546
0.635741
0.299307
0.363114
0.388361
0.359359
0.313431
0.272032
0.243174
0.219542
0.199667
0.19035
3
2.99996
2.99992
2.99973
2.99948
2.99843
2.99695
2.99104
2.98213
2.95022
2.8894
2.72452
2.3248
1.57042
0.688425
0.327398
0.388891
0.415163
0.387392
0.344694
0.306725
0.281614
0.262481
0.247385
0.240943
3
2.99997
2.99993
2.99976
2.99952
2.99855
2.99719
2.99177
2.98362
2.95417
2.89992
2.74613
2.39111
1.66757
0.749057
0.366457
0.421876
0.446433
0.420707
0.382167
0.347847
0.326672
0.312069
0.302322
0.301196
3
2.99997
2.99993
2.99978
2.99956
2.99869
2.99745
2.99252
2.98514
2.95825
2.90909
2.76897
2.44103
1.75933
0.80697
0.404572
0.448568
0.469506
0.451221
0.421084
0.393202
0.3776
0.369722
0.367957
0.376842
3
2.99998
2.99994
2.99981
2.99961
2.99884
2.99775
2.99337
2.98682
2.96343
2.91768
2.79586
2.4837
1.87399
0.890003
0.464349
0.470005
0.483238
0.478937
0.459335
0.440754
0.433039
0.434244
0.446897
0.480732
3
2.99998
2.99995
2.99984
2.99968
2.99904
2.9981
2.99469
2.98854
2.96987
2.92588
2.82204
2.52843
1.98194
1.00416
0.538265
0.486837
0.49998
0.50603
0.496674
0.489652
0.491988
0.509327
0.55208
0.652879
3
2.99996
2.9999
2.99967
2.99936
2.99809
2.99627
2.98929
2.97765
2.93985
2.85388
2.6546
2.1258
1.29604
0.537427
0.269035
0.326514
0.34416
0.311478
0.256599
0.203947
0.162095
0.121368
0.0756943
0.0409665
3
2.99996
2.9999
2.99968
2.99937
2.99812
2.99632
2.98942
2.97797
2.94064
2.85603
2.65915
2.13768
1.3112
0.545429
0.269769
0.328456
0.346817
0.314345
0.260251
0.208875
0.16849
0.129941
0.0895477
0.0644937
3
2.99996
2.9999
2.99969
2.99939
2.99817
2.99642
2.9897
2.97862
2.94226
2.86052
2.6687
2.1635
1.34519
0.564213
0.27385
0.334622
0.354712
0.323086
0.271068
0.222622
0.185667
0.151971
0.119898
0.103025
3
2.99996
2.99991
2.9997
2.99941
2.99823
2.99656
2.99004
2.97956
2.9444
2.8678
2.68318
2.2044
1.39946
0.594076
0.282552
0.345631
0.368293
0.337976
0.288832
0.243975
0.211173
0.182846
0.157684
0.145292
3
2.99996
2.99991
2.99971
2.99944
2.99831
2.99672
2.99037
2.98074
2.94675
2.87819
2.70225
2.26028
1.47545
0.635739
0.299307
0.363114
0.388361
0.359358
0.313431
0.272032
0.243174
0.219541
0.199667
0.19035
3
2.99996
2.99992
2.99973
2.99948
2.99843
2.99695
2.99104
2.98213
2.95022
2.8894
2.72452
2.3248
1.57041
0.688423
0.327398
0.388891
0.415162
0.387392
0.344694
0.306725
0.281613
0.262481
0.247385
0.240943
3
2.99997
2.99993
2.99976
2.99952
2.99855
2.99719
2.99177
2.98362
2.95417
2.89992
2.74613
2.39111
1.66757
0.749056
0.366457
0.421876
0.446433
0.420706
0.382167
0.347846
0.326672
0.312068
0.302322
0.301196
3
2.99997
2.99993
2.99978
2.99956
2.99869
2.99745
2.99252
2.98514
2.95825
2.90909
2.76897
2.44102
1.75933
0.806968
0.404571
0.448568
0.469507
0.45122
0.421084
0.393201
0.3776
0.369722
0.367957
0.376842
3
2.99998
2.99994
2.99981
2.99961
2.99884
2.99775
2.99337
2.98682
2.96343
2.91768
2.79586
2.4837
1.87398
0.890001
0.464348
0.470006
0.483238
0.478937
0.459335
0.440754
0.433039
0.434244
0.446897
0.480732
3
2.99998
2.99995
2.99984
2.99968
2.99904
2.9981
2.99469
2.98854
2.96987
2.92588
2.82204
2.52843
1.98194
1.00416
0.538264
0.486837
0.49998
0.50603
0.496674
0.489651
0.491988
0.509327
0.552079
0.652879
3
2.99996
2.9999
2.99967
2.99936
2.99809
2.99627
2.98929
2.97765
2.93985
2.85388
2.6546
2.1258
1.29604
0.537427
0.269035
0.326514
0.34416
0.311478
0.256599
0.203947
0.162095
0.121368
0.0756944
0.0409665
3
2.99996
2.9999
2.99968
2.99937
2.99812
2.99632
2.98942
2.97797
2.94064
2.85603
2.65915
2.13768
1.3112
0.545429
0.269769
0.328456
0.346817
0.314345
0.260251
0.208875
0.16849
0.129941
0.0895477
0.0644937
3
2.99996
2.9999
2.99969
2.99939
2.99817
2.99642
2.9897
2.97862
2.94226
2.86052
2.6687
2.1635
1.34519
0.564213
0.27385
0.334622
0.354712
0.323086
0.271068
0.222622
0.185667
0.151971
0.119898
0.103025
3
2.99996
2.99991
2.9997
2.99941
2.99823
2.99656
2.99004
2.97956
2.9444
2.8678
2.68318
2.2044
1.39946
0.594076
0.282552
0.345631
0.368293
0.337976
0.288832
0.243975
0.211172
0.182846
0.157684
0.145292
3
2.99996
2.99991
2.99971
2.99944
2.99831
2.99672
2.99037
2.98074
2.94675
2.87819
2.70225
2.26028
1.47545
0.635738
0.299307
0.363114
0.388361
0.359358
0.313431
0.272032
0.243174
0.219541
0.199667
0.19035
3
2.99996
2.99992
2.99973
2.99948
2.99843
2.99695
2.99104
2.98213
2.95022
2.8894
2.72452
2.3248
1.57041
0.688423
0.327398
0.388891
0.415162
0.387392
0.344694
0.306725
0.281613
0.262481
0.247385
0.240943
3
2.99997
2.99993
2.99976
2.99952
2.99855
2.99719
2.99177
2.98362
2.95417
2.89992
2.74613
2.39111
1.66757
0.749055
0.366457
0.421876
0.446433
0.420706
0.382167
0.347846
0.326672
0.312068
0.302322
0.301196
3
2.99997
2.99993
2.99978
2.99956
2.99869
2.99745
2.99252
2.98514
2.95825
2.90909
2.76897
2.44102
1.75933
0.806967
0.404571
0.448568
0.469507
0.45122
0.421084
0.393201
0.3776
0.369722
0.367957
0.376842
3
2.99998
2.99994
2.99981
2.99961
2.99884
2.99775
2.99337
2.98682
2.96343
2.91768
2.79586
2.4837
1.87398
0.890001
0.464348
0.470006
0.483238
0.478937
0.459335
0.440754
0.433039
0.434244
0.446897
0.480732
3
2.99998
2.99995
2.99984
2.99968
2.99904
2.9981
2.99469
2.98854
2.96987
2.92588
2.82204
2.52843
1.98194
1.00416
0.538264
0.486837
0.49998
0.50603
0.496674
0.489651
0.491988
0.509327
0.552079
0.652879
3
2.99996
2.9999
2.99967
2.99936
2.99809
2.99627
2.98929
2.97765
2.93985
2.85388
2.6546
2.1258
1.29604
0.537427
0.269035
0.326514
0.34416
0.311478
0.256599
0.203947
0.162095
0.121368
0.0756944
0.0409665
3
2.99996
2.9999
2.99968
2.99937
2.99812
2.99632
2.98942
2.97797
2.94064
2.85603
2.65915
2.13768
1.3112
0.545429
0.269769
0.328455
0.346817
0.314345
0.260251
0.208875
0.16849
0.129941
0.0895477
0.0644937
3
2.99996
2.9999
2.99969
2.99939
2.99817
2.99642
2.9897
2.97862
2.94226
2.86052
2.6687
2.1635
1.34519
0.564212
0.27385
0.334622
0.354712
0.323086
0.271068
0.222622
0.185667
0.151971
0.119898
0.103025
3
2.99996
2.99991
2.9997
2.99941
2.99823
2.99656
2.99004
2.97956
2.9444
2.8678
2.68318
2.2044
1.39946
0.594076
0.282552
0.345631
0.368293
0.337976
0.288832
0.243975
0.211172
0.182846
0.157684
0.145292
3
2.99996
2.99991
2.99971
2.99944
2.99831
2.99672
2.99037
2.98074
2.94675
2.87819
2.70225
2.26028
1.47545
0.635738
0.299307
0.363114
0.388361
0.359358
0.313431
0.272032
0.243174
0.219541
0.199667
0.19035
3
2.99996
2.99992
2.99973
2.99948
2.99843
2.99695
2.99104
2.98213
2.95022
2.8894
2.72452
2.3248
1.57041
0.688423
0.327398
0.388891
0.415162
0.387392
0.344694
0.306725
0.281613
0.262481
0.247385
0.240943
3
2.99997
2.99993
2.99976
2.99952
2.99855
2.99719
2.99177
2.98362
2.95417
2.89992
2.74613
2.39111
1.66757
0.749055
0.366457
0.421876
0.446433
0.420706
0.382167
0.347846
0.326672
0.312068
0.302322
0.301196
3
2.99997
2.99993
2.99978
2.99956
2.99869
2.99745
2.99252
2.98514
2.95825
2.90909
2.76897
2.44102
1.75933
0.806967
0.404571
0.448568
0.469507
0.45122
0.421084
0.393201
0.3776
0.369722
0.367957
0.376842
3
2.99998
2.99994
2.99981
2.99961
2.99884
2.99775
2.99337
2.98682
2.96343
2.91768
2.79586
2.4837
1.87398
0.890001
0.464348
0.470006
0.483238
0.478937
0.459335
0.440754
0.433039
0.434244
0.446897
0.480732
3
2.99998
2.99995
2.99984
2.99968
2.99904
2.9981
2.99469
2.98854
2.96987
2.92588
2.82204
2.52843
1.98194
1.00416
0.538264
0.486837
0.49998
0.50603
0.496674
0.489651
0.491988
0.509327
0.552079
0.652879
3
2.99996
2.9999
2.99967
2.99936
2.99809
2.99627
2.98929
2.97765
2.93985
2.85388
2.6546
2.1258
1.29604
0.537427
0.269035
0.326514
0.34416
0.311478
0.256599
0.203947
0.162095
0.121368
0.0756944
0.0409665
3
2.99996
2.9999
2.99968
2.99937
2.99812
2.99632
2.98942
2.97797
2.94064
2.85603
2.65915
2.13768
1.3112
0.545429
0.269769
0.328456
0.346817
0.314345
0.260251
0.208875
0.16849
0.129941
0.0895477
0.0644937
3
2.99996
2.9999
2.99969
2.99939
2.99817
2.99642
2.9897
2.97862
2.94226
2.86052
2.6687
2.1635
1.34519
0.564213
0.27385
0.334622
0.354712
0.323086
0.271068
0.222622
0.185667
0.151971
0.119898
0.103025
3
2.99996
2.99991
2.9997
2.99941
2.99823
2.99656
2.99004
2.97956
2.9444
2.8678
2.68318
2.2044
1.39946
0.594076
0.282552
0.345631
0.368293
0.337976
0.288832
0.243975
0.211172
0.182846
0.157684
0.145292
3
2.99996
2.99991
2.99971
2.99944
2.99831
2.99672
2.99037
2.98074
2.94675
2.87819
2.70225
2.26028
1.47545
0.635738
0.299307
0.363114
0.388361
0.359358
0.313431
0.272032
0.243174
0.219541
0.199667
0.19035
3
2.99996
2.99992
2.99973
2.99948
2.99843
2.99695
2.99104
2.98213
2.95022
2.8894
2.72452
2.3248
1.57041
0.688423
0.327398
0.388891
0.415162
0.387392
0.344694
0.306725
0.281613
0.262481
0.247385
0.240943
3
2.99997
2.99993
2.99976
2.99952
2.99855
2.99719
2.99177
2.98362
2.95417
2.89992
2.74613
2.39111
1.66757
0.749055
0.366457
0.421876
0.446433
0.420706
0.382167
0.347846
0.326672
0.312068
0.302322
0.301196
3
2.99997
2.99993
2.99978
2.99956
2.99869
2.99745
2.99252
2.98514
2.95825
2.90909
2.76897
2.44102
1.75933
0.806967
0.404571
0.448568
0.469507
0.45122
0.421084
0.393201
0.3776
0.369722
0.367957
0.376842
3
2.99998
2.99994
2.99981
2.99961
2.99884
2.99775
2.99337
2.98682
2.96343
2.91768
2.79586
2.4837
1.87398
0.890001
0.464348
0.470006
0.483238
0.478937
0.459335
0.440754
0.433039
0.434244
0.446897
0.480732
3
2.99998
2.99995
2.99984
2.99968
2.99904
2.9981
2.99469
2.98854
2.96987
2.92588
2.82204
2.52843
1.98194
1.00416
0.538264
0.486837
0.49998
0.50603
0.496674
0.489651
0.491988
0.509327
0.552079
0.652879
3
2.99996
2.9999
2.99967
2.99936
2.99809
2.99627
2.98929
2.97765
2.93985
2.85388
2.6546
2.1258
1.29604
0.537427
0.269035
0.326514
0.34416
0.311478
0.256599
0.203947
0.162095
0.121368
0.0756944
0.0409665
3
2.99996
2.9999
2.99968
2.99937
2.99812
2.99632
2.98942
2.97797
2.94064
2.85603
2.65915
2.13768
1.3112
0.545429
0.269769
0.328456
0.346817
0.314345
0.260251
0.208875
0.16849
0.129941
0.0895477
0.0644937
3
2.99996
2.9999
2.99969
2.99939
2.99817
2.99642
2.9897
2.97862
2.94226
2.86052
2.6687
2.1635
1.34519
0.564213
0.27385
0.334622
0.354712
0.323086
0.271068
0.222622
0.185667
0.151971
0.119898
0.103025
3
2.99996
2.99991
2.9997
2.99941
2.99823
2.99656
2.99004
2.97956
2.9444
2.8678
2.68318
2.2044
1.39946
0.594076
0.282552
0.345631
0.368293
0.337976
0.288832
0.243975
0.211172
0.182846
0.157684
0.145292
3
2.99996
2.99991
2.99971
2.99944
2.99831
2.99672
2.99037
2.98074
2.94675
2.87819
2.70225
2.26028
1.47545
0.635738
0.299307
0.363114
0.388361
0.359358
0.313431
0.272032
0.243174
0.219541
0.199667
0.19035
3
2.99996
2.99992
2.99973
2.99948
2.99843
2.99695
2.99104
2.98213
2.95022
2.8894
2.72452
2.3248
1.57041
0.688423
0.327398
0.388891
0.415162
0.387392
0.344694
0.306725
0.281613
0.262481
0.247385
0.240943
3
2.99997
2.99993
2.99976
2.99952
2.99855
2.99719
2.99177
2.98362
2.95417
2.89992
2.74613
2.39111
1.66757
0.749055
0.366457
0.421876
0.446433
0.420706
0.382167
0.347846
0.326672
0.312068
0.302322
0.301196
3
2.99997
2.99993
2.99978
2.99956
2.99869
2.99745
2.99252
2.98514
2.95825
2.90909
2.76897
2.44102
1.75933
0.806967
0.404571
0.448568
0.469507
0.45122
0.421084
0.393201
0.3776
0.369722
0.367957
0.376842
3
2.99998
2.99994
2.99981
2.99961
2.99884
2.99775
2.99337
2.98682
2.96343
2.91768
2.79586
2.4837
1.87398
0.890001
0.464348
0.470006
0.483238
0.478937
0.459335
0.440754
0.433039
0.434244
0.446897
0.480732
3
2.99998
2.99995
2.99984
2.99968
2.99904
2.9981
2.99469
2.98854
2.96987
2.92588
2.82204
2.52843
1.98194
1.00416
0.538264
0.486837
0.49998
0.50603
0.496674
0.489651
0.491988
0.509327
0.552079
0.652879
3
2.99996
2.9999
2.99967
2.99936
2.99809
2.99627
2.98929
2.97765
2.93985
2.85388
2.6546
2.1258
1.29604
0.537427
0.269035
0.326514
0.34416
0.311478
0.256599
0.203947
0.162095
0.121368
0.0756943
0.0409665
3
2.99996
2.9999
2.99968
2.99937
2.99812
2.99632
2.98942
2.97797
2.94064
2.85603
2.65915
2.13768
1.3112
0.545429
0.269769
0.328456
0.346817
0.314345
0.260251
0.208875
0.16849
0.129941
0.0895477
0.0644937
3
2.99996
2.9999
2.99969
2.99939
2.99817
2.99642
2.9897
2.97862
2.94226
2.86052
2.6687
2.1635
1.34519
0.564213
0.27385
0.334622
0.354712
0.323086
0.271068
0.222622
0.185667
0.151971
0.119898
0.103025
3
2.99996
2.99991
2.9997
2.99941
2.99823
2.99656
2.99004
2.97956
2.9444
2.8678
2.68318
2.2044
1.39946
0.594076
0.282552
0.345631
0.368293
0.337976
0.288832
0.243975
0.211173
0.182846
0.157684
0.145292
3
2.99996
2.99991
2.99971
2.99944
2.99831
2.99672
2.99037
2.98074
2.94675
2.87819
2.70225
2.26028
1.47545
0.635739
0.299307
0.363114
0.388361
0.359358
0.313431
0.272032
0.243174
0.219541
0.199667
0.19035
3
2.99996
2.99992
2.99973
2.99948
2.99843
2.99695
2.99104
2.98213
2.95022
2.8894
2.72452
2.3248
1.57041
0.688423
0.327398
0.388891
0.415162
0.387392
0.344694
0.306725
0.281613
0.262481
0.247385
0.240943
3
2.99997
2.99993
2.99976
2.99952
2.99855
2.99719
2.99177
2.98362
2.95417
2.89992
2.74613
2.39111
1.66757
0.749056
0.366457
0.421876
0.446433
0.420706
0.382167
0.347846
0.326672
0.312068
0.302322
0.301196
3
2.99997
2.99993
2.99978
2.99956
2.99869
2.99745
2.99252
2.98514
2.95825
2.90909
2.76897
2.44102
1.75933
0.806968
0.404571
0.448568
0.469507
0.45122
0.421084
0.393201
0.3776
0.369722
0.367957
0.376842
3
2.99998
2.99994
2.99981
2.99961
2.99884
2.99775
2.99337
2.98682
2.96343
2.91768
2.79586
2.4837
1.87398
0.890001
0.464348
0.470006
0.483238
0.478937
0.459335
0.440754
0.433039
0.434244
0.446897
0.480732
3
2.99998
2.99995
2.99984
2.99968
2.99904
2.9981
2.99469
2.98854
2.96987
2.92588
2.82204
2.52843
1.98194
1.00416
0.538264
0.486837
0.49998
0.50603
0.496674
0.489651
0.491988
0.509327
0.552079
0.652879
3
2.99996
2.9999
2.99967
2.99936
2.99809
2.99627
2.98929
2.97765
2.93985
2.85388
2.6546
2.12581
1.29604
0.537429
0.269034
0.326514
0.34416
0.311479
0.256599
0.203947
0.162095
0.121368
0.0756943
0.0409664
3
2.99996
2.9999
2.99968
2.99937
2.99812
2.99632
2.98942
2.97797
2.94064
2.85603
2.65915
2.13769
1.3112
0.545431
0.269768
0.328455
0.346817
0.314345
0.260251
0.208875
0.16849
0.129941
0.0895476
0.0644936
3
2.99996
2.9999
2.99969
2.99939
2.99817
2.99642
2.9897
2.97862
2.94226
2.86052
2.6687
2.16351
1.34519
0.564214
0.273849
0.334621
0.354712
0.323086
0.271068
0.222622
0.185667
0.15197
0.119898
0.103025
3
2.99996
2.99991
2.9997
2.99941
2.99823
2.99656
2.99004
2.97956
2.9444
2.8678
2.68318
2.2044
1.39946
0.594078
0.282551
0.345631
0.368293
0.337977
0.288832
0.243975
0.211172
0.182846
0.157684
0.145292
3
2.99996
2.99991
2.99971
2.99944
2.99831
2.99672
2.99037
2.98074
2.94675
2.87819
2.70226
2.26029
1.47546
0.635741
0.299307
0.363114
0.388361
0.359359
0.313431
0.272032
0.243174
0.219542
0.199667
0.19035
3
2.99996
2.99992
2.99973
2.99948
2.99843
2.99695
2.99104
2.98213
2.95022
2.8894
2.72452
2.3248
1.57042
0.688425
0.327398
0.388891
0.415163
0.387392
0.344694
0.306725
0.281614
0.262481
0.247385
0.240943
3
2.99997
2.99993
2.99976
2.99952
2.99855
2.99719
2.99177
2.98362
2.95417
2.89992
2.74613
2.39111
1.66757
0.749057
0.366457
0.421876
0.446433
0.420707
0.382167
0.347847
0.326672
0.312069
0.302322
0.301196
3
2.99997
2.99993
2.99978
2.99956
2.99869
2.99745
2.99252
2.98514
2.95825
2.90909
2.76897
2.44103
1.75933
0.80697
0.404572
0.448568
0.469506
0.451221
0.421084
0.393202
0.3776
0.369722
0.367957
0.376842
3
2.99998
2.99994
2.99981
2.99961
2.99884
2.99775
2.99337
2.98682
2.96343
2.91768
2.79586
2.4837
1.87399
0.890003
0.464349
0.470005
0.483238
0.478937
0.459335
0.440754
0.433039
0.434244
0.446897
0.480732
3
2.99998
2.99995
2.99984
2.99968
2.99904
2.9981
2.99469
2.98854
2.96987
2.92588
2.82204
2.52843
1.98194
1.00416
0.538265
0.486837
0.49998
0.50603
0.496674
0.489652
0.491988
0.509327
0.55208
0.652879
3.00002
2.99997
2.99992
2.99969
2.99938
2.99811
2.99629
2.98931
2.97767
2.93989
2.85392
2.65467
2.12589
1.29618
0.537566
0.26925
0.326707
0.34435
0.311691
0.256857
0.204275
0.162511
0.12193
0.0766037
0.0426464
3.00002
2.99997
2.99992
2.9997
2.99939
2.99814
2.99634
2.98945
2.97799
2.94067
2.85607
2.65922
2.13776
1.31134
0.545565
0.269984
0.328647
0.347006
0.314556
0.260504
0.209193
0.168886
0.13046
0.0903083
0.0655589
3.00002
2.99997
2.99992
2.99971
2.99941
2.99819
2.99644
2.98973
2.97864
2.94229
2.86056
2.66876
2.16358
1.34532
0.564347
0.274068
0.334813
0.354899
0.323293
0.271313
0.222919
0.186025
0.152411
0.120461
0.103686
3.00002
2.99998
2.99993
2.99972
2.99943
2.99825
2.99658
2.99006
2.97959
2.94444
2.86782
2.68324
2.20442
1.39956
0.594178
0.282741
0.3458
0.368458
0.33816
0.28905
0.244238
0.211482
0.183207
0.158107
0.145756
3.00002
2.99998
2.99993
2.99973
2.99946
2.99833
2.99674
2.99039
2.98076
2.94679
2.8782
2.70231
2.26031
1.47556
0.635834
0.299487
0.36327
0.388509
0.359521
0.313622
0.272259
0.243435
0.219836
0.199996
0.190699
3.00002
2.99998
2.99994
2.99975
2.99949
2.99845
2.99697
2.99106
2.98215
2.95025
2.88943
2.72458
2.32485
1.57052
0.68852
0.327576
0.389041
0.4153
0.38754
0.344862
0.306919
0.281831
0.262721
0.247644
0.241214
3.00002
2.99999
2.99994
2.99977
2.99954
2.99857
2.99721
2.99179
2.98365
2.9542
2.89995
2.74618
2.39115
1.66765
0.749146
0.366621
0.422012
0.446557
0.420839
0.382314
0.348013
0.326854
0.312264
0.302528
0.301407
3.00002
2.99999
2.99995
2.9998
2.99958
2.99871
2.99747
2.99254
2.98516
2.95828
2.90912
2.76901
2.44106
1.75941
0.807063
0.40473
0.448695
0.469622
0.451342
0.421215
0.393344
0.377751
0.36988
0.36812
0.377004
3.00002
2.99999
2.99996
2.99982
2.99963
2.99886
2.99777
2.99339
2.98684
2.96346
2.91769
2.79591
2.4837
1.87407
0.89008
0.464484
0.470117
0.483348
0.479049
0.459452
0.440878
0.433166
0.434372
0.447024
0.480851
3.00002
3
2.99997
2.99986
2.9997
2.99906
2.99812
2.99471
2.98856
2.9699
2.92591
2.82208
2.52846
1.98202
1.00424
0.538388
0.486945
0.500084
0.506134
0.496781
0.489759
0.492095
0.50943
0.552175
0.652958
3.00002
3.00001
2.99996
2.9999
2.99966
2.9993
2.99792
2.99582
2.98831
2.97458
2.93337
2.83428
2.61527
2.03988
1.18535
0.62896
0.510775
0.523699
0.535952
0.535198
0.537552
0.552549
0.592062
0.677249
0.856667
3.00002
3.00001
2.99997
2.99992
2.9997
2.9994
2.99817
2.99641
2.98967
2.97848
2.94204
2.85979
2.66786
2.16378
1.35608
0.722491
0.536052
0.550586
0.568081
0.575287
0.586034
0.613648
0.671112
0.776981
0.966996
3.00002
3.00001
2.99998
2.99993
2.99974
2.99948
2.99841
2.99691
2.99087
2.9818
2.94932
2.8866
2.7201
2.31071
1.5617
0.832766
0.576208
0.587968
0.60431
0.616938
0.633697
0.669245
0.735135
0.840376
1.00452
3.00002
3.00001
2.99999
2.99995
2.99979
2.99958
2.99869
2.99744
2.99247
2.98507
2.95804
2.90976
2.76792
2.45742
1.78012
0.95599
0.636109
0.635893
0.648115
0.663711
0.683298
0.721201
0.785486
0.879933
1.01758
3.00002
3.00002
2.99999
2.99996
2.99984
2.99967
2.99897
2.99797
2.99408
2.98802
2.96726
2.92549
2.81611
2.53832
1.97623
1.0839
0.70542
0.674845
0.687689
0.704698
0.727482
0.765014
0.827773
0.910776
1.02614
3.00002
3.00002
3.00001
2.99997
2.99991
2.99968
2.99935
2.99806
2.99609
2.98921
2.97637
2.93883
2.84733
2.64677
2.10869
1.30253
0.811977
0.710164
0.721264
0.7395
0.765946
0.80216
0.858815
0.935956
1.03411
3.00002
3.00002
3.00001
2.99998
2.99993
2.99974
2.99947
2.99837
2.99682
2.99064
2.98136
2.94851
2.88325
2.71543
2.29748
1.55449
0.935358
0.74841
0.751094
0.770124
0.801525
0.837604
0.887066
0.955444
1.04117
3.00002
3.00002
3.00001
2.99999
2.99995
2.99981
2.99959
2.99876
2.99756
2.99289
2.98575
2.96042
2.91414
2.7804
2.48856
1.83756
1.09526
0.812425
0.793302
0.806233
0.833454
0.870705
0.916456
0.976041
1.05031
3.00002
3.00002
3.00002
3
2.99996
2.99989
2.99963
2.99926
2.99781
2.99563
2.98775
2.97404
2.93167
2.83391
2.61676
2.06736
1.27779
0.888786
0.833312
0.844188
0.866823
0.900648
0.942004
0.994418
1.05937
3.00003
3.00002
3.00002
3.00001
2.99998
2.99993
2.99973
2.99945
2.99834
2.99671
2.99062
2.98053
2.94782
2.87556
2.70408
2.26626
1.52061
1.00663
0.87322
0.875248
0.895945
0.929232
0.968545
1.01441
1.07055
3.00003
3.00003
3.00002
3.00001
3
2.99994
2.99985
2.99952
2.99904
2.99722
2.99434
2.98465
2.96544
2.91303
2.78042
2.508
1.85943
1.19258
0.938942
0.91582
0.92737
0.955327
0.993026
1.03496
1.08326
3.00003
3.00003
3.00002
3.00002
3.00001
2.99996
2.9999
2.99965
2.9993
2.99792
2.9959
2.98841
2.97572
2.93592
2.84537
2.64313
2.1247
1.38112
1.01652
0.955103
0.962426
0.984609
1.01817
1.0568
1.10018
3.00003
3.00003
3.00003
3.00002
3.00001
2.99999
2.99992
2.99982
2.99942
2.99883
2.9967
2.99301
2.98153
2.95609
2.89266
2.72386
2.39107
1.64572
1.15559
1.00322
0.996409
1.00994
1.03837
1.07555
1.11566
3.00003
3.00003
3.00003
3.00002
3.00001
3
2.99995
2.99987
2.99958
2.99915
2.99748
2.99508
2.98586
2.97127
2.92355
2.82351
2.5812
2.04861
1.34597
1.07914
1.03938
1.04435
1.06462
1.09665
1.13355
3.00003
3.00003
3.00003
3.00002
3.00002
3.00001
2.99998
2.9999
2.99978
2.99931
2.99862
2.99601
2.99195
2.97816
2.95147
2.87848
2.69837
2.32682
1.59476
1.1894
1.07954
1.07495
1.08724
1.11411
1.15001
3.00003
3.00003
3.00003
3.00003
3.00002
3.00001
3
2.99994
2.99986
2.99953
2.99907
2.99726
2.99463
2.98483
2.96883
2.91845
2.80887
2.55884
2.00168
1.37711
1.14443
1.11354
1.11752
1.13727
1.16724
3.00003
3.00003
3.00003
3.00003
3.00002
3.00002
3
2.99998
2.99989
2.99976
2.99925
2.9985
2.9957
2.99137
2.97632
2.94892
2.87199
2.69194
2.29656
1.59728
1.23707
1.14994
1.14618
1.15816
1.18257
3.00003
3.00003
3.00003
3.00003
3.00003
3.00002
3.00001
3
2.99994
2.99985
2.99952
2.99904
2.99718
2.99447
2.98457
2.96792
2.91681
2.80112
2.55387
1.9725
1.41603
1.20834
1.18055
1.18449
1.20354
3.00003
3.00003
3.00003
3.00003
3.00003
3.00002
3.00002
3
2.99998
2.99989
2.99975
2.99925
2.99848
2.99569
2.99125
2.9763
2.94861
2.87094
2.69823
2.28854
1.64459
1.30702
1.22107
1.21385
1.22327
3.00003
3.00003
3.00003
3.00003
3.00003
3.00003
3.00002
3.00002
2.99999
2.99995
2.99982
2.99961
2.99884
2.9977
2.99351
2.98686
2.96478
2.92304
2.81013
2.56125
2.01223
1.4728
1.27708
1.24757
1.25006
3.00003
3.00003
3.00003
3.00003
3.00003
3.00003
3.00002
3.00002
3
2.99998
2.99989
2.99976
2.99927
2.99855
2.99583
2.99176
2.9773
2.95222
2.87955
2.71922
2.35241
1.71751
1.37632
1.28613
1.27732
3.00003
3.00003
3.00003
3.00003
3.00003
3.00003
3.00003
3.00002
3.00002
2.99999
2.99996
2.99983
2.99964
2.99894
2.99789
2.99408
2.988
2.96804
2.9308
2.8277
2.61113
2.10047
1.55809
1.34431
1.31106
3.00003
3.00003
3.00003
3.00003
3.00003
3.00003
3.00003
3.00003
3.00002
3.00001
2.99999
2.9999
2.99979
2.99934
2.9987
2.99623
2.99266
2.97948
2.95807
2.89221
2.75295
2.43218
1.81769
1.45226
1.34659
3.00003
3.00003
3.00003
3.00003
3.00003
3.00003
3.00003
3.00003
3.00002
3.00002
3
2.99995
2.99988
2.99961
2.99923
2.99775
2.99562
2.98773
2.97532
2.93518
2.85664
2.66051
2.23188
1.65727
1.41956
3.00003
3.00003
3.00003
3.00003
3.00003
3.00003
3.00003
3.00003
3.00003
3.00002
3.00001
2.99998
2.99994
2.99978
2.99955
2.99866
2.99737
2.99257
2.98524
2.96028
2.91384
2.79226
2.50827
1.95515
1.5535
3.00003
3.00003
3.00003
3.00003
3.00003
3.00003
3.00003
3.00003
3.00003
3.00003
3.00002
3.00001
2.99997
2.99991
2.99969
2.99937
2.9982
2.99642
2.99022
2.97968
2.9477
2.87797
2.72173
2.33737
1.77248
3.00003
3.00003
3.00003
3.00003
3.00003
3.00003
3.00003
3.00003
3.00003
3.00003
3.00002
3.00001
3
2.99995
2.99987
2.99958
2.99914
2.99758
2.99514
2.98701
2.97245
2.93082
2.83746
2.63494
2.17951
3.00003
3.00003
3.00003
3.00003
3.00003
3.00003
3.00003
3.00003
3.00003
3.00003
3.00003
3.00002
3.00001
2.99999
2.99991
2.99981
2.99941
2.99881
2.99664
2.9933
2.98169
2.96242
2.90191
2.78351
2.48081
3.00003
3.00003
3.00003
3.00003
3.00003
3.00003
3.00003
3.00003
3.00003
3.00003
3.00003
3.00002
3.00002
3.00001
2.99996
2.9999
2.99967
2.99933
2.99807
2.99623
2.98948
2.979
2.94474
2.87905
2.71478
3.00003
3.00003
3.00003
3.00003
3.00003
3.00003
3.00003
3.00003
3.00003
3.00003
3.00003
3.00003
3.00002
3.00001
3
2.99994
2.99986
2.99957
2.99913
2.99756
2.99513
2.98695
2.97276
2.9315
2.84141
3.00003
3.00003
3.00003
3.00003
3.00003
3.00003
3.00003
3.00003
3.00003
3.00003
3.00003
3.00003
3.00003
3.00002
3.00001
2.99999
2.99992
2.99981
2.99942
2.99884
2.99678
2.99349
2.98276
2.96336
2.90904
3.00003
3.00003
3.00003
3.00003
3.00003
3.00003
3.00003
3.00003
3.00003
3.00003
3.00003
3.00003
3.00003
3.00002
3.00002
3
2.99998
2.99988
2.99975
2.99925
2.99849
2.99585
2.99159
2.9779
2.95317
3.00003
3.00003
3.00003
3.00003
3.00003
3.00003
3.00003
3.00003
3.00003
3.00003
3.00003
3.00003
3.00003
3.00003
3.00002
3.00001
3
2.99995
2.99988
2.9996
2.9992
2.99776
2.99557
2.98809
2.97563
3.00003
3.00003
3.00003
3.00003
3.00003
3.00003
3.00003
3.00003
3.00003
3.00003
3.00003
3.00003
3.00003
3.00003
3.00003
3.00002
3.00001
2.99999
2.99993
2.99984
2.9995
2.99899
2.99721
2.99441
2.98518
3.00003
3.00003
3.00003
3.00003
3.00003
3.00003
3.00003
3.00003
3.00003
3.00003
3.00003
3.00003
3.00003
3.00003
3.00003
3.00002
3.00002
3.00001
2.99998
2.9999
2.99978
2.99936
2.9987
2.99646
2.99283
3.00003
3.00003
3.00003
3.00003
3.00003
3.00003
3.00003
3.00003
3.00003
3.00003
3.00003
3.00003
3.00003
3.00003
3.00003
3.00003
3.00002
3.00002
3
2.99997
2.99987
2.99971
2.99916
2.99831
2.9954
3.00003
3.00003
3.00003
3.00003
3.00003
3.00003
3.00003
3.00003
3.00003
3.00003
3.00003
3.00003
3.00003
3.00003
3.00003
3.00003
3.00003
3.00002
3.00001
2.99999
2.99994
2.99979
2.99956
2.99872
2.99747
3.00003
3.00003
3.00003
3.00003
3.00003
3.00003
3.00003
3.00003
3.00003
3.00003
3.00003
3.00003
3.00003
3.00003
3.00003
3.00003
3.00003
3.00002
3.00002
3
2.99997
2.99985
2.99967
2.999
2.99801
3.00003
3.00003
3.00003
3.00003
3.00003
3.00003
3.00003
3.00003
3.00003
3.00003
3.00003
3.00003
3.00003
3.00003
3.00003
3.00003
3.00003
3.00003
3.00002
3.00001
2.99996
2.9999
2.99964
2.99927
2.9978
3.00003
3.00003
3.00003
3.00003
3.00003
3.00003
3.00003
3.00003
3.00003
3.00003
3.00003
3.00003
3.00003
3.00003
3.00003
3.00003
3.00003
3.00003
3.00002
3.00001
2.99996
2.9999
2.99965
2.9993
2.99783
3
2.99999
2.99994
2.99988
2.99964
2.99928
2.9979
2.9958
2.98828
2.97456
2.93334
2.83425
2.61521
2.03983
1.18526
0.628852
0.51067
0.523599
0.535854
0.535101
0.537456
0.552457
0.591978
0.67718
0.856622
3
2.99999
2.99995
2.9999
2.99968
2.99938
2.99815
2.99639
2.98964
2.97846
2.94201
2.85976
2.6678
2.16373
1.35598
0.722393
0.535949
0.550486
0.567987
0.575197
0.585949
0.613569
0.671042
0.776924
0.966959
3
2.99999
2.99996
2.99991
2.99973
2.99946
2.99839
2.99688
2.99085
2.98178
2.94929
2.88657
2.72004
2.31067
1.5616
0.832686
0.57611
0.587872
0.604221
0.616853
0.633618
0.669174
0.735075
0.840327
1.00449
3
3
2.99997
2.99993
2.99977
2.99956
2.99867
2.99742
2.99245
2.98505
2.95802
2.90973
2.76788
2.45738
1.78005
0.955921
0.636018
0.635807
0.648034
0.663636
0.683226
0.721135
0.785429
0.879886
1.01754
3
3
2.99998
2.99994
2.99982