/*--------------------------------*- C++ -*----------------------------------*\
| =========                 |                                                 |
| \\      /  F ield         | OpenFOAM: The Open Source CFD Toolbox           |
|  \\    /   O peration     | Version:  4.1                                   |
|   \\  /    A nd           | Web:      www.OpenFOAM.org                      |
|    \\/     M anipulation  |                                                 |
\*---------------------------------------------------------------------------*/
FoamFile
{
    version     2.0;
    format      ascii;
    class       volScalarField;
    location    "3";
    object      p;
}
// * * * * * * * * * * * * * * * * * * * * * * * * * * * * * * * * * * * * * //

dimensions      [1 -1 -2 0 0 0 0];

internalField   nonuniform List<scalar> 
52500
(
1.00001
1.00003
1.0001
1.00022
1.00063
1.00128
1.00368
1.00725
1.02238
1.03998
1.14554
1.25532
1.9865
3.2975
7.91802
11.6419
11.2338
10.9731
11.0526
11.2816
11.5194
11.6664
11.776
11.8614
11.9276
1.00001
1.00003
1.0001
1.00021
1.00062
1.00127
1.00364
1.00716
1.02206
1.03945
1.1434
1.25153
1.96983
3.25881
7.8123
11.651
11.2308
10.9622
11.043
11.2732
11.5108
11.6579
11.7691
11.856
11.9237
1.00001
1.00003
1.0001
1.00021
1.0006
1.00123
1.00354
1.00697
1.02141
1.03838
1.13895
1.24373
1.93438
3.17559
7.57568
11.669
11.2213
10.9305
11.0105
11.239
11.4742
11.6188
11.7293
11.8156
11.8834
1.00001
1.00003
1.00009
1.0002
1.00058
1.00119
1.0034
1.00674
1.02042
1.03717
1.13159
1.23307
1.87976
3.05039
7.20929
11.6961
11.2092
10.8792
10.9555
11.1782
11.4094
11.5491
11.656
11.7399
11.8089
1.00001
1.00002
1.00009
1.00019
1.00055
1.00114
1.00323
1.00651
1.0191
1.03628
1.1208
1.22102
1.80742
2.8893
6.72196
11.7176
11.1945
10.8109
10.8803
11.0923
11.3185
11.4517
11.553
11.6333
11.7035
1
1.00002
1.00008
1.00018
1.00052
1.00106
1.00301
1.00607
1.01761
1.03441
1.10933
1.20577
1.72658
2.70349
6.13756
11.6948
11.1652
10.7274
10.7863
10.9801
11.1975
11.3198
11.4105
11.4831
11.5551
1
1.00002
1.00007
1.00016
1.00047
1.00097
1.00276
1.00559
1.01612
1.03176
1.09861
1.19011
1.64688
2.51832
5.55525
11.535
11.0844
10.6256
10.6721
10.8389
11.0402
11.1459
11.2189
11.2739
11.3397
1
1.00002
1.00007
1.00015
1.00043
1.00088
1.00251
1.00507
1.01463
1.02883
1.08949
1.17151
1.58441
2.36626
5.13266
11.0986
10.8899
10.5123
10.5399
10.6634
10.8383
10.918
10.9597
10.9789
11.0186
1
1.00002
1.00006
1.00013
1.00038
1.00078
1.00222
1.00448
1.01304
1.02497
1.08151
1.14731
1.52956
2.20742
4.71641
10.4042
10.6091
10.4384
10.3993
10.4614
10.5898
10.6293
10.6183
10.5617
10.5028
1
1.00001
1.00005
1.00011
1.00032
1.00065
1.00188
1.00364
1.01145
1.01989
1.07343
1.12263
1.4772
2.03978
4.2904
9.54152
10.4561
10.3415
10.2241
10.2457
10.2977
10.279
10.1859
9.9608
9.59947
1.00001
1.00003
1.0001
1.00022
1.00063
1.00129
1.00369
1.00726
1.02239
1.04
1.14556
1.25538
1.98658
3.29778
7.91863
11.6418
11.2338
10.9731
11.0527
11.2817
11.5194
11.6664
11.7761
11.8615
11.9277
1.00001
1.00003
1.0001
1.00022
1.00062
1.00128
1.00364
1.00717
1.02207
1.03947
1.14342
1.25159
1.96991
3.25909
7.8129
11.6509
11.2309
10.9623
11.0431
11.2732
11.5109
11.6579
11.7691
11.8561
11.9238
1.00001
1.00003
1.0001
1.00021
1.00061
1.00124
1.00354
1.00698
1.02142
1.0384
1.13897
1.24379
1.93446
3.17586
7.57627
11.6689
11.2213
10.9306
11.0106
11.2391
11.4742
11.6188
11.7294
11.8156
11.8835
1.00001
1.00003
1.0001
1.00021
1.00059
1.0012
1.00341
1.00675
1.02043
1.0372
1.13159
1.23315
1.87977
3.05061
7.2098
11.6961
11.2092
10.8793
10.9556
11.1783
11.4094
11.5492
11.6561
11.74
11.809
1.00001
1.00003
1.00009
1.0002
1.00056
1.00115
1.00324
1.00652
1.01911
1.0363
1.1208
1.22109
1.80744
2.88949
6.72239
11.7176
11.1946
10.811
10.8804
11.0924
11.3185
11.4518
11.5531
11.6333
11.7036
1.00001
1.00003
1.00008
1.00018
1.00052
1.00107
1.00302
1.00608
1.01762
1.03443
1.10934
1.20582
1.72662
2.70367
6.13796
11.6948
11.1653
10.7275
10.7864
10.9802
11.1975
11.3198
11.4105
11.4831
11.5552
1.00001
1.00002
1.00008
1.00017
1.00048
1.00098
1.00277
1.0056
1.01613
1.03177
1.09862
1.19014
1.64692
2.51845
5.55549
11.5352
11.0845
10.6256
10.6722
10.8389
11.0403
11.146
11.2189
11.274
11.3398
1
1.00002
1.00007
1.00015
1.00043
1.00089
1.00251
1.00508
1.01464
1.02885
1.08951
1.17155
1.58444
2.36638
5.13288
11.0989
10.8901
10.5124
10.5399
10.6634
10.8383
10.918
10.9597
10.979
11.0187
1
1.00002
1.00006
1.00014
1.00038
1.00079
1.00223
1.00449
1.01305
1.025
1.08151
1.14737
1.52956
2.20754
4.71658
10.4046
10.6091
10.4385
10.3993
10.4614
10.5898
10.6294
10.6183
10.5618
10.5028
1
1.00002
1.00005
1.00011
1.00032
1.00066
1.00188
1.00365
1.01146
1.01991
1.07345
1.12267
1.47721
2.0399
4.29054
9.54191
10.4561
10.3415
10.2242
10.2457
10.2977
10.279
10.1859
9.96086
9.59953
1.00001
1.00003
1.0001
1.00022
1.00063
1.00129
1.00369
1.00726
1.02239
1.04
1.14556
1.25538
1.98659
3.2978
7.91866
11.6418
11.2338
10.9731
11.0527
11.2817
11.5194
11.6664
11.7761
11.8615
11.9277
1.00001
1.00003
1.0001
1.00022
1.00062
1.00128
1.00364
1.00717
1.02207
1.03947
1.14343
1.25159
1.96992
3.2591
7.81293
11.6509
11.2309
10.9623
11.0431
11.2732
11.5109
11.6579
11.7691
11.8561
11.9238
1.00001
1.00003
1.0001
1.00021
1.00061
1.00124
1.00354
1.00698
1.02142
1.0384
1.13898
1.24379
1.93446
3.17587
7.5763
11.6689
11.2213
10.9306
11.0106
11.2391
11.4742
11.6188
11.7294
11.8156
11.8835
1.00001
1.00003
1.0001
1.00021
1.00059
1.0012
1.00341
1.00675
1.02043
1.0372
1.13159
1.23315
1.87978
3.05063
7.20983
11.6961
11.2092
10.8793
10.9556
11.1783
11.4094
11.5492
11.6561
11.74
11.809
1.00001
1.00003
1.00009
1.0002
1.00056
1.00115
1.00324
1.00652
1.01911
1.0363
1.1208
1.22109
1.80744
2.8895
6.72242
11.7176
11.1946
10.811
10.8804
11.0924
11.3185
11.4518
11.5531
11.6333
11.7036
1.00001
1.00003
1.00008
1.00018
1.00052
1.00107
1.00302
1.00608
1.01762
1.03443
1.10934
1.20582
1.72662
2.70368
6.138
11.6948
11.1653
10.7275
10.7864
10.9802
11.1975
11.3198
11.4105
11.4831
11.5552
1.00001
1.00002
1.00008
1.00017
1.00048
1.00098
1.00277
1.0056
1.01613
1.03177
1.09862
1.19015
1.64692
2.51846
5.55551
11.5352
11.0845
10.6256
10.6722
10.8389
11.0403
11.146
11.2189
11.274
11.3398
1
1.00002
1.00007
1.00015
1.00043
1.00089
1.00251
1.00508
1.01464
1.02885
1.08951
1.17155
1.58444
2.36639
5.13289
11.099
10.8901
10.5124
10.5399
10.6634
10.8383
10.918
10.9597
10.979
11.0187
1
1.00002
1.00006
1.00014
1.00038
1.00079
1.00223
1.00449
1.01305
1.025
1.08151
1.14737
1.52956
2.20754
4.71659
10.4046
10.6091
10.4385
10.3993
10.4614
10.5899
10.6294
10.6183
10.5618
10.5028
1
1.00002
1.00005
1.00011
1.00032
1.00066
1.00188
1.00365
1.01146
1.01991
1.07345
1.12267
1.47721
2.03991
4.29055
9.54193
10.4561
10.3415
10.2242
10.2457
10.2978
10.279
10.1859
9.96086
9.59953
1.00001
1.00003
1.0001
1.00022
1.00063
1.00129
1.00369
1.00726
1.02239
1.04
1.14556
1.25538
1.98659
3.2978
7.91866
11.6418
11.2338
10.9731
11.0527
11.2817
11.5194
11.6664
11.7761
11.8615
11.9277
1.00001
1.00003
1.0001
1.00022
1.00062
1.00128
1.00364
1.00717
1.02207
1.03947
1.14343
1.25159
1.96992
3.2591
7.81293
11.6509
11.2309
10.9623
11.0431
11.2732
11.5109
11.6579
11.7691
11.8561
11.9238
1.00001
1.00003
1.0001
1.00021
1.00061
1.00124
1.00354
1.00698
1.02142
1.0384
1.13898
1.24379
1.93446
3.17587
7.5763
11.6689
11.2213
10.9306
11.0106
11.2391
11.4742
11.6188
11.7294
11.8156
11.8835
1.00001
1.00003
1.0001
1.00021
1.00059
1.0012
1.00341
1.00675
1.02043
1.0372
1.13159
1.23315
1.87978
3.05063
7.20983
11.6961
11.2092
10.8793
10.9556
11.1783
11.4094
11.5492
11.6561
11.74
11.809
1.00001
1.00003
1.00009
1.0002
1.00056
1.00115
1.00324
1.00652
1.01911
1.0363
1.1208
1.22109
1.80744
2.8895
6.72243
11.7176
11.1946
10.811
10.8804
11.0924
11.3185
11.4518
11.5531
11.6333
11.7036
1.00001
1.00003
1.00008
1.00018
1.00052
1.00107
1.00302
1.00608
1.01762
1.03443
1.10934
1.20582
1.72662
2.70368
6.138
11.6948
11.1653
10.7275
10.7864
10.9802
11.1975
11.3198
11.4105
11.4831
11.5552
1.00001
1.00002
1.00008
1.00017
1.00048
1.00098
1.00277
1.0056
1.01613
1.03177
1.09862
1.19015
1.64692
2.51846
5.55551
11.5352
11.0845
10.6256
10.6722
10.8389
11.0403
11.146
11.2189
11.274
11.3398
1
1.00002
1.00007
1.00015
1.00043
1.00089
1.00251
1.00508
1.01464
1.02885
1.08951
1.17155
1.58444
2.36639
5.1329
11.099
10.8901
10.5124
10.5399
10.6634
10.8383
10.918
10.9597
10.979
11.0187
1
1.00002
1.00006
1.00014
1.00038
1.00079
1.00223
1.00449
1.01305
1.025
1.08151
1.14737
1.52956
2.20754
4.71659
10.4046
10.6091
10.4385
10.3993
10.4614
10.5899
10.6294
10.6183
10.5618
10.5028
1
1.00002
1.00005
1.00011
1.00032
1.00066
1.00188
1.00365
1.01146
1.01991
1.07345
1.12267
1.47721
2.03991
4.29055
9.54193
10.4561
10.3415
10.2242
10.2457
10.2978
10.279
10.1859
9.96086
9.59953
1.00001
1.00003
1.0001
1.00022
1.00063
1.00129
1.00369
1.00726
1.02239
1.04
1.14556
1.25538
1.98659
3.2978
7.91867
11.6418
11.2338
10.9731
11.0527
11.2817
11.5194
11.6664
11.7761
11.8615
11.9277
1.00001
1.00003
1.0001
1.00022
1.00062
1.00128
1.00364
1.00717
1.02207
1.03947
1.14343
1.25159
1.96992
3.2591
7.81293
11.6509
11.2309
10.9623
11.0431
11.2732
11.5109
11.6579
11.7691
11.8561
11.9238
1.00001
1.00003
1.0001
1.00021
1.00061
1.00124
1.00354
1.00698
1.02142
1.0384
1.13898
1.24379
1.93446
3.17587
7.5763
11.6689
11.2213
10.9306
11.0106
11.2391
11.4742
11.6188
11.7294
11.8156
11.8835
1.00001
1.00003
1.0001
1.00021
1.00059
1.0012
1.00341
1.00675
1.02043
1.0372
1.13159
1.23315
1.87978
3.05063
7.20983
11.6961
11.2092
10.8793
10.9556
11.1783
11.4094
11.5492
11.6561
11.74
11.809
1.00001
1.00003
1.00009
1.0002
1.00056
1.00115
1.00324
1.00652
1.01911
1.0363
1.1208
1.22109
1.80744
2.88951
6.72243
11.7176
11.1946
10.811
10.8804
11.0924
11.3185
11.4518
11.5531
11.6333
11.7036
1.00001
1.00003
1.00008
1.00018
1.00052
1.00107
1.00302
1.00608
1.01762
1.03443
1.10934
1.20582
1.72662
2.70368
6.138
11.6948
11.1653
10.7275
10.7864
10.9802
11.1975
11.3198
11.4105
11.4831
11.5552
1.00001
1.00002
1.00008
1.00017
1.00048
1.00098
1.00277
1.0056
1.01613
1.03177
1.09862
1.19015
1.64692
2.51846
5.55551
11.5352
11.0845
10.6256
10.6722
10.8389
11.0403
11.146
11.2189
11.274
11.3398
1
1.00002
1.00007
1.00015
1.00043
1.00089
1.00251
1.00508
1.01464
1.02885
1.08951
1.17155
1.58444
2.36639
5.1329
11.099
10.8901
10.5124
10.5399
10.6634
10.8383
10.918
10.9597
10.979
11.0187
1
1.00002
1.00006
1.00014
1.00038
1.00079
1.00223
1.00449
1.01305
1.025
1.08151
1.14737
1.52956
2.20754
4.71659
10.4046
10.6091
10.4385
10.3993
10.4614
10.5899
10.6294
10.6183
10.5618
10.5028
1
1.00002
1.00005
1.00011
1.00032
1.00066
1.00188
1.00365
1.01146
1.01991
1.07345
1.12267
1.47721
2.03991
4.29055
9.54193
10.4561
10.3415
10.2242
10.2457
10.2978
10.279
10.1859
9.96086
9.59953
1.00001
1.00003
1.0001
1.00022
1.00063
1.00129
1.00369
1.00726
1.02239
1.04
1.14556
1.25538
1.98659
3.2978
7.91866
11.6418
11.2338
10.9731
11.0527
11.2817
11.5194
11.6664
11.7761
11.8615
11.9277
1.00001
1.00003
1.0001
1.00022
1.00062
1.00128
1.00364
1.00717
1.02207
1.03947
1.14343
1.25159
1.96992
3.2591
7.81293
11.6509
11.2309
10.9623
11.0431
11.2732
11.5109
11.6579
11.7691
11.8561
11.9238
1.00001
1.00003
1.0001
1.00021
1.00061
1.00124
1.00354
1.00698
1.02142
1.0384
1.13898
1.24379
1.93446
3.17587
7.5763
11.6689
11.2213
10.9306
11.0106
11.2391
11.4742
11.6188
11.7294
11.8156
11.8835
1.00001
1.00003
1.0001
1.00021
1.00059
1.0012
1.00341
1.00675
1.02043
1.0372
1.13159
1.23315
1.87978
3.05063
7.20983
11.6961
11.2092
10.8793
10.9556
11.1783
11.4094
11.5492
11.6561
11.74
11.809
1.00001
1.00003
1.00009
1.0002
1.00056
1.00115
1.00324
1.00652
1.01911
1.0363
1.1208
1.22109
1.80744
2.8895
6.72243
11.7176
11.1946
10.811
10.8804
11.0924
11.3185
11.4518
11.5531
11.6333
11.7036
1.00001
1.00003
1.00008
1.00018
1.00052
1.00107
1.00302
1.00608
1.01762
1.03443
1.10934
1.20582
1.72662
2.70368
6.138
11.6948
11.1653
10.7275
10.7864
10.9802
11.1975
11.3198
11.4105
11.4831
11.5552
1.00001
1.00002
1.00008
1.00017
1.00048
1.00098
1.00277
1.0056
1.01613
1.03177
1.09862
1.19015
1.64692
2.51846
5.55551
11.5352
11.0845
10.6256
10.6722
10.8389
11.0403
11.146
11.2189
11.274
11.3398
1
1.00002
1.00007
1.00015
1.00043
1.00089
1.00251
1.00508
1.01464
1.02885
1.08951
1.17155
1.58444
2.36639
5.1329
11.099
10.8901
10.5124
10.5399
10.6634
10.8383
10.918
10.9597
10.979
11.0187
1
1.00002
1.00006
1.00014
1.00038
1.00079
1.00223
1.00449
1.01305
1.025
1.08151
1.14737
1.52956
2.20754
4.71659
10.4046
10.6091
10.4385
10.3993
10.4614
10.5899
10.6294
10.6183
10.5618
10.5028
1
1.00002
1.00005
1.00011
1.00032
1.00066
1.00188
1.00365
1.01146
1.01991
1.07345
1.12267
1.47721
2.03991
4.29055
9.54193
10.4561
10.3415
10.2242
10.2457
10.2978
10.279
10.1859
9.96086
9.59953
1.00001
1.00003
1.0001
1.00022
1.00063
1.00129
1.00369
1.00726
1.02239
1.04
1.14556
1.25538
1.98659
3.2978
7.91866
11.6418
11.2338
10.9731
11.0527
11.2817
11.5194
11.6664
11.7761
11.8615
11.9277
1.00001
1.00003
1.0001
1.00022
1.00062
1.00128
1.00364
1.00717
1.02207
1.03947
1.14343
1.25159
1.96992
3.2591
7.81293
11.6509
11.2309
10.9623
11.0431
11.2732
11.5109
11.6579
11.7691
11.8561
11.9238
1.00001
1.00003
1.0001
1.00021
1.00061
1.00124
1.00354
1.00698
1.02142
1.0384
1.13898
1.24379
1.93446
3.17587
7.5763
11.6689
11.2213
10.9306
11.0106
11.2391
11.4742
11.6188
11.7294
11.8156
11.8835
1.00001
1.00003
1.0001
1.00021
1.00059
1.0012
1.00341
1.00675
1.02043
1.0372
1.13159
1.23315
1.87978
3.05063
7.20983
11.6961
11.2092
10.8793
10.9556
11.1783
11.4094
11.5492
11.6561
11.74
11.809
1.00001
1.00003
1.00009
1.0002
1.00056
1.00115
1.00324
1.00652
1.01911
1.0363
1.1208
1.22109
1.80744
2.8895
6.72243
11.7176
11.1946
10.811
10.8804
11.0924
11.3185
11.4518
11.5531
11.6333
11.7036
1.00001
1.00003
1.00008
1.00018
1.00052
1.00107
1.00302
1.00608
1.01762
1.03443
1.10934
1.20582
1.72662
2.70368
6.138
11.6948
11.1653
10.7275
10.7864
10.9802
11.1975
11.3198
11.4105
11.4831
11.5552
1.00001
1.00002
1.00008
1.00017
1.00048
1.00098
1.00277
1.0056
1.01613
1.03177
1.09862
1.19015
1.64692
2.51846
5.55551
11.5352
11.0845
10.6256
10.6722
10.8389
11.0403
11.146
11.2189
11.274
11.3398
1
1.00002
1.00007
1.00015
1.00043
1.00089
1.00251
1.00508
1.01464
1.02885
1.08951
1.17155
1.58444
2.36639
5.1329
11.099
10.8901
10.5124
10.5399
10.6634
10.8383
10.918
10.9597
10.979
11.0187
1
1.00002
1.00006
1.00014
1.00038
1.00079
1.00223
1.00449
1.01305
1.025
1.08151
1.14737
1.52956
2.20754
4.71659
10.4046
10.6091
10.4385
10.3993
10.4614
10.5899
10.6294
10.6183
10.5618
10.5028
1
1.00002
1.00005
1.00011
1.00032
1.00066
1.00188
1.00365
1.01146
1.01991
1.07345
1.12267
1.47721
2.03991
4.29055
9.54193
10.4561
10.3415
10.2242
10.2457
10.2978
10.279
10.1859
9.96086
9.59953
1.00001
1.00003
1.0001
1.00022
1.00063
1.00129
1.00369
1.00726
1.02239
1.04
1.14556
1.25538
1.98659
3.2978
7.91866
11.6418
11.2338
10.9731
11.0527
11.2817
11.5194
11.6664
11.7761
11.8615
11.9277
1.00001
1.00003
1.0001
1.00022
1.00062
1.00128
1.00364
1.00717
1.02207
1.03947
1.14343
1.25159
1.96992
3.2591
7.81293
11.6509
11.2309
10.9623
11.0431
11.2732
11.5109
11.6579
11.7691
11.8561
11.9238
1.00001
1.00003
1.0001
1.00021
1.00061
1.00124
1.00354
1.00698
1.02142
1.0384
1.13898
1.24379
1.93446
3.17587
7.5763
11.6689
11.2213
10.9306
11.0106
11.2391
11.4742
11.6188
11.7294
11.8156
11.8835
1.00001
1.00003
1.0001
1.00021
1.00059
1.0012
1.00341
1.00675
1.02043
1.0372
1.13159
1.23315
1.87978
3.05063
7.20983
11.6961
11.2092
10.8793
10.9556
11.1783
11.4094
11.5492
11.6561
11.74
11.809
1.00001
1.00003
1.00009
1.0002
1.00056
1.00115
1.00324
1.00652
1.01911
1.0363
1.1208
1.22109
1.80744
2.8895
6.72242
11.7176
11.1946
10.811
10.8804
11.0924
11.3185
11.4518
11.5531
11.6333
11.7036
1.00001
1.00003
1.00008
1.00018
1.00052
1.00107
1.00302
1.00608
1.01762
1.03443
1.10934
1.20582
1.72662
2.70368
6.138
11.6948
11.1653
10.7275
10.7864
10.9802
11.1975
11.3198
11.4105
11.4831
11.5552
1.00001
1.00002
1.00008
1.00017
1.00048
1.00098
1.00277
1.0056
1.01613
1.03177
1.09862
1.19015
1.64692
2.51846
5.55551
11.5352
11.0845
10.6256
10.6722
10.8389
11.0403
11.146
11.2189
11.274
11.3398
1
1.00002
1.00007
1.00015
1.00043
1.00089
1.00251
1.00508
1.01464
1.02885
1.08951
1.17155
1.58444
2.36639
5.13289
11.099
10.8901
10.5124
10.5399
10.6634
10.8383
10.918
10.9597
10.979
11.0187
1
1.00002
1.00006
1.00014
1.00038
1.00079
1.00223
1.00449
1.01305
1.025
1.08151
1.14737
1.52956
2.20754
4.71659
10.4046
10.6091
10.4385
10.3993
10.4614
10.5899
10.6294
10.6183
10.5618
10.5028
1
1.00002
1.00005
1.00011
1.00032
1.00066
1.00188
1.00365
1.01146
1.01991
1.07345
1.12267
1.47721
2.03991
4.29055
9.54193
10.4561
10.3415
10.2242
10.2457
10.2978
10.279
10.1859
9.96086
9.59953
1.00001
1.00003
1.0001
1.00022
1.00063
1.00129
1.00369
1.00726
1.02239
1.04
1.14556
1.25538
1.98658
3.29778
7.91863
11.6418
11.2338
10.9731
11.0527
11.2817
11.5194
11.6664
11.7761
11.8615
11.9277
1.00001
1.00003
1.0001
1.00022
1.00062
1.00128
1.00364
1.00717
1.02207
1.03947
1.14342
1.25159
1.96991
3.25909
7.8129
11.6509
11.2309
10.9623
11.0431
11.2732
11.5109
11.6579
11.7691
11.8561
11.9238
1.00001
1.00003
1.0001
1.00021
1.00061
1.00124
1.00354
1.00698
1.02142
1.0384
1.13897
1.24379
1.93446
3.17586
7.57627
11.6689
11.2213
10.9306
11.0106
11.2391
11.4742
11.6188
11.7294
11.8156
11.8835
1.00001
1.00003
1.0001
1.00021
1.00059
1.0012
1.00341
1.00675
1.02043
1.0372
1.13159
1.23315
1.87977
3.05061
7.20979
11.6961
11.2092
10.8793
10.9556
11.1783
11.4094
11.5492
11.6561
11.74
11.809
1.00001
1.00003
1.00009
1.0002
1.00056
1.00115
1.00324
1.00652
1.01911
1.0363
1.1208
1.22109
1.80744
2.88949
6.72239
11.7176
11.1946
10.811
10.8804
11.0924
11.3185
11.4518
11.5531
11.6333
11.7036
1.00001
1.00003
1.00008
1.00018
1.00052
1.00107
1.00302
1.00608
1.01762
1.03443
1.10934
1.20582
1.72662
2.70367
6.13796
11.6948
11.1653
10.7275
10.7864
10.9802
11.1975
11.3198
11.4105
11.4831
11.5552
1.00001
1.00002
1.00008
1.00017
1.00048
1.00098
1.00277
1.0056
1.01613
1.03177
1.09862
1.19014
1.64692
2.51845
5.55549
11.5352
11.0845
10.6256
10.6722
10.8389
11.0403
11.146
11.2189
11.274
11.3398
1
1.00002
1.00007
1.00015
1.00043
1.00089
1.00251
1.00508
1.01464
1.02885
1.08951
1.17155
1.58444
2.36638
5.13288
11.0989
10.8901
10.5124
10.5399
10.6634
10.8383
10.918
10.9597
10.979
11.0187
1
1.00002
1.00006
1.00014
1.00038
1.00079
1.00223
1.00449
1.01305
1.025
1.08151
1.14737
1.52956
2.20754
4.71658
10.4046
10.6091
10.4385
10.3993
10.4614
10.5898
10.6294
10.6183
10.5618
10.5028
1
1.00002
1.00005
1.00011
1.00032
1.00066
1.00188
1.00365
1.01146
1.01991
1.07345
1.12267
1.47721
2.0399
4.29054
9.54191
10.4561
10.3415
10.2242
10.2457
10.2977
10.279
10.1859
9.96086
9.59953
1.00001
1.00003
1.0001
1.00022
1.00063
1.00128
1.00368
1.00725
1.02238
1.03998
1.14554
1.25532
1.9865
3.2975
7.91802
11.6419
11.2338
10.9731
11.0526
11.2816
11.5194
11.6664
11.776
11.8614
11.9276
1.00001
1.00003
1.0001
1.00021
1.00062
1.00127
1.00364
1.00716
1.02206
1.03945
1.1434
1.25153
1.96983
3.25881
7.8123
11.651
11.2308
10.9622
11.043
11.2732
11.5108
11.6579
11.7691
11.856
11.9237
1.00001
1.00003
1.0001
1.00021
1.0006
1.00123
1.00354
1.00697
1.02141
1.03838
1.13895
1.24373
1.93438
3.17559
7.57568
11.669
11.2213
10.9305
11.0105
11.239
11.4742
11.6187
11.7293
11.8156
11.8834
1.00001
1.00003
1.00009
1.0002
1.00058
1.00119
1.0034
1.00674
1.02042
1.03717
1.13159
1.23307
1.87976
3.05039
7.20929
11.6961
11.2092
10.8792
10.9555
11.1782
11.4094
11.5491
11.656
11.7399
11.8089
1.00001
1.00002
1.00009
1.00019
1.00055
1.00114
1.00323
1.00651
1.0191
1.03628
1.1208
1.22102
1.80742
2.8893
6.72196
11.7176
11.1945
10.8109
10.8803
11.0923
11.3185
11.4517
11.553
11.6333
11.7035
1
1.00002
1.00008
1.00018
1.00052
1.00106
1.00301
1.00607
1.01761
1.03441
1.10933
1.20577
1.72658
2.70349
6.13756
11.6948
11.1652
10.7274
10.7863
10.9801
11.1975
11.3198
11.4105
11.4831
11.5551
1
1.00002
1.00007
1.00016
1.00047
1.00097
1.00276
1.00559
1.01612
1.03176
1.09861
1.19011
1.64688
2.51832
5.55525
11.535
11.0844
10.6256
10.6721
10.8389
11.0402
11.1459
11.2189
11.2739
11.3397
1
1.00002
1.00007
1.00015
1.00043
1.00088
1.00251
1.00507
1.01463
1.02883
1.08949
1.17151
1.58441
2.36626
5.13266
11.0986
10.8899
10.5123
10.5399
10.6634
10.8383
10.918
10.9597
10.9789
11.0186
1
1.00002
1.00006
1.00013
1.00038
1.00078
1.00222
1.00448
1.01304
1.02497
1.08151
1.14731
1.52956
2.20742
4.71641
10.4042
10.6091
10.4384
10.3993
10.4614
10.5898
10.6293
10.6183
10.5617
10.5028
1
1.00001
1.00005
1.00011
1.00032
1.00065
1.00188
1.00364
1.01145
1.01989
1.07343
1.12263
1.4772
2.03978
4.2904
9.54152
10.4561
10.3415
10.2241
10.2457
10.2977
10.279
10.1859
9.9608
9.59947
1
1.00001
1.00004
1.00012
1.00024
1.0007
1.00143
1.00413
1.00804
1.02532
1.04467
1.16365
1.29276
2.11036
3.62884
8.53504
10.3619
10.2535
10.0433
10.0099
9.98429
9.88805
9.62575
9.01592
7.47642
1
1.00001
1.00003
1.0001
1.00021
1.00061
1.00125
1.00357
1.00703
1.02156
1.03863
1.13948
1.24539
1.93317
3.16012
7.35069
10.2811
10.1567
9.87824
9.76414
9.67467
9.47927
9.06296
8.22931
6.62711
1
1.00001
1.00003
1.00009
1.00018
1.00053
1.00108
1.00307
1.0062
1.01799
1.03493
1.11216
1.20912
1.74291
2.72519
6.07867
10.1749
10.0506
9.73553
9.52418
9.36952
9.09132
8.58033
7.72426
6.41847
1
1.00001
1.00002
1.00007
1.00015
1.00044
1.0009
1.00254
1.00513
1.01472
1.02914
1.0886
1.17495
1.56895
2.32622
4.8452
9.85567
9.84716
9.61651
9.30352
9.07736
8.75441
8.22627
7.43455
6.37811
1
1.00001
1.00002
1.00006
1.00012
1.00035
1.00071
1.00202
1.00406
1.01185
1.0225
1.07351
1.1326
1.46851
2.05512
4.16945
8.98228
9.56941
9.42029
9.10078
8.81842
8.47052
7.96829
7.26008
6.37137
1
1
1.00002
1.00004
1.00011
1.00023
1.00066
1.00134
1.00386
1.00746
1.02358
1.04113
1.15092
1.26523
2.015
3.32828
7.55666
9.2964
9.20498
8.94748
8.60301
8.23562
7.76464
7.13287
6.3679
1
1
1.00001
1.00003
1.00009
1.00019
1.00054
1.00112
1.00315
1.00636
1.01848
1.0354
1.11551
1.21302
1.75803
2.74515
6.00278
9.11132
9.06279
8.8414
8.43757
8.05136
7.59956
7.02981
6.35969
0.999998
0.999999
1.00001
1.00002
1.00007
1.00014
1.00042
1.00086
1.00242
1.00489
1.01401
1.02771
1.084
1.1659
1.53234
2.22793
4.44623
8.71352
8.92478
8.74585
8.3416
7.90757
7.46553
6.94884
6.35238
0.999996
0.999998
1
1.00002
1.00004
1.00013
1.00026
1.00075
1.00152
1.00432
1.00849
1.0259
1.04653
1.16424
1.29735
2.07381
3.5066
7.7112
8.68761
8.5678
8.24951
7.7922
7.35355
6.87744
6.34195
0.999995
0.999996
0.999999
1.00001
1.00003
1.00009
1.0002
1.00056
1.00115
1.00326
1.00644
1.01944
1.03524
1.12346
1.21854
1.79964
2.81091
6.08883
8.41736
8.37477
8.16271
7.7185
7.271
6.8216
6.33434
0.999994
0.999994
0.999997
1
1.00002
1.00005
1.00016
1.00034
1.00096
1.00193
1.00562
1.01056
1.03447
1.05917
1.21438
1.41705
2.33621
4.27196
7.9708
8.24646
8.0898
7.70397
7.22125
6.77898
6.32704
0.999993
0.999993
0.999996
0.999999
1.00001
1.00004
1.00012
1.00025
1.0007
1.00144
1.00406
1.008
1.02425
1.04373
1.15304
1.27465
1.9855
3.24891
6.92644
8.02972
7.94034
7.66907
7.2022
6.75496
6.32713
0.999992
0.999993
0.999994
0.999998
1
1.00003
1.00007
1.0002
1.00041
1.00117
1.0023
1.007
1.01239
1.04382
1.07223
1.27151
1.53531
2.70976
5.22409
7.68815
7.7269
7.58458
7.21905
6.75708
6.33031
0.999992
0.999992
0.999993
0.999996
1
1.00002
1.00005
1.00014
1.0003
1.00085
1.00174
1.00487
1.00976
1.02845
1.05399
1.17367
1.34169
2.0893
3.51427
7.01443
7.59818
7.49733
7.21791
6.77422
6.34297
0.999991
0.999991
0.999992
0.999994
0.999999
1.00001
1.00003
1.00008
1.00024
1.00049
1.00138
1.00278
1.00795
1.01523
1.04827
1.08519
1.29977
1.60605
2.85536
5.49356
7.33643
7.33048
7.19055
6.83706
6.37549
0.999991
0.999991
0.999992
0.999993
0.999996
1
1.00002
1.00005
1.00016
1.00033
1.00094
1.00191
1.00532
1.01058
1.03098
1.05778
1.1877
1.37064
2.13646
3.65859
6.80438
7.23086
7.13711
6.88292
6.44016
0.999991
0.999991
0.999991
0.999992
0.999994
0.999999
1.00001
1.00004
1.00009
1.00026
1.00053
1.00149
1.00302
1.00849
1.01676
1.0501
1.09425
1.30436
1.65644
2.87108
5.53822
7.00537
7.00172
6.87115
6.55445
0.999991
0.999991
0.999991
0.999992
0.999993
0.999996
1
1.00002
1.00005
1.00017
1.00035
1.00097
1.00197
1.00548
1.01081
1.03208
1.05828
1.19626
1.37258
2.17075
3.71585
6.49169
6.89282
6.81964
6.60253
0.999991
0.999991
0.999991
0.999991
0.999992
0.999994
0.999999
1.00001
1.00004
1.00009
1.00026
1.00054
1.00151
1.00305
1.00857
1.01699
1.04993
1.09742
1.29789
1.66142
2.8042
5.30296
6.65395
6.68443
6.58102
0.999991
0.99999
0.999991
0.999991
0.999991
0.999993
0.999995
1
1.00002
1.00006
1.00014
1.0004
1.00082
1.00228
1.00459
1.01289
1.02544
1.07488
1.1476
1.44588
1.9935
3.52347
6.12111
6.56746
6.51692
0.999991
0.99999
0.99999
0.999991
0.999991
0.999992
0.999993
0.999999
1.00001
1.00004
1.00009
1.00025
1.00052
1.00145
1.00293
1.00812
1.01615
1.04675
1.09078
1.27634
1.60071
2.64945
4.9042
6.30532
6.38873
0.999991
0.99999
0.99999
0.99999
0.999991
0.999991
0.999992
0.999995
1
1.00002
1.00006
1.00013
1.00037
1.00076
1.00209
1.00422
1.01174
1.02332
1.06702
1.13544
1.39194
1.87485
3.18406
5.71621
6.26404
0.999991
0.99999
0.99999
0.99999
0.99999
0.999991
0.999992
0.999993
0.999998
1.00001
1.00003
1.00008
1.00023
1.00047
1.0013
1.00265
1.00727
1.01456
1.04128
1.0806
1.24308
1.51098
2.44048
4.39924
5.94557
0.999991
0.99999
0.99999
0.99999
0.99999
0.999991
0.999991
0.999992
0.999995
1
1.00002
1.00004
1.00013
1.00028
1.00078
1.00159
1.00434
1.00872
1.02427
1.04788
1.14015
1.28349
1.81881
2.84214
5.23547
0.999991
0.99999
0.99999
0.99999
0.99999
0.99999
0.999991
0.999991
0.999993
0.999996
1.00001
1.00002
1.00008
1.00017
1.00047
1.00096
1.00261
1.00526
1.01457
1.02866
1.08466
1.16138
1.50186
2.08261
3.72616
0.999991
0.99999
0.99999
0.99999
0.99999
0.99999
0.99999
0.999991
0.999992
0.999994
0.999998
1.00001
1.00003
1.00011
1.00023
1.00064
1.00129
1.00354
1.00702
1.0202
1.0372
1.12001
1.21778
1.69256
2.48127
0.999991
0.99999
0.99999
0.99999
0.99999
0.99999
0.99999
0.999991
0.999991
0.999992
0.999996
1
1.00002
1.00005
1.00015
1.00032
1.00086
1.00175
1.00479
1.0094
1.02731
1.04991
1.15916
1.302
1.87226
0.999991
0.99999
0.99999
0.99999
0.99999
0.99999
0.99999
0.99999
0.999991
0.999992
0.999993
0.999998
1.00001
1.00003
1.00007
1.00021
1.00043
1.00119
1.00242
1.00661
1.0133
1.03684
1.07499
1.21004
1.46183
0.999991
0.99999
0.99999
0.99999
0.99999
0.99999
0.99999
0.99999
0.99999
0.999991
0.999992
0.999994
0.999999
1.00001
1.00004
1.00012
1.00025
1.00068
1.00138
1.00374
1.00754
1.02071
1.04077
1.1186
1.23192
0.999991
0.99999
0.99999
0.99999
0.99999
0.99999
0.99999
0.99999
0.99999
0.999991
0.999991
0.999992
0.999996
1
1.00002
1.00005
1.00015
1.00032
1.00087
1.00177
1.0048
1.0095
1.02699
1.0501
1.15529
0.999991
0.99999
0.99999
0.99999
0.99999
0.99999
0.99999
0.99999
0.99999
0.99999
0.999991
0.999992
0.999993
0.999998
1.00001
1.00003
1.00007
1.00021
1.00043
1.00116
1.00235
1.00639
1.01272
1.03548
1.07089
0.999991
0.99999
0.99999
0.99999
0.99999
0.99999
0.99999
0.99999
0.99999
0.99999
0.999991
0.999991
0.999992
0.999994
1
1.00001
1.00004
1.00009
1.00027
1.00055
1.0015
1.00303
1.00821
1.01655
1.04514
0.999991
0.99999
0.99999
0.99999
0.99999
0.99999
0.99999
0.99999
0.99999
0.99999
0.99999
0.999991
0.999991
0.999992
0.999995
1
1.00002
1.00005
1.00014
1.0003
1.0008
1.00164
1.00437
1.00879
1.02372
0.999991
0.99999
0.99999
0.99999
0.99999
0.99999
0.99999
0.99999
0.99999
0.99999
0.99999
0.99999
0.999991
0.999991
0.999993
0.999997
1
1.00003
1.00006
1.00018
1.00038
1.00101
1.00205
1.00549
1.01104
0.999991
0.99999
0.99999
0.99999
0.99999
0.99999
0.99999
0.99999
0.99999
0.99999
0.99999
0.99999
0.99999
0.999991
0.999992
0.999993
0.999999
1.00001
1.00004
1.00008
1.00023
1.00048
1.00129
1.00261
1.00702
0.999991
0.99999
0.99999
0.99999
0.99999
0.99999
0.99999
0.99999
0.99999
0.99999
0.99999
0.99999
0.99999
0.999991
0.999991
0.999992
0.999994
1
1.00001
1.00005
1.00011
1.00031
1.00063
1.00169
1.0034
0.999991
0.99999
0.99999
0.99999
0.99999
0.99999
0.99999
0.99999
0.99999
0.99999
0.99999
0.99999
0.99999
0.99999
0.999991
0.999991
0.999993
0.999996
1.00001
1.00002
1.00008
1.00016
1.00046
1.00094
1.00255
0.999991
0.99999
0.99999
0.99999
0.99999
0.99999
0.99999
0.99999
0.99999
0.99999
0.99999
0.99999
0.99999
0.99999
0.999991
0.999991
0.999992
0.999994
1
1.00001
1.00005
1.00012
1.00035
1.00072
1.00203
0.999991
0.99999
0.99999
0.99999
0.99999
0.99999
0.99999
0.99999
0.99999
0.99999
0.99999
0.99999
0.99999
0.99999
0.99999
0.999991
0.999992
0.999994
0.999998
1.00001
1.00004
1.00012
1.00026
1.00075
1.00154
0.999991
0.99999
0.99999
0.99999
0.99999
0.99999
0.99999
0.99999
0.99999
0.99999
0.99999
0.99999
0.99999
0.99999
0.99999
0.999991
0.999992
0.999994
0.999998
1.00001
1.00004
1.00012
1.00025
1.00073
1.0015
1
1.00002
1.00004
1.00012
1.00025
1.00071
1.00144
1.00414
1.00805
1.02533
1.04469
1.16367
1.29281
2.11041
3.62905
8.53542
10.3619
10.2535
10.0434
10.01
9.98433
9.8881
9.62579
9.01597
7.47646
1
1.00001
1.00004
1.00011
1.00022
1.00062
1.00126
1.00357
1.00704
1.02157
1.03865
1.1395
1.24543
1.93322
3.16032
7.35109
10.2811
10.1567
9.87828
9.76418
9.67471
9.4793
9.063
8.22935
6.62715
1
1.00001
1.00003
1.00009
1.00019
1.00054
1.00109
1.00308
1.00621
1.018
1.03495
1.11217
1.20917
1.74294
2.72537
6.07906
10.175
10.0506
9.73557
9.52421
9.36955
9.09135
8.58037
7.7243
6.4185
1
1.00001
1.00003
1.00008
1.00016
1.00044
1.0009
1.00254
1.00514
1.01473
1.02916
1.08862
1.17499
1.56898
2.32634
4.84541
9.85586
9.84727
9.61654
9.30354
9.0774
8.75444
8.22631
7.43459
6.37814
1
1.00001
1.00002
1.00006
1.00013
1.00035
1.00072
1.00203
1.00408
1.01186
1.02252
1.07351
1.13265
1.46851
2.05523
4.1696
8.98263
9.56949
9.42034
9.1008
8.81846
8.47056
7.96832
7.26012
6.3714
1
1.00001
1.00002
1.00004
1.00012
1.00024
1.00067
1.00135
1.00387
1.00748
1.02359
1.04115
1.15094
1.26528
2.01504
3.32846
7.55699
9.29645
9.20502
8.94751
8.60305
8.23566
7.76467
7.1329
6.36793
1
1
1.00002
1.00003
1.0001
1.0002
1.00055
1.00113
1.00316
1.00637
1.01849
1.03543
1.11551
1.21308
1.75803
2.74531
6.0031
9.11141
9.06285
8.84143
8.43761
8.0514
7.59959
7.02984
6.35972
1
1
1.00001
1.00003
1.00007
1.00015
1.00043
1.00087
1.00243
1.0049
1.01402
1.02773
1.08401
1.16593
1.53236
2.22803
4.44639
8.71371
8.92484
8.7459
8.34163
7.9076
7.46556
6.94887
6.35241
1
1
1.00001
1.00002
1.00005
1.00013
1.00027
1.00076
1.00153
1.00433
1.0085
1.02591
1.04655
1.16426
1.29739
2.07387
3.50676
7.71151
8.68767
8.56785
8.24953
7.79222
7.35357
6.87746
6.34198
1
1