/*--------------------------------*- C++ -*----------------------------------*\
| =========                 |                                                 |
| \\      /  F ield         | OpenFOAM: The Open Source CFD Toolbox           |
|  \\    /   O peration     | Version:  4.1                                   |
|   \\  /    A nd           | Web:      www.OpenFOAM.org                      |
|    \\/     M anipulation  |                                                 |
\*---------------------------------------------------------------------------*/
FoamFile
{
    version     2.0;
    format      ascii;
    class       surfaceScalarField;
    location    "3";
    object      phi;
}
// * * * * * * * * * * * * * * * * * * * * * * * * * * * * * * * * * * * * * //

dimensions      [1 0 -1 0 0 0 0];

internalField   nonuniform List<scalar> 
150500
(
0.0168001
1.70833e-10
-3.37537e-12
0.0168001
9.44272e-10
-1.1643e-11
0.0168001
3.52708e-09
-1.34786e-11
0.0168
9.01729e-09
-2.16454e-11
0.0168
2.50783e-08
-2.13886e-11
0.0168
5.71536e-08
-2.91457e-11
0.0167998
1.53475e-07
-2.92148e-11
0.0167995
3.3213e-07
-4.00215e-11
0.0167984
9.63883e-07
-4.20537e-11
0.0167965
1.99285e-06
-7.66466e-11
0.0167892
6.57914e-06
-9.72442e-11
0.0167742
1.4872e-05
-2.3183e-10
0.0167075
6.42535e-05
-3.11873e-10
0.0165223
0.000180472
-1.20552e-09
0.0154399
0.00106366
-2.68783e-09
0.0141466
0.00129692
5.45126e-10
0.0129041
0.0012454
-3.51024e-11
0.0116146
0.00129063
-3.69847e-10
0.01026
0.00135666
-3.70235e-10
0.00881636
0.00144419
-3.38748e-10
0.0072683
0.00154741
-2.83666e-10
0.00561109
0.00166032
-2.58401e-10
0.00384093
0.00176566
-2.50954e-10
0.001968
0.00186827
-2.5039e-10
0.00196774
-2.44748e-10
0.0168001
3.36715e-10
-3.36833e-12
0.0168001
1.84712e-09
-1.16433e-11
0.0168001
6.9089e-09
-1.34854e-11
0.0168
1.75763e-08
-2.16185e-11
0.0168
4.91321e-08
-2.1429e-11
0.0168
1.11576e-07
-2.91173e-11
0.0167998
3.02392e-07
-2.92369e-11
0.0167995
6.4969e-07
-3.99463e-11
0.0167984
1.91765e-06
-4.21036e-11
0.0167965
3.93622e-06
-7.62181e-11
0.0167892
1.32866e-05
-9.6368e-11
0.0167739
3.00236e-05
-2.28111e-10
0.0167052
0.000130522
-3.02734e-10
0.0165153
0.000365696
-1.16774e-09
0.0154477
0.00211255
-2.62292e-09
0.0141225
0.00262571
5.23719e-10
0.012895
0.00247587
-4.602e-11
0.0116248
0.00256193
-3.76891e-10
0.0102799
0.00270362
-3.76752e-10
0.00882326
0.00290134
-3.42455e-10
0.00725541
0.0031147
-2.8653e-10
0.00558109
0.00333762
-2.61208e-10
0.00379444
0.00354786
-2.51995e-10
0.00191479
0.0037435
-2.51189e-10
0.00388214
-2.453e-10
0.0168001
4.56774e-10
-3.35569e-12
0.0168001
2.51415e-09
-1.16405e-11
0.0168001
9.41154e-09
-1.35033e-11
0.0168
2.38983e-08
-2.15523e-11
0.0168
6.67661e-08
-2.15134e-11
0.0168
1.50422e-07
-2.90226e-11
0.0167999
4.1553e-07
-2.92087e-11
0.0167997
8.42572e-07
-3.94495e-11
0.0167987
2.78871e-06
-4.19245e-11
0.0167977
4.99869e-06
-7.3192e-11
0.0167898
2.0533e-05
-9.19191e-11
0.0167769
4.28303e-05
-2.16965e-10
0.0167097
0.000195362
-2.80769e-10
0.0165315
0.000539205
-1.09896e-09
0.0155589
0.00306655
-2.5568e-09
0.0142071
0.00398123
4.0875e-10
0.0129779
0.00370806
-8.9622e-11
0.0117184
0.00382259
-3.80629e-10
0.0103844
0.00403966
-3.77072e-10
0.00892815
0.004358
-3.37633e-10
0.00735234
0.00469007
-2.88557e-10
0.00566121
0.00503124
-2.6668e-10
0.00384648
0.00535841
-2.57657e-10
0.00194223
0.00564327
-2.57782e-10
0.00582392
-2.50021e-10
0.0168001
5.6444e-10
-3.34475e-12
0.0168001
3.13734e-09
-1.16356e-11
0.0168001
1.17296e-08
-1.35891e-11
0.0168
2.98966e-08
-2.14527e-11
0.0168
8.29319e-08
-2.19906e-11
0.0168
1.86329e-07
-2.93891e-11
0.0167999
5.18034e-07
-3.04695e-11
0.0167997
9.96816e-07
-4.50729e-11
0.0167988
3.67526e-06
-3.8837e-11
0.0167985
5.3681e-06
-1.24285e-10
0.0167899
2.84765e-05
6.52673e-12
0.0167809
5.20888e-05
-3.36821e-10
0.0167226
0.000251344
-4.35125e-11
0.0165785
0.000679113
-9.50992e-10
0.0158174
0.00380916
-2.17258e-09
0.0144454
0.00535689
1.832e-10
0.0131942
0.00496217
-2.77867e-10
0.0119302
0.00508764
-4.20228e-10
0.0106005
0.00537153
-3.89703e-10
0.00914529
0.00581365
-3.32771e-10
0.00756449
0.0062701
-3.11475e-10
0.00586171
0.0067369
-2.9577e-10
0.00401153
0.00720399
-2.83081e-10
0.0020297
0.00762018
-2.7989e-10
0.00785308
-2.69081e-10
0.0168001
7.73246e-10
-3.33478e-12
0.0168001
4.25257e-09
-1.15843e-11
0.0168001
1.58206e-08
-1.36063e-11
0.0168
4.04482e-08
-2.1333e-11
0.0168
1.12e-07
-2.17826e-11
0.0167999
2.55706e-07
-2.88282e-11
0.0167998
6.79177e-07
-2.93296e-11
0.0167993
1.47814e-06
-4.0967e-11
0.0167986
4.33499e-06
-3.71153e-11
0.0167962
7.79557e-06
-1.02285e-10
0.0167923
3.17545e-05
-6.19018e-12
0.0167824
6.21607e-05
-2.75741e-10
0.016753
0.000278573
-6.36651e-11
0.0166705
0.000757914
-8.16478e-10
0.0163144
0.00414764
-1.86898e-09
0.014922
0.00675232
-4.15701e-11
0.0135984
0.00628864
-3.68953e-10
0.0123032
0.00638365
-4.14805e-10
0.0109716
0.0067047
-3.74285e-10
0.0095161
0.00727027
-3.0968e-10
0.00792013
0.00786503
-3.22306e-10
0.00617824
0.00848178
-3.18432e-10
0.00427086
0.00910674
-3.09925e-10
0.00220013
0.0096857
-3.08842e-10
0.0100525
-2.97019e-10
0.0168001
8.70669e-10
-3.30118e-12
0.0168001
4.80436e-09
-1.15821e-11
0.0168001
1.79026e-08
-1.35538e-11
0.0168
4.58635e-08
-2.12431e-11
0.0168
1.26757e-07
-2.15122e-11
0.0168
2.8978e-07
-2.82296e-11
0.0167999
7.62195e-07
-2.80951e-11
0.0167997
1.68837e-06
-3.59354e-11
0.0167994
4.59604e-06
-3.76082e-11
0.0167975
9.66762e-06
-6.58048e-11
0.0167971
3.17041e-05
-4.5123e-11
0.0167956
6.36724e-05
-1.99431e-10
0.0167975
0.000274734
-1.34557e-10
0.0168177
0.000734632
-7.20798e-10
0.0171347
0.00381508
-1.71229e-09
0.0157105
0.00817776
-2.52348e-10
0.0142051
0.00779654
-4.03801e-10
0.0128494
0.00774015
-3.55134e-10
0.0115002
0.00805536
-3.24833e-10
0.0100542
0.00871686
-2.83294e-10
0.00844305
0.00947291
-3.17497e-10
0.00666632
0.0102615
-3.25344e-10
0.0046749
0.0110943
-3.23697e-10
0.0024365
0.0119187
-3.31313e-10
0.0124881
-3.26751e-10
0.0168001
9.35871e-10
-3.26839e-12
0.0168001
5.17879e-09
-1.1585e-11
0.0168001
1.92815e-08
-1.35381e-11
0.0168001
4.94882e-08
-2.12153e-11
0.0168
1.36113e-07
-2.14295e-11
0.0168
3.11439e-07
-2.80783e-11
0.0168
8.1146e-07
-2.76724e-11
0.0167998
1.8066e-06
-3.50969e-11
0.0167996
4.75288e-06
-3.66881e-11
0.0167988
1.0476e-05
-5.23855e-11
0.0168006
2.96107e-05
-5.47317e-11
0.0167957
6.85623e-05
-1.54334e-10
0.0168338
0.00023528
-1.26354e-10
0.0169359
0.000629993
-5.55548e-10
0.017795
0.00294879
-1.03534e-09
0.016644
0.00932318
-8.75895e-10
0.0149346
0.00950557
-4.79681e-10
0.0135338
0.00914151
-2.84968e-10
0.0121909
0.00939963
-2.69409e-10
0.0107455
0.0101633
-2.56353e-10
0.00913211
0.0110864
-2.94777e-10
0.00731169
0.0120834
-3.14522e-10
0.00524056
0.0131619
-3.19913e-10
0.00284284
0.0143114
-3.40395e-10
0.0153297
-3.44561e-10
0.0168001
1.04429e-09
-3.2376e-12
0.0168001
5.77571e-09
-1.15941e-11
0.0168001
2.15804e-08
-1.35415e-11
0.0168
5.54322e-08
-2.12171e-11
0.0168
1.53291e-07
-2.14255e-11
0.0168
3.51364e-07
-2.8062e-11
0.0167999
9.19087e-07
-2.76211e-11
0.0167996
2.07134e-06
-3.49062e-11
0.0167991
5.24377e-06
-3.63285e-11
0.0167968
1.27238e-05
-5.13968e-11
0.016797
2.91836e-05
-5.1405e-11
0.0167858
7.97502e-05
-1.48315e-10
0.0168004
0.000219385
-1.02685e-10
0.0167977
0.000632029
-4.80916e-10
0.0170983
0.00264115
-9.33069e-10
0.0164901
0.0099223
-1.38123e-09
0.0151221
0.0108727
-5.55457e-10
0.0140252
0.0102386
-2.29196e-10
0.0128073
0.0106187
-2.25201e-10
0.0114689
0.0115023
-2.31948e-10
0.00992474
0.0126313
-2.68159e-10
0.00814812
0.0138608
-2.88368e-10
0.00604113
0.0152666
-3.00468e-10
0.00343788
0.0169089
-3.28702e-10
0.0187662
-3.47864e-10
0.0168001
1.33895e-09
-3.20987e-12
0.0168001
5.99223e-09
-1.15961e-11
0.0168001
2.42249e-08
-1.35631e-11
0.0168001
5.88639e-08
-2.12313e-11
0.0168
1.69954e-07
-2.15285e-11
0.0168
3.75047e-07
-2.82689e-11
0.0167999
9.88535e-07
-2.83852e-11
0.0167997
2.26411e-06
-3.68718e-11
0.0167997
5.27642e-06
-3.60188e-11
0.0167996
1.27792e-05
-9.08513e-11
0.0167971
3.14562e-05
1.18224e-12
0.016808
6.88055e-05
-2.31771e-10
0.0167956
0.000230416
2.54885e-11
0.0168032
0.00062517
-4.89137e-10
0.0169504
0.00248797
-6.99282e-10
0.0162625
0.0106007
-1.56715e-09
0.015648
0.0114855
-3.19133e-10
0.014495
0.0113923
-2.2023e-10
0.0133012
0.011814
-2.02918e-10
0.012157
0.0126473
-2.12766e-10
0.0107769
0.0140093
-2.41153e-10
0.00916338
0.015478
-2.60657e-10
0.00722088
0.0172088
-2.70155e-10
0.00451589
0.0196086
-2.96664e-10
0.0232798
-3.16905e-10
0.0168001
-3.23647e-12
1.93408e-09
0.0168001
-1.16356e-11
1.35741e-09
0.0168001
-1.36272e-11
2.55007e-08
0.0168001
-2.18766e-11
2.12767e-08
0.0168001
-2.119e-11
1.6771e-07
0.0168003
-2.91267e-11
1.38131e-07
0.0168003
-2.81066e-11
1.02041e-06
0.0168019
-3.74119e-11
6.81808e-07
0.0168002
-3.61621e-11
6.95243e-06
0.0168107
-5.93014e-11
2.43587e-06
0.0167894
-5.98431e-11
5.25695e-05
0.0168497
-1.34546e-10
8.47037e-06
0.0167047
-5.44488e-11
0.000374405
0.0169919
-5.31326e-10
0.00033719
0.016884
-5.46547e-10
0.00259241
0.0165037
-1.6597e-09
0.0109706
0.0156502
-2.10351e-10
0.0123379
0.0147909
-1.55649e-10
0.0122519
0.0138899
-1.89893e-10
0.0127155
0.0129011
-1.96248e-10
0.013638
0.0118332
-2.15093e-10
0.0150754
0.0105703
-2.22992e-10
0.016741
0.00881772
-2.33993e-10
0.0189621
0.00621893
-2.48694e-10
0.0222037
-2.53296e-10
0.0294963
0.0168001
1.74341e-10
-4.79424e-16
0.0168001
9.47068e-10
-2.57895e-15
0.0168001
3.52694e-09
-5.47901e-15
0.0168
9.03092e-09
-1.15888e-14
0.0168
2.50697e-08
-2.02127e-14
0.0168
5.71631e-08
-3.74327e-14
0.0167998
1.53475e-07
-7.65791e-14
0.0167995
3.3218e-07
-1.34117e-13
0.0167984
9.63948e-07
-3.91291e-13
0.0167965
1.99319e-06
-6.28491e-13
0.0167892
6.58031e-06
-2.40533e-12
0.0167742
1.48755e-05
-4.48669e-12
0.0167075
6.42656e-05
-1.90045e-11
0.0165222
0.000180512
-4.86199e-11
0.0154397
0.00106383
-1.40589e-10
0.0141463
0.00129697
3.35952e-11
0.0129038
0.00124541
5.13267e-12
0.0116143
0.00129062
-8.56017e-12
0.0102597
0.00135664
-7.73727e-12
0.00881612
0.00144416
-5.63517e-12
0.00726811
0.00154737
-4.82182e-12
0.00561094
0.00166027
-4.72623e-12
0.00384085
0.00176561
-5.20473e-12
0.00196797
0.00186822
-5.57793e-12
0.0019677
-6.06199e-12
0.0168001
3.42862e-10
-4.77737e-16
0.0168001
1.85314e-09
-2.57189e-15
0.0168001
6.90444e-09
-5.45728e-15
0.0168
1.76012e-08
-1.1539e-14
0.0168
4.90973e-08
-2.0092e-14
0.0168
1.11554e-07
-3.71852e-14
0.0167998
3.02298e-07
-7.59862e-14
0.0167995
6.49518e-07
-1.33087e-13
0.0167984
1.917e-06
-3.88449e-13
0.0167965
3.93517e-06
-6.24378e-13
0.0167892
1.32866e-05
-2.39719e-12
0.0167739
3.00313e-05
-4.46807e-12
0.0167052
0.000130548
-1.89357e-11
0.0165152
0.000365797
-4.84235e-11
0.0154474
0.00211293
-1.40754e-10
0.0141221
0.00262581
3.3769e-11
0.0128947
0.00247587
5.16805e-12
0.0116245
0.0025619
-8.45675e-12
0.0102796
0.00270357
-7.61942e-12
0.00882299
0.00290129
-5.53054e-12
0.00725518
0.00311462
-4.70374e-12
0.00558092
0.0033375
-4.57363e-12
0.00379434
0.00354774
-5.0496e-12
0.00191475
0.00374339
-5.41186e-12
0.00388206
-5.90856e-12
0.0168001
4.62188e-10
-4.74183e-16
0.0168001
2.52182e-09
-2.55566e-15
0.0168001
9.38058e-09
-5.41162e-15
0.0168
2.39375e-08
-1.14336e-14
0.0168
6.65602e-08
-1.9877e-14
0.0168
1.50187e-07
-3.67996e-14
0.0167999
4.14846e-07
-7.50999e-14
0.0167997
8.39726e-07
-1.32994e-13
0.0167987
2.7893e-06
-3.83547e-13
0.0167977
4.97619e-06
-6.29603e-13
0.0167898
2.05727e-05
-2.39539e-12
0.0167769
4.27894e-05
-4.44378e-12
0.0167096
0.0001955
-1.88049e-11
0.0165314
0.000539376
-4.79732e-11
0.0155584
0.00306732
-1.41268e-10
0.0142064
0.00398143
3.43198e-11
0.0129774
0.00370795
5.55139e-12
0.0117179
0.00382251
-8.27155e-12
0.0103839
0.00403956
-7.47759e-12
0.00892775
0.00435791
-5.43969e-12
0.00735201
0.00468993
-4.52136e-12
0.00566096
0.00503104
-4.27869e-12
0.00384633
0.0053582
-4.71771e-12
0.00194215
0.00564309
-5.05671e-12
0.00582377
-5.42318e-12
0.0168001
5.70212e-10
-4.49374e-16
0.0168001
3.16738e-09
-2.47499e-15
0.0168001
1.174e-08
-5.10259e-15
0.0168
2.99692e-08
-1.0484e-14
0.0168
8.30801e-08
-1.78343e-14
0.0168
1.86677e-07
-3.11191e-14
0.0167999
5.18816e-07
-6.35594e-14
0.0167997
9.98999e-07
-8.06923e-14
0.0167988
3.67758e-06
-3.96227e-13
0.0167985
5.37835e-06
-1.96503e-13
0.0167899
2.84784e-05
-3.07233e-12
0.0167808
5.21303e-05
-3.30479e-12
0.0167226
0.000251358
-1.68472e-11
0.0165785
0.000679247
-4.72456e-11
0.0158177
0.00380978
-1.43289e-10
0.0144456
0.00535707
3.16799e-11
0.0131943
0.0049622
6.8929e-12
0.0119302
0.00508765
-7.66045e-12
0.0106004
0.00537152
-7.17151e-12
0.00914516
0.00581362
-5.37859e-12
0.00756433
0.00626998
-4.25869e-12
0.00586156
0.00673669
-3.87119e-12
0.00401142
0.00720375
-4.20536e-12
0.00202964
0.00761995
-4.46684e-12
0.00785286
-4.65897e-12
0.0168001
7.89456e-10
-4.5407e-16
0.0168001
4.26668e-09
-2.4885e-15
0.0168001
1.58638e-08
-5.17653e-15
0.0168
4.05255e-08
-1.06629e-14
0.0168
1.12204e-07
-1.84163e-14
0.0167999
2.56171e-07
-3.27424e-14
0.0167998
6.80191e-07
-6.63218e-14
0.0167993
1.48145e-06
-9.97342e-14
0.0167986
4.33748e-06
-3.81647e-13
0.0167962
7.81681e-06
-3.10876e-13
0.0167923
3.17502e-05
-2.45175e-12
0.0167824
6.22049e-05
-3.40546e-12
0.016753
0.000278569
-1.58328e-11
0.0166705
0.000758
-4.47628e-11
0.0163145
0.00414815
-1.40123e-10
0.0149224
0.0067523
2.9813e-11
0.0135987
0.00628873
6.77009e-12
0.0123035
0.00638369
-6.99231e-12
0.0109718
0.00670475
-6.90901e-12
0.00951626
0.0072703
-5.4215e-12
0.0079202
0.00786499
-3.9178e-12
0.00617824
0.00848164
-3.30068e-12
0.00427083
0.00910653
-3.56984e-12
0.0022001
0.00968547
-3.78961e-12
0.0100523
-3.78818e-12
0.0168001
8.87039e-10
-4.60508e-16
0.0168001
4.8168e-09
-2.50775e-15
0.0168001
1.79247e-08
-5.26841e-15
0.0168
4.59017e-08
-1.09018e-14
0.0168
1.26841e-07
-1.90649e-14
0.0168
2.89953e-07
-3.46913e-14
0.0167999
7.62618e-07
-6.78578e-14
0.0167997
1.68929e-06
-1.25493e-13
0.0167994
4.59779e-06
-3.29899e-13
0.0167976
9.67634e-06
-5.02628e-13
0.0167971
3.1708e-05
-2.23977e-12
0.0167956
6.36993e-05
-3.35191e-12
0.0167975
0.000274765
-1.60791e-11
0.0168177
0.000734753
-3.99322e-11
0.0171344
0.00381588
-1.30296e-10
0.0157104
0.00817752
9.8416e-12
0.0142053
0.00779639
2.45373e-12
0.0128496
0.00774014
-7.06037e-12
0.0115003
0.0080554
-7.22657e-12
0.0100544
0.00871688
-6.24918e-12
0.00844322
0.00947291
-4.30404e-12
0.00666642
0.0102614
-3.28352e-12
0.00467494
0.0110941
-3.17181e-12
0.00243651
0.0119185
-3.19373e-12
0.0124879
-2.96085e-12
0.0168001
9.51239e-10
-4.47601e-16
0.0168001
5.18701e-09
-2.44996e-15
0.0168001
1.92911e-08
-5.0731e-15
0.0168001
4.94979e-08
-1.04757e-14
0.0168
1.36126e-07
-1.77236e-14
0.0168
3.11456e-07
-3.18738e-14
0.0168
8.11486e-07
-5.88004e-14
0.0167998
1.80665e-06
-1.07134e-13
0.0167996
4.75294e-06
-2.54878e-13
0.0167989
1.04759e-05
-4.52374e-13
0.0168006
2.96105e-05
-1.59356e-12
0.0167958
6.8568e-05
-2.2587e-12
0.0168338
0.000235301
-1.11635e-11
0.016936
0.000630069
-2.67005e-11
0.0177956
0.00294914
-7.10736e-11
0.0166441
0.00932336
-4.38434e-11
0.0149347
0.00950541
-1.21878e-11
0.0135339
0.00914146
-7.26961e-12
0.0121911
0.00939965
-7.27975e-12
0.0107457
0.0101633
-6.83638e-12
0.0091323
0.0110864
-4.89665e-12
0.00731183
0.0120834
-3.75855e-12
0.00524065
0.0131618
-3.04231e-12
0.00284288
0.0143112
-2.91775e-12
0.0153295
-2.28851e-12
0.0168001
1.05689e-09
-4.42921e-16
0.0168001
5.77932e-09
-2.42728e-15
0.0168001
2.15688e-08
-5.00513e-15
0.0168
5.5399e-08
-1.03234e-14
0.0168
1.53162e-07
-1.72853e-14
0.0168
3.51166e-07
-3.09479e-14
0.0167999
9.18491e-07
-5.60438e-14
0.0167996
2.07006e-06
-1.0172e-13
0.0167991
5.24301e-06
-2.33114e-13
0.0167969
1.27038e-05
-4.37071e-13
0.016797
2.92014e-05
-1.25682e-12
0.0167859
7.97155e-05
-2.47868e-12
0.0168004
0.000219443
-8.30973e-12
0.0167978
0.000632046
-2.09071e-11
0.0170984
0.00264142
-6.14602e-11
0.0164904
0.00992235
-8.57939e-11
0.0151221
0.0108728
-2.85798e-11
0.0140253
0.0102385
-6.54005e-12
0.0128075
0.0106186
-6.68824e-12
0.0114691
0.0115023
-7.10516e-12
0.00992492
0.0126313
-6.00563e-12
0.00814827
0.0138607
-4.53494e-12
0.00604125
0.0152666
-3.55463e-12
0.00343795
0.0169088
-3.09222e-12
0.018766
-2.00975e-12
0.0168001
1.31245e-09
-4.51702e-16
0.0168001
6.09666e-09
-2.458e-15
0.0168001
2.42859e-08
-5.14652e-15
0.0168001
5.86211e-08
-1.06019e-14
0.0168
1.70066e-07
-1.84274e-14
0.0168
3.74651e-07
-3.32292e-14
0.0167999
9.8845e-07
-6.43226e-14
0.0167997
2.26373e-06
-1.24245e-13
0.0167997
5.27584e-06
-2.3091e-13
0.0167996
1.27882e-05
-8.87706e-13
0.0167971
3.14413e-05
-5.47766e-13
0.0168079
6.88331e-05
-3.97364e-12
0.0167956
0.000230394
-5.41013e-12
0.0168033
0.000625175
-1.96607e-11
0.0169506
0.00248808
-5.07398e-11
0.0162627
0.0106008
-9.40303e-11
0.0156482
0.0114855
-1.00506e-11
0.0144951
0.0113923
-5.09117e-12
0.0133013
0.0118139
-5.99573e-12
0.0121572
0.0126473
-6.4453e-12
0.0107771
0.0140093
-6.64106e-12
0.00916352
0.015478
-5.15179e-12
0.00722099
0.0172088
-4.29152e-12
0.00451597
0.0196085
-3.03099e-12
0.0232797
-2.00574e-12
0.0168001
-4.43842e-16
1.79995e-09
0.0168001
-2.39794e-15
1.72441e-09
0.0168001
-4.92181e-15
2.43185e-08
0.0168001
-1.03811e-14
2.18006e-08
0.0168001
-1.65168e-14
1.66329e-07
0.0168003
-3.01614e-14
1.38799e-07
0.0168003
-5.2095e-14
1.0194e-06
0.0168019
-9.59084e-14
6.83068e-07
0.0168002
-2.01454e-13
6.95131e-06
0.0168107
-3.93684e-13
2.44492e-06
0.0167893
-1.00701e-12
5.2566e-05
0.0168497
-2.31264e-12
8.49492e-06
0.0167048
-4.90475e-12
0.000374362
0.0169918
-2.04702e-11
0.000337283
0.0168841
-4.05766e-11
0.00259233
0.0165037
-1.01797e-10
0.0109707
0.0156503
-5.79793e-12
0.0123378
0.014791
-3.02579e-12
0.0122519
0.01389
-6.47406e-12
0.0127154
0.0129012
-6.62638e-12
0.013638
0.0118333
-6.59127e-12
0.0150753
0.0105704
-5.89441e-12
0.016741
0.00881784
-4.57801e-12
0.0189621
0.00621903
-3.00526e-12
0.0222037
-1.96752e-12
0.0294963
0.0168001
1.74342e-10
1.7416e-16
0.0168001
9.47072e-10
1.81722e-16
0.0168001
3.52696e-09
-4.77252e-17
0.0168
9.03096e-09
-1.03352e-16
0.0168
2.50698e-08
-3.21061e-16
0.0168
5.71633e-08
-6.48086e-16
0.0167998
1.53476e-07
-2.13868e-15
0.0167995
3.32181e-07
-3.82935e-15
0.0167984
9.6395e-07
-1.5767e-14
0.0167965
1.99319e-06
-2.42635e-14
0.0167892
6.58032e-06
-1.15705e-13
0.0167742
1.48755e-05
-2.15063e-13
0.0167075
6.42658e-05
-1.03209e-12
0.0165222
0.000180513
-2.72965e-12
0.0154397
0.00106384
-8.45592e-12
0.0141463
0.00129697
1.08426e-12
0.0129038
0.0012454
2.23807e-13
0.0116143
0.00129062
-3.88393e-13
0.0102597
0.00135664
-3.88315e-13
0.00881613
0.00144416
-3.01483e-13
0.00726811
0.00154737
-1.17147e-13
0.00561094
0.00166027
1.10342e-13
0.00384085
0.00176561
1.34568e-13
0.00196797
0.00186822
1.25422e-13
0.0019677
1.58159e-13
0.0168001
3.42865e-10
1.73931e-16
0.0168001
1.85315e-09
1.82877e-16
0.0168001
6.90448e-09
-4.66258e-17
0.0168
1.76014e-08
-1.00756e-16
0.0168
4.90976e-08
-3.14019e-16
0.0168
1.11555e-07
-6.33818e-16
0.0167998
3.023e-07
-2.0989e-15
0.0167995
6.49522e-07
-3.75933e-15
0.0167984
1.91701e-06
-1.55292e-14
0.0167965
3.9352e-06
-2.39024e-14
0.0167892
1.32867e-05
-1.14508e-13
0.0167739
3.00313e-05
-2.12505e-13
0.0167052
0.000130548
-1.02138e-12
0.0165152
0.000365798
-2.69996e-12
0.0154474
0.00211293
-8.40563e-12
0.0141221
0.00262581
1.09405e-12
0.0128947
0.00247587
2.25818e-13
0.0116245
0.0025619
-3.91892e-13
0.0102796
0.00270357
-3.90985e-13
0.00882299
0.00290129
-3.03198e-13
0.00725518
0.00311462
-1.16759e-13
0.00558093
0.0033375
1.05798e-13
0.00379435
0.00354774
1.27443e-13
0.00191475
0.0037434
1.18988e-13
0.00388207
1.45911e-13
0.0168001
4.622e-10
1.73533e-16
0.0168001
2.52186e-09
1.85343e-16
0.0168001
9.38076e-09
-4.40906e-17
0.0168
2.39381e-08
-9.52734e-17
0.0168
6.65615e-08
-3.0061e-16
0.0168
1.5019e-07
-6.09054e-16
0.0167999
4.14854e-07
-2.03045e-15
0.0167997
8.39755e-07
-3.70707e-15
0.0167987
2.78931e-06
-1.50714e-14
0.0167977
4.9764e-06
-2.38142e-14
0.0167898
2.05725e-05
-1.12764e-13
0.0167769
4.27899e-05
-2.07978e-13
0.0167096
0.000195499
-9.99344e-13
0.0165314
0.000539377
-2.63614e-12
0.0155584
0.00306733
-8.31105e-12
0.0142064
0.00398142
1.11456e-12
0.0129774
0.00370795
2.38887e-13
0.0117179
0.00382251
-3.96067e-13
0.0103839
0.00403956
-3.93702e-13
0.00892776
0.00435791
-3.0494e-13
0.00735201
0.00468993
-1.22666e-13
0.00566097
0.00503105
8.85915e-14
0.00384633
0.00535821
1.02328e-13
0.00194216
0.00564309
8.81705e-14
0.00582378
1.33662e-13
0.0168001
5.7021e-10
1.70235e-16
0.0168001
3.16738e-09
1.97408e-16
0.0168001
1.174e-08
-2.87805e-17
0.0168
2.99691e-08
-5.95811e-17
0.0168
8.30799e-08
-1.91737e-16
0.0168
1.86676e-07
-3.48003e-16
0.0167999
5.18815e-07
-1.44277e-15
0.0167997
9.98993e-07
-1.13318e-15
0.0167988
3.67759e-06
-1.53805e-14
0.0167985
5.37832e-06
-1.34362e-15
0.0167899
2.84785e-05
-1.46027e-13
0.0167808
5.21303e-05
-1.42564e-13
0.0167226
0.000251359
-1.03603e-12
0.0165785
0.000679251
-2.52497e-12
0.0158176
0.0038098
-8.15959e-12
0.0144456
0.00535706
1.08487e-12
0.0131943
0.0049622
2.61451e-13
0.0119302
0.00508765
-3.94657e-13
0.0106004
0.00537152
-3.93967e-13
0.00914515
0.00581362
-3.04964e-13
0.00756433
0.00626998
-1.45675e-13
0.00586156
0.00673669
5.36597e-14
0.00401142
0.00720376
6.03043e-14
0.00202964
0.00761995
4.04265e-14
0.00785287
1.029e-13
0.0168001
7.89453e-10
1.70831e-16
0.0168001
4.26667e-09
1.95172e-16
0.0168001
1.58637e-08
-3.23821e-17
0.0168
4.05254e-08
-6.85216e-17
0.0168
1.12203e-07
-2.19009e-16
0.0167999
2.5617e-07
-4.24921e-16
0.0167998
6.8019e-07
-1.56486e-15
0.0167993
1.48144e-06
-2.00241e-15
0.0167986
4.3375e-06
-1.45409e-14
0.0167962
7.81673e-06
-6.27954e-15
0.0167923
3.17505e-05
-1.3093e-13
0.0167824
6.22052e-05
-1.41926e-13
0.016753
0.000278571
-9.39384e-13
0.0166705
0.000758006
-2.31669e-12
0.0163145
0.0041482
-7.70303e-12
0.0149224
0.00675229
7.60971e-13
0.0135987
0.00628872
1.86615e-13
0.0123034
0.00638369
-3.99125e-13
0.0109718
0.00670474
-4.00276e-13
0.00951625
0.00727029
-3.10786e-13
0.0079202
0.00786499
-1.80947e-13
0.00617824
0.00848164
1.01551e-14
0.00427083
0.00910653
8.88966e-15
0.0022001
0.00968548
-2.64931e-14
0.0100523
5.5166e-14
0.0168001
8.87045e-10
1.71548e-16
0.0168001
4.81683e-09
1.91696e-16
0.0168001
1.79248e-08
-3.79513e-17
0.0168
4.59019e-08
-8.25069e-17
0.0168
1.26842e-07
-2.5612e-16
0.0168
2.89955e-07
-5.32038e-16
0.0167999
7.62624e-07
-1.65957e-15
0.0167997
1.6893e-06
-3.33787e-15
0.0167994
4.59784e-06
-1.18851e-14
0.0167976
9.67639e-06
-1.62937e-14
0.0167971
3.17083e-05
-9.92833e-14
0.0167956
6.37001e-05
-1.36778e-13
0.0167975
0.000274769
-7.77969e-13
0.0168177
0.000734764
-1.9789e-12
0.0171343
0.00381596
-6.81823e-12
0.0157104
0.00817751
-7.69728e-14
0.0142052
0.00779637
-1.0923e-13
0.0128495
0.00774013
-4.39269e-13
0.0115003
0.00805539
-4.2537e-13
0.0100544
0.00871688
-3.19852e-13
0.00844321
0.00947291
-2.02191e-13
0.00666642
0.0102614
-4.62539e-14
0.00467494
0.0110941
-4.42109e-14
0.00243651
0.0119185
-9.49743e-14
0.0124879
-1.34142e-14
0.0168001
9.51241e-10
1.69661e-16
0.0168001
5.18703e-09
1.9881e-16
0.0168001
1.92912e-08
-3.10463e-17
0.0168001
4.9498e-08
-6.7384e-17
0.0168
1.36127e-07
-2.04615e-16
0.0168
3.11457e-07
-4.21889e-16
0.0168
8.11487e-07
-1.28474e-15
0.0167998
1.80665e-06
-2.5817e-15
0.0167996
4.75296e-06
-8.38624e-15
0.0167989
1.04759e-05
-1.53026e-14
0.0168006
2.96107e-05
-6.46139e-14
0.0167958
6.85681e-05
-9.39742e-14
0.0168338
0.000235304
-5.03015e-13
0.016936
0.000630075
-1.26969e-12
0.0177956
0.00294917
-3.5767e-12
0.0166441
0.00932339
-2.62283e-12
0.0149347
0.00950541
-8.87909e-13
0.0135339
0.00914145
-5.06363e-13
0.0121911
0.00939964
-4.67706e-13
0.0107457
0.0101633
-3.63824e-13
0.00913229
0.0110864
-2.47167e-13
0.00731183
0.0120834
-1.25804e-13
0.00524065
0.0131618
-8.34463e-14
0.00284288
0.0143112
-1.67138e-13
0.0153295
-7.09219e-14
0.0168001
1.05689e-09
1.69053e-16
0.0168001
5.77931e-09
2.01825e-16
0.0168001
2.15687e-08
-2.76429e-17
0.0168
5.53988e-08
-5.99377e-17
0.0168
1.53162e-07
-1.81517e-16
0.0168
3.51165e-07
-3.73644e-16
0.0167999
9.18487e-07
-1.13242e-15
0.0167996
2.07005e-06
-2.28778e-15
0.0167991
5.24301e-06
-7.18401e-15
0.0167969
1.27036e-05
-1.41795e-14
0.016797
2.92017e-05
-4.8286e-14
0.0167859
7.9715e-05
-9.79784e-14
0.0168004
0.000219445
-3.62806e-13
0.0167978
0.000632048
-9.4997e-13
0.0170984
0.00264144
-2.94409e-12
0.0164904
0.00992237
-4.46343e-12
0.0151221
0.0108728
-1.72205e-12
0.0140253
0.0102385
-5.18081e-13
0.0128075
0.0106186
-4.61797e-13
0.0114691
0.0115023
-3.73935e-13
0.00992492
0.0126313
-2.77261e-13
0.00814827
0.0138607
-1.46987e-13
0.00604124
0.0152666
-1.37253e-13
0.00343794
0.0169088
-2.28741e-13
0.018766
-1.36058e-13
0.0168001
1.31245e-09
1.70605e-16
0.0168001
6.0967e-09
1.98833e-16
0.0168001
2.4286e-08
-2.99375e-17
0.0168001
5.86213e-08
-6.42551e-17
0.0168
1.70067e-07
-2.04949e-16
0.0168
3.74652e-07
-4.22652e-16
0.0167999
9.88457e-07
-1.32448e-15
0.0167997
2.26374e-06
-2.93639e-15
0.0167997
5.27586e-06
-6.65412e-15
0.0167996
1.27883e-05
-2.87702e-14
0.0167971
3.14412e-05
-2.19908e-14
0.0168079
6.88337e-05
-1.47708e-13
0.0167956
0.000230395
-2.45916e-13
0.0168033
0.000625177
-8.59265e-13
0.0169506
0.00248809
-2.36656e-12
0.0162627
0.0106008
-4.6624e-12
0.0156482
0.0114855
-8.4776e-13
0.0144951
0.0113923
-5.35925e-13
0.0133013
0.0118139
-4.23289e-13
0.0121572
0.0126473
-3.78697e-13
0.0107771
0.0140093
-3.04686e-13
0.00916352
0.015478
-2.0331e-13
0.00722099
0.0172088
-1.81238e-13
0.00451597
0.0196085
-2.57108e-13
0.0232797
-1.19704e-13
0.0168001
1.69719e-16
1.79993e-09
0.0168001
2.06337e-16
1.72448e-09
0.0168001
-2.17281e-17
2.43183e-08
0.0168001
-4.7239e-17
2.1801e-08
0.0168001
-1.42628e-16
1.66329e-07
0.0168003
-2.96596e-16
1.38801e-07
0.0168003
-8.79117e-16
1.0194e-06
0.0168019
-1.88185e-15
6.83077e-07
0.0168002
-5.3657e-15
6.95134e-06
0.0168107
-1.13924e-14
2.445e-06
0.0167893
-3.52459e-14
5.25662e-05
0.0168497
-8.44659e-14
8.49528e-06
0.0167048
-2.00953e-13
0.000374363
0.0169918
-8.55161e-13
0.000337286
0.0168841
-1.85724e-12
0.00259234
0.0165037
-4.83328e-12
0.0109708
0.0156503
-6.89181e-13
0.0123378
0.014791
-4.74586e-13
0.0122519
0.01389
-4.3593e-13
0.0127154
0.0129012
-3.86911e-13
0.013638
0.0118333
-3.00246e-13
0.0150753
0.0105704
-2.46025e-13
0.016741
0.00881784
-1.826e-13
0.0189621
0.00621903
-1.84796e-13
0.0222037
-8.72661e-14
0.0294963
0.0168001
1.74342e-10
-8.88538e-18
0.0168001
9.47073e-10
-3.68222e-17
0.0168001
3.52696e-09
-1.1619e-16
0.0168
9.03096e-09
-2.26746e-16
0.0168
2.50698e-08
-5.93963e-16
0.0168
5.71633e-08
-1.09439e-15
0.0167998
1.53476e-07
-3.19409e-15
0.0167995
3.32181e-07
-5.58245e-15
0.0167984
9.6395e-07
-2.1641e-14
0.0167965
1.99319e-06
-3.34387e-14
0.0167892
6.58032e-06
-1.55216e-13
0.0167742
1.48755e-05
-2.87768e-13
0.0167075
6.42658e-05
-1.38e-12
0.0165222
0.000180513
-3.61369e-12
0.0154397
0.00106384
-1.14453e-11
0.0141463
0.00129697
1.58859e-12
0.0129038
0.00124541
3.66965e-13
0.0116143
0.00129062
-4.75676e-13
0.0102597
0.00135664
-4.44723e-13
0.00881613
0.00144416
-3.27835e-13
0.00726811
0.00154737
-1.10801e-13
0.00561094
0.00166027
2.52964e-13
0.00384085
0.00176561
-8.82465e-15
0.00196797
0.00186822
2.19125e-13
0.0019677
1.42548e-14
0.0168001
3.42865e-10
-8.7058e-18
0.0168001
1.85315e-09
-3.62818e-17
0.0168001
6.90449e-09
-1.14383e-16
0.0168
1.76014e-08
-2.23358e-16
0.0168
4.90977e-08
-5.86037e-16
0.0168
1.11555e-07
-1.07905e-15
0.0167998
3.023e-07
-3.15396e-15
0.0167995
6.49523e-07
-5.51386e-15
0.0167984
1.91701e-06
-2.14081e-14
0.0167965
3.9352e-06
-3.31014e-14
0.0167892
1.32867e-05
-1.54164e-13
0.0167739
3.00313e-05
-2.85422e-13
0.0167052
0.000130548
-1.36945e-12
0.0165152
0.000365798
-3.58236e-12
0.0154474
0.00211293
-1.13861e-11
0.0141221
0.00262581
1.60452e-12
0.0128947
0.00247587
3.73833e-13
0.0116245
0.0025619
-4.75525e-13
0.0102796
0.00270357
-4.42426e-13
0.00882299
0.00290129
-3.21259e-13
0.00725518
0.00311462
-1.02494e-13
0.00558093
0.0033375
2.56781e-13
0.00379435
0.00354774
-3.10309e-15
0.00191475
0.0037434
2.13935e-13
0.00388207
7.51471e-15
0.0168001
4.622e-10
-8.35259e-18
0.0168001
2.52187e-09
-3.47597e-17
0.0168001
9.38077e-09
-1.10505e-16
0.0168
2.39381e-08
-2.15972e-16
0.0168
6.65615e-08
-5.71236e-16
0.0168
1.5019e-07
-1.05438e-15
0.0167999
4.14854e-07
-3.08999e-15
0.0167997
8.39756e-07
-5.49769e-15
0.0167987
2.78931e-06
-2.0975e-14
0.0167977
4.97641e-06
-3.32873e-14
0.0167898
2.05725e-05
-1.52984e-13
0.0167769
4.27899e-05
-2.81555e-13
0.0167096
0.000195499
-1.34823e-12
0.0165314
0.000539378
-3.51614e-12
0.0155584
0.00306733
-1.12946e-11
0.0142064
0.00398142
1.64252e-12
0.0129774
0.00370795
4.01781e-13
0.0117179
0.00382251
-4.7553e-13
0.0103839
0.00403957
-4.40735e-13
0.00892775
0.00435791
-3.13995e-13
0.00735201
0.00468993
-1.04761e-13
0.00566097
0.00503105
2.4871e-13
0.00384633
0.00535821
-1.33437e-14
0.00194216
0.00564309
1.88754e-13
0.00582378
1.85286e-14
0.0168001
5.7021e-10
-5.75051e-18
0.0168001
3.16738e-09
-2.51882e-17
0.0168001
1.174e-08
-7.9162e-17
0.0168
2.99691e-08
-1.51132e-16
0.0168
8.30799e-08
-4.06396e-16
0.0168
1.86676e-07
-6.83978e-16
0.0167999
5.18815e-07
-2.32388e-15
0.0167997
9.98993e-07
-2.05837e-15
0.0167988
3.67759e-06
-2.16679e-14
0.0167985
5.37832e-06
-3.54945e-15
0.0167899
2.84785e-05
-1.99362e-13
0.0167808
5.21303e-05
-1.97953e-13
0.0167226
0.000251359
-1.41269e-12
0.0165785
0.000679251
-3.40191e-12
0.0158176
0.0038098
-1.11789e-11
0.0144456
0.00535706
1.61086e-12
0.0131943
0.0049622
4.59782e-13
0.0119302
0.00508765
-4.60913e-13
0.0106004
0.00537152
-4.30015e-13
0.00914515
0.00581362
-2.94282e-13
0.00756433
0.00626998
-1.39645e-13
0.00586156
0.00673669
2.2332e-13
0.00401142
0.00720376
-4.08087e-14
0.00202964
0.00761995
1.64173e-13
0.00785287
2.93446e-14
0.0168001
7.89453e-10
-6.61109e-18
0.0168001
4.26667e-09
-2.8141e-17
0.0168001
1.58637e-08
-8.9301e-17
0.0168
4.05254e-08
-1.7253e-16
0.0168
1.12203e-07
-4.58953e-16
0.0167999
2.5617e-07
-8.13983e-16
0.0167998
6.8019e-07
-2.5322e-15
0.0167993
1.48144e-06
-3.32218e-15
0.0167986
4.3375e-06
-2.08032e-14
0.0167962
7.81672e-06
-1.05773e-14
0.0167923
3.17505e-05
-1.81167e-13
0.0167824
6.22052e-05
-2.00266e-13
0.016753
0.000278571
-1.29674e-12
0.0166705
0.000758007
-3.16003e-12
0.0163145
0.0041482
-1.06585e-11
0.0149224
0.0067523
1.17377e-12
0.0135987
0.00628872
3.92848e-13
0.0123034
0.00638369
-4.49757e-13
0.0109718
0.00670474
-4.33626e-13
0.00951625
0.00727029