/*--------------------------------*- C++ -*----------------------------------*\
| =========                 |                                                 |
| \\      /  F ield         | OpenFOAM: The Open Source CFD Toolbox           |
|  \\    /   O peration     | Version:  4.1                                   |
|   \\  /    A nd           | Web:      www.OpenFOAM.org                      |
|    \\/     M anipulation  |                                                 |
\*---------------------------------------------------------------------------*/
FoamFile
{
    version     2.0;
    format      ascii;
    class       volScalarField;
    location    "3";
    object      T;
}
// * * * * * * * * * * * * * * * * * * * * * * * * * * * * * * * * * * * * * //

dimensions      [0 0 0 1 0 0 0];

internalField   nonuniform List<scalar> 
52500
(
0.999995
1.00002
1.00004
1.00015
1.00027
1.00087
1.00162
1.0048
1.01007
1.02597
1.07013
1.15514
1.48481
2.24562
2.63867
2.73268
2.72644
2.72065
2.73634
2.74587
2.76159
2.76767
2.77494
2.78624
2.79206
0.999995
1.00002
1.00004
1.00014
1.00027
1.00086
1.0016
1.00474
1.00992
1.02564
1.06903
1.15312
1.47646
2.23114
2.63469
2.73247
2.72608
2.71997
2.73552
2.74496
2.76041
2.76624
2.7736
2.78369
2.78896
0.999995
1.00002
1.00004
1.00014
1.00026
1.00084
1.00155
1.00462
1.00962
1.02497
1.06674
1.14895
1.45847
2.19905
2.62417
2.73074
2.72424
2.71749
2.73302
2.74247
2.75775
2.76311
2.77036
2.78121
2.78553
0.999995
1.00002
1.00004
1.00013
1.00025
1.00081
1.00149
1.00449
1.00915
1.02418
1.0629
1.14267
1.43024
2.14772
2.60691
2.72715
2.72044
2.71256
2.72807
2.73779
2.75341
2.7593
2.76499
2.77428
2.78084
0.999995
1.00001
1.00003
1.00013
1.00024
1.00078
1.00141
1.0044
1.00853
1.02352
1.05718
1.1344
1.39223
2.07516
2.58278
2.7212
2.71453
2.70384
2.71995
2.7278
2.7437
2.75051
2.75851
2.76835
2.77093
0.999995
1.00001
1.00003
1.00012
1.00022
1.00072
1.00131
1.0041
1.00785
1.02222
1.05125
1.12472
1.3503
1.98644
2.54905
2.71328
2.70638
2.69465
2.71209
2.71973
2.73334
2.73916
2.74458
2.75366
2.76101
0.999995
1.00001
1.00003
1.00011
1.0002
1.00066
1.00121
1.00377
1.00717
1.02059
1.04584
1.11572
1.30855
1.90337
2.49874
2.69689
2.68836
2.67845
2.69704
2.70673
2.72187
2.72537
2.73213
2.74094
2.74078
0.999995
1.00001
1.00002
1.0001
1.00018
1.0006
1.00109
1.00343
1.0065
1.01875
1.04157
1.10461
1.28013
1.80813
2.48823
2.68714
2.67706
2.66433
2.68037
2.68811
2.70307
2.70707
2.70702
2.71205
2.71627
0.999994
1.00001
1.00002
1.00009
1.00016
1.00053
1.00097
1.00303
1.00581
1.01614
1.03816
1.09037
1.25983
1.68157
2.45196
2.67372
2.66222
2.66094
2.66517
2.67041
2.68194
2.68626
2.68587
2.68319
2.66307
0.999994
1
1.00002
1.00007
1.00013
1.00043
1.00083
1.00234
1.00519
1.01279
1.03507
1.07683
1.2393
1.58481
2.3518
2.64104
2.65774
2.65429
2.65222
2.65554
2.6557
2.65377
2.64387
2.62505
2.58152
1
1.00002
1.00005
1.00015
1.00028
1.00088
1.00163
1.00481
1.01008
1.02599
1.07014
1.15518
1.48485
2.24575
2.63875
2.73275
2.72651
2.72072
2.73641
2.74595
2.76167
2.76775
2.77502
2.78631
2.79215
1
1.00002
1.00005
1.00015
1.00027
1.00087
1.00161
1.00475
1.00993
1.02566
1.06905
1.15316
1.4765
2.23127
2.63476
2.73254
2.72615
2.72004
2.7356
2.74504
2.76049
2.76632
2.77367
2.78376
2.78904
1
1.00002
1.00004
1.00015
1.00027
1.00085
1.00156
1.00463
1.00963
1.02499
1.06676
1.14899
1.45851
2.19918
2.62424
2.73081
2.72431
2.71756
2.7331
2.74254
2.75782
2.76318
2.77044
2.78128
2.78561
1
1.00002
1.00004
1.00014
1.00026
1.00082
1.0015
1.0045
1.00916
1.02421
1.0629
1.14271
1.43023
2.1478
2.60698
2.72722
2.72051
2.71262
2.72814
2.73786
2.75348
2.75938
2.76507
2.77435
2.78092
1
1.00002
1.00004
1.00014
1.00025
1.00078
1.00142
1.00441
1.00854
1.02354
1.05719
1.13443
1.39223
2.07524
2.58284
2.72127
2.7146
2.7039
2.72002
2.72787
2.74377
2.75058
2.75858
2.76842
2.771
1
1.00002
1.00004
1.00013
1.00023
1.00073
1.00132
1.00411
1.00786
1.02224
1.05126
1.12475
1.35031
1.98653
2.54911
2.71335
2.70645
2.69472
2.71216
2.71981
2.7334
2.73924
2.74465
2.75372
2.76109
1
1.00002
1.00004
1.00012
1.00021
1.00067
1.00122
1.00378
1.00718
1.0206
1.04585
1.11575
1.30857
1.90344
2.4988
2.69696
2.68842
2.67851
2.6971
2.70679
2.72194
2.72545
2.7322
2.74101
2.74085
1
1.00002
1.00003
1.00011
1.00019
1.00061
1.0011
1.00344
1.00651
1.01876
1.04158
1.10464
1.28015
1.80821
2.48828
2.6872
2.67714
2.6644
2.68043
2.68817
2.70314
2.70714
2.70709
2.71211
2.71634
1
1.00001
1.00003
1.00009
1.00017
1.00054
1.00097
1.00304
1.00582
1.01616
1.03816
1.09039
1.25982
1.68165
2.45201
2.67379
2.66226
2.66101
2.66524
2.67048
2.68199
2.68633
2.68593
2.68325
2.66313
1
1.00001
1.00002
1.00008
1.00014
1.00044
1.00084
1.00235
1.0052
1.0128
1.03508
1.07685
1.23931
1.58487
2.35186
2.64111
2.65778
2.65434
2.65228
2.65561
2.65576
2.65383
2.64393
2.6251
2.58157
1
1.00002
1.00005
1.00015
1.00028
1.00088
1.00163
1.00481
1.01008
1.02599
1.07014
1.15518
1.48485
2.24575
2.63875
2.73275
2.72651
2.72072
2.73641
2.74595
2.76167
2.76775
2.77502
2.78631
2.79215
1
1.00002
1.00005
1.00015
1.00027
1.00087
1.00161
1.00475
1.00993
1.02566
1.06905
1.15316
1.4765
2.23128
2.63476
2.73254
2.72615
2.72004
2.7356
2.74504
2.76049
2.76632
2.77367
2.78376
2.78904
1
1.00002
1.00004
1.00015
1.00027
1.00085
1.00156
1.00463
1.00963
1.02499
1.06676
1.14899
1.45851
2.19919
2.62425
2.73081
2.72432
2.71756
2.7331
2.74254
2.75782
2.76319
2.77044
2.78128
2.78561
1
1.00002
1.00004
1.00014
1.00026
1.00082
1.0015
1.0045
1.00916
1.02421
1.0629
1.14271
1.43023
2.14781
2.60699
2.72722
2.72051
2.71262
2.72814
2.73786
2.75348
2.75938
2.76507
2.77435
2.78092
1
1.00002
1.00004
1.00014
1.00025
1.00078
1.00142
1.00441
1.00854
1.02354
1.05719
1.13444
1.39223
2.07525
2.58285
2.72127
2.7146
2.7039
2.72002
2.72787
2.74377
2.75058
2.75858
2.76842
2.771
1
1.00002
1.00004
1.00013
1.00023
1.00073
1.00132
1.00411
1.00786
1.02224
1.05126
1.12475
1.35032
1.98654
2.54911
2.71335
2.70645
2.69472
2.71216
2.71981
2.7334
2.73924
2.74465
2.75372
2.76109
1
1.00002
1.00004
1.00012
1.00021
1.00067
1.00122
1.00378
1.00718
1.0206
1.04585
1.11575
1.30857
1.90344
2.4988
2.69696
2.68842
2.67851
2.6971
2.70679
2.72194
2.72545
2.7322
2.74101
2.74085
1
1.00002
1.00003
1.00011
1.00019
1.00061
1.0011
1.00344
1.00651
1.01876
1.04158
1.10464
1.28015
1.80821
2.48828
2.6872
2.67714
2.6644
2.68043
2.68817
2.70314
2.70714
2.70709
2.71211
2.71634
1
1.00001
1.00003
1.00009
1.00017
1.00054
1.00097
1.00304
1.00582
1.01616
1.03816
1.09039
1.25982
1.68165
2.45202
2.67379
2.66226
2.66101
2.66524
2.67048
2.68199
2.68633
2.68593
2.68325
2.66313
1
1.00001
1.00002
1.00008
1.00014
1.00044
1.00084
1.00235
1.0052
1.0128
1.03508
1.07685
1.23931
1.58487
2.35187
2.64111
2.65778
2.65434
2.65228
2.65561
2.65576
2.65383
2.64393
2.6251
2.58157
1
1.00002
1.00005
1.00015
1.00028
1.00088
1.00163
1.00481
1.01008
1.02599
1.07014
1.15518
1.48485
2.24575
2.63875
2.73275
2.72651
2.72072
2.73641
2.74595
2.76167
2.76775
2.77502
2.78631
2.79215
1
1.00002
1.00005
1.00015
1.00027
1.00087
1.00161
1.00475
1.00993
1.02566
1.06905
1.15316
1.4765
2.23128
2.63476
2.73254
2.72615
2.72004
2.7356
2.74504
2.76049
2.76632
2.77367
2.78376
2.78904
1
1.00002
1.00004
1.00015
1.00027
1.00085
1.00156
1.00463
1.00963
1.02499
1.06676
1.14899
1.45851
2.19919
2.62425
2.73081
2.72432
2.71756
2.7331
2.74254
2.75782
2.76319
2.77044
2.78128
2.78561
1
1.00002
1.00004
1.00014
1.00026
1.00082
1.0015
1.0045
1.00916
1.02421
1.0629
1.14271
1.43023
2.14781
2.60699
2.72722
2.72051
2.71262
2.72814
2.73786
2.75348
2.75938
2.76507
2.77435
2.78092
1
1.00002
1.00004
1.00014
1.00025
1.00078
1.00142
1.00441
1.00854
1.02354
1.05719
1.13444
1.39223
2.07525
2.58285
2.72127
2.7146
2.7039
2.72002
2.72787
2.74377
2.75058
2.75858
2.76842
2.771
1
1.00002
1.00004
1.00013
1.00023
1.00073
1.00132
1.00411
1.00786
1.02224
1.05126
1.12475
1.35032
1.98654
2.54911
2.71335
2.70645
2.69472
2.71216
2.71981
2.7334
2.73924
2.74465
2.75372
2.76109
1
1.00002
1.00004
1.00012
1.00021
1.00067
1.00122
1.00378
1.00718
1.0206
1.04585
1.11575
1.30857
1.90344
2.4988
2.69696
2.68842
2.67851
2.6971
2.70679
2.72194
2.72545
2.7322
2.74101
2.74085
1
1.00002
1.00003
1.00011
1.00019
1.00061
1.0011
1.00344
1.00651
1.01876
1.04158
1.10464
1.28015
1.80821
2.48828
2.6872
2.67714
2.6644
2.68043
2.68817
2.70314
2.70714
2.70709
2.71211
2.71634
1
1.00001
1.00003
1.00009
1.00017
1.00054
1.00097
1.00304
1.00582
1.01616
1.03816
1.09039
1.25982
1.68165
2.45202
2.67379
2.66226
2.66101
2.66524
2.67048
2.68199
2.68633
2.68593
2.68325
2.66313
1
1.00001
1.00002
1.00008
1.00014
1.00044
1.00084
1.00235
1.0052
1.0128
1.03508
1.07685
1.23931
1.58487
2.35187
2.64111
2.65778
2.65434
2.65228
2.65561
2.65576
2.65383
2.64393
2.6251
2.58157
1
1.00002
1.00005
1.00015
1.00028
1.00088
1.00163
1.00481
1.01008
1.02599
1.07014
1.15518
1.48485
2.24575
2.63875
2.73275
2.72651
2.72072
2.73641
2.74595
2.76167
2.76775
2.77502
2.78631
2.79215
1
1.00002
1.00005
1.00015
1.00027
1.00087
1.00161
1.00475
1.00993
1.02566
1.06905
1.15316
1.4765
2.23128
2.63476
2.73254
2.72615
2.72004
2.7356
2.74504
2.76049
2.76632
2.77367
2.78376
2.78904
1
1.00002
1.00004
1.00015
1.00027
1.00085
1.00156
1.00463
1.00963
1.02499
1.06676
1.14899
1.45851
2.19919
2.62425
2.73081
2.72432
2.71756
2.7331
2.74254
2.75782
2.76319
2.77044
2.78128
2.78561
1
1.00002
1.00004
1.00014
1.00026
1.00082
1.0015
1.0045
1.00916
1.02421
1.0629
1.14271
1.43023
2.14781
2.60699
2.72722
2.72051
2.71262
2.72814
2.73786
2.75348
2.75938
2.76507
2.77435
2.78092
1
1.00002
1.00004
1.00014
1.00025
1.00078
1.00142
1.00441
1.00854
1.02354
1.05719
1.13444
1.39223
2.07525
2.58285
2.72127
2.7146
2.7039
2.72002
2.72787
2.74377
2.75058
2.75858
2.76842
2.771
1
1.00002
1.00004
1.00013
1.00023
1.00073
1.00132
1.00411
1.00786
1.02224
1.05126
1.12475
1.35032
1.98654
2.54911
2.71335
2.70645
2.69472
2.71216
2.71981
2.7334
2.73924
2.74465
2.75372
2.76109
1
1.00002
1.00004
1.00012
1.00021
1.00067
1.00122
1.00378
1.00718
1.0206
1.04585
1.11575
1.30857
1.90344
2.4988
2.69696
2.68842
2.67851
2.6971
2.70679
2.72194
2.72545
2.7322
2.74101
2.74085
1
1.00002
1.00003
1.00011
1.00019
1.00061
1.0011
1.00344
1.00651
1.01876
1.04158
1.10464
1.28015
1.80821
2.48828
2.6872
2.67714
2.6644
2.68043
2.68817
2.70314
2.70714
2.70709
2.71211
2.71634
1
1.00001
1.00003
1.00009
1.00017
1.00054
1.00097
1.00304
1.00582
1.01616
1.03816
1.09039
1.25982
1.68165
2.45202
2.67379
2.66226
2.66101
2.66524
2.67048
2.68199
2.68633
2.68593
2.68325
2.66313
1
1.00001
1.00002
1.00008
1.00014
1.00044
1.00084
1.00235
1.0052
1.0128
1.03508
1.07685
1.23931
1.58487
2.35187
2.64111
2.65778
2.65434
2.65228
2.65561
2.65576
2.65383
2.64393
2.6251
2.58157
1
1.00002
1.00005
1.00015
1.00028
1.00088
1.00163
1.00481
1.01008
1.02599
1.07014
1.15518
1.48485
2.24575
2.63875
2.73275
2.72651
2.72072
2.73641
2.74595
2.76167
2.76775
2.77502
2.78631
2.79215
1
1.00002
1.00005
1.00015
1.00027
1.00087
1.00161
1.00475
1.00993
1.02566
1.06905
1.15316
1.4765
2.23128
2.63476
2.73254
2.72615
2.72004
2.7356
2.74504
2.76049
2.76632
2.77367
2.78376
2.78904
1
1.00002
1.00004
1.00015
1.00027
1.00085
1.00156
1.00463
1.00963
1.02499
1.06676
1.14899
1.45851
2.19919
2.62425
2.73081
2.72432
2.71756
2.7331
2.74254
2.75782
2.76319
2.77044
2.78128
2.78561
1
1.00002
1.00004
1.00014
1.00026
1.00082
1.0015
1.0045
1.00916
1.02421
1.0629
1.14271
1.43023
2.14781
2.60699
2.72722
2.72051
2.71262
2.72814
2.73786
2.75348
2.75938
2.76507
2.77435
2.78092
1
1.00002
1.00004
1.00014
1.00025
1.00078
1.00142
1.00441
1.00854
1.02354
1.05719
1.13444
1.39223
2.07525
2.58285
2.72127
2.7146
2.7039
2.72002
2.72787
2.74377
2.75058
2.75858
2.76842
2.771
1
1.00002
1.00004
1.00013
1.00023
1.00073
1.00132
1.00411
1.00786
1.02224
1.05126
1.12475
1.35032
1.98654
2.54911
2.71335
2.70645
2.69472
2.71216
2.71981
2.7334
2.73924
2.74465
2.75372
2.76109
1
1.00002
1.00004
1.00012
1.00021
1.00067
1.00122
1.00378
1.00718
1.0206
1.04585
1.11575
1.30857
1.90344
2.4988
2.69696
2.68842
2.67851
2.6971
2.70679
2.72194
2.72545
2.7322
2.74101
2.74085
1
1.00002
1.00003
1.00011
1.00019
1.00061
1.0011
1.00344
1.00651
1.01876
1.04158
1.10464
1.28015
1.80821
2.48828
2.6872
2.67714
2.6644
2.68043
2.68817
2.70314
2.70714
2.70709
2.71211
2.71634
1
1.00001
1.00003
1.00009
1.00017
1.00054
1.00097
1.00304
1.00582
1.01616
1.03816
1.09039
1.25982
1.68165
2.45202
2.67379
2.66226
2.66101
2.66524
2.67048
2.68199
2.68633
2.68593
2.68325
2.66313
1
1.00001
1.00002
1.00008
1.00014
1.00044
1.00084
1.00235
1.0052
1.0128
1.03508
1.07685
1.23931
1.58487
2.35187
2.64111
2.65778
2.65434
2.65228
2.65561
2.65576
2.65383
2.64393
2.6251
2.58157
1
1.00002
1.00005
1.00015
1.00028
1.00088
1.00163
1.00481
1.01008
1.02599
1.07014
1.15518
1.48485
2.24575
2.63875
2.73275
2.72651
2.72072
2.73641
2.74595
2.76167
2.76775
2.77502
2.78631
2.79215
1
1.00002
1.00005
1.00015
1.00027
1.00087
1.00161
1.00475
1.00993
1.02566
1.06905
1.15316
1.4765
2.23128
2.63476
2.73254
2.72615
2.72004
2.7356
2.74504
2.76049
2.76632
2.77367
2.78376
2.78904
1
1.00002
1.00004
1.00015
1.00027
1.00085
1.00156
1.00463
1.00963
1.02499
1.06676
1.14899
1.45851
2.19919
2.62425
2.73081
2.72432
2.71756
2.7331
2.74254
2.75782
2.76319
2.77044
2.78128
2.78561
1
1.00002
1.00004
1.00014
1.00026
1.00082
1.0015
1.0045
1.00916
1.02421
1.0629
1.14271
1.43023
2.14781
2.60699
2.72722
2.72051
2.71262
2.72814
2.73786
2.75348
2.75938
2.76507
2.77435
2.78092
1
1.00002
1.00004
1.00014
1.00025
1.00078
1.00142
1.00441
1.00854
1.02354
1.05719
1.13444
1.39223
2.07525
2.58285
2.72127
2.7146
2.7039
2.72002
2.72787
2.74377
2.75058
2.75858
2.76842
2.771
1
1.00002
1.00004
1.00013
1.00023
1.00073
1.00132
1.00411
1.00786
1.02224
1.05126
1.12475
1.35032
1.98654
2.54911
2.71335
2.70645
2.69472
2.71216
2.71981
2.7334
2.73924
2.74465
2.75372
2.76109
1
1.00002
1.00004
1.00012
1.00021
1.00067
1.00122
1.00378
1.00718
1.0206
1.04585
1.11575
1.30857
1.90344
2.4988
2.69696
2.68842
2.67851
2.6971
2.70679
2.72194
2.72545
2.7322
2.74101
2.74085
1
1.00002
1.00003
1.00011
1.00019
1.00061
1.0011
1.00344
1.00651
1.01876
1.04158
1.10464
1.28015
1.80821
2.48828
2.6872
2.67714
2.6644
2.68043
2.68817
2.70314
2.70714
2.70709
2.71211
2.71634
1
1.00001
1.00003
1.00009
1.00017
1.00054
1.00097
1.00304
1.00582
1.01616
1.03816
1.09039
1.25982
1.68165
2.45202
2.67379
2.66226
2.66101
2.66524
2.67048
2.68199
2.68633
2.68593
2.68325
2.66313
1
1.00001
1.00002
1.00008
1.00014
1.00044
1.00084
1.00235
1.0052
1.0128
1.03508
1.07685
1.23931
1.58487
2.35187
2.64111
2.65778
2.65434
2.65228
2.65561
2.65576
2.65383
2.64393
2.6251
2.58157
1
1.00002
1.00005
1.00015
1.00028
1.00088
1.00163
1.00481
1.01008
1.02599
1.07014
1.15518
1.48485
2.24575
2.63875
2.73275
2.72651
2.72072
2.73641
2.74595
2.76167
2.76775
2.77502
2.78631
2.79215
1
1.00002
1.00005
1.00015
1.00027
1.00087
1.00161
1.00475
1.00993
1.02566
1.06905
1.15316
1.4765
2.23128
2.63476
2.73254
2.72615
2.72004
2.7356
2.74504
2.76049
2.76632
2.77367
2.78376
2.78904
1
1.00002
1.00004
1.00015
1.00027
1.00085
1.00156
1.00463
1.00963
1.02499
1.06676
1.14899
1.45851
2.19919
2.62425
2.73081
2.72432
2.71756
2.7331
2.74254
2.75782
2.76319
2.77044
2.78128
2.78561
1
1.00002
1.00004
1.00014
1.00026
1.00082
1.0015
1.0045
1.00916
1.02421
1.0629
1.14271
1.43023
2.14781
2.60699
2.72722
2.72051
2.71262
2.72814
2.73786
2.75348
2.75938
2.76507
2.77435
2.78092
1
1.00002
1.00004
1.00014
1.00025
1.00078
1.00142
1.00441
1.00854
1.02354
1.05719
1.13444
1.39223
2.07525
2.58285
2.72127
2.7146
2.7039
2.72002
2.72787
2.74377
2.75058
2.75858
2.76842
2.771
1
1.00002
1.00004
1.00013
1.00023
1.00073
1.00132
1.00411
1.00786
1.02224
1.05126
1.12475
1.35032
1.98654
2.54911
2.71335
2.70645
2.69472
2.71216
2.71981
2.7334
2.73924
2.74465
2.75372
2.76109
1
1.00002
1.00004
1.00012
1.00021
1.00067
1.00122
1.00378
1.00718
1.0206
1.04585
1.11575
1.30857
1.90344
2.4988
2.69696
2.68842
2.67851
2.6971
2.70679
2.72194
2.72545
2.7322
2.74101
2.74085
1
1.00002
1.00003
1.00011
1.00019
1.00061
1.0011
1.00344
1.00651
1.01876
1.04158
1.10464
1.28015
1.80821
2.48828
2.6872
2.67714
2.6644
2.68043
2.68817
2.70314
2.70714
2.70709
2.71211
2.71634
1
1.00001
1.00003
1.00009
1.00017
1.00054
1.00097
1.00304
1.00582
1.01616
1.03816
1.09039
1.25982
1.68165
2.45202
2.67379
2.66226
2.66101
2.66524
2.67048
2.68199
2.68633
2.68593
2.68325
2.66313
1
1.00001
1.00002
1.00008
1.00014
1.00044
1.00084
1.00235
1.0052
1.0128
1.03508
1.07685
1.23931
1.58487
2.35187
2.64111
2.65778
2.65434
2.65228
2.65561
2.65576
2.65383
2.64393
2.6251
2.58157
1
1.00002
1.00005
1.00015
1.00028
1.00088
1.00163
1.00481
1.01008
1.02599
1.07014
1.15518
1.48485
2.24575
2.63875
2.73275
2.72651
2.72072
2.73641
2.74595
2.76167
2.76775
2.77502
2.78631
2.79215
1
1.00002
1.00005
1.00015
1.00027
1.00087
1.00161
1.00475
1.00993
1.02566
1.06905
1.15316
1.4765
2.23127
2.63476
2.73254
2.72615
2.72004
2.7356
2.74504
2.76049
2.76632
2.77367
2.78376
2.78904
1
1.00002
1.00004
1.00015
1.00027
1.00085
1.00156
1.00463
1.00963
1.02499
1.06676
1.14899
1.45851
2.19918
2.62424
2.73081
2.72431
2.71756
2.7331
2.74254
2.75782
2.76318
2.77044
2.78128
2.78561
1
1.00002
1.00004
1.00014
1.00026
1.00082
1.0015
1.0045
1.00916
1.02421
1.0629
1.14271
1.43023
2.1478
2.60698
2.72722
2.72051
2.71262
2.72814
2.73786
2.75348
2.75938
2.76507
2.77435
2.78092
1
1.00002
1.00004
1.00014
1.00025
1.00078
1.00142
1.00441
1.00854
1.02354
1.05719
1.13443
1.39223
2.07524
2.58284
2.72127
2.7146
2.7039
2.72002
2.72787
2.74377
2.75058
2.75858
2.76842
2.771
1
1.00002
1.00004
1.00013
1.00023
1.00073
1.00132
1.00411
1.00786
1.02224
1.05126
1.12475
1.35031
1.98653
2.54911
2.71335
2.70645
2.69472
2.71216
2.71981
2.7334
2.73924
2.74465
2.75372
2.76109
1
1.00002
1.00004
1.00012
1.00021
1.00067
1.00122
1.00378
1.00718
1.0206
1.04585
1.11575
1.30857
1.90344
2.4988
2.69696
2.68842
2.67851
2.6971
2.70679
2.72194
2.72545
2.7322
2.74101
2.74085
1
1.00002
1.00003
1.00011
1.00019
1.00061
1.0011
1.00344
1.00651
1.01876
1.04158
1.10464
1.28015
1.80821
2.48828
2.6872
2.67714
2.6644
2.68043
2.68817
2.70314
2.70714
2.70709
2.71211
2.71634
1
1.00001
1.00003
1.00009
1.00017
1.00054
1.00097
1.00304
1.00582
1.01616
1.03816
1.09039
1.25982
1.68165
2.45201
2.67379
2.66226
2.66101
2.66524
2.67048
2.68199
2.68633
2.68593
2.68325
2.66313
1
1.00001
1.00002
1.00008
1.00014
1.00044
1.00084
1.00235
1.0052
1.0128
1.03508
1.07685
1.23931
1.58487
2.35186
2.64111
2.65778
2.65434
2.65228
2.65561
2.65576
2.65383
2.64393
2.6251
2.58157
0.999995
1.00002
1.00004
1.00015
1.00027
1.00087
1.00162
1.0048
1.01007
1.02597
1.07013
1.15514
1.48481
2.24562
2.63867
2.73268
2.72644
2.72065
2.73634
2.74587
2.76159
2.76767
2.77494
2.78624
2.79206
0.999995
1.00002
1.00004
1.00014
1.00027
1.00086
1.0016
1.00474
1.00992
1.02564
1.06903
1.15312
1.47646
2.23114
2.63469
2.73247
2.72608
2.71997
2.73552
2.74496
2.76041
2.76624
2.7736
2.78369
2.78896
0.999995
1.00002
1.00004
1.00014
1.00026
1.00084
1.00155
1.00462
1.00962
1.02497
1.06674
1.14895
1.45847
2.19905
2.62417
2.73074
2.72424
2.71749
2.73302
2.74247
2.75775
2.76311
2.77036
2.78121
2.78553
0.999995
1.00002
1.00004
1.00013
1.00025
1.00081
1.00149
1.00449
1.00915
1.02418
1.0629
1.14267
1.43024
2.14772
2.60691
2.72715
2.72044
2.71256
2.72807
2.73779
2.75341
2.7593
2.76499
2.77428
2.78084
0.999995
1.00001
1.00003
1.00013
1.00024
1.00078
1.00141
1.0044
1.00853
1.02352
1.05718
1.1344
1.39223
2.07516
2.58278
2.7212
2.71453
2.70384
2.71995
2.7278
2.7437
2.75051
2.75851
2.76835
2.77093
0.999995
1.00001
1.00003
1.00012
1.00022
1.00072
1.00131
1.0041
1.00785
1.02222
1.05125
1.12472
1.3503
1.98644
2.54905
2.71328
2.70638
2.69465
2.71209
2.71973
2.73334
2.73916
2.74458
2.75366
2.76101
0.999995
1.00001
1.00003
1.00011
1.0002
1.00066
1.00121
1.00377
1.00717
1.02059
1.04584
1.11572
1.30855
1.90337
2.49874
2.69689
2.68836
2.67845
2.69704
2.70673
2.72187
2.72537
2.73213
2.74094
2.74078
0.999995
1.00001
1.00002
1.0001
1.00018
1.0006
1.00109
1.00343
1.0065
1.01875
1.04157
1.10461
1.28013
1.80813
2.48823
2.68714
2.67706
2.66433
2.68037
2.68811
2.70307
2.70707
2.70702
2.71205
2.71627
0.999994
1.00001
1.00002
1.00009
1.00016
1.00053
1.00097
1.00303
1.00581
1.01614
1.03816
1.09037
1.25983
1.68157
2.45196
2.67372
2.66222
2.66094
2.66517
2.67041
2.68194
2.68626
2.68587
2.68319
2.66307
0.999994
1
1.00002
1.00007
1.00013
1.00043
1.00083
1.00234
1.00519
1.01279
1.03507
1.07683
1.2393
1.58481
2.3518
2.64104
2.65774
2.65429
2.65222
2.65554
2.6557
2.65377
2.64387
2.62505
2.58152
0.999996
1
1.00002
1.00005
1.00016
1.0003
1.00095
1.00184
1.00517
1.01156
1.02865
1.08008
1.17434
1.54309
2.32381
2.57751
2.64208
2.63783
2.63511
2.6377
2.63599
2.62742
2.60486
2.55198
2.36323
0.999996
0.999999
1.00002
1.00004
1.00014
1.00026
1.00085
1.00157
1.00464
1.00969
1.02508
1.06711
1.14949
1.45853
2.1908
2.53056
2.63375
2.62618
2.61359
2.60994
2.60386
2.58704
2.55139
2.48714
2.29435
0.999995
0.999998
1.00001
1.00003
1.00012
1.00023
1.00074
1.00134
1.00419
1.00802
1.02259
1.05277
1.12648
1.35983
1.99253
2.45276
2.6163
2.61041
2.60144
2.59053
2.58064
2.55975
2.51243
2.4471
2.29019
0.999995
0.999997
1.00001
1.00003
1.0001
1.00019
1.00061
1.00111
1.00346
1.00653
1.01896
1.04088
1.10653
1.26861
1.80618
2.34469
2.57675
2.57417
2.57163
2.56038
2.54458
2.51855
2.47543
2.42195
2.30142
0.999994
0.999997
1.00001
1.00002
1.00008
1.00015
1.00048
1.00088
1.0027
1.00531
1.01439
1.03452
1.0813
1.22925
1.60608
2.27254
2.53777
2.55469
2.55285
2.54538
2.52563
2.49729
2.43527
2.3896
2.30099
0.999994
0.999997
1
1.00002
1.00004
1.00015
1.00029
1.00089
1.00172
1.00475
1.01077
1.02617
1.07369
1.15791
1.50063
2.20812
2.45214
2.51973
2.51279
2.51011
2.50087
2.48069
2.42929
2.36588
2.29414
0.999994
0.999996
0.999999
1.00002
1.00003
1.00013
1.00023
1.00076
1.00138
1.00429
1.00824
1.02283
1.05459
1.12845
1.36893
1.99741
2.3875
2.50602
2.50008
2.4878
2.46183
2.4433
2.41443
2.35814
2.29082
0.999993
0.999995
0.999997
1.00001
1.00002
1.00009
1.00018
1.00057
1.00106
1.00325
1.00625
1.01781
1.03889
1.10053
1.25139
1.75795
2.23464
2.4639
2.47235
2.46741
2.45092
2.41828
2.38568
2.33955
2.28129
0.999993
0.999993
0.999997
1
1.00002
1.00005
1.00017
1.00032
1.00101
1.00191
1.00547
1.01173
1.02964
1.07982
1.17529
1.52275
2.19643
2.405
2.43754
2.42864
2.4214
2.40206
2.37277
2.33161
2.27809
0.999992
0.999993
0.999996
0.999999
1.00002
1.00004
1.00013
1.00024
1.00077
1.00143
1.00421
1.00874
1.02265
1.05908
1.13332
1.39123
2.02728
2.33639
2.41834
2.41224
2.39359
2.36957
2.34241
2.31188
2.26912
0.999992
0.999992
0.999993
0.999998
1
1.00003
1.00007
1.00022
1.00042
1.00126
1.00251
1.00669
1.0159
1.03759
1.1059
1.2363
1.67202
2.18052
2.38427
2.38932
2.38003
2.35817
2.3271
2.29446
2.26022
0.999992
0.999992
0.999993
0.999996
1
1.00002
1.00005
1.00016
1.0003
1.00096
1.00179
1.00519
1.01094
1.02781
1.07408
1.16228
1.48213
2.09983
2.32246
2.35718
2.35042
2.33421
2.30687
2.27376
2.2399
0.999991
0.999992
0.999993
0.999994
1
1.00001
1.00004
1.00008
1.00027
1.00052
1.00147
1.00315
1.00789
1.02052
1.04631
1.13527
1.30203
1.84152
2.21929
2.33316
2.33169
2.3206
2.29833
2.26586
2.23214
0.999991
0.999991
0.999992
0.999993
0.999997
1
1.00003
1.00006
1.0002
1.00037
1.00116
1.00214
1.00643
1.0128
1.03396
1.08278
1.20017
1.51279
2.10332
2.27223
2.2923
2.28876
2.27596
2.24962
2.21793
0.999991
0.999991
0.999991
0.999993
0.999994
1
1.00001
1.00005
1.0001
1.00032
1.0006
1.00182
1.00356
1.0096
1.02228
1.05312
1.14701
1.34499
1.85888
2.19854
2.27345
2.27124
2.26092
2.24084
2.20838
0.999991
0.999991
0.999991
0.999992
0.999993
0.999998
1
1.00003
1.00006
1.00022
1.0004
1.00126
1.00234
1.00686
1.01395
1.03607
1.09008
1.21217
1.53791
2.03376
2.22644
2.23922
2.23581
2.22196
2.19654
0.999991
0.999991
0.999991
0.999991
0.999993
0.999995
1
1.00001
1.00005
1.00011
1.00035
1.00065
1.00196
1.00378
1.01058
1.02315
1.05673
1.14705
1.36908
1.85188
2.15267
2.21734
2.21588
2.20533
2.18708
0.999991
0.999991
0.999991
0.999991
0.999992
0.999993
0.999998
1
1.00003
1.00007
1.00023
1.00042
1.00129
1.00241
1.00692
1.01445
1.03646
1.09509
1.21225
1.56613
1.99153
2.17312
2.18849
2.18515
2.17091
0.999991
0.999991
0.999991
0.999991
0.999991
0.999993
0.999995
1
1.00001
1.00006
1.00011
1.00035
1.00066
1.00196
1.00384
1.01059
1.0231
1.05778
1.14181
1.38203
1.81071
2.08636
2.15738
2.16212
2.15593
0.999991
0.999991
0.999991
0.999991
0.999991
0.999992
0.999994
0.999997
1.00001
1.00002
1.00009
1.00017
1.00053
1.001
1.00295
1.00577
1.01574
1.03479
1.08618
1.21228
1.58605
1.94438
2.10986
2.12967
2.12856
0.999991
0.999991
0.999991
0.999991
0.999991
0.999991
0.999993
0.999994
1
1.00001
1.00005
1.00011
1.00034
1.00063
1.00191
1.00359
1.01024
1.02139
1.05385
1.13171
1.33701
1.75747
2.03197
2.10234
2.10699
0.999991
0.999991
0.999991
0.999991
0.999991
0.999991
0.999992
0.999994
0.999996
1.00001
1.00002
1.00008
1.00016
1.00049
1.00092
1.00269
1.00526
1.01432
1.03096
1.0785
1.18458
1.5211
1.87482
2.05842
2.07648
0.999991
0.999991
0.999991
0.999991
0.999991
0.999991
0.999991
0.999993
0.999994
1
1.00001
1.00005
1.00009
1.00031
1.00056
1.00173
1.00319
1.00933
1.01864
1.04831
1.11574
1.2857
1.68335
1.96931
2.05304
0.999991
0.999991
0.999991
0.999991
0.999991
0.999991
0.999991
0.999992
0.999993
0.999997
1
1.00003
1.00005
1.00018
1.00034
1.00104
1.0019
1.0056
1.01086
1.02905
1.06561
1.15982
1.39104
1.82055
1.99583
0.999991
0.999991
0.999991
0.999991
0.999991
0.999991
0.999991
0.999991
0.999992
0.999994
0.999998
1.00001
1.00003
1.00011
1.0002
1.00062
1.00114
1.00339
1.00647
1.01776
1.03934
1.09362
1.24282
1.63277
1.8807
0.999991
0.999991
0.999991
0.999991
0.999991
0.999991
0.999991
0.999991
0.999992
0.999992
0.999996
1
1.00002
1.00004
1.00014
1.00027
1.00082
1.00156
1.00438
1.00909
1.02283
1.05739
1.12607
1.34427
1.75694
0.999991
0.999991
0.999991
0.999991
0.999991
0.999991
0.999991
0.999991
0.999991
0.999992
0.999993
0.999998
1
1.00003
1.00006
1.0002
1.00038
1.0011
1.00213
1.00577
1.0124
1.03031
1.07656
1.17124
1.43292
0.999991
0.999991
0.999991
0.999991
0.999991
0.999991
0.999991
0.999991
0.999991
0.999991
0.999992
0.999994
1
1.00001
1.00004
1.00009
1.00028
1.00052
1.00153
1.00292
1.00827
1.01656
1.04448
1.09908
1.26354
0.999991
0.999991
0.999991
0.999991
0.999991
0.999991
0.999991
0.999991
0.999991
0.999991
0.999992
0.999993
0.999996
1
1.00002
1.00005
1.00016
1.00029
1.00089
1.00163
1.0048
1.00923
1.02472
1.05542
1.13172
0.999991
0.999991
0.999991
0.999991
0.999991
0.999991
0.999991
0.999991
0.999991
0.999991
0.999991
0.999992
0.999993
0.999998
1
1.00003
1.00006
1.0002
1.00038
1.00111
1.00212
1.00584
1.0122
1.03013
1.07438
0.999991
0.999991
0.999991
0.999991
0.999991
0.999991
0.999991
0.999991
0.999991
0.999991
0.999991
0.999991
0.999992
0.999994
1
1.00001
1.00004
1.00009
1.00027
1.00051
1.00147
1.00284
1.00772
1.01625
1.04069
0.999991
0.999991
0.999991
0.999991
0.999991
0.999991
0.999991
0.999991
0.999991
0.999991
0.999991
0.999991
0.999991
0.999993
0.999995
1
1.00001
1.00006
1.00011
1.00035
1.00066
1.00188
1.00367
1.00992
1.02059
0.999991
0.999991
0.999991
0.999991
0.999991
0.999991
0.999991
0.999991
0.999991
0.999991
0.999991
0.999991
0.999991
0.999992
0.999993
0.999997
1
1.00003
1.00006
1.00019
1.00035
1.00103
1.00192
1.00539
1.01066
0.999991
0.999991
0.999991
0.999991
0.999991
0.999991
0.999991
0.999991
0.999991
0.999991
0.999991
0.999991
0.999991
0.999991
0.999992
0.999994
0.999999
1.00001
1.00004
1.00007
1.00023
1.00044
1.00127
1.00243
1.00667
0.999991
0.999991
0.999991
0.999991
0.999991
0.999991
0.999991
0.999991
0.999991
0.999991
0.999991
0.999991
0.999991
0.999991
0.999991
0.999993
0.999994
1
1.00001
1.00005
1.0001
1.0003
1.00057
1.00161
1.00313
0.999991
0.999991
0.999991
0.999991
0.999991
0.999991
0.999991
0.999991
0.999991
0.999991
0.999991
0.999991
0.999991
0.999991
0.999991
0.999992
0.999993
0.999995
1
1.00002
1.00006
1.00013
1.00039
1.00074
1.00208
0.999991
0.999991
0.999991
0.999991
0.999991
0.999991
0.999991
0.999991
0.999991
0.999991
0.999991
0.999991
0.999991
0.999991
0.999991
0.999991
0.999992
0.999994
0.999998
1.00001
1.00003
1.0001
1.00019
1.00059
1.0011
0.999991
0.999991
0.999991
0.999991
0.999991
0.999991
0.999991
0.999991
0.999991
0.999991
0.999991
0.999991
0.999991
0.999991
0.999991
0.999991
0.999992
0.999993
0.999996
1.00001
1.00002
1.00008
1.00014
1.00046
1.00087
0.999991
0.999991
0.999991
0.999991
0.999991
0.999991
0.999991
0.999991
0.999991
0.999991
0.999991
0.999991
0.999991
0.999991
0.999991
0.999991
0.999992
0.999992
0.999996
1
1.00002
1.00005
1.00017
1.00032
1.00101
0.999991
0.999991
0.999991
0.999991
0.999991
0.999991
0.999991
0.999991
0.999991
0.999991
0.999991
0.999991
0.999991
0.999991
0.999991
0.999991
0.999992
0.999992
0.999996
1
1.00002
1.00005
1.00017
1.00031
1.00101
1
1.00001
1.00003
1.00005
1.00017
1.00031
1.00096
1.00185
1.00518
1.01157
1.02867
1.08009
1.17438
1.54311
2.3239
2.57759
2.64214
2.63787
2.63516
2.63776
2.63605
2.62748
2.60492
2.55203
2.36326
1
1.00001
1.00003
1.00005
1.00015
1.00027
1.00085
1.00158
1.00465
1.0097
1.02509
1.06712
1.14953
1.45856
2.1909
2.53063
2.6338
2.62623
2.61364
2.60999
2.60391
2.58709
2.55144
2.48719
2.29438
1
1.00001
1.00002
1.00004
1.00013
1.00023
1.00075
1.00135
1.0042
1.00803
1.0226
1.05277
1.12651
1.35984
1.99261
2.45282
2.61636
2.61047
2.60149
2.59059
2.58069
2.5598
2.51247
2.44714
2.29022
1
1.00001
1.00002
1.00003
1.00011
1.00019
1.00062
1.00112
1.00347
1.00654
1.01897
1.04089
1.10655
1.26863
1.80624
2.34475
2.57681
2.57423
2.57169
2.56042
2.54463
2.5186
2.47548
2.422
2.30146
1
1
1.00001
1.00003
1.00009
1.00016
1.00049
1.00089
1.00271
1.00531
1.01441
1.03452
1.08133
1.22924
1.60614
2.2726
2.53783
2.55475
2.5529
2.54543
2.52567
2.49733
2.4353
2.38964
2.30102
1
1
1.00001
1.00003
1.00005
1.00016
1.0003
1.0009
1.00173
1.00476
1.01078
1.02618
1.0737
1.15795
1.50064
2.2082
2.4522
2.51978
2.51284
2.51016
2.50092
2.48073
2.42933
2.36591
2.29417
1
1
1.00001
1.00002
1.00004
1.00013
1.00024
1.00077
1.00138
1.0043
1.00825
1.02285
1.05459
1.12848
1.36892
1.99747
2.38756
2.50607
2.50013
2.48785
2.46187
2.44335
2.41447
2.35817
2.29085
1
1
1.00001
1.00002
1.00003
1.0001
1.00019
1.00058
1.00107
1.00326
1.00626
1.01782
1.0389
1.10055
1.2514
1.75799
2.23469
2.46395
2.4724
2.46746
2.45097
2.41833
2.38572
2.33958
2.28132
1
1
1.00001
1.00001
1.00003
1.00006
1.00018
1.00033
1.00102
1.00192
1.00548
1.01174
1.02966
1.07983
1.17532
1.52278
2.19651
2.40505
2.43757
2.42867
2.42144
2.40211
2.37281