/*--------------------------------*- C++ -*----------------------------------*\
| =========                 |                                                 |
| \\      /  F ield         | OpenFOAM: The Open Source CFD Toolbox           |
|  \\    /   O peration     | Version:  4.1                                   |
|   \\  /    A nd           | Web:      www.OpenFOAM.org                      |
|    \\/     M anipulation  |                                                 |
\*---------------------------------------------------------------------------*/
FoamFile
{
    version     2.0;
    format      ascii;
    class       volVectorField;
    location    "3";
    object      U;
}
// * * * * * * * * * * * * * * * * * * * * * * * * * * * * * * * * * * * * * //

dimensions      [0 1 -1 0 0 0 0];

internalField   nonuniform List<vector> 
52500
(
(3 1.2712e-08 -0.00571425)
(2.99998 7.03343e-08 -0.00571438)
(2.99996 2.62907e-07 -0.00571457)
(2.9999 6.7229e-07 -0.00571518)
(2.99977 1.86906e-06 -0.00571629)
(2.99941 4.25657e-06 -0.00571965)
(2.9987 1.14088e-05 -0.00572627)
(2.99646 2.46277e-05 -0.00574388)
(2.99261 7.08845e-05 -0.00578835)
(2.97781 0.00014494 -0.00587433)
(2.95228 0.000460108 -0.0062168)
(2.85315 0.000978253 -0.00667933)
(2.59043 0.00360641 -0.00905514)
(1.9423 0.00861764 -0.0135298)
(0.872689 0.0248925 -0.0174956)
(0.444087 0.0234444 -0.0185203)
(0.538605 0.0239153 -0.0185276)
(0.567089 0.0259001 -0.0185499)
(0.5145 0.0278664 -0.0187431)
(0.424161 0.0298367 -0.0189106)
(0.337394 0.0321789 -0.0191242)
(0.267382 0.0350478 -0.0192743)
(0.19854 0.0381978 -0.0194388)
(0.119221 0.0418418 -0.0196384)
(0.0506625 0.0460318 -0.0198075)
(3 3.78687e-08 -0.00571425)
(2.99998 2.09061e-07 -0.00571438)
(2.99996 7.83279e-07 -0.00571457)
(2.9999 2.00157e-06 -0.00571517)
(2.99978 5.58309e-06 -0.00571626)
(2.99941 1.27175e-05 -0.00571958)
(2.99872 3.42613e-05 -0.00572609)
(2.99651 7.39237e-05 -0.0057435)
(2.99271 0.000214749 -0.0057872)
(2.97813 0.00043841 -0.00587215)
(2.95299 0.00140967 -0.0062087)
(2.85554 0.0029924 -0.00666531)
(2.59754 0.0111738 -0.00899392)
(1.95851 0.0267873 -0.0134114)
(0.882102 0.0760379 -0.0173689)
(0.440688 0.0680137 -0.0184401)
(0.538238 0.0663272 -0.0184476)
(0.567721 0.0697953 -0.0184613)
(0.514746 0.0731697 -0.018647)
(0.424342 0.076547 -0.0188078)
(0.337595 0.0804211 -0.0190136)
(0.267074 0.0848801 -0.0191556)
(0.197208 0.0891185 -0.0193141)
(0.116752 0.0932279 -0.019498)
(0.0480821 0.0963773 -0.0196555)
(3 5.91498e-08 -0.00571425)
(2.99999 3.26066e-07 -0.00571438)
(2.99996 1.22208e-06 -0.00571456)
(2.9999 3.11337e-06 -0.00571514)
(2.99978 8.69758e-06 -0.0057162)
(2.99943 1.97048e-05 -0.00571943)
(2.99875 5.38659e-05 -0.00572575)
(2.99661 0.000112288 -0.00574273)
(2.99292 0.000350679 -0.0057849)
(2.97879 0.000663162 -0.00586783)
(2.95446 0.002414 -0.00619216)
(2.8606 0.00490664 -0.00663759)
(2.61281 0.0190341 -0.00886799)
(1.99444 0.0456623 -0.0131753)
(0.904604 0.130985 -0.0171765)
(0.437453 0.115814 -0.0183437)
(0.540945 0.111482 -0.0183524)
(0.57286 0.11735 -0.0183553)
(0.519646 0.123587 -0.0185341)
(0.42954 0.13046 -0.0186875)
(0.343068 0.137796 -0.0188848)
(0.272014 0.145823 -0.0190169)
(0.200909 0.153691 -0.0191682)
(0.118768 0.160864 -0.0193516)
(0.0482525 0.16504 -0.0195005)
(3 7.56843e-08 -0.00571425)
(2.99999 4.17495e-07 -0.00571437)
(2.99997 1.55861e-06 -0.00571455)
(2.99991 3.95411e-06 -0.00571511)
(2.99979 1.09974e-05 -0.00571613)
(2.99945 2.46638e-05 -0.00571925)
(2.9988 6.84583e-05 -0.00572528)
(2.99675 0.000133513 -0.00574191)
(2.99317 0.000470371 -0.00578142)
(2.97982 0.000747963 -0.00586304)
(2.95662 0.00345413 -0.00616452)
(2.86825 0.00645084 -0.00659787)
(2.63618 0.0263324 -0.00867254)
(2.05006 0.0629035 -0.0128159)
(0.94151 0.183396 -0.0169167)
(0.436885 0.163745 -0.0182275)
(0.548157 0.156501 -0.0182358)
(0.583839 0.164497 -0.0182247)
(0.530525 0.173679 -0.0183974)
(0.440805 0.18463 -0.0185446)
(0.354318 0.195843 -0.0187364)
(0.28258 0.207848 -0.0188643)
(0.209913 0.219959 -0.0189978)
(0.124942 0.231026 -0.0191659)
(0.0504566 0.236978 -0.0193312)
(3 9.9506e-08 -0.00571425)
(2.99999 5.49975e-07 -0.00571436)
(2.99997 2.05062e-06 -0.00571453)
(2.99991 5.23619e-06 -0.00571507)
(2.9998 1.45039e-05 -0.00571604)
(2.99948 3.28751e-05 -0.00571904)
(2.99884 8.89648e-05 -0.0057247)
(2.99694 0.000183194 -0.00574124)
(2.99343 0.000590385 -0.00577678)
(2.98123 0.000962959 -0.00585933)
(2.95934 0.00426906 -0.00612351)
(2.87816 0.00787566 -0.00654798)
(2.6668 0.0316678 -0.00841043)
(2.12419 0.0761489 -0.012329)
(0.995932 0.228075 -0.0165903)
(0.445807 0.212128 -0.018083)
(0.562577 0.203474 -0.0180911)
(0.602257 0.212303 -0.0180573)
(0.548887 0.223511 -0.0182295)
(0.459505 0.238366 -0.0183566)
(0.37234 0.253761 -0.0185421)
(0.299251 0.270362 -0.0186683)
(0.224268 0.287511 -0.0188096)
(0.135271 0.303432 -0.0189753)
(0.0549952 0.312053 -0.0191153)
(3 1.22612e-07 -0.00571425)
(2.99999 6.77869e-07 -0.00571435)
(2.99997 2.52885e-06 -0.00571451)
(2.99992 6.4899e-06 -0.00571501)
(2.99981 1.79489e-05 -0.00571592)
(2.99951 4.10935e-05 -0.0057187)
(2.99892 0.000108351 -0.00572397)
(2.99717 0.000238581 -0.00573939)
(2.99383 0.000667416 -0.00577173)
(2.98284 0.00129789 -0.00585141)
(2.96252 0.00455546 -0.00608111)
(2.88947 0.0087195 -0.00648836)
(2.7013 0.0334215 -0.00812379)
(2.21197 0.0814019 -0.0117517)
(1.07027 0.250293 -0.0161946)
(0.473727 0.257706 -0.0179043)
(0.587117 0.254143 -0.0179098)
(0.628797 0.262775 -0.017872)
(0.575704 0.274878 -0.0180513)
(0.487011 0.293166 -0.0181695)
(0.398806 0.313202 -0.0183309)
(0.323809 0.335224 -0.0184413)
(0.24578 0.358725 -0.0185567)
(0.151054 0.381716 -0.0187105)
(0.0621475 0.395509 -0.018883)
(3 1.34401e-07 -0.00571425)
(2.99999 7.42545e-07 -0.00571435)
(2.99997 2.76552e-06 -0.00571449)
(2.99992 7.08981e-06 -0.00571495)
(2.99983 1.95407e-05 -0.00571578)
(2.99955 4.46665e-05 -0.00571833)
(2.99901 0.000116765 -0.00572317)
(2.99741 0.000258941 -0.00573735)
(2.99432 0.000688597 -0.00576674)
(2.98444 0.0014742 -0.00584111)
(2.96565 0.00436157 -0.00604295)
(2.9007 0.00907566 -0.00643227)
(2.73509 0.0307292 -0.00784245)
(2.29947 0.0750986 -0.011214)
(1.16171 0.229159 -0.0157478)
(0.525879 0.292625 -0.0176547)
(0.61968 0.30735 -0.0176452)
(0.659253 0.314945 -0.017632)
(0.608381 0.327434 -0.0178178)
(0.522606 0.349551 -0.0179398)
(0.434204 0.375223 -0.0180994)
(0.357361 0.403884 -0.0181837)
(0.27627 0.435597 -0.0182951)
(0.175165 0.468868 -0.0184341)
(0.0744738 0.49305 -0.018554)
(3 1.46981e-07 -0.00571425)
(2.99999 8.10373e-07 -0.00571433)
(2.99997 3.01823e-06 -0.00571447)
(2.99993 7.72981e-06 -0.00571488)
(2.99984 2.13199e-05 -0.00571564)
(2.9996 4.87216e-05 -0.00571795)
(2.9991 0.000127181 -0.00572233)
(2.99765 0.000284179 -0.00573524)
(2.99484 0.000728371 -0.00576183)
(2.98587 0.00169119 -0.00582964)
(2.96896 0.00415879 -0.0060127)
(2.91022 0.0101834 -0.00636285)
(2.76173 0.0277773 -0.00765115)
(2.36478 0.0693094 -0.0106542)
(1.25712 0.200253 -0.0156381)
(0.573067 0.333848 -0.0175064)
(0.63503 0.367962 -0.0174604)
(0.673027 0.366515 -0.0174354)
(0.634195 0.378814 -0.0175864)
(0.55885 0.405343 -0.0176775)
(0.474972 0.438521 -0.0178162)
(0.399339 0.475915 -0.017884)
(0.317658 0.51877 -0.0179315)
(0.211632 0.567804 -0.0180237)
(0.095322 0.61372 -0.0181523)
(3 1.73814e-07 -0.00571425)
(2.99999 9.51484e-07 -0.00571432)
(2.99998 3.54445e-06 -0.00571444)
(2.99994 9.12204e-06 -0.00571481)
(2.99986 2.51653e-05 -0.00571547)
(2.99964 5.82083e-05 -0.00571753)
(2.99921 0.000148972 -0.00572138)
(2.99791 0.000352638 -0.00573277)
(2.99549 0.000807385 -0.00575669)
(2.98727 0.002089 -0.00581336)
(2.97283 0.00436405 -0.00598809)
(2.91946 0.0113242 -0.0062717)
(2.78761 0.0272576 -0.00750925)
(2.42914 0.0710833 -0.00992183)
(1.37953 0.198004 -0.0153188)
(0.654643 0.384687 -0.0172947)
(0.644109 0.416172 -0.0172658)
(0.671826 0.412324 -0.0173071)
(0.654107 0.428327 -0.0173729)
(0.594596 0.458109 -0.0174319)
(0.520077 0.500506 -0.0175201)
(0.449828 0.548977 -0.0175603)
(0.372814 0.60619 -0.0175692)
(0.269424 0.680648 -0.0175638)
(0.13412 0.77295 -0.017486)
(3 2.60313e-07 -0.00571424)
(2.99999 4.41043e-07 -0.00571431)
(2.99998 3.76203e-06 -0.00571441)
(2.99995 5.45294e-06 -0.00571471)
(2.99989 2.53849e-05 -0.00571527)
(2.9997 3.50641e-05 -0.00571692)
(2.99935 0.000151468 -0.00572032)
(2.9982 0.00019242 -0.00572864)
(2.99629 0.00093137 -0.00575193)
(2.98882 0.000812758 -0.00579239)
(2.97676 0.00632988 -0.00596509)
(2.92847 0.00341205 -0.00618522)
(2.81447 0.0405705 -0.00736472)
(2.4946 0.0508669 -0.00933378)
(1.52453 0.217609 -0.0146193)
(0.756926 0.438531 -0.0169103)
(0.653272 0.450696 -0.0171656)
(0.678376 0.450893 -0.0171842)
(0.674851 0.472971 -0.01718)
(0.631105 0.506727 -0.0172068)
(0.570856 0.557523 -0.0171937)
(0.510464 0.617867 -0.0171554)
(0.448145 0.696425 -0.0170548)
(0.366134 0.816104 -0.0168699)
(0.207516 1.02825 -0.0164926)
(3 1.29736e-08 -2.51177e-09)
(2.99998 7.05519e-08 -8.66478e-09)
(2.99996 2.62887e-07 -1.00323e-08)
(2.9999 6.7332e-07 -1.61124e-08)
(2.99977 1.86835e-06 -1.59242e-08)
(2.9994 4.25722e-06 -2.17019e-08)
(2.9987 1.14084e-05 -2.1756e-08)
(2.99646 2.46303e-05 -2.9776e-08)
(2.99261 7.08848e-05 -3.12855e-08)
(2.9778 0.000144956 -5.6204e-08)
(2.95227 0.000460156 -7.08391e-08)
(2.85314 0.000978418 -1.53465e-07)
(2.59038 0.00360692 -1.96387e-07)
(1.9422 0.00861924 -6.1129e-07)
(0.872654 0.0248957 -7.04608e-07)
(0.444121 0.023447 1.0108e-07)
(0.538612 0.0239174 -5.41203e-09)
(0.567085 0.0259019 -6.9809e-08)
(0.514496 0.0278677 -6.96261e-08)
(0.424158 0.0298376 -6.23677e-08)
(0.337393 0.0321793 -5.14596e-08)
(0.267382 0.0350478 -4.64468e-08)
(0.198539 0.0381976 -4.4913e-08)
(0.119221 0.0418417 -4.47378e-08)
(0.0506646 0.0460325 -4.36843e-08)
(3 3.86011e-08 -2.50654e-09)
(2.99998 2.0979e-07 -8.66495e-09)
(2.99996 7.83109e-07 -1.00373e-08)
(2.9999 2.00504e-06 -1.60923e-08)
(2.99977 5.58111e-06 -1.59542e-08)
(2.99941 1.27211e-05 -2.16808e-08)
(2.99872 3.42644e-05 -2.17725e-08)
(2.99651 7.39489e-05 -2.9721e-08)
(2.99271 0.000214776 -3.13237e-08)
(2.97812 0.000438569 -5.5909e-08)
(2.95298 0.00141002 -7.02484e-08)
(2.85553 0.00299323 -1.51345e-07)
(2.5975 0.0111758 -1.91319e-07)
(1.95841 0.0267924 -5.96019e-07)
(0.882066 0.0760451 -6.96773e-07)
(0.440718 0.0680161 9.72882e-08)
(0.538242 0.0663276 -7.37817e-09)
(0.567715 0.0697953 -7.1142e-08)
(0.51474 0.0731694 -7.08455e-08)
(0.424337 0.0765468 -6.30464e-08)
(0.337593 0.0804207 -5.19658e-08)
(0.267072 0.0848795 -4.69251e-08)
(0.197206 0.089118 -4.50732e-08)
(0.116751 0.0932275 -4.48278e-08)
(0.0480836 0.0963781 -4.37194e-08)
(3 6.00228e-08 -2.49713e-09)
(2.99998 3.27114e-07 -8.66291e-09)
(2.99996 1.21918e-06 -1.00506e-08)
(2.9999 3.11713e-06 -1.6043e-08)
(2.99978 8.67842e-06 -1.6017e-08)
(2.99943 1.96784e-05 -2.16104e-08)
(2.99875 5.3792e-05 -2.17518e-08)
(2.99661 0.000112024 -2.93556e-08)
(2.99291 0.000350557 -3.11951e-08)
(2.97878 0.000661203 -5.37498e-08)
(2.95445 0.00241628 -6.7156e-08)
(2.86059 0.00490433 -1.44703e-07)
(2.61277 0.0190431 -1.78939e-07)
(1.99434 0.0456768 -5.6868e-07)
(0.90456 0.13101 -6.98759e-07)
(0.437465 0.115826 7.7153e-08)
(0.540939 0.111485 -1.51864e-08)
(0.572847 0.117351 -7.19404e-08)
(0.519633 0.123586 -7.10225e-08)
(0.42953 0.13046 -6.22883e-08)
(0.343061 0.137795 -5.24113e-08)
(0.272008 0.145821 -4.79458e-08)
(0.200905 0.153689 -4.611e-08)
(0.118766 0.160862 -4.60337e-08)
(0.0482531 0.16504 -4.45525e-08)
(3 7.64595e-08 -2.48897e-09)
(2.99999 4.20283e-07 -8.65914e-09)
(2.99996 1.55717e-06 -1.01142e-08)
(2.99991 3.96159e-06 -1.59682e-08)
(2.99979 1.09932e-05 -1.63705e-08)
(2.99945 2.4669e-05 -2.18791e-08)
(2.99879 6.84576e-05 -2.2681e-08)
(2.99675 0.000133457 -3.34933e-08)
(2.99317 0.000470504 -2.89355e-08)
(2.97981 0.00074698 -9.07478e-08)
(2.95661 0.00345661 2.46243e-09)
(2.86824 0.00645062 -2.2379e-07)
(2.63616 0.0263407 -3.81773e-08)
(2.05 0.0629193 -5.03553e-07)
(0.941503 0.183428 -6.26219e-07)
(0.436932 0.16376 3.76306e-08)
(0.548177 0.156506 -4.89327e-08)
(0.583848 0.164499 -7.93809e-08)
(0.530532 0.17368 -7.35332e-08)
(0.440809 0.184632 -6.16231e-08)
(0.35432 0.195842 -5.66941e-08)
(0.282579 0.207845 -5.32671e-08)
(0.209911 0.219956 -5.0707e-08)
(0.124941 0.231023 -4.99984e-08)
(0.0504571 0.236978 -4.79638e-08)
(3 1.01132e-07 -2.48155e-09)
(2.99999 5.53396e-07 -8.62105e-09)
(2.99997 2.05523e-06 -1.01271e-08)
(2.99991 5.24892e-06 -1.58794e-08)
(2.9998 1.45343e-05 -1.62165e-08)
(2.99948 3.29484e-05 -2.14637e-08)
(2.99884 8.91259e-05 -2.18375e-08)
(2.99694 0.000183697 -3.047e-08)
(2.99343 0.000590906 -2.76615e-08)
(2.98123 0.000965708 -7.49364e-08)
(2.95933 0.00426951 -6.41992e-09)
(2.87815 0.00788134 -1.85322e-07)
(2.66678 0.0316682 -4.98027e-08)
(2.12413 0.0761569 -4.4375e-07)
(0.995925 0.228094 -5.77371e-07)
(0.445848 0.212135 -2.46562e-09)
(0.562602 0.203477 -6.53467e-08)
(0.602277 0.212307 -7.84923e-08)
(0.548907 0.223516 -7.09044e-08)
(0.459523 0.238371 -5.76564e-08)
(0.372352 0.253762 -5.88399e-08)
(0.299258 0.270362 -5.74971e-08)
(0.224271 0.287509 -5.56951e-08)
(0.135272 0.30343 -5.53555e-08)
(0.0549964 0.312052 -5.29915e-08)
(3 1.25084e-07 -2.45656e-09)
(2.99999 6.79974e-07 -8.61943e-09)
(2.99997 2.53381e-06 -1.00881e-08)
(2.99992 6.49917e-06 -1.58128e-08)
(2.99981 1.79714e-05 -1.60162e-08)
(2.99951 4.11435e-05 -2.10206e-08)
(2.99892 0.000108462 -2.09239e-08)
(2.99717 0.000238912 -2.67611e-08)
(2.99382 0.000667744 -2.80009e-08)
(2.98284 0.00130012 -4.85203e-08)
(2.96251 0.00455554 -3.38305e-08)
(2.88946 0.00872425 -1.36015e-07)
(2.70128 0.0334225 -9.20118e-08)
(2.21191 0.0814113 -4.0165e-07)
(1.07025 0.250324 -5.7253e-07)
(0.473736 0.257712 -4.18655e-08)
(0.58713 0.254145 -7.23849e-08)
(0.628814 0.26278 -6.76949e-08)
(0.575724 0.274885 -6.21233e-08)
(0.487031 0.293173 -5.33629e-08)
(0.398823 0.313207 -5.84477e-08)
(0.323821 0.335227 -5.91687e-08)
(0.245787 0.358726 -5.84996e-08)
(0.151057 0.381716 -5.96849e-08)
(0.0621495 0.395509 -5.86189e-08)
(3 1.36765e-07 -2.43216e-09)
(2.99999 7.44098e-07 -8.62152e-09)
(2.99997 2.7678e-06 -1.00764e-08)
(2.99992 7.0931e-06 -1.57919e-08)
(2.99983 1.95473e-05 -1.59539e-08)
(2.99955 4.46791e-05 -2.09068e-08)
(2.99901 0.000116795 -2.06055e-08)
(2.99741 0.000259009 -2.61309e-08)
(2.99431 0.000688711 -2.72831e-08)
(2.98443 0.00147486 -3.87266e-08)
(2.96564 0.00436191 -4.03251e-08)
(2.90069 0.00907787 -1.06219e-07)
(2.73507 0.0307321 -8.48032e-08)
(2.29943 0.075109 -3.16682e-07)
(1.16168 0.229193 -3.73095e-07)
(0.525876 0.292626 -1.59876e-07)
(0.619693 0.307348 -8.876e-08)
(0.659271 0.314948 -5.48116e-08)
(0.608401 0.327441 -5.20278e-08)
(0.522626 0.349559 -4.89031e-08)
(0.434222 0.37523 -5.49724e-08)
(0.357375 0.403889 -5.79067e-08)
(0.27628 0.435601 -5.85196e-08)
(0.17517 0.46887 -6.21041e-08)
(0.0744768 0.493051 -6.23766e-08)
(3 1.49158e-07 -2.40925e-09)
(2.99999 8.11743e-07 -8.62826e-09)
(2.99997 3.01888e-06 -1.00789e-08)
(2.99993 7.73007e-06 -1.57932e-08)
(2.99984 2.13164e-05 -1.5951e-08)
(2.99959 4.87111e-05 -2.08947e-08)
(2.9991 0.000127144 -2.05679e-08)
(2.99765 0.000284075 -2.59913e-08)
(2.99484 0.000728292 -2.70196e-08)
(2.98587 0.00168965 -3.80448e-08)
(2.96895 0.0041596 -3.78305e-08)
(2.91021 0.010181 -1.03041e-07)
(2.76172 0.0277812 -6.94748e-08)
(2.36474 0.0693148 -2.7624e-07)
(1.25708 0.200271 -3.62041e-07)
(0.573047 0.333845 -2.63967e-07)
(0.635042 0.367963 -1.06823e-07)
(0.673046 0.366519 -4.44552e-08)
(0.634215 0.37882 -4.38779e-08)
(0.558868 0.405351 -4.48388e-08)
(0.474989 0.438529 -5.08763e-08)
(0.399355 0.475923 -5.40366e-08)
(0.317669 0.518777 -5.58735e-08)
(0.211639 0.567809 -6.09835e-08)
(0.0953258 0.613725 -6.41746e-08)
(3 1.73856e-07 -2.38862e-09)
(2.99999 9.49813e-07 -8.62979e-09)
(2.99998 3.5396e-06 -1.00951e-08)
(2.99994 9.0922e-06 -1.5804e-08)
(2.99986 2.5148e-05 -1.60288e-08)
(2.99964 5.81466e-05 -2.10512e-08)
(2.9992 0.000148896 -2.11448e-08)
(2.99791 0.000352464 -2.74741e-08)
(2.99549 0.000807223 -2.68118e-08)
(2.98727 0.00208852 -6.73993e-08)
(2.97282 0.00436327 4.58116e-10)
(2.91946 0.011324 -1.61837e-07)
(2.78761 0.0272585 1.28575e-08)
(2.42911 0.0710825 -2.78632e-07)
(1.37951 0.198014 -2.93592e-07)
(0.654627 0.384686 -3.1717e-07)
(0.644126 0.416179 -6.14598e-08)
(0.671846 0.412331 -4.27375e-08)
(0.654126 0.428335 -3.98379e-08)
(0.594614 0.458117 -4.16352e-08)
(0.520094 0.500516 -4.66936e-08)
(0.449844 0.548986 -4.99826e-08)
(0.372826 0.6062 -5.16529e-08)
(0.269433 0.680657 -5.66502e-08)
(0.134125 0.772959 -6.01662e-08)
(3 2.46108e-07 -2.40841e-09)
(2.99999 4.97693e-07 -8.65915e-09)
(2.99998 3.65708e-06 -1.01427e-08)
(2.99995 5.49462e-06 -1.62841e-08)
(2.99988 2.52596e-05 -1.57761e-08)
(2.9997 3.51138e-05 -2.16879e-08)
(2.99934 0.00015137 -2.09329e-08)
(2.99819 0.000192567 -2.78564e-08)
(2.99629 0.000931246 -2.69299e-08)
(2.98881 0.000814593 -4.3883e-08)
(2.97675 0.00632836 -4.42093e-08)
(2.92847 0.00341651 -9.45115e-08)
(2.81446 0.0405649 -3.89272e-08)
(2.49458 0.050873 -3.05215e-07)
(1.5245 0.217603 -2.44013e-07)
(0.7569 0.438528 -3.61929e-07)
(0.653289 0.450701 -4.08765e-08)
(0.678394 0.450901 -3.03024e-08)
(0.674868 0.472979 -3.79017e-08)
(0.631122 0.506736 -3.91243e-08)
(0.570873 0.557533 -4.25384e-08)
(0.51048 0.617878 -4.39682e-08)
(0.448158 0.696437 -4.60749e-08)
(0.366145 0.816115 -4.93548e-08)
(0.207523 1.02826 -5.10766e-08)
(3 1.29737e-08 -3.59016e-13)
(2.99998 7.05522e-08 -1.92908e-12)
(2.99996 2.62888e-07 -4.11194e-12)
(2.9999 6.73323e-07 -8.69872e-12)
(2.99977 1.86836e-06 -1.52733e-11)
(2.9994 4.25723e-06 -2.83186e-11)
(2.9987 1.14084e-05 -5.84672e-11)
(2.99646 2.46303e-05 -1.02289e-10)
(2.99261 7.0885e-05 -3.00035e-10)
(2.9778 0.000144957 -4.74765e-10)
(2.95227 0.000460157 -1.79216e-09)
(2.85314 0.000978419 -3.05335e-09)
(2.59038 0.00360693 -1.18923e-08)
(1.9422 0.00861925 -2.50288e-08)
(0.872651 0.0248957 -3.71295e-08)
(0.444122 0.023447 6.05718e-09)
(0.538613 0.0239174 9.6729e-10)
(0.567085 0.0259019 -1.65084e-09)
(0.514496 0.0278677 -1.49681e-09)
(0.424158 0.0298375 -1.07512e-09)
(0.337393 0.0321793 -8.80999e-10)
(0.267382 0.0350478 -8.14788e-10)
(0.198539 0.0381976 -8.88966e-10)
(0.119221 0.0418417 -9.52984e-10)
(0.0506647 0.0460326 -1.02829e-09)
(3 3.86013e-08 -3.57723e-13)
(2.99998 2.09792e-07 -1.92351e-12)
(2.99996 7.83113e-07 -4.09495e-12)
(2.9999 2.00505e-06 -8.65973e-12)
(2.99977 5.58114e-06 -1.51783e-11)
(2.99941 1.27212e-05 -2.81241e-11)
(2.99872 3.42645e-05 -5.79985e-11)
(2.99651 7.3949e-05 -1.01479e-10)
(2.99271 0.000214777 -2.97799e-10)
(2.97812 0.000438569 -4.71676e-10)
(2.95298 0.00141002 -1.78648e-09)
(2.85553 0.00299323 -3.04578e-09)
(2.59749 0.0111758 -1.18698e-08)
(1.95841 0.0267924 -2.50546e-08)
(0.882064 0.076045 -3.76058e-08)
(0.44072 0.0680161 6.08401e-09)
(0.538242 0.0663276 9.74174e-10)
(0.567715 0.0697953 -1.63361e-09)
(0.51474 0.0731694 -1.47644e-09)
(0.424337 0.0765468 -1.05693e-09)
(0.337593 0.0804208 -8.60137e-10)
(0.267072 0.0848795 -7.88818e-10)
(0.197206 0.089118 -8.63108e-10)
(0.116752 0.0932276 -9.24659e-10)
(0.0480836 0.0963782 -1.00291e-09)
(3 6.00239e-08 -3.54934e-13)
(2.99998 3.27118e-07 -1.91086e-12)
(2.99996 1.2192e-06 -4.0591e-12)
(2.9999 3.11719e-06 -8.57725e-12)
(2.99978 8.67856e-06 -1.50086e-11)
(2.99943 1.96787e-05 -2.78193e-11)
(2.99875 5.37928e-05 -5.72919e-11)
(2.99661 0.000112027 -1.01382e-10)
(2.99291 0.00035056 -2.93915e-10)
(2.97878 0.000661221 -4.75756e-10)
(2.95445 0.00241627 -1.78591e-09)
(2.86059 0.00490437 -3.0402e-09)
(2.61277 0.0190431 -1.18292e-08)
(1.99434 0.0456768 -2.50934e-08)
(0.904557 0.13101 -3.87386e-08)
(0.437467 0.115826 6.1703e-09)
(0.540939 0.111485 1.04595e-09)
(0.572846 0.117351 -1.60337e-09)
(0.519633 0.123586 -1.45375e-09)
(0.42953 0.13046 -1.043e-09)
(0.343061 0.137795 -8.30491e-10)
(0.272009 0.145821 -7.41433e-10)
(0.200905 0.153689 -8.1111e-10)
(0.118767 0.160862 -8.70193e-10)
(0.0482531 0.16504 -9.22553e-10)
(3 7.64602e-08 -3.35722e-13)
(2.99999 4.20286e-07 -1.84788e-12)
(2.99996 1.55718e-06 -3.8178e-12)
(2.99991 3.96163e-06 -7.84427e-12)
(2.99979 1.09932e-05 -1.34084e-11)
(2.99945 2.46692e-05 -2.34014e-11)
(2.99879 6.84581e-05 -4.82858e-11)
(2.99675 0.000133459 -6.06951e-11)
(2.99317 0.000470506 -3.03571e-10)
(2.97981 0.000746994 -1.44232e-10)
(2.95661 0.00345661 -2.29411e-09)
(2.86824 0.00645065 -2.26827e-09)
(2.63616 0.0263408 -1.26552e-08)
(2.04999 0.0629194 -2.51065e-08)
(0.9415 0.183428 -4.0952e-08)
(0.436933 0.16376 6.03384e-09)
(0.548177 0.156506 1.29194e-09)
(0.583847 0.164499 -1.49437e-09)
(0.530532 0.17368 -1.40174e-09)
(0.440809 0.184632 -1.03575e-09)
(0.35432 0.195842 -7.90861e-10)
(0.282579 0.207845 -6.78643e-10)
(0.209911 0.219956 -7.31615e-10)
(0.124941 0.231023 -7.78295e-10)
(0.0504571 0.236978 -7.98301e-10)
(3 1.01132e-07 -3.39389e-13)
(2.99999 5.53394e-07 -1.85856e-12)
(2.99997 2.05522e-06 -3.87549e-12)
(2.99991 5.2489e-06 -7.98406e-12)
(2.9998 1.45342e-05 -1.38617e-11)
(2.99948 3.29482e-05 -2.46664e-11)
(2.99884 8.91256e-05 -5.04315e-11)
(2.99694 0.000183695 -7.54848e-11)
(2.99343 0.000590906 -2.92268e-10)
(2.98123 0.000965696 -2.31652e-10)
(2.95933 0.00426953 -2.09855e-09)
(2.87815 0.00788135 -2.35509e-09)
(2.66678 0.0316683 -1.18483e-08)
(2.12413 0.0761572 -2.42576e-08)
(0.995921 0.228095 -4.24814e-08)
(0.445849 0.212135 4.84931e-09)
(0.562602 0.203477 1.25516e-09)
(0.602277 0.212307 -1.37547e-09)
(0.548906 0.223516 -1.35957e-09)
(0.459522 0.238371 -1.04888e-09)
(0.372352 0.253762 -7.39277e-10)
(0.299258 0.270362 -5.88053e-10)
(0.224271 0.287509 -6.32634e-10)
(0.135272 0.30343 -6.75691e-10)
(0.0549964 0.312053 -6.57624e-10)
(3 1.25084e-07 -3.44467e-13)
(2.99999 6.79975e-07 -1.87393e-12)
(2.99997 2.53381e-06 -3.94801e-12)
(2.99992 6.49918e-06 -8.17223e-12)
(2.99981 1.79715e-05 -1.4372e-11)
(2.99951 4.11436e-05 -2.61962e-11)
(2.99892 0.000108463 -5.16484e-11)
(2.99717 0.000238912 -9.56068e-11)
(2.99382 0.000667749 -2.52259e-10)
(2.98284 0.00130011 -3.7972e-10)
(2.96251 0.00455559 -1.67075e-09)
(2.88946 0.00872433 -2.34003e-09)
(2.70128 0.0334229 -1.02966e-08)
(2.21191 0.0814122 -2.21282e-08)
(1.07024 0.250327 -4.26041e-08)
(0.473736 0.257712 1.68573e-09)
(0.587129 0.254144 4.22844e-10)
(0.628813 0.26278 -1.4017e-09)
(0.575723 0.274885 -1.43156e-09)
(0.487031 0.293173 -1.21068e-09)
(0.398822 0.313206 -8.18452e-10)
(0.323821 0.335227 -5.9952e-10)
(0.245786 0.358726 -5.7557e-10)
(0.151057 0.381716 -5.86792e-10)
(0.0621495 0.395509 -5.28789e-10)
(3 1.36765e-07 -3.34546e-13)
(2.99999 7.44102e-07 -1.82958e-12)
(2.99997 2.76781e-06 -3.79757e-12)
(2.99992 7.09314e-06 -7.84398e-12)
(2.99983 1.95474e-05 -1.33363e-11)
(2.99955 4.46794e-05 -2.40198e-11)
(2.99901 0.000116795 -4.46459e-11)
(2.99741 0.00025901 -8.14385e-11)
(2.99431 0.000688716 -1.94426e-10)
(2.98443 0.00147486 -3.42775e-10)
(2.96564 0.00436195 -1.18714e-09)
(2.90069 0.00907794 -1.59586e-09)
(2.73507 0.0307325 -7.19438e-09)
(2.29943 0.07511 -1.52129e-08)
(1.16168 0.229196 -2.51728e-08)
(0.525875 0.292627 -8.07712e-09)
(0.619692 0.307347 -2.35957e-09)
(0.65927 0.314948 -1.45845e-09)
(0.6084 0.327441 -1.45681e-09)
(0.522626 0.349559 -1.33787e-09)
(0.434221 0.37523 -9.43588e-10)
(0.357375 0.403889 -7.06704e-10)
(0.27628 0.435601 -5.66389e-10)
(0.17517 0.46887 -5.58047e-10)
(0.0744768 0.493051 -4.24315e-10)
(3 1.49158e-07 -3.30899e-13)
(2.99999 8.11742e-07 -1.812e-12)
(2.99997 3.01887e-06 -3.74448e-12)
(2.99993 7.73006e-06 -7.72523e-12)
(2.99984 2.13164e-05 -1.29933e-11)
(2.99959 4.87111e-05 -2.32961e-11)
(2.9991 0.000127143 -4.24897e-11)
(2.99765 0.000284074 -7.72194e-11)
(2.99484 0.000728292 -1.77584e-10)
(2.98587 0.00168963 -3.31207e-10)
(2.96895 0.00415962 -9.37544e-10)
(2.91021 0.010181 -1.76071e-09)
(2.76171 0.0277814 -5.42836e-09)
(2.36474 0.0693153 -1.20317e-08)
(1.25708 0.200272 -2.34452e-08)
(0.573046 0.333845 -1.62403e-08)
(0.635042 0.367963 -5.54234e-09)
(0.673047 0.366519 -1.33103e-09)
(0.634215 0.37882 -1.35293e-09)
(0.558868 0.405351 -1.40284e-09)
(0.474989 0.438529 -1.16591e-09)
(0.399354 0.475923 -8.63755e-10)
(0.317669 0.518777 -6.78499e-10)
(0.211639 0.567809 -6.10391e-10)
(0.0953257 0.613725 -3.93589e-10)
(3 1.73856e-07 -3.3752e-13)
(2.99999 9.49814e-07 -1.83516e-12)
(2.99998 3.5396e-06 -3.8514e-12)
(2.99994 9.0922e-06 -7.93568e-12)
(2.99986 2.51481e-05 -1.38607e-11)
(2.99964 5.81466e-05 -2.50304e-11)
(2.9992 0.000148896 -4.87915e-11)
(2.99791 0.000352465 -9.44477e-11)
(2.99549 0.000807225 -1.75713e-10)
(2.98727 0.00208852 -6.73324e-10)
(2.97282 0.00436328 -4.1138e-10)
(2.91946 0.011324 -2.82932e-09)
(2.78761 0.0272587 -3.62189e-09)
(2.42911 0.0710827 -1.12374e-08)
(1.3795 0.198015 -2.07881e-08)
(0.654625 0.384686 -1.88434e-08)
(0.644127 0.416179 -2.03476e-09)
(0.671846 0.412332 -1.06732e-09)
(0.654126 0.428335 -1.22405e-09)
(0.594614 0.458117 -1.29609e-09)
(0.520094 0.500515 -1.30884e-09)
(0.449844 0.548986 -1.00697e-09)
(0.372826 0.606199 -8.41809e-10)
(0.269433 0.680656 -6.21537e-10)
(0.134125 0.772959 -4.00991e-10)
(3 2.46106e-07 -3.31299e-13)
(2.99999 4.97705e-07 -1.78889e-12)
(2.99998 3.65708e-06 -3.67812e-12)
(2.99995 5.49468e-06 -7.75882e-12)
(2.99988 2.52597e-05 -1.23934e-11)
(2.9997 3.51141e-05 -2.26557e-11)
(2.99934 0.000151371 -3.93806e-11)
(2.99819 0.000192569 -7.26273e-11)
(2.99629 0.00093125 -1.53165e-10)
(2.98881 0.000814616 -2.9778e-10)
(2.97675 0.00632837 -7.5723e-10)
(2.92847 0.00341659 -1.6554e-09)
(2.81445 0.040565 -3.34856e-09)
(2.49457 0.0508733 -1.17958e-08)
(1.5245 0.217604 -1.76357e-08)
(0.756898 0.438528 -2.1909e-08)
(0.65329 0.450701 -1.2268e-09)
(0.678394 0.450901 -6.68474e-10)
(0.674869 0.472979 -1.33373e-09)
(0.631122 0.506736 -1.35252e-09)
(0.570873 0.557532 -1.32239e-09)
(0.51048 0.617878 -1.17956e-09)
(0.448158 0.696436 -9.19413e-10)
(0.366144 0.816115 -6.25528e-10)
(0.207523 1.02826 -4.11149e-10)
(3 1.29737e-08 -4.96988e-15)
(2.99998 7.05522e-08 -2.19162e-14)
(2.99996 2.62888e-07 -7.62113e-14)
(2.9999 6.73324e-07 -1.64736e-13)
(2.99977 1.86836e-06 -5.09205e-13)
(2.9994 4.25723e-06 -1.02783e-12)
(2.9987 1.14084e-05 -3.35508e-12)
(2.99646 2.46303e-05 -6.01738e-12)
(2.99261 7.0885e-05 -2.42683e-11)
(2.9778 0.000144957 -3.70272e-11)
(2.95227 0.000460157 -1.70316e-10)
(2.85314 0.000978419 -2.89541e-10)
(2.59038 0.00360693 -1.25845e-09)
(1.9422 0.00861925 -2.72905e-09)
(0.872651 0.0248957 -4.30889e-09)
(0.444122 0.023447 4.03355e-10)
(0.538613 0.0239174 9.18598e-11)
(0.567085 0.0259019 -1.38196e-10)
(0.514496 0.0278677 -1.33402e-10)
(0.424158 0.0298375 -9.89106e-11)
(0.337393 0.0321793 -3.51217e-11)
(0.267382 0.0350478 5.49167e-11)
(0.198539 0.0381976 2.2047e-11)
(0.119221 0.0418417 5.19903e-11)
(0.0506647 0.0460326 3.00298e-11)
(3 3.86013e-08 -4.87824e-15)
(2.99998 2.09792e-07 -2.14089e-14)
(2.99996 7.83113e-07 -7.46303e-14)
(2.9999 2.00505e-06 -1.612e-13)
(2.99977 5.58114e-06 -4.99638e-13)
(2.99941 1.27212e-05 -1.00839e-12)
(2.99872 3.42645e-05 -3.30176e-12)
(2.99651 7.3949e-05 -5.92492e-12)
(2.99271 0.000214777 -2.39583e-11)
(2.97812 0.000438569 -3.6581e-11)
(2.95298 0.00141002 -1.68967e-10)
(2.85553 0.00299323 -2.87253e-10)
(2.59749 0.0111758 -1.24997e-09)
(1.95841 0.0267924 -2.71805e-09)
(0.882063 0.076045 -4.34023e-09)
(0.44072 0.0680161 4.07105e-10)
(0.538242 0.0663276 9.32441e-11)
(0.567715 0.0697953 -1.38999e-10)
(0.51474 0.0731694 -1.33709e-10)
(0.424337 0.0765468 -9.8366e-11)
(0.337593 0.0804208 -3.3947e-11)
(0.267072 0.0848795 5.47016e-11)
(0.197206 0.089118 2.18032e-11)
(0.116752 0.0932276 5.01886e-11)
(0.0480837 0.0963782 2.67015e-11)
(3 6.00239e-08 -4.6188e-15)
(2.99998 3.27118e-07 -2.0277e-14)
(2.99996 1.2192e-06 -7.11462e-14)
(2.9999 3.11719e-06 -1.53651e-13)
(2.99978 8.67856e-06 -4.81592e-13)
(2.99943 1.96787e-05 -9.75738e-13)
(2.99875 5.37928e-05 -3.21298e-12)
(2.99661 0.000112027 -5.8769e-12)
(2.99291 0.00035056 -2.33706e-11)
(2.97878 0.000661222 -3.66535e-11)
(2.95445 0.00241627 -1.67256e-10)
(2.86059 0.00490437 -2.83539e-10)
(2.61277 0.0190431 -1.2325e-09)
(1.99434 0.0456768 -2.6934e-09)
(0.904557 0.13101 -4.42023e-09)
(0.437467 0.115826 4.15161e-10)
(0.540939 0.111485 9.95773e-11)
(0.572846 0.117351 -1.401e-10)
(0.519633 0.123586 -1.34276e-10)
(0.42953 0.13046 -9.78741e-11)
(0.343061 0.137795 -3.54294e-11)
(0.272009 0.145821 5.07392e-11)
(0.200905 0.153689 1.56381e-11)
(0.118767 0.160862 4.16542e-11)
(0.0482531 0.16504 2.65438e-11)
(3 7.64602e-08 -3.08028e-15)
(2.99999 4.20286e-07 -1.41971e-14)
(2.99996 1.55718e-06 -4.78377e-14)
(2.99991 3.96164e-06 -9.91846e-14)
(2.99979 1.09933e-05 -3.1575e-13)
(2.99945 2.46692e-05 -5.77251e-13)
(2.99879 6.84582e-05 -2.32581e-12)
(2.99675 0.000133459 -1.94113e-12)
(2.99317 0.000470506 -2.40157e-11)
(2.97981 0.000746995 -2.93721e-12)
(2.95661 0.00345661 -2.17633e-10)
(2.86824 0.00645065 -1.98245e-10)
(2.63616 0.0263408 -1.29303e-09)
(2.04999 0.0629194 -2.63985e-09)
(0.9415 0.183428 -4.55586e-09)
(0.436933 0.16376 4.04578e-10)
(0.548177 0.156506 1.11849e-10)
(0.583847 0.164499 -1.38168e-10)
(0.530532 0.17368 -1.33276e-10)
(0.440809 0.184632 -9.55889e-11)
(0.35432 0.195842 -4.45204e-11)
(0.282579 0.207845 4.14272e-11)
(0.209911 0.219956 4.25424e-12)
(0.124941 0.231023 3.0402e-11)
(0.0504571 0.236978 2.36986e-11)
(3 1.01132e-07 -3.49201e-15)
(2.99999 5.53394e-07 -1.57079e-14)
(2.99997 2.05522e-06 -5.40587e-14)
(2.99991 5.2489e-06 -1.14428e-13)
(2.9998 1.45342e-05 -3.61919e-13)
(2.99948 3.29482e-05 -7.04199e-13)
(2.99884 8.91256e-05 -2.53804e-12)
(2.99694 0.000183695 -3.32621e-12)
(2.99343 0.000590907 -2.28913e-11)
(2.98123 0.000965696 -1.06478e-11)
(2.95933 0.00426953 -1.96644e-10)
(2.87815 0.00788135 -2.0085e-10)
(2.66678 0.0316684 -1.18894e-09)
(2.12413 0.0761573 -2.4914e-09)
(0.995921 0.228095 -4.6014e-09)
(0.445849 0.212135 2.89012e-10)
(0.562602 0.203477 8.91502e-11)
(0.602277 0.212307 -1.37909e-10)
(0.548906 0.223516 -1.35634e-10)
(0.459522 0.238371 -9.56872e-11)
(0.372352 0.253762 -5.69542e-11)
(0.299258 0.270362 3.15113e-11)
(0.224271 0.287509 -9.68163e-12)
(0.135272 0.30343 1.49017e-11)
(0.0549964 0.312053 1.51098e-11)
(3 1.25084e-07 -4.12253e-15)
(2.99999 6.79975e-07 -1.80396e-14)
(2.99997 2.53381e-06 -6.30961e-14)
(2.99992 6.49918e-06 -1.37053e-13)
(2.99981 1.79715e-05 -4.22108e-13)
(2.99951 4.11436e-05 -8.75757e-13)
(2.99892 0.000108463 -2.70073e-12)
(2.99717 0.000238912 -5.4228e-12)
(2.99382 0.00066775 -1.89435e-11)