/*--------------------------------*- C++ -*----------------------------------*\
| =========                 |                                                 |
| \\      /  F ield         | OpenFOAM: The Open Source CFD Toolbox           |
|  \\    /   O peration     | Version:  4.1                                   |
|   \\  /    A nd           | Web:      www.OpenFOAM.org                      |
|    \\/     M anipulation  |                                                 |
\*---------------------------------------------------------------------------*/
FoamFile
{
    version     2.0;
    format      ascii;
    class       volScalarField;
    location    "0.06";
    object      p;
}
// * * * * * * * * * * * * * * * * * * * * * * * * * * * * * * * * * * * * * //

dimensions      [1 -1 -2 0 0 0 0];

internalField   nonuniform List<scalar> 
52500
(
0.0900135
0.0925476
0.112599
0.16078
0.264028
0.497778
0.713143
0.832063
0.906122
0.951213
0.976661
0.990294
0.996081
0.998443
0.999401
0.999936
1.00094
1.00324
1.00936
1.0262
1.07335
1.21211
1.68127
3.17095
11.703
0.0900118
0.0925453
0.112596
0.160778
0.264027
0.49778
0.713148
0.832068
0.906124
0.951214
0.976661
0.990294
0.996081
0.998443
0.999401
0.999936
1.00094
1.00324
1.00936
1.0262
1.07335
1.21211
1.68125
3.17083
11.702
0.089997
0.0925315
0.112586
0.160776
0.264035
0.497788
0.713154
0.832077
0.906133
0.951219
0.976662
0.990293
0.996081
0.998443
0.999401
0.999936
1.00094
1.00324
1.00936
1.0262
1.07336
1.21211
1.68132
3.17038
11.6965
0.0899946
0.0925401
0.112612
0.160824
0.264087
0.497861
0.713165
0.832075
0.90613
0.951215
0.97666
0.990292
0.996081
0.998443
0.999401
0.999936
1.00094
1.00324
1.00936
1.02619
1.07334
1.21203
1.68087
3.16773
11.6752
0.0899414
0.092501
0.112597
0.160843
0.264116
0.497889
0.713176
0.832089
0.906139
0.951219
0.97666
0.990291
0.99608
0.998442
0.999401
0.999936
1.00094
1.00324
1.00935
1.02617
1.07326
1.21167
1.67898
3.15747
11.598
0.0903223
0.0928471
0.112865
0.160962
0.264147
0.497468
0.713134
0.83211
0.906162
0.951234
0.976667
0.990292
0.996082
0.998443
0.999401
0.999936
1.00094
1.00324
1.00933
1.02609
1.07296
1.21034
1.67246
3.12497
11.3713
0.0903017
0.0928396
0.112885
0.161012
0.264207
0.497539
0.713149
0.832114
0.906162
0.951232
0.976665
0.99029
0.996081
0.998442
0.999401
0.999934
1.00093
1.00321
1.00925
1.02578
1.07185
1.20591
1.65254
3.0369
10.8268
0.0899259
0.0925037
0.11263
0.160916
0.264201
0.497999
0.713199
0.832093
0.906138
0.951216
0.976657
0.990289
0.996079
0.998441
0.999401
0.999929
1.00091
1.00314
1.009
1.02488
1.06891
1.19473
1.60752
2.85663
9.8443
0.0903024
0.0928402
0.112885
0.161013
0.264209
0.497541
0.713155
0.832119
0.906166
0.951234
0.976666
0.990291
0.996082
0.998441
0.999403
0.99991
1.00083
1.00287
1.00821
1.02251
1.06186
1.17205
1.52454
2.57114
8.31462
0.0902979
0.0928353
0.112881
0.161008
0.264205
0.497535
0.713159
0.832121
0.906165
0.951233
0.976664
0.99029
0.996081
0.998438
0.999407
0.99987
1.00065
1.00233
1.00667
1.01821
1.0499
1.13693
1.40783
2.17982
6.62848
0.0899924
0.0925382
0.112611
0.160824
0.264088
0.497859
0.713176
0.832086
0.906139
0.951226
0.976672
0.990304
0.996092
0.998453
0.999412
0.999946
1.00095
1.00325
1.00937
1.02621
1.07337
1.21213
1.68133
3.17116
11.7038
0.0899829
0.0925268
0.112596
0.160802
0.264058
0.49782
0.713169
0.832089
0.906144
0.95123
0.976675
0.990306
0.996093
0.998454
0.999412
0.999947
1.00095
1.00325
1.00937
1.02621
1.07337
1.21213
1.68131
3.17103
11.7028
0.0903071
0.0928406
0.112877
0.160989
0.264174
0.497491
0.713154
0.83213
0.906179
0.951251
0.976683
0.990307
0.996095
0.998454
0.999412
0.999947
1.00095
1.00325
1.00937
1.02621
1.07336
1.21211
1.68121
3.1704
11.6974
0.0899938
0.0925341
0.112597
0.160795
0.264049
0.4978
0.713166
0.832093
0.906149
0.951234
0.976678
0.990308
0.996094
0.998454
0.999412
0.999947
1.00095
1.00325
1.00937
1.0262
1.07335
1.21203
1.68076
3.16776
11.6762
0.0903071
0.0928406
0.112877
0.160988
0.264173
0.497491
0.713155
0.832131
0.90618
0.951252
0.976683
0.990307
0.996095
0.998455
0.999412
0.999947
1.00095
1.00325
1.00936
1.02618
1.07327
1.21167
1.67887
3.1575
11.5989
0.0899829
0.0925267
0.112595
0.1608
0.264054
0.497813
0.713167
0.832091
0.906147
0.951233
0.976678
0.990308
0.996094
0.998454
0.999412
0.999947
1.00095
1.00325
1.00934
1.0261
1.07297
1.21034
1.67237
3.12502
11.3723
0.0899927
0.0925384
0.11261
0.16082
0.264079
0.497845
0.713174
0.832089
0.906143
0.95123
0.976675
0.990306
0.996093
0.998454
0.999412
0.999945
1.00094
1.00322
1.00926
1.02579
1.07186
1.20593
1.65259
3.03706
10.8275
0.0900122
0.0925458
0.112597
0.160778
0.264027
0.497778
0.713158
0.832083
0.906141
0.95123
0.976677
0.990308
0.996094
0.998454
0.999413
0.999941
1.00092
1.00315
1.00901
1.02489
1.0689
1.19476
1.60742
2.85687
9.8449
0.0900125
0.0925461
0.112597
0.160776
0.264023
0.497771
0.713157
0.832083
0.906141
0.95123
0.976677
0.990308
0.996094
0.998453
0.999415
0.999921
1.00084
1.00288
1.00821
1.02252
1.06186
1.17204
1.52449
2.57123
8.31486
0.0900127
0.0925462
0.112596
0.160774
0.26402
0.497766
0.713156
0.832084
0.906143
0.951232
0.976678
0.990309
0.996095
0.99845
0.999418
0.999881
1.00066
1.00234
1.00668
1.01822
1.04991
1.13694
1.40784
2.17994
6.62863
0.0900128
0.0925462
0.112596
0.160774
0.264019
0.497764
0.713156
0.832084
0.906144
0.951233
0.976679
0.990309
0.996094
0.998455
0.999412
0.999947
1.00095
1.00325
1.00937
1.02621
1.07337
1.21213
1.68133
3.17116
11.7039
0.0900126
0.0925462
0.112597
0.160776
0.264022
0.49777
0.713157
0.832083
0.906142
0.951231
0.976678
0.990309
0.996094
0.998454
0.999412
0.999947
1.00095
1.00325
1.00937
1.02621
1.07337
1.21213
1.68131
3.17103
11.7028
0.0900121
0.0925457
0.112597
0.160778
0.264026
0.497777
0.713158
0.832084
0.906142
0.951232
0.976678
0.990309
0.996094
0.998455
0.999412
0.999947
1.00095
1.00325
1.00937
1.02621
1.07336
1.21211
1.68121
3.1704
11.6975
0.0899931
0.0925385
0.112609
0.160817
0.264074
0.497835
0.713172
0.832091
0.906146
0.951233
0.976677
0.990308
0.996094
0.998454
0.999412
0.999947
1.00095
1.00325
1.00937
1.0262
1.07335
1.21203
1.68076
3.16776
11.6762
0.0899836
0.0925271
0.112594
0.160796
0.264048
0.497803
0.713166
0.832093
0.906149
0.951235
0.976679
0.990309
0.996095
0.998455
0.999412
0.999947
1.00095
1.00325
1.00936
1.02618
1.07327
1.21167
1.67887
3.1575
11.5989
0.0903323
0.0928512
0.112855
0.160929
0.264099
0.497402
0.713135
0.832123
0.906178
0.951252
0.976686
0.990309
0.996096
0.998455
0.999412
0.999947
1.00095
1.00325
1.00934
1.0261
1.07297
1.21034
1.67237
3.12502
11.3723
0.0899837
0.0925271
0.112595
0.160796
0.264049
0.497804
0.713166
0.832092
0.906149
0.951235
0.976679
0.990309
0.996094
0.998455
0.999413
0.999945
1.00095
1.00322
1.00926
1.02579
1.07186
1.20593
1.65259
3.03707
10.8276
0.089993
0.0925385
0.11261
0.160819
0.264079
0.497844
0.713173
0.832088
0.906142
0.951229
0.976675
0.990306
0.996093
0.998453
0.999413
0.99994
1.00092
1.00315
1.00901
1.02489
1.0689
1.19476
1.60742
2.85687
9.84491
0.0900117
0.0925454
0.112597
0.160781
0.264032
0.497787
0.71316
0.832083
0.906141
0.95123
0.976677
0.990308
0.996094
0.998453
0.999415
0.999921
1.00084
1.00288
1.00821
1.02252
1.06186
1.17204
1.52449
2.57123
8.31487
0.089993
0.0925386
0.11261
0.160819
0.264079
0.497844
0.713173
0.832088
0.906142
0.951229
0.976675
0.990306
0.996093
0.99845
0.999418
0.999881
1.00066
1.00234
1.00668
1.01822
1.04991
1.13694
1.40784
2.17994
6.62863
0.0900128
0.0925462
0.112596
0.160774
0.264019
0.497763
0.713156
0.832085
0.906145
0.951234
0.97668
0.99031
0.996095
0.998455
0.999412
0.999947
1.00095
1.00325
1.00937
1.02621
1.07337
1.21213
1.68133
3.17116
11.7038
0.0900128
0.0925462
0.112596
0.160774
0.264018
0.497763
0.713156
0.832085
0.906145
0.951234
0.97668
0.99031
0.996095
0.998455
0.999412
0.999947
1.00095
1.00325
1.00937
1.02621
1.07337
1.21213
1.68131
3.17103
11.7028
0.0900128
0.0925462
0.112596
0.160774
0.264018
0.497763
0.713156
0.832085
0.906145
0.951234
0.97668
0.99031
0.996095
0.998455
0.999412
0.999947
1.00095
1.00325
1.00937
1.02621
1.07336
1.21211
1.68121
3.1704
11.6974
0.0900128
0.0925462
0.112596
0.160774
0.264019
0.497763
0.713156
0.832085
0.906145
0.951234
0.97668
0.99031
0.996095
0.998455
0.999412
0.999947
1.00095
1.00325
1.00937
1.0262
1.07335
1.21203
1.68076
3.16776
11.6762
0.0900128
0.0925462
0.112596
0.160774
0.264018
0.497763
0.713156
0.832086
0.906145
0.951234
0.97668
0.99031
0.996095
0.998455
0.999412
0.999947
1.00095
1.00325
1.00936
1.02618
1.07327
1.21167
1.67887
3.1575
11.5989
0.0900127
0.0925462
0.112596
0.160774
0.264019
0.497763
0.713156
0.832086
0.906145
0.951234
0.97668
0.99031
0.996095
0.998455
0.999413
0.999947
1.00095
1.00325
1.00934
1.0261
1.07297
1.21034
1.67237
3.12502
11.3723
0.0900128
0.0925462
0.112596
0.160774
0.264019
0.497763
0.713156
0.832085
0.906145
0.951234
0.97668
0.99031
0.996095
0.998455
0.999413
0.999946
1.00095
1.00322
1.00926
1.02579
1.07186
1.20593
1.65259
3.03706
10.8276
0.0900128
0.0925462
0.112596
0.160774
0.264019
0.497763
0.713156
0.832085
0.906145
0.951234
0.97668
0.99031
0.996095
0.998455
0.999413
0.999941
1.00092
1.00315
1.00901
1.02489
1.0689
1.19476
1.60742
2.85687
9.84491
0.0900128
0.0925462
0.112596
0.160774
0.264018
0.497763
0.713156
0.832086
0.906145
0.951234
0.97668
0.99031
0.996095
0.998454
0.999415
0.999921
1.00084
1.00288
1.00821
1.02252
1.06186
1.17204
1.52449
2.57123
8.31487
0.0900128
0.0925462
0.112596
0.160774
0.264019
0.497763
0.713156
0.832086
0.906145
0.951234
0.97668
0.99031
0.996095
0.998451
0.999419
0.999881
1.00066
1.00234
1.00668
1.01822
1.04991
1.13694
1.40784
2.17994
6.62863
0.0899978
0.0925316
0.112583
0.16077
0.264023
0.49777
0.713148
0.832081
0.906142
0.95123
0.976674
0.990304
0.996093
0.998454
0.999412
0.999947
1.00095
1.00325
1.00937
1.02621
1.07337
1.21213
1.68132
3.17109
11.7034
0.0899978
0.0925321
0.112585
0.160772
0.264025
0.49777
0.713146
0.832076
0.906137
0.951226
0.976672
0.990303
0.996092
0.998453
0.999412
0.999947
1.00095
1.00325
1.00937
1.02621
1.07337
1.21213
1.68131
3.17099
11.7025
0.0900106
0.0925446
0.112597
0.160782
0.264033
0.497788
0.71314
0.832058
0.906119
0.951213
0.976664
0.9903
0.99609
0.998452
0.999411
0.999946
1.00095
1.00325
1.00937
1.02621
1.07337
1.21214
1.68138
3.17054
11.6972
0.0900104
0.0925445
0.112598
0.160783
0.264034
0.497789
0.713141
0.832059
0.906119
0.951213
0.976664
0.9903
0.99609
0.998452
0.999411
0.999946
1.00095
1.00325
1.00937
1.0262
1.07335
1.21206
1.68093
3.16789
11.6759
0.0899978
0.0925322
0.112585
0.160772
0.264027
0.497773
0.713147
0.832076
0.906137
0.951225
0.976671
0.990302
0.996092
0.998453
0.999412
0.999946
1.00095
1.00325
1.00936
1.02618
1.07327
1.21166
1.67885
3.15747
11.5988
0.0900013
0.092535
0.112586
0.160771
0.264023
0.497771
0.713146
0.83208
0.906144
0.951232
0.976675
0.990305
0.996093
0.998454
0.999412
0.999946
1.00095
1.00325
1.00934
1.0261
1.07297
1.21034
1.67235
3.12498
11.3721
0.0900002
0.0925348
0.112588
0.160776
0.26403
0.497779
0.713139
0.832071
0.906136
0.951226
0.976671
0.990302
0.996092
0.998453
0.999412
0.999945
1.00094
1.00322
1.00926
1.02579
1.07186
1.20593
1.65258
3.03704
10.8274
0.0900126
0.0925466
0.112599
0.160783
0.264034
0.49779
0.713138
0.83206
0.906124
0.951217
0.976667
0.990301
0.996091
0.998453
0.999412
0.99994
1.00092
1.00315
1.00901
1.02489
1.0689
1.19476
1.60742
2.85686
9.84483
0.0899979
0.0925321
0.112585
0.160772
0.264026
0.497772
0.713149
0.832079
0.906139
0.951227
0.976672
0.990303
0.996092
0.998452
0.999414
0.99992
1.00084
1.00288
1.00821
1.02252
1.06186
1.17204
1.52449
2.57123
8.31484
0.0899988
0.0925327
0.112584
0.160769
0.264022
0.497766
0.713152
0.832083
0.906142
0.951229
0.976673
0.990304
0.996093
0.998449
0.999418
0.999881
1.00066
1.00234
1.00668
1.01822
1.04991
1.13694
1.40784
2.17994
6.62862
0.0900128
0.0925462
0.112596
0.160774
0.264019
0.497764
0.713156
0.832085
0.906145
0.951234
0.976679
0.99031
0.996095
0.998455
0.999412
0.999947
1.00095
1.00325
1.00937
1.02621
1.07337
1.21213
1.68133
3.17116
11.7038
0.0900128
0.0925463
0.112596
0.160774
0.264019
0.497764
0.713157
0.832085
0.906145
0.951234
0.976679
0.99031
0.996095
0.998455
0.999412
0.999947
1.00095
1.00325
1.00937
1.02621
1.07337
1.21213
1.68131
3.17103
11.7027
0.0900127
0.0925463
0.112596
0.160774
0.264019
0.497764
0.713156
0.832085
0.906145
0.951234
0.976679
0.99031
0.996095
0.998455
0.999412
0.999947
1.00095
1.00325
1.00937
1.02621
1.07336
1.21211
1.68121
3.1704
11.6974
0.0900148
0.0925484
0.112598
0.160775
0.26402
0.497766
0.713154
0.832084
0.906145
0.951234
0.97668
0.99031
0.996095
0.998455
0.999412
0.999947
1.00095
1.00325
1.00937
1.0262
1.07335
1.21203
1.68076
3.16775
11.6761
0.0900127
0.0925463
0.112596
0.160774
0.264019
0.497764
0.713156
0.832085
0.906145
0.951234
0.97668
0.99031
0.996095
0.998455
0.999412
0.999947
1.00095
1.00325
1.00936
1.02618
1.07327
1.21166
1.67886
3.15747
11.5988
0.0900148
0.0925484
0.112598
0.160775
0.26402
0.497766
0.713154
0.832084
0.906145
0.951234
0.97668
0.99031
0.996095
0.998455
0.999412
0.999947
1.00095
1.00325
1.00934
1.0261
1.07296
1.21034
1.67236
3.12501
11.3723
0.0900127
0.0925463
0.112596
0.160774
0.264019
0.497764
0.713156
0.832085
0.906145
0.951234
0.976679
0.99031
0.996095
0.998455
0.999413
0.999945
1.00095
1.00322
1.00926
1.02579
1.07186
1.20593
1.65258
3.03705
10.8276
0.0900128
0.0925463
0.112596
0.160774
0.264019
0.497764
0.713156
0.832085
0.906145
0.951233
0.976679
0.99031
0.996095
0.998454
0.999413
0.999941
1.00092
1.00315
1.00901
1.02489
1.0689
1.19476
1.60741
2.85685
9.84497
0.0900128
0.0925462
0.112596
0.160774
0.264019
0.497764
0.713156
0.832085
0.906145
0.951234
0.976679
0.99031
0.996095
0.998453
0.999415
0.999921
1.00084
1.00288
1.00821
1.02252
1.06186
1.17203
1.52449
2.57121
8.31479
0.0900128
0.0925462
0.112596
0.160774
0.264019
0.497764
0.713156
0.832085
0.906144
0.951233
0.976679
0.99031
0.996095
0.998451
0.999419
0.999881
1.00066
1.00234
1.00668
1.01822
1.04991
1.13693
1.40784
2.17992
6.62856
0.0900126
0.092546
0.112596
0.160774
0.264018
0.497763
0.713156
0.832085
0.906145
0.951234
0.97668
0.99031
0.996095
0.998455
0.999412
0.999947
1.00095
1.00325
1.00937
1.02621
1.07337
1.21213
1.68133
3.17116
11.7039
0.0900128
0.0925462
0.112596
0.160774
0.264018
0.497763
0.713156
0.832086
0.906145
0.951234
0.97668
0.99031
0.996095
0.998455
0.999412
0.999947
1.00095
1.00325
1.00937
1.02621
1.07337
1.21213
1.68131
3.17103
11.7028
0.0900128
0.0925462
0.112596
0.160774
0.264018
0.497763
0.713156
0.832086
0.906145
0.951234
0.97668
0.99031
0.996095
0.998455
0.999412
0.999947
1.00095
1.00325
1.00937
1.02621
1.07336
1.21211
1.68121
3.1704
11.6975
0.0900128
0.0925462
0.112596
0.160774
0.264018
0.497763
0.713156
0.832086
0.906145
0.951234
0.97668
0.99031
0.996095
0.998455
0.999412
0.999947
1.00095
1.00325
1.00937
1.0262
1.07335
1.21203
1.68076
3.16776
11.6762
0.0900128
0.0925462
0.112596
0.160774
0.264018
0.497763
0.713156
0.832086
0.906145
0.951234
0.97668
0.99031
0.996095
0.998455
0.999412
0.999947
1.00095
1.00325
1.00936
1.02618
1.07327
1.21167
1.67887
3.1575
11.5989
0.0900127
0.0925462
0.112596
0.160774
0.264019
0.497763
0.713156
0.832086
0.906145
0.951234
0.97668
0.99031
0.996095
0.998455
0.999413
0.999947
1.00095
1.00325
1.00934
1.0261
1.07297
1.21034
1.67237
3.12502
11.3723
0.0900128
0.0925462
0.112596
0.160774
0.264018
0.497763
0.713156
0.832086
0.906145
0.951234
0.97668
0.99031
0.996095
0.998455
0.999413
0.999946
1.00095
1.00322
1.00926
1.02579
1.07186
1.20593
1.65259
3.03706
10.8276
0.0900128
0.0925462
0.112596
0.160774
0.264018
0.497763
0.713156
0.832086
0.906145
0.951234
0.97668
0.99031
0.996095
0.998455
0.999413
0.999941
1.00092
1.00315
1.00901
1.02489
1.0689
1.19476
1.60742
2.85687
9.84491
0.0900128
0.0925462
0.112596
0.160774
0.264018
0.497763
0.713156
0.832086
0.906145
0.951234
0.97668
0.99031
0.996095
0.998454
0.999415
0.999921
1.00084
1.00288
1.00821
1.02252
1.06186
1.17204
1.52449
2.57123
8.31486
0.0900128
0.0925462
0.112596
0.160774
0.264018
0.497763
0.713156
0.832086
0.906145
0.951234
0.97668
0.99031
0.996095
0.998451
0.999419
0.999881
1.00066
1.00234
1.00668
1.01822
1.04991
1.13694
1.40784
2.17994
6.62863
0.0900128
0.0925462
0.112596
0.160774
0.264019
0.497764
0.713156
0.832084
0.906144
0.951233
0.976679
0.990309
0.996094
0.998455
0.999412
0.999947
1.00095
1.00325
1.00937
1.02621
1.07337
1.21213
1.68133
3.17116
11.7039
0.0900126
0.0925462
0.112597
0.160776
0.264022
0.49777
0.713157
0.832083
0.906142
0.951231
0.976678
0.990309
0.996094
0.998454
0.999412
0.999947
1.00095
1.00325
1.00937
1.02621
1.07337
1.21213
1.68131
3.17103
11.7028
0.0900121
0.0925457
0.112597
0.160778
0.264026
0.497777
0.713158
0.832084
0.906142
0.951232
0.976678
0.990309
0.996094
0.998455
0.999412
0.999947
1.00095
1.00325
1.00937
1.02621
1.07336
1.21211
1.68121
3.1704
11.6975
0.0899931
0.0925385
0.112609
0.160817
0.264074
0.497835
0.713172
0.832091
0.906146
0.951233
0.976677
0.990308
0.996094
0.998454
0.999412
0.999947
1.00095
1.00325
1.00937
1.0262
1.07335
1.21203
1.68076
3.16776
11.6762
0.0899836
0.0925271
0.112594
0.160796
0.264048
0.497803
0.713166
0.832093
0.906149
0.951235
0.976679
0.990309
0.996095
0.998455
0.999412
0.999947
1.00095
1.00325
1.00936
1.02618
1.07327
1.21167
1.67887
3.1575
11.5989
0.0903323
0.0928512
0.112855
0.160929
0.264099
0.497402
0.713135
0.832123
0.906178
0.951252
0.976686
0.990309
0.996096
0.998455
0.999412
0.999947
1.00095
1.00325
1.00934
1.0261
1.07297
1.21034
1.67237
3.12502
11.3723
0.0899837
0.0925271
0.112595
0.160796
0.264049
0.497804
0.713166
0.832092
0.906149
0.951235
0.976679
0.990309
0.996094
0.998455
0.999413
0.999945
1.00095
1.00322
1.00926
1.02579
1.07186
1.20593
1.65259
3.03707
10.8276
0.089993
0.0925385
0.11261
0.160819
0.264079
0.497844
0.713173
0.832088
0.906142
0.951229
0.976675
0.990306
0.996093
0.998453
0.999413
0.99994
1.00092
1.00315
1.00901
1.02489
1.0689
1.19476
1.60742
2.85687
9.84491
0.0900117
0.0925454
0.112597
0.160781
0.264032
0.497787
0.71316
0.832083
0.906141
0.95123
0.976677
0.990308
0.996094
0.998453
0.999415
0.999921
1.00084
1.00288
1.00821
1.02252
1.06186
1.17204
1.52449
2.57123
8.31487
0.089993
0.0925386
0.11261
0.160819
0.264079
0.497844
0.713173
0.832088
0.906142
0.951229
0.976675
0.990306
0.996093
0.99845
0.999418
0.999881
1.00066
1.00234
1.00668
1.01822
1.04991
1.13694
1.40784
2.17994
6.62863
0.0899924
0.0925382
0.112611
0.160824
0.264088
0.497859
0.713176
0.832086
0.906139
0.951226
0.976672
0.990304
0.996092
0.998453
0.999412
0.999946
1.00095
1.00325
1.00937
1.02621
1.07337
1.21213
1.68133
3.17116
11.7038
0.0899829
0.0925268
0.112596
0.160802
0.264058
0.49782
0.713168
0.832089
0.906144
0.95123
0.976675
0.990306
0.996093
0.998454
0.999412
0.999947
1.00095
1.00325
1.00937
1.02621
1.07337
1.21213
1.68131
3.17103
11.7028
0.0903071
0.0928406
0.112877
0.160989
0.264174
0.497491
0.713154
0.83213
0.906179
0.951251
0.976683
0.990307
0.996095
0.998454
0.999412
0.999947
1.00095
1.00325
1.00937
1.02621
1.07336
1.21211
1.68121
3.1704
11.6974
0.0899937
0.092534
0.112597
0.160795
0.264049
0.4978
0.713166
0.832093
0.906149
0.951234
0.976678
0.990308
0.996094
0.998454
0.999412
0.999947
1.00095
1.00325
1.00937
1.0262
1.07335
1.21203
1.68076
3.16776
11.6762
0.0903071
0.0928406
0.112877
0.160988
0.264173
0.497491
0.713155
0.832131
0.90618
0.951252
0.976683
0.990307
0.996095
0.998455
0.999412
0.999947
1.00095
1.00325
1.00936
1.02618
1.07327
1.21167
1.67887
3.1575
11.5989
0.0899829
0.0925267
0.112595
0.1608
0.264054
0.497813
0.713167
0.832091
0.906147
0.951233
0.976678
0.990308
0.996094
0.998454
0.999412
0.999947
1.00095
1.00325
1.00934
1.0261
1.07297
1.21034
1.67237
3.12502
11.3723
0.0899927
0.0925384
0.11261
0.16082
0.264079
0.497845
0.713174
0.832089
0.906143
0.95123
0.976675
0.990306
0.996093
0.998454
0.999412
0.999945
1.00094
1.00322
1.00926
1.02579
1.07186
1.20593
1.65259
3.03706
10.8275
0.0900121
0.0925457
0.112597
0.160778
0.264027
0.497778
0.713158
0.832082
0.906141
0.95123
0.976677
0.990308
0.996094
0.998454
0.999413
0.999941
1.00092
1.00315
1.00901
1.02489
1.0689
1.19476
1.60742
2.85687
9.8449
0.0900126
0.0925462
0.112597
0.160776
0.264023
0.497771
0.713157
0.832083
0.906141
0.95123
0.976677
0.990308
0.996094
0.998453
0.999415
0.999921
1.00084
1.00288
1.00821
1.02252
1.06186
1.17204
1.52449
2.57123
8.31486
0.0900127
0.0925462
0.112596
0.160774
0.26402
0.497766
0.713156
0.832084
0.906143
0.951232
0.976678
0.990309
0.996095
0.99845
0.999418
0.999881
1.00066
1.00234
1.00668
1.01822
1.04991
1.13694
1.40784
2.17994
6.62863
0.0900125
0.0925468
0.1126
0.160788
0.264043
0.497806
0.71314
0.832051
0.906109
0.951201
0.976652
0.990288
0.996078
0.998442
0.999401
0.999936
1.00094
1.00324
1.00936
1.0262
1.07336
1.21213
1.68143
3.1711
11.7027
0.0899765
0.0925236
0.112599
0.16082
0.264089
0.497856
0.713158
0.832069
0.906123
0.95121
0.976655
0.990287
0.996079
0.998442
0.999401
0.999936
1.00094
1.00324
1.00936
1.0262
1.07335
1.21211
1.68124
3.17082
11.7018
0.0899841
0.0925274
0.112596
0.160803
0.26406
0.497828
0.713151
0.832068
0.906124
0.951212
0.976658
0.990291
0.99608
0.998442
0.999401
0.999936
1.00094
1.00324
1.00936
1.0262
1.07336
1.21212
1.68132
3.17036
11.6963
0.0903028
0.0928212
0.112833
0.160926
0.264119
0.497417
0.713129
0.832119
0.906172
0.95124
0.976667
0.990289
0.996082
0.998443
0.999401
0.999936
1.00094
1.00324
1.00936
1.02619
1.07334
1.21203
1.68087
3.16772
11.6751
0.0899674
0.0925223
0.112611
0.160847
0.264118
0.497898
0.71317
0.832077
0.906129
0.951213
0.976657
0.99029
0.99608
0.998442
0.999401
0.999936
1.00094
1.00324
1.00935
1.02617
1.07326
1.21167
1.67897
3.15747
11.5979
0.0899275
0.0924996
0.112617
0.160896
0.264185
0.497981
0.713181
0.832077
0.906124
0.951205
0.976648
0.990281
0.996076
0.99844
0.9994
0.999935
1.00094
1.00324
1.00933
1.02609
1.07296
1.21034
1.67247
3.12497
11.3713
0.0903173
0.092842
0.112863
0.160963
0.264151
0.497473
0.713132
0.8321
0.906149
0.951223
0.97666
0.990288
0.99608
0.998442
0.999401
0.999934
1.00093
1.00321
1.00925
1.02578
1.07184
1.20591
1.65254
3.0369
10.8268
0.0902942
0.0928337
0.112886
0.161026
0.264232
0.497578
0.713138
0.832081
0.906125
0.951201
0.976642
0.990275
0.996073
0.998438
0.9994
0.999928
1.00091
1.00314
1.009
1.02488
1.06891
1.19474
1.60752
2.85663
9.8443
0.089957
0.0925173
0.112616
0.160868
0.264144
0.49793
0.713166
0.832067
0.906118
0.951201
0.976648
0.990284
0.996077
0.998439
0.999403
0.999909
1.00083
1.00287
1.00821
1.02251
1.06186
1.17205
1.52454
2.57115
8.31462
0.0902591
0.0928121
0.112882
0.161054
0.264271
0.497608
0.713145
0.832111
0.906161
0.951229
0.976657
0.99028
0.996078
0.998436
0.999406
0.99987
1.00064
1.00233
1.00667
1.01821
1.0499
1.13693
1.40783
2.17983
6.62848
0.0899602
0.0925197
0.112616
0.160861
0.264135
0.497916
0.713183
0.832085
0.906132
0.951213
0.976657
0.990289
0.996081
0.99843
0.999408
0.999785
1.00019
1.00106
1.00324
1.00921
1.02561
1.07127
1.20233
1.58538
2.82834
0.0903098
0.0928444
0.112883
0.161002
0.264195
0.49753
0.713151
0.832114
0.906161
0.951232
0.976665
0.99029
0.996083
0.998429
0.999405
0.99978
0.999968
1.00031
1.0011
1.00323
1.00919
1.02567
1.0721
1.20215
1.56893
0.0899672
0.0925233
0.112615
0.160856
0.264132
0.497921
0.713185
0.83208
0.906126
0.951208
0.976654
0.990288
0.99608
0.998429
0.999402
0.99978
0.99992
1.00003
1.00025
1.00079
1.00231
1.00645
1.01795
1.04871
1.12938
0.0899406
0.0925115
0.112628
0.160901
0.264186
0.497988
0.7132
0.832087
0.906128
0.951208
0.976653
0.990286
0.99608
0.998428
0.999401
0.999779
0.999918
0.999971
1.00003
1.00015
1.00047
1.00133
1.00364
1.00971
1.02522
0.0903026
0.0928385
0.112882
0.161011
0.264212
0.497553
0.713156
0.832116
0.906162
0.951231
0.976663
0.990289
0.996083
0.99843
0.999402
0.999779
0.999917
0.999966
0.999986
1.00001
1.00007
1.00022
1.0006
1.00158
1.00394
0.0902831
0.0928304
0.112891
0.16104
0.26424
0.497577
0.713163
0.832125
0.906168
0.951234
0.976664
0.990289
0.996083
0.99843
0.999402
0.999779
0.999917
0.999966
0.999982
0.99999
1
1.00003
1.00008
1.00023
1.00058
0.0902687
0.0928276
0.112907
0.161081
0.26429
0.497635
0.713177
0.832133
0.906173
0.951236
0.976665
0.990289
0.996083
0.99843
0.999402
0.999779
0.999917
0.999966
0.999982
0.999987
0.99999
0.999994
1
1.00002
1.00007
0.0902639
0.0928229
0.112905
0.161081
0.264292
0.497638
0.713183
0.832134
0.90617
0.951233
0.976662
0.990287
0.996082
0.998429
0.999402
0.999779
0.999917
0.999965
0.999982
0.999987
0.999989
0.99999
0.999991
0.999994
1
0.0902826
0.0928301
0.112892
0.161044
0.264248
0.49759
0.713167
0.832124
0.906165
0.951231
0.976661
0.990287
0.996082
0.998429
0.999402
0.999779
0.999917
0.999966
0.999982
0.999987
0.999989
0.999989
0.99999
0.99999
0.999991
0.0902779
0.092828
0.112897
0.161057
0.264269
0.497621
0.713177
0.832125
0.906163
0.951229
0.97666
0.990287
0.996081
0.998429
0.999402
0.999779
0.999917
0.999965
0.999982
0.999987
0.999989
0.999989
0.999989
0.99999
0.99999
0.0899248
0.0925031
0.112632
0.160923
0.264213
0.49802
0.713205
0.832091
0.906132
0.95121
0.976653
0.990286
0.996079
0.998428
0.999401
0.999778
0.999917
0.999965
0.999982
0.999987
0.999989
0.999989
0.999989
0.99999
0.99999
0.0903019
0.0928398
0.112886
0.161017
0.264216
0.497555
0.713156
0.832115
0.906159
0.951228
0.976662
0.990288
0.996082
0.998429
0.999402
0.999779
0.999917
0.999966
0.999982
0.999987
0.999989
0.999989
0.999989
0.99999
0.99999
0.0902974
0.0928353
0.112883
0.161015
0.264216
0.497555
0.713162
0.832117
0.906158
0.951227
0.97666
0.990287
0.996082
0.998429
0.999402
0.999779
0.999917
0.999966
0.999982
0.999987
0.999989
0.999989
0.999989
0.99999
0.99999
0.0899249
0.0925031
0.112632
0.160922
0.264212
0.498018
0.713204
0.832092
0.906134
0.951212
0.976654
0.990287
0.99608
0.998428
0.999402
0.999779
0.999917
0.999965
0.999982
0.999987
0.999989
0.999989
0.999989
0.99999
0.99999
0.0902827
0.0928326
0.112899
0.161056
0.264264
0.497613
0.71317
0.832125
0.906168
0.951235
0.976665
0.990289
0.996083
0.99843
0.999402
0.999779
0.999917
0.999966
0.999982
0.999987
0.999989
0.999989
0.999989
0.99999
0.99999
0.0902788
0.0928257
0.112887
0.161036
0.264238
0.497573
0.713168
0.832128
0.906167
0.951232
0.976663
0.990289
0.996083
0.998429
0.999402
0.999779
0.999917
0.999966
0.999982
0.999987
0.999989
0.999989
0.999989
0.99999
0.99999
0.0902789
0.0928257
0.112887
0.161036
0.264238
0.497574
0.71317
0.832127
0.906166
0.951231
0.976662
0.990288
0.996082
0.998429
0.999402
0.999779
0.999917
0.999966
0.999982
0.999987
0.999989
0.999989
0.999989
0.99999
0.99999
0.0902779
0.0928278
0.112896
0.161056
0.264266
0.497616
0.713176
0.832125
0.906163
0.951229
0.976661
0.990288
0.996082
0.998429
0.999402
0.999779
0.999917
0.999966
0.999982
0.999987
0.999989
0.999989
0.999989
0.99999
0.99999
0.0899243
0.0925027
0.112632
0.160926
0.264218
0.498029
0.713207
0.832092
0.906132
0.95121
0.976653
0.990286
0.99608
0.998428
0.999401
0.999778
0.999917
0.999965
0.999982
0.999987
0.999989
0.999989
0.999989
0.99999
0.99999
0.0902773
0.0928274
0.112896
0.161058
0.26427
0.497624
0.713176
0.832123
0.906162
0.951228
0.97666
0.990287
0.996081
0.998429
0.999402
0.999779
0.999917
0.999965
0.999982
0.999987
0.999989
0.999989
0.999989
0.99999
0.99999
0.0902828
0.0928302
0.112892
0.161041
0.264244
0.497583
0.713165
0.832125
0.906167
0.951233
0.976664
0.990289
0.996083
0.99843
0.999402
0.999779
0.999917
0.999966
0.999982
0.999987
0.999989
0.999989
0.999989
0.99999
0.99999
0.0902644
0.0928231
0.112904
0.161078
0.264288
0.497631
0.71318
0.832131
0.906168
0.951231
0.976661
0.990287
0.996082
0.998429
0.999402
0.999779
0.999917
0.999965
0.999982
0.999987
0.999989
0.999989
0.999989
0.99999
0.99999
0.0902828
0.0928302
0.112891
0.161041
0.264244
0.497583
0.713165
0.832125
0.906167
0.951233
0.976664
0.990289
0.996083
0.99843
0.999402
0.999779
0.999917
0.999966
0.999982
0.999987
0.999989
0.999989
0.999989
0.99999
0.99999
0.0902777
0.0928279
0.112897
0.161059
0.264272
0.497626
0.713178
0.832123
0.90616
0.951226
0.976658
0.990285
0.996081
0.998429
0.999402
0.999779
0.999917
0.999965
0.999982
0.999987
0.999989
0.999989
0.999989
0.99999
0.99999
0.0899222
0.0925006
0.112631
0.160925
0.264219
0.49803
0.71321
0.832092
0.906131
0.951208
0.976651
0.990285
0.996079
0.998428
0.999401
0.999778
0.999917
0.999965
0.999982
0.999987
0.999989
0.999989
0.999989
0.99999
0.99999
0.0902824
0.0928326
0.1129
0.161061
0.264273
0.497629
0.713173
0.83212
0.90616
0.951227
0.976659
0.990286
0.996081
0.998429
0.999402
0.999779
0.999917
0.999965
0.999982
0.999987
0.999989
0.999989
0.999989
0.99999
0.99999
0.0902779
0.0928251
0.112888
0.16104
0.264244
0.497582
0.713169
0.832126
0.906166
0.951231
0.976662
0.990288
0.996082
0.99843
0.999402
0.999779
0.999917
0.999966
0.999982
0.999987
0.999989
0.999989
0.999989
0.99999
0.99999
0.090269
0.0928278
0.112907
0.161081
0.26429
0.497635
0.713175
0.832129
0.906169
0.951233
0.976662
0.990287
0.996082
0.998429
0.999402
0.999779
0.999917
0.999965
0.999982
0.999987
0.999989
0.999989
0.999989
0.99999
0.99999
0.0902828
0.0928302
0.112891
0.161041
0.264242
0.497581
0.713164
0.832126
0.906169
0.951235
0.976665
0.99029
0.996083
0.99843
0.999402
0.999779
0.999917
0.999966
0.999982
0.999987
0.999989
0.999989
0.999989
0.99999
0.99999
0.0902779
0.0928279
0.112896
0.161056
0.264268
0.497619
0.713177
0.832126
0.906165
0.95123
0.976661
0.990288
0.996082
0.998429
0.999402
0.999779
0.999917
0.999965
0.999982
0.999987
0.999989
0.999989
0.999989
0.99999
0.99999
0.0899228
0.0925008
0.11263
0.16092
0.26421
0.498015
0.713207
0.832094
0.906134
0.951212
0.976654
0.990287
0.99608
0.998429
0.999402
0.999779
0.999917
0.999965
0.999982
0.999987
0.999989
0.999989
0.999989
0.99999
0.99999
0.0902975
0.092835
0.112882
0.161013
0.264212
0.497549
0.713162
0.832119
0.90616
0.951229
0.976662
0.990289
0.996082
0.998429
0.999402
0.999779
0.999917
0.999966
0.999982
0.999987
0.999989
0.999989
0.999989
0.99999
0.99999
0.0902973
0.0928347
0.112881
0.161011
0.264208
0.497542
0.713161
0.832122
0.906164
0.951232
0.976665
0.99029
0.996083
0.99843
0.999402
0.999779
0.999917
0.999966
0.999982
0.999987
0.999989
0.999989
0.999989
0.99999
0.99999
0.0899236
0.0925014
0.112629
0.160916
0.264203
0.498004
0.713205
0.832095
0.906135
0.951213
0.976655
0.990288
0.99608
0.998429
0.999402
0.999779
0.999917
0.999965
0.999982
0.999987
0.999989
0.999989
0.999989
0.99999
0.99999
0.0902977
0.0928353