/*--------------------------------*- C++ -*----------------------------------*\
| =========                 |                                                 |
| \\      /  F ield         | OpenFOAM: The Open Source CFD Toolbox           |
|  \\    /   O peration     | Version:  4.1                                   |
|   \\  /    A nd           | Web:      www.OpenFOAM.org                      |
|    \\/     M anipulation  |                                                 |
\*---------------------------------------------------------------------------*/
FoamFile
{
    version     2.0;
    format      ascii;
    class       surfaceScalarField;
    location    "0.06";
    object      phi;
}
// * * * * * * * * * * * * * * * * * * * * * * * * * * * * * * * * * * * * * //

dimensions      [1 0 -1 0 0 0 0];

internalField   nonuniform List<scalar> 
150500
(
0.00217226
4.51302e-09
9.00655e-11
0.00202592
-4.684e-09
4.0373e-11
0.00243984
-1.63346e-08
-5.28806e-11
0.00339447
-2.24739e-08
-1.82659e-10
0.00511967
-1.63191e-08
-2.42469e-10
0.00724674
-1.79681e-09
-3.38237e-10
0.00830671
1.2478e-08
-1.38597e-10
0.00920247
2.11852e-08
-9.26908e-11
0.00993727
2.30073e-08
-6.83305e-11
0.0104668
2.044e-08
-5.27353e-11
0.0108067
1.51295e-08
-4.60333e-11
0.0110049
9.66947e-09
-4.42982e-11
0.0111095
5.45853e-09
-4.3266e-11
0.0111606
2.77012e-09
-4.29735e-11
0.0111836
1.28578e-09
-4.29914e-11
0.0111947
4.98194e-10
-4.2974e-11
0.0111962
1.56061e-11
-4.3105e-11
0.011186
-4.26734e-10
-4.35097e-11
0.0111572
-1.12825e-09
-4.45584e-11
0.011084
-2.51701e-09
-4.8439e-11
0.010899
-5.88671e-09
-6.0491e-11
0.0104704
-9.74725e-09
-1.02733e-10
0.00925213
-6.19778e-08
-2.81015e-10
0.00533304
4.04501e-08
-9.67646e-10
2.977e-06
-3.87917e-09
0.00217226
2.08567e-08
1.22777e-10
0.00202585
3.86448e-10
7.92367e-11
0.00243979
-2.67223e-08
8.49935e-13
0.00339447
-6.60248e-08
-1.00585e-10
0.00511973
-8.83907e-08
-1.26709e-10
0.00724685
-6.1426e-08
-1.67612e-10
0.00830677
-4.17424e-09
-8.35413e-11
0.00920248
2.69502e-08
-8.86564e-11
0.00993727
3.8193e-08
-7.97975e-11
0.0104668
3.85592e-08
-6.71303e-11
0.0108067
3.2519e-08
-5.83123e-11
0.0110049
2.17454e-08
-5.22454e-11
0.0111095
1.20947e-08
-4.83161e-11
0.0111606
6.33331e-09
-4.563e-11
0.0111836
3.01847e-09
-4.44404e-11
0.0111947
1.25867e-09
-4.40883e-11
0.0111962
2.11042e-10
-4.39716e-11
0.011186
-8.78808e-10
-4.40312e-11
0.0111572
-2.7134e-09
-4.47346e-11
0.011084
-5.60912e-09
-4.79006e-11
0.010899
-1.4731e-08
-5.88022e-11
0.0104705
-1.68421e-08
-9.70454e-11
0.00925232
-1.53722e-07
-2.61907e-10
0.00533359
6.36694e-07
-9.37997e-10
1.27284e-05
-3.60548e-09
0.00217234
2.57802e-08
-1.32148e-09
0.00202569
4.69317e-09
-1.31967e-09
0.0024394
-6.66676e-08
-1.21386e-09
0.00339403
-1.51715e-07
-8.75431e-10
0.00511975
-2.14566e-07
-5.61493e-10
0.00724709
-1.92012e-07
1.23013e-09
0.0083072
-5.9403e-08
-8.45661e-14
0.00920287
1.0715e-08
-2.19658e-10
0.00993751
3.81239e-08
-1.93151e-10
0.0104669
4.10223e-08
-1.31455e-10
0.0108068
3.18295e-08
-8.39464e-11
0.0110049
2.14037e-08
-5.6328e-11
0.0111095
1.27298e-08
-5.37912e-11
0.0111605
6.62056e-09
-4.74363e-11
0.0111835
3.22549e-09
-4.5068e-11
0.0111947
1.50198e-09
-4.4321e-11
0.0111962
5.83455e-10
-4.38076e-11
0.011186
9.03226e-11
-4.32212e-11
0.0111572
2.83176e-11
-4.17006e-11
0.011084
3.31441e-09
-4.03792e-11
0.0108989
1.76451e-08
-3.2252e-11
0.0104703
1.12021e-07
1.00943e-11
0.0092517
6.37036e-07
4.59978e-10
0.00533242
4.52683e-06
-1.31994e-10
5.10236e-05
-4.62767e-09
0.00217243
-3.04207e-07
3.60389e-12
0.00202637
-5.71814e-07
2.57178e-11
0.00244123
-6.30989e-07
5.94683e-11
0.00339604
-6.26394e-07
1.19278e-10
0.00512111
-4.25587e-07
1.51737e-10
0.00724723
-2.36146e-07
2.52786e-10
0.00830697
-1.13338e-07
-1.53483e-12
0.00920263
-6.70311e-08
-7.25952e-11
0.00993735
-2.87566e-08
-8.05146e-11
0.0104668
5.48346e-10
-7.83963e-11
0.0108067
1.46487e-08
-7.22481e-11
0.0110048
1.47556e-08
-6.47421e-11
0.0111095
9.66649e-09
-5.43549e-11
0.0111605
5.56856e-09
-4.87021e-11
0.0111836
2.82187e-09
-4.59341e-11
0.0111947
1.39256e-09
-4.51394e-11
0.0111962
8.95595e-10
-4.43131e-11
0.011186
1.81392e-09
-4.32587e-11
0.0111572
6.36804e-09
-4.13662e-11
0.0110841
2.86572e-08
-3.91817e-11
0.0108991
1.15492e-07
-2.90657e-11
0.0104709
5.62173e-07
1.6395e-11
0.00925375
3.101e-06
4.79611e-10
0.00534105
1.86469e-05
-1.26042e-10
0.00019512
-4.64138e-09
0.00217286
-1.21886e-06
-1.55841e-09
0.00202666
-1.76589e-06
-1.44976e-09
0.00244246
-1.6602e-06
-1.16582e-09
0.00339711
-1.26818e-06
-5.99323e-10
0.00512198
-5.09157e-07
-2.30858e-10
0.0072478
-4.24029e-08
1.65178e-09
0.00830759
-1.38037e-07
8.83216e-11
0.0092031
-1.44605e-07
-1.73877e-10
0.00993762
-9.48216e-08
-1.71716e-10
0.0104669
-4.19694e-08
-1.33226e-10
0.0108068
-6.99934e-09
-9.54321e-11
0.0110048
3.22054e-09
-6.81486e-11
0.0111095
3.67697e-09
-5.98641e-11
0.0111605
2.84521e-09
-5.05735e-11
0.0111835
1.59757e-09
-4.65783e-11
0.0111947
1.14657e-09
-4.54386e-11
0.0111962
2.4786e-09
-4.44881e-11
0.011186
9.11844e-09
-4.33395e-11
0.0111573
3.2703e-08
-4.1065e-11
0.0110842
1.33465e-07
-3.9644e-11
0.0108997
5.05587e-07
-2.88733e-11
0.010473
2.25781e-06
1.1752e-11
0.00926157
1.17553e-05
4.74507e-10
0.00537438
6.47016e-05
-1.47031e-10
0.000661536
-4.64162e-09
0.00216921
2.78069e-08
1.44618e-09
0.00202309
1.69355e-09
1.3684e-09
0.00243457
-4.95993e-08
1.12459e-09
0.00338984
-1.24789e-07
6.67763e-10
0.00511625
-1.9174e-07
3.74436e-10
0.0072477
-1.84848e-07
-1.42855e-09
0.00830872
-8.18818e-08
-1.39011e-10
0.00920408
-2.39062e-08
7.84955e-11
0.00993825
4.91974e-09
6.15373e-11
0.0104673
1.5245e-08
4.74611e-12
0.0108069
1.53725e-08
-4.28605e-11
0.0110049
1.13039e-08
-6.61259e-11
0.0111095
6.82835e-09
-4.77194e-11
0.0111605
3.81686e-09
-4.63783e-11
0.0111835
2.0098e-09
-4.47922e-11
0.0111947
3.41216e-09
-4.42307e-11
0.0111962
1.10797e-08
-4.33095e-11
0.011186
3.94759e-08
-4.19776e-11
0.0111574
1.36011e-07
-3.96915e-11
0.0110848
5.1527e-07
-3.73181e-11
0.0109021
1.849e-06
-2.73344e-11
0.0104803
7.67961e-06
9.84158e-12
0.009287
3.77255e-05
4.3102e-10
0.00547998
0.000189275
-2.11193e-10
0.00189436
-4.76549e-09
0.00216953
7.68161e-07
1.31669e-09
0.0020237
1.02934e-06
1.28628e-09
0.00243633
9.11328e-07
1.14353e-09
0.00339174
6.11246e-07
7.94572e-10
0.0051176
1.29029e-07
5.1955e-10
0.00724812
-2.43777e-07
-1.26623e-09
0.00830891
-1.76641e-08
-1.05543e-10
0.00920417
5.27679e-08
1.05492e-10
0.00993828
5.29904e-08
7.99989e-11
0.0104673
3.35716e-08
1.11044e-11
0.0108069
1.49081e-08
-4.23354e-11
0.0110049
5.38942e-09
-6.69623e-11
0.0111095
3.06287e-09
-4.74451e-11
0.0111605
1.4056e-09
-4.62055e-11
0.0111835
3.04934e-10
-4.47678e-11
0.0111947
9.8431e-09
-4.44237e-11
0.0111962
4.30609e-08
-4.3906e-11
0.0111862
1.50591e-07
-4.323e-11
0.011158
4.97828e-07
-4.37861e-11
0.011087
1.72016e-06
-4.47889e-11
0.0109095
5.75553e-06
-5.16113e-11
0.0105014
2.19016e-05
-7.97773e-11
0.00935869
9.81193e-05
-2.09039e-10
0.0057728
0.000439763
-7.4121e-10
0.00442994
-3.68818e-09
0.00217312
-7.58791e-07
-3.67673e-10
0.00202763
-1.02755e-06
-1.79575e-10
0.00244523
-9.21844e-07
1.39441e-10
0.00340016
-6.31852e-07
5.69447e-10
0.00512422
-1.63895e-07
7.05481e-10
0.00724824
1.68307e-07
9.15994e-10
0.00830753
-2.78257e-08
1.69331e-10
0.00920295
-8.88148e-08
4.5521e-11
0.00993749
-7.68938e-08
-1.41596e-11
0.0104668
-4.81258e-08
-6.03341e-11
0.0108067
-2.30194e-08
-8.15142e-11
0.0110048
-9.76546e-09
-7.97227e-11
0.0111095
-5.02816e-09
-6.21602e-11
0.0111605
-9.80128e-10
-5.29187e-11
0.0111835
-1.41096e-09
-4.80669e-11
0.0111947
3.39963e-08
-4.66871e-11
0.0111963
1.50212e-07
-4.50145e-11
0.0111867
4.96254e-07
-4.17191e-11
0.0111595
1.56402e-06
-3.58036e-11
0.0110925
4.90471e-06
-2.21361e-11
0.0109269
1.53549e-05
2.48082e-11
0.0105436
5.13435e-05
-1.18001e-10
0.00950117
0.00021134
4.42098e-10
0.0063316
0.000806845
-1.05334e-09
0.00837301
-2.80282e-09
0.00216952
-9.79455e-09
1.23526e-09
0.0020237
-1.03489e-09
1.25587e-09
0.0024363
2.11713e-08
1.20215e-09
0.00339172
5.37183e-08
9.77584e-10
0.0051176
8.03172e-08
7.53691e-10
0.00724816
6.83014e-08
-9.51829e-10
0.00830895
1.93178e-08
-1.0751e-11
0.0092042
-9.5884e-09
1.50787e-10
0.0099383
-1.7576e-08
1.00448e-10
0.0104673
-1.78144e-08
1.65373e-11
0.0108069
-1.44134e-08
-4.47105e-11
0.0110049
-9.91875e-09
-7.06497e-11
0.0111095
-5.56734e-09
-4.98228e-11
0.0111605
-1.03882e-10
-4.74287e-11
0.0111835
-1.43907e-09
-4.54969e-11
0.0111946
9.11392e-08
-4.49025e-11
0.0111966
4.03951e-07
-4.36984e-11
0.0111879
1.28842e-06
-4.10193e-11
0.0111631
3.88142e-06
-3.59227e-11
0.0111023
1.14764e-05
-2.12481e-11
0.0109529
3.38969e-05
1.79303e-11
0.0106097
0.000104118
6.30622e-11
0.00969309
0.000384721
1.89135e-10
0.00695535
0.00131481
-3.94832e-10
0.0135339
-1.12088e-09
0.00216954
1.21527e-09
7.1845e-07
0.00202358
1.23444e-09
1.01716e-06
0.00243627
1.18642e-09
9.67812e-07
0.00339176
9.64537e-10
7.49083e-07
0.00511766
7.49705e-10
2.8857e-07
0.00724832
-9.55654e-10
-4.74452e-08
0.00830899
1.42741e-11
7.12045e-08
0.00920415
1.5647e-10
8.31719e-08
0.00993824
8.96062e-11
5.09174e-08
0.0104672
2.40986e-12
1.7604e-08
0.0108069
-5.66082e-11
-2.45467e-10
0.0110049
-7.72841e-11
-4.97287e-09
0.0111095
-5.47349e-11
-3.8784e-09
0.0111606
-5.00323e-11
4.56294e-09
0.0111835
-4.67068e-11
8.37589e-10
0.0111943
-4.57044e-11
1.84128e-07
0.0111972
-4.47979e-11
8.65438e-07
0.01119
-4.3449e-11
2.65713e-06
0.0111689
-4.1579e-11
7.75588e-06
0.0111169
-3.88474e-11
2.19495e-05
0.0109849
-2.87691e-11
6.29465e-05
0.0106978
-3.12207e-11
0.000182075
0.00985762
-6.01091e-11
0.000613269
0.00778818
-4.99274e-10
0.00202617
-6.81303e-10
0.0189304
0.00217244
-3.36018e-07
-1.01243e-10
0.00202633
-5.90383e-07
-3.74527e-11
0.00244129
-6.05488e-07
7.63895e-11
0.00339614
-5.22244e-07
2.45481e-10
0.00512112
-2.65925e-07
3.31172e-10
0.00724732
-9.14558e-08
4.53313e-10
0.00830699
-5.74911e-08
8.31313e-11
0.0092026
-5.85582e-08
5.42942e-12
0.00993732
-4.38904e-08
-2.49944e-11
0.0104668
-2.45758e-08
-3.50849e-11
0.0108067
-1.09823e-08
-3.14967e-11
0.0110049
-4.04819e-09
-1.73252e-11
0.0111095
-1.23178e-09
-9.49307e-12
0.0111606
-3.48467e-10
-5.37836e-12
0.0111836
-3.22213e-10
-2.83683e-12
0.0111947
-4.82768e-10
-2.22585e-12
0.0111962
-4.70225e-10
-1.72059e-12
0.011186
-2.53783e-10
-1.1088e-12
0.0111572
5.84021e-11
-6.47964e-13
0.011084
5.27863e-10
1.17641e-14
0.0108989
1.37533e-09
7.6105e-13
0.0104703
5.09363e-09
1.70731e-12
0.00925186
2.87715e-08
1.95296e-12
0.00533214
2.04959e-07
-2.01063e-12
2.2774e-06
-1.85104e-11
0.0021725
-7.11752e-07
-1.48755e-10
0.00202621
-1.02391e-06
-9.51566e-11
0.00244113
-9.9186e-07
3.89547e-13
0.00339586
-7.9597e-07
1.30199e-10
0.00512069
-3.30233e-07
1.77606e-10
0.00724722
2.57491e-08
2.41647e-10
0.00830701
-8.00999e-08
4.67198e-11
0.00920264
-9.39429e-08
2.36386e-11
0.00993736
-6.39455e-08
6.97307e-12
0.0104668
-2.99645e-08
-5.65484e-12
0.0108068
-7.15962e-09
-1.03778e-11
0.0110049
8.88459e-10
-8.64725e-12
0.0111095
1.0605e-09
-3.92951e-12
0.0111606
1.16883e-09
-1.97242e-12
0.0111836
6.42127e-10
-1.00218e-12
0.0111947
1.72314e-10
-7.74552e-13
0.0111962
-5.69424e-11
-5.80228e-13
0.011186
-1.708e-11
-3.44018e-13
0.0111572
2.74351e-10
-1.96017e-13
0.011084
1.23811e-09
-3.525e-15
0.0108989
4.89546e-09
1.38862e-13
0.0104704
2.52554e-08
1.52261e-13
0.00925194
1.51924e-07
-4.01601e-13
0.00533254
1.04058e-06
-3.2212e-12
1.13508e-05
-1.56433e-11
0.00216945
1.23901e-07
1.48862e-09
0.00202345
1.17042e-07
1.48854e-09
0.00243571
1.04857e-07
1.37293e-09
0.00339101
7.29706e-08
1.01605e-09
0.00511679
5.37684e-08
6.53392e-10
0.00724804
-1.23865e-07
-1.3399e-09
0.00830886
-5.61631e-09
-1.08e-11
0.0092041
1.0053e-08
2.17868e-10
0.00993825
5.97398e-09
1.67137e-10
0.0104673
1.00974e-09
7.78505e-11
0.0108069
-1.61823e-09
2.02092e-11
0.0110049
-3.21964e-09
-8.93861e-12
0.0111095
-1.08904e-09
1.45521e-12
0.0111606
-7.75928e-10
-7.10638e-13
0.0111836
-4.56305e-10
-6.6e-13
0.0111947
-2.829e-10
-6.91916e-13
0.0111962
-1.01561e-10
-4.26433e-13
0.011186
2.36648e-10
-1.09733e-13
0.0111572
1.17299e-09
-2.36257e-13
0.011084
5.79382e-09
-1.70538e-14
0.010899
2.465e-08
1.49293e-13
0.0104705
1.25631e-07
-3.46563e-14
0.00925239
7.28527e-07
-7.0739e-13
0.00533455
4.68292e-06
-3.44286e-12
5.01677e-05
-1.35272e-11
0.00217244
-1.23945e-07
3.03226e-12
0.00202607
-1.1702e-07
-2.32349e-11
0.00244071
-1.04415e-07
-4.99524e-11
0.00339546
-7.13146e-08
-9.05384e-11
0.00512047
-4.82415e-08
-9.94295e-11
0.00724715
1.27542e-07
-1.48509e-10
0.00830703
5.20153e-09
-2.91827e-11
0.00920269
-1.4116e-08
1.01935e-11
0.00993741
-1.15655e-08
1.26564e-11
0.0104669
-6.33753e-09
6.42571e-12
0.0108068
-2.05761e-09
2.18337e-12
0.0110049
3.81898e-10
9.07367e-13
0.0111096
-5.54975e-10
1.1239e-12
0.0111606
-1.43758e-10
6.76541e-13
0.0111836
-4.77974e-11
5.8388e-13
0.0111947
1.0824e-10
6.05853e-13
0.0111962
3.97995e-10
5.77077e-13
0.011186
1.68384e-09
5.41062e-13
0.0111572
6.4538e-09
4.21979e-13
0.0110841
2.88828e-08
5.6939e-14
0.0108991
1.16681e-07
-6.61765e-13
0.010471
5.62904e-07
-2.17653e-12
0.00925432
3.10349e-06
-3.31995e-12
0.00534299
1.86335e-05
-4.46626e-12
0.000194902
-1.17624e-11
0.00216945
7.11523e-07
1.59708e-09
0.00202345
1.02413e-06
1.56549e-09
0.00243571
9.93917e-07
1.39155e-09
0.003391
8.02469e-07
9.58181e-10
0.00511678
3.3987e-07
5.48182e-10
0.00724804
-1.36887e-08
-1.41714e-09
0.00830886
8.10339e-08
-3.89749e-11
0.00920411
8.57692e-08
1.83119e-10
0.00993825
5.2474e-08
1.41827e-10
0.0104673
1.89012e-08
6.71084e-11
0.0108069
-5.98316e-10
1.75206e-11
0.0110049
-6.05822e-09
-8.91101e-12
0.0111095
-4.02833e-09
1.28519e-12
0.0111606
-2.67636e-09
-6.94079e-13
0.0111836
-1.42031e-09
-5.82872e-13
0.0111947
-3.02422e-11
-6.4617e-13
0.0111962
1.98683e-09
-3.97773e-13
0.011186
8.66288e-09
-8.98875e-14
0.0111573
3.15762e-08
-1.9816e-13
0.0110842
1.31295e-07
1.59397e-14
0.0108998
4.993e-07
1.15346e-13
0.0104732
2.24592e-06
-2.22836e-13
0.00926214
1.16601e-05
-1.13829e-12
0.00537632
6.45307e-05
-4.007e-12
0.00066198
-1.42484e-11
0.00217251
3.28799e-07
-1.52503e-09
0.00202622
5.88769e-07
-1.4033e-09
0.00244112
6.19114e-07
-1.07903e-09
0.00339582
5.59722e-07
-5.29958e-10
0.0051206
3.30278e-07
-1.44105e-10
0.00724719
1.50773e-07
1.77717e-09
0.00830702
7.68201e-08
1.36476e-10
0.00920266
5.16059e-08
-1.38249e-10
0.00993739
2.67699e-08
-1.38173e-10
0.0104668
6.36219e-09
-9.21637e-11
0.0108068
-4.1891e-09
-3.20266e-11
0.0110049
-5.92599e-09
-4.39959e-12
0.0111096
-4.39289e-09
-8.15583e-12
0.0111606
-2.51626e-09
-2.6835e-12
0.0111836
-1.32082e-09
-8.27815e-13
0.0111947
1.73042e-09
-3.56934e-13
0.0111962
1.00537e-08
-1.41442e-13
0.011186
3.84738e-08
1.57475e-13
0.0111574
1.34012e-07
4.9894e-13
0.0110848
5.12146e-07
4.54031e-13
0.010902
1.83908e-06
-1.9983e-13
0.0104805
7.66346e-06
-1.16545e-12
0.00928752
3.74813e-05
-3.0874e-12
0.00548179
0.000188971
-4.92314e-12
0.00189551
-1.55944e-11
0.00217245
-3.3119e-08
3.80989e-11
0.00202634
-9.79873e-09
4.80377e-11
0.00244125
3.81368e-08
6.51875e-11
0.00339603
1.00841e-07
9.67438e-11
0.00512092
1.44773e-07
1.04306e-10
0.00724726
1.30792e-07
1.6925e-10
0.00830698
4.48861e-08
3.65683e-11
0.00920262
2.34093e-09
-1.56664e-11
0.00993735
-1.52467e-08
-2.41268e-11
0.0104668
-1.99318e-08
-2.56917e-11
0.0108068
-1.77142e-08
-1.20714e-11
0.0110049
-1.22708e-08
-1.07324e-11
0.0111095
-7.06858e-09
-6.57075e-12
0.0111606
-3.53453e-09
-3.50906e-12
0.0111836
-2.11267e-09
-1.90616e-12
0.0111947
8.62469e-09
-1.52941e-12
0.0111962
4.2494e-08
-1.20491e-12
0.0111862
1.51095e-07
-7.99559e-13
0.011158
5.00713e-07
-4.59704e-13
0.011087
1.72956e-06
-1.43847e-14
0.0109094
5.78594e-06
4.28606e-13
0.0105013
2.19522e-05
8.25091e-13
0.00935814
9.84052e-05
4.79201e-13
0.0057712
0.000439889
-3.17399e-12
0.00443098
-1.79872e-11
0.00217226
-7.72172e-09
8.17061e-11
0.00202585
-2.321e-09
3.09416e-11
0.00243981
1.30491e-08
-5.47312e-11
0.00339449
3.7307e-08
-1.69689e-10
0.00511968
6.07045e-08
-2.08772e-10
0.00724686
5.66488e-08
-2.71118e-10
0.0083068
1.9866e-08
-6.38753e-11
0.00920252
-6.29329e-09
-2.47092e-11
0.00993731
-1.60237e-08
-5.24247e-12
0.0104668
-1.69078e-08
4.77607e-12
0.0108068
-1.37549e-08
9.47267e-12
0.0110049
-9.28375e-09
8.63889e-12
0.0111096
-5.25259e-09
4.95289e-12
0.0111606
-1.92079e-09
2.68183e-12
0.0111836
-2.0004e-09
1.5157e-12
0.0111947
3.38743e-08
1.23129e-12
0.0111963
1.50275e-07
9.75959e-13
0.0111867
4.96341e-07
6.6608e-13
0.0111595
1.56437e-06
3.93322e-13
0.0110925
4.90529e-06
-9.61554e-14
0.0109269
1.53561e-05
-8.26053e-13
0.0105438
5.13698e-05
-1.78094e-12
0.00950119
0.000211224
-3.27928e-12
0.00633077
0.000806919
-4.53464e-12
0.00837371
-1.45929e-11
0.00217226
-4.42113e-10
3.54299e-12
0.00202585
-1.50239e-10
3.07856e-12
0.00243979
1.43781e-09
-3.31414e-12
0.00339443
4.96773e-09
-2.00897e-11
0.00511956
9.39822e-09
-3.71992e-11
0.00724683
9.64438e-09
-6.862e-11
0.00830679
1.34616e-09
-1.29033e-11
0.00920252
-4.23823e-09
3.2985e-13
0.00993731
-6.01532e-09
1.46882e-12
0.0104668
-5.57081e-09
7.26101e-13
0.0108068
-4.23285e-09
3.89578e-13
0.0110049
-2.86804e-09
-1.38389e-13
0.0111095
-1.53681e-09
-8.16775e-13
0.0111606
2.2626e-09
-7.17897e-13
0.0111835
-1.90108e-10
-3.99166e-13
0.0111946
9.1681e-08
-1.92191e-13
0.0111967
4.03851e-07
-1.3985e-13
0.0111879
1.28723e-06
-6.21688e-14
0.0111631
3.87789e-06
-6.04411e-15
0.0111024
1.14658e-05
-4.35428e-14
0.010953
3.38675e-05
-2.55652e-13
0.0106098
0.000104058
-7.03522e-13
0.00969299
0.000384512
-1.52017e-12
0.00695657
0.00131543
-2.93061e-12
0.0135335
-8.17331e-12
0.00217226
8.38281e-11
3.41246e-10
0.00202586
3.25837e-11
1.39073e-10
0.00243977
-5.79424e-11
-1.28151e-09
0.00339439
-1.8544e-10
-4.47435e-09
0.00511949
-2.38156e-10
-8.48014e-09
0.00724681
-3.54637e-10
-8.73638e-09
0.00830678
-7.31287e-11
-1.42695e-09
0.00920252
-1.80285e-11
3.25859e-09
0.00993732
5.07697e-14
4.66003e-09
0.0104668
1.15448e-11
4.28433e-09
0.0108068
1.47657e-11
3.22069e-09
0.0110049
1.21012e-11
2.01663e-09
0.0111096
6.40034e-12
5.52579e-10
0.0111606
3.22892e-12
8.10834e-09
0.0111836
1.67467e-12
2.73808e-09
0.0111943
1.28428e-12
1.85404e-07
0.0111972
1.01109e-12
8.65931e-07
0.01119
6.45116e-13
2.65676e-06
0.0111689
3.243e-13
7.75386e-06
0.0111169
-1.75177e-13
2.19439e-05
0.0109849
-7.94639e-13
6.29302e-05
0.0106976
-1.69654e-12
0.000182039
0.00985743
-2.67689e-12
0.000613178
0.00778779
-2.85247e-12
0.00202626
-5.45971e-12
0.0189297
0.00217226
4.80213e-10
-3.83982e-14
0.00202585
1.09603e-10
4.04972e-14
0.00243977
-1.79066e-09
5.02803e-13
0.00339438
-5.90723e-09
1.71891e-12
0.00511947
-1.13196e-08
3.34931e-12
0.0072468
-1.17832e-08
6.38184e-12
0.00830679
-1.84074e-09
-4.65855e-13
0.00920253
5.15482e-09
-5.1034e-12
0.00993732
7.50173e-09
-6.12507e-12
0.0104668
7.0353e-09
-5.969e-12
0.0108068
5.43221e-09
-5.58068e-12
0.0110049
3.57492e-09
-3.68757e-12
0.0111096
2.00361e-09
-2.02695e-12
0.0111606
1.01553e-09
-1.0005e-12
0.0111836
5.0097e-10
-4.64062e-13
0.0111947
2.75582e-10
-2.8841e-13
0.0111962
1.57576e-10
-1.66497e-13
0.011186
7.97217e-11
-8.9409e-14
0.0111572
4.31782e-11
-4.32219e-16
0.011084
1.29617e-10
7.28559e-14
0.0108989
7.09246e-10
1.2204e-13
0.0104703
4.32713e-09
2.05719e-13
0.00925186
2.80524e-08
5.66947e-13
0.00533214
2.04876e-07
2.05988e-12
2.27657e-06
1.08907e-11
0.00217226
7.65292e-09
-7.04257e-13
0.00202585
2.28037e-09
-3.62432e-13
0.00243978
-1.25717e-08
2.08032e-12
0.00339442
-3.55672e-08
8.18836e-12
0.00511955
-5.71098e-08
1.58264e-11
0.00724683
-5.29463e-08
2.93664e-11
0.00830679
-1.94288e-08
5.25453e-12
0.00920252
3.98045e-09
-8.31302e-12
0.00993731
1.26532e-08
-1.30232e-11
0.0104668
1.36696e-08
-1.24327e-11
0.0108068
1.12476e-08
-9.72445e-12
0.0110049
7.53794e-09
-6.76232e-12
0.0111096
4.29224e-09
-3.6639e-12
0.0111606
2.24866e-09
-1.82807e-12
0.0111836
1.16918e-09
-8.92627e-13
0.0111947
6.33074e-10
-6.30534e-13
0.0111962
3.60694e-10
-4.51107e-13
0.011186
2.1836e-10
-2.51449e-13
0.0111572
2.16115e-10
-1.50857e-14
0.011084
8.96431e-10
1.85356e-13
0.0108989
4.33179e-09
3.31068e-13
0.0104704
2.45734e-08
5.59594e-13
0.00925194
1.5137e-07
7.98737e-13
0.00533254
1.04059e-06
1.84843e-12
1.13489e-05
7.52056e-12
0.00217226
3.21269e-08
-3.00063e-12
0.00202585
9.6975e-09
-2.18076e-12
0.00243981
-3.54732e-08
3.52488e-12
0.00339449
-9.28295e-08
1.74943e-11
0.00511966
-1.30882e-07
3.23085e-11
0.00724686
-1.17142e-07
5.78626e-11
0.0083068
-4.31287e-08
9.30829e-12
0.00920253
-8.08634e-09
-7.53652e-12
0.00993732
7.01332e-09
-1.1587e-11
0.0104668
1.21333e-08
-1.07348e-11
0.0108068
1.17425e-08
-8.39145e-12
0.0110049
8.31388e-09
-5.56669e-12
0.0111096
4.81247e-09
-2.60629e-12
0.0111606
2.57873e-09
-1.19235e-12
0.0111836
1.39774e-09
-5.80308e-13
0.0111947
8.45183e-10
-4.39555e-13
0.0111962
5.72286e-10
-3.36515e-13
0.011186
5.56974e-10
-2.30823e-13
0.0111572
1.2555e-09
-9.82574e-14
0.011084
5.64424e-09
4.15725e-14
0.010899
2.42605e-08
1.91988e-13
0.0104705
1.25062e-07
3.81113e-13
0.00925239
7.27915e-07
5.76802e-13
0.00533455
4.68279e-06
9.79634e-13
5.01662e-05
1.70152e-12
0.00217245
-3.36504e-07
-1.05188e-10
0.00202634
-5.87011e-07
-3.85053e-11
0.00244121
-5.97661e-07
6.80891e-11
0.00339595
-5.1228e-07
2.13839e-10
0.00512079
-2.57385e-07
2.70487e-10
0.00724721
-8.75296e-08
3.4638e-10
0.00830698
-5.37318e-08
7.00874e-11
0.00920263
-5.35024e-08
2.08061e-11
0.00993737
-3.85004e-08
3.49353e-12
0.0104668
-1.97598e-08
-5.85378e-12
0.0108068
-6.88087e-09
-9.99746e-12
0.0110049
-1.22566e-09
-8.79691e-12
0.0111095
7.69265e-11
-4.74051e-12
0.0111606
3.31707e-10
-2.51482e-12
0.0111836
2.48634e-10
-1.48292e-12
0.0111947
1.65418e-10
-1.27358e-12
0.0111962
3.68007e-10
-1.04867e-12
0.011186
1.64237e-09
-9.06465e-13
0.0111572
6.41146e-09
-5.39305e-13
0.0110841
2.8934e-08
-3.63986e-14
0.0108991
1.16851e-07
7.32867e-13
0.010471
5.63186e-07
1.84288e-12
0.00925432
3.10383e-06
2.75822e-12
0.00534299
1.86335e-05
1.88779e-12
0.000194901
-7.27796e-13
0.00217251
-7.2564e-07
-1.24059e-10
0.00202621
-1.01158e-06
-8.18676e-11
0.00244105
-9.36492e-07
-6.6458e-12
0.00339569
-6.93537e-07
9.25157e-11
0.00512045
-2.38716e-07
1.31259e-10
0.00724715
1.08433e-07
1.65842e-10
0.00830701
-4.23586e-08
4.15692e-11
0.00920267
-7.88923e-08
3.09641e-11
0.0099374
-5.95132e-08
1.72891e-11
0.0104669
-3.09259e-08
4.233e-12
0.0108068
-9.69034e-09
-2.80919e-12
0.0110049
-9.7546e-10
-3.59124e-12
0.0111096
-2.31176e-10
-1.32283e-12
0.0111606
3.62078e-10
-6.78281e-13
0.0111836
3.88961e-10
-4.20831e-13
0.0111947
6.31881e-10
-3.44543e-13
0.0111962
2.20524e-09
-2.70364e-13
0.011186
8.76917e-09
-1.88677e-13
0.0111573
3.17715e-08
-1.69529e-13
0.0110842
1.31565e-07
-3.48982e-14
0.0108998
4.99521e-07
2.11285e-13
0.0104732
2.24603e-06
5.18265e-13
0.00926214
1.166e-05
1.08964e-12
0.00537631
6.45305e-05
1.77809e-12
0.00066198
4.6739e-12
0.00216904
7.25645e-07
1.61078e-09
0.00202274
1.01145e-06
1.54354e-09
0.00243362
9.35664e-07
1.27675e-09
0.0033887
6.9111e-07
7.59433e-10
0.00511509
2.34098e-07
3.27876e-10
0.0072475
-1.13352e-07
-1.6853e-09
0.0083086
4.26101e-08
-8.7967e-11
0.00920397
8.36346e-08
1.87262e-10
0.0099382
6.59796e-08
1.56735e-10
0.0104673
3.70379e-08
8.56494e-11
0.010807
1.40236e-08
2.59898e-11
0.0110049
4.17946e-09
-3.63025e-12
0.0111096
2.12784e-09
5.21229e-12
0.0111606
5.87964e-10
9.53203e-13
0.0111836
-3.64273e-11
-8.75754e-14
0.0111947
2.14429e-09
-3.31481e-13
0.0111962
1.00929e-08
-3.67764e-13
0.011186
3.83848e-08
-4.77868e-13
0.0111574
1.3394e-07
-6.74817e-13
0.0110848
5.12255e-07
-4.76003e-13
0.0109021
1.83952e-06
5.12226e-13
0.0104805
7.66424e-06
1.89799e-12
0.00928752
3.74823e-05
2.91095e-12
0.00548179
0.000188971
2.51824e-12
0.00189551
4.75481e-12
0.00217251
3.36885e-07
-1.4847e-10
0.0020262
5.8697e-07
-8.99882e-11
0.00244104
5.95824e-07
-6.28246e-12
0.00339569
5.06021e-07
1.19086e-10
0.00512046
2.44698e-07
1.60174e-10
0.00724715
7.44008e-08
1.996e-10
0.00830701
5.22754e-08
3.53315e-11
0.00920267
5.94599e-08
2.80035e-11
0.00993739
4.74391e-08
1.39621e-11
0.0104669
2.88018e-08
1.40794e-12
0.0108068
1.37995e-08
-4.97736e-12
0.0110049
5.82129e-09
-4.99172e-12
0.0111096
2.37588e-09
-2.0413e-12
0.0111606
1.08542e-09
-9.99587e-13
0.0111836
4.73533e-11
-5.52731e-13
0.0111947
9.78818e-09
-4.49757e-13
0.0111962
4.3259e-08
-3.47372e-13
0.0111862
1.51522e-07
-2.28082e-13
0.011158
5.00811e-07
-1.50244e-13
0.011087
1.72928e-06
-1.89161e-14
0.0109094
5.78526e-06
2.90093e-13
0.0105013
2.19512e-05
5.48276e-13
0.00935813
9.84039e-05
1.03941e-12
0.0057712
0.000439889
1.10744e-12
0.00443099
4.07942e-12
0.00217245
-2.28103e-08
-9.9069e-11
0.00202633
-7.64078e-09
-3.71965e-11
0.00244123
1.86104e-08
6.89553e-11
0.00339601
4.81189e-08
2.16853e-10
0.0051209
6.0172e-08
2.80497e-10
0.00724725
5.62915e-08
3.77034e-10
0.00830697
2.21475e-08
7.91874e-11
0.00920261
1.0163e-08
1.0208e-11
0.00993734
4.88179e-09
-1.20852e-11
0.0104668
2.10459e-09
-2.05568e-11
0.0108068
2.43485e-10
-2.15834e-11
0.0110049
-3.44013e-10
-1.67121e-11
0.0111095
-1.79671e-10
-8.94766e-12
0.0111606
7.914e-10
-4.62275e-12
0.0111836
-7.13011e-10
-2.45132e-12
0.0111947
3.43106e-08
-1.91308e-12
0.0111963
1.50407e-07
-1.49274e-12
0.0111867
4.96349e-07
-9.7808e-13
0.0111595
1.56436e-06
-5.47343e-13
0.0110926
4.90536e-06
1.20696e-13
0.0109269
1.53563e-05
9.48586e-13
0.0105439
5.13702e-05
1.99954e-12
0.00950119
0.000211225
3.16017e-12
0.00633077
0.000806919
1.41549e-12
0.00837371
9.99575e-13
0.00217225
2.27826e-08
-4.65519e-12
0.00202585
7.63999e-09
-3.65462e-12
0.00243984
-1.84729e-08
5.6815e-12
0.00339457
-4.77992e-08
3.64328e-11
0.0051198
-5.97077e-08
6.18633e-11
0.00724691
-5.5878e-08
1.15461e-10
0.00830681
-2.20131e-08
1.76164e-11
0.00920253
-1.01568e-08
-1.10368e-11
0.00993731
-4.9093e-09
-1.94084e-11
0.0104668
-2.13867e-09
-1.66714e-11
0.0108068
-2.50585e-10
-1.29612e-11
0.0110049
1.81199e-10
-8.66191e-12
0.0111095
1.23315e-10
-4.10166e-12
0.0111606
3.23399e-09
-1.87631e-12
0.0111835
1.24548e-10
-9.30127e-13
0.0111946
9.20005e-08
-6.85308e-13
0.0111967
4.04066e-07
-5.44222e-13
0.0111879
1.28736e-06
-3.3017e-13
0.0111631
3.87794e-06
-1.41109e-13
0.0111024
1.14658e-05
1.37212e-13
0.010953
3.38673e-05
4.03837e-13
0.0106098
0.000104057
7.93791e-13
0.00969299
0.000384512
1.04343e-12
0.00695657
0.00131543
3.09401e-13
0.0135335
-5.26598e-14
0.00217245
-8.87193e-11
-3.36909e-07
0.00202633
-3.27731e-11
-5.86987e-07
0.00244123
7.51154e-11
-5.95775e-07
0.00339601
2.22794e-10
-5.05869e-07
0.0051209
2.84549e-10
-2.4444e-07
0.00724725
3.81455e-10
-7.41737e-08
0.00830698
8.26358e-11
-5.2224e-08
0.00920261
1.01189e-11
-5.94757e-08
0.00993734
-1.46761e-11
-4.74781e-08
0.0104668
-2.25558e-11
-2.8823e-08
0.0108068
-2.1599e-11
-1.38303e-08
0.0110049
-1.67626e-11
-5.922e-09
0.0111095
-9.01038e-12
-2.92204e-09
0.0111606
-4.61279e-12
6.56735e-09
0.0111836
-2.41786e-12
1.95838e-09
0.0111943
-1.82174e-12
1.84921e-07
0.0111972
-1.4591e-12
8.65556e-07
0.01119
-9.62385e-13
2.65654e-06
0.0111689
-4.79543e-13
7.75385e-06
0.0111169
1.62222e-13
2.19441e-05
0.0109849
8.75692e-13
6.29307e-05
0.0106976
1.77641e-12
0.000182039
0.00985743
2.18796e-12
0.000613179
0.00778779
8.20442e-13
0.00202626
-4.62088e-13
0.0189297
0.00217226
-1.1564e-11
7.54078e-11
0.00202585
-7.23595e-12
7.30397e-11
0.00243976
4.75176e-11
6.05228e-11
0.00339437
1.61942e-10
1.84196e-11
0.00511946
1.32958e-10
-2.48699e-11
0.0072468
1.14617e-11
-3.0452e-11
0.00830679
-1.05006e-10
4.21064e-11
0.00920254
-1.30924e-10
2.39711e-11
0.00993734
-1.12084e-10
1.58349e-11
0.0104668
-8.06745e-11
2.20796e-11
0.0108068
-4.87499e-11
3.02201e-11
0.0110049
-2.55575e-11
2.80475e-11
0.0111096
-1.2149e-11
1.05648e-11
0.0111606
-5.3237e-12
5.5897e-12
0.0111836
-2.57359e-12
2.99649e-12
0.0111947
-1.04529e-12
2.32089e-12
0.0111962
2.32314e-13
1.48242e-12
0.011186
5.93192e-12
4.06808e-13
0.0111572
2.87068e-11
-5.30644e-13
0.011084
1.57239e-10
-1.72489e-12
0.0108989
7.70858e-10
-1.6187e-12
0.0104703
4.40941e-09
7.92901e-12
0.00925186
2.81272e-08
7.69054e-11
0.00533215
2.04853e-07
3.50101e-10
2.27682e-06
2.41133e-09
0.00217226
4.86085e-12
7.51563e-11
0.00202585
1.01855e-11
7.0657e-11
0.00243976
2.88222e-11
5.50922e-11
0.00339437
4.74261e-11
9.31485e-12
0.00511946
1.09064e-11
-3.29945e-11
0.0072468
-7.52017e-11
-3.17751e-11
0.00830679
-9.9942e-11
5.0273e-11
0.00920254
-7.97781e-11
4.39781e-11
0.00993734
-5.26503e-11
3.71253e-11
0.0104668
-3.17966e-11
3.68735e-11
0.0108068
-1.68867e-11
3.8988e-11
0.0110049
-7.07724e-12
3.27464e-11
0.0111096
-2.44751e-12
1.32144e-11
0.0111606
-7.05003e-13
6.89397e-12
0.0111836
-3.87299e-13
3.61335e-12
0.0111947
1.58863e-12
2.72736e-12
0.0111962
9.1702e-12
1.78751e-12
0.011186
4.67161e-11
5.89545e-13
0.0111572
1.96933e-10
-5.30661e-13
0.011084
1.01479e-09
-2.08643e-12
0.0108989
4.56578e-09
-3.31229e-12
0.0104704
2.48518e-08
-4.60336e-14
0.00925194
1.51555e-07
3.56057e-11
0.00533254
1.04036e-06
2.39943e-10
1.13487e-05
1.49841e-09
0.00217226
7.29865e-12
1.06111e-11
0.00202585
3.19071e-12
7.33982e-12
0.00243976
-1.40237e-11
-7.15575e-12
0.00339437
-5.3532e-11
-4.12324e-11
0.00511946
-1.04165e-10
-6.9167e-11
0.0072468
-1.24546e-10
-1.12758e-10
0.00830679
-6.18243e-11
8.18387e-11
0.00920254
-2.28566e-11
1.32191e-10
0.00993734
-2.31655e-12
1.26101e-10
0.0104668
7.95787e-12
1.00695e-10
0.0108068
1.09677e-11
7.36559e-11
0.0110049
9.03535e-12
4.80124e-11
0.0111096
5.55747e-12
2.35434e-11
0.0111606
3.25699e-12
1.1356e-11
0.0111836
2.93938e-13
5.51e-12
0.0111947
1.21123e-11
3.88443e-12
0.0111962
6.40599e-11
2.37995e-12
0.011186
3.00492e-10
4.71909e-13
0.0111572
1.2055e-09
-3.33944e-12
0.011084
5.76393e-09
-8.62003e-12
0.010899
2.45588e-08
-3.22737e-11
0.0104705
1.25515e-07
-1.18958e-10
0.00925239
7.28397e-07
-8.30847e-10
0.00533455
4.68278e-06
-7.14222e-10
5.01652e-05
1.68402e-09
0.00217226
1.13684e-11
9.8882e-12
0.00202585
-4.89619e-11
7.29073e-12
0.00243976
-1.05964e-10
-6.25802e-12
0.00339437
-1.67076e-10
-3.73046e-11
0.00511946
-1.70611e-10
-6.27264e-11
0.0072468
-1.07026e-10
-1.09473e-10
0.00830679
-5.4724e-11
8.40338e-11
0.00920254
-3.96213e-11
1.32991e-10
0.00993734
-2.78217e-11
1.25471e-10
0.0104668
-1.07658e-11
9.97926e-11
0.0108068
-1.19078e-12
7.31318e-11
0.0110049
7.8434e-13
4.79382e-11
0.0111096
4.08603e-13
2.34314e-11
0.0111606
2.33004e-12
1.11501e-11
0.0111836
-5.98415e-12
5.35097e-12
0.0111947
7.08032e-11
3.78361e-12
0.0111962
3.77412e-10
2.31361e-12
0.011186