/*--------------------------------*- C++ -*----------------------------------*\
| =========                 |                                                 |
| \\      /  F ield         | OpenFOAM: The Open Source CFD Toolbox           |
|  \\    /   O peration     | Version:  4.1                                   |
|   \\  /    A nd           | Web:      www.OpenFOAM.org                      |
|    \\/     M anipulation  |                                                 |
\*---------------------------------------------------------------------------*/
FoamFile
{
    version     2.0;
    format      ascii;
    class       volScalarField;
    location    "0.06";
    object      T;
}
// * * * * * * * * * * * * * * * * * * * * * * * * * * * * * * * * * * * * * //

dimensions      [0 0 0 1 0 0 0];

internalField   nonuniform List<scalar> 
52500
(
0.342138
0.370462
0.474864
0.513949
0.587253
0.727819
0.88445
0.961217
0.993554
1.0043
1.00609
1.00534
1.00321
1.00161
1.00073
1.00043
1.00051
1.00135
1.00385
1.01096
1.03021
1.09901
1.24638
2.12938
2.34357
0.34213
0.370461
0.47487
0.513945
0.587247
0.727811
0.884449
0.961219
0.993557
1.00431
1.00609
1.00534
1.00321
1.00161
1.00073
1.00043
1.00051
1.00135
1.00385
1.01096
1.03021
1.09901
1.24637
2.12935
2.3435
0.34206
0.370416
0.474911
0.514038
0.587304
0.727814
0.88442
0.961186
0.993535
1.00429
1.00608
1.00534
1.00321
1.00161
1.00073
1.00043
1.00051
1.00135
1.00385
1.01097
1.03021
1.09904
1.24625
2.13049
2.34277
0.342024
0.370404
0.474819
0.513931
0.587267
0.727858
0.884454
0.961214
0.993553
1.0043
1.00609
1.00534
1.00321
1.00161
1.00073
1.00043
1.00051
1.00135
1.00385
1.01096
1.0302
1.09901
1.24608
2.12994
2.34146
0.34174
0.370244
0.474785
0.513975
0.587304
0.727857
0.884413
0.961178
0.993531
1.00429
1.00608
1.00533
1.00321
1.00161
1.00073
1.00043
1.00051
1.00135
1.00385
1.01096
1.03017
1.09885
1.24534
2.12779
2.33665
0.343454
0.371924
0.476515
0.515149
0.587738
0.727535
0.884265
0.961092
0.993485
1.00427
1.00607
1.00533
1.00321
1.00161
1.00073
1.00043
1.00051
1.00135
1.00384
1.01092
1.03004
1.09826
1.24286
2.12079
2.32226
0.343313
0.371843
0.476467
0.515128
0.587749
0.727568
0.884267
0.961089
0.993482
1.00426
1.00607
1.00533
1.0032
1.00161
1.00073
1.00043
1.00051
1.00134
1.0038
1.0108
1.02958
1.09626
1.23547
2.09951
2.28694
0.341616
0.370189
0.474669
0.51386
0.587274
0.727914
0.884443
0.961204
0.993546
1.0043
1.00608
1.00533
1.00321
1.00161
1.00073
1.00042
1.0005
1.00131
1.0037
1.01044
1.02834
1.09152
1.21864
2.0543
2.21678
0.343317
0.371844
0.476471
0.515132
0.587751
0.727567
0.884268
0.961091
0.993484
1.00427
1.00607
1.00533
1.0032
1.00161
1.00073
1.00041
1.00047
1.0012
1.00338
1.00948
1.02545
1.08176
1.18958
1.94713
2.1118
0.343293
0.371839
0.476485
0.515123
0.587733
0.727545
0.884264
0.961095
0.993489
1.00427
1.00607
1.00533
1.00321
1.0016
1.00073
1.00039
1.00041
1.00099
1.00276
1.00773
1.02044
1.06759
1.14401
1.82151
1.87446
0.342012
0.370401
0.474828
0.513929
0.587259
0.727847
0.884458
0.961226
0.993566
1.00432
1.0061
1.00535
1.00322
1.00162
1.00074
1.00044
1.00052
1.00136
1.00386
1.01098
1.03022
1.09903
1.24642
2.12944
2.3437
0.341973
0.370374
0.474807
0.513911
0.587242
0.727825
0.884447
0.961224
0.993567
1.00432
1.0061
1.00535
1.00322
1.00162
1.00074
1.00044
1.00052
1.00136
1.00386
1.01098
1.03022
1.09903
1.24641
2.12942
2.34364
0.343349
0.371866
0.476499
0.515126
0.587724
0.727527
0.884268
0.961107
0.993504
1.00428
1.00608
1.00534
1.00322
1.00162
1.00074
1.00044
1.00052
1.00136
1.00386
1.01098
1.03022
1.09902
1.24637
2.12929
2.34331
0.342024
0.370409
0.474839
0.513932
0.587247
0.727815
0.884444
0.961224
0.993568
1.00432
1.0061
1.00535
1.00322
1.00162
1.00074
1.00044
1.00052
1.00136
1.00386
1.01097
1.03021
1.09898
1.2462
2.12874
2.34201
0.343349
0.371866
0.476499
0.515126
0.587723
0.727527
0.884268
0.961107
0.993504
1.00429
1.00609
1.00534
1.00322
1.00162
1.00074
1.00044
1.00052
1.00136
1.00386
1.01097
1.03018
1.09882
1.24547
2.12658
2.3372
0.341972
0.370373
0.474807
0.513911
0.58724
0.727821
0.884446
0.961225
0.993568
1.00432
1.0061
1.00535
1.00322
1.00162
1.00074
1.00044
1.00052
1.00136
1.00385
1.01093
1.03005
1.09824
1.24298
2.11961
2.3228
0.342012
0.370401
0.474828
0.513928
0.587256
0.72784
0.884457
0.961228
0.993568
1.00432
1.0061
1.00535
1.00322
1.00162
1.00074
1.00044
1.00052
1.00135
1.00381
1.01081
1.02959
1.09628
1.2355
2.09961
2.2871
0.342132
0.370462
0.474873
0.513947
0.587247
0.72781
0.884454
0.96123
0.99357
1.00432
1.0061
1.00535
1.00322
1.00162
1.00074
1.00043
1.00051
1.00132
1.00371
1.01044
1.02836
1.09147
1.21872
2.05333
2.21716
0.342133
0.370462
0.474873
0.513947
0.587245
0.727806
0.884454
0.96123
0.993571
1.00432
1.0061
1.00535
1.00322
1.00162
1.00074
1.00042
1.00048
1.00121
1.00339
1.00948
1.02546
1.08165
1.1897
1.94595
2.1122
0.342133
0.370463
0.474873
0.513946
0.587244
0.727804
0.884453
0.96123
0.993571
1.00432
1.0061
1.00535
1.00322
1.00161
1.00074
1.0004
1.00042
1.001
1.00277
1.00774
1.02045
1.06757
1.14407
1.8211
1.87482
0.342134
0.370463
0.474874
0.513946
0.587244
0.727803
0.884453
0.961231
0.993571
1.00432
1.0061
1.00535
1.00322
1.00162
1.00074
1.00044
1.00052
1.00136
1.00386
1.01098
1.03022
1.09903
1.24642
2.12944
2.3437
0.342133
0.370463
0.474874
0.513947
0.587245
0.727806
0.884454
0.96123
0.993571
1.00432
1.0061
1.00535
1.00322
1.00162
1.00074
1.00044
1.00052
1.00136
1.00386
1.01098
1.03022
1.09903
1.24641
2.12942
2.34364
0.342132
0.370462
0.474872
0.513946
0.587246
0.727809
0.884454
0.96123
0.993571
1.00432
1.0061
1.00535
1.00322
1.00162
1.00074
1.00044
1.00052
1.00136
1.00386
1.01098
1.03022
1.09902
1.24637
2.12929
2.34331
0.342014
0.370402
0.474829
0.513927
0.587254
0.727836
0.884456
0.961228
0.993569
1.00432
1.0061
1.00535
1.00322
1.00162
1.00074
1.00044
1.00052
1.00136
1.00386
1.01097
1.03021
1.09898
1.2462
2.12874
2.34201
0.341976
0.370375
0.474808
0.513911
0.587238
0.727817
0.884446
0.961226
0.993569
1.00432
1.0061
1.00535
1.00322
1.00162
1.00074
1.00044
1.00052
1.00136
1.00386
1.01097
1.03018
1.09882
1.24547
2.12658
2.3372
0.343521
0.371972
0.476559
0.515152
0.587709
0.727486
0.884268
0.961111
0.993507
1.00429
1.00609
1.00534
1.00322
1.00162
1.00074
1.00044
1.00052
1.00136
1.00385
1.01093
1.03005
1.09824
1.24298
2.11961
2.3228
0.341976
0.370375
0.474809
0.513911
0.587238
0.727817
0.884446
0.961226
0.993569
1.00432
1.0061
1.00535
1.00322
1.00162
1.00074
1.00044
1.00052
1.00135
1.00381
1.01081
1.02959
1.09628
1.2355
2.09961
2.2871
0.342014
0.370402
0.474829
0.513928
0.587256
0.72784
0.884457
0.961228
0.993567
1.00432
1.0061
1.00535
1.00322
1.00162
1.00074
1.00043
1.00051
1.00132
1.00371
1.01044
1.02836
1.09147
1.21872
2.05333
2.21716
0.342131
0.370461
0.474871
0.513946
0.587248
0.727814
0.884455
0.961229
0.99357
1.00432
1.0061
1.00535
1.00322
1.00162
1.00074
1.00042
1.00048
1.00121
1.00339
1.00948
1.02546
1.08165
1.1897
1.94595
2.1122
0.342014
0.370402
0.474829
0.513928
0.587256
0.72784
0.884457
0.961228
0.993567
1.00432
1.0061
1.00535
1.00322
1.00161
1.00074
1.0004
1.00042
1.001
1.00277
1.00774
1.02045
1.06757
1.14407
1.8211
1.87482
0.342134
0.370463
0.474873
0.513946
0.587243
0.727803
0.884453
0.961231
0.993572
1.00432
1.0061
1.00535
1.00322
1.00162
1.00074
1.00044
1.00052
1.00136
1.00386
1.01098
1.03022
1.09903
1.24642
2.12944
2.3437
0.342134
0.370463
0.474873
0.513946
0.587243
0.727802
0.884453
0.961231
0.993572
1.00432
1.0061
1.00535
1.00322
1.00162
1.00074
1.00044
1.00052
1.00136
1.00386
1.01098
1.03022
1.09903
1.24641
2.12942
2.34364
0.342134
0.370463
0.474873
0.513946
0.587243
0.727802
0.884453
0.961231
0.993572
1.00432
1.0061
1.00535
1.00322
1.00162
1.00074
1.00044
1.00052
1.00136
1.00386
1.01098
1.03022
1.09902
1.24637
2.12929
2.34331
0.342134
0.370463
0.474873
0.513946
0.587243
0.727802
0.884453
0.961231
0.993572
1.00432
1.0061
1.00535
1.00322
1.00162
1.00074
1.00044
1.00052
1.00136
1.00386
1.01097
1.03021
1.09898
1.2462
2.12874
2.34201
0.342134
0.370463
0.474873
0.513946
0.587243
0.727802
0.884453
0.961231
0.993572
1.00432
1.0061
1.00535
1.00322
1.00162
1.00074
1.00044
1.00052
1.00136
1.00386
1.01097
1.03018
1.09882
1.24547
2.12658
2.3372
0.342133
0.370462
0.474873
0.513946
0.587243
0.727802
0.884453
0.961231
0.993572
1.00432
1.0061
1.00535
1.00322
1.00162
1.00074
1.00044
1.00052
1.00136
1.00385
1.01093
1.03005
1.09824
1.24298
2.11961
2.3228
0.342134
0.370463
0.474873
0.513946
0.587243
0.727802
0.884453
0.961231
0.993572
1.00432
1.0061
1.00535
1.00322
1.00162
1.00074
1.00044
1.00052
1.00135
1.00381
1.01081
1.02959
1.09628
1.2355
2.09961
2.2871
0.342134
0.370463
0.474873
0.513946
0.587243
0.727802
0.884453
0.961231
0.993572
1.00432
1.0061
1.00535
1.00322
1.00162
1.00074
1.00043
1.00051
1.00132
1.00371
1.01044
1.02836
1.09147
1.21872
2.05333
2.21716
0.342134
0.370463
0.474873
0.513946
0.587243
0.727802
0.884453
0.961231
0.993572
1.00432
1.0061
1.00535
1.00322
1.00162
1.00074
1.00042
1.00048
1.00121
1.00339
1.00948
1.02546
1.08165
1.1897
1.94595
2.1122
0.342134
0.370463
0.474873
0.513946
0.587243
0.727802
0.884453
0.961231
0.993572
1.00432
1.0061
1.00535
1.00322
1.00161
1.00074
1.0004
1.00042
1.001
1.00277
1.00774
1.02045
1.06757
1.14407
1.8211
1.87482
0.342064
0.370419
0.474906
0.514031
0.587299
0.72781
0.88442
0.961191
0.993544
1.0043
1.00609
1.00535
1.00322
1.00162
1.00074
1.00044
1.00052
1.00136
1.00386
1.01098
1.03022
1.09903
1.24641
2.12942
2.34367
0.342063
0.37042
0.47491
0.514034
0.5873
0.727809
0.88442
0.961191
0.993543
1.0043
1.00609
1.00535
1.00322
1.00162
1.00074
1.00044
1.00052
1.00136
1.00386
1.01098
1.03022
1.09902
1.24641
2.1294
2.3436
0.342123
0.370459
0.474861
0.513937
0.587246
0.72782
0.88445
0.96122
0.99356
1.00431
1.0061
1.00535
1.00322
1.00162
1.00074
1.00044
1.00052
1.00136
1.00386
1.01098
1.03022
1.09906
1.24628
2.13059
2.34287
0.342122
0.370459
0.474862
0.513937
0.587246
0.727821
0.884451
0.96122
0.99356
1.00431
1.0061
1.00535
1.00322
1.00162
1.00074
1.00044
1.00052
1.00136
1.00386
1.01098
1.03021
1.09902
1.24611
2.13004
2.34157
0.342063
0.37042
0.474911
0.514035
0.587301
0.727811
0.884422
0.961192
0.993543
1.0043
1.00609
1.00535
1.00322
1.00162
1.00074
1.00044
1.00052
1.00136
1.00386
1.01097
1.03018
1.09882
1.24547
2.12649
2.33719
0.342082
0.370426
0.474902
0.514039
0.587312
0.727826
0.884426
0.96119
0.99354
1.0043
1.00609
1.00534
1.00322
1.00162
1.00074
1.00044
1.00052
1.00136
1.00385
1.01093
1.03005
1.09823
1.24298
2.1195
2.32281
0.342075
0.370422
0.474897
0.514037
0.587313
0.72783
0.884424
0.961186
0.993538
1.0043
1.00609
1.00534
1.00322
1.00162
1.00074
1.00044
1.00052
1.00135
1.00381
1.01081
1.02959
1.09628
1.2355
2.09961
2.28709
0.342133
0.370462
0.474854
0.513939
0.587254
0.727832
0.884453
0.961218
0.993559
1.00431
1.0061
1.00535
1.00322
1.00162
1.00074
1.00043
1.00051
1.00132
1.00371
1.01044
1.02836
1.09147
1.21872
2.05333
2.21715
0.342063
0.37042
0.47491
0.514035
0.5873
0.727811
0.884422
0.961192
0.993544
1.0043
1.00609
1.00535
1.00322
1.00162
1.00074
1.00042
1.00048
1.00121
1.00339
1.00948
1.02546
1.08165
1.1897
1.94595
2.1122
0.342068
0.370422
0.474915
0.514038
0.5873
0.727806
0.884422
0.961194
0.993546
1.0043
1.00609
1.00535
1.00322
1.00161
1.00074
1.0004
1.00042
1.001
1.00277
1.00774
1.02045
1.06757
1.14407
1.8211
1.87482
0.342134
0.370463
0.474873
0.513946
0.587243
0.727803
0.884453
0.961231
0.993572
1.00432
1.0061
1.00535
1.00322
1.00162
1.00074
1.00044
1.00052
1.00136
1.00386
1.01098
1.03022
1.09903
1.24642
2.12944
2.3437
0.342134
0.370463
0.474874
0.513947
0.587244
0.727803
0.884454
0.961231
0.993572
1.00432
1.0061
1.00535
1.00322
1.00162
1.00074
1.00044
1.00052
1.00136
1.00386
1.01098
1.03022
1.09903
1.24641
2.12942
2.34364
0.342133
0.370463
0.474874
0.513946
0.587244
0.727803
0.884454
0.961231
0.993572
1.00432
1.0061
1.00535
1.00322
1.00162
1.00074
1.00044
1.00052
1.00136
1.00386
1.01098
1.03022
1.09902
1.24637
2.12929
2.34331
0.342144
0.370466
0.474869
0.51395
0.587251
0.727813
0.884456
0.96123
0.993569
1.00432
1.0061
1.00535
1.00322
1.00162
1.00074
1.00044
1.00052
1.00136
1.00386
1.01097
1.03021
1.09898
1.2462
2.12874
2.34201
0.342133
0.370463
0.474874
0.513946
0.587244
0.727803
0.884454
0.961231
0.993572
1.00432
1.0061
1.00535
1.00322
1.00162
1.00074
1.00044
1.00052
1.00136
1.00386
1.01097
1.03018
1.09882
1.24546
2.12658
2.33719
0.342144
0.370466
0.474869
0.51395
0.587251
0.727813
0.884456
0.96123
0.993569
1.00432
1.0061
1.00535
1.00322
1.00162
1.00074
1.00044
1.00052
1.00136
1.00385
1.01093
1.03005
1.09824
1.24297
2.11961
2.3228
0.342133
0.370463
0.474874
0.513946
0.587244
0.727803
0.884454
0.961231
0.993572
1.00432
1.0061
1.00535
1.00322
1.00162
1.00074
1.00044
1.00052
1.00135
1.00381
1.01081
1.02959
1.09628
1.2355
2.09956
2.28704
0.342134
0.370463
0.474874
0.513947
0.587244
0.727803
0.884454
0.961231
0.993572
1.00432
1.0061
1.00535
1.00322
1.00162
1.00074
1.00043
1.00051
1.00132
1.00371
1.01044
1.02836
1.09147
1.21872
2.05333
2.21715
0.342134
0.370463
0.474874
0.513946
0.587243
0.727803
0.884453
0.961231
0.993572
1.00432
1.0061
1.00535
1.00322
1.00162
1.00074
1.00042
1.00048
1.00121
1.00339
1.00948
1.02546
1.08165
1.1897
1.94595
2.11219
0.342134
0.370463
0.474874
0.513946
0.587243
0.727803
0.884453
0.961231
0.993572
1.00432
1.0061
1.00535
1.00322
1.00161
1.00074
1.0004
1.00042
1.001
1.00277
1.00774
1.02045
1.06757
1.14406
1.8211
1.87481
0.342133
0.370463
0.474873
0.513945
0.587243
0.727803
0.884454
0.961231
0.993572
1.00432
1.0061
1.00535
1.00322
1.00162
1.00074
1.00044
1.00052
1.00136
1.00386
1.01098
1.03022
1.09903
1.24642
2.12944
2.3437
0.342134
0.370463
0.474873
0.513946
0.587243
0.727802
0.884453
0.961231
0.993572
1.00432
1.0061
1.00535
1.00322
1.00162
1.00074
1.00044
1.00052
1.00136
1.00386
1.01098
1.03022
1.09903
1.24641
2.12942
2.34364
0.342134
0.370463
0.474873
0.513946
0.587243
0.727802
0.884453
0.961231
0.993572
1.00432
1.0061
1.00535
1.00322
1.00162
1.00074
1.00044
1.00052
1.00136
1.00386
1.01098
1.03022
1.09902
1.24637
2.12929
2.34331
0.342134
0.370463
0.474873
0.513946
0.587243
0.727802
0.884453
0.961231
0.993572
1.00432
1.0061
1.00535
1.00322
1.00162
1.00074
1.00044
1.00052
1.00136
1.00386
1.01097
1.03021
1.09898
1.2462
2.12874
2.34201
0.342134
0.370463
0.474873
0.513946
0.587243
0.727802
0.884453
0.961231
0.993572
1.00432
1.0061
1.00535
1.00322
1.00162
1.00074
1.00044
1.00052
1.00136
1.00386
1.01097
1.03018
1.09882
1.24547
2.12658
2.3372
0.342133
0.370462
0.474873
0.513946
0.587243
0.727802
0.884453
0.961231
0.993572
1.00432
1.0061
1.00535
1.00322
1.00162
1.00074
1.00044
1.00052
1.00136
1.00385
1.01093
1.03005
1.09824
1.24298
2.11961
2.3228
0.342134
0.370463
0.474873
0.513946
0.587243
0.727802
0.884453
0.961231
0.993572
1.00432
1.0061
1.00535
1.00322
1.00162
1.00074
1.00044
1.00052
1.00135
1.00381
1.01081
1.02959
1.09628
1.2355
2.09961
2.2871
0.342134
0.370463
0.474873
0.513946
0.587243
0.727802
0.884453
0.961231
0.993572
1.00432
1.0061
1.00535
1.00322
1.00162
1.00074
1.00043
1.00051
1.00132
1.00371
1.01044
1.02836
1.09147
1.21872
2.05333
2.21716
0.342134
0.370463
0.474873
0.513946
0.587243
0.727802
0.884453
0.961231
0.993572
1.00432
1.0061
1.00535
1.00322
1.00162
1.00074
1.00042
1.00048
1.00121
1.00339
1.00948
1.02546
1.08165
1.1897
1.94595
2.1122
0.342134
0.370463
0.474873
0.513946
0.587243
0.727802
0.884453
0.961231
0.993572
1.00432
1.0061
1.00535
1.00322
1.00161
1.00074
1.0004
1.00042
1.001
1.00277
1.00774
1.02045
1.06757
1.14407
1.8211
1.87482
0.342134
0.370463
0.474874
0.513946
0.587244
0.727803
0.884453
0.961231
0.993571
1.00432
1.0061
1.00535
1.00322
1.00162
1.00074
1.00044
1.00052
1.00136
1.00386
1.01098
1.03022
1.09903
1.24642
2.12944
2.3437
0.342133
0.370463
0.474874
0.513947
0.587245
0.727806
0.884454
0.96123
0.993571
1.00432
1.0061
1.00535
1.00322
1.00162
1.00074
1.00044
1.00052
1.00136
1.00386
1.01098
1.03022
1.09903
1.24641
2.12942
2.34364
0.342132
0.370462
0.474872
0.513946
0.587246
0.727809
0.884454
0.96123
0.993571
1.00432
1.0061
1.00535
1.00322
1.00162
1.00074
1.00044
1.00052
1.00136
1.00386
1.01098
1.03022
1.09902
1.24637
2.12929
2.34331
0.342014
0.370402
0.474829
0.513927
0.587254
0.727836
0.884456
0.961228
0.993569
1.00432
1.0061
1.00535
1.00322
1.00162
1.00074
1.00044
1.00052
1.00136
1.00386
1.01097
1.03021
1.09898
1.2462
2.12874
2.34201
0.341976
0.370375
0.474808
0.513911
0.587238
0.727817
0.884446
0.961226
0.993569
1.00432
1.0061
1.00535
1.00322
1.00162
1.00074
1.00044
1.00052
1.00136
1.00386
1.01097
1.03018
1.09882
1.24547
2.12658
2.3372
0.343521
0.371972
0.476559
0.515152
0.587709
0.727486
0.884268
0.961111
0.993507
1.00429
1.00609
1.00534
1.00322
1.00162
1.00074
1.00044
1.00052
1.00136
1.00385
1.01093
1.03005
1.09824
1.24298
2.11961
2.3228
0.341976
0.370375
0.474809
0.513911
0.587238
0.727817
0.884446
0.961226
0.993569
1.00432
1.0061
1.00535
1.00322
1.00162
1.00074
1.00044
1.00052
1.00135
1.00381
1.01081
1.02959
1.09628
1.2355
2.09961
2.2871
0.342014
0.370402
0.474829
0.513928
0.587256
0.72784
0.884457
0.961228
0.993567
1.00432
1.0061
1.00535
1.00322
1.00162
1.00074
1.00043
1.00051
1.00132
1.00371
1.01044
1.02836
1.09147
1.21872
2.05333
2.21716
0.342131
0.370461
0.474871
0.513946
0.587248
0.727814
0.884455
0.961229
0.99357
1.00432
1.0061
1.00535
1.00322
1.00162
1.00074
1.00042
1.00048
1.00121
1.00339
1.00948
1.02546
1.08165
1.1897
1.94595
2.1122
0.342014
0.370402
0.474829
0.513928
0.587256
0.72784
0.884457
0.961228
0.993567
1.00432
1.0061
1.00535
1.00322
1.00161
1.00074
1.0004
1.00042
1.001
1.00277
1.00774
1.02045
1.06757
1.14407
1.8211
1.87482
0.342012
0.370401
0.474828
0.513929
0.587259
0.727847
0.884458
0.961226
0.993566
1.00431
1.0061
1.00535
1.00322
1.00162
1.00074
1.00044
1.00052
1.00136
1.00386
1.01098
1.03022
1.09903
1.24642
2.12944
2.3437
0.341973
0.370374
0.474807
0.513911
0.587242
0.727825
0.884447
0.961224
0.993567
1.00432
1.0061
1.00535
1.00322
1.00162
1.00074
1.00044
1.00052
1.00136
1.00386
1.01098
1.03022
1.09903
1.24641
2.12942
2.34364
0.343349
0.371866
0.476499
0.515126
0.587724
0.727527
0.884268
0.961107
0.993504
1.00428
1.00608
1.00534
1.00322
1.00162
1.00074
1.00044
1.00052
1.00136
1.00386
1.01098
1.03022
1.09902
1.24637
2.12929
2.34331
0.342023
0.370408
0.474839
0.513932
0.587247
0.727815
0.884444
0.961224
0.993568
1.00432
1.0061
1.00535
1.00322
1.00162
1.00074
1.00044
1.00052
1.00136
1.00386
1.01097
1.03021
1.09898
1.2462
2.12874
2.34201
0.343349
0.371866
0.476499
0.515126
0.587723
0.727527
0.884268
0.961107
0.993504
1.00429
1.00609
1.00534
1.00322
1.00162
1.00074
1.00044
1.00052
1.00136
1.00386
1.01097
1.03018
1.09882
1.24547
2.12658
2.3372
0.341972
0.370373
0.474807
0.513911
0.58724
0.727822
0.884446
0.961225
0.993568
1.00432
1.0061
1.00535
1.00322
1.00162
1.00074
1.00044
1.00052
1.00136
1.00385
1.01093
1.03005
1.09824
1.24298
2.11961
2.3228
0.342012
0.370401
0.474828
0.513928
0.587256
0.72784
0.884457
0.961228
0.993568
1.00432
1.0061
1.00535
1.00322
1.00162
1.00074
1.00044
1.00052
1.00135
1.00381
1.01081
1.02959
1.09628
1.2355
2.09961
2.2871
0.342132
0.370462
0.474873
0.513947
0.587247
0.72781
0.884454
0.96123
0.99357
1.00432
1.0061
1.00535
1.00322
1.00162
1.00074
1.00043
1.00051
1.00132
1.00371
1.01044
1.02836
1.09147
1.21872
2.05333
2.21716
0.342133
0.370463
0.474874
0.513947
0.587245
0.727806
0.884454
0.96123
0.993571
1.00432
1.0061
1.00535
1.00322
1.00162
1.00074
1.00042
1.00048
1.00121
1.00339
1.00948
1.02546
1.08165
1.1897
1.94595
2.1122
0.342133
0.370463
0.474873
0.513946
0.587244
0.727804
0.884453
0.96123
0.993571
1.00432
1.0061
1.00535
1.00322
1.00161
1.00074
1.0004
1.00042
1.001
1.00277
1.00774
1.02045
1.06757
1.14407
1.8211
1.87482
0.342135
0.370461
0.47486
0.513948
0.587259
0.727834
0.88445
0.961211
0.993548
1.0043
1.00608
1.00534
1.00321
1.00161
1.00073
1.00043
1.00051
1.00135
1.00385
1.01097
1.03021
1.09905
1.2463
2.13063
2.34315
0.341935
0.370354
0.474861
0.514015
0.587312
0.727848
0.884419
0.961179
0.993529
1.00429
1.00608
1.00533
1.00321
1.00161
1.00073
1.00043
1.00051
1.00135
1.00385
1.01096
1.03021
1.099
1.24638
2.12927
2.3435
0.341981
0.370374
0.474792
0.51391
0.587251
0.727841
0.884441
0.961207
0.993548
1.0043
1.00609
1.00534
1.00321
1.00161
1.00073
1.00043
1.00051
1.00135
1.00385
1.01097
1.03021
1.09904
1.24625
2.13047
2.34275
0.343381
0.37188
0.47668
0.515385
0.587853
0.727495
0.884193
0.96102
0.99344
1.00424
1.00606
1.00532
1.00321
1.00161
1.00073
1.00043
1.00051
1.00135
1.00385
1.01096
1.0302
1.09901
1.24608
2.12994
2.34145
0.34187
0.370324
0.474765
0.513897
0.587259
0.727866
0.884442
0.961206
0.993549
1.0043
1.00609
1.00534
1.00321
1.00161
1.00073
1.00043
1.00051
1.00135
1.00385
1.01096
1.03017
1.09885
1.24534
2.12779
2.33665
0.341642
0.370196
0.474734
0.513963
0.587332
0.727918
0.884419
0.961167
0.993516
1.00428
1.00607
1.00533
1.0032
1.00161
1.00073
1.00043
1.00051
1.00135
1.00384
1.01092
1.03004
1.09826
1.24286
2.12079
2.32226
0.343428
0.371915
0.476526
0.515141
0.587724
0.727518
0.884257
0.96109
0.993486
1.00427
1.00607
1.00533
1.00321
1.00161
1.00073
1.00043
1.00051
1.00134
1.0038
1.0108
1.02958
1.09626
1.23547
2.09951
2.28694
0.343272
0.371832
0.476468
0.515115
0.587739
0.72757
0.88426
0.961079
0.993474
1.00426
1.00606
1.00532
1.0032
1.00161
1.00073
1.00042
1.0005
1.00131
1.0037
1.01044
1.02834
1.09152
1.21864
2.0543
2.21679
0.341806
0.370291
0.474734
0.513887
0.587269
0.727889
0.884439
0.961197
0.99354
1.00429
1.00608
1.00533
1.0032
1.00161
1.00073
1.00041
1.00047
1.0012
1.00338
1.00948
1.02545
1.08176
1.18958
1.94714
2.1118
0.343071
0.371706
0.476527
0.515346
0.587914
0.727622
0.884199
0.960998
0.993415
1.00422
1.00604
1.00531
1.0032
1.0016
1.00073
1.00039
1.00041
1.00099
1.00276
1.00773
1.02044
1.06758
1.14402
1.82147
1.87446
0.341822
0.370299
0.474751
0.5139
0.587268
0.727875
0.884445
0.961208
0.993548
1.0043
1.00608
1.00534
1.00321
1.0016
1.00073
1.00032
1.00025
1.00046
1.0013
1.00373
1.01039
1.02964
1.0831
1.24609
1.5693
0.343366
0.371869
0.476484
0.515137
0.587749
0.727563
0.884272
0.961094
0.993485
1.00427
1.00607
1.00533
1.00321
1.00159
1.00073
1.00031
1.00015
1.00017
1.00044
1.00127
1.0036
1.01011
1.02843
1.08106
1.21619
0.341867
0.370323
0.474774
0.513906
0.587265
0.727871
0.884449
0.961212
0.993551
1.0043
1.00608
1.00534
1.00321
1.00159
1.00073
1.00031
1.00012
1.00007
1.0001
1.0003
1.00087
1.00244
1.00663
1.01887
1.04322
0.341705
0.370238
0.47471
0.513876
0.58727
0.727901
0.884449
0.961209
0.993548
1.0043
1.00608
1.00533
1.00321
1.00159
1.00073
1.00031
1.00012
1.00004
1.00003
1.00006
1.00017
1.00048
1.00128
1.00352
1.00777
0.343334
0.371853
0.476477
0.515135
0.587753
0.727572
0.884271
0.96109
0.993483
1.00427
1.00607
1.00533
1.00321
1.0016
1.00073
1.00031
1.00012
1.00004
1.00001
1.00001
1.00002
1.00007
1.0002
1.00053
1.00125
0.343191
0.371778
0.476423
0.515109
0.587753
0.727581
0.884261
0.961085
0.993481
1.00426
1.00607
1.00533
1.00321
1.0016
1.00073
1.00031
1.00012
1.00004
1.00001
0.999997
0.999996
1
1.00002
1.00007
1.00018
0.34309
0.371728
0.476389
0.515098
0.587765
0.727609
0.884263
0.961084
0.99348
1.00426
1.00607
1.00533
1.00321
1.0016
1.00073
1.00031
1.00012
1.00004
1.00001
0.999996
0.999992
0.999992
0.999994
1
1.00001
0.343065
0.371722
0.476402
0.515091
0.58775
0.72759
0.884258
0.961087
0.993483
1.00427
1.00607
1.00533
1.00321
1.0016
1.00073
1.00031
1.00012
1.00004
1.00001
0.999996
0.999992
0.99999
0.99999
0.999991
0.999993
0.34319
0.371777
0.476423
0.515111
0.587756
0.727586
0.884263
0.961085
0.993479
1.00426
1.00607
1.00533
1.00321
1.0016
1.00073
1.00031
1.00012
1.00004
1.00001
0.999996
0.999992
0.99999
0.99999
0.99999
0.99999
0.343172
0.371777
0.476439
0.515107
0.587748
0.727585
0.884266
0.961091
0.993485
1.00427
1.00607
1.00533
1.00321
1.0016
1.00073
1.00031
1.00012
1.00004
1.00001
0.999996
0.999992
0.99999
0.99999
0.99999
0.99999
0.341612
0.370187
0.474667
0.513861
0.587278
0.727922
0.884445
0.961202
0.993543
1.00429
1.00608
1.00533
1.00321
1.00159
1.00073
1.00031
1.00012
1.00004
1.00001
0.999996
0.999992
0.99999
0.99999
0.99999
0.99999
0.343316
0.371844
0.47647
0.515132
0.587754
0.727573
0.884269
0.961089
0.993481
1.00426
1.00607
1.00533
1.00321
1.0016
1.00073
1.00031
1.00012
1.00004
1.00001
0.999996
0.999992
0.99999
0.99999
0.99999
0.99999
0.343293
0.371838
0.476484
0.515126
0.587739
0.727554
0.884264
0.961093
0.993486
1.00427
1.00607
1.00533
1.00321
1.0016
1.00073
1.00031
1.00012
1.00004
1.00001
0.999996
0.999992
0.99999
0.99999
0.99999
0.99999
0.341612
0.370187
0.474667
0.513861
0.587278
0.727921
0.884445
0.961203
0.993544
1.0043
1.00608
1.00533
1.00321
1.0016
1.00073
1.00031
1.00012
1.00004
1.00001
0.999996
0.999992
0.99999
0.99999
0.99999
0.99999
0.343197
0.371783
0.476425
0.515112
0.587762
0.7276
0.88427
0.961088
0.993481
1.00426
1.00607
1.00533
1.00321
1.0016
1.00073
1.00031
1.00012
1.00004
1.00001
0.999996
0.999992
0.99999
0.99999
0.99999
0.99999
0.34317
0.371772
0.476436
0.515103
0.587736
0.727559
0.884255
0.961089
0.993486
1.00427
1.00607
1.00533
1.00321
1.0016
1.00073
1.00031
1.00012
1.00004
1.00001
0.999996
0.999992
0.99999
0.99999
0.99999
0.99999
0.343171
0.371773
0.476437
0.515103
0.587736
0.727559
0.884255
0.961089
0.993486
1.00427
1.00607
1.00533
1.00321
1.0016
1.00073
1.00031
1.00012
1.00004
1.00001
0.999996
0.999992
0.99999
0.99999
0.99999
0.99999
0.343173
0.371776
0.476437
0.515106
0.587747
0.727582
0.884264
0.96109
0.993485
1.00427
1.00607
1.00533
1.00321
1.0016
1.00073
1.00031
1.00012
1.00004
1.00001
0.999996
0.999992
0.99999
0.99999
0.99999
0.99999
0.34161
0.370185
0.474665
0.513861
0.58728
0.727925
0.884445
0.961202
0.993543
1.00429
1.00608
1.00533
1.00321
1.0016
1.00073
1.00031
1.00012
1.00004
1.00001
0.999996
0.999992
0.99999
0.99999
0.99999
0.99999
0.34317
0.371776
0.476437
0.515104
0.587748
0.727587
0.884266
0.96109
0.993484
1.00427
1.00607
1.00533
1.00321
1.0016
1.00073
1.00031
1.00012
1.00004
1.00001
0.999996
0.999992
0.99999
0.99999
0.99999
0.99999
0.343191
0.371777
0.476423
0.51511
0.587754
0.727583
0.884262
0.961085
0.993481
1.00426
1.00607
1.00533
1.00321
1.0016
1.00073
1.00031
1.00012
1.00004
1.00001
0.999996
0.999992
0.99999
0.99999
0.99999
0.99999
0.343068
0.371724
0.476402
0.515091
0.587748
0.727587
0.884256
0.961086
0.993483
1.00427
1.00607
1.00533
1.00321
1.0016
1.00073
1.00031
1.00012
1.00004
1.00001
0.999996
0.999992
0.99999
0.99999
0.99999
0.99999
0.343191
0.371777
0.476423
0.51511
0.587754
0.727583
0.884262
0.961085
0.993481
1.00426
1.00607
1.00533
1.00321
1.0016
1.00073
1.00031
1.00012
1.00004
1.00001
0.999996
0.999992
0.99999
0.99999
0.99999
0.99999
0.343172
0.371777
0.476438
0.515107
0.587749
0.727587
0.884266
0.96109
0.993484
1.00427
1.00607
1.00533
1.00321
1.0016
1.00073
1.00031
1.00012
1.00004
1.00001
0.999996
0.999992
0.99999
0.99999
0.99999
0.99999
0.341599
0.370183
0.474671
0.513858
0.587273
0.727918
0.884444
0.961204
0.993545
1.0043
1.00608
1.00533
1.00321
1.00159
1.00073
1.00031
1.00012
1.00004
1.00001
0.999996
0.999992
0.99999
0.99999
0.99999
0.99999
0.343196
0.371783
0.476426
0.515115
0.587765
0.727607
0.884271
0.961086
0.993479
1.00426
1.00606
1.00532
1.00321
1.0016
1.00073
1.00031
1.00012
1.00004
1.00001
0.999996
0.999992
0.99999
0.99999
0.99999
0.99999
0.343165
0.371772
0.476436
0.515101
0.587737
0.727564
0.884258
0.961089
0.993485
1.00427
1.00607
1.00533
1.00321
1.0016
1.00073
1.00031
1.00012
1.00004
1.00001
0.999996
0.999992
0.99999
0.99999
0.99999
0.99999
0.343091
0.37173
0.47639
0.515098
0.587765
0.727608
0.884263
0.961083
0.993478
1.00426
1.00606
1.00532
1.00321
1.0016
1.00073
1.00031
1.00012
1.00004
1.00001
0.999996
0.999992
0.99999
0.99999
0.99999
0.99999
0.343191
0.371777
0.476422
0.515109
0.587754
0.727582
0.884261
0.961085
0.993481
1.00426
1.00607
1.00533
1.00321
1.0016
1.00073
1.00031
1.00012
1.00004
1.00001
0.999996
0.999992
0.99999
0.99999
0.99999
0.99999
0.343173
0.371777
0.476438
0.515107
0.587747
0.727584
0.884266
0.961091
0.993485
1.00427
1.00607
1.00533
1.00321
1.0016
1.00073
1.00031
1.00012
1.00004
1.00001
0.999996
0.999992
0.99999
0.99999
0.99999
0.99999
0.341602
0.370184
0.474672
0.513857
0.587269
0.72791
0.884442
0.961204
0.993547
1.0043
1.00608
1.00533
1.00321
1.0016
1.00073
1.00031
1.00012
1.00004
1.00001
0.999996
0.999992
0.99999
0.99999
0.99999
0.99999
0.343294
0.371837
0.476482
0.515124
0.587736
0.72755
0.884263
0.961093
0.993487
1.00427
1.00607
1.00533
1.00321
1.0016
1.00073
1.00031
1.00012
1.00004
1.00001
0.999996
0.999992
0.99999
0.99999
0.99999
0.99999
0.343292
0.371838
0.476482
0.515122
0.587734
0.727547
0.884263
0.961094
0.993488
1.00427
1.00607
1.00533
1.00321
1.0016
1.00073
1.00031
1.00012
1.00004
1.00001
0.999996
0.999992
0.99999
0.99999
0.99999
0.99999
0.341605
0.370185
0.474674
0.513858
0.587267
0.727905
0.884441
0.961205
0.993547
1.0043
1.00608
1.00533
1.00321
1.0016
1.00073
1.00031
1.00012
1.00004
1.00001
0.999996
0.999992
0.99999
0.99999
0.99999
0.99999
0.343294
0.371838
0.476482
0.515123
0.587734
0.727545
0.884262
0.961094
0.993489
1.00427
1.00607
1.00533
1.00321
1.0016
1.00073
1.00031
1.00012
1.00004
1.00001
0.999996
0.999992
0.99999
0.99999
0.99999
0.99999
0.343316
0.371843
0.47647
0.515131
0.587752
0.727569
0.884268
0.961089
0.993482
1.00426
1.00607
1.00533
1.00321
1.0016
1.00073
1.00031
1.00012
1.00004
1.00001
0.999996
0.999992
0.99999
0.99999
0.99999
0.99999
0.341811
0.370293
0.474741
0.513893
0.58727
0.727886
0.884443
0.961204
0.993545
1.0043
1.00608
1.00533
1.00321
1.0016
1.00073
1.00031
1.00012
1.00004
1.00001
0.999996
0.999992
0.99999
0.99999
0.99999
0.99999
0.343172
0.371775
0.476434
0.515105
0.587746
0.727582
0.884266
0.961091
0.993485
1.00427
1.00607
1.00533
1.00321
1.0016
1.00073
1.00031
1.00012
1.00004
1.00001
0.999996
0.999992
0.99999
0.99999
0.99999
0.99999
0.341745
0.370253
0.474799
0.51399
0.587318
0.727867
0.884412
0.961176
0.993529
1.00429
1.00608
1.00533
1.00321
1.0016
1.00073
1.00031
1.00012
1.00004
1.00001
0.999996
0.999992
0.99999
0.99999
0.99999
0.99999
0.343312
0.371842
0.476463
0.515126
0.587751
0.727573
0.884265
0.961085
0.99348
1.00426
1.00607
1.00533
1.00321
1.0016
1.00073
1.00031
1.00012
1.00004
1.00001
0.999996
0.999992
0.99999
0.99999
0.99999
0.99999
0.342133
0.370463
0.474874
0.513947
0.587245
0.727806
0.884454
0.96123
0.993571
1.00432
1.0061
1.00535
1.00322
1.00161
1.00075
1.00033
1.00026
1.00047
1.00131
1.00374