/*--------------------------------*- C++ -*----------------------------------*\
| =========                 |                                                 |
| \\      /  F ield         | OpenFOAM: The Open Source CFD Toolbox           |
|  \\    /   O peration     | Version:  4.1                                   |
|   \\  /    A nd           | Web:      www.OpenFOAM.org                      |
|    \\/     M anipulation  |                                                 |
\*---------------------------------------------------------------------------*/
FoamFile
{
    version     2.0;
    format      ascii;
    class       volVectorField;
    location    "0.06";
    object      U;
}
// * * * * * * * * * * * * * * * * * * * * * * * * * * * * * * * * * * * * * //

dimensions      [0 1 -1 0 0 0 0];

internalField   nonuniform List<vector> 
52500
(
(1.86941 1.13161e-06 -0.00217595)
(1.87736 1.67554e-06 -0.00236102)
(1.76331 2.66287e-06 -0.00294116)
(1.61565 4.21298e-06 -0.00316162)
(1.55132 4.03491e-06 -0.00358815)
(1.604 2.08928e-06 -0.00448231)
(1.70845 2.6594e-07 -0.00547781)
(1.80916 -5.32393e-07 -0.00592836)
(1.88372 -6.5639e-07 -0.00610685)
(1.93351 -5.2614e-07 -0.00616062)
(1.96433 -4.11901e-07 -0.00616509)
(1.98215 -3.09619e-07 -0.00615735)
(1.99167 -1.98393e-07 -0.00614295)
(1.99634 -1.15691e-07 -0.00613261)
(1.99844 -6.36749e-08 -0.00612706)
(1.99926 -3.60316e-08 -0.00612505)
(1.99936 -2.53683e-08 -0.00612626)
(1.99873 -3.1097e-08 -0.00613351)
(1.99655 -4.53049e-08 -0.0061542)
(1.99007 -8.93704e-08 -0.00621186)
(1.97087 -1.04066e-07 -0.00636739)
(1.90742 -5.17633e-08 -0.00687884)
(1.71857 7.57107e-07 -0.0080767)
(0.359996 7.87486e-06 -0.0144384)
(0.78643 3.5061e-05 -0.0167413)
(1.86942 6.17514e-06 -0.00217581)
(1.87737 -4.23455e-06 -0.0023609)
(1.76332 -2.2481e-05 -0.00294101)
(1.61566 -2.79605e-05 -0.00316139)
(1.55133 -1.69134e-05 -0.00358791)
(1.604 -2.91061e-06 -0.00448208)
(1.70845 5.27019e-06 -0.00547775)
(1.80916 7.9155e-06 -0.00592836)
(1.88372 7.87094e-06 -0.00610688)
(1.93351 6.71717e-06 -0.00616064)
(1.96433 5.08708e-06 -0.00616511)
(1.98215 3.28489e-06 -0.00615736)
(1.99168 1.8239e-06 -0.00614295)
(1.99634 9.39127e-07 -0.00613261)
(1.99844 4.44578e-07 -0.00612706)
(1.99926 1.82445e-07 -0.00612505)
(1.99936 2.42173e-08 -0.00612626)
(1.99873 -1.1562e-07 -0.00613351)
(1.99655 -3.47435e-07 -0.0061542)
(1.99007 -7.56724e-07 -0.00621186)
(1.97087 -1.94764e-06 -0.00636739)
(1.90742 -3.29132e-06 -0.00687883)
(1.71858 -1.97318e-05 -0.00807662)
(0.360065 5.53874e-06 -0.014438)
(0.786455 0.000195641 -0.0167403)
(1.86952 1.02541e-05 -0.00217946)
(1.87743 3.94636e-07 -0.00236481)
(1.76334 -2.48641e-05 -0.00294506)
(1.61566 -4.85017e-05 -0.00316378)
(1.55134 -5.04784e-05 -0.00358895)
(1.60403 -2.90066e-05 -0.00448056)
(1.70847 -6.63168e-06 -0.00547749)
(1.80917 3.3477e-06 -0.00592828)
(1.88372 6.49227e-06 -0.00610684)
(1.93351 6.47753e-06 -0.00616062)
(1.96433 5.06793e-06 -0.00616509)
(1.98214 3.32964e-06 -0.00615734)
(1.99167 1.89599e-06 -0.00614296)
(1.99634 9.84355e-07 -0.00613262)
(1.99844 4.73718e-07 -0.00612706)
(1.99926 2.07565e-07 -0.00612506)
(1.99936 4.72946e-08 -0.00612627)
(1.99873 -8.80001e-08 -0.00613351)
(1.99655 -2.88667e-07 -0.0061542)
(1.99007 -4.71196e-07 -0.00621186)
(1.97087 -7.76634e-07 -0.00636736)
(1.9074 2.75286e-06 -0.00687895)
(1.7186 9.44271e-06 -0.00807553)
(0.359822 0.000181142 -0.0144445)
(0.786667 0.000749442 -0.0167334)
(1.86958 3.21784e-05 -0.00217549)
(1.87745 1.41252e-05 -0.00236066)
(1.76336 -3.32057e-05 -0.00294036)
(1.61571 -7.17222e-05 -0.00316071)
(1.55138 -7.32355e-05 -0.00358753)
(1.60405 -4.34718e-05 -0.0044819)
(1.70848 -1.53669e-05 -0.00547769)
(1.80917 -2.18508e-06 -0.00592832)
(1.88372 3.34438e-06 -0.00610686)
(1.93351 4.94804e-06 -0.00616063)
(1.96433 4.40634e-06 -0.0061651)
(1.98214 3.07382e-06 -0.00615736)
(1.99167 1.81212e-06 -0.00614295)
(1.99634 9.59482e-07 -0.00613262)
(1.99844 4.70846e-07 -0.00612706)
(1.99926 2.31627e-07 -0.00612506)
(1.99936 1.26846e-07 -0.00612627)
(1.99873 1.39625e-07 -0.00613351)
(1.99655 4.01611e-07 -0.0061542)
(1.99007 1.89222e-06 -0.00621185)
(1.97087 7.75097e-06 -0.00636729)
(1.90743 3.71973e-05 -0.00687862)
(1.71874 0.000171945 -0.00807394)
(0.361115 0.00097171 -0.0144373)
(0.786948 0.00300663 -0.0167169)
(1.86997 -0.00051129 -0.00217809)
(1.87769 -0.000863678 -0.00236393)
(1.7635 -0.00090232 -0.00294366)
(1.61581 -0.000571179 -0.00316253)
(1.55146 -0.000182778 -0.00358832)
(1.6041 -2.62087e-05 -0.00448036)
(1.70851 -2.42211e-05 -0.00547734)
(1.80919 -2.1234e-05 -0.00592819)
(1.88372 -1.31419e-05 -0.0061068)
(1.93351 -5.38215e-06 -0.0061606)
(1.96433 -6.30212e-07 -0.00616509)
(1.98214 9.10201e-07 -0.00615734)
(1.99167 8.48087e-07 -0.00614296)
(1.99633 5.79607e-07 -0.00613262)
(1.99844 3.02778e-07 -0.00612706)
(1.99926 1.43039e-07 -0.00612506)
(1.99936 1.52674e-07 -0.00612627)
(1.99873 5.48415e-07 -0.00613351)
(1.99655 2.04856e-06 -0.00615418)
(1.99007 8.91727e-06 -0.00621177)
(1.9709 3.42312e-05 -0.00636697)
(1.90756 0.000152795 -0.00687717)
(1.71936 0.000673025 -0.00806749)
(0.366326 0.00354813 -0.0144103)
(0.78807 0.010698 -0.0166595)
(1.86762 -0.000527001 -0.00218058)
(1.87563 -0.000872725 -0.00236632)
(1.76224 -0.000897385 -0.00294784)
(1.61533 -0.000564108 -0.00316685)
(1.5514 -0.000186855 -0.00359012)
(1.60411 -3.48075e-05 -0.00448169)
(1.7085 -2.8825e-05 -0.00547663)
(1.8092 -2.2715e-05 -0.00592744)
(1.88374 -1.34543e-05 -0.00610633)
(1.93353 -5.59421e-06 -0.00616036)
(1.96434 -9.9949e-07 -0.00616498)
(1.98215 5.75715e-07 -0.00615731)
(1.99167 6.54205e-07 -0.00614295)
(1.99633 4.82235e-07 -0.00613262)
(1.99844 2.79566e-07 -0.00612706)
(1.99926 3.19949e-07 -0.00612506)
(1.99936 8.62269e-07 -0.00612626)
(1.99873 3.04806e-06 -0.00613348)
(1.99655 1.05364e-05 -0.00615411)
(1.99009 4.0883e-05 -0.00621145)
(1.971 0.000146141 -0.00636577)
(1.90803 0.000592854 -0.00687201)
(1.72151 0.00243926 -0.00804593)
(0.383607 0.0116157 -0.0143264)
(0.791897 0.0341382 -0.0164954)
(1.86783 0.000546943 -0.00218011)
(1.87575 0.000871517 -0.0023661)
(1.76231 0.000847137 -0.00294741)
(1.6154 0.000468338 -0.0031664)
(1.55146 8.1689e-05 -0.00358996)
(1.60415 -3.46635e-05 -0.00448171)
(1.70853 -6.35152e-08 -0.00547661)
(1.80921 1.47152e-05 -0.0059274)
(1.88375 1.46063e-05 -0.0061063)
(1.93353 9.70817e-06 -0.00616034)
(1.96434 5.07198e-06 -0.00616497)
(1.98214 2.4039e-06 -0.0061573)
(1.99167 1.18632e-06 -0.00614294)
(1.99633 5.48251e-07 -0.00613262)
(1.99844 2.29517e-07 -0.00612706)
(1.99926 8.15139e-07 -0.00612505)
(1.99936 3.09558e-06 -0.00612624)
(1.99874 1.09705e-05 -0.00613339)
(1.99658 3.71245e-05 -0.00615378)
(1.99019 0.000135425 -0.00621023)
(1.97137 0.000460571 -0.00636158)
(1.90967 0.00177196 -0.00685509)
(1.72824 0.00684452 -0.00798355)
(0.434749 0.0301652 -0.0140945)
(0.803994 0.0879008 -0.0161146)
(1.87016 -2.33936e-07 -0.00217397)
(1.87778 6.22897e-07 -0.00235978)
(1.76357 2.57056e-06 -0.00293871)
(1.61591 4.29471e-06 -0.00315904)
(1.55153 3.77129e-06 -0.0035866)
(1.60414 8.06347e-07 -0.00448152)
(1.70854 -2.08059e-06 -0.00547747)
(1.8092 -3.21119e-06 -0.00592815)
(1.88373 -3.09702e-06 -0.00610676)
(1.93351 -2.45944e-06 -0.00616058)
(1.96433 -1.70841e-06 -0.00616509)
(1.98214 -1.06322e-06 -0.00615735)
(1.99167 -5.86353e-07 -0.00614296)
(1.99633 -2.31711e-07 -0.00613262)
(1.99844 -2.16467e-07 -0.00612706)
(1.99926 2.89017e-06 -0.00612503)
(1.99937 1.29083e-05 -0.00612616)
(1.99876 4.34439e-05 -0.00613309)
(1.99666 0.000139114 -0.00615283)
(1.99045 0.000448185 -0.00620686)
(1.97239 0.00140591 -0.0063505)
(1.91384 0.00469933 -0.00681522)
(1.74418 0.0165998 -0.00784403)
(0.546646 0.0641237 -0.0136308)
(0.834986 0.197871 -0.0154066)
(1.86782 -0.000533193 -0.00218037)
(1.87574 -0.000868123 -0.0023662)
(1.76231 -0.000867757 -0.00294727)
(1.6154 -0.000504609 -0.00316599)
(1.55146 -0.000118718 -0.00358959)
(1.60415 9.64329e-06 -0.00448137)
(1.70853 -1.22543e-05 -0.00547654)
(1.80921 -1.92895e-05 -0.00592737)
(1.88375 -1.51104e-05 -0.00610629)
(1.93353 -8.58326e-06 -0.00616034)
(1.96434 -3.65656e-06 -0.00616497)
(1.98214 -1.30232e-06 -0.0061573)
(1.99167 -4.6134e-07 -0.00614295)
(1.99633 1.31178e-07 -0.00613261)
(1.99845 -1.64987e-07 -0.00612707)
(1.99927 8.11496e-06 -0.00612496)
(1.99939 3.5381e-05 -0.00612588)
(1.99885 0.000114262 -0.00613215)
(1.99692 0.000350341 -0.00615001)
(1.99125 0.00105879 -0.0061985)
(1.97496 0.00313994 -0.00632589)
(1.92324 0.00960475 -0.00673581)
(1.77489 0.0313365 -0.00760635)
(0.76157 0.110448 -0.0127204)
(0.910807 0.342188 -0.0143549)
(1.86785 0.000514941 -0.00218028)
(1.87576 0.000862976 -0.00236624)
(1.76232 0.000897852 -0.00294737)
(1.61541 0.00056705 -0.00316595)
(1.55146 0.000182908 -0.00358948)
(1.60415 2.65117e-05 -0.00448125)
(1.70853 2.11778e-05 -0.00547649)
(1.80921 1.67412e-05 -0.0059274)
(1.88375 9.04867e-06 -0.00610633)
(1.93353 2.38125e-06 -0.00616037)
(1.96434 -1.27454e-06 -0.006165)
(1.98215 -1.98992e-06 -0.00615732)
(1.99167 -1.42509e-06 -0.00614295)
(1.99633 -6.09739e-08 -0.0061326)
(1.99845 -1.51929e-07 -0.00612708)
(1.99929 2.2696e-05 -0.00612481)
(1.99946 0.000102737 -0.00612533)
(1.99902 0.000317821 -0.00613027)
(1.99745 0.00093338 -0.00614467)
(1.99279 0.00265841 -0.00618366)
(1.97958 0.00755335 -0.00628475)
(1.93853 0.0214882 -0.00661935)
(1.823 0.0653434 -0.00725306)
(1.03261 0.204725 -0.0115945)
(1.04322 0.698383 -0.0124045)
(1.86959 4.01716e-06 9.62479e-09)
(1.87746 4.81593e-06 1.7924e-08)
(1.76337 7.42772e-06 3.12488e-08)
(1.61571 1.29752e-05 5.73199e-08)
(1.55137 1.65074e-05 5.71171e-08)
(1.60403 1.13585e-05 5.95389e-08)
(1.70847 2.37264e-06 -5.12058e-08)
(1.80917 -2.63753e-06 -7.50158e-08)
(1.88372 -4.08614e-06 -7.23094e-08)
(1.93351 -3.78748e-06 -6.34968e-08)
(1.96433 -2.92912e-06 -5.60062e-08)
(1.98215 -1.96242e-06 -4.87345e-08)
(1.99167 -1.15686e-06 -4.03381e-08)
(1.99634 -6.33331e-07 -3.60878e-08)
(1.99844 -3.47078e-07 -3.41426e-08)
(1.99926 -2.03948e-07 -3.36467e-08)
(1.99936 -1.20092e-07 -3.33376e-08)
(1.99873 -5.70283e-08 -3.31355e-08)
(1.99655 -1.68303e-09 -3.34523e-08)
(1.99007 5.0851e-08 -3.55006e-08)
(1.97087 1.13789e-07 -4.26519e-08)
(1.90741 2.92228e-07 -6.8254e-08)
(1.71855 1.16028e-06 -1.53946e-07)
(0.359876 7.49094e-06 -4.85481e-07)
(0.786374 2.4362e-05 -5.80873e-07)
(1.86965 -0.000500754 -1.01248e-08)
(1.8775 -0.000856271 -1.0696e-08)
(1.7634 -0.000907462 -3.90304e-09)
(1.61573 -0.000584779 1.97114e-08)
(1.55138 -0.000196337 3.22436e-08)
(1.60403 -3.31716e-05 4.34736e-08)
(1.70846 -2.59742e-05 -3.39934e-08)
(1.80917 -2.09989e-05 -5.58933e-08)
(1.88372 -1.23668e-05 -5.93991e-08)
(1.93351 -4.76449e-06 -5.71588e-08)
(1.96433 -3.82836e-07 -5.27249e-08)
(1.98215 9.42642e-07 -4.5983e-08)
(1.99168 8.31057e-07 -3.91486e-08)
(1.99634 5.51564e-07 -3.55284e-08)
(1.99844 2.78894e-07 -3.38553e-08)
(1.99926 9.57963e-08 -3.33958e-08)
(1.99936 9.54405e-09 -3.3134e-08)
(1.99873 -1.23648e-09 -3.29548e-08)
(1.99655 3.34043e-08 -3.32482e-08)
(1.99007 1.22965e-07 -3.5117e-08)
(1.97087 3.69535e-07 -4.18903e-08)
(1.90741 1.57796e-06 -6.54618e-08)
(1.71856 7.58655e-06 -1.44705e-07)
(0.359932 4.80718e-05 -4.71254e-07)
(0.786386 0.000154485 -5.39692e-07)
(1.86777 -1.21939e-05 -1.82567e-07)
(1.87572 -1.74472e-05 -1.8147e-07)
(1.76229 -1.48121e-05 -1.48057e-07)
(1.61538 -6.02424e-06 -1.52734e-08)
(1.55142 1.34422e-06 5.96502e-08)
(1.60412 2.54708e-06 5.03916e-08)
(1.7085 -1.24325e-07 -1.53086e-08)
(1.8092 -1.69039e-06 -2.48535e-08)
(1.88374 -2.03275e-06 -3.35009e-08)
(1.93353 -1.69481e-06 -4.20942e-08)
(1.96434 -1.18002e-06 -4.88376e-08)
(1.98215 -7.30802e-07 -4.92856e-08)
(1.99167 -4.06564e-07 -3.92162e-08)
(1.99634 -2.09232e-07 -3.59348e-08)
(1.99844 -1.06545e-07 -3.40679e-08)
(1.99926 -6.01583e-08 -3.35075e-08)
(1.99936 -3.34838e-08 -3.28977e-08)
(1.99873 -2.1935e-09 -3.21793e-08)
(1.99655 6.70291e-08 -3.10329e-08)
(1.99007 3.62099e-07 -2.96133e-08)
(1.97087 1.5293e-06 -2.29239e-08)
(1.90742 7.59591e-06 6.79646e-09)
(1.71859 3.69807e-05 2.53363e-07)
(0.360225 0.000223426 -6.78201e-08)
(0.786448 0.000703721 -6.91934e-07)
(1.86958 -3.6593e-09 1.88249e-08)
(1.87746 1.20848e-08 2.006e-08)
(1.76338 7.01323e-08 2.98309e-08)
(1.61572 1.55477e-07 6.84871e-08)
(1.55137 2.01763e-07 8.7576e-08)
(1.60403 1.1683e-07 1.13274e-07)
(1.70846 -1.0454e-07 -2.67023e-08)
(1.80917 -2.54968e-07 -5.3644e-08)
(1.88372 -2.95882e-07 -5.53482e-08)
(1.93351 -2.58484e-07 -5.6519e-08)
(1.96433 -1.9178e-07 -5.36871e-08)
(1.98215 -1.30428e-07 -4.82047e-08)
(1.99168 -7.79467e-08 -3.98869e-08)
(1.99634 -4.10506e-08 -3.58442e-08)
(1.99844 -2.07919e-08 -3.37864e-08)
(1.99926 -6.32483e-09 -3.31507e-08)
(1.99936 1.80941e-08 -3.25273e-08)
(1.99873 1.0628e-07 -3.17239e-08)
(1.99655 4.26284e-07 -3.02984e-08)
(1.99007 1.96133e-06 -2.86812e-08)
(1.97088 7.95024e-06 -2.1228e-08)
(1.90745 3.72609e-05 9.81253e-09)
(1.71873 0.000172413 2.62783e-07)
(0.361497 0.000969628 -6.53875e-08)
(0.786717 0.00299287 -6.9457e-07)
(1.86777 1.21611e-05 -5.11314e-07)
(1.87572 1.74598e-05 -3.32454e-07)
(1.76229 1.52791e-05 3.34225e-08)
(1.61538 7.42929e-06 4.61978e-07)
(1.55142 8.14219e-07 4.62527e-07)
(1.60412 -9.10528e-07 3.87799e-07)
(1.7085 2.52259e-07 3.72997e-08)
(1.8092 7.95352e-07 -1.51309e-08)
(1.88374 7.63094e-07 -3.55822e-08)
(1.93353 4.97486e-07 -5.19202e-08)
(1.96434 2.43045e-07 -5.96983e-08)
(1.98215 9.25739e-08 -5.8191e-08)
(1.99167 2.68637e-08 -4.38942e-08)
(1.99634 5.79159e-09 -3.82639e-08)
(1.99844 -2.16363e-10 -3.51357e-08)
(1.99926 2.74531e-08 -3.43054e-08)
(1.99936 1.31448e-07 -3.33825e-08)
(1.99873 5.5495e-07 -3.22524e-08)
(1.99655 2.06314e-06 -3.05345e-08)
(1.99007 8.9704e-06 -2.90505e-08)
(1.9709 3.44615e-05 -2.05365e-08)
(1.90757 0.000153112 7.7906e-09)
(1.71936 0.000673222 2.61305e-07)
(0.366704 0.00354458 -7.58348e-08)
(0.787839 0.0106987 -6.9812e-07)
(1.86965 0.000500493 -1.21529e-07)
(1.8775 0.000856392 -5.15798e-08)
(1.7634 0.000909222 1.42828e-07)
(1.61573 0.000588986 3.2838e-07)
(1.55137 0.000201697 3.21625e-07)
(1.60403 3.65309e-05 2.94627e-07)
(1.70846 2.61492e-05 -4.3208e-09)
(1.80917 1.95562e-05 -4.3767e-08)
(1.88372 1.05507e-05 -5.20332e-08)
(1.93351 3.17149e-06 -5.78381e-08)
(1.96433 -7.92934e-07 -5.79203e-08)
(1.98215 -1.67871e-06 -5.32572e-08)
(1.99168 -1.22744e-06 -4.18683e-08)
(1.99634 -7.43967e-07 -3.66176e-08)
(1.99844 -3.82154e-07 -3.39874e-08)
(1.99926 6.58405e-09 -3.3191e-08)
(1.99936 6.89198e-07 -3.23153e-08)
(1.99873 2.84485e-06 -3.10575e-08)
(1.99655 1.00691e-05 -2.90025e-08)
(1.9901 3.99706e-05 -2.70254e-08)
(1.971 0.000143577 -1.96657e-08)
(1.90804 0.000588115 5.71015e-09)
(1.72151 0.00241094 2.36653e-07)
(0.383957 0.0115688 -1.09253e-07)
(0.79167 0.0341792 -7.26603e-07)
(1.86959 -1.61503e-05 3.84283e-06)
(1.87746 -7.98307e-06 3.98592e-06)
(1.76337 1.3103e-05 3.78859e-06)
(1.61571 2.89839e-05 2.12376e-06)
(1.55137 2.79932e-05 1.07711e-06)
(1.60403 1.55328e-05 -1.19157e-06)
(1.70846 5.7484e-06 -6.67227e-08)
(1.80917 1.66429e-06 7.72197e-08)
(1.88372 -1.14975e-07 4.55721e-08)
(1.93351 -8.35785e-07 -7.28698e-09)
(1.96433 -8.93698e-07 -4.39722e-08)
(1.98215 -6.25429e-07 -5.8671e-08)
(1.99167 -3.44026e-07 -4.04751e-08)
(1.99634 -1.51247e-07 -3.71049e-08)
(1.99844 -1.06268e-07 -3.47726e-08)
(1.99926 6.12803e-07 -3.42074e-08)
(1.99936 2.96428e-06 -3.355e-08)
(1.99874 1.09305e-05 -3.26987e-08)
(1.99658 3.7209e-05 -3.27436e-08)
(1.99019 0.000135977 -3.28512e-08)
(1.97137 0.000462207 -3.6578e-08)
(1.90966 0.00177484 -5.34703e-08)
(1.72822 0.00684417 -1.16006e-07)
(0.434561 0.0301521 -3.83402e-07)
(0.803912 0.0879366 -5.82466e-07)
(1.86942 -1.22703e-05 -8.11289e-07)
(1.87737 -3.54851e-06 -4.4409e-07)
(1.76332 1.99224e-05 2.65602e-07)
(1.61566 4.13891e-05 9.52808e-07)
(1.55132 4.42634e-05 8.31697e-07)
(1.60399 2.68775e-05 7.00539e-07)
(1.70844 8.18708e-06 9.73585e-08)
(1.80916 -8.67464e-07 1.97966e-08)
(1.88371 -4.09208e-06 -1.58254e-08)
(1.93351 -4.51582e-06 -4.36303e-08)
(1.96433 -3.73094e-06 -5.52019e-08)
(1.98215 -2.52914e-06 -5.36788e-08)
(1.99168 -1.46029e-06 -4.28664e-08)
(1.99634 -7.05951e-07 -3.74947e-08)
(1.99845 -4.70206e-07 -3.46811e-08)
(1.99926 2.76056e-06 -3.38373e-08)
(1.99937 1.28921e-05 -3.27529e-08)
(1.99876 4.36012e-05 -3.04895e-08)
(1.99666 0.00013968 -2.6209e-08)
(1.99045 0.000449722 -1.63093e-08)
(1.97239 0.0014104 1.71668e-08)
(1.91386 0.0047091 -8.14943e-08)
(1.74415 0.016625 2.47553e-07)
(0.546931 0.0641205 -5.66221e-07)
(0.834835 0.197902 -4.72154e-07)
(1.86942 -4.87575e-07 3.5143e-06)
(1.87737 -2.56227e-07 3.76108e-06)
(1.76332 1.31431e-06 3.75858e-06)
(1.61566 3.78939e-06 2.2822e-06)
(1.55132 5.06951e-06 1.19964e-06)
(1.60399 3.22683e-06 -1.10856e-06)
(1.70844 3.02933e-07 -2.18381e-08)
(1.80916 -1.1327e-06 1.29911e-07)
(1.88371 -1.45988e-06 8.31291e-08)
(1.93351 -1.27321e-06 1.35571e-08)
(1.96433 -9.28153e-07 -3.39609e-08)
(1.98215 -5.88754e-07 -5.34555e-08)
(1.99168 -3.11718e-07 -3.79451e-08)
(1.99634 9.28677e-08 -3.59345e-08)
(1.99845 -2.14235e-07 -3.4193e-08)
(1.99927 8.08772e-06 -3.35688e-08)
(1.9994 3.53333e-05 -3.26058e-08)
(1.99885 0.0001141 -3.05154e-08)
(1.99692 0.000349916 -2.66051e-08)
(1.99125 0.00105759 -1.56402e-08)
(1.97497 0.00313682 1.27002e-08)
(1.92325 0.00959908 4.28419e-08)
(1.77486 0.0313196 1.0896e-07)
(0.761828 0.110395 -2.24116e-07)
(0.910661 0.34226 -2.1349e-07)
(1.86942 -1.78033e-08 3.68534e-06)
(1.87737 5.21154e-08 3.78521e-06)
(1.76332 1.58239e-07 3.53803e-06)
(1.61566 2.23364e-07 1.85702e-06)
(1.55132 2.13393e-07 8.56494e-07)
(1.60399 1.3474e-07 -1.39045e-06)
(1.70844 2.88348e-08 -5.43355e-08)
(1.80916 -4.29207e-08 1.19014e-07)
(1.88371 -7.59156e-08 7.47735e-08)
(1.93351 -7.76432e-08 1.09588e-08)
(1.96433 -6.46085e-08 -3.20618e-08)
(1.98215 -6.17022e-08 -4.92227e-08)
(1.99168 -6.17789e-08 -3.62179e-08)
(1.99634 7.89111e-07 -3.49321e-08)
(1.99845 3.31635e-07 -3.35493e-08)
(1.99929 2.29449e-05 -3.30672e-08)
(1.99946 0.0001028 -3.25714e-08)
(1.99903 0.000317689 -3.1805e-08)
(1.99745 0.000932889 -3.05765e-08)
(1.99279 0.002657 -2.87356e-08)
(1.97958 0.00754934 -2.13809e-08)
(1.93853 0.0214792 -2.30049e-08)
(1.82299 0.0653253 -3.79718e-08)
(1.03262 0.204697 -3.12317e-07)
(1.04308 0.698492 -1.44576e-07)
(1.86942 1.17633e-07 -2.46001e-07)
(1.87737 -7.98137e-09 -1.02571e-07)
(1.76332 -5.63063e-07 1.98628e-07)
(1.61566 -1.41613e-06 4.968e-07)
(1.55132 -1.95114e-06 4.68731e-07)
(1.60399 -1.40904e-06 4.33919e-07)
(1.70844 -2.47203e-07 7.63181e-08)
(1.80916 4.91435e-07 2.80268e-10)
(1.88371 7.61219e-07 -2.20338e-08)
(1.93351 7.36438e-07 -2.68685e-08)
(1.96433 5.85237e-07 -2.42656e-08)
(1.98215 4.01421e-07 -1.7658e-08)
(1.99168 2.3891e-07 -9.20422e-09)
(1.99634 1.28247e-07 -4.65637e-09)
(1.99844 6.55929e-08 -2.41772e-09)
(1.99926 3.55369e-08 -1.86229e-09)
(1.99936 1.96749e-08 -1.42374e-09)
(1.99873 9.37563e-09 -8.89835e-10)
(1.99655 2.44296e-09 -4.79807e-10)
(1.99007 1.88464e-09 6.20324e-11)
(1.97087 2.8081e-08 6.30597e-10)
(1.90741 1.9588e-07 1.29246e-09)
(1.71855 1.09322e-06 1.39012e-09)
(0.359876 7.49222e-06 2.46546e-11)
(0.786374 2.43529e-05 -1.13557e-09)
(1.86942 5.22631e-07 -3.60451e-07)
(1.87737 1.70256e-07 -2.48511e-07)
(1.76332 -1.50549e-06 -4.65442e-11)
(1.61566 -3.93226e-06 2.78976e-07)
(1.55132 -5.09892e-06 2.70908e-07)
(1.60399 -3.21805e-06 2.57461e-07)
(1.70844 -3.89671e-07 4.79836e-08)
(1.80916 9.80636e-07 1.3175e-08)
(1.88371 1.29622e-06 -4.93478e-09)
(1.93351 1.13286e-06 -1.42043e-08)
(1.96433 8.27238e-07 -1.54943e-08)
(1.98215 5.11062e-07 -1.16365e-08)
(1.99168 2.69147e-07 -5.68987e-09)
(1.99634 1.2941e-07 -2.83652e-09)
(1.99844 6.10876e-08 -1.41165e-09)
(1.99926 3.12809e-08 -1.04594e-09)
(1.99936 1.79069e-08 -7.67022e-10)
(1.99873 1.24424e-08 -4.17987e-10)
(1.99655 1.52755e-08 -1.56214e-10)
(1.99007 5.87998e-08 1.33295e-10)
(1.97087 2.70384e-07 3.35567e-10)
(1.90741 1.461e-06 4.25496e-10)
(1.71856 7.50364e-06 2.19083e-10)
(0.359931 4.80695e-05 -6.87319e-10)
(0.786385 0.000154426 -1.21062e-09)
(1.86942 1.20306e-05 3.55782e-06)
(1.87737 3.54649e-06 3.75459e-06)
(1.76332 -1.89403e-05 3.6688e-06)
(1.61566 -3.90238e-05 2.11302e-06)
(1.55132 -4.11442e-05 1.05384e-06)
(1.60399 -2.46961e-05 -1.22309e-06)
(1.70844 -7.80559e-06 -6.64018e-09)
(1.80916 1.66862e-07 1.57497e-07)
(1.88371 3.01592e-06 1.14589e-07)
(1.93351 3.49471e-06 5.27066e-08)
(1.96433 2.94742e-06 9.05537e-09)
(1.98215 2.00102e-06 -1.09537e-08)
(1.99168 1.15534e-06 -8.62522e-10)
(1.99634 6.17064e-07 -1.42031e-09)
(1.99844 3.30053e-07 -9.24044e-10)
(1.99926 1.88525e-07 -8.42265e-10)
(1.99936 1.11823e-07 -5.67418e-10)
(1.99873 6.96183e-08 -2.35035e-10)
(1.99655 7.34598e-08 -2.47538e-10)
(1.99007 3.08078e-07 1.79739e-11)
(1.97087 1.42824e-06 2.43703e-10)
(1.90742 7.47874e-06 2.34071e-10)
(1.71859 3.68987e-05 -7.20416e-11)
(0.360225 0.000223426 -1.23345e-09)
(0.786447 0.00070365 -1.76304e-09)
(1.86959 1.55279e-05 -2.29537e-07)
(1.87746 7.8745e-06 -1.54962e-07)
(1.76337 -1.13798e-05 1.78746e-08)
(1.61571 -2.51399e-05 2.08437e-07)
(1.55137 -2.3731e-05 2.09337e-07)
(1.60403 -1.31563e-05 1.6485e-07)
(1.70846 -5.61536e-06 3.69191e-08)
(1.80917 -2.5533e-06 2.66493e-08)
(1.88372 -1.00125e-06 1.31726e-08)
(1.93351 -1.60341e-07 4.49141e-10)
(1.96433 1.59691e-07 -5.98755e-09)
(1.98215 1.63241e-07 -5.95777e-09)
(1.99168 8.81125e-08 -2.70999e-09)
(1.99634 4.17077e-08 -1.37201e-09)
(1.99844 1.7822e-08 -6.69793e-10)
(1.99926 1.08713e-08 -4.97053e-10)
(1.99936 2.57709e-08 -3.50729e-10)
(1.99873 1.10164e-07 -1.75485e-10)
(1.99655 4.28163e-07 -8.68196e-11)
(1.99007 1.96103e-06 1.50576e-11)
(1.97088 7.9461e-06 5.07727e-11)
(1.90745 3.72524e-05 -1.94077e-11)
(1.71873 0.000172402 -3.09928e-10)
(0.361497 0.000969612 -1.29186e-09)
(0.786717 0.00299283 -1.8644e-09)
(1.86964 -0.000513735 3.55736e-06)
(1.8775 -0.000855385 3.75423e-06)
(1.7634 -0.000875403 3.66705e-06)
(1.61573 -0.000532242 2.11009e-06)
(1.55137 -0.000146978 1.05087e-06)
(1.60402 -5.39613e-06 -1.22643e-06)
(1.70846 -1.62035e-05 -5.66074e-09)
(1.80916 -1.92048e-05 1.6096e-07)
(1.88372 -1.36717e-05 1.18575e-07)
(1.93351 -6.91014e-06 5.60248e-08)
(1.96433 -2.29381e-06 1.12726e-08)
(1.98215 -4.30016e-07 -9.44104e-09)
(1.99168 -1.22004e-08 -2.82095e-11)
(1.99634 1.12129e-07 -1.02427e-09)
(1.99844 9.3065e-08 -7.47771e-10)
(1.99926 7.06582e-08 -7.37485e-10)
(1.99936 1.41396e-07 -4.96906e-10)
(1.99873 5.58421e-07 -2.06873e-10)
(1.99655 2.07266e-06 -2.5345e-10)
(1.99007 8.99042e-06 -1.38981e-11)
(1.9709 3.44832e-05 2.00294e-10)
(1.90757 0.000153134 1.99629e-10)
(1.71936 0.000673233 -2.68541e-11)
(0.366704 0.00354457 -1.11911e-09)
(0.787839 0.0106986 -1.43565e-09)
(1.86751 -1.34066e-08 -3.60165e-07)
(1.87558 2.1643e-08 -2.491e-07)
(1.7622 -2.09823e-08 -7.28131e-09)
(1.61528 -1.55871e-07 2.59822e-07)
(1.55135 -2.85434e-07 2.43827e-07)
(1.60406 -2.0593e-07 2.23788e-07)
(1.70847 3.78134e-08 4.27913e-08)
(1.80919 1.98461e-07 2.09247e-08)
(1.88374 2.42895e-07 6.74905e-09)
(1.93353 2.11931e-07 -3.51357e-09)
(1.96434 1.59947e-07 -7.3258e-09)
(1.98215 1.0616e-07 -6.05928e-09)
(1.99168 6.19106e-08 -2.68851e-09)
(1.99634 3.58732e-08 -1.33677e-09)
(1.99844 5.51567e-09 -6.81976e-10)
(1.99926 1.5751e-07 -5.12455e-10)
(1.99936 7.27708e-07 -3.78706e-10)
(1.99873 2.85534e-06 -2.19382e-10)
(1.99655 1.00952e-05 -1.30149e-10)
(1.9901 4.00284e-05 -1.18395e-11)
(1.971 0.000143658 7.44339e-11)
(1.90804 0.000588203 9.93278e-11)
(1.72151 0.002411 -9.75805e-11)
(0.383956 0.0115688 -1.21573e-09)
(0.791669 0.0341792 -1.64735e-09)
(1.86964 0.000513801 -2.42926e-07)
(1.8775 0.00085522 -1.00502e-07)
(1.7634 0.000874385 1.84649e-07)
(1.61573 0.000529971 4.53385e-07)
(1.55137 0.000144008 4.12933e-07)
(1.60402 3.38041e-06 3.68491e-07)
(1.70846 1.61049e-05 6.91402e-08)
(1.80916 2.02969e-05 1.08471e-08)
(1.88372 1.5158e-05 -8.28003e-09)
(1.93351 8.30152e-06 -1.49017e-08)
(1.96433 3.38399e-06 -1.53466e-08)
(1.98215 1.16184e-06 -1.1874e-08)
(1.99168 4.40187e-07 -6.45316e-09)
(1.99634 1.32308e-07 -3.36506e-09)
(1.99844 -1.34095e-08 -1.8319e-09)
(1.99926 6.57118e-07 -1.47329e-09)
(1.99936 2.99393e-06 -1.15399e-09)
(1.99874 1.09416e-05 -7.6318e-10)
(1.99658 3.72013e-05 -4.51384e-10)
(1.99019 0.000135954 -1.6448e-11)
(1.97137 0.000462183 4.67206e-10)
(1.90966 0.00177482 9.57119e-10)
(1.72822 0.00684416 8.44687e-10)
(0.434561 0.0301521 -1.06439e-09)
(0.803912 0.0879366 -2.18576e-09)
(1.86959 -1.51242e-05 -7.36631e-09)
(1.87746 -7.70124e-06 -5.60678e-09)
(1.76337 1.03289e-05 1.25972e-08)
(1.61571 2.22421e-05 4.51149e-08)
(1.55137 1.99336e-05 5.90609e-08)
(1.60403 1.06516e-05 6.93054e-08)
(1.70846 5.19088e-06 7.72085e-09)
(1.80917 3.15221e-06 -1.05609e-08)
(1.88372 1.86393e-06 -1.41333e-08)
(1.93351 9.2969e-07 -1.23928e-08)
(1.96433 4.00849e-07 -9.27986e-09)
(1.98215 1.79965e-07 -6.09648e-09)
(1.99167 1.03111e-07 -2.99336e-09)
(1.99634 1.25042e-07 -1.44862e-09)
(1.99844 -3.29585e-08 -6.97047e-10)
(1.99926 3.00672e-06 -5.07528e-10)
(1.99937 1.30318e-05 -3.8435e-10)
(1.99876 4.3666e-05 -2.31718e-10)
(1.99666 0.000139682 -1.13999e-10)
(1.99045 0.00044967 4.01609e-12)
(1.97239 0.00141031 8.77107e-11)
(1.91386 0.004709 7.5384e-11)
(1.74415 0.016625 -1.64082e-10)
(0.54693 0.0641205 -1.66947e-09)
(0.834834 0.197902 -2.27803e-09)
(1.86942 -4.29234e-09 -3.15536e-09)
(1.87737 -1.26868e-10 -1.72101e-09)
(1.76332 2.67318e-08 7.42201e-09)
(1.61566 4.81453e-08 2.24335e-08)
(1.55132 4.724e-08 3.01053e-08)
(1.604 2.73656e-08 3.5947e-08)
(1.70844 8.37498e-09 4.95711e-09)
(1.80916 -2.48811e-11 -9.20448e-09)
(1.88371 -2.08646e-09 -1.35118e-08)
(1.93351 -2.04445e-09 -1.2522e-08)
(1.96433 4.07897e-11 -9.63303e-09)
(1.98215 -1.05776e-08 -6.64554e-09)
(1.99168 -3.37687e-09 -3.68547e-09)
(1.99634 2.39065e-07 -1.9362e-09)
(1.99845 -1.54245e-07 -9.90337e-10)
(1.99927 8.10852e-06 -6.53216e-10)
(1.9994 3.5339e-05 -5.08795e-10)
(1.99885 0.000114102 -2.9143e-10)
(1.99692 0.000349919 -1.08966e-10)
(1.99125 0.0010576 5.12265e-11)
(1.97497 0.00313683 1.06479e-10)
(1.92325 0.00959908 6.20161e-11)
(1.77486 0.0313196 -2.76881e-10)
(0.761828 0.110395 -1.47687e-09)
(0.910661 0.34226 -1.55543e-09)
(1.86959 1.51038e-05 -1.26674e-09)
(1.87746 7.6966e-06 -5.65803e-10)
(1.76337 -1.02526e-05 2.51028e-09)
(1.61571 -2.20997e-05 7.37563e-09)
(1.55137 -1.9786e-05 9.6939e-09)
(1.60403 -1.05622e-05 1.14418e-08)
(1.70846 -5.16107e-06 -8.78147e-10)
(1.80917 -3.14995e-06 -6.79963e-09)
(1.88372 -1.87042e-06 -8.23511e-09)
(1.93351 -9.35845e-07 -7.13357e-09)
(1.96433 -4.04503e-07 -5.23601e-09)
(1.98215 -2.05029e-07 -3.52012e-09)
(1.99168 -1.33655e-07 -1.86039e-09)
(1.99634 7.50564e-07 -9.28399e-10)
(1.99845 3.11825e-07 -4.57256e-10)
(1.99929 2.29341e-05 -3.09567e-10)
(1.99946 0.000102793 -2.45761e-10)
(1.99902 0.000317683 -1.63764e-10)
(1.99745 0.000932884 -9.23645e-11)
(1.99279 0.002657 -4.14253e-11)
(1.97958 0.00754934 -4.19153e-11)
(1.93853 0.0214792 -1.12398e-10)
(1.82299 0.0653253 -3.57348e-10)
(1.03262 0.204697 -1.26388e-09)
(1.04308 0.698492 -1.25112e-09)
(1.86942 -6.34578e-09 1.80619e-07)
(1.87737 -7.47275e-09 1.86744e-07)
(1.76332 1.86058e-08 1.65389e-07)
(1.61566 5.22017e-08 4.31572e-08)
(1.55132 3.18933e-08 -2.69203e-08)
(1.60399 3.06511e-09 -2.29784e-08)
(1.70844 -1.4129e-08 3.17891e-08)
(1.80916 -1.74453e-08 1.32577e-08)
(1.88371 -1.46822e-08 5.61559e-09)
(1.93351 -1.03418e-08 1.00594e-08)
(1.96433 -6.20772e-09 1.62276e-08)
(1.98215 -3.25432e-09 1.64308e-08)
(1.99168 -1.55774e-09 5.63952e-09)
(1.99634 -6.92986e-10 3.05354e-09)
(1.99844 -3.21228e-10 1.66397e-09)
(1.99926 -1.44319e-10 1.31194e-09)
(1.99936 -8.53754e-11 8.32267e-10)
(1.99873 1.9217e-10 2.09288e-10)
(1.99655 1.2306e-09 -3.05417e-10)
(1.99007 6.98753e-09 -9.76277e-10)
(1.97087 3.70517e-08 -7.91264e-10)
(1.90741 2.05685e-07 4.90261e-09)
(1.71855 1.10086e-06 3.69459e-08)
(0.359876 7.49577e-06 1.50413e-07)
(0.786374 2.43626e-05 3.00248e-07)
(1.86942 -2.73626e-09 1.78433e-07)
(1.87737 1.17726e-09 1.7977e-07)
(1.76332 3.33393e-08 1.55372e-07)
(1.61566 6.57548e-08 3.99218e-08)
(1.55132 3.50954e-08 -2.06052e-08)
(1.60399 -3.61407e-09 -1.77592e-09)
(1.70844 -2.31809e-08 4.3284e-08)
(1.80916 -2.42929e-08 2.57071e-08)
(1.88371 -1.88518e-08 1.60764e-08)
(1.93351 -1.27951e-08 1.57115e-08)
(1.96433 -7.59027e-09 1.85399e-08)
(1.98215 -3.91158e-09 1.70131e-08)
(1.99168 -1.83254e-09 6.0467e-09)
(1.99634 -8.05602e-10 3.23939e-09)
(1.99844 -3.76926e-10 1.73047e-09)
(1.99926 -8.29853e-11 1.3279e-09)
(1.99936 3.65343e-10 8.50768e-10)
(1.99873 2.57191e-09 2.38146e-10)
(1.99655 1.15009e-08 -3.19767e-10)
(1.99007 6.10509e-08 -1.14343e-09)
(1.97087 2.78357e-07 -1.74436e-09)
(1.90741 1.47209e-06 2.91526e-10)
(1.71856 7.51052e-06 1.71609e-08)
(0.359932 4.80588e-05 1.02577e-07)
(0.786386 0.000154439 1.8537e-07)
(1.86942 6.51714e-09 1.81107e-08)
(1.87737 9.69835e-09 1.37582e-08)
(1.76332 7.07202e-09 -8.12874e-09)
(1.61566 -6.72038e-09 -4.50542e-08)
(1.55132 -2.3852e-08 -4.76892e-08)
(1.60399 -2.69307e-08 -5.14209e-08)
(1.70844 -1.71623e-08 7.05209e-08)
(1.80916 -8.13502e-09 9.09036e-08)
(1.88371 -2.53189e-09 7.96698e-08)
(1.93351 6.92516e-11 6.04824e-08)
(1.96433 1.00871e-09 4.28947e-08)
(1.98215 1.1124e-09 2.781e-08)
(1.99168 8.06722e-10 1.36508e-08)
(1.99634 4.93732e-10 6.62845e-09)
(1.99844 1.90748e-10 3.19923e-09)
(1.99926 7.4247e-10 2.21935e-09)
(1.99936 3.55651e-09 1.33147e-09)
(1.99873 1.71627e-08 1.96442e-10)
(1.99655 7.06498e-08 -2.14156e-09)
(1.99007 3.51142e-07 -5.53041e-09)
(1.97087 1.50753e-06 -1.98329e-08)
(1.90742 7.56942e-06 -7.06862e-08)
(1.71859 3.69568e-05 -3.95576e-07)
(0.360225 0.0002234 -3.02748e-07)
(0.786448 0.00070364 2.08262e-07)
(1.86942 -6.62311e-10 -2.10116e-07)
(1.87737 -6.3527e-09 -7.64209e-08)
(1.76332 -1.92196e-08 1.54874e-07)
(1.61566 -3.09206e-08 3.35389e-07)
(1.55132 -2.87422e-08 2.70836e-07)
(1.60399 -1.38706e-08 2.07272e-07)
(1.70844 -2.31481e-09 1.21358e-07)
(1.80916 9.84882e-10 1.13574e-07)
(1.88371 1.72646e-09 9.07414e-08)
(1.93351 2.10475e-09 6.37768e-08)
(1.96433 1.93687e-09 4.16947e-08)
(1.98215 1.29141e-09 2.56051e-08)
(1.99168 6.84409e-10 1.21553e-08)
(1.99634 4.81739e-10 5.61418e-09)
(1.99844 -2.81255e-10 2.49769e-09)
(1.99926 4.40278e-09 1.60164e-09)
(1.99936 2.38928e-08 8.17825e-10)
(1.99873 1.08886e-07 -1.95165e-10)
(1.99655 4.2673e-07 -2.45936e-09)
(1.99007 1.9604e-06 -5.52747e-09)
(1.97088 7.94854e-06 -1.98123e-08)
(1.90745 3.72589e-05 -6.96416e-08)