/*--------------------------------*- C++ -*----------------------------------*\
| =========                 |                                                 |
| \\      /  F ield         | OpenFOAM: The Open Source CFD Toolbox           |
|  \\    /   O peration     | Version:  4.1                                   |
|   \\  /    A nd           | Web:      www.OpenFOAM.org                      |
|    \\/     M anipulation  |                                                 |
\*---------------------------------------------------------------------------*/
FoamFile
{
    version     2.0;
    format      ascii;
    class       volScalarField;
    location    "6.5";
    object      p;
}
// * * * * * * * * * * * * * * * * * * * * * * * * * * * * * * * * * * * * * //

dimensions      [1 -1 -2 0 0 0 0];

internalField   nonuniform List<scalar> 
52500
(
1.00001
1.00003
1.00011
1.00025
1.00072
1.00148
1.00424
1.00842
1.02558
1.04656
1.16578
1.29903
2.12371
3.69057
8.94201
11.4743
11.2276
11.0566
11.1327
11.3512
11.592
11.7447
11.8604
11.953
12.0262
1.00001
1.00003
1.00011
1.00025
1.00071
1.00146
1.00418
1.00828
1.02528
1.04573
1.16422
1.29449
2.11135
3.65541
8.85216
11.4734
11.2205
11.0445
11.122
11.342
11.5823
11.7347
11.852
11.946
12.0208
1.00001
1.00003
1.00011
1.00024
1.00069
1.00142
1.00407
1.00805
1.02465
1.04443
1.16019
1.28577
2.08542
3.57842
8.6528
11.4709
11.2013
11.0105
11.088
11.3073
11.5437
11.6927
11.8088
11.9014
11.975
1.00001
1.00003
1.00011
1.00023
1.00067
1.00136
1.0039
1.00769
1.0237
1.04243
1.1541
1.27225
2.04705
3.45967
8.34291
11.4721
11.1734
10.956
11.0315
11.2462
11.4757
11.6185
11.7306
11.8197
11.8925
1.00001
1.00003
1.0001
1.00022
1.00063
1.00129
1.0037
1.00728
1.02245
1.04009
1.14588
1.25587
1.98876
3.30214
7.91461
11.4797
11.1415
10.8843
10.9557
11.1625
11.3828
11.5164
11.6215
11.7057
11.7785
1.00001
1.00003
1.00009
1.0002
1.00059
1.00121
1.00346
1.00683
1.02092
1.03757
1.13555
1.23787
1.90685
3.10897
7.35974
11.496
11.1096
10.7959
10.8601
11.0535
11.2618
11.3826
11.4762
11.5512
11.6231
1.00001
1.00002
1.00009
1.00019
1.00055
1.00114
1.00323
1.00651
1.01907
1.03633
1.12054
1.22106
1.80583
2.88441
6.68508
11.4985
11.0766
10.6942
10.7475
10.9194
11.1098
11.2106
11.2839
11.3401
11.404
1
1.00002
1.00008
1.00017
1.0005
1.00103
1.00293
1.00592
1.01714
1.03361
1.10591
1.20082
1.70119
2.64292
5.92381
11.4387
11.0157
10.5798
10.619
10.7591
10.9236
10.9954
11.0348
11.0529
11.0885
1
1.00002
1.00007
1.00015
1.00045
1.00092
1.00262
1.00531
1.0153
1.03019
1.09335
1.18056
1.60935
2.42772
5.28138
11.1433
10.8686
10.4618
10.4759
10.5664
10.6942
10.724
10.7108
10.6528
10.5933
1
1.00002
1.00006
1.00013
1.00039
1.00081
1.00229
1.00462
1.01343
1.02603
1.08326
1.15421
1.54161
2.24608
4.78926
10.4985
10.5693
10.384
10.3137
10.3519
10.4183
10.3975
10.3044
10.0852
9.74412
1.00001
1.00004
1.00012
1.00026
1.00073
1.00149
1.00425
1.00843
1.02559
1.0466
1.16578
1.29911
2.12375
3.69084
8.94255
11.4743
11.2276
11.0567
11.1328
11.3513
11.5921
11.7448
11.8605
11.9531
12.0263
1.00001
1.00004
1.00012
1.00025
1.00072
1.00147
1.00419
1.00829
1.02529
1.04575
1.16425
1.29455
2.11143
3.6557
8.85274
11.4734
11.2205
11.0446
11.1221
11.3421
11.5824
11.7348
11.8521
11.9461
12.0209
1.00001
1.00003
1.00011
1.00025
1.0007
1.00143
1.00408
1.00806
1.02466
1.04445
1.16022
1.28583
2.0855
3.57872
8.6534
11.4708
11.2013
11.0106
11.0881
11.3074
11.5438
11.6928
11.8089
11.9015
11.9751
1.00001
1.00003
1.00011
1.00024
1.00067
1.00137
1.00391
1.0077
1.02371
1.04245
1.15412
1.27231
2.04713
3.45997
8.34352
11.472
11.1734
10.9561
11.0316
11.2463
11.4758
11.6186
11.7307
11.8198
11.8926
1.00001
1.00003
1.0001
1.00022
1.00064
1.0013
1.00371
1.00729
1.02246
1.04011
1.14591
1.25593
1.98884
3.30242
7.91522
11.4796
11.1415
10.8844
10.9558
11.1626
11.3829
11.5165
11.6216
11.7058
11.7786
1.00001
1.00003
1.0001
1.00021
1.0006
1.00122
1.00347
1.00684
1.02093
1.03759
1.13558
1.23793
1.90693
3.10923
7.36035
11.4959
11.1096
10.796
10.8602
11.0536
11.2619
11.3827
11.4763
11.5513
11.6232
1.00001
1.00003
1.00009
1.0002
1.00056
1.00114
1.00324
1.00652
1.01908
1.03636
1.12054
1.22113
1.80586
2.88465
6.68562
11.4985
11.0766
10.6943
10.7476
10.9195
11.1099
11.2107
11.284
11.3402
11.4041
1.00001
1.00002
1.00008
1.00018
1.00051
1.00104
1.00294
1.00593
1.01715
1.03362
1.10593
1.20087
1.70124
2.64312
5.9243
11.4387
11.0158
10.5799
10.6191
10.7592
10.9237
10.9955
11.0349
11.053
11.0886
1.00001
1.00002
1.00007
1.00016
1.00046
1.00093
1.00263
1.00532
1.01531
1.03021
1.09336
1.1806
1.60939
2.42786
5.28164
11.1435
10.8688
10.4619
10.476
10.5665
10.6942
10.7241
10.7109
10.6529
10.5934
1
1.00002
1.00006
1.00014
1.0004
1.00081
1.0023
1.00463
1.01344
1.02605
1.08326
1.15427
1.54161
2.24622
4.78947
10.4989
10.5694
10.3841
10.3138
10.352
10.4184
10.3976
10.3045
10.0852
9.7442
1.00001
1.00004
1.00012
1.00026
1.00073
1.00149
1.00425
1.00843
1.02559
1.0466
1.16578
1.29911
2.12376
3.69086
8.9426
11.4743
11.2276
11.0568
11.1328
11.3513
11.5921
11.7448
11.8605
11.9531
12.0263
1.00001
1.00004
1.00012
1.00025
1.00072
1.00147
1.00419
1.00829
1.02529
1.04575
1.16425
1.29455
2.11144
3.65571
8.85278
11.4734
11.2205
11.0446
11.1221
11.3421
11.5824
11.7348
11.8521
11.9461
12.0209
1.00001
1.00003
1.00011
1.00025
1.0007
1.00143
1.00408
1.00806
1.02466
1.04445
1.16022
1.28583
2.08551
3.57874
8.65344
11.4708
11.2013
11.0106
11.0881
11.3074
11.5438
11.6928
11.8089
11.9015
11.9751
1.00001
1.00003
1.00011
1.00024
1.00067
1.00137
1.00391
1.0077
1.02371
1.04245
1.15412
1.27231
2.04713
3.45999
8.34356
11.472
11.1734
10.9561
11.0316
11.2463
11.4758
11.6186
11.7307
11.8198
11.8926
1.00001
1.00003
1.0001
1.00022
1.00064
1.0013
1.00371
1.00729
1.02246
1.04011
1.14591
1.25593
1.98885
3.30244
7.91527
11.4796
11.1415
10.8844
10.9558
11.1626
11.3829
11.5165
11.6216
11.7058
11.7786
1.00001
1.00003
1.0001
1.00021
1.0006
1.00122
1.00347
1.00684
1.02093
1.03759
1.13558
1.23793
1.90693
3.10925
7.3604
11.4959
11.1096
10.796
10.8602
11.0536
11.2619
11.3827
11.4763
11.5513
11.6232
1.00001
1.00003
1.00009
1.0002
1.00056
1.00114
1.00324
1.00652
1.01908
1.03636
1.12054
1.22113
1.80587
2.88466
6.68567
11.4984
11.0766
10.6943
10.7476
10.9195
11.1099
11.2107
11.284
11.3402
11.4041
1.00001
1.00002
1.00008
1.00018
1.00051
1.00104
1.00294
1.00593
1.01715
1.03362
1.10593
1.20087
1.70125
2.64313
5.92435
11.4387
11.0158
10.5799
10.6191
10.7592
10.9237
10.9955
11.0349
11.053
11.0886
1.00001
1.00002
1.00007
1.00016
1.00046
1.00093
1.00263
1.00532
1.01531
1.03021
1.09336
1.18061
1.60939
2.42787
5.28166
11.1436
10.8688
10.4619
10.476
10.5665
10.6943
10.7241
10.7109
10.6529
10.5934
1
1.00002
1.00006
1.00014
1.0004
1.00081
1.0023
1.00463
1.01344
1.02605
1.08326
1.15427
1.54162
2.24623
4.78949
10.4989
10.5695
10.3841
10.3138
10.352
10.4184
10.3976
10.3045
10.0852
9.74421
1.00001
1.00004
1.00012
1.00026
1.00073
1.00149
1.00425
1.00843
1.02559
1.0466
1.16578
1.29911
2.12376
3.69086
8.9426
11.4743
11.2276
11.0568
11.1328
11.3513
11.5921
11.7448
11.8605
11.9531
12.0263
1.00001
1.00004
1.00012
1.00025
1.00072
1.00147
1.00419
1.00829
1.02529
1.04575
1.16425
1.29455
2.11144
3.65571
8.85279
11.4734
11.2205
11.0446
11.1221
11.3421
11.5824
11.7348
11.8521
11.9461
12.0209
1.00001
1.00003
1.00011
1.00025
1.0007
1.00143
1.00408
1.00806
1.02466
1.04445
1.16022
1.28583
2.08551
3.57874
8.65344
11.4708
11.2013
11.0106
11.0881
11.3074
11.5438
11.6928
11.8089
11.9015
11.9751
1.00001
1.00003
1.00011
1.00024
1.00067
1.00137
1.00391
1.0077
1.02371
1.04245
1.15412
1.27231
2.04713
3.45999
8.34356
11.472
11.1734
10.9561
11.0316
11.2463
11.4758
11.6186
11.7307
11.8198
11.8926
1.00001
1.00003
1.0001
1.00022
1.00064
1.0013
1.00371
1.00729
1.02246
1.04011
1.14591
1.25593
1.98885
3.30244
7.91527
11.4796
11.1415
10.8844
10.9558
11.1626
11.3829
11.5165
11.6216
11.7058
11.7786
1.00001
1.00003
1.0001
1.00021
1.0006
1.00122
1.00347
1.00684
1.02093
1.03759
1.13558
1.23793
1.90694
3.10925
7.3604
11.4959
11.1096
10.796
10.8602
11.0536
11.2619
11.3827
11.4763
11.5513
11.6232
1.00001
1.00003
1.00009
1.0002
1.00056
1.00114
1.00324
1.00652
1.01908
1.03636
1.12054
1.22113
1.80587
2.88466
6.68567
11.4984
11.0766
10.6943
10.7476
10.9195
11.1099
11.2107
11.284
11.3402
11.4041
1.00001
1.00002
1.00008
1.00018
1.00051
1.00104
1.00294
1.00593
1.01715
1.03362
1.10593
1.20087
1.70125
2.64313
5.92435
11.4387
11.0158
10.5799
10.6191
10.7592
10.9237
10.9955
11.0349
11.053
11.0886
1.00001
1.00002
1.00007
1.00016
1.00046
1.00093
1.00263
1.00532
1.01531
1.03021
1.09336
1.18061
1.60939
2.42787
5.28166
11.1436
10.8688
10.4619
10.476
10.5665
10.6943
10.7241
10.7109
10.6529
10.5934
1
1.00002
1.00006
1.00014
1.0004
1.00081
1.0023
1.00463
1.01344
1.02605
1.08326
1.15427
1.54162
2.24623
4.78949
10.4989
10.5695
10.3841
10.3138
10.352
10.4184
10.3976
10.3045
10.0852
9.74421
1.00001
1.00004
1.00012
1.00026
1.00073
1.00149
1.00425
1.00843
1.02559
1.0466
1.16578
1.29911
2.12376
3.69086
8.94261
11.4743
11.2276
11.0568
11.1328
11.3513
11.5921
11.7448
11.8605
11.9531
12.0263
1.00001
1.00004
1.00012
1.00025
1.00072
1.00147
1.00419
1.00829
1.02529
1.04575
1.16425
1.29455
2.11144
3.65572
8.8528
11.4734
11.2205
11.0446
11.1221
11.3421
11.5824
11.7348
11.8521
11.9461
12.0209
1.00001
1.00003
1.00011
1.00025
1.0007
1.00143
1.00408
1.00806
1.02466
1.04445
1.16022
1.28583
2.08551
3.57874
8.65345
11.4708
11.2013
11.0106
11.0881
11.3074
11.5438
11.6928
11.8089
11.9015
11.9751
1.00001
1.00003
1.00011
1.00024
1.00067
1.00137
1.00391
1.0077
1.02371
1.04245
1.15412
1.27232
2.04714
3.45999
8.34357
11.472
11.1734
10.9561
11.0316
11.2463
11.4758
11.6186
11.7307
11.8198
11.8926
1.00001
1.00003
1.0001
1.00022
1.00064
1.0013
1.00371
1.00729
1.02246
1.04011
1.14591
1.25593
1.98885
3.30244
7.91528
11.4796
11.1415
10.8844
10.9558
11.1626
11.3829
11.5165
11.6216
11.7058
11.7786
1.00001
1.00003
1.0001
1.00021
1.0006
1.00122
1.00347
1.00684
1.02093
1.03759
1.13558
1.23793
1.90694
3.10926
7.36041
11.4959
11.1096
10.796
10.8602
11.0536
11.2619
11.3827
11.4763
11.5513
11.6232
1.00001
1.00003
1.00009
1.0002
1.00056
1.00114
1.00324
1.00652
1.01908
1.03636
1.12054
1.22113
1.80587
2.88467
6.68568
11.4984
11.0766
10.6943
10.7476
10.9195
11.1099
11.2107
11.284
11.3402
11.4041
1.00001
1.00002
1.00008
1.00018
1.00051
1.00104
1.00294
1.00593
1.01715
1.03362
1.10593
1.20087
1.70125
2.64314
5.92436
11.4387
11.0158
10.5799
10.6191
10.7592
10.9237
10.9955
11.0349
11.053
11.0886
1.00001
1.00002
1.00007
1.00016
1.00046
1.00093
1.00263
1.00532
1.01531
1.03021
1.09336
1.18061
1.60939
2.42787
5.28167
11.1436
10.8688
10.4619
10.476
10.5665
10.6943
10.7241
10.7109
10.6529
10.5934
1
1.00002
1.00006
1.00014
1.0004
1.00081
1.0023
1.00463
1.01344
1.02605
1.08326
1.15427
1.54162
2.24623
4.7895
10.499
10.5695
10.3841
10.3138
10.352
10.4184
10.3976
10.3045
10.0852
9.74421
1.00001
1.00004
1.00012
1.00026
1.00073
1.00149
1.00425
1.00843
1.02559
1.0466
1.16578
1.29911
2.12376
3.69086
8.94261
11.4743
11.2276
11.0568
11.1328
11.3513
11.5921
11.7448
11.8605
11.9531
12.0263
1.00001
1.00004
1.00012
1.00025
1.00072
1.00147
1.00419
1.00829
1.02529
1.04575
1.16425
1.29455
2.11144
3.65572
8.8528
11.4734
11.2205
11.0446
11.1221
11.3421
11.5824
11.7348
11.8521
11.9461
12.0209
1.00001
1.00003
1.00011
1.00025
1.0007
1.00143
1.00408
1.00806
1.02466
1.04445
1.16022
1.28583
2.08551
3.57874
8.65345
11.4708
11.2013
11.0106
11.0881
11.3074
11.5438
11.6928
11.8089
11.9015
11.9751
1.00001
1.00003
1.00011
1.00024
1.00067
1.00137
1.00391
1.0077
1.02371
1.04245
1.15412
1.27232
2.04714
3.45999
8.34358
11.472
11.1734
10.9561
11.0316
11.2463
11.4758
11.6186
11.7307
11.8198
11.8926
1.00001
1.00003
1.0001
1.00022
1.00064
1.0013
1.00371
1.00729
1.02246
1.04011
1.14591
1.25593
1.98885
3.30244
7.91528
11.4796
11.1415
10.8844
10.9558
11.1626
11.3829
11.5165
11.6216
11.7058
11.7786
1.00001
1.00003
1.0001
1.00021
1.0006
1.00122
1.00347
1.00684
1.02093
1.03759
1.13558
1.23793
1.90694
3.10926
7.36041
11.4959
11.1096
10.796
10.8603
11.0536
11.2619
11.3827
11.4763
11.5513
11.6232
1.00001
1.00003
1.00009
1.0002
1.00056
1.00114
1.00324
1.00652
1.01908
1.03636
1.12054
1.22113
1.80587
2.88467
6.68568
11.4984
11.0766
10.6943
10.7476
10.9195
11.1099
11.2107
11.284
11.3402
11.4041
1.00001
1.00002
1.00008
1.00018
1.00051
1.00104
1.00294
1.00593
1.01715
1.03362
1.10593
1.20087
1.70125
2.64314
5.92436
11.4387
11.0158
10.5799
10.6191
10.7592
10.9237
10.9955
11.0349
11.053
11.0886
1.00001
1.00002
1.00007
1.00016
1.00046
1.00093
1.00263
1.00532
1.01531
1.03021
1.09336
1.18061
1.60939
2.42787
5.28167
11.1436
10.8688
10.4619
10.476
10.5665
10.6943
10.7241
10.7109
10.6529
10.5934
1
1.00002
1.00006
1.00014
1.0004
1.00081
1.0023
1.00463
1.01344
1.02605
1.08326
1.15427
1.54162
2.24623
4.7895
10.499
10.5695
10.3841
10.3138
10.352
10.4184
10.3976
10.3045
10.0852
9.74421
1.00001
1.00004
1.00012
1.00026
1.00073
1.00149
1.00425
1.00843
1.02559
1.0466
1.16578
1.29911
2.12376
3.69086
8.9426
11.4743
11.2276
11.0568
11.1328
11.3513
11.5921
11.7448
11.8605
11.9531
12.0263
1.00001
1.00004
1.00012
1.00025
1.00072
1.00147
1.00419
1.00829
1.02529
1.04575
1.16425
1.29455
2.11144
3.65572
8.85279
11.4734
11.2205
11.0446
11.1221
11.3421
11.5824
11.7348
11.8521
11.9461
12.0209
1.00001
1.00003
1.00011
1.00025
1.0007
1.00143
1.00408
1.00806
1.02466
1.04445
1.16022
1.28583
2.08551
3.57874
8.65344
11.4708
11.2013
11.0106
11.0881
11.3074
11.5438
11.6928
11.8089
11.9015
11.9751
1.00001
1.00003
1.00011
1.00024
1.00067
1.00137
1.00391
1.0077
1.02371
1.04245
1.15412
1.27232
2.04714
3.45999
8.34357
11.472
11.1734
10.9561
11.0316
11.2463
11.4758
11.6186
11.7307
11.8198
11.8926
1.00001
1.00003
1.0001
1.00022
1.00064
1.0013
1.00371
1.00729
1.02246
1.04011
1.14591
1.25593
1.98885
3.30244
7.91527
11.4796
11.1415
10.8844
10.9558
11.1626
11.3829
11.5165
11.6216
11.7058
11.7786
1.00001
1.00003
1.0001
1.00021
1.0006
1.00122
1.00347
1.00684
1.02093
1.03759
1.13558
1.23793
1.90694
3.10925
7.3604
11.4959
11.1096
10.796
10.8602
11.0536
11.2619
11.3827
11.4763
11.5513
11.6232
1.00001
1.00003
1.00009
1.0002
1.00056
1.00114
1.00324
1.00652
1.01908
1.03636
1.12054
1.22113
1.80587
2.88466
6.68567
11.4984
11.0766
10.6943
10.7476
10.9195
11.1099
11.2107
11.284
11.3402
11.4041
1.00001
1.00002
1.00008
1.00018
1.00051
1.00104
1.00294
1.00593
1.01715
1.03362
1.10593
1.20087
1.70125
2.64314
5.92435
11.4387
11.0158
10.5799
10.6191
10.7592
10.9237
10.9955
11.0349
11.053
11.0886
1.00001
1.00002
1.00007
1.00016
1.00046
1.00093
1.00263
1.00532
1.01531
1.03021
1.09336
1.18061
1.60939
2.42787
5.28167
11.1436
10.8688
10.4619
10.476
10.5665
10.6943
10.7241
10.7109
10.6529
10.5934
1
1.00002
1.00006
1.00014
1.0004
1.00081
1.0023
1.00463
1.01344
1.02605
1.08326
1.15427
1.54162
2.24623
4.78949
10.4989
10.5695
10.3841
10.3138
10.352
10.4184
10.3976
10.3045
10.0852
9.74421
1.00001
1.00004
1.00012
1.00026
1.00073
1.00149
1.00425
1.00843
1.02559
1.0466
1.16578
1.29911
2.12376
3.69086
8.9426
11.4743
11.2276
11.0568
11.1328
11.3513
11.5921
11.7448
11.8605
11.9531
12.0263
1.00001
1.00004
1.00012
1.00025
1.00072
1.00147
1.00419
1.00829
1.02529
1.04575
1.16425
1.29455
2.11144
3.65571
8.85278
11.4734
11.2205
11.0446
11.1221
11.3421
11.5824
11.7348
11.8521
11.9461
12.0209
1.00001
1.00003
1.00011
1.00025
1.0007
1.00143
1.00408
1.00806
1.02466
1.04445
1.16022
1.28583
2.08551
3.57874
8.65344
11.4708
11.2013
11.0106
11.0881
11.3074
11.5438
11.6928
11.8089
11.9015
11.9751
1.00001
1.00003
1.00011
1.00024
1.00067
1.00137
1.00391
1.0077
1.02371
1.04245
1.15412
1.27231
2.04713
3.45999
8.34356
11.472
11.1734
10.9561
11.0316
11.2463
11.4758
11.6186
11.7307
11.8198
11.8926
1.00001
1.00003
1.0001
1.00022
1.00064
1.0013
1.00371
1.00729
1.02246
1.04011
1.14591
1.25593
1.98885
3.30244
7.91527
11.4796
11.1415
10.8844
10.9558
11.1626
11.3829
11.5165
11.6216
11.7058
11.7786
1.00001
1.00003
1.0001
1.00021
1.0006
1.00122
1.00347
1.00684
1.02093
1.03759
1.13558
1.23793
1.90693
3.10925
7.3604
11.4959
11.1096
10.796
10.8602
11.0536
11.2619
11.3827
11.4763
11.5513
11.6232
1.00001
1.00003
1.00009
1.0002
1.00056
1.00114
1.00324
1.00652
1.01908
1.03636
1.12054
1.22113
1.80587
2.88466
6.68567
11.4984
11.0766
10.6943
10.7476
10.9195
11.1099
11.2107
11.284
11.3402
11.4041
1.00001
1.00002
1.00008
1.00018
1.00051
1.00104
1.00294
1.00593
1.01715
1.03362
1.10593
1.20087
1.70125
2.64313
5.92435
11.4387
11.0158
10.5799
10.6191
10.7592
10.9237
10.9955
11.0349
11.053
11.0886
1.00001
1.00002
1.00007
1.00016
1.00046
1.00093
1.00263
1.00532
1.01531
1.03021
1.09336
1.18061
1.60939
2.42787
5.28166
11.1436
10.8688
10.4619
10.476
10.5665
10.6943
10.7241
10.7109
10.6529
10.5934
1
1.00002
1.00006
1.00014
1.0004
1.00081
1.0023
1.00463
1.01344
1.02605
1.08326
1.15427
1.54162
2.24623
4.78949
10.4989
10.5695
10.3841
10.3138
10.352
10.4184
10.3976
10.3045
10.0852
9.74421
1.00001
1.00004
1.00012
1.00026
1.00073
1.00149
1.00425
1.00843
1.02559
1.0466
1.16578
1.29911
2.12375
3.69084
8.94255
11.4743
11.2276
11.0567
11.1328
11.3513
11.5921
11.7448
11.8605
11.9531
12.0263
1.00001
1.00004
1.00012
1.00025
1.00072
1.00147
1.00419
1.00829
1.02529
1.04575
1.16425
1.29455
2.11143
3.6557
8.85274
11.4734
11.2205
11.0446
11.1221
11.3421
11.5824
11.7348
11.8521
11.9461
12.0209
1.00001
1.00003
1.00011
1.00025
1.0007
1.00143
1.00408
1.00806
1.02466
1.04445
1.16022
1.28583
2.0855
3.57872
8.6534
11.4708
11.2013
11.0106
11.0881
11.3074
11.5438
11.6928
11.8089
11.9015
11.9751
1.00001
1.00003
1.00011
1.00024
1.00067
1.00137
1.00391
1.0077
1.02371
1.04245
1.15412
1.27231
2.04713
3.45997
8.34352
11.472
11.1734
10.9561
11.0316
11.2463
11.4758
11.6186
11.7307
11.8198
11.8926
1.00001
1.00003
1.0001
1.00022
1.00064
1.0013
1.00371
1.00729
1.02246
1.04011
1.14591
1.25593
1.98884
3.30242
7.91522
11.4796
11.1415
10.8844
10.9558
11.1626
11.3829
11.5165
11.6216
11.7058
11.7786
1.00001
1.00003
1.0001
1.00021
1.0006
1.00122
1.00347
1.00684
1.02093
1.03759
1.13558
1.23793
1.90693
3.10923
7.36035
11.4959
11.1096
10.796
10.8602
11.0536
11.2619
11.3827
11.4763
11.5513
11.6232
1.00001
1.00003
1.00009
1.0002
1.00056
1.00114
1.00324
1.00652
1.01908
1.03636
1.12054
1.22113
1.80586
2.88465
6.68562
11.4985
11.0766
10.6943
10.7476
10.9195
11.1099
11.2107
11.284
11.3402
11.4041
1.00001
1.00002
1.00008
1.00018
1.00051
1.00104
1.00294
1.00593
1.01715
1.03362
1.10593
1.20087
1.70124
2.64312
5.9243
11.4387
11.0158
10.5799
10.6191
10.7592
10.9237
10.9955
11.0349
11.053
11.0886
1.00001
1.00002
1.00007
1.00016
1.00046
1.00093
1.00263
1.00532
1.01531
1.03021
1.09336
1.1806
1.60939
2.42786
5.28164
11.1435
10.8688
10.4619
10.476
10.5665
10.6942
10.7241
10.7109
10.6529
10.5934
1
1.00002
1.00006
1.00014
1.0004
1.00081
1.0023
1.00463
1.01344
1.02605
1.08326
1.15427
1.54161
2.24622
4.78947
10.4989
10.5694
10.3841
10.3138
10.352
10.4184
10.3976
10.3045
10.0852
9.7442
1.00001
1.00003
1.00011
1.00025
1.00072
1.00148
1.00424
1.00842
1.02558
1.04656
1.16578
1.29903
2.12371
3.69056
8.94201
11.4743
11.2276
11.0566
11.1327
11.3512
11.592
11.7447
11.8604
11.953
12.0262
1.00001
1.00003
1.00011
1.00025
1.00071
1.00146
1.00418
1.00828
1.02528
1.04573
1.16422
1.29449
2.11135
3.65541
8.85215
11.4734
11.2205
11.0445
11.122
11.342
11.5823
11.7347
11.852
11.946
12.0208
1.00001
1.00003
1.00011
1.00024
1.00069
1.00142
1.00407
1.00805
1.02465
1.04443
1.16019
1.28577
2.08542
3.57842
8.65279
11.4709
11.2013
11.0105
11.088
11.3073
11.5437
11.6927
11.8088
11.9014
11.975
1.00001
1.00003
1.00011
1.00023
1.00067
1.00136
1.0039
1.00769
1.0237
1.04243
1.1541
1.27225
2.04705
3.45967
8.3429
11.4721
11.1734
10.956
11.0315
11.2462
11.4757
11.6185
11.7306
11.8197
11.8925
1.00001
1.00003
1.0001
1.00022
1.00063
1.00129
1.0037
1.00728
1.02245
1.04009
1.14588
1.25587
1.98876
3.30213
7.9146
11.4797
11.1415
10.8843
10.9557
11.1625
11.3828
11.5164
11.6215
11.7057
11.7785
1.00001
1.00003
1.00009
1.0002
1.00059
1.00121
1.00346
1.00683
1.02092
1.03757
1.13555
1.23787
1.90685
3.10897
7.35974
11.496
11.1096
10.7959
10.8601
11.0535
11.2618
11.3826
11.4762
11.5512
11.6231
1.00001
1.00002
1.00009
1.00019
1.00055
1.00114
1.00323
1.00651
1.01907
1.03633
1.12054
1.22106
1.80583
2.88441
6.68508
11.4985
11.0766
10.6942
10.7475
10.9194
11.1098
11.2106
11.2839
11.3401
11.404
1
1.00002
1.00008
1.00017
1.0005
1.00103
1.00293
1.00592
1.01714
1.03361
1.10591
1.20082
1.70119
2.64292
5.92381
11.4387
11.0157
10.5798
10.619
10.7591
10.9236
10.9954
11.0348
11.0529
11.0885
1
1.00002
1.00007
1.00015
1.00045
1.00092
1.00262
1.00531
1.0153
1.03019
1.09335
1.18056
1.60935
2.42772
5.28137
11.1433
10.8686
10.4618
10.4759
10.5664
10.6942
10.724
10.7108
10.6528
10.5933
1
1.00002
1.00006
1.00013
1.00039
1.00081
1.00229
1.00462
1.01343
1.02602
1.08326
1.15421
1.54161
2.24608
4.78926
10.4985
10.5693
10.384
10.3137
10.3519
10.4183
10.3975
10.3044
10.0851
9.74412
1
1.00002
1.00004
1.00014
1.00029
1.00083
1.00168
1.00482
1.00949
1.02925
1.05261
1.18905
1.34674
2.27596
4.08882
9.58567
10.4132
10.2866
10.1299
10.1242
10.11
10.0252
9.7787
9.2038
7.75196
1
1.00002
1.00004
1.00012
1.00025
1.00072
1.00148
1.00421
1.0084
1.02516
1.04652
1.16148
1.29475
2.08843
3.59034
8.46911
10.3009
10.1897
9.95878
9.8837
9.8081
9.63258
9.24773
8.475
6.99766
1
1.00001
1.00003
1.0001
1.00021
1.00061
1.00124
1.00355
1.00699
1.02138
1.03828
1.13781
1.24154
1.91933
3.12145
7.24209
10.2106
10.0873
9.80073
9.64375
9.51456
9.26141
8.79048
8.0137
6.85101
1
1.00001
1.00003
1.00009
1.00018
1.00052
1.00106
1.00301
1.00608
1.01761
1.03428
1.10949
1.20436
1.72316
2.67612
5.92191
10.0702
9.96667
9.67062
9.41864
9.23123
8.93881
8.45563
7.7472
6.83225
1
1.00001
1.00002
1.00007
1.00015
1.00042
1.00087
1.00245
1.00496
1.01428
1.02826
1.0861
1.17054
1.55255
2.28865
4.73318
9.6736
9.76023
9.56165
9.22189
8.9788
8.66909
8.21045
7.57857
6.81418
1
1
1.00002
1.00004
1.00014
1.00028
1.00081
1.00164
1.00467
1.00919
1.0281
1.05063
1.17994
1.32854
2.19421
3.84811
8.72757
9.51403
9.37309
9.05753
8.76535
8.44257
8.01578
7.45347
6.78889
1
1
1.00001
1.00003
1.00011
1.00023
1.00065
1.00132
1.00374
1.00738
1.02246
1.04035
1.14402
1.25368
1.95491
3.18933
7.21528
9.2496
9.17092
8.93019
8.5901
8.25337
7.8512
7.34608
6.75789
0.999999
1
1.00001
1.00003
1.00008
1.00018
1.00051
1.00105
1.00297
1.006
1.0174
1.03379
1.10783
1.20303
1.70665
2.63174
5.69877
9.03366
9.02188
8.84456
8.47048
8.10305
7.7156
7.25506
6.7284
0.999997
0.999999
1
1.00002
1.00005
1.00015
1.00032
1.00092
1.00186
1.0053
1.01041
1.0319
1.05761
1.19974
1.39142
2.27106
4.13052
8.53628
8.91199
8.75623
8.39281
7.98595
7.60083
7.17448
6.69957
0.999996
0.999997
1
1.00001
1.00004
1.00011
1.00024
1.00069
1.0014
1.00398
1.0078
1.02397
1.04278
1.15279
1.27218
2.00591
3.31142
7.32289
8.67767
8.58286
8.31003
7.89231
7.50631
7.10862
6.67373
0.999994
0.999995
0.999999
1.00001
1.00003
1.00007
1.0002
1.00042
1.00119
1.00232
1.0072
1.01252
1.04543
1.07438
1.28427
1.56842
2.82421
5.62508
8.39361
8.39018
8.22795
7.85828
7.43725
7.04717
6.64514
0.999993
0.999994
0.999997
1
1.00002
1.00005
1.00015
1.00032
1.00091
1.00185
1.00523
1.01049
1.03078
1.05858
1.18926
1.38025
2.21249
3.86974
7.83697
8.28713
8.15738
7.83561
7.38911
6.99802
6.61988
0.999993
0.999993
0.999995
1
1.00001
1.00004
1.00009
1.00026
1.00055
1.00154
1.00308
1.00905
1.01679
1.05602
1.09694
1.35042
1.72669
3.22496
6.47908
8.06276
8.00975
7.79585
7.36621
6.96439
6.59871
0.999992
0.999992
0.999993
0.999997
1
1.00003
1.00006
1.00019
1.0004
1.00112
1.00227
1.00643
1.01255
1.0388
1.06889
1.2437
1.47695
2.52758
4.73633
7.64982
7.83899
7.71093
7.3774
6.96009
6.58987
0.999992
0.999992
0.999993
0.999995
1
1.00001
1.00005
1.00011
1.00033
1.00067
1.00189
1.00381
1.01087
1.02155
1.06385
1.12862
1.38951
1.8947
3.43493
6.73541
7.66118
7.59139
7.36707
6.96961
6.59247
0.999991
0.999991
0.999992
0.999993
0.999998
1.00001
1.00003
1.00007
1.00022
1.00046
1.0013
1.00263
1.00741
1.01457
1.04414
1.08067
1.2729
1.55735
2.70025
5.12853
7.3396
7.43147
7.31991
7.01623
6.60699
0.999991
0.999991
0.999991
0.999993
0.999995
1
1.00001
1.00006
1.00013
1.00036
1.00075
1.00209
1.00421
1.01192
1.0238
1.06915
1.14187
1.41805
1.95724
3.5217
6.64403
7.30316
7.23799
7.02952
6.64559
0.999991
0.999991
0.999991
0.999992
0.999993
0.999998
1.00001
1.00004
1.00008
1.00024
1.0005
1.00139
1.00283
1.00791
1.01571
1.04639
1.08766
1.28215
1.59806
2.7434
5.20857
7.02952
7.10063
7.00312
6.73748
0.999991
0.999991
0.999991
0.999991
0.999993
0.999995
1
1.00002
1.00006
1.00013
1.00037
1.00077
1.00215
1.00433
1.01222
1.02425
1.07095
1.14361
1.4258
1.9641
3.48939
6.42442
6.9883
6.93877
6.76286
0.999991
0.999991
0.999991
0.999991
0.999992
0.999994
0.999997
1.00001
1.00003
1.0001
1.0002
1.00057
1.00117
1.00327
1.00639
1.01923
1.03429
1.11805
1.20639
1.7327
2.57887
5.12449
6.73212
6.81668
6.73554
0.999991
0.99999
0.99999
0.999991
0.999991
0.999993
0.999995
1
1.00002
1.00006
1.00013
1.00037
1.00077
1.00213
1.00432
1.01208
1.02407
1.06959
1.14139
1.41521
1.93088
3.37341
6.13477
6.70075
6.66689
0.999991
0.99999
0.99999
0.99999
0.999991
0.999991
0.999994
0.999997
1.00001
1.00003
1.00009
1.0002
1.00055
1.00113
1.00315
1.00618
1.01839
1.03303
1.11251
1.19714
1.69002
2.47959
4.84538
6.42439
6.56477
0.999991
0.99999
0.99999
0.99999
0.999991
0.999991
0.999992
0.999995
1
1.00001
1.00006
1.00012
1.00036
1.00073
1.00202
1.00409
1.01135
1.02276
1.06463
1.13294
1.38127
1.85673
3.17538
5.76939
6.43322
0.999991
0.99999
0.99999
0.99999
0.99999
0.999991
0.999992
0.999993
0.999998
1.00001
1.00003
1.00007
1.00022
1.00045
1.00126
1.00255
1.00703
1.01405
1.04044
1.07704
1.24131
1.49443
2.43405
4.38171
6.09094
0.999991
0.99999
0.99999
0.99999
0.99999
0.999991
0.999991
0.999992
0.999995
1
1.00002
1.00004
1.00013
1.00027
1.00076
1.00155
1.00425
1.00855
1.02399
1.04665
1.14072
1.27689
1.83405
2.8425
5.34397
0.999991
0.99999
0.99999
0.99999
0.99999
0.99999
0.999991
0.999991
0.999993
0.999997
1
1.00003
1.00006
1.00019
1.00039
1.00108
1.00219
1.00603
1.01202
1.03442
1.06617
1.20153
1.41779
2.17442
3.70808
0.999991
0.99999
0.99999
0.99999
0.99999
0.99999
0.999991
0.999991
0.999992
0.999994
0.999999
1.00001
1.00004
1.00009
1.00027
1.00056
1.00154
1.00312
1.00864
1.01741
1.04867
1.10098
1.28204
1.63132
2.62409
0.999991
0.99999
0.99999
0.99999
0.99999
0.99999
0.99999
0.999991
0.999991
0.999993
0.999995
1
1.00002
1.00006
1.00014
1.00038
1.00079
1.00216
1.00436
1.01203
1.02384
1.06827
1.13639
1.39322
1.86343
0.999991
0.99999
0.99999
0.99999
0.99999
0.99999
0.99999
0.99999
0.999991
0.999992
0.999993
0.999998
1.00001
1.00003
1.00008
1.00023
1.00049
1.00133
1.00271
1.00745
1.0149
1.04218
1.0833
1.24541
1.53039
0.999991
0.99999
0.99999
0.99999
0.99999
0.99999
0.99999
0.99999
0.999991
0.999991
0.999992
0.999995
1
1.00002
1.00006
1.00013
1.00038
1.00078
1.00216
1.00437
1.01238
1.02442
1.07366
1.14185
1.45559
0.999991
0.99999
0.99999
0.99999
0.99999
0.99999
0.99999
0.99999
0.99999
0.999991
0.999992
0.999994
0.999998
1.00001
1.00003
1.00011
1.00024
1.00069
1.0014
1.00409
1.00768
1.02538
1.04369
1.16377
1.29467
0.999991
0.99999
0.99999
0.99999
0.99999
0.99999
0.99999
0.99999
0.99999
0.999991
0.999992
0.999993
0.999998
1.00001
1.00003
1.00008
1.00024
1.0005
1.00149
1.00284
1.00943
1.01601
1.06215
1.10214
1.41885
0.999991
0.99999
0.99999
0.99999
0.99999
0.99999
0.99999
0.99999
0.99999
0.999991
0.999991
0.999993
0.999997
1
1.00003
1.00007
1.00022
1.00045
1.00138
1.00253
1.00893
1.0148
1.05929
1.09685
1.40521
0.999991
0.99999
0.99999
0.99999
0.99999
0.99999
0.99999
0.99999
0.99999
0.999991
0.999991
0.999993
0.999996
1.00001
1.00002
1.00008
1.00017
1.00054
1.00099
1.00352
1.00585
1.02316
1.03771
1.15433
1.2763
0.999991
0.99999
0.99999
0.99999
0.99999
0.99999
0.99999
0.99999
0.99999
0.999991
0.999991
0.999992
0.999996
1
1.00003
1.00006
1.0002
1.00037
1.00133
1.00222
1.00873
1.01406
1.05797
1.09528
1.40054
0.999991
0.99999
0.99999
0.99999
0.99999
0.99999
0.99999
0.99999
0.99999
0.999991
0.999991
0.999993
0.999996
1.00001
1.00002
1.00008
1.00016
1.00052
1.00094
1.0034
1.00561
1.0224
1.03645
1.15005
1.26789
0.999991
0.99999
0.99999
0.99999
0.99999
0.99999
0.99999
0.99999
0.99999
0.999991
0.999991
0.999992
0.999996
1
1.00003
1.00006
1.0002
1.00041
1.00129
1.00234
1.00852
1.01397
1.05712
1.09312
1.3945
0.999991
0.99999
0.99999
0.99999
0.99999
0.99999
0.99999
0.99999
0.99999
0.999991
0.999991
0.999992
0.999996
1
1.00003
1.00006
1.0002
1.00041
1.00129
1.00232
1.00842
1.01377
1.05636
1.09174
1.38984
0.999991
0.99999
0.99999
0.99999
0.99999
0.99999
0.99999
0.99999
0.99999
0.999991
0.999991
0.999993
0.999996
1.00001
1.00002
1.00008
1.00018
1.00053
1.00107
1.00332
1.00603
1.02178
1.03618
1.14685
1.25945
0.999991
0.99999
0.99999
0.99999
0.99999
0.99999
0.99999
0.99999
0.99999
0.999991
0.999991
0.999993
0.999996
1.00001
1.00002
1.00009
1.00019
1.00056
1.00114
1.00338
1.00659
1.02146
1.03759
1.14627
1.25679
1
1.00002
1.00005
1.00014
1.0003
1.00083
1.00169
1.00483
1.0095
1.02926
1.05263
1.18905
1.34681
2.27599
4.08905
9.58606
10.4133
10.2867
10.13
10.1243
10.1101
10.0253
9.77879
9.20389
7.75204
1
1.00002
1.00004
1.00012
1.00026
1.00073
1.00149
1.00422
1.00841
1.02517
1.04655
1.16148
1.29482
2.08846
3.59055
8.4695
10.3009
10.1897
9.95887
9.88379
9.80819
9.63267
9.24782
8.47509
6.99774
1
1.00001
1.00004
1.00011
1.00022
1.00062
1.00125
1.00356
1.007
1.02139
1.0383
1.13783
1.24159
1.91938
3.12164
7.24248
10.2106
10.0874
9.80081
9.64383
9.51464
9.26149
8.79057
8.0138
6.8511
1
1.00001
1.00003
1.00009
1.00019
1.00053
1.00107
1.00302
1.00609
1.01762
1.0343
1.1095
1.20441
1.7232
2.6763
5.9223
10.0703
9.96675
9.67069
9.41872
9.23131
8.93889
8.45571
7.74729
6.83234
1
1.00001
1.00002
1.00007
1.00015
1.00043
1.00087
1.00246
1.00497
1.01429
1.02827
1.08611
1.17057
1.55259
2.28877
4.73341
9.67384
9.76032
9.56173
9.22196
8.97887
8.66917
8.21053
7.57865
6.81427
1
1.00001
1.00002
1.00005
1.00014
1.00029
1.00081
1.00165
1.00468
1.0092
1.02811
1.05065
1.17997
1.32859
2.19429
3.84833
8.72797
9.51411
9.37317
9.05759
8.76542
8.44265
8.01585
7.45355
6.78896
1
1.00001
1.00002
1.00004
1.00011
1.00023
1.00065
1.00133
1.00375
1.00739
1.02247
1.04037
1.14404
1.25373
1.95497
3.18954
7.2157
9.24967
9.17098
8.93024
8.59016
8.25344
7.85127
7.34616
6.75797
1
1
1.00001
1.00003
1.00009
1.00019
1.00052
1.00106
1.00298
1.00601
1.01741
1.0338
1.10784
1.20308
1.70669
2.63192
5.69918
9.03377
9.02196
8.84462
8.47052
8.10311