/*--------------------------------*- C++ -*----------------------------------*\
| =========                 |                                                 |
| \\      /  F ield         | OpenFOAM: The Open Source CFD Toolbox           |
|  \\    /   O peration     | Version:  4.1                                   |
|   \\  /    A nd           | Web:      www.OpenFOAM.org                      |
|    \\/     M anipulation  |                                                 |
\*---------------------------------------------------------------------------*/
FoamFile
{
    version     2.0;
    format      ascii;
    class       surfaceScalarField;
    location    "2.94";
    object      phi;
}
// * * * * * * * * * * * * * * * * * * * * * * * * * * * * * * * * * * * * * //

dimensions      [1 0 -1 0 0 0 0];

internalField   nonuniform List<scalar> 
150500
(
0.0168001
1.70604e-10
-3.37513e-12
0.0168001
9.43099e-10
-1.16408e-11
0.0168001
3.52227e-09
-1.34815e-11
0.0168
9.00524e-09
-2.16274e-11
0.0168
2.50406e-08
-2.13973e-11
0.0168
5.70671e-08
-2.91104e-11
0.0167998
1.53212e-07
-2.91692e-11
0.0167995
3.3157e-07
-3.98913e-11
0.0167985
9.62019e-07
-4.17862e-11
0.0167966
1.989e-06
-7.60482e-11
0.0167896
6.56567e-06
-9.57665e-11
0.0167751
1.48375e-05
-2.28785e-10
0.0167095
6.40695e-05
-3.04332e-10
0.0165268
0.000179808
-1.18875e-09
0.0154584
0.0010595
-2.6725e-09
0.0141627
0.00129476
4.87238e-10
0.0129204
0.00124359
-4.83797e-11
0.0116311
0.00128944
-3.66788e-10
0.0102761
0.00135638
-3.67277e-10
0.00882974
0.00144429
-3.43618e-10
0.00728012
0.00154836
-2.89597e-10
0.00561716
0.00166319
-2.73381e-10
0.00384082
0.00176823
-2.73366e-10
0.00196484
0.00187057
-2.68237e-10
0.00196353
-2.64052e-10
0.0168001
3.36049e-10
-3.3681e-12
0.0168001
1.84353e-09
-1.16411e-11
0.0168001
6.89457e-09
-1.34883e-11
0.0168
1.75384e-08
-2.16007e-11
0.0168
4.90185e-08
-2.14375e-11
0.0168
1.11297e-07
-2.90825e-11
0.0167998
3.01591e-07
-2.91915e-11
0.0167995
6.47743e-07
-3.98167e-11
0.0167985
1.91148e-06
-4.18352e-11
0.0167967
3.92246e-06
-7.56164e-11
0.0167896
1.32527e-05
-9.48609e-11
0.0167747
2.99562e-05
-2.24998e-10
0.0167072
0.00013014
-2.94943e-10
0.0165198
0.000364391
-1.15024e-09
0.0154665
0.00210392
-2.60429e-09
0.0141392
0.00262122
4.65214e-10
0.0129116
0.00247243
-6.01608e-11
0.0116414
0.0025598
-3.75314e-10
0.0102959
0.00270326
-3.75283e-10
0.00883633
0.00290177
-3.48477e-10
0.00726674
0.00311677
-2.92948e-10
0.00558742
0.00334251
-2.7706e-10
0.00379588
0.0035519
-2.73162e-10
0.00191444
0.00374685
-2.68365e-10
0.00387647
-2.64087e-10
0.0168001
4.54069e-10
-3.35541e-12
0.0168001
2.50171e-09
-1.16385e-11
0.0168001
9.35779e-09
-1.35057e-11
0.0168
2.37636e-08
-2.15357e-11
0.0168
6.63066e-08
-2.15201e-11
0.0168
1.49238e-07
-2.89891e-11
0.0167999
4.12607e-07
-2.91626e-11
0.0167997
8.30384e-07
-3.93251e-11
0.0167988
2.78491e-06
-4.16506e-11
0.0167979
4.89431e-06
-7.26145e-11
0.0167901
2.06378e-05
-9.03875e-11
0.0167778
4.24966e-05
-2.13891e-10
0.0167115
0.000195074
-2.72424e-10
0.0165361
0.000537072
-1.08043e-09
0.0155789
0.00305243
-2.53222e-09
0.0142257
0.00397364
3.48023e-10
0.0129957
0.00370368
-1.06558e-10
0.0117356
0.00382007
-3.82593e-10
0.0104006
0.00403965
-3.78944e-10
0.00894148
0.00435868
-3.47055e-10
0.00736348
0.00469353
-2.9678e-10
0.00566795
0.00503773
-2.84232e-10
0.00384854
0.00536372
-2.77519e-10
0.00194304
0.00564701
-2.72973e-10
0.005818
-2.66879e-10
0.0168001
5.65074e-10
-3.34516e-12
0.0168001
3.14065e-09
-1.16319e-11
0.0168001
1.17427e-08
-1.35899e-11
0.0168
2.9933e-08
-2.14443e-11
0.0168
8.30364e-08
-2.19751e-11
0.0168
1.86625e-07
-2.93506e-11
0.0167999
5.18513e-07
-3.03784e-11
0.0167997
9.99433e-07
-4.48169e-11
0.0167988
3.67199e-06
-3.84908e-11
0.0167984
5.37484e-06
-1.23042e-10
0.0167903
2.83984e-05
7.65123e-12
0.0167812
5.2008e-05
-3.31919e-10
0.0167245
0.000250361
-3.63586e-11
0.016583
0.000676015
-9.30033e-10
0.015838
0.00378918
-2.13532e-09
0.0144632
0.00534749
1.21627e-10
0.0132101
0.00495787
-3.00028e-10
0.0119448
0.00508528
-4.27553e-10
0.0106138
0.00537203
-3.97403e-10
0.00915592
0.00581424
-3.48746e-10
0.00757395
0.00627409
-3.21273e-10
0.00586643
0.00674569
-3.11948e-10
0.00401298
0.00720877
-2.99275e-10
0.00203041
0.00762379
-2.90534e-10
0.00784689
-2.79992e-10
0.0168001
7.75295e-10
-3.33492e-12
0.0168001
4.2635e-09
-1.15814e-11
0.0168001
1.58614e-08
-1.36067e-11
0.0168
4.05601e-08
-2.13258e-11
0.0168
1.12304e-07
-2.17696e-11
0.0167999
2.56535e-07
-2.87977e-11
0.0167998
6.80497e-07
-2.9255e-11
0.0167993
1.48594e-06
-4.07892e-11
0.0167986
4.32795e-06
-3.67798e-11
0.0167962
7.84654e-06
-1.01422e-10
0.0167927
3.16142e-05
-4.83407e-12
0.016783
6.20532e-05
-2.71663e-10
0.0167549
0.000277201
-5.56775e-11
0.0166749
0.000753687
-7.95193e-10
0.0163362
0.00412041
-1.82496e-09
0.0149399
0.00674272
-1.01068e-10
0.0136121
0.00628645
-3.94624e-10
0.0123143
0.00638245
-4.2818e-10
0.0109813
0.00670624
-3.87648e-10
0.00952205
0.00727141
-3.31428e-10
0.00792611
0.00786787
-3.33628e-10
0.0061809
0.00849097
-3.31377e-10
0.00427096
0.00911061
-3.23013e-10
0.00220056
0.00968835
-3.13834e-10
0.0100459
-2.98964e-10
0.0168001
8.70946e-10
-3.30077e-12
0.0168001
4.80685e-09
-1.15807e-11
0.0168001
1.79082e-08
-1.35528e-11
0.0168001
4.58807e-08
-2.12382e-11
0.0168
1.26761e-07
-2.15023e-11
0.0168
2.89775e-07
-2.82089e-11
0.0167999
7.61798e-07
-2.8042e-11
0.0167997
1.68754e-06
-3.5826e-11
0.0167994
4.58608e-06
-3.73353e-11
0.0167977
9.67696e-06
-6.51981e-11
0.0167975
3.15485e-05
-4.38232e-11
0.0167963
6.3508e-05
-1.96147e-10
0.0167996
0.000272868
-1.26732e-10
0.0168221
0.000729342
-7.00746e-10
0.0171575
0.00377875
-1.66559e-09
0.015727
0.00817196
-3.0102e-10
0.0142155
0.00779884
-4.29688e-10
0.0128557
0.00774143
-3.72086e-10
0.0115039
0.00805856
-3.41905e-10
0.0100542
0.00871846
-3.08259e-10
0.00844486
0.00947472
-3.31301e-10
0.00666641
0.0102698
-3.35986e-10
0.00467301
0.011097
-3.326e-10
0.00243589
0.0119197
-3.29493e-10
0.0124802
-3.19699e-10
0.0168001
9.35526e-10
-3.26811e-12
0.0168001
5.17731e-09
-1.15836e-11
0.0168001
1.9274e-08
-1.35375e-11
0.0168001
4.94698e-08
-2.12112e-11
0.0168
1.36039e-07
-2.1422e-11
0.0168
3.11258e-07
-2.80628e-11
0.0168
8.10781e-07
-2.76349e-11
0.0167999
1.80506e-06
-3.50218e-11
0.0167997
4.74655e-06
-3.65007e-11
0.0167989
1.04654e-05
-5.20176e-11
0.0168008
2.95372e-05
-5.3708e-11
0.016796
6.84609e-05
-1.52633e-10
0.0168337
0.000234399
-1.20494e-10
0.0169351
0.000627096
-5.42766e-10
0.0177778
0.00293283
-1.01197e-09
0.0166453
0.00930045
-8.96779e-10
0.0149404
0.00950326
-5.01061e-10
0.0135382
0.00914365
-3.06261e-10
0.0121941
0.00940358
-2.91593e-10
0.0107461
0.0101657
-2.82347e-10
0.00913004
0.0110903
-3.12182e-10
0.00730969
0.0120886
-3.20235e-10
0.00523801
0.0131617
-3.24776e-10
0.00284191
0.0143102
-3.31778e-10
0.0153202
-3.30428e-10
0.0168001
1.04328e-09
-3.23732e-12
0.0168001
5.77095e-09
-1.15928e-11
0.0168001
2.15637e-08
-1.35407e-11
0.0168
5.53953e-08
-2.12132e-11
0.0168
1.53181e-07
-2.14185e-11
0.0168
3.5114e-07
-2.80479e-11
0.0167999
9.18364e-07
-2.75877e-11
0.0167996
2.0704e-06
-3.48408e-11
0.0167991
5.23884e-06
-3.61674e-11
0.0167969
1.27213e-05
-5.10785e-11
0.0167971
2.91355e-05
-5.06054e-11
0.0167861
7.97419e-05
-1.46716e-10
0.0168009
0.000218918
-9.84104e-11
0.0167969
0.000630856
-4.71119e-10
0.0170954
0.00263141
-9.10468e-10
0.0164855
0.00990613
-1.37337e-09
0.015124
0.0108635
-5.72209e-10
0.0140275
0.0102389
-2.54744e-10
0.0128101
0.0106214
-2.49343e-10
0.0114693
0.0115046
-2.54907e-10
0.00992458
0.0126332
-2.86362e-10
0.00814669
0.0138678
-2.94488e-10
0.00603675
0.0152673
-3.00633e-10
0.00343675
0.0169028
-3.17112e-10
0.018755
-3.27272e-10
0.0168001
1.33961e-09
-3.20947e-12
0.0168001
5.99531e-09
-1.15949e-11
0.0168001
2.42392e-08
-1.35617e-11
0.0168001
5.8885e-08
-2.1227e-11
0.0168
1.70017e-07
-2.15199e-11
0.0168
3.75074e-07
-2.82523e-11
0.0167999
9.8849e-07
-2.83444e-11
0.0167998
2.26334e-06
-3.67902e-11
0.0167997
5.27367e-06
-3.587e-11
0.0167997
1.27666e-05
-9.01784e-11
0.0167972
3.14335e-05
1.34969e-12
0.0168086
6.87052e-05
-2.29292e-10
0.0167969
0.000229953
2.75246e-11
0.0168037
0.000624344
-4.80383e-10
0.0169513
0.00248119
-6.8218e-10
0.0162687
0.0105845
-1.55361e-09
0.0156526
0.0114795
-3.45537e-10
0.0144997
0.0113908
-2.47439e-10
0.0133048
0.0118159
-2.26202e-10
0.0121582
0.0126501
-2.35194e-10
0.0107804
0.014008
-2.59568e-10
0.00916461
0.0154863
-2.65191e-10
0.00721856
0.0172088
-2.70378e-10
0.00451465
0.0196
-2.84779e-10
0.0232672
-2.95228e-10
0.0168001
-3.2361e-12
1.93464e-09
0.0168001
-1.16346e-11
1.35987e-09
0.0168001
-1.3626e-11
2.55062e-08
0.0168001
-2.18731e-11
2.13014e-08
0.0168001
-2.11833e-11
1.67716e-07
0.0168003
-2.91135e-11
1.38238e-07
0.0168003
-2.80771e-11
1.02013e-06
0.0168019
-3.73477e-11
6.81953e-07
0.0168002
-3.60342e-11
6.94837e-06
0.0168107
-5.89989e-11
2.43499e-06
0.0167895
-5.92506e-11
5.25254e-05
0.01685
-1.32998e-10
8.42953e-06
0.0167053
-5.2576e-11
0.000374047
0.0169932
-5.20635e-10
0.000336267
0.0168843
-5.36538e-10
0.00258851
0.0165101
-1.64013e-09
0.0109539
0.0156571
-2.37822e-10
0.0123319
0.0147969
-1.82498e-10
0.0122504
0.0138958
-2.11173e-10
0.0127164
0.0129051
-2.1726e-10
0.0136407
0.0118342
-2.31182e-10
0.0150763
0.0105755
-2.31711e-10
0.016744
0.00881867
-2.33028e-10
0.0189622
0.00621818
-2.34191e-10
0.0221949
-2.31753e-10
0.0294832
0.0168001
1.7411e-10
-4.70182e-16
0.0168001
9.45875e-10
-2.53783e-15
0.0168001
3.52214e-09
-5.34407e-15
0.0168
9.01873e-09
-1.12969e-14
0.0168
2.50319e-08
-1.93911e-14
0.0168
5.70762e-08
-3.57705e-14
0.0167998
1.53211e-07
-7.17918e-14
0.0167995
3.31619e-07
-1.25185e-13
0.0167985
9.62081e-07
-3.61384e-13
0.0167966
1.98934e-06
-5.7906e-13
0.0167896
6.56684e-06
-2.2157e-12
0.016775
1.48409e-05
-4.13168e-12
0.0167095
6.40817e-05
-1.75718e-11
0.0165267
0.000179849
-4.51293e-11
0.0154581
0.00105968
-1.31634e-10
0.0141624
0.00129481
2.86474e-11
0.01292
0.0012436
3.2989e-12
0.0116308
0.00128942
-9.24878e-12
0.0102758
0.00135636
-8.59659e-12
0.00882951
0.00144426
-6.97353e-12
0.00727994
0.00154832
-6.1709e-12
0.00561703
0.00166314
-6.18621e-12
0.00384075
0.00176818
-6.65016e-12
0.00196481
0.00187053
-6.6601e-12
0.00196351
-7.09747e-12
0.0168001
3.42194e-10
-4.68644e-16
0.0168001
1.84949e-09
-2.53133e-15
0.0168001
6.8903e-09
-5.32418e-15
0.0168
1.75629e-08
-1.12512e-14
0.0168
4.89835e-08
-1.92805e-14
0.0168
1.11275e-07
-3.55436e-14
0.0167998
3.01495e-07
-7.12478e-14
0.0167995
6.47561e-07
-1.24239e-13
0.0167985
1.91084e-06
-3.58784e-13
0.0167967
3.92129e-06
-5.7528e-13
0.0167896
1.32529e-05
-2.20832e-12
0.0167747
2.99637e-05
-4.11449e-12
0.0167072
0.000130166
-1.75091e-11
0.0165197
0.000364492
-4.49471e-11
0.0154662
0.0021043
-1.31777e-10
0.0141388
0.00262133
2.88231e-11
0.0129112
0.00247244
3.36832e-12
0.011641
0.00255977
-9.11817e-12
0.0102956
0.0027032
-8.45176e-12
0.00883606
0.00290171
-6.83951e-12
0.00726652
0.00311668
-6.03263e-12
0.00558727
0.0033424
-6.0595e-12
0.0037958
0.0035518
-6.46626e-12
0.0019144
0.00374677
-6.50257e-12
0.00387641
-6.97467e-12
0.0168001
4.5919e-10
-4.65362e-16
0.0168001
2.50986e-09
-2.51658e-15
0.0168001
9.32739e-09
-5.28261e-15
0.0168
2.3799e-08
-1.11549e-14
0.0168
6.61068e-08
-1.90838e-14
0.0168
1.49002e-07
-3.51898e-14
0.0167999
4.11933e-07
-7.04315e-14
0.0167997
8.27516e-07
-1.2412e-13
0.0167988
2.78554e-06
-3.54296e-13
0.0167979
4.87143e-06
-5.79854e-13
0.0167901
2.06782e-05
-2.20669e-12
0.0167779
4.24557e-05
-4.0913e-12
0.0167114
0.000195211
-1.73901e-11
0.0165359
0.000537244
-4.45291e-11
0.0155783
0.00305321
-1.32234e-10
0.014225
0.00397385
2.93576e-11
0.0129952
0.00370356
3.78772e-12
0.0117351
0.00381998
-8.89726e-12
0.0104002
0.00403954
-8.27547e-12
0.0089411
0.00435857
-6.72685e-12
0.00736317
0.00469337
-5.82328e-12
0.00566774
0.00503753
-5.79249e-12
0.00384841
0.00536354
-6.13763e-12
0.00194298
0.00564686
-6.16154e-12
0.00581789
-6.5279e-12
0.0168001
5.70941e-10
-4.42864e-16
0.0168001
3.17052e-09
-2.44489e-15
0.0168001
1.17534e-08
-5.00749e-15
0.0168
3.00053e-08
-1.02837e-14
0.0168
8.31838e-08
-1.72726e-14
0.0168
1.86971e-07
-3.00587e-14
0.0167999
5.1929e-07
-6.00761e-14
0.0167997
1.0016e-06
-7.68956e-14
0.0167988
3.67431e-06
-3.6661e-13
0.0167984
5.38503e-06
-1.84556e-13
0.0167903
2.84003e-05
-2.829e-12
0.0167811
5.20489e-05
-3.04881e-12
0.0167246
0.000250375
-1.67328e-11
0.0165831
0.000676149
-4.38375e-11
0.0158382
0.00378979
-1.34014e-10
0.0144635
0.00534767
2.49199e-11
0.0132102
0.0049579
5.07083e-12
0.0119449
0.00508528
-8.32744e-12
0.0106138
0.005372
-7.97838e-12
0.0091558
0.00581419
-6.67013e-12
0.00757381
0.00627395
-5.49636e-12
0.0058663
0.00674549
-5.34788e-12
0.00401289
0.00720856
-5.62055e-12
0.00203035
0.0076236
-5.61293e-12
0.00784672
-5.81739e-12
0.0168001
7.91722e-10
-4.47057e-16
0.0168001
4.27713e-09
-2.45656e-15
0.0168001
1.5905e-08
-5.07329e-15
0.0168
4.06367e-08
-1.04425e-14
0.0168
1.12506e-07
-1.77908e-14
0.0167999
2.56995e-07
-3.15082e-14
0.0167998
6.815e-07
-6.25294e-14
0.0167993
1.48921e-06
-9.4007e-14
0.0167986
4.33038e-06
-3.53237e-13
0.0167962
7.86759e-06
-2.87755e-13
0.0167927
3.16097e-05
-2.79647e-12
0.016783
6.20967e-05
-3.13635e-12
0.0167549
0.000277195
-1.44586e-11
0.016675
0.000753769
-4.15167e-11
0.0163364
0.0041209
-1.30898e-10
0.0149403
0.00674272
2.29764e-11
0.0136124
0.00628653
4.95522e-12
0.0123146
0.00638249
-7.71954e-12
0.0109815
0.00670627
-7.73549e-12
0.0095222
0.00727143
-6.67285e-12
0.00792616
0.00786781
-5.10883e-12
0.00618089
0.00849083
-4.70343e-12
0.00427093
0.00911043
-5.03748e-12
0.00220053
0.00968816
-5.00022e-12
0.0100457
-4.99444e-12
0.0168001
8.87277e-10
-4.52857e-16
0.0168001
4.81927e-09
-2.47357e-15
0.0168001
1.79301e-08
-5.15604e-15
0.0168
4.59185e-08
-1.06584e-14
0.0168
1.26843e-07
-1.83774e-14
0.0168
2.89945e-07
-3.32791e-14
0.0167999
7.62212e-07
-6.38978e-14
0.0167997
1.68844e-06
-1.1755e-13
0.0167994
4.58776e-06
-3.05545e-13
0.0167977
9.68552e-06
-4.64441e-13
0.0167975
3.1552e-05
-2.06489e-12
0.0167963
6.35338e-05
-3.08991e-12
0.0167996
0.000272897
-1.48585e-11
0.0168221
0.000729455
-3.70045e-11
0.0171571
0.00377951
-1.21369e-10
0.0157269
0.00817173
6.89681e-12
0.0142156
0.0077987
9.38325e-13
0.0128559
0.00774142
-7.72419e-12
0.0115041
0.00805859
-7.93695e-12
0.0100544
0.00871848
-7.32637e-12
0.008445
0.00947471
-5.38263e-12
0.00666649
0.0102697
-4.54749e-12
0.00467304
0.0110969
-4.6201e-12
0.00243589
0.0119195
-4.41818e-12
0.01248
-4.21938e-12
0.0168001
9.50905e-10
-4.41164e-16
0.0168001
5.18547e-09
-2.42115e-15
0.0168001
1.92837e-08
-4.97928e-15
0.0168001
4.94795e-08
-1.02729e-14
0.0168
1.36052e-07
-1.716e-14
0.0168
3.11275e-07
-3.07221e-14
0.0168
8.10805e-07
-5.56406e-14
0.0167999
1.80511e-06
-1.00817e-13
0.0167997
4.7466e-06
-2.36722e-13
0.016799
1.04652e-05
-4.18896e-13
0.0168008
2.95369e-05
-1.4708e-12
0.0167961
6.84664e-05
-2.08236e-12
0.0168337
0.000234419
-1.03186e-11
0.0169352
0.000627167
-2.47563e-11
0.0177783
0.00293315
-6.63755e-11
0.0166454
0.00930061
-4.255e-11
0.0149405
0.0095031
-1.26746e-11
0.0135383
0.0091436
-7.98981e-12
0.0121943
0.00940359
-8.0628e-12
0.0107462
0.0101658
-7.81931e-12
0.0091302
0.0110903
-5.94371e-12
0.0073098
0.0120886
-4.6863e-12
0.00523808
0.0131616
-4.50385e-12
0.00284193
0.0143101
-4.07766e-12
0.01532
-3.5625e-12
0.0168001
1.05591e-09
-4.36983e-16
0.0168001
5.77453e-09
-2.40072e-15
0.0168001
2.15524e-08
-4.91877e-15
0.0168
5.53622e-08
-1.0137e-14
0.0168
1.53053e-07
-1.67692e-14
0.0168
3.50945e-07
-2.98957e-14
0.0167999
9.17774e-07
-5.31754e-14
0.0167996
2.06913e-06
-9.59892e-14
0.0167991
5.23808e-06
-2.17074e-13
0.0167969
1.27016e-05
-4.05795e-13
0.0167972
2.91531e-05
-1.16183e-12
0.0167861
7.97076e-05
-2.29429e-12
0.0168009
0.000218974
-7.6884e-12
0.0167969
0.00063087
-1.94013e-11
0.0170955
0.00263167
-5.72496e-11
0.0164858
0.00990616
-8.10212e-11
0.0151241
0.0108636
-2.79151e-11
0.0140276
0.0102388
-7.38039e-12
0.0128103
0.0106214
-7.48744e-12
0.0114695
0.0115047
-7.92218e-12
0.00992472
0.0126332
-6.92021e-12
0.00814681
0.0138678
-5.46538e-12
0.00603685
0.0152673
-4.78811e-12
0.0034368
0.0169028
-4.10068e-12
0.0187548
-3.13041e-12
0.0168001
1.31312e-09
-4.44934e-16
0.0168001
6.09964e-09
-2.42819e-15
0.0168001
2.43009e-08
-5.04731e-15
0.0168001
5.86418e-08
-1.03901e-14
0.0168
1.70125e-07
-1.7813e-14
0.0168
3.74675e-07
-3.19832e-14
0.0167999
9.88398e-07
-6.07738e-14
0.0167998
2.26295e-06
-1.16702e-13
0.0167997
5.27306e-06
-2.15382e-13
0.0167997
1.27754e-05
-8.19165e-13
0.0167972
3.14185e-05
-5.14551e-13
0.0168086
6.87323e-05
-3.67091e-12
0.0167969
0.00022993
-5.03802e-12
0.0168038
0.000624348
-1.82665e-11
0.0169515
0.00248128
-4.7325e-11
0.0162689
0.0105846
-8.85107e-11
0.0156527
0.0114795
-1.07277e-11
0.0144998
0.0113908
-6.0562e-12
0.0133049
0.0118159
-6.79345e-12
0.0121583
0.0126501
-7.25578e-12
0.0107806
0.014008
-7.49616e-12
0.00916473
0.0154863
-5.92497e-12
0.00721867
0.0172088
-5.23248e-12
0.00451472
0.0196
-4.07422e-12
0.0232671
-2.94157e-12
0.0168001
-4.38399e-16
1.80024e-09
0.0168001
-2.3737e-15
1.72676e-09
0.0168001
-4.84251e-15
2.43236e-08
0.0168001
-1.02099e-14
2.18246e-08
0.0168001
-1.60409e-14
1.66332e-07
0.0168003
-2.91754e-14
1.38904e-07
0.0168003
-4.95166e-14
1.01911e-06
0.0168019
-9.02207e-14
6.83197e-07
0.0168002
-1.88299e-13
6.94722e-06
0.0168107
-3.63556e-13
2.44391e-06
0.0167895
-9.34481e-13
5.25218e-05
0.01685
-2.12779e-12
8.45362e-06
0.0167053
-4.59629e-12
0.000374003
0.0169931
-1.88995e-11
0.000336358
0.0168844
-3.81267e-11
0.00258843
0.0165101
-9.56036e-11
0.010954
0.0156572
-6.65249e-12
0.0123318
0.014797
-4.01334e-12
0.0122504
0.0138959
-7.13269e-12
0.0127164
0.0129052
-7.33963e-12
0.0136407
0.0118343
-7.32031e-12
0.0150763
0.0105756
-6.55857e-12
0.016744
0.00881878
-5.29837e-12
0.0189622
0.00621828
-3.82608e-12
0.0221949
-2.64387e-12
0.0294832
0.0168001
1.74111e-10
1.75746e-16
0.0168001
9.45879e-10
2.00084e-16
0.0168001
3.52215e-09
-1.108e-17
0.0168
9.01876e-09
-2.41032e-17
0.0168
2.5032e-08
-9.65109e-17
0.0168
5.70764e-08
-1.93622e-16
0.0167998
1.53212e-07
-8.22256e-16
0.0167995
3.31619e-07
-1.37109e-15
0.0167985
9.62083e-07
-7.48633e-15
0.0167966
1.98934e-06
-1.05925e-14
0.0167896
6.56685e-06
-6.27835e-14
0.016775
1.4841e-05
-1.16442e-13
0.0167095
6.40818e-05
-6.30391e-13
0.0165267
0.000179849
-1.74896e-12
0.0154581
0.00105968
-5.868e-12
0.0141624
0.00129481
-3.17112e-13
0.01292
0.0012436
-3.12258e-13
0.0116308
0.00128942
-5.75328e-13
0.0102758
0.00135636
-6.09726e-13
0.00882951
0.00144426
-6.52287e-13
0.00727994
0.00154832
-5.21437e-13
0.00561704
0.00166314
-3.72649e-13
0.00384075
0.00176818
-4.10594e-13
0.00196481
0.00187053
-3.89147e-13
0.00196351
-3.88974e-13
0.0168001
3.42196e-10
1.75517e-16
0.0168001
1.8495e-09
2.00758e-16
0.0168001
6.89035e-09
-1.06243e-17
0.0168
1.7563e-08
-2.31291e-17
0.0168
4.89838e-08
-9.34015e-17
0.0168
1.11275e-07
-1.8717e-16
0.0167998
3.01497e-07
-8.01137e-16
0.0167995
6.47565e-07
-1.33356e-15
0.0167985
1.91085e-06
-7.33668e-15
0.0167967
3.92131e-06
-1.03573e-14
0.0167896
1.32529e-05
-6.18515e-14
0.0167747
2.99638e-05
-1.14349e-13
0.0167072
0.000130166
-6.21418e-13
0.0165197
0.000364493
-1.72277e-12
0.0154662
0.00210431
-5.8086e-12
0.0141388
0.00262133
-3.05353e-13
0.0129112
0.00247244
-3.03873e-13
0.011641
0.00255977
-5.76392e-13
0.0102956
0.0027032
-6.09934e-13
0.00883607
0.00290171
-6.49862e-13
0.00726652
0.00311668
-5.19185e-13
0.00558727
0.0033424
-3.82185e-13
0.0037958
0.0035518
-4.07686e-13
0.0019144
0.00374677
-3.90888e-13
0.00387642
-4.00197e-13
0.0168001
4.59201e-10
1.74988e-16
0.0168001
2.5099e-09
2.02429e-16
0.0168001
9.32755e-09
-9.55199e-18
0.0168
2.37995e-08
-2.07447e-17
0.0168
6.6108e-08
-8.66108e-17
0.0168
1.49005e-07
-1.74505e-16
0.0167999
4.1194e-07
-7.59782e-16
0.0167997
8.27543e-07
-1.29223e-15
0.0167988
2.78554e-06
-7.02536e-15
0.0167979
4.87162e-06
-1.01689e-14
0.0167901
2.06779e-05
-6.02777e-14
0.0167779
4.24562e-05
-1.10418e-13
0.0167114
0.000195211
-6.02749e-13
0.0165359
0.000537245
-1.66805e-12
0.0155783
0.00305322
-5.69657e-12
0.014225
0.00397385
-2.89223e-13
0.0129952
0.00370356
-2.88648e-13
0.0117351
0.00381998
-5.79877e-13
0.0104002
0.00403954
-6.11781e-13
0.0089411
0.00435857
-6.51083e-13
0.00736318
0.00469337
-5.28398e-13
0.00566774
0.00503753
-4.08502e-13
0.00384841
0.00536354
-4.26228e-13
0.00194298
0.00564687
-4.0968e-13
0.00581789
-4.01934e-13
0.0168001
5.7094e-10
1.71249e-16
0.0168001
3.17052e-09
2.10112e-16
0.0168001
1.17534e-08
-3.50248e-18
0.0168
3.00053e-08
-5.96226e-18
0.0168
8.31836e-08
-3.84248e-17
0.0168
1.8697e-07
-5.40915e-17
0.0167999
5.19289e-07
-4.73001e-16
0.0167997
1.00159e-06
1.45512e-17
0.0167988
3.67431e-06
-7.17949e-15
0.0167984
5.38501e-06
2.33894e-15
0.0167903
2.84004e-05
-7.87388e-14
0.0167811
5.20489e-05
-7.08546e-14
0.0167246
0.000250377
-6.11062e-13
0.0165831
0.000676152
-1.568e-12
0.0158382
0.00378981
-5.47481e-12
0.0144634
0.00534767
-2.92723e-13
0.0132102
0.00495789
-2.8963e-13
0.0119449
0.00508527
-5.92676e-13
0.0106138
0.005372
-6.19612e-13
0.0091558
0.00581419
-6.57108e-13
0.0075738
0.00627395
-5.52615e-13
0.0058663
0.00674549
-4.43392e-13
0.00401289
0.00720856
-4.58737e-13
0.00203035
0.0076236
-4.42767e-13
0.00784673
-4.1323e-13
0.0168001
7.9172e-10
1.71954e-16
0.0168001
4.27712e-09
2.08751e-16
0.0168001
1.59049e-08
-4.84672e-18
0.0168
4.06366e-08
-9.52404e-18
0.0168
1.12506e-07
-4.92524e-17
0.0167999
2.56994e-07
-8.70377e-17
0.0167998
6.81499e-07
-5.20858e-16
0.0167993
1.4892e-06
-3.72448e-16
0.0167986
4.33039e-06
-6.73252e-15
0.0167962
7.86752e-06
3.60781e-16
0.0167927
3.161e-05
-7.05684e-14
0.016783
6.2097e-05
-6.70516e-14
0.0167549
0.000277197
-5.48406e-13
0.016675
0.000753775
-1.41199e-12
0.0163364
0.00412094
-5.06441e-12
0.0149402
0.00674271
-4.54648e-13
0.0136123
0.00628652
-3.56528e-13
0.0123146
0.00638248
-6.17016e-13
0.0109815
0.00670627
-6.37293e-13
0.0095222
0.00727142
-6.64008e-13
0.00792616
0.00786781
-5.79297e-13
0.00618089
0.00849083
-4.67394e-13
0.00427093
0.00911043
-5.0469e-13
0.00220053
0.00968817
-4.93837e-13
0.0100457
-4.30988e-13
0.0168001
8.87283e-10
1.72757e-16
0.0168001
4.8193e-09
2.06123e-16
0.0168001
1.79302e-08
-8.43984e-18
0.0168
4.59188e-08
-1.84704e-17
0.0168
1.26844e-07
-7.34928e-17
0.0168
2.89946e-07
-1.5602e-16
0.0167999
7.62217e-07
-5.94357e-16
0.0167997
1.68845e-06
-1.19203e-15
0.0167994
4.5878e-06
-5.2855e-15
0.0167977
9.68557e-06
-5.68844e-15
0.0167975
3.15524e-05
-5.21235e-14
0.0167963
6.35346e-05
-6.38326e-14
0.0167996
0.000272901
-4.45683e-13
0.0168221
0.000729465
-1.17587e-12
0.0171571
0.00377958
-4.34408e-12
0.0157268
0.00817172
-8.92073e-13
0.0142156
0.00779868
-6.67684e-13
0.0128559
0.00774141
-6.61392e-13
0.0115041
0.00805858
-6.6538e-13
0.0100544
0.00871848
-6.70908e-13
0.00844499
0.0094747
-6.09074e-13
0.00666648
0.0102697
-5.03901e-13
0.00467304
0.0110969
-5.34099e-13
0.00243589
0.0119195
-5.30596e-13
0.01248
-4.7019e-13
0.0168001
9.50907e-10
1.7058e-16
0.0168001
5.18548e-09
2.10614e-16
0.0168001
1.92838e-08
-7.00496e-18
0.0168001
4.94796e-08
-1.52e-17
0.0168
1.36052e-07
-5.87434e-17
0.0168
3.11275e-07
-1.22975e-16
0.0168
8.10807e-07
-4.59485e-16
0.0167999
1.80512e-06
-9.30932e-16
0.0167997
4.74662e-06
-3.60717e-15
0.016799
1.04652e-05
-6.53917e-15
0.0168008
2.9537e-05
-3.18249e-14
0.0167961
6.84665e-05
-4.88979e-14
0.0168337
0.000234421
-2.76205e-13
0.0169352
0.000627173
-7.49968e-13
0.0177784
0.00293318
-2.29553e-12
0.0166454
0.00930064
-2.24188e-12
0.0149405
0.00950309
-1.01287e-12
0.0135383
0.00914359
-7.2973e-13
0.0121943
0.00940359
-7.12005e-13
0.0107462
0.0101658
-6.90623e-13
0.00913019
0.0110903
-6.30958e-13
0.00730979
0.0120886
-5.08021e-13
0.00523807
0.0131616
-5.34261e-13
0.00284193
0.0143101
-5.52857e-13
0.01532
-4.92719e-13
0.0168001
1.0559e-09
1.69861e-16
0.0168001
5.77452e-09
2.12509e-16
0.0168001
2.15523e-08
-5.89789e-18
0.0168
5.53621e-08
-1.2797e-17
0.0168
1.53053e-07
-4.95785e-17
0.0168
3.50944e-07
-1.03973e-16
0.0167999
9.17771e-07
-3.87921e-16
0.0167996
2.06912e-06
-7.9731e-16
0.0167991
5.23808e-06
-2.97339e-15
0.0167969
1.27014e-05
-5.88274e-15
0.0167972
2.91533e-05
-2.36344e-14
0.0167861
7.97072e-05
-4.71275e-14
0.0168009
0.000218976
-2.01909e-13
0.0167969
0.000630872
-5.49956e-13
0.0170955
0.00263169
-1.83273e-12
0.0164858
0.00990618
-3.1371e-12
0.0151241
0.0108636
-1.51021e-12
0.0140276
0.0102388
-7.83031e-13
0.0128103
0.0106214
-7.33603e-13
0.0114695
0.0115047
-6.76259e-13
0.00992472
0.0126332
-6.31043e-13
0.00814681
0.0138678
-5.11433e-13
0.00603685
0.0152673
-5.08017e-13
0.00343679
0.0169028
-5.5621e-13
0.0187549
-4.92595e-13
0.0168001
1.31312e-09
1.715e-16
0.0168001
6.09968e-09
2.10672e-16
0.0168001
2.4301e-08
-5.28887e-18
0.0168001
5.86419e-08
-1.15315e-17
0.0168
1.70126e-07
-4.80047e-17
0.0168
3.74677e-07
-1.0315e-16
0.0167999
9.88404e-07
-3.92005e-16
0.0167998
2.26296e-06
-9.19613e-16
0.0167997
5.27308e-06
-2.62387e-15
0.0167997
1.27755e-05
-9.34036e-15
0.0167972
3.14185e-05
-1.54088e-14
0.0168086
6.87328e-05
-6.24166e-14
0.0167969
0.000229931
-1.55098e-13
0.0168038
0.00062435
-4.88477e-13
0.0169515
0.00248129
-1.47774e-12
0.0162689
0.0105846
-3.17819e-12
0.0156528
0.0114795
-1.04124e-12
0.0144998
0.0113908
-8.36378e-13
0.0133049
0.0118159
-7.20145e-13
0.0121583
0.0126501
-6.84173e-13
0.0107806
0.014008
-6.22667e-13
0.00916473
0.0154863
-5.033e-13
0.00721867
0.0172088
-4.97847e-13
0.00451472
0.0196
-5.38887e-13
0.0232671
-4.16817e-13
0.0168001
1.70193e-16
1.80022e-09
0.0168001
2.14791e-16
1.72683e-09
0.0168001
-4.77981e-18
2.43234e-08
0.0168001
-1.04642e-17
2.18249e-08
0.0168001
-3.89237e-17
1.66332e-07
0.0168003
-8.21478e-17
1.38905e-07
0.0168003
-2.96567e-16
1.01911e-06
0.0168019
-6.49962e-16
6.83205e-07
0.0168002
-2.18999e-15
6.94724e-06
0.0168107
-4.67835e-15
2.44399e-06
0.0167895
-1.70142e-14
5.25219e-05
0.01685
-4.14874e-14
8.45394e-06
0.0167053
-1.12206e-13
0.000374004
0.0169931
-4.82721e-13
0.000336361
0.0168844
-1.15862e-12
0.00258844
0.0165101
-3.20044e-12
0.010954
0.0156572
-9.71757e-13
0.0123318
0.014797
-8.09587e-13
0.0122504
0.0138959
-7.14102e-13
0.0127164
0.0129052
-6.69272e-13
0.0136407
0.0118343
-5.8832e-13
0.0150763
0.0105756
-5.25005e-13
0.016744
0.00881878
-4.77825e-13
0.0189622
0.00621827
-4.58927e-13
0.0221949
-3.1322e-13
0.0294832
0.0168001
1.74111e-10
-4.10303e-18
0.0168001
9.45879e-10
-1.72769e-17
0.0168001
3.52215e-09
-6.00123e-17
0.0168
9.01876e-09
-1.20241e-16
0.0168
2.5032e-08
-3.37701e-16
0.0168
5.70764e-08
-6.12978e-16
0.0167998
1.53212e-07
-1.85106e-15
0.0167995
3.31619e-07
-3.12137e-15
0.0167985
9.62083e-07
-1.3078e-14
0.0167966
1.98934e-06
-1.95631e-14
0.0167896
6.56685e-06
-9.93207e-14
0.016775
1.4841e-05
-1.84651e-13
0.0167095
6.40818e-05
-9.39276e-13
0.0165267
0.000179849
-2.54061e-12
0.0154581
0.00105968
-8.48347e-12
0.0141624
0.00129481
5.24592e-14
0.01292
0.0012436
-2.73324e-13
0.0116308
0.00128942
-7.41085e-13
0.0102758
0.00135636
-7.54683e-13
0.00882951
0.00144426
-8.29712e-13
0.00727994
0.00154832
-6.81582e-13
0.00561703
0.00166314
-5.23297e-13
0.00384075
0.00176818
-8.39718e-13
0.00196481
0.00187053
-5.05605e-13
0.00196351
-7.62505e-13
0.0168001
3.42196e-10
-4.11319e-18
0.0168001
1.8495e-09
-1.71168e-17
0.0168001
6.89035e-09
-5.95811e-17
0.0168
1.7563e-08
-1.19226e-16
0.0168
4.89838e-08
-3.34786e-16
0.0168
1.11275e-07
-6.07296e-16
0.0167998
3.01497e-07
-1.83374e-15
0.0167995
6.47565e-07
-3.09262e-15
0.0167985
1.91085e-06
-1.29601e-14
0.0167967
3.92131e-06
-1.93931e-14
0.0167896
1.32529e-05
-9.87071e-14
0.0167747
2.99638e-05
-1.83089e-13
0.0167072
0.000130166
-9.3204e-13
0.0165197
0.000364493
-2.51698e-12
0.0154662
0.00210431
-8.42905e-12
0.0141388
0.00262133
7.09842e-14
0.0129112
0.00247244
-2.57362e-13
0.011641
0.00255977
-7.34449e-13
0.0102956
0.0027032
-7.45798e-13
0.00883607
0.00290171
-8.1367e-13
0.00726652
0.00311668
-6.69737e-13
0.00558727
0.0033424
-5.34411e-13
0.0037958
0.0035518
-8.05627e-13
0.0019144
0.00374677
-5.01107e-13
0.00387642
-7.69342e-13
0.0168001
4.59201e-10
-3.98783e-18
0.0168001
2.5099e-09
-1.66882e-17
0.0168001
9.32755e-09
-5.82496e-17
0.0168
2.37995e-08
-1.16466e-16
0.0168
6.6108e-08
-3.28982e-16
0.0168
1.49005e-07
-5.98067e-16
0.0167999
4.1194e-07
-1.8054e-15
0.0167997
8.27543e-07
-3.09769e-15
0.0167988
2.78554e-06
-1.27299e-14
0.0167979
4.87162e-06
-1.95259e-14
0.0167901
2.06779e-05
-9.80173e-14
0.0167779
4.24562e-05
-1.80407e-13
0.0167114
0.000195211
-9.17485e-13
0.0165359
0.000537246
-2.46832e-12
0.0155783
0.00305322
-8.34542e-12
0.014225
0.00397385
1.10523e-13
0.0129952
0.00370356
-2.23306e-13
0.0117351
0.00381998
-7.2918e-13
0.0104002
0.00403954
-7.40371e-13
0.0089411
0.00435857
-8.04845e-13
0.00736318
0.00469337
-6.75629e-13
0.00566774
0.00503753
-5.65036e-13
0.00384841
0.00536354
-7.94712e-13
0.00194298
0.00564687
-4.97258e-13
0.00581789
-7.35599e-13
0.0168001
5.7094e-10
-2.8113e-18
0.0168001
3.17052e-09
-1.21922e-17
0.0168001
1.17534e-08
-4.16435e-17
0.0168
3.00053e-08
-8.03961e-17
0.0168
8.31836e-08
-2.351e-16
0.0168
1.8697e-07
-3.85453e-16
0.0167999
5.19289e-07
-1.37794e-15
0.0167997
1.00159e-06
-1.07875e-15
0.0167988
3.67431e-06
-1.32907e-14
0.0167984
5.38501e-06
-1.10111e-15
0.0167903
2.84004e-05
-1.2798e-13
0.0167811
5.20489e-05
-1.26718e-13
0.0167246
0.000250377
-9.53887e-13
0.0165831
0.000676152
-2.37893e-12
0.0158382
0.00378982
-8.20152e-12
0.0144634
0.00534767
1.14812e-13
0.0132102
0.00495789
-1.83696e-13
0.0119449
0.00508527
-7.30562e-13
0.0106138
0.005372
-7.42373e-13
0.0091558
0.00581419
-8.08226e-13
0.0075738
0.00627395
-6.92026e-13
0.0058663
0.00674549
-5.70124e-13
0.00401289
0.00720856
-8.05356e-13
0.00203035
0.0076236
-4.97162e-13
0.00784673
-6.76856e-13
0.0168001
7.9172e-10
-3.38305e-18
0.0168001
4.27712e-09
-1.43877e-17
0.0168001
1.59049e-08
-4.90491e-17
0.0168
4.06366e-08
-9.60798e-17
0.0168
1.12506e-07
-2.72003e-16
0.0167999
2.56994e-07
-4.72278e-16
0.0167998
6.81499e-07
-1.51466e-15
0.0167993
1.4892e-06
-1.83548e-15
0.0167986
4.3304e-06
-1.28924e-14
0.0167962
7.86752e-06
-5.00477e-15
0.0167927
3.161e-05
-1.1767e-13
0.016783
6.2097e-05
-1.2638e-13
0.0167549
0.000277197
-8.79589e-13
0.016675
0.000753776
-2.20573e-12
0.0163364
0.00412094
-7.78015e-12
0.0149402
0.00674271
-1.3653e-13
0.0136123
0.00628652
-2.32951e-13
0.0123146
0.00638248
-7.45581e-13
0.0109815
0.00670627
-7.62754e-13