/*--------------------------------*- C++ -*----------------------------------*\
| =========                 |                                                 |
| \\      /  F ield         | OpenFOAM: The Open Source CFD Toolbox           |
|  \\    /   O peration     | Version:  4.1                                   |
|   \\  /    A nd           | Web:      www.OpenFOAM.org                      |
|    \\/     M anipulation  |                                                 |
\*---------------------------------------------------------------------------*/
FoamFile
{
    version     2.0;
    format      ascii;
    class       volScalarField;
    location    "0.6";
    object      Ma;
}
// * * * * * * * * * * * * * * * * * * * * * * * * * * * * * * * * * * * * * //

dimensions      [0 0 0 0 0 0 0];

internalField   nonuniform List<scalar> 
52500
(
2.92211
2.90912
2.59741
1.57747
0.197296
0.284701
0.03058
0.191139
0.0400308
0.0233658
0.0580761
0.0518922
0.0685703
0.0824116
0.0907626
0.0950024
0.100009
0.102776
0.103298
0.100821
0.0950467
0.078988
0.0668266
0.0322008
0.0337341
2.92604
2.91422
2.60841
1.59952
0.213099
0.289356
0.0426823
0.197053
0.0616784
0.0445624
0.0705115
0.0649681
0.078859
0.0918578
0.100273
0.104887
0.110233
0.113615
0.114547
0.112702
0.107735
0.0941483
0.0839611
0.0602144
0.060817
2.93446
2.92513
2.63225
1.6496
0.251652
0.293562
0.0657011
0.214006
0.0911029
0.0720945
0.0945187
0.089273
0.0998052
0.110948
0.11905
0.124928
0.131449
0.136075
0.138094
0.137796
0.134778
0.125127
0.118051
0.103299
0.104267
2.94668
2.9411
2.6676
1.72493
0.307167
0.298681
0.0963974
0.237571
0.121657
0.101907
0.120903
0.115955
0.12376
0.133576
0.142124
0.14943
0.157039
0.163295
0.16695
0.16831
0.167291
0.160974
0.156829
0.147615
0.149869
2.9618
2.96103
2.71258
1.82401
0.379104
0.30361
0.136131
0.264699
0.150882
0.134144
0.14736
0.144371
0.149873
0.15862
0.167591
0.176308
0.185065
0.193197
0.198735
0.201948
0.203149
0.200185
0.199146
0.194273
0.19872
2.97888
2.98384
2.76438
1.94309
0.472491
0.308204
0.184736
0.291858
0.178803
0.168366
0.173332
0.174044
0.177114
0.185064
0.194822
0.204723
0.214574
0.2248
0.232442
0.237911
0.241918
0.242635
0.245064
0.244724
0.252125
2.99701
3.00866
2.81995
2.07445
0.599866
0.312968
0.240764
0.315306
0.206223
0.203666
0.199051
0.20461
0.205378
0.212779
0.223318
0.233867
0.244983
0.257398
0.267582
0.275765
0.283323
0.288708
0.295622
0.30115
0.313245
3.01526
3.035
2.87702
2.21097
0.768258
0.318688
0.301067
0.3296
0.235243
0.239674
0.224861
0.235707
0.234578
0.241636
0.252623
0.263418
0.276052
0.290442
0.30381
0.315182
0.327034
0.338633
0.352255
0.367035
0.389799
3.03268
3.06313
2.93402
2.35017
0.980263
0.32261
0.360946
0.331848
0.267452
0.274775
0.250375
0.266627
0.264741
0.271645
0.282684
0.293315
0.307443
0.323524
0.340644
0.355778
0.373024
0.392425
0.416855
0.44537
0.494304
3.0487
3.0936
2.988
2.48951
1.22872
0.325332
0.414026
0.319178
0.302889
0.306451
0.279538
0.297183
0.29614
0.302723
0.313121
0.323457
0.338867
0.356304
0.377748
0.39726
0.420408
0.449003
0.489661
0.547341
0.664826
2.92202
2.90901
2.5972
1.57708
0.196962
0.284739
0.0294592
0.190771
0.0394024
0.0218804
0.0576303
0.0514157
0.0682415
0.0821066
0.0904394
0.0946724
0.0996982
0.102482
0.103015
0.100539
0.0947622
0.078657
0.0664345
0.0313686
0.0329743
2.92597
2.91414
2.60827
1.59936
0.212928
0.288871
0.0419785
0.19708
0.0607639
0.043581
0.0704684
0.0647917
0.0787192
0.0916244
0.0999953
0.104605
0.109973
0.113361
0.114294
0.112449
0.107479
0.0938632
0.0836382
0.0597571
0.060387
2.93439
2.92504
2.63208
1.64932
0.251327
0.293405
0.0651151
0.213814
0.0906312
0.0716736
0.0942389
0.0889924
0.0995628
0.110732
0.118804
0.124683
0.131229
0.135854
0.13788
0.137586
0.134569
0.124904
0.117809
0.103013
0.104004
2.94659
2.94099
2.6674
1.72454
0.306844
0.298596
0.0960137
0.237341
0.121341
0.10165
0.120604
0.11572
0.123528
0.133341
0.14185
0.149189
0.156832
0.163093
0.166767
0.168134
0.167117
0.160793
0.156636
0.147397
0.14967
2.96171
2.96092
2.71237
1.82361
0.378783
0.303503
0.135832
0.264477
0.150646
0.133949
0.147071
0.144085
0.149551
0.158274
0.167251
0.176038
0.18485
0.193009
0.19857
0.201792
0.202997
0.200033
0.198985
0.194093
0.198551
2.97879
2.98374
2.76418
1.94269
0.472118
0.30808
0.18448
0.291671
0.178666
0.168229
0.173134
0.17376
0.176772
0.184691
0.194471
0.204449
0.214357
0.224617
0.232283
0.237765
0.241783
0.242503
0.244926
0.244574
0.251979
2.99694
3.00857
2.81976
2.07404
0.599421
0.312866
0.240532
0.315176
0.206151
0.203575
0.199001
0.204385
0.205099
0.212463
0.223015
0.233619
0.244768
0.257221
0.267424
0.275623
0.283197
0.288584
0.295498
0.301022
0.313121
3.0152
3.03491
2.87684
2.21057
0.767729
0.318612
0.300861
0.329554
0.235214
0.239629
0.224831
0.235551
0.234379
0.241396
0.25239
0.263199
0.275846
0.290266
0.303656
0.315048
0.326912
0.338516
0.352142
0.366922
0.389693
3.03263
3.06304
2.93387
2.3498
0.979661
0.32257
0.360781
0.331887
0.267466
0.274784
0.250365
0.266532
0.264607
0.271461
0.282485
0.293109
0.307251
0.32335
0.340497
0.355651
0.372909
0.392318
0.416753
0.445267
0.49421
3.04866
3.09353
2.98787
2.48917
1.22811
0.325315
0.413901
0.319275
0.302911
0.306484
0.279578
0.297148
0.296069
0.3026
0.312965
0.32328
0.338696
0.356142
0.377611
0.39714
0.420299
0.448909
0.489574
0.547255
0.664748
2.92206
2.90905
2.59729
1.57726
0.197045
0.284613
0.0294569
0.190859
0.0392794
0.0219594
0.0574003
0.0512294
0.0680507
0.0819619
0.0903576
0.0946356
0.0996823
0.102477
0.103008
0.10052
0.0947299
0.0786144
0.0663899
0.0313511
0.0329696
2.92599
2.91417
2.60831
1.59937
0.212899
0.289145
0.041923
0.196909
0.0610947
0.0437618
0.0701106
0.0645352
0.0784864
0.0915217
0.0999472
0.104573
0.109946
0.113351
0.114286
0.112432
0.107452
0.0938288
0.0836054
0.059752
0.0603877
2.93442
2.92508
2.63216
1.64944
0.251437
0.293402
0.0651757
0.213871
0.0907521
0.0716099
0.0942482
0.0889749
0.0995265
0.110674
0.118777
0.124667
0.131214
0.135854
0.137876
0.137574
0.134549
0.124881
0.11779
0.103016
0.10401
2.94664
2.94104
2.6675
1.72474
0.306962
0.298554
0.0960243
0.237462
0.121418
0.101585
0.120722
0.115751
0.12356
0.133386
0.141926
0.149228
0.156843
0.163105
0.16677
0.168129
0.167106
0.160779
0.156625
0.147404
0.149679
2.96175
2.96097
2.71248
1.82381
0.378907
0.303479
0.135837
0.264614
0.150686
0.133914
0.147203
0.144213
0.149706
0.158447
0.167395
0.176118
0.184886
0.193037
0.198586
0.201797
0.202993
0.200025
0.19898
0.194103
0.198564
2.97883
2.98379
2.76428
1.94289
0.472275
0.308065
0.18449
0.291783
0.178641
0.168208
0.173225
0.173924
0.176945
0.184878
0.194629
0.204547
0.214417
0.224663
0.232313
0.237779
0.241784
0.242498
0.244926
0.244585
0.251995
2.99697
3.00861
2.81985
2.07423
0.599616
0.312836
0.24055
0.315239
0.206073
0.203529
0.199044
0.204503
0.205231
0.212619
0.223149
0.23371
0.24484
0.257276
0.267462
0.275644
0.283204
0.288586
0.295502
0.301036
0.313139
3.01522
3.03495
2.87692
2.21075
0.767959
0.318567
0.300878
0.329555
0.235101
0.239551
0.224826
0.235618
0.234464
0.241508
0.252481
0.263274
0.275918
0.290327
0.303698
0.315073
0.326925
0.338522
0.352149
0.366938
0.389713
3.03265
3.06307
2.93393
2.34995
0.979914
0.322509
0.360784
0.331831
0.267338
0.274687
0.250332
0.266558
0.264652
0.271535
0.282554
0.293182
0.307315
0.323409
0.340538
0.355677
0.372924
0.392326
0.41676
0.445284
0.494232
3.04867
3.09355
2.98791
2.4893
1.22835
0.325248
0.413887
0.319179
0.302802
0.306398
0.279524
0.297137
0.296077
0.302629
0.312998
0.323325
0.338743
0.356194
0.37765
0.397164
0.420312
0.448916
0.489579
0.547269
0.664767
2.92206
2.90905
2.59727
1.57722
0.197023
0.284631
0.0294539
0.19083
0.0393076
0.0219594
0.0574071
0.0512395
0.0680527
0.0819552
0.0903423
0.094614
0.0996585
0.102454
0.102984
0.100492
0.094701
0.0785833
0.0663583
0.0313381
0.0329638
2.92599
2.91416
2.6083
1.59934
0.212887
0.289136
0.041926
0.196902
0.0610797
0.0437391
0.0701289
0.064544
0.0784887
0.0915133
0.0999328
0.104553
0.109928
0.113332
0.114264
0.112407
0.107425
0.0938011
0.0835781
0.0597423
0.0603814
2.93442
2.92507
2.63214
1.64942
0.251419
0.293407
0.0651749
0.213864
0.0907435
0.0716027
0.0942714
0.0889987
0.0995484
0.110699
0.118778
0.124655
0.131201
0.135836
0.137857
0.137552
0.134526
0.124858
0.117767
0.103006
0.104002
2.94663
2.94104
2.66749
1.72472
0.306948
0.29855
0.0960227
0.237452
0.121413
0.101599
0.120732
0.115757
0.123551
0.133355
0.141882
0.149199
0.156826
0.163088
0.166754
0.16811
0.167084
0.160757
0.156605
0.147394
0.14967
2.96175
2.96097
2.71246
1.82379
0.378891
0.303487
0.135843
0.264587
0.150692
0.133956
0.147182
0.144165
0.149634
0.158357
0.167326
0.176076
0.184865
0.193019
0.198569
0.201778
0.202973
0.200005
0.198962
0.194092
0.198555
2.97883
2.98378
2.76426
1.94287
0.472259
0.308077
0.184505
0.291755
0.178661
0.168258
0.173202
0.173867
0.176876
0.184804
0.194568
0.204508
0.214394
0.224642
0.232294
0.23776
0.241766
0.242482
0.24491
0.244576
0.251986
2.99697
3.00861
2.81984
2.07422
0.599607
0.312853
0.240566
0.315226
0.20611
0.20359
0.199038
0.204481
0.205203
0.212581
0.223117
0.233689
0.24482
0.257256
0.267443
0.275625
0.283187
0.288568
0.295487
0.301029
0.313132
3.01522
3.03495
2.87692
2.21075
0.767965
0.318588
0.300893
0.329561
0.235155
0.239619
0.224837
0.23562
0.234462
0.241499
0.252486
0.263271
0.275904
0.290305
0.30368
0.315055
0.326906
0.338504
0.352135
0.366934
0.389709
3.03265
3.06308
2.93393
2.34997
0.979939
0.322532
0.360799
0.331851
0.267401
0.274742
0.250344
0.266572
0.264663
0.271541
0.282565
0.293175
0.307305
0.323389
0.340522
0.35566
0.372905
0.392311
0.416748
0.44528
0.494232
3.04867
3.09355
2.98792
2.48932
1.2284
0.325271
0.413903
0.319204
0.302855
0.306425
0.279539
0.297159
0.296098
0.302654
0.313022
0.323329
0.338739
0.356177
0.377635
0.397149
0.420296
0.448903
0.489569
0.547267
0.66477
2.92208
2.90908
2.59735
1.5774
0.197139
0.284602
0.0293965
0.19084
0.0393055
0.0219655
0.0574001
0.051233
0.0680528
0.0819604
0.0903499
0.0946197
0.0996613
0.102455
0.102983
0.100492
0.0947006
0.0785829
0.06636
0.0313411
0.0329581
2.92601
2.91419
2.60837
1.59951
0.212994
0.289111
0.0419042
0.196906
0.061088
0.0437551
0.070114
0.0645293
0.0784791
0.09151
0.0999339
0.104555
0.10993
0.113334
0.114266
0.112409
0.107428
0.0938057
0.0835863
0.0597539
0.0603818
2.93444
2.9251
2.63221
1.64958
0.251534
0.293389
0.0651849
0.213872
0.0907514
0.0716186
0.0942634
0.0889861
0.0995366
0.11069
0.118773
0.124652
0.131201
0.135837
0.137858
0.137554
0.134529
0.124864
0.117778
0.103022
0.104003
2.94665
2.94106
2.66755
1.72487
0.30706
0.298521
0.0960523
0.237463
0.121423
0.101612
0.120717
0.115744
0.123538
0.133342
0.141872
0.149194
0.156825
0.163088
0.166754
0.168111
0.167087
0.160763
0.156616
0.147413
0.149675
2.96177
2.96099
2.71253
1.82394
0.379003
0.303457
0.135884
0.264599
0.150707
0.133967
0.147196
0.144164
0.149626
0.158346
0.167318
0.176071
0.184864
0.193018
0.198568
0.201778
0.202975
0.20001
0.198972
0.194111
0.198566
2.97884
2.9838
2.76432
1.94301
0.472387
0.308057
0.18455
0.291773
0.178675
0.168263
0.173196
0.173843
0.176868
0.184794
0.194561
0.204503
0.214392
0.224641
0.232293
0.23776
0.241768
0.242485
0.244918
0.244594
0.252001
2.99699
3.00863
2.81989
2.07435
0.599756
0.312833
0.240609
0.315249
0.206137
0.203617
0.198952
0.204466
0.205198
0.212572
0.223112
0.233688
0.244822
0.257258
0.267444
0.275627
0.28319
0.288575
0.295496
0.301045
0.313145
3.01524
3.03497
2.87697
2.21087
0.768137
0.318568
0.30093
0.329577
0.235197
0.239668
0.224797
0.23562
0.234463
0.241493
0.252484
0.263275
0.275909
0.290309
0.303684
0.315059
0.326911
0.338512
0.352142
0.366948
0.389722
3.03266
3.0631
2.93397
2.35008
0.980127
0.322507
0.360827
0.331851
0.267439
0.274777
0.250334
0.266576
0.264664
0.271536
0.282565
0.293179
0.307313
0.323396
0.340529
0.355667
0.372912
0.392315
0.416754
0.445292
0.494246
3.04868
3.09357
2.98795
2.48942
1.22858
0.325243
0.413921
0.319187
0.302881
0.306432
0.279525
0.297161
0.296093
0.302647
0.313024
0.32334
0.338752
0.356189
0.377645
0.397158
0.420307
0.448907
0.489571
0.547272
0.664784
2.92207
2.90906
2.59732
1.57733
0.197098
0.284616
0.0294123
0.190822
0.0393191
0.0219645
0.0573915
0.051231
0.0680502
0.0819577
0.0903456
0.0946153
0.0996574
0.102451
0.102979
0.100487
0.0946951
0.0785769
0.0663536
0.0313379
0.0329653
2.926
2.91418
2.60834
1.59945
0.212958
0.289116
0.0419134
0.196899
0.0610864
0.0437469
0.0701181
0.0645352
0.0784838
0.0915131
0.0999343
0.104554
0.109926
0.113329
0.114261
0.112402
0.107421
0.093797
0.0835765
0.0597454
0.0603859
2.93443
2.92509
2.63219
1.64952
0.251493
0.293395
0.0651828
0.213865
0.0907523
0.0716139
0.0942682
0.0889907
0.0995402
0.110694
0.118775
0.124653
0.131199
0.135833
0.137854
0.137549
0.134523
0.124856
0.117768
0.103011
0.104008
2.94664
2.94105
2.66753
1.72481
0.307019
0.298533
0.0960451
0.237457
0.121425
0.10161
0.12072
0.115747
0.123541
0.133346
0.141876
0.149196
0.156824
0.163086
0.166751
0.168108
0.167083
0.160758
0.156608
0.147401
0.149678
2.96176
2.96098
2.7125
1.82388
0.378962
0.30347
0.135874
0.264593
0.150709
0.133966
0.147199
0.144166
0.149628
0.158349
0.167321
0.176073
0.184863
0.193017
0.198568
0.201777
0.202974
0.200008
0.198967
0.1941
0.198563
2.97884
2.9838
2.7643
1.94295
0.47234
0.308068
0.184538
0.291769
0.178678
0.168261
0.173199
0.173844
0.176869
0.184795
0.194562
0.204505
0.214393
0.224642
0.232294
0.237761
0.241768
0.242485
0.244916
0.244584
0.251995
2.99698
3.00862
2.81988
2.0743
0.599703
0.312845
0.240597
0.315247
0.20614
0.203616
0.198955
0.204467
0.205199
0.212573
0.223113
0.233688
0.244821
0.257258
0.267445
0.275627
0.28319
0.288574
0.295494
0.301038
0.313141
3.01523
3.03496
2.87695
2.21083
0.768078
0.318579
0.300919
0.329579
0.235199
0.239668
0.2248
0.23562
0.234465
0.241495
0.252485
0.263273
0.275907
0.290308
0.303684
0.315059
0.326911
0.338512
0.352144
0.366944
0.38972
3.03266
3.06309
2.93396
2.35004
0.980063
0.322518
0.360819
0.331857
0.267441
0.274778
0.250338
0.266577
0.264666
0.271537
0.282566
0.293178
0.307311
0.323394
0.340528
0.355666
0.372913
0.39232
0.416758
0.445292
0.494244
3.04868
3.09357
2.98794
2.48938
1.22852
0.325252
0.413917
0.319197
0.302883
0.306434
0.279529
0.297163
0.296095
0.302648
0.313024
0.323337
0.338749
0.356186
0.377643
0.397157
0.420305
0.448912
0.489581
0.54728
0.664782
2.92205
2.90905
2.59727
1.57722
0.197023
0.28463
0.0294541
0.19083
0.0393073
0.0219592
0.0574075
0.0512398
0.068053
0.0819554
0.0903425
0.0946142
0.0996587
0.102454
0.102984
0.100492
0.094701
0.0785833
0.0663582
0.0313381
0.0329637
2.92599
2.91416
2.6083
1.59934
0.212886
0.289136
0.041926
0.196902
0.0610797
0.0437392
0.070129
0.0645441
0.0784889
0.0915134
0.0999328
0.104554
0.109928
0.113332
0.114264
0.112407
0.107425
0.0938011
0.083578
0.0597422
0.0603814
2.93442
2.92507
2.63214
1.64942
0.251418
0.293407
0.0651749
0.213864
0.0907434
0.0716028
0.0942714
0.0889988
0.0995484
0.110699
0.118778
0.124655
0.131201
0.135836
0.137857
0.137552
0.134525
0.124857
0.117767
0.103006
0.104002
2.94663
2.94104
2.66749
1.72471
0.306948
0.29855
0.0960226
0.237451
0.121413
0.101599
0.120732
0.115757
0.123551
0.133355
0.141882
0.149199
0.156826
0.163088
0.166754
0.16811
0.167084
0.160757
0.156605
0.147394
0.14967
2.96175
2.96097
2.71246
1.82379
0.37889
0.303487
0.135843
0.264587
0.150692
0.133956
0.147182
0.144165
0.149634
0.158357
0.167326
0.176076
0.184865
0.193019
0.198569
0.201778
0.202973
0.200005
0.198962
0.194092
0.198555
2.97883
2.98378
2.76426
1.94287
0.472259
0.308077
0.184505
0.291755
0.178661
0.168258
0.173202
0.173867
0.176876
0.184804
0.194568
0.204508
0.214394
0.224642
0.232294
0.23776
0.241766
0.242482
0.24491
0.244576
0.251986
2.99697
3.00861
2.81984
2.07422
0.599606
0.312853
0.240566
0.315226
0.20611
0.20359
0.199038
0.204481
0.205203
0.212581
0.223117
0.233689
0.24482
0.257256
0.267443
0.275625
0.283186
0.288568
0.295487
0.301029
0.313132
3.01522
3.03495
2.87692
2.21075
0.767964
0.318589
0.300893
0.329561
0.235156
0.239619
0.224837
0.23562
0.234462
0.241499
0.252486
0.263271
0.275904
0.290305
0.30368
0.315055
0.326906
0.338504
0.352134
0.366934
0.389709
3.03265
3.06308
2.93393
2.34997
0.979938
0.322533
0.360799
0.331852
0.267401
0.274742
0.250344
0.266572
0.264663
0.271541
0.282565
0.293175
0.307305
0.323389
0.340522
0.35566
0.372905
0.392311
0.416748
0.44528
0.494232
3.04867
3.09355
2.98792
2.48932
1.22839
0.325271
0.413903
0.319204
0.302855
0.306425
0.279539
0.297159
0.296098
0.302654
0.313022
0.323329
0.338739
0.356177
0.377635
0.397149
0.420296
0.448903
0.489569
0.547267
0.66477
2.92206
2.90905
2.59729
1.57726
0.197045
0.284613
0.0294569
0.190859
0.0392794
0.0219594
0.0574003
0.0512294
0.0680507
0.0819619
0.0903577
0.0946356
0.0996823
0.102477
0.103008
0.10052
0.09473
0.0786144
0.0663899
0.0313511
0.0329696
2.92599
2.91417
2.60831
1.59937
0.212899
0.289145
0.041923
0.196909
0.0610947
0.0437618
0.0701106
0.0645352
0.0784864
0.0915217
0.0999473
0.104573
0.109946
0.113351
0.114286
0.112432
0.107452
0.0938288
0.0836054
0.059752
0.0603877
2.93442
2.92508
2.63216
1.64944
0.251437
0.293402
0.0651757
0.213871
0.0907521
0.0716099
0.0942482
0.0889749
0.0995265
0.110674
0.118777
0.124667
0.131214
0.135854
0.137876
0.137574
0.134549
0.124881
0.11779
0.103016
0.10401
2.94664
2.94104
2.6675
1.72474
0.306962
0.298554
0.0960243
0.237462
0.121418
0.101585
0.120722
0.115751
0.12356
0.133386
0.141926
0.149228
0.156843
0.163105
0.16677
0.168129
0.167106
0.160779
0.156625
0.147404
0.149679
2.96175
2.96097
2.71248
1.82381
0.378907
0.303479
0.135837
0.264614
0.150686
0.133914
0.147203
0.144213
0.149706
0.158447
0.167395
0.176118
0.184886
0.193037
0.198586
0.201797
0.202993
0.200025
0.19898
0.194103
0.198564
2.97883
2.98379
2.76428
1.94289
0.472275
0.308065
0.18449
0.291783
0.178641
0.168208
0.173225
0.173924
0.176945
0.184878
0.194629
0.204547
0.214417
0.224663
0.232313
0.237779
0.241784
0.242498
0.244926
0.244585
0.251995
2.99697
3.00861
2.81985
2.07423
0.599616
0.312836
0.24055
0.315239
0.206073
0.203529
0.199044
0.204503
0.205231
0.212619
0.223149
0.23371
0.24484
0.257276
0.267462
0.275644
0.283204
0.288586
0.295502
0.301036
0.313139
3.01522
3.03495
2.87692
2.21075
0.767959
0.318567
0.300878
0.329555
0.235101
0.239551
0.224826
0.235618
0.234464
0.241508
0.252481
0.263274
0.275918
0.290327
0.303698
0.315073
0.326925
0.338522
0.352149
0.366938
0.389713
3.03265
3.06307
2.93393
2.34995
0.979914
0.322509
0.360784
0.331831
0.267338
0.274687
0.250332
0.266558
0.264652
0.271535
0.282554
0.293182
0.307315
0.323409
0.340538
0.355677
0.372924
0.392326
0.41676
0.445284
0.494232
3.04867
3.09355
2.98791
2.4893
1.22835
0.325248
0.413887
0.319179
0.302802
0.306398
0.279524
0.297137
0.296077
0.302629
0.312998
0.323325
0.338743
0.356194
0.37765
0.397164
0.420312
0.448916
0.489579
0.547269
0.664767
2.92202
2.90901
2.5972
1.57708
0.196963
0.284739
0.0294588
0.190771
0.039402
0.0218806
0.0576305
0.0514158
0.0682416
0.0821067
0.0904396
0.0946726
0.0996984
0.102482
0.103015
0.10054
0.0947627
0.0786576
0.066435
0.0313688
0.0329744
2.92597
2.91414
2.60827
1.59936
0.212928
0.288871
0.0419783
0.197081
0.0607637
0.0435812
0.0704686
0.0647919
0.0787193
0.0916246
0.0999955
0.104605
0.109973
0.113361
0.114295
0.112449
0.10748
0.0938636
0.0836386
0.0597572
0.060387
2.93439
2.92504
2.63208
1.64932
0.251328
0.293405
0.0651152
0.213814
0.0906313
0.0716738
0.094239
0.0889924
0.0995629
0.110732
0.118804
0.124684
0.131229
0.135854
0.13788
0.137586
0.134569
0.124905
0.117809
0.103013
0.104004
2.94659
2.94099
2.6674
1.72454
0.306845
0.298596
0.0960138
0.237342
0.121341
0.10165
0.120604
0.11572
0.123528
0.133342
0.14185
0.149189
0.156833
0.163094
0.166767
0.168134
0.167117
0.160793
0.156636
0.147397
0.149669
2.96171
2.96092
2.71237
1.82361
0.378784
0.303503
0.135832
0.264478
0.150646
0.133949
0.147071
0.144085
0.149551
0.158274
0.167251
0.176039
0.18485
0.193009
0.19857
0.201792
0.202997
0.200033
0.198985
0.194093
0.198551
2.97879
2.98374
2.76418
1.94269
0.472118
0.30808
0.18448
0.291672
0.178666
0.16823
0.173134
0.173761
0.176773
0.184691
0.194471
0.204449
0.214357
0.224618
0.232284
0.237766
0.241783
0.242503
0.244926
0.244574
0.251979
2.99694
3.00857
2.81976
2.07404
0.599422
0.312866
0.240532
0.315176
0.206151
0.203575
0.199001
0.204385
0.2051
0.212464
0.223015
0.23362
0.244768
0.257222
0.267425
0.275624
0.283197
0.288584
0.295498
0.301022
0.313121
3.0152
3.03491
2.87684
2.21057
0.76773
0.318612
0.300861
0.329554
0.235214
0.239629
0.224831
0.235551
0.234379
0.241396
0.25239
0.263199
0.275847
0.290266
0.303657
0.315048
0.326912
0.338516
0.352142
0.366922
0.389693
3.03263
3.06304
2.93387
2.3498
0.979662
0.32257
0.360781
0.331887
0.267466
0.274784
0.250365
0.266532
0.264607
0.271462
0.282485
0.293109
0.307251
0.323351
0.340497
0.355651
0.372909
0.392318
0.416753
0.445267
0.49421
3.04866
3.09353
2.98787
2.48917
1.22811
0.325315
0.413901
0.319275
0.302911
0.306484
0.279578
0.297148
0.29607
0.3026
0.312965
0.32328
0.338696
0.356142
0.377611
0.39714
0.420299
0.448909
0.489573
0.547255
0.664747
2.92211
2.90911
2.59739
1.57739
0.197247
0.284802
0.0304907
0.191036
0.0402667
0.0234433
0.0578615
0.0517637
0.0684834
0.0823577
0.0907308
0.0949854
0.0999937
0.102761
0.103295
0.100821
0.0950536
0.0789925
0.0668363
0.0321829
0.0337499
2.92604
2.91423
2.60841
1.5995
0.213087
0.289351
0.0426925
0.19712
0.0616663
0.0444099
0.0706309
0.0650948
0.0789935
0.0919613
0.100346
0.104936
0.110254
0.113622
0.114558
0.112716
0.107755
0.0941674
0.0839811
0.0602012
0.0608231
2.93448
2.92515
2.63227
1.64964
0.251643
0.293503
0.0656771
0.21416
0.0910122
0.0719265
0.0948075
0.089509
0.100011
0.111101
0.119153
0.124992
0.13148
0.136092
0.138113
0.137816
0.134802
0.125146
0.118064
0.103279
0.104262
2.94669
2.9411
2.66761
1.72492
0.30713
0.29865
0.0963469
0.237661
0.12158
0.1019
0.121054
0.116039
0.12382
0.133601
0.142145
0.149456
0.157062
0.163315
0.166974
0.168331
0.167314
0.160989
0.156836
0.147593
0.149855
2.96179
2.96102
2.71256
1.82396
0.379051
0.303619
0.13611
0.264685
0.150791
0.134215
0.147361
0.144312
0.149791
0.158527
0.167527
0.17628
0.185075
0.193214
0.198752
0.201964
0.203163
0.200194
0.199146
0.194251
0.1987
2.97887
2.98383
2.76435
1.94302
0.47242
0.308215
0.184733
0.291802
0.178721
0.168463
0.173298
0.173949
0.177024
0.184977
0.194765
0.204708
0.214586
0.224805
0.232447
0.237917
0.241922
0.242636
0.245059
0.244704
0.252108
2.99701
3.00865
2.81992
2.07438
0.599786
0.312975
0.240753
0.315261
0.206187
0.203784
0.199032
0.204579
0.205366
0.212768
0.223324
0.233874
0.244984
0.257397
0.267576
0.275759
0.283319
0.288701
0.295611
0.301128
0.313228
3.01525
3.03499
2.87699
2.21091
0.768172
0.318694
0.301043
0.329592
0.235269
0.239789
0.224863
0.235722
0.234604
0.241657
0.252661
0.263435
0.276054
0.290429
0.303795
0.315169
0.327021
0.338619
0.352238
0.367008
0.389776
3.03267
3.06312
2.934
2.35011
0.980167
0.322614
0.36092
0.331873
0.267518
0.274844
0.250379
0.26666
0.264781
0.271676
0.28272
0.293325
0.307439
0.323492
0.340622
0.355758
0.373005
0.392405
0.416833
0.44534
0.49427
3.04869
3.09359
2.98797
2.48945
1.22862
0.325333
0.414004
0.319214
0.302947
0.306461
0.279549
0.29724
0.296185
0.30276
0.313139
0.323446
0.338851
0.356268
0.377721
0.397236
0.420384
0.448978
0.489634
0.547306
0.664785
3.06381
3.12285
3.0381
2.62644
1.50034
0.341361
0.454851
0.300009
0.342043
0.336043
0.314638
0.326742
0.328485
0.334636
0.343808
0.353614
0.369904
0.388631
0.414068
0.437739
0.468244
0.507161
0.568193
0.661752
0.856303
3.07771
3.15005
3.08319
2.75327
1.7758
0.406606
0.480246
0.299016
0.38347
0.363067
0.35291
0.355003
0.361764
0.366942
0.374211
0.384272
0.400015
0.420427
0.448453
0.477878
0.514949
0.562936
0.638118
0.748553
0.946515
3.09024
3.17465
3.12253
2.86602
2.04318
0.563483
0.496564
0.339752
0.420414
0.388337
0.389451
0.383942
0.395849
0.399881
0.405192
0.415167
0.428757
0.450844
0.48061
0.516027
0.556686
0.609675
0.690394
0.797671
0.97224
3.1013
3.19655
3.1563
2.96022
2.28387
0.843612
0.505157
0.414493
0.444317
0.41457
0.422643
0.415518
0.430258
0.432781
0.43637
0.446377
0.456395
0.479252
0.509298
0.549444
0.59392
0.648749
0.726657
0.827156
0.969992
3.11084
3.21565
3.18489
3.03681
2.50261
1.21839
0.495345
0.493589
0.449587
0.443726
0.453684
0.450777
0.463448
0.464706
0.467572
0.476301
0.484435
0.505511
0.535446
0.576789
0.625408
0.680414
0.756401
0.848924
0.963399
3.11896
3.23193
3.20839
3.09691
2.69223
1.60924
0.474971
0.550612
0.441268
0.475685
0.483974
0.48679
0.492308
0.497743
0.500437
0.505385
0.515254
0.530229
0.559307
0.597536
0.64981
0.704788
0.776614
0.860272
0.947919
3.12572
3.24563
3.2275
3.14369
2.8432
1.95166
0.552607
0.591561
0.448936
0.508008
0.511179
0.518939
0.51827
0.531477
0.532631
0.534224
0.546032
0.554647
0.579632
0.614397
0.664973
0.718769
0.783458
0.855646
0.932073
3.13118
3.25677
3.24288
3.1812
2.96628
2.25526
0.815533
0.6286
0.504379
0.533569
0.533741
0.545497
0.54505
0.565379
0.565011
0.56545
0.574328
0.581491
0.597859
0.629179
0.671213
0.72335
0.782018
0.847632
0.919398
3.13537
3.26532
3.25449
3.21005
3.06259
2.55229
1.2694
0.639575
0.580244
0.54815
0.555395
0.570597
0.577294
0.593066
0.59828
0.596109
0.601446
0.611756
0.617101
0.64186
0.678481
0.724463
0.778592
0.842129
0.910012
3.13827
3.27164
3.26298
3.23081
3.12815
2.77923
1.79277
0.666583
0.637363
0.56844
0.584915
0.59765
0.609069
0.6179
0.631552
0.627896
0.629633
0.637066
0.641475
0.654421
0.686235
0.726631
0.77463
0.833233
0.899593
3.13965
3.27586
3.26922
3.24678
3.17574
2.93671
2.18
0.830842
0.686765
0.614705
0.62317
0.626329
0.637916
0.643614
0.665601
0.661853
0.657253
0.659729
0.668887
0.671131
0.69356
0.729423
0.772956
0.823152
0.883658
3.1395
3.2783
3.27376
3.25916
3.2119
3.0553
2.51574
1.21207
0.740884
0.671274
0.658448
0.658869
0.666515
0.671201
0.695026
0.695481
0.68606
0.68476
0.690276
0.696133
0.703275
0.731865
0.770841
0.816387
0.867986
3.13797
3.2796
3.27717
3.26766
3.23614
3.13737
2.80361
1.79954
0.817981
0.713853
0.698687
0.6952
0.698183
0.700416
0.710727
0.726241
0.717191
0.709661
0.710715
0.71872
0.721689
0.736606
0.769096
0.810831
0.857857
3.13599
3.28071
3.27915
3.27255
3.25228
3.1906
2.98722
2.31529
1.0645
0.766873
0.74615
0.735378
0.735201
0.733256
0.728162
0.749036
0.747339
0.737263
0.73402
0.736405
0.744813
0.748313
0.770059
0.806187
0.850297
3.1348
3.2809
3.28055
3.27703
3.26476
3.22691
3.10508
2.68443
1.5367
0.852066
0.793474
0.779555
0.773035
0.769482
0.755153
0.760971
0.770145
0.76688
0.758604
0.758562
0.764009
0.773397
0.778439
0.804874
0.844157
3.13431
3.28059
3.28188
3.28028
3.27312
3.25061
3.18084
2.94718
2.17538
1.07451
0.837106
0.828821
0.813642
0.806426
0.789568
0.778608
0.794494
0.793955
0.787011
0.780781
0.78455
0.794889
0.80618
0.812615
0.842377
3.13407
3.28008
3.28323
3.28248
3.27843
3.26546
3.22608
3.09955
2.65961
1.5394
0.921524
0.881127
0.860857
0.847093
0.831797
0.812473
0.811538
0.820661
0.81752
0.80861
0.806812
0.814886
0.830741
0.846173
0.853698
3.13395
3.27976
3.28413
3.28381
3.28172
3.27469
3.25318
3.18647
2.96154
2.20946
1.16686
0.93602
0.91614
0.893636
0.877701
0.856931
0.839027
0.849897
0.847528
0.83988
0.832211
0.83757
0.851052
0.872875
0.893843
3.13392
3.27958
3.28471
3.28459
3.28371
3.28013
3.26884
3.23457
3.12463
2.73982
1.71125
1.03435
0.973253
0.950795
0.927731
0.908338
0.882367
0.872582
0.880977
0.87362
0.862494
0.860768
0.874965
0.895469
0.923215
3.13391
3.27953
3.28509
3.28509
3.28472
3.28307
3.27758
3.2606
3.20789
3.03102
2.41205
1.36187
1.04487
1.01415
0.985931
0.962746
0.937336
0.910422
0.912234
0.909482
0.89433
0.888067
0.89611
0.920456
0.947779
3.1339
3.27959
3.2852
3.28533
3.28525
3.28474
3.28229
3.27423
3.24927
3.17005
2.89566
2.04178
1.21703
1.07914
1.05524
1.02149
0.99644
0.963188
0.941272
0.94651
0.93467
0.917226
0.920451
0.940828
0.971899
3.13389
3.27963
3.28517
3.28553
3.28558
3.28549
3.28459
3.28101
3.26956
3.23466
3.12144
2.71864
1.73481
1.17956
1.12258
1.09249
1.0568
1.02664
0.988564
0.978091
0.973569
0.95604
0.944904
0.963562
0.993708
3.13389
3.27965
3.28516
3.28561
3.28573
3.2858
3.28565
3.28418
3.27906
3.26353
3.21673
3.06061
2.50206
1.54668
1.20275
1.16517
1.12614
1.08957
1.05126
1.01482
1.01178
0.998699
0.983276
0.984387
1.01676
3.13389
3.27965
3.28516
3.28563
3.28578
3.28592
3.28611
3.28555
3.28314
3.27606
3.25618
3.19638
2.99223
2.30161
1.47306
1.24397
1.20197
1.15674
1.117
1.07011
1.04657
1.03914
1.02629
1.02021
1.03522
3.13389
3.27965
3.28516
3.28562
3.2858
3.28597
3.28624
3.28604
3.28463
3.28103
3.27225
3.24837
3.17605
2.92868
2.17139
1.45278
1.2876
1.23309
1.18261
1.13675
1.08638
1.07797
1.07167
1.06497
1.06767
3.13389
3.27965
3.28516
3.28562
3.2858
3.28597
3.28627
3.28617
3.28501
3.28276
3.27821
3.26744
3.23948
3.15762
2.87866
2.1045
1.48253
1.322
1.25469
1.20096
1.14482
1.11828
1.11764
1.11243
1.11128
3.13389
3.27965
3.28516
3.28562
3.2858
3.28597
3.28627
3.28617
3.28506
3.28293
3.27996
3.27312
3.25991
3.22929
3.14203
2.85213
2.10871
1.54054
1.33281
1.26305
1.20692
1.16471
1.16581
1.16168
1.15599
3.13389
3.27965
3.28516
3.28562
3.2858
3.28597
3.28627
3.28617
3.28506
3.28291
3.28008
3.27377
3.2658
3.24983
3.21421
3.12376
2.84992
2.18688
1.5771
1.32721
1.27065
1.21872
1.21133
1.20867
1.1998
3.13389
3.27965
3.28516
3.28562
3.2858
3.28597
3.28627
3.28617
3.28506
3.28291
3.28009
3.27374
3.26626
3.25283
3.23021
3.18704
3.09122
2.84923
2.29205
1.64413
1.35749
1.28012
1.25397
1.2462
1.23413
3.13389
3.27965
3.28516
3.28562
3.2858
3.28597
3.28627
3.28617
3.28506
3.2829
3.28009
3.27374
3.26628
3.25297
3.23064
3.19624
3.12836
3.01001
2.77647
2.31886
1.83583
1.52206
1.3731
1.29276
1.24756
3.13389
3.27965
3.28516
3.28562
3.2858
3.28597
3.28627
3.28617
3.28506
3.28291
3.28009
3.27374
3.26628
3.253
3.23061
3.1966
3.12924
3.02613
2.84317
2.50728
2.1506
1.85059
1.67163
1.55298
1.43748
3.13389
3.27965
3.28516
3.28562
3.2858
3.28597
3.28627
3.28617
3.28506
3.28291
3.28009
3.27374
3.26628
3.253
3.23058
3.19659
3.12928
3.02674
2.84643
2.51721
2.18405
1.90931
1.75078
1.6618
1.59795
3.13389
3.27965
3.28516
3.28562
3.2858
3.28597
3.28627
3.28617
3.28506
3.28291
3.28009
3.27374
3.26628
3.25301
3.23059
3.1966
3.1293
3.02679
2.84664
2.5178
2.18606
1.91367
1.75869
1.67668
1.62959
3.13389
3.27965
3.28516
3.28562
3.2858
3.28597
3.28627
3.28617
3.28506
3.28291
3.28009
3.27374