/*--------------------------------*- C++ -*----------------------------------*\
| =========                 |                                                 |
| \\      /  F ield         | OpenFOAM: The Open Source CFD Toolbox           |
|  \\    /   O peration     | Version:  4.1                                   |
|   \\  /    A nd           | Web:      www.OpenFOAM.org                      |
|    \\/     M anipulation  |                                                 |
\*---------------------------------------------------------------------------*/
FoamFile
{
    version     2.0;
    format      ascii;
    class       volScalarField;
    location    "0.6";
    object      p;
}
// * * * * * * * * * * * * * * * * * * * * * * * * * * * * * * * * * * * * * //

dimensions      [1 -1 -2 0 0 0 0];

internalField   nonuniform List<scalar> 
52500
(
0.0959641
0.0930334
0.113247
0.226549
0.796891
1.76084
0.992442
0.858456
1.05753
0.966301
0.858843
0.820738
0.76634
0.710867
0.659684
0.610118
0.563978
0.524481
0.495876
0.477715
0.472503
0.475657
0.487893
0.510099
0.524411
0.0958444
0.0925475
0.112304
0.222983
0.781037
1.76205
1.00159
0.856462
1.05725
0.97024
0.859966
0.822382
0.767864
0.71224
0.660922
0.611283
0.565245
0.525879
0.497233
0.478983
0.473712
0.476871
0.489184
0.511183
0.525496
0.0955909
0.0915225
0.110315
0.215449
0.739136
1.76911
1.01979
0.851158
1.05561
0.975246
0.860447
0.823664
0.768733
0.71282
0.661565
0.611809
0.566035
0.526872
0.498054
0.479508
0.473923
0.476994
0.489127
0.510391
0.524055
0.0952275
0.0900315
0.107432
0.204547
0.681545
1.77376
1.04754
0.842727
1.05389
0.981747
0.861229
0.825641
0.770224
0.71412
0.662704
0.612806
0.567465
0.528485
0.499154
0.480227
0.474036
0.476907
0.488763
0.509133
0.522048
0.0947841
0.0881834
0.103853
0.190778
0.61366
1.76713
1.08836
0.831397
1.0502
0.990271
0.863081
0.828076
0.772045
0.715715
0.664179
0.614236
0.569402
0.530515
0.500501
0.480954
0.473972
0.476511
0.487743
0.507168
0.519714
0.0942907
0.0860965
0.0998568
0.175133
0.539762
1.73865
1.14511
0.818713
1.03993
1.00347
0.867117
0.830872
0.774096
0.717715
0.665945
0.616134
0.571753
0.532709
0.50198
0.481543
0.473565
0.475492
0.485542
0.503705
0.516099
0.0937766
0.0838685
0.0957102
0.159151
0.463054
1.6779
1.21852
0.808475
1.02001
1.02113
0.87345
0.833334
0.776588
0.719998
0.667838
0.618633
0.574361
0.535077
0.50339
0.481732
0.472452
0.473309
0.481211
0.497075
0.509818
0.0932733
0.0815758
0.0915645
0.143919
0.394724
1.56409
1.30953
0.807013
0.996233
1.03791
0.881902
0.835476
0.779583
0.722544
0.669913
0.621466
0.577064
0.537688
0.504791
0.481649
0.470061
0.46902
0.474033
0.485657
0.498218
0.0928179
0.0792513
0.0874732
0.129905
0.334862
1.3858
1.42441
0.816138
0.967804
1.04986
0.895321
0.837589
0.782835
0.725389
0.672118
0.624506
0.579941
0.540363
0.506244
0.481247
0.466851
0.46219
0.463654
0.468286
0.475918
0.0924328
0.0768805
0.0836078
0.11744
0.282297
1.15137
1.5536
0.839872
0.938607
1.0564
0.909381
0.84018
0.786289
0.728663
0.674684
0.627645
0.582955
0.543095
0.507785
0.480379
0.46274
0.453288
0.449001
0.444467
0.43674
0.0959671
0.0930428
0.113264
0.226605
0.797124
1.7606
0.992373
0.858477
1.05762
0.966282
0.858774
0.820692
0.766275
0.7108
0.659622
0.61007
0.56394
0.524451
0.495854
0.477702
0.472503
0.475663
0.487913
0.510138
0.524465
0.0958466
0.0925543
0.112316
0.223016
0.781152
1.76201
1.00134
0.856599
1.05739
0.970105
0.859953
0.822341
0.767823
0.712173
0.66086
0.611235
0.565205
0.525847
0.497209
0.478969
0.47371
0.476876
0.489203
0.511217
0.525543
0.0955934
0.0915302
0.110328
0.215492
0.739314
1.76914
1.01958
0.851261
1.05574
0.975181
0.860396
0.823651
0.768697
0.712773
0.661515
0.611759
0.565992
0.526835
0.498028
0.479492
0.473919
0.476997
0.489144
0.510421
0.524094
0.0952303
0.0900405
0.107448
0.2046
0.681789
1.77369
1.04738
0.842763
1.05393
0.981698
0.8612
0.825627
0.770194
0.714093
0.662649
0.612754
0.567426
0.528447
0.499126
0.480209
0.47403
0.476907
0.488777
0.509157
0.522076
0.0947869
0.0881925
0.103869
0.190833
0.613891
1.76707
1.08817
0.831442
1.05021
0.990187
0.86304
0.828083
0.772046
0.715682
0.664121
0.614188
0.569362
0.530475
0.500472
0.480936
0.473964
0.476509
0.487752
0.507184
0.519731
0.0942931
0.086105
0.0998718
0.175186
0.539986
1.73871
1.14484
0.818771
1.04
1.00336
0.867053
0.830852
0.774097
0.717687
0.665907
0.6161
0.571714
0.532671
0.501951
0.481524
0.473554
0.475485
0.485544
0.503711
0.516107
0.0937788
0.0838765
0.0957241
0.159199
0.46325
1.67804
1.21821
0.808503
1.02007
1.02102
0.873318
0.833284
0.776574
0.719961
0.667813
0.618607
0.574336
0.535038
0.503362
0.481712
0.472437
0.473294
0.481203
0.497071
0.509815
0.0932751
0.0815832
0.0915772
0.143962
0.394892
1.56437
1.30918
0.806994
0.996292
1.03777
0.881764
0.835418
0.779538
0.722502
0.669884
0.621436
0.577037
0.537657
0.504766
0.481629
0.470042
0.469004
0.47402
0.485644
0.498201
0.0928193
0.0792577
0.0874842
0.129941
0.335003
1.38625
1.42397
0.816072
0.96786
1.04967
0.895194
0.837527
0.782778
0.725352
0.672088
0.624478
0.579916
0.54034
0.506222
0.481227
0.466832
0.462172
0.463637
0.468267
0.475885
0.0924338
0.0768861
0.0836167
0.117467
0.282412
1.15191
1.55314
0.839746
0.93866
1.05621
0.909251
0.840126
0.786243
0.728629
0.674649
0.627616
0.582931
0.543076
0.507767
0.480357
0.462719
0.453266
0.448978
0.444441
0.436706
0.0959658
0.0930387
0.113256
0.22658
0.797017
1.76073
0.992413
0.858449
1.05746
0.966289
0.858823
0.820707
0.766282
0.710815
0.65964
0.610085
0.563948
0.524453
0.495851
0.477694
0.472492
0.475649
0.487901
0.510126
0.524446
0.0958459
0.0925519
0.112312
0.223007
0.781129
1.76201
1.0015
0.856492
1.05723
0.970189
0.859952
0.822348
0.767812
0.712193
0.660879
0.611249
0.565212
0.52585
0.497207
0.478962
0.4737
0.476863
0.489192
0.511206
0.525525
0.0955923
0.0915267
0.110322
0.215473
0.739237
1.7691
1.01968
0.851198
1.05564
0.975188
0.860418
0.82363
0.768687
0.712778
0.661524
0.611773
0.566003
0.526843
0.498028
0.479487
0.473911
0.476986
0.489134
0.51041
0.524076
0.0952289
0.0900359
0.10744
0.204574
0.681661
1.77374
1.04744
0.842746
1.05394
0.981685
0.861193
0.825623
0.7702
0.714088
0.662667
0.612772
0.567436
0.528456
0.499128
0.480205
0.474024
0.476898
0.488768
0.509146
0.522058
0.0947855
0.0881878
0.103861
0.190805
0.613772
1.76713
1.08824
0.831411
1.05025
0.990207
0.863033
0.82807
0.772033
0.715683
0.664142
0.614203
0.569376
0.530488
0.500477
0.480934
0.47396
0.476502
0.487745
0.507174
0.519713
0.094292
0.0861008
0.0998642
0.175159
0.539872
1.7387
1.14495
0.818722
1.03999
1.00341
0.867082
0.830872
0.774092
0.717696
0.665916
0.616104
0.571727
0.532685
0.501957
0.481524
0.473552
0.475481
0.48554
0.503703
0.516089
0.0937779
0.0838727
0.0957175
0.159176
0.463155
1.67798
1.21835
0.808465
1.02005
1.02109
0.873357
0.83331
0.77658
0.719982
0.667818
0.618609
0.57434
0.535052
0.503369
0.481714
0.472437
0.473294
0.481202
0.497065
0.509797
0.0932745
0.08158
0.0915716
0.143942
0.394814
1.56424
1.30934
0.80698
0.996271
1.03789
0.881804
0.835435
0.779558
0.722524
0.669895
0.621447
0.577046
0.537667
0.504772
0.481632
0.470044
0.469003
0.474019
0.485639
0.498183
0.0928189
0.0792553
0.0874798
0.129926
0.334941
1.38604
1.42416
0.816085
0.96783
1.04982
0.895226
0.837546
0.782802
0.725366
0.672098
0.624487
0.579924
0.540346
0.506226
0.48123
0.466833
0.46217
0.463636
0.468264
0.475869
0.0924336
0.0768843
0.0836136
0.117457
0.282365
1.15168
1.55333
0.839783
0.938623
1.05634
0.90929
0.840137
0.786254
0.728637
0.674661
0.627625
0.582939
0.543079
0.507768
0.480358
0.46272
0.453266
0.448977
0.444438
0.436694
0.095966
0.0930394
0.113258
0.226586
0.797046
1.76071
0.992418
0.858457
1.05747
0.966281
0.858814
0.820698
0.766273
0.710807
0.659631
0.61008
0.563944
0.524453
0.495855
0.477706
0.472513
0.475673
0.487932
0.510159
0.524472
0.0958461
0.0925525
0.112313
0.223011
0.78115
1.762
1.0015
0.856503
1.05724
0.97017
0.859944
0.822341
0.767807
0.712185
0.660872
0.611245
0.565207
0.52585
0.497211
0.478973
0.473721
0.476886
0.489222
0.511237
0.525549
0.0955924
0.0915273
0.110323
0.215477
0.739258
1.7691
1.01967
0.851208
1.05566
0.975167
0.860416
0.823633
0.768691
0.712775
0.661521
0.611769
0.566
0.526842
0.498031
0.479497
0.47393
0.477007
0.489163
0.51044
0.524098
0.0952291
0.0900364
0.107441
0.204577
0.681677
1.77375
1.04742
0.842756
1.05393
0.98167
0.861198
0.825628
0.7702
0.714087
0.662664
0.612769
0.567438
0.528456
0.499131
0.480215
0.474041
0.476918
0.488796
0.509174
0.522079
0.0947857
0.0881884
0.103862
0.190808
0.613787
1.76712
1.08823
0.831415
1.05024
0.990199
0.86303
0.82807
0.772036
0.715682
0.664138
0.614203
0.569377
0.530488
0.500479
0.480942
0.473976
0.47652
0.487771
0.5072
0.519731
0.0942921
0.0861013
0.0998651
0.175162
0.539885
1.73869
1.14494
0.818724
1.04
1.00341
0.867064
0.830862
0.774091
0.717696
0.665919
0.616109
0.571729
0.532686
0.501961
0.481531
0.473566
0.475496
0.485562
0.503725
0.516104
0.0937779
0.083873
0.095718
0.159177
0.46316
1.67797
1.21834
0.808467
1.02005
1.02109
0.873347
0.833296
0.776573
0.719979
0.667824
0.618617
0.574347
0.535053
0.503372
0.48172
0.472448
0.473304
0.481218
0.497083
0.509807
0.0932745
0.0815801
0.0915717
0.143942
0.394813
1.56423
1.30933
0.80698
0.996262
1.03787
0.881804
0.835431
0.779554
0.722522
0.669892
0.621447
0.577048
0.53767
0.504775
0.481638
0.470053
0.469013
0.474032
0.485653
0.498188
0.0928188
0.0792551
0.0874795
0.129925
0.334936
1.38601
1.42415
0.816078
0.967825
1.04978
0.89524
0.83754
0.782804
0.725373
0.672097
0.624488
0.579924
0.540349
0.50623
0.481234
0.466841
0.462179
0.463646
0.468274
0.475867
0.0924336
0.0768839
0.083613
0.117455
0.282357
1.15163
1.55332
0.839772
0.938628
1.05631
0.909302
0.840138
0.786266
0.728646
0.674659
0.627624
0.582937
0.543083
0.507772
0.480363
0.462726
0.453274
0.448985
0.444444
0.436691
0.0959654
0.0930364
0.113251
0.226557
0.796902
1.76071
0.992489
0.858447
1.05748
0.966289
0.858823
0.820715
0.766297
0.71083
0.659648
0.61009
0.563948
0.524452
0.495852
0.477701
0.472505
0.475662
0.487915
0.510134
0.524444
0.0958455
0.0925497
0.112307
0.222985
0.781017
1.76199
1.00157
0.856487
1.05725
0.970178
0.859949
0.822356
0.767826
0.712206
0.660889
0.611256
0.565212
0.525849
0.497208
0.478968
0.473712
0.476875
0.489205
0.511214
0.525522
0.0955919
0.0915246
0.110318
0.215453
0.739118
1.76909
1.01975
0.851186
1.05565
0.975173
0.860418
0.823642
0.768705
0.712792
0.661538
0.611781
0.566007
0.526843
0.498029
0.479493
0.473922
0.476997
0.489147
0.510417
0.524073
0.0952285
0.0900338
0.107435
0.204554
0.681552
1.77372
1.04749
0.842734
1.05391
0.981675
0.861196
0.825623
0.770203
0.7141
0.662679
0.612782
0.567446
0.528459
0.499131
0.480211
0.474034
0.476908
0.48878
0.509153
0.522056
0.0947852
0.088186
0.103857
0.190787
0.613682
1.76707
1.08831
0.831392
1.05021
0.99021
0.863036
0.828055
0.772024
0.715686
0.664152
0.614217
0.569387
0.530492
0.50048
0.480939
0.473969
0.476511
0.487756
0.50718
0.519709
0.0942917
0.0860991
0.0998608
0.175144
0.539792
1.7386
1.14504
0.818703
1.03994
1.00343
0.867055
0.830838
0.77407
0.717691
0.665928
0.616122
0.571739
0.532692
0.501962
0.481529
0.473559
0.475488
0.485548
0.503707
0.516082
0.0937775
0.083871
0.0957142
0.159162
0.463085
1.67786
1.21843
0.808453
1.02001
1.02111
0.873389
0.833288
0.776552
0.719969
0.667828
0.618628
0.574358
0.53506
0.503374
0.481718
0.472442
0.473296
0.481206
0.497067
0.509788
0.0932741
0.0815781
0.0915681
0.143929
0.394755
1.56409
1.30943
0.806973
0.996223
1.03787
0.88186
0.835435
0.779543
0.722511
0.669892
0.621456
0.577058
0.537677
0.504778
0.481636
0.470048
0.469005
0.474021
0.485639
0.498174
0.0928185
0.0792533
0.0874764
0.129914
0.33489
1.38584
1.42427
0.816078
0.967788
1.04976
0.895298
0.837549
0.782799
0.725364
0.672096
0.624497
0.579935
0.540357
0.506233
0.481233
0.466837
0.462172
0.463637
0.468262
0.475856
0.0924333
0.0768824
0.0836105
0.117447
0.282321
1.15145
1.55345
0.839788
0.9386
1.0563
0.909349
0.840147
0.786267
0.728643
0.674662
0.627633
0.582948
0.54309
0.507777
0.480363
0.462723
0.453268
0.448978
0.444435
0.436683
0.0959657
0.0930377
0.113254
0.226568
0.796954
1.76071
0.99247
0.858451
1.05748
0.966277
0.858816
0.820705
0.766285
0.710821
0.659641
0.610084
0.563944
0.52445
0.495852
0.477702
0.472509
0.475668
0.487926
0.510149
0.524458
0.0958457
0.0925508
0.112309
0.222994
0.781064
1.76199
1.00155
0.856494
1.05724
0.970163
0.859943
0.822346
0.767815
0.712197
0.660881
0.61125
0.565208
0.525848
0.497208
0.47897
0.473717
0.476882
0.489216
0.511227
0.525536
0.0955921
0.0915257
0.11032
0.215462
0.739168
1.76909
1.01972
0.851193
1.05565
0.975159
0.860411
0.823632
0.768694
0.712782
0.661529
0.611775
0.566003
0.526842
0.498029
0.479494
0.473927
0.477003
0.489157
0.510431
0.524086
0.0952287
0.0900348
0.107437
0.204563
0.681598
1.77373
1.04747
0.84274
1.05391
0.981662
0.861188
0.825613
0.770194
0.71409
0.662672
0.612777
0.567442
0.528458
0.499131
0.480213
0.474038
0.476914
0.48879
0.509166
0.522068
0.0947854
0.0881869
0.103859
0.190795
0.61372
1.76709
1.08828
0.831396
1.05021
0.990196
0.863028
0.828046
0.772015
0.715677
0.664144
0.614211
0.569384
0.530491
0.50048
0.480941
0.473973
0.476517
0.487766
0.507192
0.519722
0.0942918
0.0860999
0.0998624
0.17515
0.539826
1.73863
1.145
0.818707
1.03995
1.00342
0.867047
0.830829
0.774061
0.717682
0.665921
0.616117
0.571737
0.532691
0.501962
0.481531
0.473564
0.475493
0.485557
0.503719
0.516096
0.0937776
0.0838717
0.0957155
0.159167
0.463112
1.6779
1.21839
0.808455
1.02001
1.02109
0.873381
0.833279
0.776543
0.71996
0.667821
0.618623
0.574355
0.53506
0.503375
0.48172
0.472447
0.473302
0.481215
0.497078
0.509801
0.0932742
0.0815787
0.0915693
0.143934
0.394775
1.56414
1.30939
0.806971
0.996226
1.03786
0.881852
0.835428
0.779534
0.722502
0.669886
0.621452
0.577056
0.537677
0.504779
0.481638
0.470052
0.469012
0.47403
0.485649
0.498183
0.0928186
0.0792538
0.0874773
0.129917
0.334906
1.3859
1.42424
0.816073
0.967792
1.04975
0.89529
0.837542
0.782791
0.725356
0.67209
0.624493
0.579933
0.540357
0.506234
0.481236
0.466841
0.462178
0.463644
0.468271
0.475863
0.0924334
0.0768828
0.0836112
0.117449
0.282334
1.15151
1.55341
0.83978
0.938603
1.05629
0.909342
0.840141
0.786259
0.728636
0.674656
0.62763
0.582946
0.543091
0.507778
0.480366
0.462727
0.453273
0.448984
0.444442
0.436689
0.095966
0.0930395
0.113258
0.226586
0.797046
1.76071
0.992417
0.858457
1.05747
0.966281
0.858814
0.820698
0.766273
0.710807
0.659631
0.61008
0.563944
0.524453
0.495855
0.477706
0.472514
0.475673
0.487933
0.51016
0.524473
0.0958461
0.0925525
0.112313
0.223011
0.78115
1.762
1.0015
0.856503
1.05724
0.97017
0.859944
0.822341
0.767806
0.712185
0.660872
0.611245
0.565207
0.52585
0.497211
0.478973
0.473721
0.476886
0.489222
0.511238
0.525549
0.0955925
0.0915273
0.110323
0.215477
0.739259
1.7691
1.01967
0.851208
1.05566
0.975167
0.860416
0.823633
0.76869
0.712774
0.661521
0.611769
0.566
0.526842
0.498031
0.479497
0.47393
0.477008
0.489164
0.51044
0.524099
0.0952291
0.0900364
0.107441
0.204577
0.681677
1.77375
1.04742
0.842756
1.05393
0.98167
0.861198
0.825628
0.7702
0.714087
0.662664
0.612769
0.567438
0.528456
0.499131
0.480215
0.474041
0.476918
0.488796
0.509174
0.522079
0.0947857
0.0881884
0.103862
0.190808
0.613787
1.76712
1.08823
0.831415
1.05024
0.990199
0.86303
0.828069
0.772035
0.715682
0.664138
0.614203
0.569377
0.530488
0.500479
0.480942
0.473976
0.47652
0.487771
0.5072
0.519731
0.0942921
0.0861013
0.0998651
0.175162
0.539885
1.73869
1.14494
0.818724
1.04
1.00341
0.867064
0.830862
0.774091
0.717696
0.665919
0.616109
0.571729
0.532686
0.501961
0.481531
0.473566
0.475496
0.485562
0.503725
0.516104
0.0937779
0.0838731
0.095718
0.159177
0.46316
1.67797
1.21833
0.808467
1.02005
1.02109
0.873347
0.833296
0.776573
0.719979
0.667824
0.618617
0.574347
0.535053
0.503372
0.48172
0.472449
0.473304
0.481218
0.497083
0.509807
0.0932745
0.0815801
0.0915717
0.143943
0.394813
1.56423
1.30933
0.80698
0.996262
1.03787
0.881804
0.835431
0.779554
0.722522
0.669892
0.621447
0.577048
0.53767
0.504775
0.481638
0.470053
0.469013
0.474032
0.485653
0.498188
0.0928188
0.0792551
0.0874795
0.129925
0.334936
1.38601
1.42415
0.816078
0.967825
1.04978
0.89524
0.83754
0.782804
0.725372
0.672097
0.624488
0.579924
0.540349
0.50623
0.481234
0.466841
0.462179
0.463646
0.468274
0.475867
0.0924336
0.0768839
0.083613
0.117455
0.282357
1.15163
1.55332
0.839772
0.938628
1.05631
0.909302
0.840138
0.786266
0.728646
0.674658
0.627624
0.582937
0.543083
0.507772
0.480363
0.462726
0.453274
0.448985
0.444444
0.436691
0.0959658
0.0930387
0.113256
0.22658
0.797017
1.76073
0.992413
0.858449
1.05746
0.966289
0.858823
0.820707
0.766282
0.710815
0.65964
0.610085
0.563948
0.524453
0.495851
0.477694
0.472492
0.475649
0.487901
0.510126
0.524446
0.0958459
0.0925519
0.112312
0.223007
0.781129
1.76201
1.0015
0.856492
1.05723
0.970189
0.859952
0.822348
0.767812
0.712194
0.660879
0.611249
0.565212
0.52585
0.497207
0.478962
0.4737
0.476863
0.489192
0.511206
0.525525
0.0955923
0.0915267
0.110322
0.215473
0.739237
1.7691
1.01968
0.851198
1.05564
0.975188
0.860419
0.82363
0.768688
0.712778
0.661524
0.611773
0.566003
0.526843
0.498028
0.479487
0.473911
0.476986
0.489134
0.51041
0.524076
0.0952289
0.0900359
0.10744
0.204574
0.681661
1.77374
1.04744
0.842746
1.05394
0.981685
0.861193
0.825623
0.7702
0.714088
0.662667
0.612772
0.567436
0.528456
0.499128
0.480205
0.474024
0.476898
0.488768
0.509146
0.522058
0.0947855
0.0881878
0.103861
0.190805
0.613772
1.76713
1.08824
0.831411
1.05025
0.990207
0.863033
0.82807
0.772033
0.715683
0.664142
0.614203
0.569376
0.530488
0.500477
0.480934
0.47396
0.476502
0.487745
0.507174
0.519713
0.094292
0.0861008
0.0998642
0.175159
0.539872
1.7387
1.14495
0.818722
1.03999
1.00341
0.867082
0.830872
0.774092
0.717696
0.665916
0.616104
0.571727
0.532685
0.501957
0.481524
0.473552
0.475481
0.48554
0.503703
0.51609
0.0937779
0.0838727
0.0957175
0.159176
0.463155
1.67798
1.21835
0.808465
1.02005
1.02109
0.873357
0.83331
0.77658
0.719982
0.667818
0.618609
0.57434
0.535052
0.503369
0.481714
0.472438
0.473294
0.481202
0.497065
0.509797
0.0932745
0.08158
0.0915716
0.143942
0.394814
1.56424
1.30934
0.80698
0.996271
1.03789
0.881804
0.835435
0.779558
0.722524
0.669895
0.621447
0.577046
0.537667
0.504772
0.481632
0.470044
0.469003
0.474019
0.485639
0.498183
0.0928189
0.0792553
0.0874798
0.129926
0.334941
1.38604
1.42416
0.816085
0.96783
1.04982
0.895226
0.837546
0.782802
0.725366
0.672098
0.624487
0.579924
0.540346
0.506226
0.48123
0.466833
0.46217
0.463636
0.468264
0.475869
0.0924336
0.0768843
0.0836136
0.117457
0.282365
1.15168
1.55333
0.839783
0.938623
1.05634
0.90929
0.840137
0.786254
0.728637
0.674661
0.627625
0.582939
0.543079
0.507768
0.480358
0.46272
0.453266
0.448977
0.444438
0.436694
0.095967
0.0930428
0.113264
0.226605
0.797123
1.76061
0.992373
0.858477
1.05762
0.966282
0.858774
0.820692
0.766275
0.7108
0.659622
0.61007
0.56394
0.524451
0.495854
0.477702
0.472503
0.475663
0.487913
0.510138
0.524465
0.0958466
0.0925543
0.112315
0.223016
0.781152
1.76201
1.00134
0.856599
1.05739
0.970105
0.859953
0.822341
0.767823
0.712173
0.66086
0.611235
0.565205
0.525847
0.497209
0.478969
0.47371
0.476876
0.489202
0.511217
0.525543
0.0955934
0.0915302
0.110328
0.215491
0.739313
1.76914
1.01958
0.851261
1.05574
0.975181
0.860396
0.823651
0.768697
0.712774
0.661515
0.611759
0.565992
0.526835
0.498028
0.479492
0.473919
0.476996
0.489143
0.510421
0.524094
0.0952303
0.0900405
0.107448
0.2046
0.681788
1.77369
1.04738
0.842763
1.05393
0.981698
0.8612
0.825627
0.770194
0.714093
0.662649
0.612755
0.567426
0.528447
0.499126
0.480209
0.47403
0.476907
0.488776
0.509157
0.522076
0.0947868
0.0881925
0.103869
0.190833
0.613891
1.76708
1.08817
0.831442
1.05021
0.990187
0.86304
0.828083
0.772047
0.715682
0.664121
0.614188
0.569362
0.530475
0.500472
0.480936
0.473964
0.476509
0.487751
0.507184
0.519731
0.0942931
0.086105
0.0998717
0.175186
0.539985
1.73871
1.14484
0.818771
1.04
1.00336
0.867053
0.830852
0.774097
0.717687
0.665907
0.6161
0.571714
0.532671
0.501951
0.481523
0.473554
0.475485
0.485544
0.50371
0.516107
0.0937788
0.0838765
0.0957241
0.159199
0.463249
1.67804
1.21822
0.808503
1.02007
1.02102
0.873318
0.833284
0.776574
0.719961
0.667813
0.618607
0.574336
0.535038
0.503362
0.481712
0.472437
0.473294
0.481202
0.497071
0.509815
0.0932751
0.0815831
0.0915772
0.143962
0.394892
1.56437
1.30918
0.806994
0.996291
1.03777
0.881764
0.835418
0.779538
0.722502
0.669884
0.621437
0.577037
0.537657
0.504766
0.481629
0.470042
0.469004
0.47402
0.485644
0.4982
0.0928193
0.0792577
0.0874842
0.12994
0.335003
1.38625
1.42397
0.816072
0.96786
1.04967
0.895194
0.837527
0.782778
0.725352
0.672088
0.624478
0.579916
0.54034
0.506222
0.481227
0.466832
0.462172
0.463637
0.468267
0.475884
0.0924338
0.0768861
0.0836167
0.117467
0.282412
1.15191
1.55314
0.839746
0.938659
1.05621
0.909251
0.840125
0.786243
0.728629
0.674649
0.627616
0.582931
0.543076
0.507766
0.480357
0.462719
0.453266
0.448977
0.444441
0.436706
0.0959641
0.0930339
0.113248
0.226559
0.796956
1.7608
0.992526
0.85842
1.05742
0.966414
0.858832
0.820731
0.766313
0.710863
0.659685
0.610113
0.56397
0.524473
0.495872
0.477712
0.472498
0.475651
0.487878
0.510081
0.524403
0.0958442
0.0925471
0.112304
0.222986
0.781067
1.7621
1.00161
0.856468
1.05724
0.970242
0.859948
0.822365
0.767854
0.712244
0.660924
0.611279
0.565241
0.525873
0.497228
0.47898
0.473706
0.476864
0.489168
0.511165
0.525485
0.0955904
0.0915214
0.110313
0.215447
0.73913
1.76924
1.01972
0.851221
1.05573
0.975182
0.860448
0.823684
0.768746
0.712818
0.66157
0.611815
0.566035
0.526867
0.49805
0.479504
0.473916
0.476986
0.48911
0.510373
0.524041
0.0952273
0.0900309
0.107431
0.204548
0.68156
1.77388
1.04749
0.842761
1.05396
0.981718
0.861227
0.825659
0.770243
0.714134
0.662718
0.612814
0.56747
0.528485
0.499152
0.480222
0.474028
0.476898
0.488745
0.509114
0.52203
0.0947842
0.0881838
0.103854
0.190784
0.613702
1.76718
1.08835
0.831397
1.05021
0.990315
0.863055
0.828103
0.772063
0.715731
0.664188
0.614244
0.569407
0.530515
0.5005
0.48095
0.473964
0.476501
0.487724
0.507148
0.519698
0.0942909
0.0860975
0.0998588
0.175142
0.539816
1.73869
1.1451
0.818705
1.03992
1.00355
0.867072
0.830873
0.774111
0.717739
0.665972
0.616151
0.571755
0.53271
0.501979
0.481539
0.473555
0.475481
0.485524
0.503682
0.516081
0.0937768
0.0838696
0.0957123
0.159159
0.463095
1.67795
1.2185
0.808475
1.01996
1.02119
0.873434
0.833321
0.776597
0.720013
0.667859
0.61865
0.574372
0.535073
0.503388
0.481727
0.472442
0.473296
0.481193
0.497052
0.509797
0.0932735
0.0815769
0.0915664
0.143926
0.394754
1.56416
1.3095
0.807008
0.996184
1.03793
0.881914
0.835482
0.779597
0.722561
0.66992
0.621472
0.577068
0.537684
0.504787
0.481643
0.47005
0.469006
0.474016
0.485633
0.498193
0.0928181
0.0792523
0.0874749
0.129911
0.334885
1.38588
1.42436
0.816112
0.967775
1.04979
0.895347
0.837579
0.782845
0.725408
0.67212
0.624506
0.579936
0.540359
0.506239
0.481239
0.46684
0.462176
0.463637
0.468264
0.475895
0.092433
0.0768816
0.0836094
0.117444
0.282316
1.15146
1.55353
0.839829
0.938605
1.05633
0.909392
0.840175
0.786302
0.728675
0.674684
0.627644
0.582949
0.54309
0.507781
0.480371
0.462729
0.453274
0.448983
0.444447
0.43672
0.0920719
0.0746428
0.0800517
0.106534
0.235063
0.898499
1.66749
0.88315
0.911145
1.05634
0.928777
0.843154
0.790006
0.732175
0.677731
0.630913
0.586178
0.545911
0.509612
0.479727
0.45811
0.442868
0.42989
0.405199
0.344742
0.0917402
0.0725966
0.0768745
0.0973753
0.194397
0.667383
1.736
0.96272
0.875868
1.0431
0.948154
0.84827
0.794606
0.736241
0.682002
0.634349
0.589998
0.54871
0.511864
0.479475
0.453546
0.432338
0.410692
0.376237
0.310351
0.0914416
0.0707718
0.0741183
0.0897353
0.16033
0.493491
1.73635
1.08371
0.840128
1.01338
0.959821
0.858149
0.800248
0.740904
0.687236
0.638478
0.594537
0.552136
0.514576
0.47976
0.450364
0.424421
0.397228
0.360071
0.308125
0.0911799
0.0691632
0.0717622
0.083605
0.134345
0.375854
1.59019
1.23733
0.819666
0.979486
0.966307
0.872944
0.807223
0.746914
0.693407
0.643696
0.599729
0.556658
0.518089
0.480998
0.449917
0.42068
0.390965
0.356122
0.310242
0.0909552
0.0677718
0.0697696
0.0786708
0.114764
0.286923
1.1979
1.40201
0.821735
0.942662
0.973757
0.8916
0.81487
0.754528
0.700944
0.650913
0.604935
0.561784
0.521738
0.484022
0.450814
0.420926
0.391058
0.357152
0.316097
0.0907656
0.0665915
0.06812
0.074784
0.100434
0.218397
0.809912
1.54606
0.852674
0.917029
0.977
0.909927
0.821753
0.763004
0.709299
0.659213
0.61112
0.568138
0.526873
0.489696
0.45384
0.422802
0.392889
0.361018
0.328171
0.0906102
0.0655969
0.0667566
0.0717451
0.0903108
0.171205
0.543613
1.58935
0.945638
0.895695
0.971006
0.917617
0.830404
0.773971
0.71909
0.668112
0.61946
0.575196
0.533834
0.495872
0.460501
0.428017
0.398524
0.369992
0.343138
0.0904882
0.0647796
0.0656313
0.069276
0.0824931
0.13723
0.399555
1.53478
1.09674
0.879078
0.945867
0.915793
0.851182
0.786697
0.729718
0.677449
0.629463
0.582779
0.542267
0.503983
0.470379
0.438722
0.41048
0.384638
0.358985
0.0903997
0.0641337
0.0647493
0.0673569
0.0764034
0.110891
0.280521
1.25207
1.23317
0.886908
0.921133
0.913001
0.870896
0.798461
0.740236
0.688101
0.640026
0.592985
0.551764
0.513967
0.480374
0.450208
0.423191
0.398196
0.373697
0.0903482
0.063624
0.0640686
0.0659677
0.0723009
0.094538
0.191661
0.666665
1.30823
0.914083
0.916849
0.914696
0.882815
0.810647
0.751597
0.699849
0.651309
0.605926
0.561986
0.52472
0.491065
0.461776
0.435476
0.411353
0.388138
0.0903408
0.0632367
0.0635435
0.0648959
0.0693493
0.0843848
0.145124
0.418825
1.28863
0.999814
0.920406
0.917334
0.888595
0.822242
0.763416
0.712034
0.663796
0.619223
0.575079
0.536494
0.503177
0.473954
0.448151
0.425305
0.403397
0.0903759
0.0629649
0.0631626
0.0640812
0.0670777
0.0769227
0.114416
0.293395
1.15691
1.08727
0.929441
0.913515
0.885751
0.829927
0.775685
0.725554
0.677664
0.632835
0.590155
0.549584
0.516414
0.487311
0.462128
0.439842
0.419599
0.0904438
0.0627898
0.0629155
0.0635381
0.0655219
0.0716868
0.0931392
0.190183
0.725435
1.11256
0.952813
0.913695
0.884709
0.838301
0.78984
0.74059
0.69269
0.647968
0.605879
0.565896
0.530066
0.501702
0.476949
0.455358
0.435998
0.0905023
0.0627259
0.0627938
0.0631642
0.0643964
0.0682731
0.0811271
0.131809
0.367323
1.06012
0.990742
0.919068
0.886718
0.847055
0.801987
0.756618
0.709159
0.663559
0.621442
0.582429
0.546247
0.516587
0.492455
0.471508
0.452891
0.0905187
0.0628289
0.0625697
0.062769
0.0635434
0.0659696
0.073702
0.101696
0.231154
0.8723
0.992572
0.944239
0.89698
0.857511
0.812362
0.773158
0.725275
0.680504
0.638409
0.599298
0.563992
0.532889
0.508805
0.488666
0.47079
0.0905194
0.0629163
0.0623851
0.0625031
0.0629697
0.0644325
0.0688968
0.0839102
0.145736
0.43701
0.970396
0.952436
0.918332
0.870857
0.825927
0.787097
0.74158
0.697427
0.655574
0.617293
0.582652
0.552254
0.526593
0.507208
0.49014
0.0905176
0.0629806
0.0622539
0.0623218
0.0625947
0.0634512
0.0660199
0.0741386
0.103683
0.240013
0.803388
0.945587
0.928359
0.886171
0.841442
0.798704
0.759757
0.716243
0.674362
0.636078
0.602076
0.573137
0.547904
0.527268
0.511435
0.0905156
0.0630187
0.0621729
0.0622087
0.0623586
0.0628374
0.0642677
0.0685908
0.0831593
0.143077
0.409689
0.895228
0.925525
0.902698
0.858473
0.814869
0.774708
0.73434
0.694041
0.655603
0.622262
0.594285
0.570983
0.550613
0.533258
0.090514
0.0630393
0.0621244
0.0621416
0.0622188
0.0624732
0.0632354
0.065504
0.0726197
0.0981239
0.213278
0.667613
0.904972
0.900883
0.878598
0.8331
0.789318
0.753427
0.714193
0.67707
0.644492
0.617256
0.59503
0.576299
0.559052
0.0905139
0.0630443
0.062098
0.0621063
0.0621445
0.0622694
0.0626524
0.0637943
0.0672463
0.0787239
0.124474
0.324301
0.794913
0.890864
0.8799
0.853868
0.808534
0.76884
0.734756
0.699174
0.667351
0.641537
0.621299
0.603018
0.588146
0.090515
0.0630396
0.062099
0.062084
0.0620971
0.0621511
0.0623339
0.0628843
0.0645466
0.0696987
0.0876651
0.164638
0.467068
0.838293
0.872889
0.858762
0.829969
0.78885
0.757158
0.723041
0.692836
0.668499
0.649817
0.634411
0.619133
0.0905155
0.0630364
0.0621051
0.0620663
0.0620712
0.0620944
0.062176
0.0624284
0.0631862
0.0654706
0.0728269
0.100061
0.218338
0.616916
0.837797
0.853111
0.838563
0.810884
0.776477
0.751159
0.722092
0.699207
0.682897
0.668891
0.655101
0.0905156
0.0630353
0.0621076
0.0620589
0.0620604
0.0620695
0.0621028
0.0622108
0.0625381
0.0635283
0.0665555
0.0767745
0.117292
0.282295
0.692172
0.826973
0.833679
0.821452
0.797755
0.77736
0.752886
0.731871
0.719455
0.71023
0.696513
0.0905156
0.0630352
0.0621077
0.0620577
0.0620565
0.0620589
0.0620722
0.0621159
0.0622519
0.0626574
0.0638959
0.0677634
0.0812895
0.136296
0.336986
0.716928
0.811914
0.817106
0.8074
0.792283
0.78299
0.767557
0.759195
0.754301
0.747087
0.0905156
0.0630352
0.0621077
0.062058
0.0620551
0.062056
0.0620623
0.0620815
0.0621385
0.0623018
0.0627884
0.0642665
0.0689371
0.0854485
0.151997
0.383563
0.716676
0.795938
0.803446
0.797484
0.797007
0.799634
0.802066
0.80116
0.798621
0.0905156
0.0630352
0.0621077
0.062058
0.0620549
0.0620556
0.0620604
0.0620733
0.0621033
0.0621804
0.0623804
0.0629417
0.064601
0.069869
0.0886668
0.162364
0.403405
0.700617
0.781191
0.792723
0.797333
0.816772
0.83488
0.846775
0.846126
0.0905156
0.0630352
0.0621077
0.062058
0.0620549
0.0620555
0.0620603
0.0620728
0.0621006
0.0621624
0.0622871
0.0625341
0.0631464
0.064902
0.070416
0.0899478
0.162681
0.388108
0.677238
0.76318
0.786641
0.81817
0.844054
0.869733
0.877856
0.0905156
0.0630352
0.0621077
0.062058
0.0620549
0.0620555
0.0620603
0.0620728
0.0621006
0.0621626
0.0622909
0.0624684
0.06278
0.0634685
0.0652379
0.0705888
0.0886697
0.151771
0.347961
0.636203
0.732284
0.80282
0.841584
0.871764
0.886867
0.0905156
0.0630352
0.0621077
0.062058
0.0620549
0.0620555
0.0620603
0.0620728
0.0621006
0.0621626
0.0622907
0.0624702
0.0627546
0.0633091
0.0641094
0.0658963
0.0707487
0.0855247
0.132814
0.273813
0.519318
0.709732
0.790905
0.840815
0.873661
0.0905156
0.0630352
0.0621077
0.062058
0.0620549
0.0620555
0.0620603
0.0620728
0.0621006
0.0621626
0.0622906
0.062471
0.0627514
0.0633118
0.0640431
0.0654336
0.067676
0.0725581
0.0848437
0.115365
0.187768
0.348824
0.506662
0.638108
0.765738
0.0905156
0.0630352
0.0621077
0.062058
0.0620549
0.0620556