/*--------------------------------*- C++ -*----------------------------------*\
| =========                 |                                                 |
| \\      /  F ield         | OpenFOAM: The Open Source CFD Toolbox           |
|  \\    /   O peration     | Version:  4.1                                   |
|   \\  /    A nd           | Web:      www.OpenFOAM.org                      |
|    \\/     M anipulation  |                                                 |
\*---------------------------------------------------------------------------*/
FoamFile
{
    version     2.0;
    format      ascii;
    class       surfaceScalarField;
    location    "0.6";
    object      phi;
}
// * * * * * * * * * * * * * * * * * * * * * * * * * * * * * * * * * * * * * //

dimensions      [1 0 -1 0 0 0 0];

internalField   nonuniform List<scalar> 
150500
(
0.00209268
3.22617e-07
-1.2753e-11
0.00195056
1.61722e-06
-4.04019e-11
0.00179451
4.10972e-06
-7.34318e-11
0.00146587
1.62113e-05
-2.50862e-10
-0.000434865
0.000125
-1.11116e-09
-0.000501081
0.000389072
1.09274e-09
0.000536751
0.000143503
3.26498e-10
0.000212653
0.00012737
-1.01968e-10
-6.62723e-05
0.000214051
-4.2044e-10
0.000117208
0.000163608
9.19512e-11
0.000192737
0.000161092
3.32354e-10
0.000253305
0.00015132
2.21149e-10
0.000299541
0.000134758
3.07767e-10
0.000305704
0.00012204
3.19134e-10
0.000301274
0.000114083
2.93556e-10
0.000297912
0.000112598
2.24677e-10
0.000295219
0.00011332
1.79269e-10
0.000283903
0.000114508
1.41831e-10
0.000266789
0.000113358
1.04821e-10
0.000245213
0.000113752
5.95669e-11
0.000207714
0.000116396
2.92537e-12
0.000166726
0.000121825
-3.11657e-11
0.000106446
0.000126947
-9.74571e-11
4.04384e-05
0.000134702
-1.84601e-10
0.000140808
-2.55446e-10
0.00209165
6.75696e-07
-9.32165e-12
0.00195104
3.34046e-06
-2.93811e-11
0.00179672
8.38734e-06
-4.85414e-11
0.00147378
3.25787e-05
-1.48254e-10
-0.000467992
0.000247698
-5.49483e-10
-0.000520608
0.000777873
2.1458e-10
0.000528655
0.000290705
1.15943e-09
0.000216867
0.000251304
-6.49354e-10
-7.12442e-05
0.000424627
-6.37944e-10
0.000114217
0.000324208
6.40404e-10
0.000197497
0.000318646
5.85249e-11
0.000259998
0.000299853
1.92767e-10
0.000308172
0.000268548
1.93939e-10
0.000316293
0.000243733
3.19195e-10
0.000311605
0.000229061
2.93809e-10
0.000307328
0.000226067
2.23716e-10
0.000303363
0.000227158
1.91988e-10
0.000291137
0.000229081
1.53518e-10
0.000273154
0.000227106
1.10798e-10
0.000250057
0.000228511
6.46855e-11
0.000211514
0.000234402
8.72902e-12
0.000168879
0.000245317
-2.36709e-11
0.000105954
0.000256995
-8.72464e-11
3.90016e-05
0.000274555
-1.61162e-10
0.000288753
-2.24774e-10
0.00208953
9.64599e-07
-1.07236e-11
0.00195241
4.81444e-06
-3.32984e-11
0.00180216
1.20481e-05
-5.84215e-11
0.0014989
4.63017e-05
-1.88894e-10
-0.000319523
0.000333679
-8.43875e-10
-0.000531816
0.00118469
-1.26909e-10
0.000532247
0.000448326
9.99762e-10
0.000242884
0.000369785
-4.88491e-10
-6.2286e-05
0.000624457
-6.23154e-10
0.00012376
0.000491566
3.06654e-10
0.000212504
0.00047387
2.39122e-10
0.000274125
0.000449013
5.87752e-11
0.000322226
0.000405407
1.6984e-10
0.000330195
0.000368416
2.21477e-10
0.000326545
0.000343985
2.33797e-10
0.000322138
0.000338732
2.35877e-10
0.000317046
0.000340351
2.01513e-10
0.000302967
0.000343112
1.72568e-10
0.000284298
0.000340703
1.22755e-10
0.000259362
0.000343518
7.53429e-11
0.000219794
0.000353542
1.94346e-11
0.000174541
0.000371132
-1.14168e-11
0.000108437
0.000391063
-7.70552e-11
3.93999e-05
0.000419487
-1.42403e-10
0.000443378
-1.84636e-10
0.00208632
1.16986e-06
-1.18584e-11
0.00195477
5.92298e-06
-3.86476e-11
0.00181003
1.47495e-05
-6.87658e-11
0.00153033
5.58959e-05
-2.3355e-10
-0.000156989
0.000380304
-1.1544e-09
-0.000568249
0.00159165
3.23897e-10
0.00053261
0.000630278
7.38308e-10
0.000281837
0.000483223
-1.69359e-10
-4.79838e-05
0.000809096
-1.79885e-10
0.000133993
0.000671672
2.30272e-10
0.000233645
0.000623056
1.34387e-10
0.000292492
0.000600646
6.54344e-11
0.000341297
0.000544293
1.42597e-10
0.000352002
0.000494876
1.25597e-10
0.000348614
0.000460345
2.55459e-10
0.00034302
0.00045155
2.40995e-10
0.000336461
0.00045216
1.83075e-10
0.000320782
0.000456527
1.78684e-10
0.000300696
0.000454765
1.32377e-10
0.000273642
0.00045894
8.55538e-11
0.000231859
0.000474344
3.11816e-11
0.00018418
0.000499401
-2.86365e-12
0.000115136
0.000528796
-6.31059e-11
4.26424e-05
0.00057111
-1.11818e-10
0.000606644
-1.34892e-10
0.00208212
1.29532e-06
-1.16029e-11
0.00195831
6.67261e-06
-3.88479e-11
0.00182185
1.64506e-05
-6.9306e-11
0.00155732
6.0801e-05
-2.44254e-10
3.6587e-05
0.000389925
-1.09249e-09
-0.000605555
0.00196787
2.63086e-10
0.000518417
0.000852956
8.81826e-10
0.000331039
0.00058578
-2.11574e-10
-2.70819e-05
0.000971283
-2.88876e-11
0.000144275
0.000872429
3.95134e-10
0.000258437
0.00076756
1.92065e-10
0.000313684
0.000757098
-3.10363e-11
0.000363794
0.000685798
-6.86478e-12
0.000378125
0.000623872
1.58094e-10
0.000375951
0.000577822
2.73232e-10
0.000368339
0.000564278
2.24396e-10
0.000361025
0.0005627
1.89554e-10
0.000344339
0.000569207
1.87643e-10
0.000322458
0.000568876
1.34994e-10
0.00029336
0.000574799
8.57248e-11
0.000249476
0.000596659
3.60759e-11
0.000199451
0.000630166
1.15806e-11
0.000127058
0.000671571
-4.02213e-11
4.99076e-05
0.000731059
-7.44189e-11
0.000784717
-8.30845e-11
0.0020772
1.34026e-06
-1.0563e-11
0.00196284
7.13057e-06
-3.64181e-11
0.00183709
1.73199e-05
-6.43805e-11
0.00158488
6.13784e-05
-2.3165e-10
0.000252488
0.000367158
-1.04831e-09
-0.000683899
0.0022792
-2.66788e-10
0.00047613
0.00113243
1.2621e-09
0.000384976
0.000677899
-2.72168e-10
4.24577e-06
0.00109593
-3.40569e-10
0.000162039
0.0010907
5.25448e-10
0.000286077
0.000914177
2.99671e-10
0.00033724
0.000915386
9.36331e-11
0.000389611
0.000831012
-7.45353e-12
0.000409405
0.000756091
1.33696e-10
0.000407634
0.000697606
1.76681e-10
0.000398234
0.000676838
1.572e-10
0.00039057
0.000672153
1.81463e-10
0.000373503
0.000680864
1.76633e-10
0.000350162
0.000682433
1.34424e-10
0.000319253
0.000690998
8.85981e-11
0.000274174
0.000719334
4.80459e-11
0.000221045
0.000763526
3.30964e-11
0.000146606
0.00081847
-9.54563e-12
6.29581e-05
0.000903358
-2.79905e-11
0.000984015
-3.81921e-11
0.0020718
1.3115e-06
-9.42204e-12
0.00196794
7.33041e-06
-3.44195e-11
0.00185278
1.74842e-05
-5.98238e-11
0.00161927
5.87488e-05
-2.08861e-10
0.000595687
0.000324437
-9.06798e-10
-0.000741209
0.00249433
-6.63417e-10
0.000381065
0.00149284
1.38068e-09
0.000441839
0.00076303
-1.31058e-10
6.77867e-05
0.00119758
-2.96594e-10
0.000189932
0.00131429
5.2971e-10
0.000314816
0.00106628
6.18621e-10
0.000364851
0.00107639
2.33884e-10
0.000419361
0.000981174
6.42087e-11
0.000445804
0.000893817
1.71657e-10
0.000443051
0.000820837
1.16687e-10
0.000432208
0.000789279
1.19698e-10
0.000424837
0.000780652
1.18106e-10
0.000408424
0.000790766
1.81216e-10
0.000384636
0.000795237
1.29023e-10
0.00035293
0.000806878
9.59444e-11
0.000308278
0.000840046
7.0598e-11
0.000250761
0.000899789
6.8138e-11
0.00017322
0.000972239
3.79816e-11
8.46049e-05
0.00108723
1.98146e-11
0.0012162
1.55531e-11
0.00206628
1.22831e-06
-7.63542e-12
0.00197389
7.33039e-06
-3.11844e-11
0.00186665
1.70447e-05
-5.44737e-11
0.00165512
5.40497e-05
-1.85402e-10
0.000907944
0.00028076
-7.69248e-10
-0.000852281
0.0025211
-1.31084e-09
0.000277631
0.00196306
1.6255e-09
0.000496604
0.000857163
9.01616e-11
0.000123774
0.00128724
-2.72658e-10
0.000220103
0.00154375
6.8321e-10
0.000345219
0.00122358
6.41887e-10
0.000396438
0.00123665
2.73603e-10
0.000453639
0.00113653
2.07734e-10
0.000486115
0.00103742
1.94856e-10
0.000481859
0.000948947
1.36078e-10
0.000471187
0.000902312
1.36852e-10
0.000463503
0.000888345
1.22491e-10
0.000449812
0.000898716
1.44613e-10
0.000426286
0.000906945
1.18519e-10
0.00039567
0.000921262
9.10927e-11
0.000352743
0.000959989
8.58684e-11
0.000293674
0.00103767
7.33093e-11
0.000214926
0.00113218
6.11323e-11
0.000119816
0.0012844
5.70653e-11
0.00149681
7.83897e-11
0.00206122
1.14944e-06
-5.94498e-12
0.0019802
7.07633e-06
-2.74505e-11
0.00187831
1.59883e-05
-4.73781e-11
0.00169515
4.80921e-05
-1.53669e-10
0.00115936
0.000239609
-6.39626e-10
-0.000867207
0.00229806
-2.10685e-09
0.000195783
0.00257744
1.99434e-09
0.00054655
0.000978626
3.0465e-10
0.000206313
0.00136006
-2.61272e-10
0.000252772
0.00176015
8.85317e-10
0.000381263
0.00139036
5.85084e-10
0.000432639
0.00139103
2.87262e-10
0.000492659
0.00129692
2.65598e-10
0.000529474
0.00118701
1.7269e-10
0.000524399
0.00108336
1.39719e-10
0.000514451
0.00101729
1.27494e-10
0.000506268
0.000995765
1.13293e-10
0.000497114
0.00100223
1.05994e-10
0.000475989
0.00101621
9.90865e-11
0.000448316
0.00103167
9.1778e-11
0.000410246
0.00107699
8.62824e-11
0.000360326
0.00116868
8.30714e-11
0.000282187
0.00129474
7.9044e-11
0.000183777
0.00148769
8.56654e-11
0.00185329
1.5218e-10
0.00205681
-4.51141e-12
1.07884e-06
0.00198444
-2.36097e-11
6.55338e-06
0.00189162
-3.81214e-11
1.45396e-05
0.00173631
-1.20862e-10
4.15784e-05
0.00133684
-5.15817e-10
0.00020103
-0.000663395
-2.50043e-09
0.00185839
0.000130084
2.09088e-09
0.00329322
0.000584502
5.80266e-10
0.00113519
0.000302439
-2.41488e-10
0.00142202
0.000292381
8.60567e-10
0.00195866
0.000425614
5.97984e-10
0.00159228
0.000475791
2.51098e-10
0.00154049
0.000536528
2.13461e-10
0.00146373
0.000575228
1.5698e-10
0.00134292
0.000571055
1.63266e-10
0.0012253
0.000561446
1.35273e-10
0.00113477
0.000553057
1.09858e-10
0.00110381
0.000549592
8.55596e-11
0.00110007
0.000534691
8.52999e-11
0.00112169
0.00051208
9.99286e-11
0.00113785
0.000483943
9.63736e-11
0.00118411
0.000450722
9.6488e-11
0.00128124
0.00039568
1.04469e-10
0.0014362
0.000302407
1.17992e-10
0.00168569
1.53468e-10
0.00232104
0.00209269
3.24672e-07
5.33596e-12
0.00195055
1.62529e-06
1.78664e-11
0.00179447
4.13113e-06
3.28443e-11
0.00146566
1.63068e-05
1.13016e-10
-0.000434307
0.000125859
5.0964e-10
-0.00050137
0.000388915
-5.89826e-10
0.00053617
0.000143522
-2.02588e-10
0.000211827
0.000127192
1.50898e-10
-6.69086e-05
0.000213965
9.43041e-10
0.000117297
0.000163191
-7.22581e-12
0.00019301
0.000160817
-2.71523e-10
0.000253654
0.000151102
-7.09988e-11
0.000299701
0.000134838
-3.10681e-11
0.000305705
0.000122191
-7.3199e-11
0.000301187
0.000114199
-8.27618e-11
0.000297807
0.00011265
-6.94504e-11
0.000295111
0.000113368
-3.57523e-11
0.000283809
0.000114538
-1.14462e-11
0.000266719
0.000113372
1.16637e-11
0.000245173
0.000113757
5.30407e-11
0.000207703
0.000116391
5.47269e-11
0.000166747
0.000121809
6.83226e-11
0.00010648
0.000126922
5.64813e-11
4.04682e-05
0.000134665
5.58453e-11
0.000140776
8.84223e-11
0.00209166
6.74845e-07
3.02833e-12
0.00195105
3.33773e-06
1.03523e-11
0.00179675
8.37919e-06
1.55211e-11
0.00147394
3.25317e-05
4.01785e-11
-0.000467524
0.000247074
1.10243e-10
-0.000519094
0.000777774
4.06874e-11
0.00053014
0.000290379
-8.32762e-10
0.000217984
0.000251583
5.71247e-10
-6.94164e-05
0.000423967
9.14925e-10
0.000116878
0.000323963
-3.97575e-10
0.000199294
0.000318422
7.37565e-12
0.000261201
0.000300186
-3.31457e-11
0.00030871
0.000269064
5.0839e-11
0.000316389
0.000244268
-9.84743e-11
0.000311528
0.000229333
-8.98225e-11
0.000307248
0.000226158
-6.40912e-11
0.000303261
0.000227278
-3.34122e-11
0.000291039
0.000229155
-1.7904e-11
0.000273073
0.000227142
1.12279e-11
0.000250003
0.000228522
4.84508e-11
0.000211488
0.000234392
5.19098e-11
0.000168882
0.000245286
6.3219e-11
0.000105966
0.000256948
5.15547e-11
3.90169e-05
0.000274485
5.39654e-11
0.000288702
8.61804e-11
0.00208954
9.64164e-07
4.65839e-12
0.00195241
4.81092e-06
1.49929e-11
0.00180215
1.20395e-05
2.61574e-11
0.00149884
4.62669e-05
8.22658e-11
-0.000320012
0.000333455
3.63597e-10
-0.000531504
0.00118432
2.00267e-10
0.000532392
0.000448272
-4.86012e-10
0.000242781
0.00036977
3.05621e-10
-6.21999e-05
0.000624092
5.19125e-10
0.000123977
0.000491575
-3.5851e-11
0.000212427
0.000473751
-1.04557e-10
0.000274038
0.000449311
1.34756e-10
0.00032214
0.000405762
3.81689e-11
0.000330005
0.000368836
-1.90917e-11
0.000326364
0.000344282
-4.33088e-11
0.000321981
0.000338909
-6.53923e-11
0.00031687
0.000340505
-5.1629e-11
0.000302818
0.000343187
-3.83716e-11
0.000284191
0.00034073
-1.83962e-13
0.000259294
0.00034352
3.74918e-11
0.000219758
0.000353523
4.31282e-11
0.000174535
0.000371085
5.22501e-11
0.000108446
0.000390987
4.59608e-11
3.94136e-05
0.000419372
5.33884e-11
0.00044329
8.52858e-11
0.00208633
1.1702e-06
5.72081e-12
0.00195476
5.92363e-06
1.95963e-11
0.00181001
1.4751e-05
3.48597e-11
0.00153022
5.59016e-05
1.17668e-10
-0.000157708
0.000380414
6.0283e-10
-0.000568128
0.0015908
-2.66486e-10
0.000532533
0.000630209
-2.43122e-10
0.000281408
0.000483267
8.11868e-11
-4.84381e-05
0.00080901
-3.83238e-11
0.000133348
0.000671784
6.19146e-11
0.000232892
0.000623314
6.43577e-11
0.000291688
0.000601085
3.19624e-11
0.000340572
0.000544631
-2.98582e-11
0.000351304
0.000495054
2.46575e-11
0.000348114
0.000460424
-8.49454e-11
0.000342678
0.00045164
-8.14246e-11
0.000336211
0.000452235
-4.57923e-11
0.00032059
0.000456531
-4.24293e-11
0.000300564
0.000454755
-1.10893e-11
0.000273556
0.000458916
2.03823e-11
0.000231802
0.000474309
3.07529e-11
0.000184165
0.000499322
4.49773e-11
0.000115138
0.000528694
3.96642e-11
4.26552e-05
0.000570965
5.10797e-11
0.000606536
8.3774e-11
0.00208214
1.29618e-06
5.65477e-12
0.00195831
6.67516e-06
2.00658e-11
0.00182182
1.64568e-05
3.57872e-11
0.00155727
6.08259e-05
1.25575e-10
3.60198e-05
0.000390118
5.66337e-10
-0.000605313
0.00196735
-2.70447e-10
0.000518366
0.000852843
-3.07349e-10
0.000330573
0.000586032
1.69842e-10
-2.76174e-05
0.000971452
-2.49504e-10
0.000143074
0.000872582
-9.49312e-11
0.000257181
0.000768131
6.73087e-11
0.000312379
0.000757287
7.03191e-11
0.000362705
0.000685921
8.7902e-11
0.000377166
0.000623641
-4.5169e-12
0.000375275
0.000577614
-1.02816e-10
0.000367924
0.000564159
-6.99219e-11
0.000360723
0.000562624
-6.56186e-11
0.000344127
0.00056911
-6.35913e-11
0.000322311
0.000568813
-2.27556e-11
0.000293255
0.000574739
5.05423e-12
0.000249413
0.000596594
2.46472e-11
0.00019942
0.000630064
3.39293e-11
0.000127047
0.000671441
3.03459e-11
4.99094e-05
0.000730891
4.53978e-11
0.000784566
8.35033e-11
0.00207722
1.34125e-06
4.89001e-12
0.00196283
7.13323e-06
1.82832e-11
0.00183706
1.73266e-05
3.2445e-11
0.00158482
6.14043e-05
1.17145e-10
0.000252007
0.00036735
5.32662e-10
-0.000683548
0.00227917
5.07888e-11
0.00047617
0.00113225
-5.32977e-10
0.000384544
0.000678367
2.7552e-10
3.42326e-06
0.00109686
5.88855e-11
0.000160588
0.00109107
-2.62173e-10
0.00028476
0.000914841
-1.35382e-10
0.000335921
0.000915495
-1.0558e-10
0.000388512
0.000830581
3.07961e-11
0.000408485
0.000755321
-4.48478e-11
0.000407022
0.000697058
-4.39108e-11
0.000397853
0.000676534
-1.91536e-11
0.000390274
0.000671927
-6.16434e-11
0.000373285
0.00068067
-6.33409e-11
0.000350014
0.000682302
-2.98818e-11
0.000319145
0.000690896
-1.67939e-12
0.000274104
0.000719243
1.45833e-11
0.000221001
0.000763413
2.17467e-11
0.00014657
0.000818335
1.83769e-11
6.29344e-05
0.000903188
3.77299e-11
0.000983816
9.24723e-11
0.00207182
1.31274e-06
3.92167e-12
0.00196793
7.33398e-06
1.62468e-11
0.00185275
1.7493e-05
2.85603e-11
0.0016192
5.87809e-05
1.00895e-10
0.000594925
0.000324633
4.37987e-10
-0.000740651
0.0024945
2.77174e-10
0.000381392
0.00149252
-6.18628e-10
0.000441495
0.000763647
2.24533e-10
6.72978e-05
0.00119858
1.08675e-10
0.000188755
0.00131486
-3.89168e-10
0.000313579
0.00106743
-1.84288e-10
0.000363733
0.00107623
-1.242e-10
0.000418507
0.00098041
-2.64383e-11
0.000445029
0.000892809
-9.92752e-11
0.00044259
0.000820116
-2.53848e-11
0.00043191
0.000788817
-9.83545e-12
0.000424625
0.000780371
-1.97353e-11
0.000408229
0.000790523
-6.59496e-11
0.000384496
0.000795036
-3.01012e-11
0.000352835
0.000806711
-9.41107e-12
0.000308203
0.000839893
-3.00887e-12
0.000250701
0.000899653
8.6869e-13
0.00017317
0.000972114
4.04843e-12
8.4554e-05
0.00108707
2.83715e-11
0.00121594
1.01876e-10
0.00206629
1.22931e-06
2.66423e-12
0.00197388
7.33436e-06
1.34088e-11
0.00186663
1.70547e-05
2.40531e-11
0.00165504
5.40856e-05
8.44674e-11
0.000907337
0.000280952
3.54121e-10
-0.000851555
0.00252191
5.95818e-10
0.000277874
0.00196253
-7.34107e-10
0.000496374
0.000857707
5.35252e-11
0.00012363
0.00128827
9.49912e-11
0.000219646
0.00154442
-6.53892e-10
0.000344507
0.00122466
-1.84486e-10
0.000395828
0.00123639
-8.21383e-11
0.000453087
0.00113591
-9.20346e-11
0.00048561
0.00103667
-1.01462e-10
0.00048152
0.00094838
-5.10423e-11
0.000470941
0.000901841
-4.97373e-11
0.000463347
0.000887975
-4.09111e-11
0.000449671
0.000898419
-4.80318e-11
0.000426176
0.000906686
-2.7179e-11
0.000395586
0.000921058
-9.67719e-12
0.000352671
0.00095983
-9.72642e-12
0.000293614
0.00103753
2.87131e-12
0.00021487
0.00113205
6.93143e-12
0.000119757
0.00128423
2.75028e-11
0.00149651
1.01666e-10
0.00206123
1.15022e-06
1.62365e-12
0.00198019
7.08037e-06
1.04745e-11
0.00187828
1.59982e-05
1.88891e-11
0.00169505
4.81256e-05
6.48457e-11
0.00115891
0.00023978
2.79867e-10
-0.000866689
0.00229948
9.55526e-10
0.000196336
0.00257667
-8.71445e-10
0.000546488
0.000979047
-6.07999e-11
0.000206389
0.00136108
1.48259e-10
0.000252931
0.00176072
-8.06208e-10
0.000381102
0.00139121
-1.46871e-10
0.000432506
0.00139095
-8.92731e-11
0.000492463
0.00129668
-1.09453e-10
0.000529267
0.00118661
-6.28298e-11
0.000524245
0.00108298
-4.77567e-11
0.000514328
0.00101683
-3.92163e-11
0.000506177
0.000995343
-3.41309e-11
0.000497047
0.00100187
-2.70934e-11
0.000475925
0.00101592
-1.67596e-11
0.000448258
0.00103145
-1.36465e-11
0.000410186
0.00107682
-6.27941e-12
0.000360265
0.00116854
5.59706e-12
0.000282127
0.00129462
5.97697e-12
0.000183721
0.00148752
1.39155e-11
0.00185294
6.12334e-11
0.00205682
8.32924e-13
1.0794e-06
0.00198443
7.76426e-12
6.55707e-06
0.00189159
1.33046e-11
1.45483e-05
0.00173622
4.60325e-11
4.16074e-05
0.00133658
2.09841e-10
0.000201181
-0.000663571
1.07877e-09
0.00185998
0.000130478
-8.64853e-10
0.0032924
0.000584525
-1.67815e-10
0.00113543
0.000302614
1.84225e-10
0.00142294
0.000292946
-6.76686e-10
0.00195915
0.000425815
-1.8046e-10
0.00159286
0.000476012
-5.44992e-11
0.00154082
0.000536662
-5.33184e-11
0.0014638
0.000575302
-3.69205e-11
0.00134279
0.000571108
-5.41053e-11
0.00122505
0.000561463
-4.48111e-11
0.00113436
0.000553055
-3.57613e-11
0.00110339
0.000549591
-1.49261e-11
0.00109965
0.000534677
-4.98202e-12
0.00112136
0.000512042
-6.07533e-12
0.00113758
0.000483899
-2.58368e-12
0.0011839
0.000450674
2.87336e-12
0.0012811
0.000395613
3.07866e-12
0.0014361
0.000302333
1.31201e-11
0.00168555
4.42258e-11
0.00232063
0.00209269
3.23342e-07
-8.83574e-13
0.00195056
1.62001e-06
-3.39818e-12
0.00179449
4.11696e-06
-6.74194e-12
0.00146578
1.62418e-05
-2.6605e-11
-0.000434589
0.000125268
-1.36175e-10
-0.000501132
0.000389073
6.13074e-11
0.000536477
0.000143561
-2.20472e-11
0.000212238
0.000127468
-3.63454e-11
-6.68177e-05
0.000214346
-3.22977e-11
0.000116424
0.000163446
4.20432e-11
0.000192118
0.00016107
4.56546e-11
0.000252795
0.00015122
4.33006e-11
0.000299081
0.000134556
3.87163e-11
0.00030538
0.000121926
3.71092e-11
0.000301039
0.00011402
3.97317e-11
0.000297743
0.00011255
2.44119e-11
0.000295098
0.000113285
1.71613e-11
0.000283797
0.000114484
2.13786e-12
0.00026668
0.000113342
-2.16615e-11
0.000245097
0.000113743
-6.64323e-11
0.000207596
0.000116386
-1.24101e-10
0.000166612
0.000121809
-1.36756e-10
0.000106347
0.000126927
-1.79891e-10
4.03924e-05
0.000134673
-1.88574e-10
0.000140782
-1.3417e-10
0.00209166
6.75895e-07
-6.56696e-13
0.00195104
3.34135e-06
-2.65421e-12
0.00179672
8.38899e-06
-5.08286e-12
0.00147378
3.25806e-05
-1.95898e-11
-0.000467758
0.00024765
-9.67389e-11
-0.000520198
0.000777909
1.45946e-11
0.000528984
0.000290694
2.83692e-11
0.000217049
0.000251575
-5.06823e-11
-7.09832e-05
0.000424965
-6.42473e-11
0.00011444
0.000324068
8.90246e-11
0.000197541
0.00031862
3.88237e-11
0.000259983
0.000299742
3.32178e-11
0.00030806
0.000268412
2.60143e-11
0.000316163
0.000243654
3.82007e-11
0.000311461
0.000229005
3.0408e-11
0.00030722
0.000226003
1.66849e-11
0.000303257
0.000227127
2.08743e-11
0.000291037
0.000229052
3.28034e-12
0.000273042
0.000227085
-2.29214e-11
0.000249932
0.000228496
-6.46516e-11
0.000211385
0.000234384
-1.19283e-10
0.00016875
0.000245288
-1.3204e-10
0.000105835
0.000256959
-1.74882e-10
3.89416e-05
0.000274502
-1.79316e-10
0.000288715
-1.23679e-10
0.00208954
9.6467e-07
-6.14411e-13
0.00195241
4.81423e-06
-2.4512e-12
0.00180216
1.20475e-05
-4.76021e-12
0.00149888
4.62983e-05
-1.82112e-11
-0.000319673
0.000333659
-1.00773e-10
-0.000531552
0.00118466
-1.31772e-11
0.000532458
0.000448359
4.59086e-11
0.00024297
0.000370023
-4.97749e-11
-6.20812e-05
0.000624818
-7.94997e-11
0.000124078
0.000491507
1.23281e-10
0.000212658
0.000473831
1.13723e-11
0.000274187
0.000448929
-1.01913e-11
0.000322181
0.000405331
-1.22247e-11
0.000330102
0.000368336
1.38546e-11
0.000326443
0.000343918
1.64016e-11
0.000322037
0.000338677
1.8527e-11
0.000316956
0.000340321
1.33561e-11
0.000302868
0.00034308
5.10009e-12
0.000284187
0.000340673
-2.03435e-11
0.000259237
0.000343493
-5.82241e-11
0.000219665
0.000353517
-1.10299e-10
0.000174411
0.000371089
-1.23015e-10
0.000108318
0.000391009
-1.68997e-10
3.93384e-05
0.000419396
-1.69416e-10
0.000443311
-1.12007e-10
0.00208632
1.17004e-06
-5.44869e-13
0.00195476
5.92348e-06
-2.14543e-12
0.00181002
1.47507e-05
-3.96066e-12
0.00153029
5.59007e-05
-1.46194e-11
-0.000157254
0.000380362
-7.36112e-11
-0.000568021
0.00159138
-4.48772e-11
0.00053285
0.000630252
6.74129e-11
0.000281892
0.000483414
-4.65409e-11
-4.78268e-05
0.000809428
1.17631e-11
0.000134363
0.000671688
9.09592e-11
0.000233893
0.000623045
-2.32941e-11
0.000292646
0.000600601
-2.12797e-11
0.000341348
0.000544233
1.27947e-12
0.000351984
0.000494847
2.69759e-12
0.000348552
0.000460321
1.7423e-11
0.000342944
0.000451521
1.30605e-11
0.000336379
0.000452131
-8.5991e-12
0.000320685
0.000456473
-7.24284e-13
0.00030059
0.000454721
-1.92089e-11
0.000273519
0.000458905
-5.18945e-11
0.000231726
0.000474312
-9.99878e-11
0.000184045
0.000499343
-1.16535e-10
0.000115015
0.000528723
-1.60611e-10
4.25797e-05
0.000570998
-1.55997e-10
0.000606563
-9.9014e-11
0.00208213
1.29554e-06
-6.98036e-13
0.00195831
6.6732e-06
-2.34953e-12
0.00182183
1.64522e-05
-4.23886e-12
0.0015573
6.08092e-05
-1.51591e-11
3.63499e-05
0.000389995
-7.12316e-11
-0.000605272
0.00196761
1.92484e-11
0.000518752
0.000852847
4.21738e-11
0.000331091
0.000585937
-1.94977e-11
-2.69413e-05
0.00097143
6.2313e-11
0.000144632
0.000872573
3.65748e-11
0.00025865
0.000767505
1.66289e-11
0.000313783
0.000757193
4.56592e-12
0.000363756
0.000685859
-1.38813e-11
0.000377992
0.000623916
3.20317e-12
0.000375813
0.000577779
2.0918e-11
0.000368222
0.000564206
1.51382e-12
0.000360942
0.000562623
-6.93576e-12
0.000344264
0.00056913
1.72677e-12
0.000322362
0.000568823
-1.72488e-11
0.000293237
0.000574752
-4.79998e-11
0.000249343
0.000596618
-9.38383e-11
0.000199309
0.000630099
-1.04484e-10
0.000126927
0.000671484
-1.45453e-10
4.98341e-05
0.000730931
-1.40694e-10
0.000784599
-8.18268e-11
0.00207721
1.34043e-06
-6.10722e-13
0.00196283
7.13077e-06
-2.092e-12
0.00183707
1.73208e-05
-3.65984e-12
0.00158485
6.13843e-05
-1.3061e-11
0.000252267
0.000367218
-6.04432e-11
-0.000683599
0.00227901
5.63002e-11
0.000476514
0.00113225
5.97211e-11
0.000384987
0.000678063
-1.19438e-11
4.23987e-06
0.00109622
-2.18286e-11
0.000162282
0.00109081
3.37649e-12
0.000286256
0.000914267
9.39516e-11
0.000337263
0.000915697
5.34817e-11
0.000389544
0.000831038
4.9697e-12
0.000409297
0.000755985
2.50723e-12
0.000407528
0.00069743
-1.4536e-11
0.000398139
0.000676698
-1.92011e-11
0.000390495
0.000672029
-7.97536e-12
0.000373432
0.000680758
-4.21971e-12
0.000350074
0.000682369
-1.50284e-11
0.000319135
0.000690944
-4.35162e-11
0.000274041
0.000719287
-8.20777e-11
0.000220898
0.00076346
-8.65432e-11
0.000146458
0.000818388
-1.22979e-10
6.2859e-05
0.000903236
-1.22523e-10
0.000983851
-6.58688e-11
0.00207181
1.31186e-06
-3.29778e-13
0.00196794
7.33104e-06
-1.318e-12
0.00185276
1.74861e-05
-2.17015e-12
0.00161923
5.87579e-05
-6.65793e-12
0.000595301
0.000324505
-2.12776e-11
-0.000740853
0.00249418
5.59824e-11
0.00038156
0.00149253
6.70751e-11
0.000441808
0.000763206
-1.10809e-11
6.7761e-05
0.00119778
1.3928e-11
0.000189945
0.00131449
2.25491e-13
0.000314664
0.00106695
4.61523e-11
0.000364731
0.00107658
7.66122e-11
0.000419297
0.000981054
2.40811e-11
0.000445712
0.000893565
1.44969e-11
0.000442984
0.00082057
-2.65934e-11
0.000432149
0.000789065
-2.95499e-11
0.00042479
0.000780505
-2.65078e-11
0.000408354
0.000790651
-4.18538e-12
0.000384549
0.000795144
-1.4089e-11
0.000352819
0.000806791
-3.71745e-11
0.000308144
0.00083997
-6.25616e-11
0.000250607
0.00089971
-5.85719e-11
0.000173061
0.000972172
-9.04083e-11
8.44761e-05
0.00108713
-9.81341e-11
0.00121597
-4.63099e-11
0.00206628
1.22869e-06
4.54883e-16
0.00197389
7.33155e-06
-2.27079e-13
0.00186664
1.70479e-05
-3.39893e-13
0.00165508
5.4063e-05
-3.79865e-13
0.000907611
0.000280836
7.28725e-12
-0.000851915
0.0025213
7.91855e-11
0.000277903
0.00196254
6.14056e-11
0.00049654
0.00085728
1.57587e-12
0.000123726
0.00128741
4.32428e-11
0.000220073
0.00154399
7.52782e-11
0.000345042
0.0012244
-3.13794e-12
0.000396325
0.00123675
2.0996e-11
0.000453577
0.00113642
1.56214e-11
0.000486033
0.00103721
7.77073e-12
0.000481782
0.000948704
1.26384e-11
0.000471123
0.000902078
8.25287e-13
0.000463471
0.00088817
-1.16503e-11
0.000449755
0.000898585
-1.0791e-11
0.000426209
0.000906827
-1.39802e-11
0.000395562
0.000921167
-3.54651e-11
0.000352604
0.000959912
-4.79358e-11
0.000293521
0.00103759
-5.71348e-11
0.000214769
0.00113212
-7.35543e-11
0.00011968
0.00128429
-7.24739e-11
0.00149654
-2.19256e-11
0.00206123
1.14978e-06
1.83346e-13
0.00198019
7.07792e-06
7.45433e-13
0.0018783
1.59924e-05
1.308e-12
0.0016951
4.81066e-05
4.67471e-12
0.00115911
0.000239683
2.4686e-11
-0.000866951
0.00229864
1.45003e-10
0.000196205
0.00257669
4.58328e-11
0.000546527
0.000978671
3.31054e-11
0.000206252
0.00136028
2.19347e-11
0.000252825
0.00176039
1.89595e-10
0.000381216
0.00139107
-6.53436e-11
0.000432603
0.00139111
2.88931e-11
0.000492626
0.00129691
-1.08217e-11
0.000529428
0.00118687
-4.15833e-11
0.000524354
0.00108314
6.3874e-12
0.000514411
0.00101706
-3.71713e-12
0.000506237
0.000995545
-2.46724e-12
0.000497076
0.00100206
-1.30168e-11
0.000475926
0.00101607
-1.91685e-11
0.000448222
0.00103157
-2.5854e-11
0.00041011
0.00107691
-4.16887e-11
0.000360167
0.0011686
-4.88505e-11
0.00028203
0.00129469
-5.80686e-11
0.00018365
0.00148758
-5.21395e-11
0.00185297
1.028e-11
0.00205682
2.61547e-13
1.07913e-06
0.00198444
1.45785e-12
6.5551e-06
0.0018916
2.39762e-12
1.45437e-05
0.00173626
7.93999e-12
4.15926e-05
0.00133669
3.69497e-11
0.000201103
-0.000663496
2.31576e-10
0.00185916
0.000130357
3.01537e-11
0.00329237
0.000584513
4.6507e-11
0.00113511
0.000302431
-2.22408e-11
0.00142229
0.000292565
1.76462e-10
0.00195893
0.00042567
-5.38001e-11
0.00159276
0.000475836
-3.75176e-12
0.00154068
0.000536555
-7.07807e-11
0.0014638
0.000575233
-5.50124e-11
0.0013428
0.000571047
9.41606e-12
0.00122504
0.000561452
6.13468e-12
0.0011345
0.00055306
6.69084e-12
0.00110356
0.000549581
-1.23065e-11
0.00109987
0.000534645
-2.6797e-11
0.00112152
0.000511986
-2.64062e-11
0.00113769
0.000483814
-3.5773e-11
0.00118399
0.000450575
-4.19919e-11
0.00128117
0.000395512
-4.42864e-11
0.00143616
0.000302257
-2.90101e-11
0.00168561
1.1329e-11
0.00232064
0.00209269
3.23484e-07
3.05623e-12
0.00195055
1.62058e-06
1.5439e-11
0.00179449
4.11846e-06
3.40115e-11
0.00146576
1.62484e-05
1.53446e-10
-0.000434532
0.000125328
8.79217e-10
-0.000501171
0.000389087
-3.23451e-13
0.000536384
0.000143561
-4.27575e-10
0.000212142
0.000127484
5.19212e-11
-6.68702e-05
0.000214334
-9.14311e-11
0.000116437
0.00016342
-3.51953e-11
0.000192139
0.000161079
-4.52055e-11
0.000252801
0.000151226
-9.92449e-11
0.00029905
0.000134573
-1.35375e-10
0.000305326
0.000121943
-1.33057e-10
0.000300967
0.000114034
-9.5818e-11
0.000297666
0.000112553
-5.25718e-11
0.000295029
0.000113294
-1.64703e-11
0.00028373
0.000114491
6.95706e-12
0.000266611
0.000113347
2.11756e-11
0.000245022
0.000113748
2.57954e-11
0.000207519
0.00011639
4.22196e-11
0.000166535
0.000121812
5.3185e-11
0.000106276
0.000126929
8.34832e-11
4.03549e-05
0.000134672
1.20007e-10
0.000140778
1.4871e-10
0.00209166
6.75924e-07
2.96655e-12
0.00195104
3.34153e-06
1.48138e-11
0.00179672
8.38939e-06
3.21707e-11
0.00147378
3.25816e-05
1.4355e-10
-0.000467719
0.000247649
8.05556e-10
-0.000520147
0.000777948
8.96572e-11
0.000529006
0.000290674
-4.39135e-10
0.00021706
0.000251621
8.68776e-11
-7.08874e-05
0.000424921
-3.11059e-11
0.000114609
0.000324055
-3.6459e-11
0.00019764
0.000318652
-2.51057e-11
0.000260029
0.000299784
-8.29469e-11
0.000308047
0.000268466
-1.1076e-10
0.000316109
0.000243712
-1.17742e-10
0.000311388
0.000229028
-9.87056e-11
0.000307157
0.000226005
-6.3202e-11
0.000303189
0.000227152
-2.10307e-11
0.000290972
0.000229067
3.7975e-13
0.000272972
0.000227098
1.6676e-11
0.000249855
0.000228507
2.32221e-11
0.000211306
0.000234392
4.00364e-11
0.00016867
0.000245293
5.12564e-11
0.000105761
0.000256963
8.15048e-11
3.89021e-05
0.000274502
1.12831e-10
0.000288711
1.4512e-10
0.00208954
9.64702e-07
2.83313e-12
0.00195241
4.81435e-06
1.39718e-11
0.00180215
1.20479e-05
3.01183e-11
0.00149887
4.63008e-05
1.33796e-10
-0.000319741
0.000333686
8.26099e-10
-0.00053154
0.00118468
9.45027e-11
0.000532454
0.000448348
-4.50532e-10
0.000242971
0.000370025
1.28567e-10
-6.198e-05
0.00062477
3.88054e-11
0.000124244
0.000491491
-2.83996e-11
0.000212736
0.000473827
-7.67888e-12
0.000274229
0.000448985
-5.40694e-11
0.000322195
0.000405403
-8.62025e-11
0.000330061
0.00036845
-1.02828e-10
0.000326384
0.000343977
-9.64426e-11
0.000321976
0.000338703
-6.73754e-11
0.000316884
0.000340357
-3.53931e-11
0.000302794
0.000343099
-5.93228e-12
0.000284112
0.000340687
1.07404e-11
0.000259156
0.000343506
2.09646e-11
0.000219583
0.000353529
3.82178e-11
0.000174327
0.000371098
4.85936e-11
0.000108242
0.000391013
7.85864e-11
3.92979e-05