/*--------------------------------*- C++ -*----------------------------------*\
| =========                 |                                                 |
| \\      /  F ield         | OpenFOAM: The Open Source CFD Toolbox           |
|  \\    /   O peration     | Version:  4.1                                   |
|   \\  /    A nd           | Web:      www.OpenFOAM.org                      |
|    \\/     M anipulation  |                                                 |
\*---------------------------------------------------------------------------*/
FoamFile
{
    version     2.0;
    format      ascii;
    class       volScalarField;
    location    "0.6";
    object      T;
}
// * * * * * * * * * * * * * * * * * * * * * * * * * * * * * * * * * * * * * //

dimensions      [0 0 0 1 0 0 0];

internalField   nonuniform List<scalar> 
52500
(
0.368192
0.375252
0.436188
0.722364
1.2821
1.60941
1.41571
1.37283
1.43096
1.30231
1.14886
1.11693
1.11892
1.15479
1.18376
1.16816
1.12281
1.07936
1.06484
1.06159
1.05549
1.05018
1.04863
1.04462
1.00108
0.367538
0.374406
0.433921
0.714889
1.27441
1.61117
1.41894
1.37083
1.43133
1.30435
1.1489
1.11635
1.11769
1.15241
1.1828
1.16821
1.12363
1.0794
1.06444
1.06122
1.05514
1.0499
1.04829
1.04405
0.99987
0.366142
0.37261
0.429058
0.698575
1.24945
1.6129
1.42705
1.368
1.43351
1.31143
1.15087
1.11505
1.11479
1.14701
1.181
1.16855
1.12568
1.08008
1.06435
1.0612
1.0553
1.05017
1.04828
1.04373
0.998547
0.364132
0.370004
0.421963
0.673918
1.21529
1.61185
1.43613
1.3614
1.43625
1.32299
1.15575
1.11428
1.11202
1.14163
1.17891
1.16907
1.12885
1.08144
1.06442
1.06137
1.05553
1.05067
1.04892
1.04413
0.998193
0.361672
0.366792
0.413101
0.641279
1.17488
1.60718
1.44964
1.35128
1.43807
1.33522
1.16206
1.11266
1.10699
1.13209
1.17474
1.1687
1.13257
1.08324
1.06444
1.06129
1.05569
1.05092
1.0489
1.04499
0.996966
0.358934
0.363167
0.403155
0.60334
1.12796
1.59633
1.46669
1.34023
1.43786
1.35133
1.17159
1.1109
1.10086
1.12111
1.16915
1.16765
1.13659
1.08537
1.06438
1.06076
1.05548
1.05112
1.04898
1.04408
0.994961
0.356082
0.359281
0.3928
0.564246
1.06893
1.5778
1.48547
1.3319
1.43301
1.36745
1.18608
1.10957
1.094
1.10825
1.1596
1.16525
1.1407
1.08794
1.0641
1.05957
1.05463
1.05063
1.0476
1.04188
0.991495
0.353292
0.355194
0.382467
0.526653
1.00189
1.54672
1.50487
1.32908
1.42633
1.385
1.20512
1.10955
1.08713
1.09504
1.14684
1.16219
1.14375
1.09166
1.06294
1.05754
1.05262
1.04874
1.04409
1.03722
0.984791
0.35074
0.350792
0.372399
0.491392
0.924644
1.49619
1.52795
1.33162
1.41597
1.39902
1.23025
1.11129
1.08013
1.08241
1.12945
1.15715
1.14481
1.0974
1.06243
1.05523
1.04838
1.04383
1.03852
1.02846
0.969456
0.348506
0.345894
0.363188
0.459026
0.838083
1.41852
1.55288
1.34187
1.40295
1.4102
1.25844
1.11651
1.07273
1.0701
1.1088
1.14904
1.14338
1.10589
1.06196
1.04937
1.04415
1.03782
1.02894
1.01432
0.945246
0.368207
0.37527
0.43623
0.722493
1.28224
1.6094
1.41569
1.37288
1.43098
1.30227
1.14889
1.11697
1.11894
1.15476
1.18373
1.16813
1.12278
1.07934
1.06483
1.06159
1.05548
1.05017
1.04862
1.04463
1.00115
0.367549
0.374419
0.433948
0.714941
1.27441
1.61099
1.41875
1.3709
1.4317
1.30491
1.14916
1.11632
1.11759
1.15217
1.18274
1.16819
1.12362
1.07938
1.06443
1.06121
1.05513
1.04989
1.04828
1.04405
0.99993
0.366154
0.372625
0.429092
0.698666
1.24956
1.61281
1.42688
1.36806
1.43368
1.31159
1.15099
1.11523
1.11501
1.14729
1.18106
1.16853
1.12562
1.08006
1.06434
1.0612
1.0553
1.05017
1.04828
1.04375
0.998598
0.364146
0.370022
0.422003
0.674042
1.21543
1.61184
1.43604
1.36137
1.43612
1.3228
1.15573
1.11437
1.11216
1.14183
1.17899
1.16905
1.12877
1.0814
1.06441
1.06136
1.05553
1.05066
1.04892
1.04415
0.998233
0.361686
0.366809
0.413141
0.64141
1.17501
1.60714
1.44955
1.35128
1.43796
1.33477
1.16165
1.11268
1.10705
1.13223
1.17471
1.16865
1.13251
1.08322
1.06443
1.06128
1.05568
1.05092
1.04889
1.04499
0.997004
0.358947
0.363182
0.403192
0.603464
1.12813
1.59628
1.46657
1.34021
1.43769
1.35089
1.17161
1.11107
1.10134
1.12173
1.16939
1.16766
1.13647
1.08534
1.06437
1.06074
1.05547
1.0511
1.04896
1.04407
0.995008
0.356094
0.359296
0.392835
0.564362
1.0691
1.5778
1.48536
1.33185
1.43288
1.36704
1.18545
1.10984
1.09465
1.10905
1.16018
1.16545
1.14065
1.08787
1.06408
1.05957
1.05462
1.0506
1.04756
1.04186
0.991547
0.353301
0.355208
0.382499
0.526759
1.00208
1.54678
1.50476
1.32905
1.42635
1.38483
1.20445
1.10979
1.08749
1.09542
1.14707
1.16223
1.14371
1.09157
1.06292
1.05753
1.0526
1.04871
1.04403
1.03718
0.984843
0.350747
0.350805
0.372427
0.491482
0.924856
1.49631
1.52786
1.33159
1.41603
1.39896
1.22986
1.11146
1.08016
1.08239
1.12936
1.15709
1.14476
1.09734
1.06242
1.05521
1.04835
1.04379
1.03846
1.02841
0.969503
0.348512
0.345907
0.36321
0.4591
0.838298
1.41871
1.55278
1.34183
1.40303
1.4102
1.25825
1.11656
1.0726
1.06988
1.1085
1.14892
1.14331
1.10588
1.06195
1.04935
1.04413
1.03776
1.02885
1.01426
0.94529
0.3682
0.375262
0.436212
0.722434
1.28217
1.6094
1.41568
1.37281
1.43082
1.30209
1.14884
1.11706
1.11909
1.15496
1.18379
1.16814
1.12275
1.07934
1.06483
1.06158
1.05547
1.05016
1.04861
1.04462
1.00114
0.367546
0.374415
0.43394
0.714938
1.27445
1.61112
1.41887
1.37082
1.43131
1.30433
1.14896
1.11646
1.11781
1.15252
1.18282
1.16819
1.12358
1.07938
1.06443
1.06121
1.05512
1.04988
1.04828
1.04405
0.99992
0.366149
0.372618
0.429077
0.698626
1.24951
1.61286
1.42697
1.368
1.43354
1.3115
1.15093
1.11511
1.11484
1.14706
1.18102
1.16854
1.12564
1.08007
1.06434
1.0612
1.05529
1.05016
1.04827
1.04374
0.998588
0.364139
0.370013
0.421983
0.673979
1.21536
1.61184
1.43608
1.36139
1.43626
1.32302
1.15584
1.11433
1.11211
1.1418
1.17894
1.16907
1.1288
1.0814
1.06441
1.06136
1.05553
1.05066
1.04892
1.04414
0.998224
0.361679
0.3668
0.41312
0.641343
1.17495
1.60718
1.4496
1.3513
1.43814
1.33524
1.16194
1.11261
1.10685
1.13189
1.17464
1.16867
1.13257
1.08323
1.06443
1.06128
1.05568
1.05091
1.04889
1.04499
0.996994
0.358941
0.363175
0.403174
0.603402
1.12805
1.59632
1.46663
1.3402
1.43785
1.35134
1.172
1.11085
1.10082
1.12108
1.16913
1.16763
1.13657
1.08537
1.06437
1.06073
1.05547
1.0511
1.04895
1.04407
0.994998
0.356089
0.359289
0.392819
0.564307
1.06902
1.57782
1.48543
1.33187
1.433
1.36736
1.18572
1.10957
1.09413
1.10844
1.15978
1.16532
1.14069
1.08792
1.06409
1.05957
1.05462
1.0506
1.04756
1.04185
0.991536
0.353297
0.355203
0.382486
0.526711
1.002
1.54677
1.50483
1.32909
1.42644
1.38503
1.20455
1.10959
1.08724
1.09518
1.14697
1.16229
1.14378
1.09162
1.06292
1.05753
1.0526
1.04871
1.04403
1.03718
0.984832
0.350745
0.3508
0.372416
0.491444
0.924766
1.49626
1.52792
1.33164
1.41609
1.39911
1.22983
1.11134
1.08017
1.08244
1.12946
1.15713
1.1448
1.09737
1.06243
1.05521
1.04835
1.04379
1.03845
1.02841
0.969492
0.348511
0.345903
0.363202
0.459072
0.838212
1.41863
1.55284
1.34187
1.40306
1.41028
1.25818
1.11654
1.07274
1.0701
1.10881
1.14904
1.14337
1.10588
1.06195
1.04936
1.04413
1.03776
1.02885
1.01426
0.945282
0.368202
0.375264
0.436215
0.722447
1.28219
1.6094
1.41568
1.37281
1.43082
1.30208
1.14883
1.11706
1.11908
1.15497
1.1838
1.16814
1.12274
1.07934
1.06483
1.06159
1.05549
1.05018
1.04863
1.04464
1.00116
0.367547
0.374416
0.433943
0.714946
1.27446
1.61111
1.41886
1.37083
1.43133
1.30435
1.14897
1.11645
1.1178
1.15252
1.18283
1.16819
1.12357
1.07938
1.06443
1.06121
1.05514
1.0499
1.04829
1.04407
0.999933
0.366149
0.372619
0.42908
0.698635
1.24953
1.61286
1.42697
1.36801
1.43358
1.31155
1.15098
1.11515
1.1149
1.14715
1.18104
1.16854
1.12563
1.08006
1.06434
1.0612
1.05531
1.05018
1.04829
1.04376
0.9986
0.364139
0.370014
0.421986
0.673986
1.21537
1.61183
1.43605
1.36137
1.43625
1.32305
1.15585
1.11429
1.11204
1.14166
1.17895
1.16907
1.12881
1.08141
1.06441
1.06137
1.05554
1.05067
1.04894
1.04416
0.998234
0.36168
0.366801
0.413123
0.641351
1.17496
1.60718
1.44959
1.35129
1.43808
1.33507
1.16179
1.11259
1.10688
1.13198
1.17465
1.16867
1.13256
1.08323
1.06443
1.06129
1.05569
1.05092
1.04891
1.045
0.997004
0.358941
0.363176
0.403176
0.603409
1.12806
1.59632
1.46664
1.34021
1.4378
1.35116
1.17181
1.11096
1.1011
1.12143
1.16927
1.16766
1.13654
1.08536
1.06437
1.06074
1.05548
1.05111
1.04897
1.04408
0.995005
0.356089
0.35929
0.39282
0.56431
1.06903
1.57781
1.48542
1.33188
1.43297
1.36727
1.18567
1.1097
1.09434
1.1087
1.16001
1.16545
1.1407
1.0879
1.06409
1.05957
1.05462
1.05061
1.04757
1.04186
0.991542
0.353297
0.355203
0.382486
0.526711
1.00199
1.54676
1.50482
1.32908
1.42641
1.38501
1.20461
1.10966
1.08723
1.09512
1.14687
1.16223
1.14375
1.09161
1.06292
1.05754
1.05261
1.04872
1.04404
1.03719
0.984835
0.350745
0.3508
0.372415
0.491441
0.924757
1.49624
1.52791
1.33162
1.41608
1.39913
1.22998
1.11135
1.08
1.08223
1.12921
1.15707
1.14478
1.09738
1.06243
1.05521
1.04835
1.04379
1.03846
1.02842
0.96949
0.34851
0.345902
0.363201
0.459067
0.838197
1.41861
1.55283
1.34186
1.40306
1.41031
1.25834
1.1165
1.07255
1.06985
1.10849
1.14896
1.14335
1.10591
1.06196
1.04936
1.04413
1.03777
1.02886
1.01426
0.945282
0.368198
0.375259
0.436199
0.722385
1.28211
1.60938
1.4157
1.37281
1.43084
1.30211
1.14885
1.11706
1.11909
1.15495
1.18379
1.16813
1.12275
1.07934
1.06482
1.06159
1.05548
1.05017
1.04862
1.04463
1.00114
0.367543
0.374411
0.433927
0.714889
1.27439
1.61109
1.41887
1.37082
1.43134
1.30436
1.14898
1.11646
1.11781
1.15251
1.18282
1.16819
1.12358
1.07938
1.06442
1.06121
1.05513
1.04989
1.04828
1.04405
0.999919
0.366146
0.372615
0.429066
0.69858
1.24944
1.61285
1.42698
1.368
1.43358
1.31156
1.15099
1.11516
1.11491
1.14714
1.18103
1.16854
1.12564
1.08006
1.06434
1.0612
1.05529
1.05016
1.04828
1.04374
0.998589
0.364136
0.37001
0.421972
0.673934
1.2153
1.61181
1.43606
1.36136
1.43626
1.32306
1.15581
1.11429
1.11204
1.14165
1.17894
1.16907
1.12881
1.08141
1.06441
1.06136
1.05552
1.05065
1.04892
1.04414
0.998231
0.361677
0.366797
0.413111
0.641301
1.1749
1.60715
1.44959
1.35125
1.43805
1.3351
1.16199
1.11259
1.10688
1.13199
1.17465
1.16867
1.13256
1.08323
1.06442
1.06128
1.05568
1.05091
1.04889
1.04499
0.996996
0.358939
0.363172
0.403165
0.603365
1.12799
1.5963
1.46666
1.34022
1.43782
1.35115
1.17135
1.11095
1.10109
1.12142
1.16927
1.16766
1.13653
1.08536
1.06436
1.06073
1.05546
1.0511
1.04897
1.04408
0.994976
0.356087
0.359286
0.39281
0.564273
1.06896
1.57778
1.48545
1.33188
1.43297
1.36733
1.18591
1.1097
1.09432
1.10867
1.16
1.16545
1.1407
1.08789
1.06409
1.05957
1.05462
1.05061
1.04758
1.04186
0.991496
0.353295
0.355199
0.382477
0.526679
1.00193
1.54671
1.50483
1.32905
1.42631
1.38497
1.20516
1.10966
1.08721
1.0951
1.14685
1.1622
1.14373
1.09161
1.06293
1.05754
1.05262
1.04873
1.04408
1.0372
0.984774
0.350743
0.350797
0.372408
0.491414
0.92469
1.49619
1.52792
1.33159
1.41596
1.399
1.2304
1.11136
1.08
1.08221
1.1292
1.15707
1.14477
1.09738
1.06243
1.05522
1.04837
1.04383
1.03852
1.02844
0.969413
0.348509
0.345899
0.363195
0.459046
0.838132
1.41854
1.55285
1.34184
1.40296
1.41022
1.25862
1.11651
1.07255
1.06984
1.10846
1.14894
1.14334
1.10591
1.06196
1.04936
1.04415
1.03782
1.02893
1.0143
0.945203
0.3682
0.375261
0.436206
0.722409
1.28214
1.60938
1.41569
1.37281
1.43082
1.30207
1.14883
1.11706
1.11909
1.15498
1.1838
1.16814
1.12274
1.07934
1.06483
1.06159
1.05548
1.05017
1.04863
1.04464
1.00115
0.367545
0.374413
0.433933
0.714909
1.27441
1.61109
1.41887
1.37082
1.43133
1.30433
1.14896
1.11646
1.11781
1.15253
1.18283
1.1682
1.12357
1.07938
1.06443
1.06121
1.05514
1.0499
1.04829
1.04406
0.999926
0.366148
0.372617
0.429071
0.6986
1.24947
1.61285
1.42697
1.368
1.43357
1.31154
1.15097
1.11515
1.1149
1.14715
1.18105
1.16855
1.12563
1.08006
1.06434
1.0612
1.0553
1.05017
1.04829
1.04375
0.998593
0.364138
0.370011
0.421977
0.673953
1.21532
1.61182
1.43606
1.36136
1.43624
1.32304
1.1558
1.11429
1.11204
1.14166
1.17895
1.16908
1.12881
1.08141
1.06441
1.06136
1.05554
1.05067
1.04893
1.04415
0.998228
0.361678
0.366799
0.413115
0.641319
1.17492
1.60716
1.44958
1.35126
1.43804
1.33507
1.16198
1.11259
1.10687
1.13199
1.17465
1.16867
1.13257
1.08323
1.06443
1.06128
1.05569
1.05092
1.0489
1.045
0.996999
0.35894
0.363173
0.403169
0.603381
1.12802
1.59631
1.46666
1.34022
1.43781
1.35113
1.17133
1.11095
1.10108
1.12142
1.16927
1.16766
1.13654
1.08537
1.06437
1.06074
1.05547
1.0511
1.04897
1.04408
0.995002
0.356088
0.359288
0.392814
0.564286
1.06898
1.57779
1.48544
1.33188
1.43296
1.36731
1.18589
1.10969
1.09432
1.10867
1.16
1.16545
1.14071
1.0879
1.06409
1.05957
1.05462
1.05061
1.04756
1.04186
0.991539
0.353296
0.3552
0.38248
0.52669
1.00195
1.54673
1.50483
1.32904
1.4263
1.38495
1.20513
1.10965
1.08721
1.0951
1.14686
1.16221
1.14375
1.09162
1.06292
1.05753
1.05261
1.04872
1.04404
1.03719
0.984833
0.350743
0.350798
0.37241
0.491423
0.924713
1.49621
1.52791
1.33158
1.41595
1.39898
1.23038
1.11134
1.07998
1.0822
1.1292
1.15708
1.14479
1.09739
1.06243
1.05521
1.04835
1.04379
1.03846
1.02841
0.969488
0.348509
0.3459
0.363197
0.459053
0.838154
1.41857
1.55284
1.34184
1.40296
1.41021
1.2586
1.1165
1.07253
1.06983
1.10847
1.14896
1.14335
1.10592
1.06196
1.04936
1.04413
1.03776
1.02886
1.01426
0.945281
0.368202
0.375264
0.436215
0.722447
1.28219
1.6094
1.41568
1.37281
1.43082
1.30208
1.14883
1.11706
1.11908
1.15497
1.1838
1.16814
1.12274
1.07934
1.06483
1.06159
1.05549
1.05018
1.04863
1.04464
1.00116
0.367547
0.374416
0.433943
0.714947
1.27446
1.61111
1.41886
1.37083
1.43133
1.30435
1.14897
1.11645
1.1178
1.15252
1.18283
1.16819
1.12357
1.07938
1.06443
1.06121
1.05514
1.0499
1.0483
1.04407
0.999933
0.366149
0.37262
0.42908
0.698635
1.24953
1.61286
1.42697
1.36801
1.43358
1.31155
1.15098
1.11515
1.1149
1.14715
1.18104
1.16854
1.12563
1.08006
1.06434
1.0612
1.05531
1.05018
1.04829
1.04376
0.9986
0.364139
0.370014
0.421986
0.673986
1.21537
1.61183
1.43605
1.36137
1.43625
1.32305
1.15585
1.11429
1.11204
1.14166
1.17895
1.16907
1.12881
1.08141
1.06441
1.06137
1.05554
1.05067
1.04894
1.04416
0.998235
0.36168
0.366801
0.413123
0.641351
1.17496
1.60718
1.44959
1.35129
1.43808
1.33507
1.16179
1.11259
1.10688
1.13198
1.17465
1.16867
1.13256
1.08323
1.06443
1.06129
1.05569
1.05092
1.04891
1.045
0.997004
0.358941
0.363176
0.403176
0.603409
1.12806
1.59632
1.46664
1.34021
1.4378
1.35116
1.17181
1.11096
1.1011
1.12143
1.16927
1.16766
1.13654
1.08536
1.06437
1.06074
1.05548
1.05111
1.04897
1.04408
0.995006
0.356089
0.35929
0.39282
0.56431
1.06903
1.57781
1.48542
1.33188
1.43297
1.36727
1.18567
1.1097
1.09434
1.1087
1.16001
1.16545
1.1407
1.0879
1.06409
1.05957
1.05462
1.05061
1.04757
1.04186
0.991542
0.353298
0.355203
0.382486
0.526711
1.00199
1.54676
1.50482
1.32908
1.42641
1.38501
1.20461
1.10966
1.08723
1.09512
1.14687
1.16223
1.14375
1.09161
1.06292
1.05754
1.05261
1.04872
1.04404
1.03719
0.984836
0.350745
0.3508
0.372415
0.491442
0.924757
1.49624
1.52791
1.33162
1.41608
1.39913
1.22998
1.11135
1.08
1.08223
1.12921
1.15707
1.14478
1.09738
1.06243
1.05521
1.04835
1.04379
1.03846
1.02842
0.96949
0.34851
0.345902
0.363201
0.459067
0.838197
1.41861
1.55283
1.34186
1.40306
1.41031
1.25834
1.1165
1.07255
1.06985
1.10849
1.14896
1.14335
1.10591
1.06196
1.04936
1.04413
1.03777
1.02886
1.01426
0.945282
0.3682
0.375262
0.436212
0.722434
1.28217
1.6094
1.41568
1.37281
1.43082
1.30209
1.14884
1.11706
1.11909
1.15496
1.18379
1.16814
1.12275
1.07934
1.06483
1.06158
1.05547
1.05016
1.04861
1.04462
1.00114
0.367546
0.374415
0.43394
0.714938
1.27445
1.61112
1.41887
1.37082
1.43131
1.30433
1.14896
1.11646
1.11781
1.15252
1.18282
1.16819
1.12358
1.07938
1.06443
1.06121
1.05512
1.04988
1.04828
1.04405
0.99992
0.366149
0.372618
0.429077
0.698626
1.24951
1.61286
1.42697
1.368
1.43354
1.3115
1.15093
1.11511
1.11484
1.14706
1.18102
1.16854
1.12564
1.08007
1.06434
1.0612
1.05529
1.05016
1.04827
1.04374
0.998588
0.364139
0.370013
0.421983
0.673979
1.21536
1.61184
1.43608
1.36139
1.43626
1.32302
1.15584
1.11433
1.11211
1.1418
1.17894
1.16907
1.1288
1.0814
1.06441
1.06136
1.05553
1.05066
1.04892
1.04414
0.998224
0.361679
0.3668
0.41312
0.641343
1.17495
1.60718
1.4496
1.3513
1.43814
1.33524
1.16194
1.11261
1.10685
1.13189
1.17464
1.16867
1.13257
1.08323
1.06443
1.06128
1.05568
1.05091
1.04889
1.04499
0.996994
0.358941
0.363175
0.403174
0.603402
1.12805
1.59632
1.46663
1.3402
1.43785
1.35134
1.172
1.11085
1.10082
1.12108
1.16913
1.16763
1.13657
1.08537
1.06437
1.06073
1.05547
1.0511
1.04895
1.04407
0.994998
0.356089
0.359289
0.392819
0.564307
1.06902
1.57782
1.48543
1.33187
1.433
1.36736
1.18572
1.10957
1.09413
1.10844
1.15978
1.16532
1.14069
1.08792
1.06409
1.05957
1.05462
1.0506
1.04756
1.04185
0.991536
0.353297
0.355203
0.382486
0.526711
1.002
1.54677
1.50483
1.32909
1.42644
1.38503
1.20455
1.10959
1.08724
1.09518
1.14697
1.16229
1.14378
1.09162
1.06292
1.05753
1.0526
1.04871
1.04403
1.03718
0.984832
0.350745
0.3508
0.372416
0.491444
0.924766
1.49626
1.52792
1.33164
1.41609
1.39911
1.22983
1.11134
1.08017
1.08244
1.12946
1.15713
1.1448
1.09737
1.06243
1.05521
1.04835
1.04379
1.03845
1.02841
0.969492
0.348511
0.345903
0.363202
0.459072
0.838212
1.41863
1.55284
1.34187
1.40306
1.41028
1.25818
1.11654
1.07274
1.0701
1.10881
1.14904
1.14337
1.10588
1.06195
1.04936
1.04413
1.03776
1.02885
1.01426
0.945282
0.368207
0.37527
0.43623
0.722493
1.28224
1.6094
1.41569
1.37287
1.43098
1.30227
1.14889
1.11697
1.11894
1.15476
1.18373
1.16813
1.12278
1.07934
1.06483
1.06159
1.05548
1.05017
1.04862
1.04463
1.00115
0.367549
0.374419
0.433947
0.71494
1.27441
1.61099
1.41875
1.3709
1.4317
1.30491
1.14916
1.11632
1.11759
1.15217
1.18274
1.16819
1.12362
1.07938
1.06443
1.06121
1.05513
1.04989
1.04828
1.04405
0.99993
0.366154
0.372625
0.429091
0.698665
1.24956
1.61281
1.42688
1.36806
1.43368
1.31159
1.15099
1.11523
1.11501
1.14729
1.18106
1.16853
1.12562
1.08006
1.06434
1.0612
1.0553
1.05017
1.04828
1.04375
0.998598
0.364146
0.370022
0.422003
0.674042
1.21543
1.61184
1.43604
1.36137
1.43612
1.3228
1.15573
1.11437
1.11216
1.14183
1.17899
1.16905
1.12877
1.0814
1.06441
1.06136
1.05553
1.05066
1.04892
1.04415
0.998233
0.361686
0.366809
0.413141
0.64141
1.17501
1.60714
1.44955
1.35128
1.43796
1.33477
1.16165
1.11268
1.10705
1.13223
1.17471
1.16865
1.13251
1.08322
1.06443
1.06128
1.05568
1.05092
1.04889
1.04499
0.997004
0.358947
0.363182
0.403192
0.603464
1.12813
1.59628
1.46657
1.34021
1.43769
1.35089
1.17162
1.11107
1.10134
1.12173
1.16938
1.16766
1.13647
1.08534
1.06437
1.06074
1.05547
1.0511
1.04896
1.04407
0.995007
0.356094
0.359296
0.392835
0.564362
1.0691
1.5778
1.48536
1.33185
1.43288
1.36704
1.18545
1.10984
1.09465
1.10905
1.16018
1.16545
1.14065
1.08787
1.06408
1.05957
1.05462
1.0506
1.04756
1.04185
0.991546
0.353301
0.355208
0.382499
0.526759
1.00208
1.54678
1.50476
1.32905
1.42635
1.38483
1.20445
1.10979
1.08749
1.09542
1.14707
1.16223
1.14371
1.09157
1.06292
1.05753
1.0526
1.04871
1.04403
1.03718
0.984842
0.350747
0.350805
0.372427
0.491482
0.924855
1.49631
1.52786
1.33159
1.41603
1.39896
1.22986
1.11146
1.08016
1.08239
1.12936
1.15709
1.14476
1.09734
1.06242
1.05521
1.04835
1.04379
1.03846
1.02841
0.969503
0.348512
0.345907
0.36321
0.4591
0.838298
1.41871
1.55278
1.34183
1.40303
1.4102
1.25825
1.11656
1.0726
1.06988
1.1085
1.14892
1.14331
1.10588
1.06195
1.04935
1.04413
1.03776
1.02885
1.01426
0.945289
0.368192
0.375253
0.436193
0.722391
1.28215
1.60945
1.41577
1.3728
1.43079
1.30206
1.14875
1.11696
1.11898
1.15487
1.18377
1.16814
1.12277
1.07936
1.06486
1.06162
1.05553
1.05024
1.0487
1.04463
1.00094
0.367537
0.374405
0.433921
0.714896
1.27443
1.6112
1.41896
1.37084
1.43137
1.30444
1.14899
1.1164
1.11771
1.15239
1.18278
1.16819
1.12361
1.07941
1.06446
1.06124
1.05518
1.04996
1.04836
1.04405
0.999739
0.366139
0.372608
0.429055
0.698566
1.24945
1.6129
1.42699
1.36801
1.43382
1.31214
1.15123
1.11499
1.11463
1.14679
1.18093
1.16854
1.12568
1.08008
1.06437
1.06123
1.05534
1.05023
1.04835
1.04374
0.998424
0.36413
0.370003
0.421962
0.67392
1.21531
1.61186
1.43606
1.36135
1.43637
1.32323
1.15583
1.11406
1.11172
1.14128
1.17885
1.16906
1.12888
1.08144
1.06443
1.06138
1.05555
1.0507
1.04897
1.04414
0.998089
0.361673
0.366792
0.413104
0.641296
1.17491
1.60723
1.44966
1.35128
1.43801
1.33495
1.16179
1.11264
1.10707
1.13218
1.17463
1.16866
1.13257
1.08325
1.06444
1.06129
1.05568
1.05093
1.04892
1.04498
0.9969
0.358935
0.363168
0.40316
0.603364
1.128
1.59637
1.46673
1.34025
1.43777
1.35097
1.17118
1.1112
1.10157
1.122
1.16963
1.16773
1.13648
1.08535
1.06438
1.06074
1.05547
1.05111
1.04897
1.04407
0.994929
0.356084
0.359283
0.392805
0.564266
1.06896
1.57783
1.48548
1.3319
1.43292
1.36726
1.18596
1.10992
1.09453
1.10885
1.16003
1.16545
1.14068
1.08787
1.06409
1.05956
1.05461
1.05061
1.04758
1.04186
0.991483
0.353293
0.355196
0.382472
0.52667
1.00192
1.54674
1.50484
1.32904
1.42626
1.38496
1.20528
1.10976
1.08717
1.09498
1.1467
1.1622
1.14373
1.09159
1.06292
1.05753
1.0526
1.04872
1.04407
1.0372
0.984788
0.350741
0.350794
0.372404
0.491406
0.924678
1.49621
1.52792
1.33157
1.41591
1.399
1.23048
1.11135
1.07984
1.08201
1.12891
1.15689
1.14469
1.0974
1.06243
1.05522
1.04836
1.04381
1.03849
1.02844
0.96946
0.348507
0.345897
0.363192
0.459039
0.838119
1.41855
1.55285
1.34184
1.40295
1.41021
1.25857
1.11642
1.07246
1.06972
1.1083
1.14883
1.14327
1.10592
1.06196
1.04936
1.04414
1.0378
1.02891
1.01431
0.945246
0.346418
0.34126
0.354875
0.42975
0.74584
1.31419
1.57245
1.36225
1.38924
1.41825
1.28997
1.12758
1.06754
1.05746
1.08301
1.13967
1.14019
1.1156
1.06319
1.04708
1.03891
1.0305
1.01743
0.994152
0.869034
0.344509
0.337015
0.347581
0.404724
0.656227
1.199
1.57764
1.39524
1.37107
1.42111
1.31903
1.14825
1.06603
1.04654
1.06003
1.12342
1.13516
1.12124
1.06852
1.04309
1.03066
1.02085
1.0039
0.98018
0.871603
0.3428
0.33323
0.341362
0.383862
0.572796
1.0908
1.56992
1.43408
1.35194
1.41535
1.34105
1.18024
1.06907
1.03425
1.0381
1.09595
1.12738
1.12143
1.07506
1.03984
1.02425
1.01485
0.994647
0.97571
0.888179
0.341303
0.3299
0.336114
0.367436
0.507312
0.976215
1.53698
1.47061
1.34142
1.40546
1.35642
1.22296
1.07731
1.02275
1.0194
1.05619
1.11643
1.11833
1.08773
1.04209
1.01855
1.00702
0.987927
0.970256
0.921346
0.340017
0.327021
0.331731
0.35471
0.455525
0.842041
1.4116
1.50115
1.33925
1.39435
1.37091
1.26768
1.09384
1.02188
1.00589
1.02215
1.09488
1.11175
1.09736
1.0492
1.0177
1.00334
0.979926
0.965718
0.938006
0.33893
0.324583
0.328166
0.345089
0.415881
0.708607
1.25437
1.52158
1.34622
1.38927
1.38332
1.30531
1.12684
1.02678
0.990313
0.997398
1.04984
1.09792
1.09494
1.06376
1.02042
1.00348
0.980362
0.9611
0.950081
0.338027
0.322539
0.325283
0.33781
0.387498
0.60028
1.11117
1.52165
1.37665
1.3865
1.39294
1.32984
1.17404
1.03934
0.983959
0.980603
1.00196
1.07492
1.08801
1.07441
1.02866
1.00565
0.983002
0.963048
0.952223
0.337301
0.320876
0.322968
0.332069
0.366016
0.515105
0.990252
1.52039
1.41284
1.38359
1.39462
1.34688
1.23788
1.05992
0.986907
0.962032
0.969273
1.03318
1.07342
1.07093
1.04585
1.01389
0.988614
0.967271
0.953532
0.336747
0.319601
0.32122
0.327691
0.350112
0.444321
0.821669
1.46059
1.42922
1.38454
1.39473
1.36141
1.28779
1.1046
0.996598
0.955205
0.949172
0.97547
1.04719
1.06237
1.05137
1.02771
1.00249
0.97507
0.956919
0.336373
0.318649
0.319931
0.324574
0.33981
0.398697
0.648248
1.16219
1.43965
1.37724
1.40104
1.37875
1.32319
1.16471
1.01872
0.958105
0.933371
0.941631
1.00065
1.04642
1.04591
1.03342
1.01752
0.992149
0.965418
0.336216
0.317994
0.318964
0.322173
0.332572
0.370752
0.535026
0.975226
1.45009
1.38099
1.40267
1.39755
1.35396
1.23202
1.04849
0.965952
0.929337
0.92656
0.947034
1.0139
1.034
1.03024
1.02041
1.00816
0.984857
0.336277
0.317591
0.318235
0.320306
0.327182
0.351282
0.453172
0.836581
1.42715
1.38399
1.39618
1.40381
1.37844
1.29521
1.09512
0.98241
0.932773
0.91276
0.919151
0.956851
1.01135
1.02157
1.01846
1.01213
1.00252
0.336538
0.317331
0.317674
0.319068
0.323713
0.338543
0.394635
0.646504
1.20949
1.3729
1.38048
1.40008
1.39218
1.34589
1.19025
1.01403
0.942008
0.91107
0.904769
0.914991
0.966023
1.00393
1.01213
1.0106
1.00716
0.336841
0.317091
0.317412
0.318465
0.32146
0.330521
0.362493
0.500723
0.894917
1.3704
1.36448
1.38576
1.39275
1.37583
1.28815
1.07438
0.966123
0.916449
0.894684
0.897538
0.915924
0.970893
0.998463
1.00595
1.00604
0.336998
0.317058
0.31727
0.317831
0.319634
0.325146
0.34359
0.417768
0.722343
1.30004
1.32264
1.37247
1.39031
1.38407
1.3447
1.17683
1.02224
0.932504
0.896942
0.881733
0.887467
0.912065
0.969492
0.994111
1.00225
0.337046
0.317126
0.317107
0.317358
0.318408
0.321678
0.331969
0.369343
0.538462
0.962702
1.30258
1.34159
1.38059
1.38284
1.36784
1.27872
1.08736
0.971057
0.907095
0.8803
0.868852
0.874601
0.903833
0.964988
0.990297
0.337063
0.317233
0.31691
0.317034
0.317636
0.319521
0.325263
0.344491
0.423175
0.721353
1.24589
1.28463
1.35184
1.37442
1.36855
1.32986
1.18649
1.02772
0.930976
0.884764
0.861737
0.854027
0.860058
0.889929
0.955471
0.337068
0.3173
0.316775
0.316838
0.317156
0.318183
0.32131
0.331162
0.367082
0.530118
0.932928
1.24493
1.29527
1.35632
1.36335
1.34636
1.27089
1.09204
0.973916
0.900371
0.864632
0.841928
0.838606
0.846285
0.874917
0.337068
0.317342
0.316685
0.316722
0.316863
0.317396
0.31904
0.324042
0.340662
0.40758
0.669162
1.14325
1.23639
1.30492
1.35124
1.34411
1.30998
1.18876
1.02578
0.928349
0.874499
0.843767
0.822827
0.823108
0.832295
0.337069
0.317356
0.316622
0.316645
0.316721
0.316978
0.317781
0.320246
0.327995
0.355656
0.479492
0.823535
1.17559
1.23763
1.31053
1.3346
1.31595
1.25599
1.09447
0.968533
0.89947
0.853064
0.825207
0.806265
0.808416
0.337073
0.317343
0.316605
0.316613
0.316648
0.316732
0.317093
0.31826
0.321898
0.333734
0.378868
0.57481
0.970221
1.1745
1.23722
1.30609
1.30949
1.28255
1.18534
1.02107
0.923226
0.874285
0.834267
0.807885
0.795189
0.337075
0.317334
0.316613
0.316583
0.316596
0.316623
0.316757
0.317274
0.318933
0.32404
0.341274
0.412499
0.667791
1.06385
1.16705
1.23796
1.29089
1.28056
1.23916
1.0979
0.965056
0.89439
0.858315
0.817849
0.79558
0.337075
0.317331
0.316616
0.31657
0.316572
0.316577
0.3166
0.316811
0.317545
0.319798
0.32668
0.35099
0.459307
0.756068
1.08341
1.16156
1.2377
1.26933
1.25031
1.17803
1.02129
0.920221
0.871665
0.844219
0.804923
0.337075
0.317331
0.316616
0.316567
0.316564
0.316559
0.316531
0.316608
0.316948
0.317957
0.320824
0.329656
0.362293
0.507615
0.816921
1.07611
1.16182
1.23254
1.24363
1.21388
1.09213
0.959913
0.889331
0.858829
0.832798
0.337075
0.317331
0.316616
0.316568
0.316562
0.316552
0.316511
0.316533
0.316728
0.317222
0.318432
0.321838
0.332593
0.373083
0.539704
0.85783
1.06347
1.16306
1.22012
1.21167
1.15462
1.00832
0.912832
0.869674
0.850605
0.337075
0.317331
0.316616
0.316568
0.316561
0.316551
0.316506
0.316514
0.316674
0.316959
0.317533
0.318979
0.32293
0.335134
0.38167
0.559352
0.855608
1.05822
1.16565
1.19907
1.1681
1.05436
0.938145
0.881062
0.856627
0.337075
0.317331
0.316616
0.316568
0.316561
0.316551
0.316506
0.316513
0.316666
0.316936
0.317258
0.318135
0.319848
0.324047
0.336995
0.385856
0.559533
0.822547
1.07682
1.16662
1.15667
1.07924
0.954804
0.886159
0.856918
0.337075
0.317331
0.316616
0.316568
0.316561
0.316551
0.316506
0.316513
0.316665
0.316939
0.31724
0.318055
0.318915
0.320869
0.325675
0.338947
0.384883
0.531943
0.811867
1.09199
1.11141
1.06688
0.962959
0.885262
0.849421
0.337075
0.317331
0.316616
0.316568
0.316561
0.316551
0.316506
0.316513
0.316665
0.316939
0.317239
0.318064
0.318837
0.320423
0.32317
0.32871
0.342369
0.381719
0.497842
0.770047
0.983585
0.994401
0.944085
0.877327
0.838272
0.337075
0.317331
0.316616
0.316568
0.316561
0.316551
0.316506
0.316513
0.316665
0.316939
0.317239
0.318065
0.318833
0.320401
0.323128
0.327198
0.336289
0.352403
0.388447
0.481013
0.607622
0.731527
0.791749
0.808907
0.812259
0.337075
0.317331
0.316616
0.316568
0.316561
0.316551
0.316506
0.316513
0.316665
0.316939
0.317239
0.318065
0.318833
0.320397
0.323138
0.327127
0.336253
0.349494
0.374918
0.434003
0.490715
0.541016
0.568542
0.589928
0.629182
0.337075
0.317331
0.316616
0.316568
0.316561
0.316551
0.316506
0.316513
0.316665
0.316939
0.317239
0.318065
0.318833
0.320395
0.323143
0.327127
0.336249
0.349387
0.374241
0.431833
0.480761
0.517591
0.531394
0.535864
0.543835
0.337075
0.317331
0.316616
0.316568
0.316561
0.316551
0.316506
0.316513
0.316665
0.316939
0.317238
0.318065
0.318833
0.320394
0.323143
0.327127
0.336246
0.34938
0.3742
0.431703
0.480189
0.515964
0.528066
0.529653
0.530998
0.337075
0.317331
0.316616
0.316568
0.316561
0.316551
0.316506
0.316513
0.316665
0.316939
0.317238
0.318065
0.318833
0.320396
0.323139
0.327125
0.336252
0.349379
0.374192
0.431699
0.480108
0.51577
0.527721
0.529006
0.529513
0.337075
0.317331
0.316616
0.316568
0.316561
0.316551
0.316506
0.316513
0.316665
0.316939
0.317238
0.318065
0.318833
0.320393
0.323143
0.327127
0.336244
0.349377
0.374197
0.431695
0.480158
0.51585
0.527788
0.52906
0.529502
0.337075
0.317331
0.316616
0.316568
0.316561
0.316551
0.316506
0.316513
0.316665
0.316939
0.317238
0.318065
0.318833
0.320394
0.323143
0.327127
0.336246
0.34938
0.3742
0.431703
0.480167
0.515861
0.527796
0.52906
0.529487
0.337075
0.317331
0.316616
0.316568
0.316561
0.316551
0.316506
0.316513
0.316665
0.316939
0.317238
0.318065
0.318833
0.320394
0.32314
0.327124
0.336246
0.349375
0.374182
0.431677
0.480116
0.515789
0.527728
0.528984
0.529395
0.337075
0.317331
0.316616
0.316568
0.316561
0.316551
0.316506
0.316513
0.316665
0.316939
0.317238
0.318065
0.318833
0.320394
0.323142
0.327126
0.336248
0.349381
0.3742
0.43171
0.480162
0.515845
0.527779
0.52904
0.529462
0.337075
0.317331
0.316616
0.316568
0.316561
0.316551
0.316506
0.316513
0.316665
0.316939
0.317238
0.318065
0.318833
0.320394
0.32314
0.327124
0.336246
0.349374
0.374185
0.431684
0.480112
0.515779
0.527719
0.528979
0.529392
0.337075
0.317331
0.316616
0.316568
0.316561
0.316551
0.316506
0.316513
0.316665
0.316939
0.317238
0.318065
0.318833
0.320393
0.323143
0.327127
0.336243
0.349377
0.374201
0.431705
0.480163
0.515852
0.527788
0.529057
0.529486
0.346422
0.34127
0.354892
0.429807
0.746034
1.3144
1.5724
1.36217
1.3893
1.41825
1.29005
1.12752
1.06735
1.05719
1.08265
1.13948
1.1401
1.11563
1.06319
1.04709
1.03891
1.03043
1.01733
0.994058
0.869055
0.344513
0.337023
0.347593
0.404766
0.656388
1.19918
1.57762
1.39515
1.37114
1.42113
1.31906
1.14831