/*--------------------------------*- C++ -*----------------------------------*\
| =========                 |                                                 |
| \\      /  F ield         | OpenFOAM: The Open Source CFD Toolbox           |
|  \\    /   O peration     | Version:  4.1                                   |
|   \\  /    A nd           | Web:      www.OpenFOAM.org                      |
|    \\/     M anipulation  |                                                 |
\*---------------------------------------------------------------------------*/
FoamFile
{
    version     2.0;
    format      ascii;
    class       volVectorField;
    location    "0.6";
    object      U;
}
// * * * * * * * * * * * * * * * * * * * * * * * * * * * * * * * * * * * * * //

dimensions      [0 1 -1 0 0 0 0];

internalField   nonuniform List<vector> 
52500
(
(1.7731 9.17118e-05 -0.0023492)
(1.78206 0.000476647 -0.00239934)
(1.71544 0.00114142 -0.00282458)
(1.34071 0.00364979 -0.00482133)
(0.222785 0.0137653 -0.00913053)
(-0.360066 0.025933 -0.0113639)
(0.0297708 0.0184463 -0.00986446)
(0.222983 0.0184063 -0.00972716)
(-0.0394055 0.0252324 -0.0101776)
(-0.0124339 0.021704 -0.00923777)
(0.0579728 0.0211576 -0.00814829)
(0.050409 0.0200989 -0.00791295)
(0.0694981 0.0191928 -0.00791723)
(0.086039 0.0193284 -0.00816367)
(0.0963137 0.0201328 -0.00836223)
(0.100075 0.0214504 -0.00824718)
(0.103238 0.022562 -0.00792383)
(0.103843 0.0236595 -0.00761653)
(0.103467 0.0245022 -0.00751448)
(0.100439 0.0254305 -0.00749373)
(0.0937741 0.0261889 -0.00745879)
(0.0759209 0.0270731 -0.00743087)
(0.0622029 0.02754 -0.00743482)
(0.0151111 0.0282793 -0.00742221)
(0.0174724 0.0279857 -0.00712242)
(1.7739 0.000284991 -0.00234523)
(1.78317 0.00148517 -0.00239287)
(1.71822 0.00356268 -0.00280805)
(1.35235 0.0114246 -0.00476434)
(0.236421 0.043535 -0.00904836)
(-0.359248 0.0755698 -0.0113127)
(0.0185617 0.0462959 -0.00985561)
(0.226067 0.045042 -0.00968422)
(-0.0388682 0.0618996 -0.0101376)
(-0.0155322 0.0475803 -0.00922211)
(0.0591521 0.0463379 -0.00812291)
(0.0517364 0.0444197 -0.00788452)
(0.0711804 0.0426824 -0.00788476)
(0.0882935 0.043152 -0.00812153)
(0.0993405 0.0442117 -0.0083282)
(0.103216 0.0461594 -0.00821927)
(0.106186 0.04812 -0.00790156)
(0.106518 0.050296 -0.00758915)
(0.10586 0.0520009 -0.00748367)
(0.102465 0.0540779 -0.00746224)
(0.0953204 0.0557271 -0.00742687)
(0.0769446 0.0577144 -0.0073989)
(0.0623762 0.0586879 -0.00740222)
(0.0144403 0.0593495 -0.00738729)
(0.0170238 0.0579501 -0.00708431)
(1.77563 0.000468726 -0.00233683)
(1.78555 0.00247588 -0.00237945)
(1.72418 0.00593794 -0.00277355)
(1.37861 0.0190426 -0.00464398)
(0.271655 0.0724618 -0.00885111)
(-0.349171 0.130189 -0.0112863)
(-0.000486903 0.0778599 -0.00988103)
(0.238541 0.0752162 -0.00963064)
(-0.0306742 0.104185 -0.0101123)
(-0.0177213 0.0801051 -0.00924169)
(0.0641114 0.0781379 -0.00810935)
(0.0550612 0.076113 -0.00785019)
(0.0745215 0.0740914 -0.00783945)
(0.0916829 0.0751547 -0.0080578)
(0.103449 0.0772505 -0.00828772)
(0.108075 0.0805608 -0.00819253)
(0.111362 0.083586 -0.00788678)
(0.111211 0.0870291 -0.00756546)
(0.110082 0.0901301 -0.00745412)
(0.106375 0.0936964 -0.00743231)
(0.0987738 0.0967392 -0.00739727)
(0.0798415 0.100066 -0.00736949)
(0.0640487 0.102236 -0.00737041)
(0.0147659 0.104236 -0.00735277)
(0.0168763 0.102573 -0.00704416)
(1.77812 0.000608494 -0.00232478)
(1.789 0.0032902 -0.00236002)
(1.73281 0.00786362 -0.00272362)
(1.4158 0.0250812 -0.00446662)
(0.325126 0.094251 -0.00859469)
(-0.331241 0.184244 -0.0112427)
(-0.0300111 0.111114 -0.00990751)
(0.256724 0.104109 -0.00954848)
(-0.0172386 0.144423 -0.0100934)
(-0.0217532 0.114802 -0.0092906)
(0.0709945 0.108574 -0.00811622)
(0.0599141 0.106448 -0.00781877)
(0.0788207 0.103724 -0.00779449)
(0.0965335 0.104819 -0.00799327)
(0.109829 0.108085 -0.00824382)
(0.115133 0.113058 -0.0081659)
(0.118482 0.117213 -0.00787898)
(0.118016 0.121868 -0.00754562)
(0.116405 0.126739 -0.00742478)
(0.112233 0.131969 -0.00740267)
(0.10396 0.136669 -0.00736704)
(0.0843367 0.141629 -0.00734024)
(0.067524 0.145551 -0.00734142)
(0.0166367 0.149738 -0.00732113)
(0.0171872 0.148578 -0.00700914)
(1.78119 0.000700864 -0.00231008)
(1.79329 0.00390362 -0.00233595)
(1.74342 0.00926084 -0.00266123)
(1.46037 0.0291701 -0.00423769)
(0.396093 0.109061 -0.00829196)
(-0.303514 0.236436 -0.0111772)
(-0.0701069 0.147817 -0.00996344)
(0.278129 0.131275 -0.00944234)
(0.00207631 0.180645 -0.0100725)
(-0.0266616 0.152409 -0.00934125)
(0.0780366 0.138123 -0.00813262)
(0.0662524 0.136899 -0.00778099)
(0.0838766 0.133303 -0.00773382)
(0.101845 0.134345 -0.0078998)
(0.117159 0.138568 -0.00818508)
(0.123618 0.144847 -0.00813272)
(0.127235 0.150128 -0.00787413)
(0.12672 0.15594 -0.00752812)
(0.124755 0.162548 -0.00739431)
(0.120091 0.169724 -0.00737035)
(0.11125 0.176457 -0.00733482)
(0.0911116 0.183739 -0.00730756)
(0.0733332 0.190177 -0.00730546)
(0.0205712 0.197391 -0.00728974)
(0.0183487 0.197445 -0.00696526)
(1.78467 0.000747266 -0.00229373)
(1.79815 0.00433711 -0.00230868)
(1.75519 0.0101695 -0.00259109)
(1.50897 0.0312682 -0.00397424)
(0.487901 0.117068 -0.00790512)
(-0.263672 0.286337 -0.0110607)
(-0.118683 0.189387 -0.0100369)
(0.299372 0.156369 -0.0093308)
(0.0257673 0.212613 -0.0100434)
(-0.0301589 0.193153 -0.00941545)
(0.0842445 0.167437 -0.0081705)
(0.0744327 0.167481 -0.00774187)
(0.0893705 0.16275 -0.00766527)
(0.10795 0.163348 -0.00779652)
(0.125689 0.168855 -0.0081164)
(0.133461 0.176239 -0.00809465)
(0.137495 0.182658 -0.00787073)
(0.137245 0.189622 -0.00751222)
(0.135202 0.197924 -0.00736259)
(0.130245 0.20742 -0.00733378)
(0.121031 0.216953 -0.00729851)
(0.100668 0.227363 -0.00727238)
(0.0820913 0.237078 -0.00726724)
(0.0273419 0.248455 -0.0072419)
(0.0206687 0.250542 -0.00691178)
(1.78839 0.000749708 -0.00227674)
(1.80338 0.0046135 -0.00227938)
(1.76733 0.0106548 -0.00251818)
(1.55792 0.0316226 -0.00370264)
(0.608899 0.11759 -0.00740251)
(-0.210477 0.331849 -0.0108927)
(-0.1726 0.237097 -0.0101289)
(0.316181 0.179884 -0.00923955)
(0.0544232 0.240586 -0.00997205)
(-0.0293734 0.236154 -0.00948271)
(0.088206 0.197853 -0.00824123)
(0.0843926 0.198168 -0.0077052)
(0.0954286 0.192304 -0.00759132)
(0.114877 0.192146 -0.00768016)
(0.134969 0.198869 -0.0080207)
(0.144256 0.207021 -0.0080475)
(0.149169 0.214819 -0.00786734)
(0.149585 0.222817 -0.00749858)
(0.14789 0.232946 -0.00732847)
(0.143222 0.244969 -0.00729137)
(0.134083 0.258119 -0.00725611)
(0.113787 0.273079 -0.00722958)
(0.0947954 0.287251 -0.00721501)
(0.0378533 0.304966 -0.00717953)
(0.0249064 0.310838 -0.00684127)
(1.79222 0.000716128 -0.00226012)
(1.80879 0.00475299 -0.00224855)
(1.77922 0.0107633 -0.00244563)
(1.60422 0.0306451 -0.00344162)
(0.760632 0.112809 -0.00685071)
(-0.14456 0.368885 -0.0106551)
(-0.225957 0.291962 -0.010208)
(0.321245 0.202737 -0.00918454)
(0.0889683 0.266305 -0.00989082)
(-0.0230386 0.280957 -0.00955741)
(0.0895778 0.22987 -0.00834113)
(0.0958208 0.228919 -0.00767728)
(0.102159 0.222099 -0.00751693)
(0.12272 0.220952 -0.00756164)
(0.144712 0.228441 -0.0079034)
(0.156055 0.237119 -0.0079955)
(0.162216 0.246541 -0.00785614)
(0.163787 0.255354 -0.00749204)
(0.16294 0.267407 -0.00728773)
(0.159267 0.2822 -0.00724205)
(0.151385 0.299349 -0.00720346)
(0.131753 0.320704 -0.0071731)
(0.113489 0.341501 -0.00714232)
(0.0549631 0.369671 -0.00709209)
(0.0325777 0.38539 -0.00673745)
(1.79605 0.000668805 -0.00224492)
(1.81421 0.00474865 -0.00221571)
(1.79044 0.010498 -0.00237506)
(1.6472 0.028689 -0.00319639)
(0.936686 0.105262 -0.00624759)
(-0.062096 0.389559 -0.0103078)
(-0.269278 0.355593 -0.0103134)
(0.308711 0.226395 -0.00916933)
(0.130495 0.290104 -0.00978072)
(-0.0101611 0.324702 -0.00960852)
(0.0869032 0.263622 -0.00847957)
(0.108633 0.259116 -0.00766158)
(0.109943 0.252113 -0.0074415)
(0.131543 0.250025 -0.00744738)
(0.154489 0.257541 -0.00775548)
(0.168508 0.266638 -0.00793021)
(0.176304 0.277603 -0.00783144)
(0.1798 0.287189 -0.00749859)
(0.180611 0.301014 -0.00725073)
(0.178624 0.318763 -0.00718998)
(0.173724 0.340069 -0.00713372)
(0.15656 0.369032 -0.00709136)
(0.14139 0.400524 -0.00704743)
(0.0853965 0.443461 -0.00696549)
(0.0487173 0.484207 -0.00655612)
(1.79978 0.000625341 -0.00223165)
(1.81942 0.00456809 -0.00218014)
(1.80069 0.00989536 -0.00230969)
(1.68647 0.0260391 -0.00297156)
(1.12076 0.0957581 -0.00560738)
(0.0426623 0.384994 -0.00979871)
(-0.291159 0.425801 -0.0104553)
(0.269111 0.25337 -0.0092054)
(0.177225 0.311779 -0.00965107)
(0.00843816 0.36369 -0.00964084)
(0.0826667 0.30237 -0.0086295)
(0.122522 0.289027 -0.007669)
(0.119568 0.282359 -0.00736311)
(0.141275 0.279378 -0.00733583)
(0.164028 0.285917 -0.00758645)
(0.181306 0.295439 -0.00784471)
(0.191216 0.307686 -0.00779005)
(0.197501 0.318326 -0.00752298)
(0.200766 0.33343 -0.00721342)
(0.201337 0.353579 -0.00711375)
(0.201447 0.379361 -0.00706247)
(0.190648 0.415731 -0.00699976)
(0.18212 0.462048 -0.00691721)
(0.140615 0.532966 -0.00678673)
(0.0839656 0.640859 -0.00628189)
(1.77308 9.23711e-05 -2.11859e-08)
(1.78203 0.000479435 -6.76679e-08)
(1.71539 0.00114861 -1.16428e-07)
(1.3405 0.00367559 -3.28364e-07)
(0.222598 0.0138974 -7.20869e-07)
(-0.360285 0.0260467 3.48921e-07)
(0.0297483 0.0185374 1.46087e-07)
(0.22276 0.0184705 4.00835e-08)
(-0.0397616 0.0253113 3.39877e-07)
(-0.0124781 0.0216278 5.7438e-08)
(0.0580524 0.0211103 9.43166e-08)
(0.0504958 0.0200737 1.52055e-07)
(0.0695763 0.0192325 3.00631e-07)
(0.0860751 0.0193872 2.9728e-07)
(0.0963085 0.0201658 2.81463e-07)
(0.100047 0.0214539 2.21154e-07)
(0.103205 0.022559 2.12615e-07)
(0.103808 0.02366 1.99671e-07)
(0.103439 0.0245032 1.92843e-07)
(0.100419 0.0254303 1.63441e-07)
(0.0937673 0.0261863 9.21425e-08)
(0.0759251 0.0270679 6.10406e-08)
(0.0622098 0.0275325 -6.55264e-08)
(0.0151232 0.0282698 -1.96169e-07)
(0.0174836 0.0279799 -2.37216e-07)
(1.77389 0.000285353 -1.79664e-08)
(1.78315 0.00148689 -5.73091e-08)
(1.71818 0.00356705 -9.50235e-08)
(1.35227 0.0114397 -2.58766e-07)
(0.236387 0.0435963 -5.35003e-07)
(-0.358783 0.0755332 1.46148e-07)
(0.0190694 0.0462217 4.2339e-07)
(0.226325 0.0449846 -1.71269e-07)
(-0.0383391 0.061776 1.23233e-07)
(-0.014992 0.0474727 2.43015e-07)
(0.0597175 0.0462633 6.55351e-08)
(0.052127 0.0443739 1.61226e-07)
(0.0714384 0.0426836 2.6509e-07)
(0.0883667 0.0431715 2.65688e-07)
(0.099342 0.0442425 2.71636e-07)
(0.103194 0.0461899 2.26999e-07)
(0.106161 0.0481544 2.34574e-07)
(0.106485 0.0503163 2.07135e-07)
(0.105829 0.0520106 1.94382e-07)
(0.10244 0.0540808 1.65005e-07)
(0.0953077 0.0557232 9.5736e-08)
(0.076942 0.0577039 6.47863e-08)
(0.0623757 0.0586713 -5.69077e-08)
(0.0144436 0.0593261 -1.62889e-07)
(0.0170341 0.0579323 -1.96194e-07)
(1.77561 0.000468315 -1.72949e-08)
(1.78553 0.00247364 -5.54792e-08)
(1.72413 0.00593217 -9.34707e-08)
(1.37847 0.0190222 -2.58041e-07)
(0.271462 0.0723656 -6.0581e-07)
(-0.349171 0.130076 2.66504e-08)
(-0.000320347 0.0777806 5.35651e-07)
(0.238511 0.0751975 -2.28059e-07)
(-0.0307303 0.104076 -1.56751e-07)
(-0.0176357 0.0801669 2.70981e-07)
(0.0641365 0.078156 1.33965e-07)
(0.0550288 0.0761841 1.59061e-07)
(0.0745153 0.0741633 2.30544e-07)
(0.0916859 0.0752407 2.42381e-07)
(0.103405 0.077313 2.5305e-07)
(0.108019 0.0806087 2.42304e-07)
(0.111306 0.0836374 2.21804e-07)
(0.111153 0.0870557 2.04713e-07)
(0.110038 0.0901419 1.94914e-07)
(0.106343 0.0936991 1.67796e-07)
(0.0987566 0.0967328 9.87771e-08)
(0.0798364 0.100049 6.68922e-08)
(0.0640467 0.102211 -4.95831e-08)
(0.0147684 0.104201 -1.35433e-07)
(0.0168849 0.10255 -1.40844e-07)
(1.7781 0.000608483 -1.74711e-08)
(1.78898 0.00328914 -5.82835e-08)
(1.73277 0.00786098 -9.92184e-08)
(1.41562 0.0250717 -2.84656e-07)
(0.324901 0.0942106 -7.34241e-07)
(-0.331358 0.184153 6.43356e-08)
(-0.0298825 0.111109 5.05774e-07)
(0.256608 0.104113 -1.06057e-07)
(-0.0174608 0.14436 -2.21209e-07)
(-0.0218206 0.114856 2.92922e-07)
(0.0708098 0.108611 1.69257e-07)
(0.0597146 0.106568 8.5354e-08)
(0.0786441 0.103854 1.21129e-07)
(0.0963677 0.104952 1.78763e-07)
(0.109642 0.108173 2.25733e-07)
(0.115003 0.113111 2.26526e-07)
(0.118391 0.117248 2.03208e-07)
(0.117935 0.121884 2.07475e-07)
(0.11635 0.126748 1.92462e-07)
(0.112193 0.13197 1.65461e-07)
(0.103936 0.13666 9.86221e-08)
(0.0843262 0.141609 6.90351e-08)
(0.0675183 0.145521 -3.74313e-08)
(0.0166391 0.149693 -9.26756e-08)
(0.017194 0.148545 -7.27216e-08)
(1.78118 0.000701219 -1.68954e-08)
(1.79326 0.00390443 -5.8152e-08)
(1.74337 0.00926286 -9.93431e-08)
(1.4602 0.0291761 -2.97397e-07)
(0.395839 0.109077 -7.51069e-07)
(-0.303595 0.236368 1.72402e-08)
(-0.0699469 0.147824 5.70176e-07)
(0.277991 0.131304 -8.09524e-08)
(0.00183798 0.180637 -2.3473e-07)
(-0.0267895 0.152418 3.01092e-07)
(0.0776986 0.138163 2.26344e-07)
(0.0659182 0.136947 2.78753e-08)
(0.0835535 0.133336 6.22982e-08)
(0.101571 0.134336 1.80779e-07)
(0.116888 0.138554 2.24289e-07)
(0.123432 0.144846 2.18705e-07)
(0.127115 0.150129 1.83434e-07)
(0.126631 0.155939 1.88488e-07)
(0.124697 0.162545 1.77626e-07)
(0.120046 0.169718 1.53197e-07)
(0.111221 0.176443 9.70851e-08)
(0.0910971 0.183716 7.46832e-08)
(0.0733217 0.190144 -1.58015e-08)
(0.0205699 0.197342 -4.44896e-08)
(0.0183513 0.197402 5.97548e-10)
(1.78466 0.000747803 -1.60748e-08)
(1.79813 0.00433853 -5.6937e-08)
(1.75515 0.0101728 -9.60578e-08)
(1.50881 0.0312784 -2.94142e-07)
(0.487587 0.117098 -8.03617e-07)
(-0.263721 0.286285 -1.47497e-07)
(-0.118499 0.189391 6.95207e-07)
(0.29923 0.156444 -5.21407e-08)
(0.0255405 0.212699 -2.89688e-07)
(-0.030349 0.193159 2.75051e-07)
(0.0839387 0.167552 1.65208e-07)
(0.0740818 0.167505 -1.77362e-09)
(0.0890744 0.162729 1.67156e-08)
(0.107734 0.163268 1.03326e-07)
(0.125481 0.168758 1.73482e-07)
(0.133309 0.176171 1.94675e-07)
(0.137379 0.182609 1.77229e-07)
(0.137153 0.189599 1.71766e-07)
(0.135141 0.197902 1.64949e-07)
(0.130198 0.207398 1.42472e-07)
(0.120999 0.216934 9.99052e-08)
(0.100649 0.227336 8.76574e-08)
(0.0820729 0.237043 1.41956e-08)
(0.0273334 0.248405 1.50202e-08)
(0.0206655 0.250498 6.49852e-08)
(1.78838 0.000750348 -1.55459e-08)
(1.80336 0.00461525 -5.79396e-08)
(1.76729 0.0106589 -9.55744e-08)
(1.55778 0.0316348 -2.85309e-07)
(0.608521 0.117625 -8.07564e-07)
(-0.210573 0.331816 -2.70043e-07)
(-0.172405 0.237091 6.918e-07)
(0.316072 0.179995 5.8115e-08)
(0.0542372 0.240734 -1.96379e-07)
(-0.0294805 0.236188 1.86865e-07)
(0.0879039 0.198036 4.38794e-07)
(0.0840823 0.19822 1.087e-07)
(0.0952283 0.192298 3.96152e-08)
(0.114739 0.192089 8.48347e-08)
(0.134847 0.198792 1.18021e-07)
(0.144166 0.20694 1.54008e-07)
(0.149088 0.214733 1.4537e-07)
(0.149509 0.222762 1.74393e-07)
(0.147833 0.232903 1.55602e-07)
(0.143182 0.244932 1.41629e-07)
(0.134054 0.258089 1.12266e-07)
(0.113764 0.273042 1.13976e-07)
(0.0947721 0.287209 6.80793e-08)
(0.0378403 0.304917 7.51471e-08)
(0.0248992 0.310798 1.42655e-07)
(1.7922 0.000716765 -1.40147e-08)
(1.80878 0.00475521 -5.75968e-08)
(1.77919 0.0107687 -9.46397e-08)
(1.60409 0.0306608 -2.75214e-07)
(0.760193 0.112855 -7.86595e-07)
(-0.14469 0.368895 -5.25713e-07)
(-0.225762 0.291955 7.63172e-07)
(0.32122 0.202877 1.88969e-07)
(0.0888321 0.2665 -1.89234e-07)
(-0.0230319 0.28105 1.1437e-07)
(0.0894112 0.229976 4.65015e-07)
(0.0956517 0.228968 1.89255e-07)
(0.102056 0.22209 1.20098e-07)
(0.12263 0.220893 1.05359e-07)
(0.144618 0.228373 1.08342e-07)
(0.155971 0.237033 1.21227e-07)
(0.162149 0.246441 1.20313e-07)
(0.16373 0.255267 1.45905e-07)
(0.162896 0.267344 1.43119e-07)
(0.159235 0.282151 1.33019e-07)
(0.151357 0.299306 1.26876e-07)
(0.131729 0.320658 1.29311e-07)
(0.113466 0.341451 1.08867e-07)
(0.0549494 0.369618 1.26685e-07)
(0.0325686 0.385354 2.32328e-07)
(1.79604 0.000669308 -1.21538e-08)
(1.81419 0.00475108 -5.5921e-08)
(1.79041 0.0105039 -9.03165e-08)
(1.64709 0.028706 -2.50292e-07)
(0.936227 0.105315 -7.42326e-07)
(-0.0622522 0.389637 -9.2415e-07)
(-0.269121 0.355588 8.96992e-07)
(0.308792 0.226539 2.96478e-07)
(0.130416 0.290329 -1.33736e-07)
(-0.0100809 0.324851 1.61174e-07)
(0.0868906 0.263705 4.48066e-07)
(0.108599 0.259159 1.95504e-07)
(0.109919 0.252085 1.60322e-07)
(0.131499 0.249941 1.21981e-07)
(0.154425 0.257435 1.14979e-07)
(0.168456 0.266516 1.21705e-07)
(0.176266 0.277486 1.16275e-07)
(0.17977 0.28708 1.1923e-07)
(0.18059 0.300934 1.28565e-07)
(0.178605 0.318701 1.27479e-07)
(0.173702 0.340017 1.33683e-07)
(0.156536 0.368983 1.50477e-07)
(0.141364 0.400471 1.41693e-07)
(0.0853828 0.443402 1.67103e-07)
(0.0487093 0.484171 3.39222e-07)
(1.79977 0.00062572 -1.03223e-08)
(1.81941 0.00457051 -5.30554e-08)
(1.80066 0.00990095 -8.02646e-08)
(1.68638 0.0260552 -2.17843e-07)
(1.12034 0.095813 -6.79382e-07)
(0.0424662 0.385147 -1.30343e-06)
(-0.291054 0.425794 9.11876e-07)
(0.269307 0.253484 4.91074e-07)
(0.177175 0.311999 -8.05764e-08)
(0.00854742 0.363854 2.31845e-07)
(0.0827764 0.302485 4.30025e-07)
(0.122563 0.289079 1.9442e-07)
(0.119612 0.282335 1.62557e-07)
(0.141288 0.27929 1.31173e-07)
(0.164006 0.28579 1.33453e-07)
(0.181301 0.295302 1.23217e-07)
(0.191216 0.307556 1.08134e-07)
(0.197505 0.318209 1.07025e-07)
(0.200769 0.333338 1.24991e-07)
(0.201334 0.353507 1.52558e-07)
(0.201434 0.379303 1.57477e-07)
(0.190628 0.415678 1.69269e-07)
(0.182091 0.461995 1.83376e-07)
(0.140596 0.532907 2.2263e-07)
(0.0839574 0.64083 3.33437e-07)
(1.77309 9.19387e-05 1.27176e-08)
(1.78204 0.000477566 4.3445e-08)
(1.71541 0.0011437 7.48778e-08)
(1.3406 0.00365749 2.05846e-07)
(0.222693 0.0138023 4.47604e-07)
(-0.360131 0.0259633 -3.51953e-07)
(0.0297834 0.0184754 -2.24285e-07)
(0.222861 0.018442 1.18203e-07)
(-0.0395977 0.02529 7.30605e-07)
(-0.0125666 0.0216786 3.86884e-09)
(0.0577771 0.0211418 -1.91103e-07)
(0.0502865 0.0200729 -2.80517e-08)
(0.0693936 0.0191541 8.31045e-09)
(0.0859426 0.0193016 -4.36315e-08)
(0.0962312 0.0201143 -5.74581e-08)
(0.100011 0.021435 -6.41665e-08)
(0.103188 0.0225472 -2.75408e-08)
(0.103804 0.0236515 -1.45902e-08)
(0.103432 0.0244977 -8.40161e-09)
(0.100399 0.0254284 -2.98753e-08)
(0.0937325 0.0261865 -8.40153e-08)
(0.0758779 0.0270693 -7.72954e-08)
(0.0621587 0.0275347 -1.47494e-07)
(0.0150807 0.0282723 -1.55051e-07)
(0.0174708 0.0279822 -5.08597e-08)
(1.7739 0.000285269 6.77058e-09)
(1.78316 0.00148633 2.31844e-08)
(1.71819 0.00356547 3.00389e-08)
(1.35228 0.0114332 4.92979e-08)
(0.236363 0.043568 1.64488e-08)
(-0.359145 0.0755742 1.03055e-08)
(0.0187186 0.046296 -7.7028e-07)
(0.226095 0.0450747 5.42048e-07)
(-0.0387864 0.061952 7.01042e-07)
(-0.0154574 0.0475286 -3.08627e-07)
(0.0591722 0.0463286 4.59362e-08)
(0.0517467 0.0444083 7.2371e-11)
(0.0711763 0.0426585 8.32503e-08)
(0.0882753 0.0431413 -7.25744e-08)
(0.099308 0.0441997 -7.91225e-08)
(0.103176 0.0461466 -6.7414e-08)
(0.106148 0.0481099 -1.85461e-08)
(0.106485 0.0502904 -2.23358e-08)
(0.105825 0.0519973 -1.516e-08)
(0.102423 0.0540751 -3.28174e-08)
(0.0952748 0.0557223 -8.26788e-08)
(0.0768961 0.0577057 -7.85541e-08)
(0.0623255 0.0586754 -1.47979e-07)
(0.0144014 0.0593309 -1.45688e-07)
(0.0170212 0.0579366 -4.21366e-08)
(1.77562 0.000468797 1.15313e-08)
(1.78554 0.00247599 3.80112e-08)
(1.72415 0.00593804 6.19898e-08)
(1.37853 0.0190419 1.55016e-07)
(0.271561 0.0724527 3.31539e-07)
(-0.349138 0.13017 1.03693e-07)
(-0.000371109 0.0778552 -4.58847e-07)
(0.238556 0.0752622 2.96883e-07)
(-0.0306393 0.104248 3.92501e-07)
(-0.0176408 0.0800881 6.49544e-08)
(0.0641728 0.0781359 -9.27623e-08)
(0.0550909 0.0761102 8.95729e-08)
(0.0745316 0.0740815 3.17593e-08)
(0.0916745 0.0751378 -6.27087e-09)
(0.103425 0.0772329 -3.57427e-08)
(0.108045 0.0805449 -6.66077e-08)
(0.111332 0.0835784 -5.66377e-08)
(0.111181 0.0870225 -5.07543e-08)
(0.110048 0.0901239 -2.72519e-08)
(0.106333 0.0936916 -3.75379e-08)
(0.098728 0.096732 -8.43854e-08)
(0.0797935 0.100053 -8.31251e-08)
(0.063998 0.102217 -1.4856e-07)
(0.0147265 0.104209 -1.34926e-07)
(0.0168719 0.102557 -3.01281e-08)
(1.77811 0.00060857 1.47336e-08)
(1.78899 0.00329019 5.33884e-08)
(1.73279 0.00786352 9.04211e-08)
(1.41572 0.0250803 2.53138e-07)
(0.325017 0.0942444 7.04577e-07)
(-0.33126 0.18422 -1.7705e-07)
(-0.0299008 0.111119 -1.79461e-07)
(0.256743 0.104156 4.16742e-08)
(-0.0172231 0.144489 -2.6928e-08)
(-0.0216805 0.114816 1.3381e-07)
(0.0710845 0.10859 1.1778e-08)
(0.0599703 0.106459 -1.73178e-09)
(0.0788508 0.103735 -3.07038e-08)
(0.0965586 0.104838 3.25445e-08)
(0.109831 0.108095 -8.93818e-08)
(0.115118 0.113056 -9.70479e-08)
(0.118457 0.117201 -8.05117e-08)
(0.117984 0.121854 -6.57091e-08)
(0.116372 0.126732 -4.12791e-08)
(0.112192 0.131965 -4.62479e-08)
(0.103914 0.136662 -8.90956e-08)
(0.0842873 0.141615 -8.57603e-08)
(0.0674713 0.14553 -1.4742e-07)
(0.0165978 0.149704 -1.22338e-07)
(0.0171808 0.148555 -1.66384e-08)
(1.78119 0.000700983 1.40794e-08)
(1.79328 0.00390387 5.48533e-08)
(1.7434 0.00926152 9.35053e-08)
(1.46029 0.0291725 2.767e-07)
(0.39597 0.109067 7.06836e-07)
(-0.303531 0.236408 -1.47564e-07)
(-0.0699796 0.147819 -2.63181e-07)
(0.278161 0.131318 1.51555e-07)
(0.00208643 0.180694 -1.52399e-07)
(-0.0265852 0.15244 -5.8547e-08)
(0.0781157 0.138114 5.0626e-08)
(0.0662887 0.136912 6.34657e-08)
(0.0838796 0.133307 5.48023e-08)
(0.101806 0.134358 -1.54591e-09)
(0.117106 0.138566 -1.07774e-07)
(0.123576 0.144838 -9.685e-08)
(0.127205 0.15011 -1.07388e-07)
(0.126698 0.155923 -9.39967e-08)
(0.124731 0.16254 -5.78524e-08)
(0.120053 0.169718 -5.22131e-08)
(0.111203 0.176449 -9.01334e-08)
(0.0910607 0.183724 -8.70843e-08)
(0.0732769 0.190155 -1.4242e-07)
(0.0205297 0.197355 -1.11953e-07)
(0.0183379 0.197415 2.39285e-09)
(1.78466 0.00074738 1.21257e-08)
(1.79814 0.00433723 5.08355e-08)
(1.75517 0.0101699 8.6584e-08)
(1.50889 0.0312703 2.67383e-07)
(0.487748 0.117074 7.36033e-07)
(-0.263684 0.286299 7.31289e-08)
(-0.118551 0.189379 -4.51212e-07)
(0.299395 0.156407 2.65235e-07)
(0.0257456 0.212656 3.81145e-08)
(-0.0301515 0.193197 -2.48003e-07)
(0.084346 0.167492 -5.39389e-08)
(0.0744586 0.167507 -4.71376e-08)
(0.0893558 0.162732 2.98528e-08)
(0.107922 0.163312 -4.92097e-08)
(0.125657 0.168811 -7.67261e-08)
(0.133433 0.176205 -5.98552e-08)
(0.13747 0.182635 -1.02982e-07)
(0.137225 0.189609 -1.0243e-07)
(0.135179 0.197913 -7.09678e-08)
(0.130208 0.207408 -6.02504e-08)
(0.120984 0.216944 -9.07968e-08)
(0.100615 0.227347 -8.47732e-08)
(0.0820304 0.237057 -1.32317e-07)
(0.0272947 0.248421 -1.00867e-07)
(0.020652 0.250514 2.52857e-08)
(1.78838 0.000749862 1.01518e-08)
(1.80337 0.00461363 4.75981e-08)
(1.76731 0.0106553 8.06781e-08)
(1.55785 0.0316249 2.49039e-07)
(0.608708 0.117596 7.17889e-07)
(-0.210523 0.331805 2.32938e-07)
(-0.172477 0.237075 -5.00671e-07)
(0.316205 0.179916 2.05417e-07)
(0.0543768 0.240618 1.28136e-07)
(-0.0293569 0.236177 -3.40598e-07)
(0.0881853 0.197989 -1.39579e-07)
(0.0843483 0.198215 -5.73805e-08)
(0.0954126 0.192304 3.45776e-09)
(0.114877 0.192125 -9.52426e-08)
(0.134969 0.198834 -6.89148e-08)
(0.144251 0.206982 -6.16181e-08)
(0.149158 0.214784 -7.65486e-08)
(0.149569 0.222798 -1.06111e-07)
(0.147866 0.232929 -7.33529e-08)
(0.143189 0.244952 -6.36674e-08)
(0.134037 0.258105 -8.9358e-08)
(0.113732 0.273058 -7.81178e-08)
(0.0947317 0.287227 -1.12909e-07)
(0.0378028 0.304936 -8.57143e-08)
(0.0248856 0.310816 5.31355e-08)
(1.79221 0.000716339 7.51218e-09)
(1.80878 0.00475344 4.27121e-08)
(1.77921 0.0107646 7.37742e-08)
(1.60415 0.0306496 2.29285e-07)
(0.760399 0.112822 6.84868e-07)
(-0.144632 0.368856 4.96328e-07)
(-0.225845 0.291929 -5.75891e-07)
(0.321292 0.202776 8.03149e-08)
(0.0889107 0.266341 1.47248e-07)
(-0.0230166 0.280979 -4.89134e-07)
(0.0895291 0.229935 -1.90753e-07)
(0.0957828 0.228965 -6.04236e-08)
(0.102148 0.222115 -7.92973e-08)
(0.122723 0.220945 -1.05667e-07)
(0.144708 0.228417 -4.89235e-08)
(0.156049 0.237087 -6.80665e-08)
(0.16221 0.246503 -7.75199e-08)
(0.163775 0.255323 -8.88649e-08)
(0.162919 0.267382 -6.85367e-08)
(0.159237 0.282179 -6.19721e-08)
(0.151338 0.29933 -8.00355e-08)
(0.131696 0.320679 -7.14231e-08)
(0.113426 0.341472 -9.09169e-08)
(0.0549119 0.36964 -6.34017e-08)
(0.032554 0.385373 8.47863e-08)
(1.79604 0.00066901 5.0822e-09)
(1.8142 0.00474944 3.69602e-08)
(1.79042 0.0105001 6.40306e-08)
(1.64714 0.0286954 1.95905e-07)
(0.93643 0.105281 6.28457e-07)
(-0.062185 0.389566 8.83495e-07)
(-0.269189 0.355554 -6.59453e-07)
(0.308795 0.226437 -3.36725e-08)
(0.130446 0.290156 1.74568e-07)
(-0.0101441 0.324752 -5.2855e-07)
(0.0868925 0.263663 -2.16975e-07)
(0.108629 0.259159 -5.9614e-08)
(0.109939 0.252129 -1.2349e-07)
(0.131544 0.250011 -1.05113e-07)
(0.154482 0.257503 -5.17269e-08)
(0.168496 0.266591 -5.91914e-08)
(0.176295 0.277556 -5.37563e-08)
(0.179792 0.287145 -6.46788e-08)
(0.180597 0.300982 -5.52921e-08)
(0.178599 0.318735 -5.60679e-08)
(0.173679 0.340045 -6.67445e-08)
(0.156501 0.369007 -5.80009e-08)
(0.141325 0.400493 -7.08504e-08)
(0.0853452 0.443425 -4.85101e-08)
(0.0486926 0.484191 1.24133e-07)
(1.79977 0.00062552 3.07121e-09)
(1.81941 0.00456909 3.08786e-08)
(1.80067 0.00989774 5.07858e-08)
(1.68641 0.0260462 1.57128e-07)
(1.12051 0.0957816 5.47997e-07)
(0.0425483 0.385047 1.20157e-06)
(-0.291095 0.425754 -6.20772e-07)
(0.269246 0.253396 -1.44432e-07)
(0.177192 0.311845 1.63253e-07)
(0.00846171 0.363764 -4.4756e-07)
(0.0827009 0.302433 -2.41251e-07)
(0.122536 0.289074 -5.86254e-08)
(0.119579 0.28238 -1.10215e-07)
(0.141286 0.27936 -8.65646e-08)
(0.164034 0.285867 -5.46481e-08)
(0.181311 0.295372 -5.26846e-08)
(0.191222 0.307622 -4.24253e-08)
(0.197506 0.318273 -4.51011e-08)
(0.200761 0.33339 -4.1896e-08)
(0.201319 0.353546 -4.39325e-08)
(0.201406 0.379332 -5.31017e-08)
(0.19059 0.415704 -5.42476e-08)
(0.18205 0.462017 -5.80584e-08)
(0.140559 0.532931 -2.43423e-08)
(0.083938 0.640848 1.04519e-07)
(1.77309 9.19832e-05 4.86667e-09)
(1.78204 0.000477753 2.84695e-08)
(1.71541 0.00114417 6.16468e-08)
(1.34058 0.00365915 2.37235e-07)
(0.222669 0.0138104 6.61906e-07)
(-0.360152 0.0259707 4.14384e-08)
(0.0297758 0.0184809 -3.76094e-07)
(0.222827 0.0184495 1.39293e-08)
(-0.0396332 0.0252971 -1.02382e-07)
(-0.0125647 0.0216797 3.34057e-09)
(0.0577816 0.0211504 4.40655e-09)
(0.0502935 0.0200842 -4.03215e-08)
(0.069392 0.0191675 -7.80009e-08)
(0.085933 0.0193133 -8.61694e-08)
(0.0962132 0.0201199 -5.4515e-08)
(0.099987 0.0214364 -3.04619e-08)
(0.103162 0.0225459 1.02374e-09)
(0.103779 0.0236514 1.06069e-08)
(0.103407 0.0244978 -5.10384e-09)
(0.10037 0.0254285 -5.21614e-08)
(0.0937025 0.026186 -1.01118e-07)
(0.0758451 0.0270684 -1.02161e-07)
(0.0621246 0.0275334 -1.04309e-07)
(0.0150568 0.0282703 -5.94043e-08)
(0.0174638 0.0279799 1.24658e-08)
(1.77389 0.000285319 5.22064e-09)
(1.78316 0.00148656 2.90059e-08)
(1.71819 0.00356604 6.17923e-08)
(1.35226 0.0114351 2.34342e-07)
(0.236348 0.0435757 6.47857e-07)
(-0.359133 0.075576 5.79714e-08)
(0.01874 0.046291 -3.36166e-07)
(0.226087 0.0450765 3.18634e-08)
(-0.0387711 0.061941 -9.70294e-08)
(-0.0154185 0.0475144 5.25796e-08)
(0.0592042 0.0463197 1.364e-08)
(0.0517671 0.0443984 -3.74679e-08)
(0.0711825 0.0426522 -6.99154e-08)
(0.0882668 0.0431381 -7.02763e-08)
(0.0992898 0.0442025 -6.82208e-08)
(0.103152 0.0461487 -5.10348e-08)
(0.106124 0.0481161 -2.31337e-10)
(0.106461 0.0502948 6.54653e-09)
(0.105799 0.0519996 -9.84017e-09)
(0.102393 0.0540764 -5.28951e-08)
(0.0952439 0.0557221 -9.75913e-08)
(0.0768625 0.0577043 -9.81486e-08)
(0.0622904 0.0586729 -1.00221e-07)
(0.0143765 0.0593272 -5.77318e-08)
(0.017014 0.0579325 1.90153e-08)
(1.77562 0.000468816 4.99797e-09)
(1.78553 0.00247609 2.76672e-08)
(1.72415 0.00593829 5.81948e-08)
(1.37852 0.0190429 2.20116e-07)
(0.27154 0.0724569 7.14992e-07)
(-0.349144 0.130173 3.02359e-08)
(-0.000357963 0.0778542 -3.2466e-07)
(0.238546 0.0752701 6.88562e-08)
(-0.0306264 0.104243 -4.11139e-08)
(-0.017597 0.080091 7.24143e-08)
(0.0642029 0.0781459 3.67687e-09)
(0.055107 0.0761319 -5.42194e-08)
(0.0745416 0.0741081 -8.86144e-08)
(0.0916811 0.0751794 -8.30765e-08)
(0.103412 0.0772538 -8.19153e-08)
(0.108024 0.0805521 -5.24163e-08)
(0.111308 0.0835857 -2.50176e-08)
(0.111153 0.0870256 -1.26947e-09)
(0.11002 0.0901266 -1.1364e-08)
(0.106301 0.093693 -4.67331e-08)
(0.0986959 0.0967317 -8.76373e-08)
(0.0797588 0.10005 -8.91129e-08)
(0.0639618 0.102213 -9.65309e-08)
(0.014701 0.104203 -5.35281e-08)
(0.0168646 0.102552 1.9893e-08)
(1.77811 0.000608542 5.0014e-09)
(1.78899 0.00329011 2.71415e-08)
(1.73279 0.00786342 5.597e-08)
(1.41571 0.0250805 2.08721e-07)
(0.325002 0.094246 6.90861e-07)
(-0.331254 0.184219 6.34583e-08)
(-0.0298824 0.111121 -2.81109e-07)
(0.256729 0.104155 6.41647e-08)
(-0.0172252 0.144482 1.04474e-07)
(-0.0216645 0.114837 4.40013e-08)
(0.0710619 0.108618 -1.33543e-08)
(0.059917 0.106494 1.26525e-09)
(0.0787911 0.103765 -1.40709e-08)
(0.0964737 0.104859 -6.61483e-08)
(0.109757 0.108102 -7.43322e-08)
(0.115073 0.113058 -6.75778e-08)
(0.118428 0.117204 -7.11358e-08)
(0.117957 0.121856 -1.97835e-08)
(0.116344 0.126735 -1.66721e-08)
(0.11216 0.131967 -4.0305e-08)
(0.10388 0.136662 -7.59109e-08)
(0.0842508 0.141612 -8.22811e-08)
(0.0674339 0.145526 -9.04223e-08)
(0.0165713 0.149698 -4.58392e-08)
(0.0171734 0.148548 1.86026e-08)
(1.78119 0.000700967 4.15282e-09)
(1.79327 0.00390381 2.42334e-08)
(1.7434 0.00926142 5.01514e-08)
(1.46028 0.0291724 1.93102e-07)
(0.395953 0.109066 6.07141e-07)
(-0.303544 0.236406 1.75856e-07)
(-0.0699819 0.147825 -3.15418e-07)
(0.278126 0.131316 1.08833e-07)
(0.00203072 0.180698 1.92853e-07)
(-0.0266519 0.152468 -1.54311e-08)
(0.0779746 0.138157 -1.56782e-08)
(0.0661469 0.136924 7.12769e-08)
(0.083755 0.133298 4.26662e-08)
(0.101718 0.134313 -2.00323e-08)
(0.117032 0.138532 -5.82608e-08)
(0.123527 0.14482 -9.1321e-08)
(0.127173 0.150107 -7.85489e-08)
(0.126667 0.155924 -2.63936e-08)
(0.124701 0.162541 -2.26685e-08)
(0.120019 0.16972 -3.89529e-08)
(0.111167 0.176449 -6.91887e-08)
(0.0910233 0.183722 -6.92342e-08)
(0.0732379 0.190152 -7.73478e-08)
(0.0205015 0.197349 -3.76265e-08)
(0.01833 0.197407 3.0898e-08)
(1.78466 0.00074747 3.82208e-09)
(1.79814 0.00433754 2.20477e-08)
(1.75517 0.0101706 4.43573e-08)
(1.50888 0.0312724 1.73359e-07)
(0.48773 0.117082 5.9034e-07)
(-0.263697 0.286308 3.18941e-07)
(-0.118561 0.189395 -3.6449e-07)
(0.29935 0.156427 1.04175e-07)
(0.0256772 0.212685 2.26226e-07)