/*--------------------------------*- C++ -*----------------------------------*\
| =========                 |                                                 |
| \\      /  F ield         | OpenFOAM: The Open Source CFD Toolbox           |
|  \\    /   O peration     | Version:  4.1                                   |
|   \\  /    A nd           | Web:      www.OpenFOAM.org                      |
|    \\/     M anipulation  |                                                 |
\*---------------------------------------------------------------------------*/
FoamFile
{
    version     2.0;
    format      ascii;
    class       volScalarField;
    location    "0.52";
    object      Ma;
}
// * * * * * * * * * * * * * * * * * * * * * * * * * * * * * * * * * * * * * //

dimensions      [0 0 0 0 0 0 0];

internalField   nonuniform List<scalar> 
52500
(
3.12256
3.23814
3.21587
3.10929
2.70797
1.5559
0.0791537
0.404856
0.191762
0.0798735
0.14211
0.147031
0.136952
0.131019
0.114984
0.0977355
0.074647
0.0521361
0.0305811
0.0346498
0.0607312
0.0731546
0.0945283
0.0597205
0.050987
3.12305
3.23918
3.21738
3.11318
2.7209
1.58381
0.105999
0.408273
0.203231
0.0920291
0.148556
0.152467
0.141659
0.135634
0.120424
0.105072
0.0855265
0.0690742
0.0572205
0.062978
0.0826668
0.0945708
0.113788
0.0881552
0.0842651
3.12411
3.24139
3.22061
3.12154
2.74924
1.64788
0.159897
0.410003
0.222397
0.110912
0.161003
0.164653
0.153493
0.148302
0.135381
0.123636
0.109702
0.100688
0.0964079
0.104247
0.120211
0.132172
0.149411
0.132805
0.133141
3.12563
3.24459
3.22528
3.13358
2.79054
1.74522
0.236402
0.412101
0.251221
0.134226
0.177516
0.181272
0.169742
0.165271
0.154524
0.146649
0.13805
0.134746
0.135809
0.146321
0.161423
0.174663
0.19164
0.18184
0.185377
3.1275
3.24856
3.23099
3.14808
2.84081
1.87244
0.338213
0.413142
0.288816
0.159981
0.197566
0.201971
0.190135
0.186551
0.177418
0.172708
0.168708
0.169963
0.175849
0.188186
0.204292
0.219628
0.237763
0.233899
0.23985
3.12964
3.25307
3.2374
3.16403
2.89576
2.01889
0.468429
0.410698
0.333769
0.18715
0.220014
0.225872
0.213533
0.210495
0.202766
0.200757
0.200915
0.206159
0.216606
0.23011
0.248464
0.266462
0.286877
0.288722
0.298287
3.13193
3.2579
3.24413
3.18052
2.95212
2.17811
0.63099
0.402283
0.383655
0.214918
0.24408
0.252172
0.239229
0.236379
0.230091
0.230056
0.234002
0.243242
0.257408
0.272751
0.293807
0.315399
0.339106
0.3461
0.362684
3.13427
3.26285
3.2509
3.19678
3.00643
2.3425
0.845621
0.387168
0.435603
0.242644
0.269459
0.280005
0.266622
0.263221
0.258802
0.259939
0.267386
0.280664
0.297943
0.316252
0.340619
0.366599
0.395512
0.409424
0.437485
3.13651
3.26758
3.25731
3.21215
3.05657
2.50161
1.11484
0.366136
0.485785
0.271694
0.295957
0.308928
0.29543
0.290854
0.288776
0.290287
0.301028
0.317042
0.338162
0.360174
0.388905
0.420609
0.457995
0.484011
0.534977
3.13852
3.27187
3.26315
3.22633
3.10201
2.65379
1.4196
0.341479
0.527067
0.305997
0.322657
0.338329
0.325459
0.319476
0.319417
0.32055
0.334957
0.352444
0.377726
0.403822
0.438018
0.477439
0.528623
0.579425
0.689674
3.12253
3.23809
3.21581
3.10915
2.70752
1.55497
0.0781578
0.404939
0.191475
0.0795828
0.141936
0.146779
0.136668
0.130734
0.114691
0.0974124
0.0742407
0.0515687
0.0296007
0.0337989
0.0602646
0.072777
0.0942438
0.0592694
0.0504855
3.12303
3.23914
3.21734
3.11307
2.72061
1.58333
0.105627
0.40769
0.202396
0.0911516
0.147916
0.151922
0.141212
0.135302
0.120138
0.104784
0.0851866
0.0686556
0.0567019
0.0625039
0.0823105
0.0942625
0.113536
0.0878282
0.0839516
3.12408
3.24134
3.22056
3.12141
2.74885
1.64706
0.159124
0.410051
0.222124
0.11065
0.161002
0.164673
0.153482
0.148192
0.13522
0.123449
0.109476
0.100411
0.0960924
0.103947
0.119948
0.131932
0.149202
0.132561
0.132926
3.1256
3.24455
3.22522
3.13346
2.79015
1.74434
0.235758
0.41208
0.250948
0.134025
0.177529
0.181351
0.169858
0.165335
0.154488
0.146526
0.13787
0.134526
0.135569
0.146091
0.161208
0.174462
0.191456
0.181634
0.185195
3.12748
3.24852
3.23094
3.14798
2.84047
1.8716
0.337538
0.41317
0.288599
0.159868
0.197677
0.202082
0.190226
0.186545
0.177338
0.172569
0.16853
0.169767
0.17564
0.187986
0.204102
0.219447
0.237591
0.23371
0.239678
3.12962
3.25304
3.23736
3.16395
2.89548
2.01815
0.467727
0.410778
0.333605
0.187121
0.220125
0.225975
0.213518
0.210367
0.202578
0.200553
0.200717
0.205971
0.216414
0.229923
0.248285
0.266292
0.286713
0.288553
0.29813
3.13191
3.25788
3.2441
3.18046
2.95191
2.17748
0.630264
0.402413
0.38351
0.214889
0.244243
0.252188
0.239163
0.236233
0.22989
0.229829
0.233781
0.243045
0.257225
0.272572
0.293637
0.315236
0.338951
0.345946
0.362536
3.13425
3.26283
3.25088
3.19673
3.00628
2.34203
0.844898
0.387339
0.435484
0.24264
0.269509
0.279936
0.266524
0.263076
0.258623
0.259731
0.267161
0.280458
0.297769
0.316083
0.340458
0.366444
0.395362
0.409273
0.437333
3.1365
3.26756
3.25729
3.21212
3.05647
2.50128
1.11419
0.366305
0.485706
0.271706
0.296005
0.30886
0.295323
0.290693
0.288574
0.290059
0.300813
0.316839
0.337996
0.360011
0.388752
0.420467
0.457854
0.483861
0.534819
3.13851
3.27186
3.26314
3.22631
3.10195
2.65357
1.41909
0.341579
0.527033
0.305983
0.322779
0.338312
0.325375
0.319337
0.319241
0.320341
0.334759
0.352264
0.377571
0.403672
0.437878
0.477309
0.528494
0.579285
0.689515
3.12254
3.23811
3.21584
3.10922
2.70774
1.55543
0.0784473
0.404836
0.191583
0.0796483
0.142071
0.146968
0.136863
0.130878
0.114784
0.0974638
0.0742777
0.0515955
0.0296133
0.0337883
0.0602555
0.0727739
0.0942476
0.059277
0.0504906
3.12304
3.23915
3.21735
3.11311
2.72072
1.58348
0.105572
0.408072
0.202888
0.091642
0.148342
0.152261
0.141453
0.135419
0.120183
0.104793
0.0851905
0.0686623
0.0567068
0.0625008
0.0823072
0.0942632
0.113542
0.0878372
0.0839584
3.12409
3.24136
3.22059
3.12148
2.74906
1.64753
0.159495
0.409903
0.222126
0.110618
0.160829
0.164471
0.153301
0.148095
0.13515
0.123388
0.109431
0.100398
0.0960962
0.103951
0.119953
0.131938
0.149212
0.132573
0.132935
3.12561
3.24457
3.22525
3.13352
2.79037
1.74484
0.236048
0.412004
0.250962
0.133996
0.177356
0.181101
0.169571
0.165088
0.154327
0.146437
0.137825
0.134517
0.135579
0.146103
0.161219
0.174474
0.19147
0.181649
0.185207
3.12749
3.24854
3.23097
3.14803
2.84066
1.87208
0.337868
0.413049
0.288572
0.159788
0.197451
0.201851
0.190018
0.186434
0.177265
0.172529
0.168514
0.169772
0.175663
0.188006
0.204119
0.219464
0.23761
0.233729
0.239693
3.12962
3.25305
3.23738
3.16399
2.89562
2.01854
0.468063
0.410629
0.333579
0.187005
0.219934
0.225833
0.213429
0.210347
0.202585
0.200575
0.200745
0.206003
0.216449
0.22995
0.24831
0.266315
0.286736
0.288573
0.298147
3.13191
3.25789
3.24411
3.18048
2.952
2.17775
0.630565
0.402246
0.383495
0.214747
0.244112
0.252146
0.239151
0.236254
0.229933
0.229887
0.233842
0.2431
0.257267
0.272606
0.293667
0.315262
0.338976
0.345967
0.362554
3.13425
3.26283
3.25089
3.19674
3.00633
2.34219
0.845137
0.387168
0.435464
0.242487
0.269396
0.27993
0.266548
0.263119
0.258667
0.259791
0.267234
0.280524
0.297813
0.316121
0.34049
0.366473
0.395389
0.409296
0.437351
3.1365
3.26757
3.25729
3.21213
3.05649
2.50135
1.11435
0.366155
0.485671
0.271578
0.29588
0.308846
0.295344
0.29074
0.288627
0.290137
0.300885
0.316903
0.33804
0.360048
0.388784
0.420496
0.45788
0.483885
0.534837
3.13851
3.27186
3.26314
3.22631
3.10195
2.65359
1.41916
0.341477
0.526981
0.305896
0.322649
0.338274
0.325376
0.319359
0.319263
0.320387
0.334813
0.352319
0.377615
0.403705
0.437906
0.477334
0.528518
0.579309
0.689534
3.12254
3.23811
3.21583
3.10921
2.70771
1.55536
0.0784081
0.404854
0.191585
0.0796679
0.14208
0.146972
0.136867
0.130885
0.114794
0.0974749
0.0742871
0.0516022
0.0296143
0.0337814
0.060251
0.0727698
0.0942447
0.0592769
0.0504889
3.12304
3.23915
3.21735
3.11311
2.7207
1.58344
0.105564
0.408053
0.202856
0.0916162
0.14832
0.152244
0.141447
0.135423
0.120193
0.104805
0.0851995
0.0686658
0.0567026
0.0624923
0.0822997
0.0942563
0.113536
0.0878325
0.0839523
3.12409
3.24136
3.22058
3.12147
2.74904
1.64749
0.15947
0.409903
0.222107
0.110602
0.160821
0.164476
0.153321
0.148119
0.135174
0.123406
0.10944
0.100397
0.0960879
0.10394
0.119941
0.131928
0.149202
0.132563
0.132924
3.12561
3.24457
3.22525
3.13352
2.79035
1.74481
0.236027
0.411986
0.250953
0.133995
0.177399
0.181179
0.169656
0.16517
0.154375
0.146459
0.13783
0.134511
0.135567
0.146089
0.161204
0.174459
0.191456
0.181635
0.185191
3.12749
3.24854
3.23096
3.14803
2.84063
1.872
0.337808
0.41309
0.288626
0.159847
0.197579
0.201971
0.190098
0.186447
0.177265
0.172527
0.16851
0.169764
0.175647
0.187989
0.204102
0.219447
0.237593
0.233711
0.239671
3.12962
3.25305
3.23737
3.16398
2.8956
2.01848
0.468013
0.410677
0.333626
0.187079
0.220034
0.225898
0.213447
0.210325
0.202553
0.200546
0.200726
0.205985
0.21643
0.22993
0.24829
0.266295
0.286717
0.288552
0.298123
3.13191
3.25789
3.24411
3.18048
2.95199
2.17773
0.630542
0.402287
0.383512
0.214819
0.244156
0.252144
0.239137
0.236235
0.22991
0.229858
0.233815
0.243075
0.257248
0.272586
0.293647
0.315242
0.338954
0.345944
0.362528
3.13426
3.26284
3.25089
3.19675
3.00633
2.3422
0.845155
0.387199
0.435467
0.242547
0.269422
0.279908
0.266518
0.263096
0.258669
0.25978
0.267209
0.280496
0.297797
0.316103
0.340471
0.366452
0.395366
0.409271
0.437321
3.1365
3.26757
3.25729
3.21213
3.0565
2.50138
1.1144
0.366172
0.485674
0.27161
0.295906
0.308826
0.295322
0.29072
0.288624
0.290115
0.300866
0.316882
0.338028
0.360034
0.388768
0.420478
0.457859
0.48386
0.534806
3.13851
3.27186
3.26314
3.22631
3.10196
2.65362
1.41922
0.341481
0.526986
0.305903
0.32267
0.338266
0.325371
0.319363
0.319281
0.320389
0.334808
0.352307
0.377605
0.403694
0.437893
0.477319
0.5285
0.579288
0.689505
3.12254
3.23811
3.21584
3.10922
2.70774
1.55545
0.0784754
0.404838
0.191593
0.0796574
0.142077
0.146972
0.136869
0.13089
0.114802
0.097484
0.074296
0.0516097
0.0296209
0.0337756
0.0602431
0.0727621
0.0942343
0.0592677
0.0504753
3.12304
3.23915
3.21735
3.11311
2.72073
1.58352
0.105625
0.408048
0.202876
0.0916197
0.148326
0.152254
0.141457
0.135433
0.120203
0.104814
0.0852059
0.0686695
0.0567051
0.0624913
0.0822994
0.0942572
0.113536
0.0878385
0.0839443
3.12409
3.24136
3.22059
3.12148
2.74907
1.64758
0.159544
0.409895
0.22213
0.1106
0.160817
0.164473
0.153321
0.148124
0.13518
0.123412
0.109446
0.100402
0.0960917
0.103942
0.119945
0.131933
0.149206
0.132578
0.13292
3.12561
3.24457
3.22525
3.13353
2.79039
1.74492
0.236115
0.411978
0.250983
0.133987
0.177387
0.181167
0.169645
0.165165
0.154375
0.146462
0.137835
0.134517
0.135571
0.146092
0.161209
0.174465
0.191461
0.181653
0.185195
3.12749
3.24854
3.23097
3.14804
2.84067
1.87211
0.337908
0.41308
0.288664
0.159843
0.197553
0.201955
0.190076
0.186431
0.17726
0.172526
0.168514
0.169769
0.17565
0.187993
0.204106
0.219451
0.237599
0.233732
0.239686
3.12963
3.25305
3.23738
3.16399
2.89564
2.01859
0.468123
0.410675
0.333652
0.187076
0.220035
0.225849
0.21342
0.210306
0.202546
0.200546
0.200729
0.205989
0.216433
0.229938
0.248296
0.2663
0.286723
0.288572
0.298141
3.13192
3.25789
3.24412
3.1805
2.95204
2.17787
0.630701
0.402272
0.383539
0.21488
0.244058
0.252091
0.239099
0.236214
0.229902
0.229857
0.233818
0.24308
0.257254
0.272595
0.293654
0.315247
0.338962
0.345961
0.362549
3.13426
3.26284
3.25089
3.19676
3.00637
2.34233
0.845356
0.387167
0.435497
0.242621
0.269427
0.279907
0.266499
0.26308
0.258666
0.259783
0.267215
0.280503
0.297806
0.316114
0.34048
0.36646
0.395377
0.409285
0.437349
3.1365
3.26757
3.2573
3.21214
3.05653
2.50149
1.1146
0.366126
0.485701
0.271655
0.295953
0.308856
0.295325
0.290716
0.288626
0.290118
0.300872
0.316892
0.338041
0.360048
0.388781
0.420487
0.457871
0.483875
0.534838
3.13851
3.27186
3.26314
3.22632
3.10198
2.6537
1.41939
0.34144
0.527006
0.305925
0.322674
0.338292
0.325386
0.319367
0.319289
0.3204
0.334818
0.352321
0.377619
0.40371
0.43791
0.477331
0.528511
0.579299
0.689542
3.12254
3.23811
3.21583
3.10921
2.70772
1.55539
0.0784356
0.404853
0.191596
0.0796779
0.142089
0.146979
0.136875
0.130892
0.114801
0.09748
0.0742914
0.0516059
0.029617
0.0337788
0.0602471
0.0727657
0.0942408
0.0592746
0.0504888
3.12304
3.23915
3.21735
3.11311
2.72071
1.58348
0.105601
0.408047
0.202865
0.0916208
0.148324
0.152249
0.141453
0.135429
0.120198
0.104809
0.0852028
0.0686688
0.0567052
0.062493
0.0822993
0.0942553
0.113535
0.0878332
0.0839544
3.12409
3.24136
3.22058
3.12148
2.74906
1.64753
0.159514
0.409902
0.222124
0.110603
0.160817
0.164471
0.15332
0.14812
0.135176
0.123408
0.109442
0.1004
0.096091
0.103943
0.119944
0.13193
0.149203
0.132567
0.132928
3.12561
3.24457
3.22525
3.13352
2.79037
1.74487
0.236083
0.411986
0.250979
0.133991
0.17739
0.181168
0.169645
0.165165
0.154373
0.146459
0.137832
0.134514
0.135571
0.146094
0.161209
0.174464
0.19146
0.181641
0.185197
3.12749
3.24854
3.23097
3.14803
2.84066
1.87207
0.337875
0.41309
0.28866
0.159847
0.197558
0.201958
0.190079
0.186433
0.177259
0.172525
0.168511
0.169767
0.175651
0.187994
0.204109
0.219454
0.2376
0.23372
0.239681
3.12963
3.25305
3.23738
3.16399
2.89563
2.01855
0.468088
0.410686
0.333648
0.18708
0.220041
0.225853
0.213422
0.210306
0.202544
0.200544
0.200727
0.205988
0.216436
0.229938
0.248299
0.266304
0.286726
0.288561
0.298133
3.13191
3.25789
3.24412
3.18049
2.95203
2.17784
0.630665
0.402284
0.383536
0.214884
0.244064
0.252095
0.239102
0.236214
0.2299
0.229854
0.233816
0.243079
0.257255
0.272595
0.293657
0.315253
0.338965
0.345954
0.362539
3.13426
3.26284
3.25089
3.19676
3.00637
2.34231
0.845316
0.387179
0.435496
0.242626
0.269431
0.279911
0.266501
0.263081
0.258663
0.259779
0.267212
0.280502
0.297805
0.316113
0.340483
0.366465
0.395379
0.409285
0.437337
3.1365
3.26757
3.2573
3.21214
3.05653
2.50147
1.11456
0.366139
0.485701
0.27166
0.295958
0.308859
0.295326
0.290716
0.288622
0.290115
0.30087
0.316888
0.338038
0.360045
0.388781
0.420492
0.457875
0.483878
0.534826
3.13851
3.27186
3.26314
3.22632
3.10198
2.65369
1.41936
0.341449
0.527008
0.305928
0.322679
0.338295
0.325386
0.319365
0.319284
0.320394
0.334816
0.352317
0.377616
0.403707
0.437908
0.477335
0.528518
0.579309
0.689529
3.12254
3.23811
3.21583
3.10921
2.70771
1.55536
0.0784081
0.404854
0.191585
0.0796676
0.14208
0.146971
0.136867
0.130884
0.114794
0.0974747
0.0742869
0.051602
0.0296142
0.0337815
0.0602511
0.07277
0.0942449
0.059277
0.050489
3.12304
3.23915
3.21735
3.11311
2.7207
1.58344
0.105564
0.408053
0.202856
0.0916162
0.14832
0.152244
0.141447
0.135423
0.120193
0.104805
0.0851994
0.0686658
0.0567026
0.0624924
0.0822998
0.0942564
0.113537
0.0878326
0.0839523
3.12409
3.24136
3.22058
3.12147
2.74904
1.64749
0.15947
0.409903
0.222107
0.110602
0.160821
0.164476
0.153321
0.148119
0.135174
0.123406
0.10944
0.100397
0.0960879
0.10394
0.119941
0.131928
0.149202
0.132563
0.132924
3.12561
3.24457
3.22525
3.13352
2.79035
1.74481
0.236027
0.411986
0.250953
0.133995
0.177399
0.181179
0.169656
0.16517
0.154375
0.146459
0.13783
0.134511
0.135567
0.146089
0.161204
0.174459
0.191456
0.181635
0.185191
3.12749
3.24854
3.23096
3.14803
2.84063
1.872
0.337808
0.41309
0.288626
0.159847
0.197579
0.201971
0.190098
0.186447
0.177265
0.172527
0.16851
0.169764
0.175647
0.187989
0.204102
0.219447
0.237593
0.233711
0.239671
3.12962
3.25305
3.23737
3.16398
2.8956
2.01848
0.468013
0.410677
0.333626
0.187079
0.220034
0.225898
0.213447
0.210325
0.202553
0.200546
0.200726
0.205985
0.21643
0.22993
0.24829
0.266295
0.286717
0.288552
0.298123
3.13191
3.25789
3.24411
3.18048
2.95199
2.17773
0.630542
0.402287
0.383512
0.214819
0.244156
0.252144
0.239137
0.236235
0.22991
0.229857
0.233815
0.243075
0.257248
0.272586
0.293647
0.315242
0.338954
0.345944
0.362527
3.13426
3.26284
3.25089
3.19675
3.00633
2.3422
0.845154
0.387199
0.435467
0.242547
0.269422
0.279908
0.266518
0.263096
0.258669
0.25978
0.267209
0.280496
0.297797
0.316103
0.340471
0.366452
0.395366
0.409271
0.437321
3.1365
3.26757
3.25729
3.21213
3.0565
2.50138
1.1144
0.366172
0.485674
0.27161
0.295906
0.308826
0.295322
0.29072
0.288624
0.290115
0.300866
0.316882
0.338028
0.360034
0.388768
0.420478
0.457859
0.48386
0.534805
3.13851
3.27186
3.26314
3.22631
3.10196
2.65362
1.41922
0.341481
0.526986
0.305903
0.32267
0.338266
0.325371
0.319363
0.319281
0.320389
0.334808
0.352307
0.377605
0.403694
0.437893
0.477319
0.5285
0.579288
0.689505
3.12254
3.23811
3.21584
3.10922
2.70774
1.55543
0.0784473
0.404836
0.191583
0.0796483
0.142071
0.146968
0.136863
0.130878
0.114784
0.0974638
0.0742777
0.0515955
0.0296133
0.0337883
0.0602556
0.0727739
0.0942476
0.0592769
0.0504906
3.12304
3.23915
3.21735
3.11311
2.72072
1.58348
0.105572
0.408072
0.202888
0.091642
0.148342
0.152261
0.141453
0.135419
0.120183
0.104793
0.0851905
0.0686623
0.0567068
0.0625009
0.0823072
0.0942632
0.113542
0.0878372
0.0839583
3.12409
3.24136
3.22059
3.12148
2.74906
1.64753
0.159495
0.409903
0.222126
0.110618
0.160829
0.164471
0.153301
0.148095
0.13515
0.123388
0.109431
0.100398
0.0960962
0.103951
0.119953
0.131938
0.149212
0.132573
0.132935
3.12561
3.24457
3.22525
3.13352
2.79037
1.74484
0.236048
0.412004
0.250962
0.133996
0.177356
0.181101
0.169571
0.165088
0.154327
0.146437
0.137825
0.134517
0.135579
0.146103
0.161219
0.174474
0.19147
0.181649
0.185207
3.12749
3.24854
3.23097
3.14803
2.84066
1.87208
0.337868
0.413049
0.288572
0.159788
0.197451
0.201851
0.190018
0.186434
0.177265
0.172529
0.168514
0.169772
0.175663
0.188006
0.204119
0.219464
0.23761
0.233729
0.239693
3.12962
3.25305
3.23738
3.16399
2.89562
2.01854
0.468063
0.410629
0.333579
0.187005
0.219934
0.225833
0.213429
0.210347
0.202585
0.200575
0.200745
0.206003
0.216449
0.22995
0.24831
0.266315
0.286736
0.288573
0.298147
3.13191
3.25789
3.24411
3.18048
2.952
2.17775
0.630565
0.402246
0.383495
0.214747
0.244112
0.252146
0.239151
0.236254
0.229933
0.229887
0.233842
0.2431
0.257267
0.272606
0.293667
0.315262
0.338976
0.345967
0.362554
3.13425
3.26283
3.25089
3.19674
3.00633
2.34219
0.845137
0.387168
0.435464
0.242487
0.269396
0.27993
0.266548
0.263119
0.258667
0.259791
0.267234
0.280524
0.297813
0.316121
0.34049
0.366473
0.395389
0.409296
0.437351
3.1365
3.26757
3.25729
3.21213
3.05649
2.50135
1.11435
0.366155
0.485671
0.271578
0.29588
0.308846
0.295344
0.29074
0.288627
0.290137
0.300885
0.316903
0.33804
0.360048
0.388784
0.420496
0.45788
0.483885
0.534837
3.13851
3.27186
3.26314
3.22631
3.10195
2.65359
1.41916
0.341477
0.526981
0.305896
0.322649
0.338274
0.325376
0.319359
0.319263
0.320387
0.334813
0.352319
0.377615
0.403705
0.437906
0.477334
0.528518
0.579309
0.689534
3.12253
3.23809
3.21581
3.10915
2.70752
1.55497
0.0781595
0.404939
0.191476
0.0795826
0.141936
0.146779
0.136668
0.130734
0.114691
0.0974123
0.0742405
0.0515685
0.0296006
0.033799
0.0602646
0.072777
0.0942437
0.0592693
0.0504854
3.12303
3.23914
3.21734
3.11307
2.72061
1.58334
0.105628
0.40769
0.202397
0.0911515
0.147916
0.151922
0.141212
0.135301
0.120138
0.104783
0.0851865
0.0686554
0.0567019
0.0625039
0.0823105
0.0942624
0.113536
0.0878281
0.0839516
3.12408
3.24134
3.22056
3.12141
2.74885
1.64706
0.159125
0.410051
0.222125
0.11065
0.161002
0.164673
0.153482
0.148192
0.13522
0.123449
0.109476
0.100411
0.0960924
0.103947
0.119948
0.131932
0.149202
0.132561
0.132926
3.1256
3.24455
3.22522
3.13346
2.79015
1.74434
0.235759
0.41208
0.250949
0.134025
0.177529
0.181351
0.169858
0.165335
0.154488
0.146526
0.13787
0.134526
0.135569
0.146091
0.161208
0.174462
0.191456
0.181633
0.185195
3.12748
3.24852
3.23094
3.14798
2.84047
1.8716
0.33754
0.413169
0.288599
0.159868
0.197677
0.202082
0.190225
0.186545
0.177338
0.172569
0.16853
0.169767
0.17564
0.187986
0.204102
0.219447
0.237591
0.23371
0.239678
3.12962
3.25304
3.23736
3.16395
2.89548
2.01815
0.467728
0.410778
0.333605
0.187121
0.220125
0.225974
0.213518
0.210367
0.202578
0.200553
0.200717
0.205971
0.216414
0.229923
0.248285
0.266292
0.286713
0.288553
0.29813
3.13191
3.25788
3.2441
3.18046
2.95191
2.17748
0.630265
0.402413
0.38351
0.214889
0.244242
0.252188
0.239163
0.236233
0.22989
0.229829
0.233781
0.243045
0.257225
0.272572
0.293637
0.315236
0.338951
0.345946
0.362536
3.13425
3.26283
3.25088
3.19673
3.00628
2.34203
0.844898
0.387339
0.435484
0.242639
0.269509
0.279936
0.266524
0.263076
0.258623
0.259731
0.267161
0.280458
0.297769
0.316083
0.340458
0.366444
0.395362
0.409273
0.437333
3.1365
3.26756
3.25729
3.21212
3.05647
2.50128
1.11419
0.366305
0.485706
0.271706
0.296005
0.30886
0.295324
0.290693
0.288574
0.290059
0.300813
0.316839
0.337996
0.360011
0.388752
0.420467
0.457853
0.48386
0.534819
3.13851
3.27186
3.26314
3.22631
3.10195
2.65357
1.41909
0.341578
0.527033
0.305982
0.322779
0.338312
0.325375
0.319337
0.319242
0.320341
0.334759
0.352264
0.37757
0.403672
0.437878
0.477308
0.528494
0.579285
0.689515
3.12256
3.23814
3.21587
3.10929
2.70797
1.55587
0.0791212
0.404999
0.191953
0.0801039
0.142291
0.147168
0.137036
0.131054
0.114999
0.0977401
0.0746511
0.052142
0.030585
0.0346323
0.0607053
0.0731116
0.0944898
0.0596634
0.0510004
3.12306
3.23918
3.21739
3.11319
2.72096
1.58395
0.106133
0.408205
0.203147
0.0918804
0.148343
0.152251
0.141477
0.135509
0.120354
0.105035
0.0855089
0.0690677
0.0572152
0.0629684
0.0826586
0.0945493
0.11377
0.0881168
0.0842712
3.12411
3.24139
3.22063
3.12157
2.74934
1.64816
0.160049
0.409798
0.222171
0.110585
0.16063
0.16438
0.153344
0.14826
0.135381
0.123647
0.109711
0.100693
0.0964082
0.104244
0.120208
0.132158
0.149397
0.13277
0.13314
3.12563
3.24459
3.22528
3.13359
2.79058
1.74534
0.236398
0.412022
0.251191
0.134127
0.177543
0.18138
0.169869
0.165392
0.154617
0.146713
0.138087
0.134758
0.135809
0.146317
0.161419
0.174649
0.191623
0.181806
0.185366
3.1275
3.24855
3.23099
3.14807
2.84078
1.87236
0.33812
0.413193
0.288938
0.160018
0.197804
0.202224
0.19031
0.186616
0.177464
0.172752
0.168741
0.169978
0.175843
0.188177
0.204279
0.219607
0.237738
0.233864
0.239829
3.12964
3.25307
3.23739
3.16402
2.89572
2.01877
0.468338
0.410755
0.333855
0.187224
0.220186
0.226
0.2136
0.210494
0.202746
0.200747
0.200924
0.206161
0.216594
0.230094
0.24844
0.266435
0.286847
0.288692
0.298268
3.13192
3.2579
3.24413
3.18052
2.9521
2.17803
0.630911
0.402306
0.383653
0.214989
0.244112
0.252157
0.239244
0.236419
0.230137
0.23006
0.233989
0.243221
0.257389
0.272727
0.293777
0.315368
0.339075
0.346073
0.362667
3.13426
3.26285
3.2509
3.19677
3.00642
2.34245
0.845542
0.387176
0.435563
0.242694
0.269457
0.279972
0.266623
0.263248
0.258855
0.259957
0.267369
0.280623
0.297918
0.316222
0.340584
0.366564
0.395478
0.409392
0.437461
3.13651
3.26758
3.25731
3.21215
3.05655
2.50155
1.11473
0.366124
0.485741
0.271701
0.295981
0.308924
0.295448
0.29087
0.288799
0.290284
0.301009
0.316996
0.338133
0.36014
0.388866
0.420569
0.457956
0.483971
0.534943
3.13852
3.27187
3.26315
3.22632
3.10198
2.65371
1.41943
0.341446
0.527034
0.305974
0.322695
0.338365
0.325493
0.319499
0.319415
0.32052
0.33493
0.352411
0.377698
0.403786
0.437977
0.477396
0.528577
0.579376
0.689628
3.14015
3.27552
3.2682
3.23887
3.14191
2.79479
1.7383
0.36381
0.554839
0.353917
0.348764
0.367475
0.356909
0.349333
0.350609
0.351313
0.368119
0.387778
0.415824
0.446583
0.487475
0.53565
0.604308
0.694207
0.880742
3.14124
3.2784
3.27236
3.24956
3.1753
2.91562
2.05518
0.519477
0.56431
0.420134
0.372583
0.397438
0.390353
0.380698
0.381861
0.384483
0.40001
0.422068
0.452249
0.488371
0.533982
0.590456
0.673386
0.783786
0.984332
3.14161
3.28045
3.27573
3.25853
3.20227
3.01081
2.33818
0.824179
0.552567
0.501345
0.3925
0.429969
0.425328
0.413691
0.413907
0.419808
0.431139
0.454196
0.485078
0.526504
0.57655
0.63719
0.726283
0.836988
1.01767
3.14119
3.28177
3.27852
3.2659
3.2236
3.0832
2.57716
1.24824
0.518021
0.579834
0.411726
0.461321
0.461732
0.44801
0.447135
0.45498
0.462363
0.483092
0.514167
0.561272
0.615703
0.678098
0.766316
0.872224
1.01783
3.14015
3.28269
3.28084
3.27144
3.23963
3.13805
2.77549
1.685
0.472079
0.631375
0.444653
0.487957
0.500023
0.486107
0.481742
0.488208
0.497334
0.510221
0.54252
0.590182
0.648673
0.712228
0.799166
0.895707
1.00684
3.13886
3.28357
3.28224
3.27502
3.25195
3.18007
2.9294
2.08473
0.576164
0.651438
0.507347
0.511972
0.538194
0.529028
0.516328
0.519363
0.530749
0.535603
0.566365
0.610072
0.673044
0.735995
0.817243
0.900279
0.98485
3.13792
3.28391
3.28311
3.27845
3.26228
3.21166
3.04116
2.41756
0.924499
0.649616
0.59102
0.533057
0.571635
0.570769
0.551923
0.550776
0.559948
0.563782
0.586053
0.627747
0.686463
0.747223
0.819639
0.893819
0.970984
3.13743
3.28384
3.28418
3.28125
3.26993
3.23455
3.12034
2.70312
1.47801
0.617997
0.666839
0.554093
0.600524
0.604929
0.592019
0.580746
0.58798
0.597504
0.604232
0.64108
0.691728
0.74926
0.817797
0.89005
0.963767
3.13719
3.28353
3.2853
3.28352
3.27562
3.25094
3.17345
2.90098
1.99884
0.633201
0.706976
0.594313
0.62987
0.636544
0.633203
0.612553
0.614159
0.624548
0.626414
0.652472
0.699655
0.752136
0.813743
0.887226
0.958494
3.13703
3.28322
3.28629
3.28516
3.2798
3.26302
3.21131
3.03636
2.39505
0.921687
0.732372
0.66287
0.659833
0.665771
0.671958
0.649228
0.639962
0.648457
0.659365
0.667872
0.707062
0.756881
0.811732
0.878279
0.95137
3.13694
3.283
3.287
3.28634
3.28276
3.27158
3.238
3.13003
2.73022
1.4964
0.731706
0.734165
0.690326
0.696886
0.703795
0.689938
0.669105
0.67095
0.682215
0.686723
0.714256
0.759618
0.811404
0.868576
0.938352
3.13688
3.28285
3.28749
3.28715
3.28483
3.27749
3.25574
3.18901
2.9573
2.13728
0.841398
0.779815
0.739981
0.733176
0.730501
0.727804
0.699261
0.692321
0.701424
0.715853
0.72469
0.761755
0.810777
0.86395
0.921976
3.13684
3.28276
3.28782
3.28769
3.28623
3.28152
3.26775
3.22693
3.09319
2.59569
1.26461
0.820024
0.794982
0.780034
0.762061
0.756515
0.729735
0.718421
0.723044
0.736586
0.747827
0.76786
0.810715
0.862023
0.914981
3.13684
3.28272
3.28801
3.28802
3.28711
3.28409
3.2755
3.25111
3.17635
2.91023
1.96022
0.919144
0.837554
0.830434
0.805444
0.785177
0.766297
0.748323
0.746129
0.758712
0.778551
0.789011
0.816224
0.861675
0.912802
3.13684
3.2827
3.2881
3.28821
3.28762
3.2856
3.28016
3.26566
3.22405
3.08826
2.57699
1.32198
0.891867
0.879759
0.857988
0.821775
0.806064
0.783423
0.77582
0.782584
0.80138
0.82574
0.836965
0.868008
0.913138
3.13683
3.2827
3.28814
3.2883
3.28789
3.28641
3.28285
3.27425
3.2511
3.18143
2.93695
2.05029
1.04444
0.926936
0.912195
0.875889
0.849107
0.830455
0.811156
0.81015
0.829025
0.854595
0.879762
0.888029
0.919815
3.13683
3.2827
3.28815
3.28833
3.28801
3.28677
3.28425
3.27891
3.26578
3.22975
3.11816
2.70504
1.58017
1.00605
0.96639
0.94004
0.898504
0.880896
0.856326
0.843109
0.855515
0.884168
0.914739
0.938659
0.942085
3.13683
3.2827
3.28815
3.28833
3.28803
3.2869
3.2846
3.28119
3.27306
3.25319
3.20056
3.0315
2.3928
1.33232
1.03508
1.0017
0.963633
0.930601
0.910055
0.885294
0.885757
0.911813
0.943194
0.97717
0.997951
3.13683
3.2827
3.28815
3.28833
3.28803
3.28692
3.28461
3.28194
3.27603
3.26388
3.2368
3.16498
2.92362
2.10031
1.25207
1.0658
1.03108
0.984723
0.96461
0.935322
0.922162
0.941159
0.975713
1.00809
1.04008
3.13684
3.2827
3.28815
3.28833
3.28803
3.28692
3.28462
3.28199
3.27678
3.26686
3.25171
3.217
3.12197
2.81025
1.92458
1.23112
1.091
1.05066
1.01302
0.989389
0.967396
0.971278
1.00356
1.03913
1.07157
3.13683
3.2827
3.28815
3.28833
3.28803
3.28692
3.28462
3.28199
3.2768
3.26696
3.25664
3.23459
3.18736
3.07139
2.71174
1.85371
1.2338
1.10795
1.06528
1.04088
1.01628
1.00924
1.0272
1.06312
1.09745
3.13684
3.2827
3.28815
3.28833
3.28803
3.28692
3.28462
3.28199
3.2768
3.26693
3.25702
3.23864
3.20406
3.14555
3.00903
2.63389
1.86631
1.25979
1.11351
1.08339
1.06254
1.04907
1.05618
1.08147
1.11884
3.13683
3.2827
3.28815
3.28833
3.28803
3.28692
3.28462
3.28199
3.27681
3.26694
3.25705
3.23883
3.20498
3.16037
3.07136
2.89887
2.55107
1.92944
1.37587
1.14215
1.09725
1.08636
1.0838
1.10025
1.13141
3.13684
3.2827
3.28815
3.28833
3.28803
3.28692
3.28462
3.28199
3.2768
3.26693
3.25704
3.23882
3.20498
3.16084
3.07588
2.93013
2.703
2.33465
1.92603
1.55969
1.24983
1.12061
1.10552
1.11543
1.13858
3.13683
3.2827
3.28815
3.28833
3.28803
3.28692
3.28462
3.28199
3.27681
3.26694
3.25705
3.23883
3.20501
3.16089
3.07602
2.93167
2.71155
2.3756
2.04123
1.81654
1.61981
1.39337
1.18604
1.12296
1.14247
3.13684
3.2827
3.28815
3.28833
3.28803
3.28692
3.28462
3.28199
3.2768
3.26693
3.25704
3.23882
3.20498
3.16086
3.07592
2.93164
2.71161
2.37715
2.04839
1.84255
1.71905
1.61657
1.48127
1.30431
1.17457
3.13683
3.2827
3.28815
3.28833
3.28803
3.28692
3.28462
3.28199
3.27681
3.26694
3.25705
3.23883
3.205
3.1609
3.07601
2.93165
2.71187
2.37739
2.04896
1.84431
1.72942
1.65634
1.59659
1.52636
1.42405
3.13683
3.2827
3.28815
3.28833
3.28803
3.28692
3.28462
3.28199
3.2768
3.26693
3.25704
3.23882
3.20499
3.16087
3.07594
2.93165
2.71167
2.37728
2.04895
1.84436
1.73025
1.66035
1.61161
1.57977
1.55011
3.13683
3.2827
3.28815
3.28833
3.28803
3.28692
3.28462
3.28199
3.27681
3.26694
3.25705
3.23883
3.205
3.16091
3.07602
2.93165
2.71189
2.37741
2.04899
1.84438
1.73024
1.66052
1.6127
1.58596
1.57266
3.13683
3.2827
3.28815
3.28833
3.28803
3.28692
3.28462
3.28199
3.2768
3.26694
3.25705
3.23882
3.20499
3.16088
3.07596
2.93165
2.7117
2.3773
2.04893
1.8443
1.7302
1.66056
1.61288
1.58673
1.5757
3.13683
3.2827
3.28815
3.28833
3.28803
3.28693
3.28462
3.28199
3.27681
3.26694
3.25705
3.23883
3.20501
3.16091
3.07603
2.93179
2.71185
2.37765
2.04943
1.84489
1.73095
1.66151
1.61399
1.58799
1.57745
3.13683
3.2827
3.28815
3.28833
3.28803
3.28692
3.28462
3.28199
3.27681
3.26694
3.25705
3.23882
3.20499
3.1609
3.07599
2.93163
2.71181
2.37729
2.04888
1.84428
1.73013
1.66042
1.61269
1.58666
1.57614
3.13683
3.2827
3.28815
3.28833
3.28803
3.28693
3.28462
3.282
3.27681
3.26694
3.25705
3.23882
3.205
3.16092
3.07603
2.93163
2.71189
2.37735
2.0489
1.84429
1.73013
1.66042
1.61269
1.58666
1.57615
3.13683
3.2827
3.28815
3.28833
3.28803
3.28693
3.28462
3.28199
3.27681
3.26694
3.25705
3.23883
3.205
3.16091
3.07605
2.93175
2.71189
2.37759
2.04932
1.84479
1.73088
1.66149
1.61402
1.58806
1.57764
3.13683
3.2827
3.28815
3.28833
3.28803
3.28693
3.28462
3.282
3.27681
3.26695
3.25706
3.23883
3.205
3.16092
3.07606
2.93162
2.71194
2.37739
2.04889
1.84425
1.73009
1.66038
1.61265
1.58664
1.57614
3.13683
3.2827
3.28815
3.28833
3.28803
3.28693
3.28462
3.282
3.27681
3.26694
3.25705
3.23882
3.20499
3.16092
3.07603
2.93164