/*--------------------------------*- C++ -*----------------------------------*\
| =========                 |                                                 |
| \\      /  F ield         | OpenFOAM: The Open Source CFD Toolbox           |
|  \\    /   O peration     | Version:  4.1                                   |
|   \\  /    A nd           | Web:      www.OpenFOAM.org                      |
|    \\/     M anipulation  |                                                 |
\*---------------------------------------------------------------------------*/
FoamFile
{
    version     2.0;
    format      ascii;
    class       surfaceScalarField;
    location    "0.52";
    object      phi;
}
// * * * * * * * * * * * * * * * * * * * * * * * * * * * * * * * * * * * * * //

dimensions      [1 0 -1 0 0 0 0];

internalField   nonuniform List<scalar> 
150500
(
0.00203653
3.19397e-08
-3.22979e-12
0.00200813
1.99915e-07
-1.27035e-11
0.00197017
4.05072e-07
-1.71362e-11
0.00189727
9.07766e-07
-3.78113e-11
0.00175132
2.96726e-06
-1.29573e-10
0.00130005
1.60746e-05
-6.24248e-10
-0.001295
0.000166415
-3.73023e-09
-0.00137119
0.000477799
2.93564e-09
-0.000652307
0.00023566
1.30437e-09
-0.000707825
0.000233477
2.44957e-10
-0.00081755
0.000249672
1.35899e-10
-0.000695299
0.000222503
2.70874e-10
-0.000604631
0.000197948
1.74128e-10
-0.000489525
0.000178537
1.39317e-10
-0.000396698
0.000165642
8.92769e-11
-0.000306105
0.000161408
6.09737e-11
-0.000208294
0.000160497
2.57371e-11
-9.87611e-05
0.000161725
-1.33589e-11
1.01524e-05
0.00015928
-2.80555e-11
0.000125304
0.000160193
-2.82347e-11
0.000204629
0.000162046
-1.54248e-11
0.000236169
0.00016839
3.27043e-11
0.000227192
0.000174043
1.03369e-10
0.000128219
0.000183678
1.71446e-10
0.000194762
2.06168e-10
0.00203638
6.68963e-08
-2.78176e-12
0.00200841
4.16733e-07
-1.02299e-11
0.00197104
8.36188e-07
-1.347e-11
0.00189921
1.87933e-06
-2.77539e-11
0.00175446
6.14316e-06
-8.60091e-11
0.00131202
3.26125e-05
-3.63314e-10
-0.0012155
0.000320484
-1.76665e-09
-0.00139096
0.000961108
8.87697e-10
-0.000657276
0.000472418
1.93501e-09
-0.000701353
0.000462856
6.90675e-11
-0.000810674
0.000494236
-3.99829e-10
-0.000687402
0.000443864
2.52757e-10
-0.00059611
0.000396624
1.79675e-10
-0.000479645
0.000358079
2.07186e-10
-0.000386934
0.000331753
1.18359e-10
-0.000296885
0.000323424
8.1871e-11
-0.000199869
0.00032176
4.53943e-11
-9.02131e-05
0.00032407
1.44536e-11
2.14646e-05
0.000320484
1.31562e-12
0.0001336
0.000323755
-7.88578e-12
0.000213475
0.00032685
8.02541e-12
0.000244989
0.000338188
4.54803e-11
0.000233384
0.000349915
1.0387e-10
0.000133341
0.000367554
1.56735e-10
0.000391182
1.80918e-10
0.00203606
9.54736e-08
-3.13985e-12
0.0020091
6.01316e-07
-1.16102e-11
0.0019731
1.20327e-06
-1.54479e-11
0.00190385
2.68578e-06
-3.30825e-11
0.00176231
8.6799e-06
-1.09706e-10
0.00134596
4.53273e-05
-5.27189e-10
-0.00108293
0.000424728
-2.98072e-09
-0.00140764
0.00146601
1.39086e-09
-0.000646065
0.000709194
1.06079e-09
-0.00066949
0.00068056
1.28925e-10
-0.000791381
0.000738576
3.29683e-10
-0.000670064
0.000668592
4.32141e-10
-0.000580005
0.000597706
2.95419e-10
-0.000463888
0.000541273
1.4396e-10
-0.000371794
0.000498238
1.22951e-10
-0.000281386
0.000484753
1.15294e-10
-0.000184501
0.000482771
9.93978e-11
-7.53918e-05
0.000487426
6.17009e-11
3.9052e-05
0.000483171
1.89749e-11
0.000147301
0.000487037
8.78445e-12
0.000227548
0.00049292
2.7923e-11
0.000259973
0.000509582
6.22256e-11
0.000243636
0.000527159
1.0542e-10
0.000143214
0.000552581
1.32309e-10
0.000589892
1.42425e-10
0.00203559
1.16331e-07
-2.79804e-12
0.0020101
7.38317e-07
-1.0886e-11
0.00197612
1.47333e-06
-1.46371e-11
0.00191107
3.25279e-06
-3.19165e-11
0.00177433
1.03237e-05
-1.07778e-10
0.00139634
5.24893e-05
-5.45767e-10
-0.000762138
0.000461893
-2.98847e-09
-0.00144439
0.00198356
1.21959e-09
-0.000641171
0.00097066
1.33904e-09
-0.000626321
0.000888889
-2.01891e-10
-0.000761234
0.000980026
3.74449e-10
-0.000645039
0.000899395
8.01104e-10
-0.000557058
0.000802599
5.34106e-10
-0.0004406
0.000728543
3.99394e-10
-0.000349096
0.000665586
2.17355e-10
-0.000258727
0.000646405
1.65995e-10
-0.000161793
0.000643569
1.50392e-10
-5.28751e-05
0.000651516
7.88121e-11
6.48341e-05
0.000647976
5.22759e-11
0.000166403
0.000651995
6.20264e-11
0.000247828
0.000660371
6.69902e-11
0.000281851
0.000684541
7.49685e-11
0.000260964
0.000707422
7.78782e-11
0.000159283
0.000743183
9.19178e-11
0.000795233
9.76284e-11
0.00203502
1.29122e-07
-2.68607e-12
0.00201134
8.3018e-07
-9.60282e-12
0.00197984
1.64868e-06
-1.29062e-11
0.00191985
3.59326e-06
-2.79314e-11
0.00179165
1.11247e-05
-9.41792e-11
0.00146169
5.42709e-05
-4.78246e-10
-0.000447414
0.000439676
-2.76768e-09
-0.0015073
0.00248084
7.2814e-10
-0.000645008
0.00127364
1.44088e-09
-0.00057217
0.00108541
-5.62348e-10
-0.000722339
0.0012187
3.99855e-10
-0.000615951
0.00113681
8.8416e-10
-0.000530791
0.0010125
5.94099e-10
-0.000413998
0.000921688
4.22227e-10
-0.000321461
0.000834182
2.48412e-10
-0.000229957
0.000808059
1.87119e-10
-0.000132273
0.000804121
1.74654e-10
-2.27432e-05
0.000815513
1.23072e-10
9.67747e-05
0.000814975
9.2334e-11
0.000192418
0.000814831
1.06224e-10
0.000275385
0.000827351
1.09429e-10
0.000310889
0.000860406
9.56889e-11
0.000286301
0.000892414
6.8697e-11
0.000181311
0.000944007
5.38566e-11
0.00101595
3.61952e-11
0.00203437
1.33005e-07
-2.20639e-12
0.00201275
8.73951e-07
-7.84399e-12
0.00198404
1.72801e-06
-1.05697e-11
0.00192969
3.72093e-06
-2.28997e-11
0.00181112
1.12241e-05
-7.60774e-11
0.00152283
5.2362e-05
-3.71995e-10
-0.000102157
0.000391019
-2.1635e-09
-0.00173815
0.00282902
-7.7637e-10
-0.000660586
0.00163971
1.89169e-09
-0.000508914
0.00126746
-5.08413e-10
-0.000672262
0.00144439
3.30212e-10
-0.000582391
0.00138228
9.75727e-10
-0.000498914
0.00122731
4.52425e-10
-0.000382815
0.00111996
3.43766e-10
-0.000288075
0.00100619
2.18483e-10
-0.000195125
0.000969623
2.16526e-10
-9.61402e-05
0.00096421
2.30096e-10
1.08162e-05
0.000978626
1.93012e-10
0.000132984
0.000981092
1.46116e-10
0.000227889
0.00097729
1.40356e-10
0.000310733
0.000993931
1.54517e-10
0.000348777
0.00103587
1.18135e-10
0.000322329
0.0010827
6.85111e-11
0.000207639
0.00115823
2.05925e-11
0.00126134
-2.37557e-11
0.00203368
1.24971e-07
-1.81569e-12
0.00201426
8.68919e-07
-5.84611e-12
0.00198851
1.71639e-06
-7.81576e-12
0.00194036
3.66885e-06
-1.67437e-11
0.00183285
1.07913e-05
-5.57683e-11
0.00157417
4.76986e-05
-2.82614e-10
0.000243044
0.000329979
-1.70475e-09
-0.00191276
0.00297809
-2.71105e-09
-0.000689026
0.00212094
2.47926e-09
-0.000441633
0.00143993
-5.63363e-10
-0.000607634
0.0016558
-1.21617e-10
-0.000544483
0.00163444
9.22603e-10
-0.000461565
0.00144731
5.2286e-10
-0.000347647
0.00132346
4.2789e-10
-0.00024984
0.00118357
2.45451e-10
-0.00015424
0.00113037
2.17084e-10
-5.26393e-05
0.00112241
2.537e-10
6.03561e-05
0.00114017
2.2579e-10
0.000174705
0.00114391
2.14248e-10
0.000272692
0.00114001
1.85455e-10
0.000355259
0.00116046
1.83563e-10
0.000395917
0.0012115
1.42077e-10
0.000369761
0.0012761
7.27019e-11
0.00024858
0.00137952
1.13216e-11
0.00154979
-4.17303e-11
0.00203298
9.88289e-08
-1.43497e-12
0.00201589
8.11259e-07
-4.10702e-12
0.00199311
1.61296e-06
-5.56154e-12
0.00195079
3.44599e-06
-1.19977e-11
0.00185488
9.9533e-06
-3.88373e-11
0.00163314
4.14633e-05
-1.85147e-10
0.000716159
0.000265552
-1.06676e-09
-0.00195948
0.00287506
-3.08862e-09
-0.000733823
0.00276053
2.1095e-09
-0.000376787
0.00161479
-5.65003e-10
-0.000525285
0.0018474
-3.75947e-10
-0.000502117
0.00188849
6.43485e-10
-0.000416809
0.00167457
4.41836e-10
-0.000307984
0.00152857
4.12318e-10
-0.000205696
0.00137115
3.33991e-10
-0.000107282
0.00129099
3.14132e-10
-2.47498e-06
0.00127637
2.79016e-10
0.000113256
0.00129603
2.63486e-10
0.00022464
0.0013043
2.4217e-10
0.000325811
0.00130231
2.36982e-10
0.000410394
0.00132786
2.15873e-10
0.000454834
0.00138806
1.5311e-10
0.000431846
0.00147276
9.42533e-11
0.000305814
0.00160904
-3.30267e-12
0.00189921
-6.59601e-11
0.00203225
6.34809e-08
-1.35719e-12
0.00201751
7.20088e-07
-2.71071e-12
0.00199773
1.44742e-06
-3.6808e-12
0.00196089
3.10612e-06
-7.95518e-12
0.00187505
8.86668e-06
-2.54503e-11
0.00169064
3.50528e-05
-1.15335e-10
0.00107185
0.000213317
-6.48623e-10
-0.00187778
0.00241535
-3.46403e-09
-0.000794622
0.00357868
1.78273e-09
-0.000320231
0.00182623
-2.82741e-10
-0.000425323
0.00201187
-5.4002e-10
-0.000453896
0.00214221
1.66369e-10
-0.000365633
0.00191135
2.4555e-10
-0.000261929
0.00173988
2.57822e-10
-0.000156964
0.00156855
2.79533e-10
-5.53899e-05
0.00145204
2.90682e-10
5.40065e-05
0.00142914
3.0479e-10
0.000169456
0.00143501
2.7721e-10
0.000283677
0.00146096
2.72464e-10
0.000388783
0.00146156
2.65825e-10
0.000477826
0.00149096
2.37987e-10
0.000529838
0.00156086
1.63055e-10
0.000516349
0.0016682
1.11894e-10
0.000393444
0.00184334
-2.04775e-11
0.00234397
-9.70258e-11
0.00203153
-1.31435e-12
1.89738e-08
0.00201908
-1.8795e-12
6.04167e-07
0.00200236
-2.48184e-12
1.23496e-06
0.00197116
-5.14053e-12
2.67894e-06
0.00189559
-1.59289e-11
7.58227e-06
0.00173923
-6.80702e-11
2.87433e-05
0.00125503
-3.91621e-10
0.000167044
-0.00125661
-2.81347e-09
0.00172784
-0.000874358
9.97693e-10
0.00449484
-0.000248768
3.48921e-10
0.00212243
-0.000312873
-3.41625e-10
0.00212914
-0.000397646
-1.23936e-10
0.0023857
-0.000307937
7.70587e-11
0.00215997
-0.000209691
1.71788e-10
0.00195935
-0.000103776
2.30036e-10
0.0017777
-1.26809e-06
2.73734e-10
0.00161349
0.000117041
3.27485e-10
0.00158135
0.000231501
2.72886e-10
0.00157119
0.000352186
2.97941e-10
0.00160659
0.000463404
2.95519e-10
0.00161383
0.000560791
2.75304e-10
0.0016473
0.000627179
1.85753e-10
0.00172054
0.000635335
8.00953e-11
0.00185125
0.000532874
-3.13516e-11
0.00207175
-1.35972e-10
0.00293806
0.00203654
3.21935e-08
8.91659e-13
0.00200812
2.01274e-07
5.57739e-12
0.00197014
4.07485e-07
7.71833e-12
0.0018972
9.13978e-07
1.77899e-11
0.00175121
2.99331e-06
6.28949e-11
0.00129962
1.6249e-05
3.0919e-10
-0.00129754
0.000168106
1.88435e-09
-0.0013711
0.000477514
-1.39494e-09
-0.000652477
0.000234999
-1.0538e-09
-0.00070832
0.000233368
-5.14193e-10
-0.000817416
0.000248949
1.11183e-10
-0.000694916
0.000222181
2.77432e-11
-0.000604295
0.000197997
2.03678e-11
-0.000489362
0.000178701
1.88849e-11
-0.000396646
0.000165769
1.00286e-10
-0.000306099
0.00016148
1.46303e-10
-0.000208298
0.000160526
2.04356e-10
-9.87488e-05
0.000161724
2.33737e-10
1.01763e-05
0.000159252
2.23004e-10
0.000125333
0.000160148
1.54589e-10
0.000204671
0.000161985
1.02134e-10
0.000236205
0.000168312
1.74915e-11
0.000227216
0.00017396
-7.62308e-11
0.000128233
0.000183586
-1.9815e-10
0.000194691
-2.28324e-10
0.00203638
6.66966e-08
6.57895e-13
0.00200841
4.16018e-07
4.17663e-12
0.00197103
8.35184e-07
5.54753e-12
0.00189919
1.8767e-06
1.14225e-11
0.00175448
6.13063e-06
3.4291e-11
0.00131224
3.25094e-05
1.31194e-10
-0.00121393
0.000319091
4.66266e-10
-0.00138746
0.000960904
-6.31388e-11
-0.000654563
0.000472565
-1.43258e-09
-0.000698349
0.0004618
-1.84121e-10
-0.00080819
0.000493938
5.80257e-10
-0.000685891
0.000444403
2.37574e-11
-0.000595381
0.000397513
-8.04106e-13
-0.00047935
0.000358741
-3.1181e-11
-0.000386827
0.000332113
8.05228e-11
-0.000296859
0.000323606
1.46536e-10
-0.000199881
0.000321849
2.06742e-10
-9.02142e-05
0.000324076
2.33168e-10
2.14684e-05
0.000320438
2.13127e-10
0.000133608
0.00032367
1.81084e-10
0.000213497
0.000326737
1.09544e-10
0.00024501
0.000338037
1.4855e-11
0.000233399
0.000349757
-7.53888e-11
0.000133357
0.000367364
-1.95126e-10
0.000391046
-2.30721e-10
0.00203606
9.57378e-08
1.1346e-12
0.00200909
6.01964e-07
6.01754e-12
0.00197307
1.20436e-06
8.13535e-12
0.00190379
2.68785e-06
1.79765e-11
0.00176223
8.68534e-06
6.11274e-11
0.00134557
4.535e-05
3.00224e-10
-0.00108509
0.000425063
1.76129e-09
-0.00140756
0.00146522
-8.80293e-10
-0.000646424
0.000709085
-4.82505e-10
-0.00067071
0.00068014
5.40905e-12
-0.000792452
0.000738343
-1.57732e-10
-0.00067072
0.000668745
-1.3043e-10
-0.000580266
0.000598193
-5.82479e-11
-0.000464058
0.000541672
8.89693e-11
-0.000371963
0.00049857
1.02929e-10
-0.000281558
0.000484934
1.30519e-10
-0.00018462
0.000482837
1.66697e-10
-7.5462e-05
0.000487389
2.07666e-10
3.90217e-05
0.000483053
2.07798e-10
0.000147304
0.000486896
1.7494e-10
0.000227567
0.000492737
1.1138e-10
0.00026
0.000509354
1.44081e-11
0.000243661
0.000526923
-7.80151e-11
0.00014324
0.000552314
-1.89273e-10
0.000589704
-2.34587e-10
0.0020356
1.16428e-07
9.16751e-13
0.00201009
7.39232e-07
5.82471e-12
0.00197609
1.4752e-06
8.00767e-12
0.00191101
3.2569e-06
1.80814e-11
0.00177423
1.03367e-05
6.25994e-11
0.00139594
5.25591e-05
3.22773e-10
-0.000761722
0.000462629
1.84513e-09
-0.00144391
0.00198331
-1.0497e-09
-0.00064158
0.00097048
-5.67074e-10
-0.000627634
0.000889075
6.34972e-10
-0.000762622
0.000980065
-2.69942e-10
-0.000646395
0.000899557
-5.1786e-10
-0.000558213
0.000802961
-2.47455e-10
-0.000441427
0.000728671
-1.81508e-10
-0.000349635
0.000665654
-7.77845e-13
-0.000259084
0.00064637
6.36471e-11
-0.000162023
0.000643502
1.38076e-10
-5.29908e-05
0.000651369
1.97782e-10
6.47787e-05
0.000647778
2.01001e-10
0.000166379
0.000651799
1.81131e-10
0.000247835
0.00066013
1.21576e-10
0.000281883
0.000684259
1.59123e-11
0.000261002
0.000707122
-7.49068e-11
0.000159322
0.000742848
-1.79843e-10
0.000794984
-2.39738e-10
0.00203502
1.29468e-07
9.31862e-13
0.00201133
8.31485e-07
5.06167e-12
0.00197981
1.65116e-06
6.91046e-12
0.0019198
3.59838e-06
1.54388e-11
0.00179155
1.11402e-05
5.34405e-11
0.00146138
5.43523e-05
2.76625e-10
-0.000449188
0.000440466
1.6595e-09
-0.00150645
0.00248142
-6.50964e-10
-0.000645643
0.00127386
-6.01073e-10
-0.00057397
0.00108606
9.28093e-10
-0.00072448
0.00121922
-3.39213e-10
-0.000617909
0.00113687
-5.97623e-10
-0.000532368
0.00101233
-2.26342e-10
-0.00041512
0.000921142
-8.33363e-11
-0.000322233
0.000833819
3.81427e-11
-0.000230427
0.000807773
7.84271e-11
-0.000132564
0.000803862
9.63745e-11
-2.28887e-05
0.000815214
1.74096e-10
9.67069e-05
0.000814701
1.89258e-10
0.000192388
0.000814569
1.69574e-10
0.000275374
0.000827046
1.10908e-10
0.000310917
0.000860077
1.55216e-11
0.000286338
0.000892085
-7.35937e-11
0.000181346
0.000943635
-1.70231e-10
0.00101563
-2.41424e-10
0.00203437
1.33276e-07
4.94032e-13
0.00201274
8.75279e-07
3.61767e-12
0.00198402
1.73063e-06
5.02366e-12
0.00192964
3.72656e-06
1.14271e-11
0.00181103
1.12414e-05
3.93394e-11
0.0015226
5.24464e-05
1.97021e-10
-0.000103629
0.000391716
1.18004e-09
-0.0017365
0.00283103
3.50062e-10
-0.000661113
0.0016398
-8.43895e-10
-0.000510529
0.00126861
8.94724e-10
-0.000674087
0.00144551
-3.41509e-10
-0.000584029
0.00138233
-5.50537e-10
-0.000500068
0.00122645
-1.48203e-10
-0.000383592
0.00111873
-5.41508e-11
-0.000288647
0.00100532
4.81944e-11
-0.000195545
0.000968997
7.20074e-11
-9.64492e-05
0.000963831
6.50668e-11
1.06408e-05
0.000978223
1.33513e-10
0.000132905
0.000980755
1.77776e-10
0.000227842
0.000976948
1.63883e-10
0.000310706
0.00099357
8.16022e-11
0.000348794
0.0010355
1.0804e-11
0.000322362
0.00108239
-7.04112e-11
0.00020767
0.00115784
-1.60368e-10
0.001261
-2.31547e-10
0.00203368
1.25183e-07
2.77116e-13
0.00201425
8.70088e-07
2.05657e-12
0.00198849
1.71864e-06
2.89575e-12
0.00194031
3.67344e-06
6.75527e-12
0.00183276
1.08046e-05
2.38926e-11
0.00157394
4.77644e-05
1.25665e-10
0.000241874
0.000330522
7.78943e-10
-0.00191207
0.0029807
1.32333e-09
-0.000689094
0.00212109
-9.38386e-10
-0.000442528
0.00144146
7.51763e-10
-0.000608951
0.00165797
-2.24002e-11
-0.000545389
0.00163411
-4.07101e-10
-0.000462236
0.00144641
-1.50734e-10
-0.000348091
0.00132237
-9.84997e-11
-0.000250182
0.00118267
4.54285e-11
-0.000154495
0.00112967
6.52685e-11
-5.28599e-05
0.00112191
6.49226e-11
6.02061e-05
0.00113974
7.72945e-11
0.000174616
0.00114349
1.11056e-10
0.00027263
0.00113962
1.23514e-10
0.00035522
0.00116007
5.58467e-11
0.000395931
0.00121113
9.51725e-12
0.000369814
0.00127576
-6.88948e-11
0.000248616
0.00137915
-1.54242e-10
0.0015494
-2.22463e-10
0.00203298
9.87736e-08
2.01354e-14
0.00201588
8.11944e-07
8.54188e-13
0.0019931
1.61445e-06
1.29537e-12
0.00195075
3.44936e-06
3.3176e-12
0.00185482
9.96374e-06
1.21228e-11
0.00163296
4.15125e-05
6.28311e-11
0.000714949
0.000265914
3.88475e-10
-0.00195864
0.002878
1.2605e-09
-0.000733388
0.00276072
-5.59668e-10
-0.000376545
0.00161618
4.23556e-10
-0.000525272
0.00184922
2.00313e-10
-0.000502171
0.00188861
-1.38555e-10
-0.000417035
0.00167428
-3.61089e-11
-0.000308233
0.00152802
-4.93518e-11
-0.000205922
0.00137057
-2.81449e-13
-0.00010744
0.00129031
4.58666e-12
-2.56584e-06
0.00127579
3.77489e-11
0.000113179
0.00129551
6.70599e-11
0.000224576
0.00130385
8.1413e-11
0.000325745
0.00130188
7.21443e-11
0.000410337
0.00132745
4.10472e-11
0.000454837
0.00138768
4.86971e-12
0.000431912
0.00147239
-6.74789e-11
0.000305858
0.00160871
-1.41479e-10
0.00189878
-2.01741e-10
0.00203225
6.34078e-08
-3.27974e-14
0.00201751
7.20405e-07
1.75859e-13
0.00199771
1.4482e-06
3.49264e-13
0.00196086
3.1081e-06
1.17922e-12
0.00187499
8.8733e-06
4.92771e-12
0.00169051
3.50839e-05
2.6452e-11
0.00107131
0.00021354
1.7342e-10
-0.00187773
0.00241796
1.05086e-09
-0.000794018
0.00357904
-2.9652e-10
-0.000319644
0.00182713
-1.06875e-10
-0.000424508
0.00201331
1.47582e-10
-0.000453299
0.00214297
2.03596e-10
-0.000365403
0.00191159
1.4577e-10
-0.000261834
0.00173972
5.45309e-11
-0.000156911
0.00156816
2.20172e-11
-5.53618e-05
0.00145139
3.29169e-11
5.40232e-05
0.00142861
3.1567e-11
0.000169436
0.00143442
5.90304e-11
0.000283625
0.0014605
7.7552e-11
0.000388711
0.00146109
5.73925e-11
0.000477758
0.00149053
3.57963e-11
0.000529835
0.00156053
2.11234e-12
0.00051641
0.00166788
-6.11453e-11
0.000393489
0.0018431
-9.99911e-11
0.00234355
-1.42177e-10
0.00203153
-5.32477e-14
1.88157e-08
0.00201908
-1.3613e-13
6.04199e-07
0.00200235
-1.18362e-13
1.23521e-06
0.00197114
2.51101e-14
2.67986e-06
0.00189555
9.26221e-13
7.58582e-06
0.00173915
6.95336e-12
2.87601e-05
0.00125481
5.89029e-11
0.000167162
-0.00125744
5.25141e-10
0.00172953
-0.000873684
-2.14477e-11
0.0044954
-0.000248142
-2.55621e-10
0.00212308
-0.000311734
6.05431e-11
0.00213025
-0.000396739
4.03414e-10
0.00238682
-0.000307359
2.65989e-10
0.00216049
-0.000209303
7.62778e-11
0.0019594
-0.000103497
1.55077e-11
0.00177752
-1.11981e-06
-3.14259e-12
0.00161294
0.000117151
-2.06522e-11
0.00158075
0.000231526
7.33684e-11
0.00157062
0.000352139
6.45428e-11
0.00160611
0.000463314
3.90896e-11
0.00161336
0.000560712
1.61879e-11
0.00164687
0.000627147
-5.00883e-12
0.0017202
0.000635393
-4.67262e-11
0.00185098
0.000532906
-7.79828e-11
0.00207163
-1.14465e-10
0.00293773
0.00203654
3.20803e-08
-1.00428e-13
0.00200813
2.00608e-07
-6.89011e-13
0.00197015
4.06358e-07
-9.71562e-13
0.00189724
9.10707e-07
-2.32615e-12
0.00175127
2.97781e-06
-8.49976e-12
0.00129986
1.6139e-05
-4.31627e-11
-0.00129611
0.000167041
-2.72906e-10
-0.00137136
0.000477916
1.95719e-10
-0.000653042
0.000235573
2.82575e-11
-0.000708961
0.000233819
-4.71742e-11
-0.000818417
0.000249592
-4.13592e-11
-0.000695941
0.000222248
-3.63657e-11
-0.000605046
0.000197723
-3.03772e-11
-0.000489856
0.000178366
-3.81421e-11
-0.000396931
0.000165529
-3.5974e-11
-0.000306279
0.000161327
-4.28491e-11
-0.000208419
0.000160438
-5.32289e-11
-9.88439e-05
0.000161685
-6.16001e-11
1.00985e-05
0.000159246
-5.96601e-11
0.000125281
0.00016016
-6.0483e-11
0.000204638
0.000161998
-7.37137e-11
0.000236203
0.000168325
-1.1251e-10
0.000227234
0.000173979
-1.64647e-10
0.000128267
0.000183609
-2.72158e-10
0.000194716
-3.10341e-10
0.00203638
6.70072e-08
-6.38084e-14
0.00200841
4.17139e-07
-5.12907e-13
0.00197103
8.37025e-07
-7.1661e-13
0.0018992
1.88098e-06
-1.65391e-12
0.00175445
6.147e-06
-5.66902e-12
0.00131199
3.26212e-05
-2.67914e-11
-0.00121563
0.000320474
-1.56975e-10
-0.0013901
0.000961271
5.79115e-11
-0.000656933
0.000472617
6.81174e-11
-0.000701163
0.00046316
-4.73335e-11
-0.000810538
0.000494344
-7.85175e-11
-0.000687392
0.000443717
-3.22079e-11
-0.000596127
0.000396455
-1.0631e-11
-0.000479725
0.000357923
-1.72133e-11
-0.000387028
0.000331644
-2.34786e-11
-0.000296988
0.000323326
-2.8929e-11
-0.000199969
0.000321677
-3.93339e-11
-9.02966e-05
0.000324005
-4.9598e-11
2.13695e-05
0.000320426
-5.61365e-11
0.000133555
0.000323683
-5.14929e-11
0.000213463
0.000326762
-7.16924e-11
0.000245012
0.000338066
-1.15497e-10
0.000233418
0.000349793
-1.64133e-10
0.000133392
0.000367409
-2.72221e-10
0.000391095
-3.13049e-10
0.00203606
9.55697e-08
-8.52878e-14
0.00200909
6.01739e-07
-5.13037e-13
0.00197309
1.20408e-06
-7.06888e-13
0.00190382
2.68738e-06
-1.60448e-12
0.00176228
8.68419e-06
-5.51216e-12
0.00134585
4.5346e-05
-2.69814e-11
-0.00108349
0.00042493
-1.53153e-10
-0.00140719
0.00146607
1.16491e-11
-0.000645768
0.000709335
4.28424e-11
-0.000669388
0.000680886
-8.29845e-11
-0.000791308
0.00073877
-5.71451e-11
-0.00067002
0.000668527
4.61455e-12
-0.000579978
0.000597598
1.58088e-11
-0.00046391
0.000541122
-3.33338e-12
-0.000371839
0.000498133
-9.0642e-12
-0.000281463
0.00048465
-8.9017e-12
-0.000184585
0.000482673
-1.23233e-11
-7.54786e-05
0.000487333
-2.49997e-11
3.8973e-05
0.00048306
-4.39488e-11
0.000147256
0.000486924
-4.65974e-11
0.000227534
0.000492775
-6.67086e-11
0.000260005
0.000509402
-1.18159e-10
0.000243681
0.00052698
-1.69845e-10
0.000143274
0.000552381
-2.73429e-10
0.000589776
-3.21371e-10
0.00203559
1.16435e-07
-8.55209e-14
0.00201009
7.38725e-07
-5.28125e-13
0.00197611
1.47411e-06
-7.00877e-13
0.00191104
3.25445e-06
-1.47484e-12
0.00177429
1.03289e-05
-4.73571e-12
0.00139619
5.25173e-05
-2.21983e-11
-0.000761909
0.000462185
-1.13096e-10
-0.00144383
0.00198358
-3.47323e-11
-0.000640733
0.00097066
7.87196e-11
-0.000626074
0.000889197
-1.49482e-10
-0.000761004
0.000980219
-3.81668e-11
-0.000644854
0.000899421
1.08729e-10
-0.00055693
0.000802648
5.99157e-11
-0.00044053
0.000728524
8.38614e-11
-0.000349098
0.000665519
3.43113e-11
-0.000258786
0.000646297
1.31093e-11
-0.000161883
0.00064345
6.24814e-12
-5.29577e-05
0.000651384
-1.86773e-11
6.47547e-05
0.000647819
-3.05519e-11
0.000166345
0.000651839
-3.45988e-11
0.000247805
0.000660188
-5.75361e-11
0.000281888
0.000684327
-1.20012e-10
0.000261024
0.0007072
-1.77739e-10
0.000159356
0.000742939
-2.73892e-10
0.00079508
-3.34295e-10
0.00203502
1.29151e-07
-1.81719e-13
0.00201134
8.30432e-07
-7.81737e-13
0.00197983
1.6492e-06
-1.0518e-12
0.00191983
3.59438e-06
-2.28538e-12
0.00179161
1.11284e-05
-7.74897e-12
0.00146157
5.42934e-05
-3.94305e-11
-0.000448048
0.000439915
-2.43544e-10
-0.00150645
0.00248083
1.83945e-10
-0.000644535
0.00127371
5.35313e-11
-0.000571922
0.00108548
-2.12775e-10
-0.000722255
0.00121899
6.26481e-11
-0.000615977
0.00113703
1.35406e-10
-0.000531001
0.00101271
4.70874e-11
-0.000414193
0.000921715
1.51168e-11
-0.0003216
0.000834082
2.60398e-11
-0.000230042
0.000807912
1.94959e-11
-0.000132352
0.00080394
2.11028e-11
-2.28152e-05
0.000815315
3.00236e-12
9.67003e-05
0.000814786
-1.38534e-11
0.000192344
0.000814638
-2.52453e-11
0.00027535
0.000827127
-4.88193e-11
0.000310918
0.000860164
-1.14658e-10
0.000286362
0.000892185
-1.83915e-10
0.000181378
0.000943747
-2.7397e-10
0.00101575
-3.47674e-10
0.00203437
1.33129e-07
-1.25361e-15
0.00201274
8.74243e-07
-4.56769e-13
0.00198403
1.7286e-06
-6.69051e-13
0.00192966
3.72226e-06
-1.64942e-12
0.00181108
1.12285e-05
-5.9945e-12
0.00152273
5.23849e-05
-3.05413e-11
-0.000102781
0.000391219
-1.87996e-10
-0.00173709
0.0028292
1.18965e-10
-0.000660296
0.00163961
1.28041e-10
-0.000508891
0.00126748
-2.4597e-10
-0.000672313
0.00144492
1.83769e-10
-0.000582589
0.00138282
1.50885e-10
-0.000499081
0.00122735
9.94582e-12
-0.000382909
0.00111971
1.55308e-11
-0.000288142
0.00100588
2.10584e-11
-0.000195209
0.000969333
4.57873e-11
-9.62425e-05
0.000964007
6.15731e-11
1.07248e-05
0.00097839
2.5557e-11
0.000132894
0.00098088
4.84114e-12
0.000227799
0.000977057
-1.61989e-11
0.000310679
0.000993675
-4.12836e-11
0.000348794
0.00103561
-1.07932e-10
0.000322385
0.0010825
-1.80364e-10
0.000207698
0.00115797
-2.70392e-10
0.00126115
-3.54278e-10
0.00203368
1.25007e-07
6.97101e-14
0.00201426
8.69294e-07
4.09061e-14
0.0019885
1.71712e-06
-1.83798e-14
0.00194033
3.67032e-06
-3.19043e-13
0.0018328
1.07956e-05
-1.77622e-12
0.00157404
4.77219e-05
-1.09216e-11
0.000242387
0.000330189
-6.77882e-11
-0.00191238
0.00297875
-8.98514e-11
-0.000688758
0.00212053
9.22028e-11
-0.000441839
0.00144015
-1.44234e-10
-0.000608275
0.00165703
8.44517e-11
-0.000544788
0.0016344
8.12863e-11
-0.000461709
0.00144713
5.25316e-11
-0.000347697
0.00132312
7.46972e-11
-0.000249888
0.00118319
6.39035e-11
-0.000154297
0.00113003
6.31753e-11
-5.27294e-05
0.00112215
9.23299e-11
6.02418e-05
0.00113992
6.09811e-11
0.000174589
0.00114365
2.51471e-11
0.000272582
0.00113975
3.39619e-12
0.000355187
0.00116019
-3.02098e-11
0.000395923
0.00121125
-9.6195e-11
0.00036983
0.00127589
-1.73882e-10
0.000248641
0.00137928
-2.65827e-10
0.00154957
-3.51231e-10
0.00203298
9.87497e-08
2.04576e-13
0.00201588
8.11587e-07
3.49954e-13
0.0019931
1.6137e-06
4.45785e-13
0.00195076
3.44769e-06
6.86521e-13
0.00185484
9.95865e-06
1.43884e-12
0.00163303
4.14889e-05
4.18952e-12
0.000715335
0.000265739
1.45757e-11
-0.00195904
0.00287637
-2.03038e-11
-0.000733492
0.00275982
-3.29169e-11
-0.000376693
0.00161535
6.38288e-11
-0.0005255
0.00184828
4.19466e-11
-0.000502262
0.00188843
-5.15792e-11
-0.000416966
0.00167443
3.72675e-12
-0.000308093
0.00152829
7.67634e-11
-0.000205784
0.0013708
9.96443e-11
-0.000107354
0.00129065
1.37708e-10
-2.53934e-06
0.00127605
1.19581e-10
0.000113147
0.00129574
1.06819e-10
0.000224515
0.00130402
3.47672e-11
0.000325687
0.00130202
1.80113e-11
0.000410295
0.00132759
-1.40245e-11
0.00045482
0.00138781
-8.42988e-11
0.000431919
0.00147253
-1.59452e-10
0.000305877
0.00160885
-2.55609e-10
0.00189896
-3.43924e-10
0.00203225
6.33959e-08
7.94899e-14
0.00201751
7.20254e-07
3.51492e-13
0.00199772
1.44788e-06
3.95141e-13
0.00196087
3.10735e-06
7.75119e-13
0.00187501
8.87088e-06
2.28942e-12
0.00169054
3.50727e-05
9.08835e-12
0.00107145
0.000213455
4.1212e-11
-0.00187784
0.00241689
1.80082e-10
-0.000794339
0.00357796
-1.03145e-10
-0.000320129
0.00182677
3.72391e-10
-0.000425133
0.00201251
7.9658e-11
-0.000453824
0.0021424
-2.24397e-10
-0.000365692
0.00191127
-1.08089e-10
-0.000261969
0.00173961
-8.28439e-12
-0.000156997
0.00156812
6.82769e-11
-5.54374e-05
0.00145165
9.59262e-11
5.39415e-05
0.00142881
9.88695e-11
0.000169348
0.00143466
9.6652e-11
0.000283539
0.00146067
6.90586e-11
0.000388643
0.00146124
3.55655e-11
0.000477708
0.00149067
-1.62681e-12
0.000529806
0.00156065
-6.45626e-11
0.000516408
0.00166802
-1.38097e-10
0.000393501
0.00184325
-2.35842e-10
0.00234375
-3.26767e-10
0.00203153
5.45915e-14
1.88202e-08
0.00201908
3.5301e-13
6.04185e-07
0.00200235
4.45287e-13
1.23516e-06
0.00197115
7.18653e-13
2.67968e-06
0.00189556
1.7965e-12
7.58503e-06
0.00173916
7.16913e-12
2.8756e-05
0.00125484
3.79963e-11
0.000167128
-0.00125741
2.99048e-10
0.00172905
-0.000874048
-6.31983e-11
0.00449425
-0.000248574
3.59138e-10
0.00212245
-0.000312408
1.31716e-10
0.00212973
-0.000397392
-2.30956e-10
0.00238616
-0.0003078
-1.40202e-10
0.00215995
-0.000209556
-3.91403e-12
0.00195909
-0.000103662
6.91666e-11
0.00177724
-1.22295e-06
1.10391e-10
0.00161302
0.000117022
1.24915e-10
0.00158095
0.000231406
1.0196e-10
0.00157083
0.000352035
8.9171e-11
0.00160629
0.000463236
5.91404e-11
0.0016135
0.000560656
1.42491e-11
0.001647
0.000627111
-4.1614e-11
0.00172032
0.00063538
-1.14861e-10
0.00185111
0.000532913
-1.99733e-10
0.00207178
-2.91202e-10
0.00293794
0.00203654
3.21012e-08
3.61882e-14
0.00200813
2.00704e-07
4.7053e-13
0.00197015
4.06532e-07
7.53204e-13
0.00189723
9.11145e-07
2.25136e-12
0.00175126
2.97959e-06
1.03482e-11
0.00129982
1.61508e-05
6.69085e-11
-0.00129631
0.000167157
5.20331e-10
-0.0013714
0.000477915
1.33178e-10
-0.000653105
0.000235508
2.99772e-11
-0.000709045
0.000233804
3.33254e-11
-0.000818453
0.000249532
-3.17262e-11
-0.000695953
0.000222239
-3.32051e-11
-0.000605069
0.000197758
-3.23589e-11
-0.000489894
0.0001784
-2.32413e-11
-0.000396979
0.000165554
-1.53863e-11
-0.000306327
0.000161339
-3.22133e-12
-0.000208458
0.000160436
1.5133e-12
-9.88731e-05
0.000161675
1.21854e-11
1.00736e-05
0.000159229
2.75737e-11
0.000125265
0.000160145
3.3606e-11
0.000204634
0.000161981
3.81405e-11
0.000236205
0.000168311
2.9859e-11
0.000227238
0.000173969
1.68354e-11
0.000128285
0.000183603
2.27667e-11
0.000194711
1.21973e-11
0.00203638
6.69857e-08
3.30467e-14
0.00200841
4.17124e-07
4.53678e-13
0.00197103
8.37013e-07
7.43003e-13
0.00189919
1.88099e-06
2.32102e-12
0.00175445
6.1471e-06
1.03249e-11
0.00131199
3.2621e-05
6.63229e-11
-0.00121562
0.00032046
5.3838e-10
-0.00138994
0.000961273
1.99917e-10
-0.000656827
0.000472575
1.22549e-11
-0.00070105
0.000463074
2.55946e-12
-0.000810444
0.000494299
-3.99621e-11
-0.000687342
0.000443783
-4.67946e-11
-0.000596135
0.000396585
-3.37796e-11
-0.000479758
0.000358019
-2.23261e-11
-0.000387073
0.000331695
-1.44378e-11
-0.000297037
0.000323352
-5.66896e-12
-0.000200012
0.00032168
7.93845e-13
-9.03276e-05
0.00032399
1.05389e-11
2.13335e-05
0.000320402
1.98834e-11
0.000133538
0.000323655
3.39959e-11
0.000213458
0.000326732
3.35554e-11
0.000245016
0.000338038
2.87905e-11
0.000233422
0.000349772
1.55686e-11
0.00013341
0.000367395
2.39038e-11
0.000391087
2.28199e-11
0.00203606
9.55759e-08
4.76915e-14
0.00200909
6.01702e-07
5.28059e-13
0.00197309
1.20399e-06
8.54656e-13
0.00190382
2.68726e-06
2.5555e-12
0.00176228
8.68421e-06
1.12015e-11
0.00134583
4.53478e-05
7.22251e-11
-0.00108358
0.000424955
5.43766e-10
-0.00140711
0.00146601
2.59769e-10
-0.000645708
0.000709299
-1.38094e-11
-0.000669309
0.000680747
-6.44051e-11
-0.000791212
0.000738759
-1.3386e-10
-0.000669957
0.000668685
-1.00991e-10
-0.000579978
0.000597813
-6.17055e-11
-0.00046394
0.000541285
-2.80781e-11
-0.000371897
0.000498223
-1.32564e-11
-0.000281532
0.000484686
-4.72295e-12
-0.000184643
0.000482673
9.35865e-13
-7.55215e-05
0.000487308
1.13605e-11
3.89426e-05
0.000483015
2.08582e-11
0.000147239
0.000486885
2.9652e-11
0.000227529
0.000492733
3.38453e-11
0.000260012
0.000509363