/*--------------------------------*- C++ -*----------------------------------*\
| =========                 |                                                 |
| \\      /  F ield         | OpenFOAM: The Open Source CFD Toolbox           |
|  \\    /   O peration     | Version:  4.1                                   |
|   \\  /    A nd           | Web:      www.OpenFOAM.org                      |
|    \\/     M anipulation  |                                                 |
\*---------------------------------------------------------------------------*/
FoamFile
{
    version     2.0;
    format      ascii;
    class       volScalarField;
    location    "0.52";
    object      T;
}
// * * * * * * * * * * * * * * * * * * * * * * * * * * * * * * * * * * * * * //

dimensions      [0 0 0 1 0 0 0];

internalField   nonuniform List<scalar> 
52500
(
0.338434
0.323687
0.327071
0.343218
0.413062
0.731032
1.43876
1.75949
1.51512
1.39454
1.26409
1.19815
1.19277
1.22779
1.26395
1.2511
1.20962
1.17093
1.16149
1.15588
1.13973
1.12
1.10036
1.07458
1.01729
0.338368
0.323532
0.326843
0.342608
0.41054
0.721676
1.42365
1.76347
1.51785
1.39611
1.26503
1.19807
1.19163
1.22537
1.2633
1.25147
1.21057
1.17074
1.16076
1.15506
1.13938
1.12008
1.10056
1.07519
1.017
0.338229
0.323203
0.326357
0.341298
0.405086
0.700284
1.38597
1.77057
1.52412
1.40088
1.26926
1.19767
1.18885
1.21997
1.26175
1.25222
1.21253
1.1708
1.15988
1.15432
1.13929
1.12083
1.10147
1.077
1.01787
0.338027
0.322726
0.325655
0.339422
0.397291
0.668119
1.32565
1.77745
1.53232
1.40702
1.27637
1.19797
1.18605
1.21408
1.25966
1.25281
1.21504
1.17093
1.15853
1.1532
1.13901
1.1216
1.10348
1.08007
1.01992
0.337778
0.322135
0.324795
0.33718
0.388042
0.626336
1.24872
1.78125
1.54523
1.41288
1.2845
1.19773
1.18052
1.20325
1.25472
1.25255
1.21764
1.17107
1.15642
1.1519
1.13875
1.12217
1.1051
1.08323
1.02104
0.337497
0.321464
0.323833
0.334733
0.378234
0.581031
1.16612
1.77659
1.56369
1.42093
1.2955
1.19809
1.17405
1.19098
1.24804
1.2513
1.22014
1.17134
1.15357
1.15028
1.13812
1.12319
1.10691
1.08456
1.02285
0.337195
0.320746
0.322823
0.332221
0.368482
0.535705
1.0829
1.75255
1.59141
1.42826
1.30967
1.20018
1.16689
1.17688
1.23652
1.2484
1.22249
1.17176
1.15023
1.14788
1.13705
1.12293
1.10756
1.08739
1.02234
0.336886
0.32001
0.321808
0.329762
0.359399
0.493141
0.986357
1.70647
1.62452
1.43976
1.32628
1.20527
1.15971
1.16341
1.22103
1.24486
1.22405
1.17375
1.14629
1.14408
1.13459
1.12176
1.1067
1.08795
1.02034
0.336589
0.319304
0.320845
0.327448
0.351256
0.455934
0.8833
1.62933
1.66037
1.45233
1.34418
1.21401
1.15268
1.1503
1.19982
1.23864
1.22407
1.17931
1.14255
1.1386
1.13063
1.11867
1.10422
1.0858
1.01202
0.336326
0.318661
0.319965
0.32532
0.344045
0.423673
0.777852
1.49665
1.70245
1.47294
1.36147
1.22728
1.14734
1.1371
1.17402
1.23005
1.22165
1.18691
1.13906
1.13288
1.12666
1.11493
1.09846
1.07774
0.990929
0.338438
0.323694
0.327081
0.343241
0.413149
0.731338
1.43927
1.75934
1.51503
1.39455
1.26416
1.1982
1.19281
1.22779
1.26394
1.25109
1.20962
1.17093
1.1615
1.15589
1.13973
1.11998
1.10032
1.07455
1.01731
0.338372
0.323538
0.326851
0.342624
0.410596
0.721834
1.4236
1.76332
1.518
1.39673
1.26537
1.19809
1.19155
1.22515
1.26327
1.25149
1.21059
1.17074
1.16076
1.15507
1.13937
1.12006
1.10053
1.07517
1.01701
0.338232
0.323209
0.326365
0.341318
0.405159
0.700555
1.3864
1.77044
1.52402
1.40076
1.26926
1.19783
1.18912
1.22036
1.26185
1.25219
1.21248
1.17079
1.15989
1.15433
1.13929
1.12081
1.10145
1.07698
1.01789
0.33803
0.322732
0.325663
0.339441
0.397362
0.668413
1.32607
1.77729
1.53207
1.4068
1.27625
1.19796
1.1861
1.21419
1.25973
1.25279
1.21498
1.17091
1.15854
1.1532
1.139
1.12159
1.10346
1.08006
1.01994
0.337782
0.32214
0.324802
0.337196
0.388104
0.626606
1.24916
1.78111
1.54508
1.41256
1.28414
1.19774
1.18065
1.20349
1.25472
1.25249
1.2176
1.17107
1.15642
1.15189
1.13874
1.12215
1.10507
1.08322
1.02109
0.337499
0.321469
0.323839
0.334746
0.378284
0.581249
1.1665
1.77654
1.56335
1.42067
1.29548
1.19828
1.17467
1.19177
1.24841
1.25134
1.22004
1.1713
1.15356
1.15026
1.1381
1.12314
1.10686
1.08455
1.02292
0.337197
0.320749
0.322827
0.33223
0.368518
0.535877
1.08326
1.75264
1.59125
1.42819
1.30886
1.20047
1.16738
1.17746
1.23692
1.24856
1.22241
1.17167
1.15022
1.14788
1.13701
1.12288
1.1075
1.08737
1.02243
0.336887
0.320012
0.321811
0.329769
0.359424
0.493256
0.986659
1.70664
1.62447
1.4399
1.32592
1.20541
1.15975
1.16337
1.22086
1.24474
1.22399
1.17368
1.14627
1.14404
1.13454
1.12169
1.10663
1.08792
1.02045
0.336591
0.319306
0.320848
0.327453
0.351271
0.456009
0.883541
1.62957
1.66032
1.45244
1.34413
1.214
1.1525
1.15003
1.19951
1.23853
1.22402
1.1793
1.14252
1.13857
1.13058
1.11858
1.10413
1.08576
1.01213
0.336328
0.318663
0.319966
0.325324
0.344055
0.423718
0.778025
1.49693
1.70243
1.47297
1.36153
1.22724
1.14713
1.1368
1.17365
1.22992
1.22159
1.18693
1.13903
1.13287
1.12662
1.11483
1.09836
1.07769
0.991043
0.338437
0.323691
0.327077
0.34323
0.413107
0.731186
1.439
1.75938
1.51501
1.39441
1.26407
1.19827
1.19294
1.22796
1.26399
1.25108
1.20957
1.17091
1.16148
1.15587
1.13972
1.11998
1.10033
1.07457
1.01733
0.338371
0.323536
0.326848
0.342618
0.410574
0.721786
1.42375
1.76337
1.51782
1.39616
1.2651
1.19818
1.19175
1.22548
1.26333
1.25146
1.21053
1.17072
1.16075
1.15505
1.13936
1.12006
1.10054
1.07519
1.01703
0.338231
0.323206
0.326361
0.341307
0.405119
0.700403
1.38613
1.7705
1.52408
1.40091
1.26931
1.19771
1.1889
1.22004
1.26178
1.25221
1.21249
1.17078
1.15987
1.15431
1.13928
1.12081
1.10146
1.077
1.01791
0.338029
0.322729
0.325659
0.339431
0.397322
0.668245
1.32583
1.77741
1.53226
1.40702
1.27642
1.19799
1.18608
1.21419
1.25969
1.25281
1.21499
1.1709
1.15852
1.15318
1.13899
1.12159
1.10347
1.08008
1.01996
0.33778
0.322138
0.324799
0.337187
0.38807
0.626452
1.24891
1.78122
1.54522
1.41287
1.28448
1.19763
1.18034
1.203
1.25459
1.25251
1.21764
1.17107
1.1564
1.15187
1.13873
1.12215
1.10508
1.08324
1.02111
0.337498
0.321467
0.323836
0.33474
0.378258
0.581134
1.16629
1.77659
1.56354
1.42087
1.29576
1.19804
1.17409
1.19107
1.24813
1.25131
1.22011
1.17132
1.15354
1.15025
1.13809
1.12314
1.10687
1.08457
1.02294
0.337196
0.320748
0.322826
0.332227
0.368503
0.535801
1.0831
1.75263
1.59141
1.42828
1.30894
1.20023
1.16704
1.17709
1.2367
1.24848
1.22246
1.17171
1.15021
1.14786
1.13701
1.12288
1.10751
1.08739
1.02245
0.336887
0.320012
0.321811
0.329767
0.359416
0.493218
0.986551
1.70662
1.62458
1.43994
1.32587
1.20533
1.15975
1.16344
1.22104
1.24487
1.22404
1.1737
1.14626
1.14402
1.13454
1.1217
1.10663
1.08794
1.02047
0.336591
0.319306
0.320848
0.327452
0.351268
0.455992
0.883478
1.62952
1.66038
1.45247
1.34405
1.21401
1.15266
1.15028
1.19979
1.23857
1.22404
1.17928
1.14252
1.13856
1.13058
1.11858
1.10413
1.08577
1.01215
0.336328
0.318663
0.319966
0.325324
0.344055
0.423713
0.778001
1.49689
1.70245
1.47299
1.36146
1.22724
1.14732
1.1371
1.17407
1.23009
1.22163
1.18689
1.13903
1.13287
1.12662
1.11483
1.09837
1.0777
0.991062
0.338437
0.323691
0.327077
0.343231
0.413113
0.731208
1.43903
1.75937
1.51501
1.39441
1.26407
1.19827
1.19294
1.22797
1.264
1.25108
1.20957
1.17092
1.16149
1.15588
1.13973
1.11999
1.10035
1.0746
1.01736
0.338371
0.323536
0.326848
0.342618
0.410578
0.721798
1.42376
1.76337
1.51783
1.3962
1.26512
1.19817
1.19174
1.22548
1.26334
1.25147
1.21053
1.17072
1.16075
1.15506
1.13937
1.12007
1.10056
1.07521
1.01706
0.338231
0.323207
0.326361
0.341308
0.405123
0.700416
1.38615
1.77049
1.52409
1.40096
1.26937
1.19775
1.18896
1.22011
1.2618
1.25221
1.21248
1.17078
1.15987
1.15432
1.13929
1.12083
1.10147
1.07702
1.01794
0.338029
0.322729
0.325659
0.339431
0.397325
0.668256
1.32583
1.77738
1.53222
1.40701
1.27638
1.19792
1.18601
1.21404
1.25968
1.25281
1.215
1.17091
1.15852
1.15318
1.139
1.1216
1.10349
1.08011
1.01999
0.337781
0.322138
0.324799
0.337189
0.388075
0.626476
1.24895
1.78122
1.54519
1.41273
1.2843
1.19767
1.18047
1.20323
1.25464
1.25251
1.21763
1.17106
1.1564
1.15188
1.13874
1.12216
1.1051
1.08326
1.02114
0.337498
0.321467
0.323837
0.334741
0.378262
0.581152
1.16633
1.77658
1.56351
1.42081
1.29566
1.19817
1.1744
1.19144
1.24829
1.25134
1.22007
1.1713
1.15354
1.15025
1.13809
1.12315
1.10689
1.08459
1.02297
0.337196
0.320748
0.322826
0.332227
0.368504
0.535808
1.08311
1.75263
1.59138
1.42829
1.309
1.20033
1.16709
1.17713
1.23676
1.24854
1.22245
1.17168
1.1502
1.14786
1.13701
1.12289
1.10752
1.08742
1.02248
0.336887
0.320012
0.32181
0.329767
0.359415
0.493215
0.986547
1.7066
1.62457
1.43996
1.32598
1.2053
1.15956
1.16318
1.22073
1.24474
1.22402
1.1737
1.14625
1.14402
1.13454
1.1217
1.10665
1.08797
1.0205
0.33659
0.319306
0.320848
0.327451
0.351267
0.455986
0.883463
1.6295
1.66039
1.45251
1.34417
1.21397
1.15244
1.15
1.19949
1.23855
1.22404
1.1793
1.1425
1.13856
1.13058
1.11859
1.10415
1.0858
1.01218
0.336328
0.318663
0.319966
0.325323
0.344053
0.423708
0.777981
1.49686
1.70248
1.47303
1.36156
1.22725
1.14717
1.13687
1.17377
1.23001
1.22163
1.18693
1.13902
1.13286
1.12661
1.11484
1.09838
1.07773
0.991091
0.338437
0.323691
0.327077
0.34323
0.413106
0.731178
1.43897
1.75936
1.51502
1.39444
1.26409
1.19827
1.19294
1.22794
1.26398
1.25107
1.20957
1.17092
1.16148
1.15587
1.13972
1.11999
1.10034
1.07459
1.01736
0.338371
0.323536
0.326848
0.342617
0.410572
0.72177
1.42369
1.76336
1.51784
1.39621
1.26513
1.19818
1.19174
1.22546
1.26332
1.25145
1.21054
1.17072
1.16074
1.15505
1.13936
1.12006
1.10055
1.07521
1.01706
0.338231
0.323206
0.326361
0.341307
0.405117
0.700385
1.38608
1.77048
1.52409
1.40097
1.26939
1.19776
1.18896
1.22009
1.26178
1.25219
1.21248
1.17078
1.15986
1.15431
1.13927
1.12081
1.10146
1.07702
1.01794
0.338029
0.322729
0.325658
0.33943
0.397318
0.668219
1.32576
1.77736
1.53223
1.40703
1.27638
1.19793
1.18601
1.21403
1.25967
1.25279
1.215
1.1709
1.15851
1.15317
1.13898
1.12158
1.10347
1.0801
1.02
0.33778
0.322138
0.324798
0.337187
0.388068
0.626439
1.24888
1.7812
1.54518
1.41274
1.28437
1.19768
1.18048
1.20324
1.25465
1.2525
1.21761
1.17105
1.1564
1.15187
1.13873
1.12216
1.1051
1.08327
1.02112
0.337498
0.321467
0.323836
0.334739
0.378255
0.581119
1.16626
1.77658
1.5636
1.42084
1.29532
1.19819
1.1744
1.19143
1.24828
1.25134
1.22006
1.17129
1.15354
1.15025
1.1381
1.12316
1.10692
1.0846
1.02291
0.337196
0.320748
0.322825
0.332225
0.368497
0.53577
1.08303
1.75258
1.59133
1.42823
1.30967
1.20033
1.16709
1.17712
1.23676
1.24854
1.22244
1.17168
1.15021
1.14787
1.13703
1.12293
1.10758
1.08742
1.02239
0.336887
0.320011
0.32181
0.329765
0.359409
0.493183
0.986466
1.70652
1.62447
1.43978
1.32643
1.20531
1.15957
1.16318
1.22071
1.24472
1.22401
1.1737
1.14626
1.14404
1.13458
1.12176
1.10671
1.08799
1.02038
0.33659
0.319305
0.320847
0.32745
0.351262
0.455962
0.883389
1.62942
1.66035
1.45235
1.34432
1.21399
1.15245
1.15
1.19948
1.23855
1.22403
1.1793
1.14251
1.13857
1.13061
1.11867
1.10423
1.08583
1.01206
0.336327
0.318662
0.319966
0.325322
0.34405
0.423691
0.777922
1.49677
1.70247
1.47298
1.36159
1.22727
1.14717
1.13687
1.17373
1.22996
1.22161
1.18691
1.13902
1.13287
1.12664
1.11491
1.09847
1.07778
0.990972
0.338437
0.323691
0.327077
0.343231
0.413111
0.731198
1.43901
1.75936
1.51501
1.39441
1.26406
1.19827
1.19294
1.22797
1.264
1.25108
1.20956
1.17091
1.16148
1.15588
1.13973
1.11999
1.10035
1.0746
1.01736
0.338371
0.323536
0.326848
0.342618
0.410576
0.721785
1.42372
1.76335
1.51783
1.39619
1.26512
1.19817
1.19174
1.22548
1.26333
1.25146
1.21053
1.17072
1.16075
1.15505
1.13937
1.12007
1.10056
1.07522
1.01706
0.338231
0.323207
0.326361
0.341308
0.40512
0.7004
1.38611
1.77048
1.52408
1.40096
1.26937
1.19775
1.18896
1.22011
1.2618
1.2522
1.21248
1.17078
1.15987
1.15432
1.13929
1.12082
1.10147
1.07703
1.01794
0.338029
0.322729
0.325659
0.339431
0.397321
0.668235
1.32579
1.77736
1.53222
1.40701
1.27637
1.19792
1.18601
1.21404
1.25968
1.2528
1.215
1.17091
1.15852
1.15318
1.139
1.1216
1.10349
1.08011
1.01999
0.337781
0.322138
0.324799
0.337188
0.388071
0.626453
1.24891
1.7812
1.54517
1.41272
1.28436
1.19768
1.18048
1.20324
1.25465
1.25251
1.21762
1.17106
1.1564
1.15188
1.13873
1.12216
1.1051
1.08326
1.02114
0.337498
0.321467
0.323836
0.33474
0.378257
0.58113
1.16629
1.77659
1.56359
1.42083
1.2953
1.19819
1.1744
1.19143
1.24829
1.25134
1.22007
1.1713
1.15354
1.15025
1.13809
1.12315
1.10689
1.08459
1.02297
0.337196
0.320748
0.322825
0.332225
0.368499
0.535779
1.08305
1.75258
1.59132
1.42822
1.30965
1.20032
1.16709
1.17713
1.23676
1.24854
1.22245
1.17169
1.1502
1.14786
1.13701
1.12289
1.10752
1.08742
1.02248
0.336887
0.320011
0.32181
0.329765
0.35941
0.493189
0.986483
1.70653
1.62446
1.43977
1.32641
1.20529
1.15956
1.16317
1.22072
1.24473
1.22402
1.1737
1.14625
1.14402
1.13454
1.1217
1.10665
1.08796
1.0205
0.33659
0.319305
0.320847
0.32745
0.351263
0.455966
0.883404
1.62944
1.66034
1.45234
1.3443
1.21397
1.15244
1.14999
1.19948
1.23856
1.22405
1.17931
1.14251
1.13856
1.13058
1.11859
1.10415
1.08579
1.01218
0.336327
0.318662
0.319966
0.325323
0.34405
0.423694
0.777934
1.49679
1.70247
1.47296
1.36157
1.22725
1.14716
1.13686
1.17375
1.22999
1.22163
1.18692
1.13902
1.13286
1.12662
1.11484
1.09837
1.07772
0.991085
0.338437
0.323691
0.327077
0.343231
0.413113
0.731208
1.43903
1.75937
1.51501
1.39441
1.26407
1.19827
1.19294
1.22797
1.264
1.25108
1.20957
1.17092
1.16149
1.15588
1.13973
1.11999
1.10035
1.0746
1.01736
0.338371
0.323536
0.326848
0.342618
0.410578
0.721798
1.42376
1.76337
1.51783
1.3962
1.26512
1.19817
1.19174
1.22548
1.26334
1.25147
1.21053
1.17072
1.16075
1.15506
1.13937
1.12007
1.10056
1.07521
1.01706
0.338231
0.323207
0.326361
0.341308
0.405123
0.700416
1.38615
1.77049
1.52409
1.40096
1.26937
1.19775
1.18896
1.22011
1.2618
1.25221
1.21248
1.17078
1.15987
1.15432
1.13929
1.12083
1.10147
1.07702
1.01794
0.338029
0.322729
0.325659
0.339431
0.397325
0.668256
1.32583
1.77738
1.53222
1.40701
1.27638
1.19792
1.18601
1.21404
1.25968
1.25281
1.215
1.17091
1.15852
1.15318
1.139
1.1216
1.10349
1.08011
1.01999
0.337781
0.322138
0.324799
0.337189
0.388075
0.626476
1.24895
1.78122
1.54519
1.41273
1.2843
1.19767
1.18047
1.20323
1.25464
1.25251
1.21763
1.17106
1.1564
1.15188
1.13874
1.12216
1.1051
1.08326
1.02114
0.337498
0.321467
0.323837
0.334741
0.378262
0.581153
1.16633
1.77658
1.56351
1.42081
1.29566
1.19817
1.1744
1.19144
1.24829
1.25134
1.22007
1.1713
1.15354
1.15025
1.13809
1.12315
1.10689
1.08459
1.02297
0.337196
0.320748
0.322826
0.332227
0.368505
0.535808
1.08311
1.75263
1.59138
1.42829
1.309
1.20033
1.16709
1.17713
1.23676
1.24854
1.22245
1.17168
1.1502
1.14786
1.13701
1.12289
1.10752
1.08742
1.02248
0.336887
0.320012
0.32181
0.329767
0.359415
0.493215
0.986547
1.7066
1.62457
1.43996
1.32598
1.2053
1.15956
1.16318
1.22073
1.24474
1.22402
1.1737
1.14625
1.14402
1.13454
1.1217
1.10665
1.08797
1.0205
0.33659
0.319306
0.320848
0.327451
0.351267
0.455986
0.883463
1.6295
1.66039
1.45251
1.34417
1.21397
1.15244
1.15
1.19949
1.23855
1.22404
1.1793
1.1425
1.13856
1.13058
1.11859
1.10415
1.0858
1.01218
0.336328
0.318663
0.319966
0.325323
0.344053
0.423708
0.777982
1.49686
1.70248
1.47303
1.36156
1.22725
1.14717
1.13687
1.17377
1.23001
1.22163
1.18693
1.13902
1.13286
1.12661
1.11484
1.09838
1.07773
0.991091
0.338437
0.323691
0.327077
0.34323
0.413107
0.731186
1.439
1.75938
1.51501
1.39441
1.26407
1.19827
1.19294
1.22796
1.26399
1.25108
1.20957
1.17091
1.16148
1.15587
1.13972
1.11998
1.10033
1.07457
1.01733
0.338371
0.323536
0.326848
0.342618
0.410574
0.721786
1.42375
1.76337
1.51782
1.39616
1.2651
1.19818
1.19175
1.22548
1.26333
1.25146
1.21053
1.17072
1.16075
1.15505
1.13936
1.12006
1.10054
1.07519
1.01703
0.338231
0.323206
0.326361
0.341307
0.405119
0.700403
1.38613
1.7705
1.52408
1.40091
1.26931
1.19771
1.1889
1.22004
1.26178
1.25221
1.21249
1.17078
1.15987
1.15431
1.13928
1.12081
1.10146
1.077
1.01791
0.338029
0.322729
0.325659
0.339431
0.397322
0.668245
1.32583
1.77741
1.53226
1.40702
1.27642
1.19799
1.18608
1.21419
1.25969
1.25281
1.21499
1.1709
1.15852
1.15318
1.13899
1.12159
1.10347
1.08008
1.01996
0.33778
0.322138
0.324799
0.337187
0.38807
0.626452
1.24891
1.78122
1.54522
1.41287
1.28448
1.19763
1.18034
1.203
1.25459
1.25251
1.21764
1.17107
1.1564
1.15187
1.13873
1.12215
1.10508
1.08324
1.02111
0.337498
0.321467
0.323836
0.33474
0.378258
0.581134
1.16629
1.77659
1.56354
1.42087
1.29576
1.19804
1.17409
1.19107
1.24813
1.25131
1.22011
1.17132
1.15354
1.15025
1.13809
1.12314
1.10687
1.08457
1.02294
0.337196
0.320748
0.322826
0.332227
0.368503
0.535801
1.0831
1.75263
1.59141
1.42828
1.30894
1.20023
1.16704
1.17709
1.2367
1.24848
1.22246
1.17171
1.15021
1.14786
1.13701
1.12288
1.10751
1.08739
1.02245
0.336887
0.320012
0.321811
0.329767
0.359416
0.493218
0.986551
1.70662
1.62458
1.43994
1.32587
1.20533
1.15975
1.16344
1.22104
1.24487
1.22404
1.1737
1.14626
1.14402
1.13454
1.1217
1.10663
1.08794
1.02047
0.336591
0.319306
0.320848
0.327452
0.351268
0.455992
0.883478
1.62952
1.66038
1.45247
1.34405
1.21401
1.15266
1.15028
1.19979
1.23857
1.22404
1.17928
1.14252
1.13856
1.13058
1.11858
1.10413
1.08577
1.01215
0.336328
0.318663
0.319966
0.325324
0.344055
0.423713
0.778001
1.49689
1.70245
1.47299
1.36146
1.22724
1.14732
1.1371
1.17407
1.23009
1.22163
1.18689
1.13903
1.13287
1.12662
1.11483
1.09837
1.0777
0.991062
0.338438
0.323694
0.327081
0.34324
0.413148
0.731337
1.43926
1.75934
1.51503
1.39455
1.26416
1.19821
1.19281
1.22779
1.26394
1.25109
1.20962
1.17093
1.1615
1.15589
1.13973
1.11998
1.10032
1.07455
1.01731
0.338372
0.323538
0.326851
0.342624
0.410596
0.721833
1.4236
1.76332
1.518
1.39673
1.26537
1.19809
1.19155
1.22515
1.26327
1.25149
1.21059
1.17074
1.16076
1.15507
1.13937
1.12006
1.10053
1.07517
1.01701
0.338232
0.323209
0.326365
0.341318
0.405159
0.700554
1.3864
1.77044
1.52402
1.40076
1.26926
1.19783
1.18912
1.22036
1.26185
1.25219
1.21248
1.17079
1.15989
1.15433
1.13929
1.12081
1.10145
1.07698
1.01789
0.33803
0.322732
0.325663
0.339441
0.397362
0.668412
1.32607
1.77729
1.53207
1.4068
1.27625
1.19796
1.1861
1.21419
1.25973
1.25279
1.21498
1.17091
1.15854
1.1532
1.139
1.12159
1.10346
1.08006
1.01994
0.337782
0.32214
0.324802
0.337196
0.388104
0.626606
1.24916
1.78111
1.54508
1.41256
1.28414
1.19774
1.18065
1.20349
1.25472
1.25249
1.21759
1.17107
1.15642
1.15189
1.13874
1.12215
1.10507
1.08322
1.02109
0.337499
0.321469
0.323839
0.334746
0.378284
0.581249
1.1665
1.77654
1.56335
1.42067
1.29548
1.19828
1.17467
1.19177
1.24841
1.25133
1.22004
1.1713
1.15356
1.15026
1.1381
1.12314
1.10686
1.08455
1.02292
0.337197
0.320749
0.322827
0.33223
0.368518
0.535877
1.08326
1.75264
1.59125
1.42819
1.30886
1.20047
1.16738
1.17746
1.23692
1.24856
1.22241
1.17167
1.15022
1.14788
1.13701
1.12288
1.1075
1.08737
1.02243
0.336887
0.320012
0.321811
0.329769
0.359424
0.493256
0.986658
1.70664
1.62447
1.4399
1.32592
1.20541
1.15975
1.16337
1.22086
1.24474
1.22399
1.17368
1.14627
1.14404
1.13454
1.12169
1.10663
1.08792
1.02045
0.336591
0.319306
0.320848
0.327453
0.351271
0.456009
0.883541
1.62957
1.66032
1.45244
1.34413
1.214
1.1525
1.15003
1.19951
1.23853
1.22402
1.1793
1.14252
1.13857
1.13058
1.11858
1.10413
1.08576
1.01213
0.336328
0.318663
0.319966
0.325324
0.344055
0.423718
0.778025
1.49693
1.70243
1.47297
1.36153
1.22724
1.14713
1.1368
1.17365
1.22992
1.22159
1.18693
1.13903
1.13287
1.12662
1.11483
1.09836
1.07769
0.991042
0.338434
0.323687
0.327071
0.343218
0.413063
0.731041
1.43884
1.75949
1.51508
1.39438
1.26401
1.19819
1.19284
1.22787
1.26397
1.25109
1.2096
1.17095
1.16152
1.15592
1.13979
1.12007
1.10042
1.07456
1.01711
0.338368
0.323531
0.326842
0.342605
0.410529
0.721633
1.42356
1.76353
1.51794
1.39626
1.2652
1.19817
1.19167
1.22536
1.26329
1.25147
1.21058
1.17075
1.16079
1.15509
1.13943
1.12014
1.10062
1.07517
1.01683
0.338228
0.323202
0.326355
0.341293
0.405066
0.700194
1.38576
1.77059
1.52426
1.40137
1.26967
1.19758
1.18865
1.21972
1.26168
1.25222
1.21253
1.17081
1.1599
1.15435
1.13933
1.12087
1.10152
1.07697
1.01772
0.338027
0.322726
0.325654
0.33942
0.397282
0.66808
1.32558
1.77746
1.53228
1.40696
1.27626
1.19776
1.18582
1.2138
1.2596
1.2528
1.21506
1.17094
1.15854
1.1532
1.13901
1.12161
1.1035
1.08005
1.01981
0.337779
0.322136
0.324796
0.337181
0.388048
0.626359
1.24878
1.78129
1.54518
1.41255
1.28416
1.19784
1.18088
1.20369
1.25477
1.2525
1.21761
1.17106
1.15642
1.15189
1.13874
1.12216
1.10509
1.08321
1.021
0.337497
0.321465
0.323834
0.334735
0.378242
0.581064
1.16617
1.77659
1.56364
1.42076
1.29527
1.19848
1.17481
1.19192
1.24857
1.2514
1.22005
1.17129
1.15356
1.15026
1.1381
1.12316
1.10689
1.08454
1.02284
0.337195
0.320746
0.322823
0.332222
0.368487
0.535726
1.08294
1.75252
1.59134
1.42825
1.30979
1.20047
1.16705
1.17698
1.23653
1.24846
1.22244
1.17168
1.15022
1.14787
1.13702
1.1229
1.10753
1.08737
1.02233
0.336886
0.32001
0.321808
0.329762
0.359402
0.493154
0.986394
1.70646
1.62446
1.43979
1.32651
1.20523
1.15938
1.16292
1.22046
1.24466
1.224
1.17374
1.14628
1.14406
1.13457
1.12173
1.10667
1.08794
1.02034
0.336589
0.319304
0.320846
0.327448
0.351259
0.455948
0.883341
1.62937
1.66035
1.45235
1.34431
1.2139
1.15232
1.14985
1.19924
1.23838
1.224
1.17936
1.14254
1.13859
1.13062
1.11865
1.10419
1.08578
1.01202
0.336326
0.318662
0.319965
0.325322
0.344049
0.423689
0.777908
1.49675
1.70247
1.47296
1.36153
1.2272
1.14719
1.13691
1.1738
1.23001
1.22163
1.18696
1.13905
1.13287
1.12665
1.11491
1.09845
1.07773
0.990929
0.336115
0.31811
0.319199
0.323441
0.337834
0.396317
0.671576
1.32665
1.73457
1.50088
1.37597
1.24738
1.14607
1.1237
1.14435
1.21715
1.21809
1.19286
1.13938
1.12804
1.11849
1.1092
1.09039
1.06318
0.927789
0.335982
0.317668
0.31856
0.321835
0.332738
0.374592
0.571459
1.1562
1.74261
1.54039
1.38749
1.27468
1.14862
1.11008
1.11645
1.18984
1.21334
1.19705
1.14234
1.11888
1.11225
1.10358
1.08129
1.05581
0.932558
0.335953
0.317342
0.318029
0.320489
0.328696
0.358568
0.494898
0.999961
1.71273
1.59257
1.40285
1.30644
1.15889
1.0965
1.09179
1.14622
1.20448
1.19689
1.1514
1.11779
1.10607
1.09764
1.07284
1.05079
0.954288
0.336037
0.317111
0.317578
0.319388
0.325568
0.347013
0.440086
0.83914
1.55819
1.64013
1.42316
1.33302
1.1814
1.09077
1.07214
1.09957
1.18363
1.1941
1.16723
1.12044
1.09806
1.08828
1.06594
1.04868
0.996645
0.336211
0.316929
0.317204
0.318601
0.323298
0.33857
0.400363
0.690387
1.33878
1.68065
1.46399
1.35225
1.21405
1.09133
1.05437
1.06274
1.13159
1.18624
1.17107
1.12719
1.09753
1.08529
1.06028
1.04848
1.01995
0.336409
0.316746
0.317021
0.318158
0.321562
0.332178
0.37252
0.564089
1.13857
1.69108
1.52776
1.36974
1.25973
1.10062
1.04289
1.03771
1.07455
1.16998
1.16808
1.14562
1.10121
1.08678
1.0618
1.04707
1.03711
0.336537
0.316681
0.31695
0.31768
0.320041
0.327438
0.353817
0.476532
0.966527
1.68518
1.58984
1.38871
1.3074
1.12519
1.04311
1.01621
1.03192
1.12863
1.15971
1.14983
1.11081
1.09162
1.06632
1.04834
1.03977
0.336592
0.316703
0.316822
0.317277
0.31892
0.324051
0.341228
0.414253
0.758648
1.50645
1.62406
1.41554
1.34373
1.17752
1.05052
1.00814
1.00118
1.05574
1.14341
1.14687
1.12738
1.10635
1.07534
1.05174
1.03881
0.336612
0.316773
0.316671
0.316941
0.318083
0.32165
0.333109
0.377483
0.590259
1.16713
1.63722
1.46433
1.37758
1.23737
1.07143
1.00873
0.985218
1.00723
1.10613
1.13608
1.12717
1.1176
1.0975
1.06037
1.04041
0.336623
0.316842
0.316526
0.316697
0.317469
0.319883
0.327441
0.354637
0.482526
0.966973
1.64241
1.5369
1.41593
1.30252
1.10693
1.01515
0.982803
0.979778
1.02621
1.10685
1.12143
1.11867
1.11215
1.08387
1.04863
0.336628
0.316891
0.316421
0.316523
0.317035
0.318633
0.323492
0.339726
0.409172
0.752251
1.53469
1.55479
1.45403
1.36997
1.17373
1.03293
0.985767
0.964543
0.981914
1.068
1.10897
1.11674
1.1161
1.10665
1.07043
0.336632
0.316924
0.316347
0.3164
0.31673
0.317773
0.3209
0.330725
0.367761
0.550559
1.09867
1.56323
1.4753
1.43511
1.27341
1.07145
0.99912
0.962385
0.961358
0.998428
1.08295
1.11011
1.11561
1.11411
1.10122
0.336634
0.316944
0.316298
0.316317
0.316522
0.317185
0.31915
0.325078
0.3455
0.43703
0.827087
1.53645
1.4839
1.46108
1.36884
1.15156
1.03551
0.968192
0.948304
0.9622
1.02577
1.091
1.111
1.11368
1.11114
0.336634
0.316954
0.316268
0.316266
0.316392
0.31681
0.318018
0.321515
0.33257
0.375904
0.601916
1.23435
1.47086
1.46536
1.41894
1.24863
1.07954
0.987721
0.948726
0.939308
0.960711
1.03857
1.09335
1.10959
1.11105
0.336634
0.316958
0.316253
0.316237
0.316316
0.316588
0.317338
0.319378
0.325389
0.346146
0.441327
0.821616
1.43034
1.4435
1.42519
1.33695
1.13973
1.02427
0.956545
0.929785
0.93344
0.962766
1.04491
1.09244
1.10746
0.336634
0.31696
0.316248
0.316223
0.316274
0.31647
0.316944
0.318109
0.321372
0.331626
0.37115
0.575664
1.14018
1.40116
1.4136
1.37656
1.22095
1.062
0.978938
0.933906
0.913198
0.923331
0.960547
1.04945
1.09211
0.336634
0.31696
0.316246
0.316218
0.316256
0.316418
0.316734
0.31741
0.319185
0.324324
0.341192
0.414465
0.728825
1.28834
1.38378
1.37217
1.29622
1.11732
1.00805
0.951228
0.915229
0.898756
0.911171
0.953825
1.04776
0.336634
0.31696
0.316246
0.316218
0.316254
0.316398
0.316682
0.317055
0.318098
0.320841
0.328435
0.354803
0.484592
0.881267
1.30733
1.35568
1.3164
1.18765
1.03997
0.971356
0.929884
0.897211
0.891744
0.903692
0.94814
0.336634
0.31696
0.316245
0.316218
0.316253
0.316394
0.316685
0.316938
0.317654
0.319237
0.322942
0.333364
0.37264
0.560624
0.991715
1.30433
1.31018
1.24222
1.07932
0.990773
0.947955
0.908598
0.880882
0.881156
0.894634
0.336633
0.31696
0.316245
0.316217
0.316253
0.316393
0.316684
0.316928
0.317538
0.318814
0.320637
0.325301
0.33935
0.392475
0.61159
1.0584
1.28331
1.24993
1.13121
1.00637
0.956054
0.927165
0.887861
0.868339
0.869255
0.336634
0.31696
0.316246
0.316217
0.316253
0.316393
0.316683
0.316927
0.317537
0.318811
0.319853
0.322612
0.329027
0.346195
0.409652
0.635223
1.0772
1.23442
1.15925
1.0225
0.956269
0.929352
0.903313
0.871663
0.857292
0.336633
0.31696
0.316245
0.316217
0.316253
0.316393
0.316683
0.316927
0.317536
0.318819
0.319795
0.321975
0.326424
0.333887
0.354059
0.421871
0.625639
1.02907
1.13847
1.03268
0.949943
0.92206
0.903494
0.879814
0.851666
0.336634
0.31696
0.316246
0.316217
0.316253
0.316393
0.316683
0.316927
0.317535
0.318818
0.31979
0.321949
0.326308
0.331389
0.343357
0.369202
0.430232
0.584135
0.833132
0.963273
0.929397
0.902719
0.894659
0.879473
0.853794
0.336633
0.31696
0.316245
0.316217
0.316253
0.316393
0.316683
0.316927
0.317536
0.318819
0.319791
0.32195
0.326307
0.331312
0.342631
0.363496
0.396854
0.46172
0.541556
0.629439
0.766326
0.853351
0.871882
0.871185
0.855356
0.336634
0.31696
0.316245
0.316217
0.316253
0.316393
0.316683
0.316927
0.317535
0.318818
0.31979
0.321948
0.326304
0.331307
0.342612
0.363235
0.395237
0.450835
0.50668
0.531125
0.561456
0.631235
0.763643
0.844413
0.845575
0.336633
0.31696
0.316245
0.316217
0.316253
0.316393
0.316683
0.316927
0.317536
0.318819
0.319791
0.32195
0.326307
0.331311
0.342628
0.363232
0.395239
0.450407
0.50432
0.523715
0.528114
0.541429
0.579102
0.665225
0.779707
0.336634
0.31696
0.316246
0.316217
0.316253
0.316393
0.316683
0.316927
0.317535
0.318818
0.31979
0.321949
0.326306
0.331305
0.342614
0.363239
0.395187
0.450369
0.504165
0.523319
0.524797
0.528256
0.539234
0.559574
0.597616
0.336634
0.31696
0.316245
0.316217
0.316253
0.316393
0.316683
0.316927
0.317536
0.318818
0.319791
0.321949
0.326306
0.33131
0.342623
0.363231
0.395231
0.450382
0.504132
0.523313
0.524534
0.526966
0.534732
0.54143
0.548491
0.336634
0.31696
0.316246
0.316217
0.316253
0.316393
0.316683
0.316927
0.317535
0.318818
0.31979
0.321949
0.326306
0.331305
0.342612
0.36324
0.395184
0.450365
0.504149
0.523322
0.524531
0.526886
0.534473
0.539358
0.540547
0.336634
0.31696
0.316246
0.316217
0.316253
0.316393
0.316683
0.316927
0.317535
0.318818
0.319791
0.32195
0.326306
0.331309
0.342621
0.363232
0.395224
0.45038
0.504142
0.523331
0.524534
0.526861
0.534422
0.539133
0.53943
0.336634
0.31696
0.316246
0.316218
0.316253
0.316393
0.316683
0.316927
0.317535
0.318817
0.31979
0.321948
0.326304
0.331305
0.342611
0.363209
0.395208
0.450314
0.504036
0.52324
0.524434
0.526734
0.534282
0.538971
0.539155
0.336634
0.31696
0.316246
0.316217
0.316253
0.316393
0.316683
0.316927
0.317535
0.318818
0.319791
0.321951
0.326307
0.331305
0.342617
0.363241
0.395197
0.450387
0.504167
0.523332
0.52454
0.526886
0.534468
0.539086
0.539249
0.336634
0.31696
0.316246
0.316218
0.316253
0.316393
0.316683
0.316927
0.317535
0.318817
0.31979
0.32195
0.326306
0.331303
0.34261
0.363245
0.395182
0.45038
0.504173
0.523336
0.524541
0.526889
0.534471
0.539076
0.539234
0.336634
0.31696
0.316246
0.316218
0.316253
0.316393
0.316683
0.316927
0.317534
0.318818
0.31979
0.321949
0.326306
0.331305
0.342607
0.36322
0.395197
0.450327
0.504067
0.523258
0.524441
0.526727
0.534257
0.538932
0.539102
0.336634
0.31696
0.316246
0.316218
0.316253
0.316393
0.316683
0.316927
0.317535
0.318817
0.31979
0.32195
0.326306
0.331302
0.342604
0.36325
0.395172
0.450373
0.50418
0.523347
0.524551
0.526897
0.534476
0.539075
0.539231
0.336634
0.31696
0.316246
0.316218
0.316253
0.316393
0.316683
0.316927
0.317535
0.318817
0.31979
0.321951
0.326306
0.331303
0.342611
0.363243
0.395188
0.450388
0.504179
0.523341
0.524547
0.526895
0.534478
0.539088
0.539248
0.336634
0.31696
0.316246
0.316218
0.316253
0.316393
0.316683
0.316927
0.317534
0.318817
0.31979
0.321949
0.326305
0.331301
0.342602
0.363222
0.395176
0.450323
0.504079
0.523266
0.524464
0.526781
0.534337
0.538968
0.539125
0.336634
0.31696
0.316246
0.316218
0.316253
0.316393
0.316683
0.316927
0.317535
0.318817
0.31979
0.321949
0.326305
0.331304
0.342611
0.363237
0.395202
0.450378
0.504157
0.523339
0.52454
0.526871
0.534441
0.539079
0.539246
0.336634
0.31696
0.316246
0.316218
0.316253
0.316393
0.316683
0.316927
0.317534
0.318817
0.31979
0.321949
0.326305
0.3313
0.342601
0.363221
0.395177
0.450331
0.504087
0.523269
0.524461
0.526769
0.534314
0.538953
0.539114
0.336634
0.31696
0.316246
0.316218
0.316253
0.316393
0.316683
0.316927
0.317535
0.318817
0.31979
0.32195
0.326306
0.331301
0.342607
0.363247
0.395176
0.450392
0.504192
0.523343
0.524545
0.526889
0.534466
0.53907
0.539229
0.336116
0.318111
0.319201
0.323444
0.33784
0.396345
0.671714
1.32692
1.73456
1.5009
1.37608
1.24741
1.14589
1.12342
1.14399
1.21697
1.21806