/*--------------------------------*- C++ -*----------------------------------*\
| =========                 |                                                 |
| \\      /  F ield         | OpenFOAM: The Open Source CFD Toolbox           |
|  \\    /   O peration     | Version:  4.1                                   |
|   \\  /    A nd           | Web:      www.OpenFOAM.org                      |
|    \\/     M anipulation  |                                                 |
\*---------------------------------------------------------------------------*/
FoamFile
{
    version     2.0;
    format      ascii;
    class       volVectorField;
    location    "0.52";
    object      U;
}
// * * * * * * * * * * * * * * * * * * * * * * * * * * * * * * * * * * * * * //

dimensions      [0 1 -1 0 0 0 0];

internalField   nonuniform List<vector> 
52500
(
(1.81655 8.85985e-06 -0.00217174)
(1.84229 7.2374e-05 -0.00201706)
(1.83916 0.000143939 -0.00204589)
(1.82157 0.000308225 -0.00216753)
(1.7404 0.000895049 -0.00266162)
(1.33028 0.00370789 -0.00490934)
(0.0926946 0.0178073 -0.0102393)
(-0.535999 0.0307769 -0.0122811)
(-0.234534 0.0244422 -0.0105223)
(-0.0902933 0.0254526 -0.00980462)
(-0.157489 0.0254314 -0.00888972)
(-0.158949 0.0237948 -0.00841071)
(-0.147545 0.0230528 -0.00838314)
(-0.143015 0.0234123 -0.00863175)
(-0.126683 0.0241492 -0.00889617)
(-0.106028 0.0251214 -0.00881858)
(-0.0774635 0.0258187 -0.00854253)
(-0.0490373 0.0266352 -0.00828749)
(-0.0166159 0.0272441 -0.00823942)
(0.0226653 0.0284061 -0.00819371)
(0.0571665 0.0295068 -0.00806042)
(0.0704028 0.0312187 -0.00791123)
(0.0933127 0.0326284 -0.00777214)
(0.0505969 0.0348508 -0.00760894)
(0.036465 0.035534 -0.00722819)
(1.81666 2.7499e-05 -0.00217134)
(1.84244 0.000224801 -0.00201585)
(1.83938 0.000447932 -0.00204406)
(1.82222 0.000963591 -0.00216285)
(1.74336 0.00281411 -0.00264357)
(1.34541 0.0117029 -0.00483741)
(0.113443 0.0549941 -0.0100935)
(-0.53482 0.0881086 -0.012248)
(-0.242394 0.0618588 -0.0104956)
(-0.08909 0.0615754 -0.00977506)
(-0.155874 0.0595181 -0.00886287)
(-0.157371 0.0549044 -0.00838098)
(-0.144986 0.0531237 -0.00834713)
(-0.139916 0.0537818 -0.00858597)
(-0.123395 0.054913 -0.00886115)
(-0.102933 0.0560689 -0.00878985)
(-0.0745252 0.0568195 -0.00851804)
(-0.0461434 0.0582107 -0.00825498)
(-0.0136794 0.0595496 -0.00820001)
(0.025662 0.0620986 -0.00815082)
(0.059965 0.0642347 -0.00802059)
(0.0730978 0.0679134 -0.0078736)
(0.0956303 0.0710255 -0.00773504)
(0.052318 0.0745728 -0.00757403)
(0.0372168 0.0760558 -0.00718879)
(1.81689 4.52272e-05 -0.00217051)
(1.84275 0.000372747 -0.00201333)
(1.83985 0.000742526 -0.00204024)
(1.82362 0.0015965 -0.00215301)
(1.74978 0.0046576 -0.00260542)
(1.37885 0.0193813 -0.00467982)
(0.164701 0.0906216 -0.00980256)
(-0.523802 0.152045 -0.01224)
(-0.254195 0.103235 -0.0104965)
(-0.0812442 0.102648 -0.00977151)
(-0.151072 0.100004 -0.00886134)
(-0.154057 0.0930923 -0.00835056)
(-0.140253 0.0909376 -0.00830129)
(-0.134954 0.0924451 -0.00852112)
(-0.118693 0.0946536 -0.00882138)
(-0.0984579 0.0968007 -0.0087651)
(-0.0698785 0.0981673 -0.00850183)
(-0.0413534 0.100458 -0.00822552)
(-0.00884458 0.103129 -0.00815947)
(0.0304534 0.107477 -0.00810757)
(0.064626 0.110558 -0.0079813)
(0.07799 0.115915 -0.00783914)
(0.0998087 0.120697 -0.0077019)
(0.0556949 0.125842 -0.00754664)
(0.0389452 0.128357 -0.0071577)
(1.81724 5.89637e-05 -0.00216931)
(1.84321 0.000491267 -0.00200967)
(1.84054 0.000976014 -0.00203473)
(1.82561 0.00208516 -0.00213888)
(1.75889 0.00602538 -0.00255095)
(1.42629 0.0248546 -0.00444596)
(0.246487 0.115069 -0.00936306)
(-0.504963 0.216147 -0.0122573)
(-0.274965 0.144884 -0.0105048)
(-0.0702479 0.142545 -0.00977706)
(-0.143364 0.139959 -0.00888157)
(-0.149146 0.130578 -0.00832622)
(-0.133814 0.127273 -0.00825654)
(-0.128098 0.129157 -0.0084542)
(-0.111892 0.132215 -0.00877974)
(-0.0918468 0.135759 -0.00874106)
(-0.0632516 0.138141 -0.00849102)
(-0.0343747 0.14146 -0.00819808)
(-0.0014591 0.145945 -0.0081153)
(0.0374942 0.152377 -0.00806024)
(0.0712336 0.156659 -0.00793924)
(0.0850419 0.164084 -0.00780287)
(0.106385 0.170732 -0.00767467)
(0.0614478 0.178553 -0.00752601)
(0.0418115 0.182346 -0.00713419)
(1.81766 6.8336e-05 -0.00216783)
(1.84378 0.000576551 -0.00200516)
(1.84136 0.00114134 -0.00202799)
(1.828 0.00241679 -0.00212196)
(1.76961 0.00687664 -0.00248592)
(1.48161 0.0277843 -0.00414662)
(0.356088 0.126338 -0.00881815)
(-0.475083 0.279607 -0.0122525)
(-0.304875 0.189302 -0.0105371)
(-0.0568064 0.181213 -0.00978032)
(-0.132811 0.180052 -0.00891016)
(-0.1431 0.16826 -0.00829948)
(-0.126203 0.163349 -0.00819421)
(-0.120073 0.165489 -0.00835473)
(-0.103953 0.169153 -0.00871991)
(-0.0836148 0.174051 -0.00871254)
(-0.0548837 0.177687 -0.00848219)
(-0.0252469 0.182002 -0.00817215)
(0.00835052 0.188746 -0.00806589)
(0.046605 0.196359 -0.00801125)
(0.0801188 0.202595 -0.00789612)
(0.0945886 0.212419 -0.00776368)
(0.115558 0.221495 -0.00764235)
(0.0697066 0.233124 -0.00750272)
(0.0458458 0.237878 -0.00710233)
(1.81814 7.30005e-05 -0.00216616)
(1.84441 0.000628323 -0.00200003)
(1.84228 0.00123909 -0.00202044)
(1.83058 0.00260005 -0.00210343)
(1.78089 0.00726452 -0.00241675)
(1.53863 0.0285396 -0.00382702)
(0.489426 0.12755 -0.00823559)
(-0.428391 0.340579 -0.0122151)
(-0.342718 0.23797 -0.0105751)
(-0.043364 0.218614 -0.00979772)
(-0.118701 0.220318 -0.00896038)
(-0.136045 0.20627 -0.00827806)
(-0.117668 0.199049 -0.00812673)
(-0.110707 0.201111 -0.00824733)
(-0.0946903 0.205599 -0.00864955)
(-0.0735862 0.211993 -0.00867893)
(-0.0447663 0.217203 -0.0084739)
(-0.0138685 0.222543 -0.00814656)
(0.0201785 0.231629 -0.00800933)
(0.0575183 0.239867 -0.00795887)
(0.0916356 0.2486 -0.00784916)
(0.106981 0.261235 -0.00772579)
(0.128228 0.273123 -0.00760788)
(0.0808495 0.289512 -0.00746328)
(0.0508307 0.297277 -0.00707108)
(1.81865 7.23016e-05 -0.00216437)
(1.84509 0.000645562 -0.00199455)
(1.84323 0.00126983 -0.00201249)
(1.8332 0.00264727 -0.00208431)
(1.792 0.00726808 -0.00234755)
(1.59395 0.0276324 -0.00351112)
(0.644825 0.123679 -0.00758647)
(-0.358565 0.393578 -0.0120344)
(-0.384861 0.293272 -0.01068)
(-0.0327846 0.254558 -0.00980951)
(-0.100259 0.260556 -0.00903324)
(-0.127688 0.244841 -0.00827015)
(-0.108456 0.234422 -0.00805542)
(-0.0999658 0.236006 -0.00812926)
(-0.0843493 0.241403 -0.00854753)
(-0.0618927 0.249332 -0.00863588)
(-0.0328373 0.256495 -0.0084663)
(-0.000237479 0.263178 -0.00811606)
(0.0338754 0.273865 -0.00794531)
(0.0703382 0.283522 -0.00789971)
(0.10605 0.294694 -0.00779771)
(0.122459 0.310885 -0.00767739)
(0.144559 0.326201 -0.00756261)
(0.0971903 0.347493 -0.00742918)
(0.0588658 0.361888 -0.00701594)
(1.81918 6.22869e-05 -0.00216254)
(1.84577 0.000623165 -0.00198893)
(1.84417 0.00123026 -0.00200447)
(1.83574 0.00256542 -0.00206554)
(1.80233 0.00695852 -0.00228268)
(1.64479 0.0254633 -0.00321406)
(0.832052 0.113836 -0.00678815)
(-0.262708 0.432023 -0.0117107)
(-0.423961 0.358316 -0.0108311)
(-0.0301906 0.289411 -0.00984684)
(-0.0765251 0.300598 -0.00912284)
(-0.117666 0.28387 -0.00828488)
(-0.0987554 0.269488 -0.00798508)
(-0.0877814 0.269883 -0.00801794)
(-0.072803 0.276425 -0.00841951)
(-0.0483469 0.285835 -0.00859032)
(-0.0189047 0.295101 -0.00845547)
(0.0155752 0.303563 -0.00809764)
(0.0495159 0.315028 -0.00787732)
(0.0854716 0.327197 -0.00783003)
(0.123549 0.341045 -0.00773489)
(0.141865 0.36135 -0.00762013)
(0.165288 0.381763 -0.00750324)
(0.119823 0.409827 -0.00737414)
(0.0712895 0.436068 -0.00693967)
(1.81968 4.48166e-05 -0.00216079)
(1.8464 0.000568786 -0.00198351)
(1.84504 0.00113392 -0.00199679)
(1.83809 0.00237839 -0.00204777)
(1.81152 0.00641621 -0.00222416)
(1.689 0.0226097 -0.00295454)
(1.04291 0.100629 -0.00598225)
(-0.140615 0.445558 -0.011189)
(-0.450988 0.433949 -0.0110069)
(-0.043148 0.324419 -0.00988406)
(-0.0471916 0.339742 -0.00922133)
(-0.105545 0.323498 -0.00832622)
(-0.0886863 0.304427 -0.00791684)
(-0.074109 0.302912 -0.00791073)
(-0.0598742 0.310485 -0.00825505)
(-0.0334658 0.321222 -0.00852856)
(-0.00302264 0.33293 -0.00842495)
(0.0333485 0.342579 -0.00809617)
(0.0673617 0.355042 -0.00781052)
(0.103511 0.370041 -0.00774889)
(0.144594 0.387347 -0.0076607)
(0.166246 0.412565 -0.00754694)
(0.192671 0.440956 -0.00742734)
(0.154078 0.480179 -0.0072914)
(0.0925948 0.530112 -0.00680178)
(1.82013 2.32308e-05 -0.00215926)
(1.84697 0.000494159 -0.00197854)
(1.84581 0.000999015 -0.00198968)
(1.84019 0.00211621 -0.00203127)
(1.81948 0.00570089 -0.00217168)
(1.72724 0.0194912 -0.00273091)
(1.24901 0.086721 -0.00521305)
(0.0237452 0.416953 -0.0103339)
(-0.452845 0.517436 -0.0112915)
(-0.0784137 0.362862 -0.00996411)
(-0.0124932 0.376158 -0.00932224)
(-0.0903617 0.363656 -0.00839924)
(-0.0782825 0.339618 -0.00786091)
(-0.0592005 0.335398 -0.00780427)
(-0.045735 0.342965 -0.00806163)
(-0.0172526 0.354994 -0.00845272)
(0.0143936 0.369846 -0.00837669)
(0.0524019 0.380293 -0.0081079)
(0.0878792 0.393363 -0.00774699)
(0.12488 0.411201 -0.00766635)
(0.169982 0.432676 -0.00758477)
(0.197642 0.463709 -0.00746637)
(0.230414 0.503797 -0.0073219)
(0.209628 0.563771 -0.00715446)
(0.131602 0.673774 -0.00654346)
(1.81654 8.94088e-06 -6.49364e-09)
(1.84228 7.2959e-05 -2.59511e-08)
(1.83915 0.000145136 -3.39207e-08)
(1.82154 0.000311025 -6.91823e-08)
(1.7403 0.00090436 -2.06679e-07)
(1.32977 0.00375235 -7.69115e-07)
(0.0920119 0.0180483 -2.12326e-06)
(-0.53622 0.0309199 9.93812e-07)
(-0.234405 0.0244828 3.17529e-07)
(-0.090454 0.0255004 -1.38692e-07)
(-0.157549 0.025408 1.99556e-07)
(-0.158898 0.0237804 2.514e-07)
(-0.147468 0.0230802 1.77285e-07)
(-0.142947 0.0234595 1.68199e-07)
(-0.126655 0.0241728 1.85896e-07)
(-0.106022 0.0251201 2.04976e-07)
(-0.077465 0.0258103 2.24064e-07)
(-0.0490386 0.026629 2.11699e-07)
(-0.0166096 0.0272364 1.91508e-07)
(0.0226741 0.0283959 1.3004e-07)
(0.0571783 0.0294942 9.55919e-08)
(0.0704147 0.0312044 6.95413e-08)
(0.0933229 0.032615 6.5127e-08)
(0.0506059 0.0348391 3.06819e-08)
(0.0364744 0.0355319 4.29462e-08)
(1.81665 2.75086e-05 -5.89812e-09)
(1.84243 0.000225016 -2.2059e-08)
(1.83937 0.000448399 -2.85602e-08)
(1.8222 0.00096475 -5.65219e-08)
(1.7433 0.00281811 -1.60792e-07)
(1.34516 0.0117214 -5.70613e-07)
(0.113366 0.0550575 -1.52434e-06)
(-0.534161 0.0880496 5.31038e-07)
(-0.241604 0.0617362 5.53599e-07)
(-0.0884952 0.0614279 -5.74093e-08)
(-0.155425 0.0593986 7.36751e-08)
(-0.156975 0.0548729 2.32058e-07)
(-0.144693 0.0531423 1.62437e-07)
(-0.139762 0.0538017 1.7878e-07)
(-0.123345 0.0549442 2.02665e-07)
(-0.102922 0.0561053 2.28178e-07)
(-0.0745235 0.0568433 2.47433e-07)
(-0.0461464 0.0582138 2.41587e-07)
(-0.0136794 0.0595385 2.1464e-07)
(0.025664 0.0620796 1.81502e-07)
(0.0599703 0.0642089 1.31675e-07)
(0.0731044 0.0678813 8.33426e-08)
(0.0956368 0.0709922 6.62758e-08)
(0.0523247 0.0745366 1.37532e-08)
(0.0372301 0.0760372 7.60721e-09)
(1.81689 4.52417e-05 -5.56789e-09)
(1.84275 0.000372679 -2.04094e-08)
(1.83985 0.000742364 -2.64876e-08)
(1.8236 0.00159589 -5.31254e-08)
(1.74969 0.00465457 -1.55244e-07)
(1.37844 0.019362 -5.84526e-07)
(0.164042 0.0905228 -1.57439e-06)
(-0.524013 0.151964 3.67631e-07)
(-0.254061 0.103183 5.06903e-07)
(-0.0814742 0.102527 1.21583e-07)
(-0.151342 0.0999841 1.48694e-07)
(-0.154261 0.0931953 2.52279e-07)
(-0.140422 0.0910691 2.14427e-07)
(-0.135046 0.0925348 2.1363e-07)
(-0.118746 0.0947172 2.24554e-07)
(-0.0985043 0.0968492 2.5402e-07)
(-0.0699232 0.0981948 2.73696e-07)
(-0.041387 0.100456 2.71125e-07)
(-0.00885809 0.10311 2.29979e-07)
(0.0304494 0.107449 1.94629e-07)
(0.0646289 0.11052 1.5793e-07)
(0.0779986 0.115867 1.05846e-07)
(0.0998187 0.120647 6.57038e-08)
(0.0557066 0.125785 -1.33165e-08)
(0.038958 0.128326 -4.6685e-08)
(1.81723 5.90714e-05 -5.22255e-09)
(1.84321 0.000491866 -1.86298e-08)
(1.84053 0.000977179 -2.43623e-08)
(1.8256 0.00208745 -4.96729e-08)
(1.7588 0.00603127 -1.48543e-07)
(1.42589 0.0248754 -5.96644e-07)
(0.245856 0.115151 -1.61472e-06)
(-0.505077 0.216097 1.93791e-07)
(-0.274769 0.144857 6.69391e-07)
(-0.0704967 0.142478 2.83807e-07)
(-0.143667 0.139939 1.08569e-07)
(-0.14942 0.130661 2.54574e-07)
(-0.134123 0.127405 2.57558e-07)
(-0.128374 0.129269 2.17983e-07)
(-0.112093 0.132289 2.42648e-07)
(-0.0919764 0.135784 2.83773e-07)
(-0.0633381 0.13814 3.14055e-07)
(-0.0344297 0.141438 2.82212e-07)
(-0.00148192 0.145912 2.63255e-07)
(0.0374844 0.152338 2.67815e-07)
(0.0712314 0.156609 2.18678e-07)
(0.0850511 0.164024 1.25071e-07)
(0.106397 0.170667 3.13946e-08)
(0.0614654 0.178476 -5.94847e-08)
(0.041823 0.182296 -1.11657e-07)
(1.81766 6.84583e-05 -4.86846e-09)
(1.84377 0.000577349 -1.66492e-08)
(1.84136 0.00114289 -2.17872e-08)
(1.82798 0.00241992 -4.42003e-08)
(1.76954 0.00688521 -1.32527e-07)
(1.48126 0.0278187 -5.39838e-07)
(0.355415 0.126488 -1.63158e-06)
(-0.475251 0.27962 7.71608e-08)
(-0.30471 0.189312 7.1705e-07)
(-0.0571212 0.181215 1.96001e-07)
(-0.133233 0.180077 7.59524e-08)
(-0.143505 0.168281 2.60462e-07)
(-0.126644 0.163351 3.27404e-07)
(-0.120444 0.165449 3.34473e-07)
(-0.10422 0.169107 3.24272e-07)
(-0.0837975 0.174003 3.20187e-07)
(-0.0549966 0.177645 3.32806e-07)
(-0.025314 0.181962 3.15048e-07)
(0.00832187 0.188694 3.01421e-07)
(0.0465917 0.196305 3.1389e-07)
(0.0801124 0.202531 2.6657e-07)
(0.0945958 0.212346 1.51481e-07)
(0.115567 0.221415 1.95214e-08)
(0.0697252 0.233032 -1.04955e-07)
(0.0458539 0.237811 -1.97696e-07)
(1.81814 7.3169e-05 -4.75084e-09)
(1.84441 0.00062929 -1.55404e-08)
(1.84227 0.00124096 -2.02312e-08)
(1.83057 0.00260383 -4.05776e-08)
(1.78084 0.00727477 -1.19163e-07)
(1.53836 0.0285798 -4.70488e-07)
(0.488755 0.127716 -1.53621e-06)
(-0.428605 0.340686 -2.90284e-07)
(-0.342536 0.238028 8.71971e-07)
(-0.0436587 0.218718 2.24062e-07)
(-0.119083 0.220435 8.64372e-09)
(-0.13644 0.206334 3.48788e-07)
(-0.118061 0.199033 2.67998e-07)
(-0.111018 0.201036 2.81455e-07)
(-0.0948949 0.205492 3.09629e-07)
(-0.0737312 0.211882 3.63684e-07)
(-0.0448625 0.217116 3.80346e-07)
(-0.0139406 0.222478 3.7684e-07)
(0.0201447 0.231562 3.60868e-07)
(0.0575034 0.239794 3.56645e-07)
(0.0916245 0.248522 3.16696e-07)
(0.106984 0.261147 1.81033e-07)
(0.128232 0.27303 2.13465e-08)
(0.0808696 0.289417 -1.46441e-07)
(0.0508376 0.29721 -2.76306e-07)
(1.81865 7.24458e-05 -4.26727e-09)
(1.84509 0.0006465 -1.39784e-08)
(1.84323 0.00127165 -1.80222e-08)
(1.83319 0.00265092 -3.55986e-08)
(1.79196 0.00727784 -1.05006e-07)
(1.59375 0.0276705 -4.35731e-07)
(0.64418 0.123836 -1.61264e-06)
(-0.358815 0.393786 -9.47161e-07)
(-0.38469 0.293348 1.22885e-06)
(-0.0328674 0.254695 7.37066e-08)
(-0.100516 0.26072 -1.22919e-07)
(-0.127891 0.244934 4.19752e-07)
(-0.108683 0.234437 3.23768e-07)
(-0.100154 0.235963 3.14177e-07)
(-0.0844771 0.241317 3.246e-07)
(-0.0619886 0.249213 3.50551e-07)
(-0.0328962 0.256372 3.91323e-07)
(-0.000294177 0.26308 4.02577e-07)
(0.0338433 0.273786 4.15187e-07)
(0.070322 0.283437 3.94009e-07)
(0.106036 0.294606 3.43571e-07)
(0.122459 0.310786 2.10853e-07)
(0.144566 0.326095 2.95162e-08)
(0.0972188 0.347395 -1.55842e-07)
(0.058873 0.36182 -2.95626e-07)
(1.81918 6.23264e-05 -3.92272e-09)
(1.84577 0.000623844 -1.20377e-08)
(1.84417 0.00123164 -1.56946e-08)
(1.83573 0.00256827 -3.11786e-08)
(1.80231 0.00696622 -8.94422e-08)
(1.64466 0.0254936 -3.50938e-07)
(0.831466 0.113972 -1.32861e-06)
(-0.262972 0.432313 -1.34249e-06)
(-0.423786 0.358439 1.17015e-06)
(-0.0300728 0.289599 -1.71661e-07)
(-0.0765457 0.300747 -1.69242e-07)
(-0.117637 0.283939 4.08739e-07)
(-0.0987916 0.269486 3.48109e-07)
(-0.0878381 0.269814 3.3949e-07)
(-0.0728637 0.276313 3.56112e-07)
(-0.0484124 0.285702 3.73306e-07)
(-0.0189401 0.294963 3.89089e-07)
(0.0155492 0.303439 4.25869e-07)
(0.0494971 0.314936 4.42453e-07)
(0.0854555 0.327102 4.36451e-07)
(0.12353 0.340949 3.66056e-07)
(0.141859 0.361245 2.20593e-07)
(0.165294 0.381648 6.17136e-08)
(0.119858 0.409713 -1.695e-07)
(0.0712993 0.435989 -3.19504e-07)
(1.81968 4.47734e-05 -3.85249e-09)
(1.8464 0.000569134 -9.41092e-09)
(1.84504 0.00113471 -1.23092e-08)
(1.83808 0.00238024 -2.45305e-08)
(1.8115 0.00642175 -6.98632e-08)
(1.68892 0.0226317 -2.63521e-07)
(1.04245 0.100729 -1.0264e-06)
(-0.140872 0.44588 -2.00983e-06)
(-0.450835 0.434088 1.05282e-06)
(-0.042935 0.324625 -3.42197e-07)
(-0.0470693 0.339934 -3.47079e-07)
(-0.105375 0.323581 2.57897e-07)
(-0.0885926 0.304412 2.99894e-07)
(-0.074058 0.302813 2.96768e-07)
(-0.0598494 0.310332 3.14031e-07)
(-0.0334574 0.321065 3.75609e-07)
(-0.00301637 0.332791 4.1267e-07)
(0.033353 0.342452 4.46491e-07)
(0.0673556 0.354945 4.59369e-07)
(0.103497 0.36994 4.41824e-07)
(0.144576 0.387246 3.76606e-07)
(0.166234 0.412458 2.32023e-07)
(0.192671 0.440834 9.26352e-08)
(0.154112 0.48005 -1.82148e-07)
(0.0926098 0.530022 -3.48283e-07)
(1.82013 2.317e-05 -3.78916e-09)
(1.84697 0.0004943 -7.50616e-09)
(1.84581 0.000999399 -9.6467e-09)
(1.84019 0.00211725 -1.86596e-08)
(1.81947 0.00570425 -5.1927e-08)
(1.72719 0.0195047 -1.87117e-07)
(1.24871 0.0867857 -7.7908e-07)
(0.0234607 0.417258 -2.29354e-06)
(-0.452761 0.517568 6.50797e-07)
(-0.0781547 0.363041 8.69866e-08)
(-0.0123034 0.376432 -2.55408e-07)
(-0.0901567 0.363779 1.71637e-07)
(-0.0781269 0.339619 2.35668e-07)
(-0.0590739 0.335316 2.32337e-07)
(-0.0456428 0.342824 2.48242e-07)
(-0.0171832 0.354846 3.10447e-07)
(0.0144372 0.369712 3.7602e-07)
(0.0524283 0.380179 4.37942e-07)
(0.0878838 0.393263 4.65287e-07)
(0.124867 0.411108 4.46772e-07)
(0.169965 0.432581 4.0243e-07)
(0.197624 0.463603 2.56291e-07)
(0.230403 0.503679 6.39537e-08)
(0.209654 0.563636 -1.78605e-07)
(0.131623 0.67368 -3.84357e-07)
(1.81654 8.90085e-06 2.19746e-09)
(1.84228 7.26468e-05 1.78022e-08)
(1.83915 0.000144483 2.43004e-08)
(1.82156 0.000309399 5.34344e-08)
(1.74035 0.000898578 1.68612e-07)
(1.33003 0.0037233 6.49472e-07)
(0.0923884 0.0178854 1.85411e-06)
(-0.536094 0.0308273 -7.73468e-07)
(-0.234539 0.0244599 -8.10929e-07)
(-0.0905328 0.0254893 -4.01285e-07)
(-0.157695 0.0254229 5.75413e-08)
(-0.159114 0.0237632 -7.86473e-11)
(-0.147701 0.0230211 -1.9236e-09)
(-0.143132 0.0233837 -4.13456e-09)
(-0.126773 0.0241241 4.61094e-08)
(-0.106086 0.0250992 8.07663e-08)
(-0.0775091 0.025801 1.27395e-07)
(-0.049074 0.0266235 1.51684e-07)
(-0.0166368 0.0272355 1.50808e-07)
(0.0226531 0.0283978 8.69069e-08)
(0.0571659 0.0294968 2.22376e-08)
(0.0704098 0.0312073 -9.91446e-08)
(0.0933265 0.0326179 -2.54054e-07)
(0.0506143 0.0348419 -4.94875e-07)
(0.0364797 0.0355346 -5.48684e-07)
(1.81665 2.7572e-05 1.64982e-09)
(1.84243 0.00022522 1.33513e-08)
(1.83938 0.000448757 1.74153e-08)
(1.82221 0.000965286 3.38089e-08)
(1.74332 0.00281876 8.89873e-08)
(1.34524 0.011721 2.56668e-07)
(0.113295 0.0550683 3.62616e-07)
(-0.534671 0.0881339 2.11103e-09)
(-0.242183 0.0618576 -1.0924e-06)
(-0.0890483 0.0616088 -1.72917e-07)
(-0.155874 0.0595151 3.36524e-07)
(-0.157373 0.0548779 2.94513e-10)
(-0.145005 0.0530969 -7.24977e-09)
(-0.139941 0.0537566 -4.64556e-08)
(-0.123428 0.0548881 4.25887e-08)
(-0.102964 0.0560477 9.58595e-08)
(-0.0745576 0.0568019 1.43836e-07)
(-0.0461759 0.0581991 1.62063e-07)
(-0.0137031 0.0595379 1.40814e-07)
(0.0256444 0.0620836 1.23264e-07)
(0.0599581 0.0642151 2.88997e-08)
(0.0730997 0.0678875 -1.05148e-07)
(0.0956405 0.0709987 -2.52312e-07)
(0.0523332 0.0745431 -4.89736e-07)
(0.0372354 0.0760431 -5.50391e-07)
(1.81689 4.52847e-05 2.91357e-09)
(1.84275 0.000373042 2.0088e-08)
(1.83985 0.000743094 2.67524e-08)
(1.82361 0.00159756 5.6191e-08)
(1.74974 0.00465997 1.70782e-07)
(1.37868 0.0193878 6.6283e-07)
(0.164453 0.0906434 1.88725e-06)
(-0.523791 0.152056 -5.18754e-07)
(-0.254039 0.103254 -3.85376e-07)
(-0.0812196 0.102691 -6.5884e-08)
(-0.151085 0.100026 -1.76581e-07)
(-0.154055 0.0930911 -1.05192e-07)
(-0.14026 0.0909281 -3.83629e-08)
(-0.134965 0.0924245 6.4944e-08)
(-0.11871 0.0946312 7.60028e-08)
(-0.0984781 0.09678 1.05816e-07)
(-0.0699052 0.0981474 1.37006e-07)
(-0.041384 0.100442 1.63487e-07)
(-0.00887059 0.103112 1.49115e-07)
(0.030434 0.107457 1.20578e-07)
(0.0646186 0.11053 3.2541e-08)
(0.0779944 0.115878 -1.08682e-07)
(0.0998227 0.120658 -2.61213e-07)
(0.0557154 0.125796 -4.8359e-07)
(0.038963 0.128335 -5.60727e-07)
(1.81723 5.90191e-05 2.30753e-09)
(1.84321 0.000491569 1.92478e-08)
(1.84053 0.000976593 2.61082e-08)
(1.82561 0.00208628 5.65717e-08)
(1.75885 0.00602824 1.77089e-07)
(1.42612 0.0248647 7.37216e-07)
(0.246218 0.115109 2.11456e-06)
(-0.504962 0.216154 -6.11588e-07)
(-0.274782 0.144911 -4.23471e-07)
(-0.0701818 0.142609 3.31749e-07)
(-0.143349 0.140003 -2.31307e-07)
(-0.149112 0.1306 -3.21527e-07)
(-0.133792 0.127296 -1.68499e-07)
(-0.128083 0.129174 -9.769e-08)
(-0.11189 0.13222 2.95318e-08)
(-0.0918589 0.135745 1.01563e-07)
(-0.0632753 0.138115 1.37509e-07)
(-0.0344045 0.141434 1.61147e-07)
(-0.00148424 0.145922 1.56727e-07)
(0.0374738 0.152353 1.3836e-07)
(0.0712223 0.156625 4.9088e-08)
(0.0850473 0.16404 -1.09351e-07)
(0.106401 0.170683 -2.66045e-07)
(0.0614742 0.178492 -4.74203e-07)
(0.0418276 0.182309 -5.78136e-07)
(1.81766 6.83736e-05 2.08187e-09)
(1.84377 0.000576786 1.56916e-08)
(1.84136 0.00114179 2.12894e-08)
(1.82799 0.00241771 4.5865e-08)
(1.76958 0.00687923 1.43948e-07)
(1.48146 0.0277953 6.07194e-07)
(0.355802 0.126386 1.94177e-06)
(-0.475093 0.279606 -2.92122e-07)
(-0.304682 0.189327 -4.67501e-07)
(-0.0567212 0.181264 5.18546e-07)
(-0.132809 0.180109 -2.03509e-07)
(-0.143091 0.168288 -3.58286e-07)
(-0.126211 0.163368 -1.59543e-07)
(-0.120112 0.165488 -6.73034e-08)
(-0.104 0.169134 6.91557e-08)
(-0.0836551 0.174024 1.26603e-07)
(-0.0549144 0.177656 1.50596e-07)
(-0.0252715 0.181974 1.65856e-07)
(0.00832874 0.188717 1.64662e-07)
(0.046583 0.196327 1.37595e-07)
(0.0801036 0.202554 5.06167e-08)
(0.0945925 0.212367 -1.05872e-07)
(0.115571 0.221437 -2.71654e-07)
(0.0697339 0.233052 -4.67765e-07)
(0.0458578 0.237828 -5.9445e-07)
(1.81814 7.30419e-05 1.36718e-09)
(1.84441 0.000628513 1.16229e-08)
(1.84228 0.00123945 1.58851e-08)
(1.83057 0.00260082 3.45831e-08)
(1.78087 0.0072668 1.0816e-07)
(1.53851 0.0285495 4.47675e-07)
(0.489117 0.127589 1.55009e-06)
(-0.428455 0.340567 2.94489e-07)
(-0.342553 0.23799 -5.9572e-07)
(-0.0433324 0.218658 4.68892e-07)
(-0.118735 0.220406 -1.37527e-07)
(-0.136107 0.206337 -3.2775e-07)
(-0.117719 0.199058 -1.21735e-07)
(-0.110758 0.201078 -3.75103e-08)
(-0.0947219 0.205551 8.88885e-08)
(-0.0736113 0.211948 1.52225e-07)
(-0.0447917 0.217168 1.56566e-07)
(-0.0138967 0.222517 1.76538e-07)
(0.0201519 0.231597 1.78613e-07)
(0.0574936 0.239825 1.46735e-07)
(0.0916154 0.248552 4.89659e-08)
(0.10698 0.261174 -1.00446e-07)
(0.128235 0.273056 -2.66774e-07)
(0.0808769 0.28944 -4.60648e-07)
(0.0508403 0.297229 -5.99508e-07)
(1.81865 7.235e-05 9.65548e-10)
(1.84509 0.000645817 7.7369e-09)
(1.84323 0.00127031 1.054e-08)
(1.8332 0.00264823 2.29387e-08)
(1.79198 0.00727069 7.28581e-08)
(1.59384 0.0276431 3.18567e-07)
(0.644472 0.123719 1.23896e-06)
(-0.358708 0.393582 8.42033e-07)
(-0.384754 0.293273 -6.7481e-07)
(-0.0327261 0.25455 4.68064e-07)
(-0.100364 0.260628 6.58117e-08)
(-0.127763 0.244916 -2.65231e-07)
(-0.108524 0.234455 -8.54138e-08)
(-0.100014 0.236003 -2.26961e-08)
(-0.0843755 0.241378 1.12242e-07)
(-0.0619137 0.249291 1.50209e-07)
(-0.0328551 0.25645 1.64699e-07)
(-0.000267428 0.263144 1.87576e-07)
(0.0338415 0.273829 1.75473e-07)
(0.0703093 0.283475 1.49971e-07)
(0.106024 0.294642 5.07524e-08)
(0.122453 0.310818 -9.2316e-08)
(0.144566 0.326125 -2.58491e-07)
(0.097224 0.347419 -4.54266e-07)
(0.0588755 0.361841 -5.93025e-07)
(1.81918 6.22712e-05 4.90753e-10)
(1.84577 0.000623419 4.57545e-09)
(1.84417 0.00123082 6.40545e-09)
(1.83573 0.00256658 1.43827e-08)
(1.80231 0.00696164 4.54059e-08)
(1.6447 0.0254758 1.92295e-07)
(0.831671 0.11389 7.89552e-07)
(-0.262895 0.432094 9.10898e-07)
(-0.423874 0.358324 -4.47409e-07)
(-0.0300982 0.289417 4.24121e-07)
(-0.0765687 0.3006 1.92067e-07)
(-0.11768 0.283904 -1.53899e-07)
(-0.0987937 0.269512 -2.77832e-08)
(-0.087823 0.269877 2.56397e-08)
(-0.0728348 0.276392 8.87411e-08)
(-0.0483763 0.285792 1.32218e-07)
(-0.0189238 0.29505 1.58779e-07)
(0.0155502 0.303513 1.97755e-07)
(0.0494813 0.314986 1.83878e-07)
(0.0854385 0.327146 1.45573e-07)
(0.123515 0.34099 5.0558e-08)
(0.141849 0.361281 -8.50857e-08)
(0.16529 0.381681 -2.42249e-07)
(0.11986 0.409742 -4.38981e-07)
(0.0713011 0.436012 -5.79257e-07)
(1.81968 4.47699e-05 8.55655e-11)
(1.8464 0.00056896 2.05652e-09)
(1.84504 0.00113435 3.06382e-09)
(1.83808 0.00237942 7.50886e-09)
(1.8115 0.00641932 2.49295e-08)
(1.68894 0.022622 1.05371e-07)
(1.04256 0.100682 4.63605e-07)
(-0.140803 0.445693 1.02534e-06)
(-0.450918 0.433952 -2.83124e-07)
(-0.0430445 0.324458 2.14918e-07)
(-0.0471759 0.339763 2.00969e-07)
(-0.105498 0.323525 -1.75914e-08)
(-0.0886883 0.304432 2.57391e-08)
(-0.0741283 0.302881 5.28069e-08)
(-0.059884 0.310424 8.37375e-08)
(-0.0334789 0.321156 1.25713e-07)
(-0.00303973 0.332872 1.31978e-07)
(0.0333281 0.342521 1.8977e-07)
(0.0673278 0.354997 1.77893e-07)
(0.103476 0.369986 1.28091e-07)
(0.144558 0.387288 4.70024e-08)
(0.166221 0.412497 -6.87027e-08)
(0.192664 0.44087 -2.15557e-07)
(0.15411 0.480081 -4.0984e-07)
(0.0926102 0.530046 -5.52735e-07)
(1.82013 2.31601e-05 -2.56788e-11)
(1.84697 0.000494229 5.75863e-10)
(1.84581 0.000999261 9.79293e-10)
(1.84019 0.00211692 2.87004e-09)
(1.81947 0.00570318 1.07078e-08)
(1.7272 0.0195002 4.71467e-08)
(1.24875 0.0867619 2.40016e-07)
(0.0235122 0.417125 8.26138e-07)
(-0.45282 0.517434 -6.98721e-08)
(-0.0782798 0.362908 3.05859e-08)
(-0.0124326 0.376265 2.03932e-07)
(-0.0902859 0.363703 1.07637e-07)
(-0.0782474 0.339621 7.98242e-08)
(-0.0591768 0.335366 7.46297e-08)
(-0.0457052 0.342902 7.54059e-08)
(-0.017225 0.354921 9.80704e-08)
(0.0143995 0.369778 9.80233e-08)
(0.0523909 0.380239 1.89303e-07)
(0.0878476 0.393318 1.70122e-07)
(0.124841 0.411153 1.12428e-07)
(0.169944 0.43262 4.08983e-08)
(0.197609 0.46364 -5.40421e-08)
(0.230393 0.503712 -1.79277e-07)
(0.209649 0.563669 -3.56887e-07)
(0.131622 0.673706 -5.05671e-07)
(1.81654 8.9084e-06 -1.7841e-10)
(1.84228 7.26912e-05 -7.95653e-10)
(1.83915 0.000144572 -7.86479e-10)
(1.82155 0.0003096 -3.27062e-10)
(1.74034 0.000899217 3.92215e-09)
(1.32999 0.00372622 4.23713e-08)
(0.0923389 0.0179006 2.12344e-07)
(-0.536116 0.030837 1.84849e-07)
(-0.234541 0.0244622 5.29573e-08)
(-0.0905551 0.0254958 -1.27452e-08)
(-0.157705 0.0254275 -5.22797e-08)
(-0.159117 0.0237723 -4.78573e-08)
(-0.147703 0.0230332 -4.71073e-08)
(-0.143139 0.0233935 -5.10506e-08)
(-0.126785 0.0241281 -5.32385e-08)
(-0.106099 0.0250987 -5.59811e-08)
(-0.0775211 0.0257979 -6.33084e-08)
(-0.0490842 0.02662 -6.14812e-08)
(-0.0166451 0.0272317 -4.13263e-08)
(0.0226456 0.0283944 -3.59514e-08)
(0.0571624 0.0294934 -4.24198e-08)
(0.0704069 0.0312042 -8.2009e-08)
(0.093325 0.032615 -1.50809e-07)
(0.050617 0.0348391 -2.5394e-07)
(0.0364808 0.035532 -2.98087e-07)
(1.81665 2.75704e-05 -8.54276e-11)
(1.84243 0.000225247 -2.15843e-10)
(1.83938 0.000448817 4.5764e-11)
(1.82221 0.000965446 1.71363e-09)
(1.74332 0.00281936 1.10776e-08)
(1.34522 0.0117239 7.57008e-08)
(0.113279 0.055081 3.49346e-07)
(-0.534645 0.0881319 1.32463e-07)
(-0.242146 0.0618418 7.08559e-08)
(-0.0890257 0.0615905 -5.107e-08)
(-0.155857 0.0594933 -9.88841e-08)
(-0.157357 0.0548673 -5.25524e-08)
(-0.144996 0.0530973 -3.52155e-08)
(-0.139944 0.0537596 -3.65421e-08)
(-0.12344 0.0548935 -4.14771e-08)
(-0.102978 0.0560519 -4.01896e-08)
(-0.07457 0.0568021 -4.71221e-08)
(-0.0461866 0.0581956 -4.84993e-08)
(-0.0137117 0.0595315 -4.65898e-08)
(0.0256371 0.0620769 -2.33696e-08)
(0.0599547 0.0642077 -4.62814e-08)
(0.073097 0.0678805 -8.58967e-08)
(0.0956391 0.0709921 -1.5186e-07)
(0.0523359 0.0745365 -2.51898e-07)
(0.0372365 0.076037 -2.85529e-07)
(1.81689 4.52815e-05 -1.04392e-10)
(1.84275 0.000373028 -2.27735e-12)
(1.83985 0.00074307 3.5038e-10)
(1.82361 0.00159754 2.4502e-09)
(1.74973 0.00466008 1.36165e-08)
(1.37865 0.0193887 8.68111e-08)
(0.164419 0.0906488 3.67851e-07)
(-0.523791 0.152057 1.30452e-07)
(-0.254016 0.103252 2.54486e-08)
(-0.0812067 0.102679 -1.21471e-07)
(-0.151074 0.100032 -1.38245e-07)
(-0.154043 0.0931267 -6.53602e-08)
(-0.140257 0.0909773 -3.5899e-08)
(-0.134972 0.0924702 -3.06464e-08)
(-0.118724 0.0946577 -2.51159e-08)
(-0.0984957 0.0967902 -1.62596e-08)
(-0.0699234 0.0981463 -1.39337e-08)
(-0.0413994 0.100434 -1.88898e-08)
(-0.00888159 0.103102 -2.96764e-08)
(0.0304261 0.107447 -2.26594e-08)
(0.064615 0.110519 -4.13928e-08)
(0.0779921 0.115866 -8.5519e-08)
(0.0998214 0.120647 -1.53243e-07)
(0.0557182 0.125785 -2.52147e-07)
(0.0389642 0.128326 -2.79794e-07)
(1.81723 5.90016e-05 -5.69448e-11)
(1.84321 0.000491484 3.36235e-10)
(1.84053 0.000976424 9.32585e-10)
(1.82561 0.00208595 4.14984e-09)
(1.75885 0.00602745 1.98846e-08)
(1.42611 0.024862 1.16931e-07)
(0.246197 0.115096 4.28161e-07)
(-0.504938 0.216136 1.19719e-07)
(-0.274764 0.144912 -3.62902e-08)
(-0.0702108 0.142592 -2.32119e-07)
(-0.143399 0.140017 -6.65554e-08)
(-0.149182 0.130642 -2.93914e-09)
(-0.133883 0.127327 -3.92312e-08)
(-0.128188 0.129183 3.60286e-08)
(-0.11197 0.132223 7.03688e-09)
(-0.0919093 0.135741 4.09971e-09)
(-0.0633068 0.138108 5.07259e-09)
(-0.0344225 0.141423 -1.36298e-08)
(-0.00149511 0.145909 -2.07776e-08)
(0.0374652 0.15234 -9.64296e-09)
(0.071218 0.15661 -3.72085e-08)
(0.0850452 0.164025 -8.72282e-08)
(0.1064 0.170668 -1.49514e-07)
(0.061477 0.178478 -2.44604e-07)
(0.0418291 0.182295 -2.84224e-07)
(1.81766 6.83886e-05 -2.60658e-10)
(1.84377 0.000576817 -5.59271e-11)
(1.84136 0.00114183 3.2425e-10)
(1.82799 0.00241773 2.27842e-09)
(1.76957 0.00687913 1.16192e-08)
(1.48143 0.0277943 6.70775e-08)
(0.35574 0.12638 2.57867e-07)
(-0.475158 0.279598 2.16365e-07)
(-0.304743 0.189348 -1.0987e-07)
(-0.0568865 0.181275 -2.05569e-07)
(-0.132989 0.180138 4.47574e-08)
(-0.143275 0.168309 5.07467e-08)
(-0.126393 0.16335 -8.01089e-08)
(-0.120239 0.165438 -7.27812e-08)
(-0.104078 0.169092 -2.44466e-08)
(-0.0837094 0.173994 5.70199e-09)
(-0.0549496 0.177639 2.00163e-08)
(-0.0252958 0.18196 4.60572e-09)
(0.00831465 0.1887 -1.17946e-08)
(0.0465743 0.19631 -2.00203e-09)
(0.0800984 0.202536 -3.83973e-08)
(0.0945901 0.21235 -8.75593e-08)
(0.11557 0.221419 -1.48744e-07)