/*--------------------------------*- C++ -*----------------------------------*\
| =========                 |                                                 |
| \\      /  F ield         | OpenFOAM: The Open Source CFD Toolbox           |
|  \\    /   O peration     | Version:  4.1                                   |
|   \\  /    A nd           | Web:      www.OpenFOAM.org                      |
|    \\/     M anipulation  |                                                 |
\*---------------------------------------------------------------------------*/
FoamFile
{
    version     2.0;
    format      ascii;
    class       volScalarField;
    location    "8.24";
    object      p;
}
// * * * * * * * * * * * * * * * * * * * * * * * * * * * * * * * * * * * * * //

dimensions      [1 -1 -2 0 0 0 0];

internalField   nonuniform List<scalar> 
52500
(
1.00001
1.00004
1.00013
1.00028
1.00081
1.00166
1.00473
1.00946
1.02828
1.0527
1.18098
1.33901
2.23755
4.01612
9.75326
11.4119
11.2352
11.1345
11.2135
11.4309
11.6675
11.8209
11.9376
12.031
12.1044
1.00001
1.00004
1.00013
1.00028
1.0008
1.00164
1.00468
1.00936
1.02798
1.05208
1.1793
1.33467
2.22558
3.98179
9.67141
11.4055
11.2268
11.1223
11.2023
11.4207
11.657
11.8104
11.9289
12.0239
12.0989
1.00001
1.00004
1.00012
1.00027
1.00078
1.00161
1.00458
1.00914
1.02738
1.05083
1.17576
1.32578
2.19992
3.90841
9.4894
11.3914
11.2055
11.0883
11.1674
11.384
11.6172
11.7674
11.885
11.9788
12.0529
1.00001
1.00003
1.00012
1.00026
1.00076
1.00155
1.00442
1.00881
1.02645
1.04895
1.17033
1.31246
2.16049
3.79664
9.20494
11.375
11.1745
11.0336
11.1095
11.3202
11.5472
11.6918
11.8051
11.8957
11.9694
1.00001
1.00003
1.00011
1.00025
1.00072
1.00146
1.00419
1.00829
1.02526
1.04577
1.16382
1.29423
2.10816
3.64687
8.81402
11.3588
11.1347
10.9598
11.031
11.233
11.4508
11.5867
11.6937
11.7799
11.8538
1.00001
1.00003
1.00011
1.00023
1.00067
1.00137
1.00392
1.00772
1.02374
1.04252
1.15414
1.2724
2.04562
3.45556
8.31366
11.3471
11.0876
10.8671
10.9316
11.1205
11.3253
11.4486
11.5442
11.6215
11.6953
1.00001
1.00003
1.0001
1.00021
1.00062
1.00127
1.00362
1.00714
1.02195
1.03927
1.1423
1.24968
1.95896
3.23034
7.6921
11.3443
11.0391
10.7586
10.8138
10.9835
11.1689
11.2719
11.3478
11.4064
11.4721
1.00001
1.00003
1.00009
1.0002
1.00057
1.00117
1.00333
1.00667
1.01987
1.03694
1.12691
1.22838
1.84783
2.97636
6.94721
11.3378
10.9916
10.6374
10.6803
10.8232
10.9805
11.0528
11.0945
11.1149
11.1525
1
1.00002
1.00008
1.00018
1.00051
1.00106
1.003
1.00607
1.01762
1.03438
1.10952
1.20586
1.72758
2.70242
6.1029
11.2862
10.9305
10.51
10.5348
10.6381
10.7561
10.7842
10.7712
10.7138
10.6563
1
1.00002
1.00007
1.00015
1.00045
1.00093
1.00264
1.00532
1.01542
1.03036
1.09438
1.18274
1.61689
2.44739
5.30964
11.0447
10.8001
10.3928
10.3785
10.4289
10.4903
10.4671
10.3711
10.1509
9.81742
1.00001
1.00004
1.00013
1.00029
1.00082
1.00167
1.00474
1.00947
1.02829
1.05272
1.181
1.33909
2.23763
4.01646
9.75391
11.4119
11.2352
11.1346
11.2137
11.431
11.6676
11.821
11.9378
12.0311
12.1045
1.00001
1.00004
1.00013
1.00028
1.00081
1.00165
1.00469
1.00937
1.02799
1.05211
1.17932
1.33475
2.22566
3.98213
9.67207
11.4055
11.2269
11.1224
11.2024
11.4208
11.6572
11.8106
11.9291
12.024
12.099
1.00001
1.00004
1.00013
1.00028
1.00079
1.00161
1.00459
1.00915
1.02739
1.05085
1.17578
1.32586
2.2
3.90875
9.49007
11.3914
11.2055
11.0885
11.1675
11.3841
11.6173
11.7675
11.8851
11.9789
12.053
1.00001
1.00004
1.00012
1.00027
1.00076
1.00156
1.00443
1.00882
1.02646
1.04897
1.17035
1.31254
2.16057
3.79698
9.20563
11.375
11.1745
11.0337
11.1096
11.3203
11.5474
11.6919
11.8053
11.8958
11.9696
1.00001
1.00004
1.00012
1.00025
1.00072
1.00147
1.00419
1.0083
1.02527
1.04581
1.16383
1.29433
2.10823
3.64721
8.81474
11.3587
11.1348
10.9599
11.0311
11.2331
11.4509
11.5868
11.6938
11.78
11.8539
1.00001
1.00003
1.00011
1.00024
1.00067
1.00138
1.00392
1.00773
1.02375
1.04254
1.15417
1.27246
2.04572
3.4559
8.31441
11.347
11.0876
10.8672
10.9317
11.1206
11.3254
11.4487
11.5443
11.6216
11.6954
1.00001
1.00003
1.0001
1.00022
1.00062
1.00127
1.00363
1.00715
1.02196
1.03929
1.14233
1.24974
1.95906
3.23068
7.69289
11.3442
11.0391
10.7587
10.8139
10.9836
11.169
11.272
11.3479
11.4065
11.4722
1.00001
1.00003
1.00009
1.0002
1.00058
1.00118
1.00334
1.00668
1.01988
1.03697
1.12691
1.22846
1.84789
2.97668
6.94799
11.3377
10.9916
10.6375
10.6804
10.8233
10.9806
11.0529
11.0946
11.115
11.1526
1.00001
1.00003
1.00008
1.00018
1.00052
1.00107
1.00301
1.00608
1.01763
1.0344
1.10954
1.20592
1.72766
2.7027
6.10364
11.2862
10.9306
10.5101
10.5349
10.6382
10.7562
10.7843
10.7712
10.7139
10.6564
1.00001
1.00002
1.00007
1.00016
1.00046
1.00093
1.00264
1.00533
1.01543
1.03037
1.0944
1.18279
1.61694
2.4476
5.31008
11.0451
10.8002
10.3929
10.3786
10.429
10.4904
10.4672
10.3712
10.151
9.81748
1.00001
1.00004
1.00013
1.00029
1.00082
1.00167
1.00474
1.00947
1.02829
1.05272
1.181
1.3391
2.23764
4.01648
9.75397
11.4119
11.2353
11.1346
11.2137
11.431
11.6676
11.821
11.9378
12.0312
12.1046
1.00001
1.00004
1.00013
1.00028
1.00081
1.00165
1.00469
1.00937
1.02799
1.05211
1.17932
1.33475
2.22567
3.98215
9.67213
11.4055
11.2269
11.1224
11.2024
11.4208
11.6572
11.8106
11.9291
12.024
12.099
1.00001
1.00004
1.00013
1.00028
1.00079
1.00161
1.00459
1.00915
1.02739
1.05085
1.17578
1.32587
2.20001
3.90878
9.49013
11.3914
11.2055
11.0885
11.1675
11.3841
11.6173
11.7676
11.8851
11.9789
12.053
1.00001
1.00004
1.00012
1.00027
1.00076
1.00156
1.00443
1.00883
1.02646
1.04897
1.17035
1.31254
2.16058
3.797
9.2057
11.375
11.1745
11.0337
11.1096
11.3203
11.5474
11.6919
11.8053
11.8958
11.9696
1.00001
1.00004
1.00012
1.00025
1.00072
1.00147
1.00419
1.0083
1.02527
1.04581
1.16383
1.29433
2.10824
3.64724
8.8148
11.3587
11.1348
10.9599
11.0311
11.2331
11.4509
11.5868
11.6939
11.78
11.8539
1.00001
1.00003
1.00011
1.00024
1.00067
1.00138
1.00392
1.00773
1.02375
1.04254
1.15417
1.27246
2.04573
3.45593
8.31448
11.347
11.0876
10.8672
10.9317
11.1206
11.3254
11.4487
11.5443
11.6216
11.6954
1.00001
1.00003
1.0001
1.00022
1.00062
1.00127
1.00363
1.00715
1.02196
1.03929
1.14233
1.24975
1.95907
3.23071
7.69297
11.3442
11.0391
10.7587
10.8139
10.9836
11.169
11.272
11.3479
11.4065
11.4722
1.00001
1.00003
1.00009
1.0002
1.00058
1.00118
1.00334
1.00668
1.01988
1.03697
1.12692
1.22846
1.8479
2.97671
6.94806
11.3377
10.9916
10.6375
10.6804
10.8233
10.9806
11.0529
11.0946
11.115
11.1526
1.00001
1.00003
1.00008
1.00018
1.00052
1.00107
1.00301
1.00608
1.01763
1.0344
1.10954
1.20592
1.72767
2.70273
6.10371
11.2862
10.9306
10.5101
10.5349
10.6382
10.7562
10.7843
10.7712
10.7139
10.6564
1.00001
1.00002
1.00007
1.00016
1.00046
1.00093
1.00264
1.00533
1.01543
1.03037
1.0944
1.18279
1.61695
2.44761
5.31012
11.0451
10.8002
10.3929
10.3786
10.429
10.4904
10.4672
10.3712
10.151
9.81748
1.00001
1.00004
1.00013
1.00029
1.00082
1.00167
1.00474
1.00947
1.02829
1.05272
1.181
1.3391
2.23764
4.01649
9.75398
11.4119
11.2353
11.1346
11.2137
11.431
11.6676
11.821
11.9378
12.0312
12.1046
1.00001
1.00004
1.00013
1.00028
1.00081
1.00165
1.00469
1.00937
1.02799
1.05211
1.17932
1.33475
2.22567
3.98216
9.67214
11.4055
11.2269
11.1224
11.2024
11.4208
11.6572
11.8106
11.9291
12.024
12.099
1.00001
1.00004
1.00013
1.00028
1.00079
1.00161
1.00459
1.00915
1.02739
1.05085
1.17578
1.32587
2.20001
3.90878
9.49014
11.3914
11.2055
11.0885
11.1675
11.3841
11.6173
11.7676
11.8851
11.9789
12.053
1.00001
1.00004
1.00012
1.00027
1.00076
1.00156
1.00443
1.00883
1.02646
1.04897
1.17035
1.31254
2.16058
3.797
9.2057
11.375
11.1745
11.0337
11.1096
11.3203
11.5474
11.6919
11.8053
11.8958
11.9696
1.00001
1.00004
1.00012
1.00025
1.00072
1.00147
1.00419
1.0083
1.02527
1.04581
1.16383
1.29433
2.10824
3.64724
8.81481
11.3587
11.1348
10.9599
11.0311
11.2331
11.4509
11.5868
11.6939
11.78
11.8539
1.00001
1.00003
1.00011
1.00024
1.00067
1.00138
1.00392
1.00773
1.02375
1.04254
1.15417
1.27246
2.04573
3.45593
8.31449
11.347
11.0876
10.8672
10.9317
11.1206
11.3254
11.4487
11.5443
11.6216
11.6954
1.00001
1.00003
1.0001
1.00022
1.00062
1.00127
1.00363
1.00715
1.02196
1.03929
1.14233
1.24975
1.95907
3.23071
7.69297
11.3442
11.0391
10.7587
10.8139
10.9836
11.169
11.272
11.3479
11.4065
11.4722
1.00001
1.00003
1.00009
1.0002
1.00058
1.00118
1.00334
1.00668
1.01988
1.03697
1.12692
1.22846
1.84791
2.97671
6.94807
11.3377
10.9916
10.6375
10.6804
10.8233
10.9806
11.0529
11.0946
11.115
11.1526
1.00001
1.00003
1.00008
1.00018
1.00052
1.00107
1.00301
1.00608
1.01763
1.0344
1.10954
1.20592
1.72767
2.70273
6.10372
11.2862
10.9306
10.5101
10.5349
10.6382
10.7562
10.7843
10.7712
10.7139
10.6564
1.00001
1.00002
1.00007
1.00016
1.00046
1.00093
1.00264
1.00533
1.01543
1.03037
1.0944
1.18279
1.61695
2.44761
5.31012
11.0451
10.8002
10.3929
10.3786
10.429
10.4904
10.4672
10.3712
10.151
9.81748
1.00001
1.00004
1.00013
1.00029
1.00082
1.00167
1.00474
1.00947
1.02829
1.05272
1.181
1.3391
2.23764
4.01649
9.75399
11.4119
11.2353
11.1346
11.2137
11.431
11.6676
11.821
11.9378
12.0312
12.1046
1.00001
1.00004
1.00013
1.00028
1.00081
1.00165
1.00469
1.00937
1.02799
1.05211
1.17932
1.33476
2.22567
3.98216
9.67214
11.4055
11.2269
11.1224
11.2024
11.4208
11.6572
11.8106
11.9291
12.024
12.099
1.00001
1.00004
1.00013
1.00028
1.00079
1.00161
1.00459
1.00915
1.02739
1.05085
1.17578
1.32587
2.20001
3.90878
9.49015
11.3914
11.2055
11.0885
11.1675
11.3841
11.6173
11.7676
11.8851
11.9789
12.053
1.00001
1.00004
1.00012
1.00027
1.00076
1.00156
1.00443
1.00883
1.02646
1.04897
1.17035
1.31254
2.16058
3.79701
9.20571
11.375
11.1745
11.0337
11.1096
11.3203
11.5474
11.6919
11.8053
11.8958
11.9696
1.00001
1.00004
1.00012
1.00025
1.00072
1.00147
1.00419
1.0083
1.02527
1.04581
1.16383
1.29433
2.10824
3.64724
8.81482
11.3587
11.1348
10.9599
11.0311
11.2331
11.4509
11.5868
11.6939
11.78
11.8539
1.00001
1.00003
1.00011
1.00024
1.00067
1.00138
1.00392
1.00773
1.02375
1.04255
1.15417
1.27246
2.04573
3.45593
8.3145
11.347
11.0876
10.8672
10.9317
11.1206
11.3254
11.4487
11.5443
11.6216
11.6954
1.00001
1.00003
1.0001
1.00022
1.00062
1.00127
1.00363
1.00715
1.02196
1.03929
1.14233
1.24975
1.95908
3.23071
7.69298
11.3442
11.0391
10.7587
10.8139
10.9836
11.169
11.272
11.3479
11.4065
11.4722
1.00001
1.00003
1.00009
1.0002
1.00058
1.00118
1.00334
1.00668
1.01988
1.03697
1.12692
1.22846
1.84791
2.97671
6.94808
11.3377
10.9916
10.6375
10.6804
10.8233
10.9806
11.0529
11.0946
11.115
11.1526
1.00001
1.00003
1.00008
1.00018
1.00052
1.00107
1.00301
1.00608
1.01763
1.0344
1.10954
1.20592
1.72767
2.70273
6.10373
11.2862
10.9306
10.5101
10.5349
10.6382
10.7562
10.7843
10.7712
10.7139
10.6564
1.00001
1.00002
1.00007
1.00016
1.00046
1.00093
1.00264
1.00533
1.01543
1.03037
1.0944
1.18279
1.61695
2.44761
5.31013
11.0451
10.8002
10.3929
10.3786
10.429
10.4904
10.4672
10.3712
10.151
9.81748
1.00001
1.00004
1.00013
1.00029
1.00082
1.00167
1.00474
1.00947
1.02829
1.05272
1.181
1.3391
2.23764
4.01649
9.75399
11.4119
11.2353
11.1346
11.2137
11.431
11.6676
11.821
11.9378
12.0312
12.1046
1.00001
1.00004
1.00013
1.00028
1.00081
1.00165
1.00469
1.00937
1.02799
1.05211
1.17932
1.33476
2.22567
3.98216
9.67215
11.4055
11.2269
11.1224
11.2024
11.4208
11.6572
11.8106
11.9291
12.024
12.099
1.00001
1.00004
1.00013
1.00028
1.00079
1.00161
1.00459
1.00915
1.02739
1.05085
1.17578
1.32587
2.20001
3.90878
9.49015
11.3914
11.2055
11.0885
11.1675
11.3841
11.6173
11.7676
11.8851
11.9789
12.053
1.00001
1.00004
1.00012
1.00027
1.00076
1.00156
1.00443
1.00883
1.02646
1.04897
1.17035
1.31254
2.16058
3.79701
9.20571
11.375
11.1745
11.0337
11.1096
11.3203
11.5474
11.6919
11.8053
11.8958
11.9696
1.00001
1.00004
1.00012
1.00025
1.00072
1.00147
1.00419
1.0083
1.02527
1.04581
1.16383
1.29433
2.10824
3.64724
8.81482
11.3587
11.1348
10.9599
11.0311
11.2331
11.4509
11.5868
11.6939
11.78
11.8539
1.00001
1.00003
1.00011
1.00024
1.00067
1.00138
1.00392
1.00773
1.02375
1.04255
1.15417
1.27247
2.04573
3.45594
8.3145
11.347
11.0876
10.8672
10.9317
11.1206
11.3254
11.4487
11.5443
11.6216
11.6954
1.00001
1.00003
1.0001
1.00022
1.00062
1.00127
1.00363
1.00715
1.02196
1.03929
1.14233
1.24975
1.95908
3.23071
7.69298
11.3442
11.0391
10.7587
10.8139
10.9836
11.169
11.272
11.3479
11.4065
11.4722
1.00001
1.00003
1.00009
1.0002
1.00058
1.00118
1.00334
1.00668
1.01988
1.03697
1.12692
1.22846
1.84791
2.97671
6.94808
11.3377
10.9916
10.6375
10.6804
10.8233
10.9806
11.0529
11.0946
11.115
11.1526
1.00001
1.00003
1.00008
1.00018
1.00052
1.00107
1.00301
1.00608
1.01763
1.0344
1.10954
1.20592
1.72767
2.70273
6.10373
11.2862
10.9306
10.5101
10.5349
10.6382
10.7562
10.7843
10.7712
10.7139
10.6564
1.00001
1.00002
1.00007
1.00016
1.00046
1.00093
1.00264
1.00533
1.01543
1.03037
1.0944
1.18279
1.61695
2.44761
5.31013
11.0451
10.8002
10.3929
10.3786
10.429
10.4904
10.4672
10.3712
10.151
9.81748
1.00001
1.00004
1.00013
1.00029
1.00082
1.00167
1.00474
1.00947
1.02829
1.05272
1.181
1.3391
2.23764
4.01649
9.75398
11.4119
11.2353
11.1346
11.2137
11.431
11.6676
11.821
11.9378
12.0312
12.1046
1.00001
1.00004
1.00013
1.00028
1.00081
1.00165
1.00469
1.00937
1.02799
1.05211
1.17932
1.33476
2.22567
3.98216
9.67214
11.4055
11.2269
11.1224
11.2024
11.4208
11.6572
11.8106
11.9291
12.024
12.099
1.00001
1.00004
1.00013
1.00028
1.00079
1.00161
1.00459
1.00915
1.02739
1.05085
1.17578
1.32587
2.20001
3.90878
9.49014
11.3914
11.2055
11.0885
11.1675
11.3841
11.6173
11.7676
11.8851
11.9789
12.053
1.00001
1.00004
1.00012
1.00027
1.00076
1.00156
1.00443
1.00883
1.02646
1.04897
1.17035
1.31254
2.16058
3.797
9.20571
11.375
11.1745
11.0337
11.1096
11.3203
11.5474
11.6919
11.8053
11.8958
11.9696
1.00001
1.00004
1.00012
1.00025
1.00072
1.00147
1.00419
1.0083
1.02527
1.04581
1.16383
1.29433
2.10824
3.64724
8.81481
11.3587
11.1348
10.9599
11.0311
11.2331
11.4509
11.5868
11.6939
11.78
11.8539
1.00001
1.00003
1.00011
1.00024
1.00067
1.00138
1.00392
1.00773
1.02375
1.04255
1.15417
1.27246
2.04573
3.45593
8.31449
11.347
11.0876
10.8672
10.9317
11.1206
11.3254
11.4487
11.5443
11.6216
11.6954
1.00001
1.00003
1.0001
1.00022
1.00062
1.00127
1.00363
1.00715
1.02196
1.03929
1.14233
1.24975
1.95908
3.23071
7.69298
11.3442
11.0391
10.7587
10.8139
10.9836
11.169
11.272
11.3479
11.4065
11.4722
1.00001
1.00003
1.00009
1.0002
1.00058
1.00118
1.00334
1.00668
1.01988
1.03697
1.12692
1.22846
1.84791
2.97671
6.94808
11.3377
10.9916
10.6375
10.6804
10.8233
10.9806
11.0529
11.0946
11.115
11.1526
1.00001
1.00003
1.00008
1.00018
1.00052
1.00107
1.00301
1.00608
1.01763
1.0344
1.10954
1.20592
1.72767
2.70273
6.10373
11.2862
10.9306
10.5101
10.5349
10.6382
10.7562
10.7843
10.7712
10.7139
10.6564
1.00001
1.00002
1.00007
1.00016
1.00046
1.00093
1.00264
1.00533
1.01543
1.03037
1.0944
1.18279
1.61695
2.44761
5.31013
11.0451
10.8002
10.3929
10.3786
10.429
10.4904
10.4672
10.3712
10.151
9.81748
1.00001
1.00004
1.00013
1.00029
1.00082
1.00167
1.00474
1.00947
1.02829
1.05272
1.181
1.3391
2.23764
4.01649
9.75397
11.4119
11.2353
11.1346
11.2137
11.431
11.6676
11.821
11.9378
12.0312
12.1046
1.00001
1.00004
1.00013
1.00028
1.00081
1.00165
1.00469
1.00937
1.02799
1.05211
1.17932
1.33475
2.22567
3.98215
9.67213
11.4055
11.2269
11.1224
11.2024
11.4208
11.6572
11.8106
11.9291
12.024
12.099
1.00001
1.00004
1.00013
1.00028
1.00079
1.00161
1.00459
1.00915
1.02739
1.05085
1.17578
1.32587
2.20001
3.90878
9.49013
11.3914
11.2055
11.0885
11.1675
11.3841
11.6173
11.7676
11.8851
11.9789
12.053
1.00001
1.00004
1.00012
1.00027
1.00076
1.00156
1.00443
1.00883
1.02646
1.04897
1.17035
1.31254
2.16058
3.797
9.2057
11.375
11.1745
11.0337
11.1096
11.3203
11.5474
11.6919
11.8053
11.8958
11.9696
1.00001
1.00004
1.00012
1.00025
1.00072
1.00147
1.00419
1.0083
1.02527
1.04581
1.16383
1.29433
2.10824
3.64724
8.8148
11.3587
11.1348
10.9599
11.0311
11.2331
11.4509
11.5868
11.6939
11.78
11.8539
1.00001
1.00003
1.00011
1.00024
1.00067
1.00138
1.00392
1.00773
1.02375
1.04254
1.15417
1.27246
2.04573
3.45593
8.31448
11.347
11.0876
10.8672
10.9317
11.1206
11.3254
11.4487
11.5443
11.6216
11.6954
1.00001
1.00003
1.0001
1.00022
1.00062
1.00127
1.00363
1.00715
1.02196
1.03929
1.14233
1.24975
1.95907
3.23071
7.69297
11.3442
11.0391
10.7587
10.8139
10.9836
11.169
11.272
11.3479
11.4065
11.4722
1.00001
1.00003
1.00009
1.0002
1.00058
1.00118
1.00334
1.00668
1.01988
1.03697
1.12692
1.22846
1.84791
2.97671
6.94806
11.3377
10.9916
10.6375
10.6804
10.8233
10.9806
11.0529
11.0946
11.115
11.1526
1.00001
1.00003
1.00008
1.00018
1.00052
1.00107
1.00301
1.00608
1.01763
1.0344
1.10954
1.20592
1.72767
2.70273
6.10371
11.2862
10.9306
10.5101
10.5349
10.6382
10.7562
10.7843
10.7712
10.7139
10.6564
1.00001
1.00002
1.00007
1.00016
1.00046
1.00093
1.00264
1.00533
1.01543
1.03037
1.0944
1.18279
1.61695
2.44761
5.31012
11.0451
10.8002
10.3929
10.3786
10.429
10.4904
10.4672
10.3712
10.151
9.81748
1.00001
1.00004
1.00013
1.00029
1.00082
1.00167
1.00474
1.00947
1.02829
1.05272
1.181
1.33909
2.23763
4.01646
9.75391
11.4119
11.2352
11.1346
11.2137
11.431
11.6676
11.821
11.9378
12.0311
12.1045
1.00001
1.00004
1.00013
1.00028
1.00081
1.00165
1.00469
1.00937
1.02799
1.05211
1.17932
1.33475
2.22566
3.98213
9.67207
11.4055
11.2269
11.1224
11.2024
11.4208
11.6572
11.8106
11.9291
12.024
12.099
1.00001
1.00004
1.00013
1.00028
1.00079
1.00161
1.00459
1.00915
1.02739
1.05085
1.17578
1.32586
2.2
3.90875
9.49007
11.3914
11.2055
11.0885
11.1675
11.3841
11.6173
11.7675
11.8851
11.9789
12.053
1.00001
1.00004
1.00012
1.00027
1.00076
1.00156
1.00443
1.00882
1.02646
1.04897
1.17035
1.31254
2.16057
3.79698
9.20563
11.375
11.1745
11.0337
11.1096
11.3203
11.5474
11.6919
11.8053
11.8958
11.9696
1.00001
1.00004
1.00012
1.00025
1.00072
1.00147
1.00419
1.0083
1.02527
1.04581
1.16383
1.29433
2.10823
3.64721
8.81474
11.3587
11.1348
10.9599
11.0311
11.2331
11.4509
11.5868
11.6938
11.78
11.8539
1.00001
1.00003
1.00011
1.00024
1.00067
1.00138
1.00392
1.00773
1.02375
1.04254
1.15417
1.27246
2.04572
3.4559
8.31441
11.347
11.0876
10.8672
10.9317
11.1206
11.3254
11.4487
11.5443
11.6216
11.6954
1.00001
1.00003
1.0001
1.00022
1.00062
1.00127
1.00363
1.00715
1.02196
1.03929
1.14233
1.24974
1.95906
3.23068
7.69289
11.3442
11.0391
10.7587
10.8139
10.9836
11.169
11.272
11.3479
11.4065
11.4722
1.00001
1.00003
1.00009
1.0002
1.00058
1.00118
1.00334
1.00668
1.01988
1.03697
1.12691
1.22846
1.84789
2.97668
6.94799
11.3377
10.9916
10.6375
10.6804
10.8233
10.9806
11.0529
11.0946
11.115
11.1526
1.00001
1.00003
1.00008
1.00018
1.00052
1.00107
1.00301
1.00608
1.01763
1.0344
1.10954
1.20592
1.72766
2.7027
6.10364
11.2862
10.9306
10.5101
10.5349
10.6382
10.7562
10.7843
10.7712
10.7139
10.6564
1.00001
1.00002
1.00007
1.00016
1.00046
1.00093
1.00264
1.00533
1.01543
1.03037
1.0944
1.18279
1.61694
2.4476
5.31008
11.0451
10.8002
10.3929
10.3786
10.429
10.4904
10.4672
10.3712
10.151
9.81748
1.00001
1.00004
1.00013
1.00028
1.00081
1.00166
1.00473
1.00946
1.02828
1.0527
1.18098
1.33901
2.23755
4.01611
9.75325
11.4119
11.2352
11.1345
11.2135
11.4309
11.6675
11.8209
11.9376
12.031
12.1044
1.00001
1.00004
1.00013
1.00028
1.0008
1.00164
1.00468
1.00936
1.02798
1.05208
1.1793
1.33467
2.22558
3.98178
9.67141
11.4055
11.2268
11.1223
11.2023
11.4207
11.657
11.8104
11.9289
12.0239
12.0989
1.00001
1.00004
1.00012
1.00027
1.00078
1.00161
1.00458
1.00914
1.02738
1.05083
1.17576
1.32578
2.19992
3.90841
9.48939
11.3914
11.2055
11.0883
11.1674
11.384
11.6172
11.7674
11.885
11.9788
12.0529
1.00001
1.00003
1.00012
1.00026
1.00076
1.00155
1.00442
1.00881
1.02645
1.04895
1.17033
1.31246
2.16049
3.79663
9.20494
11.375
11.1745
11.0336
11.1095
11.3202
11.5472
11.6918
11.8051
11.8957
11.9694
1.00001
1.00003
1.00011
1.00025
1.00072
1.00146
1.00419
1.00829
1.02526
1.04577
1.16382
1.29423
2.10816
3.64687
8.81402
11.3588
11.1347
10.9598
11.031
11.233
11.4508
11.5867
11.6937
11.7799
11.8538
1.00001
1.00003
1.00011
1.00023
1.00067
1.00137
1.00392
1.00772
1.02374
1.04252
1.15414
1.2724
2.04562
3.45555
8.31366
11.3471
11.0876
10.8671
10.9316
11.1205
11.3253
11.4486
11.5442
11.6215
11.6953
1.00001
1.00003
1.0001
1.00021
1.00062
1.00127
1.00362
1.00714
1.02195
1.03927
1.1423
1.24968
1.95896
3.23034
7.69209
11.3443
11.0391
10.7586
10.8138
10.9835
11.1689
11.2719
11.3478
11.4064
11.4721
1.00001
1.00003
1.00009
1.0002
1.00057
1.00117
1.00333
1.00667
1.01987
1.03694
1.12691
1.22838
1.84783
2.97636
6.94721
11.3378
10.9916
10.6374
10.6803
10.8232
10.9805
11.0528
11.0945
11.1149
11.1525
1
1.00002
1.00008
1.00018
1.00051
1.00106
1.003
1.00607
1.01762
1.03438
1.10952
1.20586
1.72757
2.70242
6.1029
11.2862
10.9305
10.51
10.5348
10.6381
10.7561
10.7842
10.7712
10.7138
10.6563
1
1.00002
1.00007
1.00015
1.00045
1.00093
1.00264
1.00532
1.01542
1.03036
1.09438
1.18274
1.61689
2.44739
5.30964
11.0447
10.8001
10.3928
10.3785
10.4289
10.4903
10.4671
10.3711
10.1509
9.81742
1
1.00002
1.00005
1.00016
1.00033
1.00093
1.0019
1.00545
1.01065
1.03325
1.05903
1.21371
1.40495
2.42319
4.577
10.4522
10.5277
10.3253
10.1977
10.2038
10.1936
10.1075
9.85847
9.28685
7.85855
1
1.00002
1.00004
1.00014
1.00029
1.00083
1.0017
1.00482
1.00965
1.02861
1.05388
1.18152
1.34583
2.23368
3.99915
9.40858
10.3441
10.2145
10.015
9.96587
9.89376
9.72034
9.33759
8.57486
7.13521
1
1.00001
1.00004
1.00012
1.00025
1.0007
1.00143
1.00408
1.00807
1.0245
1.04435
1.15813
1.28293
2.05788
3.49873
8.2249
10.2137
10.1009
9.85034
9.72475
9.60178
9.35314
8.88858
8.13057
7.00407
1
1.00001
1.00003
1.0001
1.0002
1.00059
1.0012
1.00341
1.00673
1.02056
1.03683
1.13233
1.23145
1.87814
3.02015
6.94371
10.1121
9.99378
9.70265
9.49395
9.31987
9.03176
8.55971
7.87317
6.99077
1
1.00001
1.00002
1.00008
1.00017
1.00049
1.00101
1.00286
1.00577
1.01675
1.03285
1.10325
1.19769
1.67866
2.58199
5.62234
9.93641
9.86336
9.59049
9.28874
9.06529
8.76465
8.31625
7.70357
6.96664
1
1.00001
1.00002
1.00005
1.00016
1.00033
1.00093
1.00189
1.00541
1.01055
1.03284
1.05842
1.2086
1.40147
2.35277
4.3779
9.44221
9.67004
9.48302
9.11616
8.84794
8.54039
8.12326
7.57677
6.93393
1
1
1.00002
1.00004
1.00013
1.00027
1.00076
1.00156
1.00442
1.00885
1.02617
1.0491
1.16586
1.30849
2.10839
3.62897
8.25629
9.4064
9.28396
8.98274
8.66525
8.34867
7.95866
7.46908
6.90193
1
1
1.00001
1.00003
1.0001
1.0002
1.00058
1.00119
1.0034
1.00664
1.02059
1.03646
1.13227
1.23161
1.87749
3.00189
6.74304
9.18055
9.11478
8.88374
8.52114
8.19161
7.8204
7.37686
6.86812
0.999998
1
1.00001
1.00003
1.00006
1.00018
1.00037
1.00105
1.00205
1.00635
1.01111
1.04023
1.06581
1.25029
1.49886
2.59942
5.08362
8.89955
8.98327
8.81325
8.43709
8.06504
7.70376
7.29784
6.83826
0.999997
0.999999
1
1.00002
1.00004
1.00014
1.00029
1.00083
1.00169
1.00482
1.00956
1.02879
1.05302
1.18196
1.34314
2.18861
3.80772
8.21412
8.83694
8.69906
8.36576
7.96117
7.6041
7.22872
6.81375
0.999995
0.999996
1
1.00001
1.00004
1.00008
1.00025
1.0005
1.00145
1.00281
1.00875
1.01521
1.05543
1.09102
1.35066
1.70602
3.27619
6.66833
8.5713
8.51653
8.29802
7.88498
7.52467
7.17313
6.79819
0.999994
0.999995
0.999998
1
1.00003
1.00006
1.00019
1.00039
1.00111
1.00226
1.00646
1.01254
1.03948
1.06923
1.25066
1.48999
2.59221
4.95804
8.21231
8.36388
8.22156
7.87792
7.48194
7.13481
6.79112
0.999993
0.999994
0.999996
1
1.00001
1.00005
1.00012
1.00034
1.0007
1.00198
1.004
1.01146
1.02271
1.06803
1.13627
1.42076
1.97187
3.69007
7.38679
8.20872
8.11729
7.86041
7.47128
7.12012
6.79405
0.999992
0.999993
0.999994
0.999999
1.00001
1.00004
1.00008
1.00024
1.0005
1.00141
1.00285
1.00813
1.01581
1.04932
1.088
1.30988
1.63429
2.96831
5.84677
7.97711
7.96705
7.82211
7.4864
7.12519
6.80729
0.999992
0.999992
0.999993
0.999996
1
1.00002
1.00007
1.00014
1.00041
1.00085
1.00239
1.00482
1.01376
1.02713
1.08175
1.16099
1.50501
2.15536
4.07666
7.50774
7.88697
7.78252
7.51931
7.14958
6.84373
0.999992
0.999992
0.999993
0.999994
1
1.00001
1.00004
1.0001
1.00029
1.0006
1.00168
1.0034
1.00959
1.01895
1.05693
1.10744
1.35004
1.77425
3.21206
6.38692
7.70997
7.68493
7.53537
7.21326
6.92404
0.999991
0.999991
0.999992
0.999993
0.999996
1.00001
1.00002
1.00008
1.00017
1.00048
1.00099
1.00277
1.00559
1.016
1.0309
1.09694
1.18237
1.60592
2.36868
4.68177
7.33079
7.60391
7.52984
7.33516
7.08734
0.999991
0.999991
0.999991
0.999993
0.999994
1
1.00001
1.00005
1.00011
1.00033
1.00068
1.00191
1.00387
1.0109
1.02192
1.06295
1.1303
1.38205
1.86876
3.35874
6.46307
7.48431
7.53054
7.47642
7.36548
0.999991
0.999991
0.999991
0.999992
0.999994
0.999997
1.00001
1.00003
1.00009
1.00019
1.00053
1.00108
1.00302
1.00602
1.01755
1.03279
1.1074
1.19593
1.6663
2.47889
4.94296
7.20729
7.58333
7.65845
7.73572
0.999991
0.999991
0.999991
0.999991
0.999992
0.999995
1
1.00002
1.00005
1.00014
1.0003
1.00084
1.00171
1.00477
1.00946
1.02782
1.05154
1.16865
1.32537
2.02138
3.34933
6.57059
7.65087
8.02957
8.35562
0.999991
0.999991
0.999991
0.999991
0.999992
0.999994
0.999997
1.00001
1.00003
1.00009
1.0002
1.00057
1.00117
1.00325
1.00654
1.01864
1.03589
1.11328
1.20949
1.71099
2.57131
5.18625
7.60029
8.67232
9.26643
0.999991
0.99999
0.999991
0.999991
0.999991
0.999992
0.999996
1
1.00002
1.00005
1.00016
1.00033
1.00092
1.00188
1.00524
1.01049
1.03025
1.05852
1.18115
1.37203
2.12577
3.64851
7.33803
9.64193
10.307
0.999991
0.99999
0.99999
0.999991
0.999991
0.999992
0.999994
0.999998
1.00001
1.00003
1.00011
1.00024
1.00067
1.00137
1.00383
1.0077
1.02225
1.04215
1.13774
1.25278
1.88681
3.01863
6.53279
10.645
11.0699
0.999991
0.99999
0.99999
0.99999
0.999991
0.999991
0.999993
0.999996
1.00001
1.00002
1.00008
1.00018
1.00052
1.00107
1.00302
1.00612
1.0175
1.03461
1.10575
1.20733
1.68441
2.58857
5.53959
11.3693
11.519
0.999991
0.99999
0.99999
0.99999
0.999991
0.999991
0.999993
0.999995
1
1.00002
1.00007
1.00015
1.00043
1.00089
1.00255
1.00516
1.01501
1.02959
1.09246
1.17802
1.6075
2.42372
5.26752
11.4243
11.5732
0.999991
0.99999
0.99999
0.99999
0.999991
0.999991
0.999992
0.999995
1
1.00002
1.00005
1.00015
1.00031
1.0009
1.00182
1.00543
1.01011
1.03431
1.05848
1.2218
1.42372
2.50131
4.86521
11.2788
11.4975
0.999991
0.99999
0.99999
0.99999
0.999991
0.999991
0.999992
0.999994
1
1.00001
1.00005
1.00011
1.00032
1.00065
1.00201
1.00368
1.01277
1.02141
1.08194
1.13986
1.54227
2.23099
4.83687
10.9496
11.3476
0.999991
0.99999
0.99999
0.99999
0.99999
0.999991
0.999992
0.999994
0.999998
1.00001
1.00004
1.00013
1.00027
1.0008
1.00164
1.00481
1.00946
1.03005
1.05387
1.19884
1.36968
2.38031
4.41166
10.633
11.3119
0.999991
0.99999
0.99999
0.99999
0.99999
0.999991
0.999992
0.999994
0.999998
1.00001
1.00003
1.00012
1.00025
1.00074
1.00152
1.00449
1.0088
1.02824
1.05016
1.18829
1.34484
2.31598
4.23315
10.2991
11.2895
0.999991
0.99999
0.99999
0.99999
0.99999
0.999991
0.999992
0.999993
0.999998
1.00001
1.00004
1.00008
1.00026
1.00051
1.00168
1.0029
1.01095
1.01768
1.07083
1.1174
1.47778
2.03438
4.36567
9.96967
11.2749
0.999991
0.99999
0.99999
0.99999
0.99999
0.999991
0.999991
0.999993
0.999997
1.00001
1.00003
1.0001
1.00021
1.00064
1.00126
1.00405
1.00713
1.0265
1.04372
1.17285
1.31316
2.21566
3.96472
9.65205
11.3282
0.999991
0.99999
0.99999
0.99999
0.99999
0.999991
0.999991
0.999993
0.999997
1.00001
1.00003
1.00008
1.00024
1.00049
1.00152
1.00284
1.00979
1.01649
1.0647
1.10641
1.43578
1.92734
4.07283
9.30187
11.4123
0.999991
0.99999
0.99999
0.99999
0.99999
0.999991
0.999991
0.999993
0.999997
1
1.00003
1.00007
1.00022
1.00046
1.00141
1.00267
1.00912
1.01544
1.06089
1.09969
1.41256
1.87539
3.92688
8.99269
11.536
0.999991
0.99999
0.99999
0.99999
0.99999
0.999991
0.999991
0.999993
0.999996
1.00001
1.00002
1.00008
1.00016
1.00053
1.00096
1.00345
1.00573
1.0226
1.03683
1.14926
1.26516
2.06624
3.55354
8.72904
11.7314
0.999991
0.99999
0.99999
0.99999
0.99999
0.999991
0.999991
0.999992
0.999996
1
1.00002
1.00006
1.00019
1.00036
1.00126
1.00213
1.00827
1.01333
1.05438
1.08917
1.36984
1.77864
3.63802
8.36717
11.9295
0.999991
0.99999
0.99999
0.99999
0.99999
0.999991
0.999991
0.999993
0.999995
1
1.00002
1.00007
1.00016
1.00048
1.00095
1.00306
1.00532
1.02011
1.03276
1.13262
1.23222
1.95183
3.27595
8.09808
12.1942
0.999991
0.99999
0.99999
0.99999
0.99999
0.999991
0.999991
0.999992
0.999996
1
1.00002
1.00006
1.00018
1.00038
1.00115
1.00219
1.00737
1.0125
1.04911
1.08011
1.33062
1.69072
3.34915
7.66443
12.4952
0.999991
0.99999
0.99999
0.99999
0.99999
0.999991
0.999991
0.999992
0.999996
1
1.00002
1.00006
1.00018
1.00038
1.00112
1.00216
1.00699
1.01201
1.04645
1.07542
1.3111
1.64718
3.2143
7.30954
12.7836
0.999991
0.99999
0.99999
0.99999
0.99999
0.999991
0.999991
0.999993
0.999995
1
1.00002
1.00007
1.00016
1.00048
1.00099
1.00288
1.00576
1.01764
1.03262
1.11629
1.21157
1.80969
2.96685
7.27866
12.8832
0.999991
0.99999
0.99999
0.99999
0.99999
0.999991
0.999991
0.999993
0.999995
1.00001
1.00002
1.00008
1.00017
1.00049
1.00101
1.00291
1.00588
1.01749
1.03391
1.11198
1.2123
1.78238
2.91272
7.14415
12.9223
1
1.00002
1.00005
1.00016
1.00033
1.00094
1.00191
1.00546
1.01066
1.03327
1.05905
1.21374
1.40503
2.42329
4.57753
10.4528
10.5278
10.3254
10.1978
10.2038
10.1936
10.1075
9.85854
9.2869
7.85858
1
1.00002
1.00005
1.00014
1.0003
1.00084
1.0017
1.00482
1.00966
1.02862
1.0539
1.18154
1.34592
2.23379
3.99956
9.40932
10.3441
10.2145
10.015
9.96594
9.89382
9.72041
9.33765
8.57491
7.13522
1
1.00002
1.00004
1.00012
1.00025
1.00071
1.00144
1.00409
1.00808
1.02451
1.04438
1.15814
1.28302
2.05796
3.49911
8.22568
10.2137
10.1009
9.85037
9.72481
9.60185
9.3532
8.88864
8.13062
7.00409
1
1.00001
1.00003
1.0001
1.00021
1.00059
1.00121
1.00342
1.00674
1.02057
1.03685
1.13235
1.23151
1.87825
3.0205
6.94452
10.1121
9.99377
9.70269
9.49402
9.31993
9.03182
8.55976
7.87321
6.9908
1
1.00001
1.00003
1.00009
1.00018
1.0005
1.00102
1.00287
1.00578
1.01676
1.03287
1.10327
1.19775
1.67876
2.5823
5.62319
9.93648
9.8634
9.59051
9.2888
9.06535
8.7647
8.3163
7.70361
6.96667
1
1.00001
1.00003
1.00006
1.00016
1.00033
1.00094
1.0019
1.00542
1.01056
1.03286
1.05845
1.20863
1.40157
2.35289
4.37847
9.44261
9.67013
9.48307
9.1162
8.84799
8.54044
8.12331
7.57682
6.93396
1
1.00001
1.00002
1.00005
1.00013
1.00028
1.00077
1.00157
1.00443
1.00886
1.02618
1.04913
1.16588
1.30858
2.10852
3.6294
8.25713
9.40651
9.28403
8.98276
8.66529
8.34872
7.95871
7.46913
6.90197
1
1.00001
1.00002
1.00004
1.0001
1.00021
1.00059
1.0012
1.00341
1.00665
1.02061
1.03648
1.1323
1.23168
1.87761
3.00226
6.74386
9.18055
9.11476
8.88373