/*--------------------------------*- C++ -*----------------------------------*\
| =========                 |                                                 |
| \\      /  F ield         | OpenFOAM: The Open Source CFD Toolbox           |
|  \\    /   O peration     | Version:  4.1                                   |
|   \\  /    A nd           | Web:      www.OpenFOAM.org                      |
|    \\/     M anipulation  |                                                 |
\*---------------------------------------------------------------------------*/
FoamFile
{
    version     2.0;
    format      ascii;
    class       volScalarField;
    location    "3.42";
    object      p;
}
// * * * * * * * * * * * * * * * * * * * * * * * * * * * * * * * * * * * * * //

dimensions      [1 -1 -2 0 0 0 0];

internalField   nonuniform List<scalar> 
52500
(
1.00001
1.00003
1.0001
1.00022
1.00064
1.00131
1.00376
1.0074
1.02288
1.04079
1.14882
1.26106
2.01235
3.35677
8.07477
11.5864
11.2146
10.9706
11.049
11.2733
11.5096
11.6529
11.7613
11.8477
11.9128
1.00001
1.00003
1.0001
1.00022
1.00063
1.00129
1.00371
1.0073
1.02256
1.04025
1.14667
1.25725
1.99558
3.31796
7.97017
11.5952
11.2118
10.9598
11.0395
11.2649
11.501
11.6444
11.7543
11.8421
11.9087
1.00001
1.00003
1.0001
1.00021
1.00062
1.00126
1.00361
1.00711
1.02189
1.03918
1.14221
1.24942
1.95989
3.23433
7.73532
11.6126
11.2021
10.9281
11.007
11.2308
11.4641
11.6052
11.7145
11.8016
11.8681
1.00001
1.00003
1.00009
1.0002
1.00059
1.00121
1.00346
1.00683
1.02091
1.03755
1.13548
1.23769
1.90632
3.1084
7.37247
11.6406
11.1888
10.8764
10.9518
11.1702
11.3991
11.5354
11.6411
11.726
11.7933
1.00001
1.00002
1.00009
1.00019
1.00056
1.00116
1.00329
1.0066
1.01957
1.03665
1.12459
1.2254
1.83252
2.94446
6.88339
11.6694
11.1739
10.8074
10.8764
11.0845
11.3082
11.4379
11.5381
11.6194
11.6881
1.00001
1.00002
1.00008
1.00018
1.00053
1.00108
1.00307
1.0062
1.01802
1.03504
1.11232
1.2101
1.74813
2.75303
6.29051
11.6675
11.1506
10.7234
10.7823
10.9728
11.1877
11.3065
11.3958
11.4698
11.5402
1
1.00002
1.00008
1.00017
1.00048
1.00099
1.00281
1.00569
1.01642
1.03229
1.10069
1.19288
1.66164
2.55102
5.63723
11.5707
11.087
10.6218
10.6684
10.8326
11.0315
11.1339
11.205
11.2617
11.326
1
1.00002
1.00007
1.00015
1.00044
1.0009
1.00255
1.00516
1.01489
1.02935
1.09108
1.17467
1.5951
2.39169
5.20386
11.1856
10.9115
10.5072
10.535
10.6578
10.8309
10.9079
10.9475
10.968
11.0068
1
1.00002
1.00006
1.00013
1.00039
1.0008
1.00227
1.0046
1.0133
1.026
1.08223
1.15223
1.53648
2.23103
4.77535
10.5026
10.609
10.4304
10.3935
10.4554
10.5833
10.6207
10.6086
10.5518
10.4929
1
1.00001
1.00005
1.00011
1.00032
1.00066
1.00191
1.00372
1.01165
1.02031
1.07464
1.12528
1.48358
2.06289
4.3385
9.64905
10.4505
10.3325
10.2191
10.2404
10.2916
10.2721
10.1776
9.95182
9.59184
1.00001
1.00003
1.0001
1.00023
1.00065
1.00132
1.00377
1.00741
1.02289
1.04081
1.14885
1.26111
2.01243
3.35706
8.07537
11.5863
11.2146
10.9707
11.0491
11.2734
11.5096
11.653
11.7613
11.8478
11.9128
1.00001
1.00003
1.0001
1.00022
1.00064
1.0013
1.00372
1.00731
1.02257
1.04027
1.1467
1.25731
1.99566
3.31824
7.97077
11.5951
11.2118
10.9599
11.0395
11.265
11.501
11.6445
11.7543
11.8422
11.9087
1.00001
1.00003
1.0001
1.00022
1.00062
1.00127
1.00362
1.00712
1.02191
1.0392
1.14224
1.24948
1.95997
3.2346
7.73591
11.6125
11.2021
10.9282
11.0071
11.2309
11.4642
11.6052
11.7145
11.8016
11.8681
1.00001
1.00003
1.0001
1.00021
1.0006
1.00122
1.00347
1.00684
1.02092
1.03757
1.1355
1.23774
1.90639
3.10866
7.37305
11.6405
11.1888
10.8765
10.9519
11.1702
11.3992
11.5354
11.6411
11.726
11.7934
1.00001
1.00003
1.00009
1.0002
1.00057
1.00116
1.0033
1.00661
1.01958
1.03668
1.12459
1.22548
1.83254
2.94468
6.88388
11.6694
11.1739
10.8075
10.8765
11.0846
11.3083
11.438
11.5381
11.6195
11.6881
1.00001
1.00003
1.00009
1.00019
1.00053
1.00109
1.00308
1.00621
1.01803
1.03506
1.11233
1.21016
1.74817
2.75322
6.29095
11.6676
11.1506
10.7235
10.7823
10.9729
11.1877
11.3065
11.3959
11.4699
11.5402
1.00001
1.00002
1.00008
1.00017
1.00049
1.001
1.00282
1.0057
1.01643
1.03231
1.10071
1.19292
1.66167
2.55116
5.63748
11.5709
11.0871
10.6219
10.6684
10.8327
11.0316
11.134
11.2051
11.2617
11.326
1
1.00002
1.00007
1.00016
1.00044
1.00091
1.00256
1.00517
1.0149
1.02936
1.09109
1.17471
1.59512
2.39181
5.20409
11.1859
10.9117
10.5072
10.5351
10.6579
10.831
10.9079
10.9476
10.9681
11.0068
1
1.00002
1.00006
1.00014
1.00039
1.00081
1.00228
1.0046
1.01331
1.02601
1.08224
1.15228
1.53649
2.23115
4.77553
10.5029
10.6091
10.4304
10.3935
10.4555
10.5833
10.6208
10.6087
10.5519
10.493
1
1.00002
1.00005
1.00012
1.00033
1.00067
1.00192
1.00373
1.01166
1.02033
1.07465
1.12532
1.48359
2.06301
4.33864
9.64942
10.4505
10.3325
10.2191
10.2404
10.2917
10.2721
10.1777
9.95188
9.5919
1.00001
1.00003
1.0001
1.00023
1.00065
1.00132
1.00377
1.00741
1.02289
1.04081
1.14885
1.26111
2.01244
3.35707
8.0754
11.5863
11.2146
10.9707
11.0491
11.2734
11.5096
11.653
11.7613
11.8478
11.9128
1.00001
1.00003
1.0001
1.00022
1.00064
1.0013
1.00372
1.00731
1.02257
1.04027
1.1467
1.25731
1.99566
3.31825
7.9708
11.5951
11.2118
10.9599
11.0395
11.265
11.501
11.6445
11.7543
11.8422
11.9087
1.00001
1.00003
1.0001
1.00022
1.00062
1.00127
1.00362
1.00712
1.02191
1.0392
1.14224
1.24948
1.95997
3.23461
7.73594
11.6125
11.2021
10.9282
11.0071
11.2309
11.4642
11.6052
11.7145
11.8016
11.8682
1.00001
1.00003
1.0001
1.00021
1.0006
1.00122
1.00347
1.00684
1.02092
1.03757
1.13551
1.23774
1.9064
3.10867
7.37308
11.6405
11.1888
10.8765
10.9519
11.1702
11.3992
11.5354
11.6411
11.726
11.7934
1.00001
1.00003
1.00009
1.0002
1.00057
1.00116
1.0033
1.00661
1.01958
1.03668
1.12459
1.22548
1.83254
2.94469
6.88391
11.6694
11.1739
10.8075
10.8765
11.0846
11.3083
11.438
11.5381
11.6195
11.6881
1.00001
1.00003
1.00009
1.00019
1.00053
1.00109
1.00308
1.00621
1.01803
1.03506
1.11233
1.21016
1.74817
2.75323
6.29098
11.6676
11.1506
10.7235
10.7823
10.9729
11.1877
11.3065
11.3959
11.4699
11.5402
1.00001
1.00002
1.00008
1.00017
1.00049
1.001
1.00282
1.0057
1.01643
1.03231
1.10071
1.19292
1.66168
2.55116
5.63749
11.5709
11.0871
10.6219
10.6684
10.8327
11.0316
11.134
11.2051
11.2617
11.326
1
1.00002
1.00007
1.00016
1.00044
1.00091
1.00256
1.00517
1.0149
1.02936
1.09109
1.17471
1.59512
2.39181
5.2041
11.1859
10.9117
10.5072
10.5351
10.6579
10.831
10.9079
10.9476
10.9681
11.0068
1
1.00002
1.00006
1.00014
1.00039
1.00081
1.00228
1.0046
1.01331
1.02601
1.08224
1.15228
1.53649
2.23115
4.77554
10.503
10.6091
10.4304
10.3935
10.4555
10.5833
10.6208
10.6087
10.5519
10.493
1
1.00002
1.00005
1.00012
1.00033
1.00067
1.00192
1.00373
1.01166
1.02033
1.07465
1.12532
1.48359
2.06302
4.33865
9.64944
10.4505
10.3325
10.2191
10.2404
10.2917
10.2721
10.1777
9.95188
9.5919
1.00001
1.00003
1.0001
1.00023
1.00065
1.00132
1.00377
1.00741
1.02289
1.04081
1.14885
1.26111
2.01244
3.35707
8.0754
11.5863
11.2146
10.9707
11.0491
11.2734
11.5096
11.653
11.7613
11.8478
11.9128
1.00001
1.00003
1.0001
1.00022
1.00064
1.0013
1.00372
1.00731
1.02257
1.04027
1.1467
1.25731
1.99566
3.31825
7.9708
11.5951
11.2118
10.9599
11.0395
11.265
11.501
11.6445
11.7543
11.8422
11.9087
1.00001
1.00003
1.0001
1.00022
1.00062
1.00127
1.00362
1.00712
1.02191
1.0392
1.14224
1.24948
1.95997
3.23461
7.73594
11.6125
11.2021
10.9282
11.0071
11.2309
11.4642
11.6052
11.7145
11.8016
11.8682
1.00001
1.00003
1.0001
1.00021
1.0006
1.00122
1.00347
1.00684
1.02092
1.03757
1.13551
1.23774
1.9064
3.10867
7.37308
11.6405
11.1888
10.8765
10.9519
11.1702
11.3992
11.5354
11.6411
11.726
11.7934
1.00001
1.00003
1.00009
1.0002
1.00057
1.00116
1.0033
1.00661
1.01958
1.03668
1.12459
1.22548
1.83254
2.94469
6.88391
11.6694
11.1739
10.8075
10.8765
11.0846
11.3083
11.438
11.5381
11.6195
11.6881
1.00001
1.00003
1.00009
1.00019
1.00053
1.00109
1.00308
1.00621
1.01803
1.03506
1.11233
1.21016
1.74817
2.75323
6.29098
11.6676
11.1506
10.7235
10.7823
10.9729
11.1877
11.3065
11.3959
11.4699
11.5402
1.00001
1.00002
1.00008
1.00017
1.00049
1.001
1.00282
1.0057
1.01643
1.03231
1.10071
1.19292
1.66168
2.55116
5.6375
11.5709
11.0871
10.6219
10.6684
10.8327
11.0316
11.134
11.2051
11.2617
11.326
1
1.00002
1.00007
1.00016
1.00044
1.00091
1.00256
1.00517
1.0149
1.02936
1.09109
1.17471
1.59512
2.39181
5.2041
11.1859
10.9117
10.5072
10.5351
10.6579
10.831
10.9079
10.9476
10.9681
11.0068
1
1.00002
1.00006
1.00014
1.00039
1.00081
1.00228
1.0046
1.01331
1.02601
1.08224
1.15228
1.53649
2.23115
4.77554
10.503
10.6091
10.4304
10.3935
10.4555
10.5833
10.6208
10.6087
10.5519
10.493
1
1.00002
1.00005
1.00012
1.00033
1.00067
1.00192
1.00373
1.01166
1.02033
1.07465
1.12532
1.48359
2.06302
4.33865
9.64944
10.4505
10.3325
10.2191
10.2404
10.2917
10.2721
10.1777
9.95188
9.5919
1.00001
1.00003
1.0001
1.00023
1.00065
1.00132
1.00377
1.00741
1.02289
1.04081
1.14885
1.26111
2.01244
3.35707
8.0754
11.5863
11.2146
10.9707
11.0491
11.2734
11.5096
11.653
11.7613
11.8478
11.9128
1.00001
1.00003
1.0001
1.00022
1.00064
1.0013
1.00372
1.00731
1.02257
1.04027
1.1467
1.25731
1.99566
3.31825
7.9708
11.5951
11.2118
10.9599
11.0395
11.265
11.501
11.6445
11.7543
11.8422
11.9087
1.00001
1.00003
1.0001
1.00022
1.00062
1.00127
1.00362
1.00712
1.02191
1.0392
1.14224
1.24948
1.95997
3.23461
7.73594
11.6125
11.2021
10.9282
11.0071
11.2309
11.4642
11.6052
11.7145
11.8016
11.8682
1.00001
1.00003
1.0001
1.00021
1.0006
1.00122
1.00347
1.00684
1.02092
1.03757
1.13551
1.23774
1.9064
3.10867
7.37308
11.6405
11.1888
10.8765
10.9519
11.1702
11.3992
11.5354
11.6411
11.726
11.7934
1.00001
1.00003
1.00009
1.0002
1.00057
1.00116
1.0033
1.00661
1.01958
1.03668
1.12459
1.22548
1.83254
2.94469
6.88392
11.6694
11.1739
10.8075
10.8765
11.0846
11.3083
11.438
11.5381
11.6195
11.6881
1.00001
1.00003
1.00009
1.00019
1.00053
1.00109
1.00308
1.00621
1.01803
1.03506
1.11233
1.21016
1.74817
2.75323
6.29098
11.6676
11.1506
10.7235
10.7823
10.9729
11.1877
11.3065
11.3959
11.4699
11.5402
1.00001
1.00002
1.00008
1.00017
1.00049
1.001
1.00282
1.0057
1.01643
1.03231
1.10071
1.19292
1.66168
2.55116
5.6375
11.5709
11.0871
10.6219
10.6684
10.8327
11.0316
11.134
11.2051
11.2617
11.326
1
1.00002
1.00007
1.00016
1.00044
1.00091
1.00256
1.00517
1.0149
1.02936
1.09109
1.17471
1.59512
2.39181
5.2041
11.1859
10.9117
10.5072
10.5351
10.6579
10.831
10.9079
10.9476
10.9681
11.0068
1
1.00002
1.00006
1.00014
1.00039
1.00081
1.00228
1.0046
1.01331
1.02601
1.08224
1.15228
1.53649
2.23115
4.77554
10.503
10.6091
10.4304
10.3935
10.4555
10.5833
10.6208
10.6087
10.5519
10.493
1
1.00002
1.00005
1.00012
1.00033
1.00067
1.00192
1.00373
1.01166
1.02033
1.07465
1.12532
1.48359
2.06302
4.33865
9.64944
10.4505
10.3325
10.2191
10.2404
10.2917
10.2721
10.1777
9.95188
9.5919
1.00001
1.00003
1.0001
1.00023
1.00065
1.00132
1.00377
1.00741
1.02289
1.04081
1.14885
1.26111
2.01244
3.35707
8.0754
11.5863
11.2146
10.9707
11.0491
11.2734
11.5096
11.653
11.7613
11.8478
11.9128
1.00001
1.00003
1.0001
1.00022
1.00064
1.0013
1.00372
1.00731
1.02257
1.04027
1.1467
1.25731
1.99566
3.31825
7.9708
11.5951
11.2118
10.9599
11.0395
11.265
11.501
11.6445
11.7543
11.8422
11.9087
1.00001
1.00003
1.0001
1.00022
1.00062
1.00127
1.00362
1.00712
1.02191
1.0392
1.14224
1.24948
1.95997
3.23461
7.73594
11.6125
11.2021
10.9282
11.0071
11.2309
11.4642
11.6052
11.7145
11.8016
11.8682
1.00001
1.00003
1.0001
1.00021
1.0006
1.00122
1.00347
1.00684
1.02092
1.03757
1.13551
1.23774
1.9064
3.10867
7.37308
11.6405
11.1888
10.8765
10.9519
11.1702
11.3992
11.5354
11.6411
11.726
11.7934
1.00001
1.00003
1.00009
1.0002
1.00057
1.00116
1.0033
1.00661
1.01958
1.03668
1.12459
1.22548
1.83254
2.94469
6.88391
11.6694
11.1739
10.8075
10.8765
11.0846
11.3083
11.438
11.5381
11.6195
11.6881
1.00001
1.00003
1.00009
1.00019
1.00053
1.00109
1.00308
1.00621
1.01803
1.03506
1.11233
1.21016
1.74817
2.75323
6.29098
11.6676
11.1506
10.7235
10.7823
10.9729
11.1877
11.3065
11.3959
11.4699
11.5402
1.00001
1.00002
1.00008
1.00017
1.00049
1.001
1.00282
1.0057
1.01643
1.03231
1.10071
1.19292
1.66168
2.55116
5.6375
11.5709
11.0871
10.6219
10.6684
10.8327
11.0316
11.134
11.2051
11.2617
11.326
1
1.00002
1.00007
1.00016
1.00044
1.00091
1.00256
1.00517
1.0149
1.02936
1.09109
1.17471
1.59512
2.39181
5.2041
11.1859
10.9117
10.5072
10.5351
10.6579
10.831
10.9079
10.9476
10.9681
11.0068
1
1.00002
1.00006
1.00014
1.00039
1.00081
1.00228
1.0046
1.01331
1.02601
1.08224
1.15228
1.53649
2.23115
4.77554
10.503
10.6091
10.4304
10.3935
10.4555
10.5833
10.6208
10.6087
10.5519
10.493
1
1.00002
1.00005
1.00012
1.00033
1.00067
1.00192
1.00373
1.01166
1.02033
1.07465
1.12532
1.48359
2.06302
4.33865
9.64944
10.4505
10.3325
10.2191
10.2404
10.2917
10.2721
10.1777
9.95188
9.5919
1.00001
1.00003
1.0001
1.00023
1.00065
1.00132
1.00377
1.00741
1.02289
1.04081
1.14885
1.26111
2.01244
3.35707
8.0754
11.5863
11.2146
10.9707
11.0491
11.2734
11.5096
11.653
11.7613
11.8478
11.9128
1.00001
1.00003
1.0001
1.00022
1.00064
1.0013
1.00372
1.00731
1.02257
1.04027
1.1467
1.25731
1.99566
3.31825
7.9708
11.5951
11.2118
10.9599
11.0395
11.265
11.501
11.6445
11.7543
11.8422
11.9087
1.00001
1.00003
1.0001
1.00022
1.00062
1.00127
1.00362
1.00712
1.02191
1.0392
1.14224
1.24948
1.95997
3.23461
7.73594
11.6125
11.2021
10.9282
11.0071
11.2309
11.4642
11.6052
11.7145
11.8016
11.8682
1.00001
1.00003
1.0001
1.00021
1.0006
1.00122
1.00347
1.00684
1.02092
1.03757
1.13551
1.23774
1.9064
3.10867
7.37308
11.6405
11.1888
10.8765
10.9519
11.1702
11.3992
11.5354
11.6411
11.726
11.7934
1.00001
1.00003
1.00009
1.0002
1.00057
1.00116
1.0033
1.00661
1.01958
1.03668
1.12459
1.22548
1.83254
2.94469
6.88391
11.6694
11.1739
10.8075
10.8765
11.0846
11.3083
11.438
11.5381
11.6195
11.6881
1.00001
1.00003
1.00009
1.00019
1.00053
1.00109
1.00308
1.00621
1.01803
1.03506
1.11233
1.21016
1.74817
2.75323
6.29098
11.6676
11.1506
10.7235
10.7823
10.9729
11.1877
11.3065
11.3959
11.4699
11.5402
1.00001
1.00002
1.00008
1.00017
1.00049
1.001
1.00282
1.0057
1.01643
1.03231
1.10071
1.19292
1.66168
2.55116
5.6375
11.5709
11.0871
10.6219
10.6684
10.8327
11.0316
11.134
11.2051
11.2617
11.326
1
1.00002
1.00007
1.00016
1.00044
1.00091
1.00256
1.00517
1.0149
1.02936
1.09109
1.17471
1.59512
2.39181
5.2041
11.1859
10.9117
10.5072
10.5351
10.6579
10.831
10.9079
10.9476
10.9681
11.0068
1
1.00002
1.00006
1.00014
1.00039
1.00081
1.00228
1.0046
1.01331
1.02601
1.08224
1.15228
1.53649
2.23115
4.77554
10.503
10.6091
10.4304
10.3935
10.4555
10.5833
10.6208
10.6087
10.5519
10.493
1
1.00002
1.00005
1.00012
1.00033
1.00067
1.00192
1.00373
1.01166
1.02033
1.07465
1.12532
1.48359
2.06302
4.33865
9.64944
10.4505
10.3325
10.2191
10.2404
10.2917
10.2721
10.1777
9.95188
9.5919
1.00001
1.00003
1.0001
1.00023
1.00065
1.00132
1.00377
1.00741
1.02289
1.04081
1.14885
1.26111
2.01244
3.35707
8.0754
11.5863
11.2146
10.9707
11.0491
11.2734
11.5096
11.653
11.7613
11.8478
11.9128
1.00001
1.00003
1.0001
1.00022
1.00064
1.0013
1.00372
1.00731
1.02257
1.04027
1.1467
1.25731
1.99566
3.31825
7.9708
11.5951
11.2118
10.9599
11.0395
11.265
11.501
11.6445
11.7543
11.8422
11.9087
1.00001
1.00003
1.0001
1.00022
1.00062
1.00127
1.00362
1.00712
1.02191
1.0392
1.14224
1.24948
1.95997
3.23461
7.73594
11.6125
11.2021
10.9282
11.0071
11.2309
11.4642
11.6052
11.7145
11.8016
11.8682
1.00001
1.00003
1.0001
1.00021
1.0006
1.00122
1.00347
1.00684
1.02092
1.03757
1.13551
1.23774
1.9064
3.10867
7.37308
11.6405
11.1888
10.8765
10.9519
11.1702
11.3992
11.5354
11.6411
11.726
11.7934
1.00001
1.00003
1.00009
1.0002
1.00057
1.00116
1.0033
1.00661
1.01958
1.03668
1.12459
1.22548
1.83254
2.94469
6.88391
11.6694
11.1739
10.8075
10.8765
11.0846
11.3083
11.438
11.5381
11.6195
11.6881
1.00001
1.00003
1.00009
1.00019
1.00053
1.00109
1.00308
1.00621
1.01803
1.03506
1.11233
1.21016
1.74817
2.75323
6.29098
11.6676
11.1506
10.7235
10.7823
10.9729
11.1877
11.3065
11.3959
11.4699
11.5402
1.00001
1.00002
1.00008
1.00017
1.00049
1.001
1.00282
1.0057
1.01643
1.03231
1.10071
1.19292
1.66168
2.55116
5.63749
11.5709
11.0871
10.6219
10.6684
10.8327
11.0316
11.134
11.2051
11.2617
11.326
1
1.00002
1.00007
1.00016
1.00044
1.00091
1.00256
1.00517
1.0149
1.02936
1.09109
1.17471
1.59512
2.39181
5.2041
11.1859
10.9117
10.5072
10.5351
10.6579
10.831
10.9079
10.9476
10.9681
11.0068
1
1.00002
1.00006
1.00014
1.00039
1.00081
1.00228
1.0046
1.01331
1.02601
1.08224
1.15228
1.53649
2.23115
4.77554
10.503
10.6091
10.4304
10.3935
10.4555
10.5833
10.6208
10.6087
10.5519
10.493
1
1.00002
1.00005
1.00012
1.00033
1.00067
1.00192
1.00373
1.01166
1.02033
1.07465
1.12532
1.48359
2.06302
4.33865
9.64944
10.4505
10.3325
10.2191
10.2404
10.2917
10.2721
10.1777
9.95188
9.5919
1.00001
1.00003
1.0001
1.00023
1.00065
1.00132
1.00377
1.00741
1.02289
1.04081
1.14885
1.26111
2.01243
3.35706
8.07537
11.5863
11.2146
10.9707
11.0491
11.2734
11.5096
11.653
11.7613
11.8478
11.9128
1.00001
1.00003
1.0001
1.00022
1.00064
1.0013
1.00372
1.00731
1.02257
1.04027
1.1467
1.25731
1.99566
3.31824
7.97077
11.5951
11.2118
10.9599
11.0395
11.265
11.501
11.6445
11.7543
11.8422
11.9087
1.00001
1.00003
1.0001
1.00022
1.00062
1.00127
1.00362
1.00712
1.02191
1.0392
1.14224
1.24948
1.95997
3.2346
7.73591
11.6125
11.2021
10.9282
11.0071
11.2309
11.4642
11.6052
11.7145
11.8016
11.8681
1.00001
1.00003
1.0001
1.00021
1.0006
1.00122
1.00347
1.00684
1.02092
1.03757
1.1355
1.23774
1.90639
3.10866
7.37305
11.6405
11.1888
10.8765
10.9519
11.1702
11.3992
11.5354
11.6411
11.726
11.7934
1.00001
1.00003
1.00009
1.0002
1.00057
1.00116
1.0033
1.00661
1.01958
1.03668
1.12459
1.22548
1.83254
2.94468
6.88388
11.6694
11.1739
10.8075
10.8765
11.0846
11.3083
11.438
11.5381
11.6195
11.6881
1.00001
1.00003
1.00009
1.00019
1.00053
1.00109
1.00308
1.00621
1.01803
1.03506
1.11233
1.21016
1.74817
2.75322
6.29095
11.6676
11.1506
10.7235
10.7823
10.9729
11.1877
11.3065
11.3959
11.4699
11.5402
1.00001
1.00002
1.00008
1.00017
1.00049
1.001
1.00282
1.0057
1.01643
1.03231
1.10071
1.19292
1.66167
2.55116
5.63748
11.5709
11.0871
10.6219
10.6684
10.8327
11.0316
11.134
11.2051
11.2617
11.326
1
1.00002
1.00007
1.00016
1.00044
1.00091
1.00256
1.00517
1.0149
1.02936
1.09109
1.17471
1.59512
2.39181
5.20409
11.1859
10.9117
10.5072
10.5351
10.6579
10.831
10.9079
10.9476
10.9681
11.0068
1
1.00002
1.00006
1.00014
1.00039
1.00081
1.00228
1.0046
1.01331
1.02601
1.08224
1.15228
1.53649
2.23115
4.77553
10.5029
10.6091
10.4304
10.3935
10.4555
10.5833
10.6208
10.6087
10.5519
10.493
1
1.00002
1.00005
1.00012
1.00033
1.00067
1.00192
1.00373
1.01166
1.02033
1.07465
1.12532
1.48359
2.06301
4.33864
9.64942
10.4505
10.3325
10.2191
10.2404
10.2917
10.2721
10.1777
9.95188
9.5919
1.00001
1.00003
1.0001
1.00022
1.00064
1.00131
1.00376
1.0074
1.02288
1.04079
1.14882
1.26106
2.01235
3.35678
8.07477
11.5864
11.2146
10.9706
11.049
11.2733
11.5096
11.6529
11.7613
11.8477
11.9128
1.00001
1.00003
1.0001
1.00022
1.00063
1.00129
1.00371
1.0073
1.02256
1.04025
1.14667
1.25725
1.99558
3.31796
7.97018
11.5952
11.2118
10.9598
11.0395
11.2649
11.501
11.6444
11.7543
11.8421
11.9087
1.00001
1.00003
1.0001
1.00021
1.00062
1.00126
1.00361
1.00711
1.02189
1.03918
1.14221
1.24942
1.95989
3.23433
7.73532
11.6126
11.2021
10.9281
11.007
11.2308
11.4641
11.6052
11.7145
11.8016
11.8681
1.00001
1.00003
1.00009
1.0002
1.00059
1.00121
1.00346
1.00683
1.02091
1.03755
1.13548
1.23769
1.90632
3.1084
7.37247
11.6406
11.1888
10.8764
10.9518
11.1702
11.3991
11.5354
11.6411
11.726
11.7933
1.00001
1.00002
1.00009
1.00019
1.00056
1.00116
1.00329
1.0066
1.01957
1.03665
1.12459
1.2254
1.83252
2.94446
6.88339
11.6694
11.1739
10.8074
10.8764
11.0845
11.3082
11.4379
11.5381
11.6194
11.6881
1.00001
1.00002
1.00008
1.00018
1.00053
1.00108
1.00307
1.0062
1.01802
1.03504
1.11232
1.2101
1.74813
2.75303
6.29051
11.6675
11.1506
10.7234
10.7823
10.9728
11.1877
11.3065
11.3958
11.4698
11.5402
1
1.00002
1.00008
1.00017
1.00048
1.00099
1.00281
1.00569
1.01642
1.03229
1.10069
1.19288
1.66164
2.55102
5.63723
11.5707
11.087
10.6218
10.6684
10.8326
11.0315
11.1339
11.205
11.2617
11.326
1
1.00002
1.00007
1.00015
1.00044
1.0009
1.00255
1.00516
1.01489
1.02935
1.09108
1.17467
1.5951
2.39169
5.20386
11.1856
10.9115
10.5072
10.535
10.6578
10.8309
10.9079
10.9475
10.968
11.0068
1
1.00002
1.00006
1.00013
1.00039
1.0008
1.00227
1.0046
1.0133
1.026
1.08223
1.15223
1.53648
2.23103
4.77535
10.5026
10.609
10.4304
10.3935
10.4554
10.5833
10.6207
10.6086
10.5518
10.4929
1
1.00001
1.00005
1.00011
1.00032
1.00066
1.00191
1.00372
1.01165
1.02031
1.07464
1.12528
1.48358
2.06289
4.3385
9.64905
10.4505
10.3325
10.2191
10.2404
10.2916
10.2721
10.1776
9.95182
9.59184
1
1.00001
1.00004
1.00012
1.00025
1.00072
1.00146
1.00421
1.00821
1.02574
1.04561
1.16626
1.29877
2.12541
3.67701
8.64802
10.3534
10.2449
10.0403
10.0059
9.97899
9.88143
9.61819
9.00817
7.47167
1
1.00001
1.00003
1.0001
1.00022
1.00062
1.00127
1.00362
1.00713
1.02192
1.03921
1.14182
1.2494
1.95145
3.20234
7.46595
10.2693
10.1486
9.87655
9.76065
9.66967
9.47278
9.05562
8.22195
6.62462
1
1.00001
1.00003
1.00009
1.00019
1.00054
1.0011
1.00312
1.00629
1.01831
1.0353
1.11465
1.21225
1.76003
2.76367
6.19625
10.1773
10.0504
9.73176
9.51932
9.36346
9.08471
8.5741
7.71871
6.41692
1
1.00001
1.00002
1.00007
1.00015
1.00044
1.00091
1.00257
1.00521
1.01495
1.02957
1.09018
1.1771
1.57998
2.35054
4.90468
9.90401
9.86882
9.61102
9.29667
9.07137
8.74843
8.22058
7.42988
6.37517
1
1.00001
1.00002
1.00006
1.00012
1.00036
1.00073
1.00206
1.00417
1.01205
1.02331
1.07427
1.13642
1.47543
2.07575
4.22414
9.08622
9.58271
9.424
9.09221
8.81245
8.46538
7.96306
7.25537
6.36767
1
1
1.00002
1.00004
1.00011
1.00024
1.00067
1.00136
1.00392
1.00758
1.02396
1.04179
1.15342
1.2699
2.03357
3.37382
7.66797
9.3023
9.20588
8.94022
8.59788
8.23103
7.75921
7.12775
6.36371
1
1
1.00001
1.00003
1.00009
1.00019
1.00055
1.00113
1.0032
1.00644
1.01883
1.0357
1.11827
1.21623
1.77625
2.78525
6.11969
9.12734
9.0683
8.83293
8.43104
8.04521
7.59345
7.02428
6.35456
0.999998
1
1.00001
1.00002
1.00007
1.00015
1.00042
1.00087
1.00246
1.00497
1.01425
1.02816
1.08568
1.16825
1.5444
2.25477
4.51702
8.772
8.93082
8.7459
8.33342
7.89954
7.45795
6.94166
6.34645
0.999996
0.999998
1
1.00002
1.00004
1.00013
1.00027
1.00076
1.00155
1.0044
1.00867
1.02638
1.04759
1.16746
1.30453
2.09363
3.56151
7.82635
8.70006
8.57206
8.24032
7.7812
7.34436
6.86989
6.33602
0.999995
0.999996
0.999999
1.00001
1.00003
1.00009
1.0002
1.00057
1.00116
1.00331
1.00652
1.01984
1.03558
1.12642
1.22221
1.82063
2.85588
6.20979
8.41957
8.37133
8.1527
7.70137
7.26025
6.81451
6.32897
0.999994
0.999994
0.999997
1
1.00002
1.00005
1.00017
1.00035
1.00098
1.00196
1.00576
1.01068
1.03558
1.06041
1.22129
1.43194
2.3842
4.41036
7.99075
8.2313
8.07516
7.68921
7.21173
6.7732
6.3234
0.999993
0.999993
0.999996
1
1.00001
1.00004
1.00012
1.00025
1.00072
1.00147
1.00416
1.00821
1.02479
1.04493
1.1565
1.28241
2.00485
3.29845
7.00054
8.02734
7.93334
7.658
7.19719
6.7521
6.32409
0.999992
0.999993
0.999994
0.999998
1
1.00003
1.00007
1.0002
1.00042
1.0012
1.00235
1.00715
1.01263
1.04483
1.0738
1.278
1.54813
2.75205
5.32382
7.70584
7.72509
7.58191
7.21615
6.75486
6.32832
0.999992
0.999992
0.999993
0.999996
1
1.00002
1.00005
1.00015
1.00031
1.00087
1.00178
1.00498
1.00998
1.02902
1.05533
1.17663
1.35177
2.10673
3.5647
7.07192
7.60854
7.5045
7.22021
6.77285
6.34234
0.999991
0.999992
0.999992
0.999994
0.999999
1.00001
1.00004
1.00008
1.00024
1.0005
1.00141
1.00285
1.00813
1.01574
1.04914
1.088
1.305
1.62574
2.89465
5.60309
7.3595
7.34776
7.19802
6.83385
6.37614
0.999991
0.999991
0.999992
0.999993
0.999996
1
1.00002
1.00005
1.00016
1.00034
1.00095
1.00194
1.00542
1.0107
1.03191
1.05803
1.19631
1.37469
2.18713
3.77868
6.84123
7.24384
7.14697
6.88387
6.43825
0.999991
0.999991
0.999991
0.999992
0.999994
0.999999
1.00001
1.00004
1.00009
1.00026
1.00055
1.00153
1.00309
1.00871
1.01722
1.05136
1.09767
1.31098
1.68371
2.91292
5.63276
7.0204
7.012
6.87306
6.54434
0.999991
0.999991
0.999991
0.999992
0.999993
0.999996
1
1.00002
1.00006
1.00017
1.00036
1.001
1.00203
1.00564
1.01114
1.03308
1.0603
1.20228
1.3884
2.21264
3.82693
6.51858
6.8995
6.82095
6.5943
0.999991
0.999991
0.999991
0.999991
0.999992
0.999994
0.999999
1.00001
1.00004
1.00009
1.00027
1.00056
1.00155
1.00314
1.00883
1.01751
1.05124
1.10137
1.30533
1.68153
2.84638
5.37145
6.66397
6.6813
6.57477
0.999991
0.99999
0.999991
0.999991
0.999991
0.999993
0.999995
1
1.00002
1.00007
1.00014
1.00041
1.00085
1.00234
1.00472
1.01326
1.02614
1.07733
1.15139
1.46193
2.02723
3.61785
6.14436
6.56678
6.51358
0.999991
0.99999
0.99999
0.999991
0.999991
0.999992
0.999993
0.999999
1.00001
1.00004
1.00009
1.00026
1.00054
1.00148
1.00301
1.00834
1.0166
1.04785
1.0941
1.28217
1.6201
2.6822
4.96768
6.31675
6.38817
0.999991
0.99999
0.99999
0.99999
0.999991
0.999991
0.999993
0.999995
1
1.00002
1.00006
1.00013
1.00038
1.00078
1.00214
1.00431
1.01199
1.02372
1.06871
1.13725
1.40166
1.89178
3.21638
5.75879
6.27225
0.999991
0.99999
0.99999
0.99999
0.99999
0.999991
0.999992
0.999993
0.999998
1.00001
1.00003
1.00008
1.00023
1.00048
1.00133
1.0027
1.00742
1.0148
1.04227
1.08174
1.24975
1.51837
2.4764
4.47751
5.97028
0.999991
0.99999
0.99999
0.99999
0.99999
0.999991
0.999991
0.999992
0.999995
1
1.00002
1.00004
1.00014
1.00029
1.00079
1.00162
1.00442
1.00887
1.02471
1.0489
1.14231
1.29057
1.83079
2.87855
5.28849
0.999991
0.99999
0.99999
0.99999
0.99999
0.99999
0.999991
0.999991
0.999993
0.999996
1.00001
1.00002
1.00008
1.00017
1.00048
1.00097
1.00266
1.00537
1.01489
1.02924
1.08684
1.16454
1.51671
2.11366
3.81455
0.999991
0.99999
0.99999
0.99999
0.99999
0.99999
0.99999
0.999991
0.999992
0.999994
0.999998
1.00001
1.00003
1.00011
1.00023
1.00065
1.00132
1.00362
1.00719
1.02062
1.03827
1.12238
1.22416
1.70606
2.51714
0.999991
0.99999
0.99999
0.99999
0.99999
0.99999
0.99999
0.999991
0.999991
0.999992
0.999996
1
1.00002
1.00005
1.00015
1.00032
1.00088
1.00179
1.00489
1.00962
1.02796
1.05102
1.16352
1.30731
1.90449
0.999991
0.99999
0.99999
0.99999
0.99999
0.99999
0.99999
0.99999
0.999991
0.999992
0.999993
0.999998
1.00001
1.00003
1.00007
1.00021
1.00044
1.00122
1.00245
1.00678
1.0133
1.03889
1.07266
1.22342
1.4622
0.999991
0.99999
0.99999
0.99999
0.99999
0.99999
0.99999
0.99999
0.99999
0.999991
0.999992
0.999995
0.999999
1.00001
1.00004
1.00012
1.00025
1.00069
1.00141
1.00382
1.00769
1.02122
1.04154
1.12177
1.23791
0.999991
0.99999
0.99999
0.99999
0.99999
0.99999
0.99999
0.99999
0.99999
0.999991
0.999991
0.999992
0.999996
1
1.00002
1.00005
1.00016
1.00033
1.0009
1.00182
1.00494
1.0098
1.02775
1.05177
1.15955
0.999991
0.99999
0.99999
0.99999
0.99999
0.99999
0.99999
0.99999
0.99999
0.99999
0.999991
0.999992
0.999993
0.999998
1.00001
1.00003
1.00007
1.00021
1.00044
1.00119
1.00241
1.00656
1.01307
1.03642
1.07329
0.999991
0.99999
0.99999
0.99999
0.99999
0.99999
0.99999
0.99999
0.99999
0.99999
0.999991
0.999991
0.999992
0.999994
1
1.00001
1.00004
1.0001
1.00028
1.00057
1.00154
1.0031
1.00842
1.01696
1.04629
0.999991
0.99999
0.99999
0.99999
0.99999
0.99999
0.99999
0.99999
0.99999
0.99999
0.99999
0.999991
0.999991
0.999992
0.999996
1
1.00002
1.00005
1.00015
1.00031
1.00083
1.00168
1.00449
1.00903
1.02435
0.999991
0.99999
0.99999
0.99999
0.99999
0.99999
0.99999
0.99999
0.99999
0.99999
0.99999
0.99999
0.999991
0.999991
0.999993
0.999997
1
1.00003
1.00006
1.00019
1.00039
1.00105
1.00213
1.00572
1.01138
0.999991
0.99999
0.99999
0.99999
0.99999
0.99999
0.99999
0.99999
0.99999
0.99999
0.99999
0.99999
0.999991
0.999991
0.999992
0.999994
0.999999
1.00001
1.00004
1.00009
1.00025
1.00052
1.0014
1.00283
1.00763
0.999991
0.99999
0.99999
0.99999
0.99999
0.99999
0.99999
0.99999
0.99999
0.99999
0.99999
0.99999
0.99999
0.999991
0.999991
0.999993
0.999995
1
1.00002
1.00006
1.00013
1.00037
1.00077
1.00209
1.00421
0.999991
0.99999
0.99999
0.99999
0.99999
0.99999
0.99999
0.99999
0.99999
0.99999
0.99999
0.99999
0.99999
0.99999
0.999991
0.999992
0.999994
0.999998
1.00001
1.00004
1.00012
1.00024
1.00069
1.00141
1.00395
0.999991
0.99999
0.99999
0.99999
0.99999
0.99999
0.99999
0.99999
0.99999
0.99999
0.99999
0.99999
0.99999
0.99999
0.999991
0.999991
0.999994
0.999997
1.00001
1.00003
1.0001
1.0002
1.00059
1.0012
1.00352
0.999991
0.99999
0.99999
0.99999
0.99999
0.99999
0.99999
0.99999
0.99999
0.99999
0.99999
0.99999
0.99999
0.99999
0.999991
0.999991
0.999993
0.999997
1
1.00003
1.00007
1.00022
1.00045
1.00135
1.00256
0.999991
0.99999
0.99999
0.99999
0.99999
0.99999
0.99999
0.99999
0.99999
0.99999
0.99999
0.99999
0.99999
0.99999
0.999991
0.999991
0.999993
0.999997
1
1.00003
1.00007
1.00022
1.00046
1.00136
1.00266
1
1.00002
1.00004
1.00012
1.00026
1.00072
1.00147
1.00421
1.00822
1.02575
1.04563
1.16628
1.29882
2.12545
3.67721
8.64839
10.3534
10.245
10.0404
10.0059
9.97904
9.88148
9.61824
9.00822
7.47171
1
1.00002
1.00004
1.00011
1.00022
1.00063
1.00128
1.00363
1.00714
1.02193
1.03923
1.14184
1.24945
1.9515
3.20253
7.46633
10.2693
10.1486
9.8766
9.7607
9.66972
9.47283
9.05567
8.22199
6.62466
1
1.00001
1.00003
1.00009
1.00019
1.00054
1.00111
1.00313
1.0063
1.01832
1.03532
1.11466
1.21231
1.76004
2.76383
6.1966
10.1773
10.0504
9.73181
9.51937
9.3635
9.08475
8.57414
7.71875
6.41695
1
1.00001
1.00003
1.00008
1.00016
1.00045
1.00092
1.00258
1.00522
1.01496
1.02958
1.09019
1.17713
1.58001
2.35066
4.90487
9.90419
9.86893
9.61106
9.29671
9.07142
8.74847
8.22062
7.42991
6.3752
1
1.00001
1.00002
1.00006
1.00013
1.00036
1.00074
1.00207
1.00418
1.01206
1.02333
1.07428
1.13647
1.47543
2.07585
4.22427
9.08654
9.5828
9.42407
9.09225
8.81249
8.46543
7.96309
7.2554
6.3677
1
1.00001
1.00002
1.00004
1.00012
1.00024
1.00068
1.00137
1.00393
1.0076
1.02397
1.04181
1.15344
1.26994
2.0336
3.374
7.66828
9.30237
9.20594
8.94026
8.59791
8.23107
7.75924
7.12778
6.36374
1
1
1.00002
1.00003
1.0001
1.0002
1.00056
1.00114
1.00321
1.00645
1.01884
1.03573
1.11828
1.21629
1.77625
2.7854
6.11999
9.12741
9.06835
8.83296
8.43108
8.04524
7.59348
7.02431
6.35459
1
1
1.00001
1.00003
1.00008
1.00015
1.00043
1.00088
1.00247
1.00498
1.01426
1.02817
1.0857
1.16829
1.54443
2.2549
4.51734
8.77208
8.93084
8.74593
8.33344
7.89956
7.45798
6.94168
6.34647
1
1
1.00001
1.00002
1.00005
1.00014
1.00028
1.00077
1.00156
1.00441
1.00868
1.02639
1.04761
1.16748
1.30457
2.09368
3.56166
7.82654
8.7001
8.57209
8.24034
7.78121
7.34437
6.86991
6.33604
1
1