/*--------------------------------*- C++ -*----------------------------------*\
| =========                 |                                                 |
| \\      /  F ield         | OpenFOAM: The Open Source CFD Toolbox           |
|  \\    /   O peration     | Version:  4.1                                   |
|   \\  /    A nd           | Web:      www.OpenFOAM.org                      |
|    \\/     M anipulation  |                                                 |
\*---------------------------------------------------------------------------*/
FoamFile
{
    version     2.0;
    format      ascii;
    class       volScalarField;
    location    "2.9";
    object      p;
}
// * * * * * * * * * * * * * * * * * * * * * * * * * * * * * * * * * * * * * //

dimensions      [1 -1 -2 0 0 0 0];

internalField   nonuniform List<scalar> 
52500
(
1.00001
1.00003
1.0001
1.00022
1.00063
1.00129
1.00368
1.00725
1.02236
1.03996
1.14525
1.25483
1.98311
3.28854
7.8874
11.6368
11.2317
10.9704
11.0497
11.2783
11.5173
11.6654
11.7745
11.8605
11.9264
1.00001
1.00003
1.0001
1.00021
1.00062
1.00127
1.00363
1.00716
1.02204
1.03943
1.14312
1.25105
1.96651
3.25001
7.78194
11.646
11.2288
10.9595
11.0401
11.2698
11.5087
11.6569
11.7675
11.8551
11.9224
1.00001
1.00003
1.0001
1.00021
1.0006
1.00123
1.00353
1.00697
1.02139
1.03835
1.13868
1.24328
1.93119
3.16713
7.54594
11.664
11.2193
10.9278
11.0075
11.2357
11.4719
11.6176
11.7276
11.8144
11.882
1.00001
1.00003
1.00009
1.0002
1.00058
1.00119
1.0034
1.00675
1.02039
1.03722
1.13121
1.23285
1.87657
3.04256
7.18104
11.6911
11.2071
10.8763
10.9524
11.1748
11.4069
11.5478
11.6539
11.7385
11.8074
1.00001
1.00002
1.00009
1.00019
1.00055
1.00114
1.00323
1.00651
1.01907
1.03632
1.12047
1.22082
1.80463
2.8824
6.69616
11.712
11.192
10.8078
10.877
11.0888
11.3157
11.45
11.5506
11.6314
11.7017
1
1.00002
1.00008
1.00018
1.00052
1.00106
1.00301
1.00607
1.0176
1.03441
1.1091
1.20558
1.72442
2.69795
6.11604
11.6875
11.1616
10.7239
10.7828
10.9767
11.1945
11.3177
11.4078
11.4808
11.553
1
1.00002
1.00007
1.00016
1.00047
1.00097
1.00276
1.00559
1.01611
1.03175
1.0985
1.18993
1.64566
2.51487
5.54396
11.5224
11.0786
10.6215
10.6682
10.8352
11.0372
11.1438
11.2161
11.2714
11.3375
1
1.00002
1.00007
1.00015
1.00043
1.00088
1.00251
1.00507
1.01462
1.02882
1.08941
1.17137
1.58354
2.36388
5.12412
11.0831
10.8818
10.5077
10.5357
10.6598
10.8351
10.9157
10.9571
10.9762
11.0165
1
1.00002
1.00006
1.00013
1.00038
1.00078
1.00222
1.00448
1.01304
1.02498
1.08143
1.14719
1.5288
2.20543
4.70964
10.389
10.6026
10.4331
10.3951
10.4576
10.5866
10.6271
10.6158
10.559
10.501
1
1.00001
1.00005
1.00011
1.00032
1.00065
1.00188
1.00364
1.01145
1.01989
1.07339
1.12251
1.47675
2.03793
4.28517
9.5268
10.4497
10.3361
10.22
10.242
10.2947
10.2765
10.1837
9.95859
9.5983
1.00001
1.00003
1.0001
1.00022
1.00063
1.00129
1.00369
1.00726
1.02237
1.03997
1.14527
1.25488
1.98319
3.28882
7.88799
11.6367
11.2317
10.9705
11.0498
11.2784
11.5173
11.6655
11.7746
11.8606
11.9264
1.00001
1.00003
1.0001
1.00022
1.00062
1.00128
1.00364
1.00717
1.02205
1.03945
1.14314
1.25111
1.96658
3.25027
7.78251
11.6459
11.2288
10.9596
11.0402
11.2699
11.5088
11.657
11.7676
11.8551
11.9224
1.00001
1.00003
1.0001
1.00021
1.00061
1.00124
1.00354
1.00698
1.0214
1.03837
1.1387
1.24333
1.93126
3.16738
7.5465
11.6639
11.2194
10.9279
11.0076
11.2357
11.472
11.6177
11.7276
11.8144
11.8821
1.00001
1.00003
1.0001
1.00021
1.00059
1.0012
1.00341
1.00676
1.0204
1.03725
1.13121
1.23293
1.87658
3.04278
7.18151
11.6911
11.2072
10.8764
10.9525
11.1748
11.407
11.5478
11.654
11.7385
11.8074
1.00001
1.00003
1.00009
1.0002
1.00056
1.00115
1.00324
1.00652
1.01908
1.03634
1.12047
1.22089
1.80464
2.88258
6.69657
11.712
11.1921
10.8079
10.8771
11.0889
11.3158
11.4501
11.5507
11.6315
11.7018
1.00001
1.00003
1.00008
1.00018
1.00052
1.00107
1.00302
1.00608
1.01761
1.03443
1.10911
1.20563
1.72445
2.69811
6.11642
11.6876
11.1617
10.724
10.7829
10.9767
11.1946
11.3178
11.4079
11.4809
11.5531
1.00001
1.00002
1.00008
1.00017
1.00048
1.00098
1.00277
1.0056
1.01612
1.03176
1.09851
1.18996
1.64569
2.515
5.5442
11.5226
11.0787
10.6215
10.6683
10.8353
11.0372
11.1438
11.2162
11.2715
11.3376
1
1.00002
1.00007
1.00015
1.00044
1.00089
1.00251
1.00508
1.01463
1.02884
1.08943
1.17141
1.58357
2.36399
5.12433
11.0834
10.8819
10.5077
10.5358
10.6599
10.8352
10.9158
10.9571
10.9763
11.0165
1
1.00002
1.00006
1.00014
1.00039
1.00079
1.00223
1.00449
1.01304
1.025
1.08143
1.14725
1.5288
2.20555
4.7098
10.3894
10.6027
10.4332
10.3952
10.4577
10.5866
10.6271
10.6159
10.5591
10.5011
1
1.00002
1.00005
1.00011
1.00032
1.00066
1.00188
1.00365
1.01145
1.0199
1.0734
1.12255
1.47676
2.03805
4.2853
9.52717
10.4497
10.3362
10.22
10.242
10.2948
10.2766
10.1837
9.95864
9.59835
1.00001
1.00003
1.0001
1.00022
1.00063
1.00129
1.00369
1.00726
1.02237
1.03997
1.14527
1.25488
1.98319
3.28883
7.88802
11.6367
11.2317
10.9705
11.0498
11.2784
11.5173
11.6655
11.7746
11.8606
11.9264
1.00001
1.00003
1.0001
1.00022
1.00062
1.00128
1.00364
1.00717
1.02205
1.03945
1.14314
1.25111
1.96659
3.25028
7.78254
11.6459
11.2288
10.9596
11.0402
11.2699
11.5088
11.657
11.7676
11.8551
11.9224
1.00001
1.00003
1.0001
1.00021
1.00061
1.00124
1.00354
1.00698
1.0214
1.03837
1.1387
1.24333
1.93126
3.16739
7.54653
11.6639
11.2194
10.9279
11.0076
11.2357
11.472
11.6177
11.7276
11.8144
11.8821
1.00001
1.00003
1.0001
1.00021
1.00059
1.0012
1.00341
1.00676
1.0204
1.03725
1.13121
1.23293
1.87658
3.04279
7.18154
11.6911
11.2072
10.8764
10.9525
11.1748
11.407
11.5478
11.654
11.7385
11.8074
1.00001
1.00003
1.00009
1.0002
1.00056
1.00115
1.00324
1.00652
1.01908
1.03634
1.12047
1.22089
1.80465
2.88259
6.6966
11.712
11.1921
10.8079
10.8771
11.0889
11.3158
11.4501
11.5507
11.6315
11.7018
1.00001
1.00003
1.00008
1.00018
1.00052
1.00107
1.00302
1.00608
1.01761
1.03443
1.10911
1.20563
1.72445
2.69812
6.11644
11.6876
11.1617
10.724
10.7829
10.9767
11.1946
11.3178
11.4079
11.4809
11.5531
1.00001
1.00002
1.00008
1.00017
1.00048
1.00098
1.00277
1.0056
1.01612
1.03176
1.09851
1.18996
1.6457
2.51501
5.54421
11.5226
11.0787
10.6215
10.6683
10.8353
11.0372
11.1438
11.2162
11.2715
11.3376
1
1.00002
1.00007
1.00015
1.00044
1.00089
1.00251
1.00508
1.01463
1.02884
1.08943
1.17141
1.58357
2.364
5.12434
11.0835
10.8819
10.5077
10.5358
10.6599
10.8352
10.9158
10.9571
10.9763
11.0165
1
1.00002
1.00006
1.00014
1.00039
1.00079
1.00223
1.00449
1.01304
1.025
1.08143
1.14725
1.5288
2.20555
4.70981
10.3894
10.6027
10.4332
10.3952
10.4577
10.5866
10.6271
10.6159
10.5591
10.5011
1
1.00002
1.00005
1.00011
1.00032
1.00066
1.00188
1.00365
1.01145
1.0199
1.0734
1.12255
1.47676
2.03806
4.28531
9.52719
10.4497
10.3362
10.22
10.242
10.2948
10.2766
10.1837
9.95865
9.59835
1.00001
1.00003
1.0001
1.00022
1.00063
1.00129
1.00369
1.00726
1.02237
1.03997
1.14527
1.25488
1.98319
3.28883
7.88802
11.6367
11.2317
10.9705
11.0498
11.2784
11.5173
11.6655
11.7746
11.8606
11.9264
1.00001
1.00003
1.0001
1.00022
1.00062
1.00128
1.00364
1.00717
1.02205
1.03945
1.14314
1.25111
1.96659
3.25028
7.78254
11.6459
11.2288
10.9596
11.0402
11.2699
11.5088
11.657
11.7676
11.8551
11.9224
1.00001
1.00003
1.0001
1.00021
1.00061
1.00124
1.00354
1.00698
1.0214
1.03837
1.1387
1.24333
1.93126
3.16739
7.54653
11.6639
11.2194
10.9279
11.0076
11.2357
11.472
11.6177
11.7276
11.8144
11.8821
1.00001
1.00003
1.0001
1.00021
1.00059
1.0012
1.00341
1.00676
1.0204
1.03725
1.13121
1.23293
1.87658
3.04279
7.18154
11.6911
11.2072
10.8764
10.9525
11.1748
11.407
11.5478
11.654
11.7385
11.8074
1.00001
1.00003
1.00009
1.0002
1.00056
1.00115
1.00324
1.00652
1.01908
1.03634
1.12047
1.22089
1.80465
2.88259
6.6966
11.712
11.1921
10.8079
10.8771
11.0889
11.3158
11.4501
11.5507
11.6315
11.7018
1.00001
1.00003
1.00008
1.00018
1.00052
1.00107
1.00302
1.00608
1.01761
1.03443
1.10911
1.20563
1.72445
2.69812
6.11644
11.6876
11.1617
10.724
10.7829
10.9767
11.1946
11.3178
11.4079
11.4809
11.5531
1.00001
1.00002
1.00008
1.00017
1.00048
1.00098
1.00277
1.0056
1.01612
1.03176
1.09851
1.18996
1.6457
2.51501
5.54421
11.5226
11.0787
10.6215
10.6683
10.8353
11.0372
11.1438
11.2162
11.2715
11.3376
1
1.00002
1.00007
1.00015
1.00044
1.00089
1.00251
1.00508
1.01463
1.02884
1.08943
1.17141
1.58357
2.364
5.12434
11.0835
10.8819
10.5077
10.5358
10.6599
10.8352
10.9158
10.9571
10.9763
11.0165
1
1.00002
1.00006
1.00014
1.00039
1.00079
1.00223
1.00449
1.01304
1.025
1.08143
1.14725
1.5288
2.20555
4.70981
10.3894
10.6027
10.4332
10.3952
10.4577
10.5866
10.6272
10.6159
10.5591
10.5011
1
1.00002
1.00005
1.00011
1.00032
1.00066
1.00188
1.00365
1.01145
1.0199
1.0734
1.12255
1.47676
2.03806
4.28531
9.52719
10.4497
10.3362
10.22
10.242
10.2948
10.2766
10.1837
9.95865
9.59836
1.00001
1.00003
1.0001
1.00022
1.00063
1.00129
1.00369
1.00726
1.02237
1.03997
1.14527
1.25488
1.98319
3.28883
7.88802
11.6367
11.2317
10.9705
11.0498
11.2784
11.5173
11.6655
11.7746
11.8606
11.9264
1.00001
1.00003
1.0001
1.00022
1.00062
1.00128
1.00364
1.00717
1.02205
1.03945
1.14314
1.25111
1.96659
3.25028
7.78254
11.6459
11.2288
10.9596
11.0402
11.2699
11.5088
11.657
11.7676
11.8551
11.9224
1.00001
1.00003
1.0001
1.00021
1.00061
1.00124
1.00354
1.00698
1.0214
1.03837
1.1387
1.24333
1.93126
3.16739
7.54653
11.6639
11.2194
10.9279
11.0076
11.2357
11.472
11.6177
11.7276
11.8144
11.8821
1.00001
1.00003
1.0001
1.00021
1.00059
1.0012
1.00341
1.00676
1.0204
1.03725
1.13121
1.23293
1.87658
3.04279
7.18154
11.6911
11.2072
10.8764
10.9525
11.1748
11.407
11.5478
11.654
11.7385
11.8074
1.00001
1.00003
1.00009
1.0002
1.00056
1.00115
1.00324
1.00652
1.01908
1.03634
1.12047
1.22089
1.80465
2.88259
6.6966
11.712
11.1921
10.8079
10.8771
11.0889
11.3158
11.4501
11.5507
11.6315
11.7018
1.00001
1.00003
1.00008
1.00018
1.00052
1.00107
1.00302
1.00608
1.01761
1.03443
1.10911
1.20563
1.72445
2.69812
6.11644
11.6876
11.1617
10.724
10.7829
10.9767
11.1946
11.3178
11.4079
11.4809
11.5531
1.00001
1.00002
1.00008
1.00017
1.00048
1.00098
1.00277
1.0056
1.01612
1.03176
1.09851
1.18996
1.6457
2.51501
5.54421
11.5226
11.0787
10.6215
10.6683
10.8353
11.0372
11.1438
11.2162
11.2715
11.3376
1
1.00002
1.00007
1.00015
1.00044
1.00089
1.00251
1.00508
1.01463
1.02884
1.08943
1.17141
1.58357
2.364
5.12435
11.0835
10.8819
10.5077
10.5358
10.6599
10.8352
10.9158
10.9571
10.9763
11.0165
1
1.00002
1.00006
1.00014
1.00039
1.00079
1.00223
1.00449
1.01304
1.025
1.08143
1.14725
1.5288
2.20555
4.70981
10.3894
10.6027
10.4332
10.3952
10.4577
10.5866
10.6272
10.6159
10.5591
10.5011
1
1.00002
1.00005
1.00011
1.00032
1.00066
1.00188
1.00365
1.01145
1.0199
1.0734
1.12255
1.47676
2.03806
4.28531
9.52719
10.4497
10.3362
10.22
10.242
10.2948
10.2766
10.1837
9.95865
9.59836
1.00001
1.00003
1.0001
1.00022
1.00063
1.00129
1.00369
1.00726
1.02237
1.03997
1.14527
1.25488
1.98319
3.28883
7.88802
11.6367
11.2317
10.9705
11.0498
11.2784
11.5173
11.6655
11.7746
11.8606
11.9264
1.00001
1.00003
1.0001
1.00022
1.00062
1.00128
1.00364
1.00717
1.02205
1.03945
1.14314
1.25111
1.96659
3.25028
7.78254
11.6459
11.2288
10.9596
11.0402
11.2699
11.5088
11.657
11.7676
11.8551
11.9224
1.00001
1.00003
1.0001
1.00021
1.00061
1.00124
1.00354
1.00698
1.0214
1.03837
1.1387
1.24333
1.93126
3.16739
7.54653
11.6639
11.2194
10.9279
11.0076
11.2357
11.472
11.6177
11.7276
11.8144
11.8821
1.00001
1.00003
1.0001
1.00021
1.00059
1.0012
1.00341
1.00676
1.0204
1.03725
1.13121
1.23293
1.87658
3.04279
7.18154
11.6911
11.2072
10.8764
10.9525
11.1748
11.407
11.5478
11.654
11.7385
11.8074
1.00001
1.00003
1.00009
1.0002
1.00056
1.00115
1.00324
1.00652
1.01908
1.03634
1.12047
1.22089
1.80465
2.88259
6.6966
11.712
11.1921
10.8079
10.8771
11.0889
11.3158
11.4501
11.5507
11.6315
11.7018
1.00001
1.00003
1.00008
1.00018
1.00052
1.00107
1.00302
1.00608
1.01761
1.03443
1.10911
1.20563
1.72445
2.69812
6.11644
11.6876
11.1617
10.724
10.7829
10.9767
11.1946
11.3178
11.4079
11.4809
11.5531
1.00001
1.00002
1.00008
1.00017
1.00048
1.00098
1.00277
1.0056
1.01612
1.03176
1.09851
1.18996
1.6457
2.51501
5.54421
11.5226
11.0787
10.6215
10.6683
10.8353
11.0372
11.1438
11.2162
11.2715
11.3376
1
1.00002
1.00007
1.00015
1.00044
1.00089
1.00251
1.00508
1.01463
1.02884
1.08943
1.17141
1.58357
2.364
5.12435
11.0835
10.8819
10.5077
10.5358
10.6599
10.8352
10.9158
10.9571
10.9763
11.0165
1
1.00002
1.00006
1.00014
1.00039
1.00079
1.00223
1.00449
1.01304
1.025
1.08143
1.14725
1.5288
2.20555
4.70981
10.3894
10.6027
10.4332
10.3952
10.4577
10.5866
10.6272
10.6159
10.5591
10.5011
1
1.00002
1.00005
1.00011
1.00032
1.00066
1.00188
1.00365
1.01145
1.0199
1.0734
1.12255
1.47676
2.03806
4.28531
9.52719
10.4497
10.3362
10.22
10.242
10.2948
10.2766
10.1837
9.95865
9.59836
1.00001
1.00003
1.0001
1.00022
1.00063
1.00129
1.00369
1.00726
1.02237
1.03997
1.14527
1.25488
1.98319
3.28883
7.88802
11.6367
11.2317
10.9705
11.0498
11.2784
11.5173
11.6655
11.7746
11.8606
11.9264
1.00001
1.00003
1.0001
1.00022
1.00062
1.00128
1.00364
1.00717
1.02205
1.03945
1.14314
1.25111
1.96659
3.25028
7.78254
11.6459
11.2288
10.9596
11.0402
11.2699
11.5088
11.657
11.7676
11.8551
11.9224
1.00001
1.00003
1.0001
1.00021
1.00061
1.00124
1.00354
1.00698
1.0214
1.03837
1.1387
1.24333
1.93126
3.16739
7.54653
11.6639
11.2194
10.9279
11.0076
11.2357
11.472
11.6177
11.7276
11.8144
11.8821
1.00001
1.00003
1.0001
1.00021
1.00059
1.0012
1.00341
1.00676
1.0204
1.03725
1.13121
1.23293
1.87658
3.04279
7.18154
11.6911
11.2072
10.8764
10.9525
11.1748
11.407
11.5478
11.654
11.7385
11.8074
1.00001
1.00003
1.00009
1.0002
1.00056
1.00115
1.00324
1.00652
1.01908
1.03634
1.12047
1.22089
1.80465
2.88259
6.6966
11.712
11.1921
10.8079
10.8771
11.0889
11.3158
11.4501
11.5507
11.6315
11.7018
1.00001
1.00003
1.00008
1.00018
1.00052
1.00107
1.00302
1.00608
1.01761
1.03443
1.10911
1.20563
1.72445
2.69812
6.11644
11.6876
11.1617
10.724
10.7829
10.9767
11.1946
11.3178
11.4079
11.4809
11.5531
1.00001
1.00002
1.00008
1.00017
1.00048
1.00098
1.00277
1.0056
1.01612
1.03176
1.09851
1.18996
1.6457
2.51501
5.54421
11.5226
11.0787
10.6215
10.6683
10.8353
11.0372
11.1438
11.2162
11.2715
11.3376
1
1.00002
1.00007
1.00015
1.00044
1.00089
1.00251
1.00508
1.01463
1.02884
1.08943
1.17141
1.58357
2.364
5.12434
11.0835
10.8819
10.5077
10.5358
10.6599
10.8352
10.9158
10.9571
10.9763
11.0165
1
1.00002
1.00006
1.00014
1.00039
1.00079
1.00223
1.00449
1.01304
1.025
1.08143
1.14725
1.5288
2.20555
4.70981
10.3894
10.6027
10.4332
10.3952
10.4577
10.5866
10.6272
10.6159
10.5591
10.5011
1
1.00002
1.00005
1.00011
1.00032
1.00066
1.00188
1.00365
1.01145
1.0199
1.0734
1.12255
1.47676
2.03806
4.28531
9.52719
10.4497
10.3362
10.22
10.242
10.2948
10.2766
10.1837
9.95865
9.59836
1.00001
1.00003
1.0001
1.00022
1.00063
1.00129
1.00369
1.00726
1.02237
1.03997
1.14527
1.25488
1.98319
3.28883
7.88802
11.6367
11.2317
10.9705
11.0498
11.2784
11.5173
11.6655
11.7746
11.8606
11.9264
1.00001
1.00003
1.0001
1.00022
1.00062
1.00128
1.00364
1.00717
1.02205
1.03945
1.14314
1.25111
1.96659
3.25028
7.78254
11.6459
11.2288
10.9596
11.0402
11.2699
11.5088
11.657
11.7676
11.8551
11.9224
1.00001
1.00003
1.0001
1.00021
1.00061
1.00124
1.00354
1.00698
1.0214
1.03837
1.1387
1.24333
1.93126
3.16739
7.54653
11.6639
11.2194
10.9279
11.0076
11.2357
11.472
11.6177
11.7276
11.8144
11.8821
1.00001
1.00003
1.0001
1.00021
1.00059
1.0012
1.00341
1.00676
1.0204
1.03725
1.13121
1.23293
1.87658
3.04279
7.18154
11.6911
11.2072
10.8764
10.9525
11.1748
11.407
11.5478
11.654
11.7385
11.8074
1.00001
1.00003
1.00009
1.0002
1.00056
1.00115
1.00324
1.00652
1.01908
1.03634
1.12047
1.22089
1.80465
2.88259
6.6966
11.712
11.1921
10.8079
10.8771
11.0889
11.3158
11.4501
11.5507
11.6315
11.7018
1.00001
1.00003
1.00008
1.00018
1.00052
1.00107
1.00302
1.00608
1.01761
1.03443
1.10911
1.20563
1.72445
2.69812
6.11644
11.6876
11.1617
10.724
10.7829
10.9767
11.1946
11.3178
11.4079
11.4809
11.5531
1.00001
1.00002
1.00008
1.00017
1.00048
1.00098
1.00277
1.0056
1.01612
1.03176
1.09851
1.18996
1.6457
2.51501
5.54421
11.5226
11.0787
10.6215
10.6683
10.8353
11.0372
11.1438
11.2162
11.2715
11.3376
1
1.00002
1.00007
1.00015
1.00044
1.00089
1.00251
1.00508
1.01463
1.02884
1.08943
1.17141
1.58357
2.364
5.12434
11.0835
10.8819
10.5077
10.5358
10.6599
10.8352
10.9158
10.9571
10.9763
11.0165
1
1.00002
1.00006
1.00014
1.00039
1.00079
1.00223
1.00449
1.01304
1.025
1.08143
1.14725
1.5288
2.20555
4.70981
10.3894
10.6027
10.4332
10.3952
10.4577
10.5866
10.6271
10.6159
10.5591
10.5011
1
1.00002
1.00005
1.00011
1.00032
1.00066
1.00188
1.00365
1.01145
1.0199
1.0734
1.12255
1.47676
2.03806
4.28531
9.52719
10.4497
10.3362
10.22
10.242
10.2948
10.2766
10.1837
9.95865
9.59835
1.00001
1.00003
1.0001
1.00022
1.00063
1.00129
1.00369
1.00726
1.02237
1.03997
1.14527
1.25488
1.98319
3.28882
7.88799
11.6367
11.2317
10.9705
11.0498
11.2784
11.5173
11.6655
11.7746
11.8606
11.9264
1.00001
1.00003
1.0001
1.00022
1.00062
1.00128
1.00364
1.00717
1.02205
1.03945
1.14314
1.25111
1.96658
3.25027
7.78251
11.6459
11.2288
10.9596
11.0402
11.2699
11.5088
11.657
11.7676
11.8551
11.9224
1.00001
1.00003
1.0001
1.00021
1.00061
1.00124
1.00354
1.00698
1.0214
1.03837
1.1387
1.24333
1.93126
3.16738
7.5465
11.6639
11.2194
10.9279
11.0076
11.2357
11.472
11.6177
11.7276
11.8144
11.8821
1.00001
1.00003
1.0001
1.00021
1.00059
1.0012
1.00341
1.00676
1.0204
1.03725
1.13121
1.23293
1.87658
3.04278
7.18151
11.6911
11.2072
10.8764
10.9525
11.1748
11.407
11.5478
11.654
11.7385
11.8074
1.00001
1.00003
1.00009
1.0002
1.00056
1.00115
1.00324
1.00652
1.01908
1.03634
1.12047
1.22089
1.80464
2.88258
6.69657
11.712
11.1921
10.8079
10.8771
11.0889
11.3158
11.4501
11.5507
11.6315
11.7018
1.00001
1.00003
1.00008
1.00018
1.00052
1.00107
1.00302
1.00608
1.01761
1.03443
1.10911
1.20563
1.72445
2.69811
6.11642
11.6876
11.1617
10.724
10.7829
10.9767
11.1946
11.3178
11.4079
11.4809
11.5531
1.00001
1.00002
1.00008
1.00017
1.00048
1.00098
1.00277
1.0056
1.01612
1.03176
1.09851
1.18996
1.64569
2.515
5.5442
11.5226
11.0787
10.6215
10.6683
10.8353
11.0372
11.1438
11.2162
11.2715
11.3376
1
1.00002
1.00007
1.00015
1.00044
1.00089
1.00251
1.00508
1.01463
1.02884
1.08943
1.17141
1.58357
2.36399
5.12433
11.0834
10.8819
10.5077
10.5358
10.6599
10.8352
10.9158
10.9571
10.9763
11.0165
1
1.00002
1.00006
1.00014
1.00039
1.00079
1.00223
1.00449
1.01304
1.025
1.08143
1.14725
1.5288
2.20555
4.7098
10.3894
10.6027
10.4332
10.3952
10.4577
10.5866
10.6271
10.6159
10.5591
10.5011
1
1.00002
1.00005
1.00011
1.00032
1.00066
1.00188
1.00365
1.01145
1.0199
1.0734
1.12255
1.47676
2.03805
4.2853
9.52717
10.4497
10.3362
10.22
10.242
10.2948
10.2766
10.1837
9.95864
9.59835
1.00001
1.00003
1.0001
1.00022
1.00063
1.00129
1.00368
1.00725
1.02236
1.03996
1.14525
1.25483
1.98311
3.28854
7.88741
11.6368
11.2317
10.9704
11.0497
11.2783
11.5173
11.6654
11.7745
11.8605
11.9264
1.00001
1.00003
1.0001
1.00021
1.00062
1.00127
1.00363
1.00716
1.02204
1.03943
1.14312
1.25105
1.96651
3.25001
7.78194
11.646
11.2288
10.9595
11.0401
11.2698
11.5087
11.6569
11.7675
11.8551
11.9224
1.00001
1.00003
1.0001
1.00021
1.0006
1.00123
1.00353
1.00697
1.02139
1.03835
1.13868
1.24328
1.93119
3.16713
7.54594
11.664
11.2193
10.9278
11.0075
11.2357
11.4719
11.6176
11.7276
11.8144
11.882
1.00001
1.00003
1.00009
1.0002
1.00058
1.00119
1.0034
1.00675
1.02039
1.03722
1.13121
1.23285
1.87657
3.04256
7.18104
11.6911
11.2071
10.8763
10.9524
11.1748
11.4069
11.5478
11.6539
11.7385
11.8074
1.00001
1.00002
1.00009
1.00019
1.00055
1.00114
1.00323
1.00651
1.01907
1.03632
1.12047
1.22082
1.80463
2.8824
6.69616
11.712
11.192
10.8078
10.877
11.0888
11.3157
11.45
11.5506
11.6314
11.7017
1
1.00002
1.00008
1.00018
1.00052
1.00106
1.00301
1.00607
1.0176
1.03441
1.1091
1.20558
1.72442
2.69795
6.11604
11.6875
11.1616
10.7239
10.7828
10.9767
11.1945
11.3177
11.4078
11.4808
11.553
1
1.00002
1.00007
1.00016
1.00047
1.00097
1.00276
1.00559
1.01611
1.03175
1.0985
1.18993
1.64566
2.51487
5.54396
11.5224
11.0786
10.6215
10.6682
10.8352
11.0371
11.1438
11.2161
11.2714
11.3375
1
1.00002
1.00007
1.00015
1.00043
1.00088
1.00251
1.00507
1.01462
1.02882
1.08941
1.17137
1.58354
2.36388
5.12412
11.0831
10.8818
10.5077
10.5357
10.6598
10.8351
10.9157
10.9571
10.9762
11.0165
1
1.00002
1.00006
1.00013
1.00038
1.00078
1.00222
1.00448
1.01304
1.02498
1.08143
1.14719
1.5288
2.20543
4.70964
10.389
10.6026
10.4331
10.3951
10.4576
10.5866
10.6271
10.6158
10.559
10.501
1
1.00001
1.00005
1.00011
1.00032
1.00065
1.00188
1.00364
1.01145
1.01989
1.07339
1.12251
1.47675
2.03793
4.28517
9.5268
10.4497
10.3361
10.22
10.242
10.2947
10.2765
10.1837
9.95859
9.5983
1
1.00001
1.00004
1.00012
1.00024
1.0007
1.00143
1.00413
1.00804
1.02532
1.04466
1.16353
1.29249
2.10892
3.62435
8.52094
10.3554
10.2483
10.0393
10.0065
9.98113
9.88543
9.62377
9.01449
7.47605
1
1.00001
1.00003
1.0001
1.00021
1.00061
1.00125
1.00357
1.00703
1.02156
1.03863
1.13937
1.24518
1.93184
3.15637
7.33752
10.2747
10.1515
9.87469
9.76081
9.6716
9.47672
9.06123
8.22856
6.62693
1
1.00001
1.00003
1.00009
1.00018
1.00053
1.00108
1.00307
1.0062
1.01799
1.03493
1.11205
1.20903
1.74177
2.7222
6.06714
10.1681
10.0451
9.73211
9.52082
9.36644
9.08901
8.57885
7.72347
6.41805
1
1.00001
1.00002
1.00007
1.00015
1.00044
1.0009
1.00254
1.00513
1.01472
1.02914
1.08855
1.17486
1.56832
2.32443
4.8394
9.84675
9.84054
9.61296
9.30017
9.07438
8.7521
8.22462
7.4334
6.37736
1
1.00001
1.00002
1.00006
1.00012
1.00035
1.00071
1.00202
1.00407
1.01184
1.02251
1.07346
1.13253
1.46804
2.05387
4.16508
8.97161
9.56375
9.41561
9.09744
8.81555
8.46818
7.96629
7.25866
6.37041
1
1
1.00002
1.00004
1.00011
1.00023
1.00066
1.00134
1.00386
1.00747
1.02357
1.04113
1.15084
1.26508
2.01395
3.32532
7.54711
9.29096
9.20021
8.94395
8.60004
8.23315
7.76231
7.13107
6.36659
1
1
1.00001
1.00003
1.00009
1.00019
1.00055
1.00112
1.00315
1.00636
1.01848
1.03541
1.11544
1.21296
1.75727
2.74307
5.99506
9.10558
9.05781
8.83777
8.43437
8.04848
7.59708
7.02782
6.35779
0.999998
0.999999
1.00001
1.00002
1.00007
1.00014
1.00042
1.00086
1.00242
1.00489
1.01401
1.02771
1.08397
1.16584
1.53196
2.22677
4.44235
8.70653
8.92001
8.74162
8.33822
7.90447
7.46279
6.94647
6.35038
0.999996
0.999998
1
1.00002
1.00004
1.00013
1.00026
1.00075
1.00152
1.00432
1.00849
1.0259
1.04654
1.1642
1.29724
2.07302
3.50407
7.70363
8.68251
8.56317
8.24576
7.78894
7.3506
6.87497
6.3399
0.999995
0.999996
0.999999
1.00001
1.00003
1.00009
1.0002
1.00056
1.00115
1.00326
1.00644
1.01945
1.03523
1.12344
1.21846
1.79916
2.80926
6.08268
8.41181
8.36965
8.15837
7.71532
7.26817
6.81911
6.33219
0.999994
0.999994
0.999997
1
1.00002
1.00005
1.00016
1.00034
1.00096
1.00194
1.00562
1.01057
1.03448
1.05918
1.21434
1.41689
2.33522
4.268
7.96464
8.24135
8.08525
7.70063
7.21834
6.77646
6.32487
0.999993
0.999993
0.999996
0.999999
1.00001
1.00004
1.00012
1.00025
1.00071
1.00144
1.00407
1.00801
1.02425
1.04374
1.15301
1.27458
1.9848
3.24673
6.91973
8.02454
7.93562
7.66551
7.19935
6.75253
6.325
0.999992
0.999993
0.999994
0.999998
1
1.00003
1.00007
1.0002
1.00041
1.00118
1.00231
1.007
1.0124
1.04382
1.07225
1.2714
1.53499
2.70834
5.2191
7.68298
7.72286
7.58089
7.21623
6.7547
6.32826
0.999992
0.999992
0.999993
0.999996
1
1.00002
1.00005
1.00014
1.0003
1.00085
1.00174
1.00487
1.00977
1.02845
1.054
1.17361
1.34157
2.08846
3.51207
7.00918
7.59445
7.4939
7.2151
6.77204
6.34104
0.999991
0.999991
0.999992
0.999994
0.999999
1.00001
1.00003
1.00008
1.00024
1.00049
1.00138
1.00279
1.00795
1.01525
1.04825
1.08522
1.29958
1.60574
2.8537
5.48884
7.33247
7.32688
7.18757
6.83512
6.37374
0.999991
0.999991
0.999992
0.999993
0.999996
1
1.00002
1.00005
1.00016
1.00033
1.00094
1.00191
1.00531
1.01057
1.03098
1.05771
1.18781
1.36993
2.13629
3.65626
6.8003
7.22721
7.13382
6.88029
6.43807
0.999991
0.999991
0.999991
0.999992
0.999994
0.999999
1.00001
1.00004
1.00009
1.00026
1.00053
1.00149
1.00302
1.00849
1.01676
1.0501
1.09425
1.30425
1.6562
2.86971
5.534
7.00151
6.99804
6.86815
6.55243
0.999991
0.999991
0.999991
0.999992
0.999993
0.999996
1
1.00002
1.00005
1.00017
1.00035
1.00097
1.00197
1.00548
1.01081
1.03208
1.05828
1.19619
1.37233
2.17011
3.71355
6.48759
6.88915
6.81627
6.59979
0.999991
0.999991
0.999991
0.999991
0.999992
0.999994
0.999999
1.00001
1.00004
1.00009
1.00026
1.00054
1.00151
1.00305
1.00857
1.01699
1.04992
1.09741
1.29773
1.66104
2.80273
5.29887
6.65019
6.68098
6.57804
0.999991
0.99999
0.999991
0.999991
0.999991
0.999993
0.999995
1
1.00002
1.00006
1.00014
1.0004
1.00082
1.00228
1.0046
1.01288
1.02544
1.07485
1.14756
1.44555
1.99269
3.52058
6.11725
6.56413
6.51382
0.999991
0.99999
0.99999
0.999991
0.999991
0.999992
0.999993
0.999999
1.00001
1.00004
1.00009
1.00025
1.00052
1.00145
1.00293
1.00812
1.01615
1.04675
1.09066
1.27633
1.6001
2.6482
4.89995
6.3019
6.38587
0.999991
0.99999
0.99999
0.99999
0.999991
0.999991
0.999992
0.999995
1
1.00002
1.00006
1.00013
1.00037
1.00076
1.00209
1.00422
1.01174
1.02331
1.06698
1.13537
1.39165
1.87414
3.18202
5.71265
6.26122
0.999991
0.99999
0.99999
0.99999
0.99999
0.999991
0.999992
0.999993
0.999998
1.00001
1.00003
1.00008
1.00023
1.00047
1.0013
1.00265
1.00727
1.01454
1.04132
1.08021
1.24365
1.50865
2.44123
4.39491
5.94231
0.999991
0.99999
0.99999
0.99999
0.99999
0.999991
0.999991
0.999992
0.999995
1
1.00002
1.00004
1.00013
1.00028
1.00078
1.00159
1.00434
1.00872
1.02426
1.04781
1.14011
1.28306
1.81834
2.84022
5.23174
0.999991
0.99999
0.99999
0.99999
0.99999
0.99999
0.999991
0.999991
0.999993
0.999996
1.00001
1.00002
1.00008
1.00017
1.00047
1.00095
1.00261
1.00526
1.01455
1.02863
1.08457
1.16121
1.50122
2.08106
3.72183
0.999991
0.99999
0.99999
0.99999
0.99999
0.99999
0.99999
0.999991
0.999992
0.999994
0.999998
1.00001
1.00003
1.00011
1.00023
1.00063
1.00129
1.00354
1.00701
1.02018
1.03716
1.11991
1.21753
1.69197
2.47928
0.999991
0.99999
0.99999
0.99999
0.99999
0.99999
0.99999
0.999991
0.999991
0.999992
0.999996
1
1.00002
1.00005
1.00015
1.00031
1.00086
1.00175
1.00478
1.00943
1.02721
1.05043
1.15775
1.3047
1.8682
0.999991
0.99999
0.99999
0.99999
0.99999
0.99999
0.99999
0.99999
0.999991
0.999992
0.999993
0.999998
1.00001
1.00003
1.00007
1.00021
1.00044
1.00119
1.00243
1.0066
1.01333
1.03659
1.07545
1.2078
1.46211
0.999991
0.99999
0.99999
0.99999
0.99999
0.99999
0.99999
0.99999
0.99999
0.999991
0.999992
0.999994
0.999999
1.00001
1.00004
1.00012
1.00025
1.00068
1.00138
1.00373
1.00752
1.02068
1.04064
1.11836
1.2311
0.999991
0.99999
0.99999
0.99999
0.99999
0.99999
0.99999
0.99999
0.99999
0.999991
0.999991
0.999992
0.999996
1
1.00002
1.00005
1.00015
1.00032
1.00087
1.00177
1.00479
1.00949
1.0269
1.05016
1.15456
0.999991
0.99999
0.99999
0.99999
0.99999
0.99999
0.99999
0.99999
0.99999
0.99999
0.999991
0.999992
0.999993
0.999998
1.00001
1.00003
1.00007
1.00021
1.00043
1.00116
1.00234
1.00637
1.01268
1.03539
1.07065
0.999991
0.99999
0.99999
0.99999
0.99999
0.99999
0.99999
0.99999
0.99999
0.99999
0.999991
0.999991
0.999992
0.999994
1
1.00001
1.00004
1.00009
1.00027
1.00055
1.0015
1.00302
1.00819
1.0165
1.04501
0.999991
0.99999
0.99999
0.99999
0.99999
0.99999
0.99999
0.99999
0.99999
0.99999
0.99999
0.999991
0.999991
0.999992
0.999995
1
1.00002
1.00005
1.00014
1.0003
1.0008
1.00163
1.00436
1.00877
1.02363
0.999991
0.99999
0.99999
0.99999
0.99999
0.99999
0.99999
0.99999
0.99999
0.99999
0.99999
0.99999
0.999991
0.999991
0.999993
0.999997
1
1.00003
1.00006
1.00018
1.00037
1.00101
1.00204
1.00546
1.01098
0.999991
0.99999
0.99999
0.99999
0.99999
0.99999
0.99999
0.99999
0.99999
0.99999
0.99999
0.99999
0.99999
0.999991
0.999992
0.999993
0.999999
1.00001
1.00003
1.00008
1.00023
1.00047
1.00128
1.00258
1.00695
0.999991
0.99999
0.99999
0.99999
0.99999
0.99999
0.99999
0.99999
0.99999
0.99999
0.99999
0.99999
0.99999
0.999991
0.999991
0.999992
0.999994
1
1.00001
1.00005
1.00011
1.0003
1.00061
1.00163
1.0033
0.999991
0.99999
0.99999
0.99999
0.99999
0.99999
0.99999
0.99999
0.99999
0.99999
0.99999
0.99999
0.99999
0.99999
0.999991
0.999991
0.999993
0.999996
1
1.00002
1.00007
1.00015
1.00041
1.00085
1.00228
0.999991
0.99999
0.99999
0.99999
0.99999
0.99999
0.99999
0.99999
0.99999
0.99999
0.99999
0.99999
0.99999
0.99999
0.999991
0.999991
0.999992
0.999994
1
1.00001
1.00005
1.0001
1.00029
1.0006
1.00166
0.999991
0.99999
0.99999
0.99999
0.99999
0.99999
0.99999
0.99999
0.99999
0.99999
0.99999
0.99999
0.99999
0.99999
0.99999
0.999991
0.999991
0.999994
0.999997
1.00001
1.00003
1.0001
1.00022
1.00062
1.00126
0.999991
0.99999
0.99999
0.99999
0.99999
0.99999
0.99999
0.99999
0.99999
0.99999
0.99999
0.99999
0.99999
0.99999
0.99999
0.999991
0.999991
0.999993
0.999997
1.00001
1.00003
1.00009
1.0002
1.00059
1.00121
1
1.00002
1.00004
1.00012
1.00025
1.00071
1.00144
1.00414
1.00805
1.02533
1.04468
1.16355
1.29254
2.10896
3.62455
8.52132
10.3554
10.2483
10.0394
10.0066
9.98118
9.88547
9.62382
9.01453
7.47608
1
1.00001
1.00004
1.00011
1.00022
1.00062
1.00126
1.00358
1.00704
1.02157
1.03864
1.13939
1.24523
1.93189
3.15657
7.33791
10.2747
10.1515
9.87473
9.76085
9.67165
9.47677
9.06127
8.22859
6.62696
1
1.00001
1.00003
1.00009
1.00019
1.00054
1.00109
1.00308
1.00621
1.018
1.03495
1.11206
1.20908
1.7418
2.72237
6.06751
10.1681
10.0451
9.73216
9.52086
9.36648
9.08905
8.57889
7.7235
6.41808
1
1.00001
1.00003
1.00008
1.00016
1.00044
1.00091
1.00254
1.00514
1.01473
1.02915
1.08856
1.17489
1.56836
2.32455
4.8396
9.84693
9.84065
9.61299
9.30021
9.07441
8.75214
8.22465
7.43344
6.37739
1
1.00001
1.00002
1.00006
1.00013
1.00035
1.00072
1.00203
1.00408
1.01185
1.02253
1.07346
1.13259
1.46804
2.05398
4.16521
8.97195
9.56384
9.41567
9.09746
8.81559
8.46822
7.96633
7.2587
6.37044
1
1.00001
1.00002
1.00004
1.00012
1.00024
1.00067
1.00135
1.00387
1.00748
1.02358
1.04115
1.15086
1.26513
2.01398
3.32549
7.54741
9.29102
9.20026
8.94399
8.60007
8.23319
7.76235
7.13111
6.36662
1
1
1.00002
1.00003
1.0001
1.0002
1.00055
1.00113
1.00316
1.00637
1.01849
1.03544
1.11544
1.21302
1.75727
2.74322
5.99535
9.10567
9.05787
8.8378
8.43441
8.04852
7.59711
7.02785
6.35783
1
1
1.00001
1.00003
1.00007
1.00015
1.00043
1.00087
1.00243
1.0049
1.01402
1.02773
1.08399
1.16587
1.53198
2.22686
4.44249
8.70671
8.92007
8.74166
8.33825
7.90451
7.46282
6.9465
6.35041
1
1
1.00001
1.00002
1.00005
1.00013
1.00027
1.00076
1.00153
1.00433
1.0085
1.02591
1.04656
1.16422
1.29728
2.07308
3.50422
7.70392
8.68258
8.56323
8.24579