/*--------------------------------*- C++ -*----------------------------------*\
| =========                 |                                                 |
| \\      /  F ield         | OpenFOAM: The Open Source CFD Toolbox           |
|  \\    /   O peration     | Version:  4.1                                   |
|   \\  /    A nd           | Web:      www.OpenFOAM.org                      |
|    \\/     M anipulation  |                                                 |
\*---------------------------------------------------------------------------*/
FoamFile
{
    version     2.0;
    format      ascii;
    class       volScalarField;
    location    "9.34";
    object      T;
}
// * * * * * * * * * * * * * * * * * * * * * * * * * * * * * * * * * * * * * //

dimensions      [0 0 0 1 0 0 0];

internalField   nonuniform List<scalar> 
52500
(
0.999997
1.00003
1.00005
1.0002
1.00036
1.00117
1.00215
1.00656
1.01314
1.03536
1.08964
1.21211
1.60537
2.47732
2.69861
2.72713
2.72485
2.72542
2.73935
2.75152
2.76479
2.77323
2.78047
2.78545
2.7895
0.999997
1.00002
1.00005
1.0002
1.00036
1.00116
1.00213
1.00651
1.01301
1.03507
1.08868
1.20997
1.60009
2.46954
2.69551
2.72668
2.72423
2.72473
2.73861
2.75061
2.76384
2.7718
2.77906
2.78313
2.78646
0.999996
1.00002
1.00005
1.00019
1.00035
1.00114
1.00208
1.00637
1.01274
1.03431
1.0871
1.20471
1.59055
2.45321
2.68878
2.72556
2.72258
2.72292
2.73673
2.74812
2.76131
2.76948
2.77582
2.78022
2.78233
0.999996
1.00002
1.00005
1.00018
1.00034
1.0011
1.00202
1.00615
1.01232
1.03316
1.08468
1.19684
1.57576
2.42677
2.67822
2.72366
2.71953
2.71955
2.73227
2.74465
2.75564
2.76393
2.77126
2.77544
2.77765
0.999996
1.00002
1.00005
1.00018
1.00032
1.00105
1.00192
1.00586
1.01177
1.03163
1.08141
1.18648
1.55528
2.38827
2.66344
2.72126
2.71585
2.71489
2.72639
2.73855
2.75113
2.75614
2.7618
2.76557
2.76686
0.999996
1.00002
1.00004
1.00016
1.0003
1.00098
1.0018
1.00539
1.01113
1.02914
1.07765
1.17404
1.52953
2.33569
2.64388
2.71813
2.71214
2.70816
2.72061
2.7273
2.74113
2.74857
2.75319
2.75592
2.7573
0.999995
1.00002
1.00004
1.00015
1.00028
1.0009
1.00167
1.00491
1.01036
1.02656
1.07212
1.15853
1.49951
2.27118
2.61845
2.71422
2.7074
2.70174
2.7141
2.72126
2.72772
2.73346
2.73757
2.73862
2.73655
0.999995
1.00002
1.00004
1.00014
1.00025
1.00082
1.00152
1.00453
1.00941
1.0245
1.06515
1.14613
1.44537
2.17431
2.5849
2.70619
2.69825
2.68977
2.70017
2.71063
2.7183
2.71896
2.72045
2.71873
2.71447
0.999995
1.00001
1.00003
1.00012
1.00023
1.00076
1.00138
1.00432
1.00831
1.02321
1.05538
1.13151
1.38012
2.04812
2.54209
2.69694
2.68961
2.67799
2.68696
2.69141
2.69931
2.69935
2.69544
2.68656
2.66345
0.999995
1.00001
1.00003
1.00011
1.0002
1.00065
1.00121
1.00372
1.00727
1.0203
1.04718
1.11582
1.31755
1.92624
2.47391
2.66832
2.66617
2.66028
2.67389
2.67538
2.67867
2.67588
2.66501
2.64244
2.59138
1.00001
1.00003
1.00006
1.00021
1.00037
1.00118
1.00216
1.00657
1.01316
1.03538
1.08966
1.21216
1.60547
2.47751
2.69874
2.72722
2.72494
2.72553
2.73945
2.75161
2.76488
2.77332
2.78056
2.78554
2.78958
1.00001
1.00003
1.00006
1.0002
1.00037
1.00117
1.00214
1.00652
1.01302
1.03509
1.08869
1.21001
1.60018
2.46972
2.69563
2.72675
2.72431
2.72481
2.73869
2.75069
2.76392
2.77188
2.77914
2.78321
2.78654
1.00001
1.00003
1.00006
1.0002
1.00036
1.00115
1.00209
1.00638
1.01275
1.03433
1.08711
1.20476
1.59061
2.45337
2.68889
2.72563
2.72266
2.723
2.73681
2.74819
2.76139
2.76956
2.77591
2.7803
2.78241
1
1.00003
1.00006
1.00019
1.00035
1.00111
1.00202
1.00616
1.01234
1.03318
1.0847
1.19689
1.57582
2.42694
2.67832
2.72373
2.7196
2.71963
2.73235
2.74472
2.75571
2.76401
2.77134
2.77553
2.77774
1
1.00003
1.00006
1.00018
1.00033
1.00106
1.00193
1.00588
1.01178
1.03165
1.08142
1.18653
1.55533
2.38844
2.66355
2.72134
2.71592
2.71497
2.72647
2.73862
2.75121
2.75623
2.76188
2.76565
2.76694
1
1.00003
1.00005
1.00017
1.00031
1.00098
1.00181
1.0054
1.01114
1.02916
1.07767
1.17409
1.52959
2.33586
2.64399
2.7182
2.71221
2.70824
2.72069
2.72738
2.74119
2.74865
2.75328
2.756
2.75738
1
1.00003
1.00005
1.00016
1.00029
1.00091
1.00168
1.00492
1.01037
1.02658
1.07214
1.15859
1.49958
2.27138
2.61856
2.71429
2.70747
2.70181
2.71417
2.72134
2.72779
2.73354
2.73765
2.7387
2.73663
1
1.00002
1.00004
1.00015
1.00026
1.00083
1.00153
1.00454
1.00942
1.02452
1.06517
1.14618
1.44546
2.17454
2.585
2.70625
2.69832
2.68984
2.70023
2.71068
2.71838
2.71903
2.72052
2.7188
2.71454
1
1.00002
1.00004
1.00013
1.00024
1.00077
1.00139
1.00433
1.00832
1.02323
1.05539
1.13156
1.38019
2.04833
2.5422
2.69701
2.68968
2.67807
2.68704
2.69147
2.69938
2.69942
2.69551
2.68663
2.66351
1
1.00002
1.00004
1.00011
1.00021
1.00066
1.00122
1.00373
1.00728
1.02032
1.0472
1.11586
1.31762
1.92647
2.47403
2.66839
2.66624
2.66034
2.67396
2.67545
2.67874
2.67595
2.66507
2.64251
2.59144
1.00001
1.00003
1.00006
1.00021
1.00037
1.00118
1.00216
1.00657
1.01316
1.03538
1.08966
1.21216
1.60548
2.47752
2.69874
2.72722
2.72494
2.72553
2.73945
2.75161
2.76488
2.77332
2.78056
2.78554
2.78958
1.00001
1.00003
1.00006
1.0002
1.00037
1.00117
1.00214
1.00652
1.01302
1.03509
1.08869
1.21002
1.60018
2.46973
2.69563
2.72676
2.72431
2.72481
2.73869
2.75069
2.76392
2.77188
2.77914
2.78321
2.78654
1.00001
1.00003
1.00006
1.0002
1.00036
1.00115
1.00209
1.00638
1.01275
1.03433
1.08711
1.20477
1.59061
2.45338
2.6889
2.72563
2.72266
2.723
2.73681
2.7482
2.76139
2.76956
2.77591
2.78029
2.78241
1
1.00003
1.00006
1.00019
1.00035
1.00111
1.00202
1.00616
1.01234
1.03318
1.0847
1.1969
1.57582
2.42695
2.67833
2.72373
2.7196
2.71963
2.73235
2.74472
2.75572
2.76401
2.77134
2.77553
2.77774
1
1.00003
1.00006
1.00018
1.00033
1.00106
1.00193
1.00588
1.01178
1.03165
1.08142
1.18653
1.55534
2.38845
2.66355
2.72134
2.71592
2.71497
2.72647
2.73862
2.75121
2.75623
2.76187
2.76565
2.76695
1
1.00003
1.00005
1.00017
1.00031
1.00098
1.00181
1.0054
1.01114
1.02916
1.07768
1.1741
1.5296
2.33588
2.64399
2.7182
2.71221
2.70824
2.72069
2.72738
2.74119
2.74865
2.75328
2.756
2.75738
1
1.00003
1.00005
1.00016
1.00029
1.00091
1.00168
1.00492
1.01037
1.02658
1.07214
1.15859
1.49959
2.2714
2.61857
2.71429
2.70747
2.70181
2.71417
2.72134
2.72779
2.73354
2.73765
2.7387
2.73663
1
1.00002
1.00004
1.00015
1.00026
1.00083
1.00153
1.00454
1.00942
1.02452
1.06517
1.14618
1.44547
2.17456
2.58501
2.70625
2.69832
2.68984
2.70023
2.71068
2.71838
2.71903
2.72052
2.7188
2.71454
1
1.00002
1.00004
1.00013
1.00024
1.00077
1.00139
1.00433
1.00832
1.02323
1.0554
1.13156
1.3802
2.04835
2.54221
2.69702
2.68968
2.67807
2.68704
2.69148
2.69938
2.69942
2.69551
2.68664
2.66351
1
1.00002
1.00004
1.00011
1.00021
1.00066
1.00122
1.00373
1.00728
1.02032
1.0472
1.11586
1.31763
1.9265
2.47404
2.6684
2.66624
2.66034
2.67396
2.67545
2.67874
2.67595
2.66507
2.64251
2.59144
1.00001
1.00003
1.00006
1.00021
1.00037
1.00118
1.00216
1.00657
1.01316
1.03538
1.08966
1.21216
1.60548
2.47752
2.69874
2.72722
2.72494
2.72553
2.73945
2.75161
2.76488
2.77332
2.78056
2.78554
2.78958
1.00001
1.00003
1.00006
1.0002
1.00037
1.00117
1.00214
1.00652
1.01302
1.03509
1.08869
1.21002
1.60019
2.46973
2.69563
2.72676
2.72431
2.72481
2.73869
2.75069
2.76392
2.77188
2.77914
2.78321
2.78654
1.00001
1.00003
1.00006
1.0002
1.00036
1.00115
1.00209
1.00638
1.01275
1.03433
1.08711
1.20477
1.59061
2.45339
2.6889
2.72563
2.72266
2.723
2.73681
2.7482
2.76139
2.76956
2.77591
2.78029
2.78241
1
1.00003
1.00006
1.00019
1.00035
1.00111
1.00202
1.00616
1.01234
1.03318
1.0847
1.1969
1.57582
2.42695
2.67833
2.72373
2.7196
2.71963
2.73235
2.74472
2.75572
2.76401
2.77134
2.77553
2.77774
1
1.00003
1.00006
1.00018
1.00033
1.00106
1.00193
1.00588
1.01178
1.03165
1.08142
1.18654
1.55534
2.38845
2.66355
2.72134
2.71592
2.71497
2.72647
2.73862
2.75121
2.75623
2.76187
2.76565
2.76695
1
1.00003
1.00005
1.00017
1.00031
1.00098
1.00181
1.0054
1.01114
1.02916
1.07768
1.1741
1.5296
2.33588
2.64399
2.7182
2.71221
2.70824
2.72069
2.72738
2.74119
2.74865
2.75328
2.756
2.75738
1
1.00003
1.00005
1.00016
1.00029
1.00091
1.00168
1.00492
1.01037
1.02658
1.07214
1.15859
1.49959
2.2714
2.61857
2.71429
2.70747
2.70181
2.71417
2.72134
2.72779
2.73354
2.73765
2.7387
2.73663
1
1.00002
1.00004
1.00015
1.00026
1.00083
1.00153
1.00454
1.00942
1.02452
1.06517
1.14618
1.44547
2.17456
2.58501
2.70625
2.69832
2.68984
2.70023
2.71068
2.71838
2.71903
2.72052
2.7188
2.71454
1
1.00002
1.00004
1.00013
1.00024
1.00077
1.00139
1.00433
1.00832
1.02323
1.0554
1.13156
1.3802
2.04836
2.54221
2.69702
2.68968
2.67807
2.68704
2.69148
2.69938
2.69942
2.69551
2.68664
2.66351
1
1.00002
1.00004
1.00011
1.00021
1.00066
1.00122
1.00373
1.00728
1.02032
1.0472
1.11586
1.31763
1.9265
2.47404
2.6684
2.66624
2.66034
2.67396
2.67545
2.67874
2.67595
2.66508
2.64251
2.59144
1.00001
1.00003
1.00006
1.00021
1.00037
1.00118
1.00216
1.00657
1.01316
1.03538
1.08966
1.21216
1.60548
2.47752
2.69874
2.72722
2.72494
2.72553
2.73945
2.75161
2.76488
2.77332
2.78056
2.78554
2.78958
1.00001
1.00003
1.00006
1.0002
1.00037
1.00117
1.00214
1.00652
1.01302
1.03509
1.08869
1.21002
1.60019
2.46973
2.69563
2.72676
2.72431
2.72481
2.73869
2.75069
2.76392
2.77188
2.77914
2.78321
2.78654
1.00001
1.00003
1.00006
1.0002
1.00036
1.00115
1.00209
1.00638
1.01275
1.03433
1.08711
1.20477
1.59061
2.45339
2.6889
2.72563
2.72266
2.723
2.73681
2.7482
2.76139
2.76956
2.77591
2.78029
2.78241
1
1.00003
1.00006
1.00019
1.00035
1.00111
1.00202
1.00616
1.01234
1.03318
1.0847
1.1969
1.57582
2.42695
2.67833
2.72373
2.7196
2.71963
2.73235
2.74472
2.75572
2.76401
2.77134
2.77553
2.77774
1
1.00003
1.00006
1.00018
1.00033
1.00106
1.00193
1.00588
1.01178
1.03165
1.08142
1.18654
1.55534
2.38845
2.66355
2.72134
2.71592
2.71497
2.72647
2.73862
2.75121
2.75623
2.76187
2.76565
2.76695
1
1.00003
1.00005
1.00017
1.00031
1.00098
1.00181
1.0054
1.01114
1.02916
1.07768
1.1741
1.5296
2.33588
2.64399
2.7182
2.71221
2.70824
2.72069
2.72738
2.74119
2.74865
2.75328
2.756
2.75738
1
1.00003
1.00005
1.00016
1.00029
1.00091
1.00168
1.00492
1.01037
1.02658
1.07214
1.15859
1.49959
2.2714
2.61857
2.71429
2.70747
2.70181
2.71417
2.72134
2.72779
2.73354
2.73765
2.7387
2.73663
1
1.00002
1.00004
1.00015
1.00026
1.00083
1.00153
1.00454
1.00942
1.02452
1.06517
1.14618
1.44547
2.17456
2.58501
2.70625
2.69832
2.68984
2.70023
2.71068
2.71838
2.71903
2.72052
2.7188
2.71454
1
1.00002
1.00004
1.00013
1.00024
1.00077
1.00139
1.00433
1.00832
1.02323
1.0554
1.13156
1.3802
2.04836
2.54221
2.69702
2.68968
2.67807
2.68704
2.69148
2.69938
2.69942
2.69551
2.68664
2.66351
1
1.00002
1.00004
1.00011
1.00021
1.00066
1.00122
1.00373
1.00728
1.02032
1.0472
1.11586
1.31763
1.9265
2.47404
2.6684
2.66624
2.66034
2.67396
2.67545
2.67874
2.67595
2.66508
2.64251
2.59144
1.00001
1.00003
1.00006
1.00021
1.00037
1.00118
1.00216
1.00657
1.01316
1.03538
1.08966
1.21216
1.60548
2.47752
2.69874
2.72722
2.72494
2.72553
2.73945
2.75161
2.76488
2.77332
2.78056
2.78554
2.78958
1.00001
1.00003
1.00006
1.0002
1.00037
1.00117
1.00214
1.00652
1.01302
1.03509
1.08869
1.21002
1.60019
2.46973
2.69563
2.72676
2.72431
2.72481
2.73869
2.75069
2.76392
2.77188
2.77914
2.78321
2.78654
1.00001
1.00003
1.00006
1.0002
1.00036
1.00115
1.00209
1.00638
1.01275
1.03433
1.08711
1.20477
1.59061
2.45339
2.6889
2.72563
2.72266
2.723
2.73681
2.7482
2.76139
2.76956
2.77591
2.78029
2.78241
1
1.00003
1.00006
1.00019
1.00035
1.00111
1.00202
1.00616
1.01234
1.03318
1.0847
1.1969
1.57582
2.42695
2.67833
2.72373
2.7196
2.71963
2.73235
2.74472
2.75572
2.76401
2.77134
2.77553
2.77774
1
1.00003
1.00006
1.00018
1.00033
1.00106
1.00193
1.00588
1.01178
1.03165
1.08142
1.18654
1.55534
2.38845
2.66355
2.72134
2.71592
2.71497
2.72647
2.73862
2.75121
2.75623
2.76187
2.76565
2.76695
1
1.00003
1.00005
1.00017
1.00031
1.00098
1.00181
1.0054
1.01114
1.02916
1.07768
1.1741
1.5296
2.33588
2.644
2.7182
2.71221
2.70824
2.72069
2.72738
2.74119
2.74865
2.75328
2.756
2.75738
1
1.00003
1.00005
1.00016
1.00029
1.00091
1.00168
1.00492
1.01037
1.02658
1.07214
1.15859
1.49959
2.2714
2.61857
2.71429
2.70747
2.70181
2.71417
2.72134
2.72779
2.73354
2.73765
2.7387
2.73663
1
1.00002
1.00004
1.00015
1.00026
1.00083
1.00153
1.00454
1.00942
1.02452
1.06517
1.14618
1.44547
2.17456
2.58501
2.70625
2.69832
2.68984
2.70023
2.71068
2.71838
2.71903
2.72052
2.7188
2.71454
1
1.00002
1.00004
1.00013
1.00024
1.00077
1.00139
1.00433
1.00832
1.02323
1.0554
1.13156
1.3802
2.04836
2.54221
2.69702
2.68968
2.67807
2.68704
2.69148
2.69938
2.69942
2.69551
2.68664
2.66351
1
1.00002
1.00004
1.00011
1.00021
1.00066
1.00122
1.00373
1.00728
1.02032
1.0472
1.11586
1.31763
1.92651
2.47404
2.6684
2.66624
2.66034
2.67396
2.67545
2.67874
2.67595
2.66508
2.64251
2.59144
1.00001
1.00003
1.00006
1.00021
1.00037
1.00118
1.00216
1.00657
1.01316
1.03538
1.08966
1.21216
1.60548
2.47752
2.69874
2.72722
2.72494
2.72553
2.73945
2.75161
2.76488
2.77332
2.78056
2.78554
2.78958
1.00001
1.00003
1.00006
1.0002
1.00037
1.00117
1.00214
1.00652
1.01302
1.03509
1.08869
1.21002
1.60019
2.46973
2.69563
2.72676
2.72431
2.72481
2.73869
2.75069
2.76392
2.77188
2.77914
2.78321
2.78654
1.00001
1.00003
1.00006
1.0002
1.00036
1.00115
1.00209
1.00638
1.01275
1.03433
1.08711
1.20477
1.59061
2.45339
2.6889
2.72563
2.72266
2.723
2.73681
2.7482
2.76139
2.76956
2.77591
2.78029
2.78241
1
1.00003
1.00006
1.00019
1.00035
1.00111
1.00202
1.00616
1.01234
1.03318
1.0847
1.1969
1.57582
2.42695
2.67833
2.72373
2.7196
2.71963
2.73235
2.74472
2.75572
2.76401
2.77134
2.77553
2.77774
1
1.00003
1.00006
1.00018
1.00033
1.00106
1.00193
1.00588
1.01178
1.03165
1.08142
1.18654
1.55534
2.38845
2.66355
2.72134
2.71592
2.71497
2.72647
2.73862
2.75121
2.75623
2.76187
2.76565
2.76695
1
1.00003
1.00005
1.00017
1.00031
1.00098
1.00181
1.0054
1.01114
1.02916
1.07768
1.1741
1.5296
2.33588
2.64399
2.7182
2.71221
2.70824
2.72069
2.72738
2.74119
2.74865
2.75328
2.756
2.75738
1
1.00003
1.00005
1.00016
1.00029
1.00091
1.00168
1.00492
1.01037
1.02658
1.07214
1.15859
1.49959
2.2714
2.61857
2.71429
2.70747
2.70181
2.71417
2.72134
2.72779
2.73354
2.73765
2.7387
2.73663
1
1.00002
1.00004
1.00015
1.00026
1.00083
1.00153
1.00454
1.00942
1.02452
1.06517
1.14618
1.44547
2.17456
2.58501
2.70625
2.69832
2.68984
2.70023
2.71068
2.71838
2.71903
2.72052
2.7188
2.71454
1
1.00002
1.00004
1.00013
1.00024
1.00077
1.00139
1.00433
1.00832
1.02323
1.0554
1.13156
1.3802
2.04836
2.54221
2.69702
2.68968
2.67807
2.68704
2.69148
2.69938
2.69942
2.69551
2.68664
2.66351
1
1.00002
1.00004
1.00011
1.00021
1.00066
1.00122
1.00373
1.00728
1.02032
1.0472
1.11586
1.31763
1.9265
2.47404
2.6684
2.66624
2.66034
2.67396
2.67545
2.67874
2.67595
2.66508
2.64251
2.59144
1.00001
1.00003
1.00006
1.00021
1.00037
1.00118
1.00216
1.00657
1.01316
1.03538
1.08966
1.21216
1.60548
2.47752
2.69874
2.72722
2.72494
2.72553
2.73945
2.75161
2.76488
2.77332
2.78056
2.78554
2.78958
1.00001
1.00003
1.00006
1.0002
1.00037
1.00117
1.00214
1.00652
1.01302
1.03509
1.08869
1.21002
1.60018
2.46973
2.69563
2.72676
2.72431
2.72481
2.73869
2.75069
2.76392
2.77188
2.77914
2.78321
2.78654
1.00001
1.00003
1.00006
1.0002
1.00036
1.00115
1.00209
1.00638
1.01275
1.03433
1.08711
1.20477
1.59061
2.45339
2.6889
2.72563
2.72266
2.723
2.73681
2.7482
2.76139
2.76956
2.77591
2.78029
2.78241
1
1.00003
1.00006
1.00019
1.00035
1.00111
1.00202
1.00616
1.01234
1.03318
1.0847
1.1969
1.57582
2.42695
2.67833
2.72373
2.7196
2.71963
2.73235
2.74472
2.75572
2.76401
2.77134
2.77553
2.77774
1
1.00003
1.00006
1.00018
1.00033
1.00106
1.00193
1.00588
1.01178
1.03165
1.08142
1.18654
1.55534
2.38845
2.66355
2.72134
2.71592
2.71497
2.72647
2.73862
2.75121
2.75623
2.76187
2.76565
2.76695
1
1.00003
1.00005
1.00017
1.00031
1.00098
1.00181
1.0054
1.01114
1.02916
1.07768
1.1741
1.5296
2.33588
2.64399
2.7182
2.71221
2.70824
2.72069
2.72738
2.74119
2.74865
2.75328
2.756
2.75738
1
1.00003
1.00005
1.00016
1.00029
1.00091
1.00168
1.00492
1.01037
1.02658
1.07214
1.15859
1.49959
2.2714
2.61857
2.71429
2.70747
2.70181
2.71417
2.72134
2.72779
2.73354
2.73765
2.7387
2.73663
1
1.00002
1.00004
1.00015
1.00026
1.00083
1.00153
1.00454
1.00942
1.02452
1.06517
1.14618
1.44547
2.17456
2.58501
2.70625
2.69832
2.68984
2.70023
2.71068
2.71838
2.71903
2.72052
2.7188
2.71454
1
1.00002
1.00004
1.00013
1.00024
1.00077
1.00139
1.00433
1.00832
1.02323
1.0554
1.13156
1.3802
2.04835
2.54221
2.69702
2.68968
2.67807
2.68704
2.69148
2.69938
2.69942
2.69551
2.68664
2.66351
1
1.00002
1.00004
1.00011
1.00021
1.00066
1.00122
1.00373
1.00728
1.02032
1.0472
1.11586
1.31763
1.9265
2.47404
2.6684
2.66624
2.66034
2.67396
2.67545
2.67874
2.67595
2.66507
2.64251
2.59144
1.00001
1.00003
1.00006
1.00021
1.00037
1.00118
1.00216
1.00657
1.01316
1.03538
1.08966
1.21216
1.60547
2.47751
2.69874
2.72722
2.72494
2.72553
2.73945
2.75161
2.76488
2.77332
2.78056
2.78554
2.78958
1.00001
1.00003
1.00006
1.0002
1.00037
1.00117
1.00214
1.00652
1.01302
1.03509
1.08869
1.21001
1.60018
2.46972
2.69563
2.72675
2.72431
2.72481
2.73869
2.75069
2.76392
2.77188
2.77914
2.78321
2.78654
1.00001
1.00003
1.00006
1.0002
1.00036
1.00115
1.00209
1.00638
1.01275
1.03433
1.08711
1.20476
1.59061
2.45337
2.68889
2.72563
2.72266
2.723
2.73681
2.74819
2.76139
2.76956
2.77591
2.7803
2.78241
1
1.00003
1.00006
1.00019
1.00035
1.00111
1.00202
1.00616
1.01234
1.03318
1.0847
1.19689
1.57582
2.42694
2.67832
2.72373
2.7196
2.71963
2.73235
2.74472
2.75571
2.76401
2.77134
2.77553
2.77774
1
1.00003
1.00006
1.00018
1.00033
1.00106
1.00193
1.00588
1.01178
1.03165
1.08142
1.18653
1.55533
2.38844
2.66355
2.72134
2.71592
2.71497
2.72647
2.73862
2.75121
2.75623
2.76188
2.76565
2.76694
1
1.00003
1.00005
1.00017
1.00031
1.00098
1.00181
1.0054
1.01114
1.02916
1.07767
1.17409
1.52959
2.33586
2.64399
2.7182
2.71221
2.70824
2.72069
2.72738
2.74119
2.74865
2.75328
2.756
2.75738
1
1.00003
1.00005
1.00016
1.00029
1.00091
1.00168
1.00492
1.01037
1.02658
1.07214
1.15859
1.49958
2.27138
2.61856
2.71429
2.70747
2.70181
2.71417
2.72134
2.72779
2.73354
2.73765
2.7387
2.73663
1
1.00002
1.00004
1.00015
1.00026
1.00083
1.00153
1.00454
1.00942
1.02452
1.06517
1.14618
1.44546
2.17454
2.585
2.70625
2.69832
2.68984
2.70023
2.71068
2.71838
2.71903
2.72052
2.7188
2.71454
1
1.00002
1.00004
1.00013
1.00024
1.00077
1.00139
1.00433
1.00832
1.02323
1.05539
1.13156
1.38019
2.04833
2.5422
2.69701
2.68968
2.67807
2.68704
2.69147
2.69938
2.69942
2.69551
2.68663
2.66351
1
1.00002
1.00004
1.00011
1.00021
1.00066
1.00122
1.00373
1.00728
1.02032
1.0472
1.11586
1.31762
1.92647
2.47403
2.66839
2.66624
2.66034
2.67396
2.67545
2.67874
2.67595
2.66507
2.64251
2.59144
0.999997
1.00003
1.00005
1.0002
1.00036
1.00117
1.00215
1.00656
1.01314
1.03536
1.08964
1.21211
1.60537
2.47732
2.69861
2.72712
2.72485
2.72542
2.73935
2.75152
2.76479
2.77323
2.78047
2.78545
2.7895
0.999997
1.00002
1.00005
1.0002
1.00036
1.00116
1.00213
1.00651
1.01301
1.03507
1.08868
1.20997
1.60009
2.46954
2.69551
2.72668
2.72423
2.72473
2.73861
2.75061
2.76384
2.7718
2.77906
2.78313
2.78646
0.999996
1.00002
1.00005
1.00019
1.00035
1.00114
1.00208
1.00637
1.01274
1.03431
1.0871
1.20471
1.59055
2.45321
2.68878
2.72556
2.72258
2.72292
2.73673
2.74812
2.76131
2.76948
2.77582
2.78022
2.78233
0.999996
1.00002
1.00005
1.00018
1.00034
1.0011
1.00202
1.00615
1.01232
1.03316
1.08468
1.19684
1.57576
2.42677
2.67822
2.72366
2.71953
2.71955
2.73227
2.74465
2.75564
2.76393
2.77126
2.77544
2.77765
0.999996
1.00002
1.00005
1.00018
1.00032
1.00105
1.00192
1.00586
1.01177
1.03163
1.08141
1.18648
1.55528
2.38827
2.66344
2.72126
2.71585
2.71489
2.72639
2.73855
2.75113
2.75614
2.7618
2.76557
2.76686
0.999996
1.00002
1.00004
1.00016
1.0003
1.00098
1.0018
1.00539
1.01113
1.02914
1.07765
1.17404
1.52953
2.33569
2.64388
2.71813
2.71214
2.70816
2.72061
2.7273
2.74113
2.74857
2.75319
2.75592
2.7573
0.999995
1.00002
1.00004
1.00015
1.00028
1.0009
1.00167
1.00491
1.01036
1.02656
1.07212
1.15853
1.49951
2.27118
2.61845
2.71422
2.7074
2.70174
2.7141
2.72126
2.72772
2.73346
2.73757
2.73862
2.73655
0.999995
1.00002
1.00004
1.00014
1.00025
1.00082
1.00152
1.00453
1.00941
1.0245
1.06515
1.14613
1.44537
2.17431
2.5849
2.70619
2.69825
2.68977
2.70017
2.71063
2.7183
2.71896
2.72045
2.71873
2.71447
0.999995
1.00001
1.00003
1.00012
1.00023
1.00076
1.00138
1.00432
1.00831
1.02321
1.05538
1.13151
1.38012
2.04812
2.54209
2.69694
2.68961
2.67799
2.68696
2.69141
2.69931
2.69935
2.69544
2.68656
2.66345
0.999995
1.00001
1.00003
1.00011
1.0002
1.00065
1.00121
1.00372
1.00727
1.0203
1.04718
1.11582
1.31755
1.92624
2.47391
2.66831
2.66617
2.66028
2.67389
2.67538
2.67867
2.67588
2.66501
2.64244
2.59138
0.999997
1
1.00003
1.00007
1.00023
1.00042
1.00131
1.00254
1.00703
1.01607
1.03921
1.11077
1.25178
1.69221
2.49615
2.64928
2.63525
2.6362
2.64562
2.65366
2.65329
2.64597
2.62493
2.57427
2.41301
0.999996
1
1.00003
1.00006
1.00021
1.00038
1.00121
1.00222
1.00679
1.01352
1.03648
1.09148
1.21926
1.61099
2.44536
2.62666
2.62561
2.62012
2.62097
2.62897
2.62776
2.61442
2.58207
2.5236
2.36467
0.999996
1
1.00002
1.00005
1.00018
1.00032
1.00104
1.0019
1.00581
1.01156
1.03121
1.07925
1.18272
1.53738
2.33284
2.58131
2.62044
2.61375
2.59943
2.60016
2.59817
2.5837
2.54412
2.49034
2.36847
0.999996
0.999999
1.00002
1.00004
1.00014
1.00027
1.00085
1.00159
1.00465
1.00983
1.02507
1.06779
1.14882
1.46545
2.17541
2.52851
2.61793
2.6066
2.59393
2.57612
2.56664
2.55096
2.51652
2.47214
2.37665
0.999995
0.999998
1.00001
1.00003
1.00012
1.00022
1.00072
1.00133
1.00411
1.00802
1.02223
1.05298
1.12725
1.35812
2.02027
2.42266
2.59532
2.58956
2.58272
2.56718
2.54298
2.52229
2.48188
2.45167
2.3847
0.999994
0.999999
1
1.00003
1.00007
1.00023
1.00042
1.00129
1.00256
1.00688
1.01632
1.03885
1.11061
1.24986
1.67328
2.37041
2.5533
2.55297
2.55369
2.54801
2.53026
2.5084
2.46213
2.42041
2.37956
0.999994
0.999998
1
1.00003
1.00005
1.00019
1.00035
1.00114
1.00207
1.00636
1.01254
1.03401
1.08474
1.19984
1.56586
2.31552
2.52038
2.53002
2.52442
2.5201
2.50925
2.4949
2.46085
2.41046
2.36643
0.999994
0.999997
1
1.00002
1.00004
1.00014
1.00027
1.00084
1.00162
1.00455
1.0101
1.02495
1.06952
1.15039
1.47542
2.1817
2.46305
2.52319
2.50692
2.5006
2.48491
2.46963
2.45261
2.41361
2.36742
0.999994
0.999995
1
1.00001
1.00004
1.00008
1.00026
1.0005
1.00141
1.00315
1.00773
1.02085
1.04619
1.13938
1.31292
1.9036
2.35379
2.50591
2.50005
2.48925
2.47709
2.45273
2.43621
2.41273
2.37219
0.999993
0.999994
0.999998
1
1.00003
1.00006
1.00021
1.0004
1.00125
1.00233
1.00694
1.01429
1.0374
1.09493
1.23053
1.59553
2.28362
2.45575
2.47171
2.46582
2.45916
2.44497
2.42391
2.40879
2.38236
0.999992
0.999994
0.999995
1
1.00001
1.00006
1.00012
1.00037
1.00071
1.002
1.0044
1.01088
1.0292
1.06498
1.19555
1.45735
2.11628
2.42422
2.46543
2.45595
2.44288
2.43413
2.41616
2.40367
2.38901
0.999992
0.999993
0.999994
1
1.00001
1.00004
1.00009
1.0003
1.00055
1.0017
1.00325
1.00907
1.0206
1.04995
1.14131
1.32985
1.84087
2.32167
2.45223
2.44957
2.43902
2.42716
2.41664
2.40775
2.4011
0.999992
0.999992
0.999994
0.999996
1.00001
1.00002
1.00009
1.00017
1.00053
1.001
1.003
1.00589
1.01648
1.0362
1.09484
1.22822
1.69635
2.14506
2.40675
2.43526
2.4368
2.43054
2.42177
2.41877
2.41556
0.999992
0.999992
0.999993
0.999995
1
1.00001
1.00006
1.00012
1.00039
1.00072
1.00222
1.00426
1.01192
1.02687
1.06505
1.17756
1.44782
2.02551
2.33862
2.41983
2.43009
2.43682
2.43867
2.4377
2.43575
0.999991
0.999992
0.999992
0.999995
0.999998
1.00001
1.00003
1.00011
1.00022
1.00069
1.00128
1.00386
1.00767
1.02064
1.04993
1.11725
1.32502
1.87046
2.24883
2.40659
2.4311
2.4452
2.45389
2.45962
2.45893
0.999991
0.999991
0.999992
0.999994
0.999996
1.00001
1.00002
1.00008
1.00016
1.00051
1.00094
1.00288
1.00552
1.01585
1.03355
1.09014
1.21155
1.66081
2.10589
2.38174
2.44111
2.45627
2.4675
2.47481
2.47257
0.999991
0.999991
0.999992
0.999992
0.999996
1
1.00002
1.00004
1.00014
1.00027
1.00084
1.00162
1.00454
1.01
1.02461
1.06749
1.14541
1.45056
2.0715
2.33542
2.45647
2.47892
2.4856
2.48493
2.4755
0.999991
0.999991
0.999991
0.999992
0.999994
0.999997
1.00001
1.00003
1.00011
1.00021
1.00066
1.00122
1.00376
1.00725
1.02051
1.04598
1.11599
1.30226
1.87572
2.29622
2.48363
2.50952
2.50909
2.50182
2.48394
0.999991
0.999991
0.999991
0.999992
0.999993
0.999997
1
1.00003
1.00006
1.0002
1.00038
1.00115
1.00225
1.00636
1.01395
1.03537
1.09434
1.22282
1.60175
2.34796
2.51736
2.54134
2.52413
2.50869
2.48164
0.999991
0.999991
0.999991
0.999991
0.999993
0.999995
1
1.00001
1.00006
1.00012
1.00037
1.00073
1.00203
1.00457
1.01122
1.03079
1.06773
1.21073
1.49214
2.20961
2.58913
2.62026
2.57261
2.53005
2.48497
0.999991
0.999991
0.999991
0.999991
0.999992
0.999994
1
1.00001
1.00005
1.00009
1.00031
1.0006
1.00171
1.00375
1.00937
1.0254
1.05671
1.17554
1.40284
2.04865
2.55356
2.67996
2.63066
2.58431
2.52036
0.999991
0.999991
0.999991
0.999991
0.999992
0.999994
0.999998
1.00001
1.00003
1.00012
1.00022
1.0007
1.00133
1.00399
1.00819
1.0217
1.05548
1.12778
1.37431
2.01176
2.53817
2.69914
2.64941
2.59736
2.54937
0.999991
0.999991
0.999991
0.999991
0.999992
0.999994
0.999997
1.00001
1.00003
1.00011
1.0002
1.00065
1.00119
1.00373
1.00714
1.02063
1.04603
1.11762
1.31252
1.91999
2.49653
2.70581
2.6651
2.61403
2.57184
0.999991
0.999991
0.999991
0.999991
0.999992
0.999994
0.999996
1.00001
1.00002
1.0001
1.00018
1.00059
1.00108
1.00342
1.0065
1.01894
1.04186
1.10727
1.28393
1.84105
2.48973
2.72136
2.68189
2.63995
2.60108
0.999991
0.999991
0.999991
0.999991
0.999992
0.999993
0.999996
1.00001
1.00002
1.00008
1.00015
1.0005
1.00095
1.00278
1.00594
1.0155
1.04055
1.09386
1.27363
1.75134
2.46661
2.71536
2.6838
2.66612
2.6282
0.999991
0.999991
0.999991
0.999991
0.999992
0.999993
0.999997
1
1.00002
1.00005
1.00018
1.00036
1.00109
1.00221
1.00598
1.01428
1.03478
1.09913
1.22525
1.65218
2.50421
2.7012
2.69636
2.67466
2.6415
0.999991
0.999991
0.999991
0.999991
0.999991
0.999993
0.999995
1
1.00001
1.00006
1.00012
1.00035
1.0008
1.00199
1.00535
1.012
1.0355
1.07443
1.2458
1.58788
2.38975
2.69845
2.71116
2.68944
2.65988
0.999991
0.999991
0.999991
0.999991
0.999992
0.999992
0.999996
1
1.00002
1.00004
1.00016
1.00031
1.00097
1.00189
1.00539
1.01203
1.03034
1.08504
1.18816
1.58058
2.39293
2.6703
2.71223
2.69227
2.66583
0.999991
0.999991
0.999991
0.999991
0.999991
0.999992
0.999995
0.999999
1.00002
1.00004
1.00015
1.00028
1.00088
1.00171
1.00484
1.01103
1.02748
1.0783
1.17119
1.54295
2.34955
2.66407
2.71919
2.69695
2.66713
0.999991
0.999991
0.999991
0.999991
0.999991
0.999992
0.999994
1
1.00001
1.00004
1.00009
1.00028
1.00064
1.00157
1.00427
1.00953
1.02834
1.05915
1.19619
1.44716
2.20654
2.66064
2.73676
2.71337
2.67658
0.999991
0.999991
0.999991
0.999991
0.999991
0.999992
0.999994
0.999998
1.00001
1.00003
1.00011
1.00023
1.00065
1.0015
1.0037
1.01008
1.0228
1.06844
1.14355
1.47523
2.20193
2.63268
2.73184
2.70919
2.67272
0.999991
0.999991
0.999991
0.999991
0.999991
0.999992
0.999993
0.999999
1.00001
1.00004
1.00008
1.00027
1.00054
1.00152
1.0035
1.00855
1.02387
1.05248
1.16518
1.37696
2.05681
2.63785
2.74368
2.71663
2.67051
0.999991
0.999991
0.999991
0.999991
0.999991
0.999992
0.999993
0.999999
1.00001
1.00004
1.00008
1.00026
1.0005
1.00142
1.00317
1.00792
1.02171
1.04857
1.15023
1.34407
1.96644
2.61889
2.74754
2.71923
2.67117
0.999991
0.999991
0.999991
0.999991
0.999991
0.999992
0.999994
0.999997
1.00001
1.00003
1.0001
1.0002
1.00062
1.00123
1.00343
1.00781
1.0194
1.05392
1.12052
1.36212
1.99513
2.60016
2.74172
2.71646
2.67217
0.999991
0.999991
0.999991
0.999991
0.999991
0.999992
0.999993
0.999998
1
1.00003
1.00007
1.00022
1.00045
1.00124
1.00294
1.00702
1.01961
1.04306
1.13299
1.30075
1.84488
2.60031
2.75686
2.73272
2.68678
0.999991
0.999991
0.999991
0.999991
0.999991
0.999992
0.999994
0.999996
1.00001
1.00002
1.00009
1.00018
1.00058
1.00114
1.00321
1.00722
1.0181
1.04959
1.11242
1.32899
1.93313
2.55304
2.76312
2.74203
2.69751
0.999991
0.999991
0.999991
0.999991
0.999991
0.999992
0.999993
0.999998
1
1.00003
1.00007
1.00023
1.00044
1.00135
1.00274
1.00727
1.01799
1.04228
1.12443
1.28405
1.76896
2.6111
2.7729
2.7479
2.6958
0.999991
0.999991
0.999991
0.999991
0.999991
0.999992
0.999993
0.999998
1
1.00003
1.00007
1.00024
1.00044
1.00136
1.0027
1.00732
1.01754
1.0419
1.12216
1.28026
1.75951
2.61113
2.77956
2.75293
2.69736
0.999991
0.999991
0.999991
0.999991
0.999991
0.999992
0.999994
0.999996
1.00001
1.00002
1.0001
1.00018
1.0006
1.00111
1.00343
1.0068
1.01874
1.0454
1.10898
1.30805
1.88826
2.54558
2.77011
2.74569
2.69498
0.999991
0.999991
0.999991
0.999991
0.999991
0.999992
0.999994
0.999997
1.00001
1.00002
1.0001
1.00019
1.00061
1.00112
1.00354
1.00676
1.0195
1.04396
1.1106
1.30118
1.88106
2.54517
2.7689
2.74404
2.69654
1.00001
1.00001
1.00004
1.00007
1.00023
1.00043
1.00132
1.00255
1.00704
1.01608
1.03923
1.1108
1.25184
1.69231
2.49619
2.64937
2.63533
2.63627
2.64569
2.65372
2.65336
2.64603
2.62499
2.57433
2.41306
1
1.00001
1.00004
1.00007
1.00021
1.00038
1.00122
1.00223
1.0068
1.01353
1.0365
1.0915
1.21932
1.61109
2.44549
2.62674
2.62568
2.6202
2.62105
2.62904
2.62783
2.61448
2.58213
2.52366
2.36472
1
1.00001
1.00003
1.00006
1.00018
1.00033
1.00105
1.00191
1.00582
1.01157
1.03123
1.07926
1.18278
1.53745
2.33303
2.5814
2.6205
2.61382
2.5995
2.60023
2.59824
2.58376
2.54417
2.49039
2.36852
1
1.00001
1.00003
1.00005
1.00015
1.00027
1.00086
1.0016
1.00466
1.00984
1.02509
1.06781
1.14887
1.46554
2.17561
2.52861
2.61799
2.60666
2.594
2.57618
2.56672
2.55103
2.51657
2.47219
2.3767
1
1.00001
1.00002
1.00004
1.00013
1.00023
1.00073
1.00134
1.00412
1.00803
1.02225
1.053
1.12729
1.35819
2.02048
2.42277
2.5954
2.58963
2.58279
2.56726
2.54304
2.52237
2.48194
2.45172
2.38476
1
1.00001
1.00001
1.00004
1.00008
1.00023
1.00043
1.0013
1.00257
1.00689
1.01633
1.03886
1.11063
1.24991
1.67345
2.3705
2.55336
2.55303
2.55376
2.54808
2.53032
2.50847
2.46221
2.42046
2.37961
1
1.00001
1.00001
1.00003
1.00006
1.0002
1.00036
1.00115
1.00208
1.00638
1.01255
1.03403
1.08476
1.19991
1.56593
2.31565
2.52049
2.53009
2.52449
2.52017
2.50933
2.49497
2.46092
2.41053
2.36651
1
1
1.00001
1.00003
1.00005
1.00015
1.00028
1.00085
1.00162
1.00456
1.01011
1.02497
1.06954
1.15044
1.47551
2.1819
2.46314
2.52325
2.50699
2.50067
2.48498
2.46971
2.45269
2.41371
2.36751
1
1
1.00001
1.00002
1.00005
1.00009
1.00027
1.00051
1.00142
1.00316
1.00774
1.02087
1.04621
1.13942
1.31302
1.9038
2.35396
2.506
2.50013