/*--------------------------------*- C++ -*----------------------------------*\
| =========                 |                                                 |
| \\      /  F ield         | OpenFOAM: The Open Source CFD Toolbox           |
|  \\    /   O peration     | Version:  4.1                                   |
|   \\  /    A nd           | Web:      www.OpenFOAM.org                      |
|    \\/     M anipulation  |                                                 |
\*---------------------------------------------------------------------------*/
FoamFile
{
    version     2.0;
    format      ascii;
    class       volScalarField;
    location    "9";
    object      Ma;
}
// * * * * * * * * * * * * * * * * * * * * * * * * * * * * * * * * * * * * * //

dimensions      [0 0 0 0 0 0 0];

internalField   nonuniform List<scalar> 
52500
(
3.00001
2.99996
2.99988
2.99959
2.99918
2.9975
2.99511
2.98574
2.97099
2.92093
2.81465
2.55577
1.94302
1.03829
0.426939
0.323057
0.344435
0.345066
0.314214
0.262321
0.211124
0.168704
0.126712
0.0800148
0.0460201
3.00001
2.99996
2.99988
2.99959
2.99918
2.99752
2.99516
2.98589
2.97129
2.92171
2.81631
2.56017
1.95015
1.04776
0.433192
0.323903
0.345805
0.346965
0.316414
0.265277
0.215317
0.174418
0.134734
0.0935229
0.0695191
3.00001
2.99996
2.99989
2.9996
2.9992
2.99758
2.99527
2.9862
2.97191
2.92334
2.81981
2.56936
1.96573
1.06891
0.447601
0.326705
0.349868
0.352515
0.323086
0.27419
0.227388
0.190311
0.156086
0.124026
0.108935
3.00001
2.99996
2.99989
2.99962
2.99923
2.99766
2.99543
2.98667
2.97285
2.92582
2.82515
2.58336
1.98997
1.10233
0.469669
0.330798
0.356316
0.361562
0.334102
0.288484
0.246226
0.214145
0.186185
0.162132
0.152192
3.00001
2.99996
2.9999
2.99964
2.99927
2.99777
2.99565
2.98734
2.97411
2.92935
2.83217
2.602
2.02328
1.14932
0.499401
0.336089
0.365004
0.373789
0.348793
0.30732
0.269974
0.243538
0.221616
0.203922
0.197697
3.00002
2.99997
2.99991
2.99966
2.99932
2.99793
2.99594
2.98827
2.97567
2.93426
2.84109
2.6253
2.06557
1.21134
0.536026
0.341735
0.375193
0.388626
0.366472
0.330178
0.29827
0.277504
0.261986
0.250444
0.247889
3.00002
2.99997
2.99992
2.99969
2.99937
2.99809
2.99625
2.98922
2.97746
2.93946
2.85285
2.65278
2.12124
1.29133
0.581126
0.34949
0.387851
0.406288
0.387188
0.356149
0.330771
0.316265
0.307452
0.303005
0.306313
3.00002
2.99998
2.99992
2.99972
2.99943
2.99824
2.99656
2.99001
2.97947
2.94418
2.86706
2.68174
2.20128
1.39778
0.640378
0.365815
0.407004
0.429333
0.412576
0.386433
0.367105
0.359697
0.358903
0.363812
0.377898
3.00002
2.99998
2.99993
2.99974
2.99948
2.9984
2.99688
2.99077
2.98158
2.94865
2.8848
2.71522
2.29747
1.53173
0.712841
0.39479
0.43583
0.458992
0.443738
0.422769
0.409149
0.408256
0.416937
0.436774
0.474487
3.00002
2.99999
2.99995
2.99978
2.99955
2.99862
2.99726
2.99202
2.98385
2.95531
2.9006
2.7497
2.39505
1.67259
0.79808
0.442451
0.477895
0.494437
0.481458
0.464802
0.456618
0.461995
0.484251
0.531568
0.633485
2.99999
2.99994
2.99986
2.99957
2.99916
2.99748
2.99509
2.98572
2.97097
2.92089
2.81462
2.55568
1.94294
1.03813
0.426748
0.322878
0.344254
0.344876
0.314001
0.262066
0.210807
0.168304
0.126172
0.0791464
0.0444699
2.99999
2.99994
2.99987
2.99957
2.99916
2.9975
2.99514
2.98587
2.97127
2.92168
2.81628
2.56009
1.95006
1.0476
0.433008
0.323733
0.345636
0.346788
0.316215
0.265036
0.215015
0.174038
0.134235
0.0927915
0.0685179
2.99999
2.99994
2.99987
2.99958
2.99918
2.99756
2.99525
2.98617
2.97188
2.92331
2.81977
2.56928
1.96564
1.06875
0.447423
0.326539
0.349703
0.352344
0.322895
0.273961
0.227106
0.189969
0.155661
0.123484
0.108308
2.99999
2.99994
2.99987
2.9996
2.99921
2.99764
2.99541
2.98664
2.97282
2.92579
2.82512
2.58327
1.98989
1.10217
0.469497
0.330635
0.356155
0.361396
0.33392
0.28827
0.245971
0.213846
0.185836
0.161725
0.151752
3
2.99995
2.99988
2.99962
2.99925
2.99775
2.99563
2.98731
2.97409
2.9293
2.83215
2.60192
2.0232
1.14916
0.499245
0.335936
0.364851
0.373632
0.348623
0.307123
0.269745
0.243281
0.221328
0.203605
0.197366
3
2.99995
2.99989
2.99964
2.9993
2.99791
2.99592
2.98825
2.97564
2.93422
2.84105
2.62521
2.06547
1.21116
0.535868
0.341579
0.37504
0.388473
0.36631
0.329998
0.298067
0.277283
0.261748
0.250192
0.247631
3
2.99995
2.9999
2.99967
2.99935
2.99807
2.99623
2.98919
2.97744
2.93943
2.85281
2.6527
2.12112
1.29114
0.58097
0.349328
0.387695
0.406137
0.387032
0.355983
0.330592
0.316076
0.307256
0.302804
0.30611
3
2.99996
2.99991
2.9997
2.99941
2.99822
2.99654
2.98999
2.97944
2.94413
2.86704
2.68167
2.2012
1.3976
0.640243
0.36566
0.406854
0.429189
0.412431
0.386281
0.366945
0.359533
0.358739
0.36365
0.37774
3
2.99996
2.99992
2.99973
2.99946
2.99838
2.99685
2.99074
2.98156
2.94862
2.88477
2.71515
2.29737
1.53154
0.71271
0.39463
0.435683
0.458857
0.443602
0.42263
0.409007
0.408115
0.4168
0.436644
0.474369
3
2.99997
2.99993
2.99976
2.99953
2.9986
2.99724
2.99199
2.98383
2.95528
2.90057
2.74964
2.39496
1.67246
0.797951
0.442296
0.477762
0.494323
0.481339
0.464677
0.456492
0.461872
0.484136
0.531466
0.633402
2.99999
2.99994
2.99986
2.99957
2.99916
2.99748
2.99509
2.98572
2.97097
2.92089
2.81462
2.55568
1.94293
1.03812
0.426743
0.322879
0.344255
0.344876
0.314001
0.262066
0.210807
0.168304
0.126173
0.0791465
0.04447
2.99999
2.99994
2.99987
2.99957
2.99916
2.9975
2.99514
2.98587
2.97127
2.92168
2.81628
2.56008
1.95005
1.04759
0.433003
0.323735
0.345637
0.346788
0.316216
0.265036
0.215015
0.174038
0.134235
0.0927916
0.0685179
2.99999
2.99994
2.99987
2.99958
2.99918
2.99756
2.99525
2.98617
2.97188
2.92331
2.81977
2.56927
1.96564
1.06874
0.447418
0.32654
0.349704
0.352344
0.322895
0.273961
0.227107
0.189969
0.155661
0.123484
0.108308
2.99999
2.99994
2.99987
2.9996
2.99921
2.99764
2.99541
2.98664
2.97282
2.92579
2.82511
2.58327
1.98988
1.10216
0.469492
0.330637
0.356155
0.361396
0.33392
0.28827
0.245971
0.213847
0.185836
0.161725
0.151752
3
2.99995
2.99988
2.99962
2.99925
2.99775
2.99563
2.98731
2.97409
2.9293
2.83215
2.60192
2.02319
1.14915
0.49924
0.335938
0.364851
0.373632
0.348622
0.307124
0.269746
0.243281
0.221329
0.203605
0.197366
3
2.99995
2.99989
2.99964
2.9993
2.99791
2.99592
2.98825
2.97564
2.93422
2.84105
2.62521
2.06546
1.21115
0.535863
0.34158
0.375041
0.388473
0.36631
0.329998
0.298068
0.277283
0.261748
0.250192
0.247631
3
2.99995
2.9999
2.99967
2.99935
2.99807
2.99623
2.98919
2.97744
2.93943
2.85281
2.6527
2.12111
1.29113
0.580964
0.349329
0.387695
0.406136
0.387032
0.355983
0.330592
0.316076
0.307256
0.302804
0.30611
3
2.99996
2.99991
2.9997
2.99941
2.99822
2.99654
2.98999
2.97944
2.94413
2.86703
2.68166
2.20119
1.39758
0.640237
0.365659
0.406852
0.429188
0.41243
0.386281
0.366945
0.359533
0.358739
0.36365
0.37774
3
2.99996
2.99992
2.99973
2.99946
2.99838
2.99685
2.99074
2.98156
2.94862
2.88477
2.71514
2.29736
1.53152
0.712703
0.394627
0.435681
0.458855
0.443601
0.422629
0.409006
0.408115
0.4168
0.436644
0.474368
3
2.99997
2.99993
2.99976
2.99953
2.9986
2.99724
2.99199
2.98383
2.95528
2.90057
2.74964
2.39495
1.67245
0.797944
0.442293
0.47776
0.494322
0.481338
0.464676
0.456491
0.461871
0.484135
0.531465
0.633401
2.99999
2.99994
2.99986
2.99957
2.99916
2.99748
2.99509
2.98572
2.97097
2.92089
2.81462
2.55568
1.94293
1.03812
0.426743
0.322879
0.344255
0.344875
0.314001
0.262066
0.210807
0.168304
0.126173
0.0791465
0.04447
2.99999
2.99994
2.99987
2.99957
2.99916
2.9975
2.99514
2.98587
2.97127
2.92168
2.81628
2.56008
1.95005
1.04759
0.433003
0.323735
0.345637
0.346788
0.316216
0.265036
0.215015
0.174038
0.134235
0.0927916
0.0685179
2.99999
2.99994
2.99987
2.99958
2.99918
2.99756
2.99525
2.98617
2.97188
2.92331
2.81977
2.56927
1.96564
1.06874
0.447418
0.32654
0.349704
0.352344
0.322895
0.273961
0.227107
0.189969
0.155661
0.123484
0.108308
2.99999
2.99994
2.99987
2.9996
2.99921
2.99764
2.99541
2.98664
2.97282
2.92579
2.82511
2.58327
1.98988
1.10216
0.469491
0.330637
0.356155
0.361396
0.33392
0.28827
0.245971
0.213847
0.185836
0.161725
0.151752
3
2.99995
2.99988
2.99962
2.99925
2.99775
2.99563
2.98731
2.97409
2.9293
2.83215
2.60192
2.02319
1.14915
0.499239
0.335938
0.364851
0.373632
0.348622
0.307124
0.269746
0.243281
0.221329
0.203605
0.197366
3
2.99995
2.99989
2.99964
2.9993
2.99791
2.99592
2.98825
2.97564
2.93422
2.84105
2.62521
2.06546
1.21115
0.535862
0.341581
0.375041
0.388473
0.36631
0.329998
0.298068
0.277283
0.261748
0.250192
0.247631
3
2.99995
2.9999
2.99967
2.99935
2.99807
2.99623
2.98919
2.97744
2.93943
2.85281
2.6527
2.12111
1.29113
0.580963
0.349329
0.387695
0.406136
0.387032
0.355983
0.330592
0.316076
0.307256
0.302804
0.30611
3
2.99996
2.99991
2.9997
2.99941
2.99822
2.99654
2.98999
2.97944
2.94413
2.86703
2.68166
2.20119
1.39758
0.640236
0.365659
0.406852
0.429188
0.41243
0.386281
0.366945
0.359533
0.358739
0.36365
0.37774
3
2.99996
2.99992
2.99973
2.99946
2.99838
2.99685
2.99074
2.98156
2.94862
2.88477
2.71514
2.29736
1.53152
0.712702
0.394627
0.435681
0.458855
0.443601
0.422629
0.409006
0.408115
0.4168
0.436644
0.474368
3
2.99997
2.99993
2.99976
2.99953
2.9986
2.99724
2.99199
2.98383
2.95528
2.90057
2.74964
2.39495
1.67245
0.797943
0.442292
0.47776
0.494322
0.481338
0.464676
0.456491
0.461871
0.484135
0.531465
0.633401
2.99999
2.99994
2.99986
2.99957
2.99916
2.99748
2.99509
2.98572
2.97097
2.92089
2.81462
2.55568
1.94293
1.03812
0.426742
0.32288
0.344255
0.344875
0.314001
0.262066
0.210807
0.168304
0.126173
0.0791465
0.04447
2.99999
2.99994
2.99987
2.99957
2.99916
2.9975
2.99514
2.98587
2.97127
2.92168
2.81628
2.56008
1.95005
1.04759
0.433002
0.323735
0.345637
0.346788
0.316216
0.265036
0.215015
0.174038
0.134235
0.0927916
0.0685179
2.99999
2.99994
2.99987
2.99958
2.99918
2.99756
2.99525
2.98617
2.97188
2.92331
2.81977
2.56927
1.96563
1.06874
0.447417
0.326541
0.349704
0.352344
0.322895
0.273961
0.227107
0.189969
0.155661
0.123484
0.108308
2.99999
2.99994
2.99987
2.9996
2.99921
2.99764
2.99541
2.98664
2.97282
2.92579
2.82511
2.58327
1.98988
1.10216
0.469491
0.330637
0.356155
0.361396
0.33392
0.28827
0.245971
0.213847
0.185836
0.161725
0.151752
3
2.99995
2.99988
2.99962
2.99925
2.99775
2.99563
2.98731
2.97409
2.9293
2.83215
2.60192
2.02319
1.14915
0.499239
0.335938
0.364851
0.373632
0.348622
0.307124
0.269746
0.243281
0.221329
0.203605
0.197366
3
2.99995
2.99989
2.99964
2.9993
2.99791
2.99592
2.98825
2.97564
2.93422
2.84105
2.62521
2.06546
1.21115
0.535862
0.341581
0.375041
0.388473
0.36631
0.329998
0.298068
0.277283
0.261748
0.250192
0.247631
3
2.99995
2.9999
2.99967
2.99935
2.99807
2.99623
2.98919
2.97744
2.93943
2.8528
2.6527
2.12111
1.29112
0.580962
0.349329
0.387695
0.406136
0.387032
0.355983
0.330592
0.316076
0.307256
0.302804
0.30611
3
2.99996
2.99991
2.9997
2.99941
2.99822
2.99654
2.98999
2.97944
2.94413
2.86703
2.68166
2.20119
1.39758
0.640235
0.365659
0.406852
0.429188
0.41243
0.38628
0.366945
0.359533
0.358739
0.36365
0.37774
3
2.99996
2.99992
2.99973
2.99946
2.99838
2.99685
2.99074
2.98156
2.94862
2.88477
2.71514
2.29736
1.53152
0.712701
0.394627
0.43568
0.458855
0.443601
0.422629
0.409006
0.408115
0.4168
0.436644
0.474368
3
2.99997
2.99993
2.99976
2.99953
2.9986
2.99724
2.99199
2.98383
2.95528
2.90057
2.74964
2.39495
1.67245
0.797942
0.442292
0.47776
0.494322
0.481338
0.464676
0.456491
0.461871
0.484135
0.531465
0.633401
2.99999
2.99994
2.99986
2.99957
2.99916
2.99748
2.99509
2.98572
2.97097
2.92089
2.81462
2.55568
1.94293
1.03812
0.426742
0.32288
0.344255
0.344875
0.314001
0.262066
0.210807
0.168304
0.126173
0.0791465
0.04447
2.99999
2.99994
2.99987
2.99957
2.99916
2.9975
2.99514
2.98587
2.97127
2.92168
2.81628
2.56008
1.95005
1.04759
0.433002
0.323735
0.345637
0.346788
0.316216
0.265036
0.215015
0.174038
0.134235
0.0927916
0.0685179
2.99999
2.99994
2.99987
2.99958
2.99918
2.99756
2.99525
2.98617
2.97188
2.92331
2.81977
2.56927
1.96563
1.06874
0.447417
0.326541
0.349704
0.352344
0.322895
0.273961
0.227107
0.189969
0.155661
0.123484
0.108308
2.99999
2.99994
2.99987
2.9996
2.99921
2.99764
2.99541
2.98664
2.97282
2.92579
2.82511
2.58327
1.98988
1.10216
0.469491
0.330637
0.356155
0.361396
0.33392
0.28827
0.245971
0.213847
0.185836
0.161725
0.151752
3
2.99995
2.99988
2.99962
2.99925
2.99775
2.99563
2.98731
2.97409
2.9293
2.83215
2.60192
2.02319
1.14915
0.499239
0.335938
0.364851
0.373632
0.348622
0.307124
0.269746
0.243281
0.221329
0.203605
0.197366
3
2.99995
2.99989
2.99964
2.9993
2.99791
2.99592
2.98825
2.97564
2.93422
2.84105
2.62521
2.06546
1.21115
0.535862
0.341581
0.375041
0.388473
0.36631
0.329998
0.298068
0.277283
0.261748
0.250192
0.247631
3
2.99995
2.9999
2.99967
2.99935
2.99807
2.99623
2.98919
2.97744
2.93943
2.8528
2.6527
2.12111
1.29112
0.580962
0.349329
0.387695
0.406136
0.387032
0.355983
0.330592
0.316076
0.307256
0.302804
0.30611
3
2.99996
2.99991
2.9997
2.99941
2.99822
2.99654
2.98999
2.97944
2.94413
2.86703
2.68166
2.20118
1.39758
0.640235
0.365659
0.406852
0.429188
0.41243
0.38628
0.366945
0.359533
0.358739
0.36365
0.37774
3
2.99996
2.99992
2.99973
2.99946
2.99838
2.99685
2.99074
2.98156
2.94862
2.88477
2.71514
2.29736
1.53152
0.712701
0.394627
0.43568
0.458855
0.443601
0.422629
0.409006
0.408115
0.4168
0.436644
0.474368
3
2.99997
2.99993
2.99976
2.99953
2.9986
2.99724
2.99199
2.98383
2.95528
2.90057
2.74964
2.39495
1.67245
0.797942
0.442292
0.47776
0.494322
0.481338
0.464676
0.456491
0.461871
0.484135
0.531465
0.633401
2.99999
2.99994
2.99986
2.99957
2.99916
2.99748
2.99509
2.98572
2.97097
2.92089
2.81462
2.55568
1.94293
1.03812
0.426743
0.322879
0.344255
0.344875
0.314001
0.262066
0.210807
0.168304
0.126173
0.0791465
0.04447
2.99999
2.99994
2.99987
2.99957
2.99916
2.9975
2.99514
2.98587
2.97127
2.92168
2.81628
2.56008
1.95005
1.04759
0.433003
0.323735
0.345637
0.346788
0.316216
0.265036
0.215015
0.174038
0.134235
0.0927916
0.0685179
2.99999
2.99994
2.99987
2.99958
2.99918
2.99756
2.99525
2.98617
2.97188
2.92331
2.81977
2.56927
1.96564
1.06874
0.447418
0.326541
0.349704
0.352344
0.322895
0.273961
0.227107
0.189969
0.155661
0.123484
0.108308
2.99999
2.99994
2.99987
2.9996
2.99921
2.99764
2.99541
2.98664
2.97282
2.92579
2.82511
2.58327
1.98988
1.10216
0.469491
0.330637
0.356155
0.361396
0.33392
0.28827
0.245971
0.213847
0.185836
0.161725
0.151752
3
2.99995
2.99988
2.99962
2.99925
2.99775
2.99563
2.98731
2.97409
2.9293
2.83215
2.60192
2.02319
1.14915
0.499239
0.335938
0.364851
0.373632
0.348622
0.307124
0.269746
0.243281
0.221329
0.203605
0.197366
3
2.99995
2.99989
2.99964
2.9993
2.99791
2.99592
2.98825
2.97564
2.93422
2.84105
2.62521
2.06546
1.21115
0.535862
0.341581
0.375041
0.388473
0.36631
0.329998
0.298068
0.277283
0.261748
0.250192
0.247631
3
2.99995
2.9999
2.99967
2.99935
2.99807
2.99623
2.98919
2.97744
2.93943
2.85281
2.6527
2.12111
1.29112
0.580963
0.349329
0.387695
0.406136
0.387032
0.355983
0.330592
0.316076
0.307256
0.302804
0.30611
3
2.99996
2.99991
2.9997
2.99941
2.99822
2.99654
2.98999
2.97944
2.94413
2.86703
2.68166
2.20119
1.39758
0.640235
0.365659
0.406852
0.429188
0.41243
0.38628
0.366945
0.359533
0.358739
0.36365
0.37774
3
2.99996
2.99992
2.99973
2.99946
2.99838
2.99685
2.99074
2.98156
2.94862
2.88477
2.71514
2.29736
1.53152
0.712701
0.394627
0.435681
0.458855
0.443601
0.422629
0.409006
0.408115
0.4168
0.436644
0.474368
3
2.99997
2.99993
2.99976
2.99953
2.9986
2.99724
2.99199
2.98383
2.95528
2.90057
2.74964
2.39495
1.67245
0.797943
0.442292
0.47776
0.494322
0.481338
0.464676
0.456491
0.461871
0.484135
0.531465
0.633401
2.99999
2.99994
2.99986
2.99957
2.99916
2.99748
2.99509
2.98572
2.97097
2.92089
2.81462
2.55568
1.94293
1.03812
0.426743
0.322879
0.344255
0.344876
0.314001
0.262066
0.210807
0.168304
0.126173
0.0791465
0.04447
2.99999
2.99994
2.99987
2.99957
2.99916
2.9975
2.99514
2.98587
2.97127
2.92168
2.81628
2.56008
1.95005
1.04759
0.433003
0.323735
0.345637
0.346788
0.316216
0.265036
0.215015
0.174038
0.134235
0.0927916
0.0685179
2.99999
2.99994
2.99987
2.99958
2.99918
2.99756
2.99525
2.98617
2.97188
2.92331
2.81977
2.56927
1.96564
1.06874
0.447418
0.32654
0.349704
0.352344
0.322895
0.273961
0.227107
0.189969
0.155661
0.123484
0.108308
2.99999
2.99994
2.99987
2.9996
2.99921
2.99764
2.99541
2.98664
2.97282
2.92579
2.82511
2.58327
1.98988
1.10216
0.469492
0.330637
0.356155
0.361396
0.33392
0.28827
0.245971
0.213847
0.185836
0.161725
0.151752
3
2.99995
2.99988
2.99962
2.99925
2.99775
2.99563
2.98731
2.97409
2.9293
2.83215
2.60192
2.02319
1.14915
0.49924
0.335938
0.364851
0.373632
0.348622
0.307124
0.269746
0.243281
0.221329
0.203605
0.197366
3
2.99995
2.99989
2.99964
2.9993
2.99791
2.99592
2.98825
2.97564
2.93422
2.84105
2.62521
2.06546
1.21115
0.535863
0.34158
0.375041
0.388473
0.36631
0.329998
0.298068
0.277283
0.261748
0.250192
0.247631
3
2.99995
2.9999
2.99967
2.99935
2.99807
2.99623
2.98919
2.97744
2.93943
2.85281
2.6527
2.12111
1.29113
0.580964
0.349329
0.387695
0.406136
0.387032
0.355983
0.330592
0.316076
0.307256
0.302804
0.30611
3
2.99996
2.99991
2.9997
2.99941
2.99822
2.99654
2.98999
2.97944
2.94413
2.86703
2.68166
2.20119
1.39758
0.640236
0.365659
0.406852
0.429188
0.41243
0.386281
0.366945
0.359533
0.358739
0.36365
0.37774
3
2.99996
2.99992
2.99973
2.99946
2.99838
2.99685
2.99074
2.98156
2.94862
2.88477
2.71514
2.29736
1.53152
0.712703
0.394627
0.435681
0.458855
0.443601
0.422629
0.409006
0.408115
0.4168
0.436644
0.474368
3
2.99997
2.99993
2.99976
2.99953
2.9986
2.99724
2.99199
2.98383
2.95528
2.90057
2.74964
2.39495
1.67245
0.797944
0.442293
0.47776
0.494322
0.481338
0.464676
0.456491
0.461871
0.484135
0.531465
0.633401
2.99999
2.99994
2.99986
2.99957
2.99916
2.99748
2.99509
2.98572
2.97097
2.92089
2.81462
2.55568
1.94294
1.03813
0.426748
0.322878
0.344254
0.344876
0.314001
0.262066
0.210807
0.168304
0.126172
0.0791464
0.0444699
2.99999
2.99994
2.99987
2.99957
2.99916
2.9975
2.99514
2.98587
2.97127
2.92168
2.81628
2.56009
1.95006
1.0476
0.433008
0.323733
0.345636
0.346788
0.316215
0.265036
0.215015
0.174038
0.134235
0.0927915
0.0685179
2.99999
2.99994
2.99987
2.99958
2.99918
2.99756
2.99525
2.98617
2.97188
2.92331
2.81977
2.56928
1.96564
1.06875
0.447423
0.326539
0.349703
0.352344
0.322895
0.273961
0.227106
0.189969
0.155661
0.123484
0.108308
2.99999
2.99994
2.99987
2.9996
2.99921
2.99764
2.99541
2.98664
2.97282
2.92579
2.82512
2.58327
1.98989
1.10217
0.469497
0.330635
0.356155
0.361396
0.33392
0.28827
0.245971
0.213846
0.185836
0.161725
0.151752
3
2.99995
2.99988
2.99962
2.99925
2.99775
2.99563
2.98731
2.97409
2.9293
2.83215
2.60192
2.0232
1.14916
0.499245
0.335936
0.364851
0.373632
0.348623
0.307123
0.269745
0.243281
0.221328
0.203605
0.197366
3
2.99995
2.99989
2.99964
2.9993
2.99791
2.99592
2.98825
2.97564
2.93422
2.84105
2.62521
2.06547
1.21116
0.535868
0.341578
0.37504
0.388473
0.36631
0.329998
0.298067
0.277283
0.261748
0.250192
0.247631
3
2.99995
2.9999
2.99967
2.99935
2.99807
2.99623
2.98919
2.97744
2.93943
2.85281
2.6527
2.12112
1.29114
0.58097
0.349328
0.387695
0.406137
0.387032
0.355983
0.330592
0.316076
0.307256
0.302804
0.30611
3
2.99996
2.99991
2.9997
2.99941
2.99822
2.99654
2.98999
2.97944
2.94413
2.86704
2.68167
2.2012
1.3976
0.640243
0.36566
0.406854
0.429189
0.412431
0.386281
0.366945
0.359533
0.358739
0.36365
0.37774
3
2.99996
2.99992
2.99973
2.99946
2.99838
2.99685
2.99074
2.98156
2.94862
2.88477
2.71515
2.29737
1.53154
0.71271
0.39463
0.435683
0.458857
0.443602
0.42263
0.409007
0.408115
0.4168
0.436644
0.474369
3
2.99997
2.99993
2.99976
2.99953
2.9986
2.99724
2.99199
2.98383
2.95528
2.90057
2.74964
2.39496
1.67246
0.797951
0.442296
0.477762
0.494323
0.481339
0.464677
0.456492
0.461872
0.484136
0.531466
0.633402
3.00001
2.99996
2.99988
2.99959
2.99918
2.9975
2.99511
2.98574
2.97099
2.92093
2.81465
2.55577
1.94302
1.03829
0.426939
0.323057
0.344435
0.345066
0.314214
0.262321
0.211124
0.168704
0.126712
0.0800148
0.0460201
3.00001
2.99996
2.99988
2.99959
2.99918
2.99752
2.99516
2.98589
2.97129
2.92171
2.81631
2.56017
1.95015
1.04776
0.433193
0.323903
0.345805
0.346965
0.316414
0.265277
0.215317
0.174418
0.134734
0.0935229
0.0695191
3.00001
2.99996
2.99989
2.9996
2.9992
2.99758
2.99527
2.9862
2.97191
2.92334
2.81981
2.56936
1.96573
1.06891
0.447601
0.326705
0.349868
0.352515
0.323086
0.27419
0.227388
0.190311
0.156086
0.124026
0.108935
3.00001
2.99996
2.99989
2.99962
2.99923
2.99766
2.99543
2.98667
2.97285
2.92582
2.82515
2.58336
1.98997
1.10233
0.469669
0.330798
0.356316
0.361562
0.334102
0.288484
0.246226
0.214145
0.186185
0.162132
0.152192
3.00001
2.99996
2.9999
2.99964
2.99927
2.99777
2.99565
2.98734
2.97411
2.92935
2.83217
2.602
2.02328
1.14932
0.499401
0.336089
0.365004
0.373789
0.348793
0.30732
0.269974
0.243538
0.221616
0.203922
0.197697
3.00002
2.99997
2.99991
2.99966
2.99932
2.99793
2.99594
2.98827
2.97567
2.93426
2.84109
2.6253
2.06557
1.21134
0.536026
0.341735
0.375193
0.388626
0.366472
0.330178
0.29827
0.277504
0.261986
0.250444
0.247889
3.00002
2.99997
2.99992
2.99969
2.99937
2.99809
2.99625
2.98922
2.97746
2.93946
2.85285
2.65278
2.12124
1.29133
0.581126
0.34949
0.387851
0.406288
0.387188
0.356149
0.330771
0.316265
0.307452
0.303005
0.306313
3.00002
2.99998
2.99992
2.99972
2.99943
2.99824
2.99656
2.99001
2.97947
2.94418
2.86706
2.68174
2.20128
1.39778
0.640378
0.365815
0.407004
0.429333
0.412576
0.386433
0.367105
0.359697
0.358903
0.363812
0.377898
3.00002
2.99998
2.99993
2.99974
2.99948
2.9984
2.99688
2.99077
2.98158
2.94865
2.8848
2.71522
2.29747
1.53173
0.712841
0.39479
0.435831
0.458992
0.443738
0.422769
0.409149
0.408256
0.416937
0.436774
0.474487
3.00002
2.99999
2.99995
2.99978
2.99955
2.99862
2.99726
2.99202
2.98385
2.95531
2.9006
2.7497
2.39505
1.67259
0.79808
0.442451
0.477895
0.494437
0.481458
0.464802
0.456618
0.461995
0.484251
0.531568
0.633485
3.00002
3
2.99994
2.99986
2.99953
2.99904
2.99718
2.99433
2.98425
2.96565
2.91078
2.77677
2.48897
1.81703
0.91372
0.500836
0.517194
0.527578
0.52305
0.510606
0.507442
0.520838
0.560837
0.644855
0.812017
3.00002
3
2.99995
2.99987
2.99957
2.99915
2.99743
2.99499
2.98535
2.97033
2.91916
2.8118
2.54778
1.93815
1.05401
0.58011
0.544587
0.555875
0.560492
0.555615
0.558591
0.580623
0.633972
0.73227
0.896479
3.00002
3.00001
2.99996
2.9999
2.99964
2.99928
2.99781
2.99572
2.98754
2.97467
2.93083
2.83705
2.61313
2.05325
1.20557
0.663783
0.563289
0.578253
0.592727
0.597637
0.607669
0.636338
0.694141
0.786462
0.919666
3.00002
3.00001
2.99997
2.99992
2.9997
2.9994
2.99819
2.99644
2.98982
2.97872
2.94306
2.86203
2.67456
2.1756
1.38351
0.75465
0.581348
0.598955
0.619365
0.634949
0.652505
0.684788
0.739864
0.820021
0.929535
3.00002
3.00001
2.99998
2.99994
2.99976
2.9995
2.99847
2.997
2.99121
2.98229
2.951
2.88978
2.72592
2.33347
1.5785
0.870407
0.619555
0.629943
0.648777
0.669037
0.6915
0.725408
0.777593
0.845752
0.937019
3.00002
3.00001
3
2.99994
2.99985
2.99952
2.99904
2.99719
2.99433
2.98438
2.96565
2.91164
2.77806
2.4953
1.85087
1.01892
0.683988
0.674612
0.687816
0.706899
0.727894
0.75945
0.808512
0.869954
0.945137
3.00002
3.00001
3
2.99995
2.99988
2.9996
2.99921
2.99761
2.99536
2.98643
2.97262
2.9253
2.82628
2.58617
2.0123
1.18114
0.756951
0.710412
0.723691
0.741404
0.762613
0.790566
0.832668
0.889224
0.954675
3.00002
3.00002
3.00001
2.99997
2.99992
2.99971
2.9994
2.99821
2.99642
2.98997
2.97842
2.94326
2.86004
2.6722
2.1693
1.38444
0.858916
0.738087
0.7494
0.767085
0.791677
0.819804
0.855155
0.903155
0.961438
3.00002
3.00002
3.00001
2.99999
2.99993
2.99983
2.99946
2.99889
2.9969
2.9933
2.98238
2.95723
2.89594
2.727
2.39629
1.62987
1.00563
0.782818
0.777042
0.791267
0.815505
0.844891
0.877265
0.916114
0.965829
3.00002
3.00002
3.00001
3
2.99995
2.99987
2.99956
2.99912
2.99738
2.99484
2.98519
2.96939
2.91835
2.80712
2.5426
1.95637
1.16939
0.84917
0.814893
0.824047
0.843586
0.86863
0.897086
0.929118
0.968721
3.00003
3.00002
3.00002
3
2.99998
2.99989
2.99975
2.99924
2.99846
2.99569
2.99071
2.97562
2.94082
2.85689
2.62718
2.1912
1.34139
0.932471
0.842966
0.850134
0.867928
0.889805
0.913704
0.940151
0.969617
3.00003
3.00002
3.00002
3.00001
2.99999
2.99992
2.99981
2.9994
2.99881
2.99648
2.99299
2.98052
2.95756
2.89111
2.72623
2.387
1.64776
1.07251
0.886821
0.877408
0.888892
0.907751
0.928438
0.948587
0.966793
3.00003
3.00003
3.00002
3.00002
2.99999
2.99996
2.99983
2.99965
2.99892
2.99784
2.9938
2.98738
2.96544
2.92442
2.80645
2.55596
1.95716
1.2432
0.951312
0.906874
0.910906
0.923766
0.938763
0.950392
0.9578
3.00003
3.00003
3.00002
3.00002
3
2.99998
2.99989
2.99975
2.99922
2.99845
2.99549
2.991
2.97513
2.94579
2.86328
2.66216
2.24155
1.45997
1.04798
0.937356
0.929524
0.933527
0.940707
0.943558
0.941884
3.00003
3.00003
3.00003
3.00002
3.00001
2.99999
2.99994
2.99978
2.99955
2.99865
2.99731
2.99229
2.9843
2.95749
2.90491
2.76503
2.44237
1.78108
1.1813
0.976189
0.947074
0.939565
0.934454
0.928822
0.920514
3.00003
3.00003
3.00003
3.00002
3.00002
3
2.99997
2.99985
2.99968
2.99903
2.99808
2.99443
2.98889
2.96912
2.93406
2.83028
2.60855
2.08226
1.35866
1.03581
0.959294
0.936862
0.922473
0.908528
0.897237
3.00003
3.00003
3.00003
3.00003
3.00002
3.00001
2.99998
2.99993
2.99974
2.99946
2.99841
2.99683
2.99113
2.98131
2.95086
2.88209
2.72359
2.31712
1.62424
1.12616
0.960954
0.918727
0.899471
0.884673
0.873209
3.00003
3.00003
3.00003
3.00003
3.00002
3.00002
2.99999
2.99996
2.99982
2.99962
2.99884
2.9977
2.99335
2.98666
2.96309
2.92114
2.79553
2.54116
1.92505
1.26693
0.972976
0.889339
0.86608
0.854607
0.847829
3.00003
3.00003
3.00003
3.00003
3.00003
3.00002
3.00001
2.99997
2.99991
2.99969
2.99936
2.99814
2.99619
2.98971
2.97689
2.94153
2.85349
2.66559
2.16003
1.41925
0.981748
0.840094
0.817451
0.816052
0.821787
3.00003
3.00003
3.00003
3.00003
3.00003
3.00002
3.00001
2.99999
2.99992
2.99982
2.99943
2.99884
2.99672
2.99312
2.98174
2.95718
2.89484
2.7298
2.40432
1.66563
1.03644
0.785067
0.762902
0.775295
0.799038
3.00003
3.00003
3.00003
3.00003
3.00003
3.00002
3.00001
3
2.99994
2.99986
2.99954
2.99907
2.99723
2.99453
2.98429
2.96739
2.91307
2.79417
2.50986
1.89639
1.07461
0.71595
0.690131
0.725013
0.77076
3.00003
3.00003
3.00003
3.00003
3.00003
3.00002
3.00002
3
2.99997
2.99987
2.99971
2.99912
2.99821
2.99495
2.9891
2.97101
2.92902
2.82799
2.54891
2.02302
1.10009
0.650497
0.590311
0.649082
0.720772
3.00003
3.00003
3.00003
3.00003
3.00003
3.00002
3.00002
3
2.99998
2.99989
2.99976
2.99922
2.99845
2.99546
2.9906
2.97437
2.93906
2.84898
2.60109
2.13278
1.18337
0.627426
0.489497
0.567532
0.662297
3.00003
3.00003
3.00003
3.00003
3.00003
3.00003
3.00002
3.00001
2.99999
2.9999
2.99979
2.99931
2.99863
2.99595
2.99169
2.97707
2.94618
2.86482
2.64243
2.21122
1.28452
0.625156
0.406751
0.50356
0.61562
3.00003
3.00003
3.00003
3.00003
3.00003
3.00003
3.00002
3.00001
2.99999
2.99992
2.99982
2.99942
2.99882
2.99665
2.99267
2.98044
2.95145
2.88026
2.67682
2.28137
1.39766
0.641208
0.357634
0.46961
0.584466
3.00003
3.00003
3.00003
3.00003
3.00003
3.00003
3.00002
3.00002
2.99999
2.99995
2.99979
2.99955
2.99864
2.99719
2.99216
2.98249
2.95399
2.88397
2.72323
2.28864
1.51662
0.643548
0.315079
0.441716
0.554775
3.00003
3.00003
3.00003
3.00003
3.00003
3.00003
3.00002
3.00001
3
2.99994
2.99986
2.99953
2.999
2.99722
2.99365
2.98353
2.95856
2.899
2.72758
2.39103
1.60603
0.698963
0.313568
0.432854
0.534959
3.00003
3.00003
3.00003
3.00003
3.00003
3.00003
3.00002
3.00002
2.99999
2.99995
2.9998
2.99959
2.99872
2.99744
2.99245
2.98451
2.95715
2.90063
2.75324
2.38412
1.6592
0.701765
0.301695
0.417271
0.512456
3.00003
3.00003
3.00003
3.00003
3.00003
3.00003
3.00002
3.00002
2.99999
2.99996
2.99982
2.99961
2.99879
2.99759
2.99282
2.98539
2.95899
2.90654
2.76422
2.41297
1.69776
0.725733
0.304658
0.404187
0.48955
3.00003
3.00003
3.00003
3.00003
3.00003
3.00003
3.00002
3.00002
3
2.99995
2.99987
2.99957
2.9991
2.99742
2.99442
2.98513
2.96396
2.91015
2.76486
2.46556
1.7514
0.809749
0.348051
0.414161
0.48391
3.00003
3.00003
3.00003
3.00003
3.00003
3.00003
3.00002
3.00002
3
2.99997
2.99985
2.99967
2.99899
2.99787
2.99407
2.98639
2.96444
2.91047
2.78492
2.44175
1.77911
0.798004
0.34765
0.399486
0.466412
3.00003
3.00003
3.00003
3.00003
3.00003
3.00003
3.00002
3.00002
3
2.99995
2.99988
2.99957
2.99913
2.99738
2.9947
2.98495
2.96729
2.91308
2.78331
2.49206
1.80941
0.87972
0.385107
0.408699
0.467564
3.00003
3.00003
3.00003
3.00003
3.00003
3.00003
3.00002
3.00002
3
2.99995
2.99988
2.99958
2.99916
2.99745
2.99487
2.98538
2.9684
2.91568
2.79077
2.50645
1.83596
0.91254
0.399095
0.4065
0.465004
3.00003
3.00003
3.00003
3.00003
3.00003
3.00003
3.00002
3.00002
3
2.99997
2.99986
2.9997
2.99908
2.99804
2.99462
2.98738
2.96771
2.91735
2.80467
2.47608
1.86989
0.870732
0.388012
0.386378
0.448158
3.00003
3.00003
3.00003
3.00003
3.00003
3.00003
3.00003
3.00002
3.00001
2.99996
2.99989
2.99961
2.9992
2.99763
2.99509
2.98641
2.96909
2.91962
2.7968
2.5256
1.86988
0.963287
0.427462
0.404817
0.457932
3.00003
3.00003
3.00003
3.00003
3.00003
3.00003
3.00002
3.00002
3
2.99997
2.99987
2.99971
2.99912
2.9981
2.99482
2.98773
2.96884
2.92005
2.81175
2.49122
1.90739
0.905012
0.408443
0.382973
0.441885
3.00003
3.00003
3.00003
3.00003
3.00003
3.00003
3.00003
3.00002
3
2.99996
2.99989
2.99961
2.9992
2.99758
2.99514
2.98605
2.97025
2.91979
2.80394
2.53414
1.89502
0.991465
0.443154
0.403072
0.454558
3.00003
3.00003
3.00003
3.00003
3.00003
3.00003
3.00003
3.00002
3
2.99996
2.99989
2.99961
2.9992
2.9976
2.99517
2.98621
2.97044
2.92053
2.80466
2.53708
1.90044
0.997457
0.44781
0.403285
0.45341
3.00003
3.00003
3.00003
3.00003
3.00003
3.00003
3.00002
3.00002
3
2.99997
2.99986
2.9997
2.99906
2.99809
2.99461
2.98819
2.96886
2.92242
2.81422
2.50409
1.93339
0.930397
0.429185
0.386222
0.439606
3.00003
3.00003
3.00003
3.00003
3.00003
3.00003
3.00002
3.00002
3
2.99997
2.99985
2.99969
2.99901
2.99804
2.99428
2.98816
2.96771
2.9229
2.81183
2.50803
1.93828
0.930189
0.43005
0.384375
0.435826
3
2.99998
2.99992
2.99984
2.99951
2.99902
2.99716
2.99431
2.98423
2.96563
2.91074
2.77672
2.48889
1.81691
0.913542
0.500666
0.517078
0.527482
0.522945
0.510496
0.507331
0.520731
0.560739
0.644775
0.811962
3
2.99998
2.99993
2.99986
2.99955
2.99913
2.99741
2.99497
2.98533
2.97031
2.91912
2.81175
2.54769
1.93801
1.05381
0.579943
0.544486
0.555781
0.560394
0.555513
0.55849
0.580528
0.633887
0.7322
0.896426
3
2.99999
2.99994
2.99988
2.99962
2.99926
2.99779
2.9957
2.98751
2.97465
2.93078
2.83702
2.61305