/*--------------------------------*- C++ -*----------------------------------*\
| =========                 |                                                 |
| \\      /  F ield         | OpenFOAM: The Open Source CFD Toolbox           |
|  \\    /   O peration     | Version:  4.1                                   |
|   \\  /    A nd           | Web:      www.OpenFOAM.org                      |
|    \\/     M anipulation  |                                                 |
\*---------------------------------------------------------------------------*/
FoamFile
{
    version     2.0;
    format      ascii;
    class       volScalarField;
    location    "9";
    object      p;
}
// * * * * * * * * * * * * * * * * * * * * * * * * * * * * * * * * * * * * * //

dimensions      [1 -1 -2 0 0 0 0];

internalField   nonuniform List<scalar> 
52500
(
1.00001
1.00004
1.00013
1.00029
1.00083
1.0017
1.00484
1.00968
1.02889
1.05397
1.1846
1.3483
2.26394
4.0927
9.93627
11.4086
11.2409
11.1541
11.2344
11.4525
11.6886
11.8428
11.9608
12.0552
12.1294
1.00001
1.00004
1.00013
1.00028
1.00082
1.00168
1.00479
1.00958
1.02861
1.05337
1.18294
1.34397
2.25209
4.05848
9.85609
11.4012
11.2323
11.1419
11.223
11.4421
11.678
11.8323
11.952
12.0481
12.1238
1.00001
1.00004
1.00013
1.00028
1.0008
1.00165
1.00469
1.00937
1.02801
1.05214
1.17945
1.33511
2.22675
3.98544
9.67809
11.3847
11.2103
11.1081
11.1881
11.405
11.6378
11.7891
11.9079
12.0028
12.0776
1.00001
1.00004
1.00012
1.00027
1.00078
1.00159
1.00453
1.00904
1.0271
1.05027
1.1741
1.32178
2.18787
3.87432
9.40032
11.3644
11.1781
11.0534
11.13
11.3406
11.5673
11.713
11.8276
11.9193
11.9938
1.00001
1.00003
1.00012
1.00026
1.00074
1.00151
1.00431
1.00859
1.02588
1.04757
1.16712
1.30403
2.13552
3.72564
9.01827
11.3437
11.1376
10.9797
11.0512
11.2527
11.4701
11.6074
11.7157
11.8029
11.8775
1.00001
1.00003
1.00011
1.00024
1.00069
1.00141
1.00403
1.00796
1.02439
1.04391
1.15834
1.28179
2.07206
3.5375
8.5262
11.3266
11.0895
10.8869
10.9513
11.1392
11.3438
11.4685
11.5656
11.6439
11.7185
1.00001
1.00003
1.0001
1.00022
1.00064
1.0013
1.00373
1.00733
1.0226
1.04034
1.14665
1.25725
1.99324
3.31123
7.91902
11.3184
11.0378
10.7773
10.8324
11.0009
11.1862
11.2907
11.3681
11.4278
11.4945
1.00001
1.00003
1.00009
1.0002
1.00058
1.0012
1.00342
1.00678
1.02054
1.03736
1.13235
1.23436
1.88414
3.05666
7.18461
11.3156
10.9884
10.6541
10.6972
10.8393
10.9965
11.0704
11.1139
11.1357
11.1743
1.00001
1.00002
1.00008
1.00018
1.00053
1.00109
1.0031
1.00626
1.01822
1.03531
1.114
1.21238
1.76022
2.77823
6.34032
11.2913
10.9358
10.5249
10.5501
10.6532
10.7711
10.8008
10.789
10.7337
10.6773
1
1.00002
1.00007
1.00016
1.00046
1.00095
1.00271
1.00547
1.01587
1.03112
1.09769
1.18678
1.64121
2.50109
5.45278
11.1458
10.8306
10.4057
10.3929
10.4442
10.5063
10.4839
10.3894
10.1714
9.83906
1.00001
1.00004
1.00014
1.00029
1.00084
1.00171
1.00485
1.00969
1.02891
1.054
1.18462
1.34839
2.26405
4.09313
9.93713
11.4086
11.241
11.1542
11.2345
11.4526
11.6887
11.8429
11.9609
12.0554
12.1295
1.00001
1.00004
1.00013
1.00029
1.00083
1.00169
1.0048
1.00959
1.02862
1.05339
1.18296
1.34406
2.2522
4.05891
9.85695
11.4012
11.2323
11.1421
11.2231
11.4422
11.6781
11.8324
11.9522
12.0482
12.1239
1.00001
1.00004
1.00013
1.00028
1.00081
1.00165
1.0047
1.00938
1.02802
1.05216
1.17947
1.3352
2.22685
3.98587
9.67896
11.3846
11.2103
11.1082
11.1882
11.4051
11.6379
11.7892
11.9081
12.0029
12.0777
1.00001
1.00004
1.00013
1.00027
1.00078
1.0016
1.00454
1.00905
1.02711
1.05029
1.17412
1.32187
2.18797
3.87474
9.4012
11.3644
11.1782
11.0535
11.1301
11.3407
11.5674
11.7131
11.8278
11.9194
11.9939
1.00001
1.00004
1.00012
1.00026
1.00074
1.00152
1.00432
1.0086
1.0259
1.04761
1.16712
1.30413
2.13561
3.72605
9.01917
11.3437
11.1376
10.9798
11.0513
11.2528
11.4703
11.6076
11.7159
11.803
11.8777
1.00001
1.00003
1.00011
1.00024
1.00069
1.00142
1.00404
1.00797
1.02441
1.04393
1.15838
1.28187
2.07218
3.53792
8.52714
11.3266
11.0895
10.887
10.9514
11.1393
11.3439
11.4686
11.5657
11.6441
11.7187
1.00001
1.00003
1.0001
1.00023
1.00064
1.00131
1.00373
1.00734
1.02261
1.04036
1.14668
1.25732
1.99337
3.31165
7.92002
11.3183
11.0379
10.7774
10.8325
11.001
11.1863
11.2908
11.3683
11.4279
11.4946
1.00001
1.00003
1.0001
1.00021
1.00059
1.00121
1.00343
1.00679
1.02055
1.03739
1.13236
1.23445
1.88423
3.05706
7.18559
11.3156
10.9885
10.6542
10.6973
10.8394
10.9966
11.0705
11.114
11.1358
11.1744
1.00001
1.00003
1.00009
1.00019
1.00054
1.0011
1.00311
1.00627
1.01823
1.03533
1.11402
1.21245
1.76033
2.77859
6.34128
11.2914
10.9359
10.525
10.5502
10.6532
10.7712
10.8009
10.7891
10.7338
10.6774
1.00001
1.00002
1.00008
1.00016
1.00047
1.00096
1.00272
1.00548
1.01588
1.03114
1.09771
1.18683
1.6413
2.50136
5.45336
11.1462
10.8308
10.4057
10.3929
10.4443
10.5064
10.484
10.3895
10.1715
9.83916
1.00001
1.00004
1.00014
1.00029
1.00084
1.00171
1.00485
1.00969
1.02891
1.054
1.18462
1.34839
2.26406
4.09317
9.9372
11.4086
11.241
11.1542
11.2345
11.4526
11.6887
11.8429
11.9609
12.0554
12.1295
1.00001
1.00004
1.00013
1.00029
1.00083
1.00169
1.0048
1.00959
1.02862
1.05339
1.18296
1.34406
2.25221
4.05894
9.85703
11.4012
11.2323
11.1421
11.2232
11.4422
11.6781
11.8324
11.9522
12.0482
12.1239
1.00001
1.00004
1.00013
1.00028
1.00081
1.00165
1.0047
1.00938
1.02802
1.05216
1.17947
1.33521
2.22686
3.9859
9.67903
11.3846
11.2103
11.1082
11.1882
11.4051
11.6379
11.7892
11.9081
12.0029
12.0777
1.00001
1.00004
1.00013
1.00027
1.00078
1.0016
1.00454
1.00905
1.02711
1.05029
1.17412
1.32188
2.18798
3.87477
9.40128
11.3644
11.1782
11.0535
11.1301
11.3407
11.5674
11.7131
11.8278
11.9194
11.9939
1.00001
1.00004
1.00012
1.00026
1.00074
1.00152
1.00432
1.0086
1.0259
1.04761
1.16713
1.30413
2.13562
3.72609
9.01926
11.3437
11.1376
10.9798
11.0513
11.2528
11.4703
11.6076
11.7159
11.803
11.8777
1.00001
1.00003
1.00011
1.00024
1.00069
1.00142
1.00404
1.00797
1.02441
1.04393
1.15838
1.28187
2.07219
3.53795
8.52722
11.3265
11.0895
10.887
10.9514
11.1393
11.3439
11.4686
11.5657
11.6441
11.7187
1.00001
1.00003
1.0001
1.00023
1.00064
1.00131
1.00373
1.00734
1.02261
1.04036
1.14668
1.25732
1.99339
3.31168
7.92011
11.3183
11.0379
10.7774
10.8325
11.001
11.1863
11.2908
11.3683
11.4279
11.4946
1.00001
1.00003
1.0001
1.00021
1.00059
1.00121
1.00343
1.00679
1.02055
1.03739
1.13237
1.23446
1.88424
3.05709
7.18569
11.3156
10.9884
10.6542
10.6973
10.8394
10.9966
11.0705
11.114
11.1358
11.1744
1.00001
1.00003
1.00009
1.00019
1.00054
1.0011
1.00311
1.00627
1.01823
1.03533
1.11402
1.21245
1.76034
2.77862
6.34137
11.2914
10.9359
10.525
10.5502
10.6533
10.7712
10.8009
10.7891
10.7338
10.6774
1.00001
1.00002
1.00008
1.00016
1.00047
1.00096
1.00272
1.00548
1.01588
1.03114
1.09771
1.18683
1.64131
2.50138
5.45342
11.1463
10.8308
10.4057
10.3929
10.4443
10.5064
10.484
10.3896
10.1715
9.83917
1.00001
1.00004
1.00014
1.00029
1.00084
1.00171
1.00485
1.00969
1.02891
1.054
1.18462
1.34839
2.26406
4.09317
9.93721
11.4086
11.241
11.1542
11.2345
11.4526
11.6887
11.8429
11.9609
12.0554
12.1295
1.00001
1.00004
1.00013
1.00029
1.00083
1.00169
1.0048
1.00959
1.02862
1.05339
1.18296
1.34406
2.25221
4.05894
9.85704
11.4012
11.2323
11.1421
11.2232
11.4422
11.6781
11.8324
11.9522
12.0482
12.1239
1.00001
1.00004
1.00013
1.00028
1.00081
1.00165
1.0047
1.00938
1.02802
1.05216
1.17947
1.33521
2.22687
3.9859
9.67904
11.3846
11.2103
11.1082
11.1882
11.4051
11.6379
11.7892
11.9081
12.0029
12.0777
1.00001
1.00004
1.00013
1.00027
1.00078
1.0016
1.00454
1.00905
1.02711
1.05029
1.17412
1.32188
2.18799
3.87478
9.40129
11.3644
11.1782
11.0535
11.1301
11.3407
11.5674
11.7131
11.8278
11.9194
11.9939
1.00001
1.00004
1.00012
1.00026
1.00074
1.00152
1.00432
1.0086
1.0259
1.04761
1.16713
1.30413
2.13562
3.72609
9.01927
11.3437
11.1376
10.9798
11.0513
11.2528
11.4703
11.6076
11.7159
11.803
11.8777
1.00001
1.00003
1.00011
1.00024
1.00069
1.00142
1.00404
1.00797
1.02441
1.04393
1.15838
1.28187
2.07219
3.53796
8.52723
11.3265
11.0895
10.887
10.9514
11.1393
11.3439
11.4686
11.5657
11.6441
11.7187
1.00001
1.00003
1.0001
1.00023
1.00064
1.00131
1.00373
1.00734
1.02261
1.04036
1.14668
1.25732
1.99339
3.31169
7.92012
11.3183
11.0379
10.7774
10.8325
11.001
11.1863
11.2908
11.3683
11.4279
11.4946
1.00001
1.00003
1.0001
1.00021
1.00059
1.00121
1.00343
1.00679
1.02055
1.03739
1.13237
1.23446
1.88425
3.05709
7.1857
11.3156
10.9884
10.6542
10.6973
10.8394
10.9966
11.0705
11.114
11.1358
11.1744
1.00001
1.00003
1.00009
1.00019
1.00054
1.0011
1.00311
1.00627
1.01823
1.03533
1.11402
1.21245
1.76034
2.77862
6.34139
11.2914
10.9359
10.525
10.5502
10.6533
10.7712
10.8009
10.7891
10.7338
10.6774
1.00001
1.00002
1.00008
1.00016
1.00047
1.00096
1.00272
1.00548
1.01588
1.03114
1.09771
1.18683
1.64131
2.50138
5.45343
11.1463
10.8308
10.4057
10.3929
10.4443
10.5064
10.484
10.3896
10.1715
9.83918
1.00001
1.00004
1.00014
1.00029
1.00084
1.00171
1.00485
1.00969
1.02891
1.054
1.18462
1.34839
2.26406
4.09317
9.93722
11.4086
11.241
11.1542
11.2345
11.4526
11.6887
11.8429
11.9609
12.0554
12.1295
1.00001
1.00004
1.00013
1.00029
1.00083
1.00169
1.0048
1.00959
1.02862
1.05339
1.18296
1.34406
2.25221
4.05895
9.85704
11.4012
11.2323
11.1421
11.2232
11.4422
11.6781
11.8324
11.9522
12.0482
12.1239
1.00001
1.00004
1.00013
1.00028
1.00081
1.00165
1.0047
1.00938
1.02802
1.05216
1.17947
1.33521
2.22687
3.9859
9.67905
11.3846
11.2103
11.1082
11.1882
11.4051
11.6379
11.7892
11.9081
12.0029
12.0777
1.00001
1.00004
1.00013
1.00027
1.00078
1.0016
1.00454
1.00905
1.02711
1.05029
1.17412
1.32188
2.18799
3.87478
9.4013
11.3644
11.1782
11.0535
11.1301
11.3407
11.5674
11.7131
11.8278
11.9194
11.9939
1.00001
1.00004
1.00012
1.00026
1.00074
1.00152
1.00432
1.0086
1.0259
1.04761
1.16713
1.30413
2.13562
3.72609
9.01928
11.3437
11.1376
10.9798
11.0513
11.2528
11.4703
11.6076
11.7159
11.803
11.8777
1.00001
1.00003
1.00011
1.00024
1.00069
1.00142
1.00404
1.00797
1.02441
1.04393
1.15838
1.28187
2.0722
3.53796
8.52724
11.3265
11.0895
10.887
10.9514
11.1393
11.3439
11.4686
11.5657
11.6441
11.7187
1.00001
1.00003
1.0001
1.00023
1.00064
1.00131
1.00373
1.00734
1.02261
1.04036
1.14668
1.25732
1.99339
3.31169
7.92013
11.3183
11.0379
10.7774
10.8325
11.001
11.1863
11.2908
11.3683
11.4279
11.4946
1.00001
1.00003
1.0001
1.00021
1.00059
1.00121
1.00343
1.00679
1.02055
1.03739
1.13237
1.23446
1.88425
3.0571
7.18571
11.3156
10.9884
10.6542
10.6973
10.8394
10.9966
11.0705
11.114
11.1358
11.1744
1.00001
1.00003
1.00009
1.00019
1.00054
1.0011
1.00311
1.00627
1.01823
1.03533
1.11402
1.21245
1.76034
2.77863
6.3414
11.2914
10.9359
10.525
10.5502
10.6533
10.7712
10.8009
10.7891
10.7338
10.6774
1.00001
1.00002
1.00008
1.00016
1.00047
1.00096
1.00272
1.00548
1.01588
1.03114
1.09771
1.18683
1.64131
2.50138
5.45343
11.1463
10.8308
10.4057
10.3929
10.4443
10.5064
10.484
10.3896
10.1715
9.83918
1.00001
1.00004
1.00014
1.00029
1.00084
1.00171
1.00485
1.00969
1.02891
1.054
1.18462
1.34839
2.26406
4.09317
9.93722
11.4086
11.241
11.1542
11.2345
11.4526
11.6887
11.8429
11.9609
12.0554
12.1295
1.00001
1.00004
1.00013
1.00029
1.00083
1.00169
1.0048
1.00959
1.02862
1.05339
1.18296
1.34406
2.25221
4.05895
9.85704
11.4012
11.2323
11.1421
11.2232
11.4422
11.6781
11.8324
11.9522
12.0482
12.1239
1.00001
1.00004
1.00013
1.00028
1.00081
1.00165
1.0047
1.00938
1.02802
1.05216
1.17947
1.33521
2.22687
3.98591
9.67905
11.3846
11.2103
11.1082
11.1882
11.4051
11.6379
11.7892
11.9081
12.0029
12.0777
1.00001
1.00004
1.00013
1.00027
1.00078
1.0016
1.00454
1.00905
1.02711
1.05029
1.17412
1.32188
2.18799
3.87478
9.4013
11.3644
11.1782
11.0535
11.1301
11.3407
11.5674
11.7131
11.8278
11.9194
11.9939
1.00001
1.00004
1.00012
1.00026
1.00074
1.00152
1.00432
1.0086
1.0259
1.04761
1.16713
1.30413
2.13562
3.72609
9.01928
11.3437
11.1376
10.9798
11.0513
11.2528
11.4703
11.6076
11.7159
11.803
11.8777
1.00001
1.00003
1.00011
1.00024
1.00069
1.00142
1.00404
1.00797
1.02441
1.04393
1.15838
1.28187
2.0722
3.53796
8.52724
11.3265
11.0895
10.887
10.9514
11.1393
11.3439
11.4686
11.5657
11.6441
11.7187
1.00001
1.00003
1.0001
1.00023
1.00064
1.00131
1.00373
1.00734
1.02261
1.04036
1.14668
1.25732
1.99339
3.31169
7.92013
11.3183
11.0379
10.7774
10.8325
11.001
11.1863
11.2908
11.3683
11.4279
11.4946
1.00001
1.00003
1.0001
1.00021
1.00059
1.00121
1.00343
1.00679
1.02055
1.03739
1.13237
1.23446
1.88425
3.0571
7.18571
11.3156
10.9884
10.6542
10.6973
10.8394
10.9966
11.0705
11.114
11.1358
11.1744
1.00001
1.00003
1.00009
1.00019
1.00054
1.0011
1.00311
1.00627
1.01823
1.03533
1.11402
1.21245
1.76034
2.77863
6.3414
11.2914
10.9359
10.525
10.5502
10.6533
10.7712
10.8009
10.7891
10.7338
10.6774
1.00001
1.00002
1.00008
1.00016
1.00047
1.00096
1.00272
1.00548
1.01588
1.03114
1.09771
1.18683
1.64131
2.50139
5.45344
11.1463
10.8308
10.4057
10.3929
10.4443
10.5064
10.484
10.3896
10.1715
9.83918
1.00001
1.00004
1.00014
1.00029
1.00084
1.00171
1.00485
1.00969
1.02891
1.054
1.18462
1.34839
2.26406
4.09317
9.93722
11.4086
11.241
11.1542
11.2345
11.4526
11.6887
11.8429
11.9609
12.0554
12.1295
1.00001
1.00004
1.00013
1.00029
1.00083
1.00169
1.0048
1.00959
1.02862
1.05339
1.18296
1.34406
2.25221
4.05895
9.85704
11.4012
11.2323
11.1421
11.2232
11.4422
11.6781
11.8324
11.9522
12.0482
12.1239
1.00001
1.00004
1.00013
1.00028
1.00081
1.00165
1.0047
1.00938
1.02802
1.05216
1.17947
1.33521
2.22687
3.9859
9.67905
11.3846
11.2103
11.1082
11.1882
11.4051
11.6379
11.7892
11.9081
12.0029
12.0777
1.00001
1.00004
1.00013
1.00027
1.00078
1.0016
1.00454
1.00905
1.02711
1.05029
1.17412
1.32188
2.18799
3.87478
9.40129
11.3644
11.1782
11.0535
11.1301
11.3407
11.5674
11.7131
11.8278
11.9194
11.9939
1.00001
1.00004
1.00012
1.00026
1.00074
1.00152
1.00432
1.0086
1.0259
1.04761
1.16713
1.30413
2.13562
3.72609
9.01927
11.3437
11.1376
10.9798
11.0513
11.2528
11.4703
11.6076
11.7159
11.803
11.8777
1.00001
1.00003
1.00011
1.00024
1.00069
1.00142
1.00404
1.00797
1.02441
1.04393
1.15838
1.28187
2.0722
3.53796
8.52724
11.3265
11.0895
10.887
10.9514
11.1393
11.3439
11.4686
11.5657
11.6441
11.7187
1.00001
1.00003
1.0001
1.00023
1.00064
1.00131
1.00373
1.00734
1.02261
1.04036
1.14668
1.25732
1.99339
3.31169
7.92012
11.3183
11.0379
10.7774
10.8325
11.001
11.1863
11.2908
11.3683
11.4279
11.4946
1.00001
1.00003
1.0001
1.00021
1.00059
1.00121
1.00343
1.00679
1.02055
1.03739
1.13237
1.23446
1.88425
3.0571
7.18571
11.3156
10.9884
10.6542
10.6973
10.8394
10.9966
11.0705
11.114
11.1358
11.1744
1.00001
1.00003
1.00009
1.00019
1.00054
1.0011
1.00311
1.00627
1.01823
1.03533
1.11402
1.21245
1.76034
2.77862
6.34139
11.2914
10.9359
10.525
10.5502
10.6533
10.7712
10.8009
10.7891
10.7338
10.6774
1.00001
1.00002
1.00008
1.00016
1.00047
1.00096
1.00272
1.00548
1.01588
1.03114
1.09771
1.18683
1.64131
2.50138
5.45343
11.1463
10.8308
10.4057
10.3929
10.4443
10.5064
10.484
10.3896
10.1715
9.83918
1.00001
1.00004
1.00014
1.00029
1.00084
1.00171
1.00485
1.00969
1.02891
1.054
1.18462
1.34839
2.26406
4.09317
9.93721
11.4086
11.241
11.1542
11.2345
11.4526
11.6887
11.8429
11.9609
12.0554
12.1295
1.00001
1.00004
1.00013
1.00029
1.00083
1.00169
1.0048
1.00959
1.02862
1.05339
1.18296
1.34406
2.25221
4.05894
9.85703
11.4012
11.2323
11.1421
11.2232
11.4422
11.6781
11.8324
11.9522
12.0482
12.1239
1.00001
1.00004
1.00013
1.00028
1.00081
1.00165
1.0047
1.00938
1.02802
1.05216
1.17947
1.33521
2.22686
3.9859
9.67904
11.3846
11.2103
11.1082
11.1882
11.4051
11.6379
11.7892
11.9081
12.0029
12.0777
1.00001
1.00004
1.00013
1.00027
1.00078
1.0016
1.00454
1.00905
1.02711
1.05029
1.17412
1.32188
2.18798
3.87478
9.40128
11.3644
11.1782
11.0535
11.1301
11.3407
11.5674
11.7131
11.8278
11.9194
11.9939
1.00001
1.00004
1.00012
1.00026
1.00074
1.00152
1.00432
1.0086
1.0259
1.04761
1.16713
1.30413
2.13562
3.72609
9.01926
11.3437
11.1376
10.9798
11.0513
11.2528
11.4703
11.6076
11.7159
11.803
11.8777
1.00001
1.00003
1.00011
1.00024
1.00069
1.00142
1.00404
1.00797
1.02441
1.04393
1.15838
1.28187
2.07219
3.53795
8.52723
11.3265
11.0895
10.887
10.9514
11.1393
11.3439
11.4686
11.5657
11.6441
11.7187
1.00001
1.00003
1.0001
1.00023
1.00064
1.00131
1.00373
1.00734
1.02261
1.04036
1.14668
1.25732
1.99339
3.31168
7.92011
11.3183
11.0379
10.7774
10.8325
11.001
11.1863
11.2908
11.3683
11.4279
11.4946
1.00001
1.00003
1.0001
1.00021
1.00059
1.00121
1.00343
1.00679
1.02055
1.03739
1.13237
1.23446
1.88424
3.05709
7.18569
11.3156
10.9884
10.6542
10.6973
10.8394
10.9966
11.0705
11.114
11.1358
11.1744
1.00001
1.00003
1.00009
1.00019
1.00054
1.0011
1.00311
1.00627
1.01823
1.03533
1.11402
1.21245
1.76034
2.77862
6.34138
11.2914
10.9359
10.525
10.5502
10.6533
10.7712
10.8009
10.7891
10.7338
10.6774
1.00001
1.00002
1.00008
1.00016
1.00047
1.00096
1.00272
1.00548
1.01588
1.03114
1.09771
1.18683
1.64131
2.50138
5.45342
11.1463
10.8308
10.4057
10.3929
10.4443
10.5064
10.484
10.3896
10.1715
9.83917
1.00001
1.00004
1.00014
1.00029
1.00084
1.00171
1.00485
1.00969
1.02891
1.054
1.18462
1.34839
2.26405
4.09313
9.93713
11.4086
11.241
11.1542
11.2345
11.4526
11.6887
11.8429
11.9609
12.0554
12.1295
1.00001
1.00004
1.00013
1.00029
1.00083
1.00169
1.0048
1.00959
1.02862
1.05339
1.18296
1.34406
2.2522
4.05891
9.85695
11.4012
11.2323
11.1421
11.2231
11.4422
11.6781
11.8324
11.9522
12.0482
12.1239
1.00001
1.00004
1.00013
1.00028
1.00081
1.00165
1.0047
1.00938
1.02802
1.05216
1.17947
1.3352
2.22685
3.98587
9.67896
11.3846
11.2103
11.1082
11.1882
11.4051
11.6379
11.7892
11.9081
12.0029
12.0777
1.00001
1.00004
1.00013
1.00027
1.00078
1.0016
1.00454
1.00905
1.02711
1.05029
1.17412
1.32187
2.18797
3.87474
9.4012
11.3644
11.1782
11.0535
11.1301
11.3407
11.5674
11.7131
11.8278
11.9194
11.9939
1.00001
1.00004
1.00012
1.00026
1.00074
1.00152
1.00432
1.0086
1.0259
1.04761
1.16712
1.30413
2.13561
3.72605
9.01917
11.3437
11.1376
10.9798
11.0513
11.2528
11.4703
11.6076
11.7159
11.803
11.8777
1.00001
1.00003
1.00011
1.00024
1.00069
1.00142
1.00404
1.00797
1.02441
1.04393
1.15838
1.28186
2.07218
3.53792
8.52713
11.3266
11.0895
10.887
10.9514
11.1393
11.3439
11.4686
11.5657
11.6441
11.7187
1.00001
1.00003
1.0001
1.00023
1.00064
1.00131
1.00373
1.00734
1.02261
1.04036
1.14668
1.25732
1.99337
3.31165
7.92001
11.3183
11.0379
10.7774
10.8325
11.001
11.1863
11.2908
11.3683
11.4279
11.4946
1.00001
1.00003
1.0001
1.00021
1.00059
1.00121
1.00343
1.00679
1.02055
1.03739
1.13236
1.23445
1.88423
3.05706
7.18559
11.3156
10.9885
10.6542
10.6973
10.8394
10.9966
11.0705
11.114
11.1358
11.1744
1.00001
1.00003
1.00009
1.00019
1.00054
1.0011
1.00311
1.00627
1.01823
1.03533
1.11402
1.21245
1.76033
2.77859
6.34128
11.2914
10.9359
10.525
10.5502
10.6532
10.7712
10.8009
10.7891
10.7338
10.6774
1.00001
1.00002
1.00008
1.00016
1.00047
1.00096
1.00272
1.00548
1.01588
1.03114
1.09771
1.18683
1.6413
2.50136
5.45336
11.1462
10.8308
10.4057
10.3929
10.4443
10.5064
10.484
10.3895
10.1715
9.83916
1.00001
1.00004
1.00013
1.00029
1.00083
1.0017
1.00484
1.00968
1.02889
1.05397
1.1846
1.3483
2.26394
4.0927
9.93627
11.4086
11.2409
11.1541
11.2344
11.4525
11.6886
11.8428
11.9608
12.0552
12.1294
1.00001
1.00004
1.00013
1.00028
1.00082
1.00168
1.00479
1.00958
1.02861
1.05337
1.18294
1.34397
2.25209
4.05847
9.85609
11.4012
11.2323
11.1419
11.223
11.4421
11.678
11.8323
11.952
12.0481
12.1238
1.00001
1.00004
1.00013
1.00028
1.0008
1.00165
1.00469
1.00937
1.02801
1.05214
1.17945
1.33511
2.22675
3.98544
9.67809
11.3847
11.2103
11.1081
11.1881
11.405
11.6378
11.7891
11.9079
12.0028
12.0776
1.00001
1.00004
1.00012
1.00027
1.00078
1.00159
1.00453
1.00904
1.0271
1.05027
1.1741
1.32178
2.18786
3.87432
9.40031
11.3644
11.1781
11.0534
11.13
11.3406
11.5673
11.713
11.8276
11.9193
11.9938
1.00001
1.00003
1.00012
1.00026
1.00074
1.00151
1.00431
1.00859
1.02588
1.04757
1.16712
1.30403
2.13552
3.72564
9.01827
11.3437
11.1376
10.9797
11.0512
11.2527
11.4701
11.6074
11.7157
11.8029
11.8775
1.00001
1.00003
1.00011
1.00024
1.00069
1.00141
1.00403
1.00796
1.02439
1.04391
1.15834
1.28179
2.07206
3.5375
8.5262
11.3266
11.0895
10.8869
10.9513
11.1392
11.3438
11.4685
11.5656
11.6439
11.7185
1.00001
1.00003
1.0001
1.00022
1.00064
1.0013
1.00373
1.00733
1.0226
1.04034
1.14665
1.25725
1.99324
3.31123
7.91902
11.3184
11.0378
10.7773
10.8324
11.0009
11.1862
11.2907
11.3681
11.4278
11.4945
1.00001
1.00003
1.00009
1.0002
1.00058
1.0012
1.00342
1.00678
1.02054
1.03736
1.13235
1.23436
1.88414
3.05666
7.18461
11.3156
10.9884
10.6541
10.6972
10.8393
10.9965
11.0704
11.1139
11.1357
11.1743
1.00001
1.00002
1.00008
1.00018
1.00053
1.00109
1.0031
1.00626
1.01822
1.03531
1.114
1.21238
1.76022
2.77823
6.34032
11.2913
10.9358
10.5249
10.5501
10.6532
10.7711
10.8008
10.789
10.7337
10.6773
1
1.00002
1.00007
1.00016
1.00046
1.00095
1.00271
1.00547
1.01587
1.03112
1.09769
1.18678
1.64121
2.50109
5.45278
11.1458
10.8306
10.4057
10.3929
10.4442
10.5063
10.4839
10.3894
10.1714
9.83906
1
1.00002
1.00005
1.00016
1.00034
1.00096
1.00194
1.0056
1.01086
1.03434
1.06024
1.22057
1.42074
2.45853
4.7186
10.6503
10.588
10.33
10.2094
10.2194
10.2104
10.1259
9.8787
9.30904
7.8833
1
1.00002
1.00005
1.00014
1.0003
1.00086
1.00175
1.00497
1.00995
1.02952
1.05553
1.18724
1.35863
2.27361
4.11275
9.64291
10.3667
10.2188
10.0251
9.98365
9.91351
9.74227
9.36166
8.60042
7.1649
1
1.00002
1.00004
1.00012
1.00026
1.00073
1.00149
1.00424
1.00846
1.0253
1.04685
1.16214
1.29618
2.09231
3.59957
8.47655
10.2201
10.1052
9.85944
9.74476
9.62471
9.37977
8.91616
8.16089
7.041
1
1.00001
1.00003
1.0001
1.00021
1.00061
1.00124
1.00354
1.00695
1.02134
1.03809
1.13742
1.24031
1.91769
3.11295
7.20688
10.1098
9.99613
9.71569
9.5175
9.34723
9.06211
8.59313
7.91208
7.03629
1
1.00001
1.00003
1.00008
1.00018
1.00051
1.00105
1.00297
1.006
1.01747
1.03388
1.10858
1.20489
1.71667
2.66877
5.89942
9.9719
9.88409
9.60174
9.31403
9.09672
8.80039
8.35762
7.75295
7.02602
1
1.00001
1.00002
1.00005
1.00016
1.00034
1.00096
1.00194
1.0056
1.0108
1.03431
1.0599
1.21787
1.42323
2.39416
4.55045
9.58828
9.70958
9.51061
9.14578
8.88455
8.58468
8.17607
7.63989
7.01003
1
1
1.00002
1.00004
1.00013
1.00028
1.0008
1.00163
1.0046
1.00922
1.02728
1.05122
1.17289
1.32356
2.15829
3.75923
8.55274
9.45802
9.32434
9.01117
8.7085
8.40538
8.02765
7.55215
7.0043
1
1
1.00001
1.00003
1.0001
1.00021
1.00061
1.00124
1.00354
1.00691
1.02157
1.03798
1.13869
1.24272
1.92759
3.11586
7.04707
9.21015
9.14041
8.91177
8.5738
8.26267
7.91017
7.48658
7.00728
0.999999
1
1.00001
1.00003
1.00006
1.00019
1.00038
1.00111
1.00216
1.00671
1.01169
1.04256
1.06962
1.26636
1.53391
2.7164
5.41417
8.97046
9.01457
8.85415
8.50143
8.15657
7.82133
7.44413
7.02086
0.999997
0.999999
1
1.00002
1.00005
1.00015
1.00031
1.00088
1.00179
1.0051
1.01016
1.0304
1.05659
1.19057
1.37041
2.24358
3.96449
8.40636
8.91598
8.77904
8.45393
8.08314
7.76156
7.43359
7.05608
0.999995
0.999996
1
1.00001
1.00004
1.00009
1.00026
1.00054
1.00154
1.003
1.00931
1.01623
1.059
1.0972
1.37379
1.76107
3.42285
7.02971
8.69554
8.63064
8.40796
8.04616
7.73861
7.44296
7.12765
0.999994
0.999995
0.999999
1.00001
1.00003
1.00007
1.0002
1.00042
1.00119
1.00242
1.00694
1.01342
1.04259
1.07443
1.271
1.53699
2.73352
5.34815
8.39362
8.49493
8.3645
8.05818
7.74993
7.47995
7.24207
0.999993
0.999994
0.999996
1
1.00002
1.00006
1.00013
1.00037
1.00075
1.00213
1.00431
1.01236
1.02448
1.07341
1.14755
1.45572
2.05462
3.90512
7.72198
8.4103
8.32303
8.09052
7.79876
7.571
7.41858
0.999993
0.999993
0.999995
1
1.00001
1.00004
1.00009
1.00027
1.00055
1.00154
1.00312
1.00889
1.01737
1.0538
1.09778
1.33685
1.71478
3.16082
6.34468
8.239
8.25492
8.15444
7.92443
7.75805
7.67759
0.999992
0.999992
0.999994
0.999996
1.00001
1.00002
1.00007
1.00016
1.00046
1.00095
1.00267
1.00537
1.01544
1.03011
1.09318
1.17933
1.58564
2.34185
4.6467
7.88212
8.27908
8.24499
8.14728
8.04486
8.01299
0.999992
0.999992
0.999993
0.999995
1
1.00001
1.00005
1.00011
1.00033
1.00068
1.00191
1.00386
1.01095
1.02177
1.06455
1.12796
1.39788
1.89895
3.52656
7.0208
8.26058
8.43119
8.42478
8.40886
8.40648
0.999991
0.999991
0.999992
0.999994
0.999997
1.00001
1.00003
1.00009
1.00019
1.00055
1.00112
1.00315
1.0062
1.0187
1.03362
1.11698
1.20666
1.73811
2.65073
5.48476
8.14983
8.73652
8.82209
8.84756
8.84591
0.999991
0.999991
0.999992
0.999993
0.999995
1
1.00002
1.00006
1.00014
1.0004
1.00081
1.00229
1.00462
1.01314
1.02625
1.07709
1.15761
1.47732
2.09486
3.98777
7.76343
9.11289
9.34346
9.34754
9.3281
0.999991
0.999991
0.999991
0.999992
0.999994
0.999998
1.00001
1.00003
1.00011
1.00023
1.00065
1.00131
1.00379
1.00717
1.02312
1.03979
1.14498
1.25564
1.95059
3.14806
6.85961
9.48589
9.91599
9.89146
9.8053
0.999991
0.999991
0.999991
0.999992
0.999993
0.999997
1
1.00003
1.00007
1.0002
1.00041
1.00116
1.0023
1.0069
1.01245
1.04308
1.07188
1.26824
1.53209
2.70612
5.25218
9.85847
10.5421
10.4546
10.2263
0.999991
0.999991
0.999991
0.999991
0.999992
0.999996
1
1.00002
1.00005
1.00016
1.00033
1.00094
1.00191
1.00545
1.01087
1.03262
1.06091
1.2056
1.40837
2.36674
4.38496
9.72945
11.003
10.8776
10.5363
0.999991
0.999991
0.999991
0.999991
0.999992
0.999994
1
1.00001
1.00005
1.0001
1.0003
1.00062
1.0018
1.00352
1.01106
1.01938
1.07138
1.11997
1.46244
2.00768
4.16406
9.20935
11.2622
11.1231
10.7046
0.999991
0.999991
0.999991
0.999991
0.999992
0.999993
0.999999
1.00001
1.00004
1.00009
1.00026
1.00054
1.00157
1.00311
1.00954
1.01707
1.06195
1.10236
1.40746
1.84746
3.82806
8.50092
11.5429
11.3208
10.7293
0.999991
0.999991
0.999991
0.999991
0.999992
0.999993
0.999998
1.00001
1.00003
1.00008
1.00023
1.00048
1.00139
1.00276
1.00843
1.01531
1.05477
1.09125
1.36236
1.75027
3.52268
7.84684
11.8772
11.4922
10.6804
0.999991
0.99999
0.999991
0.999991
0.999991
0.999992
0.999996
1
1.00003
1.00006
1.0002
1.00041
1.00119
1.00232
1.00745
1.01286
1.04906
1.07987
1.32358
1.66766
3.24934
7.21087
12.1581
11.5817
10.6103
0.999991
0.99999
0.99999
0.999991
0.999991
0.999993
0.999995
1
1.00002
1.00007
1.00016
1.00047
1.00095
1.00281
1.00544
1.01758
1.03084
1.11535
1.20405
1.78205
2.85465
6.70542
12.3533
11.6082
10.5825
0.999991
0.99999
0.99999
0.999991
0.999991
0.999992
0.999995
1
1.00002
1.00005
1.00016
1.00034
1.00102
1.00191
1.00641
1.01083
1.04143
1.06766
1.2684
1.54444
2.8135
5.99363
12.4067
11.6271
10.5965
0.999991
0.99999
0.99999
0.999991
0.999991
0.999992
0.999995
1
1.00002
1.00007
1.00014
1.00043
1.00089
1.00257
1.00518
1.01547
1.02946
1.09883
1.18254
1.65997
2.55248
5.76276
12.2431
11.5842
10.6248
0.999991
0.99999
0.99999
0.999991
0.999991
0.999992
0.999994
1
1.00002
1.00006
1.00014
1.00041
1.00084
1.00243
1.00492
1.01461
1.02835
1.09284
1.17418
1.62233
2.46922
5.52889
11.9928
11.5155
10.6695
0.999991
0.99999
0.99999
0.999991
0.999991
0.999992
0.999995
1
1.00002
1.00005
1.00015
1.00031
1.00091
1.00179
1.0056
1.0099
1.03616
1.05938
1.23244
1.44938
2.57348
5.14869
11.7423
11.455
10.7735
0.999991
0.99999
0.99999
0.999991
0.999991
0.999992
0.999994
1
1.00001
1.00005
1.00012
1.00035
1.00071
1.00217
1.00406
1.01373
1.02352
1.08879
1.15435
1.58396
2.34656
5.14736
11.4837
11.3376
10.824
0.999991
0.99999
0.99999
0.999991
0.999991
0.999992
0.999995
0.999999
1.00002
1.00004
1.00014
1.0003
1.00088
1.0018
1.00528
1.01035
1.03293
1.05871
1.21643
1.41355
2.48565
4.79062
11.2784
11.2487
10.8954
0.999991
0.99999
0.99999
0.999991
0.999991
0.999992
0.999995
0.999999
1.00002
1.00004
1.00014
1.00029
1.00086
1.00175
1.00511
1.01004
1.0318
1.05685
1.20927
1.39524
2.44546
4.63347
11.0478
11.2049
10.8878
0.999991
0.99999
0.99999
0.999991
0.999991
0.999992
0.999994
1
1.00001
1.00005
1.00011
1.00032
1.00065
1.00199
1.00364
1.01268
1.02124
1.08137
1.1389
1.53788
2.22044
4.7981
10.8471
11.1432
10.8451
0.999991
0.99999
0.99999
0.999991
0.999991
0.999992
0.999994
0.999999
1.00001
1.00004
1.00013
1.00028
1.00081
1.00165
1.00492
1.00933
1.03102
1.05382
1.20231
1.37552
2.39007
4.4404
10.6356
11.1364
10.8459
0.999991
0.99999
0.99999
0.999991
0.999991
0.999992
0.999994
1
1.00001
1.00005
1.0001
1.00031
1.00062
1.00193
1.00349
1.0123
1.02041
1.07859
1.13297
1.5191
2.16357
4.64804
10.5053
11.0913
10.811
0.999991
0.99999
0.99999
0.999991
0.999991
0.999992
0.999994
0.999999
1.00001
1.00004
1.00013
1.00028
1.00082
1.00166
1.00485
1.00958
1.02992
1.05421
1.19576
1.36665
2.34781
4.31878
10.366
11.1005
10.8163
0.999991
0.99999
0.99999
0.999991
0.999991
0.999992
0.999994
0.999999
1.00001
1.00004
1.00013
1.00028
1.00081
1.00165
1.00481
1.00946
1.02973
1.05344
1.19476
1.36266
2.33821
4.2874
10.2919
11.0873
10.8028
0.999991
0.99999
0.99999
0.999991
0.999991
0.999992
0.999994
1
1.00001
1.00005
1.00011
1.00032
1.00066
1.00192
1.00372
1.01189
1.0206
1.07702
1.12947
1.50611
2.11848
4.54348
10.2217
10.9992
10.7434
0.999991
0.99999
0.99999
0.999991
0.999991
0.999992
0.999994
1
1.00001
1.00005
1.00011
1.00033
1.00068
1.00196
1.00388
1.01192
1.02139
1.07718
1.13068
1.50298
2.11171
4.53202
10.1809
10.9721
10.7262
1
1.00002
1.00006
1.00016
1.00034
1.00096
1.00195
1.00561
1.01087
1.03436
1.06026
1.22061
1.42084
2.45868
4.71924
10.6511
10.5883
10.3299
10.2094
10.2195
10.2105
10.126
9.8788
9.30915
7.88341
1
1.00002
1.00005
1.00015
1.00031
1.00086
1.00176
1.00497
1.00996
1.02953
1.05556
1.18728
1.35872
2.27377
4.11335
9.64386
10.3667
10.2187
10.0251
9.98372
9.9136
9.74237
9.36178
8.60053
7.16504
1
1.00002
1.00004
1.00013
1.00026
1.00074
1.0015
1.00425
1.00848
1.02531
1.04688
1.16215
1.29628
2.09244
3.60006
8.47759
10.2201
10.1052
9.85945
9.74483
9.6248
9.37989
8.91628
8.16101
7.04115
1
1.00001
1.00004
1.00011
1.00022
1.00061
1.00125
1.00355
1.00697
1.02135
1.03811
1.13745
1.24038
1.91784
3.11339
7.20795
10.1098
9.99611
9.71572
9.51758
9.34733
9.06223
8.59326
7.91223
7.03646
1
1.00001
1.00003
1.00009
1.00018
1.00052
1.00106
1.00298
1.00601
1.01748
1.0339
1.10861
1.20495
1.7168
2.66915
5.90048
9.97201
9.88414
9.60176
9.31411
9.09684
8.80052
8.35777
7.75312
7.02622
1
1.00001
1.00003
1.00006
1.00017
1.00035
1.00097
1.00195
1.00561
1.01081
1.03433
1.05993
1.21791
1.42334
2.3943
4.5512
9.58879
9.70969
9.51067
9.14587
8.88468
8.58483
8.17624
7.64009
7.01027
1
1.00001
1.00002
1.00005
1.00014
1.00029
1.0008
1.00164
1.00461
1.00923
1.0273
1.05125
1.17292
1.32367
2.15846
3.75979
8.55382
9.45818
9.32447
9.01126
8.70863
8.40555
8.02785
7.55239
7.00459
1
1.00001
1.00002
1.00004
1.00011
1.00022
1.00062
1.00125
1.00355
1.00692
1.02158
1.03801
1.13872
1.2428
1.92775
3.11633
7.04813