/*--------------------------------*- C++ -*----------------------------------*\
| =========                 |                                                 |
| \\      /  F ield         | OpenFOAM: The Open Source CFD Toolbox           |
|  \\    /   O peration     | Version:  4.1                                   |
|   \\  /    A nd           | Web:      www.OpenFOAM.org                      |
|    \\/     M anipulation  |                                                 |
\*---------------------------------------------------------------------------*/
FoamFile
{
    version     2.0;
    format      ascii;
    class       surfaceScalarField;
    location    "9";
    object      phi;
}
// * * * * * * * * * * * * * * * * * * * * * * * * * * * * * * * * * * * * * //

dimensions      [1 0 -1 0 0 0 0];

internalField   nonuniform List<scalar> 
150500
(
0.0168001
1.99386e-10
-3.32644e-12
0.0168001
1.0684e-09
-1.17496e-11
0.0168001
3.80535e-09
-1.34391e-11
0.0168
9.7833e-09
-2.14824e-11
0.0168
2.68068e-08
-2.18207e-11
0.0167999
6.13902e-08
-2.91616e-11
0.0167998
1.59495e-07
-3.00479e-11
0.0167994
3.59741e-07
-4.14244e-11
0.0167984
9.33009e-07
-4.55002e-11
0.0167963
2.13162e-06
-9.45883e-11
0.0167898
5.78726e-06
-7.57938e-11
0.0167741
1.56169e-05
-3.78204e-10
0.0167181
5.36994e-05
-4.20648e-10
0.0165425
0.000170631
-1.85544e-09
0.015518
0.00101136
-3.85851e-09
0.0143746
0.0011443
-8.5088e-12
0.0132046
0.00117009
-2.03147e-10
0.0119578
0.00124586
-5.13536e-10
0.0106243
0.00133222
-5.49961e-10
0.00918605
0.00143728
-5.73256e-10
0.00762092
0.00156425
-5.38179e-10
0.0059204
0.00169981
-5.3106e-10
0.00409204
0.00182753
-5.35712e-10
0.00212987
0.0019612
-5.44992e-10
0.00212871
-5.53613e-10
0.0168001
4.73513e-10
-3.33751e-12
0.0168001
2.01066e-09
-1.18064e-11
0.0168001
7.86494e-09
-1.34342e-11
0.0168
1.98472e-08
-2.14957e-11
0.0168
5.47497e-08
-2.1816e-11
0.0167999
1.25004e-07
-2.91602e-11
0.0167998
3.25813e-07
-3.00458e-11
0.0167994
7.31373e-07
-4.14311e-11
0.0167983
1.91334e-06
-4.55033e-11
0.0167961
4.32409e-06
-9.46456e-11
0.0167893
1.19365e-05
-7.53871e-11
0.0167732
3.16424e-05
-3.76253e-10
0.0167143
0.000110326
-4.17962e-10
0.0165328
0.000347121
-1.83548e-09
0.0154956
0.00203504
-3.83411e-09
0.0143403
0.00230084
7.66277e-12
0.0131833
0.00232739
-2.09931e-10
0.0119486
0.00247979
-5.17084e-10
0.0106208
0.00265887
-5.46135e-10
0.0091683
0.00288868
-5.66671e-10
0.00758304
0.00314859
-5.43562e-10
0.00586237
0.00341974
-5.39962e-10
0.00401169
0.00367736
-5.42297e-10
0.00204072
0.00393117
-5.49296e-10
0.00416823
-5.57376e-10
0.0168001
5.77643e-10
-3.5468e-12
0.0168001
3.20857e-09
-1.15649e-11
0.0168001
1.18422e-08
-1.36797e-11
0.0168
3.04395e-08
-2.13983e-11
0.0168
8.374e-08
-2.19569e-11
0.0167999
1.91587e-07
-2.91089e-11
0.0167997
4.99053e-07
-3.01615e-11
0.0167994
1.11955e-06
-4.14938e-11
0.0167982
2.93182e-06
-4.57609e-11
0.016796
6.58825e-06
-9.5169e-11
0.016789
1.82503e-05
-7.55757e-11
0.0167728
4.7716e-05
-3.74078e-10
0.0167138
0.000167061
-4.16249e-10
0.0165359
0.000520013
-1.80707e-09
0.0155125
0.0030444
-3.84165e-09
0.0143473
0.00346764
4.48753e-11
0.0131984
0.00347682
-2.05008e-10
0.0119766
0.00370101
-5.11185e-10
0.0106617
0.00397251
-5.32485e-10
0.00921198
0.00433734
-5.48827e-10
0.00762422
0.00473543
-5.42817e-10
0.00589654
0.0051467
-5.46951e-10
0.00402565
0.00554731
-5.48299e-10
0.00204261
0.00591314
-5.53075e-10
0.00620959
-5.62079e-10
0.0168001
7.89848e-10
-3.5226e-12
0.0168001
4.39041e-09
-1.15867e-11
0.0168001
1.63245e-08
-1.36612e-11
0.0168
4.19576e-08
-2.14294e-11
0.0168
1.15611e-07
-2.19758e-11
0.0167999
2.65301e-07
-2.9174e-11
0.0167997
6.87871e-07
-3.0276e-11
0.0167993
1.56876e-06
-4.16245e-11
0.0167981
3.96945e-06
-4.62691e-11
0.0167955
9.25388e-06
-9.50517e-11
0.0167887
2.43669e-05
-7.63255e-11
0.0167725
6.37419e-05
-3.69007e-10
0.0167151
0.000222122
-4.18557e-10
0.0165469
0.000683205
-1.78443e-09
0.01556
0.00401657
-3.9169e-09
0.014392
0.00463785
1.09275e-10
0.013254
0.00461581
-1.82361e-10
0.012053
0.00490114
-4.95671e-10
0.0107567
0.00526778
-5.11391e-10
0.00933658
0.00575625
-5.21562e-10
0.00775321
0.00631798
-5.27941e-10
0.00602409
0.00687475
-5.41118e-10
0.00414175
0.00742904
-5.49235e-10
0.00210476
0.00794969
-5.5505e-10
0.0083131
-5.62083e-10
0.0168001
1.00516e-09
-3.48635e-12
0.0168001
5.54555e-09
-1.16224e-11
0.0168001
2.06468e-08
-1.36507e-11
0.0168
5.30062e-08
-2.1521e-11
0.0168
1.46557e-07
-2.21664e-11
0.0167999
3.377e-07
-2.97022e-11
0.0167997
8.71235e-07
-3.12887e-11
0.0167993
2.03858e-06
-4.65789e-11
0.0167982
4.90133e-06
-4.39315e-11
0.0167954
1.2019e-05
-1.32815e-10
0.0167887
3.04568e-05
-3.06182e-11
0.0167727
7.94984e-05
-4.09752e-10
0.0167228
0.000269661
-3.518e-10
0.0165613
0.000839588
-1.74401e-09
0.0156503
0.00491201
-3.95713e-09
0.0144755
0.00581566
1.87556e-10
0.0133457
0.00574669
-1.81524e-10
0.0121705
0.00607538
-4.99419e-10
0.0109052
0.00653197
-5.02589e-10
0.00951013
0.0071502
-4.94426e-10
0.00796957
0.00785754
-5.0914e-10
0.00624118
0.00860271
-5.26093e-10
0.00433008
0.00933858
-5.29476e-10
0.00223776
0.01004
-5.35921e-10
0.0105494
-5.50689e-10
0.0168001
1.0846e-09
-3.43084e-12
0.0168001
5.98226e-09
-1.16459e-11
0.0168001
2.23108e-08
-1.35346e-11
0.0168001
5.71498e-08
-2.16316e-11
0.0168
1.58222e-07
-2.1688e-11
0.0168
3.62638e-07
-2.94059e-11
0.0167999
9.50464e-07
-3.01657e-11
0.0167998
2.14258e-06
-4.17465e-11
0.016799
5.62994e-06
-4.67553e-11
0.0167985
1.25027e-05
-8.62367e-11
0.016791
3.71817e-05
-1.2231e-10
0.0167807
8.9639e-05
-3.02474e-10
0.0167249
0.000323101
-4.61269e-10
0.0165721
0.000987002
-1.77144e-09
0.0157676
0.00569978
-4.0793e-09
0.0145703
0.00701647
3.50083e-10
0.0134534
0.00686485
-1.15352e-10
0.0123154
0.00721244
-4.77479e-10
0.0111094
0.00773689
-4.75295e-10
0.00976182
0.00849679
-4.54536e-10
0.00825446
0.00936382
-4.73856e-10
0.00656001
0.0102963
-5.07976e-10
0.00462214
0.0112764
-5.27946e-10
0.00242249
0.0122389
-5.38542e-10
0.0129704
-5.46825e-10
0.0168001
1.07229e-09
-3.38158e-12
0.0168001
5.94252e-09
-1.16516e-11
0.0168001
2.21952e-08
-1.34931e-11
0.0168001
5.66904e-08
-2.17228e-11
0.0168001
1.56918e-07
-2.14823e-11
0.0168001
3.55504e-07
-2.94489e-11
0.0168
9.56303e-07
-2.99308e-11
0.0168002
2.0053e-06
-4.13028e-11
0.0167996
6.09472e-06
-4.65404e-11
0.0168004
1.17471e-05
-8.28879e-11
0.0167947
4.21517e-05
-1.22986e-10
0.0167929
9.12544e-05
-2.805e-10
0.0167149
0.000398795
-5.16136e-10
0.016595
0.00110237
-1.73799e-09
0.0159773
0.00629959
-4.2851e-09
0.0147283
0.00826988
4.21395e-10
0.0136099
0.00798508
-8.41381e-11
0.0125088
0.00831285
-4.54519e-10
0.0113642
0.00888065
-4.4386e-10
0.0101132
0.00974672
-4.11087e-10
0.00866415
0.0108122
-4.28778e-10
0.00699727
0.011962
-4.64927e-10
0.00505519
0.0132166
-4.87481e-10
0.00274611
0.0145466
-5.01958e-10
0.0157149
-5.24319e-10
0.0168001
1.13504e-09
-3.34854e-12
0.0168001
6.32385e-09
-1.16416e-11
0.0168001
2.35382e-08
-1.36047e-11
0.0168001
6.0315e-08
-2.14906e-11
0.0168
1.65801e-07
-2.20852e-11
0.0168
3.75504e-07
-2.95759e-11
0.0168
1.00995e-06
-3.10441e-11
0.0167999
2.05822e-06
-4.58772e-11
0.0167991
6.748e-06
-4.35747e-11
0.0168001
1.08837e-05
-1.27451e-10
0.0167913
5.01545e-05
-3.44964e-11
0.0167896
9.32822e-05
-3.85611e-10
0.016752
0.000434082
-3.29033e-10
0.0166824
0.00116807
-1.62618e-09
0.0165199
0.00644322
-4.1806e-09
0.0151743
0.00962059
2.40311e-10
0.0139739
0.00918827
-1.86415e-10
0.0128684
0.00941787
-4.40256e-10
0.0117669
0.00998088
-4.13794e-10
0.0105717
0.0109405
-3.66108e-10
0.00921574
0.0121674
-3.92517e-10
0.00761436
0.0135626
-4.39866e-10
0.0056881
0.0151421
-4.68702e-10
0.00325818
0.0169751
-4.85344e-10
0.0189713
-5.01459e-10
0.0168001
1.60548e-09
-3.3206e-12
0.0168001
7.23477e-09
-1.15909e-11
0.0168001
2.8617e-08
-1.36118e-11
0.0168
7.0913e-08
-2.13421e-11
0.0168
1.99956e-07
-2.17539e-11
0.0167999
4.4752e-07
-2.86806e-11
0.0167997
1.20104e-06
-2.91762e-11
0.0167992
2.57409e-06
-3.80424e-11
0.0167985
7.33569e-06
-4.34929e-11
0.0167955
1.39437e-05
-7.5665e-11
0.0167942
5.07825e-05
-8.37164e-11
0.0167942
9.33062e-05
-2.69666e-10
0.0167994
0.000426552
-4.16609e-10
0.0168504
0.00111361
-1.4591e-09
0.0174619
0.0058125
-4.02106e-09
0.0159986
0.011087
-3.12302e-10
0.0145847
0.0106042
-3.69843e-10
0.0134619
0.0105414
-3.72202e-10
0.0124012
0.0110419
-3.42533e-10
0.0112583
0.0120828
-3.07377e-10
0.00996807
0.0134564
-3.59823e-10
0.00851779
0.0150112
-4.05762e-10
0.00674379
0.0169143
-4.26943e-10
0.00421897
0.0194981
-4.56915e-10
0.0231881
-4.74564e-10
0.0168001
-3.36132e-12
2.91336e-09
0.0168001
-1.15173e-11
2.93133e-09
0.0168
-1.37644e-11
4.04776e-08
0.0168001
-2.13981e-11
3.96114e-08
0.0168
-2.18137e-11
2.71964e-07
0.0168002
-2.86049e-11
2.62641e-07
0.0167997
-2.87085e-11
1.64528e-06
0.0168008
-3.69158e-11
1.46348e-06
0.0167977
-4.05392e-11
1.03639e-05
0.0168052
-6.7061e-11
6.47669e-06
0.0167821
-7.39087e-11
7.3525e-05
0.0168423
-2.08175e-10
3.30274e-05
0.0167491
-3.22152e-10
0.000518214
0.0171357
-1.07467e-09
0.000723411
0.0188046
-2.41045e-09
0.00413443
0.0173129
-1.88406e-09
0.0125738
0.0154263
-8.53242e-10
0.01249
0.0143667
-1.65138e-10
0.0115998
0.0132251
-2.33998e-10
0.0121825
0.0121843
-2.83816e-10
0.0131224
0.0110675
-3.56915e-10
0.0145727
0.00983567
-3.84895e-10
0.0162421
0.00821285
-4.2359e-10
0.0185354
0.00581895
-4.56128e-10
0.0218894
-4.56364e-10
0.029004
0.0168001
1.87076e-10
-7.13707e-16
0.0168001
1.0186e-09
-3.63841e-15
0.0168001
3.78975e-09
-8.97289e-15
0.0168
9.73723e-09
-1.89079e-14
0.0168
2.67737e-08
-4.17533e-14
0.0167999
6.13438e-08
-8.10399e-14
0.0167998
1.59453e-07
-1.97579e-13
0.0167994
3.59686e-07
-3.92309e-13
0.0167984
9.3295e-07
-1.05723e-12
0.0167963
2.13151e-06
-2.1736e-12
0.0167898
5.7874e-06
-6.01177e-12
0.0167741
1.56181e-05
-1.64446e-11
0.0167181
5.37031e-05
-4.40649e-11
0.0165425
0.000170654
-1.39658e-10
0.0155179
0.00101148
-3.46521e-10
0.0143744
0.00114439
1.19828e-11
0.0132043
0.00117014
-5.44482e-12
0.0119574
0.00124586
-3.09083e-11
0.010624
0.00133217
-3.33029e-11
0.00918583
0.00143721
-3.4553e-11
0.00762078
0.00156418
-3.32193e-11
0.00592033
0.00169974
-3.36486e-11
0.00409201
0.00182749
-3.49048e-11
0.00212985
0.00196118
-3.59653e-11
0.00212869
-3.68663e-11
0.0168001
3.82018e-10
-7.16394e-16
0.0168001
2.07995e-09
-3.65079e-15
0.0168
7.73802e-09
-9.00367e-15
0.0168
1.98408e-08
-1.89707e-14
0.0168
5.46384e-08
-4.19067e-14
0.0167999
1.24957e-07
-8.13489e-14
0.0167998
3.25686e-07
-1.98336e-13
0.0167994
7.31236e-07
-3.93946e-13
0.0167983
1.91308e-06
-1.06062e-12
0.0167961
4.32359e-06
-2.1819e-12
0.0167893
1.19361e-05
-6.02704e-12
0.0167732
3.16436e-05
-1.64202e-11
0.0167143
0.000110329
-4.41569e-11
0.0165328
0.000347152
-1.3932e-10
0.0154957
0.00203513
-3.47498e-10
0.0143404
0.00230087
1.53439e-11
0.0131834
0.00232742
-5.02672e-12
0.0119487
0.00247979
-3.10274e-11
0.0106208
0.00265882
-3.31501e-11
0.00916836
0.00288862
-3.4203e-11
0.00758307
0.00314853
-3.31805e-11
0.00586239
0.00341969
-3.3791e-11
0.0040117
0.00367733
-3.50755e-11
0.00204072
0.00393114
-3.61156e-11
0.0041682
-3.69973e-11
0.0168001
5.84644e-10
-7.2077e-16
0.0168001
3.18607e-09
-3.68791e-15
0.0168
1.18524e-08
-9.08622e-15
0.0168
3.04061e-08
-1.91584e-14
0.0168
8.37018e-08
-4.23534e-14
0.0167999
1.91481e-07
-8.22733e-14
0.0167997
4.98845e-07
-2.00642e-13
0.0167994
1.11912e-06
-3.98797e-13
0.0167982
2.93064e-06
-1.07183e-12
0.016796
6.58702e-06
-2.20532e-12
0.016789
1.82452e-05
-6.08481e-12
0.0167728
4.77175e-05
-1.64009e-11
0.0167138
0.000167061
-4.45016e-11
0.0165359
0.000520053
-1.3916e-10
0.0155125
0.00304447
-3.5248e-10
0.0143474
0.0034676
1.30916e-11
0.0131985
0.00347681
-3.81154e-12
0.0119767
0.00370099
-3.11661e-11
0.0106619
0.00397247
-3.28838e-11
0.00921211
0.00433731
-3.35256e-11
0.00762431
0.0047354
-3.28674e-11
0.0058966
0.00514667
-3.39195e-11
0.00402569
0.00554729
-3.51373e-11
0.00204262
0.00591313
-3.60991e-11
0.00620957
-3.70699e-11
0.0168001
8.07919e-10
-7.29854e-16
0.0168001
4.38925e-09
-3.72858e-15
0.0168
1.63366e-08
-9.21545e-15
0.0168
4.19343e-08
-1.9435e-14
0.0168
1.15507e-07
-4.30683e-14
0.0167999
2.65033e-07
-8.36685e-14
0.0167997
6.87267e-07
-2.04185e-13
0.0167993
1.56614e-06
-4.04438e-13
0.0167981
3.96979e-06
-1.09029e-12
0.0167955
9.23422e-06
-2.22404e-12
0.0167886
2.43847e-05
-6.17883e-12
0.0167725
6.37219e-05
-1.63429e-11
0.0167151
0.000222159
-4.5113e-11
0.0165469
0.000683247
-1.39356e-10
0.0155599
0.00401666
-3.61697e-10
0.014392
0.00463771
2.12661e-11
0.0132541
0.00461573
-1.50074e-12
0.0120532
0.00490109
-3.11898e-11
0.0107568
0.00526774
-3.2488e-11
0.00933671
0.00575624
-3.25931e-11
0.00775331
0.00631798
-3.21726e-11
0.00602414
0.00687476
-3.38225e-11
0.00414178
0.00742904
-3.57631e-11
0.00210478
0.00794969
-3.68963e-11
0.0083131
-3.746e-11
0.0168001
1.03233e-09
-7.66903e-16
0.0168001
5.55561e-09
-3.87087e-15
0.0168
2.07167e-08
-9.76415e-15
0.0168
5.29983e-08
-2.07043e-14
0.0168
1.4679e-07
-4.68622e-14
0.0167999
3.37941e-07
-9.29178e-14
0.0167997
8.71883e-07
-2.22925e-13
0.0167993
2.04095e-06
-4.94359e-13
0.0167982
4.90086e-06
-1.05393e-12
0.0167954
1.20392e-05
-2.91688e-12
0.0167887
3.04211e-05
-5.47085e-12
0.0167727
7.95403e-05
-1.69135e-11
0.0167228
0.000269613
-4.49677e-11
0.0165614
0.000839578
-1.40204e-10
0.0156505
0.00491203
-3.74694e-10
0.0144757
0.00581546
3.15571e-11
0.0133459
0.00574662
2.84508e-13
0.0121708
0.00607533
-3.12784e-11
0.0109054
0.00653194
-3.20768e-11
0.0095103
0.00715021
-3.13381e-11
0.0079697
0.00785758
-3.16454e-11
0.0062413
0.00860273
-3.32709e-11
0.00433015
0.00933861
-3.42525e-11
0.00223777
0.01004
-3.55105e-11
0.0105494
-3.70666e-11
0.0168001
1.10904e-09
-7.35042e-16
0.0168001
5.99988e-09
-3.71812e-15
0.0168001
2.23505e-08
-9.25222e-15
0.0168
5.7139e-08
-1.97472e-14
0.0168
1.58345e-07
-4.3549e-14
0.0168
3.6268e-07
-8.59416e-14
0.0167999
9.50651e-07
-2.08563e-13
0.0167998
2.14293e-06
-4.28503e-13
0.016799
5.63034e-06
-1.09299e-12
0.0167985
1.25047e-05
-2.30314e-12
0.016791
3.71831e-05
-6.78653e-12
0.0167807
8.96504e-05
-1.63607e-11
0.0167249
0.000323089
-4.25873e-11
0.016572
0.000987063
-1.44613e-10
0.0157674
0.00569996
-3.85132e-10
0.0145702
0.00701612
4.24446e-11
0.0134534
0.00686463
1.64267e-12
0.0123155
0.0072123
-3.15275e-11
0.0111096
0.00773682
-3.14977e-11
0.00976198
0.00849678
-2.96542e-11
0.0082546
0.00936387
-3.04559e-11
0.00656007
0.0102964
-3.36491e-11
0.00462219
0.0112765
-3.64161e-11
0.00242253
0.0122389
-3.80847e-11
0.0129704
-3.84252e-11
0.0168001
1.08886e-09
-6.75329e-16
0.0168001
5.96365e-09
-3.4532e-15
0.0168001
2.21651e-08
-8.36866e-15
0.0168001
5.68069e-08
-1.78311e-14
0.0168001
1.56688e-07
-3.80814e-14
0.0168001
3.55443e-07
-7.36355e-14
0.0168
9.55825e-07
-1.83033e-13
0.0168002
2.00331e-06
-3.33054e-13
0.0167996
6.09622e-06
-1.07789e-12
0.0168004
1.17272e-05
-1.76127e-12
0.0167947
4.21908e-05
-6.95961e-12
0.0167929
9.1218e-05
-1.29462e-11
0.0167148
0.000398926
-5.51652e-11
0.0165948
0.00110252
-1.41099e-10
0.0159766
0.00630028
-4.04638e-10
0.0147278
0.00826936
5.26848e-11
0.0136096
0.00798457
6.19598e-12
0.0125088
0.00831255
-3.0061e-11
0.0113642
0.00888048
-2.96942e-11
0.0101132
0.00974666
-2.79915e-11
0.00866424
0.0108122
-2.87737e-11
0.00699737
0.0119621
-3.20715e-11
0.00505523
0.0132167
-3.46331e-11
0.00274612
0.0145467
-3.68951e-11
0.015715
-3.90364e-11
0.0168001
1.14699e-09
-5.98805e-16
0.0168001
6.35386e-09
-3.16179e-15
0.0168001
2.35521e-08
-7.31079e-15
0.0168001
6.03809e-08
-1.51569e-14
0.0168
1.65975e-07
-3.11484e-14
0.0168
3.75953e-07
-5.65883e-14
0.0168
1.01104e-06
-1.47087e-13
0.0167999
2.06204e-06
-1.80405e-13
0.0167991
6.75022e-06
-1.10088e-12
0.0168001
1.09048e-05
-5.10937e-13
0.0167913
5.0147e-05
-7.76903e-12
0.0167895
9.33543e-05
-9.65453e-12
0.016752
0.000434077
-5.86792e-11
0.0166824
0.00116827
-1.38052e-10
0.0165194
0.00644439
-4.16169e-10
0.0151739
0.00961997
4.53263e-11
0.0139737
0.00918756
8.25331e-12
0.0128683
0.00941743
-2.60631e-11
0.0117668
0.00998067
-2.61622e-11
0.0105717
0.0109404
-2.55893e-11
0.00921573
0.0121673
-2.77327e-11
0.00761436
0.0135627
-3.29746e-11
0.00568811
0.0151422
-3.67514e-11
0.00325819
0.0169752
-3.95747e-11
0.0189713
-4.11977e-11
0.0168001
1.57081e-09
-6.46778e-16
0.0168001
7.34969e-09
-3.33412e-15
0.0168001
2.84725e-08
-8.02424e-15
0.0168
7.08112e-08
-1.68708e-14
0.0168
1.9978e-07
-3.62941e-14
0.0167999
4.47535e-07
-7.0131e-14
0.0167997
1.20134e-06
-1.7025e-13
0.0167992
2.57559e-06
-3.30869e-13
0.0167985
7.33833e-06
-9.85873e-13
0.0167955
1.39549e-05
-1.52745e-12
0.0167942
5.07933e-05
-7.13383e-12
0.0167942
9.33534e-05
-1.0897e-11
0.0167994
0.000426635
-5.19211e-11
0.0168503
0.00111393
-1.2876e-10
0.0174608
0.00581457
-4.098e-10
0.0159979
0.0110859
-3.22117e-12
0.0145844
0.0106031
-7.33388e-12
0.0134617
0.0105409
-2.18558e-11
0.012401
0.0110416
-2.21197e-11
0.0112582
0.0120827
-2.28457e-11
0.00996802
0.0134563
-2.7214e-11
0.00851775
0.0150113
-3.28495e-11
0.00674376
0.0169143
-3.6338e-11
0.00421896
0.0194982
-4.23308e-11
0.0231881
-4.57136e-11
0.0168001
-5.95407e-16
2.7862e-09
0.0168001
-3.10902e-15
3.30789e-09
0.0168
-7.2317e-15
3.92895e-08
0.0168001
-1.51503e-14
4.00841e-08
0.0168
-3.08036e-14
2.70687e-07
0.0168002
-5.8832e-14
2.63272e-07
0.0167997
-1.3392e-13
1.64424e-06
0.0168008
-2.57248e-13
1.46455e-06
0.0167978
-7.50257e-13
1.03636e-05
0.0168053
-9.97645e-13
6.48219e-06
0.0167821
-5.53403e-12
7.35261e-05
0.0168424
-6.5906e-12
3.30527e-05
0.0167492
-3.78898e-11
0.000518239
0.0171358
-9.01134e-11
0.000723703
0.018806
-2.39604e-10
0.00413518
0.017313
-1.66653e-10
0.012574
0.0154265
-6.49376e-11
0.012489
0.0143666
-8.64735e-12
0.0115995
0.0132249
-1.8813e-11
0.0121822
0.0121842
-2.46313e-11
0.0131223
0.0110673
-3.17266e-11
0.0145726
0.00983557
-3.54832e-11
0.0162421
0.00821281
-4.18624e-11
0.0185354
0.00581891
-5.01297e-11
0.0218895
-5.51098e-11
0.029004
0.0168001
1.87074e-10
1.62299e-16
0.0168001
1.01859e-09
-1.71896e-16
0.0168001
3.78973e-09
-5.69583e-16
0.0168
9.73717e-09
-1.23165e-15
0.0168
2.67736e-08
-3.51642e-15
0.0167999
6.13435e-08
-7.20265e-15
0.0167998
1.59452e-07
-2.03624e-14
0.0167994
3.59684e-07
-4.17643e-14
0.0167984
9.32947e-07
-1.18812e-13
0.0167963
2.1315e-06
-2.476e-13
0.0167898
5.78738e-06
-6.98491e-13
0.0167741
1.56181e-05
-1.92148e-12
0.0167181
5.37032e-05
-5.19643e-12
0.0165425
0.000170654
-1.65157e-11
0.0155179
0.00101149
-4.12122e-11
0.0143744
0.00114439
9.34194e-13
0.0132043
0.00117014
-8.02162e-13
0.0119574
0.00124586
-3.77838e-12
0.010624
0.00133217
-4.055e-12
0.00918583
0.00143721
-4.18874e-12
0.00762079
0.00156417
-4.01729e-12
0.00592034
0.00169974
-4.06232e-12
0.00409201
0.00182749
-4.21217e-12
0.00212985
0.00196118
-4.33303e-12
0.00212869
-4.41554e-12
0.0168001
3.82016e-10
1.62352e-16
0.0168001
2.07993e-09
1.1446e-17
0.0168
7.73796e-09
-5.72623e-16
0.0168
1.98406e-08
-1.23826e-15
0.0168
5.46381e-08
-3.53448e-15
0.0167999
1.24956e-07
-7.24031e-15
0.0167998
3.25684e-07
-2.0458e-14
0.0167994
7.31232e-07
-4.19724e-14
0.0167983
1.91307e-06
-1.19258e-13
0.0167961
4.32357e-06
-2.48676e-13
0.0167893
1.19361e-05
-7.00574e-13
0.0167732
3.16436e-05
-1.91942e-12
0.0167143
0.000110329
-5.20924e-12
0.0165328
0.000347154
-1.64818e-11
0.0154957
0.00203514
-4.13417e-11
0.0143404
0.00230087
1.16207e-12
0.0131834
0.00232742
-7.55883e-13
0.0119487
0.00247979
-3.7987e-12
0.0106208
0.00265882
-4.04474e-12
0.00916837
0.00288862
-4.1568e-12
0.00758308
0.00314853
-4.01796e-12
0.00586239
0.00341969
-4.08371e-12
0.0040117
0.00367733
-4.23745e-12
0.00204072
0.00393115
-4.35606e-12
0.0041682
-4.43519e-12
0.0168001
5.8464e-10
1.62094e-16
0.0168001
3.18604e-09
6.7805e-18
0.0168
1.18523e-08
-5.81426e-16
0.0168
3.04059e-08
-1.2576e-15
0.0168
8.3701e-08
-3.58731e-15
0.0167999
1.9148e-07
-7.35037e-15
0.0167997
4.9884e-07
-2.07422e-14
0.0167994
1.11911e-06
-4.25723e-14
0.0167982
2.93062e-06
-1.20671e-13
0.016796
6.58698e-06
-2.51631e-13
0.016789
1.82451e-05
-7.07968e-13
0.0167728
4.77175e-05
-1.91874e-12
0.0167138
0.00016706
-5.25407e-12
0.0165359
0.000520054
-1.64753e-11
0.0155125
0.00304447
-4.19621e-11
0.0143474
0.0034676
1.66667e-12
0.0131986
0.00347681
-6.19275e-13
0.0119767
0.00370099
-3.83041e-12
0.0106619
0.00397247
-4.03373e-12
0.00921212
0.00433731
-4.10266e-12
0.00762432
0.0047354
-4.00481e-12
0.00589661
0.00514667
-4.11662e-12
0.00402569
0.0055473
-4.27077e-12
0.00204263
0.00591314
-4.3823e-12
0.00620957
-4.47124e-12
0.0168001
8.07901e-10
1.6175e-16
0.0168001
4.38917e-09
-1.8055e-16
0.0168
1.63363e-08
-5.97058e-16
0.0168
4.19336e-08
-1.29104e-15
0.0168
1.15505e-07
-3.67389e-15
0.0167999
2.65027e-07
-7.51913e-15
0.0167997
6.87255e-07
-2.1176e-14
0.0167993
1.56609e-06
-4.32628e-14
0.0167981
3.96979e-06
-1.22981e-13
0.0167955
9.23386e-06
-2.5398e-13
0.0167886
2.4385e-05
-7.20037e-13
0.0167725
6.37216e-05
-1.91367e-12
0.0167151
0.000222159
-5.33287e-12
0.0165469
0.000683249
-1.65165e-11
0.0155599
0.00401667
-4.30999e-11
0.014392
0.0046377
2.52836e-12
0.0132541
0.00461573
-2.95855e-13
0.0120532
0.00490109
-3.8561e-12
0.0107568
0.00526774
-4.01459e-12
0.00933672
0.00575624
-4.03441e-12
0.00775332
0.00631798
-3.96666e-12
0.00602415
0.00687477
-4.1406e-12
0.00414179
0.00742905
-4.37449e-12
0.00210479
0.0079497
-4.51656e-12
0.00831311
-4.56617e-12
0.0168001
1.03234e-09
1.60135e-16
0.0168001
5.5557e-09
-1.98121e-16
0.0168
2.0717e-08
-6.63337e-16
0.0168
5.2999e-08
-1.44455e-15
0.0168
1.46792e-07
-4.13091e-15
0.0167999
3.37946e-07
-8.63631e-15
0.0167997
8.71893e-07
-2.34357e-14
0.0167993
2.04099e-06
-5.41296e-14
0.0167982
4.90086e-06
-1.18618e-13
0.0167954
1.20395e-05
-3.37825e-13
0.0167887
3.04207e-05
-6.34908e-13
0.0167727
7.95407e-05
-1.98674e-12
0.0167228
0.000269615
-5.31936e-12
0.0165614
0.000839578
-1.66393e-11
0.0156505
0.00491204
-4.46973e-11
0.0144757
0.00581545
3.53077e-12
0.0133459
0.00574661
-1.53178e-13
0.0121708
0.00607533
-3.90079e-12
0.0109054
0.00653194
-4.0019e-12
0.00951031
0.00715021
-3.93447e-12
0.0079697
0.00785759
-3.95301e-12
0.00624131
0.00860273
-4.13972e-12
0.00433016
0.00933862
-4.27493e-12
0.00223777
0.01004
-4.43156e-12
0.0105494
-4.59594e-12
0.0168001
1.10907e-09
1.61622e-16
0.0168001
6.00004e-09
8.53809e-19
0.0168001
2.23511e-08
-6.07028e-16
0.0168
5.71405e-08
-1.31253e-15
0.0168
1.58349e-07
-3.76847e-15
0.0168
3.6269e-07
-7.77696e-15
0.0167999
9.50674e-07
-2.17409e-14
0.0167998
2.143e-06
-4.61366e-14
0.016799
5.63042e-06
-1.23622e-13
0.0167985
1.25051e-05
-2.6377e-13
0.016791
3.71835e-05
-7.93881e-13
0.0167807
8.96522e-05
-1.92068e-12
0.0167249
0.000323083
-5.05362e-12
0.016572
0.000987066
-1.71833e-11
0.0157674
0.00569998
-4.60118e-11
0.0145702
0.00701609
4.72171e-12
0.0134534
0.00686462
-3.09813e-16
0.0123156
0.0072123
-3.96502e-12
0.0111096
0.00773682
-3.98005e-12
0.00976199
0.00849678
-3.80071e-12
0.0082546
0.00936388
-3.89607e-12
0.00656007
0.0102964
-4.25754e-12
0.00462219
0.0112765
-4.60499e-12
0.00242254
0.0122389
-4.82295e-12
0.0129704
-4.86288e-12
0.0168001
1.08889e-09
1.6323e-16
0.0168001
5.9638e-09
-1.26968e-16
0.0168001
2.21657e-08
-5.05461e-16
0.0168001
5.68085e-08
-1.09121e-15
0.0168001
1.56693e-07
-3.13543e-15
0.0168001
3.55454e-07
-6.34701e-15
0.0168
9.55849e-07
-1.87804e-14
0.0168002
2.00339e-06
-3.49922e-14
0.0167996
6.09625e-06
-1.22082e-13
0.0168004
1.17279e-05
-2.00438e-13
0.0167947
4.21902e-05
-8.15748e-13
0.0167929
9.12197e-05
-1.52125e-12
0.0167148
0.000398926
-6.54675e-12
0.0165948
0.00110253
-1.67942e-11
0.0159766
0.00630033
-4.83959e-11
0.0147278
0.00826931
5.90261e-12
0.0136096
0.00798454
5.18414e-13
0.0125088
0.00831254
-3.8361e-12
0.0113642
0.00888048
-3.83073e-12
0.0101133
0.00974667
-3.6785e-12
0.00866424
0.0108122
-3.80606e-12
0.00699737
0.0119621
-4.1701e-12
0.00505523
0.0132167
-4.52282e-12
0.00274612
0.0145467
-4.81675e-12
0.015715
-5.0857e-12
0.0168001
1.14697e-09
1.63634e-16
0.0168001
6.3538e-09
-2.83646e-17
0.0168001
2.35519e-08
-3.82228e-16
0.0168001
6.03803e-08
-8.08528e-16
0.0168
1.65973e-07
-2.32156e-15
0.0168
3.75948e-07
-4.44595e-15
0.0168
1.01104e-06
-1.47017e-14
0.0167999
2.06199e-06
-1.77461e-14
0.0167991
6.75028e-06
-1.24724e-13
0.0168001
1.09045e-05
-5.81075e-14
0.0167913
5.01479e-05
-1.04403e-12
0.0167895
9.33542e-05
-1.14481e-12
0.016752
0.000434084
-6.95648e-12
0.0166823
0.00116829
-1.64551e-11
0.0165193
0.00644451
-4.98089e-11
0.0151738
0.00961991
4.98852e-12
0.0139737
0.0091875
7.20584e-13
0.0128683
0.0094174
-3.42194e-12
0.0117668
0.00998066
-3.48689e-12
0.0105717
0.0109404
-3.4896e-12
0.00921573
0.0121674
-3.78898e-12
0.00761436
0.0135627
-4.40717e-12
0.00568811
0.0151422
-4.92292e-12
0.00325819
0.0169752
-5.33725e-12
0.0189713
-5.57571e-12
0.0168001
1.57082e-09
1.63088e-16
0.0168001
7.3498e-09
1.12308e-17
0.0168001
2.84729e-08
-4.65556e-16
0.0168
7.08121e-08
-1.00876e-15
0.0168
1.99783e-07
-2.92125e-15
0.0167999
4.47541e-07
-6.01284e-15
0.0167997
1.20135e-06
-1.74207e-14
0.0167992
2.57562e-06
-3.49528e-14
0.0167985
7.33846e-06
-1.12109e-13
0.0167955
1.39551e-05
-1.73692e-13
0.0167942
5.07943e-05
-8.40185e-13
0.0167942
9.33558e-05
-1.28311e-12
0.0167994
0.000426646
-6.17844e-12
0.0168502
0.00111397
-1.53625e-11
0.0174606
0.0058148
-4.90842e-11
0.0159978
0.0110859
-6.50238e-13
0.0145843
0.010603
-1.18914e-12
0.0134616
0.0105408
-2.98912e-12
0.012401
0.0110416
-3.0984e-12
0.0112582
0.0120826
-3.27916e-12
0.00996801
0.0134563
-3.85576e-12
0.00851774
0.0150113
-4.57963e-12
0.00674375
0.0169144
-5.06339e-12
0.00421895
0.0194982
-5.93974e-12
0.0231881
-6.48719e-12
0.0168001
1.64168e-16
2.7862e-09
0.0168001
-5.31344e-18
3.308e-09
0.0168
-3.68259e-16
3.92898e-08
0.0168001
-8.00526e-16
4.00849e-08
0.0168
-2.26885e-15
2.7069e-07
0.0168002
-4.67967e-15
2.63277e-07
0.0167997
-1.31557e-14
1.64426e-06
0.0168008
-2.63267e-14
1.46457e-06
0.0167978
-8.44535e-14
1.03638e-05
0.0168053
-1.11574e-13
6.48218e-06
0.0167821
-6.51359e-13
7.35276e-05
0.0168424
-7.75419e-13
3.3053e-05
0.0167492
-4.51387e-12
0.000518248
0.0171359
-1.0774e-11
0.000723731
0.0188061
-2.87907e-11
0.00413528
0.017313
-2.04069e-11
0.0125741
0.0154264
-8.14007e-12
0.0124889
0.0143666
-1.47271e-12
0.0115995
0.0132249
-2.83849e-12
0.0121822
0.0121841
-3.57631e-12
0.0131223
0.0110673
-4.5313e-12
0.0145726
0.00983555
-5.05559e-12
0.016242
0.0082128
-5.99384e-12
0.0185354
0.0058189
-7.27299e-12
0.0218895
-8.2592e-12
0.029004
0.0168001
1.87074e-10
-3.58464e-17
0.0168001
1.01859e-09
-1.55902e-16
0.0168001
3.78972e-09
-5.02446e-16
0.0168
9.73717e-09
-1.0647e-15
0.0168
2.67736e-08
-2.98858e-15
0.0167999
6.13434e-08
-6.07865e-15
0.0167998
1.59452e-07
-1.71173e-14
0.0167994
3.59684e-07
-3.50896e-14
0.0167984
9.32946e-07
-9.95878e-14
0.0167963
2.1315e-06
-2.09403e-13
0.0167898
5.78738e-06
-5.75728e-13
0.0167741
1.56181e-05
-1.67401e-12
0.0167181
5.37032e-05
-4.07092e-12
0.0165425
0.000170655
-1.44407e-11
0.0155179
0.00101149
-3.59912e-11
0.0143744
0.00114439
1.61694e-12
0.0132043
0.00117014
4.54483e-14
0.0119574
0.00124586
-1.6746e-12
0.010624
0.00133217
-1.77997e-12
0.00918583
0.00143721
-1.74563e-12
0.00762079
0.00156417
-1.63595e-12
0.00592034
0.00169974
-1.67403e-12
0.00409201
0.00182749
-1.79291e-12
0.00212985
0.00196118
-1.87639e-12
0.00212869
-1.94207e-12
0.0168001
3.82016e-10
-3.60252e-17
0.0168001
2.07993e-09
-1.56725e-16
0.0168
7.73796e-09
-5.05093e-16
0.0168
1.98406e-08
-1.07044e-15
0.0168
5.4638e-08
-3.00412e-15
0.0167999
1.24956e-07
-6.11104e-15
0.0167998
3.25684e-07
-1.71997e-14
0.0167994
7.31231e-07
-3.52686e-14
0.0167983
1.91307e-06
-9.99769e-14
0.0167961
4.32357e-06
-2.10333e-13
0.0167893
1.1936e-05
-5.77502e-13
0.0167732
3.16436e-05
-1.67257e-12
0.0167143
0.000110329
-4.07858e-12
0.0165328
0.000347154
-1.44054e-11
0.0154957
0.00203514
-3.60531e-11
0.0143404
0.00230087
1.82449e-12
0.0131834
0.00232742
7.82242e-14
0.0119487
0.00247979
-1.69317e-12
0.0106208
0.00265882
-1.77945e-12
0.00916837
0.00288862
-1.73299e-12
0.00758308
0.00314853
-1.64791e-12
0.0058624
0.00341969
-1.70297e-12
0.0040117
0.00367733
-1.82857e-12
0.00204073
0.00393115
-1.9176e-12
0.0041682
-1.98705e-12
0.0168001
5.84639e-10
-3.66155e-17
0.0168001
3.18604e-09
-1.59108e-16
0.0168
1.18523e-08
-5.12829e-16
0.0168
3.04058e-08
-1.08697e-15
0.0168
8.37009e-08
-3.04913e-15
0.0167999
1.91479e-07
-6.20443e-15
0.0167997
4.9884e-07
-1.7442e-14
0.0167994
1.11911e-06
-3.57793e-14
0.0167982
2.93061e-06
-1.01189e-13
0.016796
6.58698e-06
-2.12868e-13
0.016789
1.8245e-05
-5.83732e-13
0.0167728
4.77175e-05
-1.67267e-12
0.0167138
0.00016706
-4.11023e-12
0.0165359
0.000520055
-1.4394e-11
0.0155125
0.00304447
-3.65422e-11
0.0143474
0.0034676
2.28384e-12
0.0131986
0.00347681
1.78054e-13
0.0119767
0.00370099
-1.72082e-12
0.0106619
0.00397247
-1.78095e-12
0.00921212
0.00433731
-1.71167e-12
0.00762432
0.0047354
-1.65559e-12
0.00589661
0.00514667
-1.75234e-12
0.00402569
0.0055473
-1.8835e-12
0.00204263
0.00591314
-1.97511e-12
0.00620957
-2.06494e-12
0.0168001
8.07899e-10
-3.76438e-17
0.0168001
4.38916e-09
-1.63611e-16
0.0168
1.63363e-08
-5.26332e-16
0.0168
4.19335e-08
-1.11546e-15
0.0168
1.15504e-07
-3.12249e-15
0.0167999
2.65026e-07
-6.3473e-15
0.0167997
6.87254e-07
-1.78108e-14
0.0167993
1.56608e-06
-3.63663e-14
0.0167981
3.96979e-06
-1.03169e-13
0.0167955
9.23382e-06
-2.14869e-13
0.0167886
2.4385e-05
-5.94026e-13
0.0167725
6.37215e-05
-1.66893e-12
0.0167151
0.000222159
-4.16828e-12
0.0165469
0.00068325
-1.44245e-11
0.0155599
0.00401667
-3.7479e-11
0.014392
0.0046377
3.05429e-12
0.0132541
0.00461573
4.38554e-13
0.0120532
0.00490109
-1.74482e-12
0.0107568
0.00526774
-1.77891e-12
0.00933672
0.00575624
-1.68636e-12
0.00775332
0.00631798
-1.65382e-12
0.00602415
0.00687477
-1.80515e-12
0.00414179
0.00742905
-2.02301e-12
0.00210479
0.0079497
-2.16003e-12
0.00831311
-2.22902e-12
0.0168001
1.03234e-09
-4.16808e-17
0.0168001
5.5557e-09
-1.79138e-16
0.0168
2.07171e-08
-5.82734e-16
0.0168
5.2999e-08
-1.24437e-15
0.0168
1.46793e-07
-3.50377e-15
0.0167999
3.37947e-07
-7.27888e-15
0.0167997
8.71895e-07
-1.96966e-14
0.0167993
2.04099e-06
-4.54296e-14
0.0167982
4.90086e-06
-9.95923e-14
0.0167954
1.20395e-05
-2.85351e-13
0.0167887
3.04206e-05
-5.25003e-13
0.0167727
7.95407e-05
-1.73318e-12
0.0167228
0.000269615
-4.15609e-12
0.0165614
0.000839578
-1.45275e-11
0.0156505
0.00491204
-3.88096e-11
0.0144757
0.00581544
3.94038e-12
0.0133459
0.00574661
6.5638e-13
0.0121708
0.00607533
-1.78685e-12