/*--------------------------------*- C++ -*----------------------------------*\
| =========                 |                                                 |
| \\      /  F ield         | OpenFOAM: The Open Source CFD Toolbox           |
|  \\    /   O peration     | Version:  4.1                                   |
|   \\  /    A nd           | Web:      www.OpenFOAM.org                      |
|    \\/     M anipulation  |                                                 |
\*---------------------------------------------------------------------------*/
FoamFile
{
    version     2.0;
    format      ascii;
    class       volScalarField;
    location    "9";
    object      T;
}
// * * * * * * * * * * * * * * * * * * * * * * * * * * * * * * * * * * * * * //

dimensions      [0 0 0 1 0 0 0];

internalField   nonuniform List<scalar> 
52500
(
0.999997
1.00002
1.00005
1.00019
1.00036
1.00116
1.00212
1.00649
1.01296
1.03494
1.08837
1.20899
1.59792
2.46622
2.6944
2.72659
2.72393
2.72435
2.73837
2.75046
2.76409
2.77274
2.78016
2.78528
2.78954
0.999996
1.00002
1.00005
1.00019
1.00035
1.00115
1.0021
1.00642
1.01283
1.03457
1.08762
1.20644
1.59357
2.45867
2.69166
2.72644
2.72349
2.72385
2.73771
2.74962
2.76316
2.77135
2.77878
2.7829
2.78646
0.999996
1.00002
1.00005
1.00019
1.00035
1.00112
1.00206
1.00627
1.01256
1.03381
1.08603
1.20121
1.58393
2.44173
2.68478
2.7253
2.7218
2.72199
2.73585
2.74701
2.76062
2.76896
2.77549
2.7803
2.78252
0.999996
1.00002
1.00005
1.00018
1.00033
1.00108
1.00199
1.00606
1.01214
1.03265
1.08359
1.19334
1.56887
2.41421
2.674
2.72341
2.71886
2.71857
2.73125
2.74387
2.75459
2.7639
2.77105
2.77373
2.77764
0.999996
1.00002
1.00005
1.00017
1.00032
1.00103
1.00189
1.00574
1.0116
1.03097
1.08042
1.18308
1.54813
2.37428
2.65876
2.72088
2.7151
2.71384
2.72539
2.73765
2.75045
2.75481
2.76259
2.76673
2.76694
0.999996
1.00002
1.00004
1.00016
1.0003
1.00096
1.00177
1.00528
1.01096
1.02854
1.07637
1.17036
1.52262
2.32107
2.63891
2.71775
2.7114
2.70703
2.71957
2.72634
2.74103
2.74783
2.75155
2.75509
2.75732
0.999995
1.00002
1.00004
1.00015
1.00027
1.00088
1.00164
1.00484
1.01017
1.02615
1.07067
1.15597
1.48809
2.25167
2.61221
2.71341
2.70651
2.70044
2.71297
2.71997
2.7265
2.73343
2.73798
2.73897
2.73659
0.999995
1.00002
1.00004
1.00014
1.00025
1.00081
1.0015
1.00451
1.00921
1.02429
1.06329
1.1434
1.43239
2.15087
2.5774
2.70453
2.6963
2.68786
2.69897
2.7099
2.71726
2.71776
2.71917
2.71809
2.71449
0.999995
1.00001
1.00003
1.00012
1.00023
1.00074
1.00135
1.00423
1.00812
1.02287
1.05367
1.12876
1.36792
2.02247
2.53313
2.69496
2.68763
2.67491
2.6841
2.6891
2.69826
2.69939
2.69535
2.68606
2.66334
0.999995
1.00001
1.00003
1.0001
1.0002
1.00064
1.00119
1.00365
1.00711
1.01995
1.04574
1.1136
1.30691
1.90435
2.46072
2.66516
2.66362
2.65886
2.67187
2.67303
2.67603
2.67407
2.66415
2.64189
2.59103
1.00001
1.00003
1.00006
1.0002
1.00037
1.00117
1.00213
1.0065
1.01297
1.03496
1.08838
1.20905
1.59796
2.46636
2.69449
2.72666
2.72401
2.72443
2.73846
2.75055
2.76418
2.77282
2.78024
2.78536
2.78963
1.00001
1.00003
1.00006
1.0002
1.00036
1.00116
1.00211
1.00643
1.01284
1.03459
1.08764
1.2065
1.59361
2.45881
2.69175
2.72651
2.72357
2.72393
2.73779
2.7497
2.76324
2.77143
2.77886
2.78299
2.78654
1.00001
1.00003
1.00006
1.0002
1.00035
1.00113
1.00206
1.00628
1.01257
1.03383
1.08604
1.20126
1.58397
2.44187
2.68487
2.72537
2.72187
2.72207
2.73593
2.74709
2.76071
2.76904
2.77558
2.78038
2.7826
1
1.00003
1.00006
1.00019
1.00034
1.00109
1.00199
1.00607
1.01215
1.03267
1.0836
1.19339
1.56892
2.41436
2.67409
2.72348
2.71894
2.71864
2.73133
2.74394
2.75467
2.76398
2.77113
2.77382
2.77772
1
1.00003
1.00005
1.00018
1.00033
1.00104
1.0019
1.00575
1.01161
1.03099
1.08042
1.18312
1.54816
2.37442
2.65885
2.72095
2.71517
2.71391
2.72546
2.73773
2.75052
2.75489
2.76266
2.7668
2.76702
1
1.00003
1.00005
1.00017
1.0003
1.00097
1.00178
1.00529
1.01097
1.02856
1.07639
1.17041
1.52267
2.32123
2.639
2.71782
2.71147
2.7071
2.71965
2.72642
2.7411
2.74791
2.75163
2.75518
2.7574
1
1.00002
1.00005
1.00016
1.00028
1.00089
1.00165
1.00485
1.01018
1.02617
1.07069
1.15602
1.48815
2.25185
2.6123
2.71348
2.70658
2.70051
2.71305
2.72004
2.72658
2.7335
2.73804
2.73904
2.73667
1
1.00002
1.00004
1.00014
1.00026
1.00082
1.00151
1.00452
1.00922
1.02431
1.06329
1.14345
1.43242
2.15103
2.57749
2.7046
2.69637
2.68792
2.69903
2.70997
2.71733
2.71783
2.71925
2.71817
2.71456
1
1.00002
1.00004
1.00013
1.00024
1.00075
1.00136
1.00424
1.00813
1.02289
1.05368
1.1288
1.36797
2.02264
2.53322
2.69504
2.6877
2.67499
2.68418
2.68917
2.69833
2.69945
2.69542
2.68613
2.6634
1
1.00002
1.00003
1.00011
1.00021
1.00065
1.0012
1.00366
1.00712
1.01996
1.04575
1.11363
1.30695
1.90446
2.46084
2.66524
2.66368
2.65891
2.67194
2.6731
2.67611
2.67414
2.66422
2.64196
2.59109
1.00001
1.00003
1.00006
1.0002
1.00037
1.00117
1.00213
1.0065
1.01297
1.03496
1.08838
1.20905
1.59797
2.46637
2.69449
2.72666
2.72401
2.72443
2.73846
2.75055
2.76418
2.77282
2.78024
2.78536
2.78963
1.00001
1.00003
1.00006
1.0002
1.00036
1.00116
1.00211
1.00643
1.01284
1.03459
1.08764
1.2065
1.59362
2.45882
2.69176
2.72651
2.72357
2.72393
2.73779
2.7497
2.76324
2.77143
2.77886
2.78299
2.78654
1.00001
1.00003
1.00006
1.0002
1.00035
1.00113
1.00206
1.00628
1.01257
1.03383
1.08604
1.20126
1.58398
2.44187
2.68488
2.72537
2.72187
2.72207
2.73593
2.74709
2.76071
2.76904
2.77558
2.78038
2.7826
1
1.00003
1.00006
1.00019
1.00034
1.00109
1.00199
1.00607
1.01215
1.03267
1.0836
1.19339
1.56892
2.41436
2.67409
2.72348
2.71894
2.71864
2.73133
2.74394
2.75467
2.76398
2.77113
2.77382
2.77772
1
1.00003
1.00005
1.00018
1.00033
1.00104
1.0019
1.00575
1.01161
1.03099
1.08042
1.18313
1.54817
2.37443
2.65885
2.72095
2.71517
2.71391
2.72547
2.73773
2.75052
2.7549
2.76266
2.7668
2.76702
1
1.00003
1.00005
1.00017
1.0003
1.00097
1.00178
1.00529
1.01097
1.02856
1.07639
1.17041
1.52268
2.32124
2.639
2.71782
2.71147
2.7071
2.71965
2.72642
2.7411
2.74791
2.75164
2.75518
2.7574
1
1.00002
1.00005
1.00016
1.00028
1.00089
1.00165
1.00485
1.01018
1.02617
1.07069
1.15602
1.48816
2.25186
2.6123
2.71348
2.70658
2.70051
2.71305
2.72004
2.72658
2.7335
2.73804
2.73904
2.73667
1
1.00002
1.00004
1.00014
1.00026
1.00082
1.00151
1.00452
1.00922
1.02431
1.06329
1.14345
1.43243
2.15104
2.5775
2.7046
2.69637
2.68793
2.69903
2.70997
2.71733
2.71783
2.71925
2.71817
2.71456
1
1.00002
1.00004
1.00013
1.00024
1.00075
1.00136
1.00424
1.00813
1.02289
1.05368
1.1288
1.36798
2.02265
2.53323
2.69504
2.6877
2.67499
2.68418
2.68917
2.69833
2.69945
2.69542
2.68613
2.6634
1
1.00002
1.00003
1.00011
1.00021
1.00065
1.0012
1.00366
1.00712
1.01996
1.04575
1.11363
1.30696
1.90447
2.46085
2.66524
2.66368
2.65891
2.67194
2.6731
2.67611
2.67414
2.66422
2.64196
2.59109
1.00001
1.00003
1.00006
1.0002
1.00037
1.00117
1.00213
1.0065
1.01297
1.03496
1.08838
1.20905
1.59797
2.46637
2.69449
2.72666
2.72401
2.72443
2.73846
2.75055
2.76418
2.77282
2.78024
2.78536
2.78963
1.00001
1.00003
1.00006
1.0002
1.00036
1.00116
1.00211
1.00643
1.01284
1.03459
1.08764
1.2065
1.59362
2.45882
2.69176
2.72651
2.72357
2.72393
2.73779
2.7497
2.76324
2.77143
2.77886
2.78299
2.78654
1.00001
1.00003
1.00006
1.0002
1.00035
1.00113
1.00206
1.00628
1.01257
1.03383
1.08604
1.20126
1.58398
2.44187
2.68488
2.72537
2.72187
2.72207
2.73593
2.74709
2.76071
2.76904
2.77558
2.78038
2.7826
1
1.00003
1.00006
1.00019
1.00034
1.00109
1.00199
1.00607
1.01215
1.03267
1.0836
1.19339
1.56892
2.41437
2.67409
2.72348
2.71894
2.71864
2.73133
2.74394
2.75467
2.76398
2.77113
2.77382
2.77772
1
1.00003
1.00005
1.00018
1.00033
1.00104
1.0019
1.00575
1.01161
1.03099
1.08042
1.18313
1.54817
2.37443
2.65885
2.72095
2.71517
2.71391
2.72547
2.73773
2.75052
2.7549
2.76266
2.7668
2.76702
1
1.00003
1.00005
1.00017
1.0003
1.00097
1.00178
1.00529
1.01097
1.02856
1.07639
1.17041
1.52268
2.32124
2.639
2.71782
2.71147
2.7071
2.71965
2.72642
2.7411
2.74791
2.75164
2.75518
2.7574
1
1.00002
1.00005
1.00016
1.00028
1.00089
1.00165
1.00485
1.01018
1.02617
1.07069
1.15602
1.48816
2.25186
2.6123
2.71348
2.70658
2.70051
2.71305
2.72004
2.72658
2.7335
2.73804
2.73904
2.73667
1
1.00002
1.00004
1.00014
1.00026
1.00082
1.00151
1.00452
1.00922
1.02431
1.06329
1.14345
1.43243
2.15105
2.5775
2.7046
2.69637
2.68793
2.69903
2.70997
2.71733
2.71783
2.71925
2.71817
2.71456
1
1.00002
1.00004
1.00013
1.00024
1.00075
1.00136
1.00424
1.00813
1.02289
1.05368
1.1288
1.36798
2.02266
2.53323
2.69504
2.6877
2.675
2.68419
2.68917
2.69833
2.69945
2.69542
2.68613
2.6634
1
1.00002
1.00003
1.00011
1.00021
1.00065
1.0012
1.00366
1.00712
1.01996
1.04575
1.11363
1.30696
1.90447
2.46085
2.66524
2.66368
2.65891
2.67194
2.6731
2.67611
2.67414
2.66422
2.64196
2.59109
1.00001
1.00003
1.00006
1.0002
1.00037
1.00117
1.00213
1.0065
1.01297
1.03496
1.08838
1.20905
1.59797
2.46637
2.69449
2.72666
2.72401
2.72443
2.73846
2.75055
2.76418
2.77282
2.78024
2.78536
2.78963
1.00001
1.00003
1.00006
1.0002
1.00036
1.00116
1.00211
1.00643
1.01284
1.03459
1.08764
1.2065
1.59362
2.45882
2.69176
2.72651
2.72357
2.72393
2.73779
2.7497
2.76324
2.77143
2.77886
2.78299
2.78654
1.00001
1.00003
1.00006
1.0002
1.00035
1.00113
1.00206
1.00628
1.01257
1.03383
1.08604
1.20126
1.58398
2.44187
2.68488
2.72537
2.72187
2.72207
2.73593
2.74709
2.76071
2.76904
2.77558
2.78038
2.7826
1
1.00003
1.00006
1.00019
1.00034
1.00109
1.00199
1.00607
1.01215
1.03267
1.08361
1.19339
1.56892
2.41437
2.67409
2.72348
2.71894
2.71864
2.73133
2.74394
2.75467
2.76398
2.77113
2.77382
2.77772
1
1.00003
1.00005
1.00018
1.00033
1.00104
1.0019
1.00575
1.01161
1.03099
1.08042
1.18313
1.54817
2.37443
2.65885
2.72095
2.71517
2.71391
2.72547
2.73773
2.75052
2.7549
2.76266
2.7668
2.76702
1
1.00003
1.00005
1.00017
1.0003
1.00097
1.00178
1.00529
1.01097
1.02856
1.07639
1.17041
1.52268
2.32124
2.639
2.71782
2.71147
2.7071
2.71965
2.72642
2.7411
2.74791
2.75164
2.75518
2.7574
1
1.00002
1.00005
1.00016
1.00028
1.00089
1.00165
1.00485
1.01018
1.02617
1.07069
1.15602
1.48816
2.25186
2.6123
2.71348
2.70658
2.70051
2.71305
2.72004
2.72658
2.7335
2.73804
2.73904
2.73667
1
1.00002
1.00004
1.00014
1.00026
1.00082
1.00151
1.00452
1.00922
1.02431
1.06329
1.14345
1.43243
2.15105
2.5775
2.7046
2.69637
2.68793
2.69903
2.70997
2.71733
2.71783
2.71925
2.71817
2.71456
1
1.00002
1.00004
1.00013
1.00024
1.00075
1.00136
1.00424
1.00813
1.02289
1.05368
1.1288
1.36798
2.02266
2.53323
2.69504
2.6877
2.675
2.68419
2.68917
2.69833
2.69945
2.69542
2.68613
2.6634
1
1.00002
1.00003
1.00011
1.00021
1.00065
1.0012
1.00366
1.00712
1.01996
1.04575
1.11363
1.30696
1.90447
2.46085
2.66524
2.66368
2.65891
2.67194
2.6731
2.67611
2.67414
2.66422
2.64196
2.59109
1.00001
1.00003
1.00006
1.0002
1.00037
1.00117
1.00213
1.0065
1.01297
1.03496
1.08838
1.20905
1.59797
2.46637
2.69449
2.72666
2.72401
2.72443
2.73846
2.75055
2.76418
2.77282
2.78024
2.78536
2.78963
1.00001
1.00003
1.00006
1.0002
1.00036
1.00116
1.00211
1.00643
1.01284
1.03459
1.08764
1.2065
1.59362
2.45882
2.69176
2.72651
2.72357
2.72393
2.73779
2.7497
2.76324
2.77143
2.77886
2.78299
2.78654
1.00001
1.00003
1.00006
1.0002
1.00035
1.00113
1.00206
1.00628
1.01257
1.03383
1.08604
1.20126
1.58398
2.44187
2.68488
2.72537
2.72187
2.72207
2.73593
2.74709
2.76071
2.76904
2.77558
2.78038
2.7826
1
1.00003
1.00006
1.00019
1.00034
1.00109
1.00199
1.00607
1.01215
1.03267
1.08361
1.19339
1.56892
2.41437
2.67409
2.72348
2.71894
2.71864
2.73133
2.74394
2.75467
2.76398
2.77113
2.77382
2.77772
1
1.00003
1.00005
1.00018
1.00033
1.00104
1.0019
1.00575
1.01161
1.03099
1.08042
1.18313
1.54817
2.37443
2.65885
2.72095
2.71517
2.71391
2.72547
2.73773
2.75052
2.7549
2.76266
2.7668
2.76702
1
1.00003
1.00005
1.00017
1.0003
1.00097
1.00178
1.00529
1.01097
1.02856
1.07639
1.17041
1.52268
2.32124
2.639
2.71782
2.71147
2.7071
2.71965
2.72642
2.7411
2.74791
2.75164
2.75518
2.7574
1
1.00002
1.00005
1.00016
1.00028
1.00089
1.00165
1.00485
1.01018
1.02617
1.07069
1.15602
1.48816
2.25186
2.6123
2.71348
2.70658
2.70051
2.71305
2.72004
2.72658
2.7335
2.73804
2.73904
2.73667
1
1.00002
1.00004
1.00014
1.00026
1.00082
1.00151
1.00452
1.00922
1.02431
1.06329
1.14345
1.43243
2.15105
2.5775
2.7046
2.69637
2.68793
2.69903
2.70997
2.71733
2.71783
2.71925
2.71817
2.71456
1
1.00002
1.00004
1.00013
1.00024
1.00075
1.00136
1.00424
1.00813
1.02289
1.05368
1.1288
1.36798
2.02266
2.53323
2.69504
2.6877
2.675
2.68419
2.68917
2.69833
2.69945
2.69542
2.68613
2.6634
1
1.00002
1.00003
1.00011
1.00021
1.00065
1.0012
1.00366
1.00712
1.01996
1.04576
1.11363
1.30696
1.90447
2.46085
2.66524
2.66368
2.65891
2.67194
2.6731
2.67611
2.67414
2.66422
2.64196
2.59109
1.00001
1.00003
1.00006
1.0002
1.00037
1.00117
1.00213
1.0065
1.01297
1.03496
1.08838
1.20905
1.59797
2.46637
2.69449
2.72666
2.72401
2.72443
2.73846
2.75055
2.76418
2.77282
2.78024
2.78536
2.78963
1.00001
1.00003
1.00006
1.0002
1.00036
1.00116
1.00211
1.00643
1.01284
1.03459
1.08764
1.2065
1.59362
2.45882
2.69176
2.72651
2.72357
2.72393
2.73779
2.7497
2.76324
2.77143
2.77886
2.78299
2.78654
1.00001
1.00003
1.00006
1.0002
1.00035
1.00113
1.00206
1.00628
1.01257
1.03383
1.08604
1.20126
1.58398
2.44187
2.68488
2.72537
2.72187
2.72207
2.73593
2.74709
2.76071
2.76904
2.77558
2.78038
2.7826
1
1.00003
1.00006
1.00019
1.00034
1.00109
1.00199
1.00607
1.01215
1.03267
1.08361
1.19339
1.56892
2.41437
2.67409
2.72348
2.71894
2.71864
2.73133
2.74394
2.75467
2.76398
2.77113
2.77382
2.77772
1
1.00003
1.00005
1.00018
1.00033
1.00104
1.0019
1.00575
1.01161
1.03099
1.08042
1.18313
1.54817
2.37443
2.65885
2.72095
2.71517
2.71391
2.72547
2.73773
2.75052
2.7549
2.76266
2.7668
2.76702
1
1.00003
1.00005
1.00017
1.0003
1.00097
1.00178
1.00529
1.01097
1.02856
1.07639
1.17041
1.52268
2.32124
2.639
2.71782
2.71147
2.7071
2.71965
2.72642
2.7411
2.74791
2.75164
2.75518
2.7574
1
1.00002
1.00005
1.00016
1.00028
1.00089
1.00165
1.00485
1.01018
1.02617
1.07069
1.15602
1.48816
2.25186
2.6123
2.71348
2.70658
2.70051
2.71305
2.72004
2.72658
2.7335
2.73804
2.73904
2.73667
1
1.00002
1.00004
1.00014
1.00026
1.00082
1.00151
1.00452
1.00922
1.02431
1.06329
1.14345
1.43243
2.15105
2.5775
2.7046
2.69637
2.68793
2.69903
2.70997
2.71733
2.71783
2.71925
2.71817
2.71456
1
1.00002
1.00004
1.00013
1.00024
1.00075
1.00136
1.00424
1.00813
1.02289
1.05368
1.1288
1.36798
2.02266
2.53323
2.69504
2.6877
2.675
2.68419
2.68917
2.69833
2.69945
2.69542
2.68613
2.6634
1
1.00002
1.00003
1.00011
1.00021
1.00065
1.0012
1.00366
1.00712
1.01996
1.04575
1.11363
1.30696
1.90447
2.46085
2.66524
2.66368
2.65891
2.67194
2.6731
2.67611
2.67414
2.66422
2.64196
2.59109
1.00001
1.00003
1.00006
1.0002
1.00037
1.00117
1.00213
1.0065
1.01297
1.03496
1.08838
1.20905
1.59797
2.46637
2.69449
2.72666
2.72401
2.72443
2.73846
2.75055
2.76418
2.77282
2.78024
2.78536
2.78963
1.00001
1.00003
1.00006
1.0002
1.00036
1.00116
1.00211
1.00643
1.01284
1.03459
1.08764
1.2065
1.59362
2.45882
2.69176
2.72651
2.72357
2.72393
2.73779
2.7497
2.76324
2.77143
2.77886
2.78299
2.78654
1.00001
1.00003
1.00006
1.0002
1.00035
1.00113
1.00206
1.00628
1.01257
1.03383
1.08604
1.20126
1.58398
2.44187
2.68488
2.72537
2.72187
2.72207
2.73593
2.74709
2.76071
2.76904
2.77558
2.78038
2.7826
1
1.00003
1.00006
1.00019
1.00034
1.00109
1.00199
1.00607
1.01215
1.03267
1.0836
1.19339
1.56892
2.41436
2.67409
2.72348
2.71894
2.71864
2.73133
2.74394
2.75467
2.76398
2.77113
2.77382
2.77772
1
1.00003
1.00005
1.00018
1.00033
1.00104
1.0019
1.00575
1.01161
1.03099
1.08042
1.18313
1.54817
2.37443
2.65885
2.72095
2.71517
2.71391
2.72547
2.73773
2.75052
2.7549
2.76266
2.7668
2.76702
1
1.00003
1.00005
1.00017
1.0003
1.00097
1.00178
1.00529
1.01097
1.02856
1.07639
1.17041
1.52268
2.32124
2.639
2.71782
2.71147
2.7071
2.71965
2.72642
2.7411
2.74791
2.75164
2.75518
2.7574
1
1.00002
1.00005
1.00016
1.00028
1.00089
1.00165
1.00485
1.01018
1.02617
1.07069
1.15602
1.48816
2.25186
2.6123
2.71348
2.70658
2.70051
2.71305
2.72004
2.72658
2.7335
2.73804
2.73904
2.73667
1
1.00002
1.00004
1.00014
1.00026
1.00082
1.00151
1.00452
1.00922
1.02431
1.06329
1.14345
1.43243
2.15105
2.5775
2.7046
2.69637
2.68793
2.69903
2.70997
2.71733
2.71783
2.71925
2.71817
2.71456
1
1.00002
1.00004
1.00013
1.00024
1.00075
1.00136
1.00424
1.00813
1.02289
1.05368
1.1288
1.36798
2.02265
2.53323
2.69504
2.6877
2.67499
2.68419
2.68917
2.69833
2.69945
2.69542
2.68613
2.6634
1
1.00002
1.00003
1.00011
1.00021
1.00065
1.0012
1.00366
1.00712
1.01996
1.04575
1.11363
1.30696
1.90447
2.46085
2.66524
2.66368
2.65891
2.67194
2.6731
2.67611
2.67414
2.66422
2.64196
2.59109
1.00001
1.00003
1.00006
1.0002
1.00037
1.00117
1.00213
1.0065
1.01297
1.03496
1.08838
1.20905
1.59796
2.46636
2.69449
2.72666
2.72401
2.72443
2.73846
2.75055
2.76418
2.77282
2.78024
2.78536
2.78963
1.00001
1.00003
1.00006
1.0002
1.00036
1.00116
1.00211
1.00643
1.01284
1.03459
1.08764
1.2065
1.59361
2.45881
2.69175
2.72651
2.72357
2.72393
2.73779
2.7497
2.76324
2.77143
2.77886
2.78299
2.78654
1.00001
1.00003
1.00006
1.0002
1.00035
1.00113
1.00206
1.00628
1.01257
1.03383
1.08604
1.20126
1.58397
2.44187
2.68487
2.72537
2.72187
2.72207
2.73593
2.74709
2.76071
2.76904
2.77558
2.78038
2.7826
1
1.00003
1.00006
1.00019
1.00034
1.00109
1.00199
1.00607
1.01215
1.03267
1.0836
1.19339
1.56892
2.41436
2.67409
2.72348
2.71894
2.71864
2.73133
2.74394
2.75467
2.76398
2.77113
2.77382
2.77772
1
1.00003
1.00005
1.00018
1.00033
1.00104
1.0019
1.00575
1.01161
1.03099
1.08042
1.18312
1.54816
2.37442
2.65885
2.72095
2.71517
2.71391
2.72546
2.73773
2.75052
2.75489
2.76266
2.7668
2.76702
1
1.00003
1.00005
1.00017
1.0003
1.00097
1.00178
1.00529
1.01097
1.02856
1.07639
1.17041
1.52267
2.32123
2.639
2.71782
2.71147
2.7071
2.71965
2.72642
2.7411
2.74791
2.75163
2.75518
2.7574
1
1.00002
1.00005
1.00016
1.00028
1.00089
1.00165
1.00485
1.01018
1.02617
1.07069
1.15602
1.48815
2.25185
2.6123
2.71348
2.70658
2.70051
2.71305
2.72004
2.72658
2.7335
2.73804
2.73904
2.73667
1
1.00002
1.00004
1.00014
1.00026
1.00082
1.00151
1.00452
1.00922
1.02431
1.06329
1.14345
1.43242
2.15103
2.57749
2.7046
2.69637
2.68792
2.69903
2.70997
2.71733
2.71783
2.71925
2.71817
2.71456
1
1.00002
1.00004
1.00013
1.00024
1.00075
1.00136
1.00424
1.00813
1.02289
1.05368
1.1288
1.36797
2.02264
2.53322
2.69504
2.6877
2.67499
2.68418
2.68917
2.69833
2.69945
2.69542
2.68613
2.6634
1
1.00002
1.00003
1.00011
1.00021
1.00065
1.0012
1.00366
1.00712
1.01996
1.04575
1.11363
1.30695
1.90446
2.46084
2.66524
2.66368
2.65891
2.67194
2.6731
2.67611
2.67414
2.66422
2.64196
2.59109
0.999997
1.00002
1.00005
1.00019
1.00036
1.00116
1.00212
1.00649
1.01296
1.03494
1.08837
1.20899
1.59792
2.46621
2.6944
2.72659
2.72393
2.72435
2.73837
2.75046
2.76409
2.77274
2.78016
2.78528
2.78954
0.999996
1.00002
1.00005
1.00019
1.00035
1.00115
1.0021
1.00642
1.01283
1.03457
1.08762
1.20644
1.59357
2.45867
2.69166
2.72644
2.72349
2.72385
2.73771
2.74962
2.76316
2.77135
2.77878
2.7829
2.78646
0.999996
1.00002
1.00005
1.00019
1.00035
1.00112
1.00206
1.00627
1.01256
1.03381
1.08603
1.20121
1.58393
2.44173
2.68478
2.7253
2.7218
2.72199
2.73585
2.74701
2.76062
2.76896
2.77549
2.7803
2.78252
0.999996
1.00002
1.00005
1.00018
1.00033
1.00108
1.00199
1.00606
1.01214
1.03265
1.08359
1.19334
1.56887
2.41421
2.674
2.72341
2.71886
2.71857
2.73125
2.74387
2.75459
2.7639
2.77105
2.77373
2.77764
0.999996
1.00002
1.00005
1.00017
1.00032
1.00103
1.00189
1.00574
1.0116
1.03097
1.08042
1.18308
1.54813
2.37428
2.65876
2.72088
2.7151
2.71384
2.72539
2.73765
2.75045
2.75481
2.76259
2.76673
2.76694
0.999996
1.00002
1.00004
1.00016
1.0003
1.00096
1.00177
1.00528
1.01096
1.02854
1.07637
1.17036
1.52262
2.32107
2.63891
2.71775
2.7114
2.70703
2.71957
2.72634
2.74103
2.74783
2.75155
2.75509
2.75732
0.999995
1.00002
1.00004
1.00015
1.00027
1.00088
1.00164
1.00484
1.01017
1.02615
1.07067
1.15597
1.48809
2.25167
2.61221
2.71341
2.70651
2.70044
2.71297
2.71997
2.7265
2.73343
2.73798
2.73897
2.73659
0.999995
1.00002
1.00004
1.00014
1.00025
1.00081
1.0015
1.00451
1.00921
1.02429
1.06329
1.1434
1.43239
2.15087
2.5774
2.70453
2.6963
2.68786
2.69897
2.7099
2.71726
2.71776
2.71917
2.71809
2.71449
0.999995
1.00001
1.00003
1.00012
1.00023
1.00074
1.00135
1.00423
1.00812
1.02287
1.05367
1.12876
1.36792
2.02246
2.53313
2.69496
2.68763
2.67491
2.6841
2.6891
2.69826
2.69939
2.69535
2.68606
2.66334
0.999995
1.00001
1.00003
1.0001
1.0002
1.00064
1.00119
1.00365
1.00711
1.01995
1.04574
1.1136
1.30691
1.90435
2.46072
2.66516
2.66362
2.65886
2.67187
2.67303
2.67603
2.67407
2.66415
2.64189
2.59103
0.999997
1
1.00003
1.00007
1.00022
1.00042
1.00129
1.00249
1.00695
1.01568
1.03863
1.10826
1.24621
1.68228
2.49165
2.64561
2.63123
2.63386
2.64343
2.65233
2.65153
2.6439
2.62337
2.5736
2.41386
0.999996
1
1.00003
1.00006
1.0002
1.00037
1.00119
1.00217
1.00668
1.01324
1.03585
1.08938
1.21444
1.59915
2.433
2.62093
2.6235
2.61793
2.61881
2.62742
2.62621
2.61254
2.57928
2.52126
2.36245
0.999996
1
1.00002
1.00005
1.00017
1.00031
1.00102
1.00186
1.00566
1.01132
1.0304
1.07782
1.17783
1.52742
2.31375
2.57307
2.61862
2.61127
2.59642
2.59676
2.59567
2.58191
2.5423
2.48786
2.36558
0.999995
0.999999
1.00002
1.00004
1.00014
1.00026
1.00084
1.00156
1.00456
1.00959
1.02459
1.06606
1.14574
1.45178
2.15106
2.51848
2.61539
2.60377
2.59046
2.57256
2.56167
2.54709
2.51377
2.46898
2.37307
0.999995
0.999998
1.00001
1.00003
1.00012
1.00022
1.00071
1.0013
1.00402
1.00782
1.0218
1.05113
1.12443
1.34466
1.99322
2.4085
2.58794
2.58353
2.5778
2.56296
2.5389
2.51575
2.47753
2.44707
2.37845
0.999994
0.999999
1
1.00003
1.00007
1.00022
1.00042
1.00129
1.0025
1.00687
1.01571
1.03825
1.10715
1.24488
1.65368
2.36672
2.54818
2.54767
2.5474
2.54177
2.52482
2.50189
2.4532
2.4133
2.37199
0.999994
0.999998
1
1.00003
1.00005
1.00019
1.00034
1.00111
1.00201
1.00619
1.0122
1.03305
1.08261
1.19311
1.55235
2.29941
2.51022
2.52548
2.51826
2.51339
2.50153
2.48701
2.45156
2.39671
2.35405
0.999994
0.999996
1
1.00002
1.00004
1.00014
1.00026
1.00082
1.00157
1.00445
1.00979
1.02434
1.06722
1.14631
1.45751
2.15032
2.45105
2.51785
2.5008
2.49331
2.47561
2.45709
2.44017
2.39827
2.34816
0.999993
0.999995
1
1.00001
1.00004
1.00008
1.00025
1.00049
1.00137
1.00303
1.00748
1.02006
1.04463
1.13357
1.29933
1.86755
2.32895
2.49674
2.49174
2.48042
2.46641
2.43859
2.41753
2.39415
2.34941
0.999993
0.999994
0.999998
1
1.00003
1.00006
1.00021
1.00038
1.00121
1.00224
1.0067
1.01373
1.03605
1.09154
1.21958
1.58053
2.27041
2.43885
2.45856
2.45171
2.44418
2.42756
2.40125
2.38314
2.35158
0.999992
0.999993
0.999995
1
1.00001
1.00006
1.00011
1.00035
1.00068
1.00191
1.00421
1.01037
1.02788
1.06177
1.18676
1.42835
2.08381
2.40391
2.44959
2.4399
2.42395
2.41278
2.39176
2.37471
2.35269
0.999992
0.999993
0.999994
1
1.00001
1.00004
1.00008
1.00028
1.00052
1.00162
1.00308
1.00861
1.01944
1.04732
1.13351
1.30788
1.79667
2.28762
2.43017
2.42734
2.41316
2.39952
2.38217
2.36634
2.35501
0.999992
0.999992
0.999994
0.999996
1.00001
1.00002
1.00008
1.00016
1.0005
1.00094
1.00282
1.00554
1.0155
1.03401
1.08863
1.21379
1.64352
2.11972
2.37989
2.40998
2.40588
2.39329
2.3806
2.36787
2.36273
0.999991
0.999992
0.999993
0.999995
1
1.00001
1.00006
1.00011
1.00036
1.00067
1.00207
1.00395
1.01105
1.02477
1.06016
1.1643
1.40416
1.95728
2.29149
2.38264
2.39291
2.39143
2.38503
2.37737
2.37742
0.999991
0.999992
0.999992
0.999994
0.999997
1.00001
1.00003
1.0001
1.0002
1.00062
1.00117
1.00351
1.00692
1.01891
1.04365
1.10679
1.27987
1.77922
2.17648
2.34875
2.37078
2.38252
2.39505
2.39727
2.40256
0.999991
0.999991
0.999992
0.999993
0.999996
1.00001
1.00002
1.00007
1.00014
1.00045
1.00083
1.00255
1.00486
1.01394
1.02961
1.07718
1.18723
1.541
2.03518
2.30112
2.35822
2.37743
2.3981
2.41628
2.42529
0.999991
0.999991
0.999992
0.999992
0.999995
0.999999
1.00001
1.00003
1.00012
1.00024
1.00073
1.00139
1.00396
1.00842
1.02126
1.05594
1.12406
1.36124
1.9045
2.23165
2.36455
2.39153
2.40878
2.42561
2.43927
0.999991
0.999991
0.999991
0.999992
0.999994
0.999996
1.00001
1.00002
1.00009
1.00017
1.00054
1.001
1.00305
1.00583
1.01671
1.03527
1.09455
1.22102
1.68715
2.09036
2.34656
2.42008
2.43731
2.44926
2.45668
0.999991
0.999991
0.999991
0.999992
0.999992
0.999996
1
1.00002
1.00004
1.00015
1.00028
1.00085
1.00169
1.00449
1.0106
1.02498
1.07067
1.14895
1.46777
2.08529
2.34374
2.45243
2.46862
2.47165
2.46841
0.999991
0.999991
0.999991
0.999991
0.999992
0.999994
0.999999
1.00001
1.00004
1.00008
1.00027
1.00051
1.00147
1.00309
1.00786
1.01997
1.04543
1.13235
1.2955
1.83801
2.319
2.51268
2.51897
2.50944
2.49345
0.999991
0.999991
0.999991
0.999991
0.999992
0.999993
0.999998
1
1.00003
1.00006
1.00022
1.0004
1.00128
1.00238
1.00712
1.01466
1.03849
1.09789
1.23868
1.62346
2.36846
2.5611
2.56435
2.53616
2.50759
0.999991
0.999991
0.999991
0.999991
0.999991
0.999993
0.999995
1
1.00001
1.00006
1.00013
1.00041
1.00079
1.00224
1.00495
1.01238
1.0336
1.07483
1.22847
1.55654
2.28762
2.63409
2.6552
2.60309
2.55414
0.999991
0.999991
0.999991
0.999991
0.999991
0.999993
0.999994
1
1.00001
1.00006
1.00011
1.00037
1.00068
1.00205
1.00423
1.01103
1.02873
1.06525
1.20183
1.46825
2.20429
2.63563
2.71097
2.65464
2.60289
0.999991
0.999991
0.999991
0.999991
0.999991
0.999992
0.999994
1
1.00001
1.00005
1.00009
1.00032
1.0006
1.00184
1.00372
1.00992
1.02526
1.05832
1.17906
1.41575
2.12854
2.64723
2.74154
2.69114
2.6312
0.999991
0.999991
0.999991
0.999991
0.999991
0.999992
0.999993
0.999999
1.00001
1.00004
1.00008
1.00027
1.00052
1.00148
1.00334
1.00829
1.02299
1.05123
1.16095
1.37103
2.03227
2.64527
2.75619
2.71569
2.65191
0.999991
0.999991
0.999991
0.999991
0.999991
0.999992
0.999994
0.999997
1.00001
1.00003
1.0001
1.0002
1.00062
1.00125
1.00345
1.00801
1.01967
1.05559
1.12341
1.37902
2.03221
2.62985
2.75162
2.71728
2.66352
0.999991
0.999991
0.999991
0.999991
0.999991
0.999992
0.999993
0.999998
1
1.00003
1.00007
1.00022
1.00045
1.00121
1.00292
1.00694
1.01959
1.04299
1.13399
1.30399
1.85461
2.60563
2.76547
2.73865
2.69034
0.999991
0.999991
0.999991
0.999991
0.999991
0.999992
0.999994
0.999996
1.00001
1.00002
1.0001
1.00018
1.0006
1.00112
1.00344
1.0069
1.0189
1.04648
1.11097
1.31657
1.9046
2.54935
2.77457
2.75146
2.70048
0.999991
0.999991
0.999991
0.999991
0.999991
0.999992
0.999994
0.999996
1.00001
1.00002
1.00009
1.00017
1.00056
1.00105
1.00329
1.00648
1.01821
1.04341
1.10608
1.29845
1.87209
2.541
2.76861
2.74532
2.69933
0.999991
0.999991
0.999991
0.999991
0.999991
0.999992
0.999993
0.999997
1
1.00003
1.00006
1.0002
1.0004
1.00115
1.00253
1.00633
1.01689
1.03848
1.11516
1.25851
1.72941
2.58969
2.76997
2.74153
2.7066
0.999991
0.999991
0.999991
0.999991
0.999991
0.999991
0.999993
0.999995
1.00001
1.00002
1.00007
1.00015
1.00046
1.00096
1.00258
1.00626
1.01517
1.04262
1.09467
1.28545
1.78329
2.50455
2.76358
2.74194
2.72004
0.999991
0.999991
0.999991
0.999991
0.999991
0.999992
0.999993
0.999997
1
1.00003
1.00006
1.0002
1.00038
1.0012
1.00233
1.0067
1.01492
1.03778
1.10514
1.24433
1.69111
2.56102
2.75271
2.73764
2.71613
0.999991
0.999991
0.999991
0.999991
0.999991
0.999992
0.999993
0.999997
1
1.00003
1.00006
1.0002
1.00037
1.00117
1.00225
1.00652
1.01439
1.03666
1.10146
1.23585
1.6736
2.54778
2.74933
2.74226
2.71834
0.999991
0.999991
0.999991
0.999991
0.999991
0.999991
0.999993
0.999995
1
1.00002
1.00007
1.00014
1.00042
1.00088
1.00232
1.00584
1.01366
1.03943
1.08431
1.26783
1.68368
2.46585
2.74367
2.74025
2.71832
0.999991
0.999991
0.999991
0.999991
0.999991
0.999992
0.999992
0.999996
1
1.00002
1.00005
1.00018
1.00035
1.00107
1.00219
1.00594
1.01423
1.03466
1.09894
1.2242
1.65208
2.50332
2.72591
2.73008
2.71628
0.999991
0.999991
0.999991
0.999991
0.999991
0.999991
0.999993
0.999995
1
1.00001
1.00006
1.00013
1.0004
1.00086
1.00223
1.00569
1.01315
1.03815
1.08077
1.26012
1.64691
2.4435
2.72757
2.73266
2.71742
0.999991
0.999991
0.999991
0.999991
0.999991
0.999992
0.999992
0.999996
1
1.00002
1.00005
1.00019
1.00035
1.00111
1.00214
1.00624
1.01348
1.035
1.09465
1.22065
1.6331
2.48847
2.70802
2.7275
2.71698
0.999991
0.999991
0.999991
0.999991
0.999991
0.999992
0.999992
0.999996
1
1.00002
1.00005
1.00019
1.00035
1.00111
1.00212
1.00615
1.01342
1.03458
1.09445
1.21887
1.62996
2.48744
2.70038
2.72634
2.7174
0.999991
0.999991
0.999991
0.999991
0.999991
0.999991
0.999993
0.999995
1
1.00002
1.00007
1.00013
1.00043
1.00084
1.00238
1.00538
1.01322
1.03684
1.08019
1.25311
1.62348
2.4228
2.70742
2.72371
2.70974
0.999991
0.999991
0.999991
0.999991
0.999991
0.999991
0.999993
0.999995
1
1.00002
1.00007
1.00014
1.00046
1.00085
1.00258
1.00532
1.01392
1.03636
1.08215
1.24995
1.61898
2.42131
2.70407
2.72286
2.71033
1.00001
1.00001
1.00004
1.00007
1.00023
1.00042
1.0013
1.0025
1.00697
1.01569
1.03864
1.10829
1.24627
1.68236
2.49175
2.64569
2.63131
2.63393
2.64349
2.65239
2.65158
2.64396
2.62343
2.57366
2.41391
1
1.00001
1.00004
1.00007
1.00021
1.00038
1.0012
1.00218
1.00669
1.01325
1.03587
1.08941
1.21448
1.59924
2.43313
2.62103
2.62356
2.618
2.61888
2.62748
2.62627
2.6126
2.57934
2.52131
2.36251
1
1.00001
1.00003
1.00006
1.00018
1.00032
1.00102
1.00187
1.00567
1.01133
1.03043
1.07782
1.17788
1.52747
2.31391
2.57318
2.61868
2.61134
2.59649
2.59683
2.59573
2.58197
2.54235
2.48791
2.36564
1
1.00001
1.00003
1.00005
1.00015
1.00027
1.00085
1.00156
1.00458
1.0096
1.0246
1.06608
1.14578
1.45186
2.15125
2.51859
2.61545
2.60384
2.59053
2.57263
2.56174
2.54715
2.51382
2.46903
2.37313
1
1.00001
1.00002
1.00004
1.00012
1.00023
1.00072
1.00131
1.00403
1.00783
1.02182
1.05114
1.12447
1.34472
1.99339
2.40863
2.58804
2.58361
2.57787
2.56302
2.53896
2.51582
2.47759
2.44712
2.3785
1
1.00001
1.00001
1.00004
1.00007
1.00023
1.00043
1.00129
1.00251
1.00689
1.01572
1.03827
1.10717
1.24493
1.65376
2.36673
2.54825
2.54774
2.54748
2.54185
2.52489
2.50196
2.45327
2.41337
2.37204
1
1.00001
1.00001
1.00003
1.00006
1.0002
1.00035
1.00111
1.00202
1.0062
1.01222
1.03307
1.08263
1.19316
1.55242
2.29952
2.51029
2.52553
2.51832
2.51346
2.5016
2.48708
2.45163
2.39678
2.35412
1
1
1.00001
1.00003
1.00005
1.00015
1.00027
1.00083
1.00158
1.00446
1.0098
1.02436
1.06724
1.14636
1.45759
2.15051
2.45114
2.5179
2.50085
2.49336
2.47568
2.45716
2.44024
2.39834
2.34823
1
1
1.00001
1.00001
1.00005
1.00009
1.00026
1.0005
1.00138
1.00304
1.00749
1.02007
1.04466
1.13361
1.29942
1.86775
2.32909
2.4968
2.4918
2.48047
2.46648
2.43866
2.41761
2.39423
2.3495
1
1