/*--------------------------------*- C++ -*----------------------------------*\
| =========                 |                                                 |
| \\      /  F ield         | OpenFOAM: The Open Source CFD Toolbox           |
|  \\    /   O peration     | Version:  4.1                                   |
|   \\  /    A nd           | Web:      www.OpenFOAM.org                      |
|    \\/     M anipulation  |                                                 |
\*---------------------------------------------------------------------------*/
FoamFile
{
    version     2.0;
    format      ascii;
    class       volVectorField;
    location    "9";
    object      U;
}
// * * * * * * * * * * * * * * * * * * * * * * * * * * * * * * * * * * * * * //

dimensions      [0 1 -1 0 0 0 0];

internalField   nonuniform List<vector> 
52500
(
(2.99999 1.43314e-08 -0.00571426)
(2.99998 7.83173e-08 -0.00571443)
(2.99995 2.83258e-07 -0.00571468)
(2.99987 7.23985e-07 -0.00571548)
(2.9997 1.98547e-06 -0.00571694)
(2.99922 4.54088e-06 -0.0057214)
(2.99828 1.17829e-05 -0.00572998)
(2.99539 2.65167e-05 -0.00575422)
(2.99017 6.81065e-05 -0.00580944)
(2.97151 0.000153725 -0.00593011)
(2.93637 0.000397117 -0.00634514)
(2.81016 0.000998396 -0.00701791)
(2.45613 0.00284277 -0.00982554)
(1.63046 0.00725926 -0.015099)
(0.700296 0.0195401 -0.0180979)
(0.532721 0.020709 -0.0184577)
(0.567732 0.022147 -0.0184978)
(0.568728 0.0243277 -0.0185685)
(0.518943 0.0265748 -0.0187468)
(0.433672 0.0289109 -0.0189276)
(0.349047 0.0316832 -0.0191254)
(0.278059 0.0350083 -0.0192931)
(0.206808 0.0385897 -0.0194599)
(0.124955 0.0428219 -0.0196189)
(0.0557321 0.0490962 -0.0197812)
(2.99999 5.05144e-08 -0.00571426)
(2.99998 2.30314e-07 -0.00571443)
(2.99995 8.66981e-07 -0.00571468)
(2.99987 2.2009e-06 -0.00571547)
(2.9997 6.05157e-06 -0.00571691)
(2.99923 1.38207e-05 -0.00572133)
(2.9983 3.59243e-05 -0.00572981)
(2.99544 8.06335e-05 -0.00575376)
(2.99028 0.000208309 -0.00580843)
(2.97178 0.000467523 -0.00592762)
(2.9371 0.0012237 -0.00633944)
(2.81203 0.00305122 -0.00700076)
(2.46176 0.00882854 -0.00979114)
(1.64268 0.0225283 -0.0150228)
(0.707982 0.0595057 -0.0180035)
(0.531094 0.0603298 -0.0183865)
(0.566985 0.0621762 -0.0184225)
(0.568455 0.0665165 -0.0184858)
(0.518389 0.0708363 -0.0186558)
(0.432984 0.075269 -0.0188284)
(0.348277 0.0802779 -0.0190182)
(0.276703 0.0858856 -0.0191751)
(0.204344 0.0911794 -0.0193341)
(0.121099 0.0964171 -0.0194781)
(0.0515744 0.102086 -0.0196235)
(2.99999 7.87703e-08 -0.00571426)
(2.99998 3.88649e-07 -0.00571442)
(2.99995 1.46245e-06 -0.00571467)
(2.99987 3.73139e-06 -0.00571544)
(2.99971 1.027e-05 -0.00571685)
(2.99924 2.34599e-05 -0.00572117)
(2.99833 6.1021e-05 -0.00572946)
(2.99554 0.000136718 -0.00575286)
(2.9905 0.00035428 -0.00580639)
(2.97234 0.000791772 -0.0059227)
(2.93859 0.00208877 -0.00632772)
(2.81599 0.00516158 -0.00696678)
(2.47388 0.0151397 -0.00972032)
(1.66977 0.038617 -0.0148767)
(0.725944 0.10281 -0.0178695)
(0.529227 0.102321 -0.0183055)
(0.567373 0.104488 -0.0183366)
(0.570411 0.112008 -0.0183914)
(0.520474 0.119753 -0.0185538)
(0.435577 0.128224 -0.0187128)
(0.351389 0.1375 -0.0188944)
(0.279608 0.147457 -0.0190433)
(0.206355 0.157059 -0.0191879)
(0.121834 0.165984 -0.0193292)
(0.0507036 0.173406 -0.0194609)
(2.99999 1.01355e-07 -0.00571426)
(2.99998 5.63314e-07 -0.00571441)
(2.99995 2.09348e-06 -0.00571465)
(2.99988 5.37568e-06 -0.0057154)
(2.99972 1.47992e-05 -0.00571676)
(2.99927 3.38896e-05 -0.00572093)
(2.99839 8.78679e-05 -0.00572894)
(2.99568 0.000198708 -0.00575151)
(2.99083 0.000504713 -0.00580332)
(2.9732 0.00115089 -0.00591531)
(2.94085 0.00295427 -0.00630999)
(2.82203 0.00726758 -0.00691632)
(2.49242 0.0214438 -0.00961252)
(1.71184 0.0545928 -0.0146559)
(0.753598 0.147063 -0.0176969)
(0.526218 0.144139 -0.0182173)
(0.568759 0.146178 -0.0182406)
(0.574842 0.156876 -0.0182838)
(0.525605 0.168144 -0.0184305)
(0.441916 0.180876 -0.0185889)
(0.358713 0.194874 -0.0187412)
(0.287032 0.209768 -0.0188867)
(0.212952 0.224382 -0.0190257)
(0.126525 0.237776 -0.0191458)
(0.0520709 0.247494 -0.0192877)
(3 1.33847e-07 -0.00571426)
(2.99998 7.4301e-07 -0.00571441)
(2.99996 2.76927e-06 -0.00571463)
(2.99988 7.12738e-06 -0.00571534)
(2.99973 1.96681e-05 -0.00571664)
(2.9993 4.52904e-05 -0.0057206)
(2.99847 0.000116805 -0.00572823)
(2.99588 0.000270317 -0.00574953)
(2.99129 0.000658301 -0.00579929)
(2.97435 0.00156282 -0.00590458)
(2.94383 0.0038544 -0.00628709)
(2.83015 0.00941337 -0.00685059)
(2.51726 0.0274054 -0.00946646)
(1.76948 0.0705224 -0.0143506)
(0.791003 0.192621 -0.0174806)
(0.521909 0.186065 -0.0181229)
(0.571154 0.187561 -0.0181373)
(0.581688 0.201198 -0.0181655)
(0.533532 0.215799 -0.0182963)
(0.451715 0.232747 -0.0184423)
(0.369933 0.251537 -0.0185959)
(0.298655 0.271745 -0.0186971)
(0.223692 0.292039 -0.0188297)
(0.134603 0.310764 -0.0189508)
(0.0555038 0.323572 -0.0190666)
(3 1.55904e-07 -0.00571426)
(2.99998 8.63627e-07 -0.00571439)
(2.99996 3.22559e-06 -0.00571461)
(2.99989 8.29718e-06 -0.00571527)
(2.99975 2.29486e-05 -0.00571648)
(2.99935 5.28436e-05 -0.00572015)
(2.99858 0.000137119 -0.00572733)
(2.99613 0.000314997 -0.00574669)
(2.99191 0.000786691 -0.00579451)
(2.97582 0.00181096 -0.00588929)
(2.94756 0.00479828 -0.00625833)
(2.84009 0.0112596 -0.00676891)
(2.54855 0.0334505 -0.00928849)
(1.84338 0.0866982 -0.0139548)
(0.836802 0.240172 -0.0172188)
(0.514644 0.228478 -0.0180239)
(0.573635 0.228689 -0.0180339)
(0.590329 0.245007 -0.0180329)
(0.543943 0.262752 -0.0181607)
(0.46494 0.284105 -0.0182596)
(0.385339 0.308267 -0.0184123)
(0.314968 0.334749 -0.0185146)
(0.239475 0.362163 -0.0186067)
(0.146951 0.388407 -0.0187132)
(0.0611446 0.40662 -0.0188396)
(3 1.60524e-07 -0.00571425)
(2.99998 8.87726e-07 -0.00571438)
(2.99996 3.31364e-06 -0.00571458)
(2.9999 8.47878e-06 -0.00571519)
(2.99977 2.34652e-05 -0.0057163)
(2.9994 5.34903e-05 -0.00571968)
(2.99869 0.00014181 -0.00572633)
(2.99642 0.000308464 -0.00574399)
(2.99255 0.000864835 -0.00578864)
(2.97764 0.00177719 -0.00587457)
(2.95191 0.00560896 -0.00621785)
(2.85213 0.0120821 -0.00667781)
(2.58728 0.041519 -0.00904904)
(1.93491 0.103173 -0.0134523)
(0.892928 0.290779 -0.0168916)
(0.506519 0.273023 -0.0179124)
(0.577764 0.27019 -0.0179201)
(0.60193 0.288304 -0.0178992)
(0.557778 0.30866 -0.0180189)
(0.482546 0.334404 -0.0181054)
(0.40621 0.364647 -0.0181901)
(0.337649 0.398829 -0.0182762)
(0.262228 0.435557 -0.018355)
(0.166181 0.472773 -0.0184276)
(0.0710828 0.501368 -0.0185162)
(3 1.63424e-07 -0.00571425)
(2.99999 9.03943e-07 -0.00571437)
(2.99997 3.36161e-06 -0.00571455)
(2.99991 8.56835e-06 -0.00571511)
(2.99979 2.36296e-05 -0.00571614)
(2.99945 5.33576e-05 -0.00571926)
(2.99879 0.000143627 -0.00572531)
(2.99674 0.000294724 -0.00574196)
(2.99314 0.000930846 -0.00578161)
(2.97971 0.00161639 -0.00586321)
(2.95637 0.00646778 -0.0061657)
(2.86755 0.0124701 -0.00659865)
(2.63407 0.0488834 -0.00867034)
(2.04656 0.117111 -0.0127692)
(0.970561 0.338651 -0.0164734)
(0.509446 0.319485 -0.017753)
(0.590129 0.313173 -0.0177573)
(0.62087 0.331131 -0.0177167)
(0.578259 0.353146 -0.0178231)
(0.507238 0.38348 -0.0179221)
(0.434716 0.420585 -0.0179942)
(0.36898 0.463849 -0.0180186)
(0.295151 0.512659 -0.0180535)
(0.196609 0.566376 -0.0180858)
(0.0886388 0.616002 -0.0181449)
(3 1.90415e-07 -0.00571425)
(2.99999 1.04783e-06 -0.00571436)
(2.99997 3.88627e-06 -0.00571452)
(2.99991 9.94365e-06 -0.00571503)
(2.99981 2.73081e-05 -0.00571596)
(2.9995 6.2137e-05 -0.00571883)
(2.99889 0.000164319 -0.00572424)
(2.99708 0.000350253 -0.00574017)
(2.99365 0.00102668 -0.0057736)
(2.98217 0.00189027 -0.00585506)
(2.96118 0.00700121 -0.00609715)
(2.88469 0.0133908 -0.00651078)
(2.68658 0.0508844 -0.00823088)
(2.17482 0.122702 -0.0119359)
(1.07251 0.369678 -0.015968)
(0.533948 0.366911 -0.017561)
(0.615455 0.362511 -0.017578)
(0.649985 0.37516 -0.0175164)
(0.608733 0.397039 -0.0176093)
(0.542426 0.431384 -0.0176595)
(0.474071 0.476064 -0.0177255)
(0.412156 0.528891 -0.0177299)
(0.34312 0.592034 -0.0176961)
(0.247839 0.671332 -0.0176292)
(0.122545 0.76439 -0.0175162)
(3 3.65402e-07 -0.00571425)
(2.99999 7.15483e-07 -0.00571434)
(2.99997 5.4323e-06 -0.00571449)
(2.99993 8.33964e-06 -0.00571492)
(2.99983 3.71218e-05 -0.00571575)
(2.99956 5.41576e-05 -0.0057182)
(2.99903 0.000224311 -0.00572298)
(2.99745 0.000306052 -0.00573661)
(2.99443 0.00139172 -0.0057659)
(2.98462 0.00143547 -0.00583727)
(2.96617 0.00945746 -0.00604001)
(2.90166 0.00747973 -0.00641784)
(2.73734 0.0603309 -0.0078172)
(2.30594 0.100251 -0.0111733)
(1.20198 0.349745 -0.0153073)
(0.59703 0.406199 -0.0172028)
(0.657048 0.419898 -0.0172619)
(0.688031 0.419902 -0.0172852)
(0.650711 0.442285 -0.0173941)
(0.590236 0.478328 -0.0174146)
(0.526363 0.529706 -0.0174214)
(0.469765 0.591411 -0.0173802)
(0.413243 0.673549 -0.0172672)
(0.336759 0.795489 -0.0170452)
(0.188518 1.00198 -0.0166185)
(2.99999 1.39133e-08 -2.47554e-09)
(2.99998 7.56136e-08 -8.74482e-09)
(2.99995 2.81021e-07 -1.00053e-08)
(2.99987 7.21119e-07 -1.59961e-08)
(2.9997 1.98284e-06 -1.626e-08)
(2.99922 4.53827e-06 -2.17425e-08)
(2.99827 1.17804e-05 -2.24516e-08)
(2.99539 2.65141e-05 -3.09804e-08)
(2.99017 6.81042e-05 -3.42075e-08)
(2.9715 0.000153721 -6.99966e-08)
(2.93636 0.000397132 -5.72575e-08)
(2.81014 0.000998483 -2.50165e-07)
(2.45607 0.00284294 -2.59131e-07)
(1.63033 0.00726006 -8.64564e-07)
(0.700228 0.0195426 -8.51099e-07)
(0.532751 0.0207135 2.28429e-10)
(0.567743 0.0221512 -3.76098e-08)
(0.568725 0.0243299 -9.8944e-08)
(0.518937 0.0265748 -1.05784e-07)
(0.433667 0.0289097 -1.08613e-07)
(0.349047 0.0316817 -1.0054e-07)
(0.278061 0.0350073 -9.83758e-08)
(0.206811 0.0385896 -9.86873e-08)
(0.124956 0.0428225 -9.98722e-08)
(0.0557329 0.0490969 -1.01043e-07)
(2.99999 4.23344e-08 -2.48378e-09)
(2.99998 2.30222e-07 -8.78711e-09)
(2.99995 8.55926e-07 -1.00017e-08)
(2.99987 2.19444e-06 -1.60061e-08)
(2.9997 6.03909e-06 -1.62567e-08)
(2.99923 1.38112e-05 -2.17418e-08)
(2.99829 3.59102e-05 -2.24512e-08)
(2.99544 8.06179e-05 -3.09879e-08)
(2.99028 0.000208284 -3.42167e-08)
(2.97177 0.000467479 -7.00622e-08)
(2.93708 0.00122367 -5.70256e-08)
(2.81201 0.00305134 -2.4912e-07)
(2.4617 0.0088287 -2.584e-07)
(1.64255 0.0225299 -8.60221e-07)
(0.707919 0.0595078 -8.52409e-07)
(0.531136 0.0603349 3.45739e-09)
(0.567011 0.0621802 -3.87812e-08)
(0.568469 0.0665181 -9.97005e-08)
(0.5184 0.0708359 -1.05142e-07)
(0.432994 0.0752681 -1.07438e-07)
(0.348286 0.0802769 -1.01538e-07)
(0.27671 0.0858851 -9.999e-08)
(0.204349 0.0911799 -9.98794e-08)
(0.121102 0.0964183 -1.00612e-07)
(0.0515757 0.102088 -1.01644e-07)
(2.99999 7.19075e-08 -2.6395e-09)
(2.99998 3.91234e-07 -8.60744e-09)
(2.99995 1.45453e-06 -1.01844e-08)
(2.99987 3.72736e-06 -1.59337e-08)
(2.99971 1.02592e-05 -1.63619e-08)
(2.99924 2.34495e-05 -2.17047e-08)
(2.99833 6.10018e-05 -2.25399e-08)
(2.99553 0.000136693 -3.10406e-08)
(2.99049 0.000354226 -3.44235e-08)
(2.97233 0.000791707 -7.04959e-08)
(2.93858 0.00208866 -5.72829e-08)
(2.81596 0.00516173 -2.48184e-07)
(2.47383 0.0151394 -2.59095e-07)
(1.66963 0.038618 -8.57118e-07)
(0.725883 0.102808 -8.68536e-07)
(0.529271 0.102323 1.08703e-08)
(0.567401 0.10449 -3.77242e-08)
(0.570427 0.112009 -9.88858e-08)
(0.520489 0.119753 -1.02867e-07)
(0.435591 0.128224 -1.04366e-07)
(0.351401 0.137501 -1.01608e-07)
(0.279616 0.147458 -1.01513e-07)
(0.206361 0.157061 -1.01182e-07)
(0.121838 0.165986 -1.01546e-07)
(0.0507051 0.173409 -1.02707e-07)
(2.99999 1.03599e-07 -2.6215e-09)
(2.99998 5.63137e-07 -8.62368e-09)
(2.99995 2.09495e-06 -1.01708e-08)
(2.99987 5.37221e-06 -1.59572e-08)
(2.99972 1.47883e-05 -1.63767e-08)
(2.99927 3.38565e-05 -2.17547e-08)
(2.99839 8.77933e-05 -2.26292e-08)
(2.99568 0.000198443 -3.11458e-08)
(2.99082 0.000504533 -3.48248e-08)
(2.97319 0.00114927 -7.04831e-08)
(2.94083 0.0029546 -5.80051e-08)
(2.82201 0.00726632 -2.45641e-07)
(2.49236 0.021445 -2.62983e-07)
(1.7117 0.0545952 -8.61367e-07)
(0.753533 0.147059 -9.08673e-07)
(0.526261 0.14414 2.3688e-08)
(0.568785 0.14618 -3.3275e-08)
(0.574857 0.156877 -9.64157e-08)
(0.52562 0.168146 -9.9306e-08)
(0.441929 0.180879 -9.9762e-08)
(0.358725 0.194877 -9.92447e-08)
(0.287041 0.209772 -1.00945e-07)
(0.212958 0.224387 -1.01978e-07)
(0.126529 0.237781 -1.02495e-07)
(0.0520726 0.247498 -1.03312e-07)
(2.99999 1.37256e-07 -2.59456e-09)
(2.99998 7.43815e-07 -8.65036e-09)
(2.99995 2.77558e-06 -1.01634e-08)
(2.99988 7.12548e-06 -1.60263e-08)
(2.99973 1.96789e-05 -1.65217e-08)
(2.9993 4.52905e-05 -2.2155e-08)
(2.99847 0.000116811 -2.33975e-08)
(2.99588 0.000270318 -3.48897e-08)
(2.99129 0.000658284 -3.30987e-08)
(2.97434 0.00156313 -9.84463e-08)
(2.94382 0.00385287 -2.54525e-08)
(2.83013 0.00941447 -2.73124e-07)
(2.51721 0.0274034 -2.27636e-07)
(1.76935 0.0705203 -8.6238e-07)
(0.790951 0.19261 -9.53683e-07)
(0.521964 0.186064 3.92209e-08)
(0.571184 0.187563 -3.28744e-08)
(0.581706 0.201201 -9.75995e-08)
(0.533549 0.215802 -9.81086e-08)
(0.451731 0.232751 -9.51742e-08)
(0.369947 0.251542 -9.64864e-08)
(0.298666 0.271751 -9.87774e-08)
(0.2237 0.292045 -9.89061e-08)
(0.134607 0.310771 -9.96665e-08)
(0.0555054 0.323578 -1.01877e-07)
(3 1.59798e-07 -2.55324e-09)
(2.99998 8.65984e-07 -8.66776e-09)
(2.99996 3.23449e-06 -1.00767e-08)
(2.99989 8.29801e-06 -1.6108e-08)
(2.99975 2.29777e-05 -1.61638e-08)
(2.99935 5.28788e-05 -2.19303e-08)
(2.99857 0.000137207 -2.25564e-08)
(2.99613 0.000315282 -3.12643e-08)
(2.99191 0.00078686 -3.52353e-08)
(2.97581 0.00181303 -6.42813e-08)
(2.94755 0.0047965 -9.1407e-08)
(2.84007 0.0112629 -2.05219e-07)
(2.54849 0.0334458 -2.93557e-07)
(1.84323 0.0866941 -9.0168e-07)
(0.836732 0.240154 -1.03222e-06)
(0.514687 0.228472 7.00836e-08)
(0.573656 0.228689 -2.06866e-08)
(0.59034 0.245009 -9.41712e-08)
(0.543957 0.262755 -9.36425e-08)
(0.464955 0.28411 -8.81759e-08)
(0.385353 0.308274 -9.06696e-08)
(0.314979 0.334757 -9.6558e-08)
(0.239482 0.362171 -9.99022e-08)
(0.146955 0.388416 -1.01517e-07)
(0.0611466 0.406628 -1.02462e-07)
(3 1.63575e-07 -2.51654e-09)
(2.99998 8.90569e-07 -8.67182e-09)
(2.99996 3.31399e-06 -1.00452e-08)
(2.9999 8.48492e-06 -1.61745e-08)
(2.99977 2.3455e-05 -1.60071e-08)
(2.9994 5.34762e-05 -2.19541e-08)
(2.99869 0.000141762 -2.23664e-08)
(2.99642 0.000308264 -3.08721e-08)
(2.99254 0.000864772 -3.50953e-08)
(2.97763 0.00177556 -6.15524e-08)
(2.9519 0.00561094 -9.23426e-08)
(2.8521 0.0120804 -1.90354e-07)
(2.58721 0.0415231 -3.3875e-07)
(1.93475 0.10318 -9.14549e-07)
(0.89284 0.290774 -1.15628e-06)
(0.506544 0.273016 8.45706e-08)
(0.577771 0.270184 -1.42203e-08)
(0.601931 0.288302 -9.03434e-08)
(0.557785 0.308661 -8.82464e-08)
(0.482557 0.33441 -8.07764e-08)
(0.406221 0.364655 -8.29792e-08)
(0.337658 0.398839 -8.95261e-08)
(0.262236 0.435567 -9.35644e-08)
(0.166185 0.472784 -9.6095e-08)
(0.0710845 0.501379 -9.97951e-08)
(3 1.65697e-07 -2.4919e-09)
(2.99999 9.08173e-07 -8.66414e-09)
(2.99996 3.36111e-06 -1.01275e-08)
(2.9999 8.58297e-06 -1.59999e-08)
(2.99979 2.36312e-05 -1.64508e-08)
(2.99945 5.33911e-05 -2.20369e-08)
(2.99879 0.000143686 -2.31697e-08)
(2.99673 0.000294907 -3.4163e-08)
(2.99313 0.000931134 -3.29478e-08)
(2.9797 0.00161695 -9.32712e-08)
(2.95636 0.0064698 -3.09529e-08)
(2.86752 0.0124721 -2.59911e-07)
(2.63402 0.0488883 -2.32766e-07)
(2.04642 0.117123 -8.8946e-07)
(0.970489 0.338658 -1.23299e-06)
(0.509471 0.319472 5.08001e-08)
(0.590136 0.313157 -3.2528e-08)
(0.620871 0.331123 -8.75343e-08)
(0.578264 0.353145 -8.25927e-08)
(0.507247 0.383484 -7.28632e-08)
(0.434724 0.420593 -7.72665e-08)
(0.368987 0.463859 -8.63714e-08)
(0.295157 0.512671 -9.2015e-08)
(0.196613 0.566388 -9.53336e-08)
(0.0886404 0.616015 -9.80841e-08)
(3 1.89951e-07 -2.47115e-09)
(2.99999 1.05212e-06 -8.62656e-09)
(2.99997 3.88359e-06 -1.01333e-08)
(2.99991 9.94519e-06 -1.58908e-08)
(2.99981 2.73192e-05 -1.62086e-08)
(2.9995 6.21839e-05 -2.13822e-08)
(2.99889 0.000164452 -2.18021e-08)
(2.99708 0.000350719 -2.84752e-08)
(2.99365 0.00102723 -3.28208e-08)
(2.98217 0.00189311 -5.64476e-08)
(2.96117 0.00700225 -6.48443e-08)
(2.88467 0.0133983 -1.87353e-07)
(2.68653 0.0508908 -2.85028e-07)
(2.17468 0.122726 -8.30084e-07)
(1.07241 0.369736 -1.32406e-06)
(0.533934 0.366902 -5.60372e-08)
(0.615451 0.362487 -6.89717e-08)
(0.649985 0.375149 -7.45177e-08)
(0.608737 0.397037 -6.90289e-08)
(0.542432 0.431387 -6.20215e-08)
(0.474076 0.476071 -7.21411e-08)
(0.412161 0.528901 -8.15634e-08)
(0.343124 0.592046 -8.61164e-08)
(0.247841 0.671345 -9.29578e-08)
(0.122546 0.764404 -9.65614e-08)
(3 3.51406e-07 -2.50141e-09)
(2.99999 7.65946e-07 -8.57167e-09)
(2.99997 5.31662e-06 -1.02463e-08)
(2.99992 8.37102e-06 -1.59313e-08)
(2.99983 3.69868e-05 -1.62496e-08)
(2.99956 5.42011e-05 -2.13185e-08)
(2.99903 0.000224213 -2.1432e-08)
(2.99745 0.000306185 -2.75923e-08)
(2.99442 0.00139178 -3.04998e-08)
(2.98462 0.00143647 -4.98771e-08)
(2.96616 0.00945807 -5.69432e-08)
(2.90164 0.00748472 -1.4565e-07)
(2.7373 0.0603362 -2.22753e-07)
(2.30584 0.100283 -6.37845e-07)
(1.20187 0.349813 -8.95784e-07)
(0.596992 0.406187 -3.64735e-07)
(0.657053 0.41986 -1.68014e-07)
(0.688045 0.419892 -3.30401e-08)
(0.650719 0.442284 -4.83596e-08)
(0.590241 0.478331 -5.87378e-08)
(0.526367 0.529712 -7.36544e-08)
(0.469768 0.591421 -7.97807e-08)
(0.413245 0.67356 -8.8807e-08)
(0.336761 0.795503 -9.78393e-08)
(0.188519 1.002 -1.00218e-07)
(2.99999 1.39132e-08 -5.59744e-13)
(2.99998 7.56131e-08 -2.835e-12)
(2.99995 2.81019e-07 -7.09956e-12)
(2.99987 7.21115e-07 -1.4983e-11)
(2.9997 1.98283e-06 -3.36689e-11)
(2.99922 4.53825e-06 -6.56102e-11)
(2.99827 1.17804e-05 -1.61781e-10)
(2.99539 2.6514e-05 -3.21588e-10)
(2.99017 6.8104e-05 -8.64078e-10)
(2.9715 0.00015372 -1.75148e-09)
(2.93636 0.000397131 -4.69663e-09)
(2.81013 0.000998483 -1.16423e-08)
(2.45606 0.00284293 -2.74686e-08)
(1.63032 0.00726005 -6.76769e-08)
(0.70022 0.0195426 -7.84766e-08)
(0.532754 0.0207136 1.90775e-09)
(0.567744 0.0221512 -1.12635e-09)
(0.568725 0.0243299 -6.30375e-09)
(0.518937 0.0265748 -6.7754e-09)
(0.433667 0.0289097 -6.92299e-09)
(0.349047 0.0316816 -6.55192e-09)
(0.278061 0.0350073 -6.56947e-09)
(0.206811 0.0385896 -6.76521e-09)
(0.124956 0.0428226 -6.92768e-09)
(0.055733 0.049097 -7.06419e-09)
(2.99999 4.23342e-08 -5.61892e-13)
(2.99998 2.3022e-07 -2.8449e-12)
(2.99995 8.55919e-07 -7.12473e-12)
(2.99987 2.19442e-06 -1.50346e-11)
(2.9997 6.03905e-06 -3.37966e-11)
(2.99923 1.38111e-05 -6.58684e-11)
(2.99829 3.591e-05 -1.62418e-10)
(2.99544 8.06175e-05 -3.2297e-10)
(2.99028 0.000208283 -8.6701e-10)
(2.97177 0.000467477 -1.75871e-09)
(2.93708 0.00122367 -4.71225e-09)
(2.812 0.00305134 -1.16351e-08)
(2.4617 0.00882867 -2.76035e-08)
(1.64254 0.0225299 -6.78671e-08)
(0.707912 0.0595075 -7.92633e-08)
(0.531138 0.0603349 2.30064e-09)
(0.567012 0.0621802 -1.04326e-09)
(0.56847 0.066518 -6.3348e-09)
(0.5184 0.0708358 -6.75098e-09)
(0.432994 0.075268 -6.85886e-09)
(0.348286 0.0802768 -6.54892e-09)
(0.27671 0.0858851 -6.60056e-09)
(0.204349 0.0911799 -6.80073e-09)
(0.121102 0.0964183 -6.95568e-09)
(0.0515757 0.102088 -7.08537e-09)
(2.99999 7.19071e-08 -5.65601e-13)
(2.99998 3.91231e-07 -2.87452e-12)
(2.99995 1.45452e-06 -7.1927e-12)
(2.99987 3.72733e-06 -1.51887e-11)
(2.99971 1.02591e-05 -3.41684e-11)
(2.99924 2.34494e-05 -6.66386e-11)
(2.99833 6.10014e-05 -1.64349e-10)
(2.99553 0.000136692 -3.27036e-10)
(2.99049 0.000354225 -8.76523e-10)
(2.97233 0.000791704 -1.77876e-09)
(2.93858 0.00208865 -4.76494e-09)
(2.81596 0.00516172 -1.16438e-08)
(2.47382 0.0151394 -2.7979e-08)
(1.66962 0.0386179 -6.85416e-08)
(0.725875 0.102807 -8.1682e-08)
(0.529274 0.102323 3.17368e-09)
(0.567402 0.10449 -8.00578e-10)
(0.570427 0.112009 -6.38086e-09)
(0.520489 0.119753 -6.71703e-09)
(0.435591 0.128224 -6.74352e-09)
(0.351401 0.137501 -6.50794e-09)
(0.279617 0.147458 -6.6472e-09)
(0.206361 0.157061 -6.83435e-09)
(0.121838 0.165986 -6.97707e-09)
(0.0507051 0.173409 -7.12103e-09)
(2.99999 1.03597e-07 -5.7317e-13)
(2.99998 5.63128e-07 -2.90854e-12)
(2.99995 2.09492e-06 -7.3005e-12)
(2.99987 5.37212e-06 -1.54194e-11)
(2.99972 1.47881e-05 -3.4765e-11)
(2.99927 3.38559e-05 -6.7803e-11)
(2.99839 8.77918e-05 -1.67314e-10)
(2.99568 0.000198438 -3.31772e-10)
(2.99082 0.000504529 -8.92155e-10)
(2.97319 0.00114924 -1.7955e-09)
(2.94083 0.00295459 -4.85025e-09)
(2.82201 0.0072663 -1.16377e-08)
(2.49236 0.0214449 -2.86114e-08)
(1.71169 0.054595 -6.97911e-08)
(0.753526 0.147058 -8.59685e-08)
(0.526264 0.14414 4.65289e-09)
(0.568786 0.14618 -3.35876e-10)
(0.574857 0.156877 -6.41341e-09)
(0.52562 0.168146 -6.66495e-09)
(0.44193 0.180879 -6.59388e-09)
(0.358725 0.194877 -6.40339e-09)
(0.287041 0.209772 -6.66535e-09)
(0.212958 0.224387 -6.9969e-09)
(0.126529 0.237781 -7.17064e-09)
(0.0520726 0.247498 -7.24182e-09)
(2.99999 1.37256e-07 -6.04061e-13)
(2.99998 7.43815e-07 -3.02748e-12)
(2.99995 2.77558e-06 -7.75806e-12)
(2.99988 7.12547e-06 -1.6478e-11)
(2.99973 1.96788e-05 -3.79274e-11)
(2.9993 4.52904e-05 -7.55135e-11)
(2.99847 0.00011681 -1.82925e-10)
(2.99588 0.000270317 -4.06528e-10)
(2.99129 0.000658283 -8.62717e-10)
(2.97434 0.00156313 -2.36065e-09)
(2.94382 0.00385284 -4.30616e-09)
(2.83013 0.00941444 -1.20989e-08)
(2.51721 0.0274035 -2.88506e-08)
(1.76934 0.0705201 -7.17849e-08)
(0.790943 0.192609 -9.23311e-08)
(0.521967 0.186064 6.37617e-09)
(0.571185 0.187563 2.38215e-11)
(0.581706 0.201201 -6.46975e-09)
(0.533549 0.215802 -6.62027e-09)
(0.451732 0.232751 -6.38507e-09)
(0.369947 0.251542 -6.35144e-09)
(0.298666 0.271751 -6.60629e-09)
(0.2237 0.292045 -6.75964e-09)
(0.134607 0.310771 -6.96652e-09)
(0.0555054 0.323578 -7.22146e-09)
(3 1.59802e-07 -5.77453e-13)
(2.99998 8.66003e-07 -2.90207e-12)
(2.99996 3.23456e-06 -7.33532e-12)
(2.99989 8.29818e-06 -1.56679e-11)
(2.99975 2.29782e-05 -3.51944e-11)
(2.99935 5.288e-05 -6.96898e-11)
(2.99857 0.00013721 -1.71027e-10)
(2.99613 0.00031529 -3.51851e-10)
(2.99191 0.000786867 -8.95905e-10)
(2.97581 0.00181308 -1.86362e-09)
(2.94755 0.00479649 -5.36729e-09)
(2.84007 0.0112631 -1.17669e-08)
(2.54848 0.0334455 -2.77563e-08)
(1.84322 0.0866937 -7.61395e-08)
(0.836725 0.240153 -9.96837e-08)
(0.514691 0.228472 8.42129e-09)
(0.573657 0.228688 2.98787e-10)
(0.59034 0.245009 -6.56646e-09)
(0.543957 0.262755 -6.55539e-09)
(0.464955 0.28411 -6.09248e-09)
(0.385353 0.308274 -6.17609e-09)
(0.314979 0.334757 -6.75779e-09)
(0.239482 0.362171 -7.26146e-09)
(0.146955 0.388416 -7.55403e-09)
(0.0611466 0.406628 -7.57858e-09)
(3 1.6358e-07 -5.27921e-13)
(2.99998 8.90594e-07 -2.68281e-12)
(2.99996 3.31409e-06 -6.60241e-12)
(2.9999 8.48518e-06 -1.40778e-11)
(2.99977 2.34558e-05 -3.06576e-11)
(2.9994 5.3478e-05 -5.94782e-11)
(2.99869 0.000141767 -1.49893e-10)
(2.99642 0.000308277 -2.72899e-10)
(2.99254 0.000864784 -8.84395e-10)
(2.97763 0.00177564 -1.42645e-09)
(2.9519 0.00561093 -5.52534e-09)
(2.8521 0.0120807 -9.38481e-09)
(2.58721 0.0415227 -3.65915e-08)
(1.93474 0.10318 -7.68458e-08)
(0.892831 0.290773 -1.11696e-07)
(0.506546 0.273015 1.04514e-08)
(0.577771 0.270183 1.22502e-09)
(0.60193 0.288301 -6.31966e-09)
(0.557785 0.308661 -6.24733e-09)
(0.482557 0.33441 -5.82625e-09)
(0.406221 0.364655 -5.90849e-09)
(0.337658 0.398839 -6.52832e-09)
(0.262236 0.435567 -7.01686e-09)
(0.166185 0.472784 -7.43857e-09)
(0.0710844 0.501379 -7.81597e-09)
(3 1.65698e-07 -4.64734e-13)
(2.99999 9.08179e-07 -2.44057e-12)
(2.99996 3.36113e-06 -5.72369e-12)
(2.9999 8.58302e-06 -1.1878e-11)
(2.99979 2.36313e-05 -2.4896e-11)
(2.99945 5.33913e-05 -4.53896e-11)
(2.99879 0.000143687 -1.20181e-10)
(2.99673 0.000294907 -1.46978e-10)
(2.99313 0.000931138 -9.03872e-10)
(2.9797 0.00161696 -4.14779e-10)
(2.95636 0.00646981 -7.1112e-09)
(2.86752 0.0124722 -7.10131e-09)
(2.63401 0.0488885 -3.94044e-08)
(2.04641 0.117124 -7.78967e-08)
(0.970478 0.338657 -1.24987e-07)
(0.509471 0.31947 8.94841e-09)
(0.590135 0.313156 1.63841e-09)
(0.620869 0.331122 -5.53473e-09)
(0.578264 0.353144 -5.566e-09)
(0.507246 0.383484 -5.40924e-09)
(0.434724 0.420593 -5.79553e-09)
(0.368987 0.463859 -6.82834e-09)
(0.295156 0.512671 -7.58657e-09)
(0.196613 0.566388 -8.15673e-09)
(0.0886403 0.616015 -8.4542e-09)
(3 1.89952e-07 -5.04616e-13)
(2.99999 1.05212e-06 -2.58422e-12)
(2.99997 3.88359e-06 -6.31652e-12)
(2.99991 9.9452e-06 -1.33022e-11)
(2.99981 2.73192e-05 -2.91703e-11)
(2.9995 6.21838e-05 -5.66289e-11)
(2.99889 0.000164452 -1.39425e-10)
(2.99708 0.000350716 -2.71461e-10)
(2.99365 0.00102725 -8.10197e-10)
(2.98217 0.0018931 -1.24398e-09)
(2.96117 0.00700238 -5.69142e-09)
(2.88467 0.0133985 -8.13359e-09)
(2.68652 0.0508919 -3.53444e-08)
(2.17466 0.122728 -7.53424e-08)
(1.07239 0.369743 -1.37125e-07)
(0.533931 0.366901 -7.22174e-10)
(0.615448 0.362485 -1.55854e-09)
(0.649982 0.375147 -4.69827e-09)
(0.608735 0.397036 -4.77379e-09)
(0.54243 0.431387 -4.9067e-09)
(0.474075 0.476071 -5.79121e-09)
(0.412161 0.528901 -6.96026e-09)
(0.343123 0.592046 -7.69583e-09)
(0.247841 0.671345 -8.98781e-09)
(0.122546 0.764403 -9.68825e-09)
(3 3.51408e-07 -4.61611e-13)
(2.99999 7.65969e-07 -2.3959e-12)
(2.99997 5.31668e-06 -5.65451e-12)
(2.99992 8.37119e-06 -1.18673e-11)
(2.99983 3.69873e-05 -2.46018e-11)
(2.99956 5.42022e-05 -4.72365e-11)
(2.99903 0.000224217 -1.09287e-10)
(2.99745 0.000306191 -2.10488e-10)
(2.99442 0.0013918 -6.16585e-10)
(2.98462 0.00143649 -8.12897e-10)
(2.96616 0.00945828 -4.43358e-09)
(2.90164 0.00748492 -4.99549e-09)
(2.73729 0.0603375 -2.62344e-08)
(2.30583 0.100287 -5.52466e-08)
(1.20186 0.349822 -9.07233e-08)
(0.596987 0.406186 -3.32699e-08)
(0.657051 0.419856 -1.33722e-08)
(0.688044 0.41989 -1.92403e-09)
(0.650718 0.442283 -4.14166e-09)
(0.59024 0.47833 -5.3716e-09)
(0.526365 0.529712 -6.87153e-09)
(0.469767 0.59142 -7.69359e-09)
(0.413244 0.67356 -9.13083e-09)
(0.33676 0.795502 -1.10936e-08)
(0.188519 1.00199 -1.24165e-08)
(2.99999 1.39132e-08 -4.98368e-14)
(2.99998 7.5613e-08 -2.21856e-13)
(2.99995 2.81019e-07 -7.35642e-13)
(2.99987 7.21115e-07 -1.59065e-12)
(2.9997 1.98283e-06 -4.54291e-12)
(2.99922 4.53825e-06 -9.30328e-12)
(2.99827 1.17804e-05 -2.62688e-11)
(2.99539 2.6514e-05 -5.37701e-11)
(2.99017 6.81039e-05 -1.51744e-10)
(2.9715 0.00015372 -3.11214e-10)
(2.93636 0.00039713 -8.49756e-10)
(2.81013 0.000998483 -2.11552e-09)
(2.45606 0.00284293 -5.03124e-09)
(1.63031 0.00726005 -1.24187e-08)
(0.700219 0.0195425 -1.4455e-08)
(0.532754 0.0207136 3.88561e-10)
(0.567744 0.0221512 -1.36438e-10)
(0.568725 0.0243299 -1.05126e-09)
(0.518937 0.0265748 -1.1237e-09)
(0.433667 0.0289097 -1.12859e-09)
(0.349047 0.0316816 -1.05922e-09)
(0.278061 0.0350073 -1.06419e-09)
(0.206811 0.0385896 -1.10552e-09)
(0.124956 0.0428226 -1.13607e-09)
(0.055733 0.049097 -1.15762e-09)
(2.99999 4.23341e-08 -5.01014e-14)
(2.99998 2.3022e-07 -2.23044e-13)
(2.99995 8.55919e-07 -7.39601e-13)
(2.99987 2.19442e-06 -1.59929e-12)
(2.9997 6.03905e-06 -4.56653e-12)
(2.99923 1.38111e-05 -9.35253e-12)
(2.99829 3.591e-05 -2.63942e-11)
(2.99544 8.06174e-05 -5.40434e-11)
(2.99028 0.000208283 -1.52342e-10)
(2.97177 0.000467477 -3.12667e-10)
(2.93708 0.00122366 -8.5297e-10)
(2.812 0.00305134 -2.11514e-09)
(2.4617 0.00882867 -5.05794e-09)
(1.64253 0.0225298 -1.24583e-08)
(0.707911 0.0595075 -1.46052e-08)
(0.531139 0.0603349 4.59174e-10)
(0.567012 0.0621802 -1.22259e-10)
(0.56847 0.066518 -1.05904e-09)
(0.5184 0.0708358 -1.12196e-09)
(0.432994 0.075268 -1.12034e-09)
(0.348286 0.0802768 -1.06166e-09)
(0.27671 0.0858851 -1.07322e-09)
(0.204349 0.0911799 -1.11595e-09)
(0.121102 0.0964183 -1.14614e-09)
(0.0515757 0.102088 -1.16688e-09)
(2.99999 7.1907e-08 -5.08875e-14)
(2.99998 3.9123e-07 -2.26527e-13)
(2.99995 1.45452e-06 -7.51079e-13)
(2.99987 3.72733e-06 -1.62444e-12)
(2.99971 1.02591e-05 -4.63534e-12)
(2.99924 2.34494e-05 -9.49581e-12)
(2.99833 6.10014e-05 -2.6765e-11)
(2.99553 0.000136692 -5.48263e-11)
(2.99049 0.000354224 -1.54205e-10)
(2.97233 0.000791703 -3.16592e-10)
(2.93857 0.00208865 -8.63347e-10)
(2.81596 0.00516172 -2.11856e-09)
(2.47382 0.0151394 -5.131e-09)
(1.66962 0.0386179 -1.25921e-08)
(0.725875 0.102807 -1.50622e-08)
(0.529274 0.102323 6.16013e-10)
(0.567402 0.10449 -7.98387e-11)
(0.570427 0.112009 -1.07214e-09)
(0.520489 0.119753 -1.12221e-09)
(0.435591 0.128224 -1.10803e-09)
(0.351401 0.137501 -1.06268e-09)
(0.279617 0.147458 -1.09036e-09)
(0.206361 0.157061 -1.13333e-09)
(0.121838 0.165986 -1.16255e-09)
(0.0507051 0.173409 -1.18738e-09)
(2.99999 1.03597e-07 -5.23002e-14)
(2.99998 5.63127e-07 -2.33102e-13)
(2.99995 2.09492e-06 -7.71381e-13)
(2.99987 5.37211e-06 -1.66788e-12)
(2.99972 1.4788e-05 -4.74789e-12)
(2.99927 3.38558e-05 -9.71533e-12)
(2.99839 8.77916e-05 -2.73306e-11)
(2.99568 0.000198437 -5.57298e-11)
(2.99082 0.000504529 -1.57246e-10)
(2.97319 0.00114923 -3.1985e-10)
(2.94083 0.00295459 -8.80237e-10)
(2.822 0.00726629 -2.11944e-09)
(2.49236 0.0214449 -5.25397e-09)
(1.71169 0.054595 -1.28365e-08)
(0.753525 0.147058 -1.58704e-08)
(0.526265 0.14414 8.83271e-10)
(0.568786 0.14618 2.86497e-12)
(0.574857 0.156877 -1.0848e-09)
(0.52562 0.168146 -1.12134e-09)
(0.44193 0.180879 -1.09454e-09)
(0.358725 0.194877 -1.05852e-09)
(0.287041 0.209772 -1.10813e-09)
(0.212958 0.224387 -1.18018e-09)
(0.126529 0.237781 -1.22045e-09)
(0.0520726 0.247498 -1.23406e-09)
(2.99999 1.37256e-07 -5.808e-14)
(2.99998 7.43815e-07 -2.55819e-13)
(2.99995 2.77558e-06 -8.57075e-13)
(2.99988 7.12547e-06 -1.86634e-12)
(2.99973 1.96788e-05 -5.33862e-12)
(2.9993 4.52904e-05 -1.11591e-11)
(2.99847 0.00011681 -3.02503e-11)
(2.99588 0.000270316 -6.97286e-11)
(2.99129 0.000658283 -1.51796e-10)
(2.97434 0.00156313 -4.2579e-10)
(2.94382 0.00385284 -7.79039e-10)
(2.83013 0.00941444 -2.20999e-09)
(2.51721 0.0274035 -5.30283e-09)
(1.76934 0.0705201 -1.32228e-08)
(0.790942 0.192609 -1.70681e-08)
(0.521967 0.186064 1.19429e-09)
(0.571185 0.187563 6.61187e-11)
(0.581706 0.201201 -1.10565e-09)
(0.533549 0.215802 -1.12499e-09)
(0.451732 0.232751 -1.07212e-09)
(0.369947 0.251542 -1.06803e-09)
(0.298666 0.271751 -1.12098e-09)
(0.2237 0.292045 -1.16244e-09)
(0.134607 0.310771 -1.21124e-09)
(0.0555054 0.323578 -1.26395e-09)
(3 1.59802e-07 -5.30688e-14)
(2.99998 8.66005e-07 -2.35535e-13)
(2.99996 3.23456e-06 -7.84724e-13)
(2.99989 8.2982e-06 -1.69657e-12)
(2.99975 2.29782e-05 -4.87309e-12)