/*--------------------------------*- C++ -*----------------------------------*\
| =========                 |                                                 |
| \\      /  F ield         | OpenFOAM: The Open Source CFD Toolbox           |
|  \\    /   O peration     | Version:  4.1                                   |
|   \\  /    A nd           | Web:      www.OpenFOAM.org                      |
|    \\/     M anipulation  |                                                 |
\*---------------------------------------------------------------------------*/
FoamFile
{
    version     2.0;
    format      ascii;
    class       volScalarField;
    location    "7.8";
    object      p;
}
// * * * * * * * * * * * * * * * * * * * * * * * * * * * * * * * * * * * * * //

dimensions      [1 -1 -2 0 0 0 0];

internalField   nonuniform List<scalar> 
52500
(
1.00001
1.00004
1.00013
1.00028
1.0008
1.00163
1.00464
1.00928
1.02775
1.05162
1.17793
1.33127
2.21544
3.95252
9.59968
11.4196
11.2332
11.1198
11.1978
11.4148
11.6524
11.8061
11.9228
12.0159
12.0894
1.00001
1.00004
1.00013
1.00027
1.00079
1.00161
1.00459
1.00917
1.02746
1.051
1.17624
1.32692
2.20338
3.91815
9.51657
11.4143
11.2251
11.1075
11.1866
11.4047
11.6421
11.7957
11.9142
12.0088
12.0839
1.00001
1.00003
1.00012
1.00027
1.00077
1.00157
1.00449
1.00895
1.02684
1.04974
1.17266
1.31805
2.17749
3.84462
9.33144
11.4023
11.2043
11.0734
11.1517
11.3683
11.6024
11.7528
11.8704
11.9638
12.038
1.00001
1.00003
1.00012
1.00026
1.00074
1.00151
1.00432
1.00859
1.02593
1.04762
1.16747
1.30453
2.1381
3.7326
9.04249
11.3891
11.174
11.0185
11.0938
11.3049
11.5329
11.6774
11.7907
11.8809
11.9547
1.00001
1.00003
1.00011
1.00024
1.0007
1.00143
1.00409
1.00808
1.02472
1.04459
1.1605
1.28658
2.08609
3.58119
8.64593
11.3768
11.1349
10.9446
11.0155
11.2178
11.4366
11.5725
11.6796
11.7654
11.8393
1.00001
1.00003
1.0001
1.00022
1.00065
1.00133
1.00382
1.00751
1.02319
1.04138
1.15065
1.26475
2.02372
3.38881
8.13972
11.37
11.0889
10.8522
10.9167
11.1064
11.3122
11.435
11.5304
11.6074
11.6811
1.00001
1.00003
1.0001
1.00021
1.0006
1.00124
1.00354
1.00698
1.02141
1.03838
1.13874
1.24346
1.93119
3.1649
7.50736
11.371
11.0437
10.7442
10.7993
10.9697
11.1563
11.2592
11.3348
11.3931
11.4585
1.00001
1.00002
1.00009
1.00019
1.00056
1.00115
1.00326
1.00656
1.01932
1.03651
1.12255
1.22331
1.81879
2.91187
6.75578
11.3649
10.9995
10.625
10.667
10.81
10.9687
11.0409
11.0823
11.1022
11.1396
1
1.00002
1.00008
1.00017
1.0005
1.00103
1.00293
1.00591
1.01713
1.0336
1.10594
1.2009
1.70122
2.64226
5.91146
11.2932
10.9308
10.4974
10.5214
10.625
10.7449
10.773
10.7598
10.7022
10.6443
1
1.00002
1.00007
1.00015
1.00044
1.0009
1.00257
1.00519
1.01503
1.02957
1.09205
1.17722
1.60113
2.40776
5.20439
10.9773
10.7786
10.3761
10.3634
10.4146
10.4782
10.4554
10.3598
10.1396
9.8054
1.00001
1.00004
1.00013
1.00028
1.0008
1.00164
1.00465
1.00929
1.02776
1.05164
1.17795
1.33135
2.21551
3.95286
9.60034
11.4196
11.2333
11.1199
11.1979
11.4149
11.6526
11.8062
11.923
12.0161
12.0895
1.00001
1.00004
1.00013
1.00028
1.00079
1.00162
1.0046
1.00918
1.02747
1.05102
1.17626
1.327
2.20346
3.91849
9.51723
11.4143
11.2252
11.1076
11.1867
11.4048
11.6422
11.7958
11.9143
12.009
12.084
1.00001
1.00004
1.00013
1.00027
1.00077
1.00158
1.00449
1.00896
1.02686
1.04976
1.17268
1.31813
2.17757
3.84495
9.33211
11.4023
11.2044
11.0735
11.1518
11.3684
11.6025
11.7529
11.8705
11.964
12.0381
1.00001
1.00004
1.00012
1.00026
1.00074
1.00152
1.00433
1.0086
1.02594
1.04765
1.16747
1.30462
2.13816
3.73292
9.04317
11.3891
11.174
11.0186
11.0939
11.3051
11.533
11.6775
11.7908
11.8811
11.9548
1.00001
1.00003
1.00011
1.00025
1.0007
1.00144
1.0041
1.00809
1.02473
1.04461
1.16052
1.28665
2.08618
3.58153
8.64665
11.3768
11.135
10.9447
11.0156
11.2179
11.4367
11.5727
11.6797
11.7656
11.8394
1.00001
1.00003
1.00011
1.00023
1.00066
1.00134
1.00383
1.00752
1.02321
1.0414
1.15068
1.26481
2.02382
3.38915
8.14047
11.3699
11.089
10.8523
10.9168
11.1065
11.3123
11.4351
11.5305
11.6075
11.6812
1.00001
1.00003
1.0001
1.00021
1.00061
1.00124
1.00355
1.00699
1.02142
1.0384
1.13877
1.24352
1.93129
3.16523
7.50816
11.3709
11.0437
10.7443
10.7994
10.9698
11.1564
11.2593
11.3349
11.3932
11.4586
1.00001
1.00003
1.00009
1.0002
1.00056
1.00115
1.00327
1.00657
1.01933
1.03654
1.12255
1.22339
1.81886
2.91218
6.75656
11.3648
10.9995
10.6251
10.6671
10.8101
10.9688
11.041
11.0824
11.1023
11.1397
1.00001
1.00002
1.00008
1.00018
1.00051
1.00104
1.00294
1.00592
1.01714
1.03361
1.10596
1.20095
1.70131
2.64255
5.91223
11.2932
10.9309
10.4974
10.5215
10.6251
10.7449
10.7731
10.7599
10.7023
10.6444
1
1.00002
1.00007
1.00016
1.00044
1.00091
1.00258
1.0052
1.01504
1.02958
1.09207
1.17727
1.60119
2.40796
5.20481
10.9776
10.7788
10.3762
10.3635
10.4147
10.4783
10.4555
10.3599
10.1397
9.80547
1.00001
1.00004
1.00013
1.00028
1.0008
1.00164
1.00465
1.00929
1.02776
1.05164
1.17795
1.33135
2.21552
3.95288
9.60039
11.4196
11.2333
11.1199
11.1979
11.4149
11.6526
11.8062
11.923
12.0161
12.0895
1.00001
1.00004
1.00013
1.00028
1.00079
1.00162
1.0046
1.00918
1.02747
1.05102
1.17626
1.327
2.20346
3.91851
9.51728
11.4143
11.2252
11.1076
11.1867
11.4049
11.6422
11.7959
11.9143
12.009
12.084
1.00001
1.00004
1.00013
1.00027
1.00077
1.00158
1.00449
1.00896
1.02686
1.04976
1.17268
1.31813
2.17757
3.84497
9.33217
11.4023
11.2044
11.0735
11.1518
11.3684
11.6025
11.7529
11.8705
11.964
12.0381
1.00001
1.00004
1.00012
1.00026
1.00074
1.00152
1.00433
1.0086
1.02594
1.04765
1.16747
1.30463
2.13817
3.73295
9.04322
11.3891
11.174
11.0186
11.094
11.3051
11.533
11.6775
11.7908
11.8811
11.9548
1.00001
1.00003
1.00011
1.00025
1.0007
1.00144
1.0041
1.00809
1.02473
1.04461
1.16052
1.28665
2.08619
3.58156
8.64671
11.3768
11.135
10.9447
11.0156
11.2179
11.4367
11.5727
11.6797
11.7656
11.8394
1.00001
1.00003
1.00011
1.00023
1.00066
1.00134
1.00383
1.00752
1.02321
1.0414
1.15068
1.26481
2.02382
3.38918
8.14053
11.3699
11.089
10.8523
10.9168
11.1065
11.3123
11.4351
11.5305
11.6075
11.6812
1.00001
1.00003
1.0001
1.00021
1.00061
1.00124
1.00355
1.00699
1.02142
1.0384
1.13877
1.24352
1.9313
3.16526
7.50823
11.3709
11.0437
10.7443
10.7994
10.9698
11.1564
11.2593
11.3349
11.3932
11.4586
1.00001
1.00003
1.00009
1.0002
1.00056
1.00115
1.00327
1.00657
1.01933
1.03654
1.12256
1.22339
1.81887
2.91221
6.75663
11.3648
10.9995
10.6251
10.6671
10.8101
10.9688
11.041
11.0824
11.1023
11.1398
1.00001
1.00002
1.00008
1.00018
1.00051
1.00104
1.00294
1.00592
1.01714
1.03361
1.10596
1.20095
1.70132
2.64257
5.91229
11.2932
10.9309
10.4974
10.5215
10.6251
10.745
10.7731
10.7599
10.7023
10.6444
1
1.00002
1.00007
1.00016
1.00044
1.00091
1.00258
1.0052
1.01504
1.02958
1.09207
1.17727
1.6012
2.40797
5.20485
10.9776
10.7788
10.3762
10.3635
10.4147
10.4783
10.4555
10.3599
10.1397
9.80548
1.00001
1.00004
1.00013
1.00028
1.0008
1.00164
1.00465
1.00929
1.02776
1.05164
1.17795
1.33135
2.21552
3.95288
9.6004
11.4196
11.2333
11.1199
11.1979
11.4149
11.6526
11.8062
11.923
12.0161
12.0895
1.00001
1.00004
1.00013
1.00028
1.00079
1.00162
1.0046
1.00918
1.02747
1.05102
1.17626
1.327
2.20346
3.91851
9.51728
11.4143
11.2252
11.1076
11.1867
11.4049
11.6422
11.7959
11.9143
12.009
12.084
1.00001
1.00004
1.00013
1.00027
1.00077
1.00158
1.00449
1.00896
1.02686
1.04976
1.17268
1.31813
2.17758
3.84498
9.33217
11.4023
11.2044
11.0735
11.1518
11.3684
11.6025
11.7529
11.8705
11.964
12.0381
1.00001
1.00004
1.00012
1.00026
1.00074
1.00152
1.00433
1.0086
1.02594
1.04765
1.16747
1.30463
2.13817
3.73295
9.04323
11.3891
11.174
11.0186
11.094
11.3051
11.533
11.6775
11.7908
11.8811
11.9548
1.00001
1.00003
1.00011
1.00025
1.0007
1.00144
1.0041
1.00809
1.02473
1.04461
1.16052
1.28665
2.08619
3.58156
8.64671
11.3768
11.135
10.9447
11.0156
11.2179
11.4367
11.5727
11.6797
11.7656
11.8394
1.00001
1.00003
1.00011
1.00023
1.00066
1.00134
1.00383
1.00752
1.02321
1.0414
1.15068
1.26481
2.02382
3.38918
8.14053
11.3699
11.089
10.8523
10.9168
11.1065
11.3123
11.4351
11.5305
11.6075
11.6812
1.00001
1.00003
1.0001
1.00021
1.00061
1.00124
1.00355
1.00699
1.02142
1.0384
1.13877
1.24352
1.9313
3.16526
7.50823
11.3709
11.0437
10.7443
10.7994
10.9698
11.1564
11.2593
11.3349
11.3932
11.4586
1.00001
1.00003
1.00009
1.0002
1.00056
1.00115
1.00327
1.00657
1.01933
1.03654
1.12256
1.22339
1.81887
2.91221
6.75663
11.3648
10.9995
10.6251
10.6671
10.8101
10.9688
11.041
11.0824
11.1023
11.1398
1.00001
1.00002
1.00008
1.00018
1.00051
1.00104
1.00294
1.00592
1.01714
1.03361
1.10596
1.20095
1.70132
2.64257
5.9123
11.2932
10.9309
10.4974
10.5215
10.6251
10.745
10.7731
10.7599
10.7023
10.6444
1
1.00002
1.00007
1.00016
1.00044
1.00091
1.00258
1.0052
1.01504
1.02958
1.09207
1.17727
1.6012
2.40797
5.20485
10.9776
10.7788
10.3762
10.3635
10.4147
10.4783
10.4555
10.3599
10.1397
9.80548
1.00001
1.00004
1.00013
1.00028
1.0008
1.00164
1.00465
1.00929
1.02776
1.05164
1.17795
1.33135
2.21552
3.95288
9.60041
11.4196
11.2333
11.1199
11.1979
11.4149
11.6526
11.8062
11.923
12.0161
12.0895
1.00001
1.00004
1.00013
1.00028
1.00079
1.00162
1.0046
1.00918
1.02747
1.05102
1.17626
1.327
2.20346
3.91851
9.51729
11.4143
11.2252
11.1076
11.1867
11.4049
11.6422
11.7959
11.9143
12.009
12.084
1.00001
1.00004
1.00013
1.00027
1.00077
1.00158
1.00449
1.00896
1.02686
1.04976
1.17268
1.31813
2.17758
3.84498
9.33218
11.4023
11.2044
11.0735
11.1518
11.3684
11.6025
11.7529
11.8705
11.964
12.0381
1.00001
1.00004
1.00012
1.00026
1.00074
1.00152
1.00433
1.0086
1.02594
1.04765
1.16747
1.30463
2.13817
3.73295
9.04324
11.3891
11.174
11.0186
11.094
11.3051
11.533
11.6775
11.7909
11.8811
11.9548
1.00001
1.00003
1.00011
1.00025
1.0007
1.00144
1.0041
1.00809
1.02473
1.04461
1.16052
1.28665
2.08619
3.58156
8.64672
11.3768
11.135
10.9447
11.0156
11.2179
11.4367
11.5727
11.6797
11.7656
11.8394
1.00001
1.00003
1.00011
1.00023
1.00066
1.00134
1.00383
1.00752
1.02321
1.0414
1.15068
1.26481
2.02383
3.38918
8.14054
11.3699
11.089
10.8523
10.9168
11.1065
11.3123
11.4351
11.5305
11.6075
11.6812
1.00001
1.00003
1.0001
1.00021
1.00061
1.00124
1.00355
1.00699
1.02142
1.0384
1.13877
1.24352
1.9313
3.16526
7.50824
11.3709
11.0437
10.7443
10.7994
10.9698
11.1564
11.2593
11.3349
11.3932
11.4586
1.00001
1.00003
1.00009
1.0002
1.00056
1.00115
1.00327
1.00657
1.01933
1.03654
1.12256
1.22339
1.81887
2.91221
6.75664
11.3648
10.9995
10.6251
10.6671
10.8101
10.9688
11.041
11.0824
11.1023
11.1398
1.00001
1.00002
1.00008
1.00018
1.00051
1.00104
1.00294
1.00592
1.01714
1.03361
1.10596
1.20095
1.70132
2.64258
5.91231
11.2932
10.9309
10.4975
10.5215
10.6251
10.745
10.7731
10.7599
10.7023
10.6444
1
1.00002
1.00007
1.00016
1.00044
1.00091
1.00258
1.0052
1.01504
1.02958
1.09207
1.17727
1.6012
2.40797
5.20486
10.9776
10.7788
10.3762
10.3635
10.4147
10.4783
10.4555
10.3599
10.1397
9.80548
1.00001
1.00004
1.00013
1.00028
1.0008
1.00164
1.00465
1.00929
1.02776
1.05164
1.17795
1.33135
2.21552
3.95288
9.60041
11.4196
11.2333
11.1199
11.1979
11.4149
11.6526
11.8062
11.923
12.0161
12.0895
1.00001
1.00004
1.00013
1.00028
1.00079
1.00162
1.0046
1.00918
1.02747
1.05102
1.17626
1.327
2.20347
3.91852
9.5173
11.4143
11.2252
11.1076
11.1867
11.4049
11.6422
11.7959
11.9143
12.009
12.084
1.00001
1.00004
1.00013
1.00027
1.00077
1.00158
1.00449
1.00896
1.02686
1.04976
1.17268
1.31813
2.17758
3.84498
9.33218
11.4023
11.2044
11.0735
11.1518
11.3684
11.6025
11.7529
11.8705
11.964
12.0381
1.00001
1.00004
1.00012
1.00026
1.00074
1.00152
1.00433
1.0086
1.02594
1.04765
1.16747
1.30463
2.13817
3.73295
9.04324
11.3891
11.174
11.0186
11.094
11.3051
11.533
11.6775
11.7909
11.8811
11.9548
1.00001
1.00003
1.00011
1.00025
1.0007
1.00144
1.0041
1.00809
1.02473
1.04461
1.16052
1.28665
2.08619
3.58156
8.64672
11.3768
11.135
10.9447
11.0156
11.2179
11.4367
11.5727
11.6797
11.7656
11.8394
1.00001
1.00003
1.00011
1.00023
1.00066
1.00134
1.00383
1.00752
1.02321
1.0414
1.15068
1.26481
2.02383
3.38918
8.14054
11.3699
11.089
10.8523
10.9168
11.1065
11.3123
11.4351
11.5305
11.6075
11.6812
1.00001
1.00003
1.0001
1.00021
1.00061
1.00124
1.00355
1.00699
1.02142
1.0384
1.13877
1.24352
1.9313
3.16526
7.50825
11.3709
11.0437
10.7443
10.7994
10.9698
11.1564
11.2593
11.3349
11.3932
11.4586
1.00001
1.00003
1.00009
1.0002
1.00056
1.00115
1.00327
1.00657
1.01933
1.03654
1.12256
1.22339
1.81887
2.91221
6.75665
11.3648
10.9995
10.6251
10.6671
10.8101
10.9688
11.041
11.0824
11.1023
11.1398
1.00001
1.00002
1.00008
1.00018
1.00051
1.00104
1.00294
1.00592
1.01714
1.03361
1.10596
1.20095
1.70133
2.64258
5.91231
11.2932
10.9309
10.4975
10.5215
10.6251
10.745
10.7731
10.7599
10.7023
10.6444
1
1.00002
1.00007
1.00016
1.00044
1.00091
1.00258
1.0052
1.01504
1.02958
1.09207
1.17727
1.6012
2.40797
5.20486
10.9776
10.7788
10.3763
10.3635
10.4147
10.4783
10.4555
10.3599
10.1397
9.80548
1.00001
1.00004
1.00013
1.00028
1.0008
1.00164
1.00465
1.00929
1.02776
1.05164
1.17795
1.33135
2.21552
3.95288
9.6004
11.4196
11.2333
11.1199
11.1979
11.4149
11.6526
11.8062
11.923
12.0161
12.0895
1.00001
1.00004
1.00013
1.00028
1.00079
1.00162
1.0046
1.00918
1.02747
1.05102
1.17626
1.327
2.20346
3.91851
9.51729
11.4143
11.2252
11.1076
11.1867
11.4049
11.6422
11.7959
11.9143
12.009
12.084
1.00001
1.00004
1.00013
1.00027
1.00077
1.00158
1.00449
1.00896
1.02686
1.04976
1.17268
1.31813
2.17758
3.84498
9.33218
11.4023
11.2044
11.0735
11.1518
11.3684
11.6025
11.7529
11.8705
11.964
12.0381
1.00001
1.00004
1.00012
1.00026
1.00074
1.00152
1.00433
1.0086
1.02594
1.04765
1.16747
1.30463
2.13817
3.73295
9.04323
11.3891
11.174
11.0186
11.094
11.3051
11.533
11.6775
11.7909
11.8811
11.9548
1.00001
1.00003
1.00011
1.00025
1.0007
1.00144
1.0041
1.00809
1.02473
1.04461
1.16052
1.28665
2.08619
3.58156
8.64671
11.3768
11.135
10.9447
11.0156
11.2179
11.4367
11.5727
11.6797
11.7656
11.8394
1.00001
1.00003
1.00011
1.00023
1.00066
1.00134
1.00383
1.00752
1.02321
1.0414
1.15068
1.26481
2.02382
3.38918
8.14054
11.3699
11.089
10.8523
10.9168
11.1065
11.3123
11.4351
11.5305
11.6075
11.6812
1.00001
1.00003
1.0001
1.00021
1.00061
1.00124
1.00355
1.00699
1.02142
1.0384
1.13877
1.24352
1.9313
3.16526
7.50824
11.3709
11.0437
10.7443
10.7994
10.9698
11.1564
11.2593
11.3349
11.3932
11.4586
1.00001
1.00003
1.00009
1.0002
1.00056
1.00115
1.00327
1.00657
1.01933
1.03654
1.12256
1.22339
1.81887
2.91221
6.75664
11.3648
10.9995
10.6251
10.6671
10.8101
10.9688
11.041
11.0824
11.1023
11.1398
1.00001
1.00002
1.00008
1.00018
1.00051
1.00104
1.00294
1.00592
1.01714
1.03361
1.10596
1.20095
1.70132
2.64257
5.9123
11.2932
10.9309
10.4974
10.5215
10.6251
10.745
10.7731
10.7599
10.7023
10.6444
1
1.00002
1.00007
1.00016
1.00044
1.00091
1.00258
1.0052
1.01504
1.02958
1.09207
1.17727
1.6012
2.40797
5.20485
10.9776
10.7788
10.3762
10.3635
10.4147
10.4783
10.4555
10.3599
10.1397
9.80548
1.00001
1.00004
1.00013
1.00028
1.0008
1.00164
1.00465
1.00929
1.02776
1.05164
1.17795
1.33135
2.21552
3.95288
9.60039
11.4196
11.2333
11.1199
11.1979
11.4149
11.6526
11.8062
11.923
12.0161
12.0895
1.00001
1.00004
1.00013
1.00028
1.00079
1.00162
1.0046
1.00918
1.02747
1.05102
1.17626
1.327
2.20346
3.91851
9.51728
11.4143
11.2252
11.1076
11.1867
11.4049
11.6422
11.7959
11.9143
12.009
12.084
1.00001
1.00004
1.00013
1.00027
1.00077
1.00158
1.00449
1.00896
1.02686
1.04976
1.17268
1.31813
2.17757
3.84497
9.33217
11.4023
11.2044
11.0735
11.1518
11.3684
11.6025
11.7529
11.8705
11.964
12.0381
1.00001
1.00004
1.00012
1.00026
1.00074
1.00152
1.00433
1.0086
1.02594
1.04765
1.16747
1.30463
2.13817
3.73295
9.04322
11.3891
11.174
11.0186
11.094
11.3051
11.533
11.6775
11.7908
11.8811
11.9548
1.00001
1.00003
1.00011
1.00025
1.0007
1.00144
1.0041
1.00809
1.02473
1.04461
1.16052
1.28665
2.08619
3.58156
8.64671
11.3768
11.135
10.9447
11.0156
11.2179
11.4367
11.5727
11.6797
11.7656
11.8394
1.00001
1.00003
1.00011
1.00023
1.00066
1.00134
1.00383
1.00752
1.02321
1.0414
1.15068
1.26481
2.02382
3.38918
8.14053
11.3699
11.089
10.8523
10.9168
11.1065
11.3123
11.4351
11.5305
11.6075
11.6812
1.00001
1.00003
1.0001
1.00021
1.00061
1.00124
1.00355
1.00699
1.02142
1.0384
1.13877
1.24352
1.9313
3.16526
7.50823
11.3709
11.0437
10.7443
10.7994
10.9698
11.1564
11.2593
11.3349
11.3932
11.4586
1.00001
1.00003
1.00009
1.0002
1.00056
1.00115
1.00327
1.00657
1.01933
1.03654
1.12256
1.22339
1.81887
2.91221
6.75663
11.3648
10.9995
10.6251
10.6671
10.8101
10.9688
11.041
11.0824
11.1023
11.1398
1.00001
1.00002
1.00008
1.00018
1.00051
1.00104
1.00294
1.00592
1.01714
1.03361
1.10596
1.20095
1.70132
2.64257
5.91229
11.2932
10.9309
10.4974
10.5215
10.6251
10.745
10.7731
10.7599
10.7023
10.6444
1
1.00002
1.00007
1.00016
1.00044
1.00091
1.00258
1.0052
1.01504
1.02958
1.09207
1.17727
1.6012
2.40797
5.20485
10.9776
10.7788
10.3762
10.3635
10.4147
10.4783
10.4555
10.3599
10.1397
9.80548
1.00001
1.00004
1.00013
1.00028
1.0008
1.00164
1.00465
1.00929
1.02776
1.05164
1.17795
1.33135
2.21551
3.95286
9.60034
11.4196
11.2333
11.1199
11.1979
11.4149
11.6526
11.8062
11.923
12.0161
12.0895
1.00001
1.00004
1.00013
1.00028
1.00079
1.00162
1.0046
1.00918
1.02747
1.05102
1.17626
1.327
2.20346
3.91849
9.51723
11.4143
11.2252
11.1076
11.1867
11.4048
11.6422
11.7958
11.9143
12.009
12.084
1.00001
1.00004
1.00013
1.00027
1.00077
1.00158
1.00449
1.00896
1.02686
1.04976
1.17268
1.31813
2.17757
3.84495
9.33211
11.4023
11.2044
11.0735
11.1518
11.3684
11.6025
11.7529
11.8705
11.964
12.0381
1.00001
1.00004
1.00012
1.00026
1.00074
1.00152
1.00433
1.0086
1.02594
1.04765
1.16747
1.30462
2.13816
3.73292
9.04317
11.3891
11.174
11.0186
11.0939
11.3051
11.533
11.6775
11.7908
11.8811
11.9548
1.00001
1.00003
1.00011
1.00025
1.0007
1.00144
1.0041
1.00809
1.02473
1.04461
1.16052
1.28665
2.08618
3.58153
8.64665
11.3768
11.135
10.9447
11.0156
11.2179
11.4367
11.5727
11.6797
11.7656
11.8394
1.00001
1.00003
1.00011
1.00023
1.00066
1.00134
1.00383
1.00752
1.02321
1.0414
1.15068
1.26481
2.02382
3.38915
8.14047
11.3699
11.089
10.8523
10.9168
11.1065
11.3123
11.4351
11.5305
11.6075
11.6812
1.00001
1.00003
1.0001
1.00021
1.00061
1.00124
1.00355
1.00699
1.02142
1.0384
1.13877
1.24352
1.93129
3.16523
7.50816
11.3709
11.0437
10.7443
10.7994
10.9698
11.1564
11.2593
11.3349
11.3932
11.4586
1.00001
1.00003
1.00009
1.0002
1.00056
1.00115
1.00327
1.00657
1.01933
1.03654
1.12255
1.22339
1.81886
2.91218
6.75656
11.3648
10.9995
10.6251
10.6671
10.8101
10.9688
11.041
11.0824
11.1023
11.1397
1.00001
1.00002
1.00008
1.00018
1.00051
1.00104
1.00294
1.00592
1.01714
1.03361
1.10596
1.20095
1.70131
2.64255
5.91223
11.2932
10.9309
10.4974
10.5215
10.6251
10.7449
10.7731
10.7599
10.7023
10.6444
1
1.00002
1.00007
1.00016
1.00044
1.00091
1.00258
1.0052
1.01504
1.02958
1.09207
1.17727
1.60119
2.40796
5.20481
10.9776
10.7788
10.3762
10.3635
10.4147
10.4783
10.4555
10.3599
10.1397
9.80547
1.00001
1.00004
1.00013
1.00028
1.0008
1.00163
1.00464
1.00928
1.02775
1.05162
1.17793
1.33127
2.21544
3.95252
9.59968
11.4196
11.2332
11.1198
11.1978
11.4148
11.6524
11.8061
11.9228
12.0159
12.0894
1.00001
1.00004
1.00013
1.00027
1.00079
1.00161
1.00459
1.00917
1.02746
1.051
1.17624
1.32692
2.20338
3.91815
9.51656
11.4143
11.2251
11.1075
11.1866
11.4047
11.6421
11.7957
11.9142
12.0088
12.0839
1.00001
1.00003
1.00012
1.00027
1.00077
1.00157
1.00449
1.00895
1.02684
1.04974
1.17266
1.31805
2.17749
3.84462
9.33143
11.4023
11.2043
11.0734
11.1517
11.3683
11.6024
11.7528
11.8704
11.9638
12.038
1.00001
1.00003
1.00012
1.00026
1.00074
1.00151
1.00432
1.00859
1.02593
1.04762
1.16747
1.30453
2.1381
3.73259
9.04249
11.3891
11.174
11.0185
11.0938
11.3049
11.5329
11.6774
11.7907
11.8809
11.9547
1.00001
1.00003
1.00011
1.00024
1.0007
1.00143
1.00409
1.00808
1.02472
1.04459
1.1605
1.28658
2.08609
3.58119
8.64593
11.3768
11.1349
10.9446
11.0155
11.2178
11.4366
11.5725
11.6796
11.7654
11.8393
1.00001
1.00003
1.0001
1.00022
1.00065
1.00133
1.00382
1.00751
1.02319
1.04138
1.15065
1.26475
2.02372
3.38881
8.13971
11.37
11.0889
10.8522
10.9167
11.1064
11.3122
11.435
11.5304
11.6074
11.6811
1.00001
1.00003
1.0001
1.00021
1.0006
1.00124
1.00354
1.00698
1.02141
1.03838
1.13874
1.24346
1.93119
3.16489
7.50736
11.371
11.0437
10.7442
10.7993
10.9697
11.1563
11.2592
11.3348
11.3931
11.4585
1.00001
1.00002
1.00009
1.00019
1.00056
1.00115
1.00326
1.00656
1.01932
1.03651
1.12255
1.22331
1.81879
2.91187
6.75578
11.3649
10.9995
10.625
10.667
10.81
10.9687
11.0409
11.0823
11.1022
11.1396
1
1.00002
1.00008
1.00017
1.0005
1.00103
1.00293
1.00591
1.01713
1.0336
1.10594
1.2009
1.70122
2.64226
5.91145
11.2932
10.9308
10.4974
10.5214
10.625
10.7449
10.773
10.7598
10.7022
10.6443
1
1.00002
1.00007
1.00015
1.00044
1.0009
1.00257
1.00519
1.01503
1.02957
1.09205
1.17722
1.60113
2.40775
5.20439
10.9773
10.7786
10.3761
10.3634
10.4146
10.4782
10.4554
10.3598
10.1396
9.8054
1
1.00002
1.00005
1.00015
1.00032
1.00092
1.00186
1.00534
1.01049
1.03243
1.05821
1.20817
1.39362
2.39666
4.47163
10.2948
10.5022
10.3096
10.1834
10.1895
10.1798
10.0945
9.84629
9.27487
7.84538
1
1.00002
1.00004
1.00013
1.00028
1.00081
1.00165
1.0047
1.00941
1.02792
1.05249
1.17742
1.33588
2.20448
3.91684
9.23287
10.3318
10.2078
10.0045
9.95215
9.87994
9.7067
9.32426
8.56093
7.11888
1
1.00001
1.00004
1.00011
1.00024
1.00068
1.00139
1.00397
1.00783
1.02388
1.04302
1.15416
1.27394
2.03355
3.4231
8.03854
10.2116
10.0983
9.84235
9.7113
9.58784
9.33883
8.87405
8.11482
6.98549
1
1.00001
1.00003
1.00009
1.0002
1.00057
1.00117
1.00332
1.00656
1.01998
1.0359
1.12855
1.22497
1.84899
2.95206
6.74908
10.117
9.9955
9.69572
9.48041
9.30531
9.01712
8.5445
7.85627
6.97044
1
1.00001
1.00002
1.00008
1.00017
1.00048
1.00098
1.00278
1.0056
1.01622
1.0319
1.0995
1.19193
1.65054
2.51703
5.41196
9.91941
9.85564
9.58684
9.27685
9.05126
8.74999
8.30055
7.68609
6.9459
1
1.00001
1.00002
1.00005
1.00015
1.00032
1.00091
1.00184
1.00527
1.01034
1.03182
1.05729
1.20204
1.38642
2.32317
4.26128
9.345
9.64565
9.46574
9.10492
8.83482
8.52528
8.10701
7.55841
6.91258
1
1
1.00002
1.00004
1.00012
1.00026
1.00074
1.00151
1.00429
1.00858
1.02538
1.04759
1.16093
1.29788
2.07393
3.538
8.04773
9.37617
9.26384
8.97588
8.65299
8.33304
7.94114
7.44986
6.87911
1
1
1.00001
1.00003
1.00009
1.0002
1.00056
1.00115
1.00329
1.00644
1.0199
1.03536
1.12772
1.22367
1.84267
2.92141
6.52966
9.17374
9.11194
8.88256
8.51102
8.17659
7.80196
7.35548
6.84306
0.999998
1
1.00001
1.00002
1.00006
1.00017
1.00035
1.00102
1.002
1.0061
1.01085
1.03836
1.06341
1.23858
1.47328
2.51671
4.8438
8.8645
8.98991
8.81608
8.43081
8.05098
7.6847
7.27364
6.80914
0.999997
0.999998
1
1.00002
1.00004
1.00013
1.00028
1.0008
1.00162
1.00462
1.00914
1.02768
1.05048
1.17622
1.3251
2.15099
3.70724
8.07579
8.81468
8.68369
8.35808
7.94559
7.5812
7.19942
6.77786
0.999995
0.999996
1
1.00001
1.00004
1.00008
1.00024
1.00048
1.00139
1.0027
1.00841
1.01461
1.05328
1.08744
1.3366
1.67786
3.1817
6.46916
8.54574
8.49824
8.28823
7.86763
7.49632
7.13583
6.75053
0.999994
0.999995
0.999998
1
1.00002
1.00006
1.00018
1.00038
1.00106
1.00216
1.00617
1.01198
1.03755
1.06607
1.2378
1.46103
2.50861
4.72308
8.15442
8.35402
8.20949
7.85757
7.44745
7.08744
6.72753
0.999993
0.999994
0.999995
1
1.00001
1.00005
1.00011
1.00032
1.00067
1.00189
1.00382
1.01095
1.02169
1.06524
1.12871
1.40427
1.92422
3.59097
7.23341
8.17388
8.08641
7.83234
7.42855
7.05637
6.71045
0.999992
0.999993
0.999994
0.999999
1.00001
1.00003
1.00008
1.00023
1.00048
1.00135
1.00273
1.00777
1.01508
1.04715
1.08363
1.29673
1.59983
2.88
5.63373
7.91647
7.91475
7.77706
7.44242
7.05072
6.70469
0.999992
0.999992
0.999993
0.999995
1
1.00002
1.00006
1.00014
1.0004
1.00081
1.00228
1.0046
1.01311
1.0259
1.07736
1.15449
1.47473
2.08851
3.89045
7.38029
7.82215
7.71995
7.45025
7.05806
6.70876
0.999991
0.999992
0.999992
0.999994
1
1.00001
1.00004
1.00009
1.00028
1.00057
1.00159
1.00323
1.00911
1.01797
1.05417
1.1013
1.33373
1.72402
3.10774
6.14964
7.61894
7.59421
7.43631
7.08754
6.72508
0.999991
0.999991
0.999992
0.999993
0.999996
1.00001
1.00002
1.00007
1.00016
1.00046
1.00094
1.00262
1.00529
1.01509
1.02949
1.09038
1.17376
1.56155
2.27416
4.40787
7.19019
7.48121
7.38972
7.14547
6.76879
0.999991
0.999991
0.999991
0.999992
0.999994
1
1.00001
1.00005
1.00011
1.00031
1.00064
1.0018
1.00364
1.01023
1.02039
1.05934
1.11993
1.35886
1.80848
3.21876
6.20738
7.30361
7.28192
7.15143
6.86156
0.999991
0.999991
0.999991
0.999992
0.999993
0.999996
1.00001
1.00002
1.00008
1.00017
1.0005
1.00102
1.00283
1.0057
1.0163
1.03141
1.09836
1.18512
1.60931
2.36096
4.61857
6.92979
7.21013
7.14864
6.98015
0.999991
0.999991
0.999991
0.999991
0.999992
0.999995
1
1.00002
1.00004
1.00013
1.00028
1.00077
1.00157
1.00438
1.00868
1.02552
1.04698
1.15555
1.29064
1.94031
3.12577
6.12239
7.08373
7.15224
7.11446
0.999991
0.999991
0.999991
0.999991
0.999991
0.999993
0.999996
1.00001
1.00002
1.00008
1.00018
1.00051
1.00105
1.00291
1.00588
1.01659
1.03259
1.09878
1.18862
1.61041
2.35284
4.54685
6.75715
7.18254
7.29216
0.999991
0.99999
0.99999
0.999991
0.999991
0.999992
0.999995
1
1.00002
1.00004
1.00013
1.00028
1.00078
1.00159
1.0044
1.00878
1.02538
1.04773
1.1526
1.29359
1.92116
3.0826
6.01975
7.16704
7.65454
0.999991
0.99999
0.99999
0.99999
0.999991
0.999991
0.999993
0.999996
1.00001
1.00002
1.00008
1.00018
1.00052
1.00106
1.00292
1.00589
1.01653
1.0325
1.09792
1.1863
1.60067
2.32735
4.45463
7.02722
8.36288
0.999991
0.99999
0.99999
0.99999
0.999991
0.999991
0.999992
0.999994
1
1.00001
1.00005
1.00012
1.00034
1.0007
1.00195
1.00395
1.01102
1.02195
1.06353
1.12795
1.38155
1.86275
3.33196
6.51757
9.55394
0.999991
0.99999
0.99999
0.99999
0.99999
0.999991
0.999992
0.999993
0.999998
1.00001
1.00003
1.00008
1.00023
1.00049
1.00136
1.00275
1.00775
1.01524
1.04597
1.08553
1.28105
1.59499
2.76766
5.358
10.8668
0.999991
0.99999
0.99999
0.99999
0.99999
0.999991
0.999991
0.999993
0.999995
1
1.00002
1.00007
1.00015
1.00045
1.00092
1.00261
1.00524
1.01541
1.02924
1.09595
1.17734
1.61832
2.428
5.20524
11.2091
0.999991
0.99999
0.99999
0.99999
0.99999
0.99999
0.999991
0.999992
0.999995
1
1.00002
1.00005
1.00015
1.00032
1.00091
1.00185
1.00544
1.01035
1.03411
1.05906
1.22139
1.4236
2.49389
4.83066
11.1909
0.999991
0.99999
0.99999
0.99999
0.99999
0.999991
0.999991
0.999992
0.999994
1
1.00001
1.00005
1.00011
1.00034
1.0007
1.00205
1.00401
1.01273
1.02245
1.08308
1.14273
1.54498
2.2414
4.86029
10.9944
0.999991
0.99999
0.99999
0.99999
0.99999
0.99999
0.999991
0.999992
0.999993
1
1.00001
1.00004
1.0001
1.00031
1.00064
1.00189
1.00369
1.01191
1.02082
1.07845
1.1338
1.51983
2.1852
4.72902
10.7899
0.999991
0.99999
0.99999
0.99999
0.99999
0.99999
0.999991
0.999991
0.999994
0.999998
1.00001
1.00003
1.00011
1.00024
1.00073
1.00143
1.00457
1.0081
1.02977
1.0494
1.19435
1.35843
2.35626
4.36563
10.5534
0.999991
0.99999
0.99999
0.99999
0.99999
0.99999
0.999991
0.999992
0.999993
0.999998
1.00001
1.00004
1.00008
1.00027
1.00052
1.00172
1.00297
1.01125
1.01822
1.07284
1.1221
1.49005
2.08776
4.48914
10.3056
0.999991
0.99999
0.99999
0.99999
0.99999
0.99999
0.999991
0.999991
0.999994
0.999997
1.00001
1.00003
1.00011
1.00023
1.00069
1.00142
1.00424
1.00826
1.02696
1.04747
1.18033
1.32828
2.27156
4.11919
10.0722
0.999991
0.99999
0.99999
0.99999
0.99999
0.99999
0.999991
0.999991
0.999993
0.999997
1.00001
1.00003
1.0001
1.00021
1.00065
1.00132
1.00399
1.00771
1.02567
1.0449
1.17247
1.31159
2.22651
3.99597
9.85036
0.999991
0.99999
0.99999
0.99999
0.99999
0.99999
0.999991
0.999991
0.999992
0.999997
1
1.00003
1.00007
1.00023
1.00042
1.00151
1.00252
1.00991
1.016
1.0652
1.10829
1.44302
1.9661
4.15428
9.61907
0.999991
0.99999
0.99999
0.99999
0.99999
0.99999
0.999991
0.999991
0.999993
0.999996
1.00001
1.00002
1.00008
1.00017
1.00057
1.00105
1.00371
1.00629
1.02451
1.04026
1.16138
1.29282
2.14517
3.80824
9.41675
0.999991
0.99999
0.99999
0.99999
0.99999
0.99999
0.999991
0.999991
0.999992
0.999996
1
1.00003
1.00006
1.0002
1.00038
1.00136
1.00226
1.00894
1.01439
1.05952
1.09794
1.41091
1.88587
3.95212
9.21943
0.999991
0.99999
0.99999
0.99999
0.99999
0.99999
0.999991
0.999991
0.999993
0.999996
1.00001
1.00002
1.00008
1.00018
1.00054
1.00107
1.00336
1.00605
1.02218
1.03676
1.14904
1.26464
2.08086
3.61862
9.10297
0.999991
0.99999
0.99999
0.99999
0.99999
0.99999
0.999991
0.999991
0.999993
0.999996
1.00001
1.00002
1.00008
1.00017
1.00052
1.00105
1.00321
1.00598
1.02096
1.03528
1.14224
1.25068
2.04478
3.53658
9.02057
0.999991
0.99999
0.99999
0.99999
0.99999
0.99999
0.999991
0.999991
0.999992
0.999996
1
1.00003
1.00006
1.00019
1.00039
1.00122
1.00221
1.00795
1.01304
1.05342
1.08696
1.37153
1.78958
3.74258
8.84413
0.999991
0.99999
0.99999
0.99999
0.99999
0.99999
0.999991
0.999991
0.999992
0.999996
1
1.00003
1.00006
1.0002
1.00042
1.00124
1.00246
1.00772
1.01385
1.05213
1.0867
1.36117
1.77502
3.70514
8.80255
1
1.00002
1.00005
1.00016
1.00033
1.00092
1.00187
1.00535
1.0105
1.03244
1.05823
1.20819
1.39371
2.39676
4.47213
10.2955
10.5023
10.3096
10.1835
10.1896
10.1799
10.0946
9.84636
9.27493
7.84541
1
1.00002
1.00005
1.00014
1.00029
1.00082
1.00166
1.00471
1.00942
1.02793
1.05252
1.17744
1.33596
2.20458
3.91723
9.23358
10.3319
10.2079
10.0046
9.95222
9.88001
9.70677
9.32433
8.56098
7.11891
1
1.00002
1.00004
1.00012
1.00024
1.00069
1.0014
1.00398
1.00784
1.02389
1.04304
1.15419
1.27401
2.03365
3.42346
8.0393
10.2116
10.0983
9.8424
9.71137
9.5879
9.33889
8.87411
8.11488
6.98552
1
1.00001
1.00003
1.0001
1.00021
1.00058
1.00117
1.00333
1.00657
1.01999
1.03592
1.12858
1.22503
1.8491
2.95239
6.74986
10.117
9.99551
9.69575
9.48047
9.30537
9.01718
8.54455
7.85632
6.97047
1
1.00001
1.00003
1.00008
1.00017
1.00048
1.00099
1.00278
1.00561
1.01624
1.03191
1.09953
1.19198
1.65065
2.51733
5.41279
9.91946
9.85567
9.58686
9.2769
9.05132
8.75005
8.3006
7.68613
6.94594
1
1.00001
1.00003
1.00006
1.00016
1.00033
1.00092
1.00185
1.00528
1.01035
1.03183
1.05731
1.20208
1.38651
2.32328
4.26179
9.34534
9.64573
9.4658
9.10496
8.83487
8.52533
8.10706
7.55845
6.91261
1
1.00001
1.00002
1.00005
1.00013
1.00027
1.00075
1.00152
1.0043
1.0086
1.02539
1.04761
1.16095
1.29796
2.07404
3.5384
8.04849
9.37628
9.26392
8.97591
8.65303
8.33308
7.94118
7.4499
6.87914
1
1
1.00002
1.00004
1.0001
1.0002
1.00057
1.00116
1.0033
1.00646
1.01992
1.03538
1.12775
1.22373
1.84278
2.92175
6.53042
9.17376
9.11195
8.88256
8.51105
8.17661
7.80199
7.35552
6.84309
1
1
1.00001
1.00003
1.00006
1.00018