/*--------------------------------*- C++ -*----------------------------------*\
| =========                 |                                                 |
| \\      /  F ield         | OpenFOAM: The Open Source CFD Toolbox           |
|  \\    /   O peration     | Version:  4.1                                   |
|   \\  /    A nd           | Web:      www.OpenFOAM.org                      |
|    \\/     M anipulation  |                                                 |
\*---------------------------------------------------------------------------*/
FoamFile
{
    version     2.0;
    format      ascii;
    class       volScalarField;
    location    "2.2";
    object      Ma;
}
// * * * * * * * * * * * * * * * * * * * * * * * * * * * * * * * * * * * * * //

dimensions      [0 0 0 0 0 0 0];

internalField   nonuniform List<scalar> 
52500
(
3.00002
2.99998
2.99992
2.99971
2.99942
2.99821
2.99647
2.98979
2.97863
2.94225
2.85927
2.66584
2.14951
1.32627
0.540764
0.25141
0.318647
0.33783
0.302027
0.244622
0.193367
0.153466
0.114298
0.0726335
0.0422038
3.00002
2.99998
2.99993
2.99972
2.99942
2.99823
2.99652
2.98993
2.97896
2.94307
2.86155
2.6707
2.16224
1.34284
0.549434
0.252767
0.32136
0.341704
0.306839
0.251021
0.201283
0.162536
0.124797
0.08671
0.0635022
3.00002
2.99998
2.99993
2.99972
2.99944
2.99828
2.99662
2.99022
2.97964
2.94479
2.86628
2.68087
2.18997
1.38026
0.570481
0.259727
0.32996
0.352533
0.319376
0.266324
0.219104
0.182826
0.148758
0.11729
0.100915
3.00002
2.99998
2.99993
2.99973
2.99946
2.99834
2.99675
2.99045
2.98056
2.94664
2.8744
2.69609
2.23494
1.44035
0.603907
0.273088
0.344644
0.37026
0.339346
0.28959
0.245246
0.211887
0.181827
0.1559
0.143382
3.00002
2.99998
2.99994
2.99975
2.99949
2.99842
2.99692
2.99088
2.98175
2.94921
2.88462
2.71547
2.29161
1.52043
0.648467
0.29572
0.366485
0.394827
0.365995
0.319602
0.277664
0.247109
0.220982
0.199515
0.189702
3.00002
2.99998
2.99994
2.99977
2.99953
2.99853
2.99713
2.99153
2.98308
2.9526
2.89516
2.73638
2.35592
1.61691
0.703018
0.329664
0.396056
0.424143
0.396402
0.353349
0.314518
0.287324
0.265613
0.24911
0.24242
3.00002
2.99999
2.99995
2.99979
2.99956
2.99865
2.99736
2.99219
2.98443
2.95622
2.90414
2.75634
2.41016
1.70075
0.756359
0.361367
0.420861
0.446956
0.423724
0.387183
0.353966
0.332187
0.316276
0.305839
0.304945
3.00002
2.99999
2.99996
2.99981
2.99961
2.99877
2.9976
2.99287
2.98584
2.95995
2.91269
2.77764
2.45649
1.78981
0.824559
0.409272
0.444209
0.461222
0.447461
0.420622
0.394966
0.380377
0.373174
0.372535
0.382498
3.00002
3
2.99996
2.99984
2.99966
2.99894
2.99791
2.99387
2.98752
2.96576
2.92
2.80428
2.49489
1.90544
0.912047
0.471349
0.460969
0.473334
0.472181
0.45473
0.439007
0.433332
0.436393
0.451462
0.487518
3.00002
3
2.99997
2.99987
2.99972
2.99912
2.99822
2.99499
2.98909
2.97126
2.9288
2.82835
2.54154
2.00888
1.02891
0.547879
0.477934
0.490737
0.498463
0.490205
0.484584
0.48909
0.509443
0.55595
0.659415
3
2.99996
2.99991
2.99969
2.9994
2.99818
2.99645
2.98976
2.9786
2.94221
2.85923
2.66577
2.14943
1.32612
0.54063
0.25119
0.318457
0.337646
0.301823
0.244365
0.193028
0.153027
0.113698
0.0716723
0.0404951
3
2.99996
2.99991
2.9997
2.99941
2.99821
2.9965
2.98991
2.97894
2.94304
2.86151
2.67062
2.16215
1.34269
0.549301
0.25255
0.321174
0.341524
0.306639
0.25077
0.200959
0.162126
0.124254
0.0859164
0.0623927
3
2.99996
2.99991
2.99971
2.99942
2.99826
2.9966
2.9902
2.97961
2.94476
2.86624
2.68079
2.18988
1.38012
0.570364
0.259524
0.329782
0.35236
0.319182
0.266087
0.218807
0.182465
0.148307
0.116711
0.100227
3
2.99996
2.99991
2.99972
2.99944
2.99832
2.99672
2.99043
2.98053
2.9466
2.87438
2.69602
2.23489
1.4402
0.60379
0.272887
0.34447
0.370091
0.339159
0.289368
0.244981
0.211578
0.181463
0.155468
0.142901
3
2.99996
2.99992
2.99973
2.99947
2.9984
2.9969
2.99085
2.98173
2.94917
2.8846
2.7154
2.29154
1.52026
0.648341
0.295517
0.366312
0.394661
0.365817
0.319399
0.277432
0.246849
0.220687
0.199181
0.189341
3
2.99997
2.99992
2.99975
2.99951
2.99851
2.99711
2.99151
2.98305
2.95257
2.89513
2.73632
2.35582
1.61674
0.702889
0.329477
0.395898
0.423998
0.396248
0.353176
0.314322
0.287107
0.265372
0.248846
0.242139
3
2.99997
2.99993
2.99977
2.99955
2.99863
2.99734
2.99217
2.98441
2.95619
2.90411
2.75628
2.4101
1.70061
0.756266
0.36121
0.420726
0.446836
0.423596
0.387036
0.353801
0.332007
0.31608
0.305628
0.304726
3
2.99997
2.99994
2.99979
2.99959
2.99875
2.99758
2.99285
2.98582
2.95992
2.91266
2.77758
2.45645
1.78967
0.824448
0.40911
0.444092
0.461126
0.447349
0.420497
0.394827
0.380228
0.373016
0.372368
0.382327
3
2.99998
2.99995
2.99982
2.99964
2.99892
2.99789
2.99385
2.9875
2.96572
2.91998
2.80423
2.49487
1.90535
0.911948
0.471213
0.460873
0.473243
0.472083
0.454621
0.43889
0.43321
0.436265
0.451331
0.487392
3
2.99998
2.99996
2.99985
2.9997
2.9991
2.9982
2.99497
2.98906
2.97123
2.92877
2.8283
2.54149
2.00878
1.02881
0.547751
0.477839
0.490646
0.49837
0.490108
0.484484
0.488989
0.50934
0.555852
0.65933
3
2.99996
2.99991
2.99969
2.9994
2.99818
2.99645
2.98976
2.9786
2.94221
2.85923
2.66577
2.14942
1.32611
0.540629
0.251191
0.318458
0.337646
0.301824
0.244365
0.193028
0.153027
0.113698
0.0716722
0.0404953
3
2.99996
2.99991
2.9997
2.99941
2.99821
2.9965
2.98991
2.97894
2.94304
2.86151
2.67062
2.16215
1.34268
0.5493
0.252551
0.321174
0.341524
0.306639
0.25077
0.200959
0.162126
0.124254
0.0859162
0.0623928
3
2.99996
2.99991
2.99971
2.99942
2.99826
2.9966
2.9902
2.97961
2.94476
2.86624
2.68079
2.18988
1.38011
0.570362
0.259525
0.329782
0.35236
0.319182
0.266086
0.218807
0.182464
0.148307
0.11671
0.100227
3
2.99996
2.99991
2.99972
2.99944
2.99832
2.99672
2.99043
2.98053
2.9466
2.87438
2.69602
2.23488
1.4402
0.603788
0.272888
0.34447
0.370091
0.339159
0.289368
0.24498
0.211578
0.181463
0.155468
0.142901
3
2.99996
2.99992
2.99973
2.99947
2.9984
2.9969
2.99085
2.98173
2.94917
2.8846
2.7154
2.29153
1.52025
0.648338
0.295518
0.366311
0.39466
0.365817
0.319399
0.277432
0.246849
0.220687
0.19918
0.189341
3
2.99997
2.99992
2.99975
2.99951
2.99851
2.99711
2.99151
2.98305
2.95257
2.89513
2.73632
2.35581
1.61674
0.702887
0.329477
0.395898
0.423997
0.396248
0.353176
0.314322
0.287106
0.265372
0.248846
0.242139
3
2.99997
2.99993
2.99977
2.99955
2.99863
2.99734
2.99217
2.9844
2.95619
2.90411
2.75628
2.4101
1.70061
0.756265
0.36121
0.420726
0.446837
0.423596
0.387036
0.353801
0.332007
0.31608
0.305628
0.304725
3
2.99997
2.99994
2.99979
2.99959
2.99875
2.99758
2.99285
2.98582
2.95992
2.91266
2.77758
2.45644
1.78967
0.824446
0.409109
0.444093
0.461127
0.44735
0.420498
0.394828
0.380228
0.373016
0.372368
0.382327
3
2.99998
2.99995
2.99982
2.99964
2.99892
2.99789
2.99385
2.98749
2.96572
2.91998
2.80423
2.49487
1.90534
0.911945
0.471212
0.460874
0.473244
0.472083
0.454621
0.43889
0.43321
0.436265
0.451331
0.487391
3
2.99998
2.99996
2.99985
2.9997
2.9991
2.9982
2.99497
2.98906
2.97123
2.92877
2.8283
2.54149
2.00878
1.0288
0.54775
0.47784
0.490647
0.498371
0.490108
0.484484
0.488989
0.50934
0.555852
0.659329
3
2.99996
2.99991
2.99969
2.9994
2.99818
2.99645
2.98976
2.9786
2.94221
2.85923
2.66577
2.14942
1.32611
0.540629
0.251192
0.318458
0.337646
0.301824
0.244365
0.193028
0.153027
0.113698
0.0716721
0.0404952
3
2.99996
2.99991
2.9997
2.99941
2.99821
2.9965
2.98991
2.97894
2.94304
2.86151
2.67062
2.16215
1.34268
0.549299
0.252552
0.321174
0.341524
0.306639
0.25077
0.200959
0.162126
0.124254
0.0859161
0.0623927
3
2.99996
2.99991
2.99971
2.99942
2.99826
2.9966
2.9902
2.97961
2.94476
2.86624
2.68079
2.18988
1.38011
0.570362
0.259525
0.329782
0.352359
0.319182
0.266086
0.218807
0.182464
0.148307
0.11671
0.100226
3
2.99996
2.99991
2.99972
2.99944
2.99832
2.99672
2.99043
2.98053
2.9466
2.87438
2.69602
2.23488
1.4402
0.603787
0.272888
0.344469
0.370091
0.339159
0.289367
0.24498
0.211578
0.181463
0.155468
0.142901
3
2.99996
2.99992
2.99973
2.99947
2.9984
2.9969
2.99085
2.98173
2.94917
2.8846
2.7154
2.29153
1.52025
0.648338
0.295518
0.366311
0.39466
0.365817
0.319399
0.277432
0.246849
0.220687
0.19918
0.18934
3
2.99997
2.99992
2.99975
2.99951
2.99851
2.99711
2.99151
2.98305
2.95257
2.89513
2.73632
2.35581
1.61674
0.702886
0.329477
0.395897
0.423997
0.396248
0.353176
0.314322
0.287106
0.265372
0.248846
0.242139
3
2.99997
2.99993
2.99977
2.99955
2.99863
2.99734
2.99217
2.9844
2.95619
2.90411
2.75628
2.4101
1.70061
0.756265
0.36121
0.420726
0.446837
0.423596
0.387037
0.353801
0.332007
0.31608
0.305628
0.304725
3
2.99997
2.99994
2.99979
2.99959
2.99875
2.99758
2.99285
2.98582
2.95992
2.91266
2.77758
2.45644
1.78967
0.824445
0.409109
0.444093
0.461128
0.44735
0.420498
0.394828
0.380228
0.373016
0.372368
0.382327
3
2.99998
2.99995
2.99982
2.99964
2.99892
2.99789
2.99385
2.98749
2.96572
2.91998
2.80423
2.49487
1.90534
0.911945
0.471212
0.460875
0.473244
0.472084
0.454622
0.43889
0.43321
0.436265
0.451331
0.487391
3
2.99998
2.99996
2.99985
2.9997
2.9991
2.9982
2.99497
2.98906
2.97123
2.92877
2.8283
2.54149
2.00878
1.0288
0.547749
0.47784
0.490648
0.498371
0.490108
0.484484
0.488989
0.50934
0.555852
0.659329
3
2.99996
2.99991
2.99969
2.9994
2.99818
2.99645
2.98976
2.9786
2.94221
2.85923
2.66576
2.14942
1.32611
0.540628
0.251192
0.318458
0.337646
0.301823
0.244365
0.193028
0.153027
0.113698
0.0716721
0.0404952
3
2.99996
2.99991
2.9997
2.99941
2.99821
2.9965
2.98991
2.97894
2.94304
2.86151
2.67062
2.16214
1.34268
0.549299
0.252552
0.321174
0.341524
0.306638
0.25077
0.200959
0.162125
0.124254
0.0859161
0.0623927
3
2.99996
2.99991
2.99971
2.99942
2.99826
2.9966
2.9902
2.97961
2.94476
2.86624
2.68079
2.18988
1.38011
0.570361
0.259526
0.329783
0.352359
0.319182
0.266086
0.218807
0.182464
0.148307
0.11671
0.100226
3
2.99996
2.99991
2.99972
2.99944
2.99832
2.99672
2.99043
2.98053
2.9466
2.87438
2.69602
2.23488
1.44019
0.603787
0.272888
0.344469
0.370091
0.339158
0.289367
0.24498
0.211578
0.181463
0.155468
0.142901
3
2.99996
2.99992
2.99973
2.99947
2.9984
2.9969
2.99085
2.98173
2.94917
2.8846
2.7154
2.29153
1.52025
0.648337
0.295518
0.366311
0.39466
0.365816
0.319399
0.277432
0.246849
0.220686
0.19918
0.18934
3
2.99997
2.99992
2.99975
2.99951
2.99851
2.99711
2.99151
2.98305
2.95257
2.89513
2.73632
2.35581
1.61673
0.702885
0.329477
0.395897
0.423997
0.396248
0.353176
0.314322
0.287106
0.265372
0.248846
0.242139
3
2.99997
2.99993
2.99977
2.99955
2.99863
2.99734
2.99217
2.9844
2.95619
2.90411
2.75628
2.4101
1.70061
0.756265
0.36121
0.420726
0.446837
0.423597
0.387037
0.353801
0.332007
0.31608
0.305628
0.304725
3
2.99997
2.99994
2.99979
2.99959
2.99875
2.99758
2.99285
2.98582
2.95992
2.91266
2.77758
2.45644
1.78967
0.824445
0.409109
0.444093
0.461128
0.44735
0.420498
0.394828
0.380228
0.373016
0.372368
0.382327
3
2.99998
2.99995
2.99982
2.99964
2.99892
2.99789
2.99385
2.98749
2.96572
2.91998
2.80423
2.49486
1.90534
0.911944
0.471211
0.460875
0.473244
0.472084
0.454622
0.438891
0.43321
0.436265
0.451331
0.487391
3
2.99998
2.99996
2.99985
2.9997
2.9991
2.9982
2.99497
2.98906
2.97123
2.92877
2.8283
2.54149
2.00878
1.0288
0.547749
0.477841
0.490648
0.498372
0.490109
0.484484
0.48899
0.50934
0.555852
0.659329
3
2.99996
2.99991
2.99969
2.9994
2.99818
2.99645
2.98976
2.9786
2.94221
2.85923
2.66577
2.14942
1.32611
0.540629
0.251192
0.318458
0.337646
0.301824
0.244365
0.193028
0.153027
0.113698
0.0716721
0.0404953
3
2.99996
2.99991
2.9997
2.99941
2.99821
2.9965
2.98991
2.97894
2.94304
2.86151
2.67062
2.16215
1.34268
0.549299
0.252552
0.321174
0.341524
0.306639
0.25077
0.200959
0.162126
0.124254
0.0859161
0.0623927
3
2.99996
2.99991
2.99971
2.99942
2.99826
2.9966
2.9902
2.97961
2.94476
2.86624
2.68079
2.18988
1.38011
0.570362
0.259525
0.329782
0.352359
0.319182
0.266086
0.218807
0.182464
0.148307
0.11671
0.100226
3
2.99996
2.99991
2.99972
2.99944
2.99832
2.99672
2.99043
2.98053
2.9466
2.87438
2.69602
2.23488
1.4402
0.603787
0.272888
0.344469
0.370091
0.339159
0.289367
0.24498
0.211578
0.181463
0.155468
0.142901
3
2.99996
2.99992
2.99973
2.99947
2.9984
2.9969
2.99085
2.98173
2.94917
2.8846
2.7154
2.29153
1.52025
0.648338
0.295518
0.366311
0.39466
0.365817
0.319399
0.277432
0.246849
0.220687
0.19918
0.18934
3
2.99997
2.99992
2.99975
2.99951
2.99851
2.99711
2.99151
2.98305
2.95257
2.89513
2.73632
2.35581
1.61674
0.702886
0.329477
0.395897
0.423997
0.396248
0.353176
0.314322
0.287106
0.265372
0.248846
0.242139
3
2.99997
2.99993
2.99977
2.99955
2.99863
2.99734
2.99217
2.9844
2.95619
2.90411
2.75628
2.4101
1.70061
0.756265
0.36121
0.420726
0.446837
0.423597
0.387037
0.353801
0.332007
0.31608
0.305628
0.304725
3
2.99997
2.99994
2.99979
2.99959
2.99875
2.99758
2.99285
2.98582
2.95992
2.91266
2.77758
2.45644
1.78967
0.824445
0.409109
0.444093
0.461128
0.44735
0.420498
0.394828
0.380228
0.373016
0.372368
0.382327
3
2.99998
2.99995
2.99982
2.99964
2.99892
2.99789
2.99385
2.98749
2.96572
2.91998
2.80423
2.49487
1.90534
0.911945
0.471212
0.460875
0.473244
0.472084
0.454622
0.43889
0.43321
0.436265
0.451331
0.487391
3
2.99998
2.99996
2.99985
2.9997
2.9991
2.9982
2.99497
2.98906
2.97123
2.92877
2.8283
2.54149
2.00878
1.0288
0.547749
0.47784
0.490648
0.498371
0.490108
0.484484
0.488989
0.50934
0.555852
0.659329
3
2.99996
2.99991
2.99969
2.9994
2.99818
2.99645
2.98976
2.9786
2.94221
2.85923
2.66577
2.14942
1.32611
0.540629
0.251192
0.318458
0.337646
0.301824
0.244365
0.193028
0.153027
0.113698
0.0716721
0.0404952
3
2.99996
2.99991
2.9997
2.99941
2.99821
2.9965
2.98991
2.97894
2.94304
2.86151
2.67062
2.16215
1.34268
0.549299
0.252552
0.321174
0.341524
0.306639
0.25077
0.200959
0.162126
0.124254
0.0859161
0.0623927
3
2.99996
2.99991
2.99971
2.99942
2.99826
2.9966
2.9902
2.97961
2.94476
2.86624
2.68079
2.18988
1.38011
0.570362
0.259525
0.329782
0.352359
0.319182
0.266086
0.218807
0.182464
0.148307
0.11671
0.100226
3
2.99996
2.99991
2.99972
2.99944
2.99832
2.99672
2.99043
2.98053
2.9466
2.87438
2.69602
2.23488
1.4402
0.603787
0.272888
0.344469
0.370091
0.339159
0.289367
0.24498
0.211578
0.181463
0.155468
0.142901
3
2.99996
2.99992
2.99973
2.99947
2.9984
2.9969
2.99085
2.98173
2.94917
2.8846
2.7154
2.29153
1.52025
0.648338
0.295518
0.366311
0.39466
0.365817
0.319399
0.277432
0.246849
0.220687
0.19918
0.18934
3
2.99997
2.99992
2.99975
2.99951
2.99851
2.99711
2.99151
2.98305
2.95257
2.89513
2.73632
2.35581
1.61674
0.702886
0.329477
0.395897
0.423997
0.396248
0.353176
0.314322
0.287106
0.265372
0.248846
0.242139
3
2.99997
2.99993
2.99977
2.99955
2.99863
2.99734
2.99217
2.9844
2.95619
2.90411
2.75628
2.4101
1.70061
0.756265
0.36121
0.420726
0.446837
0.423596
0.387037
0.353801
0.332007
0.31608
0.305628
0.304725
3
2.99997
2.99994
2.99979
2.99959
2.99875
2.99758
2.99285
2.98582
2.95992
2.91266
2.77758
2.45644
1.78967
0.824445
0.409109
0.444093
0.461128
0.44735
0.420498
0.394828
0.380228
0.373016
0.372368
0.382327
3
2.99998
2.99995
2.99982
2.99964
2.99892
2.99789
2.99385
2.98749
2.96572
2.91998
2.80423
2.49487
1.90534
0.911945
0.471212
0.460875
0.473244
0.472084
0.454622
0.43889
0.43321
0.436265
0.451331
0.487391
3
2.99998
2.99996
2.99985
2.9997
2.9991
2.9982
2.99497
2.98906
2.97123
2.92877
2.8283
2.54149
2.00878
1.0288
0.547749
0.47784
0.490647
0.498371
0.490108
0.484484
0.488989
0.50934
0.555852
0.659329
3
2.99996
2.99991
2.99969
2.9994
2.99818
2.99645
2.98976
2.9786
2.94221
2.85923
2.66577
2.14942
1.32611
0.540629
0.251191
0.318458
0.337646
0.301824
0.244365
0.193028
0.153027
0.113698
0.0716722
0.0404953
3
2.99996
2.99991
2.9997
2.99941
2.99821
2.9965
2.98991
2.97894
2.94304
2.86151
2.67062
2.16215
1.34268
0.5493
0.252551
0.321174
0.341524
0.306639
0.25077
0.200959
0.162126
0.124254
0.0859162
0.0623928
3
2.99996
2.99991
2.99971
2.99942
2.99826
2.9966
2.9902
2.97961
2.94476
2.86624
2.68079
2.18988
1.38011
0.570362
0.259525
0.329782
0.35236
0.319182
0.266086
0.218807
0.182464
0.148307
0.11671
0.100227
3
2.99996
2.99991
2.99972
2.99944
2.99832
2.99672
2.99043
2.98053
2.9466
2.87438
2.69602
2.23488
1.4402
0.603788
0.272888
0.34447
0.370091
0.339159
0.289368
0.24498
0.211578
0.181463
0.155468
0.142901
3
2.99996
2.99992
2.99973
2.99947
2.9984
2.9969
2.99085
2.98173
2.94917
2.8846
2.7154
2.29153
1.52025
0.648338
0.295518
0.366311
0.39466
0.365817
0.319399
0.277432
0.246849
0.220687
0.19918
0.189341
3
2.99997
2.99992
2.99975
2.99951
2.99851
2.99711
2.99151
2.98305
2.95257
2.89513
2.73632
2.35581
1.61674
0.702887
0.329477
0.395898
0.423997
0.396248
0.353176
0.314322
0.287106
0.265372
0.248846
0.242139
3
2.99997
2.99993
2.99977
2.99955
2.99863
2.99734
2.99217
2.9844
2.95619
2.90411
2.75628
2.4101
1.70061
0.756265
0.36121
0.420726
0.446837
0.423596
0.387036
0.353801
0.332007
0.31608
0.305628
0.304725
3
2.99997
2.99994
2.99979
2.99959
2.99875
2.99758
2.99285
2.98582
2.95992
2.91266
2.77758
2.45644
1.78967
0.824446
0.409109
0.444093
0.461127
0.44735
0.420498
0.394828
0.380228
0.373016
0.372368
0.382327
3
2.99998
2.99995
2.99982
2.99964
2.99892
2.99789
2.99385
2.98749
2.96572
2.91998
2.80423
2.49487
1.90534
0.911945
0.471212
0.460874
0.473244
0.472083
0.454621
0.43889
0.43321
0.436265
0.451331
0.487391
3
2.99998
2.99996
2.99985
2.9997
2.9991
2.9982
2.99497
2.98906
2.97123
2.92877
2.8283
2.54149
2.00878
1.0288
0.54775
0.47784
0.490647
0.498371
0.490108
0.484484
0.488989
0.50934
0.555852
0.659329
3
2.99996
2.99991
2.99969
2.9994
2.99818
2.99645
2.98976
2.9786
2.94221
2.85923
2.66577
2.14943
1.32612
0.54063
0.25119
0.318457
0.337646
0.301823
0.244365
0.193028
0.153027
0.113698
0.0716723
0.0404951
3
2.99996
2.99991
2.9997
2.99941
2.99821
2.9965
2.98991
2.97894
2.94304
2.86151
2.67062
2.16215
1.34269
0.549301
0.25255
0.321174
0.341524
0.306639
0.25077
0.200959
0.162126
0.124254
0.0859164
0.0623927
3
2.99996
2.99991
2.99971
2.99942
2.99826
2.9966
2.9902
2.97961
2.94476
2.86624
2.68079
2.18988
1.38012
0.570364
0.259524
0.329782
0.35236
0.319182
0.266087
0.218807
0.182465
0.148307
0.116711
0.100227
3
2.99996
2.99991
2.99972
2.99944
2.99832
2.99672
2.99043
2.98053
2.9466
2.87438
2.69602
2.23489
1.4402
0.60379
0.272887
0.34447
0.370091
0.339159
0.289368
0.244981
0.211578
0.181463
0.155468
0.142901
3
2.99996
2.99992
2.99973
2.99947
2.9984
2.9969
2.99085
2.98173
2.94917
2.8846
2.7154
2.29154
1.52026
0.648341
0.295517
0.366312
0.394661
0.365817
0.319399
0.277432
0.246849
0.220687
0.199181
0.189341
3
2.99997
2.99992
2.99975
2.99951
2.99851
2.99711
2.99151
2.98305
2.95257
2.89513
2.73632
2.35582
1.61674
0.702889
0.329477
0.395898
0.423998
0.396248
0.353176
0.314322
0.287107
0.265372
0.248846
0.242139
3
2.99997
2.99993
2.99977
2.99955
2.99863
2.99734
2.99217
2.98441
2.95619
2.90411
2.75628
2.4101
1.70061
0.756266
0.36121
0.420726
0.446836
0.423596
0.387036
0.353801
0.332007
0.31608
0.305628
0.304726
3
2.99997
2.99994
2.99979
2.99959
2.99875
2.99758
2.99285
2.98582
2.95992
2.91266
2.77758
2.45645
1.78967
0.824448
0.40911
0.444092
0.461126
0.447349
0.420497
0.394827
0.380228
0.373016
0.372368
0.382327
3
2.99998
2.99995
2.99982
2.99964
2.99892
2.99789
2.99385
2.9875
2.96572
2.91998
2.80423
2.49487
1.90535
0.911948
0.471213
0.460873
0.473243
0.472083
0.454621
0.43889
0.43321
0.436265
0.451331
0.487392
3
2.99998
2.99996
2.99985
2.9997
2.9991
2.9982
2.99497
2.98906
2.97123
2.92877
2.8283
2.54149
2.00878
1.02881
0.547751
0.477839
0.490646
0.49837
0.490108
0.484484
0.488989
0.50934
0.555852
0.65933
3.00002
2.99998
2.99992
2.99971
2.99942
2.99821
2.99647
2.98979
2.97863
2.94225
2.85927
2.66584
2.14951
1.32627
0.540765
0.251409
0.318647
0.33783
0.302027
0.244622
0.193367
0.153466
0.114299
0.0726336
0.042204
3.00002
2.99998
2.99993
2.99972
2.99942
2.99823
2.99652
2.98993
2.97896
2.94307
2.86155
2.6707
2.16224
1.34284
0.549434
0.252766
0.32136
0.341704
0.306839
0.251021
0.201283
0.162536
0.124797
0.0867101
0.0635023
3.00002
2.99998
2.99993
2.99972
2.99944
2.99828
2.99662
2.99022
2.97964
2.94479
2.86628
2.68087
2.18997
1.38027
0.570482
0.259727
0.32996
0.352533
0.319376
0.266324
0.219104
0.182826
0.148758
0.11729
0.100915
3.00002
2.99998
2.99993
2.99973
2.99946
2.99834
2.99675
2.99045
2.98056
2.94664
2.8744
2.69609
2.23495
1.44035
0.603908
0.273088
0.344644
0.37026
0.339346
0.28959
0.245246
0.211887
0.181827
0.1559
0.143382
3.00002
2.99998
2.99994
2.99975
2.99949
2.99842
2.99692
2.99088
2.98175
2.94921
2.88462
2.71547
2.29161
1.52043
0.648468
0.295719
0.366485
0.394827
0.365995
0.319602
0.277664
0.247109
0.220982
0.199515
0.189702
3.00002
2.99998
2.99994
2.99977
2.99953
2.99853
2.99713
2.99153
2.98308
2.9526
2.89516
2.73638
2.35592
1.61691
0.703019
0.329664
0.396056
0.424143
0.396402
0.353349
0.314518
0.287324
0.265613
0.24911
0.24242
3.00002
2.99999
2.99995
2.99979
2.99956
2.99865
2.99736
2.99219
2.98443
2.95622
2.90414
2.75634
2.41017
1.70075
0.756359
0.361367
0.420861
0.446956
0.423724
0.387182
0.353966
0.332187
0.316276
0.305839
0.304946
3.00002
2.99999
2.99996
2.99981
2.99961
2.99877
2.9976
2.99287
2.98584
2.95995
2.91269
2.77764
2.45649
1.78981
0.824559
0.409273
0.444208
0.461221
0.44746
0.420622
0.394966
0.380376
0.373174
0.372535
0.382498
3.00002
3
2.99996
2.99984
2.99966
2.99894
2.99791
2.99387
2.98752
2.96576
2.92
2.80428
2.49489
1.90544
0.912048
0.471349
0.460969
0.473333
0.472181
0.454729
0.439007
0.433332
0.436393
0.451463
0.487519
3.00002
3
2.99997
2.99987
2.99972
2.99912
2.99822
2.99499
2.98909
2.97126
2.9288
2.82835
2.54154
2.00888
1.02892
0.547879
0.477934
0.490737
0.498462
0.490205
0.484583
0.48909
0.509442
0.55595
0.659415
3.00002
3.00001
2.99997
2.99991
2.99968
2.99935
2.99806
2.99606
2.98905
2.97559
2.93658
2.84003
2.62887
2.05919
1.21245
0.63857
0.502513
0.515718
0.529469
0.528875
0.531371
0.547768
0.589999
0.679231
0.86235
3.00002
3.00001
2.99997
2.99992
2.99972
2.99943
2.99825
2.99657
2.99004
2.97938
2.9441
2.86529
2.6789
2.19177
1.39124
0.734857
0.531668
0.54667
0.564012
0.569888
0.579775
0.60797
0.667509
0.776941
0.971438
3.00002
3.00001
2.99998
2.99994
2.99976
2.99951
2.99849
2.99706
2.99131
2.98264
2.95144
2.89213
2.73076
2.33976
1.60252
0.84802
0.578615
0.590224
0.604763
0.614538
0.629072
0.663925
0.730893
0.838884
1.00684
3.00002
3.00001
2.99999
2.99995
2.99981
2.9996
2.99876
2.99758
2.99283
2.98579
2.95985
2.91358
2.7774
2.47485
1.81488
0.969344
0.639128
0.637299
0.649049
0.663797
0.681125
0.717044
0.781321
0.877327
1.01878
3.00002
3.00002
3
2.99997
2.99986
2.9997
2.99906
2.99813
2.99468
2.98877
2.96997
2.92775
2.82552
2.54932
2.01361
1.11128
0.715678
0.674032
0.686852
0.703997
0.726638
0.762904
0.823965
0.9074
1.02456
3.00002
3.00002
3.00001
2.99997
2.99991
2.9997
2.99938
2.99816
2.99629
2.98971
2.97745
2.94129
2.8537
2.65926
2.14058
1.33868
0.827106
0.710307
0.720425
0.738388
0.765262
0.801431
0.857596
0.932917
1.0316
3.00002
3.00002
3.00001
2.99998
2.99994
2.99975
2.9995
2.99846
2.997
2.99114
2.98231
2.9508
2.88973
2.72817
2.33096
1.60195
0.954929
0.75382
0.753019
0.770164
0.800626
0.836493
0.886944
0.954825
1.03972
3.00002
3.00002
3.00001
2.99999
2.99996
2.99982
2.99962
2.99883
2.99769
2.99324
2.98643
2.96216
2.91829
2.78815
2.51344
1.86773
1.12181
0.823208
0.797044
0.808817
0.834801
0.870545
0.915613
0.975193
1.04933
3.00003
3.00002
3.00002
3.00001
2.99996
2.9999
2.99966
2.99931
2.99796
2.99591
2.98865
2.97546
2.93622
2.84223
2.63826
2.09851
1.31766
0.906489
0.83615
0.845199
0.867516
0.901324
0.942283
0.994819
1.05938
3.00003
3.00002
3.00002
3.00001
2.99998
2.99993
2.99974
2.99947
2.9984
2.99685
2.99079
2.98149
2.94903
2.88483
2.71738
2.31246
1.5693
1.03489
0.88134
0.879425
0.896549
0.928151
0.967292
1.01423
1.07125
3.00003
3.00003
3.00002
3.00001
3
2.99994
2.99986
2.99955
2.99909
2.99733
2.99466
2.98515
2.96816
2.91778
2.79929
2.53783
1.9557
1.22264
0.952625
0.923279
0.931955
0.957044
0.993541
1.03416
1.08365
3.00003
3.00003
3.00002
3.00002
3.00001
2.99997
2.99991
2.99968
2.99936
2.99809
2.99621
2.98936
2.97743
2.94076
2.85562
2.66537
2.16492
1.42487
1.03317
0.96092
0.966106
0.986819
1.01975
1.05754
1.0998
3.00003
3.00003
3.00003
3.00002
3.00001
2.99999
2.99993
2.99983
2.99947
2.99892
2.99692
2.99355
2.98281
2.95976
2.90053
2.74495
2.4333
1.72056
1.18476
1.01238
1.00142
1.01488
1.04265
1.07922
1.11855
3.00003
3.00003
3.00003
3.00002
3.00002
3
2.99996
2.99989
2.99962
2.99923
2.9977
2.9955
2.98708
2.97361
2.9294
2.83493
2.61248
2.09055
1.38297
1.08752
1.04115
1.0471
1.06886
1.10115
1.13865
3.00003
3.00003
3.00003
3.00003
3.00002
3.00001
2.99999
2.99991
2.9998
2.99938
2.99876
2.99645
2.99269
2.98036
2.95508
2.88812
2.71756
2.37417
1.64646
1.21719
1.08688
1.07969
1.09141
1.11905
1.15538
3.00003
3.00003
3.00003
3.00003
3.00002
3.00001
3
2.99995
2.99987
2.99958
2.99915
2.99748
2.99507
2.98588
2.97135
2.92376
2.82661
2.58441
2.06924
1.40408
1.15774
1.12104
1.12397
1.14322
1.17361
3.00003
3.00003
3.00003
3.00003
3.00003
3.00002
3.00001
2.99999
2.9999
2.99979
2.99933
2.99866
2.99614
2.99223
2.97879
2.95367
2.8831
2.71323
2.35453
1.65245
1.26866
1.16168
1.15415
1.16388
1.18786
3.00003
3.00003
3.00003
3.00003
3.00003
3.00002
3.00001
3
2.99995
2.99987
2.99957
2.99913
2.99745
2.99499
2.98584
2.97108
2.92354
2.82899
2.58578
2.08942
1.45446
1.2268
1.19417
1.19431
1.21066
3.00003
3.00003
3.00003
3.00003
3.00003
3.00003
3.00002
3.00001
2.99999
2.99991
2.99978
2.99934
2.99866
2.99617
2.99228
2.97883
2.95451
2.88542
2.72599
2.36705
1.71852
1.33294
1.23195
1.22391
1.23264
3.00003
3.00003
3.00003
3.00003
3.00003
3.00003
3.00002
3.00002
3
2.99996
2.99984
2.99966
2.99899
2.99797
2.99427
2.98834
2.9687
2.93211
2.82879
2.61372
2.0924
1.5226
1.2944
1.25877
1.25916
3.00003
3.00003
3.00003
3.00003
3.00003
3.00003
3.00003
3.00002
3.00001
2.99999
2.99991
2.9998
2.99936
2.99873
2.99633
2.99277
2.97983
2.95805
2.89226
2.75052
2.41836
1.80254
1.40973
1.29907
1.28788
3.00003
3.00003
3.00003
3.00003
3.00003
3.00003
3.00003
3.00002
3.00002
3
2.99997
2.99986
2.99969
2.99908
2.99815
2.99481
2.9894
2.97163
2.93907
2.8442
2.65613
2.1666
1.61616
1.37258
1.32517
3.00003
3.00003
3.00003
3.00003
3.00003
3.00003
3.00003
3.00003
3.00002
3.00001
2.99999
2.99992
2.99982
2.99944
2.99889
2.99676
2.99368
2.98222
2.96385
2.90616
2.78487
2.50398
1.92594
1.51521
1.37427
3.00003
3.00003
3.00003
3.00003
3.00003
3.00003
3.00003
3.00003
3.00003
3.00002
3.00001
2.99997
2.99991
2.99968
2.99935
2.99808
2.99627
2.9894
2.97893
2.94373
2.87495
2.70708
2.30534
1.73313
1.46179
3.00003
3.00003
3.00003
3.00003
3.00003
3.00003
3.00003
3.00003
3.00003
3.00002
3.00002
2.99999
2.99996
2.99982
2.99963
2.9989
2.99784
2.99387
2.98781
2.96709
2.92948
2.82606
2.59995
2.09739
1.63404
3.00003
3.00003
3.00003
3.00003
3.00003
3.00003
3.00003
3.00003
3.00003
3.00003
3.00002
3.00001
2.99998
2.99993
2.99976
2.99949
2.99854
2.99707
2.992
2.9832
2.95688
2.89827
2.76635
2.42576
1.87235
3.00003
3.00003
3.00003
3.00003
3.00003
3.00003
3.00003
3.00003
3.00003
3.00003
3.00002
3.00002
3.00001
2.99996
2.9999
2.99966
2.9993
2.99801
2.99601
2.9891
2.97731
2.94173
2.86509
2.6895
2.28685
3.00003
3.00003
3.00003
3.00003
3.00003
3.00003
3.00003
3.00003
3.00003
3.00003
3.00003
3.00002
3.00001
3
2.99994
2.99985
2.99953
2.99906
2.99733
2.99468
2.9855
2.96975
2.92286
2.8201
2.59558
3.00003
3.00003
3.00003
3.00003
3.00003
3.00003
3.00003
3.00003
3.00003
3.00003
3.00003
3.00003
3.00002
3.00001
2.99998
2.99993
2.99975
2.99948
2.99848
2.99703
2.9917
2.98326
2.95613
2.89961
2.76986
3.00003
3.00003
3.00003
3.00003
3.00003
3.00003
3.00003
3.00003
3.00003
3.00003
3.00003
3.00003
3.00002
3.00002
3.00001
2.99996
2.9999
2.99967
2.99932
2.99806
2.99613
2.98941
2.97816
2.94398
2.8733
3.00003
3.00003
3.00003
3.00003
3.00003
3.00003
3.00003
3.00003
3.00003
3.00003
3.00003
3.00003
3.00003
3.00002
3.00001
3
2.99994
2.99986
2.99957
2.99912
2.99753
2.99507
2.98665
2.97228
2.93029
3.00003
3.00003
3.00003
3.00003
3.00003
3.00003
3.00003
3.00003
3.00003
3.00003
3.00003
3.00003
3.00003
3.00003
3.00002
3.00001
2.99999
2.99992
2.99981
2.99944
2.99886
2.99684
2.9936
2.98312
2.96364
3.00003
3.00003
3.00003
3.00003
3.00003
3.00003
3.00003
3.00003
3.00003
3.00003
3.00003
3.00003
3.00003
3.00003
3.00003
3.00002
3.00001
2.99997
2.99991
2.9997
2.9994
2.99827
2.99662
2.99063
2.9813
3.00003
3.00003
3.00003
3.00003
3.00003
3.00003
3.00003
3.00003
3.00003
3.00003
3.00003
3.00003
3.00003
3.00003
3.00003
3.00002
3.00002
3
2.99996
2.99989
2.99964
2.99926
2.99796
2.99588
2.98908
3.00003
3.00003
3.00003
3.00003
3.00003
3.00003
3.00003
3.00003
3.00003
3.00003
3.00003
3.00003
3.00003
3.00003
3.00003
3.00003
3.00002
3.00001
3
2.99994
2.99986
2.99956
2.99909
2.99749
2.99497
3.00003
3.00003
3.00003
3.00003
3.00003
3.00003
3.00003
3.00003
3.00003
3.00003
3.00003
3.00003
3.00003
3.00003
3.00003
3.00003
3.00003
3.00002
3.00001
2.99999
2.99992
2.99982
2.99945
2.99889
2.99695
3.00003
3.00003
3.00003
3.00003
3.00003
3.00003
3.00003
3.00003
3.00003
3.00003
3.00003
3.00003
3.00003
3.00003
3.00003
3.00003
3.00003
3.00002
3.00002
3
2.99998
2.9999
2.99977
2.99932
2.99864
3.00003
3.00003
3.00003
3.00003
3.00003
3.00003
3.00003
3.00003
3.00003
3.00003
3.00003
3.00003
3.00003
3.00003
3.00003
3.00003
3.00003
3.00003
3.00002
3.00002
3
2.99996
2.99989
2.99965
2.99929
3.00003
3.00003
3.00003
3.00003
3.00003
3.00003
3.00003
3.00003
3.00003
3.00003
3.00003
3.00003
3.00003
3.00003
3.00003
3.00003
3.00003
3.00003
3.00003
3.00002
3.00001
2.99999
2.99993
2.99984
2.9995
3.00003
3.00003
3.00003
3.00003
3.00003
3.00003
3.00003
3.00003
3.00003
3.00003
3.00003
3.00003
3.00003
3.00003
3.00003
3.00003
3.00003
3.00003
3.00003
3.00002
3.00002
3
2.99995
2.99988
2.99961
3
2.99999
2.99995
2.99989
2.99966
2.99933
2.99804
2.99603
2.98902
2.97557
2.93654
2.84
2.62879
2.05912
1.21232
0.638456
0.502419
0.515628
0.52938
0.528785
0.531282
0.547682
0.589917
0.679159
0.862301
3
2.99999
2.99996
2.9999
2.9997
2.99941
2.99823
2.99654
2.99001
2.97935
2.94405
2.86527
2.67883
2.19173
1.39112
0.734761
0.531577
0.54658
0.563925
0.569804
0.579696
0.607896
0.667442
0.776884
0.971399
3
2.99999
2.99996
2.99992
2.99974
2.99949
2.99847
2.99704
2.99129
2.98262
2.95141
2.8921
2.7307
2.33968
1.60239
0.84793
0.578522
0.590133
0.604675
0.614455
0.628995
0.663857
0.730834
0.838836
1.0068
3
3
2.99997
2.99993
2.99979
2.99958
2.99874
2.99756
2.99281
2.98576
2.95982
2.91355
2.77735
2.4748
1.81476
0.96928
0.639052
0.637223
0.64897
0.66372
0.681053
0.71698
0.781267
0.877282
1.01875
3
3
2.99998
2.99995
2.99984
2.99968
2.99904
2.99811
2.99465
2.98874
2.96994
2.92773
2.82547