/*--------------------------------*- C++ -*----------------------------------*\
| =========                 |                                                 |
| \\      /  F ield         | OpenFOAM: The Open Source CFD Toolbox           |
|  \\    /   O peration     | Version:  4.1                                   |
|   \\  /    A nd           | Web:      www.OpenFOAM.org                      |
|    \\/     M anipulation  |                                                 |
\*---------------------------------------------------------------------------*/
FoamFile
{
    version     2.0;
    format      ascii;
    class       volScalarField;
    location    "0.84";
    object      Ma;
}
// * * * * * * * * * * * * * * * * * * * * * * * * * * * * * * * * * * * * * //

dimensions      [0 0 0 0 0 0 0];

internalField   nonuniform List<scalar> 
52500
(
6.48084
1.16109
0.303966
0.269755
0.358469
0.381731
0.375094
0.382672
0.405383
0.426997
0.432062
0.437077
0.457416
0.463644
0.454428
0.434241
0.399616
0.366691
0.344012
0.326844
0.301233
0.259013
0.206504
0.118018
0.0478568
6.44894
1.17018
0.312793
0.267904
0.35613
0.381778
0.376072
0.383661
0.406067
0.427165
0.431973
0.437197
0.457917
0.464979
0.456529
0.437102
0.403211
0.370506
0.348027
0.331125
0.30589
0.264009
0.211896
0.125935
0.0649745
6.30876
1.18778
0.330575
0.264689
0.352974
0.384301
0.380542
0.388511
0.410844
0.431389
0.43591
0.440797
0.461463
0.469494
0.461738
0.443163
0.410511
0.378343
0.356686
0.340671
0.316752
0.276228
0.225958
0.146554
0.098036
6.09772
1.21893
0.358289
0.257142
0.349596
0.389371
0.387622
0.395882
0.417828
0.437357
0.441574
0.445551
0.46593
0.475554
0.468912
0.451658
0.421012
0.389823
0.369353
0.354529
0.332491
0.293994
0.246269
0.174088
0.134376
5.88374
1.27527
0.395524
0.24435
0.350657
0.397284
0.396845
0.405521
0.426711
0.444867
0.448802
0.451695
0.47126
0.483137
0.478022
0.462515
0.434545
0.404535
0.385383
0.371909
0.352411
0.316701
0.272179
0.207386
0.174473
5.63203
1.35836
0.440597
0.230353
0.355467
0.407842
0.408475
0.417275
0.437245
0.453751
0.457556
0.459147
0.47733
0.491936
0.488702
0.475414
0.450727
0.422231
0.404584
0.392754
0.376523
0.344437
0.304158
0.247166
0.220789
5.3655
1.47072
0.495164
0.221295
0.362819
0.420961
0.422527
0.430857
0.449026
0.46373
0.467602
0.467926
0.484276
0.501645
0.500836
0.490215
0.46942
0.442672
0.426623
0.416912
0.404479
0.377525
0.342891
0.294972
0.276895
5.09861
1.61483
0.560579
0.222193
0.373443
0.436161
0.438584
0.445928
0.461737
0.474592
0.478655
0.477726
0.491914
0.512068
0.514408
0.50673
0.490057
0.465392
0.451142
0.444144
0.436637
0.41626
0.389783
0.35362
0.348817
4.82616
1.79018
0.637771
0.235451
0.387612
0.45235
0.455674
0.461787
0.47496
0.486075
0.490324
0.488372
0.500282
0.522978
0.52925
0.524718
0.511964
0.490437
0.477968
0.474121
0.472684
0.460561
0.446294
0.427611
0.446624
4.5486
1.99135
0.720806
0.254552
0.401825
0.467161
0.472015
0.477478
0.488203
0.497816
0.50205
0.499747
0.509687
0.534505
0.54519
0.543621
0.534572
0.517417
0.506849
0.506577
0.510972
0.511011
0.514291
0.526235
0.613142
6.48204
1.16111
0.303884
0.269712
0.358428
0.381661
0.374998
0.382558
0.405249
0.426843
0.431892
0.436934
0.457295
0.463555
0.454368
0.434196
0.399569
0.366623
0.343933
0.326762
0.301162
0.258955
0.206439
0.117883
0.0473729
6.4489
1.17015
0.312686
0.267895
0.356125
0.38178
0.376078
0.383694
0.40614
0.427288
0.432162
0.437353
0.458071
0.465181
0.456699
0.437215
0.403269
0.370489
0.347975
0.331056
0.305827
0.263955
0.211831
0.125803
0.0646147
6.30903
1.18776
0.330477
0.264659
0.35295
0.384289
0.380536
0.388526
0.410883
0.431459
0.436028
0.440846
0.4615
0.469573
0.461802
0.443196
0.410509
0.378291
0.356617
0.340601
0.31669
0.276173
0.225894
0.146438
0.0977945
6.09852
1.21892
0.358217
0.257114
0.349553
0.389327
0.387581
0.395846
0.417802
0.437341
0.441561
0.445483
0.465847
0.475492
0.46884
0.451558
0.420881
0.389704
0.36925
0.354449
0.332421
0.293932
0.246204
0.173984
0.134194
5.88415
1.27523
0.395466
0.244318
0.350597
0.39722
0.396776
0.405447
0.426637
0.444795
0.448696
0.451579
0.471171
0.482995
0.477856
0.462322
0.434314
0.404333
0.38523
0.371803
0.352327
0.316631
0.272111
0.20729
0.174323
5.63244
1.35833
0.440559
0.230312
0.355404
0.407776
0.408399
0.417185
0.437147
0.453645
0.457393
0.458978
0.477206
0.491747
0.48848
0.475162
0.450451
0.421997
0.40441
0.392626
0.376427
0.344358
0.304084
0.247074
0.220656
5.36572
1.4707
0.495138
0.221242
0.362757
0.420899
0.422453
0.430767
0.448926
0.463619
0.467424
0.467763
0.484191
0.501462
0.500581
0.489923
0.46908
0.442413
0.42644
0.41678
0.404383
0.377442
0.342813
0.294882
0.276777
5.0988
1.61483
0.560572
0.222138
0.373384
0.436106
0.438516
0.445847
0.461649
0.474493
0.47849
0.477589
0.491898
0.511937
0.514162
0.506439
0.48971
0.465125
0.450956
0.44401
0.436547
0.416175
0.389703
0.353535
0.348715
4.82631
1.79021
0.637785
0.235403
0.38756
0.452302
0.455615
0.461717
0.474888
0.485993
0.490193
0.488268
0.500299
0.522899
0.529043
0.524463
0.511672
0.490173
0.477793
0.47399
0.4726
0.460474
0.446215
0.427533
0.446537
4.54865
1.99142
0.720838
0.254508
0.401779
0.46712
0.471964
0.477419
0.48815
0.497758
0.501963
0.499673
0.509714
0.534464
0.545036
0.54342
0.53434
0.517199
0.506698
0.506459
0.510892
0.510927
0.514212
0.526163
0.613071
6.4813
1.16115
0.303924
0.269687
0.358408
0.381673
0.375026
0.382586
0.405275
0.426864
0.431889
0.436927
0.457259
0.463431
0.454206
0.43402
0.399405
0.366533
0.343897
0.326763
0.301165
0.258949
0.20642
0.117845
0.047351
6.4491
1.17022
0.312747
0.267843
0.356077
0.381738
0.376032
0.383617
0.406021
0.427119
0.431919
0.437154
0.457862
0.464884
0.456414
0.43697
0.40307
0.370392
0.347937
0.331058
0.305828
0.263947
0.211811
0.125766
0.0645971
6.3089
1.18783
0.330537
0.264624
0.352917
0.384262
0.380506
0.388477
0.410814
0.431363
0.435893
0.440778
0.461428
0.469438
0.461665
0.443071
0.410405
0.378243
0.356605
0.340609
0.316696
0.276169
0.225877
0.146405
0.09778
6.09804
1.21899
0.358268
0.257075
0.349536
0.389328
0.387583
0.395846
0.417798
0.437331
0.44156
0.445518
0.465881
0.475507
0.468853
0.451579
0.420917
0.389747
0.369291
0.354483
0.332444
0.293939
0.246193
0.173957
0.134181
5.88393
1.27535
0.395516
0.244277
0.350597
0.397238
0.396802
0.405481
0.42668
0.444845
0.44879
0.45168
0.471242
0.483105
0.477975
0.462451
0.434463
0.404457
0.385321
0.371863
0.352366
0.316649
0.272108
0.20727
0.174312
5.63222
1.35846
0.440605
0.230278
0.355409
0.407798
0.408432
0.417233
0.437209
0.453721
0.45754
0.45911
0.477261
0.491894
0.488662
0.47536
0.45067
0.422159
0.404523
0.392702
0.376477
0.344385
0.304089
0.247062
0.220652
5.3656
1.47084
0.495188
0.221219
0.362762
0.42092
0.422485
0.430815
0.448987
0.463696
0.467581
0.467888
0.4842
0.501595
0.500789
0.490154
0.469358
0.442605
0.426565
0.41686
0.404433
0.377475
0.342826
0.294878
0.27678
5.09869
1.61498
0.560622
0.222125
0.37339
0.436124
0.438544
0.445886
0.461697
0.474554
0.47862
0.477686
0.491877
0.512028
0.514353
0.506664
0.489975
0.465315
0.451079
0.444092
0.436595
0.416212
0.389722
0.353538
0.348724
4.82622
1.79036
0.637836
0.235397
0.387565
0.452316
0.455635
0.461745
0.47492
0.486034
0.490277
0.488321
0.500259
0.522952
0.529195
0.52465
0.511885
0.490353
0.477903
0.474067
0.472644
0.460513
0.446239
0.427543
0.446551
4.54857
1.99154
0.720883
0.254505
0.401781
0.467127
0.471977
0.477436
0.488164
0.497774
0.502001
0.49969
0.509674
0.534492
0.545141
0.543557
0.534498
0.517337
0.506785
0.506524
0.510934
0.510966
0.51424
0.526181
0.613089
6.48146
1.16118
0.303947
0.26969
0.358403
0.381669
0.37502
0.382577
0.405263
0.426848
0.43187
0.436907
0.457236
0.463404
0.454176
0.433988
0.399372
0.366511
0.343887
0.326763
0.30117
0.25896
0.206434
0.117861
0.0473573
6.44918
1.17026
0.312769
0.267848
0.356074
0.381738
0.376031
0.383616
0.40602
0.427118
0.431919
0.437149
0.457855
0.464874
0.456398
0.436946
0.403042
0.370371
0.347928
0.331057
0.305833
0.263957
0.211823
0.125779
0.0645997
6.30899
1.18787
0.330559
0.264627
0.352913
0.384262
0.380505
0.388477
0.410814
0.431365
0.435899
0.44078
0.461428
0.469433
0.461654
0.443051
0.41038
0.378229
0.3566
0.340612
0.316702
0.276178
0.225888
0.146415
0.0977796
6.0981
1.21903
0.358292
0.257077
0.349533
0.389328
0.387582
0.395844
0.417795
0.437329
0.441561
0.445506
0.465857
0.475486
0.468824
0.451541
0.420878
0.389714
0.369273
0.354477
0.332444
0.293944
0.2462
0.173962
0.134177
5.88396
1.2754
0.395542
0.244278
0.350597
0.397237
0.396798
0.405475
0.426671
0.444834
0.448773
0.451648
0.4712
0.483059
0.477922
0.462388
0.434396
0.404398
0.385286
0.371845
0.35236
0.31665
0.272111
0.207271
0.174304
5.63223
1.35851
0.440633
0.230279
0.355409
0.407797
0.408427
0.417223
0.437194
0.453702
0.457498
0.459064
0.477233
0.491832
0.48858
0.475269
0.45058
0.422097
0.404486
0.392681
0.376468
0.344382
0.304088
0.247058
0.220639
5.36557
1.47091
0.495219
0.221222
0.362764
0.420919
0.42248
0.430803
0.448969
0.463672
0.467525
0.467838
0.484196
0.501536
0.500692
0.490049
0.469234
0.44253
0.426525
0.416843
0.404428
0.377471
0.342822
0.294871
0.276764
5.09863
1.61505
0.560657
0.222132
0.373394
0.436125
0.43854
0.445876
0.461681
0.474532
0.478571
0.477646
0.491883
0.511984
0.514265
0.506568
0.489865
0.465246
0.451043
0.444077
0.436594
0.416208
0.389717
0.353528
0.348708
4.82613
1.79044
0.637873
0.235408
0.387571
0.45232
0.455635
0.461739
0.474909
0.48602
0.490246
0.488299
0.500265
0.522917
0.529129
0.52458
0.511811
0.4903
0.477879
0.474058
0.472645
0.460509
0.446233
0.427532
0.446535
4.54845
1.99162
0.720916
0.254515
0.401787
0.467132
0.47198
0.477435
0.488161
0.49777
0.501988
0.499685
0.509672
0.534459
0.545098
0.543514
0.534457
0.517317
0.506778
0.506523
0.510935
0.510963
0.514233
0.52617
0.613075
6.48061
1.16128
0.304034
0.269638
0.358359
0.381665
0.375035
0.382594
0.405278
0.426858
0.431874
0.436904
0.457233
0.463407
0.454185
0.434002
0.399394
0.366536
0.343911
0.326783
0.301181
0.258957
0.206423
0.117838
0.0473393
6.44842
1.17036
0.312859
0.267794
0.35603
0.381733
0.376043
0.38363
0.406031
0.427122
0.431916
0.43714
0.457846
0.46487
0.456399
0.436954
0.403058
0.370392
0.347949
0.331076
0.305845
0.263956
0.211815
0.125763
0.0645905
6.30828
1.18798
0.33065
0.264566
0.352873
0.384259
0.380517
0.38849
0.410824
0.431368
0.435893
0.440769
0.461418
0.469427
0.461653
0.443056
0.410395
0.378248
0.356619
0.340628
0.316711
0.276177
0.22588
0.146402
0.0977765
6.09735
1.21916
0.358379
0.257002
0.349503
0.389333
0.387594
0.395858
0.417806
0.437333
0.441557
0.445503
0.46586
0.475483
0.468822
0.451544
0.420888
0.389728
0.369287
0.354488
0.33245
0.293941
0.246192
0.173953
0.134179
5.88342
1.27557
0.395624
0.244197
0.350588
0.397246
0.396812
0.40549
0.426681
0.444835
0.448771
0.451631
0.471167
0.483049
0.477922
0.462393
0.434411
0.404413
0.385297
0.371853
0.352363
0.316646
0.272105
0.207266
0.17431
5.63171
1.35872
0.440707
0.230207
0.355407
0.407808
0.408441
0.417238
0.437206
0.453708
0.457498
0.459065
0.477239
0.491828
0.488577
0.475271
0.450588
0.422107
0.404494
0.392687
0.376468
0.344379
0.304084
0.247057
0.220647
5.36516
1.47114
0.495294
0.221167
0.362764
0.420931
0.422494
0.430817
0.448981
0.46368
0.467525
0.467839
0.484217
0.50154
0.50069
0.490052
0.469237
0.442536
0.426531
0.416847
0.404429
0.377468
0.342819
0.294871
0.27677
5.09825
1.61529
0.560729
0.222094
0.373397
0.436136
0.438555
0.44589
0.461693
0.474543
0.478578
0.477646
0.49188
0.511986
0.514268
0.506573
0.489873
0.465254
0.451051
0.444083
0.436596
0.416209
0.389716
0.353529
0.348711
4.82579
1.79068
0.63794
0.235381
0.387573
0.452327
0.455648
0.461752
0.47492
0.486032
0.490262
0.488312
0.500258
0.522913
0.529137
0.524591
0.511823
0.490314
0.47789
0.474066
0.47265
0.460514
0.446234
0.427533
0.446535
4.54812
1.9918
0.720962
0.254492
0.401783
0.467132
0.471988
0.477446
0.488169
0.497781
0.502007
0.499709
0.509662
0.534447
0.545108
0.543531
0.534475
0.517338
0.506792
0.506536
0.510943
0.510969
0.514237
0.52617
0.613073
6.4809
1.16127
0.304019
0.269655
0.358371
0.381667
0.375032
0.382588
0.405269
0.426848
0.431862
0.436897
0.457226
0.463393
0.454169
0.433984
0.399372
0.366517
0.343896
0.326774
0.301175
0.258952
0.20642
0.117839
0.0473451
6.44866
1.17035
0.312843
0.267812
0.356043
0.381737
0.376043
0.383627
0.406028
0.42712
0.431915
0.437142
0.457847
0.464865
0.456392
0.436943
0.403041
0.370377
0.347936
0.331067
0.305837
0.263949
0.21181
0.12576
0.064592
6.3085
1.18796
0.330633
0.264586
0.352884
0.384263
0.380517
0.388488
0.410822
0.431367
0.435895
0.440773
0.461421
0.469425
0.461648
0.443048
0.41038
0.378234
0.356607
0.34062
0.316704
0.27617
0.225875
0.146397
0.0977752
6.09759
1.21914
0.358363
0.257025
0.349511
0.389334
0.387593
0.395856
0.417804
0.437332
0.441558
0.445505
0.465861
0.475481
0.468818
0.451536
0.420875
0.389715
0.369277
0.354481
0.332445
0.293936
0.246188
0.173948
0.134175
5.8836
1.27554
0.395608
0.244222
0.350591
0.397245
0.39681
0.405487
0.426679
0.444834
0.448771
0.451633
0.471169
0.483047
0.477917
0.462385
0.434399
0.404402
0.385289
0.371848
0.352359
0.316643
0.272101
0.20726
0.174305
5.63188
1.35868
0.440693
0.230229
0.355409
0.407806
0.408439
0.417234
0.437203
0.453707
0.457497
0.459066
0.47724
0.491825
0.488572
0.475264
0.450577
0.422097
0.404486
0.392681
0.376466
0.344377
0.304081
0.24705
0.22064
5.3653
1.47109
0.495278
0.221184
0.362765
0.420929
0.422492
0.430814
0.448979
0.463679
0.467524
0.467839
0.484219
0.501537
0.500684
0.490044
0.469228
0.442527
0.426524
0.416842
0.404426
0.377467
0.342817
0.294865
0.276764
5.09838
1.61524
0.560713
0.222105
0.373397
0.436134
0.438552
0.445887
0.461691
0.474542
0.478577
0.477646
0.491881
0.511983
0.514262
0.506565
0.489864
0.465245
0.451043
0.444078
0.436593
0.416207
0.389714
0.353524
0.348707
4.82591
1.79062
0.637924
0.235388
0.387573
0.452326
0.455646
0.46175
0.474918
0.486032
0.490261
0.488312
0.50026
0.522911
0.529131
0.524584
0.511815
0.490306
0.477882
0.474061
0.472647
0.460511
0.446232
0.427529
0.446533
4.54824
1.99175
0.720952
0.254498
0.401784
0.467133
0.471987
0.477444
0.488168
0.497781
0.502007
0.499709
0.509663
0.534446
0.545104
0.543524
0.534468
0.51733
0.506786
0.506529
0.510939
0.510966
0.514234
0.526168
0.613072
6.48146
1.16118
0.303947
0.269691
0.358403
0.381669
0.37502
0.382577
0.405263
0.426849
0.43187
0.436907
0.457236
0.463404
0.454176
0.433988
0.399372
0.366511
0.343887
0.326763
0.30117
0.25896
0.206434
0.117861
0.0473573
6.44918
1.17026
0.312769
0.267849
0.356074
0.381738
0.376032
0.383616
0.40602
0.427118
0.431919
0.437149
0.457855
0.464874
0.456398
0.436946
0.403042
0.370371
0.347928
0.331057
0.305833
0.263957
0.211823
0.125779
0.0645998
6.30899
1.18787
0.330559
0.264627
0.352914
0.384262
0.380505
0.388477
0.410814
0.431365
0.435899
0.44078
0.461428
0.469433
0.461654
0.443051
0.41038
0.378229
0.3566
0.340612
0.316702
0.276178
0.225888
0.146415
0.0977797
6.0981
1.21903
0.358292
0.257077
0.349533
0.389328
0.387582
0.395844
0.417795
0.437329
0.441561
0.445506
0.465857
0.475486
0.468824
0.45154
0.420878
0.389714
0.369273
0.354477
0.332444
0.293944
0.2462
0.173962
0.134177
5.88397
1.27539
0.395542
0.244278
0.350597
0.397237
0.396798
0.405475
0.426671
0.444834
0.448773
0.451648
0.4712
0.483059
0.477922
0.462388
0.434396
0.404398
0.385285
0.371845
0.35236
0.31665
0.272111
0.207271
0.174304
5.63223
1.35851
0.440633
0.230279
0.355409
0.407797
0.408427
0.417223
0.437194
0.453701
0.457498
0.459064
0.477233
0.491832
0.48858
0.475269
0.45058
0.422097
0.404485
0.392681
0.376468
0.344382
0.304088
0.247058
0.220639
5.36557
1.47091
0.495219
0.221222
0.362764
0.420919
0.42248
0.430803
0.448969
0.463672
0.467525
0.467838
0.484196
0.501536
0.500691
0.490048
0.469234
0.44253
0.426525
0.416843
0.404428
0.377471
0.342822
0.294871
0.276764
5.09863
1.61505
0.560657
0.222132
0.373394
0.436125
0.43854
0.445876
0.461681
0.474532
0.478571
0.477646
0.491883
0.511984
0.514265
0.506567
0.489865
0.465246
0.451043
0.444077
0.436594
0.416208
0.389717
0.353528
0.348708
4.82613
1.79044
0.637873
0.235408
0.387571
0.45232
0.455635
0.461739
0.474909
0.48602
0.490246
0.488299
0.500265
0.522917
0.529129
0.524579
0.51181
0.4903
0.477879
0.474058
0.472645
0.460509
0.446233
0.427532
0.446535
4.54845
1.99162
0.720916
0.254515
0.401787
0.467133
0.47198
0.477435
0.488161
0.49777
0.501988
0.499685
0.509672
0.534459
0.545098
0.543513
0.534457
0.517317
0.506778
0.506523
0.510935
0.510963
0.514233
0.52617
0.613075
6.4813
1.16115
0.303924
0.269687
0.358408
0.381673
0.375026
0.382586
0.405275
0.426864
0.431889
0.436927
0.457259
0.463431
0.454206
0.43402
0.399405
0.366533
0.343897
0.326763
0.301165
0.258949
0.20642
0.117845
0.047351
6.4491
1.17022
0.312747
0.267843
0.356077
0.381738
0.376032
0.383617
0.406021
0.427119
0.431919
0.437154
0.457862
0.464884
0.456414
0.43697
0.40307
0.370392
0.347937
0.331058
0.305828
0.263947
0.211811
0.125766
0.0645971
6.3089
1.18783
0.330537
0.264624
0.352917
0.384262
0.380506
0.388477
0.410814
0.431363
0.435893
0.440778
0.461428
0.469438
0.461665
0.443071
0.410405
0.378243
0.356605
0.340609
0.316696
0.276169
0.225877
0.146405
0.09778
6.09804
1.21899
0.358268
0.257075
0.349536
0.389328
0.387583
0.395846
0.417798
0.437331
0.44156
0.445518
0.465881
0.475507
0.468853
0.451579
0.420917
0.389747
0.369291
0.354483
0.332444
0.293939
0.246193
0.173957
0.134181
5.88393
1.27535
0.395516
0.244277
0.350597
0.397238
0.396802
0.405481
0.42668
0.444845
0.44879
0.451679
0.471242
0.483105
0.477975
0.462451
0.434463
0.404457
0.385321
0.371863
0.352366
0.316649
0.272108
0.20727
0.174312
5.63222
1.35846
0.440605
0.230278
0.355409
0.407798
0.408432
0.417233
0.437209
0.453721
0.45754
0.45911
0.477261
0.491894
0.488662
0.47536
0.45067
0.422159
0.404523
0.392702
0.376477
0.344385
0.304089
0.247062
0.220652
5.3656
1.47084
0.495188
0.221219
0.362762
0.42092
0.422485
0.430815
0.448987
0.463696
0.467581
0.467888
0.4842
0.501595
0.500789
0.490154
0.469358
0.442605
0.426565
0.41686
0.404433
0.377475
0.342826
0.294878
0.27678
5.09869
1.61498
0.560622
0.222125
0.37339
0.436124
0.438544
0.445886
0.461697
0.474554
0.47862
0.477686
0.491877
0.512028
0.514353
0.506664
0.489975
0.465315
0.451079
0.444092
0.436595
0.416212
0.389722
0.353538
0.348724
4.82622
1.79036
0.637836
0.235397
0.387565
0.452316
0.455635
0.461745
0.47492
0.486034
0.490277
0.488321
0.500259
0.522952
0.529195
0.52465
0.511885
0.490353
0.477903
0.474067
0.472644
0.460513
0.446239
0.427543
0.446551
4.54857
1.99154
0.720883
0.254505
0.401781
0.467127
0.471977
0.477436
0.488164
0.497774
0.502001
0.49969
0.509674
0.534492
0.545141
0.543557
0.534498
0.517337
0.506785
0.506524
0.510934
0.510966
0.51424
0.526181
0.613089
6.48204
1.16111
0.303884
0.269712
0.358429
0.381661
0.374998
0.382557
0.405249
0.426843
0.431892
0.436935
0.457295
0.463555
0.454368
0.434196
0.399569
0.366623
0.343933
0.326762
0.301162
0.258955
0.206439
0.117883
0.0473728
6.44891
1.17015
0.312686
0.267896
0.356125
0.38178
0.376078
0.383694
0.40614
0.427288
0.432162
0.437353
0.458071
0.465181
0.456699
0.437215
0.40327
0.370489
0.347975
0.331056
0.305827
0.263955
0.211831
0.125802
0.0646147
6.30903
1.18776
0.330477
0.264659
0.35295
0.384289
0.380536
0.388526
0.410883
0.431459
0.436028
0.440846
0.461501
0.469574
0.461803
0.443196
0.410509
0.378291
0.356617
0.340601
0.31669
0.276172
0.225894
0.146438
0.0977944
6.09852
1.21892
0.358217
0.257115
0.349553
0.389327
0.38758
0.395846
0.417802
0.437341
0.441561
0.445484
0.465847
0.475492
0.46884
0.451559
0.420882
0.389705
0.36925
0.354449
0.332421
0.293932
0.246204
0.173984
0.134194
5.88415
1.27523
0.395466
0.244319
0.350597
0.39722
0.396776
0.405447
0.426637
0.444795
0.448696
0.45158
0.471172
0.482995
0.477856
0.462323
0.434315
0.404334
0.38523
0.371802
0.352327
0.316631
0.272111
0.20729
0.174323
5.63244
1.35833
0.440559
0.230313
0.355404
0.407776
0.408399
0.417185
0.437147
0.453645
0.457393
0.458978
0.477206
0.491748
0.488481
0.475162
0.450451
0.421998
0.40441
0.392626
0.376427
0.344358
0.304084
0.247074
0.220656
5.36572
1.4707
0.495139
0.221242
0.362757
0.420899
0.422452
0.430767
0.448926
0.463619
0.467424
0.467763
0.484191
0.501462
0.500582
0.489924
0.46908
0.442413
0.42644
0.41678
0.404383
0.377442
0.342812
0.294882
0.276777
5.0988
1.61483
0.560573
0.222139
0.373384
0.436106
0.438516
0.445847
0.461649
0.474493
0.47849
0.47759
0.491898
0.511937
0.514163
0.506439
0.48971
0.465126
0.450956
0.44401
0.436547
0.416175
0.389703
0.353535
0.348716
4.82631
1.79021
0.637786
0.235404
0.38756
0.452302
0.455615
0.461717
0.474888
0.485993
0.490193
0.488268
0.500299
0.5229
0.529044
0.524464
0.511673
0.490174
0.477793
0.47399
0.4726
0.460474
0.446215
0.427533
0.446537
4.54865
1.99142
0.720839
0.254508
0.401779
0.467121
0.471964
0.477419
0.48815
0.497758
0.501963
0.499674
0.509714
0.534464
0.545036
0.543421
0.53434
0.517199
0.506699
0.506459
0.510892
0.510927
0.514212
0.526163
0.613071
6.48179
1.16103
0.303897
0.269814
0.358509
0.381718
0.375047
0.382601
0.405286
0.426871
0.431885
0.436933
0.457273
0.463468
0.454281
0.434137
0.399545
0.366654
0.343987
0.326822
0.301207
0.258989
0.206478
0.117966
0.0478397
6.44973
1.17011
0.312719
0.267968
0.356173
0.381781
0.376054
0.383643
0.406057
0.427168
0.431991
0.437246
0.457967
0.465037
0.4566
0.43718
0.403285
0.370559
0.348056
0.331136
0.305889
0.264007
0.21189
0.125902
0.0649598
6.3093
1.18769
0.330497
0.264758
0.353016
0.38431
0.380542
0.388531
0.410893
0.431477
0.43608
0.44097
0.461627
0.469702
0.461942
0.443343
0.410674
0.37844
0.356741
0.340697
0.316765
0.276237
0.225961
0.146531
0.0980244
6.09832
1.21882
0.358217
0.257221
0.349626
0.389374
0.387625
0.395905
0.417881
0.437445
0.441745
0.445649
0.465979
0.475731
0.469091
0.451807
0.421142
0.389888
0.369392
0.354548
0.332505
0.294006
0.246275
0.17407
0.134369
5.88424
1.27512
0.395463
0.244431
0.350664
0.397274
0.396835
0.405525
0.426738
0.44492
0.4489
0.451736
0.471261
0.483221
0.478114
0.46259
0.434615
0.404544
0.385383
0.3719
0.352413
0.316709
0.272185
0.207373
0.17447
5.63247
1.35819
0.440546
0.230423
0.355465
0.407823
0.408451
0.417253
0.437235
0.453753
0.457545
0.45912
0.477345
0.491932
0.488679
0.475379
0.450684
0.422201
0.404568
0.392743
0.37652
0.344441
0.304161
0.247157
0.220792
5.36582
1.47054
0.495114
0.221348
0.362815
0.420939
0.422495
0.430819
0.448989
0.463696
0.467519
0.467863
0.484325
0.501612
0.500744
0.490116
0.469286
0.442615
0.426603
0.416908
0.404482
0.377528
0.342893
0.294966
0.276902
5.09885
1.61465
0.560531
0.222232
0.373439
0.436143
0.438551
0.445885
0.461692
0.474545
0.478559
0.477662
0.491974
0.512041
0.514306
0.506619
0.48991
0.465319
0.451115
0.444141
0.436649
0.416265
0.389785
0.353618
0.348825
4.82636
1.79001
0.637729
0.235479
0.38761
0.452336
0.455647
0.461749
0.47492
0.486034
0.490251
0.488333
0.500317
0.522943
0.529169
0.524635
0.511871
0.490375
0.477946
0.474116
0.472698
0.460566
0.446295
0.42761
0.44663
4.54878
1.99123
0.720778
0.254575
0.401829
0.467155
0.471994
0.47745
0.488174
0.497787
0.502009
0.499736
0.5097
0.534462
0.545142
0.543576
0.534531
0.517407
0.506843
0.506577
0.510977
0.511011
0.51429
0.526233
0.613145
4.23424
2.10537
0.771329
0.27729
0.41395
0.478023
0.486441
0.492347
0.501187
0.509453
0.513809
0.512107
0.520291
0.546604
0.561947
0.563308
0.558051
0.54571
0.536862
0.54026
0.551652
0.565901
0.593018
0.652676
0.813905
3.94767
2.18191
0.835149
0.318861
0.426802
0.48615
0.498802
0.506169
0.513673
0.520819
0.525639
0.525572
0.532813
0.558587
0.578959
0.583845
0.582418
0.575953
0.568468
0.574864
0.59201
0.620304
0.666188
0.747425
0.912235
3.68343
2.24857
0.913682
0.370548
0.440925
0.489479
0.509361
0.519663
0.525966
0.532036
0.537559
0.540246
0.546746
0.570573
0.595698
0.604362
0.606341
0.604159
0.598852
0.607717
0.630351
0.666076
0.723162
0.805005
0.943644
3.47592
2.35232
0.989277
0.435837
0.4518
0.488002
0.522032
0.534752
0.538338
0.54332
0.550099
0.556373
0.562576
0.582629
0.611437
0.624985
0.630094
0.631747
0.630321
0.639402
0.664461
0.70326
0.762899
0.839266
0.950366
3.32483
2.40493
1.10631
0.52271
0.455212
0.49291
0.539061
0.550914
0.55095
0.555164
0.564019
0.573755
0.579804
0.595702
0.625939
0.644468
0.652456
0.65775
0.66053
0.668815
0.694457
0.732311
0.789877
0.863493
0.957896
3.19075
2.475
1.27277
0.627338
0.464705
0.507868
0.559793
0.567485
0.564269
0.568679
0.579647
0.591662
0.597887
0.609358
0.638602
0.6622
0.673954
0.682779
0.689438
0.696326
0.720494
0.756226
0.808753
0.878951
0.960724
3.10178
2.58539
1.52078
0.733827
0.47379
0.525668
0.578422
0.582968
0.578838
0.584184
0.596947
0.609826
0.61649
0.624127
0.64902
0.677416
0.694266
0.705941
0.715816
0.72318
0.742371
0.775784
0.822328
0.886811
0.958039
3.05131
2.65491
1.76869
0.841698
0.482432
0.545807
0.589305
0.597073
0.595142
0.60223
0.615522
0.627918
0.634885
0.639545
0.658706
0.690069
0.71233
0.726935
0.739476
0.74976
0.764
0.79382
0.834734
0.88832
0.952799
2.99491
2.6654
1.93857
0.954092
0.528069
0.565524
0.591838
0.611318
0.615343
0.622966
0.634899
0.645578
0.652085
0.654622
0.667798
0.700736
0.728108
0.74665
0.760668
0.774166
0.784358
0.808276
0.843805
0.886632
0.943965
2.92191
2.66246
2.08813
1.11947
0.616569
0.579999
0.600084
0.632498
0.640207
0.646047
0.654482
0.662559
0.667943
0.669135
0.677267
0.70725
0.740028
0.763585
0.780248
0.795041
0.807349
0.822565
0.85059
0.887164
0.93284
2.8394
2.66396
2.2262
1.34298
0.728654
0.602687
0.6238
0.656811
0.667368
0.670044
0.673934
0.67837
0.682375
0.684147
0.688116
0.711535
0.749789
0.778152
0.797768
0.812704
0.827471
0.836411
0.856952
0.888913
0.926975
2.78281
2.70505
2.40834
1.63232
0.848667
0.635282
0.653818
0.678319
0.691069
0.692686
0.692043
0.692953
0.696083
0.699253
0.700885
0.716844
0.755824
0.788744
0.812257
0.829066
0.844008
0.855811
0.865893
0.890246
0.922802
2.81718
2.79683
2.57483
1.92426
1.00313
0.675028
0.682074
0.692375
0.710841
0.715306
0.710355
0.707924
0.710157
0.714162
0.71599
0.72519
0.757919
0.796938
0.824282
0.843608
0.858163
0.872495
0.881547
0.894913
0.919588
2.89448
2.89317
2.72128
2.17838
1.21498
0.758158
0.707911
0.711851
0.733124
0.736337
0.728363
0.723998
0.72545
0.72988
0.732941
0.736939
0.760817
0.801314
0.832823
0.855523
0.871259
0.884891
0.896922
0.902952
0.919689
2.96135
2.97628
2.85562
2.43855
1.5611
0.874066
0.735569
0.744694
0.752477
0.755552
0.747808
0.742201
0.742729
0.746862
0.750507
0.751294
0.765091
0.804517
0.840858
0.86625
0.884378
0.897022
0.909491
0.917731
0.922836
3.00548
3.04947
2.96797
2.67181
1.94274
1.02149
0.778643
0.771772
0.767883
0.7737
0.771199
0.7644
0.762353
0.765094
0.768587
0.769225
0.773765
0.803536
0.845965
0.876241
0.8952
0.909266
0.919612
0.930853
0.935726
3.04146
3.10914
3.05214
2.83519
2.24012
1.2553
0.850694
0.796899
0.790318
0.796199
0.796437
0.789927
0.785974
0.78557
0.787804
0.788932
0.787591
0.803299
0.848284
0.88399
0.906442
0.91992
0.930085
0.938782
0.948244
3.07066
3.15902
3.12157
2.97482
2.53899
1.66258
0.958789
0.825417
0.825163
0.821672
0.82109
0.81805
0.811586
0.808347
0.808428
0.809137
0.807101
0.810218
0.842203
0.88787
0.916761
0.932034
0.941884
0.948176
0.955292
3.09276
3.19646
3.17185
3.07294
2.78003
2.07521
1.12936
0.878487
0.857033
0.847087
0.850127
0.846515
0.839467
0.832715
0.830447
0.83068
0.8293
0.82559
0.838327
0.885545
0.922143
0.943286
0.953213
0.960725
0.964181
3.1099
3.22555
3.20927
3.14286
2.94368
2.40077
1.44605
0.965587
0.887285
0.882114
0.879128
0.877182
0.867692
0.859807
0.855204
0.853578
0.852189
0.847477
0.847497
0.873687
0.920777
0.951101
0.965262
0.971089
0.977739
3.12216
3.24702
3.23679
3.19473
3.06946
2.72053
1.94577
1.09709
0.930662
0.919083
0.906665
0.907224
0.901305
0.890377
0.882274
0.878747
0.876227
0.87201
0.865764
0.872501
0.910905
0.950896
0.974201
0.983323
0.9873
3.13088
3.26247
3.25589
3.22828
3.14648
2.91823
2.32327
1.37258
1.00291
0.949176
0.942784
0.9363
0.935993
0.923828
0.913295
0.905861
0.901747
0.897271
0.890276
0.885189
0.904416
0.942235
0.974929
0.992996
0.999018
3.13692
3.27341
3.26909
3.25132
3.20063
3.06151
2.67925
1.86015
1.11037
0.989484
0.978158
0.967158
0.964547
0.96217
0.947581
0.937403
0.929101
0.92324
0.916584
0.908046
0.906884
0.935854
0.969577
0.996824
1.01002
3.14105
3.28041
3.27674
3.26469
3.2326
3.14656
2.91071
2.29815
1.37511
1.05661
1.00882
1.00403
0.995306
0.995391
0.988562
0.971042
0.960774
0.951457
0.943653
0.935071
0.924962
0.930105
0.967186
0.994588
1.01486
3.14211
3.28288
3.27975
3.27257
3.25379
3.20339
3.06517
2.68389
1.86584
1.1579
1.05112
1.03748
1.02952
1.02439
1.02418
1.01532
0.994952
0.982066
0.971982
0.963291
0.951762
0.94268
0.958756
0.991525
1.01526
3.13888
3.28235
3.28113
3.27682
3.26541
3.23514
3.1536
2.92867
2.33454
1.43815
1.11775
1.07047
1.06666
1.05715
1.05571
1.05331
1.04034
1.01828
1.00276
0.991999
0.9811
0.967688
0.961481
0.98631
1.01608
3.13637
3.28154
3.28199
3.27979
3.27328
3.25587
3.20996
3.08476
2.73867
1.95853
1.23429
1.11816
1.09901
1.09446
1.08644
1.08716
1.0823
1.06329
1.03992
1.02301
1.01096
0.997285
0.981947
0.980872
1.01523
3.13515
3.28054
3.28307
3.28191
3.27823
3.2683
3.2422
3.17198
2.97701
2.44308
1.56442
1.18469
1.13638
1.13071
1.12178
1.11654
1.11699
1.10923
1.08481
1.05929
1.0428
1.02836
1.01132
0.996373
1.00481
3.1345
3.28001
3.28382
3.28323
3.28121
3.27568
3.26112
3.22294
3.11855
2.83017
2.12166
1.3591
1.19168
1.16379
1.16096
1.15021
1.14836
1.14625
1.13451
1.10456
1.07809
1.06096
1.04384
1.0245
1.01151
3.13426
3.27982
3.28433
3.28405
3.28297
3.28
3.27221
3.2518
3.19719
3.0449
2.61601
1.78105
1.26513
1.20655
1.19438
1.189
1.17959
1.17954
1.17456
1.15693
1.12269
1.09712
1.07758
1.0574
1.03584
3.13427
3.27977
3.28466
3.28453
3.28399
3.28247
3.2784
3.26764
3.23914
3.16087
2.93986
2.3377
1.54033
1.26788
1.23122
1.22688
1.21603
1.20945
1.2092
1.20126
1.17519
1.14099
1.11514
1.09234
1.06865
3.13435
3.27972
3.28488
3.28484
3.2846
3.28384
3.28174
3.27621
3.26168
3.22313
3.11555
2.81165
2.0805
1.40994
1.28373
1.2606
1.25747
1.24431
1.2393
1.23711
1.22502
1.19191
1.15753
1.1297
1.10395
3.13438
3.27972
3.28502
3.28501
3.2849
3.28453
3.28352
3.28081
3.27367
3.25475
3.20348
3.05791
2.63779
1.83933
1.35881
1.30448
1.29176
1.2848
1.27318
1.26993
1.26423
1.24543
1.20624
1.17154
1.1419
3.13438
3.27975
3.28504
3.28512
3.28508
3.28491
3.28443
3.28314
3.27973
3.27066
3.24636
3.17881