/*--------------------------------*- C++ -*----------------------------------*\
| =========                 |                                                 |
| \\      /  F ield         | OpenFOAM: The Open Source CFD Toolbox           |
|  \\    /   O peration     | Version:  4.1                                   |
|   \\  /    A nd           | Web:      www.OpenFOAM.org                      |
|    \\/     M anipulation  |                                                 |
\*---------------------------------------------------------------------------*/
FoamFile
{
    version     2.0;
    format      ascii;
    class       volScalarField;
    location    "0.84";
    object      p;
}
// * * * * * * * * * * * * * * * * * * * * * * * * * * * * * * * * * * * * * //

dimensions      [1 -1 -2 0 0 0 0];

internalField   nonuniform List<scalar> 
52500
(
0.0386344
0.211982
0.835688
0.810545
0.730765
0.672766
0.643402
0.625266
0.609371
0.593269
0.574783
0.560544
0.545395
0.531909
0.519696
0.512408
0.503278
0.495192
0.481127
0.465284
0.451013
0.448144
0.452898
0.468937
0.498621
0.0389286
0.211124
0.832434
0.810122
0.731116
0.673325
0.644147
0.626318
0.610508
0.594082
0.575393
0.560918
0.545675
0.532186
0.51987
0.512618
0.503248
0.495049
0.480932
0.465224
0.451108
0.448478
0.453359
0.469674
0.499403
0.0403018
0.209579
0.824722
0.808934
0.731634
0.674142
0.645136
0.627712
0.611818
0.594705
0.575628
0.56059
0.545323
0.531816
0.519375
0.512171
0.5024
0.493895
0.479599
0.464146
0.45026
0.447831
0.452778
0.469228
0.498901
0.0424849
0.207052
0.811813
0.808
0.732651
0.675652
0.64681
0.63
0.613731
0.595753
0.576183
0.560028
0.545097
0.531442
0.518874
0.511668
0.501232
0.492191
0.477647
0.462593
0.449012
0.446858
0.451788
0.468245
0.497846
0.044791
0.20195
0.787535
0.81214
0.735035
0.677446
0.649331
0.632988
0.615942
0.596978
0.576773
0.558981
0.544704
0.530713
0.518201
0.510739
0.499629
0.489871
0.475124
0.460517
0.447271
0.44527
0.45008
0.466192
0.495686
0.047665
0.194062
0.746779
0.827951
0.739531
0.680227
0.652868
0.636516
0.618406
0.59831
0.57725
0.557437
0.544172
0.529688
0.517385
0.509356
0.497565
0.486998
0.472123
0.457766
0.444813
0.442665
0.447211
0.462456
0.491521
0.050916
0.183423
0.689859
0.852185
0.747863
0.684876
0.657297
0.640578
0.62125
0.599818
0.577524
0.555818
0.543243
0.528461
0.51626
0.507392
0.495032
0.48361
0.468928
0.454266
0.441448
0.438692
0.442712
0.456372
0.484054
0.0543936
0.170516
0.617112
0.880696
0.761201
0.691474
0.662453
0.644955
0.624325
0.601339
0.577577
0.554557
0.541951
0.527203
0.514786
0.504791
0.492194
0.479883
0.465521
0.45011
0.437047
0.432709
0.435927
0.446917
0.471379
0.0582165
0.156086
0.528324
0.912442
0.777133
0.698853
0.667967
0.64941
0.627416
0.602746
0.577549
0.554044
0.540635
0.525985
0.513309
0.501546
0.489681
0.475601
0.461479
0.445235
0.4317
0.424187
0.426216
0.432307
0.449541
0.0624777
0.140662
0.423408
0.931237
0.791341
0.706967
0.674062
0.654004
0.63037
0.60386
0.577489
0.554191
0.539516
0.524872
0.511704
0.498345
0.487057
0.47106
0.456627
0.439612
0.425445
0.414078
0.410929
0.409684
0.412915
0.0386225
0.211973
0.835663
0.810511
0.730749
0.672743
0.643374
0.625234
0.609333
0.593232
0.574759
0.560525
0.545375
0.531905
0.519698
0.512424
0.503289
0.495197
0.48112
0.465263
0.450981
0.448098
0.452855
0.468901
0.498582
0.0389287
0.211121
0.832407
0.810086
0.7311
0.673303
0.644121
0.626286
0.610473
0.594056
0.575385
0.560871
0.545662
0.532181
0.519871
0.512638
0.50326
0.495055
0.480926
0.465205
0.451077
0.448434
0.453318
0.469636
0.49936
0.0402989
0.209575
0.824697
0.8089
0.731617
0.674119
0.645108
0.627683
0.611781
0.594685
0.575623
0.560536
0.545312
0.531809
0.519375
0.512183
0.502406
0.4939
0.479596
0.464128
0.450231
0.44779
0.452738
0.469188
0.498855
0.042476
0.207046
0.811792
0.807972
0.732634
0.675628
0.646785
0.629976
0.613704
0.59573
0.576171
0.559987
0.545095
0.531443
0.518877
0.511676
0.501239
0.492197
0.477646
0.462576
0.448984
0.446818
0.451749
0.468201
0.497795
0.0447862
0.201949
0.787528
0.812106
0.735017
0.677428
0.649309
0.632968
0.615921
0.596952
0.57675
0.558981
0.544684
0.530713
0.518198
0.510737
0.499631
0.489876
0.475124
0.460504
0.447245
0.445232
0.450041
0.466145
0.495629
0.0476597
0.194061
0.74678
0.827903
0.73951
0.680211
0.65285
0.6365
0.61839
0.598285
0.577227
0.557459
0.544158
0.529693
0.517377
0.509353
0.497562
0.487001
0.47212
0.457756
0.444791
0.442628
0.447172
0.462409
0.491465
0.0509128
0.183422
0.689858
0.852145
0.747844
0.68486
0.657281
0.640562
0.621236
0.599798
0.577514
0.555843
0.543235
0.528457
0.516252
0.507397
0.495029
0.483617
0.468913
0.454267
0.441432
0.438658
0.442675
0.456328
0.483999
0.0543904
0.170514
0.617107
0.880664
0.761187
0.69146
0.662438
0.644942
0.624314
0.601329
0.577576
0.554561
0.541961
0.527192
0.51477
0.504811
0.49218
0.47989
0.465509
0.450113
0.437036
0.432678
0.435893
0.446876
0.471326
0.0582136
0.156082
0.528311
0.912417
0.777127
0.69884
0.667953
0.649399
0.627409
0.602744
0.57756
0.554034
0.540647
0.525976
0.51329
0.501563
0.489649
0.475621
0.461479
0.445244
0.431685
0.424158
0.426187
0.432268
0.449492
0.0624763
0.140655
0.423374
0.931216
0.791338
0.706955
0.674046
0.653993
0.630361
0.603857
0.577496
0.55418
0.53953
0.52487
0.511689
0.498348
0.48704
0.471069
0.456629
0.439617
0.425435
0.414056
0.410899
0.409648
0.412875
0.0386296
0.21197
0.835647
0.810515
0.730751
0.672749
0.643381
0.625247
0.609358
0.593255
0.574757
0.560553
0.545387
0.53191
0.519712
0.512411
0.503288
0.495187
0.481106
0.465247
0.450978
0.448112
0.452871
0.468921
0.498609
0.0389266
0.211113
0.832391
0.810091
0.731103
0.673309
0.644127
0.626298
0.610494
0.594069
0.575375
0.560915
0.545672
0.532188
0.519884
0.512625
0.503258
0.495045
0.480912
0.465189
0.451074
0.448446
0.453332
0.469658
0.499389
0.0403
0.209568
0.824677
0.808903
0.731621
0.674127
0.645116
0.627692
0.6118
0.594693
0.575617
0.56058
0.545318
0.531818
0.519388
0.512181
0.50241
0.493894
0.479583
0.464116
0.450228
0.447801
0.452751
0.46921
0.498886
0.042481
0.20704
0.811766
0.807971
0.73264
0.675638
0.646792
0.629981
0.613711
0.59574
0.576178
0.56001
0.545099
0.531447
0.518887
0.511685
0.501245
0.492193
0.477635
0.462568
0.448983
0.446829
0.451761
0.468224
0.497829
0.0447884
0.201937
0.787479
0.81212
0.735023
0.677434
0.649313
0.632969
0.615922
0.596964
0.576766
0.558965
0.544699
0.530715
0.518212
0.510752
0.499642
0.489874
0.475114
0.460497
0.447245
0.445243
0.450054
0.466169
0.495667
0.047662
0.194047
0.746714
0.827939
0.739521
0.680216
0.652852
0.636498
0.618386
0.598296
0.577243
0.557418
0.544179
0.529696
0.517396
0.509368
0.497576
0.487001
0.472116
0.457747
0.444791
0.44264
0.447186
0.462433
0.491504
0.0509139
0.183407
0.689784
0.852176
0.747857
0.684866
0.657281
0.640559
0.621231
0.599803
0.577517
0.555809
0.543245
0.528469
0.516271
0.507408
0.495042
0.483613
0.468921
0.454252
0.441429
0.438669
0.442689
0.456351
0.484037
0.0543916
0.170499
0.617028
0.880692
0.7612
0.691465
0.662437
0.644937
0.624308
0.601328
0.577573
0.554549
0.541955
0.527204
0.514792
0.504807
0.492201
0.479886
0.465513
0.450098
0.437031
0.432688
0.435906
0.446897
0.471362
0.0582147
0.156068
0.528231
0.912438
0.777136
0.698844
0.667952
0.649393
0.627401
0.602738
0.577549
0.554032
0.540639
0.525985
0.513309
0.50156
0.489678
0.475606
0.461474
0.445228
0.431684
0.424168
0.426197
0.432289
0.449524
0.0624774
0.140644
0.423308
0.931219
0.791343
0.706957
0.674045
0.653988
0.630356
0.603853
0.577487
0.554178
0.539523
0.524875
0.511703
0.498351
0.487055
0.47106
0.456622
0.439604
0.425432
0.414061
0.410911
0.409668
0.412899
0.0386278
0.211964
0.835626
0.810504
0.730751
0.67275
0.643381
0.625246
0.609357
0.593256
0.574762
0.560562
0.5454
0.531926
0.519732
0.512429
0.503303
0.495193
0.481101
0.465233
0.450961
0.44809
0.452849
0.468902
0.498592
0.0389257
0.211107
0.83237
0.81008
0.731103
0.67331
0.644127
0.626297
0.610493
0.594072
0.575382
0.560923
0.545684
0.532204
0.519904
0.512643
0.503273
0.495051
0.480907
0.465175
0.451057
0.448425
0.453311
0.469638
0.499371
0.0402989
0.209562
0.824656
0.808892
0.731621
0.674128
0.645116
0.627691
0.611799
0.594696
0.575623
0.560585
0.545329
0.531834
0.519406
0.512199
0.502423
0.493899
0.479578
0.464103
0.450212
0.447781
0.452731
0.469191
0.498868
0.0424801
0.207034
0.811745
0.80796
0.732641
0.675639
0.646792
0.629981
0.613712
0.595742
0.576184
0.560012
0.545115
0.531464
0.518906
0.511701
0.501257
0.492197
0.477629
0.462556
0.448968
0.44681
0.451743
0.468206
0.497811
0.0447877
0.20193
0.787452
0.812116
0.735023
0.677435
0.649315
0.632971
0.615924
0.596966
0.576771
0.558973
0.544713
0.530731
0.518226
0.510766
0.49965
0.489877
0.475109
0.460486
0.447231
0.445226
0.450037
0.466151
0.49565
0.0476616
0.19404
0.746682
0.827943
0.739524
0.680219
0.652855
0.636501
0.618389
0.598297
0.577247
0.557439
0.544186
0.529711
0.517406
0.509381
0.497583
0.487003
0.47211
0.457739
0.444779
0.442625
0.447171
0.462417
0.491488
0.0509141
0.183399
0.689748
0.852183
0.747862
0.68487
0.657285
0.640564
0.621236
0.599806
0.577523
0.555828
0.543254
0.528479
0.51628
0.507421
0.495049
0.483618
0.46891
0.45425
0.441421
0.438656
0.442676
0.456337
0.484024
0.0543922
0.170491
0.616989
0.880703
0.761208
0.69147
0.662441
0.644942
0.624313
0.601332
0.57758
0.55456
0.541968
0.527213
0.514798
0.504825
0.492203
0.479892
0.465507
0.450098
0.437025
0.432678
0.435895
0.446886
0.47135
0.0582158
0.156061
0.528189
0.91245
0.777145
0.698848
0.667955
0.649398
0.627406
0.602742
0.577555
0.55404
0.540649
0.525994
0.513317
0.501573
0.48968
0.475615
0.461472
0.445228
0.431677
0.424159
0.426188
0.43228
0.449514
0.0624793
0.140638
0.423265
0.931225
0.79135
0.70696
0.674047
0.653991
0.63036
0.603856
0.577492
0.554188
0.53953
0.524883
0.511712
0.498362
0.487065
0.471067
0.456621
0.439603
0.425427
0.414054
0.410904
0.40966
0.412891
0.038636
0.211956
0.835591
0.810502
0.730748
0.672753
0.643392
0.625267
0.609381
0.593272
0.574771
0.560564
0.545402
0.531927
0.51973
0.512426
0.5033
0.495192
0.481103
0.465238
0.450965
0.448095
0.452853
0.468902
0.498603
0.038933
0.211099
0.832335
0.810079
0.7311
0.673315
0.644139
0.626319
0.610516
0.594087
0.57539
0.560926
0.545685
0.532204
0.519902
0.51264
0.503269
0.495048
0.480907
0.465179
0.45106
0.44843
0.453315
0.46964
0.499383
0.0403059
0.209553
0.824619
0.808892
0.731621
0.674136
0.64513
0.627713
0.61182
0.594709
0.57563
0.560587
0.54533
0.531833
0.519404
0.512195
0.502419
0.493894
0.479576
0.464104
0.450214
0.447786
0.452735
0.469194
0.49888
0.0424881
0.207024
0.811703
0.807957
0.732645
0.675651
0.646808
0.630002
0.61373
0.595754
0.576188
0.560014
0.545112
0.531461
0.518902
0.511696
0.501251
0.49219
0.477624
0.462554
0.448969
0.446816
0.451749
0.468212
0.497824
0.0447936
0.201913
0.787377
0.81214
0.73503
0.677446
0.649332
0.63299
0.61594
0.596975
0.576776
0.558971
0.544719
0.530732
0.518226
0.510761
0.499644
0.489869
0.475102
0.460483
0.447231
0.445232
0.450043
0.46616
0.495662
0.0476678
0.19402
0.746582
0.828005
0.739541
0.680231
0.652872
0.636519
0.618403
0.598305
0.57725
0.557442
0.544181
0.529706
0.517402
0.509375
0.497575
0.486993
0.472101
0.457734
0.444778
0.442631
0.447178
0.462426
0.491498
0.0509191
0.183378
0.689634
0.852243
0.747883
0.684885
0.657302
0.640581
0.621249
0.599814
0.577525
0.555826
0.543251
0.528473
0.516274
0.507414
0.49504
0.483608
0.468901
0.454244
0.441419
0.438662
0.442683
0.456346
0.484033
0.0543972
0.17047
0.616868
0.880762
0.761233
0.691485
0.662458
0.644958
0.624325
0.601337
0.577577
0.554558
0.541961
0.527212
0.514793
0.504817
0.492194
0.479881
0.465498
0.450092
0.437023
0.432684
0.435902
0.446895
0.471358
0.0582207
0.156042
0.528066
0.912501
0.777166
0.698863
0.667971
0.649412
0.627417
0.602744
0.577549
0.554043
0.540642
0.52599
0.513314
0.501565
0.489675
0.475605
0.461464
0.445223
0.431676
0.424165
0.426194
0.432288
0.449521
0.0624849
0.140626
0.423166
0.931249
0.791366
0.706976
0.674062
0.654004
0.630368
0.603855
0.577487
0.554192
0.539519
0.524878
0.51171
0.498357
0.487061
0.47106
0.456614
0.439598
0.425426
0.414059
0.410911
0.409667
0.412897
0.0386331
0.211956
0.835593
0.810498
0.730749
0.672752
0.643388
0.625261
0.609375
0.593269
0.574769
0.560568
0.545404
0.531931
0.519736
0.512431
0.503306
0.495196
0.481105
0.465238
0.450964
0.448092
0.45285
0.468898
0.498598
0.0389306
0.211099
0.832337
0.810075
0.731101
0.673314
0.644135
0.626313
0.61051
0.594084
0.575389
0.560928
0.545688
0.532207
0.519907
0.512645
0.503275
0.495053
0.48091
0.465179
0.45106
0.448428
0.453313
0.469636
0.499378
0.0403037
0.209553
0.824621
0.808888
0.731621
0.674134
0.645125
0.627707
0.611814
0.594707
0.57563
0.56059
0.545333
0.531837
0.519409
0.5122
0.502424
0.493899
0.479579
0.464105
0.450214
0.447784
0.452733
0.469191
0.498876
0.0424854
0.207025
0.811707
0.807954
0.732644
0.675648
0.646803
0.629996
0.613725
0.595752
0.576188
0.560016
0.545115
0.531465
0.518906
0.511702
0.501256
0.492195
0.477627
0.462555
0.448969
0.446814
0.451746
0.468209
0.497819
0.0447916
0.201916
0.787389
0.812132
0.735028
0.677443
0.649326
0.632984
0.615935
0.596973
0.576776
0.558973
0.544721
0.530735
0.51823
0.510767
0.499649
0.489873
0.475105
0.460484
0.447232
0.44523
0.450042
0.466157
0.495658
0.0476656
0.194023
0.746602
0.827987
0.739536
0.680228
0.652867
0.636513
0.618399
0.598302
0.577249
0.557445
0.544183
0.529709
0.517406
0.50938
0.49758
0.486997
0.472104
0.457735
0.444779
0.442629
0.447176
0.462424
0.491495
0.0509173
0.183382
0.689659
0.852225
0.747877
0.68488
0.657296
0.640575
0.621244
0.599812
0.577525
0.555828
0.543253
0.528476
0.516278
0.507418
0.495044
0.483612
0.468904
0.454245
0.44142
0.438662
0.442682
0.456344
0.48403
0.0543954
0.170475
0.616896
0.880745
0.761226
0.69148
0.662452
0.644953
0.624321
0.601336
0.577578
0.55456
0.541964
0.527214
0.514796
0.504822
0.492199
0.479886
0.465501
0.450094
0.437025
0.432683
0.435901
0.446893
0.471356
0.0582189
0.156046
0.528095
0.912486
0.77716
0.698858
0.667965
0.649407
0.627414
0.602743
0.57755
0.554044
0.540644
0.525992
0.513317
0.501569
0.489679
0.47561
0.461467
0.445225
0.431678
0.424164
0.426194
0.432287
0.449519
0.0624829
0.140629
0.423191
0.931241
0.791361
0.70697
0.674056
0.653999
0.630365
0.603854
0.577488
0.554193
0.539521
0.524879
0.511712
0.49836
0.487065
0.471063
0.456617
0.4396
0.425428
0.414059
0.41091
0.409666
0.412896
0.0386278
0.211964
0.835626
0.810504
0.730751
0.67275
0.643381
0.625246
0.609357
0.593256
0.574762
0.560562
0.5454
0.531927
0.519732
0.512429
0.503303
0.495193
0.481101
0.465233
0.450961
0.44809
0.452849
0.468901
0.498592
0.0389256
0.211107
0.83237
0.81008
0.731103
0.67331
0.644126
0.626297
0.610493
0.594071
0.575382
0.560923
0.545684
0.532204
0.519904
0.512643
0.503273
0.495051
0.480907
0.465175
0.451057
0.448425
0.453311
0.469638
0.499371
0.0402989
0.209562
0.824656
0.808892
0.731621
0.674128
0.645116
0.627691
0.611799
0.594696
0.575623
0.560585
0.545329
0.531834
0.519406
0.512199
0.502423
0.493899
0.479578
0.464103
0.450212
0.447781
0.452731
0.469191
0.498868
0.0424801
0.207034
0.811745
0.80796
0.732641
0.675639
0.646792
0.629981
0.613712
0.595742
0.576184
0.560012
0.545115
0.531464
0.518906
0.511701
0.501257
0.492197
0.47763
0.462556
0.448968
0.44681
0.451743
0.468206
0.497811
0.0447877
0.20193
0.787452
0.812116
0.735023
0.677435
0.649315
0.63297
0.615924
0.596966
0.576771
0.558973
0.544713
0.530731
0.518226
0.510766
0.499651
0.489877
0.475109
0.460486
0.447231
0.445226
0.450037
0.466151
0.49565
0.0476616
0.19404
0.746682
0.827943
0.739524
0.680219
0.652855
0.636501
0.618389
0.598297
0.577247
0.557439
0.544186
0.529711
0.517406
0.509381
0.497583
0.487003
0.47211
0.457739
0.444779
0.442625
0.447171
0.462417
0.491488
0.050914
0.183399
0.689748
0.852183
0.747862
0.68487
0.657285
0.640563
0.621236
0.599806
0.577523
0.555828
0.543254
0.528479
0.51628
0.507421
0.495049
0.483618
0.468911
0.45425
0.441421
0.438656
0.442676
0.456337
0.484024
0.0543922
0.170491
0.616989
0.880703
0.761208
0.69147
0.662441
0.644942
0.624313
0.601332
0.57758
0.55456
0.541968
0.527213
0.514798
0.504825
0.492203
0.479892
0.465507
0.450098
0.437025
0.432678
0.435895
0.446886
0.47135
0.0582158
0.156061
0.528189
0.91245
0.777144
0.698848
0.667955
0.649398
0.627406
0.602742
0.577555
0.55404
0.540649
0.525994
0.513317
0.501573
0.48968
0.475615
0.461472
0.445228
0.431677
0.424159
0.426188
0.43228
0.449514
0.0624793
0.140638
0.423265
0.931225
0.79135
0.70696
0.674047
0.653991
0.63036
0.603856
0.577492
0.554188
0.53953
0.524883
0.511712
0.498363
0.487065
0.471067
0.456621
0.439603
0.425427
0.414054
0.410904
0.40966
0.412891
0.0386296
0.21197
0.835647
0.810515
0.730751
0.672749
0.643381
0.625247
0.609358
0.593255
0.574757
0.560553
0.545387
0.53191
0.519712
0.512411
0.503288
0.495187
0.481106
0.465247
0.450978
0.448112
0.452871
0.468921
0.498609
0.0389266
0.211113
0.832391
0.810091
0.731103
0.673309
0.644127
0.626298
0.610494
0.594069
0.575375
0.560915
0.545672
0.532188
0.519884
0.512625
0.503258
0.495045
0.480912
0.465189
0.451074
0.448446
0.453332
0.469658
0.499389
0.0403
0.209568
0.824677
0.808903
0.731621
0.674127
0.645116
0.627692
0.6118
0.594693
0.575617
0.56058
0.545318
0.531818
0.519388
0.512181
0.50241
0.493894
0.479583
0.464116
0.450228
0.447801
0.452751
0.46921
0.498886
0.042481
0.20704
0.811766
0.807971
0.73264
0.675638
0.646792
0.629981
0.613711
0.59574
0.576178
0.56001
0.545099
0.531447
0.518887
0.511686
0.501245
0.492193
0.477635
0.462568
0.448983
0.446829
0.451761
0.468224
0.497829
0.0447884
0.201937
0.787479
0.81212
0.735023
0.677434
0.649313
0.632969
0.615922
0.596964
0.576766
0.558965
0.544699
0.530715
0.518212
0.510752
0.499642
0.489874
0.475114
0.460497
0.447245
0.445243
0.450054
0.466169
0.495667
0.047662
0.194047
0.746714
0.827939
0.739521
0.680216
0.652852
0.636498
0.618386
0.598296
0.577243
0.557418
0.544179
0.529696
0.517396
0.509368
0.497576
0.487001
0.472116
0.457747
0.444791
0.44264
0.447186
0.462433
0.491504
0.0509139
0.183407
0.689784
0.852176
0.747857
0.684866
0.657281
0.640559
0.621231
0.599803
0.577517
0.555809
0.543245
0.528469
0.516271
0.507408
0.495042
0.483613
0.468921
0.454252
0.441429
0.438669
0.442689
0.456351
0.484037
0.0543916
0.170499
0.617028
0.880692
0.7612
0.691465
0.662437
0.644937
0.624308
0.601328
0.577573
0.554549
0.541955
0.527204
0.514792
0.504807
0.492201
0.479886
0.465513
0.450098
0.437031
0.432688
0.435906
0.446897
0.471362
0.0582147
0.156068
0.528231
0.912438
0.777136
0.698844
0.667952
0.649393
0.627401
0.602738
0.577549
0.554032
0.540639
0.525985
0.513309
0.50156
0.489678
0.475606
0.461474
0.445228
0.431684
0.424168
0.426197
0.432289
0.449524
0.0624774
0.140644
0.423308
0.931219
0.791343
0.706957
0.674045
0.653988
0.630356
0.603853
0.577487
0.554178
0.539523
0.524875
0.511703
0.498351
0.487055
0.47106
0.456622
0.439604
0.425432
0.414061
0.410911
0.409668
0.412899
0.0386225
0.211973
0.835663
0.810511
0.730749
0.672743
0.643374
0.625233
0.609333
0.593232
0.574759
0.560524
0.545375
0.531904
0.519698
0.512424
0.503289
0.495197
0.48112
0.465263
0.450981
0.448098
0.452855
0.468901
0.498582
0.0389287
0.211121
0.832406
0.810086
0.7311
0.673303
0.644121
0.626286
0.610472
0.594055
0.575385
0.560871
0.545662
0.532181
0.519871
0.512638
0.50326
0.495055
0.480926
0.465205
0.451077
0.448434
0.453318
0.469637
0.499361
0.0402989
0.209575
0.824697
0.8089
0.731617
0.674119
0.645108
0.627682
0.611781
0.594685
0.575623
0.560536
0.545311
0.531809
0.519374
0.512183
0.502406
0.4939
0.479596
0.464128
0.450231
0.44779
0.452738
0.469188
0.498856
0.0424759
0.207046
0.811792
0.807972
0.732634
0.675628
0.646785
0.629976
0.613704
0.59573
0.576171
0.559987
0.545094
0.531443
0.518876
0.511675
0.501239
0.492197
0.477646
0.462576
0.448984
0.446818
0.451749
0.468201
0.497795
0.0447862
0.201949
0.787528
0.812106
0.735017
0.677428
0.649309
0.632968
0.615921
0.596952
0.57675
0.558981
0.544684
0.530713
0.518198
0.510737
0.499631
0.489876
0.475124
0.460504
0.447245
0.445232
0.450041
0.466145
0.49563
0.0476597
0.194061
0.74678
0.827903
0.73951
0.680211
0.65285
0.6365
0.61839
0.598285
0.577227
0.557459
0.544158
0.529693
0.517377
0.509353
0.497562
0.487001
0.47212
0.457756
0.444791
0.442628
0.447172
0.462409
0.491465
0.0509128
0.183422
0.689858
0.852145
0.747844
0.68486
0.657281
0.640562
0.621236
0.599798
0.577514
0.555843
0.543235
0.528457
0.516252
0.507397
0.495029
0.483617
0.468913
0.454267
0.441432
0.438658
0.442675
0.456328
0.483999
0.0543904
0.170514
0.617107
0.880664
0.761187
0.69146
0.662438
0.644942
0.624314
0.601329
0.577576
0.554561
0.541961
0.527192
0.51477
0.50481
0.49218
0.47989
0.465509
0.450113
0.437037
0.432678
0.435893
0.446876
0.471326
0.0582136
0.156082
0.528311
0.912417
0.777127
0.69884
0.667953
0.649398
0.627408
0.602744
0.57756
0.554034
0.540647
0.525975
0.513289
0.501563
0.489649
0.475621
0.461479
0.445244
0.431685
0.424158
0.426187
0.432268
0.449493
0.0624763
0.140655
0.423374
0.931216
0.791338
0.706955
0.674046
0.653993
0.630361
0.603857
0.577496
0.55418
0.53953
0.52487
0.511688
0.498348
0.48704
0.471069
0.456629
0.439617
0.425435
0.414057
0.410899
0.409648
0.412875
0.0386253
0.211985
0.835703
0.810533
0.730766
0.672764
0.643394
0.625248
0.609351
0.593246
0.574752
0.560557
0.545383
0.531897
0.519685
0.51239
0.503274
0.49519
0.481129
0.465283
0.451011
0.448144
0.452899
0.468944
0.498632
0.0389208
0.211128
0.83245
0.81011
0.731117
0.673321
0.644138
0.626299
0.610486
0.594066
0.575383
0.560912
0.545663
0.532173
0.519854
0.512607
0.503241
0.495046
0.480933
0.465224
0.451107
0.448478
0.453359
0.46968
0.499414
0.0402964
0.209585
0.824741
0.808922
0.731633
0.674136
0.645126
0.627691
0.611792
0.594697
0.575636
0.560557
0.54531
0.531804
0.519362
0.512171
0.502394
0.493892
0.479601
0.46415
0.450262
0.447832
0.452778
0.469233
0.498912
0.0424785
0.207059
0.811837
0.807995
0.732648
0.675642
0.646798
0.629981
0.613705
0.595746
0.576203
0.559958
0.545118
0.531433
0.518863
0.51167
0.501226
0.492189
0.477648
0.462597
0.449014
0.446859
0.451788
0.468248
0.497856
0.0447856
0.201963
0.787592
0.812114
0.735029
0.677439
0.649319
0.632972
0.615922
0.596966
0.576783
0.558933
0.544715
0.530707
0.518186
0.510727
0.499619
0.489867
0.475125
0.46052
0.447272
0.445271
0.45008
0.466193
0.495693
0.0476599
0.194078
0.746859
0.827895
0.739518
0.680221
0.652858
0.636504
0.618387
0.59829
0.577248
0.557442
0.544163
0.529686
0.517362
0.509344
0.497552
0.486993
0.472123
0.457771
0.444815
0.442665
0.44721
0.462456
0.491524
0.0509121
0.183441
0.689949
0.852135
0.747848
0.684868
0.657289
0.640568
0.621235
0.599801
0.577523
0.555835
0.543236
0.528452
0.516238
0.50738
0.495017
0.483608
0.468915
0.454279
0.441452
0.438692
0.442711
0.45637
0.484054
0.0543905
0.170533
0.617207
0.880651
0.761185
0.691466
0.662446
0.644949
0.624317
0.601328
0.577576
0.554562
0.541954
0.52719
0.51476
0.50479
0.492173
0.479883
0.465511
0.450122
0.437052
0.432709
0.435926
0.446914
0.471375
0.0582136
0.156101
0.528416
0.912407
0.777122
0.698846
0.667961
0.649406
0.627414
0.60274
0.57755
0.554045
0.540633
0.525971
0.513288
0.501536
0.489658
0.475606
0.461475
0.445247
0.431701
0.424186
0.426214
0.432302
0.449534
0.0624747
0.140671
0.423475
0.931223
0.791335
0.70696
0.674055
0.654001
0.630369
0.603855
0.577488
0.554194
0.539509
0.524864
0.51169
0.498333
0.487049
0.471057
0.456621
0.439616
0.425447
0.414078
0.410926
0.409678
0.412908
0.0684372
0.136101
0.37475
0.920555
0.796362
0.713631
0.68049
0.658444
0.632839
0.604612
0.577491
0.554421
0.538523
0.523819
0.509979
0.495586
0.483804
0.466487
0.451323
0.433648
0.418203
0.403146
0.391346
0.370853
0.321332
0.0746667
0.135213
0.346858
0.891502
0.798364
0.720356
0.687437
0.662383
0.634361
0.604868
0.577484
0.554815
0.537131
0.52412
0.508363
0.492997
0.479861
0.461838
0.445777
0.427948
0.41026
0.391639
0.372027
0.34266
0.287774
0.0809984
0.135266
0.324604
0.854809
0.798319
0.728802
0.694804
0.665184
0.634741
0.604621
0.577324
0.55543
0.536547
0.524331
0.507443
0.490734
0.475359
0.457831
0.440493
0.422487
0.402801
0.381564
0.35757
0.325548
0.280549
0.0860577
0.133196
0.30437
0.813277
0.798236
0.744192
0.70163
0.666445
0.634364
0.603536
0.577032
0.556159
0.537089
0.524895
0.507178
0.488946
0.471147
0.454913
0.435146
0.417096
0.396187
0.374037
0.348701
0.317847
0.280257
0.090014
0.130792
0.283528
0.759842
0.805408
0.760908
0.706291
0.665874
0.632276
0.602345
0.577583
0.557889
0.538738
0.525207
0.506843
0.487335
0.468307
0.451828
0.430922
0.412433
0.391258
0.368154
0.34395
0.314361
0.280759
0.0933729
0.127104
0.259265
0.686357
0.830416
0.77545
0.708418
0.663607
0.63056
0.602173
0.580076
0.560931
0.541796
0.524864
0.507444
0.48645
0.466657
0.448582
0.428363
0.40888
0.388158
0.364651
0.341094
0.313901
0.282518
0.0949589
0.119598
0.222167
0.571024
0.867047
0.791517
0.710076
0.663505
0.629848
0.604046
0.583934
0.564553
0.544702
0.524836
0.508193
0.486597
0.466322
0.446235
0.427819
0.405939
0.385919
0.363144
0.339678
0.314309
0.286483
0.0956877
0.113061
0.184774
0.407581
0.862995
0.791983
0.710443
0.66348
0.629799
0.607929
0.58846
0.568341
0.547182
0.525491
0.508369
0.486952
0.466398
0.446046
0.427395
0.405435
0.384843
0.363138
0.339963
0.31567
0.290722
0.0970656
0.110118
0.167125
0.343227
0.816443
0.784583
0.713405
0.662887
0.632227
0.612967
0.593257
0.571859
0.549464
0.526565
0.508027
0.487537
0.467022
0.44656
0.427108
0.406205
0.384713
0.36349
0.340915
0.318114
0.295716
0.0991045
0.10849
0.15329
0.298603
0.727281
0.77165
0.728583
0.667673
0.639035
0.618767
0.597644
0.574786
0.551394
0.528366
0.507477
0.48912
0.468536
0.44807
0.427728
0.407786
0.385609
0.364714
0.343184
0.321858
0.300254
0.1014
0.107415
0.141922
0.259702
0.62603
0.777883
0.744583
0.682381
0.648666
0.625128
0.601575
0.577143
0.553439
0.53056
0.508766
0.492471
0.471974
0.451123
0.430052
0.410013
0.388585
0.367013
0.347116
0.326344
0.30533
0.102376
0.104856
0.128479
0.214994
0.494869
0.800042
0.765555
0.698715
0.659051
0.63102
0.604898
0.579486
0.555827
0.533476
0.511787
0.495509
0.475724
0.455102
0.434034
0.413084
0.393045
0.3711
0.351128
0.331235
0.311091
0.100207
0.0994585
0.114669
0.175028
0.360682
0.786264
0.767333
0.716607
0.669545
0.636292
0.607912
0.582212
0.558862
0.537364
0.516444
0.496893
0.481061
0.459725
0.438248
0.417375
0.396749
0.376923
0.355072
0.33597
0.316896
0.0974961
0.091535
0.102448
0.146621
0.29413
0.71945
0.763358
0.734002
0.681348
0.641815
0.611633
0.585829
0.562852
0.541916
0.521244
0.500283
0.48534
0.464509
0.44343
0.422483
0.401474
0.381845
0.360891
0.341082
0.322789
0.0953361
0.0844774
0.0919631
0.122263
0.227832
0.569625
0.766966
0.745555
0.692838
0.648537
0.615713
0.590337
0.567833
0.54694
0.526444
0.505381
0.48832
0.469412
0.448706
0.427736
0.407082
0.386678
0.367256
0.347034
0.328769
0.0940554
0.0788828
0.0838117
0.103364
0.169471
0.372871
0.760594
0.746687
0.70577
0.65593
0.621053
0.595875
0.573642
0.552368
0.531879
0.510746
0.490694
0.475517
0.454753
0.433893
0.413135
0.392606
0.373201
0.354315
0.334967
0.0930242
0.0746481
0.0780686
0.0915548
0.137258
0.285855
0.694951
0.740683
0.716691
0.668344
0.629749
0.603117
0.579999
0.558062
0.537024
0.516244
0.495024
0.479508
0.460422
0.440308
0.419717
0.399442
0.379548
0.361074
0.342771
0.0922134
0.0711508
0.07342
0.0822624
0.111568
0.211605
0.533121
0.734219
0.72162
0.68506
0.64196
0.611424
0.586583
0.563748
0.542169
0.521842
0.501068
0.482014
0.467586
0.447313
0.426834
0.406644
0.386944
0.367896
0.35019
0.0915963
0.0686097
0.0701186
0.0758763
0.0941634
0.153516
0.333833
0.712147
0.719754
0.699712
0.656561
0.620899
0.593448
0.569756
0.547802
0.527341
0.507278
0.487052
0.471777
0.45402
0.433999
0.41417
0.394809
0.375827
0.357921
0.0911259
0.0666507
0.0676614
0.0715183
0.0835876
0.122178
0.24983
0.617402
0.716552
0.704993
0.672802
0.63161
0.60117
0.57617
0.553821
0.533198
0.513548
0.493637
0.475426
0.461179
0.441711
0.422129
0.403082
0.384325
0.36638
0.0907948
0.065205
0.065844
0.0682784
0.0756321
0.097753
0.169954
0.397538
0.703435
0.704014
0.687237
0.647545
0.611305
0.584
0.560859
0.53968
0.519778
0.500498
0.48152
0.465588
0.449698
0.430497
0.411647
0.393341
0.375346
0.0905618
0.0641747
0.0645841
0.066187
0.070944
0.0849108
0.128982
0.270725
0.632554
0.701251
0.69114
0.663316
0.622204
0.591917
0.567928
0.546419
0.526294
0.507338
0.488311
0.470535
0.457011
0.438958
0.420571
0.402387
0.384981
0.0904031
0.0634569
0.0637002
0.0646943
0.0676056
0.0758819
0.100677
0.183105
0.443283
0.6866
0.689583
0.675057
0.639955
0.603827
0.576923
0.553985
0.533274
0.513954
0.49567
0.477665
0.461057
0.447913
0.430019
0.412366
0.395012
0.0902996
0.0629816
0.0631222
0.0637449
0.0655882
0.0706711
0.0853402
0.131684
0.277321
0.621137
0.685646
0.677762
0.654807
0.615487
0.58605
0.562057
0.540836
0.521174
0.503077
0.485358
0.468022
0.454637
0.438922
0.422018
0.405286
0.0902963
0.0627067
0.0627762
0.0631431
0.0642489
0.0672465
0.0755888
0.100512
0.183064
0.43829
0.667671
0.676221
0.664366
0.633385
0.598759
0.571218
0.548885
0.528812
0.510523
0.493378
0.476073
0.460279
0.44827
0.432092
0.41597
0.0904107
0.0626334
0.0626512
0.062844
0.0634675
0.0652565
0.0701384
0.0842191
0.128726
0.268099
0.595166
0.670797
0.665234
0.647024
0.61347
0.583195
0.558513
0.537505
0.518514
0.501482
0.484694
0.468787
0.453947
0.442536
0.426815
0.0904688
0.062796
0.0624394
0.0625467
0.0629182
0.0639594
0.066733
0.0743645
0.0969298
0.170719
0.395632
0.646343
0.662795
0.653205
0.629879
0.596068
0.568859
0.54682
0.527343
0.51023
0.493614
0.477903
0.462564
0.450438
0.437627
0.0904933
0.0629138
0.0622951
0.0623551
0.0625693
0.0631691
0.0647745
0.0690586
0.0813094
0.119832
0.243816
0.553578
0.653024
0.651293
0.640242
0.615498
0.582852
0.55786
0.536738
0.519148
0.502891
0.487508
0.472256
0.458494
0.448319
0.0905047
0.0629813
0.0622069
0.0622396
0.0623595
0.0626983
0.0635997
0.0659658
0.072385
0.0910652
0.15049
0.324668
0.612642
0.646571
0.641536
0.627478
0.598817
0.571346
0.54849
0.528763
0.512558
0.497323
0.482527
0.468692
0.455744
0.0905066
0.0630158
0.0621541
0.0621708
0.0622347
0.062418
0.062905
0.064186
0.0675717
0.0771225
0.106477
0.201951
0.475508
0.627466
0.639381
0.632751
0.615341
0.585049
0.561132
0.54019
0.522932
0.507509
0.49289
0.479588
0.466525
0.0905032
0.0630315
0.0621228
0.0621306