/*--------------------------------*- C++ -*----------------------------------*\
| =========                 |                                                 |
| \\      /  F ield         | OpenFOAM: The Open Source CFD Toolbox           |
|  \\    /   O peration     | Version:  4.1                                   |
|   \\  /    A nd           | Web:      www.OpenFOAM.org                      |
|    \\/     M anipulation  |                                                 |
\*---------------------------------------------------------------------------*/
FoamFile
{
    version     2.0;
    format      ascii;
    class       surfaceScalarField;
    location    "0.84";
    object      phi;
}
// * * * * * * * * * * * * * * * * * * * * * * * * * * * * * * * * * * * * * //

dimensions      [1 0 -1 0 0 0 0];

internalField   nonuniform List<scalar> 
150500
(
0.00160801
-2.53848e-06
5.3727e-11
0.00168728
5.30248e-06
3.71128e-11
0.00163123
0.000141968
1.16286e-10
0.00157696
0.000119806
1.59741e-10
0.00138199
8.13969e-05
7.78095e-11
0.00125828
6.94e-05
1.07519e-10
0.00123806
6.8959e-05
1.30706e-10
0.00125414
7.12283e-05
1.5196e-10
0.00127731
7.38751e-05
1.72985e-10
0.0012802
7.47812e-05
1.72352e-10
0.00126536
7.32478e-05
1.10174e-10
0.00133426
7.38773e-05
9.02752e-11
0.00137496
7.64268e-05
9.0208e-11
0.00134145
7.6324e-05
2.26436e-11
0.0012642
7.56261e-05
-1.118e-11
0.00114054
7.47888e-05
-7.21581e-11
0.00101746
7.46476e-05
-5.08254e-11
0.00093042
7.67741e-05
-2.11124e-11
0.00086506
8.04209e-05
3.19459e-11
0.000792274
8.46375e-05
9.75504e-11
0.000691502
8.90376e-05
1.52605e-10
0.000550097
9.41884e-05
2.1578e-10
0.000401747
0.000100829
2.04362e-10
0.000223354
0.000108351
1.70867e-10
0.000119907
1.89175e-10
0.00160991
-7.58947e-06
-8.33768e-13
0.00168838
9.64359e-06
1.28988e-11
0.00162519
0.000291003
1.27409e-10
0.00157472
0.000238644
1.67033e-10
0.00138168
0.000160245
7.72792e-11
0.00125907
0.00013883
1.0174e-10
0.00123845
0.000139453
1.21928e-10
0.00125517
0.000144323
1.44505e-10
0.00127783
0.000149272
1.65067e-10
0.00127915
0.000150195
1.21124e-10
0.00126383
0.000146508
3.6058e-11
0.0013328
0.00014735
2.15805e-10
0.00137614
0.000150915
5.95415e-11
0.00134614
0.000150241
2.53209e-11
0.00127071
0.000149621
-6.8111e-12
0.00114905
0.000148324
-9.29713e-11
0.00102508
0.000149095
-5.54603e-11
0.0009375
0.000153658
-2.72247e-11
0.000871541
0.000161323
2.77013e-11
0.00079851
0.000169737
8.84585e-11
0.000696736
0.000178582
1.42697e-10
0.000554129
0.000189477
2.05546e-10
0.000404264
0.000202993
1.96576e-10
0.000223359
0.00021866
1.78946e-10
0.000240458
2.03325e-10
0.00161129
-1.15974e-05
1.28698e-11
0.00168335
1.62051e-05
1.64481e-11
0.00161163
0.000449965
1.12255e-10
0.00157934
0.000347045
1.58089e-10
0.0013895
0.000235152
8.14757e-11
0.00126782
0.000210142
1.09339e-10
0.00124734
0.000210893
1.27137e-10
0.00126581
0.000218254
1.36362e-10
0.00128739
0.000225818
1.68074e-10
0.00128534
0.000225978
9.11992e-11
0.0012676
0.000219606
2.11411e-11
0.0013342
0.000220125
2.44688e-10
0.00138064
0.000224179
5.19424e-11
0.00135513
0.000223513
2.98333e-11
0.00128128
0.000222694
5.47071e-13
0.00116256
0.0002217
-5.80354e-11
0.00103651
0.000222734
-2.79683e-11
0.000948137
0.000229994
-2.00666e-11
0.000881506
0.000241815
1.8136e-11
0.000808839
0.000254633
8.1887e-11
0.000706162
0.000268302
1.32663e-10
0.00056231
0.000285543
1.93213e-10
0.000410733
0.000306725
1.87717e-10
0.000226934
0.000331464
1.89292e-10
0.000365401
2.18484e-10
0.00161427
-1.31819e-05
4.03878e-11
0.001675
2.71589e-05
2.49515e-11
0.00158263
0.000630332
9.48507e-11
0.00159337
0.000410738
1.29705e-10
0.00140252
0.000315604
7.79917e-11
0.00128478
0.000285544
1.09668e-10
0.0012645
0.000284471
1.15485e-10
0.00128319
0.000294509
1.11838e-10
0.00130151
0.00030351
1.24567e-10
0.00129429
0.000301993
1.04277e-10
0.00127207
0.000292183
5.21991e-11
0.00133368
0.00029113
1.87933e-10
0.00138542
0.000296375
9.90657e-12
0.00136724
0.000296204
-4.51237e-12
0.00129566
0.000294604
-1.3864e-11
0.00118182
0.000293905
-3.4289e-11
0.00105364
0.000295724
-2.87603e-11
0.000964501
0.000305371
-2.58748e-11
0.000896539
0.00032155
5.61319e-12
0.000824727
0.000338755
7.73287e-11
0.000721185
0.000357719
1.27202e-10
0.000575688
0.000382428
1.83976e-10
0.000421744
0.000412336
1.82541e-10
0.00023303
0.000449073
2.05627e-10
0.000497824
2.41084e-10
0.00162296
-1.61945e-05
2.19934e-11
0.0016735
3.66565e-05
4.27418e-12
0.00157338
0.000791148
2.96007e-11
0.001585
0.000489676
1.60561e-10
0.00141628
0.000388908
8.61909e-11
0.00130888
0.000359899
8.52584e-11
0.00128927
0.000360235
1.00533e-10
0.00130592
0.000373192
9.08292e-11
0.001319
0.000382155
9.6076e-11
0.00130547
0.000377974
1.1714e-10
0.00127829
0.000364715
1.0677e-10
0.0013317
0.00036162
6.9577e-14
0.00139021
0.000367342
9.04658e-11
0.00138168
0.000368851
2.32537e-12
0.00131365
0.000366098
1.47424e-11
0.00120652
0.000365995
7.68911e-12
0.00107607
0.000368298
-6.72629e-12
0.000985437
0.000379393
-2.466e-11
0.000915328
0.000399534
-3.72009e-13
0.0008452
0.000421684
6.18083e-11
0.000741582
0.000446665
1.19818e-10
0.000594663
0.000480066
1.7792e-10
0.000437151
0.000520719
1.81326e-10
0.000242748
0.000573146
2.20035e-10
0.000642542
2.64407e-10
0.0016356
-1.82412e-05
2.38473e-11
0.00167753
4.44602e-05
3.21403e-12
0.0015897
0.00090731
-4.60874e-12
0.00159456
0.00061238
2.21452e-10
0.00143847
0.000464915
9.73821e-11
0.00134162
0.000437006
7.34165e-11
0.00132051
0.000440164
8.15964e-11
0.00133297
0.000454855
7.47813e-11
0.00133921
0.000462305
7.08708e-11
0.00131857
0.0004546
1.12864e-10
0.00128626
0.000437756
1.04187e-10
0.00132763
0.000431043
-1.01085e-10
0.00139463
0.000437483
6.20928e-11
0.00139703
0.000441649
-2.07274e-11
0.00133452
0.000437897
3.50778e-11
0.00123546
0.000438292
1.0407e-11
0.00110354
0.000440593
1.32063e-11
0.00101096
0.000451813
-1.25854e-11
0.000938092
0.000475086
1.25912e-11
0.00087048
0.000502764
4.4219e-11
0.000768242
0.000534492
1.03903e-10
0.000620634
0.000578237
1.71702e-10
0.000458959
0.000633287
1.78911e-10
0.000257611
0.000706416
2.18503e-10
0.000806751
2.64466e-10
0.00165339
-1.94415e-05
1.39893e-11
0.00169131
4.87939e-05
3.42309e-12
0.00164378
0.000959708
4.16401e-12
0.00162802
0.000744621
1.82415e-10
0.00147623
0.000555462
8.51765e-11
0.00138414
0.00052411
6.91489e-11
0.00135721
0.000526783
7.3901e-11
0.00136305
0.000541368
7.19681e-11
0.00136098
0.000544826
6.27433e-11
0.00133293
0.000532339
9.1679e-11
0.0012964
0.000511278
4.35595e-11
0.00132306
0.00049963
-1.12575e-10
0.00139833
0.000506225
3.40543e-11
0.00141243
0.000513804
1.8064e-11
0.00135799
0.000510523
3.59765e-11
0.00126849
0.000511026
-1.97519e-11
0.00113664
0.000513052
1.18109e-11
0.00104135
0.000522499
-3.05198e-11
0.00096589
0.000547373
6.86156e-11
0.000900351
0.000580703
-5.27353e-12
0.00080244
0.000619797
7.32464e-11
0.000655562
0.000677024
1.58563e-10
0.000490584
0.000749926
1.70569e-10
0.000281114
0.000850884
2.07353e-10
0.00100006
2.58043e-10
0.00167765
-2.13128e-05
1.44878e-11
0.00171806
4.71266e-05
1.08002e-11
0.00175107
0.000913248
2.32332e-11
0.00168898
0.000893242
1.48963e-10
0.00153296
0.00067294
6.40589e-11
0.00143445
0.000629777
6.45983e-11
0.00139763
0.000623506
6.79836e-11
0.00139462
0.000632853
6.14297e-11
0.00138339
0.000629283
4.72363e-11
0.0013482
0.000610615
4.3944e-11
0.00130792
0.000584732
1.0967e-12
0.00131827
0.000566254
-1.62003e-11
0.0014002
0.000572653
-4.92454e-11
0.0014277
0.000584735
5.01503e-11
0.00138341
0.000583359
7.42912e-11
0.00130434
0.000584369
-9.13536e-11
0.001175
0.000584513
6.42648e-11
0.00107601
0.000591503
-3.3214e-11
0.00100011
0.000616417
5.58057e-11
0.000936348
0.000654236
-1.29114e-11
0.000844487
0.000702573
4.85887e-11
0.000703498
0.000771769
1.44234e-10
0.000537382
0.000870332
1.55361e-10
0.000317572
0.00100836
1.91746e-10
0.00123765
2.45835e-10
0.00170851
-2.43542e-05
1.2798e-11
0.00176176
3.51641e-05
1.85923e-11
0.00192749
0.000709315
5.70406e-11
0.00179289
0.00105913
1.14682e-10
0.00160002
0.000821403
2.98459e-11
0.00148606
0.00075853
5.82707e-11
0.00143778
0.000731699
6.36829e-11
0.00142531
0.000728393
5.04068e-11
0.00140524
0.000715378
3.50974e-11
0.00136389
0.000688752
7.44382e-12
0.00132039
0.000656605
-4.81209e-11
0.00131569
0.000630098
4.58389e-11
0.00139985
0.000635537
-5.4126e-11
0.00144246
0.000653718
4.10816e-11
0.00141115
0.000655857
8.68731e-11
0.00134165
0.000657045
-7.71563e-11
0.00121953
0.000655075
1.47553e-10
0.00111509
0.000659034
-9.35556e-11
0.00103977
0.000682795
2.10521e-12
0.000978636
0.000722693
-3.97007e-11
0.000895432
0.000778745
6.67838e-11
0.000768876
0.000855554
1.29148e-10
0.000609456
0.000988828
1.32583e-10
0.000378541
0.00117514
1.78348e-10
0.00154898
2.20863e-10
0.00174706
6.16238e-12
-2.89734e-05
0.001838
3.00038e-11
4.78021e-06
0.00214496
1.48441e-10
0.00037015
0.00188532
9.32297e-11
0.00125709
0.00165319
1.48146e-11
0.00100518
0.0015307
5.68397e-11
0.000904917
0.00147504
7.07762e-11
0.000846905
0.00145352
5.2412e-11
0.000826522
0.00142517
3.92662e-11
0.000801339
0.00137896
9.76287e-12
0.000765379
0.00133235
-3.20601e-11
0.000725986
0.0013168
4.99436e-11
0.000693125
0.00139904
-6.19965e-11
0.000696281
0.00145638
1.01108e-11
0.000721353
0.00144068
6.91316e-11
0.000728584
0.00137802
-1.52396e-11
0.000728215
0.0012689
7.74995e-11
0.000725094
0.00115897
-4.45032e-11
0.000724536
0.00108487
-1.04558e-11
0.000744755
0.00102486
-1.96556e-11
0.000785106
0.000955555
4.34806e-11
0.00084456
0.000854248
9.84575e-11
0.00092906
0.000715042
1.34897e-10
0.00107871
0.000509327
1.60958e-10
0.00132037
1.79968e-10
0.00200075
0.00160803
-2.5737e-06
-3.26015e-11
0.00168738
5.26944e-06
1.11089e-11
0.00163133
0.000142014
7.03422e-11
0.00157695
0.000119868
-1.89099e-11
0.00138195
8.14103e-05
-1.16226e-11
0.00125815
6.94124e-05
-2.71364e-11
0.00123787
6.90014e-05
-3.03947e-11
0.00125388
7.12961e-05
-6.04683e-11
0.00127699
7.39586e-05
-1.24152e-10
0.00127986
7.47881e-05
-1.1584e-10
0.00126509
7.31979e-05
8.12268e-12
0.00133404
7.38893e-05
-1.59345e-10
0.00137479
7.62804e-05
-7.26239e-11
0.00134139
7.6148e-05
-2.03696e-11
0.0012642
7.55346e-05
-8.53525e-11
0.00114061
7.47181e-05
5.91003e-11
0.0010175
7.4664e-05
4.74178e-12
0.000930419
7.68001e-05
5.14399e-11
0.000865046
8.04532e-05
8.40265e-11
0.000792253
8.46622e-05
6.7704e-11
0.000691522
8.90619e-05
1.1114e-11
0.000550174
9.42058e-05
-6.53996e-11
0.000401908
0.000100832
-7.40012e-11
0.000223537
0.00010835
-9.72186e-11
0.000119887
-1.31004e-10
0.00160989
-7.58086e-06
1.24366e-11
0.00168837
9.64604e-06
4.35536e-11
0.0016253
0.00029097
5.66253e-11
0.00157491
0.000238677
-2.36024e-11
0.00138196
0.000160248
-1.31655e-11
0.00125934
0.000138802
-2.83958e-11
0.00123877
0.000139411
-2.76157e-11
0.00125558
0.000144276
-5.44242e-11
0.00127837
0.000149214
-1.04076e-10
0.00127977
0.000150074
-6.71517e-11
0.0012643
0.000146345
5.74846e-11
0.00133308
0.000147126
-2.34421e-10
0.00137666
0.000150729
-6.5398e-11
0.00134681
0.000150211
-2.98225e-11
0.00127127
0.000149689
-7.86548e-11
0.00114954
0.000148505
5.85509e-11
0.00102533
0.00014924
1.05506e-11
0.000937606
0.000153765
5.14131e-11
0.00087157
0.000161393
8.1004e-11
0.00079851
0.000169817
7.94428e-11
0.000696762
0.000178646
1.50645e-11
0.000554202
0.000189516
-5.8246e-11
0.000404411
0.000203002
-6.77092e-11
0.000223521
0.000218655
-1.0073e-10
0.000240413
-1.37976e-10
0.00161129
-1.15721e-05
-5.05233e-12
0.00168338
1.62209e-05
3.95186e-11
0.0016117
0.000449938
1.0959e-10
0.00157946
0.000347072
-1.4947e-11
0.00138971
0.000235115
-2.16026e-11
0.00126806
0.000210049
-3.9933e-11
0.00124761
0.000210784
-3.46428e-11
0.00126616
0.000218133
-4.42113e-11
0.0012878
0.000225648
-8.38539e-11
0.00128577
0.000225787
-3.37871e-11
0.00126778
0.000219381
3.87341e-11
0.00133409
0.000219758
-2.2424e-10
0.00138072
0.00022399
-4.46216e-11
0.00135535
0.000223581
-5.11161e-11
0.00128146
0.000222855
-7.87702e-11
0.00116274
0.000222005
1.03806e-11
0.00103658
0.000222941
-1.61026e-11
0.000948143
0.000230156
3.01396e-11
0.000881492
0.000241935
7.72262e-11
0.000808807
0.000254758
4.61388e-11
0.000706169
0.000268404
1.34544e-11
0.000562367
0.000285601
-5.14425e-11
0.000410863
0.000306739
-6.09721e-11
0.000227081
0.000331442
-1.03868e-10
0.000365324
-1.45996e-10
0.00161429
-1.31921e-05
-2.26882e-11
0.00167509
2.71566e-05
3.67691e-11
0.00158275
0.000630357
1.55525e-10
0.0015935
0.000410818
7.28743e-12
0.00140261
0.000315531
-2.75528e-11
0.00128488
0.000285411
-4.63721e-11
0.00126462
0.000284317
-2.89587e-11
0.00128334
0.000294351
-2.22429e-11
0.00130168
0.000303319
-3.34347e-11
0.00129442
0.000301795
-4.47621e-11
0.00127201
0.000292002
-3.52657e-11
0.00133338
0.000290776
-1.10256e-10
0.00138516
0.000296329
-2.3533e-11
0.00136698
0.000296382
-1.59965e-11
0.00129537
0.000294852
-4.1601e-11
0.00118148
0.000294208
-5.31566e-11
0.0010534
0.000295964
-2.42731e-11
0.000964335
0.000305563
1.89311e-11
0.000896454
0.000321707
6.65122e-11
0.000824639
0.000338893
3.10099e-11
0.000721151
0.000357822
4.19677e-12
0.000575714
0.000382477
-4.88074e-11
0.000421856
0.000412342
-5.7522e-11
0.000233151
0.000449014
-1.08217e-10
0.000497713
-1.5928e-10
0.00162296
-1.61942e-05
-1.00793e-11
0.00167353
3.66639e-05
6.86808e-11
0.00157347
0.000791262
3.01765e-10
0.0015851
0.000489669
-6.5883e-11
0.00141632
0.000388839
-2.90672e-11
0.00130887
0.000359765
-2.85592e-11
0.00128925
0.000360077
-2.10621e-11
0.0013059
0.000373027
-2.32188e-12
0.00131898
0.000381979
-1.06044e-12
0.00130543
0.000377799
-5.46205e-11
0.0012782
0.000364556
-9.0348e-11
0.00133174
0.000361524
8.86781e-11
0.00139006
0.00036748
-8.814e-11
0.00138132
0.000369119
-1.10287e-11
0.00131321
0.000366429
-7.77889e-11
0.00120592
0.000366314
-9.3168e-11
0.00107557
0.000368501
-6.39495e-11
0.000985077
0.000379538
1.02498e-11
0.000915122
0.000399654
5.74839e-11
0.000845044
0.000421781
2.69871e-11
0.000741503
0.000446733
-2.60883e-12
0.000594651
0.00048009
-5.13828e-11
0.000437235
0.000520693
-6.0218e-11
0.000242844
0.000573054
-1.11934e-10
0.000642409
-1.78481e-10
0.0016356
-1.82492e-05
-1.02518e-11
0.00167755
4.44674e-05
7.9703e-11
0.0015898
0.000907476
3.96401e-10
0.00159462
0.000612388
-1.87774e-10
0.00143849
0.000464846
-5.62994e-11
0.00134159
0.000436886
-2.35949e-11
0.00132046
0.000440031
-6.74679e-12
0.00133287
0.000454735
1.01487e-11
0.00133907
0.000462201
2.73264e-11
0.00131838
0.000454516
-4.82527e-11
0.00128598
0.000437687
-8.37851e-11
0.00132763
0.00043105
2.22376e-10
0.00139436
0.000437743
-1.24998e-10
0.00139651
0.000441955
-1.24792e-11
0.00133391
0.000438174
-1.13114e-10
0.00123474
0.0004385
-9.08016e-11
0.00110297
0.000440699
-8.36541e-11
0.00101055
0.00045187
-2.04183e-12
0.000937838
0.000475129
2.6109e-11
0.000870291
0.000502774
3.33053e-11
0.000768123
0.000534501
-1.86771e-12
0.000620585
0.000578214
-5.48103e-11
0.000459003
0.000633227
-6.36611e-11
0.000257674
0.000706288
-1.10607e-10
0.000806578
-1.8836e-10
0.00165339
-1.9441e-05
-4.7523e-12
0.00169132
4.8806e-05
8.59095e-11
0.00164387
0.000959888
4.42645e-10
0.0016281
0.000744666
-1.66179e-10
0.00147626
0.000555404
-6.65789e-11
0.00138412
0.00052401
-2.44669e-11
0.00135715
0.000526684
-1.11684e-14
0.00136293
0.000541303
1.16369e-11
0.00136082
0.000544809
3.00285e-11
0.0013327
0.000532361
-2.43047e-11
0.00129608
0.000511318
-1.24929e-11
0.00132322
0.000499831
1.77078e-10
0.00139811
0.000506624
-6.20743e-11
0.00141177
0.000514133
-6.87232e-11
0.00135713
0.000510665
-1.11748e-10
0.00126745
0.000511017
-6.65709e-11
0.00113585
0.000512919
-7.71176e-11
0.00104088
0.000522409
1.72085e-11
0.000965621
0.000547338
-3.61478e-11
0.000900197
0.000580658
9.2255e-11
0.000802326
0.000619753
1.39768e-11
0.000655496
0.000676955
-5.23717e-11
0.000490589
0.00074983
-6.42732e-11
0.00028113
0.000850731
-1.06342e-10
0.000999857
-1.88277e-10
0.00167765
-2.13146e-05
-5.16927e-12
0.00171807
4.71374e-05
8.3122e-11
0.00175118
0.000913418
4.69615e-10
0.00168908
0.00089331
-1.552e-10
0.00153301
0.000672908
-7.3382e-11
0.00143444
0.000629707
-2.38568e-11
0.00139757
0.000623447
4.86198e-12
0.00139452
0.000632846
2.67118e-11
0.00138325
0.000629353
4.11941e-11
0.00134799
0.000610741
8.67351e-12
0.00130762
0.00058488
1.39261e-11
0.00131861
0.000566644
6.52542e-11
0.00140026
0.000573219
3.0525e-11
0.00142708
0.000585084
-6.47582e-11
0.00138248
0.000583402
-1.24174e-10
0.00130318
0.00058418
1.71312e-11
0.00117404
0.000584216
-1.13744e-10
0.00107549
0.000591254
2.0064e-11
0.00099979
0.000616259
-1.95664e-11
0.000936224
0.000654155
8.29856e-11
0.000844388
0.000702511
1.93911e-11
0.000703433
0.000771654
-4.84271e-11
0.000537362
0.000870214
-5.89215e-11
0.000317552
0.00100819
-9.94933e-11
0.00123741
-1.75138e-10
0.00170852
-2.43616e-05
-5.04009e-12
0.00176177
3.51686e-05
7.56667e-11
0.00192765
0.000709403
4.72592e-10
0.00179303
0.00105921
-1.16148e-10
0.00160009
0.00082141
-5.72636e-11
0.00148606
0.000758492
-1.70945e-11
0.00143773
0.000731674
8.26263e-12
0.00142524
0.000728424
3.40276e-11
0.00140513
0.000715505
4.57923e-11
0.00136369
0.000688947
3.30709e-11
0.00132015
0.000656875
5.44161e-11
0.00131601
0.000630547
1.43977e-11
0.00140006
0.000636151
3.63298e-11
0.00144203
0.000654038
-5.76339e-11
0.0014103
0.000655801
-1.1062e-10
0.00134068
0.000656821
1.26465e-11
0.00121857
0.000654672
-1.59175e-10
0.00111461
0.000658763
7.18275e-11
0.00103945
0.00068261
2.8043e-11
0.000978523
0.000722594
9.11096e-11
0.000895327
0.000778656
5.1183e-12
0.000768817
0.00085541
-4.4087e-11
0.00060942
0.000988684
-4.71472e-11
0.000378494
0.00117495
-9.83591e-11
0.00154871
-1.46724e-10
0.00174707
-6.37361e-12
-2.89802e-05
0.00183801
5.42127e-11
4.77481e-06
0.00214515
3.72592e-10
0.000370135
0.00188547
-1.50666e-11
0.00125719
0.00165327
-2.87142e-11
0.00100522
0.00153072
-1.15683e-11
0.000904913
0.001475
5.86688e-12
0.0008469
0.00145347
2.40581e-11
0.000826575
0.00142511
3.34736e-11
0.000801492
0.00137882
2.4197e-11
0.000765597
0.00133219
4.79955e-11
0.000726274
0.00131704
1.35459e-11
0.000693511
0.00139931
3.30453e-11
0.000696837
0.00145615
-2.72622e-11
0.000721616
0.00144008
-8.10751e-11
0.000728512
0.00137734
-1.15063e-11
0.000728002
0.00126817
-8.65712e-11
0.00072474
0.00115858
4.32581e-11
0.000724307
0.00108461
4.08555e-11
0.000744601
0.00102476
7.16396e-11
0.000785006
0.000955463
1.3751e-11
0.000844466
0.000854167
-2.21547e-11
0.000928912
0.000714997
-5.75789e-11
0.00107854
0.000509319
-9.2216e-11
0.00132017
-1.10743e-10
0.0020005
0.00160803
-2.54763e-06
8.08261e-12
0.00168732
5.29457e-06
2.65328e-11
0.0016313
0.00014199
7.79405e-11
0.001577
0.000119833
6.69562e-11
0.00138202
8.14091e-05
-7.11734e-13
0.00125827
6.94136e-05
-6.49229e-12
0.001238
6.89891e-05
6.27635e-13
0.00125401
7.12804e-05
4.0759e-12
0.0012771
7.39588e-05
4.69695e-12
0.00127995
7.48621e-05
-4.64276e-12
0.00126518
7.33139e-05
-2.23051e-11
0.00133416
7.3979e-05
-3.41078e-11
0.00137459
7.64148e-05
-7.53691e-11
0.00134091
7.62317e-05
-1.00117e-10
0.00126369
7.55413e-05
-1.20874e-10
0.00114003
7.46872e-05
-9.97955e-11
0.00101716
7.45974e-05
-8.89622e-11
0.000930227
7.67408e-05
-2.977e-11
0.00086498
8.03983e-05
1.93408e-11
0.000792234
8.46168e-05
8.58793e-11
0.000691515
8.90238e-05
1.07244e-10
0.000550147
9.41759e-05
1.25902e-10
0.000401842
0.000100813
1.23652e-10
0.000223454
0.000108335
1.12408e-10
0.000119882
8.4455e-11
0.00160992
-7.5903e-06
4.37652e-12
0.0016884
9.64416e-06
2.18737e-11
0.00162525
0.000291023
7.89211e-11
0.00157481
0.000238671
6.66675e-11
0.0013818
0.000160256
-3.7426e-14
0.00125916
0.000138841
-6.4468e-12
0.00123853
0.000139477
5.3124e-13
0.00125524
0.000144369
3.74693e-12
0.00127788
0.00014936
3.93506e-12
0.00127919
0.000150292
-9.98369e-12
0.0012639
0.000146599
-3.87849e-11
0.00133287
0.000147459
-3.57603e-11
0.00137605
0.000150905
-6.97265e-11
0.00134592
0.000150134
-9.80207e-11
0.00127046
0.000149528
-1.18353e-10
0.00114877
0.000148213
-9.7959e-11
0.00102492
0.00014905
-8.82715e-11
0.000937397
0.000153632
-2.76248e-11
0.000871511
0.000161308
1.88056e-11
0.000798495
0.000169719
8.33108e-11
0.000696755
0.000178567
1.03389e-10
0.000554174
0.00018946
1.20606e-10
0.000404347
0.000202967
1.18399e-10
0.000223444
0.00021863
1.0799e-10
0.000240405
8.52722e-11
0.0016113
-1.1589e-05
5.06391e-12
0.00168337
1.62138e-05
2.18087e-11
0.00161167
0.00045
7.86151e-11
0.00157942
0.000347064
6.50936e-11
0.00138962
0.000235152
-2.32894e-13
0.00126793
0.000210142
-5.06192e-12
0.00124744
0.000210905
1.10737e-12
0.00126591
0.000218288
2.92426e-12
0.0012875
0.000225884
2.75072e-12
0.00128545
0.000226063
-1.51547e-11
0.00126771
0.000219683
-4.04859e-11
0.00133425
0.0002202
-2.12872e-11
0.00138061
0.000224149
-6.32202e-11
0.00135505
0.000223442
-9.49928e-11
0.00128118
0.000222624
-1.09559e-10
0.00116243
0.000221661
-1.0356e-10
0.00103641
0.000222698
-7.9559e-11
0.000948068
0.000229977
-2.41737e-11
0.00088149
0.000241795
1.78412e-11
0.000808836
0.000254622
7.92011e-11
0.000706186
0.000268291
9.83661e-11
0.000562355
0.000285524
1.13486e-10
0.000410811
0.000306692
1.11483e-10
0.000227015
0.00033142
1.03042e-10
0.000365321
8.55672e-11
0.0016143
-1.31851e-05
3.9516e-12
0.00167504
2.71643e-05
2.11445e-11
0.00158268
0.000630402
7.91187e-11
0.00159346
0.000410732
6.47351e-11
0.00140261
0.00031561
-1.97822e-12
0.00128487
0.000285531
-5.32778e-12
0.00126459
0.000284463
-1.31506e-13
0.00128329
0.000294524
-1.25799e-12
0.00130161
0.000303554
-2.90771e-12
0.00129439
0.000302065
-1.25419e-11
0.00127211
0.000292273
-2.81524e-11
0.00133359
0.000291126
-9.61652e-12
0.00138533
0.000296377
-9.45359e-11
0.00136713
0.000296189
-9.76596e-11
0.00129554
0.000294573
-1.11435e-10
0.00118166
0.00029386
-9.60153e-11
0.00105356
0.000295724
-6.84264e-11
0.000964474
0.000305399
-1.78597e-11
0.000896568
0.000321577
2.02161e-11
0.000824747
0.000338765
7.35667e-11
0.000721214
0.000357712
9.19428e-11
0.000575732
0.000382401
1.02337e-10
0.000421814
0.000412295
1.0089e-10
0.0002331
0.000449004
9.46854e-11
0.000497726
8.52102e-11
0.00162298
-1.61935e-05
3.11172e-12
0.00167353
3.66633e-05
2.38516e-11
0.00157348
0.000791214
1.14579e-10
0.00158506
0.000489714
1.72207e-11
0.00141636
0.000388891
5.58578e-13
0.00130895
0.000359872
-6.02218e-12
0.00128933
0.000360212
-6.09167e-12
0.001306
0.000373182
-8.60188e-12
0.0013191
0.000382169
-1.14293e-11
0.00130559
0.000378003
-1.19569e-11
0.00127841
0.000364753
-1.96927e-11
0.0013318
0.000361712
-3.63513e-11
0.00139029
0.000367366
-8.09011e-11
0.00138171
0.000368866
-9.19701e-11
0.00131363
0.000366138
-8.796e-11
0.00120644
0.000366026
-8.33529e-11
0.001076
0.000368351
-5.43096e-11
0.000985396
0.000379449
-1.49638e-11
0.000915337
0.000399582
1.97735e-11
0.000845216
0.0004217
6.3175e-11
0.000741608
0.000446653
8.29123e-11
0.000594699
0.000480032
9.09286e-11
0.000437211
0.000520659
9.05008e-11
0.000242808
0.000573058
8.43286e-11
0.000642439
8.11686e-11
0.00163562
-1.82445e-05
1.56256e-12
0.00167757
4.44642e-05
2.95199e-11
0.00158983
0.000907363
1.47267e-10
0.00159465
0.000612428
-1.8833e-11
0.00143855
0.000464898
-1.17199e-11
0.00134169
0.000436972
-1.32649e-11
0.00132057
0.000440131
-1.38455e-11
0.00133304
0.000454836
-1.37927e-11
0.00133927
0.000462302
-1.69493e-11
0.00131864
0.000454628
-6.34388e-12
0.0012863
0.000437789
-1.70948e-11
0.00132748
0.000431027
-9.66113e-11
0.00139457
0.000437464
-2.54133e-11
0.00139707
0.000441697
-8.77944e-11
0.00133457
0.000438003
-5.53363e-11
0.00123551
0.000438407
-7.72915e-11
0.00110354
0.000440709
-4.10961e-11
0.00101094
0.000451883
-7.75747e-12
0.00093808
0.000475123
2.12911e-11
0.000870482
0.000502761
5.00121e-11
0.000768257
0.000534468
7.26433e-11
0.00062066
0.00057819
7.98e-11
0.000459001
0.000633216
7.90891e-11
0.000257655
0.000706313
7.30268e-11
0.000806638
7.20436e-11
0.00165342
-1.94413e-05
-7.86128e-13
0.00169135
4.87968e-05
3.20748e-11
0.00164394
0.000959722
1.51205e-10
0.00162813
0.000744686
-3.38728e-11
0.00147633
0.000555452
-2.39464e-11
0.00138422
0.000524079
-1.90602e-11
0.00135727
0.000526747
-1.84943e-11
0.0013631
0.000541343
-1.76345e-11
0.00136104
0.000544821
-2.80121e-11
0.001333
0.000532369
-1.21267e-11
0.00129646
0.000511329
-3.32605e-11
0.0013229
0.00049959
-8.79239e-11
0.0013982
0.000506238
-4.06765e-11
0.0014124
0.000513918
-6.40012e-11
0.00135796
0.000510665
-4.89892e-11
0.00126848
0.000511157
-7.95777e-11
0.00113663
0.000513155
-4.01745e-11
0.00104134
0.000522548
-2.43437e-11
0.000965887
0.000547397
6.07172e-11
0.000900356
0.000580675
9.86628e-12
0.000802455
0.000619754
5.22039e-11
0.00065558
0.000676966
6.57095e-11
0.000490606
0.000749846
6.49483e-11
0.000281133
0.000850776
6.16855e-11
0.000999947
6.14572e-11
0.00167768
-2.13145e-05
-2.97667e-12
0.0017181
4.71237e-05
2.61118e-11
0.00175128
0.000913186
1.49408e-10
0.00168913
0.000893319
-5.12107e-11
0.00153307
0.000672949
-3.47861e-11
0.00143453
0.000629761
-1.90228e-11
0.00139768
0.000623474
-1.71769e-11
0.00139466
0.000632829
-2.58961e-11
0.00138344
0.000629285
-3.36923e-11
0.00134825
0.000610648
-2.32126e-11
0.00130798
0.000584783
-3.43007e-11
0.00131831
0.000566297
-5.42518e-11
0.00140021
0.000572775
-6.99488e-11
0.00142764
0.000584916
-5.09405e-11
0.00138331
0.000583527
-2.79442e-11
0.0013042
0.000584477
-9.87133e-11
0.00117487
0.000584558
-1.48559e-11
0.00107595
0.000591491
-2.8115e-11
0.00100008
0.000616388
3.69347e-11
0.000936363
0.00065419
4.31837e-12
0.000844505
0.000702523
3.87295e-11
0.000703513
0.000771695
5.35507e-11
0.000537392
0.000870248
5.1714e-11
0.000317575
0.00100825
5.14804e-11
0.00123753
5.25833e-11
0.00170855
-2.43616e-05
-4.56514e-12
0.00176181
3.51493e-05
2.69351e-11
0.00192779
0.000709108
1.71928e-10
0.0017931
0.00105921
-5.52773e-11
0.00160014
0.000821448
-3.26648e-11
0.00148613
0.000758533
-1.72489e-11
0.00143782
0.000731677
-1.56265e-11
0.00142535
0.00072837
-2.64227e-11
0.00140527
0.000715385
-3.21607e-11
0.0013639
0.000688786
-2.02429e-11
0.00132039
0.000656669
-2.7698e-11
0.00131577
0.00063019
-5.00687e-11
0.00139995
0.000635741
-5.26257e-11
0.00144243
0.000653938
-4.81581e-11
0.00141101
0.000656008
-2.9171e-11
0.00134149
0.000657139
-7.0107e-11
0.00121933
0.000655073
-8.17444e-12
0.001115
0.000658994
-4.42129e-11
0.00103971
0.000682735
7.88986e-12
0.000978644
0.000722638
-1.23328e-12
0.000895438
0.00077868
3.89544e-11
0.000768887
0.000855464
4.39827e-11
0.000609465
0.000988745
4.23653e-11
0.000378535
0.00117504
4.4313e-11
0.00154885
4.45209e-11
0.0017471
-7.02994e-12
-2.89788e-05
0.00183806
2.17228e-11
4.76156e-06
0.00214526
1.62204e-10
0.00036994
0.0018855
-2.09815e-11
0.00125718
0.0016533
-2.53291e-11
0.00100524
0.00153077
-1.3797e-11
0.000904932
0.00147507
-1.05221e-11
0.000846887
0.00145354
-1.6583e-11
0.000826499
0.00142519
-2.44355e-11
0.000801347
0.00137895
-1.14478e-11
0.000765408
0.00133233
-2.37199e-11
0.000726041
0.00131689
-5.88566e-11
0.000693204
0.00139921
-3.25076e-11
0.000696518
0.0014564
-5.09639e-11
0.000721575
0.00144057
-5.14575e-11
0.000728711
0.00137789
-6.34228e-11
0.000728288
0.00126872
-5.99288e-11
0.000725083
0.00115887
-3.16232e-11
0.000724493
0.00108481
4.69823e-12
0.000744693
0.00102486
7.3578e-12
0.00078504
0.000955559
3.01094e-11
0.000844494
0.00085425
3.68691e-11
0.000928967
0.000715056
3.52732e-11
0.00107862
0.00050933
3.68289e-11
0.00132028
3.58958e-11
0.00200063
0.00160803
-2.55018e-06
-4.53949e-11
0.00168734
5.29199e-06
4.46903e-11
0.00163131
0.000141998
2.16132e-10
0.00157701
0.000119841
8.49449e-12
0.00138202
8.14132e-05
1.8941e-11
0.00125825
6.94158e-05
-1.73441e-11
0.00123797
6.8992e-05
-6.77138e-11
0.00125397
7.12839e-05
-1.25113e-10
0.00127706
7.39627e-05
-1.40053e-10
0.0012799
7.48595e-05
-9.60057e-11
0.00126514
7.33048e-05
-5.3765e-11
0.00133412
7.39749e-05
-8.34009e-12
0.00137455
7.64034e-05
-7.76093e-12
0.00134085
7.62223e-05
-2.29845e-12
0.00126363
7.554e-05
8.95484e-12
0.00113995
7.46898e-05
1.1736e-11
0.0010171
7.45987e-05
1.41884e-11
0.000930187
7.67421e-05
5.5189e-12
0.000864959
8.03975e-05
-8.77671e-12
0.000792214
8.46145e-05
-2.28159e-11
0.000691506
8.90192e-05
-1.98705e-11
0.000550151
9.41683e-05
-2.35061e-11
0.000401862
0.000100804
-1.6154e-11
0.000223484
0.000108324
-1.35836e-12
0.00011987
-5.58174e-11
0.00160992
-7.59058e-06
-4.10097e-11
0.00168841
9.64351e-06
4.7349e-11
0.00162526
0.000291035
2.1978e-10
0.00157482
0.000238681
5.8433e-12
0.00138181
0.000160262
1.58279e-11
0.00125916
0.000138843
-3.02297e-11
0.00123853
0.000139476
-7.51976e-11
0.00125523
0.000144366
-1.25518e-10
0.00127788
0.000149355
-1.32297e-10
0.0012792
0.000150277
-8.8625e-11
0.0012639
0.000146577
-4.71933e-11
0.00133287
0.000147441
-1.13874e-11
0.00137605
0.000150887
-4.14329e-12
0.00134592
0.000150131
9.60408e-13
0.00127044
0.000149539
9.60376e-12
0.00114872
0.000148234
1.4867e-11
0.00102488
0.000149063
1.67193e-11
0.000937361
0.00015364
1.08397e-11
0.000871492
0.000161304
-8.3391e-13
0.000798475
0.000169717
-1.65525e-11
0.000696746
0.000178559
-1.72441e-11
0.000554178
0.000189446
-2.40683e-11
0.000404367
0.000202949
-1.79345e-11
0.000223472
0.00021861
-6.76096e-12
0.000240383
-5.89183e-11
0.00161131
-1.15901e-05
-3.93396e-11
0.00168338
1.62137e-05
5.06486e-11
0.00161168
0.000450026
2.32231e-10
0.00157943
0.000347072
7.52831e-13
0.00138962
0.000235157
2.64282e-12
0.00126793
0.000210143
-4.74775e-11
0.00124744
0.000210898
-8.27609e-11
0.00126592
0.000218274
-1.24866e-10
0.00128751
0.000225861
-1.20717e-10
0.00128547
0.000226028
-7.87325e-11
0.00126772
0.000219645
-3.83618e-11
0.00133425
0.000220164
-1.0732e-11
0.0013806
0.000224119
-4.3712e-12
0.00135502
0.000223432
3.60402e-12
0.00128113
0.000222646
8.87685e-12
0.00116235
0.000221672
1.65221e-11
0.00103636
0.000222735
1.96666e-11
0.000948038
0.000230008
1.99439e-11
0.000881481
0.000241816
1.5928e-11
0.000808818
0.000254626
-5.13255e-12
0.000706177
0.000268282
-1.19591e-11
0.000562359
0.000285505
-2.42927e-11
0.00041083
0.000306667
-2.03201e-11
0.000227042
0.000331391
-1.45193e-11
0.00036529
-6.22811e-11
0.0016143
-1.31865e-05
-4.44156e-11
0.00167505
2.71655e-05
5.52566e-11
0.00158268
0.000630447
2.56863e-10
0.00159347
0.000410722
2.3181e-11
0.00140262
0.000315625
-2.92119e-11
0.00128487
0.00028553
-7.11178e-11
0.00126459
0.000284452
-9.53742e-11
0.00128329
0.000294503
-1.20749e-10
0.00130162
0.000303521
-1.03495e-10
0.00129439
0.00030203