/*--------------------------------*- C++ -*----------------------------------*\
| =========                 |                                                 |
| \\      /  F ield         | OpenFOAM: The Open Source CFD Toolbox           |
|  \\    /   O peration     | Version:  4.1                                   |
|   \\  /    A nd           | Web:      www.OpenFOAM.org                      |
|    \\/     M anipulation  |                                                 |
\*---------------------------------------------------------------------------*/
FoamFile
{
    version     2.0;
    format      ascii;
    class       volScalarField;
    location    "0.84";
    object      T;
}
// * * * * * * * * * * * * * * * * * * * * * * * * * * * * * * * * * * * * * //

dimensions      [0 0 0 1 0 0 0];

internalField   nonuniform List<scalar> 
52500
(
0.104573
0.828948
1.00025
1.01846
1.06927
1.14554
1.19203
1.20887
1.21969
1.22704
1.2235
1.17143
1.06581
1.01217
1.00098
1.01321
1.05723
1.08069
1.0747
1.05356
1.04177
1.04229
1.03928
1.03671
1.00027
0.105495
0.826715
1.00068
1.01711
1.06946
1.14632
1.19253
1.20946
1.22
1.22696
1.2232
1.17056
1.06512
1.01132
1.00002
1.01178
1.05527
1.07943
1.07377
1.05269
1.0407
1.0413
1.03835
1.03586
0.999212
0.109721
0.823043
1.00166
1.01329
1.06816
1.14524
1.19225
1.21044
1.22068
1.22717
1.22356
1.17237
1.06672
1.0108
0.998254
1.00869
1.05106
1.07735
1.07269
1.05229
1.03991
1.04077
1.0378
1.03563
0.99838
0.116562
0.81648
1.00241
1.007
1.0662
1.14248
1.19071
1.21086
1.22097
1.22726
1.22459
1.17848
1.0721
1.01184
0.997218
1.00602
1.04637
1.07493
1.07148
1.05192
1.03891
1.03994
1.03734
1.03546
0.998126
0.124119
0.803411
0.999046
1.00066
1.06647
1.13771
1.18806
1.21063
1.22068
1.22681
1.22492
1.18449
1.07937
1.01325
0.995636
1.00209
1.0392
1.07108
1.06948
1.05157
1.03784
1.03873
1.03648
1.03505
0.997589
0.133936
0.782808
0.9895
0.99548
1.0685
1.13189
1.1851
1.21042
1.21982
1.22548
1.22432
1.19063
1.08883
1.01517
0.99357
0.997462
1.03058
1.06613
1.06674
1.05109
1.03603
1.0369
1.0346
1.03387
0.996257
0.145572
0.75379
0.973164
0.990783
1.07152
1.12522
1.1816
1.21009
1.21917
1.22422
1.22335
1.19568
1.09911
1.01776
0.991066
0.992152
1.01976
1.05917
1.06296
1.04992
1.03458
1.03396
1.03211
1.03167
0.993128
0.158704
0.716234
0.947237
0.986712
1.07388
1.11781
1.17755
1.2095
1.21843
1.22273
1.22198
1.20021
1.11117
1.0219
0.988439
0.98636
1.00772
1.05038
1.05838
1.0482
1.03129
1.02961
1.02704
1.02703
0.986763
0.173896
0.670959
0.906337
0.985584
1.07285
1.10953
1.17289
1.20855
1.21762
1.2211
1.22039
1.20423
1.12516
1.02839
0.986639
0.980084
0.995332
1.03836
1.05221
1.04569
1.02662
1.02385
1.02146
1.01995
0.973772
0.191579
0.61472
0.850157
0.985537
1.07035
1.10164
1.16827
1.20665
1.21648
1.21932
1.21879
1.2074
1.1404
1.03733
0.985967
0.974007
0.984137
1.02412
1.04406
1.04097
1.02431
1.01627
1.01005
1.00563
0.947121
0.104538
0.828932
1.00023
1.01847
1.0693
1.1456
1.19207
1.20888
1.2197
1.22705
1.22348
1.17127
1.06572
1.01217
1.00101
1.01324
1.05724
1.08069
1.07469
1.05354
1.04175
1.04226
1.03923
1.03666
1.00027
0.105496
0.826702
1.00068
1.01711
1.06942
1.1462
1.19242
1.20935
1.21988
1.22688
1.22324
1.17105
1.06556
1.01147
1.00003
1.01171
1.05514
1.07937
1.07373
1.05268
1.04068
1.04127
1.0383
1.03582
0.999207
0.109712
0.823027
1.00166
1.0133
1.06814
1.14515
1.19213
1.21031
1.22054
1.22709
1.22363
1.17296
1.06724
1.01107
0.998415
1.00878
1.05108
1.07736
1.07269
1.05228
1.0399
1.04074
1.03775
1.03559
0.99837
0.116534
0.816464
1.0024
1.00701
1.0662
1.14245
1.19065
1.21078
1.22088
1.22719
1.22458
1.17874
1.07242
1.01207
0.997442
1.00627
1.04661
1.07502
1.07151
1.05189
1.03889
1.03991
1.03731
1.03541
0.998113
0.124104
0.80341
0.999046
1.00067
1.06646
1.13772
1.18806
1.2106
1.22063
1.22676
1.22487
1.18427
1.07906
1.01313
0.995606
1.00212
1.03933
1.07116
1.06952
1.05155
1.03783
1.03871
1.03645
1.03501
0.997569
0.13392
0.782806
0.989506
0.995475
1.06848
1.1319
1.18509
1.21039
1.2198
1.22545
1.22427
1.1904
1.08848
1.01504
0.993557
0.997504
1.03065
1.06612
1.0667
1.05105
1.03601
1.03688
1.03457
1.03383
0.996232
0.145563
0.753787
0.973175
0.990774
1.0715
1.12521
1.18158
1.21005
1.21915
1.22419
1.2233
1.19538
1.09858
1.01761
0.991211
0.992418
1.02021
1.05937
1.06302
1.04989
1.03455
1.03394
1.03208
1.03163
0.993101
0.158694
0.716226
0.947249
0.986696
1.07387
1.1178
1.17753
1.20946
1.21839
1.2227
1.22193
1.19987
1.1104
1.02165
0.988652
0.986775
1.00839
1.0508
1.05858
1.04823
1.03127
1.02959
1.02701
1.02699
0.986738
0.173887
0.670949
0.906344
0.985564
1.07283
1.10951
1.17287
1.20852
1.21759
1.22108
1.22036
1.20397
1.12442
1.02809
0.986812
0.980483
0.995884
1.03885
1.05244
1.04578
1.0266
1.02384
1.02143
1.01991
0.973748
0.191575
0.614698
0.850152
0.985517
1.07034
1.10162
1.16824
1.20662
1.21644
1.21931
1.21878
1.20723
1.13981
1.03707
0.986058
0.974278
0.984485
1.02448
1.04423
1.04105
1.02428
1.01627
1.01003
1.00558
0.947097
0.104559
0.828931
1.00024
1.01845
1.06927
1.14555
1.19203
1.20886
1.21969
1.22703
1.22342
1.17109
1.06557
1.01217
1.00109
1.01338
1.05741
1.08074
1.0747
1.05351
1.04175
1.04227
1.03925
1.03668
1.00028
0.10549
0.826698
1.00067
1.0171
1.06945
1.14629
1.19249
1.20942
1.21997
1.22693
1.22315
1.17044
1.06507
1.01138
1.00014
1.01192
1.05541
1.07947
1.07376
1.05265
1.04067
1.04128
1.03831
1.03583
0.999226
0.109717
0.823025
1.00165
1.01328
1.06814
1.14521
1.1922
1.21039
1.22062
1.22713
1.22353
1.17238
1.06678
1.01087
0.998326
1.00875
1.0511
1.07735
1.07268
1.05227
1.0399
1.04075
1.03777
1.0356
0.99839
0.116551
0.816458
1.0024
1.00699
1.06619
1.14246
1.19068
1.21082
1.22093
1.22722
1.22457
1.17863
1.07229
1.01198
0.997372
1.0062
1.04655
1.07499
1.0715
1.05189
1.03889
1.03992
1.03732
1.03543
0.998135
0.124113
0.803387
0.999033
1.00065
1.06646
1.1377
1.18805
1.21061
1.22064
1.22678
1.22491
1.18449
1.07932
1.01323
0.99564
1.0021
1.03925
1.07111
1.06949
1.05155
1.03783
1.03871
1.03646
1.03502
0.997594
0.133928
0.782777
0.989483
0.995469
1.06849
1.13188
1.18508
1.2104
1.2198
1.22546
1.22432
1.19076
1.08906
1.01525
0.993543
0.997396
1.03046
1.06607
1.0667
1.05107
1.03602
1.03689
1.03459
1.03385
0.996258
0.145568
0.753753
0.973145
0.990769
1.07151
1.1252
1.18158
1.21006
1.21915
1.22419
1.22332
1.19576
1.09934
1.01786
0.991084
0.992147
1.01972
1.05912
1.06292
1.0499
1.03456
1.03395
1.03209
1.03165
0.993128
0.158699
0.71619
0.947211
0.986694
1.07387
1.11779
1.17753
1.20948
1.2184
1.2227
1.22195
1.20018
1.11113
1.02189
0.988467
0.986411
1.00783
1.05045
1.05841
1.0482
1.03128
1.0296
1.02702
1.02701
0.986764
0.173892
0.670912
0.906298
0.985563
1.07284
1.10951
1.17287
1.20854
1.2176
1.22109
1.22038
1.20418
1.12499
1.02828
0.986649
0.980153
0.995453
1.03849
1.05229
1.04572
1.02662
1.02385
1.02144
1.01993
0.973772
0.191581
0.614664
0.850114
0.985516
1.07034
1.10162
1.16824
1.20663
1.21646
1.21932
1.2188
1.20737
1.14016
1.03718
0.98595
0.974059
0.984223
1.02424
1.04413
1.04102
1.0243
1.01628
1.01004
1.0056
0.947118
0.104555
0.82892
1.00023
1.01845
1.06927
1.14556
1.19204
1.20886
1.2197
1.22703
1.22342
1.17109
1.06557
1.01217
1.0011
1.0134
1.05743
1.08075
1.07469
1.0535
1.04173
1.04226
1.03923
1.03666
1.00027
0.105488
0.826688
1.00066
1.01709
1.06945
1.14629
1.19249
1.20942
1.21996
1.22693
1.22315
1.17046
1.06508
1.01139
1.00014
1.01193
1.05543
1.07947
1.07376
1.05264
1.04066
1.04127
1.0383
1.03582
0.999214
0.109714
0.823014
1.00164
1.01327
1.06814
1.14521
1.1922
1.21038
1.22062
1.22713
1.22354
1.17243
1.06682
1.01092
0.998387
1.00883
1.05119
1.07738
1.07269
1.05225
1.03988
1.04074
1.03775
1.03559
0.998378
0.116549
0.816446
1.00239
1.00698
1.06619
1.14246
1.19068
1.21082
1.22092
1.22721
1.22458
1.17872
1.07241
1.01205
0.997407
1.00622
1.04656
1.075
1.07149
1.05187
1.03888
1.03991
1.0373
1.03542
0.998123
0.124111
0.803373
0.999022
1.00065
1.06646
1.1377
1.18805
1.2106
1.22063
1.22677
1.2249
1.1845
1.07935
1.01321
0.99558
1.00204
1.0392
1.0711
1.06949
1.05155
1.03782
1.03871
1.03645
1.03501
0.997582
0.133928
0.782761
0.989471
0.995464
1.06849
1.13189
1.18509
1.21039
1.2198
1.22546
1.22431
1.19066
1.08887
1.01517
0.99353
0.997411
1.03048
1.06604
1.06667
1.05105
1.03601
1.03689
1.03457
1.03384
0.996248
0.145569
0.753735
0.973131
0.990763
1.07151
1.12521
1.18158
1.21007
1.21916
1.2242
1.22333
1.19562
1.09902
1.01776
0.991163
0.992296
1.01998
1.05926
1.06298
1.04989
1.03455
1.03394
1.03208
1.03164
0.993118
0.158703
0.71617
0.947195
0.986689
1.07387
1.11779
1.17753
1.20948
1.21841
1.22271
1.22196
1.20007
1.11083
1.02181
0.988575
0.986601
1.00812
1.05065
1.05852
1.04822
1.03127
1.02959
1.02701
1.027
0.986755
0.173898
0.67089
0.906276
0.985559
1.07283
1.10951
1.17287
1.20854
1.2176
1.2211
1.22038
1.20412
1.12481
1.02825
0.986726
0.980281
0.995617
1.03864
1.05236
1.04575
1.02661
1.02385
1.02143
1.01992
0.973764
0.191589
0.614638
0.850095
0.985516
1.07033
1.10161
1.16824
1.20663
1.21646
1.21932
1.2188
1.20734
1.14013
1.0372
0.985976
0.974084
0.984242
1.02425
1.04413
1.04101
1.02429
1.01627
1.01003
1.00559
0.94711
0.104579
0.828907
1.00024
1.01842
1.06926
1.14554
1.19203
1.20886
1.21969
1.22703
1.22343
1.17111
1.06559
1.01218
1.0011
1.01339
1.05741
1.08074
1.07469
1.0535
1.04173
1.04226
1.03923
1.03666
1.00028
0.10551
0.826673
1.00067
1.01707
1.06943
1.14628
1.19248
1.20942
1.21996
1.22693
1.22315
1.17047
1.06509
1.01139
1.00014
1.01192
1.05541
1.07946
1.07375
1.05264
1.04066
1.04127
1.0383
1.03582
0.999221
0.109736
0.822996
1.00165
1.01325
1.06813
1.1452
1.1922
1.21038
1.22062
1.22713
1.22354
1.17243
1.06682
1.01092
0.998392
1.00883
1.05117
1.07737
1.07268
1.05225
1.03988
1.04074
1.03775
1.03559
0.998387
0.116574
0.816426
1.00239
1.00695
1.06619
1.14245
1.19067
1.21082
1.22091
1.22722
1.22459
1.17867
1.07232
1.012
0.997379
1.00619
1.04654
1.07498
1.07148
1.05187
1.03888
1.03991
1.0373
1.03542
0.99813
0.124131
0.803336
0.999008
1.00063
1.06646
1.13769
1.18804
1.21059
1.22063
1.22676
1.22489
1.18458
1.07954
1.01331
0.995628
1.00206
1.03919
1.07109
1.06948
1.05154
1.03782
1.0387
1.03645
1.03501
0.997593
0.13395
0.782714
0.989443
0.995458
1.0685
1.13187
1.18508
1.21039
1.21979
1.22544
1.22429
1.1906
1.08879
1.01514
0.993524
0.997409
1.03047
1.06603
1.06665
1.05104
1.03601
1.03688
1.03456
1.03383
0.99626
0.145588
0.753679
0.973093
0.990759
1.07152
1.12519
1.18158
1.21007
1.21915
1.2242
1.22334
1.19557
1.09884
1.01766
0.991112
0.992259
1.01997
1.05925
1.06297
1.04989
1.03455
1.03394
1.03207
1.03163
0.993129
0.158722
0.716111
0.947145
0.986693
1.07388
1.11778
1.17753
1.20948
1.21841
1.22272
1.22197
1.2001
1.11084
1.02178
0.988555
0.986583
1.0081
1.05063
1.0585
1.04821
1.03126
1.02959
1.02701
1.027
0.986763
0.173917
0.670829
0.906213
0.985569
1.07283
1.10949
1.17287
1.20854
1.21761
1.22109
1.22038
1.20415
1.12493
1.02832
0.986747
0.980282
0.995605
1.03861
1.05234
1.04574
1.02661
1.02384
1.02143
1.01993
0.97377
0.191611
0.61458
0.85005
0.985532
1.07033
1.10161
1.16824
1.20663
1.21646
1.21931
1.21877
1.20735
1.14032
1.03734
0.986035
0.974101
0.984239
1.02423
1.04411
1.04099
1.02429
1.01627
1.01003
1.0056
0.947114
0.104571
0.828907
1.00023
1.01843
1.06926
1.14555
1.19203
1.20886
1.2197
1.22703
1.22342
1.17107
1.06555
1.01217
1.00111
1.0134
1.05744
1.08076
1.0747
1.0535
1.04173
1.04226
1.03923
1.03666
1.00028
0.105503
0.826673
1.00067
1.01707
1.06944
1.14628
1.19248
1.20942
1.21996
1.22693
1.22315
1.17045
1.06507
1.01139
1.00014
1.01194
1.05543
1.07947
1.07376
1.05264
1.04066
1.04127
1.0383
1.03582
0.999219
0.109729
0.822997
1.00165
1.01325
1.06813
1.1452
1.1922
1.21038
1.22062
1.22712
1.22354
1.17242
1.06681
1.01092
0.998393
1.00883
1.05119
1.07739
1.07269
1.05225
1.03988
1.04074
1.03775
1.03559
0.998383
0.116566
0.816427
1.00239
1.00696
1.06619
1.14245
1.19067
1.21082
1.22091
1.22721
1.22459
1.17867
1.07232
1.012
0.997382
1.0062
1.04656
1.075
1.07149
1.05187
1.03888
1.03991
1.03731
1.03542
0.998128
0.124125
0.803342
0.999009
1.00063
1.06646
1.13769
1.18804
1.21059
1.22063
1.22676
1.22488
1.18458
1.07953
1.0133
0.995628
1.00207
1.0392
1.0711
1.06949
1.05155
1.03782
1.03871
1.03646
1.03502
0.997587
0.133942
0.782723
0.989447
0.995457
1.06849
1.13188
1.18508
1.21039
1.21979
1.22544
1.22429
1.19059
1.08878
1.01514
0.993522
0.99741
1.03048
1.06604
1.06667
1.05105
1.03601
1.03689
1.03458
1.03384
0.996252
0.145582
0.753691
0.9731
0.990758
1.07151
1.1252
1.18158
1.21007
1.21915
1.2242
1.22334
1.19556
1.09882
1.01765
0.991111
0.99226
1.01998
1.05925
1.06298
1.04989
1.03455
1.03394
1.03208
1.03164
0.993122
0.158716
0.716124
0.947156
0.98669
1.07387
1.11778
1.17753
1.20948
1.21841
1.22272
1.22197
1.20009
1.11082
1.02177
0.988555
0.986586
1.00811
1.05064
1.05851
1.04822
1.03127
1.02959
1.02702
1.027
0.986759
0.173911
0.670844
0.906228
0.985564
1.07283
1.1095
1.17287
1.20854
1.21761
1.22109
1.22038
1.20415
1.12491
1.02831
0.986746
0.980284
0.995611
1.03862
1.05235
1.04575
1.02661
1.02385
1.02144
1.01993
0.973769
0.191603
0.614595
0.85006
0.985525
1.07033
1.10161
1.16824
1.20663
1.21646
1.21931
1.21877
1.20735
1.1403
1.03733
0.986031
0.9741
0.984241
1.02424
1.04412
1.041
1.02429
1.01627
1.01004
1.0056
0.947115
0.104555
0.82892
1.00023
1.01845
1.06927
1.14556
1.19204
1.20886
1.2197
1.22703
1.22342
1.17109
1.06557
1.01218
1.0011
1.0134
1.05743
1.08075
1.07469
1.0535
1.04173
1.04226
1.03923
1.03666
1.00027
0.105488
0.826688
1.00066
1.01709
1.06945
1.14629
1.19249
1.20942
1.21996
1.22693
1.22315
1.17046
1.06508
1.01139
1.00014
1.01193
1.05543
1.07947
1.07376
1.05264
1.04066
1.04127
1.0383
1.03582
0.999214
0.109714
0.823014
1.00164
1.01327
1.06814
1.14521
1.1922
1.21038
1.22062
1.22713
1.22354
1.17243
1.06682
1.01092
0.998387
1.00883
1.05119
1.07738
1.07269
1.05225
1.03988
1.04074
1.03775
1.03559
0.998378
0.116549
0.816446
1.00239
1.00698
1.06619
1.14246
1.19068
1.21082
1.22092
1.22721
1.22458
1.17872
1.07241
1.01205
0.997407
1.00622
1.04656
1.075
1.07149
1.05187
1.03888
1.03991
1.0373
1.03542
0.998123
0.124111
0.803373
0.999022
1.00065
1.06646
1.1377
1.18805
1.2106
1.22063
1.22677
1.2249
1.1845
1.07935
1.01321
0.99558
1.00204
1.0392
1.0711
1.06949
1.05155
1.03782
1.03871
1.03645
1.03501
0.997582
0.133928
0.782761
0.989471
0.995464
1.06849
1.13189
1.18509
1.21039
1.2198
1.22546
1.22431
1.19066
1.08887
1.01517
0.99353
0.997411
1.03048
1.06604
1.06667
1.05105
1.03601
1.03689
1.03457
1.03384
0.996248
0.145569
0.753735
0.973131
0.990763
1.07151
1.12521
1.18158
1.21007
1.21916
1.2242
1.22333
1.19562
1.09902
1.01776
0.991163
0.992296
1.01998
1.05926
1.06298
1.04989
1.03455
1.03394
1.03208
1.03164
0.993118
0.158703
0.71617
0.947195
0.986689
1.07387
1.11779
1.17753
1.20948
1.21841
1.22271
1.22196
1.20007
1.11083
1.02181
0.988575
0.986601
1.00812
1.05065
1.05852
1.04822
1.03127
1.02959
1.02701
1.027
0.986755
0.173898
0.67089
0.906277
0.985559
1.07283
1.10951
1.17287
1.20854
1.2176
1.2211
1.22038
1.20412
1.12481
1.02825
0.986726
0.980281
0.995617
1.03864
1.05236
1.04575
1.02661
1.02385
1.02143
1.01992
0.973764
0.191589
0.614639
0.850095
0.985516
1.07033
1.10161
1.16824
1.20663
1.21646
1.21932
1.2188
1.20734
1.14013
1.0372
0.985976
0.974084
0.984242
1.02425
1.04413
1.04101
1.02429
1.01627
1.01003
1.00559
0.94711
0.104559
0.828931
1.00024
1.01845
1.06927
1.14555
1.19203
1.20886
1.21969
1.22703
1.22342
1.17109
1.06557
1.01217
1.00109
1.01338
1.05741
1.08074
1.0747
1.05351
1.04175
1.04227
1.03925
1.03668
1.00028
0.10549
0.826698
1.00067
1.0171
1.06945
1.14629
1.19249
1.20942
1.21997
1.22693
1.22315
1.17044
1.06507
1.01138
1.00014
1.01192
1.05541
1.07947
1.07376
1.05265
1.04067
1.04128
1.03831
1.03583
0.999226
0.109717
0.823025
1.00165
1.01328
1.06814
1.14521
1.1922
1.21039
1.22062
1.22713
1.22353
1.17238
1.06678
1.01087
0.998326
1.00875
1.0511
1.07735
1.07268
1.05227
1.0399
1.04075
1.03777
1.0356
0.99839
0.116551
0.816458
1.0024
1.00699
1.06619
1.14246
1.19068
1.21082
1.22093
1.22722
1.22457
1.17863
1.07229
1.01198
0.997372
1.0062
1.04655
1.07499
1.0715
1.05189
1.03889
1.03992
1.03732
1.03543
0.998135
0.124113
0.803387
0.999033
1.00065
1.06646
1.1377
1.18805
1.21061
1.22064
1.22678
1.22491
1.18449
1.07932
1.01323
0.99564
1.0021
1.03925
1.07111
1.06949
1.05155
1.03783
1.03871
1.03646
1.03502
0.997594
0.133928
0.782777
0.989483
0.995469
1.06849
1.13188
1.18508
1.2104
1.2198
1.22546
1.22432
1.19076
1.08906
1.01525
0.993543
0.997396
1.03046
1.06607
1.0667
1.05107
1.03602
1.03689
1.03459
1.03385
0.996258
0.145568
0.753753
0.973145
0.990769
1.07151
1.1252
1.18158
1.21006
1.21915
1.22419
1.22332
1.19576
1.09934
1.01786
0.991084
0.992147
1.01972
1.05912
1.06292
1.0499
1.03456
1.03395
1.03209
1.03165
0.993128
0.158699
0.71619
0.947211
0.986694
1.07387
1.11779
1.17753
1.20948
1.2184
1.2227
1.22195
1.20018
1.11113
1.02189
0.988467
0.986411
1.00783
1.05045
1.05841
1.0482
1.03128
1.0296
1.02702
1.02701
0.986764
0.173892
0.670912
0.906298
0.985563
1.07284
1.10951
1.17287
1.20854
1.2176
1.22109
1.22038
1.20418
1.12499
1.02828
0.986649
0.980153
0.995453
1.03849
1.05229
1.04572
1.02662
1.02385
1.02144
1.01993
0.973772
0.191581
0.614664
0.850114
0.985516
1.07034
1.10162
1.16824
1.20663
1.21646
1.21932
1.2188
1.20737
1.14016
1.03718
0.98595
0.974059
0.984223
1.02424
1.04413
1.04102
1.0243
1.01628
1.01004
1.0056
0.947118
0.104538
0.828931
1.00022
1.01847
1.0693
1.1456
1.19207
1.20888
1.2197
1.22705
1.22348
1.17127
1.06572
1.01217
1.00101
1.01324
1.05724
1.08069
1.07469
1.05354
1.04175
1.04226
1.03923
1.03666
1.00027
0.105496
0.826702
1.00068
1.01711
1.06942
1.14621
1.19242
1.20935
1.21988
1.22688
1.22324
1.17105
1.06556
1.01147
1.00003
1.0117
1.05514
1.07937
1.07373
1.05268
1.04068
1.04127
1.0383
1.03582
0.999207
0.109712
0.823027
1.00166
1.0133
1.06814
1.14515
1.19213
1.21031
1.22054
1.22709
1.22362
1.17296
1.06724
1.01107
0.998414
1.00878
1.05108
1.07736
1.07269
1.05228
1.0399
1.04074
1.03775
1.03559
0.99837
0.116534
0.816464
1.0024
1.00701
1.0662
1.14245
1.19065
1.21078
1.22088
1.22719
1.22458
1.17874
1.07242
1.01207
0.997442
1.00627
1.04661
1.07502
1.07151
1.05189
1.03889
1.03991
1.03731
1.03542
0.998113
0.124104
0.80341
0.999046
1.00067
1.06646
1.13772
1.18806
1.2106
1.22063
1.22676
1.22487
1.18427
1.07906
1.01313
0.995606
1.00212
1.03933
1.07116
1.06952
1.05155
1.03783
1.03871
1.03645
1.03501
0.997569
0.133919
0.782806
0.989506
0.995475
1.06848
1.1319
1.18509
1.21039
1.2198
1.22545
1.22427
1.1904
1.08848
1.01504
0.993557
0.997504
1.03065
1.06612
1.0667
1.05105
1.03601
1.03689
1.03457
1.03383
0.996232
0.145563
0.753787
0.973175
0.990774
1.0715
1.12521
1.18158
1.21005
1.21915
1.22419
1.2233
1.19538
1.09858
1.01761
0.991211
0.992417
1.02021
1.05936
1.06302
1.04989
1.03455
1.03394
1.03208
1.03163
0.993101
0.158694
0.716226
0.947249
0.986696
1.07387
1.1178
1.17753
1.20946
1.21839
1.2227
1.22193
1.19987
1.1104
1.02165
0.988652
0.986775
1.00839
1.05079
1.05858
1.04823
1.03127
1.02959
1.02701
1.02699
0.986738
0.173887
0.670948
0.906344
0.985564
1.07283
1.10951
1.17287
1.20852
1.21759
1.22108
1.22036
1.20397
1.12442
1.02809
0.986812
0.980483
0.995884
1.03885
1.05244
1.04578
1.0266
1.02384
1.02143
1.01991
0.973748
0.191575
0.614698
0.850152
0.985517
1.07034
1.10162
1.16824
1.20662
1.21644
1.21931
1.21878
1.20723
1.13981
1.03707
0.986058
0.974277
0.984485
1.02448
1.04423
1.04105
1.02428
1.01627
1.01003
1.00558
0.947097
0.104545
0.828949
1.00023
1.01848
1.0693
1.14559
1.19208
1.2089
1.21973
1.22706
1.22343
1.17097
1.06543
1.01205
1.00097
1.01325
1.0573
1.0807
1.07469
1.05355
1.04178
1.04232
1.03936
1.03677
1.00018
0.105472
0.826717
1.00066
1.01713
1.06948
1.14634
1.19255
1.20947
1.22001
1.22697
1.22318
1.17045
1.06506
1.01131
1.00002
1.01178
1.05527
1.07941
1.07375
1.05269
1.04071
1.04133
1.03842
1.03593
0.99913
0.109704
0.82305
1.00165
1.01331
1.06817
1.14525
1.19225
1.21042
1.22064
1.22716
1.22362
1.17277
1.06709
1.01097
0.998313
1.00867
1.05095
1.07729
1.07266
1.0523
1.03993
1.0408
1.03787
1.0357
0.998304
0.116541
0.81649
1.0024
1.00702
1.06621
1.14247
1.1907
1.21083
1.22091
1.22721
1.22468
1.1793
1.07298
1.01209
0.997178
1.00588
1.04618
1.07486
1.07145
1.05193
1.03892
1.03996
1.03741
1.03552
0.998052
0.124101
0.803437
0.999054
1.00068
1.06647
1.13772
1.18807
1.2106
1.22061
1.22675
1.22491
1.18482
1.0798
1.01328
0.995422
1.00177
1.03878
1.0709
1.06939
1.0516
1.03786
1.03875
1.03654
1.0351
0.997524
0.133918
0.782844
0.989521
0.995486
1.06849
1.13192
1.18512
1.21042
1.21981
1.22546
1.22431
1.19054
1.08859
1.01505
0.993527
0.997456
1.03056
1.06607
1.06669
1.05108
1.03604
1.03691
1.03464
1.03391
0.996201
0.145558
0.753834
0.973194
0.990786
1.07152
1.12524
1.18163
1.21011
1.21919
1.22424
1.22337
1.19542
1.09848
1.01757
0.99126
0.992489
1.02028
1.0594
1.06305
1.04992
1.03457
1.03396
1.03213
1.0317
0.993083
0.158691
0.716278
0.94728
0.986704
1.07388
1.11783
1.17758
1.20952
1.21845
1.22276
1.222
1.19998
1.11053
1.02173
0.988705
0.986809
1.00839
1.05082
1.05861
1.04825
1.03128
1.0296
1.02705
1.02704
0.986729
0.173884
0.671005
0.906384
0.985577
1.07285
1.10954
1.17291
1.20857
1.21764
1.22112
1.22039
1.20409
1.12481
1.02835
0.986842
0.980395
0.995717
1.0387
1.0524
1.04578
1.02661
1.02383
1.02146
1.01996
0.973747
0.191566
0.614759
0.850189
0.985528
1.07035
1.10164
1.16828
1.20665
1.21648
1.21932
1.21877
1.20732
1.14029
1.03739
0.986049
0.974083
0.984186
1.02416
1.04409
1.04099
1.02429
1.01626
1.01003
1.00562
0.947105
0.215063
0.573329
0.844142
0.989898
1.06485
1.09472
1.16208
1.20349
1.21448
1.21712
1.21692
1.20948
1.15643
1.04859
0.986278
0.967809
0.97308
1.00834
1.0358
1.0357
1.01952
1.00678
0.99635
0.980646
0.872057
0.240164
0.544407
0.84346
0.994263
1.05691
1.08781
1.1552
1.20028
1.21204
1.21449
1.21456
1.20987
1.16923
1.06432
0.989125
0.961248
0.961077
0.985753
1.02065
1.02569
1.01568
0.996329
0.978091
0.960592
0.873923
0.267125
0.519403
0.835674
1.00167
1.0484
1.07952
1.14602
1.19382
1.20751
1.21106
1.21144
1.20903
1.18106
1.08368
0.994892
0.957196
0.95194
0.968991
1.00754
1.01779
1.01026
0.992746
0.964572
0.947379
0.88556
0.291304
0.481089
0.833074
1.01421
1.03761
1.0714
1.13545
1.18275
1.20238
1.207
1.20776
1.20684
1.18889
1.10722
1.00606
0.955342
0.942145
0.951107
0.986853
1.00627
1.00374
0.989305
0.95773
0.93834
0.904799
0.310461
0.467349
0.815424
1.02046
1.02484
1.06251
1.12124
1.16869
1.19463
1.20205
1.20431
1.20504
1.1947
1.13059
1.0216
0.956718
0.93421
0.936423
0.964861
0.992523
0.994572
0.986457
0.956312
0.930194
0.905025
0.328877
0.452176
0.786296
1.01181
1.00581
1.0596
1.10815
1.15392
1.1857
1.19687
1.20225
1.20433
1.19914
1.15362
1.04229
0.961817
0.927363
0.922351
0.940081
0.975117
0.983457
0.980544
0.958001
0.927887
0.902182
0.341584
0.429261
0.728877
0.96394
0.991208
1.0665
1.0993
1.13936
1.17496
1.1921
1.20081
1.20387
1.20127
1.1702
1.06906
0.972765
0.924416
0.910181
0.91829
0.952959
0.972866
0.973477
0.961741
0.93067
0.903364
0.348641
0.415283
0.651796
0.864314
0.994165
1.06937
1.08922
1.11663
1.15876
1.18532
1.19823
1.20258
1.20075
1.18068
1.09713
0.990111
0.926584
0.901577
0.901962
0.925542
0.954577
0.961755
0.958439
0.937597
0.906996
0.356876
0.413739
0.589587
0.827606
1.01576
1.06696
1.07617
1.0967
1.1436
1.17965
1.19547
1.20059
1.19952
1.18716
1.12498
1.01112
0.933391
0.895991
0.889078
0.899781
0.935019
0.952324
0.952771
0.943883
0.915832
0.36831
0.414646
0.540605
0.791296
1.02393
1.05222
1.06047
1.08012
1.1301
1.17092
1.1908
1.19693
1.19705
1.1907
1.14993
1.04173
0.948481
0.89625
0.877829
0.879907
0.904165
0.933683
0.942702
0.940648
0.928079
0.382223
0.414976
0.507541
0.741205
1.02215
1.02794
1.04384
1.07549
1.11521
1.157
1.18209
1.1921
1.19395
1.19074
1.16837
1.07863
0.969139
0.902044
0.870257
0.865681
0.875982
0.910419
0.929304
0.932423
0.928012
0.392504
0.407874
0.467351
0.678918
0.978536
0.992299
1.04288
1.07675
1.10054
1.14029
1.17191
1.18711
1.19131
1.19027
1.17922
1.11702
0.999701
0.916633
0.870374
0.853799
0.855311
0.875458
0.909725
0.922273
0.922501
0.386507
0.391729
0.434482
0.597876
0.862486
0.983053
1.04716
1.07639
1.09022
1.12014
1.15688
1.17901
1.1879
1.18924
1.18433
1.14842
1.04072
0.937489
0.876898
0.847378
0.841542
0.848511
0.876916
0.903314
0.912926
0.37301
0.375807
0.40703
0.526247
0.782481
1.00769
1.05081
1.06543
1.07354
1.10308
1.14189
1.16911
1.18316
1.18758
1.18639
1.16755
1.08194
0.968582
0.892477
0.849645
0.83319
0.833191
0.845862
0.878359
0.896179
0.361893
0.362794
0.383414
0.464956
0.682259
1.0139
1.02151
1.02906
1.05937
1.08613
1.12402
1.15742
1.17713
1.18526
1.18631
1.17879
1.12525
1.00414
0.910983
0.856555
0.827721
0.820388
0.823417
0.843067
0.874742
0.35529
0.351254
0.364442
0.416442
0.587112
0.904727
0.965064
1.01255
1.05502
1.07417
1.10087
1.14078
1.16968
1.18221
1.18532
1.18319
1.15707
1.0527
0.939136
0.867738
0.830386
0.811746
0.809565
0.814821
0.838209
0.350033
0.342148
0.351065
0.386757
0.511096
0.776619
0.964338
1.01721
1.04544
1.05517
1.08258
1.12357
1.15619
1.17584
1.18289
1.18301
1.17384
1.10946
0.977038
0.886873
0.836104
0.810865
0.800323
0.800647
0.807167
0.345854
0.334695
0.340398
0.36332
0.443793
0.648151
0.975031
1.00117
1.00887
1.03747
1.07104
1.10321
1.14002
1.16516
1.17766
1.1814
1.17937
1.15125
1.03969
0.919351
0.848642
0.812803
0.794569
0.790136
0.791512
0.342718
0.329245
0.332928
0.347814
0.396283
0.550299
0.861627
0.951493
0.98843
1.03025
1.0496
1.08424
1.12052
1.15298
1.17143
1.17835
1.17939
1.17065
1.10975
0.970686
0.875562
0.821689
0.795471
0.780586
0.779489
0.340315
0.325079
0.327496
0.337248
0.368245
0.473779
0.713908
0.953218
0.989092
1.00684
1.02949
1.05904
1.10111
1.13583
1.16039
1.17361
1.17802
1.17663
1.15102
1.05115
0.921835
0.842698
0.801724
0.781716
0.767198
0.338614
0.322029
0.32354
0.329586
0.348194
0.407166
0.576359
0.910713
0.956908
0.977228
1.01765
1.03712
1.07191
1.11337
1.14645
1.16515
1.17464
1.17662
1.1693
1.11869
0.993617
0.884442
0.819661
0.786987
0.76893
0.337417
0.319855
0.320826
0.324754
0.336585
0.372252
0.491208
0.74572
0.940197
0.974199
0.993587
1.02072
1.0409
1.08511
1.12428
1.15351
1.16851
1.17493
1.17397
1.15466
1.0685
0.950389
0.858602
0.80327
0.774453
0.336598
0.318309
0.318943
0.321447
0.328618
0.349265
0.415147
0.596793
0.921422
0.949176
0.968768
1.00364
1.02552
1.04947
1.09685
1.13214
1.15828
1.17082
1.1731
1.16696
1.13095
1.01997
0.915984
0.835552
0.787955
0.336035
0.317306
0.317839
0.319519
0.324
0.336376
0.373334
0.497133
0.756002
0.927628
0.962847
0.979183
1.0088
1.02517
1.05591
1.10752
1.13872
1.16123
1.17014
1.16898
1.15664
1.09977
0.974841
0.884489
0.817278
0.335906
0.31692
0.31736
0.318331
0.320918
0.32803
0.348604
0.414434
0.596562
0.906198
0.936448
0.960237
0.987681
1.0118
1.02901
1.0607
1.11361
1.14589
1.16353
1.16701
1.16326
1.1408
1.05408
0.942015
0.860264
0.336406
0.316916
0.317116
0.317755
0.319364
0.323629
0.335404
0.370599
0.489342
0.737083
0.917855
0.950869
0.964018
0.993131
1.01
1.0305
1.06715
1.11862
1.15056
1.1622
1.1617
1.1536
1.11754
1.00985
0.908469
0.336759
0.31701
0.317037
0.317356
0.318272
0.32071
0.327206
0.345748
0.404159
0.574867
0.873778
0.920065
0.950039
0.968868
0.996171
1.00899
1.02985
1.07401
1.12317
1.15105
1.15732
1.15455
1.14104
1.08785
0.964339
0.336917
0.317174
0.316896
0.317064
0.317584
0.318973
0.322644
0.332748
0.362837
0.46527
0.693034
0.908071
0.93376
0.947172
0.974515
0.996378
1.00825
1.0307
1.08055
1.12775
1.14696
1.1504
1.14534
1.12353
1.04616
0.336998
0.317264
0.316795
0.316882
0.31717
0.317944
0.319985
0.325388
0.340728
0.38767
0.538424
0.806952
0.90248
0.934963
0.948928
0.978535
0.992567
1.00653
1.03217
1.08686
1.12825
1.14117
1.14099
1.13263
1.09991
0.337025
0.3173
0.316726
0.31677
0.316924
0.317341
0.31843
0.321299
0.329108
0.352135
0.428879
0.624759
0.885573
0.909776
0.932807
0.9532
0.979429
0.988741
1.00371
1.03495
1.09108
1.12355
1.13247
1.12986
1.11664
0.337017
0.317316
0.316683
0.316704
0.316781
0.316994
0.317562
0.319071
0.323107
0.334491
0.369269
0.490596
0.718858
0.88731
0.916685
0.930273
0.957851
0.977488
0.984854
1.00041
1.04126
1.09047
1.11475
1.12129
1.11605
0.337002
0.317331
0.316652
0.316658
0.316691
0.316799
0.317097
0.317874
0.319923
0.32541
0.341345
0.391504
0.549702
0.808039
0.88633
0.916478
0.930017
0.959119
0.973951
0.981334
0.999322
1.04601
1.08729
1.10655
1.10914
0.336999
0.317333
0.316628
0.316633
0.31665
0.316703
0.316846
0.317227
0.31823
0.320908
0.328272
0.350332
0.425206
0.613809
0.857807
0.889844
0.913142
0.932824
0.957862
0.967361
0.976634
0.999643
1.04944
1.08296
1.09592
0.337
0.317327
0.316625
0.316618
0.316624
0.316649
0.316717
0.316898
0.317379
0.318659
0.322119
0.331946
0.362318
0.470379
0.680234
0.86499
0.8926
0.908836
0.935618
0.955088
0.960163
0.972274
1.0034
1.0525
1.08029
0.337002
0.317323
0.316626
0.316609
0.316612
0.316623
0.316654
0.316737
0.316959
0.317551
0.31915
0.323503
0.336248
0.376168
0.512357
0.731154
0.861345
0.892872
0.908798
0.935327
0.948436
0.954791
0.971874
1.01331
1.05756
0.337002
0.317321
0.316626
0.316605
0.316607
0.316611
0.316624
0.31666
0.316758
0.317023
0.317732
0.319658
0.324954
0.340775
0.392711
0.546729
0.784777
0.861038
0.889667
0.911037
0.932987
0.942003
0.953145
0.981851
1.03908
0.337003
0.317321
0.316627
0.316604
0.316604
0.316606
0.316611
0.316627
0.316668
0.31678
0.317084
0.317902
0.320148
0.326441
0.345645
0.412411
0.580948
0.810449
0.862033
0.887502
0.912733
0.934217
0.955145
0.985159
1.04801
0.337002
0.317321
0.316627
0.316603
0.316603
0.316604
0.316606
0.316612
0.316628
0.316674
0.316798
0.317136
0.318056
0.32061
0.327916
0.350798
0.432537
0.616341
0.819293
0.86067
0.900803
0.935295
0.985569
1.0328
1.10885
0.337002
0.317321
0.316627
0.316603
0.316602
0.316603
0.316604
0.316606
0.316613
0.31663
0.31668
0.316814
0.317185
0.318202
0.321053
0.329339
0.355824
0.449774
0.643165
0.823786
0.878081
0.983341
1.12475
1.21332
1.28596
0.337002
0.317321
0.316627
0.316603
0.316602
0.316603
0.316603
0.316604
0.316607
0.316615
0.316636
0.316696
0.316859
0.317309
0.318552
0.32205
0.33244
0.366254
0.488381
0.690105
0.933595
1.03445
1.24289
1.36337
1.33034
0.215065
0.573307
0.844149
0.989881
1.06484
1.09469
1.16205
1.20348
1.21445
1.21711
1.21693
1.2094
1.15612
1.04843
0.986304
0.967915
0.973205
1.00849
1.03587
1.03573
1.01949
1.00675
0.996318
0.980605
0.872031
0.240171
0.544386
0.843462
0.994247
1.0569
1.08778
1.15517
1.20027
1.21203
1.21449
1.21457
1.20986
1.16913
1.06424
0.989116
0.961229