/*--------------------------------*- C++ -*----------------------------------*\
| =========                 |                                                 |
| \\      /  F ield         | OpenFOAM: The Open Source CFD Toolbox           |
|  \\    /   O peration     | Version:  4.1                                   |
|   \\  /    A nd           | Web:      www.OpenFOAM.org                      |
|    \\/     M anipulation  |                                                 |
\*---------------------------------------------------------------------------*/
FoamFile
{
    version     2.0;
    format      ascii;
    class       volVectorField;
    location    "0.84";
    object      U;
}
// * * * * * * * * * * * * * * * * * * * * * * * * * * * * * * * * * * * * * //

dimensions      [0 1 -1 0 0 0 0];

internalField   nonuniform List<vector> 
52500
(
(2.09575 -0.00040631 -0.000701403)
(1.05712 0.0016107 -0.00539016)
(0.303686 0.0120351 -0.00692599)
(0.271889 0.0117094 -0.00705086)
(0.370472 0.00981892 -0.00740172)
(0.408365 0.0100661 -0.00791593)
(0.409294 0.0111507 -0.00821817)
(0.420481 0.0122877 -0.00831739)
(0.447424 0.0133875 -0.00837475)
(0.472705 0.0141739 -0.00841342)
(0.477617 0.0145183 -0.00838358)
(0.472765 0.0146168 -0.00801614)
(0.471951 0.0143416 -0.00730444)
(0.466194 0.0140001 -0.00695068)
(0.454385 0.0139287 -0.00688545)
(0.436816 0.0140826 -0.00698745)
(0.410558 0.01484 -0.00730241)
(0.380793 0.0158967 -0.00747476)
(0.35614 0.017137 -0.00744247)
(0.334897 0.0184003 -0.00730924)
(0.306732 0.0198433 -0.00724651)
(0.263471 0.0213221 -0.00728214)
(0.209157 0.0227752 -0.0072978)
(0.117504 0.0240562 -0.00732479)
(0.0403576 0.0247275 -0.00711895)
(2.09461 -0.00195123 -0.000707531)
(1.06395 0.00431959 -0.0053735)
(0.310674 0.0365908 -0.00691092)
(0.267996 0.0335938 -0.00702682)
(0.367263 0.0264756 -0.00739088)
(0.407842 0.0261317 -0.00790775)
(0.409636 0.0281019 -0.00820631)
(0.420767 0.0302111 -0.00830476)
(0.447273 0.0322782 -0.00835926)
(0.471906 0.0334263 -0.00839501)
(0.476513 0.0333775 -0.00836389)
(0.471808 0.03278 -0.00799335)
(0.471486 0.0314637 -0.00728476)
(0.466555 0.0305066 -0.00693042)
(0.455455 0.0305862 -0.00686394)
(0.438511 0.0311018 -0.00696184)
(0.412824 0.032978 -0.0072713)
(0.383253 0.0351969 -0.00744658)
(0.358582 0.0376914 -0.00741522)
(0.337276 0.0401555 -0.00728166)
(0.308976 0.0431035 -0.00721643)
(0.265328 0.0461249 -0.00725117)
(0.210207 0.0488027 -0.00726601)
(0.117527 0.0506223 -0.00729289)
(0.0399693 0.0507008 -0.00708615)
(2.08971 -0.00391492 -0.000735455)
(1.07754 0.00732594 -0.00534778)
(0.324385 0.06471 -0.00689782)
(0.260471 0.0556492 -0.00698674)
(0.362091 0.0437873 -0.0073695)
(0.40878 0.0444246 -0.00788548)
(0.412619 0.0482619 -0.00818748)
(0.424166 0.0521334 -0.00829258)
(0.450387 0.0558742 -0.00834395)
(0.474288 0.0578847 -0.00837655)
(0.478613 0.0579251 -0.00834696)
(0.473772 0.0571653 -0.00798726)
(0.473372 0.0549644 -0.00727929)
(0.468933 0.0534605 -0.00691133)
(0.458138 0.0537739 -0.00683629)
(0.441638 0.0548388 -0.00692409)
(0.416751 0.0582232 -0.00722439)
(0.38767 0.0622246 -0.00741189)
(0.363272 0.0667194 -0.00738586)
(0.342092 0.0710311 -0.00725587)
(0.313845 0.0760641 -0.00718698)
(0.269738 0.0812487 -0.00722192)
(0.213472 0.0858127 -0.00723541)
(0.119444 0.0890147 -0.00726381)
(0.0405448 0.088892 -0.00705417)
(2.08182 -0.00503793 -0.000780675)
(1.10133 0.01263 -0.00530237)
(0.345301 0.096949 -0.00688045)
(0.247522 0.0725917 -0.00693496)
(0.355814 0.0604167 -0.00734253)
(0.411317 0.0629825 -0.00785018)
(0.417357 0.0681995 -0.0081587)
(0.42927 0.0736721 -0.00827539)
(0.454868 0.078631 -0.00832542)
(0.477627 0.0809553 -0.00835703)
(0.481879 0.0806322 -0.00833462)
(0.477035 0.0794925 -0.00800986)
(0.476342 0.0760705 -0.00729853)
(0.472579 0.0738192 -0.00690209)
(0.462294 0.0741881 -0.00681312)
(0.446571 0.0758192 -0.00688846)
(0.422961 0.0807587 -0.0071734)
(0.394653 0.0868474 -0.00737377)
(0.370605 0.0936534 -0.00735437)
(0.349521 0.0999968 -0.00722897)
(0.321376 0.107323 -0.00715478)
(0.276745 0.115085 -0.00718922)
(0.219005 0.122057 -0.00720395)
(0.12295 0.127326 -0.00723338)
(0.0416381 0.127436 -0.00702473)
(2.07286 -0.0059951 -0.000830487)
(1.1429 0.0188503 -0.00521109)
(0.372745 0.131544 -0.00683136)
(0.228764 0.0858214 -0.0068855)
(0.353857 0.0765796 -0.00733177)
(0.415777 0.0814706 -0.007801)
(0.423392 0.0881821 -0.00812125)
(0.435794 0.0953839 -0.00825278)
(0.460348 0.101361 -0.00830242)
(0.481577 0.103958 -0.00833367)
(0.485756 0.10343 -0.00831733)
(0.480804 0.102133 -0.00803177)
(0.479748 0.097472 -0.00732977)
(0.476998 0.0945407 -0.00689456)
(0.467436 0.0946817 -0.00678574)
(0.45271 0.0968081 -0.00684352)
(0.430766 0.103055 -0.00710517)
(0.403563 0.11119 -0.00732533)
(0.379912 0.120218 -0.00731689)
(0.358978 0.128579 -0.00720111)
(0.331285 0.138175 -0.00712076)
(0.286319 0.148842 -0.00715231)
(0.227027 0.158718 -0.00716783)
(0.128536 0.167161 -0.00719873)
(0.0436965 0.16855 -0.00699067)
(2.06115 -0.00712996 -0.00089483)
(1.20157 0.0242318 -0.00506765)
(0.406113 0.164662 -0.00673643)
(0.20617 0.101339 -0.00684028)
(0.355534 0.0924831 -0.00733194)
(0.422283 0.0994515 -0.00774376)
(0.431166 0.108471 -0.00808053)
(0.443721 0.117467 -0.00822936)
(0.466604 0.124181 -0.00827529)
(0.485936 0.126924 -0.00830439)
(0.490196 0.126327 -0.00829365)
(0.485076 0.125059 -0.00805443)
(0.483519 0.119319 -0.00737491)
(0.481926 0.115636 -0.00688995)
(0.473266 0.115179 -0.00675472)
(0.459934 0.117719 -0.00679334)
(0.440098 0.125022 -0.0070268)
(0.414412 0.13519 -0.00726882)
(0.391301 0.146433 -0.00727388)
(0.370632 0.157212 -0.00717117)
(0.343768 0.169266 -0.00708033)
(0.298875 0.183405 -0.00710904)
(0.238346 0.197112 -0.00712186)
(0.137248 0.210409 -0.0071549)
(0.0473462 0.215117 -0.00694664)
(2.04713 -0.00791313 -0.000970734)
(1.27657 0.0285224 -0.00486631)
(0.448278 0.193932 -0.00659114)
(0.18468 0.119861 -0.00679783)
(0.359115 0.109698 -0.00733581)
(0.430528 0.118253 -0.00767888)
(0.440547 0.129623 -0.00803491)
(0.452656 0.140256 -0.00820414)
(0.473333 0.147309 -0.00824911)
(0.49061 0.149983 -0.0082754)
(0.495086 0.14936 -0.00826706)
(0.489712 0.148041 -0.00806989)
(0.487527 0.141517 -0.00742493)
(0.487152 0.136935 -0.00688933)
(0.479695 0.135802 -0.00672025)
(0.468137 0.138659 -0.00673791)
(0.450731 0.146637 -0.00693335)
(0.427003 0.158646 -0.00719862)
(0.404792 0.171921 -0.0072237)
(0.384691 0.185617 -0.00713593)
(0.359207 0.20045 -0.00704046)
(0.315219 0.21898 -0.00705537)
(0.254298 0.237973 -0.00706768)
(0.151244 0.258532 -0.00709835)
(0.0543504 0.270449 -0.00688318)
(2.03114 -0.00870517 -0.00105578)
(1.36629 0.0303653 -0.00460748)
(0.501129 0.215629 -0.0063779)
(0.17045 0.140051 -0.00675694)
(0.364326 0.13029 -0.00733102)
(0.439426 0.139621 -0.00760649)
(0.450821 0.152328 -0.00798411)
(0.462135 0.163933 -0.00817653)
(0.48014 0.170783 -0.00822234)
(0.495347 0.173108 -0.00824499)
(0.500198 0.172343 -0.00823755)
(0.494687 0.170684 -0.0080824)
(0.491884 0.163929 -0.00748634)
(0.492764 0.158398 -0.00689873)
(0.486808 0.156617 -0.00668449)
(0.477181 0.159766 -0.00667876)
(0.462414 0.167736 -0.00683164)
(0.441082 0.181374 -0.00711624)
(0.420425 0.196474 -0.00716774)
(0.401522 0.213309 -0.00709598)
(0.378165 0.231427 -0.0069867)
(0.336454 0.25525 -0.006989)
(0.276749 0.28178 -0.00699069)
(0.173788 0.313329 -0.00701734)
(0.0676728 0.33976 -0.00678627)
(2.01252 -0.00998876 -0.0011534)
(1.46611 0.0272785 -0.00429832)
(0.566815 0.217567 -0.00606538)
(0.169396 0.160926 -0.00673124)
(0.370037 0.155584 -0.00729999)
(0.446908 0.165066 -0.00752596)
(0.460443 0.177387 -0.00792825)
(0.471254 0.188609 -0.00814654)
(0.486574 0.194569 -0.00819531)
(0.499942 0.19621 -0.00821383)
(0.505254 0.195069 -0.00820691)
(0.500059 0.192591 -0.00809224)
(0.496862 0.18622 -0.00756036)
(0.498812 0.18002 -0.0069233)
(0.494757 0.177576 -0.00665387)
(0.486895 0.180923 -0.00661616)
(0.474782 0.188199 -0.00672778)
(0.456514 0.203223 -0.00701277)
(0.438018 0.220159 -0.00710075)
(0.421246 0.23992 -0.00705004)
(0.401148 0.261553 -0.00692273)
(0.364012 0.290899 -0.0069098)
(0.308669 0.328828 -0.00690243)
(0.21087 0.376809 -0.00690814)
(0.0934197 0.430661 -0.00662444)
(1.99087 -0.01204 -0.00126607)
(1.56124 0.0116079 -0.00392079)
(0.643997 0.16414 -0.00564765)
(0.181021 0.176198 -0.00670754)
(0.371965 0.185504 -0.00725702)
(0.450129 0.194288 -0.00744804)
(0.467455 0.204229 -0.00787314)
(0.478882 0.213781 -0.00811104)
(0.492132 0.218348 -0.00816684)
(0.504099 0.219061 -0.00818218)
(0.509839 0.217247 -0.00817702)
(0.50561 0.214092 -0.00809654)
(0.502755 0.208403 -0.00764211)
(0.505509 0.20192 -0.00696349)
(0.503484 0.198794 -0.0066301)
(0.497081 0.201763 -0.0065556)
(0.487663 0.208262 -0.00663179)
(0.473249 0.223978 -0.00689507)
(0.457427 0.242744 -0.00702053)
(0.443617 0.265119 -0.00698973)
(0.428033 0.290134 -0.00687309)
(0.399841 0.324749 -0.00681502)
(0.354741 0.375853 -0.00677016)
(0.271978 0.452175 -0.00673273)
(0.142286 0.579462 -0.00633236)
(2.09579 -0.000419221 4.33246e-08)
(1.05713 0.00159498 1.49136e-07)
(0.303679 0.012042 1.70657e-07)
(0.271938 0.0117348 1.31663e-07)
(0.370509 0.00984269 7.2059e-08)
(0.408376 0.0100955 1.01851e-07)
(0.409276 0.0111933 1.38298e-07)
(0.420437 0.0123464 1.31628e-07)
(0.447354 0.0134583 8.77859e-08)
(0.472608 0.0142279 1.03483e-07)
(0.477496 0.0145459 1.87359e-07)
(0.472646 0.0146199 -6.253e-08)
(0.471865 0.0143046 4.96444e-08)
(0.466157 0.0139571 -2.11597e-09)
(0.454384 0.0139063 -1.08639e-07)
(0.436832 0.014074 -1.92114e-08)
(0.410575 0.0148486 -7.20262e-08)
(0.380794 0.0159065 3.8055e-08)
(0.356133 0.0171448 1.59546e-07)
(0.334889 0.0184049 2.91784e-07)
(0.306743 0.0198474 2.814e-07)
(0.263509 0.0213255 2.60262e-07)
(0.209213 0.0227763 2.22598e-07)
(0.117588 0.0240561 1.2115e-07)
(0.0404152 0.0247262 8.68294e-08)
(2.09461 -0.00196096 1.75482e-08)
(1.06393 0.00430715 1.34682e-07)
(0.310643 0.0365937 1.77391e-07)
(0.268078 0.0336044 1.33984e-07)
(0.367326 0.0264718 6.97762e-08)
(0.407901 0.026122 9.29047e-08)
(0.409706 0.0280961 1.29915e-07)
(0.420867 0.0302064 1.2943e-07)
(0.447412 0.0322688 9.90908e-08)
(0.472104 0.0333901 8.92455e-08)
(0.476807 0.0333227 1.27407e-07)
(0.472148 0.0327251 2.24083e-08)
(0.471804 0.0313952 2.06893e-08)
(0.466847 0.0304526 -9.2013e-09)
(0.45568 0.0305591 -9.43951e-08)
(0.438664 0.0310957 -5.05422e-08)
(0.412922 0.0329874 -7.00561e-08)
(0.383296 0.03521 2.9336e-08)
(0.358598 0.0377051 1.4933e-07)
(0.337279 0.0401723 2.70831e-07)
(0.308991 0.0431213 2.70822e-07)
(0.265365 0.0461389 2.54499e-07)
(0.210258 0.0488076 2.19625e-07)
(0.117603 0.0506222 1.28356e-07)
(0.0400212 0.0506955 9.72877e-08)
(2.08972 -0.00390534 1.5813e-08)
(1.07752 0.00733606 1.36349e-07)
(0.324358 0.0647081 1.84802e-07)
(0.260535 0.0556497 1.33408e-07)
(0.36214 0.0437773 6.50375e-08)
(0.408829 0.0444023 8.77296e-08)
(0.412677 0.0482375 1.27185e-07)
(0.424244 0.0521051 1.32213e-07)
(0.450487 0.0558355 1.25019e-07)
(0.474431 0.0578412 8.81422e-08)
(0.478838 0.0578759 8.21887e-08)
(0.474021 0.0571128 7.0627e-08)
(0.473587 0.0549391 3.52008e-08)
(0.469126 0.0534728 -1.40404e-08)
(0.458287 0.0538043 -8.52479e-08)
(0.441739 0.0548954 -6.98348e-08)
(0.416808 0.058266 -7.2768e-08)
(0.387682 0.062262 1.38087e-08)
(0.363268 0.066751 1.28153e-07)
(0.342086 0.0710673 2.32875e-07)
(0.313852 0.076098 2.51115e-07)
(0.269765 0.0812721 2.45172e-07)
(0.213516 0.0858209 2.16172e-07)
(0.119514 0.0890132 1.40289e-07)
(0.0405927 0.0888839 1.07936e-07)
(2.08185 -0.00503393 3.60803e-08)
(1.10132 0.0126345 1.55326e-07)
(0.345293 0.0969493 1.96047e-07)
(0.247587 0.0726027 1.27028e-07)
(0.355846 0.0604061 5.46167e-08)
(0.411343 0.0629512 7.96399e-08)
(0.417387 0.068158 1.18523e-07)
(0.429302 0.0736245 1.28128e-07)
(0.454907 0.0785708 1.34893e-07)
(0.477676 0.0808997 9.12179e-08)
(0.481942 0.0805883 3.77257e-08)
(0.47709 0.0794419 1.33093e-07)
(0.476382 0.0760866 -1.26698e-08)
(0.472611 0.0738878 -3.39196e-08)
(0.46231 0.0742795 -8.84175e-08)
(0.44656 0.0759325 -1.17342e-07)
(0.422918 0.080847 -9.17683e-08)
(0.394598 0.0869149 -1.1284e-08)
(0.370559 0.0937064 9.40947e-08)
(0.34949 0.100046 1.94283e-07)
(0.321362 0.107365 2.26227e-07)
(0.276755 0.115112 2.34077e-07)
(0.219038 0.122066 2.13602e-07)
(0.123011 0.127321 1.60283e-07)
(0.0416806 0.127423 1.22035e-07)
(2.07288 -0.00599716 2.45315e-08)
(1.14287 0.018851 1.67447e-07)
(0.372741 0.131558 2.4114e-07)
(0.22883 0.0858356 8.6804e-08)
(0.353871 0.0765656 6.16671e-08)
(0.415788 0.0814375 7.08553e-08)
(0.423401 0.0881379 1.08199e-07)
(0.435796 0.0953342 1.25956e-07)
(0.460343 0.101302 1.40106e-07)
(0.48157 0.103899 9.56641e-08)
(0.485707 0.103382 4.84186e-08)
(0.480707 0.102077 1.13981e-07)
(0.479634 0.097492 2.78229e-08)
(0.47686 0.094611 -1.23619e-08)
(0.467288 0.0947812 -6.748e-08)
(0.452548 0.0969206 -8.97755e-08)
(0.430588 0.103151 -8.73287e-08)
(0.403409 0.111262 -2.34443e-08)
(0.379805 0.120274 7.2345e-08)
(0.358913 0.128623 1.60808e-07)
(0.33125 0.138212 2.02374e-07)
(0.286312 0.148866 2.19655e-07)
(0.227047 0.158723 2.07535e-07)
(0.128587 0.167148 1.78589e-07)
(0.0437349 0.168528 1.30376e-07)
(2.06117 -0.00713143 2.8389e-08)
(1.20155 0.0242361 1.93489e-07)
(0.406117 0.16469 2.91738e-07)
(0.206233 0.101348 5.22929e-08)
(0.355543 0.0924692 4.86466e-08)
(0.422289 0.0994228 6.16886e-08)
(0.431164 0.108433 1.01101e-07)
(0.443701 0.117427 1.20958e-07)
(0.466572 0.124138 1.3467e-07)
(0.485891 0.126885 9.84661e-08)
(0.490079 0.126288 5.1803e-08)
(0.484913 0.125014 1.35328e-07)
(0.483356 0.119334 -5.28093e-08)
(0.481734 0.11569 -4.73455e-08)
(0.473066 0.115252 -7.43925e-08)
(0.459717 0.117788 -8.28987e-08)
(0.439863 0.125077 -7.85969e-08)
(0.41421 0.135224 -2.38253e-08)
(0.391158 0.146462 5.11768e-08)
(0.370544 0.15723 1.43144e-07)
(0.343717 0.169287 1.76836e-07)
(0.298854 0.183419 2.03746e-07)
(0.238351 0.19711 1.98402e-07)
(0.137287 0.210387 1.79486e-07)
(0.0473787 0.215083 1.23694e-07)
(2.04714 -0.00791482 1.96269e-08)
(1.27656 0.028528 2.13462e-07)
(0.448285 0.19397 3.58214e-07)
(0.184735 0.119871 3.55784e-08)
(0.359124 0.109686 3.06341e-08)
(0.430534 0.118228 5.46245e-08)
(0.440541 0.129594 9.88375e-08)
(0.452627 0.14023 1.20424e-07)
(0.473291 0.147292 1.23147e-07)
(0.490547 0.149973 1.02312e-07)
(0.494938 0.149356 5.31691e-08)
(0.489524 0.148043 6.21021e-08)
(0.487352 0.141555 -1.54266e-08)
(0.486951 0.137003 -5.00448e-08)
(0.479498 0.135868 -7.14536e-08)
(0.467938 0.138701 -1.0215e-07)
(0.450522 0.146665 -7.30007e-08)
(0.426823 0.158649 -2.16953e-08)
(0.404662 0.171926 5.47657e-08)
(0.384606 0.185606 1.13352e-07)
(0.35916 0.200447 1.52101e-07)
(0.315191 0.218977 1.86237e-07)
(0.254292 0.237961 1.84402e-07)
(0.151269 0.258502 1.69906e-07)
(0.0543756 0.270407 1.20213e-07)
(2.03115 -0.00870534 2.02076e-08)
(1.36629 0.0303735 2.35113e-07)
(0.501146 0.215675 4.361e-07)
(0.1705 0.140066 1.80438e-08)
(0.364335 0.130282 4.92183e-09)
(0.439434 0.139603 4.96139e-08)
(0.450816 0.152308 9.63499e-08)
(0.462108 0.163922 1.15232e-07)
(0.480097 0.17079 1.12358e-07)
(0.495285 0.173128 7.79419e-08)
(0.500051 0.17237 2.36476e-08)
(0.494498 0.170735 6.04698e-08)
(0.491716 0.163983 -2.85401e-08)
(0.492584 0.158467 -4.38599e-10)
(0.486635 0.156677 -3.65829e-08)
(0.477025 0.159794 -1.07948e-07)
(0.462256 0.167766 -4.32323e-08)
(0.440946 0.181373 -2.14241e-08)
(0.420324 0.196469 6.13165e-08)
(0.401447 0.213288 8.94266e-08)
(0.378127 0.231408 1.27147e-07)
(0.336427 0.25523 1.69632e-07)
(0.276736 0.281757 1.69072e-07)
(0.173803 0.313292 1.57743e-07)
(0.0676929 0.339716 1.22831e-07)
(2.01253 -0.00999073 1.79011e-08)
(1.46613 0.0272841 2.48515e-07)
(0.566847 0.217614 5.35729e-07)
(0.169446 0.160942 1.55548e-08)
(0.370048 0.155582 -1.50746e-08)
(0.446919 0.165055 4.86431e-08)
(0.460441 0.177377 9.39998e-08)
(0.471234 0.188611 1.05901e-07)
(0.486539 0.194595 1.00715e-07)
(0.499889 0.196255 5.08945e-08)
(0.505136 0.195126 1.69538e-09)
(0.499908 0.192677 8.81723e-08)
(0.496726 0.186287 -2.75406e-08)
(0.498673 0.180077 -4.61367e-09)
(0.494617 0.177617 -3.34201e-09)
(0.486779 0.180937 -9.38284e-08)
(0.474664 0.188212 1.92209e-08)
(0.456401 0.203224 -3.63349e-08)
(0.43794 0.220147 4.11773e-08)
(0.421185 0.239901 5.92464e-08)
(0.401116 0.261527 1.27231e-07)
(0.363987 0.290868 1.52776e-07)
(0.308653 0.328796 1.52356e-07)
(0.210878 0.376768 1.40418e-07)
(0.0934371 0.430615 1.26321e-07)
(1.99087 -0.0120432 2.9816e-09)
(1.56128 0.0116065 2.41879e-07)
(0.644045 0.164163 6.64088e-07)
(0.181069 0.17621 6.15467e-08)
(0.371977 0.185508 -7.79362e-09)
(0.450141 0.194284 5.24905e-08)
(0.467457 0.204227 9.88395e-08)
(0.478869 0.213793 1.01325e-07)
(0.492109 0.218386 9.29257e-08)
(0.504066 0.219122 4.33508e-08)
(0.509763 0.217327 1.60878e-08)
(0.505505 0.214189 9.5862e-08)
(0.502663 0.208472 -4.5511e-08)
(0.505419 0.201963 -1.4126e-08)
(0.503384 0.198811 6.41094e-09)
(0.496991 0.201762 -4.44576e-08)
(0.487568 0.208242 1.27217e-08)
(0.473157 0.223973 -4.4635e-09)
(0.457362 0.242727 3.72717e-08)
(0.443566 0.2651 6.45592e-08)
(0.428004 0.290102 1.03691e-07)
(0.399818 0.32471 1.39349e-07)
(0.354725 0.375812 1.41411e-07)
(0.27198 0.452127 1.25555e-07)
(0.142302 0.579414 1.19526e-07)
(2.09576 -0.000409428 -4.84729e-08)
(1.05717 0.0016071 1.24709e-07)
(0.303721 0.0120378 1.52717e-07)
(0.271911 0.0117165 3.10243e-08)
(0.370483 0.00982543 -1.32575e-08)
(0.408381 0.0100745 -4.26081e-08)
(0.409301 0.0111641 -4.10382e-08)
(0.420466 0.0123083 -8.11276e-08)
(0.447382 0.0134168 -1.62852e-07)
(0.472629 0.0142032 -1.68899e-07)
(0.477483 0.014542 -2.32706e-08)
(0.472603 0.0146316 -2.67541e-07)
(0.471794 0.0143308 -1.65833e-07)
(0.466032 0.0139727 -1.42846e-07)
(0.45424 0.013899 -2.24225e-07)
(0.436687 0.0140522 -3.40801e-08)
(0.410441 0.0148191 -1.0013e-07)
(0.380711 0.0158815 2.78231e-08)
(0.356097 0.0171267 1.45571e-07)
(0.334887 0.0183929 2.37296e-07)
(0.306745 0.019839 1.61461e-07)
(0.263503 0.0213192 6.49989e-08)
(0.209195 0.0227722 4.6294e-08)
(0.117551 0.0240528 -5.21996e-09)
(0.0403909 0.0247249 -6.94791e-08)
(2.09462 -0.00195442 2.80391e-08)
(1.06399 0.00431635 1.75123e-07)
(0.310704 0.0365956 1.50288e-07)
(0.268025 0.0336003 2.67636e-08)
(0.36728 0.0264778 -1.44837e-08)
(0.40787 0.0261346 -4.41382e-08)
(0.409667 0.02811 -3.7311e-08)
(0.420793 0.0302256 -7.28172e-08)
(0.447294 0.0323028 -1.40489e-07)
(0.471921 0.0334503 -1.12221e-07)
(0.476516 0.0333968 2.17389e-08)
(0.471802 0.0327979 -3.68196e-07)
(0.471473 0.0314537 -1.47238e-07)
(0.466526 0.0304819 -1.51115e-07)
(0.455419 0.0305684 -2.13395e-07)
(0.438465 0.0310857 -3.41067e-08)
(0.41277 0.0329755 -9.06923e-08)
(0.383213 0.035195 3.01475e-08)
(0.358564 0.0376896 1.41755e-07)
(0.337279 0.0401519 2.28743e-07)
(0.308993 0.0431015 1.62511e-07)
(0.26536 0.0461224 6.94978e-08)
(0.210241 0.0487972 4.97444e-08)
(0.117566 0.0506147 -1.43662e-08)
(0.0399983 0.0506919 -7.84598e-08)
(2.08972 -0.00391273 2.34387e-11)
(1.07758 0.00733005 1.66314e-07)
(0.324416 0.0647181 1.71616e-07)
(0.260496 0.0556539 3.34815e-08)
(0.362105 0.0437877 -2.37188e-08)
(0.408809 0.0444255 -5.68763e-08)
(0.412652 0.0482675 -4.61155e-08)
(0.424199 0.0521457 -5.92398e-08)
(0.450418 0.0558977 -1.20397e-07)
(0.474322 0.0579138 -7.51396e-08)
(0.478658 0.0579484 -9.34584e-10)
(0.47382 0.0571834 -3.43284e-07)
(0.473406 0.0549547 -1.17654e-07)
(0.468948 0.0534365 -1.58975e-07)
(0.458135 0.0537491 -2.05076e-07)
(0.441615 0.0548157 -1.04588e-07)
(0.416714 0.0582079 -1.23653e-07)
(0.387638 0.0622142 8.63334e-09)
(0.36326 0.066713 1.33522e-07)
(0.342101 0.0710278 1.96258e-07)
(0.313866 0.0760635 1.5322e-07)
(0.26977 0.0812464 7.11183e-08)
(0.213505 0.0858051 5.19327e-08)
(0.119482 0.0890031 -2.29745e-08)
(0.040572 0.0888786 -8.99751e-08)
(2.08183 -0.00503646 -3.81949e-08)
(1.10138 0.0126349 1.5856e-07)
(0.345342 0.0969629 2.00633e-07)
(0.247546 0.0725953 5.25263e-08)
(0.355825 0.0604171 -3.19766e-08)
(0.411342 0.0629803 -6.50486e-08)
(0.417388 0.0681993 -3.98481e-08)
(0.429301 0.0736779 -3.36091e-08)
(0.454899 0.0786463 -5.37949e-08)
(0.477658 0.080979 -8.78296e-08)
(0.481926 0.0806611 -8.93871e-08)
(0.477091 0.0795189 -1.76263e-07)
(0.476388 0.0760823 -1.35534e-07)
(0.472615 0.0738195 -1.34299e-07)
(0.462322 0.0741843 -1.90605e-07)
(0.446585 0.0758147 -1.73682e-07)
(0.422961 0.0807592 -1.28482e-07)
(0.394652 0.0868504 1.74102e-09)
(0.370613 0.0936571 1.25605e-07)
(0.349539 0.0999994 1.58168e-07)
(0.3214 0.107325 1.29534e-07)
(0.276775 0.115083 6.13818e-08)
(0.219036 0.122047 4.47255e-08)
(0.122984 0.12731 -3.58939e-08)
(0.0416627 0.127417 -1.10492e-07)
(2.07287 -0.00599558 -1.43466e-08)
(1.14296 0.0188543 2.41522e-07)
(0.372789 0.131564 3.32327e-07)
(0.228788 0.0858257 -4.46138e-08)
(0.353869 0.0765783 -3.07758e-08)
(0.415799 0.0814655 -4.32141e-08)
(0.423419 0.088178 -3.6969e-08)
(0.435825 0.0953846 -1.55457e-08)
(0.460378 0.101369 -1.8832e-08)
(0.481614 0.103972 -1.01726e-07)
(0.485808 0.10345 -1.5479e-07)
(0.480849 0.102157 5.65804e-08)
(0.47977 0.0974836 -1.99007e-07)
(0.477007 0.0945498 -1.16021e-07)
(0.467435 0.0946963 -1.84142e-07)
(0.452697 0.096824 -1.93844e-07)
(0.430745 0.10308 -1.40094e-07)
(0.403546 0.111213 -7.66903e-09)
(0.379911 0.120236 1.10937e-07)
(0.358991 0.128587 1.3828e-07)
(0.331307 0.138178 1.06406e-07)
(0.286347 0.148839 4.30509e-08)
(0.227056 0.158706 2.83957e-08)
(0.128567 0.16714 -5.0599e-08)
(0.0437187 0.168524 -1.44016e-07)
(2.06116 -0.00713044 -1.81444e-08)
(1.20164 0.0242359 2.77762e-07)
(0.406163 0.164685 4.41485e-07)
(0.206195 0.101346 -1.62679e-07)
(0.355546 0.0924798 -6.86352e-08)
(0.422304 0.0994442 -4.56384e-08)
(0.431192 0.108464 -2.78141e-08)
(0.443747 0.117464 -8.32841e-09)
(0.466631 0.124183 8.39511e-09)
(0.485966 0.126936 -8.32029e-08)
(0.490244 0.126338 -1.39587e-07)
(0.485125 0.125073 1.47735e-07)
(0.483553 0.119325 -1.90715e-07)
(0.481949 0.115643 -1.15239e-07)
(0.473264 0.115192 -1.88554e-07)
(0.459909 0.117732 -1.84963e-07)
(0.440062 0.125041 -1.46133e-07)
(0.41438 0.135208 -1.59605e-08)
(0.391287 0.146448 7.33773e-08)
(0.370637 0.157219 1.34766e-07)
(0.343785 0.169267 9.39524e-08)
(0.298899 0.1834 2.39075e-08)
(0.23837 0.197098 9.61661e-09)
(0.137273 0.210384 -6.25118e-08)
(0.0473647 0.215085 -1.66504e-07)
(2.04714 -0.00791391 -1.17683e-08)
(1.27665 0.0285256 3.01063e-07)
(0.448336 0.193957 5.25794e-07)
(0.184707 0.119871 -1.51532e-07)
(0.359128 0.109695 -8.56911e-08)
(0.43055 0.118245 -5.4137e-08)
(0.440572 0.129614 -2.6687e-08)
(0.452679 0.140251 -1.11371e-08)
(0.473356 0.14731 1.77067e-10)
(0.490631 0.149992 -5.53228e-08)
(0.49512 0.149376 -6.19355e-08)
(0.489747 0.148057 1.04225e-07)
(0.487549 0.141546 -1.28198e-07)
(0.487166 0.136969 -1.45863e-07)
(0.47969 0.135833 -1.80816e-07)
(0.468114 0.138682 -1.62265e-07)
(0.450701 0.146653 -1.3708e-07)
(0.426976 0.158653 -1.16266e-08)
(0.404779 0.171926 2.04901e-08)
(0.384694 0.185614 1.39392e-07)
(0.359222 0.200445 9.35816e-08)
(0.315239 0.218971 1.00026e-08)
(0.254317 0.237957 -8.52458e-09)
(0.151262 0.258505 -7.51133e-08)
(0.0543643 0.270416 -1.79893e-07)
(2.03115 -0.00870554 -1.76651e-08)
(1.36638 0.0303676 2.99426e-07)
(0.501198 0.215651 6.10203e-07)
(0.170484 0.140063 -1.48838e-07)
(0.36434 0.13029 -9.88226e-08)
(0.439448 0.139615 -5.32928e-08)
(0.450845 0.15232 -2.15203e-08)
(0.462155 0.163927 -3.30459e-09)
(0.480158 0.170783 6.78935e-09)
(0.495362 0.173115 -1.56133e-08)
(0.500213 0.172359 -2.33596e-08)
(0.494694 0.170699 7.76149e-09)
(0.491878 0.163963 -4.35639e-08)
(0.492753 0.158446 -1.31282e-07)
(0.486788 0.156663 -1.79649e-07)
(0.47716 0.159801 -9.16008e-08)
(0.462395 0.167762 -1.58455e-07)
(0.441068 0.181382 -1.31125e-08)
(0.420422 0.196475 1.5035e-08)
(0.401528 0.2133 1.19282e-07)
(0.378183 0.231416 9.3837e-08)
(0.336472 0.255236 7.12086e-10)
(0.276763 0.28176 -1.68438e-08)
(0.173801 0.3133 -8.20941e-08)
(0.067685 0.339731 -1.78181e-07)
(2.01252 -0.00999089 -2.20965e-08)
(1.46621 0.0272736 2.84671e-07)
(0.5669 0.217568 7.03946e-07)
(0.169443 0.160936 -1.21232e-07)
(0.370053 0.155588 -8.35257e-08)
(0.44693 0.165064 -4.11594e-08)
(0.460465 0.177381 -1.13975e-08)
(0.471273 0.188604 6.0642e-09)
(0.486589 0.19457 1.47166e-08)
(0.499953 0.196219 1.34279e-08)
(0.505257 0.195086 3.3804e-08)
(0.500046 0.19261 -4.95672e-08)
(0.496837 0.186251 -1.71185e-08)
(0.498788 0.180065 -1.19466e-07)
(0.494729 0.177624 -1.7618e-07)
(0.486874 0.180961 -6.60527e-08)
(0.474767 0.188228 -2.16333e-07)
(0.456503 0.203236 4.38376e-08)
(0.43802 0.220159 5.0986e-08)
(0.421255 0.239912 1.26469e-07)
(0.401166 0.261539 6.19679e-08)
(0.364029 0.290882 -5.75528e-09)
(0.30868 0.328807 -1.11715e-08)
(0.210882 0.37678 -9.48724e-08)
(0.0934328 0.430635 -1.57915e-07)
(1.99086 -0.012043 -3.06135e-08)
(1.56133 0.0115946 2.27282e-07)
(0.644089 0.1641 7.28553e-07)
(0.181074 0.176201 -3.10228e-08)
(0.371978 0.185512 -5.40485e-08)
(0.450147 0.19429 -2.94101e-08)
(0.467473 0.204226 -6.00345e-09)
(0.478898 0.213778 7.78913e-09)
(0.492146 0.218351 9.84924e-09)
(0.504112 0.219072 1.17686e-08)
(0.50984 0.217266 2.91854e-08)
(0.505588 0.214117 -5.83563e-08)
(0.502724 0.208433 8.45353e-10)
(0.505483 0.20196 -8.72176e-08)
(0.503455 0.198834 -1.49868e-07)
(0.497058 0.201797 -9.53598e-08)
(0.487646 0.208282 -1.71328e-07)
(0.473237 0.22399 1.63741e-08)
(0.457429 0.242743 6.30516e-08)
(0.443626 0.265112 1.12155e-07)
(0.42805 0.290119 6.72271e-08)
(0.399858 0.324729 1.82831e-08)
(0.35475 0.37583 -4.07949e-08)
(0.271987 0.452148 -1.01159e-07)
(0.142301 0.579439 -1.26369e-07)
(2.09577 -0.000410325 -5.77006e-08)
(1.0572 0.00160597 1.81425e-07)
(0.303742 0.0120388 2.30114e-07)
(0.271913 0.0117185 5.66444e-08)
(0.370478 0.00982728 1.56878e-08)
(0.408378 0.0100766 -2.36038e-08)
(0.409296 0.0111669 -7.17684e-08)
(0.420456 0.012312 -1.34572e-07)
(0.447369 0.0134214 -1.57021e-07)
(0.472612 0.014207 -1.23683e-07)
(0.477462 0.0145443 -1.02533e-07)
(0.472579 0.0146339 -7.78133e-08)
(0.471769 0.0143327 -9.5611e-08)
(0.466005 0.0139768 -1.11922e-07)
(0.454213 0.0139063 -1.18766e-07)
(0.436659 0.0140608 -1.03774e-07)
(0.410412 0.0148267 -8.53626e-08)
(0.380689 0.0158866 -3.55567e-08)
(0.356086 0.0171291 2.61109e-08)
(0.334884 0.0183936 7.1428e-08)
(0.306748 0.0198388 1.08207e-07)
(0.263513 0.0213185 1.37507e-07)
(0.209208 0.0227712 1.45074e-07)
(0.117567 0.0240515 1.52468e-07)
(0.0403989 0.0247234 4.6547e-08)
(2.09462 -0.00195523 -5.75366e-08)
(1.06402 0.00431532 1.8192e-07)
(0.310724 0.0365978 2.34487e-07)
(0.268029 0.0336021 5.42697e-08)
(0.367276 0.0264785 1.3409e-08)
(0.40787 0.0261346 -3.59865e-08)
(0.409667 0.0281095 -7.97213e-08)
(0.420791 0.0302248 -1.35683e-07)
(0.447291 0.0323012 -1.49199e-07)
(0.47192 0.0334456 -1.22473e-07)
(0.476517 0.0333896 -1.07109e-07)
(0.471803 0.0327907 -7.32529e-08)
(0.471471 0.031444 -8.74638e-08)
(0.466518 0.0304719 -1.0475e-07)
(0.455405 0.0305597 -1.14989e-07)
(0.438444 0.0310788 -9.82652e-08)
(0.412745 0.0329699 -8.10662e-08)
(0.383193 0.0351912 -2.57752e-08)
(0.358554 0.0376867 3.70511e-08)
(0.337277 0.0401508 7.89794e-08)
(0.308997 0.0431008 1.07051e-07)
(0.265369 0.0461212 1.28552e-07)
(0.210253 0.048795 1.34577e-07)
(0.117582 0.0506117 1.39843e-07)
(0.040006 0.0506887 4.38156e-08)
(2.08972 -0.00391289 -5.38791e-08)
(1.07761 0.00733013 1.89351e-07)
(0.324437 0.0647225 2.45703e-07)
(0.260497 0.0556558 4.81137e-08)
(0.3621 0.0437888 2.56309e-09)
(0.408809 0.0444259 -5.11593e-08)
(0.412652 0.0482668 -8.69662e-08)
(0.424198 0.052144 -1.36176e-07)
(0.450418 0.0558943 -1.37628e-07)
(0.474326 0.0579068 -1.18085e-07)
(0.47867 0.0579377 -9.83454e-08)
(0.473834 0.0571729 -5.35647e-08)
(0.473416 0.0549449 -8.35941e-08)
(0.468954 0.0534321 -9.76501e-08)
(0.458138 0.0537518 -1.06362e-07)
(0.441611 0.0548206 -9.55922e-08)
(0.416704 0.0582166 -6.38087e-08)
(0.387628 0.062221 -5.37505e-09)
(0.363256 0.0667168 5.5187e-08)
(0.342101 0.0710291 9.28637e-08)
(0.31387 0.076063 1.09547e-07)
(0.269778 0.0812442 1.18073e-07)
(0.213517 0.0858012 1.2127e-07)
(0.119497 0.0889982 1.23758e-07)
(0.0405798 0.0888739 4.04022e-08)
(2.08183 -0.005037 -6.49723e-08)
(1.10141 0.0126354 1.9731e-07)
(0.345363 0.0969709 2.68375e-07)
(0.247547 0.0725962 6.12424e-08)
(0.355821 0.0604192 -2.22826e-08)
(0.411342 0.0629804 -7.48285e-08)
(0.417387 0.068197 -1.0191e-07)
(0.429299 0.0736734 -1.37289e-07)
(0.454895 0.0786384 -1.25716e-07)
(0.477656 0.0809695 -1.00266e-07)
(0.481932 0.0806502 -7.6751e-08)
(0.477101 0.0795057 -3.20065e-08)
(0.476392 0.0760777 -9.26726e-08)
(0.472609 0.0738289 -8.99144e-08)
(0.462297 0.0742054 -9.60945e-08)
(0.446547 0.0758387 -7.11712e-08)
(0.422918 0.0807819 -3.8688e-08)
(0.394615 0.0868645 2.10506e-08)
(0.370591 0.0936648 8.18517e-08)
(0.34953 0.100001 1.05008e-07)
(0.321399 0.107324 1.13921e-07)
(0.276781 0.115079 1.0208e-07)
(0.219046 0.122041 1.00677e-07)
(0.122998 0.127303 9.76752e-08)
(0.0416706 0.127409 3.67742e-08)
(2.07287 -0.00599629 -4.85587e-08)
(1.14299 0.018855 3.01169e-07)
(0.372811 0.131574 4.44864e-07)
(0.228787 0.0858272 -8.6531e-08)
(0.353868 0.0765804 -3.52143e-08)
(0.415799 0.0814647 -6.77544e-08)
(0.423416 0.0881738 -1.13432e-07)
(0.435817 0.0953774 -1.36662e-07)
(0.460368 0.101357 -1.22726e-07)
(0.481602 0.103962 -7.95237e-08)
(0.485788 0.103444 -6.69675e-08)
(0.480818 0.102144 -3.82992e-08)
(0.479731 0.0974928 -1.30978e-07)
(0.476953 0.0945713 -1.08505e-07)
(0.467361 0.0947216 -9.10696e-08)
(0.452611 0.0968499 -6.01166e-08)
(0.43066 0.103094 -1.84711e-08)
(0.403479 0.111218 3.79889e-08)
(0.379871 0.120237 9.37527e-08)
(0.358973 0.128585 1.0968e-07)
(0.331302 0.138175 1.10959e-07)
(0.28635 0.148833 8.72291e-08)
(0.227064 0.158698 8.27888e-08)
(0.128579 0.16713 7.03479e-08)
(0.0437266 0.168512 3.52451e-08)
(2.06116 -0.00713145 -5.43014e-08)
(1.20168 0.0242361 3.55468e-07)
(0.406187 0.164696 5.98247e-07)
(0.206193 0.101351 -2.72242e-07)
(0.355546 0.0924816 -9.80192e-08)
(0.422304 0.0994433 -8.52753e-08)
(0.431187 0.10846 -1.25323e-07)
(0.443736 0.117458 -1.36968e-07)
(0.466616 0.124174 -1.18954e-07)
(0.485945 0.126927 -6.42809e-08)
(0.490195 0.126335 -4.91445e-08)
(0.485053 0.125062 -1.71368e-07)
(0.483474 0.11934 -8.90339e-09)
(0.481858 0.115666 -6.52411e-08)
(0.473172 0.115209 -3.76632e-08)
(0.459817 0.117742 -4.92296e-08)
(0.439972 0.125036 8.75806e-09)
(0.414312 0.135194 6.31729e-08)