/*--------------------------------*- C++ -*----------------------------------*\
| =========                 |                                                 |
| \\      /  F ield         | OpenFOAM: The Open Source CFD Toolbox           |
|  \\    /   O peration     | Version:  4.1                                   |
|   \\  /    A nd           | Web:      www.OpenFOAM.org                      |
|    \\/     M anipulation  |                                                 |
\*---------------------------------------------------------------------------*/
FoamFile
{
    version     2.0;
    format      ascii;
    class       volScalarField;
    location    "5.76";
    object      Ma;
}
// * * * * * * * * * * * * * * * * * * * * * * * * * * * * * * * * * * * * * //

dimensions      [0 0 0 0 0 0 0];

internalField   nonuniform List<scalar> 
52500
(
3.00001
2.99997
2.99991
2.99966
2.99931
2.99789
2.99586
2.98804
2.97523
2.9329
2.83812
2.61823
2.05196
1.19074
0.499073
0.296292
0.33578
0.346714
0.315706
0.262404
0.210075
0.167711
0.125988
0.0795511
0.0454716
3.00002
2.99997
2.99991
2.99966
2.99932
2.99792
2.99592
2.98821
2.97555
2.93385
2.84008
2.62285
2.05995
1.20249
0.505256
0.295991
0.336578
0.348075
0.31717
0.264519
0.213498
0.172688
0.133317
0.0925261
0.0687304
3.00002
2.99997
2.99991
2.99967
2.99934
2.99798
2.99604
2.98857
2.97619
2.93578
2.84418
2.63258
2.07776
1.22901
0.519888
0.297073
0.340008
0.353089
0.323001
0.272463
0.224786
0.187899
0.154047
0.122431
0.107469
3.00002
2.99997
2.99992
2.99969
2.99937
2.99807
2.9962
2.9891
2.97715
2.93867
2.85047
2.64763
2.10651
1.27141
0.543069
0.299601
0.346236
0.362225
0.333801
0.286575
0.243395
0.211411
0.183679
0.159858
0.149767
3.00002
2.99997
2.99992
2.9997
2.9994
2.99817
2.9964
2.98963
2.97841
2.94173
2.85902
2.66551
2.1551
1.33506
0.578716
0.307493
0.357564
0.376889
0.350191
0.306677
0.268008
0.241131
0.219048
0.201101
0.194346
3.00002
2.99998
2.99993
2.99972
2.99944
2.99827
2.99662
2.99014
2.9799
2.94504
2.87066
2.68836
2.21977
1.42111
0.626082
0.322302
0.375037
0.397937
0.372866
0.33332
0.298886
0.276575
0.259898
0.24754
0.243872
3.00002
2.99998
2.99993
2.99974
2.99948
2.9984
2.99687
2.99076
2.98156
2.94862
2.88486
2.7151
2.29766
1.53014
0.685982
0.348716
0.40133
0.426191
0.402306
0.366276
0.336153
0.318507
0.30704
0.300521
0.302291
3.00002
2.99998
2.99994
2.99977
2.99953
2.99855
2.99717
2.99167
2.9834
2.95357
2.8982
2.74303
2.38009
1.657
0.756057
0.390243
0.439486
0.462201
0.439241
0.406588
0.379973
0.367036
0.361796
0.363415
0.375208
3.00002
2.99999
2.99995
2.9998
2.99958
2.99871
2.99747
2.99251
2.98513
2.95815
2.90897
2.76843
2.44114
1.75902
0.817174
0.427992
0.47
0.490207
0.474289
0.449499
0.42925
0.421944
0.424628
0.439758
0.475237
3.00002
2.99999
2.99996
2.99983
2.99965
2.99892
2.99785
2.99384
2.98712
2.96532
2.91734
2.79933
2.48687
1.87716
0.915846
0.4942
0.494208
0.507013
0.505478
0.490525
0.4802
0.481031
0.497864
0.540816
0.641284
3
2.99995
2.99989
2.99964
2.99929
2.99787
2.99584
2.98801
2.97521
2.93287
2.83809
2.61816
2.05188
1.1906
0.498926
0.296105
0.335601
0.346533
0.315505
0.262159
0.209764
0.167313
0.125449
0.0786802
0.0439052
3
2.99995
2.99989
2.99964
2.9993
2.9979
2.9959
2.98819
2.97552
2.93381
2.84004
2.62278
2.05987
1.20236
0.505113
0.295805
0.336401
0.347897
0.316973
0.264279
0.213195
0.172307
0.132814
0.0917886
0.0677205
3
2.99995
2.99989
2.99965
2.99932
2.99796
2.99602
2.98855
2.97616
2.93574
2.84415
2.63251
2.07769
1.22887
0.519749
0.296889
0.339834
0.352914
0.322808
0.272232
0.224501
0.187552
0.153618
0.121883
0.106837
3
2.99995
2.9999
2.99967
2.99935
2.99805
2.99618
2.98907
2.97712
2.93864
2.85043
2.64755
2.10643
1.27127
0.542934
0.299416
0.346062
0.362053
0.333614
0.286356
0.243134
0.211107
0.183325
0.159446
0.149323
3
2.99996
2.9999
2.99968
2.99938
2.99815
2.99638
2.9896
2.97839
2.9417
2.85898
2.66544
2.15502
1.33492
0.578586
0.307307
0.357392
0.376722
0.350012
0.306472
0.267772
0.240867
0.218756
0.20078
0.194011
3
2.99996
2.99991
2.9997
2.99942
2.99825
2.9966
2.99011
2.97988
2.94499
2.87065
2.68829
2.21974
1.421
0.625979
0.322135
0.37488
0.397784
0.372701
0.333136
0.298678
0.276348
0.259656
0.247284
0.243611
3
2.99996
2.99992
2.99973
2.99946
2.99838
2.99685
2.99074
2.98154
2.94859
2.88483
2.71504
2.29761
1.53002
0.685881
0.348554
0.401183
0.42605
0.402157
0.366111
0.335972
0.318315
0.30684
0.300316
0.302086
3
2.99997
2.99992
2.99975
2.99951
2.99853
2.99715
2.99165
2.98338
2.95354
2.89817
2.74298
2.38004
1.6569
0.755961
0.390094
0.439355
0.462078
0.43911
0.406444
0.379817
0.366874
0.361631
0.36325
0.375049
3
2.99997
2.99993
2.99978
2.99956
2.99869
2.99745
2.99249
2.98511
2.95812
2.90894
2.76838
2.4411
1.75893
0.817078
0.427845
0.46988
0.490098
0.474175
0.449376
0.429117
0.421808
0.424492
0.439628
0.475118
3
2.99998
2.99994
2.99981
2.99963
2.9989
2.99783
2.99381
2.9871
2.96528
2.91733
2.79929
2.48688
1.87707
0.915763
0.494071
0.494103
0.506912
0.505375
0.490417
0.480087
0.480917
0.497755
0.540717
0.641204
3
2.99995
2.99989
2.99964
2.99929
2.99787
2.99584
2.98801
2.97521
2.93287
2.83809
2.61816
2.05188
1.1906
0.498925
0.296106
0.335601
0.346534
0.315506
0.26216
0.209764
0.167314
0.125449
0.0786806
0.0439056
3
2.99995
2.99989
2.99964
2.9993
2.9979
2.9959
2.98819
2.97552
2.93381
2.84004
2.62278
2.05987
1.20235
0.505111
0.295806
0.336401
0.347897
0.316973
0.26428
0.213196
0.172307
0.132815
0.0917888
0.0677209
3
2.99995
2.99989
2.99965
2.99932
2.99796
2.99602
2.98855
2.97616
2.93574
2.84415
2.6325
2.07768
1.22887
0.519748
0.29689
0.339834
0.352915
0.322809
0.272233
0.224502
0.187553
0.153619
0.121883
0.106837
3
2.99995
2.9999
2.99967
2.99935
2.99805
2.99618
2.98907
2.97712
2.93864
2.85043
2.64755
2.10642
1.27127
0.542933
0.299417
0.346063
0.362053
0.333614
0.286356
0.243135
0.211107
0.183325
0.159447
0.149324
3
2.99996
2.9999
2.99968
2.99938
2.99815
2.99638
2.9896
2.97839
2.9417
2.85898
2.66544
2.15501
1.33491
0.578584
0.307307
0.357392
0.376721
0.350012
0.306472
0.267772
0.240867
0.218756
0.20078
0.194012
3
2.99996
2.99991
2.9997
2.99942
2.99825
2.9966
2.99011
2.97988
2.94499
2.87064
2.68829
2.21973
1.42099
0.625977
0.322134
0.37488
0.397784
0.372701
0.333135
0.298678
0.276348
0.259656
0.247285
0.243612
3
2.99996
2.99992
2.99973
2.99946
2.99838
2.99685
2.99074
2.98154
2.94859
2.88483
2.71504
2.2976
1.53001
0.685878
0.348553
0.401182
0.426049
0.402156
0.36611
0.335972
0.318315
0.30684
0.300316
0.302087
3
2.99997
2.99992
2.99975
2.99951
2.99853
2.99715
2.99165
2.98338
2.95354
2.89817
2.74298
2.38003
1.65689
0.755958
0.390093
0.439354
0.462078
0.439109
0.406443
0.379817
0.366874
0.361631
0.36325
0.375049
3
2.99997
2.99993
2.99978
2.99956
2.99869
2.99745
2.99249
2.98511
2.95812
2.90894
2.76838
2.4411
1.75892
0.817075
0.427843
0.469879
0.490098
0.474175
0.449375
0.429117
0.421808
0.424492
0.439628
0.475119
3
2.99998
2.99994
2.99981
2.99963
2.9989
2.99783
2.99381
2.9871
2.96528
2.91733
2.79928
2.48687
1.87707
0.91576
0.494069
0.494103
0.506912
0.505374
0.490416
0.480086
0.480917
0.497755
0.540716
0.641204
3
2.99995
2.99989
2.99964
2.99929
2.99787
2.99584
2.98801
2.97521
2.93287
2.83809
2.61816
2.05188
1.1906
0.498925
0.296106
0.335601
0.346534
0.315506
0.26216
0.209764
0.167314
0.125449
0.0786805
0.0439056
3
2.99995
2.99989
2.99964
2.9993
2.9979
2.9959
2.98819
2.97552
2.93381
2.84004
2.62278
2.05987
1.20235
0.505112
0.295806
0.336401
0.347897
0.316973
0.26428
0.213196
0.172307
0.132815
0.0917888
0.0677208
3
2.99995
2.99989
2.99965
2.99932
2.99796
2.99602
2.98855
2.97616
2.93574
2.84415
2.63251
2.07768
1.22887
0.519748
0.29689
0.339834
0.352915
0.322809
0.272232
0.224502
0.187553
0.153619
0.121883
0.106837
3
2.99995
2.9999
2.99967
2.99935
2.99805
2.99618
2.98907
2.97712
2.93864
2.85043
2.64755
2.10642
1.27127
0.542933
0.299417
0.346063
0.362053
0.333614
0.286356
0.243135
0.211107
0.183325
0.159447
0.149324
3
2.99996
2.9999
2.99968
2.99938
2.99815
2.99638
2.9896
2.97839
2.9417
2.85898
2.66544
2.15501
1.33491
0.578584
0.307307
0.357392
0.376721
0.350012
0.306472
0.267772
0.240867
0.218756
0.20078
0.194012
3
2.99996
2.99991
2.9997
2.99942
2.99825
2.9966
2.99011
2.97988
2.94499
2.87064
2.68829
2.21973
1.42099
0.625977
0.322135
0.37488
0.397784
0.372701
0.333135
0.298678
0.276348
0.259656
0.247285
0.243612
3
2.99996
2.99992
2.99973
2.99946
2.99838
2.99685
2.99074
2.98154
2.94859
2.88483
2.71504
2.29761
1.53001
0.685878
0.348553
0.401182
0.426049
0.402156
0.36611
0.335972
0.318315
0.30684
0.300316
0.302087
3
2.99997
2.99992
2.99975
2.99951
2.99853
2.99715
2.99165
2.98338
2.95354
2.89817
2.74298
2.38003
1.65689
0.755958
0.390093
0.439354
0.462078
0.439109
0.406443
0.379817
0.366874
0.361631
0.36325
0.375049
3
2.99997
2.99993
2.99978
2.99956
2.99869
2.99745
2.99249
2.98511
2.95812
2.90894
2.76838
2.4411
1.75892
0.817075
0.427843
0.469879
0.490098
0.474175
0.449375
0.429117
0.421808
0.424492
0.439628
0.475119
3
2.99998
2.99994
2.99981
2.99963
2.9989
2.99783
2.99381
2.9871
2.96528
2.91733
2.79928
2.48687
1.87707
0.91576
0.494069
0.494103
0.506912
0.505374
0.490416
0.480086
0.480917
0.497755
0.540716
0.641204
3
2.99995
2.99989
2.99964
2.99929
2.99787
2.99584
2.98801
2.97521
2.93287
2.83809
2.61816
2.05188
1.1906
0.498924
0.296106
0.335602
0.346534
0.315506
0.26216
0.209764
0.167314
0.125449
0.0786807
0.0439056
3
2.99995
2.99989
2.99964
2.9993
2.9979
2.9959
2.98819
2.97552
2.93381
2.84004
2.62278
2.05987
1.20235
0.505111
0.295807
0.336401
0.347897
0.316973
0.26428
0.213196
0.172307
0.132815
0.0917889
0.067721
3
2.99995
2.99989
2.99965
2.99932
2.99796
2.99602
2.98855
2.97616
2.93574
2.84415
2.6325
2.07768
1.22886
0.519747
0.296891
0.339834
0.352915
0.322809
0.272233
0.224502
0.187553
0.153619
0.121883
0.106838
3
2.99995
2.9999
2.99967
2.99935
2.99805
2.99618
2.98907
2.97712
2.93864
2.85043
2.64755
2.10642
1.27127
0.542932
0.299417
0.346063
0.362053
0.333615
0.286357
0.243135
0.211107
0.183325
0.159447
0.149324
3
2.99996
2.9999
2.99968
2.99938
2.99815
2.99638
2.9896
2.97839
2.9417
2.85898
2.66544
2.15501
1.33491
0.578584
0.307308
0.357392
0.376721
0.350012
0.306472
0.267772
0.240867
0.218756
0.200781
0.194012
3
2.99996
2.99991
2.9997
2.99942
2.99825
2.9966
2.99011
2.97988
2.94499
2.87064
2.68829
2.21973
1.42099
0.625976
0.322134
0.37488
0.397783
0.372701
0.333135
0.298678
0.276348
0.259656
0.247285
0.243612
3
2.99996
2.99992
2.99973
2.99946
2.99838
2.99685
2.99074
2.98154
2.94859
2.88483
2.71504
2.2976
1.53001
0.685877
0.348553
0.401182
0.426049
0.402156
0.36611
0.335972
0.318315
0.30684
0.300316
0.302087
3
2.99997
2.99992
2.99975
2.99951
2.99853
2.99715
2.99165
2.98338
2.95354
2.89817
2.74297
2.38003
1.65689
0.755957
0.390093
0.439354
0.462077
0.439109
0.406443
0.379816
0.366874
0.361631
0.36325
0.37505
3
2.99997
2.99993
2.99978
2.99956
2.99869
2.99745
2.99249
2.98511
2.95812
2.90894
2.76838
2.4411
1.75892
0.817074
0.427843
0.469879
0.490098
0.474174
0.449375
0.429117
0.421808
0.424492
0.439628
0.475119
3
2.99998
2.99994
2.99981
2.99963
2.9989
2.99783
2.99381
2.9871
2.96528
2.91733
2.79928
2.48687
1.87707
0.915759
0.494069
0.494103
0.506912
0.505374
0.490416
0.480086
0.480916
0.497754
0.540716
0.641204
3
2.99995
2.99989
2.99964
2.99929
2.99787
2.99584
2.98801
2.97521
2.93287
2.83809
2.61816
2.05188
1.1906
0.498925
0.296106
0.335601
0.346534
0.315506
0.26216
0.209764
0.167314
0.125449
0.0786807
0.0439056
3
2.99995
2.99989
2.99964
2.9993
2.9979
2.9959
2.98819
2.97552
2.93381
2.84004
2.62278
2.05987
1.20235
0.505111
0.295806
0.336401
0.347897
0.316973
0.26428
0.213196
0.172307
0.132815
0.0917889
0.067721
3
2.99995
2.99989
2.99965
2.99932
2.99796
2.99602
2.98855
2.97616
2.93574
2.84415
2.6325
2.07768
1.22887
0.519748
0.29689
0.339834
0.352915
0.322809
0.272233
0.224502
0.187553
0.153619
0.121883
0.106838
3
2.99995
2.9999
2.99967
2.99935
2.99805
2.99618
2.98907
2.97712
2.93864
2.85043
2.64755
2.10642
1.27127
0.542932
0.299417
0.346063
0.362053
0.333615
0.286356
0.243135
0.211107
0.183325
0.159447
0.149324
3
2.99996
2.9999
2.99968
2.99938
2.99815
2.99638
2.9896
2.97839
2.9417
2.85898
2.66544
2.15501
1.33491
0.578584
0.307308
0.357392
0.376721
0.350012
0.306472
0.267772
0.240867
0.218756
0.200781
0.194012
3
2.99996
2.99991
2.9997
2.99942
2.99825
2.9966
2.99011
2.97988
2.94499
2.87064
2.68829
2.21973
1.42099
0.625976
0.322134
0.37488
0.397784
0.372701
0.333135
0.298678
0.276348
0.259656
0.247285
0.243612
3
2.99996
2.99992
2.99973
2.99946
2.99838
2.99685
2.99074
2.98154
2.94859
2.88483
2.71504
2.2976
1.53001
0.685877
0.348553
0.401182
0.426049
0.402156
0.36611
0.335972
0.318315
0.30684
0.300316
0.302087
3
2.99997
2.99992
2.99975
2.99951
2.99853
2.99715
2.99165
2.98338
2.95354
2.89817
2.74297
2.38003
1.65689
0.755958
0.390093
0.439354
0.462077
0.439109
0.406443
0.379817
0.366874
0.361631
0.36325
0.37505
3
2.99997
2.99993
2.99978
2.99956
2.99869
2.99745
2.99249
2.98511
2.95812
2.90894
2.76838
2.4411
1.75892
0.817074
0.427843
0.469879
0.490098
0.474174
0.449375
0.429117
0.421808
0.424492
0.439628
0.475119
3
2.99998
2.99994
2.99981
2.99963
2.9989
2.99783
2.99381
2.9871
2.96528
2.91733
2.79928
2.48687
1.87707
0.915759
0.494069
0.494103
0.506912
0.505374
0.490416
0.480086
0.480916
0.497754
0.540716
0.641204
3
2.99995
2.99989
2.99964
2.99929
2.99787
2.99584
2.98801
2.97521
2.93287
2.83809
2.61816
2.05188
1.1906
0.498925
0.296106
0.335601
0.346534
0.315506
0.26216
0.209764
0.167314
0.125449
0.0786806
0.0439056
3
2.99995
2.99989
2.99964
2.9993
2.9979
2.9959
2.98819
2.97552
2.93381
2.84004
2.62278
2.05987
1.20235
0.505112
0.295806
0.336401
0.347897
0.316973
0.26428
0.213196
0.172307
0.132815
0.0917888
0.0677209
3
2.99995
2.99989
2.99965
2.99932
2.99796
2.99602
2.98855
2.97616
2.93574
2.84415
2.63251
2.07768
1.22887
0.519748
0.29689
0.339834
0.352915
0.322809
0.272233
0.224502
0.187553
0.153619
0.121883
0.106837
3
2.99995
2.9999
2.99967
2.99935
2.99805
2.99618
2.98907
2.97712
2.93864
2.85043
2.64755
2.10642
1.27127
0.542933
0.299417
0.346063
0.362053
0.333614
0.286356
0.243135
0.211107
0.183325
0.159447
0.149324
3
2.99996
2.9999
2.99968
2.99938
2.99815
2.99638
2.9896
2.97839
2.9417
2.85898
2.66544
2.15501
1.33491
0.578584
0.307307
0.357392
0.376721
0.350012
0.306472
0.267772
0.240867
0.218756
0.20078
0.194012
3
2.99996
2.99991
2.9997
2.99942
2.99825
2.9966
2.99011
2.97988
2.94499
2.87064
2.68829
2.21973
1.42099
0.625977
0.322135
0.37488
0.397784
0.372701
0.333135
0.298678
0.276348
0.259656
0.247285
0.243612
3
2.99996
2.99992
2.99973
2.99946
2.99838
2.99685
2.99074
2.98154
2.94859
2.88483
2.71504
2.29761
1.53001
0.685878
0.348553
0.401182
0.426049
0.402156
0.36611
0.335972
0.318315
0.30684
0.300316
0.302087
3
2.99997
2.99992
2.99975
2.99951
2.99853
2.99715
2.99165
2.98338
2.95354
2.89817
2.74298
2.38003
1.65689
0.755958
0.390093
0.439354
0.462078
0.439109
0.406443
0.379817
0.366874
0.361631
0.36325
0.375049
3
2.99997
2.99993
2.99978
2.99956
2.99869
2.99745
2.99249
2.98511
2.95812
2.90894
2.76838
2.4411
1.75892
0.817075
0.427843
0.469879
0.490098
0.474175
0.449375
0.429117
0.421808
0.424492
0.439628
0.475119
3
2.99998
2.99994
2.99981
2.99963
2.9989
2.99783
2.99381
2.9871
2.96528
2.91733
2.79928
2.48687
1.87707
0.91576
0.494069
0.494103
0.506912
0.505374
0.490416
0.480086
0.480917
0.497755
0.540716
0.641204
3
2.99995
2.99989
2.99964
2.99929
2.99787
2.99584
2.98801
2.97521
2.93287
2.83809
2.61816
2.05188
1.1906
0.498925
0.296106
0.335601
0.346534
0.315506
0.26216
0.209764
0.167314
0.125449
0.0786806
0.0439056
3
2.99995
2.99989
2.99964
2.9993
2.9979
2.9959
2.98819
2.97552
2.93381
2.84004
2.62278
2.05987
1.20235
0.505111
0.295806
0.336401
0.347897
0.316973
0.26428
0.213196
0.172307
0.132815
0.0917888
0.0677209
3
2.99995
2.99989
2.99965
2.99932
2.99796
2.99602
2.98855
2.97616
2.93574
2.84415
2.6325
2.07768
1.22887
0.519748
0.29689
0.339834
0.352915
0.322809
0.272233
0.224502
0.187553
0.153619
0.121883
0.106837
3
2.99995
2.9999
2.99967
2.99935
2.99805
2.99618
2.98907
2.97712
2.93864
2.85043
2.64755
2.10642
1.27127
0.542933
0.299417
0.346063
0.362053
0.333614
0.286356
0.243135
0.211107
0.183325
0.159447
0.149324
3
2.99996
2.9999
2.99968
2.99938
2.99815
2.99638
2.9896
2.97839
2.9417
2.85898
2.66544
2.15501
1.33491
0.578584
0.307308
0.357392
0.376721
0.350012
0.306472
0.267772
0.240867
0.218756
0.20078
0.194012
3
2.99996
2.99991
2.9997
2.99942
2.99825
2.9966
2.99011
2.97988
2.94499
2.87064
2.68829
2.21973
1.42099
0.625977
0.322134
0.37488
0.397784
0.372701
0.333135
0.298678
0.276348
0.259656
0.247285
0.243612
3
2.99996
2.99992
2.99973
2.99946
2.99838
2.99685
2.99074
2.98154
2.94859
2.88483
2.71504
2.2976
1.53001
0.685878
0.348553
0.401182
0.426049
0.402156
0.36611
0.335972
0.318315
0.30684
0.300316
0.302087
3
2.99997
2.99992
2.99975
2.99951
2.99853
2.99715
2.99165
2.98338
2.95354
2.89817
2.74298
2.38003
1.65689
0.755958
0.390093
0.439354
0.462078
0.439109
0.406443
0.379817
0.366874
0.361631
0.36325
0.375049
3
2.99997
2.99993
2.99978
2.99956
2.99869
2.99745
2.99249
2.98511
2.95812
2.90894
2.76838
2.4411
1.75892
0.817075
0.427843
0.469879
0.490098
0.474175
0.449375
0.429117
0.421808
0.424492
0.439628
0.475119
3
2.99998
2.99994
2.99981
2.99963
2.9989
2.99783
2.99381
2.9871
2.96528
2.91733
2.79928
2.48687
1.87707
0.91576
0.494069
0.494103
0.506912
0.505374
0.490416
0.480086
0.480917
0.497755
0.540716
0.641204
3
2.99995
2.99989
2.99964
2.99929
2.99787
2.99584
2.98801
2.97521
2.93287
2.83809
2.61816
2.05188
1.1906
0.498926
0.296105
0.335601
0.346533
0.315505
0.262159
0.209764
0.167313
0.125449
0.0786802
0.0439052
3
2.99995
2.99989
2.99964
2.9993
2.9979
2.9959
2.98819
2.97552
2.93381
2.84004
2.62278
2.05987
1.20236
0.505113
0.295805
0.336401
0.347897
0.316973
0.264279
0.213195
0.172307
0.132814
0.0917886
0.0677205
3
2.99995
2.99989
2.99965
2.99932
2.99796
2.99602
2.98855
2.97616
2.93574
2.84415
2.63251
2.07769
1.22887
0.519749
0.296889
0.339834
0.352914
0.322808
0.272232
0.224501
0.187552
0.153618
0.121883
0.106837
3
2.99995
2.9999
2.99967
2.99935
2.99805
2.99618
2.98907
2.97712
2.93864
2.85043
2.64755
2.10643
1.27127
0.542934
0.299416
0.346062
0.362053
0.333614
0.286356
0.243134
0.211107
0.183325
0.159446
0.149323
3
2.99996
2.9999
2.99968
2.99938
2.99815
2.99638
2.9896
2.97839
2.9417
2.85898
2.66544
2.15502
1.33492
0.578586
0.307307
0.357392
0.376722
0.350012
0.306472
0.267772
0.240867
0.218756
0.20078
0.194011
3
2.99996
2.99991
2.9997
2.99942
2.99825
2.9966
2.99011
2.97988
2.94499
2.87065
2.68829
2.21974
1.421
0.625979
0.322135
0.37488
0.397784
0.372701
0.333136
0.298678
0.276348
0.259656
0.247284
0.243611
3
2.99996
2.99992
2.99973
2.99946
2.99838
2.99685
2.99074
2.98154
2.94859
2.88483
2.71504
2.29761
1.53002
0.685881
0.348554
0.401183
0.42605
0.402157
0.366111
0.335972
0.318315
0.30684
0.300316
0.302086
3
2.99997
2.99992
2.99975
2.99951
2.99853
2.99715
2.99165
2.98338
2.95354
2.89817
2.74298
2.38004
1.6569
0.755961
0.390094
0.439355
0.462078
0.43911
0.406444
0.379817
0.366874
0.361631
0.36325
0.375049
3
2.99997
2.99993
2.99978
2.99956
2.99869
2.99745
2.99249
2.98511
2.95812
2.90894
2.76838
2.4411
1.75893
0.817078
0.427845
0.46988
0.490098
0.474175
0.449376
0.429117
0.421808
0.424492
0.439628
0.475118
3
2.99998
2.99994
2.99981
2.99963
2.9989
2.99783
2.99381
2.9871
2.96528
2.91733
2.79929
2.48688
1.87707
0.915763
0.494071
0.494103
0.506912
0.505375
0.490417
0.480087
0.480917
0.497755
0.540717
0.641204
3.00001
2.99997
2.99991
2.99966
2.99931
2.99789
2.99586
2.98804
2.97523
2.9329
2.83812
2.61823
2.05196
1.19074
0.499073
0.296292
0.33578
0.346714
0.315706
0.262403
0.210075
0.167711
0.125988
0.0795511
0.0454716
3.00002
2.99997
2.99991
2.99966
2.99932
2.99792
2.99592
2.98821
2.97555
2.93385
2.84008
2.62285
2.05995
1.20249
0.505257
0.295991
0.336577
0.348075
0.31717
0.264519
0.213498
0.172688
0.133317
0.092526
0.0687303
3.00002
2.99997
2.99991
2.99967
2.99934
2.99798
2.99604
2.98857
2.97619
2.93578
2.84418
2.63258
2.07776
1.22901
0.519888
0.297073
0.340008
0.353089
0.323001
0.272463
0.224786
0.187899
0.154047
0.122431
0.107469
3.00002
2.99997
2.99992
2.99969
2.99937
2.99807
2.9962
2.9891
2.97715
2.93867
2.85047
2.64763
2.10651
1.27141
0.543069
0.299601
0.346235
0.362225
0.333801
0.286575
0.243395
0.211411
0.183679
0.159858
0.149767
3.00002
2.99997
2.99992
2.9997
2.9994
2.99817
2.9964
2.98963
2.97841
2.94173
2.85902
2.66551
2.1551
1.33506
0.578716
0.307493
0.357564
0.376889
0.350191
0.306677
0.268008
0.241131
0.219048
0.201101
0.194345
3.00002
2.99998
2.99993
2.99972
2.99944
2.99827
2.99662
2.99014
2.9799
2.94504
2.87066
2.68836
2.21977
1.42112
0.626082
0.322302
0.375037
0.397937
0.372866
0.33332
0.298886
0.276575
0.259898
0.247539
0.243872
3.00002
2.99998
2.99993
2.99974
2.99948
2.9984
2.99687
2.99076
2.98156
2.94862
2.88486
2.7151
2.29767
1.53014
0.685982
0.348716
0.401331
0.426191
0.402307
0.366276
0.336154
0.318507
0.30704
0.300521
0.30229
3.00002
2.99998
2.99994
2.99977
2.99953
2.99855
2.99717
2.99167
2.9834
2.95357
2.8982
2.74303
2.3801
1.657
0.756058
0.390243
0.439486
0.462201
0.439241
0.406588
0.379973
0.367036
0.361796
0.363414
0.375208
3.00002
2.99999
2.99995
2.9998
2.99958
2.99871
2.99747
2.99251
2.98513
2.95815
2.90897
2.76843
2.44115
1.75902
0.817175
0.427993
0.47
0.490207
0.474289
0.449499
0.42925
0.421944
0.424628
0.439758
0.475237
3.00002
2.99999
2.99996
2.99983
2.99965
2.99892
2.99785
2.99384
2.98712
2.96532
2.91735
2.79933
2.48687
1.87716
0.915847
0.4942
0.494208
0.507013
0.505478
0.490526
0.4802
0.481031
0.497865
0.540816
0.641284
3.00002
3
2.99996
2.99989
2.99961
2.99921
2.99765
2.9953
2.98672
2.97175
2.92482
2.81626
2.57055
1.96349
1.08446
0.579669
0.517517
0.529121
0.536439
0.53133
0.530538
0.542735
0.579693
0.66171
0.834155
3.00002
3.00001
2.99996
2.9999
2.99966
2.99932
2.99794
2.99596
2.98831
2.97587
2.9346
2.84272
2.62886
2.08019
1.24121
0.666979
0.537599
0.552071
0.567268
0.571546
0.579331
0.603489
0.657022
0.756971
0.933405
3.00002
3.00001
2.99997
2.99992
2.99972
2.99943
2.99825
2.99657
2.99014
2.97955
2.94484
2.86741
2.68496
2.20717
1.42096
0.764954
0.563928
0.579519
0.599005
0.611069
0.626392
0.658819
0.71948
0.816457
0.964923
3.00002
3.00001
2.99998
2.99994
2.99976
2.99952
2.99851
2.99709
2.99144
2.98295
2.95236
2.89502
2.73752
2.36191
1.6399
0.881272
0.609653
0.618721
0.635031
0.652267
0.67218
0.70858
0.767999
0.853338
0.976658
3.00002
3.00001
2.99999
2.99995
2.99981
2.99961
2.9988
2.99763
2.99308
2.98609
2.96126
2.9158
2.78327
2.49303
1.83386
1.01313
0.674646
0.662652
0.675029
0.6928
0.714398
0.750034
0.808533
0.882833
0.985378
3.00002
3.00001
3
2.99996
2.99989
2.99962
2.99924
2.99774
2.9955
2.98732
2.97311
2.92887
2.82664
2.59736
2.02116
1.19045
0.758675
0.702066
0.713952
0.730639
0.752921
0.78613
0.838957
0.907629
0.994587
3.00002
3.00002
3.00001
2.99997
2.99992
2.9997
2.99939
2.99817
2.99641
2.98969
2.97864
2.94263
2.86229
2.67496
2.18602
1.40746
0.864492
0.732401
0.743131
0.761165
0.787347
0.819742
0.866192
0.92752
1.00316
3.00002
3.00002
3.00001
2.99998
2.99994
2.99977
2.99952
2.99855
2.99714
2.99166
2.98324
2.95353
2.89708
2.74209
2.37935
1.66027
1.00221
0.780112
0.775009
0.789855
0.817733
0.850924
0.892931
0.947371
1.01299
3.00002
3.00002
3.00001
3
2.99995
2.99987
2.99957
2.99913
2.99742
2.99487
2.98547
2.96959
2.91955
2.80891
2.54802
1.97126
1.18138
0.852247
0.817933
0.827336
0.850462
0.882137
0.918105
0.965241
1.02278
3.00003
3.00002
3.00002
3.00001
2.99997
2.99991
2.99968
2.99936
2.99809
2.99621
2.98937
2.97732
2.94045
2.85424
2.66064
2.15221
1.38379
0.9415
0.853335
0.86054
0.880436
0.910957
0.945
0.985053
1.03433
3.00003
3.00002
3.00002
3.00001
2.99999
2.99993
2.99983
2.99945
2.99888
2.99687
2.99326
2.9823
2.95727
2.89599
2.72916
2.4016
1.65296
1.0884
0.901482
0.892838
0.906002
0.933106
0.968008
1.0058
1.04844
3.00003
3.00003
3.00002
3.00001
3
2.99995
2.99987
2.99958
2.99916
2.99748
2.99506
2.9858
2.97093
2.92237
2.8187
2.5702
2.01514
1.27006
0.974649
0.933367
0.93934
0.960316
0.991858
1.02672
1.06543
3.00003
3.00003
3.00002
3.00002
3.00001
2.99998
2.9999
2.99977
2.99929
2.99858
2.99596
2.99159
2.97753
2.94764
2.87084
2.67115
2.2765
1.49376
1.0761
0.969442
0.968815
0.985197
1.01324
1.04639
1.08144
3.00003
3.00003
3.00003
3.00002
3.00001
3
2.99993
2.99984
2.99949
2.99898
2.99699
2.99406
2.98332
2.96482
2.90845
2.77756
2.49546
1.85637
1.2468
1.0281
1.00559
1.01437
1.03744
1.06904
1.10081
3.00003
3.00003
3.00003
3.00002
3.00002
3
2.99997
2.99987
2.99972
2.99913
2.99827
2.99501
2.98992
2.97234
2.9398
2.84808
2.64011
2.16313
1.44162
1.10829
1.0408
1.04303
1.06016
1.08866
1.11981
3.00003
3.00003
3.00003
3.00003
3.00002
3.00001
2.99999
2.99992
2.99981
2.99941
2.99882
2.99655
2.99319
2.98103
2.95971
2.89622
2.74739
2.43022
1.75212
1.25369
1.09273
1.07707
1.08596
1.10795
1.13811
3.00003
3.00003
3.00003
3.00003
3.00002
3.00002
3
2.99997
2.99985
2.99968
2.99904
2.99807
2.99452
2.98884
2.96975
2.93445
2.83255
2.62127
2.0956
1.44606
1.16826
1.11488
1.11619
1.13194
1.15693
3.00003
3.00003
3.00003
3.00003
3.00003
3.00002
3.00001
2.99999
2.99991
2.9998
2.99936
2.99873
2.9963
2.99271
2.97962
2.9573
2.89046
2.73973
2.40448
1.74047
1.29735
1.15994
1.14545
1.15336
1.17309
3.00003
3.00003
3.00003
3.00003
3.00003
3.00002
3.00002
3
2.99996
2.99985
2.99967
2.99902
2.99801
2.99442
2.98853
2.96927
2.93336
2.82902
2.62151
2.08016
1.49407
1.23573
1.18573
1.18251
1.19528
3.00003
3.00003
3.00003
3.00003
3.00003
3.00003
3.00002
3.00001
2.99998
2.99993
2.99975
2.99949
2.99849
2.997
2.99167
2.98258
2.95466
2.89246
2.75111
2.38444
1.76366
1.34401
1.22512
1.21119
1.21796
3.00003
3.00003
3.00003
3.00003
3.00003
3.00003
3.00002
3.00002
3
2.99997
2.99985
2.99967
2.99901
2.99805
2.9944
2.98884
2.96934
2.93569
2.83289
2.63436
2.11563
1.54643
1.2942
1.24633
1.24319
3.00003
3.00003
3.00003
3.00003
3.00003
3.00003
3.00003
3.00002
3.00001
2.99998
2.99993
2.99976
2.99951
2.99855
2.99713
2.99196
2.98351
2.9566
2.89971
2.76488
2.42852
1.8273
1.40995
1.2851
1.27016
3.00003
3.00003
3.00003
3.00003
3.00003
3.00003
3.00003
3.00002
3.00002
3
2.99997
2.99986
2.9997
2.99908
2.99819
2.99481
2.98972
2.97178
2.94117
2.84808
2.66534
2.19766
1.61488
1.35719
1.30315
3.00003
3.00003
3.00003
3.00003
3.00003
3.00003
3.00003
3.00003
3.00002
3.00001
2.99999
2.99992
2.99983
2.99945
2.99891
2.99683
2.99382
2.98268
2.96471
2.90856
2.78871
2.51986
1.94412
1.50583
1.35022
3.00003
3.00003
3.00003
3.00003
3.00003
3.00003
3.00003
3.00003
3.00003
3.00002
3.00001
2.99997
2.99991
2.99968
2.99935
2.99811
2.99631
2.98955
2.97917
2.94455
2.8753
2.71048
2.30658
1.7213
1.43649
3.00003
3.00003
3.00003
3.00003
3.00003
3.00003
3.00003
3.00003
3.00003
3.00002
3.00001
3
2.99994
2.99986
2.99956
2.9991
2.99747
2.99492
2.9863
2.97095
2.92664
2.82562
2.60993
2.11137
1.60876
3.00003
3.00003
3.00003
3.00003
3.00003
3.00003
3.00003
3.00003
3.00003
3.00003
3.00002
3.00001
2.99999
2.99991
2.99979
2.99936
2.99871
2.99639
2.99269
2.9804
2.95796
2.89517
2.75819
2.4305
1.87758
3.00003
3.00003
3.00003
3.00003
3.00003
3.00003
3.00003
3.00003
3.00003
3.00003
3.00002
3.00002
3
2.99997
2.99986
2.9997
2.99911
2.99822
2.99505
2.98992
2.97327
2.94276
2.85573
2.68113
2.23635
3.00003
3.00003
3.00003
3.00003
3.00003
3.00003
3.00003
3.00003
3.00003
3.00003
3.00003
3.00002
3.00001
2.99999
2.99993
2.99984
2.99949
2.99898
2.99708
2.99424
2.98421
2.96747
2.91692
2.81396
2.56357
3.00003
3.00003
3.00003
3.00003
3.00003
3.00003
3.00003
3.00003
3.00003
3.00003
3.00003
3.00002
3.00002
3
2.99998
2.9999
2.99976
2.9993
2.99858
2.99604
2.99195
2.97852
2.9545
2.88364
2.74611
3.00003
3.00003
3.00003
3.00003
3.00003
3.00003
3.00003
3.00003
3.00003
3.00003
3.00003
3.00003
3.00002
3.00002
2.99999
2.99996
2.99984
2.99966
2.99899
2.99797
2.99439
2.98855
2.96977
2.93505
2.83769
3.00003
3.00003
3.00003
3.00003
3.00003
3.00003
3.00003
3.00003
3.00003
3.00003
3.00003
3.00003
3.00003
3.00002
3.00001
2.99997
2.99992
2.99973
2.99944
2.99835
2.99673
2.99074
2.98133
2.94975
2.88963
3.00003
3.00003
3.00003
3.00003
3.00003
3.00003
3.00003
3.00003
3.00003
3.00003
3.00003
3.00003
3.00003
3.00002
3.00001
2.99999
2.99995
2.99979
2.99956
2.99866
2.99735
2.99229
2.98441
2.95686
2.90495
3.00003
3.00003
3.00003
3.00003
3.00003
3.00003
3.00003
3.00003
3.00003
3.00003
3.00003
3.00003
3.00003
3.00002
3.00001
3
2.99995
2.99987
2.99956
2.99908
2.99735
2.99439
2.98485
2.96427
2.90995
3.00003
3.00003
3.00003
3.00003
3.00003
3.00003
3.00003
3.00003
3.00003
3.00003
3.00003
3.00003
3.00003
3.00002
3.00002
3
2.99997
2.99984
2.99966
2.99894
2.99781
2.99377
2.98624
2.96304
2.90884
3.00003
3.00003
3.00003
3.00003
3.00003
3.00003
3.00003
3.00003
3.00003
3.00003
3.00003
3.00003
3.00003
3.00003
3.00002
3
2.99996
2.99989
2.99961
2.99917
2.99765
2.99473
2.98604
2.96536
2.91369
3.00003
3.00003
3.00003
3.00003
3.00003
3.00003
3.00003
3.00003
3.00003
3.00003
3.00003
3.00003
3.00003
3.00002
3.00002
3
2.99997
2.99984
2.99967
2.99894
2.99786
2.99371
2.98674
2.96305
2.91225
3.00003
3.00003
3.00003
3.00003
3.00003
3.00003
3.00003
3.00003
3.00003
3.00003
3.00003
3.00003
3.00003
3.00002
3.00002
3
2.99997
2.99984
2.99967
2.99895
2.99787
2.99381
2.98683
2.96371
2.9125
3.00003
3.00003
3.00003
3.00003
3.00003
3.00003
3.00003
3.00003
3.00003
3.00003
3.00003
3.00003
3.00003
3.00002
3.00002
3
2.99995
2.99988
2.99957
2.99914
2.99739
2.99471
2.98507
2.96691
2.91282
3.00003
3.00003
3.00003
3.00003
3.00003
3.00003
3.00003
3.00003
3.00003
3.00003
3.00003
3.00003
3.00003
3.00002
3.00002
3
2.99995
2.99987
2.99956
2.99911
2.99728
2.99464
2.98433
2.96722
2.91108
3
2.99999
2.99994
2.99987
2.99959
2.99919
2.99763
2.99528
2.9867
2.97172
2.92478
2.81622
2.57048
1.96343
1.08435
0.57955
0.517417
0.529025
0.536344
0.531232
0.530439
0.542639
0.579605
0.661636
0.834106
3
2.99999
2.99995
2.99989
2.99964
2.9993
2.99791
2.99594
2.98829
2.97584
2.93456
2.84268
2.6288
2.08012
1.24109
0.666869
0.537502
0.551978
0.567177
0.571456
0.579243
0.603406
0.656948
0.756911
0.933363
3
2.99999
2.99995
2.9999
2.9997
2.99941
2.99823
2.99655
2.99011
2.97953
2.94481
2.86738
2.6849
2.2071
1.42084
0.764853
0.563832
0.579428
0.598919
0.610985
0.626311
0.658745
0.719415
0.816404
0.964883
3
2.99999
2.99996
2.99992
2.99974
2.9995
2.99849
2.99707
2.99141
2.98293
2.95233
2.89499
2.73746
2.36183
1.63978
0.881182
0.609562
0.618633
0.634946
0.652188
0.672105
0.708512
0.76794
0.853287
0.976618
3
3