/*--------------------------------*- C++ -*----------------------------------*\
| =========                 |                                                 |
| \\      /  F ield         | OpenFOAM: The Open Source CFD Toolbox           |
|  \\    /   O peration     | Version:  4.1                                   |
|   \\  /    A nd           | Web:      www.OpenFOAM.org                      |
|    \\/     M anipulation  |                                                 |
\*---------------------------------------------------------------------------*/
FoamFile
{
    version     2.0;
    format      ascii;
    class       volVectorField;
    location    "9.68";
    object      U;
}
// * * * * * * * * * * * * * * * * * * * * * * * * * * * * * * * * * * * * * //

dimensions      [0 1 -1 0 0 0 0];

internalField   nonuniform List<vector> 
52500
(
(2.99999 1.31546e-08 -0.00571426)
(2.99998 7.22082e-08 -0.00571443)
(2.99995 2.61014e-07 -0.0057147)
(2.99986 6.65968e-07 -0.00571552)
(2.99969 1.82979e-06 -0.00571703)
(2.99919 4.1682e-06 -0.00572162)
(2.99822 1.09974e-05 -0.00573048)
(2.99524 2.39429e-05 -0.0057554)
(2.98986 6.68889e-05 -0.00581268)
(2.97055 0.000137615 -0.00593631)
(2.9338 0.000421279 -0.0063677)
(2.8033 0.000992241 -0.00706714)
(2.43307 0.0029739 -0.0099571)
(1.57623 0.00790663 -0.0153327)
(0.666675 0.0200098 -0.0182044)
(0.53706 0.0209129 -0.0184744)
(0.567231 0.0220785 -0.0185213)
(0.564287 0.0241398 -0.0186009)
(0.513775 0.0263524 -0.0187779)
(0.428763 0.0287293 -0.0189585)
(0.345383 0.0314645 -0.0191506)
(0.275226 0.0346748 -0.0193154)
(0.204584 0.0381447 -0.0194787)
(0.123524 0.0422945 -0.0196331)
(0.0551097 0.0484948 -0.0197893)
(2.99999 4.02031e-08 -0.00571426)
(2.99998 2.1958e-07 -0.00571443)
(2.99995 7.95323e-07 -0.00571469)
(2.99986 2.02578e-06 -0.0057155)
(2.99969 5.56474e-06 -0.005717)
(2.9992 1.26542e-05 -0.00572155)
(2.99824 3.34137e-05 -0.00573031)
(2.99529 7.23507e-05 -0.00575502)
(2.98995 0.00020377 -0.00581163)
(2.97084 0.00041464 -0.00593422)
(2.93454 0.00129123 -0.00636058)
(2.80525 0.00301382 -0.0070514)
(2.4394 0.00918097 -0.00991617)
(1.59024 0.0243057 -0.0152498)
(0.675543 0.0606285 -0.0181066)
(0.536595 0.0607974 -0.0183993)
(0.567541 0.0618851 -0.0184433)
(0.565162 0.0658466 -0.0185143)
(0.514549 0.0700205 -0.018684)
(0.429549 0.0745441 -0.0188559)
(0.346041 0.0795247 -0.0190404)
(0.275128 0.084981 -0.0191951)
(0.203114 0.0902124 -0.01935)
(0.120289 0.0954288 -0.0194946)
(0.0512043 0.101004 -0.0196351)
(2.99999 7.66604e-08 -0.00571426)
(2.99998 3.72237e-07 -0.00571443)
(2.99995 1.38253e-06 -0.00571468)
(2.99987 3.5104e-06 -0.00571548)
(2.9997 9.65348e-06 -0.00571694)
(2.99922 2.19804e-05 -0.00572141)
(2.99827 5.77525e-05 -0.00572998)
(2.99539 0.000126599 -0.00575428)
(2.99014 0.0003466 -0.00580952)
(2.97144 0.000728549 -0.00593018)
(2.93604 0.00214996 -0.00634605)
(2.80934 0.00511547 -0.00702038)
(2.45281 0.015455 -0.00983306)
(1.62082 0.0404586 -0.0150928)
(0.69622 0.103246 -0.0179688)
(0.537446 0.102505 -0.0183112)
(0.570238 0.103942 -0.0183523)
(0.569329 0.110975 -0.0184127)
(0.518783 0.118529 -0.0185768)
(0.434055 0.127094 -0.0187383)
(0.350576 0.136366 -0.0189147)
(0.279051 0.146211 -0.0190624)
(0.205879 0.155699 -0.0192075)
(0.121526 0.164565 -0.0193393)
(0.0505096 0.171907 -0.0194696)
(2.99999 1.05464e-07 -0.00571426)
(2.99998 5.34421e-07 -0.00571442)
(2.99995 2.00103e-06 -0.00571467)
(2.99987 5.10938e-06 -0.00571544)
(2.99971 1.40701e-05 -0.00571686)
(2.99924 3.21526e-05 -0.00572118)
(2.99833 8.39451e-05 -0.00572948)
(2.99553 0.000187366 -0.00575303)
(2.99046 0.000492827 -0.00580642)
(2.97232 0.00108601 -0.00592337)
(2.93831 0.00295881 -0.00632663)
(2.81545 0.00723742 -0.00697146)
(2.47215 0.0214782 -0.00971923)
(1.66463 0.0552741 -0.0148729)
(0.72496 0.145317 -0.0177996)
(0.535845 0.143362 -0.0182204)
(0.572516 0.145245 -0.0182526)
(0.574653 0.155572 -0.018302)
(0.524934 0.166703 -0.0184522)
(0.441383 0.179547 -0.0186063)
(0.358613 0.19349 -0.0187654)
(0.286949 0.20832 -0.0188976)
(0.212749 0.222885 -0.0190434)
(0.126353 0.236218 -0.0191712)
(0.0520028 0.245804 -0.0192986)
(2.99999 1.26946e-07 -0.00571426)
(2.99998 7.03913e-07 -0.00571441)
(2.99995 2.62177e-06 -0.00571465)
(2.99988 6.73279e-06 -0.00571539)
(2.99972 1.85468e-05 -0.00571674)
(2.99928 4.24892e-05 -0.00572087)
(2.9984 0.000110462 -0.00572879)
(2.99573 0.000249209 -0.00575123)
(2.99089 0.000639399 -0.00580237)
(2.97346 0.0014465 -0.00591351)
(2.94133 0.00377973 -0.00630316)
(2.82354 0.00926458 -0.00690432)
(2.49704 0.027543 -0.00957625)
(1.72102 0.0702222 -0.0145864)
(0.761599 0.189045 -0.0175952)
(0.531683 0.184523 -0.0181296)
(0.574541 0.18629 -0.018149)
(0.581237 0.199652 -0.0181851)
(0.53292 0.214153 -0.0183175)
(0.451328 0.231245 -0.0184601)
(0.369933 0.249983 -0.0186149)
(0.298674 0.270105 -0.0187267)
(0.223679 0.290312 -0.0188389)
(0.134552 0.308998 -0.0189562)
(0.0553864 0.3217 -0.0190784)
(3 1.57373e-07 -0.00571426)
(2.99998 8.72427e-07 -0.0057144)
(2.99996 3.25579e-06 -0.00571462)
(2.99988 8.38148e-06 -0.00571532)
(2.99974 2.31455e-05 -0.00571659)
(2.99932 5.33076e-05 -0.00572047)
(2.9985 0.000138002 -0.00572793)
(2.99597 0.000317889 -0.00574889)
(2.99146 0.00078604 -0.00579737)
(2.97489 0.0018413 -0.00590079)
(2.94502 0.00466404 -0.0062741)
(2.83367 0.0113697 -0.00682357)
(2.52813 0.0327937 -0.00939244)
(1.79352 0.0853731 -0.0142028)
(0.808524 0.2342 -0.0173425)
(0.526414 0.225672 -0.0180311)
(0.57761 0.226916 -0.0180451)
(0.590109 0.24321 -0.0180531)
(0.54362 0.260949 -0.018182)
(0.464764 0.282384 -0.0182803)
(0.385382 0.306536 -0.0184218)
(0.314933 0.332998 -0.0185355)
(0.2393 0.360313 -0.0186362)
(0.146859 0.386425 -0.0187379)
(0.0610916 0.404558 -0.018853)
(3 1.7247e-07 -0.00571425)
(2.99998 9.55123e-07 -0.00571439)
(2.99996 3.56623e-06 -0.00571459)
(2.99989 9.1666e-06 -0.00571523)
(2.99976 2.53553e-05 -0.0057164)
(2.99937 5.82497e-05 -0.00571995)
(2.99862 0.000152189 -0.00572688)
(2.99626 0.000344409 -0.00574562)
(2.99217 0.000890044 -0.00579174)
(2.97664 0.00199277 -0.00588302)
(2.94948 0.00550622 -0.00623914)
(2.84516 0.012622 -0.00672587)
(2.56522 0.0397462 -0.00919056)
(1.88137 0.101267 -0.0137427)
(0.861491 0.282503 -0.0170423)
(0.516886 0.268036 -0.0179302)
(0.580189 0.267344 -0.0179363)
(0.6004 0.286038 -0.0179247)
(0.556581 0.306695 -0.0180416)
(0.481784 0.33249 -0.0181341)
(0.405832 0.362742 -0.0182155)
(0.33737 0.396836 -0.0182949)
(0.261909 0.433494 -0.0183683)
(0.16593 0.470586 -0.0184427)
(0.0709427 0.499074 -0.0185318)
(3 1.70274e-07 -0.00571425)
(2.99999 9.42683e-07 -0.00571438)
(2.99996 3.50383e-06 -0.00571456)
(2.9999 8.94623e-06 -0.00571515)
(2.99978 2.46429e-05 -0.00571622)
(2.99942 5.58022e-05 -0.00571947)
(2.99874 0.000149087 -0.00572581)
(2.99658 0.00031146 -0.00574304)
(2.99284 0.000945394 -0.00578492)
(2.97868 0.00173218 -0.00586898)
(2.9541 0.00643304 -0.00619131)
(2.85989 0.0128359 -0.00663923)
(2.61057 0.0482066 -0.00885473)
(1.9888 0.116676 -0.013116)
(0.932149 0.332024 -0.0166571)
(0.513494 0.313214 -0.017792)
(0.588274 0.308759 -0.0177947)
(0.616004 0.327971 -0.0177546)
(0.574499 0.350652 -0.0178512)
(0.504587 0.381105 -0.0179431)
(0.433029 0.418289 -0.018019)
(0.367811 0.461467 -0.0180498)
(0.294304 0.510198 -0.018085)
(0.196102 0.56374 -0.0181124)
(0.0884426 0.613344 -0.0181628)
(3 1.94352e-07 -0.00571425)
(2.99999 1.07034e-06 -0.00571436)
(2.99997 3.96528e-06 -0.00571453)
(2.99991 1.01425e-05 -0.00571507)
(2.9998 2.78108e-05 -0.00571605)
(2.99948 6.31915e-05 -0.00571906)
(2.99884 0.0001671 -0.00572473)
(2.99693 0.000354143 -0.00574145)
(2.99336 0.00104395 -0.00577687)
(2.98114 0.00192236 -0.00586096)
(2.95896 0.00712113 -0.00612321)
(2.87714 0.0137035 -0.00655179)
(2.66346 0.052163 -0.00841365)
(2.11547 0.125312 -0.0123087)
(1.02718 0.370803 -0.0161823)
(0.527762 0.359683 -0.0176229)
(0.607509 0.353823 -0.017634)
(0.640684 0.369794 -0.0175831)
(0.601065 0.392855 -0.0176673)
(0.536578 0.427828 -0.0177129)
(0.4701 0.472706 -0.0177576)
(0.409526 0.525634 -0.0177546)
(0.341384 0.588769 -0.0177212)
(0.246879 0.667932 -0.0176566)
(0.122236 0.761195 -0.0175379)
(3 3.84852e-07 -0.00571425)
(2.99999 7.83076e-07 -0.00571435)
(2.99997 5.75726e-06 -0.0057145)
(2.99992 9.04275e-06 -0.00571496)
(2.99982 3.95075e-05 -0.00571582)
(2.99954 5.87398e-05 -0.00571841)
(2.99898 0.000239953 -0.00572343)
(2.99731 0.000329756 -0.0057378)
(2.99415 0.00151171 -0.00576888)
(2.98367 0.00149749 -0.00584319)
(2.96414 0.0102496 -0.00606352)
(2.89473 0.00834144 -0.00645621)
(2.71627 0.0648716 -0.00798382)
(2.24897 0.113824 -0.0115397)
(1.14669 0.377407 -0.0155494)
(0.574645 0.404939 -0.0172956)
(0.642971 0.407438 -0.0173467)
(0.676027 0.412535 -0.0173396)
(0.639418 0.436037 -0.0174526)
(0.580959 0.472792 -0.0174758)
(0.519477 0.52458 -0.0174821)
(0.465043 0.58647 -0.01743)
(0.410198 0.668662 -0.0173068)
(0.335345 0.790722 -0.0170812)
(0.188192 0.997826 -0.0166476)
(2.99999 1.27744e-08 -2.43867e-09)
(2.99998 6.96848e-08 -8.66854e-09)
(2.99995 2.58672e-07 -9.98503e-09)
(2.99986 6.6295e-07 -1.60065e-08)
(2.99969 1.82699e-06 -1.63967e-08)
(2.99919 4.166e-06 -2.20171e-08)
(2.99822 1.09975e-05 -2.35696e-08)
(2.99524 2.39488e-05 -3.22625e-08)
(2.98985 6.69084e-05 -4.44401e-08)
(2.97055 0.000137657 -7.3391e-08)
(2.93378 0.000421435 -1.44239e-07)
(2.80326 0.000992638 -3.49115e-07)
(2.43291 0.00297511 -6.61415e-07)
(1.57587 0.0079109 -1.94421e-06)
(0.666487 0.0200158 -1.69534e-06)
(0.537104 0.0209187 1.55651e-07)
(0.567235 0.0220836 7.14935e-08)
(0.564255 0.0241442 -1.00121e-07)
(0.513725 0.0263573 -1.29314e-07)
(0.428701 0.028736 -1.52748e-07)
(0.345319 0.0314724 -1.10839e-07)
(0.275159 0.03468 -7.71729e-08)
(0.204519 0.0381432 -5.37284e-08)
(0.123474 0.0422839 -2.50119e-08)
(0.0550835 0.0484736 7.07677e-09)
(2.99999 3.88914e-08 -2.4462e-09)
(2.99998 2.12464e-07 -8.70861e-09)
(2.99995 7.88109e-07 -9.98581e-09)
(2.99986 2.01735e-06 -1.60172e-08)
(2.99969 5.55685e-06 -1.63916e-08)
(2.9992 1.26486e-05 -2.20026e-08)
(2.99824 3.34153e-05 -2.3524e-08)
(2.99529 7.23749e-05 -3.21775e-08)
(2.98995 0.000203827 -4.41262e-08)
(2.97083 0.000414857 -7.33474e-08)
(2.93452 0.00129165 -1.41599e-07)
(2.8052 0.00301538 -3.46148e-07)
(2.43924 0.00918448 -6.47353e-07)
(1.58988 0.0243193 -1.91294e-06)
(0.675355 0.0606436 -1.68853e-06)
(0.536635 0.0608095 1.5379e-07)
(0.567542 0.061894 6.6686e-08)
(0.565128 0.0658545 -1.04256e-07)
(0.514502 0.0700287 -1.30627e-07)
(0.429496 0.0745539 -1.50354e-07)
(0.345996 0.0795329 -1.08811e-07)
(0.275089 0.0849818 -7.92844e-08)
(0.203081 0.0902027 -5.93453e-08)
(0.120267 0.0954063 -3.53169e-08)
(0.0511929 0.100967 -1.01201e-08)
(2.99999 6.73977e-08 -2.46486e-09)
(2.99998 3.67855e-07 -8.77624e-09)
(2.99995 1.36548e-06 -9.99921e-09)
(2.99987 3.49706e-06 -1.60262e-08)
(2.9997 9.63096e-06 -1.63826e-08)
(2.99922 2.19555e-05 -2.19584e-08)
(2.99827 5.77149e-05 -2.34061e-08)
(2.99538 0.000126497 -3.17789e-08)
(2.99014 0.000346608 -4.367e-08)
(2.97143 0.000727915 -7.07663e-08)
(2.93602 0.00215146 -1.39352e-07)
(2.8093 0.00511603 -3.31351e-07)
(2.45267 0.0154633 -6.30618e-07)
(1.62047 0.0404939 -1.83637e-06)
(0.696025 0.103286 -1.69961e-06)
(0.537474 0.102532 1.38628e-07)
(0.570234 0.103956 5.21153e-08)
(0.569298 0.110984 -1.09145e-07)
(0.518747 0.118536 -1.3006e-07)
(0.434023 0.127102 -1.42956e-07)
(0.350556 0.136371 -1.06976e-07)
(0.279037 0.146207 -8.68483e-08)
(0.20587 0.155684 -7.38075e-08)
(0.121522 0.164537 -5.94113e-08)
(0.0505072 0.171863 -4.56151e-08)
(2.99999 9.82642e-08 -2.63228e-09)
(2.99998 5.3518e-07 -8.63112e-09)
(2.99995 1.98932e-06 -1.02056e-08)
(2.99987 5.10107e-06 -1.59769e-08)
(2.99971 1.40515e-05 -1.65575e-08)
(2.99924 3.21287e-05 -2.20763e-08)
(2.99832 8.39038e-05 -2.3776e-08)
(2.99553 0.000187251 -3.34754e-08)
(2.99045 0.000492819 -4.20969e-08)
(2.97231 0.00108534 -8.57903e-08)
(2.93829 0.00296043 -1.04146e-07)
(2.81541 0.00723824 -3.5877e-07)
(2.47204 0.0214877 -5.48891e-07)
(1.66437 0.0553104 -1.56825e-06)
(0.724833 0.145362 -1.66976e-06)
(0.535926 0.143393 9.82171e-08)
(0.572554 0.145261 8.00958e-09)
(0.57466 0.155581 -1.26818e-07)
(0.524935 0.166709 -1.37033e-07)
(0.441384 0.179553 -1.39457e-07)
(0.358619 0.193491 -1.12509e-07)
(0.286957 0.208314 -1.00539e-07)
(0.212757 0.222868 -9.3676e-08)
(0.12636 0.236189 -8.87419e-08)
(0.0520056 0.245761 -8.51876e-08)
(2.99999 1.29607e-07 -2.60968e-09)
(2.99998 7.05041e-07 -8.63998e-09)
(2.99995 2.62244e-06 -1.02103e-08)
(2.99988 6.72974e-06 -1.59943e-08)
(2.99972 1.85357e-05 -1.65753e-08)
(2.99927 4.2458e-05 -2.21032e-08)
(2.9984 0.000110396 -2.37764e-08)
(2.99572 0.00024897 -3.3326e-08)
(2.99089 0.000639307 -4.17918e-08)
(2.97345 0.00144508 -8.36277e-08)
(2.94131 0.00378081 -9.96116e-08)
(2.8235 0.00926552 -3.39582e-07)
(2.49693 0.0275504 -5.17622e-07)
(1.72078 0.0702427 -1.47705e-06)
(0.761478 0.189074 -1.67849e-06)
(0.53177 0.184551 8.6318e-08)
(0.574589 0.186307 -1.64391e-08)
(0.581262 0.199663 -1.34905e-07)
(0.532941 0.21416 -1.38242e-07)
(0.45135 0.231251 -1.34572e-07)
(0.369956 0.249985 -1.19295e-07)
(0.298696 0.270099 -1.1496e-07)
(0.223697 0.290296 -1.12788e-07)
(0.134565 0.308972 -1.15602e-07)
(0.0553921 0.321662 -1.1938e-07)
(2.99999 1.6125e-07 -2.57924e-09)
(2.99998 8.74047e-07 -8.65515e-09)
(2.99996 3.26074e-06 -1.02228e-08)
(2.99988 8.38534e-06 -1.60528e-08)
(2.99974 2.31519e-05 -1.67275e-08)
(2.99932 5.33144e-05 -2.24898e-08)
(2.9985 0.000138018 -2.45047e-08)
(2.99597 0.000317923 -3.69891e-08)
(2.99145 0.000786123 -3.95095e-08)
(2.97488 0.00184183 -1.1181e-07)
(2.945 0.00466305 -6.19429e-08)
(2.83363 0.0113723 -3.56028e-07)
(2.52804 0.0327967 -4.62932e-07)
(1.79329 0.0853824 -1.42814e-06)
(0.808417 0.234211 -1.72365e-06)
(0.526508 0.225693 9.98039e-08)
(0.577663 0.226934 -2.6484e-08)
(0.590141 0.243222 -1.38808e-07)
(0.543651 0.260957 -1.38359e-07)
(0.464796 0.282391 -1.30267e-07)
(0.385413 0.306538 -1.23638e-07)
(0.314961 0.332994 -1.25463e-07)
(0.239323 0.360301 -1.27522e-07)
(0.146875 0.386404 -1.37149e-07)
(0.0610989 0.404527 -1.4691e-07)
(3 1.76516e-07 -2.53218e-09)
(2.99998 9.58061e-07 -8.67541e-09)
(2.99996 3.57335e-06 -1.01577e-08)
(2.99989 9.17743e-06 -1.60099e-08)
(2.99976 2.53797e-05 -1.65331e-08)
(2.99937 5.83022e-05 -2.20937e-08)
(2.99862 0.000152304 -2.36122e-08)
(2.99626 0.000344785 -3.29869e-08)
(2.99217 0.000890366 -4.08939e-08)
(2.97663 0.00199532 -7.50379e-08)
(2.94946 0.00550505 -1.27735e-07)
(2.84513 0.0126273 -2.80858e-07)
(2.56512 0.0397433 -5.01294e-07)
(1.88112 0.10127 -1.45693e-06)
(0.861373 0.282496 -1.82614e-06)
(0.516967 0.268043 1.34926e-07)
(0.580231 0.267356 -1.69261e-08)
(0.600426 0.286049 -1.36388e-07)
(0.556611 0.306703 -1.35013e-07)
(0.481817 0.332497 -1.26787e-07)
(0.405864 0.362745 -1.26034e-07)
(0.337399 0.396834 -1.31936e-07)
(0.261933 0.433486 -1.40844e-07)
(0.165947 0.470572 -1.4967e-07)
(0.0709508 0.499052 -1.64075e-07)
(3 1.72766e-07 -2.498e-09)
(2.99998 9.47269e-07 -8.66724e-09)
(2.99996 3.50601e-06 -1.0149e-08)
(2.9999 8.95297e-06 -1.59715e-08)
(2.99978 2.46533e-05 -1.6452e-08)
(2.99942 5.58276e-05 -2.19024e-08)
(2.99873 0.000149136 -2.3215e-08)
(2.99658 0.000311594 -3.16551e-08)
(2.99283 0.000945626 -4.02382e-08)
(2.97867 0.0017321 -6.80381e-08)
(2.95409 0.00643518 -1.26921e-07)
(2.85986 0.0128381 -2.46532e-07)
(2.61046 0.048209 -5.88034e-07)
(1.98854 0.116686 -1.44116e-06)
(0.932006 0.332021 -2.03105e-06)
(0.513548 0.313215 1.53501e-07)
(0.588298 0.308764 -1.81611e-09)
(0.616016 0.327978 -1.30382e-07)
(0.57452 0.350659 -1.29473e-07)
(0.504614 0.38111 -1.22997e-07)
(0.433057 0.418292 -1.26106e-07)
(0.367837 0.461467 -1.34585e-07)
(0.294327 0.510194 -1.44546e-07)
(0.196119 0.563732 -1.55781e-07)
(0.0884511 0.61333 -1.72526e-07)
(3 1.93682e-07 -2.48214e-09)
(2.99999 1.07478e-06 -8.6272e-09)
(2.99997 3.96074e-06 -1.0199e-08)
(2.99991 1.01396e-05 -1.59294e-08)
(2.9998 2.78068e-05 -1.64461e-08)
(2.99947 6.31998e-05 -2.17834e-08)
(2.99883 0.00016714 -2.3087e-08)
(2.99692 0.000354276 -3.11932e-08)
(2.99335 0.00104421 -3.8844e-08)
(2.98113 0.0019229 -7.95142e-08)
(2.95895 0.00712303 -9.10826e-08)
(2.87711 0.013706 -2.68919e-07)
(2.66337 0.0521701 -5.29072e-07)
(2.11522 0.125329 -1.40176e-06)
(1.02703 0.370813 -2.22213e-06)
(0.52779 0.359672 1.38577e-07)
(0.607515 0.353808 -6.0944e-09)
(0.640683 0.369791 -1.24809e-07)
(0.601073 0.392858 -1.25839e-07)
(0.536594 0.42783 -1.25118e-07)
(0.470119 0.472707 -1.2984e-07)
(0.409547 0.525634 -1.3766e-07)
(0.341404 0.588768 -1.43881e-07)
(0.246895 0.667928 -1.55349e-07)
(0.122245 0.761189 -1.69314e-07)
(3 3.70189e-07 -2.51138e-09)
(2.99999 8.33368e-07 -8.56867e-09)
(2.99997 5.64356e-06 -1.03044e-08)
(2.99992 9.07298e-06 -1.59577e-08)
(2.99982 3.93799e-05 -1.64596e-08)
(2.99954 5.87914e-05 -2.1657e-08)
(2.99898 0.000239898 -2.25705e-08)
(2.99731 0.000329995 -2.9787e-08)
(2.99414 0.00151184 -3.74776e-08)
(2.98366 0.00149954 -6.24978e-08)
(2.96413 0.0102514 -1.0219e-07)
(2.8947 0.00834932 -2.33082e-07)
(2.71618 0.0648854 -5.23322e-07)
(2.24872 0.113885 -1.34237e-06)
(1.14649 0.377517 -2.44447e-06)
(0.574598 0.404944 -2.00461e-08)
(0.642945 0.407407 -8.62843e-08)
(0.676011 0.412525 -9.77217e-08)
(0.639408 0.436031 -1.15313e-07)
(0.580958 0.472788 -1.35657e-07)
(0.519485 0.524577 -1.3916e-07)
(0.465056 0.586468 -1.42312e-07)
(0.410213 0.66866 -1.47737e-07)
(0.335359 0.790721 -1.53357e-07)
(0.188203 0.997828 -1.53795e-07)
(2.99999 1.27744e-08 -7.55022e-13)
(2.99998 6.96844e-08 -3.70841e-12)
(2.99995 2.58671e-07 -1.00268e-11)
(2.99986 6.62948e-07 -2.12783e-11)
(2.99969 1.827e-06 -5.2155e-11)
(2.99919 4.16601e-06 -1.02709e-10)
(2.99822 1.09975e-05 -2.76476e-10)
(2.99524 2.39489e-05 -5.18292e-10)
(2.98985 6.69089e-05 -1.68659e-09)
(2.97054 0.000137657 -2.74549e-09)
(2.93378 0.000421439 -1.05503e-08)
(2.80325 0.000992647 -2.1758e-08)
(2.4329 0.00297514 -5.81453e-08)
(1.57585 0.00791103 -1.48068e-07)
(0.666471 0.0200159 -1.53751e-07)
(0.537107 0.0209188 3.83255e-10)
(0.567235 0.0220836 -5.17259e-09)
(0.564253 0.0241443 -1.77458e-08)
(0.513723 0.0263573 -1.98851e-08)
(0.428698 0.0287361 -2.16786e-08)
(0.345317 0.0314724 -1.94242e-08)
(0.275157 0.03468 -1.78488e-08)
(0.204517 0.0381431 -1.71092e-08)
(0.123473 0.0422835 -1.61867e-08)
(0.0550828 0.0484729 -1.5249e-08)
(2.99999 3.88911e-08 -7.55231e-13)
(2.99998 2.12462e-07 -3.71202e-12)
(2.99995 7.88104e-07 -1.00221e-11)
(2.99986 2.01734e-06 -2.12635e-11)
(2.99969 5.55684e-06 -5.20797e-11)
(2.9992 1.26486e-05 -1.0258e-10)
(2.99824 3.34153e-05 -2.76014e-10)
(2.99529 7.23753e-05 -5.18945e-10)
(2.98995 0.000203828 -1.67848e-09)
(2.97083 0.000414861 -2.76104e-09)
(2.93452 0.00129166 -1.04674e-08)
(2.8052 0.00301542 -2.16871e-08)
(2.43923 0.00918457 -5.77668e-08)
(1.58985 0.0243197 -1.47261e-07)
(0.675339 0.0606436 -1.54704e-07)
(0.536638 0.0608096 5.97087e-10)
(0.567542 0.0618941 -5.24553e-09)
(0.565126 0.0658545 -1.79798e-08)
(0.514499 0.0700286 -1.99842e-08)
(0.429493 0.0745539 -2.15902e-08)
(0.345994 0.0795329 -1.93374e-08)
(0.275087 0.0849816 -1.78685e-08)
(0.20308 0.0902022 -1.72222e-08)
(0.120266 0.0954055 -1.63853e-08)
(0.0511925 0.100966 -1.56058e-08)
(2.99999 6.73959e-08 -7.60445e-13)
(2.99998 3.67845e-07 -3.74207e-12)
(2.99995 1.36545e-06 -1.00681e-11)
(2.99987 3.49697e-06 -2.13538e-11)
(2.9997 9.63073e-06 -5.20117e-11)
(2.99922 2.1955e-05 -1.02229e-10)
(2.99827 5.77137e-05 -2.74269e-10)
(2.99538 0.000126493 -5.11649e-10)
(2.99014 0.000346607 -1.66964e-09)
(2.97143 0.000727887 -2.70382e-09)
(2.93602 0.0021515 -1.04145e-08)
(2.80929 0.00511603 -2.12506e-08)
(2.45266 0.0154635 -5.75007e-08)
(1.62045 0.040495 -1.45314e-07)
(0.696008 0.103287 -1.58343e-07)
(0.537477 0.102533 6.57519e-10)
(0.570234 0.103956 -5.60242e-09)
(0.569296 0.110984 -1.8391e-08)
(0.518745 0.118536 -2.01814e-08)
(0.434021 0.127102 -2.15036e-08)
(0.350554 0.13637 -1.93579e-08)
(0.279036 0.146207 -1.82436e-08)
(0.205869 0.155683 -1.7697e-08)
(0.121522 0.164535 -1.7096e-08)
(0.0505071 0.171862 -1.65832e-08)
(2.99999 9.82623e-08 -7.95409e-13)
(2.99998 5.35169e-07 -3.89353e-12)
(2.99995 1.98928e-06 -1.05982e-11)
(2.99987 5.10096e-06 -2.25668e-11)
(2.99971 1.40512e-05 -5.55085e-11)
(2.99924 3.2128e-05 -1.10537e-10)
(2.99832 8.39024e-05 -2.90407e-10)
(2.99553 0.000187246 -5.87889e-10)
(2.99045 0.000492817 -1.62282e-09)
(2.97231 0.00108531 -3.33267e-09)
(2.93829 0.00296047 -9.1442e-09)
(2.8154 0.00723824 -2.2431e-08)
(2.47203 0.021488 -5.52642e-08)
(1.66435 0.0553114 -1.36403e-07)
(0.724819 0.145362 -1.62672e-07)
(0.535931 0.143394 2.83999e-10)
(0.572555 0.145261 -6.96407e-09)
(0.57466 0.155581 -1.94365e-08)
(0.524934 0.166709 -2.07414e-08)
(0.441383 0.179553 -2.16557e-08)
(0.358619 0.193491 -1.96883e-08)
(0.286956 0.208313 -1.88808e-08)
(0.212756 0.222867 -1.84166e-08)
(0.12636 0.236188 -1.81135e-08)
(0.0520055 0.245759 -1.78367e-08)
(2.99999 1.29604e-07 -8.07463e-13)
(2.99998 7.05027e-07 -3.95126e-12)
(2.99995 2.62239e-06 -1.07662e-11)
(2.99988 6.72959e-06 -2.29271e-11)
(2.99972 1.85352e-05 -5.62715e-11)
(2.99927 4.24569e-05 -1.11932e-10)
(2.9984 0.000110394 -2.92802e-10)
(2.99572 0.000248962 -5.8832e-10)
(2.99089 0.000639302 -1.62968e-09)
(2.97345 0.00144503 -3.29031e-09)
(2.94131 0.00378082 -9.14497e-09)
(2.8235 0.00926553 -2.18531e-08)
(2.49692 0.0275505 -5.53525e-08)
(1.72075 0.070243 -1.35667e-07)
(0.761464 0.189073 -1.70772e-07)
(0.531775 0.184551 1.76616e-09)
(0.574591 0.186307 -7.34987e-09)
(0.581261 0.199663 -2.01702e-08)
(0.532941 0.21416 -2.11469e-08)
(0.451349 0.23125 -2.17695e-08)
(0.369956 0.249984 -2.0242e-08)
(0.298696 0.270098 -1.9686e-08)
(0.223697 0.290295 -1.916e-08)
(0.134565 0.308971 -1.91422e-08)
(0.0553922 0.32166 -1.89705e-08)
(2.99999 1.6125e-07 -8.60277e-13)
(2.99998 8.74046e-07 -4.15855e-12)
(2.99996 3.26074e-06 -1.15483e-11)
(2.99988 8.38533e-06 -2.47436e-11)
(2.99974 2.31518e-05 -6.16027e-11)
(2.99932 5.33142e-05 -1.24952e-10)
(2.9985 0.000138017 -3.18751e-10)
(2.99597 0.000317922 -7.12945e-10)
(2.99145 0.000786122 -1.57173e-09)
(2.97488 0.00184183 -4.24532e-09)
(2.945 0.00466301 -8.12784e-09)
(2.83363 0.0113723 -2.23366e-08)
(2.52803 0.0327969 -5.54101e-08)
(1.79327 0.0853823 -1.37967e-07)
(0.808402 0.23421 -1.83803e-07)
(0.526513 0.225692 4.55494e-09)
(0.577665 0.226933 -7.17305e-09)
(0.59014 0.243222 -2.06914e-08)
(0.543651 0.260957 -2.15121e-08)
(0.464796 0.28239 -2.18986e-08)
(0.385413 0.306537 -2.07437e-08)
(0.314961 0.332993 -2.03566e-08)
(0.239323 0.3603 -1.98412e-08)
(0.146875 0.386403 -2.01342e-08)
(0.061099 0.404526 -2.00819e-08)
(3 1.76521e-07 -8.12554e-13)
(2.99998 9.58088e-07 -3.95952e-12)
(2.99996 3.57345e-06 -1.08489e-11)
(2.99989 9.17771e-06 -2.31623e-11)
(2.99976 2.53805e-05 -5.70631e-11)
(2.99937 5.8304e-05 -1.14432e-10)
(2.99862 0.000152308 -2.97247e-10)
(2.99626 0.000344799 -6.14963e-10)
(2.99216 0.000890377 -1.6252e-09)
(2.97663 0.00199541 -3.34554e-09)
(2.94946 0.00550503 -9.97145e-09)
(2.84513 0.0126276 -2.14274e-08)
(2.56511 0.0397429 -5.38874e-08)
(1.88109 0.101269 -1.45651e-07)
(0.861359 0.282494 -2.00112e-07)
(0.516973 0.268042 8.03204e-09)
(0.580233 0.267355 -6.56854e-09)
(0.600426 0.286048 -2.11451e-08)
(0.556611 0.306703 -2.18728e-08)
(0.481816 0.332496 -2.22829e-08)
(0.405864 0.362744 -2.14443e-08)
(0.337399 0.396833 -2.11606e-08)
(0.261934 0.433485 -2.11658e-08)
(0.165947 0.47057 -2.07648e-08)
(0.0709509 0.49905 -2.07694e-08)
(3 1.72771e-07 -7.41239e-13)
(2.99998 9.47295e-07 -3.65654e-12)
(2.99996 3.50611e-06 -9.81204e-12)
(2.9999 8.95323e-06 -2.08044e-11)
(2.99978 2.4654e-05 -5.05293e-11)
(2.99942 5.58293e-05 -9.92796e-11)
(2.99873 0.000149141 -2.65382e-10)
(2.99658 0.000311605 -4.95465e-10)
(2.99283 0.000945641 -1.6039e-09)
(2.97867 0.0017322 -2.65283e-09)
(2.95409 0.00643517 -1.02032e-08)
(2.85985 0.0128384 -1.75523e-08)
(2.61045 0.0482084 -6.81645e-08)
(1.98852 0.116686 -1.46902e-07)
(0.931988 0.332018 -2.27115e-07)
(0.513552 0.313213 1.0508e-08)
(0.588298 0.308763 -4.75172e-09)
(0.616015 0.327977 -2.10625e-08)
(0.574519 0.350658 -2.18731e-08)
(0.504613 0.38111 -2.25326e-08)
(0.433057 0.418291 -2.20128e-08)
(0.367837 0.461466 -2.18408e-08)
(0.294327 0.510193 -2.18356e-08)
(0.196119 0.563731 -2.13804e-08)
(0.0884512 0.613328 -2.12431e-08)
(3 1.93684e-07 -6.97831e-13)
(2.99999 1.0748e-06 -3.45753e-12)
(2.99997 3.96078e-06 -9.15446e-12)
(2.99991 1.01397e-05 -1.94791e-11)
(2.9998 2.78071e-05 -4.62814e-11)
(2.99947 6.32004e-05 -9.15658e-11)
(2.99883 0.000167141 -2.37643e-10)
(2.99692 0.000354278 -4.51829e-10)
(2.99335 0.00104422 -1.55364e-09)
(2.98113 0.00192292 -1.47194e-09)
(2.95895 0.00712305 -1.21907e-08)
(2.8771 0.0137061 -1.45318e-08)
(2.66336 0.0521705 -7.11901e-08)
(2.11519 0.12533 -1.47884e-07)
(1.02701 0.370812 -2.56669e-07)
(0.527789 0.359669 1.00257e-08)
(0.607512 0.353805 -3.69495e-09)
(0.64068 0.36979 -2.05951e-08)
(0.60107 0.392856 -2.19086e-08)
(0.536592 0.427829 -2.3499e-08)
(0.470118 0.472706 -2.31115e-08)
(0.409546 0.525633 -2.27951e-08)
(0.341403 0.588767 -2.25728e-08)
(0.246895 0.667926 -2.19277e-08)
(0.122245 0.761188 -2.11033e-08)
(3 3.70196e-07 -6.89291e-13)
(2.99999 8.33416e-07 -3.39769e-12)
(2.99997 5.64372e-06 -9.04661e-12)
(2.99992 9.0734e-06 -1.91613e-11)
(2.99982 3.93812e-05 -4.62948e-11)
(2.99954 5.87939e-05 -9.15133e-11)
(2.99898 0.000239907 -2.42373e-10)
(2.99731 0.000330004 -4.76266e-10)
(2.99414 0.00151191 -1.47889e-09)
(2.98366 0.00149952 -2.30083e-09)
(2.96413 0.0102518 -1.04526e-08)
(2.89469 0.0083496 -1.57067e-08)
(2.71617 0.0648877 -6.60204e-08)
(2.24869 0.113891 -1.46525e-07)
(1.14647 0.377529 -2.88996e-07)
(0.574588 0.404943 -7.86861e-09)
(0.642939 0.407402 -1.39714e-08)
(0.676005 0.412522 -1.85573e-08)
(0.639403 0.436029 -2.17457e-08)
(0.580954 0.472785 -2.54249e-08)
(0.519483 0.524575 -2.50185e-08)
(0.465055 0.586466 -2.47857e-08)
(0.410212 0.668658 -2.41026e-08)
(0.33536 0.79072 -2.26463e-08)
(0.188203 0.997827 -2.00679e-08)
(2.99999 1.27744e-08 -9.56008e-14)
(2.99998 6.96844e-08 -4.26481e-13)
(2.99995 2.58671e-07 -1.41782e-12)
(2.99986 6.62948e-07 -3.05544e-12)
(2.99969 1.827e-06 -8.83671e-12)
(2.99919 4.16601e-06 -1.79317e-11)
(2.99822 1.09975e-05 -5.28265e-11)
(2.99524 2.39489e-05 -1.00154e-10)
(2.98985 6.69089e-05 -3.39691e-10)
(2.97054 0.000137657 -5.51463e-10)
(2.93378 0.00042144 -2.17102e-09)
(2.80325 0.000992649 -4.47422e-09)
(2.4329 0.00297514 -1.2095e-08)
(1.57584 0.00791105 -3.08773e-08)
(0.666469 0.0200159 -3.2404e-08)
(0.537107 0.0209188 -3.88636e-10)
(0.567235 0.0220836 -1.45966e-09)
(0.564253 0.0241443 -4.02426e-09)
(0.513722 0.0263573 -4.47076e-09)
(0.428698 0.0287361 -4.83092e-09)
(0.345317 0.0314724 -4.32634e-09)
(0.275157 0.03468 -3.96694e-09)
(0.204517 0.0381431 -3.79418e-09)
(0.123472 0.0422835 -3.59322e-09)
(0.0550827 0.0484728 -3.3943e-09)
(2.99999 3.8891e-08 -9.56337e-14)
(2.99998 2.12462e-07 -4.27043e-13)
(2.99995 7.88103e-07 -1.41777e-12)
(2.99986 2.01734e-06 -3.05505e-12)
(2.99969 5.55684e-06 -8.83013e-12)
(2.9992 1.26486e-05 -1.79234e-11)
(2.99824 3.34154e-05 -5.27821e-11)
(2.99529 7.23753e-05 -1.0034e-10)
(2.98995 0.000203828 -3.38426e-10)
(2.97083 0.000414861 -5.54615e-10)
(2.93452 0.00129166 -2.1571e-09)
(2.8052 0.00301542 -4.46111e-09)
(2.43923 0.00918458 -1.20321e-08)
(1.58985 0.0243197 -3.07318e-08)
(0.675336 0.0606435 -3.26281e-08)
(0.536638 0.0608096 -3.46365e-10)
(0.567542 0.0618941 -1.47445e-09)
(0.565126 0.0658545 -4.07435e-09)
(0.514499 0.0700286 -4.49389e-09)
(0.429493 0.0745539 -4.81677e-09)
(0.345994 0.0795329 -4.31083e-09)
(0.275087 0.0849815 -3.9702e-09)
(0.203079 0.0902021 -3.81431e-09)
(0.120266 0.0954053 -3.62791e-09)
(0.0511924 0.100966 -3.45766e-09)
(2.99999 6.73957e-08 -9.66334e-14)
(2.99998 3.67844e-07 -4.32655e-13)
(2.99995 1.36544e-06 -1.42874e-12)
(2.99987 3.49696e-06 -3.07851e-12)
(2.9997 9.63069e-06 -8.83804e-12)
(2.99922 2.19549e-05 -1.79015e-11)
(2.99827 5.77136e-05 -5.25606e-11)
(2.99538 0.000126492 -9.91291e-11)
(2.99014 0.000346606 -3.37356e-10)
(2.97143 0.000727883 -5.43838e-10)
(2.93602 0.00215151 -2.15101e-09)
(2.80929 0.00511603 -4.37799e-09)
(2.45266 0.0154635 -1.20009e-08)
(1.62044 0.0404951 -3.03853e-08)
(0.696006 0.103287 -3.34427e-08)
(0.537477 0.102533 -3.3926e-10)
(0.570234 0.103956 -1.55017e-09)
(0.569296 0.110984 -4.16882e-09)
(0.518744 0.118536 -4.54658e-09)
(0.43402 0.127102 -4.81386e-09)
(0.350554 0.13637 -4.3257e-09)
(0.279036 0.146207 -4.05185e-09)
(0.205869 0.155683 -3.91252e-09)
(0.121522 0.164535 -3.76668e-09)
(0.0505071 0.171862 -3.64528e-09)
(2.99999 9.8262e-08 -1.03974e-13)
(2.99998 5.35167e-07 -4.62019e-13)
(2.99995 1.98928e-06 -1.53881e-12)
(2.99987 5.10095e-06 -3.33075e-12)
(2.99971 1.40512e-05 -9.57928e-12)
(2.99924 3.21279e-05 -1.96631e-11)
(2.99832 8.39021e-05 -5.6049e-11)
(2.99553 0.000187246 -1.15257e-10)
(2.99045 0.000492816 -3.28541e-10)
(2.97231 0.0010853 -6.76803e-10)
(2.93829 0.00296047 -1.89292e-09)
(2.8154 0.00723824 -4.63724e-09)
(2.47203 0.021488 -1.15747e-08)
(1.66435 0.0553116 -2.86241e-08)
(0.724817 0.145362 -3.44473e-08)
(0.535931 0.143394 -4.2411e-10)
(0.572555 0.145261 -1.83303e-09)
(0.574659 0.155581 -4.3989e-09)
(0.524934 0.166708 -4.68098e-09)
(0.441382 0.179553 -4.868e-09)
(0.358619 0.193491 -4.41176e-09)
(0.286956 0.208313 -4.1953e-09)
(0.212756 0.222867 -4.06842e-09)
(0.12636 0.236188 -3.97428e-09)
(0.0520055 0.245759 -3.8978e-09)
(2.99999 1.29604e-07 -1.06802e-13)
(2.99998 7.05025e-07 -4.75615e-13)
(2.99995 2.62238e-06 -1.57822e-12)
(2.99988 6.72957e-06 -3.41543e-12)
(2.99972 1.85352e-05 -9.76782e-12)
(2.99927 4.24568e-05 -2.00146e-11)
(2.9984 0.000110393 -5.67359e-11)
(2.99572 0.000248961 -1.15739e-10)
(2.99089 0.000639301 -3.31153e-10)
(2.97345 0.00144502 -6.70369e-10)
(2.94131 0.00378082 -1.90039e-09)
(2.8235 0.00926553 -4.53384e-09)
(2.49692 0.0275505 -1.16362e-08)
(1.72075 0.0702431 -2.85736e-08)
(0.761462 0.189073 -3.62722e-08)
(0.531775 0.184551 -1.2791e-10)
(0.574591 0.186307 -1.91546e-09)
(0.581261 0.199663 -4.57054e-09)
(0.53294 0.21416 -4.78896e-09)
(0.451349 0.23125 -4.92122e-09)
(0.369956 0.249984 -4.5456e-09)
(0.298696 0.270098 -4.37611e-09)
(0.223697 0.290295 -4.23496e-09)
(0.134565 0.308971 -4.18697e-09)
(0.0553922 0.32166 -4.13185e-09)
(2.99999 1.6125e-07 -1.1811e-13)
(2.99998 8.74046e-07 -5.20485e-13)
(2.99996 3.26074e-06 -1.7452e-12)
(2.99988 8.38532e-06 -3.80289e-12)