/*--------------------------------*- C++ -*----------------------------------*\
| =========                 |                                                 |
| \\      /  F ield         | OpenFOAM: The Open Source CFD Toolbox           |
|  \\    /   O peration     | Version:  4.1                                   |
|   \\  /    A nd           | Web:      www.OpenFOAM.org                      |
|    \\/     M anipulation  |                                                 |
\*---------------------------------------------------------------------------*/
FoamFile
{
    version     2.0;
    format      ascii;
    class       volScalarField;
    location    "3.8";
    object      T;
}
// * * * * * * * * * * * * * * * * * * * * * * * * * * * * * * * * * * * * * //

dimensions      [0 0 0 1 0 0 0];

internalField   nonuniform List<scalar> 
52500
(
0.999995
1.00002
1.00004
1.00015
1.00028
1.00089
1.00166
1.00489
1.01032
1.0265
1.07192
1.15836
1.49861
2.2691
2.64135
2.7315
2.7255
2.72094
2.73583
2.74749
2.76144
2.76879
2.77786
2.7812
2.78465
0.999995
1.00002
1.00004
1.00015
1.00027
1.00088
1.00164
1.00483
1.01017
1.02617
1.07083
1.15635
1.49024
2.25505
2.63746
2.73132
2.72515
2.72027
2.73502
2.74658
2.76026
2.7674
2.77637
2.77901
2.78117
0.999995
1.00002
1.00004
1.00014
1.00026
1.00086
1.00159
1.00472
1.00986
1.02551
1.06852
1.15221
1.47218
2.22368
2.62721
2.72967
2.72337
2.71786
2.73271
2.74397
2.75787
2.76407
2.77318
2.77649
2.7782
0.999995
1.00002
1.00004
1.00014
1.00025
1.00082
1.00152
1.00453
1.0094
1.02449
1.06508
1.14595
1.44503
2.17454
2.6108
2.72648
2.71979
2.71301
2.72769
2.73925
2.75344
2.76037
2.76772
2.76964
2.7735
0.999995
1.00001
1.00003
1.00013
1.00024
1.00079
1.00144
1.00445
1.00877
1.02383
1.05932
1.13763
1.40631
2.10318
2.58728
2.72118
2.71489
2.70513
2.72053
2.72941
2.74391
2.7512
2.76114
2.76374
2.76355
0.999995
1.00001
1.00003
1.00012
1.00023
1.00074
1.00135
1.0042
1.00805
1.02271
1.05292
1.12765
1.3624
2.01351
2.55532
2.71312
2.70657
2.6963
2.7127
2.72271
2.7335
2.74118
2.74775
2.74953
2.75362
0.999995
1.00001
1.00003
1.00011
1.00021
1.00068
1.00123
1.00384
1.00732
1.02094
1.04701
1.11733
1.31747
1.91501
2.50956
2.69671
2.68764
2.6777
2.69472
2.7086
2.72144
2.72597
2.73555
2.73704
2.73362
0.999995
1.00001
1.00002
1.0001
1.00019
1.00061
1.00112
1.00349
1.00664
1.0191
1.04242
1.10673
1.2857
1.82569
2.49181
2.6884
2.67909
2.66602
2.68028
2.68937
2.70383
2.70739
2.71012
2.7093
2.70934
0.999995
1.00001
1.00002
1.00009
1.00017
1.00055
1.00099
1.00312
1.00593
1.01693
1.03842
1.09333
1.26177
1.70622
2.45603
2.675
2.65919
2.66027
2.66673
2.6717
2.68265
2.68561
2.68867
2.68171
2.65624
0.999994
1.00001
1.00002
1.00007
1.00014
1.00044
1.00085
1.0024
1.00529
1.0131
1.03576
1.07851
1.24263
1.59932
2.36461
2.64325
2.65456
2.65227
2.65247
2.65748
2.65724
2.65443
2.64548
2.62507
2.5753
1
1.00002
1.00005
1.00016
1.00028
1.0009
1.00167
1.0049
1.01033
1.02652
1.07194
1.1584
1.49866
2.26923
2.64142
2.73157
2.72556
2.72101
2.7359
2.74756
2.76152
2.76887
2.77794
2.78128
2.78473
1
1.00002
1.00005
1.00016
1.00028
1.00089
1.00164
1.00484
1.01018
1.02619
1.07084
1.15639
1.49028
2.25518
2.63754
2.73139
2.72522
2.72034
2.73509
2.74665
2.76033
2.76748
2.77645
2.77909
2.78124
1
1.00002
1.00005
1.00015
1.00027
1.00087
1.0016
1.00473
1.00987
1.02553
1.06854
1.15225
1.47222
2.22381
2.62728
2.72973
2.72344
2.71793
2.73278
2.74404
2.75795
2.76414
2.77326
2.77657
2.77828
1
1.00002
1.00004
1.00014
1.00026
1.00083
1.00153
1.00454
1.00941
1.0245
1.0651
1.14599
1.44507
2.17468
2.61087
2.72655
2.71986
2.71307
2.72776
2.73932
2.75351
2.76045
2.76779
2.76972
2.77358
1
1.00002
1.00004
1.00014
1.00025
1.0008
1.00145
1.00446
1.00878
1.02385
1.05932
1.13767
1.40631
2.10328
2.58735
2.72125
2.71495
2.70519
2.72061
2.72948
2.74399
2.75127
2.76121
2.76382
2.76363
1
1.00002
1.00004
1.00013
1.00023
1.00075
1.00135
1.00421
1.00806
1.02272
1.05293
1.12768
1.36242
2.01361
2.55539
2.71319
2.70664
2.69637
2.71276
2.72278
2.73357
2.74125
2.74782
2.7496
2.75369
1
1.00002
1.00004
1.00012
1.00021
1.00068
1.00124
1.00385
1.00733
1.02095
1.04702
1.11735
1.31749
1.91508
2.50964
2.69678
2.6877
2.67776
2.69478
2.70867
2.72151
2.72604
2.73562
2.73711
2.73369
1
1.00002
1.00003
1.00011
1.00019
1.00062
1.00113
1.0035
1.00665
1.01912
1.04243
1.10675
1.28571
1.82577
2.49186
2.68847
2.67915
2.66608
2.68035
2.68942
2.7039
2.70746
2.71019
2.70936
2.7094
1
1.00002
1.00003
1.0001
1.00017
1.00055
1.001
1.00313
1.00594
1.01694
1.03842
1.09336
1.26178
1.70633
2.45608
2.67507
2.65924
2.66033
2.66679
2.67176
2.68271
2.68568
2.68873
2.68177
2.6563
1
1.00001
1.00002
1.00008
1.00015
1.00045
1.00086
1.00241
1.0053
1.01311
1.03577
1.07853
1.24264
1.59939
2.36468
2.64331
2.65461
2.65232
2.65253
2.65754
2.6573
2.65449
2.64553
2.62512
2.57535
1
1.00002
1.00005
1.00016
1.00028
1.0009
1.00167
1.0049
1.01033
1.02652
1.07194
1.1584
1.49866
2.26924
2.64143
2.73157
2.72556
2.72101
2.7359
2.74756
2.76152
2.76887
2.77794
2.78128
2.78473
1
1.00002
1.00005
1.00016
1.00028
1.00089
1.00164
1.00484
1.01018
1.02619
1.07084
1.1564
1.49028
2.25519
2.63754
2.73139
2.72522
2.72034
2.73509
2.74665
2.76033
2.76748
2.77645
2.77909
2.78124
1
1.00002
1.00005
1.00015
1.00027
1.00087
1.0016
1.00473
1.00987
1.02553
1.06854
1.15225
1.47222
2.22381
2.62728
2.72973
2.72344
2.71793
2.73278
2.74404
2.75795
2.76414
2.77326
2.77657
2.77828
1
1.00002
1.00004
1.00014
1.00026
1.00083
1.00153
1.00454
1.00941
1.0245
1.0651
1.14599
1.44507
2.17468
2.61087
2.72655
2.71986
2.71307
2.72776
2.73932
2.75351
2.76045
2.76779
2.76972
2.77358
1
1.00002
1.00004
1.00014
1.00025
1.0008
1.00145
1.00446
1.00878
1.02385
1.05932
1.13767
1.40632
2.10329
2.58735
2.72125
2.71495
2.70519
2.72061
2.72948
2.74399
2.75127
2.76121
2.76382
2.76363
1
1.00002
1.00004
1.00013
1.00023
1.00075
1.00135
1.00421
1.00806
1.02272
1.05293
1.12768
1.36242
2.01362
2.55539
2.71319
2.70664
2.69637
2.71277
2.72278
2.73357
2.74125
2.74782
2.7496
2.75369
1
1.00002
1.00004
1.00012
1.00021
1.00068
1.00124
1.00385
1.00733
1.02095
1.04702
1.11735
1.31749
1.91508
2.50964
2.69678
2.6877
2.67776
2.69478
2.70867
2.72151
2.72604
2.73562
2.73711
2.73369
1
1.00002
1.00003
1.00011
1.00019
1.00062
1.00113
1.0035
1.00665
1.01912
1.04243
1.10675
1.28571
1.82577
2.49186
2.68847
2.67915
2.66608
2.68035
2.68942
2.7039
2.70746
2.71019
2.70936
2.7094
1
1.00002
1.00003
1.0001
1.00017
1.00055
1.001
1.00313
1.00594
1.01694
1.03842
1.09336
1.26178
1.70634
2.45608
2.67507
2.65924
2.66033
2.66679
2.67176
2.68271
2.68568
2.68873
2.68177
2.6563
1
1.00001
1.00002
1.00008
1.00015
1.00045
1.00086
1.00241
1.0053
1.01311
1.03577
1.07853
1.24265
1.59939
2.36469
2.64332
2.65461
2.65232
2.65253
2.65754
2.6573
2.65449
2.64553
2.62512
2.57535
1
1.00002
1.00005
1.00016
1.00028
1.0009
1.00167
1.0049
1.01033
1.02652
1.07194
1.1584
1.49866
2.26924
2.64143
2.73157
2.72556
2.72101
2.7359
2.74756
2.76152
2.76887
2.77794
2.78128
2.78473
1
1.00002
1.00005
1.00016
1.00028
1.00089
1.00164
1.00484
1.01018
1.02619
1.07084
1.1564
1.49028
2.25519
2.63754
2.73139
2.72522
2.72034
2.73509
2.74665
2.76033
2.76748
2.77645
2.77909
2.78124
1
1.00002
1.00005
1.00015
1.00027
1.00087
1.0016
1.00473
1.00987
1.02553
1.06854
1.15225
1.47222
2.22381
2.62728
2.72973
2.72344
2.71793
2.73278
2.74404
2.75795
2.76414
2.77326
2.77657
2.77828
1
1.00002
1.00004
1.00014
1.00026
1.00083
1.00153
1.00454
1.00941
1.0245
1.0651
1.14599
1.44507
2.17468
2.61087
2.72655
2.71986
2.71307
2.72776
2.73932
2.75351
2.76045
2.76779
2.76972
2.77358
1
1.00002
1.00004
1.00014
1.00025
1.0008
1.00145
1.00446
1.00878
1.02385
1.05932
1.13767
1.40632
2.10329
2.58735
2.72125
2.71495
2.70519
2.72061
2.72948
2.74399
2.75127
2.76121
2.76382
2.76363
1
1.00002
1.00004
1.00013
1.00023
1.00075
1.00135
1.00421
1.00806
1.02272
1.05293
1.12768
1.36242
2.01362
2.55539
2.71319
2.70664
2.69637
2.71277
2.72278
2.73357
2.74125
2.74782
2.7496
2.75369
1
1.00002
1.00004
1.00012
1.00021
1.00068
1.00124
1.00385
1.00733
1.02095
1.04702
1.11735
1.31749
1.91508
2.50964
2.69678
2.6877
2.67776
2.69478
2.70867
2.72151
2.72604
2.73562
2.73711
2.73369
1
1.00002
1.00003
1.00011
1.00019
1.00062
1.00113
1.0035
1.00665
1.01912
1.04243
1.10675
1.28571
1.82577
2.49186
2.68847
2.67915
2.66608
2.68035
2.68942
2.7039
2.70746
2.71019
2.70936
2.7094
1
1.00002
1.00003
1.0001
1.00017
1.00055
1.001
1.00313
1.00594
1.01694
1.03842
1.09336
1.26178
1.70634
2.45608
2.67507
2.65924
2.66033
2.66679
2.67176
2.68271
2.68568
2.68873
2.68177
2.6563
1
1.00001
1.00002
1.00008
1.00015
1.00045
1.00086
1.00241
1.0053
1.01311
1.03577
1.07853
1.24265
1.59939
2.36469
2.64332
2.65461
2.65232
2.65253
2.65754
2.6573
2.65449
2.64553
2.62512
2.57535
1
1.00002
1.00005
1.00016
1.00028
1.0009
1.00167
1.0049
1.01033
1.02652
1.07194
1.1584
1.49866
2.26924
2.64143
2.73157
2.72556
2.72101
2.7359
2.74756
2.76152
2.76887
2.77794
2.78128
2.78473
1
1.00002
1.00005
1.00016
1.00028
1.00089
1.00164
1.00484
1.01018
1.02619
1.07084
1.1564
1.49028
2.25519
2.63754
2.73139
2.72522
2.72034
2.73509
2.74665
2.76033
2.76748
2.77645
2.77909
2.78124
1
1.00002
1.00005
1.00015
1.00027
1.00087
1.0016
1.00473
1.00987
1.02553
1.06854
1.15225
1.47222
2.22381
2.62728
2.72973
2.72344
2.71793
2.73278
2.74404
2.75795
2.76414
2.77326
2.77657
2.77828
1
1.00002
1.00004
1.00014
1.00026
1.00083
1.00153
1.00454
1.00941
1.0245
1.0651
1.14599
1.44507
2.17468
2.61087
2.72655
2.71986
2.71307
2.72776
2.73932
2.75351
2.76045
2.76779
2.76972
2.77358
1
1.00002
1.00004
1.00014
1.00025
1.0008
1.00145
1.00446
1.00878
1.02385
1.05932
1.13767
1.40632
2.10329
2.58735
2.72125
2.71495
2.70519
2.72061
2.72948
2.74399
2.75127
2.76121
2.76382
2.76363
1
1.00002
1.00004
1.00013
1.00023
1.00075
1.00135
1.00421
1.00806
1.02272
1.05293
1.12768
1.36242
2.01362
2.55539
2.71319
2.70664
2.69637
2.71277
2.72278
2.73357
2.74125
2.74782
2.7496
2.75369
1
1.00002
1.00004
1.00012
1.00021
1.00068
1.00124
1.00385
1.00733
1.02095
1.04702
1.11735
1.31749
1.91508
2.50964
2.69678
2.6877
2.67776
2.69478
2.70867
2.72151
2.72604
2.73562
2.73711
2.73369
1
1.00002
1.00003
1.00011
1.00019
1.00062
1.00113
1.0035
1.00665
1.01912
1.04243
1.10675
1.28571
1.82577
2.49186
2.68847
2.67915
2.66608
2.68035
2.68942
2.7039
2.70746
2.71019
2.70936
2.7094
1
1.00002
1.00003
1.0001
1.00017
1.00055
1.001
1.00313
1.00594
1.01694
1.03842
1.09336
1.26178
1.70634
2.45608
2.67507
2.65924
2.66033
2.66679
2.67176
2.68271
2.68568
2.68873
2.68177
2.6563
1
1.00001
1.00002
1.00008
1.00015
1.00045
1.00086
1.00241
1.0053
1.01311
1.03577
1.07853
1.24265
1.59939
2.36469
2.64332
2.65461
2.65232
2.65253
2.65754
2.6573
2.65449
2.64553
2.62512
2.57535
1
1.00002
1.00005
1.00016
1.00028
1.0009
1.00167
1.0049
1.01033
1.02652
1.07194
1.1584
1.49866
2.26924
2.64143
2.73157
2.72556
2.72101
2.7359
2.74756
2.76152
2.76887
2.77794
2.78128
2.78473
1
1.00002
1.00005
1.00016
1.00028
1.00089
1.00164
1.00484
1.01018
1.02619
1.07084
1.1564
1.49028
2.25519
2.63754
2.73139
2.72522
2.72034
2.73509
2.74665
2.76033
2.76748
2.77645
2.77909
2.78124
1
1.00002
1.00005
1.00015
1.00027
1.00087
1.0016
1.00473
1.00987
1.02553
1.06854
1.15225
1.47222
2.22381
2.62728
2.72973
2.72344
2.71793
2.73278
2.74404
2.75795
2.76414
2.77326
2.77657
2.77828
1
1.00002
1.00004
1.00014
1.00026
1.00083
1.00153
1.00454
1.00941
1.0245
1.0651
1.14599
1.44507
2.17468
2.61087
2.72655
2.71986
2.71307
2.72776
2.73932
2.75351
2.76045
2.76779
2.76972
2.77358
1
1.00002
1.00004
1.00014
1.00025
1.0008
1.00145
1.00446
1.00878
1.02385
1.05932
1.13767
1.40632
2.10329
2.58735
2.72125
2.71495
2.70519
2.72061
2.72948
2.74399
2.75127
2.76121
2.76382
2.76363
1
1.00002
1.00004
1.00013
1.00023
1.00075
1.00135
1.00421
1.00806
1.02272
1.05293
1.12768
1.36242
2.01362
2.55539
2.71319
2.70664
2.69637
2.71277
2.72278
2.73357
2.74125
2.74782
2.7496
2.75369
1
1.00002
1.00004
1.00012
1.00021
1.00068
1.00124
1.00385
1.00733
1.02095
1.04702
1.11735
1.31749
1.91508
2.50964
2.69678
2.6877
2.67776
2.69478
2.70867
2.72151
2.72604
2.73562
2.73711
2.73369
1
1.00002
1.00003
1.00011
1.00019
1.00062
1.00113
1.0035
1.00665
1.01912
1.04243
1.10675
1.28571
1.82577
2.49186
2.68847
2.67915
2.66608
2.68035
2.68942
2.7039
2.70746
2.71019
2.70936
2.7094
1
1.00002
1.00003
1.0001
1.00017
1.00055
1.001
1.00313
1.00594
1.01694
1.03842
1.09336
1.26178
1.70634
2.45608
2.67507
2.65924
2.66033
2.66679
2.67176
2.68271
2.68568
2.68873
2.68177
2.6563
1
1.00001
1.00002
1.00008
1.00015
1.00045
1.00086
1.00241
1.0053
1.01311
1.03577
1.07853
1.24265
1.59939
2.36469
2.64332
2.65461
2.65232
2.65253
2.65754
2.6573
2.65449
2.64553
2.62512
2.57535
1
1.00002
1.00005
1.00016
1.00028
1.0009
1.00167
1.0049
1.01033
1.02652
1.07194
1.1584
1.49866
2.26924
2.64143
2.73157
2.72556
2.72101
2.7359
2.74756
2.76152
2.76887
2.77794
2.78128
2.78473
1
1.00002
1.00005
1.00016
1.00028
1.00089
1.00164
1.00484
1.01018
1.02619
1.07084
1.1564
1.49028
2.25519
2.63754
2.73139
2.72522
2.72034
2.73509
2.74665
2.76033
2.76748
2.77645
2.77909
2.78124
1
1.00002
1.00005
1.00015
1.00027
1.00087
1.0016
1.00473
1.00987
1.02553
1.06854
1.15225
1.47222
2.22381
2.62728
2.72973
2.72344
2.71793
2.73278
2.74404
2.75795
2.76414
2.77326
2.77657
2.77828
1
1.00002
1.00004
1.00014
1.00026
1.00083
1.00153
1.00454
1.00941
1.0245
1.0651
1.14599
1.44507
2.17468
2.61087
2.72655
2.71986
2.71307
2.72776
2.73932
2.75351
2.76045
2.76779
2.76972
2.77358
1
1.00002
1.00004
1.00014
1.00025
1.0008
1.00145
1.00446
1.00878
1.02385
1.05932
1.13767
1.40632
2.10329
2.58735
2.72125
2.71495
2.70519
2.72061
2.72948
2.74399
2.75127
2.76121
2.76382
2.76363
1
1.00002
1.00004
1.00013
1.00023
1.00075
1.00135
1.00421
1.00806
1.02272
1.05293
1.12768
1.36242
2.01362
2.55539
2.71319
2.70664
2.69637
2.71277
2.72278
2.73357
2.74125
2.74782
2.7496
2.75369
1
1.00002
1.00004
1.00012
1.00021
1.00068
1.00124
1.00385
1.00733
1.02095
1.04702
1.11735
1.31749
1.91508
2.50964
2.69678
2.6877
2.67776
2.69478
2.70867
2.72151
2.72604
2.73562
2.73711
2.73369
1
1.00002
1.00003
1.00011
1.00019
1.00062
1.00113
1.0035
1.00665
1.01912
1.04243
1.10675
1.28571
1.82577
2.49186
2.68847
2.67915
2.66608
2.68035
2.68942
2.7039
2.70746
2.71019
2.70936
2.7094
1
1.00002
1.00003
1.0001
1.00017
1.00055
1.001
1.00313
1.00594
1.01694
1.03842
1.09336
1.26178
1.70634
2.45608
2.67507
2.65924
2.66033
2.66679
2.67176
2.68271
2.68568
2.68873
2.68177
2.6563
1
1.00001
1.00002
1.00008
1.00015
1.00045
1.00086
1.00241
1.0053
1.01311
1.03577
1.07853
1.24265
1.59939
2.36469
2.64332
2.65461
2.65232
2.65253
2.65754
2.6573
2.65449
2.64553
2.62512
2.57535
1
1.00002
1.00005
1.00016
1.00028
1.0009
1.00167
1.0049
1.01033
1.02652
1.07194
1.1584
1.49866
2.26924
2.64143
2.73157
2.72556
2.72101
2.7359
2.74756
2.76152
2.76887
2.77794
2.78128
2.78473
1
1.00002
1.00005
1.00016
1.00028
1.00089
1.00164
1.00484
1.01018
1.02619
1.07084
1.1564
1.49028
2.25519
2.63754
2.73139
2.72522
2.72034
2.73509
2.74665
2.76033
2.76748
2.77645
2.77909
2.78124
1
1.00002
1.00005
1.00015
1.00027
1.00087
1.0016
1.00473
1.00987
1.02553
1.06854
1.15225
1.47222
2.22381
2.62728
2.72973
2.72344
2.71793
2.73278
2.74404
2.75795
2.76414
2.77326
2.77657
2.77828
1
1.00002
1.00004
1.00014
1.00026
1.00083
1.00153
1.00454
1.00941
1.0245
1.0651
1.14599
1.44507
2.17468
2.61087
2.72655
2.71986
2.71307
2.72776
2.73932
2.75351
2.76045
2.76779
2.76972
2.77358
1
1.00002
1.00004
1.00014
1.00025
1.0008
1.00145
1.00446
1.00878
1.02385
1.05932
1.13767
1.40632
2.10329
2.58735
2.72125
2.71495
2.70519
2.72061
2.72948
2.74399
2.75127
2.76121
2.76382
2.76363
1
1.00002
1.00004
1.00013
1.00023
1.00075
1.00135
1.00421
1.00806
1.02272
1.05293
1.12768
1.36242
2.01362
2.55539
2.71319
2.70664
2.69637
2.71277
2.72278
2.73357
2.74125
2.74782
2.7496
2.75369
1
1.00002
1.00004
1.00012
1.00021
1.00068
1.00124
1.00385
1.00733
1.02095
1.04702
1.11735
1.31749
1.91508
2.50964
2.69678
2.6877
2.67776
2.69478
2.70867
2.72151
2.72604
2.73562
2.73711
2.73369
1
1.00002
1.00003
1.00011
1.00019
1.00062
1.00113
1.0035
1.00665
1.01912
1.04243
1.10675
1.28571
1.82577
2.49186
2.68847
2.67915
2.66608
2.68035
2.68942
2.7039
2.70746
2.71019
2.70936
2.7094
1
1.00002
1.00003
1.0001
1.00017
1.00055
1.001
1.00313
1.00594
1.01694
1.03842
1.09336
1.26178
1.70634
2.45608
2.67507
2.65924
2.66033
2.66679
2.67176
2.68271
2.68568
2.68873
2.68177
2.6563
1
1.00001
1.00002
1.00008
1.00015
1.00045
1.00086
1.00241
1.0053
1.01311
1.03577
1.07853
1.24265
1.59939
2.36469
2.64332
2.65461
2.65232
2.65253
2.65754
2.6573
2.65449
2.64553
2.62512
2.57535
1
1.00002
1.00005
1.00016
1.00028
1.0009
1.00167
1.0049
1.01033
1.02652
1.07194
1.1584
1.49866
2.26923
2.64142
2.73157
2.72556
2.72101
2.7359
2.74756
2.76152
2.76887
2.77794
2.78128
2.78473
1
1.00002
1.00005
1.00016
1.00028
1.00089
1.00164
1.00484
1.01018
1.02619
1.07084
1.15639
1.49028
2.25518
2.63754
2.73139
2.72522
2.72034
2.73509
2.74665
2.76033
2.76748
2.77645
2.77909
2.78124
1
1.00002
1.00005
1.00015
1.00027
1.00087
1.0016
1.00473
1.00987
1.02553
1.06854
1.15225
1.47222
2.22381
2.62728
2.72973
2.72344
2.71793
2.73278
2.74404
2.75795
2.76414
2.77326
2.77657
2.77828
1
1.00002
1.00004
1.00014
1.00026
1.00083
1.00153
1.00454
1.00941
1.0245
1.0651
1.14599
1.44507
2.17468
2.61087
2.72655
2.71986
2.71307
2.72776
2.73932
2.75351
2.76045
2.76779
2.76972
2.77358
1
1.00002
1.00004
1.00014
1.00025
1.0008
1.00145
1.00446
1.00878
1.02385
1.05932
1.13767
1.40631
2.10328
2.58735
2.72125
2.71495
2.70519
2.72061
2.72948
2.74399
2.75127
2.76121
2.76382
2.76363
1
1.00002
1.00004
1.00013
1.00023
1.00075
1.00135
1.00421
1.00806
1.02272
1.05293
1.12768
1.36242
2.01361
2.55539
2.71319
2.70664
2.69637
2.71276
2.72278
2.73357
2.74125
2.74782
2.7496
2.75369
1
1.00002
1.00004
1.00012
1.00021
1.00068
1.00124
1.00385
1.00733
1.02095
1.04702
1.11735
1.31749
1.91508
2.50964
2.69678
2.6877
2.67776
2.69478
2.70867
2.72151
2.72604
2.73562
2.73711
2.73369
1
1.00002
1.00003
1.00011
1.00019
1.00062
1.00113
1.0035
1.00665
1.01912
1.04243
1.10675
1.28571
1.82577
2.49186
2.68847
2.67915
2.66608
2.68035
2.68942
2.7039
2.70746
2.71019
2.70936
2.7094
1
1.00002
1.00003
1.0001
1.00017
1.00055
1.001
1.00313
1.00594
1.01694
1.03842
1.09336
1.26178
1.70633
2.45608
2.67507
2.65924
2.66033
2.66679
2.67176
2.68271
2.68568
2.68873
2.68177
2.6563
1
1.00001
1.00002
1.00008
1.00015
1.00045
1.00086
1.00241
1.0053
1.01311
1.03577
1.07853
1.24264
1.59939
2.36468
2.64331
2.65461
2.65232
2.65253
2.65754
2.6573
2.65449
2.64553
2.62512
2.57535
0.999995
1.00002
1.00004
1.00015
1.00028
1.00089
1.00166
1.00489
1.01032
1.0265
1.07192
1.15836
1.49861
2.2691
2.64135
2.7315
2.7255
2.72094
2.73583
2.74749
2.76144
2.76879
2.77786
2.7812
2.78465
0.999995
1.00002
1.00004
1.00015
1.00027
1.00088
1.00164
1.00483
1.01017
1.02617
1.07083
1.15635
1.49024
2.25505
2.63746
2.73132
2.72515
2.72027
2.73502
2.74658
2.76026
2.7674
2.77637
2.77901
2.78117
0.999995
1.00002
1.00004
1.00014
1.00026
1.00086
1.00159
1.00472
1.00986
1.02551
1.06852
1.15221
1.47218
2.22368
2.62721
2.72967
2.72337
2.71786
2.73271
2.74397
2.75787
2.76407
2.77318
2.77649
2.7782
0.999995
1.00002
1.00004
1.00014
1.00025
1.00082
1.00152
1.00453
1.0094
1.02449
1.06508
1.14595
1.44503
2.17454
2.6108
2.72648
2.71979
2.71301
2.72769
2.73925
2.75344
2.76037
2.76772
2.76964
2.7735
0.999995
1.00001
1.00003
1.00013
1.00024
1.00079
1.00144
1.00445
1.00877
1.02383
1.05932
1.13763
1.40631
2.10318
2.58728
2.72118
2.71489
2.70513
2.72053
2.72941
2.74391
2.7512
2.76114
2.76374
2.76355
0.999995
1.00001
1.00003
1.00012
1.00023
1.00074
1.00135
1.0042
1.00805
1.02271
1.05292
1.12765
1.3624
2.01351
2.55532
2.71312
2.70657
2.6963
2.7127
2.72271
2.7335
2.74118
2.74775
2.74953
2.75362
0.999995
1.00001
1.00003
1.00011
1.00021
1.00068
1.00123
1.00384
1.00732
1.02094
1.04701
1.11733
1.31747
1.91501
2.50956
2.69671
2.68764
2.6777
2.69472
2.7086
2.72144
2.72597
2.73555
2.73704
2.73362
0.999995
1.00001
1.00002
1.0001
1.00019
1.00061
1.00112
1.00349
1.00664
1.0191
1.04242
1.10673
1.2857
1.82569
2.49181
2.6884
2.67909
2.66602
2.68028
2.68937
2.70383
2.70739
2.71012
2.7093
2.70934
0.999995
1.00001
1.00002
1.00009
1.00017
1.00055
1.00099
1.00312
1.00593
1.01693
1.03842
1.09333
1.26177
1.70622
2.45603
2.675
2.65919
2.66027
2.66673
2.6717
2.68265
2.68561
2.68867
2.68171
2.65624
0.999994
1.00001
1.00002
1.00007
1.00014
1.00044
1.00085
1.0024
1.00529
1.0131
1.03576
1.07851
1.24263
1.59932
2.36461
2.64325
2.65456
2.65227
2.65247
2.65748
2.65724
2.65443
2.64548
2.62507
2.5753
0.999996
1
1.00002
1.00005
1.00017
1.00031
1.00098
1.00188
1.00532
1.01177
1.0294
1.08153
1.17865
1.55
2.33736
2.58247
2.63975
2.63481
2.63379
2.63793
2.63689
2.62859
2.60633
2.55312
2.35854
0.999996
0.999999
1.00002
1.00004
1.00014
1.00027
1.00086
1.0016
1.00472
1.0099
1.0255
1.06856
1.15198
1.46978
2.20906
2.53723
2.63299
2.6247
2.61253
2.60962
2.604
2.58766
2.55262
2.48867
2.29233
0.999995
0.999999
1.00001
1.00003
1.00012
1.00023
1.00075
1.00137
1.00427
1.0082
1.0229
1.05436
1.12899
1.37071
2.01524
2.46027
2.61735
2.61047
2.60008
2.58998
2.58056
2.5603
2.51347
2.44856
2.29059
0.999995
0.999998
1.00001
1.00003
1.0001
1.00019
1.00062
1.00113
1.00352
1.00667
1.01927
1.04187
1.10794
1.27612
1.81716
2.35648
2.57924
2.57571
2.57188
2.55903
2.54354
2.51871
2.47662
2.4232
2.30267
0.999995
0.999997
1.00001
1.00002
1.00008
1.00015
1.00049
1.00091
1.00279
1.00542
1.01505
1.03485
1.08382
1.23221
1.62688
2.28492
2.54319
2.55471
2.55296
2.54473
2.52429
2.49657
2.43553
2.39099
2.30227
0.999994
0.999997
1
1.00002
1.00004
1.00016
1.00029
1.00091
1.00176
1.00487
1.011
1.02678
1.07534
1.16141
1.51157
2.22329
2.46027
2.52036
2.51313
2.51014
2.4997
2.47939
2.4288
2.36632
2.29553
0.999994
0.999996
0.999999
1.00002
1.00003
1.00013
1.00024
1.00077
1.00141
1.00434
1.00847
1.02308
1.05656
1.1313
1.38169
2.02112
2.39677
2.50819
2.50041
2.48886
2.4641
2.44343
2.41239
2.35733
2.29156
0.999993
0.999995
0.999997
1.00001
1.00002
1.0001
1.00018
1.00059
1.00109
1.00334
1.00641
1.01824
1.04011
1.1027
1.26068
1.77697
2.24944
2.4672
2.47228
2.46695
2.45138
2.42004
2.38674
2.33868
2.28061
0.999993
0.999993
0.999997
1
1.00002
1.00005
1.00018
1.00033
1.00104
1.00197
1.00566
1.01201
1.03066
1.08183
1.18165
1.53244
2.20953
2.41256
2.43844
2.4292
2.42111
2.40136
2.37373
2.3317
2.27761
0.999992
0.999993
0.999996
0.999999
1.00002
1.00004
1.00013
1.00025
1.00078
1.00147
1.00426
1.009
1.02299
1.06108
1.13624
1.40536
2.04787
2.34573
2.41944
2.41215
2.39373
2.36865
2.3425
2.31362
2.27001
0.999992
0.999992
0.999994
0.999999
1
1.00003
1.00007
1.00023
1.00043
1.00128
1.0026
1.00682
1.01665
1.03883
1.11064
1.2468
1.70346
2.19593
2.38811
2.39095
2.38086
2.35847
2.32699
2.29514
2.26122
0.999992
0.999992
0.999993
0.999997
1
1.00002
1.00005
1.00017
1.00031
1.00099
1.00185
1.0054
1.01124
1.02891
1.0762
1.16869
1.49178
2.1118
2.32596
2.35785
2.35156
2.33604
2.3087
2.27532
2.24133
0.999991
0.999992
0.999993
0.999994
1
1.00001
1.00004
1.00009
1.00028
1.00053
1.00151
1.00324
1.00811
1.02116
1.04765
1.13951
1.31153
1.85903
2.22778
2.3348
2.33308
2.32247
2.30027
2.26759
2.23343
0.999991
0.999991
0.999992
0.999993
0.999998
1
1.00003
1.00006
1.00021
1.00038
1.0012
1.0022
1.00663
1.01316
1.035
1.08438
1.20764
1.51952
2.10775
2.27709
2.29463
2.29147
2.27888
2.25228
2.22059
0.999991
0.999991
0.999991
0.999993
0.999994
1
1.00001
1.00005
1.0001
1.00033
1.00062
1.00188
1.00367
1.01001
1.02287
1.05491
1.15029
1.35823
1.87613
2.2074
2.27582
2.27369
2.26084
2.24253
2.21014
0.999991
0.999991
0.999991
0.999992
0.999993
0.999998
1
1.00003
1.00007
1.00023
1.00042
1.0013
1.00242
1.00698
1.01456
1.0369
1.09624
1.21747
1.5764
2.0407
2.2322
2.24357
2.23862
2.22316
2.19871
0.999991
0.999991
0.999991
0.999991
0.999993
0.999995
1
1.00001
1.00006
1.00011
1.00036
1.00068
1.00203
1.00393
1.01096
1.02406
1.05901
1.15125
1.38905
1.87274
2.15968
2.21995
2.21861
2.20547
2.18751
0.999991
0.999991
0.999991
0.999991
0.999992
0.999993
0.999999
1.00001
1.00003
1.00007
1.00024
1.00044
1.00135
1.00252
1.00726
1.01512
1.03829
1.09905
1.22554
1.58896
2.0048
2.17509
2.19173
2.18727
2.17249
0.999991
0.999991
0.999991
0.999991
0.999991
0.999993
0.999995
1
1.00001
1.00006
1.00012
1.00036
1.00069
1.00204
1.00401
1.01107
1.02394
1.06112
1.14537
1.40848
1.8244
2.08896
2.15609
2.16146
2.15554
0.999991
0.999991
0.999991
0.999991
0.999991
0.999992
0.999994
0.999997
1.00001
1.00002
1.00009
1.00018
1.00056
1.00104
1.00308
1.00602
1.0164
1.03653
1.08938
1.22445
1.61083
1.95672
2.10985
2.12954
2.12815
0.999991
0.999991
0.999991
0.999991
0.999991
0.999991
0.999993
0.999995
1
1.00001
1.00006
1.00011
1.00035
1.00065
1.00199
1.00374
1.01066
1.02212
1.05672
1.13492
1.3589
1.77
2.03467
2.10099
2.10703
0.999991
0.999991
0.999991
0.999991
0.999991
0.999991
0.999992
0.999994
0.999996
1.00001
1.00002
1.00008
1.00016
1.0005
1.00095
1.00278
1.00543
1.0148
1.03212
1.0806
1.19232
1.53317
1.88545
2.0566
2.07342
0.999991
0.999991
0.999991
0.999991
0.999991
0.999991
0.999991
0.999993
0.999994
1
1.00001
1.00005
1.0001
1.00032
1.00058
1.00177
1.00331
1.00937
1.01965
1.04965
1.12126
1.30188
1.6877
1.98451
2.05585
0.999991
0.999991
0.999991
0.999991
0.999991
0.999991
0.999991
0.999992
0.999993
0.999997
1
1.00003
1.00006
1.00019
1.00035
1.00106
1.00195
1.00574
1.01118
1.02991
1.06709
1.16602
1.39729
1.82875
2.00299
0.999991
0.999991
0.999991
0.999991
0.999991
0.999991
0.999991
0.999991
0.999992
0.999995
0.999998
1.00001
1.00003
1.00011
1.00021
1.00064
1.00118
1.00351
1.0067
1.01835
1.041
1.0967
1.25475
1.65471
1.89347
0.999991
0.999991
0.999991
0.999991
0.999991
0.999991
0.999991
0.999991
0.999992
0.999992
0.999996
1
1.00002
1.00004
1.00015
1.00029
1.00086
1.00162
1.00459
1.00939
1.02394
1.05902
1.1315
1.35371
1.76957
0.999991
0.999991
0.999991
0.999991
0.999991
0.999991
0.999991
0.999991
0.999991
0.999992
0.999993
0.999998
1
1.00003
1.00006
1.00021
1.00039
1.00115
1.00221
1.00603
1.0129
1.03145
1.0806
1.17516
1.46665
0.999991
0.999991
0.999991
0.999991
0.999991
0.999991
0.999991
0.999991
0.999991
0.999991
0.999992
0.999994
1
1.00001
1.00005
1.00009
1.00029
1.00054
1.00159
1.00308
1.00832
1.01804
1.04343
1.10636
1.25984
0.999991
0.999991
0.999991
0.999991
0.999991
0.999991
0.999991
0.999991
0.999991
0.999991
0.999992
0.999993
0.999996
1
1.00002
1.00005
1.00016
1.0003
1.00092
1.0017
1.00496
1.00965
1.02551
1.05773
1.1373
0.999991
0.999991
0.999991
0.999991
0.999991
0.999991
0.999991
0.999991
0.999991
0.999991
0.999991
0.999992
0.999993
0.999998
1
1.00003
1.00007
1.00021
1.0004
1.00117
1.00223
1.00621
1.01279
1.03192
1.07724
0.999991
0.999991
0.999991
0.999991
0.999991
0.999991
0.999991
0.999991
0.999991
0.999991
0.999991
0.999991
0.999992
0.999994
1
1.00001
1.00004
1.00009
1.00028
1.00053
1.00153
1.00299
1.0081
1.01699
1.04301
0.999991
0.999991
0.999991
0.999991
0.999991
0.999991
0.999991
0.999991
0.999991
0.999991
0.999991
0.999991
0.999991
0.999993
0.999995
1
1.00001
1.00006
1.00012
1.00036
1.00069
1.00197
1.00385
1.01038
1.02163
0.999991
0.999991
0.999991
0.999991
0.999991
0.999991
0.999991
0.999991
0.999991
0.999991
0.999991
0.999991
0.999991
0.999992
0.999993
0.999998
1
1.00003
1.00006
1.0002
1.00037
1.00109
1.00204
1.00569
1.01134
0.999991
0.999991
0.999991
0.999991
0.999991
0.999991
0.999991
0.999991
0.999991
0.999991
0.999991
0.999991
0.999991
0.999991
0.999992
0.999994
1
1.00001
1.00004
1.00008
1.00026
1.00049
1.00142
1.00271
1.00749
0.999991
0.999991
0.999991
0.999991
0.999991
0.999991
0.999991
0.999991
0.999991
0.999991
0.999991
0.999991
0.999991
0.999991
0.999992
0.999993
0.999995
1
1.00002
1.00006
1.00013
1.00039
1.00074
1.00213
1.00415
0.999991
0.999991
0.999991
0.999991
0.999991
0.999991
0.999991
0.999991
0.999991
0.999991
0.999991
0.999991
0.999991
0.999991
0.999991
0.999992
0.999995
0.999999
1.00001
1.00003
1.00012
1.00023
1.00071
1.00135
1.00393
0.999991
0.999991
0.999991
0.999991
0.999991
0.999991
0.999991
0.999991
0.999991
0.999991
0.999991
0.999991
0.999991
0.999991
0.999991
0.999992
0.999993
0.999999
1.00001
1.00004
1.00008
1.00026
1.00049
1.00151
1.00292
0.999991
0.999991
0.999991
0.999991
0.999991
0.999991
0.999991
0.999991
0.999991
0.999991
0.999991
0.999991
0.999991
0.999991
0.999991
0.999992
0.999993
0.999999
1.00001
1.00004
1.00007
1.00025
1.00046
1.00141
1.0028
0.999991
0.999991
0.999991
0.999991
0.999991
0.999991
0.999991
0.999991
0.999991
0.999991
0.999991
0.999991
0.999991
0.999991
0.999991
0.999992
0.999994
0.999997
1.00001
1.00003
1.0001
1.00019
1.00062
1.00115
1.00355
0.999991
0.999991
0.999991
0.999991
0.999991
0.999991
0.999991
0.999991
0.999991
0.999991
0.999991
0.999991
0.999991
0.999991
0.999991
0.999992
0.999994
0.999997
1.00001
1.00003
1.0001
1.00019
1.00064
1.00116
1.00365
1
1.00001
1.00003
1.00005
1.00017
1.00032
1.00098
1.00189
1.00533
1.01178
1.02942
1.08154
1.17869
1.55002
2.33746
2.58254
2.6398
2.63486
2.63384
2.63799
2.63695
2.62865
2.60639
2.55317
2.35857
1
1.00001
1.00003
1.00005
1.00015
1.00028
1.00087
1.00161
1.00473
1.0099
1.02552
1.06857
1.15202
1.4698
2.20917
2.5373
2.63304
2.62475
2.61258
2.60968
2.60405
2.58771
2.55267
2.48872
2.29236
1
1.00001
1.00002
1.00004
1.00013
1.00024
1.00076
1.00138
1.00428
1.00821
1.02292
1.05436
1.12902
1.37072
2.01532
2.46034
2.6174
2.61053
2.60013
2.59003
2.58061
2.56035
2.51351
2.4486
2.29062
1
1.00001
1.00002
1.00003
1.00011
1.0002
1.00063
1.00114
1.00353
1.00668
1.01929
1.04188
1.10796
1.27614
1.81722
2.35654
2.5793
2.57576
2.57193
2.55908
2.54359
2.51875
2.47667
2.42324
2.30271
1
1
1.00001
1.00003
1.00009
1.00016
1.0005
1.00092
1.0028
1.00543
1.01506
1.03485
1.08385
1.23221
1.62695
2.28498
2.54325
2.55476
2.55302
2.54478
2.52433
2.49661
2.43556
2.39103
2.3023
1
1
1.00001
1.00003
1.00005
1.00016
1.0003
1.00092
1.00177
1.00488
1.01101
1.02679
1.07535
1.16145
1.51159
2.22337
2.46033
2.5204
2.51317
2.51019
2.49975
2.47943
2.42883
2.36636
2.29556
1
1
1.00001
1.00002
1.00004
1.00014
1.00025
1.00078
1.00142
1.00435
1.00848
1.0231
1.05657
1.13133
1.38169
2.02119
2.39683
2.50824
2.50045
2.4889
2.46414
2.44347
2.41242
2.35736
2.29159
1
1
1.00001
1.00002
1.00003
1.00011
1.00019
1.0006
1.00109
1.00335
1.00642
1.01825
1.04013
1.10273
1.2607
1.77706
2.2495
2.46725
2.47232
2.467
2.45143
2.42008
2.38677
2.33871
2.28064
1
1
1.00001
1.00001
1.00003
1.00006
1.00019
1.00034
1.00105
1.00197
1.00567
1.01202
1.03068
1.08184
1.18169
1.53247
2.20959
2.4126
2.43848
2.42924
2.42115
2.4014
2.37377