/*--------------------------------*- C++ -*----------------------------------*\
| =========                 |                                                 |
| \\      /  F ield         | OpenFOAM: The Open Source CFD Toolbox           |
|  \\    /   O peration     | Version:  4.1                                   |
|   \\  /    A nd           | Web:      www.OpenFOAM.org                      |
|    \\/     M anipulation  |                                                 |
\*---------------------------------------------------------------------------*/
FoamFile
{
    version     2.0;
    format      ascii;
    class       volScalarField;
    location    "0.26";
    object      Ma;
}
// * * * * * * * * * * * * * * * * * * * * * * * * * * * * * * * * * * * * * //

dimensions      [0 0 0 0 0 0 0];

internalField   nonuniform List<scalar> 
18000
(
5.71888e-12
5.65269e-12
5.57648e-12
5.51182e-12
5.44802e-12
5.38505e-12
5.32294e-12
5.26177e-12
5.20149e-12
5.14269e-12
7.1973e-12
6.93652e-12
6.67715e-12
6.4378e-12
6.20895e-12
5.98997e-12
5.78037e-12
5.57968e-12
5.38731e-12
5.2051e-12
9.17642e-12
8.59996e-12
8.05799e-12
7.56337e-12
7.10535e-12
6.68088e-12
6.28733e-12
5.92176e-12
5.58208e-12
5.26848e-12
1.1868e-11
1.07813e-11
9.80657e-12
8.94024e-12
8.16615e-12
7.47278e-12
6.85023e-12
6.29018e-12
5.78539e-12
5.33302e-12
1.5592e-11
1.36805e-11
1.20422e-11
1.06372e-11
9.42793e-12
8.38289e-12
7.47637e-12
6.6874e-12
5.99805e-12
5.39891e-12
2.08435e-11
1.75915e-11
1.49332e-11
1.27451e-11
1.09369e-11
9.43268e-12
8.17436e-12
7.11584e-12
6.22049e-12
5.46563e-12
2.84072e-11
2.29548e-11
1.87157e-11
1.53864e-11
1.2752e-11
1.06482e-11
8.9539e-12
7.57851e-12
6.45344e-12
5.53349e-12
3.95645e-11
3.04364e-11
2.37284e-11
1.87249e-11
1.49491e-11
1.20625e-11
9.8291e-12
8.08208e-12
6.70112e-12
5.60756e-12
1.92476e-09
1.85203e-09
1.73233e-09
1.62653e-09
1.53259e-09
1.44868e-09
1.3733e-09
1.30525e-09
1.24354e-09
1.1964e-09
2.08298e-07
2.98666e-08
2.53508e-08
2.18119e-08
1.88891e-08
1.64496e-08
1.43949e-08
1.26503e-08
1.11292e-08
3.05197e-08
5.85354e-12
5.78336e-12
5.70669e-12
5.63875e-12
5.57205e-12
5.50658e-12
5.44173e-12
5.37827e-12
5.31574e-12
5.25455e-12
7.39231e-12
7.1174e-12
6.85388e-12
6.60315e-12
6.3641e-12
6.1356e-12
5.91754e-12
5.70909e-12
5.50983e-12
5.31981e-12
9.45068e-12
8.84544e-12
8.29316e-12
7.77552e-12
7.29746e-12
6.85532e-12
6.44608e-12
6.06662e-12
5.71455e-12
5.38691e-12
1.22653e-11
1.11268e-11
1.01267e-11
9.21823e-12
8.40864e-12
7.68503e-12
7.03681e-12
6.45501e-12
5.93094e-12
5.45587e-12
1.61829e-11
1.41803e-11
1.24858e-11
1.10068e-11
9.73805e-12
8.64446e-12
7.6981e-12
6.87641e-12
6.15972e-12
5.52722e-12
2.17468e-11
1.83307e-11
1.55573e-11
1.32426e-11
1.13373e-11
9.75769e-12
8.44021e-12
7.33496e-12
6.40195e-12
5.60068e-12
2.98253e-11
2.40739e-11
1.96067e-11
1.60633e-11
1.32736e-11
1.10549e-11
9.27446e-12
7.83406e-12
6.658e-12
5.67656e-12
4.18642e-11
3.21704e-11
2.50213e-11
1.96573e-11
1.56343e-11
1.25734e-11
1.02158e-11
8.37812e-12
6.9294e-12
5.75506e-12
6.48322e-11
7.15279e-11
5.63582e-11
4.51064e-11
3.66992e-11
3.02873e-11
2.53098e-11
2.1385e-11
1.82465e-11
1.56615e-11
1.2627e-07
2.09706e-08
1.81353e-08
1.58207e-08
1.39212e-08
1.2344e-08
1.10207e-08
9.89994e-09
8.9433e-09
8.25511e-09
4.1102e-13
3.86466e-13
2.16662e-13
1.9813e-13
1.80987e-13
1.65543e-13
1.51947e-13
1.40569e-13
1.31047e-13
1.18678e-13
5.67216e-13
4.94865e-13
4.22869e-13
3.72615e-13
3.27037e-13
2.8633e-13
2.50718e-13
2.20569e-13
1.96053e-13
1.40442e-13
6.56128e-13
5.48349e-13
5.71297e-13
4.99656e-13
4.37193e-13
3.83947e-13
3.39456e-13
3.02959e-13
2.72788e-13
1.69796e-13
8.30436e-13
7.23231e-13
8.20188e-13
7.08683e-13
6.14298e-13
5.35653e-13
4.70447e-13
4.16972e-13
3.71757e-13
2.11944e-13
1.12521e-12
1.0657e-12
1.18426e-12
1.0027e-12
8.53099e-13
7.31359e-13
6.31954e-13
5.50796e-13
4.82214e-13
2.60207e-13
1.61883e-12
1.65032e-12
1.71047e-12
1.40868e-12
1.16832e-12
9.7806e-13
8.26256e-13
7.04551e-13
6.03463e-13
3.13523e-13
2.43884e-12
2.5933e-12
2.47203e-12
1.96694e-12
1.58138e-12
1.28651e-12
1.05802e-12
8.79677e-13
7.35503e-13
3.70827e-13
3.82145e-12
4.09458e-12
3.58087e-12
2.73642e-12
2.12234e-12
1.67101e-12
1.33378e-12
1.07856e-12
8.78717e-13
4.31771e-13
5.97333e-11
6.27571e-12
5.05766e-12
3.71039e-12
2.7775e-12
2.12029e-12
1.6468e-12
1.29979e-12
1.03639e-12
5.06866e-13
1.10161e-07
6.5964e-10
4.74375e-10
3.60127e-10
2.78307e-10
2.18474e-10
1.73914e-10
1.40185e-10
1.14288e-10
9.41423e-11
3.87247e-13
3.61946e-13
1.72294e-13
1.5104e-13
1.30679e-13
1.11534e-13
9.3672e-14
7.73209e-14
6.28475e-14
3.66889e-14
5.33634e-13
4.6016e-13
3.86342e-13
3.35663e-13
2.8915e-13
2.47399e-13
2.10578e-13
1.79014e-13
1.53051e-13
7.94761e-14
5.96481e-13
4.88617e-13
5.24044e-13
4.5499e-13
3.94892e-13
3.4384e-13
3.01333e-13
2.67173e-13
2.39322e-13
1.19996e-13
7.28828e-13
6.33797e-13
7.61022e-13
6.56695e-13
5.68232e-13
4.94981e-13
4.34491e-13
3.85168e-13
3.43738e-13
1.71368e-13
9.55107e-13
9.42606e-13
1.10814e-12
9.40216e-13
8.01463e-13
6.88373e-13
5.96041e-13
5.20869e-13
4.57258e-13
2.25268e-13
1.33626e-12
1.48334e-12
1.61006e-12
1.33154e-12
1.10847e-12
9.31244e-13
7.89246e-13
6.75326e-13
5.80229e-13
2.82123e-13
1.96804e-12
2.36012e-12
2.33568e-12
1.86943e-12
1.51049e-12
1.23422e-12
1.01904e-12
8.50408e-13
7.13359e-13
3.42033e-13
3.01905e-12
3.75585e-12
3.39044e-12
2.61035e-12
2.03646e-12
1.6117e-12
1.29207e-12
1.0488e-12
8.57459e-13
4.05168e-13
6.31644e-11
6.07245e-12
4.93726e-12
3.63491e-12
2.72539e-12
2.08138e-12
1.6156e-12
1.27334e-12
1.01314e-12
4.7147e-13
1.131e-07
2.25137e-10
1.00104e-11
6.60719e-12
4.6495e-12
3.35799e-12
2.47928e-12
1.86591e-12
1.42447e-12
7.8753e-13
3.87365e-13
3.61728e-13
1.72736e-13
1.51399e-13
1.3096e-13
1.11731e-13
9.3943e-14
7.75767e-14
6.29495e-14
3.68176e-14
5.34265e-13
4.60569e-13
3.87282e-13
3.36478e-13
2.89869e-13
2.47935e-13
2.10995e-13
1.79439e-13
1.53384e-13
7.96681e-14
5.97795e-13
4.89935e-13
5.25782e-13
4.56409e-13
3.95956e-13
3.44782e-13
3.02099e-13
2.67701e-13
2.39648e-13
1.20256e-13
7.31601e-13
6.36783e-13
7.63788e-13
6.59037e-13
5.70047e-13
4.96416e-13
4.3568e-13
3.86071e-13
3.44404e-13
1.7165e-13
9.60387e-13
9.48176e-13
1.11292e-12
9.43949e-13
8.04463e-13
6.90803e-13
5.97881e-13
5.22242e-13
4.58307e-13
2.26013e-13
1.34616e-12
1.49306e-12
1.61795e-12
1.3378e-12
1.11332e-12
9.35108e-13
7.92344e-13
6.77728e-13
5.82133e-13
2.83386e-13
1.98632e-12
2.37734e-12
2.34932e-12
1.87984e-12
1.51856e-12
1.24056e-12
1.02398e-12
8.54214e-13
7.16482e-13
3.44206e-13
3.05251e-12
3.78674e-12
3.41377e-12
2.62782e-12
2.04969e-12
1.62185e-12
1.29995e-12
1.05488e-12
8.6219e-13
4.08538e-13
6.34987e-11
6.13456e-12
4.9795e-12
3.66504e-12
2.74729e-12
2.09757e-12
1.62778e-12
1.28266e-12
1.02041e-12
4.7635e-13
1.16703e-07
2.29936e-10
7.63271e-12
5.05351e-12
3.64457e-12
2.68757e-12
2.02056e-12
1.54607e-12
1.19672e-12
5.54558e-13
3.87468e-13
3.61395e-13
1.73334e-13
1.51908e-13
1.31336e-13
1.12076e-13
9.41518e-14
7.78329e-14
6.31998e-14
3.68666e-14
5.35093e-13
4.61073e-13
3.88567e-13
3.37576e-13
2.90799e-13
2.48689e-13
2.11584e-13
1.79862e-13
1.53814e-13
7.99965e-14
5.99636e-13
4.91763e-13
5.28074e-13
4.58338e-13
3.97568e-13
3.46025e-13
3.0308e-13
2.68374e-13
2.4017e-13
1.20647e-13
7.35408e-13
6.4092e-13
7.67571e-13
6.62119e-13
5.72625e-13
4.9835e-13
4.37118e-13
3.87279e-13
3.45207e-13
1.72233e-13
9.67899e-13
9.55797e-13
1.11922e-12
9.48972e-13
8.08426e-13
6.9405e-13
6.00432e-13
5.24212e-13
4.59836e-13
2.27057e-13
1.36048e-12
1.50667e-12
1.62873e-12
1.34621e-12
1.11986e-12
9.40285e-13
7.96453e-13
6.80896e-13
5.84709e-13
2.8519e-13
2.01314e-12
2.40124e-12
2.36775e-12
1.89395e-12
1.52937e-12
1.24903e-12
1.03063e-12
8.59387e-13
7.20557e-13
3.47091e-13
3.10297e-12
3.8297e-12
3.44577e-12
2.65141e-12
2.06742e-12
1.63534e-12
1.31037e-12
1.06301e-12
8.68479e-13
4.12873e-13
6.42646e-11
6.21331e-12
5.03508e-12
3.70453e-12
2.77598e-12
2.11888e-12
1.6438e-12
1.29485e-12
1.02978e-12
4.82825e-13
1.18993e-07
2.34099e-10
7.72529e-12
5.11389e-12
3.68737e-12
2.71849e-12
2.04342e-12
1.56333e-12
1.20984e-12
5.63357e-13
3.87524e-13
3.61069e-13
1.74014e-13
1.52538e-13
1.31908e-13
1.12557e-13
9.4554e-14
7.80651e-14
6.33826e-14
3.7092e-14
5.36109e-13
4.6176e-13
3.90146e-13
3.3888e-13
2.91947e-13
2.49711e-13
2.12445e-13
1.80517e-13
1.5411e-13
8.03078e-14
6.01913e-13
4.93982e-13
5.30821e-13
4.60651e-13
3.99489e-13
3.47607e-13
3.04233e-13
2.69275e-13
2.40825e-13
1.21066e-13
7.40091e-13
6.45934e-13
7.72174e-13
6.65848e-13
5.75683e-13
5.00836e-13
4.38968e-13
3.88658e-13
3.46388e-13
1.7303e-13
9.7716e-13
9.65144e-13
1.12687e-12
9.55064e-13
8.13267e-13
6.97991e-13
6.03561e-13
5.26623e-13
4.61701e-13
2.28455e-13
1.37812e-12
1.52308e-12
1.64174e-12
1.35643e-12
1.1279e-12
9.46662e-13
8.01538e-13
6.84884e-13
5.878e-13
2.87472e-13
2.04635e-12
2.43033e-12
2.3901e-12
1.91112e-12
1.54263e-12
1.2594e-12
1.03885e-12
8.65773e-13
7.25595e-13
3.50738e-13
3.16561e-12
3.88184e-12
3.48479e-12
2.68036e-12
2.08914e-12
1.65191e-12
1.32326e-12
1.07299e-12
8.76223e-13
4.18319e-13
6.70569e-11
6.31143e-12
5.10307e-12
3.75312e-12
2.81139e-12
2.14509e-12
1.66358e-12
1.30982e-12
1.04133e-12
4.90689e-13
1.32832e-07
2.48653e-10
7.85051e-12
5.19177e-12
3.74238e-12
2.75819e-12
2.07276e-12
1.58539e-12
1.22639e-12
5.74525e-13
3.87608e-13
3.6036e-13
1.74686e-13
1.53096e-13
1.3252e-13
1.13228e-13
9.53668e-14
8.02549e-14
9.06843e-14
2.26171e-13
5.37146e-13
4.62127e-13
3.9165e-13
3.40243e-13
2.9317e-13
2.50886e-13
2.13588e-13
1.82188e-13
1.60699e-13
1.67188e-13
6.04276e-13
4.95793e-13
5.33472e-13
4.62952e-13
4.01503e-13
3.49435e-13
3.06003e-13
2.70954e-13
2.44421e-13
1.58748e-13
7.45108e-13
6.50233e-13
7.76504e-13
6.69479e-13
5.78707e-13
5.03511e-13
4.41552e-13
3.91036e-13
3.49587e-13
1.92244e-13
9.86958e-13
9.73351e-13
1.13396e-12
9.60938e-13
8.18061e-13
7.01985e-13
6.07312e-13
5.30108e-13
4.65541e-13
2.41298e-13
1.39631e-12
1.53776e-12
1.65365e-12
1.36608e-12
1.13566e-12
9.53207e-13
8.07424e-13
6.90203e-13
5.92909e-13
2.98434e-13
2.07956e-12
2.45649e-12
2.4105e-12
1.92716e-12
1.55538e-12
1.26984e-12
1.04788e-12
8.73952e-13
7.32682e-13
3.61478e-13
3.22472e-12
3.92836e-12
3.51992e-12
2.7074e-12
2.11009e-12
1.66848e-12
1.33704e-12
1.08519e-12
8.86649e-13
4.30008e-13
6.2717e-11
6.37717e-12
5.16381e-12
3.79819e-12
2.84533e-12
2.17126e-12
1.68449e-12
1.32741e-12
1.05618e-12
5.04368e-13
1.34248e-07
2.09771e-10
7.84828e-12
5.26301e-12
3.79492e-12
2.79771e-12
2.10323e-12
1.61014e-12
1.24722e-12
5.91426e-13
3.86883e-13
3.96828e-13
2.0988e-13
1.60053e-13
1.43842e-13
2.52905e-13
4.80659e-13
1.66948e-12
7.29505e-12
2.48507e-11
5.39085e-13
5.26967e-13
4.31557e-13
3.54477e-13
2.92835e-13
3.11126e-13
4.52584e-13
1.13978e-12
4.23745e-12
1.57573e-11
6.09873e-13
6.08257e-13
5.91704e-13
4.90648e-13
4.03215e-13
3.68485e-13
4.86707e-13
8.59715e-13
2.673e-12
9.95505e-12
7.52554e-13
7.98372e-13
8.45028e-13
7.05341e-13
5.84854e-13
5.04605e-13
5.41054e-13
7.44587e-13
1.83358e-12
6.57318e-12
9.91372e-13
1.13393e-12
1.20438e-12
9.98745e-13
8.26322e-13
6.9614e-13
6.52985e-13
7.48085e-13
1.39024e-12
4.53613e-12
1.3868e-12
1.68645e-12
1.71499e-12
1.39728e-12
1.1401e-12
9.42056e-13
8.23042e-13
8.64856e-13
1.18104e-12
3.26319e-12
2.03577e-12
2.56872e-12
2.44721e-12
1.94047e-12
1.54799e-12
1.25037e-12
1.04446e-12
9.84257e-13
1.12798e-12
2.44353e-12
3.10309e-12
3.97106e-12
3.50937e-12
2.6871e-12
2.08048e-12
1.6349e-12
1.31873e-12
1.14875e-12
1.20301e-12
1.90764e-12
1.87009e-11
6.20886e-12
5.07262e-12
3.72327e-12
2.77996e-12
2.1154e-12
1.65102e-12
1.35823e-12
1.29766e-12
1.55881e-12
2.18915e-08
1.8711e-10
7.14377e-12
5.102e-12
3.6753e-12
2.70886e-12
2.049e-12
1.61393e-12
1.41513e-12
1.34334e-12
2.53701e-12
2.39662e-12
1.53701e-12
1.56602e-13
2.62777e-12
8.36019e-12
2.37315e-11
7.98319e-11
3.57768e-10
8.99792e-10
3.57219e-12
3.46603e-12
2.57611e-12
1.18414e-12
1.31234e-12
6.11776e-12
1.77949e-11
5.45046e-11
2.0954e-10
5.38523e-10
4.8389e-12
4.73096e-12
3.75784e-12
2.35106e-12
3.14179e-13
4.05168e-12
1.3076e-11
3.87213e-11
1.32826e-10
3.41805e-10
6.49572e-12
6.31087e-12
5.16213e-12
3.65331e-12
1.48965e-12
2.26026e-12
9.51465e-12
2.82243e-11
8.9367e-11
2.26691e-10
8.70307e-12
8.31823e-12
6.86039e-12
5.14018e-12
2.90583e-12
7.87621e-13
6.65793e-12
2.08031e-11
6.26886e-11
1.55902e-10
1.17006e-11
1.09123e-11
8.95113e-12
6.86666e-12
4.43538e-12
1.31097e-12
4.32161e-12
1.52706e-11
4.52925e-11
1.10516e-10
1.58569e-11
1.43329e-11
1.15694e-11
8.90848e-12
6.12582e-12
2.84404e-12
2.3797e-12
1.12065e-11
3.3377e-11
8.0339e-11
2.17659e-11
1.89291e-11
1.49032e-11
1.13668e-11
8.025e-12
4.47298e-12
1.17444e-12
8.02292e-12
2.48181e-11
5.96213e-11
5.53533e-11
2.52349e-11
1.92269e-11
1.43725e-11
1.02001e-11
6.20437e-12
1.96243e-12
5.46778e-12
1.86163e-11
4.49861e-11
3.38913e-07
4.04393e-10
2.49095e-11
1.80843e-11
1.27162e-11
8.05887e-12
3.4726e-12
3.43546e-12
1.39875e-11
3.43543e-11
3.4295e-12
3.08378e-12
2.03894e-12
1.92662e-12
8.26524e-12
2.79148e-11
1.03441e-10
5.22462e-10
1.74826e-09
2.24564e-09
4.54922e-12
4.23783e-12
3.23767e-12
1.68388e-12
5.17493e-12
1.94226e-11
6.82488e-11
2.97205e-10
9.86751e-10
1.21696e-09
5.91359e-12
5.57713e-12
4.58763e-12
2.83738e-12
2.79002e-12
1.30583e-11
4.63024e-11
1.82576e-10
5.92561e-10
7.10621e-10
7.66365e-12
7.20092e-12
6.12105e-12
4.3809e-12
1.98525e-12
8.33459e-12
3.18547e-11
1.18481e-10
3.7326e-10
4.3855e-10
9.96468e-12
9.22217e-12
7.9117e-12
6.09227e-12
3.24503e-12
4.76599e-12
2.18254e-11
7.9744e-11
2.44485e-10
2.82956e-10
1.30643e-11
1.17994e-11
1.00605e-11
8.00028e-12
5.09732e-12
2.50485e-12
1.45178e-11
5.47888e-11
1.65343e-10
1.89253e-10
1.734e-11
1.51619e-11
1.27052e-11
1.01846e-11
7.11049e-12
2.87164e-12
9.17807e-12
3.80393e-11
1.14502e-10
1.30314e-10
2.33894e-11
1.96477e-11
1.60359e-11
1.27507e-11
9.28261e-12
4.81291e-12
5.18098e-12
2.63059e-11
8.07052e-11
9.19102e-11
6.25408e-11
2.57326e-11
2.03193e-11
1.58396e-11
1.16871e-11
7.00778e-12
2.70712e-12
1.79158e-11
5.76266e-11
6.5905e-11
6.1459e-08
3.13045e-09
2.64263e-11
1.96126e-11
1.43978e-11
9.27377e-12
3.17707e-12
1.17321e-11
4.14251e-11
4.77255e-11
1.00821e-12
1.26234e-12
1.53773e-12
3.2464e-12
8.63612e-12
2.56047e-11
8.90446e-11
3.28942e-10
5.94591e-10
2.33248e-10
1.08781e-12
1.25811e-12
1.39765e-12
2.45187e-12
6.12121e-12
1.77441e-11
5.86788e-11
2.0263e-10
3.39274e-10
1.82475e-10
1.1705e-12
1.29273e-12
1.38185e-12
1.97432e-12
4.37565e-12
1.24041e-11
3.96361e-11
1.29593e-10
2.03042e-10
1.27873e-10
1.25388e-12
1.35373e-12
1.44248e-12
1.77287e-12
3.22101e-12
8.72957e-12
2.72712e-11
8.55617e-11
1.26203e-10
8.91487e-11
1.34062e-12
1.42984e-12
1.53715e-12
1.74787e-12
2.52915e-12
6.20412e-12
1.90499e-11
5.79593e-11
8.09057e-11
6.334e-11
1.43449e-12
1.51749e-12
1.64398e-12
1.81207e-12
2.1957e-12
4.48697e-12
1.34124e-11
4.01564e-11
5.31883e-11
4.62552e-11
1.53978e-12
1.61514e-12
1.75508e-12
1.91419e-12
2.10172e-12
3.37751e-12
9.49538e-12
2.8164e-11
3.57007e-11
3.47809e-11
1.66495e-12
1.72453e-12
1.86994e-12
2.02785e-12
2.13517e-12
2.74272e-12
6.79808e-12
1.99834e-11
2.44095e-11
2.68963e-11
1.58202e-10
2.18749e-12
1.98933e-12
2.14603e-12
2.22638e-12
2.45255e-12
4.95865e-12
1.43165e-11
1.68303e-11
2.13479e-11
1.06295e-07
2.96898e-09
3.81335e-12
2.25803e-12
2.33293e-12
2.37148e-12
3.73808e-12
1.03273e-11
1.16016e-11
1.72485e-11
7.93267e-13
1.50573e-12
1.60957e-12
2.52052e-12
4.15319e-12
7.21218e-12
1.49142e-11
5.28048e-11
2.84688e-10
8.7856e-10
7.28058e-13
1.35275e-12
1.39593e-12
2.15182e-12
3.4893e-12
5.9419e-12
1.13876e-11
3.29821e-11
1.7134e-10
4.8017e-10
6.65244e-13
1.20958e-12
1.20214e-12
1.82808e-12
2.92538e-12
4.89352e-12
8.92655e-12
2.20189e-11
1.07258e-10
2.81272e-10
6.11549e-13
1.08774e-12
1.04116e-12
1.56417e-12
2.46867e-12
4.069e-12
7.16617e-12
1.56502e-11
6.95226e-11
1.73872e-10
5.65447e-13
9.83523e-13
9.06255e-13
1.34391e-12
2.0965e-12
3.41469e-12
5.851e-12
1.16982e-11
4.6397e-11
1.12128e-10
5.25825e-13
8.9442e-13
7.92932e-13
1.1627e-12
1.79416e-12
2.88368e-12
4.84282e-12
9.07977e-12
3.17532e-11
7.48365e-11
4.91588e-13
8.17435e-13
6.97449e-13
1.01098e-12
1.54148e-12
2.4499e-12
4.05669e-12
7.24593e-12
2.22187e-11
5.13871e-11
4.66993e-13
7.50645e-13
6.16703e-13
8.82748e-13
1.33227e-12
2.09622e-12
3.42699e-12
5.91086e-12
1.58533e-11
3.61429e-11
2.64883e-10
3.36894e-12
5.47244e-13
7.74898e-13
1.15799e-12
1.80405e-12
2.91487e-12
4.90182e-12
1.15159e-11
2.59524e-11
1.0541e-07
1.01109e-08
2.1064e-11
6.09199e-13
1.00582e-12
1.55326e-12
2.48619e-12
4.10416e-12
8.48616e-12
1.8956e-11
1.06886e-12
1.86152e-12
1.61711e-12
2.1752e-12
3.03116e-12
4.3976e-12
7.01062e-12
1.38869e-11
5.34941e-11
1.35381e-10
9.95516e-13
1.70692e-12
1.44983e-12
1.93912e-12
2.67964e-12
3.82724e-12
5.83457e-12
1.05556e-11
3.8041e-11
8.58878e-11
9.24082e-13
1.55831e-12
1.2886e-12
1.71372e-12
2.35354e-12
3.32803e-12
4.92254e-12
8.23388e-12
2.70645e-11
5.71629e-11
8.61909e-13
1.42902e-12
1.15011e-12
1.51928e-12
2.07541e-12
2.91061e-12
4.22374e-12
6.65248e-12
1.94376e-11
3.94841e-11
8.07912e-13
1.31618e-12
1.03098e-12
1.35237e-12
1.83867e-12
2.56088e-12
3.66809e-12
5.53534e-12
1.41009e-11
2.80384e-11
7.60735e-13
1.21732e-12
9.27939e-13
1.20878e-12
1.63329e-12
2.26242e-12
3.21456e-12
4.7105e-12
1.03299e-11
2.03399e-11
7.19251e-13
1.13021e-12
8.3873e-13
1.0843e-12
1.45625e-12
2.00795e-12
2.83354e-12
4.07305e-12
7.63404e-12
1.50086e-11
6.88917e-13
1.05305e-12
7.61203e-13
9.76119e-13
1.30265e-12
1.78716e-12
2.50784e-12
3.56139e-12
5.6914e-12
1.12337e-11
3.97538e-10
5.95627e-12
6.94369e-13
8.81958e-13
1.16912e-12
1.59524e-12
2.2298e-12
3.13739e-12
4.27932e-12
8.5001e-12
1.29639e-07
1.78931e-08
5.17642e-11
7.61052e-13
1.04702e-12
1.42479e-12
1.98372e-12
2.7712e-12
3.22805e-12
6.47587e-12
1.48742e-12
2.35739e-12
1.62742e-12
1.90415e-12
2.28555e-12
2.83119e-12
3.8079e-12
5.98907e-12
1.63248e-11
2.43025e-11
1.40682e-12
2.20584e-12
1.51103e-12
1.77079e-12
2.12439e-12
2.60512e-12
3.36893e-12
4.9011e-12
1.25449e-11
1.87264e-11
1.32658e-12
2.05546e-12
1.38854e-12
1.62876e-12
1.95528e-12
2.3865e-12
3.0157e-12
4.12376e-12
9.51948e-12
1.44232e-11
1.25564e-12
1.92094e-12
1.27783e-12
1.49903e-12
1.80059e-12
2.19392e-12
2.73688e-12
3.5783e-12
7.23118e-12
1.1197e-11
1.19289e-12
1.80049e-12
1.17853e-12
1.38128e-12
1.66014e-12
2.0215e-12
2.5061e-12
3.18118e-12
5.49707e-12
8.73964e-12
1.1371e-12
1.69214e-12
1.08954e-12
1.27515e-12
1.53154e-12
1.86545e-12
2.30487e-12
2.87595e-12
4.17893e-12
6.85036e-12
1.08743e-12
1.59472e-12
1.00965e-12
1.179e-12
1.4144e-12
1.72299e-12
2.12836e-12
2.62701e-12
3.1763e-12
5.38383e-12
1.04973e-12
1.50664e-12
9.37888e-13
1.09201e-12
1.30792e-12
1.59296e-12
1.96824e-12
2.41721e-12
2.41049e-12
4.23864e-12
5.30223e-10
8.81513e-12
8.75362e-13
1.0132e-12
1.2109e-12
1.47394e-12
1.82192e-12
2.23278e-12
1.82455e-12
3.34013e-12
1.04733e-07
2.48638e-08
8.23326e-11
9.77469e-13
1.11655e-12
1.36196e-12
1.68269e-12
2.06109e-12
1.36574e-12
2.62298e-12
2.10636e-12
2.99657e-12
1.58088e-12
1.60541e-12
1.66714e-12
1.799e-12
2.14803e-12
2.97076e-12
6.77186e-12
8.36913e-12
2.02047e-12
2.85772e-12
1.52241e-12
1.56296e-12
1.63362e-12
1.74572e-12
1.99192e-12
2.55358e-12
5.48745e-12
6.98703e-12
1.93441e-12
2.7152e-12
1.44711e-12
1.49989e-12
1.58001e-12
1.68581e-12
1.87305e-12
2.25414e-12
4.33677e-12
5.73056e-12
1.85662e-12
2.58368e-12
1.37359e-12
1.43456e-12
1.52217e-12
1.62841e-12
1.78557e-12
2.05275e-12
3.41072e-12
4.69897e-12
1.78635e-12
2.46246e-12
1.30298e-12
1.36965e-12
1.46284e-12
1.57177e-12
1.71475e-12
1.91521e-12
2.66426e-12
3.85242e-12
1.72275e-12
2.35085e-12
1.23633e-12
1.30571e-12
1.40236e-12
1.51474e-12
1.65346e-12
1.81515e-12
2.0622e-12
3.15303e-12
1.66509e-12
2.24804e-12
1.17344e-12
1.24382e-12
1.34192e-12
1.45684e-12
1.59535e-12
1.73692e-12
1.57375e-12
2.57413e-12
1.61942e-12
2.15324e-12
1.11446e-12
1.18459e-12
1.28286e-12
1.39874e-12
1.5376e-12
1.67063e-12
1.17929e-12
2.09383e-12
6.64739e-10
1.15102e-11
1.06211e-12
1.12797e-12
1.22532e-12
1.34131e-12
1.48046e-12
1.61075e-12
8.61984e-13
1.69503e-12
3.14876e-08
2.87199e-08
1.86888e-10
9.73995e-13
1.16301e-12
1.28216e-12
1.4194e-12
1.54836e-12
5.95745e-13
1.36124e-12
2.96149e-12
3.73161e-12
1.40435e-12
1.21478e-12
1.06841e-12
1.00309e-12
1.13694e-12
1.54575e-12
3.41038e-12
3.79988e-12
2.87571e-12
3.62047e-12
1.4061e-12
1.24925e-12
1.12142e-12
1.03665e-12
1.07981e-12
1.3415e-12
2.92468e-12
3.37473e-12
2.78929e-12
3.50192e-12
1.38526e-12
1.25854e-12
1.15249e-12
1.06661e-12
1.05683e-12
1.19974e-12
2.4103e-12
2.90253e-12
2.7095e-12
3.38852e-12
1.35691e-12
1.25557e-12
1.17056e-12
1.09297e-12
1.0575e-12
1.11651e-12
1.96918e-12
2.49165e-12
2.63577e-12
3.28076e-12
1.32451e-12
1.24464e-12
1.17875e-12
1.11344e-12
1.06929e-12
1.0762e-12
1.59127e-12
2.13418e-12
2.56778e-12
3.17859e-12
1.28922e-12
1.2274e-12
1.17857e-12
1.12712e-12
1.08469e-12
1.06233e-12
1.26674e-12
1.82301e-12
2.50506e-12
3.08212e-12
1.2524e-12
1.20578e-12
1.1719e-12
1.13412e-12
1.09908e-12
1.06275e-12
9.89251e-13
1.55243e-12
2.45392e-12
2.99117e-12
1.21506e-12
1.18123e-12
1.16002e-12
1.13487e-12
1.10937e-12
1.06985e-12
7.52128e-13
1.31837e-12
8.08184e-10
1.34763e-11
1.1815e-12
1.15457e-12
1.14432e-12
1.13052e-12
1.11492e-12
1.07891e-12
5.50718e-13
1.11719e-12
5.29588e-08
2.74279e-08
1.82766e-10
1.05171e-12
1.12012e-12
1.11975e-12
1.11315e-12
1.08332e-12
3.74406e-13
9.48004e-13
4.00708e-12
4.45414e-12
1.07937e-12
7.60323e-13
4.95121e-13
3.49104e-13
4.86313e-13
7.95073e-13
2.06116e-12
2.08432e-12
3.92754e-12
4.38422e-12
1.12546e-12
8.42635e-13
6.00594e-13
4.19576e-13
4.30204e-13
6.52244e-13
1.89419e-12
1.97426e-12
3.84861e-12
4.30712e-12
1.149e-12
9.01014e-13
6.84712e-13
4.99276e-13
4.26642e-13
5.45914e-13
1.6496e-12
1.77908e-12
3.77397e-12
4.22914e-12
1.16088e-12
9.43713e-13
7.51521e-13
5.74065e-13
4.59266e-13
4.82739e-13
1.43131e-12
1.60259e-12
3.70338e-12
4.15203e-12
1.16459e-12
9.74649e-13
8.05247e-13
6.40651e-13
5.09423e-13
4.62313e-13
1.23691e-12
1.44295e-12
3.63744e-12
4.07631e-12
1.16168e-12
9.96377e-13
8.48164e-13
6.98659e-13
5.64777e-13
4.74696e-13
1.06525e-12
1.29953e-12
3.57545e-12
4.00242e-12
1.15387e-12
1.01051e-12
8.81342e-13
7.47649e-13
6.1898e-13
5.07006e-13
9.15483e-13
1.17173e-12
3.52367e-12
3.93102e-12
1.14241e-12
1.01854e-12
9.06808e-13
7.88438e-13
6.6881e-13
5.4914e-13
7.86632e-13
1.05851e-12
9.41336e-10
1.44545e-11
1.13278e-12
1.02156e-12
9.26178e-13
8.22135e-13
7.12832e-13
5.94246e-13
6.78839e-13
9.59687e-13
1.45608e-07
1.99953e-08
1.68501e-10
1.13057e-12
9.36575e-13
8.47774e-13
7.49884e-13
6.35831e-13
5.91571e-13
8.79377e-13
5.04181e-12
5.01945e-12
7.43073e-13
4.9881e-13
2.72012e-13
1.53144e-13
2.67567e-13
4.57643e-13
1.48209e-12
1.3415e-12
4.97233e-12
4.99483e-12
7.71135e-13
5.36366e-13
3.10721e-13
1.2464e-13
1.64202e-13
3.53629e-13
1.47278e-12
1.36309e-12
4.90563e-12
4.96589e-12
7.91501e-13
5.72611e-13
3.60317e-13
1.62017e-13
7.69298e-14
2.55265e-13
1.3661e-12
1.28851e-12
4.84101e-12
4.93197e-12
8.07982e-13
6.05735e-13
4.1003e-13
2.1997e-13
4.50224e-14
1.64907e-13
1.26904e-12
1.21957e-12
4.77935e-12
4.89525e-12
8.21076e-13
6.35949e-13
4.57156e-13
2.8031e-13
1.07874e-13
8.63617e-14
1.18039e-12
1.15563e-12
4.72028e-12
4.85626e-12
8.30788e-13
6.62161e-13
4.99978e-13
3.3698e-13
1.75933e-13
4.61229e-14
1.10008e-12
1.09707e-12
4.66406e-12
4.81613e-12
8.37425e-13
6.84555e-13
5.38163e-13
3.88947e-13
2.38839e-13
8.92791e-14
1.02835e-12
1.04355e-12
4.61684e-12
4.7758e-12
8.40947e-13
7.03015e-13
5.71527e-13
4.35356e-13
2.95945e-13
1.49872e-13
9.64512e-13
9.95223e-13
1.04481e-09
1.451e-11
8.48228e-13
7.18239e-13
6.00609e-13
4.76678e-13
3.48085e-13
2.08682e-13
9.08747e-13
9.51562e-13
2.29765e-07
1.00169e-08
1.09666e-10
9.04094e-13
6.24907e-13
5.1328e-13
3.95152e-13
2.64151e-13
8.60742e-13
9.21469e-13
5.71806e-12
5.31295e-12
6.29117e-13
6.0749e-13
5.10762e-13
4.41575e-13
4.00488e-13
3.98998e-13
1.24218e-12
1.02865e-12
5.6557e-12
5.31846e-12
5.61562e-13
5.46932e-13
4.58171e-13
3.93731e-13
3.55071e-13
3.58532e-13
1.30664e-12
1.10721e-12
5.59823e-12
5.32344e-12
5.02477e-13
4.92725e-13
4.10955e-13
3.49285e-13
3.12078e-13
3.16494e-13
1.26449e-12
1.08436e-12
5.54213e-12
5.32212e-12
4.55281e-13
4.4711e-13
3.70747e-13
3.11382e-13
2.73735e-13
2.77827e-13
1.22432e-12
1.06191e-12
5.48775e-12
5.31595e-12
4.19269e-13
4.10532e-13
3.39123e-13
2.80589e-13
2.40737e-13
2.42387e-13
1.18613e-12
1.04088e-12
5.43574e-12
5.30636e-12
3.93257e-13
3.81775e-13
3.14257e-13
2.5614e-13
2.13573e-13
2.11379e-13
1.14986e-12
1.02045e-12
5.38547e-12
5.29374e-12
3.7467e-13
3.59637e-13
2.96117e-13
2.38783e-13
1.93276e-13
1.84297e-13
1.1154e-12
1.00146e-12
5.34345e-12
5.27924e-12
3.62285e-13
3.43079e-13
2.83704e-13
2.27297e-13
1.78673e-13
1.62572e-13
1.0829e-12
9.82823e-13
1.10116e-09
1.40645e-11
3.66081e-13
3.31414e-13
2.76013e-13
2.21572e-13
1.71472e-13
1.46982e-13
1.05156e-12
9.65043e-13
2.8169e-07
7.08831e-09
7.85341e-11
4.41284e-13
2.73458e-13
2.2363e-13
1.7484e-13
1.45299e-13
1.02313e-12
9.75715e-13
5.72413e-12
5.28359e-12
6.34839e-13
6.33171e-13
5.404e-13
4.6639e-13
4.12051e-13
3.91821e-13
1.17283e-12
9.81732e-13
5.66157e-12
5.29138e-12
5.51132e-13
5.6368e-13
4.83813e-13
4.19164e-13
3.71741e-13
3.59245e-13
1.24731e-12
1.06419e-12
5.60435e-12
5.29925e-12
4.76276e-13
4.99713e-13
4.30722e-13
3.73678e-13
3.31708e-13
3.22777e-13
1.2131e-12
1.04485e-12
5.54857e-12
5.30063e-12
4.13244e-13
4.43309e-13
3.83318e-13
3.32744e-13
2.9503e-13
2.89143e-13
1.18036e-12
1.02603e-12
5.49488e-12
5.29732e-12
3.62384e-13
3.95567e-13
3.42716e-13
2.96665e-13
2.62012e-13
2.57867e-13
1.14888e-12
1.00825e-12
5.44318e-12
5.29032e-12
3.22674e-13
3.55551e-13
3.08361e-13
2.65927e-13
2.32844e-13
2.29043e-13
1.11896e-12
9.9141e-13
5.39328e-12
5.28007e-12
2.92981e-13
3.22385e-13
2.79829e-13
2.40082e-13
2.07873e-13
2.03236e-13
1.09014e-12
9.75367e-13
5.35173e-12
5.26797e-12
2.72369e-13
2.95813e-13
2.56898e-13
2.19165e-13
1.86805e-13
1.80516e-13
1.0628e-12
9.59972e-13
1.10116e-09
1.40616e-11
2.73683e-13
2.75052e-13
2.3927e-13
2.03498e-13
1.71195e-13
1.61613e-13
1.03625e-12
9.4524e-13
2.8169e-07
7.08831e-09
7.85122e-11
3.71364e-13
2.27631e-13
1.96326e-13
1.65707e-13
1.54019e-13
1.01187e-12
9.6907e-13
5.05106e-12
4.93953e-12
6.96484e-13
5.14921e-13
3.33198e-13
2.28396e-13
2.62722e-13
3.94882e-13
1.24339e-12
1.1873e-12
4.98329e-12
4.92328e-12
7.01469e-13
5.21517e-13
3.35847e-13
1.94747e-13
1.8281e-13
3.10336e-13
1.26728e-12
1.22078e-12
4.91861e-12
4.90327e-12
7.08335e-13
5.36061e-13
3.56479e-13
1.97693e-13
1.18832e-13
2.25783e-13
1.18952e-12
1.15893e-12
4.85612e-12
4.87781e-12
7.16521e-13
5.53858e-13
3.8492e-13
2.24437e-13
9.02179e-14
1.47145e-13
1.11852e-12
1.10191e-12
4.79637e-12
4.84932e-12
7.25367e-13
5.73511e-13
4.17063e-13
2.63394e-13
1.14361e-13
7.66799e-14
1.05379e-12
1.04974e-12
4.73903e-12
4.81803e-12
7.33641e-13
5.93116e-13
4.49755e-13
3.0592e-13
1.61483e-13
3.25561e-14
9.95752e-13
1.00261e-12
4.68442e-12
4.78505e-12
7.40485e-13
6.11296e-13
4.80956e-13
3.4794e-13
2.12362e-13
7.0785e-14
9.44014e-13
9.60143e-13
4.63875e-12
4.7511e-12
7.4573e-13
6.27643e-13
5.09792e-13
3.87486e-13
2.61398e-13
1.26048e-13
8.98228e-13
9.22103e-13
1.04481e-09
1.45057e-11
7.55284e-13
6.41962e-13
5.35968e-13
4.24296e-13
3.07569e-13
1.79686e-13
8.58599e-13
8.88863e-13
2.29765e-07
1.00169e-08
1.09625e-10
8.23029e-13
5.58667e-13
4.57726e-13
3.50505e-13
2.31375e-13
8.25065e-13
8.79052e-13
4.01252e-12
4.3524e-12
9.51744e-13
6.54712e-13
3.94529e-13
2.17214e-13
3.3373e-13
6.08831e-13
1.53393e-12
1.7507e-12
3.93896e-12
4.29883e-12
1.00024e-12
7.33376e-13
4.98225e-13
3.06278e-13
2.92292e-13
4.93665e-13
1.44383e-12
1.67345e-12
3.86563e-12
4.2366e-12
1.03038e-12
7.93932e-13
5.83846e-13
3.96869e-13
3.05062e-13
4.05865e-13
1.26653e-12
1.51064e-12
3.7952e-12
4.17206e-12
1.04977e-12
8.40259e-13
6.53021e-13
4.77302e-13
3.51714e-13
3.57616e-13
1.10728e-12
1.36329e-12
3.72863e-12
4.10695e-12
1.06157e-12
8.76563e-13
7.10138e-13
5.47933e-13
4.1179e-13
3.50918e-13
9.65591e-13
1.23076e-12
3.66563e-12
4.04191e-12
1.06678e-12
9.03715e-13
7.56798e-13
6.094e-13
4.7396e-13
3.74937e-13
8.41336e-13
1.1126e-12
3.60629e-12
3.97768e-12
1.067e-12
9.23712e-13
7.94482e-13
6.61793e-13
5.32545e-13
4.1654e-13
7.33949e-13
1.00825e-12
3.55669e-12
3.91483e-12
1.06278e-12
9.3764e-13
8.24776e-13
7.06221e-13
5.8604e-13
4.64973e-13
6.44226e-13
9.16969e-13
9.41339e-10
1.44554e-11
1.05982e-12
9.46865e-13
8.48835e-13
7.43671e-13
6.33636e-13
5.14521e-13
5.71904e-13
8.38852e-13
1.45608e-07
1.99953e-08
1.68471e-10
1.06418e-12
8.64452e-13
7.73303e-13
6.73918e-13
5.60024e-13
5.1724e-13
7.82112e-13
2.96871e-12
3.64089e-12
1.24519e-12
1.03717e-12
8.77251e-13
7.89104e-13
8.65145e-13
1.16173e-12
2.25835e-12
3.03868e-12
2.89258e-12
3.55218e-12
1.26825e-12
1.09095e-12
9.47835e-13
8.45796e-13
8.50529e-13
1.03203e-12
1.97203e-12
2.72152e-12
2.81348e-12
3.45238e-12
1.26706e-12
1.11887e-12
9.96583e-13
8.95581e-13
8.58429e-13
9.45192e-13
1.62711e-12
2.34211e-12
2.73927e-12
3.35481e-12
1.25629e-12
1.13306e-12
1.03059e-12
9.38202e-13
8.81541e-13
9.02465e-13
1.32515e-12
2.01042e-12
2.66976e-12
3.2601e-12
1.23901e-12
1.13774e-12
1.05351e-12
9.73028e-13
9.11563e-13
8.90916e-13
1.06357e-12
1.72079e-12
2.60502e-12
3.16915e-12
1.21724e-12
1.13467e-12
1.0673e-12
1e-12
9.41799e-13
8.98344e-13
8.36653e-13
1.4683e-12
2.54474e-12
3.08183e-12
1.19224e-12
1.12591e-12
1.0733e-12
1.01897e-12
9.68337e-13
9.15383e-13
6.40127e-13
1.2494e-12
2.49529e-12
2.99879e-12
1.1651e-12
1.11273e-12
1.07337e-12
1.03129e-12
9.8966e-13
9.35877e-13
4.70476e-13
1.06076e-12
8.08188e-10
1.34833e-11
1.14006e-12
1.09639e-12
1.06839e-12
1.03775e-12
1.006e-12
9.56241e-13
3.26907e-13
8.99881e-13
5.29588e-08
2.74279e-08
1.82746e-10
1.0076e-12
1.05433e-12
1.0372e-12
1.01421e-12
9.70899e-13
1.99138e-13
7.67459e-13
2.12626e-12
2.93828e-12
1.42523e-12
1.38712e-12
1.38892e-12
1.44652e-12
1.64831e-12
2.13915e-12
3.91888e-12
6.25488e-12
2.04979e-12
2.82403e-12
1.3996e-12
1.38218e-12
1.39656e-12
1.44548e-12
1.58617e-12
1.91955e-12
3.24871e-12
5.27496e-12
1.96974e-12
2.69988e-12
1.3519e-12
1.35162e-12
1.37863e-12
1.42829e-12
1.53534e-12
1.75962e-12
2.59042e-12
4.34129e-12
1.89598e-12
2.58281e-12
1.30082e-12
1.31388e-12
1.3519e-12
1.4067e-12
1.49905e-12
1.65455e-12
2.04905e-12
3.56836e-12
1.82863e-12
2.47308e-12
1.24865e-12
1.27225e-12
1.31965e-12
1.38067e-12
1.46909e-12
1.58519e-12
1.60604e-12
2.92804e-12