/*--------------------------------*- C++ -*----------------------------------*\
| =========                 |                                                 |
| \\      /  F ield         | OpenFOAM: The Open Source CFD Toolbox           |
|  \\    /   O peration     | Version:  4.1                                   |
|   \\  /    A nd           | Web:      www.OpenFOAM.org                      |
|    \\/     M anipulation  |                                                 |
\*---------------------------------------------------------------------------*/
FoamFile
{
    version     2.0;
    format      ascii;
    class       surfaceScalarField;
    location    "0.26";
    object      phi;
}
// * * * * * * * * * * * * * * * * * * * * * * * * * * * * * * * * * * * * * //

dimensions      [1 0 -1 0 0 0 0];

internalField   nonuniform List<scalar> 
51500
(
3.69422e-13
1.02512e-14
1.54042e-11
-1.97359e-15
1.78458e-14
1.52255e-11
-2.15259e-15
1.70478e-14
1.5049e-11
-2.16413e-15
1.60979e-14
1.48746e-11
-2.11532e-15
1.50708e-14
1.47026e-11
-2.0903e-15
1.39907e-14
1.45328e-11
-2.10361e-15
1.28799e-14
1.43652e-11
-2.07676e-15
1.17553e-14
1.42001e-11
-2.04448e-15
1.06057e-14
1.40375e-11
9.43974e-15
1.38787e-11
-7.26415e-17
3.74882e-13
7.48139e-15
1.94001e-11
-9.57473e-15
9.33767e-15
1.8696e-11
-8.16165e-15
8.1694e-15
1.80213e-11
-8.00215e-15
7.14104e-15
1.73752e-11
-7.78106e-15
6.12593e-15
1.67575e-11
-7.56753e-15
4.90383e-15
1.61663e-11
-7.3614e-15
3.75201e-15
1.56005e-11
-7.1757e-15
2.67831e-15
1.50587e-11
-6.86823e-15
1.66676e-15
1.45394e-11
7.24277e-16
1.40473e-11
-7.4398e-16
3.7811e-13
9.42829e-15
2.47493e-11
-1.9705e-14
9.79252e-15
2.31934e-11
-1.59842e-14
8.13377e-15
2.17515e-11
-1.52706e-14
6.64209e-15
2.04158e-11
-1.45571e-14
5.30256e-15
1.91791e-11
-1.39429e-14
4.09709e-15
1.80329e-11
-1.33143e-14
3.01758e-15
1.69702e-11
-1.27727e-14
2.04367e-15
1.59831e-11
-1.19875e-14
1.17783e-15
1.50658e-11
4.31664e-16
1.42189e-11
-1.42269e-15
3.77656e-13
1.21219e-14
3.20244e-11
-3.34262e-14
1.18054e-14
2.90912e-11
-2.60422e-14
9.5628e-15
2.64754e-11
-2.4337e-14
7.6133e-15
2.41355e-11
-2.27416e-14
5.93841e-15
2.20449e-11
-2.12992e-14
4.49346e-15
2.01723e-11
-1.99742e-14
3.24525e-15
1.8491e-11
-1.87609e-14
2.15788e-15
1.69786e-11
-1.72996e-14
1.21782e-15
1.56154e-11
4.28135e-16
1.43934e-11
-2.17014e-15
3.70333e-13
1.58813e-14
4.20917e-11
-5.1931e-14
1.44462e-14
3.69314e-11
-3.92019e-14
1.13463e-14
3.25167e-11
-3.56907e-14
8.79054e-15
2.8721e-11
-3.25662e-14
6.68712e-15
2.54545e-11
-2.98186e-14
4.94597e-15
2.26317e-11
-2.74274e-14
3.49003e-15
2.01831e-11
-2.52685e-14
2.27762e-15
1.80522e-11
-2.28908e-14
1.26512e-15
1.61904e-11
4.47081e-16
1.45718e-11
-2.92821e-15
3.50911e-13
2.07963e-14
5.62915e-11
-8.71616e-14
1.79763e-14
4.75102e-11
-5.64734e-14
1.36403e-14
4.03311e-11
-4.99708e-14
1.02319e-14
3.44183e-11
-4.44309e-14
7.56835e-15
2.95329e-11
-3.97723e-14
5.45104e-15
2.54691e-11
-3.57578e-14
3.76464e-15
2.20698e-11
-3.22916e-14
2.40573e-15
1.92106e-11
-2.87205e-14
1.31113e-15
1.67922e-11
4.47626e-16
1.47526e-11
-3.75372e-15
3.09011e-13
3.84538e-14
7.67487e-11
-1.46987e-13
3.78067e-14
6.20209e-11
-7.95563e-14
2.68855e-14
5.05578e-11
-6.81047e-14
1.69599e-14
4.15591e-11
-5.88885e-14
1.08441e-14
3.444e-11
-5.13316e-14
7.69946e-15
2.87551e-11
-4.51151e-14
5.27721e-15
2.41775e-11
-3.99049e-14
3.40597e-15
2.04618e-11
-3.48605e-14
1.94019e-15
1.74225e-11
7.80518e-16
1.49366e-11
-4.59095e-15
2.34864e-13
-3.16186e-14
1.0694e-10
-2.19585e-13
-3.89666e-14
8.22739e-11
-1.10551e-13
-4.95402e-14
6.41169e-11
-9.12756e-14
-5.66852e-14
5.05872e-11
-7.64288e-14
-6.16337e-14
4.03789e-11
-6.48323e-14
-6.5104e-14
3.2575e-11
-5.55528e-14
-6.7559e-14
2.65378e-11
-4.80684e-14
-6.93239e-14
2.18154e-11
-4.11813e-14
-7.06051e-14
1.80825e-11
-7.20972e-14
1.51248e-11
-5.49213e-15
1.54425e-12
-3.54713e-10
1.53746e-10
9.98492e-13
-3.67295e-10
1.11881e-10
9.04744e-13
-3.67716e-10
8.34961e-11
8.21194e-13
-3.67929e-10
6.36462e-11
7.4664e-13
-3.68033e-10
4.95396e-11
6.80499e-13
-3.6806e-10
3.93502e-11
6.21909e-13
-3.68034e-10
3.18865e-11
5.69998e-13
-3.67971e-10
2.63517e-11
5.22392e-13
-3.67887e-10
2.2201e-11
-3.70596e-10
1.91112e-11
-6.42845e-15
-4.22578e-11
6.46974e-08
-8.92429e-07
1.46716e-10
5.41545e-08
-9.38377e-07
1.43444e-10
4.68867e-08
-9.40045e-07
1.38305e-10
4.09708e-08
-9.41411e-07
1.33112e-10
3.60929e-08
-9.4258e-07
1.28009e-10
3.20268e-08
-9.43594e-07
1.23083e-10
2.86039e-08
-9.44483e-07
1.18325e-10
2.56968e-08
-9.4527e-07
9.16525e-11
2.32085e-08
-9.45987e-07
2.12173e-08
-7.40879e-15
-9.61698e-07
3.44077e-13
9.32648e-14
2.73061e-13
-2.05732e-14
8.76947e-14
2.68072e-13
-2.6054e-14
7.72084e-14
2.63515e-13
-2.55316e-14
6.70594e-14
2.57829e-13
-2.52434e-14
5.72598e-14
2.52755e-13
-2.50083e-14
4.77909e-14
2.48336e-13
-2.4835e-14
3.86443e-14
2.43258e-13
-2.46321e-14
2.98135e-14
2.38996e-13
-2.67825e-14
2.12598e-14
2.34691e-13
1.30729e-14
2.30185e-13
-1.58012e-15
2.83423e-13
8.88253e-14
3.82295e-13
-7.49807e-14
8.0497e-14
3.62207e-13
-8.8813e-14
6.81449e-14
3.43931e-13
-8.59532e-14
5.6393e-14
3.24863e-13
-8.351e-14
4.51824e-14
3.07483e-13
-8.11755e-14
3.40338e-14
2.90778e-13
-7.8888e-14
2.20554e-14
2.75638e-13
-7.71028e-14
1.43486e-14
2.61375e-13
-8.18825e-14
7.92541e-15
2.48421e-13
2.61894e-15
2.35172e-13
-4.34353e-15
1.92261e-13
1.12365e-13
5.42939e-13
-1.89792e-13
9.9636e-14
4.94438e-13
-1.69704e-13
8.31056e-14
4.5346e-13
-1.61084e-13
6.80456e-14
4.12068e-13
-1.53327e-13
5.44625e-14
3.75646e-13
-1.46089e-13
4.22119e-14
3.43079e-13
-1.39295e-13
3.11584e-14
3.13692e-13
-1.33269e-13
2.12103e-14
2.87255e-13
-1.39494e-13
1.2271e-14
2.63322e-13
4.29214e-15
2.41321e-13
-7.12061e-15
6.65582e-14
1.38748e-13
7.87782e-13
-3.27123e-13
1.19513e-13
6.88784e-13
-2.74206e-13
9.73002e-14
6.06341e-13
-2.54411e-13
7.7836e-14
5.29154e-13
-2.36966e-13
6.08952e-14
4.63675e-13
-2.21166e-13
4.61664e-14
4.07371e-13
-2.06618e-13
3.33864e-14
3.59137e-13
-1.93777e-13
2.22902e-14
3.17865e-13
-1.99022e-13
1.26394e-14
2.80988e-13
4.34584e-15
2.47894e-13
-1.00538e-14
-6.6011e-14
1.73386e-13
1.17054e-12
-5.02813e-13
1.44806e-13
9.78596e-13
-4.09002e-13
1.14798e-13
8.23562e-13
-3.70446e-13
8.94981e-14
6.87285e-13
-3.37202e-13
6.83447e-14
5.77709e-13
-3.0772e-13
5.06371e-14
4.87791e-13
-2.81478e-13
3.58087e-14
4.13622e-13
-2.58906e-13
2.34029e-14
3.52363e-13
-2.60751e-13
1.30212e-14
3.01124e-13
4.38755e-15
2.55605e-13
-1.32056e-14
-2.34966e-13
2.1954e-13
1.78671e-12
-7.3408e-13
1.7745e-13
1.41612e-12
-5.83423e-13
1.36545e-13
1.13423e-12
-5.14691e-13
1.03561e-13
9.02506e-13
-4.57172e-13
7.70258e-14
7.25235e-13
-4.0763e-13
5.56553e-14
5.8733e-13
-3.64775e-13
3.84662e-14
4.79046e-13
-3.28633e-13
2.46009e-14
3.93368e-13
-3.24895e-13
1.34323e-14
3.24567e-13
4.41873e-15
2.64852e-13
-1.62754e-14
-6.94751e-13
2.79865e-13
2.80013e-12
-1.04387e-12
2.19263e-13
2.09637e-12
-8.09249e-13
1.6347e-13
1.58604e-12
-6.94372e-13
1.20338e-13
1.19768e-12
-6.00888e-13
8.70888e-14
9.17806e-13
-5.22692e-13
6.14278e-14
7.11351e-13
-4.57322e-13
4.15311e-14
5.5688e-13
-4.03177e-13
2.61122e-14
4.40724e-13
-3.91591e-13
1.41145e-14
3.50132e-13
4.84259e-15
2.75504e-13
-1.93747e-14
-1.25784e-12
3.33043e-13
4.52902e-12
-1.46323e-12
2.43049e-13
3.17475e-12
-1.10271e-12
1.72404e-13
2.25458e-12
-9.1814e-13
1.21616e-13
1.61016e-12
-7.72528e-13
8.47174e-14
1.17279e-12
-6.55314e-13
5.76109e-14
8.6709e-13
-5.59847e-13
3.75285e-14
6.51182e-13
-4.83127e-13
2.25346e-14
4.94841e-13
-4.60544e-13
1.12745e-14
3.79651e-13
2.84039e-15
2.87094e-13
-2.26037e-14
-2.11284e-12
1.05052e-11
7.78557e-12
-2.00155e-12
-9.18967e-13
4.46623e-12
-1.43508e-12
-1.34825e-12
2.94029e-12
-1.1678e-12
-1.74676e-12
1.97378e-12
-9.62885e-13
-2.14373e-12
1.37112e-12
-8.01862e-13
-2.53221e-12
9.82351e-13
-6.74089e-13
-2.90826e-12
7.25688e-13
-5.73685e-13
-3.26972e-12
5.52658e-13
-5.44418e-13
-3.61561e-12
4.3182e-13
-3.92911e-12
3.37064e-13
-2.58743e-14
-3.35995e-10
3.43975e-09
4.1293e-08
-1.62544e-10
1.25493e-09
-8.8116e-10
-1.57014e-10
9.2734e-10
-8.96336e-10
-1.48892e-10
7.03634e-10
-8.69898e-10
-1.41452e-10
5.43676e-10
-8.43296e-10
-1.34634e-10
4.26967e-10
-8.1788e-10
-1.28376e-10
3.40294e-10
-7.94191e-10
-1.22623e-10
2.74902e-10
-7.72484e-10
-1.17533e-10
2.24856e-10
-7.53592e-10
1.85417e-10
-2.93368e-14
-7.23187e-10
3.47788e-13
8.1651e-14
1.21799e-14
-1.78956e-14
7.75323e-14
1.06127e-14
-2.12195e-14
6.84117e-14
9.21205e-15
-1.98792e-14
5.95975e-14
7.74784e-15
-1.88808e-14
5.10793e-14
6.29902e-15
-1.96505e-14
4.2812e-14
4.53207e-15
-1.87372e-14
3.48624e-14
3.6465e-15
-1.90402e-14
2.71612e-14
3.09544e-15
-2.33702e-14
1.97145e-14
2.33365e-15
1.25814e-14
2.30798e-15
-1.40729e-15
2.96638e-13
5.86415e-14
1.96972e-14
-6.57359e-14
5.38829e-14
1.73146e-14
-6.98451e-14
4.56509e-14
1.71777e-14
-6.58047e-14
3.78535e-14
1.37388e-14
-6.43267e-14
3.05771e-14
1.11123e-14
-6.17321e-14
2.38473e-14
9.17608e-15
-6.00303e-14
1.76188e-14
7.09431e-15
-5.94332e-14
1.19323e-14
5.58612e-15
-7.12512e-14
6.80877e-15
4.93943e-15
2.37624e-15
3.68942e-15
-4.4101e-15
2.18705e-13
7.48499e-14
2.89168e-14
-1.65672e-13
6.75756e-14
2.66694e-14
-1.32181e-13
5.67745e-14
2.71761e-14
-1.2217e-13
4.6897e-14
2.25644e-14
-1.15703e-13
3.79218e-14
1.86135e-14
-1.09743e-13
2.97223e-14
1.48254e-14
-1.03661e-13
2.22847e-14
1.25918e-14
-1.02357e-13
1.58948e-14
1.07208e-14
-1.21164e-13
9.35424e-15
8.91399e-15
3.32097e-15
6.91053e-15
-7.26611e-15
9.69921e-14
9.29702e-14
4.70353e-14
-2.89025e-13
8.13623e-14
4.56435e-14
-2.10496e-13
6.67136e-14
4.58962e-14
-1.84093e-13
5.38069e-14
3.74227e-14
-1.71228e-13
4.25583e-14
3.1103e-14
-1.595e-13
3.26952e-14
2.58584e-14
-1.47354e-13
2.40657e-14
2.18091e-14
-1.47882e-13
1.64339e-14
1.8448e-14
-1.72949e-13
9.65568e-15
1.63841e-14
3.4043e-15
1.15087e-14
-1.03455e-14
-2.0026e-14
1.17114e-13
8.13327e-14
-4.45371e-13
9.89252e-14
7.97175e-14
-2.97655e-13
7.89457e-14
7.62904e-14
-2.62578e-13
6.20429e-14
6.26253e-14
-2.3903e-13
4.78617e-14
5.10184e-14
-2.17644e-13
3.59572e-14
4.20767e-14
-1.98369e-13
2.59822e-14
3.56274e-14
-1.88487e-13
1.78394e-14
3.06516e-14
-2.26663e-13
1.01257e-14
2.6447e-14
3.49834e-15
1.80238e-14
-1.33348e-14
-1.55414e-13
1.49616e-13
1.43292e-13
-6.5003e-13
1.22014e-13
1.41095e-13
-4.14745e-13
9.42916e-14
1.26937e-13
-3.60489e-13
7.20063e-14
1.01747e-13
-3.19889e-13
5.4106e-14
8.20925e-14
-2.84663e-13
3.96056e-14
6.67175e-14
-2.54037e-13
2.78798e-14
5.53264e-14
-2.32555e-13
1.8826e-14
4.67301e-14
-2.82514e-13
1.03745e-14
3.89647e-14
3.51983e-15
2.64433e-14
-1.65313e-14
-5.66341e-13
1.94089e-13
2.54177e-13
-9.23657e-13
1.52159e-13
2.46227e-13
-5.67362e-13
1.13632e-13
2.08682e-13
-4.81814e-13
8.41546e-14
1.62493e-13
-4.16417e-13
6.1473e-14
1.27568e-13
-3.61458e-13
4.38899e-14
1.01596e-13
-3.15148e-13
3.04002e-14
8.25459e-14
-2.81344e-13
1.97754e-14
6.75416e-14
-3.40375e-13
1.07992e-14
5.60429e-14
3.66902e-15
3.67101e-14
-1.97325e-14
-1.09219e-12
3.03379e-13
4.57571e-13
-1.29222e-12
2.81292e-13
4.26652e-13
-7.66697e-13
2.02367e-13
3.40642e-13
-6.33075e-13
1.42564e-13
2.53818e-13
-5.3157e-13
9.9506e-14
1.93107e-13
-4.49363e-13
6.80514e-14
1.49893e-13
-3.83255e-13
4.47485e-14
1.17893e-13
-3.32828e-13
2.72452e-14
9.45631e-14
-4.00383e-13
1.36798e-14
7.70202e-14
3.45261e-15
4.8443e-14
-2.30462e-14
-1.92457e-12
1.15291e-11
1.78519e-12
-1.78551e-12
6.58527e-13
7.28429e-13
-1.02826e-12
4.23296e-13
5.41883e-13
-8.2179e-13
2.85586e-13
3.88695e-13
-6.68935e-13
1.88181e-13
2.85595e-13
-5.50652e-13
1.18569e-13
2.14352e-13
-4.57926e-13
6.84034e-14
1.64097e-13
-3.8835e-13
3.20475e-14
1.27864e-13
-4.63122e-13
5.5475e-15
1.01531e-13
-1.33734e-14
6.39012e-14
-2.6394e-14
-1.56706e-10
2.10303e-09
3.84356e-08
-8.61087e-12
3.08487e-11
3.50424e-11
-8.49266e-12
1.20816e-11
8.23271e-13
-6.93608e-12
7.85502e-12
2.09004e-12
-5.71352e-12
5.30412e-12
1.7361e-12
-4.76105e-12
3.68779e-12
2.30114e-12
-4.00849e-12
2.62832e-12
2.64288e-12
-3.40866e-12
1.91243e-12
2.78493e-12
-2.93928e-12
1.41828e-12
2.86921e-12
1.03078e-12
-2.99637e-14
3.78665e-12
3.47757e-13
8.12044e-14
1.07992e-14
-1.80212e-14
7.71461e-14
9.7701e-15
-2.10051e-14
6.80954e-14
8.42566e-15
-1.96208e-14
5.93172e-14
6.43489e-15
-1.92186e-14
5.08492e-14
4.21799e-15
-1.93249e-14
4.26562e-14
3.4273e-15
-1.78204e-14
3.47402e-14
2.07686e-15
-1.91374e-14
2.70727e-14
7.76278e-16
-2.31697e-14
1.96876e-14
4.14168e-16
1.25841e-14
8.45035e-17
-1.54586e-15
2.97054e-13
5.81241e-14
1.89655e-14
-6.5497e-14
5.34475e-14
1.68513e-14
-6.92324e-14
4.52813e-14
1.69291e-14
-6.46332e-14
3.75829e-14
1.31751e-14
-6.29303e-14
3.03753e-14
9.42886e-15
-6.08375e-14
2.36783e-14
6.99421e-15
-5.90641e-14
1.75273e-14
5.40533e-15
-5.81975e-14
1.18951e-14
4.15896e-15
-7.0878e-14
6.79317e-15
2.80712e-15
2.39937e-15
1.6571e-15
-4.35958e-15
2.19853e-13
7.39986e-14
2.7233e-14
-1.64809e-13
6.68446e-14
2.56689e-14
-1.29789e-13
5.61455e-14
2.7445e-14
-1.16046e-13
4.62861e-14
2.10457e-14
-1.11852e-13
3.73913e-14
1.71598e-14
-1.03716e-13
2.93213e-14
1.45918e-14
-9.89521e-14
2.18537e-14
1.12983e-14
-1.01157e-13
1.50861e-14
9.41226e-15
-1.20369e-13
9.2881e-15
8.01923e-15
3.23272e-15
5.6838e-15
-7.24421e-15
9.85542e-14
9.19111e-14
4.4722e-14
-2.87401e-13
8.04425e-14
4.50041e-14
-2.01937e-13
6.59168e-14
4.754e-14
-1.79089e-13
5.31783e-14
3.87408e-14
-1.67029e-13
4.19725e-14
3.1438e-14
-1.55444e-13
3.21473e-14
2.70515e-14
-1.44577e-13
2.35739e-14
2.18013e-14
-1.42257e-13
1.60292e-14
1.902e-14
-1.72025e-13
9.52906e-15
1.60104e-14
3.44648e-15
1.0714e-14
-1.03752e-14
-1.74323e-14
1.15736e-13
7.93247e-14
-4.427e-13
9.78475e-14
8.29392e-14
-2.89406e-13
7.80485e-14
8.17425e-14
-2.58085e-13
6.1293e-14
6.59817e-14
-2.34767e-13
4.72772e-14
5.49788e-14
-2.13667e-13
3.54506e-14
4.53383e-14
-1.94928e-13
2.544e-14
3.82395e-14
-1.83215e-13
1.70884e-14
3.29129e-14
-2.25553e-13
9.92498e-15
2.90094e-14
3.5771e-15
1.99729e-14
-1.33513e-14
-1.51648e-13
1.47781e-13
1.39171e-13
-6.45866e-13
1.20631e-13
1.46236e-13
-4.06901e-13
9.32077e-14
1.38492e-13
-3.54982e-13
7.11925e-14
1.11086e-13
-3.15246e-13
5.34438e-14
9.05565e-14
-2.80459e-13
3.90613e-14
7.51656e-14
-2.5028e-13
2.7423e-14
6.28213e-14
-2.29263e-13
1.79703e-14
5.22176e-14
-2.81101e-13
1.03929e-14
4.57354e-14
3.63526e-15
2.96361e-14
-1.66297e-14
-5.57212e-13
1.91704e-13
2.48616e-13
-9.17078e-13
1.50428e-13
2.60573e-13
-5.58455e-13
1.12396e-13
2.29231e-13
-4.75422e-13
8.31823e-14
1.80385e-13
-4.11067e-13
6.07251e-14
1.43762e-13
-3.5679e-13
4.33042e-14
1.16819e-13
-3.11611e-13
2.96696e-14
9.45355e-14
-2.77631e-13
1.90571e-14
7.94561e-14
-3.39008e-13
1.08476e-14
6.72144e-14
3.64137e-15
4.28144e-14
-1.98409e-14
-1.07818e-12
3.01106e-13
4.44235e-13
-1.28147e-12
1.82236e-13
4.53793e-13
-7.56547e-13
1.38524e-13
3.74729e-13
-6.25317e-13
9.96568e-14
2.86713e-13
-5.25357e-13
7.15184e-14
2.22088e-13
-4.44641e-13
5.32943e-14
1.74801e-13
-3.79342e-13
3.61193e-14
1.38833e-13
-3.29125e-13
2.26618e-14
1.12856e-13
-3.99294e-13
1.23484e-14
9.2136e-14
4.56558e-15
6.03751e-14
-2.30525e-14
-1.90535e-12
1.15282e-11
2.4454e-12
-1.76881e-12
3.26702e-13
7.96222e-13
-1.01665e-12
2.59719e-13
6.09686e-13
-8.13341e-13
1.74125e-13
4.46808e-13
-6.62544e-13
1.16278e-13
3.32389e-13
-5.45681e-13
7.62532e-14
2.53867e-13
-4.5405e-13
4.82144e-14
1.96654e-13
-3.84781e-13
2.83821e-14
1.55878e-13
-4.61573e-13
1.42233e-14
1.23579e-13
3.9493e-15
7.57123e-14
-2.65354e-14
-1.50985e-10
3.19679e-09
3.92306e-08
-2.49337e-12
1.45687e-11
3.9219e-11
-1.38984e-12
1.21433e-12
5.27524e-13
-1.1209e-12
8.06229e-13
3.92049e-13
-8.80687e-13
5.69593e-13
3.03034e-13
-7.02663e-13
4.13418e-13
1.70968e-13
-5.68253e-13
3.07412e-13
1.28556e-13
-4.69489e-13
2.32988e-13
1.08352e-13
-5.44932e-13
1.79545e-13
9.43717e-14
1.10025e-13
-3.00758e-14
9.11249e-14
3.47614e-13
8.13325e-14
1.86407e-14
-1.83099e-14
7.72517e-14
1.62035e-14
-2.112e-14
6.81889e-14
1.24234e-14
-2.01742e-14
5.93947e-14
8.28036e-15
-1.86203e-14
5.09086e-14
8.3063e-15
-1.94546e-14
4.26959e-14
4.09655e-15
-1.89392e-14
3.47828e-14
4.14999e-15
-1.88436e-14
2.71347e-14
3.15181e-15
-2.32048e-14
1.97284e-14
8.9079e-16
1.26228e-14
3.05081e-16
-1.66642e-15
2.96759e-13
5.82608e-14
2.92981e-14
-6.58197e-14
5.3569e-14
2.38596e-14
-6.93862e-14
4.53834e-14
2.18037e-14
-6.53808e-14
3.76487e-14
1.77964e-14
-6.2861e-14
3.04568e-14
1.24563e-14
-6.09402e-14
2.37601e-14
9.99326e-15
-5.88132e-14
1.75873e-14
6.9423e-15
-5.85972e-14
1.19455e-14
6.75907e-15
-7.09361e-14
6.84719e-15
5.28881e-15
2.45008e-15
2.0967e-15
-4.37129e-15
2.19357e-13
7.42091e-14
4.05593e-14
-1.65481e-13
6.70324e-14
3.63482e-14
-1.30733e-13
5.6318e-14
3.7891e-14
-1.15699e-13
4.64715e-14
3.09989e-14
-1.10921e-13
3.75065e-14
2.40359e-14
-1.04651e-13
2.94306e-14
1.83452e-14
-9.87526e-14
2.19505e-14
1.59455e-14
-1.0141e-13
1.5187e-14
1.24233e-14
-1.20404e-13
9.23086e-15
1.34161e-14
3.11203e-15
6.7777e-15
-7.41551e-15
9.80181e-14
9.22973e-14
6.97326e-14
-2.8832e-13
8.07934e-14
6.62365e-14
-2.02967e-13
6.61774e-14
6.4794e-14
-1.79715e-13
5.33787e-14
5.29769e-14
-1.66949e-13
4.21796e-14
4.43079e-14
-1.56188e-13
3.22651e-14
3.41436e-14
-1.44519e-13
2.37029e-14
3.46622e-14
-1.43169e-13
1.61621e-14
2.71831e-14
-1.72217e-13
9.76861e-15
2.55548e-14
3.68178e-15
1.90433e-14
-1.02375e-14
-1.84126e-14
1.16302e-13
1.08624e-13
-4.44301e-13
9.83151e-14
1.12797e-13
-2.90482e-13
7.84701e-14
1.11866e-13
-2.58561e-13
6.16475e-14
9.255e-14
-2.35604e-13
4.75533e-14
7.87191e-14
-2.14112e-13
3.57429e-14
6.80163e-14
-1.95299e-13
2.5693e-14
5.73136e-14
-1.83508e-13
1.71791e-14
4.57216e-14
-2.25929e-13
9.99793e-15
4.16598e-14
3.63421e-15
2.52252e-14
-1.3399e-14
-1.53275e-13
1.48703e-13
2.00167e-13
-6.48336e-13
1.2142e-13
2.05625e-13
-4.08601e-13
9.38212e-14
1.88269e-13
-3.56211e-13
7.16903e-14
1.51909e-13
-3.16178e-13
5.38614e-14
1.22662e-13
-2.8135e-13
3.93905e-14
1.04521e-13
-2.5113e-13
2.76608e-14
8.32976e-14
-2.29594e-13
1.8288e-14
7.66975e-14
-2.8186e-13
1.06724e-14
6.21565e-14
3.83642e-15
4.04598e-14
-1.65597e-14
-5.61763e-13
1.93156e-13
3.4928e-13
-9.21391e-13
1.51574e-13
3.56574e-13
-5.61027e-13
1.13293e-13
3.18191e-13
-4.77478e-13
8.39004e-14
2.43718e-13
-4.12712e-13
6.1303e-14
1.98566e-13
-3.58377e-13
4.3766e-14
1.56743e-13
-3.12672e-13
3.00613e-14
1.29523e-13
-2.78512e-13
1.92832e-14
1.05729e-13
-3.40268e-13
1.10783e-14
8.84164e-14
3.98673e-15
5.84729e-14
-1.98186e-14
-1.08681e-12
3.0382e-13
6.19746e-13
-1.28864e-12
1.83475e-13
6.26424e-13
-7.60746e-13
1.39166e-13
5.09786e-13
-6.28743e-13
1.00024e-13
3.87816e-13
-5.28092e-13
7.153e-14
3.01095e-13
-4.47002e-13
5.29765e-14
2.34368e-13
-3.8114e-13
3.63294e-14
1.90106e-13
-3.30751e-13
2.29426e-14
1.52725e-13
-4.01058e-13
1.26114e-14
1.25051e-13
4.7919e-15
8.09625e-14
-2.31505e-14
-1.92146e-12
1.15509e-11
3.28203e-12
-1.78076e-12
3.22296e-13
1.08824e-12
-1.02363e-12
2.40629e-13
8.26392e-13
-8.18897e-13
1.62975e-13
6.02332e-13
-6.66785e-13
1.06088e-13
4.55061e-13
-5.49241e-13
6.51625e-14
3.46089e-13
-4.56783e-13
3.05774e-14
2.67111e-13
-3.8719e-13
1.68971e-14
2.0932e-13
-4.64316e-13
8.67691e-15
1.6952e-13
3.25498e-15
1.10802e-13
-2.65525e-14
-1.52543e-10
4.19591e-09
4.00918e-08
-2.39873e-12
2.12924e-11
4.02797e-11
-1.31614e-12
1.27734e-12
2.02626e-13
-1.05871e-12
8.66616e-13
9.08754e-14
-8.34052e-13
6.22831e-13
6.66586e-14
-6.66985e-13
4.59384e-13
5.09074e-14
-5.40786e-13
3.45696e-13
3.97572e-14
-4.47057e-13
2.65042e-13
3.1589e-14
-5.2989e-13
2.05451e-13
2.5443e-14
1.26021e-13
-3.01642e-14
2.08058e-14
3.47325e-13
8.14953e-14
1.9413e-14
-1.86705e-14
7.73903e-14
1.55282e-14
-2.16113e-14
6.82915e-14
1.7161e-14
-1.99046e-14
5.94969e-14
1.2995e-14
-1.96779e-14
5.09704e-14
7.44488e-15
-1.92401e-14
4.27632e-14
5.02804e-15
-1.88839e-14
3.48274e-14
2.56155e-15
-1.92681e-14
2.71786e-14
1.47934e-15
-2.32531e-14
1.97834e-14
9.13745e-16
1.26644e-14
3.62731e-16
-1.52959e-15
2.96314e-13
5.84423e-14
3.38562e-14
-6.63295e-14
5.37298e-14
3.24493e-14
-6.9369e-14
4.55341e-14
3.13221e-14
-6.6238e-14
3.77639e-14
2.25354e-14
-6.25537e-14
3.05692e-14
2.01634e-14
-6.14778e-14
2.38475e-14
1.25755e-14
-5.8304e-14
1.76708e-14
8.93898e-15
-5.86833e-14
1.20142e-14
5.75058e-15
-7.10902e-14
6.91742e-15
5.33798e-15
2.50903e-15
3.52225e-15
-4.38647e-15
2.18642e-13
7.453e-14
4.73778e-14
-1.66411e-13
6.73034e-14
4.79833e-14
-1.31236e-13
5.65336e-14
4.75898e-14
-1.16188e-13
4.66626e-14
4.12457e-14
-1.11433e-13
3.76673e-14
3.19804e-14
-1.04583e-13
2.95254e-14
2.58599e-14
-9.92977e-14
2.21426e-14
1.87537e-14
-1.00951e-13
1.53888e-14
1.91757e-14
-1.20653e-13
9.21196e-15
1.28737e-14
3.48245e-15
9.65319e-15
-7.38537e-15
9.72071e-14
9.27604e-14
8.24817e-14
-2.89638e-13
8.12162e-14
8.30957e-14
-2.03197e-13
6.65415e-14
8.54234e-14
-1.80182e-13
5.36899e-14
7.12446e-14
-1.68169e-13
4.2465e-14
5.64548e-14
-1.55627e-13
3.25806e-14
4.60138e-14
-1.45285e-13
2.38693e-14
3.58866e-14
-1.43425e-13
1.62735e-14
3.51532e-14
-1.7243e-13
9.91604e-15
2.77313e-14
3.68337e-15
1.7096e-14
-1.03305e-14
-1.97644e-14
1.17114e-13
1.48118e-13
-4.46337e-13
9.89991e-14
1.52478e-13
-2.91772e-13
7.90133e-14
1.49122e-13
-2.59496e-13
6.20965e-14
1.21577e-13
-2.36365e-13
4.78928e-14
9.7996e-14
-2.14952e-13
3.60266e-14
7.95433e-14
-1.95875e-13
2.59246e-14
6.31959e-14
-1.83751e-13
1.74618e-14
5.59492e-14
-2.26514e-13
1.0179e-14
4.66513e-14
3.9099e-15
3.16432e-14
-1.33652e-14
-1.55512e-13
1.49936e-13
2.43527e-13
-6.51765e-13
1.22427e-13
2.71333e-13
-4.10677e-13
9.46627e-14
2.50511e-13
-3.57956e-13
7.23451e-14
1.99448e-13
-3.17346e-13
5.44413e-14
1.61745e-13
-2.828e-13
3.98255e-14
1.23676e-13
-2.51878e-13
2.80589e-14
1.08818e-13
-2.30476e-13
1.84732e-14
8.60648e-14
-2.82838e-13
1.09445e-14
7.43634e-14
4.06402e-15
4.89709e-14
-1.65323e-14
-5.68105e-13
1.951e-13
4.4111e-13
-9.26999e-13
1.53145e-13
4.81295e-13
-5.64812e-13
1.14467e-13
4.03375e-13
-4.80013e-13
8.48549e-14
3.22493e-13
-4.15183e-13
6.20289e-14
2.44066e-13
-3.602e-13
4.43654e-14
1.96594e-13
-3.14361e-13
3.05721e-14
1.57915e-13
-2.79712e-13
1.97285e-14
1.35771e-13
-3.41831e-13
1.1436e-14
1.11547e-13
4.32603e-15
6.86504e-14
-1.98164e-14
-1.09846e-12
3.07529e-13
7.94132e-13
-1.29838e-12
1.85765e-13
8.31718e-13
-7.66426e-13
1.40904e-13
6.67669e-13
-6.33273e-13
1.01316e-13
5.02033e-13
-5.3185e-13
7.25536e-14
3.76571e-13
-4.49899e-13
5.36625e-14
2.96013e-13
-3.83735e-13
3.6977e-14
2.30292e-13
-3.32831e-13
2.34999e-14
1.86896e-13
-4.03394e-13
1.30757e-14
1.54999e-13
5.17616e-15
9.4568e-14
-2.31742e-14
-1.94404e-12
1.17486e-11
4.28921e-12
-1.79675e-12
3.26659e-13
1.44061e-12
-1.03311e-12
2.43452e-13
1.07908e-12
-8.26099e-13
1.65513e-13
7.82277e-13
-6.72605e-13
1.07921e-13
5.62272e-13
-5.53927e-13
6.65696e-14
4.22223e-13
-4.60497e-13
3.14143e-14
3.21456e-13
-3.90307e-13
1.74419e-14
2.56272e-13
-4.67782e-13
9.05106e-15
2.03593e-13
3.64268e-15
1.24932e-13
-2.6695e-14
-1.55377e-10
6.17765e-09
4.07787e-08
-2.42443e-12
3.02077e-11
4.13593e-11
-1.33007e-12
1.76224e-12
1.97868e-13
-1.06969e-12
1.16842e-12
8.32707e-14
-8.42415e-13
8.31372e-13
6.33774e-14
-6.73562e-13
6.03949e-13
4.93884e-14
-5.46068e-13
4.45589e-13
3.91692e-14
-4.51403e-13
3.36001e-13
3.15837e-14
-5.34728e-13
2.65933e-13
2.5849e-14
1.5879e-13
-3.02917e-14
2.15593e-14
3.46891e-13
8.16985e-14
2.74308e-14
-1.90027e-14
7.75784e-14
2.6167e-14
-2.20504e-14
6.8429e-14
2.13921e-14
-2.03825e-14
5.9608e-14
1.65635e-14
-1.97945e-14
5.10842e-14
1.07766e-14
-1.97645e-14
4.28498e-14
5.55235e-15
-1.87067e-14
3.49145e-14
3.65524e-15
-1.9235e-14
2.72403e-14
2.81496e-15
-2.32994e-14
1.98437e-14
2.18174e-15
1.2735e-14
3.01921e-15
-1.59573e-15
2.9578e-13
5.86612e-14
4.57476e-14
-6.6885e-14
5.39235e-14
4.28018e-14
-6.99831e-14
4.5697e-14
4.15136e-14
-6.59853e-14
3.79181e-14
3.17966e-14
-6.37528e-14
3.06761e-14
2.27274e-14
-6.12939e-14
2.39595e-14
1.31787e-14
-5.92551e-14
1.77654e-14
9.44804e-15
-5.85391e-14
1.21246e-14
7.63891e-15
-7.10835e-14
6.99973e-15
6.65538e-15
2.57793e-15
5.86143e-15
-4.42159e-15
2.17788e-13
7.49106e-14
6.71875e-14
-1.6757e-13
6.7625e-14
6.59436e-14
-1.31419e-13
5.68074e-14
6.66372e-14
-1.17505e-13
4.68817e-14
5.29025e-14
-1.11245e-13
3.78762e-14
4.14603e-14
-1.05732e-13
2.96945e-14
2.70763e-14
-9.85002e-14
2.23104e-14
1.99186e-14
-1.01837e-13
1.54695e-14
1.58773e-14
-1.20749e-13
9.44232e-15
1.5726e-14
3.40861e-15
1.28471e-14
-7.45541e-15
9.62247e-14
9.33738e-14
1.08044e-13
-2.91248e-13
8.17445e-14
1.13439e-13
-2.03505e-13
6.6991e-14
1.1376e-13
-1.81158e-13
5.40662e-14
9.14702e-14
-1.68605e-13
4.27982e-14
7.43944e-14
-1.56439e-13
3.28908e-14
6.03994e-14
-1.45189e-13
2.40932e-14
4.05269e-14
-1.44126e-13
1.64843e-14
3.22106e-14
-1.72877e-13
9.91464e-15
2.74916e-14
3.99071e-15
2.4335e-14
-1.02975e-14
-2.15244e-14
1.18067e-13
1.90165e-13
-4.48825e-13
9.98184e-14
2.01073e-13
-2.93304e-13
7.9688e-14
1.92662e-13
-2.60745e-13
6.26457e-14
1.55374e-13
-2.37192e-13
4.83588e-14
1.26332e-13
-2.1617e-13
3.63823e-14
1.04249e-13
-1.96246e-13
2.63047e-14
7.46624e-14
-1.84787e-13
1.76733e-14
5.82943e-14
-2.27119e-13
1.05201e-14
4.75608e-14
4.14225e-15
3.42483e-14
-1.34612e-14
-1.58275e-13
1.5148e-13
3.41034e-13
-6.55889e-13
1.23682e-13
3.55771e-13
-4.13294e-13
9.56507e-14
3.23478e-13
-3.59929e-13
7.31701e-14
2.58475e-13
-3.19171e-13
5.50989e-14
2.08246e-13
-2.84043e-13
4.03961e-14
1.70687e-13
-2.53355e-13
2.84846e-14
1.31877e-13
-2.31207e-13
1.88846e-14
9.42924e-14
-2.83997e-13
1.12867e-14
7.65489e-14
4.32996e-15
4.86318e-14
-1.65577e-14
-5.75922e-13
1.97502e-13
6.06845e-13
-9.34013e-13
1.55048e-13
6.21278e-13
-5.68889e-13
1.15955e-13
5.35887e-13
-4.83566e-13
8.60042e-14
4.17784e-13
-4.1791e-13
6.29456e-14
3.30336e-13
-3.62563e-13
4.51124e-14
2.62663e-13
-3.16455e-13
3.11962e-14
2.09128e-13
-2.81196e-13
2.01613e-14
1.43253e-13
-3.43758e-13
1.18266e-14
1.14839e-13
4.70962e-15
6.98763e-14
-1.98082e-14
-1.113e-12
3.12096e-13
1.08892e-12
-1.31013e-12
1.88457e-13
1.0866e-12
-7.73502e-13
1.43076e-13
8.81371e-13
-6.38957e-13
1.02967e-13
6.63132e-13
-5.3629e-13
7.37966e-14
5.07309e-13
-4.53617e-13
5.38876e-14
3.92988e-13
-3.86918e-13
3.77766e-14
3.07e-13
-3.35369e-13
2.42104e-14
2.11169e-13
-4.06285e-13
1.36554e-14
1.62181e-13
5.64463e-15
9.69424e-14
-2.32672e-14
-1.97273e-12
1.21432e-11
5.39128e-12
-1.81625e-12
3.32356e-13
1.9114e-12
-1.04477e-12
2.48597e-13
1.43936e-12
-8.35182e-13
1.68995e-13
1.03839e-12
-6.79749e-13
1.10527e-13
7.66354e-13
-5.59649e-13
6.87171e-14
5.73555e-13
-4.65056e-13
3.25984e-14
4.37413e-13
-3.94173e-13
1.81225e-14
3.21971e-13
-4.7209e-13
9.50102e-15
2.22164e-13
4.12086e-15
1.31086e-13
-2.67598e-14
-1.64477e-10
7.93221e-09
4.39888e-08
-2.461e-12
3.49938e-11
4.412e-11
-1.3473e-12
2.37569e-12
1.94565e-13
-1.08385e-12
1.59691e-12
8.36489e-14
-8.53318e-13
1.13187e-12
6.38837e-14
-6.82069e-13
8.18748e-13
4.99418e-14
-5.52856e-13
6.04437e-13
3.97461e-14
-4.56903e-13
4.49052e-13
3.21865e-14
-5.40798e-13
2.95472e-13
2.648e-14
1.72194e-13
-3.0362e-14
2.2267e-14
3.46458e-13
8.19193e-14
2.67794e-14
-1.95648e-14
7.77266e-14
1.7869e-14
-2.22906e-14
6.85814e-14
1.67706e-14
-2.07385e-14
5.97271e-14
1.30421e-14
-2.0206e-14
5.11913e-14
1.19095e-14
-1.99076e-14
4.29552e-14
1.21674e-14
-1.93141e-14
3.50259e-14
1.46318e-14
-1.94043e-14
2.73687e-14
3.28645e-14
-2.35171e-14
1.99846e-14
1.31171e-13
1.28942e-14
4.56499e-13
-1.99667e-15
2.95093e-13
5.89271e-14
4.38397e-14
-6.74294e-14
5.41324e-14
3.02855e-14
-7.06841e-14
4.58598e-14
3.24625e-14
-6.63847e-14
3.80733e-14
2.61204e-14
-6.41823e-14
3.08125e-14
2.98482e-14
-6.11858e-14
2.4092e-14
2.08915e-14
-5.91191e-14
1.78866e-14
2.13261e-14
-5.9738e-14
1.22376e-14
3.157e-14
-7.18181e-14
7.14945e-15
8.49023e-14
2.69367e-15
2.96513e-13
-4.20887e-15
2.1674e-13
7.53048e-14
6.31808e-14
-1.68781e-13
6.79477e-14
4.76607e-14
-1.3196e-13
5.71032e-14
5.33187e-14
-1.1851e-13
4.71244e-14
4.44038e-14
-1.11409e-13
3.81239e-14
3.76787e-14
-1.05821e-13
2.99462e-14
3.4997e-14
-9.93716e-14
2.25216e-14
3.51805e-14
-1.01433e-13
1.56598e-14
3.92088e-14
-1.21948e-13
9.35488e-15
6.86071e-14
3.57621e-15
1.99717e-13
-7.11931e-15
9.51515e-14
9.40706e-14
1.05091e-13
-2.92863e-13
8.2288e-14
8.72707e-14
-2.05015e-13
6.74427e-14
9.43601e-14
-1.81888e-13
5.44632e-14
7.95379e-14
-1.68904e-13
4.31292e-14
6.84169e-14
-1.5726e-13
3.31621e-14
6.55448e-14
-1.45947e-13
2.43942e-14
5.767e-14
-1.43241e-13
1.67885e-14
5.74569e-14
-1.74162e-13
1.0065e-14
7.26195e-14
4.26352e-15
1.52672e-13
-1.00764e-14
-2.34841e-14
1.19181e-13
1.88152e-13
-4.51359e-13
1.00683e-13
1.63337e-13
-2.94898e-13
8.04113e-14
1.65639e-13
-2.62065e-13
6.32761e-14
1.38815e-13
-2.38074e-13
4.8902e-14
1.17668e-13
-2.17155e-13
3.68902e-14
1.33477e-13
-1.97202e-13
2.66467e-14
8.10381e-14
-1.85715e-13
1.7983e-14
8.69934e-14
-2.28653e-13
1.08549e-14
9.14087e-14
4.29854e-15
1.33844e-13
-1.32392e-14
-1.61532e-13
1.53199e-13
3.73248e-13
-6.60021e-13
1.24977e-13
3.01046e-13
-4.15807e-13
9.67242e-14
2.8512e-13
-3.62191e-13
7.40627e-14
2.33764e-13
-3.20621e-13
5.58639e-14
1.93546e-13
-2.86049e-13
4.10077e-14
2.1027e-13
-2.54762e-13
2.90858e-14
1.14659e-13
-2.32393e-13
1.92577e-14
1.30542e-13
-2.8607e-13
1.16745e-14
1.22249e-13
4.79401e-15
1.34165e-13
-1.64933e-14
-5.85043e-13
2.00329e-13
7.09975e-13
-9.40809e-13
1.57058e-13
5.43348e-13
-5.73274e-13
1.17556e-13
4.80105e-13
-4.87098e-13
8.72827e-14
3.81596e-13
-4.20898e-13
6.39622e-14
3.35048e-13
-3.65018e-13
4.59561e-14
3.2241e-13
-3.19263e-13
3.18484e-14
2.70188e-13
-2.82947e-13
2.07282e-14
1.54148e-13
-3.46527e-13
1.22189e-14
1.65523e-13
5.07035e-15
1.4773e-13
-1.97893e-14
-1.12915e-12
3.16502e-13
1.31621e-12
-1.32152e-12
1.92613e-13
9.58908e-13
-7.80856e-13
1.45425e-13
8.34186e-13
-6.44792e-13
1.04773e-13
6.70653e-13
-5.41098e-13
7.52345e-14
5.61468e-13
-4.57525e-13
5.4431e-14
4.85366e-13
-3.90882e-13
3.87961e-14
4.08297e-13
-3.384e-13
2.50178e-14
2.11616e-13
-4.10216e-13
1.43449e-14
2.22907e-13
6.20262e-15
1.72385e-13
-2.32425e-14
-1.99395e-12
9.88754e-12
5.0647e-12
-1.83619e-12
3.26649e-13
1.9112e-12
-1.05677e-12
2.58387e-13
1.52754e-12
-8.44438e-13
1.72889e-13
1.14734e-12
-6.87469e-13
1.1348e-13
8.9224e-13
-5.65603e-13
7.11606e-14
7.17501e-13
-4.70774e-13
3.40277e-14
5.78861e-13
-3.98681e-13
1.8967e-14
2.90321e-13
-4.77606e-13
1.00461e-14
2.55664e-13
4.70166e-15
2.06493e-13
-2.68002e-14
-1.41653e-10
3.06168e-09
4.25163e-08
-2.39632e-12
1.55612e-11
2.78879e-11
-1.37255e-12
2.61697e-12
1.15923e-13
-1.0986e-12
1.8497e-12
8.3931e-14