/*--------------------------------*- C++ -*----------------------------------*\
| =========                 |                                                 |
| \\      /  F ield         | OpenFOAM: The Open Source CFD Toolbox           |
|  \\    /   O peration     | Version:  4.1                                   |
|   \\  /    A nd           | Web:      www.OpenFOAM.org                      |
|    \\/     M anipulation  |                                                 |
\*---------------------------------------------------------------------------*/
FoamFile
{
    version     2.0;
    format      ascii;
    class       volVectorField;
    location    "0.26";
    object      U;
}
// * * * * * * * * * * * * * * * * * * * * * * * * * * * * * * * * * * * * * //

dimensions      [0 1 -1 0 0 0 0];

internalField   nonuniform List<vector> 
18000
(
(7.75543e-14 3.92171e-13 -6.4578e-12)
(8.41038e-14 3.9041e-13 -6.38279e-12)
(7.61741e-14 -9.98378e-15 -6.30858e-12)
(6.84297e-14 -1.12728e-14 -6.23551e-12)
(6.08885e-14 -1.11168e-14 -6.1634e-12)
(5.35396e-14 -1.09289e-14 -6.09223e-12)
(4.63916e-14 -1.08651e-14 -6.02202e-12)
(3.94688e-14 -1.07951e-14 -5.95286e-12)
(3.27223e-14 -1.067e-14 -5.88469e-12)
(2.6168e-14 -8.66016e-15 -5.81821e-12)
(1.03243e-13 4.06586e-13 -8.13199e-12)
(1.20525e-13 3.96966e-13 -7.83679e-12)
(1.06266e-13 -4.01846e-14 -7.55346e-12)
(9.28034e-14 -4.02802e-14 -7.28281e-12)
(8.02273e-14 -3.89409e-14 -7.02403e-12)
(6.84474e-14 -3.75994e-14 -6.77641e-12)
(5.73781e-14 -3.63156e-14 -6.53937e-12)
(4.70499e-14 -3.51149e-14 -6.3124e-12)
(3.7337e-14 -3.39588e-14 -6.09482e-12)
(2.82632e-14 -2.6977e-14 -5.88875e-12)
(1.05914e-13 4.14977e-13 -1.03731e-11)
(1.21773e-13 3.95526e-13 -9.72092e-12)
(1.0131e-13 -8.2683e-14 -9.11561e-12)
(8.29212e-14 -7.93478e-14 -8.55618e-12)
(6.64717e-14 -7.46238e-14 -8.03815e-12)
(5.17272e-14 -7.03741e-14 -7.55803e-12)
(3.84954e-14 -6.64344e-14 -7.11287e-12)
(2.66204e-14 -6.27666e-14 -6.69934e-12)
(1.59687e-14 -5.93414e-14 -6.31509e-12)
(6.43221e-15 -4.59986e-14 -5.96041e-12)
(1.4058e-13 4.12497e-13 -1.342e-11)
(1.52528e-13 3.80954e-13 -1.21907e-11)
(1.23061e-13 -1.42316e-13 -1.10932e-11)
(9.78048e-14 -1.31578e-13 -1.01134e-11)
(7.62139e-14 -1.20486e-13 -9.23781e-12)
(5.7716e-14 -1.10583e-13 -8.45355e-12)
(4.18906e-14 -1.01708e-13 -7.74935e-12)
(2.82594e-14 -9.37133e-14 -7.11584e-12)
(1.65774e-14 -8.64365e-14 -6.54482e-12)
(6.54638e-15 -6.56682e-14 -6.03325e-12)
(1.9056e-13 3.89906e-13 -1.7635e-11)
(1.94034e-13 3.44467e-13 -1.54726e-11)
(1.51202e-13 -2.26404e-13 -1.36214e-11)
(1.16296e-13 -2.01987e-13 -1.20323e-11)
(8.78963e-14 -1.79308e-13 -1.06646e-11)
(6.47112e-14 -1.5982e-13 -9.48257e-12)
(4.56922e-14 -1.43073e-13 -8.45719e-12)
(3.007e-14 -1.28548e-13 -7.56476e-12)
(1.7217e-14 -1.15726e-13 -6.785e-12)
(6.64631e-15 -8.60425e-14 -6.10754e-12)
(2.64478e-13 3.31787e-13 -2.35778e-11)
(2.5129e-13 2.71162e-13 -1.98991e-11)
(1.88196e-13 -3.46208e-13 -1.68904e-11)
(1.39526e-13 -2.97055e-13 -1.44156e-11)
(1.01997e-13 -2.54985e-13 -1.23706e-11)
(7.27813e-14 -2.20398e-13 -1.06693e-11)
(4.99418e-14 -1.91704e-13 -9.24609e-12)
(3.20161e-14 -1.67606e-13 -8.04883e-12)
(1.78979e-14 -1.47179e-13 -7.0361e-12)
(6.75531e-15 -1.07164e-13 -6.18271e-12)
(3.77074e-13 2.10517e-13 -3.21361e-11)
(3.32033e-13 1.36089e-13 -2.59679e-11)
(2.3758e-13 -5.18977e-13 -2.11666e-11)
(1.69048e-13 -4.2685e-13 -1.74016e-11)
(1.19067e-13 -3.52989e-13 -1.44224e-11)
(8.21554e-14 -2.94998e-13 -1.20431e-11)
(5.4668e-14 -2.48772e-13 -1.0127e-11)
(3.40774e-14 -2.11546e-13 -8.57141e-12)
(1.85671e-14 -1.8112e-13 -7.29894e-12)
(6.82945e-15 -1.29052e-13 -6.25908e-12)
(1.37601e-13 -2.37949e-14 -4.47618e-11)
(4.60948e-14 -1.04779e-13 -3.44346e-11)
(-7.3554e-14 -7.71735e-13 -2.68343e-11)
(-1.4903e-13 -6.05414e-13 -2.11756e-11)
(-1.96492e-13 -4.80503e-13 -1.6905e-11)
(-2.25699e-13 -3.87212e-13 -1.36397e-11)
(-2.42929e-13 -3.1607e-13 -1.11132e-11)
(-2.52182e-13 -2.60905e-13 -9.13661e-12)
(-2.56133e-13 -2.17569e-13 -7.57398e-12)
(-2.58555e-13 -1.5173e-13 -6.33713e-12)
(-2.17653e-09 -5.03998e-13 -6.87531e-11)
(-2.09471e-09 -4.91082e-13 -5.07179e-11)
(-1.95953e-09 -1.08111e-12 -3.81541e-11)
(-1.83997e-09 -7.93743e-13 -2.92509e-11)
(-1.73378e-09 -5.94189e-13 -2.28183e-11)
(-1.63889e-09 -4.53384e-13 -1.8082e-11)
(-1.55364e-09 -3.51816e-13 -1.45354e-11)
(-1.47667e-09 -2.77134e-13 -1.18385e-11)
(-1.40687e-09 -2.26493e-13 -9.75801e-12)
(-1.35355e-09 -1.78109e-13 -8.15729e-12)
(2.34175e-07 -2.50656e-10 -2.6435e-08)
(2.50144e-08 1.96372e-10 -2.2716e-08)
(2.08654e-08 3.38221e-10 -1.96755e-08)
(1.76948e-08 2.99926e-10 -1.7198e-08)
(1.50653e-08 2.66956e-10 -1.51546e-08)
(1.28596e-08 2.3889e-10 -1.34509e-08)
(1.09906e-08 2.14856e-10 -1.20163e-08)
(9.39235e-09 1.94114e-10 -1.07975e-08)
(7.96116e-09 1.4897e-10 -9.75373e-09)
(-3.33565e-08 -2.64917e-11 -8.92202e-09)
(2.68642e-13 3.68947e-13 -6.60676e-12)
(2.5129e-13 3.44463e-13 -6.5292e-12)
(2.20346e-13 -5.54631e-14 -6.45236e-12)
(1.90586e-13 -5.62113e-14 -6.37641e-12)
(1.6199e-13 -5.55891e-14 -6.30171e-12)
(1.34488e-13 -5.49328e-14 -6.22828e-12)
(1.0804e-13 -5.43481e-14 -6.15541e-12)
(8.26226e-14 -5.37362e-14 -6.084e-12)
(5.81299e-14 -5.28152e-14 -6.01355e-12)
(3.48337e-14 -3.05692e-14 -5.94465e-12)
(5.41824e-13 3.18952e-13 -8.33976e-12)
(4.98019e-13 2.2619e-13 -8.0338e-12)
(4.26595e-13 -2.05064e-13 -7.7398e-12)
(3.59987e-13 -1.99043e-13 -7.45926e-12)
(2.97944e-13 -1.91963e-13 -7.19141e-12)
(2.40118e-13 -1.85177e-13 -6.935e-12)
(1.86211e-13 -1.7868e-13 -6.68994e-12)
(1.35948e-13 -1.72551e-13 -6.45535e-12)
(8.90416e-14 -1.65715e-13 -6.2308e-12)
(4.56279e-14 -9.41703e-14 -6.01775e-12)
(6.68407e-13 2.29881e-13 -1.06688e-11)
(5.92179e-13 4.07867e-14 -9.98983e-12)
(4.8957e-13 -4.15915e-13 -9.3606e-12)
(3.97953e-13 -3.91734e-13 -8.77923e-12)
(3.16392e-13 -3.67861e-13 -8.24184e-12)
(2.43719e-13 -3.45737e-13 -7.74435e-12)
(1.78914e-13 -3.25266e-13 -7.28343e-12)
(1.2113e-13 -3.06299e-13 -6.85567e-12)
(6.96453e-14 -2.87471e-13 -6.45849e-12)
(2.40394e-14 -1.60853e-13 -6.09241e-12)
(8.71818e-13 7.95827e-14 -1.3849e-11)
(7.44792e-13 -2.44749e-13 -1.25641e-11)
(5.9718e-13 -7.12448e-13 -1.14192e-11)
(4.71274e-13 -6.50841e-13 -1.03982e-11)
(3.64171e-13 -5.93901e-13 -9.48772e-12)
(2.72918e-13 -5.43129e-13 -8.67333e-12)
(1.95125e-13 -4.9764e-13 -7.94326e-12)
(1.28792e-13 -4.56698e-13 -7.28755e-12)
(7.22052e-14 -4.18094e-13 -6.69664e-12)
(2.44462e-14 -2.30138e-13 -6.16825e-12)
(1.15549e-12 -1.67518e-13 -1.82715e-11)
(9.48608e-13 -6.81518e-13 -1.60005e-11)
(7.35279e-13 -1.13019e-12 -1.40616e-11)
(5.61908e-13 -9.99352e-13 -1.23998e-11)
(4.21158e-13 -8.84553e-13 -1.09737e-11)
(3.06577e-13 -7.8568e-13 -9.74363e-12)
(2.13214e-13 -7.00086e-13 -8.67858e-12)
(1.37081e-13 -6.25799e-13 -7.75333e-12)
(7.49467e-14 -5.58585e-13 -6.94609e-12)
(2.47896e-14 -3.02418e-13 -6.24595e-12)
(1.55895e-12 -5.68508e-13 -2.45476e-11)
(1.22518e-12 -1.34854e-12 -2.06585e-11)
(9.14584e-13 -1.72174e-12 -1.74927e-11)
(6.74889e-13 -1.46945e-12 -1.48947e-11)
(4.89485e-13 -1.25857e-12 -1.27554e-11)
(3.45467e-13 -1.08394e-12 -1.09808e-11)
(2.33382e-13 -9.38155e-13 -9.49992e-12)
(1.45992e-13 -8.15867e-13 -8.25704e-12)
(7.78469e-14 -7.09678e-13 -7.20769e-12)
(2.51011e-14 -3.77698e-13 -6.32512e-12)
(2.14632e-12 -1.21829e-12 -3.3653e-11)
(1.6065e-12 -2.3719e-12 -2.70853e-11)
(1.1502e-12 -2.56534e-12 -2.20036e-11)
(8.1685e-13 -2.10621e-12 -1.80325e-11)
(5.71808e-13 -1.74134e-12 -1.49051e-11)
(3.90579e-13 -1.45116e-12 -1.24166e-11)
(2.55935e-13 -1.21808e-12 -1.04187e-11)
(1.5565e-13 -1.0295e-12 -8.80183e-12)
(8.08442e-14 -8.72248e-13 -7.48154e-12)
(2.54982e-14 -4.56295e-13 -6.40599e-12)
(3.04154e-12 -2.28158e-12 -4.7211e-11)
(2.14703e-12 -3.95785e-12 -3.6117e-11)
(1.46711e-12 -3.77878e-12 -2.80166e-11)
(9.98436e-13 -2.97372e-12 -2.20173e-11)
(6.71962e-13 -2.36601e-12 -1.75163e-11)
(4.42329e-13 -1.90386e-12 -1.40902e-11)
(2.7959e-13 -1.54759e-12 -1.14504e-11)
(1.63718e-13 -1.26988e-12 -9.39186e-12)
(8.09481e-14 -1.04704e-12 -7.76904e-12)
(2.23519e-14 -5.38056e-13 -6.48878e-12)
(-8.14719e-12 -4.16162e-12 -7.27762e-11)
(-6.05631e-11 -6.55908e-12 -5.32715e-11)
(-4.94748e-11 -5.61518e-12 -3.98282e-11)
(-4.07891e-11 -4.22627e-12 -3.0375e-11)
(-3.40101e-11 -3.23317e-12 -2.35964e-11)
(-2.86458e-11 -2.51241e-12 -1.86351e-11)
(-2.43488e-11 -1.97975e-12 -1.49387e-11)
(-2.08685e-11 -1.58011e-12 -1.21399e-11)
(-1.80216e-11 -1.27122e-12 -9.98783e-12)
(-1.5621e-11 -6.55127e-13 -8.33763e-12)
(1.40211e-07 -6.8171e-10 -2.73627e-08)
(-3.75496e-09 -5.65508e-10 -2.34196e-08)
(-3.58099e-09 -3.43247e-10 -2.01999e-08)
(-3.26354e-09 -3.02697e-10 -1.75964e-08)
(-2.98241e-09 -2.69065e-10 -1.54627e-08)
(-2.73639e-09 -2.40572e-10 -1.36928e-08)
(-2.52176e-09 -2.16256e-10 -1.22089e-08)
(-2.33457e-09 -1.95363e-10 -1.09527e-08)
(-2.17389e-09 -1.77159e-10 -9.88029e-09)
(-2.39426e-09 -1.67658e-10 -9.02591e-09)
(2.28751e-13 3.7454e-13 -1.53727e-13)
(2.15879e-13 3.49101e-13 -1.50661e-13)
(1.8929e-13 -5.10401e-14 -1.47141e-13)
(1.63901e-13 -5.1854e-14 -1.43855e-13)
(1.39613e-13 -5.10695e-14 -1.40812e-13)
(1.16275e-13 -5.0521e-14 -1.37859e-13)
(9.40401e-14 -5.00057e-14 -1.34938e-13)
(7.27056e-14 -4.93285e-14 -1.32563e-13)
(5.22775e-14 -4.85506e-14 -1.29968e-13)
(3.2939e-14 -2.54595e-14 -1.27652e-13)
(5.00219e-13 3.39871e-13 -2.14675e-13)
(4.61793e-13 2.42802e-13 -2.03111e-13)
(3.95534e-13 -1.89089e-13 -1.91531e-13)
(3.33825e-13 -1.83389e-13 -1.80682e-13)
(2.76462e-13 -1.7677e-13 -1.7094e-13)
(2.23045e-13 -1.70419e-13 -1.61703e-13)
(1.73373e-13 -1.64271e-13 -1.53024e-13)
(1.27068e-13 -1.58491e-13 -1.44938e-13)
(8.39133e-14 -1.5215e-13 -1.37868e-13)
(4.41158e-14 -7.89508e-14 -1.30641e-13)
(6.18103e-13 2.73431e-13 -3.06962e-13)
(5.49282e-13 7.38079e-14 -2.78782e-13)
(4.53598e-13 -3.8462e-13 -2.53141e-13)
(3.68271e-13 -3.61984e-13 -2.30003e-13)
(2.92506e-13 -3.39392e-13 -2.09542e-13)
(2.25175e-13 -3.18649e-13 -1.90918e-13)
(1.65243e-13 -2.99516e-13 -1.74582e-13)
(1.11947e-13 -2.8181e-13 -1.59792e-13)
(6.44271e-14 -2.64048e-13 -1.46207e-13)
(2.25673e-14 -1.35018e-13 -1.34774e-13)
(8.10924e-13 1.57097e-13 -4.47702e-13)
(6.9403e-13 -1.89533e-13 -3.89765e-13)
(5.55499e-13 -6.6123e-13 -3.39497e-13)
(4.37589e-13 -6.03195e-13 -2.95845e-13)
(3.37674e-13 -5.49411e-13 -2.59124e-13)
(2.52773e-13 -5.01634e-13 -2.27442e-13)
(1.80595e-13 -4.58831e-13 -2.00371e-13)
(1.19217e-13 -4.20674e-13 -1.77109e-13)
(6.69695e-14 -3.84528e-13 -1.56693e-13)
(2.30043e-14 -1.93817e-13 -1.39297e-13)
(1.0823e-12 -3.93696e-14 -6.69073e-13)
(8.8848e-13 -5.96785e-13 -5.55117e-13)
(6.86998e-13 -1.05342e-12 -4.62051e-13)
(5.23674e-13 -9.29535e-13 -3.85557e-13)
(3.91707e-13 -8.20597e-13 -3.23631e-13)
(2.84705e-13 -7.2739e-13 -2.72943e-13)
(1.9781e-13 -6.46894e-13 -2.31484e-13)
(1.27151e-13 -5.77259e-13 -1.97292e-13)
(6.97079e-14 -5.14154e-13 -1.68595e-13)
(2.34672e-14 -2.55193e-13 -1.44885e-13)
(1.47184e-12 -3.65492e-13 -1.02687e-12)
(1.15452e-12 -1.22634e-12 -8.05798e-13)
(8.5874e-13 -1.61244e-12 -6.38343e-13)
(6.31478e-13 -1.37236e-12 -5.07802e-13)
(4.56737e-13 -1.17141e-12 -4.07838e-13)
(3.21673e-13 -1.00603e-12 -3.29955e-13)
(2.17016e-13 -8.68524e-13 -2.69111e-13)
(1.35777e-13 -7.53687e-13 -2.2113e-13)
(7.25407e-14 -6.53986e-13 -1.82135e-13)
(2.39141e-14 -3.19741e-13 -1.51698e-13)
(2.04533e-12 -9.01857e-13 -1.6176e-12)
(1.5247e-12 -2.20323e-12 -1.19553e-12)
(1.08611e-12 -2.41668e-12 -8.95522e-13)
(7.6785e-13 -1.97616e-12 -6.76239e-13)
(5.356e-13 -1.62661e-12 -5.17925e-13)
(3.64789e-13 -1.35073e-12 -4.01233e-13)
(2.38618e-13 -1.1301e-12 -3.1428e-13)
(1.45029e-13 -9.52704e-13 -2.48641e-13)
(7.54867e-14 -8.04778e-13 -1.97648e-13)
(2.43912e-14 -3.87237e-13 -1.59587e-13)
(2.92502e-12 -1.79387e-12 -2.63033e-12)
(2.05049e-12 -3.73702e-12 -1.81385e-12)
(1.39184e-12 -3.58378e-12 -1.27758e-12)
(9.42115e-13 -2.80464e-12 -9.11598e-13)
(6.3181e-13 -2.21938e-12 -6.63811e-13)
(4.15276e-13 -1.77781e-12 -4.90954e-13)
(2.62934e-13 -1.43945e-12 -3.68691e-13)
(1.55147e-13 -1.17741e-12 -2.80421e-13)
(7.86513e-14 -9.67303e-13 -2.15587e-13)
(2.48496e-14 -4.58006e-13 -1.68038e-13)
(6.73581e-11 -3.32395e-12 -4.35168e-12)
(2.04227e-12 -6.20892e-12 -2.77315e-12)
(1.14927e-12 -5.29992e-12 -1.82542e-12)
(7.03087e-13 -3.95128e-12 -1.23076e-12)
(4.13978e-13 -2.99517e-12 -8.55621e-13)
(2.25517e-13 -2.30882e-12 -6.10614e-13)
(1.0231e-13 -1.80586e-12 -4.46869e-13)
(2.21128e-14 -1.43169e-12 -3.35056e-13)
(-2.99169e-14 -1.14374e-12 -2.56554e-13)
(-6.11566e-14 -5.33201e-13 -2.01999e-13)
(1.24629e-07 -2.19131e-10 -9.7738e-10)
(7.39317e-11 -2.03046e-10 -7.14328e-10)
(-7.20301e-11 -2.72378e-11 -5.31139e-10)
(-5.73173e-11 -2.00226e-11 -4.02887e-10)
(-4.61013e-11 -1.5283e-11 -3.11099e-10)
(-3.75374e-11 -1.18628e-11 -2.44019e-10)
(-3.09167e-11 -9.34637e-12 -1.94092e-10)
(-2.57417e-11 -7.46408e-12 -1.5632e-10)
(-2.16926e-11 -6.02467e-12 -1.27326e-10)
(-2.03821e-11 -4.51707e-12 -1.04444e-10)
(2.26975e-13 3.74623e-13 -9.37901e-15)
(2.14311e-13 3.48831e-13 -8.53983e-15)
(1.87949e-13 -5.12671e-14 -6.61826e-15)
(1.62713e-13 -5.19133e-14 -5.49149e-15)
(1.38616e-13 -5.12469e-14 -4.20714e-15)
(1.1554e-13 -5.06281e-14 -3.21308e-15)
(9.34634e-14 -4.98969e-14 -2.47143e-15)
(7.22869e-14 -4.92363e-14 -1.69053e-15)
(5.20963e-14 -4.8373e-14 -1.32381e-15)
(3.29088e-14 -2.52641e-14 -1.30706e-15)
(4.98189e-13 3.40753e-13 -1.39099e-14)
(4.60093e-13 2.43302e-13 -1.23585e-14)
(3.94128e-13 -1.88708e-13 -1.02075e-14)
(3.32673e-13 -1.82968e-13 -8.22881e-15)
(2.75551e-13 -1.76204e-13 -6.41092e-15)
(2.22371e-13 -1.69902e-13 -5.30685e-15)
(1.72936e-13 -1.63812e-13 -4.19224e-15)
(1.26828e-13 -1.57866e-13 -3.39181e-15)
(8.38571e-14 -1.5147e-13 -2.82564e-15)
(4.4257e-14 -7.82338e-14 -2.41004e-15)
(6.15525e-13 2.75726e-13 -2.2627e-14)
(5.4729e-13 7.52933e-14 -1.99572e-14)
(4.52015e-13 -3.83311e-13 -1.64334e-14)
(3.67048e-13 -3.60662e-13 -1.33402e-14)
(2.91627e-13 -3.38278e-13 -1.11174e-14)
(2.24568e-13 -3.17515e-13 -9.05175e-15)
(1.64927e-13 -2.98276e-13 -7.51214e-15)
(1.11861e-13 -2.80738e-13 -6.39511e-15)
(6.45504e-14 -2.629e-13 -5.3252e-15)
(2.28721e-14 -1.33719e-13 -5.16736e-15)
(8.07626e-13 1.61883e-13 -3.81422e-14)
(6.91616e-13 -1.86331e-13 -3.3464e-14)
(5.53723e-13 -6.58739e-13 -2.77076e-14)
(4.36355e-13 -6.00901e-13 -2.25296e-14)
(3.3684e-13 -5.47253e-13 -1.86199e-14)
(2.52336e-13 -4.99687e-13 -1.566e-14)
(1.80461e-13 -4.57061e-13 -1.3017e-14)
(1.1935e-13 -4.18958e-13 -1.10654e-14)
(6.73322e-14 -3.82899e-13 -9.67998e-15)
(2.34673e-14 -1.92261e-13 -8.63769e-15)
(1.07807e-12 -3.05994e-14 -6.69277e-14)
(8.85656e-13 -5.91314e-13 -5.69363e-14)
(6.85046e-13 -1.049e-12 -4.58728e-14)
(5.2251e-13 -9.25798e-13 -3.74502e-14)
(3.91085e-13 -8.175e-13 -3.0677e-14)
(2.84487e-13 -7.24548e-13 -2.51579e-14)
(1.97928e-13 -6.44289e-13 -2.1279e-14)
(1.27555e-13 -5.75031e-13 -1.83569e-14)
(7.02017e-14 -5.12292e-13 -1.59824e-14)
(2.41273e-14 -2.53328e-13 -1.40381e-14)
(1.46616e-12 -3.49511e-13 -1.17264e-13)
(1.15119e-12 -1.2173e-12 -9.65301e-14)
(8.56726e-13 -1.60572e-12 -7.62615e-14)
(6.30454e-13 -1.36684e-12 -6.09602e-14)
(4.56408e-13 -1.16705e-12 -4.92033e-14)
(3.21817e-13 -1.00242e-12 -4.01392e-14)
(2.17476e-13 -8.654e-13 -3.32602e-14)
(1.364e-13 -7.51249e-13 -2.79508e-14)
(7.32907e-14 -6.51924e-13 -2.35198e-14)
(2.47549e-14 -3.17565e-13 -2.04617e-14)
(2.03766e-12 -8.73297e-13 -2.07274e-13)
(1.52062e-12 -2.18875e-12 -1.63873e-13)
(1.08411e-12 -2.40665e-12 -1.2495e-13)
(7.67068e-13 -1.96861e-12 -9.72274e-14)
(5.35618e-13 -1.62101e-12 -7.64517e-14)
(3.65343e-13 -1.34634e-12 -6.10046e-14)
(2.39424e-13 -1.1267e-12 -4.94052e-14)
(1.45971e-13 -9.5012e-13 -4.05837e-14)
(7.65758e-14 -8.02715e-13 -3.38989e-14)
(2.5367e-14 -3.85079e-13 -2.85128e-14)
(2.91407e-12 -1.7428e-12 -3.7083e-13)
(2.04511e-12 -3.71445e-12 -2.76462e-13)
(1.3897e-12 -3.56946e-12 -2.03202e-13)
(9.41703e-13 -2.79499e-12 -1.51652e-13)
(6.32379e-13 -2.21248e-12 -1.15554e-13)
(4.16344e-13 -1.77298e-12 -8.98097e-14)
(2.64182e-13 -1.43601e-12 -7.05878e-14)
(1.56465e-13 -1.17485e-12 -5.67207e-14)
(7.99691e-14 -9.65689e-13 -4.6333e-14)
(2.61101e-14 -4.56071e-13 -3.79776e-14)
(7.13858e-11 -3.23303e-12 -6.67999e-13)
(2.9737e-12 -6.17577e-12 -4.64976e-13)
(1.79383e-12 -5.27997e-12 -3.25451e-13)
(1.15807e-12 -3.93909e-12 -2.33327e-13)
(7.44192e-13 -2.98736e-12 -1.71263e-13)
(4.70484e-13 -2.30373e-12 -1.28698e-13)
(2.87332e-13 -1.80243e-12 -9.84559e-14)
(1.63801e-13 -1.42921e-12 -7.6846e-14)
(7.99603e-14 -1.14181e-12 -6.10317e-14)
(2.36412e-14 -5.30594e-13 -4.93244e-14)
(1.27957e-07 -1.92833e-10 -5.45077e-11)
(1.74371e-10 -1.85318e-10 -1.1427e-11)
(8.77967e-13 -8.67373e-12 -7.22923e-12)
(4.44438e-13 -5.77291e-12 -4.72801e-12)
(2.73054e-13 -4.16744e-12 -3.19822e-12)
(1.61265e-13 -3.07659e-12 -2.22303e-12)
(8.82562e-14 -2.31555e-12 -1.58061e-12)
(4.01458e-14 -1.77347e-12 -1.1444e-12)
(8.11141e-15 -1.37383e-12 -8.42489e-13)
(-1.91859e-14 -6.39996e-13 -6.19591e-13)
(2.27399e-13 3.74484e-13 -1.07887e-14)
(2.14659e-13 3.48295e-13 -9.76266e-15)
(1.88246e-13 -5.19584e-14 -7.46e-15)
(1.62942e-13 -5.25265e-14 -5.53366e-15)
(1.38794e-13 -5.16936e-14 -4.0822e-15)
(1.15657e-13 -5.09362e-14 -2.86265e-15)
(9.35835e-14 -5.03422e-14 -2.02588e-15)
(7.24551e-14 -4.95209e-14 -1.06318e-15)
(5.2205e-14 -4.84413e-14 -4.83722e-16)
(3.3009e-14 -2.54051e-14 -2.49196e-16)
(4.99216e-13 3.40418e-13 -1.60695e-14)
(4.60971e-13 2.4253e-13 -1.42063e-14)
(3.94871e-13 -1.89573e-13 -1.10594e-14)
(3.33248e-13 -1.83807e-13 -8.83289e-15)
(2.76074e-13 -1.769e-13 -6.33329e-15)
(2.22815e-13 -1.70332e-13 -4.86872e-15)
(1.73314e-13 -1.64113e-13 -3.65724e-15)
(1.27226e-13 -1.58172e-13 -2.984e-15)
(8.42049e-14 -1.51719e-13 -2.18771e-15)
(4.46067e-14 -7.83054e-14 -1.61771e-15)
(6.17293e-13 2.75118e-13 -2.60091e-14)
(5.48844e-13 7.41018e-14 -2.28797e-14)
(4.5333e-13 -3.84703e-13 -1.85834e-14)
(3.68133e-13 -3.61797e-13 -1.46681e-14)
(2.92576e-13 -3.39024e-13 -1.18576e-14)
(2.25417e-13 -3.18203e-13 -9.65287e-15)
(1.65638e-13 -2.98866e-13 -7.78134e-15)
(1.12497e-13 -2.81125e-13 -6.4946e-15)
(6.51371e-14 -2.63125e-13 -5.7902e-15)
(2.34189e-14 -1.33928e-13 -5.06301e-15)
(8.1073e-13 1.60736e-13 -4.45544e-14)
(6.94306e-13 -1.88299e-13 -3.88601e-14)
(5.55906e-13 -6.60806e-13 -3.18827e-14)
(4.38193e-13 -6.02701e-13 -2.60234e-14)
(3.3839e-13 -5.48613e-13 -2.13198e-14)
(2.53609e-13 -5.008e-13 -1.76001e-14)
(1.81592e-13 -4.57998e-13 -1.506e-14)
(1.20349e-13 -4.19684e-13 -1.28809e-14)
(6.82321e-14 -3.83464e-13 -1.11647e-14)
(2.42591e-14 -1.92408e-13 -1.0202e-14)
(1.08327e-12 -3.28773e-14 -7.7757e-14)
(8.90009e-13 -5.951e-13 -6.70902e-14)
(6.88559e-13 -1.05276e-12 -5.43781e-14)
(5.25355e-13 -9.28746e-13 -4.42451e-14)
(3.93443e-13 -8.19889e-13 -3.6696e-14)
(2.86441e-13 -7.26529e-13 -3.04914e-14)
(1.99592e-13 -6.45799e-13 -2.5583e-14)
(1.28942e-13 -5.7619e-13 -2.19003e-14)
(7.14295e-14 -5.13213e-13 -1.91441e-14)
(2.51701e-14 -2.53903e-13 -1.686e-14)
(1.47486e-12 -3.54286e-13 -1.37207e-13)
(1.1582e-12 -1.22429e-12 -1.14423e-13)
(8.62211e-13 -1.61213e-12 -9.13813e-14)
(6.34787e-13 -1.37204e-12 -7.32429e-14)
(4.59849e-13 -1.17112e-12 -5.94623e-14)
(3.24629e-13 -1.00571e-12 -4.9206e-14)
(2.19742e-13 -8.68128e-13 -4.07146e-14)
(1.38272e-13 -7.53406e-13 -3.43571e-14)
(7.4847e-14 -6.53676e-13 -2.94663e-14)
(2.60179e-14 -3.18546e-13 -2.53888e-14)
(2.05229e-12 -8.82891e-13 -2.42437e-13)
(1.53188e-12 -2.20218e-12 -1.9476e-13)
(1.09252e-12 -2.41832e-12 -1.51062e-13)
(7.73466e-13 -1.97764e-12 -1.17931e-13)
(5.40554e-13 -1.62808e-12 -9.39932e-14)
(3.69174e-13 -1.352e-12 -7.55434e-14)
(2.42425e-13 -1.13119e-12 -6.14436e-14)
(1.48384e-13 -9.5362e-13 -5.07794e-14)
(7.8495e-14 -8.05664e-13 -4.27049e-14)
(2.6955e-14 -3.86814e-13 -3.60394e-14)
(2.93859e-12 -1.76228e-12 -4.31034e-13)
(2.06306e-12 -3.74022e-12 -3.30026e-13)
(1.40251e-12 -3.5902e-12 -2.45469e-13)
(9.51038e-13 -2.81065e-12 -1.86171e-13)
(6.39251e-13 -2.22448e-12 -1.43564e-13)
(4.21501e-13 -1.7823e-12 -1.12359e-13)
(2.68113e-13 -1.44331e-12 -8.93147e-14)
(1.59479e-13 -1.18057e-12 -7.19506e-14)
(8.22687e-14 -9.70198e-13 -5.88092e-14)
(2.79122e-14 -4.58745e-13 -4.90818e-14)
(7.17617e-11 -3.27197e-12 -7.74597e-13)
(3.01859e-12 -6.22461e-12 -5.58606e-13)
(1.81897e-12 -5.31712e-12 -3.96843e-13)
(1.17497e-12 -3.96607e-12 -2.88554e-13)
(7.55892e-13 -3.00724e-12 -2.14534e-13)
(4.7877e-13 -2.31862e-12 -1.62704e-13)
(2.93355e-13 -1.81377e-12 -1.25334e-13)
(1.68206e-13 -1.43801e-12 -9.84712e-14)
(8.32304e-14 -1.14879e-12 -7.83589e-14)
(2.6043e-14 -5.34542e-13 -6.34698e-14)
(1.32033e-07 -1.91915e-10 -1.53031e-11)
(1.82203e-10 -1.85673e-10 -1.14599e-12)
(1.90441e-12 -8.39386e-12 -6.9757e-13)
(1.15008e-12 -5.58029e-12 -4.75574e-13)
(7.6487e-13 -4.03794e-12 -3.34666e-13)
(5.1257e-13 -2.98729e-12 -2.42414e-13)
(3.44043e-13 -2.25277e-12 -1.80055e-13)
(2.29673e-13 -1.72867e-12 -1.36284e-13)
(1.51035e-13 -1.34137e-12 -1.05067e-13)
(9.68714e-14 -6.14368e-13 -8.25203e-14)
(2.27952e-13 3.7419e-13 -1.36517e-14)
(2.15112e-13 3.47508e-13 -1.18481e-14)
(1.88589e-13 -5.29415e-14 -9.3996e-15)
(1.6326e-13 -5.32525e-14 -6.90157e-15)
(1.38986e-13 -5.23044e-14 -5.07925e-15)
(1.1585e-13 -5.14424e-14 -3.23899e-15)
(9.37081e-14 -5.06091e-14 -2.02588e-15)
(7.25773e-14 -4.98488e-14 -1.33573e-15)
(5.23534e-14 -4.86955e-14 -6.64965e-16)
(3.31171e-14 -2.53532e-14 -4.12883e-16)
(5.00546e-13 3.39914e-13 -2.01561e-14)
(4.62119e-13 2.41339e-13 -1.76934e-14)
(3.95819e-13 -1.90786e-13 -1.36901e-14)
(3.3406e-13 -1.84807e-13 -1.07439e-14)
(2.76726e-13 -1.77754e-13 -8.23188e-15)
(2.23387e-13 -1.70952e-13 -6.02403e-15)
(1.73797e-13 -1.64553e-13 -4.41024e-15)
(1.27644e-13 -1.58444e-13 -3.24013e-15)
(8.46629e-14 -1.52013e-13 -2.69484e-15)
(4.49947e-14 -7.8494e-14 -2.32309e-15)
(6.19663e-13 2.7423e-13 -3.24702e-14)
(5.50895e-13 7.24151e-14 -2.84942e-14)
(4.5506e-13 -3.86444e-13 -2.28617e-14)
(3.69578e-13 -3.63263e-13 -1.85722e-14)
(2.93833e-13 -3.40239e-13 -1.46835e-14)
(2.26451e-13 -3.19123e-13 -1.1751e-14)
(1.66623e-13 -2.99537e-13 -9.52924e-15)
(1.1335e-13 -2.81558e-13 -8.23506e-15)
(6.59135e-14 -2.6351e-13 -7.10316e-15)
(2.41856e-14 -1.34189e-13 -6.27229e-15)
(8.14764e-13 1.59009e-13 -5.59168e-14)
(6.97784e-13 -1.91174e-13 -4.84196e-14)
(5.58769e-13 -6.63592e-13 -3.93693e-14)
(4.40583e-13 -6.04973e-13 -3.23187e-14)
(3.40426e-13 -5.50562e-13 -2.64685e-14)
(2.55373e-13 -5.02197e-13 -2.17306e-14)
(1.83094e-13 -4.59022e-13 -1.86249e-14)
(1.21658e-13 -4.20618e-13 -1.61164e-14)
(6.93539e-14 -3.84091e-13 -1.40902e-14)
(2.52735e-14 -1.92806e-13 -1.25319e-14)
(1.09012e-12 -3.61227e-14 -9.72712e-14)
(8.95732e-13 -6.00054e-13 -8.32797e-14)
(6.93155e-13 -1.05752e-12 -6.76827e-14)
(5.29076e-13 -9.32586e-13 -5.52843e-14)
(3.96491e-13 -8.22952e-13 -4.56876e-14)
(2.89046e-13 -7.29089e-13 -3.82194e-14)
(2.01684e-13 -6.47896e-13 -3.18669e-14)
(1.30748e-13 -5.77839e-13 -2.73285e-14)
(7.29604e-14 -5.14561e-13 -2.35949e-14)
(2.64489e-14 -2.54669e-13 -2.08357e-14)
(1.4864e-12 -3.61002e-13 -1.71601e-13)
(1.16743e-12 -1.23383e-12 -1.42962e-13)
(8.69404e-13 -1.62071e-12 -1.13876e-13)
(6.40392e-13 -1.37886e-12 -9.1395e-14)
(4.64332e-13 -1.17648e-12 -7.43167e-14)
(3.282e-13 -1.01006e-12 -6.12287e-14)
(2.22666e-13 -8.71655e-13 -5.08406e-14)
(1.40661e-13 -7.56185e-13 -4.27666e-14)
(7.68316e-14 -6.56023e-13 -3.6628e-14)
(2.76844e-14 -3.199e-13 -3.16853e-14)
(2.07159e-12 -8.96564e-13 -3.03614e-13)
(1.54667e-12 -2.22014e-12 -2.4319e-13)
(1.10352e-12 -2.43365e-12 -1.8845e-13)
(7.81817e-13 -1.98958e-12 -1.47505e-13)
(5.46977e-13 -1.63735e-12 -1.17345e-13)
(3.74133e-13 -1.35942e-12 -9.43721e-14)
(2.46372e-13 -1.13709e-12 -7.69043e-14)
(1.51475e-13 -9.58329e-13 -6.31994e-14)
(8.0968e-14 -8.0945e-13 -5.30063e-14)
(2.89805e-14 -3.89037e-13 -4.48769e-14)
(2.97145e-12 -1.78973e-12 -5.40044e-13)
(2.08678e-12 -3.77463e-12 -4.13072e-13)
(1.41934e-12 -3.61783e-12 -3.07467e-13)
(9.63259e-13 -2.83128e-12 -2.33018e-13)
(6.48251e-13 -2.2402e-12 -1.79536e-13)
(4.28251e-13 -1.79442e-12 -1.40623e-13)
(2.73208e-13 -1.45281e-12 -1.11843e-13)
(1.63394e-13 -1.18812e-12 -8.97572e-14)
(8.52828e-14 -9.76119e-13 -7.32271e-14)
(3.02896e-14 -4.62135e-13 -6.08873e-14)
(7.26241e-11 -3.32838e-12 -9.76115e-13)
(3.05828e-12 -6.29048e-12 -7.00856e-13)
(1.84485e-12 -5.36644e-12 -4.9834e-13)
(1.19279e-12 -4.0015e-12 -3.62352e-13)
(7.68391e-13 -3.03327e-12 -2.69369e-13)
(4.87741e-13 -2.33822e-12 -2.03898e-13)
(2.99878e-13 -1.82868e-12 -1.57023e-13)
(1.73027e-13 -1.44948e-12 -1.23134e-13)
(8.68077e-14 -1.15769e-12 -9.79079e-14)
(2.87271e-14 -5.39694e-13 -7.93503e-14)
(1.34625e-07 -1.98218e-10 -4.91911e-11)
(1.86661e-10 -1.8789e-10 -1.28166e-12)
(1.95474e-12 -8.48074e-12 -8.038e-13)
(1.17232e-12 -5.63824e-12 -5.56937e-13)
(7.79754e-13 -4.07903e-12 -3.96484e-13)
(5.2287e-13 -3.01698e-12 -2.8945e-13)
(3.5139e-13 -2.27477e-12 -2.1595e-13)
(2.35053e-13 -1.74532e-12 -1.64084e-13)
(1.55053e-13 -1.35404e-12 -1.26771e-13)
(9.99358e-14 -6.21465e-13 -1.00139e-13)
(2.28638e-13 3.73736e-13 -1.63836e-14)
(2.15729e-13 3.46602e-13 -1.42139e-14)
(1.89026e-13 -5.39186e-14 -1.10246e-14)
(1.63613e-13 -5.42417e-14 -8.42946e-15)
(1.39321e-13 -5.31484e-14 -6.03918e-15)
(1.16104e-13 -5.21509e-14 -4.07435e-15)
(9.39508e-14 -5.10991e-14 -2.4185e-15)
(7.27473e-14 -5.00628e-14 -1.42167e-15)
(5.25185e-14 -4.88115e-14 -1.1989e-15)
(3.33055e-14 -2.54674e-14 -1.78468e-15)
(5.02173e-13 3.39302e-13 -2.41443e-14)
(4.63564e-13 2.39991e-13 -2.08795e-14)
(3.96968e-13 -1.92285e-13 -1.66207e-14)
(3.35041e-13 -1.8595e-13 -1.28139e-14)
(2.77558e-13 -1.78769e-13 -1.0049e-14)
(2.24116e-13 -1.71849e-13 -7.37631e-15)
(1.7446e-13 -1.65231e-13 -5.67443e-15)
(1.28274e-13 -1.58866e-13 -4.17014e-15)
(8.51868e-14 -1.52096e-13 -3.15509e-15)
(4.55084e-14 -7.85473e-14 -3.7963e-15)
(6.22565e-13 2.73168e-13 -3.915e-14)
(5.53389e-13 7.03493e-14 -3.39667e-14)
(4.5713e-13 -3.8853e-13 -2.72221e-14)
(3.71345e-13 -3.65003e-13 -2.21257e-14)
(2.95293e-13 -3.41715e-13 -1.75801e-14)
(2.27769e-13 -3.20279e-13 -1.43313e-14)
(1.67773e-13 -3.00315e-13 -1.16739e-14)
(1.14446e-13 -2.82159e-13 -9.99189e-15)
(6.68732e-14 -2.6398e-13 -8.82394e-15)
(2.49858e-14 -1.34418e-13 -8.25993e-15)
(8.19762e-13 1.56928e-13 -6.67832e-14)
(7.02024e-13 -1.94669e-13 -5.76036e-14)
(5.62284e-13 -6.66961e-13 -4.68966e-14)
(4.43477e-13 -6.07736e-13 -3.83882e-14)
(3.429e-13 -5.5283e-13 -3.1674e-14)
(2.57507e-13 -5.04032e-13 -2.66676e-14)
(1.84912e-13 -4.60385e-13 -2.2347e-14)
(1.23216e-13 -4.21658e-13 -1.92805e-14)
(7.07355e-14 -3.8508e-13 -1.69995e-14)
(2.64896e-14 -1.93359e-13 -1.52544e-14)
(1.09855e-12 -4.02797e-14 -1.17322e-13)
(9.02716e-13 -6.06282e-13 -9.92158e-14)
(6.98774e-13 -1.06331e-12 -8.04003e-14)
(5.33613e-13 -9.37277e-13 -6.56661e-14)
(4.00247e-13 -8.2671e-13 -5.42671e-14)
(2.9216e-13 -7.32231e-13 -4.5642e-14)
(2.04328e-13 -6.50429e-13 -3.83971e-14)
(1.32918e-13 -5.79853e-13 -3.29454e-14)
(7.48345e-14 -5.16179e-13 -2.85015e-14)
(2.81014e-14 -2.55654e-13 -2.5622e-14)
(1.50059e-12 -3.69279e-13 -2.07025e-13)
(1.17871e-12 -1.24536e-12 -1.70297e-13)
(8.78147e-13 -1.63108e-12 -1.3566e-13)
(6.47296e-13 -1.38713e-12 -1.09228e-13)
(4.69814e-13 -1.18309e-12 -8.90518e-14)
(3.32622e-13 -1.01539e-12 -7.36955e-14)
(2.26283e-13 -8.76013e-13 -6.11961e-14)
(1.43579e-13 -7.59703e-13 -5.13542e-14)
(7.92735e-14 -6.588e-13 -4.41218e-14)
(2.9692e-14 -3.21588e-13 -3.84506e-14)
(2.09552e-12 -9.13462e-13 -3.66622e-13)
(1.56479e-12 -2.24223e-12 -2.90062e-13)
(1.11705e-12 -2.45229e-12 -2.24821e-13)
(7.92077e-13 -2.00409e-12 -1.76721e-13)
(5.54829e-13 -1.64875e-12 -1.40647e-13)
(3.80269e-13 -1.36845e-12 -1.13601e-13)
(2.51176e-13 -1.14442e-12 -9.27354e-14)
(1.55276e-13 -9.64143e-13 -7.58504e-14)
(8.39791e-14 -8.14116e-13 -6.37438e-14)
(3.14124e-14 -3.91807e-13 -5.44163e-14)
(3.01232e-12 -1.82389e-12 -6.52908e-13)
(2.11591e-12 -3.81668e-12 -4.9365e-13)
(1.44016e-12 -3.65155e-12 -3.68839e-13)
(9.78324e-13 -2.85667e-12 -2.79657e-13)
(6.59343e-13 -2.25949e-12 -2.15657e-13)
(4.36515e-13 -1.80932e-12 -1.6924e-13)
(2.79457e-13 -1.46461e-12 -1.34654e-13)
(1.68195e-13 -1.19741e-12 -1.07627e-13)
(8.89659e-14 -9.83417e-13 -8.78221e-14)
(3.31663e-14 -4.66403e-13 -7.31789e-14)
(7.57812e-11 -3.39521e-12 -1.15532e-12)
(3.11164e-12 -6.37161e-12 -8.41323e-13)
(1.87659e-12 -5.42693e-12 -5.99649e-13)
(1.21468e-12 -4.04526e-12 -4.36234e-13)
(7.83822e-13 -3.06551e-12 -3.24409e-13)
(4.9877e-13 -2.36234e-12 -2.45612e-13)
(3.07898e-13 -1.84705e-12 -1.89718e-13)
(1.78931e-13 -1.46359e-12 -1.47959e-13)
(9.11847e-14 -1.1687e-12 -1.17517e-13)
(3.20204e-14 -5.45967e-13 -9.53218e-14)
(1.50282e-07 -1.97828e-10 2.09371e-11)
(2.01773e-10 -1.96026e-10 -1.12815e-12)
(1.97801e-12 -8.60466e-12 -9.66433e-13)
(1.19193e-12 -5.71229e-12 -6.71297e-13)
(7.93432e-13 -4.13137e-12 -4.78687e-13)
(5.32659e-13 -3.05483e-12 -3.49327e-13)
(3.5857e-13 -2.30277e-12 -2.60759e-13)
(2.4041e-13 -1.7664e-12 -1.98123e-13)
(1.59112e-13 -1.36991e-12 -1.52245e-13)
(1.03087e-13 -6.30336e-13 -1.20621e-13)
(2.29383e-13 3.73296e-13 -1.84156e-14)
(2.16187e-13 3.45402e-13 -1.34124e-14)
(1.89476e-13 -5.52158e-14 -1.04639e-14)
(1.63965e-13 -5.52198e-14 -8.19879e-15)
(1.3966e-13 -5.40389e-14 -7.29971e-15)
(1.1645e-13 -5.28996e-14 -7.15787e-15)
(9.43312e-14 -5.17084e-14 -8.31768e-15)
(7.32516e-14 -5.04674e-14 -1.82067e-14)
(5.33138e-14 -4.91249e-14 -7.25987e-14)
(3.41985e-14 -2.76931e-14 -2.5207e-13)
(5.04011e-13 3.38503e-13 -2.64549e-14)
(4.64889e-13 2.38523e-13 -1.85052e-14)
(3.98156e-13 -1.93842e-13 -1.53086e-14)
(3.36062e-13 -1.87322e-13 -1.23009e-14)
(2.78467e-13 -1.7988e-13 -1.06407e-14)
(2.25e-13 -1.72732e-13 -1.03296e-14)
(1.75306e-13 -1.65948e-13 -1.10369e-14)
(1.29136e-13 -1.59753e-13 -1.70051e-14)
(8.62185e-14 -1.53198e-13 -4.63836e-14)
(4.64806e-14 -8.24716e-14 -1.63757e-13)
(6.25801e-13 2.7185e-13 -4.31233e-14)
(5.55894e-13 6.8107e-14 -3.12981e-14)
(4.59263e-13 -3.90769e-13 -2.55797e-14)
(3.73209e-13 -3.66864e-13 -2.14458e-14)
(2.96979e-13 -3.43234e-13 -1.8298e-14)
(2.29357e-13 -3.21536e-13 -1.74106e-14)
(1.69222e-13 -3.01494e-13 -1.79051e-14)
(1.15769e-13 -2.83119e-13 -2.03352e-14)
(6.82715e-14 -2.65365e-13 -3.72689e-14)
(2.6256e-14 -1.38828e-13 -1.1088e-13)
(8.25389e-13 1.54618e-13 -7.38992e-14)
(7.06336e-13 -1.98135e-13 -5.49206e-14)
(5.65917e-13 -6.70423e-13 -4.53125e-14)
(4.46595e-13 -6.1056e-13 -3.82739e-14)
(3.45646e-13 -5.55058e-13 -3.33385e-14)