/*--------------------------------*- C++ -*----------------------------------*\
| =========                 |                                                 |
| \\      /  F ield         | OpenFOAM: The Open Source CFD Toolbox           |
|  \\    /   O peration     | Version:  4.1                                   |
|   \\  /    A nd           | Web:      www.OpenFOAM.org                      |
|    \\/     M anipulation  |                                                 |
\*---------------------------------------------------------------------------*/
FoamFile
{
    version     2.0;
    format      ascii;
    class       volVectorField;
    location    "0.56";
    object      U;
}
// * * * * * * * * * * * * * * * * * * * * * * * * * * * * * * * * * * * * * //

dimensions      [0 1 -1 0 0 0 0];

internalField   nonuniform List<vector> 
52500
(
(3 1.59958e-08 -0.00571424)
(3 3.51094e-08 -0.00571425)
(3 7.17644e-08 -0.00571428)
(2.99999 1.38895e-07 -0.00571437)
(2.99997 3.33527e-07 -0.00571453)
(2.99992 7.20101e-07 -0.00571503)
(2.99982 1.88345e-06 -0.00571602)
(2.9995 4.15243e-06 -0.005719)
(2.99889 1.14636e-05 -0.00572525)
(2.99681 2.4479e-05 -0.00574183)
(2.99326 7.73961e-05 -0.00578697)
(2.97858 0.000155044 -0.00587198)
(2.95268 0.000573242 -0.00623978)
(2.84675 0.00120455 -0.00674915)
(2.55471 0.00484289 -0.00940082)
(1.77818 0.0117677 -0.014874)
(0.681879 0.035317 -0.019061)
(0.263987 0.0309057 -0.0192555)
(0.457283 0.0315069 -0.020058)
(0.466821 0.0347158 -0.0209161)
(0.354055 0.0370131 -0.021838)
(0.226499 0.0390476 -0.0214292)
(0.191117 0.0393002 -0.0184762)
(0.130354 0.0404576 -0.0179728)
(0.0473509 0.0383028 -0.0181639)
(3 4.77989e-08 -0.00571424)
(3 1.04757e-07 -0.00571425)
(3 2.14335e-07 -0.00571428)
(2.99999 4.15775e-07 -0.00571436)
(2.99997 9.99285e-07 -0.00571452)
(2.99992 2.15969e-06 -0.00571502)
(2.99982 5.63629e-06 -0.00571599)
(2.99951 1.24026e-05 -0.00571893)
(2.9989 3.41442e-05 -0.00572505)
(2.99686 7.18607e-05 -0.00574141)
(2.99337 0.000232889 -0.00578563)
(2.97898 0.000449486 -0.00586896)
(2.95358 0.00176095 -0.00622914)
(2.85003 0.00357849 -0.00672701)
(2.56476 0.014993 -0.00931502)
(1.80047 0.0362634 -0.0147241)
(0.695174 0.106825 -0.0188707)
(0.261931 0.0871957 -0.0191349)
(0.459114 0.0829053 -0.0199435)
(0.46988 0.0877555 -0.0207682)
(0.358723 0.0913558 -0.0216839)
(0.230244 0.0948398 -0.0212923)
(0.191701 0.0912181 -0.0183694)
(0.13164 0.0906073 -0.0178444)
(0.0497928 0.0873476 -0.0180399)
(3 7.80567e-08 -0.00571424)
(3 1.70744e-07 -0.00571425)
(3 3.50509e-07 -0.00571428)
(2.99999 6.83687e-07 -0.00571436)
(2.99997 1.64621e-06 -0.00571451)
(2.99993 3.56823e-06 -0.00571499)
(2.99983 9.28773e-06 -0.00571593)
(2.99952 2.04533e-05 -0.00571879)
(2.99894 5.58475e-05 -0.00572469)
(2.99697 0.000116486 -0.00574068)
(2.99357 0.000382395 -0.00578292)
(2.97983 0.000690621 -0.0058632)
(2.95536 0.00296555 -0.00620744)
(2.85699 0.00564892 -0.00668219)
(2.58622 0.0250115 -0.00913814)
(1.85003 0.0604739 -0.0144365)
(0.727474 0.181751 -0.0185808)
(0.263798 0.147285 -0.0189718)
(0.465868 0.139295 -0.019807)
(0.479161 0.148447 -0.0205805)
(0.370489 0.155585 -0.0215083)
(0.240369 0.162594 -0.0211691)
(0.195203 0.156012 -0.0182954)
(0.134678 0.155304 -0.0177186)
(0.0525996 0.151398 -0.01791)
(3 1.04334e-07 -0.00571424)
(3 2.28122e-07 -0.00571425)
(3 4.72337e-07 -0.00571428)
(2.99999 9.30279e-07 -0.00571435)
(2.99998 2.24738e-06 -0.0057145)
(2.99993 4.89252e-06 -0.00571496)
(2.99984 1.26894e-05 -0.00571585)
(2.99955 2.79828e-05 -0.00571859)
(2.99898 7.57894e-05 -0.00572418)
(2.99714 0.000158791 -0.00573968)
(2.99385 0.000514984 -0.00577894)
(2.98111 0.000861454 -0.00585602)
(2.95782 0.00403087 -0.00617301)
(2.86725 0.0071297 -0.00662353)
(2.61767 0.0330225 -0.00887048)
(1.92518 0.0806885 -0.0140542)
(0.779836 0.248162 -0.0181617)
(0.272243 0.205646 -0.0187705)
(0.477504 0.197206 -0.0196454)
(0.494377 0.210506 -0.0203285)
(0.389448 0.221267 -0.0212913)
(0.257069 0.232834 -0.0210525)
(0.202106 0.224255 -0.0182686)
(0.140428 0.224 -0.0175643)
(0.0564602 0.220781 -0.0177557)
(3 1.24428e-07 -0.00571424)
(3 2.72906e-07 -0.00571425)
(3 5.74835e-07 -0.00571427)
(2.99999 1.14815e-06 -0.00571435)
(2.99998 2.79721e-06 -0.00571448)
(2.99993 6.13871e-06 -0.00571491)
(2.99985 1.58121e-05 -0.00571575)
(2.99958 3.49091e-05 -0.00571832)
(2.99905 9.33395e-05 -0.00572354)
(2.99734 0.000197554 -0.00573833)
(2.99416 0.00061624 -0.0057739)
(2.98273 0.00103344 -0.0058493)
(2.96071 0.00469267 -0.0061256)
(2.87997 0.00815674 -0.00656157)
(2.65652 0.0372069 -0.00852872)
(2.02453 0.0950301 -0.0135708)
(0.854441 0.297154 -0.0175817)
(0.292807 0.261045 -0.0185546)
(0.492957 0.258551 -0.0194505)
(0.512516 0.274602 -0.020028)
(0.413864 0.288107 -0.0210318)
(0.280038 0.304899 -0.0209158)
(0.212772 0.296027 -0.0182695)
(0.14949 0.29624 -0.0174073)
(0.0625251 0.294778 -0.0175556)
(3 1.36501e-07 -0.00571424)
(3 3.01617e-07 -0.00571425)
(3 6.51027e-07 -0.00571427)
(2.99999 1.31765e-06 -0.00571434)
(2.99998 3.27378e-06 -0.00571446)
(2.99994 7.27041e-06 -0.00571486)
(2.99986 1.87395e-05 -0.00571563)
(2.99961 4.17725e-05 -0.00571802)
(2.99912 0.000109464 -0.00572278)
(2.99757 0.000237024 -0.00573679)
(2.99455 0.000674651 -0.00576778)
(2.98448 0.00130942 -0.0058444)
(2.96389 0.00468004 -0.00606956)
(2.89345 0.00917846 -0.00651091)
(2.69889 0.0355464 -0.00813983)
(2.14618 0.0983195 -0.0129571)
(0.952832 0.309071 -0.0167721)
(0.329969 0.31249 -0.0183438)
(0.51051 0.324299 -0.0192265)
(0.530702 0.342024 -0.019713)
(0.442468 0.357272 -0.0207088)
(0.310239 0.379321 -0.0207251)
(0.22901 0.373271 -0.0182801)
(0.162618 0.374995 -0.0172112)
(0.0710354 0.377083 -0.0173311)
(3 1.4374e-07 -0.00571424)
(3 3.20523e-07 -0.00571425)
(3 7.0336e-07 -0.00571427)
(2.99999 1.42427e-06 -0.00571432)
(2.99998 3.62013e-06 -0.00571444)
(2.99995 8.08726e-06 -0.00571479)
(2.99988 2.12156e-05 -0.00571548)
(2.99965 4.79423e-05 -0.00571765)
(2.99921 0.000125254 -0.00572196)
(2.99781 0.000278769 -0.00573488)
(2.99506 0.000736565 -0.00576239)
(2.98604 0.00162923 -0.00583584)
(2.96739 0.00449285 -0.00602492)
(2.90502 0.010755 -0.00646294)
(2.737 0.0313408 -0.00779694)
(2.26806 0.0904097 -0.0121425)
(1.06335 0.27596 -0.0157828)
(0.383482 0.369496 -0.0182073)
(0.52633 0.398916 -0.0189788)
(0.546795 0.412527 -0.0193909)
(0.474024 0.428485 -0.0203585)
(0.348712 0.455046 -0.0205127)
(0.253971 0.457461 -0.0183234)
(0.181954 0.462556 -0.0169636)
(0.0838019 0.472525 -0.0170025)
(3 1.53768e-07 -0.00571424)
(3 3.44317e-07 -0.00571425)
(3 7.49462e-07 -0.00571426)
(2.99999 1.49187e-06 -0.00571431)
(2.99999 3.82853e-06 -0.00571441)
(2.99995 8.51616e-06 -0.00571471)
(2.99989 2.2906e-05 -0.00571532)
(2.9997 5.21686e-05 -0.00571721)
(2.99931 0.00013832 -0.00572101)
(2.99808 0.000313041 -0.00573245)
(2.99567 0.000815954 -0.00575691)
(2.98758 0.00187299 -0.00582211)
(2.9716 0.00470555 -0.0059925)
(2.91499 0.0121317 -0.00637964)
(2.76858 0.0311438 -0.00758964)
(2.35925 0.0836009 -0.0113017)
(1.19204 0.245242 -0.0152846)
(0.459917 0.437856 -0.0180839)
(0.536268 0.481237 -0.0187418)
(0.558484 0.479013 -0.0191114)
(0.508592 0.499443 -0.0199284)
(0.398029 0.531454 -0.0202455)
(0.292577 0.548001 -0.0183373)
(0.211628 0.56206 -0.0166849)
(0.103932 0.590243 -0.0166274)
(3 1.9197e-07 -0.00571424)
(3 4.34762e-07 -0.00571425)
(3 9.15624e-07 -0.00571426)
(3 1.77409e-06 -0.0057143)
(2.99999 4.41314e-06 -0.00571438)
(2.99996 9.71104e-06 -0.00571463)
(2.99991 2.59756e-05 -0.00571514)
(2.99975 5.96065e-05 -0.00571671)
(2.99943 0.000154633 -0.00571996)
(2.99837 0.000361704 -0.00572966)
(2.99636 0.000884035 -0.00575067)
(2.98926 0.00208643 -0.0058061)
(2.97604 0.00501526 -0.00596037)
(2.926 0.0121731 -0.00626787)
(2.79925 0.0331253 -0.00741809)
(2.44054 0.0821451 -0.0102828)
(1.34732 0.24556 -0.0148352)
(0.566814 0.510924 -0.0179312)
(0.542427 0.549961 -0.0184022)
(0.568215 0.539702 -0.0187394)
(0.552153 0.566647 -0.0193957)
(0.460122 0.60795 -0.0198805)
(0.351203 0.643554 -0.0183615)
(0.262957 0.675856 -0.016421)
(0.140678 0.744944 -0.0160035)
(3 1.81012e-07 -0.00571424)
(3 3.91899e-07 -0.00571424)
(3 9.62506e-07 -0.00571425)
(3 1.40313e-06 -0.00571428)
(2.99999 4.44748e-06 -0.00571434)
(2.99997 6.81788e-06 -0.00571452)
(2.99993 2.53212e-05 -0.00571494)
(2.99981 3.96175e-05 -0.00571608)
(2.99956 0.000157183 -0.00571882)
(2.99869 0.00023479 -0.00572616)
(2.99711 0.00103393 -0.00574467)
(2.991 0.00123993 -0.00578923)
(2.98009 0.00698479 -0.00592818)
(2.93728 0.00669866 -0.00618043)
(2.82997 0.0465535 -0.00719877)
(2.5217 0.0704255 -0.00958854)
(1.54052 0.267904 -0.0139215)
(0.704725 0.585369 -0.0175809)
(0.558512 0.602193 -0.0181653)
(0.595956 0.594833 -0.0184048)
(0.607864 0.628519 -0.0188724)
(0.537777 0.681553 -0.0194157)
(0.436123 0.744305 -0.0183978)
(0.353799 0.817082 -0.0159639)
(0.210739 0.991089 -0.0151153)
(3 2.13043e-09 -1.16393e-08)
(3 1.18239e-08 -1.51744e-08)
(3 4.33665e-08 -1.88012e-08)
(2.99999 1.10777e-07 -2.33132e-08)
(2.99997 3.06766e-07 -2.40163e-08)
(2.99992 6.98884e-07 -2.79624e-08)
(2.99982 1.86718e-06 -2.8118e-08)
(2.9995 4.14409e-06 -3.14742e-08)
(2.99888 1.14641e-05 -3.24478e-08)
(2.99681 2.45006e-05 -3.78637e-08)
(2.99325 7.74326e-05 -4.50385e-08)
(2.97857 0.000155175 -6.6323e-08)
(2.95266 0.000573437 -1.20784e-07)
(2.84671 0.00120494 -2.20444e-07)
(2.55458 0.00484407 -6.02558e-07)
(1.77787 0.0117701 -1.4636e-06)
(0.681766 0.0353208 -1.58605e-06)
(0.264099 0.030908 3.08691e-07)
(0.457292 0.0315061 6.60044e-08)
(0.466814 0.0347136 3.58944e-08)
(0.35404 0.0370104 7.30717e-08)
(0.226486 0.0390436 1.82891e-07)
(0.191111 0.0392964 1.76643e-07)
(0.130363 0.0404615 3.8643e-08)
(0.0473604 0.0383185 -1.65264e-07)
(3 6.43214e-09 -1.1936e-08)
(3 3.57136e-08 -1.54116e-08)
(3 1.30596e-07 -1.8983e-08)
(2.99999 3.33458e-07 -2.34145e-08)
(2.99997 9.21166e-07 -2.40979e-08)
(2.99992 2.09778e-06 -2.79568e-08)
(2.99982 5.58823e-06 -2.80812e-08)
(2.99951 1.23765e-05 -3.13231e-08)
(2.9989 3.41441e-05 -3.2206e-08)
(2.99686 7.19255e-05 -3.73207e-08)
(2.99336 0.00023299 -4.44221e-08)
(2.97898 0.000449936 -6.49335e-08)
(2.95356 0.00176149 -1.19659e-07)
(2.84999 0.00357986 -2.20824e-07)
(2.56463 0.0149961 -5.87241e-07)
(1.80016 0.0362721 -1.48254e-06)
(0.695059 0.106836 -1.62111e-06)
(0.262035 0.0872026 3.06065e-07)
(0.459122 0.0829061 8.16528e-08)
(0.469874 0.0877547 4.17799e-08)
(0.358707 0.0913574 7.57798e-08)
(0.230226 0.0948409 1.77215e-07)
(0.191686 0.0912136 1.77236e-07)
(0.131627 0.090605 2.95551e-08)
(0.0497878 0.0873503 -1.60478e-07)
(3 1.07478e-08 -1.25296e-08)
(3 5.95161e-08 -1.58826e-08)
(3 2.16725e-07 -1.93421e-08)
(2.99999 5.53295e-07 -2.36077e-08)
(2.99997 1.52234e-06 -2.42512e-08)
(2.99992 3.46916e-06 -2.7936e-08)
(2.99983 9.20786e-06 -2.80018e-08)
(2.99952 2.04041e-05 -3.1023e-08)
(2.99893 5.58326e-05 -3.16775e-08)
(2.99697 0.000116561 -3.6102e-08)
(2.99357 0.000382514 -4.33151e-08)
(2.97982 0.000691458 -6.14816e-08)
(2.95534 0.00296597 -1.14787e-07)
(2.85695 0.00565265 -2.40553e-07)
(2.5861 0.0250151 -5.34485e-07)
(1.84973 0.0604932 -1.55477e-06)
(0.727352 0.181773 -1.71219e-06)
(0.263893 0.147296 3.03806e-07)
(0.465879 0.139294 1.26069e-07)
(0.479162 0.148446 5.25441e-08)
(0.370482 0.155588 8.16895e-08)
(0.240362 0.162594 1.70108e-07)
(0.195201 0.156004 1.70073e-07)
(0.134675 0.155295 3.07051e-08)
(0.0525989 0.151394 -1.53031e-07)
(3 1.49325e-08 -1.34039e-08)
(3 8.19207e-08 -1.65678e-08)
(3 2.97838e-07 -1.98579e-08)
(2.99999 7.60707e-07 -2.3869e-08)
(2.99997 2.08436e-06 -2.44534e-08)
(2.99993 4.75831e-06 -2.78823e-08)
(2.99983 1.25746e-05 -2.78926e-08)
(2.99955 2.79009e-05 -3.06535e-08)
(2.99898 7.57366e-05 -3.10434e-08)
(2.99713 0.000158803 -3.43175e-08)
(2.99384 0.000515074 -4.18661e-08)
(2.9811 0.000862255 -5.32198e-08)
(2.9578 0.00403136 -1.14754e-07)
(2.86722 0.0071357 -2.07483e-07)
(2.61755 0.0330296 -5.69492e-07)
(1.9249 0.0807163 -1.44324e-06)
(0.779703 0.248204 -1.86877e-06)
(0.272319 0.205656 2.96919e-07)
(0.477518 0.197198 1.61734e-07)
(0.494387 0.210502 7.11183e-08)
(0.389449 0.221266 9.24623e-08)
(0.257071 0.232833 1.61046e-07)
(0.202112 0.224253 1.51854e-07)
(0.140432 0.224 2.40019e-08)
(0.056467 0.220781 -1.50258e-07)
(3 1.87702e-08 -1.45197e-08)
(3 1.01072e-07 -1.74278e-08)
(3 3.70311e-07 -2.04894e-08)
(2.99999 9.47436e-07 -2.41634e-08)
(2.99998 2.59893e-06 -2.46742e-08)
(2.99993 5.96696e-06 -2.77896e-08)
(2.99984 1.56555e-05 -2.77722e-08)
(2.99957 3.47842e-05 -3.02911e-08)
(2.99904 9.3235e-05 -3.06349e-08)
(2.99734 0.000197479 -3.34384e-08)
(2.99416 0.000616335 -4.09423e-08)
(2.98272 0.00103344 -3.9234e-08)
(2.9607 0.00469443 -1.25986e-07)
(2.87993 0.0081606 -1.28536e-07)
(2.65642 0.0372238 -6.18871e-07)
(2.02426 0.0950612 -1.31495e-06)
(0.854299 0.29723 -2.05525e-06)
(0.292852 0.261056 2.60847e-07)
(0.492974 0.258536 9.9807e-08)
(0.512535 0.274593 7.79789e-08)
(0.413871 0.288103 9.97533e-08)
(0.280049 0.304894 1.55595e-07)
(0.212788 0.296026 1.50321e-07)
(0.149498 0.296247 2.64718e-08)
(0.0625311 0.294789 -1.48222e-07)
(3 2.16244e-08 -1.58107e-08)
(3 1.13344e-07 -1.84082e-08)
(3 4.24994e-07 -2.11838e-08)
(2.99999 1.08948e-06 -2.44616e-08)
(2.99998 3.03989e-06 -2.49023e-08)
(2.99994 7.0566e-06 -2.76849e-08)
(2.99986 1.85372e-05 -2.76667e-08)
(2.99961 4.16016e-05 -2.9945e-08)
(2.99912 0.000109315 -3.0297e-08)
(2.99757 0.000236892 -3.29384e-08)
(2.99454 0.000674685 -3.81535e-08)
(2.98447 0.00130888 -4.26687e-08)
(2.96388 0.00468261 -1.0257e-07)
(2.89342 0.0091775 -1.05305e-07)
(2.6988 0.0355716 -5.26274e-07)
(2.14591 0.0983647 -1.30328e-06)
(0.952692 0.309227 -2.17287e-06)
(0.32999 0.312493 1.39262e-07)
(0.510536 0.324272 6.02959e-08)
(0.530733 0.342011 1.10659e-07)
(0.44248 0.357269 1.27607e-07)
(0.310249 0.379318 1.47042e-07)
(0.229028 0.373272 1.12173e-07)
(0.162632 0.375004 2.16972e-08)
(0.071045 0.377104 -1.30593e-07)
(3 2.28191e-08 -1.71758e-08)
(3 1.16967e-07 -1.94466e-08)
(3 4.52655e-07 -2.18963e-08)
(2.99999 1.16039e-06 -2.47707e-08)
(2.99998 3.34147e-06 -2.51627e-08)
(2.99994 7.8252e-06 -2.76388e-08)
(2.99987 2.09693e-05 -2.765e-08)
(2.99965 4.77393e-05 -2.97399e-08)
(2.99921 0.000125089 -3.02548e-08)
(2.99781 0.000278645 -3.30965e-08)
(2.99505 0.000736482 -3.66789e-08)
(2.98604 0.00162897 -4.89112e-08)
(2.96738 0.00449406 -6.50599e-08)
(2.905 0.0107534 -1.50199e-07)
(2.73694 0.0313554 -1.98109e-07)
(2.26788 0.0904591 -1.08358e-06)
(1.06326 0.276117 -1.53146e-06)
(0.383476 0.369472 -1.17573e-07)
(0.526375 0.398878 3.98566e-08)
(0.54684 0.412512 1.19714e-07)
(0.474039 0.428484 1.20666e-07)
(0.348725 0.455048 1.231e-07)
(0.25399 0.457471 1.06939e-07)
(0.181969 0.462568 8.45079e-09)
(0.0838146 0.47255 -1.01345e-07)
(3 2.29333e-08 -1.85735e-08)
(3 1.1733e-07 -2.05435e-08)
(3 4.62832e-07 -2.26648e-08)
(2.99999 1.18343e-06 -2.51745e-08)
(2.99998 3.50416e-06 -2.55413e-08)
(2.99995 8.21916e-06 -2.77421e-08)
(2.99989 2.2641e-05 -2.77761e-08)
(2.9997 5.19741e-05 -2.96817e-08)
(2.99931 0.000138188 -3.0333e-08)
(2.99808 0.000312961 -3.31301e-08)
(2.99567 0.000815957 -3.79387e-08)
(2.98758 0.00187276 -4.9109e-08)
(2.97159 0.00470593 -6.06564e-08)
(2.91498 0.0121331 -1.97647e-07)
(2.76854 0.0311446 -1.01085e-07)
(2.35914 0.0836306 -8.14491e-07)
(1.19192 0.245302 -8.87164e-07)
(0.45987 0.437813 -5.36778e-07)
(0.536321 0.481208 9.29891e-09)
(0.558537 0.479006 8.28841e-08)
(0.50861 0.499447 9.21905e-08)
(0.398042 0.531459 9.72716e-08)
(0.292597 0.548012 9.03667e-08)
(0.211641 0.562074 1.54038e-09)
(0.103944 0.590268 -7.07749e-08)
(3 2.55896e-08 -2.00461e-08)
(3 1.37135e-07 -2.17275e-08)
(3 5.34096e-07 -2.3509e-08)
(2.99999 1.36738e-06 -2.56401e-08)
(2.99999 4.0091e-06 -2.59578e-08)
(2.99996 9.37279e-06 -2.7819e-08)
(2.99991 2.57111e-05 -2.7907e-08)
(2.99975 5.94313e-05 -2.95986e-08)
(2.99942 0.000154554 -3.05051e-08)
(2.99837 0.000361487 -3.3453e-08)
(2.99636 0.000884145 -3.86628e-08)
(2.98926 0.0020858 -5.13177e-08)
(2.97603 0.00501598 -6.1737e-08)
(2.92599 0.0121754 -1.59416e-07)
(2.79921 0.0331254 -1.63916e-07)
(2.44045 0.0821579 -5.27234e-07)
(1.34718 0.245571 -7.84217e-07)
(0.566741 0.510873 -6.16032e-07)
(0.54248 0.549951 -9.07889e-09)
(0.568257 0.539713 8.91264e-08)
(0.552165 0.566662 4.80278e-08)
(0.460129 0.607961 6.79422e-08)
(0.351221 0.643563 6.16086e-08)
(0.26297 0.675875 1.46925e-08)
(0.140686 0.74497 -3.29858e-08)
(3 3.72204e-08 -2.19184e-08)
(3 1.08073e-07 -2.32113e-08)
(3 5.91906e-07 -2.4553e-08)
(3 1.05426e-06 -2.61805e-08)
(2.99999 4.08866e-06 -2.63166e-08)
(2.99997 6.58522e-06 -2.78091e-08)
(2.99993 2.51683e-05 -2.79231e-08)
(2.9998 3.96252e-05 -2.95898e-08)
(2.99956 0.000157318 -3.06307e-08)
(2.99868 0.000235135 -3.59436e-08)
(2.99711 0.00103424 -3.57037e-08)
(2.991 0.00124134 -6.47919e-08)
(2.98008 0.00698506 -4.32513e-08)
(2.93726 0.00670219 -1.44401e-07)
(2.82994 0.0465521 -1.53577e-07)
(2.52161 0.070431 -4.60811e-07)
(1.54035 0.267896 -7.50124e-07)
(0.704617 0.585309 -7.69933e-07)
(0.558552 0.602188 1.16372e-07)
(0.595974 0.594852 8.20531e-08)
(0.607864 0.628538 4.08286e-08)
(0.537775 0.681567 5.10159e-08)
(0.436138 0.744312 4.75915e-08)
(0.353815 0.817104 3.10225e-08)
(0.210743 0.991121 -2.11434e-09)
(3 2.13019e-09 -6.47586e-13)
(3 1.18218e-08 -3.969e-12)
(3 4.33636e-08 -6.87641e-12)
(2.99999 1.10774e-07 -1.38362e-11)
(2.99997 3.06766e-07 -2.03954e-11)
(2.99992 6.98895e-07 -3.37688e-11)
(2.99982 1.86719e-06 -5.60435e-11)
(2.9995 4.14411e-06 -9.46224e-11)
(2.99888 1.14639e-05 -2.24194e-10)
(2.99681 2.45e-05 -3.98833e-10)
(2.99325 7.74303e-05 -1.3821e-09)
(2.97857 0.000155168 -2.31351e-09)
(2.95266 0.000573423 -9.44933e-09)
(2.84672 0.00120487 -1.7397e-08)
(2.55458 0.00484398 -6.22012e-08)
(1.77789 0.0117698 -1.33277e-07)
(0.681773 0.0353203 -1.56262e-07)
(0.264089 0.0309078 5.9327e-08)
(0.457292 0.0315066 2.48388e-08)
(0.466818 0.0347137 3.3781e-08)
(0.354052 0.0370101 4.4585e-08)
(0.226506 0.0390443 5.98782e-08)
(0.191123 0.039298 4.0066e-08)
(0.130367 0.0404593 3.93984e-09)
(0.0473607 0.0383106 -4.03214e-08)
(3 6.43152e-09 -6.52275e-13)
(3 3.57091e-08 -4.01046e-12)
(3 1.30593e-07 -6.89676e-12)
(2.99999 3.33465e-07 -1.38513e-11)
(2.99997 9.21203e-07 -2.02479e-11)
(2.99992 2.09789e-06 -3.33447e-11)
(2.99982 5.58843e-06 -5.47402e-11)
(2.99951 1.23768e-05 -9.13721e-11)
(2.9989 3.41442e-05 -2.16994e-10)
(2.99686 7.19232e-05 -3.75773e-10)
(2.99336 0.00023299 -1.37064e-09)
(2.97898 0.000449903 -2.22711e-09)
(2.95356 0.0017615 -9.41904e-09)
(2.85 0.00357971 -1.73413e-08)
(2.56464 0.0149959 -6.20248e-08)
(1.80018 0.0362711 -1.33346e-07)
(0.695067 0.106834 -1.60299e-07)
(0.262027 0.0872006 5.86439e-08)
(0.459123 0.082905 2.50088e-08)
(0.469877 0.0877521 3.04333e-08)
(0.358718 0.0913513 4.03461e-08)
(0.230246 0.0948325 5.21911e-08)
(0.191704 0.0912156 3.67334e-08)
(0.131646 0.0906158 8.24078e-09)
(0.0497992 0.0873606 -3.67848e-08)
(3 1.07465e-08 -6.65861e-13)
(3 5.95068e-08 -4.10235e-12)
(3 2.16714e-07 -6.98471e-12)
(2.99999 5.5329e-07 -1.39947e-11)
(2.99997 1.52237e-06 -2.03086e-11)
(2.99992 3.46929e-06 -3.34969e-11)
(2.99983 9.20814e-06 -5.49421e-11)
(2.99952 2.04047e-05 -9.32213e-11)
(2.99893 5.58334e-05 -2.15351e-10)
(2.99697 0.00011656 -3.86147e-10)
(2.99357 0.000382517 -1.30855e-09)
(2.97982 0.00069142 -2.20886e-09)
(2.95534 0.00296599 -9.32219e-09)
(2.85695 0.00565254 -1.59884e-08)
(2.5861 0.0250145 -6.33538e-08)
(1.84974 0.060492 -1.32362e-07)
(0.72736 0.181769 -1.73382e-07)
(0.263883 0.147293 5.70108e-08)
(0.465877 0.139293 2.7093e-08)
(0.479161 0.148443 2.53945e-08)
(0.370484 0.15558 3.25932e-08)
(0.240368 0.162584 4.2641e-08)
(0.195206 0.156007 3.25995e-08)
(0.134684 0.155309 5.26819e-09)
(0.052604 0.151412 -2.39124e-08)
(3 1.49298e-08 -6.8595e-13)
(3 8.19016e-08 -4.24101e-12)
(3 2.97803e-07 -7.1073e-12)
(2.99999 7.60646e-07 -1.41658e-11)
(2.99997 2.08429e-06 -2.01558e-11)
(2.99993 4.75825e-06 -3.29751e-11)
(2.99983 1.25746e-05 -5.2631e-11)
(2.99955 2.79011e-05 -8.94107e-11)
(2.99898 7.5737e-05 -1.98466e-10)
(2.99713 0.000158805 -3.67619e-10)
(2.99384 0.000515069 -1.16351e-09)
(2.9811 0.000862247 -1.90271e-09)
(2.9578 0.00403127 -9.09983e-09)
(2.86722 0.00713555 -1.25824e-08)
(2.61756 0.0330285 -6.46836e-08)
(1.92492 0.0807146 -1.30081e-07)
(0.779711 0.248199 -1.94457e-07)
(0.272309 0.205654 5.26477e-08)
(0.477514 0.197198 2.97431e-08)
(0.494382 0.2105 1.76089e-08)
(0.389444 0.22126 2.02295e-08)
(0.257063 0.232824 3.21584e-08)
(0.202107 0.224253 3.26998e-08)
(0.140434 0.22401 8.60463e-09)
(0.0564685 0.2208 1.12513e-09)
(3 1.87667e-08 -7.18497e-13)
(3 1.01049e-07 -4.4541e-12)
(3 3.70267e-07 -7.33313e-12)
(2.99999 9.47357e-07 -1.45007e-11)
(2.99998 2.59884e-06 -2.00266e-11)
(2.99993 5.96689e-06 -3.21181e-11)
(2.99984 1.56556e-05 -4.84177e-11)
(2.99957 3.47845e-05 -7.89768e-11)
(2.99904 9.32357e-05 -1.69602e-10)
(2.99734 0.000197482 -2.89894e-10)
(2.99416 0.000616327 -1.05714e-09)
(2.98272 0.00103347 -1.04546e-09)
(2.9607 0.00469428 -9.22427e-09)
(2.87993 0.00816049 -8.67219e-09)
(2.65642 0.0372224 -6.4247e-08)
(2.02427 0.0950591 -1.26204e-07)
(0.854306 0.297224 -2.21224e-07)
(0.292845 0.261055 4.66484e-08)
(0.492969 0.258538 2.43921e-08)
(0.512528 0.274593 1.42179e-08)
(0.413862 0.2881 1.60685e-08)
(0.280033 0.304888 2.36405e-08)
(0.212776 0.296024 7.30555e-09)
(0.149495 0.296255 2.8104e-09)
(0.0625305 0.294805 1.16772e-08)
(3 2.162e-08 -7.63172e-13)
(3 1.13317e-07 -4.70071e-12)
(3 4.2494e-07 -7.6603e-12)
(2.99999 1.08938e-06 -1.50029e-11)
(2.99998 3.03977e-06 -2.03491e-11)
(2.99994 7.05646e-06 -3.23286e-11)
(2.99986 1.85371e-05 -4.61588e-11)
(2.99961 4.16019e-05 -7.2893e-11)
(2.99912 0.000109315 -1.41531e-10)
(2.99757 0.000236895 -2.38288e-10)
(2.99454 0.00067468 -7.92474e-10)
(2.98447 0.00130892 -1.10279e-09)
(2.96388 0.00468246 -6.84037e-09)
(2.89343 0.00917756 -8.43106e-09)
(2.69881 0.03557 -5.2152e-08)
(2.14592 0.0983617 -1.27612e-07)
(0.952699 0.309216 -2.39401e-07)
(0.329985 0.312494 3.17302e-08)
(0.51053 0.324276 1.94102e-08)
(0.530725 0.342013 1.14437e-08)
(0.442469 0.357267 1.32843e-08)
(0.31023 0.379314 2.05131e-08)
(0.229012 0.373268 6.92576e-09)
(0.162626 0.37501 2.57819e-09)
(0.0710419 0.377116 1.27003e-08)
(3 2.28142e-08 -8.07704e-13)
(3 1.16935e-07 -4.91969e-12)
(3 4.52589e-07 -7.94289e-12)
(2.99999 1.16025e-06 -1.53626e-11)
(2.99998 3.34129e-06 -2.05903e-11)
(2.99994 7.82495e-06 -3.2439e-11)
(2.99987 2.09691e-05 -4.53991e-11)
(2.99965 4.77395e-05 -7.15105e-11)
(2.99921 0.00012509 -1.26744e-10)
(2.99781 0.000278649 -2.21957e-10)
(2.99505 0.00073649 -5.63953e-10)
(2.98604 0.001629 -1.03269e-09)
(2.96738 0.00449402 -3.70971e-09)
(2.905 0.0107535 -6.90167e-09)
(2.73694 0.0313547 -2.57793e-08)
(2.26789 0.0904563 -7.82024e-08)
(1.06326 0.276108 -1.60046e-07)
(0.383473 0.369476 2.0225e-09)
(0.526368 0.398884 1.42635e-08)
(0.546831 0.412516 7.41211e-09)
(0.474029 0.428483 8.42206e-09)
(0.348705 0.455047 2.73731e-08)
(0.253971 0.457466 -1.13003e-08)
(0.181962 0.462568 1.6611e-09)
(0.0838114 0.472558 2.001e-08)
(3 2.29273e-08 -8.61247e-13)
(3 1.17289e-07 -5.20581e-12)
(3 4.62738e-07 -8.33025e-12)
(2.99999 1.18324e-06 -1.60104e-11)
(2.99998 3.50383e-06 -2.10267e-11)
(2.99995 8.21862e-06 -3.28277e-11)
(2.99989 2.26404e-05 -4.44602e-11)
(2.9997 5.19735e-05 -6.88465e-11)
(2.99931 0.000138189 -1.18419e-10)
(2.99808 0.000312965 -2.08463e-10)
(2.99567 0.000815965 -4.85788e-10)
(2.98758 0.0018728 -9.62156e-10)
(2.97159 0.00470596 -2.48839e-09)
(2.91498 0.0121331 -7.30209e-09)
(2.76854 0.0311447 -1.36723e-08)
(2.35915 0.0836296 -4.9107e-08)
(1.19193 0.2453 -8.37186e-08)
(0.459871 0.43782 -4.60413e-08)
(0.536314 0.481214 4.38048e-09)
(0.558527 0.479011 -1.89727e-09)
(0.508601 0.499448 -8.73846e-09)
(0.398025 0.531461 -1.28111e-10)
(0.292575 0.548007 -1.7039e-08)
(0.211634 0.562067 -9.94707e-11)
(0.103944 0.590272 2.47739e-08)
(3 2.55809e-08 -9.13707e-13)
(3 1.37065e-07 -5.52453e-12)
(3 5.33925e-07 -8.73488e-12)
(2.99999 1.36698e-06 -1.67149e-11)
(2.99999 4.00841e-06 -2.1846e-11)
(2.99996 9.3715e-06 -3.36723e-11)
(2.99991 2.57093e-05 -4.43811e-11)
(2.99975 5.94289e-05 -6.79429e-11)
(2.99942 0.00015455 -1.08975e-10)
(2.99837 0.000361492 -1.85446e-10)
(2.99636 0.00088413 -4.12042e-10)
(2.98926 0.00208585 -7.77609e-10)
(2.97603 0.00501593 -2.06911e-09)
(2.92599 0.0121754 -4.5332e-09)
(2.79922 0.0331256 -1.21257e-08)
(2.44046 0.0821581 -2.94042e-08)
(1.34719 0.245573 -6.08819e-08)
(0.566743 0.510882 -4.76847e-08)
(0.542472 0.549957 -7.97574e-09)
(0.568248 0.539719 -7.82003e-09)
(0.552158 0.566664 -2.44746e-08)
(0.460117 0.607964 -1.08952e-08)
(0.3512 0.643562 -1.83715e-08)
(0.262962 0.675863 2.45329e-09)
(0.14069 0.744967 2.09817e-08)
(3 3.71751e-08 -9.5416e-13)
(3 1.08003e-07 -5.91115e-12)
(3 5.91498e-07 -9.03138e-12)
(3 1.05378e-06 -1.77501e-11)
(2.99999 4.08749e-06 -2.14252e-11)
(2.99997 6.58375e-06 -3.5052e-11)
(2.99993 2.5165e-05 -4.59036e-11)
(2.9998 3.96196e-05 -7.86527e-11)
(2.99956 0.000157304 -1.28596e-10)
(2.99868 0.000235108 -2.93614e-10)
(2.99711 0.00103418 -3.73863e-10)
(2.991 0.00124123 -1.39253e-09)
(2.98008 0.00698485 -1.29876e-09)
(2.93726 0.00670183 -5.01149e-09)
(2.82994 0.0465517 -8.8576e-09)
(2.52162 0.0704309 -2.36912e-08)
(1.54036 0.267898 -4.77555e-08)
(0.704622 0.585319 -4.86738e-08)
(0.558545 0.602195 -8.7879e-10)
(0.595967 0.594857 -1.17811e-08)
(0.607857 0.628542 -3.29596e-08)
(0.537769 0.68157 -1.86611e-08)
(0.436121 0.744314 -1.71977e-08)
(0.353804 0.81709 -7.5946e-09)
(0.210748 0.991109 2.02636e-08)
(3 2.1302e-09 -7.34931e-15)
(3 1.18217e-08 -4.81113e-14)
(3 4.33639e-08 -7.88123e-14)
(2.99999 1.10774e-07 -1.53215e-13)
(2.99997 3.06772e-07 6.13728e-14)
(2.99992 6.98913e-07 4.7005e-13)
(2.99982 1.86727e-06 3.39253e-12)
(2.9995 4.14433e-06 9.25175e-12)
(2.99888 1.14647e-05 2.62175e-11)
(2.99681 2.45022e-05 7.38915e-11)
(2.99325 7.74344e-05 1.06026e-10)
(2.97857 0.000155183 3.13131e-10)
(2.95266 0.000573443 9.06692e-10)
(2.84671 0.00120496 -4.21746e-10)
(2.55456 0.00484415 1.56895e-08)
(1.77784 0.0117702 2.61055e-08)
(0.681756 0.035321 3.61097e-08)
(0.264112 0.0309083 3.10567e-10)
(0.457294 0.0315065 -1.50621e-08)
(0.466817 0.0347132 -3.41728e-08)
(0.354049 0.0370094 -3.87209e-08)
(0.226503 0.0390424 -5.14631e-08)
(0.191123 0.0392961 -3.55088e-08)
(0.130371 0.0404607 -2.62396e-08)
(0.0473652 0.0383171 -8.42424e-09)
(3 6.43152e-09 -4.60978e-15)
(3 3.57088e-08 -3.22129e-14)
(3 1.30594e-07 -4.75347e-14)
(2.99999 3.33465e-07 -9.26434e-14)
(2.99997 9.21215e-07 9.9095e-14)
(2.99992 2.09792e-06 4.4344e-13)
(2.99982 5.58859e-06 2.78038e-12)
(2.99951 1.23772e-05 7.2527e-12)
(2.9989 3.41459e-05 2.14766e-11)
(2.99686 7.19285e-05 5.76368e-11)
(2.99336 0.000233 1.04004e-10)
(2.97898 0.000449955 2.77895e-10)
(2.95356 0.00176153 9.57804e-10)
(2.84999 0.00358 -2.07162e-10)
(2.56462 0.0149964 1.55029e-08)
(1.80013 0.0362726 2.48753e-08)
(0.695049 0.106836 3.76735e-08)
(0.26205 0.0872018 8.48361e-10)
(0.459125 0.0829049 -1.4325e-08)
(0.469877 0.0877513 -3.13337e-08)
(0.358715 0.0913505 -3.63074e-08)
(0.230241 0.094831 -4.80482e-08)
(0.191702 0.0912128 -3.21176e-08)
(0.131646 0.0906135 -2.67576e-08)
(0.0497992 0.0873644 -1.12924e-08)
(3 1.07466e-08 -4.85953e-16)
(3 5.95078e-08 -5.51069e-15)
(3 2.16719e-07 -1.98962e-15)
(2.99999 5.53301e-07 -7.97589e-15)
(2.99997 1.52241e-06 1.0966e-13)
(2.99992 3.46937e-06 2.75232e-13)
(2.99983 9.20843e-06 1.43344e-12)
(2.99952 2.04053e-05 3.20334e-12)
(2.99893 5.58358e-05 1.11245e-11)
(2.99697 0.000116566 1.28203e-11)
(2.99357 0.000382535 9.48501e-11)
(2.97982 0.000691496 1.04791e-10)
(2.95534 0.00296607 1.31975e-09)
(2.85694 0.00565302 -1.43438e-09)
(2.58608 0.0250156 1.69937e-08)
(1.8497 0.0604945 1.82858e-08)
(0.727341 0.181773 4.24551e-08)
(0.263904 0.147294 3.9352e-10)
(0.465879 0.139292 -1.41463e-08)
(0.479162 0.148441 -2.63731e-08)
(0.370481 0.155579 -3.23897e-08)
(0.240363 0.162582 -4.67897e-08)
(0.195203 0.156006 -3.37166e-08)
(0.134682 0.15531 -2.79775e-08)
(0.0526043 0.151419 -1.57942e-08)
(3 1.49299e-08 5.00667e-15)
(3 8.19029e-08 3.04718e-14)
(3 2.97808e-07 6.55188e-14)
(2.99999 7.60657e-07 1.30709e-13)
(2.99997 2.08433e-06 2.5897e-13)
(2.99993 4.75834e-06 3.97236e-13)
(2.99983 1.2575e-05 9.67178e-13)
(2.99955 2.79018e-05 9.85277e-13)
(2.99898 7.57396e-05 5.14995e-12)
(2.99713 0.00015881 -1.80229e-11)
(2.99384 0.000515093 1.28258e-10)
(2.9811 0.00086232 -2.0406e-10)
(2.9578 0.00403146 1.92361e-09)
(2.86721 0.00713619 -4.49229e-10)
(2.61754 0.0330305 1.40559e-08)
(1.92487 0.0807183 1.91533e-08)
(0.779691 0.248206 4.19579e-08)
(0.272325 0.205656 -1.37634e-09)
(0.477516 0.197196 -9.61853e-09)
(0.494383 0.210498 -2.21306e-08)
(0.389442 0.221257 -2.98266e-08)
(0.257061 0.232821 -4.82828e-08)
(0.202106 0.224249 -3.61833e-08)
(0.140433 0.224011 -2.65743e-08)
(0.0564675 0.220807 -1.96592e-08)
(3 1.87664e-08 7.23767e-15)
(3 1.01047e-07 3.93886e-14)
(3 3.70262e-07 8.96724e-14)
(2.99999 9.47343e-07 1.86319e-13)
(2.99998 2.59882e-06 3.22595e-13)
(2.99993 5.96681e-06 5.36024e-13)
(2.99984 1.56555e-05 9.857e-13)
(2.99957 3.47844e-05 1.37871e-12)
(2.99904 9.32369e-05 5.01342e-12)
(2.99734 0.000197484 3.59009e-13)
(2.99416 0.000616356 8.23875e-11)
(2.98272 0.00103348 -1.52176e-10)
(2.9607 0.00469462 1.33583e-09)
(2.87993 0.00816095 -2.75289e-10)
(2.65641 0.0372256 1.0184e-08)
(2.02423 0.0950643 1.76568e-08)
(0.854283 0.297239 3.91173e-08)
(0.292855 0.261058 -2.19083e-09)
(0.492972 0.258535 -2.28532e-09)
(0.512531 0.274589 -1.84056e-08)
(0.413862 0.288096 -3.06635e-08)
(0.28003 0.304885 -5.05431e-08)
(0.212775 0.296021 -3.83673e-08)
(0.149497 0.296254 -2.78933e-08)
(0.0625312 0.294811 -1.7312e-08)
(3 2.16205e-08 5.9192e-15)
(3 1.1332e-07 3.41335e-14)
(3 4.24949e-07 6.34937e-14)
(2.99999 1.0894e-06 1.33448e-13)
(2.99998 3.03981e-06 1.17618e-13)
(2.99994 7.05652e-06 1.37215e-13)
(2.99986 1.85372e-05 -2.36253e-13)
(2.99961 4.1602e-05 -1.35853e-12)
(2.99912 0.000109317 -2.83751e-12)
(2.99757 0.000236896 -1.71998e-11)
(2.99454 0.00067471 9.85155e-12)
(2.98447 0.0013089 -1.54315e-10)
(2.96388 0.0046829 6.65155e-10)
(2.89342 0.00917779 -7.51189e-10)
(2.6988 0.0355742 5.83659e-09)
(2.14588 0.0983705 1.35298e-08)
(0.952676 0.309246 3.0923e-08)
(0.32999 0.312496 -1.62892e-09)
(0.510534 0.324271 -1.65552e-09)
(0.53073 0.342009 -1.60738e-08)
(0.442471 0.357263 -2.94277e-08)
(0.31023 0.379311 -4.57528e-08)
(0.229013 0.373265 -3.58448e-08)