/*--------------------------------*- C++ -*----------------------------------*\
| =========                 |                                                 |
| \\      /  F ield         | OpenFOAM: The Open Source CFD Toolbox           |
|  \\    /   O peration     | Version:  4.1                                   |
|   \\  /    A nd           | Web:      www.OpenFOAM.org                      |
|    \\/     M anipulation  |                                                 |
\*---------------------------------------------------------------------------*/
FoamFile
{
    version     2.0;
    format      ascii;
    class       volScalarField;
    location    "4.4";
    object      p;
}
// * * * * * * * * * * * * * * * * * * * * * * * * * * * * * * * * * * * * * //

dimensions      [1 -1 -2 0 0 0 0];

internalField   nonuniform List<scalar> 
52500
(
1.00001
1.00003
1.0001
1.00022
1.00065
1.00132
1.00379
1.00746
1.02305
1.04112
1.14992
1.26327
2.01973
3.37655
8.12547
11.573
11.2133
10.9743
11.0521
11.2761
11.5133
11.659
11.7684
11.8551
11.9219
1.00001
1.00003
1.0001
1.00022
1.00064
1.0013
1.00374
1.00735
1.02273
1.04054
1.1478
1.25922
2.00416
3.33777
8.02283
11.5809
11.2096
10.9633
11.0424
11.2676
11.5045
11.6503
11.7612
11.8494
11.9177
1.00001
1.00003
1.0001
1.00021
1.00062
1.00127
1.00364
1.00717
1.02207
1.03947
1.14336
1.25145
1.96871
3.25474
7.79052
11.5971
11.1993
10.9314
11.0098
11.2335
11.4675
11.6106
11.7209
11.8083
11.8765
1.00001
1.00003
1.00009
1.00021
1.0006
1.00122
1.00349
1.00688
1.02109
1.03785
1.13666
1.23976
1.91531
3.12924
7.43042
11.6247
11.1856
10.8796
10.9546
11.1728
11.4022
11.5403
11.6469
11.7319
11.8008
1.00001
1.00003
1.00009
1.0002
1.00057
1.00117
1.00332
1.00664
1.01976
1.03681
1.12604
1.22714
1.84204
2.96545
6.94428
11.6543
11.1698
10.8102
10.879
11.0873
11.311
11.4422
11.543
11.6243
11.6943
1.00001
1.00002
1.00008
1.00018
1.00053
1.00109
1.0031
1.00626
1.01819
1.03532
1.11357
1.21197
1.75699
2.77342
6.35269
11.6586
11.1468
10.7255
10.7847
10.9759
11.1904
11.3102
11.3999
11.4735
11.545
1
1.00002
1.00008
1.00017
1.00049
1.001
1.00284
1.00574
1.01656
1.03256
1.10172
1.19435
1.66903
2.56772
5.68601
11.5767
11.0871
10.624
10.6711
10.8363
11.0345
11.1372
11.2085
11.2643
11.3293
1
1.00002
1.00007
1.00015
1.00044
1.00091
1.00258
1.00521
1.01502
1.0296
1.09184
1.17627
1.60006
2.4036
5.2358
11.2162
10.92
10.5102
10.5383
10.6621
10.8347
10.9115
10.9509
10.97
11.0088
1
1.00002
1.00006
1.00013
1.00039
1.00081
1.0023
1.00465
1.01343
1.02634
1.0828
1.15432
1.54015
2.24208
4.8028
10.546
10.6134
10.4327
10.3969
10.4594
10.5878
10.6246
10.612
10.5537
10.4944
1
1.00001
1.00005
1.00011
1.00033
1.00067
1.00193
1.00376
1.01175
1.02052
1.07525
1.12659
1.48683
2.07416
4.36224
9.70046
10.4526
10.3336
10.2227
10.2446
10.2963
10.2763
10.1811
9.95409
9.59364
1.00001
1.00003
1.00011
1.00023
1.00065
1.00133
1.0038
1.00747
1.02306
1.04114
1.14995
1.26332
2.0198
3.37681
8.12598
11.5729
11.2133
10.9744
11.0522
11.2762
11.5134
11.6591
11.7685
11.8552
11.922
1.00001
1.00003
1.0001
1.00023
1.00064
1.00131
1.00375
1.00736
1.02274
1.04056
1.14782
1.25927
2.00423
3.33803
8.02335
11.5808
11.2097
10.9633
11.0424
11.2677
11.5046
11.6503
11.7612
11.8494
11.9177
1.00001
1.00003
1.0001
1.00022
1.00063
1.00128
1.00365
1.00718
1.02208
1.03949
1.14339
1.25151
1.96878
3.25499
7.79104
11.597
11.1993
10.9315
11.0099
11.2335
11.4675
11.6107
11.721
11.8084
11.8766
1.00001
1.00003
1.0001
1.00021
1.0006
1.00123
1.0035
1.00689
1.0211
1.03787
1.13669
1.23981
1.91538
3.12948
7.43094
11.6246
11.1857
10.8797
10.9547
11.1728
11.4023
11.5404
11.6469
11.732
11.8009
1.00001
1.00003
1.00009
1.0002
1.00057
1.00117
1.00333
1.00665
1.01977
1.03684
1.12604
1.22721
1.84205
2.96567
6.94474
11.6543
11.1699
10.8103
10.8791
11.0873
11.3111
11.4423
11.5431
11.6244
11.6944
1.00001
1.00003
1.00009
1.00019
1.00054
1.0011
1.00311
1.00627
1.0182
1.03534
1.11358
1.21202
1.75703
2.77361
6.35312
11.6586
11.1469
10.7256
10.7848
10.9759
11.1905
11.3102
11.4
11.4736
11.5451
1.00001
1.00002
1.00008
1.00017
1.00049
1.00101
1.00285
1.00575
1.01657
1.03258
1.10173
1.19439
1.66908
2.5679
5.68644
11.5767
11.0871
10.6241
10.6711
10.8363
11.0346
11.1373
11.2086
11.2643
11.3294
1
1.00002
1.00007
1.00016
1.00045
1.00092
1.00258
1.00522
1.01503
1.02962
1.09185
1.17631
1.60009
2.40372
5.23602
11.2164
10.9201
10.5103
10.5384
10.6621
10.8348
10.9115
10.9509
10.9701
11.0089
1
1.00002
1.00006
1.00014
1.0004
1.00082
1.00231
1.00466
1.01344
1.02635
1.08281
1.15437
1.54017
2.2422
4.80297
10.5463
10.6135
10.4328
10.397
10.4595
10.5878
10.6246
10.612
10.5538
10.4944
1
1.00002
1.00005
1.00012
1.00033
1.00068
1.00194
1.00377
1.01176
1.02054
1.07526
1.12662
1.48685
2.07428
4.36237
9.70079
10.4527
10.3337
10.2228
10.2446
10.2964
10.2764
10.1812
9.95414
9.59369
1.00001
1.00003
1.00011
1.00023
1.00065
1.00133
1.0038
1.00747
1.02306
1.04114
1.14995
1.26332
2.0198
3.37682
8.12601
11.5729
11.2133
10.9744
11.0522
11.2762
11.5134
11.6591
11.7685
11.8552
11.922
1.00001
1.00003
1.0001
1.00023
1.00064
1.00131
1.00375
1.00736
1.02274
1.04056
1.14782
1.25928
2.00423
3.33804
8.02338
11.5808
11.2097
10.9633
11.0424
11.2677
11.5046
11.6503
11.7613
11.8494
11.9177
1.00001
1.00003
1.0001
1.00022
1.00063
1.00128
1.00365
1.00718
1.02208
1.03949
1.14339
1.25151
1.96879
3.255
7.79106
11.597
11.1993
10.9315
11.0099
11.2335
11.4676
11.6107
11.721
11.8084
11.8766
1.00001
1.00003
1.0001
1.00021
1.0006
1.00123
1.0035
1.00689
1.0211
1.03787
1.13669
1.23981
1.91538
3.12949
7.43097
11.6246
11.1857
10.8797
10.9547
11.1728
11.4023
11.5404
11.6469
11.732
11.8009
1.00001
1.00003
1.00009
1.0002
1.00057
1.00117
1.00333
1.00665
1.01977
1.03684
1.12604
1.22721
1.84206
2.96568
6.94477
11.6543
11.1699
10.8103
10.8791
11.0873
11.3111
11.4423
11.5431
11.6244
11.6944
1.00001
1.00003
1.00009
1.00019
1.00054
1.0011
1.00311
1.00627
1.0182
1.03534
1.11358
1.21202
1.75704
2.77362
6.35315
11.6586
11.1469
10.7256
10.7848
10.9759
11.1905
11.3102
11.4
11.4736
11.5451
1.00001
1.00002
1.00008
1.00017
1.00049
1.00101
1.00285
1.00575
1.01657
1.03258
1.10173
1.19439
1.66908
2.5679
5.68647
11.5767
11.0871
10.6241
10.6711
10.8363
11.0346
11.1373
11.2086
11.2643
11.3294
1
1.00002
1.00007
1.00016
1.00045
1.00092
1.00258
1.00522
1.01503
1.02962
1.09185
1.17631
1.60009
2.40373
5.23604
11.2164
10.9201
10.5103
10.5384
10.6621
10.8348
10.9115
10.9509
10.9701
11.0089
1
1.00002
1.00006
1.00014
1.0004
1.00082
1.00231
1.00466
1.01344
1.02635
1.08281
1.15437
1.54017
2.24221
4.80298
10.5463
10.6135
10.4328
10.397
10.4595
10.5878
10.6246
10.612
10.5538
10.4944
1
1.00002
1.00005
1.00012
1.00033
1.00068
1.00194
1.00377
1.01176
1.02054
1.07526
1.12662
1.48685
2.07429
4.36238
9.70081
10.4527
10.3337
10.2228
10.2446
10.2964
10.2764
10.1812
9.95414
9.59369
1.00001
1.00003
1.00011
1.00023
1.00065
1.00133
1.0038
1.00747
1.02306
1.04114
1.14995
1.26332
2.0198
3.37682
8.12601
11.5729
11.2133
10.9744
11.0522
11.2762
11.5134
11.6591
11.7685
11.8552
11.922
1.00001
1.00003
1.0001
1.00023
1.00064
1.00131
1.00375
1.00736
1.02274
1.04056
1.14782
1.25928
2.00423
3.33804
8.02338
11.5808
11.2097
10.9633
11.0424
11.2677
11.5046
11.6503
11.7613
11.8494
11.9178
1.00001
1.00003
1.0001
1.00022
1.00063
1.00128
1.00365
1.00718
1.02208
1.03949
1.14339
1.25151
1.96879
3.255
7.79106
11.597
11.1993
10.9315
11.0099
11.2335
11.4676
11.6107
11.721
11.8084
11.8766
1.00001
1.00003
1.0001
1.00021
1.0006
1.00123
1.0035
1.00689
1.0211
1.03787
1.13669
1.23981
1.91538
3.12949
7.43097
11.6246
11.1857
10.8797
10.9547
11.1728
11.4023
11.5404
11.6469
11.732
11.8009
1.00001
1.00003
1.00009
1.0002
1.00057
1.00117
1.00333
1.00665
1.01977
1.03684
1.12604
1.22721
1.84206
2.96568
6.94477
11.6543
11.1699
10.8103
10.8791
11.0873
11.3111
11.4423
11.5431
11.6244
11.6944
1.00001
1.00003
1.00009
1.00019
1.00054
1.0011
1.00311
1.00627
1.0182
1.03534
1.11358
1.21202
1.75704
2.77362
6.35315
11.6586
11.1469
10.7256
10.7848
10.9759
11.1905
11.3102
11.4
11.4736
11.5451
1.00001
1.00002
1.00008
1.00017
1.00049
1.00101
1.00285
1.00575
1.01657
1.03258
1.10173
1.19439
1.66908
2.56791
5.68647
11.5767
11.0871
10.6241
10.6711
10.8363
11.0346
11.1373
11.2086
11.2643
11.3294
1
1.00002
1.00007
1.00016
1.00045
1.00092
1.00258
1.00522
1.01503
1.02962
1.09185
1.17631
1.60009
2.40373
5.23604
11.2164
10.9201
10.5103
10.5384
10.6621
10.8348
10.9115
10.9509
10.9701
11.0089
1
1.00002
1.00006
1.00014
1.0004
1.00082
1.00231
1.00466
1.01344
1.02635
1.08281
1.15437
1.54017
2.24221
4.80298
10.5463
10.6135
10.4328
10.397
10.4595
10.5878
10.6246
10.612
10.5538
10.4944
1
1.00002
1.00005
1.00012
1.00033
1.00068
1.00194
1.00377
1.01176
1.02054
1.07526
1.12662
1.48685
2.07429
4.36238
9.70081
10.4527
10.3337
10.2228
10.2446
10.2964
10.2764
10.1812
9.95414
9.59369
1.00001
1.00003
1.00011
1.00023
1.00065
1.00133
1.0038
1.00747
1.02306
1.04114
1.14995
1.26332
2.0198
3.37682
8.12601
11.5729
11.2133
10.9744
11.0522
11.2762
11.5134
11.6591
11.7685
11.8552
11.922
1.00001
1.00003
1.0001
1.00023
1.00064
1.00131
1.00375
1.00736
1.02274
1.04056
1.14782
1.25928
2.00423
3.33804
8.02338
11.5808
11.2097
10.9633
11.0424
11.2677
11.5046
11.6503
11.7613
11.8494
11.9178
1.00001
1.00003
1.0001
1.00022
1.00063
1.00128
1.00365
1.00718
1.02208
1.03949
1.14339
1.25151
1.96879
3.255
7.79106
11.597
11.1993
10.9315
11.0099
11.2335
11.4676
11.6107
11.721
11.8084
11.8766
1.00001
1.00003
1.0001
1.00021
1.0006
1.00123
1.0035
1.00689
1.0211
1.03787
1.13669
1.23981
1.91538
3.12949
7.43097
11.6246
11.1857
10.8797
10.9547
11.1728
11.4023
11.5404
11.6469
11.732
11.8009
1.00001
1.00003
1.00009
1.0002
1.00057
1.00117
1.00333
1.00665
1.01977
1.03684
1.12604
1.22721
1.84206
2.96568
6.94477
11.6543
11.1699
10.8103
10.8791
11.0873
11.3111
11.4423
11.5431
11.6244
11.6944
1.00001
1.00003
1.00009
1.00019
1.00054
1.0011
1.00311
1.00627
1.0182
1.03534
1.11358
1.21202
1.75704
2.77362
6.35315
11.6586
11.1469
10.7256
10.7848
10.9759
11.1905
11.3102
11.4
11.4736
11.5451
1.00001
1.00002
1.00008
1.00017
1.00049
1.00101
1.00285
1.00575
1.01657
1.03258
1.10173
1.19439
1.66908
2.5679
5.68646
11.5767
11.0871
10.6241
10.6711
10.8363
11.0346
11.1373
11.2086
11.2643
11.3294
1
1.00002
1.00007
1.00016
1.00045
1.00092
1.00258
1.00522
1.01503
1.02962
1.09185
1.17631
1.60009
2.40373
5.23604
11.2164
10.9201
10.5103
10.5384
10.6621
10.8348
10.9115
10.9509
10.9701
11.0089
1
1.00002
1.00006
1.00014
1.0004
1.00082
1.00231
1.00466
1.01344
1.02635
1.08281
1.15437
1.54017
2.24221
4.80298
10.5463
10.6135
10.4328
10.397
10.4595
10.5878
10.6246
10.612
10.5538
10.4944
1
1.00002
1.00005
1.00012
1.00033
1.00068
1.00194
1.00377
1.01176
1.02054
1.07526
1.12662
1.48685
2.07429
4.36238
9.70081
10.4527
10.3337
10.2228
10.2446
10.2964
10.2764
10.1812
9.95414
9.59369
1.00001
1.00003
1.00011
1.00023
1.00065
1.00133
1.0038
1.00747
1.02306
1.04114
1.14995
1.26332
2.0198
3.37682
8.12601
11.5729
11.2133
10.9744
11.0522
11.2762
11.5134
11.6591
11.7685
11.8552
11.922
1.00001
1.00003
1.0001
1.00023
1.00064
1.00131
1.00375
1.00736
1.02274
1.04056
1.14782
1.25928
2.00423
3.33804
8.02338
11.5808
11.2097
10.9633
11.0424
11.2677
11.5046
11.6503
11.7613
11.8494
11.9178
1.00001
1.00003
1.0001
1.00022
1.00063
1.00128
1.00365
1.00718
1.02208
1.03949
1.14339
1.25151
1.96879
3.255
7.79106
11.597
11.1993
10.9315
11.0099
11.2335
11.4676
11.6107
11.721
11.8084
11.8766
1.00001
1.00003
1.0001
1.00021
1.0006
1.00123
1.0035
1.00689
1.0211
1.03787
1.13669
1.23981
1.91538
3.12949
7.43097
11.6246
11.1857
10.8797
10.9547
11.1728
11.4023
11.5404
11.6469
11.732
11.8009
1.00001
1.00003
1.00009
1.0002
1.00057
1.00117
1.00333
1.00665
1.01977
1.03684
1.12604
1.22721
1.84206
2.96568
6.94477
11.6543
11.1699
10.8103
10.8791
11.0873
11.3111
11.4423
11.5431
11.6244
11.6944
1.00001
1.00003
1.00009
1.00019
1.00054
1.0011
1.00311
1.00627
1.0182
1.03534
1.11358
1.21202
1.75704
2.77362
6.35315
11.6586
11.1469
10.7256
10.7848
10.9759
11.1905
11.3102
11.4
11.4736
11.5451
1.00001
1.00002
1.00008
1.00017
1.00049
1.00101
1.00285
1.00575
1.01657
1.03258
1.10173
1.19439
1.66908
2.5679
5.68646
11.5767
11.0871
10.6241
10.6711
10.8363
11.0346
11.1373
11.2086
11.2643
11.3294
1
1.00002
1.00007
1.00016
1.00045
1.00092
1.00258
1.00522
1.01503
1.02962
1.09185
1.17631
1.60009
2.40373
5.23604
11.2164
10.9201
10.5103
10.5384
10.6621
10.8348
10.9115
10.9509
10.9701
11.0089
1
1.00002
1.00006
1.00014
1.0004
1.00082
1.00231
1.00466
1.01344
1.02635
1.08281
1.15437
1.54017
2.24221
4.80298
10.5463
10.6135
10.4328
10.397
10.4595
10.5878
10.6246
10.612
10.5538
10.4944
1
1.00002
1.00005
1.00012
1.00033
1.00068
1.00194
1.00377
1.01176
1.02054
1.07526
1.12662
1.48685
2.07429
4.36238
9.70081
10.4527
10.3337
10.2228
10.2446
10.2964
10.2764
10.1812
9.95414
9.59369
1.00001
1.00003
1.00011
1.00023
1.00065
1.00133
1.0038
1.00747
1.02306
1.04114
1.14995
1.26332
2.0198
3.37682
8.12601
11.5729
11.2133
10.9744
11.0522
11.2762
11.5134
11.6591
11.7685
11.8552
11.922
1.00001
1.00003
1.0001
1.00023
1.00064
1.00131
1.00375
1.00736
1.02274
1.04056
1.14782
1.25928
2.00423
3.33804
8.02338
11.5808
11.2097
10.9633
11.0424
11.2677
11.5046
11.6503
11.7613
11.8494
11.9177
1.00001
1.00003
1.0001
1.00022
1.00063
1.00128
1.00365
1.00718
1.02208
1.03949
1.14339
1.25151
1.96879
3.255
7.79106
11.597
11.1993
10.9315
11.0099
11.2335
11.4676
11.6107
11.721
11.8084
11.8766
1.00001
1.00003
1.0001
1.00021
1.0006
1.00123
1.0035
1.00689
1.0211
1.03787
1.13669
1.23981
1.91538
3.12949
7.43097
11.6246
11.1857
10.8797
10.9547
11.1728
11.4023
11.5404
11.6469
11.732
11.8009
1.00001
1.00003
1.00009
1.0002
1.00057
1.00117
1.00333
1.00665
1.01977
1.03684
1.12604
1.22721
1.84206
2.96568
6.94477
11.6543
11.1699
10.8103
10.8791
11.0873
11.3111
11.4423
11.5431
11.6244
11.6944
1.00001
1.00003
1.00009
1.00019
1.00054
1.0011
1.00311
1.00627
1.0182
1.03534
1.11358
1.21202
1.75704
2.77362
6.35315
11.6586
11.1469
10.7256
10.7848
10.9759
11.1905
11.3102
11.4
11.4736
11.5451
1.00001
1.00002
1.00008
1.00017
1.00049
1.00101
1.00285
1.00575
1.01657
1.03258
1.10173
1.19439
1.66908
2.56791
5.68647
11.5767
11.0871
10.6241
10.6711
10.8363
11.0346
11.1373
11.2086
11.2643
11.3294
1
1.00002
1.00007
1.00016
1.00045
1.00092
1.00258
1.00522
1.01503
1.02962
1.09185
1.17631
1.60009
2.40373
5.23604
11.2164
10.9201
10.5103
10.5384
10.6621
10.8348
10.9115
10.9509
10.9701
11.0089
1
1.00002
1.00006
1.00014
1.0004
1.00082
1.00231
1.00466
1.01344
1.02635
1.08281
1.15437
1.54017
2.24221
4.80298
10.5463
10.6135
10.4328
10.397
10.4595
10.5878
10.6246
10.612
10.5538
10.4944
1
1.00002
1.00005
1.00012
1.00033
1.00068
1.00194
1.00377
1.01176
1.02054
1.07526
1.12662
1.48685
2.07429
4.36238
9.70081
10.4527
10.3337
10.2228
10.2446
10.2964
10.2764
10.1812
9.95414
9.59369
1.00001
1.00003
1.00011
1.00023
1.00065
1.00133
1.0038
1.00747
1.02306
1.04114
1.14995
1.26332
2.0198
3.37682
8.12601
11.5729
11.2133
10.9744
11.0522
11.2762
11.5134
11.6591
11.7685
11.8552
11.922
1.00001
1.00003
1.0001
1.00023
1.00064
1.00131
1.00375
1.00736
1.02274
1.04056
1.14782
1.25928
2.00423
3.33804
8.02338
11.5808
11.2097
10.9633
11.0424
11.2677
11.5046
11.6503
11.7613
11.8494
11.9177
1.00001
1.00003
1.0001
1.00022
1.00063
1.00128
1.00365
1.00718
1.02208
1.03949
1.14339
1.25151
1.96879
3.255
7.79106
11.597
11.1993
10.9315
11.0099
11.2335
11.4676
11.6107
11.721
11.8084
11.8766
1.00001
1.00003
1.0001
1.00021
1.0006
1.00123
1.0035
1.00689
1.0211
1.03787
1.13669
1.23981
1.91538
3.12949
7.43097
11.6246
11.1857
10.8797
10.9547
11.1728
11.4023
11.5404
11.6469
11.732
11.8009
1.00001
1.00003
1.00009
1.0002
1.00057
1.00117
1.00333
1.00665
1.01977
1.03684
1.12604
1.22721
1.84206
2.96568
6.94477
11.6543
11.1699
10.8103
10.8791
11.0873
11.3111
11.4423
11.5431
11.6244
11.6944
1.00001
1.00003
1.00009
1.00019
1.00054
1.0011
1.00311
1.00627
1.0182
1.03534
1.11358
1.21202
1.75704
2.77362
6.35315
11.6586
11.1469
10.7256
10.7848
10.9759
11.1905
11.3102
11.4
11.4736
11.5451
1.00001
1.00002
1.00008
1.00017
1.00049
1.00101
1.00285
1.00575
1.01657
1.03258
1.10173
1.19439
1.66908
2.5679
5.68647
11.5767
11.0871
10.6241
10.6711
10.8363
11.0346
11.1373
11.2086
11.2643
11.3294
1
1.00002
1.00007
1.00016
1.00045
1.00092
1.00258
1.00522
1.01503
1.02962
1.09185
1.17631
1.60009
2.40373
5.23604
11.2164
10.9201
10.5103
10.5384
10.6621
10.8348
10.9115
10.9509
10.9701
11.0089
1
1.00002
1.00006
1.00014
1.0004
1.00082
1.00231
1.00466
1.01344
1.02635
1.08281
1.15437
1.54017
2.24221
4.80298
10.5463
10.6135
10.4328
10.397
10.4595
10.5878
10.6246
10.612
10.5538
10.4944
1
1.00002
1.00005
1.00012
1.00033
1.00068
1.00194
1.00377
1.01176
1.02054
1.07526
1.12662
1.48685
2.07429
4.36238
9.70081
10.4527
10.3337
10.2228
10.2446
10.2964
10.2764
10.1812
9.95414
9.59369
1.00001
1.00003
1.00011
1.00023
1.00065
1.00133
1.0038
1.00747
1.02306
1.04114
1.14995
1.26332
2.0198
3.37681
8.12598
11.5729
11.2133
10.9744
11.0522
11.2762
11.5134
11.6591
11.7685
11.8552
11.922
1.00001
1.00003
1.0001
1.00023
1.00064
1.00131
1.00375
1.00736
1.02274
1.04056
1.14782
1.25927
2.00423
3.33803
8.02335
11.5808
11.2097
10.9633
11.0424
11.2677
11.5046
11.6503
11.7612
11.8494
11.9177
1.00001
1.00003
1.0001
1.00022
1.00063
1.00128
1.00365
1.00718
1.02208
1.03949
1.14339
1.25151
1.96878
3.25499
7.79104
11.597
11.1993
10.9315
11.0099
11.2335
11.4675
11.6107
11.721
11.8084
11.8766
1.00001
1.00003
1.0001
1.00021
1.0006
1.00123
1.0035
1.00689
1.0211
1.03787
1.13669
1.23981
1.91538
3.12948
7.43094
11.6246
11.1857
10.8797
10.9547
11.1728
11.4023
11.5404
11.6469
11.732
11.8009
1.00001
1.00003
1.00009
1.0002
1.00057
1.00117
1.00333
1.00665
1.01977
1.03684
1.12604
1.22721
1.84205
2.96567
6.94474
11.6543
11.1699
10.8103
10.8791
11.0873
11.3111
11.4423
11.5431
11.6244
11.6944
1.00001
1.00003
1.00009
1.00019
1.00054
1.0011
1.00311
1.00627
1.0182
1.03534
1.11358
1.21202
1.75703
2.77361
6.35312
11.6586
11.1469
10.7256
10.7848
10.9759
11.1905
11.3102
11.4
11.4736
11.5451
1.00001
1.00002
1.00008
1.00017
1.00049
1.00101
1.00285
1.00575
1.01657
1.03258
1.10173
1.19439
1.66908
2.5679
5.68644
11.5767
11.0871
10.6241
10.6711
10.8363
11.0346
11.1373
11.2086
11.2643
11.3294
1
1.00002
1.00007
1.00016
1.00045
1.00092
1.00258
1.00522
1.01503
1.02962
1.09185
1.17631
1.60009
2.40372
5.23602
11.2164
10.9201
10.5103
10.5384
10.6621
10.8348
10.9115
10.9509
10.9701
11.0089
1
1.00002
1.00006
1.00014
1.0004
1.00082
1.00231
1.00466
1.01344
1.02635
1.08281
1.15437
1.54017
2.2422
4.80297
10.5463
10.6135
10.4328
10.397
10.4595
10.5878
10.6246
10.612
10.5538
10.4944
1
1.00002
1.00005
1.00012
1.00033
1.00068
1.00194
1.00377
1.01176
1.02054
1.07526
1.12662
1.48685
2.07428
4.36237
9.70079
10.4527
10.3337
10.2228
10.2446
10.2964
10.2764
10.1812
9.95414
9.59369
1.00001
1.00003
1.0001
1.00022
1.00065
1.00132
1.00379
1.00746
1.02305
1.04112
1.14992
1.26327
2.01973
3.37655
8.12547
11.573
11.2133
10.9743
11.0521
11.2761
11.5133
11.659
11.7684
11.8551
11.9219
1.00001
1.00003
1.0001
1.00022
1.00064
1.0013
1.00374
1.00735
1.02273
1.04054
1.1478
1.25922
2.00416
3.33777
8.02284
11.5809
11.2096
10.9633
11.0424
11.2676
11.5045
11.6503
11.7612
11.8494
11.9177
1.00001
1.00003
1.0001
1.00021
1.00062
1.00127
1.00364
1.00717
1.02207
1.03947
1.14336
1.25145
1.96871
3.25474
7.79052
11.5971
11.1993
10.9314
11.0098
11.2335
11.4675
11.6106
11.7209
11.8083
11.8765
1.00001
1.00003
1.00009
1.00021
1.0006
1.00122
1.00349
1.00688
1.02109
1.03785
1.13666
1.23976
1.91531
3.12924
7.43043
11.6247
11.1856
10.8796
10.9546
11.1728
11.4022
11.5403
11.6469
11.7319
11.8008
1.00001
1.00003
1.00009
1.0002
1.00057
1.00117
1.00332
1.00664
1.01976
1.03681
1.12604
1.22714
1.84204
2.96545
6.94428
11.6543
11.1698
10.8102
10.879
11.0873
11.311
11.4422
11.543
11.6243
11.6943
1.00001
1.00002
1.00008
1.00018
1.00053
1.00109
1.0031
1.00626
1.01819
1.03532
1.11357
1.21197
1.75699
2.77342
6.35269
11.6586
11.1468
10.7255
10.7847
10.9759
11.1904
11.3102
11.3999
11.4735
11.545
1
1.00002
1.00008
1.00017
1.00049
1.001
1.00284
1.00574
1.01656
1.03256
1.10172
1.19435
1.66903
2.56772
5.68602
11.5767
11.0871
10.624
10.6711
10.8363
11.0345
11.1372
11.2085
11.2643
11.3293
1
1.00002
1.00007
1.00015
1.00044
1.00091
1.00258
1.00521
1.01502
1.0296
1.09184
1.17627
1.60006
2.4036
5.23581
11.2162
10.92
10.5102
10.5383
10.6621
10.8347
10.9115
10.9509
10.97
11.0088
1
1.00002
1.00006
1.00013
1.00039
1.00081
1.0023
1.00465
1.01343
1.02634
1.0828
1.15432
1.54015
2.24208
4.8028
10.546
10.6134
10.4327
10.3969
10.4594
10.5878
10.6246
10.612
10.5537
10.4944
1
1.00001
1.00005
1.00011
1.00033
1.00067
1.00193
1.00376
1.01175
1.02052
1.07525
1.12659
1.48683
2.07416
4.36224
9.70046
10.4526
10.3336
10.2227
10.2446
10.2963
10.2763
10.1811
9.95409
9.59364
1
1.00001
1.00004
1.00012
1.00025
1.00072
1.00147
1.00425
1.0083
1.02596
1.0461
1.16768
1.30173
2.13428
3.70093
8.70501
10.3536
10.2456
10.0444
10.0103
9.9832
9.88526
9.62167
9.0115
7.47496
1
1.00001
1.00003
1.0001
1.00022
1.00063
1.00128
1.00366
1.00719
1.02212
1.03954
1.14311
1.25162
1.96133
3.22482
7.52658
10.2679
10.1492
9.88062
9.7644
9.67303
9.47576
9.05853
8.22591
6.62935
1
1.00001
1.00003
1.00009
1.00019
1.00054
1.00111
1.00315
1.00635
1.0185
1.03549
1.11613
1.21406
1.76974
2.78523
6.26124
10.184
10.055
9.73332
9.52087
9.36514
9.08672
8.57652
7.72229
6.42169
1
1.00001
1.00002
1.00007
1.00016
1.00045
1.00092
1.0026
1.00526
1.01509
1.02984
1.09117
1.17843
1.58677
2.36529
4.94097
9.93663
9.88489
9.60997
9.29521
9.07147
8.74959
8.22239
7.43241
6.37848
1
1.00001
1.00002
1.00006
1.00012
1.00036
1.00074
1.00209
1.00423
1.0122
1.02382
1.07481
1.13883
1.47996
2.08893
4.25889
9.15217
9.59166
9.4266
9.08673
8.81042
8.46562
7.9638
7.25711
6.369
1
1
1.00002
1.00004
1.00011
1.00024
1.00068
1.00139
1.00398
1.00771
1.02425
1.04244
1.15524
1.27391
2.04427
3.40651
7.74421
9.30482
9.20427
8.93273
8.59456
8.23043
7.75903
7.12873
6.36552
1
1
1.00001
1.00003
1.00009
1.0002
1.00056
1.00114
1.00324
1.00649
1.01912
1.03585
1.12051
1.21838
1.78998
2.81381
6.19954
9.12155
9.0601
8.82323
8.42607
8.0432
7.59311
7.0254
6.3566
0.999998
1
1.00001
1.00002
1.00007
1.00015
1.00043
1.00089
1.0025
1.00505
1.01451
1.02866
1.08743
1.17123
1.55702
2.2844
4.61115
8.77723
8.91816
8.73511
8.32679
7.89668
7.457
6.94192
6.34872
0.999996
0.999998
1
1.00002
1.00004
1.00013
1.00027
1.00077
1.00158
1.00448
1.00882
1.02679
1.04841
1.17
1.31032
2.10661
3.59722
7.87275
8.699
8.56863
8.23405
7.778
7.34382
6.87105
6.33934
0.999995
0.999996
0.999999
1.00001
1.00003
1.0001
1.0002
1.00058
1.00118
1.00335
1.00659
1.02013
1.03601
1.12817
1.22518
1.83356
2.8827
6.2741
8.41941
8.36885
8.14863
7.69689
7.26068
6.81792
6.3338
0.999994
0.999994
0.999998
1
1.00002
1.00006
1.00017
1.00035
1.00099
1.00197
1.00587
1.01071
1.0364
1.06112
1.22574
1.4412
2.41292
4.48911
8.0005
8.22422
8.06918
7.68601
7.21366
6.77813
6.32987
0.999993
0.999993
0.999996
1
1.00001
1.00004
1.00012
1.00026
1.00073
1.0015
1.00423
1.00837
1.02516
1.04577
1.1588
1.28755
2.01675
3.32838
7.04225
8.0288
7.93354
7.65758
7.20179
6.75872
6.33078
0.999992
0.999993
0.999994
0.999998
1
1.00003
1.00007
1.00021
1.00043
1.00122
1.00238
1.00726
1.01281
1.04552
1.07487
1.28221
1.5562
2.77827
5.38308
7.72064
7.73011
7.58699
7.22177
6.76158
6.33523
0.999992
0.999992
0.999993
0.999996
1
1.00002
1.00005
1.00015
1.00031
1.00088
1.0018
1.00505
1.01014
1.02943
1.05647
1.17839
1.35908
2.11792
3.59976
7.11325
7.61954
7.5142
7.22882
6.77923
6.34906
0.999991
0.999992
0.999992
0.999994
0.999999
1.00001
1.00004
1.00008
1.00025
1.00051
1.00144
1.00291
1.00827
1.01605
1.04993
1.08975
1.30953
1.63915
2.92371
5.682
7.3778
7.36303
7.20774
6.83733
6.38142
0.999991
0.999991
0.999992
0.999993
0.999996
1
1.00002
1.00005
1.00017
1.00035
1.00098
1.00198
1.00555
1.01096
1.03267
1.05949
1.20084
1.38592
2.21927
3.86615
6.8711
7.25485
7.15523
6.88546
6.438
0.999991
0.999991
0.999991
0.999992
0.999994
0.999999
1.00001
1.00004
1.00009
1.00027
1.00056
1.00156
1.00316
1.0089
1.01759
1.05243
1.10012
1.3166
1.70219
2.94397
5.69541
7.03029
7.01788
6.87336
6.53618
0.999991
0.999991
0.999991
0.999992
0.999993
0.999996
1
1.00002
1.00006
1.00018
1.00037
1.00102
1.00208
1.0058
1.01146
1.03395
1.0621
1.20705
1.40157
2.2444
3.91104
6.53662
6.90236
6.81931
6.58467
0.999991
0.999991
0.999991
0.999991
0.999992
0.999994
1
1.00001
1.00004
1.00009
1.00028
1.00057
1.00159
1.00322
1.00905
1.01796
1.05235
1.10469
1.31128
1.69744
2.87859
5.42142
6.66959
6.67457
6.56614
0.999991
0.99999
0.999991
0.999991
0.999991
0.999993
0.999995
1
1.00002
1.00007
1.00015
1.00042
1.00087
1.0024
1.00485
1.0136
1.0268
1.07951
1.15462
1.47575
2.05527
3.69432
6.16193
6.56226
6.50681
0.999991
0.99999
0.99999
0.999991
0.999991
0.999992
0.999994
0.999999
1.00001
1.00004
1.00009
1.00027
1.00055
1.00152
1.00309
1.00856
1.01705
1.04894
1.09728
1.28794
1.63528
2.71284
5.01822
6.32064
6.38276
0.999991
0.99999
0.99999
0.99999
0.999991
0.999991
0.999993
0.999995
1
1.00002
1.00006
1.00014
1.00039
1.0008
1.00219
1.00442
1.01229
1.02428
1.07056
1.14005
1.41314
1.9149
3.2754
5.78287
6.27191
0.999991
0.99999
0.99999
0.99999
0.99999
0.999991
0.999992
0.999993
0.999998
1.00001
1.00004
1.00008
1.00024
1.0005
1.00136
1.00276
1.00759
1.015
1.04373
1.08167
1.25935
1.52348
2.51349
4.53205
5.98261
0.999991
0.99999
0.99999
0.99999
0.99999
0.999991
0.999991
0.999992
0.999995
1
1.00002
1.00005
1.00014
1.0003
1.00081
1.00165
1.00451
1.00904
1.02522
1.04983
1.14509
1.29667
1.84435
2.91173
5.33007
0.999991
0.99999
0.99999
0.99999
0.99999
0.99999
0.999991
0.999991
0.999993
0.999996
1.00001
1.00002
1.00008
1.00017
1.00049
1.001
1.00272
1.00549
1.01524
1.02988
1.08912
1.16765
1.53158
2.14201
3.89475
0.999991
0.99999
0.99999
0.99999
0.99999
0.99999
0.99999
0.999991
0.999992
0.999994
0.999999
1.00001
1.00004
1.00011
1.00024
1.00067
1.00136
1.00372
1.00741
1.02111
1.03948
1.12484
1.23077
1.72056
2.55249
0.999991
0.99999
0.99999
0.99999
0.99999
0.99999
0.99999
0.999991
0.999991
0.999992
0.999996
1
1.00002
1.00005
1.00016
1.00033
1.00091
1.00184
1.00505
1.00993
1.02885
1.05266
1.16901
1.318
1.93634
0.999991
0.99999
0.99999
0.99999
0.99999
0.99999
0.99999
0.99999
0.999991
0.999992
0.999993
0.999998
1.00001
1.00003
1.00008
1.00022
1.00046
1.00126
1.00255
1.00698
1.01396
1.03905
1.07866
1.22247
1.48943
0.999991
0.99999
0.99999
0.99999
0.99999
0.99999
0.99999
0.99999
0.999991
0.999991
0.999992
0.999995
0.999999
1.00001
1.00004
1.00012
1.00026
1.00072
1.00146
1.00394
1.00793
1.02185
1.043
1.12438
1.2475
0.999991
0.99999
0.99999
0.99999
0.99999
0.99999
0.99999
0.99999
0.99999
0.999991
0.999991
0.999992
0.999996
1
1.00002
1.00006
1.00016
1.00034
1.00093
1.00189
1.00513
1.01023
1.0287
1.05458
1.1637
0.999991
0.99999
0.99999
0.99999
0.99999
0.99999
0.99999
0.99999
0.99999
0.99999
0.999991
0.999992
0.999993
0.999998
1.00001
1.00003
1.00008
1.00022
1.00046
1.00124
1.00251
1.00683
1.01367
1.0378
1.07694
0.999991
0.99999
0.99999
0.99999
0.99999
0.99999
0.99999
0.99999
0.99999
0.99999
0.999991
0.999991
0.999992
0.999994
1
1.00001
1.00005
1.0001
1.00029
1.0006
1.00164
1.0033
1.00896
1.01799
1.04934
0.999991
0.99999
0.99999
0.99999
0.99999
0.99999
0.99999
0.99999
0.99999
0.99999
0.99999
0.999991
0.999991
0.999992
0.999996
1
1.00002
1.00006
1.00017
1.00035
1.00094
1.00192
1.00515
1.01038
1.02808
0.999991
0.99999
0.99999
0.99999
0.99999
0.99999
0.99999
0.99999
0.99999
0.99999
0.99999
0.99999
0.999991
0.999992
0.999994
0.999999
1.00001
1.00004
1.00009
1.00025
1.00052
1.00143
1.00289
1.00792
1.01577
0.999991
0.99999
0.99999
0.99999
0.99999
0.99999
0.99999
0.99999
0.99999
0.99999
0.99999
0.99999
0.999991
0.999991
0.999993
0.999996
1.00001
1.00002
1.00008
1.00016
1.00046
1.00095
1.00265
1.00529
1.01543
0.999991
0.99999
0.99999
0.99999
0.99999
0.99999
0.99999
0.99999
0.99999
0.99999
0.99999
0.99999
0.999991
0.999991
0.999992
0.999996
1
1.00002
1.00005
1.00016
1.00034
1.00097
1.00197
1.00568
1.01094
0.999991
0.99999
0.99999
0.99999
0.99999
0.99999
0.99999
0.99999
0.99999
0.99999
0.99999
0.99999
0.999991
0.999991
0.999992
0.999994
1
1.00001
1.00006
1.00013
1.00038
1.00078
1.00224
1.00441
1.01362
0.999991
0.99999
0.99999
0.99999
0.99999
0.99999
0.99999
0.99999
0.99999
0.99999
0.99999
0.99999
0.999991
0.999991
0.999992
0.999994
1
1.00001
1.00006
1.00012
1.00037
1.00075
1.00217
1.00425
1.01328
0.999991
0.99999
0.99999
0.99999
0.99999
0.99999
0.99999
0.99999
0.99999
0.99999
0.99999
0.99999
0.999991
0.999991
0.999992
0.999995
1
1.00002
1.00005
1.00015
1.00031
1.00091
1.00184
1.00534
1.01046
0.999991
0.99999
0.99999
0.99999
0.99999
0.99999
0.99999
0.99999
0.99999
0.99999
0.99999
0.99999
0.999991
0.999991
0.999992
0.999995
1
1.00002
1.00005
1.00015
1.00032
1.00092
1.00188
1.00538
1.01069
1
1.00002
1.00004
1.00012
1.00026
1.00073
1.00148
1.00426
1.00831
1.02597
1.04612
1.1677
1.30178
2.13432
3.70113
8.70535
10.3536
10.2456
10.0445
10.0104
9.98325
9.88531
9.62172
9.01154
7.475
1
1.00002
1.00004
1.00011
1.00022
1.00063
1.00129
1.00366
1.0072
1.02213
1.03956
1.14313
1.25167
1.96137
3.22501
7.52694
10.2679
10.1493
9.88067
9.76445
9.67308
9.47581
9.05857
8.22595
6.62939
1
1.00001
1.00003
1.00009
1.0002
1.00055
1.00112
1.00316
1.00636
1.01851
1.03551
1.11614
1.21412
1.76975
2.78539
6.26159
10.1841
10.0551
9.73337
9.52092
9.36518
9.08676
8.57657
7.72233
6.42174
1
1.00001
1.00003
1.00008
1.00016
1.00046
1.00093
1.00261
1.00527
1.0151
1.02985
1.09118
1.17847
1.5868
2.3654
4.94115
9.9368
9.88499
9.61001
9.29524
9.07151
8.74963
8.22243
7.43245
6.37852
1
1.00001
1.00002
1.00006
1.00013
1.00037
1.00075
1.0021
1.00424
1.01221
1.02385
1.07481
1.13889
1.47996
2.08903
4.25902
9.15248
9.59173
9.42665
9.08675
8.81045
8.46566
7.96384
7.25715
6.36904
1
1.00001
1.00002
1.00004
1.00012
1.00025
1.00069
1.0014
1.00399
1.00772
1.02426
1.04246
1.15526
1.27396
2.04431
3.40669
7.74451
9.30486
9.20431
8.93275
8.59459
8.23046
7.75906
7.12877
6.36555
1
1
1.00002
1.00003
1.0001
1.0002
1.00057
1.00115
1.00325
1.0065
1.01913
1.03588
1.12051
1.21845
1.78998
2.81396
6.19983
9.12158
9.06012
8.82324
8.4261
8.04323
7.59314
7.02543
6.35663
1
1
1.00001
1.00003
1.00008
1.00016
1.00044
1.00089
1.00251
1.00506
1.01452
1.02867
1.08745
1.17126
1.55706
2.28453
4.61146
8.77729
8.91817
8.73512
8.32681
7.89671
7.45703
6.94195
6.34875
1
1
1.00001
1.00002
1.00005
1.00014
1.00028
1.00078
1.00159
1.00449
1.00883
1.0268
1.04843
1.17002
1.31037
2.10667
3.59737
7.87292
8.69903
8.56865
8.23407