/*--------------------------------*- C++ -*----------------------------------*\
| =========                 |                                                 |
| \\      /  F ield         | OpenFOAM: The Open Source CFD Toolbox           |
|  \\    /   O peration     | Version:  4.1                                   |
|   \\  /    A nd           | Web:      www.OpenFOAM.org                      |
|    \\/     M anipulation  |                                                 |
\*---------------------------------------------------------------------------*/
FoamFile
{
    version     2.0;
    format      ascii;
    class       volScalarField;
    location    "0.46";
    object      Ma;
}
// * * * * * * * * * * * * * * * * * * * * * * * * * * * * * * * * * * * * * //

dimensions      [0 0 0 0 0 0 0];

internalField   nonuniform List<scalar> 
52500
(
3.14268
3.28315
3.27932
3.26571
3.22401
3.08973
2.60515
1.27632
0.146527
0.497048
0.313444
0.279044
0.291983
0.278986
0.245908
0.209028
0.170175
0.135962
0.10268
0.0709931
0.0513002
0.0413009
0.0358154
0.047128
0.0449416
3.14275
3.28329
3.27951
3.2662
3.22546
3.09446
2.62161
1.30967
0.143729
0.500892
0.319681
0.281384
0.293852
0.281219
0.248208
0.21186
0.17443
0.142338
0.112668
0.0875832
0.0771528
0.0760097
0.0772288
0.0879779
0.0884683
3.14287
3.28358
3.27994
3.26729
3.22863
3.10489
2.65841
1.38725
0.134924
0.503019
0.332817
0.286865
0.299438
0.288021
0.255971
0.22139
0.187097
0.159321
0.136132
0.119867
0.118044
0.12377
0.129666
0.143972
0.146351
3.14299
3.28394
3.28052
3.26882
3.23311
3.11961
2.71175
1.50439
0.136113
0.507912
0.353833
0.294554
0.307563
0.297787
0.267169
0.234906
0.204785
0.182114
0.165625
0.156971
0.161756
0.173785
0.183813
0.203981
0.208562
3.14305
3.28432
3.2812
3.27069
3.23848
3.13716
2.77661
1.6552
0.178606
0.510921
0.382548
0.305724
0.318956
0.310905
0.282473
0.252394
0.226619
0.209012
0.198722
0.19632
0.206286
0.224843
0.23885
0.264821
0.272455
3.14298
3.28465
3.28196
3.27274
3.24423
3.15606
2.84902
1.84342
0.286438
0.51218
0.419077
0.319629
0.333335
0.326564
0.30101
0.27303
0.251651
0.238823
0.234641
0.237745
0.252491
0.277132
0.295823
0.326061
0.340142
3.14271
3.28489
3.28277
3.27477
3.24992
3.17486
2.92063
2.0521
0.465451
0.506315
0.462714
0.337104
0.350285
0.344847
0.322705
0.29606
0.278983
0.27054
0.272609
0.281509
0.300916
0.33094
0.355964
0.388622
0.415331
3.14221
3.28502
3.28352
3.27647
3.25532
3.19317
2.98767
2.25803
0.692089
0.489005
0.510971
0.359162
0.369105
0.36533
0.346632
0.320689
0.307721
0.303406
0.311831
0.327013
0.350307
0.385402
0.419742
0.456825
0.500415
3.14159
3.28518
3.28403
3.27809
3.26095
3.21054
3.04747
2.45733
0.983765
0.453639
0.558944
0.387452
0.389588
0.387829
0.372754
0.346975
0.337269
0.337369
0.352258
0.372798
0.400095
0.440586
0.486258
0.53344
0.606783
3.14125
3.28515
3.28462
3.28001
3.26615
3.22598
3.09931
2.63811
1.3341
0.405399
0.599263
0.423316
0.411302
0.412011
0.399844
0.374974
0.366888
0.372739
0.393254
0.418266
0.450703
0.497082
0.557879
0.626263
0.764136
3.14267
3.28313
3.2793
3.26568
3.22393
3.0895
2.6044
1.2748
0.147031
0.49709
0.313173
0.278851
0.29177
0.278764
0.245715
0.208847
0.169979
0.135739
0.102381
0.0705614
0.0507094
0.040572
0.0349814
0.0465265
0.0443493
3.14274
3.28328
3.2795
3.26618
3.2254
3.0943
2.62108
1.30866
0.143472
0.500267
0.318782
0.280765
0.293412
0.28091
0.247995
0.211681
0.174243
0.142127
0.112395
0.0872224
0.0767445
0.0756012
0.076832
0.0876433
0.0881701
3.14286
3.28356
3.27992
3.26726
3.22856
3.10468
2.6577
1.38574
0.135273
0.503292
0.332888
0.28709
0.299629
0.288082
0.255943
0.221321
0.186971
0.159146
0.135895
0.119578
0.117748
0.123495
0.129409
0.143747
0.146162
3.14298
3.28393
3.28051
3.2688
3.23306
3.11945
2.71119
1.50313
0.136097
0.507925
0.353754
0.294712
0.307784
0.297984
0.267261
0.234888
0.204674
0.181945
0.165405
0.156718
0.161508
0.173565
0.18361
0.203799
0.208416
3.14304
3.28431
3.28119
3.27067
3.23843
3.13702
2.77608
1.65387
0.178202
0.511103
0.382685
0.306062
0.319248
0.311096
0.282526
0.252344
0.226483
0.208834
0.198502
0.196081
0.206059
0.22465
0.238675
0.26466
0.272329
3.14298
3.28464
3.28195
3.27272
3.2442
3.15596
2.84866
1.84247
0.286012
0.512371
0.419228
0.319933
0.333503
0.326607
0.300923
0.272877
0.251448
0.23862
0.234415
0.237515
0.252277
0.276943
0.295664
0.325909
0.340027
3.1427
3.28488
3.28276
3.27476
3.2499
3.1748
2.92042
2.05145
0.464734
0.506347
0.462764
0.337259
0.350298
0.344763
0.322569
0.295854
0.27874
0.270293
0.272378
0.281289
0.300714
0.330756
0.35581
0.388478
0.415216
3.1422
3.28501
3.28352
3.27647
3.25531
3.19315
2.9876
2.25777
0.69168
0.4891
0.510748
0.359102
0.369037
0.365192
0.346479
0.320475
0.307476
0.30314
0.311608
0.326806
0.350122
0.385239
0.419595
0.456688
0.500299
3.14158
3.28517
3.28403
3.27808
3.26095
3.21054
3.04745
2.45722
0.983534
0.453765
0.558832
0.387366
0.389505
0.38767
0.372554
0.346737
0.33702
0.337129
0.352053
0.372603
0.399931
0.440436
0.486123
0.53331
0.606669
3.14124
3.28514
3.28461
3.28001
3.26615
3.22598
3.0993
2.63805
1.33392
0.405444
0.599226
0.423229
0.411237
0.411882
0.399673
0.374776
0.366664
0.372542
0.393073
0.41811
0.450562
0.496941
0.557755
0.626145
0.764019
3.14268
3.28314
3.2793
3.26569
3.22396
3.0896
2.60472
1.27548
0.146632
0.497081
0.313416
0.279111
0.292034
0.278986
0.245868
0.208941
0.170028
0.135759
0.102385
0.070549
0.0506866
0.0405532
0.0349747
0.0465158
0.0443537
3.14274
3.28328
3.2795
3.26619
3.22542
3.09436
2.62128
1.30902
0.143637
0.500722
0.319415
0.281252
0.293754
0.281124
0.248103
0.211734
0.174265
0.142131
0.11239
0.0872119
0.0767349
0.0755979
0.0768357
0.087643
0.0881771
3.14286
3.28357
3.27993
3.26727
3.2286
3.1048
2.65811
1.38664
0.134903
0.502961
0.332626
0.286746
0.299351
0.287926
0.255854
0.221255
0.186929
0.159121
0.135883
0.119573
0.11775
0.123502
0.12942
0.143755
0.146174
3.14298
3.28394
3.28051
3.26881
3.23309
3.11954
2.71151
1.50385
0.13596
0.507822
0.353619
0.294401
0.307454
0.297684
0.267052
0.234771
0.204619
0.181923
0.165404
0.156726
0.161521
0.173582
0.183628
0.203813
0.208432
3.14304
3.28431
3.28119
3.27068
3.23846
3.13711
2.7764
1.65468
0.178314
0.510857
0.382382
0.305627
0.318902
0.310866
0.28241
0.252277
0.226463
0.208834
0.198523
0.196107
0.206085
0.224674
0.2387
0.264678
0.272349
3.14298
3.28464
3.28196
3.27273
3.24422
3.15601
2.84884
1.84294
0.286092
0.51218
0.419061
0.319642
0.333317
0.326511
0.300901
0.272895
0.251494
0.238664
0.234464
0.237559
0.252315
0.276974
0.295693
0.32593
0.340049
3.1427
3.28488
3.28276
3.27476
3.24991
3.17483
2.92049
2.05164
0.464861
0.506232
0.462768
0.337166
0.350262
0.344792
0.322616
0.295935
0.278831
0.270379
0.272445
0.281343
0.300758
0.330791
0.355843
0.388501
0.415239
3.1422
3.28501
3.28352
3.27647
3.25531
3.19315
2.9876
2.25779
0.691705
0.489026
0.510815
0.359125
0.369076
0.365281
0.346551
0.32057
0.307576
0.303242
0.311681
0.326862
0.350167
0.385275
0.41963
0.456714
0.500321
3.14158
3.28517
3.28403
3.27808
3.26095
3.21054
3.04744
2.45719
0.983488
0.453701
0.558864
0.387408
0.389553
0.387761
0.372642
0.346836
0.337125
0.337219
0.352121
0.372655
0.399973
0.44047
0.486154
0.533335
0.606688
3.14124
3.28514
3.28461
3.28001
3.26615
3.22597
3.09929
2.63801
1.33385
0.40542
0.599221
0.423255
0.411264
0.411937
0.399733
0.374824
0.366732
0.37261
0.393131
0.418151
0.450595
0.496971
0.55778
0.626166
0.764035
3.14268
3.28314
3.2793
3.26569
3.22396
3.08959
2.60468
1.27538
0.146686
0.497092
0.313404
0.279106
0.292033
0.278988
0.245876
0.208953
0.17004
0.135769
0.10239
0.0705458
0.0506761
0.0405403
0.0349653
0.0465018
0.0443545
3.14275
3.28328
3.2795
3.26619
3.22542
3.09435
2.62125
1.30896
0.14365
0.500693
0.319367
0.281223
0.29374
0.281123
0.24811
0.211745
0.174274
0.142137
0.112391
0.0872045
0.0767233
0.0755871
0.0768277
0.0876323
0.0881739
3.14286
3.28357
3.27993
3.26727
3.2286
3.10479
2.65808
1.38657
0.134926
0.502952
0.3326
0.28674
0.299362
0.287943
0.255874
0.221271
0.186937
0.159121
0.135877
0.11956
0.117735
0.12349
0.12941
0.143743
0.146166
3.14298
3.28394
3.28051
3.26881
3.23309
3.11953
2.71147
1.50378
0.135918
0.50782
0.353662
0.294503
0.30757
0.297798
0.267129
0.234803
0.204625
0.181915
0.165388
0.156707
0.161502
0.173567
0.183615
0.2038
0.208421
3.14304
3.28431
3.28119
3.27068
3.23845
3.13709
2.77632
1.65446
0.17825
0.510998
0.382587
0.305863
0.319069
0.310952
0.282433
0.252281
0.22645
0.208817
0.198498
0.196081
0.206061
0.224658
0.238685
0.264661
0.272334
3.14297
3.28464
3.28196
3.27273
3.24422
3.15601
2.84882
1.84287
0.286128
0.512251
0.419132
0.319744
0.333361
0.326513
0.300872
0.272855
0.251454
0.238627
0.234431
0.237529
0.252289
0.276954
0.295677
0.325908
0.340033
3.1427
3.28487
3.28276
3.27476
3.24991
3.17483
2.92052
2.05169
0.464916
0.506236
0.462718
0.337128
0.35022
0.344744
0.322584
0.295884
0.278782
0.27033
0.27241
0.281314
0.300733
0.330767
0.355824
0.388477
0.415219
3.1422
3.28501
3.28352
3.27647
3.25532
3.19316
2.98764
2.25787
0.691785
0.48901
0.510745
0.359037
0.369004
0.365214
0.346537
0.320541
0.307542
0.303198
0.311651
0.326837
0.350143
0.385251
0.41961
0.456688
0.500298
3.14158
3.28517
3.28403
3.27808
3.26096
3.21055
3.04746
2.45725
0.983567
0.453682
0.558826
0.387338
0.389501
0.387718
0.372626
0.346817
0.3371
0.337193
0.352102
0.372634
0.399953
0.440448
0.486134
0.533309
0.606662
3.14124
3.28514
3.28461
3.28001
3.26615
3.22598
3.0993
2.63805
1.33392
0.405387
0.59921
0.423216
0.411241
0.411934
0.399744
0.374846
0.366741
0.372602
0.393119
0.418138
0.450581
0.496952
0.557761
0.626141
0.764007
3.14268
3.28314
3.2793
3.26569
3.22396
3.08959
2.60469
1.2754
0.146667
0.497084
0.313395
0.279099
0.29203
0.278991
0.245883
0.208962
0.170052
0.13578
0.102402
0.0705558
0.0506831
0.0405453
0.0349695
0.0465053
0.044341
3.14275
3.28328
3.2795
3.26619
3.22542
3.09435
2.62126
1.30897
0.143643
0.500699
0.319376
0.281232
0.29375
0.281133
0.248121
0.211755
0.174285
0.142146
0.112399
0.0872113
0.0767285
0.0755934
0.0768374
0.0876442
0.0881616
3.14286
3.28357
3.27993
3.26727
3.2286
3.1048
2.65809
1.3866
0.134919
0.502952
0.332603
0.286744
0.299366
0.287949
0.255884
0.22128
0.186949
0.159133
0.135889
0.119571
0.117745
0.123501
0.129424
0.143763
0.146157
3.14298
3.28394
3.28051
3.26881
3.23309
3.11954
2.71149
1.50383
0.135929
0.507823
0.353667
0.294505
0.307571
0.297799
0.267133
0.234811
0.204637
0.181929
0.165401
0.15672
0.161515
0.173579
0.183628
0.203824
0.208418
3.14304
3.28431
3.28119
3.27068
3.23846
3.13709
2.77635
1.65453
0.178288
0.511001
0.382588
0.305857
0.319065
0.310948
0.282433
0.252287
0.226462
0.208831
0.198512
0.196095
0.206073
0.224668
0.238694
0.264686
0.272339
3.14297
3.28464
3.28196
3.27273
3.24422
3.15601
2.84885
1.84295
0.286211
0.512275
0.419089
0.319723
0.333352
0.326508
0.300873
0.27286
0.251464
0.238641
0.234445
0.237544
0.252301
0.276965
0.295684
0.32593
0.340041
3.1427
3.28487
3.28276
3.27476
3.24991
3.17484
2.92056
2.05188
0.46522
0.50633
0.462577
0.337036
0.350199
0.344734
0.322582
0.295889
0.278792
0.270344
0.272424
0.281328
0.300745
0.330779
0.355831
0.388492
0.415238
3.1422
3.28501
3.28352
3.27647
3.25532
3.19317
2.98767
2.25796
0.691944
0.489001
0.510809
0.359022
0.368987
0.365202
0.346536
0.320549
0.307555
0.303211
0.311665
0.326852
0.350155
0.385262
0.419616
0.456696
0.500321
3.14158
3.28517
3.28403
3.27809
3.26096
3.21055
3.04748
2.45732
0.983673
0.453635
0.558845
0.387332
0.389489
0.387709
0.372628
0.346825
0.337111
0.337208
0.352117
0.372653
0.399966
0.440459
0.486142
0.533315
0.606686
3.14124
3.28514
3.28461
3.28001
3.26615
3.22599
3.09932
2.63811
1.33403
0.405359
0.599214
0.423216
0.411232
0.411929
0.399749
0.374861
0.366758
0.372618
0.393136
0.418155
0.450596
0.496966
0.557772
0.626144
0.764036
3.14268
3.28314
3.2793
3.26569
3.22396
3.08958
2.60467
1.27536
0.146696
0.497098
0.313411
0.279118
0.292043
0.278996
0.245882
0.208958
0.170043
0.13577
0.102391
0.0705457
0.0506749
0.040539
0.0349645
0.0465001
0.0443547
3.14275
3.28328
3.2795
3.26619
3.22542
3.09435
2.62124
1.30894
0.143654
0.500694
0.319372
0.281233
0.29375
0.28113
0.248115
0.211748
0.174277
0.14214
0.112393
0.0872069
0.0767252
0.0755883
0.0768284
0.087632
0.0881744
3.14286
3.28357
3.27993
3.26727
3.2286
3.10479
2.65807
1.38657
0.134935
0.502957
0.332605
0.286749
0.29937
0.28795
0.255879
0.221274
0.186939
0.159124
0.135881
0.119565
0.117739
0.123493
0.129412
0.143744
0.146167
3.14298
3.28394
3.28051
3.26881
3.23309
3.11953
2.71148
1.50379
0.135933
0.507827
0.353671
0.294512
0.307577
0.297802
0.267131
0.234805
0.204627
0.181918
0.165393
0.156714
0.161509
0.173572
0.183618
0.203801
0.208422
3.14304
3.28431
3.28119
3.27068
3.23845
3.13709
2.77633
1.65449
0.178278
0.511008
0.382594
0.305868
0.319072
0.310952
0.282433
0.252282
0.226453
0.208821
0.198505
0.19609
0.20607
0.224664
0.23869
0.264664
0.272336
3.14297
3.28464
3.28196
3.27273
3.24422
3.15601
2.84883
1.84292
0.286197
0.512283
0.419095
0.319734
0.333358
0.32651
0.30087
0.272854
0.251456
0.238633
0.234439
0.23754
0.252301
0.276964
0.295684
0.325912
0.340036
3.1427
3.28487
3.28276
3.27476
3.24991
3.17484
2.92055
2.05185
0.465197
0.506339
0.46258
0.337047
0.350205
0.344736
0.322578
0.295881
0.278784
0.270337
0.27242
0.281326
0.300747
0.33078
0.355833
0.388483
0.415224
3.1422
3.28501
3.28352
3.27647
3.25532
3.19317
2.98766
2.25795
0.691922
0.489009
0.510809
0.359029
0.368992
0.365203
0.346532
0.32054
0.307546
0.303206
0.311663
0.32685
0.350158
0.385265
0.419622
0.456698
0.500305
3.14158
3.28517
3.28403
3.27808
3.26096
3.21055
3.04747
2.4573
0.983652
0.453644
0.558845
0.387337
0.389491
0.387708
0.372623
0.346817
0.337105
0.337203
0.352115
0.37265
0.399969
0.440464
0.486149
0.533322
0.606672
3.14124
3.28514
3.28461
3.28001
3.26615
3.22599
3.09932
2.6381
1.33401
0.405366
0.599215
0.423219
0.411233
0.411926
0.399744
0.374852
0.366751
0.372615
0.393134
0.418154
0.450597
0.49697
0.557778
0.626157
0.76402
3.14268
3.28314
3.2793
3.26569
3.22396
3.08959
2.60468
1.27538
0.146686
0.497092
0.313404
0.279106
0.292032
0.278988
0.245876
0.208953
0.17004
0.135768
0.10239
0.0705456
0.0506759
0.0405402
0.0349653
0.0465017
0.0443546
3.14275
3.28328
3.2795
3.26619
3.22542
3.09435
2.62125
1.30896
0.14365
0.500693
0.319367
0.281223
0.29374
0.281123
0.24811
0.211744
0.174274
0.142137
0.11239
0.0872043
0.0767232
0.075587
0.0768276
0.0876323
0.0881739
3.14286
3.28357
3.27993
3.26727
3.2286
3.10479
2.65808
1.38657
0.134926
0.502952
0.3326
0.286741
0.299362
0.287943
0.255874
0.221271
0.186937
0.159121
0.135877
0.11956
0.117735
0.12349
0.12941
0.143743
0.146166
3.14298
3.28394
3.28051
3.26881
3.23309
3.11953
2.71147
1.50378
0.135918
0.50782
0.353662
0.294503
0.30757
0.297798
0.267129
0.234803
0.204625
0.181915
0.165388
0.156707
0.161502
0.173567
0.183615
0.2038
0.208421
3.14304
3.28431
3.28119
3.27068
3.23845
3.13709
2.77632
1.65446
0.17825
0.510998
0.382587
0.305863
0.319069
0.310952
0.282433
0.252281
0.22645
0.208817
0.198498
0.196081
0.206061
0.224658
0.238685
0.264661
0.272334
3.14297
3.28464
3.28196
3.27273
3.24422
3.15601
2.84882
1.84287
0.286128
0.512251
0.419132
0.319745
0.333361
0.326513
0.300872
0.272855
0.251454
0.238627
0.234431
0.237529
0.252289
0.276954
0.295677
0.325908
0.340033
3.1427
3.28487
3.28276
3.27476
3.24991
3.17483
2.92052
2.05169
0.464916
0.506236
0.462718
0.337128
0.35022
0.344744
0.322584
0.295884
0.278782
0.27033
0.27241
0.281314
0.300733
0.330767
0.355824
0.388477
0.415219
3.1422
3.28501
3.28352
3.27647
3.25532
3.19316
2.98764
2.25787
0.691785
0.48901
0.510745
0.359037
0.369004
0.365214
0.346537
0.320541
0.307542
0.303198
0.311651
0.326837
0.350143
0.385251
0.41961
0.456688
0.500298
3.14158
3.28517
3.28403
3.27808
3.26096
3.21055
3.04746
2.45725
0.983567
0.453682
0.558826
0.387338
0.389501
0.387718
0.372626
0.346817
0.3371
0.337193
0.352102
0.372634
0.399953
0.440448
0.486134
0.533309
0.606662
3.14124
3.28514
3.28461
3.28001
3.26615
3.22598
3.0993
2.63805
1.33392
0.405387
0.59921
0.423216
0.411242
0.411934
0.399744
0.374846
0.366741
0.372602
0.393119
0.418138
0.450581
0.496952
0.557761
0.626141
0.764007
3.14268
3.28314
3.2793
3.26569
3.22396
3.0896
2.60472
1.27548
0.146632
0.497081
0.313416
0.279111
0.292034
0.278986
0.245868
0.208941
0.170028
0.135759
0.102385
0.070549
0.0506866
0.0405533
0.0349747
0.0465158
0.0443537
3.14274
3.28328
3.2795
3.26619
3.22542
3.09436
2.62128
1.30902
0.143637
0.500722
0.319415
0.281252
0.293754
0.281124
0.248103
0.211734
0.174265
0.142131
0.11239
0.0872119
0.0767349
0.0755979
0.0768357
0.087643
0.0881771
3.14286
3.28357
3.27993
3.26727
3.2286
3.1048
2.65811
1.38664
0.134903
0.502961
0.332626
0.286746
0.299351
0.287926
0.255854
0.221255
0.186929
0.159121
0.135883
0.119573
0.11775
0.123502
0.12942
0.143755
0.146174
3.14298
3.28394
3.28051
3.26881
3.23309
3.11954
2.71151
1.50385
0.13596
0.507822
0.353619
0.294401
0.307454
0.297684
0.267052
0.234771
0.204619
0.181923
0.165404
0.156726
0.161521
0.173582
0.183628
0.203813
0.208432
3.14304
3.28431
3.28119
3.27068
3.23846
3.13711
2.7764
1.65468
0.178314
0.510857
0.382382
0.305627
0.318902
0.310866
0.28241
0.252277
0.226463
0.208834
0.198523
0.196107
0.206085
0.224674
0.2387
0.264678
0.272349
3.14298
3.28464
3.28196
3.27273
3.24422
3.15601
2.84884
1.84294
0.286092
0.51218
0.419061
0.319642
0.333317
0.32651
0.300901
0.272895
0.251494
0.238664
0.234464
0.237559
0.252315
0.276974
0.295693
0.32593
0.340049
3.1427
3.28488
3.28276
3.27476
3.24991
3.17483
2.92049
2.05164
0.464861
0.506232
0.462768
0.337166
0.350262
0.344792
0.322616
0.295935
0.278831
0.270379
0.272445
0.281343
0.300758
0.330791
0.355843
0.388501
0.415239
3.1422
3.28501
3.28352
3.27647
3.25531
3.19315
2.9876
2.25779
0.691705
0.489026
0.510815
0.359125
0.369076
0.365281
0.346551
0.32057
0.307576
0.303242
0.311681
0.326862
0.350167
0.385275
0.41963
0.456714
0.500321
3.14158
3.28517
3.28403
3.27808
3.26095
3.21054
3.04744
2.45719
0.983488
0.453701
0.558864
0.387408
0.389553
0.387761
0.372642
0.346836
0.337125
0.337219
0.352121
0.372655
0.399973
0.44047
0.486154
0.533335
0.606688
3.14124
3.28514
3.28461
3.28001
3.26615
3.22597
3.09929
2.63801
1.33385
0.40542
0.599221
0.423255
0.411264
0.411937
0.399733
0.374824
0.366732
0.37261
0.393131
0.418151
0.450595
0.496971
0.55778
0.626166
0.764035
3.14267
3.28313
3.2793
3.26568
3.22393
3.0895
2.60441
1.27481
0.14703
0.49709
0.313173
0.278851
0.29177
0.278764
0.245715
0.208847
0.169979
0.135739
0.102381
0.0705616
0.0507096
0.0405721
0.0349815
0.0465267
0.0443493
3.14274
3.28328
3.2795
3.26618
3.2254
3.0943
2.62108
1.30867
0.143471
0.500267
0.318782
0.280765
0.293412
0.280909
0.247995
0.211681
0.174243
0.142127
0.112395
0.0872225
0.0767446
0.0756012
0.076832
0.0876434
0.0881702
3.14286
3.28356
3.27992
3.26726
3.22856
3.10468
2.6577
1.38574
0.135273
0.503292
0.332888
0.28709
0.299629
0.288082
0.255943
0.221321
0.186971
0.159146
0.135895
0.119578
0.117748
0.123495
0.129409
0.143747
0.146162
3.14298
3.28393
3.28051
3.2688
3.23306
3.11945
2.71119
1.50313
0.136097
0.507925
0.353754
0.294711
0.307784
0.297983
0.267261
0.234888
0.204674
0.181945
0.165405
0.156718
0.161508
0.173565
0.18361
0.203799
0.208416
3.14304
3.28431
3.28119
3.27067
3.23843
3.13702
2.77608
1.65387
0.178202
0.511102
0.382684
0.306061
0.319247
0.311095
0.282526
0.252344
0.226482
0.208834
0.198502
0.196081
0.206059
0.22465
0.238675
0.26466
0.272329
3.14298
3.28464
3.28195
3.27272
3.2442
3.15596
2.84866
1.84247
0.286012
0.512371
0.419227
0.319933
0.333502
0.326607
0.300923
0.272877
0.251448
0.23862
0.234415
0.237515
0.252277
0.276943
0.295664
0.325909
0.340027
3.1427
3.28488
3.28276
3.27476
3.2499
3.1748
2.92042
2.05145
0.464734
0.506346
0.462764
0.337259
0.350297
0.344763
0.322569
0.295854
0.27874
0.270293
0.272378
0.281289
0.300714
0.330756
0.35581
0.388478
0.415216
3.1422
3.28501
3.28352
3.27647
3.25531
3.19315
2.9876
2.25777
0.69168
0.489099
0.510748
0.359101
0.369037
0.365192
0.346479
0.320475
0.307476
0.30314
0.311608
0.326806
0.350121
0.385239
0.419595
0.456688
0.500299
3.14158
3.28517
3.28403
3.27808
3.26095
3.21054
3.04745
2.45722
0.983533
0.453765
0.558832
0.387366
0.389505
0.38767
0.372554
0.346737
0.33702
0.337129
0.352052
0.372602
0.399931
0.440436
0.486123
0.53331
0.606669
3.14124
3.28514
3.28461
3.28001
3.26615
3.22598
3.0993
2.63805
1.33392
0.405444
0.599226
0.423229
0.411237
0.411882
0.399673
0.374776
0.366664
0.372542
0.393073
0.41811
0.450562
0.496941
0.557754
0.626145
0.764019
3.14268
3.28315
3.27932
3.2657
3.22401
3.08972
2.60513
1.27625
0.146648
0.497218
0.313649
0.279207
0.292077
0.27903
0.245933
0.209056
0.170207
0.136002
0.102722
0.0710455
0.0513594
0.0413465
0.0358194
0.0471381
0.0449542
3.14275
3.28329
3.27951
3.2662
3.22546
3.09448
2.6217
1.30987
0.143662
0.500722
0.319428
0.281078
0.293595
0.281027
0.248099
0.211808
0.174417
0.142349
0.112686
0.0876015
0.0771674
0.0760168
0.0772226
0.0879749
0.0884774
3.14287
3.28358
3.27994
3.26729
3.22865
3.10493
2.65859
1.3877
0.134621
0.502658
0.332345
0.286414
0.299161
0.287877
0.255914
0.221366
0.187094
0.159329
0.136144
0.119872
0.118045
0.123768
0.129657
0.14396
0.146364
3.14299
3.28395
3.28052
3.26882
3.23311
3.1196
2.71174
1.50438
0.135789
0.507941
0.353991
0.294753
0.307774
0.297969
0.267298
0.234975
0.20482
0.18213
0.16563
0.156968
0.161749
0.17378
0.183804
0.203968
0.208566
3.14305
3.28432
3.2812
3.27068
3.23846
3.13712
2.77645
1.65478
0.17839
0.511192
0.38299
0.306201
0.319303
0.31111
0.282561
0.252444
0.226642
0.209028
0.198717
0.196305
0.206268
0.224831
0.238838
0.26481
0.27245
3.14298
3.28465
3.28196
3.27274
3.24423
3.15604
2.84894
1.8432
0.286454
0.512303
0.41923
0.319845
0.333443
0.326613
0.300998
0.273005
0.251625
0.238809
0.234623
0.237722
0.252465
0.277109
0.295807
0.326051
0.340141
3.14271
3.28489
3.28277
3.27477
3.24992
3.17486
2.92063
2.05209
0.465467
0.506263
0.462567
0.337013
0.350228
0.344822
0.322752
0.296063
0.278958
0.270491
0.27258
0.281482
0.300886
0.330914
0.355944
0.38861
0.415327
3.14221
3.28502
3.28352
3.27647
3.25532
3.19317
2.98767
2.25801
0.692036
0.488959
0.510832
0.359033
0.369042
0.36529
0.346662
0.320697
0.307712
0.30336
0.311804
0.326986
0.350276
0.385375
0.419717
0.456808
0.500406
3.14159
3.28518
3.28403
3.27809
3.26096
3.21054
3.04745
2.45725
0.983589
0.453608
0.558888
0.387402
0.389584
0.387818
0.372752
0.346981
0.337261
0.337345
0.352234
0.372772
0.400064
0.440556
0.486229
0.533417
0.60677
3.14125
3.28515
3.28462
3.28001
3.26615
3.22597
3.09927
2.63798
1.33381
0.405383
0.599262
0.423317
0.41135
0.412037
0.399838
0.374959
0.366877
0.372723
0.393232
0.418241
0.450671
0.497045
0.557845
0.626234
0.764114
3.14106
3.28495
3.28536
3.28179
3.27067
3.23921
3.14328
2.80182
1.71207
0.379414
0.625977
0.469555
0.433556
0.437924
0.42679
0.405922
0.396427
0.409524
0.432987
0.463635
0.501807
0.554644
0.631326
0.728807
0.943723
3.14092
3.28464
3.28623
3.28325
3.27438
3.25
3.17826
2.93461
2.08727
0.530415
0.63209
0.530362
0.456528
0.464665
0.454098
0.439468
0.426066
0.44498
0.46968
0.506527
0.551047
0.60939
0.698439
0.808108
1.03352
3.14084
3.28441
3.28696
3.28445
3.2774
3.25867
3.2054
3.03295
2.40616
0.886966
0.60618
0.601493
0.482535
0.491448
0.482594
0.472604
0.458383
0.477489
0.50353
0.546263
0.598268
0.658844
0.752189
0.862033
1.0601
3.1408
3.28424
3.28754
3.28537
3.27976
3.26551
3.22635
3.10485
2.66229
1.3811
0.549914
0.666252
0.514865
0.518812
0.512489
0.503507
0.496151
0.507831
0.536833
0.582988
0.64086
0.703348
0.796512
0.901939
1.05422
3.14078
3.28413
3.28798
3.28604
3.28153
3.27068
3.24195
3.15698
2.86058
1.87283
0.512989
0.700931
0.562243
0.546101
0.544034
0.53311
0.534977
0.537129
0.565944
0.612706
0.676558
0.73904
0.830735
0.922196
1.03141
3.14078
3.28406
3.28828
3.2865
3.28283
3.2745
3.25335
3.1938
2.99927
2.2937
0.743868
0.700125
0.628036
0.572665
0.576395
0.563029
0.569199
0.568438
0.589396
0.636766
0.702809
0.762605
0.845168
0.924538
1.00788
3.14077
3.28402
3.28847
3.28678
3.28379
3.27727
3.26156
3.2199
3.09309
2.62794
1.26745
0.664754
0.700341
0.601921
0.610638
0.594282
0.598195
0.602742
0.610303
0.656603
0.717501
0.774962
0.849269
0.923029
0.996853
3.14077
3.284
3.28858
3.28695
3.28443
3.27922
3.26733
3.23771
3.15385
2.86731
1.89735
0.646029
0.743001
0.643364
0.64369
0.627616
0.624077
0.63472
0.636434
0.673172
0.728604
0.782201
0.851838
0.924796
0.992974
3.14077
3.284
3.28862
3.28704
3.2848
3.28058
3.27136
3.2498
3.19355
3.01705
2.37116
0.884885
0.759168
0.699346
0.674186
0.664434
0.650489
0.66363
0.671967
0.689848
0.739967
0.790006
0.849928
0.92565
0.991253
3.14078
3.284
3.28863
3.28709
3.28491
3.28139
3.27386
3.25777
3.21998
3.11207
2.72827
1.49227
0.746407
0.761367
0.707471
0.701585
0.67889
0.685988
0.698935
0.704852
0.746946
0.797181
0.850613
0.918927
0.988013
3.14077
3.284
3.28862
3.2871
3.28491
3.28181
3.27512
3.26291
3.23667
3.16926
2.95571
2.18457
0.867168
0.801491
0.755095
0.735556
0.707588
0.704999
0.718356
0.730774
0.755613
0.802706
0.854138
0.910039
0.977957
3.14077
3.284
3.28863
3.28712
3.28489
3.2819
3.27567
3.26607
3.24703
3.2029
3.07945
2.6594
1.41079
0.822274
0.810185
0.773928
0.740126
0.726406
0.741605
0.76151
0.773564
0.810298
0.858451
0.908665
0.962329
3.14077
3.284
3.28863
3.28715
3.2849
3.28188
3.27584
3.26667
3.25311
3.22201
3.14652
2.93046
2.16888
0.99398
0.847934
0.819824
0.782427
0.755826
0.767437
0.788683
0.813177
0.825175
0.864362
0.9117
0.95812
3.14077
3.28399
3.28864
3.28715
3.2849
3.28187
3.27592
3.26645
3.2556
3.23127
3.18075
3.0628
2.70319
1.63023
0.900657
0.865957
0.830655
0.79913
0.798997
0.822524
0.846604
0.862612
0.877707
0.916712
0.960929
3.14077
3.284
3.28864
3.28715
3.2849
3.28187
3.27595
3.2665
3.25605
3.23572
3.196
3.12245
2.94618
2.3905
1.27882
0.901297
0.879507
0.848528
0.834244
0.852732
0.881221
0.908402
0.912619
0.929159
0.965802
3.14077
3.284
3.28864
3.28715
3.2849
3.28187
3.27595
3.26651
3.25611
3.23643
3.19886
3.14953
3.0404
2.77682
2.07325
1.14587
0.91534
0.894763
0.875468
0.882174
0.916132
0.943493
0.966353
0.962367
0.978445
3.14077
3.284
3.28864
3.28715
3.2849
3.28187
3.27595
3.26651
3.25613
3.23652
3.19878
3.15698
3.07369
2.90526
2.57609
1.86597
1.11306
0.930201
0.91504
0.913849
0.940731
0.979232
1.00693
1.01903
1.0099
3.14077
3.284
3.28864
3.28715
3.2849
3.28187
3.27595
3.26651
3.25612
3.2365
3.19881
3.15751
3.08016
2.92751
2.72265
2.33145
1.7354
1.15548
0.954252
0.944597
0.963688
1.001
1.03784
1.06309
1.06257
3.14077
3.28399
3.28864
3.28715
3.2849
3.28187
3.27596
3.26651
3.25613
3.23652
3.19887
3.15756
3.08045
2.92795
2.74504
2.43023
2.06825
1.66515
1.21969
0.98881
0.983268
1.01485
1.0595
1.0903
1.1099
3.14077
3.284
3.28864
3.28715
3.2849
3.28187
3.27595
3.2665
3.25612
3.23649
3.19884
3.15751
3.08038
2.92823
2.74549
2.43659
2.09375
1.8721
1.61539
1.27797
1.03306
1.02172
1.06423
1.10893
1.13792
3.14077
3.284
3.28864
3.28715
3.2849
3.28188
3.27596
3.26651
3.25613
3.23651
3.19887
3.15755
3.08043
2.92834
2.74563
2.43704
2.09556
1.8892
1.74517
1.58351
1.33691
1.09976
1.05863
1.10967
1.15052
3.14077
3.284
3.28864
3.28715
3.2849
3.28187
3.27595
3.2665
3.25612
3.23649
3.19883
3.15751
3.08038
2.92829
2.74552
2.43689
2.09589
1.88952
1.75904
1.66304
1.56166
1.40477
1.20583
1.10967
1.14697
3.14077
3.284
3.28864
3.28715
3.2849
3.28188
3.27596
3.26651
3.25613
3.23651
3.19887
3.15756
3.08043
2.92836
2.74564
2.437
2.09597
1.88958
1.76006
1.66992
1.60699
1.55385
1.46907
1.33206
1.19432
3.14077
3.284
3.28864
3.28715
3.2849
3.28187
3.27595
3.2665
3.25612
3.23649
3.19883
3.1575
3.08037
2.92828
2.7455
2.43681
2.09587
1.88948
1.76016
1.67062
1.61166
1.58143
1.55846
1.51976
1.44035
3.14077
3.28399
3.28864
3.28715
3.2849
3.28188
3.27596
3.26651
3.25613
3.23652
3.19888
3.15757
3.08047
2.92842
2.74572
2.43722
2.09645
1.8902
1.76109
1.67183
1.61318
1.58575
1.57278
1.56967
1.55479
3.14077
3.284
3.28864
3.28715
3.2849
3.28187
3.27595
3.2665
3.25612
3.23649
3.19883
3.1575
3.08037
2.92829
2.7455
2.43678
2.09584
1.88945
1.76015
1.67069
1.612
1.58479
1.57301
1.57481
1.57609
3.14077
3.284
3.28864
3.28715
3.2849
3.28188
3.27596
3.26651
3.25613
3.23651
3.19887
3.15756
3.08045
2.92838
2.74566
2.437
2.09598
1.88958
1.76016
1.67056
1.61191
1.58474
1.57307
1.57539
1.57991
3.14077
3.284
3.28864
3.28715
3.2849
3.28187
3.27595
3.2665
3.25612
3.23649
3.19884
3.15752
3.0804
2.92831
2.74553
2.43687
2.09592
1.88953
1.76024
1.6708
1.61212
1.58495
1.57329
1.57565
1.58064
3.14077
3.284
3.28864
3.28715
3.28491
3.28188
3.27596
3.26651
3.25613
3.23651
3.19887
3.15757
3.08044
2.92838
2.74567
2.43702
2.096
1.8896
1.76016
1.67053
1.61186
1.58469
1.57304
1.57543
1.58046
3.14077
3.284
3.28864
3.28715
3.2849
3.28187
3.27595
3.26651
3.25612
3.2365
3.19886
3.15754
3.0804
2.92832
2.74554
2.43685
2.09588
1.88948
1.76015
1.67065
1.61195
1.58477
1.57312
1.57548
1.58053
3.14077
3.28399
3.28864
3.28715
3.2849
3.28188
3.27596
3.26651
3.25613
3.23652
3.19889
3.15758
3.08049
2.92844
2.74575
2.43725
2.09644
1.89018
1.76107
1.67181
1.61321
1.5861
1.5745
1.57694
1.58196
3.14077
3.284
3.28864
3.28715
3.2849
3.28188
3.27596
3.26651
3.25613
3.23651
3.19887
3.15756
3.08043
2.92834
2.74559
2.43686
2.09582
1.88943
1.76001
1.67042
1.61177
1.5846
1.57295
1.57531
1.58035
3.14077
3.284
3.28864
3.28715
3.28491
3.28188
3.27596
3.26651
3.25614
3.23652
3.19889
3.15759
3.08046
2.92838
2.74566
2.43695
2.09586
1.88945
1.75999
1.67036
1.61172
1.58456
1.57291
1.57529
1.58033
3.14077
3.28399
3.28864
3.28715
3.2849
3.28188
3.27596
3.26651
3.25613
3.23652
3.19889
3.15758
3.08049
2.92842
2.74575
2.43729
2.09641
1.8901
1.76097
1.67172
1.61313
1.58606
1.57448
1.57694
1.58199
3.14077
3.284
3.28864
3.28715
3.28491
3.28188
3.27596
3.26652
3.25614
3.23652
3.19889
3.1576
3.08047
2.92838
2.74568
2.43701
2.0959
1.88947
1.75998
1.67032
1.61167
1.58451
1.57286
1.57525
1.58031
3.14077
3.284
3.28864
3.28715
3.28491
3.28188
3.27596
3.26651
3.25614
3.23652
3.19889
3.15759
3.08046
2.92837
2.74563
2.43689
2.09581
1.88941
1.75998
1.67037
1.61173
1.58456
1.5729
1.57527
1.58031
3.14077
3.28399
3.28864
3.28715
3.28491
3.28188
3.27596
3.26651
3.25614
3.23653
3.19892
3.15762
3.08052
2.92846
2.74581
2.43728
2.09635
1.89007
1.76083
1.67145
1.61288
1.58578
1.57419
1.57664
1.58167
3.14077
3.284
3.28864
3.28715
3.28491
3.28188
3.27596
3.26652
3.25614
3.23652
3.19889
3.15759
3.08046
2.92837
2.74561
2.43693
2.0959
1.88949