/*--------------------------------*- C++ -*----------------------------------*\
| =========                 |                                                 |
| \\      /  F ield         | OpenFOAM: The Open Source CFD Toolbox           |
|  \\    /   O peration     | Version:  4.1                                   |
|   \\  /    A nd           | Web:      www.OpenFOAM.org                      |
|    \\/     M anipulation  |                                                 |
\*---------------------------------------------------------------------------*/
FoamFile
{
    version     2.0;
    format      ascii;
    class       volScalarField;
    location    "0.46";
    object      p;
}
// * * * * * * * * * * * * * * * * * * * * * * * * * * * * * * * * * * * * * //

dimensions      [1 -1 -2 0 0 0 0];

internalField   nonuniform List<scalar> 
52500
(
0.0902577
0.0627691
0.0629256
0.0636905
0.0662335
0.0746062
0.106583
0.274133
1.34193
2.11593
1.47651
1.33605
1.25806
1.16795
1.10301
1.05326
1.00895
0.96464
0.923255
0.877884
0.826211
0.774706
0.730668
0.676041
0.665981
0.0902565
0.0627571
0.0629093
0.0636566
0.0661416
0.0743066
0.105366
0.267736
1.30119
2.13361
1.48233
1.33854
1.26131
1.17064
1.10552
1.05543
1.0111
0.966987
0.925982
0.880868
0.829039
0.776814
0.732396
0.67675
0.666854
0.0902552
0.0627317
0.0628745
0.0635835
0.0659412
0.0736505
0.102727
0.254028
1.21063
2.16764
1.48806
1.33993
1.26379
1.17191
1.10648
1.05606
1.0116
0.967823
0.927449
0.882976
0.83116
0.777786
0.732782
0.675423
0.665902
0.0902547
0.0626965
0.0628259
0.0634809
0.0656581
0.0727201
0.0990048
0.234251
1.07786
2.21137
1.49976
1.34203
1.26709
1.17379
1.10833
1.05667
1.0118
0.968514
0.928934
0.885222
0.833579
0.778249
0.733323
0.6723
0.663726
0.0902571
0.0626552
0.0627684
0.0633587
0.0653193
0.0716089
0.0946195
0.210335
0.921625
2.24411
1.52009
1.345
1.2708
1.17588
1.11077
1.05714
1.01177
0.969147
0.930332
0.887509
0.8366
0.777399
0.734019
0.668065
0.659787
0.0902638
0.0626117
0.0627072
0.0632281
0.0649534
0.0704108
0.089836
0.18329
0.751702
2.2495
1.55231
1.34919
1.274
1.17982
1.11309
1.0575
1.01159
0.969471
0.931183
0.889216
0.839396
0.776788
0.732444
0.66524
0.653538
0.0902766
0.0625712
0.0626503
0.0631033
0.0645849
0.0692075
0.085197
0.157596
0.578889
2.20657
1.61446
1.35515
1.27642
1.18576
1.11486
1.05749
1.01141
0.969394
0.930774
0.888089
0.838839
0.777134
0.729678
0.663678
0.643495
0.0902935
0.0625426
0.0626106
0.0629922
0.0642109
0.0680145
0.0809081
0.136117
0.448077
2.02341
1.72541
1.36395
1.27823
1.19305
1.11711
1.05763
1.01129
0.969168
0.929972
0.88542
0.838318
0.777534
0.724086
0.659006
0.630355
0.0903082
0.0625458
0.0625769
0.0628473
0.0638083
0.0668933
0.077141
0.118245
0.342477
1.72578
1.86831
1.37866
1.2801
1.20133
1.11937
1.05839
1.01102
0.968573
0.927376
0.881906
0.836746
0.776484
0.717995
0.649005
0.609305
0.0903106
0.0625889
0.0624824
0.0626874
0.0634576
0.065904
0.0738531
0.1042
0.265839
1.30946
2.03807
1.40488
1.28272
1.20984
1.12304
1.06031
1.01111
0.967122
0.923725
0.87949
0.834452
0.773688
0.709966
0.630838
0.568162
0.090258
0.0627697
0.0629265
0.0636921
0.0662378
0.0746198
0.106637
0.274409
1.34363
2.11458
1.47608
1.33588
1.25796
1.1679
1.10299
1.05324
1.00893
0.964608
0.923213
0.877818
0.826126
0.774618
0.730584
0.67596
0.665901
0.0902568
0.0627577
0.0629101
0.063658
0.0661449
0.0743166
0.105405
0.267935
1.30245
2.13291
1.48188
1.33846
1.26127
1.17059
1.10549
1.05542
1.01108
0.966956
0.925937
0.880803
0.828958
0.776731
0.732315
0.676673
0.666778
0.0902555
0.0627324
0.0628754
0.0635851
0.0659452
0.0736631
0.102776
0.254278
1.21226
2.16664
1.48789
1.33987
1.26373
1.17191
1.10649
1.05605
1.01159
0.967793
0.927399
0.882914
0.83109
0.777715
0.732709
0.67535
0.66583
0.090255
0.062697
0.0628266
0.0634822
0.0656613
0.07273
0.0990438
0.234462
1.07927
2.21059
1.49961
1.34205
1.26705
1.17373
1.10828
1.05664
1.01177
0.968479
0.928879
0.885163
0.833522
0.778194
0.73326
0.672237
0.663661
0.0902573
0.0626557
0.062769
0.0633598
0.065322
0.0716176
0.0946538
0.210535
0.922969
2.24344
1.51999
1.34506
1.27078
1.17587
1.11071
1.05711
1.01174
0.969103
0.930273
0.887456
0.836558
0.777351
0.733973
0.668016
0.659731
0.0902641
0.0626121
0.0627077
0.0632289
0.0649554
0.070417
0.0898594
0.183422
0.752237
2.24959
1.5521
1.34926
1.27399
1.17979
1.11307
1.05746
1.01155
0.969412
0.931118
0.889167
0.839369
0.776759
0.732403
0.665208
0.653491
0.090277
0.0625715
0.0626507
0.0631038
0.0645861
0.0692109
0.08521
0.157671
0.57941
2.20704
1.6134
1.35501
1.27638
1.18568
1.11478
1.05743
1.01133
0.969318
0.930704
0.888044
0.838825
0.777131
0.729657
0.663664
0.643467
0.0902939
0.0625429
0.0626109
0.0629926
0.0642113
0.0680155
0.0809126
0.136144
0.448257
2.02424
1.72509
1.36382
1.27816
1.19298
1.11701
1.05755
1.01121
0.969084
0.929895
0.885373
0.838305
0.777552
0.724101
0.65901
0.630349
0.0903086
0.0625462
0.0625771
0.0628474
0.0638084
0.0668937
0.0771427
0.118255
0.342539
1.72609
1.86817
1.37854
1.28003
1.2013
1.1193
1.0583
1.01091
0.968479
0.927294
0.881878
0.836734
0.776506
0.718026
0.649035
0.609323
0.0903109
0.0625893
0.0624824
0.0626874
0.0634576
0.065904
0.0738538
0.104205
0.265871
1.30967
2.03798
1.40476
1.28265
1.20979
1.12295
1.06021
1.01099
0.967015
0.92364
0.879444
0.834437
0.773713
0.710007
0.630887
0.568193
0.090258
0.0627695
0.0629262
0.0636915
0.0662361
0.0746141
0.106613
0.274285
1.34282
2.11511
1.47637
1.33598
1.25797
1.16789
1.10295
1.0532
1.00889
0.964581
0.923191
0.877819
0.82615
0.774651
0.730619
0.675987
0.665929
0.0902568
0.0627575
0.0629098
0.0636575
0.0661437
0.0743128
0.10539
0.267857
1.30194
2.13305
1.48216
1.33849
1.26125
1.17058
1.10545
1.05536
1.01104
0.966925
0.925918
0.880806
0.828983
0.776764
0.73235
0.676698
0.666806
0.0902554
0.062732
0.0628749
0.0635842
0.0659429
0.0736559
0.102747
0.254133
1.21131
2.16722
1.48792
1.33988
1.26373
1.17185
1.10641
1.056
1.01154
0.967756
0.927383
0.882921
0.831116
0.777747
0.732744
0.675374
0.665857
0.090255
0.0626968
0.0628263
0.0634815
0.0656595
0.0727244
0.0990214
0.23434
1.07845
2.21112
1.49963
1.34199
1.26705
1.17373
1.10826
1.05659
1.01172
0.968437
0.928865
0.885173
0.833548
0.778224
0.733296
0.67226
0.663686
0.0902574
0.0626555
0.0627687
0.0633592
0.0653204
0.0716125
0.0946334
0.210415
0.922141
2.24395
1.51997
1.34497
1.27076
1.17579
1.11069
1.05705
1.01169
0.969065
0.93026
0.887465
0.836583
0.777379
0.734006
0.668039
0.659752
0.0902641
0.062612
0.0627075
0.0632286
0.0649545
0.0704139
0.0898475
0.183355
0.751956
2.24972
1.55209
1.34916
1.27397
1.17975
1.11302
1.05741
1.0115
0.969379
0.931108
0.889174
0.839388
0.776787
0.732433
0.665231
0.653508
0.090277
0.0625715
0.0626506
0.0631037
0.0645857
0.0692097
0.0852054
0.157647
0.579272
2.20697
1.61342
1.35499
1.27637
1.18567
1.11475
1.05738
1.0113
0.969296
0.930696
0.888047
0.838839
0.777158
0.729684
0.663684
0.64348
0.0902939
0.0625429
0.0626109
0.0629926
0.0642113
0.0680154
0.0809121
0.13614
0.448239
2.0241
1.72508
1.36389
1.27817
1.19295
1.117
1.05752
1.01118
0.969068
0.92989
0.885374
0.838319
0.777576
0.724124
0.659026
0.630359
0.0903085
0.0625462
0.0625771
0.0628474
0.0638085
0.066894
0.0771433
0.118257
0.342551
1.72611
1.86815
1.37862
1.28005
1.20125
1.11927
1.05828
1.0109
0.968468
0.927291
0.88187
0.836744
0.776528
0.718047
0.649046
0.60933
0.0903109
0.0625893
0.0624825
0.0626875
0.0634577
0.0659043
0.0738545
0.104207
0.265883
1.30976
2.03798
1.40485
1.28267
1.20977
1.12295
1.06021
1.01098
0.967007
0.923627
0.879437
0.834446
0.773733
0.710026
0.630896
0.568197
0.090258
0.0627695
0.0629262
0.0636915
0.0662363
0.0746149
0.106617
0.274303
1.34293
2.11503
1.47635
1.33599
1.25799
1.16791
1.10296
1.05321
1.0089
0.964586
0.923198
0.87783
0.826169
0.774677
0.730651
0.67601
0.665954
0.0902568
0.0627575
0.0629098
0.0636575
0.0661438
0.0743133
0.105393
0.267869
1.30202
2.133
1.48214
1.3385
1.26126
1.17059
1.10546
1.05537
1.01104
0.966929
0.925925
0.880818
0.829002
0.776789
0.732382
0.676722
0.666832
0.0902554
0.062732
0.0628749
0.0635843
0.0659431
0.0736565
0.10275
0.254145
1.21138
2.16719
1.48791
1.3399
1.26375
1.17185
1.10643
1.056
1.01154
0.967761
0.927389
0.882934
0.831137
0.777774
0.732777
0.675398
0.665884
0.090255
0.0626968
0.0628263
0.0634815
0.0656597
0.072725
0.0990238
0.234352
1.07852
2.21107
1.49963
1.34201
1.26706
1.17371
1.10825
1.0566
1.01172
0.968445
0.928873
0.885188
0.833571
0.778251
0.733331
0.672284
0.663715
0.0902574
0.0626555
0.0627688
0.0633593
0.0653208
0.0716137
0.0946382
0.210444
0.922356
2.24376
1.51999
1.34498
1.27074
1.1758
1.11068
1.05705
1.01169
0.969069
0.930269
0.887482
0.83661
0.777404
0.734042
0.668068
0.659782
0.0902642
0.062612
0.0627075
0.0632286
0.0649546
0.0704143
0.089849
0.183365
0.752009
2.2496
1.55211
1.34917
1.27395
1.17975
1.11301
1.0574
1.0115
0.96938
0.931114
0.889191
0.839416
0.776816
0.732468
0.665268
0.65354
0.090277
0.0625715
0.0626506
0.0631037
0.0645856
0.0692092
0.085204
0.157643
0.579249
2.20699
1.61346
1.35496
1.27634
1.18564
1.11472
1.05736
1.01128
0.96929
0.930699
0.888062
0.838867
0.777193
0.72972
0.663726
0.643516
0.0902939
0.0625429
0.0626109
0.0629925
0.064211
0.0680147
0.0809101
0.136133
0.448204
2.02411
1.72515
1.36382
1.27813
1.19295
1.11696
1.05749
1.01116
0.969061
0.929889
0.885389
0.838347
0.777614
0.724166
0.659071
0.6304
0.0903086
0.0625462
0.062577
0.0628473
0.0638083
0.0668934
0.0771419
0.118252
0.342528
1.72606
1.86821
1.37856
1.28004
1.20126
1.11925
1.05824
1.01087
0.968455
0.927287
0.881888
0.836771
0.776565
0.718092
0.649095
0.609377
0.0903109
0.0625893
0.0624824
0.0626874
0.0634575
0.065904
0.0738536
0.104204
0.265871
1.30969
2.03802
1.40479
1.28264
1.20975
1.12291
1.06016
1.01095
0.966991
0.923622
0.879448
0.834468
0.773768
0.710071
0.630946
0.568244
0.090258
0.0627695
0.0629261
0.0636915
0.0662362
0.0746147
0.106616
0.274298
1.3429
2.11501
1.47633
1.33597
1.25798
1.1679
1.10296
1.0532
1.00889
0.964585
0.923202
0.877838
0.826178
0.774686
0.730662
0.676028
0.665972
0.0902568
0.0627575
0.0629098
0.0636575
0.0661437
0.0743132
0.105392
0.267866
1.30199
2.13298
1.48213
1.33848
1.26125
1.17058
1.10546
1.05537
1.01104
0.96693
0.925929
0.880826
0.829011
0.776799
0.732393
0.676739
0.666846
0.0902554
0.062732
0.0628749
0.0635842
0.065943
0.0736563
0.102749
0.25414
1.21134
2.16716
1.4879
1.33989
1.26374
1.17184
1.10642
1.056
1.01154
0.967764
0.927394
0.88294
0.831144
0.777781
0.732786
0.675413
0.665897
0.090255
0.0626968
0.0628263
0.0634815
0.0656596
0.0727247
0.0990226
0.234345
1.07846
2.21106
1.49962
1.342
1.26705
1.1737
1.10826
1.0566
1.01173
0.96845
0.928878
0.885193
0.833576
0.778256
0.733338
0.672295
0.663728
0.0902574
0.0626555
0.0627687
0.0633593
0.0653206
0.0716132
0.0946364
0.210434
0.922279
2.24375
1.51999
1.34498
1.27074
1.17581
1.11068
1.05706
1.01169
0.969074
0.930273
0.887485
0.836612
0.777409
0.734048
0.668072
0.659795
0.0902642
0.0626119
0.0627074
0.0632285
0.0649544
0.0704137
0.0898469
0.183353
0.751949
2.24938
1.55223
1.34918
1.27394
1.17975
1.11302
1.05741
1.0115
0.969384
0.931117
0.889191
0.839415
0.776815
0.732474
0.665268
0.653554
0.090277
0.0625714
0.0626506
0.0631036
0.0645854
0.0692086
0.0852011
0.157622
0.579051
2.20666
1.61439
1.35509
1.27635
1.18565
1.11473
1.05737
1.01129
0.969294
0.9307
0.88806
0.838861
0.777183
0.729723
0.663724
0.643524
0.090294
0.0625429
0.0626109
0.0629925
0.0642109
0.0680142
0.0809084
0.136124
0.448131
2.02367
1.72538
1.36384
1.27814
1.19296
1.11697
1.0575
1.01117
0.969065
0.92989
0.885384
0.838338
0.777596
0.724157
0.659067
0.630403
0.0903086
0.0625463
0.062577
0.0628472
0.0638082
0.0668931
0.0771406
0.118246
0.342498
1.72593
1.8683
1.37856
1.28004
1.20127
1.11926
1.05825
1.01087
0.968461
0.927289
0.881876
0.836758
0.776544
0.718076
0.649084
0.609374
0.0903109
0.0625893
0.0624824
0.0626873
0.0634574
0.0659036
0.0738526
0.1042
0.26585
1.30957
2.03807
1.40479
1.28264
1.20976
1.12291
1.06017
1.01096
0.966997
0.923621
0.879439
0.834454
0.773745
0.710051
0.630928
0.56824
0.090258
0.0627695
0.0629262
0.0636916
0.0662364
0.0746152
0.106618
0.274307
1.34295
2.11498
1.47633
1.33597
1.25798
1.1679
1.10295
1.0532
1.00889
0.964584
0.9232
0.877835
0.826177
0.774687
0.730662
0.676021
0.665965
0.0902568
0.0627575
0.0629098
0.0636575
0.0661438
0.0743135
0.105393
0.267872
1.30203
2.13297
1.48213
1.33849
1.26125
1.17058
1.10546
1.05537
1.01104
0.966928
0.925926
0.880822
0.829009
0.776799
0.732393
0.676732
0.666843
0.0902554
0.0627321
0.0628749
0.0635843
0.0659431
0.0736566
0.10275
0.254146
1.21138
2.16716
1.4879
1.33989
1.26374
1.17185
1.10642
1.056
1.01154
0.96776
0.92739
0.882937
0.831142
0.777781
0.732787
0.675408
0.665894
0.090255
0.0626968
0.0628263
0.0634815
0.0656597
0.072725
0.0990236
0.234351
1.0785
2.21105
1.49963
1.34201
1.26705
1.17371
1.10825
1.0566
1.01172
0.968446
0.928874
0.885189
0.833575
0.778256
0.733339
0.672293
0.663724
0.0902574
0.0626555
0.0627688
0.0633593
0.0653207
0.0716135
0.0946375
0.21044
0.92232
2.24374
1.52
1.34498
1.27074
1.17581
1.11068
1.05705
1.01169
0.96907
0.930269
0.887482
0.83661
0.777408
0.734046
0.668074
0.65979
0.0902642
0.062612
0.0627075
0.0632286
0.0649545
0.070414
0.0898478
0.183357
0.751967
2.24939
1.55223
1.34918
1.27395
1.17975
1.11301
1.0574
1.0115
0.96938
0.931113
0.889189
0.839413
0.776816
0.732471
0.665272
0.653545
0.090277
0.0625715
0.0626506
0.0631037
0.0645855
0.0692088
0.0852017
0.157625
0.57907
2.20667
1.61438
1.3551
1.27635
1.18565
1.11473
1.05736
1.01128
0.96929
0.930697
0.888059
0.838861
0.777188
0.729719
0.663726
0.643519
0.0902939
0.0625429
0.0626109
0.0629925
0.0642109
0.0680144
0.0809089
0.136126
0.448141
2.0237
1.72537
1.36385
1.27814
1.19296
1.11697
1.05749
1.01116
0.969061
0.929887
0.885386
0.838341
0.777604
0.724157
0.659068
0.630399
0.0903086
0.0625462
0.062577
0.0628473
0.0638082
0.0668932
0.0771409
0.118248
0.342504
1.72596
1.86829
1.37856
1.28004
1.20127
1.11925
1.05824
1.01087
0.968457
0.927286
0.881885
0.836765
0.776555
0.718079
0.649086
0.609371
0.0903109
0.0625893
0.0624824
0.0626873
0.0634575
0.0659037
0.0738528
0.104201
0.265853
1.3096
2.03807
1.40479
1.28264
1.20976
1.12291
1.06016
1.01096
0.966994
0.923621
0.879445
0.834461
0.773756
0.710055
0.630932
0.568235
0.090258
0.0627695
0.0629262
0.0636915
0.0662363
0.0746149
0.106617
0.274303
1.34293
2.11503
1.47635
1.33599
1.25799
1.16791
1.10296
1.05321
1.0089
0.964586
0.923198
0.87783
0.826169
0.774677
0.730651
0.67601
0.665954
0.0902568
0.0627575
0.0629098
0.0636575
0.0661438
0.0743133
0.105393
0.267869
1.30202
2.133
1.48214
1.3385
1.26126
1.17059
1.10546
1.05537
1.01104
0.966929
0.925924
0.880818
0.829002
0.776789
0.732382
0.676722
0.666832
0.0902554
0.062732
0.0628749
0.0635843
0.0659431
0.0736565
0.10275
0.254145
1.21138
2.16719
1.48791
1.3399
1.26375
1.17185
1.10643
1.056
1.01154
0.96776
0.927389
0.882934
0.831137
0.777774
0.732777
0.675398
0.665884
0.090255
0.0626968
0.0628263
0.0634815
0.0656597
0.072725
0.0990238
0.234352
1.07852
2.21107
1.49963
1.34201
1.26706
1.17371
1.10825
1.0566
1.01172
0.968445
0.928873
0.885188
0.833571
0.778251
0.733331
0.672284
0.663715
0.0902574
0.0626555
0.0627688
0.0633593
0.0653208
0.0716137
0.0946382
0.210444
0.922356
2.24376
1.51999
1.34498
1.27074
1.1758
1.11068
1.05705
1.01169
0.969069
0.930269
0.887482
0.83661
0.777404
0.734042
0.668068
0.659782
0.0902642
0.062612
0.0627075
0.0632286
0.0649546
0.0704143
0.089849
0.183365
0.752009
2.2496
1.55211
1.34917
1.27395
1.17975
1.11301
1.0574
1.0115
0.96938
0.931114
0.889191
0.839416
0.776816
0.732468
0.665268
0.65354
0.090277
0.0625715
0.0626506
0.0631037
0.0645856
0.0692092
0.085204
0.157643
0.579249
2.20699
1.61346
1.35496
1.27634
1.18564
1.11472
1.05736
1.01128
0.96929
0.930699
0.888062
0.838867
0.777193
0.729721
0.663726
0.643516
0.0902939
0.0625429
0.0626109
0.0629925
0.064211
0.0680147
0.0809101
0.136133
0.448204
2.02411
1.72516
1.36382
1.27813
1.19295
1.11696
1.05749
1.01116
0.969061
0.929889
0.885389
0.838347
0.777614
0.724166
0.659071
0.6304
0.0903086
0.0625462
0.062577
0.0628473
0.0638083
0.0668934
0.0771419
0.118252
0.342528
1.72606
1.86821
1.37856
1.28004
1.20126
1.11925
1.05824
1.01087
0.968455
0.927287
0.881888
0.836771
0.776566
0.718092
0.649095
0.609377
0.0903109
0.0625893
0.0624824
0.0626874
0.0634575
0.065904
0.0738536
0.104204
0.265871
1.30969
2.03802
1.40479
1.28264
1.20975
1.12291
1.06016
1.01095
0.966991
0.923622
0.879448
0.834468
0.773769
0.710071
0.630946
0.568244
0.090258
0.0627695
0.0629262
0.0636915
0.0662361
0.0746141
0.106613
0.274285
1.34282
2.11511
1.47637
1.33598
1.25797
1.16789
1.10295
1.0532
1.00889
0.964581
0.923191
0.877819
0.82615
0.774651
0.730619
0.675987
0.665929
0.0902568
0.0627575
0.0629098
0.0636575
0.0661437
0.0743128
0.10539
0.267857
1.30194
2.13305
1.48216
1.33849
1.26125
1.17058
1.10545
1.05536
1.01104
0.966925
0.925918
0.880806
0.828983
0.776764
0.73235
0.676698
0.666806
0.0902554
0.062732
0.0628749
0.0635842
0.0659429
0.0736559
0.102747
0.254133
1.21131
2.16722
1.48792
1.33988
1.26373
1.17185
1.10641
1.056
1.01154
0.967756
0.927383
0.882921
0.831116
0.777747
0.732744
0.675374
0.665857
0.090255
0.0626968
0.0628263
0.0634815
0.0656595
0.0727244
0.0990214
0.23434
1.07845
2.21112
1.49963
1.34199
1.26705
1.17373
1.10826
1.05659
1.01172
0.968437
0.928865
0.885173
0.833548
0.778224
0.733296
0.67226
0.663686
0.0902574
0.0626555
0.0627687
0.0633592
0.0653204
0.0716125
0.0946334
0.210415
0.922141
2.24395
1.51997
1.34497
1.27076
1.17579
1.11069
1.05705
1.01169
0.969065
0.93026
0.887465
0.836583
0.777379
0.734006
0.668039
0.659752
0.0902641
0.062612
0.0627075
0.0632286
0.0649545
0.0704139
0.0898475
0.183355
0.751956
2.24972
1.55209
1.34916
1.27397
1.17975
1.11302
1.05741
1.0115
0.969379
0.931108
0.889174
0.839388
0.776787
0.732433
0.665231
0.653508
0.090277
0.0625715
0.0626506
0.0631037
0.0645857
0.0692097
0.0852054
0.157647
0.579272
2.20697
1.61342
1.35499
1.27637
1.18567
1.11475
1.05738
1.0113
0.969296
0.930696
0.888047
0.838839
0.777158
0.729684
0.663684
0.64348
0.0902939
0.0625429
0.0626109
0.0629926
0.0642113
0.0680154
0.0809121
0.13614
0.448239
2.0241
1.72508
1.36389
1.27817
1.19295
1.117
1.05752
1.01118
0.969068
0.92989
0.885374
0.838319
0.777576
0.724124
0.659026
0.630359
0.0903085
0.0625462
0.0625771
0.0628474
0.0638085
0.066894
0.0771433
0.118257
0.342551
1.72611
1.86815
1.37862
1.28005
1.20125
1.11927
1.05828
1.0109
0.968467
0.927291
0.88187
0.836744
0.776528
0.718047
0.649046
0.60933
0.0903109
0.0625893
0.0624825
0.0626875
0.0634577
0.0659043
0.0738545
0.104207
0.265883
1.30976
2.03798
1.40485
1.28267
1.20977
1.12295
1.06021
1.01098
0.967007
0.923627
0.879437
0.834446
0.773733
0.710026
0.630896
0.568197
0.090258
0.0627697
0.0629265
0.0636921
0.0662378
0.0746198
0.106637
0.274409
1.34363
2.11458
1.47608
1.33588
1.25796
1.1679
1.10299
1.05324
1.00893
0.964608
0.923212
0.877818
0.826125
0.774618
0.730583
0.67596
0.6659
0.0902568
0.0627577
0.0629101
0.063658
0.0661449
0.0743166
0.105405
0.267935
1.30244
2.13291
1.48188
1.33846
1.26127
1.17059
1.10549
1.05542
1.01108
0.966956
0.925936
0.880803
0.828958
0.77673
0.732314
0.676672
0.666778
0.0902555
0.0627324
0.0628754
0.0635851
0.0659452
0.0736631
0.102776
0.254278
1.21226
2.16664
1.48789
1.33987
1.26373
1.17191
1.10649
1.05605
1.01159
0.967792
0.927399
0.882913
0.83109
0.777714
0.732709
0.67535
0.665829
0.090255
0.062697
0.0628266
0.0634822
0.0656613
0.07273
0.0990438
0.234462
1.07927
2.2106
1.49961
1.34205
1.26705
1.17373
1.10828
1.05664
1.01177
0.968479
0.928879
0.885163
0.833522
0.778194
0.73326
0.672237
0.663661
0.0902573
0.0626557
0.062769
0.0633598
0.065322
0.0716176
0.0946538
0.210535
0.922967
2.24344
1.51999
1.34506
1.27078
1.17586
1.11071
1.05711
1.01174
0.969103
0.930272
0.887455
0.836558
0.777351
0.733973
0.668016
0.659731
0.0902641
0.0626121
0.0627077
0.0632289
0.0649554
0.0704169
0.0898594
0.183421
0.752236
2.24959
1.5521
1.34926
1.27399
1.17979
1.11307
1.05746
1.01155
0.969412
0.931118
0.889167
0.839369
0.776759
0.732403
0.665208
0.653491
0.090277
0.0625715
0.0626507
0.0631038
0.0645861
0.0692109
0.08521
0.157671
0.57941
2.20704
1.6134
1.35501
1.27638
1.18568
1.11477
1.05743
1.01133
0.969317
0.930703
0.888044
0.838825
0.777131
0.729657
0.663664
0.643467
0.0902939
0.0625429
0.0626109
0.0629926
0.0642113
0.0680155
0.0809126
0.136144
0.448257
2.02424
1.72509
1.36382
1.27816
1.19298
1.11701
1.05755
1.01121
0.969084
0.929895
0.885372
0.838305
0.777552
0.724101
0.659009
0.630349
0.0903086
0.0625462
0.0625771
0.0628474
0.0638084
0.0668937
0.0771427
0.118255
0.34254
1.72609
1.86817
1.37854
1.28003
1.2013
1.1193
1.0583
1.01091
0.968479
0.927293
0.881878
0.836733
0.776506
0.718025
0.649035
0.609323
0.0903109
0.0625893
0.0624824
0.0626874
0.0634576
0.065904
0.0738538
0.104205
0.265871
1.30967
2.03798
1.40476
1.28265
1.20979
1.12295
1.06021
1.01099
0.967015
0.92364
0.879443
0.834437
0.773713
0.710007
0.630886
0.568193
0.0902577
0.0627691
0.0629256
0.0636905
0.0662336
0.0746066
0.106584
0.274141
1.34197
2.11573
1.47652
1.33605
1.25809
1.168
1.10305
1.05328
1.00895
0.964628
0.923235
0.877845
0.826153
0.774644
0.730614
0.676002
0.665966
0.0902565
0.0627571
0.0629093
0.0636565
0.0661412
0.0743052
0.10536
0.267703
1.30097
2.1338
1.48228
1.33856
1.26136
1.17068
1.10556
1.05545
1.0111
0.966976
0.92596
0.88083
0.828986
0.776756
0.732344
0.676713
0.66683
0.0902552
0.0627316
0.0628744
0.0635833
0.0659404
0.0736478
0.102715
0.25396
1.21013
2.16812
1.48798
1.33996
1.26383
1.17191
1.10651
1.05609
1.01161
0.967815
0.927421
0.882935
0.831111
0.777735
0.732736
0.67539
0.665875
0.0902547
0.0626965
0.062826
0.063481
0.0656583
0.0727204
0.0990055
0.23425
1.07783
2.2115
1.49977
1.34204
1.2671
1.17378
1.10834
1.05668
1.0118
0.968505
0.928903
0.885181
0.833535
0.778206
0.733279
0.672274
0.663701
0.0902571
0.0626553
0.0627686
0.063359
0.06532
0.0716114
0.0946291
0.210393
0.922034
2.24372
1.52014
1.34503
1.27076
1.17591
1.11075
1.05714
1.01177
0.969128
0.930301
0.887471
0.836562
0.777361
0.733985
0.668042
0.659768
0.0902639
0.0626118
0.0627073
0.0632282
0.0649538
0.0704122
0.0898414
0.183321
0.751824
2.2492
1.55234
1.34922
1.27396
1.1798
1.11308
1.05749
1.01158
0.969451
0.931153
0.889182
0.839368
0.776757
0.732414
0.66522
0.653524
0.0902766
0.0625712
0.0626503
0.0631033
0.0645849
0.0692075
0.0851973
0.1576
0.578909
2.20661
1.61452
1.3551
1.27638
1.18569
1.11477
1.05743
1.01137
0.969369
0.930745
0.888062
0.838817
0.77711
0.729659
0.663665
0.643485
0.0902935
0.0625426
0.0626106
0.0629922
0.0642108
0.0680142
0.0809079
0.136119
0.448096
2.02362
1.72543
1.36382
1.27816
1.19305
1.11706
1.05758
1.01126
0.969152
0.929946
0.885397
0.838296
0.77752
0.724081
0.659001
0.630351
0.0903082
0.0625459
0.0625769
0.0628473
0.0638084
0.0668936
0.0771423
0.118252
0.342522
1.726
1.86824
1.37857
1.28009
1.20135
1.11936
1.05835
1.01098
0.968555
0.927357
0.881884
0.836724
0.776472
0.717995
0.649012
0.609311
0.0903106
0.062589
0.0624824
0.0626875
0.0634577
0.0659046
0.0738553
0.104209
0.265887
1.30981
2.03796
1.40478
1.28266
1.20981
1.12301
1.06029
1.01107
0.967104
0.923709
0.879471
0.834434
0.773679
0.709972
0.630854
0.568175
0.0903092
0.0626332
0.0623884
0.062546
0.0631469
0.0650469
0.0710434
0.0928915
0.203345
0.888257
2.16031
1.45529
1.28633
1.2176
1.12787
1.06396
1.01157
0.964115
0.920481
0.875775
0.829913
0.768184
0.696646
0.599124
0.467627
0.0903075
0.0626743
0.0623015
0.0624243
0.0628881
0.064343
0.0688094
0.0842594
0.154678
0.566156
2.16819
1.55873
1.29228
1.2228
1.13677
1.0678
1.01296
0.960443
0.919497
0.873015
0.824582
0.76059
0.682664
0.570354
0.4355
0.0903054
0.0627061
0.062231
0.0623252
0.0626767
0.0637723
0.0670741
0.0780071
0.122869
0.374344
1.91898
1.734
1.30533
1.22581
1.14787
1.07252
1.01569
0.959913
0.920158
0.873023
0.821055
0.755794
0.675703
0.565835
0.439714
0.0903033
0.0627289
0.0621765
0.0622482
0.0625107
0.0633191
0.0657246
0.0734
0.102477
0.258971
1.28286
1.91244
1.33713
1.22942
1.15741
1.07648
1.01445
0.96164
0.92198
0.874018
0.821326
0.756173
0.676387
0.569762
0.453847
0.0903016
0.0627439
0.0621367
0.0621911
0.0623862
0.0629763
0.0647062
0.0700169
0.0889361
0.181681
0.73628
2.01208
1.41317
1.23203
1.16185
1.08034
1.01531
0.965273
0.925756
0.877435
0.823527
0.759163
0.681081
0.582618
0.484157
0.0903006
0.0627529
0.0621098
0.0621507
0.062297
0.062723
0.0639508
0.0676155
0.079976
0.133501
0.439187
1.96042
1.58737
1.23644
1.16147
1.08451
1.01903
0.971572
0.93329
0.885019
0.830068
0.767839
0.694128
0.610587
0.527482
0.0903
0.0627582
0.0620925
0.0621243
0.0622333
0.0625401
0.0634007
0.0659043
0.0738985
0.104971
0.281873
1.53442
1.73711
1.25018
1.15696
1.08948
1.0276
0.981911
0.946993
0.898031
0.844479
0.7864
0.721326
0.648722
0.571017
0.0902998
0.0627603
0.0620836
0.0621089
0.0621906
0.062412
0.063012
0.0647256
0.0699199
0.08833
0.178316
0.731476
1.79311
1.30748
1.15374
1.0968
1.04189
0.997707
0.963213
0.917024
0.865306
0.810106
0.750537
0.684039
0.611763
0.0902997
0.0627606
0.0620807
0.0621015
0.0621644
0.0623251
0.0627451
0.0638993
0.0672841
0.0785548
0.126232
0.399826
1.70485
1.46782
1.15562
1.0986
1.0592
1.01904
0.980324
0.939492
0.888078
0.834744
0.778912
0.716832
0.64995
0.0902998
0.0627606
0.0620802
0.0620991
0.0621518
0.0622736
0.0625755
0.0633449
0.0655302
0.0722935
0.0976074
0.237642
1.23321
1.55886
1.16889
1.09967
1.07315
1.04182
1.00429
0.963023
0.913671
0.860968
0.806623
0.749843
0.686603
0.0902998
0.0627606
0.0620804
0.0620993
0.0621496
0.0622554
0.0624781
0.0630081
0.0644165
0.0684736
0.0821178
0.143871
0.527846
1.50361
1.26135
1.10939
1.08683
1.06763
1.03609
0.991673
0.946341
0.892737
0.838002
0.78316
0.723843
0.0902997
0.062761
0.0620797
0.0620986
0.062149
0.062255
0.0624375
0.0628198
0.0637219
0.0662009
0.0737196
0.102075
0.258534
1.18256
1.30459
1.13775
1.10475
1.08585
1.06181
1.02447
0.977518
0.926486
0.872254
0.817471
0.761825
0.0902997
0.0627612
0.0620789
0.0620975
0.0621468
0.0622484
0.0624553
0.0627474
0.0633633
0.0648992
0.0690668
0.0828062
0.144617
0.525036
1.23558
1.18589
1.13898
1.1197
1.09894
1.06322
1.01209
0.964135
0.909328
0.853393
0.798015
0.0902998
0.0627613
0.0620788
0.0620974
0.0621467
0.0622482
0.0624556
0.0627474
0.0632961
0.0642714
0.0666098
0.0734122
0.0976882
0.223737
0.858309
1.16242
1.15859
1.15117
1.13462
1.10658
1.05897
1.00437
0.94942
0.892132
0.83546
0.0902997
0.0627613
0.0620787
0.0620973
0.0621466
0.0622481
0.0624568
0.0627367
0.0632831
0.0640162
0.0654894
0.0690775
0.0798548
0.121244
0.345635
0.953638
1.14007
1.15579
1.16363
1.149
1.11368
1.05102
0.990845
0.932925
0.875377
0.0902997
0.0627613
0.0620787
0.0620973
0.0621466
0.0622481
0.0624567
0.062737
0.0632662
0.0640538
0.0651465
0.0673041
0.0726685
0.0885846
0.152549
0.432261
0.973036
1.1358
1.16842
1.17071
1.15309
1.11015
1.03849
0.97529
0.917072
0.0902997
0.0627613
0.0620787
0.0620973
0.0621466
0.0622481
0.0624566
0.0627371
0.0632627
0.0640613
0.0651315
0.0669822
0.0701877
0.0775088
0.0989468
0.176528
0.455868
0.96605
1.14314
1.175
1.16997
1.1449
1.09548
1.01997
0.961843
0.0902997
0.0627613
0.0620787
0.0620973
0.0621466
0.0622481
0.0624567
0.0627373
0.0632634
0.0640599
0.0651386
0.0669332
0.0700222
0.0748841
0.0853048
0.111748
0.193206
0.445649
0.953283
1.14093
1.16777
1.1556
1.12663
1.07642
1.00238
0.0902998
0.0627613
0.0620788
0.0620974
0.0621466
0.0622481
0.0624567
0.0627373
0.063263
0.0640598
0.0651352
0.0669398
0.0699784
0.0749527
0.0835842
0.0995245
0.134114
0.216578
0.435004
0.914433
1.11287
1.14602
1.12936
1.10129
1.05013
0.0902997
0.0627613
0.0620788
0.0620974
0.0621466
0.0622481
0.0624567
0.0627374
0.0632635
0.0640606
0.0651343
0.0669468
0.069965
0.0749606
0.0835463
0.0989895
0.131408
0.174897
0.244744
0.415847
0.818357
1.06186
1.10668
1.09409
1.06863
0.0902997
0.0627613
0.0620787
0.0620973
0.0621466
0.0622481
0.0624566
0.0627372
0.0632633
0.0640602
0.0651338
0.0669464
0.0699628
0.0749571
0.0835404
0.0989739
0.131377
0.17219
0.215522
0.265997
0.385166
0.680938
0.982218
1.04638
1.05269
0.0902997
0.0627613
0.0620788
0.0620974
0.0621467
0.0622481
0.0624568
0.0627374
0.0632636
0.0640608
0.0651342
0.0669474
0.0699629
0.0749597
0.0835464
0.0989766
0.131336
0.172365
0.212645
0.243524
0.276924
0.351505
0.532646
0.834299
0.976229
0.0902997
0.0627613
0.0620787
0.0620973
0.0621466
0.062248
0.0624566
0.0627372
0.0632632
0.0640601
0.0651337
0.0669462
0.0699625
0.0749557
0.0835428
0.0989693
0.131324
0.172336
0.212479
0.241791
0.261148
0.280408
0.32303
0.420312
0.642713
0.0902997
0.0627613
0.0620788
0.0620974
0.0621467
0.0622482
0.0624568
0.0627374
0.0632636
0.0640609
0.0651343
0.0669478
0.0699631
0.0749602
0.0835475
0.0989779
0.131338
0.172357
0.212449
0.241735
0.259828
0.269692
0.280164
0.303385
0.354986
0.0902997
0.0627613
0.0620788
0.0620974
0.0621466
0.0622481
0.0624567
0.0627373
0.0632629
0.06406
0.0651331
0.0669458
0.0699611
0.0749576
0.0835422
0.0989681
0.131316
0.172325
0.21241
0.241698
0.25976
0.268556
0.275022
0.280192
0.291052
0.0902997
0.0627613
0.0620788
0.0620974
0.0621467
0.0622481
0.0624568
0.0627374
0.0632636
0.0640608
0.0651341
0.0669477
0.0699631
0.0749597
0.0835475
0.098979
0.131341
0.172363
0.212444
0.24172
0.259745
0.268441
0.2745
0.277002
0.279164
0.0902997
0.0627613
0.0620787
0.0620973
0.0621466
0.062248
0.0624566
0.0627371
0.0632632
0.06406
0.0651336
0.0669458
0.0699626
0.0749546
0.0835417
0.0989683
0.131322
0.172341
0.212436
0.24173
0.259746
0.268425
0.274466
0.276748
0.277406
0.0902997
0.0627613
0.0620788
0.0620973
0.0621466
0.0622481
0.0624567
0.0627373
0.0632634
0.0640605
0.0651339
0.0669472
0.0699623
0.0749589
0.0835457
0.0989763
0.131336
0.172358
0.212453
0.241735
0.259763
0.268441
0.274466
0.276718
0.277258
0.0902997
0.0627613
0.0620787
0.0620973
0.0621466
0.062248
0.0624566
0.0627372
0.0632631
0.06406
0.0651335
0.066946
0.0699621
0.0749548
0.0835415
0.0989671
0.131319
0.172335
0.212434
0.241739
0.259764
0.268447
0.274483
0.276727
0.277274
0.0902997
0.0627613
0.0620787
0.0620973
0.0621466
0.0622481
0.0624567
0.0627373
0.0632632
0.0640602
0.0651336
0.066947
0.0699621
0.0749581
0.083545
0.0989746
0.131334
0.17235
0.212441
0.24173
0.259762
0.268449
0.27448
0.276729
0.27727
0.0902998
0.0627613
0.0620787
0.0620973
0.0621466
0.062248
0.0624566
0.0627372
0.0632627
0.0640596
0.0651329
0.066945
0.0699611
0.0749554
0.08354
0.0989658
0.131315
0.172325