/*--------------------------------*- C++ -*----------------------------------*\
| =========                 |                                                 |
| \\      /  F ield         | OpenFOAM: The Open Source CFD Toolbox           |
|  \\    /   O peration     | Version:  4.1                                   |
|   \\  /    A nd           | Web:      www.OpenFOAM.org                      |
|    \\/     M anipulation  |                                                 |
\*---------------------------------------------------------------------------*/
FoamFile
{
    version     2.0;
    format      ascii;
    class       surfaceScalarField;
    location    "0.46";
    object      phi;
}
// * * * * * * * * * * * * * * * * * * * * * * * * * * * * * * * * * * * * * //

dimensions      [1 0 -1 0 0 0 0];

internalField   nonuniform List<scalar> 
150500
(
0.00202914
-5.53137e-10
-1.46973e-12
0.00202485
2.21294e-08
-2.85044e-12
0.00201882
4.62298e-08
-3.65427e-12
0.00200662
1.02211e-07
-6.94665e-12
0.00197502
2.76259e-07
-1.78958e-11
0.00188816
8.92235e-07
-5.7485e-11
0.00170115
3.65153e-06
-2.35319e-10
0.00105954
2.29514e-05
-1.25364e-09
-0.00302753
0.000296598
-8.09416e-09
-0.0023002
0.000525849
6.19208e-09
-0.00198602
0.000336412
1.96371e-09
-0.00190881
0.000315367
7.90796e-10
-0.00168114
0.000294201
4.82362e-10
-0.00137808
0.000265121
2.50069e-10
-0.00112778
0.000235249
1.03661e-10
-0.000913714
0.000227406
6.39977e-11
-0.000722051
0.000224364
8.65074e-11
-0.000524544
0.000226282
1.50501e-10
-0.000342216
0.000224144
1.98527e-10
-0.000206056
0.000223782
3.09949e-10
-0.000120636
0.000229233
4.04227e-10
-6.7098e-05
0.000235536
4.19307e-10
-4.9201e-05
0.000239345
4.00519e-10
-2.02232e-05
0.000250066
3.82653e-10
0.00025707
3.85169e-10
0.0020291
-3.53323e-09
-1.39974e-12
0.00202491
4.49954e-08
-2.46802e-12
0.00201903
9.43759e-08
-3.09096e-12
0.00200713
2.13401e-07
-5.58699e-12
0.00197614
5.85164e-07
-1.36941e-11
0.00189047
1.89355e-06
-4.23656e-11
0.00170592
7.67314e-06
-1.68875e-10
0.00108144
4.68482e-05
-8.98573e-10
-0.00289426
0.000566295
-5.95872e-09
-0.00231262
0.00106545
3.23467e-09
-0.00197719
0.000656778
2.07607e-09
-0.00189633
0.000627813
3.64582e-10
-0.0016745
0.000589442
1.69844e-10
-0.00137103
0.000531203
2.11847e-10
-0.00111597
0.000470504
1.42644e-10
-0.000901438
0.000455377
3.81754e-11
-0.000709807
0.000449153
5.41619e-11
-0.000511729
0.00045327
1.4453e-10
-0.000328033
0.000449218
2.13884e-10
-0.000191708
0.000448913
3.05419e-10
-0.000107756
0.000459851
3.80617e-10
-5.68138e-05
0.000472495
3.94737e-10
-4.24438e-05
0.000479848
3.83264e-10
-1.54969e-05
0.000500713
3.67731e-10
0.000515149
3.59683e-10
0.00202903
-9.4983e-09
-1.30875e-12
0.00202505
5.66863e-08
-2.81279e-12
0.00201952
1.23809e-07
-3.56621e-12
0.0020083
2.92784e-07
-6.60796e-12
0.00197878
8.23108e-07
-1.67695e-11
0.00189613
2.66166e-06
-5.33839e-11
0.0017172
1.06386e-05
-2.13645e-10
0.00112437
6.40339e-05
-1.12857e-09
-0.00255961
0.000745118
-7.63834e-09
-0.00229841
0.00164547
4.57191e-09
-0.00195364
0.000992092
8.042e-10
-0.00186926
0.000938241
2.78085e-10
-0.00165803
0.000882854
2.59245e-10
-0.00135673
0.000798624
1.98783e-11
-0.00109579
0.000708964
-4.01932e-11
-0.000880649
0.000683584
3.4308e-11
-0.000688243
0.000673615
8.23383e-11
-0.000489775
0.000681284
1.42402e-10
-0.00030464
0.000676091
2.3113e-10
-0.000166968
0.000675462
2.94215e-10
-8.40813e-05
0.000691374
3.29396e-10
-3.7044e-05
0.000711528
3.36986e-10
-2.9201e-05
0.000722026
3.42629e-10
-5.86841e-06
0.00075351
3.4371e-10
0.000776516
3.38769e-10
0.0020289
-1.87663e-08
-1.10527e-12
0.00202525
5.61584e-08
-2.25797e-12
0.00202024
1.32914e-07
-2.84669e-12
0.00201
3.41176e-07
-5.21409e-12
0.00198263
9.92664e-07
-1.31673e-11
0.00190503
3.18914e-06
-4.19684e-11
0.00173354
1.24724e-05
-1.68309e-10
0.00117316
7.3115e-05
-9.48492e-10
-0.00208734
0.000807148
-6.62365e-09
-0.00229664
0.00227106
3.54133e-09
-0.00191377
0.00133562
6.9621e-10
-0.00182606
0.00124726
-9.65062e-11
-0.00163294
0.00118056
1.7425e-10
-0.00133567
0.00106851
2.33313e-10
-0.00106612
0.0009514
2.34868e-10
-0.00085043
0.000912232
1.10619e-10
-0.000656569
0.000897657
1.08838e-10
-0.000457154
0.000909616
1.63854e-10
-0.000269505
0.00090553
2.54208e-10
-0.000129586
0.000904117
2.75151e-10
-4.76525e-05
0.000924095
2.65223e-10
-3.22942e-06
0.000955825
2.5746e-10
-6.53229e-06
0.00096599
2.95949e-10
1.00879e-05
0.00100916
2.95309e-10
0.00104457
3.04068e-10
0.00202873
-2.7552e-08
-8.35064e-13
0.0020255
4.22267e-08
-2.05563e-12
0.00202119
1.23339e-07
-2.60143e-12
0.00201214
3.6487e-07
-4.69704e-12
0.00198744
1.10248e-06
-1.1666e-11
0.00191681
3.48753e-06
-3.674e-11
0.00175274
1.32731e-05
-1.47776e-10
0.00125009
7.50738e-05
-8.92474e-10
-0.00155324
0.000773475
-6.2841e-09
-0.00230696
0.00290861
3.0331e-09
-0.00186977
0.00168275
4.42254e-10
-0.00177441
0.00155269
-2.41593e-10
-0.00160498
0.00148428
1.20386e-10
-0.00131204
0.00134124
4.8291e-11
-0.0010316
0.00120219
2.55281e-10
-0.00081303
0.00114024
1.28254e-10
-0.00061576
0.00112078
1.50697e-10
-0.000414726
0.00113727
2.06406e-10
-0.000223483
0.0011369
2.77102e-10
-7.99271e-05
0.00113458
2.48293e-10
-8.21837e-07
0.00115664
1.95551e-10
4.71368e-05
0.00120349
2.25277e-10
3.60476e-05
0.00121743
2.11831e-10
2.51157e-05
0.0012665
2.29513e-10
0.00132365
2.61446e-10
0.00202852
-3.53242e-08
-1.23062e-12
0.00202583
9.56612e-09
-1.59085e-12
0.00202242
9.71463e-08
-1.97388e-12
0.00201471
3.77754e-07
-3.51108e-12
0.00199283
1.17672e-06
-8.53686e-12
0.00193099
3.60576e-06
-2.57534e-11
0.00178037
1.30686e-05
-1.00465e-10
0.00135889
6.89229e-05
-5.82702e-10
-0.00113582
0.000640643
-2.49151e-09
-0.00239074
0.00352984
-3.86452e-10
-0.00182573
0.00208465
9.77828e-10
-0.00171123
0.00185786
-3.05338e-10
-0.00157036
0.00179021
4.24111e-11
-0.00128
0.0016209
1.52314e-10
-0.000992338
0.00145866
1.26588e-10
-0.000768823
0.00136491
1.70044e-10
-0.000566099
0.00134231
1.99602e-10
-0.00036271
0.00136248
2.72829e-10
-0.000167166
0.00137218
3.02605e-10
-1.89174e-05
0.00137124
2.25527e-10
7.10355e-05
0.00139508
1.23699e-10
0.000107641
0.00144859
1.3433e-10
0.000100052
0.00147523
1.90739e-10
4.99815e-05
0.00152175
1.44744e-10
0.00161607
2.15973e-10
0.00202827
-3.50768e-08
-1.74309e-12
0.00202638
-3.46582e-08
-1.22702e-12
0.00202414
7.73491e-08
-1.45417e-12
0.00201762
4.11738e-07
-2.36651e-12
0.00199794
1.22453e-06
-5.00975e-12
0.00194341
3.53004e-06
-1.41639e-11
0.00180918
1.21171e-05
-5.53509e-11
0.00147904
5.91733e-05
-3.32838e-10
-0.000318358
0.000479131
-2.43271e-09
-0.00271009
0.00384604
-2.15545e-09
-0.001778
0.00261043
4.73632e-09
-0.00163994
0.00215863
6.22885e-10
-0.00152735
0.00209586
2.02694e-10
-0.00124353
0.00190962
3.6747e-10
-0.000949207
0.00172421
3.83638e-10
-0.000717601
0.00158479
2.64996e-10
-0.000506645
0.00156362
3.34052e-10
-0.000299623
0.00158403
3.51807e-10
-9.92055e-05
0.00161059
3.25398e-10
5.83956e-05
0.00162123
2.10754e-10
0.000161584
0.00163835
6.54197e-11
0.000186795
0.00169231
1.33307e-11
0.000175166
0.00173115
9.27146e-11
9.28447e-05
0.00178111
6.29424e-11
0.00193169
1.26431e-10
0.00202803
-2.33095e-08
-1.66069e-12
0.00202767
-8.58584e-08
-1.00517e-12
0.00202627
1.05626e-07
-1.20106e-12
0.00201925
4.68277e-07
-1.42223e-12
0.00200036
1.19706e-06
-1.72205e-12
0.00195333
3.26057e-06
-4.52356e-12
0.00183662
1.08135e-05
-1.93756e-11
0.00156267
4.91677e-05
-1.16477e-10
0.000183119
0.000357894
-8.42348e-10
-0.00279318
0.00370417
-3.81839e-09
-0.00174438
0.00330135
1.40994e-09
-0.00156133
0.00246039
5.61621e-10
-0.00147176
0.00240001
3.41077e-10
-0.00120142
0.00220645
3.26125e-10
-0.000901506
0.00199866
4.19885e-10
-0.000658454
0.00180532
3.49943e-10
-0.000435886
0.00178001
3.96929e-10
-0.000226101
0.00180065
3.83222e-10
-2.01446e-05
0.00184796
3.54809e-10
0.000156794
0.00185754
2.17157e-10
0.000266817
0.00187195
5.84649e-11
0.000290151
0.00193292
-8.14133e-11
0.000266199
0.00198496
-6.80368e-11
0.000159632
0.0020557
-1.54727e-11
0.0022773
2.41922e-11
0.00202805
-3.78795e-09
-1.65761e-12
0.00203012
-1.08177e-07
-1.47223e-12
0.00202592
1.57715e-07
-5.3686e-13
0.00201787
4.56092e-07
-3.1029e-13
0.00200307
1.07648e-06
-6.6365e-13
0.00196517
2.88769e-06
-1.8234e-12
0.00186485
9.34378e-06
-7.08795e-12
0.00164176
3.94255e-05
-4.09979e-11
0.000777196
0.000261878
-2.84317e-10
-0.00269878
0.0031764
-1.42587e-09
-0.0017375
0.00419876
6.33996e-10
-0.00147651
0.00277144
5.27193e-10
-0.0014014
0.00270209
3.13366e-10
-0.00115535
0.00251308
1.69664e-10
-0.000851658
0.00228407
3.27233e-10
-0.000592251
0.00203689
4.28848e-10
-0.000356772
0.00198995
5.09128e-10
-0.000140487
0.00201399
4.27504e-10
7.87556e-05
0.00207937
3.80199e-10
0.00026563
0.00208277
1.31042e-10
0.000389449
0.00209989
5.63263e-11
0.000424406
0.00216428
-9.89271e-11
0.000388557
0.00222976
-1.36935e-10
0.000266858
0.00232786
-1.34258e-10
0.00270381
-8.26521e-11
0.00202837
-1.46866e-12
4.32631e-09
0.00203017
-1.49882e-12
-9.63764e-08
0.00202581
-1.74843e-14
1.50088e-07
0.00202027
1.27381e-14
4.09896e-07
0.00200825
-5.02764e-14
9.34054e-07
0.00197689
-2.67804e-13
2.46139e-06
0.00189003
-2.8438e-12
7.74833e-06
0.00170531
-1.89765e-11
3.08817e-05
0.00111657
-1.406e-10
0.000192966
-0.00204944
-9.73393e-10
0.0022518
-0.0017377
3.96098e-10
0.00525632
-0.00138304
5.3704e-10
0.00311699
-0.0013138
2.91963e-10
0.00299229
-0.00110524
2.54599e-10
0.00282769
-0.000801133
4.1596e-10
0.00257043
-0.000519741
4.83828e-10
0.00228934
-0.00026983
5.15988e-10
0.00219288
-3.98475e-05
4.89574e-10
0.00221957
0.0001916
3.88453e-10
0.00229262
0.000388506
2.1075e-10
0.00230479
0.000530945
6.60532e-11
0.00232071
0.000593169
-1.15356e-10
0.00237569
0.000563107
-1.83679e-10
0.00246578
0.000442096
-2.17502e-10
0.00258305
-1.3518e-10
0.0032811
0.00202914
-5.03746e-10
2.30602e-13
0.00202484
2.23428e-08
9.55424e-13
0.00201881
4.65807e-08
1.28646e-12
0.0020066
1.02951e-07
2.64585e-12
0.00197497
2.78335e-07
7.2189e-12
0.00188805
8.99674e-07
2.40436e-11
0.00170091
3.68858e-06
1.01287e-10
0.0010583
2.3238e-05
5.61594e-10
-0.00303358
0.000299172
3.85687e-09
-0.00229948
0.000524484
-2.45211e-09
-0.00198486
0.000335321
-1.41631e-09
-0.0019079
0.000314914
-4.78483e-10
-0.00168027
0.000294188
-8.71428e-11
-0.00137763
0.000265348
3.11378e-11
-0.00112759
0.000235451
2.29044e-10
-0.000913641
0.000227472
2.77469e-10
-0.000722048
0.000224347
2.53434e-10
-0.000524562
0.000226234
1.65918e-10
-0.00034225
0.000224049
9.13167e-11
-0.000206133
0.000223656
-3.1008e-12
-0.000120735
0.000229112
-1.15043e-10
-6.71806e-05
0.000235436
-1.61272e-10
-4.92365e-05
0.000239261
-1.85642e-10
-2.02266e-05
0.000249988
-1.25256e-10
0.000257009
-1.36261e-10
0.00202911
-3.41985e-09
1.8093e-13
0.0020249
4.49934e-08
8.23856e-13
0.00201902
9.43738e-08
1.07189e-12
0.00200711
2.13221e-07
2.04776e-12
0.00197611
5.84131e-07
5.19842e-12
0.00189041
1.88913e-06
1.62631e-11
0.00170582
7.64964e-06
6.50853e-11
0.00108123
4.66573e-05
3.51946e-10
-0.00289299
0.000564247
2.40022e-09
-0.00230735
0.00106536
-6.34396e-10
-0.00197373
0.000656865
-1.39394e-09
-0.00189391
0.000627693
-1.37035e-10
-0.00167308
0.000590156
1.18503e-10
-0.00137039
0.000531988
4.26502e-11
-0.00111567
0.000471187
2.0647e-10
-0.000901335
0.00045562
3.24916e-10
-0.00070982
0.000449176
3.01311e-10
-0.000511778
0.00045317
1.87898e-10
-0.000328098
0.000449024
7.34686e-11
-0.000191799
0.000448665
-1.53919e-11
-0.00010786
0.000459613
-1.17232e-10
-5.69013e-05
0.000472292
-1.63657e-10
-4.24792e-05
0.000479668
-1.86225e-10
-1.54804e-05
0.000500535
-1.21676e-10
0.000515048
-1.34926e-10
0.00202903
-9.32525e-09
1.77137e-13
0.00202505
5.71477e-08
1.42887e-12
0.00201951
1.24595e-07
1.88704e-12
0.00200827
2.94165e-07
3.68535e-12
0.00197873
8.26014e-07
9.72884e-12
0.00189601
2.66966e-06
3.15421e-11
0.00171698
1.06699e-05
1.27966e-10
0.00112353
6.42219e-05
6.83808e-10
-0.00256788
0.000747429
4.70197e-09
-0.00230018
0.00164502
-2.75253e-09
-0.00195527
0.00099236
-1.68164e-10
-0.00187078
0.00093823
-4.97617e-11
-0.00165873
0.000882972
-1.84374e-11
-0.00135707
0.00079902
3.56853e-10
-0.00109625
0.000709186
4.44676e-10
-0.000880958
0.000683635
3.57088e-10
-0.000688439
0.000673503
3.01424e-10
-0.000489903
0.00068104
2.19857e-10
-0.000304739
0.000675745
6.25826e-11
-0.000167047
0.000675079
-3.46279e-11
-8.41439e-05
0.00069102
-1.25784e-10
-3.7085e-05
0.000711229
-1.71775e-10
-2.92116e-05
0.000721759
-1.90045e-10
-5.84672e-06
0.000753254
-1.15144e-10
0.000776374
-1.35358e-10
0.00202891
-1.86027e-08
-3.78078e-14
0.00202524
5.6374e-08
1.05486e-12
0.00202024
1.33356e-07
1.4046e-12
0.00200998
3.41998e-07
2.79587e-12
0.0019826
9.94449e-07
7.52205e-12
0.00190494
3.19409e-06
2.4474e-11
0.00173338
1.24911e-05
9.93896e-11
0.00117268
7.32287e-05
5.66964e-10
-0.00209116
0.000808737
4.02667e-09
-0.00229679
0.00227233
-2.63864e-09
-0.00191552
0.00133683
-9.39135e-11
-0.00182802
0.00124749
3.51764e-10
-0.00163474
0.00118079
8.26817e-12
-0.00133695
0.00106859
3.09505e-11
-0.00106705
0.000951183
8.05238e-11
-0.000850982
0.000911924
3.11122e-10
-0.000656882
0.000897308
3.30921e-10
-0.000457351
0.00090916
2.507e-10
-0.000269629
0.000905023
5.56087e-11
-0.000129647
0.000903615
-4.54674e-11
-4.7671e-05
0.000923642
-1.40856e-10
-3.22754e-06
0.000955435
-1.70073e-10
-6.52001e-06
0.000965663
-1.99749e-10
1.01054e-05
0.00100885
-1.11734e-10
0.00104438
-1.29777e-10
0.00202873
-2.78976e-08
-5.29724e-13
0.0020255
4.22348e-08
9.75787e-13
0.00202118
1.23641e-07
1.32498e-12
0.00201212
3.65948e-07
2.56892e-12
0.0019874
1.10568e-06
6.78388e-12
0.00191671
3.49686e-06
2.17952e-11
0.00175253
1.33072e-05
8.91304e-11
0.00124917
7.52851e-05
5.46616e-10
-0.00155599
0.0007762
3.97355e-09
-0.00230846
0.00291017
-2.45475e-09
-0.00187266
0.00168441
1.00792e-10
-0.00177727
0.00155342
4.97806e-10
-0.00160716
0.00148397
1.13468e-10
-0.0013136
0.00134034
4.30292e-10
-0.00103282
0.00120109
1.08575e-10
-0.000813727
0.0011394
3.42223e-10
-0.000616151
0.00112008
3.23244e-10
-0.000414959
0.00113661
2.106e-10
-0.000223612
0.00113625
5.09828e-11
-7.99553e-05
0.00113398
-4.51659e-11
-7.97255e-07
0.00115611
-1.45704e-10
4.71714e-05
0.00120309
-1.57779e-10
3.6097e-05
0.00121705
-1.93923e-10
2.51366e-05
0.00126614
-1.24633e-10
0.00132336
-1.12057e-10
0.00202852
-3.56784e-08
-2.97e-14
0.00202583
9.40301e-09
5.28546e-13
0.00202241
9.72849e-08
7.27681e-13
0.0020147
3.78961e-07
1.48292e-12
0.00199281
1.18066e-06
4.05986e-12
0.00193093
3.61697e-06
1.28955e-11
0.00178021
1.31058e-05
5.11741e-11
0.00135846
6.91135e-05
2.96151e-10
-0.00112952
0.000642225
1.30603e-09
-0.00239047
0.00353154
-7.45392e-10
-0.00182788
0.00208936
1.79485e-11
-0.00171319
0.00185912
5.45204e-10
-0.00157157
0.00178971
1.55786e-10
-0.00128086
0.00161944
1.78951e-10
-0.000993082
0.00145701
2.72359e-10
-0.000769329
0.00136377
3.34824e-10
-0.000566517
0.00134134
3.03088e-10
-0.000362935
0.00136169
1.37795e-10
-0.000167283
0.0013714
4.88327e-11
-1.89089e-05
0.00137057
-2.94819e-11
7.11368e-05
0.00139447
-1.1499e-10
0.000107723
0.00144808
-1.64571e-10
0.000100134
0.00147485
-1.7962e-10
5.00277e-05
0.00152136
-1.3575e-10
0.0016157
-9.25331e-11
0.00202826
-3.50039e-08
6.1217e-15
0.00202638
-3.47616e-08
2.13811e-13
0.00202414
7.76435e-08
2.74276e-13
0.00201762
4.1309e-07
5.40745e-13
0.00199792
1.22786e-06
1.58755e-12
0.00194336
3.53812e-06
5.15135e-12
0.00180906
1.21423e-05
1.94653e-11
0.00147861
5.92998e-05
1.05828e-10
-0.000319881
0.000480336
6.45887e-10
-0.00270566
0.00385308
3.1911e-10
-0.00177906
0.00261072
-9.14902e-11
-0.00164014
0.00215965
1.12732e-10
-0.00152755
0.00209603
4.00349e-11
-0.00124383
0.00190874
2.8193e-11
-0.000949519
0.00172306
8.50687e-11
-0.000717794
0.00158365
2.36228e-10
-0.000506833
0.00156253
1.22592e-10
-0.000299748
0.00158305
9.18967e-11
-9.92583e-05
0.00160976
3.63936e-11
5.84407e-05
0.00162055
-1.33776e-11
0.000161725
0.00163777
-8.1996e-11
0.000186955
0.0016919
-1.58411e-10
0.000175296
0.00173083
-1.61648e-10
9.29233e-05
0.0017808
-1.10345e-10
0.00193125
-7.8482e-11
0.00202803
-2.32365e-08
-2.2946e-14
0.00202768
-8.59315e-08
-6.15618e-14
0.00202627
1.0607e-07
-5.26956e-14
0.00201925
4.69141e-07
-5.04252e-14
0.00200035
1.19864e-06
-2.90504e-14
0.0019533
3.2643e-06
3.43179e-13
0.00183658
1.08241e-05
2.27101e-12
0.00156255
4.92139e-05
1.46088e-11
0.000182649
0.000358272
8.32625e-11
-0.00279078
0.00370739
6.65598e-10
-0.00174307
0.00330247
1.61e-11
-0.00156039
0.00246165
-3.00439e-10
-0.00147136
0.00240077
-7.27316e-11
-0.00120139
0.00220636
9.32418e-11
-0.000901619
0.00199817
7.832e-11
-0.000658415
0.00180429
1.25935e-10
-0.000435833
0.00177902
1.07999e-10
-0.00022611
0.00179965
7.0401e-11
-2.01204e-05
0.00184716
2.43551e-11
0.000156883
0.00185684
-7.34983e-12
0.000266984
0.00187138
-7.70391e-11
0.000290364
0.00193258
-9.10849e-11
0.000266395
0.00198465
-8.48709e-11
0.000159747
0.00205543
-5.99862e-11
0.00227683
-3.6963e-11
0.00202805
-3.65479e-09
6.59544e-14
0.00203013
-1.08056e-07
1.22506e-13
0.00202591
1.58124e-07
-5.92092e-14
0.00201787
4.56831e-07
-1.72745e-13
0.00200307
1.07773e-06
-5.01043e-13
0.00196516
2.88994e-06
-1.12401e-12
0.00186482
9.34874e-06
-3.4086e-12
0.0016417
3.94427e-05
-1.29808e-11
0.000777007
0.000261996
-4.78848e-11
-0.00269787
0.00317794
-1.06184e-10
-0.00173614
0.00420003
1.04508e-10
-0.00147529
0.00277275
-3.81865e-10
-0.00140056
0.00270322
-9.27198e-11
-0.00115482
0.0025133
2.63723e-10
-0.000851322
0.00228378
1.10627e-10
-0.000591971
0.00203598
9.26112e-11
-0.00035665
0.00198902
4.9078e-11
-0.000140391
0.002013
5.38786e-11
7.88399e-05
0.0020786
1.21483e-11
0.000265774
0.0020821
4.9217e-11
0.000389656
0.00209937
-5.26664e-11
0.000424669
0.00216398
-8.1959e-11
0.000388802
0.00222948
-7.71545e-11
0.000267025
0.0023276
-4.9357e-11
0.00270338
-2.75564e-11
0.00202837
-7.75287e-14
4.49704e-09
0.00203017
-2.64277e-14
-9.62294e-08
0.00202581
-2.36842e-13
1.50352e-07
0.00202027
-2.89942e-13
4.10349e-07
0.00200825
-5.28516e-13
9.34797e-07
0.00197689
-1.2444e-12
2.46271e-06
0.00189001
-3.74453e-12
7.7513e-06
0.00170527
-1.42002e-11
3.08913e-05
0.00111651
-6.93036e-11
0.000193026
-0.00204959
-4.40994e-10
0.00225269
-0.00173648
1.49145e-11
0.00525761
-0.00138178
-3.89581e-10
0.00311784
-0.00131278
-9.21314e-11
0.00299325
-0.00110451
7.7671e-11
0.00282798
-0.000800664
-1.83852e-11
0.00257019
-0.00051939
9.07132e-12
0.00228879
-0.000269609
4.02948e-11
0.00219203
-3.97164e-05
3.72057e-11
0.00221868
0.000191712
5.88407e-11
0.00229192
0.000388661
2.56217e-11
0.00230421
0.000531158
-4.96896e-11
0.00232026
0.000593463
-7.31654e-11
0.00237538
0.000563416
-7.25028e-11
0.00246553
0.00044229
-4.2677e-11
0.0025829
-1.99778e-11
0.00328075
0.00202914
-5.35204e-10
6.58342e-14
0.00202484
2.22754e-08
4.58036e-14
0.00201882
4.65147e-08
7.90571e-15
0.00200661
1.02811e-07
-1.6927e-13
0.00197499
2.77803e-07
-7.99116e-13
0.0018881
8.97117e-07
-3.17873e-12
0.00170102
3.67257e-06
-1.41824e-11
0.00105891
2.30947e-05
-7.88853e-11
-0.0030304
0.000297956
-5.24678e-10
-0.00230079
0.000525725
3.9767e-10
-0.00198678
0.00033611
7.71022e-11
-0.00190956
0.000315235
-3.55905e-11
-0.00168166
0.000293992
-9.64272e-11
-0.00137849
0.000264867
-7.53494e-11
-0.00112817
0.00023501
-5.81439e-11
-0.000913983
0.000227199
-4.33951e-11
-0.000722194
0.000224194
-2.81386e-11
-0.000524605
0.000226139
-1.97482e-11
-0.000342235
0.000224014
-3.26241e-11
-0.000206048
0.000223664
-6.81821e-11
-0.000120609
0.00022914
-7.96575e-11
-6.70572e-05
0.000235468
-1.40452e-10
-4.91517e-05
0.000239294
-1.91808e-10
-2.01704e-05
0.000250017
-1.02169e-10
0.00025704
-1.06617e-10
0.00202911
-3.48442e-09
9.7782e-14
0.0020249
4.51674e-08
8.28574e-14
0.00201903
9.47084e-08
5.83327e-14
0.00200712
2.14044e-07
-6.17332e-14
0.00197612
5.86577e-07
-4.8959e-13
0.00189042
1.89724e-06
-2.11708e-12
0.00170584
7.68511e-06
-9.6261e-12
0.00108115
4.6903e-05
-5.47953e-11
-0.00289514
0.000566888
-3.80071e-10
-0.00231158
0.00106579
2.11919e-10
-0.00197681
0.00065682
9.71932e-11
-0.0018962
0.000627755
-4.10607e-11
-0.00167446
0.000589275
-6.76492e-11
-0.00137108
0.000530934
-4.40879e-11
-0.00111612
0.000470235
-4.44783e-11
-0.000901585
0.000455103
-3.84848e-11
-0.000709905
0.000448897
-2.7559e-11
-0.000511789
0.000453026
-1.75089e-11
-0.000328058
0.00044898
-3.15084e-11
-0.000191702
0.000448692
-7.03429e-11
-0.000107731
0.00045967
-8.51171e-11
-5.67782e-05
0.000472356
-1.43882e-10
-4.23956e-05
0.000479733
-1.93759e-10
-1.54225e-05
0.000500594
-1.07852e-10
0.000515108
-1.21925e-10
0.00202903
-9.51142e-09
3.08208e-14
0.00202505
5.6776e-08
4.45036e-15
0.00201952
1.24037e-07
-2.4439e-14
0.00200829
2.93352e-07
-1.5661e-13
0.00197876
8.24592e-07
-6.11676e-13
0.00189608
2.66598e-06
-2.30146e-12
0.00171713
1.06544e-05
-9.68236e-12
0.00112413
6.41224e-05
-5.17454e-11
-0.00256187
0.000746153
-3.55781e-10
-0.00229799
0.00164593
1.43149e-10
-0.00195333
0.000992311
4.19548e-11
-0.00186921
0.000938288
-9.08729e-11
-0.00165801
0.000882712
-7.55371e-11
-0.00135672
0.000798352
-2.19975e-11
-0.00109589
0.000708649
-4.73238e-11
-0.000880766
0.000683284
-4.26924e-11
-0.000688331
0.000673309
-2.92449e-11
-0.000489829
0.000680973
-2.00192e-11
-0.000304651
0.000675767
-3.31714e-11
-0.000166928
0.000675155
-7.58746e-11
-8.40101e-05
0.000691117
-1.10258e-10
-3.69613e-05
0.000711328
-1.55415e-10
-2.91299e-05
0.000721856
-1.99745e-10
-5.78036e-06
0.000753339
-1.21895e-10
0.000776462
-1.4249e-10
0.0020289
-1.88697e-08
1.08952e-13
0.00202524
5.61644e-08
9.75765e-15
0.00202024
1.33011e-07
-2.64912e-14
0.00200999
3.41525e-07
-1.85736e-13
0.00198262
9.93667e-07
-7.02857e-13
0.00190499
3.19198e-06
-2.55776e-12
0.00173347
1.24826e-05
-1.03103e-11
0.00117297
7.31737e-05
-5.45684e-11
-0.00208892
0.000807904
-3.36878e-10
-0.00229585
0.0022718
2.51232e-10
-0.00191323
0.00133599
4.51472e-12
-0.00182579
0.00124738
-1.02166e-10
-0.00163281
0.00118062
-3.85646e-11
-0.0013356
0.00106847
1.18249e-10
-0.00106616
0.000951129
1.44219e-11
-0.000850517
0.000911946
-1.53466e-11
-0.000656654
0.000897326
-3.06206e-11
-0.000457211
0.00090925
-3.77941e-11
-0.000269504
0.000905158
-4.35009e-11
-0.000129512
0.000903763
-8.89328e-11
-4.75358e-05
0.000923787
-1.38499e-10
-3.08906e-06
0.000955579
-1.62547e-10
-6.44988e-06
0.000965792
-2.12106e-10
1.01488e-05
0.00100895
-1.43546e-10
0.00104449
-1.66644e-10
0.00202873
-2.75551e-08
-2.55495e-15
0.0020255
4.21291e-08
-1.58422e-13
0.00202119
1.23312e-07
-2.29226e-13
0.00201214
3.65119e-07
-5.21516e-13
0.00198743
1.10338e-06
-1.45983e-12
0.00191677
3.4901e-06
-4.92192e-12
0.00175266
1.32818e-05
-2.06766e-11
0.00124978
7.51284e-05
-1.32394e-10
-0.00155401
0.000774253
-1.00496e-09
-0.00230636
0.00290905
8.39624e-10
-0.00186956
0.00168342
-1.01505e-10
-0.0017746
0.00155294
-6.31803e-11
-0.00160539
0.00148441
8.84527e-11
-0.0013125
0.00134109
-5.93857e-11
-0.00103186
0.00120195
6.13343e-11
-0.000813159
0.00113985
-6.25795e-12
-0.000615837
0.00112036
-1.17876e-11
-0.000414783
0.00113686
-1.61047e-11
-0.000223471
0.00113651
-4.87296e-11
-7.98223e-05
0.00113421
-1.01737e-10
-6.99442e-07
0.00115631
-1.65475e-10
4.72947e-05
0.00120325
-1.57406e-10
3.62025e-05
0.00121722
-2.19087e-10
2.5173e-05
0.00126626
-1.71788e-10
0.00132349
-1.79975e-10
0.00202852
-3.55863e-08
-3.94724e-13
0.00202583
9.37459e-09
-5.18815e-15
0.00202241
9.71028e-08
-1.68683e-14
0.00201471
3.78285e-07
-1.52474e-13
0.00199282
1.17847e-06
-4.48699e-13
0.00193096
3.61028e-06
-1.51875e-12
0.00178028
1.30821e-05
-6.44021e-12
0.00135865
6.89877e-05
-4.50976e-11
-0.00113254
0.000641126
-2.42783e-10
-0.00238984
0.00352868
6.88669e-10
-0.00182614
0.00208827
-7.42295e-11
-0.00171172
0.00185839
-7.84207e-11
-0.00157061
0.00179014
8.7711e-11
-0.00128015
0.00162051
3.23194e-11
-0.000992475
0.00145805
3.9665e-11
-0.000768961
0.0013644
2.86151e-11
-0.000566254
0.00134183
1.33633e-11
-0.000362793
0.00136206
-4.35588e-12
-0.000167164
0.00137178
-3.85669e-11
-1.88023e-05
0.00137087
-1.09051e-10
7.1269e-05
0.00139472
-1.76417e-10
0.000107835
0.00144827
-1.75099e-10
0.000100236
0.00147502
-2.07956e-10
5.00671e-05
0.0015215
-2.18238e-10
0.00161583
-1.89632e-10
0.00202826
-3.50399e-08
-3.42996e-13
0.00202638
-3.48453e-08
7.00157e-14
0.00202414
7.74123e-08
5.45628e-14
0.00201763
4.12429e-07
7.05402e-14
0.00199793
1.22627e-06
4.38041e-13
0.00194337
3.53411e-06
1.5662e-12
0.00180908
1.21297e-05
5.57671e-12
0.00147867
5.92397e-05
2.04329e-11
-0.000319702
0.000479851
1.07324e-10
-0.00270674
0.00384938
-9.23291e-11
-0.0017792
0.00260973
-1.76737e-10
-0.00164019
0.00215893
1.34566e-10
-0.00152746
0.00209594
1.38631e-10
-0.00124365
0.00190932
1.68184e-10
-0.000949344
0.00172364
1.8594e-10
-0.000717733
0.00158426
1.18885e-10
-0.000506783
0.00156308
6.84616e-11
-0.000299695
0.00158355
2.26057e-11
-9.92014e-05
0.00161016
-1.64145e-11
5.85185e-05
0.00162085
-9.24965e-11
0.000161824
0.00163801
-1.72381e-10
0.000187055
0.00169211
-2.12627e-10
0.000175385
0.001731
-2.18454e-10
9.29638e-05
0.00178093
-2.49693e-10
0.00193137
-2.11939e-10
0.00202803
-2.32164e-08
-2.44415e-13
0.00202768
-8.5917e-08
5.11633e-15
0.00202627
1.0602e-07
-1.38034e-14
0.00201925
4.69079e-07
3.71077e-13
0.00200035
1.19846e-06
1.71526e-12
0.0019533
3.26361e-06
4.21411e-12
0.00183657
1.08214e-05
1.09073e-11
0.00156254
4.92001e-05
4.01249e-11
0.000182459
0.000358164
1.93869e-10
-0.00279208
0.00370609
-8.22681e-11
-0.00174419
0.00330145
-3.83453e-10
-0.00156127
0.00246101
3.66112e-10
-0.00147185
0.00240031
2.1616e-10
-0.0012016
0.00220634
4.23725e-13
-0.000901695
0.0019982
1.99022e-10
-0.000658594
0.00180477
1.80997e-10
-0.000435962
0.0017795
1.31264e-10
-0.000226173
0.00180015
3.22943e-11
-2.01375e-05
0.00184753
1.61068e-12
0.000156912
0.00185713
-8.71857e-11
0.000267055
0.00187163
-1.7324e-10
0.000290447
0.00193278
-2.24956e-10
0.000266468
0.00198483
-2.51436e-10
0.000159785
0.00205556
-2.65028e-10
0.00227694
-2.43966e-10
0.00202805
-3.68487e-09
-1.72961e-13
0.00203013
-1.08173e-07
-4.16205e-13
0.00202591
1.57986e-07
3.64378e-13
0.00201787
4.56672e-07
6.84616e-13
0.00200307
1.0776e-06
1.25425e-12
0.00196516
2.88984e-06
2.75734e-12
0.00186482
9.3487e-06
7.79322e-12
0.00164169
3.94431e-05
2.90572e-11
0.000776834
0.000261996
1.34989e-10
-0.00269852
0.00317771
3.49261e-10
-0.00173722
0.00419904
-3.90122e-10
-0.00147631
0.00277218
3.13784e-10
-0.00140131
0.00270259
9.6693e-11
-0.0011553
0.00251305
-4.32898e-11
-0.000851674
0.00228359
1.26351e-10
-0.000592325
0.00203622
2.14556e-10
-0.000356862
0.00198938
1.74559e-10
-0.000140533
0.00201346
7.17957e-11
7.87612e-05
0.00207891
1.88306e-11
0.000265744
0.00208234
-1.03698e-10
0.000389693
0.00209958
-1.57202e-10
0.000424743
0.00216416
-2.18583e-10
0.00038886
0.00222964
-2.62264e-10
0.000267053
0.00232771
-2.82704e-10
0.00270347
-2.7059e-10
0.00202837
5.71947e-14
4.56085e-09
0.00203017
-2.03996e-13
-9.6147e-08
0.00202581
4.87878e-13
1.50537e-07
0.00202027
5.80325e-13
4.10596e-07
0.00200825
8.7631e-13
9.35122e-07
0.00197688
1.8434e-12
2.46316e-06
0.00189
4.72294e-12
7.75208e-06
0.00170526
1.61156e-11
3.08933e-05
0.00111645
7.30468e-11
0.000193035
-0.00205003
3.91642e-10
0.00225273
-0.00173732
-2.45133e-10
0.00525675
-0.00138262
3.07323e-10
0.00311753
-0.00131337
2.01437e-10
0.00299285
-0.00110491
9.70498e-11
0.00282784
-0.00080089
2.50897e-10
0.00257019
-0.000519637
2.61617e-10
0.00228879
-0.00026985
1.80995e-10
0.00219228
-3.98712e-05
9.65454e-11
0.00221902
0.000191587
2.03997e-11
0.00229217
0.000388599
-5.65144e-11
0.00230441
0.000531169
-1.27914e-10
0.00232043
0.000593518
-2.03631e-10
0.00237554
0.000563463
-2.57812e-10
0.00246567
0.000442308
-2.81003e-10
0.00258299
-2.64134e-10
0.0032808
0.00202914
-5.35394e-10
6.43815e-14
0.00202484
2.22897e-08
1.04241e-13
0.00201882
4.65332e-08
1.08176e-13
0.00200661
1.02855e-07
1.34691e-13
0.00197499
2.77942e-07
2.4579e-13
0.00188809
8.97643e-07
6.7543e-13
0.00170101
3.67518e-06
2.88492e-12
0.00105883
2.31146e-05
1.94886e-11
-0.00303082
0.000298141
1.72377e-10
-0.00230075
0.000525607
7.48544e-11
-0.00198673
0.000336007
1.27258e-10
-0.00190956
0.000315212
9.04311e-11
-0.00168168
0.000294011
6.99464e-11
-0.00137853
0.000264902
5.81641e-11
-0.00112824
0.000235013
3.03123e-11
-0.000914052
0.000227182
2.28131e-11
-0.000722254
0.000224164
1.91349e-11
-0.000524643
0.000226111
9.90737e-13
-0.000342244
0.000223984
-2.56986e-11
-0.000206025
0.000223637
-4.98483e-11
-0.000120554
0.00022912
-5.47688e-11
-6.69788e-05
0.000235456
-4.25776e-11
-4.90784e-05
0.000239283
-4.24796e-11
-2.01149e-05
0.000250009
-1.1464e-10
0.000257032
-1.12908e-10
0.00202911
-3.51019e-09
5.31303e-14
0.0020249
4.51215e-08
1.02484e-13
0.00201903
9.46407e-08
1.09538e-13
0.00200712
2.13957e-07
1.22485e-13
0.00197612
5.86458e-07
2.15119e-13
0.00189042
1.89703e-06
5.61029e-13
0.00170583
7.68453e-06
2.33325e-12
0.00108113
4.68999e-05
1.62427e-11
-0.00289515
0.000566856
1.53689e-10
-0.00231128
0.00106572
1.58716e-10
-0.00197663
0.000656777
1.06329e-10
-0.00189613
0.000627758
8.62439e-11
-0.00167446
0.000589354
6.94172e-11
-0.00137112
0.000531025
5.33288e-11
-0.00111618
0.000470248
2.01171e-11
-0.000901646
0.00045507
1.30285e-11
-0.00070996
0.000448846
9.22682e-12
-0.000511827
0.000452973
-8.33207e-12
-0.000328066
0.000448922
-2.819e-11
-0.000191675
0.00044864
-4.89342e-11
-0.000107674
0.000459632
-5.36565e-11
-5.66987e-05
0.000472331
-4.38653e-11
-4.23215e-05
0.000479712
-4.027e-11
-1.53641e-05
0.00050058
-1.06656e-10
0.000515092
-9.0394e-11
0.00202903
-9.47828e-09
3.89546e-14
0.00202505
5.67681e-08
1.01947e-13
0.00201952
1.24017e-07
1.12938e-13
0.00200829
2.93314e-07
1.52203e-13
0.00197876
8.24481e-07
3.15263e-13
0.00189608
2.66561e-06
9.14304e-13
0.00171712
1.06531e-05
3.76066e-12
0.00112411
6.41167e-05
2.32397e-11
-0.00256213
0.000746127
1.9651e-10
-0.00229781
0.0016459
1.33532e-10
-0.00195324
0.000992414
8.72923e-11
-0.00186919
0.000938351
5.77442e-11
-0.00165803
0.000882852
4.89997e-11
-0.0013568
0.000798528
4.19493e-11
-0.00109599
0.000708659
8.09494e-12
-0.000880855
0.000683232
-8.15964e-14
-0.000688397
0.000673219
-3.43209e-12
-0.000489873
0.000680875
-2.0706e-11
-0.00030466
0.000675673
-3.08376e-11
-0.000166897
0.000675077
-4.0608e-11
-8.39485e-05
0.000691059
-3.12399e-11
-3.68788e-05
0.000711289
-2.8185e-11
-2.90556e-05
0.000721824
-3.40852e-11
-5.71184e-06
0.000753319
-9.32944e-11
0.000776441
-7.90814e-11