/*--------------------------------*- C++ -*----------------------------------*\
| =========                 |                                                 |
| \\      /  F ield         | OpenFOAM: The Open Source CFD Toolbox           |
|  \\    /   O peration     | Version:  4.1                                   |
|   \\  /    A nd           | Web:      www.OpenFOAM.org                      |
|    \\/     M anipulation  |                                                 |
\*---------------------------------------------------------------------------*/
FoamFile
{
    version     2.0;
    format      ascii;
    class       volScalarField;
    location    "0.46";
    object      T;
}
// * * * * * * * * * * * * * * * * * * * * * * * * * * * * * * * * * * * * * //

dimensions      [0 0 0 1 0 0 0];

internalField   nonuniform List<scalar> 
52500
(
0.335815
0.316952
0.317509
0.319441
0.325446
0.345763
0.433586
0.831465
1.68987
1.73555
1.42429
1.2908
1.25942
1.27736
1.35264
1.36247
1.33337
1.28386
1.2708
1.26246
1.23479
1.20265
1.17138
1.12389
1.06562
0.335805
0.31693
0.317479
0.319366
0.325231
0.345019
0.430169
0.819635
1.67624
1.7446
1.42659
1.2914
1.25885
1.27439
1.351
1.36262
1.3347
1.28425
1.27065
1.2627
1.23512
1.20295
1.17151
1.12377
1.06441
0.335791
0.316885
0.317414
0.319204
0.324761
0.343389
0.422664
0.792734
1.63681
1.76156
1.4346
1.29276
1.25674
1.26824
1.34675
1.36239
1.33654
1.28512
1.27057
1.26352
1.2364
1.20417
1.17243
1.12437
1.06393
0.335776
0.316827
0.317323
0.318974
0.324101
0.341102
0.412067
0.752237
1.56984
1.78437
1.44583
1.29546
1.25433
1.26102
1.34067
1.36128
1.33835
1.28607
1.27017
1.26421
1.23768
1.2052
1.17421
1.12491
1.06303
0.335771
0.316766
0.317215
0.318696
0.323317
0.338406
0.399646
0.700531
1.47762
1.80846
1.46139
1.29882
1.24899
1.24945
1.32837
1.358
1.33948
1.28719
1.26936
1.2642
1.23948
1.20605
1.17594
1.12488
1.05936
0.335784
0.316707
0.317092
0.318393
0.322488
0.335547
0.386294
0.637046
1.35518
1.83026
1.48539
1.30485
1.243
1.23866
1.31182
1.35331
1.33981
1.28859
1.26752
1.26314
1.24052
1.2073
1.17706
1.12527
1.0574
0.335827
0.316659
0.316962
0.318104
0.32169
0.332748
0.373657
0.572041
1.2044
1.84176
1.52168
1.31467
1.23703
1.22756
1.28883
1.34591
1.33901
1.29127
1.26385
1.25985
1.23914
1.20777
1.17674
1.12853
1.05089
0.335901
0.316622
0.31685
0.317887
0.320944
0.330016
0.362239
0.515049
1.0751
1.8184
1.57435
1.32847
1.23204
1.21594
1.26348
1.33656
1.33682
1.29712
1.25926
1.25433
1.23718
1.20805
1.17485
1.12857
1.04567
0.335989
0.316585
0.316799
0.317685
0.320124
0.327412
0.352453
0.466142
0.942763
1.75504
1.63308
1.34835
1.22908
1.20369
1.23408
1.32208
1.33224
1.30334
1.2545
1.24694
1.2346
1.20786
1.17412
1.12777
1.02756
0.336027
0.316595
0.316739
0.317406
0.319361
0.325123
0.344214
0.426892
0.812459
1.62596
1.70136
1.37793
1.22962
1.19138
1.20387
1.30018
1.32696
1.30762
1.25093
1.24013
1.23006
1.20824
1.16957
1.12101
1.00442
0.335816
0.316953
0.317512
0.319445
0.325456
0.345798
0.433741
0.831994
1.6906
1.7352
1.42426
1.29085
1.25946
1.27739
1.35265
1.36247
1.33337
1.28385
1.2708
1.26244
1.23475
1.2026
1.17132
1.12385
1.06564
0.335807
0.316932
0.317481
0.31937
0.325239
0.345044
0.430277
0.819995
1.67646
1.74469
1.42696
1.29156
1.25883
1.2742
1.35093
1.36265
1.33472
1.28424
1.27064
1.26268
1.23508
1.2029
1.17146
1.12373
1.06441
0.335792
0.316887
0.317416
0.319208
0.324772
0.343421
0.422807
0.793249
1.63772
1.76103
1.43437
1.29283
1.257
1.26873
1.34702
1.3624
1.33649
1.2851
1.27056
1.26351
1.23637
1.20413
1.17239
1.12433
1.06393
0.335778
0.316829
0.317325
0.318978
0.324109
0.341127
0.412177
0.752676
1.57048
1.78385
1.44568
1.29541
1.25432
1.26107
1.34073
1.36128
1.3383
1.28606
1.27016
1.26419
1.23765
1.20517
1.17417
1.12488
1.06304
0.335772
0.316767
0.317216
0.318699
0.323324
0.338427
0.399744
0.700984
1.47854
1.80802
1.46103
1.29882
1.24929
1.24987
1.32863
1.35798
1.33943
1.28718
1.26935
1.26419
1.23946
1.206
1.17588
1.12485
1.05941
0.335785
0.316708
0.317093
0.318395
0.322492
0.335562
0.386359
0.637375
1.35548
1.8301
1.48512
1.30499
1.2436
1.2394
1.31253
1.3535
1.33977
1.28847
1.2675
1.26313
1.24049
1.20724
1.17698
1.12525
1.05748
0.335829
0.31666
0.316963
0.318106
0.321693
0.332756
0.373694
0.572235
1.20495
1.84225
1.52034
1.31477
1.23728
1.22778
1.289
1.34599
1.33899
1.29117
1.26384
1.25984
1.23911
1.20772
1.17667
1.12851
1.051
0.335903
0.316623
0.316851
0.317888
0.320945
0.330019
0.362252
0.515119
1.07531
1.81871
1.57423
1.32849
1.23192
1.21566
1.26303
1.33632
1.33672
1.29714
1.25924
1.2543
1.23714
1.20797
1.17478
1.12855
1.04579
0.33599
0.316586
0.3168
0.317685
0.320125
0.327413
0.352458
0.466169
0.942859
1.75508
1.63307
1.3483
1.22887
1.20339
1.23371
1.32194
1.33219
1.30336
1.25448
1.24695
1.23456
1.20779
1.17404
1.12774
1.0277
0.336029
0.316596
0.31674
0.317407
0.319361
0.325123
0.344216
0.426905
0.812524
1.62605
1.70143
1.37793
1.22943
1.19112
1.20351
1.29995
1.32692
1.30763
1.25091
1.24013
1.23004
1.2082
1.1695
1.12098
1.00456
0.335816
0.316953
0.317511
0.319443
0.325452
0.345783
0.433674
0.831758
1.69022
1.73525
1.42421
1.29087
1.25956
1.27755
1.35271
1.36247
1.33332
1.28384
1.27079
1.26243
1.23476
1.20261
1.17134
1.12386
1.06565
0.335807
0.316931
0.317481
0.319369
0.325236
0.345035
0.430237
0.819865
1.67645
1.74446
1.42663
1.2915
1.25896
1.2745
1.35104
1.36262
1.33467
1.28423
1.27063
1.26268
1.2351
1.20292
1.17148
1.12374
1.06442
0.335792
0.316886
0.317415
0.319206
0.324766
0.343403
0.422724
0.792947
1.6371
1.7614
1.43459
1.2928
1.25678
1.26832
1.34681
1.36239
1.33651
1.2851
1.27055
1.26351
1.23639
1.20415
1.1724
1.12435
1.06394
0.335777
0.316828
0.317324
0.318976
0.324105
0.341113
0.412115
0.752425
1.57013
1.78426
1.44585
1.29548
1.25433
1.26105
1.34071
1.36128
1.33832
1.28604
1.27015
1.2642
1.23767
1.20519
1.17419
1.12489
1.06305
0.335772
0.316767
0.317216
0.318697
0.32332
0.338415
0.399686
0.70071
1.47796
1.80837
1.46137
1.29876
1.24886
1.24925
1.32817
1.35794
1.33947
1.28719
1.26934
1.26419
1.23947
1.20602
1.1759
1.12487
1.05942
0.335785
0.316708
0.317093
0.318394
0.32249
0.335555
0.386327
0.637212
1.35535
1.83028
1.48531
1.30482
1.24311
1.23883
1.31207
1.35341
1.3398
1.28852
1.26749
1.26312
1.2405
1.20726
1.177
1.12526
1.05748
0.335829
0.31666
0.316963
0.318105
0.321692
0.332753
0.373681
0.572177
1.20485
1.84237
1.52038
1.31466
1.23715
1.22769
1.28896
1.34597
1.33901
1.29121
1.26384
1.25984
1.23912
1.20774
1.17668
1.12852
1.05101
0.335903
0.316623
0.316851
0.317888
0.320946
0.330019
0.362251
0.515114
1.07529
1.81876
1.57421
1.32848
1.23203
1.2159
1.26341
1.33651
1.33679
1.29712
1.25924
1.2543
1.23715
1.20798
1.17479
1.12856
1.0458
0.33599
0.316586
0.3168
0.317685
0.320125
0.327414
0.352459
0.466176
0.942877
1.75512
1.63304
1.34833
1.22904
1.20365
1.23408
1.32205
1.33218
1.30333
1.25448
1.24695
1.23456
1.2078
1.17405
1.12775
1.02771
0.336029
0.316596
0.316741
0.317407
0.319361
0.325124
0.344219
0.426913
0.812548
1.62608
1.70137
1.37793
1.22957
1.19133
1.20385
1.30025
1.32701
1.3076
1.2509
1.24013
1.23004
1.20821
1.16951
1.12099
1.00456
0.335816
0.316953
0.317511
0.319443
0.325452
0.345785
0.433684
0.831792
1.69027
1.73523
1.42421
1.29087
1.25956
1.27756
1.35273
1.36248
1.33332
1.28384
1.27079
1.26244
1.23477
1.20263
1.17135
1.12387
1.06566
0.335806
0.316931
0.317481
0.319368
0.325236
0.345036
0.430243
0.819888
1.67646
1.74446
1.42666
1.29151
1.25895
1.27449
1.35105
1.36263
1.33467
1.28423
1.27063
1.26269
1.23511
1.20293
1.17149
1.12376
1.06443
0.335792
0.316887
0.317415
0.319206
0.324766
0.343404
0.422731
0.79297
1.63713
1.76139
1.43462
1.29284
1.25682
1.26838
1.34684
1.3624
1.3365
1.2851
1.27055
1.26352
1.2364
1.20416
1.17242
1.12436
1.06395
0.335777
0.316828
0.317324
0.318976
0.324105
0.341114
0.412121
0.752449
1.57014
1.78419
1.44579
1.2954
1.25424
1.26092
1.34065
1.36128
1.33832
1.28606
1.27015
1.2642
1.23768
1.2052
1.1742
1.12491
1.06307
0.335772
0.316767
0.317216
0.318698
0.323321
0.338418
0.399701
0.700783
1.47816
1.80826
1.46121
1.29878
1.24907
1.24958
1.32841
1.35797
1.33946
1.28717
1.26934
1.2642
1.23949
1.20603
1.17591
1.12488
1.05944
0.335785
0.316709
0.317093
0.318394
0.32249
0.335556
0.386331
0.637238
1.35537
1.83023
1.48531
1.30493
1.24332
1.23906
1.31227
1.35348
1.33979
1.28849
1.2675
1.26313
1.24051
1.20727
1.17702
1.12528
1.0575
0.335829
0.31666
0.316963
0.318105
0.321692
0.332752
0.373678
0.572164
1.20482
1.84235
1.52048
1.3147
1.23705
1.22751
1.28877
1.34594
1.33901
1.29121
1.26383
1.25985
1.23913
1.20775
1.1767
1.12855
1.05103
0.335903
0.316623
0.31685
0.317888
0.320945
0.330017
0.362245
0.515093
1.07526
1.81878
1.57432
1.32847
1.23183
1.21559
1.26295
1.33633
1.33674
1.29716
1.25923
1.2543
1.23716
1.208
1.17481
1.12858
1.04582
0.335991
0.316586
0.3168
0.317685
0.320124
0.327413
0.352456
0.466162
0.942848
1.75515
1.63316
1.34834
1.2289
1.20345
1.2338
1.32201
1.33222
1.30336
1.25448
1.24695
1.23457
1.20782
1.17407
1.12777
1.02773
0.336029
0.316596
0.316741
0.317406
0.319361
0.325123
0.344216
0.426905
0.812526
1.62609
1.70147
1.37797
1.22949
1.19121
1.20366
1.3001
1.32697
1.30763
1.2509
1.24013
1.23005
1.20822
1.16954
1.12102
1.00459
0.335816
0.316953
0.317511
0.319443
0.325452
0.345784
0.433682
0.831783
1.69025
1.73524
1.42423
1.29087
1.25956
1.27753
1.3527
1.36246
1.33332
1.28384
1.27079
1.26244
1.23477
1.20263
1.17136
1.12388
1.06567
0.335806
0.316931
0.317481
0.319368
0.325236
0.345036
0.430241
0.819881
1.67645
1.74447
1.42667
1.29152
1.25896
1.27448
1.35102
1.36261
1.33467
1.28424
1.27063
1.26268
1.2351
1.20293
1.17149
1.12376
1.06445
0.335792
0.316886
0.317415
0.319206
0.324766
0.343403
0.422728
0.79296
1.63711
1.7614
1.43463
1.29285
1.25683
1.26836
1.34681
1.36238
1.3365
1.2851
1.27055
1.26351
1.23639
1.20416
1.17242
1.12437
1.06396
0.335777
0.316828
0.317324
0.318976
0.324105
0.341114
0.412118
0.752434
1.57011
1.7842
1.4458
1.2954
1.25424
1.26092
1.34064
1.36127
1.33832
1.28605
1.27015
1.2642
1.23767
1.20519
1.17421
1.12491
1.06308
0.335772
0.316767
0.317216
0.318697
0.32332
0.338417
0.399696
0.700758
1.4781
1.80827
1.46123
1.29878
1.24908
1.24958
1.32841
1.35797
1.33944
1.28717
1.26934
1.2642
1.23949
1.20604
1.17594
1.12489
1.05939
0.335785
0.316709
0.317093
0.318394
0.32249
0.335555
0.386326
0.637207
1.35533
1.83021
1.4853
1.30494
1.24331
1.23905
1.31225
1.35346
1.33978
1.28849
1.2675
1.26314
1.24054
1.20731
1.17707
1.12528
1.05741
0.335829
0.31666
0.316963
0.318105
0.321692
0.332751
0.37367
0.572108
1.20455
1.84174
1.52175
1.31475
1.23705
1.22751
1.28876
1.34593
1.339
1.2912
1.26384
1.25986
1.23917
1.20783
1.17677
1.12855
1.05089
0.335903
0.316623
0.31685
0.317888
0.320945
0.330016
0.362241
0.515069
1.07517
1.81847
1.57447
1.3285
1.23184
1.21559
1.26293
1.3363
1.33671
1.29715
1.25924
1.25432
1.23721
1.20808
1.1749
1.12861
1.04568
0.335991
0.316586
0.3168
0.317685
0.320124
0.327412
0.352452
0.466148
0.942806
1.75514
1.6332
1.34836
1.2289
1.20344
1.23377
1.32199
1.33221
1.30335
1.25448
1.24696
1.23461
1.20789
1.17416
1.12782
1.0276
0.336029
0.316596
0.31674
0.317406
0.319361
0.325122
0.344213
0.426893
0.812487
1.62607
1.70151
1.37799
1.2295
1.19121
1.20363
1.30003
1.32693
1.30762
1.2509
1.24013
1.23007
1.20827
1.16961
1.12108
1.00447
0.335816
0.316953
0.317511
0.319443
0.325453
0.345786
0.433687
0.8318
1.69027
1.73521
1.4242
1.29086
1.25956
1.27756
1.35273
1.36247
1.33332
1.28384
1.27079
1.26244
1.23477
1.20263
1.17136
1.12388
1.06567
0.335806
0.316931
0.317481
0.319369
0.325236
0.345036
0.430245
0.819893
1.67646
1.74445
1.42665
1.29151
1.25895
1.27449
1.35105
1.36263
1.33467
1.28423
1.27063
1.26269
1.23511
1.20293
1.1715
1.12376
1.06444
0.335792
0.316887
0.317415
0.319206
0.324766
0.343404
0.422732
0.792971
1.63712
1.76138
1.43461
1.29284
1.25682
1.26837
1.34684
1.3624
1.3365
1.2851
1.27055
1.26352
1.2364
1.20417
1.17242
1.12436
1.06396
0.335777
0.316828
0.317324
0.318976
0.324105
0.341114
0.412121
0.752446
1.57013
1.78418
1.44579
1.2954
1.25424
1.26092
1.34065
1.36128
1.33832
1.28606
1.27015
1.2642
1.23768
1.2052
1.17421
1.12491
1.06307
0.335772
0.316767
0.317216
0.318698
0.323321
0.338417
0.399699
0.700772
1.47813
1.80826
1.46121
1.29878
1.24907
1.24958
1.32841
1.35797
1.33946
1.28717
1.26934
1.26419
1.23949
1.20603
1.17591
1.12489
1.05944
0.335785
0.316709
0.317093
0.318394
0.32249
0.335555
0.386328
0.637219
1.35534
1.8302
1.48528
1.30493
1.24331
1.23906
1.31226
1.35347
1.33979
1.28849
1.2675
1.26313
1.24051
1.20727
1.17702
1.12529
1.0575
0.335829
0.31666
0.316963
0.318105
0.321692
0.332751
0.373672
0.572116
1.20456
1.84173
1.52174
1.31474
1.23704
1.2275
1.28876
1.34594
1.33901
1.29121
1.26383
1.25984
1.23913
1.20775
1.1767
1.12855
1.05103
0.335903
0.316623
0.31685
0.317888
0.320945
0.330016
0.362242
0.515073
1.07518
1.81847
1.57446
1.32848
1.23182
1.21558
1.26294
1.33633
1.33674
1.29716
1.25923
1.2543
1.23716
1.20799
1.1748
1.12858
1.04582
0.33599
0.316586
0.3168
0.317685
0.320124
0.327412
0.352453
0.466151
0.942815
1.75514
1.63318
1.34834
1.22888
1.20343
1.23377
1.32201
1.33223
1.30336
1.25448
1.24695
1.23457
1.20781
1.17407
1.12777
1.02773
0.336029
0.316596
0.31674
0.317406
0.319361
0.325123
0.344214
0.426896
0.812494
1.62608
1.7015
1.37797
1.22948
1.1912
1.20364
1.30007
1.32696
1.30763
1.2509
1.24013
1.23005
1.20821
1.16953
1.12101
1.00458
0.335816
0.316953
0.317511
0.319443
0.325452
0.345785
0.433684
0.831791
1.69026
1.73523
1.42421
1.29087
1.25956
1.27756
1.35273
1.36248
1.33332
1.28384
1.27079
1.26244
1.23477
1.20263
1.17135
1.12387
1.06566
0.335806
0.316931
0.317481
0.319368
0.325236
0.345036
0.430243
0.819888
1.67646
1.74446
1.42666
1.29151
1.25895
1.27449
1.35105
1.36263
1.33467
1.28423
1.27063
1.26269
1.23511
1.20293
1.17149
1.12376
1.06443
0.335792
0.316887
0.317415
0.319206
0.324766
0.343404
0.422731
0.79297
1.63713
1.76139
1.43462
1.29284
1.25682
1.26838
1.34684
1.3624
1.3365
1.2851
1.27055
1.26352
1.2364
1.20416
1.17242
1.12436
1.06395
0.335777
0.316828
0.317324
0.318976
0.324105
0.341114
0.412121
0.752449
1.57014
1.78419
1.44579
1.2954
1.25424
1.26092
1.34065
1.36128
1.33832
1.28606
1.27015
1.2642
1.23768
1.2052
1.1742
1.12491
1.06306
0.335772
0.316767
0.317216
0.318698
0.323321
0.338418
0.399701
0.700783
1.47816
1.80826
1.46121
1.29878
1.24907
1.24958
1.32841
1.35797
1.33946
1.28717
1.26934
1.2642
1.23949
1.20603
1.17591
1.12488
1.05944
0.335785
0.316709
0.317093
0.318394
0.32249
0.335556
0.386331
0.637238
1.35537
1.83023
1.48531
1.30493
1.24332
1.23906
1.31227
1.35348
1.33979
1.28849
1.2675
1.26313
1.24051
1.20727
1.17702
1.12528
1.0575
0.335829
0.31666
0.316963
0.318105
0.321692
0.332752
0.373678
0.572164
1.20482
1.84235
1.52048
1.3147
1.23705
1.22751
1.28877
1.34594
1.33901
1.29121
1.26383
1.25985
1.23913
1.20775
1.1767
1.12855
1.05103
0.335903
0.316623
0.31685
0.317888
0.320945
0.330017
0.362245
0.515093
1.07526
1.81878
1.57432
1.32847
1.23183
1.21559
1.26295
1.33633
1.33674
1.29716
1.25923
1.2543
1.23716
1.208
1.17481
1.12858
1.04582
0.335991
0.316586
0.3168
0.317685
0.320124
0.327413
0.352456
0.466162
0.942848
1.75515
1.63316
1.34834
1.2289
1.20345
1.2338
1.32201
1.33222
1.30336
1.25448
1.24695
1.23457
1.20782
1.17407
1.12777
1.02773
0.336029
0.316596
0.316741
0.317406
0.319361
0.325123
0.344216
0.426905
0.812526
1.62609
1.70147
1.37797
1.22949
1.19121
1.20366
1.3001
1.32697
1.30763
1.2509
1.24013
1.23005
1.20822
1.16954
1.12102
1.00459
0.335816
0.316953
0.317511
0.319443
0.325452
0.345783
0.433674
0.831758
1.69022
1.73525
1.42421
1.29087
1.25956
1.27755
1.35271
1.36247
1.33332
1.28384
1.27079
1.26243
1.23476
1.20261
1.17134
1.12386
1.06565
0.335807
0.316931
0.317481
0.319369
0.325236
0.345035
0.430237
0.819865
1.67645
1.74446
1.42663
1.2915
1.25896
1.2745
1.35104
1.36262
1.33467
1.28423
1.27063
1.26268
1.2351
1.20292
1.17148
1.12374
1.06442
0.335792
0.316886
0.317415
0.319206
0.324766
0.343403
0.422724
0.792947
1.6371
1.7614
1.43459
1.2928
1.25678
1.26832
1.34681
1.36239
1.33651
1.2851
1.27055
1.26351
1.23639
1.20415
1.1724
1.12435
1.06394
0.335777
0.316828
0.317324
0.318976
0.324105
0.341113
0.412115
0.752425
1.57013
1.78426
1.44585
1.29548
1.25433
1.26105
1.34071
1.36128
1.33832
1.28604
1.27015
1.2642
1.23767
1.20519
1.17419
1.12489
1.06305
0.335772
0.316767
0.317216
0.318697
0.32332
0.338415
0.399686
0.70071
1.47796
1.80837
1.46137
1.29876
1.24886
1.24925
1.32817
1.35794
1.33947
1.28719
1.26934
1.26419
1.23947
1.20602
1.1759
1.12487
1.05942
0.335785
0.316708
0.317093
0.318394
0.32249
0.335555
0.386327
0.637212
1.35535
1.83028
1.48531
1.30482
1.24311
1.23883
1.31207
1.35341
1.3398
1.28852
1.26749
1.26312
1.2405
1.20726
1.177
1.12526
1.05748
0.335829
0.31666
0.316963
0.318105
0.321692
0.332753
0.373681
0.572177
1.20485
1.84237
1.52038
1.31466
1.23715
1.22769
1.28896
1.34597
1.33901
1.29121
1.26384
1.25984
1.23912
1.20774
1.17668
1.12852
1.05101
0.335903
0.316623
0.316851
0.317888
0.320946
0.330019
0.362251
0.515114
1.07529
1.81876
1.57421
1.32848
1.23203
1.2159
1.26341
1.33651
1.33679
1.29712
1.25924
1.2543
1.23715
1.20798
1.17479
1.12856
1.0458
0.33599
0.316586
0.3168
0.317685
0.320125
0.327414
0.352459
0.466176
0.942877
1.75512
1.63304
1.34833
1.22904
1.20365
1.23408
1.32205
1.33218
1.30333
1.25448
1.24695
1.23456
1.2078
1.17405
1.12775
1.02771
0.336029
0.316596
0.316741
0.317407
0.319361
0.325124
0.344219
0.426913
0.812548
1.62608
1.70137
1.37793
1.22957
1.19133
1.20385
1.30025
1.32701
1.3076
1.2509
1.24013
1.23004
1.20821
1.16951
1.12099
1.00456
0.335816
0.316953
0.317512
0.319445
0.325456
0.345798
0.433741
0.831993
1.6906
1.7352
1.42426
1.29085
1.25946
1.27739
1.35265
1.36247
1.33337
1.28385
1.2708
1.26243
1.23475
1.2026
1.17132
1.12385
1.06564
0.335807
0.316932
0.317481
0.31937
0.325239
0.345044
0.430277
0.819994
1.67645
1.74469
1.42696
1.29156
1.25883
1.2742
1.35093
1.36265
1.33472
1.28424
1.27064
1.26268
1.23508
1.2029
1.17146
1.12373
1.06441
0.335792
0.316887
0.317416
0.319208
0.324772
0.343421
0.422807
0.793249
1.63772
1.76103
1.43437
1.29283
1.257
1.26873
1.34702
1.3624
1.33649
1.2851
1.27056
1.26351
1.23637
1.20413
1.17239
1.12433
1.06393
0.335778
0.316829
0.317325
0.318978
0.324109
0.341127
0.412177
0.752675
1.57048
1.78385
1.44568
1.29541
1.25432
1.26107
1.34073
1.36128
1.3383
1.28606
1.27016
1.26419
1.23765
1.20517
1.17417
1.12488
1.06304
0.335772
0.316767
0.317216
0.318699
0.323324
0.338427
0.399744
0.700983
1.47854
1.80802
1.46103
1.29882
1.24929
1.24987
1.32863
1.35798
1.33943
1.28718
1.26935
1.26419
1.23946
1.206
1.17588
1.12485
1.05941
0.335785
0.316708
0.317093
0.318395
0.322492
0.335562
0.386359
0.637375
1.35548
1.8301
1.48512
1.30499
1.2436
1.2394
1.31253
1.3535
1.33977
1.28847
1.2675
1.26313
1.24049
1.20724
1.17698
1.12525
1.05748
0.335829
0.31666
0.316963
0.318106
0.321693
0.332756
0.373694
0.572235
1.20495
1.84225
1.52034
1.31477
1.23728
1.22778
1.289
1.34599
1.33899
1.29117
1.26384
1.25984
1.23911
1.20772
1.17667
1.12851
1.051
0.335903
0.316623
0.316851
0.317888
0.320945
0.330019
0.362252
0.515119
1.07531
1.81871
1.57423
1.32849
1.23192
1.21566
1.26303
1.33632
1.33672
1.29714
1.25924
1.2543
1.23714
1.20797
1.17477
1.12855
1.04579
0.33599
0.316586
0.3168
0.317685
0.320125
0.327413
0.352458
0.46617
0.94286
1.75508
1.63307
1.3483
1.22887
1.20339
1.23371
1.32194
1.33219
1.30336
1.25448
1.24695
1.23456
1.20779
1.17404
1.12774
1.0277
0.336029
0.316596
0.31674
0.317407
0.319361
0.325123
0.344216
0.426906
0.812524
1.62605
1.70143
1.37793
1.22943
1.19112
1.20351
1.29995
1.32692
1.30763
1.25091
1.24013
1.23004
1.2082
1.1695
1.12098
1.00456
0.335815
0.316952
0.31751
0.319441
0.325446
0.345764
0.433591
0.831487
1.68995
1.73545
1.42419
1.29079
1.25947
1.27745
1.35268
1.36246
1.33333
1.28385
1.27083
1.26248
1.23483
1.20271
1.17144
1.12387
1.06546
0.335805
0.31693
0.317479
0.319366
0.32523
0.345016
0.430151
0.819567
1.67612
1.74478
1.42679
1.29154
1.25893
1.2744
1.35098
1.36262
1.3347
1.28425
1.27066
1.26272
1.23515
1.203
1.17156
1.12374
1.06426
0.335791
0.316885
0.317414
0.319204
0.32476
0.343382
0.422628
0.792581
1.63642
1.76182
1.43491
1.29279
1.25656
1.26796
1.34663
1.36238
1.33654
1.28512
1.27057
1.26353
1.23642
1.2042
1.17247
1.12435
1.0638
0.335776
0.316827
0.317323
0.318975
0.324102
0.341103
0.412069
0.752238
1.56987
1.78428
1.4456
1.29526
1.25419
1.26089
1.34058
1.36126
1.33835
1.28608
1.27016
1.26419
1.23766
1.20519
1.17421
1.1249
1.06297
0.335771
0.316766
0.317215
0.318697
0.323319
0.338412
0.399674
0.70067
1.47802
1.80826
1.46106
1.29891
1.24952
1.25016
1.32883
1.35802
1.33943
1.28715
1.26934
1.26418
1.23945
1.20602
1.17591
1.12487
1.05937
0.335784
0.316707
0.317092
0.318393
0.322488
0.335551
0.386309
0.637124
1.35523
1.83014
1.48532
1.30509
1.24353
1.23928
1.31244
1.35353
1.33979
1.28846
1.2675
1.26312
1.24049
1.20727
1.17703
1.12527
1.05741
0.335827
0.316659
0.316962
0.318104
0.32169
0.332748
0.373658
0.572047
1.2044
1.84168
1.52184
1.31479
1.2369
1.22722
1.28828
1.34572
1.33896
1.29126
1.26384
1.25983
1.23912
1.20775
1.17672
1.12853
1.0509
0.335901
0.316622
0.316849
0.317887
0.320944
0.330016
0.362239
0.515054
1.07513
1.81844
1.57446
1.32841
1.23169
1.21542
1.26272
1.33623
1.33669
1.29719
1.25925
1.25431
1.23716
1.20803
1.17484
1.12857
1.04568
0.335989
0.316585
0.316799
0.317684
0.320124
0.327413
0.352456
0.466161
0.942835
1.75516
1.63312
1.34828
1.22888
1.20347
1.23377
1.32192
1.33219
1.30339
1.2545
1.24693
1.23458
1.20785
1.17411
1.12777
1.02757
0.336027
0.316595
0.316739
0.317406
0.319362
0.325125
0.34422
0.426919
0.812556
1.62616
1.70141
1.37789
1.22955
1.1914
1.20391
1.30031
1.32705
1.30765
1.25092
1.24013
1.23005
1.20824
1.16957
1.12102
1.00443
0.336042
0.316641
0.316647
0.317144
0.318694
0.32317
0.337377
0.394858
0.682268
1.41752
1.76304
1.42315
1.2366
1.17864
1.17689
1.26446
1.31967
1.30911
1.25138
1.23104
1.22275
1.20627
1.16647
1.11768
0.948672
0.336051
0.316707
0.316519
0.316928
0.31815
0.321588
0.332059
0.371081
0.562663
1.18258
1.79839
1.49077
1.25469
1.16818
1.15475
1.21601
1.30537
1.30831
1.25835
1.224
1.21668
1.20147
1.15999
1.11828
0.958245
0.336054
0.316759
0.316413
0.316751
0.317708
0.320321
0.327997
0.354639
0.478298
0.984448
1.77439
1.5797
1.28636
1.16358
1.13641
1.16769
1.27244
1.30155
1.27196
1.22462
1.20503
1.1935
1.15558
1.12136
0.990591
0.336054
0.316797
0.316326
0.316613
0.317361
0.319319
0.324892
0.34317
0.421912
0.7959
1.57722
1.65975
1.33685
1.16714
1.12238
1.12903
1.21168
1.29054
1.27598
1.22844
1.19795
1.18566
1.15263
1.12528
1.03727
0.336052
0.316824
0.316259
0.316512
0.317098
0.31856
0.322594
0.335097
0.384011
0.629818
1.29447
1.7204
1.41354
1.18552
1.11136
1.10121
1.14601
1.26941
1.27467
1.24083
1.19858
1.18445
1.14592
1.12604
1.07715
0.33605
0.31684
0.316212
0.316442
0.316906
0.317999
0.32092
0.329524
0.359998
0.506617
1.05928
1.75096
1.52468
1.22889
1.10883
1.08129
1.09679
1.21774
1.26822
1.25002
1.20227
1.18621
1.14672
1.12293
1.10102
0.33605
0.31685
0.316181
0.316401
0.316761
0.317591
0.319715
0.325622
0.344748
0.42869
0.837876
1.68769
1.61358
1.2948
1.11585
1.06989
1.06405
1.14346
1.25274
1.24813
1.21507
1.19401
1.15092
1.12142
1.10487
0.336049
0.316854
0.316163
0.316376
0.316663
0.317299
0.318863
0.322981
0.33527
0.382423
0.620984
1.29258
1.66805
1.38224
1.14563
1.07019
1.05028
1.08487
1.21031
1.23785
1.22504
1.2102
1.1636
1.12261
1.10359
0.336049
0.316855
0.316156
0.316363
0.316606
0.31709
0.318263
0.321193
0.329234
0.356654
0.486965
1.00049
1.70395
1.50052
1.20034
1.07601
1.05076
1.04722
1.12797
1.21677
1.2238
1.21932
1.1925
1.13191
1.1051
0.336049
0.316855
0.316155
0.316355
0.316591
0.316961
0.317885
0.320006
0.325247
0.341301
0.407998
0.753192
1.60954
1.58224
1.2832
1.09732
1.05694
1.033
1.07153
1.18994
1.21911
1.21897
1.20989
1.16029
1.11416
0.336049
0.316855
0.316156
0.316353
0.316593
0.316895
0.317703
0.319233
0.32274
0.332393
0.366357
0.535097
1.12548
1.62601
1.40072
1.15904
1.07686
1.03363
1.04495
1.12332
1.20109
1.21533
1.21275
1.19327
1.14014
0.336049
0.316855
0.316155
0.316349
0.316597
0.316881
0.317627
0.318749
0.321167
0.327251
0.345866
0.421089
0.778936
1.57909
1.47082
1.24714
1.10934
1.04245
1.02069
1.05363
1.1594
1.20226
1.2099
1.20496
1.18228
0.336049
0.316856
0.316154
0.316344
0.316597
0.31688
0.317599
0.318683
0.320203
0.32434
0.335249
0.369825
0.53807
1.11878
1.50414
1.32376
1.14866
1.06717
1.01895
1.02039
1.06701
1.16857
1.20077
1.20377
1.19829
0.336049
0.316856
0.316154
0.316344
0.316597
0.316881
0.317584
0.318727
0.319816
0.322971
0.329964
0.347434
0.41024
0.702183
1.39313
1.36022
1.19322
1.08892
1.02905
0.99684
1.0142
1.08601
1.17312
1.19746
1.19762
0.336049
0.316856
0.316154
0.316344
0.316596
0.316881
0.317579
0.318724
0.319744
0.322254
0.327642
0.337761
0.36484
0.476171
0.888934
1.35832
1.22361
1.10145
1.04142
0.999208
0.985164
1.00555
1.09987
1.17372
1.19192
0.336049
0.316856
0.316154
0.316344
0.316596
0.316881
0.317579
0.318723
0.319729
0.322145
0.327295
0.33323
0.34873
0.392539
0.554443
0.993809
1.23317
1.11019
1.04188
1.00635
0.966708
0.96926
1.00165
1.10636
1.16822
0.336049
0.316856
0.316154
0.316344
0.316596
0.316881
0.317578
0.318724
0.319725
0.322132
0.327345
0.33198
0.343067
0.368664
0.425822
0.598621
0.964743
1.09377
1.03365
1.0041
0.968643
0.939273
0.948283
0.999874
1.10532
0.336049
0.316856
0.316154
0.316344
0.316596
0.316881
0.317579
0.318724
0.319726
0.322134
0.327343
0.331887
0.341916
0.365196
0.393733
0.466566
0.608311
0.832631
0.988731
0.988727
0.967025
0.932415
0.916598
0.932973
1.0075
0.336049
0.316856
0.316154
0.316344
0.316597
0.316881
0.317578
0.318725
0.319725
0.322132
0.327333
0.331886
0.341846
0.365283
0.388999
0.441276
0.505334
0.585275
0.726764
0.924022
0.954576
0.931556
0.896849
0.897608
0.926619
0.336049
0.316856
0.316154
0.316344
0.316597
0.316881
0.317579
0.318725
0.319726
0.322135
0.327336
0.331895
0.341856
0.365208
0.388984
0.439204
0.501303
0.519633
0.563751
0.669133
0.871776
0.92085
0.894481
0.869602
0.879402
0.336049
0.316856
0.316154
0.316344
0.316596
0.316881
0.317578
0.318724
0.319725
0.322134
0.327332
0.331889
0.34185
0.365189
0.38897
0.439061
0.501057
0.515736
0.523452
0.554289
0.634737
0.803653
0.882622
0.856545
0.847773
0.336049
0.316856
0.316154
0.316344
0.316597
0.316881
0.317579
0.318725
0.319726
0.322136
0.327336
0.331896
0.341854
0.365192
0.38899
0.439092
0.500834
0.516119
0.518962
0.530451
0.55479
0.605109
0.714015
0.822183
0.82123
0.336049
0.316856
0.316154
0.316344
0.316596
0.316881
0.317578
0.318724
0.319725
0.322134
0.327331
0.331888
0.341849
0.365186
0.388971
0.439083
0.500836
0.516126
0.518623
0.528711
0.541573
0.552668
0.577001
0.632651
0.736366
0.336049
0.316856
0.316154
0.316344
0.316597
0.316881
0.317579
0.318725
0.319726
0.322136
0.327336
0.331897
0.341856
0.365193
0.388994
0.439113
0.500827
0.516153
0.518577
0.528562
0.540465
0.543744
0.545358
0.554531
0.581994
0.336049
0.316856
0.316154
0.316344
0.316597
0.316881
0.317578
0.318725
0.319725
0.322132
0.327329
0.331888
0.341842
0.365175
0.388964
0.439035
0.500709
0.516046
0.518446
0.528364
0.540318
0.542404
0.541332
0.536987
0.54005
0.336049
0.316856
0.316154
0.316344
0.316597
0.316881
0.317579
0.318725
0.319726
0.322136
0.327336
0.331896
0.341856
0.365192
0.388994
0.439119
0.500832
0.516157
0.518576
0.528538
0.540456
0.542415
0.541008
0.535157
0.531781
0.336049
0.316856
0.316154
0.316344
0.316596
0.316881
0.317578
0.318724
0.319724
0.322134
0.327331
0.331888
0.341847
0.365183
0.388968
0.439084
0.500834
0.516134
0.518575
0.528598
0.540476
0.542393
0.540935
0.534987
0.530358
0.336049
0.316856
0.316154
0.316344
0.316597
0.316881
0.317579
0.318725
0.319726
0.322135
0.327334
0.331894
0.341852
0.365189
0.38899
0.4391
0.500818
0.51615
0.518566
0.528525
0.540452
0.542404
0.540954
0.535004
0.530239
0.336049
0.316856
0.316154
0.316344
0.316596
0.316881
0.317578
0.318724
0.319724
0.322134
0.32733
0.331887
0.341848
0.365182
0.388967
0.439081
0.500829
0.51613
0.518576
0.528608
0.540489
0.542405
0.540942
0.534976
0.530217
0.336049
0.316856
0.316154
0.316344
0.316597
0.316881
0.317578
0.318724
0.319725
0.322135
0.327333
0.331891
0.341852
0.36519
0.388989
0.439106
0.500832
0.516154
0.518576
0.52855
0.540469
0.542415
0.540965
0.535017
0.530244
0.336049
0.316856
0.316154
0.316344
0.316597
0.316881
0.317578
0.318725
0.319725
0.322131
0.327328
0.331885
0.341839
0.365174
0.38896
0.439032
0.50072
0.516047
0.518447
0.528366
0.540313
0.542268
0.540805
0.534796
0.529998
0.336049
0.316856
0.316154
0.316344
0.316596
0.316881
0.317578
0.318724
0.319725
0.322134
0.327331
0.331888
0.34185
0.365189
0.388979
0.439114
0.500864
0.516151
0.518589
0.528605
0.540474
0.542392
0.540935
0.534987
0.530234
0.336049
0.316856
0.316154
0.316344
0.316596
0.316881
0.317578
0.318724
0.319724
0.322133
0.327329
0.331884
0.341847
0.365186
0.388969
0.439097
0.500865
0.516154
0.518597
0.528629
0.540491
0.542401
0.540937
0.534976
0.530223
0.336049
0.316856
0.316154
0.316344
0.316597
0.316881
0.317578
0.318725
0.319725
0.322132
0.327328
0.331885
0.341839
0.365177
0.388959
0.43902
0.500734
0.516064
0.518462
0.528383
0.540328
0.542282
0.540818
0.534808
0.530008
0.336049
0.316856
0.316154
0.316344
0.316596
0.31688
0.317578
0.318723
0.319724
0.322133
0.327327
0.331882
0.341846
0.365187
0.388966
0.439083
0.500863
0.516153
0.518599
0.52864
0.540504
0.542414
0.54095
0.534987
0.530229
0.336049
0.316856
0.316154
0.316344
0.316596
0.316881
0.317578
0.318724
0.319724
0.322133
0.327329
0.331883
0.341847
0.365188
0.388973
0.43911
0.500874
0.516154
0.518594
0.528617
0.540482
0.542399
0.540941
0.534991
0.530239
0.336049
0.316856
0.316154
0.316344
0.316596
0.31688
0.317577
0.318724
0.319724
0.32213
0.327324
0.331879
0.341837
0.365174
0.388949
0.439032
0.500762
0.51606
0.518477
0.528444
0.540339
0.542267
0.540797
0.53479
0.530008
0.336049
0.316856
0.316154
0.316344
0.316596
0.31688
0.317578
0.318723
0.319724
0.322132
0.327328
0.331884
0.341846
0.365187
0.388977
0.439093
0.500845
0.516152
0.51858
0.528569
0.540479
0.542418
0.540965
0.535009
0.530232
0.336049
0.316856
0.316154
0.316344
0.316596
0.31688
0.317577
0.318724
0.319724
0.32213
0.327324
0.331879
0.341835
0.365171
0.388948
0.439027
0.500765
0.516077
0.518491
0.528449
0.540348
0.542278
0.540809
0.534805
0.530021
0.336049
0.316856
0.316154
0.316344
0.316596
0.31688
0.317578
0.318723
0.319723
0.322132
0.327327
0.331881
0.341845