/*--------------------------------*- C++ -*----------------------------------*\
| =========                 |                                                 |
| \\      /  F ield         | OpenFOAM: The Open Source CFD Toolbox           |
|  \\    /   O peration     | Version:  4.1                                   |
|   \\  /    A nd           | Web:      www.OpenFOAM.org                      |
|    \\/     M anipulation  |                                                 |
\*---------------------------------------------------------------------------*/
FoamFile
{
    version     2.0;
    format      ascii;
    class       volVectorField;
    location    "0.46";
    object      U;
}
// * * * * * * * * * * * * * * * * * * * * * * * * * * * * * * * * * * * * * //

dimensions      [0 1 -1 0 0 0 0];

internalField   nonuniform List<vector> 
52500
(
(1.82116 -2.11861e-08 -0.00215641)
(1.84836 8.44626e-06 -0.00196497)
(1.84782 1.72637e-05 -0.00196939)
(1.84574 3.76334e-05 -0.00198452)
(1.83922 9.93091e-05 -0.00203129)
(1.8168 0.000301469 -0.00218525)
(1.71541 0.00107173 -0.00280746)
(1.16378 0.00489125 -0.00566521)
(-0.188293 0.0261304 -0.012005)
(-0.653869 0.0330591 -0.0118779)
(-0.372863 0.0284483 -0.00980118)
(-0.315717 0.0274145 -0.00892414)
(-0.326457 0.0268243 -0.00870965)
(-0.314047 0.0267726 -0.00884368)
(-0.284573 0.0269229 -0.00938534)
(-0.242222 0.0277203 -0.00948447)
(-0.194222 0.0283657 -0.00931552)
(-0.150995 0.0291971 -0.00900123)
(-0.111408 0.030109 -0.00893988)
(-0.0727616 0.0314506 -0.0089093)
(-0.0454529 0.0332764 -0.0087349)
(-0.0273953 0.0350477 -0.00851978)
(-0.0100876 0.0364943 -0.0083058)
(-0.0303243 0.0388992 -0.00796832)
(0.0242071 0.0388474 -0.00756119)
(1.82118 -9.53444e-07 -0.00215636)
(1.84837 2.58021e-05 -0.00196479)
(1.84785 5.38103e-05 -0.00196913)
(1.84581 0.000118958 -0.0019839)
(1.83944 0.000316075 -0.00202956)
(1.81763 0.000961986 -0.00217958)
(1.71943 0.00342201 -0.0027829)
(1.18558 0.0156318 -0.00557037)
(-0.167799 0.0795651 -0.0118442)
(-0.655072 0.0918967 -0.0118866)
(-0.375231 0.0699787 -0.00977291)
(-0.312635 0.0665539 -0.00889149)
(-0.323192 0.0645901 -0.00867155)
(-0.3109 0.0636223 -0.00878858)
(-0.281305 0.0633315 -0.00933717)
(-0.238682 0.0640481 -0.00944776)
(-0.19075 0.0643244 -0.00928715)
(-0.147195 0.065362 -0.00896697)
(-0.107389 0.0672157 -0.00890118)
(-0.0684182 0.0701865 -0.00887192)
(-0.0413008 0.0746371 -0.00869624)
(-0.0240383 0.079374 -0.00847865)
(-0.00694909 0.0828894 -0.00826193)
(-0.0287158 0.0883783 -0.00792014)
(0.0247778 0.0875236 -0.00750783)
(1.82121 -3.55087e-06 -0.00215628)
(1.8484 3.91526e-05 -0.00196443)
(1.84789 8.40735e-05 -0.00196857)
(1.84595 0.00019193 -0.00198257)
(1.83992 0.000520321 -0.00202586)
(1.81944 0.00159042 -0.00216742)
(1.72829 0.0056389 -0.00273039)
(1.23486 0.0258478 -0.00536865)
(-0.110928 0.131755 -0.0115215)
(-0.648374 0.158716 -0.0119703)
(-0.380941 0.117021 -0.00978534)
(-0.306311 0.111704 -0.00886569)
(-0.317332 0.109125 -0.00862524)
(-0.305706 0.108056 -0.00871412)
(-0.276419 0.108383 -0.00927275)
(-0.233666 0.109939 -0.00940989)
(-0.185729 0.110475 -0.00926357)
(-0.141497 0.111887 -0.00893742)
(-0.101312 0.114904 -0.00886455)
(-0.0616628 0.119473 -0.00884035)
(-0.0341991 0.126426 -0.00866638)
(-0.017882 0.134371 -0.00844602)
(-0.000891262 0.140156 -0.00822542)
(-0.0255313 0.150305 -0.00787801)
(0.025683 0.148568 -0.00746027)
(1.82124 -7.85823e-06 -0.0021562)
(1.84844 4.331e-05 -0.00196394)
(1.84796 9.81528e-05 -0.00196778)
(1.84615 0.000238646 -0.00198068)
(1.8406 0.000669252 -0.00202063)
(1.82197 0.00205026 -0.00215017)
(1.74072 0.00719336 -0.00265626)
(1.30435 0.0328958 -0.00507263)
(-0.020579 0.168935 -0.0110252)
(-0.638728 0.228477 -0.0121077)
(-0.392032 0.165011 -0.00981648)
(-0.296596 0.156039 -0.0088514)
(-0.308786 0.152416 -0.00857939)
(-0.298403 0.150679 -0.00863423)
(-0.269504 0.151588 -0.0091974)
(-0.226448 0.154109 -0.00936805)
(-0.178655 0.155315 -0.00924155)
(-0.133404 0.157408 -0.00891033)
(-0.0924927 0.161895 -0.00882762)
(-0.0517165 0.168516 -0.00881005)
(-0.023386 0.178219 -0.00863914)
(-0.00825389 0.190419 -0.00841374)
(0.00975391 0.198773 -0.00819755)
(-0.0192814 0.215342 -0.00783458)
(0.027326 0.213162 -0.00740827)
(1.82126 -1.28828e-05 -0.0021562)
(1.84847 3.85862e-05 -0.00196341)
(1.84803 9.80937e-05 -0.00196684)
(1.8464 0.000265201 -0.0019784)
(1.84142 0.000773145 -0.0020144)
(1.82496 0.00235568 -0.00212967)
(1.75528 0.00812861 -0.0025696)
(1.38486 0.0367573 -0.00469628)
(0.105523 0.189456 -0.0103729)
(-0.617857 0.300304 -0.0122559)
(-0.410302 0.213112 -0.00987558)
(-0.285256 0.199868 -0.00884257)
(-0.298081 0.195289 -0.00851545)
(-0.289275 0.192407 -0.00852736)
(-0.261008 0.194381 -0.00908181)
(-0.217728 0.197524 -0.00931323)
(-0.169907 0.199592 -0.00921645)
(-0.123168 0.202442 -0.00888611)
(-0.0811338 0.208489 -0.0087897)
(-0.0388185 0.217118 -0.0087771)
(-0.00854145 0.229341 -0.00861828)
(0.00532309 0.246723 -0.00837244)
(0.0249631 0.257675 -0.00815554)
(-0.00977222 0.280592 -0.00778265)
(0.0297893 0.278742 -0.00733458)
(1.82126 -1.75171e-05 -0.00215631)
(1.84849 2.21427e-05 -0.00196288)
(1.8481 8.37207e-05 -0.00196577)
(1.84668 0.000277625 -0.00197589)
(1.84233 0.000842909 -0.00200772)
(1.82819 0.00252446 -0.00210766)
(1.77071 0.00846536 -0.00247537)
(1.47085 0.0371482 -0.00423708)
(0.273788 0.190096 -0.0095287)
(-0.583352 0.373729 -0.0123671)
(-0.43747 0.263422 -0.00997475)
(-0.271801 0.243622 -0.00885133)
(-0.285442 0.237832 -0.00844906)
(-0.27843 0.233453 -0.00842727)
(-0.250788 0.2364 -0.00894061)
(-0.207606 0.240201 -0.00925107)
(-0.159433 0.243606 -0.00918763)
(-0.110782 0.247275 -0.00886573)
(-0.0673366 0.255292 -0.00874604)
(-0.023217 0.266047 -0.00873806)
(0.0104921 0.280894 -0.00858046)
(0.0231732 0.303507 -0.00832373)
(0.0446133 0.317725 -0.00810205)
(0.00338572 0.345778 -0.00773154)
(0.0335435 0.348079 -0.00726973)
(1.82121 -1.97034e-05 -0.00215662)
(1.84848 -9.13056e-06 -0.00196238)
(1.84817 6.33998e-05 -0.00196461)
(1.84699 0.000293948 -0.00197344)
(1.84327 0.0008925 -0.00200124)
(1.83139 0.00256436 -0.0020862)
(1.78528 0.00825324 -0.00238557)
(1.55168 0.0344559 -0.00377216)
(0.481796 0.169489 -0.00848845)
(-0.523742 0.444612 -0.0124999)
(-0.472361 0.320265 -0.0101127)
(-0.258139 0.287545 -0.00888504)
(-0.270745 0.280017 -0.00838412)
(-0.265942 0.2742 -0.0083271)
(-0.23923 0.277324 -0.00875843)
(-0.196127 0.281816 -0.00917315)
(-0.147163 0.287187 -0.00915267)
(-0.0960291 0.291908 -0.00885602)
(-0.0507027 0.302121 -0.00869171)
(-0.00457041 0.315821 -0.00867297)
(0.0336984 0.33316 -0.00851399)
(0.0454513 0.360752 -0.00826753)
(0.0685764 0.379918 -0.00803742)
(0.0223561 0.412164 -0.00769589)
(0.041012 0.423726 -0.00716961)
(1.82112 -1.63425e-05 -0.00215711)
(1.84845 -4.73596e-05 -0.00196189)
(1.84827 6.6226e-05 -0.00196357)
(1.84732 0.000330943 -0.00197159)
(1.8442 0.000906183 -0.00199539)
(1.83437 0.0024617 -0.00206553)
(1.79815 0.00766351 -0.00230392)
(1.62023 0.030393 -0.00337196)
(0.702563 0.145965 -0.00753523)
(-0.427953 0.501525 -0.012387)
(-0.510508 0.387711 -0.0103867)
(-0.247613 0.331626 -0.00894358)
(-0.253425 0.321803 -0.00832691)
(-0.251659 0.314463 -0.00822617)
(-0.226432 0.316965 -0.00856328)
(-0.183141 0.322227 -0.00908414)
(-0.13284 0.329934 -0.00911125)
(-0.0788488 0.336319 -0.00886967)
(-0.0308017 0.348461 -0.00863353)
(0.0174629 0.365726 -0.00859064)
(0.0606141 0.384803 -0.00844038)
(0.0733583 0.417118 -0.0082072)
(0.0979971 0.444209 -0.00795922)
(0.0487277 0.482792 -0.00763072)
(0.0537342 0.508834 -0.00707148)
(1.821 -6.90702e-06 -0.00215765)
(1.84843 -7.35754e-05 -0.00196139)
(1.84841 9.79827e-05 -0.0019632)
(1.84764 0.00035113 -0.00197021)
(1.84503 0.000853413 -0.00198901)
(1.83706 0.00224513 -0.00204545)
(1.8092 0.00687149 -0.00223301)
(1.67753 0.0259195 -0.00302998)
(0.947166 0.123407 -0.00645991)
(-0.286295 0.528259 -0.0119622)
(-0.539599 0.467889 -0.010705)
(-0.246267 0.376408 -0.00903766)
(-0.233334 0.363364 -0.00828429)
(-0.235504 0.354287 -0.00812352)
(-0.212429 0.35535 -0.00834376)
(-0.168923 0.361318 -0.0089618)
(-0.116473 0.37134 -0.00905688)
(-0.059434 0.380436 -0.00888724)
(-0.00753838 0.394379 -0.00856404)
(0.0424446 0.414032 -0.00848715)
(0.0908143 0.435099 -0.0083615)
(0.108047 0.471936 -0.00813988)
(0.136069 0.508957 -0.00788433)
(0.088079 0.559552 -0.00754911)
(0.0745308 0.610516 -0.00687343)
(1.82091 1.0807e-06 -0.00215785)
(1.84844 -7.62509e-05 -0.00196161)
(1.84857 0.000115932 -0.00196249)
(1.84791 0.000329147 -0.0019676)
(1.84576 0.000755532 -0.00198278)
(1.83943 0.00196679 -0.00202767)
(1.81834 0.00593915 -0.00217267)
(1.72352 0.0214157 -0.00275691)
(1.19826 0.100854 -0.00547782)
(-0.0959332 0.507833 -0.0111478)
(-0.545228 0.559988 -0.0111413)
(-0.260421 0.423102 -0.00919085)
(-0.210452 0.404542 -0.0082668)
(-0.217471 0.393549 -0.00802278)
(-0.197274 0.391771 -0.00812245)
(-0.153897 0.39881 -0.00879078)
(-0.0979201 0.411033 -0.00900096)
(-0.0377729 0.424461 -0.00889413)
(0.0187455 0.439353 -0.00850233)
(0.0694961 0.460495 -0.008384)
(0.124626 0.48401 -0.0082688)
(0.149836 0.525384 -0.0080734)
(0.185628 0.574008 -0.00777684)
(0.150431 0.645739 -0.00741437)
(0.110162 0.757826 -0.00660451)
(1.82116 3.60423e-09 -3.43035e-09)
(1.84835 8.56233e-06 -7.11976e-09)
(1.84782 1.74999e-05 -8.88963e-09)
(1.84574 3.81259e-05 -1.60504e-08)
(1.83921 0.00010052 -3.90385e-08)
(1.81677 0.000305068 -1.15445e-07)
(1.71523 0.00108519 -4.06499e-07)
(1.16278 0.00495766 -1.57654e-06)
(-0.189337 0.0264428 -3.97863e-06)
(-0.653961 0.033145 2.27996e-06)
(-0.37266 0.0284792 4.72411e-07)
(-0.315626 0.0274515 2.47679e-07)
(-0.326336 0.0268775 2.94421e-07)
(-0.313919 0.0268271 2.28867e-07)
(-0.2845 0.0269538 2.51672e-07)
(-0.242195 0.0277204 2.65331e-07)
(-0.194218 0.0283547 2.75451e-07)
(-0.151006 0.0291877 2.74738e-07)
(-0.111421 0.030097 3.05389e-07)
(-0.0727825 0.0314361 3.28366e-07)
(-0.0454824 0.0332629 3.21616e-07)
(-0.0274228 0.0350365 3.02187e-07)
(-0.0101069 0.0364854 2.77482e-07)
(-0.0303324 0.038894 3.18447e-07)
(0.0242124 0.038855 2.96412e-07)
(1.82118 -9.16356e-07 -3.37403e-09)
(1.84837 2.58373e-05 -6.17803e-09)
(1.84784 5.38484e-05 -7.58156e-09)
(1.8458 0.000119004 -1.32123e-08)
(1.83943 0.000316165 -3.10861e-08)
(1.8176 0.000962449 -9.02761e-08)
(1.71931 0.00342465 -3.15915e-07)
(1.18494 0.0156469 -1.25675e-06)
(-0.167862 0.0795674 -3.41975e-06)
(-0.654382 0.0917624 1.58003e-06)
(-0.374347 0.0698128 5.52219e-07)
(-0.312078 0.0664797 1.63409e-07)
(-0.3228 0.0646033 1.96702e-07)
(-0.310636 0.0636591 2.14107e-07)
(-0.281189 0.0633784 2.70337e-07)
(-0.238645 0.0640823 2.75856e-07)
(-0.190745 0.0643372 2.80261e-07)
(-0.14721 0.0653541 2.85669e-07)
(-0.10741 0.067191 3.08634e-07)
(-0.0684443 0.0701534 3.09373e-07)
(-0.041332 0.0746052 2.92002e-07)
(-0.0240674 0.0793469 2.75697e-07)
(-0.00697025 0.0828655 2.58613e-07)
(-0.0287223 0.0883557 3.04061e-07)
(0.0247911 0.0875217 2.69668e-07)
(1.82121 -3.46108e-06 -3.13256e-09)
(1.8484 3.93446e-05 -5.23211e-09)
(1.84789 8.44019e-05 -6.41179e-09)
(1.84595 0.000192425 -1.12393e-08)
(1.83991 0.00052103 -2.68804e-08)
(1.8194 0.00159151 -7.94913e-08)
(1.72812 0.00564081 -2.77459e-07)
(1.23393 0.0258485 -1.11225e-06)
(-0.112245 0.131793 -3.2003e-06)
(-0.648751 0.158728 1.16581e-06)
(-0.381129 0.116999 4.56455e-07)
(-0.306703 0.111754 1.63941e-07)
(-0.317673 0.109241 1.78219e-07)
(-0.305933 0.108157 2.36287e-07)
(-0.276546 0.108447 2.78469e-07)
(-0.233754 0.10997 2.9714e-07)
(-0.185786 0.110474 3.07316e-07)
(-0.141545 0.111861 3.08823e-07)
(-0.101348 0.114859 3.13956e-07)
(-0.0616903 0.119419 2.76422e-07)
(-0.0342212 0.126374 2.29525e-07)
(-0.0178976 0.134327 2.12638e-07)
(-0.000901293 0.140117 2.13101e-07)
(-0.025531 0.150267 2.83154e-07)
(0.0256912 0.148556 2.49074e-07)
(1.82124 -7.75484e-06 -3.16417e-09)
(1.84844 4.36205e-05 -4.52365e-09)
(1.84796 9.86998e-05 -5.41949e-09)
(1.84615 0.000239571 -9.13161e-09)
(1.8406 0.000671085 -2.133e-08)
(1.82194 0.0020549 -6.32343e-08)
(1.74059 0.00720884 -2.2268e-07)
(1.30365 0.0329616 -9.65708e-07)
(-0.0213872 0.169209 -3.00972e-06)
(-0.638732 0.228539 6.74366e-07)
(-0.391997 0.165084 4.32376e-07)
(-0.296902 0.156081 1.3243e-07)
(-0.309144 0.152489 1.34438e-07)
(-0.29874 0.150762 2.1127e-07)
(-0.269772 0.151621 3.00309e-07)
(-0.226627 0.154094 3.30887e-07)
(-0.178758 0.15527 3.55141e-07)
(-0.133472 0.157349 3.53732e-07)
(-0.0925387 0.161823 3.27147e-07)
(-0.0517429 0.168439 2.44089e-07)
(-0.0233969 0.178147 1.58518e-07)
(-0.00825494 0.190361 1.34708e-07)
(0.00975475 0.198718 1.55039e-07)
(-0.0192721 0.215289 2.35007e-07)
(0.0273275 0.21314 2.21415e-07)
(1.82126 -1.29371e-05 -3.44377e-09)
(1.84847 3.86722e-05 -4.06207e-09)
(1.84803 9.83513e-05 -4.79976e-09)
(1.8464 0.000265849 -7.96495e-09)
(1.84142 0.000774821 -1.817e-08)
(1.82494 0.00236025 -5.34912e-08)
(1.75516 0.00814341 -1.89187e-07)
(1.38421 0.0368236 -8.88325e-07)
(0.104487 0.189828 -2.90222e-06)
(-0.618097 0.300427 4.31385e-07)
(-0.410465 0.213264 3.88901e-07)
(-0.285834 0.199909 1.17524e-07)
(-0.29866 0.195265 1.36558e-07)
(-0.289768 0.192347 3.0312e-07)
(-0.261368 0.194265 3.04527e-07)
(-0.217956 0.197402 3.68727e-07)
(-0.170033 0.199483 3.90241e-07)
(-0.123248 0.20235 3.75192e-07)
(-0.0811847 0.208387 3.39649e-07)
(-0.0388396 0.217017 2.15308e-07)
(-0.00853659 0.229248 8.68196e-08)
(0.00533705 0.246648 1.12414e-07)
(0.0249715 0.257606 7.1627e-08)
(-0.00975304 0.280526 1.53383e-07)
(0.0297858 0.278715 1.94103e-07)
(1.82125 -1.77225e-05 -3.48842e-09)
(1.84849 2.2031e-05 -3.99813e-09)
(1.8481 8.38406e-05 -4.68873e-09)
(1.84668 0.000278487 -7.59928e-09)
(1.84233 0.00084567 -1.65407e-08)
(1.82817 0.00253206 -4.56127e-08)
(1.77064 0.00848846 -1.5821e-07)
(1.47047 0.0372454 -7.47495e-07)
(0.273086 0.190541 -1.61226e-06)
(-0.583588 0.37399 -5.97847e-07)
(-0.437522 0.263792 7.11004e-07)
(-0.272294 0.243786 1.05859e-07)
(-0.285895 0.237869 1.1252e-07)
(-0.278815 0.23339 2.50978e-07)
(-0.251077 0.236254 2.88984e-07)
(-0.207779 0.240024 3.99192e-07)
(-0.15952 0.243437 4.28028e-07)
(-0.110855 0.247134 4.2164e-07)
(-0.0673885 0.255164 3.55982e-07)
(-0.0232291 0.265927 2.07225e-07)
(0.0105115 0.280782 4.22007e-08)
(0.0232025 0.303403 6.47947e-09)
(0.0446305 0.317641 5.97616e-08)
(0.00341736 0.345699 4.88027e-08)
(0.0335413 0.348049 1.64883e-07)
(1.82121 -1.97847e-05 -4.80764e-09)
(1.84848 -9.26607e-06 -3.81524e-09)
(1.84817 6.35294e-05 -4.44149e-09)
(1.84699 0.000294891 -6.84836e-09)
(1.84327 0.000895225 -1.26837e-08)
(1.83138 0.00257134 -3.22513e-08)
(1.78524 0.00827361 -1.17407e-07)
(1.55145 0.0345372 -6.16655e-07)
(0.481027 0.169863 -2.8014e-06)
(-0.523789 0.444939 -1.13505e-06)
(-0.472071 0.320515 3.26628e-06)
(-0.258337 0.287764 5.31117e-07)
(-0.27084 0.280125 1.75079e-07)
(-0.266037 0.274153 3.04866e-07)
(-0.239337 0.277197 4.1812e-07)
(-0.196211 0.281627 4.49655e-07)
(-0.147209 0.28699 4.78265e-07)
(-0.0960716 0.29172 4.45908e-07)
(-0.0507325 0.301976 3.6558e-07)
(-0.00456956 0.315693 2.08361e-07)
(0.0337249 0.333037 2.15055e-09)
(0.0454963 0.36063 -1.27737e-07)
(0.0686104 0.379814 -3.67147e-08)
(0.0224014 0.412076 -3.4496e-08)
(0.0410131 0.423691 7.91079e-08)
(1.82112 -1.62911e-05 -4.66013e-09)
(1.84845 -4.7398e-05 -4.01819e-09)
(1.84827 6.65471e-05 -4.72076e-09)
(1.84732 0.000331815 -5.5297e-09)
(1.8442 0.000908013 -6.51232e-09)
(1.83437 0.00246587 -1.50965e-08)
(1.79814 0.0076751 -5.71053e-08)
(1.62015 0.0304386 -2.88231e-07)
(0.702191 0.146199 -1.366e-06)
(-0.427856 0.502001 -2.10854e-06)
(-0.510171 0.387792 9.69242e-07)
(-0.247416 0.331812 1.8934e-07)
(-0.253278 0.321904 1.92455e-07)
(-0.251558 0.314396 3.3546e-07)
(-0.226393 0.316811 4.19174e-07)
(-0.183148 0.322027 4.74113e-07)
(-0.132845 0.329737 5.02678e-07)
(-0.0788551 0.336125 4.57971e-07)
(-0.0307997 0.348313 3.82063e-07)
(0.0174764 0.36559 2.21163e-07)
(0.0606466 0.384677 -2.27249e-09)
(0.0734102 0.416993 -2.21364e-07)
(0.0980443 0.444092 -2.07226e-07)
(0.0487894 0.482694 -1.13391e-07)
(0.0537395 0.508795 -2.36026e-08)
(1.821 -6.84005e-06 -4.40597e-09)
(1.84843 -7.35567e-05 -5.08329e-09)
(1.84841 9.8295e-05 -2.19063e-09)
(1.84764 0.000351736 -1.7233e-09)
(1.84503 0.000854479 -4.04516e-09)
(1.83707 0.00224731 -1.00586e-08)
(1.80919 0.00687669 -3.33666e-08)
(1.6775 0.0259369 -1.50985e-07)
(0.947 0.12349 -7.00097e-07)
(-0.286306 0.528586 -1.16826e-06)
(-0.539371 0.468053 4.60447e-07)
(-0.24597 0.376581 1.05795e-07)
(-0.233111 0.363449 1.57628e-07)
(-0.235328 0.354224 2.77516e-07)
(-0.212306 0.355191 3.76861e-07)
(-0.168859 0.361134 4.84692e-07)
(-0.11644 0.371153 5.47393e-07)
(-0.0594147 0.380268 4.82076e-07)
(-0.00751869 0.394239 3.94963e-07)
(0.042469 0.4139 1.77665e-07)
(0.0908594 0.434977 8.00489e-09)
(0.108109 0.471808 -2.31968e-07)
(0.136125 0.508834 -2.82691e-07)
(0.0881531 0.559445 -2.374e-07)
(0.0745425 0.610479 -1.38321e-07)
(1.82091 1.1861e-06 -4.28051e-09)
(1.84844 -7.61297e-05 -5.74039e-09)
(1.84857 0.000116224 -9.15192e-10)
(1.84792 0.000329611 -1.01562e-09)
(1.84576 0.000756267 -2.01793e-09)
(1.83944 0.00196805 -5.05723e-09)
(1.81834 0.00594177 -2.05466e-08)
(1.72351 0.0214233 -9.23577e-08)
(1.19816 0.100886 -4.52551e-07)
(-0.0960436 0.508008 -1.26016e-06)
(-0.545102 0.560175 2.49695e-07)
(-0.260119 0.423269 1.07694e-07)
(-0.210217 0.404628 1.4254e-07)
(-0.217276 0.393522 2.51969e-07)
(-0.197114 0.391652 3.17063e-07)
(-0.153803 0.398661 4.49705e-07)
(-0.097868 0.410872 5.43298e-07)
(-0.0377346 0.424332 5.30064e-07)
(0.0187791 0.439228 4.50773e-07)
(0.0695282 0.46039 2.52183e-07)
(0.124672 0.483902 2.85439e-08)
(0.149902 0.525254 -2.38405e-07)
(0.185692 0.57388 -3.30999e-07)
(0.150521 0.645625 -3.43996e-07)
(0.110189 0.757787 -2.04119e-07)
(1.82116 -2.02e-08 8.56662e-10)
(1.84835 8.49554e-06 3.76171e-09)
(1.84782 1.73661e-05 4.85952e-09)
(1.84574 3.78525e-05 9.24256e-09)
(1.83922 9.98821e-05 2.34732e-08)
(1.81678 0.000303229 7.20299e-08)
(1.71531 0.00107826 2.64188e-07)
(1.16323 0.00492144 1.09977e-06)
(-0.188815 0.026261 3.13006e-06)
(-0.653961 0.0330964 -1.25224e-06)
(-0.372947 0.0284495 -8.82176e-07)
(-0.315928 0.0274093 -3.4656e-07)
(-0.326651 0.0268115 -1.19803e-07)
(-0.314198 0.0267466 -2.80943e-08)
(-0.284692 0.0268893 1.04027e-07)
(-0.242308 0.0276872 1.61961e-07)
(-0.194275 0.0283383 1.62708e-07)
(-0.151031 0.0291763 1.06127e-07)
(-0.111426 0.030093 6.86305e-08)
(-0.0727668 0.0314372 -6.03753e-08)
(-0.0454491 0.0332658 -2.25388e-07)
(-0.0273859 0.0350397 -3.21038e-07)
(-0.0100696 0.0364886 -3.82319e-07)
(-0.030311 0.0388967 -2.93837e-07)
(0.0242177 0.0388575 -3.03508e-07)
(1.82118 -9.29872e-07 7.67456e-10)
(1.84837 2.59384e-05 3.40703e-09)
(1.84785 5.40815e-05 4.24396e-09)
(1.84581 0.000119496 7.41401e-09)
(1.83944 0.000317294 1.723e-08)
(1.81761 0.000965204 4.8925e-08)
(1.71935 0.00343247 1.68813e-07)
(1.18516 0.0156755 6.83252e-07)
(-0.168024 0.0797235 1.94201e-06)
(-0.654923 0.0919227 -2.68155e-07)
(-0.375046 0.0699553 -8.65643e-07)
(-0.312621 0.0665512 -1.28896e-07)
(-0.323213 0.0645744 2.03329e-08)
(-0.310935 0.0635904 6.80649e-09)
(-0.28135 0.0632858 1.00197e-07)
(-0.238729 0.0640025 2.02213e-07)
(-0.190785 0.0642835 1.99987e-07)
(-0.147225 0.0653274 1.25531e-07)
(-0.107407 0.0671835 5.86522e-08)
(-0.0684241 0.0701565 -7.60403e-08)
(-0.0412972 0.0746127 -2.30359e-07)
(-0.0240302 0.0793551 -3.18897e-07)
(-0.00693319 0.0828732 -3.80223e-07)
(-0.028701 0.088363 -2.8918e-07)
(0.0247963 0.0875283 -3.02329e-07)
(1.82121 -3.5379e-06 5.75675e-10)
(1.8484 3.92563e-05 5.35661e-09)
(1.84789 8.4284e-05 6.89212e-09)
(1.84595 0.000192364 1.28595e-08)
(1.83992 0.000521326 3.23369e-08)
(1.81942 0.00159306 9.78963e-08)
(1.72822 0.00564721 3.48304e-07)
(1.23449 0.0258805 1.41086e-06)
(-0.111341 0.131894 4.15227e-06)
(-0.64836 0.15877 -1.50772e-06)
(-0.380824 0.117026 -9.0589e-08)
(-0.306296 0.111716 -8.60303e-08)
(-0.317355 0.109119 -5.97783e-08)
(-0.305736 0.108031 2.02504e-07)
(-0.276452 0.10834 2.71992e-07)
(-0.233705 0.109892 2.23237e-07)
(-0.185761 0.110424 1.97631e-07)
(-0.141525 0.11184 1.48342e-07)
(-0.101329 0.114857 4.80419e-08)
(-0.0616617 0.119428 -1.01439e-07)
(-0.0341832 0.126388 -2.43546e-07)
(-0.01786 0.134341 -3.1881e-07)
(-0.000864264 0.14013 -3.81017e-07)
(-0.0255098 0.15028 -2.80943e-07)
(0.0256962 0.148568 -3.04936e-07)
(1.82124 -7.89122e-06 1.52017e-10)
(1.84844 4.33416e-05 4.00295e-09)
(1.84796 9.82849e-05 5.1791e-09)
(1.84615 0.000239023 9.66835e-09)
(1.8406 0.000670243 2.44556e-08)
(1.82196 0.00205287 7.44312e-08)
(1.74066 0.0072014 2.67841e-07)
(1.30406 0.0329276 1.18968e-06)
(-0.0209415 0.169072 3.83535e-06)
(-0.638665 0.228552 -1.29712e-06)
(-0.391855 0.165067 -6.4185e-08)
(-0.296517 0.156071 1.28382e-07)
(-0.308761 0.152432 -2.06068e-08)
(-0.298401 0.150683 9.52207e-08)
(-0.269522 0.151567 1.01878e-07)
(-0.226479 0.154068 2.10143e-07)
(-0.178685 0.155259 2.17891e-07)
(-0.133431 0.157349 1.54483e-07)
(-0.0925067 0.161838 3.21168e-08)
(-0.0517078 0.16846 -1.20942e-07)
(-0.0233566 0.178168 -2.54411e-07)
(-0.00821705 0.190382 -3.06928e-07)
(0.00979178 0.198738 -3.94345e-07)
(-0.0192506 0.215307 -2.75021e-07)
(0.027332 0.213157 -3.00627e-07)
(1.82126 -1.29179e-05 -1.13939e-09)
(1.84847 3.85564e-05 3.0747e-09)
(1.84803 9.81003e-05 4.12031e-09)
(1.8464 0.000265356 7.66284e-09)
(1.84142 0.00077369 1.94239e-08)
(1.82496 0.00235723 5.84671e-08)
(1.75524 0.00813353 2.11422e-07)
(1.38461 0.0367792 1.01058e-06)
(0.105132 0.189578 3.44362e-06)
(-0.617838 0.300352 -8.80309e-07)
(-0.410152 0.21319 -9.98103e-10)
(-0.285231 0.199893 2.45746e-07)
(-0.29811 0.195286 1.21821e-07)
(-0.28933 0.192387 2.17867e-07)
(-0.261081 0.194332 1.3555e-07)
(-0.217789 0.197465 2.40155e-07)
(-0.169949 0.19953 2.30192e-07)
(-0.123194 0.202384 1.5528e-07)
(-0.0811445 0.208427 1.87727e-08)
(-0.0388039 0.217054 -1.28858e-07)
(-0.00849744 0.22928 -2.68517e-07)
(0.00537405 0.246675 -2.86631e-07)
(0.0250068 0.257632 -3.80008e-07)
(-0.00973161 0.280547 -3.02051e-07)
(0.0297901 0.278736 -2.85595e-07)
(1.82125 -1.75937e-05 -9.12009e-10)
(1.84849 2.20362e-05 1.96973e-09)
(1.8481 8.37073e-05 2.67439e-09)
(1.84668 0.000277956 4.98508e-09)
(1.84233 0.000843969 1.33418e-08)
(1.82818 0.00252708 4.03588e-08)
(1.77068 0.00847235 1.43587e-07)
(1.47066 0.0371752 6.5495e-07)
(0.273415 0.190203 1.44616e-06)
(-0.583468 0.37376 -3.27841e-08)
(-0.437402 0.26366 -4.98519e-08)
(-0.271909 0.243679 2.69172e-07)
(-0.285559 0.237835 1.47999e-07)
(-0.278538 0.233422 1.56008e-07)
(-0.250876 0.236341 2.18093e-07)
(-0.207665 0.240136 2.64488e-07)
(-0.159468 0.243538 2.44492e-07)
(-0.110813 0.247214 1.47505e-07)
(-0.0673536 0.255228 1.82885e-08)
(-0.0232007 0.265979 -1.17015e-07)
(0.0105448 0.280824 -2.39019e-07)
(0.0232362 0.303436 -3.05041e-07)
(0.0446624 0.317671 -3.58319e-07)
(0.00343818 0.345723 -3.44947e-07)
(0.0335457 0.348073 -2.71889e-07)
(1.82121 -1.97799e-05 -7.16128e-10)
(1.84848 -9.31756e-06 1.06875e-09)
(1.84817 6.33588e-05 1.23785e-09)
(1.84699 0.000294363 2.2929e-09)
(1.84327 0.000893768 7.92618e-09)
(1.83138 0.00256741 2.55541e-08)
(1.78526 0.00826162 8.38767e-08)
(1.55152 0.0344886 3.42988e-07)
(0.481231 0.16964 1.1811e-06)
(-0.523882 0.444625 1.40202e-07)
(-0.472185 0.320369 -1.88619e-07)
(-0.258305 0.287627 1.78542e-07)
(-0.270812 0.280068 1.04204e-07)
(-0.266009 0.274205 1.20978e-07)
(-0.2393 0.277293 2.09697e-07)
(-0.196186 0.281758 2.90736e-07)
(-0.147204 0.287113 2.21257e-07)
(-0.0960597 0.291831 1.24631e-07)
(-0.0507173 0.302055 2.17518e-08)
(-0.0045542 0.315753 -8.77337e-08)
(0.0337485 0.333085 -2.13552e-07)
(0.045524 0.360667 -3.29868e-07)
(0.0686375 0.379848 -3.47631e-07)
(0.0224208 0.412103 -3.55901e-07)
(0.0410174 0.423715 -2.72848e-07)
(1.82112 -1.62985e-05 -5.94678e-10)
(1.84845 -4.74285e-05 -1.27128e-10)
(1.84827 6.64158e-05 -2.20497e-10)
(1.84732 0.000331524 7.6015e-10)
(1.8442 0.000907366 4.68892e-09)
(1.83437 0.00246425 1.31415e-08)
(1.79814 0.00767021 3.65544e-08)
(1.62016 0.0304189 1.33783e-07)
(0.702233 0.146103 4.51446e-07)
(-0.428023 0.501742 3.90166e-07)
(-0.510369 0.387664 -2.00746e-07)
(-0.2476 0.331705 1.25814e-08)
(-0.253433 0.321862 7.15388e-08)
(-0.251694 0.314462 8.85186e-08)
(-0.226483 0.316919 1.94055e-07)
(-0.183195 0.322157 2.74746e-07)
(-0.132882 0.329857 2.08033e-07)
(-0.0788726 0.336238 1.08845e-07)
(-0.0308105 0.348394 2.61642e-08)
(0.017477 0.365653 -7.74991e-08)
(0.0606604 0.384727 -2.10543e-07)
(0.0734319 0.417032 -3.26155e-07)
(0.0980663 0.444127 -3.5685e-07)
(0.0488061 0.482722 -3.54637e-07)
(0.0537432 0.508818 -2.86373e-07)
(1.821 -6.86136e-06 -2.12474e-10)
(1.84843 -7.35963e-05 -7.43438e-10)
(1.84841 9.82273e-05 7.89854e-10)
(1.84764 0.000351674 1.49316e-09)
(1.84503 0.000854426 2.18966e-09)
(1.83707 0.00224716 4.47175e-09)
(1.80919 0.00687603 1.16074e-08)
(1.67749 0.0259336 3.69871e-08)
(0.946967 0.12347 1.07903e-07)
(-0.286392 0.528451 9.24245e-08)
(-0.539518 0.467936 -1.31258e-07)
(-0.246194 0.376499 -7.53035e-08)
(-0.233313 0.363419 -8.48176e-09)
(-0.235509 0.35428 1.18813e-07)
(-0.212446 0.355292 1.8572e-07)
(-0.168948 0.361238 2.39353e-07)
(-0.116506 0.371258 1.82331e-07)
(-0.0594539 0.380361 1.09238e-07)
(-0.0075464 0.394315 2.83572e-08)
(0.0424585 0.41396 -5.11009e-08)
(0.0908615 0.435025 -1.87239e-07)
(0.108124 0.471845 -3.12361e-07)
(0.136143 0.508866 -3.62547e-07)
(0.088166 0.559472 -3.48713e-07)
(0.0745447 0.6105 -2.99634e-07)
(1.82091 1.18224e-06 -8.15024e-11)
(1.84844 -7.6155e-05 -6.99426e-10)
(1.84857 0.000116215 6.25061e-10)
(1.84792 0.000329623 6.77698e-10)
(1.84576 0.000756303 7.73099e-10)
(1.83943 0.00196812 1.28197e-09)
(1.81834 0.00594195 2.26201e-09)
(1.7235 0.021424 4.48148e-09)
(1.19811 0.100887 1.23465e-09)
(-0.0960909 0.507973 -8.03989e-08)
(-0.545189 0.560064 -1.071e-07)
(-0.260294 0.423196 -8.03631e-08)
(-0.210373 0.40461 4.84814e-08)
(-0.21741 0.393563 1.17703e-07)
(-0.197233 0.391736 1.41166e-07)
(-0.153879 0.398744 1.93354e-07)
(-0.0979268 0.410953 1.76614e-07)
(-0.0377787 0.424401 1.13396e-07)
(0.0187416 0.439291 8.41241e-08)
(0.0695068 0.460439 -2.00791e-08)
(0.124666 0.483943 -1.52949e-07)
(0.14991 0.525289 -2.87705e-07)
(0.185705 0.573907 -3.513e-07)
(0.150529 0.645646 -3.49298e-07)
(0.11019 0.757804 -2.9922e-07)
(1.82116 -1.27149e-08 3.58959e-10)
(1.84835 8.51648e-06 5.0564e-10)
(1.84782 1.74067e-05 4.00859e-10)
(1.84574 3.79307e-05 -1.29047e-10)
(1.83922 0.000100043 -2.02318e-09)
(1.81678 0.000303607 -8.64192e-09)
(1.7153 0.00107939 -3.42651e-08)
(1.16317 0.00492629 -1.35325e-07)
(-0.188886 0.0262824 -3.3091e-07)
(-0.653971 0.0331022 2.8999e-07)
(-0.372933 0.0284534 1.24986e-07)
(-0.315922 0.0274192 2.71334e-08)
(-0.326648 0.0268234 -9.1177e-09)
(-0.3142 0.0267562 -1.15087e-08)
(-0.284703 0.0268917 -2.69722e-08)
(-0.242324 0.0276843 -2.12545e-08)
(-0.194289 0.0283331 -1.08131e-08)
(-0.151043 0.0291719 -1.91282e-08)
(-0.111433 0.0300887 -5.20097e-08)
(-0.0727648 0.0314334 -9.57096e-08)
(-0.0454372 0.0332627 -1.44714e-07)
(-0.0273663 0.0350372 -1.91108e-07)
(-0.0100407 0.0364862 -2.44529e-07)
(-0.0302893 0.0388951 -2.44718e-07)
(0.0242223 0.0388559 -2.41237e-07)
(1.82118 -9.41186e-07 3.87307e-10)
(1.84837 2.59101e-05 6.23003e-10)
(1.84785 5.40324e-05 5.6439e-10)
(1.84581 0.000119426 2.26794e-10)
(1.83944 0.000317213 -1.00431e-09)
(1.81761 0.00096518 -5.38171e-09)
(1.71935 0.00343291 -2.21987e-08)
(1.18512 0.0156791 -8.86446e-08)
(-0.168037 0.0797356 -2.17622e-07)
(-0.654887 0.0919065 1.90106e-07)
(-0.374995 0.0699327 1.27765e-07)
(-0.312591 0.066535 2.11088e-08)
(-0.323199 0.0645674 -4.73083e-09)
(-0.310932 0.0635908 8.39495e-10)
(-0.28136 0.0632839 -2.33626e-08)
(-0.238744 0.0639983 -2.44574e-08)
(-0.190799 0.0642766 -1.80079e-08)
(-0.147236 0.0653196 -2.304e-08)
(-0.107414 0.0671746 -5.23307e-08)
(-0.0684214 0.0701479 -9.76379e-08)
(-0.0412844 0.0746055 -1.46667e-07)
(-0.0240102 0.0793492 -1.9091e-07)
(-0.00690379 0.0828675 -2.42983e-07)
(-0.0286791 0.0883587 -2.37645e-07)
(0.0248008 0.087524 -2.25569e-07)
(1.82121 -3.53346e-06 1.72662e-10)
(1.8484 3.92508e-05 3.51434e-10)
(1.84789 8.42789e-05 2.95064e-10)
(1.84595 0.000192367 -1.64605e-11)
(1.83992 0.000521327 -1.08634e-09)
(1.81942 0.001593 -4.81707e-09)
(1.72821 0.00564692 -1.81685e-08)
(1.23445 0.0258795 -6.67962e-08)
(-0.111389 0.131895 -1.60824e-07)
(-0.648346 0.158772 1.44312e-07)
(-0.380791 0.11704 7.73618e-08)
(-0.306287 0.111738 -1.09291e-08)
(-0.317361 0.109155 -1.212e-08)
(-0.305751 0.108068 9.87736e-09)
(-0.276476 0.108355 -3.55327e-08)
(-0.233727 0.109889 -4.10638e-08)
(-0.185778 0.110412 -3.21271e-08)
(-0.141539 0.111824 -3.52331e-08)
(-0.101336 0.114842 -5.34983e-08)
(-0.0616582 0.119414 -9.66207e-08)
(-0.0341689 0.126375 -1.43084e-07)
(-0.0178391 0.134331 -1.82664e-07)
(-0.000833925 0.14012 -2.36159e-07)
(-0.0254874 0.150273 -2.26097e-07)
(0.0257007 0.14856 -2.23696e-07)
(1.82124 -7.90071e-06 2.81154e-10)
(1.84844 4.32933e-05 3.93034e-10)
(1.84796 9.81978e-05 3.34156e-10)
(1.84615 0.000238874 1.28808e-11)
(1.8406 0.00066994 -9.67002e-10)
(1.82196 0.00205209 -4.24457e-09)
(1.74066 0.00719886 -1.49867e-08)
(1.30402 0.0329158 -5.12101e-08)
(-0.0209671 0.169016 -8.22809e-08)
(-0.638653 0.22854 1.85833e-07)
(-0.391891 0.165094 3.08293e-08)
(-0.296635 0.156076 -4.31661e-08)
(-0.308891 0.152434 -1.94436e-09)
(-0.298532 0.150668 8.64011e-08)
(-0.26963 0.151542 6.01484e-09)
(-0.226544 0.154041 -3.03116e-08)
(-0.178718 0.155232 -4.47904e-08)
(-0.133445 0.157327 -5.89909e-08)
(-0.0925125 0.161814 -6.0527e-08)
(-0.0517026 0.168439 -9.826e-08)
(-0.0233403 0.17815 -1.42228e-07)
(-0.00819495 0.190368 -1.7101e-07)
(0.00982361 0.198723 -2.37258e-07)
(-0.0192273 0.215296 -2.03631e-07)
(0.0273362 0.213146 -2.31771e-07)
(1.82126 -1.29973e-05 6.70251e-11)
(1.84847 3.8456e-05 -1.35797e-10)
(1.84803 9.80162e-05 -2.91061e-10)
(1.8464 0.000265394 -9.81529e-10)
(1.84142 0.000774027 -3.09023e-09)
(1.82495 0.00235815 -1.05539e-08)
(1.75522 0.00813577 -4.04762e-08)
(1.3845 0.0367852 -2.08455e-07)
(0.104937 0.189615 -7.70188e-07)
(-0.618009 0.300392 5.46826e-07)
(-0.410373 0.213245 -7.0184e-08)
(-0.285545 0.199916 -2.55837e-08)
(-0.298379 0.195272 8.92364e-08)
(-0.289536 0.192331 -4.73421e-08)
(-0.261204 0.194261 4.73384e-08)
(-0.217857 0.197401 -2.41809e-08)
(-0.16998 0.199483 -2.93687e-08)
(-0.123211 0.20235 -3.73545e-08)
(-0.0811515 0.208394 -5.94234e-08)