/*--------------------------------*- C++ -*----------------------------------*\
| =========                 |                                                 |
| \\      /  F ield         | OpenFOAM: The Open Source CFD Toolbox           |
|  \\    /   O peration     | Version:  4.1                                   |
|   \\  /    A nd           | Web:      www.OpenFOAM.org                      |
|    \\/     M anipulation  |                                                 |
\*---------------------------------------------------------------------------*/
FoamFile
{
    version     2.0;
    format      ascii;
    class       volVectorField;
    location    "7.5";
    object      U;
}
// * * * * * * * * * * * * * * * * * * * * * * * * * * * * * * * * * * * * * //

dimensions      [0 1 -1 0 0 0 0];

internalField   nonuniform List<vector> 
500
(
(3.00001 -6.153e-08 4.38078e-17)
(3 -5.26352e-08 8.52792e-20)
(3 -1.97652e-08 9.95168e-18)
(3 -1.1892e-08 1.32568e-24)
(3 -4.48907e-09 1.23358e-23)
(3.00001 -2.08233e-07 4.35811e-17)
(3 -1.80096e-07 1.72344e-19)
(3 -6.92144e-08 1.00384e-17)
(3 -3.87752e-08 1.51734e-17)
(3 -1.34419e-08 1.23431e-23)
(3.00002 -4.40192e-07 8.67024e-17)
(3.00001 -3.84739e-07 2.633e-19)
(3 -1.50151e-07 1.03732e-17)
(3 -7.94025e-08 2.9786e-17)
(3 -2.6107e-08 1.31442e-23)
(3.00002 -7.59379e-07 8.63164e-17)
(3.00001 -6.70462e-07 1.5442e-17)
(3.00001 -2.64555e-07 3.02677e-17)
(3.00001 -1.32847e-07 2.88397e-17)
(3.00001 -4.21147e-08 2.2861e-23)
(3.00003 -1.16822e-06 4.31267e-17)
(3.00001 -1.04074e-06 3.02205e-17)
(3.00001 -4.14313e-07 1.07637e-17)
(3.00001 -1.98893e-07 2.7905e-17)
(3.00001 -6.13401e-08 2.44874e-23)
(3.00003 -1.66941e-06 4.30542e-17)
(3.00001 -1.49891e-06 3.02222e-17)
(3.00001 -6.01162e-07 3.0396e-17)
(3.00001 -2.7755e-07 2.65619e-17)
(3.00001 -8.37882e-08 -1.27224e-17)
(3.00004 -2.26576e-06 4.29805e-17)
(3.00002 -2.04827e-06 3.022e-17)
(3.00001 -8.26775e-07 3.00305e-17)
(3.00001 -3.68938e-07 1.05181e-17)
(3.00001 -1.09544e-07 -1.27224e-17)
(3.00004 -2.96025e-06 4.29051e-17)
(3.00002 -2.69197e-06 3.02142e-17)
(3.00001 -1.09272e-06 2.96494e-17)
(3.00001 -4.7329e-07 9.71883e-18)
(3.00001 -1.38732e-07 -1.27223e-17)
(3.00004 -3.75592e-06 9.35408e-19)
(3.00002 -3.43317e-06 3.03931e-17)
(3.00001 -1.40052e-06 4.79697e-17)
(3.00001 -5.90862e-07 -5.59671e-18)
(3.00001 -1.71512e-07 -1.27223e-17)
(3.00005 -4.65587e-06 4.27538e-17)
(3.00002 -4.27485e-06 3.05629e-17)
(3.00002 -1.75159e-06 4.69105e-17)
(3.00001 -7.21963e-07 -6.29604e-18)
(3.00001 -2.08058e-07 -2.51519e-17)
(3.00005 -5.66325e-06 1.2969e-18)
(3.00003 -5.21999e-06 3.05261e-17)
(3.00002 -2.14729e-06 2.70771e-17)
(3.00002 -8.6688e-07 -7.43419e-18)
(3.00002 -2.48557e-07 -3.75057e-17)
(3.00006 -6.78119e-06 1.48232e-18)
(3.00003 -6.27141e-06 3.02848e-17)
(3.00002 -2.5889e-06 8.01569e-18)
(3.00002 -1.02591e-06 5.68057e-18)
(3.00002 -2.93206e-07 -3.75055e-17)
(3.00007 -8.01287e-06 8.33705e-17)
(3.00003 -7.43189e-06 3.00371e-17)
(3.00002 -3.07759e-06 7.64073e-18)
(3.00002 -1.19933e-06 -1.00884e-17)
(3.00002 -3.42201e-07 -3.75054e-17)
(3.00007 -9.36135e-06 8.31988e-17)
(3.00003 -8.70403e-06 5.76078e-17)
(3.00002 -3.61444e-06 -1.14159e-17)
(3.00002 -1.38736e-06 -2.4709e-17)
(3.00002 -3.95746e-07 -2.53853e-17)
(3.00008 -1.08298e-05 1.63448e-16)
(3.00004 -1.00903e-05 2.89782e-17)
(3.00003 -4.20041e-06 -1.17027e-17)
(3.00002 -1.59022e-06 -2.47355e-17)
(3.00002 -4.54037e-07 -2.53852e-17)
(3.00008 -1.2421e-05 1.62517e-16)
(3.00004 -1.15931e-05 2.84996e-17)
(3.00003 -4.83638e-06 -1.2293e-17)
(3.00002 -1.80806e-06 -3.85825e-17)
(3.00002 -5.17276e-07 -2.53851e-17)
(3.00009 -1.41381e-05 1.61569e-16)
(3.00004 -1.32146e-05 2.7803e-17)
(3.00003 -5.52305e-06 -3.05914e-17)
(3.00003 -2.041e-06 -3.80422e-17)
(3.00003 -5.85654e-07 -2.5385e-17)
(3.00009 -1.59837e-05 1.60606e-16)
(3.00005 -1.49567e-05 2.70977e-17)
(3.00003 -6.26103e-06 -3.05783e-17)
(3.00003 -2.28909e-06 -3.7514e-17)
(3.00003 -6.59363e-07 -2.53849e-17)
(3.0001 -1.79606e-05 1.59625e-16)
(3.00005 -1.68212e-05 2.65984e-17)
(3.00003 -7.05076e-06 -1.30753e-17)
(3.00003 -2.55238e-06 -3.69983e-17)
(3.00003 -7.38587e-07 -2.53848e-17)
(3.0001 -2.00713e-05 1.58825e-16)
(3.00005 -1.88096e-05 5.27093e-17)
(3.00004 -7.89253e-06 -3.16544e-17)
(3.00003 -2.8308e-06 -4.93809e-17)
(3.00003 -8.23504e-07 -1.37614e-17)
(3.00011 -2.23181e-05 2.34996e-16)
(3.00006 -2.09232e-05 2.5199e-17)
(3.00004 -8.78647e-06 -1.50404e-17)
(3.00004 -3.12427e-06 -6.10872e-17)
(3.00003 -9.14284e-07 -1.37613e-17)
(3.00011 -2.47031e-05 3.10163e-16)
(3.00006 -2.31629e-05 5.13113e-17)
(3.00004 -9.73253e-06 7.92605e-19)
(3.00004 -3.43263e-06 -7.21253e-17)
(3.00004 -1.01109e-06 -1.37613e-17)
(3.00012 -2.72283e-05 3.08111e-16)
(3.00006 -2.55294e-05 5.06159e-17)
(3.00004 -1.07305e-05 -9.92561e-19)
(3.00004 -3.75568e-06 -6.94517e-17)
(3.00004 -1.11408e-06 -1.37612e-17)
(3.00012 -2.98954e-05 3.81406e-16)
(3.00007 -2.8023e-05 4.96633e-17)
(3.00005 -1.17799e-05 -1.97201e-17)
(3.00004 -4.09315e-06 -6.78839e-17)
(3.00004 -1.22338e-06 -3.60461e-17)
(3.00013 -3.27056e-05 3.03911e-16)
(3.00007 -3.06438e-05 4.86985e-17)
(3.00005 -1.28802e-05 -2.02421e-17)
(3.00004 -4.44471e-06 -3.9657e-17)
(3.00004 -1.33915e-06 -1.34962e-17)
(3.00013 -3.56602e-05 3.75691e-16)
(3.00007 -3.33912e-05 2.21568e-17)
(3.00005 -1.40305e-05 -2.01081e-17)
(3.00005 -4.80998e-06 -1.51483e-17)
(3.00005 -1.46148e-06 -5.79071e-17)
(3.00014 -3.87598e-05 3.72452e-16)
(3.00008 -3.62645e-05 -3.80203e-18)
(3.00006 -1.52299e-05 -2.00618e-17)
(3.00005 -5.1885e-06 -1.83702e-17)
(3.00005 -1.5905e-06 -8.00594e-17)
(3.00014 -4.2005e-05 3.69174e-16)
(3.00008 -3.92624e-05 -4.03982e-18)
(3.00006 -1.64769e-05 -2.01016e-17)
(3.00005 -5.57978e-06 -2.14876e-17)
(3.00005 -1.72629e-06 -8.01867e-17)
(3.00015 -4.53958e-05 3.65848e-16)
(3.00008 -4.23833e-05 -4.29127e-18)
(3.00006 -1.77702e-05 -2.09499e-17)
(3.00006 -5.98322e-06 -5.03011e-17)
(3.00005 -1.86893e-06 -1.0187e-16)
(3.00015 -4.89317e-05 3.62467e-16)
(3.00009 -4.5625e-05 -4.06853e-18)
(3.00006 -1.9108e-05 1.03986e-17)
(3.00006 -6.39821e-06 -5.18729e-17)
(3.00006 -2.01849e-06 -8.04694e-17)
(3.00016 -5.26123e-05 2.88108e-16)
(3.00009 -4.89848e-05 -3.87376e-18)
(3.00007 -2.04884e-05 8.54023e-18)
(3.00006 -6.82407e-06 -5.33882e-17)
(3.00006 -2.17501e-06 -8.04775e-17)
(3.00016 -5.6436e-05 2.85312e-16)
(3.00009 -5.24598e-05 -4.20412e-18)
(3.00007 -2.19092e-05 -2.49225e-17)
(3.00007 -7.26001e-06 -5.37143e-17)
(3.00006 -2.33851e-06 -5.94407e-17)
(3.00017 -6.04015e-05 3.52145e-16)
(3.0001 -5.60461e-05 -4.0589e-18)
(3.00008 -2.33679e-05 4.81963e-18)
(3.00007 -7.7053e-06 -7.66044e-17)
(3.00007 -2.50901e-06 -3.85987e-17)
(3.00017 -6.45064e-05 3.48306e-16)
(3.0001 -5.97398e-05 -5.09494e-17)
(3.00008 -2.48619e-05 3.3333e-17)
(3.00007 -8.159e-06 -7.56348e-17)
(3.00007 -2.6865e-06 -5.92426e-17)
(3.00018 -6.87483e-05 3.44024e-16)
(3.00011 -6.3536e-05 -9.66179e-17)
(3.00008 -2.63883e-05 3.06772e-17)
(3.00008 -8.62027e-06 -5.1485e-17)
(3.00007 -2.87095e-06 -5.92422e-17)
(3.00018 -7.31242e-05 2.72152e-16)
(3.00011 -6.74297e-05 -9.45034e-17)
(3.00009 -2.7944e-05 2.80813e-17)
(3.00008 -9.08811e-06 -5.07632e-17)
(3.00008 -3.0623e-06 -3.89996e-17)
(3.00019 -7.76301e-05 2.68455e-16)
(3.00012 -7.14149e-05 -9.24407e-17)
(3.00009 -2.95256e-05 2.48092e-17)
(3.00008 -9.56152e-06 -7.27813e-17)
(3.00008 -3.26049e-06 -3.89994e-17)
(3.00019 -8.22624e-05 2.64693e-16)
(3.00012 -7.54855e-05 -9.0443e-17)
(3.00009 -3.11294e-05 2.09128e-17)
(3.00009 -1.00395e-05 -9.3214e-17)
(3.00009 -3.46541e-06 -3.89991e-17)
(3.0002 -8.7016e-05 2.60412e-16)
(3.00012 -7.96347e-05 -1.34126e-16)
(3.0001 -3.2752e-05 -1.21857e-17)
(3.00009 -1.05209e-05 -8.99154e-17)
(3.00009 -3.67698e-06 -3.8999e-17)
(3.0002 -9.18861e-05 2.55161e-16)
(3.00013 -8.38549e-05 -2.21128e-16)
(3.0001 -3.4389e-05 -1.39842e-17)
(3.0001 -1.10047e-05 -6.4829e-17)
(3.00009 -3.89502e-06 -3.89989e-17)
(3.0002 -9.6867e-05 1.22313e-16)
(3.00013 -8.81387e-05 -1.73714e-16)
(3.00011 -3.60364e-05 -4.29014e-17)
(3.0001 -1.14897e-05 -1.98551e-17)
(3.0001 -4.1194e-06 -3.89994e-17)
(3.00021 -0.000101952 2.45676e-16)
(3.00014 -9.24775e-05 -1.70705e-16)
(3.00011 -3.769e-05 -1.45458e-17)
(3.0001 -1.19747e-05 -4.37148e-17)
(3.0001 -4.34993e-06 -5.79996e-17)
(3.00021 -0.000107136 2.40929e-16)
(3.00014 -9.68626e-05 -1.67185e-16)
(3.00012 -3.93452e-05 1.24186e-17)
(3.00011 -1.24587e-05 -4.46626e-17)
(3.00011 -4.58641e-06 -5.80035e-17)
(3.00022 -0.00011241 2.36623e-16)
(3.00015 -0.000101285 -1.2162e-16)
(3.00012 -4.09975e-05 -1.58852e-17)
(3.00011 -1.29403e-05 -3.80824e-18)
(3.00011 -4.82862e-06 -5.80108e-17)
(3.00022 -0.000117767 3.54546e-16)
(3.00015 -0.000105735 -1.20574e-16)
(3.00013 -4.26421e-05 -7.03156e-17)
(3.00012 -1.34185e-05 -7.49037e-18)
(3.00012 -5.07631e-06 -5.80223e-17)
(3.00023 -0.0001232 4.68977e-16)
(3.00016 -0.000110202 -1.61603e-16)
(3.00013 -4.42744e-05 -9.50996e-17)
(3.00012 -1.38921e-05 -1.0976e-17)
(3.00012 -5.32923e-06 -5.80375e-17)
(3.00023 -0.0001287 5.8048e-16)
(3.00016 -0.000114677 -1.60107e-16)
(3.00014 -4.58895e-05 -9.05354e-17)
(3.00013 -1.43599e-05 2.34184e-17)
(3.00013 -5.58709e-06 -9.3902e-17)
(3.00024 -0.000134258 6.88596e-16)
(3.00017 -0.000119149 -1.99072e-16)
(3.00014 -4.74826e-05 -8.55245e-17)
(3.00013 -1.48209e-05 3.74554e-17)
(3.00013 -5.84958e-06 -5.85059e-17)
(3.00024 -0.000139864 6.76903e-16)
(3.00017 -0.000123608 -2.36588e-16)
(3.00015 -4.90489e-05 -8.09039e-17)
(3.00014 -1.52738e-05 3.05916e-17)
(3.00014 -6.11644e-06 -5.8515e-17)
(3.00024 -0.000145511 6.65244e-16)
(3.00018 -0.000128042 -2.33144e-16)
(3.00015 -5.05838e-05 -7.65545e-17)
(3.00014 -1.57178e-05 2.66388e-17)
(3.00014 -6.38727e-06 -2.39846e-17)
(3.00025 -0.000151187 6.53556e-16)
(3.00018 -0.00013244 -2.2909e-16)
(3.00016 -5.20824e-05 -4.71534e-17)
(3.00015 -1.61518e-05 2.29186e-17)
(3.00015 -6.6618e-06 -2.39755e-17)
(3.00025 -0.000156884 5.28869e-16)
(3.00019 -0.000136792 -3.01952e-16)
(3.00016 -5.35401e-05 -4.44737e-17)
(3.00016 -1.65748e-05 1.68933e-17)
(3.00015 -6.93963e-06 -5.76014e-17)
(3.00026 -0.000162592 4.07187e-16)
(3.0002 -0.000141087 -2.96086e-16)
(3.00017 -5.49527e-05 -4.21004e-17)
(3.00016 -1.6986e-05 1.12332e-17)
(3.00016 -7.22041e-06 -5.75771e-17)
(3.00026 -0.0001683 3.97458e-16)
(3.0002 -0.000145314 -2.91303e-16)
(3.00018 -5.63155e-05 -8.855e-17)
(3.00017 -1.73845e-05 5.92343e-18)
(3.00017 -7.50381e-06 -5.75494e-17)
(3.00027 -0.000174 6.0256e-16)
(3.00021 -0.000149463 -2.86397e-16)
(3.00018 -5.76251e-05 -8.30427e-17)
(3.00017 -1.77698e-05 3.6787e-17)
(3.00017 -7.78943e-06 -5.75211e-17)
(3.00027 -0.00017968 5.89898e-16)
(3.00021 -0.000153523 -2.81399e-16)
(3.00019 -5.88769e-05 -7.81391e-17)
(3.00018 -1.81409e-05 2.67336e-17)
(3.00018 -8.07689e-06 -8.93469e-17)
(3.00028 -0.000185331 5.76237e-16)
(3.00022 -0.000157484 -3.46868e-16)
(3.0002 -6.00684e-05 -2.55706e-17)
(3.00019 -1.84977e-05 5.71809e-17)
(3.00019 -8.3659e-06 -2.65184e-17)
(3.00028 -0.000190943 6.64437e-16)
(3.00023 -0.000161337 -4.09498e-16)
(3.0002 -6.11954e-05 -2.21898e-17)
(3.00019 -1.88395e-05 4.77699e-17)
(3.00019 -8.65598e-06 -5.74502e-17)
(3.00028 -0.000196508 6.48462e-16)
(3.00023 -0.000165072 -3.99755e-16)
(3.00021 -6.22558e-05 -2.08963e-17)
(3.0002 -1.9166e-05 5.34537e-18)
(3.0002 -8.94688e-06 -5.74352e-17)
(3.00029 -0.000202016 6.31718e-16)
(3.00024 -0.000168682 -4.57438e-16)
(3.00022 -6.3247e-05 2.44309e-17)
(3.00021 -1.94771e-05 4.3635e-20)
(3.00021 -9.23824e-06 -5.74242e-17)
(3.00029 -0.000207456 6.15286e-16)
(3.00024 -0.000172156 -4.44982e-16)
(3.00022 -6.41659e-05 2.45841e-17)
(3.00021 -1.97722e-05 2.76934e-17)
(3.00021 -9.5296e-06 -5.74156e-17)
(3.0003 -0.000212824 5.99138e-16)
(3.00025 -0.000175492 -4.32737e-16)
(3.00023 -6.5013e-05 2.44882e-17)
(3.00022 -2.00521e-05 2.28252e-17)
(3.00022 -9.82088e-06 -2.8266e-17)
(3.0003 -0.000218106 5.83208e-16)
(3.00026 -0.000178675 -4.21792e-16)
(3.00024 -6.5784e-05 -1.66364e-17)
(3.00023 -2.03159e-05 4.72732e-17)
(3.00023 -1.01115e-05 -5.69476e-17)
(3.00031 -0.000223301 7.54783e-16)
(3.00026 -0.000181708 -4.10939e-16)
(3.00024 -6.64809e-05 -1.4051e-17)
(3.00024 -2.05648e-05 3.54091e-17)
(3.00023 -1.04013e-05 -8.51659e-17)
(3.00031 -0.000228397 7.35105e-16)
(3.00027 -0.000184579 -4.63333e-16)
(3.00025 -6.71013e-05 -1.05776e-17)
(3.00024 -2.07983e-05 5.48764e-17)
(3.00024 -1.06901e-05 -8.5125e-17)
(3.00032 -0.000233387 7.1561e-16)
(3.00028 -0.000187285 -4.50832e-16)
(3.00026 -6.76452e-05 -9.44887e-18)
(3.00025 -2.10168e-05 1.21029e-17)
(3.00025 -1.09774e-05 -8.50748e-17)
(3.00032 -0.000238272 6.963e-16)
(3.00029 -0.000189828 -4.38442e-16)
(3.00027 -6.81155e-05 -8.84029e-18)
(3.00026 -2.12217e-05 3.01856e-18)
(3.00026 -1.12632e-05 -8.5045e-17)
(3.00033 -0.000243033 8.53369e-16)
(3.00029 -0.000192192 -3.67163e-16)
(3.00027 -6.85078e-05 -8.69183e-18)
(3.00027 -2.14116e-05 -5.33946e-18)
(3.00026 -1.15471e-05 -8.50502e-17)
(3.00034 -0.000247683 8.32464e-16)
(3.0003 -0.000194392 -3.55678e-16)
(3.00028 -6.88303e-05 2.91244e-17)
(3.00027 -2.15898e-05 -1.3012e-17)
(3.00027 -1.18291e-05 -8.50796e-17)
(3.00034 -0.0002522 8.12852e-16)
(3.00031 -0.000196411 -2.84918e-16)
(3.00029 -6.90773e-05 6.38202e-17)
(3.00028 -2.17543e-05 -2.00367e-17)
(3.00028 -1.21088e-05 -8.51142e-17)
(3.00035 -0.00025659 6.29662e-16)
(3.00032 -0.000198257 -2.18497e-16)
(3.0003 -6.92555e-05 2.21294e-17)
(3.00029 -2.19075e-05 -2.64536e-17)
(3.00029 -1.23862e-05 -8.51427e-17)
(3.00035 -0.000260853 6.14574e-16)
(3.00032 -0.000199934 -2.1109e-16)
(3.00031 -6.93678e-05 2.18131e-17)
(3.0003 -2.20505e-05 1.62044e-17)
(3.0003 -1.26614e-05 -1.3445e-16)
(3.00036 -0.000264968 5.98994e-16)
(3.00033 -0.000201423 -2.03958e-16)
(3.00031 -6.94084e-05 2.06434e-17)
(3.00031 -2.21811e-05 9.88627e-19)
(3.0003 -1.29334e-05 -1.34467e-16)
(3.00037 -0.000268964 5.83824e-16)
(3.00034 -0.00020276 -1.97155e-16)
(3.00032 -6.93954e-05 1.57594e-17)
(3.00031 -2.23057e-05 -6.42299e-17)
(3.00031 -1.32036e-05 -1.34481e-16)
(3.00037 -0.000272802 5.69147e-16)
(3.00035 -0.000203908 -1.90655e-16)
(3.00033 -6.9314e-05 1.06627e-17)
(3.00032 -2.24187e-05 -7.15116e-17)
(3.00032 -1.34704e-05 -1.34495e-16)
(3.00038 -0.000276507 7.0515e-16)
(3.00035 -0.000204895 -2.35626e-16)
(3.00034 -6.91791e-05 5.40364e-18)
(3.00033 -2.2525e-05 -7.8125e-17)
(3.00033 -1.37345e-05 -1.34506e-16)
(3.00039 -0.000280081 6.8716e-16)
(3.00036 -0.00020573 -2.28243e-16)
(3.00035 -6.89973e-05 2.64016e-18)
(3.00034 -2.2627e-05 -4.0569e-17)
(3.00034 -1.39965e-05 -1.79407e-16)
(3.00039 -0.000283482 8.14842e-16)
(3.00037 -0.000206372 -2.18944e-16)
(3.00035 -6.87499e-05 6.30988e-17)
(3.00035 -2.27172e-05 -5.54924e-17)
(3.00035 -1.42542e-05 -1.79411e-16)
(3.0004 -0.000286776 7.94193e-16)
(3.00038 -0.000206896 -2.07854e-16)
(3.00036 -6.84749e-05 1.16885e-16)
(3.00035 -2.2809e-05 -6.89649e-17)
(3.00035 -1.45106e-05 -1.7941e-16)
(3.0004 -0.000289903 7.73741e-16)
(3.00038 -0.000207243 -1.97316e-16)
(3.00037 -6.81447e-05 1.04773e-16)
(3.00036 -2.2892e-05 -8.11075e-17)
(3.00036 -1.47631e-05 -1.79404e-16)
(3.00041 -0.000292874 7.5377e-16)
(3.00039 -0.000207431 -1.85358e-16)
(3.00037 -6.77716e-05 1.5277e-16)
(3.00037 -2.29699e-05 -9.20357e-17)
(3.00037 -1.50124e-05 -1.79396e-16)
(3.00041 -0.000295748 7.34425e-16)
(3.00039 -0.000207521 -1.74223e-16)
(3.00038 -6.73822e-05 1.36629e-16)
(3.00037 -2.30517e-05 -1.01858e-16)
(3.00037 -1.52604e-05 -1.79384e-16)
(3.00042 -0.000298411 4.51159e-16)
(3.0004 -0.000207408 -2.53725e-16)
(3.00039 -6.69323e-05 1.21003e-16)
(3.00038 -2.31213e-05 -1.06141e-16)
(3.00038 -1.55031e-05 -1.39581e-16)
(3.00042 -0.000300974 4.36692e-16)
(3.0004 -0.000207202 -2.39145e-16)
(3.00039 -6.64695e-05 1.59312e-16)
(3.00038 -2.31937e-05 -1.55976e-16)
(3.00038 -1.57438e-05 -1.78524e-16)
(3.00042 -0.000303391 4.24529e-16)
(3.0004 -0.000206874 -1.3873e-16)
(3.00039 -6.599e-05 1.91043e-16)
(3.00039 -2.32699e-05 -1.9467e-16)
(3.00038 -1.59827e-05 -1.40368e-16)
(3.00042 -0.000305577 4.1453e-16)
(3.0004 -0.000206334 -4.31296e-17)
(3.00039 -6.54443e-05 1.65612e-16)
(3.00039 -2.3329e-05 -1.88158e-16)
(3.00039 -1.62144e-05 -1.40348e-16)
(3.00042 -0.00030765 4.04808e-16)
(3.0004 -0.000205713 -3.4237e-17)
(3.00039 -6.48982e-05 1.95178e-16)
(3.00038 -2.33932e-05 -1.73651e-16)
(3.00038 -1.64435e-05 -6.7306e-17)
(3.00041 -0.00030955 3.95333e-16)
(3.0004 -0.000204959 -2.8532e-17)
(3.00039 -6.43311e-05 1.21701e-16)
(3.00038 -2.34574e-05 -1.23088e-16)
(3.00038 -1.66692e-05 -6.73267e-17)
(3.00041 -0.000311278 3.86069e-16)
(3.00039 -0.000204082 -2.54886e-17)
(3.00038 -6.37442e-05 5.51454e-17)
(3.00038 -2.35177e-05 -1.1638e-16)
(3.00038 -1.68892e-05 -6.73808e-17)
(3.0004 -0.000312814 3.75282e-16)
(3.00039 -0.000203075 -9.79182e-17)
(3.00038 -6.31393e-05 9.03217e-17)
(3.00037 -2.35757e-05 -1.46388e-16)
(3.00037 -1.71035e-05 -6.74363e-17)
(3.00039 -0.000314132 3.64772e-16)
(3.00038 -0.000201926 -8.93411e-17)
(3.00037 -6.25095e-05 1.21652e-16)
(3.00036 -2.36263e-05 -1.36483e-16)
(3.00036 -1.73094e-05 -6.74493e-17)
(3.00038 -0.000315236 3.54447e-16)
(3.00037 -0.000200659 -8.15052e-17)
(3.00036 -6.18687e-05 1.09403e-16)
(3.00035 -2.36724e-05 -5.92027e-17)
(3.00035 -1.75062e-05 -6.73958e-17)
(3.00036 -0.000316059 3.42556e-16)
(3.00035 -0.000199232 -1.46165e-16)
(3.00034 -6.12019e-05 9.17937e-17)
(3.00034 -2.37086e-05 -1.35242e-16)
(3.00034 -1.76903e-05 -1.30294e-16)
(3.00035 -0.000316591 3.30843e-16)
(3.00034 -0.000197664 -1.3727e-16)
(3.00033 -6.05154e-05 7.52802e-17)
(3.00032 -2.37318e-05 -1.34509e-16)
(3.00032 -1.78582e-05 -1.30618e-16)
(3.00033 -0.000316797 3.19299e-16)
(3.00032 -0.000195956 -1.29466e-16)
(3.00031 -5.98124e-05 5.46412e-17)
(3.00031 -2.37398e-05 -2.05169e-16)
(3.00031 -1.80056e-05 -1.9123e-16)
(3.00031 -0.000316629 3.09457e-16)
(3.00031 -0.000194138 -5.95284e-17)
(3.0003 -5.91339e-05 -4.92819e-17)
(3.00029 -2.37472e-05 -2.02838e-16)
(3.00029 -1.81319e-05 -1.90874e-16)
(3.0003 -0.000316019 1.09412e-16)
(3.00029 -0.000192184 -6.25775e-17)
(3.00028 -5.84596e-05 -1.43614e-16)
(3.00028 -2.37372e-05 -2.08233e-16)
(3.00028 -1.8227e-05 -2.48129e-16)
(3.00029 -0.000314911 2.89352e-16)
(3.00028 -0.000190077 -6.55947e-17)
(3.00027 -5.77626e-05 -1.52595e-16)
(3.00027 -2.36885e-05 -2.71544e-16)
(3.00027 -1.82779e-05 -2.47269e-16)
(3.00028 -0.00031327 4.59652e-16)
(3.00028 -0.000187799 -6.8455e-17)
(3.00027 -5.70002e-05 -1.60238e-16)
(3.00027 -2.35718e-05 -2.67059e-16)
(3.00027 -1.8268e-05 -2.46017e-16)
(3.00023 -0.0003111 2.68343e-16)
(3.00023 -0.000185329 -6.76688e-17)
(3.00022 -5.60863e-05 -8.62148e-17)
(3.00022 -2.33635e-05 -2.13938e-16)
(3.00022 -1.82017e-05 -2.97561e-16)
)
;

boundaryField
{
    axis
    {
        type            empty;
    }
    inlet
    {
        type            fixedValue;
        value           uniform (3 0 0);
    }
    wall
    {
        type            zeroGradient;
    }
    outlet
    {
        type            zeroGradient;
    }
    front
    {
        type            wedge;
    }
    back
    {
        type            wedge;
    }
}


// ************************************************************************* //
