/*--------------------------------*- C++ -*----------------------------------*\
| =========                 |                                                 |
| \\      /  F ield         | OpenFOAM: The Open Source CFD Toolbox           |
|  \\    /   O peration     | Version:  4.1                                   |
|   \\  /    A nd           | Web:      www.OpenFOAM.org                      |
|    \\/     M anipulation  |                                                 |
\*---------------------------------------------------------------------------*/
FoamFile
{
    version     2.0;
    format      ascii;
    class       volVectorField;
    location    "8.04";
    object      U;
}
// * * * * * * * * * * * * * * * * * * * * * * * * * * * * * * * * * * * * * //

dimensions      [0 1 -1 0 0 0 0];

internalField   nonuniform List<vector> 
52500
(
(2.99999 1.38872e-08 -0.00571426)
(2.99998 7.74228e-08 -0.00571442)
(2.99995 2.87305e-07 -0.00571467)
(2.99987 7.38355e-07 -0.00571544)
(2.99971 2.02891e-06 -0.00571686)
(2.99924 4.64402e-06 -0.00572118)
(2.99833 1.20376e-05 -0.0057295)
(2.99553 2.70975e-05 -0.00575296)
(2.99049 6.93895e-05 -0.00580661)
(2.97232 0.000156748 -0.00592324)
(2.93853 0.000403229 -0.00632896)
(2.81587 0.00100679 -0.00697033)
(2.4737 0.0028774 -0.00973129)
(1.66972 0.00731433 -0.0149209)
(0.724722 0.0199173 -0.0180257)
(0.52533 0.0208297 -0.0184672)
(0.564965 0.0222097 -0.0185013)
(0.5692 0.024443 -0.0185693)
(0.519713 0.0267155 -0.0187469)
(0.434087 0.0290223 -0.0189289)
(0.34889 0.0317526 -0.0191263)
(0.277772 0.0350454 -0.0192966)
(0.206583 0.0385829 -0.0194623)
(0.124864 0.04278 -0.0196222)
(0.0556483 0.0490202 -0.0197866)
(2.99999 4.24597e-08 -0.00571426)
(2.99998 2.36373e-07 -0.00571442)
(2.99995 8.77691e-07 -0.00571466)
(2.99987 2.25356e-06 -0.00571543)
(2.99971 6.19725e-06 -0.00571683)
(2.99925 1.41734e-05 -0.0057211)
(2.99835 3.67946e-05 -0.00572932)
(2.99558 8.25965e-05 -0.00575249)
(2.9906 0.000212758 -0.00580558)
(2.97259 0.000477547 -0.00592071)
(2.93926 0.00124556 -0.00632319)
(2.81776 0.00308022 -0.00695319)
(2.47938 0.00895113 -0.00969602)
(1.68221 0.0227361 -0.0148416)
(0.732372 0.0608045 -0.017929)
(0.523204 0.0608001 -0.0183961)
(0.563929 0.0624259 -0.0184266)
(0.568685 0.0668504 -0.0184871)
(0.518872 0.0711716 -0.0186565)
(0.433131 0.0754671 -0.0188301)
(0.347937 0.0803565 -0.0190196)
(0.276305 0.0859087 -0.0191784)
(0.204048 0.0911309 -0.0193367)
(0.120984 0.0963133 -0.0194822)
(0.0514925 0.101943 -0.0196295)
(2.99999 7.2616e-08 -0.00571426)
(2.99998 4.04029e-07 -0.00571441)
(2.99995 1.49988e-06 -0.00571465)
(2.99988 3.84917e-06 -0.0057154)
(2.99972 1.05802e-05 -0.00571677)
(2.99927 2.41801e-05 -0.00572094)
(2.99839 6.27337e-05 -0.00572897)
(2.99568 0.0001406 -0.00575157)
(2.99082 0.000362348 -0.0058035)
(2.97316 0.000810445 -0.0059157)
(2.94077 0.00212631 -0.00631127)
(2.82177 0.0052064 -0.00691923)
(2.49163 0.0153575 -0.00962305)
(1.70997 0.0390139 -0.0146881)
(0.750501 0.105219 -0.0177901)
(0.520842 0.103239 -0.0183145)
(0.564318 0.104979 -0.0183401)
(0.570744 0.112561 -0.0183925)
(0.520932 0.120273 -0.0185531)
(0.43564 0.128509 -0.0187172)
(0.351042 0.137572 -0.0188967)
(0.279239 0.147408 -0.0190479)
(0.206086 0.156914 -0.0191881)
(0.121737 0.165771 -0.0193327)
(0.0506305 0.173154 -0.0194669)
(3 1.06867e-07 -0.00571426)
(2.99998 5.93472e-07 -0.00571441)
(2.99996 2.21082e-06 -0.00571464)
(2.99988 5.69061e-06 -0.00571536)
(2.99973 1.56864e-05 -0.00571667)
(2.99929 3.61155e-05 -0.0057207)
(2.99845 9.2908e-05 -0.00572844)
(2.99583 0.000215505 -0.00575018)
(2.99116 0.000519858 -0.00580037)
(2.97403 0.00124901 -0.00590818)
(2.94303 0.00299103 -0.00629324)
(2.8279 0.00737542 -0.00686895)
(2.51037 0.0216776 -0.00951163)
(1.75319 0.0551637 -0.0144548)
(0.778572 0.150538 -0.0176105)
(0.517291 0.145564 -0.018225)
(0.565854 0.147044 -0.0182454)
(0.575446 0.157741 -0.0182823)
(0.526149 0.168895 -0.018433)
(0.441961 0.181341 -0.0185848)
(0.35834 0.195032 -0.018747)
(0.286678 0.209734 -0.0188951)
(0.212708 0.224191 -0.0190299)
(0.12647 0.237459 -0.0191485)
(0.052025 0.247132 -0.0192938)
(3 1.34492e-07 -0.00571426)
(2.99998 7.45665e-07 -0.0057144)
(2.99996 2.78366e-06 -0.00571462)
(2.99989 7.16941e-06 -0.00571529)
(2.99974 1.98085e-05 -0.00571654)
(2.99933 4.57054e-05 -0.00572032)
(2.99854 0.000117834 -0.00572768)
(2.99603 0.000274123 -0.00574772)
(2.99168 0.000663554 -0.00579656)
(2.97519 0.0015757 -0.00589489)
(2.94601 0.00395779 -0.00627229)
(2.83609 0.00950549 -0.00680373)
(2.53534 0.0273138 -0.00936387)
(1.81234 0.0712726 -0.0141324)
(0.816152 0.196671 -0.017386)
(0.511967 0.187791 -0.0181292)
(0.568094 0.188717 -0.0181433)
(0.582272 0.202303 -0.0181624)
(0.533943 0.216688 -0.0182994)
(0.451581 0.233225 -0.0184426)
(0.369511 0.251648 -0.0185875)
(0.298316 0.271637 -0.0186998)
(0.22345 0.2918 -0.0188313)
(0.134535 0.310395 -0.0189576)
(0.055483 0.323151 -0.0190734)
(3 1.46134e-07 -0.00571425)
(2.99998 8.08926e-07 -0.00571439)
(2.99996 3.02064e-06 -0.00571459)
(2.99989 7.74979e-06 -0.00571522)
(2.99976 2.14487e-05 -0.00571639)
(2.99938 4.9142e-05 -0.0057199)
(2.99864 0.000128994 -0.00572681)
(2.99628 0.000288165 -0.00574522)
(2.99225 0.000765258 -0.00579163)
(2.97674 0.0016566 -0.00588138)
(2.94981 0.00483714 -0.00623883)
(2.84583 0.0108618 -0.00672034)
(2.5674 0.0345288 -0.00918725)
(1.88789 0.088043 -0.0137291)
(0.860755 0.246048 -0.017116)
(0.502677 0.231513 -0.01803)
(0.569893 0.230454 -0.0180388)
(0.590538 0.246408 -0.018033)
(0.543911 0.263761 -0.0181597)
(0.464356 0.284608 -0.0182716)
(0.384612 0.308331 -0.018418)
(0.314535 0.334509 -0.0185184)
(0.239227 0.361771 -0.0186111)
(0.146909 0.38792 -0.0187121)
(0.0611362 0.406125 -0.0188459)
(3 1.47604e-07 -0.00571425)
(2.99999 8.15834e-07 -0.00571438)
(2.99996 3.04209e-06 -0.00571456)
(2.9999 7.75595e-06 -0.00571515)
(2.99978 2.14623e-05 -0.00571623)
(2.99942 4.85619e-05 -0.00571949)
(2.99874 0.000130726 -0.00572587)
(2.99656 0.000272322 -0.00574297)
(2.99283 0.000832732 -0.00578562)
(2.97853 0.00155669 -0.00586903)
(2.95388 0.0056468 -0.00619652)
(2.85881 0.0114297 -0.00664373)
(2.60749 0.0429259 -0.0088896)
(1.98292 0.104058 -0.0131718)
(0.922624 0.296477 -0.0167617)
(0.498768 0.277428 -0.0179009)
(0.576877 0.272842 -0.0179123)
(0.604123 0.290027 -0.0178888)
(0.558932 0.309724 -0.0180098)
(0.482623 0.334937 -0.0181019)
(0.405766 0.36469 -0.0181928)
(0.337312 0.398497 -0.0182811)
(0.262046 0.435038 -0.0183614)
(0.166183 0.472189 -0.0184351)
(0.0711397 0.500836 -0.0185232)
(3 1.59768e-07 -0.00571425)
(2.99999 8.83493e-07 -0.00571437)
(2.99997 3.28719e-06 -0.00571454)
(2.99991 8.38841e-06 -0.00571508)
(2.9998 2.31535e-05 -0.00571608)
(2.99947 5.2404e-05 -0.00571912)
(2.99882 0.000140905 -0.00572491)
(2.99687 0.000291198 -0.00574153)
(2.99332 0.000915649 -0.00577844)
(2.98068 0.00156782 -0.00586082)
(2.95825 0.00644273 -0.00613795)
(2.87433 0.0121825 -0.00656517)
(2.655 0.048108 -0.00849561)
(2.0968 0.115518 -0.0124543)
(1.00649 0.340005 -0.0163233)
(0.50976 0.325556 -0.0177238)
(0.594082 0.318837 -0.0177316)
(0.626609 0.334721 -0.0176935)
(0.582201 0.355228 -0.0178127)
(0.509334 0.384541 -0.0179129)
(0.435566 0.420835 -0.0179923)
(0.369395 0.463559 -0.0180191)
(0.295413 0.512044 -0.0180547)
(0.196878 0.565771 -0.0180858)
(0.0888058 0.615515 -0.0181503)
(3 1.87447e-07 -0.00571425)
(2.99999 1.03111e-06 -0.00571435)
(2.99997 3.82733e-06 -0.00571451)
(2.99992 9.81083e-06 -0.005715)
(2.99982 2.69595e-05 -0.00571589)
(2.99952 6.15957e-05 -0.00571863)
(2.99894 0.000161605 -0.00572383)
(2.99721 0.000353178 -0.00573904)
(2.99389 0.000985148 -0.00577088)
(2.98306 0.00192476 -0.0058498)
(2.96294 0.0065655 -0.00607484)
(2.89097 0.0127672 -0.00647861)
(2.70571 0.0473535 -0.00807545)
(2.22425 0.114779 -0.0116294)
(1.11624 0.349227 -0.0157934)
(0.548405 0.369911 -0.0175007)
(0.626213 0.370363 -0.0175263)
(0.659743 0.380897 -0.0174688)
(0.616327 0.400833 -0.0175766)
(0.547638 0.433656 -0.0176342)
(0.477255 0.47716 -0.0177125)
(0.414061 0.529075 -0.0177276)
(0.344312 0.591676 -0.0176999)
(0.248689 0.67092 -0.0176345)
(0.122987 0.764201 -0.0175213)
(3 3.48028e-07 -0.00571425)
(2.99999 6.56155e-07 -0.00571434)
(2.99997 5.12993e-06 -0.00571448)
(2.99993 7.72376e-06 -0.0057149)
(2.99984 3.49281e-05 -0.00571569)
(2.99958 5.00292e-05 -0.00571805)
(2.99907 0.00021008 -0.00572265)
(2.99755 0.000283091 -0.00573579)
(2.99463 0.00128867 -0.00576386)
(2.98528 0.00137175 -0.00583306)
(2.96747 0.00869673 -0.00602485)
(2.90616 0.00690895 -0.00639512)
(2.7506 0.0559263 -0.00770954)
(2.33763 0.0887652 -0.0109661)
(1.24431 0.321233 -0.0152061)
(0.613675 0.410753 -0.0171741)
(0.663103 0.430859 -0.0172391)
(0.693959 0.427722 -0.0172635)
(0.657454 0.447756 -0.0173705)
(0.596408 0.482078 -0.0173915)
(0.531157 0.532064 -0.0173965)
(0.473192 0.592591 -0.0173632)
(0.415639 0.673956 -0.0172574)
(0.338468 0.795627 -0.0170411)
(0.189449 1.00256 -0.0166181)
(2.99999 1.42482e-08 -2.64233e-09)
(2.99998 7.74509e-08 -8.60768e-09)
(2.99995 2.8776e-07 -1.0185e-08)
(2.99987 7.38451e-07 -1.59269e-08)
(2.99971 2.0288e-06 -1.63146e-08)
(2.99924 4.64281e-06 -2.15935e-08)
(2.99833 1.2034e-05 -2.21792e-08)
(2.99553 2.70882e-05 -3.02672e-08)
(2.99048 6.93708e-05 -3.23033e-08)
(2.97231 0.000156702 -6.59754e-08)
(2.93852 0.000403172 -4.58821e-08)
(2.81585 0.0010067 -2.2043e-07)
(2.47366 0.00287727 -1.94707e-07)
(1.66962 0.00731442 -7.03977e-07)
(0.724675 0.0199168 -6.95231e-07)
(0.525364 0.02083 -1.07148e-08)
(0.564985 0.0222102 -5.05196e-08)
(0.569212 0.0244436 -9.75763e-08)
(0.519724 0.0267163 -1.00977e-07)
(0.434097 0.0290233 -1.02097e-07)
(0.348899 0.0317537 -1.01556e-07)
(0.277779 0.0350465 -1.05175e-07)
(0.206588 0.038584 -1.07979e-07)
(0.124867 0.0427813 -1.09941e-07)
(0.0556486 0.0490212 -1.11195e-07)
(2.99999 4.34862e-08 -2.63511e-09)
(2.99998 2.36519e-07 -8.61342e-09)
(2.99995 8.79058e-07 -1.01783e-08)
(2.99987 2.25395e-06 -1.59329e-08)
(2.99971 6.19723e-06 -1.63198e-08)
(2.99925 1.41709e-05 -2.16152e-08)
(2.99835 3.67868e-05 -2.22282e-08)
(2.99558 8.25806e-05 -3.0382e-08)
(2.99059 0.000212717 -3.24975e-08)
(2.97259 0.000477496 -6.65231e-08)
(2.93925 0.00124546 -4.61247e-08)
(2.81774 0.00308022 -2.21124e-07)
(2.47934 0.00895078 -1.94819e-07)
(1.6821 0.022736 -7.02725e-07)
(0.732327 0.0608014 -6.99902e-07)
(0.52324 0.060799 -6.42795e-09)
(0.56395 0.0624256 -4.88869e-08)
(0.568697 0.0668505 -9.66932e-08)
(0.518884 0.0711724 -9.98659e-08)
(0.433142 0.0754687 -1.00847e-07)
(0.347947 0.0803586 -1.00589e-07)
(0.276312 0.0859111 -1.04363e-07)
(0.204053 0.0911335 -1.07204e-07)
(0.120987 0.096316 -1.09098e-07)
(0.0514928 0.101945 -1.1028e-07)
(2.99999 7.42303e-08 -2.6218e-09)
(2.99998 4.04066e-07 -8.62281e-09)
(2.99995 1.50102e-06 -1.01656e-08)
(2.99987 3.84669e-06 -1.59433e-08)
(2.99972 1.05709e-05 -1.63256e-08)
(2.99927 2.41509e-05 -2.1644e-08)
(2.99839 6.26651e-05 -2.22881e-08)
(2.99568 0.000140351 -3.04339e-08)
(2.99081 0.000362177 -3.2797e-08)
(2.97316 0.000808876 -6.62504e-08)
(2.94076 0.00212659 -4.67379e-08)
(2.82175 0.00520499 -2.19191e-07)
(2.49158 0.0153585 -1.9798e-07)
(1.70986 0.0390154 -7.06328e-07)
(0.750453 0.105217 -7.23013e-07)
(0.520876 0.10324 1.42195e-10)
(0.564338 0.10498 -4.65879e-08)
(0.570755 0.112562 -9.49791e-08)
(0.520943 0.120275 -9.73658e-08)
(0.43565 0.128512 -9.77544e-08)
(0.351051 0.137576 -9.84743e-08)
(0.279246 0.147413 -1.02531e-07)
(0.206091 0.156919 -1.05603e-07)
(0.12174 0.165776 -1.07604e-07)
(0.0506308 0.173157 -1.09063e-07)
(2.99999 1.09637e-07 -2.60293e-09)
(2.99998 5.94119e-07 -8.6411e-09)
(2.99995 2.21591e-06 -1.01643e-08)
(2.99988 5.69046e-06 -1.60012e-08)
(2.99973 1.56946e-05 -1.64635e-08)
(2.99929 3.6117e-05 -2.20142e-08)
(2.99844 9.29128e-05 -2.30269e-08)
(2.99583 0.000215508 -3.39649e-08)
(2.99115 0.000519833 -3.13064e-08)
(2.97403 0.0012493 -9.33847e-08)
(2.94302 0.00298948 -1.59686e-08)
(2.82788 0.00737627 -2.47246e-07)
(2.51033 0.021675 -1.62759e-07)
(1.75309 0.0551602 -7.04327e-07)
(0.77854 0.150528 -7.42515e-07)
(0.517343 0.145562 1.22969e-08)
(0.565885 0.147045 -4.6071e-08)
(0.575466 0.157743 -9.54292e-08)
(0.526167 0.168898 -9.60193e-08)
(0.441977 0.181345 -9.3832e-08)
(0.358354 0.195037 -9.54675e-08)
(0.286688 0.209741 -9.99852e-08)
(0.212715 0.224198 -1.03458e-07)
(0.126474 0.237465 -1.05453e-07)
(0.0520258 0.247137 -1.07572e-07)
(2.99999 1.38035e-07 -2.56642e-09)
(2.99998 7.47349e-07 -8.6586e-09)
(2.99996 2.79234e-06 -1.00904e-08)
(2.99989 7.16926e-06 -1.60373e-08)
(2.99974 1.98356e-05 -1.61856e-08)
(2.99933 4.57351e-05 -2.17536e-08)
(2.99854 0.00011791 -2.22525e-08)
(2.99603 0.000274357 -3.04747e-08)
(2.99168 0.000663676 -3.33652e-08)
(2.97518 0.00157748 -6.03101e-08)
(2.946 0.00395575 -7.98147e-08)
(2.83607 0.00950769 -1.82036e-07)
(2.53529 0.0273095 -2.32957e-07)
(1.81222 0.0712668 -7.43023e-07)
(0.816099 0.196654 -8.05128e-07)
(0.512005 0.187786 4.15174e-08)
(0.568114 0.188718 -3.00914e-08)
(0.582285 0.202306 -8.92467e-08)
(0.533958 0.216693 -9.05491e-08)
(0.451596 0.233232 -8.95802e-08)
(0.369525 0.251655 -9.07465e-08)
(0.298328 0.271646 -9.51236e-08)
(0.223459 0.29181 -9.9304e-08)
(0.13454 0.310404 -1.01972e-07)
(0.0554845 0.323158 -1.04944e-07)
(3 1.4936e-07 -2.53197e-09)
(2.99998 8.11398e-07 -8.66991e-09)
(2.99996 3.02557e-06 -1.0039e-08)
(2.99989 7.75247e-06 -1.61626e-08)
(2.99976 2.14604e-05 -1.59754e-08)
(2.99937 4.91541e-05 -2.18916e-08)
(2.99863 0.00012902 -2.21599e-08)
(2.99628 0.000288217 -3.07895e-08)
(2.99224 0.000765327 -3.32957e-08)
(2.97673 0.00165683 -6.15367e-08)
(2.9498 0.00483731 -8.23512e-08)
(2.84581 0.0108627 -1.82432e-07)
(2.56734 0.0345271 -2.44642e-07)
(1.88776 0.0880418 -7.68115e-07)
(0.860698 0.246032 -8.81485e-07)
(0.502711 0.231505 6.91444e-08)
(0.569906 0.230451 -1.52045e-08)
(0.590543 0.246408 -8.41395e-08)
(0.543919 0.263765 -8.47316e-08)
(0.464368 0.284614 -8.2152e-08)
(0.384624 0.30834 -8.2473e-08)
(0.314546 0.33452 -8.85148e-08)
(0.239236 0.361783 -9.36913e-08)
(0.146915 0.387932 -9.68869e-08)
(0.0611381 0.406134 -1.01271e-07)
(3 1.4988e-07 -2.50179e-09)
(2.99998 8.19472e-07 -8.66583e-09)
(2.99996 3.04073e-06 -1.0048e-08)
(2.9999 7.76706e-06 -1.60803e-08)
(2.99978 2.14529e-05 -1.60208e-08)
(2.99942 4.85643e-05 -2.1719e-08)
(2.99873 0.000130709 -2.1994e-08)
(2.99656 0.00027224 -2.99067e-08)
(2.99282 0.000832783 -3.30248e-08)
(2.97852 0.00155558 -5.70858e-08)
(2.95387 0.00564897 -8.0877e-08)
(2.85879 0.0114289 -1.68888e-07)
(2.60744 0.0429302 -2.74336e-07)
(1.98279 0.104066 -7.7213e-07)
(0.922554 0.296474 -9.91377e-07)
(0.498789 0.277423 7.69881e-08)
(0.57688 0.272837 -7.46503e-09)
(0.604119 0.290026 -8.15004e-08)
(0.558933 0.309725 -8.22485e-08)
(0.482629 0.334941 -7.8283e-08)
(0.405775 0.364699 -7.56144e-08)
(0.337321 0.398508 -8.07895e-08)
(0.262054 0.435052 -8.60389e-08)
(0.166189 0.472204 -8.95983e-08)
(0.0711418 0.500849 -9.48492e-08)
(3 1.62038e-07 -2.48624e-09)
(2.99999 8.87215e-07 -8.637e-09)
(2.99997 3.28732e-06 -1.0133e-08)
(2.99991 8.39958e-06 -1.59317e-08)
(2.99979 2.31567e-05 -1.63267e-08)
(2.99947 5.24322e-05 -2.17176e-08)
(2.99882 0.000140959 -2.24834e-08)
(2.99686 0.000291364 -3.20587e-08)
(2.99331 0.000915888 -3.09278e-08)
(2.98068 0.0015686 -8.34574e-08)
(2.95824 0.0064443 -2.62597e-08)
(2.87431 0.012185 -2.2732e-07)
(2.65496 0.0481116 -1.84767e-07)
(2.09668 0.115528 -7.44299e-07)
(1.00644 0.340011 -1.04494e-06)
(0.509786 0.325549 6.5138e-08)
(0.594089 0.318826 -1.61884e-08)
(0.626606 0.334715 -7.86603e-08)
(0.582201 0.355226 -7.87762e-08)
(0.509336 0.384544 -7.35815e-08)
(0.435572 0.420843 -7.05111e-08)
(0.369401 0.46357 -7.43685e-08)
(0.29542 0.512058 -7.86051e-08)
(0.196883 0.565787 -8.18131e-08)
(0.0888078 0.615531 -8.69983e-08)
(3 1.87253e-07 -2.45637e-09)
(2.99999 1.03413e-06 -8.63062e-09)
(2.99997 3.82429e-06 -1.01157e-08)
(2.99992 9.80892e-06 -1.58741e-08)
(2.99981 2.69628e-05 -1.61408e-08)
(2.99952 6.16214e-05 -2.12627e-08)
(2.99893 0.000161691 -2.14305e-08)
(2.9972 0.000353503 -2.7742e-08)
(2.99389 0.000985487 -3.14032e-08)
(2.98306 0.00192713 -4.68362e-08)
(2.96293 0.00656604 -6.44472e-08)
(2.89095 0.0127725 -1.50186e-07)
(2.70566 0.0473592 -2.43701e-07)
(2.22413 0.1148 -6.80816e-07)
(1.11616 0.349283 -1.12254e-06)
(0.548394 0.369912 -1.13636e-08)
(0.626206 0.370351 -3.52588e-08)
(0.659737 0.380889 -6.97388e-08)
(0.616324 0.400829 -7.0547e-08)
(0.547638 0.433657 -6.76016e-08)
(0.477257 0.477166 -6.55828e-08)
(0.414065 0.529086 -6.83867e-08)
(0.344317 0.591691 -7.05335e-08)
(0.248693 0.670938 -7.35251e-08)
(0.122989 0.764219 -7.69427e-08)
(3 3.33811e-07 -2.49019e-09)
(2.99999 7.07392e-07 -8.57428e-09)
(2.99997 5.01577e-06 -1.02391e-08)
(2.99993 7.75643e-06 -1.59203e-08)
(2.99984 3.47949e-05 -1.62179e-08)
(2.99958 5.00752e-05 -2.12638e-08)
(2.99906 0.000209983 -2.12767e-08)
(2.99755 0.000283222 -2.73273e-08)
(2.99463 0.00128875 -3.01265e-08)
(2.98527 0.00137242 -4.47292e-08)
(2.96746 0.00869746 -5.33112e-08)
(2.90615 0.00691359 -1.49321e-07)
(2.75056 0.0559309 -1.56948e-07)
(2.33755 0.0887953 -5.0357e-07)
(1.24423 0.321295 -6.9022e-07)
(0.613673 0.41074 -2.61017e-07)
(0.663116 0.430844 -8.49204e-08)
(0.693968 0.427713 -6.79162e-08)
(0.657459 0.447752 -6.55643e-08)
(0.596411 0.482078 -6.41772e-08)
(0.53116 0.532069 -6.21169e-08)
(0.473195 0.5926 -6.25864e-08)
(0.415643 0.67397 -6.42925e-08)
(0.338471 0.795646 -6.62946e-08)
(0.18945 1.00258 -6.81262e-08)
(2.99999 1.42481e-08 -4.80171e-13)
(2.99998 7.74503e-08 -2.49398e-12)
(2.99995 2.87758e-07 -5.92971e-12)
(2.99987 7.38446e-07 -1.24527e-11)
(2.99971 2.02879e-06 -2.63739e-11)
(2.99924 4.64278e-06 -5.0644e-11)
(2.99833 1.2034e-05 -1.19582e-10)
(2.99553 2.7088e-05 -2.34901e-10)
(2.99048 6.93704e-05 -6.22441e-10)
(2.97231 0.000156701 -1.25044e-09)
(2.93852 0.00040317 -3.3746e-09)
(2.81585 0.0010067 -8.20266e-09)
(2.47366 0.00287726 -1.9907e-08)
(1.66961 0.00731441 -4.89407e-08)
(0.72467 0.0199168 -5.91933e-08)
(0.525366 0.02083 1.20016e-09)
(0.564986 0.0222102 -1.72137e-09)
(0.569212 0.0244436 -5.71123e-09)
(0.519724 0.0267163 -5.97418e-09)
(0.434097 0.0290233 -5.88325e-09)
(0.348899 0.0317537 -5.43399e-09)
(0.277779 0.0350465 -5.33126e-09)
(0.206588 0.038584 -5.3511e-09)
(0.124867 0.0427813 -5.39649e-09)
(0.0556486 0.0490212 -5.43606e-09)
(2.99999 4.34859e-08 -4.82349e-13)
(2.99998 2.36518e-07 -2.50336e-12)
(2.99995 8.79052e-07 -5.96162e-12)
(2.99987 2.25393e-06 -1.25229e-11)
(2.99971 6.19719e-06 -2.65621e-11)
(2.99925 1.41708e-05 -5.10371e-11)
(2.99835 3.67866e-05 -1.20539e-10)
(2.99558 8.25803e-05 -2.36989e-10)
(2.99059 0.000212716 -6.26582e-10)
(2.97259 0.000477495 -1.26065e-09)
(2.93925 0.00124546 -3.39134e-09)
(2.81774 0.00308022 -8.21186e-09)
(2.47933 0.00895076 -2.00078e-08)
(1.68209 0.022736 -4.90948e-08)
(0.732321 0.0608012 -5.98261e-08)
(0.523242 0.060799 1.5443e-09)
(0.563951 0.0624256 -1.60071e-09)
(0.568697 0.0668505 -5.68822e-09)
(0.518883 0.0711723 -5.92251e-09)
(0.433141 0.0754687 -5.80226e-09)
(0.347947 0.0803586 -5.36409e-09)
(0.276312 0.0859111 -5.27718e-09)
(0.204053 0.0911336 -5.30772e-09)
(0.120987 0.0963161 -5.35935e-09)
(0.0514928 0.101945 -5.3985e-09)
(2.99999 7.4229e-08 -4.86827e-13)
(2.99998 4.04059e-07 -2.52365e-12)
(2.99995 1.50099e-06 -6.02489e-12)
(2.99987 3.84662e-06 -1.26585e-11)
(2.99972 1.05707e-05 -2.68942e-11)
(2.99927 2.41504e-05 -5.16766e-11)
(2.99839 6.26641e-05 -1.2203e-10)
(2.99568 0.000140348 -2.39019e-10)
(2.99081 0.000362174 -6.33784e-10)
(2.97316 0.000808854 -1.26346e-09)
(2.94075 0.00212659 -3.4266e-09)
(2.82175 0.00520497 -8.18151e-09)
(2.49158 0.0153585 -2.02576e-08)
(1.70985 0.0390154 -4.95328e-08)
(0.750448 0.105216 -6.16217e-08)
(0.520878 0.10324 2.28085e-09)
(0.564338 0.10498 -1.34352e-09)
(0.570755 0.112562 -5.6497e-09)
(0.520943 0.120275 -5.84087e-09)
(0.43565 0.128512 -5.66337e-09)
(0.351051 0.137576 -5.27538e-09)
(0.279246 0.147413 -5.21248e-09)
(0.206091 0.156919 -5.24984e-09)
(0.12174 0.165776 -5.30817e-09)
(0.0506309 0.173157 -5.34527e-09)
(2.99999 1.09637e-07 -5.10461e-13)
(2.99998 5.94118e-07 -2.61631e-12)
(2.99995 2.2159e-06 -6.37273e-12)
(2.99988 5.69043e-06 -1.34585e-11)
(2.99973 1.56945e-05 -2.92347e-11)
(2.99929 3.61169e-05 -5.72937e-11)
(2.99844 9.29124e-05 -1.334e-10)
(2.99583 0.000215507 -2.91433e-10)
(2.99115 0.000519832 -6.14346e-10)
(2.97403 0.00124929 -1.66023e-09)
(2.94302 0.00298946 -3.02977e-09)
(2.82788 0.00737625 -8.47645e-09)
(2.51033 0.0216751 -2.01566e-08)
(1.75308 0.0551602 -5.02626e-08)
(0.778535 0.150527 -6.45258e-08)
(0.517345 0.145562 3.29168e-09)
(0.565885 0.147045 -1.06762e-09)
(0.575465 0.157743 -5.60522e-09)
(0.526167 0.168898 -5.74513e-09)
(0.441977 0.181345 -5.44126e-09)
(0.358354 0.195037 -5.09401e-09)
(0.286688 0.209741 -5.09362e-09)
(0.212715 0.224198 -5.16993e-09)
(0.126474 0.237465 -5.23543e-09)
(0.0520258 0.247137 -5.28383e-09)
(2.99999 1.38036e-07 -4.97095e-13)
(2.99998 7.47355e-07 -2.54925e-12)
(2.99996 2.79236e-06 -6.14051e-12)
(2.99989 7.1693e-06 -1.30826e-11)
(2.99974 1.98357e-05 -2.76273e-11)
(2.99933 4.57355e-05 -5.39962e-11)
(2.99854 0.00011791 -1.26591e-10)
(2.99603 0.000274359 -2.55758e-10)
(2.99168 0.000663677 -6.42801e-10)
(2.97518 0.0015775 -1.31679e-09)
(2.946 0.00395573 -3.75012e-09)
(2.83607 0.00950769 -8.21523e-09)
(2.53528 0.0273095 -1.92076e-08)
(1.81221 0.0712667 -5.28043e-08)
(0.816094 0.196654 -6.83367e-08)
(0.512007 0.187786 4.52144e-09)
(0.568115 0.188718 -8.13836e-10)
(0.582285 0.202306 -5.55036e-09)
(0.533958 0.216693 -5.64887e-09)
(0.451596 0.233232 -5.41687e-09)
(0.369525 0.251656 -5.01187e-09)
(0.298328 0.271646 -4.99605e-09)
(0.223459 0.29181 -5.0793e-09)
(0.13454 0.310404 -5.15278e-09)
(0.0554845 0.323158 -5.21865e-09)
(3 1.49362e-07 -4.8999e-13)
(2.99998 8.11408e-07 -2.50958e-12)
(2.99996 3.02561e-06 -6.03836e-12)
(2.99989 7.75256e-06 -1.2869e-11)
(2.99976 2.14606e-05 -2.71561e-11)
(2.99937 4.91547e-05 -5.3109e-11)
(2.99863 0.000129021 -1.24929e-10)
(2.99628 0.000288221 -2.5344e-10)
(2.99224 0.000765331 -6.40247e-10)
(2.97673 0.00165685 -1.31005e-09)
(2.9498 0.00483732 -3.81679e-09)
(2.84581 0.0108628 -8.12224e-09)
(2.56734 0.0345269 -2.00944e-08)
(1.88776 0.0880416 -5.42197e-08)
(0.860693 0.246031 -7.36901e-08)
(0.502713 0.231504 6.14251e-09)
(0.569907 0.230451 -2.49853e-10)
(0.590543 0.246408 -5.36527e-09)
(0.543919 0.263765 -5.31973e-09)
(0.464368 0.284614 -4.98253e-09)
(0.384624 0.30834 -4.65704e-09)
(0.314546 0.334521 -4.84229e-09)
(0.239236 0.361783 -5.00311e-09)
(0.146915 0.387932 -5.0874e-09)
(0.0611381 0.406135 -5.18245e-09)
(3 1.49883e-07 -4.60052e-13)
(2.99998 8.19486e-07 -2.38079e-12)
(2.99996 3.04079e-06 -5.59941e-12)
(2.9999 7.76721e-06 -1.19077e-11)
(2.99978 2.14533e-05 -2.43845e-11)
(2.99942 4.85653e-05 -4.68021e-11)
(2.99873 0.000130711 -1.1178e-10)
(2.99656 0.000272247 -2.03245e-10)
(2.99282 0.000832789 -6.32237e-10)
(2.97852 0.00155562 -1.02863e-09)
(2.95387 0.00564897 -3.89222e-09)
(2.85879 0.011429 -6.62794e-09)
(2.60743 0.04293 -2.55197e-08)
(1.98278 0.104066 -5.42775e-08)
(0.922548 0.296473 -8.24452e-08)
(0.498791 0.277422 7.50531e-09)
(0.57688 0.272837 9.36569e-10)
(0.604119 0.290026 -5.05056e-09)
(0.558933 0.309725 -5.11101e-09)
(0.482629 0.334941 -4.8421e-09)
(0.405775 0.364699 -4.43543e-09)
(0.337321 0.398509 -4.60636e-09)
(0.262054 0.435052 -4.80643e-09)
(0.166189 0.472204 -4.94909e-09)
(0.0711418 0.50085 -5.10198e-09)
(3 1.62039e-07 -4.27621e-13)
(2.99999 8.8722e-07 -2.25959e-12)
(2.99997 3.28733e-06 -5.17443e-12)
(2.99991 8.39964e-06 -1.07587e-11)
(2.99979 2.31568e-05 -2.17156e-11)
(2.99947 5.24325e-05 -4.0129e-11)
(2.99882 0.00014096 -9.78147e-11)
(2.99686 0.000291365 -1.46221e-10)
(2.99331 0.000915893 -6.4471e-10)
(2.98068 0.0015686 -5.15991e-10)
(2.95824 0.00644432 -4.74305e-09)
(2.87431 0.0121851 -5.46602e-09)
(2.65495 0.0481118 -2.67901e-08)
(2.09667 0.115529 -5.45991e-08)
(1.00643 0.340011 -9.14883e-08)
(0.509787 0.325548 7.97209e-09)
(0.594088 0.318825 2.13147e-09)
(0.626605 0.334715 -4.24807e-09)
(0.5822 0.355226 -4.5557e-09)
(0.509336 0.384544 -4.51131e-09)
(0.435571 0.420843 -4.18688e-09)
(0.369401 0.46357 -4.39236e-09)
(0.29542 0.512059 -4.65102e-09)
(0.196883 0.565787 -4.88644e-09)
(0.0888078 0.615531 -5.08507e-09)
(3 1.87253e-07 -4.37409e-13)
(2.99999 1.03413e-06 -2.2878e-12)
(2.99997 3.8243e-06 -5.31704e-12)
(2.99992 9.80894e-06 -1.1121e-11)
(2.99981 2.69628e-05 -2.28158e-11)
(2.99952 6.16215e-05 -4.33774e-11)
(2.99893 0.000161691 -1.01119e-10)
(2.9972 0.000353502 -1.93229e-10)
(2.99389 0.000985494 -5.48653e-10)
(2.98306 0.00192712 -9.66702e-10)
(2.96293 0.00656615 -3.78437e-09)
(2.89095 0.0127725 -5.25406e-09)
(2.70566 0.04736 -2.44916e-08)
(2.22412 0.114802 -5.16964e-08)
(1.11615 0.349288 -9.9754e-08)
(0.548391 0.369912 2.23473e-09)
(0.626204 0.37035 4.05802e-10)
(0.659735 0.380888 -3.83598e-09)
(0.616322 0.400829 -4.20651e-09)
(0.547637 0.433657 -4.31562e-09)
(0.477256 0.477166 -3.96944e-09)
(0.414064 0.529086 -4.1879e-09)
(0.344316 0.591691 -4.4166e-09)
(0.248693 0.670938 -4.84781e-09)
(0.122989 0.764219 -5.16434e-09)
(3 3.33811e-07 -4.21587e-13)
(2.99999 7.07413e-07 -2.21539e-12)
(2.99997 5.01581e-06 -5.07027e-12)
(2.99993 7.75658e-06 -1.05586e-11)
(2.99984 3.47953e-05 -2.11328e-11)
(2.99958 5.00762e-05 -3.98219e-11)
(2.99906 0.000209986 -9.03427e-11)
(2.99755 0.000283228 -1.73716e-10)
(2.99463 0.00128877 -4.61978e-10)
(2.98527 0.00137244 -9.12423e-10)
(2.96746 0.00869762 -2.53409e-09)
(2.90615 0.00691371 -5.88087e-09)
(2.75056 0.0559319 -1.47907e-08)
(2.33755 0.0887978 -3.51025e-08)
(1.24422 0.321302 -5.94506e-08)
(0.613671 0.410739 -2.01185e-08)
(0.663115 0.430842 -5.13238e-09)
(0.693967 0.427711 -4.74657e-09)
(0.657458 0.447751 -4.63382e-09)
(0.596409 0.482077 -4.46511e-09)
(0.531159 0.532068 -4.10852e-09)
(0.473194 0.5926 -4.17228e-09)
(0.415642 0.67397 -4.4604e-09)
(0.338471 0.795646 -5.07115e-09)
(0.18945 1.00258 -5.83385e-09)
(2.99999 1.42481e-08 -4.36079e-14)
(2.99998 7.74503e-08 -1.94088e-13)
(2.99995 2.87758e-07 -6.42877e-13)
(2.99987 7.38445e-07 -1.38953e-12)
(2.99971 2.02879e-06 -3.96212e-12)
(2.99924 4.64277e-06 -8.11025e-12)
(2.99833 1.2034e-05 -2.28791e-11)
(2.99553 2.7088e-05 -4.67839e-11)
(2.99048 6.93704e-05 -1.32225e-10)
(2.97231 0.000156701 -2.70421e-10)
(2.93852 0.00040317 -7.43987e-10)
(2.81585 0.0010067 -1.82386e-09)
(2.47366 0.00287726 -4.44848e-09)
(1.66961 0.00731441 -1.09633e-08)
(0.724669 0.0199167 -1.3288e-08)
(0.525366 0.02083 3.79326e-10)
(0.564986 0.0222102 -2.56167e-10)
(0.569212 0.0244436 -1.12815e-09)
(0.519724 0.0267163 -1.17702e-09)
(0.434097 0.0290233 -1.13387e-09)
(0.348899 0.0317537 -1.01571e-09)
(0.277779 0.0350465 -9.84622e-10)
(0.206588 0.038584 -9.80349e-10)
(0.124867 0.0427813 -9.9394e-10)
(0.0556486 0.0490212 -9.97248e-10)
(2.99999 4.34859e-08 -4.41429e-14)
(2.99998 2.36518e-07 -1.96458e-13)
(2.99995 8.79052e-07 -6.50606e-13)
(2.99987 2.25393e-06 -1.40647e-12)
(2.99971 6.19719e-06 -4.00708e-12)
(2.99925 1.41708e-05 -8.20403e-12)
(2.99835 3.67866e-05 -2.31081e-11)
(2.99558 8.25802e-05 -4.72849e-11)
(2.99059 0.000212716 -1.33229e-10)
(2.97259 0.000477495 -2.72905e-10)
(2.93925 0.00124546 -7.48117e-10)
(2.81774 0.00308022 -1.827e-09)
(2.47933 0.00895076 -4.47321e-09)
(1.68209 0.022736 -1.10029e-08)
(0.732321 0.0608011 -1.3436e-08)
(0.523242 0.060799 4.56097e-10)
(0.563951 0.0624256 -2.29322e-10)
(0.568697 0.0668505 -1.12354e-09)
(0.518883 0.0711723 -1.16616e-09)
(0.433141 0.0754687 -1.11696e-09)
(0.347947 0.0803586 -1.00176e-09)
(0.276312 0.0859111 -9.74673e-10)
(0.204053 0.0911336 -9.73268e-10)
(0.120987 0.0963161 -9.885e-10)
(0.0514928 0.101945 -9.9188e-10)
(2.99999 7.42289e-08 -4.52258e-14)
(2.99998 4.04059e-07 -2.01595e-13)
(2.99995 1.50099e-06 -6.65899e-13)
(2.99987 3.84661e-06 -1.43915e-12)
(2.99972 1.05706e-05 -4.08631e-12)
(2.99927 2.41504e-05 -8.35583e-12)
(2.99839 6.2664e-05 -2.34654e-11)
(2.99568 0.000140348 -4.77702e-11)
(2.99081 0.000362174 -1.35001e-10)
(2.97316 0.000808852 -2.73636e-10)
(2.94075 0.00212659 -7.57003e-10)
(2.82175 0.00520497 -1.82166e-09)
(2.49158 0.0153585 -4.53448e-09)
(1.70985 0.0390154 -1.11126e-08)
(0.750447 0.105216 -1.38542e-08)
(0.520878 0.10324 6.19949e-10)
(0.564338 0.10498 -1.72254e-10)
(0.570755 0.112562 -1.1162e-09)
(0.520943 0.120275 -1.1498e-09)
(0.43565 0.128512 -1.08868e-09)
(0.351051 0.137576 -9.86899e-10)
(0.279246 0.147413 -9.65939e-10)
(0.206091 0.156919 -9.66967e-10)
(0.12174 0.165776 -9.84259e-10)
(0.0506309 0.173157 -9.87699e-10)
(2.99999 1.09637e-07 -5.08184e-14)
(2.99998 5.94118e-07 -2.23928e-13)
(2.99995 2.2159e-06 -7.48098e-13)
(2.99988 5.69043e-06 -1.62849e-12)
(2.99973 1.56945e-05 -4.63686e-12)
(2.99929 3.61168e-05 -9.68106e-12)
(2.99844 9.29124e-05 -2.61385e-11)
(2.99583 0.000215506 -6.01157e-11)
(2.99115 0.000519832 -1.30441e-10)
(2.97403 0.00124929 -3.671e-10)
(2.94302 0.00298945 -6.63693e-10)
(2.82788 0.00737625 -1.89615e-09)
(2.51033 0.0216751 -4.51191e-09)
(1.75308 0.0551602 -1.12935e-08)
(0.778534 0.150527 -1.45279e-08)
(0.517345 0.145562 8.43909e-10)
(0.565885 0.147045 -1.1233e-10)
(0.575465 0.157743 -1.1085e-09)
(0.526167 0.168898 -1.13229e-09)
(0.441977 0.181345 -1.04341e-09)
(0.358354 0.195037 -9.52813e-10)
(0.286688 0.209741 -9.47938e-10)
(0.212715 0.224198 -9.59477e-10)
(0.126474 0.237465 -9.79993e-10)
(0.0520258 0.247137 -9.86834e-10)
(2.99999 1.38036e-07 -4.75136e-14)
(2.99998 7.47355e-07 -2.11311e-13)
(2.99996 2.79236e-06 -7.00043e-13)
(2.99989 7.16931e-06 -1.51382e-12)
(2.99974 1.98357e-05 -4.30721e-12)
(2.99933 4.57355e-05 -8.86983e-12)
(2.99854 0.000117911 -2.45695e-11)
(2.99603 0.000274359 -5.16276e-11)
(2.99168 0.000663677 -1.37441e-10)
(2.97518 0.0015775 -2.86323e-10)
(2.946 0.00395572 -8.33006e-10)
(2.83607 0.00950769 -1.83468e-09)
(2.53528 0.0273095 -4.31585e-09)
(1.81221 0.0712666 -1.18885e-08)
(0.816093 0.196654 -1.54187e-08)
(0.512008 0.187786 1.11799e-09)
(0.568115 0.188718 -5.52671e-11)
(0.582285 0.202306 -1.09837e-09)
(0.533958 0.216693 -1.11479e-09)
(0.451596 0.233232 -1.04854e-09)
(0.369525 0.251656 -9.44298e-10)
(0.298328 0.271646 -9.38577e-10)
(0.223459 0.29181 -9.52936e-10)
(0.13454 0.310404 -9.76748e-10)
(0.0554845 0.323158 -9.8954e-10)
(3 1.49362e-07 -4.60506e-14)
(2.99998 8.11408e-07 -2.04386e-13)
(2.99996 3.02561e-06 -6.80097e-13)
(2.99989 7.75256e-06 -1.46996e-12)
(2.99976 2.14607e-05 -4.21359e-12)