/*--------------------------------*- C++ -*----------------------------------*\
| =========                 |                                                 |
| \\      /  F ield         | OpenFOAM: The Open Source CFD Toolbox           |
|  \\    /   O peration     | Version:  4.1                                   |
|   \\  /    A nd           | Web:      www.OpenFOAM.org                      |
|    \\/     M anipulation  |                                                 |
\*---------------------------------------------------------------------------*/
FoamFile
{
    version     2.0;
    format      ascii;
    class       volScalarField;
    location    "0.74";
    object      T;
}
// * * * * * * * * * * * * * * * * * * * * * * * * * * * * * * * * * * * * * //

dimensions      [0 0 0 1 0 0 0];

internalField   nonuniform List<scalar> 
52500
(
0.999994
0.999999
1
1.00003
1.00006
1.00022
1.00041
1.00132
1.00246
1.00729
1.01552
1.04003
1.10943
1.25511
1.72147
2.60534
2.78766
2.7888
2.7898
2.80425
2.8413
3.03289
3.07155
2.77497
2.59266
0.999994
0.999999
1
1.00003
1.00006
1.00022
1.0004
1.0013
1.00243
1.00724
1.01534
1.03971
1.10806
1.25232
1.7156
2.60109
2.78506
2.78587
2.78936
2.80411
2.83983
3.02991
3.06925
2.77233
2.5896
0.999994
0.999999
1
1.00003
1.00006
1.00022
1.0004
1.00128
1.00238
1.00714
1.01495
1.03908
1.10507
1.24663
1.70262
2.59082
2.77815
2.77908
2.78789
2.80268
2.83575
3.02317
3.06725
2.77382
2.58721
0.999994
0.999998
1
1.00003
1.00006
1.00021
1.00038
1.00124
1.00229
1.00696
1.01437
1.0381
1.1007
1.2381
1.68231
2.57078
2.76533
2.77407
2.78422
2.79766
2.82609
3.0089
3.06319
2.77769
2.58388
0.999994
0.999998
1
1.00003
1.00006
1.0002
1.00036
1.00119
1.00218
1.00668
1.01367
1.03636
1.0957
1.22495
1.65388
2.53763
2.74925
2.76956
2.77938
2.78937
2.81234
2.98494
3.0563
2.78691
2.57704
0.999994
0.999998
1
1.00002
1.00005
1.00018
1.00034
1.0011
1.00203
1.00626
1.01268
1.03436
1.08934
1.21065
1.61933
2.49003
2.7282
2.76571
2.77368
2.77736
2.79378
2.95599
3.04692
2.79588
2.57104
0.999994
0.999997
1
1.00002
1.00005
1.00017
1.00031
1.001
1.00186
1.00562
1.01172
1.03101
1.08384
1.19023
1.58294
2.42222
2.70516
2.76141
2.76459
2.76554
2.77635
2.91522
3.02995
2.81209
2.55898
0.999994
0.999996
1
1.00002
1.00004
1.00015
1.00027
1.00088
1.00166
1.00492
1.01061
1.0273
1.07596
1.16745
1.53907
2.34284
2.66782
2.75015
2.75049
2.74851
2.75407
2.86325
3.00209
2.81645
2.54342
0.999994
0.999996
0.999999
1.00001
1.00003
1.00013
1.00024
1.00077
1.00145
1.00433
1.0093
1.02403
1.06654
1.14703
1.47387
2.21125
2.62212
2.74189
2.74138
2.73101
2.72955
2.80503
2.96037
2.82461
2.51153
0.999993
0.999995
0.999998
1.00001
1.00003
1.00011
1.0002
1.00065
1.00125
1.00369
1.00796
1.02072
1.05631
1.12864
1.39042
2.08492
2.53295
2.71564
2.72179
2.71178
2.70203
2.74398
2.90435
2.81193
2.45068
1
1.00001
1.00001
1.00004
1.00007
1.00023
1.00042
1.00133
1.00247
1.0073
1.01554
1.04005
1.10945
1.25517
1.72155
2.60544
2.78773
2.7889
2.78987
2.80433
2.84139
3.033
3.07165
2.77506
2.59275
1
1.00001
1.00001
1.00004
1.00007
1.00023
1.00041
1.00131
1.00244
1.00725
1.01535
1.03972
1.10808
1.25237
1.71568
2.60119
2.78514
2.78596
2.78944
2.80419
2.83992
3.03002
3.06935
2.77238
2.58967
1
1.00001
1.00001
1.00004
1.00007
1.00022
1.0004
1.00129
1.00239
1.00716
1.01496
1.0391
1.10509
1.24668
1.7027
2.59094
2.77824
2.77915
2.78796
2.80276
2.83584
3.02328
3.06734
2.77386
2.58727
1
1.00001
1.00001
1.00004
1.00007
1.00022
1.00039
1.00125
1.0023
1.00697
1.01438
1.03812
1.10071
1.23814
1.68239
2.57092
2.76542
2.77413
2.78429
2.79774
2.82619
3.009
3.06329
2.77774
2.58394
1
1.00001
1.00001
1.00004
1.00006
1.00021
1.00037
1.00119
1.00219
1.00669
1.01368
1.03638
1.09572
1.22499
1.65395
2.53775
2.74934
2.76962
2.77944
2.78945
2.81244
2.98504
3.05638
2.787
2.57713
1
1.00001
1.00001
1.00003
1.00006
1.00019
1.00035
1.00111
1.00204
1.00628
1.01269
1.03438
1.08935
1.2107
1.61936
2.49019
2.72828
2.76575
2.77375
2.77745
2.79387
2.95608
3.047
2.79596
2.57113
1
1
1.00001
1.00003
1.00005
1.00017
1.00031
1.00101
1.00187
1.00563
1.01173
1.03104
1.08385
1.19029
1.58299
2.42237
2.70522
2.76145
2.76465
2.76562
2.77644
2.91532
3.03003
2.8122
2.55909
1
1
1.00001
1.00003
1.00005
1.00015
1.00028
1.00089
1.00167
1.00494
1.01062
1.02732
1.07597
1.16751
1.5391
2.343
2.66788
2.75019
2.75054
2.74859
2.75415
2.86334
3.00218
2.81657
2.54354
1
1
1.00001
1.00002
1.00004
1.00013
1.00024
1.00078
1.00146
1.00434
1.00931
1.02405
1.06656
1.14708
1.47392
2.21142
2.62217
2.74193
2.74143
2.73108
2.72964
2.8051
2.96045
2.82474
2.51165
1
1
1.00001
1.00002
1.00004
1.00011
1.00021
1.00066
1.00126
1.0037
1.00797
1.02074
1.05632
1.12869
1.39046
2.0851
2.53301
2.71567
2.72184
2.71186
2.70213
2.74405
2.90441
2.81205
2.4508
1
1.00001
1.00001
1.00004
1.00007
1.00023
1.00042
1.00133
1.00247
1.0073
1.01554
1.04005
1.10945
1.25517
1.72155
2.60544
2.78773
2.7889
2.78988
2.80433
2.84139
3.033
3.07168
2.77511
2.59277
1
1.00001
1.00001
1.00004
1.00007
1.00023
1.00041
1.00131
1.00244
1.00725
1.01535
1.03972
1.10808
1.25237
1.71568
2.60119
2.78514
2.78596
2.78944
2.80419
2.83992
3.03002
3.06938
2.77246
2.5897
1
1.00001
1.00001
1.00004
1.00007
1.00022
1.0004
1.00129
1.00239
1.00716
1.01496
1.0391
1.10509
1.24668
1.7027
2.59094
2.77824
2.77915
2.78796
2.80276
2.83584
3.02327
3.06737
2.77395
2.58731
1
1.00001
1.00001
1.00004
1.00007
1.00022
1.00039
1.00125
1.0023
1.00697
1.01438
1.03812
1.10071
1.23814
1.6824
2.57092
2.76542
2.77414
2.78429
2.79775
2.82619
3.00899
3.06332
2.77782
2.58398
1
1.00001
1.00001
1.00004
1.00006
1.00021
1.00037
1.00119
1.00219
1.00669
1.01368
1.03638
1.09572
1.22499
1.65395
2.53775
2.74934
2.76962
2.77944
2.78945
2.81244
2.98504
3.05641
2.78704
2.57714
1
1.00001
1.00001
1.00003
1.00006
1.00019
1.00035
1.00111
1.00204
1.00628
1.01269
1.03438
1.08935
1.2107
1.61936
2.49019
2.72828
2.76575
2.77375
2.77745
2.79387
2.95608
3.04702
2.79597
2.57114
1
1
1.00001
1.00003
1.00005
1.00017
1.00031
1.00101
1.00187
1.00563
1.01173
1.03104
1.08385
1.19029
1.58299
2.42238
2.70522
2.76145
2.76465
2.76563
2.77644
2.91533
3.03003
2.81217
2.55908
1
1
1.00001
1.00003
1.00005
1.00015
1.00028
1.00089
1.00167
1.00494
1.01062
1.02732
1.07597
1.16751
1.5391
2.343
2.66788
2.75019
2.75054
2.74859
2.75415
2.86335
3.00218
2.81654
2.54352
1
1
1.00001
1.00002
1.00004
1.00013
1.00024
1.00078
1.00146
1.00434
1.00931
1.02405
1.06656
1.14708
1.47393
2.21142
2.62217
2.74193
2.74143
2.73108
2.72964
2.80511
2.96045
2.82469
2.51163
1
1
1.00001
1.00002
1.00004
1.00011
1.00021
1.00066
1.00126
1.0037
1.00797
1.02074
1.05632
1.12869
1.39046
2.0851
2.53301
2.71568
2.72184
2.71186
2.70213
2.74407
2.90442
2.812
2.45078
1
1.00001
1.00001
1.00004
1.00007
1.00023
1.00042
1.00133
1.00247
1.0073
1.01554
1.04005
1.10945
1.25517
1.72155
2.60544
2.78773
2.7889
2.78987
2.80433
2.84139
3.03301
3.0717
2.77512
2.59277
1
1.00001
1.00001
1.00004
1.00007
1.00023
1.00041
1.00131
1.00244
1.00725
1.01535
1.03972
1.10808
1.25237
1.71568
2.6012
2.78513
2.78596
2.78944
2.80418
2.83992
3.03003
3.0694
2.77246
2.58969
1
1.00001
1.00001
1.00004
1.00007
1.00022
1.0004
1.00129
1.00239
1.00716
1.01496
1.0391
1.10509
1.24668
1.7027
2.59094
2.77824
2.77915
2.78796
2.80276
2.83584
3.02328
3.06739
2.77395
2.5873
1
1.00001
1.00001
1.00004
1.00007
1.00022
1.00039
1.00125
1.0023
1.00697
1.01438
1.03812
1.10071
1.23814
1.6824
2.57092
2.76542
2.77413
2.78428
2.79774
2.82619
3.00901
3.06333
2.77781
2.58397
1
1.00001
1.00001
1.00004
1.00006
1.00021
1.00037
1.00119
1.00219
1.00669
1.01368
1.03638
1.09572
1.22499
1.65395
2.53775
2.74934
2.76962
2.77944
2.78945
2.81244
2.98505
3.05642
2.78703
2.57713
1
1.00001
1.00001
1.00003
1.00006
1.00019
1.00035
1.00111
1.00204
1.00628
1.01269
1.03439
1.08935
1.2107
1.61936
2.49019
2.72827
2.76575
2.77374
2.77745
2.79388
2.95609
3.04703
2.79597
2.57113
1
1
1.00001
1.00003
1.00005
1.00017
1.00031
1.00101
1.00187
1.00563
1.01173
1.03104
1.08385
1.19029
1.58299
2.42238
2.70522
2.76144
2.76465
2.76562
2.77644
2.91533
3.03005
2.81219
2.55908
1
1
1.00001
1.00003
1.00005
1.00015
1.00028
1.00089
1.00167
1.00494
1.01062
1.02732
1.07598
1.16751
1.5391
2.34301
2.66788
2.75019
2.75054
2.74859
2.75415
2.86336
3.0022
2.81655
2.54351
1
1
1.00001
1.00002
1.00004
1.00013
1.00024
1.00078
1.00146
1.00434
1.00931
1.02405
1.06656
1.14708
1.47393
2.21143
2.62217
2.74193
2.74143
2.73108
2.72964
2.80511
2.96047
2.8247
2.51162
1
1
1.00001
1.00002
1.00004
1.00011
1.00021
1.00066
1.00126
1.0037
1.00797
1.02074
1.05632
1.12869
1.39046
2.08511
2.53301
2.71567
2.72184
2.71186
2.70213
2.74407
2.90444
2.81201
2.45077
1
1.00001
1.00001
1.00004
1.00007
1.00023
1.00042
1.00133
1.00247
1.0073
1.01554
1.04005
1.10945
1.25517
1.72156
2.60544
2.78774
2.78891
2.78988
2.80433
2.84139
3.033
3.07168
2.7751
2.59276
1
1.00001
1.00001
1.00004
1.00007
1.00023
1.00041
1.00131
1.00244
1.00725
1.01535
1.03972
1.10808
1.25238
1.71569
2.6012
2.78514
2.78597
2.78944
2.80419
2.83992
3.03002
3.06939
2.77245
2.58969
1
1.00001
1.00001
1.00004
1.00007
1.00022
1.0004
1.00129
1.00239
1.00716
1.01496
1.0391
1.10509
1.24668
1.70271
2.59094
2.77825
2.77916
2.78796
2.80276
2.83584
3.02327
3.06738
2.77394
2.5873
1
1.00001
1.00001
1.00004
1.00007
1.00022
1.00039
1.00125
1.0023
1.00697
1.01438
1.03812
1.10071
1.23814
1.6824
2.57092
2.76543
2.77414
2.78429
2.79775
2.82619
3.00899
3.06332
2.77782
2.58397
1
1.00001
1.00001
1.00004
1.00006
1.00021
1.00037
1.00119
1.00219
1.00669
1.01368
1.03638
1.09572
1.225
1.65396
2.53776
2.74935
2.76962
2.77945
2.78945
2.81244
2.98504
3.05641
2.78704
2.57713
1
1.00001
1.00001
1.00003
1.00006
1.00019
1.00035
1.00111
1.00204
1.00628
1.01269
1.03439
1.08935
1.21071
1.61937
2.4902
2.72828
2.76576
2.77375
2.77745
2.79387
2.95608
3.04703
2.79597
2.57113
1
1
1.00001
1.00003
1.00005
1.00017
1.00031
1.00101
1.00187
1.00563
1.01173
1.03104
1.08385
1.19029
1.583
2.42238
2.70523
2.76145
2.76465
2.76563
2.77644
2.91533
3.03005
2.81219
2.55907
1
1
1.00001
1.00003
1.00005
1.00015
1.00028
1.00089
1.00167
1.00494
1.01062
1.02732
1.07598
1.16751
1.53911
2.34301
2.66789
2.7502
2.75055
2.74859
2.75415
2.86335
3.00219
2.81655
2.5435
1
1
1.00001
1.00002
1.00004
1.00013
1.00024
1.00078
1.00146
1.00434
1.00931
1.02405
1.06656
1.14708
1.47393
2.21143
2.62218
2.74193
2.74143
2.73108
2.72964
2.80511
2.96046
2.82471
2.51161
1
1
1.00001
1.00002
1.00004
1.00011
1.00021
1.00066
1.00126
1.0037
1.00797
1.02074
1.05632
1.12869
1.39047
2.08511
2.53302
2.71568
2.72184
2.71186
2.70213
2.74407
2.90443
2.81202
2.45076
1
1.00001
1.00001
1.00004
1.00007
1.00023
1.00042
1.00133
1.00247
1.0073
1.01554
1.04005
1.10945
1.25517
1.72155
2.60544
2.78774
2.7889
2.78988
2.80433
2.84139
3.03301
3.07169
2.77511
2.59276
1
1.00001
1.00001
1.00004
1.00007
1.00023
1.00041
1.00131
1.00244
1.00725
1.01535
1.03972
1.10808
1.25237
1.71568
2.6012
2.78514
2.78596
2.78944
2.80419
2.83992
3.03002
3.06939
2.77246
2.58969
1
1.00001
1.00001
1.00004
1.00007
1.00022
1.0004
1.00129
1.00239
1.00716
1.01496
1.0391
1.10509
1.24668
1.7027
2.59094
2.77825
2.77915
2.78796
2.80276
2.83584
3.02328
3.06738
2.77394
2.5873
1
1.00001
1.00001
1.00004
1.00007
1.00022
1.00039
1.00125
1.0023
1.00697
1.01438
1.03812
1.10071
1.23814
1.6824
2.57092
2.76542
2.77414
2.78429
2.79775
2.82619
3.009
3.06333
2.77781
2.58397
1
1.00001
1.00001
1.00004
1.00006
1.00021
1.00037
1.00119
1.00219
1.00669
1.01368
1.03638
1.09572
1.22499
1.65395
2.53775
2.74934
2.76962
2.77945
2.78945
2.81244
2.98504
3.05641
2.78703
2.57714
1
1.00001
1.00001
1.00003
1.00006
1.00019
1.00035
1.00111
1.00204
1.00628
1.01269
1.03439
1.08935
1.2107
1.61937
2.49019
2.72828
2.76575
2.77375
2.77745
2.79387
2.95609
3.04703
2.79596
2.57113
1
1
1.00001
1.00003
1.00005
1.00017
1.00031
1.00101
1.00187
1.00563
1.01173
1.03104
1.08385
1.19029
1.58299
2.42238
2.70522
2.76145
2.76465
2.76562
2.77644
2.91533
3.03005
2.81218
2.55907
1
1
1.00001
1.00003
1.00005
1.00015
1.00028
1.00089
1.00167
1.00494
1.01062
1.02732
1.07598
1.16751
1.53911
2.34301
2.66788
2.7502
2.75054
2.74859
2.75415
2.86335
3.00219
2.81654
2.54351
1
1
1.00001
1.00002
1.00004
1.00013
1.00024
1.00078
1.00146
1.00434
1.00931
1.02405
1.06656
1.14708
1.47393
2.21143
2.62217
2.74193
2.74143
2.73108
2.72964
2.80511
2.96046
2.8247
2.51162
1
1
1.00001
1.00002
1.00004
1.00011
1.00021
1.00066
1.00126
1.0037
1.00797
1.02074
1.05632
1.12869
1.39047
2.0851
2.53302
2.71568
2.72184
2.71186
2.70213
2.74406
2.90444
2.81202
2.45077
1
1.00001
1.00001
1.00004
1.00007
1.00023
1.00042
1.00133
1.00247
1.0073
1.01554
1.04005
1.10945
1.25517
1.72155
2.60544
2.78773
2.7889
2.78987
2.80433
2.84139
3.03301
3.0717
2.77512
2.59277
1
1.00001
1.00001
1.00004
1.00007
1.00023
1.00041
1.00131
1.00244
1.00725
1.01535
1.03972
1.10808
1.25237
1.71568
2.6012
2.78513
2.78596
2.78944
2.80418
2.83992
3.03003
3.0694
2.77246
2.58969
1
1.00001
1.00001
1.00004
1.00007
1.00022
1.0004
1.00129
1.00239
1.00716
1.01496
1.0391
1.10509
1.24668
1.7027
2.59094
2.77824
2.77915
2.78796
2.80276
2.83584
3.02328
3.06739
2.77395
2.5873
1
1.00001
1.00001
1.00004
1.00007
1.00022
1.00039
1.00125
1.0023
1.00697
1.01438
1.03812
1.10071
1.23814
1.68239
2.57092
2.76542
2.77413
2.78428
2.79774
2.82619
3.00901
3.06333
2.77781
2.58397
1
1.00001
1.00001
1.00004
1.00006
1.00021
1.00037
1.00119
1.00219
1.00669
1.01368
1.03638
1.09572
1.22499
1.65395
2.53775
2.74934
2.76962
2.77944
2.78945
2.81244
2.98505
3.05642
2.78703
2.57713
1
1.00001
1.00001
1.00003
1.00006
1.00019
1.00035
1.00111
1.00204
1.00628
1.01269
1.03439
1.08935
1.2107
1.61936
2.49019
2.72827
2.76575
2.77374
2.77745
2.79388
2.95609
3.04703
2.79597
2.57113
1
1
1.00001
1.00003
1.00005
1.00017
1.00031
1.00101
1.00187
1.00563
1.01173
1.03104
1.08385
1.19029
1.58299
2.42238
2.70522
2.76144
2.76465
2.76562
2.77644
2.91533
3.03005
2.81219
2.55908
1
1
1.00001
1.00003
1.00005
1.00015
1.00028
1.00089
1.00167
1.00494
1.01062
1.02732
1.07598
1.16751
1.5391
2.34301
2.66788
2.75019
2.75054
2.74859
2.75415
2.86336
3.0022
2.81655
2.54351
1
1
1.00001
1.00002
1.00004
1.00013
1.00024
1.00078
1.00146
1.00434
1.00931
1.02405
1.06656
1.14708
1.47393
2.21143
2.62217
2.74193
2.74143
2.73108
2.72964
2.80511
2.96047
2.8247
2.51162
1
1
1.00001
1.00002
1.00004
1.00011
1.00021
1.00066
1.00126
1.0037
1.00797
1.02074
1.05632
1.12869
1.39046
2.08511
2.53301
2.71567
2.72184
2.71186
2.70213
2.74406
2.90444
2.81201
2.45077
1
1.00001
1.00001
1.00004
1.00007
1.00023
1.00042
1.00133
1.00247
1.0073
1.01554
1.04005
1.10945
1.25517
1.72155
2.60544
2.78773
2.7889
2.78988
2.80433
2.84139
3.033
3.07168
2.77511
2.59277
1
1.00001
1.00001
1.00004
1.00007
1.00023
1.00041
1.00131
1.00244
1.00725
1.01535
1.03972
1.10808
1.25237
1.71568
2.60119
2.78514
2.78596
2.78944
2.80419
2.83992
3.03002
3.06938
2.77246
2.5897
1
1.00001
1.00001
1.00004
1.00007
1.00022
1.0004
1.00129
1.00239
1.00716
1.01496
1.0391
1.10509
1.24668
1.7027
2.59094
2.77824
2.77915
2.78796
2.80276
2.83584
3.02327
3.06737
2.77395
2.58731
1
1.00001
1.00001
1.00004
1.00007
1.00022
1.00039
1.00125
1.0023
1.00697
1.01438
1.03812
1.10071
1.23814
1.6824
2.57092
2.76542
2.77414
2.78429
2.79775
2.82619
3.00899
3.06332
2.77782
2.58398
1
1.00001
1.00001
1.00004
1.00006
1.00021
1.00037
1.00119
1.00219
1.00669
1.01368
1.03638
1.09572
1.22499
1.65395
2.53775
2.74934
2.76962
2.77944
2.78945
2.81244
2.98504
3.05641
2.78704
2.57714
1
1.00001
1.00001
1.00003
1.00006
1.00019
1.00035
1.00111
1.00204
1.00628
1.01269
1.03438
1.08935
1.2107
1.61936
2.49019
2.72828
2.76575
2.77375
2.77745
2.79387
2.95608
3.04702
2.79597
2.57114
1
1
1.00001
1.00003
1.00005
1.00017
1.00031
1.00101
1.00187
1.00563
1.01173
1.03104
1.08385
1.19029
1.58299
2.42238
2.70522
2.76145
2.76465
2.76563
2.77644
2.91533
3.03003
2.81217
2.55908
1
1
1.00001
1.00003
1.00005
1.00015
1.00028
1.00089
1.00167
1.00494
1.01062
1.02732
1.07597
1.16751
1.5391
2.343
2.66788
2.75019
2.75054
2.74859
2.75415
2.86335
3.00218
2.81654
2.54352
1
1
1.00001
1.00002
1.00004
1.00013
1.00024
1.00078
1.00146
1.00434
1.00931
1.02405
1.06656
1.14708
1.47393
2.21142
2.62217
2.74193
2.74143
2.73108
2.72964
2.80511
2.96045
2.82469
2.51163
1
1
1.00001
1.00002
1.00004
1.00011
1.00021
1.00066
1.00126
1.0037
1.00797
1.02074
1.05632
1.12869
1.39046
2.0851
2.53301
2.71568
2.72184
2.71186
2.70213
2.74407
2.90442
2.812
2.45078
1
1.00001
1.00001
1.00004
1.00007
1.00023
1.00042
1.00133
1.00247
1.0073
1.01554
1.04005
1.10945
1.25517
1.72155
2.60544
2.78773
2.7889
2.78987
2.80433
2.84139
3.033
3.07165
2.77506
2.59275
1
1.00001
1.00001
1.00004
1.00007
1.00023
1.00041
1.00131
1.00244
1.00725
1.01535
1.03972
1.10808
1.25237
1.71568
2.60119
2.78514
2.78596
2.78944
2.80419
2.83992
3.03002
3.06935
2.77238
2.58967
1
1.00001
1.00001
1.00004
1.00007
1.00022
1.0004
1.00129
1.00239
1.00716
1.01496
1.0391
1.10509
1.24668
1.7027
2.59094
2.77824
2.77915
2.78796
2.80276
2.83584
3.02328
3.06734
2.77386
2.58727
1
1.00001
1.00001
1.00004
1.00007
1.00022
1.00039
1.00125
1.0023
1.00697
1.01438
1.03812
1.10071
1.23814
1.68239
2.57092
2.76542
2.77413
2.78429
2.79774
2.82619
3.009
3.06329
2.77774
2.58394
1
1.00001
1.00001
1.00004
1.00006
1.00021
1.00037
1.00119
1.00219
1.00669
1.01368
1.03638
1.09572
1.22499
1.65395
2.53775
2.74934
2.76962
2.77944
2.78945
2.81244
2.98504
3.05638
2.787
2.57713
1
1.00001
1.00001
1.00003
1.00006
1.00019
1.00035
1.00111
1.00204
1.00628
1.01269
1.03438
1.08935
1.2107
1.61936
2.49019
2.72828
2.76575
2.77375
2.77745
2.79387
2.95608
3.047
2.79596
2.57113
1
1
1.00001
1.00003
1.00005
1.00017
1.00031
1.00101
1.00187
1.00563
1.01173
1.03104
1.08385
1.19029
1.58299
2.42237
2.70522
2.76145
2.76465
2.76562
2.77644
2.91532
3.03003
2.8122
2.55909
1
1
1.00001
1.00003
1.00005
1.00015
1.00028
1.00089
1.00167
1.00494
1.01062
1.02732
1.07597
1.16751
1.5391
2.343
2.66788
2.75019
2.75054
2.74859
2.75415
2.86334
3.00218
2.81657
2.54354
1
1
1.00001
1.00002
1.00004
1.00013
1.00024
1.00078
1.00146
1.00434
1.00931
1.02405
1.06656
1.14708
1.47392
2.21142
2.62217
2.74193
2.74143
2.73108
2.72964
2.8051
2.96045
2.82474
2.51165
1
1
1.00001
1.00002
1.00004
1.00011
1.00021
1.00066
1.00126
1.0037
1.00797
1.02074
1.05632
1.12869
1.39046
2.0851
2.53301
2.71567
2.72184
2.71186
2.70213
2.74405
2.90441
2.81205
2.4508
0.999994
0.999999
1
1.00003
1.00006
1.00022
1.00041
1.00132
1.00246
1.00729
1.01552
1.04003
1.10943
1.25511
1.72147
2.60534
2.78765
2.7888
2.78979
2.80425
2.8413
3.0329
3.07156
2.77503
2.59266
0.999994
0.999999
1
1.00003
1.00006
1.00022
1.0004
1.0013
1.00243
1.00724
1.01534
1.03971
1.10806
1.25232
1.7156
2.60109
2.78505
2.78586
2.78936
2.80411
2.83983
3.02992
3.06926
2.77239
2.5896
0.999994
0.999999
1
1.00003
1.00006
1.00022
1.0004
1.00128
1.00238
1.00714
1.01495
1.03908
1.10506
1.24663
1.70262
2.59082
2.77815
2.77908
2.78789
2.80268
2.83575
3.02318
3.06725
2.77387
2.58721
0.999994
0.999998
1
1.00003
1.00006
1.00021
1.00038
1.00124
1.00229
1.00696
1.01437
1.0381
1.1007
1.2381
1.68231
2.57078
2.76533
2.77407
2.78421
2.79766
2.8261
3.00891
3.06319
2.77773
2.58388
0.999994
0.999998
1
1.00003
1.00006
1.0002
1.00036
1.00119
1.00218
1.00668
1.01367
1.03636
1.0957
1.22495
1.65388
2.53763
2.74925
2.76956
2.77938
2.78937
2.81234
2.98495
3.05629
2.78691
2.57703
0.999994
0.999998
1
1.00002
1.00005
1.00018
1.00034
1.0011
1.00203
1.00626
1.01268
1.03436
1.08934
1.21065
1.61933
2.49003
2.7282
2.76571
2.77368
2.77736
2.79378
2.956
3.04691
2.79586
2.57103
0.999994
0.999997
1
1.00002
1.00005
1.00017
1.00031
1.001
1.00186
1.00562
1.01172
1.03101
1.08384
1.19023
1.58294
2.42222
2.70516
2.7614
2.76459
2.76554
2.77635
2.91522
3.02995
2.81208
2.55896
0.999994
0.999996
1
1.00002
1.00004
1.00015
1.00027
1.00088
1.00166
1.00492
1.01061
1.0273
1.07596
1.16745
1.53907
2.34284
2.66782
2.75015
2.75049
2.74851
2.75407
2.86325
3.0021
2.81645
2.54339
0.999994
0.999996
0.999999
1.00001
1.00003
1.00013
1.00024
1.00077
1.00145
1.00433
1.0093
1.02403
1.06654
1.14703
1.47387
2.21124
2.62212
2.74189
2.74138
2.731
2.72955
2.80503
2.96039
2.82462
2.51151
0.999993
0.999995
0.999998
1.00001
1.00003
1.00011
1.0002
1.00065
1.00125
1.00369
1.00796
1.02072
1.05631
1.12864
1.39042
2.08492
2.53294
2.71564
2.72179
2.71177
2.70203
2.74398
2.90437
2.81196
2.45066
0.999993
0.999994
0.999998
1
1.00003
1.00006
1.00022
1.00042
1.00132
1.00262
1.00717
1.01723
1.04092
1.12009
1.27803
1.76285
2.4763
2.68368
2.68068
2.66734
2.66093
2.67905
2.81313
2.77794
2.31086
0.999993
0.999993
0.999997
1
1.00003
1.00005
1.0002
1.00036
1.00118
1.00217
1.00672
1.01365
1.03662
1.09497
1.22727
1.64166
2.45012
2.66051
2.65898
2.65448
2.63472
2.63291
2.71488
2.7164
2.35142
0.999992
0.999993
0.999996
1
1.00002
1.00004
1.00016
1.00029
1.00095
1.00177
1.00533
1.01114
1.02949
1.0795
1.1801
1.55026
2.33764
2.61083
2.63769
2.62745
2.59864
2.58218
2.62047
2.64911
2.47253
0.999992
0.999993
0.999995
0.999998
1.00001
1.00003
1.00012
1.00023
1.00076
1.00143
1.00421
1.00905
1.02313
1.06397
1.13987
1.45355
2.12502
2.53994
2.62268
2.60768
2.57524
2.53337
2.53591
2.55217
2.49633
0.999992
0.999992
0.999994
0.999997
1.00001
1.00002
1.0001
1.00018
1.00061
1.00113
1.00352
1.00698
1.01951
1.047
1.11399
1.32585
1.92525
2.3994
2.5834
2.57819
2.55683
2.51338
2.49428
2.49165
2.47379
0.999991
0.999992
0.999993
0.999996
1
1.00002
1.00005
1.00018
1.00034
1.00108
1.00208
1.00608
1.01315
1.03452
1.09139
1.22076
1.60243
2.33693
2.51263
2.51296
2.50579
2.4806
2.45885
2.44456
2.43391
0.999991
0.999992
0.999992
0.999995
0.999999
1.00002
1.00004
1.00014
1.00026
1.00085
1.00157
1.00473
1.00992
1.02579
1.06996
1.15536
1.48572
2.18613
2.46518
2.49322
2.47208
2.45641
2.42991
2.39969
2.37093
0.999991
0.999991
0.999992
0.999994
0.999997
1.00001
1.00002
1.0001
1.00019
1.00063
1.00117
1.00365
1.0072
1.02016
1.04843
1.11709
1.3353
1.92911
2.34425
2.46034
2.45179
2.42625
2.40596
2.37376
2.33933
0.999991
0.999991
0.999992
0.999992
0.999996
1
1.00002
1.00005
1.00017
1.00033
1.00103
1.00199
1.00582
1.0125
1.03284
1.08586
1.2072
1.55652
2.21433
2.39471
2.41299
2.40139
2.37811
2.34036
2.30147
0.999991
0.999991
0.999991
0.999992
0.999995
0.999998
1.00001
1.00003
1.00012
1.00023
1.00076
1.00141
1.00435
1.00875
1.02338
1.06043
1.13639
1.41265
2.03267
2.32078
2.37533
2.36763
2.34818
2.31601
2.28476
0.999991
0.999991
0.999991
0.999992
0.999993
0.999997
1
1.00003
1.00006
1.0002
1.00038
1.00119
1.0023
1.00656
1.01482
1.03582
1.10015
1.2348
1.66028
2.1519
2.32998
2.33613
2.3238
2.29615
2.25689
0.999991
0.999991
0.999991
0.999991
0.999992
0.999995
0.999998
1.00002
1.00004
1.00013
1.00025
1.0008
1.00151
1.00443
1.00951
1.02399
1.06566
1.14248
1.44252
2.01462
2.25948
2.29524
2.28575
2.26669
2.23157
0.999991
0.999991
0.999991
0.999991
0.999992
0.999993
0.999997
1
1.00003
1.00006
1.00021
1.00039
1.00121
1.00242
1.00649
1.01582
1.03693
1.10682
1.24299
1.68799
2.10637
2.25371
2.25715
2.24312
2.2185
0.999991
0.999991
0.999991
0.999991
0.999991
0.999992
0.999995
0.999998
1.00001
1.00003
1.00013
1.00024
1.00079
1.00148
1.00439
1.00926
1.02394
1.06401
1.14116
1.42215
1.95317
2.17456
2.21437
2.20947
2.19472
0.999991
0.999991
0.999991
0.999991
0.999991
0.999992
0.999993
0.999997
1
1.00003
1.00006
1.00019
1.00037
1.00114
1.00224
1.00628
1.01444
1.03466
1.09676
1.2219
1.61524
2.0132
2.17119
2.18117
2.16557
0.999991
0.999991
0.999991
0.999991
0.999991
0.999991
0.999992
0.999994
0.999997
1.00001
1.00003
1.00011
1.00022
1.0007
1.00132
1.00393
1.00827
1.02137
1.05683
1.12439
1.37639
1.86162
2.07249
2.14213
2.14222
0.999991
0.999991
0.999991
0.999991
0.999991
0.999991
0.999992
0.999992
0.999996
1
1.00002
1.00005
1.00016
1.00031
1.00098
1.00188
1.00557
1.01167
1.03047
1.07585
1.18574
1.47817
1.91042
2.08671
2.10973
0.999991
0.999991
0.999991
0.999991
0.999991
0.999991
0.999991
0.999992
0.999994
0.999996
1.00001
1.00002
1.00009
1.00017
1.00057
1.00107
1.0033
1.00663
1.01775
1.04509
1.10155
1.29858
1.72199
1.97389
2.0698
0.999991
0.999991
0.999991
0.999991
0.999991
0.999991
0.999991
0.999991
0.999992
0.999994
0.999998
1.00001
1.00003
1.00012
1.00023
1.00072
1.00143
1.00412
1.00899
1.02341
1.06072
1.14158
1.38069
1.81734
1.99033
0.999991
0.999991
0.999991
0.999991
0.999991
0.999991
0.999991
0.999991
0.999991
0.999992
0.999995
1
1.00002
1.00004
1.00016
1.00031
1.00097
1.00189
1.00554
1.01172
1.03077
1.07493
1.19047
1.47125
1.84967
0.999991
0.999991
0.999991
0.999991
0.999991
0.999991
0.999991
0.999991
0.999991
0.999991
0.999993
0.999995
1.00001
1.00002
1.00008
1.00015
1.00051
1.00097
1.00294
1.00608
1.01595
1.04174
1.09171
1.2756
1.62999
0.999991
0.999991
0.999991
0.999991
0.999991
0.999991
0.999991
0.999991
0.999991
0.999991
0.999992
0.999994
0.999996
1.00001
1.00002
1.00009
1.00019
1.0006
1.00119
1.00343
1.00759
1.01937
1.05175
1.11631
1.32326
0.999991
0.999991
0.999991
0.999991
0.999991
0.999991
0.999991
0.999991
0.999991
0.999991
0.999991
0.999992
0.999994
1
1.00001
1.00005
1.00009
1.00032
1.00059
1.00191
1.00363
1.01095
1.02235
1.06177
1.14065
0.999991
0.999991
0.999991
0.999991
0.999991
0.999991
0.999991
0.999991
0.999991
0.999991
0.999991
0.999991
0.999992
0.999995
0.999999
1.00002
1.00004
1.00014
1.00027
1.00089
1.00167
1.00516
1.0102
1.02874
1.06443
0.999991
0.999991
0.999991
0.999991
0.999991
0.999991
0.999991
0.999991
0.999991
0.999991
0.999991
0.999991
0.999991
0.999993
0.999995
1
1.00001
1.00006
1.00012
1.0004
1.00077
1.00232
1.00483
1.01251
1.03214
0.999991
0.999991
0.999991
0.999991
0.999991
0.999991
0.999991
0.999991
0.999991
0.999991
0.999991
0.999991
0.999991
0.999991
0.999993
0.999995
1
1.00001
1.00006
1.00013
1.00041
1.00083
1.00235
1.00535
1.01319
0.999991
0.999991
0.999991
0.999991
0.999991
0.999991
0.999991
0.999991
0.999991
0.999991
0.999991
0.999991
0.999991
0.999991
0.999992
0.999993
0.999996
1
1.00002
1.00007
1.00014
1.00044
1.00089
1.00245
1.00572
0.999991
0.999991
0.999991
0.999991
0.999991
0.999991
0.999991
0.999991
0.999991
0.999991
0.999991
0.999991
0.999991
0.999991
0.999991
0.999992
0.999994
0.999996
1.00001
1.00002
1.00007
1.00015
1.00045
1.00091
1.00253
0.999991
0.999991
0.999991
0.999991
0.999991
0.999991
0.999991
0.999991
0.999991
0.999991
0.999991
0.999991
0.999991
0.999991
0.999991
0.999992
0.999993
0.999994
0.999999
1
1.00003
1.00006
1.0002
1.00037
1.00116
0.999991
0.999991
0.999991
0.999991
0.999991
0.999991
0.999991
0.999991
0.999991
0.999991
0.999991
0.999991
0.999991
0.999991
0.999991
0.999992
0.999992
0.999993
0.999996
1
1.00001
1.00003
1.00007
1.00019
1.00038
0.999991
0.999991
0.999991
0.999991
0.999991
0.999991
0.999991
0.999991
0.999991
0.999991
0.999991
0.999991
0.999991
0.999991
0.999991
0.999992
0.999992
0.999994
0.999995
0.999999
1
1.00001
1.00004
1.00008
1.0002
0.999991
0.999991
0.999991
0.999991
0.999991
0.999991
0.999991
0.999991
0.999991
0.999991
0.999991
0.999991
0.999991
0.999991
0.999991
0.999992
0.999992
0.999993
0.999995
0.999998
1
1.00001
1.00003
1.00005
1.0001
0.999991
0.999991
0.999991
0.999991
0.999991
0.999991
0.999991
0.999991
0.999991
0.999991
0.999991
0.999991
0.999991
0.999991
0.999991
0.999992
0.999992
0.999993
0.999995
0.999998
1
1.00001
1.00002
1.00004
1.00007
0.999991
0.999991
0.999991
0.999991
0.999991
0.999991
0.999991
0.999991
0.999991
0.999991
0.999991
0.999991
0.999991
0.999991
0.999991
0.999992
0.999992
0.999993
0.999995
0.999998
1
1.00001
1.00002
1.00004
1.00007
0.999991
0.999991
0.999991
0.999991
0.999991
0.999991
0.999991
0.999991
0.999991
0.999991
0.999991
0.999991
0.999991
0.999991
0.999991
0.999992
0.999992
0.999993
0.999995
0.999998
1
1.00001
1.00002
1.00004
1.00007
0.999991
0.999991
0.999991
0.999991
0.999991
0.999991
0.999991
0.999991
0.999991
0.999991
0.999991
0.999991
0.999991
0.999991
0.999991
0.999992
0.999992
0.999993
0.999995
0.999998
1
1.00001
1.00002
1.00004
1.00007
0.999991
0.999991
0.999991
0.999991
0.999991
0.999991
0.999991
0.999991
0.999991
0.999991
0.999991
0.999991
0.999991
0.999991
0.999991
0.999992
0.999992
0.999993
0.999995
0.999998
1
1.00001
1.00002
1.00004
1.00007
0.999991
0.999991
0.999991
0.999991
0.999991
0.999991
0.999991
0.999991
0.999991
0.999991
0.999991
0.999991
0.999991
0.999991
0.999991
0.999992
0.999992
0.999993
0.999995
0.999998
1
1.00001
1.00002
1.00004
1.00007
0.999991
0.999991
0.999991
0.999991
0.999991
0.999991
0.999991
0.999991
0.999991
0.999991
0.999991
0.999991
0.999991
0.999991
0.999991
0.999992
0.999992
0.999993
0.999995
0.999998
1
1.00001
1.00002
1.00004
1.00007
0.999991
0.999991
0.999991
0.999991
0.999991
0.999991
0.999991
0.999991
0.999991
0.999991
0.999991
0.999991
0.999991
0.999991
0.999991
0.999992
0.999992
0.999993
0.999995
0.999998
1
1.00001
1.00002
1.00004
1.00007
1
1
1.00001
1.00001
1.00004
1.00007
1.00023
1.00043
1.00133
1.00263
1.00718
1.01724
1.04095
1.1201
1.27811
1.76307
2.47624
2.68372
2.68074
2.66742
2.661
2.6791
2.81318
2.77803
2.31095
1
1
1.00001
1.00001
1.00003
1.00006
1.0002
1.00037
1.00119
1.00218
1.00673
1.01366
1.03663
1.09499
1.22732
1.64173
2.45017
2.66055
2.65902
2.65455
2.63479
2.63296
2.71492
2.71645
2.3515
1
1
1
1.00001
1.00003
1.00005
1.00017
1.0003
1.00096
1.00178
1.00534
1.01115
1.02951
1.07952
1.18016
1.55032
2.33778
2.61089
2.63775
2.62751
2.5987
2.58224
2.6205
2.64916
2.4726
1
1
1
1.00001
1.00002
1.00004
1.00013
1.00024
1.00077
1.00143
1.00422
1.00906
1.02315
1.06399
1.13992
1.4536
2.12517
2.54
2.62273
2.60773
2.5753
2.53341
2.53594
2.5522
2.49637
1
1
1
1.00001
1.00002
1.00003
1.00011
1.00019
1.00062
1.00114
1.00353
1.00699
1.01953
1.04701
1.11403
1.32591
1.92542
2.39944
2.58345
2.57826
2.55689
2.51341
2.4943
2.49166
2.47381
1
1
1
1.00001
1.00001
1.00003
1.00006
1.00019
1.00035
1.00109
1.00209
1.00609
1.01316
1.03454
1.0914
1.22082
1.60247
2.337
2.51268
2.51302
2.50584
2.48064
2.45887
2.44459
2.43394
1
1
1
1
1.00001
1.00003
1.00005
1.00015
1.00027
1.00085
1.00158
1.00474
1.00993
1.02581
1.06998
1.15541
1.48576
2.18623
2.46524
2.49326
2.47211
2.45643
2.42992
2.39972
2.37096
1
1
1
1
1.00001
1.00002
1.00003
1.00011
1.0002
1.00064
1.00118
1.00366
1.00721
1.02017
1.04844
1.11712
1.33535
1.92925
2.34433
2.46039
2.45184
2.42628
2.40598
2.37379
2.33937
1
1
1
1
1.00001
1.00001
1.00003
1.00006
1.00018
1.00034
1.00104
1.002
1.00584
1.01252
1.03286
1.08587
1.20726
1.55656
2.2144
2.39474
2.41302
2.40142
2.37814
2.3404
2.30152
1
1
1
1
1
1.00001
1.00002
1.00004
1.00013
1.00024
1.00077
1.00142
1.00436
1.00876
1.0234
1.06044
1.13643
1.4127
2.03276
2.32085
2.37538
2.36767
2.34821
2.31603