/*--------------------------------*- C++ -*----------------------------------*\
| =========                 |                                                 |
| \\      /  F ield         | OpenFOAM: The Open Source CFD Toolbox           |
|  \\    /   O peration     | Version:  4.1                                   |
|   \\  /    A nd           | Web:      www.OpenFOAM.org                      |
|    \\/     M anipulation  |                                                 |
\*---------------------------------------------------------------------------*/
FoamFile
{
    version     2.0;
    format      ascii;
    class       volVectorField;
    location    "5.26";
    object      U;
}
// * * * * * * * * * * * * * * * * * * * * * * * * * * * * * * * * * * * * * //

dimensions      [0 1 -1 0 0 0 0];

internalField   nonuniform List<vector> 
52500
(
(3 1.50956e-08 -0.00571425)
(2.99998 8.36896e-08 -0.00571439)
(2.99996 3.12825e-07 -0.00571459)
(2.99989 8.06257e-07 -0.00571523)
(2.99976 2.23344e-06 -0.00571641)
(2.99937 5.15928e-06 -0.00571997)
(2.99863 1.33887e-05 -0.00572697)
(2.99625 3.09183e-05 -0.00574568)
(2.99217 7.69845e-05 -0.00579276)
(2.97647 0.000175549 -0.00588432)
(2.94914 0.000476326 -0.00624789)
(2.84369 0.00111251 -0.00674263)
(2.56027 0.0030674 -0.00925756)
(1.87099 0.00811398 -0.0139224)
(0.83632 0.0230791 -0.0176635)
(0.467535 0.0224363 -0.0185217)
(0.544365 0.0234968 -0.0185357)
(0.566043 0.0256629 -0.018573)
(0.513967 0.027719 -0.0187595)
(0.424499 0.0296582 -0.018941)
(0.338368 0.0320499 -0.0191353)
(0.268611 0.0349291 -0.0192988)
(0.199029 0.0379903 -0.0194566)
(0.119604 0.0415996 -0.0196092)
(0.0525401 0.0468859 -0.0197584)
(3 4.2892e-08 -0.00571425)
(2.99998 2.37065e-07 -0.00571439)
(2.99996 8.87609e-07 -0.00571459)
(2.9999 2.27863e-06 -0.00571522)
(2.99976 6.33241e-06 -0.00571637)
(2.99938 1.45527e-05 -0.00571987)
(2.99865 3.82841e-05 -0.00572678)
(2.9963 8.64206e-05 -0.00574511)
(2.99229 0.000226872 -0.00579167)
(2.9768 0.000499042 -0.00588124)
(2.94994 0.00143533 -0.00624058)
(2.84568 0.00326429 -0.00672402)
(2.5667 0.00999286 -0.0092187)
(1.8857 0.0256689 -0.0138239)
(0.842945 0.0718075 -0.017552)
(0.461296 0.0662099 -0.0184496)
(0.541225 0.0660016 -0.0184631)
(0.56393 0.0697589 -0.0184926)
(0.511532 0.0731601 -0.0186708)
(0.422161 0.0763028 -0.0188452)
(0.336418 0.0802001 -0.0190308)
(0.266523 0.0846904 -0.0191849)
(0.196263 0.0888819 -0.0193352)
(0.115853 0.0930458 -0.0194736)
(0.0487246 0.0974505 -0.0196071)
(3 6.60347e-08 -0.00571425)
(2.99998 3.64398e-07 -0.00571438)
(2.99996 1.36481e-06 -0.00571458)
(2.9999 3.48947e-06 -0.00571519)
(2.99977 9.71601e-06 -0.00571631)
(2.9994 2.21646e-05 -0.00571971)
(2.99869 5.92775e-05 -0.00572641)
(2.99641 0.000129213 -0.00574417)
(2.99252 0.000365446 -0.00578944)
(2.97746 0.000759808 -0.00587601)
(2.9515 0.00237098 -0.00622512)
(2.85023 0.00514197 -0.00669095)
(2.58115 0.0182295 -0.00912041)
(1.91947 0.0447672 -0.013615)
(0.862653 0.1261 -0.0173765)
(0.456409 0.11355 -0.0183577)
(0.542209 0.110966 -0.0183708)
(0.567235 0.117113 -0.0183902)
(0.514628 0.123311 -0.0185617)
(0.425705 0.129832 -0.0187269)
(0.340522 0.137145 -0.0189066)
(0.270267 0.145191 -0.0190482)
(0.198946 0.153015 -0.0191916)
(0.1171 0.160246 -0.0193296)
(0.0482115 0.165823 -0.0194526)
(3 8.46374e-08 -0.00571425)
(2.99999 4.66635e-07 -0.00571438)
(2.99996 1.74824e-06 -0.00571456)
(2.9999 4.4571e-06 -0.00571515)
(2.99978 1.2435e-05 -0.00571623)
(2.99942 2.82161e-05 -0.00571949)
(2.99874 7.66266e-05 -0.00572591)
(2.99656 0.000161727 -0.00574306)
(2.99282 0.000490589 -0.00578604)
(2.97844 0.000957726 -0.00586982)
(2.95369 0.0033033 -0.0062008)
(2.85776 0.00684375 -0.00665114)
(2.60395 0.0262334 -0.00893502)
(1.973 0.0630515 -0.0132786)
(0.896709 0.179862 -0.0171368)
(0.452638 0.160742 -0.018249)
(0.546869 0.155253 -0.0182608)
(0.575793 0.16375 -0.018266)
(0.52324 0.172964 -0.0184287)
(0.434999 0.183487 -0.0185881)
(0.350272 0.194635 -0.018761)
(0.279632 0.206654 -0.0188994)
(0.207018 0.218702 -0.0190258)
(0.122673 0.229736 -0.0191477)
(0.0499826 0.237043 -0.0192857)
(3 9.84712e-08 -0.00571425)
(2.99999 5.43454e-07 -0.00571437)
(2.99997 2.02807e-06 -0.00571455)
(2.99991 5.15266e-06 -0.00571511)
(2.99979 1.43119e-05 -0.00571613)
(2.99945 3.21777e-05 -0.00571924)
(2.9988 8.85965e-05 -0.00572528)
(2.99675 0.00017593 -0.00574183)
(2.99318 0.000598367 -0.00578156)
(2.97977 0.000987092 -0.00586267)
(2.95654 0.00431655 -0.00616666)
(2.86772 0.00819274 -0.00659887)
(2.63432 0.0330317 -0.00868655)
(2.04531 0.0790324 -0.012821)
(0.945203 0.230087 -0.0168324)
(0.452914 0.208536 -0.0181222)
(0.55657 0.200212 -0.0181356)
(0.590455 0.210142 -0.0181159)
(0.538135 0.22177 -0.0182774)
(0.450762 0.2363 -0.0184089)
(0.366155 0.251622 -0.0185753)
(0.294772 0.268252 -0.018703)
(0.22027 0.285373 -0.0188399)
(0.132301 0.301178 -0.0189607)
(0.0541077 0.311021 -0.0190739)
(3 1.20572e-07 -0.00571425)
(2.99999 6.66586e-07 -0.00571436)
(2.99997 2.48422e-06 -0.00571453)
(2.99991 6.34685e-06 -0.00571506)
(2.9998 1.75607e-05 -0.00571602)
(2.99949 3.98318e-05 -0.00571898)
(2.99886 0.000107307 -0.00572457)
(2.99698 0.000222749 -0.005741)
(2.9935 0.000703384 -0.00577591)
(2.98149 0.00117979 -0.00585821)
(2.95985 0.00504167 -0.00611692)
(2.87978 0.0093462 -0.00653849)
(2.67154 0.0373777 -0.00836953)
(2.1356 0.0900793 -0.0122349)
(1.01323 0.271045 -0.0164533)
(0.466466 0.257204 -0.0179605)
(0.574823 0.248797 -0.0179727)
(0.613069 0.258609 -0.0179458)
(0.561078 0.271469 -0.0181101)
(0.474698 0.289732 -0.0182396)
(0.389849 0.30973 -0.0183741)
(0.317333 0.331788 -0.0184973)
(0.240441 0.355323 -0.0185988)
(0.14724 0.37812 -0.0187045)
(0.0608085 0.3929 -0.0188474)
(3 1.41888e-07 -0.00571425)
(2.99999 7.84102e-07 -0.00571435)
(2.99997 2.925e-06 -0.00571451)
(2.99992 7.50684e-06 -0.00571499)
(2.99982 2.07505e-05 -0.00571587)
(2.99953 4.75229e-05 -0.00571858)
(2.99895 0.000124906 -0.00572371)
(2.99725 0.000276563 -0.00573872)
(2.99398 0.00075875 -0.00577015)
(2.98333 0.0015222 -0.00584819)
(2.9635 0.00507235 -0.00606956)
(2.8928 0.00993245 -0.00647024)
(2.71117 0.036849 -0.00804234)
(2.23771 0.0899856 -0.0115728)
(1.10407 0.27624 -0.0159994)
(0.506395 0.298701 -0.0177405)
(0.606674 0.300431 -0.017737)
(0.64509 0.308667 -0.0177058)
(0.593741 0.321896 -0.0178694)
(0.509114 0.344275 -0.0180086)
(0.423614 0.369839 -0.0181402)
(0.349374 0.398564 -0.0182338)
(0.269699 0.43042 -0.0183457)
(0.170388 0.46347 -0.0184363)
(0.0725373 0.488246 -0.0185289)
(3 1.50276e-07 -0.00571425)
(2.99999 8.29777e-07 -0.00571434)
(2.99997 3.08565e-06 -0.00571448)
(2.99993 7.9042e-06 -0.00571492)
(2.99984 2.17453e-05 -0.00571572)
(2.99957 4.96425e-05 -0.00571817)
(2.99905 0.000129473 -0.00572281)
(2.99751 0.000286958 -0.00573645)
(2.99454 0.000757689 -0.00576468)
(2.98505 0.00164149 -0.00583644)
(2.96699 0.0046893 -0.00602997)
(2.90465 0.0101278 -0.00640592)
(2.74625 0.0325279 -0.00775821)
(2.32649 0.0803946 -0.0109949)
(1.20402 0.242022 -0.0156112)
(0.558181 0.333812 -0.017514)
(0.634709 0.358938 -0.0175172)
(0.67148 0.360344 -0.0175031)
(0.627143 0.372838 -0.0176486)
(0.549187 0.399499 -0.0177492)
(0.465661 0.431786 -0.0178746)
(0.39141 0.468807 -0.0179401)
(0.310625 0.511532 -0.0179913)
(0.206047 0.560209 -0.0180437)
(0.0926592 0.60598 -0.0181405)
(3 1.81769e-07 -0.00571425)
(2.99999 9.95707e-07 -0.00571433)
(2.99998 3.7105e-06 -0.00571445)
(2.99994 9.54409e-06 -0.00571484)
(2.99985 2.63444e-05 -0.00571556)
(2.99962 6.08565e-05 -0.00571776)
(2.99915 0.000156287 -0.0057219)
(2.99777 0.000367753 -0.00573418)
(2.99511 0.000853526 -0.00575933)
(2.98658 0.00218808 -0.00582383)
(2.97068 0.00464684 -0.00599809)
(2.91477 0.011966 -0.00632608)
(2.77495 0.0299755 -0.00756463)
(2.39685 0.075027 -0.0103422)
(1.31762 0.216485 -0.0154184)
(0.621554 0.380533 -0.0173483)
(0.647908 0.413451 -0.0172685)
(0.677168 0.409633 -0.0173206)
(0.652206 0.424229 -0.0174347)
(0.58864 0.453143 -0.0174918)
(0.512678 0.493782 -0.0175729)
(0.442679 0.540912 -0.017614)
(0.365777 0.597227 -0.01763)
(0.263006 0.67064 -0.0176017)
(0.130357 0.76114 -0.0174946)
(3 2.78722e-07 -0.00571425)
(2.99999 4.89719e-07 -0.00571431)
(2.99998 4.05907e-06 -0.00571442)
(2.99995 5.96485e-06 -0.00571474)
(2.99988 2.75073e-05 -0.00571534)
(2.99968 3.85541e-05 -0.0057171)
(2.9993 0.000164654 -0.00572068)
(2.99809 0.00021619 -0.00572964)
(2.99606 0.000999212 -0.00575402)
(2.98819 0.00102063 -0.00579765)
(2.97525 0.00661802 -0.00597879)
(2.92484 0.00445405 -0.00621591)
(2.80184 0.0425342 -0.00743273)
(2.46584 0.0557108 -0.00960558)
(1.46513 0.227133 -0.0148673)
(0.715929 0.436458 -0.017026)
(0.656634 0.453413 -0.017149)
(0.6823 0.450828 -0.0171856)
(0.674294 0.470668 -0.0172106)
(0.62722 0.502586 -0.0172683)
(0.564829 0.551594 -0.0172573)
(0.50383 0.609728 -0.0172231)
(0.440838 0.686143 -0.0171288)
(0.358102 0.803036 -0.0169351)
(0.201826 1.00994 -0.0165382)
(3 1.54963e-08 -2.53576e-09)
(2.99998 8.38782e-08 -8.67049e-09)
(2.99996 3.13793e-07 -1.00356e-08)
(2.99989 8.05161e-07 -1.61531e-08)
(2.99976 2.23611e-06 -1.59606e-08)
(2.99937 5.15932e-06 -2.18342e-08)
(2.99862 1.33914e-05 -2.2024e-08)
(2.99625 3.09185e-05 -3.04916e-08)
(2.99217 7.69915e-05 -3.24627e-08)
(2.97647 0.000175557 -5.99691e-08)
(2.94913 0.000476352 -7.70626e-08)
(2.84367 0.00111261 -1.7296e-07)
(2.56022 0.00306756 -2.12431e-07)
(1.87088 0.00811453 -6.9221e-07)
(0.836281 0.0230794 -7.58625e-07)
(0.46758 0.0224367 9.41297e-08)
(0.544381 0.023497 -1.50691e-08)
(0.566048 0.0256628 -8.01215e-08)
(0.513973 0.0277187 -7.91556e-08)
(0.424507 0.029658 -7.1958e-08)
(0.338376 0.0320499 -6.63034e-08)
(0.268619 0.0349294 -6.69839e-08)
(0.199035 0.0379909 -6.80099e-08)
(0.119608 0.0416007 -6.99908e-08)
(0.052543 0.046888 -7.27735e-08)
(3 4.3889e-08 -2.52776e-09)
(2.99998 2.37803e-07 -8.6737e-09)
(2.99996 8.89213e-07 -1.00217e-08)
(2.99989 2.27854e-06 -1.61923e-08)
(2.99976 6.33657e-06 -1.58959e-08)
(2.99938 1.45554e-05 -2.18745e-08)
(2.99865 3.82915e-05 -2.19818e-08)
(2.9963 8.6435e-05 -3.05344e-08)
(2.99229 0.000226895 -3.23462e-08)
(2.97679 0.000499127 -5.99372e-08)
(2.94993 0.00143545 -7.68278e-08)
(2.84566 0.00326485 -1.71777e-07)
(2.56665 0.00999269 -2.11874e-07)
(1.88558 0.0256704 -6.89306e-07)
(0.842906 0.0718079 -7.63421e-07)
(0.46134 0.066211 9.51683e-08)
(0.54124 0.0660029 -1.56139e-08)
(0.563933 0.0697597 -8.13909e-08)
(0.511536 0.0731605 -8.01786e-08)
(0.422167 0.0763031 -7.24516e-08)
(0.336424 0.0802007 -6.61447e-08)
(0.266528 0.0846915 -6.64574e-08)
(0.196268 0.0888835 -6.70784e-08)
(0.115856 0.0930482 -6.82592e-08)
(0.0487265 0.0974543 -7.03071e-08)
(3 6.73263e-08 -2.51563e-09)
(2.99998 3.65765e-07 -8.6732e-09)
(2.99996 1.36516e-06 -1.00194e-08)
(2.9999 3.49477e-06 -1.61883e-08)
(2.99977 9.71548e-06 -1.58816e-08)
(2.9994 2.21726e-05 -2.18515e-08)
(2.99868 5.92877e-05 -2.19351e-08)
(2.99641 0.00012926 -3.03325e-08)
(2.99251 0.000365495 -3.23184e-08)
(2.97746 0.00076006 -5.86858e-08)
(2.95149 0.00237137 -7.66285e-08)
(2.85021 0.00514313 -1.64568e-07)
(2.5811 0.0182303 -2.26243e-07)
(1.91936 0.044771 -6.76819e-07)
(0.862609 0.126101 -7.80818e-07)
(0.456445 0.113551 9.73684e-08)
(0.542219 0.110966 -1.41844e-08)
(0.567234 0.117113 -8.30419e-08)
(0.514628 0.123311 -8.21015e-08)
(0.425707 0.129832 -7.39222e-08)
(0.340526 0.137146 -6.66497e-08)
(0.27027 0.145193 -6.63681e-08)
(0.198948 0.153017 -6.61652e-08)
(0.117102 0.160249 -6.59049e-08)
(0.0482127 0.165828 -6.62778e-08)
(3 8.59988e-08 -2.50176e-09)
(2.99998 4.68202e-07 -8.66895e-09)
(2.99996 1.74508e-06 -1.00417e-08)
(2.9999 4.46476e-06 -1.61007e-08)
(2.99978 1.2414e-05 -1.59894e-08)
(2.99942 2.81941e-05 -2.17275e-08)
(2.99874 7.65549e-05 -2.19173e-08)
(2.99656 0.000161475 -2.98205e-08)
(2.99282 0.000490469 -3.22723e-08)
(2.97844 0.000955791 -5.60744e-08)
(2.95368 0.00330553 -7.41126e-08)
(2.85774 0.00684135 -1.57694e-07)
(2.6039 0.0262414 -2.20957e-07)
(1.97289 0.0630639 -6.5978e-07)
(0.896656 0.179877 -8.15191e-07)
(0.45266 0.160748 9.08771e-08)
(0.546869 0.155252 -1.8319e-08)
(0.575785 0.163748 -8.44321e-08)
(0.523234 0.172963 -8.32348e-08)
(0.434997 0.183487 -7.42965e-08)
(0.350271 0.194635 -6.70875e-08)
(0.279631 0.206655 -6.68096e-08)
(0.207018 0.218704 -6.55675e-08)
(0.122673 0.22974 -6.35549e-08)
(0.049983 0.237049 -6.21932e-08)
(3 9.96571e-08 -2.48811e-09)
(2.99999 5.46881e-07 -8.66595e-09)
(2.99996 2.0272e-06 -1.01118e-08)
(2.99991 5.16445e-06 -1.59876e-08)
(2.99979 1.4312e-05 -1.63974e-08)
(2.99945 3.22e-05 -2.19584e-08)
(2.9988 8.86216e-05 -2.28978e-08)
(2.99675 0.000176004 -3.4008e-08)
(2.99318 0.000598542 -3.02115e-08)
(2.97976 0.0009864 -9.34642e-08)
(2.95653 0.00431894 -5.52246e-09)
(2.86771 0.00819284 -2.3915e-07)
(2.63429 0.0330387 -8.80642e-08)
(2.04522 0.0790459 -6.12964e-07)
(0.945181 0.230108 -7.93344e-07)
(0.452959 0.208544 5.65546e-08)
(0.556586 0.200212 -4.57967e-08)
(0.59046 0.210142 -9.27251e-08)
(0.53814 0.221769 -8.77889e-08)
(0.450766 0.2363 -7.5114e-08)
(0.366157 0.251622 -6.89322e-08)
(0.294773 0.268253 -6.80812e-08)
(0.22027 0.285374 -6.55858e-08)
(0.132301 0.301181 -6.23909e-08)
(0.0541079 0.311026 -5.97176e-08)
(3 1.22544e-07 -2.47804e-09)
(2.99999 6.70274e-07 -8.62128e-09)
(2.99997 2.48903e-06 -1.01199e-08)
(2.99991 6.35987e-06 -1.58649e-08)
(2.9998 1.75914e-05 -1.61791e-08)
(2.99948 3.99059e-05 -2.13422e-08)
(2.99886 0.000107472 -2.1824e-08)
(2.99698 0.000223263 -2.89323e-08)
(2.99349 0.00070389 -3.02458e-08)
(2.98149 0.00118289 -7.28938e-08)
(2.95984 0.00504183 -1.99695e-08)
(2.87977 0.00935251 -1.92319e-07)
(2.67151 0.0373773 -1.14265e-07)
(2.13551 0.0900868 -5.58257e-07)
(1.0132 0.271059 -7.80866e-07)
(0.466504 0.257206 2.15372e-08)
(0.574842 0.248795 -5.91094e-08)
(0.613081 0.258609 -9.19199e-08)
(0.561089 0.27147 -8.62359e-08)
(0.474709 0.289734 -7.44161e-08)
(0.389856 0.309731 -7.08773e-08)
(0.317337 0.33179 -7.02859e-08)
(0.240444 0.355325 -6.69301e-08)
(0.147241 0.378123 -6.28268e-08)
(0.0608089 0.392905 -5.99528e-08)
(3 1.4466e-07 -2.44898e-09)
(2.99999 7.85987e-07 -8.62628e-09)
(2.99997 2.92914e-06 -1.00879e-08)
(2.99992 7.51341e-06 -1.58274e-08)
(2.99982 2.07662e-05 -1.60396e-08)
(2.99953 4.75555e-05 -2.10814e-08)
(2.99895 0.000124989 -2.10634e-08)
(2.99725 0.000276763 -2.70645e-08)
(2.99398 0.000759033 -2.97001e-08)
(2.98333 0.00152413 -4.39595e-08)
(2.9635 0.00507261 -5.24381e-08)
(2.89279 0.00993665 -1.36058e-07)
(2.71114 0.0368521 -1.63043e-07)
(2.23762 0.0899994 -5.13725e-07)
(1.10402 0.276284 -8.10438e-07)
(0.506392 0.298708 -3.1328e-08)
(0.606675 0.300427 -7.66199e-08)
(0.645096 0.308668 -8.31988e-08)
(0.593749 0.3219 -7.73559e-08)
(0.509123 0.344279 -6.83925e-08)
(0.423622 0.369843 -6.82295e-08)
(0.34938 0.398567 -6.8537e-08)
(0.269704 0.430424 -6.65808e-08)
(0.170391 0.463475 -6.36665e-08)
(0.0725381 0.488251 -6.14645e-08)
(3 1.52599e-07 -2.4225e-09)
(2.99999 8.3158e-07 -8.63101e-09)
(2.99997 3.08759e-06 -1.00819e-08)
(2.99993 7.90747e-06 -1.58144e-08)
(2.99983 2.1751e-05 -1.59968e-08)
(2.99957 4.96539e-05 -2.09939e-08)
(2.99905 0.000129497 -2.08228e-08)
(2.99751 0.000287013 -2.65523e-08)
(2.99454 0.000757813 -2.84528e-08)
(2.98504 0.00164176 -4.1102e-08)
(2.96698 0.0046901 -4.57429e-08)
(2.90464 0.0101287 -1.26418e-07)
(2.74622 0.0325338 -1.13214e-07)
(2.32644 0.0804069 -3.88855e-07)
(1.20398 0.242075 -4.97176e-07)
(0.558185 0.333811 -2.02137e-07)
(0.634725 0.358924 -1.31783e-07)
(0.671498 0.360344 -6.966e-08)
(0.627157 0.372842 -6.90296e-08)
(0.549199 0.399505 -6.74827e-08)
(0.46567 0.431791 -6.79465e-08)
(0.391418 0.468812 -6.67778e-08)
(0.310631 0.511536 -6.47634e-08)
(0.206051 0.560214 -6.34192e-08)
(0.0926608 0.605987 -6.31667e-08)
(3 1.82014e-07 -2.40243e-09)
(2.99999 9.94822e-07 -8.62875e-09)
(2.99997 3.70623e-06 -1.00893e-08)
(2.99993 9.51687e-06 -1.58034e-08)
(2.99985 2.63297e-05 -1.59891e-08)
(2.99962 6.08022e-05 -2.09641e-08)
(2.99915 0.000156224 -2.07822e-08)
(2.99777 0.00036761 -2.64167e-08)
(2.99511 0.000853423 -2.82276e-08)
(2.98657 0.00218773 -4.08754e-08)
(2.97068 0.00464632 -4.17095e-08)
(2.91476 0.0119667 -1.33691e-07)
(2.77492 0.0299779 -7.64703e-08)
(2.39681 0.0750297 -4.03573e-07)
(1.31757 0.216505 -4.3713e-07)
(0.621524 0.38052 -3.89919e-07)
(0.647927 0.413443 -2.07614e-07)
(0.6772 0.409633 -1.58642e-08)
(0.652226 0.424234 -5.12906e-08)
(0.588654 0.453149 -6.00617e-08)
(0.51269 0.493788 -6.46406e-08)
(0.442689 0.540918 -6.32326e-08)
(0.365785 0.597233 -6.23989e-08)
(0.263012 0.670647 -6.13009e-08)
(0.13036 0.761149 -6.24606e-08)
(3 2.64602e-07 -2.41751e-09)
(2.99999 5.45314e-07 -8.65032e-09)
(2.99998 3.95204e-06 -1.0148e-08)
(2.99994 6.0037e-06 -1.62658e-08)
(2.99988 2.73765e-05 -1.58178e-08)
(2.99968 3.85919e-05 -2.16938e-08)
(2.9993 0.000164523 -2.10594e-08)
(2.99809 0.000216238 -2.80567e-08)
(2.99606 0.000999042 -2.77746e-08)
(2.98818 0.00102096 -4.56567e-08)
(2.97524 0.00661725 -4.98834e-08)
(2.92483 0.0044567 -1.04698e-07)
(2.80182 0.0425311 -7.76171e-08)
(2.46579 0.0557208 -3.87263e-07)
(1.46508 0.227134 -4.11124e-07)
(0.715888 0.436447 -4.83095e-07)
(0.656653 0.453421 -8.1076e-08)
(0.682327 0.450834 -2.5064e-08)
(0.674315 0.470675 -4.2889e-08)
(0.627237 0.502593 -5.05101e-08)
(0.564843 0.551602 -5.98841e-08)
(0.503842 0.609735 -5.92411e-08)
(0.440848 0.686151 -5.83181e-08)
(0.35811 0.803043 -5.7495e-08)
(0.201831 1.00995 -5.80087e-08)
(3 1.54963e-08 -3.96921e-13)
(2.99998 8.38786e-08 -2.0986e-12)
(2.99996 3.13794e-07 -4.6568e-12)
(2.99989 8.05164e-07 -9.88173e-12)
(2.99976 2.23611e-06 -1.8469e-11)
(2.99937 5.15932e-06 -3.51622e-11)
(2.99862 1.33914e-05 -7.39853e-11)
(2.99625 3.09184e-05 -1.45581e-10)
(2.99217 7.69913e-05 -3.45194e-10)
(2.97647 0.000175557 -6.9772e-10)
(2.94913 0.00047635 -1.93736e-09)
(2.84367 0.0011126 -4.12318e-09)
(2.56022 0.00306754 -9.76045e-09)
(1.87087 0.00811448 -2.65438e-08)
(0.836279 0.0230792 -3.55292e-08)
(0.467583 0.0224366 3.99825e-09)
(0.544382 0.0234969 -8.81021e-10)
(0.566049 0.0256627 -3.14439e-09)
(0.513974 0.0277186 -2.86878e-09)
(0.424508 0.0296578 -2.36321e-09)
(0.338378 0.0320497 -2.60825e-09)
(0.26862 0.0349294 -3.04309e-09)
(0.199036 0.0379909 -3.44004e-09)
(0.119609 0.0416009 -3.99235e-09)
(0.0525437 0.0468885 -4.75273e-09)
(3 4.38899e-08 -3.96002e-13)
(2.99998 2.37807e-07 -2.0921e-12)
(2.99996 8.89231e-07 -4.64535e-12)
(2.99989 2.27859e-06 -9.85919e-12)
(2.99976 6.33669e-06 -1.84638e-11)
(2.99938 1.45557e-05 -3.52036e-11)
(2.99865 3.82921e-05 -7.42668e-11)
(2.9963 8.64371e-05 -1.47555e-10)
(2.99229 0.000226897 -3.46732e-10)
(2.97679 0.000499137 -7.12655e-10)
(2.94993 0.00143545 -1.97183e-09)
(2.84566 0.00326489 -4.22116e-09)
(2.56665 0.00999247 -9.93376e-09)
(1.88558 0.0256702 -2.7076e-08)
(0.842903 0.0718072 -3.6356e-08)
(0.461343 0.0662106 4.41226e-09)
(0.541241 0.0660027 -6.86283e-10)
(0.563934 0.0697596 -3.14416e-09)
(0.511536 0.0731604 -2.91236e-09)
(0.422167 0.076303 -2.4425e-09)
(0.336424 0.0802006 -2.59959e-09)
(0.266528 0.0846915 -2.9346e-09)
(0.196268 0.0888837 -3.27861e-09)
(0.115856 0.0930486 -3.7328e-09)
(0.0487268 0.0974551 -4.36289e-09)
(3 6.73273e-08 -3.81077e-13)
(2.99998 3.6577e-07 -2.02865e-12)
(2.99996 1.36518e-06 -4.42407e-12)
(2.9999 3.49482e-06 -9.37734e-12)
(2.99977 9.71561e-06 -1.70397e-11)
(2.9994 2.21729e-05 -3.18785e-11)
(2.99868 5.92884e-05 -6.77037e-11)
(2.99641 0.000129262 -1.19399e-10)
(2.99251 0.000365497 -3.49812e-10)
(2.97746 0.000760069 -5.56801e-10)
(2.95149 0.00237137 -2.04871e-09)
(2.85021 0.00514316 -3.49652e-09)
(2.5811 0.01823 -1.32229e-08)
(1.91935 0.0447707 -2.76589e-08)
(0.862606 0.1261 -3.97283e-08)
(0.456447 0.11355 5.24343e-09)
(0.542219 0.110966 -4.29821e-11)
(0.567234 0.117113 -3.05034e-09)
(0.514628 0.123311 -2.94364e-09)
(0.425707 0.129832 -2.5674e-09)
(0.340526 0.137146 -2.59835e-09)
(0.27027 0.145193 -2.80343e-09)
(0.198948 0.153018 -3.02546e-09)
(0.117102 0.16025 -3.29501e-09)
(0.0482128 0.165829 -3.63466e-09)
(3 8.60001e-08 -3.77676e-13)
(2.99998 4.68207e-07 -2.01242e-12)
(2.99996 1.74511e-06 -4.38452e-12)
(2.9999 4.46483e-06 -9.28403e-12)
(2.99978 1.24142e-05 -1.6916e-11)
(2.99942 2.81945e-05 -3.16942e-11)
(2.99874 7.65559e-05 -6.7754e-11)
(2.99656 0.000161478 -1.21566e-10)
(2.99282 0.000490471 -3.53383e-10)
(2.97844 0.000955813 -5.79363e-10)
(2.95368 0.00330551 -2.12997e-09)
(2.85774 0.00684137 -3.64338e-09)
(2.6039 0.0262413 -1.38367e-08)
(1.97288 0.0630636 -2.90708e-08)
(0.896653 0.179877 -4.354e-08)
(0.452662 0.160748 6.27596e-09)
(0.546869 0.155252 4.43277e-10)
(0.575785 0.163748 -3.07417e-09)
(0.523234 0.172963 -3.02862e-09)
(0.434996 0.183487 -2.67378e-09)
(0.350271 0.194635 -2.57048e-09)
(0.279631 0.206655 -2.69807e-09)
(0.207018 0.218704 -2.78022e-09)
(0.122673 0.22974 -2.83902e-09)
(0.049983 0.23705 -2.90462e-09)
(3 9.96574e-08 -3.5564e-13)
(2.99999 5.46883e-07 -1.94522e-12)
(2.99996 2.02721e-06 -4.08679e-12)
(2.99991 5.16446e-06 -8.63367e-12)
(2.99979 1.43121e-05 -1.49322e-11)
(2.99945 3.22001e-05 -2.69085e-11)
(2.9988 8.8622e-05 -5.80637e-11)
(2.99675 0.000176005 -7.54221e-11)
(2.99318 0.000598543 -3.71927e-10)
(2.97976 0.000986413 -2.05579e-10)
(2.95653 0.00431893 -2.78162e-09)
(2.86771 0.00819286 -2.85744e-09)
(2.63429 0.0330387 -1.52811e-08)
(2.04521 0.0790459 -3.02295e-08)
(0.945177 0.230108 -4.84762e-08)
(0.45296 0.208544 6.54818e-09)
(0.556586 0.200212 8.11192e-10)
(0.590459 0.210141 -3.06972e-09)
(0.538139 0.221769 -3.08309e-09)
(0.450765 0.2363 -2.74119e-09)
(0.366157 0.251622 -2.44887e-09)
(0.294773 0.268252 -2.47481e-09)
(0.22027 0.285374 -2.44802e-09)
(0.132301 0.301182 -2.39708e-09)
(0.0541078 0.311027 -2.2942e-09)
(3 1.22543e-07 -3.7084e-13)
(2.99999 6.70271e-07 -1.99499e-12)
(2.99997 2.48902e-06 -4.32728e-12)
(2.99991 6.35983e-06 -8.99861e-12)
(2.9998 1.75913e-05 -1.65647e-11)
(2.99948 3.99056e-05 -3.06447e-11)
(2.99886 0.000107471 -6.37422e-11)
(2.99698 0.00022326 -1.16235e-10)
(2.99349 0.00070389 -3.51328e-10)
(2.98149 0.00118287 -3.50885e-10)
(2.95984 0.00504186 -2.5803e-09)
(2.87977 0.00935252 -3.07765e-09)
(2.67151 0.0373775 -1.46459e-08)
(2.1355 0.0900872 -3.00717e-08)
(1.0132 0.27106 -5.24937e-08)
(0.466505 0.257205 5.40305e-09)
(0.574841 0.248794 7.41693e-10)
(0.61308 0.258609 -2.95234e-09)
(0.561088 0.27147 -3.04019e-09)
(0.474708 0.289734 -2.8427e-09)
(0.389855 0.309731 -2.42164e-09)
(0.317336 0.33179 -2.37465e-09)
(0.240444 0.355325 -2.24896e-09)
(0.147241 0.378123 -2.06724e-09)
(0.0608088 0.392906 -1.8413e-09)
(3 1.44661e-07 -3.70953e-13)
(2.99999 7.8599e-07 -1.99205e-12)
(2.99997 2.92915e-06 -4.33347e-12)
(2.99992 7.51343e-06 -8.99607e-12)
(2.99982 2.07663e-05 -1.66776e-11)
(2.99953 4.75556e-05 -3.08222e-11)
(2.99895 0.000124989 -6.45954e-11)
(2.99725 0.000276763 -1.21078e-10)
(2.99398 0.000759038 -3.19055e-10)
(2.98333 0.00152412 -5.70865e-10)
(2.9635 0.00507267 -2.04971e-09)
(2.89278 0.0099367 -3.12445e-09)
(2.71113 0.0368526 -1.30106e-08)
(2.23761 0.0900007 -2.80721e-08)
(1.10402 0.276287 -5.47774e-08)
(0.50639 0.298709 1.54002e-09)
(0.606674 0.300426 -8.05217e-10)
(0.645094 0.308667 -3.08945e-09)
(0.593748 0.321899 -3.00321e-09)
(0.509122 0.344279 -2.70599e-09)
(0.423621 0.369842 -2.27597e-09)
(0.349379 0.398567 -2.15373e-09)
(0.269703 0.430424 -2.01549e-09)
(0.170391 0.463475 -1.81447e-09)
(0.072538 0.488252 -1.51913e-09)
(3 1.52599e-07 -3.625e-13)
(2.99999 8.31584e-07 -1.95318e-12)
(2.99997 3.0876e-06 -4.20758e-12)
(2.99993 7.90751e-06 -8.72432e-12)
(2.99983 2.17511e-05 -1.58432e-11)
(2.99957 4.96541e-05 -2.91221e-11)
(2.99905 0.000129498 -5.90378e-11)
(2.99751 0.000287014 -1.10897e-10)
(2.99454 0.000757818 -2.73491e-10)
(2.98504 0.00164177 -5.29114e-10)
(2.96698 0.00469016 -1.44639e-09)
(2.90464 0.0101288 -3.19002e-09)
(2.74622 0.0325343 -8.24524e-09)
(2.32643 0.080408 -1.89557e-08)
(1.20397 0.24208 -3.17289e-08)
(0.558185 0.333811 -1.06693e-08)
(0.634725 0.358923 -5.86161e-09)
(0.671498 0.360343 -3.03878e-09)
(0.627156 0.372841 -3.0968e-09)
(0.549198 0.399504 -3.0162e-09)
(0.46567 0.43179 -2.55736e-09)
(0.391417 0.468811 -2.20367e-09)
(0.310631 0.511536 -1.92826e-09)
(0.20605 0.560214 -1.66549e-09)
(0.0926606 0.605987 -1.31407e-09)
(3 1.82015e-07 -3.5736e-13)
(2.99999 9.94826e-07 -1.92746e-12)
(2.99997 3.70624e-06 -4.13344e-12)
(2.99993 9.5169e-06 -8.55927e-12)
(2.99985 2.63298e-05 -1.53953e-11)
(2.99962 6.08024e-05 -2.81789e-11)
(2.99915 0.000156225 -5.64237e-11)
(2.99777 0.000367611 -1.05522e-10)
(2.99511 0.000853428 -2.55352e-10)
(2.98657 0.00218774 -5.09338e-10)
(2.97068 0.00464634 -1.18945e-09)
(2.91476 0.0119668 -3.46339e-09)
(2.77492 0.0299782 -5.97846e-09)
(2.3968 0.0750301 -1.88428e-08)
(1.31756 0.216507 -2.85102e-08)
(0.621521 0.380519 -2.41293e-08)
(0.647927 0.413442 -1.24652e-08)
(0.677201 0.409632 1.71653e-10)
(0.652226 0.424233 -2.2144e-09)
(0.588654 0.453149 -2.71776e-09)
(0.51269 0.493787 -2.63082e-09)
(0.442688 0.540917 -2.2242e-09)
(0.365785 0.597233 -1.98147e-09)
(0.263012 0.670647 -1.56886e-09)
(0.13036 0.761149 -1.17167e-09)
(3 2.646e-07 -3.53448e-13)
(2.99999 5.45325e-07 -1.88783e-12)
(2.99998 3.95204e-06 -4.00331e-12)
(2.99994 6.00375e-06 -8.459e-12)
(2.99988 2.73766e-05 -1.43741e-11)
(2.99968 3.85921e-05 -2.67081e-11)
(2.9993 0.000164524 -5.06222e-11)
(2.99809 0.000216239 -9.5147e-11)
(2.99606 0.000999048 -2.1808e-10)
(2.98818 0.00102097 -4.17571e-10)
(2.97524 0.00661727 -1.1455e-09)
(2.92483 0.00445678 -2.35183e-09)
(2.80181 0.0425313 -5.64813e-09)
(2.46579 0.0557213 -1.71172e-08)
(1.46507 0.227135 -2.77383e-08)
(0.715884 0.436446 -2.99482e-08)
(0.656654 0.453422 -4.19431e-09)
(0.682328 0.450834 -5.46274e-10)
(0.674316 0.470675 -1.71736e-09)
(0.627237 0.502593 -2.15699e-09)
(0.564843 0.551602 -2.55072e-09)
(0.503842 0.609735 -2.34357e-09)
(0.440848 0.68615 -1.98047e-09)
(0.35811 0.803043 -1.53367e-09)
(0.201831 1.00995 -1.05543e-09)
(3 1.54963e-08 -5.34011e-14)
(2.99998 8.38786e-08 -2.37056e-13)
(2.99996 3.13794e-07 -7.91691e-13)
(2.99989 8.05164e-07 -1.7131e-12)
(2.99976 2.23611e-06 -4.93179e-12)
(2.99937 5.15932e-06 -1.01751e-11)
(2.99862 1.33914e-05 -2.85331e-11)
(2.99625 3.09184e-05 -5.99836e-11)
(2.99217 7.69913e-05 -1.62387e-10)
(2.97647 0.000175557 -3.35083e-10)
(2.94913 0.00047635 -1.00277e-09)
(2.84367 0.0011126 -2.14439e-09)
(2.56022 0.00306754 -5.34171e-09)
(1.87087 0.00811448 -1.45128e-08)
(0.836279 0.0230792 -1.98413e-08)
(0.467582 0.0224366 2.36021e-09)
(0.544382 0.0234969 9.819e-11)
(0.566049 0.0256627 -1.09379e-09)
(0.513974 0.0277186 -9.7925e-10)
(0.424508 0.0296578 -6.72643e-10)
(0.338378 0.0320497 -5.04672e-10)
(0.26862 0.0349294 -4.25725e-10)
(0.199036 0.0379909 -3.69092e-10)
(0.119609 0.0416009 -3.47467e-10)
(0.0525438 0.0468886 -3.4383e-10)
(3 4.38898e-08 -5.27326e-14)
(2.99998 2.37807e-07 -2.33563e-13)
(2.99996 8.89229e-07 -7.83241e-13)
(2.99989 2.27859e-06 -1.69427e-12)
(2.99976 6.33669e-06 -4.90716e-12)
(2.99938 1.45556e-05 -1.01455e-11)
(2.99865 3.82921e-05 -2.85393e-11)
(2.9963 8.64369e-05 -6.06459e-11)
(2.99229 0.000226897 -1.62543e-10)
(2.97679 0.000499136 -3.40886e-10)
(2.94993 0.00143545 -1.01666e-09)
(2.84566 0.00326489 -2.18493e-09)
(2.56665 0.00999248 -5.41785e-09)
(1.88558 0.0256702 -1.47384e-08)
(0.842904 0.0718073 -2.02222e-08)
(0.461343 0.0662106 2.56283e-09)
(0.541241 0.0660027 1.89704e-10)
(0.563934 0.0697596 -1.08573e-09)
(0.511536 0.0731604 -9.84629e-10)
(0.422167 0.076303 -6.9029e-10)
(0.336424 0.0802006 -4.94865e-10)
(0.266528 0.0846915 -3.99496e-10)
(0.196268 0.0888837 -3.34378e-10)
(0.115856 0.0930486 -3.01658e-10)
(0.0487268 0.0974552 -2.87013e-10)
(3 6.73272e-08 -4.51916e-14)
(2.99998 3.6577e-07 -2.01793e-13)
(2.99996 1.36518e-06 -6.69696e-13)
(2.9999 3.49482e-06 -1.44638e-12)
(2.99977 9.7156e-06 -4.16429e-12)
(2.9994 2.21729e-05 -8.40898e-12)
(2.99868 5.92884e-05 -2.50248e-11)
(2.99641 0.000129262 -4.5899e-11)
(2.99251 0.000365497 -1.62929e-10)
(2.97746 0.000760068 -2.5844e-10)
(2.95149 0.00237137 -1.04769e-09)
(2.85021 0.00514316 -1.79066e-09)
(2.5811 0.0182301 -7.07981e-09)
(1.91935 0.0447707 -1.49141e-08)
(0.862606 0.1261 -2.18116e-08)
(0.456447 0.11355 2.98154e-09)
(0.542219 0.110966 5.0758e-10)
(0.567234 0.117113 -1.01493e-09)
(0.514628 0.123311 -9.60375e-10)
(0.425707 0.129832 -7.02366e-10)
(0.340526 0.137146 -4.65217e-10)
(0.27027 0.145193 -3.52454e-10)
(0.198948 0.153018 -2.76158e-10)
(0.117102 0.16025 -2.25911e-10)
(0.0482128 0.165829 -1.92889e-10)
(3 8.6e-08 -4.34504e-14)
(2.99998 4.68207e-07 -1.92867e-13)
(2.99996 1.7451e-06 -6.46691e-13)
(2.9999 4.46483e-06 -1.3957e-12)
(2.99978 1.24142e-05 -4.08118e-12)
(2.99942 2.81945e-05 -8.27882e-12)
(2.99874 7.65558e-05 -2.49049e-11)
(2.99656 0.000161478 -4.67707e-11)
(2.99282 0.000490471 -1.63463e-10)
(2.97844 0.000955811 -2.68311e-10)
(2.95368 0.00330551 -1.08016e-09)
(2.85774 0.00684137 -1.85051e-09)
(2.6039 0.0262413 -7.32431e-09)
(1.97288 0.0630636 -1.54965e-08)
(0.896653 0.179877 -2.35972e-08)
(0.452662 0.160748 3.48771e-09)
(0.546869 0.155252 7.51346e-10)
(0.575785 0.163748 -1.00595e-09)
(0.523234 0.172963 -9.71855e-10)
(0.434996 0.183487 -7.23367e-10)
(0.350271 0.194635 -4.42662e-10)
(0.279631 0.206655 -3.15665e-10)
(0.207018 0.218704 -2.27098e-10)
(0.122673 0.22974 -1.55483e-10)
(0.049983 0.23705 -1.01444e-10)
(3 9.96574e-08 -3.34126e-14)
(2.99999 5.46883e-07 -1.53929e-13)
(2.99996 2.02721e-06 -4.95793e-13)
(2.99991 5.16446e-06 -1.07031e-12)
(2.99979 1.43121e-05 -3.0432e-12)
(2.99945 3.22001e-05 -5.85506e-12)
(2.9988 8.86219e-05 -1.97816e-11)
(2.99675 0.000176005 -2.30773e-11)
(2.99318 0.000598543 -1.7125e-10)
(2.97976 0.000986412 -7.40674e-11)
(2.95653 0.00431893 -1.41036e-09)
(2.86771 0.00819286 -1.42093e-09)
(2.63429 0.0330387 -7.99576e-09)
(2.04521 0.0790459 -1.59269e-08)
(0.945177 0.230108 -2.59084e-08)
(0.45296 0.208544 3.60936e-09)
(0.556586 0.200212 9.26145e-10)
(0.59046 0.210141 -1.0065e-09)
(0.538139 0.221769 -9.95702e-10)
(0.450765 0.2363 -7.5605e-10)
(0.366157 0.251622 -4.27615e-10)
(0.294773 0.268253 -2.86065e-10)
(0.22027 0.285374 -1.8835e-10)
(0.132301 0.301182 -1.03784e-10)
(0.0541078 0.311027 -3.3692e-11)
(3 1.22543e-07 -4.11149e-14)
(2.99999 6.70271e-07 -1.82779e-13)
(2.99997 2.48902e-06 -6.09956e-13)
(2.99991 6.35983e-06 -1.32549e-12)
(2.9998 1.75913e-05 -3.81315e-12)
(2.99948 3.99056e-05 -7.84311e-12)
(2.99886 0.000107471 -2.27401e-11)
(2.99698 0.00022326 -4.38017e-11)
(2.99349 0.00070389 -1.60855e-10)