/*--------------------------------*- C++ -*----------------------------------*\
| =========                 |                                                 |
| \\      /  F ield         | OpenFOAM: The Open Source CFD Toolbox           |
|  \\    /   O peration     | Version:  4.1                                   |
|   \\  /    A nd           | Web:      www.OpenFOAM.org                      |
|    \\/     M anipulation  |                                                 |
\*---------------------------------------------------------------------------*/
FoamFile
{
    version     2.0;
    format      ascii;
    class       volScalarField;
    location    "0.16";
    object      Ma;
}
// * * * * * * * * * * * * * * * * * * * * * * * * * * * * * * * * * * * * * //

dimensions      [0 0 0 0 0 0 0];

internalField   nonuniform List<scalar> 
18000
(
5.81911e-12
5.75119e-12
5.67354e-12
5.60727e-12
5.54192e-12
5.47745e-12
5.4139e-12
5.35126e-12
5.28949e-12
5.22915e-12
7.33739e-12
7.0691e-12
6.80306e-12
6.55726e-12
6.3224e-12
6.0977e-12
5.88279e-12
5.67703e-12
5.47995e-12
5.29293e-12
9.37542e-12
8.78047e-12
8.22264e-12
7.71371e-12
7.2429e-12
6.80681e-12
6.40274e-12
6.02772e-12
5.67945e-12
5.35772e-12
1.21561e-11
1.10311e-11
1.00244e-11
9.13121e-12
8.33395e-12
7.6205e-12
6.98065e-12
6.40567e-12
5.88787e-12
5.42367e-12
1.6018e-11
1.40321e-11
1.23343e-11
1.08819e-11
9.63388e-12
8.55696e-12
7.62412e-12
6.81331e-12
6.1059e-12
5.4909e-12
2.1489e-11
1.80954e-11
1.53303e-11
1.30619e-11
1.11914e-11
9.63859e-12
8.34207e-12
7.25332e-12
6.33406e-12
5.55903e-12
2.94137e-11
2.36909e-11
1.92636e-11
1.58006e-11
1.30687e-11
1.08928e-11
9.14479e-12
7.72881e-12
6.573e-12
5.62835e-12
4.11833e-11
3.15383e-11
2.44971e-11
1.92723e-11
1.5345e-11
1.23527e-11
1.00445e-11
8.24359e-12
6.82348e-12
5.69961e-12
1.2082e-09
1.15128e-09
1.07498e-09
1.00796e-09
9.48706e-10
8.95951e-10
8.48691e-10
8.0612e-10
7.67582e-10
7.35753e-10
1.36891e-07
2.40567e-08
2.0434e-08
1.75584e-08
1.51933e-08
1.32252e-08
1.15702e-08
1.01657e-08
8.9497e-09
1.63712e-08
5.90474e-12
5.83362e-12
5.75615e-12
5.68745e-12
5.61998e-12
5.55365e-12
5.48813e-12
5.42391e-12
5.36063e-12
5.29865e-12
7.4644e-12
7.18534e-12
6.91851e-12
6.6644e-12
6.42217e-12
6.19072e-12
5.96988e-12
5.75884e-12
5.55714e-12
5.36456e-12
9.55332e-12
8.93813e-12
8.37777e-12
7.85274e-12
7.36802e-12
6.91982e-12
6.50515e-12
6.12084e-12
5.7644e-12
5.43228e-12
1.24145e-11
1.12556e-11
1.02389e-11
9.31663e-12
8.49496e-12
7.76096e-12
7.10377e-12
6.51419e-12
5.98356e-12
5.50202e-12
1.64045e-11
1.43624e-11
1.26369e-11
1.11333e-11
9.84432e-12
8.73412e-12
7.77419e-12
6.94115e-12
6.21532e-12
5.57403e-12
2.2084e-11
1.85935e-11
1.57637e-11
1.34072e-11
1.14693e-11
9.86422e-12
8.52683e-12
7.40584e-12
6.46058e-12
5.64822e-12
3.03546e-11
2.44602e-11
1.98931e-11
1.62798e-11
1.34388e-11
1.11821e-11
9.37353e-12
7.91183e-12
6.72013e-12
5.72483e-12
4.272e-11
3.27518e-11
2.54252e-11
1.99449e-11
1.5842e-11
1.27258e-11
1.03291e-11
8.46349e-12
6.99503e-12
5.80393e-12
6.34967e-11
4.98529e-11
3.76153e-11
2.89074e-11
2.26463e-11
1.80476e-11
1.46053e-11
1.19841e-11
9.95573e-12
8.32299e-12
7.53433e-08
1.30718e-08
1.12755e-08
9.81994e-09
8.62916e-09
7.64293e-09
6.81716e-09
6.11901e-09
5.52378e-09
5.06141e-09
3.97846e-13
3.7257e-13
1.913e-13
1.71188e-13
1.52387e-13
1.35147e-13
1.1966e-13
1.06274e-13
9.50552e-14
7.89469e-14
5.47958e-13
4.74698e-13
4.01477e-13
3.50772e-13
3.04633e-13
2.63311e-13
2.27024e-13
1.96205e-13
1.71138e-13
1.07325e-13
6.21568e-13
5.13545e-13
5.43691e-13
4.73278e-13
4.12159e-13
3.60229e-13
3.16968e-13
2.81768e-13
2.5323e-13
1.41937e-13
7.7183e-13
6.71513e-13
7.85766e-13
6.77964e-13
5.87139e-13
5.11668e-13
4.49263e-13
3.98233e-13
3.55519e-13
1.88963e-13
1.02816e-12
9.94971e-13
1.14025e-12
9.65875e-13
8.22709e-13
7.06117e-13
6.10915e-13
5.33199e-13
4.67867e-13
2.40543e-13
1.45995e-12
1.5547e-12
1.6525e-12
1.36325e-12
1.13316e-12
9.50563e-13
8.04559e-13
6.87293e-13
5.90163e-13
2.95998e-13
2.17797e-12
2.46059e-12
2.39299e-12
1.90929e-12
1.53955e-12
1.2556e-12
1.03497e-12
8.62176e-13
7.22701e-13
3.54819e-13
3.37805e-12
3.90263e-12
3.46982e-12
2.66128e-12
2.07118e-12
1.63542e-12
1.30861e-12
1.06034e-12
8.66078e-13
4.16901e-13
3.21593e-11
6.15021e-12
5.00607e-12
3.67434e-12
2.75056e-12
2.09789e-12
1.62702e-12
1.28164e-12
1.02036e-12
4.83212e-13
6.6718e-08
2.63051e-10
1.83622e-10
1.38941e-10
1.07087e-10
8.38782e-11
6.66455e-11
5.36342e-11
4.36631e-11
3.5738e-11
3.88054e-13
3.62361e-13
1.72425e-13
1.51049e-13
1.30663e-13
1.11506e-13
9.36586e-14
7.73226e-14
6.28562e-14
3.66851e-14
5.34167e-13
4.60359e-13
3.8651e-13
3.35668e-13
2.89157e-13
2.47366e-13
2.10537e-13
1.78999e-13
1.53144e-13
7.95387e-14
5.96819e-13
4.88585e-13
5.24255e-13
4.54889e-13
3.94824e-13
3.43782e-13
3.01306e-13
2.67087e-13
2.39442e-13
1.20187e-13
7.28931e-13
6.33682e-13
7.61284e-13
6.56504e-13
5.68145e-13
4.94885e-13
4.34427e-13
3.85092e-13
3.43906e-13
1.71549e-13
9.54835e-13
9.42513e-13
1.10851e-12
9.39877e-13
8.01268e-13
6.88275e-13
5.95995e-13
5.20732e-13
4.57453e-13
2.25542e-13
1.33563e-12
1.4832e-12
1.6104e-12
1.33101e-12
1.10822e-12
9.31077e-13
7.89158e-13
6.75092e-13
5.80462e-13
2.8248e-13
1.967e-12
2.36029e-12
2.33562e-12
1.86854e-12
1.51011e-12
1.23398e-12
1.0189e-12
8.50134e-13
7.13621e-13
3.42437e-13
3.01119e-12
3.75639e-12
3.38974e-12
2.6089e-12
2.0359e-12
1.61132e-12
1.29182e-12
1.04847e-12
8.57742e-13
4.05624e-13
3.32648e-11
6.0147e-12
4.93682e-12
3.63341e-12
2.7249e-12
2.08101e-12
1.61531e-12
1.27295e-12
1.01352e-12
4.72022e-13
7.1113e-08
1.04965e-10
7.47694e-12
5.14714e-12
3.70317e-12
2.72547e-12
2.04669e-12
1.56396e-12
1.21e-12
5.72124e-13
3.8818e-13
3.62149e-13
1.72886e-13
1.51423e-13
1.30978e-13
1.1175e-13
9.39189e-14
7.75506e-14
6.29787e-14
3.68052e-14
5.34821e-13
4.60784e-13
3.87501e-13
3.36501e-13
2.89877e-13
2.47948e-13
2.10997e-13
1.79417e-13
1.53455e-13
7.97341e-14
5.98207e-13
4.89972e-13
5.26053e-13
4.56366e-13
3.95959e-13
3.44762e-13
3.02071e-13
2.67631e-13
2.39815e-13
1.20446e-13
7.31841e-13
6.36814e-13
7.64157e-13
6.58886e-13
5.70032e-13
4.96394e-13
4.35657e-13
3.86018e-13
3.44578e-13
1.71907e-13
9.60473e-13
9.48344e-13
1.11338e-12
9.43728e-13
8.04364e-13
6.90727e-13
5.97895e-13
5.22221e-13
4.5857e-13
2.26316e-13
1.34631e-12
1.49343e-12
1.61856e-12
1.33743e-12
1.11324e-12
9.35055e-13
7.9232e-13
6.77574e-13
5.82412e-13
2.83818e-13
1.98691e-12
2.37838e-12
2.3497e-12
1.87925e-12
1.5184e-12
1.24046e-12
1.02395e-12
8.54071e-13
7.16797e-13
3.44675e-13
3.04823e-12
3.78874e-12
3.4139e-12
2.62686e-12
2.04945e-12
1.62167e-12
1.2998e-12
1.05469e-12
8.62592e-13
4.0907e-13
3.3278e-11
6.07412e-12
4.97896e-12
3.66355e-12
2.74686e-12
2.09731e-12
1.6276e-12
1.28235e-12
1.02084e-12
4.76997e-13
7.20078e-08
1.05656e-10
7.31596e-12
5.04906e-12
3.64265e-12
2.68629e-12
2.01969e-12
1.54528e-12
1.19689e-12
5.55002e-13
3.88255e-13
3.6181e-13
1.73487e-13
1.51929e-13
1.31366e-13
1.121e-13
9.41729e-14
7.7812e-14
6.32006e-14
3.68922e-14
5.35636e-13
4.61308e-13
3.88788e-13
3.37603e-13
2.90805e-13
2.48708e-13
2.11608e-13
1.79891e-13
1.53864e-13
8.00277e-14
6.00041e-13
4.91806e-13
5.28337e-13
4.5829e-13
3.97549e-13
3.45998e-13
3.03073e-13
2.68337e-13
2.40318e-13
1.20811e-13
7.35651e-13
6.40955e-13
7.6796e-13
6.61956e-13
5.72573e-13
4.98332e-13
4.37124e-13
3.87219e-13
3.45419e-13
1.72501e-13
9.67992e-13
9.56006e-13
1.11971e-12
9.48748e-13
8.08336e-13
6.9394e-13
6.00411e-13
5.24166e-13
4.60094e-13
2.27394e-13
1.36063e-12
1.50707e-12
1.62932e-12
1.34583e-12
1.11979e-12
9.4023e-13
7.96419e-13
6.80768e-13
5.84976e-13
2.85623e-13
2.01376e-12
2.40235e-12
2.36814e-12
1.89335e-12
1.52921e-12
1.24891e-12
1.03058e-12
8.59256e-13
7.20889e-13
3.47565e-13
3.09868e-12
3.83172e-12
3.44581e-12
2.65046e-12
2.06717e-12
1.63517e-12
1.3102e-12
1.06279e-12
8.68917e-13
4.1343e-13
3.34068e-11
6.15187e-12
5.03432e-12
3.70296e-12
2.77548e-12
2.11855e-12
1.64358e-12
1.29454e-12
1.03025e-12
4.83487e-13
7.17528e-08
1.0592e-10
7.40667e-12
5.1116e-12
3.68677e-12
2.7181e-12
2.04315e-12
1.56294e-12
1.21032e-12
5.6405e-13
3.88339e-13
3.61468e-13
1.74191e-13
1.52552e-13
1.31925e-13
1.12563e-13
9.45571e-14
7.80716e-14
6.34075e-14
3.70764e-14
5.36656e-13
4.61988e-13
3.90368e-13
3.38909e-13
2.91943e-13
2.49717e-13
2.12441e-13
1.80521e-13
1.54221e-13
8.03228e-14
6.023e-13
4.94034e-13
5.31105e-13
4.60602e-13
3.99455e-13
3.47575e-13
3.04257e-13
2.69225e-13
2.40962e-13
1.21199e-13
7.4034e-13
6.45984e-13
7.72573e-13
6.65705e-13
5.75616e-13
5.00808e-13
4.3898e-13
3.88618e-13
3.46541e-13
1.7324e-13
9.77248e-13
9.65388e-13
1.1274e-12
9.54894e-13
8.13205e-13
6.97854e-13
6.03495e-13
5.2654e-13
4.61948e-13
2.28736e-13
1.37823e-12
1.52357e-12
1.64239e-12
1.35606e-12
1.12787e-12
9.46589e-13
8.01465e-13
6.84719e-13
5.8807e-13
2.8786e-13
2.04684e-12
2.43159e-12
2.39064e-12
1.91057e-12
1.54248e-12
1.25924e-12
1.03871e-12
8.65591e-13
7.2592e-13
3.51188e-13
3.16094e-12
3.88421e-12
3.48497e-12
2.67943e-12
2.0889e-12
1.6517e-12
1.32302e-12
1.0727e-12
8.7663e-13
4.18875e-13
3.41332e-11
6.24788e-12
5.10234e-12
3.75149e-12
2.81081e-12
2.14464e-12
1.66322e-12
1.3095e-12
1.04173e-12
4.91324e-13
7.50326e-08
1.09356e-10
7.52265e-12
5.18953e-12
3.74168e-12
2.75768e-12
2.07234e-12
1.58485e-12
1.22685e-12
5.75204e-13
3.88432e-13
3.60865e-13
1.74938e-13
1.53177e-13
1.32525e-13
1.13142e-13
9.51379e-14
7.88981e-14
6.89944e-14
9.8039e-14
5.37768e-13
4.62532e-13
3.92001e-13
3.40359e-13
2.93214e-13
2.50844e-13
2.13441e-13
1.81618e-13
1.56232e-13
1.01853e-13
6.04813e-13
4.96193e-13
5.34023e-13
4.63079e-13
4.01563e-13
3.49379e-13
3.05841e-13
2.70545e-13
2.42619e-13
1.30744e-13
7.45627e-13
6.50976e-13
7.77373e-13
6.69671e-13
5.78864e-13
5.03538e-13
4.41373e-13
3.90604e-13
3.48551e-13
1.79407e-13
9.87604e-13
9.74788e-13
1.13534e-12
9.61329e-13
8.18414e-13
7.02108e-13
6.07151e-13
5.29657e-13
4.6482e-13
2.34103e-13
1.3977e-12
1.54032e-12
1.65579e-12
1.36672e-12
1.13631e-12
9.53484e-13
8.07289e-13
6.89713e-13
5.92355e-13
2.93635e-13
2.08284e-12
2.46127e-12
2.41356e-12
1.92837e-12
1.55645e-12
1.2704e-12
1.04793e-12
8.73417e-13
7.32313e-13
3.57958e-13
3.22736e-12
3.93689e-12
3.52461e-12
2.70941e-12
2.1118e-12
1.66949e-12
1.33727e-12
1.08461e-12
8.8636e-13
4.27404e-13
3.38077e-11
6.34088e-12
5.17105e-12
3.8015e-12
2.84789e-12
2.1727e-12
1.68492e-12
1.32693e-12
1.056e-12
5.02412e-13
8.40054e-08
1.03698e-10
7.62285e-12
5.26924e-12
3.79913e-12
2.80007e-12
2.1043e-12
1.60991e-12
1.24703e-12
5.89971e-13
3.8699e-13
3.90002e-13
2.04084e-13
1.60621e-13
1.36017e-13
1.90317e-13
3.33663e-13
1.03391e-12
4.65929e-12
1.67634e-11
5.37114e-13
5.14118e-13
4.23617e-13
3.52655e-13
2.93145e-13
2.80703e-13
3.53133e-13
7.58206e-13
2.74648e-12
1.05461e-11
6.04824e-13
5.84486e-13
5.78393e-13
4.84782e-13
4.04097e-13
3.57567e-13
4.03592e-13
6.15139e-13
1.76603e-12
6.61237e-12
7.4417e-13
7.63078e-13
8.26603e-13
6.95437e-13
5.83805e-13
5.02951e-13
4.92351e-13
5.89793e-13
1.24679e-12
4.35985e-12
9.79964e-13
1.08825e-12
1.18114e-12
9.85043e-13
8.22549e-13
6.97126e-13
6.29934e-13
6.50941e-13
1.0022e-12
3.02187e-12
1.37506e-12
1.63218e-12
1.68754e-12
1.38043e-12
1.13415e-12
9.43233e-13
8.13647e-13
7.85344e-13
9.23162e-13
2.19773e-12
2.03033e-12
2.50815e-12
2.41677e-12
1.92174e-12
1.54074e-12
1.25122e-12
1.04217e-12
9.34314e-13
9.48302e-13
1.67829e-12
3.11772e-12
3.90854e-12
3.47869e-12
2.66864e-12
2.07366e-12
1.63625e-12
1.32009e-12
1.11989e-12
1.05154e-12
1.35154e-12
1.95129e-11
6.17105e-12
5.04747e-12
3.7088e-12
2.77607e-12
2.11864e-12
1.65484e-12
1.34286e-12
1.19274e-12
1.15398e-12
3.07293e-08
7.25598e-11
7.26055e-12
5.09826e-12
3.67817e-12
2.71635e-12
2.05621e-12
1.6081e-12
1.34649e-12
1.05119e-12
2.5424e-12
2.40505e-12
1.54387e-12
1.59905e-13
2.60864e-12
8.23008e-12
2.2669e-11
7.23305e-11
3.21838e-10
1.05399e-09
3.57898e-12
3.47774e-12
2.58839e-12
1.19499e-12
1.30473e-12
6.05479e-12
1.72489e-11
5.1089e-11
1.92341e-10
6.10831e-10
4.84501e-12
4.74435e-12
3.77321e-12
2.36576e-12
3.33866e-13
4.0277e-12
1.2824e-11
3.69314e-11
1.24158e-10
3.7816e-10
6.49948e-12
6.32507e-12
5.17985e-12
3.6735e-12
1.51065e-12
2.249e-12
9.39907e-12
2.72734e-11
8.48144e-11
2.46258e-10
8.70018e-12
8.33113e-12
6.8792e-12
5.16363e-12
2.93082e-12
7.97363e-13
6.60896e-12
2.03135e-11
6.02122e-11
1.67069e-10
1.16841e-11
1.0921e-11
8.96902e-12
6.89245e-12
4.46578e-12
1.34701e-12
4.29824e-12
1.50458e-11
4.3918e-11
1.17211e-10
1.58144e-11
1.43301e-11
1.15828e-11
8.93525e-12
6.15924e-12
2.88036e-12
2.37253e-12
1.10959e-11
3.26271e-11
8.45205e-11
2.16716e-11
1.89034e-11
1.49072e-11
1.13918e-11
8.06095e-12
4.5148e-12
1.211e-12
7.96955e-12
2.447e-11
6.2322e-11
3.14139e-11
2.51733e-11
1.92119e-11
1.4392e-11
1.02368e-11
6.24921e-12
2.01512e-12
5.44161e-12
1.84274e-11
4.67805e-11
2.15343e-07
1.59442e-10
2.48585e-11
1.80907e-11
1.27513e-11
8.10594e-12
3.5251e-12
3.42752e-12
1.38817e-11
3.55666e-11
3.45324e-12
3.10491e-12
2.05499e-12
1.9183e-12
8.2177e-12
2.72944e-11
9.71619e-11
4.81413e-10
2.05458e-09
2.7188e-09
4.58293e-12
4.26916e-12
3.26351e-12
1.69337e-12
5.14757e-12
1.91264e-11
6.55923e-11
2.78702e-10
1.1172e-09
1.41186e-09
5.96069e-12
5.62112e-12
4.62523e-12
2.86354e-12
2.77826e-12
1.29272e-11
4.50105e-11
1.73786e-10
6.53237e-10
7.99613e-10
7.72935e-12
7.26165e-12
6.17402e-12
4.42059e-12
1.99462e-12
8.27664e-12
3.12122e-11
1.14064e-10
4.03723e-10
4.82884e-10
1.00572e-11
9.3053e-12
7.98405e-12
6.14913e-12
3.27938e-12
4.73825e-12
2.15131e-11
7.74123e-11
2.60792e-10
3.06681e-10
1.31956e-11
1.19133e-11
1.01579e-11
8.07844e-12
5.14976e-12
2.49897e-12
1.43836e-11
5.35742e-11
1.7455e-10
2.02699e-10
1.7529e-11
1.53187e-11
1.28358e-11
1.02887e-11
7.18418e-12
2.9047e-12
9.11247e-12
3.74125e-11
1.19987e-10
1.38278e-10
2.36661e-11
1.9866e-11
1.6211e-11
1.28879e-11
9.38228e-12
4.87056e-12
5.1451e-12
2.60268e-11
8.41583e-11
9.67534e-11
4.43679e-11
2.60612e-11
2.05553e-11
1.60192e-11
1.18168e-11
7.08726e-12
2.70114e-12
1.77689e-11
5.98551e-11
6.90105e-11
3.72634e-08
1.95066e-09
2.62791e-11
1.98488e-11
1.4565e-11
9.37978e-12
3.22135e-12
1.16472e-11
4.28972e-11
4.97673e-11
1.00349e-12
1.25831e-12
1.5371e-12
3.25637e-12
8.68885e-12
2.58678e-11
8.94162e-11
3.48314e-10
6.94714e-10
5.00824e-10
1.07979e-12
1.25085e-12
1.39244e-12
2.45442e-12
6.14644e-12
1.78838e-11
5.88513e-11
2.12537e-10
3.83665e-10
2.99744e-10
1.15869e-12
1.28134e-12
1.37171e-12
1.97326e-12
4.38555e-12
1.24706e-11
3.97163e-11
1.35089e-10
2.24136e-10
1.83935e-10
1.23729e-12
1.3374e-12
1.42702e-12
1.76557e-12
3.22505e-12
8.75987e-12
2.72758e-11
8.86741e-11
1.36807e-10
1.17938e-10
1.31821e-12
1.40779e-12
1.51561e-12
1.73313e-12
2.52868e-12
6.21771e-12
1.90095e-11
5.97494e-11
8.64956e-11
7.91195e-11
1.40427e-12
1.48826e-12
1.61552e-12
1.78971e-12
2.18759e-12
4.49394e-12
1.33791e-11
4.119e-11
5.6216e-11
5.5403e-11
1.49916e-12
1.57701e-12
1.71865e-12
1.8834e-12
2.08359e-12
3.38116e-12
9.47514e-12
2.87909e-11
3.73578e-11
4.0343e-11
1.6084e-12
1.67539e-12
1.82369e-12
1.98821e-12
2.10719e-12
2.73885e-12
6.78633e-12
2.03789e-11
2.52767e-11
3.04163e-11
8.99619e-11
1.85869e-12
1.93175e-12
2.09604e-12
2.18795e-12
2.43759e-12
4.95283e-12
1.45741e-11
1.7321e-11
2.36433e-11
6.48086e-08
1.77793e-09
2.35085e-12
2.19986e-12
2.28401e-12
2.34407e-12
3.73499e-12
1.05025e-11
1.18804e-11
1.87928e-11
7.96034e-13
1.51018e-12
1.6105e-12
2.52107e-12
4.15489e-12
7.26325e-12
1.50325e-11
5.09887e-11
3.09057e-10
9.41717e-10
7.30611e-13
1.35675e-12
1.39721e-12
2.15366e-12
3.49119e-12
5.96557e-12
1.14658e-11
3.22361e-11
1.84368e-10
5.08781e-10
6.67703e-13
1.21328e-12
1.20346e-12
1.83047e-12
2.92697e-12
4.90628e-12
8.9749e-12
2.17603e-11
1.14445e-10
2.95374e-10
6.1388e-13
1.0913e-12
1.04244e-12
1.56613e-12
2.47063e-12
4.07638e-12
7.19561e-12
1.5568e-11
7.36062e-11
1.8128e-10
5.67756e-13
9.87073e-13
9.07826e-13
1.3466e-12
2.09918e-12
3.41849e-12
5.87127e-12
1.16828e-11
4.87838e-11
1.16213e-10
5.2807e-13
8.97848e-13
7.94791e-13
1.16536e-12
1.79635e-12
2.88681e-12
4.85741e-12
9.09666e-12
3.31824e-11
7.71763e-11
4.93764e-13
8.20775e-13
6.99598e-13
1.01375e-12
1.54437e-12
2.45339e-12
4.06583e-12
7.27462e-12
2.30921e-11
5.27684e-11
4.65078e-13
7.53838e-13
6.18995e-13
8.85858e-13
1.33537e-12
2.0992e-12
3.43277e-12
5.94168e-12
1.6397e-11
3.69786e-11
1.55458e-10
1.44169e-12
5.4965e-13
7.7815e-13
1.16097e-12
1.8066e-12
2.91895e-12
4.93082e-12
1.18563e-11
2.64692e-11
6.4116e-08
6.16202e-09
8.08879e-12
6.39402e-13
1.00999e-12
1.55628e-12
2.48952e-12
4.12913e-12
8.69987e-12
1.92771e-11
1.07234e-12
1.8656e-12
1.61407e-12
2.17666e-12
3.03462e-12
4.40464e-12
7.05066e-12
1.41104e-11
5.56701e-11
1.22947e-10
9.98867e-13
1.71069e-12
1.44727e-12
1.93963e-12
2.68211e-12
3.83193e-12
5.85551e-12
1.06562e-11
3.93218e-11
7.99505e-11
9.27243e-13
1.5618e-12
1.28636e-12
1.71393e-12
2.35549e-12
3.33108e-12
4.93561e-12
8.30127e-12
2.78158e-11
5.41734e-11
8.64954e-13
1.43228e-12
1.14796e-12
1.51945e-12
2.07687e-12
2.91338e-12
4.23229e-12
6.70373e-12
1.98935e-11
3.79055e-11
8.10834e-13
1.31922e-12
1.02898e-12
1.3525e-12
1.83925e-12
2.56295e-12
3.67394e-12
5.57709e-12
1.43839e-11
2.71714e-11
7.63561e-13
1.22016e-12
9.26122e-13
1.20873e-12
1.63383e-12
2.26426e-12
3.21782e-12
4.7451e-12
1.05084e-11
1.98481e-11
7.22006e-13
1.13283e-12
8.37078e-13
1.08419e-12
1.45656e-12
2.00894e-12
2.83528e-12
4.10206e-12
7.74836e-12
1.47203e-11
6.86607e-13
1.05549e-12
7.59655e-13
9.75992e-13
1.30284e-12
1.78787e-12
2.50919e-12
3.58587e-12
5.76454e-12
1.10577e-11
2.35272e-10
2.44321e-12
6.91617e-13
8.81802e-13
1.16918e-12
1.59583e-12
2.2303e-12
3.15872e-12
4.3261e-12
8.39219e-12
7.87801e-08
1.09227e-08
1.96427e-11
7.3622e-13
1.04899e-12
1.42476e-12
1.98321e-12
2.78942e-12
3.2578e-12
6.40912e-12
1.49455e-12
2.36508e-12
1.62389e-12
1.90598e-12
2.28771e-12
2.83334e-12
3.81316e-12
6.02144e-12
1.68178e-11
2.37935e-11
1.41354e-12
2.21299e-12
1.50766e-12
1.77197e-12
2.12614e-12
2.60669e-12
3.37251e-12
4.92879e-12
1.28459e-11
1.84462e-11
1.33309e-12
2.06207e-12
1.38532e-12
1.62968e-12
1.95681e-12
2.38815e-12
3.01834e-12
4.14967e-12
9.71148e-12
1.42707e-11
1.26196e-12
1.92709e-12
1.27475e-12
1.49974e-12
1.80183e-12
2.1954e-12
2.73878e-12
3.60309e-12
7.35719e-12
1.11109e-11
1.199e-12
1.80624e-12
1.17562e-12
1.38185e-12
1.66102e-12
2.0228e-12
2.50717e-12
3.20454e-12
5.58149e-12
8.69248e-12
1.14305e-12
1.69758e-12
1.08676e-12
1.27547e-12
1.53232e-12
1.86648e-12
2.30592e-12
2.89765e-12
4.23628e-12
6.82644e-12
1.09321e-12
1.59985e-12
1.00702e-12
1.17916e-12
1.41504e-12
1.72385e-12
2.12852e-12
2.6474e-12
3.21466e-12
5.3749e-12
1.04989e-12
1.51148e-12
9.35447e-13
1.09205e-12
1.3084e-12
1.59358e-12
1.96783e-12
2.43551e-12
2.43596e-12
4.23891e-12
3.19199e-10
3.61453e-12
8.70891e-13
1.01326e-12
1.21129e-12
1.47442e-12
1.82124e-12
2.2492e-12
1.8416e-12
3.34434e-12
6.30281e-08
1.52093e-08
3.14969e-11
8.89006e-13
1.11937e-12
1.36184e-12
1.68175e-12
2.0756e-12
1.37673e-12
2.62949e-12
2.12107e-12
3.01074e-12
1.57522e-12
1.60679e-12
1.66847e-12
1.7995e-12
2.1492e-12
2.98142e-12
6.86088e-12
8.34434e-12
2.03463e-12
2.87109e-12
1.51695e-12
1.56409e-12
1.63504e-12
1.74652e-12
1.99285e-12
2.56725e-12
5.5566e-12
6.9789e-12
1.94805e-12
2.72778e-12
1.44204e-12
1.50083e-12
1.58128e-12
1.68671e-12
1.87391e-12
2.26973e-12
4.39033e-12
5.73243e-12
1.86984e-12
2.59552e-12
1.36877e-12
1.43536e-12
1.52331e-12
1.62934e-12
1.78634e-12
2.06913e-12
3.45206e-12
4.70836e-12
1.79921e-12
2.47372e-12
1.2985e-12
1.37026e-12
1.46375e-12
1.57264e-12
1.71566e-12
1.93165e-12
2.69596e-12
3.86545e-12
1.73528e-12
2.36157e-12
1.23207e-12
1.30624e-12
1.40319e-12
1.51547e-12
1.65388e-12
1.83137e-12
2.08593e-12
3.16791e-12
1.67734e-12
2.25824e-12
1.16939e-12
1.24427e-12
1.34272e-12
1.45752e-12
1.5953e-12
1.75248e-12
1.5918e-12
2.58953e-12
1.6259e-12
2.1629e-12
1.11062e-12
1.18494e-12
1.28352e-12
1.3994e-12
1.53735e-12
1.68521e-12
1.19265e-12
2.10896e-12
4.07317e-10
4.8273e-12
1.05576e-12
1.1284e-12
1.22587e-12
1.34178e-12
1.47998e-12
1.62409e-12
8.71534e-13
1.70971e-12
1.76975e-08
1.76685e-08
7.01359e-11
1.01284e-12
1.16657e-12
1.2821e-12
1.41878e-12
1.56062e-12
6.0228e-13
1.37546e-12
2.99046e-12
3.75495e-12
1.3947e-12
1.21527e-12
1.06899e-12
1.003e-12
1.13744e-12
1.55108e-12
3.44593e-12
3.81483e-12
2.90379e-12
3.64275e-12
1.39715e-12
1.24986e-12
1.12221e-12
1.03661e-12
1.08032e-12
1.34966e-12
2.9561e-12
3.39374e-12
2.81662e-12
3.52324e-12
1.37683e-12
1.25909e-12
1.15328e-12
1.06673e-12
1.05734e-12
1.21004e-12
2.43679e-12
2.9222e-12
2.73611e-12
3.40893e-12
1.34903e-12
1.25615e-12
1.17135e-12
1.09309e-12
1.05809e-12
1.12815e-12
1.99149e-12
2.51135e-12
2.66181e-12
3.30034e-12
1.31704e-12
1.24514e-12
1.1795e-12
1.11366e-12
1.07013e-12
1.08836e-12
1.61008e-12
2.15343e-12
2.59334e-12
3.19745e-12
1.28217e-12
1.22789e-12
1.17937e-12
1.12737e-12
1.08548e-12
1.07459e-12
1.28284e-12
1.84176e-12
2.53017e-12
3.10026e-12
1.24579e-12
1.20626e-12
1.17259e-12
1.13435e-12
1.09961e-12
1.07487e-12
1.00283e-12
1.57059e-12
2.47315e-12
3.00857e-12
1.20887e-12
1.18167e-12
1.16069e-12
1.13511e-12
1.10968e-12
1.08152e-12
7.63532e-13
1.33577e-12
5.0035e-10
5.90207e-12
1.17231e-12
1.15505e-12
1.14489e-12
1.13075e-12
1.11523e-12
1.09005e-12
5.60395e-13
1.13387e-12
3.43785e-08
1.69823e-08
6.97632e-11
1.07323e-12
1.12295e-12
1.11963e-12
1.11321e-12
1.09373e-12
3.82661e-13
9.64037e-13
4.05867e-12
4.48761e-12
1.06871e-12
7.60204e-13
4.95128e-13
3.48736e-13
4.86515e-13
7.96245e-13
2.08022e-12
2.10199e-12
3.97796e-12
4.41686e-12
1.11509e-12
8.42751e-13
6.00724e-13
4.19176e-13
4.30287e-13
6.55597e-13
1.91258e-12
1.99406e-12
3.89797e-12
4.33882e-12
1.13893e-12
9.01223e-13
6.84904e-13
4.99045e-13
4.2677e-13
5.51496e-13
1.66627e-12
1.79859e-12
3.82232e-12
4.25997e-12
1.15116e-12
9.4399e-13
7.51816e-13
5.73907e-13
4.59364e-13
4.90445e-13
1.44633e-12
1.62173e-12
3.75092e-12
4.18199e-12
1.1552e-12
9.75005e-13
8.05635e-13
6.40704e-13
5.09773e-13
4.71332e-13
1.25063e-12
1.46173e-12
3.68413e-12
4.10547e-12
1.1527e-12
9.96786e-13
8.48493e-13
6.98697e-13
5.65275e-13
4.84114e-13
1.07783e-12
1.31787e-12
3.6214e-12
4.03087e-12
1.14533e-12
1.01089e-12
8.8177e-13
7.47729e-13
6.19483e-13
5.16377e-13
9.26949e-13
1.18948e-12
3.56378e-12
3.95867e-12
1.13424e-12
1.01892e-12
9.0731e-13
7.88536e-13
6.6928e-13
5.58024e-13
7.97101e-13
1.07568e-12
5.86974e-10
6.76195e-12
1.12088e-12
1.02199e-12
9.26568e-13
8.22321e-13
7.13468e-13
6.02559e-13
6.88374e-13
9.76086e-13
9.14781e-08
1.25742e-08
6.49265e-11
1.00307e-12
9.38026e-13
8.47939e-13
7.50323e-13
6.43707e-13
5.99976e-13
8.95343e-13
5.12031e-12
5.06157e-12
7.50823e-13
4.98972e-13
2.71924e-13
1.53639e-13
2.67974e-13
4.53609e-13
1.49439e-12
1.35799e-12
5.04946e-12
5.0363e-12
7.7527e-13
5.3651e-13
3.10546e-13
1.24642e-13
1.64648e-13
3.49644e-13
1.48539e-12
1.38133e-12
4.98149e-12
5.00673e-12
7.92837e-13
5.72699e-13
3.60207e-13
1.61815e-13
7.72429e-14
2.51827e-13
1.37814e-12
1.30658e-12
4.91576e-12
4.97224e-12
8.07232e-13
6.05897e-13
4.09922e-13
2.19659e-13
4.48281e-14
1.62432e-13
1.28038e-12
1.23743e-12
4.85295e-12
4.93488e-12
8.18768e-13
6.36099e-13
4.57128e-13
2.80091e-13
1.07571e-13
8.62446e-14
1.19118e-12
1.17326e-12
4.79298e-12
4.89544e-12
8.27308e-13
6.62385e-13
5.00008e-13
3.36895e-13
1.75693e-13
5.25876e-14
1.11044e-12
1.11439e-12
4.73582e-12
4.85484e-12
8.32984e-13
6.84774e-13
5.38247e-13
3.88814e-13
2.38721e-13
9.58167e-14
1.03822e-12
1.06056e-12
4.6828e-12
4.81387e-12
8.3585e-13
7.03301e-13
5.71627e-13
4.35265e-13
2.95954e-13
1.55351e-13
9.73931e-13
1.01175e-12
6.54932e-10
7.3465e-12
8.37187e-13
7.18491e-13
6.00753e-13
4.76708e-13
3.48123e-13
2.13612e-13
9.17691e-13
9.67697e-13
1.43323e-07
6.5541e-09
4.31154e-11
7.38796e-13
6.25191e-13
5.1326e-13
3.95279e-13
2.68773e-13
8.69347e-13
9.36944e-13
5.81632e-12
5.35996e-12
6.72951e-13
6.09199e-13
5.10958e-13
4.41957e-13
4.00454e-13
3.92136e-13
1.25163e-12
1.04413e-12
5.75252e-12
5.36528e-12
6.02033e-13
5.48572e-13
4.58513e-13
3.94112e-13
3.55102e-13
3.50811e-13
1.31679e-12
1.12435e-12
5.69376e-12
5.37004e-12
5.39184e-13
4.94118e-13
4.11237e-13
3.49783e-13
3.12123e-13
3.08719e-13
1.2744e-12
1.10126e-12
5.63642e-12
5.36847e-12
4.87776e-13
4.48397e-13
3.71183e-13
3.11873e-13
2.73751e-13
2.69949e-13
1.23408e-12
1.07879e-12
5.58098e-12
5.36206e-12
4.47334e-13
4.11619e-13
3.39365e-13
2.80953e-13
2.40839e-13
2.34639e-13
1.1957e-12
1.05751e-12
5.52783e-12
5.35215e-12
4.16498e-13
3.82699e-13
3.14537e-13
2.56581e-13
2.13757e-13
2.03606e-13
1.15927e-12
1.03699e-12
5.47649e-12
5.33921e-12
3.93099e-13
3.60429e-13
2.96357e-13
2.39116e-13
1.93308e-13
1.76854e-13
1.1246e-12
1.0176e-12
5.42867e-12
5.32425e-12
3.76041e-13
3.43797e-13
2.83893e-13
2.27592e-13
1.78826e-13
1.55464e-13
1.09186e-12
9.98822e-13
6.9226e-10
7.58117e-12
3.65064e-13
3.32046e-13
2.76243e-13
2.21838e-13
1.71501e-13
1.40454e-13
1.06045e-12
9.80833e-13
1.75309e-07
4.4035e-09
3.04165e-11
3.01563e-13
2.74324e-13
2.2385e-13
1.74955e-13
1.4e-13
1.03192e-12
9.87465e-13
5.82286e-12
5.33053e-12
6.82281e-13
6.35169e-13
5.40585e-13
4.66557e-13
4.12025e-13
3.85095e-13
1.18153e-12
9.96437e-13
5.75882e-12
5.33808e-12
5.96399e-13
5.65439e-13
4.84078e-13
4.19517e-13
3.718e-13
3.51673e-13
1.25675e-12
1.08048e-12
5.70028e-12
5.34568e-12
5.19131e-13
5.01286e-13
4.30963e-13
3.7408e-13
3.31754e-13
3.15287e-13
1.22243e-12
1.061e-12
5.64331e-12
5.34685e-12
4.53195e-13
4.44809e-13
3.83655e-13
3.33158e-13
2.95085e-13
2.81586e-13
1.18956e-12
1.04216e-12
5.58836e-12
5.34329e-12
3.9886e-13
3.96898e-13
3.43005e-13
2.97198e-13
2.62107e-13
2.50326e-13
1.15802e-12
1.02429e-12
5.53554e-12
5.33599e-12
3.55026e-13
3.56712e-13
3.08593e-13
2.66402e-13
2.32967e-13
2.2164e-13
1.1279e-12
1.00725e-12
5.48461e-12
5.32554e-12
3.20476e-13
3.23436e-13
2.80055e-13
2.4053e-13
2.07989e-13
1.9601e-13
1.09899e-12
9.91018e-13
5.4373e-12
5.31301e-12
2.94493e-13
2.96699e-13
2.57072e-13
2.19575e-13
1.87057e-13
1.73527e-13
1.07145e-12
9.75519e-13
6.92261e-10
7.57518e-12
2.77188e-13
2.75879e-13
2.39474e-13
2.03847e-13
1.71351e-13
1.54986e-13
1.04485e-12
9.60649e-13
1.75309e-07
4.4035e-09
3.03938e-11
2.21869e-13
2.28823e-13
1.96619e-13
1.65828e-13
1.48247e-13
1.02053e-12
9.79963e-13
5.13069e-12
4.98158e-12
7.12799e-13
5.15421e-13
3.33025e-13
2.2872e-13
2.63127e-13
3.90514e-13
1.25306e-12
1.20111e-12
5.06147e-12
4.96478e-12
7.13098e-13
5.21914e-13
3.35754e-13
1.94933e-13
1.83075e-13
3.05401e-13
1.2776e-12
1.23658e-12
4.99553e-12
4.94411e-12
7.16029e-13
5.36304e-13
3.56408e-13
1.97674e-13
1.19041e-13
2.20904e-13
1.19948e-12
1.17473e-12
4.93189e-12
4.91817e-12
7.21099e-13
5.54084e-13
3.84869e-13
2.24299e-13
9.02573e-14
1.42176e-13
1.12804e-12
1.1177e-12
4.87093e-12
4.88901e-12
7.27449e-13
5.7372e-13
4.17094e-13
2.63304e-13
1.14141e-13
7.13134e-14
1.06305e-12
1.0655e-12
4.81261e-12
4.85716e-12
7.33741e-13
5.9331e-13
4.49805e-13
3.05865e-13
1.61311e-13
2.88602e-14
1.00471e-12
1.0182e-12
4.75705e-12
4.82372e-12
7.39097e-13
6.11517e-13
4.81038e-13
3.47895e-13
2.12229e-13
7.26594e-14
9.52659e-13
9.75549e-13
4.7055e-12
4.78922e-12
7.4315e-13
6.27896e-13
5.09905e-13
3.87503e-13
2.61341e-13
1.2884e-13
9.06625e-13
9.37353e-13
6.54935e-10
7.33584e-12
7.46474e-13
6.42262e-13
5.36123e-13
4.24353e-13
3.07532e-13
1.82696e-13
8.66693e-13
9.03759e-13
1.43323e-07
6.5541e-09
4.30742e-11
6.59978e-13
5.58999e-13
4.57747e-13
3.50584e-13
2.34513e-13
8.33045e-13
8.93453e-13
4.06519e-12
4.38575e-12
9.44745e-13
6.54523e-13
3.9438e-13
2.16846e-13
3.33936e-13
6.09395e-13
1.54674e-12
1.76394e-12
3.99048e-12
4.33138e-12
9.92769e-13
7.33364e-13
4.9823e-13
3.05813e-13
2.92367e-13
4.95928e-13
1.45682e-12
1.6889e-12
3.916e-12
4.26832e-12
1.02262e-12
7.93977e-13
5.83933e-13
3.96663e-13
3.05132e-13
4.10129e-13
1.27849e-12
1.52613e-12
3.84468e-12
4.20298e-12
1.042e-12
8.40471e-13
6.53214e-13
4.77153e-13
3.51789e-13
3.63874e-13
1.1184e-12
1.37877e-12
3.77715e-12
4.13707e-12
1.05379e-12
8.76754e-13
7.10324e-13
5.47919e-13
4.12123e-13
3.58344e-13
9.7606e-13
1.24621e-12
3.71338e-12
4.0713e-12
1.05913e-12
9.04024e-13
7.57051e-13
6.09383e-13
4.74308e-13
3.8284e-13
8.51128e-13
1.12792e-12
3.6532e-12
4.00629e-12
1.0595e-12
9.24111e-13
7.94807e-13
6.61799e-13
5.32955e-13
4.24227e-13
7.43183e-13
1.02327e-12
3.59773e-12
3.94264e-12
1.05558e-12
9.38084e-13
8.25156e-13
7.0629e-13
5.8645e-13
4.72313e-13
6.52743e-13
9.31739e-13
5.86977e-10
6.75974e-12
1.04901e-12
9.47262e-13
8.4923e-13
7.43835e-13
6.34147e-13
5.21463e-13
5.79814e-13
8.53216e-13
9.14781e-08
1.25742e-08
6.48959e-11
9.35922e-13
8.65752e-13
7.73464e-13
6.7435e-13
5.66638e-13
5.24375e-13
7.96504e-13
2.99852e-12
3.66442e-12
1.23619e-12
1.03748e-12
8.77631e-13
7.88985e-13
8.65591e-13
1.16598e-12
2.27855e-12
3.05014e-12
2.9214e-12
3.57469e-12
1.2598e-12
1.09131e-12
9.48464e-13
8.45838e-13
8.50905e-13
1.03846e-12
1.99075e-12
2.73581e-12
2.84156e-12
3.47397e-12
1.25914e-12
1.11928e-12
9.97183e-13
8.95636e-13
8.58855e-13
9.53159e-13
1.64294e-12
2.35673e-12
2.76666e-12
3.37548e-12
1.24879e-12
1.13351e-12
1.03125e-12
9.38278e-13
8.82141e-13
9.1143e-13
1.33903e-12
2.02518e-12
2.69654e-12
3.27997e-12
1.23198e-12
1.13817e-12
1.05422e-12
9.73169e-13
9.12137e-13
9.00548e-13
1.07555e-12
1.73554e-12
2.63125e-12
3.18824e-12
1.21062e-12
1.13512e-12
1.06792e-12
1.00011e-12
9.42243e-13
9.08248e-13
8.46927e-13
1.48298e-12
2.57049e-12
3.10027e-12
1.18595e-12
1.12632e-12
1.07397e-12
1.0192e-12
9.68572e-13
9.25211e-13
6.4887e-13
1.26383e-12
2.51517e-12
3.01643e-12
1.15917e-12
1.11311e-12
1.07393e-12
1.0315e-12
9.89867e-13
9.4546e-13
4.78035e-13
1.07488e-12
5.00353e-10
5.91264e-12
1.13136e-12
1.09674e-12
1.06894e-12
1.03798e-12
1.00614e-12
9.65466e-13
3.33502e-13
9.13678e-13
3.43785e-08
1.69823e-08
6.97432e-11
1.02792e-12
1.05696e-12
1.03708e-12
1.01419e-12
9.79589e-13
2.05301e-13
7.81271e-13
2.14132e-12
2.95283e-12
1.41969e-12
1.3881e-12
1.39003e-12
1.44713e-12
1.64891e-12
2.1473e-12
3.96034e-12
6.24768e-12
2.06426e-12
2.83775e-12
1.39442e-12
1.38304e-12
1.39761e-12
1.44619e-12
1.58678e-12
1.92997e-12
3.28271e-12
5.27796e-12
1.98375e-12
2.71286e-12
1.34698e-12
1.35236e-12
1.37968e-12
1.42911e-12
1.53588e-12
1.77111e-12
2.61625e-12
4.34896e-12
1.90962e-12
2.59509e-12
1.29615e-12
1.31447e-12
1.35288e-12
1.40753e-12
1.49933e-12
1.66695e-12
2.06877e-12
3.57877e-12
1.84184e-12
2.48469e-12
1.24432e-12
1.27272e-12
1.32045e-12
1.38145e-12
1.46908e-12
1.59802e-12
1.62087e-12
2.93979e-12
1.77959e-12