/*--------------------------------*- C++ -*----------------------------------*\
| =========                 |                                                 |
| \\      /  F ield         | OpenFOAM: The Open Source CFD Toolbox           |
|  \\    /   O peration     | Version:  4.1                                   |
|   \\  /    A nd           | Web:      www.OpenFOAM.org                      |
|    \\/     M anipulation  |                                                 |
\*---------------------------------------------------------------------------*/
FoamFile
{
    version     2.0;
    format      ascii;
    class       surfaceScalarField;
    location    "0.16";
    object      phi;
}
// * * * * * * * * * * * * * * * * * * * * * * * * * * * * * * * * * * * * * //

dimensions      [1 0 -1 0 0 0 0];

internalField   nonuniform List<scalar> 
51500
(
3.70652e-13
9.36309e-15
1.56679e-11
-2.14924e-15
1.69462e-14
1.54847e-11
-2.00045e-15
1.63154e-14
1.5304e-11
-2.01077e-15
1.55001e-14
1.51255e-11
-1.96941e-15
1.45905e-14
1.49493e-11
-1.95422e-15
1.36187e-14
1.47755e-11
-1.95438e-15
1.2605e-14
1.46042e-11
-1.9291e-15
1.15653e-14
1.44353e-11
-1.89535e-15
1.04962e-14
1.42687e-11
9.40242e-15
1.41059e-11
-7.17742e-17
3.76954e-13
6.56261e-15
1.97687e-11
-9.1884e-15
9.49606e-15
1.90447e-11
-7.62955e-15
8.21951e-15
1.83524e-11
-7.47726e-15
6.92219e-15
1.76893e-11
-7.27238e-15
5.7134e-15
1.70557e-11
-7.09016e-15
4.58328e-15
1.64495e-11
-6.90722e-15
3.51741e-15
1.58697e-11
-6.73396e-15
2.51871e-15
1.53145e-11
-6.44611e-15
1.57578e-15
1.47828e-11
6.94922e-16
1.42781e-11
-7.20561e-16
3.81569e-13
8.18484e-15
2.52726e-11
-1.84599e-14
9.05001e-15
2.36679e-11
-1.48676e-14
7.53672e-15
2.21844e-11
-1.42363e-14
6.16905e-15
2.08111e-11
-1.35953e-14
4.93749e-15
1.95407e-11
-1.30436e-14
3.82308e-15
1.83639e-11
-1.24896e-14
2.82019e-15
1.72736e-11
-1.19916e-14
1.91279e-15
1.62616e-11
-1.12497e-14
1.10153e-15
1.53218e-11
3.99729e-16
1.44533e-11
-1.39754e-15
3.8326e-13
1.0398e-14
3.27819e-11
-3.08127e-14
1.08221e-14
2.97477e-11
-2.41127e-14
8.79661e-15
2.70484e-11
-2.2591e-14
7.03155e-15
2.46379e-11
-2.11716e-14
5.50454e-15
2.24862e-11
-1.98866e-14
4.17806e-15
2.05608e-11
-1.87056e-14
3.025e-15
1.8834e-11
-1.76167e-14
2.01722e-15
1.72823e-11
-1.62585e-14
1.13928e-15
1.58848e-11
4.02372e-16
1.46317e-11
-2.13458e-15
3.79484e-13
1.34667e-14
4.3212e-11
-4.72725e-14
1.31335e-14
3.78555e-11
-3.61423e-14
1.03578e-14
3.32855e-11
-3.30188e-14
8.06865e-15
2.93651e-11
-3.02263e-14
6.16732e-15
2.59964e-11
-2.77733e-14
4.58182e-15
2.30896e-11
-2.56289e-14
3.24618e-15
2.05718e-11
-2.37105e-14
2.12453e-15
1.83834e-11
-2.15066e-14
1.18254e-15
1.64741e-11
4.18002e-16
1.48136e-11
-2.8881e-15
3.65967e-13
1.78425e-14
5.79895e-11
-7.29366e-14
1.62264e-14
4.88349e-11
-5.1985e-14
1.2349e-14
4.13768e-11
-4.61422e-14
9.32869e-15
3.52526e-11
-4.1134e-14
6.94377e-15
3.02029e-11
-3.69419e-14
5.03189e-15
2.60111e-11
-3.33549e-14
3.49241e-15
2.25112e-11
-3.02645e-14
2.24066e-15
1.95723e-11
-2.69809e-14
1.2245e-15
1.7091e-11
4.19947e-16
1.49981e-11
-3.70147e-15
3.34345e-13
1.93241e-14
7.93972e-11
-1.27951e-13
1.97761e-14
6.39571e-11
-7.31226e-14
1.59618e-14
5.20016e-11
-6.28901e-14
1.71484e-14
4.26505e-11
-5.44127e-14
1.34196e-14
3.52741e-11
-4.7582e-14
9.44912e-15
2.93995e-11
-4.2005e-14
5.53714e-15
2.46801e-11
-3.73539e-14
3.18314e-15
2.08575e-11
-3.273e-14
1.8354e-15
1.77374e-11
7.55076e-16
1.5186e-11
-4.53262e-15
2.66115e-13
5.5636e-15
1.11199e-10
-1.9221e-13
2.53467e-15
8.51718e-11
-1.01782e-13
-6.43683e-15
6.61435e-11
-8.44712e-14
-1.26773e-14
5.20319e-11
-7.07185e-14
-1.71136e-14
4.14255e-11
-6.00485e-14
-2.03222e-14
3.33445e-11
-5.16745e-14
-2.26716e-14
2.71115e-11
-4.49799e-14
-2.44241e-14
2.22486e-11
-3.87032e-14
-2.57475e-14
1.8414e-11
-2.69815e-14
1.53776e-11
-5.42144e-15
1.07538e-12
-2.2251e-10
1.57781e-10
5.56412e-13
-2.28234e-10
1.13771e-10
5.08026e-13
-2.28133e-10
8.39654e-11
4.63812e-13
-2.2798e-10
6.32361e-11
4.23581e-13
-2.27809e-10
4.85563e-11
3.87411e-13
-2.27629e-10
3.79775e-11
3.55032e-13
-2.27447e-10
3.02367e-11
3.26114e-13
-2.27267e-10
2.44955e-11
2.99584e-13
-2.27092e-10
2.01846e-11
-2.27919e-10
1.69437e-11
-6.34974e-15
-1.46601e-11
4.0891e-08
-9.04806e-07
8.85331e-11
3.408e-08
-9.38814e-07
8.55472e-11
2.94007e-08
-9.40412e-07
8.29817e-11
2.56162e-08
-9.41736e-07
8.02082e-11
2.25124e-08
-9.42862e-07
7.73754e-11
1.99363e-08
-9.43832e-07
7.45743e-11
1.77756e-08
-9.44677e-07
7.19487e-11
1.5946e-08
-9.45421e-07
6.2547e-11
1.43838e-08
-9.46086e-07
1.30925e-08
-7.31338e-15
-9.55564e-07
3.44669e-13
9.4398e-14
1.71819e-13
-2.11772e-14
8.86798e-14
1.68492e-13
-2.62453e-14
7.80522e-14
1.65382e-13
-2.58296e-14
6.77688e-14
1.61475e-13
-2.55448e-14
5.78448e-14
1.58035e-13
-2.52951e-14
4.82565e-14
1.5496e-13
-2.51209e-14
3.89988e-14
1.51476e-13
-2.49182e-14
3.00585e-14
1.48698e-13
-2.71287e-14
2.14102e-14
1.45905e-13
1.31122e-14
1.42955e-13
-1.56147e-15
2.82923e-13
9.03041e-14
2.41627e-13
-7.62919e-14
8.17484e-14
2.28688e-13
-8.98862e-14
6.91915e-14
2.17246e-13
-8.70664e-14
5.72697e-14
2.04626e-13
-8.46021e-14
4.59194e-14
1.93171e-13
-8.21836e-14
3.47564e-14
1.82247e-13
-7.99167e-14
2.24124e-14
1.7238e-13
-7.79566e-14
1.4543e-14
1.63261e-13
-8.2989e-14
8.01771e-15
1.55002e-13
2.64116e-15
1.46435e-13
-4.35285e-15
1.89868e-13
1.1431e-13
3.43769e-13
-1.93216e-13
1.01208e-13
3.13118e-13
-1.7198e-13
8.43578e-14
2.8785e-13
-1.6332e-13
6.90414e-14
2.60884e-13
-1.5544e-13
5.52342e-14
2.3723e-13
-1.4803e-13
4.2786e-14
2.16222e-13
-1.41102e-13
3.157e-14
1.97389e-13
-1.34869e-13
2.14848e-14
1.80478e-13
-1.41265e-13
1.24216e-14
1.65267e-13
4.32442e-15
1.50928e-13
-7.20344e-15
6.28932e-14
1.4141e-13
5.00722e-13
-3.32699e-13
1.21607e-13
4.38784e-13
-2.78206e-13
9.89027e-14
3.87412e-13
-2.58192e-13
7.90579e-14
3.374e-13
-2.40423e-13
6.18064e-14
2.95001e-13
-2.2422e-13
4.68298e-14
2.58823e-13
-2.09349e-13
3.38408e-14
2.2788e-13
-1.96184e-13
2.25747e-14
2.01437e-13
-2.01597e-13
1.27945e-14
1.77902e-13
4.38152e-15
1.56123e-13
-1.01614e-14
-7.28779e-14
1.77126e-13
7.48087e-13
-5.11692e-13
1.47628e-13
6.27848e-13
-4.15536e-13
1.16866e-13
5.30303e-13
-3.76369e-13
9.10215e-14
4.41839e-13
-3.4234e-13
6.94332e-14
3.70821e-13
-3.12183e-13
5.13919e-14
3.12702e-13
-2.85352e-13
3.63121e-14
2.65022e-13
-2.62144e-13
2.37112e-14
2.25546e-13
-2.64173e-13
1.31863e-14
1.92774e-13
4.4241e-15
1.62332e-13
-1.32654e-14
-2.90768e-13
2.24966e-13
1.14883e-12
-7.47935e-13
1.81242e-13
9.15793e-13
-5.93603e-13
1.39235e-13
7.36362e-13
-5.23583e-13
1.05446e-13
5.85368e-13
-4.64534e-13
7.8324e-14
4.70092e-13
-4.13788e-13
5.65359e-14
3.8049e-13
-3.69979e-13
3.90309e-14
3.10337e-13
-3.32792e-13
2.49345e-14
2.54881e-13
-3.29204e-13
1.35968e-14
2.10264e-13
4.46469e-15
1.70035e-13
-1.636e-14
-7.24747e-13
2.89029e-13
1.81199e-12
-1.06503e-12
2.24714e-13
1.36736e-12
-8.24868e-13
1.6708e-13
1.03841e-12
-7.07252e-13
1.22702e-13
7.84094e-13
-6.11074e-13
8.85857e-14
6.01015e-13
-5.30969e-13
6.2301e-14
4.65926e-13
-4.64063e-13
4.19783e-14
3.6507e-13
-4.08435e-13
2.62558e-14
2.89283e-13
-3.96771e-13
1.40452e-14
2.30126e-13
4.63024e-15
1.79033e-13
-1.95022e-14
-1.30687e-12
2.71548e-13
2.95157e-12
-1.49571e-12
2.47625e-13
2.08774e-12
-1.12618e-12
1.75144e-13
1.48821e-12
-9.36449e-13
1.23305e-13
1.06356e-12
-7.86543e-13
8.58105e-14
7.75449e-13
-6.66123e-13
5.83972e-14
5.74373e-13
-5.68362e-13
3.81813e-14
4.32154e-13
-4.89575e-13
2.31666e-14
3.29157e-13
-4.66705e-13
1.19514e-14
2.53361e-13
3.59167e-15
1.89058e-13
-2.27474e-14
-2.18574e-12
8.30155e-12
5.08873e-12
-2.0745e-12
2.19157e-12
3.04865e-12
-1.50335e-12
1.5324e-12
2.0156e-12
-1.21331e-12
9.64473e-13
1.3521e-12
-9.92131e-13
4.59824e-13
9.35869e-13
-8.20148e-13
7.67544e-15
6.65538e-13
-6.84777e-13
-4.00281e-13
4.85927e-13
-5.78555e-13
-7.70546e-13
3.64005e-13
-5.44211e-13
-1.10833e-12
2.78529e-13
-1.40607e-12
2.07361e-13
-2.60579e-14
-2.00941e-10
1.72774e-09
2.99702e-08
-1.07259e-10
4.82796e-10
-5.91157e-10
-1.01871e-10
3.54084e-10
-5.84758e-10
-9.58695e-11
2.67355e-10
-5.63591e-10
-9.05197e-11
2.05812e-10
-5.43233e-10
-8.57209e-11
1.61205e-10
-5.24304e-10
-8.13925e-11
1.28271e-10
-5.06994e-10
-7.74696e-11
1.03565e-10
-4.91348e-10
-7.39137e-11
8.47546e-11
-4.77578e-10
6.97443e-11
-2.9538e-14
-4.27319e-10
3.48781e-13
8.14805e-14
1.06827e-14
-1.82366e-14
7.73825e-14
9.22474e-15
-2.07321e-14
6.82899e-14
8.00979e-15
-1.96891e-14
5.94905e-14
6.38004e-15
-1.9017e-14
5.09878e-14
4.913e-15
-1.94068e-14
4.27481e-14
3.42132e-15
-1.85962e-14
3.48122e-14
2.56821e-15
-1.88857e-14
2.71274e-14
1.90238e-15
-2.3334e-14
1.96983e-14
1.22022e-15
1.25658e-14
1.10427e-15
-1.43678e-15
2.97738e-13
5.84008e-14
1.75271e-14
-6.59243e-14
5.36766e-14
1.53442e-14
-6.89103e-14
4.54679e-14
1.52722e-14
-6.5341e-14
3.77131e-14
1.20502e-14
-6.36818e-14
3.04703e-14
9.3843e-15
-6.1067e-14
2.37609e-14
7.47984e-15
-5.93222e-14
1.75599e-14
5.68023e-15
-5.88009e-14
1.18953e-14
4.25671e-15
-7.12167e-14
6.79132e-15
3.61603e-15
2.36596e-15
2.48027e-15
-4.40468e-15
2.20047e-13
7.4487e-14
2.54468e-14
-1.6563e-13
6.7242e-14
2.36066e-14
-1.2982e-13
5.64698e-14
2.43955e-14
-1.19203e-13
4.66311e-14
2.01384e-14
-1.12682e-13
3.76885e-14
1.64036e-14
-1.06334e-13
2.95313e-14
1.30636e-14
-1.00899e-13
2.20898e-14
1.09662e-14
-1.00801e-13
1.54242e-14
9.17705e-15
-1.21079e-13
9.18317e-15
7.7042e-15
3.28375e-15
5.62676e-15
-7.28801e-15
9.8215e-14
9.24842e-14
4.158e-14
-2.88788e-13
8.09305e-14
4.09579e-14
-2.00779e-13
6.63242e-14
4.20124e-14
-1.81916e-13
5.34779e-14
3.41981e-14
-1.69109e-13
4.22612e-14
2.82369e-14
-1.5749e-13
3.24165e-14
2.35174e-14
-1.46142e-13
2.3791e-14
1.98676e-14
-1.43168e-13
1.61315e-14
1.68549e-14
-1.72821e-13
9.52388e-15
1.49133e-14
3.35608e-15
1.02666e-14
-1.03322e-14
-1.83978e-14
1.16428e-13
7.2069e-14
-4.44796e-13
9.84067e-14
7.2836e-14
-2.91292e-13
7.84742e-14
7.08416e-14
-2.6061e-13
6.16583e-14
5.80818e-14
-2.37076e-13
4.75401e-14
4.7558e-14
-2.15808e-13
3.56591e-14
3.94993e-14
-1.96998e-13
2.56372e-14
3.32852e-14
-1.84155e-13
1.72908e-14
2.86815e-14
-2.26511e-13
9.97723e-15
2.48298e-14
3.4586e-15
1.67596e-14
-1.33611e-14
-1.53265e-13
1.4875e-13
1.2742e-13
-6.48912e-13
1.21251e-13
1.29731e-13
-4.09219e-13
9.36883e-14
1.18836e-13
-3.58139e-13
7.15443e-14
9.55216e-14
-3.17725e-13
5.37293e-14
7.73472e-14
-2.82712e-13
3.92938e-14
6.33442e-14
-2.52498e-13
2.75913e-14
5.26123e-14
-2.29763e-13
1.83012e-14
4.4504e-14
-2.82263e-13
1.03076e-14
3.76725e-14
3.50243e-15
2.51567e-14
-1.65328e-14
-5.62112e-13
1.93355e-13
2.26305e-13
-9.2118e-13
1.51193e-13
2.27692e-13
-5.61579e-13
1.12888e-13
1.96373e-13
-4.78946e-13
8.35775e-14
1.5361e-13
-4.13785e-13
6.10048e-14
1.21336e-13
-3.59245e-13
4.35047e-14
9.71553e-14
-3.13565e-13
2.99059e-14
7.65771e-14
-2.78519e-13
1.92924e-14
6.05251e-14
-3.40102e-13
1.07039e-14
5.43405e-14
3.61953e-15
3.5302e-14
-1.9752e-14
-1.08627e-12
3.00621e-13
4.0591e-13
-1.2874e-12
2.14903e-13
3.96516e-13
-7.60058e-13
1.76182e-13
3.14388e-13
-6.29386e-13
1.26151e-13
2.24294e-13
-5.28316e-13
8.89256e-14
1.85248e-13
-4.46913e-13
6.13781e-14
1.22759e-13
-3.81244e-13
4.09159e-14
1.14173e-13
-3.30153e-13
2.55749e-14
9.19011e-14
-4.00072e-13
1.39283e-14
7.27107e-14
4.91805e-15
4.01355e-14
-2.30649e-14
-1.8892e-12
5.94807e-12
1.15264e-12
-1.77995e-12
4.5168e-13
6.76784e-13
-1.02062e-12
2.98478e-13
5.18416e-13
-8.17306e-13
2.02491e-13
3.09711e-13
-6.65242e-13
1.35675e-13
2.58909e-13
-5.4766e-13
8.84774e-14
1.90916e-13
-4.55549e-13
5.46835e-14
1.41455e-13
-3.85383e-13
3.04215e-14
1.09145e-13
-4.62402e-13
1.28659e-14
8.57312e-14
2.10443e-16
5.37084e-14
-2.64196e-14
-8.3707e-11
1.29866e-09
2.85616e-08
-4.64819e-12
1.06241e-11
1.84705e-11
-4.40705e-12
3.24541e-12
4.66177e-12
-3.54494e-12
2.10993e-12
5.04148e-12
-2.88197e-12
1.42691e-12
4.82106e-12
-2.37462e-12
9.98668e-13
3.03944e-12
-1.97744e-12
7.24477e-13
2.74064e-12
-1.66584e-12
5.34545e-13
2.75745e-12
-1.45014e-12
4.01233e-13
2.8114e-12
2.80378e-13
-2.99949e-14
3.39963e-12
3.48707e-13
8.12297e-14
1.13094e-14
-1.83821e-14
7.71656e-14
1.0441e-14
-2.06588e-14
6.81116e-14
8.97142e-15
-1.95887e-14
5.93342e-14
7.25095e-15
-1.92115e-14
5.08573e-14
4.50975e-15
-1.91571e-14
4.26612e-14
3.62698e-15
-1.83346e-14
3.47452e-14
2.03695e-15
-1.89566e-14
2.70807e-14
8.40445e-16
-2.32144e-14
1.96916e-14
4.38606e-16
1.25772e-14
7.76232e-17
-1.54195e-15
2.97916e-13
5.81119e-14
2.009e-14
-6.5861e-14
5.3435e-14
1.78837e-14
-6.85111e-14
4.52589e-14
1.77991e-14
-6.47347e-14
3.75672e-14
1.36496e-14
-6.26616e-14
3.0368e-14
1.00261e-14
-6.03784e-14
2.36759e-14
7.4002e-15
-5.85754e-14
1.75206e-14
5.55265e-15
-5.79499e-14
1.18881e-14
4.34446e-15
-7.09966e-14
6.79597e-15
2.98705e-15
2.39266e-15
1.82668e-15
-4.37259e-15
2.20636e-13
7.40132e-14
2.8637e-14
-1.65278e-13
6.68374e-14
2.72061e-14
-1.27479e-13
5.61352e-14
2.90534e-14
-1.16128e-13
4.62898e-14
2.19882e-14
-1.10636e-13
3.73862e-14
1.7864e-14
-1.03861e-13
2.9305e-14
1.5287e-14
-9.90793e-14
2.18726e-14
1.16051e-14
-9.97699e-14
1.51312e-14
1.02713e-14
-1.20611e-13
9.09928e-15
8.36603e-15
3.23623e-15
6.16703e-15
-7.26762e-15
9.90671e-14
9.19112e-14
4.69801e-14
-2.87993e-13
8.0448e-14
4.70753e-14
-1.97197e-13
6.58987e-14
4.95116e-14
-1.79347e-13
5.3155e-14
4.04853e-14
-1.66945e-13
4.19744e-14
3.32817e-14
-1.55357e-13
3.21612e-14
2.89589e-14
-1.44646e-13
2.35597e-14
2.2826e-14
-1.39322e-13
1.59948e-14
1.973e-14
-1.72292e-13
9.40172e-15
1.67948e-14
3.40635e-15
1.12954e-14
-1.03535e-14
-1.69596e-14
1.15709e-13
8.30596e-14
-4.43502e-13
9.78566e-14
8.62335e-14
-2.87538e-13
7.80262e-14
8.51837e-14
-2.58111e-13
6.12914e-14
6.89364e-14
-2.34671e-13
4.72582e-14
5.72256e-14
-2.1374e-13
3.54297e-14
4.7127e-14
-1.94995e-13
2.54283e-14
4.03237e-14
-1.81961e-13
1.70164e-14
3.43162e-14
-2.25915e-13
9.90514e-15
2.97199e-14
3.56331e-15
2.09668e-14
-1.33652e-14
-1.51218e-13
1.47814e-13
1.45494e-13
-6.46892e-13
1.20574e-13
1.52279e-13
-4.05153e-13
9.31737e-14
1.43604e-13
-3.55141e-13
7.11717e-14
1.15266e-13
-3.15114e-13
5.34386e-14
9.40352e-14
-2.80479e-13
3.90606e-14
7.76865e-14
-2.50422e-13
2.7419e-14
6.5054e-14
-2.27967e-13
1.79456e-14
5.39766e-14
-2.81599e-13
1.03012e-14
4.65968e-14
3.59525e-15
3.05057e-14
-1.66121e-14
-5.57224e-13
1.92148e-13
2.59413e-13
-9.18013e-13
1.50387e-13
2.70985e-13
-5.56919e-13
1.12344e-13
2.3683e-13
-4.75524e-13
8.31667e-14
1.86933e-13
-4.10957e-13
6.0713e-14
1.48502e-13
-3.56781e-13
4.32916e-14
1.20818e-13
-3.11701e-13
2.96613e-14
9.77809e-14
-2.76608e-13
1.90345e-14
8.23795e-14
-3.39583e-13
1.08089e-14
6.91217e-14
3.68767e-15
4.46217e-14
-1.9809e-14
-1.07898e-12
2.99795e-13
4.63271e-13
-1.2823e-12
1.87237e-13
4.70504e-13
-7.54898e-13
1.37823e-13
3.86623e-13
-6.25414e-13
9.90454e-14
2.95384e-13
-5.25253e-13
7.08593e-14
2.28692e-13
-4.4458e-13
5.22033e-14
1.79823e-13
-3.79332e-13
3.58578e-14
1.43164e-13
-3.2837e-13
2.25269e-14
1.16331e-13
-3.99886e-13
1.22874e-14
9.44906e-14
4.51882e-15
6.27324e-14
-2.3077e-14
-1.87933e-12
5.90464e-12
1.65858e-12
-1.77209e-12
2.96326e-13
8.17695e-13
-1.01492e-12
2.4938e-13
6.2826e-13
-8.13366e-13
1.66898e-13
4.58816e-13
-6.624e-13
1.10137e-13
3.41782e-13
-5.45543e-13
7.06184e-14
2.60832e-13
-4.54029e-13
4.16415e-14
2.01682e-13
-3.83989e-13
1.7564e-14
1.59442e-13
-4.62312e-13
8.11177e-15
1.2673e-13
2.91846e-15
7.77349e-14
-2.65426e-14
-8.26303e-11
2.01779e-09
2.96471e-08
-2.21442e-12
7.42702e-12
1.56016e-11
-1.35633e-12
9.78473e-13
3.42309e-13
-1.06529e-12
6.64114e-13
2.54194e-13
-8.38423e-13
4.68193e-13
1.92609e-13
-6.70316e-13
3.38793e-13
1.37741e-13
-5.43315e-13
2.51256e-13
8.1242e-14
-4.48332e-13
1.89789e-13
6.40947e-14
-5.30997e-13
1.45675e-13
5.30319e-14
9.12177e-14
-3.00593e-14
4.68146e-14
3.48546e-13
8.13622e-14
1.87254e-14
-1.86686e-14
7.72741e-14
1.52975e-14
-2.07637e-14
6.82042e-14
1.24042e-14
-2.00456e-14
5.94074e-14
8.46832e-15
-1.90249e-14
5.09176e-14
8.05015e-15
-1.93393e-14
4.27076e-14
4.36067e-15
-1.87556e-14
3.47897e-14
3.95927e-15
-1.8854e-14
2.71346e-14
2.70927e-15
-2.32443e-14
1.97325e-14
9.96725e-16
1.26161e-14
2.49675e-16
-1.61763e-15
2.97599e-13
5.82516e-14
2.87117e-14
-6.62028e-14
5.35623e-14
2.39284e-14
-6.87524e-14
4.53674e-14
2.25695e-14
-6.52235e-14
3.76448e-14
1.85986e-14
-6.26437e-14
3.04475e-14
1.28398e-14
-6.05863e-14
2.37535e-14
1.03267e-14
-5.83006e-14
1.75816e-14
7.84633e-15
-5.82471e-14
1.19452e-14
6.72788e-15
-7.10506e-14
6.84888e-15
4.792e-15
2.44161e-15
2.2939e-15
-4.37692e-15
2.20124e-13
7.42381e-14
4.06199e-14
-1.65981e-13
6.70332e-14
3.67045e-14
-1.28464e-13
5.63051e-14
3.84116e-14
-1.16109e-13
4.64628e-14
3.22047e-14
-1.10435e-13
3.75221e-14
2.42664e-14
-1.04621e-13
2.94238e-14
1.89862e-14
-9.8743e-14
2.19837e-14
1.7815e-14
-1.0032e-13
1.51891e-14
1.25398e-14
-1.20656e-13
9.09639e-15
1.33144e-14
3.17467e-15
7.15022e-15
-7.38667e-15
9.84951e-14
9.23004e-14
6.90003e-14
-2.88968e-13
8.0795e-14
6.79455e-14
-1.97894e-13
6.61729e-14
6.49718e-14
-1.79844e-13
5.33759e-14
5.3834e-14
-1.67141e-13
4.21716e-14
4.43254e-14
-1.55874e-13
3.22977e-14
3.51434e-14
-1.44805e-13
2.37105e-14
3.4027e-14
-1.39616e-13
1.61583e-14
2.84838e-14
-1.72494e-13
9.61306e-15
2.55498e-14
3.62068e-15
1.84095e-14
-1.0273e-14
-1.79984e-14
1.16301e-13
1.11171e-13
-4.45115e-13
9.8351e-14
1.14604e-13
-2.88533e-13
7.84521e-14
1.12443e-13
-2.58766e-13
6.16442e-14
9.33106e-14
-2.35464e-13
4.75483e-14
7.95355e-14
-2.14131e-13
3.57049e-14
6.67407e-14
-1.95468e-13
2.56428e-14
5.58405e-14
-1.82347e-13
1.7138e-14
4.619e-14
-2.26287e-13
9.9454e-15
4.25704e-14
3.64112e-15
2.6038e-14
-1.33964e-14
-1.52907e-13
1.48762e-13
2.03676e-13
-6.49465e-13
1.21377e-13
2.06989e-13
-4.06798e-13
9.37996e-14
1.90644e-13
-3.56419e-13
7.16847e-14
1.53338e-13
-3.16138e-13
5.38571e-14
1.24697e-13
-2.81381e-13
3.94048e-14
1.06852e-13
-2.51233e-13
2.76863e-14
8.49839e-14
-2.28507e-13
1.82324e-14
7.60265e-14
-2.82343e-13
1.05926e-14
6.29302e-14
3.81582e-15
4.26422e-14
-1.65768e-14
-5.61952e-13
1.93645e-13
3.56465e-13
-9.22457e-13
1.51565e-13
3.60402e-13
-5.59488e-13
1.13261e-13
3.21881e-13
-4.77698e-13
8.38899e-14
2.46587e-13
-4.12648e-13
6.12955e-14
2.02355e-13
-3.58366e-13
4.3747e-14
1.58733e-13
-3.12798e-13
3.00506e-14
1.2988e-13
-2.77643e-13
1.93065e-14
1.06173e-13
-3.40805e-13
1.10317e-14
8.8865e-14
3.97102e-15
5.88181e-14
-1.98233e-14
-1.08792e-12
3.02584e-13
6.3055e-13
-1.28967e-12
1.88878e-13
6.32507e-13
-7.59218e-13
1.3905e-13
5.18355e-13
-6.28913e-13
9.99418e-14
3.93883e-13
-5.28082e-13
7.14845e-14
3.04536e-13
-4.46924e-13
5.23834e-14
2.37513e-13
-3.81187e-13
3.63146e-14
1.90992e-13
-3.30045e-13
2.2927e-14
1.53295e-13
-4.01684e-13
1.26243e-14
1.24889e-13
4.7839e-15
8.06884e-14
-2.31731e-14
-1.89586e-12
5.88739e-12
2.2e-12
-1.78425e-12
2.9759e-13
1.09903e-12
-1.02211e-12
2.44454e-13
8.37201e-13
-8.18969e-13
1.62749e-13
6.11722e-13
-6.6676e-13
1.0586e-13
4.59843e-13
-5.49149e-13
6.48754e-14
3.48812e-13
-4.56849e-13
3.04863e-14
2.68941e-13
-3.86382e-13
1.68852e-14
2.12494e-13
-4.65079e-13
8.68074e-15
1.69415e-13
3.24064e-15
1.07975e-13
-2.65688e-14
-8.27984e-11
2.58082e-09
2.98576e-08
-2.20591e-12
1.0974e-11
1.56675e-11
-1.347e-12
1.31466e-12
1.46172e-13
-1.05845e-12
9.10876e-13
8.44815e-14
-8.33609e-13
6.534e-13
6.38202e-14
-6.66722e-13
4.80476e-13
4.94091e-14
-5.40644e-13
3.611e-13
3.89657e-14
-4.46221e-13
2.75862e-13
3.12194e-14
-5.30661e-13
2.12092e-13
2.53653e-14
1.30742e-13
-3.01759e-14
2.09382e-14
3.48228e-13
8.15233e-14
1.93079e-14
-1.90159e-14
7.74142e-14
1.62525e-14
-2.12201e-14
6.83128e-14
1.66918e-14
-1.99474e-14
5.9508e-14
1.28257e-14
-1.96508e-14
5.09852e-14
7.54622e-15
-1.92665e-14
4.27752e-14
5.26959e-15
-1.88245e-14
3.48413e-14
2.8324e-15
-1.90872e-14
2.71855e-14
1.69963e-15
-2.33031e-14
1.97843e-14
1.14808e-15
1.26628e-14
3.335e-16
-1.53762e-15
2.97144e-13
5.84346e-14
3.36755e-14
-6.66784e-14
5.37239e-14
3.1932e-14
-6.88793e-14
4.55137e-14
3.01188e-14
-6.59229e-14
3.77598e-14
2.24948e-14
-6.24549e-14
3.0556e-14
1.96934e-14
-6.09836e-14
2.38436e-14
1.30858e-14
-5.7987e-14
1.76658e-14
8.81085e-15
-5.84187e-14
1.20138e-14
6.12041e-15
-7.1154e-14
6.92069e-15
5.99365e-15
2.50085e-15
4.47933e-15
-4.39254e-15
2.19404e-13
7.45529e-14
4.74677e-14
-1.66901e-13
6.7308e-14
4.5228e-14
-1.28957e-13
5.65183e-14
4.71567e-14
-1.16644e-13
4.66566e-14
3.85219e-14
-1.10748e-13
3.76867e-14
3.17935e-14
-1.04576e-13
2.95397e-14
2.56539e-14
-9.93745e-14
2.21374e-14
1.8655e-14
-9.96729e-14
1.53818e-14
1.88136e-14
-1.20867e-13
9.16517e-15
1.32965e-14
3.433e-15
1.06839e-14
-7.37453e-15
9.77018e-14
9.27752e-14
7.92288e-14
-2.90313e-13
8.12176e-14
7.90102e-14
-1.98359e-13
6.65382e-14
8.47893e-14
-1.8042e-13
5.36813e-14
6.91214e-14
-1.6801e-13
4.24453e-14
5.5853e-14
-1.55778e-13
3.25696e-14
4.54782e-14
-1.45317e-13
2.38925e-14
3.66989e-14
-1.39909e-13
1.62773e-14
3.42612e-14
-1.72741e-13
9.76177e-15
2.80102e-14
3.65149e-15
1.79727e-14
-1.03355e-14
-1.93756e-14
1.17106e-13
1.40083e-13
-4.47174e-13
9.9028e-14
1.47334e-13
-2.89755e-13
7.89972e-14
1.46429e-13
-2.59718e-13
6.20983e-14
1.17645e-13
-2.36285e-13
4.79071e-14
9.35853e-14
-2.14869e-13
3.60122e-14
7.88307e-14
-1.96078e-13
2.58974e-14
6.38235e-14
-1.82596e-13
1.74033e-14
5.67315e-14
-2.26875e-13
1.01027e-14
4.74771e-14
3.89841e-15
3.23571e-14
-1.33951e-14
-1.55166e-13
1.50001e-13
2.41628e-13
-6.52883e-13
1.22394e-13
2.63932e-13
-4.08863e-13
9.46374e-14
2.41814e-13
-3.5813e-13
7.23386e-14
1.93384e-13
-3.17405e-13
5.44205e-14
1.56082e-13
-2.82713e-13
3.98422e-14
1.23393e-13
-2.52069e-13
2.80633e-14
1.05154e-13
-2.29371e-13
1.84713e-14
8.76035e-14
-2.83301e-13
1.08503e-14
7.72252e-14
4.03012e-15
4.96957e-14
-1.65712e-14
-5.68339e-13
1.95596e-13
4.33901e-13
-9.28091e-13
1.53126e-13
4.63439e-13
-5.63184e-13
1.14445e-13
3.88974e-13
-4.80311e-13
8.48457e-14
3.0832e-13
-4.15045e-13
6.20291e-14
2.40316e-13
-3.60247e-13
4.4345e-14
1.9456e-13
-3.14433e-13
3.05511e-14
1.58923e-13
-2.78909e-13
1.97184e-14
1.36498e-13
-3.42355e-13
1.13717e-14
1.13642e-13
4.2986e-15
7.01932e-14
-1.98376e-14
-1.09967e-12
3.06265e-13
7.79243e-13
-1.29933e-12
1.9125e-13
7.89493e-13
-7.64922e-13
1.40806e-13
6.37954e-13
-6.33485e-13
1.01258e-13
4.83765e-13
-5.31799e-13
7.25107e-14
3.70062e-13
-4.49884e-13
5.29089e-14
2.90872e-13
-3.83719e-13
3.69883e-14
2.29246e-13
-3.32136e-13
2.34987e-14
1.85489e-13
-4.0404e-13
1.30948e-14
1.56798e-13
5.16751e-15
9.62855e-14
-2.31907e-14
-1.91789e-12
5.92226e-12
2.70893e-12
-1.80027e-12
3.01672e-13
1.36282e-12
-1.03154e-12
2.48209e-13
1.03623e-12
-8.26231e-13
1.65511e-13
7.53648e-13
-6.72542e-13
1.07905e-13
5.54269e-13
-5.53822e-13
6.65562e-14
4.19093e-13
-4.60553e-13
3.13964e-14
3.21697e-13
-3.89499e-13
1.74317e-14
2.53699e-13
-4.6858e-13
9.04567e-15
2.04178e-13
3.62891e-15
1.27948e-13
-2.66805e-14
-8.30278e-11
3.2787e-09
2.98725e-08
-2.22926e-12
1.41241e-11
1.56966e-11
-1.36204e-12
1.67308e-12
1.36365e-13
-1.06982e-12
1.14872e-12
8.30922e-14
-8.42307e-13
8.19539e-13
6.335e-14
-6.73505e-13
5.99371e-13
4.93703e-14
-5.4607e-13
4.45104e-13
3.91624e-14
-4.50662e-13
3.37263e-13
3.15798e-14
-5.35575e-13
2.68509e-13
2.58551e-14
1.60994e-13
-3.02974e-14
2.15536e-14
3.47831e-13
8.17247e-14
2.6536e-14
-1.93862e-14
7.75959e-14
2.4945e-14
-2.16157e-14
6.84515e-14
2.09063e-14
-2.0405e-14
5.96201e-14
1.59974e-14
-1.97999e-14
5.1095e-14
1.11936e-14
-1.96415e-14
4.28618e-14
5.72268e-15
-1.8758e-14
3.49208e-14
3.57014e-15
-1.90989e-14
2.72492e-14
2.69219e-15
-2.33678e-14
1.98456e-14
1.60376e-15
1.2731e-14
1.13129e-15
-1.56819e-15
2.96616e-13
5.86577e-14
4.43539e-14
-6.72323e-14
5.39178e-14
4.13907e-14
-6.94434e-14
4.56781e-14
4.02724e-14
-6.58129e-14
3.79084e-14
3.10383e-14
-6.34234e-14
3.06689e-14
2.23585e-14
-6.10523e-14
2.39553e-14
1.37116e-14
-5.84187e-14
1.7763e-14
9.81582e-15
-5.84077e-14
1.21166e-14
6.99684e-15
-7.11861e-14
7.00309e-15
6.61263e-15
2.57023e-15
4.62893e-15
-4.41357e-15
2.18532e-13
7.49259e-14
6.5102e-14
-1.68043e-13
6.76309e-14
6.39715e-14
-1.29406e-13
5.67981e-14
6.46726e-14
-1.17219e-13
4.68872e-14
5.14419e-14
-1.10924e-13
3.79005e-14
4.06315e-14
-1.05508e-13
2.97082e-14
2.94952e-14
-9.88392e-14
2.2312e-14
2.10019e-14
-1.00515e-13
1.54885e-14
1.61941e-14
-1.20997e-13
9.32319e-15
1.39579e-14
3.47357e-15
1.20744e-14
-7.41161e-15
9.67291e-14
9.33868e-14
1.05818e-13
-2.9189e-13
8.17483e-14
1.10159e-13
-1.99273e-13
6.69804e-14
1.10323e-13
-1.81191e-13
5.40523e-14
8.91934e-14
-1.68613e-13
4.2756e-14
7.23907e-14
-1.56424e-13
3.28676e-14
5.96205e-14
-1.45412e-13
2.41111e-14
4.21525e-14
-1.40385e-13
1.64916e-14
3.37122e-14
-1.73129e-13
9.83546e-15
2.78845e-14
3.92401e-15
2.00348e-14
-1.03246e-14
-2.11118e-14
1.18064e-13
1.84972e-13
-4.49674e-13
9.98497e-14
1.95278e-13
-2.91293e-13
7.96719e-14
1.87339e-13
-2.61003e-13
6.26555e-14
1.51372e-13
-2.37118e-13
4.83866e-14
1.23815e-13
-2.15993e-13
3.63767e-14
1.02029e-13
-1.96505e-13
2.62625e-14
7.98861e-14
-1.83418e-13
1.7643e-14
6.0785e-14
-2.2751e-13
1.04147e-14
4.95709e-14
4.12475e-15
3.17684e-14
-1.34435e-14
-1.57907e-13
1.51535e-13
3.30757e-13
-6.57044e-13
1.2365e-13
3.45341e-13
-4.11401e-13
9.56292e-14
3.14698e-13
-3.60134e-13
7.31537e-14
2.51608e-13
-3.19235e-13
5.50746e-14
2.0352e-13
-2.8398e-13
4.04101e-14
1.66617e-13
-2.53428e-13
2.851e-14
1.3418e-13
-2.30191e-13
1.88925e-14
9.75738e-14
-2.84465e-13
1.11539e-14
7.98899e-14
4.308e-15
4.90238e-14
-1.65892e-14
-5.76101e-13
1.98005e-13
5.88712e-13
-9.35148e-13
1.5503e-13
6.05345e-13
-5.67296e-13
1.15928e-13
5.23616e-13
-4.83818e-13
8.59981e-14
4.08514e-13
-4.17809e-13
6.29451e-14
3.22774e-13
-3.6258e-13
4.50861e-14
2.56685e-13
-3.1644e-13
3.11447e-14
2.05355e-13
-2.80454e-13
2.01409e-14
1.47123e-13
-3.4428e-13
1.17676e-14
1.18786e-13
4.66406e-15
7.25495e-14
-1.98708e-14
-1.11417e-12
3.10809e-13
1.05456e-12
-1.31114e-12
1.94081e-13
1.06261e-12
-7.71957e-13
1.42963e-13
8.61115e-13
-6.39156e-13
1.02892e-13
6.47314e-13
-5.36242e-13
7.37388e-14
4.95464e-13
-4.53608e-13
5.33666e-14
3.83886e-13
-3.8684e-13
3.78056e-14
3.00826e-13
-3.3459e-13
2.42049e-14
2.2606e-13
-4.06965e-13
1.3655e-14
1.67074e-13
5.63977e-15
1.01419e-13
-2.3288e-14
-1.94536e-12
6.04263e-12
3.55912e-12
-1.81988e-12
3.06994e-13
1.85782e-12
-1.04315e-12
2.5307e-13
1.40342e-12
-8.35294e-13
1.68997e-13
1.01266e-12
-6.79645e-13
1.10514e-13
7.47512e-13
-5.59505e-13
6.87079e-14
5.59945e-13
-4.65096e-13
3.25784e-14
4.27677e-13
-3.93347e-13
1.8113e-14
3.24793e-13
-4.72853e-13
9.49904e-15
2.28417e-13
4.10684e-15
1.36699e-13
-2.68054e-14
-8.54425e-11
4.64169e-09
3.07986e-08
-2.26092e-12
1.77956e-11
1.64127e-11
-1.3804e-12
2.27344e-12
1.31712e-13
-1.08397e-12
1.55643e-12
8.34844e-14
-8.53163e-13
1.10368e-12
6.38491e-14
-6.81989e-13
7.99074e-13
4.99135e-14
-5.52814e-13
5.90842e-13
3.97294e-14
-4.56058e-13
4.42425e-13
3.21702e-14
-5.41686e-13
3.02715e-13
2.64705e-14
1.78599e-13
-3.039e-14
2.22543e-14
3.47378e-13
8.19532e-14
3.49985e-14
-1.99062e-14
7.77678e-14
2.04462e-14
-2.19707e-14
6.86093e-14
1.8472e-14
-2.0665e-14
5.97483e-14
1.4087e-14
-2.03282e-14
5.12021e-14
9.95873e-15
-1.95632e-14
4.29627e-14
9.86469e-15
-1.93586e-14
3.50188e-14
9.37305e-15
-1.91423e-14
2.73538e-14
1.52483e-14
-2.35776e-14
1.99492e-14
5.33525e-14
1.28445e-14
1.85682e-13
-1.57144e-15
2.95932e-13
5.8926e-14
5.17104e-14
-6.78073e-14
5.41413e-14
3.45689e-14
-7.00766e-14
4.58555e-14
3.53561e-14
-6.62648e-14
3.80677e-14
2.79602e-14
-6.39293e-14
3.08124e-14
2.91282e-14
-6.06941e-14
2.40873e-14
1.91148e-14
-5.85793e-14
1.78822e-14
1.69643e-14
-5.90501e-14
1.22227e-14
1.94033e-14
-7.15992e-14
7.12521e-15
3.93774e-14
2.67013e-15
1.24049e-13
-4.30038e-15
2.17482e-13
7.5345e-14
7.34355e-14
-1.69319e-13
6.798e-14
5.38623e-14
-1.29833e-13
5.71049e-14
5.80375e-14
-1.17924e-13
4.71475e-14
4.75538e-14
-1.11369e-13
3.81346e-14
3.92166e-14
-1.05542e-13
2.99436e-14
2.99901e-14
-9.96208e-14
2.24959e-14
3.10195e-14
-9.98362e-14
1.56817e-14
3.04427e-14
-1.21658e-13
9.38186e-15
4.0239e-14
3.63365e-15
9.0002e-14
-7.25917e-15
9.5611e-14
9.4093e-14
1.29265e-13
-2.9364e-13
8.23242e-14
9.67331e-14
-2.00347e-13
6.74615e-14
1.01662e-13
-1.82065e-13
5.44634e-14
8.43979e-14
-1.69013e-13
4.31165e-14
7.10633e-14
-1.57247e-13
3.31587e-14
8.04607e-14
-1.45925e-13
2.43981e-14
5.46976e-14
-1.40525e-13
1.67693e-14
5.06474e-14
-1.73925e-13
1.00431e-14
5.37193e-14
4.17616e-15
7.91905e-14
-1.02379e-14
-2.31342e-14
1.19197e-13
2.36996e-13
-4.52403e-13
1.00755e-13
1.77533e-13
-2.92977e-13
8.04204e-14
1.76758e-13
-2.62302e-13
6.32939e-14
1.46273e-13
-2.38198e-13
4.89281e-14
1.22267e-13
-2.17009e-13
3.68678e-14
1.35463e-13
-1.97325e-13
2.66723e-14
7.69328e-14
-1.84296e-13
1.7962e-14
8.16256e-14
-2.28584e-13
1.07386e-14
7.78149e-14
4.31845e-15
8.27628e-14
-1.3381e-14
-1.61228e-13
1.53302e-13
4.34147e-13
-6.61506e-13
1.25026e-13
3.22984e-13
-4.1412e-13
9.67631e-14
3.01713e-13
-3.62421e-13
7.40913e-14
2.44934e-13
-3.21004e-13
5.58534e-14
2.17096e-13
-2.85668e-13
4.10378e-14
2.1662e-13
-2.55027e-13
2.90432e-14
1.34682e-13
-2.31268e-13
1.92692e-14
1.25718e-13
-2.86131e-13
1.14608e-14
1.12121e-13
4.74099e-15
9.71681e-14
-1.66056e-14
-5.85364e-13
2.008e-13
7.88523e-13
-9.42521e-13
1.57161e-13
5.76905e-13
-5.71958e-13
1.17597e-13
5.14492e-13
-4.87593e-13
8.73069e-14
4.30499e-13
-4.20964e-13
6.39915e-14
3.75556e-13
-3.65139e-13
4.59432e-14
3.35772e-13
-3.19083e-13
3.18348e-14
2.80976e-13
-2.82263e-13
2.0753e-14
1.54794e-13
-3.46703e-13
1.21535e-14
1.57727e-13
5.0423e-15
1.20297e-13
-1.98966e-14
-1.13075e-12
3.15925e-13
1.42382e-12
-1.32362e-12
1.97495e-13
1.12423e-12
-7.79791e-13
1.45382e-13
9.71314e-13
-6.45297e-13
1.04748e-13
7.58292e-13
-5.41311e-13
7.51818e-14
6.11765e-13
-4.57721e-13
5.41953e-14
5.06869e-13
-3.9057e-13
3.8807e-14
4.15215e-13
-3.37762e-13
2.50331e-14
2.06774e-13
-4.10568e-13
1.43404e-14
1.9053e-13
6.18988e-15
1.51581e-13
-2.33296e-14
-1.97464e-12
5.51671e-12
4.23071e-12
-1.8409e-12
3.10841e-13
2.17692e-12
-1.05589e-12
2.59208e-13
1.69731e-12
-8.45128e-13
1.72991e-13
1.25387e-12
-6.87679e-13
1.1352e-13
9.54655e-13
-5.65795e-13
7.11701e-14
7.47152e-13
-4.70522e-13
3.40151e-14
5.88528e-13
-3.98045e-13
1.89432e-14
3.85334e-13
-4.78116e-13
1.00441e-14
2.46692e-13
4.68415e-15
1.90524e-13
-2.6878e-14
-8.34625e-11
2.94812e-09
3.21015e-08
-2.27617e-12
1.44035e-11
1.26206e-11
-1.40183e-12
2.83602e-12
1.15735e-13
-1.09953e-12
1.98401e-12
8.3922e-14
-8.6533e-13
1.44019e-12
6.44195e-14