/*--------------------------------*- C++ -*----------------------------------*\
| =========                 |                                                 |
| \\      /  F ield         | OpenFOAM: The Open Source CFD Toolbox           |
|  \\    /   O peration     | Version:  4.1                                   |
|   \\  /    A nd           | Web:      www.OpenFOAM.org                      |
|    \\/     M anipulation  |                                                 |
\*---------------------------------------------------------------------------*/
FoamFile
{
    version     2.0;
    format      ascii;
    class       volVectorField;
    location    "0.16";
    object      U;
}
// * * * * * * * * * * * * * * * * * * * * * * * * * * * * * * * * * * * * * //

dimensions      [0 1 -1 0 0 0 0];

internalField   nonuniform List<vector> 
18000
(
(7.56291e-14 3.93425e-13 -6.57135e-12)
(8.24818e-14 3.91445e-13 -6.4944e-12)
(7.47905e-14 -1.00019e-14 -6.41842e-12)
(6.72769e-14 -1.07614e-14 -6.34352e-12)
(5.99533e-14 -1.06216e-14 -6.26965e-12)
(5.28138e-14 -1.04652e-14 -6.19677e-12)
(4.58589e-14 -1.03953e-14 -6.12494e-12)
(3.91014e-14 -1.03031e-14 -6.0541e-12)
(3.25135e-14 -1.01929e-14 -5.98426e-12)
(2.60962e-14 -8.47571e-15 -5.91603e-12)
(9.76465e-14 4.08562e-13 -8.29066e-12)
(1.15876e-13 3.99627e-13 -7.98692e-12)
(1.02361e-13 -3.87655e-14 -7.69599e-12)
(8.96104e-14 -3.83888e-14 -7.41803e-12)
(7.76668e-14 -3.7123e-14 -7.15244e-12)
(6.64628e-14 -3.58818e-14 -6.89833e-12)
(5.59253e-14 -3.47086e-14 -6.65527e-12)
(4.60582e-14 -3.35779e-14 -6.42255e-12)
(3.67721e-14 -3.25148e-14 -6.19964e-12)
(2.80797e-14 -2.63935e-14 -5.98813e-12)
(9.79342e-14 4.18183e-13 -1.05984e-11)
(1.15365e-13 4.00947e-13 -9.92518e-12)
(9.61564e-14 -7.89214e-14 -9.302e-12)
(7.88621e-14 -7.53456e-14 -8.72637e-12)
(6.33453e-14 -7.09905e-14 -8.19383e-12)
(4.9386e-14 -6.70323e-14 -7.70055e-12)
(3.68285e-14 -6.33826e-14 -7.24348e-12)
(2.55268e-14 -5.99654e-14 -6.81926e-12)
(1.53567e-14 -5.67633e-14 -6.42528e-12)
(6.22522e-15 -4.49735e-14 -6.06138e-12)
(1.28995e-13 4.17635e-13 -1.3746e-11)
(1.43603e-13 3.90956e-13 -1.24733e-11)
(1.1619e-13 -1.34798e-13 -1.13399e-11)
(9.262e-14 -1.24424e-13 -1.03296e-11)
(7.2389e-14 -1.14206e-13 -9.42779e-12)
(5.49712e-14 -1.05072e-13 -8.62077e-12)
(4.00044e-14 -9.68577e-14 -7.89699e-12)
(2.70798e-14 -8.94353e-14 -7.24657e-12)
(1.59396e-14 -8.2688e-14 -6.66081e-12)
(6.33534e-15 -6.41999e-14 -6.13583e-12)
(1.73335e-13 3.98364e-13 -1.8117e-11)
(1.81423e-13 3.6214e-13 -1.58703e-11)
(1.41928e-13 -2.1293e-13 -1.39523e-11)
(1.09626e-13 -1.90075e-13 -1.23095e-11)
(8.31736e-14 -1.69335e-13 -1.08978e-11)
(6.14573e-14 -1.51439e-13 -9.67969e-12)
(4.35522e-14 -1.35953e-13 -8.6245e-12)
(2.87735e-14 -1.22502e-13 -7.70733e-12)
(1.65474e-14 -1.1063e-13 -6.90712e-12)
(6.44357e-15 -8.40719e-14 -6.21165e-12)
(2.3822e-13 3.45884e-13 -2.43083e-11)
(2.3309e-13 3.0183e-13 -2.0469e-11)
(1.75521e-13 -3.23252e-13 -1.73403e-11)
(1.30859e-13 -2.78081e-13 -1.47746e-11)
(9.61288e-14 -2.39827e-13 -1.26589e-11)
(6.89268e-14 -2.08172e-13 -1.09026e-11)
(4.75096e-14 -1.81763e-13 -9.43608e-12)
(3.05894e-14 -1.59502e-13 -8.20456e-12)
(1.71884e-14 -1.40586e-13 -7.16475e-12)
(6.54978e-15 -1.04649e-13 -6.28843e-12)
(3.35946e-13 2.34297e-13 -3.32751e-11)
(3.05227e-13 1.89093e-13 -2.68008e-11)
(2.2004e-13 -4.80714e-13 -2.17878e-11)
(1.57704e-13 -3.97255e-13 -1.78712e-11)
(1.11783e-13 -3.305e-13 -1.47813e-11)
(7.75847e-14 -2.77679e-13 -1.23204e-11)
(5.19207e-14 -2.35339e-13 -1.03433e-11)
(3.25467e-14 -2.01019e-13 -8.74175e-12)
(1.78483e-14 -1.72847e-13 -7.43445e-12)
(6.6472e-15 -1.25938e-13 -6.36648e-12)
(3.26911e-13 1.69723e-14 -4.65923e-11)
(2.53919e-13 -1.26939e-14 -3.56805e-11)
(1.35112e-13 -7.08575e-13 -2.77058e-11)
(5.58461e-14 -5.59776e-13 -2.17968e-11)
(2.35279e-15 -4.47727e-13 -1.73551e-11)
(-3.39448e-14 -3.63182e-13 -1.39707e-11)
(-5.85865e-14 -2.98215e-13 -1.13599e-11)
(-7.52178e-14 -2.47518e-13 -9.32294e-12)
(-8.62991e-14 -2.07462e-13 -7.71659e-12)
(-9.42987e-14 -1.4798e-13 -6.44597e-12)
(-1.36519e-09 -4.05863e-13 -6.88439e-11)
(-1.30156e-09 -3.49974e-13 -5.00421e-11)
(-1.21563e-09 -1.01725e-12 -3.71323e-11)
(-1.14003e-09 -7.60016e-13 -2.80841e-11)
(-1.07312e-09 -5.7918e-13 -2.16115e-11)
(-1.01351e-09 -4.49733e-13 -1.6892e-11)
(-9.60088e-10 -3.5505e-13 -1.33913e-11)
(-9.11955e-10 -2.84491e-13 -1.07541e-11)
(-8.68373e-10 -2.33072e-13 -8.73862e-12)
(-8.32377e-10 -1.7196e-13 -7.19334e-12)
(1.53967e-07 -1.26072e-10 -1.67397e-08)
(2.31509e-08 1.57394e-10 -1.431e-08)
(1.95419e-08 2.16461e-10 -1.23503e-08)
(1.66947e-08 1.9078e-10 -1.07642e-08)
(1.43489e-08 1.69088e-10 -9.46311e-09)
(1.23927e-08 1.50783e-10 -8.38303e-09)
(1.07438e-08 1.35219e-10 -7.47686e-09)
(9.3406e-09 1.21885e-10 -6.70934e-09)
(8.1158e-09 1.00747e-10 -6.05371e-09)
(-1.76821e-08 -8.59268e-12 -5.51387e-09)
(2.7143e-13 3.69666e-13 -6.66468e-12)
(2.53701e-13 3.44378e-13 -6.58609e-12)
(2.22401e-13 -5.65655e-14 -6.50828e-12)
(1.92308e-13 -5.67881e-14 -6.43147e-12)
(1.63405e-13 -5.61452e-14 -6.35592e-12)
(1.35611e-13 -5.54736e-14 -6.28152e-12)
(1.08893e-13 -5.48802e-14 -6.2079e-12)
(8.32103e-14 -5.42767e-14 -6.13564e-12)
(5.84918e-14 -5.34063e-14 -6.06433e-12)
(3.4925e-14 -3.0871e-14 -5.99454e-12)
(5.48548e-13 3.18662e-13 -8.42112e-12)
(5.03667e-13 2.24151e-13 -8.11055e-12)
(4.31277e-13 -2.07997e-13 -7.81272e-12)
(3.63831e-13 -2.0132e-13 -7.52841e-12)
(3.01031e-13 -1.94103e-13 -7.257e-12)
(2.42509e-13 -1.872e-13 -6.99727e-12)
(1.87971e-13 -1.80617e-13 -6.7491e-12)
(1.37141e-13 -1.74375e-13 -6.51159e-12)
(8.97333e-14 -1.67598e-13 -6.2843e-12)
(4.58121e-14 -9.5199e-14 -6.06837e-12)
(6.77913e-13 2.27766e-13 -1.07846e-11)
(5.99811e-13 3.53653e-14 -1.00944e-11)
(4.95615e-13 -4.21723e-13 -9.45597e-12)
(4.02742e-13 -3.96471e-13 -8.86634e-12)
(3.20089e-13 -3.72206e-13 -8.32147e-12)
(2.4647e-13 -3.4973e-13 -7.81716e-12)
(1.80862e-13 -3.28912e-13 -7.35014e-12)
(1.22413e-13 -3.09619e-13 -6.91692e-12)
(7.03414e-14 -2.90687e-13 -6.5148e-12)
(2.42063e-14 -1.62557e-13 -6.14371e-12)
(8.85595e-13 7.4328e-14 -1.40172e-11)
(7.55405e-13 -2.55828e-13 -1.27093e-11)
(6.05213e-13 -7.22798e-13 -1.15455e-11)
(4.77373e-13 -6.59239e-13 -1.05091e-11)
(3.6869e-13 -6.01351e-13 -9.585e-12)
(2.76166e-13 -5.49705e-13 -8.75892e-12)
(1.97347e-13 -5.03393e-13 -8.01877e-12)
(1.30195e-13 -4.61779e-13 -7.35431e-12)
(7.29549e-14 -4.22883e-13 -6.75599e-12)
(2.45965e-14 -2.32615e-13 -6.22041e-12)
(1.17591e-12 -1.78055e-13 -1.85214e-11)
(9.63567e-13 -7.01921e-13 -1.62054e-11)
(7.4608e-13 -1.14776e-12 -1.42313e-11)
(5.69743e-13 -1.01326e-12 -1.25421e-11)
(4.26699e-13 -8.96322e-13 -1.10932e-11)
(3.10399e-13 -7.95648e-13 -9.84453e-12)
(2.15726e-13 -7.08528e-13 -8.76423e-12)
(1.38595e-13 -6.32944e-13 -7.82621e-12)
(7.57384e-14 -5.65059e-13 -7.00866e-12)
(2.49464e-14 -3.05651e-13 -6.29881e-12)
(1.59011e-12 -5.8837e-13 -2.49275e-11)
(1.2465e-12 -1.38468e-12 -2.09534e-11)
(9.29272e-13 -1.75064e-12 -1.7724e-11)
(6.85015e-13 -1.49157e-12 -1.50794e-11)
(4.96321e-13 -1.27646e-12 -1.29035e-11)
(3.49986e-13 -1.0984e-12 -1.11004e-11)
(2.36235e-13 -9.49903e-13 -9.5972e-12)
(1.47648e-13 -8.25414e-13 -8.33667e-12)
(7.86701e-14 -7.17993e-13 -7.27352e-12)
(2.52734e-14 -3.81794e-13 -6.37875e-12)
(2.19502e-12 -1.25537e-12 -3.4249e-11)
(1.6376e-12 -2.4352e-12 -2.75174e-11)
(1.17048e-12 -2.61202e-12 -2.23237e-11)
(8.30096e-13 -2.14057e-12 -1.82748e-11)
(5.80338e-13 -1.76769e-12 -1.50899e-11)
(3.95942e-13 -1.47149e-12 -1.2559e-11)
(2.59181e-13 -1.23396e-12 -1.05297e-11)
(1.57467e-13 -1.04191e-12 -8.88895e-12)
(8.17037e-14 -8.8258e-13 -7.55109e-12)
(2.56633e-14 -4.61249e-13 -6.46039e-12)
(3.11111e-12 -2.34923e-12 -4.81746e-11)
(2.19277e-12 -4.06786e-12 -3.6765e-11)
(1.4955e-12 -3.85411e-12 -2.84667e-11)
(1.01651e-12 -3.02642e-12 -2.2338e-11)
(6.83735e-13 -2.40436e-12 -1.77479e-11)
(4.50254e-13 -1.93202e-12 -1.42602e-11)
(2.85204e-13 -1.56853e-12 -1.15767e-11)
(1.67965e-13 -1.28561e-12 -9.48714e-12)
(8.4405e-14 -1.05965e-12 -7.84223e-12)
(2.53004e-14 -5.43958e-13 -6.54376e-12)
(6.19144e-12 -4.21414e-12 -7.14467e-11)
(-2.15636e-11 -6.68522e-12 -5.16866e-11)
(-1.78608e-11 -5.69505e-12 -3.82051e-11)
(-1.48966e-11 -4.26958e-12 -2.88005e-11)
(-1.25402e-11 -3.2553e-12 -2.21043e-11)
(-1.06471e-11 -2.52127e-12 -1.72394e-11)
(-9.11131e-12 -1.98039e-12 -1.3642e-11)
(-7.85403e-12 -1.57565e-12 -1.09391e-11)
(-6.81602e-12 -1.26445e-12 -8.87758e-12)
(-5.91257e-12 -6.42523e-13 -7.30046e-12)
(8.35048e-08 -4.0918e-10 -1.71119e-08)
(-2.42504e-09 -3.4645e-10 -1.45847e-08)
(-2.25352e-09 -2.27216e-10 -1.2554e-08)
(-2.04455e-09 -1.98394e-10 -1.09184e-08)
(-1.86177e-09 -1.74838e-10 -9.58199e-09)
(-1.70322e-09 -1.55233e-10 -8.47615e-09)
(-1.56584e-09 -1.38739e-10 -7.55082e-09)
(-1.4467e-09 -1.24731e-10 -6.76885e-09)
(-1.34408e-09 -1.12626e-10 -6.10214e-09)
(-1.39262e-09 -1.04352e-10 -5.55342e-09)
(2.28045e-13 3.75677e-13 -9.72693e-14)
(2.1525e-13 3.49689e-13 -9.51772e-14)
(1.88758e-13 -5.14411e-14 -9.25562e-14)
(1.63434e-13 -5.16894e-14 -9.01582e-14)
(1.39214e-13 -5.09755e-14 -8.80036e-14)
(1.15977e-13 -5.04185e-14 -8.59425e-14)
(9.38065e-14 -4.98633e-14 -8.39141e-14)
(7.25438e-14 -4.92098e-14 -8.22936e-14)
(5.21918e-14 -4.84655e-14 -8.05759e-14)
(3.28838e-14 -2.5407e-14 -7.90622e-14)
(4.99291e-13 3.41311e-13 -1.36173e-13)
(4.60987e-13 2.43663e-13 -1.28649e-13)
(3.94834e-13 -1.89246e-13 -1.20857e-13)
(3.33254e-13 -1.83059e-13 -1.13678e-13)
(2.75995e-13 -1.76423e-13 -1.07176e-13)
(2.22689e-13 -1.70078e-13 -1.01136e-13)
(1.73106e-13 -1.63963e-13 -9.55068e-14)
(1.26886e-13 -1.58181e-13 -9.02983e-14)
(8.38242e-14 -1.51983e-13 -8.58105e-14)
(4.40321e-14 -7.87935e-14 -8.12188e-14)
(6.16761e-13 2.75443e-13 -1.95597e-13)
(5.48138e-13 7.5022e-14 -1.77445e-13)
(4.52578e-13 -3.84381e-13 -1.60592e-13)
(3.67497e-13 -3.61191e-13 -1.45586e-13)
(2.9191e-13 -3.38724e-13 -1.32263e-13)
(2.24719e-13 -3.18028e-13 -1.2024e-13)
(1.64916e-13 -2.98915e-13 -1.09781e-13)
(1.11721e-13 -2.81222e-13 -1.00274e-13)
(6.43159e-14 -2.63709e-13 -9.16598e-14)
(2.24784e-14 -1.34753e-13 -8.44003e-14)
(8.09055e-13 1.60054e-13 -2.86939e-13)
(6.92486e-13 -1.87783e-13 -2.49774e-13)
(5.54165e-13 -6.60383e-13 -2.17025e-13)
(4.36616e-13 -6.01743e-13 -1.88688e-13)
(3.36943e-13 -5.48223e-13 -1.64852e-13)
(2.52247e-13 -5.00592e-13 -1.44522e-13)
(1.80239e-13 -4.5792e-13 -1.27175e-13)
(1.18989e-13 -4.19802e-13 -1.12256e-13)
(6.68652e-14 -3.84011e-13 -9.92355e-14)
(2.29123e-14 -1.93398e-13 -8.81886e-14)
(1.07955e-12 -3.46827e-14 -4.318e-13)
(8.86377e-13 -5.94102e-13 -3.5851e-13)
(6.85234e-13 -1.05164e-12 -2.97842e-13)
(5.22441e-13 -9.27144e-13 -2.48157e-13)
(3.90819e-13 -8.18749e-13 -2.08022e-13)
(2.84077e-13 -7.25793e-13 -1.75303e-13)
(1.97387e-13 -6.45518e-13 -1.48529e-13)
(1.26893e-13 -5.76017e-13 -1.26518e-13)
(6.95761e-14 -5.1347e-13 -1.08155e-13)
(2.33684e-14 -2.54713e-13 -9.29351e-14)
(1.46793e-12 -3.57504e-13 -6.67548e-13)
(1.15141e-12 -1.22191e-12 -5.24449e-13)
(8.56374e-13 -1.60923e-12 -4.15141e-13)
(6.29904e-13 -1.3686e-12 -3.30057e-13)
(4.55656e-13 -1.16865e-12 -2.64985e-13)
(3.20955e-13 -1.00378e-12 -2.14412e-13)
(2.16546e-13 -8.66649e-13 -1.74892e-13)
(1.35481e-13 -7.52064e-13 -1.43798e-13)
(7.24115e-14 -6.53072e-13 -1.18594e-13)
(2.38187e-14 -3.19063e-13 -9.88845e-14)
(2.03959e-12 -8.88878e-13 -1.0591e-12)
(1.52004e-12 -2.19635e-12 -7.84397e-13)
(1.08286e-12 -2.41078e-12 -5.87619e-13)
(7.65761e-13 -1.97042e-12 -4.43992e-13)
(5.34216e-13 -1.62254e-12 -3.40348e-13)
(3.63918e-13 -1.34755e-12 -2.63883e-13)
(2.38068e-13 -1.12763e-12 -2.0699e-13)
(1.44717e-13 -9.50588e-13 -1.64069e-13)
(7.53724e-14 -8.03594e-13 -1.30736e-13)
(2.42873e-14 -3.86477e-13 -1.05794e-13)
(2.90844e-12 -1.77128e-12 -1.73488e-12)
(2.04322e-12 -3.72585e-12 -1.19926e-12)
(1.38711e-12 -3.57375e-12 -8.45519e-13)
(9.39234e-13 -2.79607e-12 -6.04398e-13)
(6.30008e-13 -2.21348e-12 -4.41026e-13)
(4.14159e-13 -1.77342e-12 -3.26979e-13)
(2.62269e-13 -1.43615e-12 -2.46233e-13)
(1.54797e-13 -1.17468e-12 -1.87884e-13)
(7.85118e-14 -9.65872e-13 -1.45046e-13)
(2.4754e-14 -4.57138e-13 -1.13504e-13)
(3.61228e-11 -3.26322e-12 -2.879e-12)
(2.63702e-12 -6.17115e-12 -1.83816e-12)
(1.6464e-12 -5.28257e-12 -1.20887e-12)
(1.05411e-12 -3.93788e-12 -8.14155e-13)
(6.68779e-13 -2.98628e-12 -5.64577e-13)
(4.14433e-13 -2.30233e-12 -4.01236e-13)
(2.44483e-13 -1.80095e-12 -2.91905e-13)
(1.30817e-13 -1.42769e-12 -2.17048e-13)
(5.44044e-14 -1.14133e-12 -1.64512e-13)
(3.79207e-15 -5.31513e-13 -1.27868e-13)
(7.54815e-08 -1.08737e-10 -3.89237e-10)
(2.91481e-11 -1.03855e-10 -2.77371e-10)
(-2.7005e-11 -1.54446e-11 -2.05402e-10)
(-2.15049e-11 -1.12069e-11 -1.55311e-10)
(-1.73294e-11 -8.40034e-12 -1.19615e-10)
(-1.41329e-11 -6.41966e-12 -9.3619e-11)
(-1.16576e-11 -4.98821e-12 -7.43267e-11)
(-9.72012e-12 -3.93339e-12 -5.97672e-11)
(-8.19589e-12 -3.13879e-12 -4.86132e-11)
(-7.41533e-12 -2.09943e-12 -3.96915e-11)
(2.27036e-13 3.75672e-13 -8.58545e-15)
(2.14357e-13 3.49372e-13 -7.76201e-15)
(1.87986e-13 -5.17738e-14 -5.95308e-15)
(1.62753e-13 -5.18948e-14 -4.73746e-15)
(1.38634e-13 -5.12022e-14 -3.47234e-15)
(1.1555e-13 -5.05632e-14 -2.50606e-15)
(9.34745e-14 -4.98736e-14 -1.77603e-15)
(7.23075e-14 -4.92262e-14 -1.09633e-15)
(5.21064e-14 -4.83896e-14 -7.10276e-16)
(3.28899e-14 -2.53068e-14 -6.60857e-16)
(4.98258e-13 3.41764e-13 -1.2746e-14)
(4.60131e-13 2.43768e-13 -1.12535e-14)
(3.94117e-13 -1.89229e-13 -9.07889e-15)
(3.32686e-13 -1.83e-13 -7.17712e-15)
(2.75557e-13 -1.76241e-13 -5.46035e-15)
(2.22379e-13 -1.69857e-13 -4.35862e-15)
(1.72931e-13 -1.6377e-13 -3.32272e-15)
(1.26827e-13 -1.57862e-13 -2.56997e-15)
(8.388e-14 -1.5159e-13 -2.089e-15)
(4.42049e-14 -7.83618e-14 -1.76344e-15)
(6.15568e-13 2.76716e-13 -2.07054e-14)
(5.47267e-13 7.56256e-14 -1.82604e-14)
(4.5191e-13 -3.83868e-13 -1.48274e-14)
(3.66998e-13 -3.60596e-13 -1.1995e-14)
(2.91594e-13 -3.38244e-13 -9.83222e-15)
(2.24549e-13 -3.17477e-13 -7.97619e-15)
(1.64905e-13 -2.98276e-13 -6.53485e-15)
(1.11843e-13 -2.80657e-13 -5.57274e-15)
(6.45521e-14 -2.63053e-13 -4.61401e-15)
(2.28178e-14 -1.33975e-13 -4.40619e-15)
(8.07705e-13 1.62753e-13 -3.51439e-14)
(6.91627e-13 -1.8625e-13 -3.08112e-14)
(5.53601e-13 -6.59321e-13 -2.53877e-14)
(4.36293e-13 -6.00746e-13 -2.06492e-14)
(3.36811e-13 -5.47207e-13 -1.70472e-14)
(2.52319e-13 -4.99616e-13 -1.42787e-14)
(1.80441e-13 -4.5702e-13 -1.19396e-14)
(1.19338e-13 -4.18895e-13 -1.01353e-14)
(6.73261e-14 -3.83112e-13 -8.89566e-15)
(2.34157e-14 -1.92502e-13 -7.97306e-15)
(1.0781e-12 -2.97057e-14 -6.16194e-14)
(8.85666e-13 -5.9149e-13 -5.28407e-14)
(6.84878e-13 -1.04974e-12 -4.26835e-14)
(5.22435e-13 -9.25499e-13 -3.49165e-14)
(3.91035e-13 -8.17352e-13 -2.86762e-14)
(2.84456e-13 -7.24489e-13 -2.37068e-14)
(1.97892e-13 -6.44285e-13 -2.00514e-14)
(1.27519e-13 -5.74914e-13 -1.72542e-14)
(7.02218e-14 -5.12543e-13 -1.49736e-14)
(2.40631e-14 -2.53687e-13 -1.32657e-14)
(1.46635e-12 -3.48558e-13 -1.08268e-13)
(1.151e-12 -1.21775e-12 -9.00101e-14)
(8.56469e-13 -1.60651e-12 -7.14444e-14)
(6.30355e-13 -1.36638e-12 -5.7374e-14)
(4.56333e-13 -1.16689e-12 -4.64966e-14)
(3.21759e-13 -1.00232e-12 -3.81482e-14)
(2.17433e-13 -8.65368e-13 -3.16753e-14)
(1.36365e-13 -7.51031e-13 -2.66996e-14)
(7.33006e-14 -6.52217e-13 -2.27092e-14)
(2.46868e-14 -3.18024e-13 -1.97145e-14)
(2.03802e-12 -8.73102e-13 -1.91238e-13)
(1.52017e-12 -2.19008e-12 -1.53054e-13)
(1.08369e-12 -2.40713e-12 -1.17654e-13)
(7.66903e-13 -1.96784e-12 -9.2123e-14)
(5.35515e-13 -1.62075e-12 -7.28254e-14)
(3.65263e-13 -1.34619e-12 -5.84281e-14)
(2.39374e-13 -1.12662e-12 -4.75054e-14)
(1.4595e-13 -9.49867e-13 -3.9216e-14)
(7.65572e-14 -8.03059e-13 -3.2828e-14)
(2.53114e-14 -3.85599e-13 -2.77352e-14)
(2.907e-12 -1.74331e-12 -3.4103e-13)
(2.04425e-12 -3.7169e-12 -2.58807e-13)
(1.38901e-12 -3.5695e-12 -1.91919e-13)
(9.4141e-13 -2.79373e-12 -1.44555e-13)
(6.32191e-13 -2.21211e-12 -1.1096e-13)
(4.16212e-13 -1.77274e-12 -8.65617e-14)
(2.64112e-13 -1.43583e-12 -6.84953e-14)
(1.56434e-13 -1.17455e-12 -5.52291e-14)
(7.99586e-14 -9.66067e-13 -4.5154e-14)
(2.60392e-14 -4.56657e-13 -3.72092e-14)
(3.74922e-11 -3.21447e-12 -6.13563e-13)
(2.8569e-12 -6.16057e-12 -4.37404e-13)
(1.79789e-12 -5.27903e-12 -3.09379e-13)
(1.16065e-12 -3.93711e-12 -2.23789e-13)
(7.4578e-13 -2.98672e-12 -1.65474e-13)
(4.71535e-13 -2.3033e-12 -1.24998e-13)
(2.88056e-13 -1.80211e-12 -9.60624e-14)
(1.64293e-13 -1.4288e-12 -7.51738e-14)
(8.03292e-14 -1.14227e-12 -5.98628e-14)
(2.37955e-14 -5.31297e-13 -4.84443e-14)
(8.04548e-08 -9.78201e-11 -1.73839e-11)
(6.8859e-11 -9.66999e-11 -3.19343e-12)
(1.53437e-12 -8.06846e-12 -2.02565e-12)
(9.77623e-13 -5.58482e-12 -1.32852e-12)
(6.45229e-13 -4.04035e-12 -9.01299e-13)
(4.27317e-13 -2.98796e-12 -6.30502e-13)
(2.82131e-13 -2.25275e-12 -4.5531e-13)
(1.83923e-13 -1.72792e-12 -3.33578e-13)
(1.16699e-13 -1.34123e-12 -2.48032e-13)
(6.97077e-14 -6.16337e-13 -1.85053e-13)
(2.27479e-13 3.75513e-13 -1.08449e-14)
(2.14716e-13 3.48822e-13 -9.69286e-15)
(1.88284e-13 -5.24622e-14 -7.44757e-15)
(1.62977e-13 -5.24997e-14 -5.57582e-15)
(1.38817e-13 -5.16894e-14 -4.06859e-15)
(1.15687e-13 -5.09244e-14 -2.79849e-15)
(9.36007e-14 -5.02583e-14 -1.87942e-15)
(7.24545e-14 -4.94705e-14 -1.00425e-15)
(5.2216e-14 -4.8478e-14 -4.83722e-16)
(3.2991e-14 -2.54058e-14 -2.38202e-16)
(4.99305e-13 3.41403e-13 -1.60931e-14)
(4.61029e-13 2.42947e-13 -1.41464e-14)
(3.9487e-13 -1.90143e-13 -1.10749e-14)
(3.33274e-13 -1.8382e-13 -8.72002e-15)
(2.76079e-13 -1.76905e-13 -6.39946e-15)
(2.22833e-13 -1.70333e-13 -4.89145e-15)
(1.7332e-13 -1.64109e-13 -3.63845e-15)
(1.27224e-13 -1.58142e-13 -2.89324e-15)
(8.42236e-14 -1.51801e-13 -2.12231e-15)
(4.45448e-14 -7.84248e-14 -1.69976e-15)
(6.17374e-13 2.76079e-13 -2.60105e-14)
(5.48849e-13 7.43892e-14 -2.28634e-14)
(4.53241e-13 -3.85284e-13 -1.85362e-14)
(3.68108e-13 -3.61753e-13 -1.46615e-14)
(2.9256e-13 -3.39045e-13 -1.17987e-14)
(2.25398e-13 -3.18188e-13 -9.63606e-15)
(1.65637e-13 -2.9883e-13 -7.78644e-15)
(1.1249e-13 -2.81043e-13 -6.53364e-15)
(6.51462e-14 -2.63319e-13 -5.73052e-15)
(2.33668e-14 -1.34154e-13 -5.08756e-15)
(8.10853e-13 1.61521e-13 -4.45266e-14)
(6.94334e-13 -1.88334e-13 -3.88415e-14)
(5.55807e-13 -6.61444e-13 -3.16707e-14)
(4.38155e-13 -6.02522e-13 -2.59285e-14)
(3.38379e-13 -5.48599e-13 -2.13347e-14)
(2.53619e-13 -5.00764e-13 -1.76504e-14)
(1.81602e-13 -4.57966e-13 -1.5034e-14)
(1.20335e-13 -4.19625e-13 -1.2863e-14)
(6.82191e-14 -3.83666e-13 -1.11985e-14)
(2.42048e-14 -1.92711e-13 -1.01442e-14)
(1.08339e-12 -3.21604e-14 -7.77105e-14)
(8.90076e-13 -5.95374e-13 -6.68247e-14)
(6.88425e-13 -1.05349e-12 -5.41476e-14)
(5.25311e-13 -9.28487e-13 -4.41708e-14)
(3.93404e-13 -8.19789e-13 -3.65498e-14)
(2.8642e-13 -7.2645e-13 -3.038e-14)
(1.99556e-13 -6.45825e-13 -2.56559e-14)
(1.28917e-13 -5.76172e-13 -2.19145e-14)
(7.14355e-14 -5.13514e-13 -1.9115e-14)
(2.50991e-14 -2.54254e-13 -1.68724e-14)
(1.4752e-12 -3.53624e-13 -1.37032e-13)
(1.15812e-12 -1.22498e-12 -1.14089e-13)
(8.61998e-13 -1.61305e-12 -9.10063e-14)
(6.34719e-13 -1.37162e-12 -7.31106e-14)
(4.59798e-13 -1.17104e-12 -5.94364e-14)
(3.24578e-13 -1.00567e-12 -4.9057e-14)
(2.19699e-13 -8.68112e-13 -4.07052e-14)
(1.38243e-13 -7.53235e-13 -3.43466e-14)
(7.48586e-14 -6.53996e-13 -2.9395e-14)
(2.59637e-14 -3.19039e-13 -2.54358e-14)
(2.0529e-12 -8.8329e-13 -2.42019e-13)
(1.53157e-12 -2.20388e-12 -1.94246e-13)
(1.09219e-12 -2.41897e-12 -1.50511e-13)
(7.73348e-13 -1.97698e-12 -1.17759e-13)
(5.40475e-13 -1.62793e-12 -9.37541e-14)
(3.69113e-13 -1.35191e-12 -7.54548e-14)
(2.42398e-13 -1.13116e-12 -6.14051e-14)
(1.48372e-13 -9.53458e-13 -5.07927e-14)
(7.84841e-14 -8.0603e-13 -4.25895e-14)
(2.68906e-14 -3.87347e-13 -3.60965e-14)
(2.93202e-12 -1.764e-12 -4.30037e-13)
(2.06242e-12 -3.74326e-12 -3.28918e-13)
(1.40198e-12 -3.5906e-12 -2.44902e-13)
(9.50814e-13 -2.8096e-12 -1.85829e-13)
(6.39124e-13 -2.22424e-12 -1.4329e-13)
(4.21405e-13 -1.78213e-12 -1.12182e-13)
(2.68057e-13 -1.44317e-12 -8.92121e-14)
(1.59451e-13 -1.18035e-12 -7.19331e-14)
(8.22812e-14 -9.70657e-13 -5.87523e-14)
(2.78435e-14 -4.59369e-13 -4.89525e-14)
(3.75007e-11 -3.25588e-12 -7.71266e-13)
(2.88894e-12 -6.21041e-12 -5.56776e-13)
(1.81859e-12 -5.31668e-12 -3.95976e-13)
(1.17489e-12 -3.96436e-12 -2.88129e-13)
(7.558e-13 -3.00677e-12 -2.14342e-13)
(4.78711e-13 -2.31835e-12 -1.62613e-13)
(2.93296e-13 -1.81358e-12 -1.2533e-13)
(1.68159e-13 -1.43767e-12 -9.84535e-14)
(8.32253e-14 -1.14927e-12 -7.83967e-14)
(2.5957e-14 -5.35288e-13 -6.34398e-14)
(8.14673e-08 -9.69462e-11 -1.97988e-12)
(7.04473e-11 -9.6566e-11 -9.74707e-13)
(1.79403e-12 -8.05439e-12 -6.46307e-13)
(1.155e-12 -5.57643e-12 -4.47429e-13)
(7.68009e-13 -4.03645e-12 -3.18419e-13)
(5.14499e-13 -2.98629e-12 -2.32349e-13)
(3.45256e-13 -2.25211e-12 -1.7352e-13)
(2.30464e-13 -1.72799e-12 -1.32063e-13)
(1.51582e-13 -1.34172e-12 -1.02278e-13)
(9.71855e-14 -6.15064e-13 -8.07719e-14)
(2.28027e-13 3.75187e-13 -1.36592e-14)
(2.15177e-13 3.48019e-13 -1.18855e-14)
(1.88641e-13 -5.3404e-14 -9.34862e-15)
(1.63289e-13 -5.32353e-14 -6.92513e-15)
(1.39024e-13 -5.23046e-14 -5.04956e-15)
(1.15882e-13 -5.14324e-14 -3.30686e-15)
(9.37456e-14 -5.05868e-14 -2.09481e-15)
(7.25954e-14 -4.97821e-14 -1.27926e-15)
(5.23559e-14 -4.86942e-14 -6.60067e-16)
(3.31137e-14 -2.54064e-14 -3.33483e-16)
(5.0063e-13 3.40885e-13 -2.01101e-14)
(4.62185e-13 2.41793e-13 -1.76295e-14)
(3.95825e-13 -1.91341e-13 -1.37664e-14)
(3.34081e-13 -1.8483e-13 -1.07464e-14)
(2.76738e-13 -1.77748e-13 -8.2357e-15)
(2.23414e-13 -1.70951e-13 -6.10358e-15)
(1.73824e-13 -1.64563e-13 -4.46662e-15)
(1.27664e-13 -1.58468e-13 -3.34208e-15)
(8.46786e-14 -1.5207e-13 -2.65536e-15)
(4.49485e-14 -7.8562e-14 -2.2986e-15)
(6.19741e-13 2.75183e-13 -3.24854e-14)
(5.50909e-13 7.27098e-14 -2.84273e-14)
(4.54954e-13 -3.87025e-13 -2.29074e-14)
(3.69549e-13 -3.6322e-13 -1.84779e-14)
(2.9381e-13 -3.40229e-13 -1.47372e-14)
(2.2645e-13 -3.19082e-13 -1.1879e-14)
(1.6661e-13 -2.99533e-13 -9.63769e-15)
(1.13347e-13 -2.81516e-13 -8.17965e-15)
(6.59322e-14 -2.63677e-13 -7.10689e-15)
(2.41117e-14 -1.34392e-13 -6.28088e-15)
(8.14897e-13 1.59826e-13 -5.57544e-14)
(6.97815e-13 -1.91213e-13 -4.84053e-14)
(5.58667e-13 -6.64252e-13 -3.93932e-14)
(4.40541e-13 -6.04778e-13 -3.2287e-14)
(3.40407e-13 -5.50501e-13 -2.65468e-14)
(2.55359e-13 -5.02176e-13 -2.18697e-14)
(1.83093e-13 -4.59029e-13 -1.86314e-14)
(1.21646e-13 -4.20551e-13 -1.61036e-14)
(6.93558e-14 -3.84335e-13 -1.40551e-14)
(2.522e-14 -1.93118e-13 -1.25504e-14)
(1.09025e-12 -3.54423e-14 -9.72246e-14)
(8.95785e-13 -6.00403e-13 -8.32511e-14)
(6.93022e-13 -1.05828e-12 -6.75726e-14)
(5.29032e-13 -9.32327e-13 -5.517e-14)
(3.96457e-13 -8.22865e-13 -4.55108e-14)
(2.89001e-13 -7.28983e-13 -3.80484e-14)
(2.0166e-13 -6.47879e-13 -3.18563e-14)
(1.30719e-13 -5.7779e-13 -2.73595e-14)
(7.29698e-14 -5.14849e-13 -2.37539e-14)
(2.64018e-14 -2.55053e-13 -2.09023e-14)
(1.48674e-12 -3.6039e-13 -1.71478e-13)
(1.16734e-12 -1.23456e-12 -1.42783e-13)
(8.69192e-13 -1.62159e-12 -1.1369e-13)
(6.40335e-13 -1.37841e-12 -9.13549e-14)
(4.64282e-13 -1.17641e-12 -7.42951e-14)
(3.28165e-13 -1.01001e-12 -6.11243e-14)
(2.22621e-13 -8.71626e-13 -5.08541e-14)
(1.40634e-13 -7.56038e-13 -4.28491e-14)
(7.68318e-14 -6.56324e-13 -3.66865e-14)
(2.7624e-14 -3.20391e-13 -3.17657e-14)
(2.07221e-12 -8.97008e-13 -3.03289e-13)
(1.54636e-12 -2.22193e-12 -2.42981e-13)
(1.10321e-12 -2.43431e-12 -1.88132e-13)
(7.817e-13 -1.9889e-12 -1.47293e-13)
(5.46886e-13 -1.6372e-12 -1.17144e-13)
(3.74075e-13 -1.3593e-12 -9.42635e-14)
(2.46324e-13 -1.13706e-12 -7.68506e-14)
(1.51462e-13 -9.58172e-13 -6.33415e-14)
(8.09552e-14 -8.09825e-13 -5.30909e-14)
(2.88992e-14 -3.89573e-13 -4.49712e-14)
(2.96474e-12 -1.79157e-12 -5.39298e-13)
(2.08612e-12 -3.77772e-12 -4.12226e-13)
(1.4188e-12 -3.61814e-12 -3.06938e-13)
(9.63038e-13 -2.83024e-12 -2.3269e-13)
(6.48121e-13 -2.23997e-12 -1.79224e-13)
(4.28149e-13 -1.79426e-12 -1.40413e-13)
(2.73156e-13 -1.45266e-12 -1.11599e-13)
(1.63368e-13 -1.18788e-12 -8.97532e-14)
(8.53003e-14 -9.76606e-13 -7.33577e-14)
(3.02067e-14 -4.62777e-13 -6.08885e-14)
(3.76375e-11 -3.31169e-12 -9.69901e-13)
(2.9267e-12 -6.27597e-12 -6.98992e-13)
(1.84423e-12 -5.36586e-12 -4.97068e-13)
(1.19258e-12 -3.99976e-12 -3.6165e-13)
(7.68247e-13 -3.03277e-12 -2.68756e-13)
(4.87641e-13 -2.33789e-12 -2.03564e-13)
(2.99801e-13 -1.82844e-12 -1.56886e-13)
(1.72961e-13 -1.44914e-12 -1.23117e-13)
(8.67915e-14 -1.15822e-12 -9.79379e-14)
(2.86401e-14 -5.40455e-13 -7.93665e-14)
(8.11788e-08 -9.83475e-11 -1.18203e-11)
(7.04931e-11 -9.69004e-11 -1.20046e-12)
(1.82162e-12 -8.14007e-12 -7.99845e-13)
(1.17193e-12 -5.63587e-12 -5.54785e-13)
(7.7971e-13 -4.07845e-12 -3.9534e-13)
(5.22815e-13 -3.01662e-12 -2.88716e-13)
(3.51328e-13 -2.27452e-12 -2.15488e-13)
(2.34996e-13 -1.7449e-12 -1.63882e-13)
(1.55029e-13 -1.35459e-12 -1.26855e-13)
(9.98522e-14 -6.22278e-13 -1.00161e-13)
(2.28706e-13 3.74778e-13 -1.63586e-14)
(2.15775e-13 3.47103e-13 -1.42464e-14)
(1.89085e-13 -5.44283e-14 -1.10818e-14)
(1.63643e-13 -5.42066e-14 -8.40218e-15)
(1.3935e-13 -5.31272e-14 -6.04042e-15)
(1.16135e-13 -5.2099e-14 -4.0472e-15)
(9.39699e-14 -5.10652e-14 -2.54527e-15)
(7.27706e-14 -5.00419e-14 -1.4229e-15)
(5.25215e-14 -4.88563e-14 -8.78048e-16)
(3.32936e-14 -2.55071e-14 -6.93839e-16)
(5.02261e-13 3.4028e-13 -2.41193e-14)
(4.63611e-13 2.40454e-13 -2.09485e-14)
(3.96981e-13 -1.92831e-13 -1.66349e-14)
(3.35054e-13 -1.8599e-13 -1.28755e-14)
(2.77572e-13 -1.78743e-13 -9.9854e-15)
(2.24141e-13 -1.71829e-13 -7.37e-15)
(1.7447e-13 -1.65216e-13 -5.60176e-15)
(1.28273e-13 -1.58874e-13 -4.16019e-15)
(8.52068e-14 -1.52228e-13 -3.14892e-15)
(4.54579e-14 -7.86294e-14 -3.03337e-15)
(6.22634e-13 2.74099e-13 -3.91514e-14)
(5.53405e-13 7.06431e-14 -3.40555e-14)
(4.57038e-13 -3.89125e-13 -2.73554e-14)
(3.71315e-13 -3.64955e-13 -2.21098e-14)
(2.9529e-13 -3.41659e-13 -1.77006e-14)
(2.27759e-13 -3.20239e-13 -1.43494e-14)
(1.67765e-13 -3.0035e-13 -1.1688e-14)
(1.14419e-13 -2.82112e-13 -9.87477e-15)
(6.68822e-14 -2.64145e-13 -8.62749e-15)
(2.4939e-14 -1.34611e-13 -7.76271e-15)
(8.19883e-13 1.57754e-13 -6.68842e-14)
(7.02069e-13 -1.94655e-13 -5.78315e-14)
(5.62181e-13 -6.67622e-13 -4.71409e-14)
(4.43446e-13 -6.07548e-13 -3.85589e-14)
(3.42861e-13 -5.52758e-13 -3.17766e-14)
(2.57473e-13 -5.04017e-13 -2.66001e-14)
(1.84904e-13 -4.60406e-13 -2.22729e-14)
(1.23214e-13 -4.21615e-13 -1.92129e-14)
(7.07438e-14 -3.85262e-13 -1.68579e-14)
(2.64443e-14 -1.93623e-13 -1.50304e-14)
(1.09868e-12 -3.95574e-14 -1.17283e-13)
(9.02789e-13 -6.0661e-13 -9.95854e-14)
(6.98633e-13 -1.0641e-12 -8.07056e-14)
(5.33577e-13 -9.37061e-13 -6.58718e-14)
(4.002e-13 -8.26647e-13 -5.43813e-14)
(2.92104e-13 -7.32092e-13 -4.55402e-14)
(2.0429e-13 -6.50371e-13 -3.82673e-14)
(1.32906e-13 -5.79764e-13 -3.28885e-14)
(7.48538e-14 -5.16462e-13 -2.84459e-14)
(2.80388e-14 -2.56009e-13 -2.53493e-14)
(1.5009e-12 -3.68632e-13 -2.06851e-13)
(1.17864e-12 -1.24613e-12 -1.70836e-13)
(8.77936e-13 -1.632e-12 -1.36026e-13)
(6.47229e-13 -1.38669e-12 -1.09464e-13)
(4.69767e-13 -1.18305e-12 -8.91869e-14)
(3.32578e-13 -1.01533e-12 -7.35215e-14)
(2.26235e-13 -8.75936e-13 -6.1265e-14)
(1.43565e-13 -7.59515e-13 -5.13516e-14)
(7.92734e-14 -6.59115e-13 -4.40327e-14)
(2.96412e-14 -3.22063e-13 -3.82341e-14)
(2.09606e-12 -9.13819e-13 -3.66185e-13)
(1.56447e-12 -2.24406e-12 -2.91128e-13)
(1.11672e-12 -2.45305e-12 -2.25521e-13)
(7.91942e-13 -2.00345e-12 -1.77078e-13)
(5.54722e-13 -1.6486e-12 -1.40747e-13)
(3.80194e-13 -1.3683e-12 -1.13437e-13)
(2.51111e-13 -1.14429e-12 -9.25385e-14)
(1.55252e-13 -9.63933e-13 -7.59129e-14)
(8.3979e-14 -8.14493e-13 -6.3663e-14)
(3.13356e-14 -3.92359e-13 -5.42018e-14)
(3.0052e-12 -1.82562e-12 -6.51911e-13)
(2.11522e-12 -3.81993e-12 -4.95344e-13)
(1.43957e-12 -3.65193e-12 -3.69483e-13)
(9.78064e-13 -2.85562e-12 -2.79891e-13)
(6.59176e-13 -2.25925e-12 -2.15689e-13)
(4.36391e-13 -1.80913e-12 -1.69026e-13)
(2.79386e-13 -1.46437e-12 -1.3431e-13)
(1.68146e-13 -1.19707e-12 -1.07739e-13)
(8.89705e-14 -9.83878e-13 -8.78441e-14)
(3.30849e-14 -4.67069e-13 -7.30384e-14)
(3.84511e-11 -3.38022e-12 -1.17045e-12)
(2.97491e-12 -6.35658e-12 -8.42434e-13)
(1.87591e-12 -5.42628e-12 -5.9962e-13)
(1.21442e-12 -4.04342e-12 -4.36047e-13)
(7.83631e-13 -3.06491e-12 -3.23988e-13)
(4.98641e-13 -2.36189e-12 -2.45211e-13)
(3.07805e-13 -1.84669e-12 -1.89245e-13)
(1.78859e-13 -1.46322e-12 -1.48135e-13)
(9.11719e-14 -1.16917e-12 -1.17452e-13)
(3.19364e-14 -5.46727e-13 -9.51772e-14)
(8.48894e-08 -9.9696e-11 -5.63593e-12)
(7.42081e-11 -9.89857e-11 -1.40974e-12)
(1.84972e-12 -8.25094e-12 -9.67282e-13)
(1.19132e-12 -5.70987e-12 -6.70748e-13)
(7.93231e-13 -4.13067e-12 -4.77941e-13)
(5.32502e-13 -3.05433e-12 -3.487e-13)
(3.58438e-13 -2.30237e-12 -2.60149e-13)
(2.40314e-13 -1.76582e-12 -1.97842e-13)
(1.59086e-13 -1.37042e-12 -1.52431e-13)
(1.02996e-13 -6.31174e-13 -1.20457e-13)
(2.2948e-13 3.74313e-13 -1.88068e-14)
(2.16326e-13 3.45934e-13 -1.47549e-14)
(1.89569e-13 -5.57103e-14 -1.14872e-14)
(1.64029e-13 -5.52291e-14 -8.76059e-15)
(1.39681e-13 -5.40352e-14 -7.06468e-15)
(1.16448e-13 -5.28312e-14 -5.82895e-15)
(9.42755e-14 -5.16533e-14 -5.43763e-15)
(7.31187e-14 -5.05013e-14 -8.43303e-15)
(5.29661e-14 -4.92134e-14 -2.94226e-14)
(3.3785e-14 -2.64325e-14 -1.02288e-13)
(5.04152e-13 3.39486e-13 -2.73311e-14)
(4.65091e-13 2.38933e-13 -2.0942e-14)
(3.98244e-13 -1.94437e-13 -1.69116e-14)
(3.36129e-13 -1.874e-13 -1.3368e-14)
(2.78503e-13 -1.79903e-13 -1.08494e-14)
(2.25003e-13 -1.72707e-13 -9.29804e-15)
(1.75262e-13 -1.659e-13 -8.57491e-15)
(1.29033e-13 -1.59586e-13 -1.01705e-14)
(8.60216e-14 -1.52953e-13 -2.11701e-14)
(4.62337e-14 -8.02899e-14 -6.85171e-14)
(6.2597e-13 2.72783e-13 -4.44011e-14)
(5.56115e-13 6.83061e-14 -3.48417e-14)
(4.59309e-13 -3.91493e-13 -2.82574e-14)
(3.73268e-13 -3.66899e-13 -2.32358e-14)
(2.9701e-13 -3.43247e-13 -1.92164e-14)
(2.29329e-13 -3.21509e-13 -1.6834e-14)
(1.69158e-13 -3.01448e-13 -1.56048e-14)
(1.15683e-13 -2.82963e-13 -1.54387e-14)
(6.81233e-14 -2.65048e-13 -2.1312e-14)
(2.60788e-14 -1.36568e-13 -5.04889e-14)
(8.25651e-13 1.55352e-13 -7.61044e-14)
(7.06686e-13 -1.98428e-13 -6.0374e-14)
(5.66023e-13 -6.7133e-13 -4.94384e-14)
(4.46696e-13 -6.10571e-13 -4.11235e-14)
(3.45673e-13 -5.55161e-13 -3.48045e-14)