/*--------------------------------*- C++ -*----------------------------------*\
| =========                 |                                                 |
| \\      /  F ield         | OpenFOAM: The Open Source CFD Toolbox           |
|  \\    /   O peration     | Version:  4.1                                   |
|   \\  /    A nd           | Web:      www.OpenFOAM.org                      |
|    \\/     M anipulation  |                                                 |
\*---------------------------------------------------------------------------*/
FoamFile
{
    version     2.0;
    format      ascii;
    class       volScalarField;
    location    "0.3";
    object      Ma;
}
// * * * * * * * * * * * * * * * * * * * * * * * * * * * * * * * * * * * * * //

dimensions      [0 0 0 0 0 0 0];

internalField   nonuniform List<scalar> 
18000
(
5.67936e-12
5.61386e-12
5.53821e-12
5.47417e-12
5.41099e-12
5.34861e-12
5.28707e-12
5.22647e-12
5.16677e-12
5.10856e-12
7.14214e-12
6.88432e-12
6.62754e-12
6.39073e-12
6.16425e-12
5.94752e-12
5.73999e-12
5.5413e-12
5.35077e-12
5.17044e-12
9.09822e-12
8.52899e-12
7.9932e-12
7.5042e-12
7.0512e-12
6.63126e-12
6.24184e-12
5.88e-12
5.54368e-12
5.23328e-12
1.1755e-11
1.06832e-11
9.72099e-12
8.86514e-12
8.10016e-12
7.41464e-12
6.79886e-12
6.24467e-12
5.745e-12
5.29728e-12
1.54253e-11
1.35428e-11
1.19276e-11
1.0541e-11
9.34704e-12
8.31445e-12
7.41823e-12
6.63779e-12
5.95554e-12
5.36261e-12
2.05918e-11
1.73946e-11
1.47777e-11
1.26209e-11
1.0837e-11
9.35178e-12
8.10838e-12
7.06174e-12
6.17574e-12
5.42877e-12
2.8016e-11
2.26679e-11
1.85017e-11
1.52243e-11
1.26279e-11
1.05521e-11
8.87886e-12
7.51935e-12
6.40633e-12
5.49608e-12
3.89382e-11
3.00089e-11
2.34296e-11
1.8512e-11
1.47953e-11
1.195e-11
9.74599e-12
8.02027e-12
6.65484e-12
5.57344e-12
2.20298e-09
2.1279e-09
1.99167e-09
1.871e-09
1.76368e-09
1.66769e-09
1.58138e-09
1.5034e-09
1.43263e-09
1.38038e-09
2.3669e-07
3.23342e-08
2.74523e-08
2.36451e-08
2.0496e-08
1.78652e-08
1.56483e-08
1.3766e-08
1.21216e-08
3.61543e-08
5.8332e-12
5.76341e-12
5.68704e-12
5.6194e-12
5.55302e-12
5.48788e-12
5.42329e-12
5.36014e-12
5.29791e-12
5.23703e-12
7.3637e-12
7.09045e-12
6.82825e-12
6.57885e-12
6.34106e-12
6.11373e-12
5.89676e-12
5.68933e-12
5.49104e-12
5.30203e-12
9.41e-12
8.80868e-12
8.25962e-12
7.7449e-12
7.26948e-12
6.82971e-12
6.42263e-12
6.0451e-12
5.69476e-12
5.36889e-12
1.22063e-11
1.10758e-11
1.00822e-11
9.17924e-12
8.37441e-12
7.65493e-12
7.01025e-12
6.43151e-12
5.91005e-12
5.43754e-12
1.60952e-11
1.41082e-11
1.2426e-11
1.09566e-11
9.69594e-12
8.60893e-12
7.66793e-12
6.85071e-12
6.13766e-12
5.50863e-12
2.16137e-11
1.82268e-11
1.54757e-11
1.31774e-11
1.12851e-11
9.71548e-12
8.40587e-12
7.30684e-12
6.37868e-12
5.5818e-12
2.96167e-11
2.39215e-11
1.94936e-11
1.59777e-11
1.32083e-11
1.10046e-11
9.23522e-12
7.8032e-12
6.63335e-12
5.6574e-12
4.15279e-11
3.19416e-11
2.48621e-11
1.95438e-11
1.55522e-11
1.25131e-11
1.0171e-11
8.34433e-12
6.90342e-12
5.73569e-12
6.6878e-11
8.62894e-11
6.8769e-11
5.55693e-11
4.55819e-11
3.78797e-11
3.18418e-11
2.70399e-11
2.31715e-11
1.9988e-11
1.46833e-07
2.40733e-08
2.08383e-08
1.81899e-08
1.6014e-08
1.42056e-08
1.26872e-08
1.14003e-08
1.03015e-08
9.53702e-09
4.17711e-13
3.93463e-13
2.28666e-13
2.10721e-13
1.94161e-13
1.79326e-13
1.66325e-13
1.55461e-13
1.46361e-13
1.34839e-13
5.76874e-13
5.04908e-13
4.33458e-13
3.83357e-13
3.38004e-13
2.97532e-13
2.62145e-13
2.32203e-13
2.07837e-13
1.54935e-13
6.73104e-13
5.65264e-13
5.84881e-13
5.12612e-13
4.4947e-13
3.95583e-13
3.50478e-13
3.13314e-13
2.8237e-13
1.82576e-13
8.58622e-13
7.48042e-13
8.37062e-13
7.23744e-13
6.27616e-13
5.47446e-13
4.80889e-13
4.26214e-13
3.79814e-13
2.22848e-13
1.17101e-12
1.09948e-12
1.20572e-12
1.02065e-12
8.67956e-13
7.43735e-13
6.42289e-13
5.5946e-13
4.89325e-13
2.69699e-13
1.69246e-12
1.69586e-12
1.73855e-12
1.43066e-12
1.18541e-12
9.91457e-13
8.36852e-13
7.12991e-13
6.10014e-13
3.22006e-13
2.55797e-12
2.65617e-12
2.50991e-12
1.99457e-12
1.60154e-12
1.30143e-12
1.06919e-12
8.88158e-13
7.41738e-13
3.78568e-13
4.02117e-12
4.18485e-12
3.63357e-12
2.77212e-12
2.14674e-12
1.68803e-12
1.34584e-12
1.08726e-12
8.84817e-13
4.38935e-13
7.28754e-11
6.33204e-12
5.08706e-12
3.73297e-12
2.79609e-12
2.13672e-12
1.66176e-12
1.3136e-12
1.04892e-12
5.25099e-13
1.27927e-07
8.66438e-10
6.26552e-10
4.76194e-10
3.68344e-10
2.89377e-10
2.30506e-10
1.85905e-10
1.51637e-10
1.25213e-10
3.86931e-13
3.61796e-13
1.72249e-13
1.51043e-13
1.30688e-13
1.11542e-13
9.36794e-14
7.73347e-14
6.28502e-14
3.6699e-14
5.33434e-13
4.60089e-13
3.86283e-13
3.35676e-13
2.89148e-13
2.47418e-13
2.10598e-13
1.79018e-13
1.53015e-13
7.94583e-14
5.96353e-13
4.88638e-13
5.23954e-13
4.55046e-13
3.94932e-13
3.43855e-13
3.01353e-13
2.6722e-13
2.39273e-13
1.19925e-13
7.28812e-13
6.33869e-13
7.60927e-13
6.56789e-13
5.68289e-13
4.95014e-13
4.34517e-13
3.85203e-13
3.43677e-13
1.71308e-13
9.55269e-13
9.42691e-13
1.10803e-12
9.40365e-13
8.01557e-13
6.88434e-13
5.96072e-13
5.20923e-13
4.5718e-13
2.25161e-13
1.33663e-12
1.48346e-12
1.60998e-12
1.3318e-12
1.10859e-12
9.31316e-13
7.89297e-13
6.75431e-13
5.80145e-13
2.8199e-13
1.9687e-12
2.36018e-12
2.33577e-12
1.86983e-12
1.51068e-12
1.23435e-12
1.01911e-12
8.50521e-13
7.13266e-13
3.41892e-13
3.02389e-12
3.75585e-12
3.39082e-12
2.611e-12
2.03673e-12
1.61187e-12
1.29219e-12
1.04894e-12
8.57357e-13
4.04998e-13
7.74476e-11
6.10733e-12
4.93692e-12
3.63522e-12
2.72544e-12
2.08143e-12
1.61568e-12
1.27348e-12
1.01299e-12
4.71264e-13
1.29695e-07
2.86132e-10
1.24937e-11
8.16228e-12
5.67371e-12
4.0492e-12
2.95615e-12
2.20131e-12
1.66474e-12
1.00712e-12
3.87046e-13
3.61562e-13
1.72679e-13
1.5139e-13
1.30952e-13
1.11725e-13
9.39544e-14
7.75842e-14
6.29377e-14
3.68224e-14
5.34045e-13
4.60484e-13
3.87194e-13
3.36475e-13
2.89865e-13
2.47929e-13
2.10992e-13
1.79449e-13
1.53358e-13
7.96388e-14
5.97633e-13
4.89922e-13
5.25668e-13
4.56429e-13
3.95962e-13
3.44801e-13
3.02115e-13
2.67717e-13
2.39584e-13
1.20188e-13
7.31506e-13
6.36773e-13
7.63634e-13
6.59093e-13
5.70061e-13
4.96418e-13
4.35697e-13
3.86102e-13
3.44326e-13
1.71554e-13
9.60355e-13
9.48109e-13
1.11273e-12
9.44033e-13
8.045e-13
6.90839e-13
5.97881e-13
5.22246e-13
4.58204e-13
2.259e-13
1.34611e-12
1.49291e-12
1.6177e-12
1.33796e-12
1.11336e-12
9.35127e-13
7.92352e-13
6.77793e-13
5.82018e-13
2.83218e-13
1.98609e-12
2.37693e-12
2.34918e-12
1.88008e-12
1.51862e-12
1.24061e-12
1.024e-12
8.54271e-13
7.16343e-13
3.44017e-13
3.05547e-12
3.78598e-12
3.41374e-12
2.6282e-12
2.0498e-12
1.62193e-12
1.3e-12
1.05496e-12
8.62024e-13
4.08323e-13
7.80929e-11
6.17278e-12
4.97979e-12
3.66564e-12
2.74749e-12
2.09767e-12
1.62785e-12
1.28279e-12
1.02024e-12
4.7609e-13
1.34053e-07
2.94186e-10
7.82789e-12
5.05716e-12
3.64629e-12
2.68869e-12
2.02129e-12
1.54663e-12
1.19681e-12
5.54525e-13
3.87153e-13
3.61231e-13
1.73272e-13
1.519e-13
1.31324e-13
1.12064e-13
9.41448e-14
7.78433e-14
6.31987e-14
3.68583e-14
5.34879e-13
4.60981e-13
3.88477e-13
3.37569e-13
2.908e-13
2.48682e-13
2.11572e-13
1.7985e-13
1.53797e-13
7.99859e-14
5.99475e-13
4.91747e-13
5.27964e-13
4.58353e-13
3.97582e-13
3.46036e-13
3.03084e-13
2.6839e-13
2.40109e-13
1.20591e-13
7.35311e-13
6.40909e-13
7.67421e-13
6.62179e-13
5.72645e-13
4.98352e-13
4.37117e-13
3.87298e-13
3.45125e-13
1.72137e-13
9.67866e-13
9.55714e-13
1.11903e-12
9.49063e-13
8.08456e-13
6.94095e-13
6.00446e-13
5.24226e-13
4.59731e-13
2.26929e-13
1.36042e-12
1.50651e-12
1.62849e-12
1.34637e-12
1.1199e-12
9.40311e-13
7.96472e-13
6.8095e-13
5.84592e-13
2.85016e-13
2.0129e-12
2.40079e-12
2.3676e-12
1.89419e-12
1.52944e-12
1.2491e-12
1.03065e-12
8.59441e-13
7.20423e-13
3.46891e-13
3.106e-12
3.82889e-12
3.44576e-12
2.65179e-12
2.06752e-12
1.63542e-12
1.31044e-12
1.06309e-12
8.68303e-13
4.12645e-13
7.95957e-11
6.253e-12
5.03548e-12
3.70517e-12
2.7762e-12
2.11903e-12
1.64389e-12
1.29497e-12
1.02961e-12
4.82564e-13
1.39708e-07
3.0277e-10
7.92476e-12
5.11508e-12
3.68765e-12
2.71867e-12
2.04355e-12
1.5635e-12
1.20966e-12
5.63074e-13
3.87192e-13
3.60905e-13
1.73941e-13
1.52529e-13
1.31904e-13
1.12554e-13
9.45524e-14
7.80668e-14
6.33794e-14
3.71192e-14
5.35885e-13
4.61668e-13
3.90058e-13
3.38865e-13
2.91945e-13
2.49708e-13
2.12446e-13
1.80511e-13
1.54072e-13
8.03199e-14
6.01757e-13
4.93962e-13
5.3071e-13
4.60667e-13
3.99503e-13
3.47623e-13
3.04227e-13
2.69287e-13
2.40768e-13
1.2103e-13
7.39993e-13
6.45902e-13
7.72013e-13
6.65909e-13
5.7571e-13
5.00845e-13
4.3897e-13
3.88663e-13
3.46319e-13
1.72963e-13
9.77116e-13
9.65043e-13
1.12665e-12
9.55136e-13
8.13293e-13
6.98039e-13
6.03587e-13
5.26659e-13
4.61608e-13
2.28342e-13
1.37805e-12
1.52287e-12
1.64147e-12
1.35657e-12
1.12791e-12
9.46686e-13
8.01573e-13
6.84948e-13
5.87695e-13
2.87323e-13
2.04609e-12
2.42979e-12
2.38988e-12
1.91133e-12
1.54267e-12
1.25946e-12
1.03891e-12
8.65852e-13
7.2547e-13
3.50567e-13
3.16864e-12
3.88083e-12
3.48464e-12
2.68069e-12
2.08922e-12
1.65198e-12
1.32337e-12
1.0731e-12
8.76059e-13
4.18101e-13
8.33957e-11
6.35191e-12
5.10329e-12
3.75369e-12
2.81158e-12
2.14527e-12
1.66372e-12
1.30994e-12
1.04118e-12
4.90446e-13
1.55621e-07
3.22619e-10
8.05347e-12
5.19274e-12
3.74258e-12
2.75837e-12
2.07292e-12
1.5856e-12
1.22622e-12
5.74262e-13
3.87282e-13
3.60163e-13
1.74586e-13
1.53063e-13
1.32522e-13
1.1327e-13
9.54985e-14
8.13437e-14
1.05636e-13
2.91586e-13
5.36894e-13
4.61966e-13
3.91509e-13
3.40196e-13
2.93156e-13
2.50912e-13
2.13661e-13
1.82541e-13
1.64118e-13
2.0527e-13
6.04048e-13
4.95626e-13
5.33248e-13
4.629e-13
4.01476e-13
3.49465e-13
3.06093e-13
2.71188e-13
2.45655e-13
1.77364e-13
7.44875e-13
6.49925e-13
7.76133e-13
6.69394e-13
5.78646e-13
5.03509e-13
4.41645e-13
3.91248e-13
3.50218e-13
2.00855e-13
9.86643e-13
9.72751e-13
1.13339e-12
9.60749e-13
8.17917e-13
7.01944e-13
6.07386e-13
5.30325e-13
4.65974e-13
2.45842e-13
1.39565e-12
1.53666e-12
1.65276e-12
1.3658e-12
1.13538e-12
9.53078e-13
8.07488e-13
6.90453e-13
5.93226e-13
3.01266e-13
2.07803e-12
2.45444e-12
2.40919e-12
1.92663e-12
1.55493e-12
1.26959e-12
1.04786e-12
8.74195e-13
7.32935e-13
3.63456e-13
3.22385e-12
3.92478e-12
3.51793e-12
2.70649e-12
2.10934e-12
1.66803e-12
1.33694e-12
1.08544e-12
8.86872e-13
4.31474e-13
7.58523e-11
6.39873e-12
5.16069e-12
3.7967e-12
2.84419e-12
2.17063e-12
1.6843e-12
1.32762e-12
1.05632e-12
5.05471e-13
1.5272e-07
2.58933e-10
7.96768e-12
5.26032e-12
3.79303e-12
2.79665e-12
2.10276e-12
1.61023e-12
1.24734e-12
5.92264e-13
3.87185e-13
3.99715e-13
2.12279e-13
1.5982e-13
1.48071e-13
2.79414e-13
5.42347e-13
1.94065e-12
8.29689e-12
2.76804e-11
5.40432e-13
5.32355e-13
4.34917e-13
3.55213e-13
2.92883e-13
3.25427e-13
4.95518e-13
1.30036e-12
4.81743e-12
1.76189e-11
6.13e-13
6.18196e-13
5.97381e-13
4.93122e-13
4.02825e-13
3.7403e-13
5.23188e-13
9.63472e-13
3.0346e-12
1.11726e-11
7.5789e-13
8.13195e-13
8.52987e-13
7.09619e-13
5.85265e-13
5.05557e-13
5.63694e-13
8.12295e-13
2.07223e-12
7.39288e-12
9.99391e-13
1.15347e-12
1.21464e-12
1.00483e-12
8.27994e-13
6.95697e-13
6.639e-13
7.91874e-13
1.55331e-12
5.10344e-12
1.39733e-12
1.71027e-12
1.72747e-12
1.40498e-12
1.14289e-12
9.41537e-13
8.27421e-13
9.00584e-13
1.29511e-12
3.66619e-12
2.04758e-12
2.59641e-12
2.46168e-12
1.94943e-12
1.55163e-12
1.25013e-12
1.04546e-12
1.00695e-12
1.22174e-12
2.73588e-12
3.11223e-12
4.00147e-12
3.52505e-12
2.69668e-12
2.08443e-12
1.63472e-12
1.3181e-12
1.16165e-12
1.27295e-12
2.12266e-12
1.55561e-11
6.22253e-12
5.08787e-12
3.73228e-12
2.78333e-12
2.11483e-12
1.64944e-12
1.36487e-12
1.34499e-12
1.71769e-12
1.67021e-08
2.56944e-10
7.04867e-12
5.10801e-12
3.67681e-12
2.707e-12
2.04625e-12
1.61633e-12
1.44561e-12
1.46008e-12
2.53486e-12
2.39325e-12
1.53428e-12
1.55743e-13
2.63537e-12
8.41266e-12
2.41612e-11
8.35836e-11
3.67202e-10
8.48886e-10
3.56941e-12
3.46133e-12
2.57124e-12
1.17988e-12
1.31551e-12
6.14295e-12
1.80138e-11
5.61253e-11
2.1455e-10
5.13587e-10
4.83636e-12
4.72552e-12
3.75171e-12
2.34527e-12
3.06668e-13
4.06137e-12
1.31776e-11
3.94489e-11
1.35596e-10
3.28863e-10
6.494e-12
6.30504e-12
5.15501e-12
3.64525e-12
1.48139e-12
2.26496e-12
9.55814e-12
2.86006e-11
9.08784e-11
2.19568e-10
8.70387e-12
8.31278e-12
6.85275e-12
5.13079e-12
2.89612e-12
7.84367e-13
6.67814e-12
2.10047e-11
6.35255e-11
1.5177e-10
1.17065e-11
1.09083e-11
8.94369e-12
6.85625e-12
4.42332e-12
1.29674e-12
4.33142e-12
1.53662e-11
4.57574e-11
1.08009e-10
1.58725e-11
1.43332e-11
1.15636e-11
8.89756e-12
6.11245e-12
2.82972e-12
2.38299e-12
1.12527e-11
3.36015e-11
7.87591e-11
2.18008e-11
1.8938e-11
1.49009e-11
1.13565e-11
8.01056e-12
4.45639e-12
1.16039e-12
8.04564e-12
2.49324e-11
5.85927e-11
7.35466e-11
2.52561e-11
1.92316e-11
1.43641e-11
1.01852e-11
6.18652e-12
1.94156e-12
5.4791e-12
1.86794e-11
4.42986e-11
3.8616e-07
5.3151e-10
2.49269e-11
1.80811e-11
1.27017e-11
8.04003e-12
3.45202e-12
3.43931e-12
1.40232e-11
3.38877e-11
3.42011e-12
3.07543e-12
2.03259e-12
1.92993e-12
8.28467e-12
2.81671e-11
1.0664e-10
5.32559e-10
1.64667e-09
2.0915e-09
4.5359e-12
4.22547e-12
3.22744e-12
1.68018e-12
5.18591e-12
1.9542e-11
6.95336e-11
3.02417e-10
9.41565e-10
1.15032e-09
5.89498e-12
5.55977e-12
4.5728e-12
2.82704e-12
2.79481e-12
1.31115e-11
4.68314e-11
1.85365e-10
5.70945e-10
6.78992e-10
7.63771e-12
7.17697e-12
6.10016e-12
4.36523e-12
1.98163e-12
8.35609e-12
3.21124e-11
1.19947e-10
3.62163e-10
4.22428e-10
9.92819e-12
9.18938e-12
7.88318e-12
6.06989e-12
3.23138e-12
4.77761e-12
2.19552e-11
8.05248e-11
2.38435e-10
2.74198e-10
1.30126e-11
1.17545e-11
1.00222e-11
7.9695e-12
5.07667e-12
2.50747e-12
1.45759e-11
5.51947e-11
1.61879e-10
1.84238e-10
1.72657e-11
1.51001e-11
1.26538e-11
1.01437e-11
7.08151e-12
2.85862e-12
9.20662e-12
3.82252e-11
1.12403e-10
1.27353e-10
2.32808e-11
1.95618e-11
1.5967e-11
1.26967e-11
9.24339e-12
4.79017e-12
5.19646e-12
2.63955e-11
7.93814e-11
9.00751e-11
7.18711e-11
2.56053e-11
2.02266e-11
1.5769e-11
1.16361e-11
6.9765e-12
2.7101e-12
1.79637e-11
5.6768e-11
6.47198e-11
7.1168e-08
3.59225e-09
2.67417e-11
1.95199e-11
1.43321e-11
9.23217e-12
3.15954e-12
1.17603e-11
4.08556e-11
4.69427e-11
1.01008e-12
1.26393e-12
1.53799e-12
3.24247e-12
8.61525e-12
2.55006e-11
8.88189e-11
3.20978e-10
5.62655e-10
1.62529e-10
1.09101e-12
1.26099e-12
1.39971e-12
2.45083e-12
6.11125e-12
1.769e-11
5.85964e-11
1.98714e-10
3.24311e-10
1.46347e-10
1.17516e-12
1.29726e-12
1.38587e-12
1.97475e-12
4.37173e-12
1.23785e-11
3.96132e-11
1.27552e-10
1.95545e-10
1.09194e-10
1.26047e-12
1.36022e-12
1.4486e-12
1.77578e-12
3.21939e-12
8.7197e-12
2.72766e-11
8.44025e-11
1.22349e-10
7.91382e-11
1.34948e-12
1.43861e-12
1.54567e-12
1.75374e-12
2.52935e-12
6.19859e-12
1.90617e-11
5.72792e-11
7.88563e-11
5.76987e-11
1.44645e-12
1.52909e-12
1.65525e-12
1.82093e-12
2.19897e-12
4.48422e-12
1.34225e-11
3.97594e-11
5.20733e-11
4.29199e-11
1.55585e-12
1.63024e-12
1.76948e-12
1.92636e-12
2.10896e-12
3.37613e-12
9.50162e-12
2.79226e-11
3.51132e-11
3.27223e-11
1.68775e-12
1.744e-12
1.88822e-12
2.04353e-12
2.14628e-12
2.74435e-12
6.80176e-12
1.98305e-11
2.40864e-11
2.55774e-11
1.87977e-10
2.41434e-12
2.01204e-12
2.16576e-12
2.24158e-12
2.45857e-12
4.96048e-12
1.42164e-11
1.66451e-11
2.04794e-11
1.22878e-07
3.46145e-09
4.78793e-12
2.28082e-12
2.35237e-12
2.38242e-12
3.73912e-12
1.02588e-11
1.14957e-11
1.66595e-11
7.92173e-13
1.50399e-12
1.6092e-12
2.52024e-12
4.1524e-12
7.19063e-12
1.48652e-11
5.32838e-11
2.76536e-10
8.53995e-10
7.27057e-13
1.35117e-12
1.39544e-12
2.15106e-12
3.48848e-12
5.93175e-12
1.13584e-11
3.32375e-11
1.66818e-10
4.68941e-10
6.64263e-13
1.20812e-12
1.20164e-12
1.82711e-12
2.92471e-12
4.88817e-12
8.90873e-12
2.21291e-11
1.04688e-10
2.75693e-10
6.10614e-13
1.08634e-12
1.04067e-12
1.56336e-12
2.46787e-12
4.06594e-12
7.15546e-12
1.5689e-11
6.80357e-11
1.70936e-10
5.64531e-13
9.82119e-13
9.05638e-13
1.34283e-12
2.09535e-12
3.41309e-12
5.84356e-12
1.1706e-11
4.55168e-11
1.10505e-10
5.24936e-13
8.93052e-13
7.92203e-13
1.16166e-12
1.79327e-12
2.88238e-12
4.83741e-12
9.07449e-12
3.12209e-11
7.3905e-11
4.90724e-13
8.16103e-13
6.96568e-13
1.00985e-12
1.54031e-12
2.44848e-12
4.05329e-12
7.23576e-12
2.18905e-11
5.08353e-11
4.69444e-13
7.49368e-13
6.1579e-13
8.81505e-13
1.33102e-12
2.09502e-12
3.42479e-12
5.89956e-12
1.56473e-11
3.58087e-11
3.11166e-10
4.447e-12
5.46818e-13
7.73578e-13
1.15679e-12
1.80302e-12
2.9133e-12
4.89095e-12
1.13862e-11
2.57458e-11
1.21915e-07
1.17075e-08
2.80305e-11
6.17352e-13
1.00389e-12
1.55212e-12
2.48485e-12
4.09469e-12
8.40422e-12
1.88275e-11
1.06747e-12
1.85988e-12
1.61827e-12
2.17464e-12
3.02984e-12
4.39488e-12
6.99406e-12
1.37775e-11
5.29593e-11
1.39604e-10
9.94166e-13
1.7054e-12
1.45084e-12
1.93889e-12
2.67868e-12
3.82538e-12
5.82619e-12
1.05177e-11
3.76308e-11
8.79749e-11
9.22835e-13
1.55692e-12
1.28945e-12
1.71362e-12
2.35279e-12
3.32682e-12
4.91732e-12
8.20787e-12
2.67965e-11
5.82464e-11
8.60707e-13
1.42773e-12
1.15094e-12
1.5192e-12
2.07485e-12
2.9095e-12
4.22033e-12
6.63229e-12
1.92694e-11
4.00648e-11
8.06754e-13
1.31496e-12
1.03176e-12
1.35231e-12
1.83846e-12
2.56005e-12
3.66575e-12
5.51874e-12
1.39947e-11
2.83605e-11
7.59614e-13
1.21618e-12
9.28631e-13
1.20878e-12
1.63307e-12
2.26169e-12
3.21323e-12
4.69668e-12
1.02622e-11
2.05241e-11
7.1816e-13
1.12914e-12
8.3936e-13
1.08435e-12
1.45614e-12
2.00758e-12
2.83283e-12
4.06147e-12
7.59068e-12
1.51185e-11
6.92097e-13
1.05209e-12
7.61809e-13
9.76161e-13
1.30258e-12
1.78688e-12
2.50731e-12
3.55162e-12
5.66347e-12
1.1301e-11
4.65508e-10
7.89298e-12
6.9634e-13
8.81985e-13
1.1691e-12
1.59501e-12
2.22961e-12
3.12888e-12
4.26138e-12
8.54153e-12
1.49945e-07
2.07048e-08
6.89596e-11
8.21769e-13
1.04579e-12
1.42484e-12
1.98394e-12
2.76393e-12
3.21663e-12
6.50164e-12
1.48459e-12
2.35432e-12
1.62882e-12
1.90346e-12
2.28467e-12
2.83034e-12
3.80585e-12
5.97593e-12
1.61215e-11
2.45279e-11
1.40414e-12
2.203e-12
1.51238e-12
1.77031e-12
2.12368e-12
2.60452e-12
3.3675e-12
4.89019e-12
1.24219e-11
1.8848e-11
1.324e-12
2.05282e-12
1.38981e-12
1.62843e-12
1.95467e-12
2.38586e-12
3.01463e-12
4.11357e-12
9.44188e-12
1.44887e-11
1.25315e-12
1.91849e-12
1.27905e-12
1.49878e-12
1.80009e-12
2.19333e-12
2.73609e-12
3.56855e-12
7.18043e-12
1.12331e-11
1.19045e-12
1.79819e-12
1.17969e-12
1.38108e-12
1.65979e-12
2.02101e-12
2.50564e-12
3.17196e-12
5.46333e-12
8.75952e-12
1.13473e-12
1.68994e-12
1.09064e-12
1.27504e-12
1.53122e-12
1.86503e-12
2.30445e-12
2.86739e-12
4.15613e-12
6.86056e-12
1.08513e-12
1.59267e-12
1.0107e-12
1.17896e-12
1.41414e-12
1.72267e-12
2.1283e-12
2.61898e-12
3.1611e-12
5.38742e-12
1.05219e-12
1.50474e-12
9.38856e-13
1.09201e-12
1.30774e-12
1.59274e-12
1.96836e-12
2.40994e-12
2.4004e-12
4.23864e-12
6.16881e-10
1.16681e-11
8.78195e-13
1.01316e-12
1.21075e-12
1.47377e-12
1.82218e-12
2.22626e-12
1.81782e-12
3.33858e-12
1.21378e-07
2.87474e-08
1.09559e-10
1.07445e-12
1.11481e-12
1.36207e-12
1.68306e-12
2.0553e-12
1.36141e-12
2.62051e-12
2.10051e-12
2.99093e-12
1.58315e-12
1.60488e-12
1.66658e-12
1.79888e-12
2.14748e-12
2.96664e-12
6.73617e-12
8.37913e-12
2.01484e-12
2.85242e-12
1.52455e-12
1.56253e-12
1.63307e-12
1.74549e-12
1.99147e-12
2.54821e-12
5.45998e-12
6.99043e-12
1.929e-12
2.71021e-12
1.44914e-12
1.49952e-12
1.57951e-12
1.68552e-12
1.87262e-12
2.24801e-12
4.31556e-12
5.73003e-12
1.85137e-12
2.57896e-12
1.37551e-12
1.43423e-12
1.5217e-12
1.62809e-12
1.78518e-12
2.04628e-12
3.39436e-12
4.6956e-12
1.78125e-12
2.458e-12
1.30477e-12
1.36942e-12
1.46248e-12
1.57146e-12
1.71432e-12
1.90872e-12
2.65172e-12
3.84742e-12
1.71776e-12
2.34659e-12
1.23803e-12
1.30551e-12
1.40203e-12
1.51449e-12
1.65325e-12
1.80874e-12
2.05282e-12
3.14728e-12
1.66022e-12
2.24397e-12
1.17505e-12
1.24364e-12
1.34163e-12
1.45662e-12
1.59529e-12
1.73072e-12
1.56665e-12
2.56814e-12
1.61935e-12
2.14941e-12
1.11597e-12
1.18446e-12
1.28259e-12
1.39855e-12
1.53763e-12
1.66484e-12
1.174e-12
2.08792e-12
7.6807e-10
1.51709e-11
1.06569e-12
1.1278e-12
1.2251e-12
1.34115e-12
1.4806e-12
1.60543e-12
8.58214e-13
1.68926e-12
3.69968e-08
3.31309e-08
2.49101e-10
9.54182e-13
1.16085e-12
1.28218e-12
1.41962e-12
1.54349e-12
5.93184e-13
1.35569e-12
2.95001e-12
3.72234e-12
1.40817e-12
1.21459e-12
1.06817e-12
1.00312e-12
1.13671e-12
1.54366e-12
3.39628e-12
3.79408e-12
2.86461e-12
3.61162e-12
1.40965e-12
1.24905e-12
1.12112e-12
1.03664e-12
1.07955e-12
1.33832e-12
2.91223e-12
3.36734e-12
2.77849e-12
3.49347e-12
1.3886e-12
1.25831e-12
1.15216e-12
1.06657e-12
1.05657e-12
1.1957e-12
2.39983e-12
2.89485e-12
2.69893e-12
3.38039e-12
1.36002e-12
1.25535e-12
1.17026e-12
1.09292e-12
1.05723e-12
1.11195e-12
1.96038e-12
2.48396e-12
2.62547e-12
3.27299e-12
1.32748e-12
1.24445e-12
1.17844e-12
1.11335e-12
1.0689e-12
1.07143e-12
1.58381e-12
2.12662e-12
2.55767e-12
3.1711e-12
1.292e-12
1.22722e-12
1.17827e-12
1.12702e-12
1.08433e-12
1.0575e-12
1.26038e-12
1.81564e-12
2.49513e-12
3.07491e-12
1.25503e-12
1.2056e-12
1.17165e-12
1.13403e-12
1.09879e-12
1.05795e-12
9.83872e-13
1.54528e-12
2.44872e-12
2.98427e-12
1.21754e-12
1.18107e-12
1.15976e-12
1.13481e-12
1.10918e-12
1.06525e-12
7.47628e-13
1.31155e-12
9.29955e-10
1.76485e-11
1.18651e-12
1.15439e-12
1.1441e-12
1.13045e-12
1.11474e-12
1.07451e-12
5.46861e-13
1.11061e-12
6.03583e-08
3.15591e-08
2.42601e-10
1.0845e-12
1.1185e-12
1.11981e-12
1.11311e-12
1.0792e-12
3.71103e-13
9.41657e-13
3.98668e-12
4.44083e-12
1.0837e-12
7.60387e-13
4.95124e-13
3.49236e-13
4.86223e-13
7.94621e-13
2.05361e-12
2.07738e-12
3.90763e-12
4.37127e-12
1.12967e-12
8.42624e-13
6.00532e-13
4.197e-13
4.30137e-13
6.50973e-13
1.8869e-12
1.9665e-12
3.82909e-12
4.29453e-12
1.15307e-12
9.00924e-13
6.84658e-13
4.99394e-13
4.26558e-13
5.43752e-13
1.64299e-12
1.77141e-12
3.75485e-12
4.21688e-12
1.16484e-12
9.43653e-13
7.51409e-13
5.74125e-13
4.59176e-13
4.79728e-13
1.42535e-12
1.59504e-12
3.6846e-12
4.14013e-12
1.16839e-12
9.74525e-13
8.05095e-13
6.40643e-13
5.09252e-13
4.58757e-13
1.23146e-12
1.43555e-12
3.61898e-12
4.0647e-12
1.16531e-12
9.9625e-13
8.48037e-13
6.98612e-13
5.64576e-13
4.70996e-13
1.06028e-12
1.29233e-12
3.55728e-12
3.9911e-12
1.15734e-12
1.01039e-12
8.81178e-13
7.47599e-13
6.18735e-13
5.03314e-13
9.10908e-13
1.16471e-12
3.51008e-12
3.92008e-12
1.14575e-12
1.01839e-12
9.06616e-13
7.88371e-13
6.68563e-13
5.45643e-13
7.82485e-13
1.05174e-12
1.08004e-09
1.87377e-11
1.13965e-12
1.02142e-12
9.26021e-13
8.22056e-13
7.12552e-13
5.90961e-13
6.75047e-13
9.53194e-13
1.67166e-07
2.28627e-08
2.22788e-10
1.32379e-12
9.35838e-13
8.47641e-13
7.49677e-13
6.32743e-13
5.88233e-13
8.73083e-13
5.01081e-12
5.00274e-12
7.40555e-13
4.98721e-13
2.72032e-13
1.52934e-13
2.67398e-13
4.59262e-13
1.47722e-12
1.33502e-12
4.94187e-12
4.97835e-12
7.70019e-13
5.36296e-13
3.10778e-13
1.24626e-13
1.64052e-13
3.55239e-13
1.46776e-12
1.3559e-12
4.87568e-12
4.9497e-12
7.91434e-13
5.72576e-13
3.60368e-13
1.62097e-13
7.68186e-14
2.56681e-13
1.36133e-12
1.28139e-12
4.81148e-12
4.91598e-12
8.08741e-13
6.05657e-13
4.10074e-13
2.20069e-13
4.51055e-14
1.65987e-13
1.26455e-12
1.21254e-12
4.75028e-12
4.87952e-12
8.22398e-13
6.35886e-13
4.57165e-13
2.80385e-13
1.07976e-13
8.66304e-14
1.1761e-12
1.14867e-12
4.69159e-12
4.84072e-12
8.32578e-13
6.62089e-13
4.99953e-13
3.37023e-13
1.76036e-13
4.37429e-14
1.09598e-12
1.09025e-12
4.63571e-12
4.80076e-12
8.39562e-13
6.84472e-13
5.38115e-13
3.88996e-13
2.38881e-13
8.67921e-14
1.02444e-12
1.03685e-12
4.59298e-12
4.76076e-12
8.4333e-13
7.02901e-13
5.71485e-13
4.35378e-13
2.95942e-13
1.47788e-13
9.60767e-13
9.88685e-13
1.1962e-09
1.85538e-11
8.56555e-13
7.18145e-13
6.0054e-13
4.76653e-13
3.48056e-13
2.06788e-13
9.05194e-13
9.45192e-13
2.64178e-07
1.12678e-08
1.43771e-10
1.10157e-12
6.24743e-13
5.13292e-13
3.9509e-13
2.62369e-13
8.57335e-13
9.1536e-13
5.67929e-12
5.29426e-12
6.12103e-13
6.0671e-13
5.1067e-13
4.41398e-13
4.0052e-13
4.01724e-13
1.23842e-12
1.02256e-12
5.61751e-12
5.29985e-12
5.45977e-13
5.46199e-13
4.58036e-13
3.93594e-13
3.55069e-13
3.61575e-13
1.30261e-12
1.10044e-12
5.56054e-12
5.30493e-12
4.88524e-13
4.92098e-13
4.10834e-13
3.49083e-13
3.12067e-13
3.19554e-13
1.26057e-12
1.0777e-12
5.50495e-12
5.30372e-12
4.43193e-13
4.4652e-13
3.70587e-13
3.11199e-13
2.73712e-13
2.80932e-13
1.22045e-12
1.05527e-12
5.45099e-12
5.29761e-12
4.09121e-13
4.10011e-13
3.39038e-13
2.80452e-13
2.40697e-13
2.45437e-13
1.18234e-12
1.03432e-12
5.3994e-12
5.28815e-12
3.85178e-13
3.81366e-13
3.14141e-13
2.55961e-13
2.13533e-13
2.14436e-13
1.14613e-12
1.01395e-12
5.34953e-12
5.27563e-12
3.6866e-13
3.59267e-13
2.96019e-13
2.38629e-13
1.93285e-13
1.87236e-13
1.11172e-12
9.95077e-13
5.3119e-12
5.26141e-12
3.5822e-13
3.42758e-13
2.83626e-13
2.27186e-13
1.78617e-13
1.65371e-13
1.07936e-12
9.76513e-13
1.25923e-09
1.77946e-11
3.76518e-13
3.3112e-13
2.75919e-13
2.2147e-13
1.71458e-13
1.49585e-13
1.04803e-12
9.58792e-13
3.24029e-07
8.18337e-09
1.03666e-10
6.34279e-13
2.72822e-13
2.23527e-13
1.74807e-13
1.47418e-13
1.01962e-12
9.7113e-13
5.68519e-12
5.26494e-12
6.16257e-13
6.323e-13
5.40325e-13
4.66296e-13
4.12093e-13
3.94474e-13
1.16938e-12
9.75956e-13
5.62321e-12
5.27282e-12
5.33464e-13
5.6288e-13
4.83745e-13
4.19022e-13
3.71705e-13
3.62236e-13
1.24356e-12
1.05775e-12
5.5665e-12
5.28078e-12
4.59689e-13
4.98974e-13
4.30604e-13
3.73503e-13
3.31705e-13
3.25745e-13
1.2094e-12
1.03848e-12
5.51121e-12
5.28224e-12
3.9795e-13
4.42604e-13
3.83175e-13
3.32567e-13
2.95039e-13
2.92141e-13
1.17669e-12
1.01964e-12
5.45797e-12
5.27905e-12
3.48655e-13
3.94968e-13
3.42602e-13
2.96457e-13
2.61984e-13
2.60825e-13
1.14527e-12
1.00193e-12
5.40671e-12
5.27213e-12
3.10845e-13
3.55004e-13
3.08284e-13
2.65738e-13
2.32814e-13
2.31955e-13
1.11539e-12
9.85155e-13
5.35726e-12
5.262e-12
2.83414e-13
3.21903e-13
2.79717e-13
2.399e-13
2.07851e-13
2.06093e-13
1.08662e-12
9.69182e-13
5.32004e-12
5.25011e-12
2.65217e-13
2.95386e-13
2.5682e-13
2.18998e-13
1.86721e-13
1.83262e-13
1.05939e-12
9.53872e-13
1.25923e-09
1.77925e-11
2.85331e-13
2.74654e-13
2.39189e-13
2.03354e-13
1.71143e-13
1.64226e-13
1.03282e-12
9.39149e-13
3.24029e-07
8.18337e-09
1.03644e-10
5.78876e-13
2.26717e-13
1.96193e-13
1.65663e-13
1.56313e-13
1.00841e-12
9.64808e-13
5.01961e-12
4.92281e-12
6.90573e-13
5.14664e-13
3.33259e-13
2.28278e-13
2.62571e-13
3.9662e-13
1.23952e-12
1.18185e-12
4.95242e-12
4.90679e-12
6.9741e-13
5.21334e-13
3.35892e-13
1.94677e-13
1.82718e-13
3.12302e-13
1.26318e-12
1.21456e-12
4.88826e-12
4.88707e-12
7.05828e-13
5.35937e-13
3.5651e-13
1.97695e-13
1.1874e-13
2.27747e-13
1.18555e-12
1.15268e-12
4.82623e-12
4.86179e-12
7.15214e-13
5.53772e-13
3.84939e-13
2.24495e-13
9.02071e-14
1.49149e-13
1.11474e-12
1.09567e-12
4.76694e-12
4.83356e-12
7.2505e-13
5.73419e-13
4.17051e-13
2.63425e-13
1.14446e-13
7.88722e-14
1.05011e-12
1.04354e-12
4.70999e-12
4.80248e-12
7.34072e-13
5.93043e-13
4.49737e-13
3.0594e-13
1.61545e-13
3.43262e-14
9.922e-13
9.96467e-13
4.65575e-12
4.76971e-12
7.41491e-13
6.11195e-13
4.80915e-13
3.47954e-13
2.12417e-13
7.02436e-14
9.40579e-13
9.54082e-13
4.61456e-12
4.73603e-12
7.47177e-13
6.27541e-13
5.09742e-13
3.87475e-13
2.61425e-13
1.25056e-13
8.94892e-13
9.16098e-13
1.1962e-09
1.85509e-11
7.62971e-13
6.41851e-13
5.359e-13
4.24271e-13
3.07574e-13
1.78559e-13
8.55388e-13
8.82996e-13
2.64178e-07
1.12678e-08
1.4373e-10
1.02497e-12
5.58472e-13
4.57734e-13
3.50472e-13
2.30201e-13
8.219e-13
8.73389e-13
3.99169e-12
4.33913e-12
9.54662e-13
6.54791e-13
3.94576e-13
2.17349e-13
3.33644e-13
6.0863e-13
1.52885e-12
1.74549e-12
3.91858e-12
4.28593e-12
1.00332e-12
7.33392e-13
4.98258e-13
3.06451e-13
2.92226e-13
4.92812e-13
1.43866e-12
1.66736e-12
3.84573e-12
4.224e-12
1.03357e-12
7.93918e-13
5.83812e-13
3.96946e-13
3.05004e-13
4.04209e-13
1.2618e-12
1.50452e-12
3.77566e-12
4.15981e-12
1.05296e-12
8.40189e-13
6.52967e-13
4.77349e-13
3.51645e-13
3.5517e-13
1.10287e-12
1.3572e-12
3.70944e-12
4.095e-12
1.06477e-12
8.76496e-13
7.10062e-13
5.47928e-13
4.11625e-13
3.4799e-13
9.61423e-13
1.22467e-12
3.64678e-12
4.03023e-12
1.06991e-12
9.03606e-13
7.56695e-13
6.09418e-13
4.738e-13
3.71824e-13
8.37435e-13
1.10657e-12
3.58773e-12
3.96631e-12
1.07008e-12
9.23573e-13
7.94336e-13
6.61773e-13
5.32339e-13
4.13517e-13
7.30278e-13
1.00234e-12
3.54274e-12
3.90383e-12
1.06575e-12
9.37472e-13
8.2463e-13
7.06182e-13
5.85834e-13
4.62097e-13
6.40828e-13
9.11137e-13
1.08004e-09
1.87391e-11
1.06623e-12
9.46729e-13
8.48675e-13
7.43605e-13
6.33403e-13
5.11798e-13
5.68748e-13
8.33167e-13
1.67166e-07
2.28627e-08
2.22758e-10
1.26081e-12
8.63769e-13
7.73169e-13
6.73731e-13
5.57425e-13
5.14387e-13
7.76429e-13
2.95693e-12
3.63155e-12
1.24876e-12
1.03708e-12
8.77102e-13
7.89139e-13
8.64933e-13
1.16006e-12
2.25037e-12
3.03422e-12
2.88114e-12
3.54324e-12
1.27164e-12
1.09078e-12
9.47593e-13
8.45808e-13
8.50339e-13
1.02951e-12
1.96463e-12
2.71591e-12
2.80237e-12
3.44381e-12
1.27021e-12
1.11872e-12
9.96331e-13
8.95569e-13
8.58221e-13
9.42073e-13
1.62087e-12
2.33642e-12
2.72842e-12
3.34659e-12
1.25927e-12
1.13286e-12
1.03032e-12
9.38164e-13
8.81258e-13
8.98953e-13
1.31966e-12
2.00465e-12
2.65914e-12
3.25219e-12
1.24182e-12
1.13761e-12
1.05325e-12
9.72967e-13
9.11286e-13
8.87133e-13
1.05885e-12
1.71499e-12
2.59462e-12
3.16156e-12
1.21988e-12
1.13451e-12
1.06705e-12
9.99957e-13
9.41602e-13
8.94456e-13
8.32605e-13
1.46253e-12
2.53454e-12
3.0745e-12
1.19474e-12
1.12577e-12
1.07304e-12
1.01889e-12
9.68189e-13
9.11485e-13
6.36649e-13
1.2437e-12
2.48982e-12
2.9918e-12
1.16747e-12
1.11258e-12
1.07315e-12
1.03124e-12
9.89525e-13
9.32089e-13
4.67475e-13
1.0552e-12
9.29959e-10
1.76548e-11
1.14481e-12
1.09626e-12
1.06816e-12
1.03767e-12
1.00589e-12
9.52602e-13
3.24286e-13
8.9444e-13
6.03583e-08
3.15591e-08
2.42581e-10
1.03999e-12
1.05284e-12
1.03723e-12
1.01419e-12
9.67458e-13
1.96686e-13
7.61994e-13
2.1203e-12
2.93251e-12
1.42743e-12
1.38674e-12
1.38848e-12
1.44631e-12
1.64802e-12
2.13597e-12
3.90253e-12
6.25761e-12
2.04405e-12
2.81858e-12
1.40167e-12
1.38187e-12
1.39611e-12
1.44525e-12
1.58586e-12
1.91545e-12
3.23533e-12
5.27404e-12
1.96419e-12
2.69474e-12
1.35386e-12
1.35135e-12
1.37821e-12
1.42799e-12
1.53508e-12
1.75509e-12
2.58026e-12
4.33838e-12
1.89059e-12
2.57794e-12
1.30267e-12
1.31364e-12
1.35149e-12
1.4064e-12
1.49888e-12
1.64966e-12
2.04127e-12
3.56427e-12
1.8234e-12
2.46846e-12
1.25036e-12
1.27207e-12
1.31932e-12
1.38042e-12
1.46906e-12
1.58009e-12
1.60023e-12
2.92344e-12