/*--------------------------------*- C++ -*----------------------------------*\
| =========                 |                                                 |
| \\      /  F ield         | OpenFOAM: The Open Source CFD Toolbox           |
|  \\    /   O peration     | Version:  4.1                                   |
|   \\  /    A nd           | Web:      www.OpenFOAM.org                      |
|    \\/     M anipulation  |                                                 |
\*---------------------------------------------------------------------------*/
FoamFile
{
    version     2.0;
    format      ascii;
    class       surfaceScalarField;
    location    "0.3";
    object      phi;
}
// * * * * * * * * * * * * * * * * * * * * * * * * * * * * * * * * * * * * * //

dimensions      [1 0 -1 0 0 0 0];

internalField   nonuniform List<scalar> 
51500
(
3.68931e-13
1.06481e-14
1.53002e-11
-1.90305e-15
1.81948e-14
1.51232e-11
-2.21415e-15
1.73344e-14
1.49484e-11
-2.22554e-15
1.63321e-14
1.47756e-11
-2.17201e-15
1.5259e-14
1.46052e-11
-2.14596e-15
1.41363e-14
1.4437e-11
-2.16128e-15
1.29884e-14
1.42709e-11
-2.13666e-15
1.18297e-14
1.41073e-11
-2.10532e-15
1.06488e-14
1.39462e-11
9.45406e-15
1.3789e-11
-7.26415e-17
3.7406e-13
7.84117e-15
1.92549e-11
-9.72684e-15
9.23552e-15
1.85586e-11
-8.3743e-15
8.08394e-15
1.78908e-11
-8.21264e-15
7.08935e-15
1.72514e-11
-7.98348e-15
6.14008e-15
1.66399e-11
-7.75489e-15
5.03025e-15
1.60547e-11
-7.5432e-15
3.84428e-15
1.54943e-11
-7.35016e-15
2.74084e-15
1.49578e-11
-7.04011e-15
1.70225e-15
1.44433e-11
7.36158e-16
1.39562e-11
-7.50918e-16
3.7675e-13
9.77355e-15
2.45435e-11
-2.01917e-14
1.00858e-14
2.30068e-11
-1.64284e-14
8.3701e-15
2.1581e-11
-1.5684e-14
6.82938e-15
2.02602e-11
-1.49367e-14
5.44728e-15
1.90366e-11
-1.42996e-14
4.20546e-15
1.79024e-11
-1.36432e-14
3.0956e-15
1.68506e-11
-1.3082e-14
2.09626e-15
1.58732e-11
-1.22821e-14
1.20803e-15
1.49648e-11
4.43564e-16
1.41263e-11
-1.43332e-15
3.75457e-13
1.23781e-14
3.17271e-11
-3.44448e-14
1.21941e-14
2.88334e-11
-2.68163e-14
9.86537e-15
2.62502e-11
-2.50366e-14
7.84357e-15
2.39379e-11
-2.33653e-14
6.10986e-15
2.18713e-11
-2.18598e-14
4.61803e-15
2.00194e-11
-2.04747e-14
3.33214e-15
1.83559e-11
-1.92187e-14
2.21331e-15
1.68589e-11
-1.77195e-14
1.24875e-15
1.55091e-11
4.38835e-16
1.42995e-11
-2.18575e-15
3.66749e-13
1.58927e-14
4.16531e-11
-5.37474e-14
1.49701e-14
3.65692e-11
-4.04618e-14
1.17371e-14
3.2215e-11
-3.67858e-14
9.07551e-15
2.84679e-11
-3.35057e-14
6.89285e-15
2.52416e-11
-3.06326e-14
5.09001e-15
2.24515e-11
-2.81379e-14
3.58722e-15
2.00301e-11
-2.58901e-14
2.33772e-15
1.79217e-11
-2.34456e-14
1.29801e-15
1.60786e-11
4.58614e-16
1.44764e-11
-2.94448e-15
3.45037e-13
2.06742e-14
5.56289e-11
-9.24581e-14
1.86962e-14
4.6992e-11
-5.84447e-14
1.41511e-14
3.99214e-11
-5.16008e-14
1.05886e-14
3.40911e-11
-4.57859e-14
7.81497e-15
2.92698e-11
-4.0902e-14
5.61698e-15
2.5256e-11
-3.67163e-14
3.87202e-15
2.18961e-11
-3.30956e-14
2.471e-15
1.90681e-11
-2.94196e-14
1.34544e-15
1.66744e-11
4.5823e-16
1.46556e-11
-3.77779e-15
2.99125e-13
4.21943e-14
7.57182e-11
-1.54241e-13
3.86868e-14
6.12655e-11
-8.25662e-14
2.49313e-14
4.99935e-11
-7.04777e-14
1.56038e-14
4.11317e-11
-6.07868e-14
1.12366e-14
3.41128e-11
-5.28563e-14
7.9502e-15
2.8502e-11
-4.63577e-14
5.43016e-15
2.39797e-11
-4.09163e-14
3.49171e-15
2.03059e-11
-3.57176e-14
1.97933e-15
1.72984e-11
7.88921e-16
1.48381e-11
-4.61501e-15
2.23546e-13
-5.21164e-14
1.05291e-10
-2.30022e-13
-6.14916e-14
8.11474e-11
-1.15045e-13
-7.26909e-14
6.33267e-11
-9.46409e-14
-8.01847e-14
5.00227e-11
-7.90037e-14
-8.5329e-14
3.9969e-11
-6.6817e-14
-8.8894e-14
3.22731e-11
-5.71043e-14
-9.13835e-14
2.63124e-11
-4.92881e-14
-9.31445e-14
2.16451e-11
-4.2166e-14
-9.44001e-14
1.7952e-11
-9.60832e-14
1.50251e-11
-5.52184e-15
1.72731e-12
-4.06023e-10
1.53088e-10
1.17468e-12
-4.2203e-10
1.11914e-10
1.06324e-12
-4.22778e-10
8.39912e-11
9.64258e-13
-4.23231e-10
6.44101e-11
8.76198e-13
-4.23523e-10
5.0466e-11
7.98238e-13
-4.23698e-10
4.0377e-11
7.29286e-13
-4.23791e-10
3.29773e-11
6.68258e-13
-4.23823e-10
2.7485e-11
6.11838e-13
-4.23817e-10
2.33636e-11
-4.27572e-10
2.03091e-11
-6.46011e-15
-6.04022e-11
7.3867e-08
-8.87506e-07
1.68159e-10
6.19297e-08
-9.38202e-07
1.65489e-10
5.36893e-08
-9.39901e-07
1.59519e-10
4.69658e-08
-9.41283e-07
1.53509e-10
4.14109e-08
-9.42469e-07
1.47616e-10
3.67729e-08
-9.435e-07
1.41935e-10
3.28632e-08
-9.44406e-07
1.36325e-10
2.9539e-08
-9.45211e-07
1.00555e-10
2.6691e-08
-9.45949e-07
2.44429e-08
-7.44435e-15
-9.64136e-07
3.4384e-13
9.28217e-14
3.127e-13
-2.03319e-14
8.73098e-14
3.07049e-13
-2.59846e-14
7.68773e-14
3.01904e-13
-2.54095e-14
6.67819e-14
2.95556e-13
-2.51271e-14
5.70308e-14
2.89837e-13
-2.48963e-14
4.76083e-14
2.84882e-13
-2.47225e-14
3.85055e-14
2.79185e-13
-2.45193e-14
2.97179e-14
2.7436e-13
-2.66512e-14
2.12008e-14
2.69452e-13
1.30572e-14
2.6438e-13
-1.58532e-15
2.83616e-13
8.82443e-14
4.37231e-13
-7.44695e-14
8.00047e-14
4.14382e-13
-8.8386e-14
6.77339e-14
3.93463e-13
-8.55148e-14
5.60492e-14
3.71866e-13
-8.30876e-14
4.48889e-14
3.52164e-13
-8.07779e-14
3.3724e-14
3.33245e-13
-7.8481e-14
2.19158e-14
3.16054e-13
-7.67713e-14
1.42722e-14
2.99763e-13
-8.14555e-14
7.88861e-15
2.85007e-13
2.61097e-15
2.69954e-13
-4.34396e-15
1.93189e-13
1.11607e-13
6.20499e-13
-1.88458e-13
9.90217e-14
5.65074e-13
-1.688e-13
8.26168e-14
5.1811e-13
-1.60214e-13
6.7654e-14
4.71065e-13
-1.52512e-13
5.41616e-14
4.2971e-13
-1.45323e-13
4.19891e-14
3.92667e-13
-1.3858e-13
3.09979e-14
3.59207e-13
-1.32653e-13
2.11035e-14
3.2902e-13
-1.38795e-13
1.22122e-14
3.01731e-13
4.28059e-15
2.76741e-13
-7.08721e-15
6.7978e-14
1.37708e-13
8.99219e-13
-3.24948e-13
1.18697e-13
7.85961e-13
-2.72653e-13
9.66754e-14
6.91533e-13
-2.52918e-13
7.73592e-14
6.03915e-13
-2.35625e-13
6.05402e-14
5.29427e-13
-2.19972e-13
4.59063e-14
4.65375e-13
-2.05541e-13
3.32086e-14
4.10442e-13
-1.92845e-13
2.21763e-14
3.63394e-13
-1.98004e-13
1.25781e-14
3.21347e-13
4.32966e-15
2.8382e-13
-1.00241e-14
-6.33497e-14
1.71943e-13
1.33396e-12
-4.9936e-13
1.43706e-13
1.11448e-12
-4.06467e-13
1.13991e-13
9.37369e-13
-3.68115e-13
8.89062e-14
7.82744e-13
-3.35213e-13
6.79169e-14
6.58197e-13
-3.05967e-13
5.03423e-14
5.56081e-13
-2.79971e-13
3.56121e-14
4.71638e-13
-2.5763e-13
2.32853e-14
4.01944e-13
-2.59411e-13
1.29578e-14
3.4353e-13
4.37275e-15
2.9216e-13
-1.31772e-14
-2.25515e-13
2.17433e-13
2.03201e-12
-7.28699e-13
1.75982e-13
1.60936e-12
-5.79454e-13
1.35502e-13
1.28826e-12
-5.11243e-13
1.02826e-13
1.02553e-12
-4.54293e-13
7.65217e-14
8.24433e-13
-4.05222e-13
5.53112e-14
6.67863e-13
-3.62734e-13
3.82442e-14
5.44881e-13
-3.27006e-13
2.44666e-14
4.47437e-13
-3.23214e-13
1.33671e-14
3.69255e-13
4.40247e-15
3.02011e-13
-1.62351e-14
-6.83181e-13
2.76332e-13
3.17832e-12
-1.03568e-12
2.17352e-13
2.37668e-12
-8.03201e-13
1.6223e-13
1.79725e-12
-6.89356e-13
1.19558e-13
1.35775e-12
-5.96925e-13
8.66268e-14
1.04073e-12
-5.1946e-13
6.11962e-14
8.06793e-13
-4.54691e-13
4.14559e-14
6.31678e-13
-4.01108e-13
2.61462e-14
4.99835e-13
-3.89561e-13
1.42093e-14
3.97052e-13
4.95083e-15
3.13295e-13
-1.9319e-14
-1.23907e-12
3.30658e-13
5.12872e-12
-1.45073e-12
2.41141e-13
3.59064e-12
-1.09362e-12
1.71188e-13
2.54915e-12
-9.11036e-13
1.20791e-13
1.82102e-12
-7.67076e-13
8.41124e-14
1.32658e-12
-6.51099e-13
5.71133e-14
9.80782e-13
-5.56502e-13
3.70698e-14
7.36457e-13
-4.80624e-13
2.20718e-14
5.59492e-13
-4.58124e-13
1.07826e-14
4.29068e-13
2.30669e-15
3.25491e-13
-2.25501e-14
-2.08631e-12
1.08879e-11
8.84472e-12
-1.96893e-12
-3.02791e-12
5.00622e-12
-1.39914e-12
-3.25715e-12
3.29775e-12
-1.14462e-12
-3.49452e-12
2.21879e-12
-9.48521e-13
-3.77093e-12
1.54668e-12
-7.93228e-13
-4.06899e-12
1.1138e-12
-6.6931e-13
-4.37743e-12
8.28306e-13
-5.71834e-13
-4.68864e-12
6.36066e-13
-5.45327e-13
-4.99777e-12
5.01845e-13
-5.28754e-12
3.98057e-13
-2.58023e-14
-3.92356e-10
4.24382e-09
4.584e-08
-1.82405e-10
1.65684e-09
-9.87356e-10
-1.77548e-10
1.22714e-09
-1.01584e-09
-1.68829e-10
9.3259e-10
-9.88236e-10
-1.60753e-10
7.21484e-10
-9.59883e-10
-1.53289e-10
5.67144e-10
-9.32474e-10
-1.4639e-10
4.52316e-10
-9.06723e-10
-1.40015e-10
3.65539e-10
-8.82993e-10
-1.34475e-10
2.99032e-10
-8.62478e-10
2.46915e-10
-2.92583e-14
-8.50849e-10
3.4739e-13
8.17153e-14
1.29124e-14
-1.77608e-14
7.75902e-14
1.13157e-14
-2.13889e-14
6.84587e-14
9.89526e-15
-1.99314e-14
5.96384e-14
8.46322e-15
-1.88411e-14
5.11136e-14
7.00953e-15
-1.97305e-14
4.28371e-14
5.18035e-15
-1.87762e-14
3.48824e-14
4.34009e-15
-1.91022e-14
2.71739e-14
3.69378e-15
-2.33816e-14
1.97212e-14
2.94937e-15
1.25871e-14
2.87864e-15
-1.39732e-15
2.9621e-13
5.87331e-14
2.08378e-14
-6.56599e-14
5.39597e-14
1.8352e-14
-7.01662e-14
4.57217e-14
1.82199e-14
-6.59715e-14
3.79075e-14
1.4627e-14
-6.45213e-14
3.06184e-14
1.20235e-14
-6.18902e-14
2.38792e-14
1.00495e-14
-6.02283e-14
1.76413e-14
7.80324e-15
-5.96382e-14
1.19465e-14
6.28646e-15
-7.12663e-14
6.81521e-15
5.63079e-15
2.38059e-15
4.34277e-15
-4.4127e-15
2.18182e-13
7.49893e-14
3.07698e-14
-1.65669e-13
6.7706e-14
2.82655e-14
-1.32882e-13
5.68912e-14
2.85936e-14
-1.22726e-13
4.70019e-14
2.38994e-14
-1.16307e-13
3.80161e-14
1.97251e-14
-1.10502e-13
2.98032e-14
1.58037e-14
-1.04601e-13
2.23682e-14
1.35012e-14
-1.02793e-13
1.60375e-14
1.15163e-14
-1.21189e-13
9.38844e-15
9.58342e-15
3.32428e-15
7.56764e-15
-7.25526e-15
9.65223e-14
9.31553e-14
4.98846e-14
-2.89102e-13
8.15265e-14
4.8087e-14
-2.12325e-13
6.68626e-14
4.79366e-14
-1.85137e-13
5.3934e-14
3.9146e-14
-1.7225e-13
4.26742e-14
3.25231e-14
-1.60467e-13
3.28125e-14
2.70519e-14
-1.47894e-13
2.41893e-14
2.28384e-14
-1.48719e-13
1.66095e-14
1.92943e-14
-1.72994e-13
9.67518e-15
1.71594e-14
3.42342e-15
1.21679e-14
-1.03485e-14
-2.06419e-14
1.17372e-13
8.61984e-14
-4.45568e-13
9.91218e-14
8.3403e-14
-3.01202e-13
7.91294e-14
7.91979e-14
-2.634e-13
6.21928e-14
6.49955e-14
-2.39799e-13
4.79893e-14
5.28758e-14
-2.18431e-13
3.60754e-14
4.34568e-14
-1.98923e-13
2.61557e-14
3.68057e-14
-1.9149e-13
1.79443e-14
3.16736e-14
-2.26714e-13
1.017e-14
2.72855e-14
3.50551e-15
1.87094e-14
-1.33121e-14
-1.56212e-13
1.49939e-13
1.51651e-13
-6.50415e-13
1.22303e-13
1.47095e-13
-4.17126e-13
9.45184e-14
1.31338e-13
-3.61417e-13
7.21854e-14
1.04999e-13
-3.20752e-13
5.42562e-14
8.45457e-14
-2.85408e-13
3.97311e-14
6.85437e-14
-2.54676e-13
2.80106e-14
5.67527e-14
-2.33777e-13
1.89124e-14
4.78842e-14
-2.82604e-13
1.03872e-14
3.97153e-14
3.53069e-15
2.71259e-14
-1.65167e-14
-5.67835e-13
1.94233e-13
2.68732e-13
-9.24546e-13
1.52512e-13
2.5589e-13
-5.69643e-13
1.1391e-13
2.15265e-13
-4.82928e-13
8.43693e-14
1.67068e-13
-4.17456e-13
6.16481e-14
1.30824e-13
-3.62285e-13
4.40464e-14
1.03878e-13
-3.15823e-13
3.06538e-14
8.42605e-14
-2.82475e-13
1.98844e-14
6.88661e-14
-3.4047e-13
1.08343e-14
5.6994e-14
3.68777e-15
3.74288e-14
-1.9719e-14
-1.0942e-12
3.04709e-13
4.84407e-13
-1.29396e-12
2.90788e-13
4.42328e-13
-7.69276e-13
2.06601e-13
3.50653e-13
-6.34494e-13
1.4494e-13
2.60204e-13
-5.32801e-13
1.00559e-13
1.97274e-13
-4.50326e-13
6.81201e-14
1.52771e-13
-3.84023e-13
4.40214e-14
1.19828e-13
-3.33913e-13
2.57646e-14
9.594e-14
-4.00497e-13
1.10979e-14
7.80221e-14
3.45549e-15
4.90964e-14
-2.3041e-14
-1.94178e-12
1.42024e-11
2.05587e-12
-1.78679e-12
7.46099e-13
7.49255e-13
-1.03116e-12
4.72254e-13
5.52776e-13
-8.23518e-13
3.16722e-13
3.95185e-13
-6.70385e-13
2.06191e-13
2.89638e-13
-5.51897e-13
1.26958e-13
2.16939e-13
-4.58925e-13
6.97024e-14
1.65911e-13
-3.89638e-13
2.81151e-14
1.2915e-13
-4.63507e-13
-2.23366e-15
1.02533e-13
-2.3749e-14
6.48068e-14
-2.63886e-14
-1.90708e-10
2.4323e-09
4.24422e-08
-1.06491e-11
4.36745e-11
4.30881e-11
-1.05772e-11
1.82888e-11
-1.24455e-12
-8.67684e-12
1.19231e-11
-2.55663e-13
-7.17379e-12
8.05884e-12
6.43606e-13
-5.99756e-12
5.59876e-12
1.28715e-12
-5.06428e-12
3.98493e-12
1.7496e-12
-4.31722e-12
2.89594e-12
2.08047e-12
-3.72121e-12
2.14491e-12
2.31409e-12
1.56808e-12
-2.99489e-14
3.52034e-12
3.47381e-13
8.11962e-14
1.06854e-14
-1.78704e-14
7.71408e-14
9.68874e-15
-2.11383e-14
6.80907e-14
8.25632e-15
-1.96419e-14
5.93106e-14
6.29582e-15
-1.92189e-14
5.08465e-14
4.17793e-15
-1.93033e-14
4.2654e-14
3.37167e-15
-1.77317e-14
3.47347e-14
2.00399e-15
-1.91232e-14
2.70706e-14
8.09275e-16
-2.31686e-14
1.96861e-14
4.34931e-16
1.25889e-14
1.46932e-16
-1.52612e-15
2.96715e-13
5.81303e-14
1.86201e-14
-6.53479e-14
5.34506e-14
1.65177e-14
-6.95122e-14
4.52885e-14
1.6623e-14
-6.45089e-14
3.75924e-14
1.30431e-14
-6.2944e-14
3.03774e-14
9.26382e-15
-6.09722e-14
2.36797e-14
6.88144e-15
-5.90252e-14
1.75327e-14
5.41058e-15
-5.82812e-14
1.18976e-14
4.14335e-15
-7.08323e-14
6.79216e-15
2.77714e-15
2.40218e-15
1.6184e-15
-4.35307e-15
2.19531e-13
7.39915e-14
2.67515e-14
-1.64619e-13
6.68495e-14
2.5291e-14
-1.30251e-13
5.61507e-14
2.70369e-14
-1.16064e-13
4.6283e-14
2.07028e-14
-1.12257e-13
3.73926e-14
1.70021e-14
-1.03681e-13
2.93232e-14
1.4356e-14
-9.89089e-14
2.18451e-14
1.10123e-14
-1.01447e-13
1.5075e-14
9.22541e-15
-1.20276e-13
9.3216e-15
7.89991e-15
3.20837e-15
5.56066e-15
-7.23185e-15
9.83487e-14
9.19146e-14
4.40882e-14
-2.87169e-13
8.04422e-14
4.43685e-14
-2.04941e-13
6.59237e-14
4.69527e-14
-1.79068e-13
5.31855e-14
3.81873e-14
-1.6705e-13
4.1978e-14
3.11071e-14
-1.55445e-13
3.21454e-14
2.66889e-14
-1.4456e-13
2.3573e-14
2.16124e-14
-1.43632e-13
1.60373e-14
1.87136e-14
-1.71922e-13
9.53574e-15
1.57739e-14
3.46057e-15
1.0583e-14
-1.03875e-14
-1.76259e-14
1.15749e-13
7.80777e-14
-4.42392e-13
9.78461e-14
8.18379e-14
-2.90248e-13
7.80632e-14
8.06246e-14
-2.58059e-13
6.12967e-14
6.50774e-14
-2.34821e-13
4.72814e-14
5.42566e-14
-2.13662e-13
3.54613e-14
4.47979e-14
-1.94874e-13
2.54537e-14
3.77155e-14
-1.83853e-13
1.71071e-14
3.24796e-14
-2.25405e-13
9.9137e-15
2.88093e-14
3.57498e-15
1.95727e-14
-1.33463e-14
-1.51826e-13
1.47772e-13
1.37229e-13
-6.45456e-13
1.20655e-13
1.4424e-13
-4.07667e-13
9.32204e-14
1.36647e-13
-3.54931e-13
7.12e-14
1.09745e-13
-3.15289e-13
5.3451e-14
8.93988e-14
-2.80456e-13
3.90587e-14
7.42117e-14
-2.50236e-13
2.74217e-14
6.20424e-14
-2.29813e-13
1.79799e-14
5.16306e-14
-2.8091e-13
1.04071e-14
4.52895e-14
3.64631e-15
2.93316e-14
-1.66319e-14
-5.57231e-13
1.91444e-13
2.45322e-13
-9.16715e-13
1.50446e-13
2.57284e-13
-5.59108e-13
1.12418e-13
2.26574e-13
-4.75369e-13
8.31929e-14
1.78225e-13
-4.11141e-13
6.07281e-14
1.42001e-13
-3.56787e-13
4.33141e-14
1.15547e-13
-3.11581e-13
2.96694e-14
9.34703e-14
-2.78039e-13
1.90479e-14
7.83852e-14
-3.38793e-13
1.08509e-14
6.64003e-14
3.62165e-15
4.24122e-14
-1.98507e-14
-1.0779e-12
3.01918e-13
4.38679e-13
-1.28116e-12
1.80295e-13
4.483e-13
-7.57215e-13
1.39154e-13
3.70401e-13
-6.25307e-13
1.00252e-13
2.8349e-13
-5.25393e-13
7.22332e-14
2.19743e-13
-4.44692e-13
5.38508e-14
1.72779e-13
-3.79328e-13
3.63443e-14
1.37445e-13
-3.29451e-13
2.27768e-14
1.11599e-13
-3.99059e-13
1.24068e-14
9.13365e-14
4.5978e-15
5.98026e-14
-2.30393e-14
-1.91951e-12
1.4214e-11
2.82453e-12
-1.7669e-12
3.44963e-13
7.89808e-13
-1.01734e-12
2.59932e-13
6.03483e-13
-8.13356e-13
1.72169e-13
4.42572e-13
-6.62607e-13
1.1461e-13
3.29199e-13
-5.45735e-13
7.47107e-14
2.51579e-13
-4.54064e-13
4.67027e-14
1.9498e-13
-3.85105e-13
2.67666e-14
1.54583e-13
-4.61277e-13
1.21938e-14
1.22453e-13
2.86766e-15
7.49596e-14
-2.65356e-14
-1.82164e-10
3.65786e-09
4.29866e-08
-2.66592e-12
1.83577e-11
5.14756e-11
-1.41865e-12
1.30446e-12
5.94079e-13
-1.16123e-12
8.47687e-13
4.38874e-13
-9.11622e-13
5.93758e-13
3.39647e-13
-7.26381e-13
4.28455e-13
1.8546e-13
-5.86746e-13
3.1691e-13
1.48797e-13
-4.85319e-13
2.39169e-13
1.28506e-13
-5.55e-13
1.83654e-13
1.139e-13
1.12726e-13
-3.00684e-14
9.94567e-14
3.47248e-13
8.13208e-14
1.86016e-14
-1.81697e-14
7.7242e-14
1.62887e-14
-2.12468e-14
6.81835e-14
1.24186e-14
-2.02041e-14
5.93898e-14
8.23847e-15
-1.83644e-14
5.09045e-14
8.33727e-15
-1.95062e-14
4.26907e-14
3.99401e-15
-1.89826e-14
3.47807e-14
4.29916e-15
-1.88406e-14
2.71347e-14
3.27158e-15
-2.31897e-14
1.97267e-14
8.90741e-16
1.26252e-14
2.91169e-16
-1.68463e-15
2.96427e-13
5.82641e-14
2.91877e-14
-6.56633e-14
5.35721e-14
2.41491e-14
-6.96331e-14
4.53889e-14
2.1556e-14
-6.5382e-14
3.76517e-14
1.76071e-14
-6.28639e-14
3.04604e-14
1.23105e-14
-6.0954e-14
2.37631e-14
9.8318e-15
-5.88106e-14
1.75873e-14
6.76521e-15
-5.87156e-14
1.19455e-14
6.74864e-15
-7.08931e-14
6.84664e-15
5.47231e-15
2.4533e-15
2.03377e-15
-4.36413e-15
2.19056e-13
7.41986e-14
4.06727e-14
-1.65282e-13
6.70319e-14
3.61895e-14
-1.31233e-13
5.6324e-14
3.73904e-14
-1.15521e-13
4.6474e-14
3.06733e-14
-1.11024e-13
3.75026e-14
2.39113e-14
-1.04703e-13
2.94311e-14
1.81341e-14
-9.87003e-14
2.19569e-14
1.58903e-14
-1.01657e-13
1.51867e-14
1.23942e-14
-1.20308e-13
9.24733e-15
1.35167e-14
3.09899e-15
6.7014e-15
-7.42895e-15
9.78274e-14
9.22943e-14
6.95657e-14
-2.88061e-13
8.07933e-14
6.4782e-14
-2.06059e-13
6.61777e-14
6.45681e-14
-1.79675e-13
5.33774e-14
5.27643e-14
-1.66908e-13
4.21832e-14
4.4104e-14
-1.56224e-13
3.22566e-14
3.38089e-14
-1.44492e-13
2.36872e-14
3.43451e-14
-1.4455e-13
1.6163e-14
2.64468e-14
-1.72105e-13
9.8112e-15
2.55779e-14
3.69473e-15
1.91317e-14
-1.02347e-14
-1.85714e-14
1.16303e-13
1.08316e-13
-4.43981e-13
9.83001e-14
1.12371e-13
-2.91357e-13
7.84794e-14
1.11876e-13
-2.58474e-13
6.16524e-14
9.25319e-14
-2.35651e-13
4.75526e-14
7.78498e-14
-2.14129e-13
3.57535e-14
6.81256e-14
-1.9523e-13
2.57167e-14
5.71439e-14
-1.8397e-13
1.71926e-14
4.54791e-14
-2.25796e-13
9.95176e-15
4.06107e-14
3.62882e-15
2.50635e-14
-1.34003e-14
-1.53421e-13
1.4868e-13
1.98819e-13
-6.4788e-13
1.21439e-13
2.0571e-13
-4.0935e-13
9.38301e-14
1.8773e-13
-3.56158e-13
7.16898e-14
1.51508e-13
-3.16176e-13
5.38641e-14
1.22291e-13
-2.81338e-13
3.93881e-14
1.03637e-13
-2.51089e-13
2.76504e-14
8.28197e-14
-2.30075e-13
1.82946e-14
7.65622e-14
-2.81661e-13
1.0689e-14
6.15549e-14
3.8407e-15
4.00147e-14
-1.65601e-14
-5.61682e-13
1.92872e-13
3.47264e-13
-9.20968e-13
1.51576e-13
3.55453e-13
-5.61669e-13
1.13303e-13
3.15979e-13
-4.77391e-13
8.39055e-14
2.43117e-13
-4.1273e-13
6.13075e-14
1.98079e-13
-3.58389e-13
4.37687e-14
1.55922e-13
-3.12624e-13
3.00629e-14
1.2904e-13
-2.78875e-13
1.92643e-14
1.05788e-13
-3.40041e-13
1.10831e-14
8.82338e-14
3.99224e-15
5.79171e-14
-1.98255e-14
-1.08637e-12
3.04605e-13
6.16842e-13
-1.28824e-12
1.81362e-13
6.2538e-13
-7.6135e-13
1.39213e-13
5.08407e-13
-6.28673e-13
1.00065e-13
3.86579e-13
-5.28118e-13
7.15537e-14
3.00147e-13
-4.47013e-13
5.30543e-14
2.34197e-13
-3.81132e-13
3.63405e-14
1.89919e-13
-3.31036e-13
2.295e-14
1.528e-13
-4.00801e-13
1.2606e-14
1.25246e-13
4.79374e-15
8.09102e-14
-2.31497e-14
-1.9356e-12
1.42933e-11
3.82452e-12
-1.77871e-12
3.37059e-13
1.08884e-12
-1.02423e-12
2.374e-13
8.2433e-13
-8.18879e-13
1.63187e-13
6.00356e-13
-6.66799e-13
1.06289e-13
4.53574e-13
-5.49268e-13
6.54157e-14
3.44594e-13
-4.56768e-13
3.06583e-14
2.659e-13
-3.87515e-13
1.69051e-14
2.08352e-13
-4.64009e-13
8.67133e-15
1.69262e-13
3.26042e-15
1.11161e-13
-2.65517e-14
-1.84489e-10
4.89628e-09
4.40564e-08
-2.51325e-12
2.65582e-11
5.33652e-11
-1.30397e-12
1.26334e-12
2.3122e-13
-1.05904e-12
8.44882e-13
9.64404e-14
-8.34412e-13
6.07919e-13
6.84489e-14
-6.67216e-13
4.48658e-13
5.17805e-14
-5.40924e-13
3.38108e-13
4.0211e-14
-4.47455e-13
2.59511e-13
3.18094e-14
-5.29619e-13
2.01466e-13
2.5516e-14
1.23466e-13
-3.01608e-14
2.07913e-14
3.46963e-13
8.1484e-14
1.95719e-14
-1.85306e-14
7.73808e-14
1.53134e-14
-2.17445e-14
6.8283e-14
1.72858e-14
-1.98929e-14
5.9492e-14
1.31023e-14
-1.96828e-14
5.09641e-14
7.40819e-15
-1.9229e-14
4.27579e-14
4.9949e-15
-1.88837e-14
3.48217e-14
2.49205e-15
-1.93314e-14
2.71763e-14
1.44294e-15
-2.32347e-14
1.97834e-14
8.6513e-16
1.26651e-14
4.51096e-16
-1.52677e-15
2.95984e-13
5.84462e-14
3.46817e-14
-6.61888e-14
5.37323e-14
3.23943e-14
-6.95524e-14
4.5541e-14
3.14173e-14
-6.63039e-14
3.77676e-14
2.27571e-14
-6.24936e-14
3.05754e-14
2.03524e-14
-6.15493e-14
2.385e-14
1.26447e-14
-5.82156e-14
1.76736e-14
9.036e-15
-5.87371e-14
1.20144e-14
5.65497e-15
-7.10702e-14
6.91635e-15
5.098e-15
2.51281e-15
3.30671e-15
-4.37996e-15
2.18338e-13
7.45195e-14
4.72982e-14
-1.66221e-13
6.73026e-14
4.89283e-14
-1.3168e-13
5.65401e-14
4.86861e-14
-1.15996e-13
4.66624e-14
4.1595e-14
-1.11738e-13
3.76568e-14
3.20348e-14
-1.04523e-13
2.95194e-14
2.58067e-14
-9.92656e-14
2.21389e-14
1.85264e-14
-1.01188e-13
1.53847e-14
1.92733e-14
-1.20571e-13
9.23027e-15
1.27069e-14
3.4899e-15
9.26096e-15
-7.39686e-15
9.7015e-14
9.27567e-14
8.47417e-14
-2.89379e-13
8.12152e-14
8.48694e-14
-2.06389e-13
6.65445e-14
8.57878e-14
-1.80132e-13
5.36917e-14
7.16089e-14
-1.68191e-13
4.24754e-14
5.59843e-14
-1.55598e-13
3.25865e-14
4.66785e-14
-1.45264e-13
2.38615e-14
3.57964e-14
-1.44759e-13
1.62764e-14
3.52213e-14
-1.72318e-13
9.94014e-15
2.78856e-14
3.67984e-15
1.68318e-14
-1.03296e-14
-1.99215e-14
1.17116e-13
1.50355e-13
-4.46005e-13
9.89866e-14
1.53203e-13
-2.92683e-13
7.90195e-14
1.49697e-13
-2.59412e-13
6.20997e-14
1.22264e-13
-2.36375e-13
4.7886e-14
9.9604e-14
-2.15019e-13
3.60325e-14
8.01565e-14
-1.9578e-13
2.59384e-14
6.3216e-14
-1.84247e-13
1.74757e-14
5.56608e-14
-2.26375e-13
1.01639e-14
4.61151e-14
3.91899e-15
3.12212e-14
-1.33541e-14
-1.55652e-13
1.49912e-13
2.44919e-13
-6.51316e-13
1.22442e-13
2.72663e-13
-4.11415e-13
9.46722e-14
2.51887e-13
-3.57918e-13
7.23444e-14
2.004e-13
-3.17302e-13
5.44507e-14
1.63111e-13
-2.82851e-13
3.98156e-14
1.23898e-13
-2.51804e-13
2.80522e-14
1.10468e-13
-2.30959e-13
1.84717e-14
8.57428e-14
-2.82641e-13
1.09607e-14
7.38144e-14
4.05679e-15
4.82654e-14
-1.65302e-14
-5.6801e-13
1.94807e-13
4.46115e-13
-9.26567e-13
1.53151e-13
4.84309e-13
-5.65472e-13
1.14477e-13
4.11663e-13
-4.79894e-13
8.48597e-14
3.25867e-13
-4.15243e-13
6.20293e-14
2.46683e-13
-3.60197e-13
4.438e-14
1.98932e-13
-3.14317e-13
3.05837e-14
1.58191e-13
-2.80057e-13
1.97215e-14
1.34745e-13
-3.41615e-13
1.14429e-14
1.09533e-13
4.34312e-15
6.82028e-14
-1.98071e-14
-1.09798e-12
3.08346e-13
8.0471e-13
-1.298e-12
1.83579e-13
8.40732e-13
-7.67038e-13
1.40934e-13
6.7894e-13
-6.33192e-13
1.01342e-13
5.10482e-13
-5.31863e-13
7.25685e-14
3.8231e-13
-4.49921e-13
5.37441e-14
2.99259e-13
-3.83738e-13
3.69711e-14
2.30317e-13
-3.33115e-13
2.3502e-14
1.87058e-13
-4.03135e-13
1.30692e-14
1.52417e-13
5.1771e-15
9.40623e-14
-2.31622e-14
-1.95881e-12
1.46486e-11
5.15445e-12
-1.79464e-12
3.41897e-13
1.46984e-12
-1.03373e-12
2.39012e-13
1.09967e-12
-8.26051e-13
1.65514e-13
7.9647e-13
-6.72643e-13
1.07933e-13
5.68947e-13
-5.53959e-13
6.65815e-14
4.24778e-13
-4.60478e-13
3.14236e-14
3.21848e-13
-3.90629e-13
1.74465e-14
2.58246e-13
-4.67475e-13
9.05277e-15
2.03235e-13
3.64923e-15
1.23929e-13
-2.66944e-14
-1.9019e-10
7.37092e-09
4.55245e-08
-2.54274e-12
3.85194e-11
5.55285e-11
-1.31688e-12
1.81614e-12
2.26252e-13
-1.06958e-12
1.17778e-12
8.33854e-14
-8.42481e-13
8.36838e-13
6.33923e-14
-6.73585e-13
6.05778e-13
4.93982e-14
-5.46073e-13
4.45325e-13
3.917e-14
-4.51714e-13
3.35459e-13
3.1581e-14
-5.34385e-13
2.63491e-13
2.58435e-14
1.57495e-13
-3.0285e-14
2.15566e-14
3.46509e-13
8.16878e-14
2.75431e-14
-1.88487e-14
7.75707e-14
2.65576e-14
-2.21887e-14
6.84195e-14
2.15444e-14
-2.0384e-14
5.96021e-14
1.67018e-14
-1.97937e-14
5.10801e-14
1.01588e-14
-1.97814e-14
4.2846e-14
5.52614e-15
-1.86753e-14
3.49112e-14
3.83558e-15
-1.92923e-14
2.72369e-14
2.88937e-15
-2.32745e-14
1.98438e-14
2.57465e-15
1.27367e-14
4.31016e-15
-1.59768e-15
2.95438e-13
5.86618e-14
4.61855e-14
-6.67444e-14
5.39269e-14
4.32934e-14
-7.01699e-14
4.57057e-14
4.19983e-14
-6.59973e-14
3.79232e-14
3.20769e-14
-6.37902e-14
3.06795e-14
2.28035e-14
-6.12758e-14
2.39604e-14
1.29097e-14
-5.93899e-14
1.77658e-14
9.41672e-15
-5.85289e-14
1.21273e-14
8.45235e-15
-7.10518e-14
6.99817e-15
6.73125e-15
2.5814e-15
6.6966e-15
-4.42051e-15
2.17495e-13
7.49032e-14
6.79959e-14
-1.67378e-13
6.76224e-14
6.64966e-14
-1.31857e-13
5.6812e-14
6.72481e-14
-1.17501e-13
4.68776e-14
5.32501e-14
-1.11397e-13
3.78628e-14
4.16446e-14
-1.05759e-13
2.96904e-14
2.65875e-14
-9.8357e-14
2.23125e-14
1.9679e-14
-1.02146e-13
1.54558e-14
1.59364e-14
-1.2065e-13
9.52814e-15
1.51017e-14
3.38598e-15
1.33367e-14
-7.48295e-15
9.60307e-14
9.33698e-14
1.091e-13
-2.90985e-13
8.17421e-14
1.14364e-13
-2.06417e-13
6.69933e-14
1.1471e-13
-1.81173e-13
5.40727e-14
9.22263e-14
-1.6856e-13
4.28169e-14
7.50716e-14
-1.56446e-13
3.28992e-14
6.04463e-14
-1.45157e-13
2.40881e-14
3.99701e-14
-1.45284e-13
1.64863e-14
3.18727e-14
-1.72791e-13
9.89512e-15
2.77871e-14
4.00665e-15
2.47137e-14
-1.02811e-14
-2.16883e-14
1.18068e-13
1.91808e-13
-4.48485e-13
9.98069e-14
2.03002e-13
-2.94198e-13
7.96939e-14
1.94258e-13
-2.60653e-13
6.26419e-14
1.56764e-13
-2.3722e-13
4.8347e-14
1.2732e-13
-2.16233e-13
3.6386e-14
1.04891e-13
-1.96149e-13
2.63154e-14
7.33709e-14
-1.85443e-13
1.7681e-14
5.75593e-14
-2.26966e-13
1.05502e-14
4.7169e-14
4.14116e-15
3.63073e-14
-1.34543e-14
-1.58419e-13
1.51456e-13
3.44147e-13
-6.5543e-13
1.23694e-13
3.58934e-13
-4.14078e-13
9.56623e-14
3.26256e-13
-3.59862e-13
7.31757e-14
2.60729e-13
-3.19119e-13
5.5109e-14
2.09654e-13
-2.841e-13
4.03916e-14
1.71829e-13
-2.53311e-13
2.84819e-14
1.30261e-13
-2.31627e-13
1.88744e-14
9.30982e-14
-2.83812e-13
1.12982e-14
7.55263e-14
4.32217e-15
4.93663e-14
-1.65428e-14
-5.75842e-13
1.9721e-13
6.12429e-13
-9.33548e-13
1.55051e-13
6.26358e-13
-5.69566e-13
1.15962e-13
5.39738e-13
-4.83456e-13
8.6006e-14
4.20873e-13
-4.17942e-13
6.29465e-14
3.32558e-13
-3.6256e-13
4.51191e-14
2.64555e-13
-3.16469e-13
3.12074e-14
2.09928e-13
-2.81493e-13
2.01648e-14
1.41946e-13
-3.43551e-13
1.18222e-14
1.13426e-13
4.72943e-15
6.95825e-14
-1.97839e-14
-1.11254e-12
3.12887e-13
1.09951e-12
-1.30971e-12
1.86239e-13
1.0938e-12
-7.74123e-13
1.43111e-13
8.87008e-13
-6.38859e-13
1.02997e-13
6.67865e-13
-5.36323e-13
7.38201e-14
5.10834e-13
-4.53618e-13
5.40799e-14
3.95927e-13
-3.86954e-13
3.77694e-14
3.0924e-13
-3.35667e-13
2.42138e-14
2.08821e-13
-4.06013e-13
1.3655e-14
1.60523e-13
5.64452e-15
9.57991e-14
-2.32613e-14
-1.98785e-12
1.5134e-11
6.24663e-12
-1.81404e-12
3.47485e-13
1.92842e-12
-1.04541e-12
2.44588e-13
1.44983e-12
-8.35113e-13
1.68988e-13
1.04606e-12
-6.79803e-13
1.10532e-13
7.71895e-13
-5.59703e-13
6.87206e-14
5.77858e-13
-4.65046e-13
3.26074e-14
4.40453e-13
-3.94489e-13
1.81267e-14
3.18792e-13
-4.71793e-13
9.50222e-15
2.19942e-13
4.12603e-15
1.2943e-13
-2.67347e-14
-2.00802e-10
9.1557e-09
4.91101e-08
-2.57937e-12
4.30273e-11
5.90318e-11
-1.33378e-12
2.41748e-12
2.20365e-13
-1.08372e-12
1.60922e-12
8.37382e-14
-8.53387e-13
1.14053e-12
6.38981e-14
-6.82092e-13
8.24916e-13
4.99554e-14
-5.5288e-13
6.0883e-13
3.97537e-14
-4.57229e-13
4.50651e-13
3.21942e-14
-5.40458e-13
2.93079e-13
2.64818e-14
1.70198e-13
-3.03366e-14
2.22728e-14
3.46096e-13
8.19062e-14
2.64717e-14
-1.94279e-14
7.77101e-14
1.67882e-14
-2.24057e-14
6.85704e-14
1.60553e-14
-2.07529e-14
5.97188e-14
1.26118e-14
-2.01655e-14
5.11871e-14
1.2184e-14
-1.99976e-14
4.29523e-14
1.33582e-14
-1.93248e-14
3.5027e-14
1.72393e-14
-1.95134e-14
2.73763e-14
4.22515e-14
-2.34365e-14
2.00029e-14
1.71392e-13
1.29147e-14
5.91376e-13
-2.30436e-15
2.94758e-13
5.89269e-14
4.30965e-14
-6.72757e-14
5.41274e-14
2.84767e-14
-7.08947e-14
4.58615e-14
3.12132e-14
-6.63453e-14
3.80737e-14
2.53695e-14
-6.42509e-14
3.08127e-14
2.86916e-14
-6.11751e-14
2.40949e-14
2.18587e-14
-5.92025e-14
1.78895e-14
2.34738e-14
-5.99799e-14
1.22441e-14
3.78228e-14
-7.19103e-14
7.16097e-15
1.08323e-13
2.70308e-15
3.82909e-13
-4.16377e-15
2.16441e-13
7.52884e-14
6.20387e-14
-1.68558e-13
6.79327e-14
4.50284e-14
-1.32463e-13
5.71001e-14
5.13022e-14
-1.18604e-13
4.71176e-14
4.31247e-14
-1.11404e-13
3.81193e-14
3.71088e-14
-1.05902e-13
2.9943e-14
3.55925e-14
-9.92877e-14
2.25323e-14
3.72188e-14
-1.01787e-13
1.56513e-14
4.37637e-14
-1.22099e-13
9.3399e-15
8.32618e-14
3.56858e-15
2.54897e-13
-7.02194e-15
9.49653e-14
9.40582e-14
1.03328e-13
-2.92543e-13
8.22756e-14
8.32224e-14
-2.0821e-13
6.74334e-14
9.12488e-14
-1.81798e-13
5.44639e-14
7.74695e-14
-1.68912e-13
4.31376e-14
6.73456e-14
-1.5721e-13
3.31671e-14
4.93868e-14
-1.45977e-13
2.4392e-14
5.92538e-14
-1.44726e-13
1.67956e-14
6.08323e-14
-1.74299e-13
1.00642e-14
8.23461e-14
4.28042e-15
1.8963e-13
-9.9868e-15
-2.36081e-14
1.19172e-13
1.79317e-13
-4.50949e-13
1.0065e-13
1.57197e-13
-2.95716e-13
8.04073e-14
1.60942e-13
-2.61971e-13
6.32664e-14
1.35575e-13
-2.38047e-13
4.88859e-14
1.15689e-13
-2.17203e-13
3.68952e-14
1.32728e-13
-1.97143e-13
2.6638e-14
9.27961e-14
-1.86392e-13
1.79852e-14
8.96334e-14
-2.28721e-13
1.08626e-14
9.8373e-14
4.26449e-15
1.59567e-13
-1.31633e-14
-1.61635e-13
1.53153e-13
3.38829e-13
-6.59417e-13
1.24958e-13
2.91685e-13
-4.16494e-13
9.67102e-14
2.78037e-13
-3.62123e-13
7.4052e-14
2.28986e-13
-3.20457e-13
5.58679e-14
1.9059e-13
-2.8618e-13
4.09999e-14
2.07735e-13
-2.54676e-13
2.90963e-14
1.1555e-13
-2.32887e-13
1.92575e-14
1.33055e-13
-2.86073e-13
1.17088e-14
1.27447e-13
4.80116e-15
1.52716e-13
-1.64395e-14
-5.8486e-13
2.00085e-13
6.6555e-13
-9.40106e-13
1.57009e-13
5.2887e-13
-5.73801e-13
1.17528e-13
4.69649e-13
-4.8692e-13
8.72666e-14
3.74555e-13
-4.20827e-13
6.39514e-14
3.16884e-13
-3.65006e-13
4.59564e-14
3.16722e-13
-3.19291e-13
3.18654e-14
2.64561e-13
-2.83265e-13
2.07304e-14
1.6937e-13
-3.46494e-13
1.22184e-14
1.69614e-13
5.07328e-15
1.61447e-13
-1.97268e-14
-1.12846e-12
3.16785e-13
1.25382e-12
-1.32067e-12
1.90747e-13
9.36192e-13
-7.8124e-13
1.45435e-13
7.76577e-13
-6.4457e-13
1.0478e-13
6.30826e-13
-5.4101e-13
7.52494e-14
5.39119e-13
-4.57425e-13
5.45108e-14
4.76081e-13
-3.91017e-13
3.87809e-14
4.05521e-13
-3.3864e-13
2.50019e-14
2.1572e-13
-4.10129e-13
1.43411e-14
2.26546e-13
6.20826e-15
1.82815e-13
-2.31993e-14
-2.00313e-12
1.17416e-11
5.2725e-12
-1.83381e-12
3.34248e-13
1.78902e-12
-1.05708e-12
2.58148e-13
1.45104e-12
-8.44135e-13
1.72844e-13
1.09972e-12
-6.87355e-13
1.13461e-13
8.64584e-13
-5.65525e-13
7.1154e-14
7.04518e-13
-4.70892e-13
3.40343e-14
5.74947e-13
-3.98903e-13
1.89765e-14
2.86295e-13
-4.77437e-13
1.00478e-14
2.86967e-13
4.70948e-15
2.14471e-13
-2.67629e-14
-1.64783e-10
2.96868e-09
4.62617e-08
-2.45335e-12
1.4095e-11
3.46154e-11
-1.36101e-12
2.5106e-12
1.11653e-13
-1.09816e-12
1.78992e-12
8.39141e-14
-8.64818e-13
1.32804e-12
6.43906e-14