/*--------------------------------*- C++ -*----------------------------------*\
| =========                 |                                                 |
| \\      /  F ield         | OpenFOAM: The Open Source CFD Toolbox           |
|  \\    /   O peration     | Version:  4.1                                   |
|   \\  /    A nd           | Web:      www.OpenFOAM.org                      |
|    \\/     M anipulation  |                                                 |
\*---------------------------------------------------------------------------*/
FoamFile
{
    version     2.0;
    format      ascii;
    class       volVectorField;
    location    "0.3";
    object      U;
}
// * * * * * * * * * * * * * * * * * * * * * * * * * * * * * * * * * * * * * //

dimensions      [0 1 -1 0 0 0 0];

internalField   nonuniform List<vector> 
18000
(
(7.83125e-14 3.91669e-13 -6.41302e-12)
(8.4743e-14 3.89996e-13 -6.33878e-12)
(7.6719e-14 -9.97127e-15 -6.26528e-12)
(6.8882e-14 -1.14718e-14 -6.1929e-12)
(6.12553e-14 -1.13115e-14 -6.1215e-12)
(5.38225e-14 -1.11138e-14 -6.05099e-12)
(4.66023e-14 -1.1049e-14 -5.98143e-12)
(3.96122e-14 -1.0987e-14 -5.91291e-12)
(3.28046e-14 -1.0859e-14 -5.84542e-12)
(2.61958e-14 -8.73223e-15 -5.7796e-12)
(1.05439e-13 4.05802e-13 -8.0695e-12)
(1.22352e-13 3.95912e-13 -7.77767e-12)
(1.07802e-13 -4.07447e-14 -7.4973e-12)
(9.40585e-14 -4.1027e-14 -7.22954e-12)
(8.12325e-14 -3.96594e-14 -6.97345e-12)
(6.92276e-14 -3.82711e-14 -6.72837e-12)
(5.79505e-14 -3.69451e-14 -6.49368e-12)
(4.74381e-14 -3.57197e-14 -6.26897e-12)
(3.75576e-14 -3.45292e-14 -6.05348e-12)
(2.83365e-14 -2.72042e-14 -5.84954e-12)
(1.09039e-13 4.13715e-13 -1.02845e-11)
(1.24284e-13 3.93398e-13 -9.6406e-12)
(1.03333e-13 -8.41553e-14 -9.04227e-12)
(8.45164e-14 -8.09245e-14 -8.48921e-12)
(6.77001e-14 -7.60518e-14 -7.97686e-12)
(5.26487e-14 -7.16827e-14 -7.50187e-12)
(3.91504e-14 -6.7637e-14 -7.06138e-12)
(2.70534e-14 -6.38735e-14 -6.65208e-12)
(1.62082e-14 -6.03486e-14 -6.27163e-12)
(6.51375e-15 -4.63989e-14 -5.92058e-12)
(1.4511e-13 4.10479e-13 -1.32921e-11)
(1.56018e-13 3.77039e-13 -1.20798e-11)
(1.25752e-13 -1.45256e-13 -1.09963e-11)
(9.9839e-14 -1.34389e-13 -1.00283e-11)
(7.77146e-14 -1.22954e-13 -9.16311e-12)
(5.87918e-14 -1.12746e-13 -8.38772e-12)
(4.26294e-14 -1.03607e-13 -7.6912e-12)
(2.87258e-14 -9.53981e-14 -7.06431e-12)
(1.68283e-14 -8.79192e-14 -6.49909e-12)
(6.62911e-15 -6.62461e-14 -5.9928e-12)
(1.97272e-13 3.86595e-13 -1.74463e-11)
(1.98957e-13 3.37564e-13 -1.53168e-11)
(1.54829e-13 -2.31659e-13 -1.34916e-11)
(1.18906e-13 -2.06655e-13 -1.19234e-11)
(8.97474e-14 -1.83228e-13 -1.0573e-11)
(6.59852e-14 -1.63108e-13 -9.40505e-12)
(4.65348e-14 -1.4586e-13 -8.39135e-12)
(3.0576e-14 -1.30924e-13 -7.50857e-12)
(1.74808e-14 -1.17731e-13 -6.73686e-12)
(6.72805e-15 -8.68118e-14 -6.06646e-12)
(2.74677e-13 3.26298e-13 -2.3293e-11)
(2.58382e-13 2.59225e-13 -1.96763e-11)
(1.93142e-13 -3.55158e-13 -1.67142e-11)
(1.42912e-13 -3.04478e-13 -1.42749e-11)
(1.04294e-13 -2.60925e-13 -1.22574e-11)
(7.42937e-14 -2.25183e-13 -1.05776e-11)
(5.08979e-14 -1.95599e-13 -9.17133e-12)
(3.25747e-14 -1.70796e-13 -7.98753e-12)
(1.81782e-14 -1.49765e-13 -6.98541e-12)
(6.83483e-15 -1.08155e-13 -6.14098e-12)
(3.92957e-13 2.01307e-13 -3.16933e-11)
(3.4242e-13 1.15523e-13 -2.56432e-11)
(2.44396e-13 -5.33867e-13 -2.0924e-11)
(1.73464e-13 -4.38401e-13 -1.72178e-11)
(1.21908e-13 -3.61781e-13 -1.42817e-11)
(8.39354e-14 -3.01773e-13 -1.19342e-11)
(5.57356e-14 -2.54041e-13 -1.00419e-11)
(3.46721e-14 -2.1568e-13 -8.50434e-12)
(1.8842e-14 -1.8437e-13 -7.24555e-12)
(6.8937e-15 -1.30275e-13 -6.21672e-12)
(2.96411e-14 -3.95031e-14 -4.40534e-11)
(-6.88605e-14 -1.40325e-13 -3.39508e-11)
(-1.86944e-13 -7.96215e-13 -2.64949e-11)
(-2.59245e-13 -6.23172e-13 -2.0933e-11)
(-3.02824e-13 -4.933e-13 -1.67289e-11)
(-3.27882e-13 -3.96614e-13 -1.351e-11)
(-3.40955e-13 -3.23052e-13 -1.10163e-11)
(-3.46167e-13 -2.66159e-13 -9.06336e-12)
(-3.46272e-13 -2.21538e-13 -7.51784e-12)
(-3.45898e-13 -1.53202e-13 -6.29425e-12)
(-2.49142e-09 -5.47745e-13 -6.91055e-11)
(-2.40689e-09 -5.45308e-13 -5.132e-11)
(-2.25298e-09 -1.10096e-12 -3.88501e-11)
(-2.11657e-09 -8.02411e-13 -2.997e-11)
(-1.99523e-09 -5.9602e-13 -2.3525e-11)
(-1.88668e-09 -4.51149e-13 -1.87586e-11)
(-1.78906e-09 -3.47202e-13 -1.51738e-11)
(-1.70085e-09 -2.7119e-13 -1.2436e-11)
(-1.6208e-09 -2.22056e-13 -1.03149e-11)
(-1.56169e-09 -1.8134e-13 -8.68154e-12)
(2.66079e-07 -3.102e-10 -3.01618e-08)
(2.57647e-08 1.99431e-10 -2.59688e-08)
(2.13822e-08 3.83911e-10 -2.25232e-08)
(1.80858e-08 3.41312e-10 -1.97083e-08)
(1.53454e-08 3.04319e-10 -1.73821e-08)
(1.30417e-08 2.72712e-10 -1.54393e-08)
(1.1086e-08 2.45567e-10 -1.3801e-08)
(9.41079e-09 2.22062e-10 -1.24077e-08)
(7.89352e-09 1.64991e-10 -1.12133e-08)
(-3.95924e-08 -3.63707e-11 -1.02746e-08)
(2.67552e-13 3.68659e-13 -6.58376e-12)
(2.50347e-13 3.44498e-13 -6.50661e-12)
(2.19539e-13 -5.50299e-14 -6.43016e-12)
(1.89912e-13 -5.59844e-14 -6.35453e-12)
(1.61435e-13 -5.53689e-14 -6.28019e-12)
(1.34048e-13 -5.47212e-14 -6.20712e-12)
(1.07706e-13 -5.41412e-14 -6.13455e-12)
(8.23933e-14 -5.35247e-14 -6.06349e-12)
(5.79879e-14 -5.25883e-14 -5.99337e-12)
(3.47967e-14 -3.04538e-14 -5.92483e-12)
(5.39199e-13 3.19063e-13 -8.30746e-12)
(4.95814e-13 2.26978e-13 -8.00335e-12)
(4.24762e-13 -2.03916e-13 -7.71088e-12)
(3.58486e-13 -1.98148e-13 -7.43182e-12)
(2.96736e-13 -1.91129e-13 -7.16538e-12)
(2.39179e-13 -1.84386e-13 -6.91029e-12)
(1.85519e-13 -1.7792e-13 -6.66645e-12)
(1.35481e-13 -1.71837e-13 -6.43301e-12)
(8.87685e-14 -1.64987e-13 -6.20956e-12)
(4.55573e-14 -9.37778e-14 -5.99764e-12)
(6.64704e-13 2.30702e-13 -1.06229e-11)
(5.89202e-13 4.28929e-14 -9.94833e-12)
(4.87213e-13 -4.13642e-13 -9.32278e-12)
(3.96081e-13 -3.8988e-13 -8.74468e-12)
(3.14949e-13 -3.66176e-13 -8.21026e-12)
(2.42644e-13 -3.44181e-13 -7.71543e-12)
(1.7815e-13 -3.23832e-13 -7.25696e-12)
(1.20627e-13 -3.04998e-13 -6.83136e-12)
(6.9372e-14 -2.86213e-13 -6.43613e-12)
(2.39787e-14 -1.60178e-13 -6.07203e-12)
(8.66467e-13 8.1621e-14 -1.37823e-11)
(7.40666e-13 -2.40446e-13 -1.25066e-11)
(5.94055e-13 -7.08419e-13 -1.13691e-11)
(4.68893e-13 -6.47561e-13 -1.03543e-11)
(3.62412e-13 -5.90992e-13 -9.44914e-12)
(2.71652e-13 -5.4057e-13 -8.63938e-12)
(1.94259e-13 -4.95389e-13 -7.9133e-12)
(1.2824e-13 -4.5471e-13 -7.26105e-12)
(7.19119e-14 -4.16217e-13 -6.67309e-12)
(2.43852e-14 -2.29169e-13 -6.14754e-12)
(1.14761e-12 -1.63426e-13 -1.81727e-11)
(9.42804e-13 -6.73604e-13 -1.59194e-11)
(7.31083e-13 -1.12337e-12 -1.39944e-11)
(5.58865e-13 -9.93935e-13 -1.23434e-11)
(4.18996e-13 -8.79966e-13 -1.09263e-11)
(3.05086e-13 -7.81802e-13 -9.70364e-12)
(2.12234e-13 -6.96794e-13 -8.64461e-12)
(1.3649e-13 -6.23008e-13 -7.72439e-12)
(7.46381e-14 -5.56049e-13 -6.92125e-12)
(2.47238e-14 -3.01147e-13 -6.22496e-12)
(1.54696e-12 -5.6088e-13 -2.43976e-11)
(1.21695e-12 -1.33462e-12 -2.0542e-11)
(9.08899e-13 -1.71052e-12 -1.74012e-11)
(6.70961e-13 -1.46087e-12 -1.48216e-11)
(4.86823e-13 -1.25162e-12 -1.26967e-11)
(3.43707e-13 -1.07831e-12 -1.09334e-11)
(2.32268e-13 -9.33566e-13 -9.46135e-12)
(1.45343e-13 -8.12135e-13 -8.22546e-12)
(7.75255e-14 -7.06435e-13 -7.18155e-12)
(2.5035e-14 -3.76095e-13 -6.30381e-12)
(2.12765e-12 -1.20403e-12 -3.3418e-11)
(1.59455e-12 -2.34756e-12 -2.69148e-11)
(1.14237e-12 -2.54731e-12 -2.1877e-11)
(8.11727e-13 -2.09291e-12 -1.79367e-11)
(5.68501e-13 -1.73112e-12 -1.4832e-11)
(3.88493e-13 -1.44327e-12 -1.23602e-11)
(2.54669e-13 -1.2119e-12 -1.03748e-11)
(1.5494e-13 -1.02465e-12 -8.76725e-12)
(8.05051e-14 -8.68197e-13 -7.45394e-12)
(2.54356e-14 -4.5435e-13 -6.3844e-12)
(3.01473e-12 -2.25565e-12 -4.68322e-11)
(2.12779e-12 -3.91575e-12 -3.58618e-11)
(1.45469e-12 -3.74981e-12 -2.78391e-11)
(9.90109e-13 -2.95339e-12 -2.18907e-11)
(6.66184e-13 -2.35118e-12 -1.74247e-11)
(4.38131e-13 -1.89293e-12 -1.4023e-11)
(2.7636e-13 -1.53944e-12 -1.14003e-11)
(1.61081e-13 -1.26375e-12 -9.35416e-12)
(7.86626e-14 -1.04212e-12 -7.74007e-12)
(2.03031e-14 -5.3574e-13 -6.46699e-12)
(-1.66696e-11 -4.15295e-12 -7.36876e-11)
(-8.09094e-11 -6.52087e-12 -5.42384e-11)
(-6.60295e-11 -5.58939e-12 -4.07696e-11)
(-5.43819e-11 -4.21392e-12 -3.12634e-11)
(-4.53045e-11 -3.22851e-12 -2.4424e-11)
(-3.81304e-11 -2.51252e-12 -1.94007e-11)
(-3.23899e-11 -1.98272e-12 -1.56445e-11)
(-2.77449e-11 -1.58479e-12 -1.279e-11)
(-2.39487e-11 -1.27656e-12 -1.05867e-11)
(-2.07797e-11 -6.62659e-13 -8.89644e-12)
(1.63131e-07 -7.95565e-10 -3.13747e-08)
(-4.24578e-09 -6.55692e-10 -2.68948e-08)
(-4.0937e-09 -3.85493e-10 -2.32144e-08)
(-3.73753e-09 -3.4113e-10 -2.02344e-08)
(-3.42045e-09 -3.04173e-10 -1.77893e-08)
(-3.14197e-09 -2.72654e-10 -1.57593e-08)
(-2.89831e-09 -2.45612e-10 -1.40561e-08)
(-2.68533e-09 -2.22275e-10 -1.26134e-08)
(-2.50284e-09 -2.01919e-10 -1.13811e-08)
(-2.82168e-09 -1.92655e-10 -1.04126e-08)
(2.29022e-13 3.74086e-13 -1.75913e-13)
(2.16124e-13 3.48864e-13 -1.72466e-13)
(1.89498e-13 -5.08797e-14 -1.68612e-13)
(1.64082e-13 -5.19128e-14 -1.64979e-13)
(1.39765e-13 -5.11071e-14 -1.61578e-13)
(1.16392e-13 -5.05641e-14 -1.58296e-13)
(9.4133e-14 -5.00578e-14 -1.55057e-13)
(7.27676e-14 -4.9373e-14 -1.52322e-13)
(5.23121e-14 -4.85814e-14 -1.49408e-13)
(3.29595e-14 -2.54797e-14 -1.46754e-13)
(5.00564e-13 3.39308e-13 -2.45493e-13)
(4.62094e-13 2.42471e-13 -2.32355e-13)
(3.95801e-13 -1.89026e-13 -2.19326e-13)
(3.34042e-13 -1.83519e-13 -2.06999e-13)
(2.76638e-13 -1.76899e-13 -1.95994e-13)
(2.23179e-13 -1.70543e-13 -1.8552e-13)
(1.73477e-13 -1.64391e-13 -1.7562e-13)
(1.27136e-13 -1.58611e-13 -1.66416e-13)
(8.39466e-14 -1.52213e-13 -1.58352e-13)
(4.41495e-14 -7.90157e-14 -1.50112e-13)
(6.18601e-13 2.72643e-13 -3.50605e-13)
(5.49705e-13 7.33535e-14 -3.18482e-13)
(4.53979e-13 -3.84689e-13 -2.89456e-13)
(3.68565e-13 -3.62288e-13 -2.63158e-13)
(2.92731e-13 -3.39651e-13 -2.39862e-13)
(2.25348e-13 -3.18883e-13 -2.18707e-13)
(1.65367e-13 -2.9974e-13 -2.00092e-13)
(1.12034e-13 -2.82036e-13 -1.83181e-13)
(6.44695e-14 -2.64168e-13 -1.6768e-13)
(2.26029e-14 -1.35114e-13 -1.54599e-13)
(8.11609e-13 1.55953e-13 -5.10511e-13)
(6.946e-13 -1.90186e-13 -4.44523e-13)
(5.55993e-13 -6.61524e-13 -3.87448e-13)
(4.37953e-13 -6.03739e-13 -3.37879e-13)
(3.37946e-13 -5.49858e-13 -2.96041e-13)
(2.52973e-13 -5.02025e-13 -2.59973e-13)
(1.80728e-13 -4.59174e-13 -2.2913e-13)
(1.19303e-13 -4.21004e-13 -2.02593e-13)
(6.70089e-14 -3.84723e-13 -1.79299e-13)
(2.30394e-14 -1.93976e-13 -1.594e-13)
(1.08329e-12 -4.11696e-14 -7.61566e-13)
(8.89247e-13 -5.97768e-13 -6.31846e-13)
(6.87651e-13 -1.05405e-12 -5.26211e-13)
(5.24132e-13 -9.30423e-13 -4.39326e-13)
(3.92038e-13 -8.21284e-13 -3.68888e-13)
(2.84938e-13 -7.27985e-13 -3.11234e-13)
(1.97971e-13 -6.47416e-13 -2.64013e-13)
(1.27247e-13 -5.77729e-13 -2.251e-13)
(6.97565e-14 -5.14404e-13 -1.9236e-13)
(2.35054e-14 -2.55364e-13 -1.65349e-13)
(1.47322e-12 -3.68516e-13 -1.16629e-12)
(1.15565e-12 -1.22791e-12 -9.15352e-13)
(8.59611e-13 -1.61358e-12 -7.25454e-13)
(6.32061e-13 -1.37375e-12 -5.77214e-13)
(4.57143e-13 -1.17244e-12 -4.63713e-13)
(3.2194e-13 -1.00687e-12 -3.75223e-13)
(2.17195e-13 -8.69222e-13 -3.06079e-13)
(1.35886e-13 -7.5431e-13 -2.51481e-13)
(7.25893e-14 -6.54326e-13 -2.07112e-13)
(2.3952e-14 -3.19988e-13 -1.72493e-13)
(2.04731e-12 -9.06713e-13 -1.83348e-12)
(1.52638e-12 -2.20561e-12 -1.35501e-12)
(1.0873e-12 -2.41878e-12 -1.01528e-12)
(7.68619e-13 -1.97826e-12 -7.66753e-13)
(5.36113e-13 -1.62811e-12 -5.87287e-13)
(3.65118e-13 -1.35191e-12 -4.54954e-13)
(2.38822e-13 -1.13103e-12 -3.56337e-13)
(1.45149e-13 -9.53508e-13 -2.81858e-13)
(7.55327e-14 -8.05205e-13 -2.23964e-13)
(2.44322e-14 -3.87521e-13 -1.80752e-13)
(2.93268e-12 -1.8022e-12 -2.97468e-12)
(2.05317e-12 -3.74075e-12 -2.05128e-12)
(1.39362e-12 -3.58734e-12 -1.44509e-12)
(9.43201e-13 -2.80778e-12 -1.03105e-12)
(6.32493e-13 -2.22155e-12 -7.50668e-13)
(4.15706e-13 -1.77944e-12 -5.55045e-13)
(2.63185e-13 -1.44068e-12 -4.16638e-13)
(1.55285e-13 -1.17843e-12 -3.16719e-13)
(7.87015e-14 -9.6784e-13 -2.43311e-13)
(2.48775e-14 -4.58344e-13 -1.895e-13)
(8.22326e-11 -3.35169e-12 -4.93737e-12)
(1.61643e-12 -6.22726e-12 -3.1511e-12)
(8.01901e-13 -5.3067e-12 -2.07842e-12)
(4.56606e-13 -3.95666e-12 -1.40468e-12)
(2.34813e-13 -2.99883e-12 -9.79306e-13)
(9.28017e-14 -2.31157e-12 -7.01374e-13)
(2.25337e-15 -1.808e-12 -5.15503e-13)
(-5.45257e-14 -1.43346e-12 -3.8846e-13)
(-8.94595e-14 -1.14489e-12 -2.9916e-13)
(-1.07207e-13 -5.34072e-13 -2.37076e-13)
(1.44727e-07 -2.72897e-10 -1.27839e-09)
(9.93175e-11 -2.51352e-10 -9.42267e-10)
(-9.53587e-11 -3.32908e-11 -7.01628e-10)
(-7.59868e-11 -2.45519e-11 -5.32799e-10)
(-6.11535e-11 -1.8835e-11 -4.11791e-10)
(-4.98194e-11 -1.46835e-11 -3.23246e-10)
(-4.10488e-11 -1.16132e-11 -2.57275e-10)
(-3.41882e-11 -9.30568e-12 -2.07321e-10)
(-2.88269e-11 -7.53332e-12 -1.6895e-10)
(-2.75207e-11 -5.7947e-12 -1.38842e-10)
(2.26956e-13 3.74206e-13 -9.78891e-15)
(2.14301e-13 3.48628e-13 -8.96614e-15)
(1.87939e-13 -5.10608e-14 -6.99251e-15)
(1.62698e-13 -5.19245e-14 -5.89083e-15)
(1.38611e-13 -5.12579e-14 -4.60175e-15)
(1.15535e-13 -5.06336e-14 -3.60546e-15)
(9.34502e-14 -4.992e-14 -2.83697e-15)
(7.22823e-14 -4.92584e-14 -2.0171e-15)
(5.20926e-14 -4.83712e-14 -1.66058e-15)
(3.29213e-14 -2.52463e-14 -1.65153e-15)
(4.9817e-13 3.40353e-13 -1.45233e-14)
(4.60081e-13 2.43125e-13 -1.29254e-14)
(3.94134e-13 -1.88508e-13 -1.07995e-14)
(3.32676e-13 -1.82967e-13 -8.77517e-15)
(2.75547e-13 -1.76187e-13 -6.91738e-15)
(2.22367e-13 -1.69926e-13 -5.78666e-15)
(1.72935e-13 -1.63834e-13 -4.63702e-15)
(1.2683e-13 -1.5786e-13 -3.82325e-15)
(8.38491e-14 -1.51421e-13 -3.20444e-15)
(4.42835e-14 -7.81842e-14 -2.75538e-15)
(6.15511e-13 2.75319e-13 -2.36348e-14)
(5.473e-13 7.51512e-14 -2.08649e-14)
(4.52054e-13 -3.8307e-13 -1.72546e-14)
(3.67075e-13 -3.60697e-13 -1.40679e-14)
(2.91636e-13 -3.38307e-13 -1.17816e-14)
(2.24574e-13 -3.17514e-13 -9.63477e-15)
(1.64939e-13 -2.98282e-13 -7.9842e-15)
(1.11871e-13 -2.80781e-13 -6.83212e-15)
(6.45499e-14 -2.62835e-13 -5.71187e-15)
(2.28932e-14 -1.33619e-13 -5.54181e-15)
(8.07601e-13 1.61532e-13 -3.97313e-14)
(6.91622e-13 -1.86368e-13 -3.48485e-14)
(5.53774e-13 -6.58503e-13 -2.89196e-14)
(4.36376e-13 -6.00978e-13 -2.35235e-14)
(3.36857e-13 -5.47289e-13 -1.94569e-14)
(2.52344e-13 -4.99703e-13 -1.63751e-14)
(1.80462e-13 -4.57075e-13 -1.36304e-14)
(1.19356e-13 -4.18984e-13 -1.15425e-14)
(6.73335e-14 -3.82818e-13 -1.01047e-14)
(2.34899e-14 -1.92173e-13 -9.01062e-15)
(1.07807e-12 -3.09703e-14 -6.96634e-14)
(8.85663e-13 -5.91266e-13 -5.91011e-14)
(6.85126e-13 -1.04872e-12 -4.75738e-14)
(5.22542e-13 -9.25919e-13 -3.87892e-14)
(3.91111e-13 -8.17565e-13 -3.17533e-14)
(2.84503e-13 -7.24587e-13 -2.59534e-14)
(1.97945e-13 -6.44299e-13 -2.19332e-14)
(1.2757e-13 -5.75072e-13 -1.8936e-14)
(7.01946e-14 -5.12188e-13 -1.65127e-14)
(2.41521e-14 -2.53181e-13 -1.44342e-14)
(1.46611e-12 -3.49925e-13 -1.21991e-13)
(1.15127e-12 -1.21713e-12 -9.99502e-14)
(8.5684e-13 -1.60543e-12 -7.8816e-14)
(6.30497e-13 -1.36705e-12 -6.28498e-14)
(4.56442e-13 -1.16712e-12 -5.06163e-14)
(3.2184e-13 -1.00246e-12 -4.12002e-14)
(2.17498e-13 -8.65422e-13 -3.40809e-14)
(1.36416e-13 -7.51342e-13 -2.86058e-14)
(7.32915e-14 -6.51812e-13 -2.39652e-14)
(2.47799e-14 -3.17385e-13 -2.08699e-14)
(2.03754e-12 -8.73451e-13 -2.15624e-13)
(1.52081e-12 -2.18827e-12 -1.69517e-13)
(1.08428e-12 -2.40649e-12 -1.28823e-13)
(7.67142e-13 -1.96893e-12 -9.98662e-14)
(5.35665e-13 -1.62113e-12 -7.83205e-14)
(3.65377e-13 -1.34641e-12 -6.23579e-14)
(2.39441e-13 -1.12672e-12 -5.03702e-14)
(1.45982e-13 -9.50215e-13 -4.1326e-14)
(7.65821e-14 -8.02585e-13 -3.44492e-14)
(2.53899e-14 -3.84885e-13 -2.89395e-14)
(2.91853e-12 -1.74275e-12 -3.86281e-13)
(2.04551e-12 -3.71355e-12 -2.85629e-13)
(1.38999e-12 -3.56948e-12 -2.09034e-13)
(9.41833e-13 -2.79552e-12 -1.55359e-13)
(6.32454e-13 -2.21265e-12 -1.17998e-13)
(4.16399e-13 -1.77309e-12 -9.14594e-14)
(2.64211e-13 -1.43609e-12 -7.16944e-14)
(1.56476e-13 -1.17497e-12 -5.7484e-14)
(7.99677e-14 -9.65545e-13 -4.69238e-14)
(2.61392e-14 -4.55841e-13 -3.84066e-14)
(8.75588e-11 -3.24499e-12 -6.96499e-13)
(3.04081e-12 -6.18604e-12 -4.78921e-13)
(1.78971e-12 -5.28045e-12 -3.33497e-13)
(1.15547e-12 -3.93993e-12 -2.3814e-13)
(7.42571e-13 -2.98765e-12 -1.74202e-13)
(4.69405e-13 -2.30391e-12 -1.30558e-13)
(2.86611e-13 -1.80256e-12 -9.972e-14)
(1.63308e-13 -1.42938e-12 -7.77169e-14)
(7.96071e-14 -1.14163e-12 -6.16558e-14)
(2.34367e-14 -5.3032e-13 -4.98454e-14)
(1.46733e-07 -2.38322e-10 -7.47256e-11)
(2.29455e-10 -2.27712e-10 -1.71108e-11)
(4.30644e-13 -9.06022e-12 -1.08409e-11)
(7.84864e-14 -5.90217e-12 -7.10175e-12)
(1.65403e-14 -4.25527e-12 -4.8059e-12)
(-2.27793e-14 -3.13789e-12 -3.33765e-12)
(-4.62823e-14 -2.35913e-12 -2.37024e-12)
(-5.99099e-14 -1.80515e-12 -1.71475e-12)
(-6.77281e-14 -1.39682e-12 -1.2616e-12)
(-8.30311e-14 -6.56932e-13 -9.27275e-13)
(2.27368e-13 3.74079e-13 -1.07987e-14)
(2.14634e-13 3.48088e-13 -9.81377e-15)
(1.88233e-13 -5.1763e-14 -7.47119e-15)
(1.62929e-13 -5.25342e-14 -5.53366e-15)
(1.38784e-13 -5.16925e-14 -4.09457e-15)
(1.15643e-13 -5.09494e-14 -2.87252e-15)
(9.35782e-14 -5.03785e-14 -2.04188e-15)
(7.24554e-14 -4.95345e-14 -1.10124e-15)
(5.22004e-14 -4.84266e-14 -4.83722e-16)
(3.30151e-14 -2.54058e-14 -2.84621e-16)
(4.99181e-13 3.40029e-13 -1.60576e-14)
(4.60947e-13 2.42369e-13 -1.4218e-14)
(3.94871e-13 -1.89344e-13 -1.10309e-14)
(3.33242e-13 -1.83808e-13 -8.88675e-15)
(2.7607e-13 -1.76899e-13 -6.30275e-15)
(2.22808e-13 -1.70331e-13 -4.84347e-15)
(1.73309e-13 -1.64113e-13 -3.6823e-15)
(1.27226e-13 -1.58185e-13 -3.02752e-15)
(8.41979e-14 -1.51688e-13 -2.21979e-15)
(4.46293e-14 -7.82552e-14 -1.58098e-15)
(6.1726e-13 2.7474e-13 -2.60119e-14)
(5.48843e-13 7.39904e-14 -2.29166e-14)
(4.53364e-13 -3.84463e-13 -1.85941e-14)
(3.68146e-13 -3.61816e-13 -1.46681e-14)
(2.92585e-13 -3.39024e-13 -1.191e-14)
(2.25425e-13 -3.18223e-13 -9.66192e-15)
(1.65644e-13 -2.98882e-13 -7.76858e-15)
(1.12498e-13 -2.81144e-13 -6.4946e-15)
(6.51351e-14 -2.63051e-13 -5.82502e-15)
(2.34438e-14 -1.33845e-13 -5.06178e-15)
(8.1068e-13 1.60424e-13 -4.45851e-14)
(6.94296e-13 -1.88285e-13 -3.89016e-14)
(5.55944e-13 -6.60542e-13 -3.19698e-14)
(4.38206e-13 -6.02768e-13 -2.60579e-14)
(3.38396e-13 -5.48627e-13 -2.13482e-14)
(2.53607e-13 -5.00803e-13 -1.76107e-14)
(1.81592e-13 -4.58018e-13 -1.50782e-14)
(1.20354e-13 -4.19718e-13 -1.28821e-14)
(6.82395e-14 -3.83374e-13 -1.11697e-14)
(2.42809e-14 -1.92295e-13 -1.0218e-14)
(1.08322e-12 -3.31551e-14 -7.7816e-14)
(8.89984e-13 -5.94985e-13 -6.72245e-14)
(6.88615e-13 -1.05247e-12 -5.45043e-14)
(5.25372e-13 -9.28844e-13 -4.42866e-14)
(3.93455e-13 -8.19926e-13 -3.67684e-14)
(2.86449e-13 -7.26567e-13 -3.05619e-14)
(1.99601e-13 -6.45796e-13 -2.55817e-14)
(1.28955e-13 -5.76192e-13 -2.19119e-14)
(7.14248e-14 -5.13095e-13 -1.91756e-14)
(2.51973e-14 -2.53772e-13 -1.68489e-14)
(1.47472e-12 -3.54548e-13 -1.3731e-13)
(1.15824e-12 -1.22401e-12 -1.1457e-13)
(8.62299e-13 -1.61176e-12 -9.1515e-14)
(6.34813e-13 -1.37222e-12 -7.33587e-14)
(4.59867e-13 -1.17116e-12 -5.95169e-14)
(3.24649e-13 -1.00572e-12 -4.9284e-14)
(2.19758e-13 -8.68133e-13 -4.07119e-14)
(1.38284e-13 -7.53479e-13 -3.43558e-14)
(7.48392e-14 -6.53545e-13 -2.94816e-14)
(2.60442e-14 -3.18352e-13 -2.54024e-14)
(2.05205e-12 -8.82728e-13 -2.4271e-13)
(1.532e-12 -2.2015e-12 -1.95067e-13)
(1.09264e-12 -2.41807e-12 -1.51326e-13)
(7.73512e-13 -1.97791e-12 -1.18066e-13)
(5.40588e-13 -1.62814e-12 -9.4121e-14)
(3.69195e-13 -1.35204e-12 -7.56234e-14)
(2.42435e-13 -1.1312e-12 -6.14519e-14)
(1.48388e-13 -9.53685e-13 -5.07741e-14)
(7.84998e-14 -8.05505e-13 -4.27075e-14)
(2.69827e-14 -3.86599e-13 -3.60258e-14)
(2.94284e-12 -1.7616e-12 -4.31678e-13)
(2.06334e-12 -3.73902e-12 -3.30655e-13)
(1.40273e-12 -3.59005e-12 -2.45834e-13)
(9.51132e-13 -2.81106e-12 -1.86374e-13)
(6.39302e-13 -2.22458e-12 -1.43742e-13)
(4.21537e-13 -1.78238e-12 -1.12483e-13)
(2.68137e-13 -1.44336e-12 -8.93933e-14)
(1.5949e-13 -1.18065e-12 -7.19573e-14)
(8.22639e-14 -9.70007e-13 -5.88415e-14)
(2.79366e-14 -4.58492e-13 -4.9139e-14)
(8.82874e-11 -3.28293e-12 -7.78258e-13)
(3.09665e-12 -6.23452e-12 -5.59747e-13)
(1.81916e-12 -5.31737e-12 -3.97447e-13)
(1.17497e-12 -3.96676e-12 -2.88864e-13)
(7.5591e-13 -3.00745e-12 -2.14736e-13)
(4.78787e-13 -2.31873e-12 -1.62806e-13)
(2.9337e-13 -1.81385e-12 -1.25382e-13)
(1.6822e-13 -1.43815e-12 -9.85149e-14)
(8.32276e-14 -1.14859e-12 -7.83745e-14)
(2.60727e-14 -5.34245e-13 -6.3471e-14)
(1.51663e-07 -2.38403e-10 -2.97664e-11)
(2.41845e-10 -2.28662e-10 -1.30569e-12)
(1.98032e-12 -8.59974e-12 -7.45231e-13)
(1.14556e-12 -5.58312e-12 -5.02094e-13)
(7.62012e-13 -4.03916e-12 -3.50157e-13)
(5.10797e-13 -2.98809e-12 -2.5202e-13)
(3.4291e-13 -2.25329e-12 -1.86131e-13)
(2.28928e-13 -1.72909e-12 -1.40209e-13)
(1.5053e-13 -1.34132e-12 -1.07639e-13)
(9.65343e-14 -6.14158e-13 -8.41874e-14)
(2.27923e-13 3.7379e-13 -1.36667e-14)
(2.15086e-13 3.47307e-13 -1.18144e-14)
(1.88568e-13 -5.27525e-14 -9.41452e-15)
(1.63247e-13 -5.32616e-14 -6.90901e-15)
(1.3897e-13 -5.23103e-14 -5.08172e-15)
(1.15836e-13 -5.14438e-14 -3.20815e-15)
(9.3693e-14 -5.06202e-14 -2.02834e-15)
(7.25718e-14 -4.98768e-14 -1.36274e-15)
(5.23534e-14 -4.86936e-14 -6.64965e-16)
(3.31189e-14 -2.53349e-14 -4.39757e-16)
(5.00513e-13 3.39528e-13 -2.01863e-14)
(4.62094e-13 2.41161e-13 -1.77025e-14)
(3.95813e-13 -1.90566e-13 -1.36358e-14)
(3.34054e-13 -1.84802e-13 -1.07362e-14)
(2.76722e-13 -1.77762e-13 -8.23188e-15)
(2.23377e-13 -1.70952e-13 -6.01646e-15)
(1.73788e-13 -1.64543e-13 -4.3902e-15)
(1.27638e-13 -1.58432e-13 -3.2078e-15)
(8.46585e-14 -1.51993e-13 -2.72569e-15)
(4.50149e-14 -7.84683e-14 -2.33534e-15)
(6.19632e-13 2.73851e-13 -3.24647e-14)
(5.50892e-13 7.22907e-14 -2.85215e-14)
(4.551e-13 -3.86205e-13 -2.28549e-14)
(3.69591e-13 -3.63272e-13 -1.85908e-14)
(2.93842e-13 -3.40253e-13 -1.46756e-14)
(2.26456e-13 -3.19137e-13 -1.17044e-14)
(1.6663e-13 -2.9954e-13 -9.5101e-15)
(1.1335e-13 -2.81576e-13 -8.25647e-15)
(6.5908e-14 -2.63439e-13 -7.11062e-15)
(2.42153e-14 -1.34119e-13 -6.28948e-15)
(8.14712e-13 1.58692e-13 -5.59505e-14)
(6.97773e-13 -1.91162e-13 -4.84268e-14)
(5.58815e-13 -6.63331e-13 -3.93763e-14)
(4.40596e-13 -6.0505e-13 -3.23063e-14)
(3.40433e-13 -5.50586e-13 -2.64226e-14)
(2.5538e-13 -5.02199e-13 -2.1671e-14)
(1.83091e-13 -4.59024e-13 -1.85768e-14)
(1.21663e-13 -4.20639e-13 -1.61126e-14)
(6.93538e-14 -3.83995e-13 -1.41303e-14)
(2.52936e-14 -1.92695e-13 -1.25159e-14)
(1.09007e-12 -3.63966e-14 -9.73162e-14)
(8.95708e-13 -5.99921e-13 -8.32797e-14)
(6.93211e-13 -1.05723e-12 -6.77312e-14)
(5.29097e-13 -9.3269e-13 -5.53271e-14)
(3.96507e-13 -8.2298e-13 -4.57322e-14)
(2.89065e-13 -7.29134e-13 -3.82764e-14)
(2.01693e-13 -6.47909e-13 -3.18722e-14)
(1.30759e-13 -5.77853e-13 -2.73233e-14)
(7.2952e-14 -5.14446e-13 -2.3509e-14)
(2.64725e-14 -2.54523e-13 -2.08011e-14)
(1.48626e-12 -3.61247e-13 -1.7166e-13)
(1.16747e-12 -1.23353e-12 -1.43041e-13)
(8.6949e-13 -1.62034e-12 -1.13931e-13)
(6.40416e-13 -1.37904e-12 -9.13935e-14)
(4.64354e-13 -1.17651e-12 -7.43225e-14)
(3.28213e-13 -1.01008e-12 -6.12844e-14)
(2.22682e-13 -8.71675e-13 -5.08163e-14)
(1.4067e-13 -7.56247e-13 -4.27351e-14)
(7.68267e-14 -6.5589e-13 -3.6614e-14)
(2.77078e-14 -3.19703e-13 -3.16469e-14)
(2.07135e-12 -8.96383e-13 -3.0373e-13)
(1.5468e-12 -2.21943e-12 -2.43252e-13)
(1.10365e-12 -2.4334e-12 -1.886e-13)
(7.81863e-13 -1.98984e-12 -1.47589e-13)
(5.47016e-13 -1.63742e-12 -1.17438e-13)
(3.74159e-13 -1.35948e-12 -9.44278e-14)
(2.46393e-13 -1.13712e-12 -7.69456e-14)
(1.51481e-13 -9.58394e-13 -6.31516e-14)
(8.09737e-14 -8.09299e-13 -5.29832e-14)
(2.90099e-14 -3.88814e-13 -4.48174e-14)
(2.97587e-12 -1.78899e-12 -5.40397e-13)
(2.08708e-12 -3.77339e-12 -4.13348e-13)
(1.41956e-12 -3.61771e-12 -3.07693e-13)
(9.63354e-13 -2.83169e-12 -2.33141e-13)
(6.48306e-13 -2.24029e-12 -1.79672e-13)
(4.28292e-13 -1.7945e-12 -1.40725e-13)
(2.73234e-13 -1.45289e-12 -1.11923e-13)
(1.63407e-13 -1.18821e-12 -8.97437e-14)
(8.52815e-14 -9.75922e-13 -7.31806e-14)
(3.03216e-14 -4.61873e-13 -6.08761e-14)
(8.99847e-11 -3.33977e-12 -9.7945e-13)
(3.13939e-12 -6.30079e-12 -7.01489e-13)
(1.8452e-12 -5.36675e-12 -4.988e-13)
(1.19288e-12 -4.00221e-12 -3.62594e-13)
(7.68457e-13 -3.03349e-12 -2.69659e-13)
(4.87782e-13 -2.33836e-12 -2.04054e-13)
(2.99911e-13 -1.82877e-12 -1.57066e-13)
(1.73058e-13 -1.44962e-12 -1.23139e-13)
(8.68141e-14 -1.15749e-12 -9.79118e-14)
(2.87632e-14 -5.39396e-13 -7.93353e-14)
(1.58061e-07 -2.48251e-10 -7.3255e-11)
(2.51047e-10 -2.33044e-10 -1.34524e-12)
(2.05036e-12 -8.69094e-12 -8.05883e-13)
(1.17248e-12 -5.63947e-12 -5.58079e-13)
(7.79735e-13 -4.07928e-12 -3.97166e-13)
(5.22879e-13 -3.01715e-12 -2.89865e-13)
(3.51402e-13 -2.27489e-12 -2.16241e-13)
(2.35063e-13 -1.7455e-12 -1.64219e-13)
(1.55054e-13 -1.35383e-12 -1.26793e-13)
(9.99691e-14 -6.21131e-13 -1.00134e-13)
(2.28608e-13 3.73314e-13 -1.63723e-14)
(2.15709e-13 3.46396e-13 -1.4199e-14)
(1.89001e-13 -5.37091e-14 -1.09948e-14)
(1.63598e-13 -5.42547e-14 -8.42946e-15)
(1.3931e-13 -5.31618e-14 -6.04042e-15)
(1.16094e-13 -5.21636e-14 -4.08668e-15)
(9.39419e-14 -5.11121e-14 -2.41235e-15)
(7.27384e-14 -5.00782e-14 -1.45236e-15)
(5.25203e-14 -4.87983e-14 -1.41565e-15)
(3.33113e-14 -2.54491e-14 -2.51395e-15)
(5.02135e-13 3.38903e-13 -2.41574e-14)
(4.63546e-13 2.39801e-13 -2.08482e-14)
(3.96964e-13 -1.92063e-13 -1.66156e-14)
(3.35034e-13 -1.85928e-13 -1.27921e-14)
(2.77553e-13 -1.7877e-13 -1.00821e-14)
(2.24107e-13 -1.71857e-13 -7.38263e-15)
(1.74452e-13 -1.6524e-13 -5.70199e-15)
(1.28273e-13 -1.58859e-13 -4.17511e-15)
(8.51806e-14 -1.52049e-13 -3.19827e-15)
(4.55318e-14 -7.8524e-14 -4.29227e-15)
(6.22533e-13 2.72802e-13 -3.9139e-14)
(5.53384e-13 7.02402e-14 -3.39012e-14)
(4.57171e-13 -3.8829e-13 -2.71858e-14)
(3.71356e-13 -3.6502e-13 -2.20739e-14)
(2.95293e-13 -3.41738e-13 -1.75251e-14)
(2.2777e-13 -3.203e-13 -1.43222e-14)
(1.67776e-13 -3.00306e-13 -1.16599e-14)
(1.14452e-13 -2.8217e-13 -1.00259e-14)
(6.68734e-14 -2.6391e-13 -8.92092e-15)
(2.50063e-14 -1.34354e-13 -8.55825e-15)
(8.19714e-13 1.5661e-13 -6.67335e-14)
(7.02003e-13 -1.94655e-13 -5.74488e-14)
(5.62324e-13 -6.66696e-13 -4.67954e-14)
(4.43489e-13 -6.0782e-13 -3.82987e-14)
(3.42913e-13 -5.52859e-13 -3.16429e-14)
(2.57521e-13 -5.04035e-13 -2.66769e-14)
(1.84916e-13 -4.60384e-13 -2.23691e-14)
(1.23218e-13 -4.21662e-13 -1.93149e-14)
(7.07298e-14 -3.84999e-13 -1.70721e-14)
(2.65043e-14 -1.93266e-13 -1.54366e-14)
(1.09849e-12 -4.05621e-14 -1.17241e-13)
(9.02688e-13 -6.06149e-13 -9.90302e-14)
(6.98825e-13 -1.06299e-12 -8.02095e-14)
(5.33628e-13 -9.37368e-13 -6.55889e-14)
(4.00265e-13 -8.26736e-13 -5.42281e-14)
(2.92183e-13 -7.32279e-13 -4.56556e-14)
(2.04342e-13 -6.50453e-13 -3.84487e-14)
(1.32927e-13 -5.79891e-13 -3.29855e-14)
(7.48219e-14 -5.16074e-13 -2.85217e-14)
(2.81254e-14 -2.55505e-13 -2.57861e-14)
(1.50046e-12 -3.69524e-13 -2.06957e-13)
(1.17874e-12 -1.24505e-12 -1.70021e-13)
(8.78234e-13 -1.63071e-12 -1.3546e-13)
(6.47319e-13 -1.38731e-12 -1.09058e-13)
(4.69834e-13 -1.1831e-12 -8.89426e-14)
(3.3264e-13 -1.01541e-12 -7.37276e-14)
(2.26304e-13 -8.76049e-13 -6.1184e-14)
(1.43585e-13 -7.59775e-13 -5.13699e-14)
(7.92753e-14 -6.58677e-13 -4.41689e-14)
(2.97152e-14 -3.214e-13 -3.85755e-14)
(2.09529e-12 -9.1329e-13 -3.66527e-13)
(1.5649e-12 -2.24147e-12 -2.89511e-13)
(1.11717e-12 -2.45199e-12 -2.24458e-13)
(7.92126e-13 -2.00436e-12 -1.76517e-13)
(5.54872e-13 -1.6488e-12 -1.40514e-13)
(3.80296e-13 -1.36851e-12 -1.13658e-13)
(2.51201e-13 -1.14448e-12 -9.28042e-14)
(1.55282e-13 -9.64232e-13 -7.58571e-14)
(8.398e-14 -8.13968e-13 -6.38156e-14)
(3.14447e-14 -3.91592e-13 -5.45404e-14)
(3.01683e-12 -1.82318e-12 -6.52864e-13)
(2.11618e-12 -3.81535e-12 -4.92598e-13)
(1.44037e-12 -3.65135e-12 -3.68213e-13)
(9.78419e-13 -2.85706e-12 -2.79352e-13)
(6.59408e-13 -2.25958e-12 -2.1552e-13)
(4.36563e-13 -1.8094e-12 -1.69244e-13)
(2.79483e-13 -1.46471e-12 -1.34794e-13)
(1.68214e-13 -1.19754e-12 -1.07607e-13)
(8.89648e-14 -9.83226e-13 -8.78674e-14)
(3.31976e-14 -4.66139e-13 -7.32535e-14)
(9.42829e-11 -3.40454e-12 -1.13873e-12)
(3.19527e-12 -6.3819e-12 -8.39749e-13)
(1.87692e-12 -5.42715e-12 -5.9907e-13)
(1.21477e-12 -4.04594e-12 -4.35952e-13)
(7.83896e-13 -3.06572e-12 -3.24383e-13)
(4.98823e-13 -2.36253e-12 -2.4571e-13)
(3.07941e-13 -1.84719e-12 -1.89855e-13)
(1.78963e-13 -1.46373e-12 -1.4784e-13)
(9.11923e-14 -1.16852e-12 -1.17552e-13)
(3.20501e-14 -5.45669e-13 -9.54153e-14)
(1.76065e-07 -2.44172e-10 5.10619e-11)
(2.71361e-10 -2.44106e-10 -8.4936e-13)
(2.06783e-12 -8.82111e-12 -9.64496e-13)
(1.19222e-12 -5.71338e-12 -6.7103e-13)
(7.93507e-13 -4.13158e-12 -4.78684e-13)
(5.32728e-13 -3.05501e-12 -3.49428e-13)
(3.5863e-13 -2.30292e-12 -2.60936e-13)
(2.40452e-13 -1.76663e-12 -1.98166e-13)
(1.59122e-13 -1.36972e-12 -1.52221e-13)
(1.03124e-13 -6.30006e-13 -1.20706e-13)
(2.29345e-13 3.72897e-13 -1.82206e-14)
(2.1613e-13 3.45196e-13 -1.2849e-14)
(1.89439e-13 -5.50174e-14 -1.00362e-14)
(1.63939e-13 -5.52143e-14 -7.95447e-15)
(1.39654e-13 -5.40407e-14 -7.45682e-15)
(1.16454e-13 -5.2911e-14 -7.83158e-15)
(9.4353e-14 -5.17246e-14 -9.77617e-15)
(7.33216e-14 -5.04472e-14 -2.34195e-14)
(5.34936e-14 -4.90227e-14 -9.49663e-14)
(3.43936e-14 -2.83393e-14 -3.26867e-13)
(5.03953e-13 3.38112e-13 -2.60306e-14)
(4.64804e-13 2.38363e-13 -1.74927e-14)
(3.98121e-13 -1.93603e-13 -1.46325e-14)
(3.36033e-13 -1.87293e-13 -1.18738e-14)
(2.78453e-13 -1.79876e-13 -1.05835e-14)
(2.25002e-13 -1.72745e-13 -1.08498e-14)
(1.75322e-13 -1.65968e-13 -1.22384e-14)
(1.29185e-13 -1.59819e-13 -2.05013e-14)
(8.63155e-14 -1.53294e-13 -5.93865e-14)
(4.65814e-14 -8.35909e-14 -2.11603e-13)
(6.25725e-13 2.71475e-13 -4.25017e-14)
(5.55795e-13 6.80347e-14 -2.97747e-14)
(4.59237e-13 -3.90479e-13 -2.44341e-14)
(3.73182e-13 -3.6685e-13 -2.06862e-14)
(2.96968e-13 -3.43221e-13 -1.79495e-14)
(2.29372e-13 -3.21549e-13 -1.77402e-14)
(1.69253e-13 -3.01525e-13 -1.90457e-14)
(1.15812e-13 -2.83194e-13 -2.28703e-14)
(6.83469e-14 -2.65519e-13 -4.5511e-14)
(2.63309e-14 -1.3999e-13 -1.41336e-13)
(8.25267e-13 1.54326e-13 -7.28559e-14)
(7.06188e-13 -1.98011e-13 -5.2553e-14)
(5.6586e-13 -6.70041e-13 -4.35163e-14)
(4.46556e-13 -6.10544e-13 -3.70652e-14)
(3.45637e-13 -5.55018e-13 -3.27512e-14)