/*--------------------------------*- C++ -*----------------------------------*\
| =========                 |                                                 |
| \\      /  F ield         | OpenFOAM: The Open Source CFD Toolbox           |
|  \\    /   O peration     | Version:  4.1                                   |
|   \\  /    A nd           | Web:      www.OpenFOAM.org                      |
|    \\/     M anipulation  |                                                 |
\*---------------------------------------------------------------------------*/
FoamFile
{
    version     2.0;
    format      ascii;
    class       volScalarField;
    location    "0.26";
    object      Ma;
}
// * * * * * * * * * * * * * * * * * * * * * * * * * * * * * * * * * * * * * //

dimensions      [0 0 0 0 0 0 0];

internalField   nonuniform List<scalar> 
52500
(
3.10045
3.23065
3.21229
3.18579
3.15382
3.09697
3.0146
2.87902
2.63341
2.38027
2.11553
1.85898
1.71637
1.591
1.33461
0.544604
0.383695
0.530969
0.417901
0.351139
0.303766
0.285466
0.176696
0.174616
0.0332238
3.10044
3.23064
3.21228
3.18577
3.1538
3.09694
3.01456
2.87897
2.63334
2.38037
2.11558
1.85915
1.7171
1.59583
1.34969
0.58827
0.374877
0.536633
0.420128
0.354241
0.306264
0.290034
0.184341
0.183064
0.0674743
3.10044
3.23064
3.21227
3.18577
3.1538
3.09693
3.01457
2.87897
2.63333
2.38054
2.1156
1.85928
1.71841
1.60474
1.37791
0.670443
0.355515
0.547055
0.42903
0.362867
0.313956
0.300653
0.201221
0.201047
0.111289
3.10041
3.23061
3.21223
3.18573
3.15375
3.09688
3.01452
2.87891
2.63335
2.38078
2.11602
1.85961
1.72012
1.61681
1.41663
0.791292
0.317817
0.561228
0.444209
0.376891
0.326766
0.317669
0.226308
0.227786
0.159333
3.10041
3.23059
3.21222
3.18573
3.15375
3.09691
3.01459
2.87898
2.63343
2.38099
2.11666
1.85997
1.72192
1.62993
1.45989
0.940887
0.26263
0.573571
0.468265
0.396876
0.344475
0.341152
0.258461
0.262397
0.212184
3.10042
3.23063
3.21226
3.18574
3.15372
3.09677
3.01437
2.87846
2.63249
2.37954
2.11522
1.85778
1.72107
1.63938
1.501
1.10347
0.221746
0.579152
0.501945
0.422817
0.367496
0.371816
0.298562
0.305093
0.273193
3.1004
3.23061
3.21223
3.18572
3.1537
3.09675
3.01441
2.87849
2.63283
2.37957
2.11608
1.85792
1.72204
1.64705
1.53919
1.25257
0.348353
0.569592
0.545856
0.453706
0.395105
0.409253
0.347594
0.356511
0.345995
3.10037
3.23054
3.21216
3.18566
3.15367
3.09679
3.01454
2.87887
2.63387
2.38063
2.11817
1.85971
1.72469
1.65254
1.57375
1.36812
0.621705
0.530473
0.593124
0.490421
0.428334
0.451844
0.407666
0.418086
0.437086
3.10039
3.2306
3.21222
3.18569
3.15367
3.09668
3.01441
2.87838
2.63272
2.37948
2.11601
1.85744
1.72314
1.65481
1.59911
1.45187
0.914264
0.438917
0.632618
0.533204
0.468228
0.496681
0.48018
0.49161
0.548193
3.10039
3.23058
3.21221
3.18568
3.15365
3.09663
3.01436
2.87826
2.6324
2.37939
2.11586
1.85725
1.7238
1.65896
1.62022
1.51591
1.17635
0.359626
0.647737
0.583212
0.512857
0.538158
0.563106
0.594825
0.719626
3.10039
3.23059
3.21221
3.18571
3.15372
3.09683
3.01448
2.87885
2.63339
2.38071
2.1162
1.85961
1.71694
1.5914
1.33471
0.544079
0.383787
0.530861
0.417846
0.351036
0.303645
0.285319
0.176461
0.174368
0.0318889
3.10043
3.23062
3.21226
3.18576
3.15379
3.09694
3.0146
2.879
2.63344
2.3807
2.116
1.8595
1.71741
1.59609
1.34985
0.588023
0.374806
0.536552
0.420063
0.354143
0.306157
0.2899
0.184146
0.182828
0.066818
3.1004
3.23061
3.21224
3.18573
3.15371
3.09677
3.01441
2.87854
2.63252
2.37995
2.11494
1.85814
1.71707
1.60337
1.37651
0.668625
0.356178
0.546997
0.429036
0.36278
0.313851
0.300517
0.201031
0.200817
0.110866
3.10044
3.23064
3.21229
3.18579
3.15382
3.097
3.01466
2.87909
2.63348
2.38075
2.11581
1.85941
1.71995
1.61666
1.41646
0.79083
0.317813
0.561167
0.44416
0.3768
0.326668
0.317536
0.226145
0.227586
0.159033
3.1004
3.23061
3.21224
3.18573
3.15371
3.09679
3.01442
2.87857
2.6326
2.37999
2.11522
1.85812
1.71998
1.62794
1.4579
0.938488
0.263382
0.573555
0.468223
0.39679
0.344385
0.341027
0.258326
0.262231
0.211969
3.10044
3.23064
3.21228
3.18579
3.15382
3.097
3.01468
2.87914
2.63376
2.38069
2.11656
1.85937
1.7227
1.64102
1.50251
1.1047
0.221897
0.578918
0.501758
0.422698
0.367408
0.371701
0.298445
0.304959
0.273039
3.1004
3.2306
3.21223
3.18572
3.15374
3.09687
3.01453
2.87892
2.63374
2.38033
2.11703
1.85934
1.72358
1.64857
1.54056
1.25371
0.349113
0.569295
0.545686
0.45357
0.395019
0.409149
0.347488
0.356408
0.34589
3.10044
3.23065
3.21228
3.18578
3.15381
3.09695
3.01461
2.87902
2.6339
2.37995
2.1169
1.85872
1.7238
1.65165
1.57284
1.36724
0.620724
0.530575
0.59302
0.490318
0.428256
0.451758
0.407568
0.418007
0.437016
3.10043
3.23063
3.21228
3.18576
3.15379
3.09689
3.0146
2.8789
2.63358
2.37992
2.11649
1.85851
1.72442
1.65612
1.6003
1.45285
0.914675
0.438854
0.632505
0.533094
0.468158
0.496611
0.48009
0.49155
0.548144
3.10044
3.23065
3.2123
3.18578
3.15382
3.09693
3.01466
2.879
2.6336
2.38005
2.11643
1.85825
1.72496
1.66014
1.6213
1.51684
1.17693
0.359803
0.647644
0.583098
0.512793
0.538117
0.563025
0.594779
0.719592
3.10044
3.23065
3.21229
3.18579
3.15382
3.09698
3.01462
2.87906
2.63352
2.38046
2.11568
1.85914
1.71649
1.59102
1.33443
0.543879
0.38383
0.530852
0.417849
0.351037
0.303651
0.28532
0.176464
0.174369
0.0318872
3.10043
3.23064
3.21228
3.18578
3.15381
3.09695
3.01459
2.87902
2.63346
2.38053
2.11569
1.85925
1.71717
1.59583
1.34955
0.587716
0.374915
0.536523
0.420051
0.354135
0.30616
0.289901
0.184148
0.182828
0.066816
3.10044
3.23065
3.21229
3.18579
3.15382
3.09698
3.01463
2.87909
2.63355
2.3807
2.11565
1.8593
1.7184
1.60468
1.37774
0.669926
0.355634
0.546971
0.428955
0.362757
0.313851
0.300516
0.201032
0.200817
0.110864
3.10041
3.23061
3.21225
3.18574
3.15377
3.09692
3.01458
2.87904
2.63354
2.3809
2.11604
1.85961
1.7201
1.61676
1.4165
0.790937
0.31775
0.561138
0.444109
0.37678
0.326666
0.317535
0.226145
0.227585
0.159031
3.10045
3.23065
3.21229
3.1858
3.15384
3.09703
3.0147
2.87919
2.63367
2.38085
2.11618
1.8595
1.72147
1.62949
1.45943
0.940119
0.26276
0.573525
0.468178
0.396783
0.344388
0.341029
0.258326
0.26223
0.211966
3.10043
3.23066
3.21229
3.18578
3.15376
3.09684
3.01445
2.87858
2.6326
2.37948
2.11497
1.85754
1.72086
1.63915
1.50072
1.10296
0.221662
0.579093
0.501808
0.422725
0.367421
0.371704
0.298446
0.304957
0.273036
3.10045
3.23065
3.2123
3.1858
3.15384
3.09703
3.01472
2.87918
2.63398
2.38038
2.11699
1.85921
1.72347
1.64851
1.54053
1.25362
0.348897
0.569402
0.545713
0.453601
0.395035
0.409154
0.347489
0.356407
0.345887
3.1004
3.23059
3.21222
3.18572
3.15373
3.09685
3.01452
2.87889
2.63386
2.38012
2.11734
1.85913
1.72416
1.65197
1.57311
1.36743
0.620806
0.530604
0.593017
0.490331
0.428267
0.451762
0.407569
0.418007
0.437013
3.10045
3.23066
3.2123
3.18579
3.15383
3.09695
3.01469
2.87904
2.63387
2.38021
2.11673
1.85864
1.72447
1.65612
1.60027
1.45278
0.914542
0.438965
0.632514
0.533102
0.468165
0.496614
0.48009
0.491549
0.548142
3.1004
3.23059
3.21223
3.18571
3.15373
3.09681
3.01455
2.87884
2.63361
2.38034
2.11698
1.85875
1.72537
1.6605
1.62159
1.51705
1.17705
0.359823
0.647645
0.5831
0.512802
0.538122
0.563026
0.594779
0.719592
3.10045
3.23066
3.2123
3.1858
3.15384
3.097
3.01466
2.87913
2.63366
2.3806
2.1158
1.85917
1.71651
1.59101
1.33437
0.54378
0.383857
0.530841
0.417865
0.351048
0.303663
0.285326
0.176469
0.174372
0.0318858
3.10045
3.23066
3.2123
3.1858
3.15384
3.097
3.01466
2.87913
2.63363
2.38064
2.11573
1.85923
1.71714
1.59578
1.34951
0.587675
0.374921
0.536519
0.420059
0.354144
0.306173
0.289907
0.184154
0.182831
0.0668158
3.10045
3.23066
3.2123
3.1858
3.15384
3.097
3.01466
2.87913
2.63359
2.38072
2.11565
1.85931
1.71841
1.60469
1.37774
0.669878
0.355646
0.546979
0.428964
0.362765
0.313864
0.300523
0.201037
0.20082
0.110864
3.10045
3.23066
3.2123
3.1858
3.15384
3.09701
3.01466
2.87914
2.63358
2.38074
2.11571
1.85935
1.71989
1.61654
1.41628
0.790627
0.31789
0.561169
0.444132
0.376789
0.326678
0.317542
0.22615
0.227588
0.159032
3.10045
3.23066
3.2123
3.1858
3.15384
3.09701
3.01465
2.87914
2.63362
2.3807
2.11592
1.85932
1.72133
1.6293
1.4592
0.939731
0.262967
0.57353
0.468184
0.396784
0.344397
0.341034
0.258331
0.262233
0.211968
3.10045
3.23066
3.2123
3.1858
3.15384
3.09701
3.01466
2.87914
2.63374
2.38052
2.11628
1.85918
1.72254
1.64084
1.5023
1.10446
0.221818
0.578963
0.501763
0.422707
0.367424
0.371708
0.29845
0.304961
0.273038
3.10045
3.23066
3.2123
3.1858
3.15384
3.097
3.01466
2.87913
2.63393
2.38024
2.11668
1.859
1.72328
1.64829
1.5403
1.25345
0.348842
0.569378
0.545705
0.45359
0.395037
0.409158
0.347493
0.356411
0.34589
3.10045
3.23066
3.2123
3.1858
3.15384
3.09699
3.01467
2.87912
2.63404
2.38
2.11694
1.85874
1.72379
1.65163
1.57281
1.36719
0.620614
0.530641
0.593027
0.490333
0.428272
0.451767
0.407572
0.41801
0.437016
3.10045
3.23066
3.2123
3.18579
3.15383
3.09696
3.0147
2.87908
2.6339
2.38017
2.11668
1.85859
1.72442
1.65608
1.60024
1.45276
0.914531
0.438951
0.632511
0.533101
0.468171
0.49662
0.480093
0.491552
0.548145
3.10045
3.23066
3.21231
3.18579
3.15383
3.09696
3.01471
2.87907
2.63379
2.3802
2.11659
1.85835
1.725
1.66015
1.62128
1.5168
1.17685
0.359818
0.647655
0.583095
0.512803
0.538128
0.563028
0.594781
0.719596
3.10045
3.23066
3.21231
3.18581
3.15385
3.09702
3.0147
2.87917
2.63368
2.38065
2.11588
1.85921
1.71652
1.59101
1.33439
0.54388
0.383818
0.530848
0.417851
0.351041
0.30365
0.285319
0.176442
0.174357
0.0318785
3.10045
3.23066
3.21231
3.18581
3.15385
3.09702
3.0147
2.87917
2.63366
2.3807
2.11581
1.85926
1.71714
1.59579
1.34952
0.587753
0.374887
0.53652
0.420049
0.354136
0.306153
0.289889
0.184101
0.18282
0.066832
3.10045
3.23066
3.21231
3.18581
3.15385
3.09702
3.01468
2.87916
2.63363
2.38075
2.11567
1.85932
1.71841
1.60471
1.37778
0.669964
0.355617
0.546988
0.428969
0.362768
0.313854
0.300517
0.201015
0.200832
0.110915
3.10045
3.23066
3.21231
3.1858
3.15384
3.09702
3.01467
2.87916
2.63362
2.38077
2.11573
1.85936
1.7199
1.61656
1.41631
0.790696
0.317873
0.561178
0.444141
0.376796
0.326679
0.31755
0.226147
0.227591
0.159075
3.10045
3.23066
3.21231
3.18581
3.15385
3.09703
3.01469
2.87918
2.63365
2.38076
2.11601
1.85935
1.72132
1.62929
1.4592
0.939809
0.262922
0.573524
0.468185
0.396785
0.344397
0.341046
0.258326
0.262216
0.211973
3.10045
3.23066
3.2123
3.18581
3.15384
3.09702
3.01468
2.87916
2.63377
2.38056
2.11633
1.85919
1.72251
1.6408
1.50228
1.10451
0.221793
0.578947
0.501765
0.422703
0.36742
0.37172
0.298446
0.304932
0.273018
3.10045
3.23066
3.21231
3.18581
3.15385
3.09702
3.01469
2.87916
2.63395
2.38025
2.11673
1.859
1.72325
1.64826
1.54029
1.25348
0.348938
0.569346
0.545711
0.453585
0.395033
0.409168
0.347497
0.356382
0.345865
3.10045
3.23066
3.21231
3.1858
3.15384
3.097
3.01468
2.87913
2.63403
2.37998
2.11691
1.8587
1.72378
1.65163
1.57283
1.36724
0.620746
0.530601
0.593039
0.490332
0.428269
0.451773
0.407582
0.417991
0.436995
3.10045
3.23066
3.21231
3.1858
3.15384
3.09697
3.01472
2.87908
2.63385
2.38015
2.1167
1.85858
1.7244
1.65607
1.60024
1.45279
0.914657
0.438884
0.632514
0.533104
0.468169
0.49662
0.480102
0.491539
0.548128
3.10045
3.23066
3.2123
3.18579
3.15383
3.09696
3.01472
2.87906
2.63374
2.38021
2.11665
1.8584
1.72504
1.66017
1.6213
1.51682
1.1769
0.359831
0.647653
0.583107
0.512804
0.538122
0.563036
0.594773
0.719584
3.10044
3.23066
3.2123
3.1858
3.15384
3.097
3.01466
2.87913
2.63365
2.3806
2.11578
1.85919
1.71651
1.591
1.33437
0.543783
0.383856
0.530842
0.417865
0.351048
0.303662
0.285325
0.176468
0.174372
0.0318856
3.10044
3.23066
3.2123
3.1858
3.15383
3.097
3.01466
2.87913
2.63363
2.38064
2.11573
1.85923
1.71714
1.59579
1.34951
0.587678
0.37492
0.536519
0.420059
0.354144
0.306172
0.289906
0.184153
0.182831
0.0668159
3.10044
3.23066
3.2123
3.1858
3.15384
3.097
3.01466
2.87913
2.63359
2.38072
2.11565
1.85931
1.71841
1.60469
1.37774
0.669882
0.355641
0.546978
0.428963
0.362764
0.313862
0.300521
0.201036
0.20082
0.110864
3.10044
3.23066
3.2123
3.1858
3.15383
3.097
3.01465
2.87913
2.63358
2.38073
2.11571
1.85934
1.71988
1.61653
1.41627
0.79062
0.31789
0.561167
0.444129
0.376787
0.326676
0.31754
0.226149
0.227588
0.159032
3.10044
3.23066
3.2123
3.1858
3.15384
3.09701
3.01465
2.87914
2.63361
2.3807
2.11592
1.85931
1.72132
1.62929
1.45919
0.939743
0.26295
0.573524
0.468179
0.39678
0.344393
0.341032
0.25833
0.262233
0.211967
3.10044
3.23066
3.2123
3.1858
3.15383
3.097
3.01465
2.87913
2.63374
2.3805
2.11626
1.85916
1.72251
1.64082
1.50228
1.10446
0.221804
0.578955
0.501758
0.422701
0.367418
0.371705
0.298449
0.304961
0.273036
3.10044
3.23066
3.2123
3.1858
3.15383
3.097
3.01466
2.87912
2.63392
2.38021
2.11666
1.85897
1.72324
1.64827
1.54029
1.25346
0.348879
0.569363
0.545699
0.453583
0.395031
0.409155
0.347491
0.35641
0.345887
3.10044
3.23065
3.2123
3.18579
3.15383
3.09699
3.01466
2.8791
2.634
2.37997
2.1169
1.85869
1.72376
1.65161
1.57281
1.3672
0.620667
0.530619
0.593024
0.490326
0.428267
0.451764
0.407571
0.41801
0.437014
3.10044
3.23065
3.2123
3.18579
3.15383
3.09695
3.01469
2.87905
2.63383
2.38009
2.11661
1.85853
1.72439
1.65607
1.60024
1.45279
0.91459
0.43893
0.632511
0.533098
0.468167
0.496617
0.480091
0.491552
0.548143
3.10044
3.23065
3.2123
3.18578
3.15382
3.09694
3.01468
2.87904
2.63371
2.38015
2.11655
1.85835
1.72502
1.66018
1.62131
1.51683
1.17687
0.35983
0.647659
0.583098
0.512801
0.538125
0.563027
0.59478
0.719593
3.10045
3.23066
3.2123
3.1858
3.15384
3.097
3.01466
2.87913
2.63366
2.3806
2.1158
1.85917
1.71651
1.59101
1.33437
0.543779
0.383857
0.530841
0.417864
0.351048
0.303663
0.285326
0.176469
0.174372
0.0318858
3.10045
3.23066
3.2123
3.1858
3.15384
3.097
3.01466
2.87913
2.63363
2.38064
2.11573
1.85923
1.71714
1.59578
1.34951
0.587675
0.374921
0.536519
0.420059
0.354144
0.306173
0.289907
0.184154
0.182831
0.0668158
3.10045
3.23066
3.2123
3.1858
3.15384
3.097
3.01466
2.87913
2.63359
2.38072
2.11565
1.85931
1.71841
1.60469
1.37774
0.669877
0.355646
0.546978
0.428964
0.362765
0.313863
0.300523
0.201037
0.20082
0.110864
3.10045
3.23066
3.2123
3.1858
3.15384
3.09701
3.01466
2.87914
2.63358
2.38074
2.11571
1.85935
1.71989
1.61654
1.41628
0.790626
0.31789
0.561169
0.444132
0.376789
0.326678
0.317542
0.22615
0.227588
0.159032
3.10045
3.23066
3.2123
3.1858
3.15384
3.09701
3.01465
2.87914
2.63362
2.3807
2.11592
1.85932
1.72133
1.6293
1.4592
0.93973
0.262967
0.57353
0.468184
0.396784
0.344397
0.341034
0.258331
0.262233
0.211968
3.10045
3.23066
3.2123
3.1858
3.15384
3.09701
3.01466
2.87914
2.63374
2.38052
2.11628
1.85918
1.72254
1.64084
1.5023
1.10446
0.221819
0.578963
0.501763
0.422707
0.367424
0.371708
0.29845
0.304961
0.273038
3.10045
3.23066
3.2123
3.1858
3.15384
3.097
3.01466
2.87913
2.63393
2.38024
2.11668
1.859
1.72328
1.64829
1.5403
1.25345
0.348842
0.569378
0.545705
0.45359
0.395037
0.409158
0.347493
0.356411
0.34589
3.10045
3.23066
3.2123
3.1858
3.15384
3.09699
3.01467
2.87912
2.63404
2.38
2.11694
1.85874
1.72379
1.65163
1.57281
1.36719
0.620613
0.530641
0.593027
0.490333
0.428272
0.451767
0.407572
0.41801
0.437016
3.10045
3.23066
3.2123
3.18579
3.15383
3.09696
3.0147
2.87908
2.6339
2.38017
2.11668
1.85859
1.72442
1.65608
1.60024
1.45276
0.914531
0.438951
0.632511
0.533101
0.468171
0.49662
0.480093
0.491552
0.548145
3.10045
3.23066
3.21231
3.18579
3.15383
3.09696
3.01471
2.87907
2.63379
2.3802
2.11659
1.85835
1.725
1.66015
1.62128
1.5168
1.17685
0.359818
0.647655
0.583095
0.512803
0.538128
0.563028
0.594781
0.719596
3.10044
3.23065
3.21229
3.18579
3.15382
3.09698
3.01462
2.87906
2.63352
2.38046
2.11568
1.85914
1.71649
1.59102
1.33443
0.543879
0.38383
0.530852
0.417849
0.351037
0.303651
0.28532
0.176464
0.174369
0.0318872
3.10043
3.23064
3.21228
3.18578
3.15381
3.09695
3.01459
2.87902
2.63346
2.38053
2.11569
1.85925
1.71717
1.59583
1.34955
0.587716
0.374915
0.536523
0.420051
0.354135
0.30616
0.289901
0.184148
0.182828
0.066816
3.10044
3.23065
3.21229
3.18579
3.15382
3.09698
3.01463
2.87909
2.63355
2.3807
2.11565
1.8593
1.7184
1.60468
1.37774
0.669926
0.355634
0.546971
0.428955
0.362757
0.313851
0.300516
0.201032
0.200817
0.110864
3.10041
3.23061
3.21225
3.18574
3.15377
3.09692
3.01458
2.87904
2.63354
2.3809
2.11604
1.85961
1.7201
1.61676
1.4165
0.790937
0.31775
0.561138
0.444109
0.37678
0.326666
0.317535
0.226145
0.227585
0.159031
3.10045
3.23065
3.21229
3.1858
3.15384
3.09703
3.0147
2.87919
2.63367
2.38085
2.11618
1.8595
1.72147
1.62949
1.45943
0.940119
0.26276
0.573525
0.468178
0.396783
0.344388
0.341029
0.258326
0.26223
0.211966
3.10043
3.23066
3.21229
3.18578
3.15376
3.09684
3.01445
2.87858
2.6326
2.37948
2.11497
1.85754
1.72086
1.63915
1.50072
1.10296
0.221662
0.579093
0.501808
0.422725
0.367421
0.371704
0.298446
0.304957
0.273036
3.10045
3.23065
3.2123
3.1858
3.15384
3.09703
3.01472
2.87918
2.63398
2.38038
2.11699
1.85921
1.72347
1.64851
1.54053
1.25362
0.348897
0.569402
0.545713
0.453601
0.395035
0.409154
0.347489
0.356407
0.345887
3.1004
3.23059
3.21222
3.18572
3.15373
3.09685
3.01452
2.87889
2.63386
2.38012
2.11734
1.85913
1.72416
1.65197
1.57311
1.36743
0.620806
0.530604
0.593017
0.490331
0.428267
0.451762
0.407569
0.418007
0.437013
3.10045
3.23066
3.2123
3.18579
3.15383
3.09695
3.01469
2.87904
2.63387
2.38021
2.11673
1.85864
1.72447
1.65612
1.60027
1.45278
0.914542
0.438965
0.632514
0.533102
0.468165
0.496614
0.48009
0.491549
0.548142
3.1004
3.23059
3.21223
3.18571
3.15373
3.09681
3.01455
2.87884
2.63361
2.38034
2.11698
1.85875
1.72537
1.6605
1.62159
1.51705
1.17705
0.359823
0.647645
0.5831
0.512802
0.538122
0.563026
0.594779
0.719592
3.10039
3.23059
3.21221
3.18571
3.15372
3.09683
3.01448
2.87885
2.63339
2.38071
2.1162
1.85961
1.71694
1.5914
1.33471
0.544079
0.383787
0.530861
0.417846
0.351036
0.303645
0.285319
0.176461
0.174368
0.031889
3.10043
3.23062
3.21226
3.18576
3.15379
3.09694
3.0146
2.879
2.63344
2.3807
2.116
1.8595
1.71741
1.59609
1.34985
0.588023
0.374806
0.536552
0.420063
0.354143
0.306157
0.2899
0.184146
0.182827
0.066818
3.1004
3.23061
3.21224
3.18573
3.15371
3.09677
3.01441
2.87854
2.63252
2.37995
2.11494
1.85814
1.71707
1.60337
1.37651
0.668625
0.356178
0.546997
0.429036
0.36278
0.313851
0.300517
0.201031
0.200817
0.110866
3.10044
3.23064
3.21229
3.18579
3.15382
3.097
3.01466
2.87909
2.63348
2.38075
2.11582
1.85941
1.71995
1.61666
1.41646
0.790831
0.317813
0.561167
0.44416
0.3768
0.326668
0.317536
0.226145
0.227586
0.159033
3.1004
3.23061
3.21224
3.18573
3.15371
3.09679
3.01442
2.87857
2.6326
2.37999
2.11522
1.85812
1.71998
1.62794
1.4579
0.938489
0.263382
0.573555
0.468223
0.39679
0.344385
0.341027
0.258326
0.262231
0.211969
3.10044
3.23064
3.21228
3.18579
3.15382
3.097
3.01468
2.87914
2.63376
2.38069
2.11656
1.85937
1.7227
1.64102
1.50251
1.1047
0.221897
0.578918
0.501758
0.422698
0.367408
0.371701
0.298445
0.304959
0.273039
3.1004
3.2306
3.21223
3.18572
3.15374
3.09687
3.01453
2.87892
2.63374
2.38033
2.11703
1.85934
1.72358
1.64858
1.54056
1.25371
0.349113
0.569295
0.545686
0.453571
0.395019
0.409149
0.347488
0.356408
0.34589
3.10044
3.23065
3.21228
3.18578
3.15381
3.09695
3.01461
2.87902
2.6339
2.37995
2.1169
1.85872
1.7238
1.65165
1.57284
1.36724
0.620725
0.530575
0.59302
0.490318
0.428256
0.451758
0.407568
0.418007
0.437016
3.10043
3.23063
3.21228
3.18576
3.15379
3.09689
3.0146
2.8789
2.63358
2.37992
2.11649
1.85851
1.72442
1.65612
1.6003
1.45285
0.914674
0.438854
0.632505
0.533094
0.468158
0.496611
0.48009
0.49155
0.548144
3.10044
3.23065
3.2123
3.18578
3.15382
3.09693
3.01466
2.879
2.6336
2.38005
2.11643
1.85825
1.72496
1.66014
1.6213
1.51684
1.17693
0.359803
0.647644
0.583098
0.512794
0.538117
0.563025
0.594779
0.719592
3.10044
3.23064
3.21228
3.18577
3.1538
3.09693
3.01455
2.87896
2.63336
2.38034
2.11563
1.85911
1.71649
1.59108
1.33464
0.544522
0.383787
0.530989
0.417935
0.351163
0.30379
0.285499
0.176736
0.174618
0.0332746
3.10042
3.23061
3.21225
3.18575
3.15377
3.09691
3.01458
2.87897
2.63341
2.38064
2.11601
1.85945
1.71734
1.59607
1.34995
0.588641
0.374712
0.536611
0.420107
0.354243
0.306263
0.290037
0.184306
0.183031
0.0674505
3.10044
3.23063
3.21227
3.18578
3.15381
3.09696
3.01461
2.87901
2.63336
2.38064
2.1158
1.85949
1.71864
1.605
1.37821
0.670754
0.355386
0.547097
0.429038
0.36288
0.313955
0.300654
0.201195
0.201023
0.111264
3.10043
3.23065
3.21228
3.18577
3.15375
3.0968
3.01442
2.87848
2.63225
2.37967
2.11455
1.85778
1.71824
1.61491
1.4148
0.789438
0.3185
0.561293
0.444279
0.37691
0.326766
0.31767
0.2263
0.227771
0.159322
3.10041
3.2306
3.21223
3.18574
3.15376
3.09692
3.01459
2.87903
2.63358
2.381
2.11661
1.85985
1.72176
1.62979
1.45976
0.9407
0.262879
0.573575
0.468286
0.396879
0.344472
0.341151
0.258461
0.262392
0.212184
3.10038
3.23055
3.21217
3.18568
3.15369
3.09682
3.01453
2.87888
2.63354
2.38097
2.11734
1.86006
1.72332
1.64164
1.50316
1.10575
0.22204
0.578916
0.501887
0.422787
0.367488
0.371815
0.298566
0.305094
0.273198
3.10043
3.23065
3.21228
3.18576
3.15375
3.09682
3.01445
2.87856
2.63287
2.37943
2.11576
1.85768
1.72184
1.64685
1.539
1.2525
0.348332
0.569551
0.545916
0.453708
0.395106
0.409255
0.347599
0.356514
0.346001
3.10038
3.23058
3.2122
3.18568
3.15365
3.09667
3.01432
2.87831
2.63271
2.37925
2.11635
1.85784
1.72279
1.65061
1.57188
1.36641
0.62015
0.530851
0.593209
0.490477
0.428349
0.45185
0.407672
0.41809
0.437091
3.10042
3.2306
3.21224
3.18573
3.15376
3.09688
3.01468
2.87898
2.63384
2.38067
2.11752
1.85925
1.72504
1.6567
1.60089
1.45338
0.915263
0.438864
0.632603
0.533228
0.468243
0.496687
0.480186
0.491614
0.548196
3.10036
3.23055
3.21217
3.18565
3.15362
3.0966
3.01438
2.8783
2.63258
2.37975
2.11655
1.85775
1.72413
1.65923
1.62038
1.51602
1.17649
0.359798
0.647711
0.583218
0.512868
0.538164
0.563111
0.594829
0.719629
3.10038
3.23056
3.21218
3.18567
3.15368
3.09676
3.01442
2.87872
2.63304
2.38028
2.11696
1.85876
1.72622
1.66324
1.63604
1.56096
1.35339
0.603855
0.607479
0.638008
0.560717
0.573692
0.64853
0.701561
0.902108
3.10038
3.23058
3.21219
3.18567
3.15363
3.09666
3.01417
2.87827
2.63218
2.37884
2.11591
1.85663
1.7244
1.66208
1.64014
1.5891
1.45957
0.970134
0.494724
0.678008
0.614446
0.617554
0.721051
0.789022
0.974458
3.10038
3.23055
3.21216
3.18566
3.15366
3.09676
3.01432
2.87868
2.63323
2.3796
2.1176
1.85818
1.7261
1.66378
1.64333
1.61238
1.52711
1.23387
0.498923
0.663939
0.671928
0.668911
0.765848
0.84119
0.990903
3.10035
3.23052
3.21212
3.18563
3.15362
3.09672
3.01431
2.87866
2.63333
2.37985
2.11815
1.8586
1.72636
1.66429
1.64488
1.62657
1.56836
1.39565
0.848059
0.586475
0.71898
0.712939
0.794893
0.873876
1.00034
3.10037
3.23057
3.21218
3.18566
3.15361
3.09664
3.01416
2.87825
2.63242
2.37863
2.11648
1.85656
1.7242
1.6623
1.64272
1.6317
1.58975
1.48823
1.16833
0.582297
0.729072
0.749095
0.827006
0.908697
1.01566
3.10037
3.23056
3.21217
3.18566
3.15362
3.09667
3.01422
2.87829
2.63243
2.37877
2.11673
1.85675
1.72443
1.66251
1.64339
1.63379
1.60176
1.53907
1.36142
0.912583
0.706916
0.775045
0.862722
0.943737
1.0339
3.10035
3.23054
3.21215
3.18564
3.1536
3.09666
3.01425
2.87836
2.63264
2.37906
2.11714
1.85695
1.72454
1.66265
1.64327
1.63433
1.60598
1.56123
1.45783
1.23981
0.817333
0.793584
0.89538
0.974873
1.05372
3.10035
3.23053
3.21214
3.18563
3.15358
3.09663
3.01421
2.8783
2.63257
2.37906
2.11718
1.85702
1.72461
1.66271
1.64341
1.63437
1.60614
1.56537
1.49784
1.40079
1.1736
0.878483
0.912857
0.99744
1.07539
3.10037
3.23055
3.21216
3.18565
3.15361
3.09664
3.0142
2.87827
2.63246
2.37887
2.11685
1.85682
1.72446
1.66255
1.64323
1.63419
1.60608
1.5658
1.50579
1.45588
1.39843
1.20434
0.991172
1.00612
1.09162
3.10034
3.23053
3.21213
3.18561
3.15355
3.09658
3.01412
2.87818
2.63243
2.37887
2.11696
1.85691
1.72453
1.66261
1.64327
1.63424
1.60612
1.56582
1.50563
1.4635
1.46635
1.44323
1.30609
1.11805
1.09939
3.10034
3.2305
3.2121
3.18561
3.1536
3.0967
3.0143
2.87863
2.6333
2.37988
2.11834
1.85868
1.72646
1.66457
1.64514
1.63596
1.60761
1.56692
1.50639
1.46399
1.47404
1.50172
1.50741
1.43305
1.28237
3.10036
3.23055
3.21216
3.18564
3.15359
3.09659
3.01411
2.87813
2.6322
2.37853
2.11646
1.85663
1.72434
1.66244
1.64312
1.63404
1.60596
1.56572
1.50568
1.46358
1.47435
1.50675
1.54272
1.5666
1.54622
3.10036
3.23055
3.21216
3.18564
3.15359
3.0966
3.01413
2.87815
2.63225
2.37857
2.11649
1.85662
1.72432
1.66242
1.64311
1.63404
1.60596
1.56573
1.50569
1.46357
1.47441
1.50719
1.54585
1.58471
1.61769
3.10034
3.2305
3.21211
3.18561
3.1536
3.09671
3.01431
2.87865
2.63332
2.37983
2.11826
1.85855
1.72634
1.66446
1.64505
1.6359
1.60757
1.56692
1.5064
1.46404
1.47466
1.50736
1.5462
1.58659
1.62636
3.10035
3.23054
3.21215
3.18563
3.15358
3.09662
3.01416
2.87824
2.63247
2.37878
2.11678
1.8567
1.72433
1.66245
1.64316
1.63415
1.60606
1.56584
1.50578
1.46364
1.47445
1.50725
1.54616
1.58674
1.62724
3.10037
3.23055
3.21217
3.18565
3.15361
3.09665
3.01419
2.87824
2.63233
2.37868
2.11665
1.85666
1.72437
1.66251
1.64325
1.63422
1.60613
1.56588
1.5058
1.46365
1.47446
1.50725
1.54617
1.58676
1.62734
3.10037
3.23055
3.21216
3.18565
3.15361
3.09664
3.01419
2.87824
2.63234
2.37874
2.11672
1.85675
1.72445
1.66257
1.64327
1.63422
1.60612
1.56586
1.50578
1.46363
1.47445
1.50725
1.54616
1.58676
1.62735
3.10034
3.23053
3.21213
3.18561
3.15355
3.09657
3.01411
2.87814
2.63235
2.37879
2.11688
1.85687
1.7245
1.66259
1.64325
1.63422
1.60611
1.56587
1.5058
1.46363
1.47445
1.50725
1.54616
1.58676
1.62735
3.10034
3.2305
3.2121
3.18561
3.1536
3.0967
3.01431
2.87866
2.63341
2.37999
2.11842
1.85868
1.72642
1.6645
1.64506
1.63589
1.60754
1.56688
1.50636
1.464
1.47464
1.50736
1.54622
1.5868
1.62737
3.10033
3.23051
3.21211
3.18559
3.15353
3.09653
3.01407
2.87807
2.63229
2.37879
2.11692
1.85693
1.72456
1.66265
1.6433
1.63426
1.60614
1.56588
1.5058
1.46363
1.47446
1.50725
1.54616
1.58676
1.62735
3.10038
3.23056
3.21218
3.18567
3.15363
3.09668
3.01424
2.8783
2.63241
2.37875
2.11668
1.85668
1.72437
1.6625
1.64322
1.63418
1.60608
1.56583
1.50575
1.46362
1.47445
1.50725
1.54617
1.58676
1.62736
3.10033
3.2305
3.21211
3.18559
3.15353
3.09655
3.0141
2.87812
2.63225
2.37882
2.11704
1.85701
1.72468
1.66281
1.6435
1.63448
1.60634
1.56605
1.50593
1.46372
1.4745
1.50728
1.54618
1.58677
1.62736
3.10038
3.23056
3.21218
3.18567
3.15363
3.09668
3.01424
2.8783
2.6324
2.37875
2.11668
1.85668
1.72438
1.66251
1.64323
1.63418
1.60609
1.56583
1.50575
1.46362
1.47445
1.50725
1.54617
1.58677
1.62736
3.10033
3.23051
3.2121
3.18558
3.15352
3.09651
3.01404
2.87803
2.63222
2.37874
2.11688
1.85692
1.72457
1.66267
1.64332
1.63429
1.60616
1.5659
1.50582
1.46365
1.47447
1.50726
1.54617
1.58676
1.62736
3.10034
3.2305
3.2121
3.18561
3.1536
3.0967
3.01431
2.87868
2.63343
2.38004
2.11847
1.85873
1.72646
1.66454
1.64509
1.63591
1.60756
1.56689
1.50636
1.464
1.47464
1.50736
1.54622
1.5868
1.62737
3.10033
3.23051
3.2121
3.18558
3.15352
3.09651
3.01404
2.87804
2.63223
2.37874
2.11689
1.85694
1.72458
1.66267
1.64331
1.63426
1.60614
1.56587
1.50579
1.46363
1.47446
1.50726
1.54617
1.58676
1.62736
3.10038
3.23056
3.21218
3.18567
3.15363
3.09668
3.01425
2.87831
2.63243
2.37881
2.11675
1.85673
1.72442
1.66253
1.64325
1.6342
1.6061
1.56584
1.50576
1.46362
1.47445
1.50725
1.54616
1.58676
1.62735
3.10033
3.23051
3.21211
3.1856
3.15354
3.09656
3.01412
2.87816
2.63233
2.37888
2.11708
1.85703
1.72467
1.66279
1.64347
1.63444
1.6063
1.56601
1.50589
1.4637
1.47449
1.50727
1.54618
1.58677
1.62736
3.10038
3.23057
3.21218
3.18567
3.15363
3.09669
3.01424
2.87833
2.63248
2.3788
2.11672
1.85668
1.72436
1.66248
1.6432
1.63416
1.60607
1.56582
1.50575
1.46362
1.47444
1.50725
1.54616
1.58676
1.62735
3.10034
3.23053
3.21213
3.18561
3.15355
3.09657
3.01412
2.87817
2.63241
2.3788
2.11689
1.85685
1.72446
1.66257
1.64324
1.63422
1.60611
1.56587
1.5058
1.46364
1.47445
1.50725
1.54616
1.58676
1.62735
3.10035
3.23051
3.21211
3.18562
3.15361
3.09672
3.01434
2.87871
2.63346
2.38003
2.11845
1.85871
1.72644
1.66452
1.64507
1.6359
1.60755
1.56689
1.50637
1.464
1.47464
1.50735
1.54622
1.58679
1.62737
3.10037
3.23056
3.21216
3.18565
3.1536
3.09661
3.01414
2.87817
2.63228
2.37857
2.11649
1.85661
1.72431
1.66241
1.64308
1.63403
1.60595
1.56573
1.50569
1.46357
1.47442
1.50723
1.54615
1.58675
1.62734
3.10038
3.23057
3.21218
3.18567
3.15362
3.09666
3.0142
2.87829
2.63245
2.37868
2.11653
1.85657
1.72424
1.66234
1.64304
1.63398
1.60592
1.5657
1.50567
1.46356
1.47441
1.50722
1.54614
1.58675
1.62734
3.10035
3.23051
3.21212
3.18563
3.15362
3.09674
3.01435
2.87869
2.63335
2.37983
2.11826
1.85857
1.72636
1.66448
1.64506
1.63592
1.60759
1.56694
1.50642
1.46404
1.47466
1.50736
1.54623
1.58679
1.62737
3.10039
3.23059
3.2122
3.18569
3.15365
3.09671
3.01425
2.87838
2.63255
2.37865
2.11645
1.85643
1.72411
1.66223
1.64296
1.63394
1.60589
1.56569
1.50567
1.46356
1.47441
1.50722
1.54614
1.58674
1.62734
3.10037
3.23057
3.21218
3.18567
3.15362
3.09665
3.01418
2.87824
2.63236
2.3786
2.1165
1.85661
1.72428
1.66238
1.64305
1.63399
1.60591
1.56569
1.50566
1.46355
1.47441
1.50722
1.54614
1.58675
1.62734
3.10038
3.23056
3.21217
3.18568
3.15368
3.0968
3.01439
2.87878
2.63344
2.37967
2.11784
1.85822
1.72602
1.66413
1.64472
1.63555
1.60726
1.56666
1.5062
1.46391
1.47458
1.50732
1.5462
1.58678
1.62736
3.10036
3.23055
3.21216
3.18565
3.1536
3.09666
3.01423
2.87835
2.63265
2.37897
2.11701
1.85684
1.7244
1.66248
1.64315
1.63414
1.60605
1.56583
1.50578
1.46363
1.47444
1.50724
1.54615
1.58675
1.62734
3.10038
3.23056
3.21217
3.18568
3.15368
3.09681
3.01441
2.87878
2.63342
2.37967
2.11788
1.85822
1.726
1.66411
1.6447
1.63555
1.60727
1.56669
1.50625
1.46394
1.47461
1.50734
1.54621
1.58679
1.62737
3.10038
3.23058
3.2122
3.18568
3.15365
3.0967
3.01423
2.87834
2.6325
2.37865
2.11651
1.85655
1.72422
1.66232
1.64301
1.63396
1.60589
1.56568
1.50566
1.46356
1.47441
1.50722
1.54614
1.58675
1.62734
3.10043
3.23064
3.21228
3.18576
3.15379
3.09692
3.01456
2.87897
2.63336
2.37998
2.11627
1.85808
1.72553
1.66254
1.63535
1.56033
1.35281
0.603339
0.60754
0.637926
0.560653
0.573657
0.64846
0.701522
0.902086
3.10044
3.23065
3.21229
3.18578
3.15381
3.09698
3.01456
2.87909
2.63361
2.37975
2.11672
1.85772
1.72557
1.66322
1.64122
1.59006
1.46029
0.970331
0.494801
0.677954
0.614376
0.617527
0.720995
0.788987
0.97444
3.10041
3.23061
3.21224
3.18574
3.15376
3.09693
3.01453
2.87904
2.63377
2.37975
2.11743
1.85791
1.72572
1.66336
1.64288
1.61196
1.52674
1.23349
0.498717
0.663988
0.671865
0.668886
0.765803
0.841165