/*--------------------------------*- C++ -*----------------------------------*\
| =========                 |                                                 |
| \\      /  F ield         | OpenFOAM: The Open Source CFD Toolbox           |
|  \\    /   O peration     | Version:  4.1                                   |
|   \\  /    A nd           | Web:      www.OpenFOAM.org                      |
|    \\/     M anipulation  |                                                 |
\*---------------------------------------------------------------------------*/
FoamFile
{
    version     2.0;
    format      ascii;
    class       volScalarField;
    location    "0.26";
    object      p;
}
// * * * * * * * * * * * * * * * * * * * * * * * * * * * * * * * * * * * * * //

dimensions      [1 -1 -2 0 0 0 0];

internalField   nonuniform List<scalar> 
52500
(
0.0917558
0.0654291
0.0656157
0.0661354
0.0672201
0.0694099
0.0728299
0.0787213
0.0904447
0.106885
0.132783
0.179145
0.213223
0.253183
0.355965
0.790633
3.10775
3.01819
2.91655
2.94199
3.35438
3.77877
3.89649
3.89465
3.8877
0.0917561
0.0654296
0.0656162
0.066136
0.0672207
0.0694105
0.0728317
0.0787234
0.0904483
0.106878
0.132788
0.179046
0.213346
0.251729
0.349948
0.758064
3.03927
3.04149
2.92496
2.94315
3.34721
3.7752
3.89174
3.88653
3.87773
0.0917561
0.0654298
0.0656164
0.0661362
0.0672209
0.0694107
0.0728327
0.0787241
0.0904496
0.106868
0.132801
0.178929
0.213638
0.249126
0.338992
0.699217
2.86138
3.10011
2.93203
2.93521
3.3223
3.75975
3.87608
3.86296
3.84973
0.0917572
0.0654309
0.0656174
0.0661372
0.067222
0.0694116
0.0728359
0.0787258
0.0904473
0.106865
0.132743
0.17892
0.213978
0.245535
0.324384
0.626366
2.55159
3.19929
2.93816
2.91884
3.27496
3.72819
3.84785
3.82173
3.80081
0.0917573
0.0654313
0.0656179
0.0661377
0.0672227
0.0694124
0.0728388
0.0787304
0.0904529
0.106884
0.13264
0.179025
0.214089
0.241438
0.308844
0.552006
2.07969
3.35141
2.94527
2.90171
3.21023
3.67819
3.8071
3.76441
3.73293
0.0917566
0.065431
0.0656177
0.0661376
0.0672227
0.0694125
0.0728393
0.0787374
0.0904725
0.106934
0.132593
0.179255
0.213938
0.238028
0.294571
0.476333
1.50499
3.49319
2.94742
2.88698
3.12899
3.60221
3.74985
3.68768
3.63888
0.0917574
0.0654316
0.0656183
0.0661381
0.0672232
0.0694123
0.0728419
0.0787348
0.0904595
0.106945
0.132469
0.179469
0.213596
0.237163
0.283024
0.410132
1.04724
3.43284
2.95752
2.87998
3.04011
3.48881
3.67661
3.58829
3.51007
0.0917588
0.0654332
0.0656199
0.0661399
0.0672252
0.0694149
0.0728466
0.0787313
0.0904391
0.106933
0.132379
0.179556
0.213178
0.238113
0.273491
0.362347
0.737833
2.99477
3.05318
2.88376
2.95606
3.32481
3.5834
3.46732
3.3365
0.0917577
0.0654322
0.0656189
0.0661389
0.0672243
0.0694142
0.0728424
0.0787359
0.0904645
0.106963
0.132502
0.179683
0.212844
0.238415
0.265108
0.327957
0.565158
2.09626
3.26074
2.89176
2.87506
3.11155
3.46578
3.32656
3.10955
0.091758
0.0654329
0.0656197
0.0661399
0.0672256
0.0694163
0.0728449
0.0787437
0.0904794
0.106987
0.13254
0.179785
0.212456
0.238561
0.25877
0.303062
0.44436
1.21817
3.36351
2.89713
2.78889
2.85125
3.31829
3.14822
2.85605
0.0917577
0.0654316
0.0656182
0.066138
0.0672228
0.0694126
0.0728374
0.0787263
0.0904479
0.106867
0.132719
0.179032
0.213094
0.25307
0.355901
0.790862
3.10841
3.0175
2.91616
2.94175
3.35428
3.77858
3.89631
3.89452
3.88768
0.0917565
0.0654303
0.0656169
0.0661367
0.0672215
0.0694111
0.0728348
0.0787251
0.0904484
0.10687
0.132759
0.179007
0.213303
0.25169
0.34993
0.758212
3.04018
3.04059
2.92452
2.94288
3.34711
3.77502
3.89156
3.88639
3.87771
0.0917576
0.0654311
0.0656177
0.0661375
0.0672224
0.0694115
0.0728382
0.0787333
0.0904643
0.106888
0.132812
0.178987
0.213674
0.249168
0.339074
0.699632
2.86264
3.09887
2.93156
2.93492
3.3222
3.75957
3.87589
3.86282
3.84968
0.0917559
0.0654292
0.0656158
0.0661355
0.0672201
0.0694094
0.0728312
0.0787214
0.0904433
0.106865
0.132765
0.178933
0.213982
0.24555
0.324429
0.62658
2.55294
3.19807
2.93773
2.9186
3.27488
3.72802
3.84766
3.82154
3.80076
0.0917575
0.065431
0.0656175
0.0661373
0.067222
0.069411
0.0728374
0.0787319
0.090459
0.106898
0.132676
0.179095
0.214147
0.241509
0.308959
0.552441
2.0833
3.34877
2.94494
2.90153
3.21018
3.67804
3.8069
3.76421
3.73288
0.0917562
0.0654292
0.0656157
0.0661354
0.0672197
0.0694086
0.072831
0.0787177
0.09043
0.106884
0.132527
0.179219
0.213956
0.238076
0.294669
0.476515
1.50526
3.49303
2.94729
2.88685
3.12891
3.60208
3.74965
3.68747
3.63883
0.0917575
0.065431
0.0656176
0.0661373
0.067222
0.0694114
0.0728366
0.078722
0.0904328
0.106908
0.132429
0.17939
0.213533
0.237122
0.283005
0.410171
1.0471
3.43388
2.95748
2.87984
3.04
3.48872
3.6764
3.58807
3.51002
0.0917561
0.0654293
0.0656158
0.0661355
0.0672199
0.069409
0.0728309
0.0787154
0.090424
0.106919
0.132425
0.179517
0.213098
0.238043
0.273421
0.362321
0.738015
2.99583
3.05286
2.8836
2.95592
3.32474
3.58315
3.46715
3.33644
0.0917564
0.0654298
0.0656164
0.0661363
0.0672212
0.0694114
0.072832
0.0787212
0.090441
0.106937
0.132505
0.179607
0.212764
0.238346
0.265055
0.327957
0.565357
2.09737
3.26056
2.8916
2.8749
3.11149
3.46551
3.32638
3.1095
0.091756
0.0654291
0.0656156
0.0661354
0.0672201
0.0694099
0.0728279
0.0787166
0.0904314
0.106933
0.132514
0.17972
0.212409
0.238554
0.258776
0.303112
0.444541
1.21878
3.36382
2.89701
2.78872
2.85121
3.31802
3.14802
2.85596
0.091756
0.065429
0.0656155
0.0661352
0.0672196
0.0694089
0.0728288
0.0787176
0.090437
0.106867
0.132759
0.179085
0.213154
0.253131
0.355969
0.790998
3.1086
3.01749
2.9162
2.94179
3.35431
3.77856
3.89627
3.89447
3.88762
0.0917563
0.0654294
0.065616
0.0661357
0.0672202
0.0694096
0.0728305
0.0787196
0.0904405
0.106862
0.132768
0.179003
0.213307
0.251703
0.349963
0.758354
3.04027
3.04076
2.92459
2.94293
3.34714
3.775
3.89152
3.88634
3.87765
0.091756
0.0654289
0.0656154
0.066135
0.0672192
0.0694082
0.0728281
0.0787154
0.0904327
0.106845
0.13278
0.178903
0.213629
0.249136
0.339054
0.699524
2.86246
3.09956
2.9317
2.93499
3.32223
3.75955
3.87586
3.86278
3.84964
0.0917572
0.0654301
0.0656166
0.0661363
0.0672208
0.0694099
0.0728323
0.0787189
0.0904336
0.106848
0.132735
0.178911
0.213986
0.245558
0.324444
0.626584
2.55267
3.19878
2.93788
2.91866
3.27491
3.72801
3.84762
3.82151
3.80072
0.0917559
0.0654287
0.0656152
0.0661348
0.067219
0.0694078
0.0728286
0.0787163
0.0904308
0.106863
0.132647
0.179025
0.214103
0.241467
0.308918
0.552297
2.08163
3.35026
2.94502
2.90155
3.21019
3.67802
3.80687
3.76417
3.73284
0.0917563
0.0654296
0.0656161
0.0661359
0.0672205
0.0694095
0.0728338
0.0787296
0.0904595
0.106922
0.132609
0.17927
0.213965
0.23806
0.294627
0.476532
1.50638
3.49241
2.94727
2.88684
3.1289
3.60205
3.74961
3.68743
3.6388
0.0917558
0.0654287
0.0656152
0.0661348
0.067219
0.0694076
0.0728295
0.0787137
0.0904198
0.106898
0.132433
0.17939
0.213529
0.237119
0.283
0.410177
1.04743
3.43327
2.95729
2.87979
3.03996
3.48868
3.67635
3.58803
3.50999
0.0917576
0.0654312
0.0656178
0.0661376
0.0672223
0.0694118
0.0728376
0.0787216
0.0904301
0.106922
0.132402
0.179502
0.213087
0.238025
0.273408
0.362317
0.738055
2.99591
3.05265
2.88351
2.95585
3.3247
3.5831
3.46711
3.33642
0.0917558
0.0654287
0.0656152
0.0661348
0.0672191
0.069408
0.0728272
0.0787108
0.0904203
0.106905
0.132453
0.179555
0.212727
0.238328
0.265041
0.327951
0.565371
2.09762
3.26022
2.8915
2.87483
3.11145
3.46546
3.32635
3.10948
0.0917576
0.0654312
0.0656178
0.0661377
0.0672226
0.0694127
0.0728355
0.0787223
0.0904353
0.106928
0.132466
0.179676
0.21238
0.238522
0.258747
0.30309
0.444526
1.21882
3.36365
2.8969
2.78866
2.85117
3.31797
3.14799
2.85594
0.0917559
0.0654285
0.065615
0.0661346
0.0672187
0.0694076
0.0728269
0.078713
0.090427
0.106853
0.132734
0.179067
0.213148
0.253135
0.355997
0.791117
3.10878
3.01739
2.91614
2.94175
3.35428
3.77851
3.89622
3.89443
3.88758
0.0917559
0.0654285
0.065615
0.0661346
0.0672187
0.0694075
0.072827
0.0787132
0.0904279
0.106849
0.132755
0.179005
0.213321
0.251721
0.349993
0.758425
3.04044
3.04065
2.92452
2.94289
3.3471
3.77495
3.89147
3.88629
3.87761
0.0917559
0.0654285
0.065615
0.0661346
0.0672187
0.0694076
0.0728268
0.0787136
0.0904297
0.106842
0.132782
0.178901
0.213627
0.249134
0.339049
0.69953
2.86256
3.09944
2.93164
2.93495
3.32221
3.7595
3.8758
3.86273
3.84959
0.0917559
0.0654285
0.065615
0.0661346
0.0672188
0.0694076
0.0728267
0.0787139
0.0904301
0.106845
0.132747
0.178889
0.21394
0.245512
0.324399
0.626576
2.55295
3.19848
2.93783
2.91863
3.27489
3.72796
3.84757
3.82146
3.80067
0.0917559
0.0654285
0.065615
0.0661346
0.0672187
0.0694076
0.0728267
0.078714
0.0904286
0.106857
0.132651
0.179004
0.214075
0.241442
0.308901
0.552341
2.08229
3.34984
2.94501
2.90154
3.21018
3.67798
3.80681
3.76412
3.73279
0.0917559
0.0654285
0.065615
0.0661346
0.0672187
0.0694075
0.0728272
0.0787132
0.0904243
0.106876
0.132535
0.179192
0.213926
0.23804
0.29463
0.476492
1.50537
3.49322
2.9473
2.88684
3.1289
3.60202
3.74956
3.68738
3.63875
0.0917559
0.0654285
0.065615
0.0661346
0.0672187
0.0694073
0.0728279
0.0787117
0.0904183
0.106895
0.13244
0.179387
0.213528
0.23712
0.283002
0.410181
1.04734
3.43378
2.95737
2.8798
3.03996
3.48866
3.6763
3.58798
3.50994
0.0917559
0.0654285
0.065615
0.0661346
0.0672188
0.0694074
0.0728281
0.0787105
0.0904141
0.10691
0.132417
0.179515
0.213102
0.238051
0.273434
0.362349
0.738122
2.996
3.05264
2.88352
2.95585
3.32468
3.58305
3.46705
3.33637
0.0917559
0.0654285
0.065615
0.0661346
0.067219
0.069408
0.0728267
0.0787102
0.0904185
0.106907
0.132463
0.179578
0.212758
0.238355
0.265071
0.32799
0.565443
2.09783
3.26022
2.89149
2.87482
3.11144
3.46541
3.32629
3.10943
0.0917559
0.0654285
0.065615
0.0661347
0.067219
0.0694082
0.072826
0.0787111
0.0904189
0.106917
0.13248
0.17969
0.212393
0.238547
0.258774
0.303121
0.444577
1.219
3.36367
2.89689
2.78865
2.85117
3.31792
3.14794
2.8559
0.0917557
0.0654282
0.0656146
0.0661341
0.0672182
0.0694066
0.0728261
0.0787121
0.0904251
0.10685
0.132725
0.17906
0.213144
0.253127
0.355978
0.791026
3.10857
3.01749
2.91619
2.94179
3.35436
3.77857
3.89625
3.89441
3.88752
0.0917557
0.0654282
0.0656147
0.0661341
0.0672182
0.0694066
0.0728262
0.0787123
0.0904258
0.106846
0.132746
0.178999
0.213319
0.251716
0.349981
0.758363
3.04023
3.04075
2.92459
2.94294
3.34718
3.775
3.89149
3.88629
3.87755
0.0917557
0.0654282
0.0656147
0.0661342
0.0672182
0.0694068
0.0728257
0.0787119
0.0904266
0.106838
0.132777
0.178896
0.213628
0.249133
0.339046
0.699503
2.86239
3.09949
2.93171
2.93501
3.32227
3.75953
3.87582
3.86273
3.84956
0.0917557
0.0654283
0.0656147
0.0661342
0.0672183
0.069407
0.0728257
0.0787123
0.0904273
0.106841
0.132742
0.178884
0.213941
0.245513
0.3244
0.626563
2.5528
3.19852
2.93791
2.9187
3.27493
3.72797
3.84757
3.82152
3.80065
0.0917557
0.0654282
0.0656147
0.0661342
0.0672182
0.0694067
0.072826
0.0787129
0.0904261
0.106854
0.132642
0.179
0.214078
0.241444
0.3089
0.55231
2.08197
3.35002
2.9451
2.90163
3.21022
3.67799
3.80682
3.7642
3.73278
0.0917558
0.0654283
0.0656148
0.0661343
0.0672183
0.0694068
0.0728266
0.0787123
0.0904222
0.106873
0.132528
0.179191
0.213932
0.238045
0.294632
0.476466
1.50507
3.49341
2.94739
2.88693
3.12897
3.60205
3.74959
3.68745
3.63873
0.0917557
0.0654282
0.0656147
0.0661342
0.0672183
0.0694066
0.0728273
0.0787111
0.0904172
0.106895
0.132435
0.179395
0.21354
0.237134
0.283011
0.410172
1.04717
3.43385
2.9575
2.8799
3.04006
3.48872
3.67636
3.588
3.50991
0.0917558
0.0654283
0.0656148
0.0661344
0.0672185
0.0694071
0.0728275
0.0787102
0.090414
0.106911
0.13242
0.179522
0.213111
0.238059
0.273439
0.362342
0.738049
2.99569
3.05282
2.88363
2.95595
3.32474
3.58313
3.46709
3.33635
0.0917558
0.0654285
0.065615
0.0661346
0.0672189
0.0694079
0.072827
0.0787118
0.0904216
0.106913
0.132467
0.179591
0.212767
0.238357
0.265068
0.327976
0.565381
2.09739
3.2605
2.8916
2.8749
3.11148
3.46549
3.32636
3.10943
0.0917558
0.0654285
0.065615
0.0661347
0.067219
0.0694082
0.0728264
0.0787127
0.0904224
0.10692
0.13248
0.179681
0.212375
0.23852
0.258745
0.303087
0.444521
1.21876
3.36374
2.89696
2.7887
2.85119
3.318
3.14801
2.85591
0.0917559
0.0654286
0.065615
0.0661346
0.0672188
0.0694076
0.072827
0.0787132
0.0904274
0.106853
0.132738
0.179063
0.213148
0.253135
0.355998
0.791115
3.10878
3.0174
2.91615
2.94176
3.35428
3.77851
3.89622
3.89443
3.88757
0.0917559
0.0654286
0.065615
0.0661346
0.0672188
0.0694076
0.0728271
0.0787134
0.0904281
0.106849
0.132755
0.179005
0.213321
0.251721
0.349993
0.758424
3.04044
3.04067
2.92454
2.94289
3.3471
3.77495
3.89147
3.88629
3.8776
0.0917559
0.0654286
0.065615
0.0661346
0.0672188
0.0694076
0.0728269
0.0787137
0.0904298
0.106842
0.132783
0.178902
0.213628
0.249135
0.33905
0.699531
2.86256
3.09946
2.93166
2.93496
3.32221
3.7595
3.87581
3.86273
3.84959
0.0917559
0.0654286
0.0656151
0.0661346
0.0672188
0.0694077
0.0728267
0.078714
0.0904303
0.106845
0.132747
0.178891
0.213942
0.245514
0.324402
0.626582
2.55296
3.1985
2.93785
2.91865
3.27489
3.72796
3.84758
3.82146
3.80067
0.0917559
0.0654286
0.065615
0.0661346
0.0672188
0.0694077
0.0728268
0.0787141
0.0904288
0.106858
0.132652
0.179007
0.21408
0.241447
0.308908
0.552348
2.08227
3.3499
2.94503
2.90156
3.21019
3.67799
3.80682
3.76413
3.7328
0.0917559
0.0654286
0.0656151
0.0661346
0.0672188
0.0694076
0.0728273
0.0787134
0.0904246
0.106877
0.132537
0.179199
0.213934
0.23805
0.294641
0.476502
1.50534
3.49329
2.94733
2.88686
3.12891
3.60203
3.74958
3.68739
3.63876
0.0917559
0.0654286
0.0656151
0.0661346
0.0672188
0.0694075
0.0728281
0.0787122
0.090419
0.106898
0.132443
0.179401
0.213543
0.237137
0.283019
0.410195
1.04731
3.43382
2.95741
2.87982
3.03998
3.48868
3.67632
3.588
3.50996
0.0917559
0.0654286
0.0656151
0.0661347
0.0672189
0.0694077
0.0728285
0.0787115
0.0904161
0.106913
0.132425
0.179527
0.213115
0.238063
0.273445
0.362355
0.738107
2.99592
3.05271
2.88355
2.95587
3.3247
3.58308
3.46707
3.33638
0.0917559
0.0654287
0.0656153
0.0661349
0.0672194
0.0694087
0.0728276
0.0787126
0.0904235
0.106916
0.132477
0.179598
0.212772
0.238365
0.265076
0.327987
0.565418
2.09765
3.26032
2.89152
2.87484
3.11145
3.46543
3.32631
3.10945
0.0917559
0.0654288
0.0656153
0.066135
0.0672195
0.0694089
0.0728269
0.0787136
0.0904245
0.106923
0.132492
0.17969
0.212382
0.238529
0.258754
0.303098
0.444546
1.21891
3.36368
2.8969
2.78866
2.85118
3.31794
3.14796
2.85591
0.0917559
0.0654285
0.065615
0.0661346
0.0672187
0.0694075
0.0728269
0.078713
0.090427
0.106853
0.132734
0.179067
0.213148
0.253135
0.355997
0.791117
3.10878
3.01739
2.91614
2.94175
3.35428
3.77851
3.89622
3.89443
3.88758
0.0917559
0.0654285
0.065615
0.0661346
0.0672187
0.0694075
0.072827
0.0787132
0.0904279
0.106849
0.132755
0.179005
0.213321
0.251721
0.349993
0.758426
3.04044
3.04065
2.92452
2.94289
3.3471
3.77495
3.89147
3.88629
3.87761
0.0917559
0.0654285
0.065615
0.0661346
0.0672187
0.0694076
0.0728268
0.0787136
0.0904297
0.106842
0.132782
0.178901
0.213627
0.249134
0.339049
0.699531
2.86256
3.09944
2.93164
2.93495
3.32221
3.7595
3.8758
3.86273
3.84959
0.0917559
0.0654285
0.065615
0.0661346
0.0672188
0.0694076
0.0728267
0.0787139
0.0904301
0.106845
0.132747
0.17889
0.21394
0.245512
0.324399
0.626576
2.55295
3.19848
2.93783
2.91863
3.27489
3.72796
3.84757
3.82146
3.80067
0.0917559
0.0654285
0.065615
0.0661346
0.0672187
0.0694076
0.0728267
0.078714
0.0904286
0.106857
0.132651
0.179004
0.214075
0.241442
0.308901
0.552341
2.08229
3.34984
2.94501
2.90154
3.21018
3.67798
3.80681
3.76412
3.73279
0.0917559
0.0654285
0.065615
0.0661346
0.0672187
0.0694075
0.0728272
0.0787132
0.0904243
0.106876
0.132535
0.179192
0.213926
0.23804
0.29463
0.476492
1.50537
3.49322
2.9473
2.88684
3.1289
3.60202
3.74956
3.68738
3.63875
0.0917559
0.0654285
0.065615
0.0661346
0.0672187
0.0694073
0.0728279
0.0787117
0.0904183
0.106895
0.13244
0.179387
0.213528
0.23712
0.283002
0.410182
1.04734
3.43378
2.95737
2.8798
3.03996
3.48866
3.6763
3.58798
3.50994
0.0917559
0.0654285
0.065615
0.0661346
0.0672188
0.0694074
0.0728281
0.0787105
0.0904141
0.10691
0.132417
0.179515
0.213102
0.238051
0.273434
0.362349
0.738122
2.996
3.05264
2.88352
2.95585
3.32468
3.58305
3.46705
3.33637
0.0917559
0.0654285
0.065615
0.0661346
0.067219
0.069408
0.0728267
0.0787102
0.0904185
0.106907
0.132463
0.179578
0.212758
0.238355
0.265071
0.32799
0.565444
2.09783
3.26022
2.89149
2.87482
3.11144
3.46541
3.32629
3.10943
0.0917559
0.0654285
0.065615
0.0661347
0.067219
0.0694082
0.072826
0.0787111
0.0904189
0.106917
0.13248
0.17969
0.212393
0.238547
0.258774
0.303121
0.444577
1.219
3.36367
2.89689
2.78865
2.85117
3.31792
3.14794
2.8559
0.091756
0.065429
0.0656155
0.0661352
0.0672196
0.0694089
0.0728288
0.0787176
0.090437
0.106867
0.132759
0.179085
0.213154
0.253131
0.355969
0.790998
3.1086
3.01749
2.9162
2.94179
3.35431
3.77856
3.89627
3.89447
3.88762
0.0917563
0.0654294
0.065616
0.0661357
0.0672202
0.0694096
0.0728305
0.0787196
0.0904405
0.106862
0.132768
0.179003
0.213307
0.251703
0.349963
0.758354
3.04027
3.04076
2.92459
2.94293
3.34714
3.775
3.89152
3.88634
3.87765
0.091756
0.0654289
0.0656154
0.066135
0.0672192
0.0694082
0.0728281
0.0787154
0.0904327
0.106845
0.13278
0.178903
0.213629
0.249136
0.339054
0.699524
2.86246
3.09956
2.9317
2.93499
3.32223
3.75955
3.87586
3.86278
3.84964
0.0917572
0.0654301
0.0656166
0.0661363
0.0672208
0.0694099
0.0728323
0.0787189
0.0904336
0.106848
0.132735
0.178911
0.213986
0.245558
0.324444
0.626584
2.55267
3.19878
2.93788
2.91866
3.27491
3.72801
3.84762
3.82151
3.80072
0.0917559
0.0654287
0.0656152
0.0661348
0.067219
0.0694078
0.0728286
0.0787163
0.0904308
0.106863
0.132647
0.179025
0.214103
0.241467
0.308918
0.552297
2.08163
3.35026
2.94502
2.90155
3.21019
3.67802
3.80687
3.76417
3.73284
0.0917563
0.0654296
0.0656161
0.0661359
0.0672205
0.0694095
0.0728338
0.0787296
0.0904595
0.106922
0.132609
0.17927
0.213965
0.23806
0.294627
0.476532
1.50638
3.49241
2.94727
2.88684
3.1289
3.60205
3.74961
3.68743
3.6388
0.0917558
0.0654287
0.0656152
0.0661348
0.067219
0.0694076
0.0728295
0.0787137
0.0904198
0.106898
0.132433
0.17939
0.213529
0.237119
0.283
0.410177
1.04743
3.43327
2.95729
2.87979
3.03996
3.48868
3.67635
3.58803
3.50999
0.0917576
0.0654312
0.0656178
0.0661376
0.0672223
0.0694118
0.0728376
0.0787216
0.0904301
0.106922
0.132402
0.179502
0.213087
0.238025
0.273408
0.362317
0.738055
2.99591
3.05265
2.88351
2.95585
3.3247
3.5831
3.46711
3.33642
0.0917558
0.0654287
0.0656152
0.0661348
0.0672191
0.069408
0.0728272
0.0787108
0.0904203
0.106905
0.132453
0.179555
0.212727
0.238328
0.265041
0.327951
0.565371
2.09762
3.26022
2.8915
2.87483
3.11145
3.46546
3.32635
3.10948
0.0917576
0.0654312
0.0656178
0.0661377
0.0672226
0.0694127
0.0728355
0.0787223
0.0904353
0.106928
0.132466
0.179676
0.21238
0.238522
0.258747
0.30309
0.444526
1.21882
3.36365
2.8969
2.78866
2.85117
3.31797
3.14799
2.85594
0.0917578
0.0654316
0.0656182
0.066138
0.0672228
0.0694126
0.0728374
0.0787263
0.0904479
0.106867
0.132719
0.179032
0.213094
0.25307
0.355901
0.790862
3.10841
3.0175
2.91617
2.94175
3.35428
3.77858
3.89631
3.89452
3.88768
0.0917565
0.0654303
0.0656169
0.0661367
0.0672215
0.0694111
0.0728348
0.0787251
0.0904484
0.10687
0.132759
0.179007
0.213303
0.25169
0.34993
0.758212
3.04018
3.04059
2.92452
2.94288
3.34711
3.77502
3.89156
3.88639
3.87771
0.0917576
0.0654311
0.0656177
0.0661375
0.0672224
0.0694115
0.0728382
0.0787333
0.0904643
0.106888
0.132812
0.178987
0.213674
0.249168
0.339074
0.699631
2.86264
3.09887
2.93156
2.93492
3.3222
3.75957
3.87589
3.86282
3.84968
0.0917559
0.0654292
0.0656158
0.0661355
0.0672201
0.0694094
0.0728312
0.0787215
0.0904433
0.106865
0.132765
0.178933
0.213982
0.24555
0.324429
0.62658
2.55294
3.19807
2.93773
2.9186
3.27488
3.72802
3.84766
3.82154
3.80076
0.0917575
0.065431
0.0656175
0.0661373
0.067222
0.069411
0.0728374
0.0787319
0.090459
0.106898
0.132676
0.179095
0.214147
0.241509
0.308959
0.552441
2.08329
3.34877
2.94494
2.90153
3.21018
3.67804
3.8069
3.76421
3.73288
0.0917562
0.0654292
0.0656157
0.0661354
0.0672197
0.0694086
0.072831
0.0787177
0.0904299
0.106884
0.132526
0.179219
0.213956
0.238076
0.294669
0.476515
1.50526
3.49303
2.94729
2.88685
3.12891
3.60208
3.74965
3.68747
3.63883
0.0917575
0.065431
0.0656176
0.0661373
0.067222
0.0694114
0.0728366
0.078722
0.0904328
0.106908
0.132429
0.17939
0.213533
0.237122
0.283005
0.41017
1.0471
3.43388
2.95748
2.87984
3.04
3.48872
3.6764
3.58807
3.51002
0.0917561
0.0654293
0.0656158
0.0661355
0.0672199
0.069409
0.0728309
0.0787154
0.090424
0.106919
0.132425
0.179517
0.213098
0.238043
0.273421
0.362321
0.738015
2.99583
3.05286
2.8836
2.95592
3.32474
3.58315
3.46715
3.33644
0.0917564
0.0654298
0.0656164
0.0661363
0.0672212
0.0694114
0.072832
0.0787212
0.090441
0.106937
0.132505
0.179607
0.212764
0.238346
0.265054
0.327957
0.565357
2.09737
3.26055
2.8916
2.8749
3.11149
3.46551
3.32638
3.1095
0.091756
0.0654291
0.0656156
0.0661354
0.0672201
0.0694099
0.0728279
0.0787166
0.0904313
0.106933
0.132514
0.17972
0.212409
0.238553
0.258776
0.303112
0.444541
1.21878
3.36382
2.89701
2.78872
2.85121
3.31802
3.14802
2.85596
0.0917561
0.0654297
0.0656163
0.0661361
0.0672208
0.0694106
0.0728319
0.0787231
0.0904475
0.106881
0.132766
0.179099
0.213168
0.25313
0.355917
0.790614
3.10765
3.01818
2.91659
2.94201
3.35435
3.77874
3.89649
3.89468
3.8877
0.0917569
0.0654304
0.0656169
0.0661367
0.0672213
0.0694108
0.0728346
0.0787243
0.0904445
0.106874
0.132768
0.179059
0.213389
0.251765
0.349964
0.757941
3.03912
3.04156
2.92501
2.9432
3.34722
3.7752
3.89175
3.88654
3.8777
0.0917561
0.0654299
0.0656165
0.0661363
0.0672211
0.069411
0.0728337
0.0787267
0.090455
0.106875
0.132803
0.178935
0.21363
0.249113
0.33896
0.699095
2.86106
3.10007
2.93205
2.93525
3.32235
3.75978
3.87611
3.86294
3.84967
0.0917562
0.0654302
0.0656169
0.0661367
0.0672215
0.0694108
0.0728371
0.0787375
0.0904782
0.106905
0.132809
0.178963
0.213955
0.245507
0.324344
0.626371
2.55221
3.19831
2.93809
2.91884
3.275
3.72824
3.84788
3.8217
3.80078
0.0917571
0.0654308
0.0656174
0.0661371
0.0672218
0.0694111
0.0728363
0.0787242
0.0904395
0.10687
0.132619
0.17903
0.214115
0.241466
0.308883
0.552095
2.08024
3.35081
2.94525
2.90171
3.21025
3.67823
3.80713
3.76441
3.73294
0.0917584
0.0654326
0.0656192
0.0661391
0.0672242
0.0694138
0.0728437
0.0787319
0.0904467
0.106899
0.132499
0.179229
0.213978
0.238079
0.294623
0.476242
1.5029
3.49453
2.94743
2.88695
3.129
3.60224
3.74989
3.68771
3.6389
0.0917562
0.0654302
0.0656168
0.0661366
0.0672213
0.0694102
0.0728371
0.0787303
0.0904568
0.106939
0.132472
0.179434
0.213528
0.237094
0.282943
0.410006
1.04677
3.4336
2.95753
2.87994
3.04012
3.48883
3.67664
3.58831
3.51009
0.091758
0.0654328
0.0656195
0.0661396
0.067225
0.0694149
0.0728467
0.0787413
0.0904713
0.106969
0.132451
0.179546
0.213091
0.237991
0.273355
0.362198
0.737736
2.99454
3.05264
2.88371
2.95605
3.32481
3.58342
3.46734
3.33652
0.091757
0.0654308
0.0656175
0.0661373
0.0672221
0.0694114
0.0728366
0.0787215
0.0904322
0.106918
0.132432
0.179583
0.212765
0.238353
0.265057
0.327937
0.565209
2.0964
3.26073
2.89171
2.87505
3.11154
3.46578
3.32657
3.10958
0.0917588
0.0654335
0.0656202
0.0661402
0.0672258
0.0694156
0.0728462
0.0787417
0.0904686
0.10697
0.132468
0.179743
0.212442
0.238539
0.258752
0.303058
0.444367
1.21808
3.36351
2.89708
2.78886
2.85123
3.31828
3.14822
2.85606
0.0917582
0.0654333
0.0656201
0.0661404
0.0672262
0.0694176
0.0728463
0.078745
0.090469
0.10698
0.132588
0.179703
0.212181
0.238658
0.254253
0.285754
0.370589
0.748976
2.97283
3.02427
2.72553
2.58209
3.08386
2.86489
2.30102
0.0917582
0.0654335
0.0656202
0.0661404
0.067226
0.0694166
0.0728488
0.0787531
0.0904785
0.107029
0.13259
0.179837
0.212216
0.238519
0.254005
0.274835
0.326555
0.525146
1.72135
3.17217
2.73242
2.44744
2.73182
2.58326
2.12821
0.0917584
0.065434
0.0656207
0.0661409
0.0672266
0.0694177
0.07285
0.0787464
0.0904599
0.107015
0.132498
0.179784
0.212278
0.238281
0.254926
0.268204
0.300002
0.406209
0.934547
3.01499
2.84669
2.37079
2.44562
2.35532
2.07758
0.0917594
0.0654349
0.0656217
0.0661419
0.0672275
0.0694184
0.0728531
0.0787472
0.0904561
0.107013
0.132441
0.179824
0.212253
0.238299
0.255343
0.263652
0.28364
0.342711
0.594686
1.99557
2.89243
2.36254
2.30552
2.23093
2.0537
0.0917584
0.0654339
0.0656206
0.0661408
0.0672264
0.0694168
0.0728511
0.078752
0.0904717
0.107044
0.132481
0.179923
0.212225
0.238418
0.255358
0.261284
0.274359
0.308263
0.429952
1.019
2.7176
2.40029
2.26527
2.17467
2.045
0.0917585
0.0654341
0.0656209
0.0661412
0.067227
0.0694174
0.0728533
0.0787565
0.0904781
0.107056
0.132482
0.179947
0.212252
0.238393
0.255404
0.26103
0.269166
0.288725
0.34873
0.604607
1.843
2.35651
2.25978
2.16609
2.05429
0.0917591
0.0654344
0.0656212
0.0661414
0.0672269
0.0694168
0.0728542
0.0787531
0.0904643
0.107044
0.13245
0.179989
0.21231
0.238513
0.255423
0.261194
0.268456
0.279439
0.309484
0.423982
0.89253
2.09119
2.21431
2.16449
2.09139
0.0917594
0.0654349
0.0656218
0.066142
0.0672277
0.0694177
0.0728562
0.0787557
0.090469
0.107046
0.132446
0.179972
0.212293
0.238481
0.255425
0.261089
0.268531
0.277539
0.294953
0.349148
0.528168
1.19241
2.0007
2.12406
2.09287
0.0917586
0.0654345
0.0656213
0.0661415
0.0672273
0.0694177
0.0728545
0.0787563
0.090477
0.107049
0.132458
0.179932
0.212223
0.238419
0.255348
0.261067
0.268448
0.277438
0.291786
0.327182
0.399157
0.59938
1.1914
1.89675
2.04089
0.0917596
0.0654354
0.0656222
0.0661424
0.0672282
0.0694186
0.0728567
0.0787567
0.0904733
0.107047
0.132452
0.179944
0.212243
0.238426
0.255356
0.261064
0.268448
0.277446
0.291812
0.32831
0.362062
0.430369
0.606174
1.07706
1.7558
0.0917597
0.0654356
0.0656225
0.0661428
0.0672288
0.06942
0.0728563
0.0787526
0.0904639
0.107028
0.13242
0.179883
0.212192
0.238388
0.255341
0.261083
0.268496
0.277405
0.291753
0.328264
0.361455
0.396282
0.452876
0.585887
0.908922
0.0917587
0.0654349
0.0656217
0.0661421
0.0672281
0.0694193
0.0728552
0.0787601
0.0904901
0.107063
0.132497
0.179926
0.212183
0.238359
0.25528
0.261006
0.268423
0.277388
0.29176
0.328295
0.361334
0.394341
0.432663
0.484413
0.577631
0.0917587
0.0654347
0.0656216
0.0661419
0.0672278
0.0694188
0.0728546
0.0787587
0.0904866
0.107059
0.132492
0.179931
0.212195
0.238377
0.255299
0.261024
0.268442
0.277401
0.291768
0.328311
0.361311
0.394188
0.431143
0.472885
0.52227
0.0917596
0.0654354
0.0656222
0.0661426
0.0672285
0.0694198
0.0728559
0.078752
0.0904618
0.107032
0.13243
0.179925
0.212253
0.238455
0.255416
0.261147
0.268556
0.277448
0.291774
0.328282
0.36131
0.394172
0.431041
0.471799
0.515968
0.0917592
0.0654348
0.0656216
0.0661417
0.0672274
0.0694177
0.0728544
0.0787546
0.0904698
0.107053
0.132477
0.180004
0.21232
0.23851
0.255436
0.261125
0.268523
0.277462
0.291794
0.328307
0.361315
0.394174
0.431036
0.471691
0.51538
0.0917586
0.0654345
0.0656214
0.0661417
0.0672277
0.0694185
0.0728556
0.0787605
0.0904857
0.107068
0.132497
0.179985
0.212266
0.238449
0.255368
0.261078
0.268492
0.277441
0.291782
0.328306
0.361313
0.394173
0.431036
0.471678
0.515321
0.0917586
0.0654346
0.0656215
0.0661418
0.0672277
0.0694185
0.0728556
0.07876
0.0904849
0.107063
0.132488
0.179956
0.21223
0.238413
0.255335
0.261051
0.26847
0.277423
0.291777
0.328314
0.361314
0.394174
0.431036
0.471677
0.515315
0.0917596
0.0654355
0.0656223
0.0661426
0.0672285
0.0694191
0.0728575
0.0787591
0.0904799
0.107055
0.132467
0.179956
0.212256
0.238441
0.255374
0.261074
0.26848
0.277426
0.291782
0.328319
0.361314
0.394173
0.431035
0.471676
0.515314
0.0917597
0.0654355
0.0656223
0.0661426
0.0672284
0.0694193
0.0728554
0.0787491
0.0904554
0.107017
0.132398
0.17988
0.212212
0.238423
0.255389
0.261131
0.268539
0.277432
0.291774
0.328299
0.361313
0.394174
0.431035
0.471676
0.515313
0.09176
0.0654362
0.0656231
0.0661434
0.0672295
0.0694205
0.07286
0.0787622
0.0904856
0.107058
0.132462
0.17994
0.212236
0.23842
0.255351
0.261051
0.26846
0.277407
0.291771
0.328316
0.361308
0.394168
0.431032
0.471674
0.515312
0.0917583
0.065434
0.0656208
0.066141
0.0672268
0.0694172
0.0728528
0.0787562
0.0904778
0.107058
0.132488
0.179971
0.212252
0.238439
0.255359
0.261068
0.26848
0.27743
0.291776
0.328306
0.361309
0.394169
0.431032
0.471673
0.515311
0.09176
0.0654364
0.0656233
0.0661437
0.0672301
0.0694214
0.0728618
0.0787669
0.0904922
0.107073
0.132482
0.179983
0.212267
0.238437
0.255356
0.261052
0.268462
0.277407
0.291758
0.328292
0.361298
0.394161
0.431025
0.471668
0.515307
0.0917583
0.065434
0.0656208
0.0661411
0.0672268
0.0694172
0.072853
0.0787564
0.0904782
0.107058
0.132488
0.179971
0.212248
0.238434
0.255352
0.261063
0.268476
0.277426
0.291772
0.328302
0.361306
0.394167
0.43103
0.471671
0.515309
0.0917601
0.0654365
0.0656234
0.0661438
0.0672301
0.0694213
0.0728614
0.078765
0.090492
0.107065
0.132474
0.179947
0.212236
0.238414
0.255342
0.26104
0.268446
0.277393
0.29176
0.328307
0.361299
0.394161
0.431025
0.471669
0.515308
0.0917597
0.0654355
0.0656223
0.0661425
0.0672282
0.069419
0.0728547
0.0787479
0.0904531
0.107012
0.13239
0.179862
0.212188
0.238397
0.255363
0.261106
0.268519
0.277414
0.291764
0.328295
0.361308
0.394168
0.43103
0.471671
0.515309
0.0917601
0.0654364
0.0656233
0.0661437
0.06723
0.0694212
0.0728609
0.0787643
0.0904907
0.107063
0.132471
0.179939
0.212228
0.238406
0.255332
0.261033
0.268442
0.277391
0.291761
0.328311
0.361301
0.394162
0.431026
0.471669
0.515307
0.0917583
0.065434
0.0656208
0.066141
0.0672267
0.069417
0.0728532
0.0787561
0.0904775
0.107055
0.13248
0.179959
0.212238
0.238426
0.255349
0.261061
0.268474
0.277423
0.291772
0.328303
0.361305
0.394165
0.431028
0.471669
0.515308
0.09176
0.0654361
0.065623
0.0661434
0.0672296
0.0694206
0.0728601
0.0787636
0.0904854
0.107064
0.132469
0.179973
0.212264
0.238439
0.255362
0.261057
0.268467
0.27741
0.291765
0.328299
0.361301
0.394162
0.431025
0.471667
0.515306
0.0917582
0.0654338
0.0656206
0.0661408
0.0672264
0.0694166
0.0728525
0.0787549
0.0904747
0.107055
0.132479
0.179972
0.212261
0.238452
0.255372
0.261079
0.268489
0.277436
0.291777
0.328302
0.361306
0.394166
0.431028
0.47167
0.515307
0.0917596
0.0654354
0.0656222
0.0661425
0.0672284
0.0694189
0.0728572
0.0787579
0.0904755
0.107053
0.132462
0.179965
0.212274
0.238461
0.255393
0.261087
0.268489
0.277431
0.291781
0.328311
0.361308
0.394167
0.431029
0.47167
0.515308
0.0917595
0.0654351
0.0656219