/*--------------------------------*- C++ -*----------------------------------*\
| =========                 |                                                 |
| \\      /  F ield         | OpenFOAM: The Open Source CFD Toolbox           |
|  \\    /   O peration     | Version:  4.1                                   |
|   \\  /    A nd           | Web:      www.OpenFOAM.org                      |
|    \\/     M anipulation  |                                                 |
\*---------------------------------------------------------------------------*/
FoamFile
{
    version     2.0;
    format      ascii;
    class       surfaceScalarField;
    location    "0.26";
    object      phi;
}
// * * * * * * * * * * * * * * * * * * * * * * * * * * * * * * * * * * * * * //

dimensions      [1 0 -1 0 0 0 0];

internalField   nonuniform List<scalar> 
150500
(
0.00202906
-1.19307e-09
-8.3782e-12
0.00203817
-2.40569e-09
-1.0243e-11
0.00204421
-4.09881e-09
-1.03841e-11
0.00205174
-6.20898e-09
-1.05249e-11
0.00206293
-9.14578e-09
-1.14865e-11
0.00207958
-1.26295e-08
-1.12155e-11
0.0021072
-2.10534e-08
-3.12654e-11
0.00212015
-3.55077e-08
-2.06881e-11
0.00217917
-5.55104e-08
-1.32737e-11
0.00230196
-5.65485e-08
7.62658e-11
0.00255161
-4.79075e-08
2.7333e-10
0.00271795
1.25836e-07
4.83358e-10
0.00293178
-7.68036e-08
5.59351e-10
0.0029761
3.16084e-06
4.95019e-10
0.002474
1.6099e-05
2.85689e-10
-0.000384389
0.000106412
-1.08405e-09
-0.00675292
0.00104359
-3.12743e-09
-0.00500911
0.000800498
3.11247e-09
-0.00441851
0.000773646
1.76743e-09
-0.00426754
0.000743978
1.12566e-09
-0.00489253
0.000794386
4.69613e-10
-0.00413478
0.000816906
8.56944e-10
-0.00278769
0.000787722
8.31792e-10
-0.00146304
0.000773557
5.82066e-10
0.000850167
1.03208e-10
0.00202906
-1.6549e-09
-1.76749e-12
0.00203817
-3.50004e-09
-2.88983e-12
0.00204421
-6.23515e-09
-2.98068e-12
0.00205174
-9.78677e-09
-3.05735e-12
0.00206293
-1.48086e-08
-3.37191e-12
0.00207958
-2.08555e-08
-2.41103e-12
0.00210721
-3.25107e-08
-1.30092e-11
0.00212008
-5.09563e-08
-7.3581e-12
0.00217913
-6.95328e-08
-2.22577e-13
0.00230197
-6.0579e-08
3.36163e-11
0.00255097
-4.88374e-09
1.21383e-10
0.00271837
1.83612e-07
1.66451e-10
0.00292859
-8.17221e-08
1.86075e-10
0.00298191
5.68522e-06
1.69786e-10
0.00251328
2.85742e-05
8.18097e-11
-0.000208408
0.000178447
-7.00809e-10
-0.00671821
0.0018616
-4.31144e-09
-0.00497815
0.00172262
3.99615e-09
-0.00437323
0.00155557
1.95492e-09
-0.00421415
0.0014978
1.21438e-09
-0.00483817
0.0015834
4.84072e-10
-0.00409949
0.0016435
8.38623e-10
-0.00276023
0.00158961
8.54406e-10
-0.00144558
0.0015623
6.39948e-10
0.00171228
1.31789e-10
0.00202906
-4.15983e-09
-6.36444e-12
0.00203817
-6.19863e-09
-5.42795e-12
0.00204421
-9.72042e-09
-5.53896e-12
0.00205175
-1.4259e-08
-5.5477e-12
0.00206293
-2.08638e-08
-6.26132e-12
0.0020796
-2.91302e-08
-3.72072e-12
0.00210722
-4.54494e-08
-2.29953e-11
0.00212005
-6.31666e-08
-3.85448e-11
0.00217911
-7.5013e-08
-6.12619e-11
0.00230209
-6.19048e-08
-8.47475e-11
0.00255023
9.08516e-08
-4.62563e-11
0.00271972
-2.65676e-08
-2.50623e-10
0.00292348
8.51002e-08
-1.557e-10
0.00299216
6.84355e-06
-1.81747e-10
0.00258411
3.51235e-05
-3.68738e-10
0.00012694
0.000219439
-1.96065e-09
-0.0068462
0.00249424
-5.92078e-09
-0.00488518
0.00272166
5.44194e-09
-0.00430228
0.00235514
2.11017e-09
-0.00410361
0.00223952
1.32177e-09
-0.00472497
0.00237257
4.45668e-10
-0.00403654
0.00249701
8.15008e-10
-0.00271166
0.00242552
8.72452e-10
-0.00140911
0.00238217
6.31464e-10
0.00260797
1.97964e-10
0.00202905
-8.35721e-10
5.309e-12
0.00203817
-2.37239e-09
6.76535e-12
0.0020442
-4.85893e-09
6.89357e-12
0.00205174
-8.61331e-09
7.14018e-12
0.00206291
-1.46482e-08
8.00647e-12
0.00207961
-2.43903e-08
9.20378e-12
0.00210721
-4.68868e-08
1.9565e-11
0.00211993
-8.17837e-08
1.81137e-11
0.00217915
-1.32653e-07
1.6589e-11
0.00230209
-1.96723e-07
1.02375e-12
0.00255065
-1.25882e-07
-9.04303e-11
0.00272239
-6.21349e-07
-5.49701e-11
0.00291579
2.11353e-07
-1.70278e-11
0.00300888
5.70311e-06
-6.34489e-11
0.00267862
3.43508e-05
-2.0089e-10
0.000783405
0.000220709
-1.0021e-09
-0.00682184
0.00267152
-6.31403e-09
-0.00478611
0.00390369
5.37635e-09
-0.00419409
0.00317973
1.9364e-09
-0.00393387
0.00300418
1.11135e-09
-0.00452869
0.00316939
3.52214e-10
-0.00394336
0.00340497
7.59221e-10
-0.00263746
0.00331197
8.71341e-10
-0.00134994
0.00324242
8.3581e-10
0.00355809
2.27328e-10
0.00202904
1.84622e-09
-6.98278e-13
0.00203816
-7.25214e-11
1.2627e-12
0.00204421
-2.54549e-09
1.37854e-12
0.00205176
-7.45635e-09
1.82112e-12
0.00206296
-1.56761e-08
2.61346e-12
0.00207973
-3.05198e-08
5.83548e-12
0.0021074
-6.25308e-08
5.74269e-12
0.0021201
-1.2499e-07
-6.35254e-12
0.00217949
-2.26281e-07
-2.51962e-11
0.00230204
-3.72367e-07
-6.00947e-11
0.00255187
-4.4783e-07
-1.52068e-10
0.00272451
-1.08168e-06
-2.99554e-10
0.0029049
2.88697e-07
-2.48363e-10
0.0030389
2.70882e-06
-3.06461e-10
0.00281318
3.02564e-05
-5.11385e-10
0.00118378
0.000202181
-2.01492e-09
-0.00610711
0.00233303
-1.67759e-08
-0.00465595
0.00531504
1.16096e-08
-0.00410102
0.00400207
1.47493e-09
-0.00371314
0.00378164
7.99563e-10
-0.00422152
0.00396242
2.63417e-10
-0.00380562
0.00436143
6.68976e-10
-0.00252434
0.00426368
8.74518e-10
-0.00126323
0.00415778
9.1153e-10
0.00458245
2.58281e-10
0.00202907
-3.80377e-09
2.05631e-12
0.0020382
-5.54757e-09
7.58406e-12
0.00204424
-9.10224e-09
8.15959e-12
0.00205176
-1.37274e-08
9.34112e-12
0.00206289
-2.04179e-08
1.24223e-11
0.00207956
-2.86981e-08
1.60243e-11
0.00210715
-4.69633e-08
3.46817e-11
0.00211955
-6.00615e-08
8.21851e-11
0.00217872
-6.14736e-08
1.77851e-10
0.00230029
-5.12143e-08
2.09776e-10
0.00255059
1.55394e-07
2.8195e-10
0.0027215
-2.15409e-07
1.55225e-10
0.00289004
1.08013e-06
-7.71162e-11
0.00309365
-3.09848e-07
-2.10191e-10
0.00299478
2.5706e-05
-4.32168e-10
0.0017037
0.000164416
-8.3016e-10
-0.00358606
0.00158922
-1.25348e-09
-0.00465626
0.00678117
6.96738e-10
-0.00401356
0.00482992
5.79143e-10
-0.00345303
0.00457747
5.78409e-10
-0.00378135
0.00473378
3.33822e-10
-0.00360987
0.00533817
5.60375e-10
-0.00236862
0.00530312
8.95312e-10
-0.00113433
0.00513921
9.66308e-10
0.0057121
2.34297e-10
0.00202906
-5.22994e-09
-6.09037e-13
0.00203819
-7.1789e-09
2.70851e-12
0.00204423
-9.87182e-09
2.98488e-12
0.00205175
-1.26904e-08
3.35322e-12
0.00206288
-1.64423e-08
4.66793e-12
0.00207961
-2.07483e-08
3.69376e-12
0.00210716
-2.42861e-08
2.21189e-11
0.00211945
-1.37716e-08
5.36479e-11
0.00217889
1.75109e-08
1.11879e-10
0.00230005
8.06547e-08
1.55031e-10
0.00255256
2.39437e-07
1.67591e-10
0.002722
1.88065e-07
3.36233e-10
0.00288806
1.05448e-06
2.68627e-10
0.00315691
-1.73177e-06
1.77422e-10
0.0031495
2.12452e-05
8.23103e-11
0.00222543
0.000120437
-1.73703e-10
-0.00173513
0.000910872
6.30453e-10
-0.00521047
0.00745411
-4.69169e-09
-0.00389892
0.00587019
1.42713e-10
-0.00315444
0.00540435
6.37161e-10
-0.00321836
0.00547185
4.8302e-10
-0.00332982
0.00628073
3.67927e-10
-0.00214061
0.00643265
9.57128e-10
-0.000926361
0.00619744
9.65757e-10
0.00697157
2.09708e-10
0.00202904
2.05111e-09
1.14608e-11
0.00203815
1.05851e-09
1.62481e-11
0.0020442
-5.96188e-10
1.69204e-11
0.00205176
-2.84222e-09
1.82365e-11
0.00206296
-6.83029e-09
2.19353e-11
0.00207981
-1.46332e-08
2.4753e-11
0.00210741
-2.80249e-08
6.58627e-11
0.00211997
-7.09912e-08
6.6655e-11
0.00217986
-1.52028e-07
6.34199e-11
0.00230127
-2.90761e-07
6.06333e-11
0.00255578
-6.81584e-07
-1.94734e-10
0.0027246
-8.11585e-07
1.66612e-10
0.0028953
-1.09216e-07
3.46624e-10
0.00314524
-1.27817e-06
3.01868e-10
0.00322682
1.73242e-05
3.05902e-10
0.00261523
8.94473e-05
1.18894e-10
3.39723e-05
0.00053172
-8.58053e-10
-0.00554725
0.00590978
-4.85839e-09
-0.00372179
0.00746888
1.4058e-09
-0.00284576
0.0062657
7.13655e-10
-0.00264442
0.00618582
6.44115e-10
-0.00292392
0.00708363
2.82038e-10
-0.00182054
0.00767699
1.09705e-09
-0.000616476
0.00734653
7.93287e-10
0.00842245
2.44205e-10
0.00202906
4.91499e-10
5.51536e-12
0.00203819
-1.79723e-11
9.88201e-12
0.00204423
-5.31872e-10
1.02753e-11
0.00205175
-1.09208e-09
1.07657e-11
0.00206288
-1.73688e-09
1.27617e-11
0.00207961
-4.18954e-09
1.1503e-11
0.00210717
-9.05683e-09
4.32881e-11
0.00211935
-2.72497e-08
6.14646e-11
0.00217911
-8.20492e-08
9.82341e-11
0.00230048
-1.90744e-07
1.1102e-10
0.00255344
-4.53597e-07
-1.15424e-11
0.00271974
-6.24447e-07
3.2817e-10
0.00289299
-1.08367e-07
3.45469e-10
0.00312845
-9.08275e-07
2.99281e-10
0.00326632
1.30703e-05
2.32183e-10
0.00286574
6.41686e-05
-9.62668e-13
0.00109775
0.000332284
-9.19605e-10
-0.00476276
0.00358667
-5.09206e-09
-0.00350772
0.00942355
7.80869e-10
-0.00251317
0.00706027
6.75616e-10
-0.00203523
0.00684396
7.43349e-10
-0.00233016
0.0076512
2.50931e-10
-0.00135172
0.00899628
1.18168e-09
-0.000236593
0.00862964
7.93162e-10
0.00997475
2.37144e-10
0.00202906
8.32812e-12
-1.24978e-09
0.00203819
1.60034e-11
-2.04187e-09
0.00204424
1.68466e-11
-2.4422e-09
0.00205176
1.8467e-11
-1.9998e-09
0.0020629
2.31124e-11
-4.60988e-10
0.00207963
2.65597e-11
1.90661e-09
0.00210726
7.07944e-11
1.00426e-08
0.0021194
1.1313e-10
1.93143e-08
0.00217928
2.01e-10
6.17338e-09
0.00230093
2.25079e-10
-2.03987e-08
0.00255389
1.10038e-10
-1.61793e-07
0.00271826
2.77201e-10
-4.76301e-09
0.00289425
2.03143e-10
-9.65279e-08
0.00312176
3.43202e-11
-2.62424e-07
0.00330337
-2.43481e-11
8.77519e-06
0.00309819
-2.23323e-10
4.14687e-05
0.00191864
-8.2496e-10
0.000188669
-0.00150405
-2.81632e-09
0.00156869
-0.00371901
-1.33148e-09
0.011175
-0.00218359
5.16812e-10
0.00811026
-0.00137028
7.52307e-10
0.00739445
-0.00148374
1.87019e-10
0.00784455
-0.000631521
1.19015e-09
0.0101565
0.000252057
8.45145e-10
0.010129
3.69094e-10
0.0119307
0.00202905
3.32283e-09
8.72811e-12
0.00203816
4.7696e-09
1.29622e-11
0.0020442
6.76972e-09
1.33735e-11
0.00205174
8.70787e-09
1.41652e-11
0.00206291
1.08741e-08
1.65232e-11
0.00207961
1.1533e-08
1.91262e-11
0.00210719
1.07366e-08
4.39495e-11
0.00211988
8.43199e-09
4.52862e-11
0.00217917
-1.49707e-09
6.01319e-11
0.00230189
-3.12175e-08
-6.82016e-13
0.00255125
-1.58354e-07
-1.68646e-10
0.00271747
-2.04762e-07
-2.26513e-10
0.0029314
-5.3539e-07
-2.58656e-10
0.00297556
2.61625e-06
-2.79119e-10
0.00247318
1.55137e-05
-3.76715e-10
-0.000386405
0.000105985
-7.77565e-10
-0.00675172
0.00104383
-8.89179e-10
-0.00500934
0.000799641
1.59092e-11
-0.0044186
0.000773604
-1.7979e-10
-0.00426761
0.000744153
-2.17204e-10
-0.00489247
0.000794541
-1.36742e-10
-0.00413476
0.000817041
1.16206e-10
-0.00278799
0.000787902
1.90185e-10
-0.00146318
0.00077332
1.82122e-10
0.000849972
3.26791e-10
0.00202905
7.78857e-10
1.44029e-12
0.00203817
1.55402e-09
4.68055e-12
0.00204421
2.26761e-09
4.99033e-12
0.00205176
2.56189e-09
5.58163e-12
0.00206295
2.32781e-09
6.96975e-12
0.00207967
7.79747e-10
7.95235e-12
0.0021073
-8.50589e-09
2.33808e-11
0.00212006
-2.05872e-08
2.88258e-11
0.00217928
-4.0029e-08
3.85581e-11
0.00230216
-7.54281e-08
2.79858e-11
0.00255108
-1.73713e-07
-3.84288e-11
0.00271841
-2.30491e-07
1.73536e-11
0.00292868
-6.17444e-07
-1.51548e-11
0.002982
5.15368e-06
-5.82783e-11
0.00251319
2.80325e-05
-1.88548e-10
-0.000209328
0.00017763
-8.13004e-10
-0.00671635
0.00185785
-3.50356e-10
-0.00497803
0.0017246
-7.66389e-10
-0.00437332
0.00155609
-2.85843e-10
-0.00421429
0.00149796
-2.05743e-10
-0.0048383
0.00158371
-1.31174e-10
-0.00409971
0.00164387
1.0724e-10
-0.00276078
0.00158994
1.80064e-10
-0.00144578
0.00156161
1.80912e-10
0.00171188
3.12196e-10
0.00202906
1.92212e-09
8.24262e-12
0.00203818
3.26755e-09
1.1611e-11
0.00204422
5.04644e-09
1.21762e-11
0.00205174
7.22874e-09
1.32206e-11
0.00206287
1.04036e-08
1.6455e-11
0.00207955
1.38717e-08
1.77415e-11
0.00210712
2.54555e-08
5.24071e-11
0.00211943
4.18692e-08
9.2557e-11
0.00217854
7.02484e-08
1.65181e-10
0.00230171
1.01203e-07
2.20701e-10
0.00254956
1.94941e-07
1.74224e-10
0.00271784
2.78664e-08
4.37863e-10
0.00292076
8.50852e-08
2.33838e-10
0.00298885
6.76227e-06
1.57799e-10
0.00257998
3.49978e-05
9.0881e-11
0.000119898
0.000219458
5.07028e-10
-0.00684683
0.00249764
8.57541e-10
-0.00488635
0.00271743
-3.06795e-09
-0.00430269
0.00235479
-6.43408e-10
-0.00410371
0.00223957
-3.39641e-10
-0.00472501
0.0023729
-1.48343e-10
-0.00403644
0.00249729
8.70055e-11
-0.0027118
0.00242586
1.61277e-10
-0.00140931
0.00238158
1.52215e-10
0.00260741
2.78046e-10
0.00202905
-1.06455e-09
-5.27015e-12
0.00203817
-8.70091e-10
-3.66852e-12
0.00204421
-7.19814e-10
-3.55525e-12
0.00205175
-6.4863e-10
-3.26019e-12
0.00206294
-6.61275e-10
-2.90703e-12
0.00207964
2.43172e-11
-1.96949e-12
0.00210727
-8.50334e-10
-4.55254e-12
0.00212011
9.47741e-10
8.41453e-12
0.00217923
9.49214e-09
5.14921e-11
0.00230212
2.55066e-08
8.86974e-11
0.0025505
2.22869e-07
1.46506e-10
0.00272211
-1.77237e-07
1.22732e-10
0.0029156
5.93052e-07
-1.85953e-11
0.0030088
5.9703e-06
-3.49771e-11
0.00267825
3.44318e-05
-8.12699e-11
0.000781841
0.000220403
-1.60506e-11
-0.00681934
0.00266938
1.26488e-09
-0.0047861
0.00390311
-3.12926e-09
-0.00419431
0.00317968
-6.54965e-10
-0.0039339
0.00300402
-2.78694e-10
-0.00452876
0.00316963
-1.26373e-10
-0.00394323
0.00340516
7.66031e-11
-0.00263756
0.00331223
1.51141e-10
-0.00135013
0.0032421
1.79465e-10
0.00355751
2.43769e-10
0.00202905
-4.94406e-11
8.80669e-12
0.00203818
3.80431e-10
1.19884e-11
0.00204422
1.61378e-09
1.24768e-11
0.00205173
4.01365e-09
1.3316e-11
0.00206286
7.98821e-09
1.60368e-11
0.00207954
1.48344e-08
1.67931e-11
0.00210711
3.33368e-08
4.81063e-11
0.00211943
6.423e-08
8.25802e-11
0.00217858
1.18866e-07
1.49987e-10
0.00230098
1.92934e-07
1.84308e-10
0.00255012
4.89108e-07
1.42829e-10
0.00272167
1.09895e-07
3.60421e-10
0.00290142
1.3745e-06
2.29786e-10
0.00303462
3.39255e-06
2.04767e-10
0.00280796
3.0309e-05
1.8203e-10
0.00117679
0.000201999
6.67958e-10
-0.00612113
0.00234117
7.72826e-09
-0.00465805
0.00530637
-6.5466e-09
-0.00410124
0.00399964
-3.61677e-10
-0.00371322
0.00378114
-7.21342e-11
-0.0042218
0.00396254
-6.48264e-11
-0.00380554
0.00436142
9.83136e-11
-0.00252454
0.00426376
1.59702e-10
-0.00126342
0.00415765
1.72733e-10
0.00458203
2.13776e-10
0.00202905
-9.20874e-10
-4.64972e-13
0.00203817
-8.67056e-10
-1.40753e-12
0.0020442
-2.2608e-10
-1.62354e-12
0.00205174
1.03945e-09
-2.0329e-12
0.00206293
3.04192e-09
-3.23794e-12
0.00207964
7.19973e-09
-3.52264e-12
0.00210723
1.56575e-08
-1.17821e-11
0.00212005
3.21e-08
-4.97141e-11
0.00217931
5.40246e-08
-1.23309e-10
0.00230085
8.03952e-08
-1.61364e-10
0.00255218
2.64509e-07
-3.6614e-10
0.00272459
-2.51351e-08
-2.20777e-10
0.00289403
1.26733e-06
-4.22112e-11
0.00309895
-2.69446e-07
7.14972e-11
0.00300009
2.57172e-05
1.83321e-10
0.0017082
0.000164435
-7.75939e-11
-0.00357677
0.001589
-6.1955e-09
-0.00465442
0.00678216
3.07279e-09
-0.00401286
0.00482837
2.08869e-10
-0.00345285
0.00457702
7.70408e-11
-0.00378167
0.00473382
6.6267e-11
-0.00360978
0.00533806
1.35315e-10
-0.00236881
0.00530299
1.81966e-10
-0.00113443
0.00513935
1.69125e-10
0.00571187
1.79174e-10
0.00202905
2.94166e-09
9.13825e-12
0.00203816
4.10786e-09
1.20539e-11
0.0020442
5.83687e-09
1.24899e-11
0.00205173
8.04523e-09
1.34869e-11
0.00206291
1.13234e-08
1.61534e-11
0.00207962
1.48841e-08
2.05545e-11
0.00210717
2.34427e-08
3.75238e-11
0.00211991
3.03309e-08
4.07608e-11
0.00217931
2.74665e-08
5.1143e-11
0.00230034
-1.80233e-08
3.29299e-11
0.00255339
-1.39175e-07
-1.34651e-11
0.0027241
-2.88698e-07
2.59851e-12
0.00289092
5.5357e-07
1.65651e-11
0.0031604
-2.10543e-06
1.4072e-11
0.00315302
2.10398e-05
2.31487e-11
0.00222971
0.000120423
-2.77097e-11
-0.00172747
0.000910301
-1.70115e-09
-0.00520709
0.00746005
2.77799e-09
-0.00389764
0.00587159
1.12287e-09
-0.00315399
0.00540412
1.84486e-10
-0.00321853
0.00547183
1.59455e-10
-0.00332969
0.00628076
1.97318e-10
-0.00214078
0.00643216
2.07994e-10
-0.000926286
0.00619785
1.68866e-10
0.00697143
1.20621e-10
0.00202906
1.30813e-09
-6.66436e-12
0.00203817
2.34461e-09
-7.84528e-12
0.0020442
4.22209e-09
-8.08168e-12
0.00205173
6.62961e-09
-8.5918e-12
0.00206292
9.85001e-09
-1.01453e-11
0.00207957
1.26158e-08
-1.17642e-11
0.00210712
2.03649e-08
-2.81017e-11
0.00212
2.76813e-08
-2.59551e-11
0.00217928
2.55202e-08
-2.54712e-11
0.00230004
-8.92056e-09
-1.37318e-11
0.00255356
-2.50305e-07
9.54027e-11
0.00272218
-3.01953e-07
8.39196e-11
0.00289292
2.74812e-07
3.56179e-11
0.00314272
-1.08389e-06
1.01159e-10
0.00322394
1.73612e-05
7.56056e-11
0.00261251
8.93439e-05
2.74606e-11
3.06459e-05
0.000531796
-1.88059e-10
-0.0055466
0.00591344
-3.48041e-10
-0.00372148
0.00746588
7.22367e-10
-0.0028454
0.00626481
4.20569e-10
-0.0026444
0.00618569
2.3405e-10
-0.00292384
0.00708369
1.93179e-10
-0.00182072
0.0076762
2.25877e-10
-0.000616542
0.00734703
1.69154e-10
0.00842224
1.07261e-10
0.00202905
4.91006e-10
2.2547e-12
0.00203817
1.14616e-09
4.05554e-12
0.00204421
1.77406e-09
4.57772e-12
0.00205174
2.52274e-09
6.92275e-12
0.00206293
3.58834e-09
1.09436e-11
0.00207959
4.16854e-09
1.83686e-11
0.0021072
7.73992e-09
1.88514e-11
0.00212001
1.32632e-08
5.42384e-11
0.0021795
1.27813e-08
1.08716e-10
0.00230067
-1.21759e-08
1.69529e-10
0.00255381
-1.33629e-07
2.77812e-10
0.00272117
-1.84467e-07
2.89127e-10
0.00289523
3.09429e-07
2.07094e-10
0.00313107
-4.76921e-07
1.0218e-10
0.00326905
1.34678e-05
8.11532e-11
0.00286828
6.45725e-05
2.5054e-11
0.00109898
0.000332928
-6.72581e-11
-0.00476098
0.00358992
-9.93211e-10
-0.00350717
0.00942234
1.85942e-09
-0.00251274
0.00705905
4.94065e-10
-0.00203518
0.00684384
2.36368e-10
-0.00233016
0.00765135
1.99158e-10
-0.0013519
0.00899524
2.30324e-10
-0.000236802
0.0086299
1.64815e-10
0.00997436
1.03273e-10
0.00202905
-6.85927e-12
-2.46741e-10
0.00203817
-8.68555e-12
-4.08702e-10
0.0020442
-8.89746e-12
-4.67773e-10
0.00205173
-9.29008e-12
-4.52712e-10
0.00206292
-1.06763e-11
-2.02924e-10
0.00207955
-1.14236e-11
6.66321e-10
0.00210718
-3.1845e-11
-8.80106e-11
0.00211998
-2.34465e-11
5.62774e-10
0.00217949
-1.66022e-11
-3.40204e-09
0.00230086
2.19489e-11
-1.30226e-08
0.0025542
2.58004e-10
-1.25416e-07
0.00271981
2.44069e-10
1.17602e-07
0.00289678
1.70425e-10
1.0192e-07
0.00312479
1.74793e-10
6.64214e-08
0.00330664
1.4841e-10
9.20311e-06
0.00310155
9.6381e-11
4.20052e-05
0.00192097
6.48251e-11
0.000189392
-0.00150305
-1.96226e-10
0.00157023
-0.00371725
7.48246e-10
0.0111762
-0.00218288
5.71178e-10
0.0081095
-0.00137018
2.37959e-10
0.00739432
-0.00148392
1.8213e-10
0.007845
-0.000631744
2.28784e-10
0.0101555
0.000251836
1.54793e-10
0.0101288
1.07794e-10
0.0119301
0.00202905
-5.75172e-10
6.17121e-13
0.00203817
-1.11184e-09
1.91653e-12
0.0020442
-1.79429e-09
2.09579e-12
0.00205173
-2.66747e-09
2.51569e-12
0.00206292
-3.90826e-09
2.81166e-12
0.00207956
-5.30794e-09
4.70581e-12
0.00210716
-8.71619e-09
7.18977e-12
0.00212005
-1.36505e-08
1.93766e-11
0.00217907
-1.82793e-08
5.11681e-11
0.00230176
-6.33738e-09
7.68515e-11
0.00255112
1.35872e-08
1.1567e-10
0.00271738
1.76456e-07
7.51651e-11
0.00293129
-6.71615e-08
2.44712e-11
0.00297545
3.13924e-06
-1.81288e-11
0.00247286
1.60699e-05
-1.07653e-10
-0.000387099
0.000106562
-7.06686e-10
-0.0067515
0.00104471
-1.21465e-09
-0.00500949
0.000799094
6.15619e-10
-0.00441871
0.000773302
3.17849e-10
-0.00426769
0.000744057
1.99288e-10
-0.00489253
0.000794475
1.37579e-10
-0.00413475
0.000816997
2.65355e-10
-0.002788
0.00078787
3.02687e-10
-0.00146319
0.000773292
2.8697e-10
0.000849941
1.89546e-10
0.00202905
-9.20222e-10
2.08556e-12
0.00203817
-1.42255e-09
4.55772e-12
0.0020442
-2.49704e-09
4.86276e-12
0.00205173
-3.98645e-09
5.63401e-12
0.00206292
-6.11279e-09
7.41604e-12
0.00207957
-8.52273e-09
1.09218e-11
0.00210717
-1.19405e-08
1.80187e-11
0.00212001
-1.42288e-08
3.40527e-11
0.00217905
-7.69194e-09
6.80357e-11
0.0023018
2.76065e-08
7.32731e-11
0.00255059
7.90034e-08
7.22407e-11
0.002718
2.54204e-07
-7.42555e-12
0.00292833
-7.11932e-08
-7.8006e-11
0.00298152
5.64791e-06
-1.01739e-10
0.00251257
2.84719e-05
-1.71009e-10
-0.000210304
0.000178257
-4.3202e-10
-0.00671696
0.00186112
-1.02311e-09
-0.00497795
0.00172202
4.95286e-10
-0.00437333
0.00155549
2.97579e-10
-0.00421432
0.00149772
1.93026e-10
-0.00483834
0.00158363
1.39688e-10
-0.00409969
0.00164381
2.77145e-10
-0.00276079
0.00158988
3.06139e-10
-0.00144579
0.00156155
2.97021e-10
0.00171182
1.94108e-10
0.00202906
-2.14435e-09
2.81765e-13
0.00203817
-2.53101e-09
1.50992e-12
0.0020442
-3.26401e-09
1.56888e-12
0.00205173
-4.23051e-09
1.67449e-12
0.0020629
-5.82764e-09
1.95116e-12
0.00207955
-7.96795e-09
2.36732e-12
0.00210712
-1.27092e-08
5.48982e-12
0.00211996
-1.22303e-08
7.37164e-12
0.00217896
2.63398e-10
1.26923e-11
0.00230182
2.60507e-08
1.27913e-11
0.0025499
1.62077e-07
-1.10803e-11
0.00271954
-1.36466e-08
8.58574e-12
0.0029235
2.07232e-08
5.13294e-12
0.00299219
6.70723e-06
1.02934e-11
0.00258381
3.49512e-05
2.20343e-11
0.000124959
0.000219359
-2.8621e-11
-0.00684483
0.00249601
-4.59028e-10
-0.00488517
0.00271951
5.31598e-10
-0.00430222
0.00235495
2.84352e-10
-0.00410366
0.00223959
1.71319e-10
-0.00472503
0.00237287
1.24322e-10
-0.00403642
0.00249723
2.85741e-10
-0.00271182
0.00242579
3.19308e-10
-0.00140932
0.0023815
3.02013e-10
0.00260734
1.99554e-10
0.00202905
2.81497e-09
6.59812e-12
0.00203816
3.41936e-09
8.23402e-12
0.00204419
4.06973e-09
8.50869e-12
0.00205172
4.30139e-09
9.06157e-12
0.0020629
4.09812e-09
1.06153e-11
0.00207959
1.16726e-09
1.216e-11
0.00210716
-5.21168e-09
2.95747e-11
0.0021199
-1.95378e-08
2.57254e-11
0.00217905
-4.8435e-08
1.18715e-11
0.00230197
-1.10975e-07
1.58419e-11
0.00255052
-8.86881e-08
-5.05236e-11
0.00272239
-6.44867e-07
1.04709e-10
0.00291594
1.28404e-07
2.47412e-10
0.00300898
5.5442e-06
2.51761e-10
0.00267854
3.40863e-05
2.48102e-10
0.000782584
0.000220267
5.23369e-11
-0.00682059
0.00267069
-1.52341e-09
-0.00478553
0.00390301
1.33277e-09
-0.00419382
0.00318001
2.31678e-10
-0.00393381
0.00300424
1.17015e-10
-0.00452876
0.00316966
9.98955e-11
-0.0039432
0.00340512
2.85976e-10
-0.00263757
0.00331217
3.26886e-10
-0.00135015
0.00324201
2.86237e-10
0.00355743
2.03682e-10
0.00202905
1.14651e-09
-1.12357e-13
0.00203817
1.12574e-09
7.20655e-13
0.0020442
1.03004e-09
7.92924e-13
0.00205174
4.00523e-10
8.99731e-13
0.00206293
-1.78309e-09
1.18396e-12
0.00207962
-6.38863e-09
8.05138e-13
0.00210723
-2.14575e-08
6.95434e-12
0.00212008
-4.99073e-08
9.55663e-12
0.00217918
-1.06294e-07
9.14613e-12
0.00230146
-1.95744e-07
2.38383e-11
0.00255105
-1.95925e-07
-1.97066e-11
0.0027238
-8.14991e-07
7.45198e-11
0.0029044
4.73003e-07
1.33402e-10
0.00303852
2.77418e-06
1.40972e-10
0.00281244
3.01724e-05
1.02225e-10
0.00118158
0.000202074
-2.02995e-10
-0.00611251
0.0023362
-3.05697e-09
-0.0046562
0.00531143
1.83766e-09
-0.00410073
0.00400155
4.05063e-11
-0.00371316
0.00378153
2.32271e-11
-0.00422184
0.00396261
5.98417e-11
-0.00380553
0.00436141
2.52269e-10
-0.00252456
0.00426369
3.20013e-10
-0.00126344
0.00415756
2.77574e-10
0.00458194
2.42194e-10
0.00202906
-1.5948e-09
1.87018e-12
0.00203819
-2.32937e-09
5.33057e-12
0.00204423
-3.34446e-09
5.81978e-12
0.00205174
-4.0361e-09
6.76539e-12
0.00206287
-4.45089e-09
9.32024e-12
0.00207951
-3.61067e-09
1.03431e-11
0.00210706
1.08528e-10
3.4838e-11
0.0021195
1.86025e-08
8.28758e-11
0.00217854
6.0907e-08
1.77211e-10
0.00230012
1.29466e-07
2.35865e-10
0.00255039
4.14834e-07
3.65534e-10
0.00272139
1.55237e-07
4.07577e-10
0.00289002
1.48025e-06
2.17104e-10
0.00309338
-5.25813e-08
1.07448e-10
0.00299411
2.58151e-05
-1.31078e-11
0.00170217
0.000164545
2.09115e-10
-0.00359178
0.00159188
5.44005e-09
-0.00465559
0.00677868
-4.29243e-09
-0.0040131
0.00482847
-1.87547e-10
-0.00345302
0.00457717
5.10297e-12
-0.00378181
0.00473385
6.81383e-12
-0.0036098
0.00533803
1.9037e-10
-0.00236884
0.00530292
3.04741e-10
-0.00113445
0.00513926
2.98559e-10
0.00571177
2.71397e-10
0.00202905
-3.74513e-09
-1.99965e-13
0.00203817
-5.4828e-09
8.62505e-13
0.0020442
-7.41484e-09
9.44836e-13
0.00205174
-9.32896e-09
1.06638e-12
0.00206293
-1.16832e-08
1.35526e-12
0.00207963
-1.3184e-08
1.1002e-12
0.00210721
-1.30846e-08
6.41534e-12
0.00212006
-5.91806e-09
8.20286e-12
0.00217928
9.48612e-09
6.39341e-12
0.00230029
3.76166e-08
1.18584e-11
0.00255325
1.41896e-07
-3.91527e-11
0.0027238
1.88476e-07
9.83865e-12
0.00289076
1.15518e-06
7.79155e-12
0.00316032
-1.45435e-06
-1.95099e-12
0.00315283
2.16404e-05
-7.26167e-12
0.00222876
0.000121021
-3.38735e-11
-0.00173023
0.000911583
4.40821e-10
-0.00520694
0.00745925
-2.60856e-09
-0.00389811
0.00587028
-4.02272e-10
-0.00315426
0.0054039
-3.77568e-11
-0.00321872
0.00547175
-1.94068e-11
-0.00332975
0.00628068
1.23072e-10
-0.00214082
0.00643206
2.86898e-10
-0.000926321
0.00619775
3.16361e-10
0.00697134
2.84808e-10
0.00202905
8.27559e-10
9.22431e-12
0.00203816
9.04386e-10
1.35507e-11
0.0020442
5.1082e-10
1.40723e-11
0.00205173
-1.46332e-10
1.52072e-11
0.00206291
-1.04705e-09
1.83034e-11
0.00207962
-2.60261e-09
2.27462e-11
0.00210716
-2.20022e-09
4.7908e-11
0.00211993
-5.32096e-09
5.6508e-11
0.00217942
-1.2024e-08
8.3918e-11
0.00230031
-2.8608e-08
6.49406e-11
0.00255408
-1.89969e-07
-6.97503e-11
0.00272272
-1.13532e-07
-7.33213e-11
0.00289335
5.70151e-07
-8.46601e-11
0.00314311
-7.19097e-07
-1.43409e-10
0.00322436
1.78068e-05
-1.46759e-10
0.00261283
8.98321e-05
-1.85851e-10
3.08258e-05
0.000532409
-3.97074e-10
-0.00554585
0.00591439
-4.82484e-10
-0.00372156
0.00746564
1.10669e-10
-0.0028456
0.00626454
-5.53814e-11
-0.00264457
0.00618557
-1.42412e-12
-0.00292392
0.00708361
8.91796e-11
-0.00182076
0.00767609
2.72153e-10
-0.000616578
0.00734694
3.10775e-10
0.00842215
2.75297e-10
0.00202906
-7.80685e-10
-2.7398e-13
0.00203817
-8.10684e-10
7.17836e-13
0.0020442
-4.259e-10
7.06529e-13
0.00205172
8.01971e-11
6.17785e-13
0.0020629
6.06748e-10
4.70336e-13
0.00207954
4.02394e-10
-7.12297e-14
0.00210709
-2.16217e-10
2.13808e-12
0.00211984
2.01889e-09
2.78978e-12
0.0021793
-4.29578e-10
7.63042e-12
0.00230025
-2.43198e-08
-8.52201e-12
0.0025533
-1.19328e-07
-4.1749e-11
0.00272075
-1.62474e-07
-1.09455e-10
0.00289495
3.23475e-07
-1.59093e-10
0.00313091
-4.37573e-07
-1.45812e-10
0.00326897
1.35205e-05
-1.59939e-10
0.00286812
6.46251e-05
-2.14006e-10
0.0010985
0.000333025
-4.07711e-10
-0.00476229
0.00359101
-1.13971e-09
-0.0035073
0.00942153
-1.04672e-11
-0.00251292
0.00705872
3.7205e-11
-0.00203533
0.00684375
6.14174e-11
-0.00233026
0.00765129
5.60949e-11
-0.00135195
0.00899513
2.7295e-10
-0.000236835
0.00862981
2.94814e-10
0.00997428
2.5449e-10
0.00202905
9.13705e-12
3.75607e-09
0.00203816
1.33288e-11
5.55096e-09
0.0020442
1.38656e-11
7.53094e-09
0.00205173
1.50523e-11
9.50959e-09
0.00206291
1.82146e-11
1.21064e-08
0.0020796
2.27846e-11
1.37327e-08
0.00210719
4.75376e-11
1.21053e-08
0.00211983
5.65307e-11
8.00691e-09
0.00217959
8.54028e-11
-1.23831e-08
0.00230094
5.93882e-11
-6.87334e-08
0.00255445
-5.91482e-11
-3.46036e-07
0.00272018
-5.89613e-11
-2.61817e-07
0.00289711
-5.61547e-11
-3.96479e-07
0.00312506
-1.10988e-10
-3.77272e-07
0.00330699
-1.18188e-10
8.88335e-06
0.00310196
-1.42521e-10
4.17812e-05
0.00192112
-2.58626e-10
0.000189274
-0.00150313
-9.09255e-10
0.00157047
-0.00371717
-1.14642e-10
0.011176
-0.00218299
1.23919e-10
0.00810927
-0.00137032
6.8128e-11
0.00739429
-0.00148404
-2.53279e-12
0.007845
-0.000631812
2.49138e-10
0.0101554
0.000251791
2.67632e-10
0.0101287
2.37688e-10
0.01193
0.00202905
3.29113e-12
1.08787e-12
0.00203817
-8.7164e-12
1.82594e-12
0.0020442
-2.38505e-11
1.96974e-12
0.00205172
-4.33162e-11
2.34855e-12
0.0020629
-6.77247e-11
3.04539e-12
0.00207954
-1.36845e-10
4.9619e-12
0.00210712
-1.83541e-10
3.54844e-12
0.00211997
-2.28467e-10
3.11342e-12
0.00217898
-5.01484e-10
6.76902e-12
0.00230158
1.28283e-09
9.22988e-12
0.00255093
-2.2189e-08
4.84956e-11
0.00271727
7.59077e-08
2.50324e-11
0.00293131
-2.03771e-07
2.03243e-11
0.00297549
2.94648e-06
3.7477e-11
0.00247287
1.58381e-05
8.85286e-11
-0.000387428
0.000106339
4.25456e-10
-0.00675116
0.00104493
1.03778e-09
-0.00500957
0.000798789
-4.69265e-10
-0.00441884
0.000773251
-2.35348e-10
-0.00426781
0.000744072
-1.86245e-10
-0.00489262
0.000794485
-4.23342e-10
-0.0041348
0.000817002
-3.14511e-10
-0.00278805
0.000787871
-1.31409e-10
-0.00146322
0.000773294
9.96857e-11
0.00084994
3.50959e-10
0.00202905
-2.5089e-13
1.03243e-12
0.00203817
-6.79245e-12
1.65323e-12
0.0020442
-1.62104e-11
1.79197e-12
0.00205172
-2.95902e-11
2.16344e-12
0.0020629
-5.2629e-11
2.78765e-12
0.00207955
-1.47999e-10
4.73968e-12
0.00210712
1.95967e-10
2.74875e-12
0.00211997
-2.83617e-10
4.00652e-12
0.00217896
-1.2932e-09
7.2889e-12
0.00230168
3.06297e-09
9.58959e-12
0.00255055
-8.08369e-09
4.63945e-11
0.00271806
8.00075e-08
2.71062e-11
0.00292844
-2.84941e-07
9.53314e-12
0.00298165
5.42438e-06
2.07631e-11
0.00251268
2.82341e-05
5.50258e-11
-0.000210419
0.000178008
2.97486e-10
-0.00671668
0.00186103
1.07415e-09
-0.00497794
0.00172195
-4.51748e-10
-0.00437342
0.0015555
-2.90422e-10
-0.00421443
0.00149771
-2.59471e-10
-0.00483844
0.00158364
-3.8263e-10
-0.00409974
0.00164382
-2.36854e-10
-0.00276084
0.00158988
-1.3337e-10
-0.00144582
0.00156155
-2.71573e-12
0.00171182
3.09125e-10
0.00202905
-1.99873e-12
9.60086e-13
0.00203817
-8.78843e-12
1.70239e-12
0.0020442
-1.33449e-11
1.81256e-12
0.00205172
-1.6995e-11
2.08144e-12
0.0020629
-2.26724e-11
2.69858e-12
0.00207954
-4.62878e-11
3.89335e-12
0.00210712
3.56799e-10
6.01171e-12
0.00211997
-1.76535e-10
9.17778e-12
0.00217893
-7.85482e-10
1.62169e-11
0.00230184
1.4726e-09
1.96127e-11
0.00254991
7.54548e-08
2.34518e-11
0.00271954
-9.04989e-08
2.718e-11
0.0029235
-3.03194e-08
-2.34553e-13
0.00299213
6.66183e-06
1.97789e-12
0.00258366
3.49082e-05
1.69061e-11
0.000124742
0.000219265
1.48129e-10
-0.00684459
0.0024956
8.69224e-10
-0.00488521
0.00271967
-2.37836e-10
-0.00430229
0.00235503
-3.2699e-10
-0.00410376
0.00223959
-2.99379e-10
-0.00472513
0.00237288
-3.17727e-10
-0.00403647
0.00249723
-1.37614e-10
-0.00271187
0.00242579
-6.8304e-11
-0.00140935
0.00238151
-1.40941e-11
0.00260734
2.09313e-10
0.00202905
-6.132e-13
6.57554e-13
0.00203817
-2.56477e-12
9.31363e-13
0.0020442
-2.66857e-13
1.23174e-12
0.00205172
1.02613e-11
1.36816e-12
0.0020629
3.11668e-11
1.5118e-12
0.00207954
1.1525e-10
2.25569e-12
0.00210712
1.59758e-10
3.74018e-12
0.00211999
-1.24215e-10
7.68908e-12
0.00217894
7.16116e-10
1.50354e-11
0.00230165