/*--------------------------------*- C++ -*----------------------------------*\
| =========                 |                                                 |
| \\      /  F ield         | OpenFOAM: The Open Source CFD Toolbox           |
|  \\    /   O peration     | Version:  4.1                                   |
|   \\  /    A nd           | Web:      www.OpenFOAM.org                      |
|    \\/     M anipulation  |                                                 |
\*---------------------------------------------------------------------------*/
FoamFile
{
    version     2.0;
    format      ascii;
    class       volScalarField;
    location    "0.26";
    object      T;
}
// * * * * * * * * * * * * * * * * * * * * * * * * * * * * * * * * * * * * * //

dimensions      [0 0 0 1 0 0 0];

internalField   nonuniform List<scalar> 
52500
(
0.342243
0.323392
0.325777
0.329268
0.332927
0.340443
0.351069
0.369238
0.411542
0.447316
0.477811
0.529396
0.553625
0.571866
0.630845
0.886129
1.77843
1.81852
1.80049
1.76449
1.83041
1.90977
1.91589
1.9179
1.76912
0.342244
0.323393
0.325779
0.329269
0.332929
0.340447
0.351073
0.369245
0.411556
0.447277
0.477824
0.529314
0.553563
0.570265
0.625916
0.866981
1.76191
1.82068
1.80112
1.76578
1.8281
1.90873
1.91534
1.91799
1.76783
0.342244
0.323393
0.32578
0.32927
0.33293
0.340448
0.351072
0.369244
0.411563
0.447226
0.477863
0.529217
0.553483
0.567398
0.616756
0.833228
1.72084
1.82227
1.80174
1.76299
1.8214
1.90538
1.9138
1.91766
1.76433
0.342248
0.323398
0.325785
0.329275
0.332937
0.340454
0.351075
0.36925
0.411558
0.447183
0.477743
0.529133
0.553482
0.563276
0.60396
0.790392
1.63569
1.82663
1.79872
1.75736
1.80769
1.89707
1.90958
1.91502
1.75817
0.342248
0.3234
0.325787
0.329274
0.332936
0.34045
0.351061
0.369239
0.411549
0.447171
0.477517
0.529146
0.553393
0.558489
0.589842
0.741229
1.49406
1.83811
1.79554
1.75077
1.78969
1.88452
1.90224
1.91071
1.75102
0.342247
0.323394
0.325781
0.329272
0.33294
0.34047
0.351092
0.369324
0.411729
0.447469
0.477606
0.5297
0.55339
0.554497
0.576762
0.687499
1.26903
1.85412
1.78772
1.74311
1.76719
1.8647
1.88766
1.90474
1.73773
0.34225
0.323398
0.325785
0.329275
0.332943
0.340472
0.351081
0.369322
0.411639
0.447544
0.477292
0.52991
0.552925
0.552531
0.565451
0.637126
1.03967
1.83458
1.77581
1.73771
1.74377
1.83737
1.87211
1.89653
1.72169
0.342254
0.323407
0.325795
0.329283
0.332947
0.340464
0.35106
0.369257
0.411409
0.447406
0.476847
0.529819
0.552006
0.5525
0.554681
0.59994
0.859764
1.74532
1.77478
1.7339
1.72207
1.80026
1.84454
1.88361
1.70243
0.342251
0.323399
0.325786
0.329279
0.332947
0.340485
0.351075
0.369344
0.411658
0.44754
0.477269
0.530364
0.551859
0.55199
0.545618
0.573797
0.749959
1.50478
1.79094
1.72953
1.70169
1.75538
1.80191
1.8693
1.65696
0.342252
0.323401
0.325788
0.329281
0.332949
0.340493
0.35108
0.369362
0.411733
0.447518
0.477281
0.530563
0.551395
0.550952
0.538838
0.554724
0.65819
1.15646
1.80269
1.72237
1.6817
1.69812
1.75202
1.84707
1.62215
0.342251
0.3234
0.325788
0.329278
0.332939
0.340461
0.351078
0.369258
0.411537
0.447208
0.477677
0.529286
0.553513
0.571809
0.630876
0.886363
1.7786
1.81845
1.80043
1.76447
1.83043
1.90978
1.91589
1.91788
1.76919
0.342245
0.323396
0.325782
0.329271
0.332932
0.340446
0.351064
0.369242
0.411541
0.447208
0.477747
0.52927
0.553536
0.570238
0.6259
0.867072
1.76203
1.82056
1.80109
1.76575
1.82812
1.90875
1.91536
1.91799
1.76788
0.342251
0.323397
0.325784
0.329274
0.332942
0.340469
0.351083
0.369312
0.41174
0.447306
0.477905
0.529466
0.553816
0.567728
0.617121
0.833816
1.7216
1.82214
1.80165
1.76295
1.82142
1.90539
1.91378
1.91758
1.76445
0.342243
0.323393
0.325778
0.329268
0.332927
0.340439
0.35106
0.369228
0.411542
0.447195
0.477803
0.529188
0.553506
0.563285
0.603972
0.790505
1.63597
1.82645
1.79868
1.75734
1.80772
1.89707
1.90951
1.91484
1.75839
0.34225
0.323397
0.325783
0.329274
0.332941
0.340467
0.351083
0.369306
0.41172
0.447337
0.477739
0.529497
0.553744
0.558862
0.590263
0.74189
1.49595
1.8379
1.79548
1.75075
1.78973
1.88454
1.90216
1.91049
1.75125
0.342244
0.323394
0.325779
0.329268
0.332927
0.340437
0.351056
0.369221
0.411467
0.447302
0.477436
0.529419
0.553104
0.554196
0.576473
0.687216
1.26843
1.85412
1.78775
1.74312
1.76721
1.86471
1.88759
1.90451
1.73795
0.34225
0.323399
0.325786
0.329276
0.332937
0.340455
0.351072
0.369251
0.411438
0.447434
0.477186
0.529602
0.552567
0.552187
0.565156
0.636864
1.03911
1.83457
1.77586
1.73774
1.74378
1.83738
1.87207
1.89627
1.72192
0.342244
0.323393
0.325778
0.329269
0.332928
0.340446
0.351065
0.36924
0.411398
0.447552
0.477154
0.529939
0.551976
0.552454
0.554698
0.600029
0.860066
1.7458
1.77484
1.73391
1.72208
1.80025
1.84453
1.88339
1.70264
0.342245
0.323394
0.325779
0.329272
0.332931
0.340457
0.351064
0.369263
0.411475
0.447498
0.477267
0.530104
0.551481
0.551615
0.545325
0.573547
0.749876
1.5051
1.79102
1.72956
1.70169
1.75538
1.80191
1.86912
1.65711
0.342243
0.323392
0.325776
0.32927
0.332928
0.340452
0.351056
0.369249
0.411483
0.44745
0.477285
0.530345
0.551057
0.550616
0.538571
0.554483
0.658047
1.15653
1.80279
1.72243
1.68171
1.69812
1.75203
1.84694
1.62227
0.342243
0.323392
0.325777
0.329268
0.332927
0.340442
0.351066
0.369232
0.41152
0.447275
0.477799
0.529367
0.553573
0.571846
0.630891
0.886417
1.77871
1.81851
1.80044
1.76447
1.83043
1.90977
1.91588
1.91787
1.76919
0.342245
0.323393
0.325779
0.329269
0.332929
0.340445
0.35107
0.369238
0.411531
0.447246
0.477821
0.529297
0.55353
0.570257
0.625955
0.867203
1.76212
1.82059
1.80111
1.76576
1.82812
1.90874
1.91535
1.91798
1.76787
0.342243
0.323392
0.325777
0.329268
0.332927
0.340441
0.351065
0.369227
0.411519
0.4472
0.477875
0.52922
0.553472
0.567395
0.616784
0.83337
1.72118
1.82228
1.80172
1.76297
1.82143
1.90538
1.91378
1.91757
1.76444
0.342248
0.323397
0.325783
0.329273
0.332934
0.340447
0.351066
0.369232
0.411521
0.447163
0.477759
0.529141
0.553475
0.563296
0.604017
0.790526
1.63585
1.82654
1.79872
1.75736
1.80772
1.89707
1.90951
1.91483
1.75838
0.342242
0.323392
0.325777
0.329266
0.332925
0.340433
0.351053
0.369213
0.411501
0.447216
0.477645
0.529225
0.553416
0.558499
0.589869
0.741396
1.49488
1.83807
1.79554
1.75077
1.78973
1.88454
1.90216
1.91049
1.75125
0.342245
0.323391
0.325776
0.329268
0.332935
0.34046
0.351083
0.369311
0.41171
0.447486
0.477679
0.529744
0.553401
0.554529
0.576822
0.687661
1.26968
1.85411
1.78775
1.74311
1.76721
1.8647
1.88759
1.9045
1.73795
0.342242
0.323392
0.325777
0.329266
0.332925
0.340434
0.35105
0.369217
0.411405
0.447442
0.477208
0.529649
0.552571
0.552164
0.56512
0.636845
1.03935
1.8346
1.77586
1.73772
1.74378
1.83737
1.87207
1.89626
1.72192
0.34225
0.3234
0.325787
0.329277
0.332938
0.340459
0.351073
0.369255
0.411397
0.447516
0.477045
0.529863
0.551957
0.552452
0.554702
0.600034
0.860063
1.74575
1.77479
1.73389
1.72207
1.80024
1.84452
1.88338
1.70263
0.342242
0.323391
0.325776
0.329268
0.332926
0.340448
0.351051
0.369243
0.411416
0.447449
0.477241
0.530093
0.551478
0.551609
0.545307
0.573528
0.749866
1.50518
1.79097
1.72954
1.70168
1.75538
1.8019
1.86911
1.65711
0.34225
0.3234
0.325786
0.329278
0.332939
0.340468
0.351064
0.369266
0.411469
0.447391
0.47716
0.530249
0.55103
0.550608
0.538568
0.554473
0.658015
1.15649
1.80274
1.72241
1.6817
1.69812
1.75202
1.84693
1.62226
0.342243
0.323391
0.325776
0.329266
0.332925
0.340438
0.35106
0.369222
0.411492
0.447253
0.477783
0.529371
0.553565
0.571851
0.630917
0.886472
1.77873
1.8185
1.80043
1.76447
1.83043
1.90977
1.91588
1.91786
1.76918
0.342243
0.323391
0.325776
0.329267
0.332925
0.340438
0.35106
0.369222
0.411499
0.447232
0.477823
0.52931
0.553544
0.570271
0.62597
0.86722
1.76213
1.82058
1.8011
1.76575
1.82811
1.90873
1.91535
1.91797
1.76786
0.342243
0.323391
0.325776
0.329267
0.332925
0.340438
0.351061
0.369221
0.411513
0.447199
0.477878
0.529215
0.553465
0.567394
0.61679
0.833398
1.7212
1.82226
1.80171
1.76296
1.82142
1.90538
1.91377
1.91756
1.76444
0.342243
0.323391
0.325776
0.329267
0.332925
0.340437
0.351062
0.36922
0.411516
0.4472
0.477841
0.529172
0.553451
0.563265
0.60399
0.790561
1.63606
1.82652
1.79872
1.75735
1.80772
1.89706
1.9095
1.91482
1.75838
0.342243
0.323391
0.325776
0.329266
0.332925
0.340437
0.351062
0.369219
0.411506
0.447239
0.477709
0.529237
0.553386
0.558496
0.589901
0.741508
1.49526
1.83808
1.79553
1.75077
1.78973
1.88453
1.90215
1.91048
1.75124
0.342243
0.323391
0.325776
0.329266
0.332925
0.340437
0.351062
0.369221
0.411466
0.447334
0.477502
0.529424
0.553074
0.554188
0.576488
0.687271
1.26861
1.85419
1.78778
1.74312
1.76721
1.86469
1.88758
1.90449
1.73794
0.342243
0.323391
0.325776
0.329266
0.332925
0.340438
0.35106
0.369224
0.411406
0.447466
0.477283
0.529663
0.552571
0.552179
0.565155
0.636888
1.03934
1.83466
1.77588
1.73773
1.74378
1.83737
1.87206
1.89626
1.72191
0.342243
0.323391
0.325776
0.329267
0.332925
0.34044
0.351058
0.369227
0.411372
0.447552
0.477148
0.529934
0.55198
0.552464
0.554714
0.600053
0.860126
1.74586
1.77483
1.7339
1.72207
1.80023
1.84452
1.88337
1.70262
0.342243
0.323391
0.325775
0.329268
0.332925
0.340447
0.35105
0.369237
0.411411
0.447464
0.477247
0.530097
0.551491
0.551628
0.545337
0.573561
0.749907
1.50522
1.79098
1.72955
1.70168
1.75538
1.8019
1.8691
1.6571
0.342243
0.323391
0.325775
0.329268
0.332926
0.340448
0.351049
0.369238
0.41144
0.447435
0.477259
0.53032
0.551054
0.550621
0.538581
0.554494
0.658065
1.15661
1.80276
1.72241
1.6817
1.69812
1.75202
1.84692
1.62225
0.342242
0.323391
0.325775
0.329265
0.332923
0.340435
0.351054
0.369217
0.411491
0.447245
0.477761
0.529364
0.553573
0.571865
0.63093
0.886452
1.77866
1.81847
1.80043
1.76447
1.83044
1.90977
1.91587
1.91786
1.76917
0.342242
0.323391
0.325775
0.329265
0.332924
0.340435
0.351054
0.369217
0.411498
0.447223
0.477803
0.529306
0.553552
0.570286
0.625987
0.867213
1.76207
1.82056
1.80109
1.76576
1.82813
1.90873
1.91532
1.91795
1.76787
0.342242
0.323391
0.325775
0.329266
0.332924
0.340435
0.351058
0.369218
0.411506
0.447196
0.477877
0.529213
0.553461
0.567389
0.61678
0.833374
1.72116
1.82224
1.8017
1.76297
1.82142
1.90537
1.91378
1.91763
1.76438
0.342242
0.323391
0.325775
0.329266
0.332924
0.340435
0.351059
0.369217
0.41151
0.447195
0.47784
0.52917
0.553447
0.563261
0.603984
0.790544
1.63603
1.82653
1.79872
1.75736
1.80772
1.89707
1.90959
1.91502
1.75814
0.342242
0.323391
0.325775
0.329265
0.332924
0.340434
0.351056
0.369214
0.411504
0.44723
0.477688
0.529233
0.553399
0.558517
0.589923
0.741507
1.49512
1.83808
1.79554
1.75078
1.78973
1.88455
1.90226
1.91072
1.75102
0.342242
0.323391
0.325775
0.329265
0.332924
0.340435
0.351058
0.369217
0.411464
0.44733
0.477487
0.529425
0.553091
0.554212
0.576512
0.687274
1.26847
1.85417
1.78777
1.74313
1.76722
1.86471
1.88765
1.90468
1.73783
0.342242
0.323391
0.325775
0.329265
0.332924
0.340435
0.351055
0.36922
0.411408
0.447467
0.477267
0.529664
0.552591
0.552207
0.565181
0.636901
1.03925
1.83462
1.77586
1.73774
1.74379
1.83737
1.87208
1.89634
1.72185
0.342242
0.323391
0.325775
0.329266
0.332924
0.340439
0.351058
0.369226
0.411374
0.447556
0.477154
0.52994
0.551981
0.552463
0.55471
0.600041
0.860084
1.74579
1.77483
1.7339
1.72208
1.80024
1.84451
1.88335
1.7026
0.342242
0.323391
0.325775
0.329267
0.332925
0.340446
0.351047
0.369237
0.411425
0.447471
0.477233
0.530101
0.551508
0.551648
0.545354
0.573572
0.749883
1.50507
1.791
1.72955
1.70168
1.75538
1.80189
1.86908
1.65711
0.342242
0.323391
0.325775
0.329268
0.332925
0.340448
0.351047
0.369239
0.411456
0.447431
0.47724
0.530308
0.551053
0.550622
0.538584
0.554496
0.658049
1.1565
1.80275
1.7224
1.6817
1.69812
1.75202
1.84691
1.62227
0.342243
0.323391
0.325776
0.329267
0.332925
0.340438
0.35106
0.369223
0.411494
0.44725
0.477792
0.529361
0.553564
0.571852
0.630918
0.886471
1.77873
1.81851
1.80044
1.76447
1.83042
1.90976
1.91588
1.91786
1.76918
0.342243
0.323391
0.325776
0.329267
0.332925
0.340438
0.351061
0.369223
0.4115
0.447233
0.477823
0.52931
0.553544
0.570271
0.625969
0.867219
1.76214
1.82058
1.8011
1.76575
1.82811
1.90873
1.91535
1.91797
1.76786
0.342243
0.323391
0.325776
0.329267
0.332925
0.340438
0.351061
0.369222
0.411513
0.4472
0.477878
0.529216
0.553466
0.567395
0.61679
0.833397
1.7212
1.82226
1.80171
1.76297
1.82142
1.90538
1.91377
1.91756
1.76444
0.342243
0.323391
0.325776
0.329267
0.332925
0.340438
0.351063
0.369221
0.411517
0.447203
0.477841
0.529173
0.553453
0.563267
0.603992
0.790564
1.63607
1.82653
1.79872
1.75735
1.80772
1.89706
1.9095
1.91482
1.75838
0.342243
0.323391
0.325776
0.329267
0.332925
0.340437
0.351062
0.36922
0.411507
0.44724
0.477708
0.529239
0.553391
0.5585
0.589903
0.741506
1.49524
1.83809
1.79554
1.75077
1.78973
1.88453
1.90215
1.91048
1.75124
0.342243
0.323391
0.325776
0.329267
0.332925
0.340438
0.351063
0.369221
0.411467
0.44734
0.477504
0.529428
0.553081
0.554193
0.576493
0.687272
1.26858
1.8542
1.78778
1.74312
1.76721
1.8647
1.88758
1.90449
1.73794
0.342243
0.323391
0.325776
0.329267
0.332925
0.340438
0.351061
0.369225
0.411409
0.447473
0.477284
0.529673
0.552583
0.552189
0.565163
0.636889
1.03931
1.83466
1.77589
1.73774
1.74378
1.83737
1.87207
1.89626
1.72192
0.342243
0.323392
0.325776
0.329267
0.332926
0.34044
0.351059
0.369229
0.41138
0.447557
0.477157
0.529945
0.551988
0.552469
0.554717
0.600052
0.860113
1.74584
1.77484
1.7339
1.72208
1.80024
1.84452
1.88338
1.70263
0.342243
0.323392
0.325776
0.329268
0.332926
0.340448
0.351053
0.369242
0.411427
0.447477
0.477258
0.53011
0.551498
0.551632
0.545337
0.573558
0.749896
1.50517
1.79099
1.72955
1.70168
1.75538
1.8019
1.86911
1.6571
0.342243
0.323392
0.325775
0.329269
0.332927
0.34045
0.351052
0.369243
0.411458
0.44744
0.477266
0.530318
0.551042
0.550607
0.538566
0.55448
0.658054
1.15659
1.80277
1.72241
1.6817
1.69812
1.75202
1.84693
1.62225
0.342243
0.323391
0.325776
0.329266
0.332925
0.340438
0.35106
0.369222
0.411492
0.447253
0.477783
0.529371
0.553565
0.571851
0.630917
0.886472
1.77873
1.8185
1.80043
1.76447
1.83043
1.90977
1.91588
1.91786
1.76918
0.342243
0.323391
0.325776
0.329266
0.332925
0.340438
0.35106
0.369222
0.411499
0.447232
0.477823
0.52931
0.553544
0.570271
0.62597
0.867221
1.76213
1.82058
1.8011
1.76575
1.82811
1.90873
1.91535
1.91797
1.76786
0.342243
0.323391
0.325776
0.329267
0.332925
0.340438
0.351061
0.369221
0.411513
0.447199
0.477878
0.529215
0.553465
0.567394
0.61679
0.833398
1.72121
1.82226
1.80171
1.76296
1.82142
1.90538
1.91377
1.91756
1.76444
0.342243
0.323391
0.325776
0.329267
0.332925
0.340437
0.351062
0.36922
0.411516
0.4472
0.477841
0.529172
0.553451
0.563265
0.60399
0.790561
1.63606
1.82652
1.79872
1.75735
1.80772
1.89706
1.9095
1.91482
1.75838
0.342243
0.323391
0.325776
0.329266
0.332925
0.340437
0.351062
0.369219
0.411506
0.447239
0.477709
0.529237
0.553386
0.558496
0.589901
0.741508
1.49526
1.83808
1.79553
1.75077
1.78973
1.88453
1.90215
1.91048
1.75124
0.342243
0.323391
0.325776
0.329266
0.332925
0.340437
0.351062
0.369221
0.411466
0.447334
0.477502
0.529424
0.553074
0.554188
0.576488
0.687271
1.26861
1.85419
1.78778
1.74312
1.76721
1.86469
1.88758
1.90449
1.73794
0.342243
0.323391
0.325776
0.329266
0.332925
0.340438
0.35106
0.369224
0.411406
0.447466
0.477283
0.529663
0.552571
0.552179
0.565155
0.636888
1.03934
1.83466
1.77588
1.73773
1.74378
1.83737
1.87206
1.89626
1.72191
0.342243
0.323391
0.325776
0.329267
0.332925
0.34044
0.351058
0.369227
0.411372
0.447552
0.477148
0.529934
0.55198
0.552464
0.554714
0.600053
0.860126
1.74586
1.77483
1.7339
1.72207
1.80023
1.84452
1.88337
1.70262
0.342243
0.323391
0.325775
0.329268
0.332925
0.340447
0.35105
0.369237
0.411411
0.447464
0.477247
0.530097
0.551491
0.551628
0.545337
0.573561
0.749908
1.50522
1.79098
1.72955
1.70168
1.75538
1.8019
1.8691
1.6571
0.342243
0.323391
0.325775
0.329268
0.332926
0.340448
0.351049
0.369238
0.41144
0.447435
0.477259
0.53032
0.551054
0.550621
0.538581
0.554494
0.658065
1.15661
1.80276
1.72241
1.6817
1.69812
1.75202
1.84692
1.62225
0.342243
0.323392
0.325777
0.329268
0.332927
0.340442
0.351066
0.369232
0.41152
0.447275
0.477799
0.529367
0.553573
0.571846
0.630891
0.886417
1.77871
1.81851
1.80044
1.76447
1.83043
1.90977
1.91588
1.91787
1.76919
0.342245
0.323393
0.325779
0.329269
0.332929
0.340445
0.35107
0.369238
0.411531
0.447246
0.477821
0.529297
0.55353
0.570257
0.625955
0.867203
1.76212
1.82059
1.80111
1.76576
1.82812
1.90874
1.91535
1.91798
1.76787
0.342243
0.323392
0.325777
0.329268
0.332927
0.340441
0.351065
0.369227
0.411519
0.4472
0.477875
0.52922
0.553472
0.567395
0.616784
0.83337
1.72118
1.82228
1.80172
1.76297
1.82143
1.90538
1.91378
1.91757
1.76444
0.342248
0.323397
0.325783
0.329273
0.332934
0.340447
0.351066
0.369232
0.411521
0.447163
0.477759
0.529141
0.553475
0.563296
0.604017
0.790526
1.63585
1.82654
1.79872
1.75736
1.80772
1.89707
1.90951
1.91483
1.75838
0.342242
0.323392
0.325777
0.329266
0.332925
0.340433
0.351053
0.369213
0.411501
0.447216
0.477645
0.529225
0.553416
0.558499
0.589869
0.741396
1.49488
1.83807
1.79554
1.75077
1.78973
1.88454
1.90216
1.91049
1.75125
0.342245
0.323391
0.325776
0.329268
0.332935
0.34046
0.351083
0.369311
0.41171
0.447486
0.477679
0.529744
0.553401
0.554529
0.576823
0.687661
1.26968
1.85411
1.78775
1.74311
1.76721
1.8647
1.88759
1.9045
1.73795
0.342242
0.323392
0.325777
0.329266
0.332925
0.340434
0.35105
0.369217
0.411405
0.447442
0.477208
0.529649
0.552571
0.552164
0.56512
0.636845
1.03935
1.8346
1.77586
1.73772
1.74378
1.83737
1.87207
1.89626
1.72192
0.34225
0.3234
0.325787
0.329277
0.332938
0.340459
0.351073
0.369255
0.411397
0.447516
0.477045
0.529863
0.551957
0.552452
0.554702
0.600034
0.860063
1.74575
1.77479
1.73389
1.72207
1.80024
1.84452
1.88338
1.70263
0.342242
0.323391
0.325776
0.329268
0.332926
0.340448
0.351051
0.369243
0.411416
0.447449
0.477241
0.530093
0.551478
0.551609
0.545307
0.573528
0.749866
1.50518
1.79097
1.72954
1.70168
1.75538
1.8019
1.86911
1.65711
0.34225
0.3234
0.325786
0.329278
0.332939
0.340468
0.351064
0.369266
0.411469
0.447391
0.47716
0.530249
0.55103
0.550608
0.538568
0.554473
0.658015
1.15649
1.80274
1.72241
1.6817
1.69812
1.75202
1.84693
1.62226
0.342251
0.3234
0.325788
0.329278
0.332939
0.340461
0.351078
0.369258
0.411537
0.447207
0.477677
0.529286
0.553513
0.571809
0.630876
0.886363
1.7786
1.81845
1.80043
1.76447
1.83043
1.90978
1.91589
1.91788
1.76919
0.342245
0.323396
0.325782
0.329271
0.332932
0.340446
0.351064
0.369242
0.411541
0.447208
0.477747
0.52927
0.553536
0.570238
0.6259
0.867072
1.76203
1.82056
1.80109
1.76575
1.82812
1.90875
1.91536
1.91799
1.76788
0.342251
0.323397
0.325784
0.329274
0.332942
0.340469
0.351083
0.369312
0.41174
0.447306
0.477905
0.529466
0.553816
0.567728
0.617121
0.833816
1.7216
1.82214
1.80165
1.76295
1.82142
1.90539
1.91378
1.91758
1.76445
0.342243
0.323393
0.325778
0.329268
0.332927
0.340439
0.351059
0.369228
0.411542
0.447195
0.477802
0.529188
0.553506
0.563285
0.603972
0.790505
1.63597
1.82645
1.79868
1.75734
1.80772
1.89707
1.90951
1.91484
1.75839
0.34225
0.323397
0.325783
0.329274
0.332941
0.340467
0.351083
0.369306
0.41172
0.447337
0.477739
0.529497
0.553744
0.558862
0.590263
0.74189
1.49595
1.8379
1.79548
1.75075
1.78973
1.88454
1.90216
1.91049
1.75125
0.342244
0.323394
0.325779
0.329268
0.332927
0.340437
0.351056
0.369221
0.411467
0.447302
0.477436
0.529419
0.553104
0.554196
0.576473
0.687217
1.26843
1.85412
1.78775
1.74312
1.76721
1.86471
1.88759
1.90451
1.73795
0.34225
0.323399
0.325786
0.329276
0.332937
0.340455
0.351072
0.369251
0.411438
0.447434
0.477186
0.529602
0.552566
0.552187
0.565156
0.636864
1.03911
1.83457
1.77586
1.73774
1.74378
1.83738
1.87207
1.89627
1.72192
0.342244
0.323393
0.325778
0.329269
0.332928
0.340446
0.351065
0.36924
0.411398
0.447552
0.477153
0.529939
0.551975
0.552453
0.554698
0.600028
0.860066
1.7458
1.77484
1.73391
1.72208
1.80025
1.84453
1.88339
1.70264
0.342245
0.323394
0.325779
0.329272
0.332931
0.340457
0.351064
0.369263
0.411475
0.447498
0.477267
0.530104
0.551481
0.551615
0.545325
0.573547
0.749876
1.5051
1.79102
1.72956
1.70169
1.75538
1.80191
1.86912
1.65711
0.342243
0.323392
0.325776
0.32927
0.332928
0.340452
0.351056
0.369249
0.411483
0.44745
0.477285
0.530344
0.551057
0.550616
0.538571
0.554483
0.658047
1.15653
1.80279
1.72243
1.68171
1.69812
1.75203
1.84694
1.62227
0.342244
0.323393
0.325779
0.32927
0.33293
0.340449
0.351075
0.369246
0.411546
0.447292
0.477795
0.529366
0.553581
0.571832
0.630829
0.88616
1.77846
1.81851
1.80049
1.76448
1.83039
1.90978
1.91601
1.91811
1.7689
0.342247
0.323397
0.325783
0.329273
0.332934
0.340449
0.351066
0.369244
0.411545
0.447225
0.477726
0.529279
0.553597
0.570307
0.625949
0.866891
1.76174
1.82063
1.80112
1.76578
1.8281
1.90874
1.91538
1.91808
1.76771
0.342244
0.323394
0.32578
0.329269
0.332929
0.340444
0.351066
0.369239
0.411564
0.447209
0.477817
0.529188
0.553464
0.567354
0.616679
0.8331
1.7207
1.82225
1.80174
1.76299
1.8214
1.90537
1.91378
1.91766
1.76433
0.342245
0.323392
0.325779
0.329269
0.332937
0.340466
0.351084
0.369324
0.411802
0.447353
0.477956
0.529472
0.553795
0.563623
0.60436
0.790919
1.63641
1.82645
1.79866
1.75734
1.80769
1.89706
1.90956
1.915
1.75819
0.342248
0.323398
0.325785
0.329274
0.332935
0.340448
0.351064
0.369232
0.411514
0.447181
0.477532
0.529169
0.553431
0.5585
0.589837
0.741241
1.49435
1.83813
1.7955
1.75076
1.78969
1.88453
1.90223
1.9107
1.75104
0.342253
0.323405
0.325793
0.329281
0.332944
0.340459
0.351063
0.369253
0.41151
0.447231
0.477222
0.529299
0.553104
0.554222
0.576464
0.687019
1.26715
1.85412
1.7877
1.74311
1.76719
1.8647
1.88766
1.90474
1.73773
0.342245
0.323392
0.325778
0.32927
0.332936
0.340464
0.351079
0.369314
0.411632
0.447575
0.477374
0.529941
0.552898
0.552481
0.565404
0.637061
1.03953
1.8346
1.77579
1.73771
1.74377
1.83738
1.87211
1.89653
1.7217
0.342252
0.323401
0.325789
0.329279
0.332949
0.340484
0.35109
0.369347
0.411646
0.447628
0.477142
0.530108
0.552254
0.552742
0.554947
0.600254
0.860233
1.74573
1.77474
1.73387
1.72207
1.80026
1.84454
1.88361
1.70243
0.342247
0.323399
0.325784
0.329275
0.332936
0.340455
0.351042
0.369249
0.411436
0.447349
0.477053
0.53003
0.55149
0.551624
0.545265
0.573448
0.749651
1.50466
1.79098
1.72953
1.70169
1.75539
1.80191
1.8693
1.65697
0.342256
0.323405
0.325793
0.329284
0.332953
0.340496
0.351072
0.36935
0.411697
0.447468
0.477117
0.530455
0.551399
0.550991
0.538905
0.554781
0.658194
1.15627
1.80261
1.72235
1.68169
1.69812
1.75202
1.84707
1.62215
0.342252
0.323405
0.325792
0.329283
0.332946
0.340471
0.351084
0.369275
0.411607
0.447344
0.477186
0.530342
0.550654
0.550137
0.533749
0.540622
0.597282
0.905062
1.74455
1.73256
1.66904
1.64034
1.69255
1.8024
1.53696
0.342253
0.323401
0.32579
0.329281
0.332952
0.340483
0.35112
0.369343
0.41177
0.447661
0.477207
0.530861
0.550926
0.550129
0.532962
0.531403
0.562968
0.753742
1.40281
1.7535
1.67067
1.61533
1.61939
1.69946
1.53702
0.342253
0.323405
0.325795
0.329283
0.332948
0.340469
0.351102
0.369275
0.411533
0.447605
0.476852
0.530609
0.550654
0.549648
0.533166
0.523667
0.542668
0.65567
1.06608
1.74768
1.6899
1.6124
1.56337
1.60115
1.53184
0.342258
0.32341
0.3258
0.329287
0.332953
0.340473
0.351097
0.369278
0.411507
0.447571
0.476703
0.53056
0.550695
0.549479
0.533482
0.518972
0.529523
0.597527
0.85868
1.53636
1.69455
1.63003
1.54916
1.54674
1.50662
0.342254
0.323402
0.325792
0.329282
0.332954
0.340485
0.351119
0.369347
0.411695
0.447786
0.476955
0.530951
0.551055
0.549784
0.534182
0.516442
0.522147
0.566585
0.728093
1.15919
1.68139
1.64601
1.55763
1.51244
1.47945
0.342254
0.323404
0.325793
0.329282
0.332953
0.340481
0.351109
0.369341
0.411703
0.44776
0.476895
0.530934
0.551056
0.549779
0.534006
0.516094
0.517802
0.549143
0.654275
0.913029
1.50377
1.63861
1.56454
1.49954
1.46612
0.342257
0.323407
0.325795
0.329285
0.332957
0.34048
0.351101
0.369331
0.411661
0.447716
0.476807
0.530939
0.551112
0.549843
0.534147
0.515845
0.51687
0.541391
0.618668
0.767513
1.10673
1.59409
1.54811
1.49185
1.45858
0.342258
0.323408
0.325798
0.329286
0.332959
0.340484
0.351104
0.369339
0.411672
0.447711
0.476792
0.530916
0.551097
0.549826
0.534114
0.515862
0.516781
0.539932
0.60487
0.705679
0.8736
1.28701
1.49822
1.47658
1.4467
0.342255
0.323405
0.325794
0.329283
0.332955
0.340485
0.35111
0.369345
0.411694
0.44774
0.476871
0.530928
0.551049
0.549774
0.534076
0.515852
0.516786
0.539857
0.601584
0.686097
0.774508
0.93342
1.25833
1.4414
1.42654
0.342259
0.323408
0.325799
0.329288
0.332961
0.340492
0.351118
0.369356
0.411692
0.447738
0.476837
0.530912
0.551064
0.549794
0.534101
0.515861
0.516782
0.539855
0.601737
0.68549
0.745951
0.81039
0.933211
1.19213
1.38358
0.342258
0.323412
0.325803
0.32929
0.332956
0.340476
0.351098
0.36928
0.411514
0.447571
0.476636
0.530583
0.550688
0.549424
0.533756
0.515529
0.516468
0.539635
0.601457
0.685547
0.744228
0.784337
0.828584
0.912458
1.08999
0.342256
0.323404
0.325795
0.329285
0.332957
0.340493
0.351124
0.369365
0.411743
0.447794
0.476944
0.530933
0.551013
0.549737
0.534054
0.51587
0.51681
0.539908
0.601629
0.685704
0.744172
0.78254
0.813074
0.846332
0.900015
0.342256
0.323404
0.325795
0.329284
0.332956
0.340491
0.351121
0.369361
0.411733
0.447788
0.47694
0.53094
0.551025
0.549749
0.534062
0.515874
0.516811
0.539906
0.601618
0.685722
0.744138
0.782368
0.811952
0.838313
0.864903
0.342258
0.323412
0.325802
0.329289
0.332956
0.340474
0.351096
0.369279
0.411511
0.447587
0.476647
0.530618
0.550735
0.54947
0.5338
0.515564
0.5165
0.53966
0.601467
0.685554
0.74406
0.782313
0.811854
0.837496
0.861089
0.342258
0.323406
0.325796
0.329287
0.332959
0.340487
0.351115
0.369347
0.411687
0.447764
0.476876
0.530968
0.551119
0.549846
0.534143
0.515898
0.51682
0.5399
0.601599
0.685689
0.744118
0.782336
0.81186
0.837411
0.860717
0.342255
0.323405
0.325794
0.329283
0.332955
0.340484
0.351112
0.36935
0.411725
0.447775
0.476903
0.530961
0.551069
0.54979
0.534081
0.515864
0.516799
0.539895
0.601603
0.685692
0.744121
0.78234
0.811863
0.837403
0.860679
0.342255
0.323405
0.325794
0.329283
0.332955
0.340485
0.351111
0.36935
0.411722
0.44776
0.476891
0.530939
0.551046
0.549768
0.534062
0.515849
0.516784
0.539881
0.601595
0.685698
0.744122
0.782341
0.811863
0.837402
0.860674
0.342259
0.323408
0.325799
0.329289
0.332962
0.340494
0.351119
0.369361
0.411708
0.447752
0.476851
0.530917
0.551068
0.5498
0.534112
0.515873
0.516793
0.539869
0.601571
0.685687
0.744113
0.782334
0.811859
0.8374
0.860673
0.342258
0.323412
0.325803
0.32929
0.332956
0.340475
0.351096
0.369276
0.41149
0.447554
0.47662
0.530594
0.550714
0.54945
0.533782
0.51555
0.516484
0.539644
0.601458
0.685566
0.744062
0.782313
0.81185
0.837396
0.860672
0.342261
0.32341
0.325802
0.329291
0.332965
0.3405
0.351125
0.36937
0.411716
0.447747
0.476837
0.530896
0.551051
0.549786
0.534105
0.515865
0.516784
0.539858
0.601559
0.685681
0.744107
0.78233
0.811856
0.837397
0.860671
0.342253
0.323403
0.325792
0.329282
0.332953
0.34048
0.351106
0.369342
0.411711
0.447761
0.476904
0.530965
0.551066
0.549783
0.534068
0.515854
0.516791
0.539893
0.601612
0.685704
0.744123
0.782339
0.81186
0.837399
0.860671
0.342261
0.323411
0.325802
0.329291
0.332965
0.340496
0.351119
0.369365
0.411735
0.447742
0.476803
0.530899
0.551061
0.549791
0.53409
0.515836
0.516755
0.539831
0.601527
0.685637
0.744084
0.782316
0.811847
0.837391
0.860666
0.342253
0.323403
0.325792
0.329282
0.332953
0.34048
0.351106
0.369342
0.411713
0.447762
0.476902
0.530963
0.551062
0.549779
0.534064
0.515851
0.516789
0.539892
0.60161
0.685702
0.744122
0.782338
0.811859
0.837398
0.86067
0.342261
0.323411
0.325802
0.329292
0.332966
0.340502
0.351128
0.369376
0.411732
0.447752
0.476844
0.530898
0.551048
0.549782
0.534099
0.515859
0.516779
0.539852
0.601553
0.685676
0.744101
0.782325
0.811852
0.837394
0.860669
0.342258
0.323412
0.325803
0.32929
0.332956
0.340475
0.351095
0.369273
0.411486
0.447542
0.476614
0.530583
0.550697
0.549431
0.533762
0.515533
0.516469
0.53963
0.601448
0.685563
0.744058
0.78231
0.811848
0.837395
0.860671
0.342261
0.32341
0.325802
0.329292
0.332966
0.340503
0.351129
0.369375
0.411728
0.447753
0.476844
0.530893
0.551042
0.549777
0.534096
0.515861
0.516782
0.539859
0.601562
0.685684
0.744104
0.782325
0.811851
0.837393
0.860667
0.342253
0.323403
0.325792
0.329281
0.332953
0.340479
0.351104
0.369342
0.411708
0.447751
0.476891
0.530955
0.551058
0.549776
0.534062
0.515845
0.51678
0.539879
0.601597
0.685697
0.744119
0.782337
0.811859
0.837398
0.860671
0.342261
0.323411
0.325801
0.32929
0.332964
0.340494
0.351117
0.369358
0.411718
0.447733
0.476796
0.530895
0.551063
0.549794
0.534096
0.515843
0.516762
0.539839
0.601539
0.685648
0.744088
0.782317
0.811845
0.837389
0.860664
0.342253
0.323403
0.325792
0.329281
0.332952
0.340478
0.351106
0.369338
0.411695
0.447759
0.476901
0.530968
0.551075
0.549793
0.534078
0.515859
0.516794
0.539895
0.601612
0.685702
0.744122
0.782337
0.811858
0.837397
0.860669
0.342259
0.323408
0.325799
0.329289
0.332962
0.340493
0.351119
0.369358
0.411696
0.447754
0.476847
0.530922
0.551084
0.549818
0.534128
0.515879
0.516797
0.53987
0.60157
0.68568
0.744109
0.782331
0.811856
0.837397
0.86067
0.342258
0.323411
0.325802
0.329288
0.332954
0.340472
0.351091
0.36927
0.411483
0.447548
0.476619
0.530586
0.550701
0.549438
0.533772
0.515542
0.516477
0.539637
0.601451
0.685563
0.74406
0.782311
0.811848
0.837394
0.86067
0.342255
0.323404
0.325794
0.329284
0.332956
0.34049
0.35112
0.36936
0.411726
0.447791
0.476939
0.530939
0.551034
0.549761
0.534081
0.515885
0.51682
0.53991
0.601618
0.685727
0.744134
0.782346
0.811866
0.837403
0.860674
0.342254
0.323402
0.325791
0.329282
0.332953
0.340483
0.351113
0.369343
0.411694
0.447779
0.476943
0.530963
0.551053
0.549775
0.53408
0.515884
0.516821
0.539916
0.601629
0.685731
0.744138
0.782349
0.811867
0.837404
0.860674
0.342257
0.323411
0.325801
0.329287
0.332953
0.34047
0.351091
0.369275
0.411507
0.447589
0.476646
0.530608
0.550723
0.549459
0.533795
0.515559
0.516495
0.539652
0.601455
0.685547
0.744054
0.782308
0.811846
0.837393
0.860669
0.342252
0.3234
0.325788
0.329279
0.332949
0.340475
0.351107
0.369331
0.411674
0.447796
0.476965
0.531004
0.551103
0.549823
0.534118
0.515907
0.516841
0.539936
0.601646
0.685732
0.744143
0.782352
0.811869
0.837405
0.860675
0.342254
0.323402