/*--------------------------------*- C++ -*----------------------------------*\
| =========                 |                                                 |
| \\      /  F ield         | OpenFOAM: The Open Source CFD Toolbox           |
|  \\    /   O peration     | Version:  4.1                                   |
|   \\  /    A nd           | Web:      www.OpenFOAM.org                      |
|    \\/     M anipulation  |                                                 |
\*---------------------------------------------------------------------------*/
FoamFile
{
    version     2.0;
    format      ascii;
    class       volVectorField;
    location    "0.26";
    object      U;
}
// * * * * * * * * * * * * * * * * * * * * * * * * * * * * * * * * * * * * * //

dimensions      [0 1 -1 0 0 0 0];

internalField   nonuniform List<vector> 
52500
(
(1.8138 -4.54133e-07 -0.00219716)
(1.83719 -1.24492e-06 -0.00200883)
(1.83347 -2.25248e-06 -0.00202168)
(1.82806 -3.58077e-06 -0.00204161)
(1.81974 -5.43094e-06 -0.00206423)
(1.807 -7.78027e-06 -0.00211134)
(1.78618 -1.25554e-05 -0.00217848)
(1.74943 -2.06252e-05 -0.00229748)
(1.68936 -3.1873e-05 -0.00256192)
(1.59196 -3.6317e-05 -0.00279428)
(1.46233 -3.3264e-05 -0.00300195)
(1.35258 1.59199e-05 -0.00337663)
(1.27707 -1.71722e-05 -0.00355101)
(1.20313 0.000523498 -0.0037121)
(1.06001 0.00208235 -0.00422796)
(0.512549 0.00855503 -0.00632097)
(-0.509762 0.0424982 -0.0125634)
(-0.714905 0.0380936 -0.0121636)
(-0.559231 0.0393867 -0.0122111)
(-0.464811 0.0369272 -0.0120476)
(-0.409222 0.0357383 -0.0125585)
(-0.392865 0.0333761 -0.0130795)
(-0.242272 0.0307679 -0.0132089)
(-0.239527 0.0304356 -0.0133506)
(0.0287632 0.0311555 -0.0124416)
(1.8138 -5.86978e-07 -0.00219715)
(1.83719 -1.8016e-06 -0.00200882)
(1.83347 -3.19876e-06 -0.00202166)
(1.82806 -4.88279e-06 -0.00204159)
(1.81974 -7.10148e-06 -0.00206421)
(1.80699 -9.46001e-06 -0.00211133)
(1.78617 -1.52485e-05 -0.00217844)
(1.74941 -2.54398e-05 -0.00229749)
(1.68935 -3.7983e-05 -0.00256196)
(1.59196 -3.50813e-05 -0.00279417)
(1.46239 -2.29346e-05 -0.00300252)
(1.3526 7.31106e-05 -0.00337659)
(1.27755 -4.95473e-05 -0.00355197)
(1.20509 0.00151134 -0.00370031)
(1.06778 0.00599289 -0.00418736)
(0.547183 0.024075 -0.00617711)
(-0.482795 0.119835 -0.012369)
(-0.715706 0.109213 -0.0120924)
(-0.553848 0.104956 -0.0121363)
(-0.460227 0.0981236 -0.0119837)
(-0.40304 0.0942035 -0.0124708)
(-0.390349 0.0895553 -0.0129998)
(-0.240629 0.0837316 -0.0131334)
(-0.239364 0.0824897 -0.0132781)
(0.0299256 0.0836667 -0.0123624)
(1.8138 -1.77375e-06 -0.00219716)
(1.83718 -4.05695e-06 -0.00200883)
(1.83347 -6.89891e-06 -0.00202168)
(1.82805 -1.06955e-05 -0.0020416)
(1.81974 -1.60659e-05 -0.00206423)
(1.80699 -2.26242e-05 -0.00211133)
(1.78616 -3.41199e-05 -0.00217846)
(1.74941 -4.77038e-05 -0.0022976)
(1.68936 -5.60558e-05 -0.00256221)
(1.59198 -3.9608e-05 -0.0027942)
(1.46245 2.68141e-05 -0.00300332)
(1.35257 5.49732e-05 -0.00337657)
(1.27843 -3.51785e-06 -0.00355328)
(1.20877 0.00218993 -0.0036792)
(1.08208 0.00879158 -0.00411416)
(0.610923 0.0355947 -0.00591517)
(-0.423678 0.194551 -0.012026)
(-0.71367 0.189416 -0.0120062)
(-0.547681 0.177589 -0.0120693)
(-0.452244 0.165737 -0.0118964)
(-0.392371 0.159449 -0.0123579)
(-0.385322 0.153594 -0.0129068)
(-0.237655 0.144359 -0.01305)
(-0.239083 0.142044 -0.0132006)
(0.0326542 0.143648 -0.0122662)
(1.8138 -1.9279e-06 -0.00219716)
(1.83718 -4.01124e-06 -0.00200881)
(1.83346 -6.23807e-06 -0.00202166)
(1.82804 -9.03525e-06 -0.00204159)
(1.81973 -1.31408e-05 -0.00206422)
(1.80697 -1.86585e-05 -0.00211132)
(1.78614 -3.03471e-05 -0.00217834)
(1.74939 -4.40218e-05 -0.00229745)
(1.68936 -5.45068e-05 -0.00256191)
(1.59206 -4.62639e-05 -0.00279369)
(1.46256 5.66172e-05 -0.00300257)
(1.3527 -7.34626e-05 -0.00337528)
(1.2797 0.000124666 -0.00355451)
(1.21343 0.00220825 -0.00364807)
(1.10088 0.00971928 -0.00401261)
(0.702239 0.0415335 -0.00554066)
(-0.320723 0.249448 -0.011395)
(-0.707722 0.272638 -0.0119544)
(-0.540467 0.250352 -0.0119781)
(-0.441436 0.233714 -0.0117914)
(-0.376443 0.226183 -0.0122015)
(-0.377188 0.22137 -0.0127825)
(-0.23238 0.208882 -0.0129459)
(-0.238529 0.205657 -0.0131038)
(0.0370643 0.207637 -0.0121478)
(1.81379 1.12892e-06 -0.00219718)
(1.83718 7.53763e-07 -0.00200885)
(1.83346 -6.2737e-07 -0.0020217)
(1.82805 -3.29296e-06 -0.0020416)
(1.81973 -7.75078e-06 -0.00206423)
(1.80698 -1.60036e-05 -0.0021113)
(1.78615 -3.5423e-05 -0.0021783)
(1.74941 -7.12995e-05 -0.00229747)
(1.6894 -0.000132002 -0.00256196)
(1.59218 -0.000214039 -0.00279387)
(1.46266 -0.00022898 -0.00300102)
(1.35298 -0.00048093 -0.00337575)
(1.28094 2.79553e-06 -0.00355596)
(1.21807 0.00134915 -0.00361165)
(1.12116 0.00914769 -0.00389869)
(0.808923 0.0424188 -0.00515182)
(-0.170651 0.2717 -0.0104181)
(-0.688577 0.361142 -0.0120067)
(-0.537128 0.324131 -0.0118908)
(-0.429036 0.302582 -0.0116785)
(-0.354772 0.293872 -0.0120203)
(-0.364915 0.293267 -0.0126342)
(-0.222671 0.278075 -0.012818)
(-0.237095 0.274176 -0.0129918)
(0.0430293 0.277198 -0.0120168)
(1.8138 1.79148e-07 -0.00219715)
(1.83718 -1.08164e-06 -0.00200879)
(1.83346 -4.00763e-06 -0.00202164)
(1.82804 -9.09807e-06 -0.00204156)
(1.81972 -1.70807e-05 -0.00206423)
(1.80696 -2.94481e-05 -0.00211139)
(1.7861 -5.40233e-05 -0.0021784)
(1.7493 -9.06531e-05 -0.00229772)
(1.68916 -0.000140834 -0.00256242)
(1.59174 -0.000199418 -0.00279506)
(1.4618 -0.000174235 -0.00300033)
(1.35209 -0.000396479 -0.0033787)
(1.2803 0.000191255 -0.00355709)
(1.22075 0.000309734 -0.00357749)
(1.13989 0.00812205 -0.00378563)
(0.914081 0.0395028 -0.00472019)
(0.0472432 0.24513 -0.00888993)
(-0.644946 0.453647 -0.0122422)
(-0.540969 0.39702 -0.0117616)
(-0.415615 0.372494 -0.0115583)
(-0.326933 0.362821 -0.0118135)
(-0.347234 0.370219 -0.0124451)
(-0.206619 0.354137 -0.012639)
(-0.23331 0.35028 -0.0128625)
(0.0513993 0.356247 -0.0118363)
(1.81379 -3.85676e-06 -0.00219718)
(1.83718 -7.03293e-06 -0.00200883)
(1.83346 -9.50949e-06 -0.00202168)
(1.82804 -1.1639e-05 -0.0020416)
(1.81972 -1.40601e-05 -0.00206427)
(1.80695 -1.50747e-05 -0.00211144)
(1.78609 -1.51153e-05 -0.00217839)
(1.74931 -5.59192e-07 -0.00229782)
(1.6892 4.38257e-05 -0.00256212)
(1.5919 0.000126232 -0.00279575)
(1.46192 0.000306589 -0.00299833)
(1.35246 0.000232832 -0.00337996)
(1.28049 0.000611936 -0.00355342)
(1.22428 -0.000305832 -0.00355696)
(1.15738 0.00695015 -0.00369093)
(0.99925 0.0328987 -0.00431618)
(0.306262 0.179757 -0.00733609)
(-0.558047 0.532572 -0.0122022)
(-0.553622 0.471685 -0.01154)
(-0.400202 0.44431 -0.0114547)
(-0.291756 0.432387 -0.0116047)
(-0.322387 0.45128 -0.0122147)
(-0.182172 0.439145 -0.0124508)
(-0.224659 0.436365 -0.0127125)
(0.0626249 0.4495 -0.0116273)
(1.81379 -5.19055e-07 -0.00219718)
(1.83717 -1.46411e-06 -0.00200884)
(1.83345 -2.70336e-06 -0.00202169)
(1.82803 -4.40499e-06 -0.0020416)
(1.81971 -6.84752e-06 -0.00206423)
(1.80695 -1.07975e-05 -0.00211131)
(1.78612 -1.56063e-05 -0.00217811)
(1.74938 -2.29661e-05 -0.00229734)
(1.68939 -3.29126e-05 -0.00256083)
(1.59236 -5.39002e-05 -0.00279509)
(1.46268 -0.000112713 -0.00299618)
(1.35365 -0.000124144 -0.0033797)
(1.28139 0.000165009 -0.00354649)
(1.22833 -0.000537086 -0.0035591)
(1.17206 0.00576832 -0.00360823)
(1.05937 0.0257576 -0.00401729)
(0.564129 0.118463 -0.00608451)
(-0.409656 0.568483 -0.0118752)
(-0.564293 0.552994 -0.0113892)
(-0.38545 0.517998 -0.0113688)
(-0.250589 0.503014 -0.0114071)
(-0.287207 0.533773 -0.011924)
(-0.146054 0.533914 -0.0121854)
(-0.205386 0.535635 -0.0125258)
(0.0790189 0.56468 -0.011379)
(1.81379 1.78117e-06 -0.00219717)
(1.83718 2.05537e-06 -0.00200881)
(1.83345 1.03734e-06 -0.00202166)
(1.82804 -1.47418e-06 -0.0020416)
(1.81971 -5.78745e-06 -0.00206427)
(1.80694 -1.46312e-05 -0.00211149)
(1.78608 -3.14303e-05 -0.00217829)
(1.74929 -6.91227e-05 -0.00229793)
(1.68916 -0.000142906 -0.00256225)
(1.59183 -0.000265118 -0.00279584)
(1.46183 -0.000488907 -0.00299859)
(1.35269 -0.000532788 -0.00338324)
(1.28007 -0.000205674 -0.00354536)
(1.22945 -0.000490777 -0.00355849)
(1.18118 0.00472593 -0.00354123)
(1.09959 0.0202632 -0.0038075)
(0.787186 0.0847488 -0.00521026)
(-0.167426 0.511618 -0.0103532)
(-0.548067 0.64516 -0.0114604)
(-0.375156 0.592321 -0.0112915)
(-0.205688 0.575012 -0.011229)
(-0.237914 0.613432 -0.0115952)
(-0.0966929 0.637166 -0.0118334)
(-0.165575 0.65131 -0.0123233)
(0.104835 0.697732 -0.0109487)
(1.81379 -9.30244e-07 -0.00219717)
(1.83717 -1.76836e-06 -0.0020088)
(1.83345 -1.35995e-06 -0.00202165)
(1.82803 5.26258e-07 -0.00204159)
(1.8197 4.14297e-06 -0.00206425)
(1.80693 1.00383e-05 -0.00211149)
(1.78606 2.19541e-05 -0.00217822)
(1.74926 3.6824e-05 -0.00229787)
(1.68911 4.26986e-05 -0.00256234)
(1.59173 3.67568e-05 -0.00279538)
(1.46175 -3.63917e-05 -0.0029984)
(1.3528 4.65766e-05 -0.00338491)
(1.28002 7.37049e-05 -0.00354215)
(1.23138 -0.000107917 -0.00355389)
(1.18932 0.00340159 -0.00349066)
(1.12895 0.0144724 -0.00364989)
(0.952646 0.0568892 -0.0044929)
(0.182985 0.340611 -0.00809309)
(-0.471848 0.730453 -0.0116985)
(-0.376465 0.666324 -0.0111358)
(-0.161276 0.645127 -0.011061)
(-0.169066 0.680506 -0.0112131)
(-0.0338547 0.74449 -0.0114655)
(-0.0975686 0.802407 -0.0120357)
(0.133672 0.906679 -0.010525)
(1.81379 1.84631e-06 -2.7125e-09)
(1.83718 4.28768e-06 1.85517e-09)
(1.83346 7.63065e-06 2.50207e-09)
(1.82804 1.22807e-05 4.17458e-09)
(1.81972 1.89003e-05 7.39009e-09)
(1.80697 2.72543e-05 1.48932e-08)
(1.78613 4.06336e-05 1.7423e-08)
(1.74938 6.13189e-05 5.38838e-08)
(1.68934 8.50165e-05 1.10043e-07)
(1.59206 9.50312e-05 2.35371e-07)
(1.46259 6.8215e-05 2.80321e-07)
(1.3529 5.172e-05 5.64973e-07)
(1.27738 -3.7597e-05 5.81139e-07)
(1.20338 0.000463809 3.85423e-07)
(1.06012 0.00199553 -2.69928e-08)
(0.512162 0.00847744 -1.46204e-06)
(-0.510065 0.0425095 -1.70576e-06)
(-0.714852 0.0380601 1.40445e-06)
(-0.559281 0.039376 7.29437e-07)
(-0.464826 0.0369317 4.0568e-07)
(-0.409252 0.0357427 1.35179e-07)
(-0.392879 0.0333771 3.65726e-07)
(-0.242303 0.0307678 3.73993e-07)
(-0.239553 0.0304271 2.93469e-07)
(0.0287763 0.0311611 1.19513e-07)
(1.8138 7.06496e-07 -1.85428e-09)
(1.83718 1.07943e-06 2.78064e-09)
(1.83347 4.79296e-07 3.34133e-09)
(1.82805 -1.4478e-06 4.74091e-09)
(1.81974 -5.19089e-06 7.53659e-09)
(1.80699 -1.25394e-05 1.37582e-08)
(1.78617 -2.89205e-05 1.90038e-08)
(1.74942 -5.34189e-05 5.49658e-08)
(1.68939 -8.91625e-05 1.11106e-07)
(1.59206 -0.000137975 2.0803e-07)
(1.46256 -0.000222229 2.22096e-07)
(1.3528 -0.000230566 4.04353e-07)
(1.27775 -0.000354008 3.30021e-07)
(1.20527 0.00126681 1.92722e-07)
(1.0679 0.00583042 -8.84487e-08)
(0.54702 0.02399 -1.18012e-06)
(-0.482902 0.119726 -2.03714e-06)
(-0.71566 0.109288 1.44237e-06)
(-0.553881 0.104981 7.64875e-07)
(-0.460241 0.0981451 4.50594e-07)
(-0.40308 0.0942266 1.43441e-07)
(-0.390371 0.0895814 3.55602e-07)
(-0.240695 0.0837552 3.78925e-07)
(-0.239396 0.0824605 3.13897e-07)
(0.0299467 0.0836426 1.26887e-07)
(1.8138 8.79987e-07 1.51018e-09)
(1.83718 2.45192e-06 1.44872e-08)
(1.83346 4.33678e-06 1.57923e-08)
(1.82804 6.76532e-06 1.88224e-08)
(1.81972 1.01457e-05 2.56595e-08)
(1.80695 1.4357e-05 3.79054e-08)
(1.7861 2.22687e-05 6.76728e-08)
(1.74931 3.48608e-05 1.27483e-07)
(1.6892 5.32826e-05 2.39884e-07)
(1.59173 6.75255e-05 2.92787e-07)
(1.46207 7.61921e-05 2.43739e-07)
(1.35206 4.86403e-05 2.40758e-07)
(1.27782 -5.48013e-05 7.54217e-08)
(1.2081 0.00211096 -7.51228e-08)
(1.08131 0.0087002 -3.77348e-07)
(0.60951 0.0355115 -1.30063e-06)
(-0.42489 0.194612 -2.26151e-06)
(-0.713664 0.189408 1.05989e-06)
(-0.547804 0.1776 6.70913e-07)
(-0.452264 0.165759 4.392e-07)
(-0.392402 0.159482 1.21323e-07)
(-0.385322 0.15363 3.39886e-07)
(-0.237683 0.144392 3.79874e-07)
(-0.239093 0.142005 3.06837e-07)
(0.0326098 0.14361 1.42291e-07)
(1.8138 8.04452e-08 1.0783e-10)
(1.83719 3.38853e-07 1.13888e-08)
(1.83347 6.54585e-07 1.23322e-08)
(1.82806 1.0557e-06 1.43732e-08)
(1.81975 1.6178e-06 1.87916e-08)
(1.807 2.46379e-06 2.64024e-08)
(1.78619 3.95476e-06 5.38387e-08)
(1.74945 6.81319e-06 1.00295e-07)
(1.68942 1.32042e-05 1.94078e-07)
(1.59206 2.30899e-05 2.18762e-07)
(1.46252 9.97158e-05 9.23425e-08)
(1.35263 -4.76884e-05 8.39465e-08)
(1.2796 0.000115726 -6.85639e-08)
(1.21334 0.00218878 -1.67975e-07)
(1.10076 0.00969386 -3.69643e-07)
(0.701903 0.0414948 -9.62799e-07)
(-0.321021 0.249372 -2.40547e-06)
(-0.707724 0.272558 9.56257e-07)
(-0.540514 0.250367 5.83852e-07)
(-0.441442 0.233733 3.73268e-07)
(-0.376472 0.226216 9.27988e-08)
(-0.377176 0.221399 3.16177e-07)
(-0.232405 0.208909 3.77659e-07)
(-0.238538 0.205618 3.78635e-07)
(0.0369748 0.207618 1.45644e-07)
(1.8138 -3.47879e-07 1.7378e-08)
(1.83718 -4.41884e-07 3.91262e-08)
(1.83346 -5.99966e-07 4.1131e-08)
(1.82804 -8.67418e-07 4.52967e-08)
(1.81972 -1.27527e-06 5.59062e-08)
(1.80696 -1.28231e-06 6.93502e-08)
(1.7861 -1.30062e-06 1.53359e-07)
(1.74932 1.37551e-06 2.06349e-07)
(1.68922 1.11609e-05 3.14163e-07)
(1.59181 3.05904e-05 2.7366e-07)
(1.46201 0.000160617 -7.36296e-08)
(1.35209 -5.31496e-05 -3.18825e-09)
(1.2799 0.000368209 -1.11165e-07)
(1.21699 0.00157795 -2.19733e-07)
(1.12004 0.00924495 -4.69391e-07)
(0.807231 0.0424481 -1.35725e-06)
(-0.172478 0.272075 -4.86693e-06)
(-0.688682 0.360996 2.06324e-06)
(-0.53721 0.324087 5.05074e-07)
(-0.429054 0.302579 3.26807e-07)
(-0.354803 0.2939 8.24386e-08)
(-0.364901 0.293287 2.92195e-07)
(-0.222711 0.278091 3.84601e-07)
(-0.237107 0.274145 4.09604e-07)
(0.0429263 0.277205 1.52714e-07)
(1.8138 -3.70996e-07 4.41633e-09)
(1.83719 -6.63087e-08 2.27146e-08)
(1.83347 1.34954e-06 2.41452e-08)
(1.82806 4.2948e-06 2.70729e-08)
(1.81975 9.39365e-06 3.38447e-08)
(1.807 1.8267e-05 4.56265e-08)
(1.78619 3.69812e-05 8.21232e-08)
(1.74946 6.79564e-05 1.13326e-07)
(1.68944 0.000113745 1.84661e-07)
(1.59222 0.00016532 1.50763e-07)
(1.46247 0.000306043 -1.72975e-07)
(1.35289 0.000122027 -1.44066e-07)
(1.28118 0.000600915 -2.24924e-07)
(1.22164 0.000502333 -2.44234e-07)
(1.14076 0.00810303 -3.62671e-07)
(0.914936 0.0393587 -9.80826e-07)
(0.0482179 0.245214 -4.09905e-06)
(-0.644832 0.453419 1.37668e-06)
(-0.540875 0.396909 3.16937e-07)
(-0.415587 0.372472 2.94694e-07)
(-0.326953 0.362841 1.68306e-07)
(-0.347215 0.37023 2.70538e-07)
(-0.206667 0.354139 4.03617e-07)
(-0.233319 0.350257 4.36505e-07)
(0.0512911 0.356278 1.40464e-07)
(1.81379 1.63558e-07 1.82367e-08)
(1.83718 -6.41328e-08 4.43716e-08)
(1.83346 -5.78436e-07 4.68268e-08)
(1.82804 -1.37293e-06 5.12052e-08)
(1.81973 -2.44821e-06 6.34211e-08)
(1.80697 -3.89593e-06 7.16691e-08)
(1.78614 -6.09191e-06 1.85795e-07)
(1.7494 -1.09439e-05 3.08007e-07)
(1.68937 -2.19895e-05 5.62364e-07)
(1.59221 -4.42122e-05 6.05065e-07)
(1.46241 -4.11307e-05 4.13183e-07)
(1.35311 -0.000135414 7.44216e-07)
(1.28122 0.000308079 5.49163e-07)
(1.22504 -0.000484815 3.31777e-07)
(1.15812 0.00689221 1.56793e-07)
(0.999962 0.0329178 -2.34008e-07)
(0.307195 0.179658 -6.73403e-07)
(-0.557764 0.532424 -7.52151e-07)
(-0.55348 0.471658 4.33175e-07)
(-0.400125 0.444293 3.89892e-07)
(-0.291763 0.432404 2.91659e-07)
(-0.322366 0.451289 2.16784e-07)
(-0.18223 0.439136 4.42222e-07)
(-0.224668 0.436349 4.46362e-07)
(0.0625255 0.449556 1.29249e-07)
(1.8138 1.85113e-06 1.33111e-08)
(1.83719 4.01858e-06 3.09016e-08)
(1.83347 6.71319e-06 3.26517e-08)
(1.82806 1.028e-05 3.57282e-08)
(1.81974 1.52445e-05 4.34467e-08)
(1.807 2.06326e-05 4.7406e-08)
(1.78618 3.13644e-05 1.35423e-07)
(1.74944 4.2984e-05 1.42056e-07)
(1.68939 4.66331e-05 1.28471e-07)
(1.59217 1.56382e-05 1.46097e-07)
(1.46227 -9.59918e-05 -2.663e-07)
(1.35309 -0.000132761 5.08983e-07)
(1.2807 0.000126132 7.56549e-07)
(1.22762 -0.000589238 6.55334e-07)
(1.1714 0.00571779 5.49678e-07)
(1.05877 0.0257286 1.70819e-07)
(0.563335 0.118466 -9.17461e-07)
(-0.410042 0.568614 -2.25859e-06)
(-0.564227 0.552998 9.92542e-07)
(-0.385418 0.51798 5.01566e-07)
(-0.25059 0.503029 4.03107e-07)
(-0.287188 0.533783 1.91244e-07)
(-0.146119 0.533897 5.06808e-07)
(-0.20539 0.535628 3.89173e-07)
(0.0789412 0.564748 1.41435e-07)
(1.8138 2.09223e-07 2.22898e-08)
(1.83718 6.71611e-07 5.36894e-08)
(1.83347 1.18997e-06 5.70296e-08)
(1.82805 1.75599e-06 6.33909e-08)
(1.81974 2.38115e-06 7.9893e-08)
(1.80699 2.06519e-06 9.43992e-08)
(1.78616 4.15707e-06 2.27717e-07)
(1.74941 5.73588e-06 3.66191e-07)
(1.68934 3.2507e-06 6.25831e-07)
(1.59205 -2.02982e-05 7.54714e-07)
(1.46217 -0.000116925 5.57909e-07)
(1.35314 -0.000140219 1.21263e-06)
(1.28058 0.000108679 9.7248e-07)
(1.23001 -0.000303621 6.50229e-07)
(1.18175 0.00480037 4.43714e-07)
(1.10009 0.0202546 3.13979e-08)
(0.787523 0.0847018 -9.82846e-07)
(-0.167359 0.511723 -3.36205e-06)
(-0.54805 0.645105 9.13041e-07)
(-0.375113 0.592292 5.05891e-07)
(-0.205677 0.575028 4.5443e-07)
(-0.237901 0.613447 1.80425e-07)
(-0.0967565 0.637143 5.46281e-07)
(-0.165576 0.651307 4.00688e-07)
(0.104776 0.697795 1.40337e-07)
(1.8138 5.26922e-08 4.07642e-09)
(1.83719 2.43526e-07 2.6912e-08)
(1.83347 4.57938e-07 2.93652e-08)
(1.82806 7.34313e-07 3.39955e-08)
(1.81974 1.20016e-06 4.5827e-08)
(1.807 1.79173e-06 5.52427e-08)
(1.78618 2.73395e-06 1.39686e-07)
(1.74944 5.26483e-06 3.13028e-07)
(1.68937 4.53003e-06 6.24323e-07)
(1.59206 -3.54587e-06 7.69188e-07)
(1.46215 -6.59681e-05 8.29906e-07)
(1.35326 1.02488e-05 1.02442e-06)
(1.28049 9.44705e-05 6.34616e-07)
(1.23188 -3.98278e-06 2.96809e-07)
(1.18982 0.00357165 1.55885e-07)
(1.1294 0.0146725 -1.72931e-07)
(0.953017 0.0570861 -8.42791e-07)
(0.183224 0.340807 -2.16134e-06)
(-0.471838 0.730434 -2.31406e-07)
(-0.376388 0.666304 4.34228e-07)
(-0.161242 0.645149 4.69219e-07)
(-0.169063 0.680544 1.51631e-07)
(-0.0339158 0.74447 5.57267e-07)
(-0.0975691 0.802405 4.36698e-07)
(0.133632 0.906735 2.03285e-07)
(1.8138 -3.60139e-07 2.22515e-08)
(1.83719 -1.02994e-06 4.65726e-08)
(1.83347 -1.8635e-06 4.86049e-08)
(1.82806 -2.95458e-06 5.26096e-08)
(1.81975 -4.48908e-06 6.26575e-08)
(1.807 -6.53443e-06 7.63689e-08)
(1.78618 -1.05441e-05 1.56945e-07)
(1.74944 -1.73103e-05 1.9328e-07)
(1.68939 -2.6848e-05 2.95892e-07)
(1.59202 -3.16559e-05 1.85294e-07)
(1.46242 -3.30404e-05 -1.77292e-07)
(1.35266 2.89584e-06 -3.32873e-07)
(1.27711 -4.44161e-05 -4.52532e-07)
(1.20313 0.000492094 -4.77192e-07)
(1.05991 0.00205538 -5.70195e-07)
(0.511988 0.00855507 -1.01621e-06)
(-0.510133 0.0425609 -7.50995e-07)
(-0.714851 0.0380538 2.19417e-07)
(-0.559288 0.0393629 4.5224e-08)
(-0.464829 0.036926 -9.4434e-09)
(-0.409261 0.0357395 3.40011e-10)
(-0.392881 0.0333755 1.27732e-07)
(-0.242307 0.0307669 1.54166e-07)
(-0.239554 0.0304265 1.63106e-07)
(0.0287734 0.0311605 1.61908e-07)
(1.8138 -4.34276e-08 7.65546e-09)
(1.83719 -7.14702e-08 2.69519e-08)
(1.83347 -1.12421e-07 2.88675e-08)
(1.82806 -1.40062e-07 3.28899e-08)
(1.81974 -1.12543e-07 4.18716e-08)
(1.807 3.53761e-07 5.4193e-08)
(1.78617 8.63591e-07 1.17667e-07)
(1.74943 2.39695e-06 1.73508e-07)
(1.68938 8.51068e-06 2.90491e-07)
(1.59201 2.66751e-05 2.8132e-07)
(1.46246 4.73116e-05 5.00618e-08)
(1.35265 0.000130292 2.18427e-08)
(1.27757 -1.03825e-05 -1.4733e-07)
(1.20509 0.00153716 -2.26896e-07)
(1.06771 0.00600389 -3.74651e-07)
(0.546771 0.0240874 -8.68849e-07)
(-0.483031 0.119858 -5.21339e-07)
(-0.715649 0.109153 -1.21798e-07)
(-0.553876 0.104937 -1.99915e-09)
(-0.460235 0.0981305 -5.68127e-09)
(-0.403086 0.0942205 3.46064e-09)
(-0.390372 0.0895783 1.25887e-07)
(-0.240699 0.0837529 1.51989e-07)
(-0.239397 0.0824586 1.62445e-07)
(0.0299437 0.0836408 1.59386e-07)
(1.8138 -1.46555e-06 1.99549e-08)
(1.83719 -2.89221e-06 4.00019e-08)
(1.83347 -4.7266e-06 4.20501e-08)
(1.82806 -7.27174e-06 4.55771e-08)
(1.81975 -1.09565e-05 5.59229e-08)
(1.807 -1.55745e-05 6.01239e-08)
(1.78618 -2.25979e-05 1.69839e-07)
(1.74945 -2.79555e-05 2.87738e-07)
(1.68941 -2.40412e-05 4.90249e-07)
(1.59204 -2.21067e-06 5.96619e-07)
(1.46252 5.40762e-05 3.37964e-07)
(1.35259 5.4718e-05 8.11239e-07)
(1.27841 -3.3422e-05 3.85429e-07)
(1.20873 0.00214648 2.50303e-07)
(1.08198 0.00874628 1.53261e-07)
(0.610533 0.0355648 4.27845e-07)
(-0.424044 0.194609 1.7797e-07)
(-0.713671 0.189353 -1.0926e-06)
(-0.54771 0.177573 -1.64237e-07)
(-0.452241 0.165745 -7.52721e-08)
(-0.392405 0.159475 -9.80172e-09)
(-0.385322 0.153626 1.18905e-07)
(-0.237686 0.144389 1.48989e-07)
(-0.239094 0.142002 1.58474e-07)
(0.0326068 0.143607 1.51933e-07)
(1.8138 1.07339e-07 5.00174e-10)
(1.83718 6.35268e-07 1.07724e-08)
(1.83346 1.57524e-06 1.1986e-08)
(1.82805 2.96216e-06 1.4609e-08)
(1.81973 4.84443e-06 2.01798e-08)
(1.80698 7.12274e-06 2.73045e-08)
(1.78616 9.93543e-06 6.74171e-08)
(1.74943 1.59341e-05 1.10095e-07)
(1.68941 2.61524e-05 1.87635e-07)
(1.59211 3.66047e-05 2.64927e-07)
(1.46261 0.000105868 1.99221e-07)
(1.35271 -6.16863e-05 4.10563e-07)
(1.27968 0.000100321 3.46883e-07)
(1.21342 0.00215611 2.86304e-07)
(1.10084 0.00964913 1.88546e-07)
(0.702009 0.0414628 1.95908e-08)
(-0.320881 0.249396 -1.02503e-08)
(-0.707699 0.272564 -7.64374e-07)
(-0.540445 0.250368 -1.92856e-07)
(-0.441416 0.233733 -7.24777e-08)
(-0.37647 0.226214 -1.08798e-08)
(-0.377176 0.221396 1.13408e-07)
(-0.232407 0.208905 1.47667e-07)
(-0.238539 0.205614 1.53458e-07)
(0.0369721 0.207614 1.45989e-07)
(1.8138 1.84369e-06 1.9004e-08)
(1.83719 2.62541e-06 3.71336e-08)
(1.83347 2.50501e-06 3.89683e-08)
(1.82806 1.36171e-06 4.1884e-08)
(1.81975 -1.00004e-06 5.0638e-08)
(1.80701 -6.57325e-06 5.09877e-08)
(1.7862 -2.17874e-05 1.60289e-07)
(1.74947 -5.16561e-05 2.61856e-07)
(1.68945 -0.000107623 4.30373e-07)
(1.59217 -0.000194889 5.3505e-07)
(1.46253 -0.000232842 2.80975e-07)
(1.35275 -0.000504447 8.54817e-07)
(1.28064 -3.44216e-05 5.93583e-07)
(1.21776 0.00130364 5.00688e-07)
(1.12084 0.0090961 3.70185e-07)
(0.808372 0.0423682 4.68258e-07)
(-0.171333 0.271763 2.51301e-06)
(-0.688638 0.36107 -1.91854e-06)
(-0.537109 0.324157 -1.45714e-07)
(-0.42903 0.302602 -2.19723e-08)
(-0.354807 0.293903 -2.06925e-09)
(-0.364904 0.293286 1.12796e-07)
(-0.222714 0.278088 1.50024e-07)
(-0.237108 0.27414 1.53642e-07)
(0.0429238 0.277201 1.4319e-07)
(1.8138 2.20211e-08 3.15258e-09)
(1.83719 -9.47744e-09 1.04647e-08)
(1.83347 -3.41897e-08 1.1163e-08)
(1.82805 -4.20626e-08 1.24684e-08)
(1.81973 -3.37125e-09 1.56224e-08)
(1.80697 2.29413e-07 1.754e-08)
(1.78612 -2.99835e-07 5.64569e-08)
(1.74933 1.14584e-06 6.56433e-08)
(1.68919 4.30372e-06 8.04548e-08)
(1.59174 5.7302e-06 1.07161e-07)
(1.46175 9.11435e-05 -1.00789e-07)
(1.35198 -0.00011354 2.48392e-07)
(1.28016 0.00041088 2.52876e-07)
(1.22062 0.000411753 2.68777e-07)
(1.13975 0.00812494 2.48278e-07)
(0.913778 0.0394647 1.1154e-07)
(0.0466965 0.245363 -3.19991e-07)
(-0.645009 0.453581 -3.26852e-07)
(-0.540892 0.397002 -5.17729e-09)
(-0.415609 0.372499 3.69322e-08)
(-0.326971 0.362848 3.07431e-08)
(-0.347221 0.370231 1.14971e-07)
(-0.206671 0.354137 1.56325e-07)
(-0.233321 0.350253 1.56521e-07)
(0.0512887 0.356273 1.39662e-07)
(1.8138 -2.55986e-06 1.93719e-08)
(1.83719 -4.91726e-06 3.75833e-08)
(1.83347 -6.70577e-06 3.92908e-08)
(1.82806 -8.01591e-06 4.27341e-08)
(1.81975 -9.07753e-06 5.12141e-08)
(1.80701 -8.03605e-06 6.2203e-08)
(1.7862 -2.81968e-06 1.3006e-07)
(1.74948 1.12662e-05 1.50364e-07)
(1.68945 4.39555e-05 2.05271e-07)
(1.59226 0.000105087 1.65516e-07)
(1.46242 0.000254993 -1.20942e-07)
(1.35307 0.000207628 2.73204e-08)
(1.28114 0.000629184 4.69026e-08)
(1.22497 -0.000265979 2.10008e-08)
(1.15806 0.00699624 2.0779e-08)
(0.999872 0.0329452 -5.64234e-08)
(0.306892 0.179823 -8.3112e-07)
(-0.557903 0.532497 1.71876e-07)
(-0.553502 0.471688 2.17985e-07)
(-0.400167 0.444306 8.67103e-08)
(-0.291792 0.432408 7.69881e-08)
(-0.322377 0.451288 1.14647e-07)
(-0.182235 0.439134 1.65413e-07)
(-0.224671 0.436344 1.61413e-07)
(0.062523 0.449552 1.35432e-07)
(1.81379 1.58086e-08 2.63674e-09)
(1.83718 -2.29315e-07 1.19513e-08)
(1.83346 -8.60049e-07 1.26925e-08)
(1.82804 -1.88815e-06 1.4266e-08)
(1.81972 -3.34388e-06 1.77843e-08)
(1.80697 -5.56687e-06 2.45112e-08)
(1.78614 -7.43489e-06 4.04677e-08)
(1.74939 -1.22673e-05 7.08175e-08)
(1.68936 -2.02536e-05 1.39879e-07)
(1.59222 -3.50216e-05 1.22982e-07)
(1.46241 -7.64095e-05 9.17384e-08)
(1.35329 -4.40396e-05 1.47127e-08)
(1.28094 0.000280273 -3.40531e-08)
(1.22786 -0.000399861 -5.92828e-08)
(1.17161 0.0059181 -8.44436e-08)
(1.05892 0.0259154 -1.55545e-07)
(0.563374 0.118645 -4.38504e-07)
(-0.410025 0.56866 -3.24308e-07)
(-0.564214 0.552992 4.05855e-07)
(-0.38544 0.51798 1.56436e-07)
(-0.250617 0.503029 1.23149e-07)
(-0.2872 0.533782 1.09451e-07)
(-0.146126 0.533895 1.7079e-07)
(-0.205394 0.535625 1.66371e-07)
(0.0789386 0.564745 1.2977e-07)
(1.8138 9.85081e-09 6.22305e-09)
(1.83719 3.87645e-08 1.99879e-08)
(1.83347 3.09227e-08 2.16817e-08)
(1.82806 -4.82602e-08 2.57989e-08)
(1.81975 -2.5153e-07 3.46001e-08)
(1.807 -1.30368e-06 5.21577e-08)
(1.78619 -1.29985e-06 8.01456e-08)
(1.74946 -2.40595e-06 1.61412e-07)
(1.68941 -5.59399e-06 3.19134e-07)
(1.59216 -1.96057e-05 3.82527e-07)
(1.46229 -8.56962e-05 4.77115e-07)
(1.35323 -7.95952e-05 2.68742e-07)
(1.28062 0.000188277 5.07094e-08)
(1.23 -0.00021346 -6.82671e-08)
(1.18171 0.00489375 -1.08137e-07)
(1.10002 0.0203441 -1.90657e-07)
(0.787392 0.0847904 -3.9905e-07)
(-0.167483 0.51184 -1.13021e-06)
(-0.548054 0.645098 5.90738e-07)
(-0.375133 0.592287 2.14831e-07)
(-0.205701 0.575028 1.49377e-07)
(-0.237914 0.613446 9.47561e-08)
(-0.0967634 0.637141 1.74991e-07)
(-0.165581 0.651304 1.68449e-07)
(0.104773 0.697793 1.24128e-07)
(1.81379 -3.83595e-09 2.0821e-09)
(1.83718 2.87834e-07 8.79509e-09)
(1.83346 9.28746e-07 9.64892e-09)
(1.82804 1.90853e-06 1.17447e-08)
(1.81972 3.26998e-06 1.6064e-08)
(1.80697 4.58668e-06 2.60743e-08)
(1.78614 6.17939e-06 2.84736e-08)
(1.74939 1.09389e-05 8.09557e-08)
(1.68935 1.29844e-05 1.76255e-07)
(1.59214 3.2244e-06 2.16907e-07)
(1.46234 -7.37694e-05 3.7657e-07)
(1.3535 -2.782e-05 2.86383e-07)
(1.28076 2.92766e-05 1.34064e-07)
(1.23213 -8.39239e-05 4.73056e-08)
(1.19003 0.00348829 1.05129e-08)
(1.12955 0.0145969 -5.39101e-08)
(0.953091 0.0570306 -1.85354e-07)
(0.183209 0.340832 -7.06177e-07)
(-0.471848 0.730413 2.51403e-07)
(-0.376395 0.666297 2.40721e-07)
(-0.161261 0.645153 1.51663e-07)
(-0.169077 0.680546 6.76244e-08)
(-0.0339231 0.744469 1.70184e-07)
(-0.0975748 0.802403 1.63356e-07)
(0.13363 0.906734 1.25572e-07)
(1.8138 1.42055e-09 4.13026e-09)
(1.83719 -4.72298e-09 1.22983e-08)
(1.83347 -1.45448e-08 1.34297e-08)
(1.82806 -2.75479e-08 1.62438e-08)
(1.81975 -4.40969e-08 2.16848e-08)
(1.80701 -8.94938e-08 3.46467e-08)
(1.78619 -1.40964e-07 3.93343e-08)
(1.74946 -1.21917e-07 8.0708e-08)
(1.68942 -1.40557e-07 1.67908e-07)
(1.59207 3.48821e-07 2.20122e-07)
(1.46248 -6.52767e-06 3.79775e-07)
(1.35269 1.72493e-05 2.30494e-07)
(1.27712 -3.92644e-05 7.79348e-08)
(1.20313 0.00049001 2.59943e-08)
(1.05989 0.00204672 -4.81578e-08)
(0.51191 0.00854779 -1.11994e-07)
(-0.510171 0.0425725 5.13516e-08)
(-0.714837 0.0380449 6.64134e-09)
(-0.559307 0.0393604 1.96982e-08)
(-0.464843 0.0369266 4.38128e-09)
(-0.409277 0.0357401 -9.90649e-08)
(-0.392889 0.0333759 -2.60647e-08)
(-0.242314 0.0307672 3.64779e-08)
(-0.239557 0.0304268 1.12485e-07)
(0.0287704 0.0311607 1.6977e-07)
(1.8138 1.12087e-09 6.85726e-09)
(1.83719 -5.97271e-09 1.86389e-08)
(1.83347 -1.67375e-08 2.0035e-08)
(1.82806 -3.14206e-08 2.34186e-08)
(1.81975 -5.2119e-08 3.03624e-08)
(1.80701 -1.252e-07 4.53967e-08)
(1.78619 -3.24075e-08 6.29893e-08)
(1.74946 -1.9601e-07 1.06845e-07)
(1.68942 -5.71537e-07 2.08198e-07)
(1.59206 1.08177e-06 2.1423e-07)
(1.46249 -1.37338e-05 2.50019e-07)
(1.35266 4.32632e-05 3.69689e-08)
(1.27756 -0.000109455 -9.96565e-08)
(1.20507 0.00143807 -9.83987e-08)
(1.06769 0.00591733 -1.03534e-07)
(0.546741 0.0240312 -3.59282e-08)
(-0.48304 0.119861 9.4229e-08)
(-0.715642 0.109141 2.28407e-08)
(-0.553887 0.104935 5.97331e-10)
(-0.460246 0.0981315 -2.26456e-08)
(-0.403103 0.0942219 -8.27379e-08)
(-0.39038 0.0895795 -7.62719e-10)
(-0.240706 0.0837538 3.7178e-08)
(-0.2394 0.0824594 8.26052e-08)
(0.0299406 0.0836414 1.57928e-07)
(1.8138 -1.18572e-09 2.9634e-09)
(1.83719 -5.67011e-09 1.04697e-08)
(1.83347 -9.63446e-09 1.1061e-08)
(1.82806 -1.44756e-08 1.2293e-08)
(1.81975 -2.36032e-08 1.50929e-08)
(1.80701 -6.67681e-08 2.00172e-08)
(1.78619 2.28415e-07 3.6605e-08)
(1.74946 -1.30437e-07 5.1053e-08)
(1.68943 -7.35617e-07 8.59932e-08)
(1.59205 1.06686e-06 8.89555e-08)
(1.46252 1.30406e-05 2.77776e-08)
(1.35259 5.7501e-06 6.98725e-08)
(1.27841 -7.98344e-05 8.78505e-09)
(1.20874 0.00209737 2.10437e-08)
(1.08199 0.00869577 4.97856e-08)
(0.610502 0.0355148 9.15664e-08)
(-0.424083 0.194569 1.48729e-07)
(-0.713676 0.18936 1.28766e-07)
(-0.54772 0.177575 -1.11795e-08)
(-0.45225 0.165746 -4.44885e-08)
(-0.392422 0.159477 -6.36206e-08)
(-0.385331 0.153628 3.42664e-08)
(-0.237693 0.14439 6.46225e-08)
(-0.239097 0.142003 7.97384e-08)
(0.0326036 0.143608 1.26347e-07)
(1.8138 -8.31392e-10 1.69509e-08)
(1.83719 -5.21103e-09 2.8508e-08)
(1.83347 -7.43011e-09 2.967e-08)
(1.82806 -6.83537e-09 3.19567e-08)
(1.81975 -3.93198e-09 3.77345e-08)
(1.80701 1.33977e-08 4.44128e-08)
(1.78619 2.21387e-07 9.80969e-08)
(1.74946 -7.46041e-08 9.55634e-08)
(1.68943 -1.61763e-07 8.91667e-08)
(1.59207 3.2551e-07 9.67519e-08)
(1.4625 6.44932e-05 -7.99687e-08)
(1.35257 -8.56767e-05 2.52967e-07)
(1.27949 8.86209e-05 3.74424e-07)
(1.21322 0.00215588 3.36908e-07)
(1.10064 0.00965926 2.73654e-07)
(0.701748 0.0414725 9.20965e-08)
(-0.321147 0.249387 -2.95599e-07)
(-0.707736 0.272574 4.81406e-07)
(-0.540479 0.250366 -5.43425e-08)
(-0.44143 0.23373 -8.95175e-08)
(-0.376488 0.226215 -4.07325e-08)
(-0.377184 0.221397 6.7874e-08)
(-0.232414 0.208907 9.27133e-08)
(-0.238543 0.205616 -2.91766e-08)
(0.036969 0.207616 1.104e-07)
(1.8138 2.52764e-10 1.74818e-09)
(1.83719 1.37847e-09 7.42905e-09)
(1.83347 6.92854e-09 8.1361e-09)
(1.82806 2.08445e-08 9.6392e-09)
(1.81975 4.82258e-08 1.25906e-08)
(1.80701 1.77337e-07 1.65468e-08)
(1.78619 -9.90973e-08 3.85499e-08)
(1.74946 4.71356e-08 4.91248e-08)
(1.68943 1.2576e-06 6.6052e-08)
(1.59211 1.40215e-06 1.14563e-07)
(1.46245 9.44665e-05 4.95717e-08)
(1.35263 -0.000138769 2.40457e-07)
(1.28049 0.000282179 2.02516e-07)
(1.21762 0.00150587 1.73914e-07)
(1.1207 0.00918216 1.13936e-07)
(0.808098 0.0423812 -5.90137e-08)
(-0.171656 0.271908 -8.44112e-07)