/*--------------------------------*- C++ -*----------------------------------*\
| =========                 |                                                 |
| \\      /  F ield         | OpenFOAM: The Open Source CFD Toolbox           |
|  \\    /   O peration     | Version:  4.1                                   |
|   \\  /    A nd           | Web:      www.OpenFOAM.org                      |
|    \\/     M anipulation  |                                                 |
\*---------------------------------------------------------------------------*/
FoamFile
{
    version     2.0;
    format      ascii;
    class       volScalarField;
    location    "0.14";
    object      Ma;
}
// * * * * * * * * * * * * * * * * * * * * * * * * * * * * * * * * * * * * * //

dimensions      [0 0 0 0 0 0 0];

internalField   nonuniform List<scalar> 
18000
(
5.8394e-12
5.77113e-12
5.69319e-12
5.62658e-12
5.56093e-12
5.49615e-12
5.43231e-12
5.36936e-12
5.30731e-12
5.24664e-12
7.36579e-12
7.09597e-12
6.82856e-12
6.58147e-12
6.34537e-12
6.11952e-12
5.90352e-12
5.69674e-12
5.4987e-12
5.3107e-12
9.41583e-12
8.81711e-12
8.25604e-12
7.74421e-12
7.27077e-12
6.83232e-12
6.42612e-12
6.04918e-12
5.69916e-12
5.37577e-12
1.22146e-11
1.10819e-11
1.00687e-11
9.16998e-12
8.36799e-12
7.65046e-12
7.00709e-12
6.42906e-12
5.90861e-12
5.44201e-12
1.61048e-11
1.41037e-11
1.23937e-11
1.09317e-11
9.67571e-12
8.59228e-12
7.65408e-12
6.83882e-12
6.12774e-12
5.5095e-12
2.16209e-11
1.81982e-11
1.54112e-11
1.31264e-11
1.12431e-11
9.68041e-12
8.37609e-12
7.28119e-12
6.35707e-12
5.57793e-12
2.96199e-11
2.38414e-11
1.93755e-11
1.5885e-11
1.31331e-11
1.09425e-11
9.18354e-12
7.7593e-12
6.59722e-12
5.64754e-12
4.15165e-11
3.17643e-11
2.46544e-11
1.93842e-11
1.54259e-11
1.2412e-11
1.00886e-11
8.2768e-12
6.84878e-12
5.7188e-12
1.06127e-09
1.00922e-09
9.41951e-10
8.82963e-10
8.30859e-10
7.84506e-10
7.43007e-10
7.05644e-10
6.71833e-10
6.43502e-10
1.22535e-07
2.30018e-08
1.95483e-08
1.68001e-08
1.45422e-08
1.26646e-08
1.10867e-08
9.74806e-09
8.59135e-09
1.35354e-08
5.91505e-12
5.84373e-12
5.7661e-12
5.69725e-12
5.62962e-12
5.56313e-12
5.49748e-12
5.4331e-12
5.36967e-12
5.30753e-12
7.47891e-12
7.19902e-12
6.93152e-12
6.67674e-12
6.43385e-12
6.20181e-12
5.98041e-12
5.76885e-12
5.56667e-12
5.37355e-12
9.574e-12
8.95681e-12
8.3948e-12
7.8683e-12
7.38221e-12
6.93281e-12
6.51704e-12
6.13177e-12
5.77444e-12
5.4414e-12
1.24446e-11
1.12816e-11
1.02615e-11
9.33647e-12
8.51235e-12
7.77626e-12
7.11726e-12
6.52609e-12
5.99416e-12
5.51131e-12
1.64492e-11
1.43992e-11
1.26673e-11
1.11589e-11
9.86575e-12
8.75219e-12
7.78951e-12
6.95419e-12
6.2265e-12
5.58345e-12
2.21522e-11
1.86466e-11
1.58053e-11
1.34404e-11
1.14959e-11
9.8857e-12
8.54428e-12
7.42012e-12
6.4724e-12
5.65779e-12
3.04618e-11
2.45383e-11
1.9951e-11
1.63235e-11
1.34721e-11
1.12078e-11
9.3935e-12
7.9275e-12
6.73264e-12
5.73454e-12
4.28938e-11
3.28697e-11
2.5507e-11
2.00031e-11
1.58839e-11
1.27566e-11
1.03519e-11
8.48072e-12
7.00827e-12
5.81377e-12
6.35453e-11
4.80146e-11
3.59387e-11
2.73909e-11
2.12777e-11
1.68133e-11
1.34917e-11
1.09786e-11
9.04653e-12
7.50253e-12
6.52258e-08
1.14672e-08
9.88571e-09
8.60627e-09
7.56032e-09
6.69456e-09
5.97e-09
5.35765e-09
4.83573e-09
4.4245e-09
3.95888e-13
3.70482e-13
1.87248e-13
1.66848e-13
1.47711e-13
1.30093e-13
1.14177e-13
1.00292e-13
8.85925e-14
7.13524e-14
5.45037e-13
4.71616e-13
3.98187e-13
3.474e-13
3.0117e-13
2.59737e-13
2.23319e-13
1.92365e-13
1.67179e-13
1.01585e-13
6.16213e-13
5.081e-13
5.39416e-13
4.69175e-13
4.08278e-13
3.56556e-13
3.13471e-13
2.7848e-13
2.50212e-13
1.37361e-13
7.62564e-13
6.63297e-13
7.80395e-13
6.73165e-13
5.82916e-13
5.0794e-13
4.45981e-13
3.95327e-13
3.53014e-13
1.85302e-13
1.0125e-12
9.83652e-13
1.13331e-12
9.60059e-13
8.17938e-13
7.02161e-13
6.07624e-13
5.30446e-13
4.65642e-13
2.37442e-13
1.43383e-12
1.5393e-12
1.64327e-12
1.35599e-12
1.12757e-12
9.46196e-13
8.01126e-13
6.84554e-13
5.88071e-13
2.93225e-13
2.1344e-12
2.43904e-12
2.38024e-12
1.89997e-12
1.53282e-12
1.25064e-12
1.03126e-12
8.59358e-13
7.20654e-13
3.5226e-13
3.30281e-12
3.87116e-12
3.45168e-12
2.64898e-12
2.06283e-12
1.62962e-12
1.3045e-12
1.05736e-12
8.64028e-13
4.145e-13
2.7555e-11
6.12202e-12
4.99376e-12
3.66636e-12
2.74522e-12
2.09402e-12
1.62401e-12
1.27913e-12
1.01837e-12
4.80472e-13
5.84468e-08
2.05102e-10
1.41342e-10
1.06858e-10
8.23032e-11
6.44291e-11
5.11677e-11
4.11613e-11
3.34968e-11
2.73768e-11
3.88219e-13
3.62445e-13
1.72454e-13
1.51051e-13
1.30662e-13
1.11501e-13
9.36551e-14
7.73253e-14
6.28574e-14
3.66876e-14
5.34277e-13
4.60401e-13
3.86547e-13
3.35668e-13
2.89159e-13
2.47365e-13
2.10527e-13
1.78995e-13
1.53164e-13
7.95515e-14
5.96891e-13
4.88582e-13
5.24306e-13
4.54876e-13
3.94807e-13
3.43776e-13
3.01304e-13
2.67062e-13
2.39466e-13
1.20227e-13
7.28961e-13
6.33669e-13
7.61342e-13
6.56472e-13
5.68138e-13
4.94871e-13
4.34414e-13
3.85079e-13
3.43942e-13
1.71586e-13
9.54802e-13
9.42507e-13
1.10859e-12
9.39813e-13
8.01236e-13
6.88266e-13
5.95988e-13
5.20706e-13
4.57494e-13
2.25599e-13
1.33556e-12
1.4832e-12
1.61048e-12
1.33091e-12
1.10818e-12
9.31054e-13
7.89147e-13
6.75048e-13
5.80508e-13
2.82556e-13
1.96689e-12
2.36038e-12
2.33564e-12
1.86837e-12
1.51004e-12
1.23395e-12
1.01888e-12
8.50085e-13
7.13678e-13
3.4252e-13
3.01027e-12
3.75659e-12
3.38965e-12
2.60864e-12
2.0358e-12
1.61126e-12
1.29178e-12
1.04842e-12
8.578e-13
4.05718e-13
2.83192e-11
6.00763e-12
4.93663e-12
3.63304e-12
2.72478e-12
2.08092e-12
1.61524e-12
1.27287e-12
1.01359e-12
4.72139e-13
6.2387e-08
8.65819e-11
7.33224e-12
5.07938e-12
3.65969e-12
2.69626e-12
2.02637e-12
1.54959e-12
1.1998e-12
5.6149e-13
3.88344e-13
3.62233e-13
1.72916e-13
1.51427e-13
1.30981e-13
1.11754e-13
9.39122e-14
7.75469e-14
6.29865e-14
3.68039e-14
5.3493e-13
4.60828e-13
3.87545e-13
3.36507e-13
2.89878e-13
2.47951e-13
2.10997e-13
1.7941e-13
1.53469e-13
7.97503e-14
5.98289e-13
4.89981e-13
5.26103e-13
4.56361e-13
3.95965e-13
3.44757e-13
3.02069e-13
2.67613e-13
2.39844e-13
1.20489e-13
7.31888e-13
6.36819e-13
7.64229e-13
6.58857e-13
5.70033e-13
4.96391e-13
4.35649e-13
3.86008e-13
3.44616e-13
1.71962e-13
9.6049e-13
9.48372e-13
1.11348e-12
9.43688e-13
8.04341e-13
6.90719e-13
5.97898e-13
5.22205e-13
4.58627e-13
2.26384e-13
1.34634e-12
1.49351e-12
1.61868e-12
1.33736e-12
1.11322e-12
9.35046e-13
7.92318e-13
6.77546e-13
5.82467e-13
2.83899e-13
1.98703e-12
2.37859e-12
2.34978e-12
1.87913e-12
1.51836e-12
1.24044e-12
1.02395e-12
8.54045e-13
7.1686e-13
3.4477e-13
3.04783e-12
3.78916e-12
3.41394e-12
2.62667e-12
2.0494e-12
1.62164e-12
1.29978e-12
1.05465e-12
8.62669e-13
4.09175e-13
2.83309e-11
6.06705e-12
4.97889e-12
3.66326e-12
2.74677e-12
2.09726e-12
1.62756e-12
1.28229e-12
1.02093e-12
4.77128e-13
6.29051e-08
8.70014e-11
7.27732e-12
5.04857e-12
3.64247e-12
2.68616e-12
2.0196e-12
1.54518e-12
1.19696e-12
5.55122e-13
3.88411e-13
3.61892e-13
1.73519e-13
1.51933e-13
1.31371e-13
1.12106e-13
9.41763e-14
7.78075e-14
6.32037e-14
3.68977e-14
5.35746e-13
4.61358e-13
3.88832e-13
3.37609e-13
2.90807e-13
2.48712e-13
2.11613e-13
1.79894e-13
1.53876e-13
8.0037e-14
6.00125e-13
4.91814e-13
5.28387e-13
4.58279e-13
3.97548e-13
3.45994e-13
3.03071e-13
2.68331e-13
2.40348e-13
1.20842e-13
7.35698e-13
6.40962e-13
7.68034e-13
6.61926e-13
5.72563e-13
4.98335e-13
4.37122e-13
3.87202e-13
3.45463e-13
1.72553e-13
9.68012e-13
9.56046e-13
1.11981e-12
9.48702e-13
8.08322e-13
6.93926e-13
6.00408e-13
5.24146e-13
4.60146e-13
2.27467e-13
1.36067e-12
1.50715e-12
1.62944e-12
1.34576e-12
1.11978e-12
9.40217e-13
7.96413e-13
6.80745e-13
5.8503e-13
2.85706e-13
2.01389e-12
2.40257e-12
2.36822e-12
1.89323e-12
1.52917e-12
1.24889e-12
1.03057e-12
8.5923e-13
7.20956e-13
3.47661e-13
3.09828e-12
3.83212e-12
3.44583e-12
2.65027e-12
2.06712e-12
1.63513e-12
1.31018e-12
1.06275e-12
8.69e-13
4.13542e-13
2.84426e-11
6.14478e-12
5.0342e-12
3.70265e-12
2.77539e-12
2.11849e-12
1.64353e-12
1.29448e-12
1.03034e-12
4.83616e-13
6.271e-08
8.71676e-11
7.36828e-12
5.11125e-12
3.68667e-12
2.71804e-12
2.04311e-12
1.56287e-12
1.21042e-12
5.64198e-13
3.88502e-13
3.61547e-13
1.74227e-13
1.52555e-13
1.31926e-13
1.12563e-13
9.45569e-14
7.80766e-14
6.3416e-14
3.70743e-14
5.36764e-13
4.62031e-13
3.90411e-13
3.38914e-13
2.91943e-13
2.49717e-13
2.12437e-13
1.80517e-13
1.54246e-13
8.03351e-14
6.02376e-13
4.94045e-13
5.31163e-13
4.60591e-13
3.99446e-13
3.4757e-13
3.0426e-13
2.69212e-13
2.40989e-13
1.21234e-13
7.40387e-13
6.45993e-13
7.72652e-13
6.6568e-13
5.75604e-13
5.00797e-13
4.38983e-13
3.88607e-13
3.46573e-13
1.73285e-13
9.7726e-13
9.65433e-13
1.12751e-12
9.54857e-13
8.13193e-13
6.97829e-13
6.03481e-13
5.26526e-13
4.61997e-13
2.28796e-13
1.37825e-12
1.52367e-12
1.64251e-12
1.35599e-12
1.12785e-12
9.46578e-13
8.01447e-13
6.84684e-13
5.88125e-13
2.87943e-13
2.04693e-12
2.43183e-12
2.39074e-12
1.91045e-12
1.54244e-12
1.2592e-12
1.03869e-12
8.6556e-13
7.25983e-13
3.51276e-13
3.16044e-12
3.88465e-12
3.48497e-12
2.67922e-12
2.08885e-12
1.65166e-12
1.32297e-12
1.07264e-12
8.76715e-13
4.18981e-13
2.89368e-11
6.24054e-12
5.10216e-12
3.75114e-12
2.81067e-12
2.14454e-12
1.66315e-12
1.30943e-12
1.04182e-12
4.91455e-13
6.452e-08
8.93839e-11
7.48319e-12
5.18909e-12
3.74151e-12
2.75757e-12
2.07225e-12
1.58474e-12
1.22695e-12
5.75341e-13
3.886e-13
3.60967e-13
1.74987e-13
1.53191e-13
1.32527e-13
1.1313e-13
9.51091e-14
7.87739e-14
6.70466e-14
7.97392e-14
5.37886e-13
4.6261e-13
3.92071e-13
3.4038e-13
2.93221e-13
2.50839e-13
2.13421e-13
1.81542e-13
1.55821e-13
9.45822e-14
6.04916e-13
4.96269e-13
5.34132e-13
4.631e-13
4.01575e-13
3.49371e-13
3.05814e-13
2.70482e-13
2.42425e-13
1.27935e-13
7.45718e-13
6.51115e-13
7.77542e-13
6.69708e-13
5.78894e-13
5.03545e-13
4.41343e-13
3.90537e-13
3.4842e-13
1.78017e-13
9.87714e-13
9.75061e-13
1.13561e-12
9.61403e-13
8.1848e-13
7.02131e-13
6.07129e-13
5.29581e-13
4.64726e-13
2.33238e-13
1.39793e-12
1.54081e-12
1.6562e-12
1.36683e-12
1.13644e-12
9.5354e-13
8.07271e-13
6.89626e-13
5.92284e-13
2.93015e-13
2.08339e-12
2.46217e-12
2.41413e-12
1.92859e-12
1.55664e-12
1.2705e-12
1.04794e-12
8.73326e-13
7.32284e-13
3.57481e-13
3.22796e-12
3.93853e-12
3.52549e-12
2.70976e-12
2.1121e-12
1.66968e-12
1.3373e-12
1.08451e-12
8.86346e-13
4.27058e-13
2.88352e-11
6.33678e-12
5.17239e-12
3.80209e-12
2.84835e-12
2.17295e-12
1.68502e-12
1.32686e-12
1.05598e-12
5.02157e-13
7.25526e-08
8.61491e-11
7.59179e-12
5.27038e-12
3.79989e-12
2.8005e-12
2.1045e-12
1.60986e-12
1.24702e-12
5.8979e-13
3.87169e-13
3.88712e-13
2.02964e-13
1.60734e-13
1.34975e-13
1.78772e-13
3.05653e-13
9.1419e-13
4.12339e-12
1.49451e-11
5.36973e-13
5.11671e-13
4.2211e-13
3.52294e-13
2.9328e-13
2.75695e-13
3.35e-13
6.85938e-13
2.43852e-12
9.39602e-12
6.04308e-13
5.79936e-13
5.75893e-13
4.83672e-13
4.04258e-13
3.55914e-13
3.88888e-13
5.69571e-13
1.58354e-12
5.88858e-12
7.43389e-13
7.56367e-13
8.23198e-13
6.93602e-13
5.83599e-13
5.02749e-13
4.84195e-13
5.62087e-13
1.13162e-12
3.88699e-12
9.79253e-13
1.07973e-12
1.17695e-12
9.82578e-13
8.21867e-13
6.97301e-13
6.26109e-13
6.34024e-13
9.28936e-13
2.70167e-12
1.37536e-12
1.62233e-12
1.68275e-12
1.3775e-12
1.13314e-12
9.43436e-13
8.12052e-13
7.71439e-13
8.7695e-13
1.97459e-12
2.03359e-12
2.49765e-12
2.41172e-12
1.91865e-12
1.53965e-12
1.25144e-12
1.04174e-12
9.25577e-13
9.18367e-13
1.5198e-12
3.12751e-12
3.89854e-12
3.47415e-12
2.66594e-12
2.07285e-12
1.63668e-12
1.32033e-12
1.11474e-12
1.02632e-12
1.23799e-12
1.85269e-11
6.16411e-12
5.04481e-12
3.70737e-12
2.77611e-12
2.11961e-12
1.65557e-12
1.34002e-12
1.1744e-12
1.07281e-12
3.14472e-08
5.95522e-11
7.26799e-12
5.09957e-12
3.67993e-12
2.71836e-12
2.05772e-12
1.60696e-12
1.33418e-12
9.93795e-13
2.54347e-12
2.40675e-12
1.54526e-12
1.60751e-13
2.6048e-12
8.20422e-12
2.24595e-11
7.0969e-11
3.12438e-10
1.09028e-09
3.5803e-12
3.48007e-12
2.59087e-12
1.19719e-12
1.30327e-12
6.04219e-12
1.71403e-11
5.03773e-11
1.88179e-10
6.27231e-10
4.84619e-12
4.74699e-12
3.77629e-12
2.36872e-12
3.37948e-13
4.02293e-12
1.27741e-11
3.65584e-11
1.22127e-10
3.86187e-10
6.50014e-12
6.32785e-12
5.18338e-12
3.67756e-12
1.51491e-12
2.24684e-12
9.37559e-12
2.70744e-11
8.37693e-11
2.50497e-10
8.69945e-12
8.33361e-12
6.88292e-12
5.16831e-12
2.93589e-12
7.99587e-13
6.59944e-12
2.02134e-11
5.96505e-11
1.69456e-10
1.16805e-11
1.09225e-11
8.97247e-12
6.89755e-12
4.47189e-12
1.35431e-12
4.29375e-12
1.50025e-11
4.36073e-11
1.18628e-10
1.58053e-11
1.43292e-11
1.15853e-11
8.94054e-12
6.16595e-12
2.88771e-12
2.37131e-12
1.10746e-11
3.24539e-11
8.53983e-11
2.16515e-11
1.88977e-11
1.49077e-11
1.13966e-11
8.0681e-12
4.52323e-12
1.21855e-12
7.95925e-12
2.43879e-11
6.28852e-11
3.03755e-11
2.51594e-11
1.92083e-11
1.43957e-11
1.02441e-11
6.25821e-12
2.02575e-12
5.43661e-12
1.83841e-11
4.71528e-11
1.89524e-07
1.24283e-10
2.48465e-11
1.80919e-11
1.27581e-11
8.11535e-12
3.53575e-12
3.42616e-12
1.38576e-11
3.58173e-11
3.45803e-12
3.10918e-12
2.05823e-12
1.91663e-12
8.20834e-12
2.71729e-11
9.60336e-11
4.70438e-10
2.12669e-09
2.83026e-09
4.58973e-12
4.27549e-12
3.26872e-12
1.69531e-12
5.14212e-12
1.90678e-11
6.50376e-11
2.74213e-10
1.14684e-09
1.45588e-09
5.97022e-12
5.63001e-12
4.63283e-12
2.86882e-12
2.77594e-12
1.29014e-11
4.47407e-11
1.71722e-10
6.66649e-10
8.19208e-10
7.74265e-12
7.27393e-12
6.18474e-12
4.42862e-12
1.99654e-12
8.26486e-12
3.10777e-11
1.13051e-10
4.1033e-10
4.92478e-10
1.00759e-11
9.32213e-12
7.99869e-12
6.16066e-12
3.28632e-12
4.73291e-12
2.14492e-11
7.68828e-11
2.64276e-10
3.11753e-10
1.32222e-11
1.19363e-11
1.01776e-11
8.09429e-12
5.1604e-12
2.4979e-12
1.43582e-11
5.32976e-11
1.76492e-10
2.05549e-10
1.75673e-11
1.53505e-11
1.28623e-11
1.03099e-11
7.19913e-12
2.9114e-12
9.10012e-12
3.72665e-11
1.21132e-10
1.39958e-10
2.37224e-11
1.99104e-11
1.62465e-11
1.29158e-11
9.40253e-12
4.88224e-12
5.13831e-12
2.59601e-11
8.48737e-11
9.77695e-11
4.17298e-11
2.61277e-11
2.06033e-11
1.60557e-11
1.18431e-11
7.10338e-12
2.70016e-12
1.77346e-11
6.03154e-11
6.9657e-11
3.24375e-08
1.7104e-09
2.63175e-11
1.98969e-11
1.45989e-11
9.40134e-12
3.23031e-12
1.16276e-11
4.32003e-11
5.01908e-11
1.00253e-12
1.2575e-12
1.53697e-12
3.25837e-12
8.69949e-12
2.59209e-11
8.94519e-11
3.52451e-10
7.18241e-10
5.69829e-10
1.07818e-12
1.2494e-12
1.39139e-12
2.45493e-12
6.15153e-12
1.79123e-11
5.89e-11
2.14749e-10
3.93557e-10
3.28104e-10
1.1563e-12
1.27907e-12
1.36967e-12
1.97305e-12
4.38755e-12
1.24842e-11
3.97366e-11
1.36292e-10
2.28746e-10
1.96875e-10
1.23394e-12
1.33412e-12
1.42391e-12
1.76411e-12
3.22585e-12
8.76638e-12
2.728e-11
8.93468e-11
1.39092e-10
1.24387e-10
1.31369e-12
1.40335e-12
1.51127e-12
1.73016e-12
2.52861e-12
6.22042e-12
1.90012e-11
6.013e-11
8.76911e-11
8.25814e-11
1.39817e-12
1.48236e-12
1.60979e-12
1.78521e-12
2.18598e-12
4.49536e-12
1.3371e-11
4.14054e-11
5.68619e-11
5.73795e-11
1.49097e-12
1.56932e-12
1.7113e-12
1.87718e-12
2.07995e-12
3.38191e-12
9.47024e-12
2.89211e-11
3.7713e-11
4.15308e-11
1.59714e-12
1.66547e-12
1.81435e-12
1.98021e-12
2.10156e-12
2.73811e-12
6.78351e-12
2.04603e-11
2.54622e-11
3.11594e-11
7.73912e-11
1.82236e-12
1.9201e-12
2.08592e-12
2.1802e-12
2.43462e-12
4.95143e-12
1.4627e-11
1.74241e-11
2.41244e-11
5.65068e-08
1.54661e-09
2.2135e-12
2.18777e-12
2.27415e-12
2.33858e-12
3.73428e-12
1.05383e-11
1.19386e-11
1.91144e-11
7.96593e-13
1.51108e-12
1.61068e-12
2.52118e-12
4.15518e-12
7.27293e-12
1.50566e-11
5.05395e-11
3.14733e-10
9.54343e-10
7.31131e-13
1.35755e-12
1.39747e-12
2.15402e-12
3.49155e-12
5.97e-12
1.14825e-11
3.20938e-11
1.87298e-10
5.14494e-10
6.68194e-13
1.21403e-12
1.20373e-12
1.83094e-12
2.92727e-12
4.90873e-12
8.98526e-12
2.17127e-11
1.16026e-10
2.98197e-10
6.14347e-13
1.09201e-12
1.0427e-12
1.56652e-12
2.471e-12
4.07781e-12
7.20196e-12
1.55548e-11
7.44912e-11
1.82765e-10
5.6822e-13
9.87784e-13
9.08142e-13
1.34714e-12
2.09971e-12
3.41922e-12
5.87563e-12
1.16813e-11
4.92956e-11
1.17032e-10
5.28526e-13
8.98537e-13
7.95166e-13
1.16589e-12
1.79679e-12
2.88741e-12
4.86052e-12
9.10075e-12
3.34864e-11
7.76449e-11
4.942e-13
8.21439e-13
7.00028e-13
1.0143e-12
1.54494e-12
2.45408e-12
4.06776e-12
7.28096e-12
2.32766e-11
5.30444e-11
4.65149e-13
7.54486e-13
6.19464e-13
8.86488e-13
1.33599e-12
2.09978e-12
3.43398e-12
5.9483e-12
1.65107e-11
3.71459e-11
1.34657e-10
1.19803e-12
5.50262e-13
7.78799e-13
1.16156e-12
1.8071e-12
2.91981e-12
4.93695e-12
1.19272e-11
2.65725e-11
5.58514e-08
5.37953e-09
6.24835e-12
6.48734e-13
1.01072e-12
1.55689e-12
2.49018e-12
4.13436e-12
8.74417e-12
1.93413e-11
1.07304e-12
1.86642e-12
1.61346e-12
2.17696e-12
3.03533e-12
4.40607e-12
7.0585e-12
1.41533e-11
5.62133e-11
1.20166e-10
9.99539e-13
1.71145e-12
1.44674e-12
1.93972e-12
2.68262e-12
3.83288e-12
5.85973e-12
1.06775e-11
3.96089e-11
7.86542e-11
9.27875e-13
1.56251e-12
1.28589e-12
1.71396e-12
2.3559e-12
3.33169e-12
4.93824e-12
8.31513e-12
2.79783e-11
5.35288e-11
8.65564e-13
1.43293e-12
1.14753e-12
1.51947e-12
2.07718e-12
2.91394e-12
4.23399e-12
6.71408e-12
1.99903e-11
3.75682e-11
8.11415e-13
1.31983e-12
1.02856e-12
1.35252e-12
1.83937e-12
2.56336e-12
3.67509e-12
5.58546e-12
1.44434e-11
2.69874e-11
7.6413e-13
1.22071e-12
9.25749e-13
1.20872e-12
1.63393e-12
2.26463e-12
3.21847e-12
4.75202e-12
1.05456e-11
1.97444e-11
7.22559e-13
1.13335e-12
8.36735e-13
1.08415e-12
1.45663e-12
2.00915e-12
2.83563e-12
4.10786e-12
7.77218e-12
1.46601e-11
6.86751e-13
1.05599e-12
7.59337e-13
9.75948e-13
1.30289e-12
1.78801e-12
2.50948e-12
3.59078e-12
5.77978e-12
1.10212e-11
2.04148e-10
1.98274e-12
6.91346e-13
8.81758e-13
1.16919e-12
1.59594e-12
2.2304e-12
3.16299e-12
4.3358e-12
8.36987e-12
6.85918e-08
9.53883e-09
1.50717e-11
7.44734e-13
1.04921e-12
1.42479e-12
1.9831e-12
2.79308e-12
3.26395e-12
6.39536e-12
1.49599e-12
2.36663e-12
1.62316e-12
1.90634e-12
2.28813e-12
2.83377e-12
3.81423e-12
6.02794e-12
1.69126e-11
2.37023e-11
1.4149e-12
2.21443e-12
1.50698e-12
1.77223e-12
2.12648e-12
2.60701e-12
3.37323e-12
4.93442e-12
1.29047e-11
1.83947e-11
1.3344e-12
2.06339e-12
1.38466e-12
1.62987e-12
1.95711e-12
2.38849e-12
3.01886e-12
4.15491e-12
9.74939e-12
1.42422e-11
1.26322e-12
1.92833e-12
1.27413e-12
1.49989e-12
1.80208e-12
2.1957e-12
2.73915e-12
3.6081e-12
7.38221e-12
1.10945e-11
1.20022e-12
1.80739e-12
1.17503e-12
1.38198e-12
1.66119e-12
2.02308e-12
2.50738e-12
3.20926e-12
5.59835e-12
8.6835e-12
1.14425e-12
1.69868e-12
1.08621e-12
1.27554e-12
1.53247e-12
1.86671e-12
2.30613e-12
2.90202e-12
4.2478e-12
6.82195e-12
1.09437e-12
1.60088e-12
1.0065e-12
1.17919e-12
1.41517e-12
1.72404e-12
2.12855e-12
2.65151e-12
3.2224e-12
5.3732e-12
1.05059e-12
1.51246e-12
9.34952e-13
1.09207e-12
1.30849e-12
1.59371e-12
1.96774e-12
2.43919e-12
2.44109e-12
4.23896e-12
2.77965e-10
2.92819e-12
8.70337e-13
1.01327e-12
1.21138e-12
1.47453e-12
1.82109e-12
2.2525e-12
1.84504e-12
3.34523e-12
5.46714e-08
1.32878e-08
2.42722e-11
8.92014e-13
1.11972e-12
1.36183e-12
1.68157e-12
2.07852e-12
1.37896e-12
2.63083e-12
2.12403e-12
3.01359e-12
1.57408e-12
1.60708e-12
1.66874e-12
1.79961e-12
2.14942e-12
2.98361e-12
6.87868e-12
8.33935e-12
2.03748e-12
2.87377e-12
1.51584e-12
1.56432e-12
1.63533e-12
1.74669e-12
1.99302e-12
2.57005e-12
5.57053e-12
6.97733e-12
1.9508e-12
2.73031e-12
1.44102e-12
1.50102e-12
1.58153e-12
1.68691e-12
1.87405e-12
2.27289e-12
4.40114e-12
5.73291e-12
1.87251e-12
2.59791e-12
1.3678e-12
1.43553e-12
1.52353e-12
1.62954e-12
1.78648e-12
2.07245e-12
3.46041e-12
4.71039e-12
1.8018e-12
2.47599e-12
1.2976e-12
1.37038e-12
1.46393e-12
1.57283e-12
1.71581e-12
1.93497e-12
2.70236e-12
3.86816e-12
1.7378e-12
2.36373e-12
1.23121e-12
1.30635e-12
1.40336e-12
1.51563e-12
1.65394e-12
1.83465e-12
2.09072e-12
3.17096e-12
1.67981e-12
2.26029e-12
1.16857e-12
1.24436e-12
1.34289e-12
1.45768e-12
1.59526e-12
1.75562e-12
1.59545e-12
2.59268e-12
1.62788e-12
2.16486e-12
1.10986e-12
1.18501e-12
1.28365e-12
1.39954e-12
1.53727e-12
1.68814e-12
1.19533e-12
2.11206e-12
3.55987e-10
3.95167e-12
1.05487e-12
1.12849e-12
1.22598e-12
1.34189e-12
1.47986e-12
1.62678e-12
8.7346e-13
1.71269e-12
1.49367e-08
1.54541e-08
5.34799e-11
1.02151e-12
1.16699e-12
1.28211e-12
1.41865e-12
1.56307e-12
6.03599e-13
1.37836e-12
2.9963e-12
3.75966e-12
1.39276e-12
1.21537e-12
1.0691e-12
1.00299e-12
1.13754e-12
1.55217e-12
3.4531e-12
3.81792e-12
2.90945e-12
3.64722e-12
1.39535e-12
1.25e-12
1.12238e-12
1.0366e-12
1.0804e-12
1.35133e-12
2.96246e-12
3.39763e-12
2.82214e-12
3.52754e-12
1.37513e-12
1.25921e-12
1.15345e-12
1.06675e-12
1.05743e-12
1.21213e-12
2.44213e-12
2.9262e-12
2.74148e-12
3.41304e-12
1.34744e-12
1.25627e-12
1.1715e-12
1.09312e-12
1.0582e-12
1.13052e-12
1.99599e-12
2.51537e-12
2.66706e-12
3.30428e-12
1.31554e-12
1.24524e-12
1.17965e-12
1.11372e-12
1.07027e-12
1.09082e-12
1.61386e-12
2.15734e-12
2.5985e-12
3.20125e-12
1.28074e-12
1.22799e-12
1.17952e-12
1.12744e-12
1.08561e-12
1.07706e-12
1.28608e-12
1.84556e-12
2.53524e-12
3.10392e-12
1.24445e-12
1.20637e-12
1.17275e-12
1.13442e-12
1.09968e-12
1.07731e-12
1.00556e-12
1.57428e-12
2.47769e-12
3.01208e-12
1.20762e-12
1.18176e-12
1.16083e-12
1.13517e-12
1.1097e-12
1.08389e-12
7.65816e-13
1.33932e-12
4.38194e-10
4.93304e-12
1.17092e-12
1.15513e-12
1.14501e-12
1.13081e-12
1.11525e-12
1.09229e-12
5.62323e-13
1.13725e-12
3.06485e-08
1.48729e-08
5.3514e-11
1.08156e-12
1.12333e-12
1.11963e-12
1.1132e-12
1.09582e-12
3.84309e-13
9.67296e-13
4.06909e-12
4.49434e-12
1.06662e-12
7.60192e-13
4.95132e-13
3.48663e-13
4.86552e-13
7.96497e-13
2.08407e-12
2.1056e-12
3.98813e-12
4.42342e-12
1.11305e-12
8.42792e-13
6.00754e-13
4.19072e-13
4.30303e-13
6.56297e-13
1.91629e-12
1.99807e-12
3.90794e-12
4.34518e-12
1.13693e-12
9.01284e-13
6.8494e-13
4.98996e-13
4.26795e-13
5.52652e-13
1.66963e-12
1.80256e-12
3.83209e-12
4.26617e-12
1.14923e-12
9.44061e-13
7.51878e-13
5.7386e-13
4.5937e-13
4.92029e-13
1.44936e-12
1.62562e-12
3.76053e-12
4.18803e-12
1.15335e-12
9.75088e-13
8.05711e-13
6.40717e-13
5.09815e-13
4.73155e-13
1.25339e-12
1.46554e-12
3.69356e-12
4.11133e-12
1.15092e-12
9.96872e-13
8.48561e-13
6.98702e-13
5.65368e-13
4.86037e-13
1.08037e-12
1.32158e-12
3.63068e-12
4.03658e-12
1.14364e-12
1.01098e-12
8.81868e-13
7.47732e-13
6.19565e-13
5.18284e-13
9.29255e-13
1.19308e-12
3.5725e-12
3.96424e-12
1.13262e-12
1.01901e-12
9.07406e-13
7.88548e-13
6.69358e-13
5.59826e-13
7.99209e-13
1.07915e-12
5.14789e-10
5.81142e-12
1.11903e-12
1.02207e-12
9.2666e-13
8.22346e-13
7.13574e-13
6.04248e-13
6.90282e-13
9.79395e-13
8.06118e-08
1.10463e-08
4.989e-11
1.00245e-12
9.38232e-13
8.47945e-13
7.504e-13
6.45315e-13
6.01667e-13
8.98583e-13
5.13619e-12
5.07005e-12
7.52627e-13
4.99011e-13
2.71899e-13
1.53731e-13
2.68058e-13
4.52797e-13
1.49688e-12
1.36134e-12
5.06507e-12
5.04466e-12
7.76325e-13
5.36538e-13
3.10499e-13
1.24652e-13
1.64743e-13
3.48852e-13
1.48794e-12
1.38503e-12
4.99683e-12
5.01494e-12
7.93321e-13
5.72717e-13
3.6018e-13
1.61777e-13
7.73198e-14
2.51156e-13
1.38058e-12
1.31026e-12
4.93087e-12
4.98034e-12
8.07281e-13
6.05928e-13
4.09895e-13
2.196e-13
4.47878e-14
1.61975e-13
1.28267e-12
1.24104e-12
4.86785e-12
4.94286e-12
8.18485e-13
6.36131e-13
4.5712e-13
2.80045e-13
1.07504e-13
8.63147e-14
1.19335e-12
1.17684e-12
4.80767e-12
4.90332e-12
8.26785e-13
6.62439e-13
5.00019e-13
3.36876e-13
1.75645e-13
5.39612e-14
1.11253e-12
1.1179e-12
4.75033e-12
4.86262e-12
8.32254e-13
6.84824e-13
5.38255e-13
3.88786e-13
2.38697e-13
9.7169e-14
1.04021e-12
1.06401e-12
4.69672e-12
4.82155e-12
8.34989e-13
7.03358e-13
5.71645e-13
4.35248e-13
2.9595e-13
1.56492e-13
9.75828e-13
1.0151e-12
5.74988e-10
6.49257e-12
8.35871e-13
7.18557e-13
6.00784e-13
4.76709e-13
3.48129e-13
2.14631e-13
9.19489e-13
9.70955e-13
1.25964e-07
5.80246e-09
3.32517e-11
7.33042e-13
6.25223e-13
5.13267e-13
3.95301e-13
2.69731e-13
8.7108e-13
9.40072e-13
5.8362e-12
5.36941e-12
6.81898e-13
6.09515e-13
5.11017e-13
4.42015e-13
4.00449e-13
3.9075e-13
1.25355e-12
1.04727e-12
5.77212e-12
5.3747e-12
6.10375e-13
5.48859e-13
4.58586e-13
3.94188e-13
3.55108e-13
3.49248e-13
1.31883e-12
1.12781e-12
5.7131e-12
5.37941e-12
5.46841e-13
4.94365e-13
4.11295e-13
3.49886e-13
3.12131e-13
3.07137e-13
1.2764e-12
1.10468e-12
5.65551e-12
5.37779e-12
4.9465e-13
4.48618e-13
3.71261e-13
3.1198e-13
2.73758e-13
2.68347e-13
1.23604e-12
1.0822e-12
5.59984e-12
5.37133e-12
4.5338e-13
4.1181e-13
3.39419e-13
2.81029e-13
2.40858e-13
2.33077e-13
1.19762e-12
1.06086e-12
5.54646e-12
5.36135e-12
4.21634e-13
3.82859e-13
3.14602e-13
2.56676e-13
2.138e-13
2.02026e-13
1.16116e-12
1.04034e-12
5.49488e-12
5.34834e-12
3.97337e-13
3.60564e-13
2.96404e-13
2.3917e-13
1.93318e-13
1.75346e-13
1.12646e-12
1.02087e-12
5.4465e-12
5.33334e-12
3.79393e-13
3.43927e-13
2.83935e-13
2.27653e-13
1.78859e-13
1.54019e-13
1.09368e-12
1.00207e-12
6.08105e-10
6.83226e-12
3.67119e-13
3.32153e-13
2.76293e-13
2.21894e-13
1.71513e-13
1.39139e-13
1.06223e-12
9.8403e-13
1.5394e-07
3.86695e-09
2.33832e-11
3.0574e-13
2.74408e-13
2.23889e-13
1.74985e-13
1.38957e-13
1.03368e-12
9.89846e-13
5.84283e-12
5.33995e-12
6.91925e-13
6.3552e-13
5.40622e-13
4.66585e-13
4.12029e-13
3.83744e-13
1.18329e-12
9.99409e-13
5.77851e-12
5.34746e-12
6.05647e-13
5.65756e-13
4.84143e-13
4.19583e-13
3.71813e-13
3.50122e-13
1.25865e-12
1.08379e-12
5.71971e-12
5.35504e-12
5.27917e-13
5.01562e-13
4.31023e-13
3.74164e-13
3.31777e-13
3.13771e-13
1.2243e-12
1.06427e-12
5.66248e-12
5.35614e-12
4.6145e-13
4.45064e-13
3.83731e-13
3.33254e-13
2.95117e-13
2.80045e-13
1.1914e-12
1.04542e-12
5.60728e-12
5.35252e-12
4.0649e-13
3.97125e-13
3.4308e-13
2.97307e-13
2.62132e-13
2.48794e-13
1.15985e-12
1.02753e-12
5.55423e-12
5.34516e-12
3.61936e-13
3.56901e-13
3.08646e-13
2.66496e-13
2.32999e-13
2.20143e-13
1.1297e-12
1.01045e-12
5.50309e-12
5.33466e-12
3.26529e-13
3.23612e-13
2.80096e-13
2.40616e-13
2.08019e-13
1.94539e-13
1.10077e-12
9.94197e-13
5.45518e-12
5.32208e-12
2.99585e-13
2.96841e-13
2.5711e-13
2.19657e-13
1.87116e-13
1.72121e-13
1.07319e-12
9.78653e-13
6.08106e-10
6.82551e-12
2.80732e-13
2.76014e-13
2.39528e-13
2.03917e-13
1.71372e-13
1.53643e-13
1.04659e-12
9.63773e-13
1.5394e-07
3.86695e-09
2.33602e-11
2.30857e-13
2.28944e-13
1.96659e-13
1.65856e-13
1.47097e-13
1.02227e-12
9.8217e-13
5.14679e-12
4.99005e-12
7.16315e-13
5.15505e-13
3.32995e-13
2.28795e-13
2.63204e-13
3.89637e-13
1.25501e-12
1.20391e-12
5.07728e-12
4.97312e-12
7.15677e-13
5.2198e-13
3.35729e-13
1.9497e-13
1.83135e-13
3.04419e-13
1.27971e-12
1.23979e-12
5.01107e-12
4.95232e-12
7.17825e-13
5.36351e-13
3.56391e-13
1.97677e-13
1.19084e-13
2.19935e-13
1.20149e-12
1.17793e-12
4.94721e-12
4.9263e-12
7.22251e-13
5.54131e-13
3.84861e-13
2.24272e-13
9.02658e-14
1.41191e-13
1.12998e-12
1.12091e-12
4.88602e-12
4.897e-12
7.28091e-13
5.73771e-13
4.17095e-13
2.63281e-13
1.14098e-13
7.02657e-14
1.06492e-12
1.06871e-12
4.82749e-12
4.86504e-12
7.33972e-13
5.93352e-13
4.49815e-13
3.05852e-13
1.61277e-13
2.82814e-14
1.00652e-12
1.02137e-12
4.77173e-12
4.83151e-12
7.3901e-13
6.11564e-13
4.81048e-13
3.47884e-13
2.12204e-13
7.31191e-14
9.54403e-13
9.78664e-13
4.71959e-12
4.79691e-12
7.42816e-13
6.27951e-13
5.09929e-13
3.87507e-13
2.61332e-13
1.2945e-13
9.08314e-13
9.40442e-13
5.7499e-10
6.48013e-12
7.45639e-13
6.42321e-13
5.36159e-13
4.24355e-13
3.07524e-13
1.83352e-13
8.6832e-13
9.06776e-13
1.25964e-07
5.80246e-09
3.32101e-11
6.55383e-13
5.59027e-13
4.5776e-13
3.50594e-13
2.35185e-13
8.34645e-13
8.96364e-13
4.07582e-12
4.39247e-12
9.43415e-13
6.54492e-13
3.94354e-13
2.16757e-13
3.33975e-13
6.09515e-13
1.54933e-12
1.76663e-12
4.00089e-12
4.33793e-12
9.91318e-13
7.33381e-13
4.98232e-13
3.05714e-13
2.92378e-13
4.96401e-13
1.45945e-12
1.69206e-12
3.92618e-12
4.27469e-12
1.02112e-12
7.93998e-13
5.83958e-13
3.96607e-13
3.05144e-13
4.1101e-13
1.28091e-12
1.52927e-12
3.85466e-12
4.2092e-12
1.04048e-12
8.40521e-13
6.53251e-13
4.7712e-13
3.51779e-13
3.65154e-13
1.12064e-12
1.38192e-12
3.78697e-12
4.14314e-12
1.05227e-12
8.76807e-13
7.10367e-13
5.47907e-13
4.12167e-13
3.59863e-13
9.78155e-13
1.24935e-12
3.72301e-12
4.0772e-12
1.05764e-12
9.04095e-13
7.57102e-13
6.09372e-13
4.7436e-13
3.84453e-13
8.53097e-13
1.13103e-12
3.66266e-12
4.01205e-12
1.05804e-12
9.24195e-13
7.94882e-13
6.61791e-13
5.33023e-13
4.25794e-13
7.45042e-13
1.02631e-12
3.60662e-12
3.94825e-12
1.05417e-12
9.38174e-13
8.25234e-13
7.06299e-13
5.86524e-13
4.73799e-13
6.54463e-13
9.34726e-13
5.14792e-10
5.80816e-12
1.04738e-12
9.47345e-13
8.49303e-13
7.43863e-13
6.34214e-13
5.22881e-13
5.81391e-13
8.56132e-13
8.06118e-08
1.10463e-08
4.98592e-11
9.35286e-13
8.65933e-13
7.73482e-13
6.74417e-13
5.67978e-13
5.25794e-13
7.99417e-13
3.00454e-12
3.66916e-12
1.23438e-12
1.03755e-12
8.777e-13
7.88954e-13
8.6567e-13
1.16686e-12
2.28265e-12
3.05249e-12
2.92723e-12
3.57922e-12
1.2581e-12
1.09138e-12
9.48597e-13
8.45859e-13
8.50964e-13
1.03977e-12
1.99452e-12
2.73873e-12
2.84724e-12
3.47833e-12
1.25754e-12
1.11937e-12
9.97305e-13
8.95665e-13
8.58936e-13
9.54776e-13
1.64616e-12
2.35971e-12
2.77218e-12
3.37964e-12
1.24729e-12
1.13361e-12
1.03138e-12
9.38297e-13
8.82251e-13
9.13245e-13
1.34183e-12
2.02819e-12
2.70195e-12
3.28398e-12
1.23057e-12
1.13826e-12
1.05436e-12
9.73209e-13
9.12235e-13
9.02492e-13
1.07797e-12
1.73853e-12
2.63655e-12
3.19208e-12
1.20928e-12
1.13522e-12
1.06805e-12
1.00015e-12
9.42288e-13
9.10242e-13
8.48996e-13
1.48597e-12
2.57568e-12
3.10398e-12
1.18469e-12
1.1264e-12
1.07411e-12
1.01926e-12
9.68588e-13
9.27194e-13
6.50628e-13
1.26676e-12
2.51982e-12
3.01999e-12
1.15799e-12
1.11319e-12
1.07404e-12
1.03155e-12
9.89881e-13
9.474e-13
4.79551e-13
1.07775e-12
4.38198e-10
4.94476e-12
1.13003e-12
1.09682e-12
1.06905e-12
1.03804e-12
1.00614e-12
9.67304e-13
3.34813e-13
9.16461e-13
3.06485e-08
1.48729e-08
5.34938e-11
1.03557e-12
1.0573e-12
1.03707e-12
1.01417e-12
9.8132e-13
2.0653e-13
7.8405e-13
2.14433e-12
2.95576e-12
1.41859e-12
1.38831e-12
1.39024e-12
1.44726e-12
1.64902e-12
2.14897e-12
3.96872e-12
6.2462e-12
2.06718e-12
2.84052e-12
1.39338e-12
1.38321e-12
1.39781e-12
1.44636e-12
1.58688e-12
1.93208e-12
3.28958e-12
5.27863e-12
1.98657e-12
2.71547e-12
1.34598e-12
1.35251e-12
1.37988e-12
1.4293e-12
1.53597e-12
1.77345e-12
2.62148e-12
4.35057e-12
1.91235e-12
2.59756e-12
1.29522e-12
1.31458e-12
1.35307e-12
1.4077e-12
1.49935e-12
1.66947e-12
2.07278e-12
3.58093e-12
1.8445e-12
2.48702e-12
1.24344e-12
1.27282e-12
1.32061e-12
1.38161e-12
1.46906e-12
1.60061e-12
1.62388e-12