/*--------------------------------*- C++ -*----------------------------------*\
| =========                 |                                                 |
| \\      /  F ield         | OpenFOAM: The Open Source CFD Toolbox           |
|  \\    /   O peration     | Version:  4.1                                   |
|   \\  /    A nd           | Web:      www.OpenFOAM.org                      |
|    \\/     M anipulation  |                                                 |
\*---------------------------------------------------------------------------*/
FoamFile
{
    version     2.0;
    format      ascii;
    class       surfaceScalarField;
    location    "0.14";
    object      phi;
}
// * * * * * * * * * * * * * * * * * * * * * * * * * * * * * * * * * * * * * //

dimensions      [1 0 -1 0 0 0 0];

internalField   nonuniform List<scalar> 
51500
(
3.70902e-13
9.19816e-15
1.57213e-11
-2.18125e-15
1.67612e-14
1.55371e-11
-1.97172e-15
1.61655e-14
1.53557e-11
-1.97984e-15
1.5378e-14
1.51762e-11
-1.94235e-15
1.44925e-14
1.49993e-11
-1.92627e-15
1.35437e-14
1.48247e-11
-1.92228e-15
1.25495e-14
1.46526e-11
-1.90065e-15
1.15267e-14
1.44828e-11
-1.86643e-15
1.04735e-14
1.43155e-11
9.39512e-15
1.41518e-11
-7.35089e-17
3.77372e-13
6.37579e-15
1.98433e-11
-9.10951e-15
9.42519e-15
1.91153e-11
-7.52362e-15
8.09053e-15
1.84194e-11
-7.37098e-15
6.81725e-15
1.77529e-11
-7.17011e-15
5.6301e-15
1.71161e-11
-6.9941e-15
4.51788e-15
1.65068e-11
-6.81566e-15
3.46968e-15
1.59242e-11
-6.64671e-15
2.486e-15
1.53663e-11
-6.35991e-15
1.55782e-15
1.48321e-11
6.90066e-16
1.43248e-11
-7.18176e-16
3.82269e-13
7.93163e-15
2.53789e-11
-1.82029e-14
8.90068e-15
2.37641e-11
-1.46491e-14
7.41587e-15
2.22722e-11
-1.40281e-14
6.07364e-15
2.08913e-11
-1.34076e-14
4.86345e-15
1.96139e-11
-1.28633e-14
3.76775e-15
1.8431e-11
-1.23239e-14
2.78034e-15
1.7335e-11
-1.18329e-14
1.88692e-15
1.6318e-11
-1.11032e-14
1.08616e-15
1.53736e-11
3.93223e-16
1.45008e-11
-1.3932e-15
3.84399e-13
1.00459e-14
3.29359e-11
-3.02825e-14
1.06294e-14
2.9881e-11
-2.37784e-14
8.64205e-15
2.71648e-11
-2.22769e-14
6.91414e-15
2.47398e-11
-2.08738e-14
5.41666e-15
2.25757e-11
-1.96072e-14
4.1147e-15
2.06396e-11
-1.84493e-14
2.98055e-15
1.89035e-11
-1.73885e-14
1.98855e-15
1.73437e-11
-1.60518e-14
1.12367e-15
1.59394e-11
3.96981e-16
1.46798e-11
-2.12504e-15
3.81353e-13
1.29689e-14
4.34402e-11
-4.63246e-14
1.29102e-14
3.80435e-11
-3.57619e-14
1.01619e-14
3.34418e-11
-3.26408e-14
7.92279e-15
2.94959e-11
-2.98254e-14
6.06268e-15
2.61064e-11
-2.73908e-14
4.50811e-15
2.31825e-11
-2.52745e-14
3.19737e-15
2.06506e-11
-2.33969e-14
2.09358e-15
1.84505e-11
-2.1234e-14
1.16548e-15
1.65315e-11
4.12073e-16
1.48625e-11
-2.87791e-15
3.69047e-13
1.71216e-14
5.83364e-11
-6.98811e-14
1.60132e-14
4.91049e-11
-5.17046e-14
1.21071e-14
4.15896e-11
-4.57745e-14
9.14708e-15
3.54223e-11
-4.06862e-14
6.81756e-15
3.0339e-11
-3.64524e-14
4.94715e-15
2.61211e-11
-3.28974e-14
3.43728e-15
2.26007e-11
-2.98618e-14
2.20724e-15
1.96457e-11
-2.66353e-14
1.20714e-15
1.71516e-11
4.14862e-16
1.50478e-11
-3.69084e-15
3.39526e-13
1.90744e-14
7.99397e-11
-1.23966e-13
1.89713e-14
6.43527e-11
-7.29838e-14
1.42721e-14
5.2296e-11
-6.26476e-14
1.1753e-14
4.28727e-11
-5.39694e-14
1.25369e-14
3.54438e-11
-4.70269e-14
9.5515e-15
2.95303e-11
-4.14357e-14
6.39123e-15
2.47821e-11
-3.68513e-14
3.14654e-15
2.09378e-11
-3.23054e-14
1.81303e-15
1.78011e-11
7.49398e-16
1.52364e-11
-4.52199e-15
2.75397e-13
1.04997e-14
1.12075e-10
-1.86501e-13
8.23601e-15
8.57657e-11
-1.0188e-13
-3.99962e-16
6.65578e-11
-8.44146e-14
-6.44762e-15
5.23265e-11
-7.03986e-14
-1.07728e-14
4.16386e-11
-5.94802e-14
-1.39208e-14
3.3501e-11
-5.10213e-14
-1.62421e-14
2.72279e-11
-4.43792e-14
-1.79848e-14
2.23365e-11
-3.8203e-14
-1.93102e-14
1.84812e-11
-2.05195e-14
1.54287e-11
-5.40605e-15
9.79853e-13
-1.95381e-10
1.59019e-10
4.67764e-13
-2.00032e-10
1.14503e-10
4.28633e-13
-1.99879e-10
8.43635e-11
3.92413e-13
-1.99694e-10
6.34201e-11
3.59141e-13
-1.99503e-10
4.8595e-11
3.29033e-13
-1.99311e-10
3.79133e-11
3.01947e-13
-1.99122e-10
3.00959e-11
2.77658e-13
-1.9894e-10
2.42954e-11
2.55238e-13
-1.98765e-10
1.99371e-11
-1.99342e-10
1.66542e-11
-6.33348e-15
-1.22571e-11
3.5973e-08
-9.07294e-07
7.60764e-11
2.99527e-08
-9.38902e-07
7.34228e-11
2.58193e-08
-9.40487e-07
7.1482e-11
2.2481e-08
-9.41802e-07
6.92715e-11
1.97464e-08
-9.42919e-07
6.69523e-11
1.7479e-08
-9.4388e-07
6.46223e-11
1.55786e-08
-9.44717e-07
6.24343e-11
1.39706e-08
-9.45452e-07
5.55433e-11
1.25983e-08
-9.46107e-07
1.1457e-08
-7.29234e-15
-9.54331e-07
3.44791e-13
9.46295e-14
1.51196e-13
-2.12977e-14
8.88808e-14
1.48203e-13
-2.62908e-14
7.82227e-14
1.45397e-13
-2.58807e-14
6.79141e-14
1.41872e-13
-2.56094e-14
5.79633e-14
1.38725e-13
-2.53555e-14
4.83512e-14
1.3594e-13
-2.518e-14
3.90711e-14
1.32798e-13
-2.49644e-14
3.01088e-14
1.30328e-13
-2.72097e-14
2.14399e-14
1.2781e-13
1.31209e-14
1.25214e-13
-1.558e-15
2.82818e-13
9.06053e-14
2.12905e-13
-7.65659e-14
8.2002e-14
2.01424e-13
-9.00913e-14
6.94062e-14
1.91439e-13
-8.72986e-14
5.74462e-14
1.80115e-13
-8.48217e-14
4.60688e-14
1.69857e-13
-8.23913e-14
3.48943e-14
1.60132e-13
-8.01216e-14
2.2487e-14
1.51329e-13
-7.81341e-14
1.45825e-14
1.43252e-13
-8.32118e-14
8.03672e-15
1.35974e-13
2.64576e-15
1.28349e-13
-4.3624e-15
1.89371e-13
1.14705e-13
3.02995e-13
-1.93911e-13
1.0153e-13
2.76055e-13
-1.72448e-13
8.46127e-14
2.5399e-13
-1.63775e-13
6.92449e-14
2.30019e-13
-1.55872e-13
5.53911e-14
2.08984e-13
-1.4842e-13
4.29041e-14
1.90355e-13
-1.41469e-13
3.1654e-14
1.73665e-13
-1.35197e-13
2.15405e-14
1.58725e-13
-1.41624e-13
1.24518e-14
1.45298e-13
4.32998e-15
1.32506e-13
-7.21949e-15
6.21417e-14
1.41954e-13
4.41842e-13
-3.3384e-13
1.22035e-13
3.87537e-13
-2.79022e-13
9.92303e-14
3.42609e-13
-2.58969e-13
7.93075e-14
2.98195e-13
-2.4112e-13
6.19922e-14
2.6055e-13
-2.24845e-13
4.69647e-14
2.28488e-13
-2.09907e-13
3.39327e-14
2.01077e-13
-1.96676e-13
2.26323e-14
1.77678e-13
-2.02121e-13
1.28266e-14
1.56924e-13
4.38836e-15
1.37465e-13
-1.01802e-14
-7.42915e-14
1.77895e-13
6.61101e-13
-5.13509e-13
1.48203e-13
5.55777e-13
-4.16871e-13
1.17289e-13
4.70123e-13
-3.77586e-13
9.13331e-14
3.91551e-13
-3.4338e-13
6.96568e-14
3.28501e-13
-3.13099e-13
5.15468e-14
2.7691e-13
-2.86141e-13
3.64154e-14
2.34653e-13
-2.62799e-13
2.37745e-14
1.99691e-13
-2.64876e-13
1.32197e-14
1.70682e-13
4.43177e-15
1.43376e-13
-1.32741e-14
-2.97877e-13
2.26077e-13
1.01697e-12
-7.5077e-13
1.82023e-13
8.12745e-13
-5.9569e-13
1.39787e-13
6.54524e-13
-5.254e-13
1.05831e-13
5.2024e-13
-4.66037e-13
7.85888e-14
4.17789e-13
-4.1505e-13
5.67138e-14
3.38145e-13
-3.71036e-13
3.91455e-14
2.75857e-13
-3.3364e-13
2.50025e-14
2.26597e-13
-3.30086e-13
1.36297e-14
1.86973e-13
4.47476e-15
1.50742e-13
-1.63697e-14
-7.30932e-13
2.90899e-13
1.60682e-12
-1.06939e-12
2.25882e-13
1.21657e-12
-8.28082e-13
1.67861e-13
9.2547e-13
-7.09884e-13
1.23222e-13
6.99045e-13
-6.13164e-13
8.89258e-14
5.35987e-13
-5.32654e-13
6.25134e-14
4.15661e-13
-4.65434e-13
4.21012e-14
3.25847e-13
-4.09512e-13
2.63161e-14
2.58333e-13
-3.97823e-13
1.40599e-14
2.05668e-13
4.60635e-15
1.59389e-13
-1.95276e-14
-1.31708e-12
2.80594e-13
2.62187e-12
-1.50241e-12
2.48568e-13
1.86206e-12
-1.13102e-12
1.75692e-13
1.32967e-12
-9.40199e-13
1.23624e-13
9.50887e-13
-7.89408e-13
8.59969e-14
6.93775e-13
-6.68335e-13
5.85108e-14
5.14318e-13
-5.70095e-13
3.82591e-14
3.87318e-13
-4.90894e-13
2.32309e-14
2.95307e-13
-4.6796e-13
1.20172e-14
2.27609e-13
3.66554e-15
1.69095e-13
-2.27765e-14
-2.20138e-12
7.62888e-12
4.53229e-12
-2.08789e-12
2.42965e-12
2.74686e-12
-1.5146e-12
1.77444e-12
1.82047e-12
-1.22097e-12
1.21498e-12
1.22252e-12
-9.97196e-13
7.23687e-13
8.4659e-13
-8.23435e-13
2.87873e-13
6.01924e-13
-6.86832e-13
-1.02021e-13
4.38993e-13
-5.79636e-13
-4.53324e-13
3.28184e-13
-5.44558e-13
-7.71786e-13
2.50401e-13
-1.0522e-12
1.84329e-13
-2.60954e-14
-1.74871e-10
1.44062e-09
2.77029e-08
-9.52444e-11
3.70117e-10
-5.28878e-10
-9.01622e-11
2.7085e-10
-5.20185e-10
-8.47003e-11
2.0424e-10
-5.00493e-10
-7.98595e-11
1.57073e-10
-4.81716e-10
-7.55374e-11
1.22952e-10
-4.64349e-10
-7.16539e-11
9.78025e-11
-4.48529e-10
-6.81451e-11
7.89689e-11
-4.34269e-10
-6.49602e-11
6.46533e-11
-4.21702e-10
5.3206e-11
-2.9579e-14
-3.7218e-10
3.48983e-13
8.14449e-14
1.04613e-14
-1.83022e-14
7.73511e-14
9.02244e-15
-2.06209e-14
6.82639e-14
7.82518e-15
-1.96521e-14
5.94685e-14
6.17934e-15
-1.90144e-14
5.09684e-14
4.71732e-15
-1.93467e-14
4.2735e-14
3.27065e-15
-1.85425e-14
3.4801e-14
2.42607e-15
-1.8839e-14
2.71196e-14
1.71685e-15
-2.3328e-14
1.96945e-14
1.06414e-15
1.25623e-14
9.30834e-16
-1.44242e-15
2.97961e-13
5.83507e-14
1.7229e-14
-6.59612e-14
5.36342e-14
1.50725e-14
-6.86577e-14
4.54296e-14
1.50017e-14
-6.51965e-14
3.76832e-14
1.17995e-14
-6.3413e-14
3.04482e-14
9.14726e-15
-6.07738e-14
2.37426e-14
7.22354e-15
-5.89772e-14
1.75479e-14
5.45845e-15
-5.86088e-14
1.18884e-14
4.08863e-15
-7.12103e-14
6.788e-15
3.4256e-15
2.36396e-15
2.32272e-15
-4.39926e-15
2.20323e-13
7.44119e-14
2.49459e-14
-1.65621e-13
6.71725e-14
2.31569e-14
-1.28895e-13
5.64082e-14
2.4017e-14
-1.18269e-13
4.65783e-14
1.97475e-14
-1.11917e-13
3.76421e-14
1.60594e-14
-1.05771e-13
2.94939e-14
1.2825e-14
-1.00457e-13
2.20513e-14
1.06928e-14
-1.00172e-13
1.53482e-14
8.9414e-15
-1.21064e-13
9.10973e-15
7.52817e-15
3.26457e-15
5.45257e-15
-7.28974e-15
9.84672e-14
9.23816e-14
4.07951e-14
-2.88729e-13
8.08413e-14
4.02908e-14
-1.9916e-13
6.62434e-14
4.14575e-14
-1.81518e-13
5.3411e-14
3.37283e-14
-1.68712e-13
4.22016e-14
2.7826e-14
-1.57132e-13
3.23616e-14
2.31495e-14
-1.45905e-13
2.37372e-14
1.95896e-14
-1.41671e-13
1.60864e-14
1.66528e-14
-1.72791e-13
9.45751e-15
1.46756e-14
3.3367e-15
1.00758e-14
-1.03329e-14
-1.80526e-14
1.16285e-13
7.07543e-14
-4.44667e-13
9.82979e-14
7.18832e-14
-2.90226e-13
7.83763e-14
7.00846e-14
-2.60225e-13
6.15778e-14
5.74086e-14
-2.36682e-13
4.74742e-14
4.70912e-14
-2.15474e-13
3.56005e-14
3.91257e-14
-1.96689e-13
2.55778e-14
3.2963e-14
-1.83528e-13
1.71598e-14
2.8381e-14
-2.26474e-13
9.92109e-15
2.45917e-14
3.4405e-15
1.65771e-14
-1.33673e-14
-1.5281e-13
1.48564e-13
1.25103e-13
-6.48662e-13
1.2109e-13
1.28035e-13
-4.08167e-13
9.35634e-14
1.17685e-13
-3.57656e-13
7.14502e-14
9.46448e-14
-3.17285e-13
5.36525e-14
7.66681e-14
-2.8232e-13
3.9231e-14
6.28563e-14
-2.522e-13
2.75326e-14
5.22102e-14
-2.29214e-13
1.81591e-14
4.41747e-14
-2.82213e-13
1.02645e-14
3.74948e-14
3.49635e-15
2.49706e-14
-1.65315e-14
-5.61176e-13
1.9315e-13
2.22271e-13
-9.20633e-13
1.50988e-13
2.25001e-13
-5.60424e-13
1.1273e-13
1.94588e-13
-4.78352e-13
8.34557e-14
1.47216e-13
-4.13249e-13
6.09095e-14
1.20435e-13
-3.58793e-13
4.34269e-14
8.7367e-14
-3.13239e-13
2.98217e-14
6.86364e-14
-2.77975e-13
1.91563e-14
5.48248e-14
-3.40042e-13
1.06662e-14
5.40779e-14
3.60576e-15
3.30343e-14
-1.97526e-14
-1.08491e-12
3.00146e-13
3.98346e-13
-1.28636e-12
2.0216e-13
3.92054e-13
-7.587e-13
1.62233e-13
2.81531e-13
-6.28608e-13
1.20738e-13
2.03647e-13
-5.27653e-13
8.60077e-14
1.8405e-13
-4.46406e-13
5.95184e-14
1.27042e-13
-3.80827e-13
3.97194e-14
1.047e-13
-3.29626e-13
2.48398e-14
8.13483e-14
-4.00003e-13
1.35452e-14
6.52584e-14
4.85367e-15
3.74104e-14
-2.30664e-14
-1.88326e-12
5.02238e-12
1.03355e-12
-1.77844e-12
4.16014e-13
6.05877e-13
-1.01901e-12
2.75957e-13
5.10481e-13
-8.16369e-13
1.87139e-13
3.34651e-13
-6.64483e-13
1.25523e-13
2.44082e-13
-5.47065e-13
8.21472e-14
1.81398e-13
-4.5509e-13
5.11531e-14
1.37501e-13
-3.84808e-13
2.8943e-14
1.06269e-13
-4.62285e-13
1.29072e-14
8.35774e-14
1.34597e-15
5.37953e-14
-2.64296e-14
-7.12745e-11
1.14081e-09
2.6662e-08
-4.06183e-12
8.24596e-12
1.56938e-11
-3.78901e-12
2.38315e-12
4.89236e-12
-3.03659e-12
1.55545e-12
5.08108e-12
-2.45994e-12
1.05616e-12
4.82957e-12
-2.02069e-12
7.41601e-13
3.85887e-12
-1.6777e-12
5.41848e-13
2.6372e-12
-1.40956e-12
4.02473e-13
2.58312e-12
-1.23436e-12
3.03786e-13
2.59437e-12
2.08478e-13
-2.99988e-14
3.15199e-12
3.48898e-13
8.12359e-14
1.14704e-14
-1.8455e-14
7.71703e-14
1.06577e-14
-2.05781e-14
6.81153e-14
9.15587e-15
-1.95627e-14
5.93378e-14
7.78885e-15
-1.92215e-14
5.08589e-14
4.59134e-15
-1.90904e-14
4.26625e-14
3.79356e-15
-1.83492e-14
3.47451e-14
2.02478e-15
-1.89084e-14
2.70827e-14
8.82084e-16
-2.32243e-14
1.96922e-14
4.59454e-16
1.2576e-14
8.28446e-17
-1.54369e-15
2.98088e-13
5.8109e-14
2.03537e-14
-6.59352e-14
5.34322e-14
1.80842e-14
-6.83112e-14
4.52549e-14
1.8104e-14
-6.46329e-14
3.75626e-14
1.3766e-14
-6.24403e-14
3.03656e-14
1.0165e-14
-6.0145e-14
2.36757e-14
7.50954e-15
-5.82248e-14
1.75187e-14
5.64799e-15
-5.78357e-14
1.18865e-14
4.42767e-15
-7.10192e-14
6.79657e-15
3.05149e-15
2.39151e-15
1.88592e-15
-4.37497e-15
2.20793e-13
7.40169e-14
2.90052e-14
-1.65371e-13
6.68366e-14
2.76126e-14
-1.26512e-13
5.61328e-14
2.95063e-14
-1.15998e-13
4.62938e-14
2.23437e-14
-1.10387e-13
3.73887e-14
1.8067e-14
-1.03906e-13
2.93004e-14
1.53512e-14
-9.90045e-14
2.18787e-14
1.17561e-14
-9.91603e-14
1.5133e-14
1.04565e-14
-1.20657e-13
9.04244e-15
8.50887e-15
3.2248e-15
6.40735e-15
-7.27456e-15
9.91692e-14
9.19119e-14
4.75788e-14
-2.88112e-13
8.04506e-14
4.7563e-14
-1.96553e-13
6.58958e-14
4.9988e-14
-1.79376e-13
5.31495e-14
4.09581e-14
-1.66945e-13
4.1974e-14
3.37016e-14
-1.5533e-13
3.21653e-14
2.98279e-14
-1.44646e-13
2.35559e-14
2.31381e-14
-1.38901e-13
1.59862e-14
1.98494e-14
-1.72342e-13
9.36094e-15
1.70197e-14
3.38668e-15
1.14183e-14
-1.03543e-14
-1.68642e-14
1.15704e-13
8.39056e-14
-4.43668e-13
9.78568e-14
8.69035e-14
-2.87193e-13
7.80219e-14
8.60419e-14
-2.58111e-13
6.12922e-14
6.96511e-14
-2.34666e-13
4.72555e-14
5.76689e-14
-2.13751e-13
3.54244e-14
4.75849e-14
-1.95005e-13
2.54246e-14
4.08147e-14
-1.81732e-13
1.69917e-14
3.4692e-14
-2.25985e-13
9.86363e-15
3.0015e-14
3.55117e-15
2.13041e-14
-1.33717e-14
-1.5114e-13
1.47822e-13
1.47126e-13
-6.47097e-13
1.20566e-13
1.53746e-13
-4.04813e-13
9.31679e-14
1.44806e-13
-3.55173e-13
7.11688e-14
1.1623e-13
-3.15104e-13
5.34374e-14
9.47962e-14
-2.80474e-13
3.90628e-14
7.83333e-14
-2.50464e-13
2.74168e-14
6.55866e-14
-2.27709e-13
1.79336e-14
5.44453e-14
-2.81702e-13
1.02482e-14
4.66948e-14
3.58307e-15
3.0709e-14
-1.66065e-14
-5.57233e-13
1.92206e-13
2.62145e-13
-9.18211e-13
1.5038e-13
2.73419e-13
-5.56608e-13
1.12335e-13
2.3873e-13
-4.75556e-13
8.31624e-14
1.88358e-13
-4.10932e-13
6.07098e-14
1.49562e-13
-3.56789e-13
4.32875e-14
1.21806e-13
-3.11714e-13
2.96584e-14
9.86483e-14
-2.76425e-13
1.90144e-14
8.29972e-14
-3.39696e-13
1.07781e-14
6.98088e-14
3.68638e-15
4.50136e-14
-1.98027e-14
-1.07916e-12
2.9964e-13
4.6802e-13
-1.28248e-12
1.88105e-13
4.7449e-13
-7.54577e-13
1.37759e-13
3.89333e-13
-6.25441e-13
9.89973e-14
2.97493e-13
-5.25228e-13
7.08111e-14
2.30302e-13
-4.44573e-13
5.18889e-14
1.81083e-13
-3.7933e-13
3.58349e-14
1.44246e-13
-3.28227e-13
2.25162e-14
1.1722e-13
-4.00002e-13
1.22838e-14
9.51233e-14
4.51154e-15
6.33237e-14
-2.30811e-14
-1.87563e-12
4.97343e-12
1.52965e-12
-1.77252e-12
2.92553e-13
8.23304e-13
-1.01457e-12
2.47324e-13
6.32737e-13
-8.13376e-13
1.65083e-13
4.61694e-13
-6.62372e-13
1.08496e-13
3.44149e-13
-5.45519e-13
6.88837e-14
2.6267e-13
-4.54024e-13
3.5193e-14
2.03114e-13
-3.83833e-13
1.69283e-14
1.60316e-13
-4.62464e-13
8.16485e-15
1.2758e-13
2.91708e-15
7.83393e-14
-2.65421e-14
-7.05645e-11
1.77496e-09
2.76339e-08
-2.18094e-12
6.35906e-12
1.21246e-11
-1.35445e-12
9.13437e-13
3.06258e-13
-1.05988e-12
6.25477e-13
2.2684e-13
-8.34349e-13
4.43722e-13
1.70894e-13
-6.67194e-13
3.2275e-13
1.22791e-13
-5.40929e-13
2.40374e-13
7.29546e-14
-4.46254e-13
1.82444e-13
5.68558e-14
-5.29717e-13
1.40681e-13
4.65008e-14
8.68887e-14
-3.00578e-14
4.02485e-14
3.48733e-13
8.13681e-14
1.86694e-14
-1.87395e-14
7.72782e-14
1.50372e-14
-2.06881e-14
6.82073e-14
1.23893e-14
-2.00051e-14
5.941e-14
8.48753e-15
-1.90773e-14
5.09192e-14
7.98433e-15
-1.92878e-14
4.27103e-14
4.47699e-15
-1.86935e-14
3.47909e-14
3.91071e-15
-1.88448e-14
2.71346e-14
2.64159e-15
-2.32562e-14
1.97335e-14
1.04187e-15
1.26153e-14
2.58372e-16
-1.60375e-15
2.97765e-13
5.82496e-14
2.85361e-14
-6.62769e-14
5.35609e-14
2.40299e-14
-6.8585e-14
4.53642e-14
2.27203e-14
-6.50769e-14
3.76446e-14
1.87775e-14
-6.24319e-14
3.04455e-14
1.29647e-14
-6.03424e-14
2.37521e-14
1.06268e-14
-5.7972e-14
1.75802e-14
8.15341e-15
-5.81323e-14
1.19444e-14
6.68274e-15
-7.10732e-14
6.84953e-15
4.84425e-15
2.43999e-15
2.32888e-15
-4.38018e-15
2.20276e-13
7.42446e-14
4.04895e-14
-1.66077e-13
6.7034e-14
3.68732e-14
-1.27458e-13
5.63024e-14
3.85681e-14
-1.16066e-13
4.64614e-14
3.23328e-14
-1.10308e-13
3.75254e-14
2.43393e-14
-1.04546e-13
2.94226e-14
1.92428e-14
-9.8751e-14
2.1992e-14
1.79936e-14
-9.97194e-14
1.51926e-14
1.26539e-14
-1.2071e-13
9.06368e-15
1.32025e-14
3.18914e-15
7.22232e-15
-7.38385e-15
9.85901e-14
9.22996e-14
6.83248e-14
-2.89096e-13
8.07947e-14
6.79823e-14
-1.97217e-13
6.61725e-14
6.51297e-14
-1.79874e-13
5.33742e-14
5.40669e-14
-1.67169e-13
4.21698e-14
4.46254e-14
-1.55802e-13
3.23044e-14
3.54296e-14
-1.4486e-13
2.37064e-14
3.35307e-14
-1.39131e-13
1.61507e-14
2.84521e-14
-1.72552e-13
9.5623e-15
2.54957e-14
3.59935e-15
1.82987e-14
-1.028e-14
-1.7914e-14
1.16303e-13
1.11718e-13
-4.45273e-13
9.83579e-14
1.15056e-13
-2.88181e-13
7.84481e-14
1.12508e-13
-2.58802e-13
6.1645e-14
9.37056e-14
-2.3543e-13
4.75483e-14
7.95121e-14
-2.14156e-13
3.56975e-14
6.63795e-14
-1.95482e-13
2.56366e-14
5.53183e-14
-1.82109e-13
1.7124e-14
4.63158e-14
-2.26368e-13
9.89886e-15
4.24289e-14
3.62838e-15
2.61783e-14
-1.33966e-14
-1.52836e-13
1.48774e-13
2.03897e-13
-6.49687e-13
1.21369e-13
2.0761e-13
-4.06452e-13
9.37966e-14
1.91414e-13
-3.56462e-13
7.16821e-14
1.53771e-13
-3.16133e-13
5.38557e-14
1.25357e-13
-2.81386e-13
3.94081e-14
1.06865e-13
-2.5125e-13
2.76902e-14
8.54329e-14
-2.28311e-13
1.82105e-14
7.57526e-14
-2.82434e-13
1.05496e-14
6.29055e-14
3.80241e-15
4.27856e-14
-1.65785e-14
-5.61992e-13
1.93709e-13
3.57634e-13
-9.22668e-13
1.51563e-13
3.61657e-13
-5.59197e-13
1.13253e-13
3.22188e-13
-4.77738e-13
8.3889e-14
2.47506e-13
-4.12633e-13
6.1293e-14
2.02853e-13
-3.58363e-13
4.37434e-14
1.59155e-13
-3.12835e-13
3.0044e-14
1.3003e-13
-2.77459e-13
1.92981e-14
1.06459e-13
-3.40913e-13
1.09883e-14
8.90064e-14
3.96354e-15
5.90482e-14
-1.98268e-14
-1.08814e-12
3.02441e-13
6.33009e-13
-1.28988e-12
1.89798e-13
6.34375e-13
-7.58909e-13
1.39029e-13
5.20598e-13
-6.28957e-13
9.99294e-14
3.95249e-13
-5.28066e-13
7.14809e-14
3.05233e-13
-4.4692e-13
5.21212e-14
2.38168e-13
-3.81194e-13
3.63143e-14
1.91147e-13
-3.29902e-13
2.29258e-14
1.53394e-13
-4.01809e-13
1.26272e-14
1.25095e-13
4.78238e-15
8.05913e-14
-2.3174e-14
-1.89226e-12
4.96034e-12
2.02535e-12
-1.78473e-12
2.94453e-13
1.10242e-12
-1.02181e-12
2.44791e-13
8.40356e-13
-8.18984e-13
1.6273e-13
6.14309e-13
-6.66755e-13
1.05839e-13
4.60785e-13
-5.49128e-13
6.48504e-14
3.48972e-13
-4.56866e-13
3.0477e-14
2.69018e-13
-3.86223e-13
1.68827e-14
2.12828e-13
-4.65229e-13
8.68013e-15
1.69279e-13
3.23675e-15
1.07253e-13
-2.6576e-14
-7.06273e-11
2.26284e-09
2.77616e-08
-2.18138e-12
9.35682e-12
1.21345e-11
-1.35212e-12
1.3234e-12
1.29748e-13
-1.05844e-12
9.18993e-13
8.38667e-14
-8.33562e-13
6.59076e-13
6.35114e-14
-6.66693e-13
4.8416e-13
4.92384e-14
-5.40641e-13
3.63694e-13
3.88732e-14
-4.46065e-13
2.77942e-13
3.11774e-14
-5.30824e-13
2.13295e-13
2.53593e-14
1.31679e-13
-3.01749e-14
2.09598e-14
3.48408e-13
8.15283e-14
1.93577e-14
-1.90857e-14
7.74191e-14
1.64362e-14
-2.11373e-14
6.83174e-14
1.65938e-14
-1.99383e-14
5.95105e-14
1.27651e-14
-1.96326e-14
5.09883e-14
7.58449e-15
-1.92546e-14
4.27776e-14
5.35987e-15
-1.87586e-14
3.48443e-14
2.90183e-15
-1.90629e-14
2.71866e-14
1.73781e-15
-2.33122e-14
1.97853e-14
1.10824e-15
1.26625e-14
4.22008e-16
-1.54065e-15
2.97314e-13
5.84335e-14
3.3843e-14
-6.6748e-14
5.37228e-14
3.17904e-14
-6.87328e-14
4.55093e-14
2.97928e-14
-6.57564e-14
3.77595e-14
2.26754e-14
-6.22487e-14
3.05534e-14
1.9539e-14
-6.07152e-14
2.38428e-14
1.29383e-14
-5.77534e-14
1.76646e-14
8.74494e-15
-5.82863e-14
1.20136e-14
6.22447e-15
-7.11737e-14
6.92074e-15
5.97319e-15
2.49925e-15
4.47446e-15
-4.39254e-15
2.19558e-13
7.45581e-14
4.75551e-14
-1.67e-13
6.73087e-14
4.50113e-14
-1.2791e-13
5.65159e-14
4.72079e-14
-1.16612e-13
4.66551e-14
3.79109e-14
-1.10587e-13
3.76903e-14
3.17099e-14
-1.0454e-13
2.95427e-14
2.54872e-14
-9.93454e-14
2.21338e-14
1.86099e-14
-9.9038e-14
1.53748e-14
1.86711e-14
-1.20909e-13
9.14766e-15
1.34431e-14
3.42023e-15
1.0633e-14
-7.37041e-15
9.77989e-14
9.27766e-14
7.91038e-14
-2.90445e-13
8.12174e-14
7.88179e-14
-1.97721e-13
6.65364e-14
8.42523e-14
-1.8046e-13
5.368e-14
6.84989e-14
-1.67967e-13
4.24418e-14
5.54985e-14
-1.55823e-13
3.25664e-14
4.55058e-14
-1.45296e-13
2.38946e-14
3.72749e-14
-1.39421e-13
1.62771e-14
3.41478e-14
-1.72802e-13
9.70916e-15
2.81403e-14
3.63005e-15
1.81328e-14
-1.03361e-14
-1.92956e-14
1.17106e-13
1.39616e-13
-4.4734e-13
9.90352e-14
1.4596e-13
-2.89376e-13
7.89959e-14
1.45698e-13
-2.59764e-13
6.20974e-14
1.16397e-13
-2.36268e-13
4.79091e-14
9.3392e-14
-2.14874e-13
3.60104e-14
7.88488e-14
-1.96088e-13
2.5896e-14
6.42862e-14
-1.82389e-13
1.73857e-14
5.68173e-14
-2.26952e-13
1.00694e-14
4.76673e-14
3.88435e-15
3.27321e-14
-1.3401e-14
-1.55094e-13
1.50014e-13
2.41455e-13
-6.53106e-13
1.22387e-13
2.61512e-13
-4.0853e-13
9.46302e-14
2.39381e-13
-3.58158e-13
7.23382e-14
1.91957e-13
-3.17417e-13
5.4418e-14
1.55203e-13
-2.82693e-13
3.98446e-14
1.23395e-13
-2.52107e-13
2.80622e-14
1.05059e-13
-2.29171e-13
1.84627e-14
8.79657e-14
-2.83391e-13
1.07996e-14
7.75325e-14
4.01245e-15
4.98889e-14
-1.65783e-14
-5.68384e-13
1.9566e-13
4.33237e-13
-9.28313e-13
1.53122e-13
4.58067e-13
-5.6286e-13
1.14442e-13
3.87972e-13
-4.80366e-13
8.48431e-14
3.06968e-13
-4.15025e-13
6.20272e-14
2.39984e-13
-3.60252e-13
4.43425e-14
1.94398e-13
-3.14452e-13
3.05437e-14
1.59104e-13
-2.78747e-13
1.97052e-14
1.36213e-13
-3.42461e-13
1.13212e-14
1.13499e-13
4.28655e-15
7.04854e-14
-1.98424e-14
-1.09991e-12
3.06121e-13
7.7765e-13
-1.29952e-12
1.92168e-13
7.84944e-13
-7.64627e-13
1.40782e-13
6.35488e-13
-6.3353e-13
1.01248e-13
4.82246e-13
-5.3178e-13
7.25042e-14
3.69761e-13
-4.49891e-13
5.26589e-14
2.90393e-13
-3.83713e-13
3.69886e-14
2.29249e-13
-3.31997e-13
2.34983e-14
1.85512e-13
-4.04167e-13
1.30975e-14
1.56318e-13
5.16431e-15
9.66986e-14
-2.31987e-14
-1.91427e-12
4.98648e-12
2.47668e-12
-1.80074e-12
2.9855e-13
1.35567e-12
-1.03122e-12
2.48603e-13
1.03235e-12
-8.26265e-13
1.65511e-13
7.50967e-13
-6.72535e-13
1.07903e-13
5.53576e-13
-5.53799e-13
6.6557e-14
4.19229e-13
-4.60562e-13
3.13937e-14
3.22248e-13
-3.89342e-13
1.74301e-14
2.53791e-13
-4.68741e-13
9.04483e-15
2.04349e-13
3.62691e-15
1.28277e-13
-2.66757e-14
-7.07935e-11
2.81416e-09
2.77774e-08
-2.20482e-12
1.17807e-11
1.21266e-11
-1.36721e-12
1.6618e-12
1.24735e-13
-1.06984e-12
1.14563e-12
8.30624e-14
-8.42289e-13
8.17899e-13
6.33415e-14
-6.735e-13
5.9881e-13
4.93636e-14
-5.46068e-13
4.4526e-13
3.91588e-14
-4.50514e-13
3.37618e-13
3.15767e-14
-5.35746e-13
2.68329e-13
2.58535e-14
1.614e-13
-3.03045e-14
2.15497e-14
3.48018e-13
8.17304e-14
2.62631e-14
-1.94626e-14
7.75995e-14
2.46568e-14
-2.15274e-14
6.84559e-14
2.0753e-14
-2.03855e-14
5.96228e-14
1.58779e-14
-1.97815e-14
5.10968e-14
1.11868e-14
-1.96174e-14
4.28636e-14
5.76263e-15
-1.86845e-14
3.49218e-14
3.58575e-15
-1.90975e-14
2.72512e-14
2.28806e-15
-2.3373e-14
1.98477e-14
1.56579e-15
1.27301e-14
9.38651e-16
-1.56537e-15
2.96779e-13
5.86562e-14
4.39607e-14
-6.73016e-14
5.39166e-14
4.09784e-14
-6.92788e-14
4.56745e-14
3.98774e-14
-6.56495e-14
3.79058e-14
3.07281e-14
-6.32257e-14
3.0668e-14
2.22614e-14
-6.07714e-14
2.39544e-14
1.38227e-14
-5.81042e-14
1.77624e-14
9.96324e-15
-5.83004e-14
1.21148e-14
6.96717e-15
-7.1213e-14
7.00347e-15
5.42147e-15
2.5688e-15
4.51625e-15
-4.41249e-15
2.18681e-13
7.49297e-14
6.45449e-14
-1.68138e-13
6.76329e-14
6.34511e-14
-1.28444e-13
5.67954e-14
6.41001e-14
-1.17077e-13
4.68896e-14
5.11188e-14
-1.10832e-13
3.79013e-14
4.03676e-14
-1.05395e-13
2.97111e-14
2.98732e-14
-9.88882e-14
2.2312e-14
2.13107e-14
-9.98943e-14
1.54884e-14
1.63898e-14
-1.21048e-13
9.3008e-15
1.38533e-14
3.48153e-15
1.19744e-14
-7.40619e-15
9.68317e-14
9.33889e-14
1.05064e-13
-2.92023e-13
8.17476e-14
1.09192e-13
-1.98651e-13
6.69794e-14
1.09469e-13
-1.81221e-13
5.40491e-14
8.85657e-14
-1.6858e-13
4.27523e-14
7.19601e-14
-1.56419e-13
3.28629e-14
5.92977e-14
-1.45456e-13
2.41149e-14
4.24786e-14
-1.39849e-13
1.64901e-14
3.41211e-14
-1.73182e-13
9.81207e-15
2.81638e-14
3.90137e-15
1.93544e-14
-1.0327e-14
-2.10291e-14
1.18063e-13
1.83471e-13
-4.49841e-13
9.98568e-14
1.93802e-13
-2.90937e-13
7.96675e-14
1.86045e-13
-2.61036e-13
6.26565e-14
1.50427e-13
-2.37122e-13
4.83895e-14
1.23071e-13
-2.15946e-13
3.63755e-14
1.01443e-13
-1.9656e-13
2.62528e-14
8.03036e-14
-1.83174e-13
1.76342e-14
6.12974e-14
-2.27582e-13
1.0378e-14
5.02176e-14
4.10178e-15
3.17527e-14
-1.34465e-14
-1.57833e-13
1.51546e-13
3.2819e-13
-6.57275e-13
1.23643e-13
3.42704e-13
-4.11037e-13
9.56257e-14
3.1262e-13
-3.60169e-13
7.31519e-14
2.49906e-13
-3.19251e-13
5.50704e-14
2.02207e-13
-2.83968e-13
4.04128e-14
1.65558e-13
-2.53441e-13
2.85147e-14
1.33933e-13
-2.29997e-13
1.88821e-14
9.83362e-14
-2.84559e-13
1.10871e-14
8.07511e-14
4.28763e-15
4.95637e-14
-1.65968e-14
-5.76138e-13
1.98069e-13
5.83943e-13
-9.35369e-13
1.55025e-13
6.01304e-13
-5.66983e-13
1.15921e-13
5.20365e-13
-4.83869e-13
8.59949e-14
4.05887e-13
-4.1779e-13
6.29452e-14
3.20756e-13
-3.62579e-13
4.50799e-14
2.55148e-13
-3.16445e-13
3.11321e-14
2.04329e-13
-2.80306e-13
2.01354e-14
1.48219e-13
-3.44384e-13
1.1711e-14
1.1973e-13
4.64888e-15
7.34751e-14
-1.98799e-14
-1.1144e-12
3.10658e-13
1.0456e-12
-1.31133e-12
1.95017e-13
1.05583e-12
-7.71652e-13
1.42937e-13
8.55505e-13
-6.39183e-13
1.02878e-13
6.43128e-13
-5.36242e-13
7.37273e-14
4.92245e-13
-4.53605e-13
5.32432e-14
3.81599e-13
-3.86818e-13
3.78107e-14
2.99344e-13
-3.34452e-13
2.42024e-14
2.27672e-13
-4.071e-13
1.36562e-14
1.68323e-13
5.63766e-15
1.02694e-13
-2.32871e-14
-1.94158e-12
5.06848e-12
3.25007e-12
-1.82033e-12
3.03802e-13
1.84407e-12
-1.04283e-12
2.53445e-13
1.39362e-12
-8.35312e-13
1.68996e-13
1.00585e-12
-6.79625e-13
1.10511e-13
7.42596e-13
-5.59471e-13
6.87058e-14
5.56402e-13
-4.65112e-13
3.2574e-14
4.25128e-13
-3.93178e-13
1.81115e-14
3.23811e-13
-4.73012e-13
9.49879e-15
2.29947e-13
4.10464e-15
1.38198e-13
-2.68065e-14
-7.22612e-11
3.96245e-09
2.83534e-08
-2.23571e-12
1.4992e-11
1.2587e-11
-1.38571e-12
2.25199e-12
1.23152e-13
-1.08397e-12
1.54574e-12
8.3459e-14
-8.5313e-13
1.09632e-12
6.38431e-14
-6.81974e-13
7.93977e-13
4.99087e-14
-5.52803e-13
5.8734e-13
3.97267e-14
-4.55896e-13
4.4033e-13
3.21661e-14
-5.41864e-13
3.04654e-13
2.64689e-14
1.80142e-13
-3.03956e-14
2.22501e-14
3.47566e-13
8.19601e-14
3.60673e-14
-1.99756e-14
7.77752e-14
2.09413e-14
-2.18926e-14
6.8614e-14
1.87983e-14
-2.06469e-14
5.97516e-14
1.42977e-14
-2.03199e-14
5.12043e-14
9.80994e-15
-1.9512e-14
4.2964e-14
9.50565e-15
-1.93046e-14
3.50185e-14
8.5777e-15
-1.91084e-14
2.73517e-14
1.27015e-14
-2.35704e-14
1.99447e-14
4.18516e-14
1.28359e-14
1.44295e-13
-1.54434e-15
2.96095e-13
5.89246e-14
5.4409e-14
-6.7884e-14
5.41435e-14
3.54087e-14
-6.99067e-14
4.58548e-14
3.59406e-14
-6.60737e-14
3.80678e-14
2.83596e-14
-6.37431e-14
3.08124e-14
2.85766e-14
-6.04257e-14
2.40868e-14
1.88766e-14
-5.83119e-14
1.78814e-14
1.63024e-14
-5.88534e-14
1.22209e-14
1.75602e-14
-7.15624e-14
7.12123e-15
3.26002e-14
2.66545e-15
9.77724e-14
-4.3199e-15
2.17634e-13
7.53525e-14
7.77132e-14
-1.69429e-13
6.79847e-14
5.5033e-14
-1.28793e-13
5.71048e-14
5.89533e-14
-1.17765e-13
4.71506e-14
4.8145e-14
-1.11295e-13
3.81359e-14
3.95298e-14
-1.05469e-13
2.99419e-14
2.86933e-14
-9.95937e-14
2.24903e-14
3.03867e-14
-9.92003e-14
1.56757e-14
2.90517e-14
-1.21623e-13
9.38031e-15
3.59879e-14
3.64636e-15
7.33663e-14
-7.27912e-15
9.57039e-14
9.40964e-14
1.3461e-13
-2.9379e-13
8.23318e-14
9.85179e-14
-1.99715e-13
6.74664e-14
1.03037e-13
-1.82098e-13
5.44646e-14
8.53417e-14
-1.69023e-13
4.3115e-14
7.15837e-14
-1.57229e-13
3.3159e-14
8.12631e-14
-1.45931e-13
2.44034e-14
5.42487e-14
-1.40097e-13
1.67634e-14
4.95787e-14
-1.73893e-13
1.00294e-14
5.08741e-14
4.13799e-15
6.80129e-14
-1.02648e-14
-2.30565e-14
1.192e-13
2.43634e-13
-4.52605e-13
1.00769e-13
1.80224e-13
-2.92634e-13
8.04214e-14
1.78835e-13
-2.6235e-13
6.32965e-14
1.47639e-13
-2.38224e-13
4.89315e-14
1.23149e-13
-2.16961e-13
3.6863e-14
1.35855e-13
-1.97383e-13
2.66652e-14
7.50817e-14
-1.83999e-13
1.79573e-14
8.08259e-14
-2.28593e-13
1.07023e-14
7.57348e-14
4.30678e-15
7.49619e-14
-1.34036e-14
-1.6116e-13
1.5332e-13
4.42127e-13
-6.61799e-13
1.25034e-13
3.27091e-13
-4.13801e-13
9.67694e-14
3.04795e-13
-3.62471e-13
7.40951e-14
2.47017e-13
-3.2106e-13
5.5852e-14
2.22866e-13
-2.85628e-13
4.10435e-14
2.17916e-13
-2.55046e-13
2.90432e-14
1.59404e-13
-2.31066e-13
1.9268e-14
1.24987e-13
-2.8616e-13
1.13918e-14
1.1057e-13
4.71201e-15
9.15028e-14
-1.66245e-14
-5.85413e-13
2.00869e-13
7.98193e-13
-9.42855e-13
1.57177e-13
5.83198e-13
-5.71703e-13
1.17601e-13
5.35481e-13
-4.8768e-13
8.73112e-14
4.43981e-13
-4.20976e-13
6.39956e-14
3.82917e-13
-3.6516e-13
4.59404e-14
3.38308e-13
-3.1904e-13
3.18299e-14
2.82698e-13
-2.82141e-13
2.07568e-14
1.51643e-13
-3.46759e-13
1.21038e-14
1.56545e-13
5.02384e-15
1.16055e-13
-1.99109e-14
-1.13106e-12
3.15843e-13
1.43572e-12
-1.32402e-12
1.98371e-13
1.16167e-12
-7.79561e-13
1.45371e-13
9.95614e-13
-6.45394e-13
1.04743e-13
7.73951e-13
-5.41345e-13
7.5172e-14
6.20878e-13
-4.57755e-13
5.41212e-14
5.10873e-13
-3.90505e-13
3.88035e-14
4.16606e-13
-3.37641e-13
2.50235e-14
2.07639e-13
-4.10657e-13
1.43386e-14
1.75577e-13
6.18769e-15
1.48361e-13
-2.33457e-14
-1.97158e-12
4.71319e-12
4.02128e-12
-1.84164e-12
3.0842e-13
2.22403e-12
-1.05569e-12
2.59351e-13
1.72775e-12
-8.45252e-13
1.73007e-13
1.27306e-12
-6.87715e-13
1.13526e-13
9.65922e-13
-5.65811e-13
7.11718e-14
7.52562e-13
-4.70525e-13
3.4012e-14
5.90424e-13
-3.97861e-13
1.89405e-14
4.03438e-13
-4.78233e-13
1.00439e-14
2.41187e-13
4.6808e-15
1.88039e-13
-2.68923e-14
-7.17057e-11
2.86028e-09
2.96434e-08
-2.2576e-12
1.34704e-11
1.0006e-11
-1.40692e-12
2.87329e-12
1.14926e-13
-1.09969e-12
2.00814e-12
8.39157e-14
-8.65386e-13
1.45412e-12