/*--------------------------------*- C++ -*----------------------------------*\
| =========                 |                                                 |
| \\      /  F ield         | OpenFOAM: The Open Source CFD Toolbox           |
|  \\    /   O peration     | Version:  4.1                                   |
|   \\  /    A nd           | Web:      www.OpenFOAM.org                      |
|    \\/     M anipulation  |                                                 |
\*---------------------------------------------------------------------------*/
FoamFile
{
    version     2.0;
    format      ascii;
    class       volVectorField;
    location    "0.14";
    object      U;
}
// * * * * * * * * * * * * * * * * * * * * * * * * * * * * * * * * * * * * * //

dimensions      [0 1 -1 0 0 0 0];

internalField   nonuniform List<vector> 
18000
(
(7.52405e-14 3.93681e-13 -6.59434e-12)
(8.21537e-14 3.9166e-13 -6.517e-12)
(7.45089e-14 -1.00024e-14 -6.44065e-12)
(6.70426e-14 -1.06583e-14 -6.36537e-12)
(5.97628e-14 -1.05238e-14 -6.29116e-12)
(5.26679e-14 -1.03756e-14 -6.21794e-12)
(4.57516e-14 -1.02954e-14 -6.14577e-12)
(3.90266e-14 -1.02023e-14 -6.07458e-12)
(3.24697e-14 -1.00985e-14 -6.00442e-12)
(2.60828e-14 -8.44212e-15 -5.93581e-12)
(9.65113e-14 4.0896e-13 -8.32282e-12)
(1.14932e-13 4.00165e-13 -8.01735e-12)
(1.01568e-13 -3.84794e-14 -7.72485e-12)
(8.89612e-14 -3.80042e-14 -7.44544e-12)
(7.71481e-14 -3.67524e-14 -7.17844e-12)
(6.60601e-14 -3.55336e-14 -6.92302e-12)
(5.56304e-14 -3.43832e-14 -6.67874e-12)
(4.58552e-14 -3.32699e-14 -6.44486e-12)
(3.66582e-14 -3.22221e-14 -6.22086e-12)
(2.80435e-14 -2.62741e-14 -6.00824e-12)
(9.63094e-14 4.1883e-13 -1.06441e-11)
(1.14062e-13 4.0205e-13 -9.96664e-12)
(9.51071e-14 -7.81569e-14 -9.33981e-12)
(7.80375e-14 -7.45298e-14 -8.76088e-12)
(6.27095e-14 -7.02534e-14 -8.22537e-12)
(4.89085e-14 -6.63605e-14 -7.72943e-12)
(3.64898e-14 -6.27637e-14 -7.26995e-12)
(2.53058e-14 -5.93954e-14 -6.84355e-12)
(1.52345e-14 -5.6235e-14 -6.44759e-12)
(6.18341e-15 -4.47636e-14 -6.08181e-12)
(1.26631e-13 4.1868e-13 -1.38123e-11)
(1.41786e-13 3.92987e-13 -1.25307e-11)
(1.14788e-13 -1.33268e-13 -1.139e-11)
(9.15655e-14 -1.22967e-13 -1.03735e-11)
(7.16075e-14 -1.12933e-13 -9.46633e-12)
(5.44153e-14 -1.03952e-13 -8.65469e-12)
(3.96215e-14 -9.58661e-14 -7.92692e-12)
(2.68413e-14 -8.85642e-14 -7.27304e-12)
(1.5811e-14 -8.19303e-14 -6.68429e-12)
(6.29092e-15 -6.38977e-14 -6.15658e-12)
(1.6981e-13 4.00092e-13 -1.82153e-11)
(1.78848e-13 3.65744e-13 -1.59512e-11)
(1.4004e-13 -2.10183e-13 -1.40196e-11)
(1.08266e-13 -1.87649e-13 -1.23658e-11)
(8.22117e-14 -1.67303e-13 -1.09452e-11)
(6.07968e-14 -1.49731e-13 -9.71969e-12)
(4.31188e-14 -1.34509e-13 -8.65843e-12)
(2.85089e-14 -1.2127e-13 -7.73622e-12)
(1.64112e-14 -1.09596e-13 -6.93184e-12)
(6.40149e-15 -8.36734e-14 -6.23271e-12)
(2.32835e-13 3.48773e-13 -2.44576e-11)
(2.29365e-13 3.08116e-13 -2.05852e-11)
(1.72937e-13 -3.18562e-13 -1.7432e-11)
(1.29091e-13 -2.74218e-13 -1.48477e-11)
(9.49337e-14 -2.36738e-13 -1.27176e-11)
(6.81402e-14 -2.05679e-13 -1.095e-11)
(4.70162e-14 -1.79741e-13 -9.47462e-12)
(3.02986e-14 -1.57861e-13 -8.23613e-12)
(1.70432e-14 -1.39248e-13 -7.19082e-12)
(6.50881e-15 -1.04139e-13 -6.30983e-12)
(3.27475e-13 2.39189e-13 -3.35086e-11)
(2.99722e-13 1.99985e-13 -2.6971e-11)
(2.16444e-13 -4.72882e-13 -2.19146e-11)
(1.55382e-13 -3.9122e-13 -1.79669e-11)
(1.10296e-13 -3.25916e-13 -1.48544e-11)
(7.66506e-14 -2.74147e-13 -1.23768e-11)
(5.13588e-14 -2.32605e-13 -1.03872e-11)
(3.22331e-14 -1.98879e-13 -8.77631e-12)
(1.76988e-14 -1.71163e-13 -7.4619e-12)
(6.61015e-15 -1.25308e-13 -6.38822e-12)
(3.50446e-13 2.53888e-14 -4.69691e-11)
(2.81522e-13 6.28557e-15 -3.5936e-11)
(1.63756e-13 -6.95607e-13 -2.78841e-11)
(8.44906e-14 -5.5043e-13 -2.19236e-11)
(3.04555e-14 -4.41028e-13 -1.74468e-11)
(-6.66835e-15 -3.58281e-13 -1.4038e-11)
(-3.22606e-14 -2.94578e-13 -1.14101e-11)
(-4.98813e-14 -2.44804e-13 -9.36077e-12)
(-6.19498e-14 -2.05406e-13 -7.74552e-12)
(-7.07784e-14 -1.47211e-13 -6.46801e-12)
(-1.1987e-09 -3.87783e-13 -6.90378e-11)
(-1.1407e-09 -3.20235e-13 -5.00559e-11)
(-1.06505e-09 -1.00183e-12 -3.70561e-11)
(-9.98564e-10 -7.51059e-13 -2.79628e-11)
(-9.39762e-10 -5.74274e-13 -2.14693e-11)
(-8.87407e-10 -4.4733e-13 -1.67425e-11)
(-8.4051e-10 -3.54199e-13 -1.3242e-11)
(-7.98272e-10 -2.84618e-13 -1.06091e-11)
(-7.60041e-10 -2.3348e-13 -8.60003e-12)
(-7.28003e-10 -1.70963e-13 -7.06093e-12)
(1.37847e-07 -1.05371e-10 -1.47335e-08)
(2.27802e-08 1.4412e-10 -1.25805e-08)
(1.92716e-08 1.90768e-10 -1.0849e-08)
(1.64907e-08 1.67942e-10 -9.44977e-09)
(1.42028e-08 1.48725e-10 -8.30334e-09)
(1.22973e-08 1.32536e-10 -7.35256e-09)
(1.06931e-08 1.18789e-10 -6.5555e-09)
(9.32927e-09 1.07028e-10 -5.88084e-09)
(8.14422e-09 8.96841e-11 -5.30485e-09)
(-1.45326e-08 -6.19345e-12 -4.82764e-09)
(2.72e-13 3.69813e-13 -6.67633e-12)
(2.54194e-13 3.44364e-13 -6.59754e-12)
(2.22816e-13 -5.67922e-14 -6.51953e-12)
(1.92661e-13 -5.69048e-14 -6.44256e-12)
(1.63692e-13 -5.62551e-14 -6.36682e-12)
(1.35839e-13 -5.55885e-14 -6.29223e-12)
(1.09067e-13 -5.49896e-14 -6.21847e-12)
(8.33316e-14 -5.43813e-14 -6.14603e-12)
(5.85628e-14 -5.35294e-14 -6.07455e-12)
(3.49454e-14 -3.09443e-14 -6.00458e-12)
(5.49923e-13 3.18602e-13 -8.4375e-12)
(5.04819e-13 2.23724e-13 -8.126e-12)
(4.32231e-13 -2.08594e-13 -7.8274e-12)
(3.64616e-13 -2.01776e-13 -7.54235e-12)
(3.01658e-13 -1.9454e-13 -7.27019e-12)
(2.42994e-13 -1.87611e-13 -7.00981e-12)
(1.88331e-13 -1.81009e-13 -6.761e-12)
(1.37385e-13 -1.74748e-13 -6.5229e-12)
(8.98721e-14 -1.67983e-13 -6.29507e-12)
(4.58522e-14 -9.54127e-14 -6.07854e-12)
(6.79857e-13 2.27325e-13 -1.0808e-11)
(6.01371e-13 3.4252e-14 -1.01155e-11)
(4.96852e-13 -4.22907e-13 -9.47517e-12)
(4.03719e-13 -3.97442e-13 -8.88389e-12)
(3.20843e-13 -3.73095e-13 -8.33749e-12)
(2.47031e-13 -3.50541e-13 -7.83183e-12)
(1.8126e-13 -3.29649e-13 -7.36357e-12)
(1.22674e-13 -3.10297e-13 -6.92926e-12)
(7.04826e-14 -2.9134e-13 -6.52613e-12)
(2.42396e-14 -1.62901e-13 -6.15402e-12)
(8.8842e-13 7.32517e-14 -1.40512e-11)
(7.5758e-13 -2.58097e-13 -1.27385e-11)
(6.06858e-13 -7.24917e-13 -1.1571e-11)
(4.78622e-13 -6.60958e-13 -1.05314e-11)
(3.69613e-13 -6.02871e-13 -9.60461e-12)
(2.76831e-13 -5.51043e-13 -8.77617e-12)
(1.97799e-13 -5.04568e-13 -8.03398e-12)
(1.3048e-13 -4.62818e-13 -7.36773e-12)
(7.31081e-14 -4.23861e-13 -6.76795e-12)
(2.46241e-14 -2.33118e-13 -6.23091e-12)
(1.18011e-12 -1.80222e-13 -1.85718e-11)
(9.66635e-13 -7.06113e-13 -1.62467e-11)
(7.48296e-13 -1.15136e-12 -1.42655e-11)
(5.71349e-13 -1.01611e-12 -1.25708e-11)
(4.27834e-13 -8.9873e-13 -1.11173e-11)
(3.11181e-13 -7.97684e-13 -9.86486e-12)
(2.16238e-13 -7.10256e-13 -8.78147e-12)
(1.38904e-13 -6.344e-13 -7.84089e-12)
(7.5901e-14 -5.66382e-13 -7.02124e-12)
(2.49778e-14 -3.06313e-13 -6.30946e-12)
(1.59655e-12 -5.92486e-13 -2.50044e-11)
(1.25089e-12 -1.39215e-12 -2.1013e-11)
(9.32293e-13 -1.75657e-12 -1.77707e-11)
(6.87091e-13 -1.4961e-12 -1.51167e-11)
(4.97724e-13 -1.28013e-12 -1.29334e-11)
(3.50908e-13 -1.10135e-12 -1.11245e-11)
(2.36818e-13 -9.52307e-13 -9.61679e-12)
(1.47988e-13 -8.27362e-13 -8.3527e-12)
(7.88372e-14 -7.19693e-13 -7.28678e-12)
(2.53102e-14 -3.82625e-13 -6.38954e-12)
(2.20514e-12 -1.26303e-12 -3.43696e-11)
(1.64404e-12 -2.44829e-12 -2.76048e-11)
(1.17467e-12 -2.62165e-12 -2.23884e-11)
(8.32819e-13 -2.14764e-12 -1.83237e-11)
(5.82088e-13 -1.7731e-12 -1.51272e-11)
(3.9704e-13 -1.47565e-12 -1.25877e-11)
(2.59844e-13 -1.2372e-12 -1.0552e-11)
(1.57839e-13 -1.04445e-12 -8.9065e-12)
(8.18781e-14 -8.84688e-13 -7.5651e-12)
(2.56987e-14 -4.62254e-13 -6.47134e-12)
(3.12574e-12 -2.3633e-12 -4.83702e-11)
(2.20183e-12 -4.09076e-12 -3.68964e-11)
(1.50098e-12 -3.8697e-12 -2.85578e-11)
(1.01987e-12 -3.0373e-12 -2.24029e-11)
(6.8581e-13 -2.41224e-12 -1.77947e-11)
(4.51551e-13 -1.93779e-12 -1.42946e-11)
(2.86035e-13 -1.57282e-12 -1.16022e-11)
(1.68521e-13 -1.28883e-12 -9.50636e-12)
(8.48067e-14 -1.06223e-12 -7.857e-12)
(2.56032e-14 -5.4516e-13 -6.55483e-12)
(7.75735e-12 -4.22985e-12 -7.1348e-11)
(-1.58726e-11 -6.71578e-12 -5.15156e-11)
(-1.32645e-11 -5.71395e-12 -3.80082e-11)
(-1.11416e-11 -4.2806e-12 -2.85985e-11)
(-9.43296e-12 -3.2617e-12 -2.19063e-11)
(-8.04667e-12 -2.52473e-12 -1.70503e-11)
(-6.913e-12 -1.98201e-12 -1.34639e-11)
(-5.97875e-12 -1.57609e-12 -1.07725e-11)
(-5.20312e-12 -1.26429e-12 -8.72257e-12)
(-4.52125e-12 -6.41095e-13 -7.1551e-12)
(7.22482e-08 -3.56663e-10 -1.50228e-08)
(-2.14115e-09 -3.03598e-10 -1.27922e-08)
(-1.97997e-09 -2.02131e-10 -1.10059e-08)
(-1.79478e-09 -1.76065e-10 -9.56839e-09)
(-1.63317e-09 -1.54846e-10 -8.39471e-09)
(-1.49323e-09 -1.37256e-10 -7.42408e-09)
(-1.37213e-09 -1.22507e-10 -6.61228e-09)
(-1.26722e-09 -1.10015e-10 -5.92651e-09)
(-1.17681e-09 -9.92486e-11 -5.342e-09)
(-1.20392e-09 -9.15391e-11 -4.85795e-09)
(2.27899e-13 3.75909e-13 -8.5817e-14)
(2.1512e-13 3.49813e-13 -8.39175e-14)
(1.88646e-13 -5.15188e-14 -8.14694e-14)
(1.63338e-13 -5.16584e-14 -7.92769e-14)
(1.39131e-13 -5.09576e-14 -7.72872e-14)
(1.15916e-13 -5.0397e-14 -7.54087e-14)
(9.37567e-14 -4.98304e-14 -7.3573e-14)
(7.25088e-14 -4.91861e-14 -7.20963e-14)
(5.21725e-14 -4.84505e-14 -7.05463e-14)
(3.28715e-14 -2.53972e-14 -6.92178e-14)
(4.99095e-13 3.41601e-13 -1.20223e-13)
(4.60818e-13 2.43841e-13 -1.13518e-13)
(3.94685e-13 -1.8927e-13 -1.06525e-13)
(3.33134e-13 -1.82992e-13 -1.00072e-13)
(2.75897e-13 -1.76354e-13 -9.42333e-14)
(2.22614e-13 -1.70007e-13 -8.88415e-14)
(1.73048e-13 -1.63902e-13 -8.38197e-14)
(1.26849e-13 -1.58115e-13 -7.92103e-14)
(8.38058e-14 -1.51948e-13 -7.52508e-14)
(4.40153e-14 -7.87573e-14 -7.11966e-14)
(6.16476e-13 2.75856e-13 -1.72913e-13)
(5.47895e-13 7.52735e-14 -1.56829e-13)
(4.52364e-13 -3.84325e-13 -1.41771e-13)
(3.67334e-13 -3.61022e-13 -1.28407e-13)
(2.91786e-13 -3.38585e-13 -1.16552e-13)
(2.24624e-13 -3.17897e-13 -1.05896e-13)
(1.64847e-13 -2.98785e-13 -9.65938e-14)
(1.11674e-13 -2.81098e-13 -8.81904e-14)
(6.4294e-14 -2.63641e-13 -8.05904e-14)
(2.24627e-14 -1.34698e-13 -7.41822e-14)
(8.08651e-13 1.6066e-13 -2.54149e-13)
(6.92156e-13 -1.87412e-13 -2.21239e-13)
(5.53882e-13 -6.60191e-13 -1.92093e-13)
(4.3641e-13 -6.01438e-13 -1.66882e-13)
(3.3679e-13 -5.47974e-13 -1.45694e-13)
(2.52138e-13 -5.00374e-13 -1.27649e-13)
(1.80163e-13 -4.57734e-13 -1.12294e-13)
(1.18942e-13 -4.19614e-13 -9.90906e-14)
(6.68427e-14 -3.83893e-13 -8.75734e-14)
(2.2895e-14 -1.93312e-13 -7.78303e-14)
(1.07896e-12 -3.37059e-14 -3.83269e-13)
(8.85925e-13 -5.93519e-13 -3.18365e-13)
(6.84857e-13 -1.05124e-12 -2.64342e-13)
(5.22178e-13 -9.26635e-13 -2.20147e-13)
(3.90631e-13 -8.18357e-13 -1.84508e-13)
(2.83944e-13 -7.25461e-13 -1.55424e-13)
(1.97299e-13 -6.45229e-13 -1.31663e-13)
(1.2684e-13 -5.75752e-13 -1.12146e-13)
(6.95483e-14 -5.13323e-13 -9.5882e-14)
(2.33463e-14 -2.5461e-13 -8.24197e-14)
(1.46706e-12 -3.55834e-13 -5.93798e-13)
(1.15074e-12 -1.22095e-12 -4.66856e-13)
(8.55868e-13 -1.60853e-12 -3.69514e-13)
(6.29568e-13 -1.3678e-12 -2.93778e-13)
(4.55426e-13 -1.16806e-12 -2.35865e-13)
(3.20802e-13 -1.0033e-12 -1.9087e-13)
(2.1645e-13 -8.66258e-13 -1.55721e-13)
(1.35418e-13 -7.51719e-13 -1.2807e-13)
(7.23856e-14 -6.52875e-13 -1.05695e-13)
(2.37985e-14 -3.18925e-13 -8.81805e-14)
(2.0383e-12 -8.86131e-13 -9.44108e-13)
(1.51902e-12 -2.1948e-12 -6.99988e-13)
(1.08216e-12 -2.40949e-12 -5.24536e-13)
(7.65316e-13 -1.96919e-12 -3.96527e-13)
(5.33924e-13 -1.62168e-12 -3.04104e-13)
(3.63734e-13 -1.34687e-12 -2.35909e-13)
(2.37953e-13 -1.12711e-12 -1.85151e-13)
(1.44654e-13 -9.50144e-13 -1.46871e-13)
(7.53478e-14 -8.03339e-13 -1.17149e-13)
(2.42667e-14 -3.86315e-13 -9.48845e-14)
(2.90546e-12 -1.76643e-12 -1.54948e-12)
(2.04167e-12 -3.72328e-12 -1.07265e-12)
(1.38611e-12 -3.57155e-12 -7.56764e-13)
(9.38632e-13 -2.79422e-12 -5.41463e-13)
(6.29634e-13 -2.21221e-12 -3.9546e-13)
(4.1393e-13 -1.77249e-12 -2.93517e-13)
(2.62132e-13 -1.43544e-12 -2.21285e-13)
(1.54726e-13 -1.1741e-12 -1.69049e-13)
(7.84828e-14 -9.65571e-13 -1.30713e-13)
(2.47342e-14 -4.56955e-13 -1.02447e-13)
(3.08973e-11 -3.25217e-12 -2.57872e-12)
(2.6926e-12 -6.1646e-12 -1.64945e-12)
(1.69538e-12 -5.27891e-12 -1.08571e-12)
(1.08852e-12 -3.93513e-12 -7.3196e-13)
(6.93644e-13 -2.98449e-12 -5.07935e-13)
(4.32909e-13 -2.30105e-12 -3.61128e-13)
(2.58453e-13 -1.80001e-12 -2.62736e-13)
(1.41489e-13 -1.42693e-12 -1.95288e-13)
(6.26738e-14 -1.14089e-12 -1.47911e-13)
(1.01368e-14 -5.31237e-13 -1.14784e-13)
(6.6124e-08 -9.08081e-11 -3.01555e-10)
(2.30657e-11 -8.77132e-11 -2.13588e-10)
(-2.03941e-11 -1.36962e-11 -1.58011e-10)
(-1.62763e-11 -9.90191e-12 -1.19385e-10)
(-1.3143e-11 -7.38612e-12 -9.18866e-11)
(-1.07375e-11 -5.62024e-12 -7.18784e-11)
(-8.87035e-12 -4.35033e-12 -5.70402e-11)
(-7.40608e-12 -3.41825e-12 -4.58486e-11)
(-6.25132e-12 -2.71866e-12 -3.7279e-11)
(-5.62127e-12 -1.75106e-12 -3.04085e-11)
(2.27051e-13 3.75884e-13 -8.48047e-15)
(2.14368e-13 3.4948e-13 -7.65357e-15)
(1.87996e-13 -5.18723e-14 -5.86107e-15)
(1.62761e-13 -5.18876e-14 -4.62585e-15)
(1.38637e-13 -5.11964e-14 -3.37091e-15)
(1.15553e-13 -5.05493e-14 -2.40241e-15)
(9.34739e-14 -4.98698e-14 -1.6788e-15)
(7.23124e-14 -4.92262e-14 -1.01408e-15)
(5.21076e-14 -4.83914e-14 -6.24553e-16)
(3.28862e-14 -2.53184e-14 -5.64355e-16)
(4.98274e-13 3.41967e-13 -1.25844e-14)
(4.6014e-13 2.43859e-13 -1.10893e-14)
(3.94117e-13 -1.89334e-13 -8.9173e-15)
(3.32686e-13 -1.83007e-13 -7.00911e-15)
(2.75556e-13 -1.76251e-13 -5.32928e-15)
(2.22381e-13 -1.69856e-13 -4.2172e-15)
(1.72926e-13 -1.63761e-13 -3.19993e-15)
(1.26828e-13 -1.57856e-13 -2.45807e-15)
(8.38845e-14 -1.51615e-13 -1.99028e-15)
(4.41952e-14 -7.83857e-14 -1.68017e-15)
(6.15578e-13 2.76913e-13 -2.04327e-14)
(5.47263e-13 7.56941e-14 -1.80038e-14)
(4.51891e-13 -3.83989e-13 -1.46066e-14)
(3.66989e-13 -3.60591e-13 -1.18105e-14)
(2.91589e-13 -3.3823e-13 -9.63964e-15)
(2.24544e-13 -3.17476e-13 -7.81977e-15)
(1.64902e-13 -2.98277e-13 -6.39323e-15)
(1.1184e-13 -2.80632e-13 -5.43925e-15)
(6.45521e-14 -2.63082e-13 -4.522e-15)
(2.28071e-14 -1.34026e-13 -4.30061e-15)
(8.07724e-13 1.62925e-13 -3.47181e-14)
(6.91632e-13 -1.86233e-13 -3.04285e-14)
(5.53578e-13 -6.5944e-13 -2.5045e-14)
(4.36284e-13 -6.00717e-13 -2.03766e-14)
(3.3681e-13 -5.47205e-13 -1.68177e-14)
(2.52314e-13 -4.99607e-13 -1.40655e-14)
(1.80442e-13 -4.57008e-13 -1.17928e-14)
(1.19335e-13 -4.18884e-13 -1.00153e-14)
(6.73251e-14 -3.83156e-13 -8.78164e-15)
(2.34055e-14 -1.9255e-13 -7.86598e-15)
(1.07811e-12 -2.95295e-14 -6.08467e-14)
(8.85667e-13 -5.9153e-13 -5.22388e-14)
(6.84845e-13 -1.0499e-12 -4.22417e-14)
(5.22422e-13 -9.25437e-13 -3.45436e-14)
(3.91026e-13 -8.17326e-13 -2.83894e-14)
(2.84452e-13 -7.24486e-13 -2.35086e-14)
(1.97885e-13 -6.44285e-13 -1.98752e-14)
(1.27511e-13 -5.74891e-13 -1.70952e-14)
(7.02274e-14 -5.12593e-13 -1.48423e-14)
(2.40497e-14 -2.5376e-13 -1.31411e-14)
(1.4664e-12 -3.4839e-13 -1.06964e-13)
(1.15097e-12 -1.21786e-12 -8.90516e-14)
(8.56419e-13 -1.60667e-12 -7.07666e-14)
(6.3034e-13 -1.36628e-12 -5.68749e-14)
(4.56318e-13 -1.16686e-12 -4.61042e-14)
(3.2175e-13 -1.00231e-12 -3.78642e-14)
(2.17426e-13 -8.65365e-13 -3.14431e-14)
(1.36358e-13 -7.50987e-13 -2.65319e-14)
(7.3302e-14 -6.52274e-13 -2.25807e-14)
(2.46723e-14 -3.18118e-13 -1.96131e-14)
(2.03811e-12 -8.73095e-13 -1.88924e-13)
(1.52009e-12 -2.19037e-12 -1.51485e-13)
(1.08361e-12 -2.40724e-12 -1.1662e-13)
(7.6687e-13 -1.96769e-12 -9.13682e-14)
(5.35493e-13 -1.62071e-12 -7.22995e-14)
(3.65249e-13 -1.34617e-12 -5.80651e-14)
(2.39365e-13 -1.12661e-12 -4.72329e-14)
(1.45947e-13 -9.4982e-13 -3.90208e-14)
(7.65525e-14 -8.03131e-13 -3.26639e-14)
(2.53011e-14 -3.85701e-13 -2.76236e-14)
(2.90619e-12 -1.74347e-12 -3.36669e-13)
(2.0441e-12 -3.71743e-12 -2.56205e-13)
(1.38888e-12 -3.56953e-12 -1.90252e-13)
(9.41352e-13 -2.7935e-12 -1.43524e-13)
(6.32152e-13 -2.21204e-12 -1.10262e-13)
(4.16184e-13 -1.77269e-12 -8.60861e-14)
(2.64097e-13 -1.4358e-12 -6.81835e-14)
(1.56428e-13 -1.1745e-12 -5.49989e-14)
(7.99569e-14 -9.66141e-13 -4.49769e-14)
(2.60228e-14 -4.56773e-13 -3.71073e-14)
(3.18722e-11 -3.21246e-12 -6.05523e-13)
(2.84165e-12 -6.15909e-12 -4.33258e-13)
(1.79809e-12 -5.27888e-12 -3.06867e-13)
(1.16078e-12 -3.93673e-12 -2.22279e-13)
(7.45863e-13 -2.9866e-12 -1.64574e-13)
(4.71589e-13 -2.30322e-12 -1.24417e-13)
(2.88096e-13 -1.80204e-12 -9.57055e-14)
(1.64319e-13 -1.42872e-12 -7.49267e-14)
(8.03551e-14 -1.14237e-12 -5.96804e-14)
(2.37923e-14 -5.3144e-13 -4.83172e-14)
(7.05826e-08 -8.21398e-11 -1.24868e-11)
(5.34739e-11 -8.20386e-11 -2.36236e-12)
(1.60196e-12 -7.99906e-12 -1.50441e-12)
(1.03207e-12 -5.56575e-12 -9.90546e-13)
(6.83044e-13 -4.02763e-12 -6.7457e-13)
(4.54225e-13 -2.97909e-12 -4.73315e-13)
(3.01652e-13 -2.24646e-12 -3.43949e-13)
(1.98344e-13 -1.72335e-12 -2.53528e-13)
(1.2754e-13 -1.33806e-12 -1.8951e-13)
(7.83185e-14 -6.14098e-13 -1.42458e-13)
(2.27495e-13 3.7572e-13 -1.08637e-14)
(2.14727e-13 3.48927e-13 -9.68039e-15)
(1.88291e-13 -5.25637e-14 -7.44757e-15)
(1.62984e-13 -5.24936e-14 -5.5721e-15)
(1.3882e-13 -5.16897e-14 -4.06612e-15)
(1.15694e-13 -5.09215e-14 -2.79109e-15)
(9.36031e-14 -5.0239e-14 -1.84619e-15)
(7.24545e-14 -4.94631e-14 -1.00548e-15)
(5.22184e-14 -4.84884e-14 -4.82498e-16)
(3.29894e-14 -2.54051e-14 -2.39423e-16)
(4.99322e-13 3.41597e-13 -1.60839e-14)
(4.61039e-13 2.43033e-13 -1.41333e-14)
(3.94871e-13 -1.90257e-13 -1.10813e-14)
(3.33281e-13 -1.83822e-13 -8.69437e-15)
(2.7608e-13 -1.76906e-13 -6.41855e-15)
(2.22837e-13 -1.70333e-13 -4.89776e-15)
(1.7332e-13 -1.64108e-13 -3.6585e-15)
(1.27222e-13 -1.58136e-13 -2.87583e-15)
(8.4229e-14 -1.51817e-13 -2.12848e-15)
(4.45339e-14 -7.84518e-14 -1.71691e-15)
(6.17391e-13 2.7627e-13 -2.60105e-14)
(5.4885e-13 7.44492e-14 -2.28647e-14)
(4.53223e-13 -3.85393e-13 -1.85241e-14)
(3.68104e-13 -3.61749e-13 -1.46907e-14)
(2.92557e-13 -3.39056e-13 -1.18118e-14)
(2.25394e-13 -3.18185e-13 -9.63219e-15)
(1.65636e-13 -2.98827e-13 -7.81962e-15)
(1.12489e-13 -2.81021e-13 -6.5412e-15)
(6.51484e-14 -2.63353e-13 -5.71809e-15)
(2.33554e-14 -1.34205e-13 -5.09125e-15)
(8.10875e-13 1.61677e-13 -4.45309e-14)
(6.94339e-13 -1.88341e-13 -3.88357e-14)
(5.55788e-13 -6.6157e-13 -3.16328e-14)
(4.38146e-13 -6.02487e-13 -2.59174e-14)
(3.38377e-13 -5.48601e-13 -2.1332e-14)
(2.53623e-13 -5.00758e-13 -1.76729e-14)
(1.81603e-13 -4.57957e-13 -1.50184e-14)
(1.20335e-13 -4.19614e-13 -1.2863e-14)
(6.82177e-14 -3.8371e-13 -1.12098e-14)
(2.41926e-14 -1.92776e-13 -1.01331e-14)
(1.08341e-12 -3.20146e-14 -7.76903e-14)
(8.90088e-13 -5.95421e-13 -6.67568e-14)
(6.88399e-13 -1.05364e-12 -5.41095e-14)
(5.25303e-13 -9.28439e-13 -4.41694e-14)
(3.93396e-13 -8.19766e-13 -3.65178e-14)
(2.86417e-13 -7.26442e-13 -3.03651e-14)
(1.99548e-13 -6.4583e-13 -2.56559e-14)
(1.28912e-13 -5.76153e-13 -2.19235e-14)
(7.14351e-14 -5.13579e-13 -1.91251e-14)
(2.50865e-14 -2.54333e-13 -1.68687e-14)
(1.47527e-12 -3.53498e-13 -1.37011e-13)
(1.1581e-12 -1.22512e-12 -1.14079e-13)
(8.61959e-13 -1.61323e-12 -9.09755e-14)
(6.34706e-13 -1.37154e-12 -7.30809e-14)
(4.59789e-13 -1.17103e-12 -5.94278e-14)
(3.24568e-13 -1.00567e-12 -4.90375e-14)
(2.19693e-13 -8.68111e-13 -4.07133e-14)
(1.38236e-13 -7.53203e-13 -3.43571e-14)
(7.48579e-14 -6.54059e-13 -2.93747e-14)
(2.59537e-14 -3.19131e-13 -2.54482e-14)
(2.05302e-12 -8.83374e-13 -2.41987e-13)
(1.53151e-12 -2.20422e-12 -1.94177e-13)
(1.09212e-12 -2.41911e-12 -1.50432e-13)
(7.73324e-13 -1.97685e-12 -1.17731e-13)
(5.40457e-13 -1.6279e-12 -9.37184e-14)
(3.69102e-13 -1.35188e-12 -7.54419e-14)
(2.42392e-13 -1.13115e-12 -6.14023e-14)
(1.48368e-13 -9.53428e-13 -5.07993e-14)
(7.84844e-14 -8.06102e-13 -4.25766e-14)
(2.68779e-14 -3.87456e-13 -3.61064e-14)
(2.93129e-12 -1.76435e-12 -4.29942e-13)
(2.0623e-12 -3.74388e-12 -3.28776e-13)
(1.40187e-12 -3.59069e-12 -2.44856e-13)
(9.5077e-13 -2.8094e-12 -1.85801e-13)
(6.39098e-13 -2.2242e-12 -1.43264e-13)
(4.21385e-13 -1.7821e-12 -1.12171e-13)
(2.68046e-13 -1.44314e-12 -8.91939e-14)
(1.59446e-13 -1.18031e-12 -7.19358e-14)
(8.22834e-14 -9.70745e-13 -5.87497e-14)
(2.78299e-14 -4.59493e-13 -4.89326e-14)
(3.18777e-11 -3.25427e-12 -7.71125e-13)
(2.87272e-12 -6.20911e-12 -5.56591e-13)
(1.81851e-12 -5.31662e-12 -3.95912e-13)
(1.17485e-12 -3.96403e-12 -2.88141e-13)
(7.5577e-13 -3.00668e-12 -2.14353e-13)
(4.78689e-13 -2.31829e-12 -1.62615e-13)
(2.9328e-13 -1.81354e-12 -1.25346e-13)
(1.68145e-13 -1.4376e-12 -9.84589e-14)
(8.32196e-14 -1.14937e-12 -7.84097e-14)
(2.59354e-14 -5.35439e-13 -6.34386e-14)
(7.11687e-08 -8.15124e-11 -1.68605e-12)
(5.45241e-11 -8.19437e-11 -9.63533e-13)
(1.78273e-12 -8.01226e-12 -6.42843e-13)
(1.15531e-12 -5.57596e-12 -4.4556e-13)
(7.68222e-13 -4.03628e-12 -3.17344e-13)
(5.1463e-13 -2.98617e-12 -2.31678e-13)
(3.45335e-13 -2.25203e-12 -1.73053e-13)
(2.30516e-13 -1.72789e-12 -1.31771e-13)
(1.51619e-13 -1.34182e-12 -1.02072e-13)
(9.71944e-14 -6.15216e-13 -8.0662e-14)
(2.2804e-13 3.75386e-13 -1.36655e-14)
(2.1519e-13 3.4812e-13 -1.18917e-14)
(1.88652e-13 -5.34998e-14 -9.33619e-15)
(1.63296e-13 -5.32298e-14 -6.92513e-15)
(1.39032e-13 -5.22999e-14 -5.04337e-15)
(1.15889e-13 -5.14315e-14 -3.33647e-15)
(9.37536e-14 -5.05798e-14 -2.10711e-15)
(7.25978e-14 -4.97697e-14 -1.27312e-15)
(5.23586e-14 -4.86966e-14 -6.45371e-16)
(3.31128e-14 -2.5418e-14 -3.28596e-16)
(5.00646e-13 3.41084e-13 -2.01101e-14)
(4.62198e-13 2.41888e-13 -1.7623e-14)
(3.95827e-13 -1.91453e-13 -1.37767e-14)
(3.34088e-13 -1.84833e-13 -1.07464e-14)
(2.76741e-13 -1.77746e-13 -8.23697e-15)
(2.23418e-13 -1.7095e-13 -6.1162e-15)
(1.73828e-13 -1.64565e-13 -4.47414e-15)
(1.27667e-13 -1.58469e-13 -3.36819e-15)
(8.4682e-14 -1.52083e-13 -2.65906e-15)
(4.49388e-14 -7.85798e-14 -2.29493e-15)
(6.1976e-13 2.75377e-13 -3.24882e-14)
(5.50911e-13 7.27689e-14 -2.84192e-14)
(4.54933e-13 -3.87138e-13 -2.29128e-14)
(3.69545e-13 -3.63209e-13 -1.84421e-14)
(2.93805e-13 -3.4023e-13 -1.47555e-14)
(2.26449e-13 -3.19076e-13 -1.19048e-14)
(1.66604e-13 -2.99533e-13 -9.65938e-15)
(1.13347e-13 -2.81508e-13 -8.18469e-15)
(6.59338e-14 -2.63712e-13 -7.10814e-15)
(2.40974e-14 -1.34429e-13 -6.28334e-15)
(8.14922e-13 1.59986e-13 -5.57266e-14)
(6.9782e-13 -1.9122e-13 -4.84139e-14)
(5.58646e-13 -6.64379e-13 -3.93932e-14)
(4.40532e-13 -6.04742e-13 -3.22815e-14)
(3.40403e-13 -5.5049e-13 -2.65455e-14)
(2.55357e-13 -5.02179e-13 -2.19067e-14)
(1.83089e-13 -4.59028e-13 -1.86314e-14)
(1.21644e-13 -4.20532e-13 -1.61036e-14)
(6.93579e-14 -3.84385e-13 -1.40539e-14)
(2.52087e-14 -1.93179e-13 -1.25614e-14)
(1.09028e-12 -3.53034e-14 -9.72277e-14)
(8.95798e-13 -6.00466e-13 -8.32511e-14)
(6.92998e-13 -1.05842e-12 -6.75506e-14)
(5.29021e-13 -9.32273e-13 -5.51528e-14)
(3.9645e-13 -8.22852e-13 -4.54871e-14)
(2.88992e-13 -7.28972e-13 -3.80036e-14)
(2.01659e-13 -6.47875e-13 -3.18775e-14)
(1.30713e-13 -5.77769e-13 -2.73673e-14)
(7.29708e-14 -5.14907e-13 -2.3759e-14)
(2.63915e-14 -2.55135e-13 -2.09307e-14)
(1.48681e-12 -3.6026e-13 -1.71442e-13)
(1.16733e-12 -1.2347e-12 -1.42763e-13)
(8.69149e-13 -1.62178e-12 -1.13645e-13)
(6.40323e-13 -1.37833e-12 -9.13341e-14)
(4.64271e-13 -1.1764e-12 -7.42923e-14)
(3.28158e-13 -1.01e-12 -6.10992e-14)
(2.22615e-13 -8.7162e-13 -5.08474e-14)
(1.40628e-13 -7.56011e-13 -4.28583e-14)
(7.68303e-14 -6.56385e-13 -3.67031e-14)
(2.76123e-14 -3.20485e-13 -3.17768e-14)
(2.07234e-12 -8.97096e-13 -3.03213e-13)
(1.54629e-12 -2.22229e-12 -2.42915e-13)
(1.10315e-12 -2.43444e-12 -1.88053e-13)
(7.81678e-13 -1.98877e-12 -1.47256e-13)
(5.46867e-13 -1.63717e-12 -1.17107e-13)
(3.74064e-13 -1.35928e-12 -9.42406e-14)
(2.46313e-13 -1.13705e-12 -7.68341e-14)
(1.5146e-13 -9.5814e-13 -6.33627e-14)
(8.09543e-14 -8.09901e-13 -5.30986e-14)
(2.88842e-14 -3.89682e-13 -4.49873e-14)
(2.96401e-12 -1.79194e-12 -5.39159e-13)
(2.086e-12 -3.77833e-12 -4.1201e-13)
(1.4187e-12 -3.61821e-12 -3.06826e-13)
(9.62997e-13 -2.83004e-12 -2.32611e-13)
(6.48096e-13 -2.23992e-12 -1.79192e-13)
(4.28126e-13 -1.79423e-12 -1.40353e-13)
(2.73144e-13 -1.45263e-12 -1.11548e-13)
(1.63362e-13 -1.18782e-12 -8.97545e-14)
(8.5303e-14 -9.76699e-13 -7.33719e-14)
(3.01895e-14 -4.62907e-13 -6.08748e-14)
(3.19937e-11 -3.31003e-12 -9.69166e-13)
(2.91053e-12 -6.27465e-12 -6.98589e-13)
(1.84414e-12 -5.36576e-12 -4.96832e-13)
(1.19254e-12 -3.99942e-12 -3.61524e-13)
(7.68221e-13 -3.03269e-12 -2.68647e-13)
(4.87621e-13 -2.33783e-12 -2.03508e-13)
(2.99786e-13 -1.8284e-12 -1.56865e-13)
(1.72949e-13 -1.44907e-12 -1.23111e-13)
(8.67891e-14 -1.15833e-12 -9.79418e-14)
(2.86226e-14 -5.40605e-13 -7.93515e-14)
(7.0948e-08 -8.24913e-11 -8.33909e-12)
(5.44371e-11 -8.22241e-11 -1.19491e-12)
(1.80864e-12 -8.0983e-12 -7.99466e-13)
(1.17184e-12 -5.6355e-12 -5.54588e-13)
(7.79682e-13 -4.07836e-12 -3.95244e-13)
(5.22793e-13 -3.01656e-12 -2.88656e-13)
(3.51307e-13 -2.27447e-12 -2.15447e-13)
(2.3498e-13 -1.74482e-12 -1.63892e-13)
(1.55021e-13 -1.3547e-12 -1.26902e-13)
(9.98349e-14 -6.22449e-13 -1.00185e-13)
(2.28721e-13 3.74985e-13 -1.63486e-14)
(2.15785e-13 3.47202e-13 -1.42563e-14)
(1.89097e-13 -5.45315e-14 -1.1098e-14)
(1.6365e-13 -5.41985e-14 -8.40218e-15)
(1.39355e-13 -5.31162e-14 -6.03671e-15)
(1.16139e-13 -5.209e-14 -4.04473e-15)
(9.39721e-14 -5.10601e-14 -2.55758e-15)
(7.27756e-14 -5.00448e-14 -1.41799e-15)
(5.2527e-14 -4.88652e-14 -8.42534e-16)
(3.32908e-14 -2.55096e-14 -5.81457e-16)
(5.02278e-13 3.40472e-13 -2.41298e-14)
(4.6362e-13 2.40542e-13 -2.09472e-14)
(3.96983e-13 -1.92941e-13 -1.66207e-14)
(3.35056e-13 -1.85998e-13 -1.28691e-14)
(2.77575e-13 -1.78739e-13 -9.96504e-15)
(2.24144e-13 -1.71825e-13 -7.36369e-15)
(1.74471e-13 -1.6521e-13 -5.58171e-15)
(1.28272e-13 -1.58869e-13 -4.15895e-15)
(8.5214e-14 -1.52257e-13 -3.15509e-15)
(4.54486e-14 -7.86538e-14 -2.95377e-15)
(6.22647e-13 2.74286e-13 -3.91431e-14)
(5.53409e-13 7.07043e-14 -3.40664e-14)
(4.5702e-13 -3.89248e-13 -2.73702e-14)
(3.71309e-13 -3.64944e-13 -2.20912e-14)
(2.95288e-13 -3.41648e-13 -1.77177e-14)
(2.27758e-13 -3.20235e-13 -1.43507e-14)
(1.67764e-13 -3.00354e-13 -1.1688e-14)
(1.14414e-13 -2.82099e-13 -9.86595e-15)
(6.68822e-14 -2.64176e-13 -8.6076e-15)
(2.49292e-14 -1.34655e-13 -7.70132e-15)
(8.19906e-13 1.57923e-13 -6.68798e-14)
(7.02077e-13 -1.94654e-13 -5.78587e-14)
(5.62159e-13 -6.67755e-13 -4.71718e-14)
(4.4344e-13 -6.07516e-13 -3.85712e-14)
(3.42854e-13 -5.52745e-13 -3.17928e-14)
(2.57466e-13 -5.04008e-13 -2.65789e-14)
(1.84904e-13 -4.6041e-13 -2.22742e-14)
(1.23215e-13 -4.21602e-13 -1.91988e-14)
(7.07437e-14 -3.853e-13 -1.68278e-14)
(2.64357e-14 -1.93678e-13 -1.50107e-14)
(1.0987e-12 -3.94107e-14 -1.17249e-13)
(9.02801e-13 -6.06673e-13 -9.96533e-14)
(6.98605e-13 -1.06426e-12 -8.07687e-14)
(5.33569e-13 -9.37015e-13 -6.59033e-14)
(4.00194e-13 -8.26634e-13 -5.4391e-14)
(2.92092e-13 -7.32067e-13 -4.55185e-14)
(2.04281e-13 -6.50358e-13 -3.82659e-14)
(1.32902e-13 -5.79749e-13 -3.28601e-14)
(7.48565e-14 -5.16518e-13 -2.84371e-14)
(2.80261e-14 -2.56082e-13 -2.53135e-14)
(1.50096e-12 -3.68496e-13 -2.06772e-13)
(1.17862e-12 -1.24628e-12 -1.7091e-13)
(8.77892e-13 -1.63218e-12 -1.36064e-13)
(6.47216e-13 -1.38659e-12 -1.095e-13)
(4.69756e-13 -1.18304e-12 -8.91884e-14)
(3.3257e-13 -1.01533e-12 -7.34714e-14)
(2.26224e-13 -8.75918e-13 -6.12501e-14)
(1.4356e-13 -7.59476e-13 -5.13542e-14)
(7.92734e-14 -6.59177e-13 -4.40302e-14)
(2.96293e-14 -3.22161e-13 -3.82081e-14)
(2.09616e-12 -9.13885e-13 -3.66001e-13)
(1.5644e-12 -2.24442e-12 -2.91271e-13)
(1.11666e-12 -2.45319e-12 -2.25612e-13)
(7.91913e-13 -2.00332e-12 -1.77095e-13)
(5.547e-13 -1.64857e-12 -1.40729e-13)
(3.80177e-13 -1.36827e-12 -1.13388e-13)
(2.51099e-13 -1.14426e-12 -9.24972e-14)
(1.55247e-13 -9.63896e-13 -7.59394e-14)
(8.3978e-14 -8.14566e-13 -6.36566e-14)
(3.13193e-14 -3.92466e-13 -5.41646e-14)
(3.0044e-12 -1.82596e-12 -6.51551e-13)
(2.11508e-12 -3.82057e-12 -4.95446e-13)
(1.43945e-12 -3.65199e-12 -3.69449e-13)
(9.78009e-13 -2.85539e-12 -2.79851e-13)
(6.59142e-13 -2.2592e-12 -2.15652e-13)
(4.36365e-13 -1.8091e-12 -1.68948e-13)
(2.79373e-13 -1.46432e-12 -1.34248e-13)
(1.68138e-13 -1.19701e-12 -1.07779e-13)
(8.89723e-14 -9.83973e-13 -8.78609e-14)
(3.30671e-14 -4.67196e-13 -7.30148e-14)
(3.25423e-11 -3.3786e-12 -1.17074e-12)
(2.95821e-12 -6.35516e-12 -8.42241e-13)
(1.87579e-12 -5.42614e-12 -5.99385e-13)
(1.21436e-12 -4.04304e-12 -4.35858e-13)
(7.83591e-13 -3.06479e-12 -3.23832e-13)
(4.98617e-13 -2.3618e-12 -2.45102e-13)
(3.07788e-13 -1.84663e-12 -1.89157e-13)
(1.78846e-13 -1.46314e-12 -1.48105e-13)
(9.11705e-14 -1.16927e-12 -1.17453e-13)
(3.19207e-14 -5.4688e-13 -9.51722e-14)
(7.29958e-08 -8.35415e-11 -5.45368e-12)
(5.68484e-11 -8.36224e-11 -1.42364e-12)
(1.83699e-12 -8.20779e-12 -9.66886e-13)
(1.19122e-12 -5.70942e-12 -6.70423e-13)
(7.93191e-13 -4.13051e-12 -4.77683e-13)
(5.32472e-13 -3.05423e-12 -3.48531e-13)
(3.58413e-13 -2.30228e-12 -2.60014e-13)
(2.40296e-13 -1.76571e-12 -1.97769e-13)
(1.59082e-13 -1.37053e-12 -1.52471e-13)
(1.02978e-13 -6.31342e-13 -1.20431e-13)
(2.295e-13 3.7452e-13 -1.88617e-14)
(2.16351e-13 3.46043e-13 -1.50179e-14)
(1.89586e-13 -5.58118e-14 -1.16836e-14)
(1.6404e-13 -5.52323e-14 -8.87468e-15)
(1.39685e-13 -5.40319e-14 -7.03252e-15)
(1.16448e-13 -5.28222e-14 -5.61179e-15)
(9.42693e-14 -5.1642e-14 -4.98716e-15)
(7.31003e-14 -5.0496e-14 -7.01995e-15)
(5.29168e-14 -4.92099e-14 -2.30668e-14)
(3.3719e-14 -2.62462e-14 -7.94531e-14)
(5.04176e-13 3.39678e-13 -2.74625e-14)
(4.65129e-13 2.39008e-13 -2.14111e-14)
(3.98259e-13 -1.94559e-13 -1.72218e-14)
(3.36142e-13 -1.8741e-13 -1.35796e-14)
(2.78511e-13 -1.79902e-13 -1.09042e-14)
(2.25005e-13 -1.72704e-13 -9.15789e-15)
(1.75257e-13 -1.65891e-13 -8.2028e-15)
(1.29019e-13 -1.59551e-13 -9.12482e-15)
(8.59927e-14 -1.52906e-13 -1.74239e-14)
(4.61875e-14 -7.99703e-14 -5.40557e-14)
(6.25998e-13 2.72975e-13 -4.46157e-14)
(5.56155e-13 6.83476e-14 -3.55079e-14)
(4.59317e-13 -3.91637e-13 -2.87609e-14)
(3.73281e-13 -3.669e-13 -2.35798e-14)
(2.97016e-13 -3.43249e-13 -1.93972e-14)
(2.29324e-13 -3.21505e-13 -1.67668e-14)
(1.69147e-13 -3.01437e-13 -1.52565e-14)
(1.15669e-13 -2.82932e-13 -1.46755e-14)
(6.80975e-14 -2.65009e-13 -1.8921e-14)
(2.60459e-14 -1.36241e-13 -4.13536e-14)
(8.25695e-13 1.55503e-13 -7.64483e-14)
(7.0675e-13 -1.98477e-13 -6.13687e-14)
(5.66044e-13 -6.71505e-13 -5.0215e-14)
(4.46715e-13 -6.10572e-13 -4.16604e-14)
(3.45677e-13 -5.5518e-13 -3.51056e-14)