/*--------------------------------*- C++ -*----------------------------------*\
| =========                 |                                                 |
| \\      /  F ield         | OpenFOAM: The Open Source CFD Toolbox           |
|  \\    /   O peration     | Version:  4.1                                   |
|   \\  /    A nd           | Web:      www.OpenFOAM.org                      |
|    \\/     M anipulation  |                                                 |
\*---------------------------------------------------------------------------*/
FoamFile
{
    version     2.0;
    format      ascii;
    class       volScalarField;
    location    "0.34";
    object      Ma;
}
// * * * * * * * * * * * * * * * * * * * * * * * * * * * * * * * * * * * * * //

dimensions      [0 0 0 0 0 0 0];

internalField   nonuniform List<scalar> 
52500
(
3.13054
3.27104
3.26408
3.25692
3.24602
3.22391
3.1977
3.15139
3.05582
2.87431
2.48267
1.55987
0.125577
0.500446
0.506673
0.396153
0.379442
0.378543
0.365113
0.341998
0.302093
0.245402
0.180952
0.14357
0.0340134
3.13053
3.27104
3.26408
3.25692
3.24601
3.2239
3.1977
3.15176
3.05669
2.87776
2.49532
1.59651
0.170344
0.496241
0.50961
0.396005
0.378886
0.378498
0.366172
0.344677
0.307288
0.253526
0.192714
0.160173
0.0804895
3.13053
3.27104
3.26408
3.25692
3.246
3.22387
3.19772
3.15252
3.05811
2.88494
2.52036
1.66841
0.258765
0.49081
0.520279
0.399873
0.380706
0.381751
0.3715
0.352794
0.320025
0.271903
0.218009
0.193433
0.137527
3.13053
3.27103
3.26407
3.25689
3.24598
3.22386
3.19772
3.15344
3.06006
2.89521
2.55479
1.77025
0.401641
0.477624
0.536471
0.406938
0.384154
0.387249
0.379886
0.365192
0.339382
0.298875
0.25308
0.237044
0.197303
3.13053
3.27103
3.26407
3.25688
3.24596
3.22385
3.19775
3.1543
3.06265
2.90699
2.59363
1.88788
0.580643
0.453356
0.555995
0.419665
0.389794
0.395326
0.392031
0.381238
0.363496
0.33189
0.294316
0.286967
0.258814
3.13053
3.27104
3.26406
3.257
3.24598
3.22375
3.19801
3.15484
3.06384
2.91876
2.63425
2.01422
0.794996
0.407417
0.576393
0.440949
0.397791
0.405591
0.408475
0.401835
0.392042
0.370754
0.341461
0.343237
0.325947
3.13053
3.27104
3.26405
3.25708
3.246
3.22372
3.19808
3.15535
3.06551
2.93037
2.67293
2.13514
1.05604
0.335013
0.590524
0.471557
0.409194
0.418049
0.428413
0.427158
0.424454
0.414371
0.393703
0.406195
0.402649
3.13052
3.27104
3.26404
3.25709
3.24601
3.22374
3.19792
3.15569
3.06713
2.94012
2.70849
2.24315
1.32768
0.274907
0.594
0.511786
0.424964
0.43271
0.450806
0.456876
0.460888
0.462829
0.451472
0.477309
0.493688
3.13053
3.27104
3.26403
3.2571
3.24598
3.2237
3.1979
3.15581
3.06742
2.94747
2.74016
2.33147
1.57791
0.410478
0.578902
0.560575
0.447333
0.449296
0.474722
0.490042
0.500701
0.516332
0.516751
0.555827
0.609791
3.13053
3.27104
3.26403
3.25709
3.24598
3.2237
3.19784
3.15584
3.06751
2.95237
2.766
2.40008
1.78636
0.733627
0.522164
0.610714
0.478037
0.467309
0.499282
0.525775
0.543831
0.57363
0.593171
0.649521
0.790053
3.13052
3.27103
3.26406
3.2569
3.24599
3.22388
3.19766
3.15131
3.05572
2.87421
2.4825
1.55933
0.124675
0.500361
0.50641
0.395947
0.379325
0.378485
0.36507
0.341952
0.302018
0.24529
0.180785
0.143335
0.0329945
3.13052
3.27103
3.26407
3.25691
3.246
3.22389
3.1977
3.15174
3.05667
2.87774
2.49525
1.5962
0.169676
0.495667
0.50913
0.395733
0.3788
0.378462
0.36614
0.344636
0.307221
0.253426
0.192565
0.159957
0.080079
3.13053
3.27103
3.26406
3.25691
3.24597
3.22384
3.1977
3.15243
3.05793
2.88462
2.5196
1.66606
0.255439
0.491916
0.520723
0.400284
0.38087
0.381791
0.371484
0.35275
0.319952
0.2718
0.217868
0.193241
0.137295
3.13053
3.27103
3.26407
3.2569
3.24599
3.22388
3.19776
3.15349
3.06012
2.8952
2.55453
1.76918
0.400127
0.477551
0.536371
0.407131
0.384295
0.387286
0.37986
0.365133
0.339298
0.298773
0.252955
0.236883
0.197147
3.13053
3.27103
3.26406
3.25688
3.24595
3.22383
3.19776
3.15426
3.06255
2.90673
2.59288
1.88564
0.577099
0.455204
0.556427
0.419989
0.389892
0.395299
0.391966
0.381149
0.363395
0.331787
0.294207
0.286832
0.258703
3.13053
3.27105
3.26408
3.25701
3.24602
3.22381
3.19805
3.15496
3.06408
2.91899
2.63446
2.0142
0.794586
0.407995
0.575955
0.440635
0.397495
0.405402
0.408341
0.401712
0.391928
0.37065
0.341364
0.343122
0.325864
3.13053
3.27104
3.26406
3.25707
3.24602
3.22375
3.19807
3.15542
3.06572
2.93056
2.67323
2.13576
1.0572
0.334909
0.589744
0.471061
0.408789
0.417732
0.428218
0.427006
0.424331
0.414267
0.393617
0.406102
0.402583
3.13053
3.27105
3.26406
3.2571
3.24606
3.22379
3.19799
3.15583
3.06734
2.94031
2.70862
2.24321
1.32773
0.274636
0.593999
0.511585
0.424688
0.4324
0.450589
0.456716
0.460768
0.46273
0.451393
0.477235
0.493635
3.13053
3.27105
3.26405
3.2571
3.24603
3.22376
3.19793
3.15593
3.06769
2.94771
2.74045
2.33196
1.57847
0.41087
0.578853
0.560401
0.447037
0.449001
0.47451
0.489887
0.500586
0.516234
0.516679
0.555771
0.609748
3.13054
3.27105
3.26406
3.25711
3.24606
3.2238
3.19789
3.15603
3.06791
2.95274
2.76642
2.40071
1.78718
0.734588
0.521779
0.610471
0.477761
0.467011
0.499058
0.525638
0.543731
0.57355
0.593108
0.64949
0.790009
3.13053
3.27104
3.26408
3.25692
3.24602
3.22392
3.19772
3.1514
3.05584
2.87431
2.48248
1.55896
0.124157
0.500691
0.506669
0.396167
0.379387
0.378478
0.365038
0.341912
0.30199
0.245274
0.180775
0.143329
0.0329951
3.13053
3.27104
3.26408
3.25692
3.24602
3.2239
3.19771
3.15177
3.05672
2.87778
2.49521
1.59594
0.169526
0.496279
0.509439
0.395898
0.378776
0.378414
0.366093
0.344592
0.307193
0.25341
0.192557
0.159952
0.0800795
3.13053
3.27104
3.26408
3.25692
3.24602
3.22389
3.19775
3.15256
3.05819
2.885
2.52031
1.66786
0.257861
0.490943
0.520186
0.399773
0.380599
0.381665
0.371417
0.352705
0.319927
0.271786
0.217862
0.193238
0.137296
3.13053
3.27103
3.26407
3.2569
3.24598
3.22387
3.19774
3.15347
3.06012
2.89527
2.55478
1.76995
0.401101
0.477569
0.53632
0.406815
0.384044
0.38716
0.3798
0.365101
0.339282
0.298765
0.252952
0.236882
0.197149
3.13053
3.27104
3.26408
3.25689
3.24599
3.2239
3.19779
3.1544
3.06281
2.90709
2.59358
1.88736
0.579626
0.453671
0.556013
0.419645
0.38971
0.395236
0.391944
0.381145
0.363395
0.331788
0.294209
0.286834
0.258706
3.13053
3.27105
3.26407
3.257
3.246
3.22377
3.19804
3.1549
3.06393
2.91882
2.63418
2.01373
0.793934
0.408055
0.576537
0.440956
0.397657
0.405472
0.408373
0.401739
0.391944
0.37066
0.341371
0.343126
0.325868
3.13053
3.27105
3.26407
3.25709
3.24605
3.22379
3.19813
3.15551
3.06584
2.93068
2.67329
2.13556
1.05636
0.335107
0.590207
0.471376
0.409011
0.41786
0.428282
0.427051
0.424357
0.414282
0.393628
0.406108
0.402588
3.13053
3.27104
3.26405
3.25709
3.24603
3.22377
3.19795
3.15577
3.06726
2.94022
2.70853
2.24309
1.32734
0.274912
0.594144
0.511665
0.424767
0.432483
0.450642
0.456758
0.460796
0.462747
0.451405
0.477242
0.49364
3.13054
3.27106
3.26406
3.25711
3.24605
3.22379
3.19796
3.15599
3.06781
2.94785
2.74058
2.33204
1.57827
0.410705
0.57897
0.560345
0.447012
0.449028
0.474539
0.489915
0.50061
0.516251
0.516691
0.555779
0.609752
3.13053
3.27105
3.26405
3.2571
3.24603
3.22378
3.19785
3.15596
3.06783
2.95268
2.76642
2.40078
1.78722
0.734609
0.521813
0.610353
0.477699
0.467012
0.49908
0.525659
0.543749
0.573565
0.593119
0.649499
0.790014
3.13053
3.27104
3.26409
3.25693
3.24603
3.22393
3.19773
3.15142
3.05588
2.87437
2.48253
1.55895
0.124099
0.500701
0.506654
0.396165
0.379384
0.378473
0.36503
0.341904
0.301987
0.245273
0.180777
0.143329
0.0329947
3.13053
3.27104
3.26408
3.25693
3.24603
3.22392
3.19774
3.1518
3.05678
2.87786
2.49528
1.59594
0.169456
0.49626
0.509413
0.395893
0.378776
0.378409
0.366083
0.344583
0.307189
0.253408
0.192558
0.159952
0.0800793
3.13053
3.27104
3.26408
3.25693
3.24602
3.2239
3.19776
3.15257
3.05821
2.88503
2.52032
1.66776
0.257638
0.490956
0.520211
0.399816
0.380624
0.381663
0.371404
0.352691
0.319919
0.271783
0.217861
0.193237
0.137296
3.13053
3.27104
3.26408
3.25691
3.24601
3.2239
3.19778
3.15353
3.06021
2.89534
2.55477
1.76965
0.400515
0.477851
0.536496
0.406993
0.384105
0.387155
0.379779
0.365077
0.339269
0.298758
0.252949
0.23688
0.197149
3.13053
3.27104
3.26408
3.25689
3.24599
3.2239
3.19779
3.15441
3.06283
2.90708
2.59345
1.88689
0.578816
0.454508
0.55622
0.419786
0.389724
0.395204
0.39191
0.381108
0.363374
0.331778
0.294205
0.286832
0.258705
3.13053
3.27105
3.26408
3.25701
3.24603
3.22382
3.19806
3.155
3.06415
2.91909
2.63464
2.01467
0.795369
0.407549
0.575983
0.44061
0.397479
0.405377
0.408323
0.401693
0.391917
0.370647
0.341365
0.343124
0.325868
3.13054
3.27106
3.26408
3.25709
3.24605
3.22379
3.19813
3.15551
3.06586
2.93071
2.67339
2.13589
1.05721
0.334628
0.58995
0.471204
0.408835
0.41776
0.42823
0.427007
0.424331
0.414269
0.393622
0.406105
0.402588
3.13054
3.27106
3.26407
3.25711
3.24607
3.22381
3.19801
3.15587
3.0674
2.94037
2.70869
2.24324
1.32755
0.274453
0.594154
0.511726
0.424744
0.432441
0.450612
0.456727
0.460774
0.462735
0.451399
0.47724
0.49364
3.13054
3.27106
3.26407
3.25712
3.24605
3.2238
3.19797
3.156
3.06782
2.94786
2.74059
2.33205
1.57832
0.410658
0.578959
0.560469
0.447073
0.449028
0.474527
0.489896
0.500593
0.51624
0.516685
0.555776
0.609752
3.13054
3.27106
3.26407
3.25712
3.24607
3.22382
3.19791
3.15606
3.06798
2.95283
2.76653
2.40081
1.78713
0.734336
0.52189
0.610487
0.477775
0.467023
0.499063
0.52564
0.543734
0.573554
0.593113
0.649495
0.790012
3.13054
3.27105
3.26409
3.25693
3.24603
3.22394
3.19774
3.15143
3.05589
2.8744
2.48259
1.55903
0.124145
0.500691
0.506658
0.39617
0.379382
0.37846
0.365015
0.341891
0.301976
0.24526
0.180761
0.143328
0.0329807
3.13054
3.27105
3.26409
3.25693
3.24603
3.22393
3.19775
3.15181
3.0568
2.87789
2.49533
1.596
0.169478
0.496273
0.509433
0.395908
0.378778
0.378395
0.366064
0.344564
0.30717
0.253387
0.192536
0.159959
0.0800639
3.13053
3.27105
3.26409
3.25693
3.24603
3.22391
3.19777
3.15259
3.05823
2.88506
2.52036
1.66783
0.257694
0.490949
0.520212
0.399823
0.380629
0.381655
0.371391
0.352679
0.319908
0.271772
0.217855
0.193259
0.137287
3.13053
3.27104
3.26409
3.25691
3.24601
3.2239
3.19779
3.15354
3.06022
2.89536
2.55481
1.76972
0.400579
0.477849
0.536501
0.406997
0.38411
0.387153
0.379772
0.365072
0.339266
0.298755
0.252949
0.2369
0.197146
3.13053
3.27104
3.26409
3.25689
3.24599
3.2239
3.19781
3.15442
3.06284
2.90711
2.59351
1.88699
0.578927
0.454471
0.556222
0.419788
0.389727
0.395203
0.391907
0.381107
0.363376
0.331775
0.2942
0.286841
0.258702
3.13054
3.27106
3.26409
3.25701
3.24603
3.22382
3.19807
3.15501
3.06416
2.91911
2.63468
2.01475
0.795492
0.407491
0.575984
0.440622
0.397481
0.405374
0.40832
0.401694
0.391921
0.370645
0.341358
0.343123
0.32586
3.13054
3.27106
3.26408
3.25709
3.24606
3.2238
3.19814
3.15552
3.06587
2.93072
2.67341
2.13596
1.05733
0.334561
0.589949
0.471223
0.408847
0.417764
0.428231
0.42701
0.424335
0.414271
0.393614
0.406095
0.402581
3.13054
3.27106
3.26407
3.25711
3.24607
3.22381
3.19801
3.15587
3.0674
2.94037
2.7087
2.24328
1.32766
0.274432
0.594148
0.51175
0.424769
0.432456
0.450618
0.456732
0.460779
0.462741
0.451396
0.477228
0.493637
3.13054
3.27106
3.26407
3.25712
3.24605
3.2238
3.19797
3.15599
3.06781
2.94784
2.7406
2.33209
1.57843
0.410774
0.578945
0.560501
0.447105
0.449051
0.47454
0.489904
0.500599
0.516249
0.516688
0.555765
0.609747
3.13054
3.27106
3.26407
3.25712
3.24607
3.22382
3.19791
3.15606
3.06797
2.95282
2.76655
2.40086
1.78721
0.734418
0.52187
0.610517
0.477806
0.467047
0.499078
0.52565
0.543741
0.573563
0.593121
0.64949
0.790013
3.13053
3.27104
3.26408
3.25693
3.24603
3.22393
3.19773
3.15142
3.05588
2.87437
2.48253
1.55893
0.124075
0.500705
0.506654
0.396165
0.379382
0.37847
0.365026
0.3419
0.301985
0.245271
0.180775
0.143329
0.0329943
3.13053
3.27104
3.26408
3.25693
3.24603
3.22392
3.19774
3.1518
3.05678
2.87786
2.49527
1.59593
0.169436
0.496265
0.509411
0.395892
0.378774
0.378405
0.366079
0.344578
0.307186
0.253406
0.192556
0.159951
0.0800786
3.13053
3.27104
3.26408
3.25693
3.24602
3.2239
3.19776
3.15257
3.05821
2.88503
2.52031
1.66775
0.257622
0.490957
0.520208
0.399812
0.380619
0.381658
0.371398
0.352686
0.319915
0.27178
0.217858
0.193235
0.137294
3.13053
3.27104
3.26408
3.25691
3.24601
3.2239
3.19778
3.15353
3.0602
2.89533
2.55476
1.76964
0.400505
0.477857
0.536494
0.406989
0.384098
0.387148
0.379772
0.365071
0.339264
0.298755
0.252946
0.236878
0.197147
3.13053
3.27104
3.26408
3.25689
3.24599
3.2239
3.19779
3.15441
3.06283
2.90707
2.59345
1.8869
0.578837
0.454499
0.556212
0.419777
0.389715
0.395197
0.391903
0.381102
0.363368
0.331774
0.294202
0.286829
0.258703
3.13053
3.27105
3.26408
3.25701
3.24602
3.22382
3.19806
3.155
3.06414
2.91908
2.63463
2.01468
0.795424
0.407521
0.575972
0.440602
0.397469
0.405371
0.408318
0.401688
0.391912
0.370643
0.341362
0.343121
0.325865
3.13054
3.27106
3.26407
3.25709
3.24605
3.22379
3.19812
3.15551
3.06586
2.9307
2.67337
2.1359
1.05729
0.334585
0.589935
0.471202
0.408831
0.417759
0.42823
0.427005
0.424328
0.414266
0.393619
0.406103
0.402585
3.13054
3.27106
3.26407
3.2571
3.24607
3.2238
3.19801
3.15586
3.06739
2.94035
2.70867
2.24324
1.32764
0.274438
0.594137
0.511735
0.424752
0.432449
0.450617
0.456729
0.460774
0.462733
0.451397
0.477237
0.493637
3.13054
3.27106
3.26406
3.25711
3.24605
3.22379
3.19796
3.15598
3.06779
2.94782
2.74056
2.33203
1.57839
0.410753
0.578941
0.56049
0.447092
0.449046
0.474539
0.489903
0.500597
0.516241
0.516685
0.555774
0.609749
3.13054
3.27106
3.26407
3.25711
3.24606
3.22381
3.1979
3.15605
3.06796
2.9528
2.7665
2.4008
1.78717
0.734391
0.521874
0.610509
0.477799
0.467046
0.499079
0.525652
0.543741
0.573557
0.593114
0.649495
0.79001
3.13053
3.27104
3.26409
3.25693
3.24603
3.22393
3.19773
3.15142
3.05588
2.87437
2.48253
1.55895
0.124099
0.5007
0.506654
0.396164
0.379384
0.378473
0.36503
0.341904
0.301987
0.245273
0.180777
0.143329
0.0329948
3.13053
3.27104
3.26408
3.25693
3.24603
3.22392
3.19774
3.1518
3.05678
2.87786
2.49528
1.59594
0.169455
0.49626
0.509413
0.395893
0.378776
0.378409
0.366083
0.344583
0.307189
0.253408
0.192558
0.159952
0.0800793
3.13053
3.27104
3.26408
3.25693
3.24602
3.2239
3.19776
3.15257
3.05821
2.88503
2.52032
1.66776
0.257637
0.490956
0.520211
0.399816
0.380624
0.381663
0.371404
0.352691
0.319919
0.271783
0.217861
0.193237
0.137296
3.13053
3.27104
3.26408
3.25691
3.24601
3.2239
3.19778
3.15353
3.06021
2.89534
2.55477
1.76965
0.400515
0.477851
0.536495
0.406993
0.384105
0.387155
0.379779
0.365077
0.339269
0.298758
0.252949
0.23688
0.197149
3.13053
3.27104
3.26408
3.25689
3.24599
3.2239
3.19779
3.15441
3.06283
2.90708
2.59345
1.88689
0.578815
0.454508
0.55622
0.419786
0.389724
0.395204
0.39191
0.381108
0.363374
0.331778
0.294205
0.286832
0.258705
3.13053
3.27105
3.26408
3.25701
3.24603
3.22382
3.19806
3.155
3.06415
2.91909
2.63464
2.01467
0.795369
0.407549
0.575983
0.44061
0.397479
0.405377
0.408323
0.401693
0.391917
0.370647
0.341365
0.343124
0.325868
3.13054
3.27106
3.26408
3.25709
3.24605
3.22379
3.19813
3.15551
3.06586
2.93071
2.67339
2.13589
1.05721
0.334628
0.58995
0.471204
0.408835
0.41776
0.42823
0.427007
0.424331
0.414269
0.393622
0.406105
0.402588
3.13054
3.27106
3.26407
3.25711
3.24607
3.22381
3.19801
3.15587
3.0674
2.94037
2.70869
2.24324
1.32755
0.274453
0.594154
0.511726
0.424743
0.432441
0.450612
0.456727
0.460774
0.462735
0.451399
0.47724
0.49364
3.13054
3.27106
3.26407
3.25712
3.24605
3.2238
3.19797
3.156
3.06782
2.94786
2.74059
2.33205
1.57832
0.410658
0.578959
0.560469
0.447073
0.449028
0.474527
0.489896
0.500593
0.51624
0.516685
0.555776
0.609752
3.13054
3.27106
3.26407
3.25712
3.24607
3.22382
3.19791
3.15606
3.06798
2.95283
2.76653
2.40081
1.78713
0.734336
0.52189
0.610487
0.477775
0.467023
0.499063
0.52564
0.543734
0.573554
0.593113
0.649495
0.790012
3.13053
3.27104
3.26408
3.25692
3.24602
3.22392
3.19772
3.1514
3.05584
2.87431
2.48248
1.55896
0.124157
0.500691
0.506669
0.396167
0.379387
0.378478
0.365038
0.341912
0.30199
0.245274
0.180775
0.143329
0.0329951
3.13053
3.27104
3.26408
3.25692
3.24602
3.2239
3.19771
3.15177
3.05672
2.87778
2.49521
1.59594
0.169526
0.496279
0.509439
0.395898
0.378776
0.378414
0.366093
0.344592
0.307193
0.25341
0.192557
0.159952
0.0800795
3.13053
3.27104
3.26408
3.25692
3.24602
3.22389
3.19775
3.15256
3.05819
2.885
2.52031
1.66786
0.257861
0.490943
0.520186
0.399773
0.380599
0.381665
0.371417
0.352705
0.319927
0.271786
0.217862
0.193238
0.137296
3.13053
3.27103
3.26407
3.2569
3.24598
3.22387
3.19774
3.15347
3.06012
2.89527
2.55478
1.76995
0.401101
0.477569
0.53632
0.406815
0.384044
0.38716
0.3798
0.365101
0.339282
0.298765
0.252952
0.236882
0.197149
3.13053
3.27104
3.26408
3.25689
3.24599
3.2239
3.19779
3.1544
3.06281
2.90709
2.59358
1.88736
0.579626
0.453671
0.556013
0.419645
0.38971
0.395236
0.391944
0.381145
0.363395
0.331788
0.294209
0.286833
0.258706
3.13053
3.27105
3.26407
3.257
3.246
3.22377
3.19804
3.1549
3.06393
2.91882
2.63418
2.01373
0.793934
0.408056
0.576537
0.440956
0.397657
0.405472
0.408373
0.401739
0.391944
0.37066
0.341371
0.343126
0.325868
3.13053
3.27105
3.26407
3.25709
3.24605
3.22379
3.19813
3.15551
3.06584
2.93068
2.67329
2.13556
1.05636
0.335107
0.590207
0.471376
0.409011
0.41786
0.428282
0.427051
0.424357
0.414282
0.393628
0.406108
0.402588
3.13053
3.27104
3.26405
3.25709
3.24603
3.22377
3.19795
3.15577
3.06726
2.94022
2.70853
2.24309
1.32734
0.274912
0.594144
0.511665
0.424767
0.432483
0.450642
0.456758
0.460796
0.462747
0.451405
0.477242
0.49364
3.13054
3.27106
3.26406
3.25711
3.24605
3.22379
3.19796
3.15599
3.06781
2.94785
2.74058
2.33204
1.57827
0.410705
0.57897
0.560345
0.447012
0.449028
0.474539
0.489915
0.50061
0.516251
0.516691
0.555779
0.609752
3.13053
3.27105
3.26405
3.2571
3.24603
3.22378
3.19785
3.15596
3.06783
2.95268
2.76642
2.40078
1.78722
0.734609
0.521813
0.610353
0.477699
0.467012
0.49908
0.525659
0.543749
0.573565
0.593119
0.649499
0.790014
3.13052
3.27103
3.26406
3.2569
3.24599
3.22388
3.19766
3.15131
3.05572
2.87421
2.4825
1.55933
0.124676
0.500361
0.50641
0.395947
0.379325
0.378485
0.36507
0.341952
0.302018
0.24529
0.180785
0.143335
0.0329945
3.13052
3.27103
3.26407
3.25691
3.246
3.22389
3.1977
3.15174
3.05667
2.87774
2.49525
1.5962
0.169676
0.495667
0.50913
0.395733
0.3788
0.378462
0.36614
0.344636
0.307221
0.253426
0.192565
0.159957
0.080079
3.13053
3.27103
3.26406
3.25691
3.24597
3.22384
3.1977
3.15243
3.05793
2.88462
2.5196
1.66606
0.255439
0.491916
0.520724
0.400284
0.38087
0.381791
0.371484
0.35275
0.319952
0.2718
0.217868
0.193241
0.137295
3.13053
3.27103
3.26407
3.2569
3.24599
3.22388
3.19776
3.15349
3.06012
2.8952
2.55453
1.76918
0.400129
0.47755
0.536371
0.407131
0.384295
0.387286
0.37986
0.365133
0.339299
0.298773
0.252955
0.236883
0.197147
3.13053
3.27103
3.26406
3.25688
3.24595
3.22383
3.19776
3.15426
3.06255
2.90673
2.59288
1.88564
0.577101
0.455203
0.556426
0.419989
0.389893
0.3953
0.391966
0.381149
0.363396
0.331787
0.294207
0.286832
0.258703
3.13053
3.27105
3.26408
3.25701
3.24602
3.22381
3.19805
3.15496
3.06408
2.91899
2.63446
2.0142
0.794587
0.407996
0.575955
0.440635
0.397495
0.405402
0.408341
0.401712
0.391928
0.37065
0.341364
0.343122
0.325864
3.13053
3.27104
3.26406
3.25707
3.24602
3.22375
3.19807
3.15542
3.06572
2.93056
2.67323
2.13576
1.05721
0.334909
0.589745
0.471062
0.408789
0.417733
0.428219
0.427006
0.424331
0.414267
0.393617
0.406102
0.402583
3.13053
3.27105
3.26406
3.2571
3.24606
3.22379
3.19799
3.15583
3.06734
2.94031
2.70862
2.24322
1.32773
0.274636
0.593999
0.511585
0.424688
0.4324
0.450589
0.456716
0.460768
0.46273
0.451393
0.477235
0.493635
3.13053
3.27105
3.26405
3.2571
3.24603
3.22376
3.19793
3.15593
3.06769
2.94771
2.74045
2.33196
1.57847
0.410868
0.578854
0.560401
0.447037
0.449001
0.47451
0.489887
0.500586
0.516234
0.516679
0.555771
0.609748
3.13054
3.27105
3.26406
3.25711
3.24606
3.2238
3.19789
3.15603
3.06791
2.95274
2.76642
2.40071
1.78718
0.734586
0.521779
0.610471
0.477761
0.467011
0.499058
0.525638
0.543731
0.57355
0.593108
0.64949
0.790009
3.13053
3.27104
3.26408
3.25692
3.24601
3.22391
3.19769
3.15137
3.0558
2.87429
2.48266
1.55984
0.125514
0.500613
0.506774
0.396238
0.379499
0.37858
0.36515
0.342036
0.302132
0.245443
0.180991
0.143597
0.0340155
3.13053
3.27104
3.26408
3.25692
3.24601
3.22389
3.19769
3.15173
3.05666
2.87777
2.49546
1.597
0.17098
0.495759
0.509348
0.395822
0.378852
0.378496
0.366186
0.344691
0.307298
0.25353
0.192708
0.160179
0.0804888
3.13053
3.27104
3.26408
3.25692
3.24601
3.22387
3.19772
3.15252
3.0581
2.88496
2.52051
1.66892
0.259316
0.490237
0.520126
0.399809
0.380769
0.38179
0.371526
0.352808
0.320032
0.271901
0.217998
0.193429
0.137531
3.13054
3.27103
3.26406
3.25691
3.24597
3.22384
3.19774
3.1534
3.05993
2.89497
2.55426
1.76885
0.399538
0.478843
0.537213
0.407596
0.384459
0.387347
0.379931
0.365208
0.339389
0.298877
0.253076
0.237043
0.197305
3.13053
3.27103
3.26407
3.25688
3.24596
3.22386
3.19776
3.15432
3.06268
2.90696
2.59343
1.88708
0.579308
0.45464
0.556266
0.419965
0.389938
0.395385
0.39207
0.381244
0.363499
0.331891
0.294314
0.286967
0.258822
3.13052
3.27104
3.26406
3.257
3.24598
3.22375
3.19799
3.15484
3.06388
2.9189
2.63472
2.01547
0.797218
0.406696
0.575562
0.440518
0.397553
0.405511
0.408468
0.401824
0.392043
0.370756
0.341462
0.343238
0.325955
3.13054
3.27105
3.26406
3.25709
3.24602
3.22374
3.19811
3.1554
3.0656
2.93051
2.67319
2.13581
1.0575
0.334137
0.590107
0.471458
0.409077
0.41795
0.428387
0.427138
0.424454
0.414376
0.393707
0.406197
0.402655
3.13053
3.27104
3.26403
3.25708
3.246
3.22371
3.19794
3.15567
3.06701
2.93995
2.70823
2.24271
1.32685
0.274137
0.594614
0.512099
0.425104
0.432683
0.450803
0.456865
0.460891
0.462835
0.451478
0.477312
0.493693
3.13054
3.27105
3.26405
3.25711
3.24602
3.22376
3.19793
3.15591
3.06767
2.94776
2.74054
2.33206
1.57832
0.410805
0.578988
0.56064
0.447342
0.449255
0.474722
0.49003
0.5007
0.516336
0.516756
0.555831
0.609795
3.13053
3.27104
3.26403
3.25709
3.24598
3.2237
3.19783
3.15584
3.06753
2.9524
2.76613
2.40031
1.78658
0.733914
0.522067
0.610658
0.477985
0.467247
0.499261
0.525755
0.543825
0.57363
0.593175
0.649525
0.790057
3.13052
3.27103
3.26403
3.25706
3.24599
3.22373
3.19778
3.15586
3.06768
2.95489
2.78378
2.44896
1.95087
1.1071
0.416051
0.64298
0.520633
0.48644
0.524298
0.562713
0.588915
0.629391
0.67645
0.748233
0.985996
3.13052
3.27103
3.26403
3.25704
3.24598
3.22372
3.19774
3.15577
3.06736
2.95378
2.79311
2.47771
2.07244
1.42056
0.422678
0.64103
0.575677
0.509367
0.548975
0.599417
0.635541
0.679056
0.755653
0.829082
1.0591
3.13051
3.27102
3.26404
3.25703
3.24599
3.22375
3.19767
3.15583
3.06835
2.95153
2.79452
2.49133
2.14822
1.65085
0.747809
0.573985
0.634797
0.540179
0.572402
0.634515
0.680743
0.722439
0.8132
0.877918
1.05848
3.13051
3.27102
3.26403
3.25703
3.24598
3.22374
3.19766
3.15583
3.0689
2.95005
2.79277
2.49586
2.18854
1.80671
1.15277
0.467286
0.670334
0.581005
0.592956
0.665998
0.722481
0.758189
0.853535
0.913768
1.0453
3.13052
3.27102
3.26403
3.25704
3.24598
3.22373
3.1977
3.15581
3.06903
2.94856
2.79065
2.49586
2.20312
1.90314
1.43345
0.57304
0.650958
0.635268
0.61304
0.689882
0.754619
0.788996
0.879298
0.941139
1.03044
3.13051
3.27102
3.26403
3.25704
3.24598
3.22372
3.19771
3.1558
3.06895
2.9486
2.79069
2.49476
2.2014
1.96184
1.6213
0.96761
0.57723
0.683416
0.639349
0.704222
0.775917
0.810219
0.893501
0.954648
1.02066
3.13051
3.27102
3.26403
3.25704
3.24598
3.22373
3.19771
3.15579
3.06894
2.94862
2.79059
2.4946
2.20226
1.98594
1.72836
1.29729
0.584597
0.699408
0.679236
0.71438
0.788031
0.824471
0.895999
0.958119
1.01789
3.13051
3.27102
3.26402
3.25704
3.24597
3.22372
3.1977
3.15578
3.06894
2.94855
2.79052
2.49609
2.20156
1.99401
1.79045
1.50283
0.923725
0.666715
0.719316
0.728463
0.792751
0.835621
0.894592
0.961392
1.01855
3.13051
3.27102
3.26402
3.25704
3.24597
3.22372
3.1977
3.15579
3.06897
2.94855
2.79056
2.49664
2.2005
1.9943
1.80583
1.61418
1.28275
0.717748
0.748932
0.749599
0.79685
0.843768
0.900257
0.961736
1.01842
3.13051
3.27102
3.26402
3.25703
3.24596
3.22371
3.19768
3.15576
3.06893
2.94849
2.7905
2.4965
2.20026
1.99461
1.8093
1.67222
1.48075
1.05873
0.758346
0.773432
0.810603
0.852694
0.909658
0.964152
1.01874
3.1305
3.27102
3.26402
3.25703
3.24598
3.22372
3.19766
3.15579
3.06905
2.9486
2.79078
2.49723
2.20116
1.99597
1.81208
1.68492
1.57494
1.37653
0.935667
0.808564
0.835332
0.867917
0.920641
0.971914
1.02365
3.13051
3.27102
3.26402
3.25703
3.24597
3.22371
3.19768
3.15577
3.06892
2.94846
2.79043
2.49648
2.20031
1.99481
1.81074
1.68544
1.61419
1.52166
1.30284
0.932508
0.871722
0.895603
0.936577
0.985372
1.03244
3.13051
3.27102
3.26402
3.25703
3.24597
3.22371
3.19769
3.15577
3.06893
2.94848
2.79044
2.49646
2.20028
1.99478
1.81076
1.68562
1.62133
1.57888
1.50207
1.27146
0.969493
0.923516
0.961748
1.00459
1.04677
3.1305
3.27102
3.26402
3.25703
3.24598
3.22372
3.19766
3.15579
3.06905
2.94857
2.79071
2.49709
2.20095
1.99581
1.8123
1.68723
1.6243
1.59223
1.57382
1.50723
1.28527
1.01266
0.97566
1.01938
1.06054
3.13051
3.27102
3.26402
3.25703
3.24597
3.22371
3.19769
3.15577
3.06894
2.94846
2.79041
2.49636
2.20012
1.99471
1.81094
1.68573
1.62285
1.59211
1.58799
1.5728
1.51755
1.32167
1.06782
1.01588
1.06164
3.13051
3.27102
3.26402
3.25704
3.24597
3.22372
3.1977
3.15578
3.06892
2.94847
2.79043
2.49643
2.20027
1.99484
1.81098
1.68571
1.6228
1.59215
1.58882
1.58651
1.57245
1.51298
1.36005
1.16629
1.06639
3.13051
3.27102
3.26402
3.25704
3.24597
3.22372
3.1977
3.15578
3.06893
2.9485
2.79049
2.49654
2.20034
1.99489
1.81098
1.68567
1.62275
1.5921
1.58887
1.58799
1.58054
1.54869
1.47814
1.3938
1.28788
3.13051
3.27102
3.26402
3.25703
3.24596
3.2237
3.19767
3.15574
3.0689
2.94844
2.79043
2.49648
2.20016
1.99474
1.81093
1.68565
1.62278
1.59215
1.58894
1.58837
1.58218
1.55429
1.49522
1.44872
1.41492
3.1305
3.27102
3.26402
3.25703
3.24598
3.22373
3.19767
3.1558
3.06908
2.94863
2.7908
2.49724
2.20099
1.9958
1.8122
1.68707
1.62433
1.59373
1.59054
1.58999
1.58377
1.55593
1.49794
1.45567
1.43508
3.13051
3.27101
3.26401
3.25702
3.24595
3.22369
3.19766
3.15572
3.06887
2.94842
2.79042
2.4965
2.20017
1.99477
1.81097
1.68568
1.62281
1.59218
1.58895
1.58842
1.58242
1.55496
1.49736
1.45572
1.4367
3.13051
3.27102
3.26403
3.25704
3.24598
3.22372
3.19771
3.1558
3.06896
2.94851
2.79049
2.4965
2.20032
1.99488
1.81097
1.68569
1.62278
1.59212
1.58891
1.58834
1.58236
1.55488
1.49728
1.45572
1.43685
3.1305
3.27101
3.26401
3.25702
3.24595
3.22369
3.19766
3.15571
3.06883
2.94838
2.79039
2.49647
2.20031
1.99502
1.81134
1.68602
1.6231
1.59244
1.58918
1.58862
1.5826
1.55509
1.49749
1.45585
1.43693
3.13051
3.27102
3.26403
3.25704
3.24598
3.22373
3.19771
3.1558
3.06896
2.94852
2.79049
2.4965
2.20036
1.99491
1.811
1.68572
1.6228
1.59214
1.58891
1.58834
1.58236
1.55487
1.49728
1.45572
1.43687
3.13051
3.27101
3.26401
3.25702
3.24595
3.22368
3.19765
3.1557
3.06884
2.94838
2.79038
2.49647
2.2002
1.99482
1.81104
1.68575
1.62288
1.59224
1.589
1.58845
1.58244
1.55497
1.49738
1.45578
1.4369
3.13051
3.27102
3.26403
3.25703
3.24598
3.22373
3.19768
3.15581
3.06909
2.94865
2.79083
2.49729
2.20106
1.99586
1.81223
1.68709
1.62434
1.59373
1.59055
1.59
1.5838
1.55598
1.49817
1.45634
1.43727
3.13051
3.27101
3.26401
3.25702
3.24595
3.22369
3.19765
3.15571
3.06885
2.94839
2.79039
2.4965
2.20021
1.99482
1.81102
1.68572
1.62283
1.59219
1.58896
1.58842
1.58241
1.55494
1.49736
1.45577
1.4369
3.13051
3.27102
3.26403
3.25704
3.24598
3.22373
3.19772
3.1558
3.06896
2.94854
2.79053
2.49657
2.20038
1.99493
1.811
1.6857
1.62278
1.59212
1.58891
1.58835
1.58237
1.55489
1.49729
1.45573
1.43688
3.13051
3.27101
3.26401
3.25703
3.24595
3.22369
3.19767
3.15573
3.06887
2.94842
2.79044
2.49652
2.20029
1.99497
1.81127
1.68595
1.62304
1.59238
1.58914
1.58859
1.58256
1.55506
1.49747
1.45584
1.43694
3.13051
3.27102
3.26403
3.25704
3.24598
3.22373
3.19772
3.15581
3.06898
2.94854
2.79052
2.49654
2.20035
1.99488
1.81097
1.6857
1.62278
1.59213
1.58891
1.58834
1.58236
1.55488
1.49729
1.45573
1.43687
3.13051
3.27102
3.26402
3.25703
3.24596
3.22371
3.19767
3.15575
3.06892
2.94846
2.79044
2.49648
2.20016
1.99475
1.81096
1.68569
1.62282
1.59219
1.58897
1.58843
1.58244
1.55498
1.49738
1.45579
1.43691
3.13051
3.27102
3.26403
3.25703
3.24598
3.22374
3.19768
3.15582
3.06911
2.94867
2.79086
2.49731
2.20108
1.99587
1.81225
1.68711
1.62435
1.59373
1.59054
1.58998
1.58379
1.55598
1.49817
1.45634
1.43727
3.13051
3.27102
3.26402
3.25704
3.24597
3.22372
3.19769
3.15578
3.06894
2.94849
2.79046
2.4965
2.20024
1.99473
1.81076
1.68546
1.62256
1.59192
1.5887
1.58814
1.58219
1.55477
1.4972
1.45567
1.43684
3.13052
3.27102
3.26403
3.25704
3.24598
3.22373
3.19771
3.15581
3.06901
2.94856
2.79053
2.49654
2.2003
1.99476
1.81074
1.68546
1.62255
1.5919
1.58869
1.58812
1.58218
1.55474
1.49717
1.45565
1.43682
3.13051
3.27102
3.26403
3.25703
3.24598
3.22374
3.19768
3.15581
3.06908
2.94862
2.79077
2.49715
2.20105
1.9959
1.81236
1.68724
1.62445
1.59382
1.59059
1.59
1.58381
1.55599
1.49818
1.45635
1.43726
3.13052
3.27103
3.26404
3.25705
3.24599
3.22375
3.19773
3.15584
3.06904
2.94857
2.79051
2.49644
2.20024
1.9947
1.81073
1.68549
1.62258
1.59193
1.58872
1.58815
1.58221
1.55477
1.49719
1.45566
1.43683
3.13052
3.27102
3.26403
3.25704
3.24598
3.22373
3.19771
3.15581
3.06899
2.94854
2.79051
2.49654
2.20026
1.99471
1.81071
1.68543
1.62252
1.59187
1.58865
1.5881
1.58216
1.55474
1.49718
1.45566
1.43684
3.13051
3.27103
3.26404
3.25704
3.246
3.22376
3.19771
3.15587
3.06918
2.94871
2.79084
2.4972
2.20102
1.99568
1.81188
1.68678
1.624
1.59339
1.5902
1.58963
1.58349
1.55573
1.49795
1.4562
1.43719
3.13052
3.27103
3.26403
3.25705
3.24598
3.22374
3.19772
3.15582
3.06903
2.94857
2.79057
2.49656
2.20015
1.99469
1.81089
1.68564
1.62277
1.59215
1.58895
1.58841
1.58243
1.55498
1.49737
1.45579
1.43692
3.13051
3.27103
3.26404
3.25704
3.246
3.22376
3.19771
3.15587
3.06918
2.94871
2.79085
2.49723
2.20104
1.99573
1.81197
1.68683
1.62403
1.5934
1.59018
1.5896
1.58347
1.55573
1.49797
1.45622
1.4372
3.13052
3.27103
3.26403
3.25705
3.24599
3.22374
3.19772
3.15584
3.06904
2.94858
2.79055
2.49655
2.20029
1.99473
1.81071
1.68542
1.62251
1.59186
1.58865
1.58809
1.58215
1.55473
1.49717
1.45565
1.43684
3.13053
3.27105
3.26406
3.25708
3.24604
3.2238
3.19785
3.156
3.06792
2.95512
2.78393
2.449
1.95089
1.1072
0.415768
0.642934
0.520449
0.486199