/*--------------------------------*- C++ -*----------------------------------*\
| =========                 |                                                 |
| \\      /  F ield         | OpenFOAM: The Open Source CFD Toolbox           |
|  \\    /   O peration     | Version:  4.1                                   |
|   \\  /    A nd           | Web:      www.OpenFOAM.org                      |
|    \\/     M anipulation  |                                                 |
\*---------------------------------------------------------------------------*/
FoamFile
{
    version     2.0;
    format      ascii;
    class       volScalarField;
    location    "0.34";
    object      p;
}
// * * * * * * * * * * * * * * * * * * * * * * * * * * * * * * * * * * * * * //

dimensions      [1 -1 -2 0 0 0 0];

internalField   nonuniform List<scalar> 
52500
(
0.0907144
0.0632423
0.0632652
0.0633986
0.0637151
0.0643428
0.0654478
0.0672627
0.0711923
0.0808466
0.10862
0.216778
0.839201
2.63889
2.28848
2.2445
2.18398
2.08421
1.94592
1.83184
1.7597
1.71845
1.69382
1.67978
1.69775
0.0907145
0.0632424
0.0632653
0.0633987
0.0637151
0.0643445
0.0654442
0.067248
0.0711172
0.0805676
0.107482
0.210606
0.795237
2.63155
2.29898
2.24942
2.187
2.08939
1.94881
1.83192
1.7575
1.71506
1.69008
1.67515
1.69356
0.0907145
0.0632425
0.0632654
0.0633989
0.063716
0.0643486
0.0654321
0.0672257
0.0709942
0.0799914
0.105237
0.198868
0.719007
2.58732
2.32018
2.25332
2.18569
2.0918
1.94778
1.82729
1.74824
1.70314
1.67712
1.66017
1.67955
0.0907146
0.0632428
0.0632658
0.0633997
0.063719
0.064358
0.0653997
0.0672387
0.0708327
0.079137
0.102133
0.183646
0.604682
2.49299
2.3672
2.25846
2.18258
2.09539
1.94531
1.81882
1.73192
1.6825
1.65462
1.63475
1.65532
0.0907147
0.063243
0.0632661
0.0634003
0.0637221
0.064369
0.0653563
0.0673055
0.0706097
0.0781529
0.0986109
0.16727
0.502396
2.28814
2.4478
2.26935
2.17864
2.09883
1.9411
1.80951
1.71252
1.65699
1.6262
1.60227
1.62474
0.0907146
0.0632422
0.0632645
0.0633963
0.0637134
0.0643502
0.0653678
0.0673759
0.070365
0.0771213
0.0950153
0.151265
0.40853
1.96268
2.57094
2.28195
2.17834
2.1023
1.93515
1.79738
1.69111
1.62686
1.59175
1.56212
1.58562
0.0907145
0.0632424
0.0632642
0.0633942
0.0637079
0.0643386
0.0653766
0.0674142
0.070113
0.0761646
0.0916565
0.137283
0.325986
1.5163
2.72457
2.2916
2.18423
2.10555
1.92915
1.78338
1.66856
1.59302
1.55151
1.51283
1.53308
0.0907149
0.0632427
0.0632645
0.0633942
0.0637067
0.0643355
0.065383
0.0674118
0.0699342
0.0754234
0.0886286
0.125385
0.263626
1.06629
2.79637
2.30102
2.1962
2.10865
1.92651
1.76898
1.64387
1.55498
1.50592
1.45349
1.46382
0.0907144
0.0632428
0.0632647
0.0633945
0.0637082
0.0643384
0.0653976
0.0673773
0.0699469
0.0748553
0.08593
0.115522
0.214488
0.702687
2.69582
2.35515
2.20891
2.10527
1.92911
1.7543
1.61798
1.51195
1.45394
1.38116
1.36722
0.0907145
0.0632431
0.0632649
0.0633947
0.0637077
0.0643357
0.0654071
0.0673506
0.0700493
0.0743672
0.0838009
0.107579
0.179511
0.477576
2.17297
2.54905
2.22431
2.09563
1.93595
1.74167
1.59114
1.46541
1.39372
1.29607
1.23837
0.0907149
0.0632429
0.0632658
0.0633993
0.0637159
0.0643438
0.0654488
0.0672634
0.0711925
0.0808498
0.108636
0.216882
0.840065
2.63955
2.28827
2.24402
2.18374
2.08402
1.94574
1.83168
1.75954
1.7183
1.69366
1.67961
1.69755
0.0907148
0.0632428
0.0632657
0.0633991
0.0637156
0.0643452
0.0654448
0.0672484
0.0711176
0.0805704
0.107496
0.210685
0.795743
2.63264
2.29854
2.24894
2.18675
2.08916
1.94863
1.83176
1.75734
1.71491
1.68993
1.67499
1.69337
0.0907148
0.0632429
0.0632658
0.0633992
0.0637164
0.0643487
0.0654347
0.0672279
0.0709971
0.0800046
0.10529
0.199179
0.721887
2.58658
2.31951
2.25307
2.18547
2.09153
1.9476
1.82714
1.74809
1.703
1.67697
1.66001
1.67937
0.0907147
0.0632426
0.0632656
0.0633994
0.0637185
0.0643572
0.0653999
0.0672377
0.0708337
0.0791441
0.102163
0.183811
0.605812
2.49472
2.36567
2.25815
2.18234
2.09507
1.94513
1.81868
1.73179
1.68236
1.65447
1.63461
1.65515
0.0907147
0.063243
0.063266
0.0634001
0.0637217
0.0643679
0.0653587
0.0673046
0.0706122
0.0781657
0.0986599
0.167494
0.503919
2.2901
2.44516
2.26931
2.17852
2.09858
1.94094
1.80941
1.71241
1.65687
1.62606
1.60214
1.62457
0.0907147
0.0632416
0.0632639
0.0633957
0.0637127
0.0643496
0.0653628
0.0673718
0.0703616
0.0771183
0.0950186
0.151319
0.408904
1.96438
2.56946
2.28164
2.17822
2.10216
1.93509
1.79731
1.69104
1.62676
1.59162
1.562
1.58546
0.0907148
0.063242
0.0632638
0.0633939
0.0637077
0.0643388
0.0653713
0.0674114
0.0701098
0.0761593
0.0916422
0.137243
0.325799
1.51445
2.72538
2.29125
2.18433
2.10558
1.92919
1.78338
1.66853
1.59295
1.5514
1.51272
1.53293
0.0907145
0.0632418
0.0632635
0.0633933
0.0637058
0.0643351
0.0653747
0.0674119
0.0699304
0.0754137
0.0886104
0.125347
0.263503
1.06572
2.79684
2.30125
2.19641
2.10884
1.92667
1.76906
1.64388
1.55493
1.50583
1.45339
1.46368
0.0907145
0.0632421
0.0632639
0.0633938
0.0637068
0.0643364
0.0653903
0.0673786
0.0699417
0.0748479
0.0859163
0.115493
0.214412
0.702362
2.69569
2.3556
2.20918
2.10555
1.92932
1.75444
1.61803
1.51195
1.45387
1.38107
1.36709
0.0907144
0.0632419
0.0632637
0.0633933
0.0637052
0.0643316
0.0653986
0.0673496
0.0700398
0.0743545
0.0837793
0.10754
0.179405
0.477164
2.17157
2.5501
2.22455
2.09593
1.9363
1.74184
1.59122
1.46543
1.39367
1.29599
1.23826
0.0907146
0.0632423
0.0632651
0.0633985
0.0637149
0.0643423
0.0654473
0.0672618
0.0711913
0.0808483
0.108639
0.216927
0.840543
2.63853
2.28814
2.24428
2.18391
2.08412
1.94586
1.83177
1.7596
1.71833
1.69368
1.67962
1.69756
0.0907147
0.0632424
0.0632653
0.0633986
0.0637149
0.0643442
0.0654436
0.067247
0.0711162
0.0805682
0.107494
0.210699
0.795935
2.63179
2.29859
2.24921
2.18691
2.08929
1.94874
1.83185
1.75739
1.71494
1.68994
1.67499
1.69338
0.0907146
0.0632422
0.0632651
0.0633985
0.0637154
0.0643475
0.0654309
0.0672236
0.0709915
0.0799902
0.105245
0.198949
0.719798
2.5875
2.31989
2.25308
2.18558
2.09168
1.9477
1.82721
1.74813
1.70302
1.67698
1.66002
1.67937
0.0907147
0.0632426
0.0632656
0.0633994
0.0637185
0.0643572
0.0653988
0.0672365
0.0708307
0.0791359
0.102137
0.183686
0.605008
2.49359
2.36681
2.25819
2.18244
2.09526
1.94522
1.81873
1.73181
1.68237
1.65447
1.63461
1.65515
0.0907146
0.0632424
0.0632655
0.0633997
0.0637213
0.0643683
0.0653523
0.0673026
0.070607
0.0781507
0.0986146
0.167321
0.50281
2.28869
2.44692
2.26922
2.17862
2.09876
1.941
1.80942
1.71242
1.65687
1.62605
1.60213
1.62457
0.0907145
0.0632418
0.0632641
0.0633959
0.063713
0.06435
0.0653645
0.067374
0.0703637
0.0771208
0.0950206
0.151306
0.408884
1.96386
2.56957
2.28178
2.17832
2.10227
1.93511
1.7973
1.69102
1.62675
1.59161
1.56199
1.58544
0.0907145
0.0632415
0.0632633
0.0633934
0.0637071
0.0643382
0.065369
0.0674103
0.0701088
0.0761583
0.091644
0.137264
0.325981
1.51616
2.7242
2.29138
2.18433
2.10562
1.92916
1.78334
1.66849
1.59292
1.55138
1.5127
1.53291
0.0907148
0.063242
0.0632638
0.0633936
0.0637062
0.0643354
0.0653768
0.0674117
0.0699314
0.0754167
0.0886171
0.125366
0.263602
1.06646
2.79592
2.30116
2.19648
2.10884
1.92661
1.76899
1.64383
1.5549
1.5058
1.45336
1.46365
0.0907143
0.0632417
0.0632634
0.0633932
0.063706
0.064335
0.0653899
0.0673747
0.0699374
0.0748435
0.0859122
0.115491
0.214443
0.702679
2.6956
2.35544
2.2093
2.10555
1.92925
1.75437
1.61797
1.51191
1.45383
1.38103
1.36706
0.0907146
0.0632422
0.0632639
0.0633936
0.0637052
0.0643309
0.0654018
0.067348
0.0700411
0.0743555
0.0837791
0.107541
0.179412
0.477238
2.17204
2.55029
2.22457
2.09586
1.93619
1.74178
1.59117
1.46538
1.39363
1.29595
1.23823
0.0907145
0.063242
0.0632649
0.0633982
0.0637145
0.0643418
0.0654466
0.0672605
0.0711896
0.0808457
0.108636
0.216928
0.840592
2.63845
2.28807
2.24422
2.18391
2.08415
1.94588
1.83178
1.75958
1.7183
1.69364
1.67959
1.69752
0.0907145
0.0632421
0.0632649
0.0633982
0.0637144
0.0643435
0.0654426
0.0672455
0.0711143
0.0805652
0.107491
0.210699
0.795969
2.63182
2.2985
2.24916
2.18693
2.08932
1.94877
1.83186
1.75738
1.71491
1.68991
1.67496
1.69334
0.0907145
0.0632421
0.0632649
0.0633982
0.0637151
0.064347
0.0654306
0.067223
0.0709906
0.0799892
0.105244
0.198963
0.719971
2.58758
2.31972
2.25307
2.18561
2.09172
1.94774
1.82723
1.74812
1.703
1.67695
1.65998
1.67933
0.0907145
0.0632422
0.0632651
0.0633988
0.0637177
0.0643561
0.0653979
0.0672354
0.0708294
0.0791349
0.102139
0.183719
0.605304
2.49366
2.36627
2.25826
2.18249
2.09529
1.94528
1.81877
1.73181
1.68235
1.65445
1.63458
1.65511
0.0907145
0.0632422
0.0632653
0.0633995
0.0637211
0.064368
0.0653516
0.0673017
0.0706066
0.0781516
0.0986217
0.167366
0.503174
2.28905
2.44637
2.26936
2.17863
2.09879
1.94106
1.80948
1.71243
1.65686
1.62603
1.60211
1.62454
0.0907145
0.0632413
0.0632636
0.0633954
0.0637124
0.0643496
0.0653599
0.0673708
0.0703591
0.0771116
0.0949987
0.151243
0.408501
1.96298
2.57079
2.28194
2.17836
2.10231
1.93518
1.79737
1.69105
1.62675
1.59159
1.56197
1.58542
0.0907145
0.0632413
0.0632631
0.0633932
0.0637069
0.0643381
0.0653678
0.0674097
0.0701074
0.0761544
0.0916313
0.137217
0.325721
1.51432
2.72561
2.29133
2.18436
2.10568
1.92925
1.78342
1.66853
1.59293
1.55137
1.51268
1.53289
0.0907144
0.0632414
0.0632632
0.0633929
0.0637054
0.0643346
0.0653731
0.0674111
0.0699287
0.0754108
0.0886062
0.125343
0.263515
1.06601
2.79652
2.30114
2.19646
2.10894
1.92672
1.76908
1.64387
1.55491
1.50579
1.45335
1.46363
0.0907142
0.0632416
0.0632633
0.063393
0.0637058
0.0643348
0.0653884
0.0673754
0.0699367
0.0748423
0.0859094
0.115485
0.214421
0.70257
2.69545
2.35538
2.20928
2.10565
1.92936
1.75445
1.61802
1.51193
1.45383
1.38102
1.36705
0.0907142
0.0632415
0.0632633
0.0633929
0.0637045
0.0643303
0.0653979
0.0673477
0.0700372
0.0743508
0.0837733
0.107533
0.179402
0.477259
2.17194
2.54993
2.22464
2.09601
1.93632
1.74185
1.59121
1.4654
1.39363
1.29595
1.23822
0.0907144
0.0632419
0.0632648
0.0633981
0.0637143
0.0643415
0.0654463
0.0672601
0.0711887
0.0808441
0.108632
0.216917
0.840528
2.6385
2.28811
2.24425
2.18391
2.08416
1.94588
1.83177
1.7596
1.71833
1.69368
1.67964
1.69759
0.0907144
0.0632419
0.0632648
0.0633981
0.0637143
0.0643432
0.0654423
0.0672451
0.0711134
0.0805637
0.107487
0.21069
0.795936
2.63182
2.29855
2.24919
2.18693
2.08932
1.94877
1.83186
1.7574
1.71494
1.68995
1.67501
1.69341
0.0907145
0.063242
0.0632648
0.0633981
0.0637149
0.0643468
0.0654302
0.0672225
0.0709897
0.0799876
0.105241
0.198951
0.719906
2.58757
2.31975
2.2531
2.18561
2.09172
1.94774
1.82723
1.74815
1.70303
1.67699
1.66003
1.67939
0.0907145
0.0632421
0.063265
0.0633987
0.0637176
0.0643558
0.0653976
0.0672349
0.0708287
0.0791336
0.102136
0.183709
0.605255
2.49359
2.3663
2.25829
2.18249
2.09529
1.94527
1.81877
1.73184
1.68239
1.65449
1.63461
1.65517
0.0907145
0.0632421
0.0632652
0.0633994
0.0637208
0.0643677
0.0653516
0.0673012
0.0706059
0.0781504
0.0986186
0.167355
0.503116
2.28894
2.44644
2.26938
2.17862
2.09878
1.94106
1.80949
1.71246
1.65691
1.62608
1.60214
1.62459
0.0907145
0.0632412
0.0632635
0.0633953
0.0637122
0.0643493
0.0653599
0.0673704
0.0703585
0.0771106
0.0949962
0.151235
0.408451
1.96279
2.57086
2.28194
2.17834
2.10229
1.93517
1.79737
1.69107
1.62679
1.59164
1.562
1.58548
0.0907144
0.0632412
0.0632631
0.0633931
0.0637068
0.0643379
0.0653677
0.0674096
0.0701071
0.0761539
0.0916298
0.137211
0.325689
1.51409
2.72567
2.29132
2.18433
2.10564
1.92922
1.78342
1.66855
1.59296
1.55142
1.51272
1.53294
0.0907144
0.0632414
0.0632632
0.0633929
0.0637053
0.0643345
0.065373
0.0674112
0.0699287
0.0754105
0.0886049
0.125338
0.26349
1.06582
2.79651
2.30112
2.19641
2.10888
1.92668
1.76907
1.64388
1.55494
1.50584
1.45339
1.46369
0.0907142
0.0632416
0.0632634
0.0633931
0.0637059
0.064335
0.0653885
0.0673758
0.0699374
0.0748428
0.0859092
0.115483
0.214406
0.702456
2.69537
2.35541
2.20922
2.10557
1.92932
1.75443
1.61802
1.51194
1.45387
1.38107
1.3671
0.0907142
0.0632416
0.0632633
0.0633929
0.0637046
0.0643305
0.0653981
0.0673475
0.0700372
0.0743506
0.0837724
0.10753
0.179391
0.477213
2.17179
2.54999
2.22459
2.09594
1.93627
1.74182
1.5912
1.46541
1.39366
1.29598
1.23827
0.0907145
0.063242
0.0632649
0.0633982
0.0637145
0.0643418
0.0654466
0.0672606
0.0711896
0.0808458
0.108636
0.216932
0.84062
2.63847
2.28809
2.24425
2.18393
2.08417
1.9459
1.8318
1.7596
1.71831
1.69365
1.6796
1.69753
0.0907145
0.0632421
0.0632649
0.0633983
0.0637145
0.0643435
0.0654426
0.0672456
0.0711143
0.0805654
0.107491
0.210702
0.79599
2.63185
2.29853
2.24919
2.18695
2.08934
1.94879
1.83187
1.75739
1.71492
1.68992
1.67497
1.69335
0.0907145
0.0632421
0.0632649
0.0633983
0.0637151
0.0643471
0.0654306
0.067223
0.0709907
0.0799893
0.105245
0.198965
0.719988
2.58761
2.31974
2.2531
2.18563
2.09174
1.94776
1.82725
1.74814
1.70301
1.67696
1.65999
1.67934
0.0907145
0.0632422
0.0632651
0.0633989
0.0637178
0.0643561
0.0653979
0.0672355
0.0708296
0.0791352
0.102139
0.18372
0.605311
2.49367
2.36628
2.25829
2.18251
2.09532
1.9453
1.81878
1.73183
1.68236
1.65446
1.63459
1.65512
0.0907145
0.0632423
0.0632653
0.0633995
0.0637211
0.0643681
0.0653516
0.0673018
0.0706067
0.0781518
0.098622
0.167366
0.503166
2.28904
2.44639
2.26938
2.17864
2.09881
1.94108
1.80949
1.71245
1.65687
1.62604
1.60212
1.62454
0.0907145
0.0632413
0.0632636
0.0633954
0.0637124
0.0643497
0.0653598
0.067371
0.0703594
0.0771119
0.0949989
0.151242
0.408481
1.96289
2.57083
2.28196
2.17837
2.10232
1.93519
1.79738
1.69106
1.62676
1.5916
1.56198
1.58543
0.0907145
0.0632413
0.0632632
0.0633933
0.063707
0.0643383
0.0653678
0.0674101
0.0701079
0.0761551
0.091632
0.137216
0.325704
1.51415
2.72568
2.29134
2.18435
2.10568
1.92925
1.78343
1.66854
1.59293
1.55137
1.51269
1.5329
0.0907144
0.0632415
0.0632633
0.063393
0.0637055
0.0643348
0.0653733
0.0674116
0.0699293
0.0754115
0.0886068
0.125342
0.263499
1.06585
2.79654
2.30114
2.19643
2.10891
1.92671
1.76907
1.64387
1.55492
1.5058
1.45336
1.46364
0.0907143
0.0632417
0.0632635
0.0633932
0.0637061
0.0643352
0.0653886
0.0673766
0.0699381
0.0748438
0.0859111
0.115486
0.214414
0.702478
2.69538
2.3554
2.20925
2.10561
1.92935
1.75444
1.61801
1.51193
1.45384
1.38103
1.36706
0.0907143
0.0632417
0.0632634
0.063393
0.0637047
0.0643307
0.0653982
0.0673483
0.070038
0.0743517
0.0837745
0.107534
0.1794
0.47723
2.17181
2.54997
2.22461
2.09597
1.93629
1.74183
1.5912
1.4654
1.39363
1.29595
1.23823
0.0907145
0.063242
0.0632649
0.0633982
0.0637145
0.0643418
0.0654466
0.0672605
0.0711896
0.0808457
0.108636
0.216928
0.840591
2.63845
2.28807
2.24422
2.18391
2.08415
1.94588
1.83178
1.75958
1.7183
1.69364
1.67959
1.69752
0.0907145
0.0632421
0.0632649
0.0633982
0.0637144
0.0643435
0.0654426
0.0672455
0.0711143
0.0805652
0.107491
0.210699
0.795969
2.63182
2.2985
2.24916
2.18693
2.08932
1.94877
1.83186
1.75738
1.71491
1.68991
1.67496
1.69334
0.0907145
0.0632421
0.0632649
0.0633982
0.0637151
0.064347
0.0654306
0.067223
0.0709906
0.0799892
0.105244
0.198963
0.719971
2.58758
2.31972
2.25307
2.18561
2.09172
1.94774
1.82723
1.74812
1.703
1.67695
1.65998
1.67933
0.0907145
0.0632422
0.0632651
0.0633988
0.0637177
0.0643561
0.0653979
0.0672354
0.0708294
0.0791349
0.102139
0.183719
0.605304
2.49366
2.36627
2.25826
2.18249
2.09529
1.94528
1.81877
1.73181
1.68235
1.65445
1.63458
1.65511
0.0907145
0.0632422
0.0632653
0.0633995
0.0637211
0.064368
0.0653516
0.0673017
0.0706066
0.0781516
0.0986218
0.167366
0.503174
2.28905
2.44637
2.26936
2.17863
2.09879
1.94106
1.80948
1.71243
1.65686
1.62603
1.60211
1.62454
0.0907145
0.0632413
0.0632636
0.0633954
0.0637124
0.0643496
0.0653599
0.0673708
0.0703591
0.0771116
0.0949988
0.151243
0.408501
1.96298
2.57079
2.28194
2.17836
2.10231
1.93518
1.79737
1.69105
1.62675
1.59159
1.56197
1.58542
0.0907145
0.0632413
0.0632631
0.0633932
0.0637069
0.0643381
0.0653678
0.0674097
0.0701074
0.0761544
0.0916313
0.137217
0.325721
1.51432
2.72561
2.29133
2.18436
2.10568
1.92925
1.78342
1.66853
1.59293
1.55137
1.51268
1.53289
0.0907144
0.0632414
0.0632632
0.0633929
0.0637054
0.0643346
0.0653731
0.0674111
0.0699287
0.0754108
0.0886062
0.125343
0.263515
1.06601
2.79652
2.30114
2.19646
2.10894
1.92672
1.76908
1.64387
1.55491
1.50579
1.45335
1.46363
0.0907142
0.0632416
0.0632633
0.063393
0.0637058
0.0643348
0.0653884
0.0673754
0.0699367
0.0748423
0.0859094
0.115485
0.214421
0.70257
2.69545
2.35538
2.20928
2.10565
1.92936
1.75445
1.61802
1.51193
1.45383
1.38102
1.36705
0.0907142
0.0632415
0.0632633
0.0633929
0.0637045
0.0643303
0.0653979
0.0673477
0.0700372
0.0743508
0.0837734
0.107533
0.179402
0.477259
2.17194
2.54993
2.22464
2.09601
1.93632
1.74185
1.59121
1.4654
1.39363
1.29595
1.23822
0.0907146
0.0632423
0.0632651
0.0633985
0.0637149
0.0643423
0.0654473
0.0672618
0.0711913
0.0808483
0.108639
0.216927
0.840543
2.63853
2.28814
2.24428
2.18391
2.08412
1.94586
1.83177
1.7596
1.71833
1.69368
1.67962
1.69756
0.0907147
0.0632424
0.0632653
0.0633986
0.0637149
0.0643442
0.0654436
0.067247
0.0711162
0.0805682
0.107494
0.210699
0.795935
2.63179
2.29859
2.24921
2.18691
2.08929
1.94874
1.83185
1.75739
1.71494
1.68994
1.67499
1.69338
0.0907146
0.0632422
0.0632651
0.0633985
0.0637154
0.0643475
0.0654309
0.0672236
0.0709915
0.0799902
0.105245
0.198949
0.719798
2.5875
2.31989
2.25308
2.18558
2.09168
1.9477
1.82721
1.74813
1.70302
1.67698
1.66002
1.67937
0.0907147
0.0632426
0.0632656
0.0633994
0.0637185
0.0643572
0.0653988
0.0672365
0.0708307
0.0791359
0.102137
0.183686
0.605008
2.49359
2.36681
2.25819
2.18244
2.09526
1.94522
1.81873
1.73181
1.68237
1.65447
1.63461
1.65515
0.0907146
0.0632424
0.0632655
0.0633997
0.0637213
0.0643683
0.0653523
0.0673026
0.070607
0.0781507
0.0986146
0.167321
0.50281
2.28869
2.44692
2.26922
2.17862
2.09876
1.941
1.80942
1.71242
1.65687
1.62605
1.60213
1.62457
0.0907145
0.0632418
0.0632641
0.0633959
0.063713
0.06435
0.0653645
0.067374
0.0703637
0.0771208
0.0950206
0.151306
0.408884
1.96386
2.56957
2.28178
2.17832
2.10227
1.93511
1.7973
1.69102
1.62675
1.59161
1.56199
1.58544
0.0907145
0.0632415
0.0632633
0.0633934
0.0637071
0.0643382
0.065369
0.0674103
0.0701088
0.0761583
0.091644
0.137264
0.325981
1.51616
2.7242
2.29138
2.18433
2.10562
1.92916
1.78334
1.66849
1.59292
1.55138
1.5127
1.53291
0.0907148
0.063242
0.0632638
0.0633936
0.0637062
0.0643354
0.0653768
0.0674117
0.0699314
0.0754167
0.0886171
0.125366
0.263602
1.06646
2.79592
2.30116
2.19648
2.10884
1.92661
1.76899
1.64383
1.5549
1.5058
1.45336
1.46365
0.0907143
0.0632417
0.0632634
0.0633932
0.063706
0.064335
0.0653899
0.0673747
0.0699374
0.0748435
0.0859122
0.115491
0.214443
0.702679
2.6956
2.35544
2.2093
2.10555
1.92925
1.75437
1.61797
1.51191
1.45383
1.38103
1.36706
0.0907146
0.0632422
0.0632639
0.0633936
0.0637052
0.0643309
0.0654018
0.067348
0.0700411
0.0743555
0.0837791
0.107541
0.179412
0.477238
2.17204
2.55029
2.22457
2.09586
1.93619
1.74178
1.59117
1.46538
1.39363
1.29595
1.23823
0.0907149
0.0632429
0.0632658
0.0633993
0.0637159
0.0643438
0.0654488
0.0672634
0.0711925
0.0808498
0.108636
0.216882
0.840065
2.63955
2.28827
2.24402
2.18374
2.08402
1.94574
1.83168
1.75954
1.7183
1.69366
1.67961
1.69755
0.0907148
0.0632428
0.0632657
0.0633991
0.0637156
0.0643452
0.0654448
0.0672484
0.0711176
0.0805704
0.107496
0.210685
0.795743
2.63264
2.29854
2.24894
2.18675
2.08916
1.94863
1.83176
1.75734
1.71491
1.68993
1.67499
1.69337
0.0907148
0.0632429
0.0632658
0.0633992
0.0637164
0.0643487
0.0654347
0.0672279
0.0709971
0.0800046
0.10529
0.199179
0.721886
2.58658
2.31951
2.25307
2.18547
2.09153
1.9476
1.82714
1.74809
1.703
1.67697
1.66001
1.67937
0.0907147
0.0632426
0.0632656
0.0633994
0.0637185
0.0643572
0.0653999
0.0672377
0.0708337
0.0791441
0.102163
0.183811
0.605811
2.49472
2.36567
2.25815
2.18234
2.09507
1.94513
1.81868
1.73179
1.68236
1.65447
1.63461
1.65515
0.0907147
0.063243
0.063266
0.0634001
0.0637217
0.0643679
0.0653587
0.0673046
0.0706122
0.0781657
0.0986599
0.167494
0.503919
2.29009
2.44516
2.26931
2.17852
2.09858
1.94094
1.80941
1.71241
1.65687
1.62606
1.60214
1.62457
0.0907147
0.0632416
0.0632639
0.0633957
0.0637127
0.0643496
0.0653628
0.0673718
0.0703616
0.0771183
0.0950185
0.151319
0.408903
1.96438
2.56946
2.28164
2.17822
2.10216
1.93509
1.79731
1.69104
1.62676
1.59162
1.562
1.58546
0.0907148
0.063242
0.0632638
0.0633939
0.0637077
0.0643388
0.0653713
0.0674114
0.0701098
0.0761593
0.0916422
0.137243
0.325799
1.51445
2.72539
2.29125
2.18433
2.10558
1.92919
1.78338
1.66853
1.59295
1.5514
1.51272
1.53293
0.0907145
0.0632418
0.0632635
0.0633933
0.0637058
0.0643351
0.0653747
0.0674119
0.0699304
0.0754137
0.0886104
0.125347
0.263503
1.06572
2.79684
2.30125
2.19641
2.10884
1.92667
1.76906
1.64388
1.55493
1.50583
1.45339
1.46368
0.0907145
0.0632421
0.0632639
0.0633937
0.0637068
0.0643364
0.0653903
0.0673786
0.0699417
0.0748479
0.0859163
0.115493
0.214412
0.702362
2.69569
2.3556
2.20918
2.10555
1.92932
1.75444
1.61803
1.51195
1.45387
1.38107
1.36709
0.0907144
0.0632419
0.0632637
0.0633933
0.0637052
0.0643316
0.0653986
0.0673496
0.0700398
0.0743545
0.0837793
0.10754
0.179405
0.477164
2.17157
2.5501
2.22455
2.09593
1.9363
1.74184
1.59122
1.46543
1.39367
1.29599
1.23826
0.0907145
0.0632425
0.0632654
0.0633988
0.0637153
0.0643431
0.0654481
0.0672629
0.0711922
0.0808466
0.10862
0.216782
0.839266
2.63862
2.28847
2.24433
2.18383
2.0841
1.94585
1.83181
1.7597
1.71847
1.69384
1.67978
1.69777
0.0907145
0.0632425
0.0632654
0.0633988
0.0637153
0.0643448
0.0654445
0.0672481
0.0711162
0.080565
0.107472
0.210544
0.794777
2.63201
2.29898
2.24921
2.18684
2.08928
1.94874
1.83188
1.75749
1.71507
1.6901
1.67516
1.69359
0.0907146
0.0632426
0.0632655
0.0633989
0.0637161
0.0643486
0.0654325
0.0672261
0.0709941
0.0799894
0.105227
0.198806
0.718378
2.58817
2.32004
2.25312
2.18552
2.09163
1.94769
1.82724
1.74823
1.70315
1.67714
1.66018
1.67957
0.0907144
0.0632429
0.0632658
0.0633996
0.0637188
0.0643573
0.0654033
0.0672403
0.0708358
0.0791464
0.102165
0.183784
0.605626
2.49283
2.36576
2.25846
2.1824
2.09516
1.94519
1.81876
1.7319
1.68249
1.65463
1.63476
1.65535
0.0907146
0.0632428
0.0632659
0.0634001
0.0637218
0.0643686
0.0653557
0.0673041
0.0706097
0.0781568
0.0986294
0.167371
0.503118
2.28923
2.44659
2.26953
2.17852
2.09862
1.94096
1.80946
1.71249
1.65699
1.6262
1.60228
1.62476
0.0907149
0.0632422
0.0632645
0.0633963
0.0637132
0.0643498
0.0653675
0.0673741
0.0703617
0.0771143
0.0949941
0.15119
0.407976
1.96136
2.57257
2.28166
2.17816
2.10214
1.93507
1.79735
1.69108
1.62685
1.59175
1.56213
1.58564
0.0907143
0.0632421
0.0632639
0.0633938
0.0637074
0.064338
0.0653755
0.0674132
0.0701101
0.0761572
0.0916346
0.137206
0.325583
1.51343
2.72685
2.29108
2.18409
2.1055
1.92915
1.78341
1.66854
1.593
1.5515
1.51283
1.53309
0.0907147
0.0632428
0.0632646
0.0633943
0.0637072
0.0643368
0.0653838
0.0674122
0.0699357
0.075425
0.0886289
0.12538
0.26362
1.06688
2.79673
2.30098
2.19605
2.10874
1.92659
1.76904
1.64387
1.55496
1.50591
1.45349
1.46382
0.0907144
0.0632422
0.063264
0.0633938
0.0637069
0.0643361
0.0653946
0.0673738
0.0699408
0.0748486
0.0859214
0.11551
0.214494
0.702901
2.6957
2.35519
2.20894
2.10543
1.92921
1.75436
1.61799
1.51194
1.45392
1.38115
1.36721
0.0907145
0.0632429
0.0632647
0.0633944
0.0637071
0.0643345
0.0654075
0.0673478
0.0700472
0.0743636
0.0837928
0.107565
0.179478
0.477497
2.17271
2.54957
2.22439
2.09576
1.93607
1.74174
1.59115
1.46541
1.39372
1.29606
1.23836
0.0907151
0.0632432
0.0632651
0.0633951
0.0637078
0.0643351
0.0654008
0.0673547
0.0700845
0.0740693
0.0824144
0.101696
0.155661
0.34593
1.40364
2.75381
2.24069
2.08222
1.94787
1.73371
1.56711
1.41638
1.31685
1.18313
0.960466
0.0907151
0.0632432
0.0632652
0.0633955
0.0637091
0.0643383
0.0653944
0.0673674
0.0700868
0.0740762
0.0818278
0.09827
0.139728
0.264733
0.832748
2.75799
2.27467
2.07517
1.95455
1.73045
1.54467
1.36836
1.24253
1.08427
0.863454
0.0907153
0.0632431
0.0632651
0.0633956
0.0637092
0.0643382
0.0653972
0.0673511
0.0700877
0.0741187
0.0820357
0.0974602
0.129806
0.212941
0.519431
2.28419
2.48199
2.08621
1.9517
1.73158
1.53723
1.33219
1.19232
1.0361
0.865028
0.0907153
0.0632432
0.0632652
0.0633956
0.0637088
0.064337
0.0654008
0.0673459
0.0700662
0.0741906
0.0822474
0.0985102
0.123009
0.181293
0.362115
1.24494
2.62402
2.11008
1.9222
1.73539
1.54174
1.33411
1.17755
1.0366
0.877861
0.0907151
0.0632433
0.0632652
0.0633954
0.0637085
0.0643363
0.0654024
0.0673486
0.0700504
0.0742661
0.0824877
0.099304
0.120132
0.162919
0.278773
0.72021
2.52666
2.20414
1.88467
1.73884
1.55538
1.34333
1.18159
1.04381
0.908144
0.0907152
0.0632435
0.0632654
0.0633956
0.0637086
0.0643365
0.0654032
0.0673503
0.0700516
0.0742675
0.082486
0.0991954
0.121246
0.154667
0.232984
0.472831
1.72857
2.34515
1.85787
1.72223
1.57541
1.36815
1.19679
1.06373
0.955229
0.0907152
0.0632434
0.0632653
0.0633955
0.0637085
0.0643362
0.0654035
0.0673489
0.0700519
0.074263
0.0825094
0.0993975
0.120129
0.156493
0.206998
0.339464
0.854706
2.28456
1.88646
1.69429
1.58282
1.40117
1.2326
1.10518
1.00774
0.0907153
0.0632435
0.0632655
0.0633956
0.0637086
0.0643361
0.0654047
0.0673482
0.0700524
0.0742664
0.0825098
0.0994218
0.119922
0.155785
0.19309
0.276127
0.529295
1.76019
1.95208
1.68346
1.57936
1.4169
1.27378
1.14984
1.05852
0.0907152
0.0632436
0.0632655
0.0633957
0.0637087
0.0643363
0.0654048
0.0673487
0.0700523
0.0742683
0.0825002
0.099349
0.120348
0.153995
0.197465
0.244254
0.363663
0.828126
1.86709
1.69651
1.56599
1.42554
1.29838
1.18674
1.10337
0.0907153
0.0632436
0.0632655
0.0633958
0.0637088
0.0643365
0.0654045
0.0673488
0.0700522
0.0742692
0.0825017
0.0993459
0.120415
0.15377
0.199333
0.22683
0.290799
0.485345
1.35449
1.66691
1.56856
1.42909
1.31146
1.21772
1.14241
0.0907155
0.0632436
0.0632655
0.0633959
0.063709
0.064337
0.0654024
0.0673485
0.0700507
0.0742668
0.0824955
0.0993361
0.120357
0.153878
0.19822
0.229025
0.26053
0.341368
0.635245
1.47975
1.53568
1.43787
1.32105
1.23643
1.17471
0.0907152
0.0632437
0.0632656
0.0633958
0.0637089
0.0643369
0.065404
0.0673507
0.070054
0.0742705
0.0825038
0.0993535
0.12037
0.153877
0.198156
0.229719
0.247833
0.286079
0.391608
0.789376
1.39627
1.40929
1.33282
1.25087
1.19499
0.0907152
0.0632436
0.0632656
0.0633958
0.0637089
0.0643368
0.0654038
0.0673504
0.0700537
0.0742703
0.0825039
0.0993544
0.120371
0.153884
0.198185
0.229538
0.248463
0.264914
0.305307
0.427705
0.85284
1.29004
1.30557
1.25356
1.20222
0.0907155
0.0632436
0.0632655
0.0633959
0.0637091
0.0643372
0.0654022
0.0673491
0.0700513
0.0742688
0.0824999
0.0993455
0.120376
0.153895
0.198186
0.229586
0.248077
0.263654
0.277975
0.314452
0.431339
0.811446
1.18221
1.21565
1.19427
0.0907152
0.0632435
0.0632655
0.0633957
0.0637088
0.0643366
0.0654038
0.0673493
0.0700532
0.0742716
0.082508
0.0993652
0.120381
0.153929
0.198203
0.229566
0.248017
0.26337
0.273512
0.284313
0.313753
0.404531
0.681047
1.03827
1.1247
0.0907153
0.0632437
0.0632656
0.0633959
0.063709
0.0643368
0.0654045
0.0673504
0.0700546
0.0742723
0.082508
0.0993638
0.120375
0.153905
0.198179
0.229565
0.248043
0.263407
0.273332
0.280797
0.28734
0.304804
0.357202
0.505728
0.797112
0.0907153
0.0632437
0.0632656
0.0633958
0.0637089
0.0643367
0.0654043
0.0673502
0.0700534
0.0742701
0.0825039
0.0993548
0.120373
0.153888
0.198182
0.229586
0.248077
0.26344
0.273378
0.280472
0.284325
0.286387
0.293397
0.318806
0.383874
0.0907153
0.0632437
0.0632656
0.0633959
0.0637089
0.0643367
0.0654051
0.0673496
0.0700537
0.0742714
0.082506
0.0993585
0.120389
0.153914
0.198218
0.229627
0.2481
0.263448
0.273376
0.280489
0.283336
0.283169
0.283648
0.287525
0.300055
0.0907155
0.0632435
0.0632655
0.0633958
0.0637089
0.0643368
0.0654025
0.0673476
0.0700495
0.0742661
0.0824946
0.0993334
0.12038
0.153886
0.198214
0.22965
0.248132
0.263475
0.273404
0.280501
0.283205
0.282791
0.282564
0.283584
0.287351
0.0907154
0.0632439
0.0632658
0.0633961
0.0637092
0.0643369
0.065406
0.0673496
0.0700545
0.0742721
0.082506
0.099357
0.120389
0.15391
0.198214
0.229626
0.2481
0.263444
0.273372
0.280492
0.283166
0.28274
0.282395
0.28316
0.285961
0.0907152
0.0632436
0.0632655
0.0633957
0.0637087
0.0643365
0.0654043
0.0673497
0.0700535
0.0742708
0.0825056
0.0993589
0.120374
0.153894
0.198175
0.229559
0.248041
0.263405
0.273329
0.280473
0.28315
0.282717
0.282367
0.283108
0.285817
0.0907155
0.0632441
0.063266
0.0633963
0.0637095
0.0643374
0.0654062
0.0673509
0.070056
0.074274
0.0825101
0.0993675
0.120375
0.153903
0.198163
0.22956
0.248033
0.263381
0.273307
0.280448
0.283129
0.282701
0.282349
0.283088
0.285791
0.0907152
0.0632436
0.0632655
0.0633957
0.0637087
0.0643365
0.0654042
0.0673496
0.0700533
0.0742704
0.082505
0.0993579
0.120368
0.153887
0.198163
0.229546
0.248028
0.263391
0.273316
0.280465
0.283142
0.282709
0.282359
0.283097
0.285797
0.0907154
0.063244
0.0632659
0.0633962
0.0637094
0.0643372
0.0654065
0.0673503
0.070056
0.0742737
0.0825084
0.0993613
0.120388
0.153904
0.198196
0.229601
0.248071
0.263416
0.273342
0.280468
0.283142
0.282715
0.28236
0.283099
0.285799
0.0907155
0.0632435
0.0632654
0.0633957
0.0637087
0.0643366
0.0654024
0.067347
0.0700487
0.0742648
0.0824926
0.0993298
0.120375
0.153875
0.198203
0.229643
0.24813
0.263474
0.273402
0.280499
0.283176
0.28274
0.282403
0.283138
0.285838
0.0907154
0.063244
0.0632659
0.0633962
0.0637093
0.0643371
0.0654063
0.0673501
0.0700554
0.074273
0.082507
0.0993584
0.120387
0.153899
0.198198
0.22961
0.248089
0.263436
0.273363
0.280485
0.283154
0.282727
0.282371
0.283109
0.285806
0.0907152
0.0632435
0.0632654
0.0633956
0.0637087
0.0643364
0.0654041
0.0673495
0.0700526
0.0742693
0.0825029
0.0993534
0.12037
0.153881
0.198167
0.229561
0.248047
0.263413
0.27334
0.280483
0.283158
0.282725
0.282373
0.28311
0.285808
0.0907155
0.0632439
0.0632659
0.0633961
0.0637092
0.064337
0.0654056
0.0673501
0.0700545
0.0742721
0.0825069
0.099361
0.120376
0.153905
0.198178
0.229582
0.248056
0.263403
0.273331
0.280466
0.283144
0.282716
0.282363
0.283101
0.285801
0.0907152
0.0632435
0.0632654
0.0633956
0.0637086
0.0643363
0.0654038
0.0673494
0.0700526
0.0742696
0.0825036
0.0993553
0.120371
0.153891
0.19817
0.22955
0.248028
0.263391
0.273319
0.280466
0.283147
0.282714
0.282365
0.283104
0.285806
0.0907153
0.0632437
0.0632656
0.0633959
0.063709
0.0643368
0.0654045
0.0673495
0.0700529
0.0742705
0.0825049
0.0993572
0.120383
0.153914
0.198207
0.229602
0.24807
0.26341
0.273336
0.280466
0.283146
0.282719
0.282367
0.283108
0.285813
0.0907154
0.0632434