/*--------------------------------*- C++ -*----------------------------------*\
| =========                 |                                                 |
| \\      /  F ield         | OpenFOAM: The Open Source CFD Toolbox           |
|  \\    /   O peration     | Version:  4.1                                   |
|   \\  /    A nd           | Web:      www.OpenFOAM.org                      |
|    \\/     M anipulation  |                                                 |
\*---------------------------------------------------------------------------*/
FoamFile
{
    version     2.0;
    format      ascii;
    class       surfaceScalarField;
    location    "0.34";
    object      phi;
}
// * * * * * * * * * * * * * * * * * * * * * * * * * * * * * * * * * * * * * //

dimensions      [1 0 -1 0 0 0 0];

internalField   nonuniform List<scalar> 
150500
(
0.00202818
-3.60493e-10
-2.29116e-12
0.00203166
-6.75221e-10
-2.4035e-12
0.00203441
-1.15128e-09
-2.4644e-12
0.00203832
-1.77852e-09
-2.68459e-12
0.00204207
-2.67286e-09
-3.60765e-12
0.00204637
-5.89437e-09
-4.33217e-12
0.00205756
1.42964e-09
-3.97187e-12
0.00206434
-7.92504e-09
-2.85904e-12
0.00204528
1.10327e-07
-1.07127e-12
0.00199452
6.23084e-07
-1.36339e-11
0.00184452
2.77278e-06
-6.88537e-11
0.00132226
1.59448e-05
-4.64864e-10
-0.00179094
0.000173843
-4.11954e-09
-0.00518488
0.000834295
-3.09662e-09
-0.00428815
0.00061137
9.38186e-10
-0.00361856
0.000521525
2.19532e-09
-0.00350436
0.000501624
1.07652e-09
-0.00324455
0.000510173
8.56987e-10
-0.00294894
0.00050893
8.43309e-10
-0.00259126
0.000505153
7.55538e-10
-0.00217003
0.000495363
7.35877e-10
-0.00169065
0.000492139
7.17405e-10
-0.00116206
0.000492063
7.48852e-10
-0.000635779
0.000509702
7.83001e-10
0.000540194
9.17045e-10
0.00202818
-4.36952e-10
-1.60078e-12
0.00203166
-8.7004e-10
-1.45974e-12
0.00203441
-1.60707e-09
-1.50507e-12
0.00203832
-2.68347e-09
-1.66515e-12
0.00204207
-5.05745e-09
-2.20057e-12
0.00204633
-1.2357e-08
-2.96591e-12
0.00205748
1.18663e-08
-2.3877e-12
0.00206533
-1.88251e-08
-1.54741e-12
0.00204754
2.18373e-07
-1.59586e-12
0.00199768
1.28131e-06
-1.18762e-11
0.00185218
5.44539e-06
-5.94205e-11
0.00135934
2.92632e-05
-3.52342e-10
-0.0016189
0.00028786
-2.3967e-09
-0.00528015
0.00166832
-5.07636e-09
-0.00426687
0.00124148
1.95664e-09
-0.00358754
0.00105205
2.17386e-09
-0.00346835
0.000999468
1.13243e-09
-0.00321025
0.00102081
1.01788e-09
-0.0029137
0.00101639
8.24097e-10
-0.00256174
0.00100911
7.30017e-10
-0.00214547
0.000992435
7.14804e-10
-0.00167185
0.000986589
7.03201e-10
-0.00115129
0.000987632
7.3901e-10
-0.000629697
0.00101819
7.66648e-10
0.00108167
8.88952e-10
0.00202818
-5.1367e-10
-1.01651e-12
0.00203166
-1.18047e-09
-1.69073e-12
0.00203441
-2.23698e-09
-1.5507e-12
0.00203832
-4.16812e-09
-1.28153e-12
0.00204201
-9.22943e-09
-1.57385e-12
0.00204621
-2.35443e-08
-3.71395e-13
0.00205737
3.84547e-08
-1.10269e-11
0.00206791
-5.37423e-08
-9.09451e-12
0.00205169
3.22477e-07
-1.24352e-11
0.00200269
1.86274e-06
-5.55721e-11
0.00186657
7.50572e-06
-2.30152e-10
0.00143171
3.83938e-05
-1.3828e-09
-0.00151487
0.000349483
-1.33683e-08
-0.00552192
0.00239785
3.41839e-09
-0.00423655
0.00191151
2.99569e-09
-0.00352368
0.00159536
1.16168e-09
-0.0033966
0.00149374
1.01785e-09
-0.00314366
0.00153101
1.20017e-09
-0.00284817
0.00152359
8.18109e-10
-0.00250546
0.00150865
6.82721e-10
-0.00209796
0.00149002
6.7045e-10
-0.0016336
0.00148241
6.72424e-10
-0.0011238
0.00148395
7.14102e-10
-0.000616037
0.00152839
7.24839e-10
0.00162679
8.61788e-10
0.00202818
-4.01715e-10
-5.00123e-13
0.00203166
-8.00129e-10
6.87761e-13
0.0020344
-1.43013e-09
8.00709e-13
0.00203831
-1.91558e-09
1.1079e-12
0.0020419
-2.07162e-09
1.92049e-12
0.00204587
-3.42647e-09
3.52742e-12
0.00205752
3.13445e-08
-1.04191e-12
0.00207177
-8.41234e-08
3.8321e-12
0.00205261
3.89579e-07
-4.25599e-12
0.00200899
2.04875e-06
-2.9872e-11
0.00188684
8.08121e-06
-1.28367e-10
0.00152644
4.03053e-05
-7.3012e-10
-0.000556738
0.000328618
-5.30641e-09
-0.00572721
0.00294072
-8.09452e-09
-0.00419493
0.00268472
6.82951e-09
-0.00343926
0.00215887
1.39858e-09
-0.00328926
0.00197749
1.07312e-09
-0.00304301
0.00204257
1.43621e-09
-0.00274809
0.00203436
8.01126e-10
-0.00242142
0.00200726
6.17444e-10
-0.00202671
0.00198737
6.11759e-10
-0.00157562
0.00197773
6.329e-10
-0.00108049
0.00197895
6.81126e-10
-0.000592465
0.00203909
6.67034e-10
0.0021774
8.15444e-10
0.00202818
-5.9445e-11
-6.19211e-14
0.00203166
1.0699e-10
1.01318e-14
0.0020344
5.20971e-10
2.38571e-13
0.0020383
3.85135e-09
8.19619e-13
0.00204178
1.51427e-08
1.60972e-12
0.00204541
5.14811e-08
4.73685e-12
0.00205828
-4.57831e-08
-9.95948e-12
0.00207087
-6.8639e-08
3.98394e-12
0.00205195
3.82206e-07
-1.04755e-11
0.00201701
1.79765e-06
-5.36662e-11
0.0019136
7.27834e-06
-2.09051e-10
0.00161595
3.71473e-05
-9.85561e-10
-6.7889e-05
0.000284785
-7.18684e-09
-0.00582131
0.00313159
-9.11478e-09
-0.00414128
0.00362524
1.17214e-08
-0.00335134
0.0027659
1.97446e-10
-0.0031476
0.0024422
5.4679e-10
-0.00291217
0.00255156
1.13536e-09
-0.00262364
0.00255197
6.97159e-10
-0.00230883
0.00250261
4.83527e-10
-0.00192946
0.00248092
4.90531e-10
-0.00149612
0.00247177
5.61475e-10
-0.0010218
0.00247309
6.37982e-10
-0.000560698
0.00255135
6.06104e-10
0.00273594
7.721e-10
0.00202818
-2.21055e-10
-4.15173e-13
0.00203167
-6.16932e-10
2.53527e-12
0.00203447
-7.27797e-10
2.54872e-12
0.00203833
6.92345e-10
2.49786e-12
0.00204165
7.67137e-09
2.99222e-12
0.0020454
4.10246e-08
2.39749e-12
0.00205993
-3.59246e-08
2.05354e-11
0.00206876
-2.27254e-08
1.72135e-11
0.00205058
2.62354e-07
1.40071e-11
0.00202846
1.40261e-06
1.23298e-11
0.00194754
6.30605e-06
-1.36264e-11
0.00170632
3.23726e-05
-2.35387e-10
0.000417687
0.000228133
-1.73307e-09
-0.00558446
0.00284825
-7.898e-09
-0.00402017
0.00477416
6.5353e-09
-0.00325861
0.00338009
1.40124e-09
-0.00296704
0.00291515
4.98007e-10
-0.00274779
0.00304856
5.97387e-10
-0.00246955
0.00306982
2.66928e-10
-0.00216724
0.00300259
3.02817e-10
-0.00180418
0.00296998
3.18706e-10
-0.00139338
0.0029659
4.52007e-10
-0.000944705
0.00296913
5.67093e-10
-0.000516426
0.00306776
5.40253e-10
0.00332445
7.43394e-10
0.00202818
-4.25846e-10
-1.20637e-12
0.00203167
-7.22761e-10
1.68959e-12
0.00203451
-1.36825e-09
1.65966e-12
0.00203837
-2.41934e-09
1.15145e-12
0.0020416
-2.78263e-09
8.17769e-13
0.00204537
8.86702e-09
-9.34557e-13
0.00206092
-1.75633e-08
2.18244e-11
0.00206655
1.77194e-08
1.15197e-11
0.00205263
5.18799e-08
1.30921e-11
0.0020438
1.0309e-06
2.22649e-11
0.00198645
5.33522e-06
6.04311e-11
0.00179562
2.694e-05
1.74636e-10
0.00107936
0.000172291
8.46477e-10
-0.00404837
0.00212897
8.5969e-09
-0.00386991
0.00605997
-3.61335e-09
-0.00317859
0.00401604
1.59053e-09
-0.00275391
0.00343475
-4.63447e-10
-0.00255395
0.00354333
-1.47931e-10
-0.0022889
0.00357562
-1.60105e-10
-0.00199465
0.00350782
-1.0779e-11
-0.00164479
0.0034551
1.23276e-10
-0.0012586
0.00345455
3.16613e-10
-0.000839085
0.00346065
4.97525e-10
-0.000449589
0.00358919
4.94923e-10
0.0039614
6.93239e-10
0.00202818
4.56703e-10
1.49147e-12
0.00203167
-4.44522e-10
3.80772e-12
0.00203452
-1.14811e-09
3.91715e-12
0.00203839
-2.35547e-09
3.85092e-12
0.00204164
-5.84874e-09
3.88316e-12
0.00204532
-8.62158e-09
1.64002e-12
0.00206109
-2.90707e-08
3.41849e-11
0.00206493
2.8528e-08
-3.35666e-13
0.00206072
-1.21698e-07
1.58903e-11
0.00206349
7.91753e-07
4.04758e-11
0.00202979
4.2363e-06
7.70147e-11
0.0018643
2.09638e-05
1.63918e-10
0.00135868
0.000123149
5.53535e-10
-0.00214062
0.0013075
2.62365e-09
-0.00388943
0.00727162
-2.13152e-09
-0.00310585
0.00468415
-1.00821e-09
-0.00252083
0.00399064
-9.35114e-10
-0.00233222
0.00401042
-8.34872e-10
-0.00207727
0.00405697
-7.33435e-10
-0.00178988
0.00401106
-3.42199e-10
-0.00144848
0.00393614
-2.18175e-11
-0.00108241
0.00393901
1.87271e-10
-0.000695492
0.0039538
4.07973e-10
-0.000342677
0.00410734
4.48202e-10
0.00466916
6.35784e-10
0.00202818
-3.55145e-10
-4.01517e-13
0.00203167
-1.06917e-09
2.89816e-12
0.00203452
-1.93429e-09
2.95938e-12
0.00203837
-2.89017e-09
3.17363e-12
0.00204159
-3.35579e-09
5.80555e-12
0.0020454
-5.01513e-09
8.59394e-12
0.00206088
-1.84782e-08
3.06315e-11
0.00206468
2.15644e-09
-5.39051e-12
0.00206861
-1.31064e-07
2.16686e-11
0.00207414
5.65164e-07
3.09181e-11
0.00206221
3.13253e-06
5.79528e-11
0.0019256
1.53078e-05
1.25224e-10
0.00163921
8.26581e-05
3.34919e-10
-0.000494825
0.000701225
1.51777e-09
-0.00450639
0.00695903
5.79758e-10
-0.00303791
0.00598402
-1.98365e-09
-0.00227571
0.00458778
-1.20352e-09
-0.00207595
0.00442124
-1.24798e-09
-0.00182513
0.00452367
-9.7354e-10
-0.00155128
0.00450628
-6.23742e-10
-0.00121742
0.00441112
-2.00597e-10
-0.000860933
0.00441011
6.30097e-12
-0.000510539
0.00445326
2.96837e-10
-0.000167454
0.00460256
4.17215e-10
0.00550096
5.40176e-10
0.00202818
6.13331e-13
-1.37715e-09
0.00203167
4.92139e-12
-1.55245e-09
0.00203452
5.10659e-12
-2.34296e-09
0.00203838
5.7241e-12
-3.03872e-09
0.00204164
1.01848e-11
-2.99499e-09
0.0020455
1.69145e-11
-8.42064e-09
0.00206065
3.53935e-11
3.20273e-09
0.0020657
4.38506e-12
-3.2736e-08
0.00206516
3.93786e-11
-5.17774e-08
0.00208291
5.27426e-11
2.48316e-07
0.00209656
9.04644e-11
1.66359e-06
0.00198926
1.64979e-10
9.01743e-06
0.001862
4.59632e-10
5.26172e-05
0.00062093
1.89716e-09
0.000381572
-0.00438416
6.46755e-09
0.00453995
-0.00293035
-4.58592e-09
0.0078421
-0.00204296
-1.07597e-09
0.00522356
-0.00178123
-1.36781e-09
0.00479305
-0.0015331
-1.52467e-09
0.00498412
-0.00127737
-7.55301e-10
0.00498436
-0.000950382
-3.74677e-10
0.00486808
-0.000574601
-8.21886e-11
0.00484015
-0.000256601
2.40613e-10
0.0049703
7.82707e-05
3.4551e-10
0.00506723
4.54526e-10
0.00650743
0.00202818
4.85818e-10
1.67535e-12
0.00203166
6.29951e-10
3.17438e-12
0.00203441
9.9315e-10
3.3523e-12
0.00203831
1.58095e-09
3.85624e-12
0.00204204
2.47032e-09
5.3996e-12
0.00204636
1.57626e-09
7.84823e-12
0.00205752
9.33147e-09
7.58112e-12
0.00206418
1.66265e-09
8.36193e-12
0.00204512
1.24631e-07
6.6961e-12
0.00199443
6.40002e-07
7.83201e-12
0.00184443
2.78335e-06
-1.24205e-11
0.00132168
1.59137e-05
-1.75874e-10
-0.00179493
0.000173553
-2.17645e-09
-0.00518152
0.000831272
5.48046e-09
-0.00428583
0.000611892
1.04092e-09
-0.00361779
0.000523043
-1.15183e-09
-0.0035042
0.000502311
-8.55313e-10
-0.00324458
0.000510327
-5.07802e-10
-0.00294913
0.000508876
-5.94958e-10
-0.00259143
0.000505094
-4.77413e-10
-0.00217022
0.000495319
-2.6395e-10
-0.00169082
0.000492105
-1.40022e-10
-0.00116216
0.000492029
-7.17629e-11
-0.000635726
0.000509624
-4.38148e-11
0.000540213
-2.8705e-11
0.00202818
3.23021e-10
8.59637e-13
0.00203166
2.67732e-10
2.04834e-12
0.00203442
5.00184e-10
2.17759e-12
0.00203832
9.07147e-10
2.53506e-12
0.00204207
6.33799e-10
3.59844e-12
0.00204635
-3.2767e-09
5.45565e-12
0.00205748
1.92875e-08
6.28624e-12
0.00206527
-7.84768e-09
7.27029e-12
0.00204749
2.29531e-07
7.42991e-12
0.00199768
1.27989e-06
1.15053e-11
0.00185222
5.37643e-06
8.55075e-12
0.0013594
2.88188e-05
-6.22333e-11
-0.00161847
0.0002839
-8.60871e-10
-0.00526973
0.00166248
4.32885e-09
-0.00426319
0.00124803
-2.29792e-10
-0.00358681
0.00105595
-1.25412e-09
-0.00346831
0.00100064
-8.2027e-10
-0.00321038
0.00102108
-5.9932e-10
-0.00291395
0.00101633
-5.60747e-10
-0.00256196
0.00100901
-4.2045e-10
-0.00214568
0.000992346
-2.3252e-10
-0.00167206
0.000986524
-1.23031e-10
-0.00115141
0.00098752
-6.35066e-11
-0.000629605
0.00101796
-3.72905e-11
0.00108173
-2.28593e-11
0.00202818
2.5661e-10
8.68649e-13
0.00203166
6.90167e-10
3.67011e-12
0.00203442
1.02614e-09
3.67748e-12
0.00203831
1.10385e-09
3.78051e-12
0.00204198
-7.46334e-10
5.38243e-12
0.00204623
-9.94352e-09
6.35682e-12
0.00205739
5.6997e-08
1.95197e-11
0.00206771
-3.0436e-08
2.18918e-11
0.00205142
3.58953e-07
2.91557e-11
0.00200244
1.9279e-06
7.20909e-11
0.00186591
7.62893e-06
2.26135e-10
0.00142787
3.87404e-05
1.12192e-09
-0.00154025
0.000352904
1.05831e-08
-0.00552662
0.00239568
-4.44032e-09
-0.00424086
0.00190835
-1.77778e-09
-0.00352589
0.00159536
-6.86759e-11
-0.00339787
0.00149382
-5.16884e-10
-0.00314424
0.00153062
-7.42502e-10
-0.00284853
0.00152319
-5.38884e-10
-0.00250565
0.00150839
-3.37861e-10
-0.00209811
0.00148984
-1.75535e-10
-0.00163371
0.00148229
-8.96422e-11
-0.00112382
0.00148379
-4.46692e-11
-0.000615941
0.00152811
-2.18977e-11
0.00162684
-9.06023e-12
0.00202818
5.39951e-11
-3.52954e-14
0.00203166
2.82302e-10
2.41767e-13
0.00203441
6.91637e-10
2.44795e-13
0.00203831
1.57639e-09
2.29954e-13
0.00204192
2.82057e-09
1.37389e-13
0.00204589
4.06016e-09
-7.80113e-14
0.00205756
4.74808e-08
5.93956e-12
0.00207183
-6.164e-08
6.26082e-12
0.00205266
4.18737e-07
1.5731e-11
0.00200895
2.0986e-06
4.11786e-11
0.00188657
8.15927e-06
1.29453e-10
0.00152556
4.03844e-05
5.97796e-10
-0.000560681
0.000328642
3.94512e-09
-0.00572
0.00293833
5.86732e-09
-0.00419628
0.00268642
-5.33998e-09
-0.00344179
0.00215698
-1.93914e-10
-0.00329072
0.00197585
-4.40258e-10
-0.0030438
0.00204146
-9.73296e-10
-0.00274847
0.00203352
-4.5902e-10
-0.0024216
0.00200678
-2.22642e-10
-0.00202683
0.00198708
-1.05488e-10
-0.00157569
0.00197757
-4.39635e-11
-0.00108048
0.00197881
-1.23951e-11
-0.000592358
0.00203884
3.68582e-12
0.00217729
1.30236e-11
0.00202818
1.41852e-10
7.86038e-13
0.00203166
1.80528e-09
3.26952e-12
0.0020344
3.62434e-09
3.08721e-12
0.00203829
8.39169e-09
2.49305e-12
0.00204175
2.17062e-08
2.32473e-12
0.00204543
5.99853e-08
-1.47294e-12
0.0020583
-1.69924e-08
3.3344e-11
0.00207082
-3.55014e-08
9.89519e-12
0.00205188
4.36915e-07
2.70055e-11
0.00201678
1.90881e-06
7.47651e-11
0.00191273
7.53279e-06
2.19509e-10
0.0016135
3.79331e-05
8.25339e-10
-7.81489e-05
0.000289229
5.55625e-09
-0.00582808
0.00315363
7.3503e-09
-0.00414948
0.00361436
-8.25063e-09
-0.00335437
0.00275739
4.34507e-10
-0.00314919
0.00243782
-5.06515e-10
-0.00291294
0.00254928
-9.30942e-10
-0.00262396
0.00255077
-2.88696e-10
-0.00230893
0.00250192
-7.92801e-11
-0.00192951
0.0024805
-2.30841e-11
-0.00149614
0.00247158
8.38837e-12
-0.00102177
0.00247297
2.63863e-11
-0.000560549
0.00255114
3.42894e-11
0.00273568
4.0633e-11
0.00202817
-1.28572e-11
6.77033e-13
0.00203167
2.79805e-10
-9.27387e-13
0.00203446
1.0015e-09
-8.85333e-13
0.00203832
3.45498e-09
-7.83957e-13
0.00204167
1.19873e-08
-1.27773e-12
0.00204536
4.64289e-08
-1.32396e-12
0.00205986
-2.31698e-08
-6.98763e-12
0.00206885
-4.05705e-09
-9.13331e-12
0.00205064
2.92315e-07
-8.52921e-12
0.00202834
1.45406e-06
-1.03772e-11
0.0019475
6.42513e-06
-8.6664e-12
0.00170655
3.26992e-05
6.62866e-11
0.000419159
0.00022968
1.52168e-10
-0.00556917
0.00285793
2.51485e-09
-0.00401832
0.00477606
-5.0017e-10
-0.00325775
0.00337423
-7.49704e-10
-0.00296701
0.00291089
-4.9336e-10
-0.00274802
0.00304656
-5.50394e-10
-0.00246954
0.00306853
-7.75957e-11
-0.00216719
0.00300183
7.67428e-11
-0.00180414
0.00296957
5.49111e-11
-0.00139335
0.00296569
6.77977e-11
-0.000944621
0.00296902
6.89049e-11
-0.000516228
0.0030676
6.75021e-11
0.00332407
7.10189e-11
0.00202818
6.35815e-10
1.40648e-12
0.00203167
6.56041e-10
2.67307e-12
0.0020345
9.56229e-10
2.75975e-12
0.00203836
1.38398e-09
2.88514e-12
0.0020416
3.19485e-09
3.29848e-12
0.0020453
1.80899e-08
3.43147e-12
0.00206082
-5.87646e-09
7.80554e-12
0.00206662
2.4303e-08
4.05003e-12
0.00205271
7.59321e-08
4.2445e-12
0.00204376
1.06396e-06
4.18057e-12
0.00198655
5.36348e-06
-7.57967e-12
0.00179616
2.69322e-05
-9.02835e-11
0.00108255
0.000172113
-8.25132e-10
-0.00402744
0.00212481
-7.93009e-09
-0.00386151
0.00606868
5.46853e-09
-0.00317601
0.00401937
-6.05645e-10
-0.00275287
0.00343371
-2.89539e-12
-0.00255346
0.00354144
-1.44904e-10
-0.00228854
0.00357457
1.21336e-10
-0.0019944
0.00350722
2.17147e-10
-0.00164463
0.00345478
2.06539e-10
-0.0012585
0.00345438
1.07774e-10
-0.000838958
0.00346054
9.9091e-11
-0.000449363
0.00358911
1.0006e-10
0.0039609
1.01474e-10
0.00202818
4.77023e-10
-1.03349e-12
0.00203167
3.40873e-10
-1.19168e-12
0.00203451
5.37426e-10
-1.21521e-12
0.00203838
6.8635e-10
-1.29557e-12
0.00204164
6.0414e-10
-1.58026e-12
0.00204525
3.54466e-09
-1.15799e-12
0.00206107
-1.43836e-08
-8.3675e-12
0.00206505
4.70456e-08
1.11028e-12
0.00206063
-9.22438e-08
-4.21181e-12
0.00206319
8.37034e-07
-1.2503e-11
0.00202938
4.32411e-06
-2.85022e-11
0.00186373
2.11325e-05
-8.17942e-11
0.00135825
0.00012337
-4.45533e-10
-0.00214242
0.00130774
-3.82256e-09
-0.00388947
0.00727591
4.72611e-09
-0.00310532
0.00468585
4.7443e-10
-0.00251985
0.00398893
-3.95928e-10
-0.0023313
0.0040088
-1.20721e-12
-0.00207666
0.00405608
2.72361e-10
-0.00178949
0.00401063
3.31745e-10
-0.00144823
0.00393591
2.7368e-10
-0.00108224
0.00393883
2.21141e-10
-0.000695319
0.00395366
1.18861e-10
-0.000342431
0.00410733
1.09858e-10
0.0046685
1.21286e-10
0.00202818
1.9806e-10
1.28193e-12
0.00203167
1.30349e-10
2.30184e-12
0.00203451
1.01051e-10
2.44142e-12
0.00203837
2.2237e-10
2.90806e-12
0.00204163
1.12985e-09
3.48861e-12
0.00204533
1.15817e-09
5.29604e-12
0.00206085
-8.18915e-09
1.67738e-12
0.00206483
1.91685e-08
1.9512e-11
0.00206869
-1.04306e-07
2.11523e-11
0.00207408
6.0698e-07
2.12176e-11
0.00206196
3.21369e-06
1.30176e-11
0.00192564
1.5414e-05
6.67544e-12
0.00163948
8.28169e-05
-1.36961e-10
-0.000493163
0.000701105
-1.63567e-09
-0.00450683
0.00695911
3.835e-10
-0.00303752
0.0059833
7.77604e-10
-0.00227459
0.00458614
-4.82329e-10
-0.00207492
0.00441995
3.15203e-11
-0.00182439
0.00452308
3.44031e-10
-0.00155077
0.00450611
3.3536e-10
-0.00121708
0.00441103
2.63877e-10
-0.000860707
0.00441001
2.46364e-10
-0.00051035
0.00445313
2.14883e-10
-0.000167231
0.00460264
1.24123e-10
0.00550016
1.09627e-10
0.00202818
-1.09461e-12
-7.19795e-10
0.00203167
-1.21137e-12
-6.8706e-10
0.00203451
-1.19727e-12
-8.11606e-10
0.00203838
-1.00988e-12
-7.03844e-10
0.00204169
-7.66368e-14
-2.7873e-10
0.00204544
2.96862e-12
-7.19077e-09
0.00206061
-1.32125e-11
7.63264e-09
0.00206586
8.67158e-12
-1.79234e-08
0.00206524
-5.31134e-12
-4.27927e-08
0.00208285
-3.83737e-12
2.5408e-07
0.00209629
8.64825e-13
1.65984e-06
0.00198913
-2.87715e-12
9.00395e-06
0.0018623
-2.69188e-11
5.25546e-05
0.000625595
-3.39056e-10
0.000381079
-0.00437917
-2.18365e-09
0.00453411
-0.00292805
-6.91071e-10
0.00784539
-0.00204131
-5.43942e-11
0.00522311
-0.00177986
3.15183e-10
0.00479203
-0.00153215
4.65595e-10
0.0049838
-0.00127678
2.93855e-10
0.00498439
-0.000949987
2.26026e-10
0.00486818
-0.000574315
2.49029e-10
0.00484014
-0.000256362
2.48231e-10
0.00497011
7.8418e-05
1.52492e-10
0.00506745
1.27407e-10
0.00650645
0.00202818
-1.77432e-10
4.11156e-13
0.00203166
-2.82071e-10
7.87946e-13
0.00203441
-4.19107e-10
8.3319e-13
0.00203831
-5.98419e-10
9.50522e-13
0.00204206
-8.87429e-10
1.24102e-12
0.00204636
-3.35133e-09
1.85448e-12
0.00205755
5.00666e-09
3.44447e-12
0.00206426
-2.55004e-09
6.44102e-12
0.00204517
1.18682e-07
9.15851e-12
0.00199439
6.38959e-07
1.35952e-11
0.00184422
2.80922e-06
1.77161e-11
0.00132094
1.6086e-05
-5.69986e-12
-0.00179882
0.000175358
-2.31322e-10
-0.00518186
0.000835523
3.79773e-10
-0.0042888
0.00061012
2.73979e-10
-0.00361901
0.000520949
2.42464e-10
-0.00350449
0.000501365
-2.11336e-11
-0.00324458
0.000509964
-1.08635e-10
-0.00294892
0.000508804
-1.00119e-10
-0.00259125
0.000505093
-3.08869e-11
-0.00217008
0.000495327
6.17026e-11
-0.00169073
0.000492111
1.25821e-10
-0.00116209
0.000492034
1.77265e-10
-0.00063569
0.00050963
1.86619e-10
0.000540217
1.85695e-10
0.00202818
-7.44294e-11
8.41726e-13
0.00203166
-1.27686e-10
1.62817e-12
0.00203441
-2.70994e-10
1.71286e-12
0.00203831
-5.68733e-10
1.92881e-12
0.00204206
-1.7842e-09
2.49501e-12
0.00204633
-7.08309e-09
3.43786e-12
0.00205746
1.82874e-08
5.18945e-12
0.00206527
-8.34897e-09
7.88235e-12
0.00204746
2.35107e-07
1.05428e-11
0.00199759
1.30761e-06
1.59036e-11
0.00185198
5.49182e-06
2.02467e-11
0.00135869
2.93696e-05
4.3946e-12
-0.00161957
0.000288514
-1.62367e-10
-0.0052754
0.00167055
-1.21596e-10
-0.00426615
0.00124138
5.11318e-10
-0.00358737
0.00105174
2.31212e-10
-0.00346821
0.000999144
-6.18857e-11
-0.00321018
0.00102058
-1.12524e-10
-0.00291367
0.00101627
-1.06317e-10
-0.00256176
0.00100904
-4.60869e-11
-0.00214554
0.000992386
5.15038e-11
-0.00167196
0.000986547
1.15457e-10
-0.00115135
0.000987535
1.69059e-10
-0.000629568
0.00101797
1.81889e-10
0.00108174
1.85565e-10
0.00202818
-1.35475e-10
2.42523e-13
0.00203166
-3.59062e-10
5.71651e-13
0.00203441
-6.64186e-10
5.95775e-13
0.00203831
-1.52444e-09
7.76432e-13
0.00204201
-5.11183e-09
1.09412e-12
0.0020462
-1.74169e-08
1.74355e-12
0.00205735
4.76068e-08
1.43742e-12
0.00206784
-4.16414e-08
2.30045e-12
0.00205162
3.38565e-07
3.62047e-12
0.00200261
1.88996e-06
4.5316e-12
0.00186635
7.55887e-06
1.29359e-12
0.0014308
3.85336e-05
-5.964e-11
-0.00152069
0.000350597
-8.00807e-10
-0.00552066
0.0023991
-4.73675e-10
-0.00423592
0.00191113
7.35048e-10
-0.00352336
0.00159516
3.15884e-11
-0.00339649
0.00149346
-1.21441e-10
-0.0031436
0.00153082
-1.4851e-10
-0.00284813
0.00152347
-1.40574e-10
-0.00250542
0.00150855
-7.37925e-11
-0.00209796
0.00148994
2.70337e-11
-0.0016336
0.00148235
9.50375e-11
-0.00112376
0.00148383
1.51523e-10
-0.000615905
0.00152813
1.73034e-10
0.00162685
1.7779e-10
0.00202818
2.69291e-10
1.17187e-12
0.00203166
4.18937e-10
2.17083e-12
0.0020344
5.9025e-10
2.32618e-12
0.0020383
1.11813e-09
2.76506e-12
0.0020419
1.97864e-09
3.99075e-12
0.00204586
2.19834e-09
6.06804e-12
0.0020575
4.68823e-08
3.51844e-12
0.00207176
-6.92562e-08
5.50425e-12
0.00205261
4.10553e-07
4.35015e-12
0.00200895
2.08128e-06
3.98527e-12
0.00188669
8.12835e-06
-8.92438e-12
0.00152607
4.03608e-05
-1.42931e-10
-0.00055797
0.000328623
-1.38658e-09
-0.00572504
0.00294007
-3.58039e-10
-0.0041938
0.00268565
2.41047e-09
-0.00343886
0.0021589
-2.87494e-10
-0.00328916
0.00197731
-1.82591e-10
-0.00304293
0.00204241
-1.39768e-10
-0.00274805
0.00203417
-3.13591e-10
-0.00242136
0.00200712
-1.51175e-10
-0.00202668
0.00198726
-1.11419e-11
-0.00157559
0.00197767
6.71544e-11
-0.00108042
0.00197886
1.24473e-10
-0.000592324
0.00203888
1.58053e-10
0.0021773
1.63135e-10
0.00202818
1.51703e-10
2.78417e-13
0.00203166
7.08605e-10
5.38007e-13
0.00203439
1.9873e-09
5.79069e-13
0.00203829
6.32145e-09
5.46053e-13
0.00204179
1.87784e-08
6.89986e-13
0.00204538
5.61675e-08
1.12312e-12
0.00205825
-3.39988e-08
3.07763e-12
0.00207094
-5.7517e-08
3.14953e-12
0.00205196
4.01077e-07
1.8831e-12
0.00201683
1.83114e-06
-3.69227e-12
0.00191324
7.35582e-06
-3.06073e-11
0.00161525
3.73077e-05
-1.99561e-10
-7.05758e-05
0.000285529
-1.71635e-09
-0.00582232
0.00313452
-1.69475e-09
-0.00414255
0.00362419
2.4413e-09
-0.00335157
0.00276481
-7.83926e-10
-0.0031478
0.00244138
-5.81707e-11
-0.00291216
0.00255087
-1.14435e-10
-0.00262362
0.00255164
-3.5403e-10
-0.00230876
0.00250239
-3.08561e-10
-0.0019294
0.00248074
-5.40369e-11
-0.00149607
0.0024717
3.28739e-11
-0.00102172
0.00247303
9.37785e-11
-0.000560522
0.00255118
1.39328e-10
0.00273569
1.48057e-10
0.00202818
-1.72943e-10
9.68919e-14
0.00203167
2.26594e-10
2.82369e-12
0.00203446
8.42997e-10
2.80254e-12
0.00203832
3.07316e-09
2.63365e-12
0.00204164
1.17062e-08
3.07861e-12
0.00204538
4.60546e-08
1.94891e-12
0.00205989
-2.08657e-08
2.41762e-11
0.00206878
-7.63141e-09
1.61419e-11
0.0020506
2.85824e-07
2.36269e-11
0.00202834
1.4523e-06
4.84096e-11
0.00194719
6.40593e-06
1.1664e-10
0.00170555
3.26533e-05
3.41477e-10
0.000412825
0.000229349
2.1796e-09
-0.00558713
0.00285681
6.18195e-09
-0.00402198
0.00477237
-6.9549e-09
-0.00325867
0.00337753
-9.55689e-10
-0.00296698
0.00291305
-1.54184e-10
-0.00274778
0.00304782
-2.50624e-10
-0.00246947
0.00306934
-3.98608e-10
-0.00216715
0.00300227
-3.83836e-10
-0.0018041
0.00296978
-1.62896e-10
-0.00139332
0.0029658
-6.93029e-12
-0.000944598
0.00296908
6.79811e-11
-0.00051621
0.00306763
1.19598e-10
0.00332409
1.27665e-10
0.00202818
-2.48812e-10
3.13431e-13
0.00203167
-5.3173e-10
5.38725e-13
0.0020345
-7.76427e-10
5.87001e-13
0.00203836
-1.11567e-09
5.78818e-13
0.00204161
2.16122e-10
6.82432e-13
0.0020453
1.26675e-08
4.42017e-13
0.00206084
-1.27698e-08
4.87614e-12
0.0020667
1.95029e-08
2.25902e-12
0.00205275
6.68891e-08
6.40331e-12
0.0020437
1.04776e-06
2.01425e-11
0.00198629
5.3612e-06
6.6763e-11
0.00179572
2.69753e-05
2.51952e-10
0.00108049
0.000172457
1.42429e-09
-0.00403858
0.00212914
1.01873e-08
-0.00386658
0.00606286
-7.54711e-09
-0.00317812
0.00401738
2.18172e-10
-0.00275375
0.00343367
-1.64187e-10
-0.00255372
0.00354204
-3.71543e-10
-0.00228871
0.00357506
-4.91231e-10
-0.00199446
0.00350746
-4.53696e-10
-0.00164465
0.00345492
-2.16629e-10
-0.00125851
0.00345445
-4.49547e-11
-0.000838955
0.00346058
4.38912e-11
-0.000449355
0.00358912
9.71097e-11
0.00396089
1.0854e-10
0.00202818
6.40801e-10
1.98072e-12
0.00203167
4.0149e-10
3.171e-12
0.0020345
2.76896e-10
3.29096e-12
0.00203837
-6.48692e-11
3.52267e-12
0.00204163
-8.42311e-10
4.19805e-12
0.00204525
1.99752e-09
4.10789e-12
0.00206104
-1.71388e-08
1.84697e-11
0.00206499
4.53765e-08
3.0082e-12
0.00206062
-9.39702e-08
1.47807e-11
0.00206322
8.41129e-07
3.08217e-11
0.00202937
4.34385e-06
5.59753e-11
0.00186367
2.12041e-05
1.22827e-10
0.00135781
0.000123625
4.61509e-10
-0.002144
0.00130973
2.38214e-09
-0.00389007
0.00727391
-2.86789e-09
-0.00310656
0.0046829
1.00455e-10
-0.00252054
0.00398823
9.79939e-11
-0.00233166
0.00400896
-5.33191e-10
-0.00207693
0.00405626
-5.62975e-10
-0.00178963
0.00401068
-4.68071e-10
-0.0014483
0.00393597
-2.31856e-10
-0.00108227
0.00393887
-6.76776e-11
-0.000695334
0.00395368
2.05097e-11
-0.000342435
0.00410732
7.5956e-11
0.00466847
8.67505e-11
0.00202818
-1.13744e-10
9.03187e-14
0.00203167
-3.75829e-10
3.74281e-13
0.00203451
-5.71093e-10
3.98662e-13
0.00203837
-6.84603e-10
4.92927e-13
0.00204163
4.27606e-11
5.9757e-13
0.00204534
3.85237e-10
7.09202e-13
0.00206083
-1.25243e-08
7.88654e-12
0.0020648
1.56106e-08
-2.96825e-12
0.00206871
-1.13357e-07
2.62386e-12
0.00207403
5.94518e-07
4.34855e-12
0.00206181
3.19647e-06
1.03335e-11
0.00192542
1.54057e-05
3.05275e-11
0.00163903
8.28624e-05
1.16151e-10
-0.000494125
0.000701956
5.15823e-10
-0.00450552
0.00696575
1.11756e-09
-0.00303778
0.005981
2.45272e-10
-0.00227472
0.00458539
9.10405e-11
-0.00207509
0.00442019
-5.62696e-10
-0.00182462
0.00452299
-6.08522e-10
-0.00155091
0.00450608
-4.06193e-10
-0.00121717
0.00441104
-2.11192e-10
-0.000860764
0.00441001
-7.50535e-11
-0.00051038
0.0044531
-4.55429e-12
-0.000167248
0.0046026
5.29903e-11
0.00550008
6.06891e-11
0.00202818
1.98349e-12
-5.7726e-11
0.00203167
3.23237e-12
5.75763e-11
0.00203451
3.3464e-12
1.27066e-10
0.00203838
3.51229e-12
6.74634e-10
0.00204169
3.87616e-12
1.37833e-09
0.00204546
3.3857e-12
-4.75787e-09
0.00206058
1.91043e-11
1.18765e-08
0.00206578
1.12139e-12
-1.72253e-08
0.0020652
2.03704e-11
-3.87811e-08
0.00208279
2.44046e-11
2.57965e-07
0.00209624
3.13697e-11
1.64766e-06
0.00198907
4.41039e-11
8.96613e-06
0.00186234
5.74925e-11
5.24647e-05
0.000626343
-9.02297e-11
0.000381008
-0.00437637
2.71662e-10
0.00453473
-0.00292711
1.89419e-09
0.00784569
-0.00204072
-3.96764e-10
0.00522329
-0.00177984
-7.8362e-10
0.00479264
-0.00153234
-6.59194e-10
0.00498395
-0.0012769
-3.69515e-10
0.00498437
-0.000950079
-1.95235e-10
0.00486815
-0.000574392
-8.5455e-11
0.0048401
-0.000256414
-2.36931e-11
0.00497004
7.83905e-05
2.80326e-11
0.00506738
4.57392e-11
0.00650633
0.00202818
-2.06504e-11
3.6909e-13
0.00203166
-7.69268e-11
6.36434e-13
0.00203441
-1.19464e-10
6.92898e-13
0.00203831
-1.36873e-10
8.2573e-13
0.00204205
-1.23511e-10
9.79956e-13
0.00204636
-2.05634e-09
1.49396e-12
0.00205754
6.06509e-09
1.20617e-12
0.00206422
-1.30563e-09
2.02218e-12
0.00204513
1.21056e-07
4.67569e-12
0.00199437
6.41935e-07
8.61896e-12
0.00184418
2.81176e-06
1.91318e-11
0.00132087
1.60808e-05
5.785e-11
-0.00179911
0.000175312
3.03945e-10
-0.00518142
0.000835212
-2.37328e-10
-0.00428864
0.000610159
-1.98802e-10
-0.00361898
0.000521167
-1.21349e-10
-0.00350447
0.000501366
-1.80138e-11
-0.00324453
0.000509912
-2.46762e-11
-0.00294884
0.000508753
1.22875e-11
-0.00259119
0.000505055
3.47001e-11
-0.00217005
0.000495299
-7.51913e-11
-0.0016907
0.00049209
-1.33462e-10
-0.00116208
0.000492018
-2.06431e-10
-0.000635681
0.000509617
-2.61222e-10
0.000540205
-3.97284e-10
0.00202818
-4.32065e-11
3.40377e-13
0.00203166
-9.25417e-11
5.58194e-13
0.00203441
-1.69549e-10
6.15405e-13
0.00203831
-2.90655e-10
7.58583e-13
0.00204206
-1.164e-09
8.55273e-13
0.00204632
-5.79893e-09
1.23935e-12
0.00205745
1.87324e-08
8.30107e-13
0.00206525
-8.97103e-09
1.70558e-12
0.00204744
2.34001e-07
4.40503e-12
0.00199757
1.30509e-06
8.10632e-12
0.00185195
5.48245e-06
1.68709e-11
0.00135863
2.9329e-05
4.48315e-11
-0.0016196
0.000288199
1.57729e-10
-0.00527452
0.00166973
8.94376e-12
-0.00426589
0.00124202
-1.95256e-10
-0.00358738
0.00105227
-1.0813e-10
-0.00346821
0.000999115
-1.50814e-11
-0.00321014
0.00102048
-3.3919e-11
-0.00291359
0.00101616
2.11005e-12
-0.00256169
0.00100896
1.33795e-11
-0.00214551
0.000992331
-9.43504e-11
-0.00167194
0.000986506
-1.43886e-10
-0.00115133
0.000987504
-2.07735e-10
-0.000629559
0.00101794
-2.48925e-10
0.00108172
-3.60931e-10
0.00202818
-3.69638e-11
3.04597e-13
0.00203166
-1.93977e-10
6.14411e-13
0.00203441
-4.09596e-10
6.50579e-13
0.00203831
-1.05805e-09
7.42318e-13
0.002042
-4.18976e-09
9.64593e-13
0.00204619
-1.56501e-08
1.36943e-12
0.00205735
4.91509e-08
1.81691e-12
0.00206783
-3.99289e-08
2.84978e-12
0.0020516
3.41058e-07
4.54205e-12
0.00200259
1.8938e-06
8.09751e-12
0.00186628
7.55963e-06
1.74802e-11
0.00143054
3.85001e-05
4.96791e-11
-0.00152206
0.000350261
3.00451e-10
-0.00551959
0.0023976
5.30905e-11
-0.00423609
0.00191279
-1.17042e-10
-0.00352374
0.00159561
-1.24911e-10
-0.00339666
0.00149322
-8.62356e-12
-0.00314361
0.0015306
-1.21913e-11
-0.00284807
0.00152325
3.07878e-12
-0.00250535
0.00150842
-1.39466e-11
-0.00209792
0.00148986
-1.25564e-10
-0.00163357
0.00148229
-1.66013e-10
-0.00112374
0.00148378
-2.10177e-10
-0.000615893
0.0015281
-2.16456e-10
0.00162682
-3.29339e-10
0.00202818
-1.01906e-12
1.70354e-13
0.00203166
1.73126e-10
3.48773e-13
0.0020344
4.07667e-10
3.70358e-13
0.0020383
9.93917e-10
4.25649e-13
0.00204191
1.7845e-09
5.61865e-13
0.00204586
1.42837e-09
8.5116e-13
0.00205752
5.05477e-08
1.54348e-12
0.0020718
-6.44455e-08
2.81725e-12
0.00205263