/*--------------------------------*- C++ -*----------------------------------*\
| =========                 |                                                 |
| \\      /  F ield         | OpenFOAM: The Open Source CFD Toolbox           |
|  \\    /   O peration     | Version:  4.1                                   |
|   \\  /    A nd           | Web:      www.OpenFOAM.org                      |
|    \\/     M anipulation  |                                                 |
\*---------------------------------------------------------------------------*/
FoamFile
{
    version     2.0;
    format      ascii;
    class       volScalarField;
    location    "0.34";
    object      T;
}
// * * * * * * * * * * * * * * * * * * * * * * * * * * * * * * * * * * * * * //

dimensions      [0 0 0 1 0 0 0];

internalField   nonuniform List<scalar> 
52500
(
0.337694
0.318299
0.31925
0.320031
0.321204
0.324064
0.326969
0.332705
0.346368
0.374135
0.44552
0.697256
1.28134
1.55837
1.42475
1.57632
1.68022
1.64075
1.57031
1.54848
1.53472
1.51737
1.50149
1.47832
1.39323
0.337695
0.318299
0.31925
0.320032
0.321204
0.324067
0.326968
0.33264
0.346241
0.373539
0.442753
0.684632
1.25311
1.56393
1.42297
1.56937
1.67996
1.64333
1.5704
1.54797
1.53349
1.51642
1.50076
1.4781
1.39127
0.337695
0.318299
0.319251
0.320032
0.321206
0.324074
0.326964
0.332502
0.34607
0.372289
0.437326
0.660095
1.20099
1.56911
1.4207
1.55747
1.67703
1.64561
1.56966
1.54647
1.53103
1.51426
1.49908
1.4767
1.38819
0.337695
0.3183
0.319252
0.320036
0.321209
0.324081
0.326961
0.332338
0.345845
0.37049
0.429986
0.626889
1.11164
1.56992
1.42029
1.53919
1.66958
1.64778
1.56682
1.5422
1.52539
1.50903
1.49482
1.47287
1.38163
0.337696
0.3183
0.319252
0.320038
0.32121
0.324091
0.326949
0.332195
0.345524
0.368438
0.421824
0.589489
1.02512
1.55574
1.42246
1.51245
1.65717
1.64891
1.56319
1.53648
1.51819
1.50332
1.48963
1.46724
1.37519
0.337695
0.318298
0.319253
0.320017
0.321212
0.3241
0.326878
0.332133
0.345459
0.366257
0.413204
0.551368
0.937684
1.51264
1.4356
1.48211
1.64242
1.65006
1.55884
1.52762
1.50792
1.49306
1.48057
1.46076
1.36704
0.337695
0.318298
0.319256
0.320002
0.321213
0.324104
0.326858
0.332062
0.345247
0.364092
0.405135
0.517837
0.839519
1.41548
1.46211
1.44671
1.61996
1.64902
1.55687
1.51721
1.49715
1.48235
1.46941
1.45175
1.3489
0.337697
0.318299
0.319257
0.32
0.321212
0.324099
0.32689
0.33199
0.345
0.362335
0.397746
0.490126
0.748118
1.25927
1.48589
1.41117
1.58747
1.64318
1.5587
1.5056
1.48421
1.47232
1.45904
1.44022
1.33476
0.337695
0.318299
0.319259
0.319998
0.321217
0.324103
0.3269
0.331958
0.345019
0.361048
0.391098
0.468924
0.665871
1.0665
1.49691
1.3852
1.5377
1.62957
1.56443
1.49501
1.47074
1.45637
1.4405
1.43024
1.29727
0.337695
0.318299
0.319259
0.319998
0.321216
0.324101
0.326913
0.331937
0.345065
0.360254
0.385699
0.453076
0.5987
0.909359
1.43459
1.38998
1.47679
1.60645
1.5742
1.48738
1.45527
1.43594
1.41717
1.40922
1.26043
0.337697
0.318301
0.319253
0.320034
0.321208
0.324068
0.326974
0.332718
0.346381
0.374146
0.445547
0.697431
1.28193
1.55851
1.42485
1.57631
1.68019
1.64071
1.5703
1.54846
1.5347
1.51734
1.50144
1.47826
1.39325
0.337696
0.3183
0.319252
0.320033
0.321206
0.324068
0.326969
0.332644
0.346244
0.373541
0.442768
0.684746
1.25333
1.56397
1.42285
1.56923
1.67995
1.6433
1.57037
1.54795
1.53347
1.51639
1.50072
1.47805
1.39128
0.337696
0.3183
0.319253
0.320032
0.32121
0.324078
0.326964
0.332517
0.346098
0.372339
0.437475
0.660852
1.20363
1.5691
1.42109
1.55799
1.67702
1.64552
1.56963
1.54645
1.53101
1.51423
1.49903
1.47665
1.3882
0.337696
0.3183
0.319251
0.320035
0.321207
0.324079
0.326955
0.332332
0.345838
0.370496
0.43005
0.627262
1.11252
1.56994
1.42008
1.53919
1.66955
1.64769
1.56679
1.54218
1.52536
1.50897
1.49473
1.47279
1.38172
0.337696
0.318301
0.319253
0.320037
0.321212
0.324093
0.326945
0.332202
0.345541
0.368481
0.421975
0.590162
1.02671
1.5565
1.4227
1.51312
1.65732
1.64881
1.56317
1.53648
1.51817
1.50324
1.4895
1.46714
1.37532
0.337695
0.318298
0.319251
0.320016
0.321208
0.324094
0.326877
0.332116
0.345422
0.366227
0.413183
0.551413
0.938015
1.51259
1.43552
1.4823
1.6426
1.65002
1.55882
1.52763
1.5079
1.49298
1.48044
1.46066
1.36718
0.337696
0.318298
0.319255
0.320004
0.32121
0.3241
0.326862
0.33205
0.345211
0.36407
0.405095
0.517698
0.839201
1.41448
1.46191
1.44603
1.61969
1.64909
1.55691
1.51724
1.49715
1.48228
1.46927
1.45162
1.34905
0.337695
0.318297
0.319255
0.32
0.321206
0.324093
0.326883
0.33197
0.344971
0.362315
0.397739
0.490131
0.748088
1.25927
1.48576
1.4109
1.58737
1.64329
1.55879
1.50564
1.48421
1.47225
1.45893
1.44007
1.3349
0.337695
0.318298
0.319256
0.319998
0.32121
0.324096
0.3269
0.331939
0.344977
0.361023
0.391072
0.468831
0.665724
1.06635
1.49685
1.38517
1.53781
1.62971
1.56451
1.49507
1.47076
1.45636
1.44042
1.43008
1.2974
0.337694
0.318297
0.319255
0.319998
0.321206
0.324088
0.32691
0.33191
0.345002
0.360214
0.385659
0.452967
0.598482
0.909086
1.4342
1.38989
1.47666
1.60661
1.57442
1.4874
1.45528
1.43589
1.4171
1.40905
1.26056
0.337695
0.318299
0.31925
0.320032
0.321204
0.324063
0.326967
0.332706
0.346365
0.374135
0.445565
0.697578
1.28238
1.55829
1.42492
1.57648
1.68025
1.64072
1.57032
1.54848
1.53471
1.51735
1.50144
1.47826
1.39326
0.337695
0.318299
0.319251
0.320032
0.321204
0.324067
0.326967
0.332639
0.346237
0.373536
0.44278
0.684842
1.25362
1.56392
1.42297
1.56945
1.67998
1.64332
1.5704
1.54797
1.53349
1.5164
1.50073
1.47806
1.39128
0.337695
0.318299
0.31925
0.320032
0.321204
0.324071
0.32696
0.332498
0.346058
0.37228
0.437346
0.660297
1.20171
1.5691
1.42067
1.55758
1.67707
1.6456
1.56966
1.54647
1.53102
1.51423
1.49904
1.47665
1.3882
0.337696
0.3183
0.319251
0.320036
0.321208
0.32408
0.326958
0.332334
0.345836
0.370481
0.429993
0.627003
1.11194
1.5699
1.42015
1.53908
1.66959
1.64778
1.56682
1.5422
1.52537
1.50897
1.49474
1.47279
1.38172
0.337695
0.318299
0.31925
0.320037
0.321207
0.324085
0.326945
0.33218
0.345499
0.368428
0.421851
0.589676
1.02562
1.55585
1.42225
1.51241
1.65724
1.64893
1.5632
1.53648
1.51817
1.50324
1.4895
1.46714
1.37532
0.337695
0.318298
0.319252
0.320016
0.321211
0.324098
0.326875
0.332126
0.345447
0.366252
0.413228
0.551523
0.938122
1.51299
1.43556
1.48243
1.64264
1.65008
1.55884
1.52763
1.50789
1.49297
1.48044
1.46065
1.36717
0.337695
0.318297
0.319253
0.320002
0.321206
0.324095
0.326856
0.332038
0.345195
0.364058
0.405097
0.517768
0.839507
1.41526
1.46197
1.44653
1.61993
1.6491
1.55689
1.51723
1.49714
1.48227
1.46927
1.45162
1.34904
0.337696
0.318298
0.319256
0.320001
0.321209
0.324096
0.326889
0.331979
0.344981
0.362325
0.39775
0.490154
0.748217
1.25954
1.4857
1.4112
1.58758
1.64328
1.55875
1.50562
1.48419
1.47224
1.45893
1.44006
1.33489
0.337694
0.318297
0.319255
0.319997
0.321208
0.324091
0.326896
0.331933
0.344958
0.361002
0.39106
0.468828
0.665811
1.06658
1.49676
1.38519
1.53793
1.62969
1.56447
1.49506
1.47075
1.45635
1.44041
1.43007
1.29739
0.337695
0.318298
0.319256
0.319999
0.321209
0.324089
0.326916
0.331919
0.34501
0.360219
0.385654
0.452942
0.598467
0.90912
1.43421
1.3899
1.47668
1.60664
1.57438
1.48737
1.45527
1.43588
1.41709
1.40903
1.26055
0.337695
0.318299
0.31925
0.320031
0.321203
0.324061
0.326965
0.332704
0.346359
0.374124
0.445556
0.697592
1.28244
1.55825
1.42489
1.57648
1.68025
1.64073
1.57032
1.54848
1.53471
1.51734
1.50143
1.47825
1.39325
0.337695
0.318299
0.31925
0.320031
0.321203
0.324064
0.326964
0.332635
0.346228
0.373524
0.44277
0.684856
1.25367
1.5639
1.42292
1.56944
1.67999
1.64334
1.5704
1.54797
1.53348
1.51639
1.50072
1.47804
1.39127
0.337695
0.318299
0.31925
0.320031
0.321204
0.324071
0.326959
0.332496
0.346055
0.372276
0.437346
0.660337
1.20189
1.5691
1.42066
1.5576
1.67707
1.64561
1.56966
1.54647
1.53102
1.51423
1.49903
1.47664
1.3882
0.337695
0.318299
0.31925
0.320034
0.321205
0.324077
0.326953
0.332326
0.345825
0.370473
0.430004
0.627115
1.11229
1.56993
1.42007
1.53908
1.6696
1.64779
1.56683
1.5422
1.52537
1.50897
1.49473
1.47278
1.38171
0.337695
0.318299
0.31925
0.320038
0.321206
0.324085
0.326945
0.332179
0.345495
0.368431
0.42188
0.589824
1.02602
1.55618
1.42251
1.51278
1.65735
1.64893
1.5632
1.5365
1.51818
1.50324
1.4895
1.46713
1.37531
0.337695
0.318297
0.31925
0.320016
0.321207
0.324093
0.326876
0.33211
0.345411
0.366213
0.413154
0.551288
0.937661
1.51243
1.43553
1.48221
1.6426
1.65012
1.55884
1.52764
1.5079
1.49298
1.48043
1.46065
1.36717
0.337695
0.318296
0.319252
0.320003
0.321206
0.324095
0.326856
0.332037
0.34519
0.364052
0.405079
0.51768
0.839193
1.41472
1.46191
1.446
1.61978
1.64915
1.55692
1.51725
1.49715
1.48227
1.46927
1.45161
1.34903
0.337694
0.318296
0.319254
0.319999
0.321205
0.324091
0.326881
0.331965
0.344963
0.362307
0.397731
0.490133
0.748154
1.25952
1.48578
1.41102
1.58753
1.64335
1.55879
1.50564
1.4842
1.47224
1.45892
1.44006
1.33489
0.337694
0.318296
0.319254
0.319997
0.321207
0.324091
0.326895
0.331931
0.344956
0.361002
0.391057
0.468825
0.665791
1.06654
1.49683
1.38521
1.53796
1.62976
1.56451
1.49507
1.47076
1.45635
1.44041
1.43007
1.29739
0.337694
0.318296
0.319254
0.319997
0.321205
0.324085
0.326909
0.331906
0.34499
0.360203
0.385647
0.452951
0.598508
0.909209
1.43426
1.38987
1.47673
1.60665
1.57443
1.4874
1.45528
1.43589
1.4171
1.40903
1.26054
0.337694
0.318298
0.319249
0.32003
0.321202
0.32406
0.326964
0.332702
0.346357
0.37412
0.445544
0.697569
1.28242
1.55829
1.4249
1.57644
1.68022
1.64073
1.57032
1.54848
1.5347
1.51734
1.50144
1.47827
1.39326
0.337695
0.318298
0.319249
0.32003
0.321202
0.324063
0.326963
0.332634
0.346226
0.37352
0.44276
0.684838
1.25368
1.56394
1.42296
1.56941
1.67996
1.64333
1.5704
1.54797
1.53348
1.51638
1.50072
1.47805
1.3913
0.337695
0.318298
0.319249
0.320031
0.321203
0.32407
0.326958
0.332495
0.346052
0.372272
0.437337
0.660317
1.20185
1.56912
1.42066
1.55757
1.67705
1.6456
1.56966
1.54647
1.53101
1.51423
1.49904
1.47666
1.38821
0.337695
0.318299
0.319249
0.320034
0.321204
0.324076
0.326952
0.332325
0.345822
0.370469
0.429997
0.627095
1.11226
1.56994
1.42007
1.5391
1.66959
1.64777
1.56681
1.5422
1.52538
1.509
1.49479
1.47283
1.38162
0.337695
0.318299
0.319249
0.320037
0.321206
0.324084
0.326943
0.332178
0.345494
0.368427
0.421869
0.589796
1.02598
1.55616
1.42252
1.51278
1.65732
1.6489
1.56319
1.5365
1.51821
1.50333
1.48962
1.46721
1.37513
0.337695
0.318297
0.31925
0.320016
0.321206
0.324092
0.326875
0.332109
0.34541
0.36621
0.413146
0.551265
0.937616
1.5124
1.43554
1.48218
1.64256
1.6501
1.55884
1.52765
1.50794
1.49307
1.48057
1.46074
1.367
0.337694
0.318296
0.319252
0.320002
0.321205
0.324094
0.326855
0.332035
0.34519
0.364051
0.405073
0.517663
0.839154
1.41466
1.46195
1.446
1.61972
1.64912
1.55691
1.51724
1.49717
1.48236
1.46939
1.45173
1.34893
0.337694
0.318296
0.319253
0.319999
0.321204
0.324091
0.32688
0.331965
0.344963
0.362307
0.397728
0.490123
0.748114
1.25945
1.48581
1.41099
1.58745
1.6433
1.55878
1.50563
1.48421
1.47229
1.459
1.44015
1.33481
0.337694
0.318296
0.319254
0.319997
0.321207
0.324092
0.326895
0.331931
0.34496
0.361005
0.391054
0.468814
0.665758
1.06647
1.49685
1.38521
1.5379
1.62971
1.56449
1.49506
1.47075
1.45636
1.44044
1.43013
1.29736
0.337694
0.318296
0.319254
0.319997
0.321205
0.324085
0.326908
0.331906
0.344992
0.360203
0.385642
0.452938
0.598487
0.909191
1.43428
1.38991
1.4767
1.60661
1.5744
1.48739
1.45527
1.43588
1.4171
1.40905
1.26052
0.337695
0.318299
0.31925
0.320031
0.321203
0.324061
0.326965
0.332704
0.346359
0.374125
0.445557
0.697598
1.28246
1.55825
1.4249
1.57648
1.68026
1.64073
1.57032
1.54848
1.53471
1.51734
1.50143
1.47825
1.39325
0.337695
0.318299
0.31925
0.320031
0.321203
0.324064
0.326964
0.332635
0.346228
0.373525
0.442771
0.684861
1.25368
1.5639
1.42293
1.56945
1.68
1.64334
1.5704
1.54798
1.53349
1.51639
1.50072
1.47805
1.39127
0.337695
0.318299
0.31925
0.320031
0.321204
0.324071
0.326959
0.332496
0.346055
0.372277
0.437347
0.660342
1.2019
1.5691
1.42066
1.5576
1.67708
1.64562
1.56967
1.54648
1.53102
1.51423
1.49903
1.47664
1.3882
0.337695
0.318299
0.31925
0.320034
0.321205
0.324077
0.326953
0.332326
0.345825
0.370474
0.430006
0.627119
1.11229
1.56993
1.42008
1.53909
1.66961
1.64779
1.56683
1.54221
1.52537
1.50897
1.49473
1.47278
1.38171
0.337695
0.318299
0.31925
0.320038
0.321206
0.324085
0.326945
0.332179
0.345496
0.368432
0.421881
0.589822
1.02601
1.55616
1.42251
1.51278
1.65735
1.64893
1.5632
1.5365
1.51818
1.50324
1.4895
1.46713
1.37531
0.337695
0.318297
0.31925
0.320016
0.321207
0.324093
0.326877
0.33211
0.345411
0.366214
0.413156
0.551284
0.937633
1.51239
1.43552
1.4822
1.6426
1.65012
1.55885
1.52765
1.5079
1.49298
1.48043
1.46065
1.36717
0.337695
0.318296
0.319253
0.320003
0.321206
0.324095
0.326856
0.332037
0.345192
0.364054
0.405081
0.517678
0.839159
1.41464
1.46191
1.44599
1.61978
1.64916
1.55692
1.51725
1.49715
1.48227
1.46927
1.45161
1.34904
0.337694
0.318297
0.319254
0.319999
0.321205
0.324092
0.326881
0.331966
0.344965
0.362309
0.397733
0.490131
0.748118
1.25943
1.48578
1.41099
1.58751
1.64334
1.55879
1.50564
1.4842
1.47224
1.45893
1.44006
1.33489
0.337694
0.318297
0.319255
0.319997
0.321208
0.324092
0.326896
0.331933
0.344962
0.361008
0.391061
0.468826
0.665765
1.06646
1.49682
1.3852
1.53794
1.62975
1.56451
1.49507
1.47076
1.45636
1.44041
1.43007
1.2974
0.337694
0.318297
0.319254
0.319997
0.321205
0.324086
0.326909
0.331908
0.344994
0.360206
0.385649
0.452951
0.598497
0.909188
1.43426
1.38988
1.47672
1.60664
1.57442
1.4874
1.45528
1.43589
1.4171
1.40903
1.26055
0.337695
0.318299
0.31925
0.320031
0.321203
0.324061
0.326965
0.332704
0.346359
0.374124
0.445555
0.697592
1.28244
1.55825
1.42489
1.57648
1.68025
1.64073
1.57032
1.54848
1.53471
1.51734
1.50143
1.47825
1.39325
0.337695
0.318299
0.31925
0.320031
0.321203
0.324064
0.326964
0.332635
0.346228
0.373524
0.44277
0.684856
1.25367
1.5639
1.42292
1.56944
1.67999
1.64334
1.5704
1.54797
1.53348
1.51639
1.50072
1.47804
1.39127
0.337695
0.318299
0.31925
0.320031
0.321204
0.324071
0.326959
0.332496
0.346055
0.372276
0.437346
0.660337
1.20189
1.5691
1.42066
1.5576
1.67707
1.64561
1.56966
1.54647
1.53102
1.51423
1.49903
1.47664
1.3882
0.337695
0.318299
0.31925
0.320034
0.321205
0.324077
0.326953
0.332326
0.345825
0.370473
0.430004
0.627115
1.11229
1.56993
1.42007
1.53908
1.6696
1.64779
1.56683
1.5422
1.52537
1.50897
1.49473
1.47278
1.38171
0.337695
0.318299
0.31925
0.320038
0.321206
0.324085
0.326945
0.332179
0.345495
0.368431
0.42188
0.589824
1.02602
1.55618
1.42251
1.51278
1.65735
1.64893
1.5632
1.5365
1.51818
1.50324
1.4895
1.46713
1.37531
0.337695
0.318297
0.31925
0.320016
0.321207
0.324093
0.326876
0.33211
0.345411
0.366213
0.413154
0.551288
0.937661
1.51243
1.43553
1.48221
1.6426
1.65012
1.55884
1.52764
1.5079
1.49298
1.48043
1.46065
1.36717
0.337695
0.318296
0.319252
0.320003
0.321206
0.324095
0.326856
0.332037
0.34519
0.364052
0.405079
0.51768
0.839193
1.41472
1.46191
1.446
1.61978
1.64915
1.55692
1.51725
1.49715
1.48227
1.46927
1.45161
1.34903
0.337694
0.318296
0.319254
0.319999
0.321205
0.324091
0.326881
0.331965
0.344963
0.362307
0.397731
0.490133
0.748154
1.25952
1.48578
1.41102
1.58753
1.64335
1.55879
1.50564
1.4842
1.47224
1.45892
1.44006
1.33489
0.337694
0.318296
0.319254
0.319997
0.321207
0.324091
0.326895
0.331931
0.344956
0.361002
0.391057
0.468825
0.665791
1.06654
1.49683
1.38521
1.53796
1.62976
1.56451
1.49507
1.47076
1.45635
1.44041
1.43007
1.29739
0.337694
0.318296
0.319254
0.319997
0.321205
0.324085
0.326909
0.331906
0.34499
0.360203
0.385647
0.452951
0.598508
0.909209
1.43426
1.38987
1.47673
1.60665
1.57443
1.4874
1.45528
1.43589
1.4171
1.40903
1.26054
0.337695
0.318299
0.31925
0.320032
0.321204
0.324063
0.326967
0.332706
0.346365
0.374135
0.445565
0.697578
1.28238
1.55829
1.42492
1.57648
1.68025
1.64072
1.57032
1.54848
1.53471
1.51735
1.50144
1.47826
1.39326
0.337695
0.318299
0.319251
0.320032
0.321204
0.324067
0.326967
0.332639
0.346237
0.373536
0.44278
0.684842
1.25362
1.56392
1.42297
1.56945
1.67998
1.64332
1.5704
1.54797
1.53349
1.5164
1.50073
1.47806
1.39128
0.337695
0.318299
0.31925
0.320032
0.321204
0.324071
0.32696
0.332498
0.346058
0.37228
0.437346
0.660297
1.20171
1.5691
1.42067
1.55758
1.67707
1.6456
1.56966
1.54647
1.53102
1.51423
1.49904
1.47665
1.3882
0.337696
0.3183
0.319251
0.320036
0.321208
0.32408
0.326958
0.332334
0.345836
0.370481
0.429993
0.627003
1.11194
1.5699
1.42015
1.53908
1.66959
1.64778
1.56682
1.5422
1.52537
1.50897
1.49474
1.47279
1.38172
0.337695
0.318299
0.31925
0.320037
0.321207
0.324085
0.326945
0.33218
0.345499
0.368428
0.421851
0.589676
1.02562
1.55585
1.42225
1.51241
1.65724
1.64893
1.5632
1.53648
1.51817
1.50324
1.4895
1.46714
1.37532
0.337695
0.318298
0.319252
0.320016
0.321211
0.324098
0.326875
0.332126
0.345447
0.366252
0.413228
0.551523
0.938122
1.51299
1.43556
1.48243
1.64264
1.65008
1.55884
1.52763
1.50789
1.49297
1.48044
1.46065
1.36717
0.337695
0.318297
0.319253
0.320002
0.321206
0.324095
0.326856
0.332038
0.345195
0.364058
0.405097
0.517768
0.839507
1.41526
1.46197
1.44653
1.61993
1.6491
1.55689
1.51723
1.49714
1.48227
1.46927
1.45162
1.34904
0.337696
0.318298
0.319256
0.320001
0.321209
0.324096
0.326889
0.331979
0.344981
0.362325
0.39775
0.490154
0.748217
1.25954
1.4857
1.4112
1.58758
1.64328
1.55875
1.50562
1.48419
1.47224
1.45893
1.44006
1.33489
0.337694
0.318297
0.319255
0.319997
0.321208
0.324091
0.326896
0.331933
0.344958
0.361002
0.39106
0.468828
0.665811
1.06658
1.49676
1.38519
1.53793
1.62969
1.56447
1.49506
1.47075
1.45635
1.44041
1.43007
1.29739
0.337695
0.318298
0.319256
0.319999
0.321209
0.324089
0.326916
0.331919
0.34501
0.360219
0.385654
0.452942
0.598467
0.90912
1.43421
1.3899
1.47668
1.60664
1.57438
1.48737
1.45527
1.43588
1.41709
1.40903
1.26055
0.337697
0.318301
0.319253
0.320034
0.321208
0.324068
0.326974
0.332718
0.346381
0.374146
0.445547
0.697431
1.28193
1.55851
1.42485
1.57631
1.68019
1.64071
1.5703
1.54846
1.5347
1.51734
1.50144
1.47826
1.39325
0.337696
0.3183
0.319252
0.320033
0.321206
0.324068
0.326969
0.332644
0.346244
0.373541
0.442768
0.684746
1.25333
1.56397
1.42285
1.56923
1.67995
1.6433
1.57037
1.54795
1.53347
1.51639
1.50072
1.47805
1.39128
0.337696
0.3183
0.319253
0.320032
0.32121
0.324078
0.326964
0.332517
0.346098
0.372339
0.437475
0.660852
1.20363
1.5691
1.42109
1.55799
1.67702
1.64552
1.56963
1.54645
1.53101
1.51423
1.49903
1.47665
1.3882
0.337696
0.3183
0.319251
0.320035
0.321207
0.324079
0.326955
0.332332
0.345838
0.370496
0.43005
0.627262
1.11252
1.56994
1.42008
1.53919
1.66955
1.64768
1.56679
1.54218
1.52536
1.50897
1.49473
1.47279
1.38172
0.337696
0.318301
0.319253
0.320037
0.321212
0.324093
0.326945
0.332202
0.345541
0.368481
0.421975
0.590162
1.02671
1.5565
1.4227
1.51312
1.65732
1.64881
1.56317
1.53648
1.51817
1.50324
1.4895
1.46714
1.37532
0.337695
0.318298
0.319251
0.320016
0.321208
0.324094
0.326877
0.332116
0.345422
0.366227
0.413183
0.551413
0.938014
1.51259
1.43552
1.4823
1.6426
1.65002
1.55882
1.52763
1.5079
1.49298
1.48044
1.46066
1.36718
0.337696
0.318298
0.319255
0.320004
0.32121
0.3241
0.326862
0.33205
0.345211
0.36407
0.405095
0.517698
0.839201
1.41448
1.46191
1.44603
1.61969
1.64909
1.55691
1.51724
1.49715
1.48228
1.46927
1.45162
1.34905
0.337695
0.318297
0.319255
0.32
0.321206
0.324093
0.326883
0.33197
0.344971
0.362315
0.397739
0.490131
0.748088
1.25927
1.48576
1.4109
1.58737
1.64329
1.55879
1.50564
1.48421
1.47225
1.45893
1.44007
1.3349
0.337695
0.318298
0.319256
0.319998
0.32121
0.324096
0.3269
0.331939
0.344977
0.361023
0.391072
0.468831
0.665724
1.06635
1.49685
1.38517
1.53781
1.62971
1.56451
1.49507
1.47076
1.45636
1.44042
1.43008
1.2974
0.337694
0.318297
0.319255
0.319998
0.321206
0.324088
0.32691
0.33191
0.345002
0.360214
0.385659
0.452967
0.598483
0.909086
1.4342
1.38989
1.47666
1.60661
1.57442
1.4874
1.45528
1.43589
1.4171
1.40905
1.26056
0.337695
0.318299
0.319251
0.320032
0.321205
0.324065
0.32697
0.332708
0.346371
0.374136
0.445518
0.69726
1.28145
1.5584
1.42481
1.57635
1.68017
1.6407
1.57029
1.54848
1.53477
1.51746
1.50162
1.47839
1.39305
0.337695
0.318299
0.319251
0.320032
0.321205
0.324068
0.32697
0.332644
0.346245
0.373536
0.442718
0.684462
1.2527
1.56401
1.42295
1.56923
1.6799
1.6433
1.57038
1.54797
1.53352
1.51647
1.50086
1.47815
1.39114
0.337695
0.318299
0.319251
0.320032
0.321206
0.324074
0.326963
0.332502
0.346072
0.372284
0.437294
0.659929
1.20037
1.56912
1.42044
1.55727
1.67696
1.64558
1.56963
1.54646
1.53103
1.51427
1.49911
1.47672
1.38814
0.337694
0.3183
0.319252
0.320033
0.32121
0.324084
0.326955
0.332344
0.345868
0.370527
0.430086
0.62732
1.11266
1.57009
1.42042
1.53933
1.66952
1.64769
1.56678
1.54217
1.52536
1.509
1.4948
1.47287
1.38167
0.337696
0.3183
0.319251
0.320038
0.321209
0.324089
0.326948
0.332193
0.345519
0.368444
0.42187
0.58974
1.02583
1.55632
1.42301
1.51317
1.65733
1.6488
1.56313
1.53646
1.51817
1.5033
1.48961
1.46724
1.37521
0.337696
0.318299
0.319253
0.320017
0.321212
0.3241
0.326882
0.332133
0.345452
0.36623
0.413104
0.551016
0.936929
1.51173
1.43555
1.48158
1.6423
1.65003
1.5588
1.52761
1.5079
1.49305
1.48056
1.46076
1.36705
0.337694
0.318297
0.319255
0.320001
0.32121
0.324101
0.326854
0.332055
0.345234
0.364071
0.405088
0.517666
0.839032
1.41469
1.46202
1.44563
1.61942
1.64905
1.55689
1.51722
1.49715
1.48234
1.4694
1.45175
1.34891
0.337696
0.318299
0.319258
0.32
0.321214
0.324103
0.326887
0.331994
0.34502
0.362358
0.397783
0.490217
0.748322
1.26009
1.4861
1.4113
1.58757
1.64328
1.55871
1.50561
1.48421
1.47231
1.45904
1.44022
1.33476
0.337694
0.318297
0.319256
0.319997
0.321211
0.324095
0.326899
0.331943
0.344978
0.361011
0.391055
0.468808
0.665805
1.06666
1.4971
1.3854
1.53806
1.62972
1.56443
1.49503
1.47075
1.45637
1.4405
1.43024
1.29727
0.337695
0.318299
0.319259
0.319998
0.321216
0.3241
0.326914
0.331937
0.345059
0.360252
0.385675
0.453021
0.598642
0.909324
1.43453
1.3902
1.47696
1.60644
1.57421
1.4874
1.45528
1.43594
1.41717
1.40922
1.26042
0.337698
0.3183
0.319258
0.320004
0.321213
0.324096
0.326922
0.331928
0.345067
0.359863
0.381919
0.442126
0.548603
0.77903
1.2565
1.41443
1.40935
1.57311
1.58081
1.4837
1.44058
1.4156
1.38565
1.38644
1.16624
0.337697
0.3183
0.319258
0.320008
0.321215
0.324098
0.326928
0.331942
0.345116
0.360098
0.379716
0.436306
0.514203
0.677711
1.03694
1.43048
1.35339
1.52319
1.57674
1.48575
1.42579
1.39816
1.34663
1.37017
1.17682
0.337698
0.318301
0.319257
0.32001
0.321213
0.324093
0.326946
0.331927
0.344898
0.360673
0.37925
0.433879
0.495008
0.602693
0.857688
1.38998
1.34778
1.45738
1.55606
1.49312
1.4213
1.37765
1.31423
1.34755
1.22134
0.337699
0.318301
0.319258
0.320009
0.321214
0.324093
0.326946
0.33193
0.344766
0.361026
0.379451
0.433396
0.485957
0.552746
0.721181
1.13316
1.35579
1.38749
1.51478
1.49911
1.42592
1.37264
1.28683
1.31116
1.25308
0.337697
0.318301
0.319259
0.320008
0.321215
0.324095
0.326937
0.331937
0.344723
0.361328
0.379729
0.43375
0.483681
0.52203
0.630032
0.923679
1.36329
1.3295
1.46046
1.49803
1.43449
1.37621
1.28263
1.28271
1.26153
0.337698
0.318301
0.319259
0.320007
0.321215
0.324096
0.326935
0.331938
0.344742
0.361314
0.379725
0.433945
0.484836
0.503544
0.571387
0.769645
1.25086
1.29857
1.39282
1.47878
1.43887
1.38981
1.28961
1.26324
1.25205
0.337698
0.318301
0.319259
0.320007
0.321215
0.324095
0.326936
0.331939
0.344744
0.361307
0.37974
0.434193
0.48407
0.498027
0.539621
0.659312
0.957721
1.27373
1.31456
1.43773
1.43478
1.40475
1.31434
1.26503
1.24637
0.337698
0.318301
0.319259
0.320007
0.321216
0.324096
0.326937
0.331942
0.344741
0.361324
0.37975
0.433732
0.484928
0.495476
0.518794
0.593221
0.783797
1.21085
1.24256
1.37921
1.42098
1.40648
1.35235
1.279
1.24931
0.337698
0.318301
0.319259
0.320007
0.321216
0.324095
0.326937
0.33194
0.344736
0.361326
0.379744
0.433492
0.485746
0.4942
0.517833
0.560219
0.659375
0.914845
1.16937
1.29464
1.38566
1.40106
1.36952
1.30401
1.26008
0.337698
0.318301
0.31926
0.320008
0.321217
0.324097
0.32694
0.331944
0.344741
0.361335
0.379752
0.433515
0.485819
0.493892
0.518773
0.540813
0.591504
0.725432
1.04942
1.18424
1.31832
1.38316
1.36827
1.32395
1.27479
0.337699
0.318302
0.319259
0.32001
0.321215
0.324095
0.326944
0.331938
0.344718
0.361322
0.379713
0.433358
0.485623
0.493781
0.517212
0.540653
0.562357
0.61632
0.779271
1.06202
1.21516
1.33883
1.35454
1.32693
1.28237
0.337698
0.318301
0.31926
0.320008
0.321216
0.324098
0.326939
0.331942
0.344743
0.361338
0.379765
0.433521
0.485787
0.493951
0.517347
0.541355
0.548273
0.567464
0.630651
0.822587
1.07717
1.24412
1.31538
1.30914
1.28104
0.337698
0.318301
0.31926
0.320008
0.321216
0.324098
0.326939
0.331941
0.344742
0.361337
0.379764
0.433527
0.485791
0.493953
0.517347
0.541238
0.547355
0.547392
0.563128
0.63662
0.850189
1.11555
1.23088
1.26532
1.25954
0.337699
0.318302
0.319259
0.32001
0.321215
0.324095
0.326944
0.331938
0.344719
0.361328
0.379724
0.433385
0.485677
0.493789
0.517057
0.541111
0.546434
0.54479
0.539006
0.555177
0.636211
0.879558
1.12233
1.20379
1.22382
0.337698
0.318301
0.319259
0.320008
0.321216
0.324097
0.326939
0.331942
0.34474
0.361341
0.379769
0.433552
0.485829
0.493956
0.517271
0.541326
0.546573
0.544576
0.533817
0.53297
0.552537
0.642866
0.884439
1.11193
1.17384
0.337698
0.318301
0.319259
0.320008
0.321216
0.324097
0.326937
0.331941
0.344744
0.361339
0.379764
0.433538
0.485792
0.493937
0.517281
0.541331
0.546569
0.544544
0.533688
0.528388
0.53441
0.568423
0.659515
0.828755
1.04629
0.337698
0.318301
0.319259
0.320008
0.321216
0.324097
0.326937
0.331941
0.344742
0.361333
0.379754
0.43351
0.485788
0.493936
0.517286
0.54135
0.546593
0.544561
0.53371
0.527914
0.53203
0.555434
0.609719
0.67489
0.76336
0.337698
0.318302
0.31926
0.320008
0.321217
0.324098
0.326941
0.331946
0.344745
0.361342
0.379762
0.433515
0.485835
0.493962
0.517274
0.541363
0.54662
0.544592
0.533734
0.527869
0.531478
0.552984
0.602388
0.649557
0.689792
0.337699
0.318302
0.319259
0.320009
0.321215
0.324094
0.326944
0.331937
0.344713
0.361319
0.379711
0.43335
0.485686
0.493804
0.517088
0.541171
0.546418
0.544377
0.533467
0.527542
0.531096
0.552514
0.601338
0.646422
0.679483
0.337699
0.318302
0.319261
0.320009
0.321218
0.324099
0.326943
0.331948
0.344748
0.361344
0.379762
0.433506
0.485833
0.493958
0.517262
0.541358
0.546621
0.544595
0.533739
0.527865
0.53138
0.552679
0.601411
0.646262
0.678527
0.337698
0.318301
0.319259
0.320007
0.321215
0.324096
0.326935
0.331938
0.344739
0.361332
0.379757
0.433525
0.485789
0.493939
0.517294
0.541337
0.546571
0.544537
0.533672
0.527835
0.531366
0.552697
0.601441
0.64625
0.678432
0.337699
0.318302
0.319261
0.320009
0.321219
0.3241
0.326942
0.331949
0.344756
0.361348
0.379763
0.433515
0.485789
0.493905
0.517186
0.541298
0.546573
0.54455
0.533693
0.527812
0.531331
0.552637
0.601335
0.646161
0.678363
0.337698
0.318301
0.319259
0.320007
0.321215
0.324096
0.326935
0.331938
0.344739
0.361331
0.379756
0.433526
0.48578
0.49393
0.517287
0.54133
0.546563
0.544529
0.533664
0.527829
0.531361
0.552694
0.601434
0.64624
0.678416
0.337699
0.318302
0.319261
0.320009
0.321219
0.3241
0.326944
0.331951
0.344754
0.361349
0.379767
0.433511
0.485822
0.493945
0.517247
0.541339
0.546602
0.544579
0.533727
0.527853
0.531369
0.552669
0.601383
0.646211
0.6784
0.337699
0.318302
0.319259
0.320009
0.321214
0.324094
0.326943
0.331936
0.344711
0.361315
0.379706
0.433342
0.485672
0.493795
0.517088
0.541171
0.546416
0.544374
0.533462
0.527535
0.531075
0.55248
0.60121
0.646087
0.678332
0.337699
0.318302
0.319261
0.320009
0.321219
0.3241
0.326944
0.33195
0.344752
0.361348
0.379765
0.433503
0.485823
0.493948
0.51725
0.541348
0.546614
0.544591
0.53374
0.527867
0.531382
0.552681
0.601397
0.646224
0.67841
0.337698
0.318301
0.319259
0.320007
0.321215
0.324095
0.326935
0.331938
0.344738
0.361327
0.379749
0.433508
0.485783
0.493932
0.517288
0.541341
0.546576
0.544542
0.533675
0.527834
0.531363
0.552691
0.601434
0.646247
0.678424
0.337699
0.318302
0.319261
0.320009
0.321218
0.324099
0.326941
0.331947
0.344751
0.361343
0.379757
0.433506
0.485803
0.493918
0.517199
0.541314
0.546588
0.544565
0.533707
0.527826
0.531344
0.552649
0.601354
0.646181
0.678379
0.337698
0.318301
0.319259
0.320007
0.321215
0.324095
0.326935
0.331937
0.344736
0.361329
0.379753
0.433517
0.485786
0.493937
0.517294
0.541333
0.546565
0.544531
0.533666
0.52783
0.531362
0.552696
0.601443
0.646249
0.678423
0.337698
0.318302
0.31926
0.320009
0.321217
0.324098
0.326941
0.331944
0.344742
0.36134
0.37976
0.433518
0.485834
0.493957
0.517262
0.541345
0.546602
0.544575
0.533714
0.527848
0.531367
0.552671
0.601402
0.646226
0.678412
0.337699
0.318301
0.319258
0.320009
0.321214
0.324093
0.326943
0.331935
0.344709
0.361312
0.379703
0.43334
0.485667
0.49379
0.517084
0.541164
0.546411
0.544371
0.533462
0.527539
0.53108
0.552484
0.601212
0.646088
0.678334
0.337698
0.318301
0.319259
0.320008
0.321216
0.324097
0.326938
0.33194
0.344739
0.361336
0.379761
0.433516
0.485811
0.493964
0.517323
0.54137
0.546606
0.544575
0.533724
0.527894
0.531417
0.552729
0.601473
0.646287
0.678456
0.337697
0.318301
0.319258
0.320007
0.321214
0.324095
0.326936
0.331936
0.34473
0.361326
0.379754
0.433518
0.485796
0.493957
0.51734
0.541372
0.546595
0.54456
0.533702
0.527882
0.53141
0.552732
0.601486
0.646294
0.678461
0.337699
0.318301
0.319258
0.320009
0.321214
0.324094
0.326943
0.331935
0.344714
0.361321
0.379716
0.433378
0.485653
0.493772
0.517044
0.541111
0.546371
0.544338
0.533437
0.527528
0.531074
0.552482
0.601193
0.646056
0.678307
0.337697
0.3183
0.319258
0.320007
0.321213
0.324093
0.326935
0.331933
0.344725
0.361326
0.379761
0.43355
0.485798
0.493957
0.517334
0.541351
0.546571
0.544534
0.533674
0.527863
0.531397
0.552728
0.601492
0.646291
0.678455
0.337697
0.318301
0.319259
0.320007
0.321214
0.324095
0.326936
0.331936
0.344732
0.36133
0.379757
0.433515
0.485805
0.493967
0.517336
0.541372
0.546605
0.544574
0.533724
0.527903
0.531428
0.552741
0.601492
0.646303
0.678468
0.337698
0.3183
0.319257
0.320008
0.321211
0.324091
0.32694
0.331927
0.344698
0.361309
0.379714
0.433376
0.485663
0.493815
0.517162
0.541178
0.546394
0.54435
0.533451
0.527584
0.53114
0.552562
0.60132
0.646167
0.678386
0.337697
0.3183
0.319258
0.320007
0.321214
0.324094
0.326935
0.331936
0.344726
0.361325
0.379747