/*--------------------------------*- C++ -*----------------------------------*\
| =========                 |                                                 |
| \\      /  F ield         | OpenFOAM: The Open Source CFD Toolbox           |
|  \\    /   O peration     | Version:  4.1                                   |
|   \\  /    A nd           | Web:      www.OpenFOAM.org                      |
|    \\/     M anipulation  |                                                 |
\*---------------------------------------------------------------------------*/
FoamFile
{
    version     2.0;
    format      ascii;
    class       volVectorField;
    location    "0.34";
    object      U;
}
// * * * * * * * * * * * * * * * * * * * * * * * * * * * * * * * * * * * * * //

dimensions      [0 1 -1 0 0 0 0];

internalField   nonuniform List<vector> 
52500
(
(1.81919 -1.31509e-07 -0.00216847)
(1.84545 -3.43956e-07 -0.0019733)
(1.84427 -6.15871e-07 -0.00197816)
(1.84248 -9.80068e-07 -0.0019824)
(1.83967 -1.49306e-06 -0.00198955)
(1.83526 -2.9498e-06 -0.00200695)
(1.82848 -1.06898e-06 -0.00202564)
(1.81774 -4.69156e-06 -0.00206302)
(1.79844 3.75807e-05 -0.00215475)
(1.75811 0.000208015 -0.00234928)
(1.65711 0.000827431 -0.00285962)
(1.3025 0.0036754 -0.00467822)
(0.140594 0.0188711 -0.00911992)
(-0.623603 0.0358812 -0.0108757)
(-0.60387 0.0316769 -0.00965763)
(-0.496215 0.0321914 -0.0107194)
(-0.490527 0.0340958 -0.0114604)
(-0.483428 0.03581 -0.0111928)
(-0.455941 0.0365554 -0.0107323)
(-0.423818 0.0371414 -0.0105996)
(-0.372266 0.0369452 -0.0105396)
(-0.299901 0.0364607 -0.0104716)
(-0.218516 0.0361374 -0.0104243)
(-0.170306 0.0368838 -0.0103326)
(0.0125302 0.0368591 -0.00981019)
(1.81919 -2.21159e-07 -0.00216847)
(1.84545 -5.73476e-07 -0.0019733)
(1.84427 -1.00502e-06 -0.00197816)
(1.84248 -1.58655e-06 -0.0019824)
(1.83967 -2.65465e-06 -0.00198954)
(1.83526 -6.16977e-06 -0.00200697)
(1.82848 3.94651e-06 -0.00202563)
(1.81777 -1.05417e-05 -0.00206247)
(1.79862 0.000119539 -0.00215339)
(1.75882 0.000650526 -0.00234444)
(1.66037 0.00251317 -0.00283913)
(1.32094 0.0108634 -0.00457986)
(0.182836 0.0534125 -0.00889549)
(-0.611811 0.103403 -0.0108485)
(-0.602068 0.0834809 -0.00958725)
(-0.489245 0.0814447 -0.010622)
(-0.483526 0.0850766 -0.0114013)
(-0.477044 0.0879134 -0.0111516)
(-0.449961 0.0893414 -0.0106756)
(-0.418772 0.0917616 -0.0105368)
(-0.368921 0.092675 -0.0104699)
(-0.297905 0.092802 -0.0104024)
(-0.216847 0.0927679 -0.0103553)
(-0.169908 0.0945897 -0.0102649)
(0.0133177 0.093495 -0.00973345)
(1.81919 -2.89679e-07 -0.00216847)
(1.84545 -8.34383e-07 -0.0019733)
(1.84427 -1.57154e-06 -0.00197816)
(1.84248 -2.79473e-06 -0.0019824)
(1.83967 -5.73634e-06 -0.00198956)
(1.83526 -1.41211e-05 -0.00200702)
(1.82848 1.74371e-05 -0.0020256)
(1.81783 -2.77846e-05 -0.00206135)
(1.79901 0.000193723 -0.00215122)
(1.76025 0.00108416 -0.00233498)
(1.66672 0.00404176 -0.00279997)
(1.35541 0.0168837 -0.00439611)
(0.271598 0.0811108 -0.00853401)
(-0.588505 0.177576 -0.0108076)
(-0.603695 0.141525 -0.00950299)
(-0.479673 0.137255 -0.0104946)
(-0.471479 0.143674 -0.0113292)
(-0.466473 0.148657 -0.0111126)
(-0.440081 0.151153 -0.0106171)
(-0.409895 0.15606 -0.0104713)
(-0.362662 0.15865 -0.0103943)
(-0.293914 0.159555 -0.0103265)
(-0.213464 0.159923 -0.0102809)
(-0.168912 0.163147 -0.0101896)
(0.0149548 0.161056 -0.00964889)
(1.81919 -2.5215e-07 -0.00216847)
(1.84545 -7.80184e-07 -0.0019733)
(1.84427 -1.54664e-06 -0.00197816)
(1.84247 -2.95857e-06 -0.00198242)
(1.83966 -6.89933e-06 -0.00198959)
(1.83528 -1.847e-05 -0.00200712)
(1.82846 3.44124e-05 -0.00202539)
(1.81791 -4.9052e-05 -0.00205991)
(1.79957 0.000260673 -0.00214969)
(1.76224 0.00141663 -0.00232112)
(1.67525 0.00503512 -0.00274587)
(1.40146 0.0202507 -0.00414632)
(0.413068 0.0929313 -0.00788511)
(-0.544526 0.24801 -0.0108767)
(-0.606727 0.201376 -0.00943288)
(-0.466629 0.192451 -0.0103279)
(-0.454031 0.200289 -0.0112324)
(-0.450846 0.209088 -0.0110778)
(-0.424995 0.213025 -0.0105491)
(-0.396041 0.220725 -0.0103918)
(-0.352924 0.225903 -0.0103001)
(-0.287619 0.227961 -0.0102315)
(-0.207894 0.22895 -0.0101899)
(-0.166915 0.234087 -0.0100976)
(0.0178543 0.23103 -0.00954003)
(1.81919 -8.93173e-08 -0.00216847)
(1.84545 -9.41071e-08 -0.00197331)
(1.84427 4.55151e-08 -0.00197816)
(1.84247 1.48371e-06 -0.00198243)
(1.83965 6.08681e-06 -0.00198963)
(1.8353 1.82311e-05 -0.00200726)
(1.82845 -4.00015e-06 -0.00202509)
(1.81802 -5.8287e-05 -0.00205953)
(1.80026 0.000286899 -0.00214718)
(1.76451 0.00136439 -0.00230528)
(1.6845 0.0049367 -0.00268557)
(1.44933 0.0203852 -0.00387432)
(0.580524 0.0924843 -0.0072759)
(-0.473984 0.308181 -0.0107723)
(-0.607711 0.265186 -0.00938921)
(-0.453052 0.247005 -0.0101105)
(-0.432344 0.254447 -0.0111081)
(-0.430414 0.268918 -0.0110416)
(-0.405968 0.27445 -0.0104791)
(-0.377668 0.283856 -0.0103069)
(-0.339108 0.292399 -0.0101994)
(-0.278392 0.296625 -0.0101353)
(-0.199283 0.298694 -0.0100936)
(-0.163916 0.306364 -0.00999319)
(0.0216475 0.302587 -0.00943064)
(1.81919 -4.24966e-08 -0.00216847)
(1.84545 -5.13349e-08 -0.00197328)
(1.84427 2.43366e-07 -0.00197815)
(1.84248 2.39521e-06 -0.00198229)
(1.83967 1.06958e-05 -0.00198962)
(1.83527 4.15015e-05 -0.00200724)
(1.8284 -3.76199e-05 -0.00202442)
(1.81816 -3.48661e-05 -0.00205971)
(1.80079 0.000238752 -0.00214598)
(1.7664 0.00108829 -0.00228773)
(1.69331 0.00432584 -0.00262043)
(1.49551 0.0187944 -0.0035971)
(0.764844 0.0871891 -0.00655187)
(-0.360562 0.347801 -0.0104687)
(-0.603558 0.335521 -0.00944118)
(-0.444499 0.300825 -0.00987914)
(-0.407209 0.306517 -0.0109713)
(-0.404439 0.328249 -0.0110121)
(-0.383257 0.336302 -0.0104086)
(-0.355041 0.347143 -0.0102051)
(-0.32035 0.359215 -0.0100833)
(-0.265244 0.367121 -0.0100121)
(-0.186586 0.371097 -0.00997285)
(-0.159284 0.382916 -0.00988179)
(0.0268162 0.380039 -0.00930546)
(1.81919 -2.82492e-07 -0.00216847)
(1.84545 -5.95268e-07 -0.00197328)
(1.84427 -9.75997e-07 -0.00197816)
(1.84248 -1.30323e-06 -0.0019822)
(1.83969 2.648e-07 -0.00198961)
(1.83526 1.71212e-05 -0.00200723)
(1.82838 -1.60169e-05 -0.00202421)
(1.81826 2.85358e-06 -0.0020598)
(1.80122 0.000105388 -0.00214358)
(1.76818 0.00086968 -0.00227011)
(1.70132 0.00382123 -0.00255849)
(1.53637 0.0167217 -0.00335321)
(0.964555 0.0764108 -0.00571829)
(-0.188356 0.351125 -0.00981228)
(-0.583164 0.411934 -0.00966666)
(-0.443606 0.353298 -0.00962011)
(-0.378656 0.357418 -0.0107842)
(-0.372445 0.386462 -0.0109735)
(-0.356558 0.398123 -0.0103582)
(-0.328386 0.410969 -0.0100963)
(-0.296209 0.426483 -0.00996849)
(-0.247074 0.439749 -0.00988966)
(-0.16777 0.446673 -0.00984084)
(-0.151117 0.465401 -0.00975251)
(0.0343957 0.466288 -0.00910843)
(1.81919 5.67832e-08 -0.00216847)
(1.84545 -3.52776e-07 -0.00197328)
(1.84427 -8.1475e-07 -0.00197816)
(1.84248 -1.60641e-06 -0.00198218)
(1.83969 -3.30817e-06 -0.00198958)
(1.83526 -2.1742e-06 -0.00200719)
(1.82839 -1.61861e-05 -0.00202435)
(1.81826 2.01208e-05 -0.00205966)
(1.80152 -3.73239e-05 -0.00214045)
(1.76978 0.000643673 -0.00225461)
(1.70816 0.00315956 -0.00250072)
(1.57034 0.013983 -0.00315386)
(1.14666 0.0623084 -0.005025)
(0.0542007 0.303565 -0.00879347)
(-0.534293 0.488577 -0.00987865)
(-0.452574 0.405844 -0.00934866)
(-0.347328 0.407357 -0.0105354)
(-0.335339 0.441692 -0.0109112)
(-0.32531 0.459165 -0.0103388)
(-0.297518 0.47503 -0.00998463)
(-0.266172 0.494294 -0.00984419)
(-0.22294 0.515351 -0.00977444)
(-0.140433 0.526855 -0.00971593)
(-0.13697 0.556113 -0.00960653)
(0.0456977 0.568461 -0.00892642)
(1.81919 1.87573e-07 -0.00216846)
(1.84545 -4.29438e-07 -0.00197328)
(1.84427 -1.04896e-06 -0.00197817)
(1.84248 -1.85594e-06 -0.00198217)
(1.83969 -3.55572e-06 -0.00198961)
(1.83525 -6.25507e-06 -0.00200719)
(1.8284 -2.0733e-05 -0.0020245)
(1.81824 9.7051e-06 -0.0020594)
(1.80175 -9.74197e-05 -0.00213945)
(1.77105 0.000470471 -0.00224455)
(1.71363 0.00250175 -0.00245047)
(1.5965 0.0109457 -0.0029975)
(1.28671 0.047173 -0.00440206)
(0.363376 0.218168 -0.00750281)
(-0.445431 0.550585 -0.0100665)
(-0.468144 0.464808 -0.00906297)
(-0.316186 0.455658 -0.01018)
(-0.294375 0.492119 -0.010807)
(-0.28836 0.518941 -0.0103508)
(-0.261924 0.538803 -0.00988538)
(-0.228928 0.562328 -0.00972144)
(-0.191403 0.592907 -0.00962618)
(-0.101185 0.611824 -0.00954154)
(-0.11064 0.655387 -0.0094695)
(0.0656181 0.691376 -0.0085791)
(1.81919 -5.37003e-07 -0.00216846)
(1.84545 -1.05731e-06 -0.00197328)
(1.84427 -1.71052e-06 -0.00197816)
(1.84248 -2.36559e-06 -0.00198217)
(1.83969 -2.31572e-06 -0.00198959)
(1.83524 -4.23166e-06 -0.00200712)
(1.8284 -2.37845e-06 -0.00202463)
(1.8182 -1.06239e-05 -0.00205901)
(1.80192 -5.91406e-05 -0.00214052)
(1.77204 0.000316096 -0.00223708)
(1.71781 0.00173089 -0.00240852)
(1.61549 0.00756265 -0.00287479)
(1.3818 0.0333029 -0.00390241)
(0.683844 0.147447 -0.00631043)
(-0.284174 0.557042 -0.00982503)
(-0.476326 0.539863 -0.00902967)
(-0.292999 0.501529 -0.00976267)
(-0.250843 0.536448 -0.0106457)
(-0.244332 0.576726 -0.0103945)
(-0.221238 0.601768 -0.00981202)
(-0.184175 0.629591 -0.00959274)
(-0.152132 0.670269 -0.00945815)
(-0.0463532 0.704554 -0.00933891)
(-0.0600415 0.768651 -0.00925644)
(0.0954101 0.881796 -0.00819492)
(1.81919 3.03608e-07 -2.29202e-09)
(1.84545 7.06099e-07 6.98229e-10)
(1.84427 1.3054e-06 9.93364e-10)
(1.84247 2.19138e-06 1.69202e-09)
(1.83967 3.4983e-06 2.87747e-09)
(1.83525 4.65009e-06 7.18761e-09)
(1.82847 9.49811e-06 7.84846e-09)
(1.81772 1.00938e-05 1.42547e-08)
(1.79841 5.93004e-05 1.40972e-08)
(1.75808 0.000240332 -2.56312e-08)
(1.65705 0.000872702 -2.48816e-07)
(1.30223 0.00373979 -1.61195e-06)
(0.139874 0.0190134 -7.28286e-06)
(-0.623615 0.0359615 7.46814e-07)
(-0.60365 0.0317655 7.09562e-07)
(-0.496067 0.0322647 5.45395e-07)
(-0.490503 0.0341169 1.84913e-07)
(-0.483476 0.0358126 2.27832e-07)
(-0.456011 0.0365521 1.89772e-07)
(-0.423889 0.0371386 1.9513e-07)
(-0.372319 0.0369421 3.0632e-07)
(-0.299941 0.0364573 3.79431e-07)
(-0.218553 0.0361341 4.46703e-07)
(-0.170324 0.0368817 4.84162e-07)
(0.0125335 0.0368734 5.42603e-07)
(1.81919 1.53365e-07 -2.37011e-09)
(1.84545 2.85781e-08 6.06093e-10)
(1.84427 -6.20474e-08 8.12242e-10)
(1.84248 -9.40291e-08 1.28313e-09)
(1.83967 -4.08412e-07 2.39692e-09)
(1.83526 -2.87966e-06 4.8621e-09)
(1.82848 4.62091e-06 9.56985e-09)
(1.81777 -1.08303e-05 1.61479e-08)
(1.79862 0.000115518 1.52757e-08)
(1.75881 0.000632359 -9.4925e-09)
(1.66035 0.0024521 -1.56412e-07)
(1.3208 0.0106662 -1.01166e-06)
(0.182505 0.0526777 -3.89894e-06)
(-0.611283 0.102838 -4.96698e-07)
(-0.601508 0.0837159 7.97282e-07)
(-0.488954 0.0816822 4.89972e-07)
(-0.483524 0.0851975 2.28866e-07)
(-0.477116 0.0879521 2.72404e-07)
(-0.450042 0.0893472 1.9582e-07)
(-0.418849 0.0917622 2.0815e-07)
(-0.368981 0.0926765 3.13185e-07)
(-0.297954 0.0928036 3.81778e-07)
(-0.216896 0.0927631 4.4643e-07)
(-0.169923 0.0945734 4.78978e-07)
(0.0133331 0.0935091 5.29567e-07)
(1.81919 2.24121e-07 -7.98976e-10)
(1.84545 5.78284e-07 4.70063e-09)
(1.84427 1.05286e-06 5.19775e-09)
(1.84247 1.59027e-06 6.5167e-09)
(1.83966 1.31975e-06 1.00003e-08)
(1.83526 -2.83104e-06 1.65982e-08)
(1.82847 3.09301e-05 1.81418e-08)
(1.81782 -9.12278e-06 3.26484e-08)
(1.79898 0.000220305 4.08711e-08)
(1.76018 0.00112051 1.66286e-08)
(1.6665 0.00408271 -1.04024e-07)
(1.35428 0.0168949 -8.97457e-07)
(0.268256 0.081078 -4.6787e-06)
(-0.590089 0.177444 -3.79622e-07)
(-0.604332 0.141821 6.08033e-07)
(-0.480343 0.137485 5.62343e-07)
(-0.471811 0.143753 2.98497e-07)
(-0.466639 0.148675 3.08696e-07)
(-0.440188 0.151142 2.05772e-07)
(-0.409971 0.156052 2.23212e-07)
(-0.36271 0.158648 3.2257e-07)
(-0.293947 0.159558 3.8563e-07)
(-0.213494 0.159919 4.45336e-07)
(-0.168911 0.163126 4.65352e-07)
(0.0149503 0.161071 5.24583e-07)
(1.81919 2.88602e-08 -1.48299e-09)
(1.84545 5.81044e-08 3.48089e-09)
(1.84427 5.18756e-08 3.92548e-09)
(1.84248 -2.28404e-07 5.02476e-09)
(1.83967 -2.40917e-06 7.7188e-09)
(1.83528 -1.11509e-05 1.29239e-08)
(1.82847 4.32382e-05 1.31342e-08)
(1.81793 -3.58113e-05 3.28212e-08)
(1.79959 0.000280533 2.99728e-08)
(1.76225 0.00144803 1.59488e-08)
(1.6752 0.00508345 -4.67944e-08)
(1.40103 0.0203335 -4.52789e-07)
(0.411616 0.0932083 -2.12646e-06)
(-0.544703 0.247648 -1.30782e-06)
(-0.60661 0.201423 7.80423e-07)
(-0.466973 0.192521 6.10977e-07)
(-0.454383 0.200244 3.67106e-07)
(-0.451041 0.20904 3.30696e-07)
(-0.42511 0.212976 2.36141e-07)
(-0.396105 0.220696 2.49127e-07)
(-0.352956 0.225889 3.3185e-07)
(-0.287634 0.227957 3.93116e-07)
(-0.20791 0.228944 4.49627e-07)
(-0.166901 0.234066 4.49745e-07)
(0.0178298 0.231052 5.14699e-07)
(1.81919 6.0563e-08 1.489e-09)
(1.84545 7.65765e-07 9.56283e-09)
(1.84427 1.66389e-06 9.85226e-09)
(1.84247 3.95736e-06 1.03671e-08)
(1.83965 9.6067e-06 1.27889e-08)
(1.83529 2.32019e-05 1.22273e-08)
(1.82845 9.48265e-06 6.14332e-08)
(1.81802 -3.93578e-05 4.41191e-08)
(1.80024 0.000316396 4.09111e-08)
(1.76446 0.00141955 3.24809e-08)
(1.68431 0.00504399 -4.98589e-08)
(1.44844 0.0206073 -5.94129e-07)
(0.577304 0.0930559 -2.9918e-06)
(-0.476561 0.308888 -1.28445e-06)
(-0.608455 0.265074 1.7e-06)
(-0.453962 0.246615 2.82577e-07)
(-0.432839 0.254142 6.39333e-08)
(-0.4306 0.268753 1.86893e-07)
(-0.406066 0.274354 2.5584e-07)
(-0.377712 0.283803 2.55444e-07)
(-0.339121 0.292369 3.08408e-07)
(-0.278391 0.296612 3.8477e-07)
(-0.19929 0.298681 4.52909e-07)
(-0.163889 0.306341 4.3643e-07)
(0.0216158 0.302619 5.12043e-07)
(1.8192 1.74442e-08 3.6329e-10)
(1.84545 8.62555e-07 6.02122e-09)
(1.84428 2.1246e-06 6.24558e-09)
(1.84248 5.4727e-06 6.43716e-09)
(1.83968 1.55623e-05 6.43149e-09)
(1.83528 4.80145e-05 4.02288e-09)
(1.82842 -1.84673e-05 5.04108e-08)
(1.81819 -1.03393e-05 2.96363e-08)
(1.80083 0.000277959 2.0012e-08)
(1.76647 0.00116965 6.89874e-09)
(1.6934 0.00449766 -7.23288e-08)
(1.49556 0.0191827 -4.78704e-07)
(0.764481 0.0882961 -2.83864e-06)
(-0.359955 0.349597 -3.14562e-06)
(-0.603046 0.335455 2.51811e-06)
(-0.444501 0.300366 3.6644e-07)
(-0.407228 0.306101 4.11366e-08)
(-0.404465 0.328008 7.95752e-08)
(-0.383292 0.336165 1.14602e-07)
(-0.355048 0.34707 2.28101e-07)
(-0.320339 0.359176 2.55969e-07)
(-0.265227 0.367098 3.55027e-07)
(-0.186586 0.371079 4.40253e-07)
(-0.159243 0.382894 4.22952e-07)
(0.0267854 0.380077 5.22643e-07)
(1.81919 4.90766e-08 -1.64878e-10)
(1.84545 -5.86263e-08 1.42168e-08)
(1.84427 5.36711e-09 1.43875e-08)
(1.84248 5.11759e-07 1.27699e-08)
(1.83969 3.31149e-06 1.26274e-08)
(1.83527 2.11894e-05 6.36376e-09)
(1.82839 -9.5834e-06 1.16657e-07)
(1.81827 3.76195e-06 5.97921e-08)
(1.80125 0.000110306 6.39962e-08)
(1.76824 0.000876155 9.40566e-08)
(1.70143 0.00382049 1.74189e-07)
(1.53661 0.016722 2.374e-07)
(0.96545 0.0765591 4.13362e-08)
(-0.186889 0.351746 4.66168e-07)
(-0.582004 0.411966 6.59817e-07)
(-0.442944 0.35309 4.62326e-07)
(-0.37833 0.357113 -2.57309e-07)
(-0.372303 0.386207 -1.88038e-07)
(-0.356514 0.397979 -2.32842e-08)
(-0.328346 0.410892 1.23905e-07)
(-0.296171 0.426442 1.91123e-07)
(-0.247039 0.439721 3.06828e-07)
(-0.167762 0.44665 4.28325e-07)
(-0.151065 0.465379 4.24907e-07)
(0.0343673 0.466328 5.20487e-07)
(1.8192 4.35715e-07 1.2685e-09)
(1.84545 6.28166e-07 9.79656e-09)
(1.84428 1.02154e-06 1.01452e-08)
(1.84249 1.47694e-06 9.59737e-09)
(1.8397 1.81556e-06 8.63967e-09)
(1.83527 7.2643e-06 1.80671e-09)
(1.8284 -3.81111e-06 9.60481e-08)
(1.81829 3.11703e-05 1.90213e-09)
(1.80158 -1.56597e-05 4.28847e-08)
(1.76984 0.000676358 1.00001e-07)
(1.70823 0.003205 1.62096e-07)
(1.57039 0.0140324 2.39813e-07)
(1.14668 0.062329 2.30291e-07)
(0.0538161 0.303453 -7.12913e-07)
(-0.534229 0.488697 7.88121e-07)
(-0.452391 0.40571 -2.77359e-07)
(-0.347191 0.40713 -6.76521e-07)
(-0.335187 0.441468 -4.84718e-07)
(-0.325198 0.459048 -2.77612e-07)
(-0.29744 0.474961 -6.62143e-09)
(-0.266112 0.494257 1.39241e-07)
(-0.222891 0.515319 2.51534e-07)
(-0.14042 0.526827 4.0006e-07)
(-0.136908 0.55609 4.25917e-07)
(0.0456743 0.568502 5.16574e-07)
(1.8192 2.34353e-07 1.70597e-09)
(1.84545 1.96672e-07 1.81598e-08)
(1.84427 1.89254e-07 1.89271e-08)
(1.84249 1.1977e-07 2.10506e-08)
(1.8397 -3.76153e-08 3.47563e-08)
(1.83526 8.36427e-07 5.40681e-08)
(1.82842 -1.16171e-05 1.20176e-07)
(1.81826 2.32375e-05 3.88155e-08)
(1.8018 -7.47517e-05 1.44583e-07)
(1.77113 0.000513103 1.77053e-07)
(1.71375 0.00259002 2.54455e-07)
(1.59668 0.0110896 4.00084e-07)
(1.28703 0.047365 4.59972e-07)
(0.363803 0.218314 4.38376e-08)
(-0.445231 0.550743 3.95114e-07)
(-0.468088 0.464653 -5.49864e-07)
(-0.316095 0.455415 -9.16067e-07)
(-0.294194 0.491935 -7.00498e-07)
(-0.288205 0.518846 -3.79869e-07)
(-0.261823 0.538746 -1.82877e-07)
(-0.228851 0.562296 2.80749e-08)
(-0.191344 0.592876 1.44407e-07)
(-0.101166 0.611795 3.49449e-07)
(-0.110569 0.655361 4.39396e-07)
(0.0655987 0.691417 4.81761e-07)
(1.8192 -1.42488e-07 -1.33303e-09)
(1.84545 -1.80393e-07 1.38933e-08)
(1.84428 -2.22341e-07 1.46787e-08)
(1.84249 -1.07476e-07 1.77055e-08)
(1.8397 6.25386e-07 3.79225e-08)
(1.83526 -1.07693e-06 7.4528e-08)
(1.82842 9.00637e-07 8.24963e-08)
(1.81824 -1.27621e-06 4.04374e-08)
(1.80199 -5.07571e-05 1.24854e-07)
(1.77217 0.000320367 1.76321e-07)
(1.71798 0.00172723 3.12948e-07)
(1.61572 0.00753959 5.09809e-07)
(1.38219 0.0332434 1.07779e-06)
(0.684723 0.147348 2.23567e-06)
(-0.283423 0.556898 2.11076e-06)
(-0.476046 0.539772 -2.19532e-06)
(-0.292778 0.501333 -5.58119e-07)
(-0.250573 0.536296 -6.00413e-07)
(-0.244127 0.576649 -6.40793e-07)
(-0.221114 0.601721 -2.93233e-07)
(-0.184085 0.629566 -1.01174e-07)
(-0.152064 0.670242 8.93202e-08)
(-0.0463323 0.704526 3.27916e-07)
(-0.0599664 0.768628 4.20041e-07)
(0.0953946 0.881831 4.51523e-07)
(1.8192 -1.23086e-07 5.19278e-09)
(1.84545 -3.24507e-07 1.3289e-08)
(1.84427 -5.8099e-07 1.40503e-08)
(1.84248 -9.27108e-07 1.61037e-08)
(1.83967 -1.41644e-06 2.20082e-08)
(1.83526 -2.89498e-06 3.17767e-08)
(1.82848 -7.53766e-07 3.4149e-08)
(1.81774 -4.52607e-06 4.34495e-08)
(1.79844 3.77879e-05 4.40903e-08)
(1.75811 0.000209169 5.97914e-08)
(1.65706 0.000832133 3.74868e-09)
(1.30206 0.0036993 -5.02862e-07)
(0.139304 0.0190275 -2.85697e-06)
(-0.623983 0.0359664 2.27119e-06)
(-0.60398 0.0316636 4.32759e-07)
(-0.496377 0.0321537 -4.7529e-07)
(-0.490596 0.0340653 -4.43427e-07)
(-0.483471 0.0357885 -3.4895e-07)
(-0.455973 0.0365433 -3.78946e-07)
(-0.423843 0.0371356 -2.99595e-07)
(-0.372287 0.036941 -1.31273e-07)
(-0.299921 0.0364569 -1.01642e-08)
(-0.218542 0.0361339 5.8552e-08)
(-0.170317 0.0368818 8.28004e-08)
(0.0125359 0.0368734 9.58899e-08)
(1.81919 -7.32999e-09 3.94176e-09)
(1.84545 4.61709e-08 1.10906e-08)
(1.84427 1.26342e-07 1.17735e-08)
(1.84248 2.39825e-07 1.35887e-08)
(1.83967 1.95855e-07 1.85832e-08)
(1.83526 -1.77738e-06 2.73632e-08)
(1.82848 9.91014e-06 3.38545e-08)
(1.81777 -1.91937e-06 4.43229e-08)
(1.79863 0.000132425 5.0471e-08)
(1.75883 0.000670728 7.53982e-08)
(1.66035 0.00254686 7.5246e-08)
(1.32068 0.0109337 -1.47402e-07)
(0.182073 0.0536383 -1.26297e-06)
(-0.611931 0.103538 1.6866e-06)
(-0.601943 0.0834465 8.02801e-08)
(-0.489247 0.0813979 -5.18623e-07)
(-0.483524 0.0850391 -4.53768e-07)
(-0.477068 0.0878896 -4.06864e-07)
(-0.449989 0.0893303 -3.76013e-07)
(-0.418798 0.0917589 -2.79902e-07)
(-0.368947 0.0926765 -1.17546e-07)
(-0.297934 0.092804 -4.98423e-09)
(-0.216884 0.0927634 5.96312e-08)
(-0.169915 0.094574 8.35974e-08)
(0.0133354 0.0935094 9.62384e-08)
(1.8192 -1.34743e-07 2.84694e-09)
(1.84545 -3.86083e-07 1.35549e-08)
(1.84427 -7.60178e-07 1.37849e-08)
(1.84248 -1.48407e-06 1.47379e-08)
(1.83967 -3.67725e-06 2.08359e-08)
(1.83527 -1.08519e-05 2.60009e-08)
(1.82848 2.131e-05 6.44846e-08)
(1.81784 -2.22838e-05 7.46e-08)
(1.79903 0.000201851 9.90939e-08)
(1.76027 0.00109687 2.24809e-07)
(1.66672 0.00406317 6.13912e-07)
(1.35517 0.0169312 2.39417e-06)
(0.270729 0.0813017 1.13393e-05)
(-0.588737 0.177709 -2.0885e-06)
(-0.603652 0.141517 -4.25165e-07)
(-0.479677 0.137251 -1.90777e-08)
(-0.471483 0.143652 -3.65993e-07)
(-0.466496 0.148637 -4.90832e-07)
(-0.440102 0.151142 -3.88928e-07)
(-0.409912 0.156057 -2.59347e-07)
(-0.362675 0.158653 -9.67873e-08)
(-0.293927 0.159561 3.57007e-09)
(-0.213482 0.159921 6.27136e-08)
(-0.168903 0.163128 8.65268e-08)
(0.0149524 0.161072 9.82812e-08)
(1.81919 7.53554e-08 2.42099e-09)
(1.84545 1.21462e-07 7.26332e-09)
(1.84427 1.42428e-07 7.74657e-09)
(1.84248 -1.76647e-07 9.0053e-09)
(1.83966 -2.61753e-06 1.21968e-08)
(1.83528 -1.23315e-05 1.73108e-08)
(1.82847 4.58507e-05 3.09075e-08)
(1.81792 -3.50935e-05 3.62194e-08)
(1.79959 0.000279874 6.43374e-08)
(1.76226 0.00144569 1.33906e-07)
(1.67526 0.00507821 3.28618e-07)
(1.40136 0.0203157 1.04635e-06)
(0.412589 0.0930674 3.30875e-06)
(-0.544556 0.248009 2.31094e-06)
(-0.60656 0.201429 -1.19256e-06)
(-0.466544 0.192485 -2.67233e-07)
(-0.454018 0.200283 -3.67468e-07)
(-0.450862 0.209074 -5.98612e-07)
(-0.42501 0.213015 -3.96903e-07)
(-0.396048 0.22072 -2.36596e-07)
(-0.352923 0.225904 -7.64474e-08)
(-0.287616 0.227965 1.54799e-08)
(-0.207899 0.228949 7.116e-08)
(-0.166894 0.234069 9.34835e-08)
(0.0178315 0.231054 1.03138e-07)
(1.81919 1.21607e-07 2.60038e-09)
(1.84545 3.71333e-07 1.18183e-08)
(1.84427 8.49504e-07 1.13047e-08)
(1.84248 2.74854e-06 9.7721e-09)
(1.83966 7.86452e-06 9.9266e-09)
(1.83531 2.04402e-05 -1.87579e-09)
(1.82846 1.79642e-06 1.09967e-07)
(1.81804 -5.30728e-05 4.33287e-08)
(1.80029 0.000294255 8.59094e-08)
(1.76455 0.00137719 2.07784e-07)
(1.68452 0.00495423 5.19912e-07)
(1.44917 0.0204019 1.47591e-06)
(0.579671 0.0924929 5.38682e-06)
(-0.474653 0.308099 2.46151e-06)
(-0.607753 0.265187 -2.32158e-06)
(-0.453154 0.246958 -1.25895e-07)
(-0.432404 0.254397 -2.78493e-07)
(-0.430445 0.268883 -5.50155e-07)
(-0.405984 0.274435 -3.20421e-07)
(-0.377671 0.283848 -2.00508e-07)
(-0.339098 0.292395 -5.80635e-08)
(-0.278378 0.296626 2.78602e-08)
(-0.199283 0.29869 8.19181e-08)
(-0.163884 0.306346 1.03166e-07)
(0.021617 0.302622 1.11297e-07)
(1.8192 5.15328e-08 1.78159e-09)
(1.84545 6.0879e-07 4.94465e-09)
(1.84427 1.55837e-06 5.00752e-09)
(1.84248 4.58331e-06 4.8774e-09)
(1.83968 1.42009e-05 4.31152e-09)
(1.83528 4.61178e-05 2.97558e-10)
(1.82841 -2.67838e-05 4.58494e-08)
(1.81817 -2.14223e-05 1.53827e-08)
(1.80081 0.000260963 3.81511e-08)
(1.76643 0.00113558 9.9473e-08)
(1.69332 0.00441828 2.73072e-07)
(1.49536 0.0189707 9.02063e-07)
(0.763974 0.0875635 3.22427e-06)
(-0.361335 0.348372 3.74432e-06)
(-0.603773 0.335601 -2.4373e-06)
(-0.444705 0.300802 -6.61756e-07)
(-0.407275 0.306397 -3.34931e-07)
(-0.404457 0.328176 -3.94058e-07)
(-0.38326 0.336267 -2.27114e-07)
(-0.355038 0.347127 -1.52958e-07)
(-0.320332 0.359206 -3.96056e-08)
(-0.265222 0.367116 4.15727e-08)
(-0.186583 0.371089 9.47561e-08)
(-0.15924 0.3829 1.15338e-07)
(0.0267858 0.380081 1.21895e-07)
(1.8192 -2.93016e-07 4.2433e-09)
(1.84545 -4.383e-07 1.03594e-08)
(1.84428 -5.75328e-07 1.07071e-08)
(1.84249 -4.75446e-07 1.09965e-08)
(1.8397 1.81883e-06 1.21197e-08)
(1.83528 1.90478e-05 1.15231e-08)
(1.82841 -1.12331e-05 5.44077e-08)
(1.81828 5.65187e-06 2.59829e-08)
(1.80128 0.000111969 3.76624e-08)
(1.76828 0.000882317 7.29865e-08)
(1.70147 0.00384446 1.51581e-07)
(1.53657 0.0167774 3.2538e-07)
(0.964843 0.0766244 6.88214e-07)
(-0.187808 0.351649 4.04009e-07)
(-0.582681 0.412006 -4.0179e-07)
(-0.443389 0.353295 -1.81927e-07)
(-0.378612 0.35728 -7.94609e-08)
(-0.372401 0.386342 -2.6828e-07)
(-0.356533 0.398066 -1.62863e-07)
(-0.328368 0.410943 -1.01109e-07)
(-0.296182 0.426472 -8.69951e-09)
(-0.247043 0.439739 6.08856e-08)
(-0.167764 0.446662 1.086e-07)
(-0.151064 0.465386 1.28709e-07)
(0.0343669 0.466333 1.31937e-07)
(1.81919 1.92759e-07 1.57932e-09)
(1.84545 9.17902e-08 5.1162e-09)
(1.84427 3.39018e-08 5.39229e-09)
(1.84248 -1.85972e-07 5.80191e-09)
(1.83969 -7.58158e-07 6.69643e-09)
(1.83527 3.55638e-06 7.55155e-09)
(1.8284 -1.07037e-05 2.51799e-08)
(1.81827 2.58739e-05 1.23959e-08)
(1.80155 -2.44421e-05 2.61807e-08)
(1.76981 0.000663398 4.36129e-08)
(1.70819 0.00319724 5.89286e-08)
(1.57034 0.0140467 5.76465e-08)
(1.14644 0.0624221 -1.15209e-07)
(0.0535983 0.303839 -1.183e-06)
(-0.534449 0.488696 5.66212e-07)
(-0.452588 0.405729 2.29043e-07)
(-0.34738 0.407148 -1.21244e-07)
(-0.335274 0.441533 -2.50983e-07)
(-0.325238 0.459094 -1.18937e-07)
(-0.297478 0.474995 -4.02081e-08)
(-0.266135 0.494281 2.17626e-08)
(-0.222902 0.515335 7.81061e-08)
(-0.140428 0.526839 1.2059e-07)
(-0.136909 0.556097 1.41378e-07)
(0.0456731 0.568507 1.39355e-07)
(1.8192 1.75668e-07 3.06824e-09)
(1.84545 9.77655e-08 9.06728e-09)
(1.84428 2.99918e-08 9.67706e-09)
(1.84249 -1.2843e-07 1.12332e-08)
(1.8397 -2.97703e-07 1.57357e-08)
(1.83527 9.39352e-07 2.45757e-08)
(1.82842 -1.28393e-05 2.95357e-08)
(1.81827 2.34923e-05 4.7696e-08)
(1.80182 -7.51568e-05 7.55397e-08)
(1.77117 0.000514639 8.44996e-08)
(1.71381 0.00259991 9.7425e-08)
(1.59673 0.0111164 1.01515e-07)
(1.28695 0.0474436 -9.28822e-08)
(0.363483 0.218607 -1.11475e-06)
(-0.44531 0.550836 4.45588e-07)
(-0.468055 0.464601 4.35378e-07)
(-0.316146 0.455366 -2.45519e-07)
(-0.294221 0.491955 -2.53789e-07)
(-0.288236 0.518862 -1.04566e-07)
(-0.261859 0.538763 -1.28316e-08)
(-0.228876 0.562315 3.64474e-08)
(-0.191358 0.592891 8.60907e-08)
(-0.101178 0.611806 1.27228e-07)
(-0.110573 0.655368 1.52642e-07)
(0.0655968 0.691421 1.41853e-07)
(1.8192 -1.54874e-07 1.44962e-09)
(1.84545 -2.75809e-07 5.2993e-09)
(1.84427 -4.16256e-07 5.68366e-09)
(1.84248 -4.46925e-07 6.8362e-09)
(1.8397 3.81869e-08 1.11883e-08)
(1.83526 -1.80646e-06 2.05307e-08)
(1.82841 -9.9e-08 1.07638e-08)
(1.81822 -3.91154e-06 2.84717e-08)
(1.80197 -5.20658e-05 4.02526e-08)
(1.77214 0.000318669 5.54696e-08)
(1.71797 0.00171983 8.59675e-08)
(1.61572 0.00753232 9.76852e-08)
(1.3822 0.0332572 3.92876e-08)
(0.684732 0.147468 -6.26469e-07)
(-0.283236 0.557041 -8.39263e-07)
(-0.475883 0.539734 2.99825e-07)
(-0.292686 0.501304 -1.85833e-07)
(-0.250529 0.536323 -1.93861e-07)
(-0.244149 0.576661 -6.57075e-08)
(-0.221145 0.601731 -2.22828e-08)
(-0.184109 0.62958 3.10802e-08)
(-0.15208 0.670254 8.69404e-08)
(-0.0463478 0.704535 1.27914e-07)
(-0.0599746 0.768634 1.57105e-07)
(0.0953918 0.881834 1.39318e-07)
(1.8192 -5.37546e-09 1.93063e-09)
(1.84545 -3.17911e-08 5.44686e-09)
(1.84427 -5.44056e-08 5.83184e-09)
(1.84248 -7.29185e-08 6.73297e-09)
(1.83967 -8.65311e-08 8.45681e-09)
(1.83526 -8.639e-07 1.2764e-08)
(1.82849 2.0883e-06 1.5652e-08)
(1.81775 -4.39945e-07 2.491e-08)
(1.79845 4.38747e-05 3.95389e-08)
(1.75813 0.000218269 6.16393e-08)
(1.65709 0.000844789 8.86973e-08)
(1.30206 0.00371561 1.09006e-07)
(0.139238 0.0190496 8.26298e-08)
(-0.623986 0.0359805 6.24609e-08)
(-0.603955 0.0316803 6.64609e-08)
(-0.496374 0.032168 6.33037e-08)
(-0.490592 0.0340642 -2.24093e-08)
(-0.483466 0.0357851 -9.09563e-08)
(-0.455965 0.0365402 -5.49141e-08)
(-0.423834 0.0371336 2.39874e-09)
(-0.372283 0.0369398 -2.35276e-09)
(-0.29992 0.0364561 -1.65819e-10)
(-0.218544 0.0361335 -2.08381e-08)
(-0.170317 0.0368816 -4.49707e-08)
(0.0125344 0.0368733 -1.01749e-07)
(1.8192 -1.82613e-08 2.64269e-09)
(1.84545 -6.28847e-08 6.79803e-09)
(1.84427 -9.92548e-08 7.26203e-09)
(1.84248 -1.04136e-07 8.37479e-09)
(1.83967 -2.60342e-07 1.07257e-08)
(1.83527 -2.30786e-06 1.57178e-08)
(1.82849 8.34209e-06 1.91443e-08)
(1.81778 -4.84522e-06 2.87397e-08)
(1.79864 0.000128013 4.24217e-08)
(1.75885 0.000663621 6.59806e-08)
(1.66038 0.00253343 8.98744e-08)
(1.32069 0.0109058 9.76624e-08)
(0.182014 0.0535737 -5.47096e-09)
(-0.611912 0.103481 -4.96453e-08)
(-0.601899 0.0834673 9.62274e-08)
(-0.489232 0.0814316 6.39037e-08)
(-0.483526 0.0850411 -4.39911e-08)
(-0.477064 0.0878827 -1.03376e-07)
(-0.449979 0.0893223 -7.63839e-08)
(-0.418787 0.0917524 -2.05677e-08)
(-0.368942 0.0926724 -1.86007e-08)
(-0.297932 0.0928014 -1.08526e-08)
(-0.216885 0.092762 -2.53279e-08)
(-0.169915 0.0945731 -4.15636e-08)
(0.0133339 0.093509 -8.64726e-08)
(1.8192 -2.34914e-08 1.48397e-09)
(1.84545 -1.16845e-07 4.31685e-09)
(1.84427 -2.32989e-07 4.66801e-09)
(1.84248 -5.06716e-07 5.58108e-09)
(1.83967 -1.94124e-06 7.75068e-09)
(1.83527 -7.82089e-06 1.20309e-08)
(1.82848 2.43424e-05 1.07016e-08)
(1.81785 -1.87558e-05 1.66718e-08)
(1.79903 0.000207184 2.61349e-08)
(1.76028 0.00110426 3.83835e-08)
(1.66673 0.00407019 4.9712e-08)
(1.35513 0.0169249 -2.4782e-08)
(0.270517 0.0812288 -6.37963e-07)
(-0.588779 0.177621 -1.53449e-07)
(-0.603652 0.141634 2.82392e-07)
(-0.479721 0.137308 -3.47949e-08)
(-0.47152 0.143639 -8.82932e-08)
(-0.466499 0.14862 -1.04081e-07)
(-0.440093 0.151123 -1.02227e-07)
(-0.409899 0.156043 -6.13437e-08)
(-0.362668 0.158645 -4.97872e-08)
(-0.293924 0.159556 -3.4439e-08)
(-0.213482 0.159919 -3.49112e-08)
(-0.168902 0.163126 -3.05976e-08)
(0.0149513 0.161072 -7.67072e-08)
(1.8192 -1.31476e-08 3.09505e-09)
(1.84545 -1.10127e-07 7.95344e-09)
(1.84427 -2.76399e-07 8.52648e-09)
(1.84248 -8.42115e-07 1.00936e-08)
(1.83967 -3.64125e-06 1.42143e-08)
(1.83529 -1.39727e-05 2.12842e-08)
(1.82848 4.42705e-05 1.85064e-08)
(1.81793 -3.7595e-05 2.55471e-08)
(1.79961 0.000275586 3.05989e-08)
(1.76229 0.00143888 3.35846e-08)
(1.67527 0.00506684 1.33725e-08)
(1.40125 0.0202884 -2.52962e-07)
(0.412042 0.0929795 -1.60662e-06)
(-0.545028 0.247838 -6.31707e-09)
(-0.606748 0.201471 1.00691e-06)
(-0.466794 0.192458 -2.25931e-07)
(-0.454136 0.200215 -1.28418e-07)
(-0.450876 0.209035 -7.48603e-08)
(-0.425 0.21298 -1.45172e-07)
(-0.396029 0.220697 -1.17352e-07)
(-0.352912 0.225892 -9.08049e-08)
(-0.287611 0.227958 -7.37168e-08)
(-0.207898 0.228945 -6.11203e-08)
(-0.166893 0.234067 -2.5483e-08)
(0.0178308 0.231053 -7.62672e-08)
(1.8192 1.3499e-08 1.65321e-09)
(1.84545 5.59736e-07 4.0418e-09)
(1.84427 1.28773e-06 4.30523e-09)
(1.84248 3.36541e-06 4.95907e-09)
(1.83966 8.59613e-06 6.48543e-09)
(1.83531 2.12956e-05 9.39477e-09)
(1.82847 8.77514e-06 1.18545e-08)
(1.81804 -4.28713e-05 2.15824e-08)
(1.80029 0.000310611 1.80525e-08)
(1.76455 0.00141169 5.09129e-09)
(1.6845 0.00503081 -5.55474e-08)
(1.44898 0.0205769 -3.98015e-07)
(0.578878 0.0929682 -2.20714e-06)
(-0.475493 0.30883 -5.95083e-07)
(-0.608104 0.265148 9.23966e-07)
(-0.453539 0.246745 -3.3676e-07)
(-0.432531 0.254247 1.99894e-09)
(-0.430437 0.268816 -3.3802e-08)
(-0.405966 0.274386 -1.51792e-07)
(-0.37764 0.283818 -1.75293e-07)