/*--------------------------------*- C++ -*----------------------------------*\
| =========                 |                                                 |
| \\      /  F ield         | OpenFOAM: The Open Source CFD Toolbox           |
|  \\    /   O peration     | Version:  4.1                                   |
|   \\  /    A nd           | Web:      www.OpenFOAM.org                      |
|    \\/     M anipulation  |                                                 |
\*---------------------------------------------------------------------------*/
FoamFile
{
    version     2.0;
    format      ascii;
    class       volScalarField;
    location    "0.56";
    object      Ma;
}
// * * * * * * * * * * * * * * * * * * * * * * * * * * * * * * * * * * * * * //

dimensions      [0 0 0 0 0 0 0];

internalField   nonuniform List<scalar> 
52500
(
3.06817
3.1296
3.04524
2.63056
1.46866
0.074657
0.351823
0.058583
0.0474034
0.0828041
0.064525
0.0425422
0.036708
0.0302055
0.0251852
0.0234998
0.0244236
0.0328225
0.0495953
0.0687213
0.0861624
0.0898842
0.0971574
0.0595195
0.0475274
3.06954
3.13229
3.04974
2.64305
1.49312
0.0980859
0.355944
0.0768277
0.0655725
0.0940734
0.0770477
0.0579199
0.0527099
0.0484962
0.0461981
0.0470429
0.0499929
0.057627
0.0707166
0.0864131
0.101739
0.105446
0.111852
0.0816934
0.0734586
3.07243
3.13799
3.05942
2.67081
1.55131
0.145147
0.360505
0.103639
0.096757
0.112592
0.098844
0.08401
0.0799649
0.0779285
0.0777042
0.0807019
0.0857573
0.0945229
0.106153
0.119094
0.132609
0.136833
0.142482
0.120922
0.11553
3.07666
3.14634
3.0735
2.71153
1.63915
0.2079
0.365519
0.137555
0.129853
0.136672
0.124504
0.111896
0.108137
0.107025
0.108231
0.113382
0.120737
0.131472
0.143508
0.15561
0.168553
0.173984
0.180145
0.165002
0.161884
3.08191
3.15673
3.09081
2.76202
1.75393
0.28947
0.371287
0.178407
0.16165
0.164405
0.152586
0.140979
0.13745
0.137015
0.138994
0.145903
0.155575
0.168287
0.180966
0.193606
0.207079
0.214627
0.222316
0.212658
0.212927
3.08792
3.16864
3.11034
2.81953
1.89185
0.394278
0.374829
0.226602
0.191196
0.194461
0.18189
0.170627
0.167375
0.167266
0.169966
0.178582
0.190399
0.205002
0.218803
0.232835
0.247829
0.258
0.26785
0.26342
0.268385
3.0944
3.18151
3.13103
2.88032
2.04595
0.525713
0.374052
0.28196
0.218597
0.226341
0.212029
0.200687
0.197865
0.197781
0.201182
0.211419
0.225147
0.241509
0.257123
0.27315
0.290656
0.304353
0.317482
0.318082
0.32926
3.10109
3.19483
3.15191
2.94033
2.20808
0.702972
0.370018
0.34244
0.241804
0.258878
0.243176
0.231092
0.228937
0.228389
0.23266
0.244208
0.259632
0.277568
0.295837
0.314387
0.335383
0.353938
0.372919
0.380916
0.402406
3.10774
3.2082
3.17233
2.99692
2.36747
0.933244
0.363144
0.403262
0.259412
0.289345
0.277685
0.261606
0.260655
0.259539
0.264738
0.276786
0.293814
0.312909
0.334669
0.356292
0.381859
0.406983
0.43598
0.457616
0.501099
3.11411
3.22119
3.19174
3.04889
2.52254
1.20949
0.350166
0.458391
0.272529
0.315417
0.314125
0.292609
0.292857
0.291591
0.297355
0.309117
0.32726
0.347465
0.373388
0.398453
0.42918
0.463078
0.507476
0.558166
0.664466
3.06812
3.12952
3.04511
2.63025
1.46805
0.0738621
0.351865
0.0579618
0.0465068
0.0825165
0.0640362
0.0417915
0.0358683
0.0291935
0.0239463
0.0221735
0.0231891
0.0319426
0.0490266
0.0683206
0.0858575
0.0896032
0.096905
0.0590909
0.0469933
3.0695
3.13223
3.04965
2.64285
1.49287
0.0977797
0.355393
0.075856
0.0652714
0.0933061
0.0762308
0.0571816
0.0520575
0.0478669
0.0455596
0.0464331
0.0494345
0.0571439
0.0703209
0.0860918
0.101473
0.105195
0.111617
0.0813572
0.0730944
3.07238
3.13792
3.05931
2.67055
1.55086
0.144599
0.360421
0.103165
0.0962042
0.112358
0.0986178
0.0837997
0.0797426
0.0776334
0.077376
0.0803778
0.0854503
0.0942269
0.105886
0.118855
0.132397
0.136627
0.142281
0.120667
0.115274
3.07661
3.14627
3.07338
2.71123
1.63854
0.207398
0.365449
0.137229
0.129397
0.136491
0.124388
0.111813
0.108063
0.106894
0.108031
0.113151
0.120508
0.131248
0.143305
0.15542
0.168375
0.173809
0.179967
0.164786
0.161672
3.08187
3.15666
3.09069
2.76172
1.75329
0.288987
0.371214
0.178124
0.161328
0.164252
0.152522
0.140878
0.137298
0.136793
0.13875
0.145668
0.155365
0.168095
0.180792
0.193442
0.206921
0.21447
0.222152
0.212467
0.212739
3.08788
3.16857
3.11023
2.81925
1.89121
0.393776
0.37479
0.226372
0.190996
0.19438
0.181839
0.170505
0.167146
0.166967
0.169667
0.178323
0.190189
0.204826
0.21864
0.23268
0.247682
0.257853
0.267698
0.263249
0.268219
3.09437
3.18145
3.13094
2.88008
2.04535
0.525145
0.374049
0.281743
0.218487
0.226304
0.21207
0.200562
0.197651
0.197519
0.200912
0.21117
0.224931
0.241332
0.256962
0.272999
0.290516
0.304213
0.317339
0.317929
0.329109
3.10107
3.19478
3.15183
2.94013
2.20755
0.702314
0.370049
0.342238
0.241783
0.258894
0.243146
0.230966
0.228761
0.228179
0.232439
0.24399
0.259421
0.277387
0.295681
0.314244
0.335249
0.353806
0.372784
0.380772
0.402261
3.10772
3.20817
3.17227
2.99677
2.36703
0.93253
0.363211
0.403106
0.259449
0.289415
0.277658
0.261512
0.260518
0.259351
0.264525
0.276567
0.293613
0.312725
0.334516
0.356154
0.38173
0.40686
0.435854
0.457479
0.500959
3.11409
3.22116
3.1917
3.04878
2.52219
1.20881
0.350252
0.458293
0.272578
0.315507
0.31417
0.292575
0.292784
0.291453
0.297176
0.308919
0.327069
0.347288
0.373243
0.398319
0.429058
0.462965
0.507364
0.558047
0.664342
3.06814
3.12956
3.04517
2.63039
1.46834
0.0740349
0.351761
0.057995
0.046515
0.0825308
0.0642027
0.041969
0.0359956
0.0292429
0.0239532
0.0221678
0.0231743
0.0319246
0.0490076
0.0682966
0.0858283
0.0895716
0.0968764
0.0590696
0.0469871
3.06951
3.13225
3.04968
2.64291
1.4929
0.0976951
0.355733
0.0762415
0.0651219
0.0936789
0.076622
0.0574047
0.0521536
0.0478723
0.0455218
0.0463858
0.0493942
0.0571213
0.0703053
0.086074
0.101451
0.10517
0.111595
0.0813451
0.0730934
3.0724
3.13796
3.05937
2.67068
1.55108
0.14481
0.36037
0.103219
0.0964619
0.112297
0.0985185
0.0836633
0.0796038
0.0775385
0.0772993
0.080316
0.0854071
0.0942114
0.105877
0.118846
0.132385
0.136612
0.142268
0.120663
0.115278
3.07664
3.14631
3.07344
2.71139
1.63888
0.207599
0.365403
0.137224
0.129652
0.136443
0.124253
0.111654
0.107894
0.106769
0.107963
0.113116
0.120485
0.131243
0.143304
0.15542
0.168372
0.173803
0.179962
0.164789
0.161679
3.08189
3.15669
3.09075
2.76188
1.75365
0.289194
0.371169
0.178119
0.161498
0.164215
0.152381
0.140811
0.137278
0.136832
0.138779
0.145686
0.15537
0.168105
0.180805
0.193451
0.206926
0.214471
0.222154
0.212475
0.212751
3.0879
3.1686
3.11028
2.8194
1.89155
0.393999
0.374723
0.226369
0.191061
0.194333
0.181726
0.170499
0.167207
0.167065
0.169751
0.178384
0.190226
0.204855
0.218666
0.232698
0.247693
0.257859
0.267704
0.26326
0.268233
3.09438
3.18147
3.13098
2.88019
2.04564
0.525397
0.373961
0.281753
0.218466
0.226218
0.212008
0.200587
0.197721
0.197612
0.200999
0.211243
0.22499
0.241379
0.256997
0.273023
0.290531
0.304222
0.317348
0.317942
0.329124
3.10107
3.1948
3.15186
2.94021
2.20778
0.702587
0.369942
0.342253
0.241698
0.258749
0.24312
0.230996
0.228817
0.228252
0.232503
0.244051
0.259484
0.277442
0.29572
0.314272
0.335266
0.353818
0.372795
0.380788
0.402279
3.10772
3.20818
3.17229
2.99682
2.36719
0.932797
0.36309
0.403101
0.259338
0.289244
0.277622
0.261519
0.260548
0.259405
0.264581
0.276637
0.293673
0.312783
0.334555
0.356181
0.381747
0.406873
0.435867
0.457496
0.50098
3.11409
3.22116
3.19171
3.04881
2.52229
1.20903
0.350133
0.458261
0.272467
0.315351
0.314104
0.292557
0.292778
0.291471
0.297198
0.30896
0.327121
0.347345
0.373282
0.398343
0.429073
0.462977
0.507377
0.558065
0.664364
3.06814
3.12955
3.04516
2.63037
1.4683
0.0740073
0.351776
0.058005
0.0464908
0.0825427
0.0642063
0.0419726
0.036005
0.0292569
0.0239656
0.0221739
0.0231695
0.0319137
0.0489967
0.0682857
0.0858149
0.0895532
0.0968543
0.05905
0.0469773
3.06951
3.13225
3.04967
2.6429
1.49287
0.0976905
0.355718
0.0762185
0.0651248
0.0936528
0.0765923
0.0573899
0.0521523
0.0478789
0.0455323
0.0463938
0.0493967
0.0571164
0.0702966
0.0860633
0.101437
0.105151
0.111572
0.0813262
0.0730817
3.0724
3.13795
3.05936
2.67066
1.55105
0.144794
0.360372
0.103209
0.0964566
0.112282
0.0985108
0.0836874
0.0796398
0.0775771
0.0773232
0.080327
0.0854091
0.0942039
0.105868
0.118834
0.13237
0.136593
0.142246
0.120644
0.115263
3.07663
3.1463
3.07344
2.71138
1.63885
0.207582
0.365391
0.13722
0.129623
0.136452
0.124295
0.111708
0.107942
0.106799
0.10797
0.113116
0.120481
0.131235
0.143296
0.155408
0.168356
0.173783
0.179938
0.164769
0.161662
3.08189
3.15669
3.09075
2.76186
1.7536
0.28916
0.371185
0.178142
0.161451
0.16427
0.152475
0.140844
0.13727
0.13678
0.138744
0.145664
0.155361
0.168097
0.180794
0.193438
0.206909
0.214449
0.22213
0.212453
0.212732
3.0879
3.1686
3.11028
2.81938
1.8915
0.393972
0.374749
0.2264
0.191047
0.194394
0.181804
0.170509
0.167174
0.167009
0.169703
0.178351
0.190208
0.204842
0.218652
0.232683
0.247674
0.257837
0.26768
0.263238
0.268213
3.09438
3.18147
3.13097
2.88018
2.04562
0.525378
0.373987
0.281775
0.218496
0.226288
0.212041
0.200583
0.197704
0.197587
0.200974
0.21122
0.224968
0.24136
0.256982
0.273007
0.290513
0.304201
0.317325
0.317919
0.329103
3.10107
3.1948
3.15186
2.94021
2.20778
0.702587
0.369967
0.342266
0.241755
0.258841
0.243127
0.230988
0.228812
0.228246
0.23251
0.244045
0.259465
0.277421
0.295704
0.314256
0.335249
0.353798
0.372773
0.380768
0.402259
3.10772
3.20818
3.17229
2.99682
2.3672
0.93282
0.363115
0.403112
0.259398
0.289326
0.277628
0.261517
0.260549
0.259406
0.264587
0.27662
0.293659
0.312761
0.334542
0.356167
0.381731
0.406856
0.435847
0.457478
0.500962
3.11409
3.22116
3.19171
3.04881
2.52232
1.20907
0.350152
0.458275
0.272513
0.315399
0.314118
0.292555
0.29279
0.291487
0.297218
0.30896
0.327113
0.347326
0.373269
0.398331
0.429059
0.462962
0.507361
0.558051
0.664354
3.06814
3.12956
3.04517
2.63043
1.46844
0.0741059
0.351761
0.0580346
0.0464921
0.0825461
0.0642068
0.0419697
0.0360023
0.0292572
0.0239674
0.0221764
0.0231698
0.0319117
0.0489934
0.068281
0.085808
0.0895448
0.0968452
0.0590435
0.0469672
3.06951
3.13226
3.04969
2.64296
1.49301
0.0977715
0.355708
0.0762537
0.0651126
0.0936646
0.0766028
0.0573907
0.0521478
0.0478746
0.0455295
0.046392
0.049395
0.0571148
0.0702958
0.0860625
0.101436
0.10515
0.111572
0.0813339
0.0730787
3.07241
3.13796
3.05938
2.67072
1.55118
0.14487
0.360359
0.103245
0.0964474
0.112289
0.0985175
0.0836817
0.079627
0.0775647
0.0773145
0.0803215
0.0854069
0.0942036
0.105869
0.118835
0.13237
0.136595
0.14225
0.12066
0.115264
3.07664
3.14631
3.07346
2.71144
1.639
0.207677
0.365375
0.137259
0.129618
0.13646
0.124296
0.111696
0.107923
0.10678
0.107956
0.113107
0.120478
0.131235
0.143296
0.155408
0.168357
0.173786
0.179945
0.164788
0.16167
3.08189
3.1567
3.09076
2.76192
1.75374
0.289266
0.37117
0.178188
0.161451
0.164287
0.152489
0.140828
0.137247
0.136759
0.138729
0.145654
0.155356
0.168095
0.180793
0.193437
0.206909
0.214453
0.222137
0.212474
0.212747
3.0879
3.16861
3.11029
2.81943
1.89164
0.394083
0.374738
0.226437
0.19106
0.194397
0.181846
0.170488
0.167155
0.166991
0.16969
0.178342
0.190204
0.20484
0.218651
0.232684
0.247676
0.257841
0.267688
0.263258
0.268232
3.09439
3.18148
3.13099
2.88023
2.04575
0.525512
0.373971
0.281814
0.218532
0.22632
0.211973
0.200565
0.197695
0.197573
0.200964
0.211214
0.224966
0.24136
0.256982
0.273011
0.290516
0.304207
0.317333
0.317938
0.329123
3.10108
3.19481
3.15188
2.94026
2.20791
0.702756
0.369948
0.342305
0.241795
0.258905
0.243104
0.230987
0.228815
0.22824
0.232508
0.244046
0.259467
0.277423
0.295709
0.314263
0.335255
0.353805
0.372782
0.380784
0.40228
3.10772
3.20819
3.17231
2.99686
2.36732
0.933014
0.363086
0.403147
0.259424
0.289381
0.277638
0.26153
0.260561
0.259411
0.264592
0.276624
0.293665
0.312768
0.33455
0.356177
0.381741
0.406862
0.435857
0.457493
0.500986
3.1141
3.22117
3.19173
3.04885
2.52242
1.20927
0.350115
0.458302
0.272525
0.315428
0.314112
0.292568
0.2928
0.291496
0.29723
0.308973
0.327124
0.347337
0.373281
0.398344
0.429073
0.46297
0.507368
0.55806
0.664381
3.06814
3.12955
3.04517
2.6304
1.46837
0.0740647
0.351773
0.0580323
0.0464756
0.0825532
0.0642128
0.0419737
0.0360053
0.0292577
0.0239667
0.0221745
0.0231682
0.0319106
0.048993
0.0682812
0.0858091
0.0895456
0.0968463
0.059044
0.0469763
3.06951
3.13225
3.04968
2.64293
1.49295
0.0977449
0.355708
0.0762394
0.0651143
0.0936574
0.0765945
0.0573851
0.0521445
0.0478727
0.0455289
0.0463921
0.0493954
0.0571147
0.0702949
0.0860606
0.101434
0.105146
0.111568
0.0813253
0.0730851
3.0724
3.13796
3.05937
2.6707
1.55113
0.144842
0.360365
0.103234
0.0964465
0.112286
0.0985126
0.0836796
0.0796263
0.0775647
0.0773152
0.0803228
0.085407
0.094203
0.105868
0.118833
0.132368
0.136591
0.142245
0.120648
0.11527
3.07664
3.14631
3.07345
2.71141
1.63894
0.207642
0.365384
0.13725
0.129616
0.13646
0.124295
0.111696
0.107923
0.106782
0.107959
0.11311
0.120479
0.131235
0.143296
0.155408
0.168357
0.173784
0.179941
0.164776
0.161673
3.08189
3.15669
3.09076
2.76189
1.75369
0.289228
0.37118
0.17818
0.161448
0.164288
0.152489
0.140829
0.137248
0.136762
0.138731
0.145658
0.155358
0.168096
0.180795
0.193439
0.206912
0.214453
0.222135
0.212462
0.212744
3.0879
3.1686
3.11029
2.81941
1.89159
0.394044
0.374749
0.226429
0.191058
0.194398
0.181848
0.17049
0.167155
0.166991
0.169691
0.178344
0.190205
0.204841
0.218653
0.232686
0.247679
0.257843
0.267688
0.263248
0.268225
3.09438
3.18148
3.13099
2.88022
2.04571
0.525469
0.373983
0.281805
0.218532
0.226321
0.211975
0.200567
0.197695
0.197573
0.200964
0.211215
0.224967
0.241361
0.256985
0.273012
0.290519
0.304209
0.317334
0.31793
0.329116
3.10108
3.19481
3.15187
2.94024
2.20787
0.702708
0.36996
0.342297
0.241796
0.258907
0.243106
0.230989
0.228816
0.228241
0.232508
0.244045
0.259466
0.277423
0.29571
0.314263
0.335257
0.353808
0.372784
0.380781
0.402274
3.10772
3.20818
3.1723
2.99685
2.36729
0.932961
0.363099
0.403142
0.259427
0.289385
0.27764
0.261532
0.260562
0.259412
0.264591
0.276623
0.293663
0.312766
0.334549
0.356176
0.381742
0.406867
0.435861
0.457495
0.500981
3.1141
3.22117
3.19172
3.04884
2.52239
1.20922
0.350126
0.4583
0.272529
0.315433
0.314114
0.29257
0.292801
0.291496
0.297228
0.30897
0.327122
0.347335
0.373279
0.398341
0.429071
0.462975
0.507376
0.55807
0.664374
3.06814
3.12955
3.04516
2.63037
1.46829
0.0740071
0.351776
0.0580048
0.046491
0.0825424
0.064206
0.0419723
0.0360048
0.0292568
0.0239655
0.0221739
0.0231696
0.0319138
0.0489968
0.0682858
0.0858151
0.0895532
0.0968544
0.05905
0.0469773
3.06951
3.13225
3.04967
2.6429
1.49287
0.0976901
0.355718
0.0762185
0.0651247
0.0936528
0.0765923
0.0573899
0.0521523
0.0478788
0.0455323
0.0463938
0.0493968
0.0571164
0.0702967
0.0860633
0.101437
0.105151
0.111572
0.0813262
0.0730817
3.0724
3.13795
3.05936
2.67066
1.55105
0.144793
0.360372
0.103209
0.0964565
0.112282
0.0985108
0.0836874
0.0796398
0.0775771
0.0773232
0.080327
0.0854091
0.0942039
0.105868
0.118834
0.13237
0.136593
0.142246
0.120644
0.115263
3.07663
3.1463
3.07344
2.71138
1.63885
0.207582
0.365391
0.13722
0.129623
0.136452
0.124295
0.111708
0.107942
0.106799
0.10797
0.113116
0.120481
0.131235
0.143296
0.155408
0.168356
0.173783
0.179938
0.164769
0.161662
3.08189
3.15669
3.09075
2.76186
1.7536
0.28916
0.371185
0.178142
0.161451
0.16427
0.152475
0.140844
0.13727
0.13678
0.138744
0.145664
0.155361
0.168097
0.180794
0.193438
0.206909
0.214449
0.22213
0.212453
0.212732
3.0879
3.1686
3.11028
2.81938
1.8915
0.393972
0.374749
0.2264
0.191047
0.194394
0.181804
0.170509
0.167174
0.167009
0.169703
0.178351
0.190208
0.204842
0.218652
0.232683
0.247675
0.257837
0.26768
0.263237
0.268213
3.09438
3.18147
3.13097
2.88018
2.04561
0.525378
0.373987
0.281775
0.218496
0.226288
0.212041
0.200583
0.197704
0.197587
0.200974
0.21122
0.224968
0.24136
0.256982
0.273007
0.290513
0.304201
0.317325
0.317919
0.329103
3.10107
3.1948
3.15186
2.94021
2.20777
0.702586
0.369967
0.342266
0.241755
0.258841
0.243127
0.230988
0.228812
0.228246
0.23251
0.244045
0.259465
0.277421
0.295704
0.314256
0.335249
0.353798
0.372773
0.380768
0.402259
3.10772
3.20818
3.17229
2.99682
2.3672
0.93282
0.363115
0.403112
0.259398
0.289326
0.277628
0.261517
0.260549
0.259406
0.264587
0.27662
0.293659
0.312761
0.334542
0.356167
0.381731
0.406856
0.435847
0.457478
0.500962
3.11409
3.22116
3.19171
3.04881
2.52232
1.20907
0.350152
0.458275
0.272513
0.315399
0.314118
0.292555
0.29279
0.291487
0.297218
0.30896
0.327113
0.347326
0.373269
0.398331
0.429059
0.462962
0.507361
0.558051
0.664354
3.06814
3.12956
3.04517
2.63039
1.46834
0.074035
0.351761
0.057995
0.046515
0.0825308
0.0642027
0.041969
0.0359956
0.0292429
0.0239532
0.0221678
0.0231743
0.0319246
0.0490076
0.0682966
0.0858283
0.0895716
0.0968764
0.0590696
0.0469871
3.06951
3.13225
3.04968
2.64291
1.4929
0.0976951
0.355732
0.0762415
0.0651219
0.0936789
0.076622
0.0574047
0.0521536
0.0478723
0.0455218
0.0463858
0.0493942
0.0571213
0.0703053
0.0860741
0.101451
0.10517
0.111595
0.0813451
0.0730934
3.0724
3.13796
3.05937
2.67068
1.55108
0.14481
0.36037
0.103219
0.0964619
0.112297
0.0985185
0.0836633
0.0796038
0.0775385
0.0772993
0.080316
0.0854071
0.0942114
0.105877
0.118846
0.132385
0.136612
0.142268
0.120663
0.115278
3.07664
3.14631
3.07344
2.71139
1.63888
0.207599
0.365403
0.137224
0.129652
0.136443
0.124253
0.111654
0.107894
0.106769
0.107963
0.113116
0.120485
0.131243
0.143304
0.15542
0.168372
0.173803
0.179962
0.164789
0.161679
3.08189
3.15669
3.09075
2.76188
1.75365
0.289194
0.371169
0.178119
0.161498
0.164215
0.152381
0.140811
0.137278
0.136832
0.138779
0.145686
0.15537
0.168105
0.180805
0.193451
0.206926
0.214471
0.222154
0.212475
0.212751
3.0879
3.1686
3.11028
2.8194
1.89155
0.393999
0.374723
0.226369
0.191061
0.194333
0.181726
0.170499
0.167207
0.167065
0.169751
0.178384
0.190226
0.204855
0.218666
0.232698
0.247693
0.257859
0.267704
0.26326
0.268233
3.09438
3.18147
3.13098
2.88019
2.04564
0.525397
0.373961
0.281753
0.218466
0.226218
0.212008
0.200587
0.197721
0.197612
0.200999
0.211243
0.22499
0.241379
0.256997
0.273023
0.290531
0.304222
0.317348
0.317942
0.329124
3.10107
3.1948
3.15186
2.94021
2.20778
0.702587
0.369941
0.342253
0.241698
0.258749
0.24312
0.230996
0.228817
0.228252
0.232503
0.244051
0.259484
0.277442
0.29572
0.314272
0.335266
0.353818
0.372795
0.380788
0.402279
3.10772
3.20818
3.17229
2.99682
2.36719
0.932797
0.36309
0.403101
0.259338
0.289244
0.277622
0.261519
0.260548
0.259405
0.264581
0.276637
0.293673
0.312783
0.334555
0.356181
0.381747
0.406873
0.435867
0.457496
0.50098
3.11409
3.22116
3.19171
3.04881
2.52229
1.20903
0.350133
0.458261
0.272467
0.315351
0.314104
0.292557
0.292778
0.291471
0.297198
0.30896
0.327121
0.347345
0.373282
0.398343
0.429073
0.462977
0.507377
0.558065
0.664364
3.06812
3.12952
3.04511
2.63025
1.46805
0.0738632
0.351864
0.0579623
0.0465072
0.0825163
0.0640362
0.0417915
0.0358682
0.0291934
0.0239463
0.0221735
0.0231892
0.0319428
0.0490268
0.0683208
0.0858577
0.0896036
0.0969054
0.0590912
0.0469934
3.0695
3.13223
3.04965
2.64285
1.49287
0.0977804
0.355392
0.0758565
0.0652716
0.0933061
0.0762308
0.0571816
0.0520574
0.0478669
0.0455596
0.0464332
0.0494346
0.0571441
0.070321
0.086092
0.101473
0.105195
0.111618
0.0813574
0.0730944
3.07238
3.13792
3.05931
2.67055
1.55086
0.144599
0.360421
0.103165
0.0962042
0.112358
0.0986179
0.0837998
0.0797426
0.0776334
0.077376
0.0803778
0.0854504
0.094227
0.105886
0.118855
0.132397
0.136627
0.142281
0.120667
0.115274
3.07661
3.14627
3.07338
2.71123
1.63855
0.207399
0.365449
0.137229
0.129397
0.136491
0.124388
0.111813
0.108063
0.106894
0.108031
0.113151
0.120508
0.131248
0.143305
0.15542
0.168375
0.173809
0.179967
0.164786
0.161672
3.08187
3.15666
3.09069
2.76172
1.75329
0.288988
0.371214
0.178124
0.161328
0.164252
0.152522
0.140878
0.137298
0.136793
0.13875
0.145669
0.155365
0.168095
0.180793
0.193442
0.206921
0.21447
0.222152
0.212467
0.212739
3.08788
3.16857
3.11023
2.81925
1.89121
0.393777
0.37479
0.226372
0.190997
0.19438
0.181838
0.170505
0.167146
0.166967
0.169667
0.178323
0.190189
0.204826
0.21864
0.232681
0.247682
0.257853
0.267698
0.263249
0.268219
3.09437
3.18145
3.13094
2.88008
2.04535
0.525145
0.374048
0.281743
0.218487
0.226304
0.21207
0.200562
0.197651
0.197519
0.200912
0.211171
0.224931
0.241332
0.256962
0.272999
0.290516
0.304213
0.317338
0.317928
0.329108
3.10107
3.19478
3.15183
2.94013
2.20756
0.702315
0.370048
0.342238
0.241783
0.258894
0.243146
0.230966
0.228761
0.228179
0.23244
0.24399
0.259421
0.277387
0.295681
0.314244
0.335249
0.353806
0.372784
0.380772
0.402261
3.10772
3.20817
3.17227
2.99677
2.36703
0.932531
0.363211
0.403106
0.259449
0.289415
0.277658
0.261512
0.260518
0.259351
0.264526
0.276567
0.293613
0.312725
0.334516
0.356154
0.38173
0.40686
0.435854
0.457478
0.500959
3.11409
3.22116
3.1917
3.04878
2.52219
1.20881
0.350251
0.458293
0.272578
0.315507
0.31417
0.292575
0.292784
0.291453
0.297176
0.308919
0.327069
0.347288
0.373243
0.398319
0.429058
0.462965
0.507364
0.558047
0.664341
3.06817
3.1296
3.04524
2.63055
1.46861
0.0746146
0.351949
0.0587609
0.047238
0.0829785
0.0647118
0.0426304
0.0367336
0.0302002
0.0251769
0.0234944
0.0244172
0.0328189
0.049598
0.0687145
0.0861547
0.0898678
0.09715
0.0594987
0.0475556
3.06954
3.1323
3.04975
2.64308
1.49318
0.0981543
0.355918
0.0767818
0.0657582
0.0939162
0.07685
0.0577782
0.0526259
0.0484772
0.0462098
0.0470592
0.0500082
0.0576393
0.0707272
0.0864186
0.101747
0.105448
0.11186
0.0816818
0.07347
3.07244
3.13801
3.05945
2.67088
1.55145
0.145205
0.360377
0.10349
0.0969479
0.112325
0.0985698
0.0839456
0.0800124
0.0780283
0.0777853
0.0807566
0.0857915
0.0945425
0.10617
0.119106
0.132621
0.136838
0.142488
0.120904
0.115526
3.07666
3.14635
3.07351
2.71157
1.63923
0.207875
0.365456
0.137488
0.129794
0.136641
0.124546
0.111985
0.10824
0.107107
0.108298
0.113436
0.120775
0.131495
0.143527
0.155622
0.168563
0.173988
0.180144
0.164977
0.161865
3.08191
3.15673
3.0908
2.762
1.75389
0.289403
0.371307
0.17844
0.161471
0.16448
0.152779
0.141065
0.137477
0.136979
0.13898
0.145911
0.1556
0.168306
0.180977
0.193612
0.20708
0.214624
0.222307
0.212631
0.2129
3.08792
3.16863
3.11032
2.81949
1.89176
0.394219
0.374857
0.22665
0.191081
0.194511
0.182043
0.170668
0.167361
0.167214
0.169927
0.17857
0.190406
0.205009
0.218802
0.232829
0.247821
0.257988
0.267835
0.263395
0.268362
3.0944
3.1815
3.13102
2.88029
2.04587
0.525647
0.37406
0.28197
0.218579
0.226385
0.212064
0.200688
0.197886
0.197812
0.201214
0.211422
0.225138
0.241499
0.257111
0.273135
0.29064
0.304333
0.31746
0.318058
0.329239
3.10109
3.19483
3.1519
2.9403
2.20801
0.70289
0.370017
0.342416
0.241848
0.258966
0.243154
0.231084
0.228965
0.228433
0.232709
0.244223
0.25962
0.277541
0.295817
0.314364
0.335358
0.353912
0.372892
0.380886
0.40238
3.10773
3.2082
3.17232
2.99689
2.3674
0.933133
0.363138
0.403228
0.259473
0.289443
0.277674
0.261624
0.260683
0.259567
0.264769
0.276786
0.293799
0.312867
0.334642
0.356264
0.381828
0.40695
0.435946
0.457576
0.501062
3.11411
3.22118
3.19173
3.04886
2.52246
1.20935
0.350157
0.458364
0.272574
0.315475
0.314143
0.292642
0.292892
0.291615
0.297362
0.309091
0.327236
0.347426
0.37336
0.398421
0.429145
0.46304
0.507435
0.55812
0.664419
3.12003
3.23335
3.20957
3.09529
2.67012
1.50968
0.345227
0.50138
0.289235
0.340694
0.350719
0.325313
0.325482
0.324803
0.330616
0.341397
0.359884
0.38158
0.410892
0.439493
0.477086
0.520913
0.584717
0.675015
0.860581
3.1254
3.24437
3.22537
3.13554
2.80386
1.81343
0.407971
0.528167
0.326437
0.367652
0.386164
0.360987
0.358718
0.359019
0.364293
0.374444
0.391621
0.414806
0.446389
0.480139
0.52304
0.575817
0.654053
0.764188
0.960587
3.13011
3.25403
3.23883
3.16893
2.9184
2.10785
0.588656
0.536889
0.393198
0.393284
0.415688
0.400417
0.392914
0.394592
0.398566
0.408119
0.421795
0.446346
0.478989
0.518027
0.564317
0.621975
0.706359
0.814937
0.991614
3.13406
3.26218
3.24994
3.19605
3.00933
2.36639
0.912954
0.530974
0.479091
0.410643
0.440693
0.440309
0.428388
0.43073
0.432491
0.441016
0.450479
0.475048
0.50711
0.551599
0.601939
0.661518
0.744389
0.847584
0.991847
3.13716
3.2687
3.25879
3.21781
3.08015
2.59197
1.32979
0.501692
0.557679
0.418605
0.467017
0.477674
0.465835
0.466618
0.466375
0.472233
0.480581
0.501119
0.533295
0.579518
0.633756
0.694087
0.775708
0.871089
0.985174
3.13922
3.27353
3.26556
3.23496
3.13446
2.77801
1.73817
0.479901
0.605668
0.434685
0.498681
0.512103
0.505559
0.502355
0.500864
0.502483
0.514112
0.526113
0.557303
0.599487
0.657491
0.717731
0.795163
0.880132
0.967321
3.14016
3.27684
3.27065
3.24846
3.17586
2.92286
2.09919
0.61394
0.629698
0.485056
0.530203
0.54235
0.542498
0.538557
0.534748
0.533918
0.544547
0.550567
0.577023
0.615599
0.671442
0.729843
0.799355
0.873559
0.951037
3.13995
3.27888
3.27454
3.25911
3.20772
3.03308
2.41236
0.96259
0.643048
0.564371
0.550255
0.567581
0.57362
0.57328
0.570287
0.565676
0.572792
0.580766
0.595844
0.630399
0.67656
0.732125
0.796304
0.86614
0.939748
3.1388
3.28018
3.27763
3.26685
3.2302
3.1114
2.69145
1.50757
0.628116
0.64033
0.55896
0.590405
0.602736
0.605886
0.606645
0.597091
0.601441
0.611696
0.614977
0.641546
0.683466
0.733104
0.79179
0.861128
0.931743
3.13719
3.28121
3.27978
3.27182
3.2458
3.16488
2.88475
1.99775
0.669788
0.690147
0.591488
0.620553
0.632209
0.638495
0.642963
0.632424
0.629466
0.635828
0.641696
0.654503
0.690555
0.736115
0.788481
0.851649
0.922307
3.13587
3.28183
3.28073
3.27595
3.25896
3.20499
3.0222
2.37807
0.960865
0.730132
0.653564
0.656194
0.6619
0.666519
0.679483
0.670358
0.657224
0.659531
0.669475
0.672265
0.697263
0.738452
0.786747
0.841532
0.906941
3.13517
3.28172
3.28203
3.27939
3.2685
3.23372
3.12027
2.71002
1.50385
0.754637
0.718307
0.69143
0.694652
0.694642
0.708462
0.707818
0.68852
0.683711
0.689519
0.698795
0.70672
0.74009
0.784838
0.835313
0.891341
3.13479
3.28132
3.28331
3.28205
3.27518
3.25291
3.18282
2.94147
2.12709
0.896004
0.762732
0.739202
0.733977
0.728085
0.728543
0.739359
0.720516
0.708445
0.710709
0.719992
0.725348
0.744224
0.782739
0.830701
0.882592
3.13464
3.28093
3.28446
3.28391
3.2798
3.26603
3.22323
3.08153
2.57231
1.29014
0.821789
0.788135
0.779096
0.770424
0.755866
0.759734
0.749589
0.738034
0.733206
0.738593
0.751956
0.758345
0.784586
0.827263
0.87714
3.13453
3.28067
3.28528
3.28507
3.28282
3.27477
3.24966
3.16977
2.88794
1.93728
0.938509
0.829504
0.825539
0.81476
0.792166
0.779925
0.781594
0.769569
0.759778
0.761846
0.772495
0.788811
0.797303
0.829021
0.874012
3.13447
3.28052
3.28579
3.28577
3.28475
3.28028
3.2659
3.22156
3.07441
2.5378
1.32256
0.893853
0.875091
0.859283
0.839091
0.813375
0.811586
0.802032
0.791512
0.78605
0.796168
0.813717
0.832571
0.842267
0.8763
3.13444
3.28045
3.28607
3.28621
3.28594
3.28364
3.27579
3.25168
3.17558
2.90779
2.00197
1.04572
0.926249
0.90851
0.889854
0.861143
0.840967
0.841568
0.825932
0.816359
0.818598
0.837625
0.862304
0.884489
0.892533
3.13443
3.28042
3.28622
3.28648
3.28656
3.28555
3.28144
3.2687
3.23043
3.10557
2.64555
1.52126
1.00625
0.966756
0.944278
0.91963
0.885582
0.877538
0.866691
0.850749
0.846596
0.86123
0.885354
0.916244
0.941182
3.13442
3.28044
3.28622
3.28664
3.28694
3.28658
3.28447
3.27784
3.25862
3.20061
3.00059
2.28299
1.27539
1.03951
1.00604
0.979904
0.946505
0.915861
0.913073
0.893121
0.878314
0.886773
0.912655
0.942334
0.976704
3.13442
3.28045
3.28621
3.28672
3.28712
3.28707
3.28594
3.28234
3.27265
3.24566
3.16169
2.86201
1.93796
1.19276
1.07768
1.04355
1.01329
0.97185
0.955589
0.94011
0.918455
0.91348
0.937587
0.970758
1.00547
3.13442
3.28046
3.28621
3.28675
3.28716
3.28727
3.28656
3.28423
3.27903
3.26623
3.2302
3.11487
2.69352
1.6986
1.18856
1.11525
1.0798
1.04133
1.00018
0.989607
0.966772
0.949967
0.96239
0.996693
1.03289
3.13442
3.28046
3.28621
3.28675
3.28717
3.28732
3.28676
3.28475
3.28172
3.27504
3.25816
3.21151
3.06191
2.51641
1.5832
1.21361
1.14896
1.1095
1.06166
1.03399
1.01524
0.996607
0.994271
1.0207
1.05831
3.13442
3.28046
3.28621
3.28675
3.28717
3.28732
3.28679
3.28485
3.28253
3.27832
3.26864
3.24682
3.19066
3.01016
2.38305
1.55689
1.24096
1.17576
1.13061
1.07862
1.0662
1.04627
1.03838
1.04723
1.08088
3.13442
3.28046
3.28621
3.28675
3.28717
3.28732
3.28679
3.28485
3.28249
3.27887
3.271
3.25946
3.23357
3.16707
2.96585
2.3275
1.57797
1.25599
1.19355
1.13904
1.11045
1.09779
1.08438
1.08472
1.10176
3.13442
3.28046
3.28621
3.28675
3.28717
3.28732
3.28679
3.28485
3.28249
3.27889
3.27109
3.26212
3.24566
3.21141
3.13561
2.93256
2.34179
1.62575
1.26592
1.19756
1.15621
1.14488
1.13135
1.12294
1.12851
3.13442
3.28046
3.28621
3.28675
3.28717
3.28732
3.28679
3.28485
3.28249
3.27889
3.2711
3.26217
3.24695
3.21811
3.17515
3.08636
2.88483
2.39576
1.71603
1.32557
1.20517
1.17895
1.17044
1.15764
1.15503
3.13442
3.28046
3.28621
3.28675
3.28717
3.28732
3.28679
3.28485
3.28249
3.27889
3.2711
3.26217
3.247
3.21807
3.17917
3.10654
2.98171
2.74425
2.3303
1.87313
1.53066
1.30337
1.20362
1.17719
1.17438
3.13442
3.28046
3.28621
3.28675
3.28717
3.28732
3.28679
3.28485
3.28249
3.27889
3.2711
3.26217
3.247
3.21805
3.17928
3.1065
2.98936
2.77566
2.44112
2.09775
1.82771
1.64451
1.48234
1.30418
1.19943
3.13442
3.28046
3.28621
3.28675
3.28717
3.28732
3.28679
3.28485
3.2825
3.27889
3.2711
3.26217
3.24701
3.21806
3.17931
3.10652
2.98964
2.77658
2.44724
2.11536
1.86971
1.73351
1.64212
1.55345
1.43843
3.13442
3.28046
3.28621
3.28675
3.28717
3.28732
3.28679
3.28485
3.28249
3.27889
3.2711
3.26217
3.247
3.21805
3.17929
3.1065
2.98961
2.77649
2.44741
2.11624
1.87257
1.74147
1.66694
1.61757
1.57093
3.13442
3.28046
3.28621
3.28675
3.28717
3.28732
3.28679
3.28485
3.28249
3.27889
3.2711
3.26218
3.24701
3.21807
3.17932
3.10654
2.9897
2.77663
2.44768
2.11672
1.87327
1.7427
1.67005
1.62608
1.59467
3.13442
3.28046
3.28621
3.28675
3.28717
3.28732
3.28679
3.28485
3.2825
3.27889
3.2711
3.26217
3.247
3.21805
3.1793
3.1065
2.98962
2.77655
2.44749
2.11629
1.87276
1.74208
1.66938
1.62571
1.59586
3.13442
3.28045
3.28621
3.28675
3.28717
3.28732
3.28679
3.28485
3.2825
3.27889
3.2711
3.26217
3.24701
3.21806
3.17931
3.10652
2.98965
2.77661
2.44754
2.11631
1.87279
1.74212
1.66943
1.62581
1.59614
3.13442
3.28046
3.28621
3.28675
3.28717
3.28732
3.28679
3.28485
3.28249
3.27889
3.27111
3.26218
3.24701
3.21806
3.17931
3.10654
2.9897
2.77663
2.44762
2.11662