/*--------------------------------*- C++ -*----------------------------------*\
| =========                 |                                                 |
| \\      /  F ield         | OpenFOAM: The Open Source CFD Toolbox           |
|  \\    /   O peration     | Version:  4.1                                   |
|   \\  /    A nd           | Web:      www.OpenFOAM.org                      |
|    \\/     M anipulation  |                                                 |
\*---------------------------------------------------------------------------*/
FoamFile
{
    version     2.0;
    format      ascii;
    class       volScalarField;
    location    "0.56";
    object      p;
}
// * * * * * * * * * * * * * * * * * * * * * * * * * * * * * * * * * * * * * //

dimensions      [1 -1 -2 0 0 0 0];

internalField   nonuniform List<scalar> 
52500
(
0.0919511
0.0741864
0.0795285
0.106084
0.238072
0.953517
1.86617
1.10444
0.992513
1.09244
1.00488
0.927083
0.857101
0.789139
0.727569
0.674651
0.63004
0.591797
0.559181
0.538938
0.526251
0.522492
0.527506
0.537138
0.550756
0.0919184
0.0739809
0.0792081
0.10515
0.234065
0.93176
1.87247
1.11181
0.990444
1.09441
1.00749
0.928896
0.859231
0.79115
0.729327
0.676181
0.631099
0.592595
0.560063
0.539933
0.527268
0.523705
0.52919
0.539591
0.554163
0.0918496
0.0735488
0.0785277
0.103124
0.224978
0.879053
1.88818
1.12573
0.982929
1.09717
1.01104
0.930247
0.861059
0.79273
0.730818
0.677311
0.631392
0.592401
0.560004
0.539849
0.527126
0.523647
0.529299
0.540744
0.556909
0.0917494
0.0729189
0.0775411
0.100214
0.211833
0.801898
1.9069
1.14866
0.969328
1.10164
1.01679
0.93233
0.863898
0.795455
0.733104
0.678609
0.631763
0.592004
0.560019
0.539713
0.526941
0.523322
0.528988
0.541575
0.559518
0.0916251
0.0721396
0.0763294
0.0966912
0.195462
0.708454
1.91804
1.18336
0.953385
1.10435
1.02451
0.935028
0.867512
0.799031
0.735722
0.680309
0.632156
0.591783
0.560377
0.539312
0.526461
0.522578
0.528398
0.541517
0.560613
0.0914831
0.0712513
0.0749645
0.0927695
0.177313
0.608683
1.90725
1.23408
0.940826
1.10113
1.03438
0.938657
0.872071
0.803373
0.738824
0.6821
0.632942
0.592133
0.560816
0.538677
0.525433
0.521266
0.527021
0.540551
0.559894
0.0913303
0.0702967
0.0735208
0.0887267
0.158902
0.513543
1.85077
1.30515
0.933777
1.08917
1.0465
0.943489
0.877526
0.808395
0.742241
0.684166
0.634129
0.593128
0.561282
0.537893
0.523655
0.518815
0.524227
0.537646
0.557717
0.0911733
0.0693134
0.072067
0.0848277
0.141459
0.422745
1.73498
1.39864
0.934901
1.06854
1.06088
0.949788
0.883124
0.814337
0.746108
0.686562
0.635985
0.594574
0.561905
0.53697
0.521209
0.514748
0.519061
0.530933
0.551186
0.0910184
0.0683311
0.0706458
0.0812007
0.126177
0.347707
1.53843
1.52033
0.950131
1.04032
1.0755
0.958056
0.888511
0.820644
0.750194
0.689615
0.638709
0.59648
0.562464
0.535857
0.518051
0.508499
0.510227
0.517078
0.53388
0.0908709
0.067381
0.0692923
0.0778791
0.113061
0.285867
1.26113
1.66837
0.983369
1.00618
1.08615
0.969747
0.893441
0.826397
0.754727
0.693468
0.641884
0.598869
0.563097
0.53455
0.514316
0.500715
0.495294
0.493423
0.494878
0.0919525
0.0741922
0.0795371
0.106107
0.238164
0.954005
1.86575
1.10432
0.99256
1.09247
1.00482
0.927013
0.857034
0.789086
0.727528
0.674621
0.630018
0.591784
0.559178
0.538942
0.526259
0.522502
0.527517
0.537148
0.550762
0.0919195
0.0739854
0.0792144
0.105165
0.234114
0.931944
1.87235
1.11154
0.990448
1.09456
1.00747
0.92882
0.859154
0.791089
0.729281
0.676148
0.631077
0.592581
0.560056
0.539933
0.527272
0.523712
0.529199
0.5396
0.554171
0.0918509
0.0735539
0.0785351
0.103142
0.225043
0.87932
1.88812
1.12554
0.982945
1.09724
1.01099
0.930202
0.860998
0.792676
0.730774
0.677278
0.631368
0.592384
0.559993
0.539846
0.527127
0.523652
0.529305
0.540753
0.55692
0.0917506
0.0729244
0.0775491
0.100235
0.211919
0.802372
1.90665
1.14848
0.969463
1.10157
1.0167
0.932266
0.863812
0.795374
0.733048
0.678583
0.631722
0.591981
0.559998
0.539705
0.526938
0.523322
0.52899
0.541581
0.559529
0.0916262
0.0721448
0.076337
0.0967115
0.195548
0.708929
1.91779
1.18309
0.953553
1.10429
1.02438
0.934981
0.867417
0.798932
0.735668
0.680272
0.632117
0.591752
0.56035
0.539295
0.526451
0.522572
0.528395
0.541519
0.560622
0.0914841
0.071256
0.0749713
0.092788
0.177393
0.609074
1.90721
1.23371
0.940959
1.10109
1.03426
0.938617
0.871991
0.803302
0.738788
0.682056
0.632891
0.592096
0.560783
0.538653
0.525417
0.521254
0.527013
0.540552
0.5599
0.0913312
0.0703007
0.0735267
0.0887423
0.158969
0.513865
1.85095
1.30476
0.933866
1.08917
1.04632
0.943469
0.877443
0.808341
0.742203
0.684125
0.634087
0.593091
0.561247
0.537865
0.523632
0.518798
0.524212
0.537643
0.557721
0.091174
0.0693166
0.0720718
0.0848401
0.141512
0.423
1.73534
1.39824
0.934904
1.06855
1.06071
0.949739
0.88307
0.814269
0.746054
0.68651
0.635947
0.594534
0.561868
0.536936
0.521178
0.514722
0.519039
0.530923
0.55119
0.091019
0.0683336
0.0706495
0.0812102
0.126216
0.347894
1.53904
1.51985
0.950012
1.04034
1.07535
0.958004
0.888475
0.820591
0.750149
0.689569
0.638666
0.596439
0.562424
0.53582
0.518014
0.508466
0.510201
0.51706
0.53388
0.0908714
0.0673828
0.0692949
0.0778859
0.113088
0.286003
1.26186
1.66788
0.983196
1.00622
1.08604
0.969657
0.893409
0.826348
0.754696
0.693433
0.641844
0.598831
0.563059
0.534513
0.514277
0.500673
0.495261
0.493405
0.494873
0.091952
0.0741896
0.0795331
0.106096
0.23812
0.953764
1.86595
1.1044
0.992604
1.09235
1.00481
0.92704
0.857051
0.789098
0.727532
0.674617
0.630008
0.591765
0.559152
0.538913
0.526234
0.522487
0.527513
0.537156
0.550785
0.0919191
0.0739836
0.0792119
0.10516
0.234101
0.931924
1.87235
1.11172
0.990487
1.09438
1.00744
0.928848
0.859177
0.791105
0.729287
0.676143
0.631069
0.592562
0.560031
0.539907
0.527248
0.523698
0.529195
0.53961
0.554194
0.0918503
0.0735514
0.0785314
0.103133
0.225011
0.879197
1.88813
1.12563
0.982921
1.09719
1.01099
0.930196
0.861
0.792678
0.730775
0.677275
0.631359
0.592369
0.559972
0.539822
0.527104
0.523638
0.529299
0.540763
0.556942
0.0917501
0.0729215
0.0775448
0.100224
0.211871
0.802102
1.90683
1.14856
0.969283
1.10168
1.01676
0.932272
0.863842
0.795407
0.733059
0.678572
0.631725
0.591971
0.559983
0.539684
0.526917
0.523309
0.528985
0.541592
0.559552
0.0916257
0.072142
0.0763329
0.0967003
0.1955
0.708658
1.91798
1.18323
0.953335
1.1044
1.02449
0.934965
0.867443
0.798967
0.735671
0.680269
0.632118
0.591746
0.560339
0.539278
0.526432
0.52256
0.52839
0.54153
0.560644
0.0914837
0.0712536
0.0749678
0.0927782
0.17735
0.608862
1.90727
1.2339
0.940785
1.10118
1.0344
0.938611
0.87202
0.80332
0.73878
0.682059
0.632901
0.592093
0.560775
0.538639
0.5254
0.521243
0.527009
0.540563
0.559922
0.091331
0.0702989
0.073524
0.0887349
0.158936
0.513704
1.85086
1.30495
0.933731
1.0892
1.04646
0.943474
0.877489
0.808348
0.742199
0.684126
0.634089
0.593088
0.56124
0.537852
0.523617
0.518789
0.524208
0.537653
0.557743
0.0911739
0.0693155
0.07207
0.084835
0.141489
0.422885
1.73517
1.39841
0.934852
1.06855
1.06083
0.949767
0.8831
0.814285
0.74606
0.686518
0.635946
0.594532
0.561861
0.536924
0.521165
0.514716
0.519037
0.530933
0.55121
0.0910189
0.0683329
0.0706484
0.0812069
0.126202
0.34782
1.53879
1.52003
0.950062
1.04031
1.07543
0.958024
0.888494
0.820599
0.750149
0.689568
0.638666
0.596438
0.562419
0.535809
0.518003
0.508461
0.510203
0.51707
0.533899
0.0908714
0.0673825
0.0692944
0.0778842
0.11308
0.285957
1.2616
1.66804
0.983251
1.00617
1.08607
0.969692
0.893416
0.82635
0.75469
0.693433
0.641846
0.598828
0.563052
0.534502
0.514268
0.50067
0.495265
0.493416
0.494888
0.091952
0.0741899
0.0795337
0.106098
0.238128
0.953808
1.86592
1.1044
0.992628
1.09236
1.00481
0.927034
0.857043
0.789091
0.727528
0.674616
0.63001
0.591772
0.559162
0.538927
0.526251
0.522512
0.527545
0.537194
0.550829
0.0919192
0.0739839
0.0792124
0.105161
0.234106
0.93195
1.87234
1.11171
0.990502
1.0944
1.00744
0.92884
0.859168
0.791097
0.729282
0.676141
0.631072
0.592566
0.560039
0.539919
0.527265
0.523722
0.529226
0.539648
0.554239
0.0918504
0.0735517
0.0785318
0.103134
0.225016
0.87922
1.88813
1.12562
0.982933
1.0972
1.01099
0.930192
0.860996
0.792677
0.730772
0.677275
0.63136
0.592373
0.559978
0.539833
0.52712
0.523662
0.529329
0.540801
0.556987
0.0917501
0.0729217
0.0775452
0.100225
0.211876
0.802123
1.90683
1.14854
0.969319
1.10167
1.01674
0.932264
0.863833
0.795398
0.733056
0.678575
0.631722
0.591974
0.559986
0.539692
0.52693
0.523331
0.529013
0.541631
0.559596
0.0916258
0.0721424
0.0763334
0.0967017
0.195506
0.708694
1.91796
1.18322
0.953385
1.10438
1.02446
0.934979
0.867441
0.798961
0.735671
0.68027
0.632114
0.591744
0.560338
0.539283
0.526443
0.52258
0.528417
0.541568
0.560687
0.0914838
0.0712539
0.0749683
0.0927795
0.177356
0.608891
1.90724
1.23387
0.940829
1.10114
1.03436
0.938626
0.872021
0.803321
0.738784
0.682059
0.632895
0.592088
0.560772
0.53864
0.525408
0.521262
0.527033
0.540599
0.559964
0.091331
0.0702991
0.0735242
0.0887356
0.158939
0.513718
1.85085
1.30493
0.933776
1.08917
1.04643
0.943485
0.877481
0.808344
0.742201
0.684126
0.634085
0.593083
0.561235
0.537851
0.523623
0.518804
0.524229
0.537687
0.557783
0.0911739
0.0693154
0.07207
0.0848351
0.141489
0.422886
1.73516
1.3984
0.934866
1.06852
1.06082
0.949765
0.883089
0.81428
0.746051
0.686507
0.635939
0.594525
0.561855
0.536921
0.521168
0.514729
0.519054
0.530963
0.551248
0.0910189
0.0683328
0.0706482
0.0812066
0.1262
0.347815
1.53877
1.52001
0.950031
1.04029
1.07544
0.958027
0.888485
0.820598
0.750144
0.689565
0.638657
0.596431
0.562411
0.535804
0.518003
0.50847
0.510218
0.517093
0.533932
0.0908713
0.0673823
0.0692942
0.0778837
0.113078
0.285949
1.26155
1.66804
0.983216
1.00616
1.0861
0.969685
0.893413
0.826351
0.75469
0.693431
0.641837
0.598821
0.563045
0.534496
0.514266
0.500675
0.495278
0.493434
0.494914
0.091952
0.0741892
0.0795325
0.106093
0.238105
0.953654
1.86592
1.10442
0.992628
1.09237
1.00483
0.927057
0.857063
0.789103
0.727534
0.674617
0.630009
0.591769
0.559158
0.53892
0.526243
0.522501
0.527532
0.537179
0.550809
0.0919191
0.0739832
0.0792111
0.105156
0.234083
0.931805
1.87234
1.11174
0.990507
1.09441
1.00745
0.928862
0.85919
0.791112
0.72929
0.676144
0.631072
0.592564
0.560035
0.539913
0.527257
0.523712
0.529213
0.539632
0.554217
0.0918503
0.0735509
0.0785305
0.10313
0.224996
0.879102
1.88811
1.12566
0.982939
1.0972
1.011
0.930208
0.861018
0.792697
0.730784
0.677279
0.631361
0.592371
0.559974
0.539827
0.527112
0.523652
0.529317
0.540785
0.556966
0.09175
0.072921
0.0775439
0.100221
0.211855
0.801986
1.90683
1.14858
0.969327
1.10165
1.01674
0.932282
0.863854
0.795419
0.733071
0.678583
0.631723
0.591973
0.559982
0.539687
0.526924
0.523322
0.529002
0.541614
0.559574
0.0916257
0.0721416
0.0763322
0.0966978
0.195487
0.708566
1.91794
1.18326
0.953393
1.10435
1.02444
0.934996
0.867465
0.798985
0.735689
0.68028
0.632118
0.591744
0.560336
0.539279
0.526437
0.522572
0.528406
0.541552
0.560665
0.0914837
0.0712532
0.0749671
0.0927759
0.177338
0.608793
1.90718
1.23395
0.940819
1.1011
1.0343
0.938625
0.872035
0.803345
0.738805
0.682073
0.632901
0.59209
0.56077
0.538637
0.525403
0.521254
0.527023
0.540583
0.559944
0.0913309
0.0702983
0.073523
0.0887322
0.158924
0.513636
1.85076
1.305
0.933761
1.08911
1.04642
0.943459
0.87748
0.808364
0.742225
0.684142
0.634094
0.593086
0.561234
0.537849
0.523619
0.518797
0.52422
0.537672
0.557763
0.0911738
0.0693147
0.0720688
0.084832
0.141476
0.422818
1.73505
1.39849
0.934848
1.06849
1.06082
0.949731
0.883071
0.8143
0.746075
0.686525
0.635949
0.594529
0.561855
0.53692
0.521165
0.514722
0.519044
0.530948
0.551229
0.0910188
0.0683321
0.0706472
0.0812041
0.12619
0.347764
1.53859
1.52014
0.950011
1.04028
1.07544
0.958005
0.888464
0.820614
0.750169
0.689585
0.638669
0.596436
0.562412
0.535804
0.518001
0.508464
0.510209
0.51708
0.533917
0.0908713
0.0673818
0.0692934
0.0778817
0.11307
0.28591
1.26134
1.66818
0.983232
1.00615
1.08613
0.969683
0.893402
0.826368
0.754714
0.693448
0.641847
0.598826
0.563047
0.534496
0.514264
0.500671
0.495271
0.493422
0.494903
0.091952
0.0741896
0.0795331
0.106095
0.238115
0.95372
1.8659
1.10441
0.99264
1.09236
1.00482
0.927045
0.857049
0.789091
0.727525
0.674611
0.630005
0.591767
0.559157
0.538922
0.526247
0.522508
0.527541
0.537191
0.550826
0.0919192
0.0739835
0.0792117
0.105158
0.234092
0.931862
1.87233
1.11173
0.990517
1.0944
1.00744
0.92885
0.859177
0.7911
0.72928
0.676137
0.631068
0.592561
0.560034
0.539914
0.527261
0.523719
0.529222
0.539644
0.554235
0.0918503
0.0735513
0.0785311
0.103132
0.225004
0.879147
1.88812
1.12565
0.982946
1.09719
1.01098
0.930196
0.861005
0.792684
0.730774
0.677272
0.631356
0.592368
0.559973
0.539829
0.527116
0.523658
0.529326
0.540797
0.556982
0.0917501
0.0729213
0.0775445
0.100223
0.211863
0.802039
1.90683
1.14856
0.969334
1.10164
1.01673
0.93227
0.863841
0.795407
0.733061
0.678575
0.631719
0.59197
0.559983
0.539689
0.526927
0.523328
0.52901
0.541627
0.55959
0.0916257
0.0721419
0.0763326
0.0966993
0.195494
0.708614
1.91795
1.18324
0.953401
1.10434
1.02443
0.934985
0.867453
0.798973
0.735679
0.680273
0.632113
0.591742
0.560337
0.53928
0.526441
0.522578
0.528414
0.541564
0.56068
0.0914837
0.0712534
0.0749675
0.0927772
0.177344
0.608828
1.9072
1.23393
0.940825
1.10109
1.03429
0.938616
0.872024
0.803334
0.738795
0.682066
0.632897
0.592088
0.560771
0.538639
0.525407
0.52126
0.527031
0.540595
0.559958
0.0913309
0.0702985
0.0735234
0.0887332
0.158929
0.513663
1.8508
1.30498
0.933765
1.08911
1.04641
0.94345
0.877471
0.808354
0.742215
0.684135
0.634089
0.593084
0.561235
0.537851
0.523622
0.518804
0.524228
0.537683
0.557776
0.0911738
0.0693148
0.0720691
0.0848328
0.14148
0.422838
1.73509
1.39847
0.934849
1.06849
1.06081
0.949723
0.883062
0.81429
0.746066
0.686518
0.635945
0.594528
0.561856
0.536922
0.521168
0.514729
0.519053
0.530959
0.55124
0.0910188
0.0683323
0.0706474
0.0812047
0.126193
0.347778
1.53864
1.52011
0.950008
1.04028
1.07543
0.957997
0.888456
0.820605
0.750159
0.689579
0.638666
0.596435
0.562413
0.535806
0.518004
0.50847
0.510217
0.517089
0.533924
0.0908713
0.0673819
0.0692935
0.0778821
0.113072
0.28592
1.2614
1.66815
0.983227
1.00615
1.08612
0.969677
0.893395
0.826359
0.754706
0.693443
0.641845
0.598826
0.563048
0.534499
0.514268
0.500676
0.495277
0.49343
0.494906
0.091952
0.0741899
0.0795337
0.106098
0.238128
0.953808
1.86592
1.1044
0.992628
1.09236
1.00481
0.927034
0.857043
0.789091
0.727528
0.674616
0.63001
0.591772
0.559162
0.538927
0.526251
0.522512
0.527545
0.537194
0.550829
0.0919192
0.0739839
0.0792124
0.105161
0.234106
0.931951
1.87234
1.11171
0.990502
1.0944
1.00744
0.92884
0.859168
0.791097
0.729282
0.676141
0.631072
0.592566
0.560039
0.539919
0.527265
0.523722
0.529226
0.539648
0.554239
0.0918504
0.0735517
0.0785318
0.103134
0.225016
0.87922
1.88813
1.12562
0.982933
1.0972
1.01099
0.930191
0.860996
0.792677
0.730772
0.677274
0.63136
0.592373
0.559978
0.539833
0.52712
0.523662
0.529329
0.540802
0.556988
0.0917501
0.0729217
0.0775452
0.100225
0.211876
0.802124
1.90683
1.14854
0.969319
1.10167
1.01674
0.932264
0.863833
0.795397
0.733056
0.678575
0.631722
0.591974
0.559986
0.539692
0.52693
0.523331
0.529013
0.541631
0.559597
0.0916258
0.0721424
0.0763334
0.0967017
0.195506
0.708695
1.91796
1.18322
0.953385
1.10438
1.02446
0.934979
0.867441
0.798961
0.735671
0.68027
0.632114
0.591744
0.560338
0.539283
0.526443
0.52258
0.528417
0.541568
0.560687
0.0914838
0.0712539
0.0749683
0.0927795
0.177356
0.608891
1.90724
1.23387
0.940829
1.10114
1.03436
0.938626
0.872021
0.803321
0.738784
0.682059
0.632894
0.592088
0.560772
0.53864
0.525408
0.521262
0.527033
0.540599
0.559965
0.091331
0.0702991
0.0735242
0.0887356
0.158939
0.513718
1.85085
1.30493
0.933776
1.08917
1.04643
0.943485
0.877481
0.808344
0.742201
0.684126
0.634085
0.593083
0.561235
0.537851
0.523623
0.518805
0.524229
0.537687
0.557783
0.0911739
0.0693154
0.07207
0.0848351
0.14149
0.422887
1.73516
1.3984
0.934866
1.06852
1.06082
0.949765
0.883089
0.81428
0.746051
0.686507
0.635939
0.594525
0.561855
0.536921
0.521168
0.514729
0.519054
0.530963
0.551248
0.0910189
0.0683328
0.0706482
0.0812066
0.1262
0.347815
1.53877
1.52001
0.950031
1.04029
1.07544
0.958027
0.888485
0.820598
0.750144
0.689565
0.638657
0.596431
0.562411
0.535804
0.518003
0.50847
0.510218
0.517093
0.533932
0.0908713
0.0673823
0.0692942
0.0778837
0.113078
0.285949
1.26155
1.66804
0.983216
1.00616
1.0861
0.969685
0.893412
0.826351
0.75469
0.69343
0.641837
0.598821
0.563045
0.534496
0.514266
0.500675
0.495278
0.493434
0.494914
0.091952
0.0741896
0.0795331
0.106096
0.23812
0.953764
1.86595
1.1044
0.992604
1.09235
1.00481
0.92704
0.857052
0.789098
0.727532
0.674617
0.630008
0.591765
0.559152
0.538913
0.526234
0.522487
0.527513
0.537156
0.550785
0.0919191
0.0739836
0.0792119
0.10516
0.234101
0.931924
1.87235
1.11172
0.990487
1.09438
1.00744
0.928848
0.859177
0.791105
0.729287
0.676143
0.631069
0.592562
0.560031
0.539907
0.527248
0.523698
0.529195
0.53961
0.554194
0.0918503
0.0735514
0.0785314
0.103133
0.225011
0.879197
1.88812
1.12563
0.982921
1.09719
1.01099
0.930196
0.861
0.792678
0.730775
0.677275
0.631359
0.592369
0.559972
0.539822
0.527104
0.523638
0.529299
0.540763
0.556942
0.0917501
0.0729215
0.0775448
0.100224
0.211871
0.802102
1.90683
1.14856
0.969283
1.10168
1.01676
0.932272
0.863842
0.795407
0.733059
0.678572
0.631726
0.591971
0.559983
0.539684
0.526917
0.523309
0.528985
0.541592
0.559552
0.0916257
0.072142
0.0763329
0.0967003
0.1955
0.708658
1.91798
1.18323
0.953335
1.1044
1.02449
0.934965
0.867443
0.798967
0.735671
0.680269
0.632118
0.591746
0.560339
0.539278
0.526432
0.52256
0.52839
0.54153
0.560644
0.0914837
0.0712536
0.0749678
0.0927782
0.17735
0.608862
1.90727
1.2339
0.940785
1.10118
1.0344
0.938611
0.87202
0.80332
0.73878
0.682059
0.632901
0.592093
0.560775
0.538639
0.5254
0.521244
0.527009
0.540563
0.559922
0.091331
0.0702989
0.073524
0.0887349
0.158936
0.513704
1.85086
1.30495
0.933731
1.0892
1.04646
0.943474
0.877489
0.808348
0.742199
0.684126
0.634089
0.593088
0.56124
0.537852
0.523617
0.518789
0.524208
0.537653
0.557743
0.0911739
0.0693155
0.07207
0.084835
0.141489
0.422885
1.73517
1.39841
0.934852
1.06855
1.06083
0.949767
0.8831
0.814285
0.74606
0.686518
0.635946
0.594532
0.561861
0.536924
0.521165
0.514716
0.519037
0.530933
0.55121
0.0910189
0.0683329
0.0706484
0.0812069
0.126202
0.34782
1.53879
1.52003
0.950062
1.04031
1.07543
0.958024
0.888494
0.820599
0.750149
0.689568
0.638666
0.596438
0.562419
0.535809
0.518003
0.508461
0.510203
0.51707
0.533899
0.0908714
0.0673825
0.0692944
0.0778842
0.11308
0.285957
1.2616
1.66804
0.983251
1.00617
1.08607
0.969692
0.893416
0.82635
0.75469
0.693433
0.641846
0.598828
0.563052
0.534502
0.514268
0.50067
0.495265
0.493416
0.494888
0.0919525
0.0741922
0.079537
0.106107
0.238164
0.954003
1.86575
1.10432
0.99256
1.09247
1.00482
0.927013
0.857034
0.789086
0.727528
0.674621
0.630018
0.591784
0.559178
0.538942
0.526259
0.522501
0.527516
0.537147
0.550762
0.0919195
0.0739854
0.0792144
0.105165
0.234113
0.931943
1.87235
1.11154
0.990447
1.09457
1.00747
0.92882
0.859154
0.791089
0.729281
0.676148
0.631077
0.592581
0.560056
0.539933
0.527272
0.523712
0.529199
0.5396
0.554171
0.0918509
0.0735539
0.078535
0.103142
0.225043
0.879319
1.88813
1.12554
0.982945
1.09724
1.01099
0.930202
0.860999
0.792677
0.730774
0.677278
0.631368
0.592384
0.559993
0.539846
0.527127
0.523652
0.529304
0.540752
0.556919
0.0917506
0.0729243
0.0775491
0.100235
0.211919
0.802371
1.90665
1.14848
0.969463
1.10157
1.0167
0.932267
0.863812
0.795374
0.733048
0.678583
0.631722
0.591981
0.559998
0.539705
0.526938
0.523322
0.528989
0.541581
0.559529
0.0916262
0.0721448
0.076337
0.0967114
0.195548
0.708928
1.91779
1.18309
0.953553
1.10429
1.02438
0.934981
0.867417
0.798932
0.735668
0.680273
0.632117
0.591752
0.56035
0.539295
0.526451
0.522572
0.528395
0.541519
0.560622
0.0914841
0.071256
0.0749713
0.0927879
0.177393
0.609073
1.90721
1.23371
0.940959
1.10109
1.03426
0.938617
0.871991
0.803302
0.738788
0.682056
0.632891
0.592096
0.560783
0.538653
0.525416
0.521254
0.527013
0.540551
0.5599
0.0913312
0.0703007
0.0735266
0.0887423
0.158969
0.513864
1.85095
1.30476
0.933866
1.08917
1.04632
0.943469
0.877443
0.808341
0.742203
0.684125
0.634087
0.593091
0.561247
0.537865
0.523632
0.518797
0.524212
0.537642
0.557721
0.091174
0.0693166
0.0720718
0.0848401
0.141512
0.422999
1.73534
1.39824
0.934904
1.06855
1.06071
0.949739
0.88307
0.814269
0.746054
0.68651
0.635947
0.594533
0.561868
0.536936
0.521178
0.514722
0.519038
0.530922
0.551189
0.091019
0.0683336
0.0706495
0.0812101
0.126216
0.347894
1.53904
1.51985
0.950012
1.04034
1.07535
0.958004
0.888475
0.820591
0.750149
0.689569
0.638666
0.596439
0.562424
0.53582
0.518014
0.508465
0.5102
0.517059
0.53388
0.0908714
0.0673828
0.0692949
0.0778859
0.113088
0.286002
1.26186
1.66788
0.983195
1.00622
1.08604
0.969657
0.893409
0.826348
0.754696
0.693433
0.641844
0.598831
0.563059
0.534512
0.514277
0.500673
0.49526
0.493405
0.494873
0.0919511
0.0741864
0.0795285
0.106084
0.238078
0.953573
1.86609
1.10455
0.992578
1.09239
1.00491
0.927107
0.857116
0.78914
0.727571
0.674657
0.63005
0.591808
0.559196
0.538947
0.526254
0.522483
0.527485
0.537106
0.550706
0.0919182
0.0739802
0.0792071
0.105147
0.234057
0.931731
1.87255
1.11185
0.99039
1.09446
1.00752
0.9289
0.859241
0.791155
0.729331
0.676187
0.631104
0.592605
0.560075
0.53994
0.527269
0.523695
0.529168
0.539557
0.554112
0.0918493
0.0735477
0.078526
0.103119
0.22496
0.878972
1.88837
1.12569
0.982777
1.09735
1.01109
0.930236
0.861062
0.792742
0.730825
0.677318
0.631399
0.592409
0.560013
0.539854
0.527125
0.523637
0.529278
0.540709
0.556861
0.0917493
0.0729183
0.0775402
0.100212
0.211823
0.801842
1.90709
1.14864
0.96921
1.10177
1.01681
0.932325
0.863905
0.795463
0.733115
0.678619
0.631766
0.592007
0.560018
0.539714
0.526939
0.523311
0.528968
0.54154
0.559474
0.0916252
0.0721398
0.0763297
0.0966919
0.195465
0.708491
1.91806
1.18338
0.953396
1.10441
1.02449
0.935065
0.867531
0.799038
0.735735
0.680324
0.632158
0.59178
0.560371
0.539307
0.526455
0.522566
0.528378
0.541482
0.560569
0.0914832
0.0712518
0.0749653
0.0927717
0.177323
0.608739
1.90721
1.23409
0.940898
1.1011
1.03433
0.938712
0.872095
0.803394
0.738853
0.682118
0.63294
0.592126
0.560805
0.538669
0.525427
0.521252
0.527001
0.540517
0.559847
0.0913304
0.0702972
0.0735215
0.0887288
0.158911
0.513588
1.85078
1.30514
0.933886
1.08909
1.04646
0.943527
0.877513
0.808395
0.742255
0.684174
0.634129
0.593121
0.56127
0.537883
0.523647
0.5188
0.524207
0.537614
0.557672
0.0911734
0.0693138
0.0720677
0.0848294
0.141466
0.422779
1.73504
1.39862
0.934949
1.06849
1.06084
0.949779
0.883104
0.814334
0.746098
0.68655
0.635978
0.594565
0.561892
0.536959
0.521198
0.514732
0.519041
0.530903
0.551145
0.0910185
0.0683315
0.0706464
0.0812023
0.126183
0.347737
1.53853
1.52027
0.95007
1.04027
1.07546
0.958049
0.888501
0.82065
0.750187
0.6896
0.638689
0.59647
0.56245
0.535844
0.518038
0.508484
0.510208
0.517053
0.533844
0.090871
0.0673815
0.069293
0.0778808
0.113067
0.285895
1.26128
1.66827
0.98329
1.00614
1.08613
0.969702
0.893439
0.826408
0.754734
0.693465
0.641867
0.598855
0.563083
0.534536
0.514303
0.5007
0.495278
0.493405
0.494852
0.0907344
0.066495
0.068043
0.074898
0.102019
0.233175
0.955289
1.8034
1.03446
0.972864
1.0923
0.982736
0.898194
0.831627
0.759728
0.698009
0.64577
0.601524
0.564011
0.533485
0.509956
0.491393
0.476219
0.451985
0.391625
0.0906115
0.0656954
0.0669252
0.0722937
0.0929114
0.188679
0.683768
1.87539
1.12336
0.936362
1.09142
0.998566
0.901628
0.836613
0.765477
0.7026
0.650073
0.604587
0.565586
0.532974
0.505912
0.482004
0.45719
0.420376
0.348877
0.0905051
0.0649915
0.0659564
0.0701192
0.085517
0.152541
0.488683
1.86088
1.25601
0.903074
1.07384
1.01604
0.906902
0.841828
0.771926
0.707758
0.655341
0.608246
0.568256
0.533273
0.503307
0.475179
0.444548
0.403277
0.34606
0.0904191
0.0643875
0.0651337
0.0683364
0.0798207
0.126411
0.35924
1.65315
1.41962
0.893973
1.03262
1.02585
0.91508
0.847377
0.779372
0.71469
0.66206
0.613152
0.571711
0.534523
0.503357
0.472869
0.439977
0.400931
0.348615
0.0903569
0.063886
0.0644526
0.066891
0.0753962
0.107754
0.267011
1.17007
1.59482
0.919475
0.993967
1.03019
0.930556
0.853258
0.787287
0.724348
0.669438
0.619462
0.576361
0.537648
0.504611
0.473582
0.440579
0.402613
0.356027
0.0903246
0.0634843
0.0639055
0.0657421
0.0719964
0.0946683
0.200445
0.755284
1.71953
1.00006
0.958677
1.02946
0.952668
0.86026
0.795955
0.735109
0.678075
0.627073
0.58248
0.544031
0.508569
0.476733
0.443878
0.408395
0.371691
0.0903246
0.0631742
0.0634783
0.0648403
0.0694082
0.0853274
0.154276
0.495975
1.73712
1.14391
0.917551
1.02151
0.96445
0.871553
0.806893
0.746727
0.689319
0.635461
0.590763
0.552585
0.517248
0.484516
0.452394
0.421282
0.390782
0.0903567
0.0629469
0.0631583
0.0641445
0.0674022
0.0783986
0.122828
0.354576
1.61106
1.31899
0.896018
0.986171
0.964875
0.892413
0.818443
0.758458
0.702342
0.646633
0.601076
0.562582
0.529831
0.498981
0.469601
0.440324
0.410457
0.0904102
0.0627886
0.0629333
0.0636474
0.065969
0.0734222
0.100684
0.235933
1.06714
1.46408
0.908594
0.961933
0.966847
0.917272
0.830808
0.771326
0.715929
0.659955
0.612746
0.574306
0.542405
0.513517
0.485991
0.458055
0.429483
0.0904636
0.0627003
0.0628021
0.0633022
0.0649135
0.0699833
0.0876711
0.16592
0.554241
1.49267
0.977161
0.960696
0.968754
0.930121
0.844233
0.78463
0.729693
0.676004
0.626039
0.58799
0.555678
0.527814
0.501954
0.47572
0.448873
0.0904897
0.0627399
0.062668
0.0629359
0.0639978
0.0674215
0.0790012
0.126107
0.36277
1.40672
1.14355
0.960755
0.963037
0.931143
0.862925
0.799117
0.744657
0.692245
0.642105
0.601485
0.570398
0.543092
0.518565
0.494377
0.469516
0.0904959
0.0628308
0.062469
0.0626491
0.0633504
0.0655806
0.072788
0.0996636
0.235896
1.07193
1.21366
0.975446
0.954465
0.928712
0.879817
0.813907
0.759763
0.708764
0.660253
0.616891
0.586705
0.560113
0.536382
0.513776
0.490918
0.0904963
0.0629031
0.0623194
0.0624319
0.0628863
0.0643342
0.068822
0.0841925
0.151036
0.496155
1.20667
1.01478
0.95814
0.930648
0.889418
0.830176
0.776913
0.725847
0.678213
0.636376
0.602997
0.578323
0.555657
0.534102
0.512624
0.0904936
0.062954
0.0622101
0.0622785
0.0625605
0.0634661
0.0662438
0.0753052
0.110207
0.282874
1.06966
1.05336
0.971807
0.938111
0.896797
0.849298
0.794244
0.74408
0.697094
0.657053
0.622515
0.597231
0.57636
0.555745
0.535136
0.090492
0.0629868
0.0621381
0.0621771
0.0623446
0.0628855
0.0645346
0.0696688
0.0878607
0.172463
0.649759
1.05228
0.998927
0.946814
0.906798
0.867008
0.814231
0.762702
0.716465
0.677377
0.644877
0.617496
0.597482
0.578576
0.558835
0.0904912
0.0630066
0.0620928
0.0621133
0.0622076
0.0625189
0.0634683
0.0663448
0.0757911
0.112957
0.300547
0.935901
0.995627
0.96679
0.920473
0.879586
0.833203
0.7832
0.737789
0.699552
0.668478
0.642099
0.619992
0.602841
0.584226
0.0904906
0.0630174
0.0620663
0.0620759
0.062125
0.0622928
0.0628088
0.0643768
0.06927
0.0866214
0.166207
0.565566
0.967269
0.966128
0.942285
0.895866
0.852942
0.803912
0.75986
0.723355
0.693698
0.669308
0.648243
0.628677
0.612196
0.0904902
0.063022
0.0620526
0.0620558
0.0620788
0.0621628
0.0624287
0.0632382
0.0656995
0.0737569
0.104817
0.258126
0.793204
0.951465
0.941904
0.917138
0.870585
0.82756
0.785798
0.748697
0.721476
0.698894
0.679566
0.660243
0.640924
0.0904905
0.0630205
0.062055
0.0620406
0.0620498
0.0620894
0.0622197
0.0626162
0.0638186
0.0675455
0.0805594
0.136652
0.385
0.860274
0.932194
0.919501
0.892545
0.853972
0.811573
0.778713
0.751738
0.73234
0.713566
0.695845
0.675679
0.0904906
0.0630197
0.0620571
0.0620325
0.0620366
0.0620551
0.062116
0.0623024
0.0628578
0.064558
0.0699822
0.0897076
0.179767
0.538139
0.877319
0.911677
0.89713
0.871065
0.844761
0.812087
0.788384
0.770667
0.754478
0.736475
0.716211
0.0904906
0.0630196
0.0620575
0.0620307
0.0620329
0.062042
0.062072
0.0621589
0.0624087
0.0631578
0.0654258
0.0728959
0.101713
0.230954
0.647813
0.869037
0.88935
0.875792
0.860475
0.843374
0.82524
0.815742
0.80268
0.784995
0.764521
0.0904906
0.0630196
0.0620575
0.0620305
0.0620322
0.0620391
0.0620595
0.0621074
0.0622289
0.0625603
0.0635114
0.0663905
0.0761904
0.11582
0.27851
0.692038
0.850902
0.868841
0.861293
0.862437
0.861764
0.858002
0.853492
0.842709
0.820033
0.0904906
0.0630196
0.0620576
0.0620304
0.0620321
0.0620387
0.0620575
0.0620963
0.0621763
0.0623527
0.0627763
0.0639293
0.067379
0.0793318
0.127649
0.308102
0.693105
0.829439
0.851879
0.861928
0.879607
0.896413
0.897847
0.893645
0.879086
0.0904906
0.0630196
0.0620576
0.0620304
0.0620321
0.0620387
0.0620575
0.0620965
0.0621775
0.0623468
0.0625745
0.0630799
0.0644103
0.068276
0.0814868
0.132744
0.313063
0.668633
0.799562
0.848097
0.879278
0.907912
0.927918
0.926696
0.919964
0.0904906
0.0630196
0.0620576
0.0620304
0.0620321
0.0620387
0.0620575
0.0620964
0.0621774
0.0623475
0.0625608
0.0629665
0.0636052
0.0650457
0.0689934
0.0820701
0.129363
0.286882
0.602982
0.768034
0.855211
0.904373
0.933637
0.938224
0.935888
0.0904906
0.0630196
0.0620576
0.0620304
0.0620321
0.0620387
0.0620575
0.0620964
0.0621775
0.0623477
0.0625608
0.0629606
0.0635771
0.0645106
0.0661735
0.0701174
0.0815119
0.117717
0.225824
0.46539
0.713991
0.842435
0.907341
0.933758
0.934909
0.0904906
0.0630196
0.0620576
0.0620304
0.0620321
0.0620387
0.0620575
0.0620964
0.0621774
0.0623476
0.0625606
0.0629606
0.0635743
0.064513
0.0659549
0.0686001
0.0734299
0.0844567
0.111361
0.173337
0.306029
0.506877
0.728337
0.859762
0.901185
0.0904906
0.0630196
0.0620576
0.0620304
0.0620321
0.0620387
0.0620575
0.0620964
0.0621775
0.0623476
0.0625607
0.0629605
0.0635747
0.0645132
0.0659453
0.068614
0.0728285
0.0812406
0.0977935
0.131113
0.189559
0.254961
0.334895
0.498754
0.708287
0.0904906
0.0630196
0.0620576
0.0620304
0.0620321
0.0620387
0.0620575
0.0620964
0.0621774
0.0623476
0.0625605
0.0629606
0.0635742
0.0645136
0.0659434
0.068616
0.072802
0.0812093
0.096808
0.127448
0.176136
0.218641
0.254849
0.29423
0.357408
0.0904906
0.0630196
0.0620576
0.0620304
0.0620321
0.0620387
0.0620575
0.0620964
0.0621774
0.0623476
0.0625606
0.0629604
0.0635747
0.064513
0.0659448
0.0686153
0.0728025
0.081217
0.0967634
0.127244
0.175113
0.215127
0.243632
0.262526
0.281224
0.0904906