/*--------------------------------*- C++ -*----------------------------------*\
| =========                 |                                                 |
| \\      /  F ield         | OpenFOAM: The Open Source CFD Toolbox           |
|  \\    /   O peration     | Version:  4.1                                   |
|   \\  /    A nd           | Web:      www.OpenFOAM.org                      |
|    \\/     M anipulation  |                                                 |
\*---------------------------------------------------------------------------*/
FoamFile
{
    version     2.0;
    format      ascii;
    class       surfaceScalarField;
    location    "0.56";
    object      phi;
}
// * * * * * * * * * * * * * * * * * * * * * * * * * * * * * * * * * * * * * //

dimensions      [1 0 -1 0 0 0 0];

internalField   nonuniform List<scalar> 
150500
(
0.00205212
9.64012e-08
-5.99657e-12
0.0019856
5.9289e-07
-2.44138e-11
0.00189736
1.3102e-06
-3.63619e-11
0.00175266
3.66671e-06
-9.8805e-11
0.00134073
1.74533e-05
-4.10789e-10
-0.00104146
0.000168015
-2.32917e-09
-0.000832433
0.000422673
1.9899e-09
-4.43153e-05
0.000176744
5.71131e-10
-0.000168094
0.000182003
-2.23339e-10
-0.000305918
0.000219545
-1.38696e-10
-0.000215426
0.000199839
3.05752e-10
-0.00014863
0.000179365
3.34813e-10
-9.55164e-05
0.000160132
3.22697e-10
-5.63678e-05
0.000144225
2.5485e-10
-2.8707e-05
0.000134425
1.93844e-10
9.18811e-07
0.000132225
1.46906e-10
4.38983e-05
0.000133099
1.08857e-10
0.000104619
0.00013565
6.35992e-11
0.000161418
0.000135489
1.4981e-11
0.000205601
0.000135013
-2.04843e-11
0.00024156
0.00013728
-3.81226e-11
0.000244323
0.000141299
-4.62926e-11
0.00020857
0.000144286
-5.02474e-11
0.000131244
0.000152878
-4.72408e-11
0.00016171
-3.20214e-11
0.00205172
2.02272e-07
-4.83915e-12
0.00198603
1.22785e-06
-1.88664e-11
0.00189866
2.6887e-06
-2.6816e-11
0.00175503
7.52031e-06
-6.39206e-11
0.00134718
3.57731e-05
-2.16772e-10
-0.000998868
0.000333609
-8.7884e-10
-0.000852403
0.00084418
5.39145e-10
-5.2244e-05
0.00035138
1.30451e-09
-0.000164109
0.000365558
-1.55449e-11
-0.000306566
0.000432431
-7.38419e-10
-0.000212191
0.00039596
9.94458e-11
-0.000141505
0.000356936
3.58046e-10
-8.68728e-05
0.000320494
3.69016e-10
-4.67803e-05
0.00028904
2.90287e-10
-1.90709e-05
0.000269801
2.20312e-10
8.2797e-06
0.000265572
1.54888e-10
5.33944e-05
0.00026699
1.06655e-10
0.000113879
0.000271357
6.80363e-11
0.000168548
0.00027083
3.22556e-11
0.000211597
0.000270309
-1.6244e-12
0.000245638
0.000274749
-2.0796e-11
0.000246699
0.000283547
-3.22971e-11
0.000211642
0.000291235
-4.18686e-11
0.000132192
0.000308283
-4.49745e-11
0.000325794
-4.14113e-11
0.0020509
2.93447e-07
-5.53309e-12
0.0019872
1.78299e-06
-2.15067e-11
0.00190219
3.88127e-06
-3.13563e-11
0.00176197
1.07174e-05
-7.98061e-11
0.00137325
5.00356e-05
-2.93965e-10
-0.000868792
0.000446109
-1.26685e-09
-0.000876712
0.00129243
2.40514e-10
-5.03687e-05
0.00053513
9.03929e-10
-0.000124367
0.000533114
-7.61489e-11
-0.000290005
0.000646955
-3.06164e-10
-0.00019924
0.000595379
2.51961e-10
-0.000126763
0.000535753
2.15884e-10
-7.21018e-05
0.000483124
2.87399e-10
-3.30359e-05
0.000436828
2.54738e-10
-5.185e-06
0.00040592
2.09679e-10
2.41806e-05
0.000398728
1.58384e-10
6.98922e-05
0.000400932
1.13155e-10
0.000128512
0.000407566
8.10078e-11
0.0001802
0.000406436
5.39647e-11
0.000222572
0.000405396
1.51301e-11
0.000254242
0.000412441
-5.33602e-12
0.00025195
0.000427565
-2.09638e-11
0.000217102
0.000442839
-2.80676e-11
0.000133256
0.000468941
-4.25364e-11
0.00049643
-5.04901e-11
0.00204969
3.63157e-07
-5.38128e-12
0.00198895
2.19994e-06
-2.29501e-11
0.00190759
4.75911e-06
-3.39705e-11
0.0017723
1.2909e-05
-9.08969e-11
0.00141402
5.91158e-05
-3.81807e-10
-0.000615127
0.00049735
-2.25111e-09
-0.000912242
0.00175971
1.16178e-09
-5.3573e-05
0.000740189
8.49193e-10
-6.23234e-05
0.000682266
-6.3927e-10
-0.000266172
0.000867829
3.06154e-10
-0.000180998
0.000797379
4.52133e-10
-0.00010677
0.000716988
2.98625e-10
-5.15718e-05
0.000648488
4.06769e-10
-1.27944e-05
0.000587389
3.83208e-10
1.33883e-05
0.000543428
2.66847e-10
4.79734e-05
0.000532327
1.23401e-10
9.34256e-05
0.000534849
1.93427e-10
0.000149952
0.000543528
1.08746e-10
0.000196822
0.000540182
9.66622e-11
0.00023853
0.000540383
4.00507e-11
0.00026701
0.000549645
1.68111e-11
0.000262103
0.0005725
1.06162e-12
0.000225359
0.00059823
-9.58928e-12
0.000135732
0.000637326
-2.86052e-11
0.000681026
-5.39311e-11
0.0020482
4.12972e-07
-5.00064e-12
0.00199117
2.49621e-06
-2.1856e-11
0.00191461
5.35067e-06
-3.25083e-11
0.00178511
1.42001e-05
-8.72244e-11
0.00147163
6.31108e-05
-3.83656e-10
-0.000435718
0.000490678
-2.23914e-09
-0.000972019
0.0022259
1.1652e-09
-7.23587e-05
0.000980621
1.22678e-09
7.01107e-06
0.000802383
-7.89765e-10
-0.000236716
0.00110093
2.62097e-10
-0.000161289
0.00100072
6.34305e-10
-8.31952e-05
0.000900488
2.2034e-10
-2.78077e-05
0.000818438
4.45537e-10
7.12341e-06
0.000742423
4.68675e-10
4.32937e-05
0.000682307
2.54209e-10
7.73731e-05
0.000666095
1.73166e-10
0.000122713
0.000667459
1.8546e-10
0.000176053
0.000677843
1.4495e-10
0.000219515
0.000673311
1.26221e-10
0.000259881
0.000674499
7.9824e-11
0.000286207
0.000686937
4.52232e-11
0.000278615
0.000718593
2.79285e-11
0.000239523
0.000757567
1.30797e-11
0.000143009
0.000816634
-1.09998e-11
0.000887589
-4.4885e-11
0.0020465
4.41775e-07
-4.39565e-12
0.00199374
2.67057e-06
-1.9654e-11
0.00192301
5.66009e-06
-2.92106e-11
0.00180183
1.45962e-05
-7.94236e-11
0.00152338
6.23946e-05
-3.52906e-10
-0.000113409
0.000447574
-1.84218e-09
-0.00106738
0.00261957
2.0752e-10
-9.68988e-05
0.00127617
1.69456e-09
5.95029e-05
0.000908861
-6.23925e-10
-0.000200782
0.00131177
1.93297e-10
-0.000140716
0.00120602
5.82422e-10
-5.53984e-05
0.00108698
1.88293e-10
-1.00966e-06
0.000993183
3.77972e-10
4.08178e-05
0.000901971
3.36861e-10
7.82187e-05
0.000822612
1.71102e-10
0.000113576
0.000799116
2.07568e-10
0.000157277
0.000798468
2.37143e-10
0.000206642
0.000808688
1.7157e-10
0.000248791
0.000806472
1.50986e-10
0.000287187
0.000808468
1.13389e-10
0.000312121
0.000825407
7.7833e-11
0.00030239
0.000866068
5.53218e-11
0.000262616
0.000919135
3.68128e-11
0.000159345
0.00100636
-7.22937e-13
0.00111513
-3.20525e-11
0.00204467
4.51411e-07
-3.70976e-12
0.00199646
2.73225e-06
-1.68251e-11
0.00193238
5.71654e-06
-2.48547e-11
0.00182146
1.4255e-05
-6.67481e-11
0.00156539
5.7853e-05
-2.97402e-10
0.000198169
0.000384476
-1.50919e-09
-0.00118296
0.0028551
-8.23078e-10
-0.000130263
0.00165799
1.74154e-09
0.000121482
0.00100733
-4.13907e-10
-0.000161231
0.001495
-2.84896e-12
-0.000120213
0.00141342
8.44665e-10
-2.27834e-05
0.00127762
9.42725e-11
3.16584e-05
0.00117335
3.85297e-10
8.12276e-05
0.00106634
2.5305e-10
0.000118946
0.000966303
1.82352e-10
0.000154654
0.000933053
1.89701e-10
0.000196018
0.000927789
1.96198e-10
0.00024286
0.000937863
1.7471e-10
0.000284653
0.000938625
1.6355e-10
0.000321601
0.000941546
1.2993e-10
0.000345497
0.000964362
1.0461e-10
0.000334314
0.00101618
8.02303e-11
0.000293469
0.00108679
7.03411e-11
0.000188949
0.00120339
1.67473e-11
0.00138282
-2.27982e-11
0.00204278
4.41871e-07
-3.00015e-12
0.00199918
2.69025e-06
-1.36085e-11
0.00194184
5.56134e-06
-2.00228e-11
0.00184204
1.34423e-05
-5.29051e-11
0.001616
5.12476e-05
-2.32297e-10
0.00061869
0.00031334
-1.1771e-09
-0.00131537
0.00291159
-1.67993e-09
-0.000170463
0.00216462
1.81254e-09
0.000187856
0.00112205
-1.28529e-11
-0.000113589
0.00164863
-1.40194e-11
-9.92294e-05
0.00163038
7.80214e-10
1.46363e-05
0.00147263
2.25169e-10
7.54895e-05
0.00135915
2.50854e-10
0.000127786
0.00123593
3.17793e-10
0.000166533
0.00111573
2.54498e-10
0.000201159
0.00106569
2.43733e-10
0.000239497
0.00105478
1.78531e-10
0.000285227
0.0010639
1.85093e-10
0.000327764
0.00106923
1.70313e-10
0.00036448
0.00107333
1.55898e-10
0.000388667
0.00110252
1.40045e-10
0.000378643
0.00116674
1.16592e-10
0.000335507
0.00126105
1.00346e-10
0.00023136
0.00141139
4.41897e-11
0.00170456
-1.49275e-11
0.00204089
4.14402e-07
-2.3894e-12
0.00200198
2.55027e-06
-1.04652e-11
0.00195112
5.2207e-06
-1.53566e-11
0.00186094
1.2288e-05
-4.01301e-11
0.0016675
4.41072e-05
-1.71543e-10
0.000993126
0.000254522
-8.47947e-10
-0.00136182
0.0026614
-2.81163e-09
-0.000222234
0.00283122
2.16229e-09
0.000251682
0.00129235
5.46896e-10
-3.83449e-05
0.00172139
-1.08925e-10
-7.75866e-05
0.00188767
6.98866e-10
5.59587e-05
0.00167079
2.40055e-10
0.000121739
0.00155043
1.65408e-10
0.000180203
0.00141236
2.49504e-10
0.000220768
0.00127345
2.09259e-10
0.000251975
0.0011993
2.13265e-10
0.000287899
0.00118061
1.98682e-10
0.000333743
0.00118407
1.87316e-10
0.000378554
0.00119794
1.80175e-10
0.000417423
0.00120333
1.68464e-10
0.000445052
0.00123669
1.67616e-10
0.000444902
0.00131185
1.51721e-10
0.000396807
0.00143731
1.21098e-10
0.000297813
0.00162991
8.14461e-11
0.00210769
1.22242e-12
0.00203904
-1.94922e-12
3.73329e-07
0.00200498
-7.71881e-12
2.32784e-06
0.00196039
-1.12307e-11
4.72706e-06
0.00187925
-2.88095e-11
1.08536e-05
0.00171825
-1.18463e-10
3.6846e-05
0.00123861
-6.06368e-10
0.000204388
-0.00115031
-3.37233e-09
0.00210446
-0.000286516
2.18214e-09
0.00365855
0.000302645
7.97397e-10
0.00150589
5.63375e-05
-2.1713e-10
0.00173559
-5.03349e-05
5.12473e-10
0.00213904
0.000100786
4.19344e-10
0.00188119
0.000169557
1.44714e-10
0.00174465
0.000236806
2.23949e-10
0.00159631
0.00028078
1.47183e-10
0.00144264
0.000307883
1.60537e-10
0.00133427
0.000340781
1.82966e-10
0.00130398
0.000387732
1.72002e-10
0.00129824
0.00043771
1.76319e-10
0.00132113
0.000481299
1.687e-10
0.00132724
0.000516573
1.79037e-10
0.00136309
0.000532761
1.89265e-10
0.00144483
0.000510424
1.52136e-10
0.00159269
0.000420556
8.08257e-11
0.00184483
2.27644e-11
0.00265265
0.00205213
9.71041e-08
2.2667e-12
0.00198559
5.96408e-07
1.12174e-11
0.00189733
1.31743e-06
1.6911e-11
0.0017526
3.6922e-06
4.67771e-11
0.00134046
1.75979e-05
1.9568e-10
-0.00104306
0.000169425
1.14786e-09
-0.00083264
0.000422244
-9.55712e-10
-4.47223e-05
0.000176556
-3.95986e-10
-0.000169214
0.000182482
-2.98276e-10
-0.000306261
0.00021861
7.10907e-10
-0.000215253
0.000199285
4.3147e-11
-0.000148302
0.000179291
-1.28508e-10
-9.53033e-05
0.000160293
-8.49938e-11
-5.62787e-05
0.000144406
-5.57847e-11
-2.8704e-05
0.000134565
-1.74907e-11
8.83943e-07
0.000132305
1.84177e-11
4.38447e-05
0.000133146
6.15128e-11
0.000104576
0.00013567
1.15723e-10
0.000161406
0.000135492
1.60009e-10
0.000205624
0.000135011
1.71258e-10
0.000241613
0.000137263
1.42788e-10
0.000244406
0.000141266
6.95264e-11
0.000208658
0.000144236
1.78496e-11
0.000131318
0.000152805
-4.10319e-11
0.000161634
-1.30782e-10
0.00205173
2.01843e-07
1.55483e-12
0.00198603
1.22628e-06
7.58021e-12
0.00189867
2.68578e-06
1.04539e-11
0.00175507
7.50872e-06
2.20675e-11
0.00134744
3.56913e-05
5.69546e-11
-0.000997232
0.000332524
9.72346e-11
-0.000850015
0.000844156
-1.23516e-11
-5.03316e-05
0.000351289
-9.36841e-10
-0.000161397
0.000364314
-2.72326e-10
-0.000304097
0.000431947
1.03847e-09
-0.000210201
0.000395967
2.43283e-10
-0.000140239
0.00035754
-1.31088e-10
-8.62814e-05
0.00032136
-1.13266e-10
-4.65946e-05
0.000289686
-7.64952e-11
-1.90455e-05
0.000270137
-2.95019e-11
8.27066e-06
0.000265722
2.35507e-11
5.33367e-05
0.000267082
5.06433e-11
0.000113829
0.000271395
1.20923e-10
0.000168523
0.000270845
1.51968e-10
0.000211602
0.000270301
1.59312e-10
0.000245672
0.000274714
1.36361e-10
0.000246756
0.000283479
6.62838e-11
0.000211707
0.000291132
2.05998e-11
0.000132249
0.000308132
-4.32391e-11
0.000325643
-1.27267e-10
0.0020509
2.93662e-07
2.38338e-12
0.00198719
1.78261e-06
1.07637e-11
0.00190217
3.88037e-06
1.57729e-11
0.00176196
1.07132e-05
4.01795e-11
0.00137318
5.00063e-05
1.43954e-10
-0.000869108
0.000445812
5.82618e-10
-0.000876308
0.00129206
-6.3128e-12
-5.03067e-05
0.000535184
-4.15443e-10
-0.000125185
0.000532358
1.29643e-10
-0.000290371
0.000646656
2.68564e-10
-0.000199578
0.000595527
-2.56889e-11
-0.000127096
0.000536228
2.8037e-11
-7.23304e-05
0.000483733
-5.62598e-12
-3.31842e-05
0.00043727
-6.34833e-12
-5.32653e-06
0.000406262
-5.87705e-12
2.40165e-05
0.000398917
1.40976e-11
6.97453e-05
0.000401049
5.03436e-11
0.00012841
0.000407604
9.84477e-11
0.000180149
0.000406424
1.32384e-10
0.000222565
0.000405357
1.45385e-10
0.000254265
0.000412374
1.30957e-10
0.000251995
0.000427462
6.37756e-11
0.000217156
0.0004427
2.38828e-11
0.000133303
0.000468726
-4.31597e-11
0.000496217
-1.19478e-10
0.0020497
3.63464e-07
2.35307e-12
0.00198894
2.20122e-06
1.23772e-11
0.00190757
4.76183e-06
1.85599e-11
0.00177225
1.29161e-05
5.06599e-11
0.00141375
5.91413e-05
2.15492e-10
-0.000616256
0.000497725
1.33181e-09
-0.000911936
0.00175879
-9.12164e-10
-5.3767e-05
0.000740126
-3.79255e-10
-6.3707e-05
0.000682323
1.0244e-09
-0.000267047
0.000867469
-6.38638e-10
-0.000181905
0.000797588
-3.01248e-10
-0.000107846
0.000717455
-2.70612e-11
-5.25167e-05
0.000648937
-1.42841e-10
-1.34793e-05
0.000587627
-1.58723e-10
1.28542e-05
0.00054356
-5.26552e-11
4.74635e-05
0.000532406
4.4298e-11
9.31752e-05
0.000534882
-1.79829e-11
0.000149817
0.000543483
6.10784e-11
0.000196747
0.000540128
9.47711e-11
0.000238504
0.000540306
1.29613e-10
0.000267017
0.000549537
1.2296e-10
0.000262127
0.000572348
6.51638e-11
0.00022539
0.000598039
2.3774e-11
0.000135762
0.000637068
-4.2693e-11
0.000680786
-1.09147e-10
0.00204821
4.13482e-07
2.12996e-12
0.00199116
2.49825e-06
1.1703e-11
0.00191457
5.35509e-06
1.7695e-11
0.00178506
1.42114e-05
4.85932e-11
0.00147142
6.31599e-05
2.16727e-10
-0.000437663
0.000491166
1.30186e-09
-0.000971532
0.00222548
-9.45618e-10
-7.2453e-05
0.000980439
-6.49266e-10
6.07805e-06
0.00080303
1.22851e-09
-0.000237917
0.0011008
-5.90276e-10
-0.000162696
0.00100099
-5.7243e-10
-8.48247e-05
0.000900733
6.56046e-11
-2.91605e-05
0.000818386
-1.21614e-10
6.61779e-06
0.000742093
-1.64618e-10
4.25753e-05
0.00068207
-1.81068e-11
7.69153e-05
0.000665914
1.57844e-11
0.000122437
0.000667344
-8.02384e-12
0.0001759
0.000677704
2.42154e-11
0.000219419
0.000673199
4.78075e-11
0.000259839
0.000674384
1.04461e-10
0.000286196
0.000686788
1.12661e-10
0.000278611
0.000718413
6.56715e-11
0.000239535
0.000757345
2.35106e-11
0.000143007
0.000816354
-4.17073e-11
0.000887331
-1.04235e-10
0.00204651
4.42315e-07
1.62126e-12
0.00199373
2.67302e-06
9.93131e-12
0.00192297
5.66535e-06
1.50253e-11
0.00180176
1.46099e-05
4.19405e-11
0.00152325
6.24548e-05
1.89147e-10
-0.000114438
0.000448083
1.00715e-09
-0.00106644
0.00262021
-2.66819e-10
-9.62637e-05
0.00127615
-8.70665e-10
5.89879e-05
0.000910003
9.89286e-10
-0.000202043
0.00131246
-5.20252e-10
-0.000141959
0.00120638
-7.91327e-10
-5.69032e-05
0.00108692
3.07565e-11
-2.07415e-06
0.000992386
-1.36755e-10
3.98798e-05
0.000900968
-8.79545e-11
7.74762e-05
0.000821995
3.02405e-11
0.000113131
0.000798725
-1.57913e-11
0.000156989
0.000798212
-4.72213e-11
0.000206478
0.00080845
1.24637e-11
0.000248684
0.000806283
3.41395e-11
0.000287126
0.000808292
8.51274e-11
0.000312092
0.000825226
1.02723e-10
0.000302361
0.000865868
6.14601e-11
0.000262602
0.000918891
2.03403e-11
0.000159314
0.00100608
-4.06027e-11
0.0011148
-1.1192e-10
0.00204468
4.51936e-07
1.02476e-12
0.00199645
2.73477e-06
7.43488e-12
0.00193235
5.72189e-06
1.13329e-11
0.00182139
1.42687e-05
3.1899e-11
0.00156526
5.79135e-05
1.46585e-10
0.000197239
0.000384933
7.56636e-10
-0.00118213
0.0028561
4.05505e-10
-0.000130398
0.00165777
-8.49319e-10
0.000120929
0.00100844
7.59419e-10
-0.000161903
0.00149612
-1.89936e-10
-0.000121091
0.00141438
-7.22328e-10
-2.37333e-05
0.00127717
-2.55109e-11
3.10681e-05
0.00117231
-2.13807e-10
8.05663e-05
0.00106524
-3.06175e-11
0.000118505
0.000965514
1.69163e-11
0.000154375
0.000932511
-4.28953e-12
0.000195815
0.000927469
-8.39235e-12
0.000242711
0.000937576
1.12386e-11
0.000284545
0.000938359
3.17424e-11
0.000321532
0.000941309
6.45505e-11
0.00034545
0.000964141
9.16738e-11
0.000334266
0.00101595
5.30922e-11
0.000293432
0.00108655
1.62175e-11
0.000188915
0.0012031
-3.88836e-11
0.00138246
-1.10716e-10
0.00204279
4.42272e-07
5.10491e-13
0.00199917
2.69249e-06
4.90239e-12
0.00194181
5.56607e-06
7.61319e-12
0.00184198
1.34544e-05
2.17975e-11
0.00161586
5.13001e-05
1.01003e-10
0.000617546
0.000313704
5.27061e-10
-0.00131414
0.00291321
7.97571e-10
-0.000170281
0.00216424
-7.78243e-10
0.000187624
0.00112254
2.71762e-10
-0.000113606
0.00164994
-6.6092e-12
-9.93256e-05
0.00163143
-6.35141e-10
1.43489e-05
0.00147223
-1.39265e-10
7.50659e-05
0.0013585
-1.40222e-10
0.000127365
0.00123516
-7.61838e-11
0.000166224
0.00111513
-3.22172e-11
0.000200943
0.00106515
-4.0295e-11
0.000239361
0.00105434
5.42498e-12
0.000285127
0.00106355
8.14291e-12
0.000327679
0.0010689
3.10307e-11
0.000364412
0.00107306
4.41235e-11
0.000388605
0.00110228
5.34403e-11
0.000378577
0.0011665
2.39715e-11
0.000335445
0.0012608
7.05538e-12
0.000231316
0.00141108
-5.56381e-11
0.00170418
-1.05363e-10
0.0020409
4.14659e-07
1.94125e-13
0.00200197
2.55202e-06
2.84585e-12
0.00195109
5.2244e-06
4.57515e-12
0.00186089
1.22977e-05
1.36597e-11
0.00166736
4.41489e-05
6.38631e-11
0.000992407
0.000254795
3.35325e-10
-0.00136126
0.00266367
1.18272e-09
-0.000221794
0.00283068
-8.2105e-10
0.000251725
0.00129263
-2.28041e-10
-3.80234e-05
0.00172262
2.04355e-10
-7.71588e-05
0.00188875
-4.16219e-10
5.62189e-05
0.0016708
-9.47813e-11
0.00012178
0.00155029
-8.63473e-11
0.000180112
0.00141197
-3.61028e-11
0.000220705
0.00127303
-4.08158e-13
0.000251921
0.00119875
2.56052e-12
0.00028785
0.00118011
-2.0147e-12
0.000333695
0.00118361
4.66478e-12
0.000378499
0.00119759
2.69181e-11
0.000417365
0.00120302
4.28401e-11
0.000444985
0.00123641
4.15534e-11
0.000444816
0.00131161
1.84064e-11
0.000396742
0.00143709
-9.89317e-12
0.00029774
0.00162964
-5.83406e-11
0.00210727
-9.11756e-11
0.00203904
3.28418e-15
3.73464e-07
0.00200497
1.32365e-12
2.32899e-06
0.00196037
2.28582e-12
4.72954e-06
0.0018792
7.42626e-12
1.08602e-05
0.00171813
3.55725e-11
3.68745e-05
0.00123822
2.03916e-10
0.000204573
-0.0011508
1.23592e-09
0.00210671
-0.00028597
-6.99654e-10
0.00365808
0.000302885
-2.53512e-10
0.0015062
5.67198e-05
3.23226e-10
0.0017368
-4.96804e-05
-1.64527e-10
0.00214006
0.000101392
-1.60454e-10
0.00188159
0.000169942
-2.97472e-11
0.00174498
0.000237037
-6.4273e-12
0.00159621
0.000280976
2.10521e-11
0.00144235
0.000307998
2.1512e-13
0.00133376
0.000340828
-7.87367e-12
0.00130346
0.000387735
1.52146e-11
0.00129774
0.000437684
2.96125e-11
0.00132076
0.000481246
4.34011e-11
0.0013269
0.000516504
3.98526e-11
0.00136279
0.000532687
1.34586e-11
0.00144458
0.000510342
-2.15615e-11
0.00159248
0.000420454
-6.25416e-11
0.00184464
-8.17425e-11
0.00265221
0.00205213
9.67066e-08
-2.88018e-13
0.00198559
5.94275e-07
-1.61168e-12
0.00189734
1.31308e-06
-2.5097e-12
0.00175263
3.67567e-06
-7.40163e-12
0.00134061
1.74999e-05
-3.35394e-11
-0.00104208
0.000168469
-2.07726e-10
-0.000832547
0.000422664
1.48968e-10
-4.47739e-05
0.000176777
-1.51036e-11
-0.000169056
0.00018261
-9.65585e-11
-0.000306736
0.000219476
-3.65371e-11
-0.000216148
0.000199651
6.68714e-13
-0.000149194
0.000179203
2.83593e-11
-9.59303e-05
0.000159983
4.04704e-11
-5.66507e-05
0.000144113
3.31108e-11
-2.89034e-05
0.000134349
1.70525e-11
7.86048e-07
0.000132169
2.78111e-12
4.37759e-05
0.000133057
-1.16623e-11
0.00010451
0.000135624
-3.05779e-11
0.000161331
0.00013547
-4.79054e-11
0.000205528
0.000135001
-6.33349e-11
0.000241509
0.000137267
-8.37299e-11
0.00024429
0.000141276
-1.39891e-10
0.000208577
0.000144249
-1.92498e-10
0.000131254
0.000152819
-2.32765e-10
0.000161652
-2.80676e-10
0.00205172
2.02406e-07
-2.06635e-13
0.00198603
1.22842e-06
-1.23108e-12
0.00189866
2.68994e-06
-1.88136e-12
0.00175503
7.52291e-06
-5.27351e-12
0.0013472
3.5779e-05
-2.22361e-11
-0.000998657
0.000333596
-1.24428e-10
-0.000851785
0.000844248
4.15055e-11
-5.19153e-05
0.000351449
2.70405e-11
-0.000163795
0.000365969
-5.91949e-11
-0.000306351
0.000432579
-7.39003e-11
-0.000212128
0.000395885
4.32058e-12
-0.000141531
0.000356836
3.79039e-11
-8.69437e-05
0.000320397
4.52365e-11
-4.68622e-05
0.000288965
3.7134e-11
-1.91578e-05
0.000269738
2.11119e-11
8.25011e-06
0.000265506
8.67209e-12
5.32737e-05
0.000266942
-1.76147e-11
0.000113774
0.000271307
-2.21686e-11
0.000168454
0.000270802
-3.76364e-11
0.000211513
0.000270289
-5.68965e-11
0.00024557
0.000274723
-7.81821e-11
0.00024664
0.000283498
-1.35984e-10
0.000211626
0.000291159
-1.86607e-10
0.000132184
0.000308163
-2.33673e-10
0.000325677
-2.80807e-10
0.0020509
2.93576e-07
-2.09265e-13
0.00198719
1.78331e-06
-1.15595e-12
0.00190218
3.88199e-06
-1.76396e-12
0.00176197
1.07186e-05
-4.88601e-12
0.00137323
5.0037e-05
-2.02796e-11
-0.000868783
0.000446099
-1.06831e-10
-0.000876332
0.00129248
-2.96947e-11
-5.01228e-05
0.00053525
3.5639e-11
-0.000124245
0.000533461
-6.90785e-11
-0.000289805
0.000647156
-5.68174e-11
-0.000199108
0.000595399
1.51177e-11
-0.000126725
0.000535719
1.92131e-11
-7.21324e-05
0.000483064
1.68129e-11
-3.3088e-05
0.000436756
1.54217e-12
-5.24108e-06
0.000405864
1.1567e-11
2.41075e-05
0.000398667
2.47772e-12
6.98009e-05
0.000400883
-6.24837e-12
0.000128411
0.000407529
-1.9391e-11
0.000180107
0.000406388
-2.82262e-11
0.000222488
0.000405351
-5.05406e-11
0.00025417
0.000412389
-7.19729e-11
0.000251884
0.00042749
-1.31111e-10
0.000217077
0.000442739
-1.75491e-10
0.000133238
0.000468771
-2.36205e-10
0.000496267
-2.80902e-10
0.0020497
3.63294e-07
-1.99282e-13
0.00198895
2.20048e-06
-1.09497e-12
0.00190758
4.76027e-06
-1.63732e-12
0.00177228
1.29121e-05
-4.41778e-12
0.00141392
5.91278e-05
-1.87023e-11
-0.000615525
0.000497511
-1.00744e-10
-0.000911903
0.00175944
-1.5373e-11
-5.32908e-05
0.000740194
8.36382e-11
-6.2155e-05
0.000682524
-1.69612e-10
-0.000265906
0.000868017
4.68768e-11
-0.000180739
0.000797426
7.62483e-11
-0.000106639
0.000717055
3.75011e-11
-5.15092e-05
0.00064853
4.2945e-11
-1.27712e-05
0.000587394
4.56197e-11
1.33692e-05
0.000543411
1.49742e-11
4.78958e-05
0.000532298
-1.55894e-11
9.3331e-05
0.000534814
2.07854e-11
0.00014986
0.00054347
-1.26107e-11
0.000196735
0.000540125
-1.40044e-11
0.000238448
0.000540323
-3.94385e-11
0.000266929
0.00054957
-6.30065e-11
0.000262018
0.000572388
-1.22418e-10
0.000225311
0.000598086
-1.65114e-10
0.000135697
0.00063713
-2.33305e-10
0.000680853
-2.75927e-10
0.0020482
4.13047e-07
-3.35594e-13
0.00199116
2.49663e-06
-1.50038e-12
0.00191459
5.35168e-06
-2.23404e-12
0.00178509
1.42029e-05
-6.02072e-12
0.00147155
6.31247e-05
-2.66305e-11
-0.000436455
0.000490831
-1.70925e-10
-0.000971587
0.00222562
1.07837e-10
-7.21479e-05
0.000980538
7.42333e-11
7.14656e-06
0.000802488
-2.36555e-10
-0.000236452
0.00110109
7.72668e-11
-0.000161067
0.00100072
1.49972e-10
-8.32069e-05
0.000900695
-7.78589e-11
-2.79335e-05
0.000818612
7.177e-12
6.99523e-06
0.000742493
2.64074e-11
4.31591e-05
0.000682262
2.58263e-12
7.72715e-05
0.000665995
-2.6771e-12
0.000122629
0.000667357
2.7223e-11
0.000175979
0.000677742
7.35536e-12
0.00021943
0.000673241
1.57308e-12
0.000259793
0.000674422
-2.10709e-11
0.000286114
0.000686834
-5.15907e-11
0.000278505
0.000718462
-1.1082e-10
0.000239453
0.000757405
-1.53851e-10
0.000142942
0.000816429
-2.25452e-10
0.000887418
-2.63449e-10
0.0020465
4.41882e-07
-2.4729e-13
0.00199373
2.67097e-06
-1.35656e-12
0.00192299
5.66107e-06
-2.04397e-12
0.0018018
1.45991e-05
-5.69514e-12
0.00152333
6.24094e-05
-2.52491e-11
-0.000113843
0.000447721
-1.37441e-10
-0.00106679
0.00261949
1.17809e-10
-9.60352e-05
0.00127614
1.02664e-10
5.94534e-05
0.000909046
-2.06218e-10
-0.000200776
0.0013121
1.86014e-10
-0.000140537
0.00120609
2.03882e-10
-5.55153e-05
0.00108726
-8.78239e-11
-1.15197e-06
0.000993182
-7.53245e-12
4.06692e-05
0.000901816
-3.25329e-12
7.81058e-05
0.000822418
-1.63337e-11
0.000113494
0.000798952
-1.43398e-12
0.000157196
0.000798329
3.25342e-11
0.000206569
0.000808553
3.17021e-11
0.000248702
0.000806374
1.22059e-11
0.000287087
0.00080836
-6.98173e-12
0.000312011
0.000825281
-3.78352e-11
0.000302257
0.000865926
-9.93678e-11
0.000262522
0.00091896
-1.41263e-10
0.000159249
0.00100617
-2.17231e-10
0.0011149
-2.57931e-10
0.00204467
4.51568e-07
-6.46189e-14
0.00199646
2.73289e-06
-6.6693e-13
0.00193236
5.71796e-06
-1.0433e-12
0.00182143
1.42588e-05
-3.02882e-12
0.00156533
5.78717e-05
-1.38392e-11
0.000197705
0.000384633
-6.72482e-11
-0.00118245
0.0028551
4.98883e-11
-0.000130001
0.0016577
1.05051e-10
0.000121405
0.00100743
-2.11817e-10
-0.000161264
0.00149523
2.08685e-10
-0.000120351
0.00141421
1.28185e-10
-2.28957e-05
0.00127775
-5.66868e-11
3.15799e-05
0.00117316
3.71814e-11
8.11318e-05
0.00106604
1.7216e-11
0.000118883
0.000966
-1.17769e-11
0.000154603
0.0009328
2.68103e-12
0.000195957
0.000927616
2.02009e-11
0.000242781
0.00093771
3.09989e-11
0.000284553
0.000938484
2.84428e-11
0.000321489
0.000941397
4.27697e-12
0.000345368
0.000964208
-2.45093e-11
0.000334163
0.00101602
-8.48725e-11
0.000293349
0.00108663
-1.20238e-10
0.00018885
0.0012032
-2.01288e-10
0.00138258
-2.45036e-10
0.00204279
4.42072e-07
8.56606e-14
0.00199918
2.69113e-06
7.10189e-14
0.00194182
5.56318e-06
1.73132e-14
0.001842
1.3447e-05
-3.02379e-13
0.00161592
5.12691e-05
-1.99401e-12
0.000618032
0.000313494
-4.84124e-12
-0.00131475
0.00291202
2.05428e-11
-0.000170188
0.00216402
8.37245e-11
0.000187813
0.00112211
-6.61798e-11
-0.000113568
0.00164885
1.37039e-10
-9.92393e-05
0.00163132
4.27469e-11
1.46118e-05
0.00147258
1.0523e-11
7.53912e-05
0.00135898
5.98317e-11
0.000127669
0.00123564
2.08557e-11
0.000166442
0.00111542
4.57005e-11
0.000201092
0.00106541
5.1824e-11
0.000239446
0.00105455
3.33527e-11
0.000285157
0.00106372
3.84157e-11
0.000327664
0.00106905
3.77764e-11
0.000364357
0.00107316
1.44524e-11
0.00038852
0.00110235
-1.21253e-11
0.000378472
0.00116658
-6.83155e-11
0.000335365
0.00126089
-9.78232e-11
0.000231251
0.0014112
-1.74955e-10
0.00170431
-2.26664e-10
0.00204089
4.14555e-07
1.14003e-13
0.00200197
2.55113e-06
5.16009e-13
0.0019511
5.22251e-06
6.73721e-13
0.00186091
1.22927e-05
1.39911e-12
0.00166742
4.41278e-05
4.95659e-12
0.000992682
0.000254655
2.3471e-11
-0.00136155
0.0026624
1.03356e-10
-0.000221924
0.00283037
6.28793e-11
0.000251698
0.00129226
1.64167e-10
-3.83296e-05
0.00172174
8.98368e-11
-7.74329e-05
0.00188838
-2.97692e-11
5.60554e-05
0.00167086
-1.21495e-11
0.000121729
0.00155037
5.67892e-11
0.000180135
0.00141211
3.69853e-12
0.000220715
0.00127311
2.11601e-11
0.000251926
0.001199
1.43742e-11
0.000287858
0.00118032
4.70574e-11
0.000333684
0.00118383
4.16608e-11
0.000378455
0.00119773
4.78187e-11
0.000417293
0.00120312
1.73564e-11
0.000444897
0.00123649
1.41219e-13
0.000444711
0.00131169
-4.50977e-11
0.000396664
0.00143719
-9.09832e-11
0.000297676
0.00162976
-1.35045e-10
0.00210741
-1.9705e-10
0.00203904
1.21091e-13
3.73433e-07
0.00200497
6.40295e-13
2.32849e-06
0.00196037
9.29772e-13
4.72845e-06
0.00187922
2.14428e-12
1.08573e-05
0.00171817
8.00873e-12
3.6862e-05
0.00123836
3.80399e-11
0.000204489
-0.00115068
2.27499e-10
0.00210568
-0.000286159
5.13333e-12
0.00365762
0.000302735
1.57908e-10
0.00150569
5.64122e-05
4.07892e-11
0.00173603
-5.00711e-05
-1.37821e-10
0.0021396
0.000100986
3.21407e-11
0.00188145
0.000169658
1.35209e-11
0.00174473
0.00023685
-4.66855e-12
0.00159607
0.000280827
-4.15062e-12
0.0014422
0.000307907
1.19551e-11
0.00133389
0.000340786
4.66558e-11
0.00130367
0.000387687
4.28746e-11
0.00129798
0.000437611
4.525e-11
0.00132091
0.000481155
2.99667e-11
0.00132699
0.000516413
8.24113e-12
0.00136287
0.0005326
-2.01103e-11
0.00144466
0.000510265
-6.9421e-11
0.00159258
0.000420385
-1.07569e-10
0.00184476
-1.48992e-10
0.00265234
0.00205213
9.67582e-08
2.81943e-13
0.00198559
5.94527e-07
3.39053e-12
0.00189734
1.31361e-06
6.0955e-12
0.00175263
3.6774e-06
2.2334e-11
0.00134059
1.75094e-05
1.24074e-10
-0.00104222
0.000168562
8.92125e-10
-0.000832596
0.000422655
-1.39129e-11
-4.48619e-05
0.000176749
-1.44267e-10
-0.000169195
0.000182665
5.40701e-15
-0.000306781
0.000219395
-1.16361e-10
-0.000216146
0.000199623
-1.34777e-10
-0.000149194
0.000179232
-1.3442e-10
-9.59536e-05
0.000160033
-1.08776e-10
-5.66934e-05
0.000144156
-6.50102e-11
-2.89553e-05
0.000134379
-2.93925e-11
7.36135e-07
0.000132189
-6.14229e-12
4.37233e-05
0.000133069
1.10021e-11
0.000104466
0.000135633
1.37213e-11
0.000161301
0.000135475
1.85003e-11
0.000205496
0.000135
3.12694e-11
0.000241471
0.000137263
4.04899e-11
0.000244234
0.00014127
5.02894e-11
0.000208529
0.000144241
6.11113e-11
0.000131208
0.000152811
7.1191e-11
0.000161643
9.80415e-11
0.00205173
2.024e-07
2.95236e-13
0.00198603
1.22846e-06
3.48616e-12
0.00189866
2.69006e-06
6.25206e-12
0.00175503
7.5232e-06
2.2891e-11
0.0013472
3.57798e-05
1.24925e-10
-0.000998633
0.000333595
8.56238e-10
-0.000851696
0.000844253
1.56853e-11
-5.18643e-05
0.000351411
-1.78894e-10
-0.000163715
0.000365944
-2.04631e-11
-0.000306227
0.000432494
-5.45203e-11
-0.000212021
0.000395895
-9.23012e-11
-0.000141483
0.000356931
-1.28943e-10
-8.69514e-05
0.000320513
-1.25507e-10
-4.69048e-05
0.000289053
-8.21573e-11
-1.92097e-05
0.00026979
-3.87265e-11
8.23096e-06
0.000265538
-9.87333e-12
5.3211e-05
0.000266965
4.34003e-12
0.000113728
0.000271314
1.5023e-11
0.00016842
0.00027081
1.90219e-11
0.000211478
0.000270288
2.93926e-11
0.000245529
0.000274714
3.78423e-11
0.000246581
0.000283486
4.73831e-11
0.000211576
0.000291146
5.91679e-11
0.000132136
0.000308148
7.32587e-11
0.00032566
1.01288e-10
0.0020509
2.93573e-07
3.33852e-13
0.00198719
1.7833e-06
3.58962e-12
0.00190218
3.88197e-06
6.22907e-12
0.00176196
1.07187e-05
2.12614e-11
0.00137323
5.00385e-05
1.08194e-10
-0.000868811
0.000446115
6.91244e-10
-0.000876293
0.00129246
1.12076e-10
-5.00942e-05
0.000535241
-2.24861e-10
-0.000124194
0.000533337
-4.05805e-11
-0.000289678
0.000647105
2.29354e-11
-0.000198994
0.00059545
-2.9999e-11
-0.00012668
0.000535875
-9.43108e-11
-7.21274e-05
0.000483227
-1.2973e-10
-3.31141e-05
0.000436882
-1.13217e-10
-5.29155e-06
0.000405942
-6.23763e-11
2.40414e-05
0.00039871
-2.07737e-11
6.97338e-05
0.000400912
-5.74895e-13
0.000128356
0.00040754
1.14872e-11
0.000180065
0.000406387
2.13835e-11
0.000222449
0.000405343
2.73152e-11
0.000254125
0.000412375
3.58272e-11
0.000251822
0.000427474
4.54984e-11
0.000217028