/*--------------------------------*- C++ -*----------------------------------*\
| =========                 |                                                 |
| \\      /  F ield         | OpenFOAM: The Open Source CFD Toolbox           |
|  \\    /   O peration     | Version:  4.1                                   |
|   \\  /    A nd           | Web:      www.OpenFOAM.org                      |
|    \\/     M anipulation  |                                                 |
\*---------------------------------------------------------------------------*/
FoamFile
{
    version     2.0;
    format      ascii;
    class       volScalarField;
    location    "0.56";
    object      T;
}
// * * * * * * * * * * * * * * * * * * * * * * * * * * * * * * * * * * * * * //

dimensions      [0 0 0 1 0 0 0];

internalField   nonuniform List<scalar> 
52500
(
0.345799
0.340268
0.353791
0.429034
0.757445
1.4053
1.68109
1.47423
1.41165
1.35372
1.20324
1.1563
1.15632
1.1937
1.21997
1.20122
1.15629
1.1161
1.10258
1.09909
1.08731
1.0773
1.07069
1.05854
1.01345
0.345612
0.339845
0.353056
0.426485
0.749504
1.39504
1.68427
1.47606
1.41142
1.3556
1.20397
1.15563
1.15509
1.19139
1.21936
1.20159
1.15697
1.11568
1.10185
1.09853
1.08684
1.07703
1.07061
1.05886
1.01349
0.345214
0.338951
0.35148
0.420893
0.730493
1.36453
1.69012
1.48166
1.41103
1.36251
1.20762
1.15414
1.15219
1.18626
1.21815
1.20257
1.15869
1.11554
1.1012
1.09823
1.08692
1.07734
1.07081
1.05995
1.01456
0.344635
0.337648
0.349204
0.412851
0.701941
1.31733
1.69491
1.48817
1.40822
1.37337
1.21497
1.15299
1.14941
1.18093
1.2167
1.20352
1.16108
1.11551
1.10054
1.09791
1.08706
1.07778
1.07176
1.062
1.01677
0.343918
0.336035
0.34643
0.403144
0.664207
1.25619
1.69869
1.49711
1.40448
1.38365
1.22412
1.15081
1.14412
1.17118
1.21301
1.2038
1.16366
1.11571
1.09978
1.0971
1.08714
1.07796
1.07221
1.06419
1.01693
0.343099
0.334198
0.343332
0.392388
0.619524
1.1873
1.69604
1.51182
1.40173
1.39425
1.23677
1.1487
1.13791
1.15986
1.20793
1.20328
1.16645
1.11643
1.09882
1.09569
1.08668
1.07833
1.07325
1.0648
1.01663
0.342219
0.332226
0.340082
0.38138
0.572572
1.11768
1.67985
1.53311
1.39978
1.40038
1.25412
1.14769
1.13102
1.14605
1.1991
1.20126
1.16955
1.11782
1.09739
1.09377
1.08549
1.07768
1.07267
1.06577
1.01546
0.341314
0.330199
0.336837
0.370896
0.527288
1.03543
1.64799
1.55731
1.40067
1.40564
1.27585
1.14856
1.12384
1.13226
1.18678
1.1984
1.17252
1.12045
1.095
1.09106
1.08335
1.07588
1.07066
1.0639
1.01172
0.34042
0.328177
0.333692
0.361339
0.486958
0.944586
1.59505
1.58541
1.40569
1.4061
1.30159
1.1529
1.11605
1.11895
1.16875
1.19351
1.17421
1.12614
1.09296
1.08715
1.0791
1.07162
1.06626
1.05804
1.0004
0.339566
0.326222
0.330725
0.352825
0.451362
0.845984
1.50562
1.61788
1.41802
1.40344
1.32783
1.16274
1.10789
1.10555
1.14586
1.18633
1.17423
1.13479
1.09031
1.08126
1.07573
1.06707
1.05724
1.04572
0.97568
0.345806
0.340281
0.353812
0.429097
0.757637
1.40561
1.681
1.47421
1.41167
1.35372
1.20329
1.15634
1.15634
1.19368
1.21995
1.2012
1.15628
1.11609
1.10259
1.09909
1.08731
1.07729
1.07068
1.05853
1.0135
0.345617
0.339855
0.353071
0.426524
0.749584
1.39494
1.68406
1.47601
1.41175
1.35627
1.20424
1.1556
1.15497
1.19117
1.21932
1.2016
1.15697
1.11567
1.10185
1.09853
1.08684
1.07702
1.07059
1.05886
1.01352
0.345221
0.338963
0.351498
0.420944
0.730631
1.36467
1.69002
1.48158
1.41108
1.36258
1.20769
1.15433
1.15243
1.18657
1.21821
1.20254
1.15864
1.11553
1.10121
1.09823
1.08692
1.07733
1.0708
1.05995
1.0146
0.344642
0.33766
0.349223
0.412909
0.702132
1.31763
1.69483
1.48805
1.40812
1.37313
1.21489
1.15305
1.1495
1.18108
1.21677
1.2035
1.16101
1.11549
1.10053
1.09791
1.08706
1.07777
1.07175
1.062
1.0168
0.343924
0.336047
0.346448
0.4032
0.664413
1.2565
1.69859
1.49699
1.40445
1.38322
1.22371
1.15084
1.14419
1.17134
1.21298
1.20375
1.1636
1.1157
1.09977
1.09709
1.08713
1.07796
1.07219
1.06418
1.01697
0.343104
0.334208
0.343348
0.392439
0.619725
1.18756
1.69598
1.51162
1.40158
1.39387
1.23678
1.14895
1.13846
1.16057
1.20819
1.20326
1.16634
1.1164
1.09881
1.09567
1.08667
1.0783
1.07321
1.06479
1.01669
0.342223
0.332235
0.340096
0.381423
0.572746
1.11793
1.67988
1.53292
1.39974
1.40011
1.2534
1.14803
1.13162
1.1468
1.19957
1.20143
1.16946
1.11776
1.09738
1.09376
1.08547
1.07765
1.07262
1.06574
1.01553
0.341318
0.330206
0.336848
0.37093
0.527427
1.0357
1.64807
1.55721
1.40072
1.40563
1.27529
1.14882
1.12406
1.13244
1.1868
1.19835
1.17246
1.12037
1.09498
1.09103
1.08331
1.07583
1.07059
1.06387
1.0118
0.340423
0.328182
0.3337
0.361364
0.487065
0.944852
1.59522
1.58532
1.4057
1.40617
1.30134
1.15298
1.11596
1.11879
1.16853
1.19341
1.17415
1.12609
1.09294
1.08712
1.07906
1.07155
1.06618
1.05799
1.00049
0.339569
0.326227
0.330732
0.352843
0.451439
0.846226
1.50589
1.6178
1.41799
1.40352
1.32775
1.16268
1.10769
1.10527
1.14552
1.18621
1.17418
1.1348
1.09028
1.08125
1.0757
1.06698
1.05714
1.04565
0.975758
0.345803
0.340275
0.353803
0.429068
0.757546
1.40544
1.68103
1.47419
1.41159
1.3535
1.20321
1.15644
1.15649
1.19386
1.22
1.20119
1.15624
1.11608
1.10257
1.09907
1.08729
1.07728
1.07068
1.05854
1.01351
0.345615
0.339851
0.353065
0.426511
0.749575
1.39508
1.68419
1.47601
1.41144
1.35561
1.20402
1.15574
1.1552
1.1915
1.21938
1.20157
1.15693
1.11566
1.10183
1.09852
1.08683
1.07702
1.07059
1.05887
1.01354
0.345218
0.338957
0.351489
0.420919
0.730563
1.3646
1.69007
1.4816
1.41105
1.36259
1.20767
1.15419
1.15224
1.18631
1.21817
1.20256
1.15865
1.11553
1.10119
1.09822
1.08691
1.07733
1.0708
1.05996
1.01461
0.344639
0.337654
0.349213
0.412877
0.702026
1.31746
1.69489
1.48813
1.4082
1.37343
1.21504
1.15303
1.14946
1.18107
1.21673
1.20352
1.16103
1.11548
1.10052
1.09789
1.08705
1.07776
1.07175
1.06201
1.01681
0.343921
0.336041
0.346438
0.403169
0.664299
1.25633
1.69866
1.49708
1.4045
1.38369
1.22405
1.15071
1.14394
1.17095
1.2129
1.20377
1.16365
1.11571
1.09976
1.09708
1.08712
1.07795
1.07219
1.06419
1.01698
0.343102
0.334203
0.34334
0.392413
0.619618
1.18743
1.69603
1.51173
1.40166
1.39426
1.23715
1.14865
1.1379
1.15988
1.20795
1.20327
1.16643
1.11642
1.09879
1.09566
1.08666
1.0783
1.07321
1.06479
1.0167
0.342222
0.332231
0.34009
0.381403
0.572661
1.11781
1.67988
1.53304
1.39979
1.40034
1.25359
1.14773
1.13117
1.14627
1.19927
1.20134
1.16952
1.11779
1.09738
1.09375
1.08546
1.07764
1.07262
1.06575
1.01554
0.341317
0.330204
0.336845
0.370916
0.527367
1.03558
1.64805
1.55731
1.40077
1.40574
1.27532
1.14864
1.12393
1.13236
1.18685
1.19846
1.17252
1.12041
1.09497
1.09102
1.0833
1.07583
1.07059
1.06387
1.01181
0.340422
0.328181
0.333698
0.361356
0.487025
0.944749
1.59517
1.5854
1.40577
1.40621
1.30129
1.15296
1.11607
1.11895
1.16872
1.19345
1.17419
1.12611
1.09295
1.08711
1.07905
1.07155
1.06618
1.058
1.0005
0.339568
0.326226
0.330731
0.352839
0.451416
0.846146
1.5058
1.61785
1.41805
1.4035
1.32768
1.16273
1.10789
1.10555
1.14589
1.18634
1.17422
1.13477
1.09028
1.08125
1.07569
1.06698
1.05714
1.04566
0.975769
0.345804
0.340276
0.353804
0.429072
0.757561
1.40547
1.68102
1.4742
1.4116
1.3535
1.20321
1.15643
1.15649
1.19387
1.22
1.20119
1.15623
1.11608
1.10258
1.09908
1.0873
1.07729
1.0707
1.05856
1.01353
0.345615
0.339852
0.353066
0.426515
0.749585
1.39509
1.68418
1.47602
1.41146
1.35564
1.20403
1.15573
1.15519
1.1915
1.21938
1.20157
1.15693
1.11566
1.10184
1.09852
1.08684
1.07703
1.07061
1.05889
1.01356
0.345218
0.338958
0.35149
0.420922
0.730572
1.36461
1.69007
1.4816
1.41108
1.36264
1.20773
1.15423
1.15229
1.18639
1.21819
1.20256
1.15864
1.11553
1.1012
1.09822
1.08692
1.07734
1.07082
1.05998
1.01464
0.344639
0.337654
0.349214
0.41288
0.702034
1.31747
1.69486
1.48809
1.40819
1.37343
1.21501
1.15297
1.14939
1.18092
1.21673
1.20352
1.16103
1.11549
1.10052
1.0979
1.08706
1.07778
1.07177
1.06203
1.01684
0.343921
0.336042
0.34644
0.403173
0.664314
1.25636
1.69866
1.49707
1.40447
1.38352
1.22388
1.15074
1.14402
1.17111
1.21292
1.20377
1.16364
1.1157
1.09976
1.09708
1.08713
1.07796
1.07221
1.06422
1.017
0.343102
0.334204
0.343341
0.392416
0.619633
1.18744
1.69603
1.51173
1.40164
1.39411
1.23699
1.1488
1.13821
1.16026
1.2081
1.20329
1.16639
1.1164
1.0988
1.09566
1.08666
1.07831
1.07323
1.06482
1.01672
0.342222
0.332232
0.34009
0.381404
0.572669
1.11782
1.67988
1.53303
1.39978
1.40028
1.2536
1.14786
1.13132
1.14644
1.19943
1.20143
1.16951
1.11777
1.09737
1.09375
1.08547
1.07765
1.07263
1.06577
1.01556
0.341317
0.330204
0.336844
0.370916
0.527368
1.03558
1.64804
1.55729
1.40076
1.40574
1.27543
1.14867
1.12382
1.13218
1.18665
1.19836
1.1725
1.1204
1.09497
1.09102
1.08331
1.07584
1.0706
1.06389
1.01183
0.340422
0.328181
0.333698
0.361355
0.487022
0.944741
1.59515
1.58538
1.40576
1.40626
1.30144
1.1529
1.11585
1.11868
1.16844
1.19342
1.17418
1.12612
1.09294
1.08711
1.07905
1.07155
1.06619
1.05801
1.00052
0.339568
0.326226
0.33073
0.352837
0.451411
0.84613
1.50577
1.61786
1.41805
1.40357
1.32783
1.16268
1.10769
1.10529
1.14557
1.18627
1.17421
1.13481
1.09028
1.08124
1.07569
1.06699
1.05715
1.04567
0.975786
0.345803
0.340274
0.353801
0.42906
0.757514
1.40538
1.68101
1.4742
1.41161
1.35353
1.20323
1.15644
1.15649
1.19384
1.21999
1.20118
1.15624
1.11608
1.10257
1.09907
1.08729
1.07729
1.07069
1.05855
1.01352
0.345615
0.339851
0.353064
0.426502
0.749536
1.395
1.68417
1.47602
1.41147
1.35566
1.20405
1.15575
1.1552
1.19148
1.21937
1.20156
1.15693
1.11566
1.10183
1.09852
1.08683
1.07702
1.0706
1.05888
1.01355
0.345218
0.338956
0.351487
0.42091
0.73053
1.36454
1.69005
1.48161
1.41109
1.36265
1.20774
1.15424
1.1523
1.18638
1.21817
1.20255
1.15864
1.11553
1.10119
1.09821
1.08691
1.07733
1.07081
1.05997
1.01463
0.344638
0.337653
0.349211
0.412869
0.701988
1.31738
1.69485
1.4881
1.40821
1.37343
1.21499
1.15298
1.14939
1.18091
1.21672
1.20351
1.16103
1.11549
1.10051
1.09789
1.08704
1.07776
1.07175
1.06202
1.01683
0.343921
0.33604
0.346437
0.403162
0.664267
1.25627
1.69864
1.49706
1.40445
1.38352
1.22401
1.15074
1.14403
1.17112
1.21293
1.20377
1.16363
1.1157
1.09975
1.09707
1.08712
1.07795
1.0722
1.06421
1.01699
0.343102
0.334202
0.343338
0.392406
0.619589
1.18737
1.69602
1.51178
1.40168
1.3941
1.23655
1.14881
1.13821
1.16025
1.20809
1.20328
1.16638
1.1164
1.09879
1.09565
1.08666
1.07831
1.07324
1.06482
1.01668
0.342221
0.33223
0.340088
0.381395
0.572628
1.11776
1.67985
1.53305
1.39975
1.4003
1.25404
1.14784
1.13131
1.14643
1.19943
1.20144
1.1695
1.11777
1.09738
1.09376
1.08547
1.07767
1.07267
1.06578
1.0155
0.341316
0.330203
0.336842
0.370908
0.527332
1.03551
1.64799
1.55727
1.40064
1.40564
1.27595
1.14864
1.12381
1.13218
1.18664
1.19834
1.17249
1.12039
1.09497
1.09103
1.08333
1.07587
1.07065
1.0639
1.01175
0.340422
0.328179
0.333695
0.361349
0.486994
0.94467
1.59509
1.58538
1.40564
1.40613
1.30175
1.15288
1.11584
1.11868
1.16844
1.19342
1.17418
1.12612
1.09294
1.08712
1.07908
1.07161
1.06626
1.05804
1.00042
0.339568
0.326225
0.330728
0.352832
0.451389
0.846063
1.5057
1.61787
1.41798
1.4035
1.32798
1.16268
1.10769
1.10529
1.14555
1.18624
1.1742
1.1348
1.09028
1.08125
1.07571
1.06705
1.05724
1.04572
0.975681
0.345803
0.340275
0.353803
0.429066
0.757535
1.40542
1.68101
1.4742
1.4116
1.35349
1.20321
1.15644
1.15649
1.19387
1.22
1.20119
1.15623
1.11608
1.10257
1.09908
1.0873
1.07729
1.07069
1.05856
1.01353
0.345615
0.339851
0.353065
0.426508
0.749556
1.39503
1.68417
1.47602
1.41147
1.35563
1.20403
1.15574
1.1552
1.1915
1.21938
1.20157
1.15692
1.11566
1.10183
1.09852
1.08684
1.07703
1.07061
1.05889
1.01356
0.345218
0.338957
0.351489
0.420915
0.730547
1.36457
1.69005
1.4816
1.41108
1.36263
1.20772
1.15424
1.1523
1.18639
1.21819
1.20256
1.15864
1.11553
1.10119
1.09822
1.08692
1.07734
1.07082
1.05998
1.01463
0.344639
0.337653
0.349213
0.412873
0.702006
1.31741
1.69485
1.48809
1.4082
1.37341
1.21498
1.15298
1.14939
1.18093
1.21673
1.20352
1.16103
1.11549
1.10052
1.0979
1.08705
1.07778
1.07176
1.06203
1.01683
0.343921
0.336041
0.346438
0.403166
0.664284
1.2563
1.69865
1.49705
1.40444
1.38349
1.22399
1.15074
1.14403
1.17112
1.21293
1.20377
1.16364
1.1157
1.09976
1.09708
1.08713
1.07796
1.07221
1.06421
1.017
0.343102
0.334203
0.343339
0.39241
0.619604
1.1874
1.69603
1.51177
1.40168
1.39408
1.23653
1.14881
1.13821
1.16025
1.2081
1.20329
1.16639
1.1164
1.09879
1.09566
1.08666
1.07831
1.07323
1.06481
1.01672
0.342221
0.332231
0.340088
0.381398
0.572641
1.11778
1.67986
1.53304
1.39974
1.40028
1.25401
1.14784
1.13131
1.14643
1.19943
1.20144
1.16951
1.11777
1.09737
1.09375
1.08547
1.07765
1.07263
1.06577
1.01556
0.341316
0.330203
0.336843
0.37091
0.527342
1.03553
1.64801
1.55726
1.40063
1.40563
1.27593
1.14863
1.1238
1.13217
1.18664
1.19835
1.1725
1.1204
1.09497
1.09102
1.0833
1.07584
1.0706
1.06389
1.01183
0.340422
0.32818
0.333696
0.36135
0.487001
0.94469
1.59511
1.58537
1.40563
1.40612
1.30172
1.15287
1.11582
1.11867
1.16844
1.19343
1.17419
1.12613
1.09294
1.08711
1.07905
1.07155
1.06619
1.05801
1.00051
0.339568
0.326225
0.330729
0.352833
0.451395
0.846081
1.50572
1.61786
1.41798
1.40349
1.32796
1.16266
1.10767
1.10527
1.14556
1.18626
1.17422
1.13481
1.09028
1.08124
1.07569
1.06699
1.05715
1.04566
0.975782
0.345804
0.340276
0.353804
0.429072
0.757561
1.40547
1.68102
1.4742
1.4116
1.3535
1.20321
1.15643
1.15649
1.19387
1.22
1.20119
1.15623
1.11608
1.10258
1.09908
1.0873
1.07729
1.0707
1.05856
1.01353
0.345615
0.339852
0.353066
0.426515
0.749585
1.39509
1.68418
1.47602
1.41146
1.35564
1.20403
1.15573
1.15519
1.1915
1.21938
1.20157
1.15693
1.11566
1.10184
1.09852
1.08684
1.07703
1.07061
1.05889
1.01356
0.345218
0.338958
0.35149
0.420922
0.730572
1.36461
1.69007
1.4816
1.41108
1.36264
1.20773
1.15423
1.15229
1.18639
1.21819
1.20256
1.15864
1.11553
1.1012
1.09822
1.08692
1.07734
1.07082
1.05998
1.01464
0.344639
0.337654
0.349214
0.41288
0.702035
1.31747
1.69486
1.48809
1.40819
1.37343
1.21501
1.15297
1.14939
1.18092
1.21673
1.20352
1.16103
1.11549
1.10052
1.0979
1.08706
1.07778
1.07177
1.06203
1.01684
0.343921
0.336042
0.34644
0.403173
0.664314
1.25636
1.69866
1.49707
1.40447
1.38351
1.22388
1.15074
1.14402
1.17111
1.21292
1.20377
1.16364
1.1157
1.09976
1.09708
1.08713
1.07796
1.07221
1.06422
1.017
0.343102
0.334204
0.343341
0.392416
0.619633
1.18744
1.69603
1.51173
1.40164
1.39411
1.23699
1.1488
1.13821
1.16026
1.2081
1.20329
1.16639
1.1164
1.0988
1.09566
1.08666
1.07831
1.07323
1.06482
1.01672
0.342222
0.332232
0.34009
0.381404
0.572669
1.11782
1.67988
1.53303
1.39978
1.40028
1.2536
1.14786
1.13132
1.14644
1.19943
1.20143
1.16951
1.11777
1.09737
1.09375
1.08547
1.07765
1.07263
1.06577
1.01556
0.341317
0.330204
0.336844
0.370916
0.527368
1.03558
1.64804
1.55729
1.40076
1.40574
1.27543
1.14867
1.12382
1.13218
1.18665
1.19836
1.1725
1.1204
1.09497
1.09102
1.08331
1.07584
1.0706
1.06389
1.01183
0.340422
0.328181
0.333698
0.361355
0.487022
0.944742
1.59515
1.58538
1.40576
1.40626
1.30144
1.1529
1.11585
1.11868
1.16844
1.19342
1.17418
1.12612
1.09294
1.08711
1.07905
1.07155
1.06619
1.05801
1.00052
0.339568
0.326226
0.33073
0.352837
0.451411
0.846131
1.50577
1.61786
1.41805
1.40357
1.32783
1.16268
1.10769
1.10529
1.14557
1.18627
1.17421
1.13481
1.09028
1.08124
1.07569
1.06699
1.05715
1.04567
0.975786
0.345803
0.340275
0.353803
0.429068
0.757546
1.40544
1.68103
1.47419
1.41159
1.3535
1.20321
1.15644
1.15649
1.19386
1.22
1.20119
1.15624
1.11608
1.10257
1.09907
1.08729
1.07728
1.07068
1.05854
1.01351
0.345615
0.339851
0.353065
0.426511
0.749575
1.39508
1.68419
1.47601
1.41144
1.35561
1.20402
1.15574
1.1552
1.1915
1.21938
1.20157
1.15693
1.11566
1.10183
1.09852
1.08683
1.07702
1.07059
1.05887
1.01354
0.345218
0.338957
0.351489
0.420919
0.730563
1.3646
1.69007
1.4816
1.41105
1.36259
1.20767
1.15419
1.15224
1.18631
1.21817
1.20256
1.15865
1.11553
1.10119
1.09822
1.08691
1.07733
1.0708
1.05996
1.01461
0.344639
0.337654
0.349213
0.412877
0.702026
1.31746
1.69489
1.48813
1.4082
1.37343
1.21504
1.15303
1.14946
1.18107
1.21673
1.20352
1.16103
1.11548
1.10052
1.09789
1.08705
1.07776
1.07175
1.06201
1.01681
0.343921
0.336041
0.346438
0.403169
0.664299
1.25633
1.69866
1.49708
1.4045
1.38369
1.22405
1.15071
1.14394
1.17095
1.2129
1.20377
1.16365
1.11571
1.09976
1.09708
1.08712
1.07795
1.07219
1.06419
1.01698
0.343102
0.334203
0.34334
0.392413
0.619617
1.18743
1.69603
1.51173
1.40166
1.39426
1.23715
1.14865
1.1379
1.15988
1.20795
1.20327
1.16643
1.11642
1.09879
1.09566
1.08666
1.0783
1.07321
1.06479
1.0167
0.342222
0.332231
0.34009
0.381403
0.572661
1.11781
1.67988
1.53304
1.39979
1.40034
1.25359
1.14773
1.13117
1.14627
1.19927
1.20134
1.16952
1.11779
1.09738
1.09375
1.08546
1.07764
1.07262
1.06575
1.01554
0.341317
0.330204
0.336845
0.370916
0.527367
1.03558
1.64805
1.55731
1.40077
1.40574
1.27532
1.14864
1.12393
1.13236
1.18685
1.19846
1.17252
1.12041
1.09497
1.09102
1.0833
1.07583
1.07059
1.06387
1.01181
0.340422
0.328181
0.333698
0.361356
0.487025
0.944749
1.59517
1.5854
1.40577
1.40621
1.30129
1.15296
1.11607
1.11895
1.16872
1.19345
1.17419
1.12611
1.09295
1.08711
1.07905
1.07155
1.06618
1.058
1.0005
0.339568
0.326226
0.330731
0.352839
0.451416
0.846146
1.5058
1.61785
1.41805
1.4035
1.32768
1.16273
1.10789
1.10555
1.14589
1.18634
1.17422
1.13477
1.09028
1.08125
1.07569
1.06698
1.05714
1.04566
0.975769
0.345806
0.340281
0.353812
0.429097
0.757636
1.40561
1.681
1.47421
1.41167
1.35372
1.20329
1.15634
1.15634
1.19368
1.21995
1.2012
1.15628
1.11609
1.10259
1.09909
1.08731
1.07729
1.07068
1.05853
1.0135
0.345617
0.339855
0.353071
0.426524
0.749583
1.39494
1.68406
1.47601
1.41175
1.35627
1.20424
1.1556
1.15497
1.19117
1.21932
1.2016
1.15697
1.11567
1.10185
1.09853
1.08684
1.07702
1.07059
1.05886
1.01352
0.345221
0.338963
0.351498
0.420944
0.73063
1.36467
1.69002
1.48158
1.41108
1.36258
1.20769
1.15433
1.15243
1.18657
1.21821
1.20254
1.15864
1.11553
1.10121
1.09823
1.08692
1.07733
1.0708
1.05995
1.0146
0.344642
0.33766
0.349223
0.412909
0.702131
1.31763
1.69483
1.48805
1.40812
1.37313
1.21489
1.15305
1.1495
1.18108
1.21677
1.2035
1.16101
1.11549
1.10053
1.09791
1.08706
1.07777
1.07175
1.062
1.0168
0.343924
0.336047
0.346448
0.4032
0.664413
1.2565
1.69859
1.49699
1.40445
1.38322
1.22371
1.15084
1.14419
1.17134
1.21298
1.20375
1.1636
1.1157
1.09977
1.09709
1.08713
1.07795
1.07219
1.06418
1.01697
0.343104
0.334208
0.343348
0.392439
0.619725
1.18756
1.69598
1.51162
1.40158
1.39387
1.23678
1.14895
1.13846
1.16057
1.20819
1.20326
1.16634
1.1164
1.09881
1.09567
1.08667
1.0783
1.07321
1.06479
1.01669
0.342223
0.332235
0.340096
0.381423
0.572746
1.11793
1.67988
1.53292
1.39974
1.40011
1.2534
1.14803
1.13162
1.1468
1.19957
1.20143
1.16946
1.11776
1.09738
1.09376
1.08547
1.07765
1.07262
1.06574
1.01553
0.341318
0.330206
0.336848
0.37093
0.527427
1.0357
1.64807
1.55721
1.40072
1.40563
1.27529
1.14882
1.12406
1.13244
1.1868
1.19835
1.17246
1.12037
1.09498
1.09103
1.08331
1.07583
1.07059
1.06387
1.0118
0.340423
0.328182
0.3337
0.361364
0.487065
0.944852
1.59522
1.58532
1.4057
1.40617
1.30134
1.15298
1.11596
1.11879
1.16853
1.19341
1.17415
1.12609
1.09294
1.08712
1.07906
1.07155
1.06618
1.05799
1.00049
0.339569
0.326227
0.330732
0.352843
0.451439
0.846225
1.50589
1.6178
1.41799
1.40352
1.32775
1.16268
1.10769
1.10527
1.14552
1.18621
1.17418
1.1348
1.09028
1.08125
1.0757
1.06698
1.05714
1.04565
0.975758
0.345799
0.340268
0.353791
0.429036
0.757461
1.40538
1.68111
1.47426
1.41156
1.35346
1.20316
1.15635
1.15639
1.19377
1.21997
1.2012
1.15626
1.11611
1.10262
1.09912
1.08736
1.07736
1.07076
1.05853
1.01328
0.345611
0.339844
0.353054
0.426478
0.749485
1.39502
1.68431
1.4761
1.41146
1.35575
1.2041
1.1557
1.15511
1.19138
1.21934
1.20158
1.15696
1.11569
1.10188
1.09856
1.08689
1.07709
1.07067
1.05886
1.01333
0.345213
0.338949
0.351476
0.42088
0.730451
1.36447
1.69011
1.48162
1.41123
1.36322
1.20801
1.15403
1.152
1.18603
1.21809
1.20257
1.15869
1.11555
1.10123
1.09826
1.08696
1.07739
1.07087
1.05994
1.01442
0.344635
0.337647
0.349202
0.412844
0.701917
1.31731
1.69493
1.48811
1.40819
1.37352
1.21493
1.15277
1.14913
1.18062
1.21665
1.20352
1.1611
1.11552
1.10054
1.09792
1.08708
1.0778
1.07179
1.06199
1.01665
0.343918
0.336036
0.346431
0.403146
0.66422
1.25624
1.69874
1.49714
1.40438
1.38333
1.2238
1.15088
1.14434
1.17143
1.21297
1.20377
1.16364
1.11571
1.09978
1.09709
1.08714
1.07796
1.07221
1.06417
1.01686
0.343099
0.334199
0.343333
0.392394
0.619551
1.18734
1.69608
1.51186
1.40168
1.39393
1.23645
1.14912
1.1387
1.16082
1.2084
1.20332
1.16637
1.1164
1.09881
1.09568
1.08667
1.07831
1.07323
1.06478
1.0166
0.342219
0.332227
0.340084
0.381385
0.572595
1.11771
1.67985
1.53308
1.39977
1.40023
1.25415
1.14805
1.1314
1.14644
1.19934
1.2014
1.1695
1.11776
1.09738
1.09375
1.08547
1.07766
1.07265
1.06574
1.01545
0.341314
0.3302
0.336839
0.370901
0.527306
1.03546
1.64798
1.55726
1.40065
1.40562
1.27607
1.14868
1.12367
1.13196
1.18643
1.19831
1.17248
1.1204
1.09498
1.09104
1.08333
1.07585
1.07063
1.06388
1.01172
0.34042
0.328178
0.333693
0.361343
0.486975
0.944628
1.59507
1.58537
1.40563
1.40612
1.30177
1.15278
1.11567
1.11848
1.16815
1.19324
1.17413
1.12617
1.09296
1.08714
1.07908
1.07159
1.06623
1.05802
1.0004
0.339567
0.326223
0.330727
0.352829
0.451379
0.846033
1.50568
1.61786
1.418
1.40347
1.32792
1.16259
1.10765
1.10524
1.14547
1.18619
1.17417
1.13484
1.0903
1.08125
1.07572
1.06705
1.05722
1.0457
0.975674
0.338776
0.324399
0.32802
0.34541
0.420505
0.744281
1.3761
1.64905
1.43802
1.39772
1.35425
1.17968
1.10214
1.09175
1.11776
1.17749
1.17267
1.1435
1.09071
1.07847
1.06916
1.06044
1.04644
1.02472
0.898672
0.338061
0.322754
0.325635
0.339105
0.394817
0.645454
1.22637
1.66318
1.4714
1.38548
1.37768
1.20581
1.09887
1.07831
1.0903
1.15986
1.16905
1.14998
1.09408
1.07136
1.06137
1.05295
1.03536
1.01313
0.901166
0.337435
0.321315
0.32361
0.333974
0.374249
0.554974
1.09404
1.65642
1.51394
1.37126
1.39388
1.24081
1.10015
1.06305
1.06496
1.12603
1.16312
1.15139
1.10046
1.06825
1.05604
1.04805
1.02772
1.00884
0.918834
0.336911
0.320099
0.32194
0.329854
0.358876
0.48715
0.955765
1.6108
1.55579
1.36702
1.39582
1.28046
1.11041
1.05213
1.04506
1.08268
1.15235
1.14936
1.11593
1.07077
1.04948
1.03979
1.02027
1.00297
0.956108
0.336506
0.319121
0.320603
0.326573
0.347431
0.436244
0.806003
1.4457
1.59234
1.38002
1.39549
1.31729
1.13844
1.05014
1.02815
1.04571
1.12324
1.14335
1.12554
1.07694
1.04826
1.03612
1.0128
1.00028
0.975374
0.336245
0.318388
0.319571
0.323994
0.338935
0.399366
0.670262
1.25594
1.61256
1.42042
1.39139
1.3496
1.18358
1.05352
1.01221
1.02058
1.06661
1.13066
1.12394
1.09271
1.05128
1.03675
1.01367
0.997838
0.989056
0.336143
0.317872
0.318778
0.32196
0.332623
0.373349
0.558663
1.09354
1.61357
1.47644
1.38097
1.37626
1.23573
1.06482
1.00899
0.998304
1.01968
1.10694
1.11746
1.10318
1.05956
1.03989
1.01736
1.00011
0.991291
0.336209
0.317531
0.318154
0.320357
0.327861
0.354957
0.477297
0.945292
1.60408
1.522
1.3814
1.38669
1.28676
1.10116
1.01241
0.981773
0.98792
1.05004
1.10216
1.10007
1.0779
1.05166
1.02533
1.00429
0.992339
0.336409
0.317285
0.317649
0.319223
0.324617
0.342617
0.416383
0.744587
1.42978
1.54218
1.39337
1.39733
1.32865
1.16451
1.02294
0.979252
0.965731
0.991446
1.07683
1.09336
1.08137
1.06484
1.04323
1.01297
0.995474
0.336662
0.317065
0.317328
0.318578
0.322453
0.334483
0.380266
0.589182
1.11357
1.54844
1.41223
1.41909
1.36595
1.22801
1.04638
0.982
0.95461
0.962339
1.01906
1.07316
1.07579
1.06754
1.05683
1.03301
1.00444
0.336848
0.316938
0.317262
0.318025
0.320525
0.328445
0.356947
0.486055
0.93753
1.55056
1.46063
1.43366
1.40067
1.29457
1.08783
0.99134
0.95467
0.944073
0.962398
1.03741
1.06385
1.06417
1.06018
1.05111
1.02623
0.336933
0.316966
0.31711
0.317531
0.319125
0.324185
0.341275
0.412962
0.745031
1.44987
1.462
1.43601
1.42773
1.35883
1.16472
1.01233
0.958891
0.934237
0.93868
0.974507
1.04028
1.05681
1.05865
1.05667
1.0484
0.33697
0.317052
0.316937
0.317139
0.318146
0.321377
0.331719
0.370433
0.552546
1.04563
1.46249
1.42757
1.43508
1.4058
1.27375
1.05674
0.975062
0.935548
0.922194
0.934128
0.993622
1.04037
1.05419
1.05623
1.05499
0.336977
0.317136
0.316767
0.316863
0.317471
0.319466
0.325717
0.347423
0.441821
0.809371
1.43358
1.41313
1.42845
1.42248
1.35502
1.14545
1.01735
0.944133
0.917307
0.915595
0.934971
1.00187
1.0403
1.0528
1.05486
0.336983
0.317193
0.316643
0.316694
0.317029
0.318193
0.321836
0.333713
0.379906
0.607633
1.18312
1.386
1.41985
1.42126
1.39522
1.25642
1.07203
0.969435
0.921458
0.900761
0.906143
0.93399
1.00547
1.03937
1.05124
0.336987
0.317226
0.316565
0.31659
0.316744
0.317392
0.319473
0.325959
0.348589
0.449973
0.814754
1.3458
1.37894
1.41263
1.39974
1.33357
1.1464
1.01451
0.934908
0.901158
0.885285
0.894257
0.928919
1.00425
1.03767
0.33699
0.317243
0.316522
0.316526
0.316569
0.316903
0.318034
0.321536
0.33286
0.376569
0.588684
1.10747
1.32511
1.38543
1.39648
1.36475
1.24287
1.06227
0.963925
0.908074
0.882925
0.870924
0.880697
0.917762
0.998841
0.33699
0.31725
0.316499
0.316484
0.316478
0.316624
0.317213
0.31905
0.324638
0.34368
0.427165
0.745615
1.23659
1.32601
1.37554
1.36607
1.30782
1.1369
1.00356
0.928922
0.887554
0.862629
0.860628
0.871668
0.90837
0.336991
0.317245
0.316501
0.31646
0.316419
0.316469
0.316768
0.317715
0.32049
0.329029
0.36075
0.513012
0.904326
1.24355
1.32509
1.35236
1.32625
1.22821
1.0508
0.955375
0.904752
0.867654
0.845982
0.848733
0.861755
0.336991
0.317243
0.316504
0.316446
0.316391
0.316395
0.316552
0.317058
0.318426
0.322302
0.334838
0.384896
0.606173
1.03268
1.24481
1.31584
1.31856
1.27671
1.12514
0.993956
0.925855
0.887171
0.850069
0.834668
0.83813
0.336991
0.317243
0.316505
0.316443
0.316385
0.316364
0.316458
0.31678
0.31748
0.319243
0.324411
0.341953
0.417515
0.688448
1.09497
1.24422
1.29354
1.27802
1.20279
1.04002
0.947232
0.906085
0.870103
0.837449
0.827712
0.336991
0.317243
0.316505
0.316442
0.316384
0.316357
0.316428
0.316709
0.317071
0.31792
0.320233
0.326964
0.350176
0.455879
0.747967
1.11409
1.24038
1.2645
1.2308
1.10121
0.979323
0.919286
0.890994
0.855801
0.830993
0.336991
0.317243
0.316505
0.316442
0.316384
0.316356
0.316423
0.316696
0.316941
0.317408
0.318659
0.32164
0.329709
0.358245
0.486852
0.776015
1.12161
1.23026
1.22538
1.15869
1.00785
0.932478
0.897766
0.877823
0.845022
0.336991
0.317243
0.316505
0.316442
0.316383
0.316356
0.316423
0.316696
0.316948
0.317326
0.318325
0.319672
0.323099
0.332686
0.36495
0.498424
0.777345
1.1337
1.20321
1.16622
1.0421
0.939469
0.899477
0.880945
0.861581
0.336991
0.317243
0.316505
0.316442
0.316384
0.316356
0.316423
0.316696
0.316948
0.317323
0.318317
0.319255
0.321218
0.32575
0.336465
0.368768
0.491249
0.759414
1.11446
1.13536
1.05288
0.942706
0.892338
0.874696
0.862358
0.336991
0.317243
0.316505
0.316442
0.316383
0.316356
0.316423
0.316696
0.316948
0.317324
0.318316
0.31925
0.321013
0.324761
0.329982
0.342031
0.373342
0.469841
0.701937
0.956488
1.0003
0.935495
0.878774
0.86006
0.853014
0.336991
0.317243
0.316505
0.316442
0.316384
0.316356
0.316423
0.316696
0.316948
0.317323
0.318315
0.31925
0.321003
0.32479
0.329301
0.338681
0.355478
0.392196
0.470635
0.574035
0.684158
0.78885
0.831831
0.835618
0.835867
0.336991
0.317243
0.316505
0.316442
0.316384
0.316356
0.316423
0.316696
0.316948
0.317323
0.318315
0.31925
0.321004
0.324793
0.329277
0.338747
0.354012
0.38581
0.442653
0.496646
0.538025
0.565681
0.606421
0.696136
0.781028
0.336991
0.317243
0.316505
0.316442
0.316384
0.316356
0.316423
0.316696
0.316948
0.317323
0.318315
0.319249
0.321003
0.324793
0.329273
0.338748
0.353958
0.385704
0.441122
0.491385
0.523032
0.530367
0.537774
0.556423
0.597318
0.336991
0.317243
0.316505
0.316442
0.316384
0.316356
0.316423
0.316696
0.316948
0.317323
0.318315
0.319249
0.321004
0.324793
0.329275
0.338751
0.353958
0.385723
0.441075
0.491112
0.522004
0.527601
0.528739
0.532705
0.543642
0.336991
0.317243
0.316505
0.316442
0.316384
0.316356
0.316423
0.316696
0.316948
0.317323
0.318315
0.319249
0.321003
0.324791
0.329273
0.338745
0.353942
0.385702
0.441032
0.491009
0.521852
0.527316
0.527807
0.529946
0.535791
0.336991
0.317243
0.316505
0.316442
0.316384
0.316356
0.316423
0.316696
0.316948
0.317323
0.318315
0.31925
0.321003
0.324794
0.329274
0.338751
0.35396
0.385714
0.441057
0.491103
0.521945
0.5274
0.527848
0.529852
0.535194
0.336991
0.317243
0.316505
0.316442
0.316384
0.316356
0.316423
0.316696
0.316948
0.317323
0.318315
0.319249
0.321003
0.324794
0.329273
0.338748
0.353958
0.385705
0.441046
0.491103
0.521943
0.527394
0.527837
0.529829
0.535117
0.336991
0.317243
0.316505
0.316442
0.316384
0.316356
0.316423
0.316696
0.316948
0.317323
0.318315
0.319249
0.321002
0.324793
0.329273
0.338745
0.353946
0.385703
0.441039
0.491027
0.521861
0.527305
0.527719
0.52965
0.534922
0.336991
0.317243
0.316505
0.316442
0.316384
0.316356
0.316423
0.316696
0.316948
0.317323
0.318314
0.319249
0.321002
0.324794
0.329272
0.338747
0.353957
0.385699
0.441041
0.49111
0.521954
0.527402
0.527842
0.529827
0.535103
0.336991
0.317243
0.316505
0.316442
0.316384
0.316356
0.316423
0.316696
0.316948
0.317323
0.318315
0.319249
0.321003
0.324793
0.329273
0.338748
0.353959
0.385708
0.441052
0.491112
0.521958
0.527407
0.527846
0.52983
0.535105
0.336991
0.317243
0.316505
0.316442
0.316384
0.316356
0.316423
0.316696
0.316948
0.317323
0.318314
0.319249
0.321002
0.324792
0.329271
0.338743
0.353944
0.385688
0.44102
0.491035
0.521884
0.527335
0.52776
0.529714
0.534978
0.336991
0.317243
0.316505
0.316442
0.316384
0.316356
0.316423
0.316696
0.316948
0.317323
0.318314
0.319249
0.321002
0.324793
0.329273
0.338747
0.353955
0.38571
0.441061
0.491102
0.521946
0.527393
0.527826
0.529795
0.535074
0.336991
0.317243
0.316505
0.316442
0.316384
0.316356
0.316423
0.316696
0.316948
0.317323
0.318314
0.319248
0.321002
0.324792
0.329271
0.338742
0.353944
0.385692
0.441026
0.491038
0.521877
0.527325
0.527748
0.529698
0.534965
0.336991
0.317243
0.316505
0.316442
0.316384
0.316356
0.316423
0.316696
0.316948
0.317323
0.318314
0.319249
0.321002
0.324793
0.329272
0.338747
0.353959
0.385704
0.44105
0.491117
0.521954
0.527399
0.527838
0.529823
0.5351
0.338777
0.324402
0.328025
0.345422
0.420557
0.744483
1.3764
1.64901
1.43795
1.39784
1.35437
1.17963
1.10193
1.09145
1.11738
1.17734
1.17262
1.14354
1.09069
1.07846
1.06913
1.06036
1.04632
1.02462
0.89871
0.338063
0.322756
0.325639
0.339114
0.394851
0.645601